/*--------------------------------*- C++ -*----------------------------------*\
  =========                 |
  \\      /  F ield         | OpenFOAM: The Open Source CFD Toolbox
   \\    /   O peration     | Website:  https://openfoam.org
    \\  /    A nd           | Version:  7
     \\/     M anipulation  |
\*---------------------------------------------------------------------------*/
FoamFile
{
    version     2.0;
    format      ascii;
    class       volScalarField;
    location    "1.7";
    object      rho;
}
// * * * * * * * * * * * * * * * * * * * * * * * * * * * * * * * * * * * * * //

dimensions      [1 -3 0 0 0 0 0];

internalField   nonuniform List<scalar> 
4128
(
1.40908
1.36402
1.3394
1.32714
1.31454
1.30244
1.28996
1.27415
1.2519
1.21494
1.16474
1.14341
1.13631
1.12976
1.12453
1.11879
1.11143
1.10271
1.09137
1.07102
1.03191
0.999681
0.992335
0.988328
0.986362
0.982852
0.977887
0.973034
0.967186
0.957945
0.938806
0.909651
0.897473
0.894295
0.891707
0.889815
0.886395
0.88127
0.875212
0.869274
0.861558
0.850484
0.832923
0.811757
0.803426
0.801046
0.800383
0.798534
0.794424
0.790502
0.788456
0.787316
0.786537
0.784183
0.777046
0.773625
0.780036
0.800588
0.841352
0.887269
0.932236
0.967827
0.994668
1.00494
1.00942
1.01116
1.0093
1.00461
1.0051
1.01179
1.02695
1.04645
1.05919
1.06186
1.06093
1.0569
1.04936
1.04097
1.03947
1.03935
1.03896
1.04122
1.05074
1.05761
1.05838
1.05831
1.05657
1.05069
1.04113
1.03531
1.03467
1.03501
1.03604
1.03813
1.04313
1.04803
1.04851
1.04781
1.04516
1.03865
1.02955
1.02443
1.02295
1.02208
1.02165
1.02279
1.02558
1.02515
1.02341
1.02087
1.0167
1.01201
1.01071
1.01045
1.01063
1.01267
1.01478
1.01465
1.01391
1.01209
1.00776
1.00108
0.997551
0.997214
0.997178
0.998235
1.00157
1.00378
1.00299
1.4464
1.40171
1.37815
1.36479
1.35176
1.33955
1.32669
1.30935
1.28235
1.23589
1.19279
1.18129
1.1741
1.16708
1.15965
1.15185
1.14332
1.13287
1.11628
1.08208
1.04148
1.02876
1.02359
1.02042
1.01822
1.01302
1.0072
1.00111
0.993013
0.976546
0.945433
0.92587
0.92193
0.920029
0.919549
0.918032
0.91418
0.908951
0.902275
0.894405
0.882996
0.863114
0.843626
0.831427
0.826488
0.824547
0.824385
0.82228
0.817842
0.813151
0.808833
0.804846
0.800193
0.791142
0.776389
0.771603
0.770737
0.773432
0.786378
0.815062
0.859277
0.905864
0.94402
0.966968
0.97773
0.989428
0.99486
0.997279
1.00155
1.01189
1.03334
1.05273
1.05881
1.06076
1.06108
1.05769
1.04896
1.04191
1.04209
1.04348
1.04528
1.05276
1.06551
1.06901
1.06918
1.06899
1.06513
1.05391
1.04244
1.03812
1.03738
1.03753
1.03935
1.04451
1.05404
1.06012
1.06037
1.0593
1.05546
1.046
1.03582
1.03197
1.03044
1.02935
1.02893
1.03106
1.03492
1.0347
1.03298
1.03002
1.02512
1.02021
1.01899
1.01872
1.01901
1.02101
1.02213
1.02166
1.02075
1.01861
1.01357
1.00859
1.00761
1.00747
1.00778
1.00989
1.0122
1.01169
1.01032
1.48444
1.44191
1.41639
1.40082
1.38731
1.37447
1.36035
1.34184
1.31291
1.26731
1.23178
1.22047
1.21285
1.20414
1.19464
1.18522
1.1747
1.16006
1.13228
1.08927
1.06786
1.06193
1.0567
1.05351
1.04986
1.04414
1.0374
1.02932
1.01585
0.987585
0.957573
0.950162
0.947161
0.946154
0.946157
0.944078
0.940173
0.934902
0.928098
0.918656
0.902765
0.877335
0.860249
0.853032
0.848902
0.84702
0.847091
0.844857
0.840227
0.8353
0.830541
0.825
0.816704
0.801168
0.783393
0.778209
0.777381
0.778177
0.784772
0.79271
0.806053
0.830052
0.857561
0.886317
0.913965
0.943665
0.96356
0.978577
0.993938
1.00639
1.03147
1.05148
1.05615
1.05823
1.05916
1.05653
1.04724
1.04142
1.04293
1.04608
1.05201
1.06639
1.07897
1.07943
1.07829
1.07643
1.06907
1.05364
1.04253
1.0397
1.0388
1.039
1.04298
1.05403
1.06765
1.07263
1.07249
1.07067
1.06426
1.05055
1.04079
1.03821
1.03666
1.03537
1.03524
1.03945
1.04401
1.04384
1.04218
1.03846
1.03213
1.02728
1.02645
1.02626
1.02673
1.02867
1.02931
1.02865
1.02767
1.02555
1.02084
1.01752
1.01703
1.01684
1.01701
1.01844
1.01937
1.01827
1.01619
1.52082
1.48183
1.4548
1.43648
1.42166
1.40736
1.39135
1.37188
1.34445
1.30669
1.27337
1.25974
1.25083
1.24056
1.22894
1.21734
1.20337
1.18079
1.14056
1.10976
1.10247
1.09597
1.09013
1.08548
1.08075
1.07495
1.06726
1.05562
1.03213
0.995907
0.980184
0.976273
0.973087
0.971636
0.971345
0.969479
0.965347
0.959838
0.952575
0.940865
0.91916
0.892798
0.880518
0.874718
0.870801
0.86889
0.868721
0.86672
0.862703
0.858121
0.853081
0.846327
0.833445
0.810706
0.796771
0.793303
0.790937
0.790457
0.791915
0.797837
0.802741
0.805005
0.809407
0.81704
0.831772
0.856527
0.894529
0.929301
0.965058
0.992703
1.0213
1.04499
1.05225
1.05573
1.05663
1.05411
1.04456
1.0403
1.04278
1.0488
1.06095
1.07936
1.08656
1.08512
1.08222
1.07797
1.06772
1.0506
1.04265
1.04078
1.03975
1.04105
1.05069
1.06874
1.0811
1.08339
1.08278
1.07873
1.06691
1.0509
1.04388
1.0426
1.04139
1.04049
1.0426
1.05042
1.05427
1.0539
1.05186
1.04647
1.038
1.0338
1.03318
1.03297
1.03346
1.0355
1.03624
1.03551
1.0345
1.03268
1.02875
1.02548
1.0249
1.02464
1.02449
1.02451
1.02504
1.02421
1.02222
1.55427
1.519
1.49323
1.47292
1.45613
1.43978
1.42171
1.4013
1.37657
1.34537
1.31474
1.29709
1.28599
1.27516
1.26223
1.24813
1.22863
1.19357
1.15433
1.14316
1.13734
1.13051
1.12369
1.11705
1.11091
1.10424
1.09474
1.07621
1.04117
1.01401
1.00796
1.00417
1.00069
0.997592
0.995263
0.993028
0.989031
0.983242
0.97503
0.961087
0.936052
0.912211
0.902126
0.89664
0.892932
0.891123
0.890341
0.88776
0.884097
0.879698
0.874113
0.865317
0.847615
0.825349
0.818219
0.81574
0.812048
0.809458
0.809151
0.810498
0.810552
0.809398
0.806497
0.798449
0.794541
0.799188
0.817568
0.850432
0.893824
0.945462
0.987521
1.02463
1.03863
1.04657
1.05081
1.04876
1.04228
1.04
1.04359
1.05515
1.07302
1.08669
1.08858
1.08615
1.08168
1.07565
1.06303
1.04802
1.04356
1.04268
1.04251
1.04847
1.06655
1.08392
1.08978
1.09062
1.08898
1.08077
1.06491
1.04973
1.0461
1.04578
1.04553
1.04678
1.05437
1.06447
1.06656
1.06612
1.06355
1.05545
1.04444
1.04032
1.03927
1.03874
1.039
1.04133
1.04283
1.04222
1.04115
1.03949
1.03594
1.03212
1.03126
1.03099
1.03045
1.02987
1.03016
1.03048
1.03079
1.58517
1.55216
1.52947
1.50967
1.49156
1.47237
1.45205
1.43048
1.40715
1.38034
1.35323
1.33371
1.31959
1.3075
1.29384
1.27623
1.2484
1.20592
1.18333
1.17714
1.17154
1.16437
1.15677
1.14888
1.14094
1.13206
1.11728
1.08598
1.05183
1.0407
1.0359
1.03259
1.02957
1.02489
1.02066
1.01661
1.01159
1.00487
0.995089
0.978422
0.952069
0.931973
0.923768
0.918878
0.915527
0.914248
0.912484
0.909057
0.905448
0.90104
0.894627
0.882065
0.857604
0.840658
0.837775
0.836351
0.832971
0.829855
0.829207
0.828491
0.825825
0.821621
0.812696
0.798947
0.793945
0.794275
0.796738
0.804839
0.824954
0.864433
0.909083
0.955173
0.986483
1.00648
1.02229
1.03
1.03358
1.03686
1.04498
1.06303
1.08276
1.08897
1.09
1.08874
1.08242
1.07229
1.058
1.04687
1.04644
1.04735
1.0513
1.06589
1.08603
1.09246
1.09341
1.0935
1.08989
1.07812
1.05829
1.04833
1.04747
1.04795
1.05002
1.05677
1.07074
1.07938
1.07961
1.07847
1.07343
1.06044
1.04876
1.04561
1.04436
1.04356
1.04383
1.04726
1.04996
1.04953
1.0484
1.0465
1.04237
1.03772
1.03666
1.03614
1.0353
1.03453
1.03541
1.04013
1.05579
1.6146
1.58276
1.56304
1.54409
1.52544
1.50501
1.48286
1.46003
1.43684
1.41256
1.38869
1.36962
1.35362
1.33928
1.32383
1.29952
1.26313
1.22915
1.21681
1.21009
1.20459
1.19685
1.18871
1.18029
1.17077
1.15752
1.1305
1.09085
1.07385
1.06978
1.06432
1.06063
1.05797
1.05284
1.04727
1.04124
1.03409
1.02511
1.01277
0.993662
0.968237
0.951763
0.94543
0.941326
0.938585
0.937769
0.934942
0.930973
0.926939
0.921794
0.913105
0.895269
0.869888
0.860119
0.857979
0.857068
0.8543
0.850969
0.849214
0.847525
0.844277
0.837689
0.822222
0.804131
0.800096
0.799613
0.800447
0.805331
0.809854
0.818304
0.836995
0.862417
0.892176
0.920074
0.950776
0.978425
1.0049
1.02203
1.03513
1.05991
1.08501
1.09143
1.09328
1.09272
1.08547
1.06911
1.05368
1.05004
1.05234
1.0565
1.06678
1.08694
1.09659
1.096
1.09494
1.0929
1.08618
1.06896
1.05295
1.04914
1.04897
1.05063
1.05762
1.07311
1.08869
1.09161
1.09032
1.08658
1.07646
1.06034
1.05165
1.04992
1.04875
1.04795
1.04933
1.05528
1.05852
1.05824
1.05715
1.05425
1.0477
1.04222
1.04106
1.04031
1.03937
1.0396
1.04661
1.0791
1.18118
1.64601
1.61416
1.59526
1.57659
1.55681
1.53569
1.51278
1.48972
1.46737
1.44519
1.42383
1.40547
1.38854
1.37149
1.35075
1.3158
1.28045
1.26192
1.25024
1.24241
1.23653
1.22819
1.21945
1.21047
1.19896
1.17786
1.13713
1.10615
1.1009
1.09827
1.09243
1.08767
1.08503
1.08012
1.07418
1.06724
1.05751
1.04418
1.02764
1.00722
0.985128
0.972479
0.967606
0.96414
0.962217
0.961414
0.957761
0.953362
0.94882
0.942576
0.929724
0.903918
0.88395
0.879865
0.877921
0.877067
0.874835
0.871965
0.869453
0.866787
0.862745
0.853727
0.834596
0.818966
0.816049
0.814864
0.814349
0.81459
0.816295
0.819709
0.820864
0.822931
0.827424
0.835498
0.856187
0.893675
0.93815
0.982193
1.01286
1.04836
1.07629
1.08401
1.08763
1.08802
1.08195
1.06751
1.05435
1.05341
1.05684
1.06477
1.08094
1.09732
1.09937
1.0975
1.09494
1.09067
1.07909
1.06159
1.05498
1.0536
1.0537
1.05878
1.07412
1.09333
1.10046
1.10016
1.09719
1.08909
1.0748
1.05892
1.05421
1.05332
1.05248
1.05268
1.05812
1.06613
1.06796
1.06753
1.06559
1.059
1.04941
1.0452
1.04424
1.04357
1.04389
1.05437
1.11135
1.25599
1.45996
1.67888
1.6495
1.62925
1.60887
1.58711
1.56485
1.54197
1.52017
1.4994
1.47925
1.45978
1.44191
1.42378
1.40267
1.37174
1.3287
1.30698
1.29541
1.28299
1.27444
1.26793
1.2593
1.24983
1.23966
1.22311
1.18841
1.14689
1.13383
1.12962
1.12775
1.12132
1.1148
1.11108
1.10563
1.09949
1.09213
1.0795
1.06052
1.04092
1.02297
1.00569
0.995101
0.990676
0.98749
0.985749
0.984519
0.980764
0.975947
0.970412
0.961776
0.942929
0.914527
0.903109
0.900739
0.899125
0.897677
0.895037
0.892217
0.889225
0.885788
0.880252
0.866183
0.845414
0.837738
0.836007
0.834786
0.833784
0.831574
0.829614
0.827728
0.826431
0.823678
0.815161
0.810557
0.812601
0.824598
0.851807
0.900097
0.954468
1.00659
1.04384
1.06097
1.07113
1.07175
1.06977
1.06406
1.05593
1.05525
1.05982
1.07331
1.09052
1.09856
1.09819
1.09559
1.09241
1.08661
1.07247
1.06145
1.06026
1.06026
1.06319
1.07578
1.09607
1.10568
1.10689
1.10625
1.10074
1.08851
1.06943
1.059
1.05744
1.05706
1.05718
1.06157
1.07249
1.07818
1.07804
1.07671
1.0714
1.05942
1.04913
1.04696
1.04634
1.04797
1.06459
1.14939
1.34399
1.56961
1.69228
1.71101
1.68658
1.66555
1.64331
1.61909
1.59483
1.57236
1.55244
1.53336
1.51455
1.49605
1.47749
1.45678
1.42863
1.38536
1.34884
1.33846
1.32791
1.31574
1.30709
1.29966
1.29095
1.28055
1.26644
1.23699
1.19436
1.17067
1.1642
1.15928
1.1566
1.15033
1.14294
1.13782
1.13133
1.1234
1.11348
1.09586
1.07274
1.05536
1.0431
1.03024
1.01925
1.01441
1.01115
1.00898
1.00725
1.00361
0.99841
0.991507
0.97913
0.95333
0.929168
0.923834
0.92182
0.920999
0.918627
0.915268
0.912027
0.908465
0.903689
0.894766
0.876168
0.861365
0.858244
0.85724
0.856806
0.85381
0.850273
0.84706
0.843756
0.838793
0.829634
0.815631
0.811651
0.811694
0.812482
0.817101
0.832128
0.863049
0.903846
0.95271
0.991818
1.03034
1.0454
1.05192
1.06038
1.05759
1.05587
1.06609
1.08514
1.09629
1.0977
1.09647
1.09317
1.08835
1.08014
1.06721
1.06292
1.06431
1.06715
1.07593
1.09489
1.10776
1.10977
1.11028
1.10833
1.10053
1.08269
1.067
1.06254
1.0621
1.06243
1.06625
1.07812
1.08931
1.09008
1.08863
1.0843
1.07254
1.05607
1.04913
1.04847
1.05154
1.08222
1.20189
1.43038
1.62639
1.74662
1.77762
1.74196
1.72178
1.70159
1.67939
1.65459
1.62913
1.60669
1.58732
1.56832
1.54898
1.52978
1.50893
1.48342
1.44591
1.39918
1.37926
1.371
1.36043
1.34981
1.34115
1.33261
1.3234
1.31069
1.28576
1.24145
1.20979
1.20201
1.19597
1.19035
1.18543
1.17902
1.17181
1.16549
1.15824
1.14698
1.1288
1.10569
1.08613
1.07536
1.06784
1.05794
1.045
1.03781
1.03411
1.03115
1.02859
1.025
1.01938
1.01102
0.995371
0.967269
0.949227
0.945455
0.943396
0.94278
0.939832
0.935652
0.93159
0.927118
0.919585
0.904799
0.886982
0.880365
0.878031
0.877286
0.877443
0.874561
0.87048
0.866776
0.862663
0.855031
0.840368
0.827196
0.821588
0.817995
0.817761
0.819147
0.821174
0.826489
0.837595
0.859611
0.88611
0.921013
0.962962
0.996824
1.03087
1.04515
1.05552
1.07333
1.09338
1.10014
1.10113
1.1005
1.09524
1.08551
1.07396
1.06525
1.06562
1.06841
1.0748
1.08974
1.10633
1.10977
1.11006
1.11007
1.10682
1.09317
1.07509
1.06841
1.06694
1.06682
1.07011
1.08204
1.09769
1.10198
1.10065
1.09654
1.08678
1.06921
1.054
1.05322
1.05983
1.11524
1.27494
1.50206
1.69985
1.80118
1.81535
1.80377
1.77477
1.75578
1.73627
1.71541
1.69261
1.66844
1.64561
1.62451
1.60315
1.58109
1.55905
1.53393
1.50079
1.45827
1.42474
1.4136
1.40443
1.39486
1.38585
1.37676
1.3671
1.35569
1.33499
1.29209
1.2496
1.23854
1.23296
1.22843
1.2224
1.21494
1.20846
1.20192
1.19456
1.18344
1.16008
1.13303
1.11774
1.10822
1.1007
1.0947
1.08639
1.07208
1.06069
1.05652
1.05262
1.04832
1.04408
1.03824
1.02855
1.01163
0.986185
0.971189
0.967236
0.964969
0.963892
0.960754
0.955898
0.95066
0.943877
0.931263
0.914464
0.905099
0.900782
0.89811
0.897314
0.897284
0.894731
0.890215
0.885736
0.879966
0.868853
0.851556
0.843117
0.83904
0.834391
0.829834
0.8273
0.827487
0.828989
0.831314
0.832723
0.836762
0.843026
0.864816
0.901779
0.95028
0.998672
1.03723
1.06272
1.08485
1.09709
1.10043
1.10135
1.09894
1.08797
1.07344
1.06866
1.07028
1.07543
1.08652
1.10332
1.11156
1.11119
1.10991
1.10809
1.10118
1.08514
1.07514
1.0736
1.07309
1.07516
1.08581
1.10278
1.1108
1.11054
1.10714
1.09875
1.08413
1.06389
1.06214
1.08368
1.16532
1.37442
1.59812
1.75868
1.8341
1.83652
1.8206
1.79395
1.8116
1.79126
1.77151
1.75206
1.7322
1.71041
1.68706
1.66214
1.63529
1.60802
1.5814
1.55047
1.51244
1.4786
1.4609
1.44984
1.44032
1.43197
1.42337
1.41345
1.40161
1.38297
1.34425
1.29565
1.27548
1.26933
1.26473
1.26135
1.25446
1.24635
1.23942
1.23259
1.222
1.19715
1.16229
1.14226
1.13871
1.13536
1.1281
1.12172
1.11395
1.09889
1.08285
1.07772
1.07333
1.06737
1.06163
1.05551
1.04574
1.03012
1.01046
0.995078
0.989263
0.986509
0.984537
0.980814
0.975198
0.968246
0.957569
0.939479
0.927786
0.925493
0.921579
0.918456
0.917496
0.916946
0.914419
0.90997
0.904271
0.895669
0.879659
0.864287
0.860272
0.857815
0.854009
0.848825
0.844579
0.842798
0.841308
0.839445
0.837236
0.831397
0.825298
0.826677
0.836318
0.862473
0.912953
0.965118
1.01243
1.04717
1.07732
1.09107
1.0932
1.09234
1.08564
1.07436
1.07116
1.07364
1.08367
1.09961
1.11095
1.11284
1.11166
1.10935
1.10517
1.09508
1.08376
1.08161
1.08201
1.0839
1.09264
1.1091
1.11774
1.11818
1.11602
1.10866
1.09635
1.07515
1.07521
1.11347
1.25111
1.46408
1.70155
1.7906
1.83248
1.84839
1.84402
1.82947
1.80513
1.8509
1.8297
1.80929
1.79077
1.77301
1.75258
1.72821
1.69865
1.66425
1.62963
1.59522
1.55981
1.52927
1.51275
1.50047
1.48876
1.47941
1.47108
1.46157
1.44976
1.4315
1.39428
1.34397
1.31506
1.30753
1.30147
1.29853
1.29494
1.28748
1.2794
1.27159
1.26157
1.23806
1.1984
1.17098
1.1656
1.16523
1.16363
1.15638
1.14856
1.13991
1.12421
1.10444
1.09776
1.09329
1.0865
1.0789
1.07165
1.06243
1.04995
1.03589
1.02149
1.0116
1.00785
1.0047
0.999965
0.993173
0.983726
0.968057
0.950363
0.946116
0.945378
0.942073
0.939135
0.937975
0.936029
0.93314
0.928777
0.921889
0.908693
0.889011
0.879701
0.877259
0.875305
0.872714
0.868493
0.863652
0.860511
0.858237
0.854541
0.846842
0.833963
0.826773
0.826522
0.827255
0.831368
0.845542
0.871979
0.915335
0.965861
1.014
1.04774
1.05984
1.07123
1.07262
1.07052
1.06969
1.0764
1.09364
1.10757
1.11032
1.11037
1.10936
1.10705
1.10146
1.09132
1.08719
1.08868
1.09116
1.09758
1.1126
1.12354
1.12403
1.12279
1.11758
1.10683
1.08957
1.09682
1.15886
1.34879
1.57126
1.72526
1.83707
1.87482
1.87844
1.87366
1.85421
1.82853
1.80714
1.88982
1.86901
1.84964
1.83166
1.81371
1.79246
1.76548
1.73002
1.68722
1.6445
1.6046
1.57543
1.56284
1.55284
1.54099
1.52989
1.52058
1.51102
1.49935
1.48192
1.4464
1.39191
1.35406
1.34605
1.34
1.33598
1.33456
1.32929
1.32162
1.31321
1.30241
1.28031
1.23971
1.20431
1.19574
1.19346
1.19317
1.19049
1.18386
1.17518
1.16465
1.14758
1.12536
1.11682
1.11227
1.10544
1.0968
1.0886
1.07991
1.07025
1.05999
1.04812
1.03574
1.02961
1.02486
1.01884
1.01022
0.996879
0.977444
0.966693
0.9654
0.964787
0.961692
0.959785
0.958284
0.955208
0.951464
0.946436
0.936013
0.918787
0.902398
0.896427
0.893787
0.891987
0.891132
0.888722
0.884578
0.880875
0.877768
0.872299
0.858846
0.84493
0.838738
0.835015
0.834122
0.835088
0.837186
0.841862
0.852639
0.875573
0.905317
0.944927
0.983253
1.02305
1.04359
1.05616
1.06985
1.07844
1.09613
1.10671
1.10744
1.10727
1.10612
1.10336
1.0963
1.08881
1.08937
1.09259
1.09825
1.10984
1.12372
1.12662
1.12556
1.12288
1.11597
1.11021
1.13856
1.24567
1.43635
1.66655
1.78997
1.85456
1.88897
1.89013
1.88398
1.87219
1.84657
1.82303
1.81458
1.92826
1.90831
1.89165
1.8729
1.85234
1.82837
1.79634
1.75381
1.70316
1.6553
1.62276
1.61053
1.60367
1.59381
1.58228
1.57182
1.56176
1.55013
1.53357
1.50086
1.44476
1.39465
1.38235
1.37763
1.37461
1.37325
1.37123
1.36461
1.35647
1.34611
1.32459
1.28281
1.24258
1.22903
1.2248
1.22389
1.22136
1.21667
1.21027
1.20062
1.18698
1.16784
1.1469
1.13737
1.13184
1.12469
1.1156
1.10721
1.09902
1.09061
1.08226
1.07246
1.0605
1.05205
1.04555
1.03792
1.0266
1.00852
0.990688
0.986335
0.985791
0.983851
0.980421
0.979462
0.977813
0.974123
0.969268
0.962002
0.946306
0.928312
0.920144
0.914623
0.911018
0.909107
0.908499
0.907522
0.904265
0.900217
0.895914
0.887376
0.870357
0.859509
0.856162
0.852357
0.847608
0.845144
0.84462
0.846097
0.848399
0.849614
0.853992
0.863597
0.884519
0.919032
0.967309
1.01129
1.04824
1.07004
1.09038
1.10326
1.10611
1.10574
1.10401
1.0989
1.09037
1.08831
1.08997
1.09462
1.10461
1.11828
1.1254
1.1255
1.12496
1.1215
1.13116
1.17799
1.35476
1.561
1.73718
1.83198
1.86744
1.88237
1.88593
1.88923
1.87912
1.86228
1.8418
1.82992
1.82773
1.9678
1.94901
1.93392
1.91292
1.88781
1.85883
1.81925
1.76831
1.71729
1.67724
1.66144
1.65371
1.6459
1.63487
1.62345
1.61247
1.60051
1.58508
1.55678
1.50286
1.44254
1.42019
1.41519
1.41217
1.41175
1.41128
1.40742
1.39976
1.39008
1.37264
1.33093
1.28209
1.26367
1.25946
1.25587
1.25443
1.24963
1.2435
1.23606
1.22407
1.20599
1.18467
1.16748
1.15951
1.15342
1.14558
1.13618
1.128
1.11996
1.11149
1.10319
1.09415
1.08331
1.07457
1.06688
1.05723
1.04232
1.02105
1.00911
1.00697
1.00624
1.00296
0.999381
0.998558
0.996715
0.992524
0.986114
0.974702
0.95468
0.94212
0.938617
0.933605
0.928978
0.926848
0.926252
0.925462
0.922829
0.918479
0.911853
0.89899
0.883302
0.876809
0.874571
0.872113
0.86768
0.863277
0.860953
0.859021
0.856454
0.85369
0.849816
0.844798
0.845897
0.854664
0.880725
0.922419
0.971769
1.02082
1.05866
1.08689
1.09624
1.10226
1.10412
1.1007
1.08983
1.08871
1.0912
1.09911
1.11487
1.12376
1.12453
1.12341
1.12784
1.15949
1.24677
1.43374
1.6829
1.79546
1.85438
1.88414
1.89467
1.89616
1.89879
1.89398
1.8761
1.85991
1.84611
1.84197
1.84225
2.00861
1.99138
1.97445
1.95006
1.92033
1.8843
1.83248
1.77861
1.74278
1.72007
1.70635
1.6964
1.68657
1.67495
1.66278
1.64981
1.63456
1.61142
1.56449
1.49895
1.46286
1.45606
1.45197
1.45063
1.45005
1.44821
1.44224
1.43279
1.4178
1.38308
1.32905
1.2989
1.29436
1.29081
1.28814
1.28444
1.27802
1.2709
1.26199
1.24503
1.22003
1.20012
1.18822
1.18163
1.17568
1.16794
1.15862
1.15042
1.14207
1.13268
1.12328
1.11381
1.10392
1.09602
1.08802
1.07664
1.05828
1.03732
1.03041
1.02844
1.02645
1.0222
1.01873
1.01719
1.01465
1.00994
1.0015
0.985057
0.965075
0.95928
0.956798
0.95214
0.947355
0.944985
0.943982
0.942386
0.939454
0.934497
0.923655
0.908419
0.89888
0.894482
0.892075
0.890269
0.887605
0.883372
0.879242
0.875761
0.871435
0.864325
0.853327
0.847154
0.847231
0.847486
0.85116
0.863144
0.887291
0.92927
0.971203
1.01276
1.04368
1.06623
1.07913
1.08468
1.08481
1.0883
1.09463
1.10571
1.12111
1.12718
1.12906
1.13756
1.19023
1.36512
1.54785
1.75573
1.8419
1.87526
1.89499
1.90994
1.91166
1.90132
1.89715
1.88922
1.86853
1.85494
1.84835
1.84684
1.85446
2.05099
2.03376
2.01148
1.98353
1.95023
1.90021
1.83959
1.80302
1.78555
1.7698
1.75247
1.73712
1.72486
1.71218
1.69798
1.68216
1.66185
1.62414
1.56233
1.51305
1.50207
1.49632
1.49341
1.49074
1.48764
1.48338
1.47502
1.46114
1.43157
1.38095
1.33968
1.33096
1.32677
1.32424
1.32001
1.31406
1.30699
1.29875
1.28701
1.26242
1.23066
1.21722
1.20955
1.20372
1.1982
1.19105
1.18256
1.17433
1.16529
1.15434
1.14293
1.13222
1.12304
1.11598
1.10798
1.09539
1.07477
1.0567
1.05257
1.05056
1.04702
1.04257
1.03907
1.03582
1.03195
1.026
1.01435
0.9935
0.979925
0.977604
0.975148
0.970858
0.966656
0.964043
0.961913
0.959135
0.954708
0.946512
0.930762
0.919743
0.916513
0.912398
0.909013
0.907361
0.905899
0.902956
0.89871
0.89414
0.888163
0.876588
0.860581
0.855713
0.854952
0.85411
0.855252
0.857823
0.861752
0.87
0.888158
0.913548
0.947412
0.982316
1.00823
1.03692
1.05995
1.07679
1.08589
1.09957
1.1168
1.1319
1.1618
1.23908
1.44488
1.67997
1.79964
1.88426
1.8962
1.90555
1.91622
1.9161
1.91619
1.90227
1.89145
1.88084
1.86441
1.85757
1.85436
1.85444
1.86531
2.09558
2.07385
2.04579
2.01389
1.96776
1.90515
1.86216
1.84855
1.83408
1.81787
1.79777
1.77757
1.76155
1.74504
1.72773
1.70861
1.67884
1.62582
1.56919
1.55159
1.54469
1.54056
1.53675
1.53015
1.52442
1.51711
1.50485
1.47866
1.43032
1.3838
1.3706
1.36463
1.36024
1.35737
1.35128
1.34386
1.33582
1.32638
1.30939
1.27424
1.24535
1.23894
1.23194
1.22521
1.22009
1.21379
1.20623
1.19841
1.18897
1.17656
1.16291
1.15095
1.14211
1.13517
1.12673
1.11293
1.09138
1.07748
1.07457
1.07244
1.06823
1.06363
1.05983
1.0554
1.04984
1.04116
1.02378
1.00309
0.997619
0.996025
0.993399
0.989529
0.986239
0.983333
0.980329
0.976223
0.968649
0.953789
0.938475
0.934822
0.933558
0.929779
0.925527
0.923547
0.922631
0.920686
0.917334
0.911751
0.901341
0.88472
0.875044
0.873618
0.873295
0.871237
0.868227
0.866613
0.866797
0.868213
0.86821
0.869045
0.872714
0.884443
0.913365
0.955798
1.0013
1.04044
1.06273
1.08475
1.10675
1.17418
1.332
1.52725
1.76714
1.82933
1.88299
1.89239
1.89611
1.90256
1.90784
1.90933
1.90453
1.90029
1.89153
1.88167
1.87237
1.86845
1.86603
1.86651
1.87501
2.14044
2.11185
2.07792
2.03345
1.97137
1.92162
1.90733
1.89695
1.88083
1.86423
1.84171
1.8183
1.79639
1.7742
1.75282
1.72746
1.68524
1.62962
1.60218
1.59424
1.5888
1.58555
1.57738
1.56866
1.56022
1.54903
1.52715
1.48165
1.42849
1.40961
1.40534
1.39801
1.39309
1.38888
1.3816
1.37337
1.36341
1.35057
1.32614
1.28614
1.26744
1.26315
1.256
1.24762
1.24181
1.23586
1.22898
1.22164
1.21225
1.19888
1.18363
1.17115
1.16242
1.15447
1.14426
1.1287
1.1082
1.099
1.09641
1.09404
1.08986
1.08507
1.08078
1.07573
1.06849
1.05403
1.0302
1.0185
1.01661
1.01521
1.01205
1.00851
1.00575
1.00287
0.999425
0.993337
0.979518
0.959654
0.951986
0.950737
0.9498
0.947009
0.942688
0.940174
0.939086
0.937198
0.933384
0.925154
0.909032
0.895972
0.893323
0.892118
0.891815
0.890035
0.886059
0.882718
0.879665
0.876291
0.872808
0.865595
0.855988
0.855032
0.859504
0.875444
0.910502
0.955121
1.00943
1.07467
1.14694
1.37683
1.61534
1.7851
1.88492
1.8906
1.92001
1.91969
1.91217
1.90925
1.90577
1.90369
1.90181
1.89872
1.88996
1.8825
1.87954
1.87707
1.87547
1.8793
1.88687
2.18277
2.14823
2.10508
2.04162
1.98093
1.96267
1.95565
1.94079
1.92471
1.90654
1.88185
1.85483
1.8271
1.80039
1.77474
1.74057
1.69035
1.65526
1.64518
1.63688
1.63206
1.62513
1.61502
1.60488
1.59313
1.57508
1.53547
1.47877
1.44795
1.4439
1.4399
1.43178
1.42588
1.41956
1.41118
1.40244
1.39035
1.37047
1.33734
1.30392
1.29396
1.28932
1.28171
1.27195
1.26417
1.2575
1.25085
1.24359
1.23438
1.22074
1.20507
1.1929
1.18391
1.17385
1.16031
1.14317
1.127
1.12136
1.11855
1.11547
1.11147
1.10692
1.10237
1.0967
1.08563
1.06201
1.04158
1.03806
1.03689
1.03425
1.03065
1.0278
1.02516
1.02222
1.01793
1.00788
0.98618
0.970723
0.968461
0.967341
0.966658
0.96407
0.960369
0.957354
0.95518
0.952442
0.94596
0.931588
0.916413
0.91257
0.911694
0.910502
0.90995
0.908834
0.905496
0.901342
0.897432
0.892277
0.883363
0.868331
0.857313
0.856287
0.857337
0.859463
0.866813
0.882421
0.924658
1.01742
1.267
1.56381
1.70351
1.8222
1.86292
1.86417
1.88904
1.90568
1.90925
1.91405
1.91991
1.91855
1.91466
1.90419
1.88833
1.88283
1.88129
1.88208
1.8881
1.89626
1.89789
2.22008
2.1798
2.12132
2.04905
2.01876
2.01042
1.99844
1.98105
1.96501
1.94458
1.91778
1.88619
1.85457
1.82519
1.79437
1.75031
1.71234
1.69911
1.68666
1.6778
1.67113
1.66109
1.64956
1.63698
1.62031
1.58869
1.5337
1.48998
1.48167
1.4786
1.47411
1.46603
1.45951
1.45161
1.4419
1.43121
1.41485
1.37991
1.34548
1.32882
1.32244
1.31645
1.30804
1.2976
1.28816
1.28017
1.27283
1.26506
1.25553
1.24184
1.22658
1.21512
1.20499
1.19168
1.1748
1.15902
1.1493
1.14502
1.14101
1.13735
1.13388
1.12966
1.12459
1.11634
1.09686
1.06932
1.06047
1.05925
1.05819
1.05417
1.05016
1.04735
1.04461
1.04117
1.03472
1.01747
0.99383
0.987387
0.985877
0.985311
0.984529
0.981361
0.978408
0.975542
0.972071
0.966722
0.953595
0.93563
0.93
0.929115
0.929215
0.928185
0.926564
0.925467
0.92299
0.91911
0.914596
0.908165
0.894922
0.878309
0.869336
0.865361
0.862851
0.863952
0.871123
0.905362
1.04416
1.25883
1.51019
1.57975
1.62353
1.69964
1.74834
1.7784
1.81407
1.85002
1.88397
1.91505
1.92962
1.92811
1.92043
1.90857
1.89139
1.88748
1.88804
1.89537
1.90864
1.9118
1.90721
2.2525
2.20172
2.12984
2.07998
2.06808
2.0567
2.03731
2.01947
2.00118
1.97864
1.94936
1.91507
1.88264
1.85114
1.81128
1.77008
1.75322
1.73987
1.72553
1.71667
1.70772
1.69571
1.68203
1.66523
1.63927
1.59023
1.53626
1.52036
1.51541
1.51328
1.50794
1.50088
1.49395
1.48551
1.47466
1.45962
1.43096
1.3842
1.36056
1.35605
1.35009
1.34307
1.33418
1.32373
1.31375
1.30489
1.29633
1.28719
1.27642
1.26201
1.2473
1.23577
1.22304
1.20618
1.18959
1.17963
1.17433
1.16951
1.16459
1.16049
1.15727
1.15334
1.14711
1.1329
1.10222
1.08371
1.08115
1.08043
1.0798
1.07552
1.07102
1.06745
1.06402
1.05866
1.04684
1.02352
1.00851
1.00585
1.00464
1.00455
1.00272
0.999091
0.99623
0.993445
0.989038
0.978676
0.957873
0.946551
0.945168
0.944359
0.945031
0.945654
0.943384
0.941559
0.939317
0.936016
0.93098
0.921501
0.903541
0.891077
0.886931
0.882485
0.879605
0.887643
0.928692
1.07712
1.31873
1.47954
1.57272
1.58317
1.58703
1.60388
1.62042
1.64435
1.69148
1.7475
1.79374
1.83494
1.87464
1.89813
1.89789
1.8937
1.8879
1.89078
1.89943
1.91098
1.92013
1.91864
1.91329
2.2769
2.21264
2.14819
2.1296
2.11839
2.09806
2.07574
2.054
2.03273
2.00931
1.97859
1.94558
1.9152
1.88101
1.83568
1.80529
1.79049
1.77479
1.76114
1.75282
1.74339
1.72977
1.71306
1.69009
1.65005
1.59136
1.55955
1.5531
1.54923
1.54605
1.54076
1.53571
1.52855
1.51951
1.50685
1.48482
1.4393
1.3938
1.3844
1.38122
1.37516
1.3679
1.3595
1.3497
1.34016
1.33134
1.32224
1.31147
1.29772
1.28117
1.26643
1.25317
1.23672
1.21861
1.20832
1.20407
1.20004
1.19499
1.18986
1.18537
1.18159
1.17686
1.16635
1.13935
1.11011
1.10376
1.10209
1.10207
1.10201
1.09786
1.09282
1.08838
1.08329
1.0734
1.05266
1.03289
1.02709
1.02492
1.02432
1.02459
1.0218
1.01777
1.01433
1.0107
1.00325
0.986079
0.966551
0.961914
0.960594
0.959988
0.960584
0.962222
0.960046
0.957289
0.954765
0.951162
0.94479
0.931597
0.913803
0.907198
0.905071
0.903754
0.913929
0.990772
1.15159
1.39796
1.53701
1.59985
1.60826
1.5893
1.56186
1.55895
1.56456
1.57369
1.58891
1.61926
1.65077
1.67713
1.70758
1.74709
1.78259
1.81858
1.8542
1.87149
1.88567
1.90332
1.91348
1.9149
1.91331
2.29065
2.22144
2.18959
2.18063
2.16403
2.14048
2.11698
2.08651
2.06093
2.03629
2.00631
1.97792
1.95135
1.91735
1.87361
1.84215
1.82258
1.80543
1.7937
1.7861
1.77643
1.7621
1.74253
1.71174
1.65855
1.60523
1.59228
1.5863
1.58297
1.5774
1.57298
1.56926
1.56146
1.55093
1.53462
1.50177
1.44748
1.41721
1.41043
1.40624
1.39991
1.39269
1.38493
1.37595
1.36714
1.35871
1.34949
1.33719
1.32006
1.3006
1.28309
1.26587
1.24733
1.23572
1.23158
1.22918
1.22609
1.22107
1.21594
1.21119
1.20627
1.19802
1.1759
1.14228
1.12762
1.12456
1.12325
1.12467
1.12483
1.1206
1.11509
1.10949
1.101
1.08184
1.05877
1.04988
1.04616
1.0442
1.04418
1.04469
1.04142
1.03697
1.03277
1.02687
1.01274
0.992972
0.982751
0.97884
0.976821
0.976167
0.97663
0.978437
0.976518
0.973026
0.969871
0.96552
0.95658
0.939216
0.92601
0.92338
0.925673
0.946532
1.04354
1.26169
1.47265
1.61883
1.63504
1.62164
1.61524
1.60262
1.57628
1.56571
1.56476
1.57097
1.57877
1.57891
1.57814
1.57974
1.58421
1.59648
1.62216
1.66189
1.72102
1.77547
1.82322
1.8609
1.88669
1.89957
1.90339
2.30047
2.2512
2.23686
2.22686
2.2066
2.18546
2.15879
2.1211
2.08929
2.062
2.03376
2.00866
1.98579
1.9556
1.9146
1.87879
1.85359
1.83553
1.82517
1.81729
1.80653
1.79083
1.76832
1.73133
1.67322
1.63591
1.62587
1.6211
1.61612
1.60829
1.60422
1.59991
1.59101
1.57818
1.55575
1.51088
1.46498
1.44506
1.43726
1.4318
1.42538
1.41899
1.41188
1.40344
1.39498
1.38658
1.37676
1.36223
1.34128
1.31733
1.29465
1.27622
1.26365
1.2587
1.25613
1.25538
1.25261
1.24749
1.2422
1.23689
1.22953
1.21128
1.1776
1.15465
1.14963
1.14646
1.14555
1.14797
1.14764
1.14325
1.13706
1.12914
1.11352
1.08611
1.07366
1.06985
1.06583
1.06401
1.06445
1.06475
1.06107
1.05594
1.05037
1.04027
1.01898
1.0045
1.00151
0.997158
0.99386
0.992896
0.993286
0.994652
0.992712
0.98883
0.984899
0.979016
0.966534
0.948307
0.942335
0.947598
0.983949
1.11353
1.36195
1.55354
1.63866
1.67772
1.67234
1.65987
1.6439
1.62707
1.6115
1.60401
1.59978
1.59586
1.59092
1.58681
1.58251
1.57497
1.56733
1.56373
1.56397
1.56971
1.58607
1.6234
1.67
1.71891
1.7628
1.80437
1.84778
2.32384
2.2992
2.28431
2.26764
2.24731
2.22651
2.19879
2.15959
2.12115
2.0906
2.06245
2.03717
2.01593
1.98845
1.95036
1.91451
1.88547
1.86759
1.8579
1.84833
1.83536
1.81726
1.79218
1.75357
1.7017
1.67079
1.66132
1.65738
1.6488
1.63968
1.63506
1.62838
1.61789
1.60226
1.57004
1.51884
1.48827
1.47356
1.4644
1.45785
1.45205
1.44726
1.44098
1.4328
1.42425
1.41526
1.40391
1.38599
1.35735
1.32545
1.30487
1.29415
1.28764
1.28375
1.28225
1.28271
1.27946
1.27412
1.26831
1.26119
1.24671
1.21399
1.18323
1.17606
1.17241
1.16951
1.16953
1.17172
1.17028
1.16544
1.15799
1.14539
1.1193
1.09696
1.09371
1.09033
1.08617
1.08453
1.08523
1.08472
1.08055
1.07438
1.06643
1.05077
1.02787
1.02049
1.01892
1.01545
1.01147
1.01011
1.01056
1.01096
1.00866
1.00456
0.999558
0.991173
0.974322
0.963839
0.970122
1.03417
1.21003
1.43372
1.62619
1.71789
1.72194
1.71218
1.68574
1.65934
1.6468
1.64224
1.64103
1.64027
1.6408
1.63467
1.62539
1.61426
1.59765
1.57804
1.56954