/*--------------------------------*- C++ -*----------------------------------*\
  =========                 |
  \\      /  F ield         | OpenFOAM: The Open Source CFD Toolbox
   \\    /   O peration     | Website:  https://openfoam.org
    \\  /    A nd           | Version:  7
     \\/     M anipulation  |
\*---------------------------------------------------------------------------*/
FoamFile
{
    version     2.0;
    format      ascii;
    class       volScalarField;
    location    "1.6";
    object      p;
}
// * * * * * * * * * * * * * * * * * * * * * * * * * * * * * * * * * * * * * //

dimensions      [1 -1 -2 0 0 0 0];

internalField   nonuniform List<scalar> 
16192
(
2.18943
2.18156
2.17656
2.13665
2.19211
2.62289
3.68068
4.84823
5.47108
5.81919
5.95059
5.93744
5.87335
5.70559
5.51557
5.45369
5.43679
5.46612
5.54674
5.56516
5.5337
5.4647
5.35151
5.26719
5.23625
5.22213
5.22888
5.24517
5.22634
5.19222
5.13376
5.04382
4.96554
4.93431
4.92508
4.949
5.00361
5.01185
4.98255
4.93103
4.8471
4.75874
4.7019
4.66659
4.64507
4.62465
4.60177
4.58336
4.56599
4.55083
4.54437
4.55029
4.53848
4.51774
4.49518
4.45099
4.38505
4.32906
4.31207
4.30396
4.30655
4.31067
4.29904
4.28157
4.26073
4.22723
4.17187
4.11507
4.0875
4.07362
4.06768
4.0722
4.06445
4.04771
4.02863
3.99413
3.94639
3.90779
3.89686
3.89161
3.89646
3.90366
3.89259
3.8762
3.84832
3.79385
3.73549
3.7069
3.6973
3.69525
3.70515
3.70061
3.69137
3.68137
3.65376
3.60547
3.56009
3.54251
3.53382
3.52787
3.51872
3.50493
3.49053
3.47363
3.44551
3.40384
3.37559
3.36787
3.36506
3.36491
3.36096
3.35209
3.33493
3.30375
3.26706
3.24316
3.22375
3.2085
3.19997
3.1928
3.18985
3.18739
3.18004
3.17289
3.1654
3.15684
3.14721
3.13644
3.11948
3.08479
3.03451
2.99284
2.97128
2.96097
2.95077
2.94364
2.9414
2.95401
2.97752
2.97429
2.96592
2.95702
2.93866
2.90254
2.86186
2.83548
2.81971
2.80816
2.79837
2.79095
2.78529
2.77916
2.76799
2.74902
2.73344
2.72449
2.71791
2.71289
2.70662
2.69452
2.68176
2.67058
2.66025
2.64856
2.63302
2.61115
2.58863
2.57442
2.5646
2.55417
2.54143
2.52636
2.51432
2.50869
2.50509
2.50485
2.50931
2.50788
2.50402
2.49924
2.49262
2.4829
2.46939
2.45005
2.42617
2.40415
2.38626
2.37012
2.35635
2.34727
2.34205
2.33756
2.33245
2.32707
2.32142
2.31493
2.30757
2.29916
2.2902
2.28061
2.27301
2.26914
2.26303
2.2515
2.23596
2.22066
2.21019
2.2007
2.19211
2.18564
2.18087
2.17583
2.1686
2.15384
2.12732
2.0998
2.08924
2.08521
2.08238
2.0819
2.08319
2.07751
2.06995
2.06351
2.05833
2.05435
2.05027
2.04636
2.04277
2.03947
2.03615
2.03218
2.02605
2.01262
1.98983
1.9717
1.96452
1.96132
1.95893
1.95656
1.95435
1.95298
1.95521
1.96088
1.965
1.96353
1.95897
1.95064
1.93366
1.91425
1.90712
1.90547
1.90409
2.20499
2.18712
2.19038
2.37623
3.13846
4.37845
5.19498
5.69162
5.95937
6.02342
5.99391
5.90314
5.75565
5.58217
5.4886
5.46675
5.49834
5.58475
5.606
5.57516
5.50888
5.40917
5.31558
5.26866
5.25199
5.25669
5.28112
5.27066
5.23611
5.18088
5.09911
5.01865
4.98379
4.97128
4.9849
5.03519
5.04838
5.02093
4.97205
4.89211
4.80137
4.74028
4.70579
4.68436
4.66447
4.64275
4.61964
4.60057
4.58218
4.5671
4.56232
4.55486
4.5359
4.51416
4.47573
4.41518
4.36215
4.34389
4.33521
4.33709
4.34111
4.33015
4.31421
4.29603
4.26824
4.21917
4.16169
4.12872
4.11536
4.11033
4.1082
4.09477
4.07639
4.05586
4.02421
3.98176
3.94165
3.92769
3.92064
3.92138
3.92282
3.91326
3.90097
3.87686
3.82815
3.76937
3.73108
3.71786
3.71213
3.72065
3.72118
3.71026
3.69623
3.67054
3.63579
3.60105
3.58761
3.57989
3.57351
3.56248
3.54451
3.52292
3.49225
3.44669
3.40049
3.38111
3.37578
3.37669
3.38704
3.39354
3.38803
3.37968
3.36383
3.32409
3.26669
3.23047
3.21694
3.21032
3.20602
3.20483
3.20285
3.19732
3.1905
3.1829
3.1748
3.16738
3.16022
3.14578
3.11605
3.06634
3.01373
2.9863
2.97987
2.97493
2.96873
2.96345
2.96728
2.97852
2.97562
2.96537
2.95352
2.93834
2.91515
2.88792
2.87291
2.86467
2.85541
2.84059
2.82062
2.80413
2.7906
2.77222
2.75126
2.7355
2.72699
2.72105
2.72091
2.72565
2.71889
2.70636
2.69313
2.67833
2.65974
2.63784
2.61893
2.60405
2.59352
2.58644
2.57776
2.56532
2.54866
2.53074
2.51575
2.50595
2.50077
2.49673
2.49407
2.49359
2.49439
2.49294
2.48842
2.48204
2.47329
2.4616
2.44799
2.42747
2.39735
2.37045
2.35622
2.34953
2.34415
2.33958
2.335
2.32957
2.323
2.31581
2.30814
2.2995
2.28789
2.27635
2.26856
2.26362
2.25966
2.25602
2.24886
2.23574
2.21626
2.20058
2.18945
2.18063
2.17395
2.16888
2.16412
2.15712
2.14239
2.11999
2.09865
2.08872
2.0837
2.07986
2.07534
2.06918
2.06295
2.05747
2.05302
2.04905
2.0444
2.0405
2.03914
2.03897
2.03697
2.03438
2.02952
2.01718
1.98906
1.96135
1.95344
1.95031
1.9476
1.94497
1.94231
1.9406
1.94337
1.95095
1.95429
1.95174
1.94853
1.94413
1.9343
1.91176
1.89335
1.89061
1.88932
2.22029
2.30515
2.74933
3.81168
4.86175
5.47838
5.85649
6.06718
6.09165
6.04686
5.93654
5.75954
5.59943
5.53806
5.51737
5.54133
5.62048
5.64868
5.62252
5.55749
5.44175
5.34444
5.30769
5.2909
5.2895
5.31341
5.31395
5.28296
5.23186
5.14128
5.05909
5.02649
5.01304
5.02028
5.06364
5.0819
5.05865
5.01337
4.93502
4.83903
4.77825
4.7512
4.73294
4.71198
4.68508
4.6546
4.63383
4.61604
4.60147
4.59369
4.5774
4.5546
4.52981
4.49394
4.4413
4.38789
4.36494
4.35634
4.36023
4.37085
4.3614
4.34637
4.32963
4.30434
4.25455
4.20093
4.17358
4.16066
4.15482
4.15017
4.13612
4.1171
4.09269
4.05815
4.01385
3.97388
3.96047
3.95381
3.95199
3.9451
3.93135
3.91673
3.89303
3.85285
3.80156
3.76277
3.74995
3.74506
3.75112
3.7451
3.73018
3.71109
3.68155
3.64454
3.61695
3.6088
3.60573
3.60885
3.61078
3.59915
3.5771
3.53584
3.47142
3.41355
3.38898
3.38043
3.37506
3.38207
3.40879
3.41149
3.40474
3.39655
3.38172
3.33936
3.2734
3.23826
3.22452
3.21537
3.20857
3.20405
3.20394
3.2067
3.2038
3.19652
3.18769
3.17455
3.15437
3.12711
3.08704
3.04287
3.01209
3.00125
2.99482
2.98947
2.98637
2.99039
2.99595
2.98764
2.97651
2.96492
2.94249
2.90897
2.88822
2.88291
2.88218
2.88328
2.87959
2.87054
2.85339
2.82292
2.78362
2.75537
2.74047
2.73159
2.72374
2.7201
2.73137
2.74048
2.73114
2.7189
2.70648
2.68956
2.66556
2.63634
2.61262
2.60292
2.59884
2.59449
2.58832
2.57943
2.5658
2.54587
2.52404
2.50725
2.49697
2.49229
2.48891
2.48648
2.48562
2.48659
2.48524
2.48051
2.47428
2.46845
2.46155
2.44716
2.41183
2.37424
2.36097
2.35391
2.34563
2.33749
2.33233
2.32872
2.32494
2.32001
2.31221
2.30226
2.28696
2.27245
2.26759
2.26393
2.26046
2.25664
2.25119
2.2434
2.22961
2.21028
2.19309
2.18099
2.17172
2.16357
2.15687
2.15262
2.14784
2.13582
2.1172
2.09786
2.08631
2.07876
2.07234
2.06607
2.05901
2.05327
2.04889
2.04562
2.04219
2.03892
2.03679
2.035
2.03378
2.03166
2.02794
2.01848
1.99104
1.95895
1.94855
1.94475
1.94135
1.93823
1.93543
1.93333
1.93377
1.93885
1.94254
1.94179
1.93926
1.93657
1.9308
1.91545
1.88856
1.87769
1.87637
2.5085
3.35293
4.52484
5.31372
5.77813
6.04067
6.13846
6.11888
6.05562
5.95241
5.78485
5.63932
5.573
5.55281
5.57652
5.65487
5.69247
5.66623
5.60388
5.50028
5.39339
5.33608
5.31486
5.31067
5.34055
5.35384
5.32583
5.27872
5.20105
5.10889
5.05838
5.04348
5.04938
5.09575
5.11914
5.09649
5.05039
4.97625
4.88517
4.81894
4.79103
4.77428
4.75701
4.73708
4.70802
4.67353
4.65122
4.63324
4.62137
4.61113
4.58949
4.56573
4.52918
4.46342
4.40549
4.38314
4.37534
4.37745
4.39522
4.39127
4.37525
4.35987
4.33948
4.29376
4.23859
4.2053
4.19179
4.18633
4.18509
4.17244
4.15529
4.13497
4.10597
4.05994
4.0125
3.9938
3.98535
3.9824
3.9767
3.96368
3.94835
3.91944
3.86927
3.81474
3.78607
3.77442
3.76728
3.77279
3.77628
3.76282
3.74578
3.71709
3.67189
3.63517
3.62277
3.61861
3.62162
3.63156
3.62806
3.61669
3.59063
3.53059
3.45319
3.40878
3.39457
3.38717
3.38254
3.3877
3.41515
3.42777
3.4196
3.40878
3.39248
3.35609
3.30293
3.26333
3.24048
3.22698
3.21921
3.21584
3.21692
3.21955
3.2169
3.20873
3.19956
3.18563
3.15596
3.10594
3.0578
3.03253
3.02677
3.02348
3.02068
3.01941
3.02385
3.028
3.01969
3.00418
2.982
2.94892
2.91252
2.89111
2.88444
2.88345
2.89211
2.90303
2.89927
2.89005
2.8697
2.82529
2.77763
2.7524
2.74213
2.73365
2.72533
2.72649
2.74545
2.75142
2.73968
2.72501
2.70783
2.6845
2.6586
2.63475
2.61861
2.60914
2.60168
2.59542
2.58999
2.58434
2.57643
2.56271
2.54034
2.51658
2.50037
2.49466
2.48951
2.4824
2.47757
2.4748
2.47509
2.48038
2.48111
2.4774
2.4713
2.46051
2.43366
2.38757
2.3638
2.35562
2.3491
2.3413
2.33285
2.32807
2.32466
2.32166
2.31835
2.3105
2.2944
2.27495
2.26597
2.26139
2.25624
2.25122
2.24625
2.24046
2.23384
2.22247
2.20345
2.18491
2.17127
2.16044
2.15152
2.14486
2.14006
2.13646
2.12953
2.11364
2.09406
2.08309
2.07584
2.06815
2.06019
2.05292
2.04878
2.0448
2.03965
2.03636
2.03628
2.038
2.03677
2.03464
2.0306
2.02083
1.9954
1.96123
1.94722
1.94254
1.93853
1.9346
1.93101
1.92824
1.92711
1.9308
1.93491
1.93314
1.93024
1.92793
1.92501
1.91617
1.8933
1.87066
1.86503
4.02568
5.22277
5.64312
5.88888
6.08262
6.1471
6.13224
6.077
5.95981
5.80804
5.69802
5.64521
5.62833
5.64644
5.70242
5.71879
5.68838
5.63582
5.54496
5.43955
5.37988
5.35803
5.34748
5.36772
5.38949
5.36642
5.32105
5.23733
5.14228
5.09994
5.08557
5.0861
5.12489
5.15315
5.13491
5.09258
5.01309
4.91717
4.86091
4.83878
4.82615
4.80985
4.78861
4.76148
4.72012
4.69067
4.67195
4.65762
4.64657
4.62648
4.60305
4.56941
4.50998
4.44408
4.40456
4.39061
4.38407
4.40003
4.40727
4.39674
4.38651
4.36762
4.32379
4.2675
4.2367
4.22541
4.21953
4.21781
4.2077
4.19291
4.17459
4.14759
4.10379
4.05813
4.03882
4.02914
4.02004
4.00764
3.99237
3.97701
3.9483
3.89889
3.84159
3.8037
3.78873
3.78142
3.78705
3.79398
3.78116
3.76705
3.75042
3.71774
3.6733
3.65194
3.64378
3.63856
3.64001
3.64473
3.63489
3.61362
3.57956
3.51358
3.44969
3.42733
3.41702
3.40858
3.40394
3.41035
3.41204
3.40746
3.4022
3.39187
3.37436
3.35298
3.32888
3.30412
3.27753
3.25162
3.23235
3.21815
3.20791
3.20073
3.1965
3.19249
3.18425
3.17223
3.14209
3.08524
3.04534
3.03587
3.03351
3.03439
3.04012
3.05089
3.05956
3.05454
3.04077
3.01755
2.97424
2.92699
2.90172
2.8925
2.8868
2.8857
2.90652
2.91957
2.91351
2.90087
2.87517
2.82566
2.77932
2.76213
2.75305
2.74487
2.73793
2.7363
2.74208
2.74894
2.74594
2.73371
2.71444
2.68361
2.65311
2.63822
2.63059
2.62195
2.61145
2.60233
2.59546
2.58933
2.58287
2.57407
2.55911
2.53441
2.50734
2.48773
2.47801
2.4721
2.46692
2.46368
2.46333
2.47113
2.4795
2.47777
2.47269
2.46574
2.45141
2.41851
2.37705
2.35727
2.34848
2.34213
2.3355
2.33041
2.32724
2.32291
2.31565
2.30314
2.2845
2.27052
2.26431
2.25982
2.25503
2.25022
2.24823
2.24387
2.2372
2.2293
2.21398
2.18932
2.16963
2.15714
2.14839
2.14343
2.14043
2.13754
2.13366
2.12605
2.10732
2.0837
2.0695
2.06164
2.05546
2.05053
2.04696
2.04565
2.04305
2.03833
2.0347
2.03141
2.02749
2.0237
2.01977
2.01313
1.99852
1.97093
1.95106
1.94405
1.93913
1.93436
1.93021
1.92687
1.9254
1.9281
1.92784
1.924
1.92104
1.91841
1.91525
1.91006
1.89663
1.87358
1.85905
5.65146
5.77826
5.893
6.04182
6.16022
6.15247
6.11941
6.02433
5.87284
5.77101
5.7285
5.71264
5.7299
5.76017
5.74665
5.71025
5.65879
5.58201
5.4919
5.42287
5.39878
5.38635
5.39931
5.41937
5.39664
5.35345
5.28648
5.19638
5.12636
5.10674
5.1056
5.14743
5.18201
5.16639
5.12745
5.05765
4.9663
4.89771
4.87256
4.86348
4.8615
4.84231
4.81693
4.77399
4.73007
4.70896
4.69398
4.68676
4.67116
4.64929
4.61789
4.55896
4.48973
4.44382
4.42588
4.41382
4.41522
4.42333
4.40948
4.39434
4.37722
4.34175
4.29087
4.25573
4.24311
4.23672
4.2419
4.23921
4.22442
4.20831
4.18907
4.15176
4.10278
4.07885
4.0694
4.06083
4.04886
4.03307
4.01244
3.97803
3.92878
3.87592
3.83634
3.81797
3.80674
3.80149
3.8108
3.81126
3.79675
3.77651
3.74987
3.71647
3.69298
3.68418
3.67758
3.66951
3.65602
3.63735
3.61785
3.59135
3.54865
3.49996
3.46674
3.45255
3.44464
3.44184
3.4364
3.42675
3.41303
3.39978
3.39116
3.37954
3.36372
3.34831
3.34169
3.33436
3.31766
3.28699
3.25193
3.22706
3.21107
3.19981
3.19253
3.1842
3.17263
3.15425
3.12306
3.08397
3.0602
3.0519
3.04743
3.04621
3.05649
3.07376
3.07374
3.06599
3.05143
3.01975
2.96814
2.924
2.90644
2.90008
2.89601
2.89789
2.8975
2.8964
2.89467
2.88557
2.86224
2.82666
2.79986
2.78365
2.77178
2.76258
2.75491
2.75051
2.75179
2.74599
2.73555
2.72306
2.70426
2.67952
2.65715
2.64499
2.63558
2.62781
2.62036
2.6113
2.60037
2.59187
2.58604
2.57995
2.56945
2.54946
2.51875
2.49095
2.47406
2.46484
2.46057
2.45784
2.45944
2.47506
2.48314
2.47905
2.47304
2.46711
2.45818
2.4391
2.41078
2.37768
2.35486
2.34554
2.34097
2.33824
2.33494
2.32902
2.31811
2.29937
2.28134
2.27216
2.26606
2.26092
2.25737
2.25822
2.25934
2.25296
2.24514
2.23653
2.22056
2.19425
2.17123
2.1619
2.15768
2.15413
2.15054
2.14658
2.1416
2.13336
2.11615
2.08964
2.07049
2.06227
2.05634
2.05132
2.04738
2.04421
2.04406
2.04299
2.03723
2.0323
2.02742
2.02098
2.01275
2.00148
1.98779
1.97443
1.96087
1.95065
1.94318
1.93809
1.9346
1.93278
1.93066
1.92538
1.92116
1.91772
1.91451
1.91094
1.90689
1.90204
1.8946
1.87956
1.86024
5.9057
5.92771
6.04225
6.19349
6.21442
6.18586
6.09929
5.94054
5.82378
5.78561
5.76689
5.77918
5.80587
5.78766
5.74858
5.69216
5.61201
5.53056
5.47256
5.45064
5.43822
5.44377
5.45686
5.43203
5.38628
5.3119
5.21876
5.16551
5.14889
5.14498
5.176
5.21025
5.19758
5.16086
5.08676
4.99426
4.9388
4.9165
4.90702
4.90893
4.891
4.86237
4.81265
4.76376
4.7424
4.72812
4.72362
4.71447
4.69347
4.66739
4.61349
4.5402
4.48873
4.46903
4.45655
4.45749
4.45756
4.44165
4.42573
4.40115
4.35311
4.29788
4.26811
4.257
4.2503
4.2531
4.26254
4.25525
4.24148
4.22481
4.19119
4.1465
4.12305
4.11349
4.10386
4.0911
4.07532
4.05447
4.02046
3.96444
3.90309
3.86433
3.84891
3.83972
3.83649
3.82978
3.81619
3.80095
3.78384
3.75979
3.73273
3.72269
3.71805
3.71241
3.7057
3.69556
3.67848
3.65121
3.60834
3.55423
3.50987
3.49282
3.48689
3.4819
3.47979
3.47357
3.46132
3.44399
3.42301
3.39629
3.37717
3.36968
3.3668
3.36503
3.35898
3.3498
3.33632
3.31591
3.28861
3.25505
3.22586
3.2039
3.18709
3.17086
3.15087
3.12617
3.10109
3.09089
3.08532
3.07777
3.07316
3.07474
3.08591
3.08447
3.07772
3.06521
3.04422
3.00804
2.9674
2.94241
2.93022
2.91966
2.91072
2.90188
2.89186
2.88424
2.87459
2.85879
2.83563
2.82255
2.8162
2.80688
2.79726
2.78905
2.77863
2.76694
2.75463
2.74231
2.72798
2.71089
2.6912
2.6763
2.66846
2.6598
2.64865
2.63552
2.62384
2.61505
2.60701
2.59829
2.58879
2.5798
2.57096
2.55731
2.53699
2.50826
2.48112
2.46772
2.46044
2.45609
2.45298
2.45192
2.45741
2.46094
2.45847
2.45186
2.44406
2.43775
2.4282
2.41181
2.38743
2.36194
2.34414
2.33069
2.3238
2.31768
2.30708
2.28938
2.28016
2.27686
2.27213
2.26621
2.26166
2.25739
2.25123
2.24347
2.23498
2.22706
2.21956
2.20732
2.18813
2.16701
2.1533
2.14557
2.13998
2.13514
2.13024
2.12507
2.11886
2.10425
2.07947
2.06372
2.05712
2.05185
2.04788
2.0455
2.04188
2.03683
2.03248
2.02867
2.02441
2.01721
2.00386
1.98954
1.97737
1.97125
1.96889
1.96476
1.95573
1.9441
1.9357
1.9298
1.92451
1.92036
1.91624
1.91237
1.90851
1.90403
1.89921
1.89506
1.8915
1.88438
1.86819
5.99032
6.07775
6.23219
6.27115
6.24507
6.16561
6.00869
5.85597
5.80719
5.78706
5.79234
5.83245
5.83367
5.7958
5.74076
5.66031
5.5742
5.51844
5.49836
5.48758
5.4882
5.49327
5.46701
5.42261
5.35505
5.26682
5.19285
5.16731
5.16342
5.19923
5.23581
5.22448
5.19131
5.12591
5.03805
4.96978
4.94257
4.93333
4.94373
4.93366
4.90904
4.86569
4.80679
4.77486
4.75906
4.75406
4.7541
4.73582
4.71124
4.66148
4.59247
4.53761
4.51739
4.50596
4.50775
4.5091
4.49196
4.4699
4.43678
4.37832
4.31506
4.28057
4.26675
4.2579
4.25754
4.26977
4.26703
4.25545
4.24201
4.22038
4.18516
4.1559
4.14568
4.1393
4.12806
4.11313
4.09563
4.06433
4.01283
3.95074
3.90091
3.87937
3.86912
3.86358
3.85806
3.84439
3.83084
3.81028
3.77879
3.74974
3.73474
3.72819
3.72624
3.73026
3.72464
3.71352
3.69608
3.65175
3.57801
3.52572
3.5058
3.499
3.49812
3.51084
3.51073
3.50143
3.48962
3.47133
3.44111
3.40436
3.37673
3.3635
3.35488
3.34788
3.34267
3.34
3.3358
3.32766
3.3131
3.28781
3.25157
3.21732
3.18755
3.15699
3.12338
3.10206
3.0933
3.08977
3.09607
3.10589
3.11054
3.1098
3.10335
3.09031
3.0688
3.04474
3.01783
2.9916
2.97721
2.96993
2.96156
2.9491
2.93281
2.9158
2.89758
2.87356
2.8456
2.82593
2.81882
2.81795
2.82362
2.82865
2.82687
2.81724
2.80302
2.78525
2.76555
2.74109
2.71545
2.69622
2.68486
2.67714
2.67132
2.66536
2.65813
2.64933
2.63785
2.62498
2.61206
2.59942
2.58725
2.5752
2.56436
2.55644
2.54688
2.53078
2.50667
2.48068
2.46332
2.4544
2.45026
2.44843
2.44716
2.44563
2.44605
2.44614
2.4412
2.43571
2.43133
2.42616
2.41524
2.39079
2.35853
2.33604
2.32048
2.30943
2.29903
2.28799
2.28214
2.27779
2.27344
2.26964
2.26414
2.2568
2.24903
2.24093
2.23198
2.22281
2.21564
2.21001
2.19999
2.17918
2.157
2.14512
2.13795
2.13209
2.127
2.12178
2.11579
2.1078
2.09141
2.06968
2.0593
2.05454
2.05037
2.04518
2.03943
2.03497
2.03134
2.02759
2.02305
2.01559
1.99985
1.98293
1.97914
1.97742
1.97482
1.97076
1.96416
1.95555
1.94485
1.9333
1.9242
1.91761
1.91324
1.9095
1.90574
1.90142
1.8966
1.892
1.88726
1.88216
1.87394
6.11737
6.27063
6.30978
6.28397
6.20826
6.04987
5.88277
5.83146
5.81041
5.81662
5.86724
5.89029
5.85999
5.79787
5.7023
5.61313
5.56951
5.55144
5.5435
5.54391
5.54041
5.51157
5.46268
5.38607
5.29695
5.23499
5.21251
5.20636
5.23479
5.26613
5.25322
5.21969
5.15023
5.06238
5.00625
4.98312
4.97325
4.98108
4.96977
4.94309
4.89229
4.84129
4.81591
4.80138
4.79763
4.79847
4.78106
4.75517
4.70061
4.62754
4.57609
4.557
4.54776
4.55331
4.56188
4.54747
4.52418
4.48888
4.42519
4.35468
4.30819
4.28863
4.27688
4.27002
4.27967
4.28851
4.27548
4.2604
4.24335
4.21648
4.19045
4.18023
4.17349
4.16249
4.14683
4.12901
4.09836
4.04981
3.99101
3.94549
3.92489
3.91465
3.90852
3.90076
3.88501
3.86396
3.83472
3.80191
3.77013
3.75316
3.74623
3.74065
3.73795
3.7393
3.73607
3.72438
3.69398
3.63004
3.56147
3.52775
3.51664
3.51032
3.51356
3.52707
3.5244
3.51724
3.50852
3.49449
3.46514
3.41676
3.37607
3.35951
3.35122
3.34428
3.33899
3.33686
3.33417
3.32647
3.31889
3.30718
3.28243
3.23688
3.18175
3.14135
3.11686
3.1062
3.10163
3.09866
3.10386
3.12677
3.13639
3.13104
3.12158
3.09853
3.0546
3.01541
2.99683
2.98795
2.98571
2.98831
2.98457
2.97644
2.96274
2.93402
2.89011
2.84947
2.82739
2.81821
2.81318
2.81223
2.82726
2.84494
2.84628
2.83686
2.82329
2.80233
2.76776
2.7299
2.70711
2.69572
2.68799
2.68272
2.67646
2.66773
2.66087
2.65547
2.64897
2.63856
2.62216
2.60532
2.5911
2.57861
2.56686
2.5564
2.54755
2.53839
2.52679
2.51086
2.48716
2.46374
2.45089
2.44436
2.43738
2.43109
2.42768
2.431
2.44169
2.44119
2.43777
2.43392
2.4285
2.41569
2.38302
2.33861
2.31042
2.29863
2.29234
2.28852
2.28541
2.28259
2.27931
2.27423
2.2664
2.2559
2.2463
2.23939
2.2321
2.2236
2.21564
2.20916
2.20259
2.19115
2.16845
2.14951
2.1423
2.13733
2.13138
2.12535
2.11875
2.11026
2.09772
2.08233
2.07001
2.06094
2.05324
2.04611
2.0401
2.035
2.03039
2.02555
2.01952
2.011
1.9988
1.9834
1.9721
1.96813
1.96516
1.9625
1.96224
1.96064
1.9547
1.94453
1.92996
1.91829
1.91195
1.90795
1.90505
1.90258
1.89949
1.89508
1.89041
1.8858
1.87925
6.31099
6.34528
6.31918
6.24101
6.0769
5.91044
5.84992
5.82842
5.8453
5.91737
5.95716
5.93018
5.85775
5.74775
5.64708
5.60436
5.5894
5.58924
5.59734
5.58898
5.56334
5.5138
5.42889
5.33328
5.26857
5.24306
5.23899
5.27249
5.30182
5.28722
5.25288
5.18457
5.09745
5.03476
5.00931
5.0006
5.01201
5.00593
4.98254
4.9376
4.87958
4.83964
4.8254
4.82614
4.83979
4.82711
4.80275
4.75125
4.67602
4.61313
4.5896
4.58044
4.58822
4.60222
4.59116
4.57149
4.54401
4.48959
4.41151
4.34787
4.32428
4.31028
4.29898
4.29558
4.29126
4.2778
4.26282
4.24512
4.2245
4.21024
4.20418
4.20209
4.19547
4.18203
4.16564
4.13372
4.0829
4.02504
3.98092
3.96394
3.95768
3.95526
3.94736
3.93072
3.90501
3.86757
3.82833
3.79802
3.77865
3.76887
3.76091
3.75634
3.75321
3.74475
3.73388
3.71593
3.67502
3.60844
3.55966
3.54511
3.53568
3.52943
3.52992
3.53658
3.53537
3.52988
3.52201
3.50792
3.47872
3.42808
3.38452
3.36376
3.3501
3.34098
3.33378
3.32962
3.33432
3.33188
3.3228
3.31213
3.29482
3.25091
3.18567
3.14162
3.1244
3.11743
3.11385
3.11662
3.14023
3.15717
3.15237
3.1426
3.12414
3.08682
3.04107
3.013
3.00143
2.99503
2.99495
3.00286
3.00013
2.99158
2.97597
2.93547
2.88021
2.8444
2.82749
2.81963
2.81461
2.81423
2.82922
2.84931
2.85315
2.84432
2.83326
2.81038
2.76453
2.72493
2.70726
2.69771
2.68936
2.68576
2.68646
2.67921
2.67088
2.66253
2.65108
2.63461
2.61564
2.59906
2.58519
2.57381
2.56481
2.55567
2.54634
2.53963
2.53493
2.52931
2.51708
2.49028
2.45728
2.43647
2.42722
2.42102
2.41678
2.41535
2.42965
2.44691
2.44545
2.44132
2.43632
2.42786
2.40124
2.34596
2.30929
2.29895
2.29367
2.28894
2.28491
2.28139
2.27764
2.27251
2.26583
2.25677
2.24621
2.2394
2.23446
2.22948
2.22348
2.21708
2.21062
2.20109
2.18444
2.16224
2.143
2.13033
2.12087
2.11168
2.10346
2.09652
2.09233
2.08841
2.08152
2.07148
2.0598
2.04946
2.04151
2.03471
2.02886
2.02342
2.01674
2.00679
1.99353
1.98087
1.97155
1.96748
1.96514
1.96316
1.96107
1.95877
1.95501
1.94938
1.94046
1.92691
1.91582
1.90897
1.90334
1.89773
1.89201
1.88643
1.8815
1.8774
1.87416
6.37931
6.3511
6.27116
6.1071
5.94292
5.88361
5.86575
5.89308
5.97605
6.01556
5.98605
5.9092
5.78995
5.68435
5.64616
5.63213
5.63957
5.65408
5.64035
5.61585
5.56255
5.47703
5.38006
5.31411
5.28861
5.2839
5.3168
5.34536
5.32866
5.29112
5.219
5.12941
5.07028
5.04651
5.03636
5.04674
5.04255
5.01662
4.96806
4.91254
4.87888
4.86483
4.86255
4.87544
4.86633
4.84537
4.79731
4.72091
4.65752
4.63315
4.62128
4.62218
4.63569
4.62734
4.61041
4.59026
4.54808
4.47534
4.40492
4.37026
4.3545
4.34268
4.33376
4.32014
4.30104
4.2821
4.26339
4.24276
4.22344
4.21158
4.20279
4.20428
4.20706
4.19336
4.1682
4.12221
4.05783
4.01398
3.99722
3.99093
3.99028
3.98575
3.97278
3.95336
3.9221
3.87524
3.82942
3.80501
3.79635
3.79055
3.78362
3.77476
3.76318
3.75057
3.73018
3.69194
3.63891
3.59741
3.57945
3.56969
3.56472
3.56239
3.5552
3.54465
3.53434
3.52623
3.51916
3.50944
3.48761
3.44557
3.40407
3.37632
3.35714
3.34327
3.33406
3.32714
3.32445
3.33534
3.33414
3.32282
3.30439
3.26153
3.19464
3.15921
3.14623
3.13731
3.13459
3.14283
3.14608
3.14187
3.13644
3.12783
3.10789
3.07123
3.0378
3.02362
3.01455
3.009
3.01341
3.01903
3.01239
2.99901
2.97481
2.93087
2.87951
2.85296
2.84098
2.83161
2.82527
2.82431
2.83905
2.86089
2.86328
2.85213
2.83359
2.80381
2.75783
2.72709
2.71531
2.70587
2.69737
2.69169
2.69489
2.6952
2.68684
2.67554
2.65986
2.63705
2.61384
2.59732
2.58498
2.5734
2.56481
2.55924
2.55428
2.54924
2.54414
2.53862
2.53088
2.51206
2.47127
2.43521
2.42243
2.41699
2.41264
2.40948
2.41302
2.43744
2.45149
2.44807
2.44181
2.43277
2.41111
2.36395
2.31794
2.30504
2.29962
2.29554
2.29194
2.28743
2.28084
2.27213
2.26199
2.256
2.2511
2.24518
2.23724
2.22743
2.21714
2.20806
2.20094
2.19561
2.18922
2.1746
2.15059
2.13076
2.11856
2.10783
2.09855
2.09338
2.09018
2.08818
2.08421
2.07805
2.06878
2.05596
2.04411
2.03581
2.02887
2.02221
2.01446
2.00191
1.98848
1.98062
1.9753
1.9707
1.96779
1.96561
1.96336
1.95969
1.95538
1.95106
1.94601
1.93604
1.92103
1.9097
1.90229
1.89627
1.89056
1.88488
1.87997
1.87645
1.87381
6.37935
6.29762
6.13385
5.97983
5.9288
5.91435
5.94787
6.03358
6.06044
6.02002
5.93777
5.81749
5.72114
5.68635
5.67556
5.69222
5.7146
5.70096
5.6714
5.60467
5.50327
5.41454
5.36304
5.33735
5.33197
5.36368
5.3902
5.37292
5.33522
5.26218
5.1693
5.10676
5.08321
5.07324
5.08016
5.07168
5.04847
5.00538
4.94932
4.90758
4.89354
4.89318
4.9101
4.9041
4.8829
4.83676
4.765
4.69824
4.67071
4.66069
4.66325
4.6765
4.66632
4.64653
4.62491
4.59278
4.53523
4.45914
4.41405
4.3998
4.38801
4.37927
4.36679
4.34859
4.32692
4.3003
4.2666
4.24119
4.22824
4.21985
4.21374
4.20279
4.19001
4.17303
4.14479
4.09998
4.05265
4.0322
4.02555
4.0234
4.01677
4.0046
3.99082
3.96903
3.93025
3.88535
3.85666
3.83907
3.82133
3.80607
3.7948
3.78584
3.77703
3.75658
3.71404
3.65387
3.61581
3.60274
3.59807
3.59798
3.59999
3.5925
3.57823
3.55999
3.54173
3.52713
3.51222
3.49245
3.47026
3.44822
3.42634
3.40621
3.38252
3.35807
3.3413
3.33114
3.32223
3.31461
3.3118
3.30389
3.28851
3.26356
3.22539
3.19882
3.18512
3.1732
3.16258
3.15426
3.14837
3.14229
3.13056
3.11073
3.08419
3.05846
3.04696
3.04057
3.03774
3.03268
3.0225
3.01027
2.99851
2.98224
2.95438
2.92041
2.89331
2.87819
2.86647
2.85639
2.84862
2.84429
2.84092
2.837
2.83423
2.82492
2.80984
2.78659
2.75539
2.73602
2.72563
2.71701
2.71027
2.70911
2.70449
2.69386
2.68263
2.6708
2.65557
2.63419
2.61057
2.59143
2.58142
2.57546
2.57018
2.56619
2.56362
2.56096
2.55629
2.55006
2.54193
2.52628
2.48861
2.4426
2.42366
2.41632
2.41098
2.40637
2.40436
2.41461
2.42888
2.4307
2.42797
2.42288
2.41344
2.38866
2.35044
2.31588
2.29961
2.28977
2.28358
2.27792
2.27193
2.26627
2.26158
2.25724
2.25193
2.24523
2.23738
2.228
2.21689
2.20604
2.19839
2.19287
2.18779
2.18024
2.16295
2.13675
2.11767
2.10733
2.10057
2.09514
2.09068
2.08674
2.08362
2.07997
2.07492
2.06568
2.05098
2.03796
2.03104
2.02566
2.01541
1.99797
1.98532
1.98086
1.97777
1.97499
1.97264
1.97075
1.96692
1.96166
1.95697
1.95253
1.94767
1.94014
1.92655
1.91353
1.90494
1.89757
1.89051
1.88533
1.88243
1.88019
1.87734
6.32579
6.16766
6.01932
5.96673
5.95688
5.99845
6.08538
6.10283
6.05535
5.96246
5.83806
5.75218
5.72085
5.7169
5.74846
5.76827
5.7536
5.71851
5.64866
5.55107
5.45916
5.40014
5.37531
5.37422
5.4115
5.43653
5.41793
5.37955
5.30918
5.21753
5.15195
5.1282
5.11602
5.12027
5.11536
5.09014
5.04785
4.99219
4.94695
4.93123
4.92729
4.94421
4.94493
4.92582
4.88085
4.80177
4.73225
4.70405
4.6941
4.69379
4.71124
4.71078
4.69321
4.67378
4.64633
4.59315
4.51593
4.45877
4.44192
4.4308
4.42329
4.41418
4.39977
4.38214
4.35744
4.31973
4.28023
4.257
4.24129
4.22681
4.21185
4.19664
4.17844
4.15058
4.11011
4.07702
4.06603
4.06141
4.06102
4.05519
4.04256
4.02535
3.99787
3.96022
3.92418
3.90349
3.89215
3.87865
3.86108
3.8399
3.81664
3.79232
3.76529
3.7295
3.67951
3.64004
3.62337
3.61758
3.61643
3.62636
3.62698
3.61708
3.60484
3.58822
3.565
3.53491
3.5015
3.47112
3.45151
3.44244
3.43588
3.42647
3.41313
3.39469
3.3709
3.34832
3.33165
3.31659
3.30107
3.28468
3.26434
3.25035
3.2452
3.23941
3.23015
3.21457
3.1937
3.17245
3.15185
3.13019
3.10483
3.08051
3.06675
3.06018
3.05738
3.06115
3.06083
3.04969
3.03573
3.01986
2.99229
2.9558
2.924
2.90852
2.90333
2.89831
2.89459
2.89069
2.88257
2.86843
2.85086
2.83543
2.82157
2.80521
2.78173
2.76435
2.75755
2.74857
2.73803
2.72933
2.72567
2.72541
2.71509
2.7019
2.68817
2.67235
2.65503
2.63453
2.61244
2.5948
2.58339
2.57548
2.5696
2.56578
2.5657
2.5673
2.56426
2.55868
2.5505
2.53695
2.50828
2.46051
2.42897
2.41792
2.41119
2.40607
2.40369
2.40901
2.41571
2.41384
2.41072
2.40581
2.39873
2.39049
2.37212
2.34429
2.31278
2.29265
2.28273
2.27605
2.27005
2.26451
2.2601
2.25733
2.25368
2.24869
2.24193
2.23207
2.21979
2.20739
2.19843
2.1927
2.1873
2.18027
2.16804
2.14494
2.12065
2.10805
2.10291
2.09889
2.09417
2.08899
2.08362
2.07813
2.07304
2.06822
2.06052
2.04737
2.0318
2.01792
2.00647
1.99569
1.989
1.98424
1.97925
1.97613
1.9743
1.97493
1.97315
1.96909
1.96474
1.95983
1.95379
1.94548
1.93299
1.91944
1.9081
1.89986
1.89411
1.88817
1.88278
1.8799
1.87769
6.20718
6.06753
6.0165
6.00839
6.05036
6.13282
6.14389
6.09538
6.00182
5.8766
5.79168
5.76293
5.76504
5.8048
5.81896
5.7982
5.74942
5.6671
5.56928
5.50002
5.461
5.43777
5.43503
5.46601
5.48291
5.46215
5.4235
5.35255
5.26216
5.20115
5.17902
5.16776
5.16583
5.15151
5.12649
5.08426
5.02643
4.98416
4.96844
4.96385
4.97859
4.97947
4.96139
4.92165
4.85196
4.77701
4.73695
4.72372
4.71732
4.73215
4.74338
4.72905
4.71235
4.69375
4.65701
4.58213
4.50672
4.4814
4.47006
4.46262
4.45728
4.44629
4.43244
4.41527
4.38759
4.34546
4.30775
4.28189
4.25905
4.23694
4.21625
4.19348
4.15964
4.11742
4.08826
4.07639
4.0719
4.07964
4.08309
4.07183
4.05775
4.03632
3.99545
3.95168
3.93138
3.92367
3.91755
3.90818
3.89623
3.87961
3.8516
3.80644
3.74888
3.69554
3.66116
3.64516
3.63923
3.63625
3.64244
3.65212
3.64877
3.64025
3.62914
3.61068
3.57487
3.52641
3.4886
3.46452
3.4504
3.44259
3.43583
3.43208
3.42777
3.41955
3.40574
3.38151
3.34682
3.30978
3.28314
3.26579
3.25625
3.25233
3.25717
3.26718
3.26376
3.25268
3.22941
3.18657
3.13792
3.10258
3.08407
3.07375
3.06748
3.06439
3.07192
3.08292
3.07712
3.06459
3.04832
3.01459
2.96601
2.93107
2.91656
2.91164
2.90924
2.91162
2.9181
2.91707
2.90946
2.89612
2.8733
2.84034
2.80618
2.77943
2.76236
2.75266
2.74872
2.7571
2.75763
2.74969
2.74
2.7285
2.7154
2.70051
2.68222
2.66178
2.64433
2.63091
2.61818
2.60562
2.59366
2.5838
2.57689
2.57176
2.56853
2.56534
2.56106
2.55742
2.55298
2.54253
2.52021
2.48796
2.45612
2.4309
2.41714
2.41086
2.40733
2.40623
2.40388
2.39905
2.39547
2.39166
2.38525
2.3768
2.37097
2.36109
2.34328
2.3131
2.28888
2.28048
2.27581
2.27099
2.26507
2.25851
2.25378
2.24944
2.24417
2.23633
2.22594
2.2148
2.20474
2.19746
2.19125
2.18325
2.17159
2.1547
2.13296
2.11365
2.10447
2.09932
2.09466
2.08948
2.08452
2.08013
2.0757
2.07068
2.06503
2.05567
2.03766
2.01559
2.00013
1.99387
1.99158
1.98891
1.98516
1.9827
1.98169
1.97995
1.97563
1.96849
1.95816
1.95022
1.94471
1.93855
1.93318
1.92829
1.92081
1.90895
1.89824
1.89184
1.88709
1.88254
1.87876
6.11873
6.07558
6.07
6.11371
6.18697
6.1875
6.13589
6.035
5.91394
5.84243
5.81629
5.82195
5.86213
5.86509
5.83519
5.77454
5.68433
5.59606
5.53291
5.49549
5.4797
5.48749
5.51898
5.52605
5.50344
5.46631
5.40194
5.31397
5.24936
5.22755
5.21763
5.21569
5.20117
5.17787
5.13991
5.08393
5.02919
5.00731
4.99752
5.01025
5.02279
5.00555
4.96378
4.89123
4.81137
4.77222
4.75875
4.74991
4.75613
4.7749
4.76621
4.74915
4.73208
4.70501
4.64523
4.56813
4.52549
4.51107
4.50055
4.49564
4.48788
4.4736
4.45777
4.4377
4.40552
4.36641
4.33637
4.31294
4.2891
4.26193
4.2291
4.1846
4.13747
4.10427
4.09136
4.08476
4.08357
4.09078
4.09196
4.08506
4.07085
4.04048
3.99379
3.96395
3.95402
3.94912
3.94431
3.93473
3.92272
3.90488
3.86794
3.80343
3.73102
3.68312
3.66252
3.6558
3.65177
3.65411
3.6644
3.66814
3.66432
3.65617
3.64446
3.62201
3.57499
3.52135
3.48594
3.4673
3.45832
3.45216
3.44735
3.44429
3.44173
3.43594
3.42611
3.40659
3.36194
3.30891
3.27877
3.26752
3.26148
3.2596
3.27561
3.29019
3.28458
3.27267
3.24385
3.18833
3.12997
3.09622
3.08236
3.07588
3.07079
3.07288
3.0895
3.09019
3.08103
3.07123
3.04738
2.99799
2.94977
2.92781
2.92167
2.91794
2.91804
2.92912
2.93787
2.93468
2.92621
2.91346
2.88664
2.83788
2.79349
2.77171
2.76062
2.75199
2.74719
2.75621
2.76845
2.76357
2.75246
2.7399
2.72356
2.70316
2.68068
2.65926
2.64134
2.62924
2.62107
2.61278
2.60199
2.59396
2.58895
2.58329
2.57732
2.57343