/*--------------------------------*- C++ -*----------------------------------*\
  =========                 |
  \\      /  F ield         | OpenFOAM: The Open Source CFD Toolbox
   \\    /   O peration     | Website:  https://openfoam.org
    \\  /    A nd           | Version:  7
     \\/     M anipulation  |
\*---------------------------------------------------------------------------*/
FoamFile
{
    version     2.0;
    format      ascii;
    class       volScalarField;
    location    "1";
    object      rho;
}
// * * * * * * * * * * * * * * * * * * * * * * * * * * * * * * * * * * * * * //

dimensions      [1 -3 0 0 0 0 0];

internalField   nonuniform List<scalar> 
16192
(
1.40001
1.40001
1.40001
1.40001
1.40001
1.40001
1.40001
1.40001
1.40001
1.40001
1.40001
1.40001
1.40001
1.40001
1.40001
1.40001
1.40001
1.40001
1.40001
1.40001
1.40001
1.40001
1.40001
1.40001
1.40001
1.40001
1.40001
1.40001
1.40001
1.40001
1.40001
1.40001
1.40001
1.40001
1.40001
1.40001
1.40001
1.40001
1.40001
1.40001
1.40001
1.40001
1.40001
1.40001
1.40001
1.40001
1.40001
1.40001
1.40001
1.40001
1.40001
1.40001
1.40001
1.40001
1.40001
1.40001
1.40001
1.40001
1.40001
1.40001
1.40001
1.40001
1.40001
1.40001
1.40001
1.40001
1.40001
1.40001
1.40001
1.40001
1.40001
1.40001
1.40001
1.40001
1.40001
1.40001
1.40001
1.40001
1.40001
1.40001
1.40001
1.40001
1.40001
1.40001
1.40001
1.40001
1.40001
1.40001
1.40001
1.40001
1.40001
1.40001
1.40001
1.40001
1.40001
1.40001
1.40001
1.40001
1.40001
1.40001
1.40001
1.40001
1.40001
1.40001
1.40001
1.40001
1.40001
1.40001
1.40001
1.40001
1.40001
1.40001
1.40001
1.40001
1.40001
1.40001
1.40001
1.40001
1.40001
1.40001
1.40001
1.40001
1.40001
1.40001
1.40001
1.40001
1.40001
1.40001
1.40001
1.40001
1.40001
1.40001
1.40001
1.40001
1.40001
1.40001
1.40001
1.40001
1.40001
1.40001
1.40001
1.40001
1.40001
1.40001
1.40001
1.40001
1.40001
1.40001
1.40001
1.40001
1.40001
1.40001
1.40001
1.40001
1.40001
1.40001
1.40001
1.40001
1.40001
1.40001
1.40001
1.40001
1.40001
1.40001
1.40001
1.40001
1.40001
1.40001
1.40001
1.40001
1.40001
1.40001
1.40001
1.40001
1.40001
1.40001
1.40001
1.40001
1.40001
1.40001
1.40001
1.40001
1.40001
1.40001
1.40001
1.40001
1.40001
1.40001
1.40001
1.40001
1.40001
1.40001
1.40001
1.40001
1.40001
1.40001
1.40001
1.40001
1.40001
1.40001
1.40001
1.40001
1.40001
1.40001
1.40001
1.40001
1.40001
1.40001
1.40001
1.40001
1.40001
1.40001
1.40001
1.40001
1.40001
1.40001
1.40001
1.40001
1.40001
1.40001
1.40001
1.40001
1.40001
1.40001
1.40001
1.40001
1.40001
1.40001
1.40001
1.40001
1.40001
1.40001
1.40001
1.40001
1.40001
1.40001
1.40001
1.40001
1.40001
1.40001
1.40001
1.40001
1.40001
1.40001
1.40001
1.40001
1.40001
1.40001
1.40001
1.40001
1.40001
1.40001
1.40001
1.40001
1.40001
1.40001
1.40001
1.40001
1.40001
1.40001
1.40001
1.40001
1.40001
1.40001
1.40001
1.40001
1.40001
1.40001
1.40001
1.40001
1.40001
1.40001
1.40001
1.40001
1.40001
1.40001
1.40001
1.40001
1.40001
1.40001
1.40001
1.40001
1.40001
1.40001
1.40001
1.40001
1.40001
1.40001
1.40001
1.40001
1.40001
1.40001
1.40001
1.40001
1.40001
1.40001
1.40001
1.40001
1.40001
1.40001
1.40001
1.40001
1.40001
1.40001
1.40001
1.40001
1.40001
1.40001
1.40001
1.40001
1.40001
1.40001
1.40001
1.40001
1.40001
1.40001
1.40001
1.40001
1.40001
1.40001
1.40001
1.40001
1.40001
1.40001
1.40001
1.40001
1.40001
1.40001
1.40001
1.40001
1.40001
1.40001
1.40001
1.40001
1.40001
1.40001
1.40001
1.40001
1.40001
1.40001
1.40001
1.40001
1.40001
1.40001
1.40001
1.40001
1.40001
1.40001
1.40001
1.40001
1.40001
1.40001
1.40001
1.40001
1.40001
1.40001
1.40001
1.40001
1.40001
1.40001
1.40001
1.40001
1.40001
1.40001
1.40001
1.40001
1.40001
1.40001
1.40001
1.40001
1.40001
1.40001
1.40001
1.40001
1.40001
1.40001
1.40001
1.40001
1.40001
1.40001
1.40001
1.40001
1.40001
1.40001
1.40001
1.40001
1.40001
1.40001
1.40001
1.40001
1.40001
1.40001
1.40001
1.40001
1.40001
1.40001
1.40001
1.40001
1.40001
1.40001
1.40001
1.40001
1.40001
1.40001
1.40001
1.40001
1.40001
1.40001
1.40001
1.40001
1.40001
1.40001
1.40001
1.40001
1.40001
1.40001
1.40001
1.40001
1.40001
1.40001
1.40001
1.40001
1.40001
1.40001
1.40001
1.40001
1.40001
1.40001
1.40001
1.40001
1.40001
1.40001
1.40001
1.40001
1.40001
1.40001
1.40001
1.40001
1.40001
1.40001
1.40001
1.40001
1.40001
1.40001
1.40001
1.40001
1.40001
1.40001
1.40001
1.40001
1.40001
1.40001
1.40001
1.40001
1.40001
1.40001
1.40001
1.40001
1.40001
1.40001
1.40001
1.40001
1.40001
1.40001
1.40001
1.40001
1.40001
1.40001
1.40001
1.40001
1.40001
1.40001
1.40001
1.40001
1.40001
1.40001
1.40001
1.40001
1.40001
1.40001
1.40001
1.40001
1.40001
1.40001
1.40001
1.40001
1.40001
1.40001
1.40001
1.40001
1.40001
1.40001
1.40001
1.40001
1.40001
1.40001
1.40001
1.40001
1.40001
1.40001
1.40001
1.40001
1.40001
1.40001
1.40001
1.40001
1.40001
1.40001
1.40001
1.40001
1.40001
1.40001
1.40001
1.40001
1.40001
1.40001
1.40001
1.40001
1.40001
1.40001
1.40001
1.40001
1.40001
1.40001
1.40001
1.40001
1.40001
1.40001
1.40001
1.40001
1.40001
1.40001
1.40001
1.40001
1.40001
1.40001
1.40001
1.40001
1.40001
1.40001
1.40001
1.40001
1.40001
1.40001
1.40001
1.40001
1.40001
1.40001
1.40001
1.40001
1.40001
1.40001
1.40001
1.40001
1.40001
1.40001
1.40001
1.40001
1.40001
1.40001
1.40001
1.40001
1.40001
1.40001
1.40001
1.40001
1.40001
1.40001
1.40001
1.40001
1.40001
1.40001
1.40001
1.40001
1.40001
1.40001
1.40001
1.40001
1.40001
1.40001
1.40001
1.40001
1.40001
1.40001
1.40001
1.40001
1.40001
1.40001
1.40001
1.40001
1.40001
1.40001
1.40001
1.40001
1.40001
1.40001
1.40001
1.40001
1.40001
1.40001
1.40001
1.40001
1.40001
1.40001
1.40001
1.40001
1.40001
1.40001
1.40001
1.40001
1.40001
1.40001
1.40001
1.40001
1.40001
1.40001
1.40001
1.40001
1.40001
1.40001
1.40001
1.40001
1.40001
1.40001
1.40001
1.40001
1.40001
1.40001
1.40001
1.40001
1.40001
1.40001
1.40001
1.40001
1.40001
1.40001
1.40001
1.40001
1.40001
1.40001
1.40001
1.40001
1.40001
1.40001
1.40001
1.40001
1.40001
1.40001
1.40001
1.40001
1.40001
1.40001
1.40001
1.40001
1.40001
1.40001
1.40001
1.40001
1.40001
1.40001
1.40001
1.40001
1.40001
1.40001
1.40001
1.40001
1.40001
1.40001
1.40001
1.40001
1.40001
1.40001
1.40001
1.40001
1.40001
1.40001
1.40001
1.40001
1.40001
1.40001
1.40001
1.40001
1.40001
1.40001
1.40001
1.40001
1.40001
1.40001
1.40001
1.40001
1.40001
1.40001
1.40001
1.40001
1.40001
1.40001
1.40001
1.40001
1.40001
1.40001
1.40001
1.40001
1.40001
1.40001
1.40001
1.40001
1.40001
1.40001
1.40001
1.40001
1.40001
1.40001
1.40001
1.40001
1.40001
1.40001
1.40001
1.40001
1.40001
1.40001
1.40001
1.40001
1.40001
1.40001
1.40001
1.40001
1.40001
1.40001
1.40001
1.40001
1.40001
1.40001
1.40001
1.40001
1.40001
1.40001
1.40001
1.40001
1.40001
1.40001
1.40001
1.40001
1.40001
1.40001
1.40001
1.40001
1.40001
1.40001
1.40001
1.40001
1.40001
1.40001
1.40001
1.40001
1.40001
1.40001
1.40001
1.40001
1.40001
1.40001
1.40001
1.40001
1.40001
1.40001
1.40001
1.40001
1.40001
1.40001
1.40001
1.40001
1.40001
1.40001
1.40001
1.40001
1.40001
1.40001
1.40001
1.40001
1.40001
1.40001
1.40001
1.40001
1.40001
1.40001
1.40001
1.40001
1.40001
1.40001
1.40001
1.40001
1.40001
1.40001
1.40001
1.40001
1.40001
1.40001
1.40001
1.40001
1.40001
1.40001
1.40001
1.40001
1.40001
1.40001
1.40001
1.40001
1.40001
1.40001
1.40001
1.40001
1.40001
1.40001
1.40001
1.40001
1.40001
1.40001
1.40001
1.40001
1.40001
1.40001
1.40001
1.40001
1.40001
1.40001
1.40001
1.40001
1.40001
1.40001
1.40001
1.40001
1.40001
1.40001
1.40001
1.40001
1.40001
1.40001
1.40001
1.40001
1.40001
1.40001
1.40001
1.40001
1.40001
1.40001
1.40001
1.40001
1.40001
1.40001
1.40001
1.40001
1.40001
1.40001
1.40001
1.40001
1.40001
1.40001
1.40001
1.40001
1.40001
1.40001
1.40001
1.40001
1.40001
1.40001
1.40001
1.40001
1.40001
1.40001
1.40001
1.40001
1.40001
1.40001
1.40001
1.40001
1.40001
1.40001
1.40001
1.40001
1.40001
1.40001
1.40001
1.40001
1.40001
1.40001
1.40001
1.40001
1.40001
1.40001
1.40001
1.40001
1.40001
1.40001
1.40001
1.40001
1.40001
1.40001
1.40001
1.40001
1.40001
1.40001
1.40001
1.40001
1.40001
1.40001
1.40001
1.40001
1.40001
1.40001
1.40001
1.40001
1.40001
1.40001
1.40001
1.40001
1.40001
1.40001
1.40001
1.40001
1.40001
1.40001
1.40001
1.40001
1.40001
1.40001
1.40001
1.40001
1.40001
1.40001
1.40001
1.40001
1.40001
1.40001
1.40001
1.40001
1.40001
1.40001
1.40001
1.40001
1.40001
1.40001
1.40001
1.40001
1.40001
1.40001
1.40001
1.40001
1.40001
1.40001
1.40001
1.40001
1.40001
1.40001
1.40001
1.40001
1.40001
1.40001
1.40001
1.40001
1.40001
1.40001
1.40001
1.40001
1.40001
1.40001
1.40001
1.40001
1.40001
1.40001
1.40001
1.40001
1.40001
1.40001
1.40001
1.40001
1.40001
1.40001
1.40001
1.40001
1.40001
1.40001
1.40001
1.40001
1.40001
1.40001
1.40001
1.40001
1.40001
1.40001
1.40001
1.40001
1.40001
1.40001
1.40001
1.40001
1.40001
1.40001
1.40001
1.40001
1.40001
1.40001
1.40001
1.40001
1.40001
1.40001
1.40001
1.40001
1.40001
1.40001
1.40001
1.40001
1.40001
1.40001
1.40001
1.40001
1.40001
1.40001
1.40001
1.40001
1.40001
1.40001
1.40001
1.40001
1.40001
1.40001
1.40001
1.40001
1.40001
1.40001
1.40001
1.40001
1.40001
1.40001
1.40001
1.40001
1.40001
1.40001
1.40001
1.40001
1.40001
1.40001
1.40001
1.40001
1.40001
1.40001
1.40001
1.40001
1.40001
1.40001
1.40001
1.40001
1.40001
1.40001
1.40001
1.40001
1.40001
1.40001
1.40001
1.40001
1.40001
1.40001
1.40001
1.40001
1.40001
1.40001
1.40001
1.40001
1.40001
1.40001
1.40001
1.40001
1.40001
1.40001
1.40001
1.40001
1.40001
1.40001
1.40001
1.40001
1.40001
1.40001
1.40001
1.40001
1.40001
1.40001
1.40001
1.40001
1.40001
1.40001
1.40001
1.40001
1.40001
1.40001
1.40001
1.40001
1.40001
1.40001
1.40001
1.40001
1.40001
1.40001
1.40001
1.40001
1.40001
1.40001
1.40001
1.40001
1.40001
1.40001
1.40001
1.40001
1.40001
1.40001
1.40001
1.40001
1.40001
1.40001
1.40001
1.40001
1.40001
1.40001
1.40001
1.40001
1.40001
1.40001
1.40001
1.40001
1.40001
1.40001
1.40001
1.40001
1.40001
1.40001
1.40001
1.40001
1.40001
1.40001
1.40001
1.40001
1.40001
1.40001
1.40001
1.40001
1.40001
1.40001
1.40001
1.40001
1.40001
1.40001
1.40001
1.40001
1.40001
1.40001
1.40001
1.40001
1.40001
1.40001
1.40001
1.40001
1.40001
1.40001
1.40001
1.40001
1.40001
1.40001
1.40001
1.40001
1.40001
1.40001
1.40001
1.40001
1.40001
1.40001
1.40001
1.40001
1.40001
1.40001
1.40001
1.40001
1.40001
1.40001
1.40001
1.40001
1.40001
1.40001
1.40001
1.40001
1.40001
1.40001
1.40001
1.40001
1.40001
1.40001
1.40001
1.40001
1.40001
1.40001
1.40001
1.40001
1.40001
1.40001
1.40001
1.40001
1.40001
1.40001
1.40001
1.40001
1.40001
1.40001
1.40001
1.40001
1.40001
1.40001
1.40001
1.40001
1.40001
1.40001
1.40001
1.40001
1.40001
1.40001
1.40001
1.40001
1.40001
1.40001
1.40001
1.40001
1.40001
1.40001
1.40001
1.40001
1.40001
1.40001
1.40001
1.40001
1.40001
1.40001
1.40001
1.40001
1.40001
1.40001
1.40001
1.40001
1.40001
1.40001
1.40001
1.40001
1.40001
1.40001
1.40001
1.40001
1.40001
1.40001
1.40001
1.40001
1.40001
1.40001
1.40001
1.40001
1.40001
1.40001
1.40001
1.40001
1.40001
1.40001
1.40001
1.40001
1.40001
1.40001
1.40001
1.40001
1.40001
1.40001
1.40001
1.40001
1.40001
1.40001
1.40001
1.40001
1.40001
1.40001
1.40001
1.40001
1.40001
1.40001
1.40001
1.40001
1.40001
1.40001
1.40001
1.40001
1.40001
1.40001
1.40001
1.40001
1.40001
1.40001
1.40001
1.40001
1.40001
1.40001
1.40001
1.40001
1.40001
1.40001
1.40001
1.40001
1.40001
1.40001
1.40001
1.40002
1.4005
1.41227
1.55064
2.17448
2.94632
3.34311
3.64902
3.73251
3.72095
3.6793
3.63037
3.60706
3.60576
3.62413
3.63132
3.62561
3.61985
3.59684
3.57352
3.56764
3.57185
3.56487
3.55122
3.54102
3.52597
3.50721
3.49322
3.4898
3.49909
3.51419
3.52776
3.54246
3.54561
3.54189
3.53997
3.53656
3.52889
3.51834
3.50704
3.49426
3.47871
3.45675
3.42775
3.40494
3.39679
3.38948
3.38126
3.37114
3.35866
3.34118
3.31555
3.28411
3.25043
3.2222
3.20711
3.20162
3.20327
3.21584
3.22182
3.2159
3.20175
3.17121
3.129
3.08398
3.0561
3.03747
3.02391
3.0111
2.99742
2.98681
2.98211
2.98433
2.99152
2.99026
2.98075
2.95456
2.91283
2.88186
2.87036
2.86267
2.8518
2.83877
2.82962
2.82512
2.82359
2.82318
2.81879
2.81007
2.79384
2.76921
2.73428
2.70006
2.67955
2.67484
2.67596
2.6916
2.70403
2.70206
2.69265
2.67493
2.64761
2.61769
2.59186
2.56554
2.53763
2.51757
2.5124
2.50998
2.51136
2.52245
2.53231
2.53291
2.52983
2.52656
2.52116
2.51062
2.49404
2.46555
2.41764
2.38281
2.37258
2.3709
2.37553
2.39994
2.42345
2.4247
2.42068
2.41408
2.39687
2.35967
2.29916
2.25996
2.24769
2.24679
2.24948
2.26598
2.30722
2.34747
2.35155
2.34584
2.33217
2.29731
2.22605
2.17059
2.15705
2.15456
2.15471
2.16467
2.19066
2.21616
2.221
2.21851
2.21621
2.21368
2.20982
2.20041
2.17899
2.14709
2.10341
2.06168
2.0372
2.02743
1.40001
1.40001
1.40001
1.40001
1.40001
1.40001
1.40001
1.40001
1.40001
1.40001
1.40001
1.40001
1.40001
1.40001
1.40001
1.40001
1.40001
1.40001
1.40001
1.40001
1.40001
1.40001
1.40001
1.40001
1.40001
1.40001
1.40001
1.40001
1.40001
1.40001
1.40001
1.40001
1.40001
1.40001
1.40001
1.40001
1.40001
1.40001
1.40001
1.40001
1.40001
1.40001
1.40001
1.40001
1.40001
1.40001
1.40001
1.40001
1.40001
1.40001
1.40001
1.40001
1.40001
1.40001
1.40001
1.40001
1.40001
1.40001
1.40001
1.40001
1.40001
1.40001
1.40001
1.40001
1.40001
1.40001
1.40001
1.40001
1.40001
1.40011
1.40492
1.49366
1.94337
2.57707
3.2757
3.71479
3.7004
3.62515
3.61674
3.61751
3.63089
3.65321
3.65152
3.65135
3.63365
3.59534
3.58378
3.59207
3.59233
3.5772
3.56414
3.54995
3.52475
3.49608
3.48502
3.48785
3.49989
3.5144
3.5324
3.55248
3.5584
3.55922
3.55833
3.55597
3.5506
3.54075
3.52758
3.5108
3.49001
3.4645
3.44102
3.42887
3.42065
3.41223
3.40196
3.38888
3.37105
3.34555
3.3149
3.28255
3.25504
3.24132
3.23624
3.239
3.25322
3.25844
3.25129
3.23479
3.2055
3.16188
3.11131
3.08166
3.06319
3.05012
3.03908
3.02879
3.02115
3.0186
3.0234
3.02872
3.0249
3.01212
2.98682
2.9477
2.90996
2.89617
2.88965
2.87936
2.86556
2.8557
2.8505
2.84745
2.84557
2.84102
2.83234
2.81684
2.79459
2.76434
2.73273
2.71341
2.70864
2.7092
2.72166
2.72795
2.72289
2.71084
2.6898
2.65858
2.63147
2.61254
2.59226
2.56755
2.54756
2.54252
2.54061
2.54306
2.55534
2.56496
2.56258
2.55728
2.55005
2.5393
2.52665
2.51172
2.48622
2.44355
2.40973
2.39795
2.3962
2.40046
2.42419
2.44807
2.44885
2.44381
2.43512
2.41602
2.37732
2.31793
2.27996
2.26726
2.26618
2.26885
2.28364
2.32133
2.36612
2.37585
2.37087
2.35865
2.32662
2.25572
2.19221
2.1759
2.17339
2.17336
2.18316
2.21099
2.24092
2.24659
2.24352
2.24133
2.2388
2.23484
2.22395
2.20155
2.16889
2.12539
2.08391
2.0592
2.04968
2.04635
1.40001
1.40001
1.40001
1.40001
1.40001
1.40001
1.40001
1.40001
1.40001
1.40001
1.40001
1.40001
1.40001
1.40001
1.40001
1.40001
1.40001
1.40001
1.40001
1.40001
1.40001
1.40001
1.40001
1.40001
1.40001
1.40001
1.40001
1.40001
1.40001
1.40001
1.40001
1.40001
1.40001
1.40001
1.40001
1.40001
1.40001
1.40001
1.40001
1.40001
1.40001
1.40001
1.40001
1.40001
1.40001
1.40001
1.40001
1.40001
1.40001
1.40001
1.40001
1.40001
1.40001
1.40001
1.40001
1.40001
1.40001
1.40001
1.40001
1.40001
1.40001
1.40001
1.40001
1.40001
1.40001
1.40001
1.40001
1.40001
1.40001
1.40001
1.40004
1.40244
1.44429
1.65878
2.22784
3.22445
3.51853
3.53549
3.6083
3.66105
3.6865
3.68442
3.68515
3.67337
3.62685
3.59518
3.60014
3.60927
3.59898
3.58891
3.57569
3.54878
3.51548
3.49252
3.4879
3.49355
3.50704
3.51975
3.53989
3.55741
3.56624
3.5733
3.57448
3.57367
3.56942
3.56015
3.54557
3.52495
3.50069
3.4771
3.46136
3.45077
3.44159
3.43141
3.41818
3.40031
3.37535
3.3464
3.31581
3.28972
3.27747
3.27269
3.27627
3.2895
3.29171
3.28269
3.26376
3.23498
3.19251
3.14116
3.10865
3.09082
3.08023
3.07131
3.0637
3.0592
3.05993
3.06453
3.06325
3.05367
3.03545
3.01332
2.98149
2.9431
2.92382
2.91858
2.91076
2.89816
2.88463
2.87753
2.87205
2.86738
2.86206
2.85327
2.83845
2.81885
2.79351
2.7655
2.74819
2.74384
2.74475
2.75435
2.75537
2.74766
2.73205
2.70573
2.66989
2.64512
2.63055
2.61485
2.59441
2.5755
2.57036
2.56911
2.57466
2.58828
2.59574
2.59187
2.58321
2.56936
2.5547
2.54191
2.52748
2.50432
2.46758
2.43577
2.42264
2.42073
2.42453
2.44743
2.47218
2.47326
2.46747
2.45673
2.43505
2.39349
2.33468
2.2993
2.28672
2.28547
2.28799
2.30162
2.33641
2.38319
2.39898
2.39513
2.38421
2.35538
2.28695
2.21516
2.19457
2.19192
2.19178
2.20112
2.23027
2.26459
2.2721
2.26831
2.26543
2.26267
2.25804
2.24572
2.22311
2.18958
2.147
2.10736
2.08168
2.0716
2.06856
2.06448
1.40001
1.40001
1.40001
1.40001
1.40001
1.40001
1.40001
1.40001
1.40001
1.40001
1.40001
1.40001
1.40001
1.40001
1.40001
1.40001
1.40001
1.40001
1.40001
1.40001
1.40001
1.40001
1.40001
1.40001
1.40001
1.40001
1.40001
1.40001
1.40001
1.40001
1.40001
1.40001
1.40001
1.40001
1.40001
1.40001
1.40001
1.40001
1.40001
1.40001
1.40001
1.40001
1.40001
1.40001
1.40001
1.40001
1.40001
1.40001
1.40001
1.40001
1.40001
1.40001
1.40001
1.40001
1.40001
1.40001
1.40001
1.40001
1.40001
1.40001
1.40001
1.40001
1.40001
1.40001
1.40001
1.40001
1.40001
1.40001
1.40001
1.40001
1.40001
1.40002
1.40056
1.41082
1.50969
2.02586
2.90455
3.28878
3.54672
3.71049
3.72444
3.71073
3.68162
3.64547
3.61
3.60097
3.61417
3.61672
3.60988
3.59707
3.57069
3.53847
3.51487
3.50149
3.50219
3.51001
3.51844
3.5321
3.5476
3.55733
3.56826
3.58292
3.59021
3.59056
3.58816
3.57959
3.5623
3.53827
3.5143
3.49619
3.48239
3.47041
3.4596
3.44658
3.42889
3.40423
3.37669
3.34818
3.32481
3.31487
3.31119
3.31632
3.32571
3.32302
3.31155
3.29041
3.26134
3.21862
3.17023
3.13806
3.12002
3.11228
3.10629
3.10236
3.10123
3.10326
3.10356
3.09617
3.07884
3.05718
3.03651
3.01175
2.97871
2.95422
2.94848
2.94255
2.93281
2.91977
2.90804
2.8992
2.89112
2.88256
2.87207
2.85809
2.84112
2.82021
2.79625
2.78194
2.77854
2.78129
2.78958
2.78727
2.77752
2.7574
2.72569
2.6851
2.65986
2.64628
2.63358
2.61732
2.60122
2.59636
2.59595
2.60498
2.62127
2.62631
2.62061
2.6076
2.58827
2.57057
2.55652
2.5422
2.5217
2.49081
2.46152
2.44735
2.44515
2.44838
2.47032
2.49565
2.49725
2.49107
2.47831
2.45399
2.40807
2.34953
2.31762
2.30564
2.30423
2.30654
2.31974
2.35287
2.39992
2.42051
2.41797
2.40832
2.38294
2.31962
2.24032
2.21339
2.20993
2.20962
2.21845
2.2482
2.28705
2.29764
2.29356
2.28971
2.2862
2.28013
2.26558
2.24312
2.21065
2.16932
2.13061
2.10491
2.09381
2.0904
2.08694
2.08243
1.40001
1.40001
1.40001
1.40001
1.40001
1.40001
1.40001
1.40001
1.40001
1.40001
1.40001
1.40001
1.40001
1.40001
1.40001
1.40001
1.40001
1.40001
1.40001
1.40001
1.40001
1.40001
1.40001
1.40001
1.40001
1.40001
1.40001
1.40001
1.40001
1.40001
1.40001
1.40001
1.40001
1.40001
1.40001
1.40001
1.40001
1.40001
1.40001
1.40001
1.40001
1.40001
1.40001
1.40001
1.40001
1.40001
1.40001
1.40001
1.40001
1.40001
1.40001
1.40001
1.40001
1.40001
1.40001
1.40001
1.40001
1.40001
1.40001
1.40001
1.40001
1.40001
1.40001
1.40001
1.40001
1.40001
1.40001
1.40001
1.40001
1.40001
1.40001
1.40001
1.40001
1.40007
1.4029
1.45644
1.85862
2.56666
3.13264
3.65616
3.72638
3.6851
3.63426
3.60398
3.5932
3.61224
3.63324
3.63158
3.62161
3.59685
3.56386
3.54238
3.52964
3.52798
3.53008
3.53232
3.53691
3.54192
3.54544
3.55329
3.5705
3.59431
3.60663
3.60909
3.60781
3.59604
3.57502
3.55195
3.5325
3.51679
3.50105
3.48773
3.47441
3.45686
3.43214
3.40566
3.37925
3.35914
3.35165
3.35065
3.35902
3.36289
3.35515
3.33966
3.3163
3.28627
3.24266
3.1974
3.16792
3.15103
3.14447
3.1417
3.14365
3.14636
3.14628
3.14141
3.1278
3.104
3.08066
3.0609
3.04049
3.01372
2.98692
2.97965
2.97483
2.96623
2.95411
2.9413
2.92974
2.91852
2.90664
2.89338
2.87822
2.86199
2.84418
2.82419
2.81327
2.81099
2.8168
2.82575
2.82203
2.81049
2.78645
2.7494
2.70386
2.67675
2.66223
2.65055
2.63739
2.62542
2.62138
2.62195
2.6341
2.65242
2.65602
2.64883
2.6321
2.60887
2.58777
2.57198
2.55768
2.53961
2.51395
2.48743
2.47243
2.46998
2.47281
2.4937
2.51932
2.52152
2.51466
2.49982
2.47271
2.42211
2.36399
2.33523
2.32394
2.32229
2.32435
2.33761
2.37031
2.41705
2.4401
2.43873
2.43017
2.40805
2.35166
2.26797
2.23278
2.22751
2.22715
2.23478
2.26408
2.30764
2.32311
2.31954
2.31489
2.31026
2.30163
2.2845
2.26101
2.2303
2.19401
2.15578
2.12758
2.11606
2.1124
2.10883
2.10494
2.10173
1.40001
1.40001
1.40001
1.40001
1.40001
1.40001
1.40001
1.40001
1.40001
1.40001
1.40001
1.40001
1.40001
1.40001
1.40001
1.40001
1.40001
1.40001
1.40001
1.40001
1.40001
1.40001
1.40001
1.40001
1.40001
1.40001
1.40001
1.40001
1.40001
1.40001
1.40001
1.40001
1.40001
1.40001
1.40001
1.40001
1.40001
1.40001
1.40001
1.40001
1.40001
1.40001
1.40001
1.40001
1.40001
1.40001
1.40001
1.40001
1.40001
1.40001
1.40001
1.40001
1.40001
1.40001
1.40001
1.40001
1.40001
1.40001
1.40001
1.40001
1.40001
1.40001
1.40001
1.40001
1.40001
1.40001
1.40001
1.40001
1.40001
1.40001
1.40001
1.40001
1.40001
1.40001
1.40002
1.40116
1.4341
1.65964
2.14478
3.04206
3.61101
3.56009
3.58754
3.60726
3.62079
3.65523
3.66541
3.66174
3.6314
3.5886
3.56952
3.56246
3.5627
3.56481
3.56464
3.55908
3.54633
3.54138
3.54247
3.55252
3.57964
3.61064
3.61884
3.61933
3.61338
3.60096
3.58389
3.56711
3.55237
3.5357
3.51855
3.503
3.48469
3.46008
3.43385
3.40892
3.39263
3.38749
3.39075
3.40085
3.3996
3.38799
3.36754
3.34271
3.31147
3.26831
3.22627
3.19807
3.18312
3.1776
3.1768
3.18478
3.19095
3.18714
3.17786
3.1585
3.13197
3.10655
3.08535
3.06696
3.04654
3.02242
3.01301
3.00852
2.99912
2.98585
2.97263
2.96031
2.9479
2.93418
2.91803
2.90051
2.88354
2.86661
2.85039
2.84272
2.84164
2.8509
2.86114
2.85719
2.8444
2.81784
2.77592
2.72572
2.69661
2.68073
2.66877
2.65787
2.64969
2.64668
2.64861
2.66306
2.68169
2.68411
2.67588
2.65646
2.63064
2.60658
2.58918
2.57487
2.55876
2.53742
2.51336
2.49797
2.49532
2.49808
2.51828
2.54353
2.54599
2.53881
2.52255
2.49229
2.4367
2.37928
2.35295
2.34233
2.34035
2.34192
2.35521
2.38885
2.43488
2.45766
2.45681
2.44891
2.42979
2.38156
2.2976
2.25271
2.2448
2.24432
2.25057
2.27822
2.32533
2.34795
2.34564
2.34071
2.33498
2.32347
2.30368
2.27785
2.24849
2.21849
2.18432
2.15225
2.13755
2.13424
2.13057
2.12693
2.12434
2.12506
1.40001
1.40001
1.40001
1.40001
1.40001
1.40001
1.40001
1.40001
1.40001
1.40001
1.40001
1.40001
1.40001
1.40001
1.40001
1.40001
1.40001
1.40001
1.40001
1.40001
1.40001
1.40001
1.40001
1.40001
1.40001
1.40001
1.40001
1.40001
1.40001
1.40001
1.40001
1.40001
1.40001
1.40001
1.40001
1.40001
1.40001
1.40001
1.40001
1.40001
1.40001
1.40001
1.40001
1.40001
1.40001
1.40001
1.40001
1.40001
1.40001
1.40001
1.40001
1.40001
1.40001
1.40001
1.40001
1.40001
1.40001
1.40001
1.40001
1.40001
1.40001
1.40001
1.40001
1.40001
1.40001
1.40001
1.40001
1.40001
1.40001
1.40001
1.40001
1.40001
1.40001
1.40001
1.40001
1.40001
1.40046
1.41056
1.49122
1.89366
2.83444
3.26252
3.47364
3.64852
3.71007
3.71818
3.70507
3.65738
3.61032
3.58675
3.58291
3.5925
3.60168
3.60235
3.59099
3.56229
3.54429
3.53823
3.54149
3.56051
3.59561
3.61165
3.61694
3.61719
3.61217
3.60289
3.59278
3.5833
3.5713
3.55334
3.53523
3.51548
3.49074
3.46354
3.4391
3.4261
3.42311
3.4298
3.43796
3.43191
3.41659
3.39447
3.36965
3.33792
3.29639
3.25736
3.22967
3.21684
3.21221
3.21339
3.22333
3.22901
3.22412
3.21112
3.18758
3.15974
3.13308
3.1108
3.0932
3.07792
3.06209
3.05283
3.04699
3.03341
3.01546
3.00105
2.98879
2.97636
2.96205
2.94426
2.92482
2.90656
2.89011
2.8777
2.87239
2.87252
2.88444
2.89526
2.89091
2.87676
2.84865
2.80314
2.74971
2.7196
2.70272
2.69066
2.6816
2.67579
2.6736
2.67702
2.69275
2.71047
2.71142
2.70212
2.68081
2.65307
2.62706
2.60799
2.59292
2.57836
2.56044
2.53886
2.52365
2.52094
2.52385
2.54359
2.56825
2.57087
2.56347
2.54602
2.5133
2.4533
2.39632
2.3721
2.36216
2.35986
2.36066
2.37373
2.40859
2.45315
2.47312
2.47184
2.46449
2.44802
2.40755
2.32762
2.27367
2.26176
2.26112
2.26608
2.29139
2.34016
2.37101
2.37094
2.36613
2.35924
2.34506
2.32327
2.29549
2.26747
2.24286
2.21396
2.17998
2.15926
2.15538
2.15214
2.14871
2.14648
2.14888
2.16354
1.40001
1.40001
1.40001
1.40001
1.40001
1.40001
1.40001
1.40001
1.40001
1.40001
1.40001
1.40001
1.40001
1.40001
1.40001
1.40001
1.40001
1.40001
1.40001
1.40001
1.40001
1.40001
1.40001
1.40001
1.40001
1.40001
1.40001
1.40001
1.40001
1.40001
1.40001
1.40001
1.40001
1.40001
1.40001
1.40001
1.40001
1.40001
1.40001
1.40001
1.40001
1.40001
1.40001
1.40001
1.40001
1.40001
1.40001
1.40001
1.40001
1.40001
1.40001
1.40001
1.40001
1.40001
1.40001
1.40001
1.40001
1.40001
1.40001
1.40001
1.40001
1.40001
1.40001
1.40001
1.40001
1.40001
1.40001
1.40001
1.40001
1.40001
1.40001
1.40001
1.40001
1.40001
1.40001
1.40001
1.40001
1.40006
1.40203
1.43669
1.75653
2.51096
3.03118
3.53205
3.74127
3.7339
3.67694
3.61912
3.59045
3.58804
3.60758
3.63067
3.63573
3.6256
3.58989
3.55739
3.54245
3.5416
3.55278
3.57921
3.59619
3.60388
3.60765
3.60918
3.60938
3.60618
3.60274
3.59758
3.58558
3.56855
3.54995
3.52585
3.49696
3.47251
3.46229
3.46064
3.46804
3.46974
3.45893
3.44031
3.41889
3.39494
3.36441
3.32641
3.28989
3.26278
3.25196
3.24819
3.25128
3.26036
3.26113
3.25437
3.23971
3.21611
3.18696
3.15877
3.13593
3.1196
3.10916
3.10129
3.09602
3.08882
3.06849
3.04441
3.02783
3.01521
3.00268
2.98803
2.96965
2.9494
2.93067
2.91595
2.90722
2.90343
2.90568
2.91966
2.92903
2.92363
2.90745
2.87711
2.82788
2.7736
2.74388
2.7272
2.71681
2.70966
2.70473
2.70288
2.70766
2.72316
2.73825
2.73848
2.72876
2.70634
2.67648
2.649
2.62871
2.6127
2.59859
2.58259
2.56334
2.54902
2.54638
2.54963
2.56901
2.59256
2.59511
2.58768
2.57
2.53585
2.47246
2.41561
2.39248
2.38365
2.38123
2.38171
2.39508
2.43073
2.47212
2.4872
2.48496
2.47821
2.46386
2.42993
2.357
2.29564
2.27861
2.27765
2.28167
2.30433
2.35271
2.39099
2.39428
2.38983
2.38196
2.36558
2.34216
2.31306
2.28697
2.26641
2.24275
2.21018
2.18245
2.17614
2.17323
2.17016
2.16854
2.17294
2.18964
2.20638
1.40001
1.40001
1.40001
1.40001
1.40001
1.40001
1.40001
1.40001
1.40001
1.40001
1.40001
1.40001
1.40001
1.40001
1.40001
1.40001
1.40001
1.40001
1.40001
1.40001
1.40001
1.40001
1.40001
1.40001
1.40001
1.40001
1.40001
1.40001
1.40001
1.40001
1.40001
1.40001
1.40001
1.40001
1.40001
1.40001
1.40001
1.40001
1.40001
1.40001
1.40001
1.40001
1.40001
1.40001
1.40001
1.40001
1.40001
1.40001
1.40001
1.40001
1.40001
1.40001
1.40001
1.40001
1.40001
1.40001
1.40001
1.40001
1.40001
1.40001
1.40001
1.40001
1.40001
1.40001
1.40001
1.40001
1.40001
1.40001
1.40001
1.40001
1.40001
1.40001
1.40001
1.40001
1.40001
1.40001
1.40001
1.40001
1.40001
1.40059
1.4223
1.63547
2.09064
2.84187
3.63563
3.64817
3.6061
3.60932
3.60403
3.61896
3.65483
3.67386
3.6679
3.62605
3.58232
3.55956
3.55444
3.55995
3.57928
3.59041
3.58873
3.58883
3.59088
3.59781
3.60647
3.61136
3.61127
3.60794
3.59679
3.58202
3.56263
3.53649
3.5119
3.50285
3.50161
3.50654
3.50152
3.48455
3.46228
3.44059
3.41726
3.39009
3.35775
3.32367
3.29639
3.2868
3.28425
3.28891
3.29487
3.29094
3.2818
3.26443
3.24146
3.21354
3.1852
3.16219
3.14887
3.14265
3.13932
3.13622
3.12572
3.09954
3.07218
3.0537
3.04064
3.02824
3.01381
2.99561
2.97462
2.95538
2.94364
2.93808
2.93594
2.94212
2.95708
2.96333
2.95633
2.93729
2.90356
2.84948
2.79617
2.76887
2.75351
2.7457
2.74019
2.7366
2.7362
2.74184
2.75387
2.76426
2.76407
2.75505
2.73292
2.70139
2.67211
2.65102
2.63472
2.62063
2.60516
2.58724
2.57428
2.57172
2.5751
2.59376
2.6157
2.61801
2.61061
2.59322
2.559
2.49431
2.43746
2.41471
2.40689
2.40437
2.4051
2.42003
2.45626
2.49194
2.50129
2.49816
2.49214
2.47927
2.45034
2.3851
2.31843
2.29606
2.29422
2.29748
2.31767
2.36424
2.40778
2.41496
2.41104
2.40231
2.38465
2.35964
2.3298
2.3058
2.28765
2.26828
2.24035
2.20887
2.19655
2.19393
2.19131
2.19029
2.19676
2.21534
2.22962
2.22854
1.40001
1.40001
1.40001
1.40001
1.40001
1.40001
1.40001
1.40001
1.40001
1.40001
1.40001
1.40001
1.40001
1.40001
1.40001
1.40001
1.40001
1.40001
1.40001
1.40001
1.40001
1.40001
1.40001
1.40001
1.40001
1.40001
1.40001
1.40001
1.40001
1.40001
1.40001
1.40001
1.40001
1.40001
1.40001
1.40001
1.40001
1.40001
1.40001
1.40001
1.40001
1.40001
1.40001
1.40001
1.40001
1.40001
1.40001
1.40001
1.40001
1.40001
1.40001
1.40001
1.40001
1.40001
1.40001
1.40001
1.40001
1.40001
1.40001
1.40001
1.40001
1.40001
1.40001
1.40001
1.40001
1.40001
1.40001
1.40001
1.40001
1.40001
1.40001
1.40001
1.40001
1.40001
1.40001
1.40001
1.40001
1.40001
1.40001
1.40001
1.40031
1.40936
1.47942
1.79494
2.76022
3.30776
3.466
3.61501
3.68595
3.69973
3.71548
3.69826
3.6536
3.61073
3.58163
3.57264
3.57873
3.59194
3.59805
3.58444
3.57144
3.56669
3.5732
3.58841
3.60504
3.61914
3.6216
3.61786
3.60781
3.59573
3.57683
3.55573
3.54656
3.54393
3.5442
3.53438
3.51216
3.48587
3.46168
3.43922
3.41636
3.39011
3.35868
3.33058
3.32114
3.31902
3.32417
3.32688
3.32064
3.30887
3.28879
3.26515
3.23935
3.21378
3.19222
3.18232
3.17923
3.17921
3.1747
3.15918
3.12926
3.09815
3.07773
3.06445
3.05243
3.03901
3.02207
3.00148
2.98242
2.973
2.96917
2.9698
2.98069
2.99547
2.9976
2.98859
2.96663
2.92923
2.86967
2.81752
2.79336
2.78122
2.77557
2.77175
2.77038
2.77332
2.78026
2.7867
2.78923
2.78696
2.77873
2.75811
2.72668
2.6967
2.67501
2.6587
2.64498
2.62985
2.61244
2.60067
2.59798
2.60073
2.6177
2.63729
2.63886
2.63185
2.61549
2.58228
2.51761
2.46066
2.43836
2.43158
2.42905
2.43064
2.44825
2.4844
2.51247
2.51642
2.51253
2.50697
2.49549
2.47076
2.41277
2.34345
2.31532
2.31149
2.31403
2.33179
2.37589
2.42235
2.43318
2.42983
2.42057
2.40236
2.37551
2.3454
2.32366
2.30713
2.29083
2.26796
2.23701
2.21723
2.21431
2.21195
2.21118
2.21955
2.24002
2.25199
2.24956
2.24513
1.40001
1.40001
1.40001
1.40001
1.40001
1.40001
1.40001
1.40001
1.40001
1.40001
1.40001
1.40001
1.40001
1.40001
1.40001
1.40001
1.40001
1.40001
1.40001
1.40001
1.40001
1.40001
1.40001
1.40001
1.40001
1.40001
1.40001
1.40001
1.40001
1.40001
1.40001
1.40001
1.40001
1.40001
1.40001
1.40001
1.40001
1.40001
1.40001
1.40001
1.40001
1.40001
1.40001
1.40001
1.40001
1.40001
1.40001
1.40001
1.40001
1.40001
1.40001
1.40001
1.40001
1.40001
1.40001
1.40001
1.40001
1.40001
1.40001
1.40001
1.40001
1.40001
1.40001
1.40001
1.40001
1.40001
1.40001
1.40001
1.40001
1.40001
1.40001
1.40001
1.40001
1.40001
1.40001
1.40001
1.40001
1.40001
1.40001
1.40001
1.40001
1.40006
1.40152
1.42648
1.68236
2.45157
3.00959
3.45295
3.72266
3.75344
3.71789
3.65355
3.61176
3.58374
3.58257
3.6011
3.60954
3.61206
3.59308
3.56382
3.54491
3.54621
3.5681
3.58492
3.6099
3.62957
3.63233
3.62629
3.61956
3.61081
3.59719
3.5897
3.58581
3.58006
3.56574
3.54179
3.51235
3.48573
3.46422
3.44456
3.42219
3.39338
3.36684
3.35656
3.35348
3.35564
3.35417
3.3461
3.3325
3.31296
3.29025
3.26574
3.24274
3.22607
3.21901
3.21832
3.21878
3.21223
3.19089
3.1566
3.12143
3.10001
3.08632
3.07481
3.06254
3.04773