/*--------------------------------*- C++ -*----------------------------------*\
  =========                 |
  \\      /  F ield         | OpenFOAM: The Open Source CFD Toolbox
   \\    /   O peration     | Website:  https://openfoam.org
    \\  /    A nd           | Version:  7
     \\/     M anipulation  |
\*---------------------------------------------------------------------------*/
FoamFile
{
    version     2.0;
    format      ascii;
    class       volVectorField;
    location    "0.4";
    object      U;
}
// * * * * * * * * * * * * * * * * * * * * * * * * * * * * * * * * * * * * * //

dimensions      [0 1 -1 0 0 0 0];

internalField   nonuniform List<vector> 
16192
(
(3 1.07859e-15 0)
(3 6.88908e-16 0)
(3 2.43118e-16 0)
(3 -4.70626e-16 0)
(3 5.97501e-16 0)
(3 1.40929e-15 0)
(3 1.31578e-15 0)
(3 1.02568e-15 0)
(3 8.84014e-16 0)
(3 1.04563e-15 0)
(3 1.18537e-15 0)
(3 8.20911e-16 0)
(3 7.57962e-16 0)
(3 6.87375e-16 0)
(3 9.49712e-16 0)
(3 9.74653e-16 0)
(3 1.05509e-15 0)
(3 1.55119e-15 0)
(3 1.91553e-15 0)
(3 1.89239e-15 0)
(3 1.03885e-15 0)
(3 -2.54954e-16 0)
(3 -7.66584e-16 0)
(3 -1.10564e-15 0)
(3 -7.98858e-16 0)
(3 -7.57892e-16 0)
(3 8.57471e-17 0)
(3 -4.88832e-16 0)
(3 -1.59788e-15 0)
(3 -1.98389e-15 0)
(3 -1.27117e-15 0)
(3 -6.6481e-16 0)
(3 -9.83112e-16 0)
(3 -1.40074e-15 0)
(3 -1.91628e-15 0)
(3 -1.77687e-15 0)
(3 -1.72424e-15 0)
(3 -1.72734e-15 0)
(3 -1.36369e-15 0)
(3 -6.78868e-16 0)
(3 7.70278e-16 0)
(3 2.81601e-15 0)
(3 3.9256e-15 0)
(3 4.02429e-15 0)
(3 2.62794e-15 0)
(3 1.75417e-15 0)
(3 1.89358e-15 0)
(3 1.46562e-15 0)
(3 1.44045e-15 0)
(3 1.92553e-15 0)
(3 1.3476e-15 0)
(3 1.0632e-15 0)
(3 9.68668e-16 0)
(3 7.88378e-16 0)
(3 6.69836e-16 0)
(3 2.90461e-16 0)
(3 -5.93287e-16 0)
(3 -1.11427e-15 0)
(3 -4.15403e-16 0)
(3 2.10861e-16 0)
(3 4.59901e-16 0)
(3 4.00749e-16 0)
(3 8.23207e-16 0)
(3 1.11531e-15 0)
(3 7.06803e-16 0)
(3 7.08566e-16 0)
(3 6.54301e-16 0)
(3 7.14805e-16 0)
(3 9.05034e-16 0)
(3 1.60169e-15 0)
(3 2.74663e-15 0)
(3 2.59888e-15 0)
(3 2.34505e-15 0)
(3 1.67468e-15 0)
(3 7.78186e-16 0)
(3 -7.25122e-16 0)
(3 -7.51855e-16 0)
(3 3.05951e-16 0)
(3 1.33296e-15 0)
(3 2.21809e-15 0)
(3 2.42838e-15 0)
(3 2.25955e-15 0)
(3 2.20892e-15 0)
(3 2.11146e-15 0)
(3 2.95632e-15 0)
(3 3.99686e-15 0)
(3 5.32857e-15 0)
(3 5.43576e-15 0)
(3 4.36568e-15 0)
(3 2.87893e-15 0)
(3 1.46367e-15 0)
(3 -2.51564e-16 0)
(3 -2.99196e-16 0)
(3 -1.24988e-15 0)
(3 -1.75147e-15 0)
(3 -1.97541e-15 0)
(3 -2.00028e-15 0)
(3 -1.84224e-15 0)
(3 -1.52763e-15 0)
(3 -1.37613e-15 0)
(3 -2.12616e-15 0)
(3 -2.52057e-15 0)
(3 -2.79233e-15 0)
(3 -2.99182e-15 0)
(3 -2.76388e-15 0)
(3 -2.47638e-15 0)
(3 -2.50634e-15 0)
(3 -3.22891e-15 0)
(3 -3.58637e-15 0)
(3 -3.65577e-15 0)
(3 -3.13716e-15 0)
(3 -2.73419e-15 0)
(3 -2.16902e-15 0)
(3 -1.3657e-15 0)
(3 -9.92263e-16 0)
(3 -6.08299e-16 0)
(3 -3.25017e-16 0)
(3 1.17696e-16 0)
(3 -4.09687e-18 0)
(3 -1.37104e-16 0)
(3 -4.47437e-16 0)
(3 -9.25721e-16 0)
(3 -1.85101e-15 0)
(3 -2.06204e-15 0)
(3 -2.29136e-15 0)
(3 -1.69553e-15 0)
(3 -1.18513e-15 0)
(3 -8.96673e-16 0)
(3 -1.46102e-15 0)
(3 -1.78435e-15 0)
(3 -1.68357e-15 0)
(3 -2.00705e-15 0)
(3 -1.51817e-15 0)
(3 -7.68057e-16 0)
(3 -6.45518e-16 0)
(3 9.12468e-16 0)
(3 1.83793e-15 0)
(3 1.08476e-15 0)
(3 6.27994e-16 0)
(3 4.89307e-16 0)
(3 4.01129e-16 0)
(3 2.39612e-16 0)
(3 -1.01199e-16 0)
(3 -4.10588e-16 0)
(3 8.2786e-16 0)
(3 1.64195e-15 0)
(3 1.0271e-15 0)
(3 -3.1566e-16 0)
(3 -2.58665e-17 0)
(3 6.92488e-16 0)
(3 1.02208e-15 0)
(3 9.73857e-16 0)
(3 8.24249e-16 0)
(3 4.49801e-16 0)
(3 3.7604e-16 0)
(3 -3.40928e-16 0)
(3 5.18833e-16 0)
(3 1.03678e-15 0)
(3 1.86227e-15 0)
(3 2.20652e-15 0)
(3 2.94775e-15 0)
(3 3.28693e-15 0)
(3 2.33852e-15 0)
(3 8.26188e-16 0)
(3 7.15133e-16 0)
(3 1.50661e-15 0)
(3 1.93728e-15 0)
(3 2.15607e-15 0)
(3 2.03302e-15 0)
(3 7.44398e-16 0)
(3 -7.02916e-16 0)
(3 -8.91581e-16 0)
(3 2.85098e-16 0)
(3 -2.64344e-16 0)
(3 -4.05923e-16 0)
(3 -4.53391e-16 0)
(3 -4.31122e-16 0)
(3 1.68724e-16 0)
(3 6.67529e-16 0)
(3 9.31626e-16 0)
(3 1.02547e-15 0)
(3 -2.02817e-16 0)
(3 -5.50255e-16 0)
(3 2.87925e-16 0)
(3 1.12877e-15 0)
(3 2.28221e-15 0)
(3 3.39297e-15 0)
(3 2.64128e-15 0)
(3 1.96608e-15 0)
(3 1.8328e-15 0)
(3 1.36549e-15 0)
(3 5.03872e-16 0)
(3 1.61373e-15 0)
(3 1.08234e-15 0)
(3 6.52107e-16 0)
(3 -1.66609e-16 0)
(3 -7.78242e-16 0)
(3 -5.09836e-16 0)
(3 -1.80485e-16 0)
(3 6.41787e-19 0)
(3 6.51626e-16 0)
(3 7.06947e-16 0)
(3 5.9475e-18 0)
(3 -1.24966e-16 0)
(3 -2.78412e-16 0)
(3 1.97163e-16 0)
(3 3.78401e-16 0)
(3 3.58756e-16 0)
(3 6.32055e-17 0)
(3 -7.20085e-16 0)
(3 -1.25285e-15 0)
(3 -1.60863e-15 0)
(3 -2.20289e-15 0)
(3 -1.94367e-15 0)
(3 -1.62428e-15 0)
(3 -1.83361e-15 0)
(3 -1.77697e-15 0)
(3 -1.30625e-15 0)
(3 -1.04357e-15 0)
(3 -6.20673e-16 0)
(3 -3.75159e-16 0)
(3 9.85686e-16 0)
(3 2.42896e-15 0)
(3 3.04277e-15 0)
(3 3.15014e-15 0)
(3 3.87583e-15 0)
(3 3.87725e-15 0)
(3 2.60222e-15 0)
(3 1.92502e-15 0)
(3 1.83942e-15 0)
(3 5.73822e-16 0)
(3 5.59567e-16 0)
(3 6.44217e-16 0)
(3 5.55459e-16 0)
(3 -5.71725e-16 0)
(3 -1.13093e-15 0)
(3 -2.63427e-15 0)
(3 -4.05726e-15 0)
(3 -5.48996e-15 0)
(3 -6.02079e-15 0)
(3 -5.42833e-15 0)
(3 -5.5307e-15 0)
(3 -5.21368e-15 0)
(3 -4.58697e-15 0)
(3 -4.31294e-15 0)
(3 -4.45936e-15 0)
(3 -4.39373e-15 0)
(3 -3.89009e-15 0)
(3 -4.06292e-15 0)
(3 -4.2077e-15 0)
(3 -4.6368e-15 0)
(3 -5.41994e-15 0)
(3 -4.87512e-15 0)
(3 2.31595e-16 0)
(3 5.99213e-16 0)
(3 1.96633e-16 0)
(3 3.19294e-16 0)
(3 3.16203e-16 0)
(3 -3.33008e-16 0)
(3 -2.40768e-16 0)
(3 2.48991e-16 0)
(3 3.92595e-16 0)
(3 -4.79598e-17 0)
(3 -3.61228e-16 0)
(3 -1.14054e-16 0)
(3 1.10605e-15 0)
(3 1.91469e-15 0)
(3 2.26605e-15 0)
(3 2.1933e-15 0)
(3 2.0302e-15 0)
(3 1.67996e-15 0)
(3 1.52331e-15 0)
(3 1.52915e-15 0)
(3 1.02745e-15 0)
(3 6.39554e-16 0)
(3 7.16008e-16 0)
(3 4.66073e-16 0)
(3 4.71144e-16 0)
(3 1.28514e-16 0)
(3 1.82261e-16 0)
(3 -7.54117e-16 0)
(3 -1.80319e-15 0)
(3 -2.47084e-15 0)
(3 -1.50507e-15 0)
(3 -1.56722e-15 0)
(3 -1.75317e-15 0)
(3 -2.20894e-15 0)
(3 -2.1355e-15 0)
(3 -2.46933e-15 0)
(3 -2.36195e-15 0)
(3 -1.76458e-15 0)
(3 -5.66448e-16 0)
(3 -4.56829e-16 0)
(3 -4.05774e-16 0)
(3 -3.13778e-17 0)
(3 1.27968e-15 0)
(3 1.74011e-15 0)
(3 1.32642e-15 0)
(3 6.35161e-16 0)
(3 2.13837e-15 0)
(3 2.40228e-15 0)
(3 3.147e-15 0)
(3 3.45106e-15 0)
(3 3.7404e-15 0)
(3 4.19e-15 0)
(3 3.40216e-15 0)
(3 1.48847e-15 0)
(3 6.47127e-16 0)
(3 6.08338e-16 0)
(3 4.91646e-16 0)
(3 1.77044e-17 0)
(3 -7.82825e-16 0)
(3 -1.06068e-15 0)
(3 -4.00137e-16 0)
(3 7.64378e-16 0)
(3 1.74531e-15 0)
(3 2.49484e-15 0)
(3 3.1482e-15 0)
(3 2.92354e-15 0)
(3 2.49568e-15 0)
(3 2.56392e-15 0)
(3 1.44728e-15 0)
(3 -3.49067e-16 0)
(3 1.02438e-15 0)
(3 1.65321e-15 0)
(3 2.50698e-15 0)
(3 1.33265e-15 0)
(3 -6.38705e-16 0)
(3 -1.00928e-15 0)
(3 -3.59261e-16 0)
(3 1.35469e-16 0)
(3 1.54405e-15 0)
(3 2.28835e-15 0)
(3 2.36928e-15 0)
(3 2.41632e-15 0)
(3 2.57867e-15 0)
(3 2.54811e-15 0)
(3 2.95884e-15 0)
(3 2.97059e-15 0)
(3 2.80854e-15 0)
(3 1.82124e-15 0)
(3 1.14801e-15 0)
(3 1.24082e-16 0)
(3 -9.24314e-16 0)
(3 -7.59325e-16 0)
(3 1.75157e-16 0)
(3 -7.38979e-16 0)
(3 -1.22726e-15 0)
(3 -1.17794e-15 0)
(3 -9.62435e-16 0)
(3 -6.35497e-16 0)
(3 -1.26107e-15 0)
(3 -2.08184e-15 0)
(3 -3.0989e-15 0)
(3 -2.79788e-15 0)
(3 -3.13028e-15 0)
(3 -2.98984e-15 0)
(3 -2.83329e-15 0)
(3 -2.3009e-15 0)
(3 -2.29348e-15 0)
(3 -2.76755e-15 0)
(3 -3.26563e-15 0)
(3 -3.53225e-15 0)
(3 -3.37982e-15 0)
(3 -3.15142e-15 0)
(3 -2.31111e-15 0)
(3 -1.65416e-15 0)
(3 -5.51578e-16 0)
(3 -9.40348e-17 0)
(3 -3.28806e-16 0)
(3 -1.46234e-15 0)
(3 -2.43252e-15 0)
(3 -2.64772e-15 0)
(3 -2.11163e-15 0)
(3 -2.00871e-15 0)
(3 -1.20527e-15 0)
(3 -1.15923e-15 0)
(3 -1.21493e-15 0)
(3 -1.50209e-15 0)
(3 -1.38554e-15 0)
(3 -1.15349e-15 0)
(3 -1.31694e-15 0)
(3 -1.81867e-15 0)
(3 -1.45193e-15 0)
(3 -9.14371e-16 0)
(3 4.81562e-16 0)
(3 6.9482e-16 0)
(3 1.02813e-15 0)
(3 1.24865e-15 0)
(3 2.09254e-15 0)
(3 1.8668e-15 0)
(3 3.12469e-16 0)
(3 1.99354e-16 0)
(3 -7.94504e-17 0)
(3 -4.19307e-16 0)
(3 -1.02635e-15 0)
(3 -2.05793e-15 0)
(3 -9.18104e-16 0)
(3 5.43887e-16 0)
(3 8.02051e-16 0)
(3 7.63902e-16 0)
(3 1.27917e-15 0)
(3 2.12855e-15 0)
(3 1.1931e-15 0)
(3 4.87476e-16 0)
(3 -4.68143e-16 0)
(3 2.68254e-16 0)
(3 3.51298e-16 0)
(3 2.70757e-16 0)
(3 8.85547e-16 0)
(3 1.90709e-15 0)
(3 1.97821e-15 0)
(3 2.17903e-15 0)
(3 2.60463e-15 0)
(3 3.26802e-15 0)
(3 3.36337e-15 0)
(3 3.56587e-15 0)
(3 3.06515e-15 0)
(3 2.70268e-15 0)
(3 2.39159e-15 0)
(3 2.16533e-15 0)
(3 1.08887e-15 0)
(3 -6.67171e-16 0)
(3 -1.2628e-15 0)
(3 -2.0338e-15 0)
(3 -2.88402e-16 0)
(3 7.39802e-16 0)
(3 3.14111e-16 0)
(3 -3.83434e-17 0)
(3 2.80438e-16 0)
(3 9.44548e-16 0)
(3 8.72336e-16 0)
(3 4.07542e-16 0)
(3 -6.38533e-16 0)
(3 -5.49794e-16 0)
(3 4.44968e-16 0)
(3 2.75618e-16 0)
(3 8.75052e-16 0)
(3 2.32149e-15 0)
(3 3.47915e-15 0)
(3 2.83846e-15 0)
(3 1.87934e-15 0)
(3 1.2594e-15 0)
(3 5.33727e-16 0)
(3 2.31866e-16 0)
(3 1.93471e-16 0)
(3 3.80806e-16 0)
(3 2.80624e-16 0)
(3 -2.10647e-16 0)
(3 -3.67917e-16 0)
(3 -5.08319e-16 0)
(3 -3.77938e-16 0)
(3 5.06055e-16 0)
(3 1.24648e-15 0)
(3 1.63149e-15 0)
(3 1.13129e-15 0)
(3 -2.76771e-16 0)
(3 -6.85421e-16 0)
(3 -7.5911e-16 0)
(3 -1.16203e-15 0)
(3 -9.42488e-16 0)
(3 -9.9692e-16 0)
(3 -1.28076e-15 0)
(3 -2.38207e-15 0)
(3 -2.8423e-15 0)
(3 -2.85479e-15 0)
(3 -2.71163e-15 0)
(3 -2.09754e-15 0)
(3 -1.84544e-15 0)
(3 -1.2177e-15 0)
(3 -6.00524e-16 0)
(3 -4.1471e-16 0)
(3 -2.81143e-16 0)
(3 1.63026e-15 0)
(3 2.05473e-15 0)
(3 2.39529e-15 0)
(3 2.52418e-15 0)
(3 2.57739e-15 0)
(3 1.84924e-15 0)
(3 1.85573e-15 0)
(3 1.9664e-15 0)
(3 1.97616e-15 0)
(3 2.01723e-15 0)
(3 6.58847e-16 0)
(3 -3.33558e-16 0)
(3 -1.3524e-15 0)
(3 -1.70098e-15 0)
(3 -2.0584e-15 0)
(3 -2.49161e-15 0)
(3 -2.66219e-15 0)
(3 -3.51219e-15 0)
(3 -4.73558e-15 0)
(3 -4.99518e-15 0)
(3 -4.56319e-15 0)
(3 -4.35883e-15 0)
(3 -4.61055e-15 0)
(3 -4.67834e-15 0)
(3 -4.33543e-15 0)
(3 -4.96269e-15 0)
(3 -5.0958e-15 0)
(3 -4.71125e-15 0)
(3 -4.21673e-15 0)
(3 -4.15169e-15 0)
(3 -4.54705e-15 0)
(3 -5.41838e-15 0)
(3 -3.89971e-15 0)
(3 4.82032e-16 0)
(3 1.36904e-15 0)
(3 2.23894e-15 0)
(3 1.8368e-15 0)
(3 -4.23816e-16 0)
(3 -1.55667e-15 0)
(3 -1.41141e-15 0)
(3 -1.18735e-15 0)
(3 -1.10654e-15 0)
(3 -1.13732e-15 0)
(3 -9.93962e-16 0)
(3 -3.7442e-16 0)
(3 6.51897e-16 0)
(3 2.46261e-15 0)
(3 3.15502e-15 0)
(3 3.46348e-15 0)
(3 3.43277e-15 0)
(3 2.84088e-15 0)
(3 1.94337e-15 0)
(3 1.96344e-15 0)
(3 1.27767e-15 0)
(3 1.03173e-15 0)
(3 7.02287e-16 0)
(3 2.9572e-16 0)
(3 3.38723e-16 0)
(3 -8.9136e-17 0)
(3 -1.20456e-15 0)
(3 -1.4565e-15 0)
(3 -1.95644e-15 0)
(3 -1.29646e-15 0)
(3 -6.19244e-16 0)
(3 -8.49809e-16 0)
(3 -1.56266e-15 0)
(3 -1.77891e-15 0)
(3 -1.65603e-15 0)
(3 -2.2699e-15 0)
(3 -2.90728e-15 0)
(3 -3.0563e-15 0)
(3 -2.487e-15 0)
(3 -2.1898e-15 0)
(3 -2.69192e-15 0)
(3 -1.95506e-15 0)
(3 -7.74676e-16 0)
(3 7.44632e-16 0)
(3 1.77885e-15 0)
(3 1.93219e-15 0)
(3 2.09197e-15 0)
(3 3.38013e-15 0)
(3 3.69158e-15 0)
(3 3.67445e-15 0)
(3 3.65599e-15 0)
(3 3.11621e-15 0)
(3 2.28528e-15 0)
(3 2.20651e-15 0)
(3 1.90047e-15 0)
(3 2.38818e-15 0)
(3 2.29812e-15 0)
(3 1.57226e-15 0)
(3 4.22481e-16 0)
(3 -5.56588e-16 0)
(3 -1.07683e-15 0)
(3 7.64846e-16 0)
(3 1.3426e-15 0)
(3 2.12661e-15 0)
(3 2.70224e-15 0)
(3 3.72812e-15 0)
(3 3.49624e-15 0)
(3 1.46928e-15 0)
(3 -9.86169e-16 0)
(3 -8.70311e-16 0)
(3 -9.09791e-16 0)
(3 7.45799e-16 0)
(3 1.36779e-15 0)
(3 1.36098e-15 0)
(3 1.52359e-15 0)
(3 1.15766e-15 0)
(3 -7.05139e-16 0)
(3 1.18435e-17 0)
(3 8.47452e-16 0)
(3 2.18266e-15 0)
(3 2.17677e-15 0)
(3 2.02384e-15 0)
(3 2.19978e-15 0)
(3 3.16793e-15 0)
(3 3.8445e-15 0)
(3 3.63796e-15 0)
(3 2.62841e-15 0)
(3 6.49278e-16 0)
(3 3.73477e-16 0)
(3 -1.4952e-16 0)
(3 -5.81783e-16 0)
(3 -1.05807e-15 0)
(3 -1.18336e-15 0)
(3 -1.27334e-15 0)
(3 -3.30753e-16 0)
(3 2.60335e-16 0)
(3 1.36112e-16 0)
(3 -7.51283e-16 0)
(3 -1.5721e-15 0)
(3 -1.75126e-15 0)
(3 -2.01646e-15 0)
(3 -2.48277e-15 0)
(3 -2.87125e-15 0)
(3 -3.32723e-15 0)
(3 -3.87405e-15 0)
(3 -3.71211e-15 0)
(3 -3.04999e-15 0)
(3 -2.31245e-15 0)
(3 -1.93811e-15 0)
(3 -1.71241e-15 0)
(3 -1.65167e-15 0)
(3 -2.16649e-15 0)
(3 -2.12049e-15 0)
(3 -2.10925e-15 0)
(3 -1.21587e-15 0)
(3 -9.44754e-16 0)
(3 -9.6219e-16 0)
(3 -1.88412e-15 0)
(3 -2.59866e-15 0)
(3 -2.38957e-15 0)
(3 -1.46082e-15 0)
(3 -7.70545e-16 0)
(3 -4.84595e-16 0)
(3 -1.14767e-15 0)
(3 -1.48523e-15 0)
(3 -2.09689e-15 0)
(3 -2.37577e-15 0)
(3 -1.82929e-15 0)
(3 -7.97746e-16 0)
(3 -1.12486e-15 0)
(3 -1.92465e-15 0)
(3 4.29374e-16 0)
(3 2.13842e-16 0)
(3 -3.35942e-16 0)
(3 -1.16898e-16 0)
(3 5.4491e-16 0)
(3 7.56169e-16 0)
(3 1.50643e-15 0)
(3 1.78295e-15 0)
(3 2.15524e-15 0)
(3 1.88892e-15 0)
(3 1.27143e-15 0)
(3 -4.91388e-16 0)
(3 -2.02569e-15 0)
(3 -2.53876e-15 0)
(3 2.31622e-16 0)
(3 1.89791e-15 0)
(3 2.98167e-15 0)
(3 1.98992e-15 0)
(3 1.11297e-15 0)
(3 9.84898e-16 0)
(3 1.03262e-15 0)
(3 8.85566e-16 0)
(3 1.10933e-15 0)
(3 1.83434e-15 0)
(3 2.26472e-15 0)
(3 2.39877e-15 0)
(3 2.19478e-15 0)
(3 2.25827e-15 0)
(3 2.52446e-15 0)
(3 2.98659e-15 0)
(3 3.21252e-15 0)
(3 2.68481e-15 0)
(3 2.30921e-15 0)
(3 2.22553e-15 0)
(3 1.30904e-15 0)
(3 1.20306e-15 0)
(3 8.38329e-16 0)
(3 6.41921e-16 0)
(3 6.05904e-16 0)
(3 4.85074e-16 0)
(3 7.96622e-16 0)
(3 1.08743e-15 0)
(3 1.58375e-15 0)
(3 9.57656e-16 0)
(3 5.21083e-16 0)
(3 -3.2421e-16 0)
(3 -2.86388e-16 0)
(3 -2.44243e-16 0)
(3 -2.88026e-16 0)
(3 -4.34666e-16 0)
(3 -1.08312e-16 0)
(3 1.88829e-16 0)
(3 3.14533e-16 0)
(3 2.20745e-15 0)
(3 1.87517e-15 0)
(3 1.06552e-15 0)
(3 1.0815e-17 0)
(3 -2.58485e-16 0)
(3 -8.2216e-16 0)
(3 -8.6242e-16 0)
(3 -7.85865e-16 0)
(3 -1.71238e-15 0)
(3 -2.13777e-15 0)
(3 -1.7288e-15 0)
(3 -7.03405e-16 0)
(3 9.04064e-16 0)
(3 6.56712e-16 0)
(3 1.4933e-16 0)
(3 1.94444e-16 0)
(3 2.10633e-16 0)
(3 2.35408e-16 0)
(3 -8.6169e-17 0)
(3 -3.71374e-16 0)
(3 -3.32158e-16 0)
(3 -7.52581e-16 0)
(3 -1.7875e-15 0)
(3 -2.44191e-15 0)
(3 -2.77275e-15 0)
(3 -2.83849e-15 0)
(3 -3.4771e-15 0)
(3 -3.54039e-15 0)
(3 -3.3076e-15 0)
(3 -2.9258e-15 0)
(3 -2.24426e-15 0)
(3 -1.24951e-15 0)
(3 -4.77725e-16 0)
(3 -1.56527e-16 0)
(3 2.58851e-19 0)
(3 6.84942e-17 0)
(3 1.49995e-15 0)
(3 2.22425e-15 0)
(3 2.23822e-15 0)
(3 1.86163e-15 0)
(3 9.44229e-16 0)
(3 6.02662e-16 0)
(3 1.25487e-16 0)
(3 1.5861e-15 0)
(3 2.27628e-15 0)
(3 2.06851e-15 0)
(3 1.81179e-15 0)
(3 1.27118e-16 0)
(3 -9.75541e-16 0)
(3 -2.303e-15 0)
(3 -3.05371e-15 0)
(3 -3.41922e-15 0)
(3 -4.0089e-15 0)
(3 -4.57542e-15 0)
(3 -4.5872e-15 0)
(3 -4.68023e-15 0)
(3 -4.60205e-15 0)
(3 -4.11759e-15 0)
(3 -3.98387e-15 0)
(3 -4.61071e-15 0)
(3 -4.89711e-15 0)
(3 -4.63203e-15 0)
(3 -3.98657e-15 0)
(3 -2.53501e-15 0)
(3 -2.35295e-15 0)
(3 -2.58232e-15 0)
(3 -3.11944e-15 0)
(3 -3.65016e-15 0)
(3 -3.69833e-15 0)
(3 1.10512e-15 0)
(3 1.89725e-15 0)
(3 2.27409e-15 0)
(3 2.94428e-16 0)
(3 -4.31864e-16 0)
(3 -1.16063e-15 0)
(3 -1.62976e-15 0)
(3 -1.95252e-15 0)
(3 -2.37875e-15 0)
(3 -2.4215e-15 0)
(3 -1.8435e-15 0)
(3 -4.71607e-16 0)
(3 4.42771e-16 0)
(3 1.66526e-15 0)
(3 2.53875e-15 0)
(3 3.48629e-15 0)
(3 4.52391e-15 0)
(3 4.281e-15 0)
(3 3.46158e-15 0)
(3 2.329e-15 0)
(3 1.53828e-15 0)
(3 4.40814e-16 0)
(3 6.67581e-16 0)
(3 2.61772e-17 0)
(3 -5.90795e-17 0)
(3 -9.31393e-16 0)
(3 -2.86878e-15 0)
(3 -2.88389e-15 0)
(3 -1.45253e-15 0)
(3 -3.76161e-16 0)
(3 -6.19628e-16 0)
(3 -1.49679e-15 0)
(3 -2.69441e-15 0)
(3 -2.45747e-15 0)
(3 -2.71111e-15 0)
(3 -2.66521e-15 0)
(3 -2.54446e-15 0)
(3 -3.31842e-15 0)
(3 -3.07008e-15 0)
(3 -2.79771e-15 0)
(3 -2.31367e-15 0)
(3 -1.22516e-15 0)
(3 3.38578e-16 0)
(3 1.35544e-15 0)
(3 2.67478e-15 0)
(3 2.50855e-15 0)
(3 2.48617e-15 0)
(3 4.11491e-15 0)
(3 4.32632e-15 0)
(3 4.18014e-15 0)
(3 3.73912e-15 0)
(3 3.37503e-15 0)
(3 3.17594e-15 0)
(3 2.66235e-15 0)
(3 2.83328e-15 0)
(3 2.82421e-15 0)
(3 3.22802e-15 0)
(3 2.89236e-15 0)
(3 1.61936e-15 0)
(3 2.85181e-16 0)
(3 -2.18712e-17 0)
(3 5.55281e-17 0)
(3 1.13065e-15 0)
(3 2.2952e-15 0)
(3 2.03804e-15 0)
(3 2.32031e-15 0)
(3 2.19546e-15 0)
(3 1.49107e-15 0)
(3 1.57092e-15 0)
(3 1.28076e-15 0)
(3 -3.22723e-17 0)
(3 1.45586e-16 0)
(3 5.12046e-16 0)
(3 1.43937e-15 0)
(3 2.66311e-15 0)
(3 2.67314e-15 0)
(3 1.28953e-16 0)
(3 -8.46998e-16 0)
(3 1.15863e-16 0)
(3 1.06635e-15 0)
(3 2.27056e-15 0)
(3 2.9447e-15 0)
(3 2.73465e-15 0)
(3 2.50001e-15 0)
(3 1.52978e-15 0)
(3 1.41176e-15 0)
(3 1.26516e-15 0)
(3 1.15068e-15 0)
(3 1.52162e-15 0)
(3 1.08639e-15 0)
(3 9.43208e-16 0)
(3 3.19936e-16 0)
(3 -1.99752e-16 0)
(3 -1.17891e-16 0)
(3 -6.91793e-16 0)
(3 -1.08615e-15 0)
(3 -1.16525e-15 0)
(3 -1.29881e-15 0)
(3 -1.47137e-15 0)
(3 -1.79169e-15 0)
(3 -1.44723e-15 0)
(3 -1.84608e-15 0)
(3 -2.28965e-15 0)
(3 -3.39812e-15 0)
(3 -3.91818e-15 0)
(3 -3.45706e-15 0)
(3 -2.38576e-15 0)
(3 -1.75732e-15 0)
(3 -1.52358e-15 0)
(3 -1.36129e-15 0)
(3 -9.09147e-16 0)
(3 -3.71363e-16 0)
(3 -6.33847e-16 0)
(3 -3.03555e-16 0)
(3 -6.90305e-16 0)
(3 -2.93161e-16 0)
(3 1.19242e-16 0)
(3 -4.55201e-16 0)
(3 -1.23135e-16 0)
(3 7.62511e-16 0)
(3 8.37486e-16 0)
(3 4.46774e-16 0)
(3 -1.64441e-16 0)
(3 -2.13713e-15 0)
(3 -2.41032e-15 0)
(3 -2.30673e-15 0)
(3 -2.41066e-15 0)
(3 -2.7258e-15 0)
(3 -2.15646e-15 0)
(3 -1.22201e-15 0)
(3 -4.24394e-16 0)
(3 3.72712e-16 0)
(3 2.90859e-16 0)
(3 9.07592e-16 0)
(3 1.57288e-15 0)
(3 1.49612e-15 0)
(3 1.21446e-16 0)
(3 6.39628e-16 0)
(3 4.03278e-15 0)
(3 5.24913e-15 0)
(3 4.21223e-15 0)
(3 1.98821e-15 0)
(3 -5.21275e-16 0)
(3 -1.52366e-15 0)
(3 -1.09405e-15 0)
(3 3.63513e-17 0)
(3 1.35703e-15 0)
(3 2.23546e-15 0)
(3 1.86321e-15 0)
(3 1.35594e-15 0)
(3 1.56137e-15 0)
(3 6.33106e-16 0)
(3 1.26861e-15 0)
(3 1.65722e-15 0)
(3 1.98221e-15 0)
(3 3.04408e-15 0)
(3 4.12711e-15 0)
(3 4.03289e-15 0)
(3 3.37516e-15 0)
(3 2.99001e-15 0)
(3 2.13125e-15 0)
(3 1.34558e-15 0)
(3 1.52192e-15 0)
(3 1.60498e-15 0)
(3 1.89059e-15 0)
(3 1.67975e-15 0)
(3 1.67529e-15 0)
(3 1.67916e-15 0)
(3 1.76019e-15 0)
(3 1.87901e-15 0)
(3 1.63781e-15 0)
(3 1.20613e-15 0)
(3 7.36065e-16 0)
(3 6.7701e-16 0)
(3 7.44596e-16 0)
(3 6.99476e-16 0)
(3 -2.79488e-17 0)
(3 -6.63453e-16 0)
(3 -1.80721e-16 0)
(3 -5.69079e-17 0)
(3 -2.31791e-16 0)
(3 -3.15867e-16 0)
(3 -2.89888e-16 0)
(3 5.06906e-16 0)
(3 1.92566e-15 0)
(3 1.7432e-15 0)
(3 6.47061e-16 0)
(3 -5.18415e-17 0)
(3 -7.33903e-16 0)
(3 -7.72237e-17 0)
(3 6.92847e-17 0)
(3 -1.30984e-15 0)
(3 -2.36523e-15 0)
(3 -2.70211e-15 0)
(3 -2.36925e-15 0)
(3 -1.33152e-15 0)
(3 1.60474e-16 0)
(3 5.49587e-16 0)
(3 1.12884e-16 0)
(3 -9.90061e-16 0)
(3 -9.82267e-16 0)
(3 -9.94054e-16 0)
(3 -1.07668e-15 0)
(3 -1.06567e-15 0)
(3 -1.70768e-15 0)
(3 -2.28836e-15 0)
(3 -3.17326e-15 0)
(3 -3.23996e-15 0)
(3 -3.04449e-15 0)
(3 -2.76481e-15 0)
(3 -2.50116e-15 0)
(3 -3.02473e-15 0)
(3 -4.03164e-15 0)
(3 -2.64195e-15 0)
(3 -7.49055e-16 0)
(3 -5.64458e-16 0)
(3 -5.45316e-16 0)
(3 -1.50711e-16 0)
(3 1.63962e-16 0)
(3 5.64823e-16 0)
(3 1.26038e-15 0)
(3 2.71703e-15 0)
(3 2.27979e-15 0)
(3 5.7191e-16 0)
(3 -8.60105e-16 0)
(3 -7.31464e-16 0)
(3 3.32319e-17 0)
(3 6.49533e-16 0)
(3 1.2599e-15 0)
(3 7.83845e-16 0)
(3 2.38292e-16 0)
(3 5.23704e-16 0)
(3 -5.5886e-16 0)
(3 -1.20878e-15 0)
(3 -2.29944e-15 0)
(3 -4.0855e-15 0)
(3 -5.14394e-15 0)
(3 -5.40583e-15 0)
(3 -5.4979e-15 0)
(3 -5.56981e-15 0)
(3 -5.3181e-15 0)
(3 -4.99535e-15 0)
(3 -4.12286e-15 0)
(3 -3.1873e-15 0)
(3 -3.52688e-15 0)
(3 -3.71973e-15 0)
(3 -2.03662e-15 0)
(3 -1.2083e-15 0)
(3 -1.60541e-15 0)
(3 -1.90908e-15 0)
(3 -2.16196e-15 0)
(3 -2.70037e-15 0)
(3 -2.90513e-15 0)
(3 9.28165e-16 0)
(3 1.59381e-15 0)
(3 1.15758e-15 0)
(3 5.40969e-16 0)
(3 9.9617e-16 0)
(3 1.58986e-15 0)
(3 1.62717e-15 0)
(3 1.0297e-15 0)
(3 -5.55419e-16 0)
(3 -1.66991e-15 0)
(3 -1.60283e-15 0)
(3 1.59574e-16 0)
(3 8.1482e-16 0)
(3 1.06182e-15 0)
(3 1.84273e-15 0)
(3 2.75122e-15 0)
(3 2.54204e-15 0)
(3 2.91723e-15 0)
(3 3.09708e-15 0)
(3 2.34882e-15 0)
(3 2.01388e-15 0)
(3 1.83532e-15 0)
(3 1.56835e-15 0)
(3 1.37994e-15 0)
(3 4.05166e-16 0)
(3 -8.80884e-16 0)
(3 -2.01808e-15 0)
(3 -1.64418e-15 0)
(3 -7.73201e-16 0)
(3 -9.59016e-16 0)
(3 -2.22517e-15 0)
(3 -3.5935e-15 0)
(3 -4.31261e-15 0)
(3 -4.31116e-15 0)
(3 -4.47569e-15 0)
(3 -4.25226e-15 0)
(3 -3.16298e-15 0)
(3 -2.8897e-15 0)
(3 -2.82603e-15 0)
(3 -3.04222e-15 0)
(3 -3.15575e-15 0)
(3 -1.99468e-15 0)
(3 -3.12013e-16 0)
(3 1.17341e-15 0)
(3 2.24462e-15 0)
(3 1.97935e-15 0)
(3 2.34074e-15 0)
(3 2.80737e-15 0)
(3 3.02147e-15 0)
(3 4.29871e-15 0)
(3 4.16455e-15 0)
(3 4.14246e-15 0)
(3 4.43254e-15 0)
(3 3.84699e-15 0)
(3 2.96844e-15 0)
(3 2.76908e-15 0)
(3 3.02103e-15 0)
(3 3.589e-15 0)
(3 3.04587e-15 0)
(3 2.74349e-15 0)
(3 3.4233e-15 0)
(3 3.60941e-15 0)
(3 3.08882e-15 0)
(3 3.7727e-15 0)
(3 1.85462e-15 0)
(3 2.32915e-16 0)
(3 2.54557e-16 0)
(3 1.31703e-15 0)
(3 1.96825e-15 0)
(3 1.8635e-15 0)
(3 4.74293e-16 0)
(3 -1.07749e-15 0)
(3 -5.18228e-16 0)
(3 1.90697e-16 0)
(3 1.11533e-15 0)
(3 1.57141e-15 0)
(3 1.14274e-15 0)
(3 8.80177e-16 0)
(3 1.26348e-15 0)
(3 1.59508e-15 0)
(3 2.44315e-15 0)
(3 4.04006e-15 0)
(3 3.64497e-15 0)
(3 1.90608e-15 0)
(3 3.65473e-16 0)
(3 4.97609e-16 0)
(3 3.50909e-16 0)
(3 5.46135e-16 0)
(3 3.28824e-16 0)
(3 2.43593e-16 0)
(3 1.14124e-16 0)
(3 9.44332e-16 0)
(3 1.36845e-15 0)
(3 1.51854e-15 0)
(3 9.48996e-16 0)
(3 -3.45262e-16 0)
(3 -1.03966e-15 0)
(3 -5.03921e-16 0)
(3 -3.19094e-16 0)
(3 -2.59378e-16 0)
(3 2.21666e-16 0)
(3 1.92041e-16 0)
(3 -7.39797e-16 0)
(3 -1.86737e-15 0)
(3 -2.09507e-15 0)
(3 -5.69568e-16 0)
(3 -3.783e-16 0)
(3 -8.14753e-16 0)
(3 5.91464e-16 0)
(3 9.94033e-16 0)
(3 1.2384e-15 0)
(3 1.80987e-15 0)
(3 1.5647e-15 0)
(3 1.02139e-15 0)
(3 2.12519e-16 0)
(3 1.19053e-16 0)
(3 2.19174e-16 0)
(3 9.12992e-16 0)
(3 8.85271e-16 0)
(3 3.27329e-16 0)
(3 -4.38743e-16 0)
(3 -1.06462e-15 0)
(3 -1.3708e-15 0)
(3 -1.44152e-15 0)
(3 -1.46199e-15 0)
(3 -1.69906e-15 0)
(3 -1.56717e-15 0)
(3 -1.64197e-15 0)
(3 -7.70052e-16 0)
(3 1.53074e-15 0)
(3 1.80981e-15 0)
(3 -7.83765e-18 0)
(3 1.64058e-16 0)
(3 8.65015e-16 0)
(3 1.31802e-15 0)
(3 1.99708e-15 0)
(3 6.69298e-16 0)
(3 6.25376e-16 0)
(3 1.02592e-15 0)
(3 1.17307e-15 0)
(3 1.0652e-15 0)
(3 7.83193e-16 0)
(3 4.36298e-16 0)
(3 -2.86681e-16 0)
(3 -5.30089e-16 0)
(3 -6.53605e-16 0)
(3 -3.93672e-16 0)
(3 1.4094e-15 0)
(3 1.80627e-15 0)
(3 1.92546e-15 0)
(3 1.04861e-15 0)
(3 8.45246e-16 0)
(3 2.04586e-15 0)
(3 2.02805e-15 0)
(3 2.08528e-15 0)
(3 2.39184e-15 0)
(3 2.31366e-15 0)
(3 2.61426e-15 0)
(3 1.60231e-15 0)
(3 8.71893e-16 0)
(3 8.91876e-16 0)
(3 5.74922e-16 0)
(3 4.74544e-16 0)
(3 -7.24652e-17 0)
(3 -1.62542e-16 0)
(3 -4.89662e-17 0)
(3 3.61636e-17 0)
(3 9.55645e-16 0)
(3 1.18707e-15 0)
(3 1.46313e-15 0)
(3 1.87081e-15 0)
(3 4.0631e-17 0)
(3 -1.27542e-15 0)
(3 -1.44078e-15 0)
(3 -6.40826e-16 0)
(3 8.22154e-16 0)
(3 1.7875e-15 0)
(3 2.44784e-15 0)
(3 2.10671e-15 0)
(3 1.3588e-15 0)
(3 1.41688e-15 0)
(3 1.20144e-15 0)
(3 7.89959e-16 0)
(3 8.06349e-16 0)
(3 1.5577e-15 0)
(3 2.2485e-15 0)
(3 4.38774e-16 0)
(3 1.73246e-16 0)
(3 1.57917e-16 0)
(3 4.26941e-16 0)
(3 2.8062e-16 0)
(3 1.22957e-16 0)
(3 1.02892e-16 0)
(3 4.12033e-17 0)
(3 -4.18921e-16 0)
(3 -7.66084e-16 0)
(3 -9.22493e-16 0)
(3 -7.25745e-16 0)
(3 -6.49304e-16 0)
(3 -3.08608e-16 0)
(3 -6.63803e-16 0)
(3 -1.09717e-15 0)
(3 -1.59456e-15 0)
(3 -2.24105e-15 0)
(3 -2.91828e-15 0)
(3 -2.27036e-15 0)
(3 -2.19873e-15 0)
(3 -1.92049e-15 0)
(3 -1.51461e-15 0)
(3 -1.58273e-15 0)
(3 -1.67691e-15 0)
(3 -2.69752e-15 0)
(3 -2.06938e-15 0)
(3 -2.66141e-16 0)
(3 -2.46601e-16 0)
(3 -3.82818e-16 0)
(3 -1.9548e-16 0)
(3 -1.37153e-16 0)
(3 4.47248e-16 0)
(3 1.22639e-15 0)
(3 1.98654e-15 0)
(3 2.68897e-15 0)
(3 3.93763e-15 0)
(3 1.76338e-15 0)
(3 -2.88824e-16 0)
(3 -2.03682e-15 0)
(3 -1.98187e-15 0)
(3 -2.01675e-15 0)
(3 -1.23452e-15 0)
(3 -1.93197e-16 0)
(3 9.94478e-16 0)
(3 9.4326e-16 0)
(3 7.23095e-16 0)
(3 -1.68594e-17 0)
(3 -1.68704e-15 0)
(3 -2.95013e-15 0)
(3 -3.37921e-15 0)
(3 -4.26668e-15 0)
(3 -5.73983e-15 0)
(3 -5.8287e-15 0)
(3 -5.2274e-15 0)
(3 -4.44875e-15 0)
(3 -3.86552e-15 0)
(3 -3.83605e-15 0)
(3 -3.77369e-15 0)
(3 -3.9014e-15 0)
(3 -3.76996e-15 0)
(3 -3.62594e-15 0)
(3 -3.48323e-15 0)
(3 -2.88319e-15 0)
(3 -2.60325e-15 0)
(3 -3.09534e-15 0)
(3 -3.33078e-15 0)
(3 1.57184e-15 0)
(3 1.93236e-15 0)
(3 1.20787e-15 0)
(3 1.34572e-15 0)
(3 1.25366e-15 0)
(3 1.27497e-15 0)
(3 8.64329e-16 0)
(3 1.21165e-15 0)
(3 9.90818e-16 0)
(3 1.52863e-15 0)
(3 2.45934e-15 0)
(3 1.73749e-15 0)
(3 1.75678e-15 0)
(3 2.26323e-15 0)
(3 2.85707e-15 0)
(3 2.99783e-15 0)
(3 2.73598e-15 0)
(3 3.07922e-15 0)
(3 3.80053e-15 0)
(3 4.31718e-15 0)
(3 3.91481e-15 0)
(3 3.78284e-15 0)
(3 2.5625e-15 0)
(3 1.65544e-15 0)
(3 5.07505e-16 0)
(3 -3.36001e-17 0)
(3 -4.64139e-16 0)
(3 -9.04717e-16 0)
(3 -1.76599e-15 0)
(3 -1.94237e-15 0)
(3 -3.18637e-15 0)
(3 -3.93695e-15 0)
(3 -4.38593e-15 0)
(3 -5.34161e-15 0)
(3 -5.29492e-15 0)
(3 -4.68528e-15 0)
(3 -4.23939e-15 0)
(3 -3.30726e-15 0)
(3 -3.00978e-15 0)
(3 -3.49993e-15 0)
(3 -3.6422e-15 0)
(3 -3.39848e-15 0)
(3 -2.32666e-15 0)
(3 -1.35619e-15 0)
(3 5.25831e-16 0)
(3 1.55502e-15 0)
(3 2.39164e-15 0)
(3 1.89369e-15 0)
(3 1.77575e-15 0)
(3 2.69833e-15 0)
(3 3.04062e-15 0)
(3 3.0731e-15 0)
(3 4.05365e-15 0)
(3 4.99803e-15 0)
(3 5.00103e-15 0)
(3 4.21113e-15 0)
(3 2.77937e-15 0)
(3 3.20067e-15 0)
(3 3.71596e-15 0)
(3 4.63848e-15 0)
(3 4.57123e-15 0)
(3 4.44782e-15 0)
(3 3.47862e-15 0)
(3 1.4799e-15 0)
(3 2.4726e-16 0)
(3 -9.23864e-17 0)
(3 -1.5129e-16 0)
(3 -3.21903e-16 0)
(3 -7.76434e-17 0)
(3 3.00074e-16 0)
(3 4.06668e-16 0)
(3 3.02942e-16 0)
(3 4.4017e-16 0)
(3 8.75036e-16 0)
(3 1.49298e-15 0)
(3 1.86105e-15 0)
(3 2.90702e-15 0)
(3 3.32834e-15 0)
(3 3.07038e-15 0)
(3 3.49589e-15 0)
(3 3.50941e-15 0)
(3 2.75139e-15 0)
(3 3.29955e-15 0)
(3 2.94428e-15 0)
(3 2.96797e-15 0)
(3 2.7412e-15 0)
(3 1.72217e-15 0)
(3 1.29494e-15 0)
(3 6.11444e-16 0)
(3 1.12337e-15 0)
(3 1.00597e-15 0)
(3 1.14497e-15 0)
(3 9.3524e-16 0)
(3 8.60014e-16 0)
(3 9.91889e-16 0)
(3 5.36316e-16 0)
(3 -3.95998e-16 0)
(3 -8.60345e-16 0)
(3 -7.33445e-16 0)
(3 8.70014e-16 0)
(3 9.78579e-16 0)
(3 5.96404e-16 0)
(3 1.00288e-15 0)
(3 1.72603e-15 0)
(3 7.29389e-16 0)
(3 3.39397e-16 0)
(3 4.1315e-16 0)
(3 8.41638e-16 0)
(3 2.24084e-15 0)
(3 2.84289e-15 0)
(3 3.04805e-15 0)
(3 3.02977e-15 0)
(3 3.14648e-15 0)
(3 2.54075e-15 0)
(3 1.9466e-15 0)
(3 1.33791e-15 0)
(3 1.5248e-15 0)
(3 2.60807e-15 0)
(3 2.16631e-15 0)
(3 -8.22063e-16 0)
(3 -1.49118e-15 0)
(3 -1.3551e-15 0)
(3 -1.16609e-15 0)
(3 -1.25939e-15 0)
(3 -1.61379e-15 0)
(3 -2.04789e-15 0)
(3 -2.55523e-15 0)
(3 -9.57263e-16 0)
(3 3.42873e-16 0)
(3 3.17171e-15 0)
(3 2.91164e-15 0)
(3 2.19794e-15 0)
(3 1.4417e-15 0)
(3 6.26893e-16 0)
(3 -2.37212e-16 0)
(3 -3.40251e-16 0)
(3 9.98915e-16 0)
(3 1.34567e-15 0)
(3 8.95287e-16 0)
(3 5.55467e-16 0)
(3 7.7737e-16 0)
(3 9.1488e-16 0)
(3 1.36485e-15 0)
(3 1.17134e-15 0)
(3 2.77889e-16 0)
(3 -2.73034e-16 0)
(3 -3.01799e-16 0)
(3 7.11178e-16 0)
(3 1.7405e-16 0)
(3 -5.44335e-16 0)
(3 -5.6338e-16 0)
(3 2.33746e-16 0)
(3 1.29898e-15 0)
(3 1.56075e-15 0)
(3 2.03272e-15 0)
(3 1.69906e-15 0)
(3 9.93419e-16 0)
(3 9.93838e-16 0)
(3 8.91012e-16 0)
(3 5.80512e-16 0)
(3 7.70292e-16 0)
(3 2.23597e-16 0)
(3 -4.58259e-16 0)
(3 -1.63869e-16 0)
(3 6.16131e-17 0)
(3 -2.85739e-16 0)
(3 -1.10722e-17 0)
(3 4.79385e-16 0)
(3 1.0694e-15 0)
(3 2.9838e-15 0)
(3 3.5279e-15 0)
(3 2.30474e-15 0)
(3 6.20205e-16 0)
(3 5.56848e-16 0)
(3 4.86983e-16 0)
(3 2.12313e-15 0)
(3 4.09452e-15 0)
(3 4.43956e-15 0)
(3 4.10228e-15 0)
(3 3.06103e-15 0)
(3 3.10884e-15 0)
(3 2.56887e-15 0)
(3 2.41069e-15 0)
(3 1.81118e-15 0)
(3 1.5848e-15 0)
(3 1.0353e-15 0)
(3 2.67647e-16 0)
(3 2.29366e-16 0)
(3 5.39807e-16 0)
(3 2.46286e-16 0)
(3 2.41105e-16 0)
(3 -3.93615e-16 0)
(3 -5.6294e-16 0)
(3 -5.99143e-16 0)
(3 -6.16358e-16 0)
(3 -9.69319e-16 0)
(3 -1.03227e-15 0)
(3 -1.72463e-15 0)
(3 -1.68925e-15 0)
(3 -1.24374e-15 0)
(3 -1.13114e-15 0)
(3 -9.36138e-16 0)
(3 -1.10294e-15 0)
(3 -1.67259e-15 0)
(3 -2.11737e-15 0)
(3 -2.56655e-15 0)
(3 -1.87397e-15 0)
(3 -1.47895e-15 0)
(3 -9.69205e-16 0)
(3 -1.26489e-15 0)
(3 -1.4537e-15 0)
(3 -2.06786e-15 0)
(3 -5.23816e-16 0)
(3 8.86859e-16 0)
(3 1.71972e-16 0)
(3 -2.31059e-16 0)
(3 -3.67679e-16 0)
(3 -1.25386e-16 0)
(3 4.46258e-16 0)
(3 6.32115e-16 0)
(3 3.40517e-16 0)
(3 -8.84407e-18 0)
(3 -4.04646e-16 0)
(3 -9.66695e-16 0)
(3 -2.50758e-15 0)
(3 -2.87686e-15 0)
(3 -3.04165e-15 0)
(3 -2.63982e-15 0)
(3 -2.11973e-15 0)
(3 -2.14645e-16 0)
(3 1.00892e-16 0)
(3 1.37506e-17 0)
(3 -1.31723e-15 0)
(3 -2.12776e-15 0)
(3 -2.50226e-15 0)
(3 -2.07209e-15 0)
(3 -2.91197e-15 0)
(3 -3.52612e-15 0)
(3 -3.79579e-15 0)
(3 -3.98391e-15 0)
(3 -4.46065e-15 0)
(3 -4.01437e-15 0)
(3 -3.4033e-15 0)
(3 -2.64498e-15 0)
(3 -2.17407e-15 0)
(3 -1.78063e-15 0)
(3 -1.62531e-15 0)
(3 -1.86345e-15 0)
(3 -1.78324e-15 0)
(3 -1.96119e-15 0)
(3 -2.64868e-15 0)
(3 -3.28328e-15 0)
(3 -3.22591e-15 0)
(3 -2.03611e-17 0)
(3 3.57005e-16 0)
(3 5.35188e-16 0)
(3 -1.17471e-16 0)
(3 -2.02534e-16 0)
(3 -1.80908e-16 0)
(3 8.32037e-17 0)
(3 2.13635e-16 0)
(3 9.57388e-16 0)
(3 3.25748e-15 0)
(3 3.21658e-15 0)
(3 3.00018e-15 0)
(3 2.86805e-15 0)
(3 2.82484e-15 0)
(3 1.97252e-15 0)
(3 1.50159e-15 0)
(3 2.42229e-15 0)
(3 3.85908e-15 0)
(3 4.63698e-15 0)
(3 4.31611e-15 0)
(3 3.19084e-15 0)
(3 2.93705e-15 0)
(3 2.63814e-15 0)
(3 1.56389e-15 0)
(3 1.46065e-15 0)
(3 1.79437e-16 0)
(3 -5.42593e-16 0)
(3 -2.18853e-15 0)
(3 -2.87869e-15 0)
(3 -3.6752e-15 0)
(3 -4.26806e-15 0)
(3 -4.35788e-15 0)
(3 -4.31319e-15 0)
(3 -4.32816e-15 0)
(3 -4.1909e-15 0)
(3 -3.9937e-15 0)
(3 -3.7451e-15 0)
(3 -3.42862e-15 0)
(3 -2.43291e-15 0)
(3 -2.51177e-15 0)
(3 -2.4883e-15 0)
(3 -2.85299e-15 0)
(3 -3.49629e-15 0)
(3 -3.11419e-15 0)
(3 -2.05356e-15 0)
(3 3.36571e-16 0)
(3 -6.04131e-17 0)
(3 -6.85414e-16 0)
(3 -5.53218e-16 0)
(3 4.99792e-16 0)
(3 2.27405e-15 0)
(3 2.54628e-15 0)
(3 3.50715e-15 0)
(3 4.16251e-15 0)
(3 4.16173e-15 0)
(3 3.15348e-15 0)
(3 2.80717e-15 0)
(3 2.48829e-15 0)
(3 3.24349e-15 0)
(3 3.43937e-15 0)
(3 2.20552e-15 0)
(3 1.39854e-15 0)
(3 6.88604e-16 0)
(3 -5.62037e-16 0)
(3 -3.20095e-17 0)
(3 2.52486e-16 0)
(3 7.26734e-16 0)
(3 7.5722e-16 0)
(3 8.38085e-16 0)
(3 9.61586e-16 0)
(3 1.0938e-15 0)
(3 5.74467e-16 0)
(3 5.34815e-16 0)
(3 1.45607e-15 0)
(3 2.02336e-15 0)
(3 3.28634e-15 0)
(3 3.83941e-15 0)
(3 4.14164e-15 0)