/*--------------------------------*- C++ -*----------------------------------*\
  =========                 |
  \\      /  F ield         | OpenFOAM: The Open Source CFD Toolbox
   \\    /   O peration     | Website:  https://openfoam.org
    \\  /    A nd           | Version:  7
     \\/     M anipulation  |
\*---------------------------------------------------------------------------*/
FoamFile
{
    version     2.0;
    format      ascii;
    class       volScalarField;
    location    "2.3";
    object      rho;
}
// * * * * * * * * * * * * * * * * * * * * * * * * * * * * * * * * * * * * * //

dimensions      [1 -3 0 0 0 0 0];

internalField   nonuniform List<scalar> 
16512
(
1.4257
1.41466
1.39987
1.37676
1.35429
1.34664
1.34159
1.33818
1.33489
1.32898
1.3216
1.31172
1.29429
1.26531
1.23798
1.22921
1.22654
1.22687
1.22851
1.22504
1.21957
1.21209
1.19729
1.17249
1.15017
1.14276
1.13993
1.13891
1.13947
1.13816
1.13454
1.1296
1.12027
1.10277
1.08328
1.07261
1.06897
1.06679
1.06488
1.06208
1.05854
1.05298
1.04157
1.02628
1.01973
1.01705
1.01429
1.01151
1.00817
1.0036
0.996655
0.985735
0.976028
0.97192
0.969278
0.966919
0.964499
0.961573
0.95805
0.953011
0.944205
0.934911
0.930253
0.927365
0.924888
0.922729
0.920747
0.918374
0.915202
0.910466
0.902147
0.891759
0.88701
0.885114
0.883452
0.881773
0.879973
0.878178
0.875988
0.873354
0.870186
0.866011
0.860652
0.855345
0.851162
0.848296
0.845847
0.842546
0.837662
0.832365
0.827667
0.825115
0.823842
0.822928
0.822091
0.820754
0.818608
0.814732
0.807349
0.800147
0.797945
0.796993
0.796006
0.7945
0.793249
0.792483
0.791372
0.789195
0.785425
0.779294
0.77433
0.773027
0.772484
0.771977
0.770669
0.769029
0.76735
0.765051
0.760796
0.754716
0.751688
0.751567
0.751934
0.753739
0.761198
0.780676
0.823959
0.878586
0.942322
0.989643
1.02564
1.05076
1.05559
1.0594
1.0682
1.07807
1.0842
1.08593
1.08674
1.0874
1.08728
1.08505
1.08301
1.08352
1.08432
1.0856
1.08999
1.09511
1.09615
1.09634
1.09505
1.09142
1.09068
1.09141
1.09221
1.09364
1.09698
1.10247
1.10473
1.10417
1.10266
1.09927
1.0927
1.08668
1.08526
1.08604
1.08902
1.09513
1.10035
1.10149
1.10138
1.09975
1.09475
1.08854
1.08643
1.08638
1.08794
1.09292
1.09927
1.10114
1.10054
1.09756
1.09185
1.08723
1.0863
1.08629
1.08729
1.09142
1.09752
1.09965
1.09948
1.09846
1.0955
1.08948
1.08526
1.08499
1.08549
1.08661
1.08851
1.08968
1.08953
1.08899
1.08827
1.08789
1.08806
1.08865
1.08853
1.08727
1.08457
1.08161
1.07986
1.07897
1.07832
1.0777
1.07702
1.07622
1.07519
1.07397
1.07276
1.07192
1.07137
1.07087
1.07033
1.06977
1.06915
1.06843
1.06761
1.06721
1.06713
1.06706
1.06721
1.06769
1.06814
1.07389
1.13219
1.34086
1.64829
1.74344
1.75833
1.77494
1.82399
1.9281
2.04742
2.10583
2.10968
2.10167
2.08719
2.07397
2.066
2.06226
2.06618
2.07619
2.08137
2.08103
2.07825
2.07368
2.0686
2.06404
1.44095
1.42919
1.41455
1.39444
1.37748
1.36995
1.36444
1.35982
1.35405
1.34659
1.3371
1.32272
1.29746
1.26811
1.25544
1.25213
1.25105
1.25154
1.24828
1.24281
1.23561
1.22283
1.19974
1.17512
1.16526
1.16229
1.16094
1.16126
1.15985
1.15613
1.15107
1.14201
1.12464
1.10388
1.09221
1.08886
1.08706
1.0854
1.08258
1.07917
1.07419
1.06382
1.0465
1.03627
1.03357
1.03126
1.02845
1.02543
1.02187
1.01625
1.00657
0.994795
0.988568
0.985499
0.982591
0.97987
0.977145
0.973957
0.969755
0.963223
0.952757
0.945203
0.942312
0.939756
0.9371
0.934407
0.931723
0.928802
0.925117
0.9196
0.910777
0.902142
0.898692
0.896659
0.894558
0.892567
0.890553
0.888477
0.886256
0.883476
0.879728
0.874749
0.869074
0.864401
0.86126
0.858449
0.855038
0.849872
0.842938
0.839261
0.837241
0.835451
0.834102
0.832938
0.83173
0.830144
0.82732
0.821498
0.812778
0.80839
0.807224
0.806421
0.805682
0.804341
0.802827
0.801412
0.799735
0.796556
0.791146
0.785998
0.782943
0.781648
0.780905
0.780495
0.779607
0.778077
0.776425
0.773932
0.769201
0.763268
0.760439
0.75914
0.757094
0.756793
0.757184
0.758328
0.763177
0.777217
0.808154
0.866527
0.928374
0.98574
1.01543
1.04305
1.05935
1.07399
1.08123
1.0823
1.08312
1.08445
1.08468
1.08231
1.08074
1.08166
1.08361
1.08662
1.09275
1.09767
1.09841
1.09852
1.09733
1.09474
1.09454
1.09536
1.09621
1.0975
1.10062
1.10502
1.10601
1.10516
1.10327
1.09906
1.09305
1.09039
1.09051
1.09202
1.09637
1.10104
1.10232
1.10235
1.10134
1.09742
1.09189
1.08973
1.08992
1.0917
1.09666
1.10295
1.10483
1.10433
1.10193
1.09682
1.09085
1.08908
1.08889
1.08902
1.09126
1.09699
1.10093
1.1011
1.1006
1.09884
1.09442
1.0892
1.08798
1.08845
1.08937
1.09071
1.09204
1.09271
1.0929
1.09305
1.09348
1.09421
1.09456
1.09405
1.09169
1.08813
1.08469
1.08289
1.08206
1.08156
1.08118
1.0807
1.08005
1.07917
1.07795
1.07664
1.07564
1.075
1.07452
1.07422
1.07409
1.07393
1.07375
1.07346
1.07273
1.07192
1.07169
1.0713
1.07103
1.07139
1.07707
1.13492
1.34906
1.61741
1.77705
1.79665
1.79629
1.81607
1.8978
2.00545
2.09358
2.11866
2.11686
2.10737
2.09505
2.08505
2.07788
2.07564
2.07949
2.08429
2.08371
2.08161
2.08016
2.07935
2.07797
2.07645
1.45823
1.44641
1.43265
1.41606
1.40066
1.39123
1.38449
1.37839
1.37117
1.36202
1.34946
1.32892
1.30037
1.28293
1.27871
1.27615
1.27491
1.27143
1.26595
1.25897
1.24779
1.22715
1.20184
1.1889
1.18555
1.18365
1.18335
1.1816
1.17764
1.17249
1.16372
1.14678
1.12549
1.11246
1.10909
1.10759
1.1065
1.1036
1.10002
1.0954
1.08631
1.06871
1.05403
1.05031
1.04827
1.04584
1.04279
1.03939
1.03497
1.02728
1.0147
1.00533
1.00184
0.999284
0.996357
0.993138
0.98974
0.985824
0.980634
0.972613
0.962232
0.956811
0.95447
0.951999
0.949282
0.946325
0.94295
0.938882
0.933868
0.927724
0.920319
0.913728
0.910295
0.90818
0.905954
0.903421
0.900767
0.89801
0.895145
0.892011
0.888149
0.883381
0.878556
0.874752
0.871651
0.868121
0.86286
0.855532
0.850221
0.848528
0.847293
0.845738
0.844328
0.843014
0.841562
0.83951
0.83501
0.82607
0.819293
0.817596
0.816602
0.816045
0.81536
0.814125
0.81271
0.811026
0.808263
0.802507
0.795774
0.793572
0.792314
0.790759
0.789688
0.789174
0.788538
0.787203
0.784707
0.781045
0.775536
0.770763
0.769429
0.768696
0.766857
0.764612
0.762046
0.76056
0.759579
0.759887
0.762275
0.774821
0.80358
0.857529
0.926148
0.988882
1.03159
1.05293
1.06936
1.07598
1.07793
1.08023
1.08032
1.07804
1.07768
1.07918
1.08219
1.08796
1.0951
1.09821
1.09859
1.09852
1.09721
1.09489
1.09469
1.09553
1.09652
1.09822
1.10186
1.1056
1.10595
1.10504
1.10288
1.09883
1.09554
1.09525
1.0958
1.09828
1.10208
1.10358
1.10376
1.10314
1.10015
1.09586
1.09376
1.09409
1.09599
1.10051
1.10617
1.10804
1.10761
1.10565
1.10142
1.09461
1.0913
1.09085
1.09066
1.09141
1.09551
1.10144
1.10305
1.10276
1.10187
1.09951
1.09472
1.09169
1.09173
1.09216
1.09294
1.09391
1.09486
1.0959
1.09724
1.09872
1.09981
1.09998
1.09916
1.09611
1.09161
1.08715
1.08535
1.0846
1.0841
1.08407
1.08449
1.0842
1.08343
1.0822
1.08089
1.07996
1.07933
1.07882
1.07853
1.07853
1.07878
1.07885
1.07878
1.07847
1.07705
1.07568
1.07491
1.07431
1.07445
1.0801
1.13912
1.35349
1.61925
1.77489
1.81872
1.82084
1.82407
1.87629
1.98928
2.07345
2.11122
2.11448
2.11363
2.1114
2.10755
2.10321
2.09986
2.09903
2.09864
2.09385
2.08781
2.08259
2.08016
2.08151
2.08714
2.09097
1.4786
1.46733
1.45354
1.43587
1.42043
1.41055
1.4022
1.39442
1.38622
1.37536
1.35884
1.33352
1.31213
1.3063
1.3024
1.29922
1.29495
1.28927
1.28231
1.27215
1.2539
1.22912
1.21337
1.20943
1.20708
1.20608
1.20386
1.19969
1.19437
1.18572
1.16923
1.14757
1.13311
1.12942
1.12791
1.12747
1.12493
1.12121
1.11659
1.10831
1.09134
1.07355
1.06786
1.06553
1.06336
1.06079
1.0574
1.05318
1.04698
1.03577
1.02292
1.01831
1.01573
1.01283
1.0098
1.00644
1.00245
0.997307
0.990509
0.981688
0.973392
0.969372
0.96685
0.964116
0.961028
0.957625
0.953712
0.948931
0.942924
0.936483
0.930954
0.926353
0.922415
0.919444
0.917003
0.914471
0.911621
0.908422
0.904739
0.900507
0.896095
0.892066
0.888736
0.885711
0.881885
0.875784
0.867603
0.861835
0.859966
0.858976
0.858067
0.856664
0.855211
0.853667
0.851583
0.847704
0.839905
0.831222
0.828469
0.8275
0.826909
0.826441
0.825385
0.824077
0.822469
0.819858
0.814882
0.807471
0.803502
0.802424
0.801674
0.800563
0.799259
0.798347
0.797507
0.796083
0.792532
0.786953
0.782304
0.779168
0.777993
0.777534
0.77636
0.773684
0.77063
0.766973
0.763545
0.761623
0.762008
0.762125
0.764157
0.775104
0.807411
0.857338
0.926395
0.98551
1.03642
1.06276
1.07399
1.08087
1.0793
1.07639
1.0775
1.07985
1.08528
1.0934
1.09799
1.09902
1.09936
1.09905
1.09721
1.09474
1.09434
1.09501
1.09596
1.09841
1.10293
1.10565
1.10563
1.10487
1.10287
1.09992
1.099
1.09923
1.10043
1.10299
1.10443
1.10454
1.10432
1.10278
1.09959
1.09776
1.09826
1.10005
1.10386
1.10854
1.11041
1.11026
1.10894
1.10558
1.09899
1.09383
1.09265
1.09244
1.09261
1.09516
1.10138
1.10585
1.10616
1.10579
1.10464
1.10158
1.09688
1.09496
1.09491
1.09506
1.0955
1.09633
1.09782
1.10031
1.1031
1.10461
1.10477
1.10385
1.10047
1.09501
1.08925
1.08732
1.08667
1.08624
1.08645
1.08818
1.08903
1.08867
1.08747
1.08563
1.08466
1.08421
1.0838
1.08357
1.08365
1.08395
1.08404
1.08385
1.08356
1.08234
1.07961
1.07784
1.07698
1.07738
1.08368
1.14253
1.36555
1.64108
1.76953
1.80369
1.81316
1.82327
1.86163
1.96671
2.07323
2.11973
2.12327
2.11585
2.11241
2.11155
2.1148
2.12019
2.12554
2.12463
2.11679
2.1043
2.09211
2.08487
2.08146
2.08485
2.09658
2.10293
1.5032
1.49083
1.47175
1.4506
1.437
1.42785
1.41875
1.40903
1.39887
1.38632
1.36689
1.34336
1.33451
1.32973
1.32457
1.31917
1.31303
1.30581
1.29619
1.28001
1.25641
1.23842
1.23368
1.23105
1.22945
1.22681
1.22251
1.21708
1.20846
1.19196
1.16994
1.1541
1.15003
1.14839
1.14814
1.14609
1.14242
1.13794
1.13047
1.11456
1.09443
1.08601
1.08359
1.08144
1.07867
1.07562
1.07189
1.06632
1.05689
1.04298
1.03432
1.03181
1.02966
1.02675
1.02313
1.01909
1.01442
1.00817
0.999915
0.99154
0.985707
0.98234
0.979686
0.97665
0.972836
0.96835
0.963307
0.957881
0.952144
0.946759
0.942675
0.939118
0.935023
0.930663
0.927054
0.924083
0.921166
0.917929
0.914257
0.910127
0.906054
0.902687
0.899642
0.895795
0.889606
0.880503
0.873743
0.871678
0.870541
0.869903
0.869151
0.867834
0.866364
0.864553
0.861209
0.853539
0.84285
0.83875
0.837833
0.837652
0.837848
0.836877
0.835616
0.834238
0.832172
0.827387
0.818778
0.813397
0.812165
0.811303
0.810742
0.810126
0.808928
0.807607
0.80617
0.803431
0.797788
0.792005
0.78983
0.788127
0.786236
0.785142
0.783988
0.781213
0.777797
0.77464
0.771822
0.769196
0.766852
0.764828
0.76483
0.764676
0.766962
0.776908
0.806256
0.854985
0.916884
0.979775
1.02625
1.0576
1.06572
1.07289
1.07975
1.08384
1.09128
1.09907
1.10127
1.10213
1.10257
1.10194
1.0995
1.09696
1.09625
1.09667
1.0979
1.10156
1.10596
1.10697
1.1069
1.10634
1.10498
1.10343
1.10307
1.10357
1.10503
1.10616
1.10597
1.10547
1.10439
1.10218
1.10087
1.10151
1.10307
1.10605
1.10973
1.11133
1.11147
1.11103
1.10878
1.10324
1.09682
1.09461
1.09433
1.09437
1.09613
1.10179
1.10854
1.1105
1.11037
1.10975
1.1076
1.10296
1.0985
1.09713
1.09701
1.09705
1.09752
1.09902
1.10232
1.10654
1.10874
1.10899
1.10817
1.10473
1.0986
1.09146
1.08904
1.08846
1.08822
1.08879
1.09166
1.09468
1.09487
1.09409
1.09176
1.08962
1.0891
1.08885
1.08884
1.08912
1.08931
1.08914
1.08873
1.08819
1.08673
1.08368
1.08064
1.07925
1.07964
1.08683
1.15238
1.37659
1.6638
1.77102
1.80548
1.8209
1.82511
1.84797
1.9299
2.05422
2.13549
2.14718
2.13695
2.1188
2.11052
2.10794
2.11675
2.13379
2.14296
2.13997
2.13124
2.11449
2.099
2.09211
2.08898
2.09378
2.10605
2.11087
1.52761
1.50572
1.48055
1.46315
1.45289
1.44395
1.43416
1.42313
1.41091
1.3968
1.37924
1.36453
1.3571
1.35056
1.34385
1.3369
1.32942
1.32004
1.30554
1.28331
1.26383
1.25809
1.25528
1.25346
1.25044
1.24606
1.24063
1.23198
1.21541
1.19264
1.17526
1.17054
1.16886
1.169
1.16731
1.1636
1.1593
1.15268
1.13836
1.11688
1.10473
1.10186
1.09969
1.09725
1.09415
1.09052
1.08578
1.07766
1.06396
1.05257
1.04845
1.04578
1.04309
1.04011
1.03644
1.03164
1.02533
1.01762
1.00947
1.0033
0.999193
0.995736
0.992366
0.98848
0.983613
0.978134
0.972523
0.967044
0.962278
0.958482
0.955332
0.952023
0.94752
0.941969
0.937359
0.933782
0.930355
0.926698
0.922965
0.91962
0.916793
0.914069
0.910385
0.903683
0.893368
0.88608
0.883993
0.882943
0.882513
0.882127
0.880984
0.879525
0.877802
0.874843
0.86778
0.856091
0.849428
0.848264
0.847956
0.84916
0.849229
0.847926
0.846451
0.844333
0.84
0.831612
0.824146
0.822286
0.821567
0.821395
0.820842
0.819917
0.81897
0.817604
0.815041
0.809407
0.801984
0.798756
0.797959
0.797115
0.79546
0.793183
0.790702
0.787653
0.784485
0.782498
0.781019
0.778854
0.775973
0.772493
0.768998
0.767484
0.767882
0.768445
0.771066
0.780641
0.803487
0.851082
0.90671
0.966382
1.00858
1.04529
1.06597
1.07481
1.08735
1.09792
1.10075
1.10206
1.10237
1.10161
1.09929
1.09774
1.0978
1.09844
1.10046
1.10531
1.10912
1.1097
1.10978
1.10948
1.10884
1.10806
1.10771
1.10832
1.10926
1.10929
1.10875
1.10764
1.10552
1.10383
1.10423
1.10531
1.10735
1.11035
1.11188
1.11206
1.11193
1.11067
1.10656
1.10013
1.09687
1.09629
1.0963
1.09771
1.10287
1.11076
1.11473
1.11488
1.11441
1.11265
1.10836
1.10255
1.09918
1.09859
1.09851
1.09871
1.10002
1.10367
1.10925
1.11249
1.1129
1.11224
1.10895
1.1024
1.09403
1.09091
1.09029
1.09021
1.09127
1.09532
1.10086
1.10241
1.10188
1.09938
1.09525
1.09363
1.0933
1.09321
1.09374
1.0941
1.09367
1.09305
1.0923
1.09072
1.08756
1.08384
1.08171
1.08196
1.08899
1.16005
1.39878
1.66429
1.79455
1.83131
1.83694
1.8359
1.84264
1.89616
2.00616
2.11673
2.15997
2.15919
2.14427
2.12375
2.11475
2.1126
2.12446
2.14401
2.15019
2.14579
2.13761
2.12445
2.11238
2.10589
2.1034
2.10736
2.11364
2.11404
1.53583
1.50749
1.48938
1.47823
1.46886
1.45955
1.44925
1.43757
1.42482
1.41144
1.39878
1.3878
1.37746
1.36861
1.36083
1.35287
1.34352
1.3302
1.30985
1.28963
1.28268
1.27971
1.27782
1.2749
1.27047
1.265
1.25612
1.23907
1.21559
1.19677
1.1912
1.18929
1.18969
1.18887
1.18525
1.18095
1.17492
1.16229
1.14069
1.12425
1.12045
1.11825
1.11601
1.1128
1.10926
1.10491
1.0982
1.08607
1.07138
1.06559
1.06303
1.0602
1.05702
1.05326
1.04865
1.04282
1.0352
1.02676
1.02037
1.01649
1.01325
1.00964
1.00505
0.999154
0.9927
0.986773
0.981752
0.977581
0.974285
0.971375
0.968246
0.964126
0.958063
0.951482
0.947034
0.943769
0.94055
0.937173
0.933935
0.931214
0.928643
0.925126
0.918463
0.907355
0.898613
0.896302
0.895288
0.895159
0.895342
0.894307
0.892841
0.891122
0.888362
0.881901
0.869806
0.860404
0.858642
0.858086
0.859326
0.86117
0.860463
0.859037
0.857102
0.853186
0.844394
0.834947
0.832242
0.831429
0.831332
0.832073
0.831247
0.830059
0.828768
0.826341
0.820529
0.812997
0.808803
0.807082
0.80591
0.80466
0.802702
0.799562
0.796224
0.79418
0.792441
0.791128
0.789875
0.788086
0.784883
0.780585
0.777556
0.775525
0.773608
0.772526
0.773011
0.773009
0.774512
0.781012
0.798082
0.836281
0.898866
0.961898
1.01198
1.04195
1.06972
1.08537
1.09472
1.09867
1.09843
1.09796
1.09645
1.09573
1.09637
1.09785
1.10124
1.10609
1.10918
1.11031
1.11076
1.11082
1.11068
1.11076
1.11072
1.1109
1.11122
1.11144
1.11103
1.10959
1.10757
1.10679
1.10721
1.10848
1.11091
1.11288
1.11324
1.11327
1.1125
1.10933
1.10408
1.10044
1.09953
1.09949
1.10057
1.10502
1.11293
1.11815
1.1187
1.11821
1.1166
1.11305
1.10716
1.10135
1.09979
1.0996
1.09966
1.10079
1.10464
1.11135
1.11595
1.11665
1.11612
1.11304
1.10624
1.09693
1.09306
1.09239
1.09245
1.09401
1.09913
1.10667
1.10995
1.10968
1.10716
1.10155
1.09749
1.09671
1.09642
1.0965
1.09739
1.0974
1.09671
1.09588
1.09445
1.09153
1.08763
1.08477
1.08507
1.09358
1.16423
1.41622
1.66596
1.81319
1.85306
1.85382
1.84968
1.84299
1.87269
1.96629
2.07261
2.1512
2.16536
2.16217
2.14991
2.13616
2.12929
2.12927
2.14053
2.15009
2.1486
2.14345
2.1375
2.13298
2.12953
2.12682
2.12548
2.12463
2.12003
2.11497
1.53339
1.51111
1.50289
1.49517
1.48581
1.47589
1.46552
1.45443
1.44296
1.43194
1.42085
1.40748
1.39408
1.38416
1.37581
1.36663
1.35423
1.33574
1.31567
1.30759
1.30449
1.30271
1.30009
1.29575
1.29025
1.28079
1.26296
1.23852
1.21841
1.21189
1.20982
1.21031
1.21051
1.20726
1.20315
1.19764
1.18641
1.16512
1.14493
1.13923
1.13685
1.13496
1.13203
1.12851
1.12442
1.11864
1.10808
1.09242
1.0832
1.08025
1.07746
1.07426
1.0706
1.06622
1.06021
1.05213
1.0439
1.03765
1.03371
1.03064
1.02734
1.02273
1.01568
1.00748
1.00101
0.996272
0.992629
0.989801
0.987336
0.984674
0.981033
0.975063
0.966668
0.960047
0.956436
0.953626
0.950807
0.948096
0.945607
0.943119
0.939796
0.933463
0.92182
0.91165
0.908947
0.907911
0.907955
0.908882
0.908007
0.906419
0.90468
0.901967
0.895634
0.883498
0.872265
0.869518
0.868799
0.869527
0.872115
0.872485
0.871393
0.869667
0.865968
0.857541
0.846826
0.8427
0.841809
0.841602
0.842973
0.843192
0.841876
0.840386
0.837923
0.831988
0.822918
0.81831
0.817445
0.816359
0.814914
0.813031
0.809417
0.804476
0.802296
0.801756
0.800899
0.799748
0.798379
0.79616
0.791867
0.787575
0.786262
0.784885
0.782909
0.780675
0.778885
0.777135
0.77609
0.774037
0.773424
0.777736
0.796614
0.832871
0.894419
0.960614
1.02375
1.0565
1.07374
1.0866
1.08804
1.08968
1.09191
1.09254
1.0936
1.09676
1.10137
1.10548
1.10768
1.10896
1.10967
1.11005
1.1103
1.11101
1.11141
1.11125
1.11129
1.11133
1.11052
1.10906
1.10834
1.10815
1.1087
1.11087
1.11374
1.11475
1.11493
1.11479
1.11305
1.1088
1.10487
1.10413
1.10437
1.1053
1.10862
1.11538
1.12076
1.1216
1.1212
1.11996
1.11706
1.11159
1.10401
1.10108
1.10065
1.1006
1.10152
1.10547
1.11314
1.1192
1.12033
1.11994
1.11707
1.11025
1.10003
1.0951
1.09445
1.09473
1.09681
1.10295
1.1121
1.11669
1.11669
1.11437
1.10822
1.1014
1.09896
1.09842
1.09814
1.09853
1.09985
1.09978
1.09903
1.0979
1.09557
1.09186
1.08855
1.0888
1.10073
1.18234
1.42893
1.7008
1.81851
1.86103
1.86132
1.8512
1.84466
1.86203
1.93913
2.05399
2.14302
2.17051
2.16784
2.15807
2.15255
2.14929
2.14839
2.15315
2.15671
2.15206
2.14491
2.13808
2.13557
2.13749
2.14549
2.15312
2.15144
2.14316
2.12928
2.11735
1.5349
1.52435
1.51895
1.51288
1.50426
1.49475
1.48525
1.47614
1.4668
1.45533
1.43898
1.42066
1.40762
1.39833
1.38911
1.37757
1.36119
1.34222
1.33321
1.32991
1.32827
1.32626
1.322
1.31633
1.30584
1.28682
1.26147
1.24021
1.23262
1.23038
1.23093
1.23239
1.22956
1.2256
1.22062
1.21081
1.19033
1.1672
1.15816
1.15547
1.15391
1.15181
1.14837
1.14448
1.13941
1.13044
1.11462
1.10175
1.09782
1.09497
1.09186
1.08832
1.08392
1.07788
1.06973
1.0608
1.05439
1.05095
1.04818
1.04505
1.04075
1.03357
1.02294
1.01449
1.01061
1.00793
1.0055
1.00317
1.00065
0.997411
0.991987
0.983029
0.974268
0.969856
0.967352
0.965045
0.962705
0.960342
0.957817
0.954442
0.948211
0.936556
0.925093
0.921767
0.920723
0.920813
0.922397
0.921866
0.920167
0.918356
0.915738
0.909838
0.897722
0.884739
0.880442
0.879648
0.880175
0.883082
0.883968
0.882995
0.881607
0.878818
0.871441
0.859454
0.853394
0.852293
0.8519
0.853249
0.854644
0.85368
0.851948
0.849166
0.843137
0.8338
0.827899
0.826664
0.82562
0.82412
0.822092
0.819521
0.816027
0.812537
0.811166
0.81052
0.809746
0.808476
0.806632
0.803172
0.797798
0.794981
0.79425
0.793506
0.79211
0.790123
0.788052
0.785787
0.782501
0.777551
0.774509
0.77409
0.774937
0.779297
0.796705
0.834314
0.888648
0.955582
1.00972
1.06018
1.07629
1.0854
1.09318
1.09137
1.09265
1.09877
1.10365
1.10602
1.10705
1.10795
1.10912
1.10981
1.11025
1.11098
1.11147
1.11141
1.11128
1.1105
1.10893
1.108
1.10772
1.10777
1.10925
1.11289
1.11554
1.11613
1.11633
1.11585
1.11307
1.10915
1.10841
1.10905
1.11012
1.11245
1.11732
1.12222
1.12324
1.12295
1.12206
1.1201
1.11606
1.10844
1.10354
1.10243
1.10229
1.10294
1.10677
1.11511
1.12245
1.12407
1.12378
1.12117
1.11463
1.10373
1.09747
1.09661
1.09707
1.09947
1.10629
1.11668
1.12229
1.12246
1.12059
1.11504
1.10648
1.10088
1.09969
1.09917
1.09902
1.10031
1.1023
1.10223
1.1015
1.09983
1.09654
1.0931
1.09343
1.10519
1.20477
1.45396
1.73252
1.83829
1.85086
1.85424
1.85187
1.84844
1.85807
1.91406
2.02797
2.14466
2.18681
2.1803
2.16437
2.15483
2.15204
2.16009
2.17375
2.17581
2.16938
2.1561
2.14072
2.13381
2.13165
2.13965
2.1588
2.17156
2.16939
2.1617
2.14418
2.12337
1.54811
1.54217
1.53774
1.53279
1.52587
1.51799
1.51029
1.50263
1.49129
1.47058
1.44696
1.43094
1.42075
1.41157
1.40075
1.38622
1.36921
1.35987
1.35633
1.3548
1.3534
1.3492
1.34295
1.33079
1.31039
1.28426
1.26204
1.25347
1.25103
1.25139
1.25423
1.25237
1.24844
1.2437
1.23477
1.2155
1.19071
1.17771
1.17452
1.17266
1.17157
1.16876
1.16516
1.16073
1.15319
1.1379
1.12124
1.11571
1.1129
1.10973
1.10618
1.10196
1.0961
1.08741
1.07777
1.07154
1.06832
1.06567
1.06266
1.05854
1.05155
1.04012
1.02946
1.02515
1.02315
1.0213
1.01913
1.01666
1.01362
1.00873
0.999674
0.98874
0.983257
0.981076
0.979191
0.977218
0.975068
0.972613
0.96935
0.963556
0.951981
0.938876
0.934487
0.933455
0.933575
0.935826
0.935896
0.934124
0.932228
0.929659
0.924103
0.912175
0.898128
0.892003
0.891026
0.891054
0.893854
0.89587
0.894942
0.893503
0.890872
0.884025
0.872498
0.864665
0.863301
0.862853
0.864056
0.865782
0.865062
0.863449
0.860589
0.854245
0.84453
0.838153
0.836944
0.835984
0.834582
0.832468
0.828666
0.824248
0.822537
0.821391
0.820158
0.819178
0.818198
0.816629
0.813827
0.809295
0.804367
0.802692
0.802089
0.801536
0.800452
0.79902
0.797206
0.794754
0.790979
0.78448
0.779556
0.777643
0.777328
0.77845
0.779916
0.784411
0.797645
0.831825
0.879207
0.941648
0.999255
1.04223
1.07152
1.07992
1.09059
1.10399
1.10732
1.1088
1.11001
1.1111
1.11233
1.11308
1.1134
1.11373
1.11369
1.11311
1.11221
1.11057
1.10879
1.10817
1.10809
1.10869
1.11171
1.11607
1.1175
1.11788
1.11797
1.11674
1.11355
1.11212
1.11262
1.11356
1.11496
1.11761
1.12164
1.12347
1.12329
1.12275
1.12152
1.11869
1.11261
1.10679
1.10497
1.10476
1.10532
1.10899
1.11751
1.12568
1.12769
1.12743
1.12516
1.11935
1.10833
1.10052
1.09923
1.09968
1.10211
1.10908
1.12013
1.12652
1.12686
1.12533
1.12078
1.11197
1.10308
1.1008
1.10011
1.09965
1.10015
1.1033
1.10555
1.10553
1.10472
1.10206
1.09865
1.09936
1.11336
1.20572
1.49264
1.73492
1.84877
1.86702
1.86258
1.85831
1.85946
1.86657
1.90418
1.99669
2.11592
2.19281
2.19478
2.18278
2.17002
2.16277
2.16203
2.17566
2.19023
2.18919
2.18128
2.16219
2.14107
2.1338
2.13231
2.1436
2.16699
2.17978
2.17826
2.1724
2.1584
2.13528
1.56686
1.56322
1.56094
1.55721
1.55205
1.5459
1.53858
1.52575
1.50098
1.47289
1.45388
1.44319
1.43438
1.42436
1.41148
1.39673
1.38789
1.38419
1.38269
1.38143
1.37701
1.36942
1.355
1.33351
1.30697
1.28426
1.27479
1.27209
1.27213
1.27592
1.2755
1.27165
1.26707
1.25855
1.23998
1.21434
1.19798
1.19408
1.19195
1.19125
1.18935
1.18594
1.18198
1.1758
1.16205
1.14247
1.13361
1.13086
1.12781
1.12431
1.12024
1.11473
1.10584
1.09505
1.08883
1.08596
1.08332
1.08023
1.0762
1.06963
1.05814
1.04553
1.0403
1.03837
1.03692
1.03506
1.03266
1.02968
1.02513
1.0166
1.0045
0.997291
0.995209
0.993637
0.991933
0.989954
0.987609
0.984478
0.978946
0.967752
0.953704
0.947615
0.946479
0.946426
0.948992
0.950001
0.948254
0.946287
0.94376
0.938528
0.927002
0.911959
0.903882
0.90267
0.902505
0.905163
0.907817
0.906835
0.905209
0.903025
0.897863
0.886411
0.875996
0.873937
0.873304
0.874423
0.876748
0.876294
0.874761
0.87208
0.865728
0.855373
0.847935
0.846644
0.845981
0.844702
0.842915
0.840134
0.835498
0.832386
0.831588
0.830943
0.829643
0.828214
0.826737
0.824368
0.819843
0.815158
0.812282
0.810925
0.810236
0.809665
0.80861
0.807261
0.805548
0.80295
0.798641
0.792033
0.787699
0.78617
0.784829
0.783206
0.782879
0.784138
0.784958
0.787753
0.797893
0.821534
0.869932
0.925281
0.983638
1.02997
1.06704
1.0913
1.09968
1.10528
1.10906
1.112
1.1139
1.11486
1.11531
1.11547
1.11512
1.11403
1.11251
1.11133
1.11086
1.11116
1.11157
1.11312
1.11741
1.1207
1.12121
1.12147
1.12096
1.11836
1.11616
1.11616
1.11661
1.11732
1.11836
1.12039
1.12296
1.12347
1.123
1.12196
1.11986
1.11508
1.10954
1.10742
1.10727
1.10803
1.11183
1.12029
1.12847
1.13054
1.13026
1.1284
1.12371
1.11347
1.10433
1.10228
1.10261
1.10473
1.11122
1.12223
1.12935
1.12999
1.12888
1.12544
1.11766
1.10677
1.10247
1.1015
1.10094
1.10093
1.10375
1.10877
1.11029
1.11021
1.10889
1.10557
1.10602
1.12461
1.22754
1.49536
1.7703
1.8527
1.87484
1.86916
1.86507
1.86361
1.8673
1.89172
1.9711
2.07886
2.17205
2.20237
2.19979
2.19103
2.1834
2.17786
2.17724
2.18711
2.19527
2.19371
2.18735
2.17258
2.15541
2.14813
2.14598
2.15516
2.17346
2.18188
2.17966
2.17466
2.1656
2.14908
1.58962
1.58946
1.58959
1.58629
1.58103
1.57416
1.56051
1.53244
1.49814
1.47625
1.46591
1.45778
1.44873
1.43771
1.4255
1.41756
1.41374
1.41218
1.41022
1.40494
1.39479
1.3779
1.35588
1.32954
1.30701
1.29693
1.29398
1.29358
1.2978
1.29902
1.29533
1.29062
1.28195
1.26356
1.23752
1.2185
1.21377
1.21169
1.21141
1.21035
1.20714
1.20331
1.19773
1.18522
1.16493
1.15203
1.14874
1.14585
1.14256
1.13865
1.1336
1.12554
1.11366
1.10595
1.10342
1.10099
1.09783
1.09381
1.08777
1.07707
1.06313
1.05627
1.05423
1.05272
1.051
1.04861
1.04566
1.04132
1.03334
1.02085
1.01202
1.00967
1.00823
1.00676
1.00489
1.00266
0.999775
0.994824
0.984375
0.969214
0.960904
0.959454
0.959157
0.961651
0.963864
0.962434
0.960378
0.957913
0.953166
0.942293
0.926596
0.91643
0.914802
0.914375
0.91658
0.920282
0.919866
0.917905
0.915225
0.909702
0.89913
0.888454
0.885454
0.8848
0.885505
0.887795
0.887539
0.885926
0.88341
0.87765
0.86721
0.858444
0.856614
0.856052
0.85532
0.853922
0.851259
0.846606
0.842222
0.840774
0.840066
0.839567
0.838398
0.836785
0.834696
0.831061
0.825175
0.821819
0.820753
0.819438
0.818445
0.817851
0.816754
0.815321
0.813413
0.810289
0.805135
0.799078
0.795943
0.794951
0.793935
0.792139
0.790341
0.788816
0.787761
0.787522
0.785896
0.786168
0.792803
0.812686
0.858253
0.923372
0.987645
1.03336
1.06466
1.08872
1.09803
1.10715
1.1113
1.11212
1.1134
1.11384
1.1135
1.11226
1.11053
1.11013
1.11086
1.11218
1.11398
1.11741
1.12214
1.12359
1.12376
1.12385
1.12285
1.11998
1.11858
1.11874
1.11892
1.11937
1.12031
1.12211
1.12364
1.12368
1.12304
1.12117
1.11752
1.113
1.11054
1.1105
1.11149
1.11532
1.12334
1.13062
1.13228
1.13197
1.1306
1.12715
1.11861
1.10853
1.10532
1.10556
1.1073
1.11283
1.1232
1.13083
1.13192
1.13131
1.12888
1.12261
1.11163
1.10501
1.10363
1.10317
1.10306
1.10547
1.1122
1.11693
1.11719
1.11651
1.11419
1.11332
1.13
1.26066
1.513
1.79169
1.86516
1.86881
1.86911
1.86426
1.8626
1.86838
1.88389
1.94331
2.05755
2.14726
2.20317
2.20794
2.20301
2.19663
2.19377
2.19116
2.19232
2.19688
2.19773
2.1945
2.18993
2.18371
2.17585
2.17031
2.16864
2.17181
2.17722
2.17779
2.17569
2.17168
2.16676
2.1606
1.619
1.62246
1.62103
1.61568
1.60836
1.59386
1.5654
1.52613
1.49775
1.48778
1.48168
1.47394
1.4649
1.45563
1.44907
1.44521
1.4433
1.43989
1.43245
1.4183
1.39931
1.37731
1.35203
1.33034
1.3201
1.31697
1.31629
1.32049
1.32312
1.31961
1.31461
1.30519
1.28634
1.25984
1.23912
1.23335
1.23133
1.23168
1.23185
1.22896
1.22519
1.21997
1.20803
1.18729
1.17096
1.16675
1.16383
1.16055
1.15697
1.1526
1.14606
1.13479
1.12377
1.12031
1.11807
1.11514
1.11126
1.10579
1.09658
1.08252
1.07314
1.07067
1.06888
1.06703
1.06466
1.06171
1.05752
1.05003
1.03761
1.02736
1.02455
1.02313
1.02179
1.02002
1.01787
1.01516
1.01068
1.00105
0.985779
0.975235
0.973229
0.972563
0.974336
0.977313
0.976442
0.974442
0.972061
0.967769
0.957678
0.941907
0.929705
0.927326
0.926736
0.928458
0.932602
0.932857
0.93088
0.928142
0.923414
0.913207
0.900524
0.895886
0.895204
0.89585
0.898632
0.898909
0.897349
0.894768
0.889242
0.879149
0.869774
0.86734
0.866375
0.865442
0.864398
0.862588
0.859036
0.854336
0.851942
0.850663
0.849412
0.848305
0.847077
0.845152
0.842204
0.837021
0.831427
0.829682
0.829027
0.82796
0.826817
0.826106
0.824952
0.823223
0.820683
0.816407
0.81105
0.806577
0.804136
0.803066
0.802323
0.801232
0.799522
0.797691
0.795508
0.792483
0.788121
0.784952
0.784305
0.785363
0.792533
0.815173
0.854563
0.917596
0.982354
1.04297
1.0671
1.08917
1.10179
1.10364
1.10806
1.1107
1.11025
1.10892
1.10805
1.10826
1.10913
1.11132
1.11545
1.12046
1.12318
1.12348
1.12338
1.12324
1.12202
1.11945
1.1186
1.11876
1.11887
1.11947
1.12123
1.1236
1.1245
1.12447
1.12378
1.12164
1.11803
1.11536
1.11544
1.11663
1.12004
1.12683
1.13277
1.13384
1.13346
1.13233
1.12962
1.12289
1.11309
1.10861
1.10856
1.10991
1.1144
1.12352
1.13137
1.13291
1.13267
1.13113
1.12639
1.11648
1.10826
1.10617
1.10586
1.10599
1.10867
1.11608
1.1235
1.12491
1.124
1.12151
1.12029
1.13726
1.26108
1.5762
1.76681
1.86985
1.894
1.88889
1.878
1.87317
1.87307
1.88158
1.92387
2.02943
2.1372
2.20829
2.22158
2.21479
2.20237
2.19765
2.19885
2.20486
2.20859
2.20437
2.19819
2.19187
2.18922
2.19172
2.19599
2.19768
2.19755
2.1905
2.1812
2.17432
2.16727
2.16419
2.16612
2.1695
1.65591
1.65559
1.64966
1.64153
1.62595
1.59697
1.55531
1.52209
1.50959
1.50424
1.49942
1.49319
1.48684
1.48189
1.47888
1.47588
1.4705
1.4592
1.44069
1.41981
1.39731
1.37405
1.35423
1.34442
1.34127
1.34055
1.34463
1.34809
1.34481
1.33915
1.32821
1.30831
1.28128
1.25992
1.25299
1.25104
1.25191
1.25373
1.25131
1.24759
1.24259
1.231
1.20985
1.19042
1.18457
1.18188
1.17879
1.17517
1.1712
1.16612
1.15775
1.14482
1.13717
1.13436
1.13149
1.12801
1.12334
1.11614
1.10376
1.09133
1.08758
1.0855
1.0833
1.08075
1.07769
1.07355
1.06661
1.05475
1.04338
1.03986
1.03831
1.037
1.03533
1.03324
1.03068
1.02664
1.018
1.00275
0.989936
0.987152
0.986222
0.987372
0.990424
0.990194
0.988348
0.986102
0.982309
0.973315
0.957758
0.943796
0.940269
0.939458
0.940597
0.944948
0.946228
0.944483
0.941685
0.93651
0.926171
0.913835
0.907818
0.907055
0.907302
0.909689
0.910238
0.908741
0.906422
0.901455
0.891447
0.881175
0.878228
0.877441
0.876418
0.87506
0.87348
0.870367
0.865169
0.862238
0.861284
0.86012
0.858513
0.856858
0.855103
0.852579
0.848238
0.843075
0.83951
0.838178
0.837448
0.836542
0.835346
0.83436
0.833165
0.831145
0.827641
0.821973
0.817118
0.814649
0.812438
0.811022
0.810269
0.809433
0.808243
0.806682
0.804443
0.800707
0.794245
0.788295
0.787078
0.787295
0.787689
0.789425
0.795277
0.815191
0.853998
0.912117
0.979328
1.03328
1.0817
1.0938
1.10279
1.10781
1.10588
1.10679
1.10877
1.10855
1.10975
1.11362
1.11963
1.12293
1.12351
1.12341
1.12269
1.12164
1.11994
1.11772
1.11727
1.11751
1.11769
1.11844
1.12112
1.12415
1.12483
1.12484
1.12414
1.12192
1.11987
1.1201
1.12156
1.1245
1.12948
1.13408
1.13504
1.13471
1.1338
1.1317
1.12664
1.11786
1.11242
1.11192
1.1129
1.11641
1.124
1.13159
1.13358
1.13352
1.13252
1.12914
1.12098
1.11234
1.10942
1.1091
1.10952
1.11275
1.12077
1.12941
1.13149
1.13041
1.12763
1.12631
1.15122