/*--------------------------------*- C++ -*----------------------------------*\
  =========                 |
  \\      /  F ield         | OpenFOAM: The Open Source CFD Toolbox
   \\    /   O peration     | Website:  https://openfoam.org
    \\  /    A nd           | Version:  7
     \\/     M anipulation  |
\*---------------------------------------------------------------------------*/
FoamFile
{
    version     2.0;
    format      ascii;
    class       volScalarField;
    location    "1.2";
    object      p;
}
// * * * * * * * * * * * * * * * * * * * * * * * * * * * * * * * * * * * * * //

dimensions      [1 -1 -2 0 0 0 0];

internalField   nonuniform List<scalar> 
4080
(
1
1
1
1
1
1
1
1
1
1
1
1
1
1
1
1
1
1.4929
7.99406
10.8521
11.1101
11.4463
11.6945
11.9005
1
1
1
1
1
1
1
1
1
1
1
1
1
1
1
1
1
1.38412
7.66019
10.7671
11.0255
11.3363
11.5467
11.6407
1
1
1
1
1
1
1
1
1
1
1
1
1
1
1
1
1
1.12974
6.96374
10.5736
10.7873
11.0085
11.1404
11.2946
1
1
1
1
1
1
1
1
1
1
1
1
1
1
1
1
1
1.00615
5.85018
10.2096
10.4469
10.655
10.7374
11.0164
1
1
1
1
1
1
1
1
1
1
1
1
1
1
1
1
1
1.00002
4.44298
9.63517
10.0785
10.1206
9.50752
7.92903
1
1
1
1
1
1
1
1
1
1
1
1
1
1
1
1
1
1
2.84288
8.74349
9.76133
9.55176
8.78326
7.20116
1
1
1
1
1
1
1
1
1
1
1
1
1
1
1
1
1
1
1.37863
7.3797
9.58445
9.00775
8.20831
6.62021
1
1
1
1
1
1
1
1
1
1
1
1
1
1
1
1
1
1
1.01639
5.40598
8.78683
8.27331
7.6374
6.3452
1
1
1
1
1
1
1
1
1
1
1
1
1
1
1
1
1
1
0.9999
2.7575
7.74443
8.06251
7.35602
6.32169
1
1
1
1
1
1
1
1
1
1
1
1
1
1
1
1
1
1
0.999974
1.22691
5.66074
7.93095
7.18125
6.32482
1
1
1
1
1
1
1
1
1
1
1
1
1
1
1
1
1
1
0.999996
1.00414
2.71699
6.99454
7.07654
6.33872
1
1
1
1
1
1
1
1
1
1
1
1
1
1
1
1
1
1
1
1.00001
1.21656
4.90075
7.11444
6.42719
1
1
1
1
1
1
1
1
1
1
1
1
1
1
1
1
1
1
1
1
1.0042
2.10635
5.79832
6.49164
1
1
1
1
1
1
1
1
1
1
1
1
1
1
1
1
1
1
1
1
1.00002
1.09197
3.42512
6.07224
1
1
1
1
1
1
1
1
1
1
1
1
1
1
1
1
1
1
1
1
1
1.0013
1.44235
4.3307
1
1
1
1
1
1
1
1
1
1
1
1
1
1
1
1
1
1
1
1
1
1
1.01811
1.94335
1
1
1
1
1
1
1
1
1
1
1
1
1
1
1
1
1
1
1
1
1
1
1.00017
1.07336
1
1
1
1
1
1
1
1
1
1
1
1
1
1
1
1
1
1
1
1
1
1
1
1.00124
1
1
1
1
1
1
1
1
1
1
1
1
1
1
1
1
1
1
1
1
1
1
1
1.00001
1
1
1
1
1
1
1
1
1
1
1
1
1
1
1
1
1
1
1
1
1
1
1
1
1
1
1
1
1
1
1
1
1
1
1
1
1
1
1
1
1
1
1
1
1
1
1
1
1
1
1
1
1
1
1
1
1
1
1
1
1
1
1
1
1
1
1
1
1
1
1
1
1
1
1
1
1
1
1
1
1
1
1
1
1
1
1
1
1
1
1
1
1
1
1
1
1
1
1
1
1
1
1
1
1
1
1
1
1
1
1
1
1
1
1
1
1
1
1
1
1
1
1
1
1
1
1
1
1
1
1
1
1
1
1
1
1
1
1
1
1
1
1
1
1
1
1
1
1
1
1
1
1
1
1
1
1
1
1
1
1
1
1
1
1
1
1
1
1
1
1
1
1
1
1
1
1
1
1
1
1
1
1
1
1
1
1
1
1
1
1
1
1
1
1
1
1
1
1
1
1
1
1
1
1
1
1
1
1
1
1
1
1
1
1
1
1
1
1
1
1
1
1
1
1
1
1
1
1
1
1
1
1
1
1
1
1
1
1
1
1
1
1
1
1
1
1
1
1
1
1
1
1
1
1
1
1
1
1
1
1
1
1
1
1
1
1
1
1
1
1
1
1
1
1
1
1
1
1
1
1
1
1
1
1
1
1
1
1
1
1
1
1
1
1
1
1
1
1
1
1
1
1
1
1
1
1
1
1
1
1
1
1
1
1
1
1
1
1
1
1
1
1
1
1
1
1
1
1
1
1
1
1
1
1
1
1
1
1
1
1
1
1
1
1
1
1
1
1
1
1
1
1
1
1
1
1
1
1
1
1
1
1
1
1
1
1
1
1
1
1
1
1
1
1
1
1
1
1
1
1
1
1
1
1
1
1
1
1
1
1
1
1
1
1
1
1
1
1
1
1
1
1
1
1
1
1
1
1
1
1
1
1
1
1
1
1
1
1
1
1
1
1
1
1
1
1
1
1
1
1
1
1
1
1
1
1
1
1
1
1
1
1
1
1
1
1
1
1
1
1
1
1
1
1
1
1
1
1
1
1
1
1
1
1
1
1
1
1
1
1
1
1
1
1
1
1
1
1
1
1
1
1
1
1
1
1
1
1
1
1
1
1
1
1
1
1
1
1
1
1
1
1
1
2.14809
0.603567
1.39147
3.16296
3.84151
4.2026
4.39331
4.46955
4.48388
4.50319
4.50777
4.52087
3.37434
1.68655
2.26166
3.92081
4.24332
4.34369
4.43592
4.47242
4.46803
4.48151
4.47479
4.49149
4.227
2.60276
2.35496
3.4208
4.11337
4.17852
4.32798
4.39889
4.42773
4.46778
4.49777
4.54978
4.80962
3.38896
2.65721
3.09986
4.04153
4.31859
4.51983
4.53299
4.50647
4.52488
4.53963
4.6842
5.1796
4.02871
3.03164
3.04283
3.62619
4.32677
4.57277
4.4443
4.41467
4.41035
4.29385
3.65593
5.3846
4.47428
3.48611
3.12028
3.31679
3.99517
4.51279
4.45551
4.44627
4.42122
4.25097
3.72767
5.5324
4.77454
3.90979
3.29215
3.28501
3.64396
4.30173
4.43935
4.44228
4.42992
4.27447
3.87465
5.69991
4.97733
4.276
3.54217
3.29133
3.39404
3.98827
4.38794
4.42732
4.42988
4.3223
4.04686
5.8308
5.12101
4.53157
3.83128
3.38852
3.36136
3.61795
4.20771
4.38898
4.42419
4.36266
4.17741
5.9239
5.3445
4.74251
4.16291
3.58638
3.38318
3.47904
3.89325
4.2865
4.42057
4.38385
4.25284
5.84738
5.58014
4.9859
4.44634
3.86055
3.48028
3.4319
3.61931
4.08725
4.36317
4.38458
4.29817
4.68938
5.54407
5.23919
4.69104
4.17037
3.64005
3.43758
3.50145
3.78224
4.20544
4.36539
4.33033
2.40552
4.76091
5.29554
4.96972
4.46073
3.92973
3.53451
3.46118
3.58548
3.96803
4.28761
4.35115
1.16303
2.74438
4.69486
5.06623
4.75357
4.26619
3.73313
3.485
3.5193
3.68794
4.09596
4.31719
1.00422
1.26433
2.93125
4.5654
4.85293
4.5773
4.08343
3.60444
3.49865
3.583
3.84364
4.17296
1.00003
1.00933
1.34703
2.98907
4.41804
4.64491
4.42205
3.93125
3.57073
3.5339
3.6449
3.9672
1
1.00008
1.01504
1.39315
2.95941
4.25254
4.4537
4.27028
3.8356
3.56989
3.58239
3.70997
1
1
1.00015
1.01907
1.40224
2.85804
4.07707
4.28846
4.14197
3.78003
3.58081
3.63231
1
1
1
1.00021
1.02017
1.38124
2.69696
3.90472
4.13459
4.02828
3.74773
3.61989
1
1
1
1
1.00024
1.01897
1.33167
2.51456
3.68624
3.98125
3.93196
3.74762
1
1
1
1
1
1.00022
1.01551
1.26951
2.27422
3.46304
3.86168
3.84236
1
1
1
1
1
1
1.00017
1.01103
1.20414
2.02867
3.22256
3.72341
1
1
1
1
1
1
1
1.00011
1.00763
1.13529
1.77928
3.0158
1
1
1
1
1
1
1
1
1.00006
1.00416
1.08179
1.58904
1
1
1
1
1
1
1
1
1
1.00003
1.00202
1.04609
1
1
1
1
1
1
1
1
1
1
1.00001
1.00088
1
1
1
1
1
1
1
1
1
1
1
1
1
1
1
1
1
1
1
1
1
1
1
1
1
1
1
1
1
1
1
1
1
1
1
1
1
1
1
1
1
1
1
1
1
1
1
1
1
1
1
1
1
1
1
1
1
1
1
1
1
1
1
1
1
1
1
1
1
1
1
1
1
1
1
1
1
1
1
1
1
1
1
1
1
1
1
1
1
1
1
1
1
1
1
1
1
1
1
1
1
1
1
1
1
1
1
1
1
1
1
1
1
1
1
1
1
1
1
1
1.56623
1.01886
1.03806
1.15532
1.25566
1.37348
1.42215
1.39818
1.37121
1.34152
1.30335
1.27312
1.26247
1.25692
1.26107
1.26527
1.25964
1.25189
1.2414
1.23101
1.2225
1.21573
1.20707
1.19831
1.18815
1.17472
1.16246
1.15451
1.14853
1.1442
1.14172
1.13631
1.12826
1.11807
1.10375
1.09057
1.08274
1.07719
1.07426
1.07492
1.07181
1.0672
1.06111
1.0521
1.03865
1.02307
1.01153
1.00336
0.995966
0.990358
0.987982
0.982258
0.974025
0.964787
0.954193
0.942345
0.929992
0.918315
0.908135
0.900014
0.893772
0.889113
0.886318
0.88675
0.889815
0.889616
0.881269
0.863271
0.842954
0.827493
0.814578
0.809692
0.807788
0.80924
0.814375
0.819778
0.841576
0.888639
0.983723
1.12326
1.32836
1.55249
1.80226
2.19423
2.45203
1.77108
1.46689
1.35128
1.27002
1.2766
1.30948
1.29056
1.28616
1.28933
1.2954
1.29308
1.28392
1.2756
1.27111
1.26461
1.25572
1.24681
1.23777
1.22897
1.21889
1.20855
1.20034
1.19448
1.18856
1.18056
1.17163
1.16102
1.14864
1.13734
1.1302
1.1252
1.12235
1.11811
1.11204
1.10464
1.09472
1.08472
1.07533
1.06728
1.06312
1.06095
1.05631
1.04962
1.04178
1.03267
1.02166
1.00881
0.99719
0.987023
0.97778
0.970153
0.964138
0.956781
0.948975
0.941198
0.932995
0.924024
0.914779
0.905917
0.897827
0.890365
0.883723
0.879405
0.879259
0.877865
0.871225
0.861901
0.852829
0.841126
0.824712
0.819706
0.82707
0.848325
0.889824
0.956725
1.06041
1.17801
1.31544
1.43489
1.52818
1.60802
1.66272
1.72737
2.93863
2.23672
1.70535
1.39695
1.28714
1.20619
1.20679
1.25538
1.29194
1.32716
1.3415
1.33608
1.31808
1.30283
1.2844
1.26413
1.24406
1.23536
1.23404
1.23364
1.23031
1.22393
1.21159
1.19239
1.18229
1.17716
1.17096
1.16598
1.16071
1.15197
1.13673
1.12113
1.1125
1.1073
1.10629
1.10486
1.09969
1.09398
1.08668
1.07641
1.06526
1.0565
1.04893
1.04168
1.03571
1.03059
1.02435
1.01575
1.00603
0.994518
0.979581
0.96795
0.959911
0.950851
0.94248
0.935347
0.928661
0.922576
0.917081
0.912203
0.907527
0.902068
0.895626
0.886942
0.87196
0.847586
0.837926
0.839027
0.846881
0.865456
0.903108
0.959594
1.0435
1.13451
1.24131
1.34158
1.44991
1.53865
1.58057
1.61041
1.60879
1.60328
1.57571
1.5676
3.37537
2.70994
2.1763
1.71022
1.53588
1.40841
1.27432
1.2505
1.24604
1.24452
1.25941
1.28805
1.308
1.30686
1.29634
1.27677
1.24983
1.22959
1.22628
1.22466
1.22174
1.21964
1.21537
1.20173
1.18377
1.17299
1.16599
1.16037
1.15609
1.15029
1.13974
1.12536
1.11528
1.10893
1.10341
1.09905
1.09551
1.09108
1.08509
1.077
1.06731
1.0586
1.05166
1.04527
1.03805
1.02981
1.02193
1.01481
1.00692
0.996832
0.983162
0.970093
0.962737
0.9554
0.946999
0.940072
0.932874
0.924706
0.916887
0.909821
0.902781
0.89594
0.890008
0.88525
0.876517
0.854505
0.853787
0.877704
0.933741
1.02809
1.16439
1.29382
1.41896
1.50025
1.55227
1.60835
1.64434
1.65895
1.63602
1.62079
1.58588
1.5544
1.53444
1.50401
3.72313
3.12223
2.60644
2.11544
1.79529
1.60403
1.40223
1.27379
1.2474
1.20871
1.20772
1.2394
1.27117
1.29072
1.30074
1.29792
1.2822
1.25481
1.24036
1.23191
1.22211
1.21437
1.20928
1.19922
1.18309
1.1754
1.17138
1.16665
1.15987
1.15021
1.13719
1.12474
1.11606
1.11066
1.10547
1.10042
1.0974
1.09394
1.08725
1.07787
1.06954
1.06225
1.05576
1.04918
1.0421
1.03475
1.02667
1.01776
1.0074
0.995533
0.981702
0.968365
0.962245
0.957176
0.951148
0.944746
0.937657
0.929218
0.919952
0.909575
0.899865
0.889929
0.881756
0.877926
0.884982
0.924104
1.01372
1.14999
1.32244
1.46319
1.55487
1.61078
1.61914
1.62739
1.63352
1.65343
1.65645
1.65757
1.6375
1.5986
1.55574
1.5282
1.51188
1.48771
3.9404
3.47328
2.98678
2.49928
2.12106
1.88183
1.66154
1.45864
1.38415
1.30967
1.24002
1.22848
1.23864
1.23444
1.23158
1.23639
1.25174
1.2657
1.27241
1.26857
1.25688
1.23517
1.21272
1.1915
1.17414
1.16799
1.16399
1.16099
1.15704
1.14904
1.13764
1.12773
1.11994
1.11317
1.10694
1.09941
1.09287
1.08706
1.07833
1.07068
1.06608
1.06126
1.05631
1.05138
1.04606
1.03939
1.03043
1.01886
1.00574
0.994005
0.983763
0.972876
0.963721
0.956971
0.950648
0.944076
0.937492
0.928992
0.918353
0.906088
0.895979
0.889522
0.898252
0.93494
1.03791
1.20755
1.42913
1.62651
1.73432
1.77482
1.74599
1.70722
1.66196
1.63537
1.63152
1.64211
1.64842
1.63678
1.60952
1.56562
1.5159
1.48852
1.47324
1.45329
4.07947
3.71378
3.29498
2.85122
2.45071
2.16697
1.91179
1.68057
1.55811
1.45797
1.32398
1.23575
1.23516
1.21262
1.19618
1.20417
1.22949
1.25002
1.25409
1.25768
1.25783
1.24814
1.22772
1.20918
1.19307
1.17997
1.17004
1.15875
1.14456
1.13401
1.12789
1.12294
1.12014
1.11953
1.11622
1.10832
1.0978
1.08591
1.07348
1.06758
1.06527
1.06198
1.05812
1.05487
1.05154
1.04596
1.03568
1.02139
1.00612
0.994039
0.98567
0.976997
0.968134
0.96084
0.955646
0.949327
0.941336
0.930476
0.917613
0.90651
0.909089
0.938226
1.04257
1.2357
1.47985
1.70876
1.83523
1.88291
1.88182
1.85109
1.78772
1.71541
1.66766
1.63238
1.61471
1.61666
1.60638
1.58363
1.55665
1.51979
1.47905
1.45384
1.44002
1.42635
4.17862
3.90142
3.54482
3.1346
2.76105
2.46565
2.18011
1.90306
1.7564
1.63929
1.49128
1.35458
1.31718
1.26554
1.21557
1.21088
1.22148
1.22116
1.21377
1.21571
1.2239
1.23166
1.23552
1.23584
1.22926
1.21377
1.19344
1.17136
1.14312
1.12636
1.11936
1.11356
1.11137
1.11292
1.11108
1.10421
1.09323
1.08144
1.07365
1.07129
1.06969
1.06665
1.06243
1.05855
1.05397
1.0462
1.03232
1.01648
1.00405
0.992933
0.984873
0.978471
0.972037
0.965201
0.958909
0.950822
0.940041
0.925293
0.927117
0.952773
1.0572
1.26477
1.54035
1.80914
1.94788
1.96512
1.94417
1.91899
1.88863
1.83873
1.77746
1.71214
1.66307
1.61717
1.58395
1.56568
1.5463
1.52691
1.50702
1.48289
1.46136
1.44419
1.43859
1.42364
4.25357
4.04193
3.7481
3.37644
3.01333
2.73524
2.44866
2.14849
1.96938
1.82547
1.6547
1.50628
1.44217
1.3703
1.28103
1.22089
1.21953
1.21144
1.19145
1.19185
1.20418
1.21831
1.22593
1.22579
1.22199
1.21692
1.20567
1.18843
1.16365
1.13995
1.12674
1.11726
1.10811
1.10471
1.10136
1.09363
1.0855
1.08035
1.07779
1.07665
1.0757
1.07362
1.06919
1.06405
1.05709
1.0459
1.03026
1.01686
1.00729
0.995642
0.986444
0.981198
0.9757
0.968367
0.960638
0.949733
0.943119
0.960825
1.05798
1.26866
1.57198
1.8518
2.07808
2.12693
2.07392
1.98939
1.9412
1.8992
1.84021
1.7836
1.73334
1.69492
1.6512
1.58689
1.53002
1.50506
1.49072
1.48102
1.47315
1.46417
1.45707
1.45189
1.4352
1.39752
4.30772
4.15584
3.91359
3.60128
3.25724
2.96128
2.6814
2.4021
2.19898
2.02834
1.83468
1.66349
1.58391
1.50762
1.39845
1.29474
1.28103
1.25376
1.20849
1.19492
1.20007
1.20544
1.20093
1.1961
1.19428
1.19653
1.19765
1.19317
1.18137
1.1653
1.14974
1.1349
1.11748
1.10421
1.09567
1.08668
1.08198
1.08063
1.08033
1.0801
1.0781
1.07375
1.06797
1.06142
1.05321
1.04261
1.03155
1.0229
1.01499
1.00453
0.99303
0.983889
0.97733
0.971154
0.966104
0.983653
1.06372
1.25951
1.58557
1.86869
2.04678
2.17991
2.20382
2.16617
2.07128
1.96283
1.90306
1.83465
1.77295
1.73285
1.70062
1.66696
1.62125
1.55009
1.49194
1.46814
1.45216
1.44337
1.44855
1.4599
1.45685
1.43546
1.40155
1.35165
4.30517
4.24079
4.0599
3.78124
3.47818
3.20713
2.90894
2.60664
2.40961
2.24548
2.0393
1.84221
1.7431
1.64393
1.52263
1.40535
1.37121
1.32653
1.26014
1.20658
1.19834
1.20026
1.18494
1.17461
1.17708
1.18412
1.18639
1.18503
1.18168
1.17584
1.16737
1.15379
1.13393
1.11345
1.09854
1.08842
1.0816
1.07993
1.08094
1.0822
1.08075
1.07513
1.06426
1.05459
1.04743
1.04132
1.03618
1.03027
1.02271
1.01314
1.00155
0.99274
0.986689
1.00782
1.08116
1.27569
1.57149
1.90131
2.08795
2.20042
2.23602
2.217
2.17049
2.09065
1.98341
1.91607
1.86317
1.79754
1.7477
1.70451
1.66528
1.63043
1.58425
1.52028
1.47465
1.45113
1.43349
1.42691
1.44009
1.44126
1.42111
1.39487
1.35705
1.30527
4.23808
4.28153
4.16711
3.95485
3.66565
3.39233
3.12892
2.84832
2.61601
2.42914
2.21886
2.03162
1.92116
1.81106
1.66186
1.52113
1.47495
1.42644
1.35212
1.262
1.24244
1.23576
1.20089
1.17609
1.17484
1.1793
1.17763
1.16539
1.1612
1.16312
1.16263
1.15493
1.13862
1.12206
1.11007
1.10106
1.09194
1.08434
1.08266
1.08182
1.07973
1.07401
1.06261
1.05195
1.04632
1.04266
1.03795
1.0318
1.02496
1.01978
1.01496
1.0363
1.10776
1.31097
1.61896
1.90973
2.11331
2.28818
2.30813
2.27701
2.20255
2.12606
2.07376
2.01185
1.95195
1.9078
1.85782
1.79755
1.73372
1.67448
1.62419
1.583
1.548
1.51175
1.47421
1.44399
1.42706
1.42197
1.41712
1.39496
1.37294
1.35088
1.31699
1.27143
4.02736
4.24515
4.24119
4.08523
3.84608
3.59687
3.31565
3.02677
2.82311
2.64056
2.4122
2.20498
2.08595
1.96567
1.82252
1.6767
1.60509
1.53713
1.44741
1.34057
1.30958
1.29199
1.24656
1.19678
1.17252
1.17243
1.16799
1.14806
1.14398
1.14961
1.15337
1.14834
1.13632
1.1264
1.12051
1.11553
1.10766
1.09694
1.08951
1.08367
1.07708
1.06884
1.05989
1.05204
1.04809
1.04444
1.03867
1.03253
1.03078
1.05539
1.14181
1.34496
1.64002
1.9697
2.1703
2.31422
2.37558
2.36057
2.29235
2.18189
2.09827
2.06541
2.03196
1.97199
1.92992
1.89766
1.85405
1.79042
1.71207
1.6381
1.5789
1.54051
1.51676
1.49855
1.47932
1.45336
1.42251
1.39394
1.36297
1.33964
1.32007
1.3028
1.28531
1.26037
3.7873
4.07797
4.23306
4.18818
4.00207
3.76668
3.51987
3.24505
3.00768
2.81284
2.58477
2.38812
2.26224
2.13493
1.96183
1.81343
1.74676
1.67331
1.57717
1.44362
1.39069
1.36671
1.31374
1.24888
1.20501
1.2015
1.19006
1.15662
1.14264
1.14525
1.14787
1.14001
1.12345
1.11798
1.11721
1.11556
1.10928
1.102
1.09705
1.0923
1.08423
1.07285
1.06234
1.05442
1.05006
1.04811
1.05173
1.07317
1.14631
1.37245
1.71506
1.98852
2.23356
2.41574
2.42585
2.38715
2.33665
2.27973
2.21746
2.14197
2.07608
2.04355
1.99406
1.93161
1.89219
1.86585
1.83154
1.78119
1.70236
1.60745
1.54717
1.52006
1.50989
1.50001
1.47496
1.44535
1.40824
1.35422
1.30875
1.29038
1.27789
1.26598
1.26811
1.25586
3.68351
3.88079
4.11501
4.20054
4.1228
3.94446
3.69739
3.4236
3.21591
3.01327
2.76756
2.54856
2.41699
2.28385
2.12535
1.97205
1.88337
1.79913
1.69445
1.56755
1.50529
1.46398
1.40071
1.30723
1.24397
1.2431
1.22874
1.18846
1.15367
1.14919
1.14962
1.13308
1.10966
1.10762
1.10919
1.1092
1.10299
1.0991
1.09878
1.09786
1.0922
1.07972
1.06805
1.06035
1.05951
1.07712
1.16569
1.37686
1.703
2.08442
2.29354
2.41066
2.48755
2.47113
2.39438
2.31285
2.27375
2.23618
2.18219
2.12321
2.04749
1.98112
1.94549
1.91196
1.88456
1.85636
1.81384
1.75686
1.68122
1.59386
1.53827
1.51675
1.50984
1.49375
1.46558
1.42821
1.38352
1.32552
1.28242
1.25872
1.24857
1.25309
1.26056
1.23317
3.66476
3.7288
3.95078
4.15266
4.1757
4.06827
3.87903
3.61387
3.38991
3.19166
2.94427
2.73943
2.59916
2.44824
2.24779
2.10431
2.03255
1.9394
1.82425
1.68145
1.61897
1.57351
1.50136
1.40673
1.3237
1.30425
1.27959
1.23046
1.18077
1.17539
1.17476
1.15308
1.12207
1.10926
1.10911
1.10848
1.09732
1.089
1.08888
1.0883
1.08235
1.07191
1.0727
1.08557
1.15718
1.36858
1.78942
2.12033
2.4319
2.52837
2.50787
2.49139
2.47434
2.41786
2.32994
2.25846
2.22388
2.18478
2.13204
2.07206
2.0093
1.95491
1.92458
1.89944
1.86767
1.82486
1.7748
1.72357
1.66606
1.60724
1.56351
1.53402
1.50093
1.46251
1.42229
1.38075
1.34364
1.30923
1.2798
1.24529
1.22265
1.21391
1.20455
1.17294
3.74209
3.69689
3.77342
4.00201
4.15614
4.14718
4.02075
3.78991
3.57338
3.37305
3.12188
2.90913
2.76595
2.61272
2.41827
2.25802
2.16217
2.05878
1.93947
1.80856
1.74593
1.68816
1.60695
1.49599
1.41143
1.39088
1.35777
1.30218
1.22861
1.20698
1.20548
1.18119
1.14007
1.11694
1.11627
1.11411
1.09659
1.08031
1.07711
1.07493
1.07095
1.0789
1.12998
1.31638
1.66803
2.16803
2.50159
2.61519
2.67327
2.62761
2.5343
2.4627
2.4211
2.37351
2.30667
2.24146
2.18384
2.12609
2.06663
2.02
1.99032
1.95889
1.91928
1.87721
1.82772
1.77351
1.73083
1.705
1.67796
1.63802
1.57422
1.50308
1.45319
1.41049
1.37441
1.34467
1.32148
1.31011
1.29115
1.25636
1.20991
1.17782
1.15609
1.12199
3.74652
3.72989
3.74552
3.83479
4.03585
4.15508
4.11855
3.95987
3.75108
3.54496
3.28286
3.08706
2.93886
2.77253
2.55798
2.41877
2.32104
2.20021
2.06083
1.91754
1.86411
1.80218
1.714
1.61019
1.51796
1.4813
1.43781
1.37606
1.30073
1.27412
1.26313
1.23119
1.17412
1.13449
1.13479
1.13152
1.11059
1.08894
1.08267
1.08957
1.12162
1.26838
1.62355
2.04958
2.43907
2.75606
2.74132
2.68914
2.62186
2.55585
2.483
2.42219
2.367
2.32406
2.27954
2.2277
2.1683
2.10052
2.03661
2.00462
1.97664
1.94093
1.89483
1.84186
1.78392
1.73924
1.71474
1.69642
1.67293
1.63853
1.57091
1.48165
1.42684
1.38668
1.3442
1.32861
1.32718
1.31646
1.29229
1.24915
1.18931
1.14243
1.11505
1.08607
3.5467
3.61104
3.68177
3.77358
3.89733
4.05156
4.13736
4.0813
3.93065
3.73744
3.471
3.25723
3.09976
2.93042
2.71521
2.58041
2.46638
2.34094
2.18401
2.04881
1.99529
1.91774
1.82191
1.70485
1.63063
1.59375
1.53695
1.46473
1.37287
1.34185
1.33122
1.29669
1.23562
1.1786
1.17173
1.15966
1.13144
1.10861
1.12219
1.22897
1.51629
2.03485
2.44354
2.71005
2.82184
2.78347
2.67684
2.57344
2.52091
2.51014
2.44524
2.36486
2.30374
2.26186
2.23867
2.19303
2.12429
2.0708
2.04327
2.01611
1.97888
1.92667
1.85895
1.80929
1.77971
1.74449
1.71621
1.68909
1.66241
1.62172
1.55081
1.46618
1.41174
1.38012
1.35111
1.31784
1.29298
1.27399
1.24696
1.20168
1.15662
1.11926
1.0939
1.06536
2.68944
3.29143
3.56705
3.76639
3.85998
3.93054
4.06614
4.1173
4.06314
3.9116
3.6613
3.44322
3.28166
3.09448
2.86597
2.7374
2.61763
2.48919
2.31311
2.18797
2.12649
2.03431
1.93555
1.81734
1.74536
1.69741
1.63082
1.55612
1.46512
1.42907
1.40699
1.36288
1.29266
1.23115
1.22135
1.21038
1.19385
1.25191
1.48677
1.95792
2.50996
2.86623
2.87818
2.84975
2.78843
2.69068
2.59841
2.51931
2.46419
2.40039
2.33061
2.27273
2.23869
2.22508
2.21342
2.16183
2.07924
2.04316
2.0287
2.00225
1.95956
1.90122
1.8486
1.80901
1.76148
1.69806
1.65467
1.62479
1.59729
1.5661
1.52393
1.47587
1.42221
1.36888
1.32129
1.28856
1.26491
1.23953
1.20114
1.1637
1.13949
1.11239
1.08526
1.05139
1.42654
2.2686
3.01601
3.61192
3.7722
3.81765
3.98676
4.0837
4.07848
3.98201
3.79986
3.60925
3.45893
3.26565
3.03912
2.89827
2.76415
2.62429
2.43618
2.3347
2.25801
2.15343
2.04838
1.92506
1.86906
1.81166
1.73203
1.64692
1.54997
1.51999
1.49233
1.43896
1.36659
1.30463
1.28554
1.32784
1.49914
1.98896
2.50495
2.98217
3.15273
3.0807
2.94983
2.85707
2.74592
2.63373
2.54118
2.45009
2.35741
2.29159
2.23948
2.21032
2.19876
2.20185
2.17652
2.11114
2.02543
1.97245
1.95536
1.9284
1.88389
1.83945
1.81707
1.79056
1.74576
1.68052
1.62729
1.59589
1.56542
1.53063
1.48672
1.45231
1.41629
1.36793
1.31435
1.26921
1.2405
1.20974
1.16798
1.14099
1.12316
1.10279
1.08135
1.04456
1.02567
1.24759
1.83629
2.93501
3.44988
3.61148
3.85406
4.03665
4.07601
4.03943
3.92542
3.76972
3.63034
3.43079
3.21689
3.06441
2.92213
2.76385
2.57078
2.48059
2.38128
2.27346
2.15984
2.04564
1.99442
1.92062
1.83577
1.74104
1.64448
1.61757
1.57092
1.51431
1.44906
1.44704
1.57335
1.95337
2.58408
3.11528
3.37851
3.39873
3.30729
3.13606
2.959
2.82912
2.72465
2.6124
2.50134
2.4056
2.30963
2.24097
2.20407
2.18953
2.18863
2.16235
2.11187
2.05018
1.98846
1.94486
1.91334
1.87233
1.81118
1.78511
1.78008
1.77209
1.73617
1.66655
1.5994
1.56759
1.53907
1.50478
1.46704
1.44305
1.42076
1.37717
1.31635
1.26119
1.22389
1.19111
1.15654
1.14046
1.12272
1.09989
1.07785
1.03832
1.00034
1.01144
1.11063
1.6058
2.6764
3.25702
3.60953
3.92319
4.02571
4.05817
3.9878
3.90539
3.81935
3.62998
3.40718
3.22579
3.08058
2.89327
2.72689
2.63249
2.50754
2.39865
2.2613
2.17031
2.11906
2.02855
1.94108
1.8324
1.74338
1.71201
1.66151
1.62521
1.70982
2.03855
2.72122
3.2991
3.72336
3.73518
3.63937
3.44237
3.25562
3.09562
2.96399
2.85184
2.74908
2.64292
2.52042
2.41852
2.34299
2.28409
2.22978
2.18682
2.15697
2.12072
2.06915
2.01756
1.99212
1.94994
1.88151
1.81518
1.75376
1.72645
1.71672
1.71087
1.69059
1.64615
1.57547
1.53891
1.51427
1.48175
1.44073
1.40814
1.38469
1.35809
1.3183
1.26472
1.21875
1.18474
1.16619
1.1532
1.13416
1.10792
1.08394
1.04242
1
1.00011
1.00369
1.05704
1.47229
2.2883
2.95165
3.6943
3.93696
3.93519
3.98987
4.00124
3.95024
3.77386
3.55664
3.38169
3.24091
3.02491
2.88891
2.76806
2.63275
2.51811
2.36532
2.30263
2.2407
2.13225
2.04671
1.92283
1.85146
1.81195
1.87534
2.14028
2.79015
3.62514
4.17785
4.183
4.01989
3.81514
3.6255
3.44273
3.28714
3.16156
3.05587
2.95766
2.8452
2.71775
2.58808
2.47009
2.38058
2.32324
2.27539
2.20562
2.13457
2.08987
2.05968
2.03216
1.99068
1.92423
1.83929
1.76863
1.71792
1.69045
1.67861
1.66602
1.64488
1.60346
1.53312
1.50297
1.48449
1.45393
1.41227
1.37876
1.35671
1.33079
1.29536
1.25784
1.22093
1.17657
1.1376
1.12025
1.10261
1.07709
1.05451
1.01847
1
1
1.00003
1.00149
1.03465
1.26753
1.76814
2.79584
3.62418
3.73955
3.92048
4.02711
3.99423
3.8634
3.69778
3.57137
3.40411
3.17516
3.04868
2.89492
2.76851
2.62707
2.48465
2.43907
2.35374
2.23902
2.14788
2.04539
2.03682
2.24899
2.91989
3.78706
4.50114
4.6564
4.55412
4.34065
4.07296
3.83087
3.6572
3.52073
3.39673
3.2606
3.10853
2.96989
2.85954
2.76013
2.65596
2.55717
2.4758
2.39873
2.30052
2.18674
2.11734
2.08695
2.06109
2.02526
1.97787
1.91116
1.82904
1.75833
1.70488
1.67641
1.65937
1.63545
1.60391
1.56033
1.49901
1.4685
1.4529
1.42481
1.3803
1.34287
1.32473
1.3084
1.28563
1.25307
1.21696
1.17229
1.13043
1.11095
1.09288
1.06842
1.04654
1.01059
1
1
1
1.00001
1.00055
1.01216
1.09541
1.48834
2.57842
3.29974
3.74115
3.99089
4.03356
4.02139
3.91356
3.77775
3.54491
3.35188
3.19642
3.03237
2.90939
2.7189
2.62162
2.56614
2.45065
2.36574
2.3158
2.47012
3.04131
4.05439
4.7298
5.16352
5.21758
5.08429
4.83916
4.51867
4.18433
3.92863
3.74593
3.58796
3.43512
3.28109
3.12847
2.99491
2.89758
2.81451
2.72691
2.63597
2.55228
2.46724
2.34002
2.19279
2.12821
2.10755
2.08529
2.04632
1.98566
1.90527
1.81949
1.76681
1.73134
1.69895
1.6736
1.63375
1.58659
1.53264
1.47112
1.44658
1.42944
1.4004
1.3536
1.31345
1.29705
1.2851
1.27252
1.25488
1.21663
1.15126
1.11115
1.09955
1.08504
1.06189
1.04459
1.01763
1
1
1
1
1
1.0001
1.00276
1.03715
1.37712
2.24231
3.00237
3.76227
4.00147
4.00929
3.94629
3.86862
3.68538
3.48895
3.30973
3.17666
3.03125
2.83292
2.7605
2.6873
2.60885
2.75068
3.3372
4.41541
5.26776
5.77059
5.62584
5.50413
5.31855
5.0613
4.77101
4.47205
4.19468
3.97921
3.80898
3.65192
3.49609
3.34631
3.21028
3.07984
2.97101
2.87043
2.76887
2.6717
2.57145
2.4613
2.35264
2.25653
2.20113
2.15936
2.11978
2.07281
2.00095
1.91822
1.84026
1.77288
1.71788
1.6673
1.63778
1.61406
1.57006
1.51632
1.47891
1.44522
1.40159
1.36499
1.32517
1.29786
1.28792
1.27567
1.2558
1.22639
1.18457
1.1282
1.1039
1.09541
1.08213
1.06177
1.0389
0.99597
1
1
1
1
1
1
1.00002
1.00079
1.0252
1.24385
1.70266
2.82005
3.66131
3.88917
3.93434
3.93166
3.80008
3.60892
3.45357
3.35854
3.12309
2.98281
2.92613
3.00818
3.59562
4.75943
5.98301
6.56151
6.44317
6.28451
5.94448
5.57608
5.25015
4.95286
4.67913
4.44862
4.25885
4.08071
3.91271
3.75219
3.58929
3.42282
3.30754
3.22897
3.12118
2.99212
2.86751
2.7568
2.63884
2.49577
2.36893
2.33899
2.31079
2.25695
2.19132
2.11947
2.05116
1.98315
1.90495
1.82426
1.75065
1.67291
1.6269
1.60676
1.58347
1.55006
1.51404
1.46106
1.38364
1.33459
1.31943
1.30916
1.29745
1.27934
1.25035
1.21531
1.16833
1.1259
1.11336
1.10368
1.08962
1.06977
1.0458
0.99558
1
1
1
1
1
1
1
1
1.0004
1.01052
1.06933
1.47526
2.63908
3.35899
3.85764
3.94533
3.91888
3.82872
3.67742
3.53509
3.29214
3.28377
3.71587
4.95816
6.60413
7.35911
7.2
6.89976
6.53207
6.18107
5.9211
5.6945
5.43095
5.11034
4.79181
4.50481
4.25825
4.07731
3.94991
3.83773
3.71355
3.57217
3.41291
3.23222
3.06921
2.92974
2.81585
2.72346
2.64392
2.55745
2.46559
2.36982
2.28084
2.21072
2.14596
2.08284
2.0193
1.94961
1.86481
1.77405
1.69871
1.65234
1.62506
1.59738
1.5625
1.52509
1.48171
1.42271
1.35743
1.31259
1.2864
1.27272
1.26192
1.24828
1.229
1.20104
1.15472
1.10198
1.08364
1.07413
1.06253
1.04647
1.02692
0.983176
1
1
1
1
1
1
1
1
1
1.00007
1.00153
1.03346
1.41219
2.14873
3.08682
3.81055
3.86072
3.7899
3.76458
3.79003
4.0945
5.14699
6.85606
8.13744
8.50736
8.25738
7.74107
7.02765
6.46067
6.14203
5.92689
5.70117
5.43121
5.13848
4.83444
4.54835
4.31986
4.15553
4.02204
3.88768
3.74578
3.59649
3.42997
3.24788
3.0807
2.94838
2.85125
2.7648
2.67028
2.56951
2.47442
2.37875
2.2933
2.22203
2.15769
2.09678
2.0354
1.96437
1.87217
1.77251
1.69886
1.65909
1.62992
1.60022
1.56775
1.53187
1.48559
1.41443
1.34267
1.30104
1.279
1.26692
1.2563
1.24253
1.22349
1.19549
1.14824
1.09805
1.07957
1.06976
1.05888
1.04399
1.02392
0.977592
1
1
1
1
1
1
1
1
1
1
1.00001
1.00064
1.0275
1.18224
1.6787
2.92145
3.49756
3.91917
4.61527
5.63725
6.99854
8.25105
8.93307
8.98784
8.51416
7.93098
7.31871
6.94848
6.67616
6.40504
6.12628
5.81952
5.51437
5.22991
4.94705
4.69915
4.50917
4.35461
4.20375
4.04388
3.87936
3.70809
3.52376
3.33726
3.17688
3.05699
2.95904
2.86164
2.75831
2.65307
2.5483
2.44971
2.36555
2.29565
2.23473
2.17693
2.11403
2.03124
1.91779
1.80578
1.74362
1.71065
1.68255
1.65505
1.62421
1.58415
1.52335
1.43154
1.35609
1.32395
1.30736
1.29512
1.28271
1.26736
1.247
1.21677
1.16808
1.11724
1.09442
1.08276
1.07089
1.05459
1.03235
0.984158
1
1
1
1
1
1
1
1
1
1
1
1
1.00039
1.00601
1.06711
1.64447
3.09173
5.05506
7.43908
10.1955
11.7839
11.866
10.9981
9.56698
8.30419
7.50415
7.04103
6.77784
6.54626
6.31111
6.03844
5.71298
5.37294
5.05968
4.78526
4.56219
4.3916
4.25152
4.10979
3.95181
3.78278
3.60589
3.41765
3.23066
3.07381
2.95578
2.86137
2.77248
2.67652
2.57108
2.46226
2.36345
2.28704
2.22603
2.17013
2.11406
2.04852
1.95473
1.82879
1.72776
1.68195
1.6562
1.63425
1.61137
1.58292
1.54004
1.46383
1.361
1.30352
1.27938
1.26513
1.25439
1.24378
1.23089
1.21297
1.17986
1.12501
1.08049
1.06442
1.05472
1.04418
1.02742
1.00124
0.953708
)
;

boundaryField
{
    inlet
    {
        type            fixedValue;
        value           uniform 1;
    }
    outlet
    {
        type            zeroGradient;
    }
    bottom
    {
        type            zeroGradient;
    }
    top
    {
        type            zeroGradient;
    }
    obstacle
    {
        type            zeroGradient;
    }
    defaultFaces
    {
        type            empty;
    }
}


// ************************************************************************* //
