/*--------------------------------*- C++ -*----------------------------------*\
  =========                 |
  \\      /  F ield         | OpenFOAM: The Open Source CFD Toolbox
   \\    /   O peration     | Website:  https://openfoam.org
    \\  /    A nd           | Version:  7
     \\/     M anipulation  |
\*---------------------------------------------------------------------------*/
FoamFile
{
    version     2.0;
    format      ascii;
    class       volScalarField;
    location    "2.7";
    object      rho;
}
// * * * * * * * * * * * * * * * * * * * * * * * * * * * * * * * * * * * * * //

dimensions      [1 -3 0 0 0 0 0];

internalField   nonuniform List<scalar> 
4048
(
1.40001
1.40001
1.40001
1.40001
1.40001
1.40001
1.40001
1.40001
1.40001
1.40001
1.40001
1.40001
1.40001
1.40001
1.40001
1.44062
4.08389
5.47405
5.54366
5.63963
5.731
5.81491
5.88669
5.94993
1.40001
1.40001
1.40001
1.40001
1.40001
1.40001
1.40001
1.40001
1.40001
1.40001
1.40001
1.40001
1.40001
1.40001
1.40001
1.40554
3.98903
5.44801
5.52159
5.61398
5.70368
5.78318
5.84184
5.87522
1.40001
1.40001
1.40001
1.40001
1.40001
1.40001
1.40001
1.40001
1.40001
1.40001
1.40001
1.40001
1.40001
1.40001
1.40001
1.40014
3.78852
5.40326
5.47904
5.55972
5.63552
5.69031
5.72501
5.76458
1.40001
1.40001
1.40001
1.40001
1.40001
1.40001
1.40001
1.40001
1.40001
1.40001
1.40001
1.40001
1.40001
1.40001
1.40001
1.4
3.486
5.32685
5.42117
5.4921
5.56006
5.61178
5.60828
5.69284
1.40001
1.40001
1.40001
1.40001
1.40001
1.40001
1.40001
1.40001
1.40001
1.40001
1.40001
1.40001
1.40001
1.40001
1.40001
1.4
3.09118
5.21133
5.3611
5.41275
5.45319
5.47112
5.30295
4.99504
1.40001
1.40001
1.40001
1.40001
1.40001
1.40001
1.40001
1.40001
1.40001
1.40001
1.40001
1.40001
1.40001
1.40001
1.40001
1.40001
2.62605
5.05282
5.34625
5.36413
5.36824
5.342
5.21089
4.99109
1.40001
1.40001
1.40001
1.40001
1.40001
1.40001
1.40001
1.40001
1.40001
1.40001
1.40001
1.40001
1.40001
1.40001
1.40001
1.40001
2.08539
4.80468
5.35389
5.32455
5.30806
5.2508
5.12265
4.94536
1.40001
1.40001
1.40001
1.40001
1.40001
1.40001
1.40001
1.40001
1.40001
1.40001
1.40001
1.40001
1.40001
1.40001
1.40001
1.40001
1.53375
4.42175
5.41254
5.31952
5.23779
5.1549
5.04963
4.92166
1.40001
1.40001
1.40001
1.40001
1.40001
1.40001
1.40001
1.40001
1.40001
1.40001
1.40001
1.40001
1.40001
1.40001
1.40001
1.40001
1.4028
3.69262
5.15955
5.1858
5.15306
5.07826
4.99379
4.89588
1.40001
1.40001
1.40001
1.40001
1.40001
1.40001
1.40001
1.40001
1.40001
1.40001
1.40001
1.40001
1.40001
1.40001
1.40001
1.40001
1.39996
2.78116
4.95775
5.14314
5.1167
5.05186
4.96771
4.8661
1.40001
1.40001
1.40001
1.40001
1.40001
1.40001
1.40001
1.40001
1.40001
1.40001
1.40001
1.40001
1.40001
1.40001
1.40001
1.40001
1.39999
1.88833
4.67345
5.19187
5.09221
5.00576
4.91653
4.80841
1.40001
1.40001
1.40001
1.40001
1.40001
1.40001
1.40001
1.40001
1.40001
1.40001
1.40001
1.40001
1.40001
1.40001
1.40001
1.40001
1.4
1.44738
3.88327
5.03556
4.99822
4.94514
4.867
4.75839
1.40001
1.40001
1.40001
1.40001
1.40001
1.40001
1.40001
1.40001
1.40001
1.40001
1.40001
1.40001
1.40001
1.40001
1.40001
1.40001
1.4
1.40003
2.70063
4.80896
4.98697
4.94742
4.86004
4.73268
1.40001
1.40001
1.40001
1.40001
1.40001
1.40001
1.40001
1.40001
1.40001
1.40001
1.40001
1.40001
1.40001
1.40001
1.40001
1.40001
1.40001
1.4
1.67499
4.3871
5.03493
4.93777
4.83127
4.69092
1.40001
1.40001
1.40001
1.40001
1.40001
1.40001
1.40001
1.40001
1.40001
1.40001
1.40001
1.40001
1.40001
1.40001
1.40001
1.40001
1.40001
1.4
1.40989
3.29775
4.85393
4.87041
4.78174
4.65888
1.40001
1.40001
1.40001
1.40001
1.40001
1.40001
1.40001
1.40001
1.40001
1.40001
1.40001
1.40001
1.40001
1.40001
1.40001
1.40001
1.40001
1.4
1.39996
1.93581
4.61702
4.92863
4.78906
4.6546
1.40001
1.40001
1.40001
1.40001
1.40001
1.40001
1.40001
1.40001
1.40001
1.40001
1.40001
1.40001
1.40001
1.40001
1.40001
1.40001
1.40001
1.40001
1.39999
1.44206
3.62282
4.82252
4.75431
4.63547
1.40001
1.40001
1.40001
1.40001
1.40001
1.40001
1.40001
1.40001
1.40001
1.40001
1.40001
1.40001
1.40001
1.40001
1.40001
1.40001
1.40001
1.40001
1.4
1.40009
2.12954
4.56404
4.79494
4.65364
1.40001
1.40001
1.40001
1.40001
1.40001
1.40001
1.40001
1.40001
1.40001
1.40001
1.40001
1.40001
1.40001
1.40001
1.40001
1.40001
1.40001
1.40001
1.4
1.4
1.47628
3.61356
4.73123
4.64025
1.40001
1.40001
1.40001
1.40001
1.40001
1.40001
1.40001
1.40001
1.40001
1.40001
1.40001
1.40001
1.40001
1.40001
1.40001
1.40001
1.40001
1.40001
1.40001
1.4
1.40059
2.13204
4.37511
4.66387
1.40001
1.40001
1.40001
1.40001
1.40001
1.40001
1.40001
1.40001
1.40001
1.40001
1.40001
1.40001
1.40001
1.40001
1.40001
1.40001
1.40001
1.40001
1.40001
1.40001
1.40001
1.47338
3.32841
4.60216
1.40001
1.40001
1.40001
1.40001
1.40001
1.40001
1.40001
1.40001
1.40001
1.40001
1.40001
1.40001
1.40001
1.40001
1.40001
1.40001
1.40001
1.40001
1.40001
1.40001
1.40001
1.40079
1.9555
4.08705
1.40001
1.40001
1.40001
1.40001
1.40001
1.40001
1.40001
1.40001
1.40001
1.40001
1.40001
1.40001
1.40001
1.40001
1.40001
1.40001
1.40001
1.40001
1.40001
1.40001
1.40001
1.40001
1.44011
2.79129
1.40001
1.40001
1.40001
1.40001
1.40001
1.40001
1.40001
1.40001
1.40001
1.40001
1.40001
1.40001
1.40001
1.40001
1.40001
1.40001
1.40001
1.40001
1.40001
1.40001
1.40001
1.40001
1.40045
1.67793
1.40001
1.40001
1.40001
1.40001
1.40001
1.40001
1.40001
1.40001
1.40001
1.40001
1.40001
1.40001
1.40001
1.40001
1.40001
1.40001
1.40001
1.40001
1.40001
1.40001
1.40001
1.40001
1.40001
1.41038
1.40001
1.40001
1.40001
1.40001
1.40001
1.40001
1.40001
1.40001
1.40001
1.40001
1.40001
1.40001
1.40001
1.40001
1.40001
1.40001
1.40001
1.40001
1.40001
1.40001
1.40001
1.40001
1.40001
1.40009
1.40001
1.40001
1.40001
1.40001
1.40001
1.40001
1.40001
1.40001
1.40001
1.40001
1.40001
1.40001
1.40001
1.40001
1.40001
1.40001
1.40001
1.40001
1.40001
1.40001
1.40001
1.40001
1.40001
1.40001
1.40001
1.40001
1.40001
1.40001
1.40001
1.40001
1.40001
1.40001
1.40001
1.40001
1.40001
1.40001
1.40001
1.40001
1.40001
1.40001
1.40001
1.40001
1.40001
1.40001
1.40001
1.40001
1.40001
1.40001
1.40001
1.40001
1.40001
1.40001
1.40001
1.40001
1.40001
1.40001
1.40001
1.40001
1.40001
1.40001
1.40001
1.40001
1.40001
1.40001
1.40001
1.40001
1.40001
1.40001
1.40001
1.40001
1.40001
1.40001
1.40001
1.40001
1.40001
1.40001
1.40001
1.40001
1.40001
1.40001
1.40001
1.40001
1.40001
1.40001
1.40001
1.40001
1.40001
1.40001
1.40001
1.40001
1.40001
1.40001
1.40001
1.40001
1.40001
1.40001
1.40001
1.40001
1.40001
1.40001
1.40001
1.40001
1.40001
1.40001
1.40001
1.40001
1.40001
1.40001
1.40001
1.40001
1.40001
1.40001
1.40001
1.40001
1.40001
1.40001
1.40001
1.40001
1.40001
1.40001
1.40001
1.40001
1.40001
1.40001
1.40001
1.40001
1.40001
1.40001
1.40001
1.40001
1.40001
1.40001
1.40001
1.40001
1.40001
1.40001
1.40001
1.40001
1.40001
1.40001
1.40001
1.40001
1.40001
1.40001
1.40001
1.40001
1.40001
1.40001
1.40001
1.40001
1.40001
1.40001
1.40001
1.40001
1.40001
1.40001
1.40001
1.40001
1.40001
1.40001
1.40001
1.40001
1.40001
1.40001
1.40001
1.40001
1.40001
1.40001
1.40001
1.40001
1.40001
1.40001
1.40001
1.40001
1.40001
1.40001
1.40001
1.40001
1.40001
1.40001
1.40001
1.40001
1.40001
1.40001
1.40001
1.40001
1.40001
1.40001
1.40001
1.40001
1.40001
1.40001
1.40001
1.40001
1.40001
1.40001
1.40001
1.40001
1.40001
1.40001
1.40001
1.40001
1.40001
1.40001
1.40001
1.40001
1.40001
1.40001
1.40001
1.40001
1.40001
1.40001
1.40001
1.40001
1.40001
1.40001
1.40001
1.40001
1.40001
1.40001
1.40001
1.40001
1.40001
1.40001
1.40001
1.40001
1.40001
1.40001
1.40001
1.40001
1.40001
1.40001
1.40001
1.40001
1.40001
1.40001
1.40001
1.40001
1.40001
1.40001
1.40001
1.40001
1.40001
1.40001
1.40001
1.40001
1.40001
1.40001
1.40001
1.40001
1.40001
1.40001
1.40001
1.40001
1.40001
1.40001
1.40001
1.40001
1.40001
1.40001
1.40001
1.40001
1.40001
1.40001
1.40001
1.40001
1.40001
1.40001
1.40001
1.40001
1.40001
1.40001
1.40001
1.40001
1.40001
1.40001
1.40001
1.40001
1.40001
1.40001
1.40001
1.40001
1.40001
1.40001
1.40001
1.40001
1.40001
1.40001
1.40001
1.40001
1.40001
1.40001
1.40001
1.40001
1.40001
1.40001
1.40001
1.40001
1.40001
1.40001
1.40001
1.40001
1.40001
1.40001
1.40001
1.40001
1.40001
1.40001
1.40001
1.40001
1.40001
1.40001
1.40001
1.40001
1.40001
1.40001
1.40001
1.40001
1.40001
1.40001
1.40001
1.40001
1.40001
1.40001
1.40001
1.40001
1.40001
1.40001
1.40001
1.40001
1.40001
1.40001
1.40001
1.40001
1.40001
1.40001
3.96009
4.38046
4.49615
4.58316
4.65945
4.76289
4.65474
4.64878
4.74891
4.69598
4.56813
4.56359
4.80964
4.73719
4.59151
4.59673
4.79519
4.69366
4.41062
3.63004
4.74476
4.57993
4.22614
3.52246
4.66679
4.47703
4.11418
3.53457
4.60263
4.39175
4.03695
3.55941
4.56386
4.33397
4.0117
3.60776
4.51535
4.29361
4.00424
3.65367
4.48824
4.27457
4.01195
3.70078
4.47972
4.26866
4.02282
3.73965
4.46982
4.2677
4.03592
3.77768
4.48212
4.285
4.06725
3.82907
4.478
4.29815
4.09702
3.87555
4.49815
4.32836
4.13681
3.92822
4.511
4.34656
4.16364
3.97327
4.5495
4.36901
4.20295
4.02654
4.39627
4.39315
4.24828
4.07997
3.59908
4.4533
4.31944
4.14674
2.18286
4.05561
4.36014
4.20997
1.47989
2.82557
4.20648
4.26668
1.40146
1.68451
3.38268
4.24476
1.40001
1.41163
2.0263
3.73755
1.40001
1.40011
1.45175
2.41505
1.40001
1.40001
1.40086
1.53901
1.40001
1.40001
1.40001
1.40378
1.40001
1.40001
1.40001
1.40003
1.40001
1.40001
1.40001
1.40001
1.40001
1.40001
1.40001
1.40001
1.40001
1.40001
1.40001
1.40001
1.40001
1.40001
1.40001
1.40001
1.40001
1.40001
1.40001
1.40001
1.40001
1.40001
1.40001
1.40001
1.40001
1.40001
1.40001
1.40001
1.40001
1.40001
1.40001
1.40001
1.44623
0.794013
0.509406
0.463431
0.502491
0.592902
0.695789
0.803296
0.874675
0.932947
0.971642
0.998182
1.01982
1.02673
1.03154
1.04156
1.05066
1.05812
1.07166
1.07578
1.07479
1.0696
1.06452
1.06276
1.06514
1.06803
1.07155
1.07888
1.09068
1.0969
1.09843
1.09887
1.09714
1.09121
1.08539
1.08319
1.08223
1.08332
1.10648
1.63096
3.07042
3.38445
3.32228
3.23361
3.1341
3.07981
3.08006
3.09735
3.08443
3.02877
2.96817
2.91587
2.87996
2.85952
2.82817
2.78872
2.74475
2.7047
2.67249
2.65001
2.63222
2.60097
2.56244
2.51493
2.46463
2.42515
2.39652
2.37339
2.35986
2.35376
2.34249
2.32054
2.29177
2.24632
2.18103
2.13121
2.10503
2.0859
2.07085
2.06437
2.05828
2.04225
2.02226
1.9868
1.92481
1.87739
1.85774
1.84381
1.83359
1.83176
1.83446
1.80953
2.07216
1.44039
1.14404
0.919589
0.860597
0.842519
0.80377
0.800484
0.822371
0.85748
0.90269
0.955383
0.997011
1.01524
1.02138
1.03289
1.04958
1.0645
1.07931
1.08764
1.08965
1.09032
1.08952
1.09
1.09058
1.09075
1.09118
1.09522
1.10249
1.10461
1.10513
1.106
1.10603
1.10438
1.10147
1.0963
1.09461
1.11343
1.26004
1.72749
2.86407
3.32245
3.30207
3.24338
3.15767
3.11334
3.10741
3.11957
3.10512
3.05208
2.9947
2.94544
2.90982
2.89071
2.86582
2.82669
2.77857
2.72077
2.67684
2.64594
2.62328
2.60505
2.5789
2.5477
2.51095
2.46518
2.42053
2.39054
2.36881
2.34951
2.32987
2.31063
2.28724
2.25344
2.21172
2.16329
2.12072
2.09658
2.08014
2.06849
2.0564
2.03955
2.01831
1.9884
1.94474
1.89732
1.86691
1.85143
1.84053
1.8338
1.82912
1.80407
2.58156
1.93788
1.55656
1.29264
1.12237
1.02796
0.940235
0.858022
0.863669
0.884328
0.924806
0.979594
1.02041
1.04046
1.05135
1.07057
1.10156
1.12086
1.13418
1.14972
1.15561
1.15258
1.14414
1.13716
1.13235
1.13165
1.13203
1.13463
1.13745
1.13716
1.13638
1.13677
1.13713
1.13624
1.13222
1.133
1.1547
1.29579
1.7196
2.00994
2.39716
3.06332
3.39556
3.42116
3.36519
3.30169
3.24728
3.21499
3.17432
3.12521
3.07431
3.02927
2.98807
2.9554
2.92715
2.89342
2.85584
2.80332
2.73606
2.67941
2.64178
2.61239
2.59421
2.58518
2.56586
2.53776
2.50051
2.44867
2.39714
2.36344
2.33686
2.31012
2.28318
2.26081
2.23894
2.21334
2.1752
2.13122
2.104
2.08514
2.06592
2.04415
2.01782
1.98874
1.963
1.93632
1.90318
1.87288
1.85617
1.84271
1.83024
1.80326
2.87416
2.35952
1.95332
1.64231
1.43444
1.28906
1.17456
1.0642
1.02284
0.979887
0.954877
0.959407
0.977878
0.999874
1.02655
1.05853
1.09889
1.12907
1.14812
1.16567
1.19126
1.19763
1.1944
1.1895
1.18689
1.18418
1.18142
1.18065
1.18021
1.17752
1.17547
1.17574
1.1749
1.17334
1.17242
1.19348
1.34392
1.73119
2.16848
2.2148
2.24025
2.45421
2.9829
3.35909
3.5128
3.46152
3.38311
3.30786
3.24487
3.20542
3.16484
3.12062
3.0791
3.0368
2.99711
2.96008
2.9236
2.87987
2.81538
2.74877
2.70753
2.67704
2.65441
2.64336
2.62777
2.60296
2.57277
2.52424
2.45395
2.40045
2.36637
2.33781
2.31509
2.29756
2.28052
2.26007
2.23354
2.19085
2.14232
2.11103
2.08686
2.06025
2.03104
2.0092
1.99273
1.97495
1.95185
1.91968
1.88683
1.86347
1.84551
1.81108
3.07764
2.64551
2.27961
1.94916
1.72769
1.54616
1.38215
1.25279
1.1743
1.10168
1.02652
0.98635
0.987427
0.995783
1.01427
1.04112
1.07013
1.09946
1.12238
1.14202
1.17099
1.19125
1.20206
1.21337
1.22663
1.23211
1.22985
1.22739
1.22325
1.21498
1.20615
1.20083
1.19708
1.19827
1.21838
1.39026
1.79617
2.1923
2.33294
2.30379
2.25173
2.25115
2.40725
2.88619
3.30897
3.47219
3.49243
3.4162
3.34574
3.28263
3.23248
3.18312
3.13799
3.10044
3.06246
3.02429
2.98413
2.93888
2.87787
2.80488
2.76037
2.73484
2.71509
2.70346
2.68436
2.65665
2.62525
2.57927
2.50598
2.43398
2.39887
2.37777
2.36013
2.34761
2.33309
2.31349
2.29057
2.25462
2.19437
2.13658
2.10282
2.07848
2.06
2.04591
2.03383
2.01807
1.99896
1.97169
1.93025
1.88745
1.85992
1.82437
3.22564
2.84638
2.5161
2.21081
1.96939
1.78205
1.59665
1.45794
1.35716
1.26939
1.17487
1.11886
1.08905
1.05181
1.03807
1.04195
1.03985
1.04259
1.05699
1.08267
1.11759
1.15561
1.18144
1.19975
1.21772
1.2284
1.22877
1.23268
1.23804
1.2376
1.23226
1.22484
1.22138
1.23573
1.37507
1.84895
2.1919
2.35033
2.34345
2.30594
2.2714
2.24443
2.23821
2.34569
2.7159
3.16041
3.37879
3.42313
3.40544
3.34187
3.27609
3.20744
3.14725
3.11258
3.08651
3.05551
3.01863
2.97571
2.92601
2.86385
2.8062
2.7743
2.75124
2.73364
2.71187
2.68477
2.65381
2.61407
2.55919
2.49062
2.43864
2.41369
2.39494
2.37929
2.36461
2.34652
2.32651
2.29729
2.24274
2.17131
2.12618
2.10595
2.09089
2.07849
2.07081
2.05892
2.04239
2.02033
1.97789
1.90987
1.86608
1.8406
3.34245
3.01152
2.69948
2.41949
2.18427
1.98533
1.7957
1.6463
1.5322
1.42655
1.32684
1.25776
1.19848
1.14108
1.08441
1.06121
1.0428
1.03583
1.04061
1.04993
1.06637
1.09447
1.12905
1.16016
1.18883
1.20788
1.21824
1.22497
1.23143
1.23622
1.23472
1.23592
1.25504
1.39865
1.84044
2.24941
2.33371
2.34257
2.34802
2.32662
2.28953
2.25692
2.22285
2.19897
2.2552
2.51146
2.93307
3.25646
3.36344
3.3646
3.30796
3.23395
3.15679
3.11074
3.08084
3.0546
3.02536
2.99199
2.95424
2.90823
2.85091
2.79799
2.76795
2.74363
2.71895
2.69131
2.6611
2.62756
2.58978
2.54256
2.48403
2.44046
2.41883
2.40132
2.38605
2.36772
2.34406
2.3124
2.26848
2.21313
2.16326
2.13623
2.12012
2.10646
2.09582
2.08529
2.07012
2.04863
2.00526
1.9296
1.88599
1.8656
3.43049
3.13636
2.84319
2.59109
2.36906
2.1607
1.96926
1.82526
1.69458
1.57962
1.47234
1.40066
1.32644
1.25906
1.19405
1.15295
1.11673
1.07718
1.06873
1.06861
1.06049
1.06141
1.07429
1.10079
1.12945
1.15556
1.18333
1.19789
1.21192
1.22534
1.22501
1.244
1.43087
1.85305
2.2748
2.39694
2.37551
2.36103
2.34396
2.32625
2.2936
2.25605
2.21876
2.18297
2.16047
2.18149
2.33952
2.70487
3.10415
3.28343
3.30196
3.25959
3.1876
3.11877
3.06887
3.04118
3.01765
2.99816
2.97162
2.93776
2.89408
2.83505
2.77686
2.74078
2.71272
2.68533
2.65753
2.63082
2.60487
2.57545
2.5335
2.47839
2.43427
2.40741
2.38311
2.35668
2.32948
2.30342
2.27762
2.24758
2.20933
2.1699
2.14736
2.13372
2.12279
2.10711
2.08518
2.05374
2.00959
1.95433
1.91739
1.88985
3.50727
3.2383
2.96994
2.74049
2.52486
2.31002
2.1318
1.98782
1.84893
1.71625
1.61474
1.53855
1.45408
1.37236
1.30375
1.25274
1.19875
1.14502
1.10592
1.09632
1.07771
1.0668
1.0713
1.0757
1.08538
1.09514
1.11206
1.13702
1.16722
1.19075
1.21515
1.39195
1.88891
2.27292
2.41433
2.39921
2.36296
2.34081
2.32445
2.31555
2.30018
2.27214
2.23852
2.19949
2.15275
2.13507
2.13574
2.21302
2.49414
2.89081
3.17753
3.22529
3.21056
3.14535
3.07346
3.03486
3.01104
3.00076
2.9864
2.95998
2.92485
2.87267
2.79872
2.74152
2.70909
2.68315
2.65926
2.63702
2.61517
2.59232
2.5631
2.51555
2.45493
2.4108
2.38034
2.35265
2.3258
2.30165
2.28186
2.26437
2.24417
2.21517
2.17784
2.14428
2.11903
2.09456
2.06647
2.03547
2.00498
1.97929
1.95529
1.9177
3.58183
3.32703
3.0793
2.86574
2.65817
2.44224
2.27909
2.13172
1.9928
1.84883
1.75411
1.66377
1.57498
1.48518
1.41993
1.36333
1.30178
1.23916
1.19206
1.16821
1.13844
1.1038
1.09217
1.09032
1.07926
1.07016
1.07141
1.08252
1.1087
1.14004
1.31301
1.82502
2.21821
2.37275
2.39759
2.36256
2.33449
2.32473
2.31518
2.31203
2.31439
2.29503
2.26631
2.22661
2.16772
2.12792
2.11592
2.10762
2.14036
2.32023
2.68889
2.99905
3.14087
3.14327
3.09857
3.04699
3.01559
3.00545
2.99476
2.97319
2.94515
2.90391
2.83465
2.75599
2.71036
2.68454
2.66318
2.64374
2.62373
2.60083
2.57469
2.53592
2.47558
2.417
2.38077
2.3543
2.33069
2.31063
2.29379
2.27771
2.26073
2.23939
2.20448
2.15601
2.11328
2.08228
2.05455
2.0272
2.01067
1.99817
1.98538
1.95198
3.64422
3.40671
3.17748
2.97705
2.77555
2.57078
2.41334
2.26915
2.12108
1.97965
1.88524
1.78566
1.69077
1.59288
1.53062
1.46589
1.40116
1.33511
1.28869
1.24949
1.20592
1.15456
1.12408
1.1099
1.09112
1.0736
1.0735
1.07708
1.09294
1.2502
1.69237
2.16979
2.24653
2.30583
2.32224
2.30367
2.2992
2.30378
2.31016
2.31614
2.31981
2.30405
2.27693
2.24135
2.18655
2.13253
2.11131
2.09763
2.09579
2.10838
2.19536
2.439
2.76711
3.00748
3.07588
3.05557
3.03285
3.0194
3.00724
2.98384
2.95614
2.92275
2.86716
2.79008
2.72696
2.69187
2.66889
2.6485
2.62921
2.60711
2.58228
2.54842
2.49377
2.42755
2.38628
2.36348
2.34417
2.32545
2.30769
2.29044
2.27212
2.25037
2.21751
2.16438
2.10836
2.07212
2.04836
2.03383
2.02468
2.01741
2.00772
1.97664
3.71008
3.48773
3.27261
3.0814
2.88569
2.69337
2.53768
2.39612
2.23739
2.10675
2.00656
1.90451
1.79574
1.69993
1.63756
1.5652
1.49644
1.42579
1.38386
1.33872
1.28789
1.23439
1.19516
1.16891
1.14165
1.11036
1.09809
1.11045
1.23727
1.65059
2.07229
2.22295
2.21928
2.22345
2.22894
2.23428
2.24905
2.25586
2.2605
2.2714
2.29297
2.29235
2.27326
2.24181
2.203
2.15723
2.12304
2.10462
2.08672
2.07596
2.06759
2.0959
2.22282
2.50574
2.80192
2.98445
2.99802
3.01655
3.02333
2.99695
2.96253
2.92542
2.88061
2.82505
2.76583
2.71556
2.678
2.65375
2.63338
2.61225
2.58788
2.55781
2.51288
2.44886
2.39975
2.37735
2.35973
2.3419
2.32304
2.3026
2.28058
2.25602
2.22267
2.16718
2.10428
2.07263
2.05816
2.04647
2.03832
2.03336
2.02401
1.99089
3.77248
3.56264
3.36131
3.1794
2.99112
2.80806
2.65586
2.51025
2.35014
2.22439
2.11954
2.01546
1.89496
1.80641
1.73719
1.6633
1.58542
1.51611
1.47625
1.42552
1.37149
1.31298
1.27166
1.23981
1.19882
1.16232
1.15089
1.25345
1.67978
2.0788
2.2344
2.2256
2.20713
2.18754
2.16889
2.15046
2.13881
2.14589
2.16638
2.19185
2.21679
2.23698
2.23888
2.22511
2.20483
2.17587
2.14428
2.11059
2.08041
2.05959
2.04266
2.03913
2.04392
2.09608
2.26886
2.5748
2.80074
2.93857
2.98297
2.98676
2.97401
2.9283
2.88958
2.8469
2.80098
2.75455
2.70494
2.66234
2.63701
2.61507
2.59077
2.56336
2.52885
2.48014
2.42529
2.39083
2.37115
2.354
2.33657
2.31722
2.29354
2.26135
2.21562
2.15965
2.11224
2.08916
2.07655
2.06511
2.05541
2.0458
2.03527
2.00333
3.84047
3.64207
3.45099
3.2742
3.0926
2.91898
2.76849
2.61799
2.45938
2.33528
2.22652
2.11665
1.99604
1.91202
1.83616
1.75873
1.67228
1.60771
1.5645
1.50946
1.4544
1.39576
1.35467
1.31229
1.26725
1.25337
1.35105
1.7639
2.20097
2.30836
2.28505
2.24093
2.20595
2.18341
2.16611
2.14933
2.12557
2.09276
2.0833
2.08948
2.10563
2.12761
2.14624
2.16118
2.16489
2.15785
2.14047
2.11046
2.07959
2.05366
2.03187
2.01833
2.0167
2.01975
2.02157
2.10215
2.30568
2.57335
2.76171
2.88427
2.92054
2.92284
2.90256
2.86453
2.82448
2.78181
2.73866
2.69191
2.6482
2.61816
2.59143
2.56439
2.53708
2.50529
2.46267
2.41606
2.38106
2.35856
2.34111
2.32332
2.30053
2.26612
2.2163
2.16751
2.13417
2.10809
2.09064
2.07835
2.06676
2.05562
2.04313
2.00092
3.90302
3.72198
3.53842
3.35838
3.1819
3.02102
2.87191
2.71814
2.56204
2.44202
2.33022
2.21198
2.09191
2.01359
1.93399
1.85314
1.75892
1.70103
1.6496
1.59176
1.53154
1.47512
1.42854
1.38533
1.35905
1.46052
1.88578
2.35996
2.44474
2.39345
2.33729
2.29989
2.26836
2.23864
2.20757
2.17124
2.12783
2.08747
2.07109
2.05055
2.0393
2.03801
2.04558
2.05715
2.07856
2.0966
2.09708
2.07864
2.05048
2.03183
2.01945
2.01182
2.01378
1.998
1.9896
1.97444
1.99415
2.072
2.27563
2.53655
2.72907
2.85262
2.88623
2.8732
2.83663
2.79639
2.75678
2.71452
2.6693
2.63099
2.59954
2.57042
2.54204
2.51486
2.48501
2.44824
2.408
2.37106
2.34141
2.31807
2.29521
2.2648
2.22559
2.1951
2.16782
2.13325
2.10238
2.08888
2.08051
2.06973
2.05289
2.00195
3.97033
3.79613
3.618
3.4409
3.27147
3.11039
2.96336
2.81374
2.66855
2.54591
2.43111
2.30582
2.19302
2.11556
2.03324
1.94489
1.84958
1.79296
1.73595
1.67523
1.61029
1.55111
1.5011
1.48125
1.59842
2.0528
2.55286
2.63577
2.56511
2.48499
2.42758
2.39135
2.35128
2.30837
2.26457
2.22032
2.17015
2.11933
2.07749
2.04476
2.02782
2.02013
2.00608
1.99731
1.99506
1.99494
2.00176
1.99569
1.98122
1.98258
1.97722
1.96977
1.97008
1.97788
1.97509
1.96133
1.93815
1.90986
1.93293
2.04027
2.27234
2.53047
2.76683
2.82084
2.82516
2.80768
2.76704
2.71776
2.68098
2.64668
2.61578
2.58641
2.55277
2.51848
2.48843
2.46066
2.43185
2.39901
2.36151
2.32492
2.28643
2.24754
2.22532
2.2101
2.19219
2.16794
2.13729
2.10242
2.06994
2.04644
2.02972
1.9952
4.03106
3.85606
3.68205
3.51822
3.35733
3.19509
3.0483
2.90597
2.76714
2.64407
2.53258
2.40197
2.29498
2.21244
2.12588
2.03235
1.94338
1.88472
1.81876
1.75444
1.68261
1.62248
1.59798
1.73778
2.23867
2.75381
2.84753
2.77432
2.67288
2.57914
2.52569
2.48059
2.43581
2.3913
2.3469
2.30072
2.24693
2.18573
2.12306
2.07818
2.05081
2.02655
2.00443
1.98762
1.96897
1.9526
1.93772
1.9194
1.89739
1.89367
1.89529
1.90611
1.91698
1.91853
1.91961
1.91632
1.90441
1.88851
1.86424
1.86197
1.90479
2.04174
2.30275
2.54813
2.72561
2.76849
2.74972
2.72049
2.6908
2.65733
2.63174
2.60825
2.57527
2.53766
2.49716
2.46367
2.44242
2.41468
2.38018
2.33997
2.29069
2.25001
2.22784
2.21179
2.19731
2.18303
2.16556
2.12918
2.07694
2.03966
2.01606
1.98723
4.11622
3.93441
3.76296
3.60203
3.44548
3.28765
3.14005
3.00279
2.86557
2.74244
2.63171
2.49929
2.39418
2.30906
2.22592
2.11775
2.03733
1.97196
1.90496
1.82978
1.75515
1.72959
1.89548
2.44192
2.9675
3.04849
2.97205
2.8734
2.77719
2.68624
2.62338
2.57478
2.52824
2.48085
2.43106
2.37732
2.31923
2.2565
2.19025
2.13242
2.08702
2.05036
2.02468
2.00039
1.97316
1.94365
1.91819
1.89781
1.88125
1.85859
1.83338
1.82655
1.83103
1.83529
1.84373
1.85085
1.84911
1.84762
1.83186
1.80931
1.80603
1.81942
1.88411
2.04848
2.3034
2.54367
2.64777
2.67536
2.66952
2.66097
2.65241
2.62541
2.60067
2.57566
2.53651
2.47697
2.41784
2.39798
2.38325
2.3539
2.3169
2.28333
2.24913
2.21909
2.20267
2.19271
2.17988
2.14823
2.10187
2.04712
2.01252
1.98806
4.20154
4.0254
3.85104
3.68952
3.52651
3.37308
3.23498
3.09414
2.95399
2.83287
2.7218
2.60131
2.48605
2.39855
2.30869
2.20313
2.12658
2.06022
1.9814
1.89905
1.87145
2.0643
2.66185
3.16698
3.24757
3.1688
3.07087
2.98828
2.90097
2.80227
2.72249
2.66465
2.61251
2.56018
2.50558
2.44903
2.39191
2.33331
2.27136
2.20916
2.15345
2.10788
2.06956
2.03319
1.99855
1.96592
1.93375
1.89875
1.87055
1.84979
1.82229
1.79375
1.7778
1.77247
1.77201
1.76955
1.77242
1.78115
1.77204
1.7532
1.74775
1.74555
1.74722
1.76786
1.85265
2.04695
2.28369
2.48845
2.57678
2.58584
2.59527
2.61056
2.62414
2.60446
2.56889
2.50893
2.4317
2.38009
2.35136
2.33651
2.32433
2.30996
2.28931
2.25981
2.22291
2.18087
2.14964
2.13781
2.11325
2.06988
2.04272
2.00744
4.21146
4.11914
3.94402
3.77416
3.61072
3.46353
3.32391
3.17937
3.03761
2.92809
2.81349
2.68648
2.57615
2.48928
2.39599
2.29144
2.20954
2.1344
2.05678
2.03922
2.28077
2.94411
3.39661
3.44527
3.35695
3.26008
3.18519
3.11095
3.02322
2.92303
2.82567
2.74988
2.68973
2.63341
2.5775
2.52234
2.46841
2.41378
2.35564
2.29173
2.22462
2.16492
2.11646
2.07581
2.04001
2.00668
1.97126
1.93409
1.899
1.85918
1.8173
1.78342
1.75892
1.74645
1.74035
1.73064
1.71959
1.71227
1.70496
1.6882
1.67183
1.66931
1.67196
1.67768
1.69565
1.74404
1.85147
2.01833
2.23512
2.42463
2.48619
2.52704
2.5641
2.58824
2.57829
2.53595
2.47094
2.38892
2.34583
2.33381
2.33404
2.33253
2.31823
2.2922
2.2529
2.1966
2.14489
2.10376
2.08908
2.0842
2.07234
2.03502
3.9352
4.16402
4.0488
3.87012
3.70142
3.55462
3.41387
3.27023
3.13196
3.01476
2.89937
2.77649
2.67068
2.58062
2.47691
2.38006
2.29371
2.20209
2.21425
2.51993
3.31153
3.69127
3.65478
3.54621
3.43237
3.35548
3.29115
3.21585
3.13069
3.03693
2.93431
2.83906
2.76498
2.70384
2.64711
2.59187
2.53732
2.4831
2.42833
2.37081
2.30739
2.23978
2.1756
2.12252
2.08116
2.04628
2.01249
1.97953
1.94449
1.89995
1.84912
1.7976
1.75613
1.73607
1.72321
1.71056
1.69874
1.68681
1.67029
1.64124
1.61425
1.60215
1.59984
1.60679
1.62118
1.63455
1.65549
1.69584
1.78071
1.94612
2.17729
2.33911
2.42567
2.49594
2.52849
2.5288
2.50127
2.44676
2.39328
2.34606
2.30994
2.29179
2.28924
2.29086
2.26991
2.22665
2.16456
2.10942
2.08034
2.06344
2.05495
2.03509
2.79484
4.01566
4.11091
3.98076
3.80081
3.65439
3.51117
3.35562
3.22965
3.11194
2.99164
2.86239
2.76077
2.66826
2.56952
2.46451
2.35767
2.3823
2.78215
3.58428
4.07532
4.01635
3.8253
3.65025
3.53215
3.45665
3.3837
3.30491
3.22475
3.14138
3.04886
2.94811
2.85649
2.78396
2.72212
2.66287
2.60358
2.54547
2.49014
2.43597
2.37783
2.31195
2.24259
2.18224
2.13462
2.09375
2.05562
2.01916
1.98141
1.93905
1.88812
1.82846
1.77488
1.74135
1.72103
1.70451
1.68861
1.67135
1.65198
1.62715
1.59734
1.5668
1.54748
1.54391
1.54789
1.55471
1.55816
1.56673
1.57938
1.606
1.70134
1.89361
2.121
2.28104
2.39914
2.45721
2.46874
2.46699
2.44081
2.38065
2.32465
2.28966
2.26111
2.24452
2.23975
2.23026
2.19617
2.14126
2.08452
2.06013
2.05373
2.04222
1.67734
3.11865
4.02376
4.04891
3.91579
3.75468
3.60362
3.4572
3.33022
3.20933
3.07537
2.95351
2.85521
2.75595
2.65164
2.53647
2.57655
3.07932
3.89525
4.29663
4.24787
4.09919
3.95052
3.7914
3.66125
3.56299
3.47462
3.39211
3.31325
3.23444
3.15007
3.05569
2.95589
2.8659
2.79257
2.729
2.66884
2.61068
2.55472
2.49918
2.44009
2.37345
2.30065
2.23407
2.1818
2.13891
2.1001
2.06277
2.02444
1.98293
1.93484
1.87785
1.82144
1.77771
1.74472
1.71605
1.68987
1.66574
1.644
1.61942
1.58732
1.55568
1.52626
1.51001
1.50511
1.50486
1.50222
1.49714
1.49447
1.48797
1.48963
1.52606
1.64706
1.8407
2.09023
2.24941
2.34794
2.39609
2.39536
2.38898
2.35929
2.30822
2.26418
2.23131
2.20367
2.19286
2.19069
2.16474
2.12414
2.08525
2.0618
2.02899
1.41208
1.85797
3.34374
4.0112
3.99822
3.86892
3.69778
3.55156
3.42656
3.30398
3.1682
3.05087
2.94
2.84386
2.73222
2.81807
3.44843
4.29947
4.59152
4.54295
4.37081
4.21485
4.09196
3.95059
3.8002
3.68044
3.57921
3.48868
3.4053
3.32427
3.24177
3.15356
3.05608
2.95386
2.86148
2.78704
2.72584
2.67103
2.61795
2.56297
2.50217
2.43202
2.35386
2.2807
2.22364
2.17869
2.13937
2.10139
2.0602
2.01248
1.96019
1.90637
1.85489
1.8129
1.77885
1.74737
1.71746
1.68869
1.65767
1.62007
1.57839
1.54454
1.51834
1.49803
1.48721
1.47982
1.47094
1.46143
1.45208
1.43824
1.4104
1.39595
1.40837
1.45843
1.59271
1.81305
2.06674
2.20526
2.2636
2.30661
2.31599
2.31177
2.28974
2.24376
2.20298
2.17068
2.15332
2.15259
2.14444
2.11266
2.07748
2.02924
1.40012
1.4301
2.04628
3.49379
3.97995
3.95688
3.81274
3.64859
3.52275
3.39275
3.263
3.1383
3.03965
2.93871
3.08942
3.88632
4.80611
4.88046
4.76974
4.63912
4.50574
4.37267
4.23833
4.09708
3.9458
3.80725
3.69396
3.59337
3.49898
3.4092
3.32186
3.23286
3.13687
3.03293
2.93183
2.8463
2.77724
2.71859
2.66457
2.6102
2.55024
2.4797
2.39934
2.3219
2.25971
2.21019
2.16822
2.13098
2.09368
2.04941
1.99641
1.93997
1.88241
1.83145
1.79203
1.76287
1.74095
1.71749
1.68143
1.6384
1.59415
1.55421
1.52238
1.50006
1.48582
1.47182
1.4572
1.4434
1.42867
1.40959
1.37641
1.34624
1.341
1.34346
1.36006
1.42137
1.56474
1.7755
1.99586
2.10714
2.17524
2.23326
2.25404
2.25113
2.224
2.17994
2.14023
2.10993
2.09925
2.09916
2.089
2.04198
1.40001
1.40043
1.45847
2.22172
3.57914
3.95003
3.91855
3.77076
3.62144
3.48591
3.34593
3.2345
3.15615
3.41649
4.35348
5.25596
5.42446
5.16246
4.9063
4.74849
4.63573
4.51105
4.36675
4.21966
4.07406
3.93288
3.80629
3.69257
3.58592
3.48571
3.39127
3.29814
3.20075
3.09764
2.9963
2.90642
2.82908
2.76073
2.69795
2.63788
2.57745
2.51169
2.43805
2.36494
2.3024
2.24859
2.19844
2.15082
2.10777
2.06866
2.02512
1.97146
1.91499
1.86765
1.83029
1.79633
1.76047
1.72
1.68027
1.65263
1.62716
1.5882
1.54352
1.51255
1.49206
1.47237
1.45236
1.43463
1.41732
1.39486
1.36044
1.32775
1.3165
1.31351
1.31159
1.3109
1.32629
1.38318
1.5015
1.69347
1.89019
2.01271
2.1157
2.18483
2.1962
2.19011
2.15258
2.10342
2.0634
2.04688
2.04649
2.03304
1.40001
1.40001
1.40111
1.49525
2.36422
3.63616
3.9127
3.8748
3.7434
3.57833
3.42953
3.38712
3.79337
4.93027
5.64043
5.69419
5.5872
5.38256
5.13419
4.92648
4.77005
4.6283
4.48329
4.33403
4.18157
4.03017
3.89112
3.7679
3.65293
3.54308
3.44179
3.34682
3.25109
3.15101
3.0512
2.95932
2.87585
2.79856
2.72663
2.65723
2.5885
2.5228
2.46081
2.40013
2.34176
2.2876
2.23571
2.18383
2.13178
2.07801
2.02126
1.96379
1.91447
1.87846
1.84778
1.81445
1.77663
1.73697
1.70216
1.67069
1.63313
1.58937
1.54396
1.50634
1.48688
1.47396
1.45847
1.44052
1.42178
1.39363
1.35203
1.32096
1.30822
1.30186
1.29569
1.28643
1.2784
1.26818
1.27617
1.3102
1.42594
1.61437
1.81754
1.96877
2.07942
2.131
2.13242
2.11627
2.07206
2.02959
2.00117
1.99517
1.40001
1.40001
1.40001
1.40231
1.53455
2.49166
3.63767
3.8788
3.83124
3.65816
3.63588
4.25809
5.5896
6.1549
6.14916
5.88342
5.69852
5.51739
5.29066
5.06463
4.87422
4.71276
4.56241
4.41276
4.26172
4.10657
3.95307
3.82173
3.70831
3.5969
3.48481
3.37915
3.27738
3.17657
3.07742
2.98767
2.90912
2.83031
2.75116
2.67973
2.6112
2.54133
2.47292
2.40956
2.35253
2.30544
2.26365
2.21446
2.1543
2.09268
2.03724
1.98544
1.93986
1.89977
1.85986
1.81883
1.78119
1.75301
1.7287
1.69333
1.64308
1.5953
1.55748
1.52669
1.49972
1.48446
1.47426
1.45995
1.43381
1.39342
1.35855
1.33561
1.31591
1.29742
1.28311
1.27241
1.26222
1.25035
1.23787
1.21179
1.21188
1.24906
1.37108
1.57519
1.79098
1.92607
2.02681
2.07002
2.07027
2.04286
1.99939
1.97198
1.40001
1.40001
1.40001
1.40002
1.40415
1.57348
2.54435
3.70866
3.7833
3.88118
4.74501
6.13076
6.62774
6.47804
6.23898
6.02453
5.81187
5.61434
5.3956
5.16091
4.95219
4.77623
4.62261
4.47669