/*--------------------------------*- C++ -*----------------------------------*\
  =========                 |
  \\      /  F ield         | OpenFOAM: The Open Source CFD Toolbox
   \\    /   O peration     | Website:  https://openfoam.org
    \\  /    A nd           | Version:  7
     \\/     M anipulation  |
\*---------------------------------------------------------------------------*/
FoamFile
{
    version     2.0;
    format      ascii;
    class       volScalarField;
    location    "0.7";
    object      p;
}
// * * * * * * * * * * * * * * * * * * * * * * * * * * * * * * * * * * * * * //

dimensions      [1 -1 -2 0 0 0 0];

internalField   nonuniform List<scalar> 
3328
(
1
1
1
1
1
1
1
1
1
1
1
1
1
4.76932
11.0855
11.3674
11.318
11.3499
11.4894
11.7376
11.9303
11.9725
11.9353
11.917
1
1
1
1
1
1
1
1
1
1
1
1
1
4.62272
10.9556
11.3329
11.2892
11.3241
11.4593
11.6946
11.876
11.9161
11.8838
11.8711
1
1
1
1
1
1
1
1
1
1
1
1
1
4.28954
10.7621
11.2753
11.2313
11.2726
11.4034
11.6268
11.8016
11.8439
11.8172
11.8101
1
1
1
1
1
1
1
1
1
1
1
1
1
3.79179
10.4402
11.2145
11.1525
11.2001
11.3185
11.5278
11.6982
11.7422
11.7177
11.7056
1
1
1
1
1
1
1
1
1
1
1
1
1
3.19335
9.96348
11.1488
11.056
11.1093
11.1997
11.3706
11.5237
11.5676
11.5528
11.5703
1
1
1
1
1
1
1
1
1
1
1
1
1
2.38157
9.25734
11.1015
10.9687
11.0014
11.0405
11.1655
11.3263
11.3865
11.3616
11.3063
1
1
1
1
1
1
1
1
1
1
1
1
1
1.58423
8.24537
11.0409
10.8749
10.8593
10.8387
10.9079
11.0387
11.0403
10.9524
10.8979
1
1
1
1
1
1
1
1
1
1
1
1
1
1.04163
6.79436
10.8205
10.72
10.6832
10.5919
10.6143
10.7127
10.7185
10.5828
10.5337
1
1
1
1
1
1
1
1
1
1
1
1
1
1.0004
5.01576
10.3683
10.5877
10.5075
10.374
10.3294
10.3403
10.218
9.63228
8.34574
1
1
1
1
1
1
1
1
1
1
1
1
1
1
3.17237
9.60994
10.4949
10.3205
10.155
10.036
9.9395
9.68887
9.11808
8.224
1
1
1
1
1
1
1
1
1
1
1
1
1
1
1.63809
8.28471
10.4013
10.1766
9.96781
9.72925
9.52863
9.22494
8.80597
8.15089
1
1
1
1
1
1
1
1
1
1
1
1
1
1
1.03478
6.36743
10.077
9.9135
9.75465
9.47548
9.22781
8.90951
8.531
8.14672
1
1
1
1
1
1
1
1
1
1
1
1
1
1
1.00017
3.86982
9.42183
9.77767
9.62058
9.29092
8.96991
8.62785
8.31635
8.06856
1
1
1
1
1
1
1
1
1
1
1
1
1
1
1
1.68226
8.0175
9.71897
9.45432
9.12498
8.76271
8.41037
8.13911
8.0002
1
1
1
1
1
1
1
1
1
1
1
1
1
1
1
1.03421
5.57579
9.23911
9.23004
8.95693
8.63585
8.31197
8.03673
7.94809
1
1
1
1
1
1
1
1
1
1
1
1
1
1
1
1.00011
2.60754
8.40782
9.13669
8.83551
8.52981
8.22787
7.98121
7.89657
1
1
1
1
1
1
1
1
1
1
1
1
1
1
1
1
1.15736
6.20731
8.87072
8.70773
8.43508
8.14332
7.925
7.8443
1
1
1
1
1
1
1
1
1
1
1
1
1
1
1
1
1.00187
2.9007
8.07533
8.72932
8.39759
8.09182
7.84923
7.76783
1
1
1
1
1
1
1
1
1
1
1
1
1
1
1
1
1
1.20863
5.98462
8.48604
8.25089
7.99018
7.75366
7.668
1
1
1
1
1
1
1
1
1
1
1
1
1
1
1
1
1
1.0031
2.5486
7.49488
8.30837
7.99598
7.73088
7.58294
1
1
1
1
1
1
1
1
1
1
1
1
1
1
1
1
1
1.00001
1.14267
5.16981
7.99647
7.90306
7.63578
7.46263
1
1
1
1
1
1
1
1
1
1
1
1
1
1
1
1
1
1
1.00162
2.0433
6.77343
7.93828
7.63046
7.43412
1
1
1
1
1
1
1
1
1
1
1
1
1
1
1
1
1
1
1
1.068
3.84413
7.34576
7.56362
7.32649
1
1
1
1
1
1
1
1
1
1
1
1
1
1
1
1
1
1
1
1.00062
1.48359
5.56971
7.59542
7.34813
1
1
1
1
1
1
1
1
1
1
1
1
1
1
1
1
1
1
1
1
1.01589
2.46417
6.58774
7.44334
1
1
1
1
1
1
1
1
1
1
1
1
1
1
1
1
1
1
1
1
1.00008
1.13068
3.84773
6.85664
1
1
1
1
1
1
1
1
1
1
1
1
1
1
1
1
1
1
1
1
1
1.00192
1.49707
5.0316
1
1
1
1
1
1
1
1
1
1
1
1
1
1
1
1
1
1
1
1
1
1.00001
1.01743
2.14844
1
1
1
1
1
1
1
1
1
1
1
1
1
1
1
1
1
1
1
1
1
1
1.00011
1.08178
1
1
1
1
1
1
1
1
1
1
1
1
1
1
1
1
1
1
1
1
1
1
1
1.00096
1
1
1
1
1
1
1
1
1
1
1
1
1
1
1
1
1
1
1
1
1
1
1
1
1
1
1
1
1
1
1
1
1
1
1
1
1
1
1
1
1
1
1
1
1
1
1
1
1
1
1
1
1
1
1
1
1
1
1
1
1
1
1
1
1
1
1
1
1
1
1
1
1
1
1
1
1
1
1
1
1
1
1
1
1
1
1
1
1
1
1
1
1
1
1
1
1
1
1
1
1
1
1
1
1
1
1
1
1
1
1
1
1
1
1
1
1
1
1
1
1
1
1
1
1
1
1
1
1
1
1
1
1
1
1
1
1
1
1
1
1
1
1
1
1
1
1
1
1
1
1
1
1
1
1
1
1
1
1
1
1
1
1
1
1
1
1
1
1
1
1
1
1
1
1
1
1
1
1
1
1
1
1
1
1
1
1
1
1
1
1
1
1
1
1
1
1
1
1
1
1
1
1
1
1
1
1
1
1
1
1
1
1
1
1
1
1
1
1
1
1
1
1
1
1
1
1
1
1
1
1
1
1
1
1
1
1
1
1
1
5.64559
6.88668
7.66225
8.00353
8.0596
8.13171
8.11945
8.14123
7.67302
8.22562
8.04157
8.07544
8.06145
8.12974
8.12588
8.1531
7.88816
7.94786
7.83735
7.99237
8.0889
8.17195
8.15402
8.14572
8.0579
8.09001
8.07559
8.20975
8.22562
8.28336
8.24653
8.30675
8.07664
8.17418
8.19607
8.24831
8.29886
8.41692
8.34658
8.49391
8.05576
8.16704
8.24521
8.4026
8.53535
8.65642
8.64245
8.79341
8.01892
8.15887
8.31763
8.52475
8.66099
8.75038
8.78991
8.91962
7.97427
8.15592
8.36133
8.55159
8.70151
8.79767
8.8931
9.16495
7.91198
8.11745
8.34375
8.54225
8.65125
8.58659
8.1908
6.63292
7.82475
8.06446
8.29571
8.45637
8.45475
8.21804
7.57376
6.02309
7.70552
7.99036
8.22766
8.34344
8.24153
7.90107
7.20299
5.86768
7.59843
7.87565
8.1199
8.20339
8.03985
7.67382
6.96187
5.82728
7.44485
7.72085
7.9983
8.09049
7.89685
7.49756
6.81926
5.87414
7.37101
7.56164
7.84711
7.94575
7.76757
7.36173
6.7425
5.9399
7.24474
7.37583
7.70317
7.85749
7.69531
7.28849
6.70566
6.01075
7.2079
7.21747
7.51328
7.69821
7.6043
7.2313
6.70037
6.08847
7.20683
7.17828
7.38572
7.58288
7.52426
7.18509
6.69759
6.14724
7.22555
7.04585
7.16128
7.44857
7.48142
7.20883
6.76908
6.25762
7.07907
7.00637
6.94436
7.2464
7.39173
7.20168
6.82759
6.37511
5.88929
6.94922
6.84906
7.1069
7.31652
7.15271
6.8357
6.45671
2.9548
6.25604
6.78523
7.07929
7.30436
7.13839
6.84203
6.50645
1.23256
3.59416
6.34851
7.17164
7.3086
7.12619
6.84947
6.54568
1.00501
1.42344
4.17434
6.79402
7.3412
7.10585
6.81682
6.56422
1.00002
1.01372
1.67543
5.08936
7.13533
7.08051
6.78527
6.50429
1
1.00008
1.0306
2.19408
5.93707
7.0805
6.85152
6.54617
1
1
1.00024
1.08514
2.97444
6.36309
6.81596
6.61432
1
1
1
1.00103
1.229
3.7798
6.44753
6.58454
1
1
1
1
1.00478
1.4816
4.4235
6.32485
1
1
1
1
1.00002
1.01701
1.80359
4.81704
1
1
1
1
1
1.00011
1.04267
2.11245
1
1
1
1
1
1
1.00041
1.07889
1
1
1
1
1
1
1
1.00102
1.92272
0.787073
0.36122
0.312798
0.36802
0.477906
0.548062
0.645788
0.807293
0.902617
0.990735
1.04854
1.11124
1.15648
1.17417
1.19062
1.17351
1.14245
1.09817
1.0302
0.961221
0.928764
0.906394
0.884208
0.863926
0.843621
0.821738
0.799667
0.777546
0.752934
0.726944
0.709196
0.69731
0.688269
0.680689
0.673578
0.666411
0.673591
0.700683
0.754177
0.81535
0.851065
0.865335
0.864667
0.858423
0.856361
0.87077
0.891617
0.887948
0.881504
0.877752
0.879409
0.886567
0.892018
0.902431
0.933887
0.93924
0.928422
0.924378
0.921025
0.918453
0.917654
0.922845
0.946872
0.976343
0.976962
0.968602
0.960271
0.957468
0.957325
0.960987
0.974229
0.998994
1.0267
1.04562
1.05299
1.04969
1.02452
1.0055
1.01055
1.02176
1.04097
1.06125
1.06264
1.05854
1.05485
1.05188
1.04149
2.81115
1.75241
1.17306
0.770729
0.725904
0.702005
0.650506
0.654765
0.69109
0.735556
0.806177
0.924609
1.06094
1.1402
1.16204
1.16261
1.14361
1.11935
1.08573
1.03698
0.984893
0.948804
0.92534
0.900839
0.87536
0.851129
0.826882
0.799495
0.768381
0.741156
0.721061
0.705908
0.696287
0.689216
0.682459
0.678604
0.675289
0.67685
0.694672
0.731603
0.786473
0.831516
0.858307
0.866712
0.863378
0.857864
0.862272
0.875818
0.879647
0.878768
0.880239
0.886329
0.897673
0.901949
0.897259
0.916873
0.919534
0.909501
0.909986
0.914241
0.918435
0.922567
0.930463
0.953813
0.982097
0.979766
0.969006
0.958264
0.953995
0.952424
0.954223
0.966577
0.992476
1.02136
1.03723
1.03523
1.01595
0.991542
0.999563
1.01891
1.02694
1.03384
1.04634
1.05301
1.05065
1.04806
1.04633
1.03799
3.54379
2.35795
1.74707
1.28569
1.00842
0.877677
0.755189
0.653936
0.644265
0.669821
0.728277
0.859336
1.03839
1.16698
1.19253
1.18714
1.16187
1.12085
1.07259
1.02783
0.986406
0.95668
0.939062
0.918564
0.89438
0.870002
0.842731
0.806761
0.759264
0.727909
0.712378
0.699807
0.692543
0.688104
0.684574
0.682333
0.68263
0.682902
0.69187
0.71743
0.768959
0.830413
0.868043
0.879822
0.877755
0.870936
0.863938
0.861453
0.865257
0.866598
0.871236
0.884005
0.900852
0.909264
0.904384
0.908496
0.898659
0.8843
0.885766
0.891865
0.900205
0.912512
0.929657
0.954157
0.983527
0.991828
0.978193
0.966237
0.960933
0.960048
0.964665
0.980238
1.00655
1.0319
1.04412
1.04109
1.02488
1.00396
1.01026
1.02734
1.0339
1.03762
1.04489
1.05414
1.05433
1.05235
1.05072
1.04273
4.1129
2.96943
2.29144
1.76293
1.39331
1.2026
1.05608
0.863412
0.821488
0.814313
0.780152
0.804667
0.895156
1.01433
1.11873
1.16686
1.15392
1.1218
1.07802
1.03703
0.997554
0.956482
0.934932
0.914671
0.890258
0.867249
0.841737
0.80896
0.767953
0.733064
0.718696
0.706329
0.695173
0.688827
0.684976
0.681534
0.678516
0.673964
0.669388
0.684847
0.729914
0.80324
0.861087
0.88315
0.882709
0.875826
0.866667
0.857936
0.857802
0.860339
0.867299
0.881408
0.898633
0.905936
0.903468
0.907003
0.899057
0.887123
0.889525
0.895611
0.90267
0.912975
0.93101
0.952392
0.971377
0.980851
0.975694
0.965032
0.958204
0.956764
0.963254
0.981135
1.00458
1.02121
1.026
1.02334
1.02192
1.02654
1.03147
1.03348
1.03365
1.03395
1.03828
1.04861
1.05115
1.0504
1.04937
1.04281
4.55897
3.48404
2.772
2.2547
1.82415
1.55447
1.34155
1.10891
1.01422
0.969509
0.901671
0.825923
0.84488
0.905527
1.0026
1.08622
1.12917
1.12348
1.09856
1.06929
1.03384
0.992456
0.958347
0.929313
0.897229
0.866245
0.838758
0.810123
0.7785
0.745055
0.729825
0.720914
0.706792
0.693467
0.686399
0.680631
0.67432
0.665902
0.653144
0.65412
0.688723
0.769281
0.863604
0.895894
0.893006
0.884046
0.875272
0.869298
0.869144
0.870805
0.878114
0.897306
0.919053
0.925307
0.916721
0.907834
0.889663
0.876418
0.879661
0.889838
0.905147
0.919726
0.937167
0.954972
0.967149
0.970825
0.966566
0.957015
0.949576
0.952436
0.970172
0.996981
1.01544
1.01687
1.00774
1.00119
1.01949
1.05574
1.04454
1.03256
1.02876
1.02752
1.0276
1.03601
1.04668
1.04931
1.04973
1.04454
4.85472
3.96343
3.25094
2.64357
2.23013
1.93069
1.66742
1.40298
1.26227
1.18868
1.08877
0.959088
0.927636
0.941549
0.963735
0.9963
1.04199
1.07438
1.0896
1.08039
1.05366
1.01412
0.972302
0.933777
0.898395
0.865714
0.841429
0.818541
0.7927
0.76099
0.74033
0.732072
0.718903
0.697189
0.683913
0.675177
0.665912
0.655821
0.642989
0.633773
0.658136
0.730583
0.847361
0.918623
0.939112
0.947849
0.965016
0.985157
0.999597
1.01669
1.04106
1.07671
1.10902
1.124
1.11526
1.09184
1.0507
1.00948
0.980145
0.964456
0.95576
0.94112
0.938565
0.945589
0.952275
0.953172
0.948346
0.94149
0.94309
0.961849
0.996266
1.01986
1.01802
1.0015
0.985375
0.989006
1.03663
1.07088
1.04468
1.02929
1.02252
1.02168
1.02384
1.03363
1.04539
1.04964
1.05097
1.0465
5.10375
4.31091
3.6434
3.05326
2.60574
2.28015
1.98676
1.68312
1.528
1.4299
1.31481
1.13042
1.03446
1.00889
0.96849
0.962622
0.988354
1.03696
1.06868
1.0669
1.04975
1.0219
0.985462
0.945138
0.906462
0.871873
0.851794
0.835461
0.816459
0.786953
0.762239
0.752239
0.736317
0.705844
0.684674
0.674456
0.666535
0.660222
0.653878
0.652547
0.685277
0.78619
0.971803
1.16108
1.28993
1.37813
1.46877
1.5228
1.54755
1.5738
1.61918
1.66549
1.6904
1.69136
1.67707
1.66129
1.62677
1.5676
1.4922
1.39575
1.27649
1.13045
1.0124
0.97126
0.956238
0.940581
0.929137
0.929365
0.955144
1.00467
1.03586
1.02297
0.997837
0.979522
0.975596
1.0065
1.06623
1.06604
1.03976
1.02541
1.01675
1.01589
1.02065
1.03509
1.04721
1.05091
1.05249
1.04837
5.31801
4.62036
3.99552
3.41695
2.94236
2.60033
2.30043
2.00008
1.77908
1.65624
1.51527
1.34415
1.21284
1.14591
1.06354
1.00395
1.00685
1.0308
1.04611
1.03747
1.02733
1.01446
0.990513
0.95674
0.921733
0.885954
0.868652
0.856176
0.839524
0.811071
0.783419
0.771019
0.755067
0.724574
0.709725
0.709435
0.728442
0.7737
0.841012
0.928725
1.05607
1.2498
1.53116
1.79899
1.91446
1.97045
2.00513
2.01737
2.01195
1.99205
1.99852
2.00725
2.00137
1.98147
1.96606
1.97333
1.97533
1.95973
1.93474
1.88205
1.79011
1.65819
1.48097
1.31522
1.19503
1.10569
1.04351
1.0114
1.02745
1.04558
1.01574
0.979889
0.957814
0.956393
0.984083
1.04079
1.06808
1.05205
1.03324
1.01831
1.0121
1.0132
1.02199
1.03974
1.04947
1.0529
1.05517
1.05147
5.47855
4.86548
4.29247
3.73325
3.27336
2.92351
2.60206
2.2635
2.04228
1.89369
1.74063
1.52852
1.37964
1.30218
1.20757
1.10209
1.04127
1.04291
1.04107
1.01316
1.00658
1.00598
0.997767
0.974703
0.94254
0.908454
0.892849
0.880218
0.862646
0.83547
0.807116
0.799805
0.802733
0.812932
0.859793
0.965838
1.12501
1.31939
1.47158
1.58662
1.67979
1.75748
1.88538
2.04842
2.14242
2.16418
2.15891
2.14326
2.11082
2.07018
2.04519
2.02494
2.00327
1.97832
1.97235
1.98204
1.98979
1.99204
1.9946
1.99519
1.96712
1.92126
1.85468
1.78087
1.7041
1.60813
1.5267
1.44184
1.31074
1.15001
1.0314
0.974647
0.94933
0.958741
1.01481
1.05498
1.04875
1.03643
1.02637
1.01911
1.01609
1.01689
1.0239
1.03854
1.04963
1.05517
1.05809
1.055
5.6362
5.0466
4.53691
4.04287
3.56183
3.18607
2.87889
2.56805
2.27422
2.08743
1.93092
1.73595
1.56266
1.46249
1.36908
1.23137
1.11051
1.1013
1.09011
1.05681
1.02677
1.01543
1.01126
0.99675
0.966156
0.933119
0.918586
0.91149
0.902975
0.903264
0.938316
1.02903
1.18428
1.3623
1.55155
1.7193
1.86875
1.98715
2.01137
1.99628
1.97561
1.9327
1.93843
2.00231
2.10445
2.15983
2.16745
2.13514
2.08523
2.03681
1.9978
1.96494
1.93117
1.89611
1.87895
1.87606
1.87964
1.89086
1.91332
1.9451
1.94969
1.92473
1.89298
1.87975
1.90656
1.96439
1.95434
1.86912
1.75041
1.55412
1.33409
1.1878
1.11001
1.07529
1.07097
1.05699
1.04429
1.02839
1.02088
1.01994
1.01906
1.02121
1.02727
1.03838
1.05082
1.05814
1.06101
1.05814
5.80834
5.25047
4.75759
4.27296
3.81581
3.46146
3.14163
2.80391
2.49615
2.29789
2.13099
1.91945
1.71276
1.60873
1.52115
1.39796
1.25306
1.18186
1.15526
1.11012
1.06329
1.03425
1.02751
1.0163
0.987991
0.960949
0.964041
1.00682
1.14331
1.36079
1.60668
1.86806
2.06535
2.20154
2.24842
2.25173
2.25343
2.2221
2.18107
2.11631
2.02948
1.93106
1.87956
1.88578
1.94051
2.01595
2.02578
1.98063
1.94035
1.90325
1.86336
1.82242
1.78596
1.75784
1.74015
1.73124
1.73123
1.73993
1.75646
1.79382
1.84499
1.85345
1.85062
1.86957
1.90511
1.97065
2.01375
1.96127
1.89033
1.80242
1.69543
1.63982
1.58247
1.48711
1.33894
1.1699
1.05527
1.01931
1.01624
1.01708
1.01848
1.02193
1.02964
1.04326
1.05834
1.06572
1.06776
1.06329
5.97301
5.4444
4.96126
4.52224
4.07076
3.64295
3.34204
3.06084
2.75165
2.46387
2.2866
2.10749
1.90213
1.74354
1.64482
1.53928
1.39673
1.30908
1.26074
1.21086
1.12663
1.06392
1.06368
1.07096
1.08825
1.15703
1.34452
1.66539
2.06095
2.35084
2.51189
2.58316
2.58906
2.55393
2.49403
2.42735
2.36786
2.29315
2.17588
2.05497
1.94468
1.84902
1.7712
1.72555
1.71592
1.75052
1.7751
1.76391
1.76734
1.77359
1.74887
1.7098
1.67976
1.65998
1.64055
1.62472
1.6163
1.62043
1.63699
1.66192
1.69348
1.73865
1.78911
1.81866
1.8369
1.87438
1.91206
1.88683
1.8363
1.80855
1.81492
1.84974
1.86365
1.83415
1.75867
1.59468
1.33855
1.12066
1.03099
1.0137
1.01369
1.01844
1.02914
1.04911
1.06876
1.07539
1.07701
1.06977
6.08561
5.59931
5.12879
4.70902
4.28405
3.87498
3.538
3.24403
2.96102
2.68943
2.46902
2.27955
2.07406
1.86925
1.7532
1.66602
1.55086
1.42851
1.37302
1.31823
1.24612
1.19016
1.23549
1.40673
1.73344
2.11994
2.46421
2.72561
2.86068
2.86903
2.84243
2.80711
2.72958
2.63349
2.53382
2.43391
2.31785
2.18974
2.06219
1.94942
1.86144
1.78932
1.71488
1.64931
1.59577
1.58511
1.59156
1.59812
1.60609
1.63153
1.63472
1.61056
1.58966
1.57656
1.55474
1.53452
1.52025
1.51969
1.5414
1.56358
1.58636
1.61989
1.65438
1.68364
1.70898
1.72908
1.74196
1.75388
1.76361
1.78282
1.83181
1.88928
1.90232
1.88215
1.85222
1.80781
1.71672
1.54634
1.31776
1.13388
1.04816
1.0291
1.03304
1.05847
1.08074
1.08514
1.08654
1.0752
6.17905
5.74644
5.28934
4.87597
4.47679
4.05749
3.68583
3.41077
3.14442
2.87333
2.64496
2.46142
2.2713
2.07548
1.90929
1.77433
1.63357
1.53971
1.50836
1.47339
1.54637
1.80545
2.26048
2.73076
3.06501
3.29922
3.32225
3.23385
3.13119
3.04417
2.95266
2.80285
2.65492
2.53155
2.42703
2.32682
2.21985
2.11025
2.00495
1.91035
1.83002
1.75673
1.68435
1.60758
1.53818
1.51044
1.49803
1.49183
1.47909
1.48473
1.49425
1.47433
1.45599
1.455
1.45991
1.45711
1.45268
1.45083
1.47732
1.51625
1.52722
1.53267
1.55173
1.57955
1.611
1.63819
1.64534
1.65506
1.70711
1.78697
1.83448
1.84261
1.84605
1.84021
1.82646
1.80273
1.77114
1.72433
1.63949
1.50407
1.34338
1.19802
1.11425
1.09674
1.09501
1.09527
1.09561
1.07229
6.24702
5.86828
5.456
5.04511
4.6531
4.26498
3.90108
3.58055
3.2836
3.00274
2.78381
2.59694
2.42507
2.24747
2.0941
1.95773
1.81693
1.75076
1.86765
2.27052
2.86602
3.47211
3.70258
3.83843
3.81733
3.74548
3.58626
3.38
3.16534
2.97328
2.81078
2.68373
2.57841
2.47638
2.3715
2.26991
2.16866
2.07099
1.97901
1.89415
1.81638
1.73655
1.66267
1.58894
1.51593
1.47511
1.45005
1.43256
1.4159
1.40281
1.38486
1.36239
1.34379
1.34033
1.34818
1.36062
1.37126
1.37981
1.39577
1.4354
1.46063
1.46642
1.47666
1.49765
1.52579
1.55423
1.56725
1.56438
1.56973
1.597
1.63262
1.65023
1.65594
1.6628
1.67589
1.69584
1.71197
1.70826
1.68093
1.6644
1.63679
1.57234
1.44381
1.27113
1.1474
1.10717
1.09109
1.05131
6.23351
5.91244
5.53425
5.15155
4.79746
4.44158
4.09229
3.78665
3.50271
3.20042
2.91266
2.69821
2.54565
2.3908
2.25045
2.27813
2.57226
3.09851
3.67549
4.2044
4.48801
4.54492
4.38498
4.24431
4.088
3.86522
3.60492
3.37129
3.1598
2.96475
2.80278
2.66923
2.55703
2.45408
2.34967
2.24962
2.15304
2.06301
1.98107
1.8984
1.82348
1.75446
1.68025
1.61351
1.55715
1.51114
1.47137
1.43465
1.39574
1.35127
1.31141
1.28482
1.26713
1.25989
1.26435
1.27615
1.27937
1.27683
1.27923
1.3022
1.33088
1.34665
1.36349
1.38811
1.41589
1.44387
1.46382
1.47153
1.47826
1.48821
1.50362
1.50862
1.50744
1.50263
1.50156
1.50884
1.5283
1.58092
1.67028
1.70942
1.72022
1.72465
1.70478
1.62199
1.43904
1.21232
1.08306
1.01433
6.27392
5.9687
5.62292
5.2515
4.8704
4.54891
4.25296
3.95091
3.68881
3.38962
3.0908
2.88527
2.71105
2.75876
3.15106
3.94846
4.87903
5.43448
5.38534
5.24836
5.06735
4.80307
4.54806
4.2841
3.9951
3.72129
3.5147
3.34757
3.18087
3.00013
2.81889
2.66735
2.55475
2.46264
2.37033
2.27171
2.17654
2.09911
2.03802
1.96281
1.86695
1.78595
1.71503
1.65342
1.59875
1.54206
1.48503
1.43143
1.38207
1.33004
1.27835
1.25094
1.23278
1.21971
1.21974
1.22281
1.2123
1.19579
1.18644
1.19268
1.21582
1.23799
1.25419
1.2672
1.27677
1.28844
1.30681
1.33329
1.35771
1.37332
1.39231
1.39891
1.39761
1.39246
1.382
1.38069
1.38818
1.41151
1.48741
1.63383
1.74497
1.7685
1.76744
1.74358
1.67396
1.48491
1.19393
1.01144
6.336
6.05819
5.74108
5.37803
5.02699
4.69967
4.34091
4.05019
3.81968
3.59881
3.33052
3.43025
4.01541
5.06881
5.93198
6.53663
6.68528
6.4227
5.9843
5.63404
5.30224
4.92386
4.55723
4.23765
3.95218
3.71797
3.54068
3.38757
3.23009
3.04307
2.85076
2.69984
2.59722
2.51286
2.42559
2.33189
2.24053
2.16431
2.09564
2.01418
1.90678
1.79615
1.7118
1.65394
1.60852
1.56575
1.51974
1.46065
1.37746
1.29127
1.24322
1.22299
1.20783
1.19373
1.18537
1.17662
1.16484
1.15134
1.13673
1.13056
1.13471
1.14143
1.14399
1.14053
1.13484
1.13517
1.14601
1.1695
1.20548
1.24161
1.26958
1.2982
1.31285
1.31677
1.31684
1.31129
1.30872
1.31655
1.34827
1.43341
1.56222
1.66337
1.70146
1.70626
1.67528
1.57316
1.41382
1.18707
6.38209
6.09979
5.82136
5.51208
5.18669
4.83788
4.47782
4.208
3.99828
4.16105
5.04345
6.41606
7.37613
7.89979
7.70089
7.32387
6.86949
6.38088
6.01842
5.68853
5.31306
4.91508
4.54073
4.21923
4.00028
3.84595
3.6893
3.50338
3.31031
3.13527
2.97847
2.83532
2.69658
2.56641
2.45348
2.35898
2.28185
2.20785
2.11893
2.01839
1.90502
1.79859
1.71764
1.66109
1.62206
1.58092
1.52856
1.47695
1.40666
1.30249
1.24597
1.22621
1.21069
1.1948
1.18494
1.17409
1.1582
1.14007
1.12316
1.11072
1.10563
1.10697
1.10301
1.09376
1.08419
1.07654
1.07377
1.07929
1.09198
1.11136
1.13399
1.15981
1.18164
1.19892
1.2151
1.22622
1.23383
1.24738
1.27563
1.32803
1.40279
1.46378
1.49818
1.52098
1.53117
1.51735
1.45199
1.32808
6.39808
6.17381
5.88189
5.58974
5.30589
5.00505
4.68471
4.78229
5.88141
7.6268
9.02689
9.58288
9.28761
8.76616
8.13685
7.48196
6.85861
6.37732
6.00957
5.6766
5.29066
4.88132
4.54986
4.32244
4.1599
4.00147
3.81694
3.60567
3.40743
3.24004
3.08854
2.93344
2.76439
2.6017
2.47043
2.36796
2.28552
2.21425
2.13937
2.03085
1.91264
1.81812
1.74539
1.67244
1.62031
1.59558
1.57668
1.53009
1.45109
1.34554
1.28104
1.25605
1.23811
1.21612
1.18527
1.1698
1.16175
1.16068
1.14395
1.12388
1.10697
1.09148
1.08046
1.06999
1.06034
1.0543
1.04877
1.04892
1.04903
1.04491
1.04724
1.05836
1.074
1.094
1.11991
1.15639
1.19835
1.23016
1.2545
1.28513
1.32472
1.33634
1.33719
1.33795
1.34839
1.36183
1.37442
1.36173
6.17367
6.18848
5.96015
5.64529
5.36744
5.36182
6.56533
8.80668
10.7336
10.9438
10.534
9.92974
9.31457
8.58279
8.04673
7.54956
7.06538
6.62216
6.17463
5.73803
5.33125
4.9794
4.69608
4.4753
4.27658
4.07232
3.8503
3.63814
3.4658
3.31311
3.15706
2.97923
2.79706
2.67262
2.57885
2.4761
2.36781
2.24973
2.10521
1.9756
1.93255
1.90314
1.84649
1.77216
1.70414
1.63267
1.54666
1.4716
1.40324
1.36283
1.33641
1.30337
1.2619
1.23304
1.21259
1.19138
1.1657
1.13948
1.10999
1.08812
1.07607
1.06735
1.05772
1.04885
1.04189
1.0403
1.04019
1.03821
1.03543
1.03045
1.02554
1.0281
1.03776
1.05209
1.07295
1.10588
1.14556
1.17866
1.20958
1.24638
1.25895
1.26169
1.26237
1.25376
1.2339
1.23253
1.24729
1.27276
5.02223
5.99585
5.91184
5.7486
6.48827
8.83133
11.7297
13.096
13.0072
12.1716
11.0409
9.98201
9.10646
8.42964
7.94755
7.5142
7.10566
6.70228
6.27797
5.85283
5.46819
5.13521
4.84036
4.5704
4.30682
4.05158
3.8296
3.65457
3.50346
3.3498
3.17658
2.98129
2.80035
2.66075
2.54555
2.44289
2.33956
2.22651
2.09839
2.0062
1.94614
1.88364
1.8128
1.73553
1.66388
1.59921
1.52953
1.45881
1.42287
1.39865
1.36787
1.33451
1.29846
1.2604
1.22645
1.19634
1.16846
1.14306
1.11447
1.08666
1.07255
1.06173
1.05128
1.04179
1.0356
1.03649
1.0372
1.03493
1.03231
1.02893
1.02357
1.01973
1.02491
1.03704
1.05502
1.07663
1.09606
1.11347
1.13931
1.17464
1.18636
1.19077
1.19467
1.19518
1.17649
1.14594
1.1506
1.18001
2.3774
4.87941
5.84519
8.32758
11.7851
13.6961
13.7635
13.2497
12.5452
11.746
10.971
10.2311
9.45354
8.74213
8.16876
7.65261
7.21242
6.8317
6.4729
6.13354
5.81117
5.48987
5.16027
4.82341
4.50054
4.23683
4.04194
3.87956
3.7155
3.53422
3.33067
3.11533
2.91608
2.74871
2.61454
2.50227
2.39551
2.28902
2.19343
2.10973
2.02821
1.94791
1.86412
1.77137
1.68318
1.61784
1.57565
1.54941
1.52865
1.50112
1.46758
1.42886
1.38015
1.32287
1.27931
1.2513
1.22803
1.2037
1.17038
1.13226
1.11305
1.10104
1.08994
1.07979
1.07402
1.07565
1.07321
1.06804
1.06506
1.06201
1.05662
1.04758
1.04379
1.05014
1.06082
1.06638
1.07353
1.08566
1.10852
1.1421
1.15751
1.16265
1.16752
1.17147
1.16937
1.1467
1.12232
1.13259
1.13146
2.66584
7.16674
16.5672
20.3649
19.1028
16.1113
13.5728
12.0682
11.1769
10.5177
9.96071
9.38598
8.78912
8.14691
7.51281
7.00664
6.61386
6.29106
5.9951
5.69215
5.37261
5.03892
4.69957
4.38358
4.13016
3.93881
3.77674
3.61094
3.42207
3.21149
2.9959
2.79746
2.63253
2.50096
2.38847
2.28333
2.18624
2.09888
2.01658
1.93936
1.86275
1.77101
1.66485
1.57723
1.52723
1.49935
1.47761
1.46023
1.43745
1.40729
1.36662
1.30608
1.24355
1.20903
1.18764
1.16582
1.13797
1.09863
1.06489
1.05011
1.03951
1.02954
1.02078
1.01769
1.01997
1.01658
1.01165
1.00854
1.00447
0.998159
0.989016
0.984727
0.989087
0.996844
1.00523
1.01499
1.03011
1.05807
1.09727
1.11608
1.12042
1.12414
1.12726
1.12153
1.08227
1.03853
1.05651
)
;

boundaryField
{
    inlet
    {
        type            fixedValue;
        value           uniform 1;
    }
    outlet
    {
        type            zeroGradient;
    }
    bottom
    {
        type            zeroGradient;
    }
    top
    {
        type            zeroGradient;
    }
    obstacle
    {
        type            zeroGradient;
    }
    defaultFaces
    {
        type            empty;
    }
}


// ************************************************************************* //
