/*--------------------------------*- C++ -*----------------------------------*\
  =========                 |
  \\      /  F ield         | OpenFOAM: The Open Source CFD Toolbox
   \\    /   O peration     | Website:  https://openfoam.org
    \\  /    A nd           | Version:  7
     \\/     M anipulation  |
\*---------------------------------------------------------------------------*/
FoamFile
{
    version     2.0;
    format      ascii;
    class       volScalarField;
    location    "0.7";
    object      T;
}
// * * * * * * * * * * * * * * * * * * * * * * * * * * * * * * * * * * * * * //

dimensions      [0 0 0 1 0 0 0];

internalField   nonuniform List<scalar> 
4048
(
1
1
1
1
1
1
1
1
1
1
1
1
1
1
1
1
1
1.73181
2.72812
2.78827
2.81342
2.85975
2.91728
2.9542
1
1
1
1
1
1
1
1
1
1
1
1
1
1
1
1
1
1.69927
2.70863
2.78345
2.80948
2.85517
2.90885
2.94002
1
1
1
1
1
1
1
1
1
1
1
1
1
1
1
1
1
1.5807
2.64845
2.76596
2.79536
2.83795
2.88703
2.92792
1
1
1
1
1
1
1
1
1
1
1
1
1
1
1
1
1
1.367
2.53576
2.73452
2.76978
2.81923
2.87561
2.95011
1
1
1
1
1
1
1
1
1
1
1
1
1
1
1
1
1
1.08198
2.3755
2.70182
2.74059
2.78137
2.79917
2.82645
1
1
1
1
1
1
1
1
1
1
1
1
1
1
1
1
1
1.0016
2.18198
2.65333
2.70936
2.73922
2.74439
2.77379
1
1
1
1
1
1
1
1
1
1
1
1
1
1
1
1
1
1
1.87629
2.57775
2.67985
2.70367
2.70355
2.71908
1
1
1
1
1
1
1
1
1
1
1
1
1
1
1
1
1
1
1.38864
2.42189
2.64219
2.65279
2.65995
2.67038
1
1
1
1
1
1
1
1
1
1
1
1
1
1
1
1
1
1
1.03501
2.22454
2.5805
2.59538
2.61271
2.62512
1
1
1
1
1
1
1
1
1
1
1
1
1
1
1
1
1
1
1.00023
1.78507
2.47211
2.57017
2.57549
2.58104
1
1
1
1
1
1
1
1
1
1
1
1
1
1
1
1
1
1
1
1.1559
2.27234
2.53312
2.52876
2.53473
1
1
1
1
1
1
1
1
1
1
1
1
1
1
1
1
1
1
1
1.00469
1.92775
2.43655
2.49755
2.49383
1
1
1
1
1
1
1
1
1
1
1
1
1
1
1
1
1
1
1
1
1.25932
2.2589
2.46499
2.45471
1
1
1
1
1
1
1
1
1
1
1
1
1
1
1
1
1
1
1
1
1.01305
1.93811
2.37987
2.42238
1
1
1
1
1
1
1
1
1
1
1
1
1
1
1
1
1
1
1
1
1.00004
1.28364
2.202
2.40031
1
1
1
1
1
1
1
1
1
1
1
1
1
1
1
1
1
1
1
1
1
1.01488
1.82214
2.30457
1
1
1
1
1
1
1
1
1
1
1
1
1
1
1
1
1
1
1
1
1
1.00007
1.20625
2.09763
1
1
1
1
1
1
1
1
1
1
1
1
1
1
1
1
1
1
1
1
1
1
1.00736
1.57378
1
1
1
1
1
1
1
1
1
1
1
1
1
1
1
1
1
1
1
1
1
1
1.00003
1.08211
1
1
1
1
1
1
1
1
1
1
1
1
1
1
1
1
1
1
1
1
1
1
1
1.00135
1
1
1
1
1
1
1
1
1
1
1
1
1
1
1
1
1
1
1
1
1
1
1
1
1
1
1
1
1
1
1
1
1
1
1
1
1
1
1
1
1
1
1
1
1
1
1
1
1
1
1
1
1
1
1
1
1
1
1
1
1
1
1
1
1
1
1
1
1
1
1
1
1
1
1
1
1
1
1
1
1
1
1
1
1
1
1
1
1
1
1
1
1
1
1
1
1
1
1
1
1
1
1
1
1
1
1
1
1
1
1
1
1
1
1
1
1
1
1
1
1
1
1
1
1
1
1
1
1
1
1
1
1
1
1
1
1
1
1
1
1
1
1
1
1
1
1
1
1
1
1
1
1
1
1
1
1
1
1
1
1
1
1
1
1
1
1
1
1
1
1
1
1
1
1
1
1
1
1
1
1
1
1
1
1
1
1
1
1
1
1
1
1
1
1
1
1
1
1
1
1
1
1
1
1
1
1
1
1
1
1
1
1
1
1
1
1
1
1
1
1
1
1
1
1
1
1
1
1
1
1
1
1
1
1
1
1
1
1
1
1
1
1
1
1
1
1
1
1
1
1
1
1
1
1
1
1
1
1
1
1
1
1
1
1
1
1
1
1
1
1
1
1
1
1
1
1
1
1
1
1
1
1
1
1
1
1
1
1
1
1
1
1
1
1
1
1
1
1
1
1
1
1
1
1
1
1
1
1
1
1
1
1
1
1
1
1
1
1
1
1
1
1
1
1
1
1
1
1
1
1
1
1
1
1
1
1
1
1
1
1
1
1
1
1
1
1
1
1
1
1
1
1
1
1
1
1
1
1
1
1
1
1
1
1
1
1
1
1
1
1
1
1
1
1
1
1
1
1
1
1
1
1
1
1
1
1
1
1
1
1
1
1
1
1
1
1
1
1
1
1
1
1
1
1
1
1
1
1
1
1
1
1
1
1
1
1
1
1
1
1
1
1
1
1
1
1
1
1
1
1
1
1
1
1
1
1
1
1
1
1
1
1
1
1
1
1
1
1
1
1
1
1
1
1
1
1
1
1
1
1
1
1
1
1
1
1
1
1
1
1
1
1
1
1
1
1
1
1
1
2.69554
2.8739
3.01497
3.08696
2.82645
2.9496
3.03821
3.09694
2.76677
2.87297
2.97687
3.06451
2.69859
2.78223
2.91556
3.09348
2.64205
2.68581
2.74644
2.78478
2.58626
2.59556
2.58945
2.54168
2.53193
2.52191
2.49034
2.41355
2.48571
2.467
2.42205
2.33854
2.44411
2.42057
2.373
2.29763
2.40773
2.38207
2.33601
2.27137
2.37653
2.35124
2.30872
2.25269
2.34753
2.32153
2.28329
2.23456
2.33232
2.30192
2.26402
2.21874
2.19215
2.28742
2.24217
2.20135
1.87978
2.24018
2.21928
2.18175
1.29476
2.03235
2.19887
2.16836
1.01681
1.53644
2.06329
2.15262
1.00012
1.07424
1.69156
2.05107
1
1.00129
1.16517
1.77069
1
1
1.00545
1.25913
1
1
1.00003
1.01435
1
1
1
1.00011
1
1
1
1
1
1
1
1
1
1
1
1
1
1
1
1
1
1
1
1
1
1
1
1
1
1
1
1
1
1
1
1
1
1
1
1
1
1
1
1
1
1
1
1
1
1
1
1
1
1
1
1
1
1
1
1
2.08461
1.6748
1.49264
1.52629
1.64535
1.71193
1.78368
1.88324
1.88019
1.8638
1.84361
1.8419
1.86422
1.87421
1.87002
1.87381
1.87377
1.87261
1.87005
1.85447
1.83656
1.83277
1.83308
1.83516
1.84183
1.84683
1.84135
1.82357
1.80354
1.78403
1.76917
1.76171
1.75129
1.73554
1.72684
1.72677
1.72913
1.73199
1.73123
1.72174
1.71447
1.71569
1.72253
1.73167
1.73956
1.74126
1.73951
1.73192
1.71973
1.71294
1.71184
1.71254
1.71492
1.71815
1.71821
1.71794
1.72107
1.72487
1.72348
1.71983
1.70904
1.69027
1.6772
1.67366
1.6748
1.68228
1.69343
1.69911
1.70136
1.69961
1.68829
1.6583
1.60382
1.52455
1.41772
1.27873
1.12036
1.01187
0.986089
0.98643
0.995744
1.0019
1.00139
1.00103
1.00057
1.00023
1.00051
1.00163
1.0034
1.00648
1.00942
1.00976
2.20339
2.02033
1.81738
1.72331
1.71758
1.68816
1.68586
1.68188
1.6699
1.67122
1.68211
1.71585
1.76217
1.77752
1.77881
1.78378
1.79277
1.80001
1.80253
1.80003
1.79635
1.79623
1.79805
1.80276
1.80387
1.80221
1.79453
1.77751
1.7599
1.74791
1.7394
1.73237
1.72132
1.70443
1.69436
1.69385
1.69644
1.69979
1.69984
1.69784
1.69863
1.7041
1.71633
1.72776
1.72867
1.72946
1.72885
1.72253
1.71061
1.70272
1.69982
1.69858
1.69782
1.69803
1.69636
1.69564
1.69784
1.7042
1.71073
1.70993
1.70215
1.68589
1.67137
1.66662
1.66765
1.67462
1.68701
1.69574
1.69902
1.69711
1.68535
1.65513
1.60062
1.51812
1.40697
1.2615
1.10107
1.004
0.984685
0.984739
0.992674
0.998784
0.998671
0.998876
0.999008
0.999004
0.999554
1.00086
1.00261
1.00551
1.00859
1.00931
2.1861
2.03315
1.90852
1.77786
1.69185
1.63171
1.57337
1.53575
1.52702
1.53055
1.54585
1.58672
1.6219
1.63313
1.64103
1.65105
1.66662
1.67837
1.68533
1.68825
1.69179
1.69733
1.70557
1.71203
1.71227
1.70845
1.69704
1.68024
1.66056
1.65282
1.65188
1.64968
1.64339
1.63274
1.62699
1.62675
1.62528
1.62011
1.61824
1.62024
1.62729
1.63922
1.65653
1.67187
1.67748
1.67717
1.67835
1.67714
1.67131
1.6666
1.6662
1.66614
1.66504
1.65899
1.65018
1.64888
1.64937
1.65413
1.6664
1.6692
1.6663
1.65958
1.65246
1.64857
1.64944
1.65455
1.66247
1.67166
1.67543
1.67376
1.66404
1.63789
1.58776
1.50967
1.39837
1.24691
1.08465
0.998654
0.986067
0.987419
0.994907
0.999133
0.999
0.999091
0.999335
0.99966
1.00056
1.00223
1.00437
1.00759
1.00986
1.00992
2.1745
2.03745
1.92703
1.81921
1.72809
1.66905
1.60177
1.54295
1.5216
1.49576
1.47807
1.47838
1.4818
1.48619
1.49661
1.51371
1.53503
1.55377
1.56845
1.58371
1.59648
1.60425
1.60815
1.60806
1.60525
1.59827
1.58645
1.57335
1.55872
1.55091
1.54844
1.54586
1.54138
1.53651
1.53584
1.53633
1.53427
1.52665
1.52443
1.52708
1.53423
1.54621
1.56263
1.5785
1.58665
1.5884
1.58945
1.59407
1.59384
1.59288
1.59399
1.59524
1.59525
1.59272
1.58803
1.58762
1.58904
1.59541
1.60812
1.61719
1.61737
1.61691
1.6158
1.61392
1.615
1.619
1.62384
1.63092
1.63253
1.63053
1.62198
1.59942
1.55414
1.48013
1.36992
1.21622
1.06048
0.992913
0.987344
0.989994
0.995895
0.996977
0.996984
0.997292
0.997928
0.998793
1.00029
1.00239
1.00557
1.00943
1.01064
1.01052
2.17505
2.0576
1.95549
1.85616
1.76419
1.69511
1.63364
1.57335
1.5351
1.49817
1.45681
1.42183
1.42188
1.42444
1.42326
1.43128
1.45047
1.46558
1.47488
1.48813
1.50371
1.51703
1.52915
1.53232
1.53075
1.52515
1.51198
1.49567
1.48393
1.47496
1.46753
1.46214
1.45796
1.45541
1.45232
1.44597
1.44048
1.44004
1.44237
1.44736
1.45554
1.46771
1.47902
1.48818
1.49318
1.49432
1.49583
1.50305
1.50884
1.51169
1.51424
1.5147
1.51594
1.51611
1.51612
1.51742
1.52177
1.53126
1.54635
1.56109
1.56954
1.57207
1.57214
1.57208
1.57162
1.57233
1.5772
1.58114
1.58075
1.57778
1.56897
1.54719
1.50343
1.43115
1.32187
1.17171
1.03516
0.989593
0.988027
0.991361
0.995719
0.996025
0.996053
0.996206
0.996613
0.998266
1.00097
1.00393
1.00777
1.01087
1.01143
1.01124
2.17428
2.07578
1.97984
1.88881
1.80954
1.74432
1.67525
1.60745
1.5642
1.53301
1.49664
1.44415
1.43036
1.41838
1.39689
1.39439
1.39868
1.40497
1.40885
1.41798
1.43361
1.44811
1.45945
1.4616
1.46059
1.45913
1.45555
1.44923
1.44337
1.43622
1.42501
1.41276
1.40379
1.39817
1.39138
1.38149
1.38044
1.38356
1.38842
1.39243
1.39749
1.40166
1.40533
1.40701
1.40755
1.4095
1.41481
1.42554
1.43555
1.44339
1.44818
1.45017
1.4528
1.45588
1.45882
1.46329
1.47143
1.48399
1.50015
1.5155
1.52648
1.53181
1.53299
1.53145
1.53037
1.53173
1.53265
1.53202
1.52912
1.52146
1.50509
1.47403
1.4231
1.34861
1.24384
1.11139
1.01087
0.987346
0.98768
0.991517
0.994008
0.994281
0.994626
0.995119
0.996021
0.998569
1.00226
1.00583
1.00956
1.01195
1.01227
1.01186
2.17134
2.08723
2.00706
1.92479
1.84277
1.77898
1.7191
1.65932
1.60398
1.56777
1.52637
1.47595
1.4484
1.43112
1.40562
1.37437
1.37143
1.3774
1.37919
1.38078
1.38652
1.3968
1.40105
1.40073
1.39993
1.40034
1.40128
1.40004
1.39948
1.39696
1.3907
1.38188
1.37293
1.36488
1.35669
1.34925
1.34859
1.35043
1.35326
1.35378
1.35183
1.34765
1.34406
1.34395
1.34544
1.35105
1.36127
1.37722
1.39312
1.40153
1.40427
1.40621
1.40683
1.40777
1.41304
1.42241
1.43645
1.4548
1.4734
1.48801
1.49711
1.49981
1.49856
1.49718
1.49757
1.49673
1.4944
1.49067
1.48283
1.46619
1.43722
1.39396
1.33463
1.25659
1.15687
1.0513
0.994519
0.987583
0.989411
0.992598
0.993314
0.99347
0.993695
0.994138
0.995623
0.999245
1.00363
1.00745
1.01103
1.01292
1.01304
1.01228
2.16676
2.09567
2.02195
1.94723
1.87914
1.81868
1.75872
1.69547
1.64394
1.60672
1.57179
1.51872
1.47691
1.45923
1.43734
1.40444
1.38745
1.38677
1.37912
1.36912
1.36373
1.35963
1.35532
1.34835
1.34215
1.3442
1.3525
1.35575
1.35617
1.35503
1.35105
1.34814
1.34844
1.34674
1.34248
1.33842
1.33535
1.33296
1.33038
1.32542
1.31435
1.30222
1.30185
1.30245
1.3046
1.31355
1.32834
1.34656
1.36013
1.36648
1.36945
1.36996
1.37062
1.37425
1.38331
1.39798
1.41815
1.43863
1.458
1.47026
1.47326
1.47195
1.46967
1.47093
1.47011
1.46676
1.46219
1.45512
1.44088
1.41459
1.37506
1.32234
1.25477
1.17059
1.07718
1.00877
0.990108
0.990573
0.993085
0.993284
0.992951
0.992912
0.993053
0.993555
0.995451
0.999817
1.00469
1.00895
1.01251
1.01383
1.01379
1.01252
2.15937
2.09503
2.03242
1.96962
1.9036
1.84359
1.79233
1.73996
1.68259
1.63527
1.60188
1.56314
1.52412
1.49643
1.47077
1.43639
1.41014
1.39873
1.3858
1.36903
1.35073
1.33945
1.33354
1.32551
1.31305
1.30867
1.31149
1.3148
1.31572
1.31539
1.31369
1.3152
1.3226
1.32559
1.32463
1.32408
1.32327
1.32033
1.31327
1.30285
1.28898
1.27617
1.27525
1.27627
1.27976
1.29004
1.30243
1.31469
1.32627
1.33302
1.33796
1.34049
1.34515
1.35386
1.36767
1.38702
1.40525
1.42329
1.44275
1.45081
1.45018
1.44669
1.44694
1.44683
1.44385
1.43841
1.43164
1.41994
1.39774
1.36232
1.31456
1.25436
1.17962
1.0939
1.02114
0.9937
0.992977
0.995726
0.995943
0.994377
0.993195
0.993046
0.993105
0.993426
0.995482
1.00004
1.00517
1.01014
1.01389
1.0147
1.01456
1.01257
2.1497
2.09476
2.04045
1.98223
1.92638
1.87388
1.81905
1.76673
1.71659
1.67037
1.63135
1.59598
1.56211
1.52848
1.50166
1.47858
1.45279
1.42686
1.40405
1.38404
1.36255
1.34311
1.33434
1.32191
1.30625
1.29247
1.28737
1.28281
1.27465
1.2727
1.27435
1.28239
1.29638
1.3021
1.30027
1.30083
1.30148
1.30033
1.29431
1.28404
1.27384
1.26698
1.26252
1.26316
1.26711
1.2749
1.28092
1.28614
1.29523
1.30419
1.31131
1.31924
1.32917
1.34184
1.35742
1.37412
1.38893
1.40423
1.42179
1.42836
1.4272
1.42455
1.42328
1.42059
1.41528
1.40803
1.39706
1.37785
1.34723
1.30561
1.25382
1.19065
1.11539
1.04019
0.99948
0.995787
0.9982
0.999082
0.997959
0.995812
0.994342
0.993591
0.99321
0.993415
0.995395
0.999839
1.00548
1.01156
1.01517
1.01555
1.01527
1.01224
2.13693
2.08809
2.03971
1.99296
1.94233
1.8858
1.83461
1.79301
1.75085
1.69972
1.65286
1.62533
1.60028
1.56917
1.52731
1.50011
1.48436
1.46003
1.43245
1.40877
1.38495
1.35429
1.33214
1.31729
1.30292
1.28553
1.27307
1.26806
1.25702
1.25074
1.25197
1.25835
1.2715
1.27636
1.27435
1.27555
1.27699
1.27623
1.27084
1.26389
1.26135
1.25969
1.25688
1.25651
1.25824
1.2618
1.26523
1.26858
1.27367
1.28295
1.29438
1.30623
1.31984
1.33298
1.34436
1.35728
1.37057
1.38302
1.39618
1.40392
1.40388
1.40106
1.39668
1.39117
1.38407
1.37349
1.35494
1.32574
1.28807
1.24484
1.19515
1.13648
1.07072
1.01641
0.998795
0.999084
0.999555
0.999414
0.998652
0.99702
0.99524
0.994188
0.994172
0.994993
0.997282
1.00132
1.00734
1.01371
1.01593
1.01601
1.01535
1.01106
2.12801
2.08789
2.04384
1.99527
1.94958
1.90345
1.85359
1.80455
1.76878
1.72817
1.68333
1.64236
1.62156
1.5958
1.56062
1.52332
1.50383
1.4834
1.45435
1.4283
1.41018
1.38874
1.35585
1.3322
1.31538
1.29355
1.27328
1.26668
1.25781
1.24663
1.24572
1.24824
1.25258
1.25113
1.24743
1.24932
1.25144
1.25135
1.24882
1.24556
1.24444
1.24502
1.24472
1.24465
1.24594
1.24817
1.2515
1.25658
1.26306
1.27164
1.2843
1.29844
1.31134
1.32095
1.32966
1.33872
1.34706
1.35747
1.36912
1.3755
1.37531
1.37291
1.36834
1.36187
1.35202
1.33559
1.30874
1.27138
1.229
1.18636
1.14259
1.09448
1.0455
1.01069
0.999019
0.998242
0.998664
0.999025
0.998395
0.996721
0.995068
0.994385
0.994678
0.996294
0.999303
1.00419
1.01117
1.01563
1.01622
1.0161
1.01435
1.00863
2.11839
2.07871
2.03839
1.99799
1.95954
1.91589
1.86389
1.82117
1.78806
1.75252
1.70442
1.66508
1.64343
1.62127
1.58731
1.54362
1.52365
1.50495
1.48001
1.4462
1.42782
1.41242
1.3823
1.35049
1.33113
1.3109
1.2815
1.26692
1.2572
1.24597
1.23951
1.24049
1.24287
1.24118
1.23442
1.23351
1.23672
1.23736
1.2352
1.23175
1.23034
1.23076
1.23036
1.22977
1.23083
1.23361
1.23779
1.24406
1.25333
1.26331
1.27512
1.28866
1.2991
1.30711
1.31413
1.31991
1.32329
1.32773
1.33543
1.34157
1.34165
1.34014
1.33622
1.32885
1.31554
1.29286
1.25929
1.218
1.17474
1.13364
1.09534
1.05932
1.02762
1.00563
0.998016
0.99743
0.998205
0.998998
0.998644
0.997654
0.996649
0.996197
0.996373
0.997807
1.00159
1.00843
1.01453
1.01601
1.01615
1.01573
1.01242
1.00568
2.11064
2.07464
2.03268
1.9904
1.95414
1.92117
1.88078
1.83377
1.79807
1.76957
1.73282
1.68936
1.65737
1.63709
1.60855
1.57262
1.54616
1.52252
1.49338
1.46126
1.44653
1.43413
1.41064
1.37083
1.34533
1.32796
1.30245
1.28312
1.27427
1.26582
1.25148
1.24474
1.244
1.23801
1.22654
1.2202
1.22021
1.21942
1.21564
1.21552
1.21842
1.21992
1.2176
1.21395
1.21502
1.21764
1.22218
1.2284
1.23754
1.24888
1.26062
1.27338
1.28186
1.28849
1.29245
1.294
1.29465
1.29592
1.29991
1.30608
1.30689
1.30546
1.3009
1.29102
1.27266
1.24413
1.20774
1.16782
1.12704
1.08842
1.05645
1.03318
1.01511
1.0025
0.998247
0.997933
0.998369
0.999636
0.999701
0.999367
0.999028
0.999108
0.999776
1.00198
1.00694
1.01272
1.01499
1.01551
1.01558
1.01446
1.00909
1.00294
2.02516
2.05995
2.02923
1.98969
1.95368
1.9165
1.87832
1.84335
1.8124
1.78214
1.74979
1.70907
1.67749
1.65313
1.62136
1.58749
1.56578
1.54338
1.51528
1.47847
1.45695
1.44892
1.42907
1.39434
1.36561
1.34883
1.32495
1.29859
1.28977
1.28303
1.27198
1.26141
1.25367
1.2412
1.21983
1.20715
1.20693
1.20657
1.2026
1.20296
1.20732
1.21245
1.21185
1.20513
1.20421
1.20495
1.20732
1.21117
1.21816
1.22993
1.24141
1.25097
1.25904
1.26428
1.26596
1.26583
1.26455
1.26418
1.26505
1.26808
1.26901
1.26764
1.26314
1.25118
1.22783
1.19546
1.16072
1.12693
1.09231
1.05866
1.03586
1.02235
1.00902
1.00226
1.00183
1.00181
1.0015
1.00147
1.00146
1.00153
1.0019
1.00285
1.00481
1.00837
1.01254
1.01421
1.01437
1.01439
1.01409
1.01126
1.0048
1.00202
1.79503
1.99314
2.01339
1.98473
1.94819
1.9149
1.88192
1.84555
1.81081
1.78707
1.76434
1.73225
1.69471
1.665
1.6352
1.60343
1.58015
1.55996
1.53382
1.49393
1.47351
1.4632
1.44384
1.40839
1.37733
1.36658
1.35347
1.33163
1.31311
1.29995
1.28337
1.27174
1.26397
1.25048
1.23111
1.21379
1.21045
1.20799
1.20096
1.19694
1.19844
1.20121
1.20012
1.19127
1.18929
1.18974
1.19161
1.19497
1.20005
1.2096
1.22028
1.22679
1.23229
1.23579
1.23562
1.23406
1.23098
1.22848
1.22791
1.22843
1.23035
1.23036
1.22665
1.21296
1.18793
1.15723
1.12739
1.10064
1.0742
1.04995
1.03326
1.01828
1.00697
1.00522
1.00595
1.00692
1.00718
1.007
1.00624
1.00603
1.00629
1.00726
1.00887
1.01096
1.01313
1.01417
1.01427
1.01394
1.01165
1.0059
1.00152
1.00159
1.32288
1.79489
1.95306
1.96939
1.94446
1.90779
1.87859
1.85023
1.817
1.78658
1.7628
1.73976
1.7123
1.68183
1.64701
1.61105
1.59091
1.57383
1.54945
1.51159
1.48457
1.47397
1.45644
1.42751
1.39453
1.38129
1.37267
1.35352
1.33037
1.31656
1.30262
1.2882
1.27359
1.25599
1.23624
1.22241
1.21908
1.21576
1.20843
1.19819
1.19289
1.19141
1.18813
1.17765
1.17432
1.1747
1.1768
1.18083
1.18433
1.18954
1.19722
1.20244
1.20419
1.2041
1.2028
1.19985
1.19578
1.19215
1.19049
1.19048
1.19027
1.18721
1.17865
1.16419
1.14551
1.12411
1.1019
1.08039
1.05882
1.03897
1.02324
1.01312
1.00988
1.01004
1.01113
1.0121
1.01255
1.01274
1.01192
1.01021
1.00882
1.00864
1.00907
1.01021
1.01173
1.01224
1.01215
1.01075
1.00652
1.00239
1.00132
1.00176
1.02562
1.3564
1.77013
1.90729
1.93017
1.9065
1.87296
1.84574
1.81958
1.78896
1.76212
1.73833
1.71472
1.69027
1.65987
1.6242
1.60031
1.58193
1.55837
1.52467
1.49796
1.48543
1.46886
1.44138
1.4101
1.39897
1.39011
1.37183
1.34842
1.32422
1.31009
1.30223
1.28796
1.27069
1.25333
1.23402
1.22732
1.22496
1.21577
1.20116
1.19401
1.19098
1.18641
1.17556
1.16733
1.1672
1.16838
1.16994
1.16936
1.171
1.17427
1.17453
1.17399
1.1726
1.1701
1.16607
1.16115
1.15688
1.15422
1.15237
1.1488
1.14159
1.13088
1.11777
1.10341
1.0878
1.06979
1.0498
1.0327
1.02123
1.01398
1.01028
1.01006
1.01243
1.0149
1.01496
1.01473
1.01427
1.01322
1.01142
1.00951
1.00913
1.00932
1.00928
1.00925
1.00898
1.00799
1.00543
1.00236
1.00156
1.00172
1.00279
1.00028
1.03462
1.35805
1.72869
1.87029
1.89236
1.8726
1.84272
1.81524
1.78784
1.75962
1.73464
1.71287
1.69008
1.66475
1.63394
1.61198
1.58992
1.56376
1.53265
1.50702
1.49499
1.47976
1.45595
1.4274
1.41141
1.40258
1.38521
1.36236
1.3365
1.31777
1.30989
1.29747
1.28201
1.26554
1.24752
1.24248
1.23694
1.22304
1.20178
1.18766
1.18708
1.18516
1.17747
1.16667
1.1638
1.16349
1.16117
1.15589
1.15355
1.15214
1.1502
1.1489
1.14662
1.14272
1.13699
1.13053
1.12471
1.11962
1.11382
1.10643
1.09757
1.0876
1.0765
1.065
1.0528
1.03681
1.01905
1.01024
1.00744
1.00549
1.005
1.0065
1.01178
1.01554
1.01578
1.01568
1.0146
1.0121
1.00807
1.00462
1.00317
1.00279
1.00293
1.00322
1.00328
1.00308
1.00241
1.00157
1.00164
1.00239
1.00411
1
1.00045
1.03801
1.33191
1.698
1.8277
1.85243
1.84049
1.81356
1.78163
1.75122
1.72864
1.7085
1.6877
1.66297
1.63843
1.61954
1.59545
1.5689
1.53679
1.51496
1.50461
1.48814
1.46569
1.43952
1.42469
1.41416
1.39546
1.3703
1.3395
1.32379
1.31963
1.309
1.29438
1.27555
1.25778
1.2525
1.24574
1.22939
1.2069
1.19031
1.18849
1.18631
1.1791
1.16799
1.16341
1.16149
1.15677
1.14822
1.14069
1.13588
1.13444
1.13298
1.1292
1.12238
1.11399
1.10619
1.09821
1.08905
1.07909
1.0691
1.05924
1.04993
1.04133
1.03231
1.02114
1.00699
0.994028
0.991508
0.991907
0.993042
0.994846
0.99973
1.00844
1.01029
1.01005
1.00936
1.00749
1.0032
0.997852
0.994556
0.993668
0.993862
0.995748
0.999903
1.00157
1.00201
1.00223
1.00232
1.00286
1.00364
1.00561
1
1
1.00055
1.03432
1.30569
1.65939
1.77078
1.81526
1.80784
1.7815
1.74769
1.71857
1.70051
1.68341
1.65946
1.63879
1.62037
1.59701
1.57289
1.54128
1.52295
1.51165
1.4929
1.47151
1.44954
1.43366
1.42171
1.40349
1.3783
1.34471
1.32719
1.32451
1.31723
1.30465
1.28479
1.26835
1.26214
1.25189
1.23359
1.20755
1.19317
1.19259
1.19057
1.18348
1.17038
1.16297
1.158
1.15056
1.1388
1.12907
1.12541
1.12387
1.12097
1.11512
1.10601
1.09569
1.08631
1.0759
1.06447
1.05474
1.04649
1.0373
1.02824
1.02084
1.01326
1.00307
0.988327
0.977289
0.975391
0.975431
0.976822
0.981565
0.989806
0.996714
0.997533
0.997139
0.995794
0.993271
0.989067
0.986732
0.986775
0.98732
0.989567
0.994541
0.999489
1.00135
1.00228
1.00328
1.00421
1.00506
1.00587
1.0078
1
1
1
1.00051
1.02899
1.28053
1.58157
1.72107
1.78451
1.77903
1.75341
1.7197
1.69557
1.67517
1.65234
1.63731
1.61905
1.5974
1.57447
1.54479
1.53136
1.51753
1.49495
1.47294
1.45203
1.44012
1.42821
1.40864
1.38359
1.35054
1.32927
1.3283
1.32431
1.31282
1.29183
1.27588
1.26819
1.2566
1.23892
1.21145
1.19665
1.19662
1.19416
1.18619
1.17245
1.16296
1.15405
1.14434
1.13096
1.1233
1.12111
1.11838
1.11556
1.10958
1.09834
1.08541
1.0734
1.0625
1.05229
1.04308
1.03495
1.02649
1.01772
1.00914
0.999861
0.98759
0.975495
0.970267
0.96918
0.969326
0.970907
0.975838
0.981264
0.983336
0.984277
0.985156
0.98515
0.985012
0.98468
0.984628
0.985178
0.987012
0.990572
0.995704
1.00019
1.00186
1.00262
1.00358
1.00492
1.0065
1.00834
1.01173
1
1
1
1
1.00041
1.02322
1.21935
1.49076
1.68532
1.75994
1.75429
1.72641
1.69718
1.67182
1.64719
1.6325
1.6142
1.59684
1.57366
1.54903
1.53802
1.51899
1.49545
1.47447
1.45309
1.44475
1.43271
1.41028
1.38662
1.3584
1.33249
1.33073
1.32864
1.31868
1.29809
1.28097
1.27157
1.26013
1.24374
1.21628
1.20241
1.20189
1.19809
1.18831
1.17259
1.15941
1.14906
1.14026
1.12971
1.12387
1.12217
1.11841
1.11449
1.10855
1.09695
1.08336
1.07123
1.0607
1.05179
1.04377
1.03529
1.02602
1.01624
1.0062
0.995677
0.981777
0.97045
0.968065
0.968141
0.968908
0.971625
0.977279
0.981595
0.982435
0.982924
0.983734
0.984387
0.984486
0.984516
0.984865
0.98614
0.988934
0.993301
0.998352
1.0026
1.00532
1.00728
1.00878
1.00958
1.00965
1.00999
1.01386
1
1
1
1
1
1.00028
1.01406
1.14405
1.41545
1.67322
1.72086
1.70996
1.69977
1.68016
1.64924
1.62587
1.60995
1.59644
1.57069
1.55376
1.54085
1.51693
1.4954
1.47418
1.45359
1.44851
1.43673
1.41104
1.38642
1.36682
1.34311
1.33133
1.32854
1.32157
1.30434
1.2845
1.27253
1.262
1.24829
1.22372
1.20848
1.20702
1.20215
1.19064
1.17306
1.15706
1.14909
1.14435
1.13782
1.13825
1.14071
1.14093
1.14087
1.13917
1.13256
1.12042
1.11116
1.10711
1.10438
1.09934
1.09062
1.07805
1.06383
1.04907
1.03297
1.01768
1.00601
0.998481
0.993077
0.989191
0.987782
0.988309
0.988618
0.98693
0.984943
0.984933
0.9853
0.985117
0.984886
0.985198
0.986975
0.990771
0.995509
0.999752
1.00327
1.00642
1.00911
1.01119
1.01302
1.01481
1.01698
1.02453
1
1
1
1
1
1
1.00012
1.00644
1.09
1.37926
1.61443
1.65639
1.67662
1.67636
1.65532
1.62759
1.61365
1.59725
1.56849
1.55444
1.53709
1.51211
1.49503
1.47461
1.45829
1.45241
1.43772
1.41219
1.38265
1.36703
1.3565
1.34013
1.32923
1.32235
1.30912
1.28781
1.27189
1.26228
1.25173
1.23381
1.21926
1.21626
1.21213
1.20172
1.18694
1.18289
1.18951
1.20441
1.22019
1.23547
1.24687
1.25258
1.25755
1.25522
1.24615
1.23249
1.22601
1.22274
1.21796
1.21195
1.20173
1.18692
1.17027
1.15317
1.13685
1.12183
1.10833
1.09516
1.0813
1.06675
1.05161
1.03549
1.01955
1.00446
0.992256
0.987872
0.988193
0.989215
0.99055
0.992318
0.995163
0.999283
1.00349
1.00698
1.01007
1.01218
1.01282
1.01314
1.01375
1.01587
1.02283
1.04166
1
1
1
1
1
1
1
1.00004
1.00313
1.06213
1.31353
1.51514
1.59889
1.64828
1.65325
1.6437
1.62725
1.60049
1.5706
1.55293
1.53101
1.51051
1.49491
1.47411
1.46401
1.45678
1.4394
1.41528
1.38259
1.36237
1.36045
1.35224
1.33568
1.32499
1.31345
1.29326
1.27458
1.26593
1.26232
1.2583
1.2623
1.27165
1.28704
1.29854
1.30727
1.31852
1.33894
1.35575
1.37323
1.37684
1.3718
1.36432
1.3552
1.3428
1.3245
1.30815
1.29896
1.29048
1.2821
1.27459
1.26296
1.24921
1.23558
1.22329
1.21289
1.20381
1.19535
1.18698
1.17817
1.16763
1.15438
1.13841
1.11901
1.09427
1.06364
1.0322
1.0109
1.00247
1.00078
1.00083
1.0022
1.00518
1.00839
1.01139
1.0145
1.0173
1.01931
1.02111
1.02382
1.02997
1.04555
1.07039
1
1
1
1
1
1
1
1
1.00002
1.00157
1.03839
1.20818
1.38465
1.54052
1.63063
1.63579
1.62612
1.61089
1.58589
1.55549
1.52909
1.51114
1.49623
1.47766
1.4682
1.45744
1.43814
1.41485
1.38366
1.36572
1.36512
1.35931
1.3447
1.33163
1.32444
1.31383
1.31198
1.32529
1.35821
1.39617
1.4307
1.4517
1.46399
1.46233
1.45367
1.4476
1.44396
1.43833
1.43055
1.41964
1.40278
1.38426
1.36732
1.35059
1.33184
1.31538
1.3047
1.29632
1.28829
1.27845
1.26689
1.25554
1.24531
1.23685
1.23015
1.22434
1.21953
1.21552
1.21145
1.2065
1.20088
1.19506
1.18803
1.17807
1.16275
1.1381
1.1015
1.0616
1.0298
1.01358
1.01021
1.01054
1.01177
1.01385
1.01645
1.01961
1.02347
1.02862
1.03729
1.05402
1.08034
1.09386
1
1
1
1
1
1
1
1
1
1.00001
1.00066
1.01381
1.09094
1.27718
1.49796
1.58613
1.60095
1.5981
1.59122
1.56815
1.54128
1.5227
1.50205
1.48273
1.47169
1.45584
1.43642
1.41625
1.3847
1.37552
1.37817
1.37769
1.38093
1.39283
1.42043
1.45646
1.49252
1.53254
1.55668
1.57433
1.57065
1.56194
1.55091
1.53767
1.51661
1.49866
1.48695
1.47495
1.45983
1.44254
1.42402
1.40593
1.38892
1.37173
1.35387
1.33879
1.32803
1.31902
1.30974
1.29899
1.28743
1.27628
1.26643
1.25907
1.25387
1.2499
1.24634
1.24308
1.23977
1.2362
1.23222
1.22749
1.22188
1.21551
1.20847
1.20003
1.18679
1.16538
1.13562
1.09713
1.05759
1.03457
1.02867
1.02835
1.03003
1.03371
1.03929
1.04877
1.06658
1.09169
1.10525
1.10388
1
1
1
1
1
1
1
1
1
1
1
1.00011
1.00297
1.03696
1.20078
1.4174
1.5325
1.55265
1.57
1.56697
1.55806
1.54353
1.5216
1.49468
1.47593
1.45516
1.43882
1.42483
1.41246
1.42198
1.45095
1.50441
1.56545
1.61305
1.63209
1.63893
1.64391
1.64003
1.62168
1.59831
1.57432
1.54901
1.52849
1.5106
1.49358
1.48026
1.46624
1.4487
1.42749
1.40477
1.38483
1.3683
1.35321
1.33698
1.32024
1.30754
1.29825
1.2899
1.281
1.27034
1.25827
1.24685
1.23765
1.23173
1.22759
1.22373
1.21993
1.2163
1.21359
1.21284
1.21303
1.21352
1.21257
1.20863
1.20321
1.19778
1.19609
1.19458
1.19115
1.18197
1.15938
1.11645
1.07161
1.05211
1.04947
1.05165
1.06075
1.08068
1.10517
1.11511
1.11445
1.10193
1
1
1
1
1
1
1
1
1
1
1
1
1.00001
1.00071
1.01757
1.11698
1.30773
1.42697
1.5051
1.54831
1.5526
1.5456
1.53154
1.51686
1.50658
1.49623
1.50348
1.52799
1.57939
1.63782
1.68205
1.7261
1.75255
1.74494
1.7328
1.7146
1.69825
1.68041
1.65577
1.62616
1.59627
1.5664
1.53816
1.51373
1.49108
1.46476
1.44023
1.41831
1.39651
1.37645
1.36055
1.34819
1.3361
1.32242
1.30874
1.29794
1.28888
1.28059
1.27205
1.2618
1.24945
1.23785
1.2293
1.22342
1.21854
1.21353
1.20791
1.20197
1.19676
1.19249
1.18882
1.18737
1.18921
1.19317
1.20018
1.20951
1.21714
1.2243
1.22846
1.22871
1.22462
1.21066
1.17692
1.13711
1.10948
1.10044
1.10277
1.11681
1.12397
1.12151
1.10832
1.06634
1
1
1
1
1
1
1
1
1
1
1
1
1
1
1.00024
1.00536
1.0473
1.1688
1.31992
1.44022
1.50804
1.53942
1.57518
1.61276
1.64169
1.67661
1.71001
1.733
1.76314
1.76391
1.75362
1.74516
1.73958
1.7306
1.71679
1.69609
1.67007
1.64144
1.61189
1.58335
1.55663
1.53391
1.51544
1.49775
1.47879
1.45994
1.44185
1.42258
1.40268
1.38457
1.36981
1.35745
1.3455
1.33307
1.32111
1.31025
1.30035
1.29122
1.28174
1.27016
1.25647
1.24483
1.23725
1.23158
1.22627
1.22063
1.21454
1.20849
1.20347
1.1993
1.19503
1.19009
1.18507
1.18229
1.1812
1.18176
1.18531
1.19235
1.20315
1.21424
1.21943
1.21823
1.21274
1.21028
1.2055
1.19302
1.17111
1.14329
1.12207
1.10212
1.05861
1.01083
1
1
1
1
1
1
1
1
1
1
1
1
1
1
1
1.00003
1.00098
1.01227
1.07078
1.23395
1.42918
1.60132
1.71879
1.80893
1.8852
1.94813
1.97595
1.98328
1.97154
1.94793
1.90416
1.84966
1.79737
1.7514
1.70921
1.67121
1.63569
1.60089
1.57233
1.54979
1.52905
1.50945
1.49178
1.47467
1.45644
1.4374
1.41831
1.39971
1.38159
1.3651
1.35139
1.33944
1.32769
1.3159
1.30496
1.29479
1.28512
1.27581
1.26573
1.25306
1.23923
1.22902
1.22233
1.21686
1.21129
1.20516
1.19865
1.19243
1.18697
1.18177
1.17596
1.16926
1.16303
1.15886
1.1564
1.15551
1.15603
1.16011
1.16966
1.1861
1.21612
1.26361
1.30036
1.31283
1.31165
1.29654
1.25596
1.18567
1.10179
1.03369
1.00393
1.00007
)
;

boundaryField
{
    inlet
    {
        type            fixedValue;
        value           uniform 1;
    }
    outlet
    {
        type            inletOutlet;
        inletValue      uniform 1;
        value           nonuniform List<scalar> 
32
(
1.00972
1.00927
1.00989
1.01045
1.01116
1.01172
1.01204
1.01215
1.01202
1.0114
1.00997
1.00741
1.00459
1.00227
1.00185
1.00156
1.00177
1.00289
1.0043
1.00589
1.00807
1.01238
1.015
1.02698
1.04667
1.07536
1.09526
1.10355
1.09742
1.05422
1.00572
1.00002
)
;
    }
    bottom
    {
        type            zeroGradient;
    }
    top
    {
        type            zeroGradient;
    }
    obstacle
    {
        type            zeroGradient;
    }
    defaultFaces
    {
        type            empty;
    }
}


// ************************************************************************* //
