/*--------------------------------*- C++ -*----------------------------------*\
  =========                 |
  \\      /  F ield         | OpenFOAM: The Open Source CFD Toolbox
   \\    /   O peration     | Website:  https://openfoam.org
    \\  /    A nd           | Version:  7
     \\/     M anipulation  |
\*---------------------------------------------------------------------------*/
FoamFile
{
    version     2.0;
    format      ascii;
    class       volVectorField;
    location    "0.9";
    object      U;
}
// * * * * * * * * * * * * * * * * * * * * * * * * * * * * * * * * * * * * * //

dimensions      [0 1 -1 0 0 0 0];

internalField   nonuniform List<vector> 
16192
(
(3 1.12965e-15 0)
(3 -4.38695e-17 0)
(3 -4.71465e-16 0)
(3 -1.86217e-16 0)
(3 4.78761e-17 0)
(3 4.0323e-16 0)
(3 6.66821e-16 0)
(3 1.87428e-16 0)
(3 -5.23397e-16 0)
(3 3.17223e-17 0)
(3 4.28091e-16 0)
(3 6.88658e-16 0)
(3 1.34465e-15 0)
(3 9.11433e-16 0)
(3 4.45126e-16 0)
(3 3.5004e-16 0)
(3 -2.2797e-16 0)
(3 -1.28813e-15 0)
(3 1.03377e-16 0)
(3 2.51958e-15 0)
(3 2.46209e-15 0)
(3 1.82717e-15 0)
(3 1.19704e-15 0)
(3 9.35813e-16 0)
(3 2.34797e-16 0)
(3 -7.29284e-16 0)
(3 -7.64501e-16 0)
(3 -3.2027e-16 0)
(3 1.24719e-15 0)
(3 2.71462e-15 0)
(3 3.82505e-15 0)
(3 3.69802e-15 0)
(3 3.48265e-15 0)
(3 2.90337e-15 0)
(3 2.63254e-15 0)
(3 2.40198e-15 0)
(3 2.24698e-15 0)
(3 1.95963e-15 0)
(3 8.80734e-16 0)
(3 3.30901e-16 0)
(3 8.10853e-16 0)
(3 1.8836e-15 0)
(3 3.34952e-15 0)
(3 4.03065e-15 0)
(3 2.75788e-15 0)
(3 1.18717e-15 0)
(3 6.63056e-16 0)
(3 4.73753e-17 0)
(3 -1.04115e-15 0)
(3 -1.09103e-15 0)
(3 -8.72792e-16 0)
(3 -1.40169e-16 0)
(3 1.01346e-15 0)
(3 1.95627e-15 0)
(3 3.23036e-15 0)
(3 3.80278e-15 0)
(3 4.71959e-15 0)
(3 3.51055e-15 0)
(3 2.54395e-15 0)
(3 2.32193e-15 0)
(3 1.99647e-15 0)
(3 1.67651e-15 0)
(3 1.30048e-15 0)
(3 4.87513e-16 0)
(3 3.33437e-17 0)
(3 8.35772e-17 0)
(3 1.51937e-16 0)
(3 6.48397e-16 0)
(3 5.11418e-16 0)
(3 3.21086e-16 0)
(3 -1.2334e-16 0)
(3 -2.71737e-16 0)
(3 -8.94625e-16 0)
(3 -9.45431e-16 0)
(3 -2.19775e-16 0)
(3 -2.59284e-17 0)
(3 -5.65402e-16 0)
(3 -8.21045e-16 0)
(3 -3.46458e-16 0)
(3 6.98407e-16 0)
(3 7.24867e-16 0)
(3 9.74178e-16 0)
(3 1.02534e-15 0)
(3 5.1335e-16 0)
(3 4.41981e-17 0)
(3 4.06579e-16 0)
(3 5.27405e-16 0)
(3 3.87046e-16 0)
(3 2.58333e-16 0)
(3 -6.05084e-16 0)
(3 -7.39279e-16 0)
(3 -3.01567e-16 0)
(3 -1.2945e-16 0)
(3 -4.32916e-16 0)
(3 -5.06889e-16 0)
(3 -3.14467e-16 0)
(3 -1.49737e-16 0)
(3 1.73699e-16 0)
(3 4.27448e-16 0)
(3 8.37973e-16 0)
(3 6.41443e-16 0)
(3 1.85975e-16 0)
(3 -4.33591e-16 0)
(3 -2.28481e-16 0)
(3 -3.15127e-16 0)
(3 8.48975e-16 0)
(3 2.05062e-15 0)
(3 2.59309e-15 0)
(3 2.45264e-15 0)
(3 2.02223e-15 0)
(3 1.60183e-15 0)
(3 1.67751e-15 0)
(3 9.61884e-16 0)
(3 6.89557e-16 0)
(3 -1.00189e-16 0)
(3 -1.25316e-15 0)
(3 -3.04908e-15 0)
(3 -4.1924e-15 0)
(3 -4.32156e-15 0)
(3 -3.55703e-15 0)
(3 -3.44601e-15 0)
(3 -3.28847e-15 0)
(3 -2.82106e-15 0)
(3 -2.15462e-15 0)
(3 -2.08581e-15 0)
(3 -1.78115e-15 0)
(3 -1.55712e-15 0)
(3 -1.24261e-15 0)
(3 -1.51347e-15 0)
(3 -1.59252e-15 0)
(3 -1.28492e-15 0)
(3 -8.62583e-16 0)
(3 4.39635e-16 0)
(3 1.53968e-15 0)
(3 2.60414e-15 0)
(3 2.46e-15 0)
(3 1.09754e-15 0)
(3 6.98394e-16 0)
(3 1.36424e-15 0)
(3 1.52283e-15 0)
(3 1.62168e-15 0)
(3 1.97558e-15 0)
(3 2.21825e-15 0)
(3 1.68537e-15 0)
(3 2.1904e-15 0)
(3 2.17371e-15 0)
(3 2.41135e-15 0)
(3 1.97599e-15 0)
(3 5.87355e-16 0)
(3 4.1365e-16 0)
(3 2.13923e-16 0)
(3 -2.57651e-16 0)
(3 -3.17604e-16 0)
(3 5.14491e-16 0)
(3 5.55783e-16 0)
(3 5.12829e-16 0)
(3 8.87642e-16 0)
(3 9.64072e-16 0)
(3 9.22121e-16 0)
(3 1.0704e-15 0)
(3 9.89925e-16 0)
(3 1.21935e-17 0)
(3 -5.46509e-16 0)
(3 -1.05829e-15 0)
(3 -2.78068e-15 0)
(3 -3.19842e-15 0)
(3 -2.31156e-15 0)
(3 -1.52672e-16 0)
(3 5.33489e-16 0)
(3 9.15865e-16 0)
(3 8.01696e-16 0)
(3 7.24202e-16 0)
(3 -1.80651e-16 0)
(3 -4.54266e-17 0)
(3 -2.66708e-16 0)
(3 -3.22429e-16 0)
(3 -1.87862e-16 0)
(3 3.23662e-16 0)
(3 9.14089e-16 0)
(3 6.92293e-16 0)
(3 4.20675e-16 0)
(3 -4.77301e-16 0)
(3 -8.18256e-16 0)
(3 -9.17375e-16 0)
(3 -1.25568e-15 0)
(3 -1.24145e-15 0)
(3 -7.43795e-16 0)
(3 -3.86795e-16 0)
(3 -2.55188e-16 0)
(3 -1.83003e-16 0)
(3 -2.729e-16 0)
(3 4.03059e-16 0)
(3 2.78741e-16 0)
(3 -4.60165e-16 0)
(3 -1.14044e-15 0)
(3 -8.52308e-16 0)
(3 -1.02914e-15 0)
(3 -1.03068e-15 0)
(3 -1.35776e-15 0)
(3 -2.41269e-15 0)
(3 -2.88959e-15 0)
(3 -2.43051e-15 0)
(3 2.36205e-16 0)
(3 1.07184e-15 0)
(3 4.50448e-16 0)
(3 -2.21638e-16 0)
(3 -6.21298e-16 0)
(3 -6.80557e-16 0)
(3 -8.4607e-16 0)
(3 -2.74849e-16 0)
(3 2.68015e-16 0)
(3 1.3e-15 0)
(3 1.25869e-15 0)
(3 6.15836e-16 0)
(3 -1.54741e-16 0)
(3 -4.79975e-16 0)
(3 -5.67599e-16 0)
(3 -1.13641e-15 0)
(3 -1.55843e-15 0)
(3 -7.68427e-17 0)
(3 1.9964e-15 0)
(3 3.92989e-15 0)
(3 3.86716e-15 0)
(3 2.50318e-15 0)
(3 2.0685e-15 0)
(3 1.94378e-15 0)
(3 2.26107e-15 0)
(3 2.5673e-15 0)
(3 2.4574e-15 0)
(3 1.46437e-15 0)
(3 5.78678e-16 0)
(3 7.41704e-16 0)
(3 1.65131e-15 0)
(3 2.11013e-15 0)
(3 2.69781e-15 0)
(3 2.88585e-15 0)
(3 1.89371e-15 0)
(3 1.31103e-15 0)
(3 6.55615e-16 0)
(3 4.79811e-16 0)
(3 -1.16336e-16 0)
(3 -1.21867e-15 0)
(3 -1.2142e-15 0)
(3 -5.75605e-16 0)
(3 1.71655e-15 0)
(3 3.1446e-15 0)
(3 3.48009e-15 0)
(3 3.14495e-15 0)
(3 2.22789e-15 0)
(3 1.434e-15 0)
(3 1.93439e-15 0)
(3 2.95294e-15 0)
(3 2.57988e-15 0)
(3 1.57488e-15 0)
(3 6.53217e-16 0)
(3 -5.57729e-16 0)
(3 2.06739e-16 0)
(3 -2.03938e-16 0)
(3 -5.32495e-16 0)
(3 -4.27844e-16 0)
(3 1.18102e-16 0)
(3 1.79539e-16 0)
(3 2.93267e-16 0)
(3 6.36341e-16 0)
(3 2.84828e-16 0)
(3 1.32748e-16 0)
(3 1.00951e-16 0)
(3 -6.66697e-17 0)
(3 -1.5773e-16 0)
(3 3.69409e-17 0)
(3 6.12906e-16 0)
(3 5.01412e-16 0)
(3 6.21815e-16 0)
(3 4.20403e-16 0)
(3 3.60503e-16 0)
(3 -2.5705e-18 0)
(3 -8.20505e-16 0)
(3 -1.17978e-15 0)
(3 -1.99294e-16 0)
(3 4.05391e-16 0)
(3 6.10481e-16 0)
(3 4.71e-16 0)
(3 2.34732e-17 0)
(3 -1.49742e-16 0)
(3 -6.97597e-16 0)
(3 -2.43642e-16 0)
(3 1.29272e-16 0)
(3 6.3814e-16 0)
(3 1.67035e-15 0)
(3 3.03396e-15 0)
(3 4.09946e-15 0)
(3 3.21189e-15 0)
(3 2.78305e-15 0)
(3 1.33515e-15 0)
(3 -4.49526e-17 0)
(3 1.31915e-17 0)
(3 7.40989e-16 0)
(3 9.77095e-16 0)
(3 8.73071e-16 0)
(3 8.36813e-16 0)
(3 5.32107e-16 0)
(3 3.90496e-16 0)
(3 1.20397e-16 0)
(3 2.78103e-16 0)
(3 8.63318e-16 0)
(3 -4.12801e-17 0)
(3 -1.13926e-15 0)
(3 -1.77981e-15 0)
(3 -2.35438e-15 0)
(3 -2.23994e-15 0)
(3 -2.32756e-15 0)
(3 -2.20699e-15 0)
(3 -2.51025e-15 0)
(3 -2.74359e-15 0)
(3 -3.04064e-15 0)
(3 -3.46436e-15 0)
(3 -2.84599e-15 0)
(3 -1.95295e-15 0)
(3 -1.82105e-15 0)
(3 -1.58541e-15 0)
(3 -2.17839e-15 0)
(3 -2.41505e-15 0)
(3 -2.2074e-15 0)
(3 -1.00045e-15 0)
(3 -7.22198e-17 0)
(3 4.54596e-16 0)
(3 1.80744e-15 0)
(3 2.3663e-15 0)
(3 3.22773e-15 0)
(3 2.98595e-15 0)
(3 1.48968e-15 0)
(3 1.85942e-15 0)
(3 1.90791e-15 0)
(3 1.8762e-15 0)
(3 2.50809e-15 0)
(3 2.90925e-15 0)
(3 3.31888e-15 0)
(3 4.18194e-15 0)
(3 4.00749e-15 0)
(3 3.94249e-15 0)
(3 3.29503e-15 0)
(3 1.55115e-15 0)
(3 -2.17896e-16 0)
(3 -1.7288e-15 0)
(3 -1.20564e-15 0)
(3 1.92655e-16 0)
(3 8.43005e-16 0)
(3 2.65605e-16 0)
(3 -3.62932e-16 0)
(3 3.43911e-16 0)
(3 1.06284e-15 0)
(3 3.52917e-16 0)
(3 -1.0333e-15 0)
(3 -2.01096e-15 0)
(3 -2.41693e-15 0)
(3 -2.32668e-15 0)
(3 -2.04702e-15 0)
(3 -2.19004e-15 0)
(3 -1.20031e-15 0)
(3 -1.69578e-18 0)
(3 7.44008e-17 0)
(3 -2.23904e-16 0)
(3 -4.39488e-16 0)
(3 -6.3531e-16 0)
(3 -6.73431e-16 0)
(3 -1.50969e-15 0)
(3 -1.62363e-15 0)
(3 -1.19837e-15 0)
(3 -4.1856e-16 0)
(3 8.03756e-16 0)
(3 1.35891e-15 0)
(3 1.42377e-15 0)
(3 5.94244e-16 0)
(3 2.59444e-17 0)
(3 -2.80985e-16 0)
(3 -9.85914e-16 0)
(3 -1.60928e-15 0)
(3 -1.85582e-15 0)
(3 -1.1946e-15 0)
(3 -3.89873e-16 0)
(3 -6.45714e-16 0)
(3 -7.08907e-16 0)
(3 -8.61924e-16 0)
(3 -9.99728e-16 0)
(3 -9.82852e-16 0)
(3 -6.25729e-16 0)
(3 -1.50464e-16 0)
(3 -4.54339e-16 0)
(3 -1.45346e-15 0)
(3 -1.11757e-15 0)
(3 -1.62093e-15 0)
(3 -2.86396e-15 0)
(3 -2.4564e-15 0)
(3 -1.90559e-15 0)
(3 4.96984e-17 0)
(3 7.64198e-16 0)
(3 -1.74799e-16 0)
(3 -2.4617e-16 0)
(3 -5.12459e-16 0)
(3 -6.3025e-16 0)
(3 1.60382e-16 0)
(3 1.66297e-15 0)
(3 9.39505e-16 0)
(3 1.71501e-16 0)
(3 2.67763e-16 0)
(3 1.91888e-17 0)
(3 -4.419e-16 0)
(3 -4.27303e-16 0)
(3 -2.60997e-16 0)
(3 2.32916e-16 0)
(3 6.90157e-16 0)
(3 1.36294e-15 0)
(3 2.21459e-15 0)
(3 2.85793e-15 0)
(3 2.63059e-15 0)
(3 2.4504e-15 0)
(3 2.38491e-15 0)
(3 2.0739e-15 0)
(3 2.28355e-15 0)
(3 3.03598e-15 0)
(3 2.38358e-15 0)
(3 5.1217e-16 0)
(3 4.82949e-16 0)
(3 1.51109e-15 0)
(3 1.86991e-15 0)
(3 1.75554e-15 0)
(3 1.90525e-15 0)
(3 1.94547e-15 0)
(3 1.27615e-15 0)
(3 1.09184e-15 0)
(3 1.07213e-15 0)
(3 1.14088e-15 0)
(3 1.25858e-15 0)
(3 5.18232e-16 0)
(3 -3.27807e-16 0)
(3 -5.96304e-16 0)
(3 4.70942e-16 0)
(3 1.3077e-15 0)
(3 1.92575e-15 0)
(3 1.78496e-15 0)
(3 7.72545e-16 0)
(3 6.63844e-16 0)
(3 1.8025e-15 0)
(3 2.29998e-15 0)
(3 2.27261e-15 0)
(3 9.45748e-16 0)
(3 5.63194e-16 0)
(3 1.28274e-16 0)
(3 -9.30991e-17 0)
(3 9.63306e-17 0)
(3 2.00108e-16 0)
(3 1.56177e-16 0)
(3 -5.72554e-17 0)
(3 -2.75059e-16 0)
(3 -1.51617e-16 0)
(3 2.50754e-16 0)
(3 1.23188e-15 0)
(3 1.34984e-15 0)
(3 5.04671e-16 0)
(3 -1.31077e-16 0)
(3 -3.58296e-17 0)
(3 -1.86043e-16 0)
(3 -3.84492e-16 0)
(3 -7.51751e-16 0)
(3 -6.49819e-16 0)
(3 -1.90257e-17 0)
(3 3.80571e-16 0)
(3 5.16172e-16 0)
(3 5.20078e-17 0)
(3 -8.03687e-16 0)
(3 -7.72243e-16 0)
(3 6.28708e-16 0)
(3 1.45612e-15 0)
(3 1.71163e-15 0)
(3 1.09315e-15 0)
(3 9.36301e-16 0)
(3 8.4086e-16 0)
(3 1.31307e-15 0)
(3 1.81072e-15 0)
(3 1.9196e-15 0)
(3 2.07647e-15 0)
(3 2.86686e-15 0)
(3 4.26012e-15 0)
(3 4.35516e-15 0)
(3 2.13032e-15 0)
(3 1.13278e-15 0)
(3 5.62441e-16 0)
(3 1.06493e-16 0)
(3 4.42232e-16 0)
(3 4.49367e-16 0)
(3 -8.58108e-16 0)
(3 -1.5785e-15 0)
(3 -1.38558e-15 0)
(3 -9.55713e-16 0)
(3 -3.98925e-16 0)
(3 -3.3496e-16 0)
(3 -5.82748e-16 0)
(3 -1.99218e-15 0)
(3 -2.31174e-15 0)
(3 -2.57448e-15 0)
(3 -2.977e-15 0)
(3 -2.81682e-15 0)
(3 -2.62853e-15 0)
(3 -2.80403e-15 0)
(3 -2.1839e-15 0)
(3 -1.72825e-15 0)
(3 -2.3498e-15 0)
(3 -2.45656e-15 0)
(3 -2.14242e-15 0)
(3 -1.3594e-15 0)
(3 -5.99542e-16 0)
(3 -1.98177e-16 0)
(3 -8.18817e-16 0)
(3 -1.41497e-15 0)
(3 -1.49906e-15 0)
(3 -1.40298e-15 0)
(3 -9.1842e-16 0)
(3 -4.38854e-16 0)
(3 8.33862e-16 0)
(3 2.96481e-15 0)
(3 4.0611e-15 0)
(3 4.012e-15 0)
(3 2.45571e-15 0)
(3 2.1898e-15 0)
(3 1.94111e-15 0)
(3 2.3151e-15 0)
(3 2.79934e-15 0)
(3 3.30136e-15 0)
(3 4.04919e-15 0)
(3 5.22115e-15 0)
(3 5.47932e-15 0)
(3 5.02571e-15 0)
(3 3.67752e-15 0)
(3 1.69119e-15 0)
(3 -1.14397e-15 0)
(3 -2.16379e-15 0)
(3 -1.72504e-15 0)
(3 -1.38484e-15 0)
(3 -1.03587e-15 0)
(3 -2.66e-16 0)
(3 -1.41588e-16 0)
(3 -2.56193e-16 0)
(3 -2.61074e-16 0)
(3 -9.00306e-16 0)
(3 -1.39369e-15 0)
(3 -2.57614e-15 0)
(3 -2.97154e-15 0)
(3 -2.73883e-15 0)
(3 -1.03456e-15 0)
(3 -4.67506e-16 0)
(3 -9.12377e-16 0)
(3 -1.23186e-15 0)
(3 -5.06717e-16 0)
(3 -4.17791e-16 0)
(3 -1.99357e-16 0)
(3 2.94715e-16 0)
(3 -3.15805e-16 0)
(3 -1.08395e-15 0)
(3 -1.27086e-15 0)
(3 -5.42012e-16 0)
(3 3.71473e-16 0)
(3 1.01012e-15 0)
(3 1.37617e-16 0)
(3 -5.75649e-16 0)
(3 -1.54727e-16 0)
(3 3.27828e-16 0)
(3 -2.51115e-16 0)
(3 -3.62044e-16 0)
(3 -4.08482e-16 0)
(3 -2.77124e-16 0)
(3 -2.01731e-16 0)
(3 -2.82303e-16 0)
(3 -7.47886e-16 0)
(3 -1.39413e-15 0)
(3 -1.51647e-15 0)
(3 -1.42023e-15 0)
(3 -1.86985e-15 0)
(3 -1.5483e-15 0)
(3 -8.64565e-16 0)
(3 -1.4982e-15 0)
(3 -1.24426e-15 0)
(3 -7.9147e-16 0)
(3 -7.29595e-16 0)
(3 -3.83966e-16 0)
(3 -5.69284e-16 0)
(3 -2.49127e-16 0)
(3 -5.89838e-16 0)
(3 -8.15774e-16 0)
(3 -9.62305e-16 0)
(3 -1.29516e-15 0)
(3 -1.24458e-15 0)
(3 -1.0865e-15 0)
(3 -4.18741e-16 0)
(3 1.0115e-17 0)
(3 4.80049e-17 0)
(3 2.79465e-16 0)
(3 2.67068e-16 0)
(3 -2.18767e-16 0)
(3 -1.26989e-16 0)
(3 1.94645e-16 0)
(3 1.0747e-15 0)
(3 1.89673e-15 0)
(3 1.59067e-15 0)
(3 1.46443e-15 0)
(3 1.71021e-15 0)
(3 1.75811e-15 0)
(3 1.73139e-15 0)
(3 2.2623e-15 0)
(3 1.89389e-15 0)
(3 1.49112e-15 0)
(3 1.10269e-15 0)
(3 1.25491e-15 0)
(3 1.6362e-15 0)
(3 1.44702e-15 0)
(3 1.41328e-15 0)
(3 1.4987e-15 0)
(3 1.56259e-15 0)
(3 1.48883e-15 0)
(3 1.69758e-15 0)
(3 1.85329e-15 0)
(3 1.71487e-15 0)
(3 6.1123e-16 0)
(3 5.58532e-16 0)
(3 8.85005e-16 0)
(3 8.72568e-16 0)
(3 5.31943e-16 0)
(3 -3.82148e-16 0)
(3 -1.18337e-15 0)
(3 -1.41912e-15 0)
(3 -1.55343e-15 0)
(3 -6.6027e-16 0)
(3 2.36672e-17 0)
(3 -1.77582e-16 0)
(3 1.40991e-16 0)
(3 6.63386e-16 0)
(3 7.39856e-16 0)
(3 7.02711e-16 0)
(3 5.79411e-16 0)
(3 4.81972e-16 0)
(3 5.21328e-16 0)
(3 -4.45591e-16 0)
(3 1.66547e-16 0)
(3 4.59568e-16 0)
(3 6.59669e-16 0)
(3 6.1725e-16 0)
(3 -6.73075e-17 0)
(3 3.48808e-16 0)
(3 7.11336e-16 0)
(3 1.45424e-15 0)
(3 1.31326e-15 0)
(3 7.75409e-16 0)
(3 7.51984e-16 0)
(3 9.25027e-16 0)
(3 4.62927e-16 0)
(3 -2.93332e-16 0)
(3 -5.06381e-16 0)
(3 -6.28611e-16 0)
(3 -6.91747e-16 0)
(3 -9.68065e-17 0)
(3 7.93259e-16 0)
(3 2.02889e-16 0)
(3 -8.93448e-17 0)
(3 -4.4566e-16 0)
(3 -7.77974e-17 0)
(3 1.32398e-15 0)
(3 1.88092e-15 0)
(3 2.13836e-15 0)
(3 2.21041e-15 0)
(3 1.89845e-15 0)
(3 1.18048e-15 0)
(3 8.10534e-16 0)
(3 9.02257e-16 0)
(3 1.71933e-15 0)
(3 2.74075e-15 0)
(3 3.00052e-15 0)
(3 3.3069e-15 0)
(3 1.42432e-15 0)
(3 5.30548e-16 0)
(3 5.0115e-16 0)
(3 8.95859e-16 0)
(3 3.52368e-16 0)
(3 -1.00252e-16 0)
(3 -4.01755e-16 0)
(3 -1.06904e-15 0)
(3 -1.13394e-15 0)
(3 -8.2386e-16 0)
(3 -1.07362e-15 0)
(3 -1.5696e-15 0)
(3 -3.40153e-15 0)
(3 -4.07259e-15 0)
(3 -3.86451e-15 0)
(3 -3.85831e-15 0)
(3 -3.52527e-15 0)
(3 -3.61316e-15 0)
(3 -3.58092e-15 0)
(3 -3.42417e-15 0)
(3 -2.70384e-15 0)
(3 -2.02488e-15 0)
(3 -1.44643e-15 0)
(3 -3.8041e-16 0)
(3 -1.94524e-16 0)
(3 -3.87633e-16 0)
(3 -3.26951e-16 0)
(3 -2.53053e-16 0)
(3 8.05431e-17 0)
(3 5.22274e-17 0)
(3 -2.43706e-17 0)
(3 -5.57089e-16 0)
(3 -8.05701e-16 0)
(3 -1.53749e-15 0)
(3 -1.17923e-16 0)
(3 1.35619e-15 0)
(3 2.26314e-15 0)
(3 2.73593e-15 0)
(3 2.88332e-15 0)
(3 2.2671e-15 0)
(3 1.86077e-15 0)
(3 2.46669e-15 0)
(3 3.09262e-15 0)
(3 3.30188e-15 0)
(3 3.99349e-15 0)
(3 4.81544e-15 0)
(3 5.59849e-15 0)
(3 4.09349e-15 0)
(3 1.21328e-15 0)
(3 7.84304e-17 0)
(3 -6.87371e-16 0)
(3 -7.40489e-16 0)
(3 -8.60607e-16 0)
(3 -1.51243e-15 0)
(3 -2.1387e-15 0)
(3 -1.26113e-15 0)
(3 -1.08495e-15 0)
(3 -1.64766e-15 0)
(3 -1.93081e-15 0)
(3 -2.1612e-15 0)
(3 -2.80519e-15 0)
(3 -3.17041e-15 0)
(3 -2.16766e-15 0)
(3 -1.281e-15 0)
(3 -5.27197e-16 0)
(3 -8.6739e-17 0)
(3 -1.59259e-16 0)
(3 -5.06936e-16 0)
(3 -6.71095e-16 0)
(3 -1.66836e-16 0)
(3 1.61282e-16 0)
(3 6.24486e-16 0)
(3 4.85871e-16 0)
(3 2.39362e-16 0)
(3 -4.54614e-16 0)
(3 2.42228e-17 0)
(3 1.23775e-17 0)
(3 -2.45647e-16 0)
(3 -9.31268e-16 0)
(3 -1.38999e-15 0)
(3 -1.23563e-15 0)
(3 -7.5054e-16 0)
(3 -7.90492e-16 0)
(3 -4.22122e-16 0)
(3 4.5437e-16 0)
(3 9.57296e-16 0)
(3 3.67721e-16 0)
(3 -7.74833e-17 0)
(3 -5.9428e-16 0)
(3 -9.05287e-16 0)
(3 -1.25805e-15 0)
(3 -1.05768e-15 0)
(3 -1.26935e-15 0)
(3 -1.96822e-15 0)
(3 -2.21253e-15 0)
(3 -2.12487e-15 0)
(3 -2.04509e-15 0)
(3 -1.74091e-15 0)
(3 -7.15575e-16 0)
(3 6.66328e-18 0)
(3 3.46005e-16 0)
(3 1.59103e-16 0)
(3 -3.62912e-16 0)
(3 -3.11212e-16 0)
(3 -8.91308e-16 0)
(3 -1.18017e-15 0)
(3 -1.26117e-15 0)
(3 -1.46439e-15 0)
(3 -1.69907e-15 0)
(3 -1.52859e-15 0)
(3 -2.14584e-16 0)
(3 -6.27472e-16 0)
(3 -9.61315e-16 0)
(3 -8.32222e-16 0)
(3 -5.52634e-16 0)
(3 -6.7384e-17 0)
(3 4.1853e-16 0)
(3 2.89883e-16 0)
(3 -1.59543e-16 0)
(3 1.34143e-16 0)
(3 5.4855e-16 0)
(3 1.10467e-15 0)
(3 8.56197e-16 0)
(3 4.21742e-16 0)
(3 2.64517e-16 0)
(3 2.47842e-16 0)
(3 -2.4231e-16 0)
(3 -4.75923e-16 0)
(3 2.95769e-16 0)
(3 1.76637e-15 0)
(3 1.51284e-15 0)
(3 1.08482e-15 0)
(3 1.09533e-15 0)
(3 1.00205e-15 0)
(3 1.09674e-15 0)
(3 1.68728e-15 0)
(3 2.13395e-15 0)
(3 1.49257e-15 0)
(3 1.04589e-15 0)
(3 2.02712e-16 0)
(3 3.50615e-16 0)
(3 1.4614e-17 0)
(3 -3.36992e-16 0)
(3 -3.69856e-16 0)
(3 -7.42551e-16 0)
(3 -1.3003e-15 0)
(3 -1.40723e-15 0)
(3 -1.74887e-15 0)
(3 -1.40491e-15 0)
(3 -2.51335e-16 0)
(3 2.29235e-16 0)
(3 3.01532e-16 0)
(3 5.59089e-16 0)
(3 4.8472e-16 0)
(3 8.2009e-16 0)
(3 1.63108e-15 0)
(3 2.16278e-16 0)
(3 6.37965e-16 0)
(3 7.71046e-16 0)
(3 6.70777e-16 0)
(3 5.61011e-16 0)
(3 1.06457e-15 0)
(3 1.39621e-15 0)
(3 1.44889e-15 0)
(3 1.01467e-15 0)
(3 6.36081e-16 0)
(3 8.47843e-16 0)
(3 7.96809e-16 0)
(3 3.33089e-16 0)
(3 5.23378e-16 0)
(3 6.42158e-16 0)
(3 7.03751e-16 0)
(3 3.77029e-16 0)
(3 -6.04835e-16 0)
(3 -8.79793e-16 0)
(3 -1.0248e-15 0)
(3 -1.67647e-16 0)
(3 5.97971e-18 0)
(3 8.89584e-16 0)
(3 1.57886e-15 0)
(3 2.07854e-15 0)
(3 2.00067e-15 0)
(3 1.08991e-15 0)
(3 1.19806e-15 0)
(3 5.68728e-16 0)
(3 2.04014e-16 0)
(3 6.66731e-17 0)
(3 2.13218e-16 0)
(3 1.25847e-15 0)
(3 2.18083e-15 0)
(3 2.10185e-15 0)
(3 2.21045e-15 0)
(3 2.61293e-15 0)
(3 1.84189e-15 0)
(3 4.69743e-16 0)
(3 1.3639e-15 0)
(3 7.36454e-16 0)
(3 1.6089e-16 0)
(3 3.76028e-16 0)
(3 1.17363e-16 0)
(3 -5.49194e-16 0)
(3 -1.61711e-15 0)
(3 -2.29527e-15 0)
(3 -2.73518e-15 0)
(3 -4.40939e-15 0)
(3 -4.52968e-15 0)
(3 -4.25501e-15 0)
(3 -3.7653e-15 0)
(3 -2.05248e-15 0)
(3 -1.08931e-15 0)
(3 -1.8945e-15 0)
(3 -2.1509e-15 0)
(3 -1.95025e-15 0)
(3 -1.48128e-15 0)
(3 -3.4693e-16 0)
(3 6.28574e-16 0)
(3 9.57304e-16 0)
(3 4.19412e-16 0)
(3 -3.60548e-16 0)
(3 -9.08479e-16 0)
(3 -7.0482e-17 0)
(3 1.1672e-15 0)
(3 7.67385e-16 0)
(3 7.10587e-16 0)
(3 1.00124e-16 0)
(3 1.79834e-16 0)
(3 4.09812e-16 0)
(3 6.62254e-16 0)
(3 1.34715e-15 0)
(3 1.47259e-15 0)
(3 1.75854e-15 0)
(3 1.59357e-15 0)
(3 1.49612e-15 0)
(3 1.82961e-15 0)
(3 1.91657e-15 0)
(3 2.33566e-15 0)
(3 3.57714e-15 0)
(3 4.29279e-15 0)
(3 4.57997e-15 0)
(3 3.15662e-15 0)
(3 -1.44949e-16 0)
(3 -1.36936e-15 0)
(3 -1.02658e-15 0)
(3 -1.71794e-16 0)
(3 -4.74994e-16 0)
(3 -7.65397e-16 0)
(3 -8.47619e-16 0)
(3 -1.2036e-15 0)
(3 -1.95747e-15 0)
(3 -1.6636e-15 0)
(3 -2.28968e-15 0)
(3 -2.91542e-15 0)
(3 -1.65236e-15 0)
(3 -1.18154e-15 0)
(3 -3.26591e-16 0)
(3 6.29182e-17 0)
(3 -2.95981e-16 0)
(3 -4.9669e-16 0)
(3 -2.71531e-16 0)
(3 -4.39582e-16 0)
(3 -5.76167e-16 0)
(3 -4.66369e-16 0)
(3 -3.86951e-16 0)
(3 2.23503e-16 0)
(3 9.94808e-16 0)
(3 1.10812e-15 0)
(3 1.21273e-15 0)
(3 1.246e-15 0)
(3 5.92706e-16 0)
(3 -7.21088e-17 0)
(3 -3.70517e-16 0)
(3 -5.19667e-16 0)
(3 -8.89877e-16 0)
(3 -8.50269e-16 0)
(3 -5.47705e-16 0)
(3 -6.86391e-16 0)
(3 -4.81403e-16 0)
(3 1.55975e-17 0)
(3 8.52461e-17 0)
(3 -2.63325e-16 0)
(3 -1.07721e-15 0)
(3 -1.11731e-15 0)
(3 -6.22398e-16 0)
(3 -8.62316e-16 0)
(3 -5.75766e-16 0)
(3 -1.27547e-15 0)
(3 -1.89803e-15 0)
(3 -1.85594e-15 0)
(3 -1.7138e-15 0)
(3 -1.75117e-15 0)
(3 -1.22246e-15 0)
(3 -1.59262e-16 0)
(3 4.53805e-16 0)
(3 1.05355e-16 0)
(3 -3.24553e-16 0)
(3 -6.34828e-16 0)
(3 -1.34341e-15 0)
(3 -1.20518e-15 0)
(3 -1.41969e-15 0)
(3 -1.71864e-15 0)
(3 -1.64814e-15 0)
(3 -1.52326e-15 0)
(3 -5.29107e-16 0)
(3 -7.76496e-16 0)
(3 -6.21314e-16 0)
(3 1.33941e-17 0)
(3 -6.90772e-17 0)
(3 3.95341e-17 0)
(3 -2.06043e-16 0)
(3 -3.80412e-16 0)
(3 3.41963e-17 0)
(3 1.63135e-16 0)
(3 2.18971e-16 0)
(3 -4.54012e-16 0)
(3 -1.02948e-15 0)
(3 -1.81361e-15 0)
(3 -1.08467e-15 0)
(3 1.48166e-16 0)
(3 3.19009e-16 0)
(3 -6.90606e-16 0)
(3 -3.16642e-16 0)
(3 6.36001e-16 0)
(3 1.10528e-15 0)
(3 5.01769e-16 0)
(3 3.19705e-16 0)
(3 7.65359e-16 0)
(3 5.67151e-16 0)
(3 1.26045e-15 0)
(3 1.44218e-15 0)
(3 7.86043e-16 0)
(3 1.58169e-16 0)
(3 -5.59603e-16 0)
(3 -9.99873e-16 0)
(3 -8.14661e-16 0)
(3 -7.61213e-16 0)
(3 -1.61948e-15 0)
(3 -2.44984e-15 0)
(3 -2.83097e-15 0)
(3 -2.74693e-15 0)
(3 -2.82612e-15 0)
(3 -2.65626e-15 0)
(3 -1.43653e-15 0)
(3 -1.11422e-15 0)
(3 -4.13534e-16 0)
(3 2.00403e-16 0)
(3 6.48385e-16 0)
(3 1.99488e-15 0)
(3 2.41611e-15 0)
(3 1.96774e-16 0)
(3 5.16703e-17 0)
(3 1.88342e-16 0)
(3 -2.41629e-16 0)
(3 -5.7333e-16 0)
(3 -3.11633e-16 0)
(3 -1.48383e-16 0)
(3 -2.11159e-16 0)
(3 -5.93362e-16 0)
(3 -3.35884e-16 0)
(3 2.68569e-16 0)
(3 1.27451e-16 0)
(3 -4.21332e-16 0)
(3 -1.44698e-16 0)
(3 4.60885e-16 0)
(3 5.14679e-16 0)
(3 4.75866e-16 0)
(3 4.37297e-16 0)
(3 -3.21609e-16 0)
(3 -9.91296e-16 0)
(3 4.5797e-16 0)
(3 1.25486e-15 0)
(3 2.36942e-15 0)
(3 3.30594e-15 0)
(3 3.41202e-15 0)
(3 1.94456e-15 0)
(3 1.49726e-15 0)
(3 4.45886e-16 0)
(3 -1.9495e-17 0)
(3 -1.7207e-16 0)
(3 -7.72649e-16 0)
(3 -7.95029e-16 0)
(3 3.47425e-16 0)
(3 5.22632e-16 0)
(3 -2.86985e-17 0)
(3 1.50598e-15 0)
(3 2.38135e-15 0)
(3 1.91241e-15 0)
(3 1.06469e-15 0)
(3 8.33855e-16 0)
(3 -8.85654e-17 0)
(3 1.43647e-16 0)
(3 -2.63879e-17 0)
(3 -6.60803e-16 0)
(3 -1.96955e-15 0)
(3 -1.86311e-15 0)
(3 -1.7248e-15 0)
(3 -2.55055e-15 0)
(3 -2.47984e-15 0)
(3 -2.30441e-15 0)
(3 -2.61423e-15 0)
(3 -2.6731e-15 0)
(3 -2.66892e-15 0)
(3 -1.71587e-15 0)
(3 -8.47836e-16 0)
(3 -1.08649e-15 0)
(3 9.82182e-18 0)
(3 1.05047e-15 0)
(3 1.44672e-15 0)
(3 1.37459e-15 0)
(3 1.59959e-15 0)
(3 1.26125e-15 0)
(3 1.9655e-16 0)
(3 5.8969e-16 0)
(3 1.00004e-15 0)
(3 8.95484e-16 0)
(3 1.31798e-15 0)
(3 1.47602e-15 0)
(3 1.28426e-15 0)
(3 1.76293e-15 0)
(3 1.76506e-15 0)
(3 2.33059e-15 0)
(3 2.09648e-15 0)
(3 1.83402e-15 0)
(3 1.58738e-15 0)
(3 1.71098e-15 0)
(3 2.04372e-15 0)
(3 2.08352e-15 0)
(3 2.02491e-15 0)
(3 2.16707e-15 0)
(3 2.32196e-15 0)
(3 2.12565e-15 0)
(3 1.64294e-15 0)
(3 8.31363e-16 0)
(3 9.84377e-18 0)
(3 -7.84471e-16 0)
(3 -1.09491e-15 0)
(3 -1.26262e-15 0)
(3 -1.34288e-15 0)
(3 -1.42607e-15 0)
(3 -1.39058e-15 0)
(3 -1.42273e-15 0)
(3 -9.87146e-16 0)
(3 -8.51627e-16 0)
(3 -1.53848e-15 0)
(3 -1.82229e-15 0)
(3 5.82313e-16 0)
(3 9.279e-16 0)
(3 6.60488e-16 0)
(3 2.96699e-16 0)
(3 7.51946e-17 0)
(3 1.93667e-16 0)
(3 -6.09111e-18 0)
(3 -2.91091e-16 0)
(3 -6.65757e-16 0)
(3 -8.92226e-16 0)
(3 -3.83757e-16 0)
(3 -4.81714e-17 0)
(3 6.90788e-16 0)
(3 1.45654e-15 0)
(3 2.0185e-15 0)
(3 1.58841e-15 0)
(3 1.31479e-15 0)
(3 1.19239e-15 0)
(3 3.06435e-16 0)
(3 1.66735e-16 0)
(3 -1.0423e-15 0)
(3 -1.23973e-15 0)
(3 -9.56126e-16 0)
(3 -8.27367e-16 0)
(3 -1.01316e-15 0)
(3 -1.041e-15 0)
(3 -1.17796e-15 0)
(3 -1.88389e-15 0)
(3 -1.955e-15 0)
(3 -1.76559e-15 0)
(3 -9.02243e-16 0)
(3 -8.99314e-16 0)
(3 -7.86826e-16 0)
(3 -6.17822e-16 0)
(3 -5.95628e-16 0)
(3 -5.88112e-16 0)
(3 -6.86709e-16 0)
(3 -1.09757e-15 0)
(3 -1.10225e-15 0)
(3 -3.14691e-16 0)
(3 -1.20802e-16 0)
(3 -9.15633e-16 0)
(3 -1.64148e-15 0)
(3 -2.23917e-15 0)
(3 -2.22916e-15 0)
(3 -1.93193e-15 0)
(3 -2.05073e-15 0)
(3 -2.5338e-15 0)
(3 -2.64403e-15 0)
(3 -2.73771e-15 0)
(3 -2.75933e-15 0)
(3 -1.46194e-15 0)
(3 -1.01954e-16 0)
(3 5.25505e-16 0)
(3 2.70835e-16 0)
(3 -2.71559e-16 0)
(3 -6.04451e-16 0)
(3 -3.68665e-16 0)
(3 1.44293e-16 0)
(3 5.11003e-16 0)
(3 2.52509e-17 0)
(3 -2.91092e-16 0)
(3 -5.89004e-17 0)
(3 3.67577e-17 0)
(3 2.33334e-16 0)
(3 7.03146e-16 0)
(3 5.20505e-16 0)
(3 5.00816e-16 0)
(3 -3.22956e-16 0)
(3 -5.26827e-16 0)
(3 -4.86201e-16 0)
(3 -2.63361e-16 0)
(3 -8.62092e-17 0)
(3 7.17495e-17 0)
(3 -1.61264e-16 0)
(3 6.05709e-16 0)
(3 7.24062e-16 0)
(3 -1.29202e-16 0)
(3 -1.43232e-16 0)
(3 -6.39655e-16 0)
(3 -1.76146e-15 0)
(3 -1.98957e-15 0)
(3 -1.74369e-15 0)
(3 -1.33437e-15 0)
(3 -1.70392e-15 0)
(3 -2.294e-15 0)
(3 -2.6743e-15 0)
(3 -2.83388e-15 0)
(3 -3.35251e-15 0)
(3 -2.40625e-15 0)
(3 -1.82812e-15 0)
(3 -1.09103e-15 0)
(3 -3.73716e-16 0)
(3 7.77788e-16 0)
(3 2.13601e-15 0)
(3 2.43266e-15 0)
(3 -1.93811e-17 0)
(3 -2.88981e-16 0)
(3 -4.82734e-16 0)
(3 -5.68526e-16 0)
(3 -1.16271e-15 0)
(3 -1.45327e-15 0)
(3 -1.62261e-15 0)
(3 -1.56415e-15 0)
(3 -9.93222e-16 0)
(3 -8.94964e-16 0)
(3 -7.77619e-16 0)
(3 -9.45942e-16 0)
(3 -7.26039e-16 0)
(3 -3.75661e-16 0)
(3 -2.29535e-17 0)
(3 2.18701e-16 0)
(3 6.83593e-17 0)
(3 5.27312e-16 0)
(3 4.01531e-16 0)
(3 5.58024e-16 0)
(3 1.30126e-15 0)
(3 2.01298e-15 0)
(3 2.51056e-15 0)
(3 2.56738e-15 0)
(3 1.67557e-15 0)
(3 1.61161e-15 0)
(3 1.71841e-15 0)
(3 1.55622e-15 0)
(3 1.33499e-15 0)
(3 7.54121e-16 0)
(3 -3.83814e-16 0)
(3 -6.90613e-16 0)
(3 -6.50874e-16 0)
(3 -1.04269e-15 0)
(3 -1.35182e-15 0)
(3 7.34992e-16 0)
(3 1.50378e-15 0)
(3 1.11887e-15 0)
(3 1.41762e-15 0)
(3 4.74644e-16 0)
(3 -6.28854e-16 0)
(3 -5.01949e-16 0)
(3 -6.57901e-16 0)
(3 -1.72979e-15 0)
(3 -1.83937e-15 0)
(3 -2.28284e-15 0)
(3 -2.14183e-15 0)
(3 -1.22963e-15 0)
(3 -6.73878e-16 0)
(3 -9.69469e-18 0)
(3 -3.9238e-16 0)
(3 -1.57613e-15 0)
(3 -1.45808e-15 0)
(3 -1.57878e-15 0)
(3 -1.12318e-15 0)
(3 -5.18506e-16 0)
(3 3.95482e-16 0)
(3 1.16329e-15 0)
(3 1.71035e-15 0)
(3 1.80246e-15 0)
(3 1.09205e-15 0)
(3 4.56367e-16 0)
(3 4.50094e-16 0)
(3 6.08195e-16 0)
(3 7.5492e-16 0)
(3 2.4199e-16 0)
(3 1.02171e-15 0)
(3 1.23458e-15 0)
(3 1.46303e-15 0)
(3 1.52579e-15 0)
(3 1.99214e-15 0)
(3 1.42798e-15 0)
(3 7.74371e-16 0)
(3 9.12007e-16 0)
(3 2.01279e-15 0)
(3 2.56625e-15 0)
(3 2.80045e-15 0)
(3 2.25697e-15 0)
(3 1.61195e-15 0)
(3 1.51284e-15 0)
(3 9.09808e-16 0)
(3 3.38518e-16 0)
(3 -4.17056e-16 0)
(3 -6.33988e-16 0)
(3 6.08735e-16 0)
(3 1.30083e-15 0)
(3 1.18053e-15 0)
(3 4.62537e-16 0)
(3 -1.33892e-15 0)
(3 -1.75824e-15 0)
(3 -1.56378e-15 0)
(3 -9.76374e-16 0)
(3 -4.99041e-16 0)
(3 -7.95733e-16 0)
(3 -1.14602e-15 0)
(3 -4.81928e-16 0)
(3 -2.01204e-16 0)
(3 -4.97913e-16 0)
(3 -8.61158e-16 0)
(3 -1.3818e-15 0)
(3 1.57828e-16 0)
(3 9.38823e-16 0)
(3 7.05118e-16 0)
(3 -2.27076e-17 0)
(3 -4.13781e-16 0)
(3 -2.53109e-16 0)
(3 1.551e-16 0)
(3 3.61916e-16 0)
(3 1.36336e-15 0)
(3 1.95885e-15 0)
(3 1.78696e-15 0)
(3 1.13011e-15 0)
(3 1.16639e-15 0)
(3 6.67782e-16 0)
(3 1.68321e-16 0)
(3 -1.81086e-16 0)
(3 -2.19409e-16 0)
(3 -9.68503e-16 0)
(3 -1.26728e-15 0)
(3 -1.03148e-15 0)
(3 -1.0894e-15 0)
(3 -2.27755e-15 0)
(3 -2.52073e-15 0)
(3 -2.61321e-15 0)
(3 -2.45769e-15 0)
(3 -1.83577e-15 0)
(3 -1.23255e-15 0)
(3 -1.02064e-15 0)
(3 -5.54854e-16 0)
(3 -1.39326e-16 0)
(3 -4.67813e-17 0)
(3 3.81976e-17 0)
(3 -1.50388e-17 0)
(3 -1.34081e-16 0)
(3 1.64651e-16 0)
(3 -1.70639e-18 0)
(3 -2.52575e-17 0)
(3 -7.7315e-16 0)
(3 -2.06308e-15 0)
(3 -2.41654e-15 0)
(3 -2.35855e-15 0)
(3 -2.34906e-15 0)
(3 -2.05289e-15 0)
(3 -1.74498e-15 0)
(3 -1.56483e-15 0)
(3 -1.59893e-15 0)
(3 -1.39876e-15 0)
(3 -1.49599e-15 0)
(3 -1.15757e-15 0)
(3 -6.68001e-16 0)
(3 -3.54293e-17 0)
(3 -7.15576e-18 0)
(3 -1.08847e-16 0)
(3 5.70457e-16 0)
(3 3.04228e-16 0)
(3 -1.54951e-16 0)
(3 -1.46085e-16 0)
(3 -4.75366e-18 0)
(3 4.08859e-16 0)
(3 1.21057e-15 0)
(3 1.56133e-15 0)
(3 1.70032e-15 0)
(3 1.67227e-15 0)
(3 1.65505e-15 0)
(3 1.37077e-16 0)
(3 -8.65182e-17 0)
(3 -1.38635e-16 0)
(3 1.33825e-16 0)
(3 -8.76627e-18 0)
(3 -3.08089e-16 0)
(3 1.75575e-16 0)
(3 2.14033e-16 0)
(3 2.52304e-16 0)
(3 6.04598e-16 0)
(3 4.62406e-16 0)
(3 -2.21115e-17 0)
(3 -6.7078e-16 0)
(3 -7.58205e-16 0)
(3 -6.22397e-16 0)
(3 -3.94697e-16 0)
(3 -2.23455e-17 0)
(3 -8.28044e-16 0)
(3 -1.64493e-15 0)
(3 -1.47832e-15 0)
(3 -2.47987e-15 0)
(3 -2.19777e-15 0)
(3 -1.90437e-15 0)
(3 -2.09916e-15 0)
(3 -1.83616e-15 0)
(3 -1.59906e-16 0)
(3 -1.72943e-16 0)
(3 5.52535e-16 0)
(3 -3.02383e-16 0)
(3 -2.11818e-16 0)
(3 -2.83947e-16 0)
(3 -2.1339e-16 0)
(3 -7.40086e-17 0)
(3 -2.07388e-17 0)
(3 -3.82642e-16 0)
(3 -1.08428e-15 0)
(3 -1.5898e-15 0)
(3 -1.65094e-15 0)
(3 -1.1183e-15 0)
(3 -4.36441e-16 0)
(3 -3.90951e-17 0)
(3 -1.90417e-16 0)
(3 -1.3074e-15 0)
(3 -1.1357e-15 0)
(3 -2.61495e-16 0)
(3 5.2463e-17 0)
(3 -7.43151e-17 0)
(3 1.48385e-16 0)
(3 4.55146e-16 0)
(3 1.02227e-15 0)
(3 1.65643e-15 0)
(3 1.20981e-15 0)
(3 4.63722e-16 0)
(3 6.48066e-16 0)
(3 1.1725e-15 0)
(3 1.54287e-15 0)
(3 6.92441e-16 0)
(3 2.79426e-16 0)
(3 5.20252e-16 0)
(3 7.28098e-16 0)
(3 -6.57892e-16 0)
(3 -2.61829e-15 0)
(3 -2.75895e-15 0)
(3 -2.46643e-15 0)
(3 -1.77313e-15 0)
(3 -3.03739e-16 0)
(3 7.41727e-16 0)
(3 3.01552e-16 0)
(3 -1.51469e-16 0)
(3 -7.72296e-16 0)
(3 -7.35828e-16 0)
(3 -7.49174e-16 0)
(3 -1.24631e-15 0)
(3 -2.42671e-15 0)
(3 -2.52621e-15 0)
(3 -1.46985e-15 0)
(3 2.12423e-16 0)
(3 1.21048e-15 0)
(3 1.37571e-15 0)
(3 9.76055e-16 0)
(3 1.83612e-16 0)
(3 -8.28391e-16 0)
(3 -8.88861e-16 0)
(3 -5.70576e-16 0)
(3 -9.35685e-16 0)
(3 -8.62684e-16 0)
(3 -2.12814e-16 0)
(3 1.88491e-16 0)
(3 -5.19535e-16 0)
(3 -7.45854e-16 0)
(3 -4.85949e-16 0)
(3 -3.06061e-16 0)
(3 -5.10268e-16 0)
(3 3.57808e-16 0)
(3 3.60905e-16 0)
(3 4.11209e-16 0)
(3 4.36993e-16 0)
(3 8.77353e-16 0)
(3 1.0455e-15 0)
(3 1.17977e-15 0)
(3 1.50389e-15 0)
(3 1.24927e-15 0)
(3 1.81647e-15 0)
(3 1.94254e-15 0)
(3 1.82639e-15 0)
(3 1.78876e-15 0)
(3 1.12189e-15 0)
(3 9.77183e-16 0)
(3 8.98664e-16 0)
(3 -6.72479e-17 0)
(3 -1.1091e-15 0)
(3 -1.05626e-15 0)
(3 6.11725e-17 0)
(3 1.78367e-15 0)
(3 2.76849e-15 0)
(3 2.23954e-15 0)
(3 -3.57173e-16 0)
(3 -7.31473e-16 0)
(3 -9.20777e-17 0)
(3 -6.30069e-17 0)
(3 -3.63706e-16 0)
(3 -1.35115e-15 0)
(3 -2.13873e-15 0)
(3 -1.9071e-15 0)
(3 -1.71219e-15 0)
(3 -1.72884e-15 0)
(3 -2.01109e-15 0)
(3 -2.47198e-15 0)
(3 -8.0368e-16 0)
(3 2.05627e-17 0)
(3 1.06008e-15 0)
(3 9.514e-16 0)
(3 7.6723e-16 0)
(3 3.84635e-16 0)
(3 2.13212e-16 0)
(3 9.04501e-16 0)
(3 1.83369e-15 0)
(3 2.45183e-15 0)
(3 1.98907e-15 0)
(3 1.10259e-15 0)
(3 5.68964e-16 0)
(3 2.07483e-16 0)
(3 1.28549e-16 0)
(3 -6.3169e-16 0)
(3 -2.27607e-16 0)
(3 -3.8686e-16 0)
(3 -8.89075e-16 0)
(3 -9.7069e-16 0)
(3 -9.38406e-16 0)
(3 -1.20038e-15 0)
(3 -1.22197e-15 0)
(3 -1.63648e-15 0)
(3 -1.31263e-15 0)
(3 -1.18586e-15 0)
(3 -9.97173e-16 0)
(3 -9.61444e-16 0)
(3 -9.56867e-16 0)
(3 -3.55678e-16 0)
(3 -1.50058e-16 0)
(3 -6.97206e-17 0)
(3 -2.89656e-17 0)
(3 2.59471e-16 0)
(3 -1.63902e-16 0)
(3 -3.36269e-16 0)
(3 -2.94607e-16 0)
(3 3.32389e-17 0)
(3 -1.27231e-15 0)
(3 -1.91361e-15 0)
(3 -2.15205e-15 0)
(3 -2.006e-15 0)
(3 -1.45129e-15 0)
(3 -5.9487e-16 0)
(3 -5.53257e-16 0)
(3 -7.40062e-16 0)
(3 -8.84464e-16 0)
(3 -1.15274e-15 0)
(3 -1.53622e-15 0)
(3 -1.52676e-15 0)
(3 -1.00816e-15 0)
(3 -3.17163e-17 0)
(3 1.26229e-15 0)
(3 1.49623e-15 0)
(3 7.02999e-16 0)
(3 5.18124e-16 0)
(3 6.33541e-16 0)
(3 3.38379e-16 0)
(3 2.55701e-16 0)
(3 4.15303e-16 0)
(3 1.56317e-15 0)
(3 2.15423e-15 0)
(3 3.07363e-15 0)
(3 3.10042e-15 0)
(3 2.22156e-15 0)
(3 2.17472e-15 0)
(3 2.17313e-15 0)
(3 1.488e-15 0)
(3 6.18271e-16 0)
(3 5.46208e-16 0)
(3 9.95443e-16 0)
(3 3.79152e-16 0)
(3 3.78814e-16 0)
(3 8.51003e-16 0)
(3 6.58128e-16 0)
(3 6.78909e-16 0)
(3 8.40208e-16 0)
(3 6.3697e-16 0)
(3 6.72266e-16 0)
(3 3.04387e-16 0)
(3 5.85163e-16 0)
(3 6.82116e-16 0)
(3 4.03981e-17 0)
(3 6.09934e-17 0)
(3 7.68272e-17 0)