/*--------------------------------*- C++ -*----------------------------------*\
  =========                 |
  \\      /  F ield         | OpenFOAM: The Open Source CFD Toolbox
   \\    /   O peration     | Website:  https://openfoam.org
    \\  /    A nd           | Version:  7
     \\/     M anipulation  |
\*---------------------------------------------------------------------------*/
FoamFile
{
    version     2.0;
    format      ascii;
    class       volScalarField;
    location    "3.7";
    object      p;
}
// * * * * * * * * * * * * * * * * * * * * * * * * * * * * * * * * * * * * * //

dimensions      [1 -1 -2 0 0 0 0];

internalField   nonuniform List<scalar> 
16512
(
1
1
1
1
1
1
1
1
1
1
1
1
1
1
1
1
1
1
1
1
1
1
1
1
1
1
1
1
1
1
1
1
1
1
1
1
1
1
1
1
1
1
1
1
1
1
1
1
1
1
1
1
1
1
1
1
1
1
1
1
1
1
1
1
1
1
1
1
1
1
1
1
1
1
1
1
1
1
1
1
1
1
1
1
1
1
1
1
1
1
1
1
1
1
1
1
1
1
1
1
1.00016
1.00633
1.06225
1.41064
2.75141
3.57979
3.81928
3.9614
3.98439
3.93023
3.91223
3.91576
3.88846
3.83711
3.81266
3.81143
3.80655
3.76623
3.73846
3.71712
3.69322
3.66484
3.64487
3.63549
3.63206
3.61931
3.60606
3.58517
3.558
3.51858
3.47067
3.42995
3.40703
3.40031
3.40733
3.42612
3.42946
3.41907
3.39971
3.36896
3.31405
3.24324
3.19305
3.17187
3.16881
3.18327
3.22831
3.25586
3.25149
3.23735
3.21032
3.15469
3.05816
2.99147
2.97083
2.96871
2.9753
3.01135
3.07322
3.09702
3.08878
3.06588
3.01883
2.92434
2.84398
2.82189
2.81758
2.81649
1
1
1
1
1
1
1
1
1
1
1
1
1
1
1
1
1
1
1
1
1
1
1
1
1
1
1
1
1
1
1
1
1
1
1
1
1
1
1
1
1
1
1
1
1
1
1
1
1
1
1
1
1
1
1
1
1
1
1
1
1
1
1
1
1
1
1
1
1
1
1
1
1
1
1
1
1
1
1
1
1
1
1
1
1
1
1
1
1
1
1
1
1
1
1
1
1
1
1
1
1
1
1
1
1
1
1
1
1
1.00003
1.00126
1.02897
1.40435
2.563
3.323
3.81294
3.99669
4.00238
3.96484
3.91694
3.86328
3.82613
3.82852
3.83885
3.78994
3.76495
3.76262
3.74725
3.71202
3.69077
3.68551
3.68045
3.65661
3.63409
3.6124
3.58742
3.55203
3.51019
3.47244
3.45117
3.44355
3.44792
3.45935
3.45909
3.44798
3.42782
3.39639
3.3448
3.28271
3.23575
3.21474
3.21175
3.22638
3.26606
3.28438
3.27839
3.26385
3.23672
3.18283
3.09052
3.02435
3.00225
2.99989
3.00664
3.04329
3.10493
3.12804
3.11999
3.09789
3.05386
2.96202
2.87406
2.84712
2.84168
2.83938
2.85223
1
1
1
1
1
1
1
1
1
1
1
1
1
1
1
1
1
1
1
1
1
1
1
1
1
1
1
1
1
1
1
1
1
1
1
1
1
1
1
1
1
1
1
1
1
1
1
1
1
1
1
1
1
1
1
1
1
1
1
1
1
1
1
1
1
1
1
1
1
1
1
1
1
1
1
1
1
1
1
1
1
1
1
1
1
1
1
1
1
1
1
1
1
1
1
1
1
1
1
1
1
1
1
1
1
1
1
1
1
1
1.00001
1.00066
1.02819
1.37915
2.1458
3.03772
3.89222
4.00135
3.94417
3.88879
3.8536
3.8425
3.85081
3.81563
3.79477
3.79406
3.78461
3.75412
3.73471
3.73065
3.72714
3.69557
3.66279
3.63855
3.61766
3.59022
3.55316
3.51717
3.49818
3.48936
3.48993
3.49182
3.48805
3.47609
3.45543
3.42367
3.3761
3.32252
3.27872
3.25963
3.25686
3.27184
3.30345
3.31247
3.30498
3.28928
3.26155
3.2101
3.1243
3.05993
3.03629
3.03378
3.04031
3.07651
3.13566
3.15636
3.14781
3.1264
3.08578
2.99887
2.90539
2.8734
2.86668
2.86366
2.87293
2.9122
1
1
1
1
1
1
1
1
1
1
1
1
1
1
1
1
1
1
1
1
1
1
1
1
1
1
1
1
1
1
1
1
1
1
1
1
1
1
1
1
1
1
1
1
1
1
1
1
1
1
1
1
1
1
1
1
1
1
1
1
1
1
1
1
1
1
1
1
1
1
1
1
1
1
1
1
1
1
1
1
1
1
1
1
1
1
1
1
1
1
1
1
1
1
1
1
1
1
1
1
1
1
1
1
1
1
1
1
1
1
1
1
1.0006
1.0229
1.18311
1.67858
3.05848
3.76979
3.84462
3.89249
3.87834
3.86266
3.85028
3.83634
3.84838
3.83452
3.78822
3.76708
3.76327
3.76233
3.72966
3.69589
3.66999
3.64999
3.6283
3.59609
3.56316
3.54475
3.53555
3.53167
3.52682
3.5166
3.50236
3.48182
3.45039
3.4079
3.36164
3.3214
3.30483
3.30275
3.31782
3.34056
3.34158
3.33276
3.31449
3.28507
3.23509
3.15676
3.09678
3.07227
3.06971
3.07682
3.11266
3.16706
3.18418
3.17458
3.15313
3.11454
3.03271
2.93749
2.90072
2.89263
2.88924
2.89658
2.93495
2.97469
1
1
1
1
1
1
1
1
1
1
1
1
1
1
1
1
1
1
1
1
1
1
1
1
1
1
1
1
1
1
1
1
1
1
1
1
1
1
1
1
1
1
1
1
1
1
1
1
1
1
1
1
1
1
1
1
1
1
1
1
1
1
1
1
1
1
1
1
1
1
1
1
1
1
1
1
1
1
1
1
1
1
1
1
1
1
1
1
1
1
1
1
1
1
1
1
1
1
1
1
1
1
1
1
1
1
1
1
1
1
1
1
1
1.00026
1.00601
1.06817
1.6022
2.90501
3.52564
3.80678
3.92758
3.9235
3.90709
3.89948
3.87388
3.82045
3.78578
3.77943
3.78985
3.75138
3.72518
3.7122
3.69289
3.66411
3.63478
3.61112
3.59537
3.5775
3.569
3.5617
3.54159
3.52434
3.50544
3.4783
3.4426
3.40156
3.36405
3.35014
3.34887
3.3625
3.37557
3.37122
3.3605
3.33953
3.30911
3.26104
3.19015
3.13443
3.10929
3.10671
3.1145
3.15004
3.19941
3.21243
3.20165
3.17941
3.14183
3.06418
2.96972
2.92984
2.91962
2.91638
2.92319
2.96103
3.00786
3.01405
1
1
1
1
1
1
1
1
1
1
1
1
1
1
1
1
1
1
1
1
1
1
1
1
1
1
1
1
1
1
1
1
1
1
1
1
1
1
1
1
1
1
1
1
1
1
1
1
1
1
1
1
1
1
1
1
1
1
1
1
1
1
1
1
1
1
1
1
1
1
1
1
1
1
1
1
1
1
1
1
1
1
1
1
1
1
1
1
1
1
1
1
1
1
1
1
1
1
1
1
1
1
1
1
1
1
1
1
1
1
1
1
1
1
1.00004
1.00196
1.05289
1.58409
2.62995
3.30855
3.82862
3.9713
3.9469
3.89782
3.83548
3.80322
3.79178
3.80114
3.76983
3.75109
3.74874
3.73261
3.70008
3.67358
3.65851
3.65135
3.62719
3.6044
3.58965
3.56873
3.54701
3.52938
3.50809
3.47738
3.44026
3.40728
3.39668
3.39688
3.40735
3.40749
3.39812
3.38353
3.36206
3.33297
3.28871
3.22558
3.17384
3.14854
3.14564
3.15311
3.18718
3.23074
3.23992
3.22811
3.20593
3.16927
3.09484
3.00265
2.96006
2.94832
2.94518
2.95238
2.9914
3.0413
3.05023
3.04101
1
1
1
1
1
1
1
1
1
1
1
1
1
1
1
1
1
1
1
1
1
1
1
1
1
1
1
1
1
1
1
1
1
1
1
1
1
1
1
1
1
1
1
1
1
1
1
1
1
1
1
1
1
1
1
1
1
1
1
1
1
1
1
1
1
1
1
1
1
1
1
1
1
1
1
1
1
1
1
1
1
1
1
1
1
1
1
1
1
1
1
1
1
1
1
1
1
1
1
1
1
1
1
1
1
1
1
1
1
1
1
1
1
1
1
1.00002
1.00154
1.05389
1.42911
2.08454
3.17645
3.90708
3.90798
3.85675
3.84676
3.82151
3.79133
3.78798
3.77995
3.78481
3.76962
3.73333
3.71169
3.70311
3.70192
3.67386
3.64168
3.62331
3.60675
3.58106
3.56013
3.53882
3.51011
3.47678
3.44976
3.44207
3.44426
3.45023
3.44194
3.42722
3.4085
3.38505
3.35498
3.3148
3.26075
3.2143
3.18953
3.18655
3.19354
3.22431
3.25986
3.26524
3.25279
3.23129
3.19609
3.12558
3.03711
2.99267
2.97915
2.97598
2.98408
3.02463
3.0749
3.08366
3.07374
3.05132
1
1
1
1
1
1
1
1
1
1
1
1
1
1
1
1
1
1
1
1
1
1
1
1
1
1
1
1
1
1
1
1
1
1
1
1
1
1
1
1
1
1
1
1
1
1
1
1
1
1
1
1
1
1
1
1
1
1
1
1
1
1
1
1
1
1
1
1
1
1
1
1
1
1
1
1
1
1
1
1
1
1
1
1
1
1
1
1
1
1
1
1
1
1
1
1
1
1
1
1
1
1
1
1
1
1
1
1
1
1
1
1
1
1
1
1
1.00001
1.00122
1.02568
1.16856
1.79161
3.22696
3.65386
3.79146
3.87885
3.85364
3.82114
3.81299
3.8284
3.8236
3.77121
3.7437
3.73848
3.74193
3.70691
3.67378
3.65794
3.64609
3.61869
3.59198
3.57368
3.54726
3.51684
3.49412
3.48646
3.48487
3.48492
3.47503
3.45878
3.43896
3.41394
3.38163
3.34283
3.29497
3.25349
3.23061
3.22811
3.23531
3.2623
3.28848
3.28871
3.27532
3.25425
3.22069
3.15512
3.07271
3.02811
3.0131
3.00965
3.01831
3.0598
3.1075
3.11339
3.10276
3.08076
3.03803
1
1
1
1
1
1
1
1
1
1
1
1
1
1
1
1
1
1
1
1
1
1
1
1
1
1
1
1
1
1
1
1
1
1
1
1
1
1
1
1
1
1
1
1
1
1
1
1
1
1
1
1
1
1
1
1
1
1
1
1
1
1
1
1
1
1
1
1
1
1
1
1
1
1
1
1
1
1
1
1
1
1
1
1
1
1
1
1
1
1
1
1
1
1
1
1
1
1
1
1
1
1
1
1
1
1
1
1
1
1
1
1
1
1
1
1
1
1.00001
1.00027
1.00626
1.09198
1.76638
2.94761
3.50038
3.79756
3.9077
3.88945
3.87804
3.8572
3.79913
3.76729
3.76076
3.77463
3.73253
3.70017
3.69493
3.68736
3.6574
3.62386
3.60538
3.58528
3.55557
3.53757
3.53111
3.52869
3.52432
3.50849
3.48393
3.45792
3.43373
3.40725
3.37366
3.33112
3.29258
3.27154
3.26926
3.2766
3.30016
3.31799
3.31324
3.29725
3.27523
3.24215
3.1816
3.10795
3.06523
3.04938
3.04587
3.05621
3.09795
3.13922
3.14142
3.12983
3.1079
3.06657
2.98289
1
1
1
1
1
1
1
1
1
1
1
1
1
1
1
1
1
1
1
1
1
1
1
1
1
1
1
1
1
1
1
1
1
1
1
1
1
1
1
1
1
1
1
1
1
1
1
1
1
1
1
1
1
1
1
1
1
1
1
1
1
1
1
1
1
1
1
1
1
1
1
1
1
1
1
1
1
1
1
1
1
1
1
1
1
1
1
1
1
1
1
1
1
1
1
1
1
1
1
1
1
1
1
1
1
1
1
1
1
1
1
1
1
1
1
1
1
1
1
1.00006
1.00324
1.08272
1.68576
2.55996
3.29977
3.84889
3.94099
3.89455
3.82109
3.79285
3.78441
3.79755
3.75352
3.72476
3.72155
3.71739
3.69083
3.66237
3.64736
3.63579
3.60094
3.57577
3.57284
3.56722
3.55499
3.54075
3.51816
3.48909
3.45958
3.42982
3.39872
3.36392
3.33216
3.31475
3.31286
3.31845
3.33465
3.34537
3.33767
3.31965
3.29686
3.26342
3.20729
3.14288
3.10215
3.0863
3.08319
3.09619
3.13841
3.17086
3.1686
3.1558
3.13369
3.09278
3.01174
2.92938
1
1
1
1
1
1
1
1
1
1
1
1
1
1
1
1
1
1
1
1
1
1
1
1
1
1
1
1
1
1
1
1
1
1
1
1
1
1
1
1
1
1
1
1
1
1
1
1
1
1
1
1
1
1
1
1
1
1
1
1
1
1
1
1
1
1
1
1
1
1
1
1
1
1
1
1
1
1
1
1
1
1
1
1
1
1
1
1
1
1
1
1
1
1
1
1
1
1
1
1
1
1
1
1
1
1
1
1
1
1
1
1
1
1
1
1
1
1
1
1
1.00004
1.00275
1.06814
1.38924
2.04398
3.3006
3.86485
3.80513
3.80649
3.82277
3.81631
3.77193
3.7498
3.75146
3.75895
3.72978
3.69546
3.68351
3.68653
3.65599
3.61871
3.60771
3.59604
3.57167
3.55678
3.54546
3.52567
3.49919
3.47033
3.43726
3.40035
3.37056
3.35633
3.35513
3.36284
3.37434
3.37622
3.36423
3.34393
3.31984
3.28636
3.23564
3.17949
3.1396
3.12425
3.1221
3.1374
3.17891
3.20136
3.19535
3.18118
3.15875
3.11818
3.04005
2.95974
2.9243
1
1
1
1
1
1
1
1
1
1
1
1
1
1
1
1
1
1
1
1
1
1
1
1
1
1
1
1
1
1
1
1
1
1
1
1
1
1
1
1
1
1
1
1
1
1
1
1
1
1
1
1
1
1
1
1
1
1
1
1
1
1
1
1
1
1
1
1
1
1
1
1
1
1
1
1
1
1
1
1
1
1
1
1
1
1
1
1
1
1
1
1
1
1
1
1
1
1
1
1
1
1
1
1
1
1
1
1
1
1
1
1
1
1
1
1
1
1
1
1
1
1.00002
1.0014
1.02197
1.16116
1.90729
3.23537
3.57894
3.75692
3.87616
3.84368
3.79502
3.79585
3.80945
3.77281
3.72063
3.69834
3.70525
3.69322
3.66301
3.65923
3.6522
3.62058
3.58733
3.57256
3.54959
3.51803
3.48969
3.4675
3.44243
3.41619
3.40404
3.40244
3.40474
3.40611
3.40043
3.38769
3.36829
3.34445
3.31119
3.2655
3.21789
3.17919
3.1637
3.16257
3.17925
3.21693
3.22952
3.22052
3.20509
3.18251
3.14281
3.06872
2.99239
2.95566
2.945
1
1
1
1
1
1
1
1
1
1
1
1
1
1
1
1
1
1
1
1
1
1
1
1
1
1
1
1
1
1
1
1
1
1
1
1
1
1
1
1
1
1
1
1
1
1
1
1
1
1
1
1
1
1
1
1
1
1
1
1
1
1
1
1
1
1
1
1
1
1
1
1
1
1
1
1
1
1
1
1
1
1
1
1
1
1
1
1
1
1
1
1
1
1
1
1
1
1
1
1
1
1
1
1
1
1
1
1
1
1
1
1
1
1
1
1
1
1
1
1
1
1
1
1.00023
1.00682
1.11461
1.83987
2.90155
3.45624
3.79574
3.87467
3.86248
3.83452
3.78903
3.74731
3.72894
3.74892
3.72163
3.67784
3.66662
3.65774
3.64585
3.62539
3.61329
3.59679
3.56052
3.52481
3.49598
3.46854
3.4506
3.4456
3.44587
3.44414
3.44067
3.43211
3.41169
3.38943
3.36793
3.33766
3.29768
3.25701
3.2204
3.20518
3.20483
3.22171
3.25277
3.25598
3.24436
3.22699
3.20427
3.16558
3.09701
3.02672
2.9901
2.97915
2.97735
1
1
1
1
1
1
1
1
1
1
1
1
1
1
1
1
1
1
1
1
1
1
1
1
1
1
1
1
1
1
1
1
1
1
1
1
1
1
1
1
1
1
1
1
1
1
1
1
1
1
1
1
1
1
1
1
1
1
1
1
1
1
1
1
1
1
1
1
1
1
1
1
1
1
1
1
1
1
1
1
1
1
1
1
1
1
1
1
1
1
1
1
1
1
1
1
1
1
1
1
1
1
1
1
1
1
1
1
1
1
1
1
1
1
1
1
1
1
1
1
1
1
1
1
1.00008
1.00435
1.10033
1.67546
2.44847
3.31688
3.84429
3.88185
3.81149
3.76221
3.74954
3.76042
3.74512
3.71011
3.70271
3.70715
3.68712
3.65601
3.64273
3.64168
3.61213
3.57127
3.53997
3.5093
3.48979
3.48843
3.48727
3.47687
3.46645
3.45479
3.43515
3.41247
3.39146
3.3645
3.33094
3.29598
3.26217
3.24821
3.2489
3.26504
3.28627
3.28213
3.26785
3.24852
3.22443
3.18613
3.12473
3.06235
3.02669
3.01618
3.01515
3.03236
1
1
1
1
1
1
1
1
1
1
1
1
1
1
1
1
1
1
1
1
1
1
1
1
1
1
1
1
1
1
1
1
1
1
1
1
1
1
1
1
1
1
1
1
1
1
1
1
1
1
1
1
1
1
1
1
1
1
1
1
1
1
1
1
1
1
1
1
1
1
1
1
1
1
1
1
1
1
1
1
1
1
1
1
1
1
1
1
1
1
1
1
1
1
1
1
1
1
1
1
1
1
1
1
1
1
1
1
1
1
1
1
1
1
1
1
1
1
1
1
1
1
1
1
1
1.00005
1.00333
1.06416
1.33316
2.03122
3.36638
3.75576
3.72866
3.76364
3.80185
3.76865
3.72847
3.72359
3.73534
3.73542
3.69897
3.67129
3.67147
3.65784
3.61306
3.5844
3.56125
3.52996
3.51941
3.52223
3.51419
3.4955
3.47953
3.46299
3.44048
3.41692
3.39225
3.36306
3.33234
3.30319
3.29083
3.29141
3.30526
3.31686
3.30861
3.29186
3.2706
3.24455
3.20677
3.15266
3.09837
3.06445
3.05486
3.05508
3.07584
3.11936
1
1
1
1
1
1
1
1
1
1
1
1
1
1
1
1
1
1
1
1
1
1
1
1
1
1
1
1
1
1
1
1
1
1
1
1
1
1
1
1
1
1
1
1
1
1
1
1
1
1
1
1
1
1
1
1
1
1
1
1
1
1
1
1
1
1
1
1
1
1
1
1
1
1
1
1
1
1
1
1
1
1
1
1
1
1
1
1
1
1
1
1
1
1
1
1
1
1
1
1
1
1
1
1
1
1
1
1
1
1
1
1
1
1
1
1
1
1
1
1
1
1
1
1
1
1
1.00003
1.00115
1.01805
1.15801
1.97987
3.14006
3.50737
3.73884
3.8525
3.80252
3.7768
3.77659
3.78166
3.73842
3.69232
3.67838
3.67801
3.64622
3.62866
3.62251
3.60285
3.56582
3.5525
3.54577
3.52496
3.5008
3.48937
3.47524
3.45211
3.4251
3.39706
3.36842
3.34615
3.33458
3.33566
3.34392
3.34674
3.3376
3.31832
3.29392
3.26469
3.22794
3.18259
3.13666
3.10406
3.09517
3.09659
3.11925
3.15682
3.17025
1
1
1
1
1
1
1
1
1
1
1
1
1
1
1
1
1
1
1
1
1
1
1
1
1
1
1
1
1
1
1
1
1
1
1
1
1
1
1
1
1
1
1
1
1
1
1
1
1
1
1
1
1
1
1
1
1
1
1
1
1
1
1
1
1
1
1
1
1
1
1
1
1
1
1
1
1
1
1
1
1
1
1
1
1
1
1
1
1
1
1
1
1
1
1
1
1
1
1
1
1
1
1
1
1
1
1
1
1
1
1
1
1
1
1
1
1
1
1
1
1
1
1
1
1
1
1
1
1.00021
1.00719
1.12659
1.86116
2.76667
3.4214
3.78733
3.83173
3.80188
3.78032
3.74312
3.71088
3.70011
3.70097
3.67154
3.64855
3.63564
3.62571
3.61114
3.58952
3.58117
3.56703
3.5345
3.50952
3.49039
3.47414
3.4554
3.43073
3.40492
3.38778
3.37892
3.37662
3.37818
3.37543
3.36768
3.34763
3.32111
3.28868
3.25179
3.21238
3.17246
3.1428
3.13517
3.13862
3.16242
3.19071
3.19561
3.18755
1
1
1
1
1
1
1
1
1
1
1
1
1
1
1
1
1
1
1
1
1
1
1
1
1
1
1
1
1
1
1
1
1
1
1
1
1
1
1
1
1
1
1
1
1
1
1
1
1
1
1
1
1
1
1
1
1
1
1
1
1
1
1
1
1
1
1
1
1
1
1
1
1
1
1
1
1
1
1
1
1
1
1
1
1
1
1
1
1
1
1
1
1
1
1
1
1
1
1
1
1
1
1
1
1
1
1
1
1
1
1
1
1
1
1
1
1
1
1
1
1
1
1
1
1
1
1
1
1
1.0001
1.00483
1.11142
1.59506
2.30258
3.35681
3.7713
3.79906
3.77656
3.75199
3.71401
3.69951
3.69743
3.68868
3.68325
3.66718
3.64773
3.6221
3.60709
3.59901
3.57819
3.54825
3.52453
3.50166
3.48492
3.46418
3.44175
3.42915
3.42306
3.42174
3.41349
3.40479
3.39374
3.37688
3.35173
3.31905
3.28338
3.24556
3.20717
3.17998
3.17382
3.17998
3.20443
3.22318
3.22124
3.21123
3.19296
1
1
1
1
1
1
1
1
1
1
1
1
1
1
1
1
1
1
1
1
1
1
1
1
1
1
1
1
1
1
1
1
1
1
1
1
1
1
1
1
1
1
1
1
1
1
1
1
1
1
1
1
1
1
1
1
1
1
1
1
1
1
1
1
1
1
1
1
1
1
1
1
1
1
1
1
1
1
1
1
1
1
1
1
1
1
1
1
1
1
1
1
1
1
1
1
1
1
1
1
1
1
1
1
1
1
1
1
1
1
1
1
1
1
1
1
1
1
1
1
1
1
1
1
1
1
1
1
1
1
1.00006
1.00352
1.05153
1.26066
2.07007
3.28076
3.5886
3.7188
3.77709
3.75979
3.74037
3.74175
3.73383
3.70209
3.67887
3.65637
3.6349
3.62263
3.61177
3.5893
3.56536
3.54203
3.51607
3.49541
3.47781
3.46862
3.46498
3.46377
3.4496
3.43321
3.41518
3.40136
3.38043
3.35111
3.31762
3.27977
3.24133
3.21636
3.21112
3.21881
3.24226
3.25322
3.2474
3.23544
3.21381
3.18536
1
1
1
1
1
1
1
1
1
1
1
1
1
1
1
1
1
1
1
1
1
1
1
1
1
1
1
1
1
1
1
1
1
1
1
1
1
1
1
1
1
1
1
1
1
1
1
1
1
1
1
1
1
1
1
1
1
1
1
1
1
1
1
1
1
1
1
1
1
1
1
1
1
1
1
1
1
1
1
1
1
1
1
1
1
1
1
1
1
1
1
1
1
1
1
1
1
1
1
1
1
1
1
1
1
1
1
1
1
1
1
1
1
1
1
1
1
1
1
1
1
1
1
1
1
1
1
1
1
1
1
1.00002
1.00082
1.01351
1.15946
1.99682
2.94432
3.44363
3.7667
3.82859
3.81323
3.76964
3.72819
3.68981
3.68153
3.66472
3.6525
3.6395
3.62208
3.60876
3.58792
3.55938
3.52921
3.51007
3.50209
3.5004
3.50206
3.48839
3.46643
3.4399
3.42026
3.40487
3.38025
3.35167
3.3176
3.28031
3.2564
3.25164
3.25869
3.27621
3.28105
3.27246
3.25741
3.23526
3.20542
3.16504
1
1
1
1
1
1
1
1
1
1
1
1
1
1
1
1
1
1
1
1
1
1
1
1
1
1
1
1
1
1
1
1
1
1
1
1
1
1
1
1
1
1
1
1
1
1
1
1
1
1
1
1
1
1
1
1
1
1
1
1
1
1
1
1
1
1
1
1
1
1
1
1
1
1
1
1
1
1
1
1
1
1
1
1
1
1
1
1
1
1
1
1
1
1
1
1
1
1
1
1
1
1
1
1
1
1
1
1
1
1
1
1
1
1
1
1
1
1
1
1
1
1
1
1
1
1
1
1
1
1
1
1
1
1.00018
1.00712
1.14461
1.77055
2.48325
3.3714
3.80015
3.80721
3.77516
3.72054
3.69138
3.68248
3.67742
3.67262
3.66129
3.65137
3.63815
3.60779
3.57196
3.54895
3.53531
3.53018
3.52791
3.52228
3.50163
3.47444
3.44464
3.42682
3.40849
3.38288
3.35241
3.32233
3.30026
3.29496
3.30025
3.30789
3.30868
3.29531
3.27693
3.25605
3.22727
3.18928
3.14486
1
1
1
1
1
1
1
1
1
1
1
1
1
1
1
1
1
1
1
1
1
1
1
1
1
1
1
1
1
1
1
1
1
1
1
1
1
1
1
1
1
1
1
1
1
1
1
1
1
1
1
1
1
1
1
1
1
1
1
1
1
1
1
1
1
1
1
1
1
1
1
1
1
1
1
1
1
1
1
1
1
1
1
1
1
1
1
1
1
1
1
1
1
1
1
1
1
1
1
1
1
1
1
1
1
1
1
1
1
1
1
1
1
1
1
1
1
1
1
1
1
1
1
1
1
1
1
1
1
1
1
1
1
1
1.0001
1.00577
1.0864
1.3726
2.16282
3.38484
3.65295
3.72572
3.73752
3.71883
3.71158
3.70816
3.71311
3.69463
3.65914
3.64963
3.61964
3.58554
3.57292
3.56153
3.55361
3.54663
3.53176
3.50878
3.47818
3.45034
3.43459
3.41338
3.38731
3.36623
3.34692
3.34124
3.34014
3.33874
3.33474
3.31874
3.29831
3.27744
3.25042
3.21583
3.17713
3.14477
1
1
1
1
1
1
1
1
1
1
1
1
1
1
1
1
1
1
1
1
1
1
1
1
1
1
1
1
1
1
1
1
1
1
1
1
1
1
1
1
1
1
1
1
1
1
1
1
1
1
1
1
1
1
1
1
1
1
1
1
1
1
1
1
1
1
1
1
1
1
1
1
1
1
1
1
1
1
1
1
1
1
1
1
1
1
1
1
1
1
1
1
1
1
1
1
1
1
1
1
1
1
1
1
1
1
1
1
1
1
1
1
1
1
1
1
1
1
1
1
1
1
1
1
1
1
1
1
1
1
1
1
1
1
1
1.00005
1.00187
1.02404
1.20488
2.064
3.11585
3.51352
3.68128
3.77038
3.77065
3.76534
3.73034
3.67329
3.66301
3.66097
3.62195
3.59719
3.59307
3.58746
3.57479
3.55776
3.539
3.51369
3.48372
3.46029
3.44291
3.42132
3.40698
3.39494
3.38768
3.38036
3.37024
3.35834
3.34365
3.32232
3.30084
3.27646
3.24483
3.21022
3.1803
3.16573
1
1
1
1
1
1
1
1
1
1
1
1
1
1
1
1
1
1
1
1
1
1
1
1
1
1
1
1
1
1
1
1
1
1
1
1
1
1
1
1
1
1
1
1
1
1
1
1
1
1
1
1
1
1
1
1
1
1
1
1
1
1
1
1
1
1
1
1
1
1
1
1
1
1
1
1
1
1
1
1
1
1
1
1
1
1
1
1
1
1
1
1
1
1
1
1
1
1
1
1
1
1
1
1
1
1
1
1
1
1
1
1
1
1
1
1
1
1
1
1
1
1
1
1
1
1
1
1
1
1
1
1
1
1
1
1
1.00001
1.00035
1.0107
1.15863
1.88809
2.74354
3.32425
3.74252
3.80855
3.7637
3.68683
3.66642
3.68701
3.67163
3.62216
3.61295
3.61752
3.60777
3.58318
3.56628
3.54934
3.52273
3.49331
3.47243
3.45361
3.44326
3.43682
3.43254
3.41957
3.40342
3.38304
3.36733
3.34693
3.32532
3.30297
3.27466
3.24309
3.21564
3.20437
3.20887
1
1
1
1
1
1
1
1
1
1
1
1
1
1
1
1
1
1
1
1
1
1
1
1
1
1
1
1
1
1
1
1
1
1
1
1
1
1
1
1
1
1
1
1
1
1
1
1
1
1
1
1
1
1
1
1
1
1
1
1
1
1
1
1
1
1
1
1
1
1
1
1
1
1
1
1
1
1
1
1
1
1
1
1
1
1
1
1
1
1
1
1
1
1
1
1
1
1
1
1
1
1
1
1
1
1
1
1
1
1
1
1
1
1
1
1
1
1
1
1
1
1
1
1
1
1
1
1
1
1
1
1
1
1
1
1
1
1
1.00016
1.00711
1.11123
1.54898
2.25346
3.32962
3.76655
3.69441
3.67859
3.69399
3.71965
3.66223
3.63109
3.63729
3.63677
3.60659
3.58912
3.58561
3.56736
3.53751
3.51113
3.48839
3.4758
3.47214
3.46893
3.45874
3.43655
3.41106
3.38961
3.37166
3.35108
3.3294
3.30422
3.27512
3.25155
3.24403
3.24874
3.26083
1
1
1
1
1
1
1
1
1
1
1
1
1
1
1
1
1
1
1
1
1
1
1
1
1
1
1
1
1
1
1
1
1
1
1
1
1
1
1
1
1
1
1
1
1
1
1
1
1
1
1
1
1
1
1
1
1
1
1
1
1
1
1
1
1
1
1
1
1
1
1
1
1
1
1
1
1
1
1
1
1
1
1
1
1
1
1
1
1
1
1
1
1
1
1
1
1
1
1
1
1
1
1
1
1
1
1
1
1
1
1
1
1
1
1
1
1
1
1
1
1
1
1
1
1
1
1
1
1
1
1
1
1
1
1
1
1
1
1
1.00008
1.00307
1.04252
1.2592
2.03478
3.25988
3.50873
3.62697
3.72349
3.74154
3.68106
3.66921
3.67628
3.63594
3.60906
3.60813
3.60441
3.57773
3.55349
3.53481
3.51301
3.50423
3.4989
3.49113
3.46826
3.44097
3.41409
3.39701
3.37841
3.35681
3.33385
3.30803
3.28904
3.28434
3.28956
3.29603
3.29075
1
1
1
1
1
1
1
1
1
1
1
1
1
1
1
1
1
1
1
1
1
1
1
1
1
1
1
1
1
1
1
1
1
1
1
1
1
1
1
1
1
1
1
1
1
1
1
1
1
1
1
1
1
1
1
1
1
1
1
1
1
1
1
1
1
1
1
1
1
1
1
1
1
1
1
1
1
1
1
1
1
1
1
1
1
1
1
1
1
1
1
1
1
1
1
1
1
1
1
1
1
1
1
1
1
1
1
1
1
1
1
1
1
1
1
1
1
1
1
1
1
1
1
1
1
1
1
1
1
1
1
1
1
1
1
1
1
1
1
1
1.00002
1.00066
1.01427
1.15442
1.91187
2.9458
3.3871
3.66648
3.75935
3.74257
3.72637
3.67808
3.63942
3.63342
3.63825
3.60709
3.57795
3.57457
3.56754
3.54066
3.5242
3.51548
3.497
3.46998
3.44425
3.42331
3.40633
3.38564
3.36433
3.34396
3.32792
3.32352
3.32721
3.33014
3.31959
3.30028
1
1
1
1
1
1
1
1
1
1
1
1
1
1
1
1
1
1
1
1
1
1
1
1
1
1
1
1
1
1
1
1
1
1
1
1
1
1
1
1
1
1
1
1
1
1
1
1
1
1
1
1
1
1
1
1
1
1
1
1
1
1
1
1
1
1
1
1
1
1
1
1
1
1
1
1
1
1
1
1
1
1
1
1
1
1
1
1
1
1
1
1
1
1
1
1
1
1
1
1
1
1
1
1
1
1
1
1
1
1
1
1
1
1
1
1
1
1
1
1
1
1
1
1
1
1
1
1
1
1
1
1
1
1
1
1
1
1
1
1
1
1
1.0002
1.00688
1.12161
1.76162
2.5551
3.26424
3.73228
3.75488
3.70967
3.6759
3.66491
3.67912
3.64081
3.60212
3.59657
3.60195
3.57829
3.55147
3.54055
3.52946
3.50131
3.4757
3.45281
3.43354
3.41514
3.39717
3.38182
3.36696
3.35984
3.35988
3.36039
3.34724
3.32587
3.3026
1
1
1
1
1
1
1
1
1
1
1
1
1
1
1
1
1
1
1
1
1
1
1
1
1
1
1
1
1
1
1
1
1
1
1
1
1
1
1
1
1
1
1
1
1
1
1
1
1
1
1
1
1
1
1
1
1
1
1
1
1
1
1
1
1
1
1
1
1
1
1
1
1
1
1
1
1
1
1
1
1
1
1
1
1
1
1
1
1
1
1
1
1
1
1
1
1
1
1
1
1
1
1
1
1
1
1
1
1
1
1
1
1
1
1
1
1
1
1
1
1
1
1
1
1
1
1
1
1
1
1
1
1
1
1
1
1
1
1
1
1
1
1
1.0001
1.00481
1.08641
1.43217
2.11486
3.29732
3.6451
3.64796
3.66399
3.69653
3.69591
3.63645
3.62619
3.63573
3.6071
3.57735
3.56764
3.5652
3.539
3.50806
3.48581
3.46605
3.44659
3.43186
3.42081
3.4095
3.39725
3.38853
3.38356
3.37219
3.35242
3.32836
3.30472
1
1
1
1
1
1
1
1
1
1
1
1
1
1
1
1
1
1
1
1
1
1
1
1
1
1
1
1
1
1
1
1
1
1
1
1
1
1
1
1
1
1
1
1
1
1
1
1
1
1
1
1
1
1
1
1
1
1
1
1
1
1
1
1
1
1
1
1
1
1
1
1
1
1
1
1
1
1
1
1
1
1
1
1
1
1
1
1
1
1
1
1
1
1
1
1
1
1
1
1
1
1
1
1
1
1
1
1
1
1
1
1
1
1
1
1
1
1
1
1
1
1
1
1
1
1
1
1
1
1
1
1
1
1
1
1
1
1
1
1
1
1
1
1
1.00005
1.00206
1.0296
1.19499
1.9769
3.07468
3.42502
3.62334
3.73259
3.70649
3.68074
3.66421
3.62175
3.59823
3.59288
3.59906
3.57231
3.53862
3.51991
3.50599
3.48645
3.46936
3.45971
3.45247
3.43817
3.4239
3.40564
3.39256
3.37734
3.35496
3.33106
3.30736
1
1
1
1
1
1
1
1
1
1
1
1
1
1
1
1
1
1
1
1
1
1
1
1
1
1
1
1
1
1
1
1
1
1
1
1
1
1
1
1
1
1
1
1
1
1
1
1
1
1
1
1
1
1
1
1
1
1
1
1
1
1
1
1
1
1
1
1
1
1
1
1
1
1
1
1
1
1
1
1
1
1
1
1
1
1
1
1
1
1
1
1
1
1
1
1
1
1
1
1
1
1
1
1
1
1
1
1
1
1
1
1
1
1
1
1
1
1
1
1
1
1
1
1
1
1
1
1
1
1
1
1
1
1
1
1
1
1
1
1
1
1
1
1
1
1.00001
1.00041
1.00938
1.13157
1.84151
2.69666
3.29942
3.67541
3.71243
3.67867
3.64021
3.62911
3.61899
3.62082
3.59598
3.56436
3.55267
3.54911
3.53052
3.5131
3.50502
3.49908
3.47907
3.46076
3.43613
3.41325
3.39931
3.38127
3.35766
3.33441
3.31275
1
1
1
1
1
1
1
1
1
1
1
1
1
1
1
1
1
1
1
1
1
1
1
1
1
1
1
1
1
1
1
1
1
1
1
1
1
1
1
1
1
1
1
1
1
1
1
1
1
1
1
1
1
1
1
1
1
1
1
1
1
1
1
1
1
1
1
1
1
1
1
1
1
1
1
1
1
1
1
1
1
1
1
1
1
1
1
1
1
1
1
1
1
1
1
1
1
1
1
1
1
1
1
1
1
1
1
1
1
1
1
1
1
1
1
1
1
1
1
1
1
1
1
1
1
1
1
1
1
1
1
1
1
1
1
1
1
1
1
1
1
1
1
1
1
1
1
1.00013
1.00528
1.10747
1.55879
2.23238
3.26184
3.63774
3.63433
3.64988
3.64354
3.63603
3.61872
3.59771
3.59512
3.60182
3.57635
3.55594
3.54948
3.5413
3.5154
3.48898
3.46777
3.44315
3.4203
3.40584
3.38595
3.36326
3.34402
3.32431
1
1
1
1
1
1
1
1
1
1
1
1
1
1
1
1
1
1
1
1
1
1
1
1
1
1
1
1
1
1
1
1
1
1
1
1
1
1
1
1
1
1
1
1
1
1
1
1
1
1
1
1
1
1
1
1
1
1
1
1
1
1
1
1
1
1
1
1
1
1
1
1
1
1
1
1
1
1
1
1
1
1
1
1
1
1
1
1
1
1
1
1
1
1
1
1
1
1
1
1
1
1
1
1
1
1
1
1
1
1
1
1
1
1
1
1
1
1
1
1
1
1
1
1
1
1
1
1
1
1
1
1
1
1
1
1
1
1
1
1
1
1
1
1
1
1
1
1
1.00007
1.00331
1.04847
1.2451
2.01857
3.13321
3.44527
3.59666
3.68608
3.6866
3.6584
3.66382
3.65609
3.62193
3.59264
3.58055
3.57346
3.54321
3.5156
3.49672
3.48007
3.45333
3.43144
3.4174
3.39587
3.3771
3.36155
3.34533
1
1
1
1
1
1
1
1
1
1
1
1
1
1
1
1
1
1
1
1
1
1
1
1
1
1
1
1
1
1
1
1
1
1
1
1
1
1
1
1
1
1
1
1
1
1
1
1
1
1
1
1
1
1
1
1
1
1
1
1
1
1
1
1
1
1
1
1
1
1
1
1
1
1
1
1
1
1
1
1
1
1
1
1
1
1
1
1
1
1
1
1
1
1
1
1
1
1
1
1
1
1
1
1
1
1
1
1
1
1
1
1
1
1
1
1
1
1
1
1
1
1
1
1
1
1
1
1
1
1
1
1
1
1
1
1
1
1
1
1
1
1
1
1
1
1
1
1
1
1.00002
1.00081
1.01315
1.14843
1.92184
2.79928
3.31446
3.65576
3.714
3.70321
3.66689
3.64105
3.60771
3.59631
3.60211
3.56351
3.53804
3.52506
3.51401
3.4915
3.46666
3.45435
3.43555
3.41353
3.39902
3.38348
3.37682
1
1
1
1
1
1
1
1
1
1
1
1
1
1
1
1
1
1
1
1
1
1
1
1
1
1
1
1
1
1
1
1
1
1
1
1
1
1
1
1
1
1
1
1
1
1
1
1
1
1
1
1
1
1
1
1
1
1
1
1
1
1
1
1
1
1
1
1
1
1
1
1
1
1
1
1
1
1
1
1
1
1
1
1
1
1
1
1
1
1
1
1
1
1
1
1
1
1
1
1
1
1
1
1
1
1
1
1
1
1
1
1
1
1
1
1
1
1
1
1
1
1
1
1
1
1
1
1
1
1
1
1
1
1
1
1
1
1
1
1
1
1
1
1
1
1
1
1
1
1
1
1.00019
1.00643
1.13458
1.68891
2.34132
3.26202
3.65322
3.67066
3.65212
3.61966
3.60244
3.61932
3.58678
3.56749
3.55838
3.54256
3.52218
3.50905
3.50291
3.48341
3.45425
3.43774
3.42252
3.40677
3.39795
1
1
1
1
1
1
1
1
1
1
1
1
1
1
1
1
1
1
1
1
1
1
1
1
1
1
1
1
1
1
1
1
1
1
1
1
1
1
1
1
1
1
1
1
1
1
1
1
1
1
1
1
1
1
1
1
1
1
1
1
1
1
1
1
1
1
1
1
1
1
1
1
1
1
1
1
1
1
1
1
1
1
1
1
1
1
1
1
1
1
1
1
1
1
1
1
1
1
1
1
1
1
1
1
1
1
1
1
1
1
1
1
1
1
1
1
1
1
1
1
1
1
1
1
1
1
1
1
1
1
1
1
1
1
1
1
1
1
1
1
1
1
1
1
1
1
1
1
1
1
1
1
1.0001
1.00528
1.07575
1.30221
2.06435
3.20264
3.48458
3.59794
3.64086
3.66082
3.63861
3.62864
3.61655
3.59026
3.55537
3.53525
3.5331
3.51969
3.48996
3.47727
3.47166
3.44405
3.42474
3.41011
1
1
1
1
1
1
1
1
1
1
1
1
1
1
1
1
1
1
1
1
1
1
1
1
1
1
1
1
1
1
1
1
1
1
1
1
1
1
1
1
1
1
1
1
1
1
1
1
1
1
1
1
1
1
1
1
1
1
1
1
1
1
1
1
1
1
1
1
1
1
1
1
1
1
1
1
1
1
1
1
1
1
1
1
1
1
1
1
1
1
1
1
1
1
1
1
1
1
1
1
1
1
1
1
1
1
1
1
1
1
1
1
1
1
1
1
1
1
1
1
1
1
1
1
1
1
1
1
1
1
1
1
1
1
1
1
1
1
1
1
1
1
1
1
1
1
1
1
1
1
1
1
1
1.00005
1.00157
1.01756
1.16643
1.99449
2.86341
3.33833
3.64001
3.69098
3.68814
3.64845
3.62121
3.5831
3.55282
3.54597
3.53665
3.51437
3.50576
3.50418
3.48255
3.4573
3.44213
3.41959
1
1
1
1
1
1
1
1
1
1
1
1
1
1
1
1
1
1
1
1
1
1
1
1
1
1
1
1
1
1
1
1
1
1
1
1
1
1
1
1
1
1
1
1
1
1
1
1
1
1
1
1
1
1
1
1
1
1
1
1
1
1
1
1
1
1
1
1
1
1
1
1
1
1
1
1
1
1
1
1
1
1
1
1
1
1
1
1
1
1
1
1
1
1
1
1
1
1
1
1
1
1
1
1
1
1
1
1
1
1
1
1
1
1
1
1
1
1
1
1
1
1
1
1
1
1
1
1
1
1
1
1
1
1
1
1
1
1
1
1
1
1
1
1
1
1
1
1
1
1
1
1
1
1
1.00001
1.00025
1.00781
1.1529
1.76399
2.42609
3.27488
3.63998
3.65667
3.63819
3.60178
3.56912
3.55746
3.55024
3.53991
3.53543
3.53026
3.50916
3.49347
3.48098
3.45739
3.4277
1
1
1
1
1
1
1
1
1
1
1
1
1
1
1
1
1
1
1
1
1
1
1
1
1
1
1
1
1
1
1
1
1
1
1
1
1
1
1
1
1
1
1
1
1
1
1
1
1
1
1
1
1
1
1
1
1
1
1
1
1
1
1
1
1
1
1
1
1
1
1
1
1
1
1
1
1
1
1
1
1
1
1
1
1
1
1
1
1
1
1
1
1
1
1
1
1
1
1
1
1
1
1
1
1
1
1
1
1
1
1
1
1
1
1
1
1
1
1
1
1
1
1
1
1
1
1
1
1
1
1
1
1
1
1
1
1
1
1
1
1
1
1
1
1
1
1
1
1
1
1
1
1
1
1
1
1.00013
1.00656
1.0945
1.35661
2.11502
3.23909
3.4775
3.58702
3.61401
3.59714
3.58792
3.60025
3.59834
3.57464
3.53909
3.51451
3.5095
3.4918
3.46448
3.44886
1
1
1
1
1
1
1
1
1
1
1
1
1
1
1
1
1
1
1
1
1
1
1
1
1
1
1
1
1
1
1
1
1
1
1
1
1
1
1
1
1
1
1
1
1
1
1
1
1
1
1
1
1
1
1
1
1
1
1
1
1
1
1
1
1
1
1
1
1
1
1
1
1
1
1
1
1
1
1
1
1
1
1
1
1
1
1
1
1
1
1
1
1
1
1
1
1
1
1
1
1
1
1
1
1
1
1
1
1
1
1
1
1
1
1
1
1
1
1
1
1
1
1
1
1
1
1
1
1
1
1
1
1
1
1
1
1
1
1
1
1
1
1
1
1
1
1
1
1
1
1
1
1
1
1
1
1
1.00007
1.00227
1.02316
1.18532
2.0384
2.90198
3.34165
3.60814
3.66829
3.67281
3.64468
3.60202
3.56819
3.53488
3.52276
3.5124
3.49283
3.48146
3.46305
1
1
1
1
1
1
1
1
1
1
1
1
1
1
1
1
1
1
1
1
1
1
1
1
1
1
1
1
1
1
1
1
1
1
1
1
1
1
1
1
1
1
1
1
1
1
1
1
1
1
1
1
1
1
1
1
1
1
1
1
1
1
1
1
1
1
1
1
1
1
1
1
1
1
1
1
1
1
1
1
1
1
1
1
1
1
1
1
1
1
1
1
1
1
1
1
1
1
1
1
1
1
1
1
1
1
1
1
1
1
1
1
1
1
1
1
1
1
1
1
1
1
1
1
1
1
1
1
1
1
1
1
1
1
1
1
1
1
1
1
1
1
1
1
1
1
1
1
1
1
1
1
1
1
1
1
1
1
1.00001
1.00035
1.00911
1.16485
1.83667
2.50441
3.24307
3.62335
3.65591
3.62794
3.58051
3.53427
3.51985
3.52311
3.51994
3.51238
3.49516
3.46609
1
1
1
1
1
1
1
1
1
1
1
1
1
1
1
1
1
1
1
1
1
1
1
1
1
1
1
1
1
1
1
1
1
1
1
1
1
1
1
1
1
1
1
1
1
1
1
1
1
1
1
1
1
1
1
1
1
1
1
1
1
1
1
1
1
1
1
1
1
1
1
1
1
1
1
1
1
1
1
1
1
1
1
1
1
1
1
1
1
1
1
1
1
1
1
1
1
1
1
1
1
1
1
1
1
1
1
1
1
1
1
1
1
1
1
1
1
1
1
1
1
1
1
1
1
1
1
1
1
1
1
1
1
1
1
1
1
1
1
1
1
1
1
1
1
1
1
1
1
1
1
1
1
1
1
1
1
1
1
1
1.00016
1.00776
1.11688
1.41943
2.12612
3.26488
3.49701
3.57447
3.58196
3.55298
3.53824
3.55413
3.56941
3.55866
3.50618
3.47894
1
1
1
1
1
1
1
1
1
1
1
1
1
1
1
1
1
1
1
1
1
1
1
1
1
1
1
1
1
1
1
1
1
1
1
1
1
1
1
1
1
1
1
1
1
1
1
1
1
1
1
1
1
1
1
1
1
1
1
1
1
1
1
1
1
1
1
1
1
1
1
1
1
1
1
1
1
1
1
1
1
1
1
1
1
1
1
1
1
1
1
1
1
1
1
1
1
1
1
1
1
1
1
1
1
1
1
1
1
1
1
1
1
1
1
1
1
1
1
1
1
1
1
1
1
1
1
1
1
1
1
1
1
1
1
1
1
1
1
1
1
1
1
1
1
1
1
1
1
1
1
1
1
1
1
1
1
1
1
1
1
1.0001
1.00328
1.03051
1.20025
2.05998
2.95477
3.33671
3.56778
3.6321
3.62394
3.62779
3.59683
3.5513
3.50568
3.49423
1
1
1
1
1
1
1
1
1
1
1
1
1
1
1
1
1
1
1
1
1
1
1
1
1
1
1
1
1
1
1
1
1
1
1
1
1
1
1
1
1
1
1
1
1
1
1
1
1
1
1
1
1
1
1
1
1
1
1
1
1
1
1
1
1
1
1
1
1
1
1
1
1
1
1
1
1
1
1
1
1
1
1
1
1
1
1
1
1
1
1
1
1
1
1
1
1
1
1
1
1
1
1
1
1
1
1
1
1
1
1
1
1
1
1
1
1
1
1
1
1
1
1
1
1
1
1
1
1
1
1
1
1
1
1
1
1
1
1
1
1
1
1
1
1
1
1
1
1
1
1
1
1
1
1
1
1
1
1
1
1
1
1.00001
1.00048
1.01057
1.16563
1.88506
2.59439
3.20317
3.58776
3.64465
3.6121
3.56389
3.51882
3.49661
3.4871
1
1
1
1
1
1
1
1
1
1
1
1
1
1
1
1
1
1
1
1
1
1
1
1
1
1
1
1
1
1
1
1
1
1
1
1
1
1
1
1
1
1
1
1
1
1
1
1
1
1
1
1
1
1
1
1
1
1
1
1
1
1
1
1
1
1
1
1
1
1
1
1
1
1
1
1
1
1
1
1
1
1
1
1
1
1
1
1
1
1
1
1
1
1
1
1
1
1
1
1
1
1
1
1
1
1
1
1
1
1
1
1
1
1
1
1
1
1
1
1
1
1
1
1
1
1
1
1
1
1
1
1
1
1
1
1
1
1
1
1
1
1
1
1
1
1
1
1
1
1
1
1
1
1
1
1
1
1
1
1
1
1
1
1
1.00018
1.00802
1.13258
1.50548
2.12798
3.22761
3.53162
3.54584
3.55916
3.5307
3.48668
3.50338
1
1
1
1
1
1
1
1
1
1
1
1
1
1
1
1
1
1
1
1
1
1
1
1
1
1
1
1
1
1
1
1
1
1
1
1
1
1
1
1
1
1
1
1
1
1
1
1
1
1
1
1
1
1
1
1
1
1
1
1
1
1
1
1
1
1
1
1
1
1
1
1
1
1
1
1
1
1
1
1
1
1
1
1
1
1
1
1
1
1
1
1
1
1
1
1
1
1
1
1
1
1
1
1
1
1
1
1
1
1
1
1
1
1
1
1
1
1
1
1
1
1
1
1
1
1
1
1
1
1
1
1
1
1
1
1
1
1
1
1
1
1
1
1
1
1
1
1
1
1
1
1
1
1
1
1
1
1
1
1
1
1
1
1
1
1.00012
1.00431
1.04136
1.21311
2.02039
3.01409
3.33021
3.51387
3.58912
3.56421
3.56716
1
1
1
1
1
1
1
1
1
1
1
1
1
1
1
1
1
1
1
1
1
1
1
1
1
1
1
1
1
1
1
1
1
1
1
1
1
1
1
1
1
1
1
1
1
1
1
1
1
1
1
1
1
1
1
1
1
1
1
1
1
1
1
1
1
1
1
1
1
1
1
1
1
1
1
1
1
1
1
1
1
1
1
1
1
1
1
1
1
1
1
1
1
1
1
1
1
1
1
1
1
1
1
1
1
1
1
1
1
1
1
1
1
1
1
1
1
1
1
1
1
1
1
1
1
1
1
1
1
1
1
1
1
1
1
1
1
1
1
1
1
1
1
1
1
1
1
1
1
1
1
1
1
1
1
1
1
1
1
1
1
1
1
1
1
1
1.00002
1.00066
1.01171
1.15016
1.87788
2.68315
3.18702
3.53402
3.62317
3.61329
1
1
1
1
1
1
1
1
1
1
1
1
1
1
1
1
1
1
1
1
1
1
1
1
1
1
1
1
1
1
1
1
1
1
1
1
1
1
1
1
1
1
1
1
1
1
1
1
1
1
1
1
1
1
1
1
1
1
1
1
1
1
1
1
1
1
1
1
1
1
1
1
1
1
1
1
1
1
1
1
1
1
1
1
1
1
1
1
1
1
1
1
1
1
1
1
1
1
1
1
1
1
1
1
1
1
1
1
1
1
1
1
1
1
1
1
1
1
1
1
1
1
1
1
1
1
1
1
1
1
1
1
1
1
1
1
1
1
1
1
1
1
1
1
1
1
1
1
1
1
1
1
1
1
1
1
1
1
1
1
1
1
1
1
1
1
1
1
1.00019
1.00692
1.13044
1.61614
2.19856
3.11723
3.56197
3.56593
1
1
1
1
1
1
1
1
1
1
1
1
1
1
1
1
1
1
1
1
1
1
1
1
1
1
1
1
1
1
1
1
1
1
1
1
1
1
1
1
1
1
1
1
1
1
1
1
1
1
1
1
1
1
1
1
1
1
1
1
1
1
1
1
1
1
1
1
1
1
1
1
1
1
1
1
1
1
1
1
1
1
1
1
1
1
1
1
1
1
1
1
1
1
1
1
1
1
1
1
1
1
1
1
1
1
1
1
1
1
1
1
1
1
1
1
1
1
1
1
1
1
1
1
1
1
1
1
1
1
1
1
1
1
1
1
1
1
1
1
1
1
1
1
1
1
1
1
1
1
1
1
1
1
1
1
1
1
1
1
1
1
1
1
1
1
1
1
1
1.00011
1.00505
1.0606
1.25299
1.93362
3.07231
3.3415
1
1
1
1
1
1
1
1
1
1
1
1
1
1
1
1
1
1
1
1
1
1
1
1
1
1
1
1
1
1
1
1
1
1
1
1
1
1
1
1
1
1
1
1
1
1
1
1
1
1
1
1
1
1
1
1
1
1
1
1
1
1
1
1
1
1
1
1
1
1
1
1
1
1
1
1
1
1
1
1
1
1
1
1
1
1
1
1
1
1
1
1
1
1
1
1
1
1
1
1
1
1
1
1
1
1
1
1
1
1
1
1
1
1
1
1
1
1
1
1
1
1
1
1
1
1
1
1
1
1
1
1
1
1
1
1
1
1
1
1
1
1
1
1
1
1
1
1
1
1
1
1
1
1
1
1
1
1
1
1
1
1
1
1
1
1
1
1
1
1
1.00004
1.00108
1.01415
1.1362
1.83061
2.74116
1
1
1
1
1
1
1
1
1
1
1
1
1
1
1
1
1
1
1
1
1
1
1
1
1
1
1
1
1
1
1
1
1
1
1
1
1
1
1
1
1
1
1
1
1
1
1
1
1
1
1
1
1
1
1
1
1
1
1
1
1
1
1
1
1
1
1
1
1
1
1
1
1
1
1
1
1
1
1
1
1
1
1
1
1
1
1
1
1
1
1
1
1
1
1
1
1
1
1
1
1
1
1
1
1
1
1
1
1
1
1
1
1
1
1
1
1
1
1
1
1
1
1
1
1
1
1
1
1
1
1
1
1
1
1
1
1
1
1
1
1
1
1
1
1
1
1
1
1
1
1
1
1
1
1
1
1
1
1
1
1
1
1
1
1
1
1
1
1
1
1
1
1.0002
1.00601
1.10894
1.66664
1
1
1
1
1
1
1
1
1
1
1
1
1
1
1
1
1
1
1
1
1
1
1
1
1
1
1
1
1
1
1
1
1
1
1
1
1
1
1
1
1
1
1
1
1
1
1
1
1
1
1
1
1
1
1
1
1
1
1
1
1
1
1
1
1
1
1
1
1
1
1
1
1
1
1
1
1
1
1
1
1
1
1
1
1
1
1
1
1
1
1
1
1
1
1
1
1
1
1
1
1
1
1
1
1
1
1
1
1
1
1
1
1
1
1
1
1
1
1
1
1
1
1
1
1
1
1
1
1
1
1
1
1
1
1
1
1
1
1
1
1
1
1
1
1
1
1
1
1
1
1
1
1