/*--------------------------------*- C++ -*----------------------------------*\
  =========                 |
  \\      /  F ield         | OpenFOAM: The Open Source CFD Toolbox
   \\    /   O peration     | Website:  https://openfoam.org
    \\  /    A nd           | Version:  7
     \\/     M anipulation  |
\*---------------------------------------------------------------------------*/
FoamFile
{
    version     2.0;
    format      ascii;
    class       volScalarField;
    location    "2.9";
    object      rho;
}
// * * * * * * * * * * * * * * * * * * * * * * * * * * * * * * * * * * * * * //

dimensions      [1 -3 0 0 0 0 0];

internalField   nonuniform List<scalar> 
16512
(
2.71426
2.6994
2.69174
2.68701
2.68339
2.68065
2.67702
2.67255
2.66724
2.66057
2.65005
2.63235
2.61148
2.59687
2.5877
2.58102
2.57667
2.57375
2.57272
2.56906
2.56308
2.55612
2.54773
2.53843
2.52987
2.52451
2.52025
2.51495
2.50594
2.49184
2.47725
2.46818
2.46245
2.45686
2.4503
2.44213
2.43146
2.42051
2.41327
2.40956
2.40652
2.40332
2.39951
2.39465
2.38822
2.37951
2.36854
2.35705
2.34613
2.33421
2.31982
2.3105
2.30691
2.30432
2.30205
2.29992
2.29726
2.29429
2.29152
2.28891
2.2857
2.28038
2.26643
2.24087
2.22247
2.21473
2.21025
2.20701
2.20412
2.20052
2.19592
2.19144
2.18747
2.18192
2.16996
2.15074
2.13912
2.13579
2.13346
2.13098
2.12855
2.12741
2.12795
2.12643
2.12371
2.12059
2.11648
2.11067
2.09992
2.07838
2.05856
2.05164
2.04859
2.04619
2.04423
2.04364
2.04228
2.03965
2.03698
2.03377
2.02939
2.02476
2.01849
2.00355
1.97905
1.96435
1.95889
1.95589
1.95346
1.95207
1.95176
1.95018
1.94821
1.94679
1.94489
1.94251
1.93975
1.93688
1.93397
1.92823
1.91474
1.89917
1.89053
1.88638
1.88387
1.88211
1.88037
1.87824
1.87566
1.87264
1.86917
1.86468
1.85577
1.83745
1.81858
1.81139
1.80873
1.80667
1.80492
1.80341
1.80262
1.80459
1.80895
1.80844
1.80633
1.8043
1.80196
1.7982
1.7892
1.77044
1.75143
1.74335
1.74056
1.73837
1.73633
1.73464
1.73381
1.73256
1.73057
1.72811
1.72414
1.71601
1.70578
1.701
1.69839
1.69528
1.69257
1.69014
1.68785
1.68576
1.68404
1.6822
1.6779
1.66747
1.65132
1.63867
1.6351
1.63387
1.63297
1.63283
1.63286
1.63123
1.62927
1.62732
1.62504
1.62211
1.61598
1.60557
1.59869
1.59693
1.59575
1.59394
1.59149
1.58787
1.58296
1.57907
1.57683
1.5746
1.57048
1.5625
1.55315
1.54888
1.54757
1.54642
1.54544
1.54475
1.5435
1.5419
1.54009
1.53813
1.53534
1.52919
1.51537
1.4975
1.49085
1.48947
1.48853
1.48789
1.48805
1.4879
1.48629
1.48463
1.48314
1.48144
1.47937
1.47704
1.4744
1.47059
1.46236
1.4521
1.44764
1.44566
1.44373
1.44165
1.43969
1.43809
1.4366
1.43492
1.43259
1.42829
1.41993
1.41001
1.40602
1.40502
1.40419
1.40324
1.40219
1.40105
1.39937
1.39721
1.39508
1.39317
1.39108
1.38819
1.38324
1.37628
1.37189
1.36806
2.71641
2.71075
2.70501
2.69919
2.69488
2.69118
2.68734
2.68331
2.67854
2.67011
2.65599
2.63709
2.62035
2.60967
2.60206
2.59545
2.58893
2.58234
2.57561
2.5682
2.56003
2.55167
2.54378
2.53859
2.53496
2.53146
2.52756
2.52313
2.51724
2.50785
2.49391
2.47821
2.46542
2.4561
2.44868
2.4415
2.43261
2.42267
2.41634
2.41219
2.40875
2.40621
2.4036
2.40005
2.39588
2.38995
2.38128
2.36919
2.35373
2.3368
2.32192
2.31302
2.30898
2.30607
2.30309
2.30017
2.29794
2.29853
2.29945
2.29706
2.29371
2.28805
2.27634
2.25533
2.23162
2.2196
2.21528
2.2126
2.20957
2.20541
2.19982
2.19433
2.19024
2.18654
2.18106
2.16903
2.15038
2.13894
2.13449
2.1316
2.12895
2.12732
2.12743
2.12568
2.12271
2.11993
2.11748
2.1152
2.10976
2.09712
2.07665
2.05943
2.05123
2.04719
2.04487
2.04365
2.04231
2.03951
2.03717
2.03587
2.03417
2.03177
2.0276
2.01833
2.00087
1.97695
1.96217
1.95736
1.95496
1.95357
1.95361
1.95322
1.95178
1.95065
1.94963
1.94795
1.94588
1.9437
1.94098
1.93612
1.92587
1.90951
1.89497
1.88819
1.88455
1.88233
1.88054
1.87849
1.87605
1.87363
1.87169
1.86913
1.86316
1.84757
1.82314
1.81092
1.80865
1.80709
1.80554
1.80417
1.80288
1.80203
1.80301
1.80825
1.81082
1.80985
1.80773
1.80419
1.79617
1.77762
1.75552
1.74755
1.74506
1.74326
1.74208
1.74185
1.74113
1.73925
1.73699
1.73416
1.72965
1.72072
1.70794
1.70076
1.69923
1.6982
1.69628
1.69473
1.6935
1.6923
1.69097
1.689
1.68491
1.67601
1.65981
1.64218
1.63623
1.63469
1.63372
1.63345
1.63325
1.63158
1.62981
1.62816
1.6265
1.62451
1.62106
1.61346
1.60214
1.59439
1.59141
1.58962
1.58758
1.58507
1.58189
1.5789
1.5775
1.57643
1.5743
1.56839
1.55722
1.5496
1.54739
1.54621
1.54508
1.54423
1.54328
1.54198
1.54048
1.53848
1.53561
1.53123
1.52249
1.50702
1.4954
1.49302
1.49205
1.49087
1.48936
1.48778
1.48625
1.48501
1.48357
1.48178
1.47965
1.47738
1.47518
1.47271
1.46786
1.45746
1.44781
1.44405
1.44202
1.43999
1.43805
1.43628
1.43451
1.43267
1.43066
1.42823
1.42421
1.41683
1.41075
1.40881
1.40769
1.40647
1.40499
1.40302
1.40031
1.39741
1.3951
1.39331
1.3918
1.39033
1.38746
1.38034
1.37247
1.3666
2.72633
2.7214
2.71742
2.71381
2.70972
2.70455
2.69812
2.69039
2.68007
2.66651
2.65215
2.64
2.6313
2.6228
2.614
2.60646
2.59973
2.59194
2.58194
2.57123
2.56144
2.55337
2.54778
2.54341
2.53958
2.5364
2.53287
2.52908
2.52458
2.51737
2.50525
2.4886
2.47194
2.45938
2.44994
2.44168
2.43433
2.42897
2.42458
2.41956
2.41484
2.41128
2.40779
2.40457
2.40141
2.3976
2.39186
2.38093
2.36171
2.33969
2.32443
2.31615
2.31132
2.30803
2.3054
2.30385
2.30376
2.30213
2.29866
2.29496
2.29087
2.28513
2.2777
2.2674
2.25137
2.23215
2.21894
2.21193
2.20782
2.20506
2.2028
2.19985
2.19656
2.19293
2.18801
2.17937
2.16421
2.14644
2.13743
2.13396
2.13157
2.1294
2.12736
2.12525
2.12233
2.11891
2.11529
2.11153
2.10799
2.10326
2.09223
2.07437
2.06034
2.0536
2.04961
2.04597
2.04253
2.0391
2.03538
2.03164
2.02899
2.02649
2.02328
2.01979
2.01336
1.99927
1.97701
1.96187
1.95686
1.95483
1.95253
1.94911
1.94655
1.94485
1.94369
1.94285
1.94128
1.93896
1.93606
1.93281
1.92929
1.9217
1.90803
1.89558
1.89
1.88752
1.88573
1.88409
1.88227
1.8805
1.87842
1.87519
1.86873
1.856
1.83387
1.81436
1.80848
1.80659
1.80479
1.80283
1.80097
1.80032
1.80334
1.80785
1.80778
1.8067
1.80526
1.80243
1.79769
1.78753
1.76612
1.74938
1.74561
1.74404
1.74277
1.74132
1.73951
1.73747
1.7351
1.73206
1.72793
1.72218
1.71424
1.70654
1.70035
1.69549
1.6931
1.69166
1.69032
1.68894
1.68733
1.68501
1.68179
1.67783
1.66964
1.65412
1.64186
1.63928
1.6383
1.63763
1.63743
1.6361
1.63442
1.63318
1.63175
1.62985
1.62653
1.61912
1.60653
1.59567
1.59105
1.58872
1.58647
1.58336
1.58075
1.57943
1.57822
1.5766
1.57441
1.57116
1.56475
1.55494
1.5491
1.54733
1.54624
1.54545
1.54447
1.54316
1.54162
1.53953
1.53663
1.53293
1.52779
1.51749
1.50133
1.49171
1.48959
1.48858
1.48756
1.48674
1.48756
1.48874
1.48747
1.48556
1.48367
1.48183
1.48005
1.47783
1.47338
1.46334
1.45077
1.44491
1.4426
1.44071
1.43877
1.43682
1.43483
1.43296
1.43138
1.43018
1.42848
1.42354
1.41393
1.40741
1.40534
1.40414
1.40301
1.40215
1.40175
1.40031
1.39872
1.39758
1.39653
1.39511
1.39209
1.38473
1.37521
1.36748
2.73984
2.73526
2.73056
2.72578
2.72093
2.71574
2.70905
2.69886
2.68454
2.6675
2.6536
2.64723
2.64216
2.63623
2.62861
2.61905
2.60774
2.59542
2.58286
2.5707
2.56275
2.55871
2.55549
2.55208
2.54817
2.5436
2.53865
2.53392
2.52887
2.52221
2.51152
2.49625
2.47987
2.46526
2.45321
2.4439
2.43737
2.43301
2.42965
2.42608
2.42186
2.41822
2.41527
2.41234
2.40893
2.40528
2.3997
2.38752
2.36588
2.34387
2.33171
2.32395
2.31679
2.31179
2.30895
2.30723
2.30659
2.30477
2.30218
2.29927
2.29501
2.28879
2.28144
2.27314
2.26229
2.24755
2.22971
2.21768
2.21207
2.20847
2.20505
2.2014
2.1975
2.1933
2.18873
2.18397
2.17672
2.16221
2.14468
2.13615
2.13252
2.12981
2.12709
2.12455
2.12198
2.11909
2.11598
2.11292
2.1099
2.10675
2.1022
2.09101
2.07099
2.05443
2.04712
2.04392
2.04097
2.03806
2.03504
2.03107
2.02768
2.02578
2.02374
2.02168
2.01944
2.01377
1.9979
1.97276
1.9589
1.95486
1.95244
1.94968
1.94663
1.94401
1.94229
1.94145
1.94059
1.93874
1.93636
1.93378
1.93122
1.92825
1.92125
1.90656
1.89334
1.88651
1.8829
1.88079
1.879
1.87725
1.87519
1.87243
1.86863
1.86125
1.84415
1.82042
1.80913
1.80616
1.80424
1.80245
1.80078
1.80023
1.80535
1.80994
1.8088
1.80694
1.80592
1.8045
1.80178
1.79444
1.77741
1.75555
1.74764
1.74598
1.74461
1.74254
1.74018
1.738
1.73578
1.7331
1.7297
1.72589
1.72091
1.71291
1.70304
1.6962
1.69346
1.69184
1.69042
1.68906
1.68747
1.68522
1.68265
1.68006
1.67594
1.66645
1.64978
1.6389
1.63635
1.63542
1.63454
1.63308
1.63142
1.63011
1.62861
1.62675
1.62413
1.62006
1.6127
1.60153
1.59223
1.58787
1.58496
1.58244
1.58064
1.57923
1.57795
1.57668
1.5753
1.5734
1.56957
1.56153
1.5537
1.5513
1.55024
1.54931
1.54821
1.54685
1.54527
1.54332
1.54103
1.53835
1.534
1.525
1.50869
1.49379
1.48962
1.48849
1.48757
1.48676
1.48638
1.48651
1.48522
1.48335
1.48152
1.47965
1.47769
1.47549
1.47276
1.46784
1.4582
1.44984
1.44678
1.44496
1.44305
1.44099
1.43905
1.43776
1.43681
1.43576
1.43397
1.42902
1.41834
1.40888
1.40574
1.4046
1.40384
1.40286
1.40074
1.39825
1.3966
1.39546
1.39428
1.39284
1.39064
1.38682
1.38071
1.37241
2.74638
2.74457
2.74175
2.73707
2.73066
2.72175
2.70973
2.69574
2.68231
2.67088
2.66534
2.66043
2.65447
2.64758
2.63938
2.62908
2.61478
2.59821
2.5848
2.57686
2.57114
2.56577
2.56157
2.55848
2.55546
2.55146
2.54617
2.53985
2.53284
2.5242
2.51347
2.50151
2.48812
2.47359
2.46052
2.45095
2.44354
2.43648
2.43056
2.42675
2.42387
2.42269
2.42146
2.41852
2.41476
2.40933
2.40263
2.39102
2.3725
2.35482
2.34236
2.33381
2.32717
2.32051
2.3149
2.31163
2.30891
2.3055
2.3011
2.29508
2.28804
2.28183
2.27592
2.27026
2.2654
2.25859
2.24621
2.22975
2.21845
2.21148
2.20678
2.20401
2.20119
2.19781
2.19398
2.18969
2.18388
2.1736
2.1566
2.14246
2.13776
2.13501
2.1322
2.12948
2.12708
2.12491
2.12266
2.12006
2.11738
2.11439
2.10981
2.10039
2.08251
2.06093
2.04922
2.0439
2.0402
2.03662
2.03289
2.02999
2.02811
2.0268
2.0263
2.02517
2.02297
2.01973
2.01128
1.99081
1.96873
1.9593
1.95419
1.94907
1.9453
1.94268
1.94079
1.94051
1.94388
1.94418
1.94258
1.94092
1.93892
1.93605
1.92991
1.91759
1.90199
1.89035
1.88462
1.88132
1.87919
1.87748
1.8755
1.8729
1.8692
1.86269
1.85046
1.83008
1.81267
1.80716
1.8055
1.80439
1.80342
1.80289
1.80543
1.81071
1.8102
1.80788
1.80557
1.80331
1.79975
1.7943
1.78471
1.76811
1.75302
1.74818
1.74626
1.74401
1.74085
1.7384
1.73666
1.73509
1.73354
1.73153
1.72732
1.71808
1.70635
1.7005
1.6978
1.69585
1.69451
1.69348
1.69213
1.69042
1.68856
1.6862
1.68209
1.67344
1.65843
1.64258
1.63705
1.63558
1.63438
1.63273
1.63107
1.62965
1.62822
1.62667
1.62484
1.62219
1.61662
1.6055
1.59395
1.58896
1.58629
1.5839
1.58211
1.58062
1.57951
1.57868
1.57757
1.57613
1.57383
1.56826
1.55787
1.54963
1.54669
1.54547
1.54448
1.54334
1.54184
1.53989
1.5377
1.53526
1.53219
1.52744
1.51761
1.50192
1.49178
1.48937
1.48832
1.48733
1.48666
1.48656
1.48551
1.48368
1.48188
1.48006
1.4781
1.47609
1.47421
1.47161
1.46485
1.45335
1.44612
1.44321
1.44111
1.439
1.43713
1.43582
1.43466
1.43341
1.43179
1.4293
1.42391
1.4155
1.40994
1.4076
1.4059
1.40397
1.40149
1.39847
1.39675
1.39563
1.39452
1.39337
1.39197
1.38966
1.38479
1.37358
2.76123
2.75668
2.75135
2.74596
2.7399
2.72979
2.71291
2.69519
2.68469
2.68064
2.6776
2.67417
2.66927
2.66213
2.65035
2.63176
2.61097
2.59569
2.58968
2.58648
2.5832
2.57964
2.5749
2.56855
2.56232
2.55793
2.55381
2.54762
2.53867
2.52883
2.51893
2.50877
2.49638
2.48027
2.46528
2.45652
2.45071
2.44452
2.43781
2.43362
2.43054
2.42731
2.42381
2.42004
2.41655
2.4123
2.40267
2.38739
2.37568
2.36789
2.36008
2.34962
2.33787
2.32928
2.32332
2.31851
2.31473
2.31067
2.30454
2.29555
2.28637
2.28026
2.27665
2.27391
2.27127
2.26748
2.26045
2.2449
2.22494
2.21364
2.20806
2.20384
2.20018
2.19692
2.19371
2.18975
2.18516
2.18011
2.17075
2.15265
2.13743
2.13138
2.1279
2.12476
2.12213
2.11982
2.11788
2.11602
2.11347
2.1106
2.10716
2.10252
2.09301
2.07393
2.05472
2.0454
2.03923
2.03421
2.0312
2.02949
2.02925
2.03112
2.03097
2.02902
2.02682
2.02425
2.02001
2.00787
1.98182
1.96157
1.95363
1.94835
1.94505
1.94273
1.94074
1.93925
1.9388
1.9386
1.93664
1.9346
1.93239
1.92969
1.9262
1.92152
1.91386
1.90351
1.89288
1.88676
1.88393
1.88197
1.8798
1.87657
1.87149
1.86531
1.8565
1.84261
1.8236
1.81188
1.80886
1.80728
1.80599
1.806
1.80919
1.81394
1.81384
1.81118
1.80785
1.80399
1.80046
1.79665
1.79078
1.78111
1.76526
1.75349
1.74942
1.74677
1.74366
1.74064
1.73818
1.73597
1.73379
1.73091
1.72699
1.72157
1.71363
1.70452
1.69797
1.69395
1.69179
1.69032
1.68877
1.68695
1.68473
1.6818
1.67808
1.67399
1.66628
1.65422
1.64312
1.63837
1.63593
1.6338
1.63205
1.63053
1.62903
1.62748
1.62576
1.62343
1.6191
1.60994
1.5982
1.59294
1.59077
1.58882
1.58708
1.58568
1.58483
1.58443
1.58331
1.58166
1.57911
1.57316
1.56155
1.55078
1.54637
1.54479
1.54373
1.54269
1.54133
1.53946
1.53726
1.53467
1.53144
1.52764
1.5221
1.51131
1.49815
1.49333
1.49222
1.49125
1.49042
1.49028
1.48963
1.48787
1.48606
1.48444
1.48283
1.48135
1.47987
1.47751
1.47124
1.45893
1.44849
1.44422
1.4418
1.43977
1.43787
1.43639
1.43513
1.43387
1.43237
1.43058
1.42815
1.42268
1.41348
1.40678
1.40394
1.4027
1.40212
1.40118
1.39984
1.3989
1.39823
1.39744
1.39628
1.39409
1.38904
1.37599
2.77295
2.76869
2.76304
2.75529
2.74362
2.7265
2.7088
2.69871
2.6949
2.69205
2.68912
2.68474
2.67931
2.6717
2.65852
2.63623
2.61223
2.60008
2.59509
2.59162
2.58942
2.58686
2.58298
2.57766
2.57177
2.56552
2.55663
2.54476
2.53333
2.52523
2.52019
2.51511
2.50646
2.49097
2.47128
2.45937
2.45413
2.45016
2.44516
2.43924
2.43508
2.43175
2.4289
2.42598
2.42139
2.41245
2.39975
2.38644
2.37806
2.37404
2.37001
2.36413
2.35491
2.34288
2.33004
2.31809
2.30906
2.30336
2.299
2.2925
2.28603
2.28298
2.28044
2.27875
2.27744
2.27452
2.26933
2.25702
2.23455
2.21722
2.21023
2.20524
2.20057
2.19751
2.19531
2.19358
2.19125
2.18794
2.18081
2.16386
2.14238
2.13255
2.12815
2.12487
2.12217
2.11974
2.11765
2.11592
2.11366
2.11121
2.10858
2.10543
2.09965
2.08592
2.06244
2.04428
2.03721
2.03396
2.03145
2.02914
2.02731
2.02708
2.03132
2.03437
2.03314
2.03133
2.02832
2.01944
1.99713
1.9676
1.95497
1.94976
1.94619
1.94377
1.94171
1.93996
1.93874
1.938
1.93627
1.93376
1.93099
1.92809
1.92528
1.92257
1.91956
1.91498
1.90573
1.89267
1.883
1.87768
1.87457
1.87148
1.86737
1.86206
1.85718
1.85046
1.83806
1.82177
1.81327
1.81072
1.80909
1.80733
1.80594
1.8059
1.80689
1.80543
1.80331
1.80095
1.79829
1.79604
1.794
1.78908
1.77817
1.76271
1.75334
1.74984
1.74722
1.74451
1.7421
1.73996
1.73763
1.73455
1.7303
1.72515
1.71853
1.70977
1.70129
1.69563
1.69254
1.69038
1.68862
1.6869
1.68473
1.68142
1.67661
1.67137
1.66731
1.66196
1.65318
1.64489
1.6409
1.63853
1.6368
1.63535
1.63379
1.63193
1.62958
1.62625
1.62156
1.61467
1.60653
1.59829
1.59218
1.58775
1.58513
1.58376
1.58282
1.58217
1.58088
1.57915
1.57689
1.5735
1.56659
1.55607
1.54835
1.54554
1.54428
1.54305
1.54163
1.53986
1.53774
1.53516
1.53201
1.52854
1.52484
1.51889
1.50683
1.49496
1.49065
1.48937
1.48845
1.48786
1.48717
1.48546
1.48375
1.48224
1.48071
1.47913
1.47741
1.47518
1.472
1.46553
1.45557
1.44869
1.44577
1.4438
1.4418
1.43995
1.43877
1.43777
1.43667
1.4354
1.43329
1.4282
1.41822
1.40876
1.40506
1.40327
1.40117
1.39881
1.39751
1.39655
1.39571
1.39481
1.39364
1.39177
1.38877
1.37933
2.78055
2.77622
2.77131
2.76449
2.74932
2.72581
2.71069
2.70646
2.70403
2.70301
2.69936
2.69378
2.6873
2.67803
2.66203
2.64081
2.62464
2.61578
2.60827
2.60132
2.59563
2.59127
2.5879
2.58516
2.58095
2.57313
2.56048
2.546
2.53503
2.52853
2.52292
2.51708
2.51082
2.50066
2.48561
2.47119
2.46089
2.45446
2.44978
2.44531
2.44044
2.43566
2.43037
2.42469
2.41724
2.40703
2.39564
2.39007
2.38712
2.38305
2.37831
2.37332
2.36674
2.35599
2.34095
2.32471
2.30966
2.29967
2.29437
2.2911
2.28902
2.28763
2.28566
2.28296
2.27888
2.27446
2.26999
2.26362
2.24966
2.2277
2.21354
2.20729
2.20325
2.19974
2.19647
2.19347
2.1905
2.18728
2.18289
2.17341
2.15521
2.13995
2.13383
2.13014
2.12716
2.12445
2.1219
2.1194
2.1169
2.11448
2.11197
2.10914
2.10485
2.09405
2.06892
2.04461
2.03691
2.03432
2.032
2.02987
2.02843
2.02934
2.03392
2.03447
2.03233
2.0298
2.02663
2.02174
2.01074
1.98913
1.96593
1.95405
1.94866
1.94579
1.94381
1.94217
1.94012
1.93792
1.93592
1.93355
1.93077
1.9282
1.92605
1.92552
1.92448
1.92151
1.91503
1.90237
1.88698
1.87836
1.8739
1.87056
1.86699
1.86241
1.85703
1.85216
1.84627
1.83615
1.82285
1.81437
1.81063
1.80851
1.80685
1.80547
1.80454
1.80327
1.80206
1.80048
1.79826
1.79518
1.79116
1.78784
1.78415
1.77595
1.76196
1.75168
1.74774
1.74513
1.74183
1.73769
1.73361
1.72977
1.72513
1.72002
1.71646
1.71375
1.70949
1.70352
1.69738
1.69293
1.68986
1.68746
1.68488
1.68144
1.67692
1.67223
1.66901
1.6666
1.66262
1.65431
1.64429
1.63762
1.63377
1.6315
1.62965
1.62754
1.62482
1.62116
1.617
1.61418
1.6109
1.60478
1.59686
1.58995
1.58572
1.58403
1.5831
1.58217
1.58093
1.57943
1.57749
1.5745
1.56962
1.56181
1.55299
1.54902
1.5478
1.54653
1.54501
1.54322
1.5411
1.53869
1.53598
1.53302
1.52965
1.5244
1.51427
1.50017
1.49225
1.48998
1.48889
1.48823
1.48753
1.4858
1.48404
1.48253
1.48103
1.47946
1.47773
1.47582
1.47381
1.47064
1.46318
1.45193
1.44479
1.4418
1.43966
1.43744
1.4359
1.43478
1.4336
1.43224
1.43052
1.42813
1.42343
1.41561
1.4081
1.40381
1.40078
1.39837
1.39717
1.39631
1.39542
1.39446
1.39336
1.39174
1.38914
1.38172
2.7897
2.78339
2.77644
2.76537
2.74638
2.72788
2.72132
2.71667
2.71234
2.70888
2.70653
2.70291
2.69593
2.68188
2.66124
2.64401
2.6353
2.62826
2.62093
2.61384
2.60729
2.60103
2.59457
2.58626
2.5763
2.56542
2.55506
2.54606
2.54062
2.5359
2.53009
2.52236
2.51164
2.49961
2.49061
2.48233
2.47332
2.46408
2.4575
2.45343
2.44953
2.4443
2.43719
2.42666
2.41223
2.40052
2.39615
2.39415
2.39342
2.39252
2.38965
2.38547
2.37904
2.36719
2.34671
2.3231
2.30654
2.29898
2.29547
2.29269
2.28999
2.28759
2.28639
2.2854
2.28331
2.28092
2.27761
2.2718
2.25979
2.23973
2.22076
2.21135
2.20637
2.20246
2.1989
2.19569
2.19267
2.18951
2.18582
2.18032
2.16799
2.14716
2.13255
2.12669
2.12333
2.12052
2.11836
2.11769
2.12116
2.12171
2.11892
2.11579
2.11134
2.10124
2.07911
2.05142
2.03896
2.03534
2.03316
2.0317
2.03235
2.03789
2.04179
2.03987
2.03719
2.03456
2.03129
2.02645
2.01802
2.00389
1.9842
1.96385
1.9529
1.94808
1.94528
1.94293
1.9405
1.93784
1.93482
1.93221
1.93042
1.92871
1.92678
1.92458
1.92168
1.919
1.91653
1.91124
1.89891
1.88334
1.87502
1.87072
1.86685
1.86246
1.85785
1.8541
1.85057
1.84504
1.83474
1.82176
1.81544
1.81271
1.80951
1.80634
1.80424
1.80231
1.80058
1.79885
1.79672
1.7941
1.79149
1.78933
1.78718
1.78328
1.7731
1.75785
1.75084
1.74846
1.74517
1.74041
1.73411
1.72819
1.72376
1.71974
1.71649
1.7142
1.71239
1.70981
1.70486
1.69895
1.69471
1.69162
1.68883
1.68577
1.68215
1.67846
1.67545
1.67272
1.66897
1.66219
1.65138
1.64069
1.6349
1.63165
1.62936
1.62715
1.6244
1.6209
1.61702
1.61301
1.60923
1.6063
1.60235
1.59569
1.58903
1.58581
1.58417
1.58279
1.58139
1.57988
1.57828
1.57646
1.57382
1.56851
1.55827
1.54773
1.54391
1.54269
1.54144
1.53981
1.53775
1.53536
1.53283
1.5296
1.52545
1.52122
1.51668
1.50958
1.50018
1.4947
1.49329
1.49264
1.49173
1.48993
1.48808
1.48657
1.48515
1.48385
1.48265
1.48141
1.47982
1.47676
1.46935
1.45665
1.44632
1.44218
1.43992
1.43778
1.43587
1.43436
1.43311
1.43172
1.43008
1.42836
1.42633
1.4219
1.41345
1.40585
1.40155
1.39894
1.39768
1.39689
1.39604
1.39503
1.39388
1.39242
1.3907
1.38473
2.79766
2.79232
2.78358
2.76828
2.74695
2.73638
2.73205
2.72781
2.72266
2.71554
2.70769
2.70099
2.69233
2.67942
2.66414
2.65531
2.6483
2.64016
2.63114
2.62344
2.61761
2.61151
2.60295
2.59085
2.57489
2.56127
2.55301
2.54852
2.54471
2.54075
2.53603
2.52907
2.51839
2.50492
2.49302
2.48632
2.48171
2.47673
2.46964
2.45979
2.44874
2.43957
2.43019
2.41859
2.40714
2.40113
2.39876
2.39734
2.39808
2.39937
2.3968
2.3929
2.3878
2.37666
2.35293
2.32399
2.30797
2.30199
2.29832
2.29494
2.2925
2.29163
2.2898
2.28648
2.28315
2.27932
2.27363
2.2657
2.25773
2.24791
2.23345
2.22021
2.2142
2.21056
2.20702
2.20374
2.20063
2.19738
2.19374
2.18851
2.17788
2.15749
2.13628
2.12809
2.12474
2.12211
2.11996
2.12014
2.12101
2.11848
2.11545
2.11235
2.10824
2.10175
2.08877
2.06687
2.04732
2.03966
2.0368
2.03514
2.03437
2.03478
2.03593
2.0347
2.03188
2.02855
2.02438
2.01903
2.01345
2.00789
1.99834
1.98133
1.9619
1.9527
1.94874
1.94552
1.94224
1.93836
1.93436
1.93139
1.92891
1.92648
1.92417
1.92279
1.92166
1.91978
1.91778
1.91485
1.90761
1.89336
1.87922
1.87256
1.86868
1.86474
1.86056
1.85661
1.85331
1.85022
1.84507
1.83328
1.81768
1.81077
1.8087
1.80638
1.8036
1.80051
1.79818
1.79639
1.79499
1.79433
1.79379
1.79288
1.79162
1.78932
1.78335
1.7685
1.75097
1.74387
1.74119
1.73722
1.73095
1.72473
1.72129
1.71944
1.71836
1.71791
1.7171
1.7155
1.71187
1.70414
1.69524
1.68917
1.68531
1.68209
1.67877
1.67527
1.67197
1.66923
1.66708
1.66494
1.66021
1.65096
1.64084
1.63532
1.63238
1.62989
1.62715
1.62375
1.61973
1.61584
1.61303
1.61076
1.60767
1.60236
1.59436
1.58784
1.58506
1.58354
1.58224
1.58108
1.57993
1.57852
1.57662
1.57311
1.56402
1.55033
1.54359
1.54196
1.54088
1.53958
1.53793
1.53556
1.53256
1.52925
1.52485
1.52073
1.51801
1.51557
1.51015
1.49983
1.49272
1.49078
1.48944
1.48771
1.48588
1.48412
1.48263
1.48137
1.48024
1.47892
1.47722
1.47451
1.47
1.46153
1.45091
1.4447
1.44175
1.43941
1.43702
1.43436
1.43265
1.43149
1.43037
1.42934
1.42808
1.42533
1.41852
1.41009
1.40527
1.40247
1.40108
1.40021
1.39945
1.39851
1.39746
1.39622
1.39469
1.3885
2.79938
2.78922
2.77745
2.76473
2.7553
2.74874
2.74133
2.73492
2.72956
2.7238
2.71553
2.7037
2.68953
2.67689
2.67226
2.66855
2.66377
2.65794
2.65047
2.64006
2.62623
2.61101
2.59722
2.58363
2.57023
2.56167
2.5573
2.55294
2.54793
2.54273
2.53724
2.53108
2.52291
2.5124
2.50391
2.49796
2.49192
2.48534
2.47788
2.46836
2.45549
2.43985
2.4264
2.41515
2.40895
2.40621
2.40358
2.402
2.40426
2.40565
2.40229
2.39748
2.39191
2.38203
2.36019
2.33107
2.31317
2.30701
2.30427
2.30281
2.30188
2.29954
2.29589
2.2922
2.28809
2.2825
2.27496
2.26543
2.25791
2.25274
2.2454
2.23084
2.21559
2.20823
2.20427
2.2008
2.19758
2.19429
2.19067
2.18687
2.18191
2.17039
2.14996
2.13337
2.12866
2.12702
2.12687
2.12716
2.12441
2.12146
2.11815
2.114
2.10882
2.10242
2.09315
2.0793
2.06314
2.04993
2.04422
2.04187
2.03941
2.03718
2.03525
2.03392
2.03176
2.02805
2.02309
2.01752
2.01265
2.00895
2.00467
1.9961
1.97902
1.95936
1.94975
1.94577
1.94258
1.93924
1.93594
1.93329
1.9306
1.92779
1.92552
1.92405
1.92273
1.92069
1.91843
1.91589
1.91225
1.90275
1.88486
1.87409
1.87009
1.86651
1.86331
1.86081
1.85846
1.85577
1.85164
1.84253
1.82542
1.81294
1.80877
1.80556
1.802
1.79944
1.7975
1.79603
1.79548
1.79582
1.79627
1.79667
1.79571
1.79393
1.79031
1.77873
1.75695
1.74314
1.73919
1.73596
1.7302
1.72542
1.72335
1.72177
1.72061
1.72017
1.71992
1.71886
1.71714
1.71127
1.69958
1.69066
1.68572
1.68216
1.6788
1.6752
1.67194
1.66974
1.6682
1.66669
1.66471
1.66008
1.64922
1.63715
1.63015
1.62633
1.62321
1.61985
1.61617
1.61284
1.61044
1.60833
1.6063
1.60404
1.59935
1.59244
1.58922
1.58794
1.58698
1.58613
1.58501
1.58347
1.58113
1.57689
1.56907
1.55704
1.54691
1.54271
1.54086
1.53919
1.53713
1.53422
1.53015
1.5276
1.52656
1.52538
1.52413
1.52202
1.51712
1.507
1.49598
1.49143
1.48944
1.48773
1.48594
1.48414
1.48262
1.48138
1.48015
1.47885
1.47739
1.47537
1.47207
1.46612
1.45578
1.44594
1.44148
1.43926
1.43682
1.43466
1.43363
1.43282
1.43193
1.43084
1.42953
1.42763
1.42335
1.41433
1.40552
1.40039
1.39831
1.39735
1.39674
1.39604
1.39502
1.39364
1.39201
1.38686
2.80609
2.79142
2.77714
2.76646
2.76215
2.75762
2.75251
2.74666
2.73887
2.72757
2.71242
2.69623
2.68403
2.67901
2.676
2.67382
2.67126
2.66743
2.66217
2.65346
2.63791
2.61619
2.5953
2.58055
2.5717
2.56747
2.56312
2.55825
2.55304
2.54771
2.54198
2.53416
2.52227
2.51424
2.51095
2.50765
2.50322
2.49675
2.48732
2.47325
2.4536
2.43344
2.42085
2.41556
2.41291
2.41098
2.40969
2.40907
2.40864
2.40734
2.40578
2.40302
2.3961
2.38226
2.36454
2.34718
2.33167
2.31646
2.30603
2.30113
2.29833
2.29521
2.29159
2.28791
2.28387
2.27839
2.27321
2.26996
2.26644
2.26204
2.25466
2.24082
2.22215
2.2107
2.2057
2.20223
2.19894
2.19569
2.19208
2.18769
2.18262
2.17628
2.16605
2.14995
2.13489
2.12829
2.12558
2.12341
2.12041
2.11714
2.11388
2.11005
2.10449
2.09731
2.09117
2.08639
2.07917
2.0656
2.04876
2.03981
2.03774
2.03683
2.03483
2.03224
2.02988
2.02648
2.02192
2.01749
2.01422
2.01151
2.00866
2.00405
1.99276
1.97058
1.95322
1.94726
1.94391
1.94163
1.94069
1.93962
1.93694
1.93386
1.93115
1.92915
1.92736
1.925
1.92292
1.921
1.9176
1.90824
1.89147
1.87912
1.87382
1.86938
1.8659
1.86372
1.86162
1.85931
1.85626
1.85
1.83573
1.81655
1.80775
1.80556
1.80402
1.80243
1.80093
1.79984
1.79955
1.80023
1.79997
1.79934
1.79801
1.79621
1.79376
1.78671
1.76747
1.74498
1.7363
1.73415
1.73272
1.73068
1.72871
1.72733
1.7265
1.72599
1.72491
1.72332
1.7213
1.71692
1.70755
1.69646
1.68986
1.68599
1.68257
1.67894
1.6766
1.67525
1.67411
1.67282
1.67092
1.66657
1.65682
1.64195
1.63162
1.62675
1.62328
1.61976
1.61616
1.61311
1.6111
1.60952
1.60786
1.60571
1.60248
1.59654
1.58924
1.58593
1.58474
1.58368
1.58244
1.58094
1.57892
1.57575
1.57095
1.56361
1.55268
1.54429
1.54089
1.53886
1.53656
1.53363
1.53059
1.52802
1.5253
1.52279
1.52113
1.51946
1.51711
1.51299
1.50533
1.49572
1.49078
1.48856
1.48681
1.48512
1.48332
1.48163
1.48024
1.4789
1.47759
1.47637
1.47473
1.47061
1.46116
1.44934
1.44329
1.44124
1.43984
1.43883
1.43813
1.43767
1.43672
1.43552
1.43426
1.43254
1.42851
1.41925
1.40818
1.40093
1.39817
1.39728
1.39669
1.39598
1.395
1.39371
1.3923
1.38788
2.81516
2.79271
2.77715
2.77133
2.76688
2.76279
2.75866
2.75365
2.74581
2.73236
2.71345
2.6963
2.689
2.68529
2.68216
2.68031
2.67861
2.67505
2.67024
2.66307
2.64786
2.62033
2.59311
2.58074
2.57652
2.57292
2.56859
2.56359
2.55832
2.55267
2.54576
2.53702
2.52842
2.52194
2.51688
2.51294
2.50883
2.50355
2.49506
2.47857
2.45344
2.43288
2.42488
2.42098
2.4175
2.41537
2.41627
2.41656
2.41315
2.40933
2.40502
2.3993
2.38878
2.37421
2.36222
2.35545
2.34756
2.33373
2.31498
2.3035
2.29891
2.29572
2.29191
2.28749
2.28327
2.27865
2.27291
2.26727
2.26281
2.25818
2.25294
2.24628
2.2346
2.22021
2.21292
2.20926
2.20563
2.20176
2.19749
2.19173
2.18544
2.18034
2.17472
2.1655
2.1497
2.13334
2.12644
2.12362
2.12082
2.11739
2.11392
2.11002
2.1044
2.09733
2.09315
2.09063
2.08688
2.0781
2.06078
2.04403
2.03748
2.03564
2.03442
2.03191
2.02862
2.02528
2.0219
2.01925
2.01675
2.0144
2.0117
2.00828
2.0006
1.98215
1.96196
1.95357
1.94947
1.9464
1.94392
1.94087
1.93728
1.93316
1.92819
1.92349
1.92122
1.91903
1.9163
1.91319
1.90945
1.90447
1.89707
1.88813
1.88146
1.87608
1.87201
1.86893
1.86617
1.86328
1.85955
1.85355
1.8422
1.82392
1.80848
1.8029
1.80049
1.7986
1.79682
1.79525
1.79443
1.79565
1.80115
1.80452
1.80342
1.80157
1.79904
1.79226
1.77375
1.74831
1.73708
1.7334
1.73081
1.7287
1.72658
1.72481
1.72357
1.7227
1.72217
1.72121
1.71986
1.71838
1.7145
1.70419
1.69165
1.68433
1.68016
1.67673
1.67408
1.67199
1.67017
1.66852
1.66684
1.6649
1.6608
1.65125
1.6385
1.63032
1.6264
1.62335
1.62039
1.61822
1.61666
1.61505
1.61317
1.61088
1.6076
1.60094
1.59177
1.58682
1.58518
1.58397
1.58262
1.58112
1.57943
1.57743
1.5746
1.56871
1.55755
1.54757
1.5439
1.54174
1.53948
1.53694
1.53413
1.53076
1.52673
1.52305
1.52041
1.5189
1.51806
1.5173
1.5138
1.50478
1.4949
1.49036
1.48804
1.48617
1.48422
1.48257
1.48126
1.47996
1.47863
1.47714
1.47498
1.4715
1.46568
1.45538
1.44411
1.43919
1.43782
1.43679
1.43593
1.43536
1.43439
1.43314
1.43178
1.43005
1.42743
1.42272
1.41441
1.40534
1.40143
1.40046
1.39984
1.39909
1.39808
1.39682
1.39551
1.3912
2.82198
2.79697
2.78517
2.77807
2.77172
2.76605
2.76047
2.75432
2.74607
2.73234
2.71405
2.70342
2.69832
2.69356
2.6898
2.68782
2.68639
2.68306
2.67892
2.6718
2.65415
2.6237
2.59963
2.58841
2.58001
2.57374
2.57014
2.56801
2.56474
2.55976
2.5523
2.54092
2.53215
2.52785
2.52418
2.52053
2.51615
2.50975
2.4984
2.4778
2.45126
2.43649
2.43169
2.42773
2.42421
2.42218
2.42302
2.42339
2.42082
2.41685
2.40982
2.39729
2.38311
2.3709
2.36568
2.36219
2.35733
2.34898
2.33376
2.31397
2.30066
2.29591
2.29265
2.28838
2.28273
2.27702
2.27195
2.26765
2.26365
2.25954
2.25585
2.25207
2.24571
2.23164
2.2141
2.20548
2.2015
2.19713
2.19222
2.18787
2.18391
2.18067
2.17777
2.17385
2.16548
2.14882
2.13243
2.12505
2.12149
2.11817
2.11377
2.10892
2.10383
2.09984
2.09677
2.09316
2.08884
2.08321
2.07306
2.05693
2.0439
2.0369
2.03275
2.02893
2.02488
2.02201
2.02038
2.0216
2.0231
2.02095
2.01796
2.01427
2.00731
1.9924
1.97088
1.95822
1.9545
1.95189
1.94862
1.94475
1.94058
1.93589
1.9303
1.92428
1.92047
1.91917
1.91675
1.91166
1.90394
1.89734
1.89419
1.89258
1.88946
1.88437
1.87857
1.87414
1.87112
1.86844
1.86518
1.85962
1.84803
1.82741
1.80869
1.80254
1.80035
1.79851
1.79686
1.79555
1.79498
1.79743
1.8022
1.80272
1.80099
1.79928
1.79713
1.79271
1.78121
1.7584
1.73905
1.73296
1.73091
1.72933
1.72767
1.72582
1.72412
1.72309
1.72264
1.72238
1.72175
1.7207
1.71832
1.71027
1.69563
1.68555
1.6805
1.677
1.67436
1.67213
1.66995
1.66771
1.66535
1.66263
1.65992
1.65634
1.64829
1.63605
1.62724
1.6224
1.61889
1.61602
1.61381
1.61186
1.60979
1.60736
1.60444
1.60148
1.59679
1.59078
1.58762
1.58621
1.58495
1.58347
1.58168
1.57926
1.57551
1.57018
1.56264
1.55233
1.54346
1.53883
1.53621
1.53369
1.53093
1.52816
1.52554
1.52292
1.52074
1.51918
1.51803
1.51691
1.51552
1.51158
1.50284
1.49509
1.49169
1.48957
1.48783
1.48633
1.48491
1.48342
1.48184
1.4802
1.47823
1.47545
1.47063
1.46082
1.4472
1.44018
1.43829
1.43727
1.43637
1.43561
1.4346
1.4334
1.43206
1.43043
1.42834
1.42545
1.41989
1.41037
1.40125
1.39765
1.39673
1.39595
1.395
1.39368
1.39212
1.38819
2.82961
2.80397
2.79171
2.78439
2.77747
2.77088
2.76497
2.75897
2.75071
2.73446
2.71661
2.71018
2.70653
2.70327
2.69935
2.69474
2.68955
2.68407
2.67848
2.67081
2.65505
2.62984
2.61064
2.59935
2.58995
2.5809
2.57367
2.56898
2.56464
2.55954
2.55302
2.54587
2.53935
2.53355
2.52845
2.52359
2.51869
2.51254
2.50158
2.47978
2.45412
2.44307
2.43868
2.43537
2.433
2.43096
2.42772
2.42347
2.41837
2.41243
2.40172
2.38675
2.37726
2.37399
2.3716
2.36837
2.36434
2.35846
2.34693
2.32662
2.30779
2.29765
2.29161
2.28593
2.2796
2.27399
2.27015
2.26734
2.26553
2.26465
2.26293
2.26006
2.25484
2.2419
2.22002
2.20606
2.2011
2.19721
2.1915
2.1872
2.18511
2.18404
2.18228
2.17909
2.17376
2.16205
2.14304
2.13
2.12387
2.1187
2.11259
2.10695
2.1037
2.10157
2.09988
2.09737
2.09444
2.09046
2.08326
2.06798
2.04628
2.03337
2.02875
2.02591