/*--------------------------------*- C++ -*----------------------------------*\
  =========                 |
  \\      /  F ield         | OpenFOAM: The Open Source CFD Toolbox
   \\    /   O peration     | Website:  https://openfoam.org
    \\  /    A nd           | Version:  7
     \\/     M anipulation  |
\*---------------------------------------------------------------------------*/
FoamFile
{
    version     2.0;
    format      ascii;
    class       volScalarField;
    location    "0.4";
    object      rho;
}
// * * * * * * * * * * * * * * * * * * * * * * * * * * * * * * * * * * * * * //

dimensions      [1 -3 0 0 0 0 0];

internalField   nonuniform List<scalar> 
4128
(
1.40001
1.40001
1.40001
1.40001
1.40001
1.40001
1.40001
1.40001
1.40001
1.40001
1.40001
1.40001
1.40001
1.40001
1.40001
1.40001
1.40001
1.40001
1.40001
1.40001
1.40001
1.40001
1.40001
1.40001
1.40001
1.40001
1.40001
1.40001
1.40001
1.40001
1.40001
1.40001
1.40001
1.40001
1.40001
1.40001
1.40001
1.8054
4.7045
5.51492
5.48573
5.5634
5.65526
5.74289
5.7814
5.71126
5.57312
5.49099
1.40001
1.40001
1.40001
1.40001
1.40001
1.40001
1.40001
1.40001
1.40001
1.40001
1.40001
1.40001
1.40001
1.40001
1.40001
1.40001
1.40001
1.40001
1.40001
1.40001
1.40001
1.40001
1.40001
1.40001
1.40001
1.40001
1.40001
1.40001
1.40001
1.40001
1.40001
1.40001
1.40001
1.40001
1.40001
1.40001
1.40001
1.75836
4.61664
5.49591
5.48485
5.56006
5.65173
5.73292
5.76293
5.68669
5.54675
5.46573
1.40001
1.40001
1.40001
1.40001
1.40001
1.40001
1.40001
1.40001
1.40001
1.40001
1.40001
1.40001
1.40001
1.40001
1.40001
1.40001
1.40001
1.40001
1.40001
1.40001
1.40001
1.40001
1.40001
1.40001
1.40001
1.40001
1.40001
1.40001
1.40001
1.40001
1.40001
1.40001
1.40001
1.40001
1.40001
1.40001
1.40001
1.66041
4.47304
5.48631
5.47495
5.55054
5.64304
5.71661
5.73555
5.65136
5.50715
5.42681
1.40001
1.40001
1.40001
1.40001
1.40001
1.40001
1.40001
1.40001
1.40001
1.40001
1.40001
1.40001
1.40001
1.40001
1.40001
1.40001
1.40001
1.40001
1.40001
1.40001
1.40001
1.40001
1.40001
1.40001
1.40001
1.40001
1.40001
1.40001
1.40001
1.40001
1.40001
1.40001
1.40001
1.40001
1.40001
1.40001
1.40001
1.51545
4.23067
5.47693
5.46935
5.54219
5.62679
5.68759
5.69626
5.60457
5.45368
5.36953
1.40001
1.40001
1.40001
1.40001
1.40001
1.40001
1.40001
1.40001
1.40001
1.40001
1.40001
1.40001
1.40001
1.40001
1.40001
1.40001
1.40001
1.40001
1.40001
1.40001
1.40001
1.40001
1.40001
1.40001
1.40001
1.40001
1.40001
1.40001
1.40001
1.40001
1.40001
1.40001
1.40001
1.40001
1.40001
1.40001
1.40001
1.40761
3.87807
5.43333
5.44097
5.51249
5.59057
5.63854
5.6339
5.53816
5.38322
5.304
1.40001
1.40001
1.40001
1.40001
1.40001
1.40001
1.40001
1.40001
1.40001
1.40001
1.40001
1.40001
1.40001
1.40001
1.40001
1.40001
1.40001
1.40001
1.40001
1.40001
1.40001
1.40001
1.40001
1.40001
1.40001
1.40001
1.40001
1.40001
1.40001
1.40001
1.40001
1.40001
1.40001
1.40001
1.40001
1.40001
1.40001
1.40006
3.42291
5.33542
5.41391
5.47662
5.54261
5.57793
5.57448
5.48223
5.31692
5.20584
1.40001
1.40001
1.40001
1.40001
1.40001
1.40001
1.40001
1.40001
1.40001
1.40001
1.40001
1.40001
1.40001
1.40001
1.40001
1.40001
1.40001
1.40001
1.40001
1.40001
1.40001
1.40001
1.40001
1.40001
1.40001
1.40001
1.40001
1.40001
1.40001
1.40001
1.40001
1.40001
1.40001
1.40001
1.40001
1.40001
1.40001
1.40001
2.9167
5.19582
5.40248
5.44113
5.48655
5.50212
5.48147
5.36927
5.18402
5.05694
1.40001
1.40001
1.40001
1.40001
1.40001
1.40001
1.40001
1.40001
1.40001
1.40001
1.40001
1.40001
1.40001
1.40001
1.40001
1.40001
1.40001
1.40001
1.40001
1.40001
1.40001
1.40001
1.40001
1.40001
1.40001
1.40001
1.40001
1.40001
1.40001
1.40001
1.40001
1.40001
1.40001
1.40001
1.40001
1.40001
1.40001
1.40001
2.36055
5.00635
5.40233
5.40506
5.41859
5.40678
5.36337
5.24565
5.03458
4.88745
1.40001
1.40001
1.40001
1.40001
1.40001
1.40001
1.40001
1.40001
1.40001
1.40001
1.40001
1.40001
1.40001
1.40001
1.40001
1.40001
1.40001
1.40001
1.40001
1.40001
1.40001
1.40001
1.40001
1.40001
1.40001
1.40001
1.40001
1.40001
1.40001
1.40001
1.40001
1.40001
1.40001
1.40001
1.40001
1.40001
1.40001
1.40001
1.81129
4.72023
5.44675
5.41062
5.37792
5.32243
5.22724
5.0474
4.63772
3.70678
1.40001
1.40001
1.40001
1.40001
1.40001
1.40001
1.40001
1.40001
1.40001
1.40001
1.40001
1.40001
1.40001
1.40001
1.40001
1.40001
1.40001
1.40001
1.40001
1.40001
1.40001
1.40001
1.40001
1.40001
1.40001
1.40001
1.40001
1.40001
1.40001
1.40001
1.40001
1.40001
1.40001
1.40001
1.40001
1.40001
1.40001
1.40001
1.44108
4.11125
5.34092
5.29017
5.25504
5.18713
5.06878
4.83379
4.43219
3.47879
1.40001
1.40001
1.40001
1.40001
1.40001
1.40001
1.40001
1.40001
1.40001
1.40001
1.40001
1.40001
1.40001
1.40001
1.40001
1.40001
1.40001
1.40001
1.40001
1.40001
1.40001
1.40001
1.40001
1.40001
1.40001
1.40001
1.40001
1.40001
1.40001
1.40001
1.40001
1.40001
1.40001
1.40001
1.40001
1.40001
1.40001
1.40001
1.40034
3.20594
5.16433
5.2001
5.16001
5.0774
4.93754
4.67899
4.28364
3.43881
1.40001
1.40001
1.40001
1.40001
1.40001
1.40001
1.40001
1.40001
1.40001
1.40001
1.40001
1.40001
1.40001
1.40001
1.40001
1.40001
1.40001
1.40001
1.40001
1.40001
1.40001
1.40001
1.40001
1.40001
1.40001
1.40001
1.40001
1.40001
1.40001
1.40001
1.40001
1.40001
1.40001
1.40001
1.40001
1.40001
1.40001
1.40001
1.4
2.23617
4.91657
5.16766
5.07421
4.96761
4.79869
4.55282
4.13061
3.45759
1.40001
1.40001
1.40001
1.40001
1.40001
1.40001
1.40001
1.40001
1.40001
1.40001
1.40001
1.40001
1.40001
1.40001
1.40001
1.40001
1.40001
1.40001
1.40001
1.40001
1.40001
1.40001
1.40001
1.40001
1.40001
1.40001
1.40001
1.40001
1.40001
1.40001
1.40001
1.40001
1.40001
1.40001
1.40001
1.40001
1.40001
1.40001
1.40001
1.52791
4.22036
5.11481
4.99069
4.87579
4.6945
4.45281
4.05343
3.53749
1.40001
1.40001
1.40001
1.40001
1.40001
1.40001
1.40001
1.40001
1.40001
1.40001
1.40001
1.40001
1.40001
1.40001
1.40001
1.40001
1.40001
1.40001
1.40001
1.40001
1.40001
1.40001
1.40001
1.40001
1.40001
1.40001
1.40001
1.40001
1.40001
1.40001
1.40001
1.40001
1.40001
1.40001
1.40001
1.40001
1.40001
1.40001
1.40001
1.40215
2.99137
4.96184
4.9656
4.83091
4.63967
4.38764
4.02726
3.60439
1.40001
1.40001
1.40001
1.40001
1.40001
1.40001
1.40001
1.40001
1.40001
1.40001
1.40001
1.40001
1.40001
1.40001
1.40001
1.40001
1.40001
1.40001
1.40001
1.40001
1.40001
1.40001
1.40001
1.40001
1.40001
1.40001
1.40001
1.40001
1.40001
1.40001
1.40001
1.40001
1.40001
1.40001
1.40001
1.40001
1.40001
1.40001
1.40001
1.4
1.75221
4.52698
4.98187
4.78971
4.60267
4.353
4.0387
3.67577
1.40001
1.40001
1.40001
1.40001
1.40001
1.40001
1.40001
1.40001
1.40001
1.40001
1.40001
1.40001
1.40001
1.40001
1.40001
1.40001
1.40001
1.40001
1.40001
1.40001
1.40001
1.40001
1.40001
1.40001
1.40001
1.40001
1.40001
1.40001
1.40001
1.40001
1.40001
1.40001
1.40001
1.40001
1.40001
1.40001
1.40001
1.40001
1.40001
1.4
1.41648
3.2745
4.83266
4.77139
4.58146
4.34458
4.05586
3.72993
1.40001
1.40001
1.40001
1.40001
1.40001
1.40001
1.40001
1.40001
1.40001
1.40001
1.40001
1.40001
1.40001
1.40001
1.40001
1.40001
1.40001
1.40001
1.40001
1.40001
1.40001
1.40001
1.40001
1.40001
1.40001
1.40001
1.40001
1.40001
1.40001
1.40001
1.40001
1.40001
1.40001
1.40001
1.40001
1.40001
1.40001
1.40001
1.40001
1.40001
1.40004
1.86514
4.41098
4.83631
4.59467
4.3553
4.07819
3.78388
1.40001
1.40001
1.40001
1.40001
1.40001
1.40001
1.40001
1.40001
1.40001
1.40001
1.40001
1.40001
1.40001
1.40001
1.40001
1.40001
1.40001
1.40001
1.40001
1.40001
1.40001
1.40001
1.40001
1.40001
1.40001
1.40001
1.40001
1.40001
1.40001
1.40001
1.40001
1.40001
1.40001
1.40001
1.40001
1.40001
1.40001
1.40001
1.40001
1.40001
1.40001
1.42655
3.04689
4.68023
4.60714
4.36983
4.12805
3.86145
1.40001
1.40001
1.40001
1.40001
1.40001
1.40001
1.40001
1.40001
1.40001
1.40001
1.40001
1.40001
1.40001
1.40001
1.40001
1.40001
1.40001
1.40001
1.40001
1.40001
1.40001
1.40001
1.40001
1.40001
1.40001
1.40001
1.40001
1.40001
1.40001
1.40001
1.40001
1.40001
1.40001
1.40001
1.40001
1.40001
1.40001
1.40001
1.40001
1.40001
1.40001
1.40015
1.74932
4.03407
4.69047
4.44589
4.18886
3.92728
1.40001
1.40001
1.40001
1.40001
1.40001
1.40001
1.40001
1.40001
1.40001
1.40001
1.40001
1.40001
1.40001
1.40001
1.40001
1.40001
1.40001
1.40001
1.40001
1.40001
1.40001
1.40001
1.40001
1.40001
1.40001
1.40001
1.40001
1.40001
1.40001
1.40001
1.40001
1.40001
1.40001
1.40001
1.40001
1.40001
1.40001
1.40001
1.40001
1.40001
1.40001
1.40001
1.41353
2.48306
4.37487
4.52937
4.25932
4.01856
1.40001
1.40001
1.40001
1.40001
1.40001
1.40001
1.40001
1.40001
1.40001
1.40001
1.40001
1.40001
1.40001
1.40001
1.40001
1.40001
1.40001
1.40001
1.40001
1.40001
1.40001
1.40001
1.40001
1.40001
1.40001
1.40001
1.40001
1.40001
1.40001
1.40001
1.40001
1.40001
1.40001
1.40001
1.40001
1.40001
1.40001
1.40001
1.40001
1.40001
1.40001
1.40001
1.40007
1.54131
3.27612
4.44921
4.32549
4.07148
1.40001
1.40001
1.40001
1.40001
1.40001
1.40001
1.40001
1.40001
1.40001
1.40001
1.40001
1.40001
1.40001
1.40001
1.40001
1.40001
1.40001
1.40001
1.40001
1.40001
1.40001
1.40001
1.40001
1.40001
1.40001
1.40001
1.40001
1.40001
1.40001
1.40001
1.40001
1.40001
1.40001
1.40001
1.40001
1.40001
1.40001
1.40001
1.40001
1.40001
1.40001
1.40001
1.40001
1.40267
1.88897
3.8206
4.39388
4.19178
1.40001
1.40001
1.40001
1.40001
1.40001
1.40001
1.40001
1.40001
1.40001
1.40001
1.40001
1.40001
1.40001
1.40001
1.40001
1.40001
1.40001
1.40001
1.40001
1.40001
1.40001
1.40001
1.40001
1.40001
1.40001
1.40001
1.40001
1.40001
1.40001
1.40001
1.40001
1.40001
1.40001
1.40001
1.40001
1.40001
1.40001
1.40001
1.40001
1.40001
1.40001
1.40001
1.40001
1.40001
1.42768
2.35761
4.04384
4.27244
1.40001
1.40001
1.40001
1.40001
1.40001
1.40001
1.40001
1.40001
1.40001
1.40001
1.40001
1.40001
1.40001
1.40001
1.40001
1.40001
1.40001
1.40001
1.40001
1.40001
1.40001
1.40001
1.40001
1.40001
1.40001
1.40001
1.40001
1.40001
1.40001
1.40001
1.40001
1.40001
1.40001
1.40001
1.40001
1.40001
1.40001
1.40001
1.40001
1.40001
1.40001
1.40001
1.40001
1.40001
1.40026
1.50934
2.76022
4.09842
1.40001
1.40001
1.40001
1.40001
1.40001
1.40001
1.40001
1.40001
1.40001
1.40001
1.40001
1.40001
1.40001
1.40001
1.40001
1.40001
1.40001
1.40001
1.40001
1.40001
1.40001
1.40001
1.40001
1.40001
1.40001
1.40001
1.40001
1.40001
1.40001
1.40001
1.40001
1.40001
1.40001
1.40001
1.40001
1.40001
1.40001
1.40001
1.40001
1.40001
1.40001
1.40001
1.40001
1.40001
1.40001
1.40206
1.63757
3.0621
1.40001
1.40001
1.40001
1.40001
1.40001
1.40001
1.40001
1.40001
1.40001
1.40001
1.40001
1.40001
1.40001
1.40001
1.40001
1.40001
1.40001
1.40001
1.40001
1.40001
1.40001
1.40001
1.40001
1.40001
1.40001
1.40001
1.40001
1.40001
1.40001
1.40001
1.40001
1.40001
1.40001
1.40001
1.40001
1.40001
1.40001
1.40001
1.40001
1.40001
1.40001
1.40001
1.40001
1.40001
1.40001
1.40001
1.40765
1.78441
1.40001
1.40001
1.40001
1.40001
1.40001
1.40001
1.40001
1.40001
1.40001
1.40001
1.40001
1.40001
1.40001
1.40001
1.40001
1.40001
1.40001
1.40001
1.40001
1.40001
1.40001
1.40001
1.40001
1.40001
1.40001
1.40001
1.40001
1.40001
1.40001
1.40001
1.40001
1.40001
1.40001
1.40001
1.40001
1.40001
1.40001
1.40001
1.40001
1.40001
1.40001
1.40001
1.40001
1.40001
1.40001
1.40001
1.40005
1.4184
1.40001
1.40001
1.40001
1.40001
1.40001
1.40001
1.40001
1.40001
1.40001
1.40001
1.40001
1.40001
1.40001
1.40001
1.40001
1.40001
1.40001
1.40001
1.40001
1.40001
1.40001
1.40001
1.40001
1.40001
1.40001
1.40001
1.40001
1.40001
1.40001
1.40001
1.40001
1.40001
1.40001
1.40001
1.40001
1.40001
1.40001
1.40001
1.40001
1.40001
1.40001
1.40001
1.40001
1.40001
1.40001
1.40001
1.40001
1.40016
1.40001
1.40001
1.40001
1.40001
1.40001
1.40001
1.40001
1.40001
1.40001
1.40001
1.40001
1.40001
1.40001
1.40001
1.40001
1.40001
1.40001
1.40001
1.40001
1.40001
1.40001
1.40001
1.40001
1.40001
1.40001
1.40001
1.40001
1.40001
1.40001
1.40001
1.40001
1.40001
1.40001
1.40001
1.40001
1.40001
1.40001
1.40001
1.40001
1.40001
1.40001
1.40001
1.40001
1.40001
1.40001
1.40001
1.40001
1.40001
1.40001
1.40001
1.40001
1.40001
1.40001
1.40001
1.40001
1.40001
1.40001
1.40001
1.40001
1.40001
1.40001
1.40001
1.40001
1.40001
1.40001
1.40001
1.40001
1.40001
1.40001
1.40001
1.40001
1.40001
1.40001
1.40001
1.40001
1.40001
1.40001
1.40001
1.40001
1.40001
1.40001
1.40001
1.40001
1.40001
1.40001
1.40001
1.40001
1.40001
1.40001
1.40001
1.40001
1.40001
1.40001
1.40001
1.40001
1.40001
1.40001
1.40001
1.40001
1.40001
1.40001
1.40001
1.40001
1.40001
1.40001
1.40001
1.40001
1.40001
1.40001
1.40001
1.40001
1.40001
1.40001
1.40001
1.40001
1.40001
1.40001
1.40001
1.40001
1.40001
1.40001
1.40001
1.40001
1.40001
1.40001
1.40001
1.40001
1.40001
1.40001
1.40001
1.40001
1.40001
1.40001
1.40001
1.40001
1.40001
1.40001
1.40001
1.40001
1.40001
1.40001
1.40001
1.40001
1.40001
1.40001
1.40001
1.40001
1.40001
1.40001
1.40001
1.40001
1.40001
1.40001
1.40001
1.40001
1.40001
1.40001
1.40001
1.40001
1.40001
1.40001
1.40001
1.40001
1.40001
1.40001
1.40001
1.40001
1.40001
1.40001
1.40001
1.40001
1.40001
1.40001
1.40001
1.40001
1.40001
1.40001
1.40001
1.40001
1.40001
1.40001
1.40001
1.40001
1.40001
1.40001
1.40001
1.40001
1.40001
1.40001
1.40001
1.40001
1.40001
1.40001
1.40001
1.40001
1.40001
1.40001
1.40001
1.40001
1.40001
1.40001
1.40001
1.40001
1.40001
1.40001
1.40001
1.40001
1.40001
1.40001
1.40001
1.40001
1.40001
1.40001
1.40001
1.40001
1.40001
1.40001
1.40001
1.40001
1.40001
1.40001
1.40001
1.40001
1.40001
1.40001
1.40001
1.40001
1.40001
1.40001
1.40001
1.40001
1.40001
1.40001
1.40001
1.40001
1.40001
1.40001
1.40001
1.40001
1.40001
1.40001
1.40001
1.40001
1.40001
1.40001
1.40001
1.40001
1.40001
1.40001
1.40001
1.40001
1.40001
1.40001
1.40001
1.40001
1.40001
1.40001
1.40001
1.40001
1.40001
1.40001
1.40001
1.40001
1.40001
1.40001
1.40001
1.40001
1.40001
1.40001
1.40001
1.40001
1.40001
1.40001
1.40001
1.40001
1.40001
1.40001
1.40001
1.40001
1.40001
1.40001
1.40001
1.40001
1.40001
1.40001
1.40001
1.40001
1.40001
1.40001
1.40001
1.40001
1.40001
1.40001
1.40001
1.40001
1.40001
1.40001
1.40001
1.40001
1.40001
1.40001
1.40001
1.40001
1.40001
1.40001
1.40001
1.40001
1.40001
1.40001
1.40001
1.40001
1.40001
1.40001
1.40001
1.40001
1.40001
1.40001
1.40001
1.40001
1.40001
1.40001
1.40001
1.40001
1.40001
1.40001
1.40001
1.40001
1.40001
1.40001
1.40001
1.40001
1.40001
1.40001
1.40001
1.40001
1.40001
1.40001
1.40001
1.40001
1.40001
1.40001
1.40001
1.40001
1.40001
1.40001
1.40001
1.40001
1.40001
1.40001
1.40001
1.40001
1.40001
1.40001
1.40001
1.40001
1.40001
1.40001
1.40001
1.40001
1.40001
1.40001
1.40001
1.40001
1.40001
1.40001
1.40001
1.40001
1.40001
1.40001
1.40001
1.40001
1.40001
1.40001
1.40001
1.40001
1.40001
1.40001
1.40001
1.40001
1.40001
1.40001
1.40001
1.40001
1.40001
1.40001
1.40001
1.40001
1.40001
1.40001
1.40001
1.40001
1.40001
1.40001
1.40001
1.40001
1.40001
1.40001
1.40001
1.40001
1.40001
1.40001
1.40001
1.40001
1.40001
1.40001
1.40001
1.40001
1.40001
1.40001
1.40001
1.40001
1.40001
1.40001
1.40001
1.40001
1.40001
1.40001
1.40001
1.40001
1.40001
1.40001
1.40001
1.40001
1.40001
1.40001
1.40001
1.40001
1.40001
1.40001
1.40001
1.40001
1.40001
1.40001
1.40001
1.40001
1.40001
1.40001
1.40001
1.40001
1.40001
1.40001
1.40001
1.40001
1.40001
1.40001
1.40001
1.40001
1.40001
1.40001
1.40001
1.40001
1.40001
1.40001
1.40001
1.40001
1.40001
1.40001
1.40001
1.40001
1.40001
1.40001
1.40001
1.40001
1.40001
1.40001
1.40001
1.40001
1.40001
1.40001
1.40001
1.40001
1.40001
1.40001
1.40001
1.40001
1.40001
1.40001
1.40001
1.40001
1.40001
1.40001
1.40001
1.40001
1.40001
1.40001
1.40001
1.40001
1.40001
1.40001
1.40001
1.40001
1.40001
1.40001
1.40001
1.40001
1.40001
1.40001
1.40001
1.40001
1.40001
1.40001
1.40001
1.40001
1.40001
1.40001
1.40001
1.40001
1.40001
1.40001
1.40001
1.40001
1.40001
1.40001
1.40001
1.40001
1.40001
1.40001
1.40001
1.40001
1.40001
1.40001
1.40001
1.40001
1.40001
1.40001
1.40001
1.40001
1.40001
1.40001
1.40001
1.40001
1.40001
1.40001
1.40001
1.40001
1.40001
1.40001
1.40001
1.40001
1.40001
1.40001
1.40001
1.40001
1.40001
1.40001
1.40001
1.40001
1.40001
1.40001
1.40001
1.40001
1.40001
1.40001
1.40001
1.40001
1.40001
1.40001
1.40001
1.40001
1.40001
1.40001
1.40001
1.40001
1.40001
1.40001
1.40001
1.40001
1.40001
1.40001
1.40001
1.40001
1.40001
1.40001
1.40001
1.40001
1.40001
1.40001
1.40001
1.40001
1.40001
1.40001
1.40001
1.40001
1.40001
1.40001
1.40001
1.40001
1.40001
1.40001
1.40001
1.40001
1.40001
1.40001
1.40001
1.40001
1.40001
1.40001
1.40001
1.40001
1.40001
1.40001
1.40001
1.40001
1.40001
1.40001
1.40001
1.40001
1.40001
1.40001
1.40001
1.40001
1.40001
1.40001
1.40001
1.40001
1.40001
1.40001
1.40001
1.40001
1.40001
1.40001
1.40001
1.40001
1.40001
1.40001
1.40001
1.40001
1.40001
1.40001
1.40001
1.40001
1.40001
1.40001
1.40001
1.40001
1.40001
1.40001
1.40001
1.40001
1.40001
1.40001
1.40001
1.40001
1.40001
1.40001
1.40001
1.40001
1.40001
1.40001
1.40001
1.40001
1.40001
1.40001
1.40001
1.40001
1.40001
1.40001
1.40001
1.40001
1.40001
1.40001
1.40001
1.40001
1.40001
1.40001
1.40001
1.40001
1.40001
1.40001
1.40001
1.40001
1.40001
1.40001
1.40001
1.40001
1.40001
1.40001
1.40001
1.40001
1.40001
1.40001
1.40001
1.40001
1.40001
1.40001
1.40001
1.40001
1.40001
1.40001
1.40001
1.40001
1.40001
1.40001
1.40001
1.40001
1.40001
1.40001
1.40001
1.40001
1.40001
1.40001
1.40001
1.40001
1.40001
1.40001
1.40001
1.40001
1.40001
1.40001
1.40001
1.40001
1.40001
1.40001
1.40001
1.40001
1.40001
1.40001
1.40001
1.40001
1.40001
1.18708
0.445784
0.178545
0.182514
0.233777
0.275719
0.320931
0.401192
0.525866
0.615659
0.647301
0.674233
0.699903
0.718263
0.745235
0.785651
0.800778
0.798223
0.781315
0.76453
0.759878
0.756027
0.752494
0.749956
0.74461
0.738619
0.732935
0.726524
0.715191
0.704695
1.46799
2.05829
2.02573
1.99034
1.95191
1.90259
1.89392
1.98051
2.18588
2.47682
2.68138
2.76323
2.76005
2.74196
2.71846
2.65149
2.59014
2.56796
1.82613
1.14288
0.744353
0.600147
0.571747
0.51151
0.474277
0.487144
0.494742
0.518432
0.551861
0.589135
0.631626
0.676012
0.713607
0.754925
0.786667
0.790126
0.783733
0.773189
0.77713
0.778518
0.776336
0.771759
0.766331
0.762249
0.756423
0.749655
0.741941
0.732471
1.38521
2.0635
2.04189
1.99859
1.95753
1.91092
1.89947
1.97299
2.17103
2.45238
2.66787
2.75636
2.75609
2.7393
2.71388
2.64705
2.58465
2.56047
2.34694
1.70998
1.31636
1.0341
0.876478
0.747073
0.6378
0.618817
0.602048
0.578268
0.594194
0.632879
0.669859
0.697806
0.723347
0.75115
0.784971
0.805903
0.817244
0.828318
0.846162
0.861553
0.858641
0.850955
0.846217
0.837572
0.824596
0.80854
0.79148
0.778945
1.2404
2.10646
2.1315
2.05238
1.98456
1.92672
1.90613
1.95267
2.12221
2.3733
2.60717
2.72675
2.74661
2.73257
2.7111
2.64455
2.58094
2.55513
2.7249
2.1746
1.73113
1.4421
1.2441
1.07458
0.90917
0.854077
0.82018
0.756751
0.711017
0.710828
0.70019
0.677329
0.681658
0.695471
0.725815
0.758314
0.789748
0.819577
0.843186
0.869918
0.873989
0.877217
0.889392
0.896098
0.89292
0.881176
0.86212
0.845075
1.02335
2.0989
2.29914
2.15808
2.04709
1.96308
1.92069
1.93839
2.03925
2.23388
2.46899
2.64526
2.7198
2.72527
2.70682
2.64572
2.57976
2.55382
2.98263
2.53177
2.12471
1.78269
1.5514
1.36408
1.18662
1.10263
1.02968
0.939602
0.852052
0.821557
0.784853
0.730216
0.699923
0.704769
0.715369
0.719293
0.731252
0.762578
0.796769
0.826915
0.850223
0.866126
0.884596
0.902832
0.902275
0.892481
0.889987
0.892399
0.921094
1.86285
2.47815
2.3282
2.16561
2.02695
1.95455
1.9346
1.97226
2.08082
2.26659
2.48215
2.63955
2.69577
2.68951
2.64268
2.57811
2.55584
3.15934
2.76281
2.39749
2.08575
1.85441
1.63911
1.43013
1.31533
1.22995
1.1386
1.04743
0.994594
0.940619
0.868913
0.798193
0.789632
0.773219
0.744923
0.73302
0.736841
0.740428
0.742813
0.757471
0.787647
0.823145
0.866295
0.886724
0.88501
0.888104
0.89703
0.905202
1.40339
2.54901
2.53343
2.32607
2.14762
2.02275
1.95964
1.94165
1.97439
2.07356
2.25919
2.47283
2.618
2.66097
2.63627
2.58009
2.54599
3.28674
2.94248
2.61631
2.30603
2.07557
1.87294
1.67957
1.54174
1.4274
1.29468
1.1946
1.13974
1.0838
1.00635
0.91895
0.887831
0.858651
0.816826
0.765627
0.755787
0.754012
0.743092
0.734806
0.739125
0.755716
0.782453
0.81464
0.842477
0.859189
0.878764
0.89214
1.00418
2.28787
2.69906
2.48353
2.32165
2.12752
2.01537
1.95787
1.93109
1.95232
2.04999
2.24246
2.4576
2.58175
2.59075
2.54342
2.51079
3.38528
3.07336
2.7669
2.49854
2.28398
2.06742
1.85714
1.72253
1.61098
1.47964
1.35508
1.27874
1.20885
1.12866
1.0449
1.01045
0.977768
0.931861
0.865371
0.836067
0.819969
0.790965
0.758431
0.747581
0.74852
0.74961
0.753344
0.766531
0.789127
0.81662
0.851031
0.869478
1.67988
2.7347
2.6757
2.49171
2.29637
2.11372
2.00255
1.9405
1.90636
1.92134
2.0271
2.22531
2.42589
2.51497
2.4897
2.47381
3.47283
3.19188
2.91653
2.64532
2.42793
2.23534
2.04078
1.88632
1.75596
1.61146
1.496
1.41932
1.34943
1.25905
1.15766
1.10716
1.07011
1.02655
0.967872
0.921306
0.89326
0.858568
0.808585
0.769552
0.765309
0.764269
0.761197
0.75928
0.760075
0.763922
0.777724
0.787013
1.01972
2.54768
2.78246
2.61534
2.44631
2.24912
2.08603
1.97674
1.91124
1.87501
1.89387
2.00574
2.1918
2.34054
2.31576
2.02168
3.57199
3.29983
3.03683
2.7882
2.57651
2.37442
2.18159
2.03137
1.90233
1.76539
1.62653
1.51969
1.44839
1.37816
1.29717
1.22503
1.16755
1.1169
1.06208
1.01243
0.978424
0.945387
0.900137
0.845611
0.829853
0.819731
0.804789
0.790077
0.778753
0.770311
0.75647
0.752746
0.761479
1.93092
2.74848
2.64342
2.52324
2.3795
2.21903
2.0611
1.94917
1.88316
1.84838
1.86328
1.96536
2.10388
2.15606
1.94494
3.65371
3.39285
3.1491
2.91182
2.6967
2.50333
2.32296
2.16274
2.01909
1.88758
1.76863
1.65921
1.55586
1.46879
1.40299
1.33257
1.26508
1.21011
1.1576
1.10788
1.05804
1.01176
0.970504
0.929075
0.895657
0.867476
0.843884
0.830954
0.817679
0.796384
0.76787
0.755907
0.75436
1.24628
2.5587
2.63948
2.54474
2.45025
2.32574
2.18148
2.03057
1.92322
1.8531
1.81585
1.81523
1.88501
1.93013
1.80374
3.76543
3.50968
3.26317
3.03832
2.83011
2.62822
2.4477
2.29615
2.15436
2.01162
1.8868
1.77642
1.66587
1.57828
1.51559
1.44892
1.36986
1.28497
1.23166
1.19846
1.15446
1.10026
1.04921
1.01477
0.979568
0.93851
0.899376
0.887502
0.881254
0.863152
0.824369
0.798771
0.782571
0.827469
2.06204
2.6138
2.54119
2.46234
2.38426
2.27831
2.14272
2.00325
1.89393
1.81741
1.76064
1.74384
1.74251
1.65403
3.82938
3.59694
3.3586
3.12858
2.93268
2.75366
2.57846
2.41562
2.26742
2.13356
2.02026
1.91296
1.78709
1.66714
1.60932
1.56395
1.50155
1.41445
1.31163
1.26318
1.226
1.18158
1.13054
1.09728
1.06651
1.02753
0.971229
0.929215
0.922743
0.911611
0.883423
0.848661
0.830686
0.813159
1.36463
2.53716
2.56125
2.48983
2.41806
2.3378
2.23631
2.10689
1.97155
1.85922
1.77216
1.69333
1.6401
1.55
3.93932
3.70159
3.46655
3.24518
3.04524
2.8607
2.69389
2.54284
2.39408
2.24348
2.1185
2.01975
1.91639
1.80342
1.70501
1.63997
1.58549
1.517
1.42718
1.35938
1.31235
1.25926
1.19653
1.1652
1.14489
1.11382
1.06165
1.00284
0.98538
0.970947
0.946626
0.909246
0.894274
0.864373
0.917918
2.06138
2.58501
2.52602
2.4546
2.38515
2.30124
2.1975
2.06491
1.93019
1.81522
1.71288
1.62103
1.51267
4.07433
3.82814
3.59681
3.37654
3.17659
2.99304
2.81656
2.65367
2.5109
2.37474
2.24559
2.12844
2.02222
1.91337
1.81024
1.73677
1.67804
1.60923
1.51647
1.444
1.39944
1.35017
1.28244
1.23969
1.21688
1.18269
1.13049
1.07077
1.05327
1.03872
1.01178
0.969217
0.948491
0.930788
0.89749
1.3108
2.53043
2.60488
2.51492
2.44028
2.35467
2.2596
2.14643
2.01146
1.87747
1.75535
1.64822
1.53352
4.17029
3.97274
3.71992
3.50466
3.31802
3.13084
2.94696
2.78554
2.63903
2.4877
2.34498
2.23499
2.14522
2.04609
1.92698
1.81759
1.76239
1.70475
1.62505
1.54204
1.48637
1.43313
1.36032
1.31519
1.29376
1.267
1.21173
1.13353
1.11148
1.09912
1.07397
1.03439
1.00682
0.994943
0.947895
0.96688
1.95624
2.68362
2.61073
2.51892
2.42209
2.31671
2.20689
2.07982
1.942
1.81655
1.69941
1.57761
4.07376
4.07942
3.88714
3.63791
3.44253
3.27219
3.08941
2.90868
2.76297
2.6266
2.4861
2.33639
2.23077
2.15243
2.05815
1.9472
1.86347
1.78874
1.70442
1.62882
1.58214
1.5342
1.46319
1.38423
1.36002
1.34103
1.293
1.21815
1.18157
1.16552
1.13928
1.09388
1.06126
1.05018
1.02556
0.97651
1.22644
2.45503
2.74113
2.59577
2.48275
2.37538
2.26229
2.14181
2.01053
1.88646
1.77131
1.64414
3.23479
4.0171
4.00586
3.81785
3.58605
3.38568
3.21807
3.06395
2.90119
2.73936
2.59969
2.47005
2.36071
2.26232
2.1556
2.04606
1.96639
1.90073
1.81605
1.71886
1.66307
1.61881
1.55733
1.48195
1.44538
1.41594
1.36788
1.29145
1.24744
1.23226
1.20862
1.16351
1.1213
1.10788
1.09213
1.03739
1.03989
1.65335
2.75418
2.77854
2.60608
2.4545
2.31851
2.19996
2.08087
1.96661
1.85463
1.72863
1.90369
3.31304
3.9554
3.93485
3.76989
3.54804
3.34524
3.18794
3.03859
2.88861
2.73857
2.58909
2.47107
2.38313
2.29058
2.1721
2.05025
1.98319
1.9147
1.82944
1.77051
1.72173
1.65244
1.55879
1.51605
1.49368
1.45302
1.38787
1.32646
1.29954
1.27225
1.22221
1.18423
1.1723
1.16128
1.13004
1.07355
1.14874
2.12795
2.87474
2.76104
2.59164
2.45078
2.29851
2.15522
2.04259
1.94091
1.82316
1.43102
1.98454
3.30309
3.8872
3.8746
3.73276
3.51266
3.33472
3.17691
3.00914
2.87204
2.7528
2.61759
2.47576
2.38835
2.29889
2.18077
2.08952
2.0129
1.918
1.85568
1.81959
1.76397
1.67052
1.6008
1.56986
1.5273
1.46534
1.41135
1.38151
1.34956
1.29209
1.23888
1.23051
1.22576
1.2052
1.15254
1.13951
1.37796
2.49014
2.92694
2.74471
2.57961
2.45671
2.29942
2.14323
2.02374
1.91562
1.40035
1.44139
2.00424
3.22633
3.84313
3.8217
3.69263
3.49864
3.33344
3.16022
2.99795
2.88005
2.75939
2.61789
2.49825
2.40902
2.29543
2.19295
2.12783
2.0499
1.96077
1.90381
1.84828
1.76278
1.69973
1.66463
1.62133
1.55753
1.48936
1.45549
1.42224
1.36438
1.30965
1.30282
1.29692
1.27588
1.23369
1.18941
1.19041
1.62612
2.72031
2.9776
2.76677
2.58497
2.46474
2.30721
2.14617
2.01079
1.40001
1.40052
1.44573
1.95557
3.17907
3.74874
3.73387
3.68111
3.52158
3.31883
3.14185
3.01913
2.89604
2.7514
2.60706
2.52773
2.43892
2.3167
2.22
2.15641
2.08187
2.01612
1.95414
1.86066
1.77934
1.74723
1.70937
1.64849
1.58164
1.54202
1.50594
1.44576
1.38255
1.37235
1.36824
1.34804
1.30532
1.27048
1.22889
1.25239
1.87233
2.85267
3.03401
2.80968
2.61211
2.47427
2.31911
2.15357
1.40001
1.40001
1.4006
1.44065
1.90625
3.0519
3.60052
3.71129
3.68185
3.52189
3.31229
3.15421
3.03017
2.88722
2.73951
2.64773
2.55968
2.45282
2.36022
2.27721
2.17073
2.10087
2.05801
1.98308
1.88701
1.83599
1.79565
1.7329
1.66307
1.62762
1.59231
1.53746
1.46989
1.45314
1.44489
1.41979
1.36825
1.3373
1.31037
1.27097
1.33085
2.05809
2.95016
3.0845
2.86339
2.64712
2.49664
2.33363
1.40001
1.40001
1.40001
1.40053
1.43303
1.84348
2.81147
3.50602
3.69725
3.66231
3.51204
3.32626
3.17172
3.00122
2.87675
2.7898
2.68846
2.56575
2.47148
2.40797
2.30455
2.19226
2.14182
2.08511
2.00237
1.93928
1.89308
1.82063
1.75102
1.71714
1.68507
1.63141
1.55067
1.53021
1.52152
1.49455
1.44244
1.40583
1.38406
1.3432
1.30561
1.41497
2.20492
3.02394
3.1262
2.92077
2.70132
2.5313
1.40001
1.40001
1.40001
1.40001
1.4004
1.42498
1.7266
2.53557
3.42056
3.6456
3.59445
3.48128
3.34515
3.16062
3.01892
2.90854
2.80853
2.69047
2.57858
2.52524
2.43669
2.31231
2.24287
2.19034
2.10865
2.04085
1.99458
1.92301
1.83498
1.80348
1.78015
1.73181
1.64607
1.6132
1.59833
1.56834
1.51167
1.47623
1.45737
1.43005
1.3586
1.35127
1.50602
2.31026
3.06911
3.15291
3.00199
2.7898
1.40001
1.40001
1.40001
1.40001
1.40001
1.40025
1.41448
1.60375
2.31955
3.30971
3.50975
3.49432
3.47554
3.3619
3.18142
3.03561
2.93226
2.79651
2.69165
2.64383
2.56597
2.43994
2.33686
2.28804
2.22307
2.14848
2.09779
2.03111
1.93548
1.88965
1.87038
1.82773
1.73714
1.69852
1.68004
1.64899
1.58845
1.54519
1.5287
1.5068
1.45255
1.39465
1.40223
1.58632
2.35825
3.07124
3.1868
3.12581
1.40001
1.40001
1.40001
1.40001
1.40001
1.40001
1.40011
1.40699
1.52734
2.17755
3.03266
3.36748
3.50011
3.48627
3.36314
3.21072
3.07635
2.89986
2.81551
2.75793
2.66929
2.56835
2.47446
2.39052
2.3117
2.24654
2.19822
2.14894
2.06521
1.96871
1.94568
1.91879
1.84515
1.78872
1.76251
1.73141
1.66961
1.62198
1.60477
1.5814
1.53568
1.4734
1.45528
1.4693
1.63665
2.33238
3.04453
3.25714
1.40001
1.40001
1.40001
1.40001
1.40001
1.40001
1.40001
1.40004
1.40356
1.48521
1.97335
2.67057
3.26284
3.47373
3.44306
3.34468
3.21887
3.07748
2.97209
2.87726
2.77073
2.65528
2.57172
2.51931
2.45364
2.35535
2.26542
2.23092
2.19013
2.10754
2.03485
1.99608
1.93584
1.87672
1.84821
1.81899
1.75737
1.7043
1.68498
1.66163
1.61422
1.55465
1.53881
1.52495
1.5223
1.65436
2.26038
2.99929
1.40001
1.40001
1.40001
1.40001
1.40001
1.40001
1.40001
1.40001
1.40002
1.40182
1.4457
1.70574
2.29066
3.1302
3.33523
3.2806
3.27795
3.24941
3.14553
3.01716
2.9054
2.78783
2.65409
2.58817
2.56041
2.50072
2.41721
2.31099
2.25711
2.21233
2.14586
2.09582
2.03993
1.96475
1.92667
1.89983
1.84518
1.78933
1.76747
1.74408
1.69739
1.6356
1.61999
1.61101
1.57463
1.56594
1.66071
2.14307
1.40001
1.40001
1.40001
1.40001
1.40001
1.40001
1.40001
1.40001
1.40001
1.40001
1.40057
1.41396
1.52548
2.0546
2.84692
3.15233
3.26321
3.30222
3.26953
3.18586
3.08079
2.93727
2.8088
2.71501
2.61363
2.57452
2.53481
2.44598
2.35812
2.30845
2.23613
2.1818
2.14419
2.07745
2.01492
1.98157
1.93311
1.87927
1.85391
1.83004
1.78259
1.71583
1.69937
1.69418
1.66936
1.61358
1.61286
1.66373
1.40001
1.40001
1.40001
1.40001
1.40001
1.40001
1.40001
1.40001
1.40001
1.40001
1.40001
1.4001
1.4033
1.46983
1.85329
2.49281
2.9328
3.2756
3.30153
3.26922
3.17518
3.07776
2.96271
2.86064
2.74365
2.66037
2.60817
2.53147
2.45684
2.41481
2.35167
2.26738
2.22709
2.18093
2.10825
2.06153
2.02307
1.97276
1.939
1.91285
1.8671
1.79936
1.77885
1.77067
1.7541
1.71195
1.66319
1.65723
1.40001
1.40001
1.40001
1.40001
1.40001
1.40001
1.40001
1.40001
1.40001
1.40001
1.40001
1.40001
1.40002
1.40154
1.43347
1.63596
2.04841
2.69318
3.13918
3.17111
3.16706
3.15127
3.09986
3.0071
2.90781
2.79104
2.70529
2.62026
2.54079
2.50387
2.46021
2.37197
2.30625
2.27408
2.21565
2.13933
2.10514
2.07491
2.03476
1.99434
1.94332
1.88446
1.86329
1.84782
1.8304
1.80361
1.75641
1.71205
1.40001
1.40001
1.40001
1.40001
1.40001
1.40001
1.40001
1.40001
1.40001
1.40001
1.40001
1.40001
1.40001
1.40001
1.40042
1.4089
1.4723
1.73137
2.32892
2.81498
3.09937
3.13589
3.11547
3.09961
3.06866
2.97756
2.85558
2.74542
2.64144
2.58481
2.54923
2.48487
2.38696
2.34759
2.31593
2.25053
2.18094
2.15709
2.13183
2.08522
2.01386
1.97281
1.95166
1.92646
1.90268
1.88287
1.85008
1.79764
1.40001
1.40001
1.40001
1.40001
1.40001
1.40001
1.40001
1.40001
1.40001
1.40001