/*--------------------------------*- C++ -*----------------------------------*\
  =========                 |
  \\      /  F ield         | OpenFOAM: The Open Source CFD Toolbox
   \\    /   O peration     | Website:  https://openfoam.org
    \\  /    A nd           | Version:  7
     \\/     M anipulation  |
\*---------------------------------------------------------------------------*/
FoamFile
{
    version     2.0;
    format      ascii;
    class       volVectorField;
    location    "2.9";
    object      U;
}
// * * * * * * * * * * * * * * * * * * * * * * * * * * * * * * * * * * * * * //

dimensions      [0 1 -1 0 0 0 0];

internalField   nonuniform List<vector> 
16192
(
(2.66676 0.107627 0)
(2.66859 0.106817 0)
(2.67296 0.105674 0)
(2.67989 0.10478 0)
(2.6834 0.104213 0)
(2.68653 0.103351 0)
(2.69029 0.102319 0)
(2.6931 0.100352 0)
(2.6925 0.0944618 0)
(2.68666 0.0857011 0)
(2.68476 0.0810429 0)
(2.6867 0.080884 0)
(2.68989 0.0803637 0)
(2.69469 0.0795401 0)
(2.69735 0.0784351 0)
(2.69952 0.0772897 0)
(2.70132 0.0761204 0)
(2.70183 0.0741438 0)
(2.69966 0.0697515 0)
(2.6967 0.0653615 0)
(2.69693 0.0643881 0)
(2.69798 0.0644201 0)
(2.70057 0.0651905 0)
(2.70318 0.0663414 0)
(2.70391 0.0663971 0)
(2.70412 0.0657452 0)
(2.70241 0.0635902 0)
(2.69706 0.0592278 0)
(2.69317 0.0566889 0)
(2.69306 0.0565848 0)
(2.69354 0.0570137 0)
(2.6957 0.0591023 0)
(2.70143 0.0644016 0)
(2.70801 0.0696848 0)
(2.70974 0.0709075 0)
(2.70985 0.0708989 0)
(2.70991 0.0706014 0)
(2.70951 0.0692389 0)
(2.70704 0.0659257 0)
(2.69983 0.0585156 0)
(2.69237 0.0518349 0)
(2.69146 0.0508055 0)
(2.69225 0.0511237 0)
(2.69306 0.0513648 0)
(2.69388 0.0515805 0)
(2.69676 0.0528101 0)
(2.70343 0.0577225 0)
(2.71416 0.0664289 0)
(2.72077 0.0709981 0)
(2.72168 0.0714187 0)
(2.72241 0.0711069 0)
(2.72182 0.069568 0)
(2.71777 0.0651371 0)
(2.70754 0.054451 0)
(2.69852 0.0451559 0)
(2.69771 0.0431909 0)
(2.6982 0.0428207 0)
(2.69891 0.0426887 0)
(2.70099 0.0436947 0)
(2.70568 0.0481148 0)
(2.71397 0.0563883 0)
(2.72027 0.0619705 0)
(2.7215 0.0630835 0)
(2.72177 0.0632036 0)
(2.72174 0.063431 0)
(2.71951 0.061159 0)
(2.71348 0.0525627 0)
(2.69354 0.0227544 0)
(2.59 -0.115487 0)
(2.25403 -0.476809 0)
(2.10902 -0.678545 0)
(2.09457 -0.630851 0)
(2.10968 -0.611571 0)
(2.10385 -0.620637 0)
(2.08227 -0.640989 0)
(2.05679 -0.663459 0)
(2.05401 -0.664754 0)
(2.05783 -0.655333 0)
(2.07136 -0.638898 0)
(2.08711 -0.626602 0)
(2.09157 -0.623933 0)
(2.09133 -0.624823 0)
(2.09012 -0.628013 0)
(2.08788 -0.631001 0)
(2.08766 -0.632959 0)
(2.09025 -0.633573 0)
(2.09521 -0.63309 0)
(2.10015 -0.633616 0)
(2.1054 -0.632487 0)
(2.11216 -0.629817 0)
(2.11867 -0.626458 0)
(2.12266 -0.625479 0)
(2.12694 -0.62436 0)
(2.1305 -0.624816 0)
(2.13352 -0.627086 0)
(2.13557 -0.629406 0)
(2.13691 -0.630338 0)
(2.13861 -0.629961 0)
(2.14155 -0.62947 0)
(2.14466 -0.628902 0)
(2.14775 -0.627895 0)
(2.15109 -0.627253 0)
(2.15451 -0.627115 0)
(2.15857 -0.62646 0)
(2.16359 -0.624451 0)
(2.1672 -0.621825 0)
(2.16995 -0.62036 0)
(2.17243 -0.619001 0)
(2.17322 -0.617809 0)
(2.1727 -0.61788 0)
(2.17303 -0.619144 0)
(2.1742 -0.62026 0)
(2.17582 -0.620724 0)
(2.17701 -0.62054 0)
(2.17814 -0.619102 0)
(2.17901 -0.616517 0)
(2.1801 -0.613191 0)
(2.18119 -0.608653 0)
(2.18261 -0.603426 0)
(2.18407 -0.599812 0)
(2.18449 -0.598844 0)
(2.18472 -0.598561 0)
(2.18527 -0.598336 0)
(2.18584 -0.59837 0)
(2.18577 -0.59823 0)
(2.18662 -0.596413 0)
(2.1887 -0.593552 0)
(2.19104 -0.591137 0)
(2.19363 -0.590245 0)
(2.19641 -0.590208 0)
(2.19864 -0.590517 0)
(2.20125 -0.590574 0)
(2.20442 -0.590894 0)
(2.20784 -0.590401 0)
(2.21198 -0.588704 0)
(2.21613 -0.586272 0)
(2.21953 -0.584138 0)
(2.22242 -0.582137 0)
(2.22365 -0.580243 0)
(2.22302 -0.579875 0)
(2.22275 -0.581036 0)
(2.22524 -0.582252 0)
(2.22813 -0.582843 0)
(2.2314 -0.582397 0)
(2.23549 -0.581104 0)
(2.24024 -0.579207 0)
(2.24393 -0.577424 0)
(2.24729 -0.576433 0)
(2.25011 -0.575262 0)
(2.25172 -0.57349 0)
(2.2518 -0.571752 0)
(2.25197 -0.570776 0)
(2.25334 -0.570229 0)
(2.25564 -0.570042 0)
(2.2581 -0.570235 0)
(2.26057 -0.570545 0)
(2.26336 -0.570732 0)
(2.26639 -0.570078 0)
(2.27009 -0.568025 0)
(2.27365 -0.564642 0)
(2.27645 -0.561665 0)
(2.27874 -0.559404 0)
(2.28048 -0.558312 0)
(2.28255 -0.558409 0)
(2.28456 -0.559531 0)
(2.28645 -0.561083 0)
(2.28822 -0.562614 0)
(2.28969 -0.562791 0)
(2.29227 -0.561926 0)
(2.29494 -0.560186 0)
(2.29802 -0.557737 0)
(2.30101 -0.5556 0)
(2.30363 -0.55261 0)
(2.30655 -0.549596 0)
(2.30965 -0.547837 0)
(2.31246 -0.546659 0)
(2.31514 -0.545482 0)
(2.31763 -0.544158 0)
(2.31961 -0.542869 0)
(2.32122 -0.541742 0)
(2.32236 -0.540721 0)
(2.32276 -0.540082 0)
(2.32198 -0.539919 0)
(2.32157 -0.539254 0)
(2.32268 -0.538155 0)
(2.324 -0.536786 0)
(2.32568 -0.535191 0)
(2.32772 -0.533832 0)
(2.33083 -0.532308 0)
(2.33585 -0.529015 0)
(2.34224 -0.524183 0)
(2.34707 -0.521007 0)
(2.34972 -0.520533 0)
(2.35248 -0.520596 0)
(2.35476 -0.521372 0)
(2.35603 -0.523105 0)
(2.35556 -0.524887 0)
(2.35495 -0.524751 0)
(2.35634 -0.522711 0)
(2.35867 -0.521012 0)
(2.36135 -0.519928 0)
(2.36432 -0.518849 0)
(2.3677 -0.517676 0)
(2.37288 -0.51652 0)
(2.37788 -0.515717 0)
(2.38002 -0.515664 0)
(2.38282 -0.516051 0)
(2.38508 -0.516744 0)
(2.38717 -0.517522 0)
(2.38899 -0.518153 0)
(2.39051 -0.518467 0)
(2.39205 -0.51798 0)
(2.39385 -0.515893 0)
(2.39569 -0.512607 0)
(2.39781 -0.5092 0)
(2.4005 -0.505992 0)
(2.40358 -0.50243 0)
(2.40573 -0.499109 0)
(2.4079 -0.497865 0)
(2.41015 -0.497531 0)
(2.41192 -0.497915 0)
(2.41381 -0.499214 0)
(2.41582 -0.501503 0)
(2.41824 -0.504061 0)
(2.42194 -0.507524 0)
(2.42616 -0.510561 0)
(2.42946 -0.510721 0)
(2.43128 -0.510054 0)
(2.43222 -0.507162 0)
(2.4319 -0.501689 0)
(2.4301 -0.493629 0)
(2.42769 -0.484409 0)
(2.42716 -0.478215 0)
(2.42765 -0.475001 0)
(2.42716 -0.473388 0)
(2.42671 -0.472573 0)
(2.42648 -0.472157 0)
(2.42712 -0.472657 0)
(2.42998 -0.47458 0)
(2.43457 -0.476593 0)
(2.43694 -0.476533 0)
(2.43818 -0.475332 0)
(2.43899 -0.473079 0)
(2.43896 -0.469273 0)
(2.43745 -0.463162 0)
(2.43557 -0.457325 0)
(2.43618 -0.454988 0)
(2.4382 -0.454409 0)
(2.44057 -0.45428 0)
(2.44287 -0.454321 0)
(2.4454 -0.454325 0)
(2.44942 -0.455297 0)
(2.45481 -0.458709 0)
(2.66477 0.115542 0)
(2.66933 0.114916 0)
(2.67646 0.114847 0)
(2.68068 0.114363 0)
(2.68303 0.11302 0)
(2.68625 0.111234 0)
(2.68909 0.109092 0)
(2.68939 0.103539 0)
(2.68435 0.0943119 0)
(2.68188 0.0887355 0)
(2.68398 0.0884725 0)
(2.6874 0.0880395 0)
(2.69218 0.0870741 0)
(2.69541 0.0858618 0)
(2.69816 0.0846666 0)
(2.70036 0.0834247 0)
(2.70144 0.0814106 0)
(2.69969 0.0766269 0)
(2.69608 0.0707743 0)
(2.69612 0.0689049 0)
(2.6973 0.0687191 0)
(2.70023 0.0689645 0)
(2.70319 0.0696257 0)
(2.70425 0.0694687 0)
(2.70519 0.0685983 0)
(2.70448 0.0663372 0)
(2.69976 0.0615948 0)
(2.69481 0.0575098 0)
(2.69437 0.0567768 0)
(2.69485 0.0570645 0)
(2.69682 0.0588197 0)
(2.70211 0.0638915 0)
(2.70906 0.070126 0)
(2.71135 0.0721066 0)
(2.71143 0.0722229 0)
(2.71135 0.0723179 0)
(2.7108 0.0716411 0)
(2.70814 0.0686962 0)
(2.70094 0.0607107 0)
(2.69299 0.0522474 0)
(2.69174 0.0497897 0)
(2.69235 0.0493813 0)
(2.69308 0.0490887 0)
(2.69454 0.0491711 0)
(2.69759 0.0510977 0)
(2.70401 0.0573411 0)
(2.71473 0.0674793 0)
(2.72159 0.0727409 0)
(2.72252 0.0731721 0)
(2.72308 0.0724604 0)
(2.7228 0.070406 0)
(2.71937 0.0658832 0)
(2.70937 0.0552418 0)
(2.69921 0.0460333 0)
(2.6977 0.0446957 0)
(2.69826 0.0448065 0)
(2.69886 0.0447672 0)
(2.701 0.045345 0)
(2.70625 0.04927 0)
(2.7153 0.0574438 0)
(2.72171 0.0628103 0)
(2.72288 0.0637807 0)
(2.72331 0.0638368 0)
(2.72327 0.0637539 0)
(2.72156 0.0631519 0)
(2.71293 0.0475078 0)
(2.67961 -0.0037301 0)
(2.5572 -0.180236 0)
(2.32971 -0.416022 0)
(2.08279 -0.658251 0)
(2.03917 -0.712628 0)
(2.04285 -0.676314 0)
(2.08523 -0.633821 0)
(2.09839 -0.619147 0)
(2.09752 -0.626386 0)
(2.08075 -0.64547 0)
(2.06953 -0.661391 0)
(2.06562 -0.660892 0)
(2.06972 -0.652564 0)
(2.08448 -0.637702 0)
(2.09544 -0.623317 0)
(2.09759 -0.621642 0)
(2.09779 -0.624377 0)
(2.09452 -0.629699 0)
(2.09056 -0.635442 0)
(2.09186 -0.637142 0)
(2.09622 -0.636658 0)
(2.1041 -0.633163 0)
(2.1142 -0.627694 0)
(2.12019 -0.624692 0)
(2.12343 -0.625137 0)
(2.12618 -0.625758 0)
(2.12775 -0.625674 0)
(2.13054 -0.62637 0)
(2.13425 -0.627624 0)
(2.13769 -0.629126 0)
(2.14064 -0.630184 0)
(2.14308 -0.630383 0)
(2.14525 -0.629852 0)
(2.14785 -0.629135 0)
(2.15071 -0.627966 0)
(2.1539 -0.626219 0)
(2.15751 -0.624769 0)
(2.16284 -0.623281 0)
(2.16857 -0.620872 0)
(2.17147 -0.619518 0)
(2.17422 -0.618948 0)
(2.17591 -0.61829 0)
(2.1755 -0.618057 0)
(2.1738 -0.618709 0)
(2.17394 -0.619223 0)
(2.1758 -0.619232 0)
(2.1774 -0.61896 0)
(2.17922 -0.618406 0)
(2.18214 -0.617365 0)
(2.18446 -0.614621 0)
(2.18614 -0.610716 0)
(2.1875 -0.606111 0)
(2.18764 -0.602945 0)
(2.18706 -0.600985 0)
(2.18697 -0.599522 0)
(2.18688 -0.598663 0)
(2.18695 -0.598306 0)
(2.18713 -0.598023 0)
(2.18825 -0.596494 0)
(2.19008 -0.593642 0)
(2.19194 -0.590919 0)
(2.19402 -0.589792 0)
(2.19595 -0.589685 0)
(2.19717 -0.589839 0)
(2.19865 -0.589217 0)
(2.2016 -0.588124 0)
(2.20487 -0.587341 0)
(2.20883 -0.586419 0)
(2.21445 -0.585417 0)
(2.21877 -0.583759 0)
(2.22216 -0.582667 0)
(2.22546 -0.58205 0)
(2.22679 -0.581528 0)
(2.22446 -0.581091 0)
(2.22401 -0.580651 0)
(2.22682 -0.580466 0)
(2.22985 -0.580441 0)
(2.23336 -0.579954 0)
(2.23866 -0.579171 0)
(2.24401 -0.577622 0)
(2.24752 -0.576432 0)
(2.25073 -0.575915 0)
(2.25349 -0.575412 0)
(2.2551 -0.574415 0)
(2.25486 -0.572726 0)
(2.25438 -0.570855 0)
(2.2555 -0.569401 0)
(2.25759 -0.568462 0)
(2.26003 -0.567861 0)
(2.26279 -0.567315 0)
(2.26601 -0.566609 0)
(2.27057 -0.565856 0)
(2.27554 -0.564247 0)
(2.27901 -0.562552 0)
(2.282 -0.561683 0)
(2.28467 -0.560677 0)
(2.28585 -0.558943 0)
(2.28621 -0.557791 0)
(2.28771 -0.558197 0)
(2.28932 -0.559122 0)
(2.29203 -0.559788 0)
(2.29488 -0.560424 0)
(2.29785 -0.560269 0)
(2.30093 -0.558915 0)
(2.30437 -0.557181 0)
(2.30795 -0.555559 0)
(2.31132 -0.552931 0)
(2.31325 -0.550206 0)
(2.31636 -0.548022 0)
(2.31888 -0.546206 0)
(2.32083 -0.544493 0)
(2.32263 -0.543071 0)
(2.32443 -0.542149 0)
(2.32565 -0.541798 0)
(2.32622 -0.541696 0)
(2.32582 -0.541667 0)
(2.3257 -0.540851 0)
(2.32661 -0.539227 0)
(2.32792 -0.537239 0)
(2.32936 -0.535746 0)
(2.33095 -0.534403 0)
(2.33349 -0.532138 0)
(2.33763 -0.527988 0)
(2.34339 -0.52286 0)
(2.34814 -0.519758 0)
(2.35021 -0.519563 0)
(2.35251 -0.52004 0)
(2.35482 -0.520802 0)
(2.35645 -0.522502 0)
(2.35708 -0.524976 0)
(2.35733 -0.526978 0)
(2.35915 -0.526396 0)
(2.36154 -0.524151 0)
(2.36428 -0.52134 0)
(2.36714 -0.518925 0)
(2.36986 -0.516253 0)
(2.37307 -0.513453 0)
(2.3775 -0.510759 0)
(2.38034 -0.509628 0)
(2.38227 -0.510177 0)
(2.38444 -0.511671 0)
(2.38718 -0.512814 0)
(2.38942 -0.514873 0)
(2.39071 -0.516875 0)
(2.39352 -0.517549 0)
(2.39646 -0.517863 0)
(2.39899 -0.517828 0)
(2.40213 -0.515717 0)
(2.40541 -0.51172 0)
(2.40812 -0.506776 0)
(2.4102 -0.501976 0)
(2.41153 -0.498181 0)
(2.41251 -0.495763 0)
(2.41371 -0.494754 0)
(2.41489 -0.494574 0)
(2.41612 -0.495463 0)
(2.41806 -0.497149 0)
(2.42001 -0.498963 0)
(2.42216 -0.500802 0)
(2.42648 -0.504171 0)
(2.43242 -0.508153 0)
(2.43712 -0.508532 0)
(2.43919 -0.507207 0)
(2.44053 -0.504565 0)
(2.44119 -0.50033 0)
(2.44016 -0.493821 0)
(2.43601 -0.484362 0)
(2.43235 -0.477057 0)
(2.4316 -0.473897 0)
(2.43072 -0.472205 0)
(2.43013 -0.470951 0)
(2.42948 -0.469946 0)
(2.42948 -0.469355 0)
(2.43191 -0.469795 0)
(2.43727 -0.471218 0)
(2.44085 -0.471815 0)
(2.44244 -0.471158 0)
(2.44414 -0.469594 0)
(2.44398 -0.467306 0)
(2.4423 -0.462079 0)
(2.44109 -0.455742 0)
(2.44188 -0.452034 0)
(2.44382 -0.450475 0)
(2.4463 -0.449755 0)
(2.44899 -0.449342 0)
(2.45132 -0.449482 0)
(2.45406 -0.450529 0)
(2.66538 0.123558 0)
(2.67315 0.124463 0)
(2.67783 0.125035 0)
(2.68026 0.123977 0)
(2.68328 0.121732 0)
(2.68551 0.119278 0)
(2.68594 0.113737 0)
(2.6812 0.10356 0)
(2.67795 0.0964949 0)
(2.68017 0.095907 0)
(2.6837 0.0956558 0)
(2.68892 0.094857 0)
(2.69296 0.093713 0)
(2.69607 0.0926566 0)
(2.69873 0.0915814 0)
(2.70045 0.0896888 0)
(2.69928 0.0850566 0)
(2.69503 0.0781434 0)
(2.69472 0.0751254 0)
(2.69613 0.0748304 0)
(2.69909 0.0744422 0)
(2.70231 0.0743865 0)
(2.70378 0.0740826 0)
(2.70537 0.0728212 0)
(2.7055 0.0705777 0)
(2.70184 0.0656756 0)
(2.6962 0.0601388 0)
(2.69515 0.0584009 0)
(2.69568 0.0585121 0)
(2.69772 0.0597233 0)
(2.70282 0.064272 0)
(2.71008 0.0708561 0)
(2.71305 0.0734868 0)
(2.71319 0.073694 0)
(2.71304 0.0737493 0)
(2.71238 0.0729464 0)
(2.70967 0.069821 0)
(2.70236 0.0617958 0)
(2.69381 0.0535049 0)
(2.69196 0.0516008 0)
(2.69249 0.0515818 0)
(2.6931 0.0516667 0)
(2.69424 0.0519637 0)
(2.69723 0.0538091 0)
(2.704 0.0599369 0)
(2.71499 0.0697856 0)
(2.72195 0.0747595 0)
(2.72306 0.0752247 0)
(2.72395 0.0749403 0)
(2.72359 0.0734432 0)
(2.72 0.069029 0)
(2.70984 0.0577673 0)
(2.69913 0.0465177 0)
(2.69789 0.0437163 0)
(2.69864 0.0432338 0)
(2.69941 0.0431558 0)
(2.70184 0.0443946 0)
(2.70723 0.0493992 0)
(2.71648 0.0585399 0)
(2.72307 0.0642162 0)
(2.72422 0.0651399 0)
(2.7247 0.0650147 0)
(2.72457 0.065181 0)
(2.72236 0.0634995 0)
(2.71338 0.0459667 0)
(2.66618 -0.0198151 0)
(2.46477 -0.297806 0)
(2.30329 -0.480653 0)
(2.14662 -0.586269 0)
(2.09028 -0.671762 0)
(2.05891 -0.688818 0)
(2.05381 -0.682188 0)
(2.0666 -0.666096 0)
(2.08282 -0.641971 0)
(2.09114 -0.634838 0)
(2.08842 -0.63953 0)
(2.08251 -0.648142 0)
(2.07989 -0.651751 0)
(2.08145 -0.648009 0)
(2.09057 -0.637119 0)
(2.09883 -0.62778 0)
(2.10231 -0.624994 0)
(2.10192 -0.626197 0)
(2.09636 -0.632021 0)
(2.09342 -0.635571 0)
(2.0956 -0.636042 0)
(2.10063 -0.63465 0)
(2.1112 -0.629183 0)
(2.12104 -0.62408 0)
(2.12512 -0.62373 0)
(2.12844 -0.625003 0)
(2.12935 -0.626546 0)
(2.12823 -0.627349 0)
(2.1303 -0.62802 0)
(2.13482 -0.628964 0)
(2.13918 -0.629293 0)
(2.14295 -0.629756 0)
(2.14607 -0.630014 0)
(2.14856 -0.629548 0)
(2.1509 -0.628331 0)
(2.15376 -0.627034 0)
(2.157 -0.625505 0)
(2.16113 -0.623276 0)
(2.16712 -0.619992 0)
(2.17184 -0.617598 0)
(2.17445 -0.617717 0)
(2.17659 -0.618129 0)
(2.1775 -0.618458 0)
(2.17606 -0.618987 0)
(2.17442 -0.619016 0)
(2.17557 -0.618356 0)
(2.17768 -0.617624 0)
(2.17973 -0.616886 0)
(2.18191 -0.616091 0)
(2.18552 -0.614573 0)
(2.18953 -0.611239 0)
(2.19201 -0.607721 0)
(2.19252 -0.605615 0)
(2.19194 -0.6039 0)
(2.19042 -0.601995 0)
(2.18964 -0.600281 0)
(2.18935 -0.599156 0)
(2.18925 -0.597894 0)
(2.18998 -0.596679 0)
(2.1914 -0.594476 0)
(2.19284 -0.591539 0)
(2.19463 -0.589786 0)
(2.1962 -0.589187 0)
(2.19707 -0.589165 0)
(2.1976 -0.58879 0)
(2.19951 -0.587038 0)
(2.20283 -0.584859 0)
(2.2066 -0.583022 0)
(2.21102 -0.581641 0)
(2.21633 -0.580697 0)
(2.22021 -0.580983 0)
(2.2239 -0.581845 0)
(2.22729 -0.582553 0)
(2.22827 -0.582965 0)
(2.22636 -0.582114 0)
(2.22593 -0.57997 0)
(2.22853 -0.578493 0)
(2.23185 -0.577629 0)
(2.23561 -0.576731 0)
(2.24132 -0.575896 0)
(2.24744 -0.574996 0)
(2.25076 -0.574434 0)
(2.25373 -0.574622 0)
(2.2565 -0.574848 0)
(2.25824 -0.57463 0)
(2.25814 -0.573725 0)
(2.25827 -0.572145 0)
(2.25982 -0.570103 0)
(2.26206 -0.567921 0)
(2.26468 -0.566104 0)
(2.26758 -0.564678 0)
(2.27077 -0.563406 0)
(2.27521 -0.562373 0)
(2.27988 -0.561522 0)
(2.28292 -0.561192 0)
(2.28604 -0.561219 0)
(2.28898 -0.56108 0)
(2.29105 -0.560561 0)
(2.29124 -0.559155 0)
(2.29126 -0.55771 0)
(2.29307 -0.556946 0)
(2.29596 -0.556636 0)
(2.29907 -0.556641 0)
(2.30225 -0.556361 0)
(2.306 -0.555568 0)
(2.30974 -0.554746 0)
(2.31344 -0.554008 0)
(2.31758 -0.55227 0)
(2.31992 -0.550144 0)
(2.32273 -0.548535 0)
(2.32535 -0.546948 0)
(2.32722 -0.545275 0)
(2.32836 -0.543552 0)
(2.32925 -0.542216 0)
(2.33003 -0.54196 0)
(2.33 -0.542108 0)
(2.33011 -0.541638 0)
(2.33113 -0.54082 0)
(2.33238 -0.539878 0)
(2.33375 -0.538497 0)
(2.33534 -0.536009 0)
(2.33785 -0.532693 0)
(2.34158 -0.527876 0)
(2.34642 -0.521848 0)
(2.35005 -0.518272 0)
(2.35157 -0.517847 0)
(2.35346 -0.518009 0)
(2.35546 -0.518924 0)
(2.35685 -0.520782 0)
(2.3576 -0.523089 0)
(2.35795 -0.525266 0)
(2.36043 -0.525844 0)
(2.36341 -0.52583 0)
(2.36638 -0.525157 0)
(2.37011 -0.522869 0)
(2.37396 -0.518826 0)
(2.37679 -0.513462 0)
(2.379 -0.509063 0)
(2.38104 -0.5063 0)
(2.38288 -0.505431 0)
(2.38483 -0.50532 0)
(2.38676 -0.506193 0)
(2.38846 -0.508889 0)
(2.39027 -0.511987 0)
(2.39274 -0.513574 0)
(2.3956 -0.515074 0)
(2.39953 -0.516384 0)
(2.40376 -0.516349 0)
(2.40802 -0.514623 0)
(2.41185 -0.511022 0)
(2.41477 -0.507757 0)
(2.41762 -0.504887 0)
(2.41932 -0.50122 0)
(2.41891 -0.497054 0)
(2.41779 -0.49446 0)
(2.41768 -0.493872 0)
(2.41827 -0.493972 0)
(2.41989 -0.494388 0)
(2.42218 -0.495124 0)
(2.42419 -0.495983 0)
(2.42639 -0.497126 0)
(2.43161 -0.500086 0)
(2.43947 -0.503575 0)
(2.445 -0.503232 0)
(2.44743 -0.501775 0)
(2.44866 -0.500234 0)
(2.44939 -0.498063 0)
(2.44762 -0.493672 0)
(2.44146 -0.485258 0)
(2.43625 -0.477329 0)
(2.43512 -0.473066 0)
(2.43494 -0.470384 0)
(2.43469 -0.468145 0)
(2.43398 -0.465954 0)
(2.43394 -0.463838 0)
(2.43629 -0.463158 0)
(2.44116 -0.465294 0)
(2.44514 -0.467989 0)
(2.44655 -0.468389 0)
(2.44837 -0.467582 0)
(2.44897 -0.465774 0)
(2.44933 -0.461866 0)
(2.44973 -0.456438 0)
(2.44996 -0.451347 0)
(2.45044 -0.447991 0)
(2.45177 -0.446543 0)
(2.45386 -0.446064 0)
(2.45617 -0.44642 0)
(2.66954 0.133775 0)
(2.67476 0.134916 0)
(2.67728 0.134268 0)
(2.68069 0.132511 0)
(2.68305 0.130555 0)
(2.6836 0.125661 0)
(2.67853 0.114741 0)
(2.67343 0.105248 0)
(2.67528 0.10359 0)
(2.67874 0.103157 0)
(2.68459 0.102349 0)
(2.68932 0.10156 0)
(2.69322 0.100753 0)
(2.69633 0.0999208 0)
(2.69866 0.0984065 0)
(2.69837 0.0943671 0)
(2.69396 0.086815 0)
(2.69287 0.0826147 0)
(2.6945 0.082248 0)
(2.69739 0.0816264 0)
(2.70057 0.0808024 0)
(2.70265 0.0797941 0)
(2.70473 0.0784619 0)
(2.70556 0.0762683 0)
(2.7031 0.0713388 0)
(2.69725 0.0647467 0)
(2.69538 0.0616494 0)
(2.69589 0.0615063 0)
(2.69808 0.0621156 0)
(2.70322 0.06597 0)
(2.71079 0.0725385 0)
(2.71449 0.0756448 0)
(2.71483 0.0759621 0)
(2.71474 0.0760296 0)
(2.71409 0.0754 0)
(2.71102 0.0723059 0)
(2.7031 0.0636816 0)
(2.69429 0.0541069 0)
(2.69262 0.0512003 0)
(2.69323 0.0507602 0)
(2.69382 0.0506345 0)
(2.69526 0.051023 0)
(2.69841 0.0535555 0)
(2.70513 0.0608134 0)
(2.7158 0.071115 0)
(2.72224 0.0759849 0)
(2.72321 0.0763451 0)
(2.72375 0.0754709 0)
(2.72376 0.0733054 0)
(2.72114 0.0689482 0)
(2.71168 0.058201 0)
(2.69992 0.0473623 0)
(2.69749 0.0454463 0)
(2.69824 0.0457299 0)
(2.69893 0.0458973 0)
(2.70145 0.0466641 0)
(2.70753 0.0511681 0)
(2.71768 0.0602936 0)
(2.72442 0.0660602 0)
(2.72556 0.0669129 0)
(2.72607 0.0668445 0)
(2.7259 0.0663221 0)
(2.72335 0.064225 0)
(2.71337 0.0440213 0)
(2.66583 -0.0251335 0)
(2.44126 -0.285879 0)
(2.16787 -0.638051 0)
(2.1109 -0.633761 0)
(2.11759 -0.611926 0)
(2.11833 -0.626966 0)
(2.1021 -0.656034 0)
(2.07308 -0.673998 0)
(2.06417 -0.676631 0)
(2.07047 -0.673139 0)
(2.08109 -0.657907 0)
(2.0918 -0.64553 0)
(2.09698 -0.642679 0)
(2.09787 -0.640488 0)
(2.0966 -0.638767 0)
(2.09749 -0.636874 0)
(2.09941 -0.636012 0)
(2.10227 -0.634952 0)
(2.10211 -0.633499 0)
(2.09937 -0.633733 0)
(2.10036 -0.634289 0)
(2.10264 -0.633561 0)
(2.10897 -0.629869 0)
(2.11845 -0.625183 0)
(2.1235 -0.624301 0)
(2.12786 -0.625186 0)
(2.13098 -0.626396 0)
(2.13205 -0.628303 0)
(2.1319 -0.62956 0)
(2.13311 -0.629202 0)
(2.13678 -0.629121 0)
(2.14087 -0.629285 0)
(2.14477 -0.629458 0)
(2.14823 -0.629485 0)
(2.15117 -0.629137 0)
(2.15395 -0.628074 0)
(2.15707 -0.626114 0)
(2.16064 -0.623345 0)
(2.16551 -0.620024 0)
(2.17068 -0.6169 0)
(2.17338 -0.616612 0)
(2.17629 -0.616871 0)
(2.17836 -0.616921 0)
(2.17806 -0.61768 0)
(2.17605 -0.618936 0)
(2.17587 -0.619067 0)
(2.17795 -0.618297 0)
(2.18031 -0.617258 0)
(2.18277 -0.615978 0)
(2.18555 -0.614564 0)
(2.18989 -0.612095 0)
(2.19434 -0.608672 0)
(2.19631 -0.606661 0)
(2.19676 -0.605585 0)
(2.19616 -0.604195 0)
(2.19408 -0.602323 0)
(2.19297 -0.600532 0)
(2.19259 -0.599175 0)
(2.19252 -0.597024 0)
(2.19335 -0.594435 0)
(2.1943 -0.591948 0)
(2.19536 -0.590061 0)
(2.19696 -0.58865 0)
(2.19802 -0.588013 0)
(2.19847 -0.588004 0)
(2.19978 -0.587724 0)
(2.20264 -0.586104 0)
(2.20626 -0.583378 0)
(2.21058 -0.580487 0)
(2.21437 -0.577831 0)
(2.21777 -0.577597 0)
(2.22141 -0.578282 0)
(2.22457 -0.579718 0)
(2.22722 -0.581214 0)
(2.22904 -0.582796 0)
(2.23024 -0.582863 0)
(2.23176 -0.580917 0)
(2.23422 -0.578194 0)
(2.23744 -0.575957 0)
(2.24092 -0.574144 0)
(2.24532 -0.572634 0)
(2.25053 -0.571732 0)
(2.25359 -0.571959 0)
(2.2565 -0.572759 0)
(2.25918 -0.573528 0)
(2.26094 -0.574037 0)
(2.2612 -0.573683 0)
(2.26246 -0.572783 0)
(2.26483 -0.571595 0)
(2.26779 -0.569796 0)
(2.27101 -0.567699 0)
(2.274 -0.565099 0)
(2.27707 -0.56196 0)
(2.28042 -0.55996 0)
(2.28347 -0.559418 0)
(2.2867 -0.559388 0)
(2.28972 -0.559868 0)
(2.29228 -0.560554 0)
(2.29477 -0.560889 0)
(2.29647 -0.560538 0)
(2.2976 -0.559188 0)
(2.29956 -0.557484 0)
(2.30223 -0.556167 0)
(2.30514 -0.555019 0)
(2.3081 -0.554044 0)
(2.31113 -0.553058 0)
(2.31426 -0.552102 0)
(2.31775 -0.551271 0)
(2.32239 -0.549878 0)
(2.32595 -0.54834 0)
(2.32825 -0.547657 0)
(2.33098 -0.546975 0)
(2.33332 -0.545755 0)
(2.33463 -0.544466 0)
(2.33384 -0.543783 0)
(2.33268 -0.543372 0)
(2.33394 -0.542831 0)
(2.33554 -0.542018 0)
(2.33683 -0.540329 0)
(2.33825 -0.538063 0)
(2.34004 -0.536107 0)
(2.34277 -0.53333 0)
(2.34639 -0.528147 0)
(2.35092 -0.521816 0)
(2.35398 -0.518118 0)
(2.3552 -0.517109 0)
(2.35616 -0.516252 0)
(2.35687 -0.516426 0)
(2.35736 -0.518186 0)
(2.35794 -0.520812 0)
(2.35865 -0.522643 0)
(2.36108 -0.523881 0)
(2.36417 -0.524361 0)
(2.3674 -0.524171 0)
(2.3712 -0.52276 0)
(2.37624 -0.519543 0)
(2.38102 -0.514952 0)
(2.38383 -0.511754 0)
(2.38687 -0.509553 0)
(2.38887 -0.506703 0)
(2.3891 -0.504127 0)
(2.38907 -0.503671 0)
(2.3892 -0.505089 0)
(2.39029 -0.506957 0)
(2.39276 -0.508144 0)
(2.39505 -0.5092 0)
(2.39742 -0.510545 0)
(2.40087 -0.512099 0)
(2.40669 -0.513066 0)
(2.41327 -0.511727 0)
(2.41768 -0.509755 0)
(2.42043 -0.507974 0)
(2.42338 -0.50613 0)
(2.42554 -0.503657 0)
(2.42524 -0.500083 0)
(2.42173 -0.49645 0)
(2.41904 -0.494807 0)
(2.41918 -0.494366 0)
(2.42056 -0.493868 0)
(2.42255 -0.493263 0)
(2.4249 -0.493001 0)
(2.42702 -0.492852 0)
(2.43073 -0.492557 0)
(2.43803 -0.49354 0)
(2.44627 -0.496505 0)
(2.45028 -0.497993 0)
(2.45197 -0.49817 0)
(2.45382 -0.497868 0)
(2.45434 -0.496447 0)
(2.45196 -0.493146 0)
(2.44607 -0.486058 0)
(2.44143 -0.477705 0)
(2.43985 -0.47158 0)
(2.43998 -0.467407 0)
(2.44082 -0.463832 0)
(2.44065 -0.460865 0)
(2.44059 -0.459144 0)
(2.44187 -0.458701 0)
(2.44467 -0.460227 0)
(2.4486 -0.463369 0)
(2.45162 -0.46528 0)
(2.4535 -0.464744 0)
(2.45513 -0.462769 0)
(2.45645 -0.459535 0)
(2.45719 -0.455413 0)
(2.45636 -0.450898 0)
(2.4547 -0.447353 0)
(2.45466 -0.445605 0)
(2.45628 -0.444393 0)
(2.67153 0.144706 0)
(2.67402 0.144202 0)
(2.67763 0.142554 0)
(2.68039 0.140933 0)
(2.6818 0.137235 0)
(2.67734 0.127637 0)
(2.67001 0.116106 0)
(2.67052 0.112333 0)
(2.67335 0.111573 0)
(2.67934 0.110103 0)
(2.68451 0.109086 0)
(2.68894 0.108506 0)
(2.69282 0.107994 0)
(2.69597 0.106965 0)
(2.69681 0.103628 0)
(2.69282 0.0962978 0)
(2.69059 0.0909293 0)
(2.6923 0.0904235 0)
(2.69517 0.0895421 0)
(2.69825 0.0882953 0)
(2.70106 0.0869951 0)
(2.70345 0.085469 0)
(2.70479 0.0831844 0)
(2.70345 0.0784179 0)
(2.69793 0.071049 0)
(2.69509 0.0665697 0)
(2.69562 0.0661155 0)
(2.69771 0.0662675 0)
(2.70299 0.0693486 0)
(2.71095 0.0755761 0)
(2.71541 0.0789003 0)
(2.71602 0.0792141 0)
(2.71624 0.0791192 0)
(2.71577 0.078244 0)
(2.71244 0.0746668 0)
(2.70379 0.0652291 0)
(2.69461 0.0553527 0)
(2.69294 0.0526977 0)
(2.69355 0.0524504 0)
(2.6942 0.0524804 0)
(2.69584 0.0530722 0)
(2.69931 0.0559957 0)
(2.70644 0.0637435 0)
(2.71673 0.0736389 0)
(2.72237 0.0778128 0)
(2.72329 0.0780833 0)
(2.72401 0.0777386 0)
(2.72389 0.0765349 0)
(2.72093 0.0725756 0)
(2.71142 0.0614976 0)
(2.69931 0.0483907 0)
(2.69731 0.0444296 0)
(2.69829 0.0436863 0)
(2.69922 0.0436197 0)
(2.70201 0.0450893 0)
(2.70834 0.0511322 0)
(2.71879 0.0618256 0)
(2.7258 0.0680551 0)
(2.72694 0.0690182 0)
(2.72751 0.0692401 0)
(2.72698 0.0684474 0)
(2.72352 0.061372 0)
(2.70997 0.0393012 0)
(2.64343 -0.0616507 0)
(2.47236 -0.288969 0)
(2.14808 -0.588971 0)
(2.06139 -0.724778 0)
(2.04489 -0.684339 0)
(2.09514 -0.636989 0)
(2.11311 -0.623654 0)
(2.11496 -0.632827 0)
(2.09912 -0.656951 0)
(2.07719 -0.678404 0)
(2.07348 -0.681461 0)
(2.07747 -0.676015 0)
(2.08967 -0.660095 0)
(2.10458 -0.642512 0)
(2.10976 -0.634378 0)
(2.10862 -0.634257 0)
(2.10688 -0.636921 0)
(2.10415 -0.639795 0)
(2.10226 -0.641434 0)
(2.10293 -0.639755 0)
(2.1053 -0.636116 0)
(2.10823 -0.632787 0)
(2.11247 -0.628567 0)
(2.11829 -0.62503 0)
(2.12203 -0.624418 0)
(2.12557 -0.625565 0)
(2.12918 -0.627052 0)
(2.13216 -0.628435 0)
(2.13409 -0.629651 0)
(2.1359 -0.63002 0)
(2.13776 -0.629747 0)
(2.13975 -0.629147 0)
(2.14298 -0.629128 0)
(2.14664 -0.629311 0)
(2.1501 -0.628909 0)
(2.15347 -0.627856 0)
(2.15705 -0.626525 0)
(2.16077 -0.624268 0)
(2.16531 -0.620626 0)
(2.16924 -0.616858 0)
(2.17249 -0.615884 0)
(2.17547 -0.615758 0)
(2.17767 -0.615649 0)
(2.17844 -0.616168 0)
(2.1774 -0.617369 0)
(2.17635 -0.618073 0)
(2.17793 -0.617597 0)
(2.18037 -0.616896 0)
(2.18296 -0.61591 0)
(2.18572 -0.614503 0)
(2.18974 -0.61249 0)
(2.19478 -0.609201 0)
(2.19826 -0.606857 0)
(2.19965 -0.606156 0)
(2.20057 -0.60542 0)
(2.19998 -0.604292 0)
(2.19803 -0.602467 0)
(2.19695 -0.600492 0)
(2.19704 -0.599062 0)
(2.19701 -0.596432 0)
(2.19773 -0.592829 0)
(2.1979 -0.590477 0)
(2.19856 -0.588874 0)
(2.19969 -0.587315 0)
(2.2004 -0.586932 0)
(2.20144 -0.587215 0)
(2.20413 -0.587191 0)
(2.20751 -0.585731 0)
(2.21166 -0.581985 0)
(2.21554 -0.578418 0)
(2.2189 -0.577046 0)
(2.22164 -0.576481 0)
(2.22375 -0.576561 0)
(2.2252 -0.577979 0)
(2.22665 -0.579789 0)
(2.22957 -0.581075 0)
(2.23259 -0.582051 0)
(2.23631 -0.582102 0)
(2.24018 -0.579775 0)
(2.24374 -0.575923 0)
(2.24702 -0.57224 0)
(2.25011 -0.5696 0)
(2.25308 -0.569042 0)
(2.25612 -0.5697 0)
(2.25898 -0.570559 0)
(2.26153 -0.571479 0)
(2.26342 -0.572196 0)
(2.26444 -0.571875 0)
(2.26698 -0.571213 0)
(2.26988 -0.570474 0)
(2.27328 -0.569345 0)
(2.27707 -0.567619 0)
(2.28085 -0.56475 0)
(2.28368 -0.562321 0)
(2.28643 -0.561017 0)
(2.28866 -0.559834 0)
(2.29023 -0.55857 0)
(2.29264 -0.558251 0)
(2.2955 -0.558876 0)
(2.29814 -0.559684 0)
(2.30086 -0.560009 0)
(2.30339 -0.559394 0)
(2.30591 -0.558433 0)
(2.30858 -0.557124 0)
(2.31127 -0.555539 0)
(2.31407 -0.553836 0)
(2.31692 -0.552082 0)
(2.31986 -0.550432 0)
(2.3228 -0.549117 0)
(2.32685 -0.54801 0)
(2.33095 -0.546477 0)
(2.33331 -0.545534 0)
(2.33579 -0.545601 0)
(2.33813 -0.545804 0)
(2.33948 -0.545654 0)
(2.33848 -0.545064 0)
(2.33781 -0.543823 0)
(2.33931 -0.54219 0)
(2.3409 -0.540504 0)
(2.34248 -0.539304 0)
(2.34423 -0.538111 0)
(2.34724 -0.535461 0)
(2.35128 -0.529895 0)
(2.3562 -0.5231 0)
(2.35887 -0.519479 0)
(2.35978 -0.518235 0)
(2.36027 -0.51686 0)
(2.3601 -0.516672 0)
(2.35943 -0.517413 0)
(2.35927 -0.518439 0)
(2.35991 -0.519706 0)
(2.36226 -0.520726 0)
(2.36458 -0.521145 0)
(2.36721 -0.520926 0)
(2.37075 -0.51987 0)
(2.37672 -0.518162 0)
(2.38329 -0.515117 0)
(2.38781 -0.512609 0)
(2.39093 -0.511053 0)
(2.39421 -0.509604 0)
(2.3964 -0.507765 0)
(2.39574 -0.505926 0)
(2.39237 -0.505154 0)
(2.39098 -0.505091 0)
(2.39234 -0.50504 0)
(2.39461 -0.505157 0)
(2.39713 -0.505524 0)
(2.39949 -0.506021 0)
(2.40182 -0.506371 0)
(2.40752 -0.507472 0)
(2.41606 -0.508224 0)
(2.42188 -0.507047 0)
(2.42427 -0.505847 0)
(2.42688 -0.505025 0)
(2.42911 -0.504225 0)
(2.42924 -0.502892 0)
(2.42509 -0.50034 0)
(2.4205 -0.497484 0)
(2.41996 -0.495305 0)
(2.42129 -0.493268 0)
(2.42331 -0.491129 0)
(2.4259 -0.489115 0)
(2.42883 -0.487284 0)
(2.43301 -0.48553 0)
(2.43932 -0.483968 0)
(2.44545 -0.484729 0)
(2.45015 -0.487961 0)
(2.45333 -0.491645 0)
(2.45535 -0.494483 0)
(2.45648 -0.495575 0)
(2.45687 -0.495192 0)
(2.45529 -0.492298 0)
(2.45241 -0.486885 0)
(2.44938 -0.479119 0)
(2.44737 -0.471106 0)
(2.44685 -0.464815 0)
(2.44725 -0.460421 0)
(2.44689 -0.457495 0)
(2.44606 -0.456073 0)
(2.4456 -0.45552 0)
(2.44664 -0.456041 0)
(2.45026 -0.457919 0)
(2.45531 -0.459792 0)
(2.45796 -0.459348 0)
(2.4601 -0.457826 0)
(2.46185 -0.45614 0)
(2.4622 -0.454467 0)
(2.46031 -0.450831 0)
(2.45782 -0.445762 0)
(2.4579 -0.441956 0)
(2.67077 0.15402 0)
(2.67441 0.152614 0)
(2.67728 0.150864 0)
(2.67906 0.147219 0)
(2.6757 0.138837 0)
(2.66807 0.127852 0)
(2.66738 0.122539 0)
(2.66955 0.121801 0)
(2.67449 0.119621 0)
(2.67964 0.117175 0)
(2.68366 0.115836 0)
(2.68808 0.115161 0)
(2.69189 0.114481 0)
(2.69404 0.112122 0)
(2.6913 0.105727 0)
(2.68803 0.0995715 0)
(2.68986 0.098663 0)
(2.69256 0.0979544 0)
(2.69556 0.0965789 0)
(2.69873 0.0951364 0)
(2.70154 0.0935072 0)
(2.70338 0.0912634 0)
(2.70295 0.0866396 0)
(2.69819 0.0788509 0)
(2.69436 0.07316 0)
(2.69481 0.0722518 0)
(2.69679 0.0721802 0)
(2.70217 0.0743784 0)
(2.71041 0.0799499 0)
(2.71558 0.0832775 0)
(2.71651 0.0835371 0)
(2.71726 0.0832292 0)
(2.71709 0.0820067 0)
(2.71355 0.077854 0)
(2.70414 0.0676345 0)
(2.6946 0.0571656 0)
(2.69309 0.0540923 0)
(2.69381 0.0536593 0)
(2.6946 0.0536045 0)
(2.69671 0.0542719 0)
(2.70077 0.0578152 0)
(2.70847 0.0663076 0)
(2.71817 0.075652 0)
(2.72279 0.0789252 0)
(2.7235 0.0790354 0)
(2.72381 0.0781761 0)
(2.72375 0.0760766 0)
(2.72171 0.0720744 0)
(2.71301 0.0620796 0)
(2.69983 0.0496553 0)
(2.69609 0.0464474 0)
(2.69699 0.0466388 0)
(2.69785 0.0469055 0)
(2.70094 0.0477831 0)
(2.7082 0.0531212 0)
(2.7197 0.0640197 0)
(2.72696 0.0702396 0)
(2.72816 0.0710459 0)
(2.72881 0.0712253 0)
(2.72828 0.0719774 0)
(2.72419 0.0632681 0)
(2.70474 0.0321879 0)
(2.59582 -0.120568 0)
(2.3933 -0.386135 0)
(2.21894 -0.538858 0)
(2.10438 -0.664537 0)
(2.05997 -0.70336 0)
(2.05033 -0.692062 0)
(2.06965 -0.667936 0)
(2.09222 -0.639434 0)
(2.10632 -0.637448 0)
(2.10675 -0.646957 0)
(2.09528 -0.664182 0)
(2.09207 -0.673873 0)
(2.09239 -0.673811 0)
(2.09823 -0.664999 0)
(2.11074 -0.647017 0)
(2.11525 -0.636316 0)
(2.11569 -0.634941 0)
(2.11468 -0.636802 0)
(2.11068 -0.64159 0)
(2.10823 -0.644277 0)
(2.1082 -0.643645 0)