/*--------------------------------*- C++ -*----------------------------------*\
  =========                 |
  \\      /  F ield         | OpenFOAM: The Open Source CFD Toolbox
   \\    /   O peration     | Website:  https://openfoam.org
    \\  /    A nd           | Version:  7
     \\/     M anipulation  |
\*---------------------------------------------------------------------------*/
FoamFile
{
    version     2.0;
    format      ascii;
    class       volScalarField;
    location    "3.9";
    object      T;
}
// * * * * * * * * * * * * * * * * * * * * * * * * * * * * * * * * * * * * * //

dimensions      [0 0 0 1 0 0 0];

internalField   nonuniform List<scalar> 
16192
(
2.03799
2.03462
2.03092
2.02684
2.02239
2.01755
2.01239
2.00714
2.00196
1.99669
1.99112
1.98534
1.9793
1.97289
1.96613
1.9591
1.95182
1.94434
1.93676
1.92918
1.92144
2.03623
2.03232
2.02797
2.02353
2.01919
2.01478
2.01008
2.00517
2.00009
1.99474
1.98897
1.98294
1.97672
1.97023
1.96351
1.95673
1.94988
1.94287
1.93568
1.92835
1.92072
2.03324
2.02897
2.02456
2.02031
2.01638
2.01247
2.00813
2.00333
1.99816
1.99257
1.98661
1.98045
1.9741
1.96764
1.96115
1.95467
1.94812
1.94142
1.9345
1.92729
1.91971
2.02943
2.0254
2.02147
2.01771
2.01415
2.01033
2.00599
2.00108
1.99575
1.99005
1.98406
1.97792
1.97169
1.96537
1.95908
1.95281
1.94645
1.93987
1.93304
1.92586
1.91836
2.026
2.02258
2.01916
2.01563
2.01198
2.00791
2.00335
1.99836
1.99299
1.98734
1.98158
1.97571
1.96965
1.9635
1.95733
1.95111
1.94473
1.93816
1.93133
1.92417
1.91678
2.02355
2.02042
2.01702
2.01337
2.00936
2.00498
2.00029
1.99533
1.9901
1.98474
1.97931
1.97376
1.96789
1.9618
1.95564
1.94937
1.9429
1.93627
1.92941
1.92229
1.91503
2.02104
2.01799
2.01444
2.01055
2.00625
2.00173
1.99708
1.99238
1.98747
1.98244
1.97733
1.97196
1.9662
1.96014
1.95391
1.94753
1.94099
1.93432
1.92746
1.92041
1.91327
2.01785
2.01486
2.01129
2.00727
2.00288
1.99844
1.99408
1.98969
1.98512
1.98031
1.97537
1.97006
1.96427
1.9582
1.95201
1.94559
1.939
1.93234
1.92555
1.91859
1.91156
2.01386
2.01099
2.00757
2.00375
1.99963
1.99544
1.99146
1.98737
1.98296
1.97824
1.97328
1.96787
1.96212
1.95615
1.94998
1.94358
1.93709
1.93054
1.92383
1.91692
1.90999
2.00907
2.0061
2.00332
2.00015
1.99658
1.99287
1.98916
1.98514
1.98072
1.97593
1.97088
1.96548
1.95975
1.9539
1.94792
1.9417
1.93529
1.92882
1.92221
1.9154
1.90855
2.00423
2.00138
1.99904
1.99666
1.99374
1.99047
1.98683
1.98274
1.97819
1.97339
1.96826
1.96287
1.95733
1.95179
1.94595
1.93979
1.93349
1.9272
1.92069
1.91395
1.90718
2.00229
1.99731
1.99516
1.99303
1.99045
1.98752
1.98399
1.97993
1.97537
1.97059
1.96557
1.96038
1.95507
1.94964
1.94395
1.93798
1.93182
1.92554
1.91911
1.91255
1.9059
2.00317
1.99716
1.99228
1.98935
1.98658
1.98383
1.98054
1.97663
1.97238
1.96791
1.96308
1.95797
1.95284
1.94763
1.94205
1.93609
1.93001
1.92391
1.91763
1.91119
1.90461
2.00529
1.99738
1.99117
1.98589
1.98232
1.9794
1.97648
1.97307
1.96937
1.96521
1.96062
1.95573
1.95076
1.94549
1.9399
1.93415
1.92828
1.92222
1.91604
1.90979
1.9033
2.00834
1.9991
1.99128
1.98426
1.97866
1.97523
1.97236
1.96928
1.96609
1.96248
1.95824
1.95346
1.9485
1.94333
1.93788
1.93217
1.92641
1.92056
1.91457
1.90843
1.90197
2.01138
2.00183
1.99245
1.98397
1.97681
1.97205
1.96861
1.96552
1.96267
1.95939
1.95542
1.95105
1.94633
1.94116
1.93569
1.93025
1.92472
1.9189
1.91292
1.90689
1.90062
2.01237
2.00367
1.99394
1.98485
1.97745
1.97097
1.96581
1.96199
1.95883
1.95582
1.95236
1.94841
1.94389
1.93894
1.93372
1.92839
1.92288
1.91719
1.91135
1.90536
1.89917
2.01093
2.00423
1.99609
1.98735
1.97907
1.97137
1.96447
1.95929
1.95554
1.95223
1.94888
1.94539
1.94135
1.9366
1.93151
1.92647
1.92121
1.91554
1.90964
1.90371
1.8977
2.00943
2.00487
1.99845
1.99057
1.98153
1.97246
1.96485
1.9583
1.95296
1.94886
1.94537
1.9421
1.93836
1.93396
1.9293
1.92447
1.91926
1.91375
1.90807
1.90222
1.89624
2.00596
2.00355
1.9983
1.99179
1.98355
1.9745
1.96611
1.95911
1.95266
1.9466
1.94204
1.93855
1.93505
1.93099
1.92663
1.92217
1.91734
1.91199
1.90637
1.90066
1.89484
1.99916
1.99873
1.99582
1.99103
1.98484
1.97703
1.96847
1.96052
1.95293
1.94577
1.94023
1.93566
1.93166
1.92764
1.92372
1.91964
1.91505
1.91002
1.90477
1.89925
1.89344
1.99352
1.99419
1.99319
1.99031
1.98561
1.97912
1.97101
1.96236
1.95424
1.94659
1.93927
1.93349
1.92878
1.92456
1.92061
1.91677
1.91263
1.90797
1.90291
1.89757
1.89187
1.98661
1.98743
1.98766
1.98673
1.98388
1.97873
1.9722
1.96445
1.95621
1.94792
1.94007
1.93302
1.92674
1.92171
1.91755
1.91375
1.90982
1.90552
1.90084
1.89571
1.89006
1.97983
1.98064
1.98159
1.98191
1.98085
1.97783
1.9728
1.9663
1.95849
1.95008
1.9414
1.93345
1.92691
1.9208
1.91539
1.91082
1.90673
1.90267
1.89828
1.89339
1.88801
1.97407
1.97421
1.97511
1.97626
1.97622
1.97509
1.97173
1.96614
1.95954
1.95192
1.94348
1.93503
1.9276
1.92095
1.91466
1.90888
1.90394
1.89957
1.89527
1.89064
1.88565
1.9686
1.96692
1.9676
1.96884
1.96982
1.96972
1.96842
1.96477
1.95932
1.95324
1.94592
1.9375
1.92911
1.92216
1.91493
1.90747
1.90151
1.89674
1.89232
1.88779
1.88315
1.96705
1.96359
1.96242
1.96288
1.96378
1.96435
1.9641
1.96243
1.95868
1.95389
1.94788
1.93994
1.93133
1.92323
1.91557
1.90787
1.90046
1.8945
1.88958
1.88503
1.88068
1.96508
1.96018
1.95726
1.95644
1.95681
1.95751
1.95812
1.95785
1.95615
1.95275
1.9478
1.94125
1.93328
1.92505
1.91688
1.90843
1.90066
1.89422
1.88825
1.88303
1.87841
1.95733
1.95547
1.95234
1.95078
1.95089
1.95142
1.95216
1.95273
1.95223
1.95034
1.94681
1.94126
1.93437
1.92678
1.91859
1.91007
1.90185
1.89476
1.88833
1.88223
1.87687
1.95578
1.95515
1.95057
1.94617
1.94585
1.94601
1.94636
1.94683
1.94679
1.94598
1.94394
1.94007
1.9342
1.92758
1.92032
1.91238
1.90414
1.89617
1.88922
1.88252
1.87615
1.9302
1.94993
1.94637
1.94237
1.94092
1.94028
1.93999
1.94009
1.94019
1.94002
1.93922
1.9372
1.93326
1.92784
1.92182
1.91484
1.90689
1.8985
1.8904
1.88309
1.87626
1.87539
1.95039
1.94719
1.94206
1.93796
1.93547
1.93427
1.93381
1.93389
1.93417
1.93415
1.93352
1.93147
1.92745
1.92227
1.9166
1.90926
1.90075
1.89228
1.88443
1.87671
1.76541
1.94289
1.94596
1.94026
1.93469
1.9309
1.92877
1.92766
1.92768
1.92803
1.9285
1.92846
1.92775
1.92546
1.92137
1.91633
1.91023
1.90261
1.89438
1.88626
1.87798
1.55412
1.89066
1.93919
1.93681
1.93186
1.92792
1.92539
1.92378
1.923
1.92303
1.92323
1.92321
1.92294
1.9218
1.91923
1.91527
1.91001
1.90352
1.89617
1.88832
1.88001
1.81088
1.93774
1.9374
1.93216
1.92669
1.92331
1.92076
1.91886
1.9179
1.91748
1.9173
1.91716
1.91664
1.91525
1.9127
1.90877
1.90324
1.8969
1.88985
1.882
1.65703
1.90535
1.93265
1.93008
1.92537
1.92135
1.91803
1.91524
1.91332
1.91218
1.91148
1.91114
1.91077
1.91002
1.90857
1.9061
1.90213
1.89677
1.89077
1.8838
1.35264
1.84773
1.93343
1.93145
1.92577
1.92033
1.91604
1.91255
1.90979
1.90768
1.90629
1.90552
1.90497
1.90441
1.90366
1.90229
1.89986
1.89593
1.89075
1.88492
1.08639
1.72488
1.91903
1.92997
1.92492
1.9189
1.91374
1.90975
1.90653
1.90364
1.90129
1.89985
1.89904
1.89848
1.89801
1.89739
1.89611
1.89369
1.88986
1.88482
1.00679
1.47281
1.87072
1.92764
1.92525
1.91944
1.91382
1.90895
1.90468
1.90085
1.89773
1.89557
1.89424
1.89336
1.89286
1.89244
1.89177
1.89038
1.88787
1.88407
1.00023
1.15966
1.76934
1.92329
1.92487
1.9201
1.91305
1.90766
1.90293
1.89845
1.89459
1.89186
1.88996
1.88856
1.88763
1.88707
1.88655
1.88574
1.88423
1.88164
1.00001
1.01945
1.57734
1.8762
1.91776
1.91615
1.91141
1.9061
1.90162
1.89728
1.89306
1.88973
1.88697
1.88477
1.88317
1.88216
1.8814
1.88063
1.87959
1.87785
1
1.00083
1.25679
1.80317
1.91729
1.91715
1.91248
1.90605
1.90129
1.89675
1.89216
1.88821
1.88465
1.8816
1.87918
1.87745
1.87617
1.87516
1.87418
1.87291
1
1.00002
1.04717
1.65587
1.88799
1.91273
1.91007
1.90534
1.90052
1.89591
1.89136
1.88709
1.8829
1.87906
1.87591
1.87339
1.87134
1.86978
1.86856
1.86736
1
1
1.00276
1.36288
1.83212
1.91209
1.9108
1.90605
1.90048
1.89538
1.89085
1.88646
1.88192
1.87742
1.8735
1.8701
1.86719
1.86493
1.8633
1.86203
1
1
1.00009
1.09336
1.71002
1.89674
1.90974
1.90545
1.8997
1.89444
1.88989
1.88532
1.88048
1.87566
1.87137
1.86731
1.86359
1.86062
1.8585
1.85699
1
1
1
1.00791
1.46124
1.84617
1.90688
1.9055
1.90015
1.89463
1.88973
1.88479
1.87969
1.87469
1.87005
1.86555
1.86141
1.85793
1.85521
1.85313
1
1
1
1.00029
1.15472
1.74419
1.90162
1.90534
1.90062
1.89381
1.88871
1.88376
1.87853
1.87356
1.86882
1.86408
1.85963
1.85583
1.8526
1.84982
1
1
1
1.00001
1.0187
1.54734
1.84965
1.89821
1.89657
1.89203
1.88715
1.88273
1.87791
1.87324
1.86861
1.86382
1.85912
1.85496
1.85112
1.84758
1
1
1
1
1.00083
1.23282
1.77246
1.89484
1.89778
1.8934
1.8872
1.88221
1.87748
1.87296
1.86839
1.86356
1.85872
1.85427
1.84998
1.84586
1
1
1
1
1.00002
1.03989
1.6163
1.85885
1.89284
1.89067
1.88617
1.88109
1.87658
1.87231
1.86798
1.8633
1.85848
1.85388
1.84927
1.84471
1
1
1
1
1
1.00226
1.31832
1.79742
1.89136
1.89119
1.88701
1.88122
1.87633
1.872
1.86771
1.86315
1.85841
1.85361
1.84873
1.84389
1
1
1
1
1
1.00007
1.07331
1.66572
1.86614
1.88851
1.88566
1.88027
1.87535
1.87105
1.86692
1.86252
1.85787
1.853
1.84797
1.84294
1
1
1
1
1
1
1.00556
1.39812
1.81319
1.88685
1.88502
1.88049
1.87559
1.87113
1.86656
1.862
1.85745
1.85266
1.84754
1.84232
1
1
1
1
1
1
1.0002
1.11606
1.69921
1.87383
1.88487
1.87998
1.87479
1.87045
1.86573
1.86088
1.85636
1.85181
1.84681
1.84156
1
1
1
1
1
1
1.00001
1.01165
1.47119
1.81794
1.87971
1.87853
1.87383
1.8692
1.8648
1.86034
1.85589
1.85117
1.84623
1.84128
1
1
1
1
1
1
1
1.00049
1.16809
1.72349
1.87315
1.87943
1.87485
1.86859
1.86368
1.85938
1.85512
1.85051
1.84564
1.84085
1
1
1
1
1
1
1
1.00001
1.02221
1.53503
1.82223
1.87235
1.87087
1.86677
1.86184
1.85789
1.85405
1.84975
1.84519
1.84065
1
1
1
1
1
1
1
1
1.00109
1.22948
1.74611
1.86787
1.87219
1.86812
1.8617
1.85718
1.85333
1.84916
1.84473
1.84031
1
1
1
1
1
1
1
1
1.00003
1.03962
1.58812
1.82904
1.86668
1.86506
1.86066
1.85592
1.85202
1.84812
1.84403
1.83976
1
1
1
1
1
1
1
1
1
1.00234
1.29352
1.76441
1.86484
1.86562
1.8613
1.85574
1.85127
1.84736
1.84345
1.83927
1
1
1
1
1
1
1
1
1
1.00008
1.06382
1.62598
1.83744
1.86207
1.85974
1.85486
1.85015
1.84625
1.84248
1.83848
1
1
1
1
1
1
1
1
1
1
1.00463
1.35182
1.78044
1.85945
1.85928
1.8554
1.85027
1.84568
1.84171
1.83778
1
1
1
1
1
1
1
1
1
1
1.00017
1.0925
1.65511
1.84101
1.85828
1.85504
1.84962
1.84449
1.84026
1.83637
1
1
1
1
1
1
1
1
1
1
1
1.00822
1.40386
1.78857
1.85591
1.85444
1.84971
1.84462
1.84029
1.83622
1
1
1
1
1
1
1
1
1
1
1
1.00033
1.12352
1.67616
1.84368
1.85442
1.8495
1.84424
1.83985
1.83563
1.45692
1.45689
1.45705
1.45739
1.4581
1.45882
1.45892
1.45883
1.45839
1.4575
1.45696
1.45688
1.45687
1.45696
1.45697
1.45696
1.45698
1.45693
1.45649
1.45532
1.45405
1.45366
1.45361
1.45371
1.45437
1.45554
1.45613
1.45618
1.45619
1.45606
1.45527
1.45374
1.45285
1.45266
1.45265
1.45302
1.4537
1.45384
1.45369
1.45337
1.45274
1.45155
1.91558
1.91182
1.90802
1.90405
1.89974
1.89595
1.89181
1.88782
1.88329
1.87913
1.87555
1.87139
1.86724
1.86048
1.85368
1.85386
1.85904
1.89721
1.9637
1.99473
2.00213
1.99806
1.98945
1.98028
1.97276
1.96547
1.9581
1.9506
1.94374
1.93639
1.92884
1.92133
1.91355
1.90676
1.89965
1.89234
1.88527
1.87766
1.87124
1.8649
1.85817
1.85213
1.8454
1.83925
1.83295
1.82547
1.81781
1.81016
1.80221
1.79533
1.78832
1.78107
1.77462
1.76781
1.76087
1.75534
1.74939
1.74321
1.73805
1.73084
1.72409
1.71866
1.71239
1.70725
1.70175
1.69522
1.68997
1.68348
1.67742
1.67237
1.66587
1.66116
1.65542
1.64896
1.6442
1.63771
1.63356
1.62965
1.62434
1.61988
1.61345
1.60776
1.6036
1.59841
1.59467
1.59047
1.58528
1.58037
1.57447
1.56964
1.56524
1.55988
1.55609
1.55132
1.54709
1.54361
1.53988
1.53716
1.5331
1.52906
1.52477
1.51913
1.51535
1.51132
1.50713
1.50379
1.4986
1.49342
1.48938
1.48614
1.48281
1.48019
1.47848
1.47652
1.4741
1.47098
1.4681
1.46666
1.4661
1.46568
1.46534
1.46488
1.46417
1.46202
1.45808
1.45612
1.45605
1.45609
1.45671
1.45879
1.46151
1.46223
1.46218
1.46198
1.46119
1.4591
1.45665
1.45605
1.45603
1.45634
1.4576
1.45886
1.45896
1.45881
1.45835
1.45732
1.4568
1.45692
1.45744
1.45864
1.46076
1.46191
1.46196
1.46178
1.46091
1.45891
1.45733
1.45712
1.45712
1.45753
1.45886
1.46036
1.46068
1.46043
1.45975
1.45868
1.45746
1.45692
1.4568
1.45682
1.45695
1.45696
1.45681
1.45633
1.45526
1.45414
1.45401
1.45402
1.45404
1.45428
1.45514
1.45668
1.45775
1.45783
1.45767
1.45708
1.45598
1.45496
1.45482
1.45495
1.4554
1.45631
1.45753
1.45797
1.45796
1.45778
1.45714
1.45638
1.45605
1.45597
1.45597
1.45597
1.45592
1.45593
1.45592
1.45565
1.45468
1.45334
1.45279
1.45269
1.4527
1.45305
1.45396
1.4546
1.4547
1.45476
1.45473
1.45426
1.45299
1.45198
1.45176
1.45172
1.45195
1.45241
1.45251
1.45238
1.45212
1.45162
1.45057
1.44983
1.91498
1.9112
1.90733
1.90311
1.8993
1.8953
1.89121
1.88698
1.88259
1.87908
1.87493
1.87122
1.86684
1.86231
1.85543
1.85132
1.85315
1.8696
1.92458
1.97859
1.99673
1.99608
1.98993
1.98113
1.9729
1.96514
1.9577
1.95109
1.94411
1.93668
1.92932
1.92177
1.91527
1.90856
1.90152
1.89467
1.88722
1.8808
1.8746
1.86791
1.86192
1.85528
1.84891
1.84254
1.835
1.82729
1.81957
1.81147
1.80485
1.79807
1.79102
1.78469
1.77787
1.77136
1.76574
1.75966
1.75359
1.74834
1.74142
1.73454
1.72875
1.72248
1.71713
1.71194
1.7052
1.69983
1.69377
1.68754
1.68288
1.67677
1.67164
1.66608
1.6592
1.65413
1.64801
1.64291
1.63928
1.63401
1.62925
1.62362
1.61703
1.61317
1.60835
1.60404
1.60036
1.59491
1.59004
1.58438
1.57885
1.57483
1.56918
1.56508
1.56095
1.55633
1.55315
1.54924
1.54645
1.54277
1.53823
1.5342
1.5282
1.52398
1.52046
1.51619
1.51276
1.50847
1.50228
1.49781
1.49425
1.49152
1.48834
1.48576
1.48342
1.48048
1.47661
1.47174
1.46968
1.46877
1.46794
1.46735
1.46675
1.46597
1.46392
1.45926
1.45537
1.45463
1.45462
1.45539
1.45736
1.45984
1.46084
1.4608
1.46062
1.46016
1.4587
1.45589
1.45457
1.45448
1.45463
1.4556
1.4571
1.45736
1.45717
1.45672
1.45584
1.4551
1.45508
1.45546
1.45647
1.45846
1.45998
1.46015
1.46003
1.45929
1.45739
1.45569
1.4555
1.45554
1.45607
1.45759
1.45927
1.4596
1.45938
1.45868
1.45751
1.45638
1.45588
1.45572
1.45571
1.45584
1.45583
1.45568
1.45523
1.45404
1.45244
1.45189
1.45188
1.45188
1.45198
1.45257
1.45402
1.45554
1.45587
1.45578
1.45535
1.45431
1.45301
1.45265
1.45274
1.45313
1.45408
1.45565
1.45657
1.45662
1.45659
1.4562
1.45558
1.45515
1.45489
1.45483
1.45492
1.45493
1.45494
1.45496
1.45486
1.45416
1.45279
1.45207
1.45191
1.45185
1.45192
1.45243
1.45313
1.45333
1.45341
1.45344
1.45322
1.45223
1.45113
1.45086
1.4508
1.45091
1.45119
1.45124
1.45112
1.45089
1.45045
1.44952
1.4488
1.44862
1.91401
1.91026
1.90618
1.90227
1.89845
1.89445
1.89048
1.88602
1.88255
1.87864
1.87478
1.87072
1.86671
1.86342
1.85768
1.85013
1.85023
1.85454
1.88698
1.95127
1.98415
1.99284
1.98922
1.98173
1.97314
1.96456
1.95775
1.95136
1.94445
1.93739
1.92983
1.92335
1.917
1.91028
1.9038
1.89666
1.8902
1.88398
1.87727
1.8712
1.86452
1.85802
1.85157
1.84401
1.83626
1.82863
1.82038
1.81392
1.80743
1.80062
1.79455
1.78775
1.78151
1.77603
1.76984
1.76377
1.75833
1.75148
1.74474
1.7387
1.7324
1.72697
1.7219
1.71514
1.70943
1.70359
1.69741
1.69286
1.68735
1.68206
1.67655
1.66953
1.66383
1.65821
1.65232
1.64867
1.64362
1.63843
1.63349
1.62651
1.62244
1.61819
1.61344
1.61001
1.60455
1.59932
1.594
1.58807
1.58392
1.5788
1.57394
1.57033
1.56569
1.56231
1.5586
1.55539
1.55216
1.5474
1.54319
1.53764
1.53241
1.52931
1.52541
1.52164
1.51798
1.51167
1.50643
1.50276
1.49986
1.49754
1.4943
1.49107
1.48785
1.48393
1.47854
1.47412
1.47319
1.47214
1.47084
1.46985
1.4688
1.46671
1.46182
1.4568
1.45511
1.45476
1.45489
1.45646
1.45871
1.45964
1.4596
1.45932
1.45896
1.45782
1.45505
1.45299
1.45278
1.45284
1.45352
1.45501
1.45555
1.45542
1.45505
1.45439
1.45359
1.45346
1.45372
1.45458
1.45639
1.45807
1.45833
1.45829
1.45766
1.45575
1.45384
1.45362
1.45371
1.45431
1.45594
1.45794
1.4584
1.45823
1.4576
1.45646
1.45529
1.4548
1.45465
1.45468
1.45484
1.45484
1.4547
1.45433
1.45318
1.45118
1.44999
1.44983
1.44982
1.44985
1.45019
1.45142
1.45322
1.45396
1.45393
1.45357
1.45259
1.45097
1.45027
1.45036
1.45067
1.45153
1.45323
1.45469
1.45491
1.45492
1.4547
1.45418
1.45394
1.45369
1.45355
1.45365
1.45394
1.45394
1.45393
1.4539
1.45358
1.45249
1.45149
1.45125
1.45111
1.45104
1.45115
1.45168
1.45203
1.45215
1.45223
1.45217
1.4515
1.45031
1.44994
1.44989
1.44991
1.45006
1.45011
1.45
1.4498
1.44937
1.44849
1.44779
1.44756
1.44756
1.91274
1.90889
1.905
1.90136
1.89748
1.89368
1.88935
1.88584
1.88222
1.87827
1.87454
1.8702
1.86716
1.86358
1.85903
1.85153
1.84827
1.84968
1.86222
1.9118
1.96661
1.98755
1.98708
1.9822
1.97366
1.96471
1.95801
1.95138
1.94476
1.93761
1.93119
1.92513
1.91864
1.91231
1.90549
1.89919
1.89296
1.88613
1.87987
1.87309
1.86647
1.86007
1.85263
1.84494
1.8375
1.82921
1.82274
1.81649
1.80986
1.80402
1.79737
1.79131
1.78608
1.77989
1.77381
1.76817
1.7611
1.75451
1.74839
1.74206
1.73665
1.73161
1.72506
1.71898
1.71307
1.70701
1.70245
1.6974
1.69219
1.68669
1.67971
1.67342
1.66809
1.66191
1.65797
1.65313
1.64762
1.64295
1.63615
1.63151
1.62779
1.62291
1.61937
1.61445
1.60845
1.60327
1.59731
1.59264
1.58834
1.58281
1.57937
1.5751
1.57119
1.56791
1.56418
1.56118
1.55661
1.55188
1.54706
1.54101
1.53787
1.53443
1.53042
1.52691
1.52133
1.51524
1.5115
1.50843
1.50581
1.5033
1.49988
1.49574
1.49152
1.48683
1.48106
1.47868
1.4778
1.47633
1.47462
1.47307
1.47092
1.46571
1.45925
1.45655
1.45602
1.45597
1.45696
1.45869
1.45922
1.4589
1.45847
1.45806
1.45718
1.45465
1.45162
1.45099
1.45097
1.45136
1.45273
1.45365
1.45357
1.45318
1.45261
1.4519
1.45176
1.45201
1.45283
1.45459
1.45646
1.45682
1.45674
1.45599
1.45396
1.45186
1.45157
1.45168
1.45231
1.45398
1.45625
1.45694
1.45685
1.45638
1.45538
1.45427
1.45376
1.45357
1.45361
1.45392
1.45394
1.4538
1.45349
1.45255
1.45045
1.44848
1.44798
1.44791
1.44792
1.44804
1.44894
1.45085
1.45212
1.45217
1.45193
1.45109
1.44927
1.44797
1.44798
1.44821
1.44888
1.45041
1.45234
1.45292
1.45296
1.45286
1.45243
1.45222
1.45208
1.45196
1.45207
1.4526
1.45288
1.45287
1.45283
1.45264
1.45202
1.45104
1.45056
1.45039
1.45026
1.45022
1.45054
1.45102
1.45108
1.45118
1.4512
1.45079
1.4496
1.449
1.44891
1.44889
1.44892
1.44899
1.44894
1.44879
1.44836
1.44757
1.44689
1.4466
1.44655
1.44675
1.91121
1.90743
1.90387
1.90021
1.89662
1.89257
1.88893
1.88556
1.88169
1.87818
1.87382
1.87049
1.86711
1.86347
1.85966
1.85364
1.84703
1.84725
1.85052
1.87766
1.93658
1.97444
1.98421
1.98184
1.97475
1.96623
1.9588
1.95189
1.94501
1.93872
1.93283
1.92651
1.92031
1.91364
1.90746
1.90138
1.89457
1.88816
1.88125
1.87446
1.86813
1.86088
1.8533
1.84612
1.83806
1.83158
1.8255
1.81901
1.81331
1.80676
1.80074
1.7957
1.78961
1.78355
1.77789
1.77058
1.76395
1.75783
1.75147
1.74607
1.74094
1.73467
1.72851
1.72237
1.71639
1.71183
1.70705
1.70198
1.6964
1.6895
1.68284
1.67748
1.67145
1.66724
1.66253
1.65686
1.65217
1.64575
1.64051
1.63713
1.63242
1.62852
1.62438
1.61775
1.61227
1.60644
1.60119
1.59744
1.59185
1.58805
1.58431
1.57997
1.57691
1.57297
1.56988
1.56576
1.56055
1.55605
1.54995
1.54616
1.54316
1.53924
1.53559
1.53052
1.52403
1.52018
1.51711
1.51446
1.51176
1.5086
1.50456
1.49938
1.49444
1.48996
1.48606
1.48456
1.48314
1.4812
1.47903
1.47641
1.47094
1.46349
1.4597
1.45905
1.45889
1.45922
1.45993
1.45988
1.45928
1.45853
1.45779
1.45681
1.4545
1.45094
1.44966
1.44952
1.4496
1.4505
1.45161
1.45166
1.45134
1.45085
1.45003
1.4498
1.45007
1.45086
1.45268
1.45491
1.45543
1.45539
1.45473
1.45261
1.45006
1.44959
1.44967
1.45017
1.45177
1.45433
1.4553
1.45528
1.45492
1.45401
1.45301
1.45259
1.45244
1.45246
1.45289
1.45308
1.45294
1.45267
1.45192
1.45005
1.44752
1.4464
1.44623
1.44619
1.4462
1.44669
1.4484
1.45025
1.45054
1.45039
1.44975
1.448
1.446
1.44571
1.44583
1.4463
1.44752
1.44956
1.45071
1.45081
1.45077
1.45049
1.45014
1.45012
1.45005
1.45012
1.45071
1.45128
1.45142
1.45143
1.45133
1.45098
1.45034
1.44976
1.44951
1.44939
1.44934
1.44957
1.45027
1.45049
1.4505
1.45055
1.45028
1.44906
1.4481
1.4479
1.44778
1.44777
1.4478
1.4478
1.4477
1.44734
1.44666
1.44605
1.44577
1.44568
1.4458
1.44632
1.90954
1.90606
1.90263
1.89917
1.89541
1.89169
1.88855
1.88486
1.8814
1.87736
1.87374
1.87054
1.86669
1.86338
1.85921
1.85547
1.84858
1.84465
1.84589
1.8563
1.89939
1.95516
1.97644
1.98039
1.97598
1.9682
1.96012
1.95229
1.94566
1.93993
1.93385
1.92781
1.92113
1.91486
1.90893
1.90219
1.89578
1.88898
1.88207
1.87581
1.8688
1.8614
1.85442
1.84669
1.84033
1.83446
1.82811
1.82255
1.81614
1.81001
1.80498
1.79894
1.7928
1.78715
1.7798
1.77312
1.76702
1.76067
1.7553
1.75002
1.74384
1.73781
1.73153
1.72556
1.72099
1.71641
1.71152
1.70578
1.69887
1.69204
1.68643
1.68066
1.6764
1.67178
1.6661
1.66127
1.65517
1.64948
1.64625
1.64187
1.63765
1.63405
1.62741
1.62119
1.61538
1.60968
1.60601
1.601
1.59654
1.59318
1.58873
1.58548
1.58177
1.57832
1.57468
1.56937
1.56463
1.55906
1.55435
1.55165
1.5479
1.54408
1.53972
1.5326
1.5285
1.52574
1.52284
1.52026
1.5173
1.51317
1.50806
1.50234
1.49778
1.4947
1.49258
1.49082
1.48888
1.48657
1.48346
1.47765
1.46937
1.46396
1.46307
1.46297
1.46294
1.46268
1.46219
1.46124
1.45992
1.45867
1.45738
1.45533
1.45154
1.44882
1.44837
1.44827
1.44876
1.44979
1.44992
1.44953
1.44892
1.44806
1.4478
1.44804
1.44881
1.45054
1.45309
1.45396
1.45391
1.45333
1.45141
1.4485
1.44776
1.44785
1.44825
1.44963
1.4523
1.45362
1.45365
1.45337
1.45252
1.45148
1.45113
1.45105
1.4511
1.45162
1.45209
1.45201
1.45177
1.45118
1.4497
1.44709
1.44518
1.4448
1.44469
1.44467
1.44484
1.44606
1.44821
1.449
1.44891
1.4485
1.44706
1.44457
1.44365
1.44365
1.44389
1.44474
1.44654
1.44826
1.44859
1.44857
1.44837
1.44786
1.44782
1.44782
1.44791
1.44847
1.44917
1.44944
1.44957
1.4496
1.44945
1.449
1.44854
1.44832
1.44823
1.44823
1.44858
1.44952
1.45006
1.45009
1.45013
1.44983
1.44868
1.44742
1.44698
1.44675
1.44661
1.4466
1.44661
1.44656
1.4463
1.44572
1.44522
1.445
1.44491
1.445
1.44536
1.44559
1.90797
1.90468
1.90137
1.89795
1.89418
1.89108
1.88765
1.88421
1.88056
1.8767
1.87367
1.86991
1.86648
1.86249
1.859
1.85578
1.85063
1.84281
1.84283
1.84536
1.86791
1.92282
1.96385
1.97668
1.97499
1.96938
1.96126
1.9529
1.94669
1.94064
1.93472
1.92833
1.92197
1.91604
1.90936
1.90281
1.89614
1.88929
1.88316
1.87641
1.86927
1.86253
1.85508
1.84887
1.84323
1.83703
1.83158
1.82539
1.8192
1.81404
1.808
1.80175
1.79602
1.78866
1.78194
1.7759
1.76955
1.76422
1.75891
1.75272
1.74684
1.74057
1.73459
1.72997
1.72545
1.72075
1.71491
1.70789
1.70096
1.69502
1.6895
1.6854
1.68086
1.67528
1.67034
1.66438
1.65836
1.65508
1.6511
1.64678
1.64342
1.63729
1.63026
1.62416
1.61818
1.61425
1.60998
1.60506
1.60175
1.59742
1.59374
1.59035
1.58665
1.58327
1.57827
1.57309
1.5681
1.56247
1.55981
1.55649
1.55243
1.54847
1.54172
1.5363
1.53401
1.5313
1.52843
1.52554
1.52193
1.51673
1.51042
1.50567
1.50283
1.50076
1.49896
1.49701
1.49478
1.4918
1.48577
1.47636
1.46988
1.46868
1.46827
1.46802
1.46712
1.46603
1.46456
1.46253
1.4605
1.45886
1.45702
1.45374
1.44964
1.4482
1.44791
1.44789
1.44853
1.44869
1.44822
1.44749
1.44637
1.44573
1.44583
1.44646
1.44808
1.45089
1.45227
1.45225
1.4518
1.4502
1.44705
1.44581
1.44593
1.4463
1.44752
1.45026
1.45193
1.45197
1.45176
1.45106
1.44994
1.44956
1.4495
1.44956
1.45008
1.4508
1.45084
1.45066
1.45022
1.44908
1.44689
1.44449
1.4436
1.44342
1.44336
1.44337
1.44408
1.44609
1.44749
1.4475
1.44727
1.44622
1.44369
1.44184
1.44167
1.44174
1.44223
1.4436
1.44553
1.44631
1.44632
1.44618
1.44565
1.44534
1.44541
1.44551
1.44596
1.44678
1.44716
1.44735
1.44747
1.44747
1.44729
1.44693
1.44674
1.44673
1.4468
1.44729
1.44853
1.4495
1.44961
1.44961
1.44931
1.44814
1.44679
1.44629
1.44601
1.44571
1.44554
1.44551
1.44548
1.44531
1.44482
1.44435
1.4442
1.44415
1.44425
1.4445
1.44455
1.4443
1.90646
1.90323
1.9
1.89635
1.89316
1.89001
1.88658
1.88318
1.87923
1.87628
1.87283
1.86923
1.86568
1.86151
1.8589
1.85549
1.85122
1.84397
1.84071
1.84133
1.84876
1.88657
1.94176
1.96617
1.97317
1.97002
1.96249
1.9542
1.94733
1.94109
1.9349
1.92867
1.92277
1.91629
1.90974
1.90311
1.89627
1.8902
1.8837
1.87683
1.87034
1.86324
1.8572
1.85175
1.84572
1.84033
1.8343
1.82804
1.82269
1.81665
1.81035
1.80461
1.79731
1.79057
1.78453
1.77818
1.77282
1.76749
1.7613
1.75555
1.74939
1.74346
1.73885
1.73429
1.72966
1.72379
1.71665
1.70963
1.70332
1.69796
1.69419
1.68982
1.68444
1.67946
1.67345
1.66715
1.66363
1.65994
1.65575
1.65251
1.64708
1.63959
1.63288
1.62666
1.62237
1.61864
1.61371
1.61015
1.60595
1.60188
1.5986
1.59481
1.59161
1.58705
1.58154
1.57692
1.57092
1.56749
1.56476
1.56076
1.55681
1.55113
1.54411
1.54181
1.53953
1.53675
1.53367
1.53009
1.52531
1.51889
1.51319
1.51087
1.50908
1.507
1.50499
1.50288
1.50014
1.49462
1.48493
1.47678
1.47527
1.4747
1.47396
1.47291
1.47157
1.46978
1.46711
1.46395
1.46144
1.45941
1.45681
1.45234
1.44906
1.44839
1.44803
1.44808
1.44811
1.44762
1.44682
1.44527
1.44425
1.4442
1.44452
1.44576
1.44842
1.45027
1.45032
1.45001
1.44874
1.44558
1.44377
1.44395
1.44439
1.44544
1.44803
1.45013
1.45025
1.45005
1.44955
1.44848
1.44797
1.44794
1.44799
1.44847
1.44926
1.44938
1.44924
1.4489
1.44807
1.44636
1.44404
1.44265
1.44231
1.44218
1.44215
1.44249
1.44407
1.44593
1.44617
1.44603
1.44534
1.44318
1.44048
1.43985
1.43983
1.44004
1.44096
1.44277
1.44398
1.44409
1.44401
1.4436
1.44295
1.44292
1.44303
1.44338
1.44417
1.44472
1.44494
1.44511
1.44518
1.44509
1.44478
1.44477
1.44485
1.445
1.44564
1.44719
1.44854
1.44885
1.44886
1.44857
1.44751
1.44611
1.44551
1.44535
1.44512
1.44482
1.44465
1.4446
1.4445
1.44409
1.44356
1.44339
1.44335
1.44344
1.44365
1.44357
1.44324
1.44291
1.90497
1.90179
1.89835
1.89495
1.89197
1.8886
1.88537
1.88148
1.87839
1.87527
1.87159
1.86837
1.86414
1.86116
1.85801
1.85468
1.85096
1.84536
1.83972
1.83839
1.84038
1.85892
1.90833
1.9523
1.96856
1.96815
1.96315
1.95555
1.94797
1.94094
1.93465
1.92895
1.92275
1.91634
1.90987
1.90312
1.89709
1.89081
1.88421
1.87793
1.8711
1.86517
1.85985
1.85401
1.8487
1.84281
1.83658
1.83101
1.82488
1.8185
1.81268
1.8056
1.79897
1.79298
1.78668
1.7813
1.77591
1.76965
1.76396
1.75792
1.75205
1.74749
1.74294
1.73836
1.73247
1.72523
1.71812
1.71149
1.7061
1.70271
1.69863
1.69352
1.68864
1.68247
1.67589
1.67205
1.66838
1.66441
1.66126
1.65648
1.64904
1.64161
1.63506
1.63049
1.62702
1.62242
1.61849
1.61425
1.60996
1.60661
1.60278
1.59962
1.59558
1.59025
1.58534
1.57958
1.57521
1.57245
1.56877
1.56488
1.56021
1.55267
1.54923
1.54742
1.54474
1.54191
1.53828
1.53344
1.52739
1.52107
1.51825
1.517
1.5152
1.51294
1.51074
1.50812
1.50297
1.49375
1.48491
1.48263
1.48183
1.48099
1.47972
1.47812
1.476
1.47295
1.46917
1.4658
1.46324
1.46076
1.45689
1.45181
1.45021
1.44946
1.44878
1.44835
1.44779
1.44701
1.44515
1.4433
1.44291
1.44297
1.44388
1.44633
1.44851
1.44863
1.44823
1.447
1.44383
1.44133
1.44148
1.44205
1.44317
1.44561
1.44802
1.44837
1.44824
1.44785
1.44692
1.44632
1.4463
1.44641
1.44689
1.44767
1.44773
1.44754
1.44722
1.44663
1.4454
1.44342
1.44188
1.44133
1.44112
1.44104
1.44118
1.44232
1.44429
1.4449
1.44479
1.44436
1.44272
1.43971
1.43828
1.43814
1.43818
1.43871
1.44019
1.44172
1.442
1.44195
1.44166
1.44092
1.44055
1.44059
1.44083
1.44148
1.44217
1.44245
1.44265
1.44275
1.44266
1.44237
1.44241
1.4425
1.4427
1.44349
1.4454
1.44718
1.44759
1.44769
1.44754
1.44674
1.44535
1.44468
1.44458
1.44449
1.44433
1.4441
1.44396
1.44386
1.44357
1.44296
1.44264
1.44255
1.44255
1.44272
1.44266
1.44228
1.44189
1.44151
1.90356
1.90029
1.89672
1.89368
1.89045
1.88724
1.88354
1.8801
1.8773
1.87373
1.87056
1.86665
1.86326
1.86045
1.85673
1.85372
1.84966
1.84614
1.84046
1.83594
1.83654
1.84204
1.87409
1.92827
1.95688
1.96517
1.96253
1.9563
1.94834
1.94064
1.93472
1.92881
1.92269
1.91648
1.90992
1.90391
1.89778
1.89144
1.88539
1.87888
1.87302
1.86762
1.86183
1.85651
1.85075
1.8447
1.83899
1.83277
1.82638
1.82045
1.81349
1.80702
1.80114
1.79496
1.78962
1.78426
1.77798
1.7722
1.76621
1.76039
1.75579
1.75127
1.74674
1.74094
1.73369
1.72653
1.71967
1.71411
1.711
1.70726
1.70244
1.6978
1.69155
1.68461
1.68042
1.67658
1.67275
1.66962
1.66529
1.65832
1.65039
1.64337
1.6386
1.63522
1.6311
1.62685
1.62235
1.61793
1.61434
1.61059
1.60744
1.60375
1.59884
1.594
1.58784
1.58293
1.58021
1.57649
1.5725
1.56876
1.56195
1.55648
1.55483
1.55248
1.54965
1.54643
1.54165
1.53538
1.5295
1.52583
1.5244
1.5229
1.52085
1.51852
1.51594
1.51133
1.50218
1.49285
1.49037
1.48951
1.48812
1.48701
1.48565
1.48351
1.47988
1.4752
1.4713
1.4685
1.46599
1.46291
1.45761
1.45367
1.4525
1.45123
1.45003
1.44904
1.44799
1.44598
1.44338
1.44244
1.44233
1.44288
1.44497
1.44719
1.44736
1.44693
1.44576
1.44255
1.43916
1.43896
1.43945
1.44052
1.4429
1.4456
1.44613
1.44614
1.44598
1.44526
1.44461
1.44456
1.44474
1.44528
1.446
1.44603
1.44573
1.44531
1.44482
1.44395
1.44242
1.44104
1.44039
1.44011
1.43998
1.44002
1.44083
1.44268
1.44362
1.44356
1.44327
1.44208
1.43927
1.43701
1.43663
1.43659
1.43683
1.43792
1.43956
1.44009
1.44006
1.43984
1.43913
1.43846
1.43834
1.43843
1.43888
1.43958
1.43994
1.44015
1.44026
1.44009
1.43966
1.43975
1.43993
1.44016
1.44091
1.44297
1.44533
1.44595
1.44609
1.44605
1.44558
1.44453
1.44378
1.44371
1.44369
1.44367
1.44362
1.44346
1.44333
1.4431
1.44249
1.44195
1.44178
1.44169
1.44173
1.44179
1.44148
1.44103
1.44059
1.44001
1.9022
1.89871
1.8954
1.89231
1.88907
1.88568
1.88187
1.87913
1.87578
1.87246
1.86899
1.86518
1.8626
1.85908
1.85577
1.85211
1.84857
1.84601
1.84151
1.83473
1.83371
1.83596
1.84991
1.89406
1.94067
1.9593
1.96008
1.95624
1.94859
1.94089
1.93458
1.9285
1.92252
1.91634
1.91051
1.90448
1.89833
1.89245
1.8863
1.88073
1.8753
1.86949
1.86404
1.85813
1.85217
1.84649
1.84029
1.834
1.82807
1.82123
1.81484
1.80899
1.80294
1.79767
1.79237
1.78631
1.78043
1.77435
1.76855
1.76383
1.75922
1.75474
1.74911
1.742
1.73488
1.72794
1.72216
1.71913
1.71566
1.71111
1.70675
1.70063
1.69336
1.68873
1.68463
1.68084
1.67768
1.67357
1.66711
1.65914
1.6517
1.64665
1.6432
1.63966
1.6353
1.63037
1.62575
1.62181
1.61812
1.61513
1.61172
1.60727
1.60269
1.59654
1.59025
1.5875
1.58437
1.58042
1.57654
1.57109
1.56453
1.56196
1.5598
1.55725
1.5543
1.54994
1.54323
1.53716
1.53381
1.53193
1.53028
1.52841
1.52617
1.52353
1.51919
1.51075
1.50099
1.49751
1.49699
1.49589
1.49408
1.49261
1.49093
1.4877
1.48221
1.47742
1.47466
1.47242
1.46979
1.46553
1.45947
1.45661
1.45513
1.4535
1.45186
1.45028
1.44789
1.44452
1.44302
1.44274
1.44307
1.44478