/*--------------------------------*- C++ -*----------------------------------*\
  =========                 |
  \\      /  F ield         | OpenFOAM: The Open Source CFD Toolbox
   \\    /   O peration     | Website:  https://openfoam.org
    \\  /    A nd           | Version:  7
     \\/     M anipulation  |
\*---------------------------------------------------------------------------*/
FoamFile
{
    version     2.0;
    format      ascii;
    class       volScalarField;
    location    "3";
    object      p;
}
// * * * * * * * * * * * * * * * * * * * * * * * * * * * * * * * * * * * * * //

dimensions      [1 -1 -2 0 0 0 0];

internalField   nonuniform List<scalar> 
16192
(
5.65369
5.57377
5.49267
5.40893
5.32168
5.23345
5.14664
5.06152
4.97774
4.89439
4.81051
4.72592
4.6415
4.55818
4.47567
4.39314
4.31091
4.22893
4.14747
4.06693
3.98787
5.67985
5.59236
5.50487
5.41852
5.33268
5.24765
5.16355
5.07967
4.99632
4.91326
4.82895
4.7437
4.65939
4.5764
4.49337
4.41068
4.32906
4.24742
4.16539
4.08543
4.00779
5.69181
5.6013
5.51354
5.42874
5.34652
5.2653
5.18289
5.09895
5.01488
4.93074
4.84597
4.761
4.67695
4.59397
4.51144
4.42893
4.34683
4.26547
4.18466
4.10583
4.02903
5.69711
5.61064
5.52699
5.44528
5.3648
5.28433
5.20163
5.11635
5.03116
4.94682
4.86211
4.77757
4.69448
4.61201
4.52902
4.44638
4.36529
4.28515
4.20504
4.1266
4.05043
5.70759
5.62734
5.54723
5.46594
5.38402
5.30129
5.21693
5.13147
5.04652
4.96244
4.87835
4.79488
4.71234
4.62994
4.54733
4.46539
4.38476
4.30539
4.22647
4.14842
4.07182
5.72733
5.64865
5.56806
5.48455
5.39976
5.3152
5.23037
5.14523
5.06133
4.9785
4.89518
4.81189
4.73005
4.64839
4.56625
4.48475
4.40502
4.32633
4.2477
4.16922
4.09174
5.74817
5.66687
5.58371
5.4988
5.41346
5.32855
5.2441
5.16028
5.0777
4.99523
4.91201
4.82948
4.74837
4.66745
4.58615
4.50536
4.42557
4.34638
4.26747
4.18862
4.11009
5.76248
5.6792
5.59538
5.51064
5.42609
5.3424
5.25905
5.17587
5.09368
5.01172
4.9291
4.84718
4.76671
4.68648
4.60588
4.52528
4.44486
4.36469
4.28509
4.20584
4.12694
5.77589
5.69145
5.60727
5.52357
5.44077
5.35813
5.27485
5.19205
5.11066
5.02906
4.94689
4.86576
4.78586
4.70562
4.62467
4.5438
4.46269
4.38128
4.30106
4.2224
4.14422
5.78665
5.70178
5.61931
5.53685
5.45502
5.37312
5.29029
5.20797
5.1271
5.04618
4.9651
4.88477
4.80399
4.72232
4.6413
4.56012
4.47817
4.39669
4.31712
4.2394
4.16255
5.79621
5.71609
5.6343
5.55175
5.47022
5.38846
5.3058
5.22458
5.14492
5.06466
4.98355
4.90245
4.82091
4.73813
4.65566
4.57477
4.49409
4.4135
4.33472
4.25813
4.1827
5.80795
5.72928
5.64928
5.56573
5.48431
5.40323
5.32191
5.24218
5.16271
5.08152
5.00012
4.91854
4.83498
4.75107
4.66998
4.5907
4.51108
4.43169
4.35416
4.2784
4.20352
5.82881
5.74901
5.66156
5.57952
5.49961
5.41993
5.33931
5.25939
5.17892
5.09692
5.01422
4.9315
4.84849
4.76608
4.68609
4.60823
4.53047
4.45259
4.3754
4.29902
4.22366
5.84073
5.75486
5.67312
5.59504
5.51822
5.43824
5.35686
5.27572
5.19252
5.10824
5.02626
4.94527
4.86315
4.78212
4.70465
4.62884
4.55181
4.47346
4.39537
4.3183
4.24249
5.845
5.76779
5.69033
5.61106
5.53393
5.4538
5.37103
5.28802
5.20347
5.11976
5.03918
4.95996
4.88062
4.80248
4.72615
4.6493
4.57151
4.49336
4.41464
4.33638
4.26012
5.86078
5.78325
5.71069
5.62896
5.54714
5.4641
5.3814
5.29809
5.21398
5.1318
5.05493
4.97894
4.90118
4.82313
4.74562
4.66814
4.5896
4.5104
4.43156
4.35411
4.2784
5.88053
5.79894
5.7214
5.64408
5.55699
5.47041
5.38911
5.30927
5.22778
5.14872
5.07447
4.99903
4.92094
4.84296
4.764
4.68317
4.6039
4.52712
4.45021
4.37332
4.2979
5.8885
5.80784
5.73008
5.65312
5.56821
5.48112
5.39974
5.32286
5.24601
5.16887
5.09425
5.01755
4.93826
4.85843
4.77782
4.69755
4.62
4.5447
4.46936
4.39404
4.31971
5.90211
5.81678
5.73798
5.658
5.57413
5.49055
5.41624
5.34215
5.26592
5.18973
5.11253
5.03227
4.9511
4.87262
4.79334
4.71304
4.63665
4.56442
4.49138
4.41625
4.34131
5.91131
5.82225
5.74029
5.6616
5.58235
5.50634
5.43619
5.36555
5.28385
5.20452
5.12575
5.04489
4.96469
4.88802
4.81051
4.73222
4.65768
4.58593
4.51235
4.43671
4.3615
5.90541
5.82204
5.74337
5.67062
5.59764
5.52787
5.45754
5.37883
5.29936
5.21697
5.13568
5.056
4.97944
4.90604
4.83078
4.75357
4.67899
4.60652
4.53228
4.45564
4.37936
5.91998
5.84377
5.76806
5.69568
5.62146
5.54807
5.4697
5.38784
5.30557
5.23069
5.15181
5.07234
4.99801
4.92654
4.85235
4.77529
4.69968
4.62467
4.54911
4.47292
4.39714
5.93735
5.86439
5.78867
5.7102
5.63141
5.55448
5.4745
5.39372
5.31781
5.24479
5.16879
5.09125
5.0197
4.94802
4.87215
4.79327
4.71623
4.64032
4.56483
4.48956
4.4145
5.95633
5.87833
5.79862
5.71681
5.63605
5.55882
5.48188
5.40462
5.33548
5.26316
5.18826
5.11164
5.03934
4.96692
4.89064
4.81281
4.73466
4.65626
4.58016
4.50683
4.43345
5.98082
5.89136
5.80795
5.72685
5.64761
5.57143
5.49528
5.42074
5.35495
5.28276
5.20475
5.13183
5.06114
4.98109
4.90236
4.82678
4.75043
4.67364
4.59847
4.52553
4.45246
5.97508
5.88733
5.80587
5.72848
5.65413
5.58243
5.50803
5.43544
5.36975
5.29913
5.22076
5.14785
5.07203
4.9943
4.91602
4.84183
4.76748
4.69141
4.61728
4.54596
4.47388
5.98262
5.8999
5.82144
5.74882
5.67721
5.60654
5.53167
5.45771
5.38681
5.31362
5.23504
5.1614
5.08556
5.00708
4.93094
4.86
4.78621
4.71015
4.63745
4.56652
4.49465
6.01361
5.92288
5.83838
5.76567
5.69394
5.62137
5.54615
5.47125
5.39724
5.3221
5.24481
5.17314
5.09886
5.02051
4.94731
4.88085
4.80622
4.72814
4.65429
4.58506
4.51444
5.96747
5.92573
5.85538
5.78083
5.70718
5.63285
5.55817
5.4831
5.40927
5.33348
5.25835
5.18708
5.11431
5.03639
4.96576
4.89759
4.82406
4.74857
4.67475
4.60333
4.53207
6.02213
5.97711
5.88666
5.79923
5.72155
5.6465
5.57189
5.49658
5.42294
5.34766
5.27429
5.20135
5.12885
5.05252
4.98252
4.91431
4.84379
4.76692
4.69318
4.62269
4.55055
5.91558
5.94814
5.88341
5.80088
5.72558
5.65273
5.58026
5.5053
5.43089
5.357
5.28546
5.21433
5.14282
5.0692
5.00043
4.93099
4.85823
4.785
4.71239
4.63779
4.5645
5.55698
5.94002
5.89842
5.82062
5.74289
5.66972
5.59666
5.52238
5.44668
5.37273
5.30198
5.23248
5.16105
5.08959
5.01812
4.94569
4.8731
4.80026
4.72717
4.65422
4.58238
4.84648
5.94361
5.9263
5.84512
5.75541
5.67906
5.60535
5.53314
5.45909
5.38714
5.31707
5.24786
5.17539
5.10571
5.0327
4.95796
4.88506
4.81374
4.74194
4.66961
4.5978
3.51507
5.56724
5.87365
5.83942
5.76667
5.68997
5.61679
5.54713
5.47809
5.40727
5.33566
5.26405
5.19072
5.11941
5.04672
4.9716
4.89838
4.82882
4.75662
4.68536
4.61706
5.15598
5.91561
5.88484
5.8039
5.7084
5.63323
5.56396
5.49597
5.42528
5.35313
5.27805
5.20324
5.13124
5.05976
4.98553
4.91271
4.84356
4.77281
4.70262
4.63654
4.077
5.71925
5.8458
5.79245
5.72212
5.65164
5.58024
5.51
5.43716
5.36366
5.28775
5.21355
5.14163
5.07201
4.99976
4.92889
4.85973
4.79036
4.72218
4.65633
2.54135
5.36792
5.87725
5.82778
5.75538
5.67478
5.5956
5.52103
5.44847
5.37636
5.30252
5.22954
5.15859
5.08885
5.01809
4.9487
4.87995
4.81036
4.7417
4.67502
1.40917
4.51783
5.85059
5.84696
5.76577
5.67639
5.60002
5.52679
5.45456
5.38456
5.31561
5.2454
5.17446
5.1038
5.03432
4.9659
4.89739
4.82839
4.7592
4.69088
1.04195
3.10407
5.40878
5.78794
5.75777
5.68234
5.60958
5.54215
5.47345
5.40397
5.33582
5.26563
5.19467
5.12324
5.05375
4.98528
4.91682
4.84701
4.77702
4.7075
1.00171
1.72726
4.85487
5.8108
5.79468
5.71948
5.63263
5.56074
5.48863
5.41778
5.35025
5.28144
5.21076
5.13952
5.0707
5.00262
4.93336
4.86248
4.79167
4.72166
1.00004
1.1114
3.64283
5.49358
5.75
5.71174
5.64419
5.5729
5.50036
5.43138
5.36482
5.29742
5.22781
5.15813
5.08885
5.0193
4.94832
4.87634
4.80507
4.73519
1
1.00608
2.14332
5.11638
5.78381
5.75109
5.67918
5.59201
5.51629
5.44968
5.38389
5.31622
5.24482
5.1737
5.10334
5.03341
4.96197
4.88979
4.81903
4.7501
1
1.00018
1.24518
4.10254
5.6158
5.71902
5.67238
5.60071
5.53164
5.46725
5.3992
5.32809
5.2559
5.18498
5.11381
5.04353
4.97323
4.90268
4.83312
4.76531
1
1
1.01901
2.59409
5.27549
5.73371
5.69695
5.6283
5.55658
5.48651
5.41465
5.34057
5.26716
5.19599
5.12647
5.05789
4.98952
4.92076
4.85231
4.78516
1
1
1.00067
1.43739
4.4489
5.72212
5.724
5.65023
5.56493
5.49067
5.41851
5.34644
5.27711
5.20768
5.13849
5.07088
5.00504
4.93847
4.87073
4.8035
1
1
1.00002
1.04728
3.05556
5.27637
5.66306
5.63658
5.57039
5.49959
5.43029
5.36102
5.29375
5.22595
5.15816
5.09123
5.02552
4.95919
4.89169
4.82441
1
1
1
1.00207
1.70165
4.711
5.68266
5.67645
5.61064
5.52237
5.4463
5.37744
5.31107
5.24347
5.17503
5.10806
5.04285
4.97706
4.90987
4.8426
1
1
1
1.00006
1.10559
3.49388
5.35439
5.6312
5.59921
5.53336
5.45833
5.39142
5.32617
5.2598
5.1924
5.12645
5.06065
4.99447
4.92788
4.86124
1
1
1
1
1.00587
2.03661
4.9416
5.65918
5.63591
5.56763
5.48255
5.41196
5.34529
5.27782
5.21017
5.14405
5.07768
5.01117
4.94466
4.878
1
1
1
1
1.00018
1.20959
3.88588
5.43604
5.60533
5.5686
5.49597
5.42443
5.35669
5.28966
5.22423
5.15973
5.09286
5.02499
4.95786
4.89111
1
1
1
1
1
1.01559
2.39643
5.09363
5.62634
5.59397
5.51939
5.44255
5.37167
5.30533
5.24222
5.17727
5.10987
5.04174
4.97394
4.90575
1
1
1
1
1
1.00057
1.35132
4.2004
5.53233
5.58312
5.52915
5.45667
5.38317
5.31597
5.25439
5.19027
5.12204
5.05316
4.98583
4.91817
1
1
1
1
1
1.00001
1.03404
2.76067
5.16516
5.56711
5.54246
5.47567
5.39977
5.33301
5.26954
5.20315
5.13592
5.06881
5.0015
4.93365
1
1
1
1
1
1
1.00145
1.52921
4.43416
5.57632
5.57537
5.51127
5.41407
5.3432
5.28014
5.21403
5.1469
5.08146
5.01588
4.94968
1
1
1
1
1
1
1.00004
1.06591
3.10543
5.15309
5.50951
5.48633
5.42208
5.35249
5.29026
5.22675
5.16216
5.09919
5.03349
4.96773
1
1
1
1
1
1
1
1.00329
1.74939
4.62594
5.532
5.527
5.46303
5.3785
5.30904
5.24253
5.17773
5.11575
5.05149
4.98665
1
1
1
1
1
1
1
1.0001
1.12069
3.4493
5.21176
5.48222
5.45162
5.39044
5.32222
5.25528
5.19289
5.1307
5.066
5.00205
1
1
1
1
1
1
1
1
1.00739
2.01929
4.79253
5.50929
5.48592
5.42078
5.34168
5.27158
5.21075
5.1481
5.0827
5.01785
1
1
1
1
1
1
1
1
1.00025
1.20622
3.73842
5.28723
5.45043
5.41914
5.35324
5.28559
5.22591
5.16212
5.0958
5.03067
1
1
1
1
1
1
1
1
1.00001
1.0157
2.28424
4.92363
5.46661
5.44131
5.37647
5.30651
5.24597
5.18206
5.11515
5.04884
1
1
1
1
1
1
1
1
1
1.0006
1.30855
3.97187
5.36167
5.43817
5.38658
5.31592
5.25338
5.19389
5.13024
5.06592
1
1
1
1
1
1
1
1
1
1.00001
1.02851
2.53569
5.00199
5.43497
5.40429
5.33686
5.27155
5.20966
5.14635
5.0821
1
1
1
1
1
1
1
1
1
1
1.00122
1.42165
4.16382
5.39803
5.4227
5.37074
5.28928
5.21874
5.15507
5.09196
1
1
1
1
1
1
1
1
1
1
1.00003
1.04635
2.79663
4.979
5.37293
5.35394
5.30093
5.2275
5.16476
5.10478
1
1
1
1
1
1
1
1
1
1
1
1.00227
1.55968
4.3104
5.38922
5.39504
5.33792
5.25015
5.18098
5.11998
1.32938
1.33137
1.3317
1.3307
1.32946
1.32723
1.32241
1.31571
1.31197
1.31069
1.3098
1.30901
1.30828
1.30749
1.30669
1.30604
1.30545
1.30472
1.30337
1.30127
1.30036
1.30012
1.29975
1.29907
1.298
1.29639
1.29462
1.29393
1.29416
1.29543
1.29803
1.30157
1.30378
1.30455
1.30521
1.30594
1.30657
1.30724
1.30818
1.30955
1.31139
1.31441
3.92954
3.89279
3.85754
3.82286
3.78631
3.7497
3.71848
3.68439
3.65247
3.61461
3.58423
3.55346
3.51821
3.46745
3.42236
3.41495
3.45435
3.7163
4.176
4.39485
4.40955
4.37255
4.29726
4.21415
4.14601
4.08109
4.01871
3.9574
3.90007
3.84241
3.78213
3.72342
3.66488
3.61057
3.5591
3.50642
3.45651
3.40347
3.35252
3.30727
3.25743
3.21241
3.16228
3.11407
3.0753
3.02946
2.98846
2.93982
2.89667
2.85917
2.816
2.77699
2.73165
2.70007
2.66346
2.62505
2.58223
2.53811
2.50741
2.474
2.44633
2.41258
2.38717
2.36113
2.33058
2.30317
2.26954
2.24142
2.20818
2.17891
2.14676
2.11986
2.10233
2.07961
2.05704
2.02873
2.00382
1.97838
1.95454
1.92731
1.90991
1.89175
1.87262
1.84737
1.82546
1.81427
1.79918
1.78444
1.76648
1.74383
1.71669
1.69036
1.67329
1.65983
1.65031
1.63568
1.61513
1.59448
1.57019
1.55907
1.55281
1.54232
1.53161
1.51817
1.50367
1.4899
1.4767
1.46318
1.44633
1.41852
1.39018
1.38152
1.37904
1.37864
1.37838
1.37746
1.37584
1.37233
1.36582
1.35833
1.35701
1.35725
1.35807
1.35766
1.35589
1.3523
1.34989
1.34951
1.34975
1.34992
1.34935
1.34795
1.34455
1.34022
1.33814
1.33714
1.33611
1.33459
1.3332
1.33192
1.33025
1.3265
1.31938
1.31396
1.31296
1.31268
1.31331
1.3145
1.31424
1.31376
1.31328
1.31171
1.30915
1.30832
1.30833
1.30921
1.31238
1.31639
1.31747
1.3177
1.31755
1.31545
1.31179
1.3117
1.31266
1.31411
1.31743
1.32499
1.33088
1.33188
1.33236
1.33278
1.3328
1.33261
1.33268
1.33289
1.33332
1.33417
1.33601
1.3371
1.33685
1.33557
1.33284
1.33016
1.32945
1.32917
1.32895
1.32937
1.3317
1.33325
1.33258
1.33135
1.32943
1.32555
1.31916
1.31473
1.31362
1.31291
1.31232
1.31211
1.31179
1.31111
1.31033
1.30948
1.30854
1.30654
1.30305
1.30051
1.29978
1.29942
1.29886
1.29783
1.29617
1.29419
1.29353
1.29358
1.29427
1.29607
1.29919
1.30155
1.30223
1.30279
1.30347
1.30391
1.3047
1.30621
1.30753
1.30918
1.31215
1.31557
3.95116
3.91597
3.88102
3.84562
3.80841
3.77548
3.7405
3.7063
3.66996
3.63439
3.60401
3.57092
3.53774
3.49407
3.44781
3.41674
3.42288
3.53528
3.91196
4.30624
4.40278
4.3895
4.32947
4.24952
4.17575
4.10679
4.04141
3.9846
3.92909
3.87098
3.81245
3.7537
3.70004
3.64746
3.59457
3.54448
3.49261
3.44057
3.39256
3.34206
3.29493
3.24632
3.19542
3.15386
3.10785
3.06397
3.01902
2.97013
2.93362
2.88992
2.85084
2.80687
2.76951
2.73644
2.69617
2.65698
2.60716
2.57355
2.54117
2.51121
2.47945
2.44854
2.42416
2.3921
2.36379
2.32986
2.29996
2.26891
2.23588
2.20772
2.17484
2.15647
2.13448
2.11109
2.08461
2.05536
2.03019
2.00549
1.98186
1.95754
1.93915
1.91834
1.89737
1.87036
1.85692
1.84572
1.8308
1.81442
1.79099
1.76315
1.73418
1.71468
1.69937
1.68813
1.676
1.6564
1.63531
1.61317
1.59851
1.59237
1.58206
1.57009
1.55672
1.54112
1.52715
1.51387
1.50087
1.485
1.45698
1.4254
1.41244
1.40617
1.40169
1.40032
1.39722
1.39129
1.38711
1.38212
1.37009
1.36137
1.36062
1.36066
1.35924
1.35666
1.35413
1.35215
1.35174
1.35201
1.352
1.35141
1.34972
1.34626
1.34254
1.34078
1.33993
1.33985
1.33968
1.33831
1.33703
1.33557
1.33221
1.32492
1.31768
1.3158
1.31525
1.31537
1.31642
1.31623
1.31558
1.3149
1.313
1.30949
1.30786
1.30765
1.30797
1.31024
1.31406
1.31562
1.31575
1.31544
1.31371
1.30976
1.30872
1.30944
1.31073
1.31351
1.31989
1.32638
1.32796
1.32846
1.32889
1.32878
1.32849
1.32934
1.33009
1.33066
1.33156
1.33358
1.33544
1.33552
1.33477
1.33272
1.32982
1.32865
1.32849
1.3284
1.32883
1.33115
1.33373
1.33359
1.33258
1.33086
1.32773
1.32207
1.31737
1.31625
1.31574
1.31527
1.31544
1.31631
1.31576
1.31478
1.31382
1.31246
1.30945
1.30495
1.30175
1.30036
1.29945
1.29885
1.29815
1.29675
1.29464
1.29372
1.29369
1.29407
1.2951
1.29678
1.29908
1.30036
1.30083
1.30144
1.30218
1.30251
1.30353
1.30538
1.30719
1.30937
1.31278
1.31482
3.9735
3.93838
3.90343
3.86597
3.83146
3.79697
3.76135
3.72567
3.68665
3.65534
3.62046
3.58875
3.55263
3.51889
3.47623
3.4305
3.41841
3.44354
3.66125
4.11544
4.35196
4.38656
4.35292
4.28522
4.20794
4.1336
4.07192
4.0151
3.95779
3.90115
3.84353
3.78974
3.7365
3.6828
3.631
3.58008
3.52944
3.47917
3.42737
3.37802
3.32881
3.27757
3.23329
3.18717
3.14091
3.09736
3.04607
3.00716
2.96535
2.92299
2.88374
2.84047
2.80842
2.7682
2.72862
2.68115
2.63843
2.6091
2.57692
2.54787
2.51215
2.48638
2.45565
2.42392
2.39191
2.35853
2.33019
2.29574
2.26724
2.23448
2.21081
2.19062
2.16487
2.14076
2.10875
2.08222
2.057
2.03458
2.00992
1.98721
1.96598
1.94439
1.9214
1.89992
1.89058
1.87779
1.86236
1.84074
1.80976
1.77907
1.75561
1.74101
1.72683
1.71541
1.69855
1.67683
1.65633
1.6389
1.632
1.6227
1.60908
1.59535
1.57856
1.56403
1.55089
1.538
1.52324
1.49879
1.46215
1.44579
1.44132
1.43298
1.42638
1.42408
1.419
1.40944
1.39974
1.39048
1.37939
1.37217
1.36873
1.3648
1.35946
1.35513
1.35332
1.35327
1.35458
1.355
1.35398
1.35098
1.34687
1.34386
1.34266
1.34211
1.34251
1.34383
1.34333
1.34214
1.34079
1.33772
1.3306
1.32233
1.31942
1.31874
1.31869
1.31982
1.31971
1.31895
1.31812
1.31601
1.31125
1.30815
1.30769
1.30764
1.30915
1.31261
1.31423
1.31419
1.31369
1.31207
1.30794
1.30582
1.30626
1.30738
1.30989
1.31557
1.32187
1.32376
1.32449
1.32511
1.32521
1.32429
1.32481
1.32628
1.32744
1.32863
1.33088
1.3334
1.33391
1.33361
1.33223
1.32968
1.3279
1.32768
1.32764
1.32806
1.33018
1.3333
1.33387
1.33317
1.33179
1.32916
1.32415
1.31929
1.31803
1.31773
1.31742
1.31761
1.31929
1.31971
1.31876
1.31755
1.31586
1.31259
1.30761
1.30349
1.30181
1.30088
1.29993
1.29902
1.29809
1.29643
1.29457
1.29433
1.29436
1.29468
1.2955
1.29661
1.2981
1.29937
1.29993
1.30058
1.30138
1.30185
1.30305
1.30496
1.30706
1.30957
1.31226
1.31318
3.99529
3.95994
3.92293
3.88709
3.85276
3.81604
3.78032
3.74049
3.70708
3.67278
3.63746
3.60437
3.56763
3.54109
3.50546
3.45429
3.42155
3.43059
3.51082
3.84151
4.24737
4.37561
4.36764
4.32066
4.24301
4.16617
4.10314
4.04441
3.98763
3.9319
3.87959
3.82633
3.77231
3.71845
3.66497
3.61479
3.56415
3.51176
3.46142
3.41113
3.35971
3.31298
3.26653
3.21956
3.17598
3.12488
3.08143
3.0406
2.99614
2.95908
2.9148
2.88022
2.84132
2.79833
2.75578
2.70442
2.6749
2.64374
2.61476
2.58026
2.54835
2.52006
2.48565
2.45471
2.41847
2.39075
2.35842
2.32655
2.29634
2.26659
2.2468
2.22038
2.19519
2.16474
2.13402
2.10999
2.08568
2.06426
2.03704
2.01474
1.99174
1.97157
1.94877
1.93499
1.92483
1.91015
1.89174
1.85935
1.82318
1.79732
1.78198
1.76784
1.75425
1.74
1.71915
1.69933
1.68131
1.67177
1.66407
1.65012
1.63432
1.61587
1.59996
1.58747
1.57454
1.56078
1.5403
1.50409
1.47844
1.47473
1.46965
1.46056
1.45254
1.44765
1.44073
1.43001
1.41821
1.40458
1.39069
1.38118
1.37445
1.36776
1.3627
1.36062
1.35972
1.36024
1.36035
1.35892
1.35365
1.34728
1.34429
1.34348
1.34336
1.34467
1.34713
1.34749
1.34654
1.34545
1.34291
1.33629
1.3271
1.32304
1.32216
1.32183
1.32348
1.32464
1.32387
1.32283
1.32075
1.31517
1.30988
1.3088
1.30852
1.30927
1.31226
1.31388
1.31357
1.31278
1.311
1.30668
1.30352
1.30342
1.3041
1.30624
1.31137
1.31786
1.32001
1.32058
1.3211
1.32149
1.32077
1.31996
1.32118
1.32315
1.32509
1.32766
1.33093
1.33202
1.33211
1.3315
1.32953
1.32743
1.32695
1.32691
1.32725
1.3291
1.33245
1.33373
1.3333
1.3323
1.33014
1.32566
1.32042
1.31883
1.31861
1.31843
1.31863
1.32041
1.32197
1.32139
1.3202
1.3185
1.31535
1.31066
1.30633
1.30431
1.30328
1.3023
1.30128
1.3002
1.29909
1.29726
1.29526
1.29492
1.2949
1.29505
1.29551
1.29628
1.29751
1.29898
1.2998
1.30052
1.30141
1.30185
1.30286
1.30463
1.30663
1.30914
1.31092
1.31137
4.01598
3.97925
3.94147
3.90648
3.87001
3.83442
3.79521
3.75918
3.72615
3.68995
3.65761
3.61897
3.59032
3.56168
3.53015
3.48465
3.43679
3.4279
3.44364
3.61436
4.0242
4.31907
4.37031
4.34593
4.28079
4.20645
4.138
4.07538
4.01836
3.96665
3.91407
3.86055
3.80653
3.75117
3.69953
3.64803
3.59507
3.54351
3.49215
3.44142
3.39262
3.34493
3.29857
3.25496
3.20628
3.15932
3.11633
3.07072
3.03208
2.98954
2.95187
2.91418
2.86886
2.82777
2.77573
2.73941
2.7115
2.67994
2.65004
2.61172
2.58319
2.54947
2.51726
2.48192
2.45087
2.42234
2.38799
2.35848
2.32494
2.30261
2.27723
2.24911
2.22127
2.18687
2.16265
2.13853
2.11653
2.0916
2.06343
2.04164
2.01976
2.00099
1.98192
1.9715
1.95823
1.94192
1.91415
1.86848
1.83918
1.82235
1.81025
1.7946
1.78017
1.76232
1.74172
1.7254
1.7122
1.70479
1.69245
1.67478
1.65501
1.63511
1.62303
1.61089
1.59757
1.58011
1.54836
1.51422
1.50668
1.50321
1.49747
1.48776
1.47918
1.47291
1.46415
1.45017
1.43304
1.41905
1.40652
1.39322
1.37943
1.37225
1.37014
1.36925
1.36914
1.36838
1.36631
1.35884
1.34952
1.34558
1.34485
1.34484
1.34668
1.35022
1.35158
1.35101
1.35003
1.34749
1.34068
1.33092
1.32633
1.32534
1.32495
1.32663
1.32983
1.32969
1.3286
1.32659
1.32108
1.31358
1.31117
1.31072
1.31083
1.31306
1.31466
1.31415
1.31314
1.31102
1.30614
1.30211
1.30149
1.30152
1.30299
1.30755
1.31401
1.31685
1.31739
1.31764
1.3175
1.31665
1.31576
1.31603
1.31752
1.31989
1.32307
1.32744
1.32983
1.33022
1.33025
1.32928
1.32726
1.32641
1.32634
1.32658
1.32806
1.33139
1.33345
1.33329
1.33257
1.33082
1.32695
1.32125
1.31903
1.3187
1.31854
1.31869
1.32021
1.32255
1.3226
1.32166
1.32017
1.31745
1.31328
1.30939
1.30757
1.30658
1.30557
1.30448
1.30339
1.30224
1.30075
1.29799
1.29592
1.29556
1.29548
1.2955
1.29579
1.29666
1.29817
1.29972
1.30055
1.30129
1.30189
1.30154
1.30236
1.30397
1.3057
1.30794
1.30935
1.3097
4.03468
3.99638
3.96014
3.92395
3.88766
3.84976
3.81213
3.77983
3.74367
3.71055
3.67383
3.64074
3.61335
3.58153
3.55228
3.51255
3.46832
3.43184
3.43665
3.49214
3.77144
4.17842
4.34293
4.35347
4.31557
4.24915
4.17613
4.10978
4.05548
4.00172
3.94726
3.89239
3.83637
3.78349
3.73088
3.6778
3.62592
3.57358
3.52374
3.47353
3.42315
3.37545
3.33118
3.28651
3.23957
3.19377
3.14761
3.10651
3.06392
3.02355
2.98549
2.93976
2.89711
2.8491
2.80562
2.77946
2.74678
2.71809
2.67985
2.64513
2.61402
2.57922
2.54753
2.51182
2.4854
2.45225
2.42056
2.38664
2.35875
2.33453
2.30424
2.27657
2.24124
2.21461
2.19215
2.16869
2.14703
2.11547
2.09163
2.07021
2.05151
2.03285
2.01943
2.00742
1.99044
1.96653
1.91856
1.87947
1.86354
1.85145
1.83809
1.82044
1.80459
1.78521
1.76887
1.75509
1.74524
1.7349
1.71666
1.69539
1.6715
1.65769
1.64697
1.634
1.61861
1.59166
1.55395
1.54135
1.53683
1.53045
1.5244
1.51579
1.50583
1.49623
1.48478
1.47061
1.45269
1.43499
1.41957
1.40311
1.3916
1.38815
1.38597
1.38378
1.38167
1.37855
1.36865
1.3549
1.3489
1.34792
1.34803
1.35044
1.35412
1.35568
1.35533
1.35459
1.3528
1.3465
1.33495
1.32843
1.32718
1.32665
1.3284
1.33373
1.33535
1.33446
1.33268
1.32796
1.31938
1.31482
1.31418
1.31394
1.31522
1.31665
1.31598
1.31478
1.31241
1.30693
1.30145
1.30036
1.30013
1.30079
1.30461
1.31097
1.31419
1.31477
1.315
1.3146
1.31246
1.31076
1.31146
1.31244
1.31414
1.31703
1.32155
1.3264
1.32786
1.3282
1.32815
1.32716
1.32621
1.32607
1.32621
1.32724
1.33018
1.33307
1.33328
1.33277
1.33144
1.32823
1.32232
1.31914
1.31855
1.3183
1.31829
1.31935
1.32191
1.32277
1.32211
1.32095
1.3188
1.315
1.31163
1.31041
1.3097
1.30888
1.30794
1.30694
1.30585
1.30432
1.30143
1.29807
1.297
1.29664
1.29645
1.29642
1.29699
1.2985
1.30024
1.30115
1.30159
1.30181
1.30068
1.30027
1.30152
1.30308
1.30461
1.30645
1.30791
1.30851
4.05158
4.01387
3.97768
3.94107
3.90454
3.86561
3.83339
3.79894
3.76484
3.73052
3.69388
3.66658
3.63395
3.60382
3.57146
3.53746
3.50154
3.45202
3.43093
3.44158
3.57496
3.93787
4.27705
4.35427
4.33934
4.29015
4.21474
4.14572
4.089
4.03394
3.97852
3.92232
3.86837
3.81335
3.75825
3.70521
3.65251
3.60475
3.55576
3.5047
3.45606
3.40755
3.36295
3.31812
3.271
3.22438
3.182
3.13932
3.09713
3.05661
3.01086
2.96603
2.92078
2.87436
2.84698
2.81539
2.78471
2.75132
2.70903
2.67842
2.64288
2.6119
2.57647
2.54662
2.5173
2.48267
2.45032
2.41623
2.39162
2.36132
2.33144
2.29758
2.26628
2.24554
2.22206
2.20064
2.17249
2.14185
2.12247
2.10204
2.08499
2.06841
2.05714
2.0399
2.0153
1.97162
1.92179
1.90395
1.89299
1.88118
1.8642
1.84586
1.82964
1.8124
1.79939
1.78682
1.77624
1.75969
1.73643
1.71121
1.69157
1.68238
1.67051
1.65603
1.63425
1.5971
1.5757
1.57195
1.56614
1.55868
1.55118
1.54119
1.53
1.5184
1.50476
1.48797
1.46997
1.45269
1.43605
1.41957
1.4115
1.40751
1.40358
1.39949
1.39426
1.38283
1.36594
1.35657
1.3549
1.35456
1.35641
1.36014
1.36103
1.36022
1.35953
1.3581
1.35211
1.33965
1.33108
1.32943
1.32879
1.32974
1.33563
1.33984
1.33946
1.33801
1.33438
1.3263
1.31955
1.31851
1.31812
1.31881
1.32005
1.31928
1.31789
1.31533
1.30924
1.30216
1.30003
1.29962
1.29996
1.30322
1.30888
1.31218
1.31279
1.31303
1.31263
1.31014
1.30615
1.30574
1.30692
1.30861
1.31097
1.3145
1.31993
1.32441
1.32553
1.32597
1.326
1.32591
1.32603
1.32622
1.32686
1.32913
1.33258
1.3334
1.33299
1.33199
1.3295
1.32408
1.3195
1.31849
1.31813
1.31795
1.31847
1.32073
1.32231
1.32191
1.32097
1.31935
1.3161
1.31285
1.31185
1.31147
1.31107
1.31047
1.30978
1.30895
1.30764
1.30477
1.30074
1.29902
1.29851
1.2981
1.2979
1.29821
1.29975
1.30158
1.30233
1.30244
1.30211
1.3004
1.29857
1.29909
1.30058
1.30227
1.30378
1.30524
1.30673
1.30789
4.0685
4.03218
3.99595
3.96008
3.92086
3.88713
3.8548
3.81994
3.78689
3.74868
3.71988
3.68896
3.65533
3.62398
3.58865
3.56153
3.52727
3.47918
3.43776
3.43635
3.47306
3.70037
4.10073
4.31306
4.34572
4.32084
4.2568
4.18689
4.12203
4.06106
4.00421
3.95257
3.89885
3.84344
3.78861
3.73235
3.68393
3.63602
3.58486
3.53718
3.48786
3.44149
3.39723
3.34902
3.30069
3.2557
3.21271
3.17092
3.12852
3.08274
3.03718
2.99228
2.94532
2.915
2.88447
2.85174
2.82146
2.77692
2.74307
2.70894
2.67519
2.64431
2.60843
2.58075
2.54582
2.51287
2.4767
2.44801
2.41946
2.38702
2.35531
2.31926
2.29841
2.27665
2.2543
2.23048
2.19559
2.17427
2.15462
2.13645
2.11903
2.10573
2.08923
2.06187
2.02159
1.97164
1.94341
1.93522
1.92358
1.91005
1.88875
1.87298
1.85752
1.84336
1.83067
1.81767
1.80236
1.7783
1.75236
1.72795
1.71686
1.70713
1.69313
1.67459
1.6417
1.61233
1.60699
1.60189
1.59395
1.58628
1.57803
1.56636
1.55172
1.53676
1.52247
1.50682
1.489
1.46971
1.45269
1.44186
1.43545
1.42964
1.42355
1.41645
1.40358
1.38207
1.36827
1.36583
1.36519
1.36699
1.37042
1.37024
1.36834
1.3668
1.36497
1.35914
1.34543
1.33314
1.33056
1.33003
1.33084
1.33673
1.34309
1.34348
1.34239
1.33974
1.33287
1.32474
1.3228
1.3224
1.32284
1.32446
1.32392
1.32245
1.31992
1.31341
1.30455
1.30091
1.30025
1.30019
1.30305
1.30848
1.3111
1.31149
1.31162
1.31133
1.30912
1.30397
1.30117
1.30168
1.30335
1.30552
1.30813
1.31189
1.31729
1.32176
1.32313
1.32373
1.32429
1.3251
1.32582
1.32658
1.32829
1.33183
1.33363
1.33334
1.33249
1.33059
1.32627
1.32056
1.31859
1.31818
1.31788
1.31797
1.31958
1.32164
1.3215
1.32066
1.3193
1.31657
1.31325
1.31214
1.31183
1.31176
1.31181
1.31139
1.3108
1.30996
1.30775
1.30359
1.30114
1.30058
1.30013
1.29979
1.29995
1.30154
1.30337
1.30379
1.30357
1.30279
1.30079
1.29792
1.29739
1.29828
1.29987
1.30185
1.30352
1.3048
1.30617
1.30763
4.08718
4.05144
4.01612
3.9788
3.94181
3.91038
3.87571
3.84309
3.80558
3.77263
3.74342
3.70841
3.67732
3.63943
3.60927
3.58105
3.54797
3.50666
3.45688
3.43827
3.44576
3.5415
3.86266
4.21566
4.3404
4.33871
4.2943
4.22683
4.1555
4.08561
4.03095
3.979
3.92426
3.87125
3.81472
3.76449
3.7172
3.66566
3.61761
3.56776
3.51992
3.47575
3.42715
3.37838
3.33104
3.28465
3.24376
3.20085
3.15463
3.10932
3.06453
3.0185
2.98518
2.95405
2.92027
2.89028
2.84713
2.80881
2.77585
2.73954
2.71108
2.67393
2.64245
2.60965
2.57342
2.53975
2.50456
2.4771
2.44402
2.41273
2.37594
2.35082
2.3319
2.3092
2.28734
2.25452
2.22648
2.20808
2.18785
2.17047
2.15407
2.1379
2.10918
2.06897
2.02323
1.98605
1.97737
1.96724
1.95459
1.93652
1.91582
1.9032
1.88814
1.87499
1.86066
1.84396
1.82102
1.79303
1.76851
1.7518
1.74339
1.73077
1.71353
1.68573
1.65171
1.6426
1.63821
1.63066
1.62176
1.6132
1.60234
1.58695
1.57055
1.55534
1.5408
1.52519
1.50791
1.4893
1.47438
1.4659
1.45913
1.45188
1.44314
1.42929
1.40562
1.38719
1.38333
1.38143
1.38109
1.38252
1.3826
1.38018
1.37733
1.37446
1.36899
1.35514
1.33787
1.33247
1.33174
1.33215
1.33761
1.34555
1.34704
1.34615
1.34425
1.33894
1.33031
1.32667
1.32625
1.32644
1.32861
1.32898
1.32775
1.3256
1.31969
1.30955
1.30338
1.30228
1.30188
1.30399
1.30906
1.31133
1.31134
1.3111
1.31062
1.30833
1.30332
1.2993
1.29864
1.29903
1.30043
1.30265
1.30545
1.30924
1.31449
1.31869
1.3206
1.32178
1.32272
1.32386
1.3252
1.32704
1.33043
1.33349
1.33364
1.33304
1.33157
1.32838
1.32269
1.31919
1.31859
1.31821
1.31804
1.31888
1.32103
1.32126
1.32043
1.31916
1.31669
1.31321
1.31182
1.31156
1.31146
1.31181
1.31205
1.3117
1.31114
1.30975
1.30633
1.30318
1.30247
1.30205
1.30168
1.30174
1.30344
1.30535
1.30542
1.30498
1.3039
1.30157
1.29817
1.29671
1.29702
1.2981
1.29991
1.30227
1.30404
1.30506
1.30606
1.30732
4.10696
4.07184
4.03665
3.99836
3.9658
3.93218
3.89826
3.86242
3.82546
3.79665
3.76202
3.72893
3.69303
3.65719
3.62967
3.59683
3.56746
3.53029
3.48624
3.45034
3.44396
3.468
3.65045
4.02482
4.28707
4.33667
4.31537
4.26217
4.18797
4.1152
4.06033
4.00484
3.95087
3.89513
3.8445
3.79885
3.74767
3.69858
3.64786
3.59794
3.55352
3.50465
3.455
3.40728
3.35775
3.31619
3.27366
3.22751
3.18275
3.13721
3.09279
3.05806
3.02504
2.99049
2.95933
2.91779
2.87645
2.84299
2.80551
2.77577
2.74135
2.70377
2.67198
2.63397
2.60115
2.56429
2.53366
2.50247
2.46933
2.43639
2.40422
2.387
2.36569
2.34391
2.31543
2.2816
2.26131
2.2406
2.22148
2.20315
2.18547
2.1581
2.11584
2.07347
2.03241
2.02008
2.01238
1.99904
1.98513
1.96215
1.94782
1.93445
1.91941
1.90461
1.8862
1.86286
1.83442
1.80946
1.79024
1.77958
1.76877
1.75212
1.72811
1.6939
1.6787
1.67501
1.66809
1.65974
1.64819
1.63627
1.62301
1.60493
1.58637
1.57253
1.56069
1.54654
1.52849
1.50991
1.49773
1.49009
1.48269
1.47372
1.4599
1.4342
1.41082
1.40611
1.40413
1.40133
1.39942
1.39816
1.39572
1.39215
1.38788
1.38187
1.3685
1.34748
1.33671
1.33526
1.335
1.33898
1.34765
1.35058
1.34986
1.3484
1.34459
1.33619
1.33026
1.32954
1.32947
1.33158
1.33344
1.33264
1.33084
1.32622
1.31628
1.30778
1.30595
1.30523
1.30625
1.31081
1.31263
1.31223
1.31178
1.31114
1.30878
1.30379
1.29889
1.29674
1.29652
1.29678
1.29789
1.30007
1.30321
1.30731
1.31222
1.3158
1.31756
1.31911
1.32053
1.32207
1.32421
1.32784
1.33221
1.33342
1.33324
1.33231
1.33001
1.32539
1.32055
1.31935
1.3189
1.31855
1.31879
1.32067
1.32139
1.32058
1.31929
1.31696
1.31328
1.31142
1.31112
1.31101
1.31125
1.31191
1.31192
1.31158
1.31073
1.30828
1.30487
1.30379
1.30343
1.30312
1.30316
1.30498
1.30734
1.30735
1.30673
1.30543
1.30276
1.29903
1.297
1.29688
1.29739
1.29893
1.30141
1.30361
1.30471
1.30529
1.30566
1.30642
4.12785
4.09311
4.05613
4.02072
3.98808
3.95302
3.91873
3.87935
3.84857
3.81582
3.78044
3.74717
3.70754
3.67916
3.64706
3.61516
3.58544
3.55065
3.52061
3.4769
3.44734
3.45569
3.52508
3.79065
4.17075
4.30842
4.31755
4.28743
4.21961
4.14897
4.08978
4.03322
3.97645
3.92299
3.87795
3.82848
3.77965
3.7299
3.67784
3.63164
3.58195
3.53062
3.48249
3.43108
3.38884
3.34737
3.30157
3.25775
3.21144
3.16739
3.13244
3.09728
3.06162
3.02916
2.9884
2.94603
2.91081
2.87262
2.84003
2.80782
2.76575
2.73227
2.69504
2.65945
2.62649
2.59015
2.56108
2.52678
2.4968
2.46267
2.44187
2.42356
2.4012
2.37575
2.34049
2.3146
2.29397
2.27251
2.25308
2.23321
2.20705
2.1651
2.1216
2.08101
2.06437
2.05817
2.04506
2.03176
2.01303
1.99279
1.9807
1.96434
1.94853
1.92922
1.9043
1.87647
1.84993
1.83174
1.81759
1.80699
1.79116
1.76887
1.73789
1.71617
1.71152
1.70628
1.69727
1.6881
1.67415
1.65451
1.63689
1.62067
1.60503
1.59258
1.58158
1.56789
1.54962
1.53212
1.52148
1.51379
1.50517
1.49245
1.46767
1.43973
1.43233
1.43068
1.42747
1.42253
1.41838
1.41468
1.41065
1.40558
1.39863
1.3855
1.36286
1.34516
1.34164
1.34092
1.34317
1.35092
1.35483
1.35426
1.35299