/*--------------------------------*- C++ -*----------------------------------*\
  =========                 |
  \\      /  F ield         | OpenFOAM: The Open Source CFD Toolbox
   \\    /   O peration     | Website:  https://openfoam.org
    \\  /    A nd           | Version:  7
     \\/     M anipulation  |
\*---------------------------------------------------------------------------*/
FoamFile
{
    version     2.0;
    format      ascii;
    class       volScalarField;
    location    "3";
    object      rho;
}
// * * * * * * * * * * * * * * * * * * * * * * * * * * * * * * * * * * * * * //

dimensions      [1 -3 0 0 0 0 0];

internalField   nonuniform List<scalar> 
16192
(
3.88125
3.83395
3.7861
3.73682
3.68572
3.63422
3.58359
3.53399
3.48523
3.43678
3.38807
3.33888
3.28965
3.24091
3.1926
3.14439
3.09653
3.049
3.00196
2.95552
2.90999
3.90209
3.85099
3.79997
3.74945
3.69906
3.64905
3.5996
3.55046
3.50181
3.45348
3.40458
3.35513
3.30603
3.25747
3.20884
3.16042
3.11269
3.06513
3.01753
2.97116
2.92615
3.91599
3.8632
3.81205
3.76235
3.71379
3.66564
3.61693
3.56762
3.51846
3.4695
3.42032
3.37103
3.32211
3.27361
3.22525
3.17688
3.12878
3.08119
3.03403
2.98802
2.94323
3.92706
3.87596
3.82659
3.77831
3.73064
3.6829
3.63403
3.58394
3.53407
3.48485
3.43559
3.38647
3.33806
3.28987
3.24132
3.1929
3.14528
3.09822
3.05127
3.00527
2.96061
3.94107
3.89262
3.84464
3.79638
3.74795
3.6991
3.64939
3.59915
3.54928
3.50002
3.45093
3.40226
3.3541
3.30599
3.25769
3.20966
3.16228
3.11558
3.06915
3.02323
2.97818
3.95954
3.91169
3.86324
3.81362
3.76358
3.71374
3.66377
3.61365
3.56422
3.51546
3.46661
3.41792
3.37006
3.32231
3.27427
3.22651
3.17962
3.13328
3.08696
3.04073
2.9951
3.97862
3.92931
3.87938
3.82886
3.77834
3.72817
3.67829
3.62876
3.57992
3.53125
3.48234
3.43392
3.38635
3.33893
3.29131
3.24392
3.19703
3.15043
3.10396
3.05751
3.01126
3.99473
3.94407
3.89363
3.84303
3.79272
3.74297
3.69347
3.64415
3.59542
3.54693
3.49824
3.45004
3.4027
3.35555
3.30823
3.26091
3.21368
3.16658
3.11975
3.07309
3.02663
4.01118
3.95929
3.90822
3.85787
3.80824
3.75882
3.70918
3.6599
3.61147
3.56308
3.51453
3.46665
3.4195
3.37225
3.32466
3.27715
3.22953
3.18175
3.1346
3.08826
3.04219
4.02687
3.9743
3.9234
3.87314
3.82365
3.77439
3.72482
3.67563
3.62734
3.57919
3.53109
3.48352
3.43582
3.38772
3.34
3.29224
3.24411
3.19625
3.14943
3.10358
3.05821
4.04106
3.99163
3.94071
3.88973
3.83984
3.7903
3.7406
3.69183
3.64404
3.59609
3.54787
3.49979
3.45158
3.4028
3.3542
3.30648
3.25892
3.21147
3.16501
3.11973
3.0751
4.05289
4.00731
3.95825
3.90651
3.85604
3.80627
3.75689
3.70867
3.66084
3.61229
3.56379
3.51533
3.46594
3.41643
3.36843
3.32143
3.27432
3.22739
3.18151
3.13662
3.09227
4.06576
4.02304
3.97322
3.92333
3.8735
3.82386
3.77426
3.72556
3.67698
3.62786
3.57854
3.52935
3.48009
3.43122
3.38366
3.33727
3.29099
3.24473
3.19894
3.15368
3.10905
4.07069
4.02811
3.98473
3.93972
3.89264
3.84285
3.79233
3.74244
3.69202
3.64145
3.59232
3.54388
3.49495
3.44666
3.40025
3.35476
3.30873
3.26211
3.21575
3.17005
3.12512
4.06918
4.03402
3.99558
3.9532
3.90872
3.86017
3.80908
3.75779
3.70612
3.65539
3.6067
3.55897
3.51133
3.46437
3.41844
3.3723
3.32573
3.27909
3.23228
3.18582
3.14057
4.07384
4.03881
4.00562
3.9647
3.92095
3.87341
3.82363
3.77237
3.72052
3.67003
3.62278
3.5764
3.52938
3.48236
3.4357
3.38912
3.34202
3.29465
3.24763
3.20148
3.1564
4.08268
4.04337
4.00803
3.97209
3.92803
3.88207
3.83552
3.78738
3.73705
3.68772
3.64127
3.59472
3.54722
3.50006
3.45251
3.40402
3.3564
3.31018
3.26401
3.218
3.17294
4.08947
4.04719
4.00964
3.97405
3.93385
3.88949
3.84577
3.80202
3.75553
3.70744
3.66045
3.61273
3.56413
3.51565
3.46703
3.4187
3.37185
3.32627
3.28079
3.23544
3.19078
4.10235
4.05414
4.01301
3.97398
3.93454
3.89424
3.85627
3.81584
3.77248
3.72671
3.67898
3.62921
3.57915
3.53093
3.48265
3.43409
3.3877
3.3436
3.29917
3.25377
3.20863
4.11741
4.06244
4.01634
3.97529
3.93653
3.90061
3.86671
3.83052
3.78633
3.74107
3.69415
3.6447
3.59503
3.54733
3.49954
3.45165
3.40598
3.36197
3.31712
3.27129
3.22586
4.12836
4.07225
4.02335
3.98193
3.94348
3.90934
3.87595
3.83766
3.79679
3.75206
3.70609
3.65877
3.61163
3.56556
3.51854
3.47077
3.42472
3.38008
3.33467
3.28813
3.24196
4.15109
4.09609
4.04487
3.99982
3.95732
3.91865
3.87988
3.84051
3.7999
3.76108
3.71802
3.67328
3.6292
3.58496
3.53858
3.49059
3.4436
3.39721
3.35079
3.30424
3.25815
4.17603
4.12137
4.06793
4.01551
3.9673
3.92421
3.88235
3.84202
3.80497
3.76855
3.72894
3.68666
3.64591
3.60348
3.55734
3.50868
3.46069
3.41344
3.36664
3.32024
3.27429
4.20328
4.14532
4.08761
4.03087
3.97786
3.93091
3.88792
3.84715
3.81248
3.77689
3.73942
3.69945
3.65986
3.61886
3.57425
3.52717
3.47892
3.43018
3.38269
3.33693
3.29153
4.23321
4.16958
4.10898
4.0506
3.99552
3.94525
3.89899
3.8569
3.82185
3.78542
3.74681
3.71031
3.67346
3.62994
3.58581
3.54148
3.49525
3.44774
3.40067
3.35481
3.30921
4.24083
4.18341
4.12476
4.06781
4.01315
3.96253
3.91313
3.86886
3.83155
3.79362
3.75364
3.7174
3.67912
3.63861
3.59585
3.55398
3.51069
3.46491
3.41896
3.37398
3.32863
4.2533
4.20231
4.14768
4.09427
4.04071
3.98868
3.93654
3.88805
3.84488
3.80339
3.76092
3.7231
3.68509
3.64535
3.60539
3.56652
3.52486
3.48082
3.43706
3.39303
3.34792
4.27966
4.22454
4.16998
4.11777
4.06522
4.01158
3.95773
3.90586
3.85751
3.81186
3.76826
3.72951
3.69106
3.65139
3.6141
3.57917
3.5385
3.49454
3.45171
3.40988
3.36621
4.26099
4.23542
4.19102
4.14009
4.08726
4.03328
3.97891
3.92546
3.87439
3.82489
3.7794
3.73892
3.69938
3.65877
3.62286
3.58797
3.54936
3.50832
3.46641
3.4249
3.38221
4.29698
4.26932
4.21688
4.16251
4.10953
4.05571
4.00155
3.94723
3.89468
3.84272
3.79482
3.75059
3.7093
3.66757
3.63081
3.59588
3.55979
3.51934
3.47899
3.43903
3.39708
4.2544
4.25397
4.21902
4.1725
4.12455
4.07386
4.02138
3.96717
3.91338
3.86065
3.81099
3.76445
3.72083
3.6786
3.64071
3.60403
3.56656
3.52882
3.49045
3.44951
3.40802
4.10186
4.25537
4.23076
4.18678
4.14119
4.0944
4.04419
3.99128
3.93678
3.88335
3.8326
3.78428
3.73747
3.69391
3.65281
3.61273
3.57395
3.53603
3.49797
3.45926
3.4199
3.76978
4.268
4.253
4.20546
4.15373
4.1077
4.06035
4.0109
3.95845
3.90606
3.85496
3.8052
3.75514
3.70944
3.66498
3.62204
3.58145
3.5429
3.50504
3.46717
3.42893
3.03537
4.0879
4.23011
4.20895
4.16645
4.12065
4.07531
4.02973
3.98203
3.93163
3.87975
3.82797
3.77596
3.72682
3.6795
3.63371
3.59135
3.5521
3.51278
3.475
3.43907
3.92293
4.25972
4.23938
4.1927
4.13712
4.09133
4.04757
4.0028
3.95463
3.90361
3.85016
3.79681
3.74576
3.69654
3.6482
3.60349
3.56305
3.52285
3.48432
3.44905
3.34725
4.16614
4.22096
4.19057
4.14982
4.10769
4.06377
4.01942
3.97213
3.92234
3.86967
3.81695
3.76536
3.71561
3.66584
3.61936
3.57643
3.53544
3.4963
3.45986
2.49263
4.02072
4.24266
4.21266
4.17129
4.12519
4.07835
4.03296
3.98741
3.94029
3.89045
3.83955
3.78876
3.7384
3.68805
3.64007
3.59466
3.55118
3.51027
3.47175
1.75057
3.59751
4.236
4.22783
4.18152
4.13018
4.08571
4.04234
3.99846
3.95416
3.90867
3.8609
3.81119
3.76063
3.7105
3.66162
3.61408
3.56825
3.52476
3.48396
1.44025
2.81404
4.02714
4.19991
4.18233
4.1391
4.09635
4.05577
4.01412
3.97141
3.92829
3.88254
3.83454
3.7847
3.73493
3.68559
3.63675
3.58836
3.54191
3.49822
1.40172
1.9826
3.77925
4.22106
4.20758
4.1641
4.11358
4.07066
4.02747
3.98476
3.94324
3.89988
3.8539
3.80581
3.75749
3.70874
3.65907
3.60888
3.55997
3.51359
1.40005
1.50368
3.11239
4.06466
4.1866
4.1642
4.12474
4.08224
4.03892
3.99752
3.95718
3.91566
3.87173
3.8262
3.77933
3.73095
3.6808
3.62974
3.57942
3.53117
1.40001
1.40603
2.25403
3.91071
4.21132
4.18999
4.14839
4.09765
4.05269
4.01253
3.97277
3.93169
3.88789
3.84313
3.79746
3.75049
3.70127
3.65062
3.60028
3.55139
1.40001
1.40019
1.61895
3.37375
4.13315
4.1737
4.14751
4.10667
4.0661
4.02732
3.98633
3.9435
3.89981
3.85622
3.81162
3.76617
3.71917
3.67055
3.62133
3.57272
1.40001
1.40001
1.41854
2.52821
3.98969
4.18695
4.16413
4.12472
4.08362
4.0427
4.00001
3.95563
3.91142
3.86827
3.82552
3.78233
3.73792
3.69178
3.64431
3.59654
1.40001
1.40001
1.40068
1.77259
3.5759
4.19228
4.18409
4.14206
4.09269
4.04921
4.00668
3.96384
3.92214
3.88035
3.83846
3.79669
3.75475
3.71118
3.66559
3.61889
1.40001
1.40001
1.40002
1.44523
2.7955
3.98252
4.15451
4.13884
4.10071
4.0591
4.01765
3.97621
3.93585
3.89514
3.85424
3.8134
3.77255
3.73045
3.68657
3.64131
1.40001
1.40001
1.40001
1.40207
1.96591
3.72144
4.17795
4.16507
4.1268
4.07583
4.03096
3.98979
3.94995
3.9094
3.86826
3.82772
3.78776
3.74692
3.70451
3.66073
1.40001
1.40001
1.40001
1.40006
1.4985
3.04161
4.01909
4.14372
4.1248
4.08628
4.04237
4.00233
3.963
3.92299
3.88238
3.84249
3.80257
3.76214
3.72096
3.67874
1.40001
1.40001
1.40001
1.40001
1.40582
2.18887
3.84242
4.16766
4.15075
4.10967
4.05985
4.0179
3.97799
3.93748
3.89671
3.85674
3.81665
3.77637
3.73577
3.6944
1.40001
1.40001
1.40001
1.40001
1.40019
1.5891
3.26862
4.06166
4.13628
4.11446
4.07176
4.02905
3.98851
3.94838
3.90896
3.86991
3.8296
3.78871
3.74801
3.7071
1.40001
1.40001
1.40001
1.40001
1.40001
1.41527
2.41586
3.91817
4.15517
4.13428
4.08958
4.04361
4.00117
3.96137
3.92324
3.88402
3.84344
3.80239
3.76138
3.71997
1.40001
1.40001
1.40001
1.40001
1.40001
1.40057
1.70571
3.45195
4.1201
4.12956
4.09863
4.05607
4.01231
3.97182
3.93433
3.89555
3.85452
3.81306
3.77232
3.73135
1.40001
1.40001
1.40001
1.40001
1.40001
1.40002
1.43284
2.63465
3.95686
4.12693
4.11098
4.07122
4.02601
3.98564
3.94711
3.90706
3.86654
3.82598
3.78525
3.74424
1.40001
1.40001
1.40001
1.40001
1.40001
1.40001
1.40146
1.84249
3.59168
4.1458
4.13521
4.09699
4.03955
3.99628
3.95764
3.91755
3.87699
3.83733
3.79756
3.75748
1.40001
1.40001
1.40001
1.40001
1.40001
1.40001
1.40004
1.46246
2.83583
3.94125
4.10249
4.08786
4.04976
4.00766
3.96882
3.92947
3.88988
3.8514
3.81161
3.7718
1.40001
1.40001
1.40001
1.40001
1.40001
1.40001
1.40001
1.40328
2.00094
3.69379
4.12762
4.1152
4.0774
4.02729
3.98466
3.94349
3.90341
3.86521
3.82606
3.78665
1.40001
1.40001
1.40001
1.40001
1.40001
1.40001
1.40001
1.40011
1.51207
3.02943
3.96976
4.094
4.07554
4.03899
3.99756
3.95623
3.91722
3.87851
3.83871
3.79954
1.40001
1.40001
1.40001
1.40001
1.40001
1.40001
1.40001
1.40001
1.40731
2.18066
3.78198
4.11734
4.10029
4.06076
4.0135
3.97073
3.93264
3.89349
3.85295
3.81291
1.40001
1.40001
1.40001
1.40001
1.40001
1.40001
1.40001
1.40001
1.40026
1.58637
3.19941
4.01007
4.08213
4.06324
4.02449
3.98386
3.94667
3.90686
3.86549
3.82493
1.40001
1.40001
1.40001
1.40001
1.40001
1.40001
1.40001
1.40001
1.40001
1.41538
2.35112
3.85043
4.09802
4.08084
4.04153
3.99989
3.96275
3.92303
3.88135
3.84005
1.40001
1.40001
1.40001
1.40001
1.40001
1.40001
1.40001
1.40001
1.40001
1.40061
1.67166
3.33793
4.0553
4.08038
4.05049
4.00905
3.97123
3.93438
3.8949
3.85486
1.40001
1.40001
1.40001
1.40001
1.40001
1.40001
1.40001
1.40001
1.40001
1.40002
1.42763
2.5075
3.89462
4.08427
4.06491
4.02454
3.98516
3.94761
3.90889
3.8692
1.40001
1.40001
1.40001
1.40001
1.40001
1.40001
1.40001
1.40001
1.40001
1.40001
1.40122
1.7618
3.45545
4.07882
4.07822
4.04867
4.00031
3.95752
3.91846
3.87956
1.40001
1.40001
1.40001
1.40001
1.40001
1.40001
1.40001
1.40001
1.40001
1.40001
1.40004
1.4444
2.66557
3.88191
4.05573
4.04354
4.01161
3.96783
3.9289
3.89142
1.40001
1.40001
1.40001
1.40001
1.40001
1.40001
1.40001
1.40001
1.40001
1.40001
1.40001
1.40227
1.86595
3.54135
4.0809
4.0705
4.03659
3.98496
3.94281
3.90478
1.27483
1.27624
1.27648
1.27581
1.27493
1.27333
1.26998
1.26537
1.26279
1.26192
1.26131
1.26077
1.26025
1.25971
1.25917
1.25875
1.25836
1.25785
1.2569
1.25546
1.25483
1.25464
1.25433
1.25377
1.25289
1.25163
1.2503
1.24977
1.24988
1.25069
1.25253
1.25518
1.25688
1.25751
1.25799
1.25844
1.25879
1.25913
1.25956
1.26028
1.26146
1.2637
2.87638
2.85519
2.83482
2.81477
2.79374
2.77268
2.75453
2.73488
2.7164
2.69469
2.67698
2.65911
2.6389
2.61029
2.58502
2.57888
2.59903
2.7361
2.97137
3.08147
3.08128
3.06176
3.02222
2.97826
2.94168
2.90674
2.87309
2.83998
2.80882
2.77734
2.74444
2.71233
2.68031
2.65047
2.62201
2.59276
2.56483
2.5352
2.50672
2.48135
2.45352
2.42818
2.40002
2.37281
2.35069
2.3247
2.30127
2.27357
2.24883
2.22722
2.20245
2.17995
2.15383
2.13533
2.11391
2.09138
2.06624
2.04027
2.02192
2.00203
1.98546
1.96537
1.95008
1.9344
1.91605
1.89949
1.8792
1.86211
1.84196
1.82413
1.80455
1.78808
1.77724
1.76327
1.74937
1.73194
1.71649
1.70065
1.68574
1.66871
1.65768
1.64616
1.63403
1.61805
1.60411
1.59689
1.5872
1.57774
1.56625
1.55175
1.53426
1.51723
1.50609
1.49728
1.49102
1.48149
1.46814
1.45471
1.43885
1.43151
1.42732
1.42032
1.41317
1.4042
1.39458
1.38546
1.37671
1.36773
1.35652
1.33786
1.31861
1.31264
1.3109
1.31061
1.31043
1.3098
1.30872
1.30629
1.3016
1.29619
1.29521
1.29532
1.29585
1.29564
1.29468
1.29251
1.29099
1.29072
1.29081
1.29076
1.29016
1.28896
1.28658
1.28385
1.2826
1.28202
1.28141
1.28051
1.27963
1.27873
1.27747
1.27474
1.2698
1.26607
1.26541
1.26522
1.26565
1.26645
1.26624
1.26583
1.26539
1.2642
1.26242
1.26185
1.26186
1.26247
1.26469
1.26748
1.26826
1.26844
1.26834
1.2669
1.26437
1.2643
1.26496
1.26598
1.26831
1.27357
1.27768
1.27839
1.27868
1.27893
1.27892
1.27876
1.27875
1.27882
1.27904
1.27956
1.2808
1.28154
1.28136
1.28043
1.27845
1.27649
1.27595
1.27574
1.2756
1.2759
1.27755
1.27865
1.27822
1.27739
1.27603
1.27331
1.26886
1.26577
1.26502
1.26454
1.26415
1.264
1.26379
1.26334
1.26283
1.26226
1.2616
1.26022
1.25784
1.25611
1.25559
1.2553
1.25484
1.25401
1.2527
1.2512
1.25066
1.25067
1.25107
1.25228
1.25454
1.2564
1.25701
1.25747
1.25794
1.25817
1.2586
1.25949
1.26019
1.26113
1.26311
1.26572
2.89329
2.87284
2.85255
2.83201
2.81057
2.79146
2.77124
2.75147
2.73052
2.71004
2.69228
2.67313
2.65404
2.62913
2.60314
2.58425
2.58692
2.64573
2.84048
3.04437
3.08454
3.07639
3.04404
3.00164
2.96229
2.92524
2.88996
2.85909
2.82877
2.79696
2.7649
2.73279
2.70337
2.67443
2.64514
2.61714
2.58813
2.55907
2.53226
2.50417
2.47777
2.45048
2.42187
2.39824
2.37219
2.34723
2.32162
2.29381
2.27278
2.24778
2.2253
2.20003
2.17837
2.15905
2.13558
2.11262
2.08351
2.06353
2.04426
2.02641
2.00752
1.98908
1.97441
1.95523
1.93818
1.91777
1.89968
1.88087
1.86087
1.84373
1.82375
1.81242
1.79895
1.78462
1.76837
1.75037
1.73475
1.71937
1.70461
1.68938
1.67776
1.66463
1.65138
1.63435
1.62573
1.61852
1.60898
1.59851
1.5836
1.56577
1.54712
1.53445
1.52447
1.51711
1.5092
1.49652
1.48288
1.46852
1.45894
1.45484
1.448
1.44002
1.43112
1.42077
1.41152
1.40275
1.39416
1.38367
1.36504
1.34379
1.33492
1.33059
1.32752
1.3266
1.32451
1.32052
1.31766
1.31419
1.30581
1.29958
1.29891
1.29886
1.29788
1.29631
1.29484
1.29363
1.29341
1.29359
1.29347
1.29282
1.29138
1.28893
1.28652
1.28552
1.28508
1.28511
1.28507
1.28426
1.28341
1.28232
1.27985
1.27477
1.26977
1.2685
1.26814
1.26822
1.26895
1.2688
1.26828
1.26772
1.26628
1.2638
1.26267
1.26253
1.26275
1.26434
1.26701
1.26811
1.26823
1.26802
1.26684
1.2641
1.26338
1.26386
1.26475
1.26672
1.27122
1.27576
1.27692
1.27724
1.27749
1.27739
1.27715
1.27768
1.27812
1.27845
1.279
1.28035
1.28163
1.28168
1.28114
1.27965
1.27755
1.27665
1.2765
1.27641
1.27668
1.27828
1.2801
1.28002
1.27936
1.27819
1.27602
1.27206
1.26875
1.26797
1.26762
1.2673
1.26742
1.26803
1.26767
1.26702
1.26637
1.26543
1.26336
1.26031
1.25815
1.25719
1.25653
1.25605
1.25548
1.25439
1.25276
1.252
1.25196
1.25216
1.2528
1.25396
1.25569
1.25678
1.25721
1.25768
1.25815
1.2583
1.25889
1.26001
1.26109
1.26243
1.26479
1.26646
2.91079
2.89028
2.86988
2.84819
2.8281
2.80804
2.78746
2.7668
2.7444
2.72612
2.70595
2.68754
2.66675
2.6472
2.62275
2.59753
2.58832
2.60105
2.71523
2.95015
3.06914
3.07957
3.06152
3.02554
2.98438
2.9445
2.91107
2.88002
2.8486
2.8175
2.78595
2.75645
2.72723
2.69761
2.66879
2.64031
2.61196
2.58392
2.55515
2.52763
2.5001
2.47137
2.4463
2.42022
2.39398
2.36916
2.34009
2.31779
2.29388
2.26964
2.24705
2.22218
2.20351
2.18021
2.15713
2.12948
2.1044
2.08689
2.06778
2.05049
2.02937
2.01392
1.99556
1.97657
1.95733
1.93726
1.92008
1.89929
1.882
1.86215
1.8477
1.83533
1.81964
1.80489
1.78531
1.76893
1.75329
1.73931
1.72393
1.70971
1.69637
1.68279
1.66833
1.65478
1.64874
1.64056
1.63072
1.617
1.59732
1.57765
1.5625
1.55298
1.54374
1.5363
1.5254
1.51142
1.4982
1.4869
1.48235
1.47619
1.46718
1.45805
1.44693
1.43731
1.42865
1.42016
1.41045
1.39432
1.36989
1.35877
1.35567
1.35001
1.34556
1.34402
1.3406
1.33414
1.32749
1.32106
1.31338
1.30825
1.30568
1.30288
1.29932
1.2967
1.2957
1.29573
1.29668
1.29687
1.29592
1.29356
1.29064
1.2886
1.2879
1.28767
1.28806
1.28912
1.28885
1.28811
1.28712
1.28485
1.27989
1.27419
1.27221
1.27176
1.27172
1.2725
1.27242
1.27185
1.27118
1.2696
1.26622
1.26406
1.26374
1.2637
1.26474
1.26717
1.26834
1.26833
1.26801
1.26689
1.26402
1.26255
1.26284
1.26359
1.26533
1.26936
1.27381
1.27522
1.27575
1.27614
1.27619
1.27552
1.27584
1.27678
1.27752
1.27827
1.27977
1.28148
1.28183
1.28162
1.28062
1.27879
1.27745
1.27725
1.27718
1.2774
1.27881
1.28097
1.28137
1.2809
1.27998
1.27819
1.27472
1.27129
1.27039
1.27017
1.26995
1.27008
1.27123
1.27153
1.27091
1.27011
1.26894
1.2667
1.26332
1.26051
1.25938
1.25874
1.25804
1.25733
1.25659
1.25533
1.25387
1.25362
1.25359
1.25375
1.25428
1.25508
1.25623
1.25726
1.25774
1.25822
1.25871
1.25895
1.25967
1.26085
1.26216
1.26377
1.26573
1.26658
2.92823
2.90749
2.8859
2.865
2.84491
2.82359
2.8028
2.77986
2.76037
2.74043
2.72002
2.70083
2.67958
2.66385
2.64312
2.61464
2.59447
2.59891
2.64082
2.81324
3.02204
3.08127
3.07535
3.04926
3.00773
2.96668
2.93248
2.90033
2.86916
2.83859
2.80982
2.78059
2.75085
2.72105
2.69131
2.66322
2.63495
2.6058
2.57771
2.54962
2.52087
2.49455
2.46832
2.44172
2.4169
2.38797
2.3632
2.33987
2.3145
2.29315
2.26778
2.24775
2.22531
2.20044
2.17568
2.14584
2.12824
2.10975
2.09253
2.07216
2.05323
2.03633
2.01585
1.99729
1.9756
1.95883
1.93933
1.92009
1.90182
1.8838
1.8717
1.85565
1.8403
1.82174
1.80291
1.78805
1.77298
1.75963
1.74272
1.72877
1.71437
1.70171
1.68742
1.67866
1.67212
1.66277
1.65116
1.63071
1.60767
1.59103
1.58105
1.57184
1.56301
1.55381
1.54042
1.52769
1.51609
1.50986
1.50478
1.4956
1.48516
1.47297
1.46247
1.45423
1.44574
1.43672
1.42329
1.39935
1.38213
1.37952
1.37604
1.36992
1.36455
1.36128
1.35664
1.34939
1.34131
1.33189
1.32226
1.3156
1.31083
1.3062
1.3029
1.30175
1.30137
1.3018
1.30187
1.30066
1.29675
1.29226
1.29017
1.28964
1.28962
1.29069
1.29259
1.29291
1.29236
1.29159
1.28971
1.28506
1.27874
1.27596
1.27537
1.27516
1.2763
1.2771
1.27654
1.27573
1.27415
1.27019
1.26649
1.26573
1.26552
1.26602
1.26812
1.26929
1.26913
1.26863
1.26741
1.26438
1.26218
1.2621
1.26253
1.26397
1.26758
1.2722
1.27382
1.27426
1.27463
1.2749
1.27438
1.27379
1.27459
1.27587
1.27716
1.27889
1.28108
1.28181
1.28187
1.28143
1.28003
1.27848
1.27809
1.27803
1.27819
1.27938
1.28165
1.28251
1.2822
1.28148
1.28002
1.27696
1.27331
1.27217
1.272
1.27187
1.272
1.27321
1.27429
1.27391
1.27313
1.27198
1.26983
1.26662
1.26365
1.26229
1.2616
1.26093
1.26018
1.25935
1.25846
1.25709
1.25555
1.25519
1.25514
1.25521
1.25552
1.25609
1.25703
1.25817
1.2588
1.2593
1.25985
1.26007
1.26067
1.26178
1.26303
1.26469
1.26612
1.2666
2.94529
2.92372
2.90166
2.88109
2.85978
2.83896
2.81622
2.79519
2.77582
2.7548
2.7359
2.71362
2.69654
2.6796
2.66124
2.63531
2.60854
2.60111
2.60877
2.69884
2.91151
3.06198
3.08187
3.06814
3.0329
2.99291
2.95585
2.9217
2.89041
2.86193
2.83305
2.80359
2.77375
2.7431
2.71432
2.6856
2.6561
2.6273
2.59861
2.57022
2.54282
2.51597
2.48973
2.46491
2.43733
2.41067
2.38618
2.3602
2.33797
2.31359
2.29188
2.27016
2.24413
2.22028
2.19018
2.16881
2.15219
2.13353
2.11583
2.0933
2.07629
2.05626
2.03705
2.01595
1.99728
1.98004
1.95939
1.94158
1.92139
1.9078
1.89242
1.87537
1.85842
1.83747
1.82254
1.80763
1.79398
1.77853
1.76108
1.74746
1.7338
1.72205
1.71011
1.70343
1.69496
1.68468
1.66727
1.63844
1.61964
1.60872
1.60081
1.59068
1.58137
1.56992
1.55675
1.54627
1.53775
1.53288
1.52477
1.51317
1.50016
1.48708
1.47912
1.47117
1.46246
1.45107
1.43024
1.40755
1.40235
1.39994
1.39606
1.38955
1.38384
1.37967
1.37379
1.36435
1.35267
1.34301
1.33432
1.3251
1.31563
1.31081
1.30953
1.30907
1.30912
1.30866
1.30709
1.30169
1.29511
1.29232
1.29182
1.29187
1.29325
1.29591
1.29698
1.29668
1.29606
1.2942
1.2894
1.28266
1.27949
1.27885
1.27859
1.27977
1.282
1.28189
1.28107
1.27952
1.27557
1.27033
1.26863
1.2683
1.26836
1.26989
1.27105
1.27074
1.27013
1.26871
1.26531
1.26245
1.262
1.26199
1.26294
1.26611
1.2707
1.27281
1.27327
1.27347
1.27339
1.27282
1.27218
1.27235
1.27333
1.27491
1.27707
1.28005
1.28162
1.28186
1.28189
1.28119
1.27973
1.27907
1.279
1.27911
1.28003
1.28228
1.28364
1.2835
1.28292
1.28166
1.27902
1.27511
1.27355
1.27331
1.2732
1.27329
1.27432
1.27594
1.27599
1.27538
1.27438
1.27253
1.26967
1.26699
1.26576
1.26511
1.26442
1.26366
1.26287
1.26198
1.26081
1.25878
1.25721
1.25685
1.25675
1.25675
1.25695
1.25758
1.25872
1.25989
1.26048
1.26095
1.26128
1.26098
1.26149
1.26249
1.2636
1.26514
1.26631
1.26672
2.96146
2.93901
2.91769
2.8964
2.87508
2.85291
2.83091
2.81179
2.79068
2.77118
2.74982
2.7303
2.71393
2.69526
2.6781
2.65511
2.63013
2.60797
2.61003
2.63874
2.78515
2.99499
3.07752
3.07614
3.0556
3.02011
2.981
2.94505
2.91511
2.88547
2.85552
2.82534
2.79446
2.76509
2.73587
2.70631
2.67728
2.64801
2.62008
2.59196
2.56369
2.53674
2.51156
2.48616
2.45951
2.4335
2.40725
2.38367
2.35927
2.33608
2.31418
2.28799
2.26334
2.2356
2.21032
2.1947
2.17545
2.15846
2.13602
2.11552
2.09703
2.07639
2.05747
2.03617
2.02019
2.00029
1.98124
1.96089
1.94406
1.92939
1.91111
1.8943
1.87287
1.85655
1.84268
1.8282
1.81478
1.79536
1.78056
1.76721
1.75556
1.74393
1.73548
1.72784
1.71714
1.70215
1.67203
1.64727
1.63688
1.62899
1.62032
1.60898
1.59883
1.58646
1.576
1.56714
1.56074
1.55395
1.54203
1.5281
1.51247
1.5034
1.49638
1.48793
1.47793
1.46036
1.43552
1.42697
1.42383
1.41951
1.41544
1.40971
1.40311
1.39674
1.38906
1.37949
1.36728
1.35515
1.34454
1.33324
1.32544
1.32316
1.32174
1.32035
1.31899
1.31681
1.3098
1.30015
1.29595
1.2953
1.2954
1.29714
1.29983
1.30104
1.3009
1.30048
1.29918
1.2947
1.28668
1.28218
1.28135
1.28101
1.28228
1.28601
1.28711
1.28647
1.28512
1.28169
1.27568
1.27249
1.27202
1.27182
1.27267
1.27367
1.27324
1.27249
1.27094
1.26719
1.26331
1.26248
1.2623
1.26269
1.26529
1.26977
1.27215
1.27266
1.27286
1.27263
1.27118
1.26999
1.27047
1.27114
1.27229
1.27425
1.27733
1.28066
1.2816
1.28179
1.28175
1.28103
1.28031
1.28017
1.28023
1.28085
1.28282
1.28475
1.28486
1.28442
1.28336
1.2811
1.27706
1.27487
1.27446
1.27428
1.27427
1.275
1.27677
1.27738
1.27696
1.2762
1.27475
1.27215
1.26981
1.26898
1.26852
1.26797
1.26732
1.2666
1.26579
1.26463
1.26249
1.26003
1.25918
1.25886
1.25868
1.25865
1.25903
1.26012
1.26142
1.26209
1.26236
1.26245
1.26158
1.26127
1.26206
1.26306
1.2641
1.26544
1.26659
1.26717
2.9768
2.95462
2.93325
2.91167
2.89012
2.86733
2.84811
2.82779
2.80767
2.78743
2.76595
2.74952
2.73026
2.71248
2.69349
2.67364
2.65267
2.62497
2.61085
2.61578
2.68605
2.87493
3.05137
3.08278
3.0738
3.04678
3.00634
2.96903
2.93785
2.90748
2.87695
2.84606
2.81633
2.78598
2.75544
2.72581
2.6963
2.66941
2.64194
2.61337
2.58597
2.55853
2.53313
2.50761
2.48087
2.45436
2.43008
2.40564
2.38146
2.3582
2.33202
2.3062
2.28005
2.25321
2.23695
2.21837
2.20028
2.18061
2.15586
2.13768
2.11667
2.09822
2.07716
2.05923
2.0416
2.02088
2.00149
1.98109
1.96621
1.94796
1.92989
1.9094
1.89035
1.87753
1.86308
1.84985
1.83256
1.81373
1.80167
1.78899
1.77839
1.76806
1.76093
1.75011
1.73474
1.70738
1.67607
1.66453
1.65734
1.64966
1.63877
1.62706
1.61673
1.60573
1.59738
1.58927
1.58236
1.57156
1.55641
1.53997
1.52715
1.52112
1.51342
1.50404
1.48992
1.46565
1.45137
1.44869
1.44472
1.43969
1.4347
1.4281
1.42073
1.41303
1.40389
1.39255
1.38032
1.3685
1.35712
1.34588
1.3404
1.33774
1.33515
1.33246
1.32892
1.32094
1.30909
1.30257
1.30148
1.30128
1.30259
1.30527
1.30598
1.30556
1.30517
1.30413
1.29988
1.29121
1.28523
1.28411
1.28371
1.28443
1.28863
1.29154
1.29126
1.2902
1.28756
1.28188
1.27713
1.27639
1.27608
1.27652
1.27735
1.27681
1.27589
1.27421
1.27009
1.26514
1.26358
1.26325
1.26343
1.26562
1.26954
1.27193
1.27248
1.2727
1.2725
1.27085
1.26806
1.26777
1.2686
1.26978
1.27141
1.27382
1.27754
1.28061
1.28133
1.28159
1.28157
1.28147
1.28151
1.2816
1.28197
1.28345
1.28578
1.28631
1.28597
1.28514
1.28328
1.2795
1.27635
1.27565
1.27542
1.2753
1.27566
1.27725
1.27837
1.27812
1.27752
1.27645
1.27423
1.27195
1.27127
1.27101
1.27075
1.27034
1.26986
1.26926
1.26827
1.26618
1.26326
1.26194
1.26151
1.26117
1.26099
1.26117
1.26222
1.26354
1.26411
1.26419
1.26392
1.26266
1.26133
1.26165
1.2626
1.26373
1.26482
1.26592
1.26708
1.26801
2.9922
2.97071
2.94928
2.92802
2.90501
2.88489
2.86559
2.84497
2.82529
2.8029
2.78553
2.76705
2.74726
2.72871
2.70801
2.69177
2.67164
2.64435
2.61956
2.61774
2.63637
2.75596
2.96435
3.07183
3.08175
3.06808
3.0336
2.99575
2.96037
2.92698
2.8957
2.86713
2.83753
2.80697
2.7765
2.74513
2.7179
2.69101
2.66242
2.6356
2.6078
2.58146
2.5562
2.52882
2.50135
2.47566
2.45107
2.42712
2.40283
2.37664
2.35044
2.32449
2.29737
2.27952
2.26156
2.24235
2.22446
2.19849
2.17849
2.15834
2.13835
2.11995
2.09863
2.08196
2.06111
2.04141
2.01984
2.00259
1.9854
1.96588
1.9467
1.9249
1.91203
1.89863
1.88488
1.87025
1.84895
1.83576
1.82358
1.81234
1.80155
1.79322
1.7829
1.76587
1.74072
1.70951
1.6916
1.68609
1.67852
1.66983
1.6563
1.64626
1.63642
1.62737
1.61919
1.61077
1.6008
1.58519
1.56834
1.55248
1.54523
1.53893
1.52991
1.51794
1.4966
1.47726
1.47346
1.46993
1.46457
1.45945
1.454
1.44635
1.43671
1.42679
1.4172
1.40662
1.39452
1.38141
1.36983
1.36247
1.35814
1.35425
1.3502
1.34543
1.33657
1.32166
1.31205
1.31036
1.30991
1.31115
1.31359
1.31357
1.31245
1.31149
1.31021
1.30607
1.29656
1.28799
1.28617
1.28582
1.28644
1.29067
1.29513
1.2954
1.29465
1.29273
1.28786
1.28214
1.28075
1.28043
1.2807
1.28177
1.28138
1.28036
1.27864
1.27424
1.26813
1.26553
1.26503
1.26494
1.26684
1.27056
1.2724
1.27275
1.27293
1.27282
1.27137
1.26782
1.26587
1.26622
1.2674
1.26894
1.27075
1.27334
1.27705
1.28011
1.281
1.28137
1.2817
1.28223
1.28269
1.28316
1.28426
1.28662
1.28783
1.2876
1.28692
1.28547
1.28237
1.27836
1.27699
1.27671
1.27652
1.27659
1.27775
1.27922
1.27915
1.27863
1.27775
1.27589
1.27356
1.27277
1.27256
1.27252
1.27255
1.27227
1.27186
1.27125
1.26963
1.26666
1.26484
1.26436
1.26397
1.26368
1.26375
1.26478
1.26606
1.26636
1.26621
1.26565
1.26422
1.26217
1.26176
1.26232
1.26335
1.26472
1.26595
1.26692
1.26798
1.26909
3.00848
2.98729
2.9663
2.94427
2.92239
2.9035
2.88292
2.86341
2.84128
2.82161
2.80395
2.78328
2.76477
2.74258
2.72452
2.70746
2.68793
2.66396
2.63534
2.62296
2.6265
2.67688
2.8451
3.02861
3.0861
3.08307
3.05875
3.02207
2.98323
2.94515
2.91503
2.88639
2.85614
2.82662
2.79521
2.76709
2.74057
2.71185
2.68489
2.6569
2.62983
2.60463
2.57702
2.54925
2.52225
2.49582
2.4724
2.44786
2.42143
2.39537
2.36948
2.3429
2.32338
2.3051
2.28533
2.2676
2.24246
2.21999
2.20053
2.17914
2.16214
2.14016
2.12135
2.10176
2.08019
2.06009
2.0391
2.02255
2.0027
1.98381
1.96164
1.94627
1.93455
1.92061
1.90718
1.88721
1.87005
1.85865
1.84618
1.83545
1.82528
1.8152
1.79738
1.77235
1.74388
1.72058
1.71476
1.70812
1.7
1.68853
1.67545
1.6674
1.65782
1.64937
1.64013
1.62932
1.61447
1.59636
1.58046
1.56962
1.56417
1.55608
1.54501
1.52706
1.50487
1.49858
1.49548
1.49035
1.48439
1.47874
1.47165
1.46159
1.45079
1.44067
1.43091
1.42036
1.40865
1.39606
1.38597
1.38024
1.37569
1.37085
1.365
1.35559
1.33926
1.32652
1.32381
1.32236
1.32211
1.32315
1.32331
1.32184
1.32004
1.3181
1.31422
1.30459
1.29259
1.28877
1.28828
1.2886
1.29251
1.29813
1.29921
1.29864
1.29731
1.29351
1.28741
1.28481
1.28448
1.28457
1.286
1.28623
1.28536
1.28387
1.27985
1.2729
1.26857
1.26778
1.26747
1.26888
1.27231
1.27383
1.27386
1.27376
1.27353
1.27202
1.26855
1.26582
1.26538
1.26566
1.26665
1.26824
1.27022
1.27285
1.27646
1.27933
1.28059
1.28135
1.28193
1.28267
1.28357
1.28479
1.28705
1.28908
1.28918
1.28872
1.2876
1.28527
1.28123
1.27872
1.2783
1.27805
1.27794
1.27856
1.2801
1.2803
1.2798
1.27899
1.27732
1.27488
1.27387
1.27367
1.2736
1.27385
1.27402
1.27379
1.27341
1.27242
1.26998
1.2677
1.26712
1.26676
1.26644
1.26642
1.2675
1.26878
1.26881
1.26846
1.26766
1.26602
1.26363
1.26258
1.26277
1.26346
1.26467
1.26634
1.26765
1.26842
1.26917
1.27009
3.02527
3.0044
2.98349
2.96094
2.94142
2.92137
2.90115
2.87986
2.85799
2.84049
2.8199
2.80022
2.779
2.75781
2.74106
2.72147
2.70385
2.68207
2.65644
2.63565
2.63012
2.64198
2.73828
2.93381
3.06774
3.0874
3.07542
3.04626
3.00588
2.96621
2.93587
2.9052
2.87524
2.84425
2.8159
2.79027
2.76183
2.73443
2.70607
2.67797
2.65266
2.62496
2.59671
2.56945
2.54131
2.51754
2.49324
2.46689
2.44115
2.41487
2.38917
2.36885
2.34953
2.32932
2.31094
2.28674
2.26261
2.24292
2.22093
2.20321
2.18285
2.1606
2.14162
2.11905
2.09944
2.07749
2.05912
2.04039
2.02046
2.0006
1.98113
1.9704
1.95728
1.94392
1.92659
1.90605
1.89354
1.88079
1.86903
1.85772
1.84677
1.82983
1.8036
1.7773
1.75177
1.74373
1.73859
1.73006
1.72122
1.70677
1.69767
1.68917
1.67957
1.67005
1.6582
1.64315
1.62479
1.60865
1.59622
1.58934
1.58243
1.57182
1.55638
1.53423
1.52402
1.52131
1.51655
1.51093
1.50331
1.49555
1.48694
1.47512
1.46289
1.45364
1.44565
1.43607
1.4239
1.41141
1.40322
1.3981
1.39315
1.38717
1.37788
1.36034
1.34422
1.34083
1.33933
1.3373
1.33599
1.33525
1.33375
1.33148
1.32864
1.32446
1.31511
1.30052
1.29301
1.29205
1.29189
1.29472
1.30084
1.30297
1.30253
1.30158
1.29886
1.2929
1.28866
1.28812
1.28804
1.28941
1.29066
1.29011
1.28885
1.28568
1.27888
1.27294
1.27165
1.27114
1.27181
1.2749
1.27607
1.27577
1.27547
1.27508
1.27356
1.27013
1.26667
1.26527
1.26517
1.26537
1.26618
1.26776
1.26998
1.27284
1.27623
1.27868
1.27983
1.28083
1.28173
1.28273
1.28418
1.28666
1.28958
1.29037
1.29023
1.28954
1.28786
1.28455
1.28108
1.28019
1.27986
1.27963
1.27981
1.28116
1.28171
1.28122
1.28041
1.27885
1.27629
1.27492
1.27468
1.2746
1.27475
1.27522
1.27524
1.27503
1.27446
1.27275
1.27033
1.26951
1.2692
1.26892
1.26889
1.27003
1.27158
1.27155
1.27103
1.27001
1.2681
1.2655
1.26407
1.26398
1.26432
1.26536
1.26707
1.26865
1.26946
1.26989
1.27015
1.27069
3.04255
3.02189
3.00005
2.97904
2.9595
2.93869
2.91823
2.89504
2.87645
2.85682
2.83584
2.81601
2.79272
2.77541
2.75614
2.73705
2.71921
2.69863
2.68059
2.6554
2.6367
2.64062
2.67682
2.81657
3.01306
3.0832
3.08125
3.06461
3.028
2.98951
2.95678
2.92541
2.89389
2.8641
2.83874
2.81123
2.78394
2.75612
2.72699