/*--------------------------------*- C++ -*----------------------------------*\
  =========                 |
  \\      /  F ield         | OpenFOAM: The Open Source CFD Toolbox
   \\    /   O peration     | Website:  https://openfoam.org
    \\  /    A nd           | Version:  7
     \\/     M anipulation  |
\*---------------------------------------------------------------------------*/
FoamFile
{
    version     2.0;
    format      ascii;
    class       volScalarField;
    location    "3.8";
    object      p;
}
// * * * * * * * * * * * * * * * * * * * * * * * * * * * * * * * * * * * * * //

dimensions      [1 -1 -2 0 0 0 0];

internalField   nonuniform List<scalar> 
4128
(
1
1
1
1
1
1
1
1
1
1
1
1
1
1
1
1
1
1.80909
8.54513
10.8088
11.0747
11.4092
11.6639
11.8777
1
1
1
1
1
1
1
1
1
1
1
1
1
1
1
1
1
1.6788
8.22114
10.7184
10.9824
11.2859
11.4997
11.5935
1
1
1
1
1
1
1
1
1
1
1
1
1
1
1
1
1
1.38816
7.61064
10.577
10.7817
10.9903
11.0816
11.2091
1
1
1
1
1
1
1
1
1
1
1
1
1
1
1
1
1
1.03935
6.58995
10.2994
10.4645
10.6487
10.698
10.9722
1
1
1
1
1
1
1
1
1
1
1
1
1
1
1
1
1
1.00038
5.16379
9.75437
9.9957
10.0317
9.45773
7.81311
1
1
1
1
1
1
1
1
1
1
1
1
1
1
1
1
1
0.999996
3.48804
9.01298
9.63162
9.3749
8.69488
7.00955
1
1
1
1
1
1
1
1
1
1
1
1
1
1
1
1
1
0.999999
1.85547
7.81272
9.35832
8.87944
8.17614
6.52901
1
1
1
1
1
1
1
1
1
1
1
1
1
1
1
1
1
1
1.08069
5.85688
8.76941
8.29128
7.67409
6.31509
1
1
1
1
1
1
1
1
1
1
1
1
1
1
1
1
1
1
1.00027
3.22046
7.82117
8.08607
7.3757
6.30574
1
1
1
1
1
1
1
1
1
1
1
1
1
1
1
1
1
1
0.999997
1.34695
6.06035
8.01678
7.23758
6.3269
1
1
1
1
1
1
1
1
1
1
1
1
1
1
1
1
1
1
0.999999
1.01008
3.34909
7.31246
7.07579
6.2789
1
1
1
1
1
1
1
1
1
1
1
1
1
1
1
1
1
1
1
1.00001
1.38313
5.44446
7.15211
6.32176
1
1
1
1
1
1
1
1
1
1
1
1
1
1
1
1
1
1
1
1
1.01222
2.5843
6.20334
6.3495
1
1
1
1
1
1
1
1
1
1
1
1
1
1
1
1
1
1
1
1
1.00007
1.18713
4.06054
6.25184
1
1
1
1
1
1
1
1
1
1
1
1
1
1
1
1
1
1
1
1
1
1.00388
1.7113
4.83596
1
1
1
1
1
1
1
1
1
1
1
1
1
1
1
1
1
1
1
1
1
1.00002
1.04224
2.37122
1
1
1
1
1
1
1
1
1
1
1
1
1
1
1
1
1
1
1
1
1
1
1.00054
1.14849
1
1
1
1
1
1
1
1
1
1
1
1
1
1
1
1
1
1
1
1
1
1
1
1.00356
1
1
1
1
1
1
1
1
1
1
1
1
1
1
1
1
1
1
1
1
1
1
1
1.00002
1
1
1
1
1
1
1
1
1
1
1
1
1
1
1
1
1
1
1
1
1
1
1
1
1
1
1
1
1
1
1
1
1
1
1
1
1
1
1
1
1
1
1
1
1
1
1
1
1
1
1
1
1
1
1
1
1
1
1
1
1
1
1
1
1
1
1
1
1
1
1
1
1
1
1
1
1
1
1
1
1
1
1
1
1
1
1
1
1
1
1
1
1
1
1
1
1
1
1
1
1
1
1
1
1
1
1
1
1
1
1
1
1
1
1
1
1
1
1
1
1
1
1
1
1
1
1
1
1
1
1
1
1
1
1
1
1
1
1
1
1
1
1
1
1
1
1
1
1
1
1
1
1
1
1
1
1
1
1
1
1
1
1
1
1
1
1
1
1
1
1
1
1
1
1
1
1
1
1
1
1
1
1
1
1
1
1
1
1
1
1
1
1
1
1
1
1
1
1
1
1
1
1
1
1
1
1
1
1
1
1
1
1
1
1
1
1
1
1
1
1
1
1
1
1
1
1
1
1
1
1
1
1
1
1
1
1
1
1
1
1
1
1
1
1
1
1
1
1
1
1
1
1
1
1
1
1
1
1
1
1
1
1
1
1
1
1
1
1
1
1
1
1
1
1
1
1
1
1
1
1
1
1
1
1
1
1
1
1
1
1
1
1
1
1
1
1
1
1
1
1
1
1
1
1
1
1
1
1
1
1
1
1
1
1
1
1
1
1
1
1
1
1
1
1
1
1
1
1
1
1
1
1
1
1
1
1
1
1
1
1
1
1
1
1
1
1
1
1
1
1
1
1
1
1
1
1
1
1
1
1
1
1
1
1
1
1
1
1
1
1
1
1
1
1
1
1
1
1
1
1
1
1
1
1
1
1
1
1
1
1
1
1
1
1
1
1
1
1
1
1
1
1
1
1
1
1
1
1
1
1
1
1
1
1
1
1
1
1
1
1
1
1
1
1
1
1
1
1
1
1
1
1
1
1
1
1
1
1
1
1
1
1
1
1
1
1
1
1
1
1
1
1
1
1
1
1
1
1
1
1
1
1
1
1
1
1
1
1
1
1
1
1
1
1
1
1
1
1
1
1
1
1
1
1
1
1
1
1
1
1
1
1
1
1
1
1
1
1
1
1
1
1
1
2.09773
0.819216
0.407945
0.386092
0.472993
0.623237
0.789402
1.01357
1.20453
1.30904
1.3503
1.37862
1.39122
1.38212
2.19494
4.98157
5.61979
5.85037
6.04675
6.17623
6.26278
6.34355
6.45345
6.57163
3.31173
2.02486
1.43018
1.0447
0.991803
0.938625
0.880792
0.891549
0.952017
1.01899
1.09023
1.16911
1.24276
1.27019
1.97935
4.80882
5.61975
5.84456
6.02988
6.15079
6.23289
6.31146
6.41061
6.47254
4.27261
2.92344
2.19272
1.70636
1.40822
1.2137
1.0284
0.916828
0.91529
0.937889
0.996395
1.07771
1.15543
1.19166
1.55448
4.45177
5.62806
5.82967
5.9983
6.10422
6.16808
6.20877
6.24584
6.32562
4.78681
3.69436
2.86649
2.28516
1.88705
1.59046
1.35865
1.20135
1.11994
1.02908
0.987122
0.998478
1.03139
1.06383
1.16706
3.70908
5.57171
5.77075
5.90484
5.98631
6.04278
6.09533
6.10011
6.25146
5.15054
4.22124
3.41857
2.79079
2.35314
1.99604
1.66996
1.47698
1.33386
1.19466
1.06025
1.03298
1.0144
1.02467
1.03814
2.56008
5.35249
5.7031
5.8097
5.88384
5.89669
5.87965
5.55173
4.67156
5.36292
4.53254
3.82069
3.20594
2.73285
2.35525
2.01432
1.78442
1.60641
1.4364
1.26467
1.2013
1.13128
1.07949
1.05414
1.43861
4.66247
5.60634
5.69106
5.74272
5.70801
5.59291
5.20197
4.32447
5.49137
4.77093
4.10351
3.55169
3.09996
2.69096
2.32456
2.07658
1.86739
1.67457
1.50267
1.3981
1.29234
1.17468
1.07894
1.09998
3.30675
5.4067
5.55992
5.60448
5.54456
5.34632
4.9742
4.11325
5.63168
4.98229
4.36231
3.85316
3.3995
2.97436
2.61898
2.3653
2.12854
1.89819
1.71778
1.60299
1.47773
1.33892
1.23265
1.16351
1.85219
4.88477
5.47195
5.50187
5.41766
5.18046
4.78272
4.04715
5.76405
5.13732
4.57826
4.10177
3.65956
3.23118
2.8925
2.61335
2.35916
2.11238
1.93495
1.80448
1.66459
1.49416
1.38996
1.27866
1.33058
3.54332
5.28203
5.39484
5.29059
5.05296
4.65583
4.0693
5.94056
5.32933
4.78854
4.33395
3.89927
3.46558
3.14504
2.85512
2.59179
2.3188
2.14533
1.99544
1.8419
1.67253
1.56144
1.47169
1.36016
2.01127
4.71206
5.38504
5.24837
5.00442
4.61687
4.1182
5.91417
5.52793
4.9762
4.51166
4.0754
3.67882
3.36371
3.08647
2.79837
2.50819
2.33881
2.1846
2.02475
1.81999
1.71674
1.64499
1.47497
1.51638
3.41745
5.15836
5.16352
4.90302
4.55911
4.13464
5.04566
5.60918
5.20698
4.72043
4.27473
3.88131
3.5637
3.2893
3.00896
2.73151
2.53563
2.36513
2.19313
1.99328
1.87718
1.80478
1.65504
1.53254
2.06879
4.37951
5.11649
4.89446
4.60808
4.24065
2.9519
5.0453
5.34078
4.9779
4.48893
4.08667
3.77298
3.49506
3.19191
2.9167
2.72979
2.55878
2.37327
2.14727
2.03413
1.94842
1.82237
1.63144
1.67184
3.01357
4.82088
4.92215
4.63713
4.29993
1.31683
3.33686
4.95493
5.11774
4.7705
4.31595
3.96008
3.6681
3.38304
3.12835
2.91311
2.73064
2.53158
2.31656
2.19463
2.09843
1.9771
1.78354
1.70625
1.9968
3.85072
4.86335
4.6859
4.35574
1.01221
1.49982
3.53438
4.81169
4.92611
4.59221
4.19128
3.87503
3.55523
3.27705
3.09584
2.91295
2.70335
2.47583
2.35028
2.24298
2.11297
1.94955
1.80438
1.82212
2.56825
4.24702
4.71878
4.46985
1.00011
1.02713
1.64564
3.58814
4.6684
4.76293
4.45563
4.0871
3.75651
3.47383
3.26988
3.07436
2.85037
2.63553
2.51776
2.40254
2.25831
2.07158
1.95748
1.87537
1.96652
3.17321
4.41429
4.54612
1
1.00034
1.0439
1.72916
3.57362
4.5208
4.60653
4.3561
3.99163
3.64449
3.44351
3.25091
3.0241
2.79811
2.6692
2.54613
2.39554
2.21684
2.11305
2.00695
1.93806
2.24212
3.61442
4.44859
1
1
1.00069
1.05647
1.76584
3.4965
4.37887
4.47264
4.26469
3.89239
3.61719
3.41838
3.17434
2.96433
2.84392
2.70135
2.53456
2.33076
2.25608
2.17115
1.9979
2.00547
2.57597
3.86474
1
1
1
1.001
1.06379
1.75475
3.38651
4.25931
4.34923
4.16036
3.84585
3.6118
3.34185
3.12577
2.99301
2.84876
2.67795
2.47418
2.38898
2.31526
2.14599
2.00997
2.09722
2.89044
1
1
1
1
1.00122
1.06435
1.71096
3.24115
4.12433
4.23154
4.08758
3.84151
3.53446
3.28552
3.14457
2.99535
2.81256
2.61857
2.5328
2.44858
2.30883
2.1042
2.09028
2.24065
1
1
1
1
1.00001
1.00127
1.05873
1.64216
3.05573
4.00994
4.12777
4.0365
3.7911
3.48398
3.29873
3.1506
2.94051
2.76408
2.68228
2.57463
2.44641
2.26236
2.14631
2.18023
1
1
1
1
1
1.00001
1.00112
1.05081
1.53671
2.93584
3.79782
4.00216
3.96583
3.7452
3.49215
3.31549
3.07907
2.90697
2.8183
2.70495
2.57831
2.39758
2.28054
2.21726
1
1
1
1
1
1
1
1.00095
1.03796
1.45775
2.70475
3.60288
3.92684
3.91521
3.73202
3.50924
3.25523
3.03758
2.94475
2.84981
2.71105
2.52593
2.43125
2.34308
1
1
1
1
1
1
1
1
1.00065
1.02788
1.38201
2.40883
3.42884
3.868
3.86768
3.72162
3.49524
3.22012
3.05771
2.97665
2.82893
2.65499
2.57661
2.48723
1
1
1
1
1
1
1
1
1
1.00044
1.02081
1.27557
2.09934
3.32886
3.79607
3.76106
3.65932
3.47098
3.23324
3.10319
2.94258
2.7762
2.7002
2.62167
1
1
1
1
1
1
1
1
1
1
1.00028
1.01266
1.17124
1.909
3.19925
3.58529
3.65701
3.62471
3.44519
3.25422
3.08567
2.89596
2.81194
2.75473
1
1
1
1
1
1
1
1
1
1
1
1.00013
1.00683
1.11291
1.7914
2.88128
3.4146
3.61686
3.59517
3.43758
3.27089
3.08042
2.91676
2.85989
1
1
1
1
1
1
1
1
1
1
1
1
1.00006
1.00381
1.08223
1.6217
2.46418
3.27704
3.59071
3.58853
3.4673
3.29712
3.09614
2.98437
1
1
1
1
1
1
1
1
1
1
1
1
1
1.00003
1.0022
1.0533
1.35825
2.10566
3.2336
3.45258
3.44962
3.42633
3.31516
3.12646
1
1
1
1
1
1
1
1
1
1
1
1
1
1
1.00001
1.00098
1.02179
1.18549
1.95503
2.99636
3.30565
3.40097
3.40914
3.27819
1
1
1
1
1
1
1
1
1
1
1
1
1
1
1
1
1.00027
1.00909
1.13044
1.81382
2.63185
3.14875
3.39546
3.40207
1
1
1
1
1
1
1
1
1
1
1
1
1
1
1
1
1
1.00012
1.00529
1.10131
1.53875
2.17876
3.04924
3.36907
1
1
1
1
1
1
1
1
1
1
1
1
1
1
1
1
1
1
1.00006
1.00306
1.04544
1.24722
1.90155
2.95788
1
1
1
1
1
1
1
1
1
1
1
1
1
1
1
1
1
1
1
1.00002
1.00074
1.01377
1.13302
1.77209
1
1
1
1
1
1
1
1
1
1
1
1
1
1
1
1
1
1
1
1
1
1.00019
1.00581
1.09487
1
1
1
1
1
1
1
1
1
1
1
1
1
1
1
1
1
1
1
1
1
1
1.00007
1.00354
1.44735
0.582152
0.487699
0.594768
0.69672
0.854201
1.0698
1.196
1.23137
1.27698
1.3418
1.39656
1.4189
1.42067
1.41543
1.38793
1.35602
1.33969
1.33502
1.33846
1.35131
1.36635
1.37182
1.36906
1.36095
1.34283
1.32167
1.30758
1.30001
1.29522
1.37209
3.23998
4.31525
4.45755
4.52799
4.55279
4.62181
4.66557
4.67125
4.65916
4.64463
4.63667
4.63636
4.63014
4.60105
4.5514
4.49655
4.44807
4.40858
4.36911
4.31724
4.25549
4.19831
4.15646
4.13492
4.13755
4.15515
4.16268
4.12042
4.03172
3.91731
3.81563
3.7385
3.6869
3.65894
3.64403
3.63824
3.64954
3.66006
3.63325
3.57045
3.4512
2.31214
1.42666
1.08556
1.02039
0.947859
0.90565
0.930588
1.0006
1.08044
1.16698
1.24707
1.32372
1.36379
1.37439
1.37345
1.36011
1.35022
1.34603
1.34601
1.3515
1.36058
1.36512
1.36198
1.35517
1.3457
1.33386
1.32339
1.31697
1.3119
1.30786
1.34063
3.12063
4.30741
4.46215
4.52761
4.58206
4.66304
4.7043
4.69335
4.67037
4.64234
4.62415
4.61678
4.60725
4.58301
4.5437
4.49905
4.45983
4.43167
4.41122
4.37863
4.3154
4.23301
4.15828
4.10486
4.07429
4.05467
4.03079
3.99887
3.96516
3.92895
3.88529
3.83449
3.76944
3.69883
3.63975
3.5958
3.56667
3.55067
3.54074
3.52973
3.50676
2.88189
2.12448
1.57373
1.31658
1.1548
0.984391
0.927824
0.97027
1.03926
1.11622
1.18777
1.26115
1.30924
1.33713
1.3617
1.38269
1.37801
1.36817
1.36648
1.36829
1.36521
1.35913
1.35241
1.3383
1.32397
1.31933
1.31788
1.3184
1.32293
1.32572
1.32189
2.84839
4.32781
4.49642
4.55429
4.60359
4.67191
4.72347
4.72502
4.70585
4.67346
4.64186
4.6184
4.59446
4.56083
4.51925
4.47649
4.43952
4.41554
4.40838
4.41041
4.39631
4.34653
4.27386
4.19288
4.10755
4.01754
3.93573
3.88616
3.87242
3.87864
3.88189
3.87585
3.85547
3.80389
3.72276
3.62325
3.52603
3.4566
3.41899
3.4345
3.49235
3.19677
2.59096
2.03263
1.66783
1.47457
1.25346
1.12982
1.08416
1.03815
1.03734
1.06394
1.12476
1.18679
1.24237
1.28992
1.35194
1.37349
1.37983
1.38752
1.38406
1.36894
1.35416
1.34285
1.32827
1.31789
1.31663
1.31565
1.31748
1.32228
1.32239
1.31393
2.43769
4.31245
4.60331
4.64361
4.68594
4.73771
4.77548
4.76166
4.72872
4.69093
4.65874
4.64169
4.62686
4.58785
4.52714
4.46136
4.39877
4.34901
4.32392
4.3274
4.34023
4.33182
4.29201
4.23196
4.15918
4.0744
3.98695
3.91468
3.86706
3.84233
3.82742
3.818
3.81009
3.78857
3.73377
3.65796
3.55922
3.46934
3.41061
3.40013
3.46114
3.43562
2.91461
2.42561
2.01439
1.76026
1.53462
1.34076
1.23799
1.13476
1.03598
1.03295
1.05215
1.08676
1.13296
1.18735
1.25489
1.30824
1.34297
1.37579
1.39434
1.38809
1.36959
1.3448
1.32342
1.31101
1.30859
1.30939
1.31537
1.32429
1.32654
1.31903
1.98724
4.20331
4.77413
4.77784
4.8059
4.83165
4.83401
4.79545
4.74158
4.68992
4.65422
4.64734
4.66004
4.64722
4.58857
4.50716
4.4237
4.34694
4.28515
4.25225
4.24701
4.24327
4.21945
4.17973
4.13845
4.10557
4.06899
4.01344
3.95583
3.89948
3.84092
3.77979
3.72437
3.68755
3.66348
3.61795
3.56053
3.50252
3.45825
3.44253
3.46014
3.60029
3.13583
2.70491
2.3291
2.03678
1.78625
1.56784
1.43333
1.31509
1.15697
1.10414
1.07604
1.06
1.06227
1.0902
1.1465
1.21823
1.27433
1.30972
1.34246
1.35907
1.35875
1.34915
1.34132
1.32803
1.31752
1.31291
1.31375
1.31822
1.32006
1.31455
1.58756
3.98704
4.97693
4.93606
4.93821
4.93906
4.90455
4.84845
4.77087
4.69535
4.64477
4.63171
4.64703
4.6477
4.60674
4.53748
4.46161
4.38592
4.31559
4.26064
4.22518
4.19746
4.1637
4.12187
4.08265
4.05984
4.06011
4.04596
3.9935
3.92528
3.84754
3.76652
3.69045
3.63205
3.60784
3.59576
3.56335
3.52332
3.48655
3.45844
3.431
3.70688
3.30758
2.92384
2.58626
2.29538
2.02389
1.78924
1.62525
1.47904
1.31994
1.20506
1.14955
1.08949
1.05719
1.07024
1.09256
1.12472
1.16277
1.20751
1.25939
1.30283
1.31798
1.32986
1.34615
1.34982
1.34433
1.33472
1.32242
1.31584
1.31013
1.30136
1.33283
3.65673
5.13967
5.14311
5.08259
5.0437
4.97499
4.89506
4.79572
4.71105
4.6519
4.62554
4.62098
4.60497
4.56658
4.51433
4.45927
4.40673
4.35805
4.3147
4.27254
4.22222
4.16596
4.10751
4.05185
4.01032
4.00001
4.01376
3.97545
3.90378
3.82864
3.75299
3.68198
3.62582
3.60115
3.60705
3.59094
3.55461
3.50498
3.44033
3.36464
3.85461
3.46938
3.10342
2.79291
2.51363
2.23133
1.98627
1.81805
1.66134
1.49261
1.35604
1.28927
1.2155
1.12818
1.11425
1.10544
1.08639
1.08107
1.097
1.13767
1.19576
1.25422
1.2869
1.31624
1.34717
1.35246
1.34735
1.33365
1.31887
1.30566
1.29379
1.2948
3.2548
5.25636
5.36641
5.23664
5.17277
5.07007
4.96864
4.8689
4.78099
4.71424
4.65914
4.60624
4.54718
4.48664
4.43204
4.38845
4.35781
4.33889
4.32409
4.30428
4.25942
4.19004
4.11483
4.03918
3.97483
3.93494
3.93141
3.92408
3.87232
3.81148
3.74936
3.68893
3.63866
3.60949
3.60469
3.57812
3.53137
3.47748
3.40501
3.30112
3.94533
3.58213
3.23396
2.94539
2.68461
2.41996
2.17482
1.99457
1.82987
1.65645
1.51804
1.43692
1.34753
1.23527
1.17077
1.13538
1.08797
1.05894
1.06135
1.06924
1.09226
1.1467
1.20729
1.25685
1.30014
1.32681
1.33022
1.33049
1.32552
1.31127
1.2958
1.28226
2.86783
5.36181
5.60238
5.40582
5.29838
5.1558
5.03931
4.93984
4.8585
4.80027
4.73298
4.63968
4.53805
4.44513
4.36793
4.31191
4.28161
4.27209
4.26897
4.2626
4.24698
4.19366
4.12033
4.0419
3.96265
3.903
3.86853
3.85862
3.83919
3.79733
3.74905
3.6967
3.6461
3.60744
3.57751
3.5309
3.48186
3.43094
3.3716
3.27226
4.0302
3.70258
3.3793
3.10991
2.86443
2.59607
2.35202
2.17051
2.00435
1.81553
1.67207
1.58776
1.49398
1.37558
1.27561
1.22806
1.16703
1.0954
1.0727
1.07147
1.07403
1.08153
1.11063
1.16345
1.22417
1.26967
1.29104
1.30337
1.31062
1.31161
1.30345
1.28848
2.52082
5.47073
5.8676
5.5536
5.38997
5.20984
5.07408
4.95628
4.87835
4.83365
4.78251
4.6874
4.57754
4.47632
4.38275
4.30285
4.24712
4.21462
4.19385
4.17392
4.16429
4.14901
4.09526
4.03253
3.95801
3.88797
3.84101
3.81301
3.7976
3.76968
3.72633
3.67636
3.62002
3.57153
3.52751
3.47983
3.43206
3.38723
3.34429
3.27083
4.15401
3.84694
3.54561
3.27532
3.02641
2.76685
2.5175
2.32471
2.15105
1.96857
1.81767
1.7285
1.62989
1.50712
1.39534
1.33028
1.25803
1.16077
1.09727
1.09157
1.07276
1.06683
1.08334
1.11336
1.14964
1.17849
1.21144
1.23942
1.25776
1.28074
1.29181
1.29864
2.15561
5.56445
6.22043
5.72162
5.45466
5.24796
5.10961
4.97344
4.87422
4.80393
4.73794
4.6535
4.56245
4.48241
4.40385
4.31782
4.244
4.18871
4.14317
4.10028
4.07128
4.06683
4.05055
4.0054
3.94761
3.875
3.82034
3.78177
3.75579
3.72816
3.68472
3.63669
3.57885
3.51345
3.46695
3.42815
3.39188
3.35851
3.33292
3.27781
4.30896
3.9971
3.69444
3.42877
3.17571
2.90723
2.67226
2.48717
2.30711
2.10783
1.95621
1.8698
1.76354
1.63652
1.5167
1.44832
1.37091
1.27059
1.18443
1.16725
1.14119
1.09922
1.0886
1.09795
1.09431
1.08927
1.09755
1.12927
1.1785
1.21838
1.25138
1.32098
1.90404
5.4483
6.69593
6.10651
5.59775
5.31447
5.1273
4.9894
4.89413
4.79806
4.69881
4.61036
4.52581
4.4533
4.39259
4.3223
4.2456
4.16638
4.09557
4.03894
3.9953
3.9772
3.98322
3.95892
3.91295
3.84775
3.78235
3.74219
3.71349
3.67894
3.6348
3.58944
3.53358
3.45943
3.40472
3.37477
3.3495
3.32644
3.31341
3.26502
4.415
4.14539
3.83843
3.55416
3.30654
3.06038
2.8233
2.62781
2.46074
2.26352
2.10438
2.00353
1.89477
1.75823
1.63123
1.56304
1.48613
1.38482
1.28576
1.25492
1.22127
1.16356
1.11141
1.10283
1.08359
1.05954
1.06118
1.07611
1.10503
1.1379
1.23799
1.60287
2.29419
4.23992
6.22748
6.36381
5.96473
5.59681
5.27492
5.05781
4.90701
4.75442
4.63238
4.55097
4.48263
4.42105
4.37454
4.32088
4.24316
4.15047
4.04923
3.9766
3.92836
3.89789
3.89944
3.89219
3.85269
3.79706
3.72832
3.68841
3.66215
3.62937
3.59003
3.54857
3.49761
3.4232
3.34727
3.31449
3.2949
3.28063
3.27177
3.2276
4.4301
4.28788
3.99313
3.69715
3.44076
3.19533
2.96866
2.78599
2.61896
2.41891
2.24799
2.13923
2.03064
1.88828
1.74519
1.67323
1.59973
1.50345
1.39939
1.36031
1.32224
1.2595
1.18489
1.15401
1.12059
1.077
1.05882
1.06288
1.07891
1.14369
1.45317
2.22963
2.84106
3.22644
4.40779
5.62854
5.87958
5.86744
5.61172
5.31906
5.04238
4.76009
4.58381
4.48244
4.40505
4.34966
4.32011
4.29082
4.21739
4.1316
4.02906
3.93023
3.87513
3.83905
3.8263
3.81073
3.77264
3.72444
3.65855
3.61719
3.59592
3.57028
3.53695
3.50254
3.46323
3.40594
3.32177
3.25673
3.23016
3.21364
3.20323
3.16709
3.98779
4.33136
4.16769
3.86052
3.58318
3.34315
3.11578
2.9286
2.75819
2.57466
2.40362
2.28306
2.15875
2.00692
1.86161
1.7911
1.71665
1.61653
1.50772
1.46745
1.42499
1.35638
1.27057
1.2193
1.17639
1.11877
1.07371
1.07446
1.12377
1.36541
2.07765
2.66822
3.02275
3.05404
3.21929
3.97597
4.85668
5.39633
5.51682
5.45636
5.23106
4.96253
4.70272
4.49826
4.36582
4.28286
4.24688
4.20723
4.1443
4.0753
3.99225
3.88912
3.8245
3.78742
3.76859
3.74301
3.70162
3.65359
3.58555
3.52469
3.49811
3.47915
3.4613
3.43862
3.41107
3.37601
3.31868
3.23028
3.16285
3.13684
3.12462
3.09576
3.14087
4.00519
4.22097
4.0486
3.76114
3.50152
3.2657
3.07747
2.91248
2.72428
2.54893
2.4177
2.29868
2.1424
1.98506
1.90725
1.83123
1.73125
1.61753
1.57419
1.52756
1.45448
1.36312
1.30437
1.2516
1.19425
1.16021
1.21718
1.51215
2.04816
2.74954
2.88265
2.91217
2.95641
3.00665
3.09601
3.43503
4.09036
4.69183
4.96671
5.00935
4.98827
4.83374
4.61794
4.48128
4.35852
4.25827
4.1517
4.06242
3.99347
3.92119
3.82659
3.75532
3.7212
3.70317
3.67997
3.64015
3.59495
3.52992
3.44108
3.39333
3.37295
3.36143
3.35076
3.33553
3.31752
3.28816
3.22792
3.12775
3.06093
3.04494
3.02274
2.43005
3.3375
3.9879
4.12062
3.96269
3.71025
3.44024
3.22788
3.05686
2.87411
2.6994
2.55529
2.42411
2.26655
2.11666
2.03173
1.95251
1.84325
1.72106
1.67198
1.62735
1.55275
1.45665
1.38604
1.33408
1.30376
1.35188
1.72591
2.33545
2.7981
3.0055
2.9829
2.97862
3.02962
3.0154
3.02145
2.99243
3.03701
3.30845
3.76232
4.20853
4.49091
4.53655
4.50498
4.52602
4.45779
4.32537
4.20714
4.09229
3.97611
3.85447
3.74903
3.67556
3.6375
3.61265
3.59648
3.5673
3.52789
3.47678
3.39003
3.30033
3.26791
3.25619
3.24866
3.24381
3.23633
3.21951
3.18828
3.12554
3.0228
2.9754
2.95253
2.23207
2.57309
3.46407
3.97232
4.05696
3.91088
3.63708
3.40366
3.21673
3.0047
2.82131
2.69239
2.5521
2.38981
2.23957
2.1612
2.0708
1.95963
1.83547
1.77928
1.72307
1.6408
1.54346
1.46903
1.46805
1.58325
1.93808
2.70459
3.03492
3.16436
3.21562
3.22084
3.19355
3.13107
3.07929
3.01269
2.93142
2.87249
2.81747
2.83727
3.01108
3.35427
3.75024
4.03686
4.19612
4.20169
4.20462
4.19143
4.1254
4.01291
3.87834
3.74836
3.64068
3.56577
3.52223
3.49586
3.47346
3.44648
3.40935
3.35289
3.26024
3.18125
3.15757
3.14945
3.14295
3.13774
3.12536
3.1095
3.0836
3.02274
2.94323
2.89486
2.23495
2.27151
2.72056
3.55111
3.96094
4.01353
3.84319
3.57329
3.36276
3.15279
2.96436
2.81964
2.67984
2.50782
2.36982
2.28828
2.19887
2.08054
1.9501
1.88617
1.81733
1.73419
1.63309
1.63588
1.83655
2.3671
2.89293
3.37334
3.40244
3.42177
3.45813
3.47954
3.42797
3.31286
3.17976
3.05736
2.95129
2.84848
2.76243
2.70312
2.66024
2.66641
2.76298
2.99867
3.31818
3.57745
3.79733
3.91833
3.91025
3.9062
3.86844
3.77404
3.6506
3.54435
3.46478
3.41548
3.38461
3.35036
3.3203
3.29113
3.24213
3.15517
3.08289
3.06344
3.05966
3.04624
3.03276
3.02404
3.00559
2.97067
2.92522
2.86102
2.33174
2.25061
2.32677
2.8273
3.59118
3.94477
3.95013
3.76875
3.54682
3.29423
3.08911
2.95671
2.81757
2.64919
2.50318
2.41599
2.3214
2.19709
2.07723
1.97796
1.91403
1.83905
1.886
2.14614
2.86336
3.3366
3.59184
3.72037
3.74103
3.71425
3.74094
3.72741
3.63731
3.49396
3.33621
3.19412
3.05925
2.93089
2.80313
2.70305
2.62375
2.57077
2.54976
2.51282
2.52353
2.6266
2.82582
3.09221
3.32053
3.5738
3.66744
3.65011
3.62059
3.54614
3.4529
3.39626
3.32484
3.26752
3.24087
3.20998
3.17688
3.13006
3.04947
2.99129
2.9755
2.95733
2.93834
2.92051
2.90508
2.89429
2.88051
2.82169
2.48504
2.30068
2.3033
2.39966
2.90945
3.62477
3.88075
3.86261
3.71807
3.48268
3.24647
3.09416
2.94509
2.77094
2.64475
2.55821
2.44411
2.30825
2.17459
2.08661
2.06285
2.21154
2.65325
3.31669
3.91559
3.90314
3.88138
3.90795
3.94207
3.9958
4.02053
3.9335
3.80338
3.64549
3.4729
3.3007
3.14525
3.012
2.89584
2.80011
2.71064
2.62893
2.54797
2.47139
2.38983
2.29974
2.27072
2.3259
2.46977
2.72221
3.01183
3.25878
3.37594
3.36491
3.31999
3.25583
3.23959
3.23093
3.19524
3.14871
3.10538
3.06605
3.02111
2.94455
2.88249
2.86779
2.8552
2.845
2.84186
2.83139
2.80159
2.72876
2.64435
2.42172
2.34078
2.37424
2.4903
2.99748
3.61484
3.80816
3.81484
3.67062
3.42972
3.25742
3.09368
2.90983
2.78064
2.67873
2.55668
2.43298
2.29609
2.32883
2.61189
3.34965
3.95384
4.36862
4.4091
4.30078
4.18957
4.19692
4.25869
4.31363
4.23606
4.11143
3.95983
3.79347
3.61244
3.41906
3.2382
3.09361
2.98522
2.89095
2.80058
2.71194
2.6191
2.52154
2.41411
2.27786
2.20546
2.1885
2.17682
2.19123
2.27755
2.46175
2.64536
2.79936
2.95497
3.01202
3.03233
3.06786
3.11695
3.12268
3.08534
3.03711
2.9858
2.89626
2.80087
2.78297
2.7784
2.77893
2.77735
2.76414
2.73832
2.66873
2.76611
2.57002
2.45558
2.40666
2.40589
2.54907
3.08982
3.57463
3.81401
3.79533
3.63206
3.44214
3.26046
3.06281
2.92245
2.79055
2.67907
2.60083
2.75049
3.25804
4.07153
4.66068
4.67907
4.62773
4.54079
4.52702
4.54429
4.60253
4.66315
4.57622
4.42235
4.25083
4.07611
3.89539
3.69852
3.49063
3.31119
3.18523
3.09049
3.00267
2.91391
2.81911
2.71134
2.58601
2.44995
2.31561
2.22178
2.17052
2.12402
2.1069
2.09511
2.07839
2.07383
2.11201
2.19819
2.36197
2.54796
2.71022
2.90804
2.98621
2.99001
2.9528
2.8812
2.78888
2.71016
2.68196
2.67731
2.68634
2.71099
2.70867
2.6946
2.62722
2.87615
2.68998
2.55953
2.49192
2.42316
2.43328
2.63753
3.11799
3.6168
3.78195
3.73886
3.61255
3.43264
3.19147
3.05958
2.9352
3.01116
3.40486
4.24871
4.92123
5.35417
5.31327
5.10202
4.87521
4.82216
4.89236
4.94329
5.00459
4.93457
4.77801
4.5814
4.3834
4.1887
3.98896
3.77468
3.55773
3.37965
3.25598
3.16182
3.07638
2.99261
2.90561
2.80539
2.67806
2.52565
2.38856
2.29417
2.22615
2.16412
2.10418
2.05572
2.01043
1.97523
1.92797
1.86322
1.86876
1.94529
2.08501
2.29778
2.52504
2.72487
2.77451
2.75783
2.69991
2.6406
2.59452
2.57357
2.56907
2.58245
2.61124
2.61083
2.55193
2.98287
2.83264
2.6915
2.61741
2.49909
2.42452
2.45077
2.65879
3.14958
3.61952
3.70735
3.67794
3.57362
3.36979
3.32607
3.62782
4.3584
5.34863
5.72806
5.67251
5.58138
5.40668
5.30328
5.27975
5.39731
5.43097
5.39498
5.27948
5.08548
4.87912
4.68374
4.49672
4.30443
4.09378
3.86357
3.64416
3.47321
3.34435
3.2381
3.14158
3.04635
2.94801
2.83938
2.71059
2.57118
2.45373
2.3695
2.30898
2.25236
2.18555
2.11612
2.04489
1.9687
1.88522
1.81903
1.76142
1.737
1.74201
1.78469
1.89707
2.07639
2.23808
2.34313
2.45383
2.52777
2.50769
2.48337
2.51312
2.5263
2.51385
2.49374
2.42008
3.10315
2.96824
2.81593
2.74594
2.65297
2.48967
2.45028
2.47909
2.6733
3.1834
3.51191
3.65111
3.73058
3.98612
4.76195
5.77142
6.50649
6.69655
6.46079
6.00275
5.62563
5.50049
5.57992
5.80944
5.97607
5.90671
5.72167
5.45954
5.19679
4.96484
4.76679
4.58692
4.4034
4.19598
3.96076
3.73515
3.5601
3.42468
3.31028
3.20831
3.10739
3.00232
2.8897
2.76158
2.61911
2.48811
2.38788
2.32251
2.28208
2.24327
2.19373
2.12083
2.02907
1.93169
1.83505
1.75567
1.70932
1.68802
1.66783
1.6605
1.67457
1.72052
1.79926
1.90795
2.05771
2.17715
2.27814
2.39534
2.43306
2.42989
2.42413
2.36572
3.31306
3.16354
2.95271
2.84807
2.78215
2.62943
2.52008
2.48402
2.51296
2.74354
3.17385
3.66789
4.75497
6.12327
7.22055
7.32807
7.16444
6.85626
6.50795
6.18633
5.92061
5.93951
6.18767
6.47348
6.4176
6.19346
5.8975
5.58934
5.31059
5.06739
4.8562
4.66252
4.4704
4.26744
4.04372
3.81875
3.63264
3.48998
3.37077
3.26606
3.16352
3.05544
2.94089
2.81629
2.67963
2.54857
2.44708
2.37319
2.30944
2.24308
2.17483
2.11193
2.05282
1.98176
1.88885
1.79091
1.72547
1.68765
1.65656
1.62535
1.58624
1.56731
1.54969
1.56025
1.6028
1.6937
1.81978
1.98312
2.11798
2.22575
2.30122
2.29658
3.33983
3.25346
3.13982
3.02064
2.89842
2.75849
2.61769
2.52003
2.53194
2.65616
3.33601
4.97151
6.88733
8.14724
8.51058
8.11081
7.42519
6.78395
6.48348
6.40949
6.44386
6.63538
6.93706
6.95229
6.72013
6.34864
5.9809
5.6644
5.39138
5.14702
4.92766
4.72204
4.51583
4.30426
4.08673
3.86916
3.67287
3.52385
3.40594
3.30413
3.20859
3.1085
2.994
2.86175
2.71646
2.57919
2.46807
2.3873
2.32249
2.26071
2.20382
2.15399
2.0973
2.01855
1.9188
1.81973
1.74773
1.69755
1.65591
1.61527
1.5724
1.54847
1.52329
1.49705
1.46856
1.4448
1.45891
1.52306
1.63874
1.77929
1.91886
2.06155
3.17716
3.2164
3.22837
3.16864
3.00678
2.86882
2.75149
2.71912
2.95285
3.66733
4.95022
6.2848
7.14207
7.89351
8.30808
8.16394
7.63104
6.99088
6.75677
6.88953
7.16377
7.44215
7.46579
7.26532
6.87969
6.4428
6.04792
5.72765
5.46804
5.23439
5.01706
4.8109
4.60536
4.39263
4.15826
3.9229
3.76749
3.64427
3.5214
3.39812
3.28384
3.18109
3.07609
2.96015
2.82777
2.68085
2.5441
2.42374
2.34005
2.27542
2.21778
2.16613
2.11331
2.04858
1.96315
1.86421
1.77511
1.70936
1.66414
1.62479
1.5874
1.55277
1.51613
1.47746
1.43549
1.39949
1.36538
1.33517
1.33924
1.37652
1.45291
1.6598
2.59925
2.99312
3.19764
3.23128
3.19597
3.14036
3.24984
3.73456
4.8361
5.80195
6.37955
6.54882
6.7054
7.04001
7.50023
7.62051
7.52806
7.38375
7.42985
7.63903
7.9674
8.00792
7.81398
7.43644
6.96433
6.51063
6.10949
5.76742
5.4853
5.24544
5.03857
4.84365
4.63955
4.41537
4.17328
3.94082
3.73753
3.58035
3.46227
3.3651
3.27371
3.17926
3.07662
2.95549
2.80933
2.63647
2.50146
2.42316
2.35569
2.29611
2.23834
2.18105
2.12535
2.07017
2.00182
1.902
1.79431
1.72203
1.67661
1.63882
1.60413
1.56826
1.53077
1.49112
1.44994
1.40137
1.34971
1.31107
1.29003
1.28364
1.28204
1.32647
1.58076
2.19644
2.79192
3.17869
3.73248
4.22127
5.0341
6.0294
6.44007
6.61573
6.46975
6.20507
6.0061
6.17235
6.53754
7.00459
7.4987
8.02635
8.43577
8.48149
8.50482
8.27631
7.89974
7.46674
7.0071
6.53957
6.09697
5.73914
5.47294
5.26346
5.08188
4.90045
4.70157
4.47863
4.23514
3.98001
3.73832
3.55863
3.43816
3.34943
3.27427
3.19704
3.0995
2.97275
2.82392
2.6448
2.48413
2.44227
2.41282
2.36629
2.31246
2.25716
2.20303
2.14462
2.06401
1.95183
1.84568
1.77414
1.7301
1.69787
1.66874
1.63807
1.60316
1.56231
1.51095
1.44002
1.36926
1.31921
1.28907
1.26272
1.24487
1.22918
1.06534
1.31963
1.95824
3.46056
5.19142
6.83081
8.27522
8.81349
8.36475
7.48096
6.45994
5.95204
5.58406
5.59842
5.78366
6.40192
7.5051
8.5198
9.3141
9.23661
8.92156
8.44822
7.94709
7.46498
7.00043
6.53229
6.08808
5.73022
5.46815
5.26952
5.09764
4.92913
4.75076
4.54993
4.30448
4.00878
3.73746
3.56062
3.443
3.33789
3.23238
3.13446
3.05155
2.96801
2.83822
2.64504
2.50744
2.43346
2.36829
2.31187
2.25627
2.19827
2.13801
2.07085
1.99297
1.91096
1.81873
1.73313
1.68258
1.65423
1.62816
1.60146
1.57042
1.53153
1.47162
1.39306
1.32052
1.27434
1.24472
1.2233
1.20503
1.17456
)
;

boundaryField
{
    inlet
    {
        type            fixedValue;
        value           uniform 1;
    }
    outlet
    {
        type            zeroGradient;
    }
    bottom
    {
        type            zeroGradient;
    }
    top
    {
        type            zeroGradient;
    }
    obstacle
    {
        type            zeroGradient;
    }
    defaultFaces
    {
        type            empty;
    }
}


// ************************************************************************* //
