/*--------------------------------*- C++ -*----------------------------------*\
  =========                 |
  \\      /  F ield         | OpenFOAM: The Open Source CFD Toolbox
   \\    /   O peration     | Website:  https://openfoam.org
    \\  /    A nd           | Version:  7
     \\/     M anipulation  |
\*---------------------------------------------------------------------------*/
FoamFile
{
    version     2.0;
    format      ascii;
    class       volVectorField;
    location    "3.8";
    object      U;
}
// * * * * * * * * * * * * * * * * * * * * * * * * * * * * * * * * * * * * * //

dimensions      [0 1 -1 0 0 0 0];

internalField   nonuniform List<vector> 
4128
(
(3 -1.13431e-16 0)
(3 -9.7787e-17 0)
(3 1.22966e-16 0)
(3 6.10713e-16 0)
(3 1.05369e-15 0)
(3 1.49095e-15 0)
(3 1.50609e-15 0)
(3 1.06324e-15 0)
(3 8.16997e-16 0)
(3 3.00523e-16 0)
(3 -2.36375e-16 0)
(3 -4.22428e-17 0)
(3 1.42195e-16 0)
(3 2.53109e-16 0)
(3 1.04122e-16 0)
(3 1.54205e-16 0)
(3 7.37907e-16 0)
(2.66457 0.0130669 0)
(0.87796 0.0305816 0)
(0.62827 0.0401897 0)
(0.52518 0.0490778 0)
(0.399091 0.058582 0)
(0.256901 0.0659617 0)
(0.107494 0.0856134 0)
(3 -1.89943e-16 0)
(3 -2.221e-16 0)
(3 -2.31914e-16 0)
(3 4.019e-16 0)
(3 8.68363e-16 0)
(3 1.48723e-15 0)
(3 1.59151e-15 0)
(3 1.48134e-15 0)
(3 9.96258e-16 0)
(3 2.87956e-16 0)
(3 -4.66704e-16 0)
(3 -8.51102e-16 0)
(3 -6.80515e-16 0)
(3 -4.51154e-16 0)
(3 -1.04435e-16 0)
(3 3.84245e-16 0)
(3 -6.15337e-17 0)
(2.71986 0.0689338 0)
(0.890492 0.144724 0)
(0.609171 0.140286 0)
(0.50117 0.15857 0)
(0.376504 0.190068 0)
(0.238303 0.218838 0)
(0.0919936 0.273356 0)
(3 -3.8575e-17 0)
(3 -1.70113e-16 0)
(3 -7.51372e-17 0)
(3 1.03973e-16 0)
(3 5.35383e-16 0)
(3 7.49809e-16 0)
(3 9.63822e-16 0)
(3 7.70441e-16 0)
(3 2.68524e-16 0)
(3 -5.10199e-16 0)
(3 -7.38026e-16 0)
(3 -9.39124e-16 0)
(3 -9.01594e-16 0)
(3 -5.08728e-16 0)
(3 3.32334e-16 0)
(3 9.54708e-16 0)
(3 5.99497e-16 0)
(2.87983 0.112029 0)
(0.984298 0.26404 0)
(0.65751 0.244443 0)
(0.550556 0.272622 0)
(0.437862 0.321047 0)
(0.300295 0.359697 0)
(0.151431 0.45675 0)
(3 1.33185e-16 0)
(3 3.66282e-18 0)
(3 1.33928e-16 0)
(3 1.41825e-16 0)
(3 1.80451e-16 0)
(3 2.12954e-16 0)
(3 7.23139e-16 0)
(3 7.10854e-16 0)
(3 5.56551e-16 0)
(3 -8.63348e-16 0)
(3 -1.57613e-15 0)
(3 -9.6298e-16 0)
(3 -8.82837e-16 0)
(3 -5.8891e-16 0)
(3 4.82623e-17 0)
(3 7.01687e-16 0)
(3 4.05136e-16 0)
(3.02589 0.0138226 0)
(1.1724 0.346222 0)
(0.752491 0.327317 0)
(0.649403 0.363077 0)
(0.544058 0.434618 0)
(0.360026 0.545204 0)
(0.19904 0.76146 0)
(3 4.85082e-17 0)
(3 -1.02391e-16 0)
(3 -1.69777e-16 0)
(3 -3.50333e-16 0)
(3 -6.62811e-16 0)
(3 -3.94179e-16 0)
(3 -4.08273e-16 0)
(3 -1.87356e-16 0)
(3 -4.73369e-17 0)
(3 -1.77464e-16 0)
(3 -4.61967e-17 0)
(3 1.41999e-16 0)
(3 4.74398e-16 0)
(3 5.85515e-16 0)
(3 2.55558e-16 0)
(3 -2.10351e-16 0)
(3 -2.3643e-15 0)
(3.00197 7.89567e-06 0)
(1.45895 0.402505 0)
(0.806563 0.428733 0)
(0.693125 0.471169 0)
(0.612867 0.578691 0)
(0.558331 0.75876 0)
(0.662985 1.04664 0)
(3 1.8822e-17 0)
(3 -8.95891e-17 0)
(3 -2.5322e-16 0)
(3 -3.37734e-16 0)
(3 -5.76008e-16 0)
(3 -9.11403e-16 0)
(3 -6.38443e-16 0)
(3 -2.26266e-16 0)
(3 4.80684e-16 0)
(3 7.89363e-16 0)
(3 1.44016e-15 0)
(3 1.55618e-15 0)
(3 1.9552e-15 0)
(3 2.02335e-15 0)
(3 7.76279e-16 0)
(3 -1.16888e-15 0)
(3 -1.8246e-15 0)
(3.00001 -4.91671e-07 0)
(1.97766 0.451047 0)
(0.893316 0.543537 0)
(0.762409 0.556381 0)
(0.73531 0.655564 0)
(0.77768 0.786517 0)
(1.00621 0.92587 0)
(3 -8.83913e-17 0)
(3 1.07235e-16 0)
(3 1.06443e-16 0)
(3 -2.42107e-17 0)
(3 2.28996e-16 0)
(3 2.78636e-16 0)
(3 7.27594e-17 0)
(3 1.56139e-16 0)
(3 6.33304e-16 0)
(3 1.40969e-15 0)
(3 1.54755e-15 0)
(3 1.72987e-15 0)
(3 1.47981e-15 0)
(3 6.0723e-16 0)
(3 -1.10453e-16 0)
(3 -5.31121e-16 0)
(3 1.73801e-16 0)
(3 -5.7157e-07 0)
(2.78338 0.285126 0)
(1.10918 0.640644 0)
(0.894569 0.603336 0)
(0.882871 0.695935 0)
(0.963663 0.808221 0)
(1.21708 0.8948 0)
(3 -7.33801e-17 0)
(3 5.96034e-18 0)
(3 3.01255e-16 0)
(3 4.6177e-16 0)
(3 3.71492e-16 0)
(3 3.27692e-16 0)
(3 -8.83879e-17 0)
(3 3.4885e-17 0)
(3 5.56407e-17 0)
(3 6.88287e-16 0)
(3 1.04593e-15 0)
(3 5.16385e-16 0)
(3 -4.81014e-16 0)
(3 -1.171e-15 0)
(3 -1.07409e-15 0)
(3 -8.65579e-16 0)
(3 6.20189e-16 0)
(3 -1.19962e-07 0)
(3.06873 0.0202973 0)
(1.50685 0.656309 0)
(1.0155 0.711298 0)
(1.02087 0.72717 0)
(1.09027 0.789048 0)
(1.29971 0.840771 0)
(3 1.09178e-16 0)
(3 -2.96927e-16 0)
(3 -3.62647e-16 0)
(3 -2.11191e-16 0)
(3 -2.0701e-16 0)
(3 -2.12291e-16 0)
(3 -1.02335e-17 0)
(3 -4.3289e-17 0)
(3 2.62604e-16 0)
(3 2.02715e-16 0)
(3 1.6646e-16 0)
(3 -5.70818e-16 0)
(3 -1.15439e-15 0)
(3 -1.47161e-15 0)
(3 -1.26015e-15 0)
(3 -7.59666e-16 0)
(3 -2.18217e-17 0)
(3 -1.2314e-08 0)
(3.00313 0.000114081 0)
(2.22497 0.577422 0)
(1.156 0.805663 0)
(1.10732 0.797162 0)
(1.19639 0.815275 0)
(1.35978 0.828305 0)
(3 -2.04068e-16 0)
(3 -4.23493e-16 0)
(3 -5.48872e-16 0)
(3 -6.09687e-16 0)
(3 -4.10348e-16 0)
(3 2.48896e-16 0)
(3 6.44235e-16 0)
(3 2.47345e-16 0)
(3 3.16935e-17 0)
(3 -1.33014e-16 0)
(3 -3.67799e-16 0)
(3 -1.22532e-15 0)
(3 -1.54969e-15 0)
(3 -1.12386e-15 0)
(3 -1.01518e-15 0)
(3 -6.88371e-16 0)
(3 -7.54593e-16 0)
(3 -3.93559e-10 0)
(3.00001 -6.43964e-08 0)
(3.04303 0.124301 0)
(1.55105 0.818449 0)
(1.20848 0.790981 0)
(1.30091 0.802733 0)
(1.42433 0.808094 0)
(3 -1.54789e-16 0)
(3 1.12588e-16 0)
(3 -2.17451e-16 0)
(3 -2.98999e-16 0)
(3 -2.72993e-16 0)
(3 -6.72792e-17 0)
(3 3.43559e-17 0)
(3 -2.37856e-16 0)
(3 -7.75049e-16 0)
(3 -9.28098e-16 0)
(3 -9.08121e-16 0)
(3 -7.94547e-16 0)
(3 -8.92637e-16 0)
(3 -4.61292e-16 0)
(3 -9.7223e-17 0)
(3 -1.44584e-16 0)
(3 -4.23749e-16 0)
(3 -9.50414e-13 0)
(3 -4.35712e-07 0)
(3.01486 0.00311893 0)
(2.25957 0.651761 0)
(1.33526 0.871529 0)
(1.34444 0.861527 0)
(1.45437 0.849254 0)
(3 2.85427e-16 0)
(3 5.03423e-17 0)
(3 -2.4164e-16 0)
(3 -7.25245e-16 0)
(3 -3.29882e-16 0)
(3 -1.65955e-16 0)
(3 -6.3889e-16 0)
(3 -7.49836e-16 0)
(3 -1.02369e-15 0)
(3 -1.08765e-15 0)
(3 -1.19685e-15 0)
(3 -7.57843e-16 0)
(3 4.10946e-16 0)
(3 7.14805e-16 0)
(3 3.2001e-16 0)
(3 1.88083e-16 0)
(3 1.46755e-16 0)
(3 -4.0309e-16 0)
(3 -9.21425e-08 0)
(3.00009 3.95371e-05 0)
(3.01306 0.134418 0)
(1.75676 0.855944 0)
(1.3964 0.86882 0)
(1.50858 0.854017 0)
(3 7.006e-17 0)
(3 -1.32511e-16 0)
(3 1.32414e-16 0)
(3 1.97296e-16 0)
(3 4.09259e-16 0)
(3 4.52145e-16 0)
(3 4.22381e-16 0)
(3 2.87118e-16 0)
(3 2.07803e-16 0)
(3 9.60862e-17 0)
(3 -1.71356e-17 0)
(3 1.02093e-16 0)
(3 4.44611e-16 0)
(3 3.38454e-16 0)
(3 -3.9891e-16 0)
(3 2.05459e-16 0)
(3 1.49488e-15 0)
(3 1.49928e-15 0)
(3 -9.35274e-09 0)
(3 6.88978e-09 0)
(3.00854 0.00603204 0)
(2.59375 0.550556 0)
(1.56512 0.915716 0)
(1.54609 0.909615 0)
(3 -1.88977e-16 0)
(3 2.75113e-16 0)
(3 8.34413e-16 0)
(3 1.61967e-15 0)
(3 9.3963e-16 0)
(3 2.4883e-16 0)
(3 2.97639e-16 0)
(3 6.14417e-16 0)
(3 6.87657e-16 0)
(3 4.88587e-16 0)
(3 6.23345e-16 0)
(3 6.09971e-16 0)
(3 3.30606e-16 0)
(3 -1.51225e-16 0)
(3 -6.08388e-16 0)
(3 -3.86669e-16 0)
(3 -7.18707e-16 0)
(3 3.5758e-16 0)
(3 -1.28575e-10 0)
(3 -7.64892e-10 0)
(3.00003 7.95499e-05 0)
(3.02613 0.0643741 0)
(2.1042 0.763714 0)
(1.63157 0.915405 0)
(3 -3.0377e-16 0)
(3 -2.55256e-16 0)
(3 -1.48715e-16 0)
(3 3.80235e-16 0)
(3 5.06484e-16 0)
(3 6.92791e-16 0)
(3 -5.45411e-17 0)
(3 -2.87379e-17 0)
(3 4.55332e-16 0)
(3 -9.78943e-18 0)
(3 -3.04907e-16 0)
(3 1.53953e-16 0)
(3 6.95992e-16 0)
(3 5.98077e-16 0)
(3 7.37157e-16 0)
(3 -5.88866e-16 0)
(3 -1.26592e-15 0)
(3 -5.13685e-16 0)
(3 -6.73269e-13 0)
(3 -1.68292e-10 0)
(3 7.10527e-08 0)
(3.00146 0.00304336 0)
(2.85106 0.271125 0)
(1.94539 0.855664 0)
(3 8.41372e-17 0)
(3 -1.86054e-16 0)
(3 -1.119e-16 0)
(3 -2.38413e-17 0)
(3 2.78936e-16 0)
(3 4.67876e-16 0)
(3 2.197e-16 0)
(3 -1.05754e-16 0)
(3 4.2934e-17 0)
(3 2.8515e-16 0)
(3 1.57511e-16 0)
(3 5.70569e-17 0)
(3 2.59545e-16 0)
(3 -3.46598e-16 0)
(3 -2.81435e-16 0)
(3 -1.21825e-15 0)
(3 -1.96e-15 0)
(3 -1.6637e-15 0)
(3 -2.23423e-15 0)
(3 -1.58963e-11 0)
(3 3.22506e-12 0)
(3 1.65454e-05 0)
(3.00121 0.0206652 0)
(2.61161 0.481772 0)
(3 1.46446e-16 0)
(3 5.38587e-16 0)
(3 1.72718e-16 0)
(3 -4.88902e-17 0)
(3 9.06726e-17 0)
(3 2.9826e-16 0)
(3 3.35783e-16 0)
(3 3.30323e-16 0)
(3 2.82632e-16 0)
(3 8.51427e-16 0)
(3 7.10203e-16 0)
(3 -1.41081e-16 0)
(3 -8.69406e-16 0)
(3 -4.19723e-16 0)
(3 5.65116e-17 0)
(3 -2.21128e-16 0)
(3 -7.55614e-16 0)
(3 -1.25976e-15 0)
(3 -9.43575e-16 0)
(3 -6.4681e-13 0)
(3 -6.47385e-13 0)
(3 1.2916e-08 0)
(2.99996 0.000445271 0)
(2.9796 0.0647285 0)
(3 1.64294e-16 0)
(3 8.23297e-17 0)
(3 -2.52491e-16 0)
(3 -2.51689e-16 0)
(3 -5.23646e-16 0)
(3 -7.86422e-16 0)
(3 -6.49625e-16 0)
(3 -2.20719e-16 0)
(3 7.72316e-17 0)
(3 -7.4772e-17 0)
(3 -2.8314e-16 0)
(3 -1.76717e-16 0)
(3 -3.94805e-16 0)
(3 -4.244e-16 0)
(3 -2.93044e-16 0)
(3 -1.57053e-16 0)
(3 2.97847e-16 0)
(3 7.69065e-17 0)
(3 1.47259e-15 0)
(3 -3.19969e-15 0)
(3 -2.02656e-13 0)
(3 4.16949e-12 0)
(3 1.00076e-06 0)
(2.99957 0.00259128 0)
(3 2.31462e-16 0)
(3 -3.69607e-16 0)
(3 -1.97056e-16 0)
(3 -1.45487e-16 0)
(3 -5.86348e-16 0)
(3 -7.93952e-16 0)
(3 -5.10801e-16 0)
(3 5.21002e-17 0)
(3 8.989e-17 0)
(3 -3.89143e-16 0)
(3 -6.04927e-16 0)
(3 -7.8869e-16 0)
(3 -1.07275e-15 0)
(3 -1.48763e-15 0)
(3 -1.10614e-15 0)
(3 3.73264e-16 0)
(3 1.23632e-15 0)
(3 1.49938e-15 0)
(3 1.59176e-15 0)
(3 1.35096e-15 0)
(3 -2.63337e-14 0)
(3 -2.70842e-14 0)
(3 8.16367e-10 0)
(3 1.33631e-05 0)
(3 4.24546e-17 0)
(3 1.89676e-16 0)
(3 2.56303e-16 0)
(3 -1.173e-16 0)
(3 -6.38492e-17 0)
(3 1.76737e-16 0)
(3 3.07569e-16 0)
(3 4.85347e-16 0)
(3 7.14389e-16 0)
(3 6.39731e-16 0)
(3 1.57191e-16 0)
(3 -1.14641e-15 0)
(3 -1.44287e-15 0)
(3 -1.4101e-15 0)
(3 -8.21776e-16 0)
(3 2.4751e-16 0)
(3 5.35539e-16 0)
(3 1.09152e-15 0)
(3 3.59761e-16 0)
(3 -8.74858e-16 0)
(3 -2.37394e-15 0)
(3 -1.14701e-14 0)
(3 1.1225e-13 0)
(3 1.69039e-08 0)
(3 -2.313e-16 0)
(3 -2.66489e-16 0)
(3 -3.79114e-16 0)
(3 -7.53287e-16 0)
(3 -5.51551e-16 0)
(3 -7.29893e-17 0)
(3 7.28468e-16 0)
(3 7.02132e-16 0)
(3 5.33612e-16 0)
(3 4.624e-16 0)
(3 3.87353e-16 0)
(3 5.0358e-18 0)
(3 -5.08209e-16 0)
(3 -4.4742e-16 0)
(3 -1.07629e-15 0)
(3 -1.25706e-15 0)
(3 -8.74295e-16 0)
(3 -4.21046e-16 0)
(3 4.98117e-16 0)
(3 -5.1038e-17 0)
(3 1.34792e-17 0)
(3 -2.80246e-15 0)
(3 -2.12512e-15 0)
(3 5.4207e-12 0)
(3 -2.11268e-16 0)
(3 -5.65344e-16 0)
(3 -8.70841e-16 0)
(3 -9.87724e-16 0)
(3 -1.08948e-15 0)
(3 -9.1051e-16 0)
(3 1.41319e-16 0)
(3 5.74219e-16 0)
(3 1.77215e-16 0)
(3 1.85667e-16 0)
(3 1.05856e-15 0)
(3 1.35771e-15 0)
(3 3.04392e-16 0)
(3 1.70863e-16 0)
(3 -6.4371e-16 0)
(3 -1.22615e-15 0)
(3 -1.16967e-15 0)
(3 -1.09332e-15 0)
(3 -8.42327e-16 0)
(3 -2.70291e-16 0)
(3 -5.92137e-16 0)
(3 -1.57756e-16 0)
(3 -4.73272e-16 0)
(3 3.18153e-16 0)
(3 -1.06551e-17 0)
(3 7.64187e-17 0)
(3 1.23659e-16 0)
(3 5.34367e-16 0)
(3 5.5251e-16 0)
(3 2.45684e-16 0)
(3 1.13949e-16 0)
(3 -1.8402e-16 0)
(3 -1.3508e-16 0)
(3 -5.05007e-19 0)
(3 3.59167e-16 0)
(3 6.85857e-16 0)
(3 7.11311e-16 0)
(3 2.62407e-16 0)
(3 2.8182e-16 0)
(3 -3.62181e-16 0)
(3 -1.07919e-15 0)
(3 -1.36408e-15 0)
(3 -1.69648e-15 0)
(3 -1.61672e-15 0)
(3 -1.70697e-15 0)
(3 -9.34624e-16 0)
(3 -2.87363e-16 0)
(3 -1.09501e-16 0)
(3 1.10936e-16 0)
(3 4.52761e-16 0)
(3 8.14649e-16 0)
(3 1.00202e-15 0)
(3 1.1071e-15 0)
(3 8.73333e-16 0)
(3 -1.49711e-17 0)
(3 -9.82198e-16 0)
(3 -1.02517e-15 0)
(3 -8.35105e-16 0)
(3 -1.64674e-15 0)
(3 -1.52677e-15 0)
(3 -1.2595e-15 0)
(3 -7.26874e-16 0)
(3 -2.88815e-16 0)
(3 2.46e-17 0)
(3 -3.81578e-16 0)
(3 -9.40892e-16 0)
(3 -8.08592e-16 0)
(3 -3.61562e-16 0)
(3 -1.66569e-16 0)
(3 -4.89681e-16 0)
(3 -7.34869e-16 0)
(3 -7.74587e-16 0)
(3 2.34953e-16 0)
(3 2.58907e-16 0)
(3 5.12747e-17 0)
(3 -1.15238e-16 0)
(3 5.31067e-17 0)
(3 6.93069e-17 0)
(3 -1.21426e-16 0)
(3 -4.86536e-16 0)
(3 -5.18897e-16 0)
(3 -3.66553e-16 0)
(3 -7.42418e-16 0)
(3 -1.65082e-15 0)
(3 -2.18443e-15 0)
(3 -1.59345e-15 0)
(3 -2.47097e-17 0)
(3 1.20485e-15 0)
(3 4.48138e-16 0)
(3 -1.53416e-16 0)
(3 -9.3333e-16 0)
(3 -3.24287e-16 0)
(3 4.27515e-16 0)
(3 6.3779e-16 0)
(3 6.35417e-16 0)
(3 2.78741e-16 0)
(3 1.98721e-18 0)
(3 -9.04044e-17 0)
(3 -7.77008e-16 0)
(3 -7.85664e-16 0)
(3 1.1927e-16 0)
(3 5.60064e-16 0)
(3 2.95815e-16 0)
(3 -1.2105e-16 0)
(3 -7.75924e-17 0)
(3 -5.26977e-17 0)
(3 4.59277e-16 0)
(3 3.21324e-16 0)
(3 7.3136e-17 0)
(3 -6.51346e-17 0)
(3 5.04663e-17 0)
(3 4.56977e-16 0)
(3 1.13751e-15 0)
(3 1.32074e-15 0)
(3 6.1785e-16 0)
(3 7.66701e-16 0)
(3 1.20014e-15 0)
(3 1.6168e-15 0)
(3 1.69e-15 0)
(3 1.57468e-15 0)
(3 -6.84822e-18 0)
(3 -4.16353e-16 0)
(3 -8.59721e-16 0)
(3 -9.518e-16 0)
(3 -7.03239e-16 0)
(3 -3.95295e-16 0)
(3 -5.15369e-16 0)
(3 -3.21011e-16 0)
(3 -8.46362e-16 0)
(3 -8.78887e-16 0)
(3 -3.19511e-16 0)
(3 1.71834e-15 0)
(3 2.0572e-15 0)
(3 1.78923e-15 0)
(3 1.02501e-15 0)
(3 8.12895e-16 0)
(3 1.09332e-15 0)
(3 1.62666e-15 0)
(3 2.31374e-15 0)
(3 2.13196e-15 0)
(3 2.2814e-15 0)
(3 2.54928e-15 0)
(3 1.78503e-15 0)
(3 1.4079e-15 0)
(3 -2.83334e-17 0)
(3 -4.04895e-17 0)
(3 -7.4109e-17 0)
(3 -5.27864e-16 0)
(3 -8.45446e-16 0)
(3 -8.34522e-16 0)
(3 -1.42455e-17 0)
(3 4.00021e-16 0)
(3 4.07549e-17 0)
(3 2.76336e-16 0)
(3 4.88279e-16 0)
(3 1.08262e-15 0)
(3 2.11822e-15 0)
(3 2.38221e-15 0)
(3 2.21253e-15 0)
(3 1.6497e-15 0)
(3 8.42088e-16 0)
(3 6.66544e-16 0)
(3 2.63454e-16 0)
(3 1.71772e-16 0)
(3 5.43209e-16 0)
(3 9.80354e-16 0)
(3 1.14437e-15 0)
(3 1.08337e-15 0)
(3 9.88349e-17 0)
(3 3.11178e-16 0)
(3 4.44543e-16 0)
(3 6.36267e-16 0)
(3 2.49359e-16 0)
(3 7.017e-17 0)
(3 4.51203e-16 0)
(3 3.31372e-16 0)
(3 4.82883e-17 0)
(3 3.2397e-16 0)
(3 7.51674e-16 0)
(3 6.3642e-16 0)
(3 9.06162e-16 0)
(3 8.08037e-16 0)
(3 9.60658e-16 0)
(3 1.22288e-15 0)
(3 1.19753e-15 0)
(3 9.8458e-16 0)
(3 5.17147e-16 0)
(3 1.89019e-16 0)
(3 1.53536e-16 0)
(3 5.60375e-16 0)
(3 1.1952e-15 0)
(3 1.35781e-15 0)
(3 -4.46418e-17 0)
(3 3.98219e-17 0)
(3 2.02915e-16 0)
(3 4.94841e-16 0)
(3 2.7805e-16 0)
(3 2.35813e-16 0)
(3 2.56139e-17 0)
(3 -4.50117e-16 0)
(3 -2.5665e-16 0)
(3 -4.59773e-16 0)
(3 -2.87426e-16 0)
(3 3.43727e-16 0)
(3 5.50914e-16 0)
(3 6.02188e-16 0)
(3 5.19143e-16 0)
(3 6.02706e-18 0)
(3 1.27508e-16 0)
(3 1.38069e-16 0)
(3 7.0563e-16 0)
(3 1.15605e-15 0)
(3 8.17337e-16 0)
(3 5.10858e-16 0)
(3 6.43497e-16 0)
(3 9.85636e-16 0)
(3 -2.21158e-16 0)
(3 -2.98402e-16 0)
(3 1.56315e-16 0)
(3 1.82759e-16 0)
(3 5.2093e-16 0)
(3 4.23411e-16 0)
(3 1.43366e-16 0)
(3 1.23086e-16 0)
(3 6.61509e-16 0)
(3 6.39011e-16 0)
(3 1.88891e-16 0)
(3 8.67092e-17 0)
(3 3.57233e-16 0)
(3 5.69226e-16 0)
(3 2.58566e-16 0)
(3 -4.39187e-16 0)
(3 -3.01792e-16 0)
(3 -1.10873e-16 0)
(3 -5.46649e-16 0)
(3 -4.8338e-17 0)
(3 -3.08127e-16 0)
(3 -2.34082e-16 0)
(3 2.61315e-16 0)
(3 1.29359e-15 0)
(3 -4.75998e-17 0)
(3 -2.82166e-16 0)
(3 -3.75908e-16 0)
(3 -3.88056e-17 0)
(3 -1.4835e-16 0)
(3 -3.78153e-16 0)
(3 -4.61918e-16 0)
(3 5.97974e-17 0)
(3 4.97001e-16 0)
(3 5.80776e-16 0)
(3 1.98491e-16 0)
(3 -6.69736e-16 0)
(3 -9.00366e-16 0)
(3 -8.87242e-16 0)
(3 -2.89553e-16 0)
(3 -1.29086e-16 0)
(3 -1.01896e-17 0)
(3 2.16862e-16 0)
(3 4.25726e-16 0)
(3 -3.36031e-17 0)
(3 -1.35551e-16 0)
(3 1.69001e-16 0)
(3 4.60981e-16 0)
(3 1.06603e-15 0)
(3 -3.93117e-17 0)
(3 2.34652e-16 0)
(3 3.02966e-16 0)
(3 -1.01416e-16 0)
(3 -6.12287e-16 0)
(3 -4.69478e-16 0)
(3 1.33302e-17 0)
(3 3.63429e-16 0)
(3 7.13689e-17 0)
(3 -2.5929e-16 0)
(3 -8.71136e-16 0)
(3 -1.8812e-15 0)
(3 -2.27161e-15 0)
(3 -2.56925e-15 0)
(3 -1.58249e-15 0)
(3 -1.04561e-15 0)
(3 -4.95456e-16 0)
(3 -2.59883e-16 0)
(3 1.38949e-16 0)
(3 -1.43696e-16 0)
(3 1.64357e-16 0)
(3 2.30564e-16 0)
(3 -5.17313e-17 0)
(3 -2.19702e-16 0)
(3 2.47435e-16 0)
(3 5.65798e-16 0)
(3 7.13976e-16 0)
(3 3.06104e-16 0)
(3 -1.74826e-17 0)
(3 2.23777e-16 0)
(3 1.44916e-16 0)
(3 -2.05157e-17 0)
(3 -1.56035e-16 0)
(3 -3.32076e-16 0)
(3 -7.58065e-16 0)
(3 -1.5685e-15 0)
(3 -2.17341e-15 0)
(3 -1.83325e-15 0)
(3 -1.74608e-15 0)
(3 -1.38993e-15 0)
(3 -7.82924e-16 0)
(3 -5.5456e-16 0)
(3 -4.85385e-16 0)
(3 -6.59429e-17 0)
(3 -2.43996e-16 0)
(3 -1.04748e-15 0)
(3 -1.21526e-15 0)
(3 -1.49434e-15 0)
(3 1.79581e-16 0)
(3 1.4943e-17 0)
(3 4.62698e-18 0)
(3 -2.42097e-17 0)
(3 3.14698e-16 0)
(3 4.76399e-16 0)
(3 -6.05782e-16 0)
(3 -1.27688e-15 0)
(3 -1.303e-15 0)
(3 -6.37315e-16 0)
(3 -4.55646e-17 0)
(3 -1.19834e-16 0)
(3 -3.11706e-16 0)
(3 -1.99285e-16 0)
(3 -1.4589e-16 0)
(3 -4.99632e-16 0)
(3 -1.24567e-15 0)
(3 -1.46613e-15 0)
(3 -1.23269e-15 0)
(3 -4.85681e-16 0)
(3 -5.0398e-17 0)
(3 2.59607e-16 0)
(3 1.24411e-16 0)
(3 -8.65706e-17 0)
(3 -2.42269e-16 0)
(3 1.57755e-16 0)
(3 -4.56805e-18 0)
(3 -2.05563e-16 0)
(3 -3.63107e-16 0)
(3 -5.82591e-16 0)
(3 -4.6737e-16 0)
(3 -5.9368e-16 0)
(3 -6.15338e-16 0)
(3 -3.05725e-16 0)
(3 4.27898e-16 0)
(3 7.47936e-16 0)
(3 1.04279e-15 0)
(3 6.47605e-16 0)
(3 1.18885e-16 0)
(3 -1.06387e-15 0)
(3 -1.32849e-15 0)
(3 -1.39592e-15 0)
(3 -1.15919e-15 0)
(3 -9.09451e-16 0)
(3 -3.84341e-16 0)
(3 7.96156e-16 0)
(3 1.26552e-15 0)
(3 1.09783e-15 0)
(3 -3.73226e-17 0)
(3 -1.016e-16 0)
(3 5.7676e-18 0)
(3 1.31906e-16 0)
(3 -7.59706e-16 0)
(3 -1.62065e-15 0)
(3 -1.65578e-15 0)
(3 -1.21379e-15 0)
(3 -3.75583e-16 0)
(3 -1.52039e-16 0)
(3 7.29562e-16 0)
(3 1.66771e-15 0)
(3 1.42431e-15 0)
(3 5.97062e-16 0)
(3 -1.7107e-15 0)
(3 -2.25646e-15 0)
(3 -1.77339e-15 0)
(3 -3.21808e-16 0)
(3 1.24223e-16 0)
(3 1.70211e-17 0)
(3 -1.29507e-16 0)
(3 -2.06978e-16 0)
(3 4.38921e-16 0)
(3 1.08456e-15 0)
(3 8.55988e-17 0)
(3 -6.52724e-16 0)
(3 -1.53937e-16 0)
(3 -1.03794e-16 0)
(3 -2.05303e-16 0)
(3 -8.29915e-16 0)
(3 -1.27131e-15 0)
(3 -6.22447e-16 0)
(3 -1.91246e-16 0)
(3 -4.89832e-16 0)
(3 4.41054e-16 0)
(3 1.43168e-15 0)
(3 6.47759e-16 0)
(3 -1.73898e-16 0)
(3 -5.68848e-16 0)
(3 -3.73245e-16 0)
(3 -3.49872e-16 0)
(3 -7.78706e-16 0)
(3 -6.05209e-16 0)
(3 2.05413e-16 0)
(3 -1.77414e-16 0)
(3 -2.52851e-16 0)
(3 3.33657e-16 0)
(3 1.05164e-15 0)
(3 3.5774e-17 0)
(3 6.66411e-17 0)
(3 3.93166e-17 0)
(3 -1.97933e-16 0)
(3 2.72301e-16 0)
(3 4.91113e-16 0)
(3 1.17027e-16 0)
(3 9.42433e-16 0)
(3 9.71276e-16 0)
(3 6.01037e-16 0)
(3 8.10775e-16 0)
(3 9.5073e-16 0)
(3 -2.4513e-16 0)
(3 2.06794e-16 0)
(3 6.09839e-16 0)
(3 1.19598e-15 0)
(3 6.77522e-16 0)
(3 -6.7448e-16 0)
(3 -9.83313e-16 0)
(3 -1.01484e-15 0)
(3 5.10836e-16 0)
(3 2.1402e-15 0)
(3 2.03952e-15 0)
(3 1.79898e-15 0)
(3 1.15703e-16 0)
(3 3.28352e-16 0)
(3 1.55343e-16 0)
(3 1.24434e-16 0)
(3 2.45906e-16 0)
(3 4.05764e-16 0)
(3 3.09822e-16 0)
(3 4.02159e-16 0)
(3 8.34548e-16 0)
(3 8.10202e-16 0)
(3 6.66377e-16 0)
(3 6.50793e-16 0)
(3 3.68385e-16 0)
(3 3.10213e-16 0)
(3 1.96937e-17 0)
(3 3.03834e-16 0)
(3 -3.15873e-17 0)
(3 -3.7675e-16 0)
(3 -1.11171e-15 0)
(3 -2.05602e-15 0)
(3 -3.0857e-16 0)
(3 8.28216e-16 0)
(3 6.5202e-16 0)
(3 5.16127e-16 0)
(1.58657 1.08125 0)
(2.19613 1.03552 0)
(2.53986 1.09902 0)
(2.48607 0.522088 0)
(2.54862 0.253862 0)
(2.54706 -0.0105527 0)
(2.51688 -0.142651 0)
(2.41969 -0.195036 0)
(2.4123 -0.217957 0)
(2.41954 -0.171013 0)
(2.4087 -0.111096 0)
(2.39874 -0.0772002 0)
(2.39675 -0.0586738 0)
(2.39782 -0.040089 0)
(1.92871 0.00795032 0)
(0.951649 0.0306628 0)
(0.778651 0.0401404 0)
(0.685041 0.0398885 0)
(0.59014 0.0386968 0)
(0.493448 0.0383814 0)
(0.396844 0.0400219 0)
(0.301347 0.0458974 0)
(0.19602 0.0532036 0)
(0.0794014 0.0623726 0)
(1.71943 0.873989 0)
(2.17969 0.521874 0)
(2.41206 0.280799 0)
(2.51424 0.000503024 0)
(2.56394 -0.317123 0)
(2.56471 -0.415545 0)
(2.58894 -0.406717 0)
(2.56371 -0.34931 0)
(2.51907 -0.296276 0)
(2.48065 -0.203198 0)
(2.45354 -0.107538 0)
(2.42545 -0.0705886 0)
(2.41641 -0.0642099 0)
(2.41775 -0.0426638 0)
(2.05278 0.0976369 0)
(0.978621 0.162745 0)
(0.77875 0.141936 0)
(0.690814 0.130862 0)
(0.600819 0.126751 0)
(0.506461 0.12829 0)
(0.408146 0.136376 0)
(0.309191 0.156392 0)
(0.203556 0.180452 0)
(0.0774015 0.211128 0)
(1.6436 0.870611 0)
(1.96386 0.722253 0)
(2.26219 0.422382 0)
(2.3734 0.275674 0)
(2.45732 0.0878049 0)
(2.52618 -0.054162 0)
(2.54118 -0.0523882 0)
(2.57999 -0.165746 0)
(2.6048 -0.257612 0)
(2.61155 -0.260906 0)
(2.58308 -0.235823 0)
(2.54168 -0.206199 0)
(2.52928 -0.17381 0)
(2.50027 -0.117557 0)
(2.38239 0.0529075 0)
(1.12277 0.258104 0)
(0.857391 0.226056 0)
(0.767361 0.209055 0)
(0.673664 0.206039 0)
(0.57809 0.212777 0)
(0.482123 0.228115 0)
(0.391299 0.257336 0)
(0.284454 0.294214 0)
(0.147653 0.375491 0)
(1.59095 0.818811 0)
(1.87797 0.686459 0)
(2.05756 0.585577 0)
(2.20234 0.466829 0)
(2.37809 0.240954 0)
(2.4954 0.0438242 0)
(2.52525 0.00439534 0)
(2.57507 -0.114048 0)
(2.61988 -0.264414 0)
(2.66427 -0.288606 0)
(2.65889 -0.289514 0)
(2.64518 -0.281174 0)
(2.62536 -0.256594 0)
(2.59581 -0.187863 0)
(2.63841 -0.143619 0)
(1.40858 0.309463 0)
(0.961636 0.299908 0)
(0.872315 0.280098 0)
(0.78215 0.276858 0)
(0.691026 0.287072 0)
(0.598149 0.30164 0)
(0.508046 0.353241 0)
(0.359262 0.460775 0)
(0.217791 0.676061 0)
(1.57093 0.802302 0)
(1.77444 0.73282 0)
(1.94067 0.659865 0)
(2.12555 0.526845 0)
(2.27713 0.347429 0)
(2.34519 0.289664 0)
(2.39699 0.235145 0)
(2.50135 0.0802783 0)
(2.55518 -0.0702174 0)
(2.58868 -0.0877396 0)
(2.58857 -0.110119 0)
(2.63178 -0.17853 0)
(2.65598 -0.199628 0)
(2.65601 -0.198321 0)
(2.66471 -0.204375 0)
(1.90927 0.2557 0)
(1.04642 0.370884 0)
(0.937726 0.366378 0)
(0.864201 0.365564 0)
(0.790186 0.381919 0)
(0.713287 0.394494 0)
(0.650739 0.468704 0)
(0.595891 0.63017 0)
(0.714326 0.903665 0)
(1.58229 0.789275 0)
(1.74721 0.743647 0)
(1.90708 0.677397 0)
(2.0379 0.599533 0)
(2.17127 0.475824 0)
(2.27466 0.378198 0)
(2.35318 0.303865 0)
(2.44009 0.177138 0)
(2.49359 0.0717926 0)
(2.52309 0.0524042 0)
(2.55273 -0.0104595 0)
(2.61317 -0.151017 0)
(2.64931 -0.204759 0)
(2.67323 -0.203448 0)
(2.66479 -0.213342 0)
(2.57106 -0.0366443 0)
(1.25365 0.400153 0)
(1.02725 0.401019 0)
(0.961818 0.40378 0)
(0.905344 0.42434 0)
(0.851299 0.447658 0)
(0.818801 0.527237 0)
(0.84995 0.636125 0)
(1.0509 0.74485 0)
(1.58274 0.821619 0)
(1.71526 0.779986 0)
(1.82806 0.741903 0)
(1.96619 0.658815 0)
(2.09958 0.542969 0)
(2.17699 0.494468 0)
(2.24387 0.43641 0)
(2.34998 0.304797 0)
(2.42317 0.192028 0)
(2.46203 0.17341 0)
(2.5017 0.121061 0)
(2.55027 0.00774628 0)
(2.58309 -0.0410096 0)
(2.60669 -0.0428189 0)
(2.62955 -0.111487 0)
(2.6496 -0.122223 0)
(1.66478 0.388057 0)
(1.08685 0.480348 0)
(1.01141 0.476682 0)
(0.972192 0.496689 0)
(0.951749 0.523183 0)
(0.955778 0.584243 0)
(1.03433 0.659633 0)
(1.24917 0.72419 0)
(1.61406 0.822538 0)
(1.71243 0.794253 0)
(1.81075 0.75143 0)
(1.94056 0.670734 0)
(2.04734 0.600597 0)
(2.11355 0.568427 0)
(2.20441 0.482614 0)
(2.30314 0.351863 0)
(2.36327 0.296314 0)
(2.39166 0.29251 0)
(2.45319 0.218243 0)
(2.51752 0.0875412 0)
(2.55722 0.0192144 0)
(2.57555 0.0296407 0)
(2.6131 -0.0456621 0)
(2.63718 -0.116959 0)
(2.40477 0.157086 0)
(1.27675 0.527326 0)
(1.11262 0.514102 0)
(1.0709 0.518411 0)
(1.05763 0.538239 0)
(1.07583 0.574935 0)
(1.1546 0.618381 0)
(1.33329 0.655508 0)
(1.62994 0.869254 0)
(1.70935 0.838238 0)
(1.80426 0.784834 0)
(1.91204 0.707505 0)
(1.98843 0.669108 0)
(2.05034 0.638957 0)
(2.14785 0.557794 0)
(2.24191 0.442982 0)
(2.30201 0.396294 0)
(2.33443 0.380326 0)
(2.40194 0.301033 0)
(2.45569 0.191101 0)
(2.49044 0.165754 0)
(2.50822 0.161957 0)
(2.56443 0.0716758 0)
(2.59596 -0.0183906 0)
(2.6038 0.00187051 0)
(1.73083 0.51996 0)
(1.21123 0.605254 0)
(1.15938 0.598102 0)
(1.15047 0.599638 0)
(1.17356 0.613954 0)
(1.24618 0.633783 0)
(1.38837 0.641606 0)
(1.66241 0.898549 0)
(1.73814 0.860127 0)
(1.82977 0.798474 0)
(1.90674 0.742317 0)
(1.95962 0.723641 0)
(2.03127 0.677763 0)
(2.1391 0.575383 0)
(2.21399 0.489037 0)
(2.25184 0.485774 0)
(2.28235 0.464222 0)
(2.36447 0.370556 0)
(2.42557 0.251586 0)
(2.46854 0.217733 0)
(2.48374 0.225934 0)
(2.52061 0.164517 0)
(2.55789 0.064801 0)
(2.59111 0.0361694 0)
(2.42177 0.282279 0)
(1.4211 0.653581 0)
(1.2904 0.624371 0)
(1.27959 0.605785 0)
(1.29118 0.606133 0)
(1.34142 0.612019 0)
(1.44113 0.608187 0)
(1.70493 0.928556 0)
(1.75569 0.900374 0)
(1.83508 0.848387 0)
(1.89751 0.808052 0)
(1.9639 0.766099 0)
(2.04136 0.703745 0)
(2.10997 0.629937 0)
(2.16102 0.583535 0)
(2.20305 0.571335 0)
(2.26387 0.517296 0)
(2.34224 0.410608 0)
(2.37983 0.329726 0)
(2.40689 0.336012 0)
(2.42533 0.328245 0)
(2.49096 0.235866 0)
(2.51912 0.151786 0)
(2.56237 0.103111 0)
(2.56455 0.133872 0)
(1.89212 0.573484 0)
(1.37544 0.69444 0)
(1.36584 0.681479 0)
(1.38002 0.672796 0)
(1.41344 0.662581 0)
(1.48143 0.64197 0)
(1.9099 0.914809 0)
(1.77204 0.926477 0)
(1.82759 0.896047 0)
(1.90872 0.840812 0)
(1.96994 0.804725 0)
(2.02294 0.764542 0)
(2.09424 0.688287 0)
(2.15579 0.623393 0)
(2.19931 0.603343 0)
(2.24057 0.571585 0)
(2.30384 0.490075 0)
(2.3541 0.399912 0)
(2.3916 0.380937 0)
(2.41039 0.374381 0)
(2.46053 0.300233 0)
(2.48875 0.225116 0)
(2.52387 0.196796 0)
(2.56241 0.161861 0)
(2.42885 0.326197 0)
(1.65445 0.701802 0)
(1.44946 0.713177 0)
(1.47179 0.693592 0)
(1.49623 0.67612 0)
(1.54689 0.645533 0)
(2.4593 0.620695 0)
(1.9094 0.926657 0)
(1.84572 0.928998 0)
(1.89585 0.892145 0)
(1.95991 0.849963 0)
(2.03418 0.785511 0)
(2.09658 0.716482 0)
(2.12942 0.695031 0)
(2.16445 0.68158 0)
(2.2358 0.614029 0)
(2.30421 0.507852 0)
(2.33429 0.457495 0)
(2.35213 0.474202 0)
(2.37819 0.454311 0)
(2.44508 0.357934 0)
(2.4729 0.270659 0)
(2.49847 0.269347 0)
(2.54615 0.227814 0)
(2.5399 0.238533 0)
(2.13135 0.55367 0)
(1.57286 0.741938 0)
(1.55316 0.729471 0)
(1.58023 0.701992 0)
(1.61878 0.674822 0)
(2.9322 0.13964 0)
(2.37145 0.694374 0)
(1.93093 0.925477 0)
(1.91276 0.928896 0)
(1.95961 0.88864 0)
(2.03053 0.8282 0)
(2.07392 0.784944 0)
(2.12407 0.74044 0)
(2.18527 0.687671 0)
(2.22771 0.647872 0)
(2.26249 0.593318 0)
(2.30584 0.535744 0)
(2.34318 0.515637 0)
(2.37876 0.484632 0)
(2.42708 0.404659 0)
(2.44831 0.339471 0)
(2.46736 0.352234 0)
(2.51295 0.322395 0)
(2.54556 0.245177 0)
(2.47531 0.325144 0)
(1.89996 0.671978 0)
(1.60674 0.77038 0)
(1.62269 0.754219 0)
(1.67021 0.721425 0)
(2.99801 0.00769965 0)
(2.87332 0.220632 0)
(2.31696 0.7319 0)
(1.98252 0.923902 0)
(1.97147 0.924863 0)
(2.01298 0.885913 0)
(2.08017 0.819571 0)
(2.13271 0.76919 0)
(2.16123 0.758495 0)
(2.20589 0.711492 0)
(2.26457 0.620258 0)
(2.30133 0.56985 0)
(2.32528 0.577867 0)
(2.34966 0.557481 0)
(2.40545 0.473153 0)
(2.43837 0.386456 0)
(2.46472 0.388411 0)
(2.49263 0.382437 0)
(2.52822 0.304489 0)
(2.52343 0.300789 0)
(2.32262 0.486634 0)
(1.82809 0.775754 0)
(1.67396 0.78464 0)
(1.70801 0.76117 0)
(2.99997 7.72736e-05 0)
(2.99495 0.015147 0)
(2.81304 0.285568 0)
(2.31522 0.748413 0)
(2.03104 0.917077 0)
(2.02033 0.918478 0)
(2.05899 0.882018 0)
(2.12084 0.82508 0)
(2.17015 0.781377 0)
(2.20818 0.740311 0)
(2.24877 0.680184 0)
(2.28415 0.639916 0)
(2.31214 0.630961 0)
(2.35224 0.586761 0)
(2.39919 0.501854 0)
(2.41989 0.450001 0)
(2.44128 0.46305 0)
(2.46199 0.454143 0)
(2.51793 0.358908 0)
(2.53274 0.30408 0)
(2.50489 0.343809 0)
(2.19009 0.620445 0)
(1.79868 0.799938 0)
(1.77236 0.795217 0)
(3 1.40745e-07 0)
(2.99991 0.000243309 0)
(2.99043 0.0231485 0)
(2.78145 0.322533 0)
(2.3295 0.749385 0)
(2.07174 0.910328 0)
(2.06311 0.91276 0)
(2.10363 0.875739 0)
(2.15025 0.838325 0)
(2.2014 0.788731 0)
(2.25674 0.706449 0)
(2.28857 0.670048 0)
(2.30642 0.676589 0)
(2.33126 0.649221 0)
(2.37992 0.571338 0)
(2.41497 0.497004 0)
(2.44577 0.487671 0)
(2.45743 0.48929 0)
(2.48925 0.433203 0)
(2.52447 0.352603 0)
(2.53182 0.354943 0)
(2.44977 0.45076 0)
(2.06756 0.707186 0)
(1.83766 0.815813 0)
(3 8.18177e-11 0)
(3 5.82856e-07 0)
(2.99982 0.00049391 0)
(2.98676 0.0289397 0)
(2.76697 0.339283 0)
(2.34924 0.743189 0)
(2.11212 0.901703 0)
(2.10676 0.904631 0)
(2.13713 0.877611 0)
(2.19091 0.831141 0)
(2.24729 0.754721 0)
(2.2726 0.729815 0)
(2.29019 0.729097 0)
(2.33778 0.675585 0)
(2.38471 0.586692 0)
(2.40671 0.546071 0)
(2.41941 0.565754 0)
(2.43268 0.551687 0)
(2.48316 0.476284 0)
(2.51246 0.399366 0)
(2.54582 0.377354 0)
(2.53516 0.398639 0)
(2.37146 0.548881 0)
(2.04284 0.760668 0)
(3 7.67768e-15 0)
(3 4.85723e-10 0)
(3 1.43397e-06 0)
(2.99974 0.000723932 0)
(2.98433 0.0322025 0)
(2.76485 0.34046 0)
(2.37988 0.726747 0)
(2.15331 0.889261 0)
(2.14077 0.898261 0)
(2.16614 0.87563 0)
(2.22005 0.818342 0)
(2.26311 0.771611 0)
(2.29108 0.758656 0)
(2.33459 0.711994 0)
(2.3728 0.63729 0)
(2.39582 0.60003 0)
(2.41309 0.606419 0)
(2.43081 0.586483 0)
(2.4748 0.514454 0)
(2.49395 0.454257 0)
(2.52253 0.447699 0)
(2.54719 0.421126 0)
(2.52385 0.438806 0)
(2.31596 0.609126 0)
(3 -8.76604e-16 0)
(3 5.57171e-14 0)
(3 1.46998e-09 0)
(3 2.44174e-06 0)
(2.99968 0.000856449 0)
(2.98252 0.0340278 0)
(2.78999 0.315785 0)
(2.39372 0.71849 0)
(2.19462 0.876058 0)
(2.17987 0.885674 0)
(2.20059 0.864419 0)
(2.24323 0.820358 0)
(2.27594 0.79879 0)
(2.32986 0.743024 0)
(2.36862 0.664932 0)
(2.38719 0.645004 0)
(2.39583 0.660571 0)
(2.41893 0.633938 0)
(2.46699 0.558545 0)
(2.49063 0.492277 0)
(2.5152 0.484666 0)
(2.5481 0.481236 0)
(2.54111 0.438971 0)
(2.49834 0.474199 0)
(3 -6.04273e-16 0)
(3 -1.06467e-15 0)
(3 2.23331e-13 0)
(3 2.75822e-09 0)
(3 3.2916e-06 0)
(2.99965 0.000877205 0)
(2.98464 0.0313149 0)
(2.80211 0.293004 0)
(2.42958 0.689864 0)
(2.24528 0.847173 0)
(2.21358 0.876352 0)
(2.21963 0.866582 0)
(2.25151 0.835882 0)
(2.30551 0.783975 0)
(2.34777 0.71022 0)
(2.36574 0.701078 0)
(2.37797 0.707271 0)
(2.42268 0.661625 0)
(2.46895 0.577706 0)
(2.48765 0.527901 0)
(2.49988 0.545519 0)
(2.51954 0.54217 0)
(2.55077 0.470764 0)
(2.54138 0.461345 0)
(3 5.87824e-16 0)
(3 2.35117e-16 0)
(3 4.89549e-16 0)
(3 5.29002e-13 0)
(3 3.68332e-09 0)
(3 3.79375e-06 0)
(2.9997 0.000716704 0)
(2.98566 0.0285813 0)
(2.82397 0.26023 0)
(2.5219 0.620574 0)
(2.24242 0.86502 0)
(2.22497 0.880083 0)
(2.23438 0.866302 0)
(2.27085 0.8278 0)
(2.32544 0.760762 0)
(2.35822 0.731745 0)
(2.38061 0.729319 0)
(2.42435 0.685859 0)
(2.45528 0.614648 0)
(2.46894 0.579454 0)
(2.4786 0.597899 0)
(2.48727 0.59458 0)
(2.54144 0.51732 0)
(2.56152 0.463736 0)
(3 9.79603e-16 0)
(3 6.54378e-16 0)
(3 4.67497e-16 0)
(3 2.71291e-16 0)
(3 8.11785e-13 0)
(3 3.90414e-09 0)
(3 3.30025e-06 0)
(2.99976 0.00055593 0)
(2.98803 0.0244437 0)
(2.88155 0.203674 0)
(2.52286 0.609835 0)
(2.28578 0.847314 0)
(2.26209 0.854557 0)
(2.2662 0.845294 0)
(2.29966 0.811292 0)