/*--------------------------------*- C++ -*----------------------------------*\
  =========                 |
  \\      /  F ield         | OpenFOAM: The Open Source CFD Toolbox
   \\    /   O peration     | Website:  https://openfoam.org
    \\  /    A nd           | Version:  7
     \\/     M anipulation  |
\*---------------------------------------------------------------------------*/
FoamFile
{
    version     2.0;
    format      ascii;
    class       volScalarField;
    location    "2.9";
    object      p;
}
// * * * * * * * * * * * * * * * * * * * * * * * * * * * * * * * * * * * * * //

dimensions      [1 -1 -2 0 0 0 0];

internalField   nonuniform List<scalar> 
4080
(
1
1
1
1
1
1
1
1
1
1
1
1
1
1
1
1
1
1.87959
8.6458
10.803
11.0696
11.4026
11.658
11.872
1
1
1
1
1
1
1
1
1
1
1
1
1
1
1
1
1
1.75093
8.33049
10.7159
10.9816
11.2824
11.4967
11.5912
1
1
1
1
1
1
1
1
1
1
1
1
1
1
1
1
1
1.44479
7.72313
10.5798
10.7871
10.9969
11.0853
11.208
1
1
1
1
1
1
1
1
1
1
1
1
1
1
1
1
1
1.04927
6.72541
10.3263
10.4804
10.6587
10.6999
10.965
1
1
1
1
1
1
1
1
1
1
1
1
1
1
1
1
1
1.00054
5.29914
9.77722
9.99408
10.0314
9.46188
7.87164
1
1
1
1
1
1
1
1
1
1
1
1
1
1
1
1
1
0.999993
3.6062
9.05636
9.62252
9.36456
8.6979
7.11356
1
1
1
1
1
1
1
1
1
1
1
1
1
1
1
1
1
0.999998
1.94062
7.88836
9.34171
8.87836
8.19897
6.60539
1
1
1
1
1
1
1
1
1
1
1
1
1
1
1
1
1
1
1.09519
5.93327
8.8016
8.32149
7.71053
6.37197
1
1
1
1
1
1
1
1
1
1
1
1
1
1
1
1
1
1
1.00046
3.311
7.86746
8.10809
7.40591
6.35135
1
1
1
1
1
1
1
1
1
1
1
1
1
1
1
1
1
1
0.999995
1.37169
6.16334
8.04625
7.27072
6.35952
1
1
1
1
1
1
1
1
1
1
1
1
1
1
1
1
1
1
0.999999
1.01163
3.49435
7.37725
7.10338
6.31245
1
1
1
1
1
1
1
1
1
1
1
1
1
1
1
1
1
1
1
1.00002
1.42611
5.56579
7.1655
6.35708
1
1
1
1
1
1
1
1
1
1
1
1
1
1
1
1
1
1
1
1
1.0149
2.71593
6.30979
6.36764
1
1
1
1
1
1
1
1
1
1
1
1
1
1
1
1
1
1
1
1
1.00009
1.21814
4.22903
6.31943
1
1
1
1
1
1
1
1
1
1
1
1
1
1
1
1
1
1
1
1
1
1.00497
1.79666
4.97074
1
1
1
1
1
1
1
1
1
1
1
1
1
1
1
1
1
1
1
1
1
1.00003
1.05183
2.5087
1
1
1
1
1
1
1
1
1
1
1
1
1
1
1
1
1
1
1
1
1
1
1.00072
1.17781
1
1
1
1
1
1
1
1
1
1
1
1
1
1
1
1
1
1
1
1
1
1
1
1.00467
1
1
1
1
1
1
1
1
1
1
1
1
1
1
1
1
1
1
1
1
1
1
1
1.00003
1
1
1
1
1
1
1
1
1
1
1
1
1
1
1
1
1
1
1
1
1
1
1
1
1
1
1
1
1
1
1
1
1
1
1
1
1
1
1
1
1
1
1
1
1
1
1
1
1
1
1
1
1
1
1
1
1
1
1
1
1
1
1
1
1
1
1
1
1
1
1
1
1
1
1
1
1
1
1
1
1
1
1
1
1
1
1
1
1
1
1
1
1
1
1
1
1
1
1
1
1
1
1
1
1
1
1
1
1
1
1
1
1
1
1
1
1
1
1
1
1
1
1
1
1
1
1
1
1
1
1
1
1
1
1
1
1
1
1
1
1
1
1
1
1
1
1
1
1
1
1
1
1
1
1
1
1
1
1
1
1
1
1
1
1
1
1
1
1
1
1
1
1
1
1
1
1
1
1
1
1
1
1
1
1
1
1
1
1
1
1
1
1
1
1
1
1
1
1
1
1
1
1
1
1
1
1
1
1
1
1
1
1
1
1
1
1
1
1
1
1
1
1
1
1
1
1
1
1
1
1
1
1
1
1
1
1
1
1
1
1
1
1
1
1
1
1
1
1
1
1
1
1
1
1
1
1
1
1
1
1
1
1
1
1
1
1
1
1
1
1
1
1
1
1
1
1
1
1
1
1
1
1
1
1
1
1
1
1
1
1
1
1
1
1
1
1
1
1
1
1
1
1
1
1
1
1
1
1
1
1
1
1
1
1
1
1
1
1
1
1
1
1
1
1
1
1
1
1
1
1
1
1
1
1
1
1
1
1
1
1
1
1
1
1
1
1
1
1
1
1
1
1
1
1
1
1
1
1
1
1
1
1
1
1
1
1
1
1
1
1
1
1
1
1
1
1
1
1
1
1
1
1
1
1
1
1
1
1
1
1
1
1
1
1
1
1
1
1
1
1
1
1
1
1
1
1
1
1
1
1
1
1
1
1
1
1
1
1
1
1
1
1
1
1
1
1
1
1
1
1
1
1
1
1
1
1
1
1
1
1
1
1
1
1
1
1
1
1
1
1
1
1
1
1
1
1
1
1
1
1
1
1
1
1
1
1
1
1
1
1
1
1
1
1
1
1
1
1
1
1
1
1
1
1
1
1
1
1
1
1
1
1
1
1
1
1
1
1
1
1
1
1
1
2.10651
0.606832
1.56215
3.35859
4.01165
4.34708
4.51301
4.58638
4.61143
4.63568
4.64932
4.67013
3.32786
1.68258
2.46154
4.12526
4.39377
4.47998
4.55726
4.60926
4.627
4.65415
4.66702
4.68477
4.27156
2.59494
2.4856
3.68311
4.2839
4.33658
4.46759
4.56319
4.60382
4.6454
4.64575
4.68273
4.83774
3.40783
2.73791
3.31595
4.24706
4.48744
4.66073
4.70195
4.67821
4.67098
4.66208
4.81175
5.20266
4.05309
3.07307
3.15483
3.86121
4.48182
4.70141
4.63691
4.60203
4.5606
4.42522
3.79954
5.41001
4.45138
3.48358
3.17571
3.51292
4.23919
4.70745
4.63666
4.63536
4.57158
4.41353
3.91333
5.51886
4.73433
3.88891
3.29252
3.35828
3.9245
4.60833
4.66557
4.63349
4.57088
4.39485
4.01361
5.65275
4.97951
4.23698
3.5494
3.37903
3.59357
4.36537
4.62975
4.62457
4.5844
4.43033
4.14642
5.7795
5.15035
4.52534
3.84427
3.43645
3.49042
3.99537
4.51642
4.6227
4.604
4.47289
4.25121
5.95714
5.34066
4.78199
4.14832
3.61404
3.49249
3.68425
4.29869
4.57311
4.60771
4.51434
4.34269
5.94483
5.54093
4.9718
4.42029
3.82936
3.51719
3.5855
3.95624
4.41834
4.60416
4.54745
4.41486
5.13933
5.64006
5.21277
4.67425
4.11069
3.64444
3.56225
3.72851
4.22419
4.55
4.57213
4.47737
3.13106
5.13342
5.35541
4.95026
4.4245
3.86134
3.598
3.643
3.919
4.38583
4.55648
4.51522
1.38195
3.51095
5.02449
5.12464
4.73288
4.17807
3.70958
3.61759
3.73448
4.13847
4.4767
4.5384
1.01648
1.58726
3.68627
4.87292
4.91607
4.53601
3.96659
3.65685
3.67392
3.85139
4.28899
4.50949
1.00017
1.03557
1.74259
3.73847
4.71095
4.73616
4.34594
3.82602
3.67525
3.7534
4.03908
4.37607
1
1.0005
1.0558
1.83993
3.70873
4.55356
4.56791
4.1771
3.78263
3.71383
3.82941
4.17976
1
1
1.00096
1.07239
1.87895
3.61713
4.40734
4.3949
4.0612
3.77401
3.77615
3.93054
1
1
1
1.00144
1.08147
1.86427
3.48969
4.2476
4.23534
3.98271
3.80195
3.84796
1
1
1
1.00001
1.00175
1.08172
1.80937
3.32058
4.09146
4.09318
3.93559
3.8441
1
1
1
1
1.00001
1.00181
1.0747
1.71789
3.15011
3.92641
3.97465
3.90201
1
1
1
1
1
1.00001
1.00156
1.06401
1.61296
2.92701
3.80477
3.86686
1
1
1
1
1
1
1.00001
1.00136
1.04807
1.5022
2.74304
3.60992
1
1
1
1
1
1
1
1.00001
1.00088
1.03676
1.38707
2.50433
1
1
1
1
1
1
1
1
1
1.00065
1.02255
1.30407
1
1
1
1
1
1
1
1
1
1
1.00032
1.01506
1
1
1
1
1
1
1
1
1
1
1
1.00017
1
1
1
1
1
1
1
1
1
1
1
1
1
1
1
1
1
1
1
1
1
1
1
1
1
1
1
1
1
1
1
1
1
1
1
1
1
1
1
1
1
1
1
1
1
1
1
1
1
1
1
1
1
1
1
1
1
1
1
1
1
1
1
1
1
1
1
1
1
1
1
1
1
1
1
1
1
1
1
1
1
1
1
1
1
1
1
1
1
1
1
1
1
1
1
1
1
1
1
1
1
1
1
1
1
1
1
1
1.58612
1.11254
1.11536
1.18359
1.30544
1.40302
1.43618
1.4379
1.42887
1.41751
1.39662
1.37046
1.34214
1.3243
1.31726
1.3169
1.32666
1.33578
1.3381
1.33339
1.32471
1.31282
1.29889
1.28978
1.28503
1.28388
1.28868
1.29091
1.28797
1.28377
1.27805
1.26907
1.25956
1.25334
1.24971
1.24908
1.25181
1.25102
1.24678
1.24178
1.23467
1.22342
1.2123
1.20627
1.20399
1.20362
1.72197
4.0258
4.68039
4.72905
4.74533
4.73313
4.72888
4.74735
4.75574
4.73615
4.69925
4.65907
4.61657
4.56272
4.49057
4.41309
4.34779
4.30236
4.28001
4.27961
4.29591
4.29227
4.20494
4.07295
3.91821
3.78506
3.69944
3.64824
3.64324
3.65488
3.6668
3.67289
3.64499
3.57766
3.47272
3.31201
3.18025
3.08431
2.47252
1.8304
1.54625
1.40094
1.32123
1.31839
1.34398
1.3626
1.36418
1.36622
1.36105
1.35992
1.3512
1.34364
1.33852
1.33617
1.33559
1.32889
1.32194
1.31767
1.31325
1.30958
1.30643
1.3011
1.29443
1.28862
1.28342
1.27947
1.27905
1.27951
1.27727
1.27408
1.26973
1.26193
1.2518
1.24319
1.23832
1.23589
1.23805
1.23945
1.23678
1.23326
1.22793
1.21851
1.20705
1.19446
1.64197
3.93486
4.7904
4.85844
4.84267
4.78265
4.71754
4.68462
4.65973
4.63501
4.61457
4.60312
4.59885
4.59698
4.57605
4.50507
4.40098
4.29574
4.20068
4.12709
4.09966
4.10719
4.10742
4.07527
4.0104
3.9312
3.83794
3.74724
3.67054
3.60935
3.56162
3.52936
3.4985
3.4617
3.41995
3.36887
3.30999
3.19024
2.99627
2.20066
1.78984
1.48605
1.28664
1.26225
1.28378
1.32344
1.37513
1.39224
1.39672
1.38969
1.36926
1.35848
1.35585
1.35247
1.3451
1.33359
1.31832
1.30772
1.30386
1.30285
1.30465
1.30904
1.30832
1.30492
1.29788
1.28443
1.27077
1.26635
1.26485
1.26509
1.26887
1.26972
1.26713
1.26121
1.25003
1.23673
1.22823
1.2246
1.22342
1.22539
1.22808
1.22702
1.22209
1.20659
1.41846
3.72957
4.92329
4.89
4.84995
4.8171
4.77554
4.74073
4.68417
4.62811
4.59033
4.55685
4.53223
4.53157
4.54631
4.5568
4.53023
4.45161
4.34434
4.20846
4.06129
3.95989
3.91504
3.92485
3.94803
3.95708
3.94869
3.91162
3.83439
3.71206
3.55335
3.41272
3.33065
3.28871
3.28145
3.31144
3.34138
3.28652
3.47421
2.66736
2.18658
1.85422
1.52632
1.41645
1.35525
1.32276
1.30438
1.30505
1.32471
1.34101
1.34932
1.36759
1.3689
1.36007
1.34444
1.32797
1.31218
1.30446
1.30266
1.30141
1.30216
1.30414
1.30433
1.30212
1.29685
1.28566
1.27239
1.26792
1.26637
1.2652
1.26426
1.26378
1.2629
1.2589
1.24955
1.23885
1.2323
1.22945
1.22689
1.22388
1.22172
1.21803
1.21266
1.218
1.33749
3.26825
5.22696
5.18821
4.92947
4.78871
4.71539
4.68428
4.64677
4.62255
4.62875
4.59752
4.52767
4.47224
4.44161
4.43349
4.43531
4.39741
4.3311
4.25139
4.14105
4.01413
3.9302
3.89858
3.89278
3.89408
3.89075
3.86887
3.82019
3.74265
3.62932
3.48541
3.35941
3.29678
3.27494
3.28379
3.31608
3.27638
3.78499
3.13768
2.56523
2.18473
1.83628
1.59498
1.47309
1.35652
1.26737
1.26079
1.27653
1.29449
1.31837
1.35244
1.38186
1.38323
1.37732
1.35982
1.32644
1.30276
1.29409
1.29263
1.29572
1.30422
1.31063
1.31037
1.30231
1.28649
1.27219
1.26606
1.264
1.26269
1.26198
1.26262
1.26292
1.25858
1.24643
1.23637
1.23323
1.2326
1.23116
1.2283
1.22373
1.21793
1.22508
1.3073
1.68472
2.72294
4.62135
5.26306
5.14378
4.9595
4.7775
4.63667
4.55491
4.55024
4.57959
4.57447
4.53011
4.46798
4.42852
4.39071
4.34818
4.30958
4.26655
4.21751
4.15738
4.08594
4.00723
3.93643
3.89285
3.85662
3.81699
3.77142
3.71976
3.66031
3.59385
3.51987
3.43463
3.35976
3.32471
3.30891
3.29798
3.24041
3.99401
3.48327
2.96356
2.54531
2.15687
1.85336
1.69424
1.54796
1.37721
1.34343
1.31672
1.28383
1.28434
1.29952
1.32146
1.33173
1.33551
1.34572
1.34375
1.33359
1.32538
1.31765
1.30969
1.30562
1.30364
1.29897
1.28699
1.27486
1.26932
1.26857
1.26939
1.26988
1.26737
1.26523
1.26288
1.25459
1.24055
1.23372
1.23138
1.22976
1.22854
1.22555
1.22156
1.22927
1.31349
1.74533
2.53443
2.81079
3.39117
4.22496
4.63864
4.81692
4.78769
4.72566
4.65593
4.59645
4.55959
4.514
4.47313
4.39948
4.32035
4.28325
4.25566
4.2303
4.22085
4.20605
4.17472
4.1339
4.06367
3.95105
3.83089
3.76295
3.7202
3.68261
3.65238
3.62585
3.59668
3.56641
3.52478
3.45394
3.35084
3.26645
3.22434
3.15181
4.16009
3.75526
3.28056
2.87393
2.49694
2.15431
1.93611
1.74834
1.54447
1.4514
1.39334
1.32437
1.27617
1.27446
1.28276
1.29051
1.29224
1.30959
1.33194
1.33693
1.34503
1.34543
1.33787
1.32282
1.30393
1.28645
1.27045
1.26349
1.26321
1.26689
1.27507
1.2799
1.27784
1.27215
1.26249
1.24601
1.23291
1.22978
1.2286
1.22809
1.22804
1.22833
1.23547
1.29632
1.77168
2.54453
3.01995
3.01208
3.03397
3.2114
3.63369
4.13083
4.41203
4.49401
4.5641
4.61649
4.6171
4.56563
4.49249
4.39127
4.26099
4.17523
4.14566
4.13562
4.15898
4.18664
4.17041
4.12692
4.06815
3.97354
3.83227
3.70912
3.65301
3.62307
3.606
3.60909
3.60581
3.58241
3.54843
3.49334
3.38446
3.23546
3.1374
3.06215
4.27911
3.94816
3.55606
3.17928
2.78114
2.42959
2.19817
2.00494
1.76633
1.61455
1.53325
1.44114
1.34033
1.31672
1.31323
1.28483
1.27281
1.28026
1.29974
1.30993
1.31658
1.32589
1.33557
1.33246
1.31931
1.29938
1.28371
1.27604
1.2694
1.26878
1.27251
1.27401
1.27038
1.26195
1.25111
1.24055
1.23629
1.23456
1.23386
1.23089
1.23059
1.24074
1.30647
1.69581
2.64139
3.01793
3.08357
3.05265
3.04285
3.01807
3.02569
3.20601
3.56306
3.92157
4.20901
4.37117
4.47055
4.54816
4.50795
4.41964
4.29715
4.15829
4.07994
4.05419
4.05778
4.08552
4.09532
4.06847
4.0281
3.96786
3.87419
3.75287
3.65025
3.60216
3.57768
3.57263
3.56481
3.53749
3.50355
3.45671
3.38024
3.25682
3.12813
3.04063
4.36862
4.11285
3.76297
3.41587
3.06601
2.71009
2.44168
2.2305
1.99009
1.8125
1.70841
1.59859
1.43444
1.37484
1.35381
1.30822
1.27104
1.2706
1.28086
1.2914
1.29414
1.2986
1.30938
1.31243
1.30959
1.30929
1.30635
1.30002
1.29014
1.27907
1.27286
1.26721
1.25855
1.24764
1.24214
1.24131
1.24169
1.24471
1.2439
1.23935
1.24476
1.33564
1.73111
2.59817
3.11402
3.10694
3.08938
3.05475
3.04616
3.00063
2.94456
2.87993
2.88238
3.03795
3.39629
3.80156
4.10256
4.29171
4.34094
4.36082
4.31877
4.22333
4.11612
4.02963
3.99423
3.97829
3.96436
3.96423
3.95323
3.92259
3.87994
3.81772
3.72873
3.62442
3.55606
3.52151
3.48938
3.45661
3.42265
3.3844
3.33773
3.27343
3.18877
3.07633
4.43752
4.23394
3.9428
3.63325
3.29677
2.94757
2.6891
2.46155
2.21279
2.00181
1.88672
1.76034
1.60631
1.49413
1.4491
1.38882
1.31479
1.29509
1.30005
1.28871
1.27904
1.27833
1.28048
1.28607
1.28906
1.29431
1.30583
1.31057
1.30661
1.2954
1.28104
1.26781
1.25431
1.24202
1.23986
1.24015
1.24335
1.24754
1.24618
1.25253
1.33572
1.88945
2.61297
3.16769
3.1872
3.10181
3.0612
3.03944
2.99573
2.95445
2.90847
2.85078
2.79421
2.72616
2.75546
2.97116
3.31414
3.68526
3.93938
4.09825
4.18125
4.21341
4.16834
4.08094
3.9966
3.905
3.86612
3.8518
3.84149
3.84734
3.85003
3.82189
3.77075
3.68917
3.57677
3.48304
3.42881
3.3868
3.34973
3.31752
3.28844
3.26049
3.23023
3.14066
4.49345
4.34365
4.09312
3.81199
3.51356
3.17791
2.90289
2.6852
2.42201
2.20338
2.07183
1.94356
1.75949
1.63255
1.57421
1.50454
1.40106
1.33482
1.32498
1.29391
1.26307
1.25952
1.26431
1.269
1.27475
1.28179
1.29461
1.30377
1.30308
1.29878
1.29102
1.27942
1.26508
1.25008
1.24365
1.242
1.24328
1.24401
1.2533
1.33871
1.87975
2.84469
3.19982
3.21718
3.17366
3.08757
3.02574
2.97793
2.94059
2.90227
2.85795
2.83287
2.78883
2.72694
2.65442
2.59102
2.63327
2.81037
3.11542
3.47224
3.78825
3.96631
4.06138
4.06954
4.0183
3.90862
3.81461
3.77267
3.74837
3.75122
3.77446
3.76961
3.74433
3.69947
3.60578
3.47063
3.38393
3.34054
3.30838
3.28266
3.26234
3.24348
3.2225
3.15343
4.50242
4.42393
4.23361
3.97687
3.70041
3.39366
3.11117
2.88481
2.64268
2.40048
2.24555
2.10988
1.94186
1.78886
1.70801
1.6252
1.50319
1.42032
1.39776
1.35923
1.30175
1.26833
1.27219
1.26813
1.26166
1.2622
1.27172
1.28038
1.28265
1.28355
1.28527
1.28534
1.28089
1.27018
1.26011
1.25076
1.24446
1.25252
1.36956
1.85329
2.87552
3.28829
3.31819
3.26415
3.20365
3.09945
3.00194
2.93387
2.87713
2.83636
2.80696
2.8103
2.79758
2.72692
2.65028
2.55235
2.4744
2.44337
2.48091
2.65864
2.99104
3.36219
3.69226
3.81083
3.8783
3.88136
3.8072
3.72605
3.68737
3.67887
3.69237
3.68663
3.66848
3.64482
3.58866
3.46703
3.35218
3.30784
3.28173
3.26126
3.2438
3.22192
3.19915
3.13127
4.44112
4.4701
4.34284
4.12665
3.87045
3.57451
3.30961
3.08655
2.83247
2.58502
2.43159
2.28834
2.09053
1.93181
1.85378
1.76368
1.63687
1.51688
1.48261
1.43798
1.36788
1.30807
1.29927
1.28499
1.25479
1.24542
1.25123
1.25785
1.26124
1.26497
1.27279
1.28157
1.28458
1.28219
1.27505
1.26176
1.26462
1.38998
1.99367
2.79906
3.35548
3.35464
3.30513
3.26942
3.20181
3.09043
2.97905
2.90588
2.85629
2.81667
2.79008
2.78403
2.74796
2.69225
2.63722
2.5658
2.46804
2.38148
2.35308
2.33828
2.40322
2.57779
2.86745
3.18095
3.46871
3.63049
3.6367
3.66704
3.65029
3.6203
3.62728
3.62195
3.59868
3.56952
3.5276
3.44678
3.33908
3.28552
3.25839
3.23505
3.21308
3.18833
3.16176
3.09237
4.27265
4.46473
4.43165
4.26059
4.03701
3.7768
3.48281
3.24958
3.03298
2.79087
2.59703
2.44699
2.2666
2.09236
1.9956
1.89985
1.76245
1.64103
1.59839
1.54458
1.45446
1.36367
1.35264
1.33569
1.29313
1.26098
1.25939
1.2604
1.25287
1.24962
1.25375
1.26242
1.26884
1.2703
1.2695
1.27842
1.39916
2.10814
2.98658
3.28279
3.29963
3.30879
3.28212
3.23428
3.17081
3.08783
2.98125
2.87486
2.81937
2.78556
2.75747
2.71887
2.67531
2.63613
2.59606
2.55249
2.49462
2.41957
2.33046
2.27606
2.25106
2.2423
2.28442
2.41769
2.6501
2.98154
3.22547
3.41003
3.47278
3.48855
3.52295
3.56214
3.54834
3.50908
3.46749
3.40626
3.32971
3.26293
3.22202
3.19323
3.16969
3.14546
3.11468
3.04253
4.05611
4.34317
4.43674
4.36006
4.17563
3.93623
3.68595
3.44987
3.19271
2.94672
2.7754
2.63291
2.43057
2.24046
2.14403
2.04847
1.90881
1.76366
1.70888
1.65022
1.56042
1.45908
1.42258
1.39533
1.34286
1.28488
1.27734
1.27419
1.2566
1.241
1.23956
1.24388
1.24764
1.25213
1.27079
1.42288
2.09958
3.1348
3.42672
3.4046
3.35308
3.28721
3.21165
3.16017
3.11374
3.0596
2.99202
2.89435
2.81356
2.74756
2.69066
2.64673
2.60724
2.56901
2.53744
2.52047
2.49331
2.44322
2.35991
2.26005
2.19426
2.17018
2.15461
2.14344
2.16956
2.27583
2.49299
2.77339
3.05001
3.20261
3.3161
3.39683
3.41677
3.43533
3.41461
3.36751
3.31962
3.25074
3.18013
3.13572
3.11174
3.0919
3.06534
2.99938
3.91327
4.16887
4.37998
4.40949
4.29365
4.09457
3.83747
3.61531
3.39595
3.15286
2.92721
2.77347
2.59636
2.40572
2.29136
2.19138
2.04447
1.9
1.83989
1.77278
1.66746
1.54129
1.50881
1.47961
1.42379
1.34979
1.32281
1.31099
1.28046
1.25055
1.24101
1.24277
1.24504
1.26561
1.46431
2.14707
3.19438
3.59625
3.55039
3.43221
3.2997
3.18933
3.1199
3.09858
3.08392
3.03705
2.98934
2.93164
2.84036
2.71373
2.62399
2.57901
2.54578
2.52011
2.50037
2.48031
2.4523
2.41368
2.3549
2.25901
2.17202
2.12693
2.1024
2.08198
2.07092
2.06037
2.07813
2.15173
2.32115
2.53698
2.78987
3.0022
3.14177
3.24741
3.30831
3.33478
3.31362
3.24402
3.14563
3.07704
3.04545
3.02782
3.00969
2.96004
3.87558
3.97858
4.23247
4.39833
4.38159
4.2375
4.01161
3.78714
3.55406
3.31304
3.12592
2.96571
2.75828
2.53453
2.4268
2.33659
2.19698
2.04045
1.96986
1.89736
1.79074
1.65631
1.6011
1.56453
1.50381
1.41964
1.39022
1.37079
1.33546
1.28253
1.24595
1.24455
1.26268
1.49772
2.27238
3.20248
3.64821
3.59002
3.462
3.33255
3.22554
3.15872
3.10064
3.08366
3.0743
3.01604
2.96203
2.90767
2.83674
2.73194
2.61392
2.54688
2.51082
2.47923
2.44801
2.41978
2.39162
2.35921
2.31943
2.25788
2.17123
2.10954
2.08375
2.05943
2.03308
2.00812
1.98494
1.96437
1.9517
1.98424
2.08256
2.3073
2.58767
2.82715
3.04176
3.18483
3.20417
3.19299
3.12761
3.03627
3.01095
2.98625
2.95828
2.91797
3.87299
3.93278
4.07547
4.29477
4.39876
4.34087
4.16131
3.94044
3.72986
3.48651
3.26865
3.12425
2.94269
2.72974
2.57488
2.46544
2.31177
2.16446
2.09881
2.03273
1.9204
1.76706
1.71168
1.66709
1.6017
1.49918
1.45148
1.43437
1.39328
1.34313
1.3014
1.31979
1.54609
2.44771
3.2511
3.64005
3.67677
3.55326
3.39425
3.27307
3.18065
3.12265
3.0656
3.02981
2.99605
2.93565
2.88253
2.83151
2.78284
2.72533
2.64459
2.55485
2.48676
2.43655
2.3924
2.35476
2.3213
2.29175
2.26801
2.23945
2.19007
2.1155
2.06762
2.03771
2.00996
1.97643
1.94594
1.91483
1.8912
1.85351
1.81976
1.84095
1.9455
2.1632
2.45031
2.7442
2.95696
3.052
3.04461
2.97358
2.91767
2.89534
2.9014
2.89916
3.73412
3.8459
3.99325
4.16673
4.34274
4.38628
4.29697
4.11561
3.89732
3.63373
3.44736
3.28914
3.09149
2.87502
2.74592
2.62607
2.4634
2.28058
2.20363
2.14173
2.03874
1.90559
1.83423
1.78057
1.70454
1.58835
1.53894
1.50755
1.46119
1.40433
1.43978
1.74155
2.62408
3.54696
3.73508
3.69823
3.57105
3.43537
3.34337
3.27184
3.19232
3.10501
3.02062
2.94389
2.88796
2.85036
2.80711
2.76161
2.73101
2.6971
2.64921
2.57128
2.46304
2.38224
2.34056
2.30514
2.27228
2.24964
2.22989
2.20611
2.17095
2.0962
2.01728
1.97794
1.94966
1.9319
1.91515
1.89028
1.86091
1.82687
1.77981
1.72757
1.72326
1.74842
1.84622
2.04216
2.31921
2.60248
2.81546
2.85897
2.82674
2.80484
2.80148
2.79217
3.30779
3.70333
3.96581
4.07224
4.20925
4.35455
4.37071
4.27012
4.0836
3.82088
3.59606
3.4235
3.24776
3.0427
2.89774
2.76968
2.60397
2.41947
2.34088
2.26788
2.14475
2.00126
1.94758
1.89505
1.81682
1.70839
1.62811
1.58588
1.54936
1.60688
2.09942
3.00498
3.86592
3.9306
3.79469
3.6432
3.49665
3.40276
3.35151
3.28788
3.20926
3.12113
3.01639
2.89289
2.80532
2.75781
2.71936
2.7011
2.67944
2.64171
2.60059
2.53703
2.42431
2.34261
2.30703
2.27354
2.24356
2.22235
2.1964
2.16233
2.11614
2.04213
1.96723
1.93645
1.91441
1.89876
1.88172
1.85826
1.82949
1.79674
1.75396
1.69586
1.65671
1.634
1.62674
1.64472
1.72766
1.91142
2.18842
2.40431
2.61544
2.68834
2.69996
2.73152
2.12308
3.05886
3.82744
3.95586
4.00926
4.23795
4.33281
4.30881
4.18835
3.98044
3.78143
3.60559
3.38636
3.1717
3.04599
2.9138
2.75081
2.56686
2.47384
2.38958
2.26807
2.12748
2.05793
1.99345
1.91104
1.80467
1.73314
1.70334
1.80491
2.46242
3.62008
4.2615
4.26135
4.0656
3.83059
3.64854
3.53897
3.46255
3.39232
3.31125
3.21849
3.11752
3.00155
2.87063
2.7589
2.70156
2.66764
2.64029
2.6005
2.55282
2.51271
2.47358
2.39034
2.29741
2.26303
2.2333
2.20917
2.18506
2.15516
2.11759
2.06776
1.99507
1.92076
1.89698
1.87966
1.86172
1.8527
1.83765
1.81355
1.78459
1.7397
1.66945
1.61963
1.59114
1.57313
1.56636
1.57066
1.59111
1.67453
1.80687
2.00874
2.22649
2.41101
2.59717
1.18436
1.76899
2.96646
3.71695
3.8897
4.13645
4.27663
4.29829
4.23904
4.10731
3.94453
3.78443
3.56345
3.34809
3.19076
3.03978
2.8686
2.70732
2.62538
2.53056
2.38919
2.25113
2.17592
2.10504
2.01121
1.88943
1.88215
2.10535
2.87965
4.20262
4.75748
4.63784
4.40063
4.1618
3.93531
3.7558
3.63908
3.54037
3.43955
3.33548
3.23135
3.12504
3.01077
2.88439
2.75891
2.68149
2.6315
2.58932
2.54545
2.49651
2.44596
2.39409
2.33406
2.26245
2.21022
2.16704
2.14296
2.13308
2.11192
2.07854
2.03318
1.97118
1.90809
1.86838
1.83602
1.81342
1.79802
1.78084
1.76232
1.73981
1.70215
1.64878
1.59988
1.56051
1.54176
1.53449
1.52685
1.51852
1.50646
1.50905
1.5407
1.65164
1.8178
2.16686
1.00691
1.09434
1.59932
2.79147
3.46566
3.92553
4.26757
4.34259
4.33354
4.20546
4.07073
3.9406
3.73066
3.53635
3.36623
3.2091
3.00656
2.83786
2.74504
2.64334
2.51331
2.39278
2.30307
2.22309
2.10004
2.11039
2.50939
3.60216
4.71685
5.12296
4.98575
4.72682
4.46949
4.28348
4.09862
3.90427
3.74745
3.61883
3.49464
3.36804
3.24541
3.13551
3.03367
2.92818
2.81526
2.71306
2.63698
2.57636
2.51869
2.4539
2.39212
2.33672
2.28229
2.2261
2.17089
2.11753
2.07935
2.06496
2.05271
2.02713
1.99138
1.94793
1.87808
1.82373
1.79015
1.77184
1.76151
1.74651
1.73034
1.71203
1.68018
1.63125
1.58053
1.53415
1.51391
1.50565
1.49479
1.48218
1.46304
1.44268
1.41412
1.40644
1.42692
1.63567
1.00006
1.00296
1.0547
1.52586
2.42728
3.26955
4.06523
4.27326
4.31876
4.26161
4.21351
4.1007
3.88075
3.66394
3.49968
3.3614
3.15132
3.00698
2.8942
2.7616
2.62813
2.47958
2.42172
2.34843
2.43427
3.06874
4.5166
5.37515
5.54432
5.3795
5.08983
4.82379
4.62075
4.45212
4.25869
4.04662
3.86195
3.70702
3.56056
3.41835
3.28925
3.17574
3.06992
2.96485
2.8559
2.74672
2.65499
2.57684
2.50289
2.43468
2.37456
2.31103
2.24193
2.18014
2.13118
2.08241
2.02872
2.00752
1.99643
1.97329
1.94084
1.9005
1.84434
1.78272
1.74579
1.72851
1.71709
1.709
1.69914
1.68227
1.66094
1.62393
1.56118
1.49988
1.47764
1.46974
1.46174
1.44759
1.42877
1.41065
1.39391
1.36104
1.31995
1.3537
1
1.00002
1.00145
1.04217
1.31573
1.94608
3.33069
3.97009
4.13314
4.24303
4.25732
4.16041
3.97978
3.80673
3.67109
3.49282
3.27105
3.15375
3.01345
2.89636
2.75326
2.61056
2.57041
2.85182
3.86398
5.44997
6.13157
5.94156
5.71234
5.44933
5.19027
4.96755
4.78265
4.59528
4.37706
4.14496
3.94015
3.77078
3.62106
3.4846
3.36351
3.25222
3.14133
3.02497
2.90019
2.77351
2.66558
2.57574
2.49975
2.44187
2.38495
2.31306
2.23869
2.1691
2.10666
2.04961
1.99491
1.96311
1.94594
1.92512
1.89727
1.86213
1.80844
1.73473
1.69904
1.68596
1.67528
1.67386
1.66678
1.64518
1.61481
1.57341
1.51357
1.4599
1.4417
1.43474
1.42946
1.41772
1.39965
1.38739
1.37662
1.34916
1.2971
1.27886
1
1
1.00001
1.00072
1.01701
1.12657
1.82925
3.13944
3.78145
4.18547
4.31959
4.27812
4.1726
4.00008
3.84584
3.62403
3.45008
3.3003
3.13963
3.01805
2.84984
2.88331
3.45798
5.04681
6.32699
6.81554
6.68376
6.28026
5.87122
5.54926
5.28648
5.0711
4.8794
4.68069
4.46155
4.2368
4.02985
3.8504
3.69501
3.55751
3.43228
3.31554
3.20135
3.08
2.9489
2.81724
2.70217
2.60794
2.52293
2.44999
2.39206
2.34334
2.28138
2.19198
2.08958
2.01474
1.96879
1.94022
1.91812
1.8949
1.86682
1.82862
1.76809
1.6938
1.66241
1.65055
1.63637
1.62722
1.61808
1.60035
1.57547
1.53889
1.48094
1.43049
1.41481
1.40937
1.40969
1.40067
1.38665
1.37539
1.36161
1.33265
1.28377
1.25477
1
1
1
1
1.00018
1.00449
1.08731
1.77322
2.76551
3.73179
4.26262
4.3048
4.22186
4.1207
3.99877
3.79136
3.60331
3.40536
3.28819
3.14927
3.29443
4.3323
6.25607
7.37132
7.29779
7.06229
6.69829
6.32809
5.98669
5.67755
5.39862
5.1592
4.94814
4.74234
4.52958
4.31529
4.1146
3.938
3.78579
3.65108
3.52237
3.38742
3.23857
3.08134
2.93231
2.81514
2.72886
2.65292
2.57258
2.49407
2.42944
2.36056
2.26537
2.15735
2.07229
2.00436
1.95893
1.92682
1.90016
1.87504
1.84921
1.8109
1.74818
1.67526
1.63288
1.60738
1.58671
1.57449
1.56651
1.55439
1.53403
1.49823
1.44636
1.40764
1.39214
1.38514
1.38115
1.37595
1.36765
1.35653
1.34003
1.30654
1.26407
1.24008
1
1
1
1
1
1.00004
1.00262
1.087
1.47138
2.36108
3.83978
4.15975
4.20088
4.17145
4.09632
3.89763
3.68179
3.53864
3.48018
3.93023
5.6651
7.49572
8.28845
8.19836
7.72338
7.15163
6.70989
6.36785
6.06642
5.7846
5.5179
5.26576
5.02693
4.80249
4.59149
4.38503
4.18049
3.99436
3.83553
3.69537
3.56234
3.4266
3.27699
3.11851
2.97805
2.86564
2.74739
2.65322
2.61086
2.56854
2.50159
2.41354
2.28938
2.1505
2.08379
2.04254
1.99987
1.96437
1.93332
1.9007
1.85911
1.79737
1.73074
1.66484
1.61284
1.56917
1.5477
1.53876
1.5321
1.52023
1.50167
1.46934
1.41928
1.38372
1.37313
1.36669
1.3616
1.3555
1.34687
1.33527
1.3175
1.28141
1.2398
1.2243
1
1
1
1
1
1
1.00003
1.00223
1.0311
1.2289
2.4487
3.56892
4.06282
4.25363
4.18862
4.06591
3.82792
3.83084
4.63246
7.35571
8.91304
8.80174
8.56783
8.18381
7.75588
7.28778
6.84673
6.46828
6.15028
5.88252
5.63918
5.39608
5.1465
4.89916
4.66928
4.46367
4.2677
4.07288
3.89657
3.74107
3.59414
3.44757
3.31181
3.20113
3.09094
2.96263
2.83103
2.72142
2.629
2.53916
2.45536
2.36675
2.2754
2.1908
2.10346
2.01546
1.95702
1.91807
1.88365
1.84806
1.80729
1.76201
1.71155
1.64661
1.58028
1.5349
1.51713
1.50825
1.50007
1.48728
1.4693
1.44202
1.39368
1.35016
1.34013
1.33646
1.33396
1.32762
1.3183
1.30708
1.29448
1.27257
1.23714
1.21699
1
1
1
1
1
1
1
1.00001
1.00041
1.01025
1.26106
2.27796
3.26532
4.12205
4.1685
4.08773
4.14654
5.58467
8.57637
10.244
10.1056
9.35029
8.62605
8.13765
7.77231
7.38753
6.96203
6.55341
6.21229
5.93952
5.70151
5.46942
5.23141
4.98437
4.7317
4.4815
4.25469
4.06336
3.90067
3.75522
3.61882
3.48915
3.3646
3.22807
3.05986
2.89036
2.78352
2.70086
2.61849
2.53712
2.46084
2.38671
2.31138
2.22295
2.11408
2.01797
1.95681
1.91559
1.87833
1.83997
1.79928
1.75885
1.7111
1.64313
1.56835
1.52024
1.50285
1.49401
1.4839
1.46961
1.45148
1.42668
1.38181
1.32464
1.30772
1.30278
1.30005
1.29872
1.29383
1.28729
1.28027
1.26747
1.23742
1.20738
1
1
1
1
1
1
1
1
1
1.00015
1.01361
1.21766
1.78955
3.12502
3.86676
4.51607
6.45794
10.0535
10.9326
10.3032
9.835
9.37314
8.82084
8.28472
7.83729
7.42311
7.01487
6.62869
6.28936
5.99907
5.74245
5.50526
5.27382
5.0294
4.75875
4.48114
4.24098
4.05407
3.90173
3.76914
3.65204
3.54188
3.41871
3.26678
3.08905
2.88415
2.77874
2.73117
2.67405
2.61348
2.55152
2.48563
2.40742
2.30447
2.18162
2.07397
2.00551
1.96036
1.92158
1.88383
1.84659
1.80774
1.75583
1.67834
1.589
1.53578
1.52027
1.50922
1.49521
1.47779
1.45881
1.43389
1.38378
1.31364
1.29088
1.28586
1.28293
1.28417
1.28285
1.27854
1.27441
1.26696
1.23825
1.20384
1
1
1
1
1
1
1
1
1
1
1.00019
1.00843
1.07612
1.73024
3.9798
7.00895
11.7381
15.6496
13.0104
10.6826
9.58325
9.23565
8.83366
8.36349
7.8746
7.42748
7.01682
6.63849
6.30776
6.0122
5.74059
5.49163
5.25993
5.02938
4.77556
4.49765
4.24018
4.04677
3.907
3.79142
3.67999
3.56167
3.4304
3.27555
3.08612
2.90223
2.76725
2.67039
2.60458
2.54788
2.48969
2.4241
2.34375
2.2376
2.11034
2.00252
1.94182
1.90375
1.8688
1.83346
1.79847
1.76053
1.70493
1.61812
1.52692
1.48496
1.47385
1.46537
1.45478
1.44014
1.4231
1.39777
1.33869
1.27538
1.26273
1.25973
1.25844
1.26252
1.26146
1.25664
1.25387
1.24818
1.21959
1.19127
)
;

boundaryField
{
    inlet
    {
        type            fixedValue;
        value           uniform 1;
    }
    outlet
    {
        type            zeroGradient;
    }
    bottom
    {
        type            zeroGradient;
    }
    top
    {
        type            zeroGradient;
    }
    obstacle
    {
        type            zeroGradient;
    }
    defaultFaces
    {
        type            empty;
    }
}


// ************************************************************************* //
