/*--------------------------------*- C++ -*----------------------------------*\
  =========                 |
  \\      /  F ield         | OpenFOAM: The Open Source CFD Toolbox
   \\    /   O peration     | Website:  https://openfoam.org
    \\  /    A nd           | Version:  7
     \\/     M anipulation  |
\*---------------------------------------------------------------------------*/
FoamFile
{
    version     2.0;
    format      ascii;
    class       volScalarField;
    location    "1.2";
    object      T;
}
// * * * * * * * * * * * * * * * * * * * * * * * * * * * * * * * * * * * * * //

dimensions      [0 0 0 1 0 0 0];

internalField   nonuniform List<scalar> 
4128
(
1.94843
1.96579
1.98316
2.00142
2.00997
2.01406
2.01988
2.02233
2.02123
2.01653
2.01557
2.02551
2.04265
2.0463
2.04603
2.04379
2.03997
2.03781
2.03772
2.04094
2.04644
2.0474
2.04682
2.04616
2.04658
2.04965
2.05776
2.06833
2.07225
2.07191
2.06931
2.06335
2.05701
2.05473
2.05444
2.05511
2.05858
2.06244
2.06365
2.06359
2.0634
2.06359
2.06319
2.05948
2.05398
2.04762
2.04166
2.03853
2.03738
2.03832
2.04222
2.04528
2.04697
2.04806
2.0481
2.04707
2.04353
2.0368
2.02918
2.02559
2.0251
2.02516
2.0258
2.0286
2.03033
2.03035
2.0292
2.02448
2.01716
2.00932
2.00155
1.99545
1.99069
1.98623
1.98173
1.97843
1.97719
1.97559
1.97123
1.96654
1.962
1.95759
1.95361
1.95035
1.94879
1.9489
1.94939
1.94845
1.94743
1.94617
1.94356
1.94097
1.94019
1.94094
1.94234
1.94369
1.94434
1.94403
1.94175
1.93783
1.93383
1.93033
1.92754
1.92547
1.92363
1.92108
1.91721
1.91194
1.9057
1.89927
1.89377
1.89069
1.88918
1.88594
1.88154
1.87847
1.87576
1.87212
1.86803
1.86553
1.86392
1.86329
1.86501
1.86779
1.86816
1.86895
1.87017
1.87042
1.86862
1.90229
1.91827
1.93145
1.94402
1.9569
1.96581
1.97515
1.9828
1.98334
1.9817
1.98031
1.98652
2.0008
2.00782
2.00922
2.00901
2.00779
2.00716
2.00791
2.01264
2.01819
2.01923
2.01948
2.01934
2.01959
2.02173
2.0278
2.03792
2.04531
2.0469
2.04684
2.04538
2.04159
2.03862
2.0382
2.03874
2.04095
2.04278
2.04279
2.04213
2.04103
2.04078
2.04107
2.04058
2.0378
2.03436
2.03049
2.02621
2.02344
2.02299
2.02284
2.0233
2.02474
2.02683
2.02843
2.02857
2.02772
2.0253
2.02188
2.01936
2.01822
2.01764
2.01755
2.01769
2.01753
2.01603
2.01296
2.00847
2.00263
1.9966
1.99138
1.98757
1.98429
1.9806
1.97643
1.97293
1.97012
1.96608
1.96158
1.95736
1.95306
1.94853
1.94406
1.94011
1.93727
1.93571
1.93558
1.93634
1.93668
1.93677
1.93724
1.93754
1.93701
1.93594
1.93583
1.93621
1.93595
1.93503
1.9334
1.93061
1.9269
1.92329
1.92019
1.91774
1.91583
1.91396
1.91134
1.9076
1.9026
1.89661
1.89068
1.88613
1.8824
1.87723
1.87253
1.86859
1.86469
1.86198
1.86054
1.85956
1.8593
1.86028
1.86168
1.86112
1.8609
1.86109
1.86154
1.86154
1.86081
1.79718
1.81646
1.83541
1.84886
1.85897
1.86938
1.87927
1.88944
1.89632
1.89896
1.9009
1.90748
1.91704
1.92255
1.92569
1.92709
1.92721
1.92772
1.9312
1.94102
1.94929
1.95169
1.95317
1.95377
1.95404
1.95517
1.95823
1.96521
1.97317
1.97751
1.98037
1.98224
1.98239
1.98254
1.98345
1.9855
1.98836
1.99075
1.99161
1.99135
1.98978
1.98745
1.98571
1.98471
1.98353
1.98253
1.98182
1.98128
1.98099
1.98036
1.97967
1.97942
1.97952
1.97955
1.97918
1.97872
1.97883
1.97939
1.97977
1.98032
1.98181
1.98396
1.98607
1.98664
1.98613
1.98309
1.97734
1.97087
1.96487
1.95986
1.95609
1.95317
1.95058
1.94865
1.94717
1.94562
1.94262
1.93801
1.93393
1.93037
1.92708
1.9236
1.91978
1.91573
1.91128
1.90676
1.90334
1.90197
1.90179
1.90276
1.90591
1.90964
1.91258
1.91457
1.91494
1.9146
1.91306
1.91086
1.90933
1.90773
1.90597
1.90361
1.9008
1.89709
1.8931
1.88968
1.88663
1.88371
1.88061
1.87683
1.87259
1.86855
1.86382
1.85742
1.85171
1.84595
1.83943
1.8353
1.83364
1.83289
1.83439
1.8397
1.8427
1.84229
1.84216
1.84169
1.84
1.83883
1.83915
1.69415
1.70926
1.72615
1.7391
1.7475
1.75575
1.76583
1.77602
1.78623
1.79552
1.80528
1.81491
1.82031
1.82423
1.82602
1.82539
1.82557
1.82699
1.83235
1.84478
1.85457
1.85902
1.86197
1.86368
1.86464
1.86626
1.86938
1.87575
1.88329
1.88878
1.89249
1.89475
1.89668
1.89891
1.90078
1.90221
1.90389
1.90571
1.90734
1.90814
1.90801
1.9075
1.90691
1.90667
1.90629
1.90578
1.90529
1.90464
1.9036
1.90251
1.90218
1.90248
1.90364
1.9056
1.90778
1.90999
1.91222
1.91412
1.91564
1.91682
1.91774
1.91883
1.92044
1.92184
1.92216
1.92121
1.91791
1.9136
1.90988
1.90659
1.90353
1.90059
1.89805
1.8961
1.89433
1.89137
1.8873
1.88256
1.87825
1.87468
1.87148
1.86873
1.86579
1.86281
1.86002
1.85719
1.8546
1.85339
1.85336
1.85419
1.85635
1.85947
1.86309
1.86606
1.86721
1.86677
1.8641
1.86235
1.86212
1.86167
1.86159
1.86186
1.86164
1.86027
1.85794
1.85434
1.85035
1.84642
1.84228
1.8377
1.83266
1.82688
1.8205
1.81389
1.80817
1.8038
1.80033
1.79741
1.79478
1.79297
1.79344
1.79667
1.79784
1.79771
1.79816
1.7984
1.79787
1.7972
1.79771
1.63943
1.64856
1.65694
1.66202
1.66744
1.67475
1.68417
1.69524
1.71002
1.72625
1.73974
1.74451
1.74642
1.7467
1.74565
1.74583
1.74861
1.75276
1.76047
1.77116
1.77798
1.78155
1.78457
1.78746
1.79084
1.794
1.79848
1.80271
1.80589
1.8085
1.81163
1.81552
1.82015
1.82397
1.82633
1.82667
1.82651
1.82696
1.82846
1.82956
1.82996
1.82997
1.82987
1.82941
1.82882
1.8287
1.82884
1.828
1.8268
1.82589
1.82533
1.82496
1.82517
1.82667
1.82977
1.83366
1.83748
1.84064
1.8432
1.84504
1.84597
1.84623
1.84636
1.84658
1.8464
1.84512
1.84346
1.84257
1.84165
1.84017
1.83865
1.83757
1.83665
1.8355
1.83318
1.82964
1.82455
1.81885
1.81444
1.81093
1.80776
1.80539
1.80259
1.79966
1.79675
1.79321
1.79061
1.79027
1.79051
1.79191
1.79487
1.79872
1.80266
1.80569
1.80709
1.80669
1.80358
1.80163
1.80192
1.80239
1.80282
1.80366
1.80447
1.80455
1.80408
1.80276
1.80068
1.79793
1.79427
1.7894
1.78312
1.77515
1.76668
1.7587
1.75228
1.7481
1.74553
1.7437
1.74254
1.74256
1.7435
1.74349
1.74227
1.7416
1.74089
1.7401
1.73989
1.7406
1.74314
1.59409
1.60301
1.61233
1.61713
1.62256
1.63023
1.64003
1.65003
1.66348
1.67855
1.68792
1.69188
1.69403
1.69548
1.69736
1.70185
1.70817
1.71379
1.71779
1.7212
1.72446
1.72672
1.7294
1.7342
1.74082
1.74733
1.75051
1.75242
1.75341
1.75486
1.75797
1.76316
1.76792
1.77057
1.77215
1.77232
1.77144
1.77145
1.77262
1.77301
1.77293
1.77235
1.77089
1.76976
1.76923
1.76983
1.7717
1.77254
1.77205
1.77053
1.76824
1.76674
1.76676
1.76806
1.77057
1.77294
1.77494
1.77681
1.77843
1.77992
1.78153
1.78325
1.78442
1.78444
1.78343
1.78251
1.78279
1.783
1.78279
1.78221
1.78141
1.78078
1.77966
1.77776
1.77477
1.76996
1.76476
1.76091
1.75758
1.75431
1.75186
1.75023
1.74769
1.74485
1.74197
1.73819
1.73454
1.7332
1.73311
1.73364
1.73604
1.74009
1.74372
1.74664
1.74899
1.74947
1.74806
1.74573
1.74556
1.74668
1.74757
1.74814
1.74906
1.75002
1.75017
1.74978
1.7486
1.74652
1.74329
1.73846
1.73194
1.72449
1.71667
1.70905
1.70246
1.69724
1.69404
1.69317
1.69336
1.69419
1.69388
1.69143
1.68927
1.68755
1.68607
1.68546
1.6857
1.68731
1.69054
1.55644
1.56478
1.57558
1.58422
1.5902
1.59895
1.6101
1.61915
1.63002
1.64241
1.65023
1.65447
1.65817
1.66283
1.6687
1.67519
1.68061
1.68367
1.68535
1.68702
1.68941
1.69347
1.69837
1.70481
1.71276
1.71917
1.722
1.72363
1.7249
1.72697
1.73071
1.73462
1.73622
1.73678
1.7374
1.73744
1.73664
1.73605
1.7364
1.73648
1.7362
1.73558
1.735
1.73507
1.73662
1.73931
1.74017
1.73886
1.73581
1.73136
1.72784
1.72736
1.72767
1.72867
1.73026
1.73185
1.73344
1.73537
1.73765
1.7398
1.74154
1.74257
1.74215
1.73902
1.73594
1.7358
1.73674
1.73774
1.73851
1.73966
1.74024
1.7399
1.7386
1.73564
1.73041
1.72512
1.72168
1.71871
1.71545
1.71223
1.70988
1.70829
1.70617
1.70362
1.70134
1.69892
1.6962
1.69423
1.6936
1.69372
1.6947
1.69658
1.69803
1.69951
1.70081
1.70128
1.70117
1.70018
1.6995
1.70045
1.70225
1.70364
1.70521
1.70728
1.70898
1.70925
1.70861
1.70627
1.70214
1.69624
1.68928
1.68267
1.67643
1.67046
1.66531
1.66095
1.65845
1.65836
1.65877
1.65751
1.65353
1.64949
1.64559
1.64292
1.64216
1.64223
1.64307
1.64517
1.64807
1.51438
1.52545
1.53691
1.55159
1.56238
1.57336
1.58653
1.59495
1.60209
1.61113
1.6197
1.62556
1.63129
1.63819
1.64695
1.65454
1.65876
1.66064
1.66145
1.66254
1.66525
1.67179
1.68031
1.68631
1.69217
1.69773
1.70137
1.70492
1.70845
1.71177
1.71429
1.71497
1.71511
1.71511
1.71481
1.71502
1.71601
1.71679
1.71709
1.71703
1.71703
1.71706
1.71728
1.71825
1.71961
1.71958
1.71797
1.71541
1.71166
1.70818
1.70713
1.70718
1.70798
1.7085
1.70952
1.71093
1.71246
1.71383
1.71464
1.71491
1.71464
1.71359
1.71112
1.70762
1.70656
1.70725
1.70872
1.71073
1.71359
1.71544
1.71536
1.71439
1.71138
1.70589
1.70025
1.69679
1.69413
1.69124
1.6883
1.6859
1.68476
1.68402
1.68279
1.68098
1.67901
1.6768
1.67402
1.6709
1.66835
1.6667
1.66589
1.66582
1.66628
1.66705
1.668
1.66922
1.67073
1.67186
1.67229
1.67296
1.67505
1.67697
1.67798
1.67882
1.67986
1.6801
1.67874
1.67557
1.67122
1.66594
1.66052
1.65569
1.65109
1.64689
1.6435
1.64076
1.63826
1.63591
1.63347
1.62964
1.62561
1.62206
1.61883
1.61698
1.61665
1.61698
1.61743
1.61844
1.61986
1.45382
1.47317
1.49318
1.5149
1.53395
1.54719
1.56253
1.57258
1.57705
1.58324
1.59265
1.6017
1.61214
1.62226
1.63078
1.63631
1.63848
1.63978
1.64107
1.64319
1.64703
1.65532
1.6673
1.67325
1.67621
1.68006
1.68488
1.69031
1.69656
1.7011
1.7023
1.70205
1.70071
1.70033
1.70046
1.7024
1.70581
1.70723
1.70729
1.70687
1.70661
1.70633
1.70595
1.70572
1.70578
1.7053
1.70366
1.7011
1.69887
1.69818
1.69859
1.69943
1.6992
1.69912
1.69926
1.69955
1.69977
1.6997
1.69903
1.69767
1.69612
1.69403
1.69179
1.69112
1.69179
1.69333
1.69598
1.69892
1.70001
1.69988
1.69894
1.69622
1.69177
1.68642
1.68272
1.68042
1.67835
1.67615
1.67437
1.67398
1.67406
1.67367
1.67157
1.66868
1.66523
1.6616
1.65849
1.65577
1.65293
1.65041
1.6489
1.64841
1.64876
1.65018
1.65223
1.65483
1.65731
1.65921
1.66011
1.66004
1.65964
1.65935
1.65908
1.65895
1.65895
1.65888
1.65803
1.6559
1.65298
1.64952
1.64596
1.64261
1.63929
1.63585
1.63221
1.62851
1.62492
1.62138
1.61804
1.61497
1.61206
1.60945
1.60735
1.6057
1.60425
1.60283
1.60164
1.60101
1.60078
1.42003
1.42794
1.44377
1.46615
1.49084
1.50824
1.52481
1.54101
1.54893
1.55561
1.56744
1.58066
1.59647
1.61115
1.61782
1.61998
1.62093
1.62191
1.62401
1.62702
1.63239
1.64188
1.6545
1.662
1.66499
1.66741
1.67228
1.67893
1.6869
1.69229
1.6934
1.69329
1.69154
1.69055
1.69083
1.69317
1.69716
1.69862
1.69873
1.69871
1.69832
1.69755
1.69685
1.69652
1.6959
1.69502
1.69411
1.69349
1.69353
1.69481
1.69508
1.69428
1.6926
1.69082
1.69021
1.69011
1.68997
1.68961
1.68867
1.68675
1.68426
1.68228
1.68201
1.68305
1.68559
1.68799
1.68909
1.68939
1.6892
1.68833
1.68668
1.68346
1.67905
1.67571
1.67366
1.67211
1.67064
1.67002
1.67022
1.67047
1.66925
1.66626
1.66317
1.6597
1.65561
1.65143
1.64835
1.64618
1.64441
1.64274
1.64176
1.64156
1.64226
1.64448
1.64727
1.64948
1.65079
1.65128
1.65085
1.6498
1.64852
1.64753
1.64728
1.64713
1.64676
1.64658
1.64647
1.64615
1.64518
1.64337
1.64052
1.63665
1.63237
1.62821
1.62398
1.61999
1.61679
1.61436
1.61208
1.6101
1.60802
1.60531
1.60216
1.59874
1.59516
1.59241
1.59057
1.5893
1.58854
1.41983
1.42483
1.43124
1.43774
1.44678
1.4571
1.46951
1.48731
1.50705
1.5225
1.54135
1.55936
1.5804
1.59752
1.60283
1.60391
1.60354
1.60615
1.60971
1.61423
1.62144
1.63116
1.64139
1.64983
1.65475
1.65836
1.66336
1.66995
1.67878
1.68521
1.68693
1.68697
1.68574
1.68463
1.68425
1.68569
1.68942
1.69088
1.69109
1.69128
1.69127
1.69106
1.6907
1.68995
1.68895
1.68838
1.68824
1.68945
1.6917
1.69188
1.69093
1.68947
1.68704
1.68401
1.68223
1.68197
1.68216
1.68228
1.68199
1.68056
1.67856
1.67804
1.67873
1.68066
1.68201
1.68257
1.68263
1.68212
1.68101
1.67917
1.67645
1.67364
1.6717
1.67047
1.66939
1.66858
1.66831
1.66829
1.66809
1.66663
1.664
1.66133
1.65834
1.65401
1.64891
1.64556
1.64338
1.64132
1.64013
1.64009
1.6408
1.6419
1.64242
1.64254
1.64288
1.64318
1.6435
1.6436
1.64328
1.64235
1.64169
1.64169
1.64212
1.64213
1.64182
1.64162
1.64211
1.64252
1.64212
1.63973
1.63586
1.63151
1.62734
1.6234
1.61959
1.61599
1.61292
1.61136
1.61087
1.61007
1.60723
1.60274
1.59783
1.59279
1.58848
1.58578
1.58394
1.58254
1.58179
1.43493
1.43125
1.43318
1.43548
1.43434
1.43378
1.43548
1.44146
1.4552
1.47472
1.50064
1.52826
1.54972
1.5687
1.58119
1.58546
1.58698
1.59151
1.59674
1.6037
1.61472
1.62254
1.62711
1.63204
1.6391
1.64721
1.65564
1.66424
1.67177
1.67725
1.67977
1.68055
1.68041
1.68064
1.68152
1.68297
1.68378
1.68347
1.68328
1.68353
1.68404
1.68488
1.68553
1.68554
1.6849
1.68427
1.6843
1.68559
1.68761
1.68772
1.6871
1.68575
1.683
1.67999
1.67789
1.6764
1.67597
1.67658
1.6774
1.67776
1.67823
1.67833
1.67813
1.67773
1.67753
1.67751
1.67726
1.67636
1.67452
1.67229
1.67064
1.66944
1.66862
1.66827
1.66813
1.66755
1.66674
1.66594
1.665
1.66334
1.66126
1.65883
1.65543
1.65072
1.64653
1.64371
1.64155
1.64069
1.64103
1.64231
1.64298
1.64229
1.6408
1.63912
1.63769
1.63662
1.63596
1.63576
1.63611
1.63728
1.63849
1.63956
1.6405
1.64123
1.64188
1.64242
1.6423
1.64082
1.63828
1.63491
1.63104
1.62728
1.62405
1.62097
1.61776
1.61466
1.61298
1.61281
1.61283
1.61051
1.6051
1.59915
1.593
1.58712
1.58339
1.58157
1.58067
1.57989
1.57935
1.46096
1.45082
1.44776
1.44562
1.43929
1.43648
1.43746
1.43931
1.44123
1.44729
1.46031
1.48086
1.50159
1.52093
1.53992
1.55824
1.56827
1.57616
1.58493
1.59606
1.6093
1.616
1.61763
1.61833
1.6229
1.63129
1.64309
1.65725
1.66531
1.66833
1.67009
1.6721
1.67351
1.67586
1.67951
1.68194
1.68215
1.67993
1.67765
1.67731
1.67765
1.67864
1.68028
1.68218
1.6827
1.68254
1.68251
1.6833
1.68333
1.68289
1.68223
1.68068
1.6792
1.67827
1.67687
1.67508
1.67355
1.6732
1.67389
1.67618
1.67722
1.67742
1.67738
1.67666
1.67528
1.67401
1.6728
1.67149
1.67033
1.6695
1.66895
1.66867
1.66853
1.6678
1.66663
1.6656
1.66461
1.66345
1.66206
1.66045
1.65852
1.65603
1.65306
1.65022
1.64747
1.64505
1.64424
1.6445
1.64506
1.64426
1.64184
1.63967
1.63774
1.63538
1.63269
1.63109
1.63128
1.63232
1.63344
1.63501
1.63744
1.64009
1.64198
1.64316
1.6434
1.6429
1.64128
1.63884
1.63552
1.6316
1.62816
1.62537
1.62255
1.61959
1.61719
1.6162
1.61641
1.61634
1.61288
1.60718
1.60133
1.59485
1.58806
1.58364
1.58143
1.58004
1.57926
1.57931
1.5793
1.49414
1.48214
1.47449
1.46854
1.45864
1.44888
1.44687
1.44467
1.445
1.44687
1.45001
1.45428
1.46015
1.47014
1.48342
1.50302
1.52584
1.54591
1.56374
1.5808
1.59701
1.60744
1.61158
1.61189
1.61307
1.61909
1.62806
1.64234
1.65659
1.66173
1.66219
1.66383
1.66632
1.67038
1.67685
1.67908
1.67874
1.67708
1.67495
1.67439
1.67487
1.67599
1.67777
1.67997
1.68174
1.68267
1.68368
1.68384
1.68272
1.68115
1.67922
1.67772
1.67704
1.67715
1.67702
1.67584
1.67406
1.67251
1.67245
1.67306
1.67447
1.67578
1.67639
1.6763
1.67478
1.67213
1.67061
1.67007
1.66994
1.67001
1.67037
1.67041
1.66996
1.66887
1.66723
1.66572
1.66456
1.66334
1.66157
1.65919
1.65657
1.6542
1.65233
1.65093
1.65049
1.65054
1.65048
1.64899
1.6458
1.64283
1.64004
1.63738
1.6346
1.63161
1.62985
1.62998
1.63064
1.63185
1.63395
1.6373
1.64121
1.64409
1.64537
1.64523
1.64386
1.64182
1.63948
1.63667
1.63354
1.6308
1.62829
1.62569
1.62295
1.62099
1.62062
1.6211
1.62047
1.6163
1.61051
1.60431
1.59724
1.59007
1.58523
1.58252
1.58074
1.57993
1.58039
1.58161
1.58201
1.52517
1.51202
1.50178
1.49216
1.48117
1.46943
1.46545
1.46194
1.45698
1.45544
1.45643
1.45636
1.45609
1.45548
1.45685
1.46282
1.47598
1.49652
1.52345
1.54967
1.5687
1.58125
1.59519
1.60279
1.6063
1.61219
1.61701
1.62333
1.636
1.65099
1.65582
1.65825
1.66252
1.6678
1.67252
1.6731
1.67284
1.6717
1.67154
1.67235
1.67428
1.67627
1.67785
1.67957
1.68179
1.68408
1.68561
1.68538
1.68382
1.68142
1.67907
1.67749
1.67639
1.67623
1.67671
1.67674
1.67611
1.67447
1.67265
1.67226
1.67251
1.67346
1.6745
1.67477
1.67452
1.67356
1.67241
1.67186
1.67182
1.67193
1.67228
1.67253
1.67223
1.67138
1.66978
1.66744
1.66532
1.6635
1.66151
1.65937
1.65729
1.65533
1.65431
1.65492
1.65652
1.65609
1.65326
1.64921
1.64539
1.64151
1.63777
1.63421
1.6311
1.62982
1.62986
1.63071
1.63254
1.63573
1.64043
1.64463
1.6469
1.64772
1.64727
1.64573
1.64322
1.64019
1.6375
1.63557
1.63409
1.6327
1.63086
1.62863
1.62709
1.62668
1.62659
1.62459
1.61982
1.61417
1.60773
1.6004
1.59316
1.5881
1.58506
1.58293
1.58201
1.58301
1.58556
1.58578
1.58565
1.55728
1.5415
1.53128
1.52124
1.50897
1.49822
1.49297
1.48776
1.4809
1.47708
1.47373
1.4688
1.46221
1.45673
1.45409
1.45429
1.45603
1.46219
1.47637
1.49767
1.52208
1.5403
1.55806
1.57716
1.58982
1.60088
1.60667
1.60923
1.61494
1.62934
1.64583
1.65608
1.66498
1.67068
1.67168
1.67089
1.66948
1.66812
1.66751
1.66862
1.67281
1.67609
1.67747
1.67918
1.68194
1.6847
1.6856
1.68542
1.68414
1.6825
1.68116
1.68032
1.67953
1.67841
1.67752
1.6773
1.67731
1.67661
1.67438
1.67269
1.67237
1.67263
1.6736
1.67479
1.67592
1.67642
1.67659
1.6764
1.67577
1.67526
1.67531
1.67537
1.67529
1.67473
1.67314
1.67059
1.66793
1.66579
1.66417
1.66254
1.66063
1.65925
1.65928
1.65973
1.6587
1.65598
1.65241
1.64869
1.6445
1.63971
1.63519
1.63221
1.63113
1.63094
1.63135
1.63324
1.6382
1.64453
1.648
1.64969
1.65062
1.65045
1.64891
1.64551
1.64186
1.63962
1.63842
1.63764
1.63725
1.63672
1.63603
1.6356
1.63539
1.6342
1.63006
1.62474
1.61885
1.61189
1.60424
1.59712
1.59212
1.58875
1.58668
1.58626
1.58767
1.58928
1.58919
1.58941
1.5892
1.5891
1.56947
1.55772
1.54935
1.5363
1.52325
1.5185
1.51327
1.50481
1.49944
1.49485
1.48807
1.47931
1.46942
1.46117
1.46015
1.46085
1.463
1.46744
1.47484
1.48588
1.50134
1.51793
1.53658
1.5549
1.57069
1.58777
1.59951
1.60347
1.6114
1.6295
1.6466
1.66112
1.67033
1.67279
1.67213
1.67022
1.66994
1.67005
1.67065
1.67226
1.67442
1.67661
1.67944
1.68316
1.68593
1.68579
1.6843
1.68249
1.68206
1.68289
1.68503
1.68541
1.68384
1.68117
1.67896
1.67802
1.67727
1.67587
1.67485
1.67482
1.67523
1.67622
1.6776
1.67913
1.6802
1.68112
1.68165
1.68148
1.68064
1.68012
1.68004
1.67987
1.67923
1.67776
1.67555
1.67323
1.67147
1.67
1.66825
1.66649
1.66559
1.66502
1.66399
1.66129
1.65719
1.65301
1.6485
1.64342
1.63856
1.63522
1.63403
1.63389
1.63426
1.63646
1.64161
1.64722
1.65013
1.65181
1.65325
1.6537
1.65244
1.64866
1.64518
1.64395
1.64354
1.64327
1.6434
1.64385
1.64458
1.64508
1.64471
1.64203
1.63719
1.63161
1.62486
1.61704
1.60888
1.60197
1.59705
1.59388
1.5922
1.59232
1.59392
1.59389
1.59377
1.59415
1.59435
1.59337
1.61861
1.59975
1.58452
1.57754
1.56664
1.55102
1.54575
1.54131
1.53218
1.52527
1.52083
1.51398
1.50317
1.49231
1.4832
1.47586
1.4734
1.47389
1.47508
1.47827
1.48209
1.48652
1.49312
1.50027
1.50958
1.52284
1.54069
1.56272
1.58697
1.5988
1.61378
1.63204
1.6473
1.65673
1.66187
1.66653
1.67166
1.67782
1.68121
1.68073
1.67856
1.67834
1.67929
1.68237
1.68812
1.69052
1.68995
1.6876
1.68448
1.6834
1.68449
1.68831
1.68987
1.68928
1.68673
1.6826
1.67943
1.67829
1.67812
1.67882
1.68055
1.68265
1.68419
1.68518
1.68642
1.68767
1.68845
1.68853
1.6879
1.68688
1.68672
1.68685
1.68692
1.68672
1.68584
1.68389
1.68134
1.67919
1.6774
1.67536
1.67316
1.67166
1.67058
1.66826
1.66406
1.65925
1.65433
1.64924
1.64445
1.64099
1.6394
1.6392
1.63936
1.64043
1.6439
1.64919
1.65326
1.65521
1.65682
1.65775
1.65697
1.6535
1.65045
1.65022
1.6507
1.6512
1.65195
1.65331
1.65511
1.6554
1.65358
1.64935
1.64424
1.63837
1.63119
1.62296
1.61483
1.60837
1.60356
1.60065
1.59953
1.60041
1.60114
1.6005
1.60045
1.60064
1.60062
1.60002
1.59896
1.64315
1.63003
1.61224
1.60334
1.59569
1.58172
1.57253
1.56786
1.55959
1.5504
1.54474
1.53866
1.52739
1.51447
1.50715
1.50202
1.49741
1.49408
1.49112
1.49149
1.49311
1.49616
1.49717
1.49597
1.49426
1.49637
1.50593
1.52182
1.54427
1.56987
1.59
1.61023
1.63071
1.64413
1.65176
1.66002
1.66964
1.68011
1.6868
1.68785
1.68693
1.68645
1.68696
1.68849
1.69242
1.69561
1.69588
1.69454
1.6911
1.69019
1.69196
1.69403
1.69422
1.69372
1.69181
1.68798
1.68389
1.68266
1.68295
1.68452
1.68764
1.69261
1.69566
1.69681
1.69827
1.69928
1.6992
1.6976
1.69588
1.69559
1.69561
1.69581
1.69617
1.69643
1.69597
1.69403
1.69114
1.68858
1.68619
1.68364
1.68101
1.67861
1.67622
1.67275
1.66838
1.66363
1.65849
1.65362
1.65005
1.64796
1.64723
1.64724
1.64766
1.64943
1.65314
1.65723
1.65976
1.66152
1.66281
1.66277
1.66097
1.65874
1.65886
1.6599
1.66057
1.66174
1.66427
1.66656
1.66671
1.66458
1.65981
1.65363
1.64653
1.63831
1.62936
1.62192
1.61663
1.61233
1.60942
1.6089
1.60975
1.60998
1.6094
1.60921
1.60942
1.60934
1.6084
1.60782
1.6082
1.66644
1.65727
1.64356
1.6303
1.62383
1.61426
1.60243
1.5958
1.58847
1.57806
1.5704
1.56444
1.55488
1.54183
1.5353
1.53215
1.5283
1.52414
1.5193
1.51437
1.51122
1.51001
1.50976
1.50827
1.504
1.50271
1.50335
1.50688
1.51622
1.53247
1.55003
1.56684
1.58726
1.61218
1.6409
1.66024
1.67184
1.67866
1.68364
1.68809
1.69201
1.69464
1.69566
1.69456
1.69468
1.69625
1.69737
1.69837
1.7004
1.704
1.70571
1.70455
1.70189
1.69943
1.69725
1.69536
1.69409
1.69385
1.69443
1.6964
1.69988
1.70477
1.70726
1.70874
1.71055
1.71131
1.71023
1.7074
1.70707
1.70724
1.70718
1.70726
1.70789
1.70781
1.70672
1.70406
1.70087
1.69806
1.69529
1.6923
1.68904
1.68571
1.68272
1.67989
1.67624
1.67188
1.66712
1.66291
1.66022
1.65858
1.65782
1.65785
1.65856
1.66091
1.66422
1.66662
1.66856
1.67036
1.67101
1.67075
1.67001
1.67035
1.6717
1.67223
1.67247
1.67362
1.67627
1.67751
1.67637
1.67172
1.66473
1.65658
1.64706
1.6372
1.62985
1.62543
1.62225
1.62033
1.62013
1.62034
1.62054
1.6202
1.61999
1.61992
1.61932
1.61812
1.61765
1.61822
1.62034
1.69871
1.68554
1.6738
1.65968
1.65062
1.64353
1.63388
1.62547
1.61853
1.60862
1.59856
1.59085
1.58175
1.57057
1.5625
1.55988
1.55777
1.55479
1.55127
1.54644
1.53913
1.53142
1.52536
1.52208
1.52007
1.5183
1.51822
1.51859
1.51999
1.52212
1.52744
1.53682
1.54829
1.56499
1.592
1.62349
1.66129
1.67675
1.68514
1.69317
1.70003
1.70217
1.70239
1.7007
1.69725
1.69788
1.69796
1.69901
1.70655
1.71635
1.71814
1.71662
1.71162
1.70576
1.70374
1.70419
1.70545
1.70682
1.70896
1.71309
1.71773
1.72029
1.72176
1.72258
1.72276
1.72203
1.71907
1.71752
1.71777
1.71797
1.71882
1.72016
1.72035
1.71945
1.71697
1.71351
1.70972
1.70667
1.70363
1.70028
1.69666
1.69338
1.69169
1.6907
1.68812
1.68391
1.67952
1.67573
1.67314
1.67165
1.67084
1.67075
1.67141
1.67367
1.67599
1.6778
1.6797
1.68134
1.6822
1.68273
1.6838
1.68553
1.68595
1.68562
1.6854
1.68624
1.68776
1.68744
1.68357
1.67612
1.66751
1.6578
1.64789
1.64023
1.63594
1.63317
1.63126
1.63092
1.63133
1.63182
1.63158
1.63137
1.63076
1.6291
1.62732
1.62706
1.62831
1.63082
1.63306
1.73169
1.71975
1.70819
1.69503
1.68378
1.67534
1.6662
1.65571
1.64826
1.64168
1.63344
1.62359
1.61302
1.60368
1.59637
1.59112
1.58829
1.586
1.58373
1.58009
1.57283
1.56275
1.55141
1.54187
1.53779
1.53622
1.53524
1.53531
1.53579
1.53668
1.53684
1.53523
1.53507
1.53841
1.54932
1.56866
1.60219
1.63732
1.66956
1.69766
1.70958
1.71021
1.70969
1.70627
1.7013
1.70029
1.70077
1.70527
1.71627
1.72485
1.7257
1.7247
1.7205
1.71539
1.71422
1.71518
1.71698
1.7187
1.72185
1.72787
1.73319
1.73531
1.73657
1.73653
1.73438
1.73037
1.72761
1.72726
1.72714
1.72831
1.73057
1.73153
1.73091
1.72882
1.72565
1.72118
1.7168
1.7135
1.71033
1.70696
1.70413
1.70352
1.70392
1.70393
1.70155
1.6973
1.69322
1.6898
1.68714
1.68544
1.68457
1.68425
1.68471
1.68667
1.68868
1.69066
1.69271
1.69454
1.69592
1.6974
1.69944
1.70012
1.69974
1.69863
1.69753
1.69702
1.69638
1.69368
1.68699
1.67812
1.66895
1.66027
1.65349
1.64904
1.64612
1.64417
1.64315
1.64311
1.64285
1.64225
1.64167
1.64019
1.63783
1.63675
1.63733
1.63908
1.64099
1.64242
1.64319
1.76504
1.75101
1.74023
1.72995
1.72013
1.71133
1.70211
1.69162
1.68188
1.67263
1.66088
1.64678
1.63787
1.63386
1.63075
1.62763
1.62447
1.62003
1.61361
1.60754
1.60287
1.59717
1.58667
1.57387
1.56304
1.55698
1.55511
1.55466
1.55487
1.55489
1.55382
1.54865
1.54037
1.53929
1.53978
1.54413
1.55831
1.58352
1.61632
1.65228
1.68176
1.69936
1.70601
1.70491
1.70384
1.70539
1.71155
1.72028
1.72904
1.73169
1.73154
1.7298
1.72688
1.72484
1.72491
1.72673
1.72917
1.73092
1.73357
1.73786
1.74201
1.74451
1.74526
1.74439
1.74056
1.73716
1.736
1.73546
1.7363
1.73823
1.7397
1.73926
1.73701
1.73402
1.73024
1.72521
1.72096
1.7178
1.7149
1.71338
1.71384
1.71555
1.71697
1.71649
1.71353
1.70948
1.70557
1.70202
1.6993
1.69773
1.69681
1.69676
1.6981
1.70019
1.70193
1.70384
1.7058
1.70743
1.70889
1.71092
1.71154
1.71113
1.70984
1.70783
1.7058
1.70376
1.70081
1.69594
1.68908
1.68079
1.67288
1.66663
1.66251
1.65995
1.65817
1.65645
1.65512
1.65401
1.65253
1.65022
1.64759
1.64645
1.64668
1.64788
1.64903
1.65005
1.65073
1.65111
1.65129
1.80063
1.78739
1.77597
1.76508
1.75383
1.74407
1.73509
1.7259
1.71709
1.70797
1.69367
1.6778
1.66801
1.66315
1.66057
1.65891
1.65684
1.65306
1.64704
1.63987
1.63072
1.6175
1.60615
1.59783
1.59051
1.58526
1.58116
1.57809
1.57684
1.57594
1.57321
1.56358
1.55177
1.54914
1.54874
1.54929
1.55216
1.55871
1.57228
1.59372
1.61982
1.64663
1.6686
1.68353
1.69287
1.70353
1.71716
1.72975
1.73543
1.73559
1.73524
1.73328
1.73092
1.7307
1.7315
1.73384
1.73665
1.73897
1.7432
1.74629
1.74802
1.74904
1.74861
1.74532
1.74204
1.7409
1.74029
1.74122
1.74374
1.74585
1.74545
1.74266
1.73905
1.73511
1.72988
1.72491
1.72239
1.72054
1.71966
1.72023
1.72283
1.72643
1.72703
1.72558
1.72223
1.71812
1.71369
1.71007
1.70817
1.70739
1.70792
1.7096
1.71124
1.71224
1.71316
1.71415
1.71508
1.71579
1.71745
1.71874
1.71856
1.71754
1.7157
1.71338
1.71076
1.7077
1.70376
1.69869
1.69282
1.68628
1.67996
1.67516
1.67212
1.67023
1.66846
1.66656
1.66415
1.66079
1.65685
1.65441
1.65397
1.65419
1.65544
1.65715
1.65821
1.65845
1.65844
1.6582
1.65697
1.83468
1.82185
1.80993
1.79911
1.78779
1.77784
1.77001
1.76161
1.75017
1.73409
1.7178
1.70573
1.69949
1.69576
1.69226
1.68774
1.68244
1.67792
1.67366
1.66819
1.65802
1.63974
1.62403
1.61722
1.61395
1.61169
1.60907
1.60566
1.60126
1.59488
1.58551
1.57314
1.56204
1.55917
1.55797
1.55753
1.55811
1.56074
1.56176
1.56395
1.56889
1.58314
1.61034
1.64557
1.67024
1.69008
1.70891
1.72288
1.72643
1.72832
1.73025
1.73195
1.73187
1.73245
1.73348
1.73511
1.73902
1.74532
1.75081
1.75205
1.75218
1.75109
1.74688
1.74255
1.74109
1.74015
1.74059
1.744
1.7483
1.74895
1.74719
1.74317
1.73809
1.73181
1.7261
1.72418
1.7235
1.72312
1.72342
1.72576
1.73037
1.73244
1.73192
1.72995
1.72622
1.72089
1.71662
1.71464
1.71402
1.71489
1.71759
1.71977
1.71986
1.71969
1.71953
1.71915
1.71933
1.72022
1.7218
1.72286
1.72276
1.7217
1.7195
1.71674
1.71373
1.71027
1.70627
1.70192
1.69769
1.69294
1.68747
1.68318
1.68019
1.67786
1.67551
1.67218
1.66746
1.66318
1.66115
1.66038
1.66008
1.66008
1.66153
1.66363
1.66435
1.66426
1.66337
1.6618
1.65927
1.86677
1.85454
1.84234
1.83098
1.81969
1.80938
1.80089
1.79145
1.77726
1.75808
1.74165
1.73206
1.72668
1.72285
1.71887
1.71397
1.70843
1.70277
1.69628
1.68641
1.67045
1.65399
1.6446
1.64044
1.63722
1.63486
1.63258
1.62917
1.62348
1.61219
1.59433
1.57999
1.57446
1.57193
1.56978
1.56781
1.56623
1.56494
1.56321
1.56051
1.55542
1.55569
1.56291
1.58355
1.61705
1.65024
1.68383
1.70517
1.70819
1.71227
1.7194
1.72385
1.7254
1.72577
1.72714
1.73088
1.7376
1.74587
1.75033
1.7505
1.75027
1.7467
1.74048
1.73846
1.73797
1.73805
1.73986
1.74452
1.74696
1.74636
1.74369
1.73888
1.73172
1.72479
1.72297
1.72301
1.72282
1.72303
1.72521
1.73029
1.73396
1.73407
1.73305
1.73021
1.72466
1.71932
1.71712
1.71649
1.71712
1.71985
1.72326
1.72399
1.7237
1.72279
1.7208
1.71992
1.72066
1.7221
1.72342
1.72424
1.72414
1.72335
1.72161
1.71861
1.71482
1.71116
1.70763
1.7045
1.70173
1.6975
1.69225
1.68795
1.68464
1.68157
1.67777
1.67299
1.66908
1.66683
1.66526
1.66399
1.66351
1.66451
1.66667
1.66775
1.6676
1.66643
1.66475
1.66196
1.6574
1.89326
1.88203
1.87005
1.85873
1.84781
1.83667
1.82527
1.81193
1.79401
1.77426
1.7632
1.75707
1.7513
1.74559
1.73991
1.73453
1.72946
1.72396
1.7162
1.70025
1.67806
1.6665
1.664
1.66197
1.6587
1.655
1.65122
1.64615
1.63786
1.62289
1.60247
1.59208
1.58797
1.58461
1.58159
1.57838
1.57546
1.57259
1.56789
1.5586
1.55086
1.54982
1.55037
1.55431
1.56632
1.58837
1.61842
1.64638
1.67009
1.68627
1.69975
1.71088
1.71359
1.71411
1.71944
1.72702
1.73463
1.74008
1.74093
1.74006
1.73893
1.73576
1.73295
1.73321
1.73325
1.73344
1.73631
1.74044
1.7404
1.73796
1.73401
1.72841
1.72151
1.71804
1.7178
1.71815
1.71897
1.72118
1.72615
1.7313
1.73243
1.73202
1.73025
1.72497
1.71846
1.71615
1.71555
1.71583
1.71835
1.72262
1.7241
1.7239
1.72286
1.72035
1.71894
1.71903
1.72021
1.72211
1.72327
1.72396
1.72395
1.72334
1.7213
1.71779
1.71406
1.71071
1.70782
1.70567
1.70336
1.69916
1.69398
1.68966
1.686
1.68207
1.67745
1.67309
1.66991
1.66782
1.66642
1.66606
1.66666
1.66879
1.66966
1.66874
1.66729
1.66544
1.6623
1.6573
1.64994
1.91219
1.90209
1.89103
1.88017
1.86908
1.85618
1.8407
1.82266
1.80231
1.78555
1.77989
1.77536
1.76964
1.76381
1.75828
1.75287
1.74711
1.73914
1.7238
1.70059
1.68408
1.68077
1.6789
1.67702
1.67421
1.67041
1.66585
1.65899
1.6454
1.6241
1.61019
1.60612
1.60266
1.59853
1.59449
1.59065
1.58694
1.5824
1.57346
1.55754
1.5476
1.54626
1.54612
1.54857
1.55289
1.5581
1.5684
1.58404
1.60423
1.62765
1.64753
1.66931
1.68398
1.69337
1.70432
1.71912
1.72708
1.72829
1.72718
1.72435
1.72229
1.72052
1.72062
1.72163
1.72226
1.72364
1.72787
1.73063
1.72932
1.72594
1.72142
1.71527
1.71043
1.70942
1.70939
1.70978
1.71218
1.71774
1.72422
1.72627
1.72595
1.72462
1.72064
1.71466
1.71241
1.7121
1.71217
1.71386
1.71791
1.72001
1.71986
1.71903
1.7174
1.71656
1.71624
1.7164
1.71788
1.72001
1.72035
1.72065
1.72076
1.71993
1.71721
1.71369
1.71066
1.70833
1.70694
1.70605
1.70402
1.69942
1.69406
1.68965
1.68588
1.68172
1.67669
1.6719
1.66872
1.66652
1.66564
1.6662
1.66883
1.66985
1.66864
1.66664
1.66426
1.6608
1.65553
1.6483
1.64164
1.92293
1.91363
1.90365
1.8937
1.88231
1.86744
1.84805
1.82541
1.80461
1.79531
1.79148
1.78761
1.78224
1.77691
1.77187
1.76639
1.7589
1.74556
1.72091
1.69871
1.6933
1.69183
1.69162
1.68914
1.68547
1.68123
1.67569
1.66659
1.64797
1.62604
1.61816
1.61431
1.61137
1.60784
1.60417
1.60073
1.59633
1.58833
1.57377
1.5565
1.55139
1.54999
1.54844
1.5481
1.54931
1.5516
1.55266
1.55206
1.55474
1.56348
1.58021
1.60431
1.63398
1.6586
1.67728
1.69615
1.70788
1.71169
1.7127
1.71101
1.70507
1.70297
1.70429
1.7061
1.70828
1.71194
1.717
1.71836
1.71627
1.71213
1.70724
1.70088
1.69637
1.69601
1.69607
1.69727
1.70254
1.71104
1.71578
1.71613
1.71549
1.71226
1.70684
1.70432
1.70425
1.70476
1.70655
1.70989
1.71172
1.71153
1.71123
1.71043
1.70969
1.70944
1.70958
1.71056
1.71285
1.71364
1.71325
1.71242
1.71216
1.71088
1.70816
1.70524
1.70336