/*--------------------------------*- C++ -*----------------------------------*\
  =========                 |
  \\      /  F ield         | OpenFOAM: The Open Source CFD Toolbox
   \\    /   O peration     | Website:  https://openfoam.org
    \\  /    A nd           | Version:  7
     \\/     M anipulation  |
\*---------------------------------------------------------------------------*/
FoamFile
{
    version     2.0;
    format      ascii;
    class       volVectorField;
    location    "1.2";
    object      U;
}
// * * * * * * * * * * * * * * * * * * * * * * * * * * * * * * * * * * * * * //

dimensions      [0 1 -1 0 0 0 0];

internalField   nonuniform List<vector> 
4128
(
(2.43671 -0.0254437 0)
(2.42193 -0.0210262 0)
(2.41747 -0.0191466 0)
(2.42996 -0.0219159 0)
(2.42297 -0.0248059 0)
(2.40749 -0.0248491 0)
(2.39296 -0.0223134 0)
(2.37807 -0.0166496 0)
(2.36265 -0.0142229 0)
(2.34795 -0.0130845 0)
(2.3431 -0.0132302 0)
(2.35488 -0.0142011 0)
(2.36861 -0.0156627 0)
(2.36646 -0.0163152 0)
(2.3626 -0.0163878 0)
(2.35838 -0.0161462 0)
(2.35315 -0.0154288 0)
(2.34816 -0.0146863 0)
(2.34541 -0.0137965 0)
(2.34774 -0.0116301 0)
(2.35198 -0.00712943 0)
(2.34752 -0.00432078 0)
(2.33933 -0.00432937 0)
(2.33139 -0.00501206 0)
(2.32494 -0.00584478 0)
(2.32095 -0.00670848 0)
(2.32315 -0.00770237 0)
(2.33321 -0.00875972 0)
(2.33809 -0.00903871 0)
(2.33841 -0.00880396 0)
(2.33782 -0.00783298 0)
(2.33313 -0.00540993 0)
(2.32652 -0.00205963 0)
(2.32445 -0.000286184 0)
(2.32398 0.000618591 0)
(2.3249 0.00161222 0)
(2.32902 0.00179814 0)
(2.33299 0.00116303 0)
(2.33431 0.000260369 0)
(2.33517 -0.000706823 0)
(2.33758 -0.0019174 0)
(2.34257 -0.0034305 0)
(2.34706 -0.00458778 0)
(2.34887 -0.0047839 0)
(2.35046 -0.00432419 0)
(2.3497 -0.00264933 0)
(2.34812 0.000165451 0)
(2.34914 0.00193329 0)
(2.35108 0.00229873 0)
(2.35677 0.00219385 0)
(2.36615 0.000961543 0)
(2.37269 -0.000790804 0)
(2.37733 -0.00217604 0)
(2.38202 -0.00327199 0)
(2.38663 -0.00377168 0)
(2.39074 -0.0040899 0)
(2.39303 -0.00399034 0)
(2.39074 -0.00283098 0)
(2.38555 -6.96772e-05 0)
(2.38478 0.00294441 0)
(2.38806 0.00469792 0)
(2.39166 0.00542941 0)
(2.39563 0.00578277 0)
(2.40321 0.00536666 0)
(2.41091 0.00435493 0)
(2.41697 0.00325493 0)
(2.42144 0.000790628 0)
(2.4234 -0.0015139 0)
(2.4244 -0.00248954 0)
(2.42357 -0.0033443 0)
(2.42183 -0.00333412 0)
(2.4226 -0.00206526 0)
(2.42514 -0.000255551 0)
(2.42794 0.00150434 0)
(2.43042 0.00256357 0)
(2.43412 0.00298464 0)
(2.44175 0.00274877 0)
(2.4481 0.00229755 0)
(2.45051 0.00224529 0)
(2.45332 0.00232698 0)
(2.45577 0.00248369 0)
(2.45827 0.00258767 0)
(2.46059 0.00259061 0)
(2.46277 0.00249947 0)
(2.46588 0.0022031 0)
(2.47065 0.00113235 0)
(2.47475 -0.00151603 0)
(2.47702 -0.00233011 0)
(2.4798 -0.00240879 0)
(2.48124 -0.00218212 0)
(2.47918 -0.000840639 0)
(2.47521 0.00192978 0)
(2.47198 0.00433876 0)
(2.47066 0.00498288 0)
(2.4695 0.00483017 0)
(2.47013 0.00387955 0)
(2.47114 0.00261291 0)
(2.47104 0.00168068 0)
(2.47008 0.00119829 0)
(2.46848 0.000951749 0)
(2.46665 0.000719141 0)
(2.46497 0.000624082 0)
(2.4637 0.000492468 0)
(2.46357 0.000286227 0)
(2.46455 5.69475e-05 0)
(2.4655 -0.000188099 0)
(2.46615 -0.00024741 0)
(2.46666 0.000270783 0)
(2.46734 0.00122096 0)
(2.46864 0.00197347 0)
(2.472 0.0021417 0)
(2.47962 0.00183597 0)
(2.489 0.00115487 0)
(2.49268 0.000629276 0)
(2.49489 0.000158834 0)
(2.49733 -0.00119079 0)
(2.49928 -0.00311534 0)
(2.50068 -0.00385112 0)
(2.50229 -0.00330745 0)
(2.50636 -0.00201066 0)
(2.51069 -0.000645142 0)
(2.51489 0.000929455 0)
(2.52265 0.00227123 0)
(2.52989 0.00232209 0)
(2.53208 0.00208945 0)
(2.53509 0.00141096 0)
(2.53834 0.000759462 0)
(2.54053 0.000333101 0)
(2.53883 0.000821908 0)
(2.47483 -0.04076 0)
(2.46191 -0.0259792 0)
(2.45773 -0.00934674 0)
(2.46129 -0.00648911 0)
(2.46164 -0.0235473 0)
(2.4458 -0.0331954 0)
(2.42915 -0.033698 0)
(2.41354 -0.02804 0)
(2.39821 -0.0167992 0)
(2.38532 -0.0119691 0)
(2.37955 -0.0091967 0)
(2.3873 -0.00740085 0)
(2.39766 -0.0102857 0)
(2.39648 -0.0155601 0)
(2.39182 -0.0199542 0)
(2.38672 -0.0232864 0)
(2.38121 -0.0240067 0)
(2.3765 -0.0226332 0)
(2.37411 -0.0196198 0)
(2.37654 -0.0140834 0)
(2.37737 -0.00428908 0)
(2.37088 0.00117152 0)
(2.36261 0.00167967 0)
(2.35379 0.00078086 0)
(2.34655 -0.000267154 0)
(2.34174 -0.000622856 0)
(2.3418 -0.00164662 0)
(2.34972 -0.00665509 0)
(2.3569 -0.0133935 0)
(2.35723 -0.017001 0)
(2.35615 -0.0189561 0)
(2.3529 -0.0182864 0)
(2.3467 -0.0123691 0)
(2.343 -0.00591731 0)
(2.34303 -0.00227632 0)
(2.34457 0.00212282 0)
(2.34769 0.00645464 0)
(2.34989 0.00907615 0)
(2.3501 0.0100364 0)
(2.35004 0.0101124 0)
(2.35057 0.00875832 0)
(2.35322 0.00412616 0)
(2.35809 -0.00347564 0)
(2.36178 -0.00954443 0)
(2.36274 -0.0119431 0)
(2.36381 -0.0121781 0)
(2.36455 -0.00818324 0)
(2.36595 -0.000585763 0)
(2.36956 0.00655678 0)
(2.37504 0.0118477 0)
(2.37907 0.0146022 0)
(2.38326 0.014156 0)
(2.38732 0.0114582 0)
(2.39176 0.00680548 0)
(2.39626 0.000121949 0)
(2.39946 -0.00671591 0)
(2.40113 -0.0121988 0)
(2.40035 -0.0147014 0)
(2.39756 -0.0122268 0)
(2.39745 -0.00646447 0)
(2.4008 -0.000765174 0)
(2.40538 0.00503558 0)
(2.41066 0.0113733 0)
(2.4159 0.0167022 0)
(2.41993 0.018639 0)
(2.42265 0.0171535 0)
(2.42626 0.0124881 0)
(2.42896 0.00586557 0)
(2.42979 -0.00109524 0)
(2.42966 -0.00723595 0)
(2.42883 -0.0103814 0)
(2.42995 -0.0103746 0)
(2.43241 -0.00926892 0)
(2.43574 -0.00637847 0)
(2.43987 -0.00181092 0)
(2.44548 0.00286427 0)
(2.45136 0.00661403 0)
(2.45418 0.00743164 0)
(2.45728 0.00729557 0)
(2.46055 0.00745696 0)
(2.46357 0.00825536 0)
(2.46607 0.00956823 0)
(2.46804 0.0109219 0)
(2.4697 0.0119315 0)
(2.47155 0.011994 0)
(2.47349 0.0100145 0)
(2.47732 0.00562962 0)
(2.48127 -0.00117724 0)
(2.48282 -0.00608719 0)
(2.48316 -0.00935936 0)
(2.48337 -0.0101218 0)
(2.48305 -0.00696211 0)
(2.48153 0.000196315 0)
(2.47895 0.00805999 0)
(2.47753 0.012571 0)
(2.47654 0.0139813 0)
(2.47467 0.01313 0)
(2.47374 0.00964532 0)
(2.47326 0.00497721 0)
(2.4723 0.00250777 0)
(2.47072 0.0022172 0)
(2.46918 0.00248517 0)
(2.46756 0.00289751 0)
(2.46626 0.00272615 0)
(2.46593 0.00100721 0)
(2.46677 -0.00166231 0)
(2.46774 -0.00416985 0)
(2.46912 -0.00551057 0)
(2.4714 -0.00483036 0)
(2.47472 -0.0025387 0)
(2.47948 0.000380563 0)
(2.48639 0.00352574 0)
(2.49263 0.00606011 0)
(2.49476 0.00645261 0)
(2.49734 0.00586517 0)
(2.49865 0.00389688 0)
(2.49893 -0.000805413 0)
(2.50115 -0.00683508 0)
(2.50434 -0.00985175 0)
(2.50774 -0.0107721 0)
(2.51311 -0.0102503 0)
(2.52251 -0.00517811 0)
(2.53103 0.00374965 0)
(2.53412 0.00758172 0)
(2.53739 0.00922683 0)
(2.53993 0.00913833 0)
(2.54159 0.00702711 0)
(2.54261 0.00502381 0)
(2.54274 0.00443252 0)
(2.53158 -0.0893481 0)
(2.52424 -0.0737092 0)
(2.52249 -0.0554228 0)
(2.52202 -0.0400957 0)
(2.51689 -0.0371402 0)
(2.50332 -0.044789 0)
(2.48536 -0.0466003 0)
(2.47107 -0.0460498 0)
(2.4589 -0.046524 0)
(2.44766 -0.0488324 0)
(2.44289 -0.0509072 0)
(2.45045 -0.0448603 0)
(2.45551 -0.0367505 0)
(2.45068 -0.033807 0)
(2.44366 -0.0307672 0)
(2.43664 -0.0289207 0)
(2.43064 -0.0300282 0)
(2.42662 -0.0333344 0)
(2.42621 -0.0356955 0)
(2.43128 -0.0320081 0)
(2.43081 -0.0252849 0)
(2.42227 -0.0229778 0)
(2.41269 -0.0219174 0)
(2.40248 -0.0217574 0)
(2.39383 -0.0212719 0)
(2.38824 -0.0200597 0)
(2.3864 -0.0170658 0)
(2.39061 -0.0132083 0)
(2.39488 -0.0120513 0)
(2.39392 -0.0127391 0)
(2.39201 -0.0133695 0)
(2.3898 -0.0147448 0)
(2.38619 -0.0158787 0)
(2.38417 -0.0143651 0)
(2.38374 -0.0122244 0)
(2.38406 -0.0097927 0)
(2.38517 -0.00840861 0)
(2.38596 -0.00866349 0)
(2.38606 -0.00881095 0)
(2.38625 -0.00809562 0)
(2.38698 -0.00619609 0)
(2.38864 -0.00401005 0)
(2.39042 -0.00364368 0)
(2.39168 -0.00543475 0)
(2.39229 -0.00839747 0)
(2.39377 -0.0114663 0)
(2.39586 -0.013569 0)
(2.39857 -0.0136676 0)
(2.40226 -0.0111204 0)
(2.40552 -0.00833174 0)
(2.40943 -0.00599854 0)
(2.41349 -0.00259023 0)
(2.41714 0.0017777 0)
(2.41965 0.00598378 0)
(2.42027 0.00808359 0)
(2.42015 0.00728024 0)
(2.42081 0.00498637 0)
(2.42205 0.002319 0)
(2.42314 -0.000295143 0)
(2.42509 -0.00183926 0)
(2.42824 -0.00202849 0)
(2.43207 -0.00117899 0)
(2.43691 0.00179565 0)
(2.44091 0.0057764 0)
(2.44445 0.0103082 0)
(2.44647 0.0138542 0)
(2.44718 0.0146029 0)
(2.44739 0.0120896 0)
(2.44727 0.00809448 0)
(2.4472 0.00521864 0)
(2.44812 0.00382847 0)
(2.44986 0.00292197 0)
(2.45194 0.00141002 0)
(2.45546 -0.000612079 0)
(2.46034 -0.00177002 0)
(2.46581 -0.0012722 0)
(2.46874 -0.000832525 0)
(2.47071 -0.00111754 0)
(2.47352 -0.00214058 0)
(2.47647 -0.00334527 0)
(2.47971 -0.00420135 0)
(2.48265 -0.00414108 0)
(2.48556 -0.00300422 0)
(2.48821 7.29645e-05 0)
(2.48968 0.00435994 0)
(2.48977 0.00883262 0)
(2.48975 0.011337 0)
(2.48988 0.0104746 0)
(2.49006 0.00756615 0)
(2.49112 0.00456974 0)
(2.49362 0.00141631 0)
(2.49585 -0.000611675 0)
(2.49612 -0.000423927 0)
(2.49572 0.00249152 0)
(2.49362 0.00789937 0)
(2.49028 0.0113326 0)
(2.48683 0.0107305 0)
(2.48495 0.00872995 0)
(2.48368 0.00666154 0)
(2.48265 0.00287651 0)
(2.48276 7.16245e-05 0)
(2.4821 -0.00010451 0)
(2.48132 0.00139543 0)
(2.47906 0.0051696 0)
(2.47643 0.00889177 0)
(2.47526 0.00993717 0)
(2.47503 0.00870921 0)
(2.47669 0.00501232 0)
(2.48072 0.00140794 0)
(2.48575 -0.000658713 0)
(2.49125 -0.0014637 0)
(2.49719 -0.00147997 0)
(2.50107 -0.00155867 0)
(2.50306 -0.00161885 0)
(2.50623 -0.00151084 0)
(2.50772 -0.000956483 0)
(2.5059 0.000370354 0)
(2.50603 0.00164504 0)
(2.50856 0.00160968 0)
(2.51145 -0.000146521 0)
(2.51933 -0.00313319 0)
(2.53201 -0.00378624 0)
(2.54034 -0.00235223 0)
(2.54347 -0.0013968 0)
(2.54794 0.00105211 0)
(2.55131 0.00388594 0)
(2.5513 0.00592135 0)
(2.54889 0.00374106 0)
(2.5479 -6.33874e-05 0)
(2.59277 -0.105892 0)
(2.58668 -0.0954298 0)
(2.5803 -0.0806583 0)
(2.57169 -0.0729666 0)
(2.55788 -0.0748038 0)
(2.54423 -0.0793139 0)
(2.53314 -0.0763821 0)
(2.52037 -0.0674625 0)
(2.51017 -0.0576611 0)
(2.5027 -0.05134 0)
(2.50146 -0.0459259 0)
(2.50644 -0.0378627 0)
(2.50447 -0.0333584 0)
(2.50018 -0.0316355 0)
(2.49337 -0.0320608 0)
(2.48394 -0.0385922 0)
(2.47961 -0.0435158 0)
(2.47596 -0.0456098 0)
(2.47614 -0.0441666 0)
(2.48378 -0.0367605 0)
(2.48433 -0.0269942 0)
(2.47634 -0.0189186 0)
(2.46549 -0.0122517 0)
(2.45344 -0.0100935 0)
(2.4429 -0.010731 0)
(2.43597 -0.0117667 0)
(2.43145 -0.0119649 0)
(2.43249 -0.00984977 0)
(2.43533 -0.00878106 0)
(2.43586 -0.00947927 0)
(2.43578 -0.0106109 0)
(2.43498 -0.012358 0)
(2.43429 -0.0122284 0)
(2.43377 -0.00936051 0)
(2.43226 -0.00384453 0)
(2.43029 0.0013131 0)
(2.42947 0.00286232 0)
(2.42883 0.00222187 0)
(2.42841 -0.000507338 0)
(2.42858 -0.00362679 0)
(2.42872 -0.00534543 0)
(2.42898 -0.00590503 0)
(2.4294 -0.00580746 0)
(2.43027 -0.00515063 0)
(2.43103 -0.00426848 0)
(2.43283 -0.00249489 0)
(2.43523 0.000161063 0)
(2.43811 0.00166348 0)
(2.44103 0.00132423 0)
(2.44362 -0.000987438 0)
(2.44548 -0.00382859 0)
(2.44699 -0.00590605 0)
(2.44828 -0.00748507 0)
(2.44916 -0.00855542 0)
(2.44987 -0.0086588 0)
(2.45179 -0.00728943 0)
(2.45509 -0.00443924 0)
(2.45852 -0.000195107 0)
(2.46139 0.00529241 0)
(2.46345 0.0108416 0)
(2.46489 0.0148969 0)
(2.46683 0.0160605 0)
(2.4699 0.0145177 0)
(2.47294 0.011644 0)
(2.47518 0.00781615 0)
(2.47628 0.00269249 0)
(2.47627 -0.00266752 0)
(2.47664 -0.00613439 0)
(2.47818 -0.00699659 0)
(2.47984 -0.00656955 0)
(2.48162 -0.0044955 0)
(2.48323 -0.0011094 0)
(2.48511 0.00317809 0)
(2.48762 0.00784406 0)
(2.49074 0.0118905 0)
(2.49269 0.0132113 0)
(2.49475 0.0126709 0)
(2.49625 0.0100188 0)
(2.49839 0.00696244 0)
(2.5011 0.00539866 0)
(2.50397 0.00396297 0)
(2.50748 0.00195138 0)
(2.50972 2.67749e-05 0)
(2.51131 -0.00147136 0)
(2.51214 -0.00256949 0)
(2.51164 -0.0032441 0)
(2.51011 -0.00336274 0)
(2.51016 -0.00245162 0)
(2.51166 -0.00129983 0)
(2.51343 0.00169531 0)
(2.51489 0.00572053 0)
(2.51617 0.00927832 0)
(2.51698 0.0123968 0)
(2.51702 0.0145659 0)
(2.51577 0.0158352 0)
(2.51173 0.0159111 0)
(2.50544 0.0130136 0)
(2.50198 0.00955892 0)
(2.50068 0.0071736 0)
(2.49937 0.00313827 0)
(2.49931 -0.00159489 0)
(2.49998 -0.00587357 0)
(2.49934 -0.00809407 0)
(2.49796 -0.00831455 0)
(2.49704 -0.00668986 0)
(2.49612 -0.00204636 0)
(2.49652 0.00262727 0)
(2.49795 0.00565001 0)
(2.49998 0.00792789 0)
(2.50305 0.00890236 0)
(2.5072 0.0080773 0)
(2.51121 0.00475055 0)
(2.51401 -0.00020531 0)
(2.51493 -0.00448599 0)
(2.51589 -0.00939488 0)
(2.5169 -0.0136205 0)
(2.51837 -0.0142303 0)
(2.52112 -0.0116914 0)
(2.52472 -0.00801108 0)
(2.52888 -0.00386408 0)
(2.536 0.00197567 0)
(2.54587 0.00650345 0)
(2.55159 0.00617864 0)
(2.55477 0.00450384 0)
(2.55834 0.00164794 0)
(2.56053 -0.00154394 0)
(2.56072 -0.00431469 0)
(2.56027 -0.00408408 0)
(2.56076 -0.0014842 0)
(2.61897 -0.10424 0)
(2.61298 -0.100885 0)
(2.60662 -0.100393 0)
(2.5978 -0.100421 0)
(2.58492 -0.103383 0)
(2.5698 -0.110426 0)
(2.5588 -0.10776 0)
(2.55067 -0.0912225 0)
(2.54387 -0.0727046 0)
(2.53966 -0.0571688 0)
(2.54061 -0.0504223 0)
(2.53357 -0.0509362 0)
(2.52899 -0.0519357 0)
(2.5236 -0.0532244 0)
(2.51488 -0.0548082 0)
(2.50971 -0.0559331 0)
(2.50682 -0.0553172 0)
(2.50559 -0.051034 0)
(2.50917 -0.0437335 0)
(2.51489 -0.0372901 0)
(2.51249 -0.0326319 0)
(2.50571 -0.0289071 0)
(2.49633 -0.0251236 0)
(2.48467 -0.0243304 0)
(2.4748 -0.0247425 0)
(2.46701 -0.0224498 0)
(2.46358 -0.016906 0)
(2.46148 -0.0133404 0)
(2.46076 -0.0129579 0)
(2.46078 -0.015137 0)
(2.46248 -0.0181467 0)
(2.46503 -0.0194095 0)
(2.46805 -0.016629 0)
(2.46841 -0.0121831 0)
(2.46723 -0.00947454 0)
(2.46413 -0.00676226 0)
(2.46072 -0.00580383 0)
(2.45918 -0.0063586 0)
(2.45869 -0.00658564 0)
(2.45825 -0.00613708 0)
(2.45775 -0.0049446 0)
(2.4572 -0.00403374 0)
(2.45719 -0.00389835 0)
(2.45746 -0.00500955 0)
(2.45866 -0.0080231 0)
(2.46176 -0.0108969 0)
(2.46586 -0.012165 0)
(2.4685 -0.0116526 0)
(2.47152 -0.00882571 0)
(2.47307 -0.00524559 0)
(2.4729 -0.0024308 0)
(2.47232 -0.000937742 0)
(2.47247 -0.000218602 0)
(2.47327 0.000817254 0)
(2.47494 0.00237884 0)
(2.47813 0.00393304 0)
(2.4823 0.00483866 0)
(2.48656 0.00525164 0)
(2.49106 0.00544932 0)
(2.49524 0.00566065 0)
(2.49826 0.00656115 0)
(2.49994 0.00880615 0)
(2.50099 0.0115802 0)
(2.50213 0.0131644 0)
(2.50286 0.0125969 0)
(2.50283 0.00949829 0)
(2.50364 0.0065008 0)
(2.50601 0.00554476 0)
(2.50807 0.00543836 0)
(2.50975 0.00520525 0)
(2.51159 0.00485162 0)
(2.51369 0.00533987 0)
(2.51576 0.00703305 0)
(2.51779 0.00888374 0)
(2.51906 0.00971235 0)
(2.52052 0.00963383 0)
(2.52082 0.0074565 0)
(2.52067 0.00464411 0)
(2.52262 0.00330089 0)
(2.52501 0.00296787 0)
(2.52753 0.00272171 0)
(2.53127 0.00363501 0)
(2.5331 0.00472263 0)
(2.53445 0.00592458 0)
(2.53472 0.00741887 0)
(2.53302 0.00792197 0)
(2.53117 0.00655634 0)
(2.53141 0.00523499 0)
(2.53209 0.00398254 0)
(2.5336 0.00222717 0)
(2.53582 0.00186016 0)
(2.53784 0.00380945 0)
(2.53938 0.00758731 0)
(2.54037 0.0112416 0)
(2.54002 0.0144193 0)
(2.53554 0.0175215 0)
(2.52657 0.0199472 0)
(2.52088 0.0201985 0)
(2.51968 0.0195603 0)
(2.51818 0.0177787 0)
(2.51744 0.0144596 0)
(2.51796 0.00978205 0)
(2.51865 0.00529118 0)
(2.5188 0.00243717 0)
(2.51861 0.00125503 0)
(2.5186 0.00102403 0)
(2.51905 0.00166726 0)
(2.52008 0.00300626 0)
(2.52162 0.00474903 0)
(2.52377 0.00621741 0)
(2.52598 0.00668226 0)
(2.52685 0.00642267 0)
(2.52732 0.00484562 0)
(2.52704 0.00141806 0)
(2.52751 -0.00281599 0)
(2.52945 -0.0060732 0)
(2.53278 -0.00885505 0)
(2.53722 -0.0105584 0)
(2.54193 -0.00962665 0)
(2.54793 -0.00508054 0)
(2.55532 0.00234276 0)
(2.56016 0.00651122 0)
(2.5635 0.00716195 0)
(2.56705 0.00725952 0)
(2.56901 0.00586873 0)
(2.5694 0.00322954 0)
(2.56971 0.00074579 0)
(2.57085 -9.07281e-05 0)
(2.57295 0.00126163 0)
(2.61963 -0.145013 0)
(2.612 -0.145536 0)
(2.61067 -0.141499 0)
(2.60335 -0.126623 0)
(2.59586 -0.119881 0)
(2.58225 -0.125525 0)
(2.5718 -0.12481 0)
(2.56523 -0.106006 0)
(2.56373 -0.0878209 0)
(2.56154 -0.0807249 0)
(2.55561 -0.0814962 0)
(2.54474 -0.0798833 0)
(2.53385 -0.0791433 0)
(2.52549 -0.0753136 0)
(2.52125 -0.0657658 0)
(2.52013 -0.057083 0)
(2.52049 -0.050005 0)
(2.52184 -0.0444461 0)
(2.52261 -0.0415782 0)
(2.52213 -0.0422693 0)
(2.51833 -0.0448691 0)
(2.51244 -0.0451998 0)
(2.50547 -0.0420448 0)
(2.49685 -0.037349 0)
(2.48955 -0.0314923 0)
(2.48549 -0.0246752 0)
(2.47835 -0.0220027 0)
(2.47428 -0.0215936 0)
(2.47036 -0.0213269 0)
(2.46936 -0.0204995 0)
(2.47086 -0.0188763 0)
(2.47591 -0.0147305 0)
(2.48065 -0.0109552 0)
(2.4814 -0.00969525 0)
(2.48075 -0.00932052 0)
(2.47804 -0.00809448 0)
(2.47399 -0.00560241 0)
(2.47229 -0.00421158 0)
(2.47155 -0.00362466 0)
(2.47073 -0.00332292 0)
(2.47005 -0.0036221 0)
(2.46924 -0.0051814 0)
(2.46841 -0.00851679 0)
(2.46923 -0.0112365 0)
(2.47068 -0.0120265 0)
(2.47448 -0.0102995 0)
(2.4796 -0.00502337 0)
(2.48337 0.000396945 0)
(2.4847 0.00323947 0)
(2.48581 0.00459314 0)
(2.48493 0.00151225 0)
(2.48354 -0.00130545 0)
(2.48447 -0.000964352 0)
(2.48681 0.00109332 0)
(2.48967 0.00369354 0)
(2.49261 0.0055511 0)
(2.49607 0.00592633 0)
(2.50039 0.00555493 0)
(2.50515 0.00547294 0)
(2.50976 0.00619582 0)
(2.51388 0.00799213 0)
(2.51706 0.0109231 0)
(2.51842 0.0139789 0)
(2.51787 0.0147131 0)
(2.51686 0.0118173 0)
(2.5175 0.00835167 0)
(2.52046 0.00716358 0)
(2.52341 0.0069308 0)
(2.52639 0.00687545 0)
(2.529 0.00740321 0)
(2.53095 0.0097072 0)
(2.533 0.0127983 0)
(2.53426 0.0148367 0)
(2.53543 0.0154332 0)
(2.53591 0.0144264 0)
(2.53455 0.0101802 0)
(2.53349 0.00584653 0)
(2.535 0.00444714 0)
(2.53694 0.00436537 0)
(2.53913 0.0044117 0)
(2.54256 0.0044784 0)
(2.54682 0.00475991 0)
(2.54836 0.00501589 0)
(2.54957 0.00523096 0)
(2.55001 0.00540556 0)
(2.54824 0.00572851 0)
(2.54564 0.0066747 0)
(2.5454 0.00734184 0)
(2.54583 0.00758416 0)
(2.5466 0.00802933 0)
(2.5488 0.00934882 0)
(2.5521 0.0115714 0)
(2.55399 0.0127392 0)
(2.55515 0.0129181 0)
(2.5557 0.0129316 0)
(2.55255 0.0131659 0)
(2.54491 0.0142608 0)
(2.53754 0.0157007 0)
(2.53502 0.0158936 0)
(2.53412 0.0155169 0)
(2.53291 0.0140932 0)
(2.53238 0.0112605 0)
(2.53293 0.00768096 0)
(2.53413 0.00494037 0)
(2.5349 0.00417751 0)
(2.53538 0.00470091 0)
(2.53607 0.00551516 0)
(2.53704 0.00623944 0)
(2.53762 0.00642411 0)
(2.53761 0.00598385 0)
(2.53713 0.00368471 0)
(2.53671 0.000412398 0)
(2.53657 -0.0021869 0)
(2.53674 -0.0047644 0)
(2.53774 -0.00716713 0)
(2.53948 -0.00853742 0)
(2.54251 -0.00949826 0)
(2.54781 -0.00893251 0)
(2.55462 -0.00493073 0)
(2.56198 0.00118551 0)
(2.56658 0.00496046 0)
(2.56911 0.00588475 0)
(2.57177 0.00556062 0)
(2.57318 0.0030626 0)
(2.57385 0.000402092 0)
(2.57466 -0.000911935 0)
(2.57581 -0.000836456 0)
(2.57747 0.000493909 0)
(2.57989 0.00276194 0)
(2.61532 -0.185276 0)
(2.60536 -0.188785 0)
(2.6016 -0.191871 0)
(2.59497 -0.169851 0)
(2.59518 -0.147666 0)
(2.58439 -0.150552 0)
(2.5722 -0.152345 0)
(2.56424 -0.133188 0)
(2.56224 -0.119322 0)
(2.56024 -0.117795 0)
(2.55321 -0.114182 0)
(2.54293 -0.109541 0)
(2.53378 -0.104168 0)
(2.52708 -0.0954959 0)
(2.52489 -0.0834305 0)
(2.52682 -0.0708416 0)
(2.52709 -0.0631196 0)
(2.52412 -0.0609825 0)
(2.52012 -0.061517 0)
(2.51729 -0.0633284 0)
(2.51495 -0.0638937 0)
(2.5109 -0.0595909 0)
(2.5062 -0.0503335 0)
(2.50161 -0.042518 0)
(2.49721 -0.0358289 0)
(2.49095 -0.0282476 0)
(2.48176 -0.0263587 0)
(2.47593 -0.0269398 0)
(2.47234 -0.0260903 0)
(2.47094 -0.0228216 0)
(2.47307 -0.0163327 0)
(2.47717 -0.0114392 0)
(2.47857 -0.0106101 0)
(2.47923 -0.0113407 0)
(2.48011 -0.0135719 0)
(2.47975 -0.0158974 0)
(2.4773 -0.0171672 0)
(2.47525 -0.0160708 0)
(2.47451 -0.0143318 0)
(2.473 -0.0117582 0)
(2.47131 -0.0112585 0)
(2.4701 -0.0110645 0)
(2.46958 -0.0106546 0)
(2.47036 -0.00871235 0)
(2.47378 -0.00452229 0)
(2.47957 0.000436628 0)
(2.48405 0.0027958 0)
(2.4861 0.00275157 0)
(2.48751 0.00071977 0)
(2.48438 -0.00368076 0)
(2.482 -0.00725442 0)
(2.48413 -0.00761798 0)
(2.48662 -0.00666359 0)
(2.48949 -0.00463381 0)
(2.49253 -0.0020561 0)
(2.49529 0.000984038 0)
(2.49849 0.00438071 0)
(2.50233 0.00736811 0)
(2.50675 0.0110797 0)
(2.51119 0.0152833 0)
(2.51525 0.0183101 0)
(2.51936 0.0200255 0)
(2.52174 0.0195686 0)
(2.51914 0.0146557 0)
(2.51623 0.00891735 0)
(2.51858 0.00646375 0)
(2.52226 0.00570236 0)
(2.52577 0.00537377 0)
(2.52946 0.00645855 0)
(2.53404 0.0101165 0)
(2.53757 0.0146192 0)
(2.53958 0.0179806 0)
(2.54105 0.0198551 0)
(2.54104 0.0195815 0)
(2.53835 0.0153695 0)
(2.53619 0.0104699 0)
(2.53748 0.00819041 0)
(2.53938 0.00686198 0)
(2.5415 0.00543091 0)
(2.54392 0.0043632 0)
(2.54744 0.00396014 0)
(2.55164 0.00387268 0)
(2.55329 0.00366588 0)
(2.55396 0.00382122 0)
(2.5543 0.00457023 0)
(2.55337 0.00634447 0)
(2.55128 0.00986935 0)
(2.55054 0.013255 0)
(2.55112 0.0148979 0)
(2.55258 0.0159728 0)
(2.55522 0.0162932 0)
(2.55818 0.0155625 0)
(2.55929 0.0149732 0)
(2.56021 0.0139109 0)
(2.5599 0.0123696 0)
(2.55748 0.0110512 0)
(2.55245 0.011465 0)
(2.54604 0.0142394 0)
(2.54141 0.0165544 0)
(2.54003 0.0167909 0)
(2.53846 0.0163557 0)
(2.53737 0.0156104 0)
(2.53756 0.0145582 0)
(2.53941 0.0130561 0)
(2.54162 0.0125557 0)
(2.54289 0.0132486 0)
(2.54405 0.0137161 0)
(2.54471 0.0134188 0)
(2.54485 0.0118596 0)
(2.54307 0.00847274 0)
(2.5404 0.0043841 0)
(2.53931 0.00101879 0)
(2.53947 -0.00167261 0)
(2.54011 -0.00383773 0)
(2.54128 -0.00479622 0)
(2.54339 -0.00398433 0)
(2.54736 -0.00190286 0)
(2.55379 0.000993121 0)
(2.56169 0.00425609 0)
(2.56644 0.00543648 0)
(2.56927 0.00462888 0)
(2.57136 0.00223059 0)
(2.57079 -0.000998488 0)
(2.57056 -0.00380032 0)
(2.57249 -0.00427061 0)
(2.57464 -0.00312848 0)
(2.5765 -0.000804636 0)
(2.57876 0.00191949 0)
(2.58157 0.00455023 0)
(2.62961 -0.254777 0)
(2.61256 -0.226649 0)
(2.5984 -0.227375 0)
(2.59108 -0.215148 0)
(2.5897 -0.179263 0)
(2.58292 -0.175259 0)
(2.57081 -0.177563 0)
(2.55754 -0.157272 0)
(2.55385 -0.141371 0)
(2.55007 -0.143402 0)
(2.54558 -0.138742 0)
(2.53795 -0.130036 0)
(2.53071 -0.124088 0)
(2.52737 -0.116136 0)
(2.53012 -0.102311 0)
(2.53156 -0.0888437 0)
(2.52468 -0.0825108 0)
(2.51802 -0.0805809 0)
(2.51239 -0.0786292 0)
(2.50886 -0.0781131 0)
(2.50578 -0.0779968 0)
(2.50604 -0.0745669 0)
(2.50727 -0.0627596 0)
(2.50461 -0.0526291 0)
(2.49816 -0.0472011 0)
(2.48888 -0.0410315 0)
(2.48114 -0.0363508 0)
(2.47542 -0.0336917 0)
(2.47221 -0.0300238 0)
(2.4726 -0.024031 0)
(2.47396 -0.0194916 0)
(2.47404 -0.0177908 0)
(2.47404 -0.0175102 0)
(2.47433 -0.0192945 0)
(2.47498 -0.0229289 0)
(2.47636 -0.0256049 0)
(2.47762 -0.0243924 0)
(2.47725 -0.0194996 0)
(2.47572 -0.0142095 0)
(2.47364 -0.0102198 0)
(2.47175 -0.00785347 0)
(2.47016 -0.00605316 0)
(2.47005 -0.00411258 0)
(2.47242 -0.00195699 0)
(2.47699 -0.000313209 0)
(2.47983 -0.000193367 0)
(2.48158 -0.00145135 0)
(2.48253 -0.00458064 0)
(2.48078 -0.00817242 0)
(2.47858 -0.00936018 0)
(2.47987 -0.00724937 0)
(2.48233 -0.00440129 0)
(2.48513 -0.000117051 0)
(2.48758 0.0026183 0)
(2.49101 0.00521682 0)
(2.49425 0.00825591 0)
(2.49754 0.0120207 0)
(2.50081 0.0157027 0)
(2.50414 0.0178371 0)
(2.50789 0.0182409 0)
(2.51123 0.0172188 0)
(2.51317 0.0147951 0)
(2.51264 0.0109857 0)
(2.51004 0.00739815 0)
(2.51072 0.00683722 0)
(2.51386 0.00737285 0)
(2.51673 0.0085091 0)
(2.52091 0.011278 0)
(2.527 0.0157248 0)
(2.53232 0.0196856 0)
(2.53471 0.021391 0)
(2.53791 0.021993 0)
(2.53961 0.0209004 0)
(2.53669 0.0164667 0)
(2.53342 0.0115223 0)
(2.53408 0.00875473 0)
(2.53595 0.00709247 0)
(2.53801 0.00555458 0)
(2.54016 0.00448572 0)
(2.54254 0.00446285 0)
(2.54648 0.00641723 0)
(2.55026 0.00987634 0)
(2.55226 0.012703 0)
(2.55276 0.0144022 0)
(2.55259 0.0151617 0)
(2.5527 0.0152286 0)
(2.55242 0.0148894 0)
(2.55156 0.0150342 0)
(2.55169 0.0150651 0)
(2.55296 0.0143401 0)
(2.55434 0.0138403 0)
(2.55577 0.0125235 0)
(2.55697 0.0100088 0)
(2.55697 0.00824519 0)
(2.55637 0.00702215 0)
(2.55494 0.00754801 0)
(2.55201 0.00955086 0)
(2.54784 0.0132156 0)
(2.54279 0.0190934 0)
(2.53899 0.024099 0)
(2.53719 0.0261734 0)
(2.53574 0.0274496 0)
(2.53599 0.0263145 0)
(2.53789 0.0231569 0)
(2.54053 0.0188223 0)
(2.54223 0.0152789 0)
(2.54278 0.0126825 0)
(2.54305 0.00846969 0)
(2.54212 0.00459399 0)
(2.54028 0.00183728 0)
(2.53873 0.000456527 0)
(2.53862 -0.00012438 0)
(2.53891 -1.42633e-05 0)
(2.53984 0.000609005 0)
(2.54195 0.00118621 0)
(2.54558 0.00262843 0)
(2.55039 0.00421703 0)
(2.55593 0.0034243 0)
(2.56035 -0.000209202 0)
(2.56212 -0.00277898 0)
(2.56436 -0.00477599 0)
(2.56573 -0.00502532 0)
(2.56541 -0.0031492 0)
(2.5659 -0.000218264 0)
(2.56776 0.00270271 0)
(2.57043 0.00694523 0)
(2.57251 0.0100088 0)
(2.57529 0.0118597 0)
(2.57851 0.012527 0)
(2.66169 -0.362321 0)
(2.6459 -0.328972 0)
(2.62742 -0.298926 0)
(2.61094 -0.276013 0)
(2.60123 -0.231182 0)
(2.60008 -0.213997 0)
(2.59552 -0.210438 0)
(2.57338 -0.190355 0)
(2.56521 -0.170616 0)
(2.55542 -0.171054 0)
(2.54902 -0.167112 0)
(2.54566 -0.153098 0)
(2.54179 -0.144289 0)
(2.53924 -0.133593 0)
(2.53974 -0.121353 0)
(2.5358 -0.110137 0)
(2.5292 -0.105514 0)
(2.52211 -0.102445 0)
(2.51679 -0.100419 0)
(2.51241 -0.0992673 0)
(2.50727 -0.0962188 0)
(2.50714 -0.0894617 0)
(2.51158 -0.0769783 0)
(2.50497 -0.0656198 0)
(2.49634 -0.056129 0)
(2.48829 -0.0497399 0)
(2.48056 -0.0457058 0)
(2.47484 -0.0413893 0)
(2.47392 -0.0345949 0)
(2.47512 -0.029001 0)
(2.47426 -0.0272646 0)
(2.47254 -0.0257291 0)
(2.47065 -0.0243541 0)
(2.47117 -0.025246 0)
(2.47195 -0.0256738 0)
(2.47484 -0.024854 0)
(2.47969 -0.0214687 0)
(2.48014 -0.0178159 0)
(2.47809 -0.0155666 0)
(2.47568 -0.0118352 0)
(2.47429 -0.00844811 0)
(2.47296 -0.00641888 0)
(2.4727 -0.00491133 0)
(2.47369 -0.00374185 0)
(2.47556 -0.0036341 0)
(2.47701 -0.0044071 0)
(2.47843 -0.00637254 0)
(2.47801 -0.00952798 0)
(2.47706 -0.0111519 0)
(2.47842 -0.00983463 0)
(2.48091 -0.00457156 0)
(2.48376 0.00261876 0)
(2.48507 0.00621971 0)
(2.48707 0.00843175 0)
(2.4895 0.0101897 0)
(2.49261 0.0119631 0)
(2.49603 0.013875 0)
(2.49947 0.0153373 0)
(2.5023 0.0159182 0)
(2.50399 0.0154003 0)
(2.50498 0.0136309 0)
(2.5052 0.0102917 0)
(2.50363 0.00675641 0)
(2.50426 0.00696744 0)
(2.50701 0.00933347 0)
(2.50974 0.0130036 0)
(2.51436 0.0172507 0)
(2.52038 0.0213435 0)
(2.52441 0.0228814 0)
(2.528 0.0225106 0)
(2.53173 0.0209596 0)
(2.533 0.0184194 0)
(2.53179 0.0149621 0)
(2.52951 0.0117657 0)
(2.5294 0.00990316 0)
(2.53115 0.00885637 0)
(2.53315 0.00806124 0)
(2.53492 0.00761512 0)
(2.53729 0.00830272 0)
(2.54164 0.0114883 0)
(2.54661 0.0160089 0)
(2.55035 0.0188729 0)
(2.55146 0.0194898 0)
(2.55232 0.0192096 0)
(2.55164 0.0177267 0)
(2.5501 0.0150802 0)
(2.54977 0.01277 0)
(2.55022 0.0114746 0)
(2.55053 0.0110017 0)
(2.55077 0.0112171 0)
(2.5512 0.0115632 0)
(2.55156 0.0119282 0)
(2.55218 0.0125172 0)
(2.55241 0.0138267 0)
(2.55182 0.0163365 0)
(2.55079 0.0201666 0)
(2.54891 0.0240138 0)
(2.54662 0.0263447 0)
(2.54328 0.028512 0)
(2.53833 0.0309446 0)
(2.53419 0.0314199 0)
(2.5323 0.0289422 0)
(2.53202 0.0256072 0)
(2.53288 0.0234098 0)
(2.53467 0.0195835 0)
(2.53662 0.01411 0)
(2.53727 0.00970829 0)
(2.53767 0.0065302 0)
(2.53736 0.0045835 0)
(2.53666 0.00444543 0)
(2.53636 0.00560469 0)
(2.53671 0.00719762 0)
(2.5377 0.0083614 0)
(2.53969 0.00876419 0)
(2.54236 0.00746295 0)
(2.5454 0.00490853 0)
(2.5488 0.00231734 0)
(2.55247 -3.44817e-05 0)
(2.55637 -0.00210402 0)
(2.55957 -0.00289103 0)
(2.56134 -0.00187163 0)
(2.56234 0.000330726 0)
(2.56278 0.00374431 0)
(2.56284 0.0075739 0)
(2.56355 0.010644 0)
(2.56518 0.0121336 0)
(2.56746 0.0128457 0)
(2.57014 0.0129243 0)
(2.57295 0.0122527 0)
(2.67836 -0.418755 0)
(2.67159 -0.408826 0)
(2.65914 -0.397088 0)
(2.6446 -0.368805 0)
(2.63134 -0.323334 0)
(2.62331 -0.276419 0)
(2.61597 -0.258384 0)
(2.59345 -0.233345 0)
(2.57942 -0.204843 0)
(2.56849 -0.206837 0)
(2.55904 -0.202538 0)
(2.55546 -0.178127 0)
(2.55737 -0.160742 0)
(2.55278 -0.14877 0)
(2.54503 -0.139934 0)
(2.5408 -0.134652 0)
(2.53216 -0.125695 0)
(2.52334 -0.118019 0)
(2.51901 -0.115665 0)
(2.51338 -0.113357 0)
(2.5085 -0.108089 0)
(2.51046 -0.100199 0)
(2.51856 -0.090095 0)
(2.5146 -0.0802688 0)
(2.50486 -0.0730849 0)
(2.49519 -0.0621185 0)
(2.48573 -0.0550396 0)
(2.47736 -0.0487452 0)
(2.47738 -0.0423474 0)
(2.47941 -0.0374878 0)
(2.47799 -0.0357045 0)
(2.47598 -0.0341365 0)
(2.47289 -0.0323125 0)
(2.47255 -0.0304262 0)
(2.47329 -0.0293685 0)
(2.47643 -0.0273192 0)
(2.48149 -0.0234095 0)
(2.48156 -0.0204814 0)
(2.47929 -0.0189215 0)
(2.47736 -0.0164455 0)
(2.47549 -0.0138035 0)
(2.47398 -0.0115964 0)
(2.47286 -0.00930583 0)
(2.47253 -0.0067522 0)
(2.47248 -0.00571826 0)
(2.47308 -0.00632792 0)
(2.474 -0.00819925 0)
(2.47532 -0.00928383 0)
(2.47724 -0.00794021 0)
(2.48149 -0.00304807 0)
(2.48462 0.00139017 0)
(2.48686 0.00389074 0)
(2.48738 0.00666566 0)
(2.48653 0.00912852 0)
(2.48787 0.0102371 0)
(2.49056 0.0105851 0)
(2.49391 0.0109153 0)
(2.49739 0.0114623 0)
(2.50006 0.0121017 0)
(2.50123 0.0124114 0)
(2.50038 0.0117439 0)
(2.49865 0.0107353 0)
(2.49967 0.0109319 0)
(2.50196 0.012792 0)
(2.50623 0.0170329 0)
(2.51118 0.0215317 0)
(2.51522 0.0240647 0)
(2.51943 0.0244436 0)
(2.523 0.023205 0)
(2.52536 0.020445 0)
(2.52719 0.0172062 0)
(2.5276 0.0136704 0)
(2.52595 0.010386 0)
(2.5258 0.00942943 0)
(2.52769 0.010097 0)
(2.52977 0.0106419 0)
(2.53149 0.011266 0)
(2.53432 0.0126275 0)
(2.53901 0.0157792 0)
(2.54471 0.0193094 0)
(2.54813 0.02055 0)
(2.55004 0.0202942 0)
(2.55134 0.0191675 0)
(2.55064 0.0171631 0)
(2.54883 0.014511 0)
(2.54725 0.0118189 0)
(2.54733 0.00989434 0)
(2.54842 0.00863855 0)
(2.54929 0.00806327 0)
(2.5498 0.00891567 0)
(2.55058 0.0119375 0)
(2.55111 0.0164266 0)
(2.55143 0.0213458 0)
(2.55174 0.0257137 0)
(2.55149 0.0289974 0)
(2.55026 0.0309415 0)
(2.54867 0.0313121 0)
(2.5461 0.0305854 0)
(2.54099 0.02898 0)
(2.53578 0.0276073 0)
(2.53117 0.025215 0)
(2.52811 0.0224978 0)
(2.52725 0.0209211 0)
(2.52751 0.0198161 0)
(2.52835 0.0181972 0)
(2.53002 0.0153248 0)
(2.5322 0.0122673 0)
(2.5339 0.0106924 0)
(2.53496 0.0107605 0)
(2.53561 0.0116038 0)
(2.53591 0.0121788 0)
(2.5364 0.0118458 0)
(2.53717 0.0100164 0)
(2.53877 0.0078778 0)
(2.5407 0.00542578 0)
(2.54292 0.00291086 0)
(2.54597 0.000528322 0)
(2.55033 -0.00131056 0)
(2.55498 -0.00113446 0)
(2.55921 0.00133211 0)
(2.5619 0.00510235 0)
(2.56287 0.00833314 0)
(2.56297 0.0101814 0)
(2.56282 0.0111599 0)