/*--------------------------------*- C++ -*----------------------------------*\
  =========                 |
  \\      /  F ield         | OpenFOAM: The Open Source CFD Toolbox
   \\    /   O peration     | Website:  https://openfoam.org
    \\  /    A nd           | Version:  7
     \\/     M anipulation  |
\*---------------------------------------------------------------------------*/
FoamFile
{
    version     2.0;
    format      ascii;
    class       volScalarField;
    location    "2.9";
    object      p;
}
// * * * * * * * * * * * * * * * * * * * * * * * * * * * * * * * * * * * * * //

dimensions      [1 -1 -2 0 0 0 0];

internalField   nonuniform List<scalar> 
4128
(
1
1
1
1
1
1
1
1
1
1
1
1
1
1
1
1
1
1
1
1
1
1
1
1
1
1
1
1
1
1
1
1
1
1
1
1.32942
7.58981
10.6057
10.7387
10.948
11.1337
11.3107
11.4735
11.6201
11.7507
11.856
11.9365
11.9957
1
1
1
1
1
1
1
1
1
1
1
1
1
1
1
1
1
1
1
1
1
1
1
1
1
1
1
1
1
1
1
1
1
1
1
1.29038
7.42571
10.5722
10.7261
10.9293
11.1111
11.2836
11.4414
11.5813
11.7038
11.8012
11.873
11.9291
1
1
1
1
1
1
1
1
1
1
1
1
1
1
1
1
1
1
1
1
1
1
1
1
1
1
1
1
1
1
1
1
1
1
1
1.18681
7.12495
10.5434
10.6848
10.8861
11.0681
11.2392
11.3942
11.5288
11.6436
11.7324
11.7907
11.8385
1
1
1
1
1
1
1
1
1
1
1
1
1
1
1
1
1
1
1
1
1
1
1
1
1
1
1
1
1
1
1
1
1
1
1
1.01648
6.62467
10.4919
10.6316
10.8192
10.9911
11.1503
11.2959
11.4243
11.5359
11.6211
11.6702
11.7075
1
1
1
1
1
1
1
1
1
1
1
1
1
1
1
1
1
1
1
1
1
1
1
1
1
1
1
1
1
1
1
1
1
1
1
1.00019
5.95123
10.3147
10.4984
10.6829
10.8584
11.0158
11.1555
11.2707
11.3612
11.428
11.4621
11.5102
1
1
1
1
1
1
1
1
1
1
1
1
1
1
1
1
1
1
1
1
1
1
1
1
1
1
1
1
1
1
1
1
1
1
1
0.999999
5.10636
10.0835
10.3873
10.5564
10.7235
10.8631
10.9823
11.0812
11.16
11.2199
11.2313
11.1908
1
1
1
1
1
1
1
1
1
1
1
1
1
1
1
1
1
1
1
1
1
1
1
1
1
1
1
1
1
1
1
1
1
1
1
1
4.13729
9.72855
10.2707
10.4278
10.5722
10.6815
10.7654
10.8257
10.8466
10.8098
10.7411
10.6986
1
1
1
1
1
1
1
1
1
1
1
1
1
1
1
1
1
1
1
1
1
1
1
1
1
1
1
1
1
1
1
1
1
1
1
1
3.09048
9.17842
10.1837
10.3215
10.4359
10.5091
10.5433
10.5478
10.501
10.4224
10.2971
10.2912
1
1
1
1
1
1
1
1
1
1
1
1
1
1
1
1
1
1
1
1
1
1
1
1
1
1
1
1
1
1
1
1
1
1
1
1
2.00689
8.31592
10.1416
10.1965
10.2874
10.3281
10.3141
10.2541
10.1082
9.84115
9.06323
7.1924
1
1
1
1
1
1
1
1
1
1
1
1
1
1
1
1
1
1
1
1
1
1
1
1
1
1
1
1
1
1
1
1
1
1
1
1
1.127
7.17909
10.1915
10.0906
10.0872
10.0755
10.0199
9.89528
9.65511
9.18376
8.38031
6.30967
1
1
1
1
1
1
1
1
1
1
1
1
1
1
1
1
1
1
1
1
1
1
1
1
1
1
1
1
1
1
1
1
1
1
1
1
1.00155
5.56874
9.58823
9.7238
9.78731
9.76444
9.69057
9.51766
9.21988
8.6567
7.82422
5.89374
1
1
1
1
1
1
1
1
1
1
1
1
1
1
1
1
1
1
1
1
1
1
1
1
1
1
1
1
1
1
1
1
1
1
1
1
0.999977
3.69791
9.00716
9.58997
9.6184
9.55465
9.43563
9.2078
8.8491
8.27585
7.36931
5.80793
1
1
1
1
1
1
1
1
1
1
1
1
1
1
1
1
1
1
1
1
1
1
1
1
1
1
1
1
1
1
1
1
1
1
1
1
0.999994
1.96475
8.04801
9.53014
9.44163
9.3322
9.17408
8.91101
8.51581
7.95502
7.05526
5.84696
1
1
1
1
1
1
1
1
1
1
1
1
1
1
1
1
1
1
1
1
1
1
1
1
1
1
1
1
1
1
1
1
1
1
1
1
0.999999
1.09659
6.28644
9.20079
9.189
9.09074
8.92301
8.65258
8.2637
7.69705
6.87513
5.93114
1
1
1
1
1
1
1
1
1
1
1
1
1
1
1
1
1
1
1
1
1
1
1
1
1
1
1
1
1
1
1
1
1
1
1
1
1
1.0005
3.83701
8.6076
9.04004
8.93671
8.74966
8.44209
8.05745
7.48541
6.76761
5.99558
1
1
1
1
1
1
1
1
1
1
1
1
1
1
1
1
1
1
1
1
1
1
1
1
1
1
1
1
1
1
1
1
1
1
1
1
1
0.999994
1.62174
7.6354
9.07467
8.79635
8.55706
8.24611
7.83555
7.33021
6.71775
6.05699
1
1
1
1
1
1
1
1
1
1
1
1
1
1
1
1
1
1
1
1
1
1
1
1
1
1
1
1
1
1
1
1
1
1
1
1
1
0.999999
1.03385
5.60382
8.64507
8.45807
8.29292
8.02377
7.65871
7.20745
6.67484
6.09366
1
1
1
1
1
1
1
1
1
1
1
1
1
1
1
1
1
1
1
1
1
1
1
1
1
1
1
1
1
1
1
1
1
1
1
1
1
1
0.999969
2.80053
7.90514
8.34884
8.20112
7.93531
7.57862
7.13993
6.64534
6.11974
1
1
1
1
1
1
1
1
1
1
1
1
1
1
1
1
1
1
1
1
1
1
1
1
1
1
1
1
1
1
1
1
1
1
1
1
1
1
0.999988
1.22758
6.07752
8.29981
8.116
7.83163
7.47698
7.06466
6.61488
6.13824
1
1
1
1
1
1
1
1
1
1
1
1
1
1
1
1
1
1
1
1
1
1
1
1
1
1
1
1
1
1
1
1
1
1
1
1
1
1
0.999998
1.00399
3.23342
7.6028
7.99147
7.7057
7.38078
7.00038
6.59319
6.16096
1
1
1
1
1
1
1
1
1
1
1
1
1
1
1
1
1
1
1
1
1
1
1
1
1
1
1
1
1
1
1
1
1
1
1
1
1
1
1
1
1.34031
5.98432
7.96033
7.63751
7.32866
6.96192
6.58138
6.18438
1
1
1
1
1
1
1
1
1
1
1
1
1
1
1
1
1
1
1
1
1
1
1
1
1
1
1
1
1
1
1
1
1
1
1
1
1
1
1
1
1.00929
3.11771
7.22773
7.53664
7.23904
6.90397
6.55655
6.20244
1
1
1
1
1
1
1
1
1
1
1
1
1
1
1
1
1
1
1
1
1
1
1
1
1
1
1
1
1
1
1
1
1
1
1
1
1
1
1
1
1.00003
1.31042
5.46305
7.54885
7.21503
6.91141
6.58473
6.25024
1
1
1
1
1
1
1
1
1
1
1
1
1
1
1
1
1
1
1
1
1
1
1
1
1
1
1
1
1
1
1
1
1
1
1
1
1
1
1
1
1
1.00809
2.51678
6.52753
7.18045
6.8949
6.59232
6.27304
1
1
1
1
1
1
1
1
1
1
1
1
1
1
1
1
1
1
1
1
1
1
1
1
1
1
1
1
1
1
1
1
1
1
1
1
1
1
1
1
1
1.00004
1.16653
4.41123
7.1266
6.91396
6.62901
6.31713
1
1
1
1
1
1
1
1
1
1
1
1
1
1
1
1
1
1
1
1
1
1
1
1
1
1
1
1
1
1
1
1
1
1
1
1
1
1
1
1
1
1
1.00291
1.84235
5.77783
6.91333
6.6172
6.31119
1
1
1
1
1
1
1
1
1
1
1
1
1
1
1
1
1
1
1
1
1
1
1
1
1
1
1
1
1
1
1
1
1
1
1
1
1
1
1
1
1
1
1.00001
1.05425
3.09797
6.30583
6.62668
6.36399
1
1
1
1
1
1
1
1
1
1
1
1
1
1
1
1
1
1
1
1
1
1
1
1
1
1
1
1
1
1
1
1
1
1
1
1
1
1
1
1
1
1
1
1.00065
1.31154
4.41814
6.52438
6.43194
1
1
1
1
1
1
1
1
1
1
1
1
1
1
1
1
1
1
1
1
1
1
1
1
1
1
1
1
1
1
1
1
1
1
1
1
1
1
1
1
1
1
1
1
1.00947
1.90627
5.28738
6.38706
1
1
1
1
1
1
1
1
1
1
1
1
1
1
1
1
1
1
1
1
1
1
1
1
1
1
1
1
1
1
1
1
1
1
1
1
1
1
1
1
1
1
1
1
1.00007
1.06396
2.7267
5.72325
1
1
1
1
1
1
1
1
1
1
1
1
1
1
1
1
1
1
1
1
1
1
1
1
1
1
1
1
1
1
1
1
1
1
1
1
1
1
1
1
1
1
1
1
1
1.00093
1.22004
3.6317
1
1
1
1
1
1
1
1
1
1
1
1
1
1
1
1
1
1
1
1
1
1
1
1
1
1
1
1
1
1
1
1
1
1
1
1
1
1
1
1
1
1
1
1
1
1
1.00603
1.53291
1
1
1
1
1
1
1
1
1
1
1
1
1
1
1
1
1
1
1
1
1
1
1
1
1
1
1
1
1
1
1
1
1
1
1
1
1
1
1
1
1
1
1
1
1
1
1.00004
1.0261
1
1
1
1
1
1
1
1
1
1
1
1
1
1
1
1
1
1
1
1
1
1
1
1
1
1
1
1
1
1
1
1
1
1
1
1
1
1
1
1
1
1
1
1
1
1
1
1.0003
1
1
1
1
1
1
1
1
1
1
1
1
1
1
1
1
1
1
1
1
1
1
1
1
1
1
1
1
1
1
1
1
1
1
1
1
1
1
1
1
1
1
1
1
1
1
1
1
1
1
1
1
1
1
1
1
1
1
1
1
1
1
1
1
1
1
1
1
1
1
1
1
1
1
1
1
1
1
1
1
1
1
1
1
1
1
1
1
1
1
1
1
1
1
1
1
1
1
1
1
1
1
1
1
1
1
1
1
1
1
1
1
1
1
1
1
1
1
1
1
1
1
1
1
1
1
1
1
1
1
1
1
1
1
1
1
1
1
1
1
1
1
1
1
1
1
1
1
1
1
1
1
1
1
1
1
1
1
1
1
1
1
1
1
1
1
1
1
1
1
1
1
1
1
1
1
1
1
1
1
1
1
1
1
1
1
1
1
1
1
1
1
1
1
1
1
1
1
1
1
1
1
1
1
1
1
1
1
1
1
1
1
1
1
1
1
1
1
1
1
1
1
1
1
1
1
1
1
1
1
1
1
1
1
1
1
1
1
1
1
1
1
1
1
1
1
1
1
1
1
1
1
1
1
1
1
1
1
1
1
1
1
1
1
1
1
1
1
1
1
1
1
1
1
1
1
1
1
1
1
1
1
1
1
1
1
1
1
1
1
1
1
1
1
1
1
1
1
1
1
1
1
1
1
1
1
1
1
1
1
1
1
1
1
1
1
1
1
1
1
1
1
1
1
1
1
1
1
1
1
1
1
1
1
1
1
1
1
1
1
1
1
1
1
1
1
1
1
1
1
1
1
1
1
1
1
1
1
1
1
1
1
1
1
1
1
1
1
1
1
1
1
1
1
1
1
1
1
1
1
1
1
1
1
1
1
1
1
1
1
1
1
1
1
1
1
1
1
1
1
1
1
1
1
1
1
1
1
1
1
1
1
1
1
1
1
1
1
1
1
1
1
1
1
1
1
1
1
1
1
1
1
1.6118
0.468287
0.164261
0.121556
0.141449
0.234836
0.36097
0.490199
0.675086
0.842817
0.953288
1.03337
1.08872
1.11641
1.14338
1.21131
1.27637
1.29831
1.28301
1.2845
1.29543
1.30465
1.31641
1.31574
1.3125
1.30067
1.29887
1.32026
1.3442
1.86061
4.71432
5.58297
5.75887
5.93627
6.06379
6.13153
6.18181
6.24713
6.30454
6.32874
6.33317
6.34292
6.35917
6.36957
6.37386
6.37827
6.392
6.41327
2.7037
1.43695
0.968884
0.661372
0.507902
0.526798
0.524332
0.506891
0.521975
0.578202
0.633127
0.70604
0.806328
0.907237
0.984237
1.05818
1.13359
1.18655
1.22498
1.25958
1.26938
1.27626
1.28639
1.29506
1.31042
1.31213
1.30983
1.32391
1.33283
1.67148
4.45594
5.60372
5.7928
5.94421
6.05623
6.1327
6.18948
6.24668
6.29824
6.32592
6.33669
6.34927
6.36348
6.37116
6.37559
6.37665
6.38634
6.40896
3.60817
2.32454
1.67012
1.27182
1.01255
0.865635
0.752729
0.62937
0.574112
0.590185
0.604899
0.648945
0.724577
0.796891
0.860692
0.923047
0.983162
1.06256
1.16015
1.24893
1.28307
1.28574
1.27993
1.29019
1.30715
1.33153
1.3479
1.35433
1.34272
1.40617
3.87724
5.60448
5.85002
5.97097
6.03685
6.11107
6.19173
6.2547
6.28919
6.30758
6.32484
6.3455
6.36242
6.37327
6.38007
6.37846
6.37826
6.39639
4.21914
3.15184
2.42288
1.83839
1.50145
1.301
1.11452
0.934359
0.844658
0.808413
0.755217
0.71426
0.716747
0.726224
0.749794
0.784359
0.828568
0.899272
1.01306
1.12636
1.17687
1.20001
1.21814
1.24532
1.28797
1.33793
1.36847
1.37236
1.35708
1.34511
3.07807
5.48998
5.91155
6.01548
6.04708
6.08373
6.16481
6.25214
6.29709
6.30527
6.31276
6.33389
6.35576
6.37189
6.38478
6.38493
6.37497
6.37951
4.63583
3.71052
3.04036
2.4253
1.98867
1.72561
1.49266
1.25926
1.11384
1.00886
0.92588
0.862233
0.835176
0.805951
0.771362
0.760957
0.758599
0.768917
0.816061
0.906017
0.995934
1.06884
1.13194
1.17228
1.21818
1.27407
1.31476
1.32693
1.33696
1.33599
2.14725
5.26504
6.05127
6.03218
6.05334
6.08172
6.13692
6.209
6.26399
6.29037
6.29963
6.31173
6.32789
6.34243
6.35962
6.36855
6.36168
6.35786
4.97806
4.16748
3.51712
2.92877
2.45934
2.11886
1.8459
1.60859
1.44693
1.29531
1.13074
1.0405
1.01869
0.981766
0.914786
0.858267
0.813763
0.788774
0.788806
0.797031
0.823764
0.868692
0.93949
1.02278
1.09445
1.16267
1.21523
1.2539
1.29467
1.3126
1.49482
4.74559
6.16348
6.05626
6.01563
6.02688
6.08741
6.15467
6.20048
6.23162
6.26153
6.29114
6.30674
6.31406
6.32607
6.33946
6.34249
6.30781
5.19829
4.50288
3.88342
3.30844
2.87413
2.52104
2.17317
1.88185
1.72345
1.57819
1.41791
1.26494
1.1741
1.10898
1.05102
0.994206
0.940781
0.87752
0.816734
0.811703
0.814752
0.827582
0.853521
0.892463
0.930036
0.977924
1.0436
1.10597
1.16669
1.24442
1.31237
4.03303
6.12296
5.97522
5.978
6.01539
6.03906
6.07718
6.11246
6.15745
6.19475
6.22854
6.25073
6.25411
6.25274
6.25053
6.20326
6.18975
5.37217
4.7484
4.17417
3.64271
3.196
2.83759
2.49043
2.19288
1.97109
1.78945
1.64264
1.52912
1.41769
1.2828
1.17884
1.14086
1.1045
1.04272
0.95958
0.908771
0.872876
0.848822
0.850591
0.862113
0.864209
0.867857
0.883129
0.927771
0.988775
1.07288
1.14005
3.20399
5.9571
5.87976
5.84078
5.89265
5.95934
6.00869
6.04431
6.06387
6.10281
6.14975
6.17029
6.16211
6.14485
6.13269
6.05791
6.13583
5.49372
4.93206
4.40135
3.90295
3.48136
3.10624
2.7547
2.47833
2.24932
2.03132
1.83081
1.72042
1.62934
1.51133
1.3668
1.26987
1.211
1.15662
1.10182
1.05144
1.00355
0.935814
0.882131
0.873001
0.864947
0.868691
0.880884
0.882782
0.887541
0.914514
0.943914
2.30837
5.5457
5.77292
5.76
5.81503
5.86369
5.8878
5.92224
5.96081
5.99932
6.01232
6.02749
6.02473
5.99311
5.88409
5.52317
4.50797
5.58384
5.0823
4.58082
4.11909
3.73434
3.35833
2.99971
2.72992
2.49611
2.27838
2.07065
1.92037
1.78783
1.67291
1.56609
1.46922
1.36887
1.25764
1.20274
1.17836
1.14266
1.07968
1.00361
0.952239
0.909322
0.889945
0.893257
0.896761
0.892826
0.882131
0.875247
1.42875
4.85887
5.66473
5.68019
5.73757
5.76302
5.79515
5.8291
5.8472
5.86574
5.89323
5.87982
5.85117
5.76223
5.58297
5.08008
4.13307
5.65626
5.1999
4.72984
4.30711
3.94092
3.57069
3.2314
2.96929
2.72333
2.47761
2.28713
2.13659
1.97907
1.81445
1.69832
1.62359
1.53471
1.42446
1.3208
1.27173
1.2287
1.1821
1.13404
1.08644
1.03425
0.959672
0.919867
0.91623
0.909147
0.901324
0.895442
0.928828
3.75446
5.47106
5.54973
5.65384
5.68605
5.7059
5.72846
5.74843
5.7625
5.77003
5.76508
5.70358
5.57892
5.28384
4.79307
3.937
5.72234
5.2989
4.86975
4.47679
4.1253
3.76376
3.44562
3.18525
2.93512
2.66932
2.47991
2.31666
2.15983
1.99068
1.85843
1.75219
1.65086
1.56219
1.48437
1.4199
1.34422
1.26161
1.22339
1.20025
1.15953
1.0848
1.01736
0.984385
0.947483
0.931017
0.928177
0.924057
2.4452
5.16958
5.52124
5.59445
5.61811
5.63072
5.6428
5.65331
5.65757
5.66236
5.64145
5.54619
5.35041
5.06017
4.59397
3.89681
5.7834
5.38749
4.99057
4.6246
4.28328
3.93847
3.63196
3.36982
3.11137
2.85581
2.6634
2.48626
2.31193
2.14308
2.02567
1.90855
1.78846
1.66792
1.6051
1.55113
1.48214
1.3923
1.31555
1.27984
1.23712
1.18169
1.1307
1.09264
1.0491
0.985678
0.963062
0.949795
1.34042
4.49107
5.44402
5.51297
5.56849
5.58647
5.58669
5.58214
5.58484
5.56693
5.5299
5.41687
5.20645
4.9042
4.46367
3.91334
5.84217
5.47064
5.09957
4.75863
4.42372
4.08768
3.8007
3.54192
3.27123
3.0211
2.83433
2.65447
2.46785
2.29355
2.17326
2.05229
1.93546
1.81368
1.7336
1.65823
1.58347
1.51044
1.44551
1.38697
1.32281
1.2542
1.2143
1.18916
1.15297
1.09762
1.04552
0.99867
1.02035
3.04186
5.24574
5.45665
5.50719
5.527
5.54643
5.54545
5.53078
5.49727
5.42907
5.2955
5.08878
4.79849
4.40174
3.94714
5.90895
5.55289
5.20014
4.87181
4.54529
4.2247
3.94909
3.68981
3.42078
3.18683
2.99402
2.8073
2.6087
2.45053
2.32408
2.19436
2.06271
1.94825
1.87018
1.77877
1.68693
1.5992
1.54614
1.48926
1.4246
1.34191
1.29297
1.26696
1.23005
1.18553
1.14776
1.10061
1.04275
1.60817
4.67931
5.4338
5.49316
5.50618
5.49784
5.48553
5.46413
5.40746
5.31979
5.18036
4.97878
4.71364
4.36867
3.98912
5.93937
5.60556
5.28308
4.9641
4.64289
4.34871
4.08496
3.82493
3.55854
3.34163
3.14629
2.95384
2.74981
2.60093
2.46525
2.33336
2.18943
2.08012
1.99087
1.89534
1.79922
1.70463
1.64131
1.57616
1.51386
1.44418
1.39488
1.35489
1.30903
1.25002
1.21966
1.19539
1.1264
1.15407
3.27561
5.24312
5.45243
5.45257
5.44169
5.42009
5.39284
5.3352
5.22304
5.07105
4.88764
4.65581
4.3542
4.03017
5.98994
5.66858
5.36099
5.05508
4.74856
4.47203
4.21168
3.95268
3.70184
3.49412
3.29216
3.09015
2.89405
2.7492
2.60349
2.4633
2.31433
2.21024
2.10737
2.00629
1.90254
1.81489
1.74634
1.66975
1.59798
1.53254
1.49145
1.44501
1.39313
1.33066
1.28243
1.25889
1.22032
1.17071
1.7189
4.68573
5.40952
5.41112
5.42285
5.39816
5.36458
5.28451
5.14554
5.00131
4.81487
4.60694
4.35066
4.07337
6.01211
5.71493
5.41647
5.12039
4.8478
4.58557
4.32444
4.06189
3.83807
3.6287
3.42462
3.21133
3.03393
2.88259
2.73131
2.57862
2.43575
2.33203
2.22025
2.11552
1.99904
1.91929
1.84468
1.76879
1.69276
1.62209
1.57721
1.52511
1.46994
1.41388
1.3733
1.33073
1.28671
1.22624
1.26243
3.2738
5.2023
5.36649
5.37103
5.34302
5.2893
5.19944
5.08411
4.93528
4.78013
4.59058
4.35552
4.10093
6.0717
5.78883
5.50094
5.21816
4.95355
4.69327
4.43195
4.18489
3.9694
3.7525
3.5449
3.33492
3.17324
3.00784
2.85476
2.69106
2.56321
2.44914
2.33237
2.22053
2.10717
2.02884
1.94338
1.86657
1.78442
1.72053
1.66614
1.60676
1.54671
1.48648
1.45243
1.41233
1.35997
1.29732
1.26334
1.77467
4.51753
5.33613
5.33339
5.32256
5.26851
5.1886
5.06561
4.92307
4.76362
4.58151
4.36002
4.12282
6.14982
5.86232
5.57516
5.30609
5.04476
4.78457
4.52217
4.29753
4.07668
3.86489
3.6462
3.46312
3.29606
3.12603
2.96565
2.80329
2.68612
2.55761
2.44164
2.31745
2.21696
2.13372
2.04296
1.96238
1.87343
1.81391
1.75004
1.68734
1.6245
1.56581
1.52284
1.47748
1.43283
1.38181
1.31323
1.34723
3.01036
5.12422
5.31463
5.28604
5.2314
5.14674
5.0296
4.88866
4.72837
4.54926
4.34646
4.13647
6.20275
5.91114
5.63674
5.37863
5.12067
4.8593
4.62268
4.40508
4.18356
3.96317
3.75377
3.58957
3.40976
3.24492
3.06588
2.92768
2.801
2.66694
2.54723
2.41838
2.33135
2.23452
2.1444
2.05458
1.97044
1.90787
1.83487
1.7708
1.70063
1.64968
1.59991
1.5439
1.49133
1.45627
1.40546
1.35867
1.73062
4.22944
5.24463
5.26999
5.22036
5.12582
5.00478
4.87029
4.72116
4.55218
4.36081
4.15917
6.23409
5.99734
5.7108
5.46177
5.20935
4.95186
4.72801
4.50689
4.29188
4.06303
3.87726
3.69794
3.51963
3.34635
3.17623
3.05097
2.90702
2.7799
2.64156
2.53075
2.43871
2.33236
2.24337
2.14115
2.0694
1.99567
1.9191
1.85145
1.77893
1.7282
1.67127
1.61874
1.55273
1.51554
1.48305
1.41496
1.43162
2.64631
4.88506
5.27711
5.20295
5.10297
4.98762
4.86505
4.72262
4.55744
4.37021
4.17018
5.86358
6.061
5.82212
5.54704
5.28347
5.0452
4.82459
4.60469
4.37748
4.16608
3.99138
3.80201
3.6282
3.43615
3.29667
3.15804
3.01406
2.88355
2.74103
2.6466
2.53623
2.43356
2.33144
2.23405
2.16463
2.0792
2.00685
1.92811
1.86402
1.80694
1.7428
1.6901
1.62894
1.58773
1.5497
1.49447
1.44791
1.66376
3.84365
5.20724
5.16847
5.06363
4.9612
4.85214
4.71946
4.55951
4.37895
4.19
4.32549
5.87839
5.90203
5.6524
5.36495
5.13694
4.91531
4.69377
4.4636
4.28152
4.09402
3.91117
3.72018
3.54591
3.41412
3.2588
3.12418
2.97103
2.85461
2.75172
2.63173
2.53245
2.41415
2.33441
2.25212
2.1641
2.08976
2.00546
1.94864
1.88243
1.82012
1.75838
1.70267
1.66266
1.61765
1.56765
1.49663
1.5034
2.32536
4.621
5.13715
5.04881
4.97514
4.86966
4.73554
4.57629
4.40114
4.2205
1.96433
4.76385
5.81466
5.73986
5.47247
5.23124
5.01121
4.77912
4.56963
4.38781
4.19539
4.01451
3.81254
3.66878
3.51644
3.36443
3.21819
3.06581
2.96676
2.84371
2.7321
2.61558
2.50733
2.4319
2.33498
2.25429
2.1641
2.09083
2.03038
1.95642
1.89838
1.83031
1.78143
1.73345
1.68332
1.63501
1.57638
1.52279
1.62152
3.32085
4.95841
5.07714
4.98823
4.87494
4.73867
4.58669
4.42391
4.25706
1.07626
2.43109
5.04274
5.7182
5.58624
5.3433
5.10168
4.86456
4.67956
4.48878
4.30171
4.09719
3.92318
3.78047
3.61381
3.47121
3.30041
3.1786
3.06588
2.93616
2.82746
2.69492
2.61083
2.52075
2.42363
2.33941
2.24135
2.18088
2.10731
2.0367
1.97096
1.90519
1.85976
1.8026
1.75041
1.69373
1.65136
1.57726
1.57447
2.04287
4.16452
5.06002
4.97785
4.8589
4.73215
4.59757
4.45155
4.29694
1.00134
1.16469
2.88569
5.19441
5.60083
5.45995
5.19865
4.95566
4.77772
4.59123
4.39622
4.18624
4.04001
3.87567
3.71804
3.5577
3.39857
3.29279
3.15643
3.03682
2.9074
2.78841
2.70964
2.60449
2.51693
2.41476
2.33237
2.26744
2.18457
2.11837
2.03862
1.98528
1.93145
1.87032
1.8172
1.75417
1.71779
1.66205
1.59461
1.63439
2.74957
4.63228
4.96902
4.87595
4.7669
4.64602
4.50528
4.34989
1.00001
1.0042
1.29124
3.29791
5.22797
5.48891
5.32779
5.06238
4.86803
4.68739
4.47708
4.29625
4.14567
3.97329
3.81686
3.63339
3.51558
3.39246
3.25195
3.13431
2.98531
2.89617
2.79929
2.6933
2.60215
2.49167
2.42699
2.34813
2.26922
2.19295
2.11337
2.06452
1.99874
1.94066
1.87797
1.82359
1.78287
1.73412
1.66116
1.63368
1.84537
3.55138
4.82549
4.91489
4.81006
4.68761
4.54291
4.38392
1
1.00003
1.01038
1.45014
3.62076
5.19248
5.3798
5.19373
4.97865
4.77528
4.56111
4.40793
4.24702
4.0834
3.89658
3.73176
3.62475
3.48042
3.35648
3.21474
3.08975
3.00268
2.88335
2.7868
2.6745
2.58226
2.51663
2.42735
2.35403
2.26186
2.19737
2.13968
2.06981
2.00964
1.93881
1.89613
1.8472
1.79974
1.74153
1.67569
1.68482
2.26796
4.14662
4.88899
4.83896
4.70264
4.55758
4.40715
1
1
1.00009
1.02138
1.62752
3.82709
5.16985
5.27446
5.12568
4.87787
4.64829
4.50613
4.34735
4.18157
3.97639
3.84606
3.72103
3.57804
3.44844
3.29336
3.20372
3.09387
2.97525
2.87483
2.74871
2.681
2.59793
2.50881
2.43003
2.33679
2.28185
2.21203
2.14564
2.07234
2.00917
1.96872
1.91355
1.86476
1.80491
1.75253
1.70637
1.76546
2.84277
4.47613
4.83928
4.73505
4.59425
4.45451
1
1
1
1.00024
1.0389
1.7821
3.99915
5.11149
5.17657
5.00461
4.75865
4.59219
4.43587
4.26216
4.07958
3.96152
3.8178
3.6814
3.51879
3.39181
3.30522
3.17949
3.07414
2.94463
2.84538
2.77694
2.67519
2.59419
2.49702
2.42162
2.36345
2.28524
2.21983
2.13623
2.08655
2.0404
1.9833
1.92596
1.86339
1.82813
1.76583
1.7444
1.96755
3.45641
4.61151
4.75789
4.65556
4.51603
1
1
1
1
1.00056
1.05801
1.94467
4.09217
5.03386
5.08307
4.90465
4.70572
4.52945
4.33057
4.18737
4.06344
3.91593
3.77467
3.5989
3.50021
3.39537
3.2725
3.15852
3.01916
2.94989
2.86148
2.76075
2.67353
2.56741
2.51238
2.44001
2.36174
2.28874
2.20683
2.16605
2.11089
2.05305
1.98568
1.92484
1.89731
1.84537
1.76688
1.77852
2.29351
3.92112
4.68954
4.70295
4.56918
1
1
1
1
1
1.00098
1.08473
2.06838
4.14833
4.95468
4.98078
4.83439
4.63623
4.416
4.29156
4.15508
4.0138
3.84901
3.69533
3.60792
3.48537
3.36853
3.22728
3.1108
3.04481
2.94204
2.85101
2.74018
2.65587
2.60154
2.51429
2.44051
2.35215
2.28641
2.24449
2.1802
2.1201
2.0453
1.99397
1.96205
1.91667
1.83328
1.78661
1.84749
2.70427
4.22687
4.70516
4.62622
1
1
1
1
1
1
1.00177
1.10793
2.15337
4.15327
4.85839
4.90356
4.76225
4.53419
4.38541
4.24931
4.1103
3.92761
3.80701
3.70432
3.57324
3.45414
3.30095
3.21316
3.13576
3.03292
2.93316
2.80733
2.74848
2.68245
2.59434
2.51628
2.41639
2.37038
2.31926
2.24859
2.18489
2.10721
2.06711
2.02738
1.97708
1.9113
1.83355
1.83811
1.99514
3.1378
4.37035
4.63701
1
1
1
1
1
1
1.00001
1.00249
1.12545
2.21396
4.11766
4.78595
4.83103
4.68899
4.50047
4.35645
4.1921
4.01302
3.91042
3.79209
3.66744
3.53385
3.38608
3.31259
3.22157
3.12018
3.00658
2.89114
2.83663
2.75977
2.6774
2.57952
2.48975
2.45271
2.38907
2.31943
2.24635
2.17385
2.14212
2.09336
2.03758
1.97487
1.32947
0.548935
0.390211
0.426655
0.450396
0.507794
0.62693
0.765707
0.912849
0.984094
1.00242
0.999637
0.994192
1.01993
1.08546
2.14275
1.29903
0.961073
0.835303
0.732394
0.672768
0.661669
0.683886
0.746534
0.812555
0.874843
0.937077
0.972261
1.00315
1.04706
2.63795
1.86728
1.36841
1.09499
0.945272
0.835139
0.734204
0.680786
0.698275
0.744424
0.81683
0.904957
0.969186
0.999049
1.0292
2.96835
2.31289
1.81604
1.4193
1.21159
1.10472
0.997578
0.865201
0.77507
0.765047
0.782514
0.825705
0.886244
0.931886
0.965868
3.22315
2.64132
2.20223
1.82581
1.49181
1.31628
1.2144
1.09965
0.959774
0.851668
0.819332
0.825108
0.857953
0.902999
0.927663
3.42113
2.91718
2.49353
2.16201
1.84827
1.57035
1.39964
1.30615
1.20839
1.09093
0.973339
0.92557
0.917999
0.917626
0.905026
3.56789
3.15803
2.7491
2.40917
2.12642
1.87851
1.65097
1.46997
1.38098
1.30007
1.20177
1.09489
1.00613
0.952027
0.9277
3.68463
3.31219
2.97778
2.63928
2.33488
2.11207
1.91271
1.71287
1.54321
1.44609
1.37534
1.28971
1.19354
1.07949
1.02153
3.76475
3.43851
3.12669
2.84848
2.55217
2.30676
2.1161
1.93827
1.77528
1.62332
1.49
1.42195
1.35752
1.26909
1.17896
3.82321
3.53487
3.25939
2.99118
2.73931
2.51146
2.28911
2.08698
1.95124
1.81831
1.68224
1.55565
1.45881
1.39717
1.32909
3.87096
3.59656
3.34789
3.1099
2.85944
2.64494
2.44767
2.25977
2.09085
1.95344
1.83926
1.72434
1.61271
1.4945
1.40894
3.91466
3.67883
3.43756
3.19699
2.97006
2.76517
2.56607
2.39553
2.24735
2.10081
1.95303
1.84365
1.74017
1.62746
1.53299
3.94676
3.72048
3.49032
3.26436
3.05817
2.86717
2.68481
2.52048
2.37221
2.22747
2.08687
1.95989
1.83201
1.72154
1.64055
3.9638
3.75148
3.53421
3.32496
3.13531
2.95837
2.79722
2.64303
2.48881
2.33699
2.20144
2.0703
1.94336
1.81449
1.71982
3.99344
3.79486
3.59513
3.40081
3.21487
3.04501
2.89409
2.74064
2.58503
2.43763
2.29958
2.16345
2.03433
1.90983
1.82096
4.03421
3.84711
3.6603
3.47588
3.29446
3.13073
2.98008
2.82458
2.66708
2.52606
2.38826
2.25259
2.11444
2.00234
1.92091
4.08294
3.90705
3.72965
3.54998
3.37096
3.21295
3.0616
2.90596
2.7499
2.61227
2.47319
2.33606
2.19377
2.09703
2.01214
4.13365
3.96586
3.79243
3.61391
3.44088
3.28605
3.13411
2.97833
2.82943
2.69331
2.55682
2.41642
2.27679
2.18958
2.103
4.18711
4.02148
3.8522
3.67647
3.51114
3.35846
3.2084
3.05356
2.91095
2.77407
2.64045
2.49902
2.37052
2.28524
2.19705
4.22307
4.06443
3.90255
3.73686
3.58178
3.43494
3.28445
3.12997
2.98967
2.85467
2.72483
2.58554
2.467
2.37555
2.28807
4.25632
4.10896
3.9586
3.80528
3.65821
3.51575
3.36389
3.21042
3.07046
2.93989
2.80773
2.67624
2.56356
2.46959
2.37696
4.31526
4.17492
4.02784
3.87751
3.73433
3.59171
3.43957
3.28611
3.15114
3.02408
2.89246
2.76389
2.65743
2.56124
2.4567
4.37971
4.24117
4.09358
3.94346
3.80088
3.65593
3.50357
3.35568
3.2301
3.10492
2.97642
2.84949
2.7484
2.64405
2.53617
4.42848
4.29233
4.14776
4.00211
3.86257
3.7191
3.56925
3.42763
3.3068
3.18601
3.05707
2.93352
2.83185
2.7263
2.6131
4.47644
4.33441
4.19291
4.05808
3.92465
3.78503
3.63724
3.5081
3.3881
3.2631
3.13084
3.01113
2.91076
2.80192
2.68802
4.54378
4.39256
4.24555
4.11632
3.98879
3.85428
3.7143
3.59294
3.46687
3.33832
3.19885
3.08931
2.98582
2.87388
2.75833
)
;

boundaryField
{
    inlet
    {
        type            fixedValue;
        value           uniform 1;
    }
    outlet
    {
        type            zeroGradient;
    }
    bottom
    {
        type            zeroGradient;
    }
    top
    {
        type            zeroGradient;
    }
    obstacle
    {
        type            zeroGradient;
    }
    defaultFaces
    {
        type            empty;
    }
    procBoundary0to1
    {
        type            processor;
        value           nonuniform List<scalar> 
26
(
1.17325
1.1039
1.06154
0.993942
0.943059
0.90654
0.928718
1.01319
1.10309
1.25091
1.35635
1.44122
1.5595
1.65252
1.73801
1.83519
1.92745
2.01397
2.10257
2.18813
2.26954
2.34609
2.41814
2.49341
2.56829
2.64597
)
;
    }
    procBoundary0to2
    {
        type            processor;
        value           nonuniform List<scalar> 
112
(
1
1
1
1
1
1
1
1
1
1
1
1
1
1
1
1
1
1
1
1
1
1
1
1
1
1
1
1
1
1
1
1
1
1
1
1
1
1
1
1
1
1
1
1
1
1
1
1
1.90806
1.86402
1.87214
2.19329
3.52904
4.43618
1
1
1
1
1
1
1
1.00001
1.00316
1.14096
2.24069
4.0565
4.7114
4.76596
4.64469
4.47975
4.27698
4.10448
3.99883
3.87695
3.75944
3.60628
3.48709
3.41271
3.30537
3.20133
3.07785
2.978
2.92145
2.84322
2.75978
2.64501
2.5714
2.52923
2.45916
2.39139
2.30404
2.24807
2.21711
2.15873
2.09948
1.90806
2.03278
4.58864
4.48267
4.32267
4.1859
4.05912
3.92147
3.79076
3.66998
3.54552
3.41031
3.27124
3.16447
3.05688
2.948
2.83055
)
;
    }
}


// ************************************************************************* //
