/*--------------------------------*- C++ -*----------------------------------*\
  =========                 |
  \\      /  F ield         | OpenFOAM: The Open Source CFD Toolbox
   \\    /   O peration     | Website:  https://openfoam.org
    \\  /    A nd           | Version:  7
     \\/     M anipulation  |
\*---------------------------------------------------------------------------*/
FoamFile
{
    version     2.0;
    format      ascii;
    class       volScalarField;
    location    "4";
    object      rho;
}
// * * * * * * * * * * * * * * * * * * * * * * * * * * * * * * * * * * * * * //

dimensions      [1 -3 0 0 0 0 0];

internalField   nonuniform List<scalar> 
4128
(
1.40001
1.40001
1.40001
1.40001
1.40001
1.40001
1.40001
1.40001
1.40001
1.40001
1.40035
1.42159
1.75176
2.94572
3.67142
3.80263
3.803
3.78706
3.73819
3.6524
3.59866
3.55796
3.49546
3.44466
3.43551
3.42072
3.37667
3.32815
3.2799
3.22893
3.17995
3.12471
3.0704
3.04866
3.02681
2.98718
2.95479
2.92947
2.87725
2.84394
2.81863
2.78362
2.75163
2.71355
2.68224
2.65424
2.6207
2.59588
2.56563
2.52246
2.50479
2.47961
2.45057
2.42822
2.40152
2.38106
2.35505
2.32718
2.30057
2.26217
2.24288
2.22495
2.20424
2.18296
2.16226
2.14963
2.13048
2.10943
2.0824
2.05334
2.03576
2.017
2.00027
1.97936
1.96677
1.9566
1.94069
1.92288
1.9001
1.88152
1.85719
1.85462
1.92036
2.42491
1.40001
1.40001
1.40001
1.40001
1.40001
1.40001
1.40001
1.40001
1.40001
1.40001
1.40001
1.40001
1.40001
1.40001
1.40001
1.40031
1.42419
1.81677
2.9953
3.60792
3.80403
3.81955
3.76043
3.67538
3.64082
3.58958
3.52316
3.49915
3.49933
3.46671
3.41191
3.36022
3.30901
3.25779
3.20363
3.1475
3.11915
3.10141
3.06585
3.02563
3.00251
2.95789
2.90444
2.88192
2.85146
2.81858
2.78651
2.75357
2.7229
2.68842
2.6574
2.6293
2.58231
2.55715
2.53954
2.50717
2.48441
2.46446
2.44254
2.41982
2.38938
2.3609
2.32189
2.28949
2.27506
2.25466
2.23626
2.215
2.19777
2.18341
2.16169
2.13838
2.10546
2.08149
2.0633
2.0445
2.02844
2.0077
1.99686
1.9842
1.96694
1.94643
1.92471
1.91038
1.88993
1.86377
1.86613
1.99332
1.40001
1.40001
1.40001
1.40001
1.40001
1.40001
1.40001
1.40001
1.40001
1.40001
1.40001
1.40001
1.40001
1.40001
1.40001
1.40001
1.40045
1.43176
1.88629
2.9128
3.59784
3.82639
3.79178
3.74061
3.68428
3.61131
3.56703
3.56795
3.55778
3.50044
3.43925
3.38708
3.33626
3.28152
3.22412
3.19158
3.17694
3.14618
3.10158
3.07152
3.03767
2.975
2.94298
2.92073
2.88695
2.85444
2.82241
2.79083
2.75675
2.72308
2.69514
2.64995
2.61276
2.59795
2.56936
2.53882
2.52273
2.50005
2.47938
2.45342
2.42277
2.38876
2.3442
2.32477
2.30754
2.28634
2.27035
2.24794
2.23337
2.21632
2.19306
2.16527
2.13288
2.11237
2.09155
2.07429
2.05674
2.03635
2.0262
2.01088
1.99241
1.96952
1.95117
1.93783
1.9195
1.89338
1.87281
1.88314
1.40001
1.40001
1.40001
1.40001
1.40001
1.40001
1.40001
1.40001
1.40001
1.40001
1.40001
1.40001
1.40001
1.40001
1.40001
1.40001
1.40001
1.40063
1.43838
1.83024
2.71335
3.62986
3.81788
3.78442
3.70731
3.64228
3.63236
3.64138
3.5925
3.51797
3.45998
3.41306
3.36164
3.30139
3.26501
3.25385
3.22823
3.18326
3.14105
3.11142
3.05514
3.00504
2.98649
2.95586
2.92261
2.89372
2.86309
2.82784
2.79009
2.7588
2.71879
2.67289
2.6542
2.63108
2.59625
2.57888
2.56256
2.53664
2.51511
2.48571
2.45326
2.40852
2.37572
2.36036
2.33879
2.32187
2.30466
2.27997
2.26625
2.24554
2.21999
2.1889
2.16254
2.14242
2.12107
2.10623
2.08504
2.06711
2.05553
2.03711
2.01638
1.99346
1.97839
1.96373
1.94696
1.92665
1.89807
1.89069
1.40001
1.40001
1.40001
1.40001
1.40001
1.40001
1.40001
1.40001
1.40001
1.40001
1.40001
1.40001
1.40001
1.40001
1.40001
1.40001
1.40001
1.40001
1.40063
1.42718
1.69583
2.64956
3.66768
3.7275
3.72369
3.70325
3.70718
3.67603
3.59585
3.52781
3.48712
3.44474
3.38417
3.33766
3.32874
3.31019
3.26632
3.21376
3.18241
3.13814
3.07487
3.05128
3.02766
2.99042
2.96006
2.93268
2.90042
2.86191
2.82563
2.78718
2.73847
2.7111
2.69045
2.65728
2.63162
2.62362
2.59644
2.57125
2.54689
2.51491
2.47642
2.43204
2.41174
2.39251
2.37185
2.3598
2.33543
2.31357
2.29861
2.27328
2.24518
2.21479
2.19313
2.17146
2.15271
2.13727
2.11239
2.09916
2.0844
2.06325
2.04101
2.02045
2.00745
1.99056
1.97506
1.9551
1.93216
1.90932
1.40001
1.40001
1.40001
1.40001
1.40001
1.40001
1.40001
1.40001
1.40001
1.40001
1.40001
1.40001
1.40001
1.40001
1.40001
1.40001
1.40001
1.40001
1.40001
1.40032
1.41575
1.66788
2.77602
3.5169
3.68728
3.75582
3.75589
3.68797
3.59759
3.56345
3.53464
3.47484
3.411
3.39587
3.38789
3.34734
3.28981
3.25169
3.21644
3.15257
3.11429
3.09837
3.06318
3.02768
2.99854
2.96854
2.93306
2.89495
2.85699
2.80999
2.77482
2.75273
2.7218
2.68761
2.67742
2.658
2.62586
2.60639
2.5768
2.54175
2.49695
2.46436
2.44518
2.42212
2.40767
2.39235
2.36173
2.34674
2.3276
2.29904
2.27036
2.24396
2.2237
2.20157
2.18551
2.1643
2.14138
2.13041
2.11103
2.08877
2.06589
2.04953
2.03715
2.01956
2.00349
1.98111
1.95995
1.94087
1.40001
1.40001
1.40001
1.40001
1.40001
1.40001
1.40001
1.40001
1.40001
1.40001
1.40001
1.40001
1.40001
1.40001
1.40001
1.40001
1.40001
1.40001
1.40001
1.40001
1.40021
1.41617
1.72551
2.77149
3.43311
3.73766
3.77701
3.71424
3.65756
3.62217
3.55965
3.49204
3.4648
3.46454
3.42846
3.36784
3.32112
3.28892
3.23285
3.17804
3.16353
3.13826
3.09895
3.0691
3.03421
2.99948
2.96345
2.92487
2.88026
2.84033
2.81649
2.78957
2.75348
2.73508
2.71949
2.68316
2.66206
2.63779
2.6033
2.56582
2.52454
2.50072
2.47757
2.45701
2.44449
2.41654
2.39177
2.37903
2.35224
2.32417
2.29856
2.27616
2.25473
2.23427
2.21645
2.18744
2.17211
2.15923
2.13572
2.11472
2.09314
2.08019
2.06683
2.04957
2.03114
2.0049
1.98575
1.96903
1.40001
1.40001
1.40001
1.40001
1.40001
1.40001
1.40001
1.40001
1.40001
1.40001
1.40001
1.40001
1.40001
1.40001
1.40001
1.40001
1.40001
1.40001
1.40001
1.40001
1.40001
1.40028
1.42099
1.75636
2.61917
3.40995
3.77063
3.76641
3.71438
3.63682
3.56942
3.53806
3.54685
3.51809
3.4496
3.38964
3.35729
3.31239
3.24935
3.22533
3.21286
3.17497
3.13918
3.10557
3.06095
3.03021
2.99844
2.9553
2.90706
2.8765
2.85224
2.81831
2.79143
2.77888
2.7466
2.72123
2.70079
2.66619
2.63097
2.58795
2.5551
2.53341
2.50871
2.49438
2.47556
2.44189
2.42781
2.40886
2.37709
2.35266
2.32847
2.30841
2.28629
2.26736
2.24299
2.21398
2.20328
2.18499
2.16063
2.14124
2.12255
2.11195
2.09713
2.0796
2.05599
2.02916
2.01088
1.99306
1.40001
1.40001
1.40001
1.40001
1.40001
1.40001
1.40001
1.40001
1.40001
1.40001
1.40001
1.40001
1.40001
1.40001
1.40001
1.40001
1.40001
1.40001
1.40001
1.40001
1.40001
1.40001
1.40036
1.42214
1.66502
2.38372
3.43185
3.73461
3.69316
3.64113
3.60926
3.61757
3.60109
3.52979
3.45904
3.42516
3.39009
3.32863
3.28896
3.28369
3.25607
3.21097
3.17877
3.13326
3.08672
3.06098
3.02788
2.98488
2.94511
2.917
2.88602
2.85199
2.83361
2.80531
2.77818
2.76036
2.72978
2.69641
2.66182
2.615
2.58924
2.5649
2.54313
2.52768
2.49759
2.47301
2.46106
2.43376
2.40703
2.38516
2.36174
2.34019
2.3175
2.29697
2.26383
2.24302
2.23173
2.20793
2.18712
2.16857
2.15383
2.14331
2.12722
2.10757
2.07819
2.05431
2.03558
2.01703
1.40001
1.40001
1.40001
1.40001
1.40001
1.40001
1.40001
1.40001
1.40001
1.40001
1.40001
1.40001
1.40001
1.40001
1.40001
1.40001
1.40001
1.40001
1.40001
1.40001
1.40001
1.40001
1.40001
1.40027
1.41174
1.56036
2.34266
3.43588
3.59318
3.65992
3.67041
3.67406
3.60993
3.52775
3.49537
3.47503
3.4152
3.35388
3.34601
3.33319
3.28735
3.24772
3.21144
3.15368
3.12083
3.09467
3.05627
3.01371
2.97964
2.95123
2.91947
2.89473
2.86593
2.83876
2.8207
2.79302
2.75768
2.72702
2.68257
2.64525
2.6236
2.59723
2.57933
2.55778
2.52404
2.50946
2.49016
2.46057
2.44089
2.41746
2.39556
2.37093
2.34847
2.324
2.28793
2.27372
2.2578
2.23171
2.21492
2.19701
2.186
2.17422
2.1566
2.13218
2.10071
2.0801
2.06067
2.0429
1.40001
1.40001
1.40001
1.40001
1.40001
1.40001
1.40001
1.40001
1.40001
1.40001
1.40001
1.40001
1.40001
1.40001
1.40001
1.40001
1.40001
1.40001
1.40001
1.40001
1.40001
1.40001
1.40001
1.40001
1.4001
1.40639
1.55121
2.43088
3.27181
3.58315
3.72907
3.70467
3.62439
3.57931
3.56043
3.4986
3.42814
3.40653
3.4065
3.36783
3.31511
3.28407
3.23372
3.17955
3.15554
3.12534
3.08813
3.05103
3.01649
2.98355
2.9554
2.92597
2.89702
2.87774
2.85497
2.82289
2.7937
2.75633
2.70458
2.68071
2.65506
2.62956
2.61147
2.58206
2.55793
2.54359
2.51835
2.49673
2.47423
2.45049
2.42578
2.39858
2.3771
2.34623
2.31536
2.30364
2.28185
2.25872
2.24345
2.22752
2.21829
2.20404
2.18418
2.15436
2.12482
2.10614
2.08668
2.07051
1.40001
1.40001
1.40001
1.40001
1.40001
1.40001
1.40001
1.40001
1.40001
1.40001
1.40001
1.40001
1.40001
1.40001
1.40001
1.40001
1.40001
1.40001
1.40001
1.40001
1.40001
1.40001
1.40001
1.40001
1.40001
1.40008
1.40675
1.58457
2.39835
3.15189
3.6464
3.72933
3.69512
3.64754
3.56887
3.50169
3.47404
3.48446
3.45469
3.38962
3.34799
3.31162
3.25006
3.21382
3.19265
3.15916
3.12247
3.08608
3.05104
3.01995
2.98901
2.95884
2.93687
2.91351
2.88237
2.85164
2.82335
2.77374
2.73842
2.71478
2.68538
2.66501
2.64168
2.60958
2.59234
2.5725
2.5509
2.53148
2.50729
2.48207
2.45236
2.42716
2.40545
2.36798
2.34674
2.33235
2.30598
2.28818
2.27214
2.25998
2.24974
2.23204
2.20895
2.17559
2.15117
2.13308
2.11424
2.09929
1.40001
1.40001
1.40001
1.40001
1.40001
1.40001
1.40001
1.40001
1.40001
1.40001
1.40001
1.40001
1.40001
1.40001
1.40001
1.40001
1.40001
1.40001
1.40001
1.40001
1.40001
1.40001
1.40001
1.40001
1.40001
1.40001
1.40009
1.40856
1.58042
2.16398
3.04347
3.69152
3.70713
3.63571
3.56756
3.53873
3.55377
3.53117
3.46391
3.40866
3.38057
3.33501
3.27518
3.25562
3.2328
3.19553
3.15738
3.12097
3.08508
3.05234
3.02348
2.99828
2.97308
2.94372
2.91285
2.88626
2.84482
2.79974
2.77281
2.74238
2.71696
2.69852
2.66902
2.64474
2.62533
2.60418
2.58579
2.56309
2.53707
2.50667
2.47684
2.45743
2.43093
2.39391
2.37967
2.35904
2.33292
2.31833
2.30211
2.2924
2.27896
2.25923
2.23182
2.19819
2.17836
2.15937
2.14166
2.12723
1.40001
1.40001
1.40001
1.40001
1.40001
1.40001
1.40001
1.40001
1.40001
1.40001
1.40001
1.40001
1.40001
1.40001
1.40001
1.40001
1.40001
1.40001
1.40001
1.40001
1.40001
1.40001
1.40001
1.40001
1.40001
1.40001
1.40001
1.4001
1.40666
1.49524
1.94726
3.10818
3.57634
3.581
3.59243
3.60447
3.59835
3.52891
3.46665
3.44977
3.42129
3.35219
3.31202
3.30302
3.27324
3.22986
3.19215
3.15506
3.1131
3.08429
3.06152
3.03444
3.00442
2.97382
2.94743
2.91365
2.86826
2.83316
2.80044
2.77022
2.75176
2.7277
2.70079
2.68095
2.65983
2.64071
2.61904
2.59238
2.56069
2.52697
2.50511
2.48835
2.4528
2.42808
2.41299
2.38442
2.36317
2.34784
2.33399
2.32346
2.30601
2.28488
2.25231
2.22496
2.20663
2.18581
2.17001
2.15544
1.40001
1.40001
1.40001
1.40001
1.40001
1.40001
1.40001
1.40001
1.40001
1.40001
1.40001
1.40001
1.40001
1.40001
1.40001
1.40001
1.40001
1.40001
1.40001
1.40001
1.40001
1.40001
1.40001
1.40001
1.40001
1.40001
1.40001
1.40001
1.40005
1.40231
1.45335
1.97055
3.03849
3.41798
3.59357
3.65907
3.61626
3.54263
3.52207
3.49568
3.42984
3.37485
3.36717
3.35352
3.3086
3.26504
3.22947
3.1825
3.13941
3.12095
3.09843
3.06775
3.03626
3.00911
2.97859
2.93714
2.89747
2.8602
2.82548
2.80359
2.7834
2.75736
2.73845
2.71919
2.69965
2.67563
2.64579
2.61398
2.5785
2.55066
2.53859
2.51595
2.47999
2.46578
2.44326
2.41174
2.39456
2.3769
2.36538
2.35161
2.33318
2.30727
2.27373
2.25325
2.2329
2.21142
2.19851
2.18308
1.40001
1.40001
1.40001
1.40001
1.40001
1.40001
1.40001
1.40001
1.40001
1.40001
1.40001
1.40001
1.40001
1.40001
1.40001
1.40001
1.40001
1.40001
1.40001
1.40001
1.40001
1.40001
1.40001
1.40001
1.40001
1.40001
1.40001
1.40001
1.40001
1.40002
1.40143
1.4566
2.00953
2.8718
3.41329
3.66302
3.65749
3.61419
3.55911
3.4913
3.44265
3.43282
3.43968
3.39835
3.34169
3.30107
3.25891
3.20277
3.17602
3.16302
3.13563
3.1016
3.07166
3.04124
3.00258
2.96403
2.92332
2.88339
2.85639
2.83838
2.81339
2.79564
2.77953
2.76043
2.73669
2.70025
2.66641
2.63265
2.59841
2.58424
2.57054
2.53696
2.5147
2.50124
2.47026
2.44365
2.42615
2.40864
2.39507
2.3787
2.35876
2.32645
2.30059
2.28059
2.25658
2.23802
2.22751
2.20972
1.40001
1.40001
1.40001
1.40001
1.40001
1.40001
1.40001
1.40001
1.40001
1.40001
1.40001
1.40001
1.40001
1.40001
1.40001
1.40001
1.40001
1.40001
1.40001
1.40001
1.40001
1.40001
1.40001
1.40001
1.40001
1.40001
1.40001
1.40001
1.40001
1.40001
1.40002
1.40165
1.46812
1.90696
2.63246
3.45749
3.65514
3.62169
3.54893
3.50462
3.4954
3.51464
3.47541
3.41322
3.37189
3.33778
3.28329
3.23355
3.2249
3.20658
3.17049
3.13509
3.10508
3.06498
3.02739
2.9894
2.94638
2.91286
2.89372
2.87044
2.8526
2.84047
2.82129
2.79684
2.7571
2.71469
2.68651
2.65437
2.63245
2.6221
2.59852
2.56278
2.54887
2.52999
2.49753
2.47615
2.45781
2.44086
2.42457
2.40693
2.38031
2.35103
2.32906
2.30524
2.279
2.26597
2.25495
2.23445
1.40001
1.40001
1.40001
1.40001
1.40001
1.40001
1.40001
1.40001
1.40001
1.40001
1.40001
1.40001
1.40001
1.40001
1.40001
1.40001
1.40001
1.40001
1.40001
1.40001
1.40001
1.40001
1.40001
1.40001
1.40001
1.40001
1.40001
1.40001
1.40001
1.40001
1.40001
1.40002
1.40176
1.44267
1.69324
2.4997
3.47357
3.53972
3.54169
3.54989
3.57087
3.54466
3.47119
3.43151
3.41719
3.37394
3.29996
3.27733
3.27243
3.24102
3.19882
3.16801
3.12913
3.08502
3.05305
3.01389
2.97427
2.95314
2.93068
2.91046
2.90137
2.88477
2.85692
2.8193
2.76631
2.73111
2.71026
2.68639
2.67282
2.6551
2.62133
2.59281
2.57753
2.55452
2.5283
2.50903
2.4894
2.47033
2.45265
2.43178
2.40415
2.37992
2.35612
2.32687
2.30424
2.29496
2.27916
2.25946
1.40001
1.40001
1.40001
1.40001
1.40001
1.40001
1.40001
1.40001
1.40001
1.40001
1.40001
1.40001
1.40001
1.40001
1.40001
1.40001
1.40001
1.40001
1.40001
1.40001
1.40001
1.40001
1.40001
1.40001
1.40001
1.40001
1.40001
1.40001
1.40001
1.40001
1.40001
1.40001
1.40001
1.40062
1.4164
1.61424
2.5421
3.26678
3.46797
3.59692
3.61697
3.55614
3.5001
3.48908
3.4464
3.37396
3.33031
3.33027
3.31094
3.26523
3.22792
3.19456
3.14154
3.10704
3.08049
3.04146
3.01531
2.99592
2.97196
2.96093
2.94703
2.91647
2.87656
2.82703
2.77797
2.75634
2.74382
2.72942
2.71158
2.6821
2.64543
2.62054
2.60171
2.58144
2.56214
2.5427
2.52185
2.50096
2.48003
2.45612
2.43215
2.40826
2.37937
2.34776
2.33316
2.32215
2.30004
2.28674
1.40001
1.40001
1.40001
1.40001
1.40001
1.40001
1.40001
1.40001
1.40001
1.40001
1.40001
1.40001
1.40001
1.40001
1.40001
1.40001
1.40001
1.40001
1.40001
1.40001
1.40001
1.40001
1.40001
1.40001
1.40001
1.40001
1.40001
1.40001
1.40001
1.40001
1.40001
1.40001
1.40001
1.40001
1.40022
1.41172
1.62655
2.46859
3.12182
3.52113
3.63476
3.60507
3.5688
3.50386
3.43346
3.39082
3.39206
3.3899
3.34176
3.29066
3.25436
3.20825
3.15549
3.13754
3.11354
3.0791
3.06126
3.03688
3.01967
3.00747
2.97625
2.93284
2.88637
2.8351
2.80314
2.79452
2.78513
2.77046
2.74337
2.70375
2.66901
2.64584
2.62737
2.61208
2.59538
2.57525
2.55327
2.52998
2.50644
2.48355
2.4606
2.43344
2.3999
2.37473
2.36268
2.34512
2.32309
2.31623
1.40001
1.40001
1.40001
1.40001
1.40001
1.40001
1.40001
1.40001
1.40001
1.40001
1.40001
1.40001
1.40001
1.40001
1.40001
1.40001
1.40001
1.40001
1.40001
1.40001
1.40001
1.40001
1.40001
1.40001
1.40001
1.40001
1.40001
1.40001
1.40001
1.40001
1.40001
1.40001
1.40001
1.40001
1.40001
1.40019
1.4124
1.62767
2.25805
2.98311
3.5834
3.62231
3.55918
3.48308
3.4482
3.44885
3.46499
3.41939
3.35744
3.31615
3.27552
3.21812
3.1862
3.17984
3.15414
3.12658
3.10377
3.07392
3.05743
3.03225
2.98866
2.94311
2.90127
2.85942
2.84505
2.83871
2.82516
2.80051
2.76492
2.72463
2.69496
2.6741
2.6568
2.64354
2.62667
2.60633
2.58267
2.55671
2.53322
2.51163
2.48702
2.45601
2.42427
2.40535
2.38856
2.36439
2.35102
2.3457
1.40001
1.40001
1.40001
1.40001
1.40001
1.40001
1.40001
1.40001
1.40001
1.40001
1.40001
1.40001
1.40001
1.40001
1.40001
1.40001
1.40001
1.40001
1.40001
1.40001
1.40001
1.40001
1.40001
1.40001
1.40001
1.40001
1.40001
1.40001
1.40001
1.40001
1.40001
1.40001
1.40001
1.40001
1.40001
1.40001
1.4002
1.41122
1.53192
1.96438
2.97041
3.53586
3.47637
3.48506
3.49889
3.52587
3.48856
3.41564
3.37697
3.35052
3.29684
3.24178
3.23489
3.22772
3.19554
3.17281
3.14179
3.10309
3.08054
3.04414
2.9944
2.95694
2.93105
2.90781
2.89346
2.88043
2.85528
2.8188
2.78142
2.74737
2.72492
2.70844
2.69145
2.67573
2.65773
2.63642
2.60936
2.58198
2.56053
2.53914
2.51213
2.48061
2.45476
2.43333
2.40776
2.38699
2.38152
2.37351
1.40001
1.40001
1.40001
1.40001
1.40001
1.40001
1.40001
1.40001
1.40001
1.40001
1.40001
1.40001
1.40001
1.40001
1.40001
1.40001
1.40001
1.40001
1.40001
1.40001
1.40001
1.40001
1.40001
1.40001
1.40001
1.40001
1.40001
1.40001
1.40001
1.40001
1.40001
1.40001
1.40001
1.40001
1.40001
1.40001
1.40001
1.40011
1.40375
1.45799
1.88797
2.90804
3.2993
3.45337
3.56303
3.56262
3.49476
3.43434
3.41679
3.37254
3.31254
3.2931
3.29876
3.27582
3.23598
3.20482
3.16144
3.11921
3.09694
3.05851
3.01079
2.98798
2.97575
2.95889
2.94035
2.91518
2.87723
2.83595
2.80327
2.77581
2.75683
2.74302
2.72521
2.70547
2.68568
2.66278
2.63362
2.60753
2.58833
2.56677
2.53914
2.51068
2.48386
2.45369
2.42611
2.41556
2.41256
2.40057
1.40001
1.40001
1.40001
1.40001
1.40001
1.40001
1.40001
1.40001
1.40001
1.40001
1.40001
1.40001
1.40001
1.40001
1.40001
1.40001
1.40001
1.40001
1.40001
1.40001
1.40001
1.40001
1.40001
1.40001
1.40001
1.40001
1.40001
1.40001
1.40001
1.40001
1.40001
1.40001
1.40001
1.40001
1.40001
1.40001
1.40001
1.40001
1.40002
1.40146
1.44496
1.87667
2.76393
3.26239
3.53726
3.57881
3.53294
3.49692
3.44777
3.38352
3.34966
3.35933
3.3561
3.31185
3.26824
3.22868
3.17363
3.13313
3.11503
3.08083
3.04802
3.0367
3.01993
2.99402
2.96735
2.9343
2.89338
2.85736
2.83584
2.8145
2.79447
2.77859
2.75721
2.73224
2.70823
2.68405
2.65719
2.63471
2.61674
2.59549
2.56958
2.54125
2.50553
2.46973
2.45254
2.44759
2.44393
2.4299
1.40001
1.40001
1.40001
1.40001
1.40001
1.40001
1.40001
1.40001
1.40001
1.40001
1.40001
1.40001
1.40001
1.40001
1.40001
1.40001
1.40001
1.40001
1.40001
1.40001
1.40001
1.40001
1.40001
1.40001
1.40001
1.40001
1.40001
1.40001
1.40001
1.40001
1.40001
1.40001
1.40001
1.40001
1.40001
1.40001
1.40001
1.40001
1.40001
1.40002
1.40122
1.44704
1.84039
2.57085
3.21632
3.56516
3.57224
3.53052
3.45828
3.41049
3.40904
3.42787
3.39139
3.32854
3.28159
3.23869
3.18477
3.15696
3.14542
3.11845
3.09773
3.08122
3.05316
3.01651
2.98668
2.95127
2.91156
2.88727
2.87427
2.85591
2.83378
2.81445
2.78787
2.75343
2.72519
2.70392
2.68359
2.66518
2.6482
2.62829
2.60238
2.56398
2.51921
2.4943
2.486
2.48284
2.47657
2.46307
1.40001
1.40001
1.40001
1.40001
1.40001
1.40001
1.40001
1.40001
1.40001
1.40001
1.40001
1.40001
1.40001
1.40001
1.40001
1.40001
1.40001
1.40001
1.40001
1.40001
1.40001
1.40001
1.40001
1.40001
1.40001
1.40001
1.40001
1.40001
1.40001
1.40001
1.40001
1.40001
1.40001
1.40001
1.40001
1.40001
1.40001
1.40001
1.40001
1.40001
1.40002
1.40128
1.43625
1.67646
2.27906
3.18035
3.52392
3.46731
3.46342
3.46289
3.48264
3.46815
3.3973
3.33918
3.29602
3.24896
3.20466
3.19497
3.19038
3.16884
3.14453
3.1138
3.06576
3.03025
3.00744
2.97424
2.94452
2.93103
2.9171
2.89527
2.87034
2.84316
2.80294
2.76471
2.74298
2.72981
2.71614
2.70007
2.68343
2.66228
2.62462
2.57247
2.53983
2.52982
2.52416
2.52026
2.51121
2.49851
1.40001
1.40001
1.40001
1.40001
1.40001
1.40001
1.40001
1.40001
1.40001
1.40001
1.40001
1.40001
1.40001
1.40001
1.40001
1.40001
1.40001
1.40001
1.40001
1.40001
1.40001
1.40001
1.40001
1.40001
1.40001
1.40001
1.40001
1.40001
1.40001
1.40001
1.40001
1.40001
1.40001
1.40001
1.40001
1.40001
1.40001
1.40001
1.40001
1.40001
1.40001
1.40001
1.40057
1.41343
1.54139
2.14554
3.07876
3.35799
3.46155
3.51351
3.52198
3.47803
3.39414
3.35117
3.311
3.26556
3.24545
3.24985
3.24277
3.212
3.17123
3.12688
3.07329
3.04516
3.03136
3.00751
2.99202
2.97933
2.95868
2.9316
2.89953
2.85333
2.80659
2.77965
2.77123
2.76517
2.75497
2.73891
2.7186
2.68178
2.62525
2.58391
2.57374
2.56955
2.56595
2.55815
2.54789
2.53353
1.40001
1.40001
1.40001
1.40001
1.40001
1.40001
1.40001
1.40001
1.40001
1.40001
1.40001
1.40001
1.40001
1.40001
1.40001
1.40001
1.40001
1.40001
1.40001
1.40001
1.40001
1.40001
1.40001
1.40001
1.40001
1.40001
1.40001
1.40001
1.40001
1.40001
1.40001
1.40001
1.40001
1.40001
1.40001
1.40001
1.40001
1.40001
1.40001
1.40001
1.40001
1.40001
1.40001
1.40013
1.4054
1.50462
2.05825
2.93834
3.32995
3.5114
3.5304
3.47849
3.40293
3.36706
3.32659
3.29771
3.29674
3.3081
3.29143
3.24565
3.18844
3.13079
3.08299
3.06595
3.06284
3.05483
3.04421
3.02431
2.99362
2.95804
2.91128
2.85771
2.81936
2.81044
2.80946
2.8063
2.79533
2.77601
2.7402
2.68105
2.6275
2.61337
2.61019
2.61294
2.60825
2.59803
2.58515
2.56307
1.40001
1.40001
1.40001
1.40001
1.40001
1.40001
1.40001
1.40001
1.40001
1.40001
1.40001
1.40001
1.40001
1.40001
1.40001
1.40001
1.40001
1.40001
1.40001
1.40001
1.40001
1.40001
1.40001
1.40001
1.40001
1.40001
1.40001
1.40001
1.40001
1.40001
1.40001
1.40001
1.40001
1.40001
1.40001
1.40001
1.40001
1.40001
1.40001
1.40001
1.40001
1.40001
1.40001
1.40001
1.40006
1.40388
1.48628
1.98502
2.79747
3.31036
3.52221
3.50323
3.45971
3.40828
3.35348
3.33584
3.34681
3.35506
3.3172
3.25533
3.19856
3.14424
3.10933
3.10081
3.10491
3.10589
3.09076
3.0582
3.01917
2.97137
2.91274
2.86524
2.85168
2.85107
2.85504
2.84908
2.83385
2.80017
2.74024
2.6767
2.65264
2.6494
2.65318
2.65903
2.65151
2.63789
2.61673
2.57659
1.40001
1.40001
1.40001
1.40001
1.40001
1.40001
1.40001
1.40001
1.40001
1.40001
1.40001
1.40001
1.40001
1.40001
1.40001
1.40001
1.40001
1.40001
1.40001
1.40001
1.40001
1.40001
1.40001
1.40001
1.40001
1.40001
1.40001
1.40001
1.40001
1.40001
1.40001
1.40001
1.40001
1.40001
1.40001
1.40001
1.40001
1.40001
1.40001
1.40001
1.40001
1.40001
1.40001
1.40001
1.40001
1.40005
1.40302
1.46579
1.85144
2.55605
3.21691
3.47964
3.46816
3.43703
3.40349
3.39999
3.41512
3.39669
3.32616
3.26059
3.20763
3.16377
3.14421
3.1438
3.15822
3.1575
3.13408
3.082
3.02585
2.97301
2.92044
2.89744
2.89499
2.90219
2.90058
2.88869
2.8604
2.80049
2.72885
2.69289
2.6884
2.69071
2.70452
2.70358
2.69183
2.67093
2.63228
2.57381
1.40001
1.40001
1.40001
1.40001
1.40001
1.40001
1.40001
1.40001
1.40001
1.40001
1.40001
1.40001
1.40001
1.40001
1.40001
1.40001
1.40001
1.40001
1.40001
1.40001
1.40001
1.40001
1.40001
1.40001
1.40001
1.40001
1.40001
1.40001
1.40001
1.40001
1.40001
1.40001
1.40001
1.40001
1.40001
1.40001
1.40001
1.40001
1.40001
1.40001
1.40001
1.40001
1.40001
1.40001
1.40001
1.40001
1.40003
1.40171
1.4351
1.66249
2.29744
3.14646
3.42464
3.4072
3.43586
3.45314
3.45851
3.4101
3.32486
3.27367
3.23603
3.20261
3.19214
3.19885
3.20906
3.19241
3.14042
3.08235
3.03103
2.97992
2.94623
2.94116
2.94701
2.95037
2.93911
2.91432
2.86163
2.78535
2.73777
2.72932
2.72915
2.74518
2.75191
2.74264
2.72427
2.6882
2.63089
2.56901
1.40001
1.40001
1.40001
1.40001
1.40001
1.40001
1.40001
1.40001
1.40001
1.40001
1.40001
1.40001
1.40001
1.40001
1.40001
1.40001
1.40001
1.40001
1.40001
1.40001
1.40001
1.40001
1.40001
1.40001
1.40001
1.40001
1.40001
1.40001
1.40001
1.40001
1.40001
1.40001
1.40001
1.40001
1.40001
1.40001
1.40001
1.40001
1.40001
1.40001
1.40001
1.40001
1.40001
1.40001
1.40001
1.40001
1.40001
1.40001
1.40053
1.41346
1.55851
2.17717
3.00748
3.33773
3.47999
3.48432
3.47401
3.40877
3.32394
3.29827
3.26896
3.2424
3.24022
3.25751
3.24903
3.19958
3.14296
3.08692
3.03515
2.99998
2.99283
2.99746
3.00304
2.9938
2.96442
2.91596
2.8465
2.78775
2.7726
2.77111
2.78311
2.79647
2.78955
2.77329
2.74229
2.68922
2.62344
2.58306
1.40001
1.40001
1.40001
1.40001
1.40001
1.40001
1.40001
1.40001
1.40001
1.40001
1.40001
1.40001
1.40001
1.40001
1.40001
1.40001
1.40001
1.40001
1.40001
1.40001
1.40001
1.40001
1.40001
1.40001
1.40001
1.40001
1.40001
1.40001
1.40001
1.40001
1.40001
1.40001
1.40001
1.40001
1.40001
1.40001
1.40001
1.40001
1.40001
1.40001
1.40001
1.40001
1.40001
1.40001
1.40001
1.40001
1.40001
1.40001
1.40001
1.40017
1.40679
1.52142
2.05524
2.91348
3.29179
3.48291
3.48768
3.42441
3.37807
3.35919
3.32732
3.29464
3.28985
3.28879
3.2529
3.19427
3.14758
3.09952
3.05483
3.04474
3.05042
3.05574
3.04408
3.01146
2.96323
2.90467
2.8438
2.81819
2.81535
2.82268
2.838
2.83527
2.81957
2.7894
2.74487
2.68401
2.63013
2.61988
1.40001
1.40001
1.40001
1.40001
1.40001
1.40001
1.40001
1.40001
1.40001
1.40001
1.40001
1.40001
1.40001
1.40001
1.40001
1.40001
1.40001
1.40001
1.40001
1.40001
1.40001
1.40001
1.40001
1.40001
1.40001
1.40001
1.40001
1.40001
1.40001
1.40001
1.40001
1.40001
1.40001
1.40001
1.40001
1.40001
1.40001
1.40001
1.40001
1.40001
1.40001
1.40001
1.40001
1.40001
1.40001
1.40001
1.40001
1.40001
1.40001
1.40001
1.40008
1.405
1.48587
1.96903
2.71371
3.28651
3.47212
3.41815
3.37374
3.3916
3.383
3.3486
3.33403
3.309
3.25666
3.20005
3.16095
3.1241
3.09895
3.10081
3.11131
3.10333
3.06967
3.01567
2.95582
2.8979
2.8669
2.86247
2.86776
2.88164
2.88006
2.86392
2.83178
2.78973
2.7421
2.68769
2.66241
2.66066
1.40001
1.40001
1.40001
1.40001
1.40001
1.40001
1.40001
1.40001
1.40001
1.40001
1.40001
1.40001
1.40001
1.40001
1.40001
1.40001
1.40001
1.40001
1.40001
1.40001
1.40001
1.40001
1.40001
1.40001
1.40001
1.40001
1.40001
1.40001
1.40001
1.40001
1.40001
1.40001
1.40001
1.40001
1.40001
1.40001
1.40001
1.40001
1.40001
1.40001
1.40001
1.40001
1.40001
1.40001
1.40001
1.40001
1.40001
1.40001
1.40001
1.40001
1.40001
1.40006
1.40287
1.46109
1.80703
2.44912
3.17288
3.43176
3.41068
3.36839
3.35816
3.34674
3.35543
3.33567
3.27987
3.23462
3.20363
3.16527
3.13985
3.1413
3.14858
3.1314
3.08204
3.0208
2.95638
2.91435
2.90731
2.9092
2.92308
2.92495
2.91183
2.87775
2.83571
2.79097
2.74627
2.71396
2.70407
2.69927
1.40001
1.40001
3.18043
3.39288
3.3984
3.37258
3.33523
3.29634
3.25225
3.20501
3.15561
3.10604
3.05709
3.00476
2.97218
2.94032
2.90885
2.87538
2.84116
2.79943
2.75351
2.70467
2.66386
2.6317
2.59612
2.55542
2.50721
2.46868
2.43853
2.41064
2.37904
2.35135
2.63906
3.26127
3.41234
3.40441
3.37242
3.33133
3.28488
3.23585
3.18344
3.13297
3.07924
3.04178
3.01434
2.98286
2.95081
2.9165
2.88049
2.83581
2.78832
2.73827
2.70119
2.66444
2.62561
2.58096
2.53931
2.51126
2.48375
2.45563
2.42332
2.39757
2.10307
2.80515
3.33043
3.42805
3.40526
3.36472
3.31814
3.26963
3.2179
3.16164
3.11067
3.08267
3.05266
3.0238
2.98972
2.95796
2.9193
2.87478
2.82482
2.77786
2.73692
2.69553
2.65455
2.60838
2.57986
2.55558
2.52927
2.49986
2.46983
2.44217
1.91264
2.22158
2.95156
3.38139
3.42173
3.39733
3.35185
3.3049
3.25518
3.19618
3.15523
3.12422
3.09414
3.06111
3.02637
2.99701
2.95784
2.91315
2.86336
2.81731
2.77155
2.72856
2.6826
2.64576
2.62587
2.60053
2.57379
2.54326
2.51462
2.48267
1.91079
1.95753
2.35608
3.10953
3.39427
3.41127
3.38639
3.34116
3.28903
3.23805
3.20006
3.167
3.13556
3.09645
3.0655
3.0336
2.99335
2.94789
2.90083
2.85361
2.80636
2.76073
2.71635
2.69404
2.67143
2.64386
2.61615
2.5861
2.55615
2.51956
1.91852
1.91882
2.00604
2.53624
3.20653
3.41802
3.4191
3.38572
3.33132
3.28184
3.24104
3.20635
3.16747
3.13289
3.10541
3.0693
3.02936
2.98276
2.93401
2.88536
2.83836
2.79079
2.76166
2.74261
2.71428
2.68754
2.65595
2.6269
2.59375
2.55206
1.94428
1.92529
1.93253
2.09126
2.69687
3.28965
3.43878
3.42617
3.38304
3.32951
3.28057
3.2364
3.19705
3.17206
3.14252
3.10413
3.06555
3.01881
2.96747
2.91848
2.86994
2.83112
2.81081
2.78535
2.75704
2.7289
2.69575
2.66681
2.62812
2.57995
1.97403
1.94692
1.94257
1.95987
2.19111
2.82407
3.37606
3.44242
3.4204
3.36324
3.31041
3.26007
3.22905
3.20899
3.17755
3.14062
3.10184
3.05211
2.99945
2.95244
2.90544
2.87637
2.85449
2.82737
2.80109
2.76577
2.73527
2.70252
2.65565
2.60147
2.00179
1.98066
1.96477
1.96679
1.99856
2.28467
2.99693
3.41888
3.42164
3.38716
3.34191
3.29236
3.26482
3.24131
3.20933
3.17523
3.13607
3.08443
3.03551
2.99106
2.9488
2.91911
2.89273
2.86584
2.83434
2.79984
2.77153
2.7309
2.6781
2.62195
2.02808
2.01121
1.99864
1.9846
1.98582
2.03917
2.41903
3.15842
3.38047
3.40264
3.38103
3.33645
3.30264
3.2719
3.23909
3.20643
3.16463
3.11842
3.07744
3.03466
2.99349
2.95853
2.92909
2.89986
2.86403
2.83503
2.80434
2.75697
2.70331
2.65067
2.054
2.03783
2.0304
2.01766
1.99729
2.00116
2.08699
2.58216
3.16592
3.39142
3.4085
3.38066
3.34351
3.30564
3.2685
3.23197
3.19454
3.16073
3.12266
3.08131
3.04059
2.99844
2.96185
2.92538
2.89036
2.865
2.83238
2.78443
2.73845
2.69281
2.08042
2.06629
2.05933
2.04978
2.02658
2.01045
2.01558
2.14623
2.65852
3.24049
3.41475
3.40644
3.37537
3.3391
3.29696
3.25874
3.23442
3.20814
3.17047
3.13131
3.08438
3.03348
2.99139
2.94976
2.91701
2.89178
2.85687
2.81386
2.78043
2.74109
2.10686
2.0954
2.08783
2.0773
2.05931
2.03602
2.02092
2.02816
2.20303
2.74142
3.34097
3.42505
3.39755
3.37294
3.33217
3.29651
3.28014
3.25305
3.21475
3.17145
3.11842
3.06586
3.02043
2.97763
2.94752
2.92067
2.88447
2.85012
2.82355
2.78723
2.13495
2.12468
2.11545
2.1023
2.08637
2.06578
2.0405
2.02723
2.04427
2.25569
2.91444
3.37288
3.3993
3.39818
3.37352
3.33936
3.31872
3.29052
3.25353
3.20436
3.14622
3.09325
3.04739
3.01076
2.98418
2.95439
2.91877
2.8908
2.86217
2.82817
2.16407
2.1538
2.1423
2.12687
2.11068
2.09277
2.06628
2.03942
2.03474
2.06905
2.36349
3.06298
3.34647
3.40118
3.40566
3.38081
3.35087
3.31957
3.27979
3.23015
3.17783
3.12711
3.07776
3.04514
3.02021
2.98927
2.95748
2.93241
2.90136
2.87101
2.19315
2.18188
2.16804
2.15114
2.13486
2.11486
2.09235
2.06745
2.04346
2.04153
2.10175
2.50082
3.11782
3.34974
3.43619
3.41979
3.38521
3.34931
3.30703
3.25802
3.21012
3.15875
3.11101
3.08408
3.05761
3.02497
2.99811
2.97077
2.94042
2.91533
2.22108
2.20889
2.19265
2.17622
2.1585
2.13652
2.11727
2.10046
2.07349
2.05
2.05294
2.14633
2.61255
3.13118
3.40377
3.44479
3.41861
3.3806
3.33941
3.29608
3.24931
3.19151
3.14819
3.12181
3.09268
3.06345
3.0392
3.00843
2.98367
2.95951
2.24946
2.23467
2.21615
2.20037
2.18163
2.16007
2.14539
2.13103
2.10517
2.07071
2.06186
2.06874
2.20114
2.67816
3.20115
3.43947
3.44804
3.42367
3.38133
3.33626
3.28366
3.22694
3.18943
3.1608
3.13163
3.10672
3.07684
3.04734
3.02672
2.99726
2.27797
2.25947
2.24017
2.22471
2.20598
2.18851
2.17468
2.15411
2.12216
2.10142
2.08418
2.07496
2.08743
2.2547
2.75191
3.28709
3.45003
3.44843
3.42331
3.37743
3.31864
3.26426
3.22902
3.20071
3.17592
3.15039
3.11531
3.08835
3.06395
3.02616
2.3053
2.28348
2.26486
2.24999
2.23371
2.21969
2.20215
2.16853
2.13808
2.13078
2.11433
2.09168
2.09161
2.11227
2.3137
2.86442
3.35741
3.44333
3.43872
3.40995
3.35828
3.30645
3.26886
3.24005
3.21647
3.18778
3.15113
3.12384
3.0939
3.05171
2.33048
2.30853
2.29173
2.27769
2.26385
2.2486
2.2217
2.17865
2.16359
2.15707
2.14087
2.12034
2.10584
2.11086
2.14686
2.39832
3.00425
3.36597