/*--------------------------------*- C++ -*----------------------------------*\
  =========                 |
  \\      /  F ield         | OpenFOAM: The Open Source CFD Toolbox
   \\    /   O peration     | Website:  https://openfoam.org
    \\  /    A nd           | Version:  7
     \\/     M anipulation  |
\*---------------------------------------------------------------------------*/
FoamFile
{
    version     2.0;
    format      ascii;
    class       volScalarField;
    location    "1.6";
    object      p;
}
// * * * * * * * * * * * * * * * * * * * * * * * * * * * * * * * * * * * * * //

dimensions      [1 -1 -2 0 0 0 0];

internalField   nonuniform List<scalar> 
4128
(
1.91907
1.88674
1.84424
1.79347
1.72331
1.64513
1.60036
1.58263
1.57152
1.55094
1.52923
1.51409
1.49587
1.47044
1.4306
1.36152
1.2973
1.27681
1.2656
1.25724
1.25252
1.24548
1.23595
1.22557
1.21182
1.1861
1.13277
1.0757
1.05918
1.05293
1.04947
1.0508
1.04902
1.04285
1.03617
1.02796
1.01415
0.983379
0.932804
0.904853
0.899006
0.896351
0.899859
0.901168
0.895188
0.889517
0.883881
0.874277
0.849294
0.809936
0.794738
0.79147
0.790984
0.794877
0.805036
0.813119
0.813271
0.823361
0.843241
0.875436
0.925656
0.984685
1.03973
1.08722
1.12257
1.15418
1.20086
1.21745
1.22021
1.22045
1.21512
1.19777
1.17379
1.16556
1.16896
1.17659
1.19305
1.22149
1.23773
1.23883
1.238
1.23292
1.21843
1.20333
1.19823
1.19717
1.19834
1.2058
1.22115
1.23161
1.23052
1.22565
1.21699
1.20221
1.18759
1.1845
1.1843
1.18489
1.18851
1.19786
1.20665
1.20864
1.20865
1.20668
1.20035
1.19097
1.18653
1.18569
1.18546
1.18709
1.19059
1.19157
1.18877
1.18485
1.17836
1.16861
1.164
1.16325
1.16274
1.16294
1.16566
1.1679
1.167
1.16585
1.16389
1.15969
1.15095
1.14037
1.13606
1.96404
1.92896
1.88035
1.81602
1.74572
1.69109
1.65204
1.63253
1.62055
1.59834
1.57152
1.55213
1.52967
1.49699
1.44608
1.37436
1.33294
1.31734
1.30559
1.29768
1.2931
1.28464
1.27359
1.26149
1.24322
1.20367
1.1366
1.09678
1.08754
1.08201
1.08109
1.08544
1.08177
1.07427
1.06694
1.05786
1.03846
0.992356
0.944259
0.9306
0.925722
0.923444
0.928543
0.929504
0.922982
0.916302
0.908805
0.894471
0.862766
0.827267
0.816234
0.81145
0.808738
0.810846
0.816099
0.815862
0.813714
0.810493
0.804115
0.797897
0.806931
0.837517
0.902417
0.975554
1.05051
1.11284
1.17227
1.19712
1.20257
1.20397
1.19902
1.18029
1.15966
1.15551
1.15976
1.17169
1.19702
1.22601
1.23449
1.23411
1.23156
1.22343
1.20568
1.19398
1.1923
1.19172
1.19465
1.20818
1.22572
1.231
1.22992
1.22536
1.21497
1.19711
1.18502
1.18357
1.18352
1.18479
1.19086
1.20293
1.20943
1.2099
1.20926
1.20554
1.19568
1.18559
1.1828
1.18238
1.18303
1.18788
1.19368
1.19393
1.1913
1.18761
1.18065
1.17053
1.16537
1.16373
1.16251
1.16164
1.16191
1.16434
1.1646
1.16352
1.16153
1.15811
1.15385
1.15008
1.1464
2.00936
1.9714
1.91483
1.83796
1.77772
1.73815
1.70179
1.68017
1.66608
1.6423
1.61267
1.58962
1.56272
1.52161
1.45961
1.39593
1.37498
1.35999
1.34606
1.33776
1.3329
1.32313
1.30963
1.29396
1.26733
1.21264
1.14949
1.12759
1.1202
1.11479
1.11485
1.11839
1.11281
1.10453
1.09585
1.08319
1.05228
0.997184
0.966869
0.95989
0.955243
0.953693
0.958984
0.957955
0.950344
0.942173
0.931724
0.910352
0.874143
0.848189
0.839873
0.834957
0.831993
0.833489
0.834585
0.830319
0.824534
0.816211
0.801793
0.78748
0.782658
0.785221
0.802225
0.843528
0.915323
1.00254
1.0877
1.1505
1.16956
1.17941
1.1762
1.16072
1.15051
1.15008
1.15602
1.17455
1.2011
1.21846
1.22233
1.22099
1.21768
1.20958
1.19338
1.18536
1.18464
1.18444
1.1895
1.20761
1.22418
1.22796
1.22852
1.22611
1.21482
1.1965
1.18635
1.1852
1.1851
1.18622
1.19279
1.20467
1.20852
1.20797
1.20676
1.2023
1.19202
1.18354
1.18114
1.1808
1.18176
1.18703
1.19263
1.19294
1.1911
1.18807
1.18263
1.17456
1.16837
1.16539
1.16333
1.16162
1.16049
1.16095
1.16268
1.16264
1.16166
1.16036
1.15949
1.15813
1.15442
2.0527
2.01025
1.94669
1.86384
1.81688
1.78553
1.74939
1.72611
1.70936
1.6836
1.65233
1.62639
1.59439
1.54422
1.47591
1.4295
1.41827
1.40477
1.38727
1.37735
1.37102
1.35954
1.34266
1.32168
1.2842
1.21951
1.17382
1.16225
1.15553
1.15085
1.15086
1.14998
1.14235
1.13333
1.1225
1.10263
1.05722
1.00815
0.994519
0.989151
0.985787
0.986368
0.988613
0.98329
0.975225
0.966179
0.952547
0.925097
0.890839
0.873506
0.866207
0.860995
0.858345
0.858939
0.856541
0.850821
0.842565
0.828589
0.804602
0.785923
0.783675
0.783953
0.785498
0.792665
0.814419
0.862291
0.928169
1.00792
1.05924
1.10201
1.12381
1.12988
1.13825
1.14285
1.1544
1.18053
1.20245
1.20931
1.21076
1.20876
1.20277
1.1929
1.18007
1.17755
1.17933
1.18136
1.19055
1.21135
1.22266
1.22479
1.22602
1.22207
1.20731
1.19238
1.18542
1.1837
1.18347
1.18567
1.19469
1.20667
1.20852
1.20711
1.20518
1.20103
1.19196
1.18464
1.18247
1.18191
1.182
1.18378
1.1881
1.18916
1.18814
1.18608
1.18227
1.17626
1.1708
1.16791
1.16589
1.16392
1.16242
1.16227
1.16406
1.16481
1.16485
1.16508
1.16503
1.16199
1.15349
2.09054
2.0407
1.97453
1.89625
1.86132
1.83552
1.79944
1.77285
1.75289
1.72571
1.6908
1.65969
1.62037
1.56377
1.50141
1.47166
1.46325
1.45059
1.42936
1.41604
1.40668
1.39274
1.37054
1.34146
1.29566
1.23557
1.20747
1.19924
1.1931
1.18869
1.18593
1.18086
1.17187
1.16065
1.14481
1.11395
1.06242
1.03139
1.02368
1.01895
1.01771
1.02083
1.0164
1.00833
0.999873
0.989115
0.969793
0.934965
0.907783
0.897911
0.891402
0.886362
0.884266
0.884077
0.880617
0.874573
0.864825
0.845859
0.815614
0.798656
0.795821
0.793578
0.792434
0.794143
0.798212
0.806273
0.82276
0.855317
0.896265
0.944102
0.999801
1.04973
1.09156
1.11348
1.13478
1.17288
1.19919
1.20355
1.20411
1.20171
1.19216
1.17588
1.16656
1.16941
1.17559
1.18435
1.20253
1.22175
1.22465
1.22433
1.22235
1.21329
1.19604
1.18367
1.17947
1.1778
1.17805
1.18467
1.19967
1.21143
1.2129
1.21156
1.20834
1.20153
1.19089
1.18403
1.1821
1.18145
1.18071
1.18067
1.1841
1.1867
1.18622
1.18474
1.18126
1.17533
1.17133
1.16996
1.169
1.16786
1.16677
1.16768
1.16937
1.16918
1.16864
1.16795
1.16446
1.15514
1.14298
2.12403
2.06523
2.00043
1.93603
1.90933
1.88793
1.8536
1.82332
1.79896
1.76868
1.72733
1.68564
1.63698
1.58298
1.53613
1.51774
1.51048
1.49606
1.4726
1.45385
1.4407
1.42118
1.39334
1.35413
1.30721
1.26396
1.24446
1.2362
1.23129
1.22546
1.2179
1.21018
1.19999
1.18565
1.1631
1.12226
1.07885
1.06071
1.05337
1.04859
1.04829
1.04961
1.04275
1.03379
1.0244
1.01094
0.984262
0.946967
0.930113
0.923217
0.91678
0.911894
0.909934
0.907895
0.903012
0.896091
0.884376
0.861013
0.831517
0.820547
0.817463
0.815329
0.812342
0.807706
0.805158
0.806394
0.807354
0.806691
0.809092
0.817207
0.851788
0.912416
0.982088
1.04531
1.09923
1.14988
1.17432
1.18182
1.18489
1.18412
1.17623
1.16047
1.15277
1.15684
1.16801
1.18624
1.21094
1.22345
1.22366
1.22134
1.21558
1.20215
1.18455
1.17742
1.17524
1.17392
1.17681
1.19102
1.20968
1.21738
1.21757
1.2149
1.20729
1.19363
1.18187
1.17748
1.17705
1.17749
1.17768
1.17924
1.18626
1.19032
1.19008
1.18824
1.18295
1.17532
1.17196
1.17042
1.16969
1.17029
1.17208
1.17504
1.17576
1.17407
1.17128
1.16663
1.15667
1.1423
1.1339
2.15643
2.09149
2.03168
1.98205
1.95979
1.94131
1.90871
1.87553
1.84702
1.81245
1.76128
1.70253
1.65082
1.61066
1.57846
1.56466
1.55696
1.54001
1.51473
1.49035
1.47261
1.44625
1.41097
1.36435
1.32629
1.30384
1.28374
1.27255
1.26734
1.25982
1.24889
1.23779
1.22466
1.20669
1.17838
1.13449
1.10579
1.09495
1.08545
1.07904
1.07711
1.07545
1.06809
1.05828
1.04693
1.02855
0.994152
0.96379
0.955841
0.949796
0.943325
0.938574
0.935663
0.932218
0.9265
0.91773
0.901933
0.872473
0.848157
0.84277
0.840395
0.838671
0.834356
0.82856
0.822804
0.818383
0.813705
0.806142
0.79284
0.784991
0.788343
0.80596
0.847194
0.921542
0.99927
1.07783
1.11587
1.14256
1.1532
1.15256
1.14986
1.14353
1.13807
1.14175
1.1592
1.18657
1.20646
1.21364
1.21438
1.21246
1.20551
1.19005
1.17667
1.17481
1.17403
1.17507
1.18466
1.2065
1.22073
1.22302
1.22186
1.2153
1.19909
1.18055
1.16888
1.16644
1.16739
1.16985
1.17375
1.18333
1.19611
1.19939
1.19884
1.19496
1.18434
1.17274
1.16868
1.16654
1.16606
1.16969
1.17677
1.18208
1.18221
1.17956
1.17377
1.16249
1.14509
1.1321
1.12897
2.19242
2.12994
2.07496
2.03625
2.01502
1.99353
1.9608
1.92398
1.89026
1.84689
1.78337
1.71563
1.6765
1.65083
1.62501
1.61152
1.60159
1.58212
1.55377
1.52443
1.49984
1.46698
1.4257
1.37944
1.35641
1.34524
1.32659
1.30827
1.30042
1.29154
1.2784
1.26325
1.24575
1.22483
1.19502
1.15576
1.1352
1.12887
1.11942
1.10888
1.10422
1.10071
1.09311
1.0816
1.06633
1.04112
1.00422
0.986192
0.981783
0.976382
0.970493
0.966108
0.961746
0.956686
0.949714
0.938219
0.915656
0.882963
0.868136
0.864436
0.863535
0.863167
0.857644
0.85182
0.84581
0.839378
0.831128
0.815229
0.790698
0.781996
0.782504
0.784807
0.792179
0.814913
0.858066
0.92135
0.990933
1.0472
1.09516
1.10655
1.11729
1.12444
1.11951
1.1252
1.15383
1.1859
1.19772
1.20191
1.20208
1.19894
1.19063
1.17526
1.16751
1.16931
1.17165
1.17825
1.19897
1.22165
1.22613
1.22577
1.22308
1.21112
1.18663
1.16159
1.155
1.15481
1.15667
1.16246
1.1752
1.19639
1.21007
1.21108
1.20827
1.1981
1.17807
1.16486
1.1613
1.1591
1.15967
1.16752
1.1812
1.18804
1.18793
1.18513
1.17664
1.15741
1.13553
1.12717
1.12592
2.23338
2.18209
2.13347
2.1002
2.07404
2.04468
2.00853
1.96482
1.92026
1.8643
1.79419
1.73757
1.71824
1.70014
1.67545
1.65995
1.64537
1.62287
1.58833
1.55162
1.5198
1.48341
1.44317
1.40655
1.39551
1.38692
1.36943
1.34676
1.33129
1.31797
1.3036
1.28577
1.26401
1.24251
1.21719
1.1845
1.16522
1.15914
1.15191
1.13969
1.13129
1.12604
1.11769
1.10387
1.08291
1.04948
1.01899
1.01104
1.00702
1.00214
0.997494
0.992867
0.987609
0.981485
0.972773
0.956571
0.92638
0.897481
0.888899
0.884758
0.88321
0.884427
0.880035
0.874529
0.869303
0.862814
0.853133
0.83386
0.805316
0.793156
0.790285
0.790249
0.79207
0.795535
0.80342
0.819469
0.851231
0.888654
0.940669
0.993477
1.03734
1.07861
1.09594
1.11649
1.14903
1.18104
1.19029
1.19251
1.19192
1.18707
1.17545
1.16009
1.15745
1.16167
1.16755
1.18279
1.21194
1.22522
1.22374
1.22084
1.21534
1.20088
1.1731
1.15513
1.15001
1.14919
1.15146
1.16317
1.18843
1.21401
1.22094
1.21972
1.21208
1.19258
1.16676
1.15669
1.15442
1.15246
1.15439
1.16728
1.18632
1.19345
1.19322
1.19025
1.17831
1.15213
1.13034
1.12549
1.1252
2.27984
2.23977
2.20031
2.16867
2.13473
2.0968
2.05299
1.99423
1.92893
1.86919
1.81053
1.7779
1.768
1.7529
1.72898
1.70977
1.68897
1.66148
1.61889
1.57042
1.53323
1.50066
1.46898
1.44504
1.43734
1.42806
1.40999
1.38489
1.36293
1.34239
1.32448
1.30644
1.28409
1.26193
1.24296
1.21938
1.19516
1.18667
1.18049
1.1694
1.15789
1.15096
1.14166
1.12534
1.09794
1.06073
1.04147
1.03628
1.03103
1.02608
1.02283
1.01834
1.0126
1.00583
0.995076
0.972309
0.938716
0.91883
0.912023
0.90708
0.904175
0.90469
0.900788
0.895211
0.890512
0.883643
0.871829
0.851091
0.825223
0.812565
0.808677
0.806802
0.804408
0.801598
0.802517
0.80453
0.805173
0.809584
0.821283
0.853723
0.901159
0.966507
1.03076
1.08313
1.12269
1.15636
1.17238
1.17782
1.18145
1.17953
1.16691
1.15189
1.1498
1.15532
1.16655
1.18893
1.21368
1.21753
1.21396
1.20977
1.20339
1.18532
1.16075
1.15096
1.1488
1.14883
1.15676
1.18029
1.20886
1.22183
1.22324
1.21891
1.20633
1.18252
1.15805
1.15204
1.15088
1.15
1.15498
1.17397
1.1937
1.19834
1.19753
1.19289
1.17419
1.1441
1.12805
1.12766
1.13479
2.32959
2.29704
2.26573
2.23233
2.19248
2.14626
2.08527
1.99814
1.92734
1.88295
1.84733
1.82836
1.81949
1.80587
1.7828
1.75935
1.73204
1.69557
1.63765
1.58142
1.55047
1.52793
1.50512
1.48863
1.48026
1.46853
1.44912
1.41806
1.39007
1.36699
1.34428
1.3264
1.30848
1.28688
1.27073
1.25297
1.22937
1.21435
1.20595
1.1953
1.18254
1.17368
1.16277
1.14383
1.11183
1.07886
1.06963
1.06404
1.05576
1.04959
1.04639
1.04196
1.03498
1.02674
1.01317
0.984979
0.954172
0.942942
0.936665
0.930535
0.926254
0.925168
0.921354
0.915175
0.909919
0.90243
0.888451
0.867194
0.84811
0.836216
0.831035
0.827497
0.823588
0.817943
0.8127
0.808634
0.80445
0.797672
0.79075
0.793098
0.807108
0.844418
0.908912
0.977926
1.04083
1.0889
1.13067
1.14725
1.15534
1.15744
1.15205
1.14206
1.14247
1.15189
1.1727
1.1985
1.21029
1.20879
1.20317
1.19684
1.18843
1.16984
1.15254
1.14928
1.14935
1.15413
1.17354
1.20171
1.2142
1.21719
1.2171
1.21097
1.19413
1.16666
1.15133
1.14943
1.14971
1.15225
1.16538
1.18912
1.20115
1.20138
1.19893
1.18931
1.16359
1.13608
1.13383
1.14878
1.24444
2.38037
2.35212
2.32286
2.28598
2.24175
2.18262
2.09159
1.99174
1.94268
1.92033
1.89819
1.88265
1.87245
1.85872
1.83568
1.80808
1.77248
1.71623
1.64112
1.5969
1.58075
1.56542
1.54682
1.53322
1.52328
1.50774
1.48559
1.44842
1.41012
1.39015
1.36795
1.34854
1.33344
1.31605
1.30137
1.28534
1.26407
1.24499
1.23124
1.21743
1.2043
1.19389
1.1809
1.15955
1.12777
1.10297
1.09747
1.09285
1.08312
1.07383
1.06906
1.06424
1.05573
1.04442
1.02685
0.996674
0.973493
0.966771
0.96226
0.955897
0.949821
0.946267
0.941998
0.934835
0.927299
0.917886
0.900219
0.879329
0.867983
0.859944
0.854047
0.850028
0.846379
0.84094
0.833416
0.825329
0.814765
0.798052
0.78835
0.787805
0.788023
0.7934
0.811649
0.84642
0.905984
0.967142
1.02678
1.06403
1.08616
1.10664
1.11566
1.12143
1.12989
1.14897
1.17928
1.20149
1.20568
1.20509
1.2013
1.19181
1.17604
1.15765
1.15139
1.15232
1.15596
1.16928
1.19491
1.20749
1.20868
1.20942
1.20674
1.19538
1.17138
1.15196
1.14697
1.14748
1.14972
1.16035
1.18355
1.20191
1.20403
1.20069
1.19417
1.17845
1.14969
1.14582
1.18718
1.33861
1.66184
2.43324
2.40397
2.37058
2.32987
2.27735
2.19126
2.082
2.00921
1.98957
1.97243
1.95304
1.93948
1.92664
1.91082
1.88637
1.85254
1.79667
1.71305
1.64861
1.6301
1.62081
1.60659
1.58972
1.57815
1.56607
1.54654
1.51925
1.47463
1.42885
1.41318
1.39602
1.37545
1.35973
1.34574
1.33284
1.31694
1.29584
1.27542
1.25955
1.24101
1.22453
1.21308
1.19699
1.17377
1.14689
1.12918
1.12502
1.12175
1.11347
1.10097
1.09155
1.084
1.07443
1.05903
1.03686
1.01206
0.996139
0.989936
0.985971
0.98141
0.974528
0.968901
0.963688
0.956119
0.946027
0.932478
0.910389
0.892546
0.887203
0.882007
0.875798
0.871076
0.867081
0.862747
0.856098
0.846748
0.8323
0.809284
0.795286
0.791634
0.790305
0.791827
0.795419
0.80154
0.815747
0.842194
0.874476
0.918607
0.96595
1.01766
1.05174
1.08352
1.10879
1.12906
1.16438
1.18932
1.19354
1.19458
1.19349
1.1847
1.16526
1.15238
1.15343
1.15781
1.16751
1.18823
1.20462
1.20543
1.20399
1.20124
1.19403
1.17572
1.15436
1.14681
1.14668
1.14876
1.15667
1.17752
1.19849
1.20378
1.20091
1.19404
1.18547
1.16263
1.16935
1.24622
1.48644
1.86012
2.16447
2.48771
2.45218
2.41043
2.3593
2.28389
2.17702
2.08737
2.06041
2.04794
2.02866
2.01077
1.99758
1.98136
1.96075
1.93077
1.8743
1.79091
1.71174
1.68077
1.67137
1.66392
1.64837
1.63281
1.62281
1.60784
1.58387
1.54947
1.49608
1.45346
1.4383
1.42432
1.40591
1.38692
1.37504
1.36328
1.34696
1.32691
1.30499
1.28818
1.26854
1.24586
1.23151
1.21349
1.18961
1.1682
1.15566
1.15164
1.14912
1.14252
1.13016
1.11643
1.10386
1.09039
1.06997
1.04459
1.03099
1.02177
1.01366
1.00843
1.00489
0.998923
0.99172
0.984996
0.976722
0.964163
0.94454
0.920568
0.909217
0.906309
0.902697
0.896853
0.891666
0.887569
0.883399
0.877395
0.865496
0.847447
0.826575
0.814839
0.810929
0.807491
0.803478
0.802071
0.803051
0.804247
0.804146
0.807074
0.814199
0.834855
0.877042
0.943855
1.00626
1.05941
1.09585
1.13308
1.16174
1.17252
1.17783
1.17714
1.16825
1.15137
1.14725
1.15088
1.15992
1.17744
1.19629
1.20041
1.19887
1.19603
1.19136
1.17987
1.16159
1.15186
1.15091
1.15268
1.15809
1.17535
1.19597
1.20143
1.19965
1.19422
1.18444
1.17547
1.20032
1.34563
1.68037
2.00126
2.23819
2.39731
2.53813
2.49381
2.44278
2.37561
2.27428
2.17233
2.13466
2.12095
2.10625
2.08676
2.07027
2.05442
2.03397
2.00569
1.95479
1.86446
1.78321
1.7389
1.7239
1.71553
1.70769
1.69115
1.67571
1.66524
1.64744
1.61877
1.57361
1.51532
1.48487
1.46894
1.45389
1.43658
1.41611
1.40393
1.39229
1.37651
1.35776
1.33445
1.31541
1.2962
1.2713
1.25037
1.23098
1.20978
1.19096
1.1827
1.17841
1.17399
1.1683
1.15747
1.142
1.12521
1.10488
1.07835
1.0586
1.05276
1.04734
1.03866
1.03129
1.027
1.02157
1.01419
1.00627
0.996357
0.980133
0.954999
0.935686
0.92932
0.926005
0.92283
0.91815
0.912116
0.907176
0.902291
0.895036
0.880145
0.859199
0.84617
0.838707
0.834082
0.82927
0.823114
0.817812
0.813433
0.808817
0.803864
0.797058
0.789098
0.789697
0.797249
0.826612
0.874651
0.939762
1.00636
1.07139
1.11848
1.13443
1.14783
1.14792
1.14267
1.13668
1.13792
1.14559
1.16272
1.1827
1.18993
1.19008
1.18777
1.18428
1.17796
1.16441
1.15399
1.15458
1.15796
1.1622
1.17444
1.19557
1.2017
1.19877
1.19553
1.18629
1.19873
1.27707
1.48482
1.84054
2.14674
2.32953
2.43863
2.47274
2.57918
2.52762
2.46675
2.37832
2.26682
2.21082
2.19647
2.1798
2.16248
2.14561
2.12826
2.10767
2.08116
2.03624
1.94773
1.84732
1.80477
1.78508
1.77075
1.76167
1.75183
1.73481
1.71781
1.70357
1.68309
1.64893
1.58795
1.53751
1.51769
1.50177
1.48664
1.46818
1.44618
1.43431
1.42171
1.40595
1.38905
1.36521
1.34146
1.31973
1.29461
1.27027
1.25113
1.23494
1.21866
1.21066
1.20569
1.19825
1.1905
1.18095
1.16495
1.14426
1.1171
1.08964
1.07976
1.07597
1.0717
1.06445
1.05565
1.04908
1.04293
1.03461
1.02503
1.01242
0.991088
0.96521
0.955672
0.951615
0.947172
0.943536
0.939518
0.933795
0.927243
0.920365
0.909132
0.888647
0.870382
0.865428
0.862168
0.857562
0.852301
0.846545
0.840155
0.833449
0.8256
0.814126
0.796958
0.787747
0.787715
0.791176
0.794971
0.804143
0.827597
0.868857
0.919951
0.982937
1.03267
1.07943
1.10573
1.11781
1.13108
1.13459
1.14482
1.1673
1.17955
1.18016
1.17949
1.17661
1.17031
1.16005
1.14858
1.14718
1.15254
1.15909
1.16873
1.187
1.19925
1.19801
1.19582
1.19893
1.23479
1.38078
1.70044
2.01722
2.28235
2.36905
2.42793
2.44531
2.45228
2.60963
2.55315
2.48144
2.37601
2.29308
2.27315
2.25766
2.23613
2.21916
2.20297
2.1818
2.1554
2.11629
2.0365
1.92505
1.86185
1.84856
1.83182
1.81949
1.81001
1.79717
1.78059
1.76157
1.74048
1.71446
1.66885
1.59677
1.56367
1.55133
1.5356
1.51933
1.50184
1.48161
1.46695
1.45295
1.43764
1.41891
1.39396
1.36569
1.33942
1.31433
1.29112
1.27485
1.26256
1.24916
1.24128
1.23402
1.2242
1.21308
1.20158
1.18418
1.15692
1.12769
1.11007
1.10356
1.09924
1.09555
1.0898
1.08135
1.07233
1.06431
1.05494
1.04155
1.02346
0.998601
0.981318
0.976739
0.973689
0.969153
0.964632
0.960799
0.955828
0.948705
0.938554
0.920686
0.896706
0.886609
0.883716
0.881403
0.878817
0.873862
0.86822
0.862253
0.855148
0.844701
0.826478
0.80499
0.798317
0.797346
0.796563
0.797075
0.80018
0.80133
0.806217
0.819922
0.84827
0.885306
0.930993
0.985921
1.03733
1.08384
1.10591
1.12932
1.1634
1.17684
1.17698
1.17659
1.17161
1.15683
1.14453
1.14071
1.14374
1.14996
1.15908
1.17453
1.18982
1.1929
1.19526
1.22034
1.30939
1.5238
1.88308
2.23692
2.35061
2.37815
2.38038
2.41143
2.44876
2.4577
2.63308
2.57188
2.48798
2.38765
2.35239
2.33716
2.31471
2.29289
2.27632
2.25716
2.23045
2.19498
2.12767
2.01442
1.92437
1.90687
1.89547
1.87959
1.87
1.85921
1.84463
1.82831
1.80839
1.77983
1.73645
1.67151
1.61158
1.59245
1.58337
1.5699
1.55201
1.53421
1.51865
1.50336
1.48726
1.47212
1.45101
1.41833
1.38443
1.35615
1.33248
1.31406
1.30186
1.29226
1.28107
1.27216
1.26352
1.25182
1.23663
1.21951
1.19723
1.16462
1.14211
1.13602
1.13001
1.12304
1.11835
1.11355
1.1059
1.09612
1.08611
1.07414
1.0549
1.0287
1.01069
1.00357
0.999236
0.995574
0.991156
0.986121
0.981677
0.976795
0.96826
0.953129
0.92909
0.910076
0.905063
0.902079
0.899822
0.898433
0.894666
0.888881
0.8827
0.874567
0.860725
0.837196
0.819884
0.817192
0.816508
0.813648
0.808838
0.803277
0.801711
0.804159
0.804872
0.803503
0.806726
0.816516
0.849534
0.901738
0.966938
1.02741
1.08664
1.13541
1.15618
1.16315
1.16584
1.16408
1.15237
1.14131
1.1405
1.14385
1.1523
1.16583
1.18069
1.18707
1.19752
1.2474
1.4459
1.7396
2.06993
2.32805
2.40597
2.42197
2.42321
2.42712
2.44626
2.45234
2.44431
2.65596
2.58776
2.49418
2.43233
2.41605
2.39434
2.36949
2.35001
2.33171
2.307
2.27296
2.21966
2.11472
2.00162
1.96492
1.95586
1.94219
1.92972
1.92061
1.90876
1.8941
1.87711
1.854
1.81282
1.73519
1.67014
1.64121
1.62473
1.61339
1.60208
1.58617
1.56976
1.55613
1.54128
1.52481
1.50612
1.48043
1.43839
1.39722
1.37342
1.35433
1.33985
1.33155
1.3233
1.31369
1.30376
1.29288
1.28059
1.26327
1.23724
1.20313
1.17485
1.16596
1.16199
1.15662
1.1488
1.14154
1.13629
1.12913
1.1193
1.10736
1.09007
1.06189
1.0376
1.03075
1.02743
1.02242
1.01786
1.01329
1.00801
1.0026
0.996341
0.984591
0.961382
0.939442
0.928753
0.924211
0.920985
0.918753
0.917046
0.913754
0.908221
0.901195
0.890573
0.870814
0.847028
0.839423
0.838119
0.838101
0.836111
0.83041
0.822452
0.816258
0.813237
0.809771
0.803062
0.791594
0.786894
0.789838
0.804312
0.841013
0.908146
0.97692
1.03968
1.08392
1.11851
1.13154
1.13436
1.13294
1.12965
1.13131
1.1385
1.15371
1.17213
1.18663
1.22173
1.32186
1.56448
1.97045
2.22355
2.41323
2.44635
2.42636
2.43319
2.43888
2.44861
2.44134
2.42545
2.41193
2.68329
2.60463
2.51885
2.49162
2.47274
2.4468
2.42379
2.40562
2.38335
2.3519
2.30636
2.2203
2.09649
2.02991
2.01836
2.00516
1.99163
1.98164
1.97092
1.95798
1.94285
1.9234
1.89055
1.8186
1.72807
1.68652
1.67502
1.66077
1.64598
1.63474
1.62134
1.60748
1.59455
1.58096
1.56564
1.5401
1.49754
1.44799
1.41139
1.39363
1.38161
1.37151
1.36296
1.35439
1.34505
1.33521
1.32356
1.30762
1.28312
1.24681
1.21107
1.19668
1.19215
1.18802
1.18265
1.17498
1.16623
1.15887
1.15153
1.14069
1.12486
1.09904
1.06805
1.05603
1.05266
1.0509
1.04636
1.04074
1.03589
1.03031
1.02344
1.01381
0.994789
0.96657
0.954597
0.94956
0.94449
0.940858
0.938532
0.935764
0.931829
0.925925
0.916641
0.901658
0.878006
0.861905
0.858789
0.85787
0.858197
0.856849
0.851773
0.84427
0.836281
0.829968
0.822346
0.807257
0.788969
0.785975
0.786786
0.78853
0.794802
0.813027
0.84532
0.895274
0.95447
1.0136
1.04471
1.06869
1.09183
1.10249
1.11098
1.12309
1.14646
1.1763
1.25855
1.48649
1.75185
2.11854
2.33068
2.43636
2.47985
2.47782
2.45935
2.44556
2.44085
2.44187
2.42462
2.40502
2.38891
2.71532
2.62806
2.56785
2.54688
2.52327
2.49711
2.47731
2.45773
2.42982
2.38937
2.32152
2.2045
2.10433
2.08486
2.07264
2.0563
2.04544
2.03539
2.02175
2.00667
1.98875
1.96197
1.90287
1.80445
1.73719
1.71931
1.70854
1.69753
1.68258
1.67104
1.66026
1.64841
1.6357
1.62247
1.60385
1.56105
1.49474
1.45248
1.43394
1.4226
1.41336
1.40437
1.39541
1.38742
1.3789
1.36848
1.35531
1.33224
1.29099
1.24885
1.22935
1.22358
1.21997
1.21516
1.20926
1.20167
1.19247
1.18326
1.17401
1.16013
1.13494
1.10342
1.08453
1.07826
1.07478
1.07378
1.07026
1.06402
1.05833
1.05248
1.04397
1.02827
0.999557
0.977885
0.972932
0.969223
0.964766
0.961424
0.958485
0.954489
0.949571
0.942606
0.928603
0.907366
0.887702
0.879912
0.877375
0.87673
0.877335
0.87598
0.871562
0.865561
0.858233
0.849412
0.837348
0.817218
0.797553
0.794096
0.79316
0.793714
0.796149
0.799618
0.803897
0.812238
0.830014
0.858821
0.906619
0.959162
1.01748
1.04896
1.07811
1.10177
1.14658
1.25748
1.5905
1.98822
2.21921
2.41042
2.40811
2.43699
2.44374
2.43832
2.44031
2.43359
2.42842
2.42167
2.4023
2.38722
2.37674
2.74944
2.67175
2.62368
2.59668
2.57023
2.54713
2.52948
2.50606
2.47026
2.41481
2.31595
2.19425
2.1487
2.13878
2.12426
2.1104
2.10181
2.08964
2.07319
2.05448
2.02998
1.98332
1.88881
1.79661
1.76816
1.75427
1.74303
1.73597
1.72366
1.71249
1.70321
1.69209
1.67919
1.66222
1.62584
1.5551
1.4909
1.47271
1.46456
1.45452
1.44548
1.43853
1.43119
1.42336
1.41473
1.4029
1.38259
1.34038
1.29256
1.26558
1.2561
1.25075
1.24752
1.24252
1.23621
1.22912
1.22023
1.21008
1.19703
1.1726
1.13526
1.11557
1.10847
1.10182
1.09755
1.09644
1.09332
1.08716
1.0807
1.07338
1.06109
1.03578
1.00769
0.996326
0.992044
0.988392
0.985497
0.982819
0.978806
0.973799
0.967329
0.956742
0.935643
0.914325
0.903577
0.898408
0.895896
0.895456
0.895815
0.893649
0.889297
0.884063
0.877219
0.866964
0.849826
0.826666
0.814853
0.812547
0.812001
0.810326
0.807307
0.805564
0.805456
0.80319
0.797468
0.797103
0.807621
0.834145
0.880927
0.941228
1.01693
1.12447
1.32315
1.65151
2.08576
2.27834
2.41338
2.46013
2.45988
2.45696
2.46224
2.45775
2.44339
2.42891
2.41442
2.39843
2.38211
2.36949
2.3594
2.78696
2.72485
2.68022
2.64583
2.61629
2.59622
2.57766
2.54828
2.50267
2.42557
2.3061
2.21839
2.20284
2.19037
2.17517
2.16519
2.156
2.14137
2.12308
2.0998
2.06162
1.9801
1.87051
1.81778
1.80433
1.78996
1.78046
1.77687
1.76816
1.75747
1.74799
1.73644
1.72098
1.6897
1.61938
1.53892
1.50782
1.50368
1.49929
1.48821
1.47913
1.47397
1.46876
1.4613
1.45141
1.4335
1.39258
1.33397
1.30434
1.29348
1.28433
1.27856
1.2756
1.27055
1.26391
1.25719
1.2492
1.23745
1.21612
1.17475
1.14193
1.13536
1.13223
1.12617
1.12128
1.11932
1.11598
1.11005
1.10293
1.09251
1.07117
1.03817
1.02362
1.01767
1.01226
1.0086
1.00669
1.00424
0.999682
0.993457
0.984275
0.96648
0.940028
0.92689
0.921325
0.917046
0.915011
0.915275
0.914585
0.911154
0.906362
0.900856
0.892316
0.878008
0.858372
0.841171
0.835737
0.83395
0.832675
0.830272
0.82575
0.820932
0.816048
0.808395
0.796115
0.788792
0.787953
0.790361
0.802019
0.833263
0.917718
1.24584
1.63836
2.00267
2.2316
2.2561
2.36632
2.39701
2.39191
2.42361
2.44916
2.44496
2.43921
2.43184
2.41795
2.39608
2.37614
2.36026
2.34757
2.83193
2.77751
2.73573
2.69645
2.66459
2.64258
2.61841
2.58243
2.52423
2.42477
2.31039
2.27287
2.25963
2.24088
2.22485
2.21488
2.20257
2.18701
2.16757
2.1372
2.07323
1.96367
1.87725
1.85744
1.84333
1.82954
1.82206
1.82053
1.81399
1.80313
1.79205
1.77811
1.75248
1.68905
1.5975
1.54724
1.53992
1.53888
1.53648
1.52412
1.51504
1.51132
1.50723
1.49924
1.48499
1.44919
1.38395
1.33827
1.33028
1.32285
1.31332
1.30803
1.30526
1.30005
1.29321
1.28619
1.27728
1.2598
1.22056
1.17714
1.16335
1.15867
1.15575
1.15157
1.14681
1.14323
1.13893
1.13294
1.12409
1.10681
1.07184
1.04674
1.04328
1.03987
1.0339
1.03013
1.02859
1.02583
1.02083
1.01287
0.998321
0.971245
0.949919
0.943821
0.9392
0.935831
0.934711
0.935442
0.933331
0.92882
0.923322
0.916533
0.904154
0.882817
0.865996
0.858446
0.855821
0.854665
0.853657
0.850962
0.846617
0.840375
0.832143
0.818082
0.79764
0.788037
0.787928
0.792127
0.824638
0.925961
1.19959
1.56945
1.79693
2.00522
2.06031
2.06855
2.14208
2.21814
2.25013
2.29114
2.3367
2.38674
2.40908
2.41366
2.40541
2.38569
2.37001
2.35921
2.35278
2.88151
2.83145
2.78839
2.74798
2.71673
2.68724
2.65284
2.60508
2.52663
2.42043
2.35041
2.33528
2.32036
2.29452
2.2734
2.25828
2.24298
2.2264
2.20342
2.15759
2.06546
1.95776
1.91612
1.90284
1.88769
1.87455
1.86756
1.8656
1.85857
1.84638
1.83228
1.81076
1.75867
1.66721
1.59509
1.58096
1.57639
1.57618
1.5747
1.56272
1.55392
1.55028
1.545
1.53445
1.50679
1.44187
1.37769
1.36121
1.3583
1.35208
1.34347
1.33924
1.33702
1.33162
1.32451
1.31593
1.30136
1.26633
1.21682
1.19409
1.18887
1.18446
1.18146
1.17903
1.1737
1.16808
1.16254
1.15526
1.14161
1.10973
1.07305
1.06392
1.0627
1.06191
1.0566
1.05271
1.05085
1.04751
1.04164
1.03013
1.0057
0.975643
0.966516
0.962317
0.957809
0.955325
0.955273
0.955652
0.952669
0.947318
0.940295
0.929404
0.908934
0.88787
0.880378
0.87666
0.874599
0.873837
0.872398
0.869194
0.864921
0.858246
0.846218
0.829259
0.811884
0.807299
0.813775
0.860615
1.04255
1.28014
1.62968
1.77979
1.82427
1.8585
1.8644
1.86245
1.88959
1.95912
2.03842
2.11211
2.18587
2.25877
2.30712
2.33066
2.33523
2.3343
2.33371
2.33544
2.34751
2.93089
2.8823
2.83668
2.80004
2.76993
2.73384
2.68548
2.61272
2.51779
2.43236
2.40662
2.39709
2.37921
2.35166
2.32447
2.30172
2.28243
2.26141
2.22644
2.15372
2.05303
1.98287
1.96663
1.95333
1.93755
1.92421
1.91586
1.90972
1.89964
1.88521
1.86529
1.82189
1.7407
1.65785
1.62802
1.62102
1.61642
1.61687
1.61402
1.60235
1.5941
1.58855
1.58029
1.56101
1.50496
1.42736
1.39363
1.38833
1.38783
1.3828
1.3755
1.37288
1.37089
1.36494
1.35678
1.34372
1.31185
1.25922
1.22595
1.21968
1.21601
1.21205
1.20894
1.2069
1.2014
1.19453
1.18693
1.17517
1.14846
1.107
1.0872
1.08393
1.08318
1.08415
1.07987
1.0762
1.07321
1.069
1.06094
1.04153
1.00713
0.988601
0.986177
0.982197
0.977565
0.975602
0.976085
0.975521
0.971852
0.965852
0.956043
0.936837
0.910442
0.899593
0.896408
0.893809
0.89267
0.892426
0.890566
0.886868
0.881529
0.872591
0.85528
0.837657
0.832449
0.844328
0.911956
1.15207
1.48673
1.7119
1.862
1.86004
1.8325
1.81375
1.80193
1.79315
1.79133
1.80389
1.83095
1.86511
1.90907
1.96515
2.02444
2.08142
2.14269
2.19915
2.24358
2.2716
2.3077
2.98053
2.92848
2.87942
2.84646
2.81811
2.77867
2.71278
2.61259
2.51665
2.47268
2.46129
2.4526
2.4323
2.4057
2.3778
2.3503
2.32397
2.29051
2.22579
2.13223
2.05788
2.03187
2.02022
2.00667
1.99066
1.97661
1.96479
1.95271
1.9386
1.91883
1.87842
1.80388
1.72421
1.68589
1.67322
1.66513
1.66087
1.66075
1.65414
1.64282
1.63362
1.62423
1.60914
1.56626
1.48661
1.4317
1.42216
1.41866
1.41874
1.41482
1.40988
1.4087
1.4055
1.39868
1.38741
1.35971
1.30479
1.25884
1.24916
1.24591
1.24475
1.24074
1.23693
1.23445
1.22893
1.22147
1.21083
1.18834
1.14546
1.11374
1.1084
1.10598
1.1061
1.10572
1.10289
1.09932
1.09504
1.08917
1.07558
1.04327
1.01332
1.00795
1.00694
1.00339
0.998647
0.996739
0.996781
0.994973
0.99076
0.98294
0.966142
0.937677
0.920808
0.916855
0.913375
0.911218
0.910795
0.910244
0.907616
0.902942
0.895272
0.881912
0.861585
0.859899
0.886089
1.00905
1.24887
1.64216
1.84462
1.92824
1.92128
1.8608
1.81053
1.80176
1.81266
1.81865
1.80378
1.79374
1.78196
1.77345
1.77001
1.76878
1.78191
1.81321
1.86555
1.93701
2.02722
2.11417
2.19067
3.03123
2.97174
2.92066
2.88857
2.85698
2.80919
2.72806
2.62064
2.54929
2.52685
2.5139
2.49993
2.47886
2.45472
2.42887
2.40052
2.36575
2.30756
2.20931
2.122
2.09446
2.08161
2.0714
2.05946
2.04457
2.02942
2.01409
1.99779
1.97676
1.9372
1.86075
1.77688
1.74186
1.73202
1.7197
1.71263
1.71009
1.70571
1.69577
1.68369
1.67147
1.65571
1.62056
1.54829
1.47752
1.45882
1.45349
1.4518
1.45237
1.4497
1.44668
1.44471
1.43952
1.43048
1.40845
1.35578
1.29694
1.27862
1.27491
1.2743
1.27501
1.26983
1.26578
1.26235
1.25634
1.24753
1.23
1.18863
1.14456
1.13313
1.13037
1.13104
1.13186
1.12805
1.12533
1.12161
1.11598
1.10626
1.0804
1.04288
1.03041
1.0285
1.0282
1.02536
1.02067
1.01849
1.01733
1.01443
1.00886
0.99545
0.967069
0.942888
0.938444
0.934771
0.930656
0.928854
0.928749
0.927739
0.924384
0.918259
0.90782
0.887463
0.886876
0.934971
1.13545
1.43902
1.72039
1.95498
1.97769
1.96281
1.92572
1.87326
1.84587
1.83598
1.83411
1.82811
1.81791
1.80517
1.79082
1.77464
1.76122
1.74769
1.73198
1.72472
1.72332
1.73626