/*--------------------------------*- C++ -*----------------------------------*\
  =========                 |
  \\      /  F ield         | OpenFOAM: The Open Source CFD Toolbox
   \\    /   O peration     | Website:  https://openfoam.org
    \\  /    A nd           | Version:  7
     \\/     M anipulation  |
\*---------------------------------------------------------------------------*/
FoamFile
{
    version     2.0;
    format      ascii;
    class       volScalarField;
    location    "1.6";
    object      rho;
}
// * * * * * * * * * * * * * * * * * * * * * * * * * * * * * * * * * * * * * //

dimensions      [1 -3 0 0 0 0 0];

internalField   nonuniform List<scalar> 
4128
(
1.41917
1.40039
1.37605
1.34722
1.30796
1.26421
1.23879
1.22828
1.22161
1.20969
1.19714
1.18835
1.17786
1.16326
1.14041
1.10049
1.06292
1.05074
1.04393
1.03884
1.03592
1.03165
1.02596
1.01978
1.01154
0.996068
0.964028
0.929525
0.919776
0.916172
0.914281
0.915345
0.914599
0.911502
0.908099
0.90367
0.895618
0.876606
0.844701
0.827317
0.82412
0.822835
0.82567
0.827066
0.82424
0.821719
0.818964
0.813518
0.797818
0.771675
0.762014
0.760709
0.760691
0.763819
0.771619
0.777886
0.77838
0.785564
0.799012
0.820148
0.852762
0.890946
0.925853
0.955171
0.976227
0.994725
1.02301
1.03317
1.03462
1.03471
1.03124
1.02027
1.00566
1.00108
1.00369
1.00946
1.02041
1.03773
1.04738
1.04808
1.04767
1.04482
1.03632
1.02707
1.02367
1.02281
1.02323
1.02725
1.03644
1.04285
1.04221
1.03915
1.03352
1.02399
1.01457
1.01233
1.01196
1.01193
1.01365
1.01883
1.02339
1.02391
1.0236
1.02204
1.01782
1.01193
1.00914
1.00868
1.00868
1.00997
1.01258
1.01359
1.01278
1.01136
1.00789
1.00182
0.998743
0.998093
0.997507
0.99718
0.998162
0.998902
0.997791
0.996358
0.994498
0.991173
0.985253
0.97874
0.976435
1.45845
1.43794
1.40994
1.37327
1.3333
1.30193
1.2792
1.26748
1.26021
1.2473
1.23193
1.22077
1.20785
1.18904
1.15958
1.11768
1.09312
1.08369
1.07655
1.07168
1.06881
1.06363
1.05694
1.04963
1.03862
1.01486
0.974267
0.950161
0.944751
0.941567
0.941178
0.94423
0.942312
0.938304
0.934339
0.929171
0.917478
0.888713
0.858323
0.850063
0.847335
0.846276
0.850232
0.851382
0.848218
0.844974
0.840936
0.832292
0.811964
0.788605
0.781564
0.779018
0.778032
0.779859
0.784069
0.784181
0.783203
0.781481
0.777557
0.773396
0.77948
0.800081
0.843217
0.890941
0.938744
0.977461
1.01445
1.02975
1.03273
1.03341
1.03022
1.0181
1.00499
1.0025
1.00547
1.01376
1.03018
1.04804
1.05318
1.05295
1.05144
1.04662
1.03599
1.0289
1.02776
1.02726
1.02868
1.03637
1.04702
1.05044
1.04986
1.04728
1.04094
1.02955
1.02169
1.0206
1.02038
1.02078
1.02413
1.03125
1.03461
1.03427
1.03326
1.03031
1.02372
1.01709
1.01491
1.01437
1.01457
1.01768
1.02165
1.02211
1.02132
1.02005
1.01651
1.0105
1.00734
1.00635
1.00556
1.00486
1.00484
1.00589
1.00553
1.00416
1.00212
0.999164
0.995733
0.992877
0.990424
1.49733
1.47516
1.44269
1.39896
1.36408
1.34064
1.31916
1.30614
1.29762
1.28379
1.26673
1.25335
1.23771
1.2138
1.17758
1.13998
1.12737
1.11831
1.10991
1.10482
1.10178
1.09583
1.08765
1.07813
1.06203
1.02893
0.99036
0.977123
0.972772
0.969658
0.969848
0.97233
0.969202
0.964586
0.959632
0.952103
0.933064
0.898326
0.879281
0.875179
0.872555
0.87191
0.875936
0.875799
0.871882
0.86755
0.861494
0.848084
0.824658
0.807818
0.802474
0.799671
0.798737
0.800318
0.801516
0.7991
0.795457
0.789981
0.780256
0.770597
0.767269
0.769069
0.780967
0.809213
0.857304
0.914274
0.968764
1.00849
1.02052
1.02648
1.02437
1.01426
1.00703
1.00663
1.01031
1.02255
1.0399
1.05087
1.05323
1.05234
1.05019
1.04515
1.03526
1.03045
1.03003
1.02983
1.03263
1.04323
1.05317
1.05568
1.05616
1.05497
1.04846
1.03717
1.03057
1.02967
1.02953
1.03007
1.03393
1.04114
1.0432
1.04235
1.04082
1.0372
1.03015
1.02422
1.02202
1.02106
1.02108
1.02417
1.02795
1.02833
1.02768
1.02656
1.02404
1.01962
1.01608
1.01447
1.0134
1.01252
1.01187
1.01209
1.01279
1.01219
1.01081
1.00904
1.00752
1.0059
1.00293
1.53394
1.50929
1.47293
1.42584
1.39815
1.37921
1.35776
1.34373
1.33358
1.31843
1.30022
1.28496
1.26616
1.23679
1.19664
1.16907
1.16224
1.15411
1.14365
1.13773
1.13393
1.12703
1.11681
1.10402
1.08123
1.04177
1.01372
1.00668
1.00264
0.999989
1.00016
0.99981
0.99543
0.990177
0.983721
0.971559
0.943126
0.911905
0.903415
0.900264
0.898456
0.899091
0.900977
0.898127
0.893799
0.888663
0.880353
0.862811
0.840587
0.829491
0.824917
0.821882
0.820997
0.82212
0.821187
0.817844
0.812516
0.803048
0.786452
0.773442
0.771973
0.772266
0.773565
0.778903
0.794371
0.827182
0.871355
0.923901
0.957372
0.984904
0.998773
1.0023
1.00704
1.00932
1.01619
1.03305
1.04776
1.05233
1.05319
1.05182
1.04777
1.04133
1.03331
1.03184
1.03301
1.0342
1.03966
1.05215
1.05881
1.06009
1.06096
1.05886
1.05049
1.04161
1.03719
1.03608
1.03595
1.03737
1.04304
1.0505
1.05156
1.05038
1.04855
1.0451
1.03862
1.03322
1.03098
1.02946
1.02864
1.02922
1.03184
1.0326
1.03209
1.03117
1.02946
1.02649
1.0237
1.02234
1.02151
1.02071
1.0201
1.02016
1.02131
1.02135
1.02075
1.01992
1.01877
1.01583
1.00952
1.56652
1.53784
1.49997
1.45528
1.43416
1.41832
1.39685
1.38085
1.36874
1.35263
1.33214
1.31372
1.29054
1.25731
1.22049
1.20276
1.19757
1.18997
1.17744
1.16964
1.16414
1.15584
1.14246
1.12479
1.09688
1.06
1.04271
1.03761
1.03392
1.0314
1.02995
1.02708
1.02177
1.01497
1.00517
0.9858
0.953067
0.933337
0.928453
0.925683
0.925114
0.927368
0.924796
0.920147
0.915243
0.908741
0.896501
0.873887
0.856378
0.850247
0.846285
0.843446
0.842847
0.843422
0.841776
0.838213
0.832025
0.819269
0.798433
0.786845
0.785048
0.783622
0.782731
0.784014
0.787164
0.793192
0.805001
0.827508
0.855308
0.887499
0.924487
0.957099
0.984067
0.997599
1.0107
1.03492
1.05213
1.0551
1.05544
1.05382
1.04745
1.03677
1.03079
1.03259
1.0365
1.04197
1.05318
1.06479
1.06631
1.06594
1.06455
1.0593
1.04954
1.0425
1.04004
1.03904
1.03924
1.04355
1.05325
1.06084
1.0618
1.0609
1.05847
1.0534
1.04596
1.0408
1.0387
1.03694
1.0352
1.03432
1.03579
1.03721
1.03687
1.03591
1.03402
1.0311
1.02949
1.02928
1.02926
1.02919
1.02909
1.03005
1.03143
1.03123
1.03049
1.02914
1.02578
1.01847
1.00997
1.59624
1.56268
1.52547
1.48825
1.47165
1.45828
1.43769
1.41943
1.40468
1.38666
1.36227
1.33758
1.30888
1.27691
1.24908
1.23786
1.23336
1.22483
1.21114
1.20024
1.19257
1.18104
1.16437
1.14063
1.11193
1.0854
1.0733
1.06817
1.06529
1.06193
1.05754
1.05301
1.04685
1.03797
1.02374
0.997748
0.970032
0.958514
0.953755
0.950831
0.950791
0.951796
0.947599
0.942102
0.936289
0.927791
0.910515
0.886191
0.875545
0.871365
0.867517
0.86486
0.864247
0.863529
0.860844
0.856724
0.849307
0.833667
0.813545
0.80633
0.804449
0.80316
0.801218
0.798048
0.796015
0.796987
0.797938
0.797974
0.799977
0.805756
0.82954
0.870852
0.917836
0.959514
0.994335
1.02668
1.04258
1.04756
1.04954
1.04901
1.04369
1.03305
1.02784
1.0303
1.03731
1.0488
1.06406
1.07159
1.07158
1.06977
1.06586
1.05774
1.04778
1.04435
1.04339
1.04267
1.04456
1.05371
1.06596
1.07125
1.07154
1.0701
1.06505
1.05573
1.04759
1.04415
1.04316
1.042
1.04058
1.04031
1.04368
1.04553
1.04504
1.0435
1.03997
1.03588
1.03483
1.03466
1.03486
1.03606
1.0381
1.04076
1.04163
1.04098
1.03902
1.03522
1.02761
1.01729
1.01097
1.62514
1.58809
1.55349
1.52446
1.51038
1.49854
1.47881
1.45886
1.44153
1.42073
1.39047
1.3558
1.32496
1.30081
1.28135
1.2727
1.26798
1.25807
1.24344
1.22935
1.21902
1.20349
1.18243
1.15414
1.13088
1.1172
1.10473
1.09786
1.09485
1.09048
1.08399
1.0773
1.06922
1.05797
1.03998
1.01187
0.993575
0.986601
0.980451
0.976334
0.975151
0.974129
0.96941
0.963092
0.955788
0.943846
0.921348
0.901654
0.896808
0.89316
0.889322
0.886747
0.885411
0.883695
0.880445
0.875135
0.865004
0.845224
0.828877
0.825618
0.824308
0.823451
0.820795
0.816947
0.812875
0.809634
0.806211
0.801079
0.792206
0.787003
0.789445
0.801954
0.830796
0.881726
0.933868
0.985591
1.01063
1.02823
1.03524
1.03486
1.03291
1.02824
1.02424
1.02628
1.03717
1.0545
1.06686
1.0711
1.07135
1.06986
1.065
1.05526
1.04782
1.04778
1.04809
1.04913
1.05557
1.06945
1.07888
1.08075
1.08052
1.07703
1.06674
1.05438
1.04634
1.04438
1.04438
1.04451
1.04534
1.04999
1.05698
1.05792
1.05671
1.05324
1.04571
1.03905
1.03751
1.03701
1.03739
1.04066
1.04656
1.05089
1.05149
1.05064
1.0471
1.03909
1.0267
1.01711
1.01421
1.65582
1.61989
1.58801
1.56509
1.55163
1.53808
1.51825
1.4961
1.47549
1.44934
1.41185
1.37158
1.34761
1.33174
1.31571
1.30719
1.30116
1.28983
1.27348
1.25649
1.24213
1.22277
1.1981
1.17003
1.1561
1.14929
1.13785
1.1267
1.12211
1.1169
1.109
1.09975
1.0889
1.07575
1.05677
1.03166
1.01841
1.01425
1.00812
1.00132
0.998238
0.995873
0.990818
0.983187
0.973106
0.956547
0.932373
0.920793
0.918148
0.914873
0.911387
0.908989
0.906625
0.90381
0.899745
0.892665
0.87798
0.856085
0.846466
0.84451
0.844323
0.844458
0.841052
0.837222
0.833141
0.828632
0.822743
0.811378
0.793884
0.787887
0.788383
0.790287
0.795953
0.812366
0.842547
0.88605
0.933027
0.970654
1.00256
1.01024
1.01747
1.02176
1.01807
1.02127
1.03933
1.05992
1.06732
1.06962
1.06954
1.06712
1.06108
1.05114
1.04689
1.04889
1.05161
1.0569
1.07048
1.08465
1.08768
1.08784
1.08709
1.0805
1.0651
1.0485
1.04393
1.04366
1.04426
1.04677
1.05346
1.06577
1.0731
1.07254
1.06935
1.061
1.04727
1.03932
1.03769
1.03702
1.03801
1.0444
1.05469
1.06016
1.06077
1.06012
1.05514
1.04193
1.02647
1.01995
1.01826
1.68952
1.65971
1.63141
1.61131
1.59513
1.57715
1.55531
1.52909
1.50214
1.46867
1.42711
1.39261
1.37987
1.36802
1.35243
1.34266
1.33383
1.32072
1.30071
1.27926
1.26067
1.23921
1.2151
1.19304
1.18641
1.18123
1.17068
1.15698
1.14772
1.13974
1.13101
1.12006
1.10651
1.09294
1.07683
1.05597
1.04348
1.03947
1.03473
1.02679
1.02121
1.01759
1.0119
1.00262
0.988646
0.966599
0.946662
0.941609
0.939112
0.93611
0.933363
0.930709
0.927691
0.924154
0.918959
0.908784
0.888941
0.869817
0.864569
0.862442
0.861964
0.863203
0.860622
0.857143
0.853659
0.849201
0.842434
0.82873
0.808286
0.799621
0.797588
0.797711
0.799143
0.801884
0.807864
0.819505
0.841871
0.867959
0.903925
0.939921
0.96963
0.99736
1.0085
1.02156
1.04237
1.063
1.06854
1.06964
1.06909
1.06546
1.05701
1.04675
1.04534
1.04879
1.05389
1.06482
1.08359
1.09201
1.09126
1.09002
1.08747
1.0793
1.06179
1.0499
1.04635
1.04567
1.0468
1.05361
1.06893
1.08411
1.08725
1.08534
1.07848
1.0637
1.04621
1.03947
1.03811
1.03739
1.03931
1.04919
1.06306
1.0689
1.06966
1.06911
1.06204
1.04426
1.02879
1.02479
1.02351
1.72668
1.70297
1.67958
1.66049
1.64009
1.6173
1.59111
1.55639
1.51752
1.48136
1.44581
1.42475
1.41717
1.40672
1.3914
1.37932
1.36673
1.35057
1.32559
1.29718
1.27535
1.25605
1.23718
1.22282
1.21823
1.21276
1.20202
1.18696
1.17371
1.16118
1.15021
1.13906
1.12507
1.11106
1.099
1.08392
1.06838
1.06287
1.05881
1.05153
1.04388
1.03909
1.03271
1.02165
1.00337
0.978783
0.96621
0.962847
0.959461
0.956351
0.954454
0.951806
0.948415
0.944429
0.937912
0.923288
0.901178
0.88835
0.884345
0.881668
0.880453
0.881356
0.879241
0.875773
0.872672
0.867974
0.859733
0.845021
0.826586
0.817593
0.81485
0.813519
0.81178
0.809643
0.810358
0.812029
0.81283
0.816295
0.825047
0.84809
0.881468
0.926959
0.970687
1.00565
1.03154
1.05344
1.06348
1.06664
1.06859
1.06678
1.05733
1.04679
1.04548
1.0495
1.05797
1.0736
1.08981
1.09238
1.09031
1.08811
1.08477
1.07401
1.05874
1.05259
1.05118
1.05116
1.05603
1.07085
1.08854
1.09578
1.09587
1.09188
1.08137
1.06373
1.04655
1.0418
1.04074
1.04036
1.0444
1.05834
1.07281
1.07699
1.07777
1.0763
1.06493
1.04465
1.0329
1.03174
1.03509
1.76565
1.74612
1.72734
1.70743
1.68378
1.65643
1.62072
1.56997
1.52715
1.49914
1.47665
1.46335
1.45612
1.44627
1.43124
1.41648
1.39989
1.37812
1.34394
1.31082
1.29244
1.27913
1.26562
1.25576
1.25088
1.24406
1.2326
1.21396
1.1969
1.18271
1.16865
1.15752
1.14627
1.13263
1.12232
1.11099
1.09597
1.08634
1.08085
1.07384
1.06537
1.05925
1.05173
1.03892
1.01759
0.995794
0.989704
0.985995
0.980532
0.976567
0.974656
0.971982
0.967707
0.962721
0.954235
0.935884
0.915722
0.908872
0.905287
0.90186
0.899759
0.899758
0.897854
0.894022
0.890564
0.885397
0.875533
0.860496
0.846946
0.838475
0.834784
0.832251
0.829454
0.825295
0.821351
0.818246
0.815255
0.810744
0.806739
0.808715
0.819139
0.846208
0.89197
0.940209
0.983165
1.01529
1.0429
1.0534
1.05836
1.05836
1.05405
1.04637
1.04625
1.05223
1.06691
1.08509
1.09313
1.09223
1.08866
1.08471
1.07972
1.06851
1.05832
1.057
1.05731
1.0607
1.07322
1.09099
1.09845
1.09969
1.099
1.09361
1.08024
1.06006
1.04813
1.04592
1.04534
1.04678
1.05627
1.07341
1.08275
1.08401
1.08414
1.07959
1.06373
1.04444
1.0422
1.05088
1.10939
1.80478
1.78774
1.77028
1.74851
1.7225
1.68808
1.63567
1.57697
1.5459
1.53091
1.51626
1.50474
1.49654
1.48647
1.47128
1.4538
1.43191
1.39836
1.35394
1.32744
1.3178
1.30874
1.29765
1.28964
1.28391
1.27487
1.26179
1.23932
1.21581
1.20343
1.18957
1.17741
1.16786
1.15681
1.14745
1.1373
1.12384
1.11166
1.10275
1.09369
1.08494
1.0778
1.06894
1.05465
1.0335
1.01695
1.01318
1.01006
1.00358
0.997493
0.994507
0.991535
0.986164
0.978982
0.967756
0.948067
0.933078
0.929317
0.92702
0.923556
0.920324
0.918709
0.916466
0.912043
0.907084
0.900568
0.888069
0.873295
0.865259
0.859529
0.855292
0.852345
0.849625
0.845583
0.839985
0.833944
0.826203
0.813935
0.807817
0.807982
0.808758
0.8134
0.827494
0.853054
0.895441
0.937978
0.978902
1.00404
1.0186
1.03179
1.03672
1.03932
1.04379
1.05562
1.07614
1.09216
1.09528
1.0949
1.09241
1.08624
1.07624
1.06523
1.06251
1.06399
1.06729
1.07675
1.09328
1.10115
1.10164
1.10161
1.09915
1.09012
1.07235
1.05711
1.05207
1.05073
1.05089
1.05758
1.07395
1.0875
1.08984
1.08944
1.08716
1.07854
1.05908
1.05577
1.08167
1.17467
1.36465
1.84494
1.82723
1.80739
1.78358
1.75319
1.70397
1.6408
1.5967
1.58337
1.57175
1.55834
1.54795
1.53818
1.52684
1.51053
1.48888
1.45492
1.40547
1.36666
1.35524
1.34957
1.34096
1.33087
1.32413
1.31718
1.30576
1.28952
1.26235
1.23409
1.22422
1.21343
1.20042
1.19034
1.18138
1.17318
1.16316
1.14986
1.13686
1.12661
1.1145
1.10361
1.09587
1.08509
1.06965
1.05169
1.03965
1.03666
1.03437
1.02882
1.02056
1.01445
1.00961
1.00344
0.993424
0.979127
0.963057
0.952895
0.949443
0.947626
0.945478
0.941758
0.938781
0.93591
0.931243
0.924572
0.915197
0.899609
0.886972
0.883187
0.879478
0.874996
0.871468
0.86838
0.865
0.859922
0.852996
0.842579
0.825949
0.816346
0.814021
0.814038
0.815609
0.819053
0.824326
0.835446
0.854971
0.877979
0.90887
0.941652
0.977214
0.999799
1.02033
1.03616
1.04866
1.07174
1.08925
1.09251
1.09319
1.09243
1.08651
1.07376
1.06645
1.06818
1.07252
1.08058
1.09486
1.1054
1.10599
1.10497
1.10268
1.09703
1.08364
1.0676
1.06063
1.05855
1.05772
1.06133
1.07515
1.09001
1.09437
1.09373
1.09172
1.08811
1.07307
1.07659
1.12462
1.27011
1.48563
1.65313
1.88617
1.86488
1.84032
1.81064
1.76762
1.70665
1.65374
1.6365
1.62768
1.61456
1.60201
1.59216
1.58054
1.56629
1.54633
1.51124
1.46164
1.41399
1.39457
1.38848
1.38363
1.37406
1.36474
1.35891
1.35022
1.33608
1.31535
1.28271
1.25619
1.24652
1.23756
1.22574
1.21352
1.20585
1.19836
1.1881
1.17546
1.16154
1.15071
1.13794
1.12314
1.11362
1.10164
1.08573
1.07139
1.06277
1.05981
1.05798
1.05351
1.0453
1.03628
1.02807
1.01923
1.00577
0.989137
0.980624
0.974969
0.97014
0.967527
0.966118
0.96305
0.95903
0.955159
0.95002
0.941662
0.928035
0.911155
0.903165
0.901093
0.898493
0.894242
0.890318
0.887061
0.883703
0.879019
0.870181
0.857189
0.842393
0.834319
0.832002
0.830144
0.827844
0.827626
0.828969
0.830668
0.831436
0.833728
0.838813
0.853532
0.883513
0.930285
0.973153
1.00895
1.03274
1.05705
1.07628
1.08389
1.08753
1.08707
1.08098
1.06967
1.06751
1.0708
1.07888
1.09227
1.105
1.10794
1.10723
1.10552
1.10208
1.09361
1.08025
1.07212
1.06994
1.06878
1.07014
1.08054
1.09438
1.09837
1.09772
1.0961
1.09196
1.08664
1.102
1.19227
1.39167
1.57254
1.70535
1.79204
1.92547
1.89923
1.86939
1.83078
1.77317
1.7138
1.69064
1.68134
1.67114
1.6581
1.64682
1.63584
1.62191
1.60299
1.5708
1.51655
1.46732
1.43961
1.42962
1.42377
1.41848
1.40822
1.39893
1.39278
1.38229
1.36512
1.33769
1.30191
1.28279
1.2725
1.26268
1.25136
1.2381
1.2302
1.22274
1.21279
1.20097
1.18622
1.17404
1.16161
1.14539
1.13163
1.11879
1.10472
1.09218
1.08642
1.08334
1.08025
1.0764
1.06919
1.05895
1.04784
1.03432
1.01657
1.00364
1.00026
0.997128
0.991922
0.987821
0.985915
0.983205
0.979078
0.97441
0.968139
0.957164
0.939696
0.926229
0.921808
0.919457
0.917135
0.913652
0.909074
0.905149
0.901217
0.895557
0.884467
0.869444
0.860392
0.855328
0.852514
0.849746
0.846151
0.843121
0.840609
0.837759
0.834611
0.830019
0.824097
0.824461
0.829936
0.851138
0.885344
0.931157
0.976968
1.02071
1.05238
1.06349
1.07272
1.0728
1.06916
1.06499
1.06595
1.07195
1.0855
1.10042
1.10578
1.1062
1.10523
1.10319
1.09868
1.08878
1.08074
1.0803
1.08061
1.08126
1.08778
1.10133
1.10532
1.10348
1.10188
1.09744
1.10601
1.15554
1.28267
1.49106
1.66561
1.76682
1.82508
1.84602
1.95995
1.92944
1.89387
1.84318
1.77891
1.74526
1.73571
1.72461
1.71312
1.7021
1.69086
1.67746
1.66004
1.63154
1.57804
1.51718
1.48992
1.47699
1.46701
1.46041
1.45374
1.44312
1.43287
1.42439
1.41215
1.39144
1.35433
1.32307
1.31032
1.29991
1.28988
1.27772
1.26342
1.25562
1.24748
1.23748
1.22683
1.21179
1.19667
1.18265
1.16632
1.1504
1.13778
1.12708
1.11622
1.11071
1.10726
1.10223
1.09703
1.09065
1.07995
1.06613
1.04797
1.02954
1.02318
1.02098
1.01857
1.01433
1.0092
1.00569
1.00245
0.997652
0.991808
0.983607
0.969098
0.951206
0.944711
0.941953
0.938852
0.936178
0.9331
0.928674
0.923547
0.918157
0.909621
0.894584
0.881494
0.87818
0.876134
0.873312
0.870255
0.866984
0.863296
0.859229
0.854065
0.845951
0.833385
0.82628
0.826233
0.82883
0.831514
0.838069
0.854968
0.884467
0.920589
0.964572
0.998972
1.03109
1.04902
1.05723
1.06631
1.06878
1.07612
1.09325
1.10349
1.10439
1.10444
1.10306
1.09902
1.09175
1.08332
1.08195
1.08443
1.08709
1.09184
1.10302
1.11095
1.11023
1.10788
1.1101
1.13352
1.2253
1.41581
1.59806
1.74816
1.80054
1.83588
1.84449
1.84784
1.98887
1.95521
1.91323
1.85245
1.80343
1.79049
1.78005
1.76618
1.75529
1.74516
1.73214
1.71549
1.69088
1.64275
1.57567
1.53568
1.52619
1.51464
1.50551
1.49845
1.4898
1.47935
1.46778
1.45512
1.4394
1.41172
1.36772
1.3467
1.33843
1.32799
1.31711
1.30547
1.29222
1.28255
1.27345
1.26366
1.25182
1.23605
1.21804
1.20117
1.18499
1.16992
1.15923
1.15103
1.14206
1.13673
1.13183
1.12529
1.11789
1.11019
1.09851
1.08028
1.06066
1.04885
1.04455
1.04185
1.03976
1.03646
1.03148
1.02622
1.02163
1.01603
1.00749
0.995505
0.978577
0.966842
0.963871
0.961877
0.958763
0.955469
0.952472
0.948536
0.94297
0.935212
0.921983
0.904574
0.897279
0.895273
0.893917
0.892582
0.88974
0.886545
0.883165
0.87887
0.871954
0.85897
0.843133
0.838033
0.837302
0.836427
0.836568
0.838633
0.839268
0.842666
0.852607
0.873008
0.89951
0.932153
0.970908
1.00665
1.03906
1.05452
1.07072
1.0956
1.10664
1.10721
1.10749
1.10472
1.09492
1.08613
1.08316
1.08473
1.0878
1.09256
1.10172
1.11196
1.11387
1.11484
1.12992
1.1857
1.31815
1.52947
1.73082
1.79792
1.81719
1.8206
1.83922
1.85902
1.8638
2.01425
1.97752
1.92839
1.86956
1.8471
1.83647
1.82186
1.80799
1.79768
1.7862
1.77017
1.74834
1.70787
1.64068
1.58506
1.57263
1.56412
1.55262
1.545
1.53698
1.52713
1.5167
1.50451
1.48729
1.46099
1.42156
1.38456
1.37197
1.36557
1.35636
1.34434
1.33243
1.32203
1.3119
1.30143
1.29172
1.27832
1.25747
1.23587
1.21784
1.20261
1.19068
1.18266
1.17624
1.16879
1.16287
1.15718
1.1495
1.13951
1.12808
1.11314
1.09119
1.07596
1.07184
1.06775
1.06312
1.06028
1.0575
1.05293
1.04704
1.04102
1.03357
1.02089
1.00326
0.991243
0.986701
0.983975
0.981637
0.978642
0.975001
0.971558
0.967673
0.961083
0.949717
0.932215
0.918448
0.914704
0.912542
0.911207
0.910723
0.90872
0.905407
0.901876
0.896851
0.887381
0.87052
0.857981
0.855974
0.855415
0.853131
0.849284
0.844697
0.842785
0.844262
0.844684
0.843543
0.845882
0.853084
0.877155
0.914997
0.962069
1.00526
1.04698
1.08128
1.09706
1.10316
1.10572
1.10471
1.09681
1.08864
1.0878
1.08952
1.09432
1.10232
1.11238
1.11623
1.12281
1.15464
1.27755
1.45245
1.64274
1.79138
1.84285
1.85438
1.85461
1.85588
1.86661
1.8712
1.86866
2.03963
1.99874
1.94375
1.90538
1.89339
1.87873
1.86265
1.85025
1.83914
1.82462
1.8043
1.77236
1.71079
1.64279
1.6187
1.61157
1.60137
1.59177
1.58444
1.57569
1.56566
1.55471
1.54047
1.51542
1.4686
1.42864
1.41025
1.3994
1.39143
1.38341
1.37254
1.36143
1.35217
1.3423
1.33159
1.31962
1.30312
1.27621
1.25001
1.23476
1.22248
1.21309
1.20763
1.2022
1.19591
1.18945
1.18243
1.17448
1.16307
1.14565
1.12278
1.10367
1.09758
1.09479
1.09107
1.08578
1.08104
1.07783
1.07348
1.06744
1.06001
1.04876
1.02987
1.01362
1.00948
1.00759
1.00452
1.00164
0.998583
0.994792
0.990702
0.985839
0.976884
0.959853
0.943956
0.936138
0.932681
0.930326
0.928962
0.928184
0.926456
0.923299
0.919159
0.912247
0.89831
0.881315
0.876048
0.875088
0.875049
0.873526
0.869146
0.862797
0.857535
0.854733
0.851708
0.846468
0.837777
0.834221
0.83644
0.84738
0.874916
0.924399
0.974718
1.02015
1.05237
1.0775
1.08741
1.08958
1.08844
1.08565
1.08624
1.09027
1.09982
1.11215
1.12189
1.14458
1.20868
1.3596
1.59592
1.73981
1.84695
1.87412
1.86737
1.87228
1.87443
1.87797
1.87373
1.86615
1.86108
2.06783
2.02093
1.96923
1.94988
1.93635
1.91901
1.90384
1.89216
1.8787
1.86008
1.83301
1.78266
1.70995
1.66855
1.65987
1.65011
1.6399
1.63185
1.62352
1.6141
1.60374
1.59119
1.57072
1.5272
1.47235
1.44634
1.43863
1.42906
1.41886
1.41078
1.40141
1.39184
1.38299
1.3739
1.36391
1.34739
1.32001
1.2885
1.26505
1.2536
1.24581
1.2392
1.23362
1.22807
1.22207
1.2158
1.20839
1.19807
1.18177
1.15758
1.13359
1.12387
1.12066
1.1177
1.11393
1.10868
1.10281
1.09805
1.09345
1.08659
1.07632
1.05921
1.03843
1.03077
1.02895
1.0282
1.02557
1.02203
1.01881
1.01486
1.00979
1.00255
0.988464
0.967938
0.959159
0.955351
0.951509
0.948853
0.947365
0.945734
0.94346
0.939957
0.934096
0.923939
0.907074
0.895726
0.893858
0.893279
0.893521
0.892498
0.888606
0.882716
0.876344
0.871171
0.864959
0.853103
0.83874
0.836275
0.836929
0.838471
0.843765
0.858339
0.883488
0.921356
0.965244
1.00858
1.03144
1.04874
1.06498
1.07186
1.07696
1.08456
1.1002
1.12045
1.17458
1.31681
1.47789
1.69167
1.81176
1.87216
1.89957
1.90024
1.89163
1.88526
1.88325
1.88396
1.87431
1.86402
1.85691
2.09895
2.04671
2.00831
1.99286
1.97636
1.95873
1.94527
1.93254
1.91543
1.89124
1.85146
1.78369
1.7237
1.7102
1.70109
1.68943
1.68082
1.67286
1.66283
1.65217
1.64009
1.62285
1.58662
1.52747
1.48597
1.47446
1.46704
1.45919
1.44881
1.4405
1.43271
1.42435
1.41559
1.40668
1.39436
1.36669
1.32464
1.29763
1.28559
1.27816
1.27201
1.26607
1.26024
1.25511
1.2497
1.24315
1.2348
1.2196
1.19231
1.16438
1.15134
1.14734
1.14469
1.14124
1.1371
1.13186
1.12563
1.1195
1.11348
1.10434
1.08762
1.06667
1.05433
1.0505
1.04861
1.04846
1.04658
1.04265
1.0389
1.03483
1.02868
1.01711
0.996247
0.980452
0.976648
0.973756
0.970349
0.967878
0.965864
0.963265
0.960192
0.955818
0.946382
0.931593
0.917689
0.912353
0.910967
0.91073
0.911215
0.910224
0.906888
0.902221
0.89647
0.889529
0.87997
0.864189
0.848749
0.845904
0.845133
0.845654
0.847847
0.851364
0.855883
0.863508
0.878052
0.900339
0.93609
0.974506
1.01658
1.03871
1.05866
1.07449
1.10513
1.17887
1.38739
1.61934
1.75161
1.86155
1.86429
1.8841
1.88867
1.88611
1.88775
1.88498
1.88388
1.88157
1.87165
1.86409
1.8602
2.13136
2.08349
2.05207
2.03306
2.01478
1.9988
1.98642
1.97103
1.949
1.91611
1.85881
1.78771
1.75889
1.75111
1.74057
1.73037
1.72331
1.71417
1.70263
1.68987
1.6737
1.64451
1.58768
1.53141
1.51329
1.50414
1.49611
1.49052
1.48166
1.47355
1.46669
1.45876
1.44983
1.43834
1.41452
1.36975
1.32884
1.3169
1.31146
1.30468
1.29857
1.2939
1.28906
1.28401
1.27855
1.27112
1.25793
1.23021
1.19876
1.18096
1.17466
1.17083
1.16842
1.16484
1.16044
1.15555
1.14949
1.14266
1.13393
1.11743
1.09238
1.07965
1.07538
1.07125
1.06885
1.06864
1.06702
1.06318
1.05895
1.05395
1.0451
1.0268
1.00646
0.998093
0.994729
0.991815
0.989513
0.987467
0.984596
0.981189
0.976902
0.969759
0.955061
0.940159
0.932794
0.929309
0.927968
0.92793
0.928314
0.926826
0.923638
0.919683
0.914442
0.906403
0.892947
0.874938
0.865473
0.863489
0.863035
0.861811
0.859797
0.859159
0.860045
0.859581
0.856949
0.857389
0.865649
0.885839
0.921016
0.965311
1.01951
1.09385
1.2231
1.42689
1.68154
1.79009
1.86477
1.89296
1.89645
1.89948
1.90468
1.90351
1.89793
1.89214
1.8861
1.87916
1.87192
1.86711
1.8643
2.1659
2.12641
2.097
2.07373
2.05357
2.03915
2.0259
2.00677
1.9789
1.93348
1.86395
1.81129
1.80005
1.79088
1.78005
1.77221
1.76495
1.75445
1.74186
1.72628
1.70184
1.65233
1.58594
1.55286
1.54393
1.53422
1.52699
1.5236
1.51695
1.50909
1.50212
1.49392
1.48321
1.46239
1.41788
1.36685
1.34645
1.34348
1.34023
1.33261
1.32636
1.32275
1.31919
1.31433
1.30804
1.29646
1.26972
1.23154
1.21217
1.20508
1.19887
1.19474
1.19251
1.18892
1.18433
1.17972
1.17427
1.1663
1.15173
1.12379
1.10184
1.09799
1.0963
1.09265
1.08983
1.08901
1.08721
1.08356
1.07893
1.07176
1.05653
1.03285
1.02223
1.01776
1.0136
1.01062
1.009
1.00705
1.00372
0.999355
0.993006
0.980482
0.961826
0.952885
0.949187
0.946371
0.945405
0.945876
0.9456
0.943319
0.939909
0.935908
0.929479
0.918343
0.902964
0.889485
0.884846
0.883225
0.882156
0.880401
0.877394
0.87451
0.871773
0.866947
0.858797
0.854249
0.853811
0.855604
0.864206
0.887438
0.948879
1.17066
1.41674
1.63413
1.76783
1.78631
1.84991
1.8696
1.87019
1.89297
1.91264
1.91213
1.91156
1.90949
1.90308
1.89227
1.88351
1.87767
1.87364
2.20501
2.16978
2.14202
2.11601
2.09439
2.07864
2.0619
2.03876
2.0033
1.94471
1.87711
1.85302
1.84334
1.83053
1.81933
1.81168
1.80261
1.79152
1.77809
1.75803
1.71837
1.65217
1.59892
1.58601
1.57647
1.56677
1.5607
1.55872
1.55354
1.54551
1.53751
1.52768
1.51024
1.46972
1.41221
1.37924
1.37381
1.37283
1.37099
1.36252
1.35599
1.3531
1.35015
1.34485
1.33556
1.3121
1.26989
1.24017
1.23509
1.23014
1.22365
1.21988
1.21782
1.21414
1.20944
1.20463
1.19854
1.18646
1.15984
1.13065
1.12169
1.11877
1.11717
1.11482
1.11209
1.11015
1.10768
1.10397
1.09813
1.08607
1.06134
1.04326
1.04063
1.03801
1.03348
1.03038
1.02897
1.02675
1.02306
1.0174
1.00699
0.987669
0.972761
0.96878
0.965671
0.963624
0.963281
0.96411
0.962907
0.959958
0.956179
0.951341
0.942015
0.925542
0.912288
0.906164
0.903729
0.90257
0.901645
0.899654
0.896825
0.892973
0.88787
0.878088
0.863531
0.856692
0.856596
0.85971
0.883808
0.957364
1.14594
1.3797
1.51952
1.64411
1.68207
1.69113
1.73731
1.7852
1.80844
1.83637
1.86647
1.89865
1.91436
1.91774
1.91332
1.90274
1.89576
1.89318
1.89307
2.2472
2.21456
2.1861
2.1594
2.13802
2.1178
2.09497
2.06475
2.01731
1.95434
1.91135
1.90012
1.88934
1.87229
1.85809
1.8473
1.83637
1.82468
1.80914
1.77995
1.72376
1.6582
1.63205
1.62287
1.61241
1.60299
1.59729
1.59504
1.58953
1.58072
1.57078
1.55587
1.52207
1.46451
1.41846
1.40823
1.40435
1.40387
1.40266
1.39439
1.3878
1.38478
1.38093
1.37381
1.35545
1.31348
1.27194
1.2614
1.25945
1.25521
1.24936
1.24637
1.24473
1.24095
1.23604
1.23015
1.22002
1.19609
1.16273
1.14764
1.14426
1.14136
1.13966
1.13848
1.13537
1.13203
1.12867
1.12401
1.11466
1.09244
1.06653
1.05984
1.05885
1.05817
1.05411
1.05087
1.0492
1.04657
1.04226
1.03391
1.01624
0.99476
0.988639
0.985867
0.98281
0.981521
0.981833
0.982432
0.980718
0.977288
0.972574
0.964741
0.94933
0.93291
0.926812
0.923668
0.921685
0.920826
0.919544
0.917194
0.914483
0.910368
0.90234
0.890303
0.878199
0.874783
0.879701
0.914285
1.04174
1.2012
1.4217
1.51734
1.54502
1.57146
1.57872
1.5818
1.60077
1.64675
1.6996
1.74818
1.79499
1.83995
1.86999
1.88489
1.88927
1.89058
1.89242
1.89591
1.905
2.28973
2.25805
2.22826
2.20366
2.18286
2.15869
2.12761
2.08275
2.02537
1.97373
1.9558
1.94794
1.93508
1.91672
1.89869
1.88327
1.87001
1.8558
1.83313
1.78813
1.72662
1.68333
1.67235
1.66291
1.65187
1.64232
1.63586
1.6309
1.62346
1.61332
1.59946
1.57109
1.51964
1.4667
1.4475
1.44162
1.43762
1.43751
1.43534
1.42706
1.42067
1.41628
1.41033
1.39713
1.36068
1.31065
1.28875
1.28532
1.28492
1.28151
1.27657
1.2747
1.27327
1.26914
1.26348
1.25436
1.23244
1.19691
1.17452
1.17046
1.16797
1.16532
1.1635
1.16258
1.15936
1.15513
1.15032
1.14243
1.12385
1.09489
1.08099
1.07856
1.07792
1.07848
1.07512
1.07202
1.06954
1.06633
1.06044
1.04627
1.02134
1.00824
1.00676
1.00412
1.00097
1.00002
1.0007
1.00065
0.998545
0.994756
0.988034
0.97406
0.954058
0.945436
0.942751
0.940384
0.93915
0.938721
0.937148
0.93448
0.931007
0.92512
0.913002
0.900466
0.89733
0.90638
0.955998
1.12161
1.33721
1.47948
1.57352
1.57385
1.56284
1.55487
1.54881
1.54654
1.5497
1.56212
1.58343
1.60908
1.64009
1.67701
1.71415
1.74966
1.78797
1.82405
1.85375
1.87357
1.89704
2.33274
2.29925
2.26766
2.24507
2.22517
2.19877
2.15727
2.09625
2.03772
2.00961
2.00043
1.99308
1.97842
1.96018
1.94138
1.92309
1.90572
1.88412
1.84384
1.78624
1.73982
1.723
1.71455
1.70484
1.6936
1.68358
1.67496
1.66625
1.65631
1.64268
1.61622
1.56911
1.51781
1.49286
1.4845
1.4779
1.47419
1.47357
1.46868
1.46035
1.45333
1.44634
1.43555
1.40715
1.35595
1.32015
1.31397
1.31151
1.31151
1.30886
1.30553
1.30471
1.30253
1.29781
1.28987
1.27064
1.23353
1.20241
1.19598
1.19374
1.19292
1.19018
1.18787
1.18662
1.18336
1.17871
1.17175
1.15623
1.12639
1.10424
1.10061
1.09881
1.09879
1.09836
1.09594
1.09294
1.08958
1.08523
1.07528
1.05189
1.03013
1.02643
1.02586
1.02354
1.02029
1.01923
1.01962
1.01876
1.01629
1.0112
0.999298
0.978311
0.965471
0.962321
0.959473
0.957356
0.95676
0.956138
0.954009
0.950696
0.945476
0.936166
0.921879
0.921137
0.940828
1.02934
1.19318
1.44181
1.56762
1.62337
1.62003
1.58487
1.55792
1.55611
1.5655
1.57178
1.56596
1.56296
1.55979
1.55969
1.56251
1.56522
1.57471
1.59608
1.63023
1.6759
1.73424
1.79077
1.83946
2.37675
2.33926
2.30649
2.28423
2.26215
2.23047
2.1798
2.1143
2.07006
2.05422
2.04401
2.03313
2.01791
2.00105
1.98341
1.96458
1.94209
1.9056
1.84516
1.79059
1.77253
1.76347
1.75565
1.74677
1.7362
1.72553
1.71474
1.70339
1.68904
1.66319
1.61493
1.56105
1.53767
1.53099
1.52239
1.51663
1.51415
1.5105
1.5031
1.49419
1.4852
1.47377
1.44988
1.40321
1.35715
1.34486
1.34109
1.3398
1.34011
1.3383
1.33633
1.33509
1.33162
1.32526
1.30971
1.27405
1.23425
1.22178
1.21916
1.21864
1.21904
1.21546
1.21297
1.21105
1.2074
1.20181
1.18988
1.16124
1.13058
1.1228
1.12085
1.12126
1.12175
1.11879
1.11638
1.11332
1.10906
1.10193
1.08328
1.05608
1.047
1.04567
1.04557
1.04369
1.04043
1.0391
1.03859
1.03697
1.03353
1.02427
1.00375
0.98589
0.982548
0.979719
0.976444
0.974639
0.97433
0.973385
0.97077
0.966408
0.959008
0.944647
0.944718