/*--------------------------------*- C++ -*----------------------------------*\
  =========                 |
  \\      /  F ield         | OpenFOAM: The Open Source CFD Toolbox
   \\    /   O peration     | Website:  https://openfoam.org
    \\  /    A nd           | Version:  7
     \\/     M anipulation  |
\*---------------------------------------------------------------------------*/
FoamFile
{
    version     2.0;
    format      ascii;
    class       volScalarField;
    location    "1.6";
    object      T;
}
// * * * * * * * * * * * * * * * * * * * * * * * * * * * * * * * * * * * * * //

dimensions      [0 0 0 1 0 0 0];

internalField   nonuniform List<scalar> 
4128
(
1.89316
1.88622
1.87635
1.86374
1.84459
1.82184
1.80863
1.80391
1.80102
1.79495
1.78838
1.78377
1.778
1.76971
1.75626
1.73208
1.70872
1.70122
1.69728
1.69434
1.69273
1.69019
1.68656
1.68253
1.67719
1.66711
1.64506
1.62016
1.6122
1.60898
1.60701
1.60719
1.60577
1.60175
1.59745
1.59256
1.58529
1.57053
1.54603
1.53121
1.52722
1.52509
1.5258
1.52544
1.52051
1.51552
1.51098
1.50457
1.49033
1.46942
1.46013
1.45662
1.45576
1.45693
1.46064
1.46342
1.46276
1.46737
1.4775
1.49438
1.51968
1.5473
1.5722
1.59355
1.60988
1.62443
1.6434
1.64972
1.65114
1.65133
1.64965
1.64358
1.63406
1.63003
1.63053
1.63179
1.63687
1.64791
1.65443
1.6548
1.65434
1.65205
1.64603
1.64027
1.63873
1.63866
1.63961
1.64335
1.64951
1.65341
1.65298
1.65128
1.64853
1.64368
1.63876
1.6381
1.63843
1.6393
1.64152
1.64602
1.6507
1.65259
1.6531
1.65292
1.65107
1.6477
1.64611
1.64569
1.64537
1.64553
1.64611
1.64584
1.64328
1.64016
1.6368
1.63309
1.63166
1.63166
1.63191
1.63273
1.63494
1.63686
1.63742
1.63816
1.63847
1.63802
1.63545
1.63121
1.62888
1.88533
1.87807
1.86711
1.85138
1.83306
1.81849
1.80805
1.80323
1.80032
1.79402
1.78593
1.78001
1.77302
1.7626
1.7459
1.72152
1.70715
1.70185
1.69786
1.69523
1.6938
1.69091
1.68697
1.68258
1.67579
1.66047
1.63327
1.61604
1.6116
1.60883
1.60812
1.60938
1.6072
1.60287
1.59869
1.5939
1.58462
1.56328
1.54018
1.53264
1.52952
1.52767
1.52895
1.52847
1.52341
1.51819
1.513
1.5046
1.4876
1.46864
1.46211
1.45829
1.45526
1.45563
1.4572
1.45656
1.45454
1.45198
1.44782
1.44436
1.44931
1.46551
1.4983
1.53296
1.56669
1.59391
1.61782
1.62756
1.63024
1.63107
1.6294
1.62302
1.61546
1.61369
1.61483
1.61811
1.62674
1.63775
1.64102
1.64088
1.63984
1.63651
1.62933
1.62462
1.62414
1.62413
1.62588
1.6321
1.63895
1.64066
1.64011
1.63805
1.63407
1.62785
1.6238
1.62356
1.62383
1.62494
1.62794
1.63308
1.63656
1.63775
1.63848
1.63811
1.63518
1.63195
1.6316
1.63189
1.63246
1.63415
1.63573
1.63534
1.63302
1.62998
1.62606
1.62173
1.61964
1.61894
1.61853
1.61843
1.61885
1.62054
1.62148
1.62219
1.62272
1.62271
1.62232
1.62166
1.62049
1.87875
1.87097
1.85818
1.83934
1.82454
1.81512
1.80609
1.80091
1.79754
1.79098
1.78233
1.77561
1.76764
1.75504
1.73531
1.71434
1.7075
1.70256
1.69788
1.69518
1.69368
1.69039
1.68574
1.68027
1.67064
1.64997
1.62496
1.6156
1.61218
1.60955
1.60932
1.6103
1.60744
1.60312
1.59873
1.59276
1.57888
1.55407
1.53946
1.53551
1.53268
1.53132
1.53274
1.53133
1.52599
1.52043
1.51414
1.5028
1.48401
1.46997
1.46525
1.46178
1.4583
1.45803
1.45777
1.4547
1.45118
1.44649
1.43865
1.43068
1.42809
1.42941
1.43811
1.45937
1.49475
1.53516
1.57189
1.59713
1.60446
1.60859
1.6075
1.60217
1.59946
1.59952
1.60192
1.60811
1.61703
1.62327
1.62477
1.62437
1.62328
1.62026
1.61384
1.61048
1.61016
1.61018
1.61269
1.62061
1.62733
1.62849
1.62848
1.62712
1.62214
1.61506
1.61163
1.61147
1.61155
1.61224
1.6151
1.6199
1.62187
1.62245
1.62322
1.62286
1.61999
1.61778
1.61798
1.61903
1.62032
1.62264
1.62428
1.62411
1.62264
1.62026
1.61682
1.61275
1.60983
1.60829
1.60713
1.60616
1.60563
1.60592
1.60721
1.6081
1.60894
1.60995
1.61117
1.61188
1.61146
1.87347
1.86469
1.85031
1.83006
1.81929
1.81245
1.80381
1.7984
1.79451
1.78777
1.77914
1.772
1.76294
1.74801
1.72674
1.71188
1.70842
1.70408
1.69823
1.69486
1.69273
1.68884
1.68313
1.67602
1.66281
1.63887
1.62111
1.61636
1.61349
1.61122
1.61095
1.61029
1.60664
1.60241
1.59751
1.58888
1.56937
1.54777
1.54119
1.53823
1.53609
1.53591
1.53618
1.53276
1.52755
1.52212
1.51481
1.50107
1.4837
1.47429
1.47008
1.46663
1.46369
1.4627
1.46028
1.45646
1.45178
1.44453
1.43231
1.4226
1.42123
1.42119
1.4216
1.42474
1.43534
1.45943
1.49129
1.52733
1.54896
1.56646
1.57527
1.57821
1.58242
1.58523
1.59042
1.59986
1.6067
1.60884
1.60946
1.6089
1.6071
1.60378
1.59885
1.59771
1.59831
1.59921
1.6032
1.61183
1.61665
1.61753
1.61781
1.6158
1.609
1.60265
1.60008
1.59948
1.59936
1.60015
1.60355
1.60814
1.60897
1.60889
1.60914
1.60889
1.60669
1.60519
1.60572
1.60733
1.60873
1.61024
1.61203
1.61227
1.61168
1.61033
1.60782
1.60427
1.60119
1.59935
1.59788
1.59644
1.59532
1.59503
1.5957
1.59665
1.59765
1.59925
1.601
1.60143
1.59968
1.86833
1.85779
1.84294
1.82424
1.81699
1.81181
1.80351
1.79744
1.79293
1.78616
1.77693
1.7687
1.75782
1.74125
1.72225
1.713
1.71059
1.70663
1.69954
1.69494
1.69169
1.68696
1.6795
1.66969
1.65371
1.63189
1.62122
1.61808
1.61556
1.6135
1.61203
1.60962
1.60568
1.60096
1.5945
1.582
1.56064
1.54708
1.54359
1.54106
1.54014
1.5411
1.53868
1.53418
1.52946
1.52383
1.51446
1.49785
1.48404
1.47849
1.47464
1.47124
1.4688
1.46749
1.4646
1.46073
1.4552
1.44544
1.43013
1.42102
1.41922
1.41779
1.41736
1.41809
1.41965
1.42309
1.43089
1.44705
1.46705
1.48929
1.51406
1.5355
1.55293
1.56263
1.57187
1.58664
1.59569
1.59698
1.59721
1.59648
1.59343
1.58785
1.58441
1.58552
1.58789
1.59132
1.59854
1.60637
1.60789
1.60803
1.60752
1.60353
1.59542
1.58959
1.58769
1.58696
1.58699
1.58932
1.59462
1.59874
1.59923
1.59882
1.59823
1.59687
1.59399
1.59267
1.59328
1.5951
1.5968
1.59809
1.60047
1.60178
1.60167
1.60115
1.59936
1.59583
1.59289
1.59135
1.59009
1.58865
1.58731
1.58707
1.58724
1.58728
1.58769
1.58884
1.58928
1.58787
1.58437
1.86291
1.85024
1.83589
1.82123
1.81637
1.81248
1.80501
1.79837
1.79297
1.7857
1.77518
1.76431
1.75095
1.73558
1.72173
1.71654
1.71456
1.71003
1.70224
1.69583
1.6913
1.68467
1.67531
1.66206
1.64588
1.63033
1.62327
1.62023
1.61816
1.61559
1.6123
1.60898
1.60481
1.5992
1.59059
1.57472
1.55705
1.54927
1.54624
1.54394
1.54357
1.54387
1.54059
1.53626
1.53176
1.52547
1.5134
1.49602
1.48726
1.48331
1.47951
1.47614
1.47401
1.47194
1.46858
1.46434
1.45781
1.44593
1.43093
1.42469
1.42265
1.42122
1.41944
1.41695
1.41609
1.41653
1.41652
1.4153
1.41596
1.4199
1.43755
1.46682
1.49801
1.52518
1.54769
1.568
1.57691
1.57943
1.58054
1.58033
1.5778
1.57269
1.57017
1.57195
1.5764
1.58347
1.59326
1.59841
1.59871
1.59836
1.59666
1.59116
1.58275
1.5784
1.57692
1.57623
1.57725
1.58244
1.58876
1.59098
1.59079
1.58944
1.58698
1.58288
1.57946
1.57877
1.57969
1.58205
1.58446
1.58697
1.59126
1.59389
1.59431
1.59419
1.59249
1.58846
1.58552
1.58371
1.5824
1.58139
1.58069
1.58063
1.58028
1.579
1.57822
1.57771
1.57584
1.57205
1.57024
1.85769
1.84379
1.83095
1.82024
1.81658
1.81366
1.807
1.79987
1.79381
1.786
1.77335
1.75804
1.74432
1.73348
1.72463
1.72117
1.71908
1.71375
1.70546
1.69724
1.69124
1.6824
1.6706
1.655
1.64192
1.6339
1.62686
1.62277
1.62057
1.61742
1.61298
1.60858
1.60353
1.5968
1.58632
1.56966
1.55812
1.55376
1.54994
1.54728
1.54639
1.54562
1.54251
1.53837
1.5335
1.52565
1.51063
1.49648
1.49216
1.48878
1.48502
1.48183
1.47946
1.47688
1.47324
1.46815
1.45977
1.44514
1.43257
1.42909
1.42733
1.42588
1.42314
1.41991
1.41711
1.41513
1.41302
1.40885
1.40112
1.39643
1.39805
1.407
1.42764
1.46323
1.49805
1.53103
1.54579
1.55567
1.55953
1.55923
1.55852
1.55697
1.5556
1.55753
1.56473
1.57535
1.5832
1.58631
1.58691
1.5866
1.58471
1.57883
1.57216
1.56974
1.56824
1.56805
1.57122
1.57941
1.58408
1.5843
1.58314
1.57973
1.57369
1.56753
1.56396
1.56362
1.56491
1.568
1.57198
1.57779
1.58429
1.58722
1.58831
1.58838
1.58562
1.58014
1.57701
1.57488
1.57365
1.57358
1.57419
1.57478
1.57405
1.57179
1.56937
1.56627
1.56143
1.55829
1.55842
1.8537
1.84082
1.8293
1.82147
1.81812
1.81456
1.80808
1.8004
1.79356
1.78403
1.76841
1.75119
1.74168
1.73545
1.72912
1.72594
1.72326
1.71726
1.70814
1.69855
1.69047
1.6796
1.66596
1.65058
1.64258
1.6387
1.63223
1.62562
1.62247
1.61892
1.61385
1.60815
1.60166
1.59402
1.58316
1.56841
1.56054
1.55821
1.55457
1.5504
1.54864
1.54738
1.54454
1.54013
1.53413
1.52379
1.50789
1.49944
1.49704
1.49413
1.4908
1.48798
1.48512
1.48191
1.47776
1.47145
1.46008
1.44396
1.43585
1.43304
1.43186
1.43102
1.42762
1.42442
1.42129
1.41816
1.41427
1.40665
1.39439
1.38954
1.38956
1.3903
1.39337
1.40439
1.42579
1.45578
1.48689
1.51041
1.52931
1.53347
1.53735
1.54069
1.5395
1.54248
1.55424
1.5664
1.57105
1.57316
1.5735
1.57294
1.57094
1.56532
1.56132
1.56074
1.55981
1.56075
1.56805
1.57684
1.5782
1.57751
1.57515
1.56925
1.55975
1.551
1.54896
1.54911
1.5507
1.55473
1.5618
1.57159
1.57869
1.58085
1.58189
1.58091
1.57485
1.56911
1.56678
1.56481
1.56408
1.56505
1.56793
1.56889
1.56783
1.56509
1.56122
1.55517
1.54874
1.54718
1.54803
1.85068
1.84065
1.83086
1.82478
1.82033
1.81502
1.80796
1.79894
1.7897
1.77713
1.76011
1.7468
1.74331
1.73989
1.73439
1.73085
1.727
1.72029
1.70958
1.69807
1.68778
1.6759
1.66279
1.65056
1.64676
1.64379
1.63769
1.62965
1.62393
1.61894
1.61364
1.60713
1.59927
1.59161
1.58248
1.5704
1.56333
1.56118
1.55855
1.55394
1.55091
1.54922
1.54637
1.54139
1.5335
1.52004
1.50698
1.50324
1.50124
1.49876
1.4962
1.49351
1.49043
1.48686
1.48199
1.47362
1.45897
1.44453
1.4394
1.43623
1.43451
1.43443
1.43159
1.4284
1.42566
1.42245
1.41779
1.40867
1.39486
1.38869
1.38719
1.38691
1.38761
1.38892
1.3923
1.39994
1.41557
1.43339
1.45692
1.47978
1.49777
1.51406
1.52139
1.53009
1.54325
1.55546
1.55953
1.56083
1.56084
1.55981
1.55688
1.5516
1.55016
1.55068
1.551
1.55511
1.56583
1.57079
1.56996
1.56803
1.56462
1.55771
1.54677
1.54032
1.5387
1.5386
1.53998
1.54559
1.55652
1.56775
1.57215
1.57334
1.57343
1.56964
1.56133
1.55789
1.55686
1.55531
1.55502
1.55758
1.56233
1.56314
1.56172
1.55864
1.55328
1.54462
1.5382
1.53759
1.5391
1.84851
1.84131
1.83406
1.82846
1.82223
1.81509
1.8064
1.79385
1.77956
1.76653
1.75317
1.74702
1.74659
1.74453
1.73967
1.73541
1.73009
1.72229
1.70977
1.6949
1.68309
1.67265
1.66232
1.65442
1.65181
1.64854
1.64223
1.63347
1.6257
1.61849
1.61213
1.60573
1.59788
1.59011
1.58339
1.57497
1.56613
1.56307
1.5609
1.55694
1.55291
1.55073
1.54771
1.54209
1.53196
1.51722
1.50906
1.50678
1.50444
1.50208
1.5003
1.49787
1.49476
1.49102
1.48533
1.47434
1.45832
1.44804
1.44382
1.44036
1.43772
1.43707
1.43431
1.43108
1.42862
1.42528
1.4197
1.41006
1.3977
1.39139
1.3894
1.38845
1.38729
1.38609
1.38646
1.38708
1.38682
1.3885
1.39362
1.4093
1.43128
1.45974
1.48664
1.50787
1.52371
1.53678
1.54336
1.54593
1.54787
1.54798
1.5451
1.54057
1.5397
1.54117
1.54369
1.5504
1.55914
1.5604
1.55877
1.55654
1.55309
1.5451
1.53491
1.53084
1.53001
1.5301
1.53354
1.54309
1.55475
1.56105
1.56273
1.56288
1.56178
1.55634
1.54917
1.54815
1.54816
1.54753
1.54823
1.55297
1.55778
1.55774
1.55558
1.55165
1.54365
1.53328
1.52897
1.53016
1.53486
1.84716
1.84172
1.83637
1.8304
1.82297
1.81401
1.80129
1.78182
1.76687
1.75844
1.75144
1.74921
1.74938
1.74811
1.74389
1.73888
1.73218
1.72249
1.70596
1.68902
1.6795
1.67232
1.66493
1.65962
1.65673
1.65261
1.64593
1.63538
1.62595
1.61815
1.61041
1.60426
1.59812
1.59067
1.58513
1.57892
1.57042
1.56498
1.56205
1.55835
1.55398
1.55125
1.54781
1.54138
1.52965
1.51679
1.51307
1.51082
1.50742
1.50469
1.50304
1.5008
1.49733
1.4931
1.48647
1.47345
1.45879
1.45249
1.44853
1.44452
1.44123
1.43954
1.43665
1.43313
1.43043
1.42694
1.42066
1.4109
1.40193
1.39623
1.39372
1.39201
1.39011
1.38753
1.38526
1.38356
1.38145
1.37743
1.37226
1.37297
1.37944
1.39704
1.4266
1.45617
1.48212
1.5015
1.51783
1.52474
1.52829
1.53108
1.53016
1.52804
1.52876
1.53261
1.53882
1.54633
1.55005
1.54941
1.54727
1.54472
1.54096
1.53278
1.52464
1.52224
1.52188
1.52332
1.53086
1.54209
1.54752
1.54959
1.55044
1.55024
1.5476
1.54079
1.53784
1.53856
1.53979
1.54106
1.54461
1.55093
1.5531
1.55158
1.54823
1.54229
1.53144
1.52284
1.52309
1.53043
1.57043
1.84649
1.84198
1.837
1.83034
1.82204
1.81014
1.79024
1.76823
1.75934
1.75612
1.75265
1.75161
1.75167
1.7506
1.74676
1.74117
1.73299
1.71825
1.69696
1.6842
1.67936
1.67459
1.66883
1.66443
1.66102
1.65572
1.64832
1.63622
1.62376
1.61723
1.60993
1.60348
1.5985
1.59272
1.58779
1.58224
1.5747
1.56791
1.56314
1.5584
1.55401
1.5508
1.54664
1.53925
1.5277
1.51843
1.51647
1.51476
1.51096
1.50714
1.50495
1.50265
1.49876
1.49359
1.48549
1.47178
1.46064
1.45643
1.45323
1.44903
1.44488
1.442
1.43901
1.43499
1.43121
1.42693
1.41916
1.40968
1.40441
1.40068
1.39797
1.3962
1.39466
1.39232
1.38906
1.38554
1.38062
1.37268
1.36627
1.36504
1.36411
1.36558
1.3732
1.38912
1.41649
1.44353
1.46848
1.48365
1.49286
1.50157
1.5066
1.5106
1.51549
1.52381
1.53418
1.54015
1.54111
1.54091
1.53956
1.53608
1.52983
1.52147
1.51712
1.51623
1.51632
1.52031
1.53015
1.53521
1.53604
1.53701
1.53705
1.53519
1.52929
1.52562
1.52629
1.52892
1.53168
1.53606
1.54288
1.54729
1.54669
1.54297
1.5378
1.5297
1.51978
1.51942
1.53657
1.5954
1.7049
1.84643
1.8419
1.83625
1.82881
1.81858
1.80037
1.77646
1.76169
1.75916
1.7569
1.7546
1.75411
1.75357
1.75209
1.74834
1.74196
1.72885
1.70638
1.68884
1.68394
1.68138
1.67734
1.6723
1.66858
1.66455
1.65816
1.64943
1.63543
1.62095
1.61609
1.61067
1.60414
1.59923
1.59479
1.59054
1.58509
1.57774
1.57063
1.56521
1.55892
1.5534
1.54975
1.54437
1.53629
1.52674
1.52056
1.51933
1.51827
1.51519
1.51031
1.50642
1.50315
1.49906
1.49246
1.48255
1.47124
1.46354
1.45971
1.45665
1.45321
1.44872
1.44492
1.44156
1.4374
1.43249
1.42644
1.41678
1.4088
1.40637
1.40403
1.40129
1.39937
1.39791
1.39636
1.39378
1.38975
1.38293
1.37176
1.36389
1.3615
1.35919
1.35918
1.35961
1.36131
1.367
1.37908
1.39442
1.415
1.43613
1.45795
1.47274
1.4867
1.49813
1.50733
1.52102
1.52864
1.52947
1.52985
1.52951
1.52652
1.5193
1.5128
1.51174
1.51135
1.51262
1.5194
1.52567
1.52588
1.52546
1.52513
1.52381
1.51897
1.51377
1.51376
1.51657
1.52051
1.52576
1.5333
1.53933
1.53998
1.5372
1.53122
1.52528
1.51685
1.52063
1.55138
1.63847
1.75291
1.83305
1.8465
1.8409
1.83371
1.82423
1.8089
1.78586
1.76711
1.76266
1.76149
1.75908
1.75722
1.7565
1.75504
1.75259
1.74807
1.73634
1.71539
1.69481
1.68733
1.68524
1.6836
1.67949
1.67501
1.67188
1.66712
1.65964
1.6492
1.63288
1.61986
1.6154
1.61128
1.60579
1.60005
1.59644
1.59267
1.58721
1.58039
1.5729
1.56725
1.56067
1.55297
1.54821
1.54215
1.53395
1.52651
1.52237
1.52131
1.5206
1.51829
1.51366
1.50829
1.50322
1.49776
1.48936
1.47849
1.4719
1.46721
1.46281
1.45918
1.45619
1.45215
1.44773
1.44374
1.43935
1.43346
1.4249
1.41447
1.40939
1.40811
1.40656
1.40409
1.40213
1.40081
1.39952
1.39742
1.39247
1.38409
1.37372
1.36732
1.36455
1.3618
1.3588
1.35678
1.35623
1.35547
1.35405
1.35525
1.35893
1.36937
1.38975
1.42043
1.44763
1.47002
1.48555
1.50071
1.51116
1.51449
1.51625
1.51601
1.51303
1.50694
1.50458
1.50471
1.50517
1.50917
1.51567
1.51685
1.51587
1.51462
1.51342
1.51043
1.50542
1.50414
1.50595
1.50991
1.51505
1.52285
1.52997
1.53137
1.53
1.52533
1.51858
1.51446
1.52492
1.58008
1.69043
1.78169
1.83744
1.87286
1.84546
1.83829
1.82942
1.81664
1.79565
1.77458
1.7677
1.76606
1.76452
1.76194
1.75999
1.75824
1.75569
1.75171
1.74224
1.72117
1.70141
1.69107
1.68819
1.6869
1.68545
1.68129
1.67699
1.67388
1.66856
1.66014
1.64691
1.62949
1.62056
1.61613
1.61202
1.60722
1.60129
1.59772
1.59413
1.589
1.58278
1.57495
1.56859
1.56221
1.5539
1.5469
1.5404
1.53315
1.52663
1.52408
1.52287
1.52149
1.51953
1.5156
1.50981
1.50338
1.49551
1.48509
1.47667
1.47349
1.4705
1.46597
1.46161
1.45835
1.45464
1.45021
1.44578
1.44081
1.4336
1.4228
1.4143
1.41141
1.40998
1.4087
1.4069
1.40469
1.40314
1.40167
1.39919
1.39316
1.38351
1.37686
1.3728
1.36974
1.36627
1.36189
1.35798
1.35474
1.35164
1.34843
1.34441
1.34055
1.34097
1.34487
1.35966
1.3831
1.41294
1.44212
1.46952
1.48793
1.49339
1.49802
1.49804
1.49625
1.49424
1.49453
1.49619
1.49961
1.50468
1.50655
1.50615
1.50456
1.50291
1.50103
1.49726
1.4949
1.49627
1.50022
1.50481
1.51153
1.5198
1.52207
1.5209
1.519
1.51335
1.51738
1.54724
1.62064
1.72814
1.80442
1.84589
1.87066
1.8753
1.84233
1.83404
1.8235
1.80648
1.78398
1.77347
1.77164
1.76951
1.76723
1.7648
1.76216
1.75906
1.75516
1.74727
1.72799
1.70464
1.69585
1.69204
1.68987
1.6888
1.68707
1.68297
1.67842
1.6744
1.66861
1.65908
1.6415
1.62691
1.62156
1.61741
1.61356
1.60869
1.60252
1.59925
1.59553
1.5906
1.58513
1.57726
1.56939
1.56227
1.554
1.54589
1.53947
1.53398
1.52849
1.52598
1.52445
1.52197
1.51928
1.51592
1.51019
1.50261
1.49235
1.48174
1.47742
1.47541
1.47303
1.46918
1.46445
1.46041
1.45654
1.45187
1.44689
1.44102
1.43177
1.42062
1.41625
1.41437
1.41241
1.41101
1.40963
1.40772
1.40561
1.40337
1.39925
1.39071
1.38236
1.37968
1.37769
1.37476
1.37112
1.367
1.36248
1.358
1.35335
1.34734
1.33881
1.33472
1.33474
1.3364
1.33848
1.34333
1.35519
1.37529
1.39903
1.42666
1.44723
1.46564
1.47569
1.48022
1.48505
1.4862
1.48938
1.49483
1.4965
1.49606
1.49513
1.49336
1.49083
1.48759
1.48434
1.48441
1.48793
1.49272
1.49859
1.50659
1.51128
1.51069
1.51113
1.51204
1.52508
1.57765
1.68146
1.76722
1.82781
1.84205
1.85149
1.85604
1.85795
1.83697
1.82816
1.81579
1.79569
1.78012
1.7774
1.77564
1.77252
1.76998
1.76727
1.76344
1.75901
1.75223
1.73557
1.71043
1.69736
1.69572
1.69318
1.69199
1.6911
1.68886
1.68509
1.68023
1.67455
1.66754
1.655
1.63446
1.62555
1.6227
1.61887
1.61496
1.61059
1.6052
1.60129
1.59735
1.59275
1.58687
1.57886
1.56971
1.56114
1.55282
1.54504
1.53963
1.53566
1.53129
1.52877
1.5264
1.52307
1.51922
1.51525
1.50918
1.49934
1.48848
1.48172
1.4791
1.47713
1.47512
1.47206
1.4677
1.46292
1.45849
1.45362
1.44733
1.43931
1.42865
1.42097
1.4187
1.4172
1.41518
1.41343
1.41224
1.41077
1.40852
1.40501
1.39803
1.38783
1.38336
1.38193
1.38041
1.37841
1.37502
1.37107
1.36686
1.36222
1.35625
1.34705
1.33667
1.33366
1.3332
1.33328
1.33391
1.33581
1.33672
1.33945
1.34634
1.36033
1.3779
1.39826
1.42165
1.44267
1.46033
1.46823
1.47662
1.48664
1.48881
1.48824
1.48737
1.48478
1.47916
1.47528
1.47438
1.47616
1.48
1.48525
1.49253
1.49803
1.49933
1.50099
1.51203
1.54605
1.61843
1.72369
1.80937
1.83038
1.83218
1.83047
1.83557
1.84413
1.84612
1.83013
1.82079
1.80627
1.78797
1.78299
1.78169
1.77873
1.77548
1.77277
1.76914
1.76403
1.75765
1.74413
1.71892
1.6997
1.69756
1.69659
1.69484
1.69451
1.69351
1.69107
1.68763
1.68277
1.67538
1.66397
1.64617
1.62956
1.62499
1.62329
1.62041
1.61627
1.61202
1.60823
1.60432
1.59991
1.59553
1.58914
1.57909
1.5683
1.559
1.55119
1.54507
1.54112
1.5381
1.5345
1.53158
1.52867
1.52462
1.51933
1.51348
1.50577
1.49422
1.48607
1.48384
1.48163
1.47891
1.47669
1.47422
1.47043
1.46562
1.46064
1.45497
1.44664
1.43551
1.42747
1.42395
1.42172
1.41988
1.41791
1.41597
1.41459
1.4132
1.41046
1.40503
1.39531
1.38724
1.38525
1.38395
1.38251
1.38111
1.37835
1.37445
1.37024
1.36522
1.35795
1.34641
1.33784
1.33657
1.33633
1.33521
1.33333
1.33135
1.33178
1.3335
1.33402
1.33355
1.3352
1.33999
1.35592
1.37972
1.40709
1.43086
1.45305
1.4701
1.47545
1.47613
1.47613
1.47524
1.47093
1.46774
1.46783
1.46983
1.47419
1.48066
1.48598
1.48885
1.49317
1.51248
1.58449
1.67679
1.76408
1.81943
1.8278
1.82852
1.82923
1.83093
1.83475
1.8348
1.83128
1.82305
1.81258
1.79646
1.78719
1.78646
1.78423
1.78095
1.77815
1.77496
1.77013
1.76365
1.75333
1.73056
1.7058
1.69945
1.69909
1.69796
1.69725
1.69704
1.69594
1.69369
1.69032
1.68495
1.67476
1.65415
1.63666
1.62928
1.62543
1.62334
1.62129
1.61792
1.61424
1.61117
1.60754
1.60315
1.59786
1.5905
1.57792
1.56488
1.55723
1.551
1.5463
1.54368
1.54104
1.53789
1.53455
1.53078
1.52649
1.52062
1.51193
1.50018
1.4903
1.48722
1.48595
1.48411
1.48127
1.47837
1.47594
1.47259
1.46803
1.46255
1.45515
1.44354
1.43312
1.4295
1.42757
1.42496
1.42267
1.42063
1.4186
1.41682
1.41492
1.41105
1.40223
1.39331
1.38896
1.38729
1.38595
1.38462
1.38321
1.38081
1.37714
1.37264
1.36674
1.35715
1.34554
1.34148
1.34086
1.34089
1.34004
1.33761
1.33454
1.33262
1.33204
1.33107
1.32821
1.32283
1.32058
1.322
1.32885
1.34575
1.37539
1.40317
1.4268
1.44198
1.45329
1.45682
1.45754
1.45724
1.45674
1.45809
1.46193
1.46861
1.4755
1.4808
1.49437
1.5311
1.61098
1.72856
1.78927
1.82925
1.82748
1.81909
1.81943
1.8216
1.82541
1.82411
1.81959
1.81439
1.81669
1.80436
1.79075
1.78897
1.78782
1.78505
1.78235
1.77991
1.77607
1.77018
1.76154
1.7437
1.71648
1.70321
1.70237
1.70124
1.70028
1.70011
1.69957
1.69827
1.69603
1.6923
1.68507
1.66714
1.64315
1.6325
1.63004
1.62701
1.62411
1.62225
1.61971
1.61691
1.61417
1.61099
1.60707
1.60024
1.5883
1.5733
1.56196
1.55639
1.55261
1.54949
1.54679
1.54401
1.54089
1.53751
1.53344
1.52802
1.52008
1.50792
1.4957
1.49071
1.48931
1.48809
1.48637
1.48373
1.48052
1.47755
1.47437
1.4697
1.46314
1.45265
1.43995
1.4343
1.43227
1.43092
1.42839
1.42564
1.42349
1.42132
1.41892
1.41573
1.40896
1.39803
1.39335
1.39152
1.38968
1.38821
1.38695
1.38525
1.38275
1.37911
1.37384
1.36624
1.35514
1.34714
1.34508
1.34451
1.34466
1.34408
1.34197
1.33903
1.336
1.33379
1.33103
1.32477
1.31693
1.3158
1.31613
1.31662
1.31876
1.3261
1.33952
1.36037
1.38438
1.40698
1.41801
1.42664
1.4353
1.44002
1.44424
1.44975
1.45887
1.46978
1.5001
1.5804
1.65952
1.75327
1.80099
1.82191
1.82768
1.82554
1.82018
1.81609
1.81453
1.8146
1.81105
1.80633
1.8011
1.81113
1.79766
1.79007
1.78921
1.78742
1.78482
1.78291
1.78047
1.77598
1.76875
1.75545
1.73029
1.70915
1.70671
1.70579
1.70403
1.70371
1.70341
1.7022
1.70039
1.69762
1.69256
1.67905
1.65387
1.63669
1.63249
1.63047
1.62867
1.6259
1.62407
1.62236
1.62023
1.61769
1.61476
1.61034
1.5991
1.57979
1.56707
1.56156
1.55821
1.55558
1.55294
1.55017
1.54759
1.54473
1.54116
1.53664
1.5293
1.51587
1.50156
1.49486
1.49304
1.49208
1.49069
1.48885
1.48635
1.48315
1.47973
1.47612
1.47074
1.46092
1.44824
1.44012
1.437
1.43495
1.43382
1.43168
1.4287
1.4262
1.42388
1.42081
1.41536
1.40466
1.39634
1.39468
1.39349
1.39195
1.39067
1.38931
1.38725
1.38452
1.38065
1.3737
1.3636
1.35426
1.35023
1.34838
1.34774
1.34795
1.34733
1.34547
1.34312
1.34029
1.33686
1.33219
1.32391
1.31556
1.31426
1.31391
1.31402
1.31464
1.31491
1.31497
1.31688
1.32341
1.33545
1.35593
1.37796
1.40125
1.41383
1.42573
1.43555
1.45252
1.49336
1.60496
1.71892
1.77375
1.81278
1.80839
1.81084
1.81146
1.80989
1.8098
1.80746
1.80468
1.80188
1.79693
1.7929
1.78875
1.806
1.79529
1.78998
1.78813
1.78597
1.78406
1.78275
1.78003
1.77443
1.76438
1.74431
1.71838
1.71027
1.70995
1.70862
1.70748
1.7075
1.70666
1.7047
1.70207
1.69802
1.68845
1.66554
1.64245
1.63579
1.63282
1.63107
1.63055
1.62867
1.62702
1.62577
1.62394
1.62149
1.61791
1.60916
1.58945
1.57075
1.56565
1.56344
1.5608
1.55839
1.5565
1.55437
1.55195
1.54912
1.54515
1.53875
1.52538
1.50956
1.50032
1.49707
1.49556
1.49478
1.49336
1.49142
1.48914
1.48616
1.48261
1.47792
1.46912
1.45495
1.44658
1.44309
1.43996
1.4376
1.43643
1.43451
1.43159
1.42876
1.42582
1.42142
1.41225
1.40172
1.39753
1.39623
1.39517
1.39432
1.39341
1.39177
1.38946
1.38629
1.38121
1.37154
1.36154
1.35615
1.35345
1.35162
1.35101
1.35099
1.34989
1.34795
1.34578
1.34302
1.33909
1.3324
1.32277
1.31812
1.31741
1.31722
1.31637
1.31454
1.31267
1.31114
1.30816
1.30283
1.30157
1.30616
1.31831
1.33907
1.36508
1.39647
1.4392
1.51453
1.62038
1.73656
1.78185
1.81188
1.81948
1.81594
1.81089
1.80983
1.80764
1.80236
1.79717
1.79216
1.78686
1.78157
1.77671
1.7718
1.80145
1.79401
1.78938
1.78624
1.78363
1.78247
1.7813
1.77778
1.77056
1.75633
1.7321
1.71467
1.71329
1.7123
1.71077
1.71045
1.7102
1.70876
1.70641
1.70292
1.69598
1.67772
1.65122
1.63886
1.63613
1.63337
1.63239
1.63272
1.63185
1.63043
1.62917
1.62728
1.62444
1.61761
1.59896
1.57625
1.5678
1.56694
1.56616
1.56348
1.56125
1.56006
1.55873
1.55656
1.55346
1.54799
1.53548
1.51645
1.50646
1.5027
1.4998
1.49822
1.49754
1.49612
1.49407
1.49193
1.48933
1.48541
1.47828
1.46349
1.45095
1.44766
1.44588
1.44295
1.44041
1.43897
1.43704
1.43424
1.43115
1.42712
1.41941
1.40723
1.40191
1.39988
1.39815
1.3972
1.39681
1.3961
1.39438
1.39174
1.3877
1.38001
1.36828
1.36181
1.35891
1.35662
1.355
1.35471
1.35409
1.35227
1.35004
1.34757
1.34403
1.33851
1.33087
1.32396
1.3223
1.3219
1.32148
1.32029
1.3176
1.31423
1.31052
1.30545
1.29782
1.29273
1.29202
1.29325
1.29926
1.31454
1.35403
1.48992
1.61901
1.71575
1.76728
1.76819
1.79083
1.79495
1.79056
1.79246
1.79272
1.79013
1.78645
1.78299
1.77876
1.77275
1.76617
1.75983
1.75413
1.79805
1.79213
1.78805
1.78404
1.78116
1.77984
1.77786
1.77334
1.76405
1.74561
1.72316
1.71721
1.71618
1.71385
1.71206
1.71159
1.71064
1.70906
1.70667
1.70196
1.68911
1.66396
1.64371
1.6396
1.63699
1.6348
1.63445
1.63516
1.63472
1.63338
1.63178
1.6295
1.62456
1.60894
1.58369
1.57053
1.56928
1.56934
1.569
1.56605
1.56421
1.56371
1.56288
1.56072
1.55665
1.54627
1.52575
1.51075
1.5079
1.50552
1.5026
1.50117
1.50053
1.49906
1.49698
1.49479
1.49198
1.48655
1.4733
1.45756
1.45201
1.44993
1.44836
1.44616
1.44371
1.44172
1.43951
1.43675
1.4331
1.42675
1.41386
1.40467
1.40357
1.4025
1.40058
1.39967
1.39949
1.39874
1.39694
1.39377
1.38795
1.37672
1.36713
1.36394
1.36163
1.35963
1.35848
1.35838
1.357
1.35459
1.3519
1.34878
1.34374
1.33538
1.32897
1.32628
1.32579
1.3257
1.32549
1.32423
1.32163
1.31754
1.31213
1.30433
1.29318
1.28781
1.28778
1.28995
1.30628
1.35408
1.46554
1.59254
1.6556
1.7075
1.71482
1.71245
1.72619
1.73952
1.74194
1.74671
1.75272
1.75991
1.7618
1.76204
1.76008
1.75535
1.75023
1.74463
1.73998
1.79517
1.78999
1.78572
1.78159
1.77895
1.77644
1.77282
1.76638
1.75347
1.7339
1.72161
1.72063
1.71939
1.71572
1.71293
1.71147
1.70999
1.70822
1.70511
1.69704
1.67753
1.65292
1.64369
1.64153
1.63902
1.63717
1.63689
1.63748
1.63697
1.63529
1.63308
1.62936
1.61764
1.59378
1.57434
1.57172
1.57151
1.57184
1.57171
1.56902
1.56759
1.56733
1.56635
1.56371
1.55632
1.53685
1.51639
1.51079
1.50989
1.50805
1.50545
1.50433
1.50382
1.50229
1.5002
1.49762
1.49334
1.48222
1.46513
1.45666
1.45459
1.45287
1.45136
1.44987
1.44726
1.44459
1.44202
1.43893
1.43386
1.42216
1.40856
1.4054
1.40509
1.40494
1.4033
1.40245
1.40221
1.40126
1.39917
1.39489
1.38548
1.3731
1.36868
1.36656
1.36439
1.36264
1.36213
1.36184
1.35996
1.35707
1.35354
1.34873
1.34043
1.33242
1.32986
1.32875
1.32848
1.32856
1.32823
1.32674
1.32413
1.31985
1.31293
1.30401
1.29429
1.292
1.29509
1.31782
1.40109
1.49201
1.60482
1.64217
1.65305
1.65573
1.65334
1.64839
1.6526
1.66556
1.6791
1.69146
1.70487
1.71868
1.72727
1.7311
1.73047
1.72859
1.72646
1.72457
1.72521
1.79203
1.78705
1.78228
1.77889
1.77653
1.77302
1.7671
1.75624
1.74038
1.72532
1.72271
1.72281
1.72133
1.71769
1.71396
1.71108
1.70876
1.706
1.70038
1.68625
1.66467
1.64913
1.64636
1.64451
1.64213
1.6403
1.63964
1.63936
1.63817
1.63595
1.63268
1.6235
1.60366
1.58247
1.57461
1.57423
1.57413
1.57469
1.57428
1.57197
1.57091
1.5703
1.56872
1.56422
1.54846
1.52467
1.51394
1.51221
1.51214
1.51066
1.5085
1.50783
1.50735
1.50568
1.50338
1.49974
1.49021
1.47288
1.46131
1.45888
1.45759
1.45616
1.45469
1.45338
1.45078
1.44775
1.44455
1.44013
1.43066
1.41549
1.40805
1.40697
1.40683
1.40737
1.40618
1.40546
1.40481
1.40351
1.40067
1.39366
1.38051
1.37274
1.37138
1.36943
1.36726
1.36582
1.36557
1.36485
1.36258
1.35933
1.35468
1.3465
1.336
1.33212
1.33118
1.33067
1.33072
1.33096
1.33042
1.32867
1.3256
1.32051
1.31149
1.30235
1.29878
1.30416
1.33551
1.43802
1.55654
1.61994
1.65667
1.65458
1.64157
1.6331
1.62881
1.62325
1.61829
1.61668
1.61885
1.62277
1.62961
1.64056
1.65343
1.66547
1.67775
1.6879
1.69442
1.69743
1.70307
1.78878
1.78314
1.7777
1.77503
1.77306
1.76923
1.76051
1.74485
1.72905
1.7226
1.72254
1.72279
1.72119
1.71821
1.71473
1.71101
1.70726
1.70197
1.69001
1.67118
1.65594
1.65097
1.6496
1.64787
1.64557
1.64368
1.64226
1.64069
1.63862
1.63536
1.62714
1.60948
1.59038
1.58104
1.57799
1.57736
1.57729
1.57784
1.5768
1.57493
1.57367
1.57219
1.56929
1.55831
1.53491
1.5183
1.51528
1.51438
1.51447
1.51334
1.51191
1.51158
1.51068
1.50882
1.50588
1.49815
1.48089
1.46572
1.46226
1.4612
1.46084
1.45948
1.45784
1.45643
1.45392
1.45079
1.4467
1.43888
1.4237
1.41205
1.40992
1.40914
1.40932
1.40939
1.40889
1.40817
1.40702
1.40508
1.40039
1.38854
1.37716
1.3748
1.37418
1.37245
1.37031
1.36911
1.36865
1.36732
1.36483
1.36087
1.35355
1.34186
1.33524
1.33386
1.33274
1.33253
1.33274
1.33281
1.33192
1.32968
1.32567
1.31887
1.30844
1.30693
1.31855
1.3724
1.46535
1.59454
1.64739
1.66293
1.66034
1.64375
1.62701
1.62101
1.62103
1.61989
1.61262
1.60672
1.59942
1.59188
1.58593
1.58208
1.58421
1.59047
1.60209
1.61812
1.63651
1.65283
1.6673
1.78552
1.77853
1.7728
1.7704
1.76814
1.76325
1.75213
1.73529
1.72411
1.72212
1.72184
1.72144
1.7198
1.71741
1.71443
1.71067
1.70541
1.69532
1.6763
1.65912
1.65428
1.65257
1.6518
1.65062
1.64866
1.64657
1.6444
1.64197
1.63849
1.63065
1.61311
1.59357
1.58591
1.58383
1.58144
1.58093
1.58118
1.58093
1.57946
1.57755
1.57559
1.57284
1.56482
1.54476
1.52418
1.51863
1.51734
1.51703
1.51727
1.51654
1.51561
1.51495
1.51345
1.51116
1.50555
1.48981
1.47111
1.46514
1.46402
1.46395
1.46428
1.46262
1.46096
1.45932
1.45674
1.45327
1.44721
1.43303
1.41732
1.41287
1.4119
1.41221
1.41262
1.41159
1.41122
1.41043
1.40874
1.40551
1.39629
1.3825
1.37781
1.37702
1.37675
1.37543
1.37342
1.37224
1.37135
1.36958
1.36658
1.36062
1.34884
1.33894
1.33716
1.33577
1.33436
1.33424
1.33451
1.33435
1.33311
1.33025
1.32528
1.31526
1.31429
1.33532
1.41879
1.52369
1.60671
1.66559
1.66559
1.66024
1.64948
1.63519
1.62664
1.62088
1.61674
1.61132
1.60509
1.59892
1.5923
1.58447
1.57739
1.57072
1.56448
1.55958
1.55651
1.55801
1.56555
1.58275
1.60036
1.7812
1.77449
1.76853
1.76601
1.76261
1.75494
1.74226
1.72903
1.72261
1.72205
1.721
1.71878
1.71684
1.71521
1.71289
1.709
1.70164
1.6855
1.66442
1.65611
1.6538
1.6527
1.65268
1.65217
1.65054
1.6484
1.6461
1.6431
1.63633
1.61889
1.5967
1.58711
1.58627
1.58576
1.58422
1.58437
1.58463
1.58366
1.5819
1.57959
1.57648
1.56963
1.55257
1.531
1.52201
1.52051
1.51989
1.52017
1.52079
1.52006
1.51897
1.51742
1.5154
1.5114
1.49856
1.47814
1.46801
1.46661
1.46616
1.46762
1.46751
1.46566
1.46413
1.46206
1.45921
1.45462
1.44324
1.4252
1.41612
1.41459
1.41413
1.41589
1.41571
1.41437
1.41369
1.41245
1.40987
1.40335
1.38914
1.38059
1.37955
1.37899
1.37915
1.37817
1.37638
1.37516
1.37377
1.37145
1.36686
1.35653
1.34401
1.3404
1.33961
1.33775
1.33602
1.33576
1.33593
1.33541
1.33362
1.33071
1.32344
1.32575
1.35665
1.45778
1.58161
1.63218