/*--------------------------------*- C++ -*----------------------------------*\
  =========                 |
  \\      /  F ield         | OpenFOAM: The Open Source CFD Toolbox
   \\    /   O peration     | Website:  https://openfoam.org
    \\  /    A nd           | Version:  7
     \\/     M anipulation  |
\*---------------------------------------------------------------------------*/
FoamFile
{
    version     2.0;
    format      ascii;
    class       volVectorField;
    location    "3.5";
    object      U;
}
// * * * * * * * * * * * * * * * * * * * * * * * * * * * * * * * * * * * * * //

dimensions      [0 1 -1 0 0 0 0];

internalField   nonuniform List<vector> 
16512
(
(2.29815 -0.863331 0)
(2.30122 -0.864155 0)
(2.30427 -0.86478 0)
(2.30718 -0.865003 0)
(2.30988 -0.864704 0)
(2.31211 -0.864364 0)
(2.31414 -0.86457 0)
(2.31705 -0.864916 0)
(2.32018 -0.86491 0)
(2.32359 -0.864006 0)
(2.32722 -0.862564 0)
(2.33067 -0.861245 0)
(2.33411 -0.860052 0)
(2.33781 -0.859862 0)
(2.34096 -0.860256 0)
(2.34439 -0.861268 0)
(2.34766 -0.863036 0)
(2.35041 -0.865081 0)
(2.35278 -0.866886 0)
(2.35479 -0.867704 0)
(2.35732 -0.867437 0)
(2.36116 -0.866386 0)
(2.36516 -0.864308 0)
(2.36863 -0.861879 0)
(2.37149 -0.860201 0)
(2.37369 -0.859101 0)
(2.37568 -0.858675 0)
(2.37802 -0.858909 0)
(2.38043 -0.859502 0)
(2.38283 -0.860079 0)
(2.38576 -0.860252 0)
(2.38905 -0.859897 0)
(2.39246 -0.858959 0)
(2.3958 -0.857365 0)
(2.39843 -0.855466 0)
(2.40074 -0.85357 0)
(2.40358 -0.853197 0)
(2.40611 -0.854249 0)
(2.40839 -0.855658 0)
(2.41112 -0.857655 0)
(2.41554 -0.859145 0)
(2.42078 -0.859838 0)
(2.42402 -0.857182 0)
(2.42466 -0.848841 0)
(2.42042 -0.825929 0)
(2.4052 -0.776434 0)
(2.38498 -0.694713 0)
(2.35689 -0.585345 0)
(2.30993 -0.42268 0)
(2.28673 -0.319704 0)
(2.28559 -0.307383 0)
(2.27916 -0.266949 0)
(2.25468 -0.225656 0)
(2.24118 -0.196353 0)
(2.23486 -0.171518 0)
(2.23125 -0.160001 0)
(2.2283 -0.161264 0)
(2.22987 -0.166735 0)
(2.23726 -0.175776 0)
(2.2456 -0.181934 0)
(2.2518 -0.1831 0)
(2.25501 -0.182126 0)
(2.25631 -0.180828 0)
(2.25611 -0.177244 0)
(2.25408 -0.170462 0)
(2.25119 -0.161818 0)
(2.24953 -0.155338 0)
(2.25033 -0.152994 0)
(2.25201 -0.152743 0)
(2.25587 -0.154616 0)
(2.26269 -0.157712 0)
(2.26676 -0.157654 0)
(2.26813 -0.155643 0)
(2.26797 -0.151444 0)
(2.26398 -0.144121 0)
(2.26005 -0.136762 0)
(2.26009 -0.133842 0)
(2.26101 -0.133776 0)
(2.2629 -0.135207 0)
(2.26727 -0.138798 0)
(2.27276 -0.142676 0)
(2.27593 -0.143181 0)
(2.27741 -0.14073 0)
(2.27835 -0.135485 0)
(2.2789 -0.128532 0)
(2.28089 -0.12197 0)
(2.28261 -0.117352 0)
(2.2838 -0.114749 0)
(2.28479 -0.113961 0)
(2.28539 -0.114326 0)
(2.28614 -0.115411 0)
(2.28733 -0.116507 0)
(2.28853 -0.116724 0)
(2.28988 -0.11482 0)
(2.29111 -0.110589 0)
(2.2922 -0.105519 0)
(2.29349 -0.100498 0)
(2.2951 -0.096979 0)
(2.29666 -0.0951621 0)
(2.29757 -0.0946302 0)
(2.29817 -0.0946996 0)
(2.29946 -0.0954232 0)
(2.30178 -0.0966498 0)
(2.30525 -0.0969107 0)
(2.30808 -0.0945334 0)
(2.30912 -0.0912684 0)
(2.30989 -0.0872777 0)
(2.30976 -0.0822176 0)
(2.30791 -0.0764914 0)
(2.30668 -0.0727504 0)
(2.30637 -0.0716847 0)
(2.30661 -0.072233 0)
(2.3068 -0.0735879 0)
(2.30652 -0.0752054 0)
(2.30611 -0.0763268 0)
(2.30588 -0.0767032 0)
(2.30666 -0.0767102 0)
(2.3107 -0.076158 0)
(2.31895 -0.0744843 0)
(2.32762 -0.0710242 0)
(2.33048 -0.0679857 0)
(2.33275 -0.0652951 0)
(2.33498 -0.0622805 0)
(2.33619 -0.058821 0)
(2.3347 -0.0541659 0)
(2.32906 -0.0479688 0)
(2.32289 -0.0444451 0)
(2.31951 -0.0453084 0)
(2.31824 -0.047818 0)
(2.31832 -0.0497889 0)
(2.31879 -0.0508186 0)
(2.32005 -0.0519324 0)
(2.32328 -0.0516678 0)
(2.32871 -0.0480254 0)
(2.33423 -0.040634 0)
(2.33916 -0.0324991 0)
(2.34168 -0.0277747 0)
(2.34263 -0.0262933 0)
(2.34209 -0.0249756 0)
(2.34085 -0.0245655 0)
(2.34066 -0.0255037 0)
(2.34043 -0.0269766 0)
(2.33904 -0.0285821 0)
(2.33593 -0.029371 0)
(2.33235 -0.0280007 0)
(2.33076 -0.0251008 0)
(2.33129 -0.0222534 0)
(2.3325 -0.0202659 0)
(2.33539 -0.0174754 0)
(2.34233 -0.0124912 0)
(2.35234 -0.00860014 0)
(2.35752 -0.00791037 0)
(2.35899 -0.00785168 0)
(2.36099 -0.00732543 0)
(2.36222 -0.00622968 0)
(2.36124 -0.00465552 0)
(2.35551 -0.00272847 0)
(2.34873 -0.00186706 0)
(2.34697 -0.00226359 0)
(2.34753 -0.00245093 0)
(2.3484 -0.00216189 0)
(2.34926 -0.00105992 0)
(2.3512 0.00128833 0)
(2.35437 0.00557219 0)
(2.35754 0.00921697 0)
(2.35876 0.0100242 0)
(2.3602 0.0100785 0)
(2.36135 0.0100739 0)
(2.36198 0.0100089 0)
(2.36184 0.00984816 0)
(2.36109 0.00958467 0)
(2.36073 0.00969378 0)
(2.36155 0.0103284 0)
(2.36301 0.011155 0)
(2.36481 0.0128372 0)
(2.36759 0.0163479 0)
(2.37003 0.021091 0)
(2.37153 0.0257835 0)
(2.37172 0.0303797 0)
(2.37089 0.0361026 0)
(2.36822 0.0416143 0)
(2.36585 0.0436781 0)
(2.36653 0.0431969 0)
(2.36789 0.0420931 0)
(2.36951 0.0411508 0)
(2.37159 0.0403163 0)
(2.37563 0.0384554 0)
(2.37991 0.0354184 0)
(2.3826 0.0329033 0)
(2.38349 0.0315956 0)
(2.38402 0.0310821 0)
(2.38369 0.0307769 0)
(2.38009 0.032213 0)
(2.37458 0.0379735 0)
(2.37009 0.0465273 0)
(2.36913 0.0530899 0)
(2.37047 0.0567766 0)
(2.37426 0.0610526 0)
(2.38078 0.0638297 0)
(2.38599 0.0634169 0)
(2.38811 0.0615079 0)
(2.39014 0.059153 0)
(2.39172 0.0565881 0)
(2.39228 0.0537447 0)
(2.39119 0.0511913 0)
(2.38905 0.0510037 0)
(2.38745 0.0544166 0)
(2.38679 0.0599503 0)
(2.38732 0.0652661 0)
(2.38911 0.0695851 0)
(2.39253 0.0741977 0)
(2.39519 0.0758742 0)
(2.39638 0.0757293 0)
(2.39762 0.0750257 0)
(2.39832 0.0735577 0)
(2.3986 0.0716041 0)
(2.39831 0.0699547 0)
(2.39779 0.0694591 0)
(2.39707 0.0708966 0)
(2.39655 0.0737378 0)
(2.39668 0.0769785 0)
(2.39737 0.0798239 0)
(2.39893 0.0832663 0)
(2.40042 0.0865741 0)
(2.40095 0.0877048 0)
(2.40163 0.0881374 0)
(2.40131 0.0872901 0)
(2.40093 0.0847385 0)
(2.4011 0.0824821 0)
(2.40233 0.0813586 0)
(2.40403 0.0808226 0)
(2.40587 0.0808043 0)
(2.40896 0.0819194 0)
(2.41262 0.0859184 0)
(2.41468 0.0922554 0)
(2.41488 0.0988927 0)
(2.41388 0.106032 0)
(2.41169 0.111472 0)
(2.4086 0.113003 0)
(2.40771 0.112135 0)
(2.40829 0.110595 0)
(2.40971 0.109302 0)
(2.41146 0.108485 0)
(2.41351 0.107612 0)
(2.41762 0.106241 0)
(2.42277 0.1047 0)
(2.42508 0.103986 0)
(2.42622 0.103758 0)
(2.42721 0.103425 0)
(2.42755 0.103501 0)
(2.42603 0.105176 0)
(2.42128 0.109551 0)
(2.416 0.115848 0)
(2.41482 0.119961 0)
(2.41608 0.121116 0)
(2.41726 0.122006 0)
(2.4185 0.121579 0)
(2.42041 0.119611 0)
(2.30096 -0.856668 0)
(2.30399 -0.857086 0)
(2.30713 -0.857577 0)
(2.31009 -0.858205 0)
(2.31298 -0.858656 0)
(2.31539 -0.858557 0)
(2.31701 -0.858205 0)
(2.32005 -0.857991 0)
(2.32339 -0.858209 0)
(2.32714 -0.858293 0)
(2.33131 -0.857768 0)
(2.33522 -0.856629 0)
(2.33881 -0.855331 0)
(2.3418 -0.854118 0)
(2.34392 -0.85328 0)
(2.34577 -0.852974 0)
(2.3484 -0.854248 0)
(2.35049 -0.8559 0)
(2.35322 -0.858063 0)
(2.35645 -0.859658 0)
(2.35992 -0.860436 0)
(2.36428 -0.860011 0)
(2.36858 -0.859037 0)
(2.37256 -0.858469 0)
(2.3763 -0.857782 0)
(2.37894 -0.856311 0)
(2.37954 -0.854183 0)
(2.37918 -0.852613 0)
(2.38112 -0.852087 0)
(2.38458 -0.852014 0)
(2.38812 -0.851711 0)
(2.39177 -0.850974 0)
(2.39539 -0.850109 0)
(2.39893 -0.849163 0)
(2.40203 -0.84798 0)
(2.40403 -0.846551 0)
(2.4056 -0.845661 0)
(2.40815 -0.845998 0)
(2.41138 -0.846813 0)
(2.41457 -0.847564 0)
(2.41746 -0.848876 0)
(2.42044 -0.850305 0)
(2.42437 -0.853154 0)
(2.42984 -0.855583 0)
(2.43498 -0.855066 0)
(2.43734 -0.85201 0)
(2.43885 -0.845724 0)
(2.43437 -0.824486 0)
(2.42111 -0.779245 0)
(2.40021 -0.699748 0)
(2.36786 -0.583562 0)
(2.32146 -0.422633 0)
(2.30097 -0.348316 0)
(2.30754 -0.323473 0)
(2.28303 -0.261969 0)
(2.2553 -0.208453 0)
(2.24341 -0.175026 0)
(2.24427 -0.156144 0)
(2.24163 -0.155507 0)
(2.24061 -0.161293 0)
(2.24853 -0.169927 0)
(2.25769 -0.177005 0)
(2.26248 -0.176993 0)
(2.26419 -0.175493 0)
(2.26539 -0.174359 0)
(2.26428 -0.171497 0)
(2.26027 -0.164681 0)
(2.25655 -0.156112 0)
(2.25657 -0.151151 0)
(2.25819 -0.149907 0)
(2.26184 -0.150489 0)
(2.26805 -0.15385 0)
(2.27275 -0.155788 0)
(2.27396 -0.155024 0)
(2.27407 -0.152176 0)
(2.27043 -0.146478 0)
(2.2659 -0.138356 0)
(2.26535 -0.133535 0)
(2.26683 -0.132266 0)
(2.26813 -0.132108 0)
(2.27119 -0.133607 0)
(2.27649 -0.137132 0)
(2.28218 -0.139273 0)
(2.28528 -0.137493 0)
(2.28721 -0.134266 0)
(2.28858 -0.130219 0)
(2.28898 -0.124998 0)
(2.28859 -0.119229 0)
(2.28782 -0.114647 0)
(2.2878 -0.112492 0)
(2.28849 -0.111654 0)
(2.28922 -0.111445 0)
(2.29042 -0.111302 0)
(2.29363 -0.111165 0)
(2.29733 -0.109931 0)
(2.29966 -0.107392 0)
(2.30133 -0.104529 0)
(2.30208 -0.101529 0)
(2.30192 -0.0982543 0)
(2.30213 -0.095363 0)
(2.30271 -0.0934862 0)
(2.30323 -0.0924038 0)
(2.30418 -0.0914233 0)
(2.30644 -0.0902504 0)
(2.311 -0.0898421 0)
(2.31441 -0.0890357 0)
(2.31566 -0.0876344 0)
(2.31637 -0.084653 0)
(2.31558 -0.0810056 0)
(2.31237 -0.0768709 0)
(2.30981 -0.0744146 0)
(2.30905 -0.0737959 0)
(2.3089 -0.0733818 0)
(2.30885 -0.0726529 0)
(2.30879 -0.0719824 0)
(2.30883 -0.0707409 0)
(2.31016 -0.0687508 0)
(2.31433 -0.066179 0)
(2.32148 -0.0644381 0)
(2.32909 -0.0648182 0)
(2.33353 -0.0656846 0)
(2.33538 -0.0654793 0)
(2.33794 -0.0645287 0)
(2.33969 -0.063149 0)
(2.33951 -0.0611141 0)
(2.33599 -0.0581947 0)
(2.32822 -0.0535258 0)
(2.32144 -0.0495917 0)
(2.31951 -0.0477045 0)
(2.31979 -0.046469 0)
(2.32052 -0.0454063 0)
(2.32248 -0.0435638 0)
(2.32803 -0.0403902 0)
(2.33688 -0.035519 0)
(2.3442 -0.0315413 0)
(2.34676 -0.0295202 0)
(2.3478 -0.0286162 0)
(2.3483 -0.0275897 0)
(2.34781 -0.0264837 0)
(2.34579 -0.0249251 0)
(2.34313 -0.0244581 0)
(2.34083 -0.0262427 0)
(2.33884 -0.0287124 0)
(2.33717 -0.0299739 0)
(2.33645 -0.029252 0)
(2.33719 -0.0272123 0)
(2.33852 -0.0242882 0)
(2.34095 -0.0192812 0)
(2.34506 -0.0111541 0)
(2.35072 -0.0042286 0)
(2.3553 -0.00292799 0)
(2.35836 -0.00494248 0)
(2.36117 -0.00767044 0)
(2.36265 -0.00895392 0)
(2.3644 -0.00984639 0)
(2.36418 -0.0105442 0)
(2.35984 -0.00952466 0)
(2.35308 -0.00599332 0)
(2.35003 -0.00243069 0)
(2.35071 -0.000534808 0)
(2.35204 0.000548145 0)
(2.3549 0.00217318 0)
(2.35901 0.00526553 0)
(2.36184 0.00804971 0)
(2.36284 0.00905856 0)
(2.36376 0.00987228 0)
(2.36443 0.0104445 0)
(2.36502 0.0104872 0)
(2.36518 0.0103508 0)
(2.36477 0.0105937 0)
(2.36434 0.0116326 0)
(2.36481 0.0130294 0)
(2.36588 0.0146414 0)
(2.36733 0.0169027 0)
(2.36987 0.0204968 0)
(2.37322 0.025142 0)
(2.37594 0.0290815 0)
(2.37716 0.0314371 0)
(2.37795 0.0329173 0)
(2.37784 0.03454 0)
(2.37481 0.0370074 0)
(2.37048 0.0407539 0)
(2.3686 0.0430256 0)
(2.36926 0.0435645 0)
(2.37056 0.0434771 0)
(2.37205 0.0431781 0)
(2.37429 0.0423923 0)
(2.37749 0.0407248 0)
(2.38031 0.0390085 0)
(2.3828 0.0378595 0)
(2.38448 0.0364988 0)
(2.38526 0.0358549 0)
(2.38559 0.0359619 0)
(2.38402 0.0378303 0)
(2.38155 0.0436597 0)
(2.37972 0.0525124 0)
(2.38008 0.0601777 0)
(2.38213 0.0638636 0)
(2.38554 0.0654242 0)
(2.38723 0.0654437 0)
(2.38907 0.0644099 0)
(2.39083 0.0616639 0)
(2.39201 0.0580187 0)
(2.3923 0.0545913 0)
(2.3927 0.0524605 0)
(2.39419 0.0521528 0)
(2.39543 0.0540035 0)
(2.39649 0.0600417 0)
(2.39712 0.0682494 0)
(2.39736 0.0752278 0)
(2.39767 0.0784394 0)
(2.39857 0.0786061 0)
(2.39965 0.0776433 0)
(2.40042 0.0760272 0)
(2.40071 0.0739598 0)
(2.40092 0.072173 0)
(2.40171 0.0713408 0)
(2.40286 0.071292 0)
(2.40376 0.0722785 0)
(2.40415 0.0754422 0)
(2.40448 0.0801056 0)
(2.40465 0.0848347 0)
(2.40447 0.0881437 0)
(2.4045 0.0896184 0)
(2.40402 0.0899305 0)
(2.40294 0.088748 0)
(2.40124 0.0863184 0)
(2.40057 0.0844529 0)
(2.40162 0.0839158 0)
(2.40305 0.0838051 0)
(2.40492 0.0839017 0)
(2.40865 0.0846051 0)
(2.41475 0.0884373 0)
(2.42048 0.0950429 0)
(2.42331 0.100337 0)
(2.42403 0.10344 0)
(2.42341 0.106893 0)
(2.41802 0.109659 0)
(2.41154 0.110806 0)
(2.40963 0.110573 0)
(2.41022 0.11041 0)
(2.41137 0.110353 0)
(2.41262 0.110304 0)
(2.41461 0.110122 0)
(2.41897 0.110061 0)
(2.42429 0.109847 0)
(2.42773 0.10915 0)
(2.42907 0.108431 0)
(2.42976 0.108234 0)
(2.43062 0.10836 0)
(2.43054 0.108785 0)
(2.42823 0.109953 0)
(2.42507 0.112964 0)
(2.42289 0.117885 0)
(2.42163 0.121843 0)
(2.42135 0.123339 0)
(2.42233 0.123347 0)
(2.42354 0.121627 0)
(2.30454 -0.850761 0)
(2.3072 -0.850764 0)
(2.31016 -0.850856 0)
(2.31304 -0.851178 0)
(2.31582 -0.851718 0)
(2.31832 -0.852059 0)
(2.32043 -0.851876 0)
(2.32297 -0.851511 0)
(2.3265 -0.851677 0)
(2.3302 -0.851857 0)
(2.3343 -0.851386 0)
(2.3384 -0.850832 0)
(2.34223 -0.8507 0)
(2.34585 -0.850613 0)
(2.34844 -0.849493 0)
(2.34878 -0.847794 0)
(2.34828 -0.847071 0)
(2.35114 -0.848162 0)
(2.35454 -0.849151 0)
(2.35775 -0.8498 0)
(2.36138 -0.850357 0)
(2.36647 -0.851218 0)
(2.37103 -0.851742 0)
(2.37476 -0.852273 0)
(2.3785 -0.852751 0)
(2.38212 -0.853041 0)
(2.38443 -0.85275 0)
(2.38445 -0.851295 0)
(2.38531 -0.849157 0)
(2.38804 -0.847311 0)
(2.39124 -0.845426 0)
(2.39453 -0.843447 0)
(2.39793 -0.841955 0)
(2.40145 -0.841298 0)
(2.40484 -0.841085 0)
(2.40771 -0.840556 0)
(2.40941 -0.839272 0)
(2.4104 -0.838047 0)
(2.4123 -0.837854 0)
(2.41522 -0.838364 0)
(2.41862 -0.839201 0)
(2.42217 -0.84015 0)
(2.42649 -0.84096 0)
(2.43166 -0.842886 0)
(2.43583 -0.845602 0)
(2.44009 -0.849062 0)
(2.44422 -0.850089 0)
(2.44758 -0.848971 0)
(2.45052 -0.847935 0)
(2.45007 -0.841214 0)
(2.44554 -0.821196 0)
(2.43335 -0.780996 0)
(2.41054 -0.703043 0)
(2.37681 -0.580767 0)
(2.33135 -0.433861 0)
(2.32022 -0.378599 0)
(2.32694 -0.322197 0)
(2.28476 -0.245927 0)
(2.25785 -0.180651 0)
(2.25504 -0.156713 0)
(2.25568 -0.149848 0)
(2.25554 -0.15875 0)
(2.26103 -0.166363 0)
(2.268 -0.172196 0)
(2.27105 -0.172794 0)
(2.27189 -0.170937 0)
(2.27237 -0.169169 0)
(2.27004 -0.16572 0)
(2.26538 -0.157273 0)
(2.26388 -0.149735 0)
(2.26519 -0.147704 0)
(2.26811 -0.147746 0)
(2.27362 -0.150752 0)
(2.27827 -0.154217 0)
(2.27941 -0.154776 0)
(2.27944 -0.153208 0)
(2.2765 -0.148475 0)
(2.27235 -0.140027 0)
(2.27091 -0.132942 0)
(2.27204 -0.129719 0)
(2.274 -0.127861 0)
(2.27686 -0.126941 0)
(2.28089 -0.128455 0)
(2.28697 -0.132179 0)
(2.2917 -0.133982 0)
(2.29357 -0.133291 0)
(2.29526 -0.131162 0)
(2.29599 -0.127528 0)
(2.2946 -0.121709 0)
(2.29255 -0.115013 0)
(2.29186 -0.110432 0)
(2.29287 -0.108044 0)
(2.29451 -0.106463 0)
(2.29632 -0.105171 0)
(2.29934 -0.10439 0)
(2.30354 -0.104747 0)
(2.30662 -0.10476 0)
(2.30801 -0.103752 0)
(2.30906 -0.101137 0)
(2.3086 -0.0974536 0)
(2.30792 -0.0931206 0)
(2.30797 -0.0896402 0)
(2.3089 -0.0871633 0)
(2.3107 -0.0849791 0)
(2.31288 -0.0841465 0)
(2.31556 -0.0845691 0)
(2.31753 -0.0849105 0)
(2.31883 -0.0848107 0)
(2.31967 -0.0837819 0)
(2.31786 -0.0813388 0)
(2.31377 -0.0776676 0)
(2.31159 -0.0743177 0)
(2.31186 -0.0719048 0)
(2.31258 -0.0700398 0)
(2.3135 -0.0684557 0)
(2.31528 -0.0663817 0)
(2.31857 -0.0636477 0)
(2.32312 -0.060834 0)
(2.32792 -0.0589841 0)
(2.33128 -0.0598718 0)
(2.33457 -0.0623281 0)
(2.33715 -0.0643 0)
(2.33871 -0.0648293 0)
(2.34061 -0.0654031 0)
(2.34126 -0.0655598 0)
(2.33932 -0.0642476 0)
(2.33473 -0.0601007 0)
(2.32884 -0.0531269 0)
(2.32532 -0.0460507 0)
(2.32509 -0.0415033 0)
(2.3263 -0.0384425 0)
(2.32951 -0.0336325 0)
(2.3357 -0.0273098 0)
(2.34273 -0.0240186 0)
(2.34734 -0.0242746 0)
(2.35011 -0.0264506 0)
(2.35158 -0.0279821 0)
(2.35292 -0.0287124 0)
(2.35328 -0.0292082 0)
(2.35163 -0.0292975 0)
(2.34785 -0.029211 0)
(2.34401 -0.0288703 0)
(2.34222 -0.028559 0)
(2.34231 -0.0279775 0)
(2.34303 -0.0271385 0)
(2.34426 -0.0251677 0)
(2.34685 -0.0212656 0)
(2.35134 -0.0145736 0)
(2.35575 -0.00769795 0)
(2.35761 -0.00423794 0)
(2.35905 -0.00243671 0)
(2.36066 -0.00205993 0)
(2.36205 -0.00339971 0)
(2.36345 -0.00693052 0)
(2.36416 -0.0102461 0)
(2.36431 -0.012887 0)
(2.36302 -0.0135586 0)
(2.35995 -0.0107983 0)
(2.35667 -0.0048479 0)
(2.35623 0.000504824 0)
(2.35754 0.00317463 0)
(2.36064 0.00621155 0)
(2.36493 0.00927952 0)
(2.36678 0.00977535 0)
(2.3676 0.00976849 0)
(2.36829 0.0102969 0)
(2.36839 0.0108583 0)
(2.36846 0.0112184 0)
(2.36881 0.0115683 0)
(2.36954 0.0122601 0)
(2.37054 0.0137714 0)
(2.37144 0.016755 0)
(2.37269 0.0207744 0)
(2.37446 0.0255523 0)
(2.37659 0.0301032 0)
(2.37803 0.0325026 0)
(2.3792 0.0331923 0)
(2.38071 0.0333196 0)
(2.38182 0.0331197 0)
(2.38191 0.0330652 0)
(2.38051 0.0341151 0)
(2.37788 0.037034 0)
(2.37484 0.0418198 0)
(2.37332 0.0457544 0)
(2.37365 0.0476044 0)
(2.3746 0.0481615 0)
(2.37601 0.048443 0)
(2.3782 0.0481852 0)
(2.38044 0.0468666 0)
(2.3826 0.0448636 0)
(2.38483 0.0429074 0)
(2.38754 0.0410229 0)
(2.39036 0.040418 0)
(2.39146 0.0413677 0)
(2.3914 0.0431533 0)
(2.3911 0.0479894 0)
(2.39049 0.0549787 0)
(2.38966 0.0617749 0)
(2.38969 0.0652057 0)
(2.39078 0.065549 0)
(2.39168 0.0644213 0)
(2.39223 0.0622483 0)
(2.39303 0.0594729 0)
(2.39447 0.0575652 0)
(2.39574 0.0565492 0)
(2.39808 0.0567769 0)
(2.40149 0.0597204 0)
(2.40438 0.064366 0)
(2.40539 0.0679773 0)
(2.40591 0.072004 0)
(2.40448 0.0763066 0)
(2.40229 0.0780985 0)
(2.40146 0.0773324 0)
(2.40164 0.0759202 0)
(2.40229 0.0748857 0)
(2.4035 0.0745018 0)
(2.4048 0.0745695 0)
(2.40638 0.0754541 0)
(2.40931 0.0776787 0)
(2.41149 0.0814161 0)
(2.41255 0.0848492 0)
(2.41243 0.0872228 0)
(2.41134 0.0894251 0)
(2.40878 0.0904395 0)
(2.40586 0.0896335 0)
(2.40307 0.0878442 0)
(2.40145 0.0865998 0)
(2.40171 0.0864815 0)
(2.40312 0.0868558 0)
(2.40467 0.0873813 0)
(2.40766 0.0883556 0)
(2.41418 0.0922522 0)
(2.42233 0.0983733 0)
(2.42657 0.101773 0)
(2.42776 0.102389 0)
(2.42892 0.103117 0)
(2.42749 0.104025 0)
(2.42156 0.105401 0)
(2.41494 0.107493 0)
(2.41277 0.109489 0)
(2.4132 0.110945 0)
(2.41433 0.112135 0)
(2.41572 0.113149 0)
(2.4181 0.114191 0)
(2.42269 0.115695 0)
(2.42714 0.11673 0)
(2.42872 0.116173 0)
(2.43007 0.115294 0)
(2.43132 0.11409 0)
(2.43208 0.113016 0)
(2.43205 0.111225 0)
(2.43167 0.110233 0)
(2.43142 0.111367 0)
(2.43082 0.114107 0)
(2.42927 0.118315 0)
(2.42699 0.122784 0)
(2.42666 0.124817 0)
(2.42732 0.12393 0)
(2.30861 -0.845264 0)
(2.31125 -0.844645 0)
(2.31377 -0.844117 0)
(2.31615 -0.843899 0)
(2.31854 -0.844403 0)
(2.32086 -0.845165 0)
(2.32354 -0.845361 0)
(2.32637 -0.84492 0)
(2.32947 -0.844265 0)
(2.33308 -0.844349 0)
(2.33688 -0.844621 0)
(2.3408 -0.844878 0)
(2.34465 -0.845054 0)
(2.34835 -0.845327 0)
(2.35178 -0.845719 0)
(2.3534 -0.845749 0)
(2.35284 -0.844269 0)
(2.35344 -0.842144 0)
(2.3561 -0.841136 0)
(2.3595 -0.840784 0)
(2.36316 -0.840738 0)
(2.3676 -0.841122 0)
(2.37336 -0.842286 0)
(2.37712 -0.843844 0)
(2.38019 -0.845649 0)
(2.38342 -0.84731 0)
(2.38648 -0.848585 0)
(2.38829 -0.848586 0)
(2.38999 -0.846995 0)
(2.39304 -0.844798 0)
(2.39628 -0.842421 0)
(2.39924 -0.839698 0)
(2.40177 -0.836786 0)
(2.40423 -0.834357 0)
(2.40711 -0.833022 0)
(2.41009 -0.83257 0)
(2.41256 -0.832222 0)
(2.41405 -0.831404 0)
(2.41579 -0.830739 0)
(2.41841 -0.830675 0)
(2.42114 -0.830806 0)
(2.42407 -0.830908 0)
(2.42732 -0.83108 0)
(2.43123 -0.83167 0)
(2.43756 -0.833561 0)
(2.44302 -0.836352 0)
(2.44535 -0.838659 0)
(2.44871 -0.841004 0)
(2.45297 -0.844103 0)
(2.45616 -0.845158 0)
(2.45888 -0.843432 0)
(2.46146 -0.842378 0)
(2.45865 -0.833582 0)
(2.45477 -0.813586 0)
(2.44167 -0.775997 0)
(2.41939 -0.696969 0)
(2.38673 -0.575663 0)
(2.34555 -0.450206 0)
(2.34752 -0.399147 0)
(2.33727 -0.318247 0)
(2.28602 -0.221422 0)
(2.26934 -0.163803 0)
(2.26787 -0.148945 0)
(2.26862 -0.155877 0)
(2.27299 -0.166373 0)
(2.2783 -0.170963 0)
(2.2786 -0.170413 0)
(2.27913 -0.167316 0)
(2.27985 -0.163174 0)
(2.2757 -0.157585 0)
(2.27086 -0.149802 0)
(2.27234 -0.145692 0)
(2.27456 -0.145432 0)
(2.27902 -0.148211 0)
(2.28378 -0.152776 0)
(2.28544 -0.154114 0)
(2.28561 -0.152928 0)
(2.2838 -0.148843 0)
(2.2806 -0.140816 0)
(2.27865 -0.131271 0)
(2.27934 -0.124881 0)
(2.28115 -0.121639 0)
(2.28369 -0.119913 0)
(2.28611 -0.120491 0)
(2.28962 -0.123958 0)
(2.29479 -0.128878 0)
(2.29865 -0.131219 0)
(2.30016 -0.130733 0)
(2.30141 -0.128023 0)
(2.30109 -0.123566 0)
(2.29911 -0.116707 0)
(2.29796 -0.109431 0)
(2.29903 -0.10476 0)
(2.3011 -0.102427 0)
(2.30366 -0.100684 0)
(2.30627 -0.0996462 0)
(2.30908 -0.0995064 0)
(2.31241 -0.100415 0)
(2.31495 -0.10061 0)
(2.31621 -0.0989963 0)
(2.31667 -0.095773 0)
(2.3164 -0.0914446 0)
(2.3161 -0.0870217 0)
(2.31646 -0.0839018 0)
(2.31734 -0.0822898 0)
(2.31836 -0.0820214 0)
(2.3195 -0.0826226 0)
(2.32037 -0.0829694 0)
(2.32142 -0.0833217 0)
(2.32184 -0.0826903 0)
(2.31995 -0.0794827 0)
(2.31716 -0.0744873 0)
(2.31703 -0.070729 0)
(2.31826 -0.0685161 0)
(2.31984 -0.0664178 0)
(2.32235 -0.063574 0)
(2.3257 -0.0602065 0)
(2.32963 -0.0578403 0)
(2.33228 -0.0571668 0)
(2.33389 -0.0576952 0)
(2.33579 -0.0593916 0)
(2.33788 -0.0618427 0)
(2.33909 -0.062795 0)
(2.34074 -0.0642502 0)
(2.34147 -0.0657638 0)
(2.34092 -0.0663063 0)
(2.33894 -0.0654873 0)
(2.33678 -0.0614492 0)
(2.33588 -0.0547384 0)
(2.33646 -0.0470524 0)
(2.33855 -0.039159 0)
(2.34189 -0.0301091 0)
(2.34595 -0.0235121 0)
(2.3491 -0.0210036 0)
(2.35077 -0.0210364 0)
(2.35241 -0.0224159 0)
(2.35402 -0.0251937 0)
(2.35473 -0.0279811 0)
(2.35501 -0.0305901 0)
(2.35406 -0.0327012 0)
(2.35112 -0.0331287 0)
(2.3477 -0.0313876 0)
(2.3462 -0.0285496 0)
(2.34654 -0.0258369 0)
(2.34761 -0.0232512 0)
(2.35013 -0.0200401 0)
(2.35446 -0.0150785 0)
(2.35925 -0.0096943 0)
(2.36143 -0.00681392 0)
(2.36254 -0.00551203 0)
(2.36369 -0.0041782 0)
(2.36364 -0.00287011 0)
(2.3634 -0.0033034 0)
(2.36393 -0.00563442 0)
(2.36441 -0.00893875 0)
(2.36477 -0.0119789 0)
(2.36526 -0.0134851 0)
(2.3661 -0.013202 0)
(2.36576 -0.0100509 0)
(2.36524 -0.00328546 0)
(2.3654 0.0041247 0)
(2.36658 0.00950638 0)
(2.36843 0.0118104 0)
(2.37039 0.012526 0)
(2.3719 0.0123402 0)
(2.37254 0.0118197 0)
(2.37307 0.0115698 0)
(2.37369 0.0124553 0)
(2.37481 0.013977 0)
(2.37636 0.0168216 0)
(2.37784 0.0207987 0)
(2.37934 0.0251524 0)
(2.38075 0.0294417 0)
(2.38162 0.03257 0)
(2.38239 0.0341385 0)
(2.38333 0.0348439 0)
(2.38416 0.0348891 0)
(2.3853 0.0341731 0)
(2.38617 0.0332787 0)
(2.38655 0.0325357 0)
(2.38641 0.0324467 0)
(2.38551 0.033717 0)
(2.38419 0.0369582 0)
(2.38248 0.0422717 0)
(2.381 0.0482004 0)
(2.38066 0.0522147 0)
(2.38155 0.0539012 0)
(2.38273 0.0542255 0)
(2.38414 0.0536403 0)
(2.38541 0.0510158 0)
(2.3871 0.0485186 0)
(2.39027 0.0460002 0)
(2.39443 0.0436446 0)
(2.39832 0.0430945 0)
(2.40002 0.0443451 0)
(2.40061 0.0470583 0)
(2.40033 0.0509329 0)
(2.39949 0.0562502 0)
(2.39703 0.0624744 0)
(2.395 0.0656997 0)
(2.39459 0.0657663 0)
(2.3944 0.0646502 0)
(2.39487 0.0634492 0)
(2.39631 0.0630026 0)
(2.39817 0.0628938 0)
(2.40313 0.0633357 0)
(2.40846 0.0652635 0)
(2.41101 0.0671047 0)
(2.41215 0.0680957 0)
(2.41303 0.0696744 0)
(2.4112 0.0726877 0)
(2.40611 0.0763887 0)
(2.40297 0.0776266 0)
(2.40305 0.0774958 0)
(2.40428 0.0775139 0)
(2.40586 0.0776884 0)
(2.40777 0.0781201 0)
(2.41184 0.0797179 0)
(2.41632 0.0835798 0)
(2.41888 0.0867624 0)
(2.41972 0.0881139 0)
(2.42011 0.0891558 0)
(2.41813 0.090262 0)
(2.41301 0.0904657 0)
(2.40769 0.089266 0)
(2.40465 0.0882114 0)
(2.40404 0.0881414 0)
(2.40512 0.088548 0)
(2.40648 0.0891659 0)
(2.40909 0.0906632 0)
(2.41457 0.0951958 0)
(2.4227 0.101629 0)
(2.42767 0.10452 0)
(2.42922 0.104403 0)
(2.43074 0.103785 0)
(2.43113 0.102793 0)
(2.42946 0.1016 0)
(2.42507 0.101444 0)
(2.4203 0.103745 0)
(2.41781 0.107195 0)
(2.41802 0.110023 0)
(2.41951 0.112025 0)
(2.42154 0.114002 0)
(2.42562 0.117225 0)
(2.4302 0.120563 0)
(2.43213 0.121268 0)
(2.43299 0.120686 0)
(2.43401 0.11994 0)
(2.43428 0.118016 0)
(2.43394 0.114349 0)
(2.43374 0.111182 0)
(2.43418 0.109793 0)
(2.43564 0.109771 0)
(2.43687 0.111423 0)
(2.43704 0.114548 0)
(2.43502 0.11974 0)
(2.43232 0.12477 0)
(2.43013 0.125227 0)
(2.31222 -0.839349 0)
(2.31535 -0.839135 0)
(2.31811 -0.838649 0)
(2.32013 -0.83793 0)
(2.32162 -0.83736 0)
(2.32345 -0.837676 0)
(2.32649 -0.837953 0)
(2.32987 -0.837844 0)
(2.33301 -0.837384 0)
(2.33625 -0.836862 0)
(2.3399 -0.836868 0)
(2.34339 -0.836932 0)
(2.34683 -0.837848 0)
(2.35031 -0.839407 0)
(2.35343 -0.841034 0)
(2.35559 -0.841911 0)
(2.35678 -0.841151 0)
(2.35818 -0.839223 0)
(2.36061 -0.837123 0)
(2.36366 -0.835161 0)
(2.36715 -0.833536 0)
(2.37082 -0.832671 0)
(2.37474 -0.832744 0)
(2.37899 -0.834045 0)
(2.38239 -0.836213 0)
(2.38527 -0.83874 0)
(2.38759 -0.841065 0)
(2.38975 -0.842417 0)
(2.39287 -0.842435 0)
(2.39675 -0.841613 0)
(2.40077 -0.840289 0)
(2.40463 -0.838559 0)
(2.40779 -0.835993 0)
(2.40961 -0.832336 0)
(2.4107 -0.82875 0)
(2.41265 -0.826711 0)
(2.41521 -0.825692 0)
(2.41742 -0.824579 0)
(2.41892 -0.823094 0)
(2.42125 -0.822339 0)
(2.42435 -0.822539 0)
(2.42717 -0.822876 0)
(2.42997 -0.822936 0)
(2.43304 -0.822745 0)
(2.43664 -0.822949 0)
(2.44211 -0.823996 0)
(2.44866 -0.827232 0)
(2.45163 -0.83018 0)
(2.45417 -0.832341 0)
(2.45725 -0.834295 0)
(2.46108 -0.836824 0)
(2.46484 -0.839152 0)
(2.46739 -0.839543 0)
(2.46977 -0.835577 0)
(2.47084 -0.833929 0)
(2.46555 -0.821844 0)
(2.46064 -0.801161 0)
(2.44878 -0.767056 0)
(2.43064 -0.693965 0)
(2.39741 -0.581913 0)
(2.3657 -0.47525 0)
(2.37632 -0.417955 0)
(2.3323 -0.310889 0)
(2.29227 -0.19733 0)
(2.28312 -0.161755 0)
(2.28195 -0.163735 0)
(2.28542 -0.172843 0)
(2.2904 -0.173118 0)
(2.28848 -0.170011 0)
(2.28714 -0.164027 0)
(2.28551 -0.157385 0)
(2.28062 -0.148208 0)
(2.27872 -0.143611 0)
(2.27997 -0.143363 0)
(2.28352 -0.145017 0)
(2.2894 -0.148865 0)
(2.29258 -0.151598 0)
(2.29283 -0.151531 0)
(2.29199 -0.148646 0)
(2.29133 -0.141527 0)
(2.29008 -0.131957 0)
(2.2889 -0.122556 0)
(2.28916 -0.117113 0)
(2.29002 -0.115341 0)
(2.29087 -0.115468 0)
(2.29278 -0.117576 0)
(2.29657 -0.121807 0)
(2.30138 -0.126196 0)
(2.30483 -0.127869 0)
(2.3062 -0.127077 0)
(2.30745 -0.124038 0)
(2.30748 -0.119104 0)
(2.30658 -0.111901 0)
(2.30649 -0.104704 0)
(2.30799 -0.0998277 0)
(2.31009 -0.0969127 0)
(2.31255 -0.0948452 0)
(2.31482 -0.0935981 0)
(2.31719 -0.0932882 0)
(2.32037 -0.0941342 0)
(2.32282 -0.0939847 0)
(2.32376 -0.0925244 0)
(2.32416 -0.0900811 0)
(2.32358 -0.0872549 0)
(2.32275 -0.0841204 0)
(2.32268 -0.0822953 0)
(2.32324 -0.0819477 0)
(2.32409 -0.0820634 0)
(2.32514 -0.0821687 0)
(2.32585 -0.0818486 0)
(2.32573 -0.0805069 0)
(2.32505 -0.0765518 0)
(2.32491 -0.0710565 0)
(2.32548 -0.0660426 0)
(2.32688 -0.061915 0)
(2.32897 -0.0576441 0)
(2.33115 -0.0553111 0)
(2.33351 -0.0550371 0)
(2.33473 -0.05648 0)
(2.33581 -0.0579229 0)
(2.33718 -0.0593779 0)
(2.33888 -0.0621687 0)
(2.3399 -0.0648837 0)
(2.34148 -0.0663958 0)
(2.34298 -0.0664587 0)
(2.34381 -0.0655849 0)
(2.34472 -0.062699 0)
(2.34585 -0.0580085 0)
(2.34692 -0.0510924 0)
(2.34892 -0.0424235 0)
(2.35095 -0.0338042 0)
(2.35192 -0.0279293 0)
(2.35236 -0.0244944 0)
(2.35266 -0.0223047 0)
(2.35306 -0.0215271 0)
(2.35353 -0.0219051 0)
(2.35395 -0.0234949 0)
(2.35429 -0.0263428 0)
(2.35435 -0.0296537 0)
(2.35401 -0.0321336 0)
(2.35364 -0.0328583 0)
(2.35307 -0.0314854 0)
(2.35256 -0.0285813 0)
(2.35328 -0.0254323 0)
(2.35488 -0.0214695 0)
(2.35787 -0.0151247 0)
(2.36174 -0.00896037 0)
(2.36455 -0.00664091 0)
(2.36613 -0.00654068 0)
(2.36777 -0.00663135 0)
(2.36918 -0.00665994 0)
(2.36888 -0.00633766 0)
(2.36691 -0.00590652 0)
(2.36582 -0.00626602 0)
(2.36643 -0.00727049 0)
(2.36744 -0.00808386 0)
(2.36878 -0.0089298 0)
(2.37153 -0.00931206 0)
(2.37346 -0.00755093 0)
(2.37445 -0.00367637 0)
(2.37463 0.00173322 0)
(2.37418 0.00765298 0)
(2.37302 0.0129024 0)
(2.37314 0.0152665 0)
(2.374 0.0159123 0)
(2.37497 0.0160728 0)
(2.3767 0.0166085 0)
(2.37926 0.0180014 0)
(2.38137 0.0204505 0)
(2.38337 0.0239303 0)
(2.38515 0.0276783 0)
(2.38621 0.0307757 0)
(2.38723 0.0332297 0)
(2.38762 0.0351881 0)
(2.38762 0.0361715 0)
(2.38832 0.0358232 0)
(2.38935 0.0347874 0)
(2.3903 0.0338809 0)
(2.39138 0.0333656 0)
(2.3926 0.0333669 0)
(2.39354 0.0339313 0)
(2.39401 0.0354325 0)
(2.39371 0.0382384 0)
(2.39265 0.0428686 0)
(2.39103 0.049112 0)
(2.38893 0.0549222 0)
(2.38691 0.0581327 0)
(2.38595 0.0583045 0)
(2.38681 0.0564819 0)
(2.38852 0.0544287 0)
(2.39042 0.0526707 0)
(2.39315 0.0505328 0)
(2.39803 0.0474643 0)
(2.40325 0.0459309 0)
(2.40702 0.0467129 0)
(2.40906 0.0482044 0)
(2.40967 0.0497289 0)
(2.40945 0.051967 0)
(2.40772 0.0569635 0)
(2.40276 0.0637764 0)
(2.39838 0.0675226 0)
(2.39772 0.0682992 0)
(2.39869 0.0686837 0)
(2.40005 0.0688762 0)
(2.40254 0.0692416 0)
(2.40807 0.06967 0)
(2.41364 0.0689922 0)
(2.41544 0.0688196 0)
(2.41677 0.0688174 0)
(2.41801 0.069051 0)
(2.41748 0.0703276 0)
(2.413 0.0739976 0)
(2.40709 0.0786379 0)
(2.40605 0.0805804 0)
(2.40738 0.0813475 0)
(2.40899 0.0820526 0)
(2.41201 0.0832203 0)
(2.41749 0.0857674 0)
(2.42179 0.0880096 0)
(2.42312 0.0888627 0)
(2.42436 0.0893217 0)
(2.42517 0.0897844 0)
(2.42356 0.0902905 0)
(2.41743 0.0901845 0)
(2.41069 0.0895622 0)
(2.40855 0.0897148 0)
(2.40926 0.0904377 0)
(2.41037 0.0914544 0)
(2.41263 0.0934559 0)
(2.41749 0.0983225 0)
(2.42486 0.104895 0)
(2.42864 0.107506 0)
(2.43005 0.107314 0)
(2.43199 0.106677 0)
(2.43324 0.105401 0)
(2.43301 0.102914 0)
(2.43111 0.100202 0)
(2.4289 0.099757 0)
(2.42731 0.101979 0)
(2.42617 0.106018 0)
(2.42593 0.110748 0)
(2.42674 0.114714 0)
(2.42903 0.119264 0)
(2.43221 0.124346 0)
(2.4339 0.126056 0)
(2.43515 0.125986 0)
(2.43626 0.125469 0)
(2.43636 0.123381 0)
(2.43517 0.119453 0)
(2.43473 0.115084 0)
(2.43591 0.112586 0)
(2.43779 0.111072 0)
(2.44057 0.111 0)
(2.44209 0.111732 0)
(2.44308 0.112867 0)
(2.44269 0.116775 0)
(2.43984 0.122468 0)
(2.43291 0.127396 0)
(2.31541 -0.832548 0)
(2.31873 -0.832622 0)
(2.32183 -0.832696 0)
(2.32424 -0.832699 0)
(2.32543 -0.83206 0)
(2.32714 -0.831306 0)
(2.33002 -0.831159 0)
(2.33325 -0.831041 0)
(2.33682 -0.830636 0)
(2.34023 -0.830097 0)
(2.34352 -0.829757 0)
(2.34671 -0.829819 0)
(2.34958 -0.830436 0)
(2.35205 -0.831688 0)
(2.35437 -0.833306 0)
(2.3566 -0.834972 0)
(2.3591 -0.835855 0)
(2.36228 -0.835655 0)
(2.36587 -0.834569 0)
(2.36958 -0.832836 0)
(2.37322 -0.830663 0)
(2.37624 -0.828406 0)
(2.37827 -0.826472 0)
(2.38059 -0.826145 0)
(2.38309 -0.827021 0)
(2.38563 -0.828928 0)
(2.38841 -0.830787 0)
(2.39131 -0.832672 0)
(2.39497 -0.834188 0)
(2.39904 -0.834652 0)
(2.40326 -0.834471 0)
(2.40745 -0.834062 0)
(2.41155 -0.833371 0)
(2.41506 -0.83185 0)
(2.41704 -0.828873 0)
(2.41777 -0.824961 0)
(2.41912 -0.821948 0)
(2.42127 -0.819989 0)
(2.4232 -0.81797 0)
(2.42467 -0.815686 0)
(2.42722 -0.814531 0)
(2.43029 -0.814486 0)