/*--------------------------------*- C++ -*----------------------------------*\
  =========                 |
  \\      /  F ield         | OpenFOAM: The Open Source CFD Toolbox
   \\    /   O peration     | Website:  https://openfoam.org
    \\  /    A nd           | Version:  7
     \\/     M anipulation  |
\*---------------------------------------------------------------------------*/
FoamFile
{
    version     2.0;
    format      ascii;
    class       volScalarField;
    location    "2.3";
    object      T;
}
// * * * * * * * * * * * * * * * * * * * * * * * * * * * * * * * * * * * * * //

dimensions      [0 0 0 1 0 0 0];

internalField   nonuniform List<scalar> 
3328
(
1
1
1
1
1
1
1
1
1
1
2.01922
2.7
2.75147
2.77322
2.79286
2.8062
2.81451
2.81897
2.82291
2.83007
2.84561
2.86932
2.89137
2.90265
1
1
1
1
1
1
1
1
1
1
2.00404
2.69677
2.75023
2.77137
2.79069
2.80494
2.81499
2.82174
2.82829
2.83739
2.85359
2.87701
2.89818
2.90887
1
1
1
1
1
1
1
1
1
1
1.96445
2.69089
2.74561
2.7663
2.78681
2.80382
2.81792
2.82957
2.83933
2.84931
2.86484
2.88702
2.9067
2.91685
1
1
1
1
1
1
1
1
1
1
1.89831
2.67639
2.73616
2.75742
2.78083
2.80442
2.82789
2.84633
2.85705
2.8656
2.87938
2.89912
2.91572
2.92487
1
1
1
1
1
1
1
1
1
1
1.80077
2.64917
2.7225
2.74562
2.7766
2.81204
2.84677
2.86806
2.87466
2.87823
2.8882
2.90559
2.92102
2.93076
1
1
1
1
1
1
1
1
1
1
1.67388
2.60789
2.70602
2.73504
2.78086
2.83209
2.87136
2.88679
2.88706
2.88673
2.89395
2.90949
2.9247
2.93211
1
1
1
1
1
1
1
1
1
1
1.48473
2.52837
2.68698
2.73168
2.79586
2.85456
2.89069
2.89925
2.89373
2.88967
2.89182
2.90313
2.91967
2.932
1
1
1
1
1
1
1
1
1
1
1.21711
2.40017
2.68251
2.75063
2.82354
2.87517
2.90014
2.90216
2.89443
2.88544
2.88231
2.89295
2.91409
2.95078
1
1
1
1
1
1
1
1
1
1
1.01637
2.26496
2.70007
2.78318
2.85084
2.88581
2.90184
2.90001
2.88942
2.87517
2.86691
2.87311
2.87472
2.89382
1
1
1
1
1
1
1
1
1
1
1.00008
2.15987
2.73627
2.82372
2.86777
2.88946
2.90064
2.89532
2.88072
2.86283
2.85122
2.85206
2.85169
2.86585
1
1
1
1
1
1
1
1
1
1
0.999999
2.12803
2.81281
2.84229
2.86537
2.8811
2.88973
2.88392
2.86931
2.85176
2.83804
2.8325
2.83179
2.8392
1
1
1
1
1
1
1
1
1
1
1
2.15681
2.90924
2.86714
2.85092
2.85668
2.86382
2.86209
2.85351
2.84077
2.82797
2.81859
2.81749
2.82069
1
1
1
1
1
1
1
1
1
1
1
2.21039
2.98079
2.89483
2.83312
2.82557
2.8302
2.83385
2.83248
2.82722
2.81831
2.80765
2.80256
2.80557
1
1
1
1
1
1
1
1
1
1
1
2.29602
3.0221
2.91386
2.82498
2.8033
2.80051
2.80502
2.80835
2.80977
2.8072
2.79843
2.79034
2.79048
1
1
1
1
1
1
1
1
1
1
1
2.33905
3.03556
2.93933
2.8435
2.796
2.78255
2.78116
2.78324
2.78703
2.79101
2.78825
2.77946
2.77534
1
1
1
1
1
1
1
1
1
1
1
2.31866
3.02846
2.9611
2.8862
2.83821
2.79626
2.76959
2.76312
2.7645
2.77009
2.77446
2.77004
2.76307
1
1
1
1
1
1
1
1
1
1
1
2.25918
3.00849
2.97213
2.92787
2.89144
2.83157
2.77983
2.75197
2.74887
2.75091
2.75835
2.75959
2.75262
1
1
1
1
1
1
1
1
1
1
1
2.18271
2.97664
2.97066
2.95418
2.93385
2.87312
2.80658
2.75778
2.73777
2.73793
2.74078
2.7459
2.74185
1
1
1
1
1
1
1
1
1
1
1
2.08814
2.9353
2.9676
2.96263
2.95629
2.9134
2.8499
2.7864
2.74824
2.73578
2.73045
2.73088
2.7288
1
1
1
1
1
1
1
1
1
1
1
1.98856
2.88763
2.95438
2.95817
2.96285
2.94189
2.89814
2.83643
2.7827
2.74923
2.73356
2.72307
2.71523
1
1
1
1
1
1
1
1
1
1
1
1.89787
2.83756
2.92993
2.94879
2.95895
2.9544
2.93365
2.88975
2.83481
2.78382
2.74819
2.72368
2.70619
1
1
1
1
1
1
1
1
1
1
1
1.79101
2.78161
2.90562
2.93255
2.95212
2.95373
2.9487
2.92787
2.88761
2.83514
2.78158
2.73839
2.70808
1
1
1
1
1
1
1
1
1
1
1
1.65944
2.71566
2.88452
2.91935
2.94347
2.9511
2.9499
2.94433
2.92375
2.88553
2.83172
2.77506
2.72758
1
1
1
1
1
1
1
1
1
1
1
1.51153
2.64316
2.87247
2.91106
2.93296
2.94332
2.94733
2.94744
2.94033
2.91908
2.87795
2.82564
2.76979
1
1
1
1
1
1
1
1
1
1
1
1.3541
2.56847
2.87206
2.90876
2.92256
2.93143
2.9379
2.94458
2.9422
2.93138
2.90598
2.86672
2.81976
1
1
1
1
1
1
1
1
1
1
1
1.21124
2.50196
2.88365
2.90971
2.91447
2.91857
2.92448
2.93383
2.93504
2.92891
2.91313
2.8891
2.85735
1
1
1
1
1
1
1
1
1
1
1
1.098
2.4467
2.90178
2.91132
2.9086
2.90879
2.91159
2.91905
2.92178
2.91856
2.90912
2.89552
2.87802
1
1
1
1
1
1
1
1
1
1
1
1.01567
2.39475
2.91455
2.91377
2.90541
2.90166
2.90221
2.90587
2.90678
2.90378
2.89811
2.89058
2.88091
1
1
1
1
1
1
1
1
1
1
1
1.00002
2.34716
2.92212
2.91707
2.90449
2.89874
2.89629
2.89651
2.89414
2.88906
2.8835
2.87933
2.87443
1
1
1
1
1
1
1
1
1
1
1
1
2.30414
2.92636
2.92025
2.90544
2.89887
2.89462
2.8911
2.88478
2.8763
2.86962
2.86631
2.86442
1
1
1
1
1
1
1
1
1
1
1
1
2.26177
2.92859
2.92414
2.90637
2.90003
2.895
2.88862
2.87827
2.86656
2.85795
2.8537
2.85306
1
1
1
1
1
1
1
1
1
1
1
1
2.21916
2.92958
2.92499
2.90684
2.90131
2.8954
2.88647
2.87342
2.85976
2.84966
2.8448
2.84463
1
1
1
1
1
1
1
1
1
1
1
1
2.17791
2.92697
2.92263
2.90648
2.90068
2.89368
2.88301
2.86887
2.85513
2.84582
2.84226
2.84264
1
1
1
1
1
1
1
1
1
1
1
1
2.13869
2.92134
2.91855
2.90338
2.89699
2.88908
2.87805
2.86448
2.85289
2.84661
2.84508
2.84558
1
1
1
1
1
1
1
1
1
1
1
1
2.10466
2.9147
2.91334
2.8975
2.89094
2.88302
2.87257
2.86076
2.853
2.85079
2.8513
2.85168
1
1
1
1
1
1
1
1
1
1
1
1
2.07713
2.90838
2.90815
2.89144
2.88535
2.87788
2.86796
2.85867
2.85472
2.85559
2.85801
2.85823
1
1
1
1
1
1
1
1
1
1
1
1
2.05464
2.90282
2.90469
2.8875
2.88206
2.87506
2.86548
2.85805
2.85676
2.85955
2.8635
2.86406
1
1
1
1
1
1
1
1
1
1
1
1
2.03516
2.8976
2.90373
2.88652
2.8814
2.87434
2.86501
2.85871
2.85875
2.8627
2.86756
2.86899
1
1
1
1
1
1
1
1
1
1
1
1
2.01874
2.89317
2.90421
2.88713
2.88195
2.87456
2.865
2.8596
2.86022
2.86457
2.87002
2.87248
1
1
1
1
1
1
1
1
1
1
1
1
2.01037
2.88994
2.90464
2.88812
2.88336
2.87589
2.86659
2.86173
2.86246
2.86665
2.87205
2.87453
2.83281
2.97656
3.15809
3.31108
3.37105
3.39354
3.39728
3.39527
2.90707
3.02244
3.15602
3.28981
3.34682
3.36277
3.36409
3.36128
2.87619
2.97541
3.10047
3.22941
3.2854
3.29849
3.2866
3.27921
2.84813
2.91985
3.02391
3.1415
3.18879
3.19833
3.1891
3.18852
2.82131
2.8631
2.92975
3.01912
3.07913
3.10245
3.09883
3.11408
2.79798
2.81938
2.85605
2.91351
2.97133
3.00904
3.03262
3.06321
2.77782
2.78995
2.80786
2.83841
2.87718
2.91994
2.97746
3.03616
2.76188
2.76593
2.77768
2.79044
2.81204
2.84939
2.92674
3.05836
2.74781
2.74796
2.75246
2.76317
2.77003
2.78723
2.80645
2.76548
2.73461
2.73282
2.73355
2.73748
2.73855
2.73058
2.70118
2.59125
2.72164
2.71777
2.71537
2.71194
2.70617
2.68648
2.64302
2.5193
2.70769
2.70162
2.69626
2.68878
2.67772
2.65515
2.60583
2.50224
2.69442
2.68535
2.6767
2.66578
2.65179
2.62828
2.58184
2.50163
2.68774
2.675
2.66201
2.64686
2.62911
2.6045
2.56532
2.50506
2.6954
2.67506
2.65681
2.63712
2.61431
2.58714
2.55333
2.5077
2.72222
2.68725
2.66206
2.63575
2.60896
2.57871
2.54723
2.50866
2.76914
2.7217
2.6825
2.64718
2.61339
2.58005
2.54884
2.51284
2.81966
2.77421
2.72587
2.6793
2.63616
2.59347
2.55741
2.52207
2.85511
2.82454
2.78237
2.73285
2.68262
2.63069
2.58388
2.54247
2.86907
2.85223
2.8271
2.79008
2.74352
2.69043
2.63459
2.58243
2.86748
2.85946
2.84842
2.82869
2.79797
2.75449
2.70155
2.64414
2.86293
2.86165
2.85798
2.84953
2.83199
2.80277
2.7621
2.71078
2.85495
2.85868
2.8604
2.85738
2.84565
2.82437
2.79479
2.7568
2.8478
2.85282
2.85538
2.85216
2.84122
2.82338
2.80113
2.77455
2.84482
2.84651
2.84599
2.83986
2.82836
2.81387
2.79653
2.77716
2.84597
2.84401
2.83815
2.82781
2.81549
2.80247
2.78841
2.77289
2.85006
2.84469
2.83422
2.82002
2.80557
2.79131
2.77709
2.76258
2.85554
2.84775
2.8333
2.8159
2.79864
2.7818
2.76544
2.74967
2.86126
2.85119
2.83329
2.81427
2.7947
2.77509
2.75614
2.73864
2.86584
2.85251
2.83315
2.81307
2.79173
2.77026
2.74996
2.73144
2.8684
2.85252
2.83279
2.81157
2.78877
2.76649
2.7459
2.72693
2.86895
2.85138
2.83113
2.80884
2.78521
2.76299
2.74275
2.72364
2.08093
1.66785
1.60835
1.66154
1.8084
1.95078
2.08085
2.14194
2.18385
2.25069
2.34166
2.3871
2.40363
2.40445
2.40108
2.45116
2.53271
2.56974
2.59009
2.60458
2.61108
2.61609
2.61361
2.605
2.59309
2.57813
2.56361
2.55001
2.53715
2.52536
2.51724
2.51635
2.51619
2.50565
2.49133
2.47416
2.45289
2.42997
2.40975
2.39398
2.38174
2.3724
2.36567
2.36201
2.36205
2.363
2.36314
2.36338
2.36364
2.36237
2.35321
2.32962
2.29997
2.28231
2.27286
2.26507
2.25774
2.25074
2.24429
2.23854
2.23146
2.22333
2.21124
2.18818
2.15975
2.14658
2.14058
2.13527
2.12981
2.12417
2.11935
2.11492
2.1081
2.10055
2.0895
2.06443
2.02754
2.00895
2.00109
1.99409
1.98704
1.98006
1.97281
1.96724
1.96439
1.96106
1.95627
1.95373
2.23904
2.04228
1.89092
1.83019
1.83978
1.85025
1.88077
1.95096
2.0307
2.11017
2.18694
2.25808
2.30617
2.33461
2.34289
2.38664
2.47346
2.52427
2.55481
2.57125
2.57237
2.57163
2.57258
2.56784
2.56154
2.55187
2.53779
2.52596
2.51521
2.50559
2.49962
2.49873
2.49638
2.48703
2.47482
2.46115
2.44518
2.42614
2.40496
2.38615
2.37297
2.36362
2.35706
2.35386
2.35361
2.35259
2.35163
2.35108
2.34974
2.34537
2.33487
2.31584
2.2937
2.27823
2.26889
2.26094
2.25295
2.2448
2.23666
2.22868
2.22063
2.21204
2.2014
2.18336
2.15636
2.13971
2.13332
2.12819
2.12297
2.11746
2.11188
2.10587
2.09888
2.09069
2.07962
2.05922
2.02675
2.00435
1.99612
1.98982
1.983
1.97583
1.96924
1.96416
1.9605
1.95803
1.95693
1.97181
2.30077
2.15357
2.03238
1.91906
1.83491
1.80172
1.80563
1.83787
1.89507
1.95156
2.00429
2.07331
2.15268
2.22259
2.25428
2.28991
2.37818
2.44148
2.47912
2.49895
2.49828
2.49142
2.4882
2.48528
2.48302
2.47943
2.46665
2.45186
2.44291
2.43803
2.43856
2.43925
2.43427
2.42651
2.41718
2.40707
2.39711
2.38623
2.37226
2.35506
2.34129
2.33462
2.33078
2.32777
2.32475
2.32186
2.31948
2.31716
2.31399
2.30849
2.29807
2.27992
2.2596
2.24905
2.24421
2.23921
2.23275
2.22451
2.21478
2.20428
2.19371
2.18317
2.17158
2.15657
2.13549
2.11667
2.10831
2.10332
2.09843
2.09336
2.08719
2.08009
2.07223
2.06299
2.0508
2.03387
2.00997
1.98601
1.97485
1.96977
1.96451
1.95909
1.95418
1.95208
1.9532
1.95956
1.9782
2.0333
2.35743
2.22999
2.13134
2.03772
1.93334
1.8747
1.85846
1.85253
1.84582
1.85081
1.87117
1.9284
2.01625
2.10152
2.16733
2.20224
2.26984
2.34989
2.38875
2.40673
2.40557
2.40382
2.40449
2.40281
2.40064
2.39799
2.38811
2.37187
2.36188
2.35705
2.35684
2.35542
2.35126
2.34553
2.33783
2.33032
2.32469
2.32023
2.31462
2.30514
2.29401
2.28724
2.28376
2.28068
2.27697
2.27238
2.26711
2.26187
2.25643
2.24955
2.23999
2.2282
2.2148
2.20233
2.19662
2.19217
2.18685
2.17993
2.17185
2.16191
2.14976
2.13636
2.12298
2.10938
2.0941
2.07853
2.06588
2.05767
2.05226
2.04708
2.0408
2.03323
2.02403
2.0129
2.00055
1.98786
1.97407
1.95683
1.93885
1.9323
1.92792
1.92837
1.93404
1.94858
1.97569
2.00783
2.04002
2.08235
2.40291
2.3019
2.20721
2.12979
2.05511
1.97565
1.92311
1.90295
1.88406
1.86423
1.85956
1.87282
1.91968
2.00268
2.08261
2.13421
2.18636
2.26379
2.3213
2.3469
2.34865
2.34752
2.34785
2.34616
2.34187
2.33569
2.32593
2.314
2.30537
2.29904
2.29305
2.28798
2.28237
2.27579
2.26906
2.26373
2.25994
2.25722
2.25447
2.25026
2.24444
2.2385
2.23333
2.22884
2.22395
2.2172
2.20777
2.19716
2.18728
2.1786
2.17191
2.16737
2.16179
2.15151
2.13975
2.13258
2.12632
2.11926
2.1115
2.10304
2.09299
2.07999
2.0642
2.04881
2.03632
2.02582
2.01557
2.00487
1.99471
1.98696
1.97998
1.97212
1.96214
1.94955
1.93625
1.92579
1.91792
1.90991
1.89706
1.89543
1.89857
1.91012
1.93802
1.97863
2.01714
2.04793
2.06211
2.06823
2.43281
2.35631
2.27689
2.20005
2.14121
2.08117
2.01262
1.96766
1.9526
1.92904
1.89879
1.88832
1.89798
1.93464
1.99691
2.06239
2.11787
2.19392
2.26984
2.31518
2.33369
2.33208
2.32747
2.32201
2.31444
2.30614
2.29733
2.28869
2.27976
2.26908
2.25674
2.2456
2.23647
2.22835
2.22176
2.21676
2.21303
2.21016
2.20753
2.20471
2.20117
2.19625
2.19006
2.18311
2.17495
2.16476
2.15259
2.13927
2.12727
2.1192
2.11461
2.11115
2.10684
2.09922
2.08701
2.07552
2.06728
2.05951
2.05161
2.0436
2.03479
2.02267
2.00508
1.98692
1.9744
1.96575
1.95789
1.94888
1.93773
1.92629
1.91618
1.90734
1.89796
1.88728
1.87741
1.86926
1.86507
1.86555
1.86983
1.88278
1.90483
1.93846
1.97437
2.0083
2.02032
2.02626
2.02581
2.01704
2.45092
2.38994
2.32791
2.25891
2.1975
2.15198
2.09943
2.04062
2.00498
1.98863
1.96238
1.93133
1.91745
1.92373
1.93856
1.97037
2.016
2.09051
2.194
2.28242
2.32895
2.33182
2.32518
2.31547
2.30485
2.29557
2.28706
2.27826
2.26819
2.2543
2.23488
2.21738
2.20646
2.1986
2.19219
2.18663
2.18233
2.17942
2.17718
2.17491
2.1716
2.16574
2.15704
2.14553
2.13194
2.11936
2.10759
2.09628
2.08615
2.07799
2.07153
2.06592
2.06015
2.05303
2.04288
2.03025
2.02003
2.01197
2.00424
1.9965
1.98678
1.97249
1.95384
1.93618
1.92247
1.91199
1.90341
1.8957
1.88634
1.87444
1.86152
1.85057
1.84313
1.83746
1.83523
1.8368
1.84292
1.85845
1.88088
1.91211
1.94381
1.96696
1.97645
1.98587
1.98902
1.98317
1.97114
1.95802
2.46122
2.40933
2.35946
2.30304
2.24223
2.19532
2.1576
2.1098
2.06108
2.03568
2.02128
1.99164
1.96
1.93936
1.93325
1.93264
1.93941
1.96943
2.0533
2.1905
2.29418
2.32648
2.32301
2.31244
2.30036
2.28939
2.28
2.26985
2.25838
2.24264
2.22007
2.20003
2.18898
2.18188
2.17557
2.16936
2.16379
2.16017
2.15799
2.15579
2.15211
2.14477
2.12851
2.10823
2.09476
2.08485
2.07664
2.06917
2.061
2.05113
2.04084
2.03229
2.02506
2.0178
2.00933
1.99884
1.98775
1.97845
1.96977
1.95848
1.94459
1.9285
1.9129
1.89883
1.88465
1.87132
1.8609
1.85223
1.84319
1.83399
1.82416
1.81665
1.81592
1.81747
1.82529
1.84216
1.87412
1.90706
1.93488
1.9512
1.95669
1.96159
1.96044
1.95631
1.94354
1.92703
1.91971
1.91197
2.47035
2.42352
2.37884
2.33151
2.27706
2.22864
2.19447
2.15848
2.11389
2.07794
2.05967
2.03636
1.99889
1.96804
1.94601
1.9263
1.92503
1.92534
1.93971
2.02373
2.18329
2.27716
2.30792
2.30386
2.29348
2.28181
2.27007
2.25707
2.24381
2.22801
2.20585
2.18539
2.17519
2.16779
2.1618
2.15615
2.15182
2.14875
2.14522
2.1401
2.13218
2.11779
2.09583
2.07648
2.06564
2.05931
2.05384
2.04792
2.04075
2.03154
2.02005
2.00868
1.99994
1.9926
1.98497
1.97618
1.96446
1.9481
1.9313
1.91687
1.90319
1.89112
1.88135
1.87201
1.86034
1.84454
1.82881
1.81829
1.81226
1.80906
1.81039
1.8143
1.82451
1.84373
1.87238
1.90541
1.94598
1.96112
1.96794
1.96588
1.95971
1.94608
1.9271
1.91221
1.89731
1.88983
1.8879
1.88414
2.48183
2.4375
2.3946
2.3508
2.30192
2.2549
2.22101
2.19132
2.15416
2.11588
2.08923
2.06913
2.03929
1.99927
1.97359
1.94765
1.92843
1.91606
1.9094
1.91757
1.99781
2.14645
2.24108
2.27913
2.27745
2.2679
2.25418
2.23784
2.22191
2.20742
2.1899
2.17119
2.15956
2.15184
2.14642
2.14248
2.13883
2.13471
2.12899
2.12082
2.10905
2.09014
2.06772
2.05197
2.04487
2.03922
2.03342
2.02712
2.02036
2.01285
2.00371
1.99222
1.98035
1.972
1.96544
1.95334
1.93284
1.91227
1.89705
1.88482
1.87361
1.86481
1.85752
1.85028
1.8415
1.82772
1.81096
1.80803
1.8087
1.81489
1.83216
1.8583
1.89348
1.92958
1.95149
1.97112
1.98637
1.98587
1.979
1.96266
1.93913
1.91541
1.89441
1.88029
1.87425
1.87213
1.87152
1.87024
2.50001
2.45552
2.41106
2.36801
2.32348
2.27861
2.24422
2.21758
2.18652
2.15014
2.11854
2.09524
2.07098
2.03748
2.00196
1.97018
1.94649
1.92745
1.90746
1.89918
1.90196
1.96384
2.09879
2.20476
2.24601
2.24562
2.23239
2.21522
2.19922
2.18579
2.17105
2.15326
2.14081
2.1335
2.12879
2.12554
2.12055
2.11442
2.10675
2.09591
2.07802
2.05871
2.04338
2.03497
2.02728
2.01958
2.01251
2.00618
2.00001
1.99325
1.98591
1.97744
1.96588
1.95121
1.93423
1.91761
1.89907
1.88121
1.86804
1.85818
1.85085
1.84465
1.83907
1.83414
1.82897
1.82212
1.81906
1.82285
1.83758
1.86955
1.90679
1.94609
1.97024
1.97974
1.98909
1.9908
1.9883
1.98017
1.96645
1.94527
1.91743
1.89325
1.87913
1.86956
1.86532
1.86268
1.86132
1.85771
2.53316
2.48544
2.43802
2.39377
2.34871
2.30624
2.26988
2.24264
2.21636
2.18344
2.15023
2.12274
2.09881
2.07154
2.03676
2.00043
1.96904
1.94866
1.9243
1.90277
1.88781
1.89049
1.93971
2.06384
2.17579
2.20681
2.20369
2.19331
2.1827
2.16988
2.15474
2.13604
2.12127
2.11365
2.10871
2.10502
2.09862
2.09066
2.08085
2.06347
2.0426
2.02795
2.02226
2.01604
2.00803
1.99953
1.99079
1.98307
1.97694
1.9715
1.96645
1.95946
1.9476
1.92882
1.90352
1.88032
1.86391
1.85149
1.8426
1.83701
1.83342
1.82961
1.82838
1.83064
1.83643
1.84819
1.86766
1.8931
1.9274
1.95216
1.97103
1.98624
1.99787
1.99663
1.99272
1.98617
1.97651
1.96527
1.95128
1.93165
1.90862
1.88762
1.87121
1.86088
1.85678
1.85324
1.851
1.84649
2.58674
2.53186
2.48123
2.43505
2.38903
2.34689
2.31043
2.28108
2.2542
2.22027
2.18453
2.15365
2.12696
2.10144
2.07164
2.03505
1.99776
1.97172
1.95017
1.92479
1.90267
1.88596
1.88911
1.92888
2.03638
2.14005
2.16738
2.17503
2.16913
2.15809
2.14269
2.12408
2.10771
2.09812
2.09248
2.08678
2.07784
2.0667
2.0498
2.02833
2.01121
2.00569
2.00058
1.99364
1.98508
1.9758
1.96756
1.96059
1.95364
1.94578
1.93622
1.9268
1.91755
1.90062
1.87382
1.84897
1.83412
1.82646
1.82261
1.82132
1.8226
1.82675
1.8368
1.85787
1.89428
1.93513
1.96404
1.97838
1.98173
1.98678
1.99414
1.99192
1.98316
1.97551
1.9691
1.96834
1.96161
1.95189
1.94171
1.92633
1.90232
1.876
1.85889
1.8511
1.84713
1.84332
1.8405
1.83758
2.65495
2.59701
2.54255
2.49199
2.44613
2.40381
2.36451
2.33066
2.30298
2.27303
2.23715
2.20244
2.17025
2.14033
2.11263
2.07707
2.03793
2.00516
1.98526
1.96448
1.94041
1.91646
1.89723
1.89843
1.92574
2.00874
2.10224
2.15035
2.15026
2.14194
2.12896
2.1157
2.10387
2.09269
2.08197
2.06993
2.05622
2.04007
2.01998
2.00004
1.99398
1.99034
1.98429
1.97598
1.96542
1.95519
1.94726
1.9396
1.93106
1.92055
1.90969
1.89827
1.88222
1.86172
1.84022
1.82394
1.81826
1.81582
1.81655
1.82094
1.83316
1.85864
1.89889
1.94912
1.99234
2.01144
2.00634
1.9959
1.99243
1.98949
1.97972
1.9677
1.95514
1.94679
1.94477
1.94985
1.9487
1.9395
1.92899
1.91192
1.8853
1.86132
1.84753
1.84252
1.83866
1.83516
1.83359
1.83285
2.71246
2.66294
2.61345
2.56421
2.51677
2.47333
2.43367
2.39563
2.36183
2.32785
2.28997
2.25562
2.22412
2.19016
2.15789
2.13129
2.09549
2.05751
2.02722
2.00639
1.98693
1.96364
1.93907
1.92133
1.91455
1.92728
1.98839
2.07658
2.13551
2.1348
2.12944
2.11868
2.10935
2.09653
2.08318
2.06857
2.04974
2.0259
2.00348
1.98857
1.97706
1.96763
1.95832
1.94822
1.93762
1.92826
1.91955
1.91027
1.9012
1.8935
1.88524
1.87122
1.84936
1.82813
1.8141
1.81458
1.81838
1.82615
1.84287
1.87105
1.90849
1.94917
1.99187
2.0231
2.02772
2.01888
2.00047
1.98633
1.97499
1.96353
1.94897
1.93658
1.93067
1.92793
1.93268
1.94007
1.93764
1.92906
1.91675
1.89523
1.86897
1.85156
1.84226
1.838
1.83396
1.83083
1.83014
1.82601
2.74362
2.70824
2.66991
2.62978
2.58934
2.54919
2.50783
2.46715
2.43031
2.39452
2.35566
2.31739
2.28315
2.24935
2.21362
2.1803
2.15522
2.12835
2.09952
2.07
2.0467
2.02952
2.00837
1.98009
1.95132
1.93305
1.93777
1.97559
2.05384
2.11834
2.14067
2.13394
2.12395
2.10894
2.08993
2.07091
2.05028
2.02757
2.00655
1.9874
1.97113
1.95806
1.94528
1.9321
1.92231
1.91346
1.90372
1.89351
1.88293
1.87262
1.86298
1.85118
1.83316
1.81802
1.81889
1.82803
1.84954
1.88114
1.92124
1.95385
1.98154
2.01043
2.02658
2.02592
2.01803
2.00088
1.97939
1.96185
1.94924
1.93732
1.92691
1.92142
1.91881
1.92274
1.93343
1.93284
1.92501
1.91457
1.901
1.88467
1.86845
1.85286
1.83955
1.83296
1.82941
1.82606
1.82324
1.81659
2.75524
2.73092
2.70347
2.67283
2.64055
2.60632
2.57054
2.5362
2.50284
2.46628
2.4249
2.38349
2.3458
2.31099
2.2738
2.23876
2.21174
2.18681
2.1602
2.1347
2.10922
2.08354
2.05693
2.02984
2.00151
1.97458
1.9553
1.94508
1.9667
2.0304
2.10892
2.15251
2.14627
2.13489
2.11547
2.09058
2.06731
2.04649
2.02488
2.0009
1.97708
1.9553
1.93799
1.92564
1.91501
1.90468
1.89371
1.88293
1.873
1.86519
1.85745
1.84919
1.84453
1.85108
1.87248
1.90348
1.9368
1.96356
1.98467
1.99842
2.01103
2.0192
2.01916
2.0135
2.00036
1.98269
1.96325
1.94556
1.93427
1.9288
1.9252
1.92241
1.92395
1.9292
1.92546
1.91803
1.91014
1.90142
1.89088
1.88241
1.87392
1.85804
1.83718
1.82795
1.82419
1.82108
1.81933
1.81141
2.7554
2.73727
2.71663
2.69302
2.66698
2.64032
2.61646
2.5912
2.56177
2.52689
2.4877
2.4475
2.40798
2.36836
2.33119
2.29921
2.27152
2.24846
2.22292
2.196
2.1697
2.14279
2.11536
2.08697
2.05721
2.0264
1.9942
1.96172
1.95117
1.96498
2.01879
2.10681
2.15498
2.15653
2.14924
2.129
2.10259
2.07724
2.05258
2.02464
1.99261
1.96431
1.9428
1.92648
1.91281
1.9009
1.89241
1.88696
1.88065
1.87575
1.87786
1.89049
1.91282
1.94193
1.96919
1.98948
1.9997
2.01154
2.01999
2.01845
2.01775
2.019
2.01353
2.00274
1.9899
1.97751
1.96626
1.9535
1.94407
1.93943
1.93616
1.93401
1.93123
1.9259
1.91968
1.91316
1.90609
1.899
1.89408
1.88996
1.88242
1.86303
1.8396
1.83037
1.82689
1.82354
1.81849
1.80846
2.74762
2.73192
2.71498
2.69856
2.6837
2.67076
2.65343
2.62836
2.59678
2.56223
2.52374
2.48424
2.4472
2.41234
2.37996
2.35011
2.32303
2.29985
2.27634
2.24937
2.223
2.19657
2.16931
2.14019
2.10939
2.07585
2.03665
1.99867
1.97374
1.96434
1.97294
2.01639
2.09587
2.147
2.17149
2.16801
2.15153
2.12564
2.09481
2.05759
2.0175
1.98614
1.96081
1.93987
1.92366
1.91032
1.90999
1.90857
1.92056
1.94719
1.98055
2.00895
2.02929
2.04202
2.04242
2.0434
2.04419
2.04963
2.04952
2.04184
2.03003
2.02017
2.01403
2.00874
2.005
2.00043
1.99417
1.98553
1.97343
1.96286
1.95444
1.94544
1.93578
1.92784
1.92311
1.92012
1.916
1.91142
1.90683
1.89994
1.88893
1.87348
1.85736
1.84545
1.83639
1.82838
1.82122
1.80979
2.73508
2.72202
2.71144
2.70331
2.69615
2.68819
2.66994
2.64239
2.61126
2.57549
2.53747
2.5017
2.46961
2.43935
2.40987
2.38211
2.35735
2.33761
2.31891
2.29382
2.26835
2.24261
2.21583
2.18716
2.15456
2.1153
2.06996
2.0312
2.00804
1.98993
1.97951
1.98146
2.00947
2.0803
2.14147
2.18947
2.18917
2.17281
2.14239
2.0985
2.0512
2.01831
1.99413
1.97157
1.95876
1.95321
1.96182
1.99535
2.04122
2.08503
2.11773
2.1265
2.12649
2.12087
2.10566
2.09797
2.09495
2.09042
2.07965
2.06497
2.05146
2.04198
2.03963
2.04068
2.03805
2.03573
2.03368
2.02463
2.00421
1.98626
1.97415
1.963
1.95174
1.94445
1.94031
1.93741
1.93448
1.92976
1.92401
1.91685
1.90742
1.89712
1.88596
1.86875
1.85193
1.83854
1.82968
1.82033
2.72393
2.71311
2.70694
2.70445
2.70442
2.69715
2.67452
2.64758
2.61556
2.57789
2.54141
2.50911
2.47928
2.45019
2.42252
2.39814
2.3774
2.36291
2.3476
2.32432
2.30018
2.27519
2.24819
2.21751
2.18123
2.13848
2.09448
2.05977
2.03792
2.02001
2.00379
1.99194
1.98665
2.00595
2.06155
2.1363
2.19671
2.19522
2.1759
2.1362
2.08587
2.05547
2.03845
2.02125
2.02891
2.06197
2.11097
2.15737
2.19232
2.21742
2.23033
2.22854
2.21932
2.19761
2.16846
2.14808
2.13677
2.12682
2.11551
2.10319
2.09299
2.08902
2.09206
2.09465
2.08859
2.08231
2.07573
2.06315
2.03965
2.0159
2.00006
1.98758
1.97806
1.97219
1.96787
1.96571
1.96245
1.95613
1.94939
1.9428
1.93701
1.92856
1.91067
1.88677
1.86726
1.85525
1.8482
1.84058
2.71622
2.70642
2.70239
2.70285
2.70491
2.69551
2.67258
2.64614
2.61491
2.57987
2.54421
2.51137
2.48066
2.45105
2.42506
2.40284
2.38589
2.3763
2.36303
2.34097
2.31811
2.29369
2.26621
2.23373
2.19577
2.15397
2.11286
2.08078
2.05829
2.04084
2.025
2.00965
1.99559
1.98737
1.99448
2.03539
2.11567
2.18113
2.17925
2.1586
2.12486
2.10161
2.1053
2.13873
2.18589
2.23269
2.26826
2.29047
2.31142
2.3227
2.32113
2.30741
2.28443
2.2516
2.21877
2.19749
2.18493
2.17283
2.16013
2.14857
2.1413
2.14068
2.14529
2.14674
2.13612
2.1247
2.11386
2.0977
2.07108
2.04481
2.02911
2.0176
2.00798
1.99974
1.99362
1.99206
1.99166
1.98559
1.97831
1.97066
1.9613
1.94838
1.92628
1.90028
1.8865
1.87752
1.87172
1.86374
2.71128
2.70141
2.6986
2.70041
2.7019
2.69023
2.66696
2.64127
2.61317
2.58181
2.54741
2.51228
2.47893
2.4488
2.42342
2.40132
2.38662
2.38262
2.37111
2.34987
2.32788
2.30359
2.27534
2.24205
2.204
2.16331
2.12334
2.09074
2.06864
2.05122
2.03569
2.02069
2.0057
1.99164
1.98278
1.97938
2.00919
2.07551
2.12402
2.15217
2.17961
2.2112
2.25702
2.29224
2.32018
2.34423
2.3544
2.36128
2.36986
2.37217
2.36557
2.34809
2.32589
2.29581
2.26403
2.24295
2.22793
2.21305
2.19964
2.18835
2.18034
2.17972
2.18447
2.18347
2.16775
2.15232
2.13674
2.1146
2.08341
2.05915
2.04618
2.03548
2.0253
2.0162
2.01081
2.01235
2.01311
2.00547
1.99627
1.98709
1.97553
1.95763
1.93118
1.91124
1.90206
1.89519
1.89003
1.88333
2.70884
2.70093
2.69857
2.70025
2.70169
2.69027
2.66753
2.64239
2.61478
2.58367
2.54861
2.51171
2.47619
2.44634
2.42171
2.39966
2.3861
2.38589
2.37561
2.3547
2.33304
2.30823
2.27842
2.24506
2.20988
2.17032
2.12665
2.09244
2.0714
2.05467
2.03911
2.02439
2.00958
1.9948
1.98046
1.96945
1.96266
1.98061
2.02999
2.11624
2.21881
2.30324
2.3646
2.40212
2.43598
2.43369
2.41696
2.39998
2.39771
2.39738
2.38392
2.36708
2.34492
2.31235
2.27813
2.25644
2.24016
2.22558
2.21416
2.2045
2.1974
2.1967
2.2005
2.19635
2.17822
2.16058
2.14171
2.11481
2.08254
2.0629
2.05143
2.04105
2.03084
2.02176
2.0172
2.02088
2.02105
2.01192
2.00233
1.99301
1.97989
1.95608
1.92803
1.91623
1.90992
1.90396
1.90116
1.89304
)
;

boundaryField
{
    inlet
    {
        type            fixedValue;
        value           uniform 1;
    }
    outlet
    {
        type            inletOutlet;
        inletValue      uniform 1;
        value           nonuniform List<scalar> 
24
(
1.9543
1.97078
2.02961
2.0793
2.06787
2.01843
1.96003
1.91415
1.88683
1.87285
1.85963
1.84851
1.84054
1.83562
1.82692
1.81743
1.81186
1.80854
1.80978
1.8208
1.84134
1.86465
1.88512
1.8938
)
;
    }
    bottom
    {
        type            zeroGradient;
    }
    top
    {
        type            zeroGradient;
    }
    obstacle
    {
        type            zeroGradient;
    }
    defaultFaces
    {
        type            empty;
    }
}


// ************************************************************************* //
