/*--------------------------------*- C++ -*----------------------------------*\
  =========                 |
  \\      /  F ield         | OpenFOAM: The Open Source CFD Toolbox
   \\    /   O peration     | Website:  https://openfoam.org
    \\  /    A nd           | Version:  7
     \\/     M anipulation  |
\*---------------------------------------------------------------------------*/
FoamFile
{
    version     2.0;
    format      ascii;
    class       volVectorField;
    location    "2.3";
    object      U;
}
// * * * * * * * * * * * * * * * * * * * * * * * * * * * * * * * * * * * * * //

dimensions      [0 1 -1 0 0 0 0];

internalField   nonuniform List<vector> 
3328
(
(3 1.68108e-17 0)
(3 1.90673e-16 0)
(3 -1.00642e-16 0)
(3 -3.99901e-17 0)
(3 -9.69373e-17 0)
(3 -6.56986e-16 0)
(3 -6.46746e-16 0)
(3 -5.10599e-17 0)
(3 -3.11978e-16 0)
(3 -5.82662e-17 0)
(1.53785 0.0121902 0)
(0.743713 0.0128946 0)
(0.672385 0.0212306 0)
(0.624796 0.0221014 0)
(0.575944 0.0219641 0)
(0.528292 0.0227472 0)
(0.475676 0.0243417 0)
(0.416544 0.0261421 0)
(0.352604 0.02662 0)
(0.287982 0.0253058 0)
(0.225524 0.0235385 0)
(0.163778 0.0233299 0)
(0.100921 0.0239042 0)
(0.0377483 0.0269407 0)
(3 -9.93492e-17 0)
(3 1.82111e-17 0)
(3 -3.21457e-16 0)
(3 -4.66162e-16 0)
(3 -2.64931e-16 0)
(3 -5.57293e-16 0)
(3 -3.82898e-16 0)
(3 2.72973e-17 0)
(3 -9.1592e-17 0)
(3 -8.43309e-16 0)
(1.56136 0.0574571 0)
(0.735964 0.0545135 0)
(0.658272 0.0631069 0)
(0.611233 0.0644456 0)
(0.56285 0.065082 0)
(0.513773 0.0666808 0)
(0.458657 0.0695607 0)
(0.396978 0.0707835 0)
(0.331639 0.0664145 0)
(0.268419 0.0580865 0)
(0.209481 0.0518456 0)
(0.152227 0.0530564 0)
(0.0936987 0.0571836 0)
(0.0353793 0.0675836 0)
(3 -1.43205e-16 0)
(3 -3.19821e-16 0)
(3 -3.33914e-16 0)
(3 -3.53446e-16 0)
(3 -2.48529e-16 0)
(3 1.4253e-16 0)
(3 2.70943e-16 0)
(3 -2.26873e-17 0)
(3 1.70004e-16 0)
(3 -8.08281e-16 0)
(1.64011 0.104306 0)
(0.74623 0.0992269 0)
(0.661913 0.109244 0)
(0.614869 0.110158 0)
(0.564383 0.10996 0)
(0.510622 0.111706 0)
(0.449119 0.114725 0)
(0.380546 0.112404 0)
(0.312387 0.101597 0)
(0.251813 0.0877462 0)
(0.197405 0.0795199 0)
(0.144431 0.0832619 0)
(0.0890163 0.090681 0)
(0.034077 0.107148 0)
(3 7.98372e-17 0)
(3 2.29388e-16 0)
(3 5.84747e-17 0)
(3 4.4944e-18 0)
(3 -1.06338e-16 0)
(3 3.30032e-16 0)
(3 2.04574e-16 0)
(3 -3.58056e-17 0)
(3 1.60829e-17 0)
(3 1.10182e-17 0)
(1.77008 0.146419 0)
(0.767398 0.145086 0)
(0.676371 0.154274 0)
(0.631282 0.153658 0)
(0.577392 0.151657 0)
(0.516438 0.153787 0)
(0.444114 0.154142 0)
(0.367185 0.145934 0)
(0.297891 0.129255 0)
(0.241379 0.113184 0)
(0.192162 0.106233 0)
(0.142655 0.114446 0)
(0.0890209 0.125842 0)
(0.0350494 0.147274 0)
(3 2.20092e-17 0)
(3 2.55047e-17 0)
(3 8.01284e-18 0)
(3 -2.49209e-16 0)
(3 -4.84919e-16 0)
(3 -5.47546e-16 0)
(3 -2.72935e-16 0)
(3 -2.78549e-16 0)
(3 2.29752e-16 0)
(3 1.52483e-16 0)
(1.95413 0.177792 0)
(0.797653 0.189909 0)
(0.692031 0.19882 0)
(0.644813 0.197336 0)
(0.579941 0.193602 0)
(0.50353 0.188718 0)
(0.420059 0.180109 0)
(0.346792 0.168459 0)
(0.292012 0.153929 0)
(0.249671 0.139316 0)
(0.207144 0.132285 0)
(0.159587 0.147555 0)
(0.101541 0.168251 0)
(0.0416318 0.200334 0)
(3 1.96554e-17 0)
(3 -6.35633e-17 0)
(3 -1.35352e-16 0)
(3 -4.68762e-17 0)
(3 -7.25762e-16 0)
(3 -1.06469e-15 0)
(3 -1.42709e-16 0)
(3 3.47637e-16 0)
(3 4.19709e-16 0)
(3 1.41057e-16 0)
(2.18438 0.207695 0)
(0.831239 0.247001 0)
(0.691415 0.24765 0)
(0.644248 0.242133 0)
(0.572069 0.227145 0)
(0.488479 0.206994 0)
(0.411658 0.195923 0)
(0.353662 0.187117 0)
(0.312253 0.173909 0)
(0.277316 0.164286 0)
(0.231732 0.171055 0)
(0.179428 0.199762 0)
(0.1138 0.231807 0)
(0.0409928 0.265865 0)
(3 -2.63881e-17 0)
(3 1.00465e-16 0)
(3 7.51086e-17 0)
(3 1.52837e-16 0)
(3 1.83724e-16 0)
(3 2.74883e-16 0)
(3 2.1255e-16 0)
(3 7.83244e-18 0)
(3 1.42519e-16 0)
(3 1.78418e-16 0)
(2.50007 0.237932 0)
(0.904521 0.322767 0)
(0.711443 0.294316 0)
(0.665064 0.26618 0)
(0.578342 0.236283 0)
(0.49347 0.207772 0)
(0.427486 0.201801 0)
(0.384223 0.199666 0)
(0.352533 0.195633 0)
(0.318987 0.199827 0)
(0.277146 0.213977 0)
(0.228879 0.25288 0)
(0.159568 0.299594 0)
(0.0731379 0.355627 0)
(3 -1.22205e-16 0)
(3 1.65607e-16 0)
(3 2.81728e-16 0)
(3 2.91628e-16 0)
(3 4.72879e-16 0)
(3 4.61427e-16 0)
(3 3.83836e-16 0)
(3 4.51381e-16 0)
(3 4.9218e-16 0)
(3 2.57696e-16 0)
(2.91976 0.146828 0)
(1.04325 0.389652 0)
(0.749152 0.320635 0)
(0.677534 0.26252 0)
(0.576082 0.226534 0)
(0.502013 0.206861 0)
(0.455279 0.211202 0)
(0.423041 0.218349 0)
(0.397328 0.22111 0)
(0.369738 0.234211 0)
(0.33371 0.262725 0)
(0.28403 0.324913 0)
(0.180429 0.406741 0)
(0.115404 0.512376 0)
(3 8.15585e-18 0)
(3 2.57716e-16 0)
(3 1.04076e-15 0)
(3 1.00982e-15 0)
(3 7.9608e-16 0)
(3 6.11071e-16 0)
(3 3.90485e-16 0)
(3 5.74784e-16 0)
(3 4.36505e-16 0)
(3 -1.89234e-16 0)
(3.04238 0.0128077 0)
(1.20525 0.409595 0)
(0.733994 0.34032 0)
(0.647261 0.26436 0)
(0.551373 0.225364 0)
(0.496839 0.214052 0)
(0.471471 0.227344 0)
(0.451113 0.239572 0)
(0.433297 0.250404 0)
(0.414651 0.276594 0)
(0.379963 0.319613 0)
(0.345459 0.402679 0)
(0.293003 0.497869 0)
(0.325398 0.575951 0)
(3 1.39086e-17 0)
(3 -6.10975e-17 0)
(3 1.96555e-16 0)
(3 2.78575e-16 0)
(3 2.62935e-16 0)
(3 1.07336e-16 0)
(3 5.44606e-17 0)
(3 1.38628e-16 0)
(3 4.97036e-16 0)
(3 3.26861e-16 0)
(3.00202 1.18007e-05 0)
(1.34466 0.390859 0)
(0.672803 0.325438 0)
(0.58661 0.257234 0)
(0.526082 0.228675 0)
(0.491422 0.226277 0)
(0.479378 0.2428 0)
(0.47459 0.260406 0)
(0.465294 0.280915 0)
(0.454055 0.315287 0)
(0.424959 0.367106 0)
(0.40967 0.447002 0)
(0.396838 0.501433 0)
(0.415889 0.505393 0)
(3 -1.09428e-16 0)
(3 -5.55937e-16 0)
(3 -1.52236e-15 0)
(3 -1.58767e-15 0)
(3 -1.34754e-15 0)
(3 -1.16338e-15 0)
(3 -2.88844e-17 0)
(3 4.14708e-16 0)
(3 1.29053e-15 0)
(3 1.48614e-15 0)
(3.00001 -4.67756e-07 0)
(1.47636 0.316139 0)
(0.635202 0.257508 0)
(0.552308 0.234895 0)
(0.520088 0.238466 0)
(0.49872 0.242554 0)
(0.496251 0.26128 0)
(0.501886 0.285008 0)
(0.501765 0.310213 0)
(0.49338 0.345446 0)
(0.474338 0.396441 0)
(0.465619 0.467959 0)
(0.472788 0.518315 0)
(0.479299 0.526865 0)
(3 -2.34103e-16 0)
(3 -6.63014e-16 0)
(3 -9.1213e-16 0)
(3 -6.74267e-16 0)
(3 -4.62901e-16 0)
(3 -2.72371e-17 0)
(3 4.78493e-16 0)
(3 7.78026e-16 0)
(3 8.20266e-16 0)
(3 9.01485e-16 0)
(3 -2.8634e-07 0)
(1.56125 0.205126 0)
(0.647991 0.194963 0)
(0.58953 0.23786 0)
(0.562761 0.255553 0)
(0.536508 0.272246 0)
(0.532301 0.293581 0)
(0.538503 0.316116 0)
(0.544335 0.340243 0)
(0.538255 0.369482 0)
(0.526175 0.411839 0)
(0.516276 0.469061 0)
(0.530647 0.516314 0)
(0.538203 0.531845 0)
(3 1.79151e-16 0)
(3 -2.75246e-17 0)
(3 1.90754e-17 0)
(3 7.54692e-17 0)
(3 -6.6701e-17 0)
(3 -9.176e-17 0)
(3 -9.0212e-17 0)
(3 -3.32833e-17 0)
(3 -1.99336e-16 0)
(3 2.68065e-16 0)
(3 -4.56693e-08 0)
(1.53217 0.0633858 0)
(0.627436 0.12141 0)
(0.630953 0.209627 0)
(0.62582 0.277787 0)
(0.605573 0.309597 0)
(0.591825 0.333055 0)
(0.589399 0.350925 0)
(0.595358 0.369233 0)
(0.592351 0.390515 0)
(0.582834 0.421923 0)
(0.571147 0.466265 0)
(0.58052 0.514188 0)
(0.590664 0.54036 0)
(3 9.0207e-17 0)
(3 1.66527e-16 0)
(3 5.85555e-16 0)
(3 4.93338e-16 0)
(3 -1.78863e-16 0)
(3 -3.82402e-16 0)
(3 -7.19015e-16 0)
(3 -9.76779e-16 0)
(3 -1.07128e-15 0)
(3 -4.78106e-16 0)
(3 -3.00116e-09 0)
(1.36248 -0.0134565 0)
(0.57159 0.09415 0)
(0.613727 0.199754 0)
(0.64459 0.302166 0)
(0.647818 0.35138 0)
(0.65366 0.37172 0)
(0.651147 0.383668 0)
(0.655175 0.396054 0)
(0.653622 0.411226 0)
(0.645573 0.433308 0)
(0.632571 0.464879 0)
(0.629807 0.504013 0)
(0.640637 0.536484 0)
(3 1.49677e-17 0)
(3 1.93946e-16 0)
(3 5.48777e-16 0)
(3 7.65797e-16 0)
(3 7.26367e-16 0)
(3 3.85553e-16 0)
(3 -5.57001e-16 0)
(3 -8.94688e-16 0)
(3 -2.21689e-15 0)
(3 -1.75834e-15 0)
(3 -5.19276e-11 0)
(1.26014 0.0166779 0)
(0.554211 0.0769763 0)
(0.580074 0.171342 0)
(0.63884 0.286003 0)
(0.655101 0.35752 0)
(0.676298 0.394635 0)
(0.699389 0.411944 0)
(0.712596 0.418504 0)
(0.714942 0.426372 0)
(0.708347 0.442257 0)
(0.695621 0.465382 0)
(0.684337 0.497371 0)
(0.688658 0.529576 0)
(3 -2.30402e-17 0)
(3 -1.61201e-16 0)
(3 -3.24817e-16 0)
(3 1.14958e-16 0)
(3 3.68377e-16 0)
(3 -2.78464e-17 0)
(3 -2.32101e-16 0)
(3 -9.84541e-16 0)
(3 -1.08026e-15 0)
(3 -1.13333e-15 0)
(3 -2.74102e-13 0)
(1.26634 0.0424501 0)
(0.572443 0.0636934 0)
(0.565666 0.136078 0)
(0.625633 0.227185 0)
(0.65845 0.315283 0)
(0.691103 0.383283 0)
(0.723228 0.420489 0)
(0.751272 0.434835 0)
(0.764185 0.44496 0)
(0.762789 0.455231 0)
(0.752718 0.470349 0)
(0.739294 0.49236 0)
(0.733686 0.519378 0)
(3 -2.99142e-17 0)
(3 2.03235e-16 0)
(3 -6.12141e-17 0)
(3 -4.67597e-16 0)
(3 -2.59397e-16 0)
(3 3.06656e-16 0)
(3 -2.15794e-16 0)
(3 -4.86842e-16 0)
(3 1.06594e-16 0)
(3 8.59763e-17 0)
(3 -1.00164e-15 0)
(1.33732 0.0750341 0)
(0.595892 0.0638351 0)
(0.558785 0.134263 0)
(0.601132 0.181155 0)
(0.625495 0.265855 0)
(0.693571 0.343021 0)
(0.733546 0.411252 0)
(0.769755 0.443827 0)
(0.798896 0.451679 0)
(0.808361 0.463331 0)
(0.803414 0.474518 0)
(0.790444 0.489212 0)
(0.778516 0.511576 0)
(3 -3.83727e-17 0)
(3 2.16096e-16 0)
(3 -2.46235e-16 0)
(3 -7.43007e-16 0)
(3 -4.90833e-16 0)
(3 5.53462e-17 0)
(3 2.54206e-16 0)
(3 3.83688e-16 0)
(3 -1.01871e-16 0)
(3 -2.11951e-16 0)
(3 2.67635e-16 0)
(1.44902 0.101101 0)
(0.621655 0.0839592 0)
(0.553676 0.132541 0)
(0.572447 0.146417 0)
(0.58296 0.210614 0)
(0.658033 0.296154 0)
(0.727445 0.379964 0)
(0.776177 0.438455 0)
(0.818321 0.456482 0)
(0.842677 0.466052 0)
(0.844991 0.477508 0)
(0.835592 0.489071 0)
(0.821836 0.502892 0)
(3 -1.47116e-16 0)
(3 -4.75428e-16 0)
(3 -6.9159e-16 0)
(3 -6.25023e-16 0)
(3 -7.48315e-16 0)
(3 -2.7037e-16 0)
(3 5.9785e-16 0)
(3 1.48013e-15 0)
(3 4.53591e-16 0)
(3 -2.78341e-17 0)
(3 -1.98953e-16 0)
(1.59373 0.126691 0)
(0.64213 0.113738 0)
(0.549541 0.130197 0)
(0.551181 0.135559 0)
(0.551246 0.173421 0)
(0.618348 0.23365 0)
(0.691977 0.326246 0)
(0.769131 0.400968 0)
(0.827647 0.442799 0)
(0.86845 0.461932 0)
(0.879302 0.476467 0)
(0.874446 0.487464 0)
(0.862899 0.498998 0)
(3 1.90397e-16 0)
(3 3.21411e-16 0)
(3 1.91518e-16 0)
(3 -2.56109e-16 0)
(3 -4.37261e-16 0)
(3 -1.99046e-17 0)
(3 9.17875e-16 0)
(3 9.47442e-16 0)
(3 1.05799e-15 0)
(3 9.8411e-16 0)
(3 -3.89872e-16 0)
(1.7587 0.137413 0)
(0.66582 0.147902 0)
(0.552564 0.134192 0)
(0.549847 0.128085 0)
(0.549233 0.145633 0)
(0.589677 0.182542 0)
(0.651898 0.257389 0)
(0.74007 0.336689 0)
(0.820654 0.398632 0)
(0.878514 0.437945 0)
(0.907135 0.464051 0)
(0.90826 0.480445 0)
(0.901099 0.491454 0)
(3 1.45368e-16 0)
(3 8.83526e-16 0)
(3 8.87106e-16 0)
(3 7.29052e-16 0)
(3 4.76091e-16 0)
(3 -7.55651e-17 0)
(3 -2.02517e-16 0)
(3 -3.78433e-16 0)
(3 -1.36876e-16 0)
(3 -1.8222e-16 0)
(3 -7.17455e-16 0)
(1.91735 0.153756 0)
(0.688271 0.184643 0)
(0.559158 0.14324 0)
(0.560991 0.126029 0)
(0.566935 0.128943 0)
(0.578959 0.151736 0)
(0.618983 0.201242 0)
(0.693176 0.268624 0)
(0.783069 0.337571 0)
(0.858721 0.398985 0)
(0.9131 0.436106 0)
(0.934356 0.465088 0)
(0.934192 0.483033 0)
(3 -2.75535e-17 0)
(3 -2.05264e-16 0)
(3 -1.30406e-16 0)
(3 4.61807e-16 0)
(3 2.34091e-16 0)
(3 -2.90909e-16 0)
(3 -6.94098e-16 0)
(3 -3.98143e-16 0)
(3 -3.42154e-16 0)
(3 -9.22692e-16 0)
(3 -7.73367e-16 0)
(2.10087 0.167241 0)
(0.715836 0.211097 0)
(0.572483 0.152773 0)
(0.579693 0.128458 0)
(0.58398 0.123547 0)
(0.588152 0.133983 0)
(0.606736 0.163869 0)
(0.653419 0.210333 0)
(0.729252 0.269845 0)
(0.812677 0.337566 0)
(0.885014 0.396542 0)
(0.934979 0.433327 0)
(0.955347 0.461889 0)
(3 3.44234e-17 0)
(3 -1.95961e-16 0)
(3 -3.46032e-16 0)
(3 -7.17285e-16 0)
(3 -8.47447e-16 0)
(3 -8.13599e-16 0)
(3 -6.57971e-16 0)
(3 -5.70989e-16 0)
(3 -5.68092e-16 0)
(3 -6.60574e-16 0)
(3 -7.79655e-16 0)
(2.31634 0.159496 0)
(0.75261 0.217956 0)
(0.583908 0.155552 0)
(0.597103 0.131678 0)
(0.595747 0.130843 0)
(0.600195 0.133619 0)
(0.612738 0.14557 0)
(0.63481 0.174746 0)
(0.687213 0.211753 0)
(0.754354 0.26946 0)
(0.834621 0.329884 0)
(0.901788 0.384624 0)
(0.951712 0.419894 0)
(3 3.13731e-17 0)
(3 -2.81187e-17 0)
(3 2.2077e-16 0)
(3 1.50743e-16 0)
(3 1.21075e-16 0)
(3 -1.38549e-17 0)
(3 -6.27452e-16 0)
(3 -9.91668e-16 0)
(3 -5.63491e-16 0)
(3 5.77628e-17 0)
(3 -4.33146e-16 0)
(2.5255 0.13199 0)
(0.790924 0.209694 0)
(0.590193 0.150011 0)
(0.60624 0.137621 0)
(0.611519 0.136682 0)
(0.615301 0.140948 0)
(0.626176 0.142882 0)
(0.641441 0.154142 0)
(0.668001 0.175989 0)
(0.709801 0.212489 0)
(0.774845 0.25859 0)
(0.845085 0.313697 0)
(0.912414 0.362151 0)
(3 -1.97599e-16 0)
(3 -2.17441e-16 0)
(3 6.11286e-16 0)
(3 6.20287e-16 0)
(3 2.15358e-16 0)
(3 9.41688e-17 0)
(3 -1.39383e-16 0)
(3 -6.9944e-17 0)
(3 1.09986e-16 0)
(3 5.27393e-16 0)
(3 3.44603e-16 0)
(2.70449 0.093714 0)
(0.834345 0.190272 0)
(0.595837 0.145917 0)
(0.614335 0.141218 0)
(0.627886 0.14567 0)
(0.635918 0.149734 0)
(0.644328 0.149352 0)
(0.65602 0.149052 0)
(0.670287 0.15651 0)
(0.691101 0.173955 0)
(0.728546 0.199846 0)
(0.783353 0.240034 0)
(0.850709 0.288568 0)
(3 2.27485e-18 0)
(3 1.12961e-16 0)
(3 3.87597e-17 0)
(3 -1.0167e-16 0)
(3 -2.2113e-16 0)
(3 -6.56205e-16 0)
(3 -3.72316e-16 0)
(3 -3.84417e-16 0)
(3 -3.34162e-16 0)
(3 2.19324e-16 0)
(3 8.67189e-17 0)
(2.83487 0.0577591 0)
(0.890248 0.169451 0)
(0.608704 0.144069 0)
(0.625384 0.147643 0)
(0.644014 0.154618 0)
(0.65578 0.15605 0)
(0.663463 0.15307 0)
(0.671731 0.148197 0)
(0.67917 0.147939 0)
(0.690561 0.151533 0)
(0.708388 0.162553 0)
(0.739923 0.184952 0)
(0.793207 0.216727 0)
(3 2.65276e-16 0)
(3 2.81867e-16 0)
(3 -3.52757e-16 0)
(3 -2.12824e-16 0)
(3 -3.65652e-16 0)
(3 -1.04742e-16 0)
(3 -5.07978e-16 0)
(3 -6.02784e-16 0)
(3 -4.31186e-16 0)
(3 6.26084e-17 0)
(3 9.17937e-17 0)
(2.92052 0.0265784 0)
(0.956956 0.158786 0)
(0.626112 0.143939 0)
(0.636929 0.150413 0)
(0.656583 0.157439 0)
(0.670034 0.158891 0)
(0.679201 0.155364 0)
(0.685734 0.148342 0)
(0.690565 0.143758 0)
(0.698189 0.141126 0)
(0.710035 0.142398 0)
(0.72721 0.151305 0)
(0.756888 0.171105 0)
(3 6.26617e-18 0)
(3 1.72691e-17 0)
(3 1.63976e-16 0)
(3 1.2658e-16 0)
(3 1.87733e-16 0)
(3 1.81766e-16 0)
(3 -3.35614e-16 0)
(3 -1.35026e-16 0)
(3 4.1635e-16 0)
(3 3.20047e-16 0)
(3 -3.45707e-16 0)
(2.9861 0.00363408 0)
(1.02726 0.153971 0)
(0.638634 0.140175 0)
(0.644284 0.145492 0)
(0.664383 0.153186 0)
(0.677991 0.154246 0)
(0.689385 0.150852 0)
(0.69695 0.145588 0)
(0.703651 0.13968 0)
(0.709822 0.136462 0)
(0.718871 0.132921 0)
(0.73162 0.132391 0)
(0.750479 0.139328 0)
(3 -2.51173e-16 0)
(3 -3.33797e-17 0)
(3 4.23762e-16 0)
(3 2.7099e-16 0)
(3 3.09421e-16 0)
(3 -3.17655e-17 0)
(3 -4.15622e-16 0)
(3 -8.12109e-17 0)
(3 -1.95238e-17 0)
(3 -1.35998e-16 0)
(3 -5.96064e-16 0)
(2.99999 1.69183e-05 0)
(1.09942 0.149077 0)
(0.645873 0.133873 0)
(0.647669 0.138713 0)
(0.668333 0.147221 0)
(0.681102 0.146849 0)
(0.694064 0.143165 0)
(0.704898 0.138191 0)
(0.715136 0.133942 0)
(0.722129 0.129826 0)
(0.729873 0.125538 0)
(0.74151 0.122315 0)
(0.757353 0.121488 0)
(3 1.78013e-18 0)
(3 2.05744e-16 0)
(3 3.17678e-16 0)
(3 6.3346e-16 0)
(3 -3.48922e-17 0)
(3 -3.84594e-17 0)
(3 4.59798e-16 0)
(3 4.75411e-16 0)
(3 9.91379e-17 0)
(3 3.51341e-16 0)
(3 -7.37926e-17 0)
(3 6.88928e-11 0)
(1.18064 0.142433 0)
(0.650784 0.127265 0)
(0.647748 0.133129 0)
(0.669969 0.140686 0)
(0.681281 0.137508 0)
(0.696059 0.13246 0)
(0.710123 0.127998 0)
(0.722051 0.123944 0)
(0.730586 0.1203 0)
(0.74001 0.116421 0)
(0.752973 0.113192 0)
(0.768987 0.112042 0)
(3 1.9512e-16 0)
(3 7.10487e-17 0)
(3 -2.13039e-16 0)
(3 -1.23255e-16 0)
(3 1.21227e-16 0)
(3 2.46691e-16 0)
(3 8.48067e-16 0)
(3 8.52264e-16 0)
(3 7.4408e-16 0)
(3 5.91624e-16 0)
(3 7.15228e-16 0)
(3 1.10698e-16 0)
(1.26515 0.135008 0)
(0.656918 0.122346 0)
(0.64613 0.129244 0)
(0.667899 0.13203 0)
(0.679666 0.12603 0)
(0.695516 0.120245 0)
(0.710366 0.115944 0)
(0.723491 0.112494 0)
(0.735247 0.108839 0)
(0.748155 0.105494 0)
(0.763925 0.102848 0)
(0.783766 0.102991 0)
(3 1.03987e-17 0)
(3 -1.34299e-16 0)
(3 -6.3682e-16 0)
(3 -5.53704e-16 0)
(3 -2.28267e-16 0)
(3 1.09888e-16 0)
(3 1.25532e-16 0)
(3 -2.26061e-17 0)
(3 -2.69956e-16 0)
(3 -4.75683e-16 0)
(3 1.92736e-17 0)
(3 -1.74912e-16 0)
(1.35027 0.124537 0)
(0.665249 0.117032 0)
(0.642144 0.121636 0)
(0.664985 0.12107 0)
(0.677726 0.114211 0)
(0.692896 0.107755 0)
(0.706878 0.103268 0)
(0.720593 0.0997961 0)
(0.735197 0.0959624 0)
(0.752592 0.0930304 0)
(0.77426 0.0924909 0)
(0.800123 0.0955777 0)
(3 -1.52914e-16 0)
(3 -1.40098e-16 0)
(3 3.82211e-18 0)
(3 2.34252e-16 0)
(3 -1.89652e-17 0)
(3 -2.04201e-16 0)
(3 -3.26404e-16 0)
(3 -6.30903e-16 0)
(3 -3.87781e-16 0)
(3 -3.26065e-16 0)
(3 -1.2847e-17 0)
(3 1.36337e-16 0)
(1.43242 0.110049 0)
(0.672961 0.108541 0)
(0.638514 0.109564 0)
(0.662405 0.1089 0)
(0.674776 0.102613 0)
(0.688585 0.0953121 0)
(0.701833 0.0902255 0)
(0.716018 0.0867675 0)
(0.732901 0.0828583 0)
(0.754913 0.0814132 0)
(0.783112 0.084001 0)
(0.814895 0.0901385 0)
(3 5.70053e-17 0)
(3 3.58262e-16 0)
(3 2.98213e-16 0)
(3 2.57049e-16 0)
(3 -1.92248e-16 0)
(3 -2.14661e-16 0)
(3 -1.69507e-16 0)
(3 3.17322e-16 0)
(3 5.70776e-16 0)
(3 6.97444e-16 0)
(3 7.52429e-16 0)
(3 4.67552e-16 0)
(1.50781 0.0923076 0)
(0.680537 0.0960462 0)
(0.635978 0.0966484 0)
(0.660123 0.0961728 0)
(0.671224 0.0898048 0)
(0.683771 0.081439 0)
(0.696747 0.0770008 0)
(0.71158 0.0737439 0)
(0.730888 0.0705033 0)
(0.757435 0.0703877 0)
(0.790213 0.0748988 0)
(0.825566 0.0821859 0)
(3 3.57544e-18 0)
(3 2.5506e-16 0)
(3 5.6907e-17 0)
(3 -9.555e-18 0)
(3 7.59538e-18 0)
(3 3.31003e-16 0)
(3 3.62855e-16 0)
(3 2.05032e-16 0)
(3 4.24932e-17 0)
(3 2.63788e-16 0)
(3 6.79825e-16 0)
(3 8.00441e-16 0)
(1.5716 0.0749219 0)
(0.688184 0.0821243 0)
(0.634228 0.0813482 0)
(0.657901 0.080208 0)
(0.667361 0.0742296 0)
(0.679106 0.0663944 0)
(0.692314 0.0632793 0)
(0.708522 0.0604741 0)
(0.73116 0.0585956 0)
(0.761456 0.0598677 0)
(0.796445 0.0652178 0)
(0.832706 0.0722483 0)
(3 -1.43336e-17 0)
(3 -8.21767e-17 0)
(3 7.03163e-17 0)
(3 -1.17587e-16 0)
(3 -8.81268e-17 0)
(3 -3.87292e-17 0)
(3 -1.72735e-16 0)
(3 -2.60095e-16 0)
(3 -6.84095e-17 0)
(3 6.17816e-17 0)
(3 6.90267e-16 0)
(3 1.45722e-15 0)
(1.62328 0.0608143 0)
(0.694075 0.0687831 0)
(0.631889 0.064343 0)
(0.654982 0.0625181 0)
(0.663366 0.0570352 0)
(0.67489 0.0508462 0)
(0.68853 0.0486109 0)
(0.707159 0.0470417 0)
(0.7339 0.0462876 0)
(0.766614 0.0489187 0)
(0.802799 0.0543579 0)
(0.838968 0.0610677 0)
(3 -2.09068e-17 0)
(3 -4.68404e-16 0)
(3 -1.85918e-16 0)
(3 -6.48495e-17 0)
(3 1.78528e-17 0)
(3 -1.65409e-16 0)
(3 -1.21223e-16 0)
(3 8.07036e-16 0)
(3 8.43712e-16 0)
(3 3.50471e-16 0)
(3 9.26958e-16 0)
(3 5.5245e-16 0)
(1.66633 0.0499105 0)
(0.697531 0.0563921 0)
(0.628874 0.0478869 0)
(0.651683 0.0454431 0)
(0.659588 0.0399627 0)
(0.67126 0.035337 0)
(0.685955 0.0339574 0)
(0.707572 0.0326883 0)
(0.737625 0.0334344 0)
(0.772373 0.0369438 0)
(0.809759 0.0425622 0)
(0.846029 0.0494364 0)
(3 -2.13059e-16 0)
(3 -1.38129e-16 0)
(3 -5.61495e-17 0)
(3 1.47879e-16 0)
(3 -2.75276e-16 0)
(3 -5.13347e-16 0)
(3 4.29641e-16 0)
(3 8.10721e-16 0)
(3 3.56621e-16 0)
(3 -3.50529e-18 0)
(3 2.06309e-16 0)
(3 -3.15217e-16 0)
(1.70432 0.0396525 0)
(0.699603 0.0432323 0)
(0.62661 0.0336292 0)
(0.64892 0.0309428 0)
(0.656865 0.0257085 0)
(0.669298 0.0218791 0)
(0.685773 0.0202494 0)
(0.710173 0.0200039 0)
(0.742595 0.0220659 0)
(0.779026 0.0259353 0)
(0.817351 0.0311653 0)
(0.853963 0.0376018 0)
(3 -1.56534e-17 0)
(3 2.47546e-16 0)
(3 1.67581e-16 0)
(3 2.84481e-16 0)
(3 2.47889e-16 0)
(3 1.73007e-16 0)
(3 4.79158e-16 0)
(3 5.9308e-16 0)
(3 9.341e-18 0)
(3 -6.99026e-16 0)
(3 -1.16734e-15 0)
(3 -6.40735e-16 0)
(1.73712 0.0258852 0)
(0.702116 0.0277092 0)
(0.625428 0.0195264 0)
(0.64687 0.0171054 0)
(0.655043 0.0131369 0)
(0.666939 0.0107564 0)
(0.683729 0.00981265 0)
(0.709919 0.00964842 0)
(0.74428 0.0111774 0)
(0.782286 0.0141508 0)
(0.8221 0.0183988 0)
(0.860021 0.0238501 0)
(3 1.34814e-16 0)
(3 2.83933e-17 0)
(3 1.36815e-16 0)
(3 3.05615e-16 0)
(3 7.26302e-16 0)
(3 9.01334e-16 0)
(3 5.92057e-16 0)
(3 5.17685e-16 0)
(3 4.74018e-17 0)
(3 -6.36256e-16 0)
(3 -1.23835e-15 0)
(3 -1.02518e-15 0)
(1.75065 0.00600638 0)
(0.698556 0.00765224 0)
(0.620014 0.00698293 0)
(0.640523 0.00657682 0)
(0.649532 0.00529471 0)
(0.662633 0.00479645 0)
(0.682365 0.00467789 0)
(0.711612 0.00496634 0)
(0.747621 0.00544074 0)
(0.786228 0.0061537 0)
(0.826075 0.0072565 0)
(0.863526 0.00868787 0)
(0.326873 0.37103 0)
(0.0112575 0.189213 0)
(-0.0661114 0.0562832 0)
(-0.100291 0.0172644 0)
(-0.137264 0.0122782 0)
(-0.144096 -0.0082291 0)
(-0.116533 -0.0321344 0)
(-0.0539488 -0.0571551 0)
(0.408749 0.349755 0)
(0.209727 0.223498 0)
(0.0915795 0.107122 0)
(-0.0292348 0.079284 0)
(-0.111132 0.0560741 0)
(-0.125593 -0.0017476 0)
(-0.0890209 -0.0740539 0)
(-0.0416008 -0.135187 0)
(0.45155 0.463304 0)
(0.314907 0.415229 0)
(0.18945 0.306385 0)
(0.053223 0.212181 0)
(-0.0445849 0.0998271 0)
(-0.0732455 -0.0201399 0)
(-0.0675131 -0.118183 0)
(-0.0297311 -0.183369 0)
(0.523275 0.517963 0)
(0.459423 0.492087 0)
(0.372805 0.404635 0)
(0.254259 0.285931 0)
(0.0957272 0.191171 0)
(0.0297504 0.0295279 0)
(-0.021158 -0.117171 0)
(-0.00514374 -0.199929 0)
(0.589684 0.545901 0)
(0.569076 0.549108 0)
(0.53038 0.509172 0)
(0.441593 0.426876 0)
(0.293281 0.304649 0)
(0.202639 0.105923 0)
(0.067136 -0.0512088 0)
(0.0405105 -0.170599 0)
(0.648492 0.556422 0)
(0.652455 0.56013 0)
(0.649392 0.546492 0)
(0.611305 0.496821 0)
(0.507878 0.414224 0)
(0.38771 0.258921 0)
(0.202939 0.0954737 0)
(0.111663 -0.0705543 0)
(0.698418 0.556037 0)
(0.712525 0.567565 0)
(0.72513 0.562352 0)
(0.717297 0.548137 0)
(0.672223 0.50058 0)
(0.580157 0.390861 0)
(0.404194 0.253222 0)
(0.221294 0.130332 0)
(0.741241 0.544324 0)
(0.757355 0.562737 0)
(0.77492 0.564431 0)
(0.785327 0.557409 0)
(0.771359 0.548978 0)
(0.70866 0.518598 0)
(0.537134 0.4701 0)
(0.277968 0.534594 0)
(0.779453 0.53279 0)
(0.792152 0.549751 0)
(0.810678 0.560603 0)
(0.828186 0.569816 0)
(0.835532 0.580287 0)
(0.818429 0.594315 0)
(0.768731 0.665051 0)
(0.82487 0.844859 0)
(0.815758 0.52173 0)
(0.823759 0.536356 0)
(0.839747 0.550882 0)
(0.862918 0.567246 0)
(0.892457 0.590815 0)
(0.917346 0.6425 0)
(0.973347 0.724989 0)
(1.18053 0.805514 0)
(0.853697 0.512729 0)
(0.857737 0.526977 0)
(0.87277 0.541374 0)
(0.898617 0.563221 0)
(0.940415 0.592872 0)
(0.996162 0.644973 0)
(1.10755 0.710172 0)
(1.33837 0.751139 0)
(0.893056 0.504104 0)
(0.895673 0.51899 0)
(0.910558 0.533729 0)
(0.938212 0.553377 0)
(0.984442 0.580659 0)
(1.05478 0.623397 0)
(1.18124 0.670213 0)
(1.38615 0.684866 0)
(0.931942 0.496004 0)
(0.936609 0.509478 0)
(0.952242 0.524576 0)
(0.98182 0.541134 0)
(1.02884 0.56386 0)
(1.10087 0.592735 0)
(1.22085 0.623464 0)
(1.39009 0.625097 0)
(0.96558 0.481761 0)
(0.976228 0.497499 0)
(0.995427 0.513634 0)
(1.02714 0.528926 0)
(1.07357 0.545588 0)
(1.1427 0.566494 0)
(1.24741 0.580142 0)
(1.3824 0.570646 0)
(0.981822 0.449323 0)
(1.00609 0.47441 0)
(1.03278 0.496696 0)
(1.06919 0.512063 0)
(1.11691 0.529368 0)
(1.18038 0.538872 0)
(1.2692 0.542195 0)
(1.37831 0.530198 0)
(0.967623 0.401468 0)
(1.01568 0.432776 0)
(1.05357 0.466746 0)
(1.09978 0.48879 0)
(1.1512 0.507955 0)
(1.21396 0.51721 0)
(1.2888 0.51287 0)
(1.37719 0.497607 0)
(0.921961 0.336761 0)
(0.989088 0.381195 0)
(1.05094 0.421312 0)
(1.11127 0.450399 0)
(1.16944 0.477712 0)
(1.23574 0.489297 0)
(1.30673 0.489246 0)
(1.38155 0.473982 0)
(0.858856 0.264024 0)
(0.935854 0.313054 0)
(1.01526 0.360711 0)
(1.09125 0.400843 0)
(1.16411 0.432248 0)
(1.23837 0.448347 0)
(1.31252 0.454507 0)
(1.38335 0.445006 0)
(0.807297 0.200511 0)
(0.873446 0.242946 0)
(0.953956 0.290243 0)
(1.04171 0.33428 0)
(1.12754 0.373937 0)
(1.21263 0.398341 0)
(1.29427 0.409291 0)
(1.37062 0.406703 0)
(0.780408 0.157684 0)
(0.829307 0.182407 0)
(0.893957 0.219541 0)
(0.975041 0.261203 0)
(1.06465 0.303523 0)
(1.15721 0.336313 0)
(1.24581 0.356937 0)
(1.32869 0.363876 0)
(0.779583 0.12727 0)
(0.811734 0.141683 0)
(0.858163 0.164968 0)
(0.921938 0.196155 0)
(0.997497 0.234597 0)
(1.08355 0.269318 0)
(1.17157 0.29597 0)
(1.25733 0.30879 0)
(0.79003 0.112548 0)
(0.818832 0.120258 0)
(0.855065 0.137491 0)
(0.898213 0.160981 0)
(0.952856 0.186945 0)
(1.0184 0.212086 0)
(1.0912 0.235765 0)
(1.16957 0.249911 0)
(0.807685 0.108154 0)
(0.836995 0.11573 0)
(0.868957 0.126546 0)
(0.902912 0.139479 0)
(0.938601 0.154477 0)
(0.980372 0.16987 0)
(1.03245 0.180715 0)
(1.09337 0.18877 0)
(0.82884 0.102585 0)
(0.859779 0.111418 0)
(0.889298 0.119667 0)
(0.916242 0.125712 0)
(0.940842 0.13049 0)
(0.968676 0.132759 0)
(1.00261 0.136027 0)
(1.04538 0.139963 0)
(0.84771 0.0976299 0)
(0.87934 0.105046 0)
(0.907727 0.110781 0)
(0.931141 0.112421 0)
(0.950686 0.11134 0)
(0.972301 0.108893 0)
(0.998316 0.106545 0)
(1.03052 0.105923 0)
(0.860244 0.0898742 0)
(0.892357 0.0956888 0)
(0.919537 0.0994536 0)
(0.9409 0.0999621 0)
(0.95991 0.0985781 0)
(0.980753 0.095767 0)
(1.00441 0.0914792 0)
(1.03237 0.0864369 0)
(0.867774 0.0790836 0)
(0.899314 0.0847618 0)
(0.925199 0.0876854 0)
(0.944834 0.0877533 0)
(0.963908 0.0863389 0)
(0.98495 0.0834391 0)
(1.00844 0.0788529 0)
(1.03488 0.0721774 0)
(0.873603 0.0677063 0)
(0.904162 0.0734993 0)
(0.92724 0.0757069 0)
(0.945358 0.0760931 0)
(0.963983 0.0743983 0)
(0.984484 0.0709511 0)
(1.00746 0.0657043 0)
(1.03352 0.0582825 0)
(0.87998 0.0566441 0)
(0.908027 0.0618307 0)
(0.927683 0.0631852 0)
(0.945218 0.0633119 0)
(0.962647 0.0611967 0)
(0.981494 0.0572501 0)
(1.00307 0.051822 0)
(1.02826 0.045106 0)
(0.88683 0.0442999 0)
(0.910908 0.0479403 0)
(0.928444 0.0490026 0)
(0.944869 0.0486944 0)
(0.960486 0.0462146 0)
(0.977636 0.0420345 0)
(0.998069 0.037349 0)
(1.02228 0.0326307 0)
(0.892069 0.0290123 0)
(0.912898 0.0312544 0)
(0.929341 0.0320667 0)
(0.944014 0.0317879 0)
(0.957791 0.0294834 0)
(0.974023 0.0259225 0)
(0.994142 0.0226537 0)
(1.01775 0.0194524 0)
(0.894059 0.00982204 0)
(0.913195 0.0100945 0)
(0.929057 0.0100734 0)
(0.942683 0.00943518 0)
(0.955673 0.00821816 0)
(0.971886 0.00691011 0)
(0.991887 0.0060326 0)
(1.015 0.00523382 0)
(1.72646 0.845319 0)
(2.27242 0.966539 0)
(2.38935 0.610966 0)
(2.403 0.328806 0)
(2.39244 -0.00407806 0)
(2.36897 -0.15881 0)
(2.25657 -0.186449 0)
(2.1309 -0.129258 0)
(2.05125 -0.10009 0)
(1.99189 -0.078746 0)
(1.96995 -0.0500972 0)
(1.93073 -0.0519013 0)
(1.87626 -0.0569048 0)
(1.81001 -0.0464534 0)
(1.73756 -0.0267886 0)
(1.63988 -0.0198532 0)
(1.52684 0.000306472 0)
(1.51811 0.0105175 0)
(1.49922 0.0123204 0)
(1.48426 0.0121022 0)
(1.48149 0.00852147 0)
(1.49384 -0.00050741 0)
(1.50725 -0.00657124 0)
(1.51863 -0.00800204 0)
(1.52746 -0.00866471 0)
(1.53422 -0.00828104 0)
(1.54598 -0.00761968 0)
(1.56281 -0.006544 0)
(1.58206 -0.00522199 0)
(1.60378 -0.00422038 0)
(1.63143 -0.0030329 0)
(1.67252 -0.00270945 0)
(1.71572 -0.00332067 0)
(1.7436 -0.00350379 0)
(1.76777 -0.00318137 0)
(1.78805 -0.00194419 0)
(1.80159 0.000762303 0)
(1.81063 0.00460756 0)
(1.82139 0.00794825 0)
(1.83719 0.00968414 0)
(1.85693 0.0104311 0)
(1.87915 0.0108079 0)
(1.90282 0.0110306 0)
(1.92872 0.0112359 0)
(1.95927 0.0111956 0)
(1.98804 0.0106846 0)
(2.01283 0.01004 0)
(2.03702 0.00991281 0)
(2.06107 0.00998867 0)
(2.08239 0.00918358 0)
(2.09433 0.00684899 0)
(2.08678 0.00592347 0)
(2.07044 0.00822961 0)
(2.07301 0.0104944 0)
(2.08924 0.0112101 0)
(2.10946 0.0113409 0)
(2.13134 0.0113107 0)
(2.15376 0.0112955 0)
(2.17665 0.0108608 0)
(2.20071 0.00973613 0)
(2.2235 0.00919414 0)
(2.24594 0.00911965 0)
(2.26198 0.00954438 0)
(2.2589 0.0101552 0)
(2.24566 0.0112299 0)
(2.25623 0.0117894 0)
(2.27631 0.0118914 0)
(2.29779 0.0119547 0)
(2.31978 0.0120202 0)
(2.34222 0.0118934 0)
(2.36684 0.0111769 0)
(2.39258 0.009811 0)
(2.41564 0.00942901 0)
(2.43887 0.00957726 0)
(2.45557 0.010087 0)
(2.44723 0.010684 0)
(2.41802 0.0120787 0)
(2.42013 0.0128725 0)
(2.43854 0.0132381 0)
(2.45921 0.0137405 0)
(2.48112 0.0143116 0)
(2.5031 0.0146139 0)
(2.52617 0.0151164 0)
(2.5517 0.0156017 0)
(2.57953 0.0168664 0)
(2.60389 0.0155094 0)
(2.62378 0.0147222 0)
(2.6534 0.0120998 0)
(1.80348 0.676415 0)
(2.17964 0.371856 0)
(2.32109 0.0904512 0)
(2.37387 -0.161832 0)
(2.40301 -0.33653 0)
(2.40181 -0.415346 0)
(2.35381 -0.377234 0)
(2.26776 -0.312004 0)
(2.16032 -0.204433 0)
(2.06672 -0.10067 0)
(2.00074 -0.0422839 0)
(1.98297 -0.0675435 0)
(1.93145 -0.103966 0)
(1.85895 -0.101024 0)
(1.7905 -0.057826 0)
(1.70213 -0.0136694 0)
(1.57418 0.0268443 0)
(1.54904 0.0262044 0)
(1.53583 0.0274174 0)
(1.52339 0.0348176 0)
(1.51379 0.0366661 0)
(1.51723 0.0242968 0)
(1.53219 -0.000551771 0)
(1.54548 -0.0140855 0)
(1.5572 -0.0191595 0)
(1.56581 -0.0194111 0)
(1.57282 -0.0186315 0)
(1.58766 -0.0194871 0)
(1.60647 -0.0192662 0)
(1.62903 -0.0166265 0)
(1.65897 -0.0102615 0)
(1.69728 -0.00318507 0)
(1.73289 -0.00445015 0)
(1.75913 -0.00926684 0)
(1.78213 -0.0128141 0)
(1.80286 -0.0155957 0)
(1.81971 -0.0151723 0)
(1.8318 -0.00889227 0)
(1.84048 0.00160542 0)
(1.85177 0.0106016 0)
(1.86976 0.0162134 0)
(1.89107 0.0210922 0)
(1.91352 0.0262035 0)
(1.93739 0.0312019 0)
(1.96348 0.0362427 0)
(1.98737 0.037931 0)
(2.01122 0.0371195 0)
(2.03457 0.0343455 0)
(2.05693 0.0301869 0)
(2.0765 0.024569 0)
(2.08731 0.0177936 0)
(2.08516 0.0103285 0)
(2.0783 0.00638815 0)
(2.08352 0.01004 0)
(2.10059 0.0159594 0)
(2.12068 0.0220094 0)
(2.14107 0.0279645 0)
(2.16149 0.0328191 0)
(2.18273 0.0353941 0)
(2.20574 0.0353717 0)
(2.22927 0.0319838 0)
(2.25188 0.0274693 0)
(2.27055 0.022432 0)
(2.27342 0.0219145 0)
(2.2577 0.0305344 0)
(2.26068 0.0356691 0)
(2.28016 0.0364058 0)
(2.30123 0.0367661 0)
(2.32285 0.0372511 0)
(2.34492 0.03811 0)
(2.36832 0.038284 0)
(2.39308 0.035367 0)
(2.41736 0.0306832 0)
(2.44113 0.0255704 0)
(2.4613 0.0180462 0)
(2.46346 0.0121688 0)
(2.43814 0.0203142 0)
(2.43128 0.0280536 0)
(2.44774 0.0301399 0)
(2.46715 0.0321092 0)
(2.48796 0.0353232 0)
(2.51019 0.0380637 0)
(2.53203 0.0408788 0)
(2.55281 0.0458827 0)
(2.5769 0.0480819 0)
(2.60142 0.0409744 0)
(2.62246 0.0312168 0)
(2.64345 -0.0101402 0)
(1.70881 0.688368 0)
(1.99748 0.494153 0)
(2.16696 0.298727 0)
(2.25885 0.137481 0)
(2.3003 -0.0438159 0)
(2.32474 -0.193969 0)
(2.35777 -0.306432 0)
(2.36804 -0.363552 0)
(2.30331 -0.33661 0)