/*--------------------------------*- C++ -*----------------------------------*\
  =========                 |
  \\      /  F ield         | OpenFOAM: The Open Source CFD Toolbox
   \\    /   O peration     | Website:  https://openfoam.org
    \\  /    A nd           | Version:  7
     \\/     M anipulation  |
\*---------------------------------------------------------------------------*/
FoamFile
{
    version     2.0;
    format      ascii;
    class       volScalarField;
    location    "1";
    object      p;
}
// * * * * * * * * * * * * * * * * * * * * * * * * * * * * * * * * * * * * * //

dimensions      [1 -1 -2 0 0 0 0];

internalField   nonuniform List<scalar> 
4128
(
0.219452
0.307719
0.40276
0.451626
0.48579
0.553847
0.644474
0.724228
0.805396
0.876949
0.89312
0.897881
0.899637
0.926609
0.950213
0.973404
1.00716
1.03622
1.05082
1.07141
1.10182
1.12816
1.14655
1.14721
1.14955
1.1588
1.17046
1.19185
1.2264
1.23993
1.24102
1.23873
1.23899
1.24227
1.24408
1.24641
1.25624
1.27715
1.28931
1.29239
1.29388
1.29289
1.2912
1.28948
1.28704
1.28766
1.29472
1.3022
1.30103
1.29692
1.28937
1.28134
1.27901
1.27986
1.28624
1.2924
1.50791
4.4353
5.75698
5.90951
6.05416
6.18801
6.29932
6.37651
6.42959
6.48422
6.53835
6.57435
6.59352
6.60352
6.6239
6.65001
6.66497
6.66735
6.66766
6.67521
6.70419
6.73237
6.73223
6.7122
6.69378
6.69731
6.72201
6.74119
6.74821
6.73617
6.72089
6.71894
0.220116
0.232334
0.272938
0.312207
0.347822
0.395336
0.454138
0.519459
0.597309
0.692798
0.745864
0.772655
0.796635
0.833271
0.877978
0.915887
0.961816
1.02233
1.04711
1.06196
1.08201
1.09739
1.11787
1.12912
1.13566
1.1483
1.16247
1.18019
1.21014
1.22955
1.2348
1.23745
1.23489
1.23629
1.24003
1.24526
1.25721
1.27828
1.28884
1.29079
1.28996
1.28558
1.28195
1.2807
1.27952
1.28073
1.28713
1.29765
1.30247
1.30187
1.29955
1.29427
1.28687
1.28103
1.27878
1.27854
1.4099
4.18637
5.72948
5.92236
6.08201
6.2145
6.31974
6.39214
6.43906
6.48664
6.53781
6.57513
6.59753
6.6078
6.62287
6.64539
6.6616
6.66766
6.67026
6.67139
6.6928
6.72025
6.72674
6.71383
6.70375
6.70776
6.72372
6.73203
6.73139
6.72537
6.72748
6.73941
0.31567
0.311473
0.326258
0.344122
0.367256
0.392484
0.40762
0.431508
0.47027
0.526955
0.595505
0.647915
0.698266
0.747804
0.807377
0.871314
0.928482
1.0002
1.05527
1.0725
1.08641
1.09771
1.11485
1.12027
1.13462
1.1609
1.17781
1.19242
1.20786
1.21776
1.22662
1.23401
1.23335
1.23359
1.23908
1.24646
1.25866
1.2793
1.29326
1.29576
1.29532
1.29071
1.28586
1.28518
1.28503
1.28467
1.28622
1.29039
1.29349
1.29497
1.2951
1.29474
1.29509
1.29593
1.29512
1.28735
1.30527
3.66602
5.70999
5.94737
6.10944
6.23913
6.3388
6.40798
6.45552
6.4955
6.53778
6.57007
6.59311
6.60928
6.62502
6.6435
6.65935
6.66938
6.67609
6.682
6.68799
6.69422
6.70064
6.70326
6.70756
6.71975
6.72981
6.72859
6.71862
6.7128
6.72596
6.75369
0.513663
0.472148
0.482388
0.483927
0.458947
0.430905
0.417001
0.421974
0.429737
0.440518
0.462608
0.503674
0.565957
0.62342
0.680667
0.755179
0.822937
0.890595
0.958562
0.986034
1.00708
1.03827
1.08573
1.11291
1.13538
1.1641
1.18516
1.19406
1.19592
1.20542
1.21874
1.22655
1.22798
1.22814
1.23056
1.23692
1.24551
1.26024
1.27612
1.28202
1.28445
1.28474
1.28316
1.28433
1.286
1.2887
1.29127
1.29062
1.28754
1.28394
1.28227
1.28231
1.28364
1.28649
1.28898
1.28886
1.28441
2.98616
5.64452
6.03919
6.17168
6.27982
6.36056
6.41764
6.45999
6.50013
6.54031
6.57178
6.58962
6.60373
6.62085
6.64105
6.65796
6.66952
6.67824
6.68635
6.69158
6.69034
6.69333
6.70124
6.71271
6.72205
6.72748
6.72091
6.70933
6.70919
6.72637
6.76009
0.812
0.685722
0.631395
0.625392
0.607884
0.570185
0.526895
0.499107
0.485217
0.486952
0.494498
0.51621
0.522022
0.528301
0.539929
0.569941
0.614817
0.668023
0.749765
0.834678
0.900048
0.962425
1.02339
1.06912
1.08666
1.11113
1.15054
1.15983
1.16179
1.17491
1.19509
1.21837
1.24042
1.2446
1.24416
1.24579
1.25013
1.259
1.27364
1.28008
1.28145
1.28121
1.28084
1.28368
1.28693
1.29064
1.29286
1.29129
1.28521
1.28089
1.28099
1.28433
1.28808
1.28799
1.28677
1.28323
1.27681
2.16056
5.39356
6.17252
6.2365
6.3253
6.37852
6.41751
6.45197
6.4897
6.52758
6.56618
6.58844
6.59912
6.6107
6.62994
6.65138
6.66936
6.68022
6.68489
6.68423
6.68604
6.69687
6.70917
6.72192
6.72499
6.72135
6.71187
6.70246
6.70865
6.72767
6.75448
1.09287
0.979237
0.834564
0.776946
0.767322
0.749757
0.711997
0.65783
0.604708
0.575754
0.569861
0.562585
0.551878
0.542901
0.549884
0.548802
0.547917
0.551841
0.571193
0.6161
0.673575
0.75158
0.834064
0.925718
0.988112
1.0343
1.1073
1.13034
1.13745
1.15337
1.16957
1.19182
1.21906
1.22725
1.22762
1.22957
1.23573
1.24621
1.26253
1.26912
1.27009
1.26896
1.27095
1.27505
1.27885
1.28156
1.28404
1.28649
1.28688
1.28791
1.29265
1.29492
1.29294
1.28825
1.28015
1.26946
1.26393
1.52088
4.97929
6.32225
6.33345
6.36971
6.39849
6.42417
6.44897
6.47551
6.50582
6.5423
6.57159
6.59267
6.60635
6.62083
6.64123
6.66423
6.68239
6.68864
6.68462
6.68209
6.69662
6.71602
6.7256
6.72549
6.71713
6.70562
6.70262
6.71349
6.72858
6.74413
1.34418
1.24407
1.12783
0.994478
0.895366
0.880864
0.866115
0.822076
0.761121
0.691683
0.659313
0.657564
0.654275
0.636146
0.614596
0.606399
0.592131
0.573556
0.575135
0.578184
0.584882
0.599107
0.628068
0.680002
0.762383
0.845522
0.939859
1.03486
1.07485
1.10883
1.12739
1.14703
1.18502
1.2054
1.21065
1.21642
1.22457
1.2367
1.25496
1.26191
1.26289
1.26105
1.25738
1.25991
1.26623
1.27125
1.27494
1.27732
1.28255
1.29173
1.29558
1.2952
1.29052
1.2817
1.27131
1.26205
1.25927
1.27742
4.27417
6.2778
6.38324
6.39032
6.39306
6.41407
6.44578
6.4726
6.49236
6.51576
6.54256
6.5685
6.59202
6.61428
6.6345
6.65599
6.67478
6.68609
6.68727
6.68426
6.6941
6.71467
6.72384
6.71802
6.70981
6.70472
6.71048
6.7234
6.72892
6.72854
1.62164
1.45348
1.35861
1.26219
1.13544
1.02815
0.985805
0.958477
0.914196
0.842815
0.776981
0.760315
0.759462
0.748107
0.718896
0.687915
0.665503
0.64489
0.625343
0.608412
0.600161
0.603394
0.60788
0.609438
0.618777
0.643627
0.684935
0.764796
0.852381
0.930785
1.01546
1.06489
1.11531
1.15418
1.18221
1.20254
1.21713
1.23282
1.24939
1.25371
1.25395
1.25138
1.24521
1.24029
1.24207
1.24648
1.25243
1.26158
1.27568
1.28808
1.29081
1.29099
1.28823
1.27745
1.26524
1.26118
1.26062
1.26157
3.44949
6.18937
6.40534
6.41065
6.4035
6.41258
6.44462
6.47178
6.48197
6.48188
6.49645
6.52931
6.56436
6.59567
6.62431
6.64621
6.66293
6.67344
6.67914
6.68403
6.69433
6.71477
6.71968
6.71141
6.70134
6.70569
6.72099
6.73312
6.72677
6.71042
1.92747
1.71521
1.55114
1.4689
1.37798
1.25291
1.12313
1.06863
1.03755
0.996703
0.943195
0.876882
0.838354
0.83326
0.822906
0.795494
0.758119
0.734152
0.710038
0.684014
0.667754
0.665547
0.659382
0.645756
0.630455
0.626389
0.627856
0.636589
0.657058
0.695777
0.770465
0.861786
0.94615
1.03169
1.1
1.15439
1.18281
1.20582
1.22822
1.24454
1.25451
1.25784
1.25624
1.23964
1.22963
1.2322
1.23754
1.24743
1.26352
1.27758
1.28079
1.28225
1.2807
1.27018
1.26287
1.26208
1.26392
1.26702
2.69685
6.01959
6.43638
6.40785
6.38617
6.38483
6.41192
6.45137
6.48421
6.49167
6.47911
6.47996
6.51968
6.56581
6.6008
6.62541
6.64263
6.6526
6.66006
6.66932
6.68597
6.70688
6.71409
6.70313
6.69508
6.70497
6.72502
6.73735
6.72223
6.69441
2.18599
1.99098
1.80245
1.64821
1.55391
1.46791
1.34882
1.19838
1.1313
1.11576
1.09082
1.04447
0.973601
0.922467
0.91415
0.898939
0.864009
0.819666
0.789715
0.761596
0.733884
0.7263
0.718145
0.702033
0.679154
0.664704
0.655596
0.645199
0.64676
0.651689
0.663347
0.685839
0.720466
0.781911
0.861373
0.950974
1.02675
1.09021
1.14542
1.19325
1.23916
1.25069
1.2508
1.24542
1.23475
1.23368
1.23578
1.24173
1.25618
1.26484
1.26372
1.26106
1.25654
1.25285
1.25289
1.25295
1.25904
1.2696
2.04088
5.72535
6.48268
6.41383
6.3766
6.36818
6.38441
6.42215
6.45774
6.47629
6.46126
6.44024
6.45148
6.50043
6.55392
6.58994
6.61032
6.62049
6.62808
6.64264
6.66584
6.69219
6.70807
6.70053
6.69199
6.69944
6.71594
6.72758
6.70853
6.68009
2.41068
2.21598
2.05466
1.88716
1.70838
1.599
1.51735
1.41264
1.30083
1.21416
1.19209
1.17243
1.12764
1.05945
0.997962
0.973515
0.954062
0.91759
0.879328
0.851445
0.82527
0.810505
0.793617
0.773087
0.750747
0.733506
0.718439
0.701926
0.68415
0.678837
0.675974
0.670293
0.665539
0.668718
0.68161
0.713691
0.783396
0.880792
0.991733
1.07136
1.13313
1.17962
1.21131
1.22128
1.21981
1.22406
1.23663
1.25548
1.26989
1.2711
1.26448
1.24998
1.23766
1.23449
1.2347
1.23698
1.25214
1.26739
1.53945
5.19144
6.50182
6.41716
6.39003
6.37481
6.38141
6.40172
6.42514
6.43094
6.40671
6.38015
6.38451
6.4273
6.49465
6.54345
6.57047
6.58471
6.59064
6.60361
6.63107
6.66706
6.69324
6.69462
6.68384
6.67951
6.68992
6.69851
6.6897
6.66926
2.63732
2.43215
2.24098
2.08489
1.92408
1.76247
1.64061
1.56766
1.49456
1.39908
1.30418
1.26261
1.24137
1.2036
1.13376
1.05238
1.0226
1.00245
0.972401
0.936572
0.909466
0.89344
0.871674
0.847048
0.821018
0.800841
0.780192
0.760085
0.741114
0.728444
0.715279
0.696944
0.678451
0.673016
0.672769
0.674112
0.684841
0.709516
0.758286
0.836211
0.918153
1.00349
1.06699
1.12177
1.15991
1.18462
1.21685
1.25394
1.26911
1.27238
1.2707
1.25581
1.2306
1.22426
1.22555
1.23051
1.24942
1.2621
1.29057
4.47692
6.42398
6.41315
6.3787
6.36493
6.37495
6.37095
6.36536
6.35667
6.34269
6.33182
6.33676
6.36788
6.42752
6.49344
6.52904
6.54298
6.54553
6.55501
6.58244
6.62554
6.66335
6.68158
6.67133
6.65884
6.66038
6.66273
6.65212
6.63835
2.8518
2.64341
2.44361
2.25019
2.10197
1.96243
1.82833
1.69607
1.62406
1.56436
1.48782
1.38664
1.32073
1.30037
1.2572
1.18125
1.10152
1.07187
1.05069
1.02529
0.997299
0.974229
0.947488
0.91644
0.884498
0.86668
0.849377
0.831545
0.811609
0.795342
0.776723
0.75543
0.734633
0.720169
0.709797
0.699525
0.697354
0.698946
0.699731
0.70624
0.722457
0.759986
0.831315
0.922544
1.01985
1.08686
1.14759
1.20373
1.24501
1.25612
1.25598
1.24363
1.223
1.22316
1.22988
1.24286
1.26086
1.26314
1.2537
3.63869
6.27373
6.37406
6.34041
6.34196
6.35316
6.32954
6.30016
6.27668
6.27414
6.28572
6.30678
6.33534
6.37335
6.42418
6.46893
6.48915
6.4978
6.50686
6.52797
6.56621
6.61379
6.64194
6.64109
6.62038
6.60007
6.59511
6.59394
6.59535
3.04555
2.82332
2.61367
2.43412
2.26652
2.12121
2.01083
1.891
1.76153
1.67981
1.63222
1.55938
1.45658
1.37754
1.3273
1.28109
1.22632
1.17318
1.12881
1.09702
1.0783
1.05747
1.03086
0.994905
0.95733
0.931841
0.909789
0.891399
0.873845
0.855277
0.833902
0.805647
0.781804
0.767007
0.755516
0.745435
0.738765
0.731158
0.719938
0.710965
0.703257
0.701922
0.708683
0.732757
0.794469
0.891932
0.999323
1.08642
1.13427
1.17043
1.18997
1.19756
1.2031
1.21178
1.22903
1.25358
1.2667
1.26695
1.25276
2.89483
6.08482
6.38904
6.34635
6.34225
6.32777
6.27872
6.22495
6.19447
6.20627
6.23974
6.27953
6.30923
6.32942
6.35544
6.38107
6.40661
6.43517
6.45803
6.4807
6.50582
6.53928
6.57271
6.58158
6.56209
6.5372
6.51569
6.5135
6.47471
3.2142
2.9889
2.781
2.60826
2.45137
2.29656
2.16015
2.05423
1.94711
1.82702
1.71983
1.66306
1.59637
1.51194
1.41961
1.34353
1.31528
1.27836
1.23439
1.18583
1.15992
1.1343
1.10186
1.06098
1.02392
0.996638
0.974319
0.954626
0.937388
0.916059
0.89258
0.866475
0.844623
0.827915
0.812597
0.799089
0.790145
0.778669
0.764268
0.745257
0.72766
0.713155
0.710888
0.711269
0.718247
0.737932
0.776582
0.840121
0.917593
1.00316
1.06854
1.11593
1.15152
1.17509
1.21065
1.24501
1.25628
1.25754
1.24486
2.23854
5.79642
6.4337
6.34029
6.33184
6.285
6.21269
6.14276
6.11711
6.13882
6.18834
6.24174
6.2745
6.2832
6.2772
6.27745
6.31184
6.35579
6.39696
6.42375
6.43944
6.45516
6.47266
6.47587
6.45865
6.41635
6.36287
6.30873
6.282
3.36372
3.14659
2.95654
2.77017
2.60416
2.46378
2.32276
2.17737
2.07211
1.97801
1.86546
1.75529
1.6795
1.61868
1.54166
1.45333
1.40101
1.36184
1.32533
1.28017
1.24894
1.21416
1.17651
1.13118
1.09199
1.06029
1.03357
1.01144
0.996501
0.976614
0.952986
0.924712
0.903382
0.885264
0.867963
0.853178
0.841662
0.82561
0.805553
0.784927
0.763784
0.747429
0.737872
0.729821
0.727064
0.730547
0.732837
0.736995
0.749254
0.778829
0.844456
0.933797
1.02505
1.10296
1.15025
1.1944
1.21151
1.22272
1.21908
1.67607
5.36438
6.46541
6.32539
6.27294
6.20953
6.13567
6.06846
6.04631
6.0744
6.13304
6.19229
6.22833
6.22353
6.18895
6.17181
6.21031
6.27185
6.32542
6.36108
6.36981
6.35991
6.35007
6.34535
6.31442
6.26534
6.19049
6.08977
6.11931
3.50324
3.30612
3.10811
2.92265
2.75313
2.60567
2.46337
2.32807
2.20117
2.09437
1.99327
1.89173
1.79142
1.7003
1.62803
1.56742
1.51786
1.46804
1.41395
1.36457
1.32796
1.28879
1.24501
1.19952
1.16511
1.13462
1.10423
1.07027
1.04846
1.02522
1.00298
0.981082
0.962799
0.945329
0.925943
0.905603
0.890253
0.873672
0.852797
0.833708
0.815547
0.798357
0.788225
0.779627
0.77048
0.759318
0.74866
0.740131
0.728474
0.72567
0.731635
0.755827
0.813933
0.906839
1.00701
1.10376
1.13925
1.1666
1.16906
1.29011
4.86039
6.42711
6.20704
6.14586
6.07724
6.006
5.94883
5.96259
6.0169
6.0805
6.13056
6.15782
6.14179
6.09715
6.07861
6.12462
6.19749
6.2567
6.29411
6.29241
6.25941
6.21358
6.18328
6.14215
6.06998
5.89253
5.46431
4.32359
3.64227
3.44706
3.24686
3.04969
2.89605
2.74036
2.58725
2.44593
2.3326
2.21394
2.09199
1.98671
1.90348
1.81624
1.7328
1.66798
1.62116
1.56924
1.51363
1.45983
1.41215
1.36329
1.31128
1.26248
1.22951
1.20128
1.17162
1.14154
1.11577
1.08936
1.05605
1.02993
1.01326
0.995324
0.977731
0.959973
0.9417
0.92226
0.89844
0.876151
0.860188
0.844664
0.82988
0.823061
0.81326
0.800184
0.784502
0.767523
0.745677
0.729611
0.729983
0.733363
0.742515
0.763953
0.806173
0.859248
0.92481
0.995705
1.05335
1.08539
4.39928
6.25332
6.02804
5.98772
5.9497
5.89395
5.85625
5.88686
5.95959
6.02381
6.06
6.07134
6.05139
6.01448
6.0069
6.05423
6.1234
6.17754
6.20761
6.19654
6.14161
6.07697
6.02138
5.95083
5.81379
5.54415
4.97532
3.85833
3.76813
3.57111
3.36441
3.18182
3.0227
2.86158
2.6975
2.56825
2.44796
2.32642
2.20189
2.10233
2.01083
1.9254
1.84295
1.78563
1.72905
1.66677
1.5979
1.54386
1.49277
1.443
1.38393
1.33816
1.30029
1.26611
1.23006
1.20306
1.17781
1.15095
1.1202
1.09295
1.07028
1.04674
1.0183
1.0013
0.985244
0.967177
0.946054
0.925126
0.908741
0.893487
0.876407
0.867919
0.858818
0.846084
0.829722
0.810822
0.788144
0.769035
0.758263
0.755079
0.753224
0.754846
0.754957
0.755174
0.763748
0.784901
0.850511
0.89638
3.85926
5.95912
5.83824
5.85402
5.8528
5.82016
5.79136
5.81595
5.89555
5.96016
5.97935
5.97129
5.95144
5.93631
5.95098
5.99846
6.05361
6.09013
6.09884
6.07083
6.00775
5.9396
5.86359
5.75742
5.57631
5.22982
4.66176
3.67528
3.88528
3.68535
3.47488
3.30285
3.13958
2.97671
2.81284
2.68755
2.5607
2.43774
2.31327
2.22013
2.12794
2.04173
1.95438
1.89008
1.8228
1.7584
1.69215
1.62932
1.56654
1.50986
1.45504
1.41485
1.37783
1.34081
1.29656
1.26722
1.23756
1.20821
1.17662
1.15284
1.12802
1.10284
1.07356
1.05053
1.03051
1.01014
0.987327
0.970449
0.954672
0.93965
0.924065
0.912026
0.898627
0.881666
0.862834
0.842659
0.822752
0.806945
0.7963
0.791047
0.785896
0.778711
0.770203
0.757711
0.744428
0.74289
0.751979
0.764389
3.06725
5.56644
5.66476
5.70337
5.71923
5.72494
5.7321
5.75694
5.83272
5.90506
5.90754
5.87611
5.85941
5.87854
5.91721
5.96255
5.99134
5.9934
5.9708
5.93083
5.87276
5.80657
5.71466
5.58495
5.35933
5.01805
4.4482
3.625
3.99
3.78089
3.58792
3.4221
3.2544
3.07704
2.93261
2.80548
2.67829
2.54365
2.43335
2.33653
2.24271
2.14569
2.0648
1.99373
1.91872
1.83759
1.77079
1.71272
1.64989
1.58849
1.53022
1.4896
1.44869
1.41124
1.37244
1.33888
1.30348
1.26722
1.23159
1.20735
1.18136
1.15464
1.12634
1.10447
1.08172
1.05936
1.0332
1.01428
0.997952
0.981752
0.967477
0.956461
0.942991
0.925244
0.90084
0.879841
0.865753
0.854571
0.843414
0.835184
0.826623
0.814498
0.796742
0.775164
0.756988
0.751658
0.753637
0.754919
2.12435
5.24824
5.52232
5.50998
5.56295
5.61356
5.66996
5.7222
5.78991
5.85838
5.84698
5.79244
5.77952
5.81725
5.87467
5.90393
5.90067
5.87705
5.84183
5.79596
5.74324
5.67658
5.58025
5.42005
5.19909
4.83423
4.31097
3.63384
4.08438
3.87485
3.70021
3.53084
3.35904
3.18385
3.05271
2.91882
2.78729
2.65216
2.55238
2.44834
2.35067
2.24518
2.16584
2.08317
2.00512
1.92171
1.85608
1.78974
1.72615
1.66052
1.61426
1.57261
1.52871
1.47703
1.43684
1.40406
1.36804
1.33221
1.29533
1.26524
1.23481
1.20392
1.17561
1.15446
1.13255
1.11038
1.08618
1.06564
1.04581
1.02469
1.00544
0.99112
0.975994
0.959376
0.938538
0.920513
0.907626
0.897486
0.887415
0.876754
0.86525
0.85072
0.825098
0.795461
0.77997
0.772729
0.769191
0.766225
1.25189
4.51397
5.47954
5.45696
5.49305
5.57373
5.67129
5.7372
5.77717
5.80162
5.78577
5.72902
5.7032
5.74902
5.81919
5.83975
5.81577
5.7736
5.72975
5.68799
5.63184
5.55491
5.45085
5.28126
5.04449
4.68884
4.22863
3.66302
4.16598
3.97454
3.80571
3.63506
3.45262
3.29835
3.16264
3.02831
2.88612
2.76736
2.66054
2.55351
2.44177
2.34211
2.25977
2.17367
2.08744
2.00227
1.93898
1.87148
1.80918
1.74133
1.6951
1.6473
1.60133
1.55293
1.51157
1.46968
1.42794
1.38495
1.35435
1.32568
1.29577
1.26036
1.22896
1.20434
1.17967
1.15502
1.13463
1.11627
1.09706
1.07664
1.05518
1.0331
1.00913
0.981476
0.964714
0.956389
0.947499
0.938386
0.930637
0.921572
0.908918
0.886973
0.853173
0.830605
0.824073
0.817739
0.81192
0.800873
0.835661
3.31754
5.32911
5.40274
5.44793
5.57291
5.70478
5.78084
5.78867
5.75806
5.7202
5.68042
5.65484
5.68355
5.75493
5.77863
5.73249
5.67776
5.635
5.59171
5.53402
5.44416
5.32667
5.15617
4.92119
4.58355
4.17697
3.69957
4.24714
4.07165
3.90041
3.72667
3.54996
3.40859
3.26518
3.12516
2.98268
2.87398
2.75863
2.64945
2.52829
2.43605
2.34505
2.25967
2.16637
2.09233
2.02452
1.95622
1.88336
1.82281
1.77798
1.72617
1.67311
1.61863
1.5801
1.5355
1.49386
1.44832
1.41263
1.37857
1.34672
1.31294
1.28667
1.2615
1.2359
1.20344
1.17988
1.16
1.13957
1.11964
1.10016
1.07707
1.05214
1.02282
1.00514
0.995684
0.984652
0.972313
0.963752
0.954688
0.940811
0.913827
0.881993
0.869917
0.864719
0.858109
0.851517
0.842109
0.835584
1.97915
4.92579
5.37219
5.43432
5.54329
5.67591
5.74264
5.72135
5.67131
5.643
5.62088
5.62239
5.65441
5.69765
5.70955
5.65486
5.58987
5.54237
5.50058
5.44157
5.34233
5.21435
5.04723
4.82453
4.512
4.15266
3.73269
4.33461
4.16017
3.98528
3.80514
3.65301
3.50723
3.36173
3.20794
3.08287
2.96737
2.85072
2.73188
2.61872
2.52651
2.43141
2.34204
2.24815
2.18138
2.10939
2.04169
1.9626
1.90673
1.85286
1.79817
1.74081
1.69153
1.64806
1.60073
1.5525
1.5072
1.4753
1.44022
1.40516
1.36479
1.33829
1.31173
1.28583
1.25674
1.23456
1.21231
1.18871
1.15899
1.13313
1.10817
1.08614
1.06396
1.05214
1.04173
1.02974
1.01689
1.00399
0.986745
0.959213
0.925382
0.912295
0.90902
0.904234
0.898243
0.891682
0.883739
0.860503
1.02852
4.07253
5.31391
5.42412
5.53386
5.63937
5.70038
5.67256
5.58783
5.5524
5.55737
5.59104
5.62907
5.65821
5.64556
5.58551
5.51107
5.45438
5.41148
5.35257
5.25171
5.11923
4.95587
4.74605
4.46386
4.14597
3.76907
4.41579
4.24171
4.0602
3.88948
3.74562
3.59759
3.44713
3.29802
3.17828
3.05265
2.93766
2.81238
2.71358
2.61325
2.52012
2.41966
2.33802
2.26914
2.19523
2.12089
2.04277
1.98823
1.9277
1.87053
1.8058
1.75985
1.71325
1.66641
1.61688
1.57089
1.53304
1.49564
1.45881
1.42314
1.3968
1.36813
1.33427
1.30044
1.28018
1.2579
1.23493
1.20599
1.1769
1.1506
1.12584
1.10188
1.09207
1.08155
1.06747
1.05395
1.04072
1.01986
0.984481
0.953187
0.947333
0.943281
0.936166
0.930765
0.925105
0.918496
0.898458
0.877367
2.55341
5.0796
5.38346
5.4988
5.60308
5.65847
5.63431
5.54856
5.52654
5.53547
5.57986
5.62884
5.63667
5.59229
5.52381
5.44474
5.37569
5.32529
5.26931
5.17251
5.04005
4.88076
4.68142
4.43038
4.14563
3.80538
4.48505
4.31227
4.13457
3.97873
3.82545
3.67686
3.52451
3.39601
3.26618
3.14118
3.01384
2.90069
2.80228
2.70003
2.60518
2.50103
2.42859
2.35054
2.27754
2.19389
2.12578
2.06433
2.0003
1.93608
1.87344
1.82932
1.77898
1.7309
1.67509
1.63456
1.59486
1.55678
1.51329
1.47846
1.45048
1.42006
1.38765
1.35645
1.33139
1.30401
1.27111
1.24017
1.21597
1.19416
1.17345
1.15231
1.13891
1.124
1.10527
1.08494
1.06473
1.04033
1.00927
0.991809
0.988434
0.983487
0.975214
0.966542
0.957021
0.945522
0.924823
0.88815
1.23387
4.42745
5.35153
5.45715
5.55925
5.60838
5.60305
5.54187
5.49132
5.52334
5.57974
5.6407
5.6268
5.55665
5.46525
5.37924
5.3075
5.24945
5.19264
5.10619
4.97981
4.82385
4.63112
4.4067
4.14702
3.83757
4.54949
4.37611
4.21569
4.06033
3.90376
3.7461
3.6101
3.48443
3.35321
3.22683
3.09521
2.99183
2.88364
2.788
2.6818
2.59216
2.51349
2.43072
2.35275
2.26716
2.20505
2.1362
2.07293
2.00117
1.94453
1.89603
1.84408
1.79414
1.73941
1.69747
1.65426
1.61473
1.56963
1.53799
1.50634
1.47307
1.43407
1.40573
1.37942
1.35108
1.31635
1.28239
1.25732
1.23566
1.21376
1.19723
1.18368
1.16687
1.14582
1.12152
1.09465
1.06581
1.03891
1.02944
1.02602
1.01986
1.01023
1.00079
0.989978
0.973215
0.943871
0.908116
0.919339
2.92529
5.17975
5.42635
5.51408
5.56843
5.56111
5.51669
5.48644
5.50391
5.55618
5.59751
5.57706
5.50105
5.41282
5.32576
5.25013
5.19109
5.13308
5.05092
4.93398
4.78163
4.59436
4.38665
4.14545
3.86564
4.60517
4.44192
4.28892
4.13352
3.97502
3.82261
3.69344
3.56117
3.43713
3.30453
3.18829
3.07483
2.96686
2.86405
2.76066
2.67966
2.59008
2.51019
2.41831
2.34455
2.27736
2.2064
2.14094
2.06803
2.01764
1.9622
1.91064
1.85271
1.80239
1.75965
1.71582
1.67346
1.62712
1.59428
1.55898
1.52556
1.48901
1.45825
1.42597
1.39258
1.35395
1.32711
1.30463
1.28468
1.26099
1.24138
1.22307
1.2025
1.1789
1.15171
1.12358
1.09952
1.07955
1.07142
1.06566
1.05698
1.04416
1.0311
1.01642
0.99382
0.961751
0.941516
0.932267
1.40549
4.62054
5.41503
5.4744
5.52538
5.52458
5.49087
5.46599
5.48663
5.52781
5.55218
5.53169
5.44769
5.33572
5.26847
5.20631
5.14541
5.08533
5.00816
4.89887
4.74951
4.56938
4.36991
4.14256
3.89092
4.66527
4.5059
4.3521
4.20086
4.04809
3.90757
3.76905
3.63802
3.50827
3.38734
3.27263
3.15567
3.04863
2.93373
2.84583
2.75499
2.66765
2.58074
2.49039
2.42182
2.34482
2.27896
2.20485
2.14277
2.08791
2.02831
1.97569
1.91344
1.86742
1.81976
1.77653
1.729
1.68691
1.65166
1.61426
1.57683
1.53956
1.50846
1.47379
1.43895
1.39909
1.37303
1.34975
1.32823
1.30578
1.28723
1.26649
1.2433
1.2116
1.17936
1.1535
1.13618
1.12154
1.11341
1.10547
1.09371
1.07813
1.06238
1.0431
1.01255
0.983524
0.976064
0.966508
0.991373
3.13615
5.27407
5.44993
5.48247
5.483
5.46322
5.45427
5.47296
5.50385
5.51901
5.494
5.41116
5.28679
5.20468
5.14733
5.09878
5.04437
4.96986
4.86822
4.72371
4.55111
4.35713
4.14013
3.91546
4.7288
4.56524
4.4076
4.26007
4.12253
3.98243
3.84333
3.70696
3.57912
3.46303
3.34513
3.23707
3.11729
3.01444
2.92218
2.82692
2.74116
2.64552
2.57088
2.49141
2.41629
2.34576
2.27246
2.21688
2.1524
2.09673
2.03502
1.9776
1.92991
1.87938
1.83642
1.78434
1.74502
1.70505
1.66803
1.62981
1.59291
1.55644
1.51965
1.48136
1.44671
1.42292
1.39932
1.37466
1.34847
1.32753
1.30387
1.27892
1.24508
1.21329
1.19314
1.17798
1.1628
1.15281
1.14205
1.12809
1.11052
1.09018
1.06495
1.03447
1.01663
1.01216
1.00527
0.996697
1.51081
4.70681
5.44274
5.44212
5.42916
5.42138
5.43448
5.45428
5.47019
5.4689
5.43234
5.36619
5.25962
5.15859
5.11013
5.05815
5.0102
4.94044
4.83863
4.69937
4.5343
4.34891
4.14552
3.94347
4.78455
4.62693
4.46907
4.32538
4.18683
4.05115
3.91427
3.77948
3.65381
3.5307
3.41877
3.30632
3.19196
3.09193
2.99325
2.90314
2.80381
2.72272
2.64431
2.56112
2.48911
2.40873
2.3483
2.28256
2.21813
2.16158
2.09508
2.04465
1.98927
1.94163
1.89191
1.84216
1.80242
1.75946
1.72264
1.68041
1.64425
1.60483
1.56867
1.53011
1.49772
1.47066
1.44453
1.41855
1.39388
1.37009
1.34369
1.31107
1.27438
1.25155
1.23611
1.22197
1.20657
1.19355
1.17879
1.16156
1.14047
1.11482
1.08538
1.06252
1.05328
1.04829
1.04185
1.02622
1.05663
3.20861
5.25872
5.37417
5.35981
5.36795
5.39642
5.42681
5.44049
5.4344
5.40022
5.33508
5.25031
5.14019
5.07556
5.02867
4.9797
4.91404
4.81444
4.68139
4.51903
4.34196
4.15785
3.97414
4.82895
4.68011
4.53566
4.38917
4.24577
4.10964
3.97938
3.85124
3.72309
3.60063
3.48568
3.37482
3.26585
3.16097
3.06838
2.9692
2.87334
2.79525
2.712
2.63615
2.55077
2.48222
2.41669
2.34458
2.28576
2.21737
2.16216
2.10563
2.04933
2.0034
1.94601
1.90234
1.85602
1.81491
1.77358
1.73162
1.69354
1.65256
1.61739
1.57863
1.5493
1.51954
1.4919
1.46143
1.43526
1.40796
1.38003
1.34695
1.31537
1.29668
1.28119
1.26273
1.24485
1.22992
1.21328
1.1944
1.16868
1.13631
1.1127
1.09893
1.09168
1.08468
1.07727
1.06365
1.05317
1.5601
4.63814
5.33657
5.32689
5.33987
5.376
5.41424
5.42713
5.41347
5.37417
5.30592
5.21368
5.11594
5.03309
4.99844
4.94875
4.8785
4.7695
4.64401
4.49655
4.33143
4.16163
3.99581
4.88051
4.73846
4.59571
4.45145
4.30753
4.17419
4.04481
3.91555
3.79108
3.67049
3.55661
3.44443
3.33562
3.23278
3.13763
3.03885
2.94472
2.85992
2.78549
2.70102
2.61812
2.55185
2.47854
2.41317
2.34167
2.28121
2.22571
2.16328
2.11481
2.0573
2.00682
1.95933
1.91072
1.87116
1.82236
1.78361
1.74175
1.70373
1.66781
1.63093
1.59885
1.56601
1.53696
1.50629
1.47798
1.44664
1.41567
1.38031
1.35945
1.34288
1.3262
1.30687
1.28663
1.26646
1.24547
1.22172
1.18949
1.16124
1.14763
1.13852
1.13129
1.12304
1.1124
1.0988
1.07112
1.09785
3.05213
5.11438
5.30123
5.32122
5.35981
5.3929
5.4027
5.3873
5.34814
5.27782
5.18408
5.09187
5.01675
4.97013
4.93167
4.85605
4.74036
4.59876
4.4499
4.301
4.15406
4.00847
4.93383
4.79117
4.64954
4.5065
4.36955
4.23671
4.10541
3.97796
3.85399
3.73863
3.62414
3.51269
3.40525
3.30389
3.20564
3.10701
3.01219
2.92753
2.85263
2.76537
2.68473
2.61294
2.54661
2.47285
2.4012
2.34565
2.28312
2.22869
2.17132
2.11496
2.0662
2.01242
1.97002
1.9201
1.87568
1.83526
1.79147
1.7568
1.71617
1.68208
1.64595
1.61336
1.58176
1.54931
1.51704
1.48403
1.45506
1.42537
1.40706
1.38825
1.36718
1.34279
1.3224
1.30182
1.27936
1.24958
1.21191
1.19531
1.18628
1.17621
1.16814
1.15938
1.1471
1.13143
1.10723
1.07687
1.49455
4.39099
5.25939
5.31867
5.36788
5.38975
5.39041
5.36799
5.31944
5.24128
5.14819
5.05864
4.99185
4.94241
4.89722
4.83785
4.72613
4.56678
4.41988
4.28263
4.14597
4.01459
4.98619
4.84094
4.70172
4.56721
4.43099
4.29509
4.16399
4.03885
3.92069
3.80264
3.68877
3.57864
3.47358
3.37315
3.27118
3.17387
3.07937
2.99675
2.91621
2.83005
2.74783
2.67732
2.61092
2.53203
2.46428
2.40358
2.34738
2.2894
2.22634
2.17444
2.11896
2.07127
2.02227
1.97125
1.93115
1.88466
1.84659
1.80673
1.76727
1.73085
1.69188
1.66082
1.62559
1.59245
1.55662
1.52493
1.49486
1.47264
1.45424
1.43203
1.40851
1.38253
1.35727
1.33205
1.3056
1.27002
1.24592
1.2381
1.22896
1.21782
1.20656
1.19257
1.17487
1.15534
1.1328
1.09004
1.10246
2.71236
5.03215
5.32363
5.34929
5.36619
5.36672
5.33943
5.27919
5.19561
5.1077
5.02859
4.96841
4.92086
4.87019
4.80464
4.70179
4.5493
4.39262
4.2753
4.16426
4.06279
5.03842
4.89254
4.75367
4.61908
4.48505
4.35117
4.22212
4.10203
3.98188
3.86457
3.74908
3.64083
3.53979
3.43594
3.33688
3.2378
3.14713
3.06296
2.97642
2.89394
2.81318
2.74296
2.67145
2.59385
2.52476
2.46621
2.4106
2.34525
2.28445
2.2273
2.17631
2.12754
2.0717
2.0286
1.98173
1.93895
1.90005
1.8552
1.81795
1.77583
1.7408
1.70639
1.66897
1.63327
1.59696
1.56982
1.54186
1.52148
1.49814
1.4723
1.44347
1.41754
1.39229
1.36562
1.33371
1.29818
1.28689
1.27901
1.26724
1.25568
1.24386
1.22802
1.20638
1.17831
1.14705
1.11211
1.09847
1.40175
4.09704
5.29686
5.33771
5.36085
5.34953
5.30696
5.23249
5.14548
5.06846
5.00524
4.95367
4.90273
4.84724
4.77556
4.67837
4.54971
4.40041
4.2759
4.17757
4.08342
5.07984
4.94011
4.80526
4.67023
4.53621
4.40431
4.28199
4.16139
4.04276
3.92558
3.81351
3.70837
3.60071
3.49794
3.39678
3.30211
3.21536
3.12518
3.04046
2.95515
2.87744
2.80622
2.72966
2.65615
2.58834
2.52894
2.46849
2.40124
2.33796
2.284
2.23439
2.17739
2.12853
2.08003
2.0338
1.99508
1.94707
1.90673
1.86385
1.8229
1.79011
1.74871
1.7126
1.67419
1.64317
1.61636
1.59079
1.56817
1.53908
1.51069
1.48036
1.45192
1.42215
1.39388
1.36053
1.33941
1.3333
1.3227
1.30843
1.292
1.27388
1.25334
1.2299
1.19881
1.16284
1.14434
1.12781
1.14256
2.30329
4.99082
5.35276
5.3424
5.329
5.2758
5.19295
5.10981
5.04777
5.00115
4.95902
4.90749
4.84307
4.76192
4.6588
4.53419
4.3994
4.27462
4.17417
4.07993
5.12512
4.99177
4.85549
4.72013
4.586
4.46227
4.3408
4.22101
4.10274
3.98618
3.87844
3.76966
3.66447
3.55969
3.45926
3.36951
3.27636
3.18889
3.1018
3.01677
2.94325
2.86471
2.79014
2.71905
2.65065
2.59035
2.52355
2.45551
2.39582
2.34172
2.28683
2.23348
2.1808
2.13175
2.09121
2.04219
1.99783
1.95391
1.90859
1.87501
1.83273
1.79329
1.75531
1.71849
1.69296
1.66393
1.63936
1.60982
1.57751
1.54623
1.51502
1.4859
1.45473
1.42594
1.39614
1.38539
1.37687
1.36228
1.34589
1.32797
1.30575
1.27999
1.24968
1.21149
1.18681
1.18129
1.17113
1.15928
1.32697
3.76274
5.25621
5.30781
5.27618
5.21914
5.14697
5.0834
5.03921
5.00585
4.9698
4.92074
4.85294
4.76128
4.64827
4.52357
4.40083
4.28806
4.18815
4.08789
5.17476
5.0405
4.90439
4.76768
4.64314
4.52042
1.07472
0.371032
0.175268
0.165911
0.179322
0.229771
0.33113
0.447164
0.539389
0.566499
0.588202
0.594594
0.595582
0.62191
0.677661
0.730917
0.747321
0.736333
0.734411
0.752163
0.788282
0.818072
0.823708
0.821639
0.816465
0.81949
0.830376
0.858637
0.897732
0.923227
1.7894
1.02114
0.71587
0.540048
0.422839
0.388037
0.390027
0.398651
0.415626
0.426217
0.448132
0.487205
0.53078
0.573479
0.6209
0.671317
0.714304
0.719576
0.720357
0.736713
0.765277
0.798396
0.817909
0.822812
0.82639
0.832446
0.841231
0.857881
0.886448
0.912194
2.30634
1.52564
1.10842
0.874006
0.695645
0.537962
0.436339
0.419111
0.416268
0.412103
0.423757
0.46645
0.518231
0.554188
0.575913
0.606474
0.659281
0.710982
0.737769
0.761852
0.784057
0.80618
0.812786
0.815124
0.825488
0.843055
0.857771
0.869179
0.883607
0.900618
2.65572
1.96763
1.45738
1.15889
0.994251
0.823912
0.621195
0.547234
0.544564
0.52381
0.485004
0.47279
0.480987
0.494231
0.507171
0.532956
0.584924
0.650033
0.701655
0.731372
0.755345
0.78366
0.799638
0.815249
0.842441
0.872261
0.880859
0.880346
0.880297
0.886029
2.87901
2.3062
1.82056
1.42844
1.21984
1.06922
0.898317
0.716372
0.641107
0.622737
0.584459
0.531729
0.509363
0.507101
0.51064
0.515711
0.533912
0.579859
0.635105
0.671577
0.696675
0.729366
0.764293
0.793694
0.829167
0.864121
0.880973
0.885837
0.88554
0.889143
3.03985
2.53848
2.11184
1.7307
1.44035
1.25595
1.12339
0.971095
0.806652
0.741052
0.721766
0.669204
0.616626
0.594371
0.569413
0.545662
0.5473
0.558894
0.582909
0.599618
0.615831
0.652481
0.705833
0.754611
0.792201
0.827791
0.849968
0.864321
0.871151
0.878384
3.17527
2.72755
2.33382
1.99214