/*--------------------------------*- C++ -*----------------------------------*\
  =========                 |
  \\      /  F ield         | OpenFOAM: The Open Source CFD Toolbox
   \\    /   O peration     | Website:  https://openfoam.org
    \\  /    A nd           | Version:  7
     \\/     M anipulation  |
\*---------------------------------------------------------------------------*/
FoamFile
{
    version     2.0;
    format      ascii;
    class       volScalarField;
    location    "1.7";
    object      p;
}
// * * * * * * * * * * * * * * * * * * * * * * * * * * * * * * * * * * * * * //

dimensions      [1 -1 -2 0 0 0 0];

internalField   nonuniform List<scalar> 
16192
(
1
1
1
1
1
1
1
1
1
1
1
1
1
1
1
1
1
1
1
1
1
1
1
1
1
1
1
1
1
1
1
1
1
1
1
1
1
1
1
1
1
1
1
1
1
1
1
1
1
1
1
1
1
1
1
1
1
1
1
1
1
1
1
1
1
1
1
1
1
1
1
1
1
1
1
1
1
1
1
1
1
1
1
1
1
1
1
1
1
1
1
1
1
1
1
1
1
1
1
1
1
1
1
1
1
1
1
1
1
1
1
1
1
1
1
1
1
1
1
1
1
1
1
1
1
1
1
1
1
1
1
1
1
1
1
1
1
1
1
1
1
1
1
1
1
1
1
1
1
1
1
1
1
1
1
1
1
1
1
1
1
1
1
1
1
1
1
1
1
1
1
1
1
1
1
1
1
1
1
1
1
1
1
1
1
1
1
1
1
1
1
1
1
1
1
1
1
1
1
1
1
1
1
1
1
1
1
1
1
1
1
1
1
1
1
1
1
1
1
1
1
1
1
1
1
1
1
1
1
1
1
1
1
1
1
1
1
1
1
1
1
1
1
1
1
1
1
1
1
1
1
1
1
1
1
1
1
1
1
1
1
1
1
1
1
1
1
1
1
1
1
1
1
1
1
1
1
1
1
1
1
1
1
1
1
1
1
1
1
1
1
1
1
1
1
1
1
1
1
1
1
1
1
1
1
1
1
1
1
1
1
1
1
1
1
1
1
1
1
1
1
1
1
1
1
1
1
1
1
1
1
1
1
1
1
1
1
1
1
1
1
1
1
1
1
1
1
1
1
1
1
1
1
1
1
1
1
1
1
1
1
1
1
1
1
1
1
1
1
1
1
1
1
1
1
1
1
1
1
1
1
1
1
1
1
1
1
1
1
1
1
1
1
1
1
1
1
1
1
1
1
1
1
1
1
1
1
1
1
1
1
1
1
1
1
1
1
1
1
1
1
1
1
1
1
1
1
1
1
1
1
1
1
1
1
1
1
1
1
1
1
1
1
1
1
1
1
1
1
1
1
1
1
1
1
1
1
1
1
1
1
1
1
1
1
1
1
1
1
1
1
1
1
1
1
1
1
1
1
1
1
1
1
1
1
1
1
1
1
1
1
1
1
1
1
1
1
1
1
1
1
1
1
1
1
1
1
1
1
1
1
1
1
1
1
1
1
1
1
1
1
1
1
1
1
1
1
1
1
1
1
1
1
1
1
1
1
1
1
1
1
1
1
1
1
1
1
1
1
1
1
1
1
1
1
1
1
1
1
1
1
1
1
1
1
1
1
1
1
1
1
1
1
1
1
1
1
1
1
1
1
1
1
1
1
1
1
1
1
1
1
1
1
1
1
1
1
1
1
1
1
1
1
1
1
1
1
1
1
1
1
1
1
1
1
1
1
1
1
1
1
1
1
1
1
1
1
1
1
1
1
1
1
1
1
1
1
1
1
1
1
1
1
1
1
1
1
1
1
1
1
1
1
1
1
1
1
1
1
1
1
1
1
1
1
1
1
1
1
1
1
1
1
1
1
1
1
1
1
1
1
1
1
1
1
1
1
1
1
1
1
1
1
1
1
1
1
1
1
1
1
1
1
1
1
1
1
1
1
1
1
1
1
1
1
1
1
1
1
1
1
1
1
1
1
1
1
1
1
1
1
1
1
1
1
1
1
1
1
1
1
1
1
1
1
1
1
1
1
1
1
1
1
1
1
1
1
1
1
1
1
1
1
1
1
1
1
1
1
1
1
1
1
1
1
1
1
1
1
1
1
1
1
1
1
1
1
1
1
1
1
1
1
1
1
1
1
1
1
1
1
1
1
1
1
1
1
1
1
1
1
1
1
1
1
1
1
1
1
1
1
1
1
1
1
1
1
1
1
1
1
1
1
1
1
1
1
1
1
1
1
1
1
1
1
1
1
1
1
1
1
1
1
1
1
1
1
1
1
1
1
1
1
1
1
1
1
1
1
1
1
1
1
1
1
1
1
1
1
1
1
1
1
1
1
1
1
1
1
1
1
1
1
1
1
1
1
1
1
1
1
1
1
1
1
1
1
1
1
1
1
1
1
1
1
1
1
1
1
1
1
1
1
1
1
1
1
1
1
1
1
1
1
1
1
1
1
1
1
1
1
1
1
1
1
1
1
1
1
1
1
1
1
1
1
1
1
1
1
1
1
1
1
1
1
1
1
1
1
1
1
1
1
1
1
1
1
1
1
1
1
1
1
1
1
1
1
1
1
1
1
1
1
1
1
1
1
1
1
1
1
1
1
1
1
1
1
1
1
1
1
1
1
1
1
1
1
1
1
1
1
1
1
1
1
1
1
1
1
1
1
1
1
1
1
1
1
1
1
1
1
1
1
1
1
1
1
1
1
1
1
1
1
1
1
1
1
1
1
1
1
1
1
1
1
1
1
1
1
1
1
1
1
1
1
1
1
1
1
1
1
1
1
1
1
1
1
1
1
1
1
1
1
1
1
1
1
1
1
1
1
1
1
1
1
1
1
1
1
1
1
1
1
1
1
1
1
1
1
1
1
1
1
1
1
1
1
1
1
1
1
1
1
1
1
1
1
1
1
1
1
1
1
1
1
1
1
1
1
1
1
1
1
1
1
1
1
1
1
1
1
1
1
1
1
1
1
1
1
1
1
1
1
1
1
1
1
1
1
1
1
1
1
1
1
1
1
1
1
1
1
1
1
1
1
1
1
1
1
1
1
1
1
1
1
1
1
1
1
1
1
1
1
1
1
1
1
1
1
1
1
1
1
1
1
1
1
1
1
1
1
1
1
1
1
1
1
1
1
1
1
1
1
1
1
1
1
1
1
1
1
1
1
1
1
1
1
1
1
1
1
1
1
1
1
1
1
1
1
1
1
1
1
1
1
1
1
1
1
1
1
1
1
1
1
1
1
1
1
1
1
1
1
1
1.00024
1.01174
1.25169
2.52847
3.70199
4.32783
4.59944
4.61946
4.60181
4.55691
4.4943
4.47961
4.48921
4.5028
4.43602
4.39683
4.39549
4.38751
4.34268
4.29419
4.2805
4.26849
4.23085
4.19052
4.16141
4.13049
4.12005
4.12023
4.10912
4.0803
4.05516
4.03666
4.02919
4.02543
4.01177
3.98635
3.95484
3.92466
3.89993
3.87436
3.84877
3.82015
3.77907
3.75658
3.75421
3.75412
3.76473
3.78366
3.80937
3.85111
3.89396
3.91395
3.92087
3.91451
3.88326
3.85836
3.84419
3.82375
3.80082
3.77751
3.75052
3.71874
3.69835
3.69086
3.68771
3.68389
3.66937
3.64505
3.6083
3.5828
3.57205
3.56611
3.56369
3.57609
3.59032
3.58286
3.56421
3.53493
3.48744
3.453
3.44288
3.44047
3.43664
3.42747
3.40727
3.36754
3.33071
3.32101
3.31616
3.30977
3.30174
3.29132
3.27705
3.25035
3.20328
3.16757
3.16284
3.16738
3.17686
3.17083
3.14963
3.10933
3.05526
3.02001
3.01124
3.01172
3.0263
3.02997
3.02393
3.00881
2.97139
2.91883
2.88912
2.88329
2.88444
2.89366
2.89226
2.88328
2.86736
2.837
2.79188
2.75777
2.74571
2.74572
2.76008
2.77249
2.76744
2.74911
2.71339
2.66882
2.64329
2.63417
2.6327
2.63866
2.63843
2.62951
2.60731
2.56643
2.5264
2.51211
2.51343
2.53723
2.58069
2.59268
2.5835
2.55894
2.4995
2.40709
2.35928
2.34534
2.34269
2.35176
2.39002
2.42934
2.43455
2.42772
2.41484
2.38836
2.33225
2.27914
2.26148
2.25984
2.26718
2.2871
2.2923
2.28702
2.28063
2.27281
2.2604
2.23561
2.19917
2.17818
2.16912
2.1613
2.15523
2.14996
2.14328
2.13298
1
1
1
1
1
1
1
1
1
1
1
1
1
1
1
1
1
1
1
1
1
1
1
1
1
1
1
1
1
1
1
1
1
1
1
1
1
1
1
1
1
1
1
1
1
1
1
1
1
1
1
1
1
1.00014
1.01088
1.26197
2.18711
3.28012
4.4217
4.6738
4.59482
4.52074
4.51719
4.51663
4.52398
4.46205
4.42806
4.42518
4.41912
4.37565
4.32678
4.3088
4.30765
4.27605
4.23273
4.2059
4.18516
4.16493
4.16154
4.15879
4.13279
4.1024
4.08727
4.07325
4.06258
4.04613
4.01926
3.9872
3.95507
3.9292
3.90908
3.88985
3.86957
3.84052
3.79812
3.78152
3.77538
3.77216
3.77869
3.79028
3.81321
3.854
3.8952
3.91797
3.92659
3.9191
3.89535
3.88157
3.86485
3.84168
3.81623
3.78936
3.75827
3.73174
3.72263
3.71798
3.71126
3.69446
3.66679
3.62988
3.60477
3.5939
3.58822
3.58686
3.60156
3.61857
3.61159
3.59122
3.55977
3.51032
3.47673
3.46582
3.46228
3.4592
3.45131
3.4362
3.40347
3.36324
3.34782
3.34249
3.33492
3.32657
3.31804
3.30666
3.2863
3.24752
3.20959
3.20277
3.20525
3.20897
3.20076
3.1791
3.14034
3.08792
3.05289
3.04374
3.04422
3.06075
3.06766
3.06113
3.04465
3.00372
2.94738
2.91767
2.91227
2.91398
2.92139
2.91878
2.91052
2.89599
2.8661
2.82239
2.7896
2.77895
2.77914
2.79276
2.80126
2.79485
2.7757
2.73803
2.69306
2.6692
2.66191
2.66107
2.66781
2.6674
2.65832
2.637
2.59755
2.55766
2.54292
2.54401
2.567
2.6067
2.61503
2.6054
2.58131
2.52181
2.43104
2.38511
2.37183
2.37022
2.38272
2.42315
2.45455
2.45469
2.44718
2.43532
2.41194
2.36108
2.30569
2.28591
2.28378
2.28857
2.30635
2.31173
2.30663
2.30059
2.29372
2.28514
2.27166
2.24329
2.2034
2.18021
2.17049
2.16313
2.15699
2.15143
2.14685
2.13933
1
1
1
1
1
1
1
1
1
1
1
1
1
1
1
1
1
1
1
1
1
1
1
1
1
1
1
1
1
1
1
1
1
1
1
1
1
1
1
1
1
1
1
1
1
1
1
1
1
1
1
1
1
1
1.00014
1.0104
1.14225
1.67484
3.2005
4.4769
4.45852
4.51975
4.54235
4.53001
4.48305
4.45833
4.46083
4.45649
4.40801
4.36495
4.34286
4.33864
4.31291
4.27822
4.25678
4.24553
4.21836
4.20847
4.2096
4.19023
4.15382
4.13286
4.11816
4.09817
4.0784
4.05351
4.02087
3.98512
3.95659
3.93938
3.92837
3.91653
3.89335
3.85429
3.81863
3.80726
3.79726
3.79199
3.79404
3.80331
3.82664
3.86355
3.89516
3.91305
3.91818
3.9125
3.89987
3.89004
3.8772
3.85837
3.83544
3.80655
3.77566
3.76344
3.75557
3.74432
3.72211
3.69073
3.65414
3.62941
3.618
3.61269
3.61283
3.63021
3.64769
3.64077
3.61834
3.58235
3.53003
3.49875
3.48766
3.48367
3.48168
3.47467
3.46278
3.43731
3.39547
3.37127
3.36396
3.35905
3.35057
3.34127
3.33151
3.31856
3.29373
3.25557
3.24564
3.24277
3.23693
3.22401
3.20238
3.16799
3.11929
3.08573
3.07674
3.07713
3.09478
3.10537
3.09928
3.08075
3.03694
2.97608
2.94475
2.9398
2.94206
2.94846
2.94536
2.93811
2.92556
2.89668
2.85357
2.82172
2.81231
2.81263
2.82502
2.82953
2.82238
2.80258
2.76327
2.71827
2.69558
2.68966
2.68961
2.69687
2.69616
2.6871
2.66679
2.62911
2.58961
2.57408
2.57463
2.5958
2.63092
2.63637
2.62662
2.60309
2.54506
2.45664
2.41142
2.39919
2.3986
2.41411
2.45431
2.47729
2.47378
2.46605
2.45551
2.43524
2.39085
2.3335
2.31026
2.3075
2.30982
2.32369
2.33028
2.32658
2.32166
2.31579
2.30914
2.30026
2.27979
2.23856
2.197
2.17932
2.17105
2.16526
2.16025
2.15744
2.15891
2.16802
1
1
1
1
1
1
1
1
1
1
1
1
1
1
1
1
1
1
1
1
1
1
1
1
1
1
1
1
1
1
1
1
1
1
1
1
1
1
1
1
1
1
1
1
1
1
1
1
1
1
1
1
1
1
1
1.00007
1.00296
1.05257
1.53694
3.13992
4.08214
4.39482
4.58363
4.55349
4.51257
4.51547
4.50848
4.44246
4.39934
4.38385
4.37185
4.34443
4.31924
4.3098
4.31302
4.28826
4.25745
4.25431
4.24509
4.20759
4.17813
4.16017
4.13641
4.10898
4.08867
4.05897
4.01989
3.98688
3.97138
3.96336
3.9578
3.93951
3.90352
3.86373
3.84565
3.83473
3.82376
3.81649
3.81571
3.82593
3.84771
3.87351
3.89037
3.89678
3.89729
3.89824
3.89576
3.89222
3.88926
3.87981
3.86321
3.83721
3.81552
3.80205
3.7842
3.75492
3.71853
3.68235
3.65699
3.64561
3.64092
3.64339
3.66399
3.67915
3.67085
3.64691
3.60536
3.54792
3.51961
3.50904
3.5051
3.50429
3.49856
3.48883
3.46868
3.42893
3.39558
3.38441
3.37777
3.37463
3.36603
3.35651
3.34646
3.33297
3.31114
3.28623
3.26998
3.25628
3.24075
3.22176
3.19207
3.1492
3.11815
3.10954
3.11011
3.12957
3.14351
3.13746
3.11688
3.07037
3.00526
2.97159
2.96595
2.96819
2.97452
2.97206
2.96596
2.95563
2.92865
2.88559
2.85375
2.84531
2.84573
2.85653
2.85776
2.85003
2.82968
2.78918
2.74409
2.72255
2.7176
2.71817
2.72543
2.72433
2.71554
2.69672
2.66076
2.62173
2.60563
2.60524
2.62379
2.65409
2.65722
2.64745
2.62455
2.56895
2.48432
2.43927
2.42746
2.42786
2.44523
2.48303
2.49833
2.49272
2.48466
2.47493
2.45786
2.42131
2.36375
2.33482
2.33082
2.33036
2.3396
2.34874
2.34681
2.34334
2.33891
2.33332
2.32658
2.31074
2.27198
2.21657
2.18899
2.18018
2.17419
2.17118
2.16819
2.17943
2.2045
2.29168
1
1
1
1
1
1
1
1
1
1
1
1
1
1
1
1
1
1
1
1
1
1
1
1
1
1
1
1
1
1
1
1
1
1
1
1
1
1
1
1
1
1
1
1
1
1
1
1
1
1
1
1
1
1
1
1
1.00001
1.00093
1.03401
1.48741
2.88112
3.83642
4.42916
4.59521
4.59153
4.53914
4.47295
4.43549
4.42062
4.41628
4.378
4.35625
4.35176
4.36636
4.34897
4.3042
4.28591
4.28451
4.25555
4.22154
4.20182
4.17943
4.14767
4.12146
4.09883
4.06287
4.02594
4.00831
4.00109
3.99586
3.97915
3.94647
3.90786
3.88638
3.87653
3.86839
3.85537
3.84837
3.84845
3.85595
3.86724
3.87668
3.87638
3.86103
3.86843
3.87884
3.88726
3.89919
3.90842
3.90723
3.89747
3.87705
3.85658
3.83297
3.79704
3.75411
3.7153
3.68843
3.67778
3.67383
3.67996
3.70242
3.71294
3.7026
3.67694
3.6313
3.56858
3.54011
3.52982
3.52563
3.52764
3.52394
3.51548
3.49951
3.46284
3.42113
3.40505
3.39674
3.39286
3.39216
3.38436
3.37579
3.36689
3.35555
3.33333
3.2976
3.27229
3.25594
3.23875
3.2133
3.17809
3.15038
3.14231
3.14328
3.1645
3.18142
3.17491
3.15161
3.10284
3.0342
2.99899
2.99176
2.99294
2.99951
2.99906
2.99408
2.98594
2.96183
2.91818
2.88518
2.87751
2.8779
2.88676
2.886
2.87791
2.85733
2.81608
2.77018
2.74985
2.74572
2.74681
2.75374
2.75227
2.74429
2.72673
2.69215
2.65355
2.63689
2.63575
2.6513
2.67705
2.67828
2.66819
2.64524
2.59209
2.5132
2.46957
2.45756
2.45847
2.47558
2.50793
2.51793
2.51181
2.50367
2.49445
2.48047
2.45126
2.39619
2.35973
2.35342
2.35167
2.35491
2.36551
2.36802
2.36575
2.36254
2.35771
2.35186
2.3385
2.30241
2.23814
2.19993
2.19055
2.1849
2.18173
2.1831
2.20223
2.26711
2.49632
3.275
1
1
1
1
1
1
1
1
1
1
1
1
1
1
1
1
1
1
1
1
1
1
1
1
1
1
1
1
1
1
1
1
1
1
1
1
1
1
1
1
1
1
1
1
1
1
1
1
1
1
1
1
1
1
1
1
1
1
1.00054
1.03049
1.42366
2.36943
3.57561
4.53158
4.59572
4.47876
4.47285
4.47053
4.45827
4.4117
4.38754
4.38387
4.40518
4.3897
4.33892
4.3125
4.31304
4.30059
4.26121
4.23931
4.22213
4.19733
4.16158
4.13824
4.11126
4.07474
4.05273
4.04121
4.03301
4.01534
3.98491
3.94971
3.92831
3.92034
3.91706
3.90625
3.89501
3.88951
3.88287
3.87839
3.87549
3.86574
3.83868
3.82284
3.83649
3.8542
3.88192
3.91803
3.93459
3.93502
3.9286
3.91091
3.88485
3.84646
3.79924
3.75466
3.72498
3.71524
3.71259
3.72258
3.74359
3.74811
3.73594
3.70881
3.66051
3.59342
3.56148
3.55059
3.5461
3.5496
3.55197
3.54434
3.53039
3.4967
3.449
3.42651
3.4178
3.41158
3.41383
3.41439
3.4076
3.40054
3.39206
3.37241
3.33399
3.29495
3.272
3.2544
3.23299
3.20606
3.18272
3.17538
3.17727
3.2002
3.21835
3.21104
3.18521
3.13433
3.06184
3.02641
3.01808
3.01768
3.02415
3.02689
3.02244
3.01596
2.99498
2.95107
2.91596
2.90815
2.90852
2.91561
2.9136
2.90561
2.88565
2.84421
2.79735
2.77738
2.7739
2.77559
2.7821
2.78022
2.77307
2.7565
2.72263
2.68462
2.66756
2.66575
2.67833
2.70007
2.6999
2.68949
2.66624
2.61456
2.54145
2.50115
2.49007
2.49121
2.50674
2.53075
2.53606
2.53066
2.52329
2.51453
2.50293
2.47981
2.4312
2.38571
2.37475
2.37267
2.37249
2.3808
2.38894
2.38929
2.38673
2.3824
2.37682
2.36469
2.33112
2.26207
2.21425
2.20183
2.1984
2.19389
2.19967
2.23677
2.39098
2.92247
4.03431
5.3158
1
1
1
1
1
1
1
1
1
1
1
1
1
1
1
1
1
1
1
1
1
1
1
1
1
1
1
1
1
1
1
1
1
1
1
1
1
1
1
1
1
1
1
1
1
1
1
1
1
1
1
1
1
1
1
1
1
1
1
1.00048
1.02084
1.19756
1.89987
3.6085
4.36848
4.38664
4.47137
4.52243
4.45832
4.41579
4.40973
4.43525
4.42731
4.37042
4.33811
4.33786
4.34173
4.30196
4.27148
4.2674
4.25048
4.20986
4.17683
4.15956
4.12891
4.10007
4.08354
4.07015
4.05153
4.02285
3.99091
3.97154
3.96641
3.96744
3.96013
3.94748
3.93652
3.92067
3.90341
3.88776
3.86739
3.83373
3.79619
3.79599
3.81515
3.84536
3.88949
3.94402
3.95569
3.95629
3.95011
3.92878
3.89316
3.8495
3.80252
3.76924
3.75942
3.75763
3.76967
3.78592
3.78378
3.77066
3.7422
3.69286
3.62383
3.58661
3.57397
3.5692
3.5724
3.58117
3.57532
3.56182
3.52916
3.47885
3.45032
3.4404
3.43381
3.43527
3.44422
3.44117
3.435
3.42717
3.40807
3.36823
3.31806
3.28896
3.27133
3.25314
3.2329
3.21444
3.20827
3.21211
3.23697
3.25329
3.24404
3.21709
3.16548
3.08967
3.05332
3.04402
3.0424
3.05026
3.05717
3.05235
3.04632
3.02658
2.98334
2.94608
2.9372
2.93709
2.94291
2.94022
2.93247
2.91391
2.87362
2.82564
2.80508
2.80217
2.8044
2.81093
2.80879
2.80218
2.78597
2.75193
2.71438
2.69737
2.6951
2.7054
2.72342
2.72205
2.7114
2.68783
2.63743
2.56968
2.53216
2.5227
2.52504
2.53991
2.55445
2.55373
2.54942
2.54365
2.53546
2.52527
2.50721
2.4672
2.41426
2.39534
2.39283
2.39145
2.39661
2.40887
2.41328
2.4115
2.40747
2.4019
2.39044
2.35859
2.28793
2.23147
2.21613
2.21173
2.21042
2.22089
2.30606
2.65747
3.59458
4.89773
5.90046
6.00762
1
1
1
1
1
1
1
1
1
1
1
1
1
1
1
1
1
1
1
1
1
1
1
1
1
1
1
1
1
1
1
1
1
1
1
1
1
1
1
1
1
1
1
1
1
1
1
1
1
1
1
1
1
1
1
1
1
1
1
1
1.00017
1.00535
1.09081
1.77599
3.36726
4.08293
4.4026
4.54424
4.49262
4.46032
4.47708
4.46377
4.39832
4.36866
4.36722
4.38163
4.33565
4.30346
4.3039
4.29567
4.25755
4.2163
4.20136
4.18071
4.1477
4.12511
4.10803
4.08737
4.05978
4.03083
4.01534
4.01318
4.01724
4.01134
3.99786
3.9814
3.96097
3.93648
3.91284
3.88612
3.84591
3.79542
3.78182
3.78694
3.81109
3.84958
3.91096
3.95607
3.96234
3.96093
3.95232
3.92976
3.89506
3.85325
3.8217
3.81203
3.80981
3.81914
3.82807
3.82122
3.80624
3.77672
3.72799
3.65927
3.61696
3.60167
3.59682
3.60031
3.61288
3.60903
3.59554
3.5621
3.50978
3.47594
3.46413
3.4587
3.46125
3.47563
3.47537
3.46928
3.46139
3.44209
3.40077
3.34119
3.30765
3.2905
3.2746
3.25827
3.24503
3.24037
3.24812
3.27467
3.28544
3.27343
3.24672
3.19447
3.1169
3.08012
3.07
3.06724
3.07591
3.09066
3.08663
3.07825
3.05632
3.01346
2.97548
2.96474
2.9639
2.96867
2.96617
2.95884
2.94177
2.90343
2.85509
2.83324
2.83044
2.83308
2.84031
2.83841
2.83192
2.81516
2.78009
2.74257
2.72623
2.72363
2.73219
2.74733
2.74492
2.73402
2.71006
2.66075
2.59823
2.56358
2.55547
2.55845
2.57255
2.57976
2.57455
2.56915
2.56425
2.55737
2.54798
2.53357
2.50183
2.44678
2.41656
2.41242
2.41047
2.41328
2.42759
2.43743
2.43656
2.43275
2.4275
2.41693
2.3859
2.31532
2.25033
2.23414
2.22794
2.22851
2.25729
2.46374
3.16798
4.42078
5.65238
6.23096
6.12187
6.01855
1
1
1
1
1
1
1
1
1
1
1
1
1
1
1
1
1
1
1
1
1
1
1
1
1
1
1
1
1
1
1
1
1
1
1
1
1
1
1
1
1
1
1
1
1
1
1
1
1
1
1
1
1
1
1
1
1
1
1
1
1
1.00003
1.00214
1.0628
1.69945
3.11929
3.95931
4.43909
4.54875
4.53292
4.47585
4.42361
4.40435
4.40282
4.42513
4.36692
4.32681
4.32642
4.32652
4.29376
4.25868
4.2396
4.23084
4.19755
4.16815
4.14696
4.12484
4.09882
4.07378
4.06051
4.0613
4.06401
4.05688
4.04221
4.02017
3.99776
3.97361
3.94661
3.91739
3.87503
3.81836
3.78635
3.78246
3.79015
3.82317
3.87414
3.9205
3.94407
3.95097
3.95218
3.94704
3.9282
3.89759
3.87429
3.86858
3.8692
3.87135
3.87026
3.86099
3.84325
3.81217
3.76596
3.69991
3.65292
3.63432
3.62915
3.63337
3.64891
3.64725
3.63366
3.59794
3.54241
3.50386
3.48969
3.48498
3.48895
3.50826
3.50906
3.5017
3.49347
3.47456
3.43458
3.36859
3.32777
3.3106
3.29595
3.28265
3.27395
3.27182
3.28671
3.31258
3.31686
3.30175
3.27386
3.21915
3.14251
3.10694
3.09682
3.0935
3.10189
3.12455
3.12384
3.11219
3.08615
3.0414
3.00276
2.99119
2.98983
2.99344
2.99165
2.98471
2.96888
2.93284
2.88514
2.86208
2.85905
2.8621
2.8703
2.86885
2.8621
2.84353
2.80698
2.76969
2.7542
2.75153
2.75899
2.77193
2.7686
2.75764
2.73315
2.6848
2.62644
2.59522
2.58844
2.59176
2.60456
2.60711
2.59962
2.59028
2.58476
2.57926
2.57126
2.5594
2.53415
2.48289
2.44041
2.43181
2.42934
2.43027
2.44495
2.46148
2.46225
2.45849
2.45355
2.44381
2.4137
2.34301
2.27308
2.25077
2.24849
2.25408
2.33954
2.79763
3.91476
5.2619
6.21461
6.36301
6.19468
6.07769
6.05735
1
1
1
1
1
1
1
1
1
1
1
1
1
1
1
1
1
1
1
1
1
1
1
1
1
1
1
1
1
1
1
1
1
1
1
1
1
1
1
1
1
1
1
1
1
1
1
1
1
1
1
1
1
1
1
1
1
1
1
1
1
1
1.00001
1.00139
1.05936
1.59439
2.58202
3.77113
4.53144
4.51446
4.43085
4.44804
4.45224
4.45756
4.39444
4.35307
4.35037
4.35982
4.32736
4.29381
4.27752
4.28189
4.25379
4.21451
4.19139
4.16887
4.14185
4.11987
4.1099
4.1089
4.10511
4.09782
4.08051
4.05005
4.02827
4.00833
3.98385
3.95586
3.91466
3.85812
3.81172
3.79581
3.79583
3.81351
3.85772
3.891
3.90876
3.92388
3.93395
3.93869
3.93928
3.92836
3.91745
3.91856
3.92808
3.9271
3.91578
3.90279
3.88169
3.84895
3.80543
3.745
3.69469
3.67233
3.66634
3.67036
3.68798
3.68859
3.67517
3.63751
3.57822
3.53532
3.51897
3.51435
3.51842
3.53755
3.53915
3.5308
3.52165
3.50417
3.46872
3.40164
3.35031
3.33087
3.31706
3.30662
3.30095
3.3045
3.32808
3.35063
3.34804
3.32977
3.2988
3.24003
3.16684
3.13421
3.12446
3.12112
3.13022
3.15768
3.1605
3.1458
3.11636
3.06867
3.0295
3.01713
3.01529
3.01809
3.01683
3.00997
2.99502
2.96199
2.91604
2.89157
2.88814
2.8918
2.90148
2.90013
2.89233
2.87068
2.83222
2.79593
2.78149
2.77894
2.78619
2.79767
2.79394
2.7827
2.75729
2.70938
2.65567
2.6273
2.62186
2.62574
2.63701
2.63735
2.62742
2.61249
2.60516
2.60065
2.59435
2.58431
2.56462
2.52104
2.46804
2.45108
2.44831
2.44781
2.4609
2.48413
2.48895
2.48516
2.48067
2.47126
2.44243
2.36967
2.29712
2.27133
2.27036
2.29532
2.53736
3.39196
4.77438
5.96355
6.49613
6.48481
6.25567
6.12136
6.10703
6.21212
1
1
1
1
1
1
1
1
1
1
1
1
1
1
1
1
1
1
1
1
1
1
1
1
1
1
1
1
1
1
1
1
1
1
1
1
1
1
1
1
1
1
1
1
1
1
1
1
1
1
1
1
1
1
1
1
1
1
1
1
1
1
1
1.00001
1.00121
1.0368
1.27509
2.10968
3.83455
4.32043
4.37726
4.46121
4.51778
4.43569
4.38817
4.38908
4.41405
4.37565
4.32933
4.31309
4.32437
4.2989
4.25405
4.24082
4.23053
4.19759
4.16815
4.15811
4.1563
4.14415
4.13301
4.11254
4.07877
4.05352
4.03786
4.01918
3.99569
3.95991
3.90482
3.85246
3.82832
3.82385
3.83155
3.85435
3.87998
3.88793
3.89128
3.89471
3.90786
3.92427
3.93688
3.9446
3.95559
3.97139
3.97629
3.96499
3.94581
3.91991
3.88635
3.84577
3.7928
3.74139
3.71564
3.7089
3.71194
3.72909
3.73065
3.71764
3.67934
3.61696
3.57056
3.55268
3.54785
3.5508
3.56455
3.56455
3.55666
3.54688
3.53103
3.50057
3.43873
3.3763
3.35167
3.33896
3.33132
3.32829
3.3403
3.37106
3.38725
3.3794
3.35734
3.32181
3.25819
3.19181
3.16264
3.15322
3.15049
3.16127
3.19137
3.19633
3.17854
3.14681
3.0965
3.05582
3.0426
3.04021
3.04251
3.04205
3.03501
3.0206
2.99034
2.94668
2.92147
2.91757
2.92158
2.93322
2.93188
2.92215
2.8972
2.85641
2.82145
2.80826
2.80597
2.81367
2.82436
2.82041
2.80906
2.78255
2.7348
2.68499
2.65998
2.65596
2.66263
2.67214
2.6693
2.65506
2.63527
2.62575
2.62165
2.61685
2.60871
2.59372
2.55809
2.50069
2.47225
2.46805
2.46618
2.47556
2.5053
2.51697
2.5132
2.50882
2.49974
2.46963
2.39875
2.31872
2.29558
2.30043
2.39681
2.93285
4.20761
5.56458
6.49121
6.6344
6.54778
6.30277
6.17155
6.15515
6.26341
6.43337
1
1
1
1
1
1
1
1
1
1
1
1
1
1
1
1
1
1
1
1
1
1
1
1
1
1
1
1
1
1
1
1
1
1
1
1
1
1
1
1
1
1
1
1
1
1
1
1
1
1
1
1
1
1
1
1
1
1
1
1
1
1
1
1
1
1.00036
1.00952
1.13567
2.02157
3.57937
4.13235
4.42256
4.54302
4.47249
4.45106
4.46622
4.42008
4.36458
4.34962
4.36773
4.33728
4.28734
4.27777
4.28429
4.25652
4.22043
4.20739
4.20612
4.18798
4.16121
4.13641
4.10538
4.07772
4.06318
4.05099
4.0329
4.00417
3.95357
3.89861
3.87123
3.86735
3.87071
3.87641
3.88386
3.8836
3.87697
3.86749
3.8725
3.89379
3.91961
3.94468
3.97289
3.995
4.00194
3.99932
3.98424
3.95761
3.92513
3.88808
3.84211
3.79134
3.76321
3.75566
3.75838
3.77324
3.77326
3.76004
3.72102
3.65694
3.60847
3.59011
3.58539
3.58674
3.59209
3.58899
3.58111
3.57103
3.55697
3.53078
3.4772
3.40949
3.37632
3.36443
3.35878
3.35908
3.38038
3.41349
3.42176
3.40949
3.38436
3.343
3.27584
3.21863
3.19296
3.1839
3.1821
3.19589
3.22655
3.23041
3.21046
3.17672
3.12336
3.08167
3.06797
3.06516
3.06669
3.06706
3.06001
3.04586
3.01803
2.97725
2.9515
2.94713
2.95111
2.96428
2.96304
2.95116
2.92344
2.88022
2.84657
2.83464
2.8326
2.8412
2.85172
2.84745
2.83581
2.80852
2.76056
2.71403
2.69194
2.68923
2.69852
2.70735
2.70134
2.68094
2.65669
2.64611
2.64257
2.63893
2.6326
2.62115
2.59291
2.53735
2.49608
2.48863
2.48609
2.49122
2.52174
2.54604
2.54386
2.53838
2.52898
2.49781
2.42538
2.34308
2.32277
2.3501
2.63686
3.59701
5.08069
6.21484
6.73676
6.76018
6.60797
6.33533
6.21247
6.20044
6.31119
6.48589
6.49864
1
1
1
1
1
1
1
1
1
1
1
1
1
1
1
1
1
1
1
1
1
1
1
1
1
1
1
1
1
1
1
1
1
1
1
1
1
1
1
1
1
1
1
1
1
1
1
1
1
1
1
1
1
1
1
1
1
1
1
1
1
1
1
1
1
1
1.00006
1.00414
1.10817
1.95382
3.22943
4.03403
4.47283
4.54707
4.4993
4.43595
4.39493
4.37901
4.40151
4.37854
4.31827
4.30844
4.32285
4.30217
4.26814
4.25289
4.25184
4.23545
4.19549
4.1644
4.13748
4.10689
4.09081
4.08313
4.06741
4.04246
3.99956
3.94734
3.91624
3.91434
3.91965
3.91435
3.9069
3.89756
3.87438
3.85923
3.85826
3.86901
3.89179
3.92275
3.95816
3.99352
4.00502
4.00639
4.00379
3.9894
3.96425
3.93237
3.89187
3.84306
3.81428
3.80582
3.80882
3.82092
3.81815
3.80256
3.76161
3.69596
3.64706
3.62913
3.6252
3.62556
3.62215
3.61517
3.60704
3.59707
3.58383
3.56202
3.5173
3.44945
3.40756
3.395
3.39056
3.39502
3.42408
3.45384
3.4545
3.43919
3.41046
3.36193
3.29505
3.2477
3.22449
3.21697
3.21686
3.23426
3.26247
3.26298
3.24133
3.20551
3.14953
3.10784
3.0938
3.09044
3.09093
3.09177
3.08486
3.07133
3.04548
3.00775
2.98173
2.97692
2.98062
2.99433
2.99303
2.97946
2.94967
2.90418
2.87154
2.86071
2.85881
2.86896
2.87994
2.87523
2.8627
2.83395
2.78561
2.74272
2.72366
2.72181
2.73229
2.73933
2.7309
2.70761
2.67876
2.66611
2.66305
2.66077
2.65615
2.64737
2.62584
2.57661
2.52427
2.51
2.50724
2.5094
2.53646
2.57186
2.57511
2.5693
2.55819
2.52724
2.45257
2.36777
2.3601
2.47568
3.09127
4.46568
5.81346
6.70574
6.87268
6.84489
6.64414
6.37259
6.26227
6.25227
6.3643
6.54108
6.55402
6.49168
1
1
1
1
1
1
1
1
1
1
1
1
1
1
1
1
1
1
1
1
1
1
1
1
1
1
1
1
1
1
1
1
1
1
1
1
1
1
1
1
1
1
1
1
1
1
1
1
1
1
1
1
1
1
1
1
1
1
1
1
1
1
1
1
1
1
1
1.00003
1.0031
1.10035
1.68293
2.63573
3.96376
4.51331
4.44985
4.42681
4.42813
4.42918
4.40319
4.34837
4.33709
4.35489
4.338
4.30303
4.2896
4.29198
4.27951
4.23512
4.19686
4.17508
4.14714
4.12201
4.1171
4.10496
4.07588
4.03988
3.9961
3.9619
3.95845
3.96347
3.95827
3.94348
3.92547
3.89191
3.86499
3.85764
3.86349
3.87915
3.90294
3.92785
3.95478
3.98347
3.9957
4.00192
4.00412
3.99217
3.97025
3.93833
3.89701
3.87026
3.86194
3.865
3.8713
3.86538
3.84578
3.80121
3.73448
3.68557
3.66776
3.66471
3.66434
3.65602
3.64585
3.63591
3.62586
3.61405
3.59699
3.55942
3.49469
3.44491
3.43044
3.42716
3.43545
3.46875
3.49143
3.48683
3.46808
3.4351
3.38047
3.31753
3.27871
3.25794
3.25263
3.25555
3.27686
3.29926
3.29375
3.27047
3.23297
3.17563
3.13449
3.12008
3.11619
3.11593
3.117
3.11055
3.09758
3.07313
3.03827
3.01238
3.00723
3.01063
3.02397
3.0223
3.00722
2.97564
2.92828
2.89663
2.88627
2.88459
2.89688
2.90898
2.90387
2.88983
2.85945
2.81022
2.7707
2.75371
2.75288
2.76486
2.76931
2.75901
2.73364
2.70175
2.68686
2.68408
2.68304
2.67993
2.67308
2.65724
2.61552
2.55635
2.53228
2.52919
2.52991
2.55295
2.59505
2.60472
2.59893
2.5881
2.55623
2.48312
2.39832
2.4244
2.76416
3.81537
5.32424
6.40436
6.94329
6.97975
6.91892
6.68281
6.40941
6.30848
6.30053
6.41645
6.59826
6.61257
6.54874
6.40375
1
1
1
1
1
1
1
1
1
1
1
1
1
1
1
1
1
1
1
1
1
1
1
1
1
1
1
1
1
1
1
1
1
1
1
1
1
1
1
1
1
1
1
1
1
1
1
1
1
1
1
1
1
1
1
1
1
1
1
1
1
1
1
1
1
1
1
1
1.00002
1.00223
1.04574
1.29782
2.31821
3.95231
4.26331
4.38208
4.47218
4.45716
4.3876
4.37323
4.39984
4.38306
4.33019
4.31511
4.32283
4.32018
4.27314
4.22948
4.21584
4.19903
4.1606
4.14668
4.14206
4.114
4.07484
4.04005
4.00636
4.00028
4.00322
3.99863
3.98217
3.9606
3.92687
3.89048
3.87422
3.87518
3.8896
3.9002
3.90781
3.91579
3.93515
3.9641
3.98213
3.99594
4.00154
3.99266
3.9741
3.94703
3.92857
3.92475
3.9306
3.92675
3.91541
3.88947
3.84236
3.77399
3.72295
3.70477
3.70228
3.70258
3.69306
3.68051
3.66874
3.65868
3.64864
3.6351
3.60418
3.54459
3.48872
3.46976
3.46738
3.47858
3.51244
3.5274
3.51915
3.49673
3.45874
3.3993
3.34356
3.31132
3.29384
3.2904
3.29764
3.32185
3.33495
3.32368
3.29764
3.25795
3.20139
3.1625
3.14761
3.14318
3.14217
3.14328
3.13743
3.12469
3.10121
3.06845
3.04363
3.03801
3.04128
3.05373
3.05131
3.03501
3.00157
2.95252
2.92216
2.9116
2.91014
2.92462
2.93854
2.93321
2.91763
2.88536
2.83497
2.79771
2.78251
2.78196
2.79469
2.79817
2.78593
2.75908
2.72561
2.70872
2.70591
2.70614
2.70451
2.6987
2.68702
2.65255
2.59161
2.55666
2.55194
2.55162
2.57115
2.61624
2.63326
2.62743
2.61622
2.58697
2.50549
2.44613
2.58179
3.28281
4.71475
6.00163
6.82772
7.08719
7.07889
6.96426
6.71455
6.45021
6.36076
6.35574
6.47153
6.65464
6.67101
6.60779
6.4636
6.26432
1
1
1
1
1
1
1
1
1
1
1
1
1
1
1
1
1
1
1
1
1
1
1
1
1
1
1
1
1
1
1
1
1
1
1
1
1
1
1
1
1
1
1
1
1
1
1
1
1
1
1
1
1
1
1
1
1
1
1
1
1
1
1
1
1
1
1
1
1
1.00001
1.00048
1.01201
1.18616
2.23656
3.62068
4.159
4.43123
4.48649
4.44979
4.45046
4.42067
4.35506
4.33673
4.34741
4.35187
4.29603
4.26501
4.25641
4.24317
4.20166
4.17422
4.17139
4.15693
4.11486
4.07878
4.04935
4.03836
4.03921
4.03746
4.02035
3.99774
3.96742
3.93059
3.91047
3.90901
3.91422
3.91206
3.90834
3.89401
3.89765
3.9141
3.94009
3.96222
3.9818
3.99397
3.99089
3.98238
3.97839
3.98692
3.99483
3.9849
3.9658
3.93154
3.88584
3.81822
3.76116
3.74097
3.73884
3.7396
3.73041
3.71854
3.70653
3.69705
3.68855
3.67772
3.65149
3.59443
3.53508
3.51218
3.51023
3.52295
3.55449
3.56256
3.55167
3.5255
3.48136
3.41943
3.37203
3.34493
3.33174
3.33083
3.34462
3.36721
3.36994
3.353
3.32274
3.27897
3.22661
3.19212
3.17677
3.17188
3.17044
3.17137
3.16628
3.1537
3.12955
3.09804
3.07471
3.06939
3.07262
3.08384
3.08031
3.06274
3.02752
2.97701
2.94773
2.9372
2.93593
2.95257
2.96854
2.96283
2.94577
2.91157
2.86051
2.82544
2.81105
2.81018
2.82327
2.82672
2.81279
2.78387
2.74918
2.73182
2.72888
2.73016
2.73069
2.72565
2.71631
2.68748
2.6286
2.58387
2.57567
2.57456
2.59163
2.63745
2.65898
2.6548
2.64248
2.61886
2.53481
2.54746
2.92718
4.07616
5.53841
6.53313
7.07504
7.1766
7.15699
7.01492
6.74736
6.49311
6.41273
6.41023
6.52966
6.71489
6.73089
6.66591
6.51975
6.31921
6.22871
1
1
1
1
1
1
1
1
1
1
1
1
1
1
1
1
1
1
1
1
1
1
1
1
1
1
1
1
1
1
1
1
1
1
1
1
1
1
1
1
1
1
1
1
1
1
1
1
1
1
1
1
1
1
1
1
1
1
1
1
1
1
1
1
1
1
1
1
1
1
1
1.00011
1.00677
1.16061
2.05752
3.16951
4.03683
4.46403
4.52018
4.45489
4.38325
4.36774
4.37346
4.37174
4.31067
4.29051
4.28913
4.28044
4.2403
4.20757
4.2005
4.19735
4.15989
4.11635
4.09563
4.07849
4.07446
4.07399
4.06096
4.03449
4.00872
3.97761
3.9558
3.95384
3.95086
3.93758
3.91811
3.89484
3.88022
3.88334
3.89365
3.90983
3.93691
3.96635
3.98315
3.99343
4.00904
4.03291
4.04343
4.03216
4.0084
3.97432
3.93152
3.86967
3.80578
3.7772
3.77402
3.77557
3.76724
3.758
3.74922
3.74155
3.7347
3.72499
3.69992
3.64386
3.58271
3.55618
3.55391
3.5665
3.5947
3.5977
3.58475
3.55515
3.50523
3.44194
3.40164
3.37947
3.37116
3.37406
3.39607
3.41313
3.40711
3.38215
3.34484
3.29597
3.24992
3.22177
3.20743
3.20244
3.20115
3.20219
3.19764
3.18478
3.15882
3.12742
3.10595
3.10072
3.10436
3.11387
3.10931
3.09072
3.05337
3.00223
2.97389
2.96334
2.9624
2.98125
2.99904
2.99287
2.97415
2.9377
2.88622
2.85382
2.84017
2.83891
2.85182
2.85549
2.84073
2.80986
2.77282
2.75508
2.75178
2.75422
2.75968
2.75524
2.74576
2.71967
2.66404
2.61311
2.6002
2.59924
2.61331
2.6589
2.68398
2.68021
2.66933
2.63684
2.59091
2.74534
3.51862
5.00628
6.17152
6.87057
7.23528
7.27362
7.22068
7.05754
6.78333
6.54056
6.46729
6.4674
6.59017
6.77633
6.79335
6.72682
6.57785
6.37584
6.28419
6.26103
1
1
1
1
1
1
1
1
1
1
1
1
1
1
1
1
1
1
1
1
1
1
1
1
1
1
1
1
1
1
1
1
1
1
1
1
1
1
1
1
1
1
1
1
1
1
1
1
1
1
1
1
1
1
1
1
1
1
1
1
1
1
1
1
1
1
1
1
1
1
1
1
1.00006
1.00533
1.11571
1.6219
2.61728
4.07448
4.47229
4.38128
4.38822
4.40905
4.38903
4.32405
4.30819
4.31794
4.31911
4.27713
4.24632
4.23729
4.23887
4.20225
4.15916
4.13898
4.12606
4.11039
4.10666
4.10449
4.07662
4.04776
4.02722
4.00353
3.99447
3.98754
3.96974
3.94047
3.90892
3.88261
3.87366
3.87547
3.8831
3.9006
3.92781
3.95453
3.97773
4.01269
4.04864
4.06307
4.06047
4.04359
4.01452
3.97844
3.92555
3.85811
3.81731
3.81005
3.80998
3.80536
3.79882
3.79493
3.79151
3.78675
3.77697
3.7494
3.69145
3.62921
3.6005
3.5974
3.60828
3.63199
3.63189
3.61771
3.58646
3.53195
3.46871
3.43293
3.41484
3.40992
3.42008
3.44986
3.46056
3.44751
3.41274
3.36491
3.31223
3.27377
3.25012
3.23839
3.23459
3.2356
3.23688
3.2319
3.2179
3.1888
3.15685
3.13716
3.1324
3.13634
3.14373
3.13788
3.11826
3.07942
3.02832
3.00056
2.99036
2.99002
3.01112
3.03015
3.02313
3.00252
2.96352
2.91242
2.88258
2.86981
2.86851
2.88122
2.88464
2.8691
2.8369
2.79749
2.77908
2.77532
2.77762
2.78888
2.78766
2.77739
2.7514
2.69785
2.64316
2.62617
2.625
2.63759
2.68036
2.70813
2.70273
2.69819
2.66046
2.71421
3.16489
4.4011
5.80244
6.62545
7.106
7.34024
7.35652
7.27947
7.10746
6.81731
6.58989
6.52595
6.52761
6.65366
6.84036
6.85468
6.78626
6.63663
6.43425
6.3423
6.31826
6.34534
1
1
1
1
1
1
1
1
1
1
1
1
1
1
1
1
1
1
1
1
1
1
1
1
1
1
1
1
1
1
1
1
1
1
1
1
1
1
1
1
1
1
1
1
1
1
1
1
1
1
1
1
1
1
1
1
1
1
1
1
1
1
1
1
1
1
1
1
1
1
1
1
1
1.00004
1.00234
1.03929
1.30341
2.47874
3.94351
4.208
4.35749
4.45283
4.38197
4.33329
4.34041
4.35949
4.31186
4.28247
4.27704
4.28301
4.23961
4.20243
4.18887
4.18061
4.15356
4.13766
4.13551
4.1243
4.08862
4.06791
4.05488
4.03565
4.01999
4.00395
3.97597
3.93653
3.90333
3.88154
3.87412
3.87603
3.88357
3.90139
3.92511
3.94958
3.98745
4.03699
4.05614
4.06356
4.06113
4.04482
4.01669
3.97584
3.91719
3.86363
3.85014
3.84696
3.84642
3.84404
3.8441
3.8452
3.84235
3.83054
3.79757
3.73742
3.6745
3.6449
3.64087
3.64935
3.66751
3.66491
3.65016
3.61811
3.56147