/*--------------------------------*- C++ -*----------------------------------*\
  =========                 |
  \\      /  F ield         | OpenFOAM: The Open Source CFD Toolbox
   \\    /   O peration     | Website:  https://openfoam.org
    \\  /    A nd           | Version:  7
     \\/     M anipulation  |
\*---------------------------------------------------------------------------*/
FoamFile
{
    version     2.0;
    format      ascii;
    class       volScalarField;
    location    "2.2";
    object      p;
}
// * * * * * * * * * * * * * * * * * * * * * * * * * * * * * * * * * * * * * //

dimensions      [1 -1 -2 0 0 0 0];

internalField   nonuniform List<scalar> 
16512
(
0.943358
0.955792
0.9758
1.00362
1.02876
1.04315
1.0513
1.05399
1.05515
1.05964
1.07012
1.09062
1.10948
1.11631
1.11938
1.12125
1.12168
1.12444
1.13192
1.14553
1.169
1.1936
1.20991
1.21861
1.22187
1.22503
1.23025
1.24061
1.25892
1.27251
1.27504
1.27483
1.27228
1.26603
1.26357
1.26614
1.27177
1.28269
1.29021
1.293
1.29406
1.29707
1.30146
1.30751
1.31907
1.33698
1.35082
1.35709
1.36106
1.36385
1.36443
1.36393
1.36324
1.36338
1.36416
1.36332
1.36172
1.35906
1.3553
1.35235
1.35194
1.35446
1.36136
1.37057
1.37601
1.3783
1.37952
1.38044
1.38152
1.38262
1.38365
1.38441
1.38496
1.38534
1.38516
1.3849
1.38449
1.3838
1.38261
1.38053
1.37752
1.375
1.37372
1.37255
1.37221
1.37395
1.37643
1.37995
1.38387
1.38775
1.39205
1.39588
1.3951
1.39289
1.38955
1.38415
1.37771
1.37278
1.37131
1.3724
1.37429
1.37769
1.38163
1.38567
1.38956
1.39102
1.38954
1.38654
1.38117
1.3742
1.36792
1.36435
1.36307
1.36238
1.36219
1.36313
1.36556
1.36891
1.37031
1.36956
1.36778
1.36446
1.35906
1.35373
1.35086
1.34905
1.34728
1.34551
1.34412
1.34446
1.34656
1.34852
1.34902
1.34819
1.34594
1.34058
1.33411
1.33102
1.32869
1.32614
1.32358
1.32171
1.32029
1.31877
1.3173
1.3159
1.31446
1.31291
1.31133
1.30984
1.30864
1.30771
1.30727
1.30734
1.30742
1.30681
1.30505
1.30254
1.29951
1.29637
1.29341
1.29066
1.28874
1.2878
1.28728
1.2878
1.28972
1.29148
1.29214
1.29188
1.29076
1.28898
1.28602
1.28297
1.28054
1.27833
1.2768
1.27659
1.27692
1.27622
1.2754
1.27446
1.27316
1.27162
1.27031
1.26997
1.27018
1.27087
1.27149
1.27136
1.2702
1.2671
1.26136
1.25712
1.25554
1.25511
1.25675
1.26028
1.26206
1.26216
1.26212
1.26165
1.25969
1.25553
1.25121
1.24942
1.24896
1.24914
1.24964
1.25031
1.25076
1.25106
1.25028
1.2479
1.24559
1.24443
1.24371
1.24311
1.24244
1.2417
1.24095
1.24014
1.23918
1.23805
1.23715
1.23648
1.23571
1.23495
1.23428
1.23316
1.23215
1.23111
1.23013
1.22923
1.22905
1.2295
1.22999
1.2308
1.23223
1.2338
1.23511
1.23646
1.23798
1.2379
1.2369
1.23573
1.23348
1.22868
1.22144
1.2161
1.21429
1.21354
1.21282
1.21248
1.21265
1.2133
1.21281
1.21217
0.945112
0.954886
0.967482
0.983354
1.00191
1.02048
1.0353
1.04667
1.05589
1.06432
1.07494
1.08948
1.10366
1.11443
1.12231
1.12747
1.13208
1.13655
1.14366
1.15493
1.16989
1.18314
1.19245
1.19826
1.20239
1.20643
1.21151
1.22077
1.2374
1.2559
1.26422
1.26683
1.26839
1.2692
1.27175
1.27685
1.28431
1.29601
1.3039
1.30725
1.30919
1.31042
1.31393
1.31773
1.32356
1.33273
1.3404
1.34367
1.3458
1.3473
1.35033
1.35328
1.3563
1.36094
1.36596
1.36815
1.36896
1.36917
1.36784
1.36518
1.36336
1.36347
1.36533
1.36827
1.3701
1.37123
1.37273
1.37513
1.37841
1.38126
1.382
1.38164
1.38106
1.3802
1.37961
1.37953
1.38005
1.38103
1.38166
1.38182
1.38089
1.37964
1.37927
1.37913
1.37878
1.37905
1.37971
1.38011
1.38069
1.38171
1.38379
1.38606
1.38777
1.38773
1.38691
1.38551
1.38387
1.38184
1.37967
1.37785
1.37681
1.37662
1.37725
1.37881
1.38081
1.38289
1.38445
1.38405
1.38254
1.38009
1.37642
1.37185
1.3679
1.36561
1.3641
1.36324
1.3637
1.36533
1.36662
1.3673
1.36724
1.36607
1.3636
1.35997
1.35707
1.355
1.35265
1.34984
1.34733
1.34605
1.34613
1.3459
1.34487
1.34336
1.34033
1.33532
1.33147
1.32953
1.32777
1.32607
1.32474
1.32371
1.32216
1.3206
1.31902
1.3172
1.31515
1.31287
1.31039
1.30801
1.30599
1.30433
1.30306
1.30231
1.30214
1.30224
1.30246
1.30278
1.30246
1.30108
1.29903
1.29621
1.29278
1.28976
1.28793
1.2869
1.28682
1.28737
1.28649
1.28544
1.28447
1.28329
1.28215
1.28104
1.27994
1.27916
1.27939
1.28087
1.28116
1.28024
1.27926
1.27802
1.27624
1.2738
1.27103
1.26865
1.26692
1.26567
1.26504
1.26473
1.26456
1.26477
1.26454
1.2632
1.26121
1.26009
1.26005
1.25979
1.25913
1.25828
1.25741
1.2565
1.25521
1.25373
1.25293
1.25328
1.25355
1.25322
1.25242
1.25181
1.25193
1.25184
1.25043
1.24816
1.24688
1.24646
1.2461
1.24599
1.24599
1.24559
1.24502
1.24435
1.24349
1.24246
1.2413
1.24021
1.23926
1.2383
1.23737
1.23614
1.23478
1.23339
1.23196
1.23039
1.22899
1.22838
1.22855
1.22876
1.22941
1.23021
1.23095
1.2321
1.23374
1.23393
1.23304
1.23213
1.2305
1.22789
1.224
1.22042
1.21843
1.21733
1.21622
1.21514
1.21424
1.21359
1.21225
1.21098
0.952831
0.967737
0.981937
0.99186
1.00085
1.01119
1.02218
1.03387
1.048
1.06473
1.0816
1.09462
1.10323
1.11023
1.11699
1.12375
1.13184
1.14237
1.15601
1.17394
1.19119
1.1998
1.20402
1.2057
1.20674
1.20832
1.21114
1.21696
1.22736
1.24166
1.25169
1.25585
1.25935
1.26283
1.26771
1.27395
1.28329
1.29647
1.30504
1.30895
1.31267
1.31695
1.32233
1.32947
1.33897
1.34644
1.34816
1.3485
1.34658
1.34227
1.3403
1.34079
1.34277
1.34857
1.35667
1.36256
1.36598
1.36845
1.37048
1.37149
1.37268
1.37507
1.37745
1.37766
1.37682
1.3762
1.37612
1.37667
1.37905
1.3834
1.38528
1.38477
1.38371
1.38146
1.37832
1.37557
1.37394
1.37389
1.3748
1.37553
1.37559
1.37579
1.37659
1.37812
1.38066
1.38378
1.38668
1.38862
1.38942
1.38953
1.38796
1.38438
1.38123
1.37894
1.37793
1.37855
1.38011
1.38223
1.3847
1.38691
1.38761
1.38602
1.3824
1.37767
1.37378
1.37161
1.37095
1.37213
1.37439
1.37576
1.37585
1.37483
1.37274
1.3714
1.37054
1.36957
1.36896
1.36824
1.36664
1.36544
1.36478
1.36375
1.362
1.3596
1.35824
1.35759
1.35703
1.35714
1.35739
1.3562
1.35373
1.35036
1.34584
1.34038
1.33468
1.33006
1.32744
1.32556
1.32372
1.32204
1.32146
1.32175
1.32163
1.32139
1.32103
1.32034
1.31946
1.31827
1.31662
1.31425
1.31123
1.30753
1.30314
1.29875
1.29546
1.29361
1.29301
1.29468
1.29734
1.2993
1.30042
1.30054
1.29964
1.29818
1.29597
1.29295
1.28953
1.28633
1.28333
1.28057
1.27828
1.27664
1.27551
1.27477
1.27427
1.27458
1.2765
1.27963
1.28076
1.28074
1.28101
1.28147
1.28158
1.28075
1.2784
1.27419
1.26876
1.26368
1.25955
1.25666
1.25548
1.25612
1.25937
1.26299
1.26575
1.26717
1.26682
1.26526
1.26241
1.25817
1.25338
1.24908
1.24629
1.24615
1.24789
1.2504
1.25333
1.2561
1.25714
1.25674
1.25535
1.25247
1.24805
1.24435
1.24333
1.24337
1.24352
1.24395
1.2445
1.24498
1.24483
1.24436
1.24378
1.24305
1.24209
1.24122
1.24059
1.23996
1.23943
1.2388
1.23795
1.23725
1.23654
1.2355
1.23405
1.2323
1.23028
1.22845
1.22718
1.2263
1.2259
1.22657
1.22787
1.22779
1.22686
1.22584
1.22433
1.22271
1.22104
1.2198
1.21947
1.21914
1.21899
1.21905
1.2191
1.21841
1.21665
1.21432
0.947664
0.965209
0.978086
0.986772
0.993794
1.00045
1.00768
1.01777
1.03351
1.05412
1.07506
1.09174
1.10328
1.11163
1.11831
1.12468
1.13099
1.13887
1.1525
1.17331
1.1899
1.19559
1.19901
1.201
1.20176
1.20445
1.2077
1.2132
1.22364
1.23667
1.24654
1.25193
1.25622
1.26072
1.26682
1.27509
1.28587
1.29764
1.30374
1.30653
1.30896
1.31158
1.316
1.32256
1.33157
1.33965
1.34272
1.34422
1.34416
1.34277
1.34258
1.3436
1.347
1.35532
1.36404
1.36874
1.37054
1.37149
1.37214
1.37231
1.37288
1.37373
1.37389
1.37287
1.37086
1.36945
1.36923
1.36967
1.37154
1.37609
1.38005
1.38129
1.38218
1.383
1.3826
1.38114
1.38013
1.38003
1.38056
1.3807
1.37985
1.37845
1.37716
1.37688
1.37791
1.37939
1.38108
1.38258
1.38361
1.38515
1.38585
1.38482
1.38355
1.38277
1.38245
1.38182
1.38087
1.38046
1.38181
1.38403
1.38548
1.38515
1.38359
1.38134
1.37903
1.37734
1.37592
1.37467
1.37385
1.37338
1.373
1.37174
1.36924
1.36758
1.36702
1.36653
1.36654
1.36652
1.36546
1.36424
1.36268
1.36066
1.35832
1.35577
1.35406
1.35344
1.35304
1.35334
1.35424
1.3537
1.35184
1.34926
1.34562
1.34069
1.33605
1.3337
1.33231
1.33077
1.32903
1.32727
1.32546
1.32311
1.32074
1.31893
1.31741
1.31595
1.31474
1.31378
1.31297
1.31218
1.31122
1.30995
1.30816
1.30566
1.30269
1.29997
1.29793
1.29672
1.2964
1.29654
1.29675
1.29704
1.29703
1.29607
1.2945
1.29267
1.29057
1.28838
1.28627
1.28446
1.28318
1.28219
1.28137
1.2805
1.27951
1.27902
1.27984
1.28041
1.27969
1.27894
1.27831
1.27813
1.27797
1.27703
1.27513
1.27236
1.26935
1.2668
1.26456
1.26221
1.26011
1.25907
1.2596
1.2614
1.26398
1.26553
1.26517
1.26413
1.26246
1.25983
1.25678
1.25383
1.25105
1.24872
1.24844
1.24947
1.25063
1.25279
1.25475
1.25483
1.25384
1.25132
1.24767
1.24469
1.24317
1.24315
1.24333
1.24314
1.2429
1.24271
1.24243
1.2418
1.24109
1.24021
1.23923
1.23856
1.23809
1.23747
1.23674
1.23588
1.2351
1.23419
1.23322
1.23255
1.2321
1.23157
1.23127
1.23149
1.23146
1.23131
1.23149
1.23202
1.23184
1.23078
1.22946
1.22763
1.22537
1.22285
1.22012
1.21829
1.21765
1.21721
1.21711
1.21744
1.21746
1.21685
1.21591
1.2144
0.957518
0.96727
0.973075
0.978376
0.98304
0.98865
0.997479
1.0149
1.04122
1.06591
1.08379
1.09638
1.10483
1.11054
1.11467
1.11885
1.1244
1.13441
1.15319
1.1712
1.17888
1.18382
1.18804
1.19036
1.19098
1.19278
1.19654
1.20425
1.21832
1.23199
1.24121
1.24919
1.25816
1.26865
1.27973
1.28954
1.29761
1.30619
1.31256
1.31605
1.31921
1.32163
1.32419
1.32737
1.32992
1.33268
1.33451
1.335
1.33558
1.33717
1.33917
1.34239
1.34972
1.35959
1.36474
1.36657
1.36816
1.36998
1.37165
1.37327
1.37453
1.37457
1.3734
1.37138
1.36818
1.36611
1.36645
1.36744
1.37008
1.3762
1.38167
1.38309
1.38388
1.38435
1.38406
1.38342
1.38314
1.3834
1.38389
1.38418
1.38353
1.38192
1.38069
1.38022
1.38009
1.37985
1.37932
1.37858
1.37839
1.37868
1.37887
1.37929
1.38006
1.38149
1.38278
1.38363
1.38375
1.38326
1.38278
1.38231
1.38163
1.38046
1.37877
1.37706
1.37635
1.37647
1.37721
1.37769
1.37756
1.37735
1.37685
1.37522
1.37196
1.36859
1.36708
1.36637
1.36571
1.36485
1.36397
1.36316
1.36232
1.36117
1.35942
1.35725
1.35588
1.35508
1.35405
1.3525
1.35045
1.34802
1.34519
1.34194
1.3382
1.33454
1.33232
1.33097
1.32997
1.32934
1.32888
1.32856
1.3282
1.32684
1.32479
1.32246
1.31988
1.31712
1.3143
1.31168
1.30945
1.30765
1.3062
1.3051
1.3043
1.30374
1.30325
1.30281
1.30255
1.30218
1.30137
1.30006
1.29841
1.29653
1.29434
1.29174
1.28919
1.28708
1.28544
1.28433
1.28369
1.28301
1.2825
1.28227
1.28224
1.28234
1.28286
1.28448
1.28604
1.28555
1.28468
1.28356
1.28147
1.27825
1.27411
1.26999
1.2667
1.2645
1.26327
1.26278
1.26312
1.26376
1.26432
1.26482
1.26501
1.26454
1.26363
1.26231
1.26032
1.25835
1.25659
1.25518
1.25468
1.25461
1.25471
1.25436
1.25328
1.25382
1.25403
1.25394
1.25373
1.25341
1.2522
1.25022
1.24822
1.24634
1.24539
1.2462
1.24714
1.24761
1.24738
1.24683
1.24582
1.24459
1.24347
1.24237
1.24131
1.24064
1.24003
1.23926
1.23819
1.23658
1.23454
1.23228
1.22987
1.22768
1.22644
1.22602
1.22615
1.22701
1.22861
1.23043
1.23231
1.2336
1.23368
1.23317
1.23241
1.23125
1.22946
1.22712
1.22477
1.22258
1.22061
1.21939
1.21815
1.21666
1.21456
1.21226
1.21054
1.20936
0.946635
0.9529
0.959581
0.967506
0.97566
0.984405
0.9988
1.02225
1.04593
1.06139
1.07146
1.07884
1.08431
1.0903
1.09775
1.1045
1.11512
1.1331
1.15112
1.15992
1.16531
1.1707
1.17566
1.17976
1.18374
1.18876
1.1981
1.21548
1.23476
1.24654
1.25365
1.26061
1.26862
1.27599
1.28016
1.28402
1.29124
1.30205
1.3095
1.31283
1.31537
1.3167
1.31519
1.31342
1.31321
1.31479
1.31893
1.32304
1.32599
1.32929
1.33369
1.3401
1.34916
1.35795
1.36244
1.36437
1.36602
1.36789
1.36992
1.37208
1.37399
1.37517
1.37497
1.37329
1.37022
1.36775
1.36789
1.36861
1.37026
1.37452
1.3786
1.37965
1.37982
1.37966
1.37975
1.38002
1.38033
1.38064
1.38066
1.38001
1.37825
1.37608
1.3753
1.37566
1.37633
1.3771
1.37783
1.37861
1.3797
1.38098
1.38168
1.38204
1.38253
1.38328
1.38392
1.38408
1.38389
1.38369
1.38349
1.38326
1.38297
1.38237
1.38115
1.37934
1.37759
1.37654
1.37614
1.37596
1.37586
1.37583
1.3755
1.37391
1.37072
1.36719
1.36535
1.36451
1.36386
1.3633
1.36267
1.36189
1.36083
1.3591
1.35652
1.35425
1.35345
1.35325
1.35298
1.35231
1.35117
1.34932
1.34671
1.34347
1.33988
1.33649
1.33388
1.33159
1.32991
1.32913
1.32876
1.32853
1.32812
1.32691
1.32498
1.32231
1.31912
1.31609
1.31361
1.31176
1.31042
1.30935
1.30838
1.30751
1.30674
1.30597
1.30505
1.3039
1.30255
1.30147
1.30057
1.29955
1.29838
1.29705
1.29542
1.29354
1.2918
1.29011
1.2885
1.28711
1.28576
1.28426
1.28306
1.28245
1.28204
1.28193
1.28291
1.28487
1.28492
1.28434
1.28397
1.28321
1.2812
1.27742
1.27285
1.26954
1.26758
1.26618
1.26503
1.2644
1.26484
1.26559
1.26584
1.26558
1.2652
1.26433
1.26273
1.26088
1.25912
1.25771
1.25669
1.2562
1.256
1.25584
1.25567
1.25492
1.25315
1.25329
1.25374
1.25376
1.25315
1.25208
1.25069
1.2495
1.24866
1.24757
1.24614
1.24634
1.24707
1.24711
1.24646
1.24559
1.24454
1.24354
1.24271
1.24188
1.24121
1.24073
1.24012
1.23938
1.23848
1.23712
1.23518
1.23317
1.2314
1.22992
1.22882
1.22817
1.2278
1.22795
1.22924
1.23119
1.23197
1.2321
1.23219
1.23206
1.23143
1.22993
1.22777
1.22595
1.22455
1.2229
1.22092
1.21963
1.21847
1.2171
1.21538
1.21335
1.21167
1.21043
0.932258
0.937935
0.945432
0.955042
0.966047
0.98002
1.00029
1.02214
1.03837
1.04946
1.05645
1.06107
1.06562
1.07219
1.08133
1.09699
1.11707
1.13292
1.14293
1.14927
1.1544
1.15964
1.16509
1.1716
1.18105
1.1947
1.21336
1.23071
1.24007
1.24544
1.24944
1.25299
1.25659
1.25985
1.26306
1.26779
1.27862
1.28944
1.29394
1.29765
1.30064
1.30252
1.30273
1.30371
1.3066
1.31246
1.32083
1.32783
1.33243
1.33661
1.34187
1.34893
1.35767
1.3661
1.37097
1.37286
1.37388
1.37453
1.37532
1.37581
1.37593
1.37587
1.375
1.37271
1.36872
1.36445
1.36229
1.36207
1.36274
1.36527
1.36969
1.37338
1.37569
1.37797
1.38087
1.38355
1.3851
1.38584
1.38531
1.38327
1.3806
1.37877
1.37845
1.37887
1.37927
1.37948
1.37929
1.37899
1.37912
1.37979
1.3809
1.38204
1.38352
1.38534
1.38644
1.38641
1.38513
1.38317
1.38132
1.37973
1.37828
1.37716
1.37671
1.37671
1.37658
1.37639
1.37647
1.37644
1.37607
1.37523
1.37342
1.37025
1.36656
1.364
1.36295
1.36266
1.36246
1.36228
1.36196
1.36147
1.36054
1.35883
1.35677
1.35532
1.35436
1.35338
1.35221
1.35062
1.34836
1.34542
1.34228
1.33982
1.33815
1.33679
1.33553
1.33456
1.33402
1.33349
1.33268
1.33149
1.32949
1.32667
1.32339
1.31993
1.31659
1.31399
1.31258
1.31184
1.31144
1.31122
1.31086
1.31027
1.30957
1.30876
1.30761
1.30589
1.30372
1.30173
1.30008
1.29839
1.29634
1.29396
1.29176
1.29014
1.28905
1.28835
1.28797
1.2875
1.28672
1.28571
1.28527
1.28509
1.28513
1.28577
1.28694
1.28684
1.28602
1.2852
1.2839
1.28153
1.27721
1.27177
1.26812
1.26653
1.2657
1.26527
1.26556
1.26681
1.26855
1.26966
1.26953
1.26804
1.2655
1.2626
1.25994
1.25811
1.25722
1.25706
1.2574
1.25814
1.25897
1.25966
1.25943
1.25785
1.25504
1.25288
1.2521
1.25115
1.25003
1.24902
1.24861
1.24903
1.24956
1.24928
1.24816
1.24705
1.24607
1.24478
1.24334
1.24251
1.24203
1.24151
1.24095
1.2405
1.24036
1.24018
1.23952
1.23832
1.23665
1.23458
1.23262
1.23128
1.23028
1.22938
1.22871
1.22848
1.22875
1.2298
1.2316
1.23309
1.23365
1.23389
1.23378
1.23315
1.23178
1.22968
1.2274
1.22557
1.22382
1.22146
1.21878
1.21725
1.21617
1.21504
1.21385
1.21278
1.21237
1.21195
0.911716
0.917333
0.923716
0.932605
0.948992
0.976353
1.00418
1.02038
1.02717
1.03052
1.03266
1.03532
1.03973
1.04761
1.06842
1.10044
1.12076
1.12798
1.13301
1.13787
1.14205
1.14646
1.1529
1.16353
1.18187
1.20409
1.21923
1.2265
1.23142
1.23588
1.23962
1.24211
1.24302
1.24273
1.24662
1.25988
1.27437
1.2803
1.28354
1.28633
1.28962
1.29341
1.29823
1.30524
1.31537
1.32676
1.33538
1.34019
1.34296
1.34534
1.34824
1.35239
1.35731
1.36122
1.36342
1.36467
1.36533
1.36559
1.36651
1.36756
1.36753
1.36713
1.36687
1.36577
1.36348
1.3614
1.36055
1.3611
1.36306
1.36689
1.3724
1.37784
1.38216
1.38569
1.38829
1.38947
1.38985
1.38915
1.38656
1.38256
1.37974
1.37832
1.37718
1.37608
1.37513
1.37439
1.37404
1.37428
1.37501
1.37708
1.38091
1.38514
1.38839
1.38976
1.38951
1.3867
1.38163
1.37718
1.37456
1.37322
1.37311
1.37403
1.37659
1.37914
1.3799
1.37917
1.37757
1.37554
1.37315
1.37056
1.36793
1.36576
1.36476
1.36485
1.36581
1.36599
1.36533
1.3644
1.36333
1.3619
1.36015
1.35843
1.35703
1.35558
1.35358
1.3511
1.34859
1.34614
1.34377
1.34205
1.34128
1.34152
1.34313
1.34442
1.34437
1.34327
1.34081
1.33692
1.33255
1.32864
1.32537
1.32262
1.32031
1.3185
1.31729
1.3164
1.31555
1.3147
1.31383
1.31288
1.31203
1.31134
1.31087
1.31032
1.30927
1.30693
1.30343
1.30004
1.29701
1.29415
1.29185
1.29047
1.28973
1.29013
1.29174
1.29341
1.29432
1.29415
1.29285
1.29025
1.28811
1.28683
1.28605
1.28607
1.28581
1.28494
1.28391
1.28232
1.27955
1.27533
1.27037
1.267
1.26598
1.26574
1.26661
1.26909
1.27238
1.27494
1.2753
1.27378
1.27053
1.26561
1.26099
1.25814
1.25691
1.25664
1.25743
1.25983
1.26244
1.26387
1.26384
1.26204
1.25927
1.25594
1.25235
1.24943
1.24795
1.24717
1.2468
1.24681
1.24722
1.24791
1.2485
1.24861
1.24808
1.2468
1.24497
1.24313
1.24172
1.24054
1.2396
1.23923
1.23913
1.23935
1.23968
1.23947
1.23831
1.23633
1.23408
1.23217
1.23099
1.23035
1.22987
1.22961
1.22989
1.23082
1.23266
1.23503
1.23624
1.23618
1.23573
1.23494
1.23345
1.23159
1.2296
1.22762
1.22585
1.22428
1.22263
1.22055
1.21816
1.21653
1.21554
1.21458
1.21361
1.21287
1.21272
1.21245
0.894967
0.90258
0.912175
0.9257
0.945969
0.97251
0.993455
1.00312
1.00815
1.01248
1.01579
1.01974
1.02727
1.04105
1.06906
1.09962
1.11141
1.1168
1.12254
1.1294
1.13609
1.14277
1.15109
1.16515
1.1873
1.20509
1.21214
1.21472
1.21612
1.21901
1.223
1.22595
1.22778
1.23357
1.24691
1.26254
1.27071
1.27452
1.27785
1.28108
1.28473
1.28966
1.29893
1.31247
1.32435
1.33177
1.33702
1.34021
1.34207
1.34376
1.34599
1.34924
1.35296
1.35488
1.35589
1.35658
1.35611
1.35549
1.35607
1.35769
1.36149
1.3635
1.36409
1.36388
1.36328
1.36395
1.36549
1.36773
1.37087
1.37434
1.3771
1.37893
1.38039
1.38187
1.38322
1.3838
1.38395
1.38305
1.38044
1.37671
1.37357
1.37219
1.37164
1.37127
1.37109
1.37144
1.37234
1.37374
1.37627
1.381
1.38649
1.38908
1.38935
1.38853
1.38552
1.38028
1.37496
1.37228
1.37142
1.37181
1.37461
1.3792
1.38181
1.38183
1.38022
1.37688
1.37301
1.37021
1.36849
1.36758
1.36733
1.36834
1.3702
1.37082
1.36998
1.36786
1.3645
1.36108
1.35877
1.35724
1.35613
1.35534
1.35455
1.35338
1.35152
1.34905
1.34689
1.34575
1.34544
1.34635
1.34854
1.35038
1.35032
1.34901
1.3466
1.3428
1.33727
1.33129
1.32657
1.32341
1.32144
1.32032
1.31972
1.31929
1.31883
1.31805
1.31693
1.31545
1.31428
1.31348
1.31312
1.31334
1.31306
1.31172
1.30842
1.30333
1.29851
1.29499
1.29269
1.29159
1.29134
1.29289
1.29664
1.3006
1.30224
1.30149
1.29793
1.29237
1.2879
1.2844
1.28199
1.28073
1.28022
1.28097
1.28213
1.28182
1.28105
1.27959
1.27678
1.27263
1.27013
1.26979
1.27035
1.27239
1.27534
1.2773
1.277
1.27522
1.27192
1.2671
1.26163
1.25801
1.25646
1.25618
1.25727
1.26022
1.26353
1.26496
1.26444
1.26187
1.25811
1.25368
1.24984
1.24726
1.24598
1.24601
1.24664
1.24847
1.25054
1.25202
1.25292
1.25304
1.25264
1.25164
1.24965
1.24687
1.24393
1.24146
1.24006
1.23938
1.23909
1.23974
1.24116
1.24134
1.24093
1.23985
1.23748
1.23462
1.2331
1.23252
1.23225
1.2324
1.23325
1.23471
1.23656
1.23789
1.23788
1.23701
1.23516
1.23242
1.22976
1.22781
1.22648
1.22533
1.22427
1.22338
1.22262
1.22181
1.22083
1.21956
1.218
1.2164
1.21537
1.21476
1.21424
1.21434
1.21496
1.21489
0.87852
0.885914
0.895977
0.911615
0.936424
0.96294
0.97411
0.979829
0.985703
0.990825
0.995479
1.00232
1.01641
1.03979
1.06966
1.09111
1.09778
1.10264
1.10906
1.11626
1.12318
1.13065
1.14232
1.16543
1.18808
1.19781
1.2007
1.20208
1.20063
1.20254
1.20637
1.21027
1.21887
1.23613
1.25576
1.26375
1.26762
1.2708
1.27445
1.27822
1.28264
1.28984
1.30164
1.31301
1.32075
1.32703
1.33199
1.33515
1.33732
1.33945
1.34171
1.34495
1.34716
1.34757
1.34736
1.3458
1.34446
1.34544
1.3483
1.3546
1.36236
1.36558
1.36654
1.36709
1.36787
1.36932
1.37118
1.37314
1.37479
1.37583
1.3763
1.37657
1.37706
1.37758
1.37763
1.37732
1.37638
1.3741
1.37076
1.36915
1.36914
1.36962
1.3706
1.37182
1.37301
1.37452
1.37647
1.37872
1.38129
1.38367
1.38489
1.38532
1.38523
1.38416
1.38038
1.37441
1.37148
1.3707
1.37091
1.37357
1.37771
1.37915
1.37884
1.37749
1.3748
1.37135
1.36919
1.3684
1.36827
1.36956
1.37153
1.37215
1.37145
1.36935
1.36609
1.36218
1.35869
1.35648
1.35536
1.35487
1.35491
1.35532
1.35496
1.35429
1.35334
1.35213
1.35112
1.35067
1.35051
1.35011
1.3492
1.34777
1.3459
1.34347
1.33963
1.33477
1.33042
1.32671
1.32393
1.32231
1.32141
1.32081
1.32036
1.31985
1.31896
1.3177
1.31663
1.31589
1.31543
1.31557
1.31569
1.31471
1.31223
1.30808
1.303
1.29859
1.29569
1.2943
1.29383
1.29477
1.29849
1.3036
1.30646
1.30601
1.30304
1.29816
1.29248
1.28611
1.28058
1.27834
1.27752
1.27725
1.27824
1.28139
1.28436
1.28504
1.28473
1.28376
1.28163
1.27813
1.27644
1.27614
1.27604
1.27578
1.275
1.27378
1.27219
1.26967
1.2653
1.2608
1.25809
1.25718
1.25756
1.26009
1.26401
1.26607
1.26564
1.26343
1.25993
1.25562
1.25058
1.24749
1.24612
1.24597
1.24723
1.2508
1.25535
1.25873
1.25992
1.25959
1.25758
1.25392
1.25034
1.24804
1.24638
1.24411
1.2421
1.24129
1.24123
1.24236
1.24501
1.24727
1.24753
1.24676
1.24486
1.24241
1.24007
1.23881
1.23841
1.23834
1.23856
1.23891
1.23917
1.23898
1.23831
1.23678
1.234
1.23079
1.22811
1.22621
1.22521
1.22487
1.22516
1.22598
1.22642
1.2265
1.22621
1.22556
1.22447
1.22288
1.22119
1.21972
1.21878
1.21851
1.21863
1.21855
1.21764
1.21549
0.866172
0.870831
0.877306
0.894837
0.923171
0.940429
0.945977
0.951674
0.95808
0.965409
0.975573
0.991785
1.01615
1.04597
1.0701
1.07846
1.0808
1.08229
1.08613
1.09181
1.09866
1.11066
1.13424
1.1635
1.18122
1.18623
1.18897
1.18972
1.19088
1.1957
1.20222
1.21021
1.22398
1.24548
1.25715
1.26098
1.26455
1.26882
1.27343
1.27814
1.28324
1.29066
1.30125
1.3095
1.31367
1.31681
1.31974
1.32261
1.32548
1.32938
1.3363
1.34148
1.34253
1.34221
1.33945
1.3384
1.34015
1.34285
1.34759
1.35652
1.36407
1.36701
1.36834
1.36909
1.36972
1.3704
1.37103
1.37179
1.37273
1.3734
1.37363
1.37326
1.37202
1.37031
1.36895
1.36816
1.36785
1.36783
1.36789
1.36822
1.3695
1.37167
1.37439
1.37699
1.37887
1.38027
1.38145
1.38217
1.38227
1.38213
1.38205
1.38175
1.3809
1.37824
1.37363
1.37145
1.37097
1.37117
1.37347
1.37631
1.37674
1.37626
1.37506
1.37286
1.37038
1.36905
1.36874
1.36935
1.37078
1.3713
1.37078
1.36975
1.36798
1.36519
1.36129
1.35801
1.35612
1.35527
1.35509
1.35569
1.35681
1.35734
1.35708
1.35659
1.35583
1.35465
1.35289
1.35058
1.34827
1.34654
1.34496
1.34294
1.34028
1.3376
1.33492
1.33207
1.32957
1.3277
1.32621
1.3249
1.32356
1.32215
1.32081
1.3196
1.31859
1.31793
1.3175
1.31754
1.31807
1.31783
1.31635
1.31323
1.30877
1.30365
1.29986
1.29798
1.29726
1.29743
1.29987
1.30429
1.30769
1.30803
1.30652
1.3036
1.29944
1.29319
1.28556
1.28009
1.27802
1.27723
1.27709
1.27881
1.28335
1.28845
1.29065
1.29055
1.28983
1.28786
1.28403
1.27945
1.27612
1.27442
1.27346
1.27258
1.27138
1.26955
1.26704
1.2644
1.26216
1.26075
1.26057
1.26165
1.26392
1.26606
1.26649
1.26558
1.26353
1.2603
1.25554
1.25096
1.24847
1.24793
1.24886
1.25211
1.25694
1.26077
1.26191
1.26161
1.26026
1.25758
1.25392
1.24971
1.24592
1.24304
1.24119
1.24069
1.24083
1.24222
1.24514
1.24858
1.24977
1.24892
1.24642
1.24327
1.24061
1.23915
1.23869
1.23846
1.23841
1.23833
1.238
1.23747
1.23678
1.23559
1.23366
1.23137
1.2292
1.22738
1.22642
1.2262
1.22718
1.22956
1.23181
1.23243
1.23184
1.23045
1.22876
1.22758
1.22642
1.22497
1.22367
1.22265
1.22175
1.22077
1.2194
1.21688
1.21377
1.21032
0.851805
0.86085
0.87174
0.887651
0.906979
0.91732
0.921348
0.925085
0.930521
0.938723
0.953269
0.978256
1.01287
1.04514
1.06061
1.06442
1.06577
1.06255
1.0623
1.06769
1.07622
1.09571
1.12802
1.15569
1.1638
1.16803
1.17117
1.1737
1.17825
1.18455
1.19422
1.21116
1.23299
1.24719
1.25202
1.25441
1.2572
1.26216
1.26738
1.2727
1.28094
1.29306
1.30192
1.30545
1.30699
1.30691
1.30668
1.30872
1.31203
1.32039
1.33249
1.33736
1.33891
1.33974
1.33959
1.3401
1.34193
1.34487
1.35063
1.35782
1.36287
1.36574
1.3675
1.36861
1.36928
1.36949
1.36929
1.36908
1.36885
1.36828
1.36687
1.36453
1.36253
1.36203
1.36282
1.3653
1.36731
1.36869
1.37054
1.37309
1.37584
1.3781
1.37941
1.38002
1.38035
1.38036
1.3805
1.38055
1.38032
1.37972
1.37869
1.37716
1.37459
1.37169
1.37085
1.37085
1.37182
1.37473
1.37745
1.37727
1.37584
1.37346
1.37111
1.36938
1.36857
1.36859
1.36957
1.37033
1.37004
1.36932
1.36835
1.36671
1.36391
1.36061
1.35816
1.35687
1.35606
1.3558
1.356
1.35619
1.35613
1.35587
1.3554
1.35472
1.35375
1.35233
1.35024
1.34761
1.34499
1.34266
1.34067
1.33901
1.33763
1.33632
1.33546
1.33488
1.33407
1.33263
1.33019
1.32738
1.32511
1.32314
1.32138
1.32023
1.31968
1.31936
1.31949
1.31991
1.31951
1.31798
1.31483
1.31023
1.30513
1.30188
1.30065
1.30029
1.30152
1.30499
1.30888
1.31007
1.30904
1.30682
1.30354
1.29878
1.29242
1.2858
1.28158
1.27973
1.2792
1.27976
1.28239
1.28707
1.29178
1.29348
1.293
1.29169
1.28954
1.28631
1.28203
1.27743
1.27411
1.2721
1.27047
1.26876
1.26705
1.26548
1.26412
1.26326
1.26349
1.2655
1.26785
1.26897
1.26875
1.26731
1.26504
1.26266
1.25961
1.25574
1.25247
1.25094
1.25107
1.25315
1.25705
1.26023
1.26104
1.2607
1.26015
1.25933
1.25774
1.25457
1.24954
1.24412
1.24084
1.2397
1.23928
1.23951
1.24175
1.24594
1.24918
1.24958
1.24865
1.24657
1.24298
1.23852
1.23611
1.23546
1.23527
1.23571
1.23552
1.23506
1.23455
1.23381
1.23291
1.23197
1.23093
1.22974
1.22903
1.22894
1.22992
1.232
1.23392
1.23415
1.23324
1.23159
1.22957
1.22746
1.22564
1.22429
1.22347
1.22306
1.22266
1.22216
1.22131
1.21966
1.21688
1.21336
1.20966
1.20713
0.824224
0.840971
0.862254
0.882924
0.897009
0.903895
0.906542
0.906217
0.909274
0.917712
0.933123
0.961387
1.00097
1.02472
1.03127
1.03674
1.04119
1.04425
1.04576
1.05251
1.07121
1.09787
1.12601
1.13758
1.14093
1.1427
1.14586
1.1512
1.15744
1.16717
1.18579
1.21255
1.23232
1.23885
1.2407
1.24065
1.24334
1.24874
1.25468
1.26236
1.27503
1.28954
1.29594
1.29834
1.29924
1.29722
1.29659
1.29903
1.30541
1.31778
1.32964
1.33366
1.33579
1.33724
1.33897
1.3413
1.34386
1.34738
1.35203
1.35687
1.36036
1.36301
1.36506
1.36654
1.36743
1.36764
1.36707
1.36544
1.36287
1.35988
1.35751
1.35709
1.35789
1.3597
1.36329
1.36772
1.37152
1.37469
1.37756
1.37968
1.38069
1.38081
1.38029
1.37942
1.37876
1.37857
1.37843
1.37796
1.37701
1.37544
1.37314
1.3705
1.36903
1.36916
1.37002
1.37242
1.37647
1.37968
1.37963
1.37818
1.37509
1.37135
1.36912
1.36852
1.36869
1.36949
1.36943
1.36871
1.36784
1.36683
1.36532
1.36287
1.36019
1.35825
1.35731
1.35721
1.35701
1.35631
1.35538
1.35411
1.35355
1.35323
1.35276
1.35205
1.35108
1.34967
1.34753
1.34469
1.34197
1.33997
1.33874
1.33803
1.33807
1.3391
1.33942
1.33875
1.33717
1.33375
1.3297
1.32699
1.32536
1.3241
1.32307
1.32243
1.32208
1.3219
1.32165
1.32102
1.31899
1.31562
1.31116
1.30682
1.30433
1.30342
1.30352
1.30553
1.3093
1.3118
1.31156
1.3101
1.30763
1.30362
1.29777
1.2913
1.28638
1.28362
1.28262
1.28293
1.28502
1.28868
1.29269
1.29471
1.29437
1.29327
1.29162
1.28948
1.28672
1.28323
1.27897
1.27457
1.27125
1.2692
1.26769
1.26639
1.2653
1.26458
1.26472
1.26684
1.27004
1.27223
1.27252
1.27172
1.26936
1.266
1.26209
1.25815
1.25511
1.25327
1.25254
1.25321
1.2562
1.25991
1.26097
1.26053
1.25979
1.25892
1.25762
1.25573
1.25284
1.24855
1.24393
1.24118
1.2401
1.23976
1.24024
1.24264
1.2465
1.24912
1.24928
1.24838
1.24649
1.24272
1.23784
1.23531
1.23467
1.23424
1.23455
1.23512
1.2347
1.23411
1.23352
1.23295
1.23232
1.2318
1.23155
1.23188
1.23304
1.23471
1.23608
1.23608
1.2351
1.23331
1.23135
1.22902
1.22617
1.22348
1.22183
1.22111
1.22108
1.22201
1.22228
1.2219
1.2211
1.21898
1.21491
1.21066
1.20827
1.20753
0.784861
0.808751
0.841936
0.863162
0.873793
0.885868
0.892248
0.894629
0.897237
0.904786
0.917872
0.941743
0.969934
0.981048
0.988574
0.997232
1.00601
1.01555
1.02709
1.04729
1.07903
1.1065
1.11945
1.12268
1.12302
1.12038
1.12295
1.12949
1.13741
1.15104
1.17851
1.20583
1.2169
1.22114
1.22371
1.22488
1.22921
1.23427
1.23951
1.25041
1.26716
1.27751
1.2813
1.28383
1.28529
1.28812
1.29337
1.30108
1.30993
1.3196
1.32607
1.329
1.3316
1.33446
1.33732
1.33998
1.34315
1.34691
1.35046
1.35259
1.35408
1.3559
1.3587
1.36225
1.36402
1.36424
1.36337
1.35989
1.35531
1.35377
1.35413
1.35515
1.35723
1.36161
1.36804
1.37303
1.37562
1.37741
1.37913
1.3802
1.38043
1.38005
1.37908
1.37794
1.37678
1.37555
1.37424
1.37269
1.37071
1.36846
1.36701
1.36697
1.36757
1.36932
1.37299
1.37793
1.38101
1.38115
1.38017
1.37787
1.37373
1.37001
1.36923
1.36934
1.36921
1.36834
1.36714
1.36608
1.36499
1.36352
1.3616
1.35984
1.35871
1.35818
1.35877
1.35878
1.35759
1.3557
1.35281
1.35118
1.35067
1.35029
1.34994
1.34928
1.34831
1.347
1.34521
1.34274
1.34072
1.33986
1.33961
1.34038
1.34177
1.342
1.34112
1.33921
1.33575
1.33132
1.32807
1.32664
1.32598
1.32584
1.32606
1.32575
1.32514
1.32422
1.3223
1.31925
1.31545
1.31102
1.30774
1.3061
1.30564
1.3065
1.30948
1.31306
1.314
1.31313
1.31122
1.30817
1.3034
1.29717
1.29166
1.28821
1.28643
1.28609
1.28763
1.29113
1.29472
1.29634
1.29601
1.2951
1.29374
1.29181
1.28922
1.28609
1.28256
1.2787
1.27485
1.27183
1.2697
1.2683
1.26739
1.26679
1.26667
1.26794
1.27073
1.27344
1.27439
1.27409
1.27301
1.27072
1.26697
1.26213
1.25769
1.25503
1.25375
1.25331
1.25397
1.25692
1.26025
1.26066
1.26017
1.25938
1.258
1.25592
1.25334
1.25063
1.24788
1.24503
1.24279
1.24201
1.24211
1.24326
1.24579
1.24875
1.24993
1.24944
1.24825
1.24633
1.24289
1.23862
1.2359
1.23508
1.23489
1.23578
1.23704
1.23685
1.2362
1.23529
1.23474
1.2345
1.23445
1.23491
1.23592
1.23715
1.23791
1.23778
1.23703
1.23562
1.23375
1.23118
1.22763
1.22379
1.22128
1.22035
1.21987
1.21997
1.22153
1.22342
1.22351
1.22304
1.22202
1.21907
1.21383
1.2107
1.21029
1.21028
0.706845
0.744243
0.782793
0.811856
0.828534
0.841954
0.855461
0.868312
0.881644
0.899692
0.92178
0.935616
0.942251
0.944348
0.950602
0.960739
0.971272
0.98419
1.00467
1.03547
1.07213
1.0928
1.09729
1.10052
1.10302
1.10403
1.10652
1.11318
1.12529
1.14786
1.17537
1.19325
1.19937
1.20414
1.20747
1.21119
1.21472
1.21917
1.23232
1.24876
1.25797
1.26215
1.26561
1.26789
1.27069
1.27606
1.2886
1.30503
1.3167
1.32366
1.32651
1.32739
1.32845
1.33109
1.33427
1.33782
1.34157
1.34448
1.34599
1.34621
1.34656
1.34758
1.35011
1.35517
1.35796
1.35831
1.35766
1.35549
1.35434
1.35421
1.35487
1.35689
1.36147
1.3674
1.37113
1.37315
1.37485
1.3765
1.37801
1.3788
1.37875
1.3782
1.37709
1.37524
1.37256
1.36982
1.36759