/*--------------------------------*- C++ -*----------------------------------*\
  =========                 |
  \\      /  F ield         | OpenFOAM: The Open Source CFD Toolbox
   \\    /   O peration     | Website:  https://openfoam.org
    \\  /    A nd           | Version:  7
     \\/     M anipulation  |
\*---------------------------------------------------------------------------*/
FoamFile
{
    version     2.0;
    format      ascii;
    class       volScalarField;
    location    "2.3";
    object      rho;
}
// * * * * * * * * * * * * * * * * * * * * * * * * * * * * * * * * * * * * * //

dimensions      [1 -3 0 0 0 0 0];

internalField   nonuniform List<scalar> 
4128
(
0.943061
0.943022
0.94258
0.94176
0.940256
0.937523
0.934194
0.931206
0.928751
0.926935
0.925796
0.9251
0.924713
0.924969
0.92528
0.924903
0.921204
1.23258
2.19779
2.42757
2.44874
2.46667
2.47962
2.48737
2.48936
2.49117
2.49855
2.5118
2.52831
2.54452
2.55581
2.56001
2.55485
2.53929
2.51901
2.50125
2.49043
2.48686
2.48859
2.4934
2.49814
2.49935
2.49435
2.48479
2.47435
2.46512
2.45881
2.45833
2.46659
2.48129
2.47873
2.45772
2.43327
2.41173
2.39731
2.38935
2.38929
2.39637
2.40941
2.41944
2.41267
2.38951
2.35946
2.34426
2.33901
2.34372
2.35679
2.37212
2.38291
2.38143
2.36772
2.33638
2.31268
2.3051
2.30687
2.31887
2.33124
2.33787
2.33716
2.32906
2.31022
2.27917
2.26331
2.25833
2.26407
2.27814
2.28758
2.2889
2.28396
2.27501
2.26414
2.25703
2.25296
2.25524
2.26639
2.2752
2.27396
2.2687
2.26214
2.25415
2.24515
2.23803
2.2311
2.22639
2.22783
2.22916
2.22333
2.2163
2.20897
2.20079
2.19154
2.18353
2.17824
2.17382
2.17141
2.17209
2.17231
2.16894
2.16315
2.15585
2.14534
2.12741
2.10593
2.08965
2.07925
2.07276
2.06788
2.06504
2.06613
0.941543
0.941043
0.940397
0.939697
0.939125
0.93884
0.938415
0.937695
0.93619
0.933876
0.931165
0.92855
0.926481
0.925484
0.924489
0.923019
0.920633
1.21429
2.19079
2.48285
2.49812
2.50189
2.51076
2.51403
2.51463
2.51422
2.51811
2.52687
2.53862
2.55146
2.5639
2.57309
2.57622
2.57107
2.55739
2.53914
2.52136
2.50788
2.50104
2.5015
2.50802
2.51592
2.51712
2.5055
2.48783
2.47028
2.45609
2.44879
2.45171
2.45899
2.4684
2.47823
2.47596
2.4632
2.44314
2.4203
2.40503
2.39774
2.3977
2.40126
2.40383
2.40506
2.39769
2.38489
2.37149
2.36471
2.36392
2.36685
2.36975
2.36859
2.36503
2.35916
2.34832
2.33519
2.3279
2.3268
2.3274
2.32583
2.32098
2.31458
2.30775
2.3022
2.29452
2.2874
2.28451
2.28504
2.28635
2.28647
2.28564
2.28426
2.2806
2.27538
2.271
2.27025
2.27475
2.27858
2.27434
2.26733
2.25868
2.24914
2.24125
2.23544
2.232
2.23261
2.23781
2.24068
2.23629
2.22924
2.22108
2.21112
2.19922
2.18796
2.18029
2.17479
2.17059
2.16852
2.16676
2.16253
2.15662
2.14952
2.14047
2.12994
2.12006
2.10962
2.0982
2.08759
2.07981
2.07522
2.07202
0.946341
0.944077
0.941985
0.940442
0.939801
0.940064
0.941948
0.944216
0.945592
0.945716
0.944979
0.943256
0.939904
0.93492
0.928473
0.923021
0.923675
1.1642
2.22354
2.57808
2.56385
2.56433
2.5905
2.60307
2.60488
2.60453
2.60611
2.61104
2.61872
2.62644
2.63309
2.6377
2.63968
2.63943
2.63572
2.62647
2.61257
2.5963
2.58032
2.56855
2.56442
2.56927
2.57733
2.57659
2.56428
2.54702
2.52501
2.50166
2.48419
2.47265
2.47739
2.50192
2.52291
2.52668
2.51912
2.50455
2.47944
2.44878
2.42463
2.41111
2.40831
2.42248
2.44212
2.44935
2.44538
2.43202
2.40878
2.38603
2.37246
2.36591
2.36957
2.3846
2.39709
2.39768
2.38889
2.37062
2.34834
2.3306
2.31793
2.31084
2.31359
2.32574
2.33608
2.33872
2.33369
2.32204
2.30748
2.29799
2.29409
2.29537
2.2995
2.30252
2.30405
2.30481
2.30379
2.29803
2.29046
2.28125
2.26967
2.25742
2.2485
2.24241
2.23953
2.24307
2.2503
2.25386
2.25313
2.24969
2.24378
2.23619
2.22517
2.21087
2.19687
2.18629
2.17893
2.17318
2.16924
2.16443
2.15778
2.14985
2.14212
2.13703
2.13298
2.12781
2.12175
2.11519
2.10812
2.1017
2.08986
0.965243
0.963575
0.961858
0.960029
0.95833
0.957286
0.957074
0.957389
0.95812
0.958841
0.958958
0.958138
0.956082
0.952014
0.945181
0.943191
0.974597
1.21999
2.21909
2.73819
2.72641
2.69453
2.70185
2.71704
2.72267
2.72341
2.72212
2.7192
2.72161
2.72845
2.73675
2.74233
2.74288
2.73992
2.73538
2.7285
2.71802
2.70352
2.68548
2.66699
2.65333
2.64688
2.64665
2.64689
2.64063
2.62856
2.61247
2.59162
2.57022
2.55596
2.55352
2.5669
2.5827
2.58879
2.58559
2.57514
2.55099
2.51743
2.48926
2.47261
2.46572
2.47882
2.50425
2.51782
2.51669
2.50538
2.47616
2.43966
2.41635
2.40554
2.40635
2.42654
2.4489
2.45467
2.449
2.43093
2.39823
2.36784
2.35068
2.34279
2.34691
2.36464
2.38152
2.38586
2.38134
2.37277
2.35863
2.34363
2.33442
2.3296
2.32967
2.33418
2.33835
2.33864
2.33347
2.32467
2.31345
2.30202
2.29057
2.28012
2.27238
2.26681
2.26505
2.26764
2.26996
2.27027
2.27045
2.27044
2.26766
2.26145
2.2523
2.23986
2.22631
2.21303
2.20078
2.1907
2.18285
2.1759
2.16907
2.16276
2.1576
2.15368
2.15014
2.14693
2.14399
2.14097
2.13629
2.13104
2.11704
0.985487
0.984854
0.984486
0.984248
0.984054
0.983428
0.982263
0.980973
0.979772
0.978506
0.976799
0.974372
0.971396
0.967381
0.967721
0.990936
1.19346
1.52466
1.95272
2.57759
2.80789
2.85442
2.84457
2.82797
2.82065
2.83056
2.83995
2.84489
2.84413
2.8385
2.83296
2.83056
2.82936
2.82678
2.82375
2.82032
2.814
2.80353
2.78988
2.77322
2.75363
2.73434
2.71891
2.70623
2.69409
2.68088
2.66784
2.65645
2.64796
2.64411
2.64543
2.65025
2.65366
2.64975
2.63929
2.61922
2.59068
2.5643
2.54975
2.54351
2.54839
2.56657
2.58424
2.58403
2.57371
2.55364
2.51873
2.48505
2.46926
2.46428
2.47193
2.4925
2.50663
2.50263
2.49087
2.46853
2.43589
2.41041
2.39915
2.3956
2.40231
2.41541
2.42404
2.42418
2.4185
2.40994
2.39985
2.38938
2.37961
2.37328
2.37128
2.37359
2.37224
2.36527
2.35663
2.34599
2.33316
2.32076
2.31074
2.30307
2.29755
2.29524
2.29613
2.29652
2.29381
2.2903
2.2872
2.28489
2.28281
2.27931
2.27252
2.26346
2.25282
2.24111
2.2277
2.2137
2.2017
2.19294
2.18679
2.18228
2.17909
2.17604
2.17312
2.17034
2.16709
2.16272
2.15657
2.15037
2.13708
1.0078
1.00733
1.0073
1.0078
1.00816
1.00791
1.00703
1.00533
1.00312
1.00069
0.998093
0.995333
0.992232
0.992673
1.01419
1.16957
1.56102
1.822
1.8617
2.10491
2.56002
2.84939
2.93658
2.93692
2.91236
2.90279
2.90897
2.92146
2.92461
2.91622
2.90554
2.9
2.89906
2.89669
2.89087
2.88312
2.87238
2.85718
2.84042
2.82229
2.80009
2.77375
2.74897
2.73293
2.72305
2.71715
2.71582
2.71736
2.72046
2.72087
2.71346
2.69988
2.68059
2.66052
2.64405
2.62928
2.61949
2.61535
2.61692
2.6221
2.62461
2.61899
2.60913
2.59699
2.58025
2.55912
2.5428
2.53474
2.5312
2.53311
2.53574
2.53014
2.52131
2.51045
2.4943
2.47692
2.46531
2.45818
2.45471
2.45434
2.45308
2.44781
2.44215
2.4386
2.43615
2.43348
2.42892
2.42435
2.41865
2.41108
2.40242
2.39399
2.38487
2.37318
2.35932
2.34959
2.34254
2.3366
2.33246
2.32966
2.32761
2.32437
2.31826
2.31023
2.30157
2.29477
2.28954
2.28533
2.28236
2.28049
2.27906
2.27474
2.26908
2.26272
2.25426
2.24299
2.22989
2.21787
2.20931
2.20381
2.1994
2.19424
2.18823
2.18164
2.17449
2.1674
2.16001
2.15353
2.14439
1.02885
1.02925
1.02999
1.03043
1.03002
1.02901
1.02707
1.02371
1.01933
1.01517
1.01202
1.00991
1.01066
1.03211
1.18412
1.55534
1.8308
1.91554
1.88486
1.89506
2.08152
2.50788
2.84399
2.96586
2.96888
2.95723
2.94816
2.95785
2.96645
2.96691
2.96199
2.9487
2.932
2.91424
2.8976
2.88282
2.86958
2.85723
2.84454
2.83078
2.81484
2.79509
2.77288
2.75434
2.74507
2.74306
2.74531
2.74657
2.74392
2.73695
2.72622
2.7099
2.68294
2.6559
2.64152
2.63799
2.64207
2.64915
2.65408
2.65131
2.64252
2.62817
2.60866
2.5896
2.5768
2.57026
2.57351
2.58169
2.58055
2.57136
2.55619
2.53634
2.51743
2.50296
2.49435
2.4906
2.49678
2.50169
2.49687
2.48621
2.47039
2.45494
2.44546
2.43983
2.44216
2.44663
2.44535
2.44022
2.43387
2.4249
2.41219
2.39702
2.38124
2.3691
2.3614
2.35556
2.35341
2.3549
2.35585
2.35229
2.34497
2.33484
2.32303
2.31146
2.29989
2.28895
2.2794
2.27279
2.26994
2.27188
2.27724
2.28269
2.28245
2.27886
2.27345
2.2665
2.25725
2.24537
2.23109
2.21676
2.20529
2.19632
2.18747
2.17822
2.16959
2.16255
2.15677
2.15215
2.14682
1.04333
1.04149
1.04008
1.0389
1.03751
1.036
1.03429
1.032
1.02871
1.02491
1.0229
1.02365
1.03814
1.193
1.55467
1.87323
1.90878
1.90858
1.90645
1.9056
1.91717
2.05738
2.43077
2.80545
2.95694
2.96324
2.97092
2.98268
2.9958
2.99646
2.98264
2.95567
2.92648
2.90608
2.88904
2.87291
2.85924
2.85015
2.84357
2.83443
2.8218
2.80634
2.78918
2.77162
2.75457
2.74369
2.73676
2.736
2.73779
2.73275
2.72166
2.70597
2.68284
2.65737
2.64361
2.63829
2.63861
2.64709
2.65378
2.65041
2.6412
2.62613
2.60304
2.58432
2.57751
2.58222
2.5911
2.59219
2.58596
2.57669
2.5599
2.53272
2.51057
2.49973
2.49625
2.50699
2.51567
2.51099
2.5026
2.49101
2.47488
2.45881
2.44725
2.44024
2.4355
2.43637
2.43959
2.4385
2.43265
2.42335
2.40974
2.39437
2.38175
2.37364
2.36887
2.36823
2.37112
2.37016
2.36447
2.35699
2.34785
2.33614
2.32213
2.30697
2.29198
2.27967
2.27188
2.26647
2.26337
2.26704
2.27628
2.28176
2.28392
2.28272
2.27886
2.27361
2.26766
2.25974
2.24795
2.23099
2.21104
2.194
2.18195
2.17267
2.16486
2.15816
2.15279
2.15143
2.15258
1.04613
1.04308
1.04102
1.03993
1.03915
1.03866
1.03827
1.0375
1.03602
1.03503
1.03605
1.05116
1.16857
1.56436
1.83673
1.94325
1.93835
1.92188
1.91279
1.91227
1.91545
1.91964
2.00833
2.32253
2.74339
2.91504
2.95936
2.97993
2.99981
2.99976
2.9821
2.9513
2.91094
2.88343
2.86758
2.85432
2.84537
2.83813
2.82901
2.81816
2.80811
2.79922
2.78904
2.77565
2.75958
2.74033
2.7251
2.71472
2.70706
2.70307
2.69901
2.69083
2.67937
2.66327
2.64633
2.63518
2.62981
2.62904
2.63298
2.63615
2.63087
2.62047
2.60499
2.5907
2.58315
2.57805
2.57697
2.57926
2.57768
2.56864
2.5535
2.53452
2.51906
2.5101
2.50723
2.50484
2.50299
2.50038
2.49413
2.48405
2.47272
2.46364
2.45397
2.44263
2.43268
2.42529
2.41974
2.41584
2.41089
2.4047
2.39887
2.39301
2.38674
2.3817
2.37918
2.37798
2.37407
2.36915
2.36308
2.35595
2.34624
2.33219
2.31486
2.29824
2.28557
2.27698
2.27085
2.26667
2.2668
2.26883
2.26652
2.26362
2.26268
2.26489
2.26902
2.27024
2.26576
2.25876
2.24971
2.23744
2.2209
2.20218
2.18586
2.1739
2.16571
2.16018
2.15689
2.15347
2.14527
1.04557
1.04377
1.0426
1.04203
1.04197
1.04279
1.04366
1.04373
1.04354
1.04411
1.05715
1.18576
1.51246
1.85204
1.93874
1.94459
1.9426
1.93066
1.91994
1.91355
1.9095
1.9095
1.91167
1.96643
2.22918
2.66013
2.87762
2.95665
2.97107
2.9777
2.96397
2.93834
2.89994
2.86353
2.84288
2.82927
2.82268
2.81722
2.80641
2.79221
2.77676
2.76449
2.75598
2.75025
2.74247
2.73102
2.71632
2.69747
2.67983
2.66787
2.66006
2.65708
2.65721
2.6531
2.64438
2.6308
2.61716
2.60872
2.60279
2.60233
2.60612
2.60647
2.60194
2.59372
2.58036
2.56413
2.5527
2.5449
2.54063
2.5412
2.5405
2.53454
2.52815
2.52052
2.50989
2.49666
2.48376
2.4733
2.46536
2.46167
2.46195
2.45988
2.45435
2.44718
2.43595
2.42047
2.40649
2.39462
2.38462
2.37802
2.37599
2.3796
2.38584
2.38664
2.38265
2.37622
2.3685
2.35989
2.35123
2.34187
2.32958
2.31419
2.29961
2.2899
2.28379
2.27936
2.27634
2.2753
2.27183
2.26525
2.25723
2.2488
2.24218
2.23802
2.23781
2.24233
2.24733
2.24701
2.24121
2.23247
2.22181
2.21098
2.20013
2.18915
2.17855
2.16918
2.16104
2.15293
2.13949
1.0461
1.04585
1.04595
1.04639
1.04697
1.04723
1.04694
1.04624
1.04663
1.05825
1.17914
1.54015
1.83633
1.93878
1.94137
1.94509
1.94376
1.94095
1.93394
1.91993
1.9055
1.89533
1.8903
1.89137
1.9298
2.14591
2.57847
2.85146
2.93299
2.92628
2.90825
2.8906
2.86922
2.84283
2.81539
2.79519
2.78222
2.7744
2.76903
2.76002
2.74747
2.73216
2.7168
2.70453
2.69492
2.68788
2.6806
2.67071
2.65762
2.64273
2.6326
2.62664
2.62563
2.62607
2.62167
2.61268
2.59994
2.58804
2.57955
2.57538
2.5807
2.58718
2.58609
2.57959
2.56587
2.54407
2.52407
2.5107
2.50236
2.50337
2.51607
2.52693
2.52717
2.52022
2.50815
2.48766
2.46513
2.44923
2.43996
2.43442
2.43624
2.44398
2.44705
2.44192
2.43322
2.41984
2.40019
2.38104
2.36822
2.36075
2.35653
2.35809
2.36611
2.37387
2.37476
2.3693
2.36129
2.34992
2.33475
2.31788
2.30267
2.29305
2.2879
2.28555
2.28439
2.28433
2.28406
2.27968
2.27168
2.26077
2.24848
2.23547
2.22571
2.219
2.21411
2.21287
2.21552
2.21945
2.22295
2.22342
2.21906
2.21354
2.2088
2.20282
2.1944
2.18196
2.16664
2.15273
2.13227
1.04848
1.04934
1.05054
1.05039
1.04964
1.04835
1.04658
1.04541
1.0579
1.16601
1.5172
1.85438
1.93639
1.94554
1.9378
1.94132
1.94628
1.94447
1.93804
1.92453
1.90329
1.88462
1.87172
1.86307
1.86246
1.89196
2.07245
2.50197
2.8238
2.88646
2.8696
2.84905
2.83634
2.82171
2.80031
2.77298
2.74876
2.73314
2.7226
2.71831
2.71511
2.7063
2.69262
2.67439
2.65856
2.64761
2.64034
2.63888
2.63393
2.62475
2.61547
2.60946
2.60646
2.60504
2.6015
2.59337
2.5822
2.56979
2.56171
2.55971
2.56674
2.57354
2.56951
2.55939
2.5419
2.51682
2.49625
2.48618
2.48201
2.485
2.49805
2.51038
2.51188
2.50567
2.49271
2.46968
2.44589
2.43118
2.42321
2.41907
2.42007
2.42592
2.43018
2.42939
2.4233
2.41215
2.39287
2.37304
2.36153
2.35473
2.34983
2.34894
2.35224
2.35525
2.35553
2.35194
2.34411
2.33077
2.31227
2.29734
2.28948
2.28465
2.28189
2.28257
2.28746
2.29158
2.28898
2.28286
2.2739
2.25765
2.23561
2.22133
2.21344
2.20728
2.20226
2.19879
2.19677
2.19606
2.19778
2.20353
2.21185
2.2159
2.21291
2.20774
2.20117
2.1918
2.17605
2.15302
2.12451
1.05089
1.05065
1.05033
1.05004
1.04925
1.04841
1.04626
1.05547
1.17109
1.48222
1.83108
1.9464
1.95293
1.94718
1.93714
1.92922
1.92537
1.92234
1.91871
1.90952
1.89363
1.87636
1.86205
1.84992
1.83929
1.83442
1.8536
2.00643
2.4404
2.77504
2.83166
2.81868
2.80533
2.79633
2.78097
2.76115
2.73628
2.71603
2.70149
2.69431
2.69296
2.68587
2.67259
2.6543
2.63601
2.6251
2.61831
2.61846
2.62262
2.62082
2.61323
2.60469
2.59655
2.58938
2.58496
2.58068
2.57355
2.56711
2.56181
2.55933
2.55877
2.55556
2.54721
2.53438
2.51709
2.50014
2.48968
2.48319
2.48102
2.48615
2.49152
2.49163
2.48782
2.48003
2.46647
2.44961
2.43674
2.42813
2.42199
2.419
2.41942
2.41804
2.41488
2.41197
2.40871
2.40239
2.39486
2.38313
2.36815
2.3566
2.35035
2.3467
2.34223
2.3366
2.33156
2.32699
2.32133
2.31347
2.30403
2.29451
2.28762
2.2834
2.282
2.28532
2.29034
2.29098
2.28746
2.28129
2.27074
2.25444
2.24009
2.22727
2.21549
2.20636
2.20059
2.1969
2.19234
2.18745
2.18417
2.18465
2.19192
2.20305
2.20855
2.20532
2.19862
2.1905
2.17912
2.16327
2.13711
1.0505
1.04897
1.04781
1.04713
1.04672
1.04567
1.05958
1.15539
1.49886
1.78278
1.92942
1.9622
1.96404
1.95601
1.93994
1.92487
1.90835
1.89454
1.88496
1.87744
1.86974
1.86245
1.85355
1.84311
1.83227
1.82001
1.80711
1.81638
1.95555
2.40403
2.71783
2.78411
2.77967
2.764
2.75068
2.74039
2.72823
2.71107
2.69463
2.68396
2.67668
2.66948
2.65883
2.64535
2.63104
2.621
2.61474
2.61321
2.61615
2.61708
2.61037
2.59931
2.58657
2.57869
2.57449
2.57564
2.57799
2.5766
2.57062
2.56034
2.54847
2.53538
2.52483
2.51762
2.51214
2.50703
2.50201
2.49832
2.49499
2.48867
2.48065
2.46952
2.45636
2.44593
2.44221
2.4439
2.4447
2.44199
2.43726
2.43046
2.42134
2.41263
2.40468
2.39772
2.39405
2.39524
2.39767
2.39426
2.38666
2.37636
2.36284
2.34646
2.33215
2.32215
2.31386
2.30726
2.30372
2.30381
2.30323
2.29861
2.2939
2.29051
2.28955
2.29006
2.28766
2.28269
2.27698
2.26844
2.25897
2.25298
2.24825
2.2429
2.23655
2.22854
2.21823
2.20571
2.19392
2.18616
2.1807
2.17674
2.17602
2.18003
2.1872
2.19194
2.18986
2.18383
2.17527
2.16563
2.1503
1.04937
1.04623
1.04385
1.04297
1.0428
1.05859
1.17379
1.45658
1.81656
1.89521
1.93092
1.9378
1.93954
1.93403
1.92905
1.91549
1.89039
1.87307
1.86244
1.85393
1.84851
1.84568
1.84216
1.835
1.8237
1.8106
1.79542
1.78751
1.79466
1.94022
2.38535
2.72151
2.76254
2.74719
2.72616
2.7159
2.72139
2.72002
2.70603
2.68563
2.66948
2.65994
2.65502
2.65164
2.6432
2.62982
2.61848
2.61323
2.61397
2.61255
2.6049
2.59435
2.58434
2.57691
2.57258
2.57553
2.58276
2.58187
2.5734
2.55998
2.54079
2.52719
2.51899
2.51436
2.51397
2.51686
2.52062
2.52035
2.51242
2.49691
2.47144
2.45057
2.4394
2.43364
2.43147
2.43585
2.44721
2.45676
2.45734
2.45002
2.43677
2.41862
2.40354
2.39553
2.39013
2.38819
2.39164
2.39783
2.39773
2.39167
2.38168
2.3665
2.3458
2.32535
2.31153
2.30417
2.29946
2.29711
2.29876
2.30379
2.30614
2.30479
2.30068
2.29416
2.28615
2.27702
2.26763
2.25897
2.2532
2.25151
2.25266
2.25582
2.25844
2.25631
2.24899
2.23624
2.2162
2.19486
2.18163
2.17507
2.17052
2.16764
2.16785
2.17183
2.17498
2.17507
2.1718
2.16744
2.15968
1.04453
1.04167
1.03993
1.04002
1.05801
1.17492
1.46708
1.75878
1.92311
1.94071
1.93003
1.92536
1.91979
1.91167
1.90316
1.89242
1.87568
1.8607
1.85223
1.84544
1.83915
1.83339
1.82776
1.81949
1.81085
1.8032
1.79486
1.78731
1.78474
1.79169
1.94606
2.37192
2.70808
2.75033
2.72788
2.70866
2.7097
2.71647
2.71604
2.70211
2.68142
2.66358
2.6551
2.65521
2.65799
2.65394
2.64421
2.63252
2.6208
2.61104
2.60317
2.59693
2.59155
2.58662
2.5835
2.58534
2.58916
2.58574
2.57753
2.5662
2.55186
2.53929
2.53012
2.52463
2.52611
2.53215
2.53421
2.5287
2.51931
2.50609
2.48546
2.46129
2.44431
2.4355
2.43125
2.43547
2.44985
2.46519
2.47068
2.46685
2.45877
2.4446
2.42486
2.4067
2.39594
2.38989
2.38893
2.39363
2.39957
2.39883
2.39308
2.38528
2.37385
2.35731
2.33724
2.31924
2.30857
2.30322
2.30215
2.3075
2.31557
2.31826
2.31405
2.30709
2.29667
2.28274
2.26915
2.25988
2.255
2.25279
2.25636
2.26586
2.27438
2.27609
2.27189
2.26457
2.25218
2.23257
2.20872
2.18651
2.17243
2.16643
2.1644
2.16447
2.16532
2.16766
2.1694
2.17105
2.16881
1.03569
1.03536
1.03648
1.06137
1.17347
1.45474
1.73309
1.87378
1.93715
1.92951
1.92184
1.90815
1.89184
1.8836
1.87607
1.86849
1.86089
1.85632
1.85197
1.84452
1.83461
1.82175
1.8105
1.80437
1.80144
1.80266
1.80099
1.79366
1.78724
1.78496
1.79417
1.93791
2.34006
2.67757
2.75896
2.73531
2.72321
2.71238
2.7204
2.71899
2.70998
2.69565
2.68108
2.67301
2.67143
2.67399
2.67303
2.66476
2.6518
2.63556
2.62221
2.61327
2.6087
2.60771
2.60985
2.61275
2.60869
2.60031
2.5901
2.57855
2.56874
2.56076
2.55491
2.55402
2.55701
2.55549
2.54697
2.53655
2.52438
2.51062
2.49614
2.48277
2.4723
2.46457
2.46052
2.46221
2.46895
2.47529
2.48003
2.4813
2.47729
2.47004
2.45909
2.44425
2.42877
2.41661
2.40849
2.40434
2.40489
2.40579
2.40466
2.40186
2.39681
2.38979
2.37885
2.36263
2.346
2.33442
2.32749
2.32426
2.32562
2.32809
2.32531
2.31966
2.3116
2.30083
2.2899
2.28192
2.27641
2.27341
2.27561
2.28235
2.28764
2.28859
2.28595
2.28078
2.27335
2.26359
2.25077
2.23375
2.21238
2.19023
2.17452
2.16745
2.16455
2.16706
2.17286
2.17983
2.1831
1.02773
1.03018
1.05585
1.19437
1.42596
1.69014
1.84419
1.90511
1.92199
1.91876
1.90592
1.8914
1.87599
1.8624
1.85593
1.85169
1.85033
1.85273
1.85344
1.84621
1.83145
1.81427
1.80362
1.79843
1.79534
1.79883
1.80931
1.81398
1.80755
1.79509
1.78867
1.79375
1.9154
2.28814
2.63772
2.76113
2.76355
2.75776
2.7398
2.73301
2.72919
2.72972
2.72536
2.71657
2.70789
2.70066
2.69474
2.68728
2.67848
2.66823
2.65852
2.65141
2.64668
2.64435
2.64496
2.64487
2.63826
2.62947
2.61886
2.60718
2.59802
2.59116
2.58841
2.59114
2.59351
2.58656
2.57489
2.56005
2.54156
2.52441
2.51315
2.50604
2.50125
2.49935
2.50022
2.50171
2.50068
2.49787
2.49636
2.49691
2.49704
2.49388
2.48787
2.4796
2.46821
2.45611
2.44613
2.43856
2.43414
2.43299
2.43113
2.42764
2.42348
2.41793
2.41075
2.40012
2.38623
2.37432
2.36498
2.35739
2.35199
2.34763
2.34252
2.33658
2.32971
2.32221
2.31526
2.30994
2.30629
2.30499
2.30586
2.30677
2.30577
2.30327
2.29974
2.29574
2.29179
2.28748
2.28199
2.27487
2.2632
2.2444
2.22041
2.19829
2.18569
2.18101
2.18053
2.18746
2.19825
1.02266
1.0479
1.18353
1.45424
1.63588
1.78608
1.87159
1.90738
1.90825
1.90483
1.89587
1.88246
1.86896
1.85693
1.84964
1.8458
1.84302
1.84365
1.84926
1.85055
1.84261
1.82434
1.80652
1.79925
1.79574
1.79626
1.80551
1.82178
1.83019
1.82451
1.80849
1.79637
1.79823
1.89311
2.22617
2.59791
2.75509
2.82121
2.79385
2.78362
2.75733
2.75309
2.75478
2.7582
2.75402
2.74236
2.72755
2.71347
2.70397
2.69651
2.69271
2.69097
2.68993
2.68874
2.68546
2.67889
2.67104
2.66291
2.65452
2.64555
2.63746
2.63157
2.62848
2.62617
2.62164
2.61516
2.60605
2.59423
2.58018
2.56732
2.55785
2.55089
2.54628
2.54358
2.54131
2.537
2.53075
2.52471
2.52013
2.518
2.51845
2.5202
2.51994
2.51533
2.5081
2.49838
2.48844
2.48025
2.47438
2.46995
2.4656
2.46098
2.45577
2.44942
2.44156
2.43197
2.42138
2.41193
2.40374
2.39604
2.38836
2.381
2.37475
2.36911
2.36369
2.35826
2.35251
2.34681
2.34213
2.33826
2.33393
2.32908
2.32439
2.32067
2.31856
2.31806
2.31827
2.31776
2.31534
2.3107
2.30415
2.29389
2.27668
2.25306
2.22902
2.21171
2.20355
2.20122
2.20782
1.04068
1.16233
1.43856
1.64153
1.72709
1.82353
1.86547
1.88777
1.89139
1.88956
1.8851
1.87982
1.87146
1.85987
1.84867
1.84224
1.8376
1.83472
1.83742
1.84817
1.85544
1.85134
1.83651
1.81751
1.80674
1.80238
1.80499
1.81576
1.83242
1.84357
1.84104
1.82842
1.816
1.81432
1.87834
2.156
2.51393
2.75588
2.82226
2.84021
2.8179
2.79707
2.78251
2.78293
2.7876
2.78392
2.77158
2.75788
2.7458
2.73549
2.72929
2.72502
2.72262
2.72204
2.71973
2.71342
2.70561
2.69808
2.6912
2.68446
2.67805
2.67219
2.66502
2.65657
2.64726
2.63895
2.6329
2.62791
2.62136
2.61503
2.60957
2.60415
2.59796
2.59017
2.58079
2.5705
2.56029
2.55149
2.54465
2.53969
2.53734
2.5377
2.54019
2.54281
2.54354
2.54171
2.53842
2.53287
2.52399
2.51237
2.50055
2.49062
2.48201
2.47399
2.46638
2.45938
2.45272
2.44659
2.4408
2.43405
2.42631
2.41817
2.41092
2.40544
2.40105
2.39696
2.39235
2.38645
2.37865
2.36891
2.35814
2.34843
2.34145
2.33697
2.33528
2.3376
2.34194
2.34489
2.34543
2.34353
2.33945
2.33314
2.323
2.30664
2.28509
2.26197
2.24191
2.23015
2.22587
1.17061
1.40059
1.61881
1.71707
1.7786
1.83041
1.86366
1.87487
1.87643
1.8796
1.88097
1.88297
1.88179
1.87348
1.85856
1.84469
1.83715
1.83264
1.83283
1.84049
1.85637
1.86973
1.86953
1.85901
1.84148
1.82656
1.8182
1.81533
1.82454
1.8429
1.85727
1.85833
1.84876
1.83842
1.83701
1.86717
2.06103
2.41686
2.70254
2.81216
2.86898
2.8483
2.83523
2.81117
2.80639
2.80884
2.80603
2.80316
2.79561
2.78242
2.76877
2.75702
2.74845
2.74372
2.74275
2.7412
2.7364
2.72998
2.72416
2.71927
2.71369
2.70576
2.69558
2.68488
2.67529
2.66776
2.66271
2.66288
2.66411
2.66191
2.65728
2.65052
2.64147
2.63053
2.61825
2.60583
2.59377
2.5821
2.57128
2.56265
2.5565
2.55239
2.55189
2.5573
2.567
2.57672
2.58114
2.57794
2.57034
2.55733
2.53833
2.51835
2.50291
2.49314
2.48644
2.48138
2.47865
2.47759
2.47516
2.47031
2.46409
2.45738
2.45034
2.44363
2.43843
2.43368
2.42825
2.42135
2.41192
2.39951
2.38534
2.37225
2.36302
2.35786
2.35541
2.35766
2.36334
2.36723
2.36837
2.36724
2.36414
2.35907
2.3519
2.34266
2.33053
2.31488
2.29572
2.27442
2.25523
1.42783
1.58931
1.67896
1.74101
1.82413
1.87411
1.88775
1.87965
1.8737
1.87224
1.8751
1.88018
1.8846
1.88413
1.87714
1.86538
1.85304
1.84441
1.83954
1.84057
1.85165
1.8705
1.88532
1.8855
1.87655
1.86247
1.84841
1.83863
1.83336
1.8393
1.85734
1.8718
1.87301
1.86434
1.85393
1.85547
1.86405
1.98312
2.28049
2.58622
2.80201
2.84719
2.88072
2.8566
2.84098
2.82986
2.83115
2.83723
2.83298
2.82441
2.81211
2.7952
2.7767
2.76498
2.75915
2.75803
2.7586
2.75624
2.75125
2.74631
2.74063
2.73329
2.72326
2.71305
2.70564
2.69981
2.69576
2.69529
2.6965
2.6948
2.69016
2.68323
2.67456
2.66422
2.65284
2.64103
2.62856
2.61515
2.6012
2.58846
2.57884
2.57262
2.56931
2.57282
2.58548
2.59944
2.60672
2.60601
2.60059
2.59113
2.57478
2.5533
2.53334
2.51958
2.51153
2.50628
2.50467
2.50566
2.5042
2.49996
2.4947
2.48855
2.48203
2.47514
2.468
2.46152
2.45512
2.4479
2.43912
2.42828
2.41587
2.40357
2.39273
2.3849
2.38102
2.38069
2.38385
2.38513
2.38275
2.37856
2.37392
2.37038
2.36825
2.36645
2.36254
2.35618
2.34615
2.332
2.29967
1.59122
1.65328
1.703
1.78635
1.87213
1.90223
1.8997
1.88691
1.87626
1.87232
1.87419
1.87829
1.88367
1.88933
1.89119
1.88712
1.88043
1.87282
1.86561
1.86027
1.85865
1.86704
1.88475
1.89824
1.89817
1.89127
1.88258
1.8729
1.86397
1.85829
1.85807
1.86807
1.8807
1.88267
1.87668
1.86846
1.86735
1.86841
1.92724
2.12677
2.45517
2.7191
2.84184
2.88255
2.88025
2.86832
2.85882
2.8612
2.85713
2.85512
2.85043
2.83745
2.81765
2.79583
2.78191
2.7747
2.77329
2.77519
2.77306
2.76788
2.76235
2.75616
2.7491
2.74199
2.73726
2.73355
2.72966
2.72527
2.72042
2.71548
2.71073
2.70593
2.70015
2.69262
2.684
2.67423
2.66269
2.6492
2.63452
2.62014
2.60809
2.59975
2.59532
2.59622
2.60292
2.60965
2.61423
2.61659
2.61487
2.60942
2.60101
2.58898
2.57387
2.55832
2.54593
2.5384
2.53406
2.53115
2.52773
2.52313
2.51733
2.51054
2.50314
2.49531
2.48712
2.47975
2.47366
2.468
2.46228
2.45627
2.44978
2.44271
2.43463
2.42487
2.41378
2.40432
2.39863
2.3936
2.38677
2.38003
2.37576
2.37399
2.37561
2.38082
2.38696
2.38813
2.38351
2.37681
2.34903
1.64785
1.68483
1.74779
1.83843
1.89659
1.91729
1.91183
1.9027
1.89388
1.88813
1.88362
1.87996
1.8796
1.88527
1.89611
1.90436
1.90581
1.90226
1.89715
1.8908
1.88417
1.87949
1.88286
1.89809
1.91029
1.91219
1.90861
1.90307
1.89419
1.88241
1.87355
1.86869
1.8748
1.89001
1.89654
1.89499
1.88825
1.88006
1.87374
1.89189
2.00885
2.27985
2.5802
2.80565
2.8624
2.89779
2.89164
2.8902
2.88242
2.87497
2.87262
2.86569
2.85632
2.83918
2.81787
2.80253
2.79411
2.791
2.79152
2.7883
2.78295
2.77757
2.7719
2.76682
2.76337
2.76116
2.75788
2.75131
2.74292
2.73514
2.72892
2.72435
2.72089
2.7167
2.71036
2.70246
2.69289
2.68121
2.66901
2.65776
2.64756
2.63846
2.63112
2.62568
2.62058
2.61562
2.6132
2.61415
2.617
2.61818
2.61671
2.61327
2.60794
2.59931
2.58865
2.57723
2.5655
2.55496
2.54686
2.53978
2.53266
2.52481
2.51636
2.50742
2.49872
2.49191
2.48711
2.48357
2.48151
2.48155
2.48256
2.48067
2.47557
2.46745
2.45445
2.43498
2.41363
2.39731
2.38662
2.38021
2.37701
2.37647
2.38209
2.39466
2.40867
2.41349
2.41035
2.40558
2.38472
1.65894
1.7187
1.80889
1.88511
1.92013
1.92914
1.92666
1.92201
1.91742
1.90834
1.89727
1.88834
1.88286
1.88661
1.90303
1.91938
1.92766
1.92649
1.9206
1.91405
1.90666
1.89914
1.89503
1.90175
1.91849
1.92986
1.92957
1.92372
1.91537
1.90203
1.8881
1.87997
1.877
1.89175
1.91191
1.91586
1.91086
1.90031
1.88641
1.87548
1.87643
1.9239
2.09979
2.4212
2.69207
2.85
2.89132
2.90374
2.9013
2.89761
2.89259
2.8841
2.87958
2.87329
2.86088
2.84346
2.82762
2.81767
2.81176
2.80891
2.80419
2.79852
2.79278
2.78739
2.78314
2.77983
2.77665
2.772
2.76594
2.75889
2.7521
2.74615
2.74096
2.73623
2.73121
2.72463
2.71677
2.70805
2.7001
2.69355
2.68747
2.68028
2.67027
2.6563
2.64002
2.62639
2.61804
2.61331
2.61303
2.61763
2.62244
2.62516
2.62592
2.6243
2.62009
2.61195
2.59914
2.58317
2.56816
2.55688
2.54749
2.53829
2.52889
2.5192
2.51053
2.50473
2.5007
2.49842
2.49866
2.50305
2.50867
2.50962
2.50516
2.49805
2.48715
2.4669
2.43669
2.40804
2.39211
2.38607
2.38334
2.3838
2.39395
2.41294
2.42959
2.4331
2.42877
2.422
2.4021
1.69672
1.78483
1.8744
1.9217
1.92786
1.9328
1.93579
1.93497
1.9317
1.92366
1.91433
1.90691
1.90314
1.90675
1.91869
1.93058
1.93839
1.94199
1.93777
1.93046
1.92391
1.91818
1.91556
1.92017
1.93109
1.93872
1.93896
1.9344
1.92724
1.91722
1.90624
1.89945
1.89693
1.90634
1.92212
1.92608
1.92231
1.91493
1.90234
1.88718
1.88016
1.87964
1.89695
1.99933
2.23928
2.53793
2.77953
2.8578
2.90878
2.91125
2.91373
2.90459
2.8961
2.89641
2.89306
2.88719
2.87319
2.85386
2.84089
2.83261
2.82628
2.82013
2.81319
2.80599
2.7996
2.79393
2.78947
2.7865
2.78485
2.78202
2.77691
2.77002
2.7619
2.75458
2.74862
2.74318
2.73776
2.73183
2.72661
2.72253
2.71769
2.71052
2.70053
2.68579
2.66691
2.64849
2.63366
2.62351
2.61784
2.61623
2.62023
2.62571
2.62977
2.63274
2.63361
2.63066
2.62426
2.61287
2.59736
2.58228
2.56949
2.55794
2.547
2.5367
2.52788
2.52153
2.51715
2.51479
2.51501
2.51841
2.52243
2.52349
2.52039
2.51399
2.50427
2.48843
2.46416
2.43513
2.41197
2.40143
2.39833
2.40076
2.41388
2.4301
2.43868
2.43932
2.43493
2.42694
2.40998
1.76004
1.87199
1.93057
1.94802
1.94178
1.94019
1.94134
1.94186
1.94217
1.94193
1.93954
1.93657
1.93482
1.93477
1.93611
1.93692
1.93845
1.94282
1.94657
1.94383
1.93995
1.9386
1.93979
1.94216
1.94294
1.94128
1.93934
1.93792
1.93563
1.93143
1.92683
1.92498
1.92627
1.92992
1.93185
1.9299
1.92661
1.92237
1.91644
1.90803
1.90111
1.89784
1.90058
1.90481
1.94405
2.07261
2.33389
2.59294
2.81151
2.86977
2.90329
2.91766
2.91376
2.91959
2.91905
2.9157
2.90803
2.89211
2.87249
2.85875
2.84928
2.84167
2.83495
2.82719
2.8189
2.81025
2.80326
2.79932
2.79806
2.79761
2.79457
2.78912
2.78162
2.77276
2.76546
2.76004
2.75539
2.75174
2.74811
2.74327
2.73655
2.72893
2.71969
2.70772
2.6933
2.67795
2.66264
2.64788
2.63505
2.62692
2.62254
2.62221
2.62657
2.63144
2.63534
2.63774
2.63677
2.63285
2.62508
2.61402
2.60162
2.58832
2.57534
2.56397
2.55377
2.54466
2.53755
2.53258
2.52909
2.52685
2.52531
2.5237
2.5212
2.5167
2.50978
2.50044
2.48799
2.47159
2.45199
2.43449
2.42697
2.42834
2.43695
2.44093
2.43781
2.43477
2.43248
2.42798
2.41766
1.85235
1.94799
1.97799
1.97184
1.9658
1.95745
1.9526
1.95345
1.95621
1.96068
1.96595
1.96842
1.96694
1.96131
1.95331
1.94552
1.93964
1.9399
1.94978
1.95833
1.96117
1.96367
1.96251
1.95595
1.94922
1.94241
1.93733
1.93549
1.93834
1.94313
1.94754
1.95202
1.95375
1.94736
1.9387
1.93088
1.92554
1.92459
1.92687
1.92706
1.92683
1.92416
1.91565
1.90918
1.90185
1.90775
1.95966
2.1117
2.38402
2.65905
2.80928
2.89416
2.90749
2.92516
2.93236
2.93496
2.93071
2.91833
2.90286
2.88502
2.87182
2.86462
2.85881
2.85215
2.84376
2.83389
2.82382
2.81654
2.81139
2.80739
2.80457
2.80084
2.79596
2.78983
2.78268
2.7771
2.77275
2.76947
2.76533
2.75887
2.75142
2.74322
2.73432
2.72492
2.71543
2.70574
2.69507
2.68259
2.66789
2.65202
2.639
2.63169
2.62806
2.62897
2.63333
2.63791
2.64273
2.64531
2.64366
2.63988
2.6333
2.62318
2.61117
2.59872
2.58649
2.57484
2.56333
2.55168
2.54094
2.53265
2.52612
2.52037
2.51557
2.5128
2.51199
2.51145
2.50905
2.5054
2.49979
2.48965
2.47408
2.4582
2.44808
2.44043
2.43262
2.42731
2.42523
2.42846
2.42938
1.9353
1.99079
1.99828
1.99076
1.98378
1.97775
1.97221
1.96923
1.97035
1.97755
1.98773
1.9907
1.98636
1.97964
1.96817
1.955
1.9468
1.94392
1.95686
1.97604
1.98244
1.97931
1.97257
1.96179
1.95099
1.94355
1.93826
1.93665
1.94498
1.95936
1.96902
1.96924
1.96334
1.95369
1.9411
1.93205
1.92663
1.92662
1.93657
1.94609
1.94675
1.94182
1.93012
1.91227
1.9029
1.89678
1.89755
1.91706
1.99126
2.18768
2.44104
2.70158
2.82495
2.88302
2.91608
2.93501
2.94518
2.93648
2.92883
2.9153
2.8972
2.88668
2.8799
2.87532
2.87017
2.86244
2.85349
2.84359
2.83167
2.82034
2.81356
2.80939
2.80644
2.80287
2.79829
2.79349
2.78994
2.78679
2.78217
2.7758
2.76866
2.76059
2.75173
2.7428
2.73485
2.72777
2.72062
2.71262
2.70252
2.68936
2.67396
2.6582
2.64599
2.63972
2.63691
2.63829