/*--------------------------------*- C++ -*----------------------------------*\
  =========                 |
  \\      /  F ield         | OpenFOAM: The Open Source CFD Toolbox
   \\    /   O peration     | Website:  https://openfoam.org
    \\  /    A nd           | Version:  7
     \\/     M anipulation  |
\*---------------------------------------------------------------------------*/
FoamFile
{
    version     2.0;
    format      ascii;
    class       volScalarField;
    location    "2.4";
    object      p;
}
// * * * * * * * * * * * * * * * * * * * * * * * * * * * * * * * * * * * * * //

dimensions      [1 -1 -2 0 0 0 0];

internalField   nonuniform List<scalar> 
4048
(
1
1
1
1
1
1
1
1
1
1
1
1
1
1
1
1
6.38605
10.6859
10.8954
11.1666
11.4268
11.6599
11.8541
12.024
1
1
1
1
1
1
1
1
1
1
1
1
1
1
1
1
6.14033
10.5867
10.8354
11.0954
11.3478
11.5662
11.7218
11.8149
1
1
1
1
1
1
1
1
1
1
1
1
1
1
1
1
5.64224
10.4464
10.7266
10.9528
11.1564
11.3037
11.4086
11.5462
1
1
1
1
1
1
1
1
1
1
1
1
1
1
1
1
4.92341
10.2052
10.5767
10.7733
10.9457
11.0917
11.1497
11.4924
1
1
1
1
1
1
1
1
1
1
1
1
1
1
1
1
4.03256
9.81002
10.3926
10.558
10.6605
10.7012
10.3024
9.71482
1
1
1
1
1
1
1
1
1
1
1
1
1
1
1
1
3.00815
9.19862
10.2449
10.3691
10.4016
10.3245
9.99782
9.59088
1
1
1
1
1
1
1
1
1
1
1
1
1
1
1
1
1.92738
8.26586
10.1321
10.1812
10.1794
10.0404
9.71907
9.35727
1
1
1
1
1
1
1
1
1
1
1
1
1
1
1
1
1.10831
6.95695
10.1012
9.93302
9.87898
9.73109
9.4917
9.2148
1
1
1
1
1
1
1
1
1
1
1
1
1
1
1
1
1.00107
5.20134
9.44561
9.64335
9.62202
9.47484
9.29296
9.0822
1
1
1
1
1
1
1
1
1
1
1
1
1
1
1
1
0.999986
3.10781
8.66509
9.48406
9.41638
9.30609
9.14636
8.93638
1
1
1
1
1
1
1
1
1
1
1
1
1
1
1
1
0.999997
1.41527
7.54367
9.57858
9.28581
9.10645
8.93842
8.7117
1
1
1
1
1
1
1
1
1
1
1
1
1
1
1
1
0.999999
1.01778
5.64895
8.93505
8.92619
8.86857
8.71919
8.48924
1
1
1
1
1
1
1
1
1
1
1
1
1
1
1
1
1
0.999893
3.00715
8.11015
8.83544
8.76595
8.58992
8.32807
1
1
1
1
1
1
1
1
1
1
1
1
1
1
1
1
1
0.999973
1.29579
6.63403
8.80597
8.64716
8.43676
8.15516
1
1
1
1
1
1
1
1
1
1
1
1
1
1
1
1
1
0.999996
1.00733
4.11421
8.19313
8.44395
8.25845
8.01701
1
1
1
1
1
1
1
1
1
1
1
1
1
1
1
1
1
1
0.999975
1.61216
7.01104
8.44633
8.18106
7.93253
1
1
1
1
1
1
1
1
1
1
1
1
1
1
1
1
1
1
0.999994
1.03073
4.66103
8.01828
8.02599
7.80131
1
1
1
1
1
1
1
1
1
1
1
1
1
1
1
1
1
1
0.999999
1.00006
1.83629
6.87588
8.0534
7.74439
1
1
1
1
1
1
1
1
1
1
1
1
1
1
1
1
1
1
1
1
1.05371
4.56821
7.71506
7.62013
1
1
1
1
1
1
1
1
1
1
1
1
1
1
1
1
1
1
1
1
1.00029
1.81977
6.41771
7.63088
1
1
1
1
1
1
1
1
1
1
1
1
1
1
1
1
1
1
1
1
1
1.05031
3.86024
7.25529
1
1
1
1
1
1
1
1
1
1
1
1
1
1
1
1
1
1
1
1
1
1.00039
1.55054
5.66237
1
1
1
1
1
1
1
1
1
1
1
1
1
1
1
1
1
1
1
1
1
1
1.024
2.79962
1
1
1
1
1
1
1
1
1
1
1
1
1
1
1
1
1
1
1
1
1
1
1.00019
1.22845
1
1
1
1
1
1
1
1
1
1
1
1
1
1
1
1
1
1
1
1
1
1
1
1.0053
1
1
1
1
1
1
1
1
1
1
1
1
1
1
1
1
1
1
1
1
1
1
1
1.00003
1
1
1
1
1
1
1
1
1
1
1
1
1
1
1
1
1
1
1
1
1
1
1
1
1
1
1
1
1
1
1
1
1
1
1
1
1
1
1
1
1
1
1
1
1
1
1
1
1
1
1
1
1
1
1
1
1
1
1
1
1
1
1
1
1
1
1
1
1
1
1
1
1
1
1
1
1
1
1
1
1
1
1
1
1
1
1
1
1
1
1
1
1
1
1
1
1
1
1
1
1
1
1
1
1
1
1
1
1
1
1
1
1
1
1
1
1
1
1
1
1
1
1
1
1
1
1
1
1
1
1
1
1
1
1
1
1
1
1
1
1
1
1
1
1
1
1
1
1
1
1
1
1
1
1
1
1
1
1
1
1
1
1
1
1
1
1
1
1
1
1
1
1
1
1
1
1
1
1
1
1
1
1
1
1
1
1
1
1
1
1
1
1
1
1
1
1
1
1
1
1
1
1
1
1
1
1
1
1
1
1
1
1
1
1
1
1
1
1
1
1
1
1
1
1
1
1
1
1
1
1
1
1
1
1
1
1
1
1
1
1
1
1
1
1
1
1
1
1
1
1
1
1
1
1
1
1
1
1
1
1
1
1
1
1
1
1
1
1
1
1
1
1
1
1
1
1
1
1
1
1
1
1
1
1
1
1
1
1
1
1
1
1
1
1
1
1
1
1
1
1
1
1
1
1
1
1
1
1
1
1
1
1
1
1
1
1
1
1
1
1
1
1
1
1
1
1
1
1
1
1
1
1
1
1
1
7.31817
8.49563
8.89124
9.15958
9.0294
9.49415
9.31456
9.34292
9.05901
9.16111
9.02241
9.1174
9.04746
9.05769
8.97017
9.29005
8.89978
8.75578
8.24387
6.66357
8.67823
8.32777
7.56709
6.07329
8.40176
7.97626
7.1627
5.86396
8.15509
7.69594
6.89339
5.82069
7.98206
7.48755
6.76329
5.86585
7.80524
7.32645
6.68459
5.90838
7.67205
7.21544
6.6394
5.97041
7.57172
7.12188
6.59594
6.0047
7.46113
7.03542
6.55627
6.02934
7.39724
6.99319
6.55356
6.07374
7.30178
6.94161
6.54387
6.10245
7.26564
6.9295
6.55675
6.14497
7.19343
6.88735
6.54163
6.17412
7.24938
6.89557
6.5616
6.21929
6.41001
6.87616
6.57976
6.24967
4.37148
6.79088
6.64409
6.32467
1.84502
5.46848
6.61949
6.36699
1.05497
2.81219
5.92812
6.40561
1.00071
1.23458
3.8704
6.10003
1
1.00631
1.62814
4.61881
1
1.00004
1.03357
2.15413
1
1
1.0004
1.10414
1
1
1
1.00201
1
1
1
1.00001
1
1
1
1
1
1
1
1
1
1
1
1
1
1
1
1
1
1
1
1
1
1
1
1
1
1
1
1
1
1
1
1
1.95068
0.778221
0.551884
0.51983
0.54813
0.658417
0.798854
0.961207
1.05425
1.11383
1.16489
1.19843
1.24071
1.29661
1.31191
1.31192
1.31851
1.3222
1.30919
1.30289
1.31544
1.32839
1.33005
1.32872
1.32702
1.32331
1.31397
1.30808
1.3076
1.30947
1.31905
1.33424
1.33999
1.33787
1.3305
1.31734
1.30093
1.28889
1.28345
1.28585
1.34714
1.82663
4.07414
6.62186
6.68632
6.39068
6.32095
6.02207
5.70092
5.5107
5.40337
5.3675
5.31355
5.2056
5.07804
4.93368
4.80103
4.68721
4.59102
4.51682
4.46297
4.40482
4.32943
4.24751
4.15459
4.03895
3.90597
3.80167
3.73673
3.68548
3.65542
3.6512
3.62945
3.57866
3.51727
3.41757
3.24978
3.11615
3.06144
3.02564
2.99811
2.99173
2.99432
2.96879
2.93221
2.87693
2.76383
2.63118
2.57323
2.54148
2.52098
2.50201
3.12049
1.79618
1.3275
1.11899
0.954208
0.920275
0.882055
0.863915
0.897934
0.949806
1.01009
1.07797
1.14297
1.21263
1.24539
1.25194
1.26557
1.27411
1.27294
1.27907
1.29866
1.31413
1.32513
1.33206
1.3332
1.33137
1.32567
1.31932
1.31698
1.31464
1.31493
1.31806
1.31842
1.31863
1.31724
1.31216
1.30413
1.29491
1.2975
1.36131
1.71892
2.45044
3.30387
5.18927
6.04645
6.06867
6.11239
5.90994
5.68354
5.52348
5.38923
5.31234
5.2631
5.18025
5.07467
4.96249
4.83902
4.71239
4.59574
4.50347
4.42824
4.36454
4.30906
4.24273
4.16478
4.0762
3.96848
3.84441
3.74799
3.69012
3.64811
3.61956
3.57905
3.52941
3.47298
3.39849
3.29658
3.17688
3.08199
3.03647
3.00752
2.99205
2.97577
2.94461
2.90567
2.85505
2.77636
2.67712
2.59702
2.55487
2.53232
2.50568
3.8595
2.69934
1.96229
1.54471
1.25946
1.07987
0.995887
0.885456
0.886497
0.935113
0.991311
1.04441
1.09286
1.14623
1.1802
1.20504
1.23569
1.27673
1.29842
1.30816
1.32939
1.34329
1.34291
1.33577
1.33088
1.32339
1.31626
1.31451
1.3134
1.31466
1.32136
1.32189
1.3198
1.3163
1.31111
1.30037
1.29213
1.29746
1.3687
1.76412
2.46069
3.07271
3.08306
3.57171
4.9231
5.81503
6.0793
5.97069
5.85256
5.66884
5.47194
5.31717
5.18624
5.09337
5.01975
4.96198
4.88386
4.78965
4.66836
4.51859
4.39482
4.31532
4.24669
4.18619
4.13554
4.07843
4.01369
3.93323
3.82269
3.71148
3.63804
3.58056
3.52623
3.46955
3.40461
3.33988
3.29197
3.23985
3.15723
3.06559
3.01918
2.98532
2.95031
2.91161
2.86478
2.80706
2.75019
2.70155
2.65078
2.59371
2.55336
2.50278
4.36743
3.32496
2.61161
2.07296
1.6887
1.44189
1.2955
1.14605
1.04501
1.02256
0.987266
0.972304
0.988352
1.02355
1.06607
1.11473
1.16015
1.21021
1.25365
1.27666
1.30281
1.33633
1.34738
1.34647
1.33889
1.32347
1.31443
1.30867
1.307
1.30874
1.31371
1.31621
1.31678
1.31437
1.30755
1.29702
1.3008
1.35246
1.74898
2.55844
3.01938
3.18887
3.0913
3.05286
3.39106
4.44629
5.29734
5.74878
5.88238
5.72724
5.53371
5.29952
5.09961
5.0113
4.95524
4.92442
4.86641
4.78822
4.68636
4.53628
4.37015
4.27139
4.20752
4.15145
4.105
4.06311
4.01135
3.95123
3.86722
3.73701
3.61549
3.53945
3.47577
3.4127
3.35742
3.31912
3.29163
3.25997
3.21294
3.13057
3.03465
2.97331
2.92729
2.87734
2.81843
2.76422
2.73238
2.70593
2.67753
2.63865
2.58775
2.50673
4.74199
3.812
3.12661
2.57214
2.10721
1.82907
1.60499
1.4146
1.25089
1.15455
1.06677
0.984541
0.972813
0.982889
1.00266
1.03418
1.07621
1.12735
1.1741
1.20769
1.23399
1.26725
1.30101
1.31312
1.32474
1.33681
1.33768
1.3333
1.32921
1.32525
1.31713
1.30748
1.30279
1.29505
1.29003
1.30132
1.38028
1.72149
2.62452
3.10168
3.20906
3.21559
3.13142
3.01586
2.99069
3.2003
3.94928
4.9473
5.43196
5.65756
5.60886
5.38213
5.13657
4.98453
4.89886
4.8557
4.81979
4.75955
4.68357
4.56741
4.38961
4.24055
4.17057
4.11715
4.07716
4.04897
4.00462
3.94808
3.87474
3.74864
3.58334
3.47905
3.42106
3.37642
3.34381
3.32711
3.31214
3.28304
3.24485
3.17975
3.06008
2.94634
2.8804
2.82819
2.78541
2.75787
2.73919
2.71962
2.6934
2.65996
2.61098
2.50348
5.00047
4.19755
3.53399
2.98946
2.51887
2.18681
1.93154
1.69126
1.51355
1.37823
1.26972
1.15108
1.09569
1.06397
1.02984
1.02802
1.03912
1.0545
1.07387
1.1075
1.14635
1.18862
1.24123
1.2635
1.28248
1.30814
1.3193
1.32261
1.32828
1.33042
1.32674
1.31544
1.3014
1.28774
1.29437
1.38826
1.83466
2.55381
3.21464
3.26411
3.2453
3.19898
3.11771
3.04227
2.96693
2.93697
3.03842
3.54977
4.3473
5.14453
5.33665
5.3556
5.22231
5.02016
4.8937
4.8027
4.75179
4.70088
4.64517
4.569
4.43534
4.2653
4.15032
4.08577
4.03561
4.00385
3.96625
3.91458
3.8506
3.75358
3.60467
3.47009
3.40949
3.37255
3.34345
3.32818
3.31417
3.28823
3.25421
3.19852
3.07548
2.91843
2.83244
2.7914
2.76378
2.74497
2.74058
2.73131
2.70851
2.67854
2.63521
2.49869
5.19384
4.49112
3.88927
3.34906
2.88446
2.52858
2.23949
1.9747
1.77336
1.615
1.46896
1.3397
1.24815
1.17545
1.10778
1.05369
1.04793
1.04504
1.03834
1.04384
1.06275
1.09133
1.13362
1.18134
1.21966
1.26507
1.29272
1.30015
1.31044
1.31635
1.31546
1.30837
1.29868
1.30101
1.37798
1.91221
2.68497
3.17686
3.29175
3.25621
3.2107
3.16049
3.1026
3.04974
2.99042
2.91111
2.87797
2.90706
3.13548
3.80438
4.53225
5.05218
5.11338
5.05897
4.92431
4.7999
4.70911
4.64244
4.58893
4.53179
4.44531
4.32036
4.17891
4.07491
4.01237
3.96089
3.91649
3.86616
3.8066
3.73403
3.63742
3.51588
3.4242
3.38247
3.35332
3.33515
3.31765
3.28212
3.23592
3.16808
3.05587
2.91314
2.82322
2.78795
2.76291
2.74378
2.73774
2.72991
2.70965
2.68182
2.63124
2.48017
5.32214
4.71936
4.16398
3.62524
3.20719
2.85139
2.52687
2.2335
2.03649
1.85235
1.68763
1.53738
1.43868
1.34206
1.25341
1.17267
1.13937
1.10181
1.06442
1.04922
1.04859
1.04931
1.05508
1.08129
1.12861
1.18275
1.23714
1.26432
1.27994
1.29493
1.29635
1.28848
1.29136
1.37142
1.85796
2.80072
3.19025
3.27981
3.27104
3.2203
3.16031
3.12058
3.07897
3.03625
2.98276
2.90847
2.83182
2.80778
2.78779
2.87648
3.27336
4.01869
4.65097
4.89412
4.90496
4.80208
4.68373
4.58343
4.51922
4.46913
4.41078
4.33913
4.24531
4.11921
3.99177
3.91469
3.86211
3.81265
3.76026
3.70969
3.65819
3.58868
3.48459
3.38611
3.33889
3.30228
3.26039
3.21306
3.15937
3.09783
3.02618
2.94368
2.8579
2.80283
2.77491
2.75303
2.73729
2.72252
2.69636
2.65012
2.58323
2.45718
5.43452
4.8984
4.3875
3.88539
3.48367
3.13219
2.78061
2.4932
2.28634
2.08454
1.88697
1.73305
1.63375
1.51852
1.40802
1.30668
1.24539
1.17991
1.11658
1.06778
1.05959
1.05044
1.0472
1.05462
1.07295
1.10359
1.13524
1.17042
1.20066
1.23832
1.2481
1.25996
1.38818
1.86541
2.80003
3.25761
3.30613
3.28386
3.22736
3.18228
3.12694
3.07886
3.04253
3.01056
2.96127
2.87201
2.79362
2.75316
2.72559
2.71146
2.73246
2.92752
3.49355
4.12523
4.6119
4.65047
4.62055
4.55109
4.46837
4.42398
4.38226
4.32129
4.25775
4.16268
4.01011
3.88483
3.81987
3.76995
3.72909
3.69228
3.65481
3.61076
3.53773
3.41654
3.30883
3.25048
3.20635
3.16
3.10605
3.04954
3.00625
2.96748
2.91555
2.84076
2.7871
2.76232
2.73581
2.69561
2.64109
2.58153
2.52541
2.45052
5.5422
5.04655
4.56698
4.10575
3.71515
3.36942
3.01327
2.7331
2.50889
2.30089
2.07891
1.92825
1.81044
1.68807
1.56148
1.45978
1.38951
1.31137
1.23008
1.15522
1.13777
1.10937
1.07497
1.06823
1.07378
1.06972
1.06293
1.07102
1.09499
1.13587
1.18171
1.33558
1.98926
2.74667
3.29354
3.36228
3.31124
3.23873
3.17758
3.13729
3.11515
3.07603
3.03195
2.98713
2.93248
2.84954
2.76067
2.71003
2.6803
2.66093
2.64596
2.62725
2.7028
2.9807
3.54217
4.06146
4.40741
4.43654
4.41347
4.40082
4.37023
4.31019
4.23883
4.15638
4.03901
3.88365
3.78185
3.73083
3.69184
3.66073
3.62776
3.59065
3.5405
3.44955
3.31369
3.20943
3.14963
3.10454
3.06516
3.03316
3.00621
2.97833
2.94376
2.88795
2.80921
2.73982
2.6886
2.6419
2.59087
2.5345
2.49019
2.45288
5.62168
5.17142
4.7226
4.29054
3.92608
3.58029
3.22602
2.95181
2.72569
2.50425
2.2682
2.11863
1.9858
1.85477
1.71119
1.6117
1.53311
1.44645
1.35505
1.27653
1.23263
1.18419
1.12828
1.08778
1.08127
1.06771
1.05256
1.05347
1.05861
1.07501
1.19989
1.84032
2.72429
3.17137
3.26546
3.24774
3.20745
3.16104
3.11551
3.09246
3.07626
3.06551
3.02336
2.97033
2.91385
2.83908
2.74479
2.67846
2.6411
2.61731
2.60291
2.56921
2.5491
2.53377
2.6354
2.96504
3.49529
3.96589
4.18822
4.25814
4.30024
4.28416
4.21859
4.13273
4.03866
3.91262
3.78253
3.7063
3.65705
3.61457
3.57939
3.5465
3.50635
3.44675
3.33878
3.19544
3.10899
3.06951
3.04113
3.02214
3.00823
2.98314
2.9527
2.90842
2.82623
2.72329
2.65126
2.60033
2.54988
2.50867
2.49126
2.45898
5.70278
5.28477
4.86229
4.46079
4.11027
3.76442
3.4224
3.15946
2.92515
2.68682
2.45527
2.30521
2.1598
2.01383
1.8565
1.76342
1.67284
1.58053
1.47828
1.4049
1.3518
1.28954
1.22487
1.16623
1.14258
1.11346
1.07768
1.06638
1.07548
1.17433
1.66149
2.61295
2.9846
3.06805
3.0539
3.04011
3.02255
3.00106
3.00792
3.00951
2.9982
2.99631
2.98067
2.93097
2.8771
2.82202
2.74828
2.67431
2.61314
2.57844
2.56051
2.53129
2.49274
2.46196
2.43046
2.43006
2.55572
2.94096
3.42798
3.87158
4.04155
4.12891
4.13703
4.0956
4.00575
3.91709
3.80266
3.70351
3.63461
3.57735
3.5332
3.49786
3.46012
3.41199
3.33843
3.22474
3.11312
3.06025
3.03179
3.00727
2.99133
2.96991
2.941
2.90423
2.83409
2.71536
2.61653
2.56388
2.53293
2.51204
2.49947
2.46356
5.77699
5.37666
4.97609
4.613
4.27596
3.93168
3.60456
3.34888
3.1081
2.85884
2.64259
2.48482
2.32535
2.16208
2.00689
1.91151
1.80957
1.70888
1.59707
1.53116
1.46987
1.40045
1.32196
1.25828
1.2209
1.17021
1.12568
1.10262
1.19725
1.68342
2.53712
2.97042
2.97715
2.93864
2.89018
2.85992
2.86067
2.84114
2.83113
2.83771
2.842
2.85063
2.86233
2.85213
2.82762
2.78764
2.72798
2.66888
2.60604
2.54501
2.49875
2.46452
2.43881
2.41887
2.38476
2.36394
2.31547
2.33864
2.49261
2.8796
3.33901
3.72162
3.95797
3.94901
3.93481
3.88806
3.80134
3.71181
3.62322
3.5506
3.50034
3.4575
3.41612
3.37125
3.31411
3.23999
3.15367
3.07339
3.02254
2.99095
2.96262
2.93677
2.91062
2.87897
2.82337
2.71567
2.59669
2.55118
2.53347
2.51665
2.50617
2.46743
5.85312
5.46832
5.08815
4.74798
4.43035
4.08678
3.77927
3.52731
3.29143
3.02185
2.82186
2.6532
2.48678
2.30607
2.16242
2.05967
1.94284
1.83144
1.71882
1.65732
1.58621
1.51113
1.42796
1.3655
1.31128
1.25507
1.22795
1.32531
1.91758
2.64793
3.04774
3.04523
2.96578
2.88846
2.85837
2.84255
2.7948
2.71939
2.64718
2.62738
2.62687
2.64135
2.66468
2.68235
2.7041
2.70478
2.67658
2.6406
2.58317
2.5111
2.45113
2.41451
2.38874
2.38216
2.35866
2.32281
2.28376
2.23548
2.17502
2.20704
2.40067
2.76352
3.27884
3.56951
3.77204
3.79426
3.78183
3.71651
3.61973
3.53338
3.47815
3.43234
3.38528
3.34076
3.28728
3.22786
3.16325
3.08907
3.02317
2.97702
2.93833
2.90181
2.86609
2.82966
2.78749
2.72302
2.63354
2.56187
2.53081
2.50984
2.49468
2.45539
5.90489
5.55779
5.20342
4.85709
4.54551
4.24074
3.94496
3.68536
3.4374
3.17675
2.98331
2.81409
2.64066
2.43333
2.30425
2.19522
2.08086
1.94863
1.84193
1.77998
1.69879
1.61831
1.52996
1.46288
1.40612
1.36479
1.46972
2.08784
3.08571
3.28013
3.17978
3.0748
2.9819
2.92238
2.87739
2.8316
2.78266
2.72593
2.64664
2.54858
2.49749
2.47871
2.48008
2.48596
2.50605
2.53872
2.55561
2.54633
2.50355
2.4417
2.3958
2.36748
2.35054
2.3352
2.31005
2.28601
2.25461
2.20856
2.14938
2.07869
2.05853
2.10992
2.32879
2.71319
3.1823
3.47473
3.59527
3.59977
3.57128
3.51531
3.46076
3.40183
3.36213
3.32537
3.27621
3.22214
3.1568
3.07915
3.00539
2.95194
2.91081
2.87444
2.83606
2.79279
2.75189
2.71474
2.66772
2.59785
2.5297
2.49976
2.48591
2.44663
5.98608
5.65216
5.30973
4.97277
4.66912
4.36725
4.07565
3.83141
3.59222
3.3394
3.12769
2.95479
2.77844
2.58726
2.45319
2.33279
2.20948
2.06544
1.9703
1.90063
1.81582
1.726
1.62979
1.55817
1.51962
1.65469
2.32395
3.37188
3.64872
3.52167
3.29241
3.15142
3.07385
3.01721
2.95391
2.88328
2.81362
2.74053
2.65589
2.55022
2.45541
2.42161
2.39043
2.36362
2.357
2.35745
2.35515
2.36984
2.35643
2.32482
2.29811
2.26912
2.2547
2.25494
2.26213
2.25026
2.21886
2.17801
2.13246
2.07027
2.00935
1.97661
1.96889
2.03818
2.26261
2.66328
3.05352
3.33599
3.38935
3.36804
3.35208
3.33588
3.34317
3.30775
3.26574
3.22741
3.17451
3.10061
2.99267
2.90313
2.8745
2.84733
2.80892
2.76614
2.72787
2.69685
2.66335
2.61662
2.55503
2.49205
2.44592
2.37982
6.03065
5.70648
5.3803
5.05821
4.76479
4.48235
4.2076
3.96205
3.71802
3.47545
3.27886
3.11056
2.91409
2.71572
2.59171
2.46766
2.3395
2.18855
2.09777
2.01137
1.92281
1.82266
1.72777
1.67434
1.83688
2.61894
3.67579
3.97432
3.85842
3.66673
3.46796
3.30095
3.2019
3.11247
3.02262
2.93753
2.85726
2.77999
2.70162
2.60525
2.49546
2.41052
2.35613
2.31736
2.29805
2.27093
2.24344
2.22554
2.19864
2.17258
2.14912
2.13368
2.13341
2.13508
2.13314
2.12564
2.12728
2.1271
2.10596
2.06121
2.00708
1.95133
1.90383
1.88047
1.88321
1.96518
2.1805
2.52552
2.8862
3.1425
3.19462
3.19291
3.20238
3.2279
3.25655
3.22213
3.17372
3.11711
3.02808
2.90603
2.81568
2.7795
2.75596
2.7307
2.70369
2.67436
2.64007
2.60171
2.55271
2.48477
2.41917
2.33816
6.10791
5.76746
5.45386
5.16362
4.87987
4.59654
4.33272
4.09637
3.86023
3.62474
3.41705
3.24247
3.04944
2.86394
2.72812
2.60374
2.45233
2.30601
2.21701
2.12873
2.02861
1.91822
1.85992
2.05449
2.95496
4.04135
4.3162
4.19404
3.99833
3.81322
3.64359
3.47226
3.33792
3.22691
3.12394
3.02631
2.93434
2.85075
2.76858
2.67533
2.56945
2.46258
2.37388
2.313
2.26418
2.22061
2.18498
2.15617
2.13075
2.10181
2.05133
2.00209
1.97922
1.97029
1.97687
1.98396
1.985
1.99377
2.00983
2.00882
1.98719
1.95091
1.90005
1.84836
1.81365
1.80028
1.80484
1.87428
2.07923
2.39237
2.70178
2.95757
3.02169
3.06483
3.10998
3.15267
3.151
3.11498
3.04165
2.9256
2.78293
2.72803
2.71225
2.69672
2.67574
2.65493
2.62962
2.58646
2.52351
2.45814
2.39769
2.31221
6.17891
5.87639
5.55149
5.26534
4.98516
4.70539
4.46027
4.22377
3.97687
3.74105
3.55872
3.37411
3.17511
2.98969
2.85543
2.72322
2.57289
2.43515
2.3322
2.2223
2.12005
2.0654
2.32056
3.33912
4.48199
4.65308
4.50163
4.30703
4.12638
3.96769
3.80193
3.62972
3.47705
3.34831
3.23459
3.1286
3.02813
2.93258
2.83853
2.74396
2.64734
2.54273
2.43632
2.34382
2.27046
2.21498
2.17028
2.13258
2.0975
2.06121
2.02485
1.97667
1.90695
1.8584
1.84534
1.84436
1.84099
1.8456
1.8624
1.87962
1.89686
1.88958
1.85877
1.81901
1.78944
1.76074
1.73784
1.72848
1.73558
1.80456
1.97392
2.23362
2.55131
2.76304
2.89244
2.9659
3.01079
3.02275
3.00771
2.94208
2.83806
2.72596
2.66796
2.65115
2.65676
2.65062
2.62445
2.58459
2.52412
2.42899
2.34424
2.28384
6.06949
5.97219
5.66516
5.36297
5.08413
4.82068
4.57023
4.3341
4.09177
3.86883
3.68288
3.50005
3.28597
3.12078
2.98607
2.84492
2.68285
2.55254
2.44029
2.32558
2.28738
2.61835
3.85226
4.92675
5.05543
4.87253
4.64259
4.4629
4.30238
4.13427
3.95103
3.77082
3.60911
3.46876
3.34433
3.22936
3.11979
3.01347
2.91118
2.81459
2.72123
2.6236
2.52221
2.42605
2.33961
2.2626
2.19341
2.1313
2.07845
2.03361
1.99282
1.94866
1.88997
1.82911
1.79702
1.76864
1.74604
1.73737
1.73247
1.73115
1.74357
1.73958
1.73117
1.74058
1.74114
1.7141
1.70447
1.69046
1.65679
1.64531
1.65642
1.70836
1.84665
2.08266
2.38378
2.61459
2.75574
2.84713
2.87859
2.88436
2.86001
2.77777
2.68724
2.62943
2.59369
2.57499
2.56812
2.55456
2.51369
2.4231
2.34218
2.28069
5.06923
5.92658
5.7735
5.47499
5.17989
4.92023
4.68451
4.45041
4.21114
3.987
3.79767
3.61607
3.41576
3.24579
3.10782
2.95562
2.79838
2.65755
2.53051
2.52346
2.98929
4.41318
5.51804
5.47059
5.22528
4.96792
4.77153
4.61508
4.45033
4.26609
4.07674
3.89711
3.73042
3.57873
3.4452
3.32599
3.21406
3.10348
2.99214
2.88194
2.77527
2.67292
2.57651
2.48537
2.40094
2.32497
2.25203
2.17768
2.10448
2.04044
1.98579
1.93502
1.88234
1.82612
1.77632
1.73424
1.70716
1.69157
1.66911
1.6497
1.63167
1.61079
1.58763
1.5881
1.60191
1.621
1.64528
1.64309
1.61394
1.58398
1.55911
1.54813
1.55868
1.60616
1.72841
1.96596
2.25514
2.49516
2.61074
2.69517
2.73669
2.74097
2.71791
2.64518
2.56627
2.53559
2.5205
2.49199
2.45051
2.40195
2.36043
2.28698
2.71728
5.29518
5.7967
5.60436
5.29496
5.02829
4.79537
4.55671
4.31395
4.11785
3.92847
3.72603
3.51728
3.36594
3.22399
3.07662
2.9035
2.73775
2.77993
3.4213
4.97063
6.12009
6.06899
5.72371
5.37949
5.11485
4.92268
4.7441
4.55969
4.37184
4.19248
4.02514
3.86
3.69459
3.54063
3.40604
3.28658
3.1756
3.0686
2.96279
2.85626
2.74821
2.64177
2.54062
2.4506
2.37363
2.30208
2.22931
2.15536
2.08571
2.02069
1.95686
1.89385
1.83266
1.76935
1.71531
1.68709
1.66108
1.63469
1.61706
1.59329
1.55739
1.5134
1.48545
1.47924
1.48612
1.51841
1.54357
1.54392
1.52514
1.49589
1.46939
1.46288
1.46443
1.4827
1.54178
1.66576
1.88397
2.14866
2.32535
2.46203
2.5972
2.62722
2.61207
2.56866
2.51335
2.4765
2.44795
2.42096
2.39762
2.36801
2.27953
1.22942
3.23728
5.36384
5.65999
5.4409
5.14327
4.90127
4.66323
4.42744
4.23084
4.03784
3.83599
3.63929
3.48668
3.33483
3.17479
2.99507
3.0612
3.97415
5.67219
6.56072
6.4503
6.11755
5.81487
5.53906
5.29358
5.07099
4.8628
4.66588
4.48003
4.30739
4.14263
3.97499
3.80103
3.63097
3.47861
3.34669
3.23019
3.12422
3.0244
2.92509
2.82064
2.70959
2.59693
2.49352
2.40669
2.33375
2.26822
2.2065
2.14446
2.07735
2.00381
1.92535
1.84561
1.77215
1.72086
1.68428
1.64822
1.62019
1.59841
1.57135
1.53399
1.49348
1.45235
1.4209
1.4067
1.40736
1.41746
1.42657
1.43142
1.42214
1.39503
1.38213
1.38242
1.39079
1.40398
1.4247
1.47354
1.58591
1.76316
1.97684
2.18238
2.35674
2.48591
2.5009
2.46719
2.43953
2.42604
2.422
2.40401
2.36894
2.27323
1.00674
1.405
3.65869
5.33975
5.51141
5.29403
5.02488
4.76211
4.54134
4.3522
4.15629
3.9417
3.76068
3.59702
3.44963
3.27304
3.41269
4.60019
6.46744
7.23299
7.12201
6.69781
6.26921
5.96948
5.69597
5.44007
5.20449
4.98623
4.78366
4.59661
4.42147
4.25044
4.07658
3.89841
3.72273
3.56117
3.41976
3.29557
3.18225
3.07547
2.97253
2.86973
2.76344
2.65447
2.5501
2.45563
2.37206
2.29917
2.23552
2.17682
2.11721
2.05161
1.97648
1.89541
1.81884
1.75755
1.70782
1.66687
1.63454
1.59838
1.56262
1.52867
1.48995
1.44764
1.40887
1.38264
1.35678
1.34249
1.33882
1.33773
1.33406
1.32012
1.29831
1.29622
1.30367
1.31324
1.32272
1.33399
1.35313
1.38647
1.46379
1.61838
1.83075
2.04145
2.25085
2.37046
2.37342
2.36524
2.34691
2.31057
2.28886
2.25744
1.00005
1.01729
1.61393
3.94518
5.28588
5.38459
5.18368
4.87917
4.6504
4.45946
4.26484
4.05863
3.87038
3.71806
3.57145
3.81459
5.38574
7.44491
7.65075
7.50392
7.19661
6.85999
6.51474
6.18688
5.86232
5.56946
5.31936
5.09753
4.89292
4.70038
4.51445
4.33009
4.14512
3.96173
3.78711
3.62954
3.49163
3.36874
3.25257
3.13669
3.01915
2.90166
2.78954
2.68674
2.59222
2.50495
2.42486
2.35028
2.27649
2.19811
2.11327
2.03371
1.97655
1.92777
1.87222
1.8194
1.77012
1.7163
1.65435
1.59108
1.54116
1.51533
1.49483
1.46281
1.42202
1.38091
1.34653
1.31507
1.29187
1.28066
1.27235
1.25842
1.23061
1.21608
1.21581
1.22232
1.23465
1.24511
1.25263
1.25607
1.253
1.26512
1.34484
1.49039
1.71306
1.95111
2.13665
2.2632
2.28359
2.25755
2.23095
2.191
1
1.00017
1.03597
1.82085
4.13161
5.20161
5.26976
5.03461
4.78008
4.56544
4.36685
4.15054
3.98597
3.87679
4.35153
6.26487
8.29925
8.67862
8.1973
7.64014
7.23513
6.97128
6.69311
6.36523
6.0184
5.69921
5.4278
5.1954
4.98618
4.78849
4.59393
4.39847
4.20317
4.01411
3.84036
3.68738
3.55249
3.42869
3.30914
3.18891
3.06647
2.94323
2.82347
2.71515
2.62067
2.53588
2.45776
2.38513
2.31386
2.23884
2.15692
2.06862
1.97953
1.91459
1.8806
1.85127
1.81079
1.75208
1.67818
1.60846
1.55578
1.5103
1.46798
1.43303
1.40907
1.38539
1.3502
1.30895
1.27975
1.26005
1.23854
1.21295
1.18705
1.16676
1.15656
1.15577
1.15726
1.16134
1.16846
1.16893
1.16145
1.14215
1.14392
1.17307
1.25087
1.42259
1.64561
1.86151
2.00716
2.12986
2.17206
2.15116
1
1
1.00048
1.06114
2.01285
4.21814
5.13561
5.15169
4.9358
4.70279
4.45549
4.24526
4.18642
4.92481
7.44818
9.17938
9.05927
8.77643
8.36033
7.87692
7.44512
7.11118
6.80644
6.48973
6.15806
5.8323
5.53987
5.28983
5.0693
4.86317
4.6621
4.46226
4.26495
4.07577
3.90144
3.74497
3.60434
3.47443
3.34927
3.22472
3.10144
2.98025
2.86031
2.74695
2.64772
2.5607
2.48066
2.40529
2.33288
2.25969
2.18143
2.09366
2.00803
1.94896
1.90514
1.85507
1.7989
1.74621
1.69778
1.64371
1.57672
1.51358
1.47057
1.43961
1.40925
1.38244
1.35713
1.32319
1.28726
1.25649
1.22795
1.19705
1.16843
1.1486
1.13632
1.1272
1.11639
1.10751
1.09808
1.08757
1.07894
1.06769
1.0574
1.06111
1.07737
1.1173
1.19834
1.34679
1.52122
1.70731
1.8891
2.03025
1
1
1
1.00102
1.09272
2.14749
4.2939
5.01718
5.03401
4.86073
4.55221
4.47432
5.63323
8.39649
10.2981
10.2478
9.39331
8.80078
8.40887
8.03575
7.6507
7.27004
6.91018
6.57131
6.2397
5.9166
5.6236
5.37065
5.14684
4.93661
4.73059
4.5259
4.32359
4.12833
3.94681
3.78258
3.63447
3.49918
3.37385
3.25473
3.13812
3.02057
2.89921
2.77688
2.66917
2.58179
2.50444
2.43137
2.36134
2.28674
2.19767
2.10793
2.04151
1.98677
1.93195
1.87731
1.82499
1.77106
1.70893
1.64384
1.58709
1.54325
1.51053
1.4752
1.42677
1.38266
1.36029
1.34634
1.32584
1.29186
1.24997
1.20813
1.17629
1.1547
1.13466
1.11078
1.0938
1.07777
1.05845
1.04446
1.03085
1.01275
1.0016
0.998615
1.00122
1.00871
1.03019
1.06995
1.12828
1.23943
1.39317
1.68684
1
1
1
1
1.00189
1.12072
2.27486
4.22141
4.95375
4.89204
4.80756
6.34568
9.7689
10.8955
10.7583
10.324
9.65102
8.98484
8.5377
8.16697
7.79728
7.41088
7.02397
6.65553
6.3055
5.97665
5.68554
5.43484
5.21163
5.00197
4.7963
4.59044
4.38404
4.18083
3.98934
3.81645
3.66244
3.52393
3.39832
3.28657
3.18194
3.07497
2.95454
2.81765
2.68407
2.58271
2.5087
2.44502
2.38433
2.31926
2.24196
2.15273
2.05684
1.97214
1.91089
1.87185
1.83991
1.79826
1.74039
1.67368
1.60608
1.54848
1.50393
1.46431
1.42939
1.40618
1.38498
1.35479
1.3166
1.27374
1.22345
1.17592
1.14436
1.12443
1.10722
1.09077
1.07514
1.05867
1.04375
1.02858
1.00526
0.969842
0.951582
0.947219
0.947485
0.952748
0.966479
0.980791
0.987399
1.00155
1.03997
1.23582
1
1
1
1
1.00001
1.00297
1.14532
2.3167
4.26537
4.68082
6.60158
10.9495
12.2205
11.7057
10.9147
10.3788
9.82237
9.21822
8.70409
8.27397
7.88151
7.49622
7.11017
6.72986
6.36482
6.02866
5.73486
5.48126
5.25406
5.04131
4.83451
4.62715
4.41778
4.21072
4.01511
3.84066
3.69017
3.55618
3.42784
3.3062
3.19032
3.06923
2.94272
2.82048
2.70933
2.61435
2.54008
2.47084
2.39856
2.32033
2.23634
2.14766
2.06123
1.99149
1.94047
1.89651
1.84894
1.79642
1.74314
1.69074
1.63528
1.57398
1.51407
1.46645
1.43721
1.41496
1.38966
1.35823
1.32177
1.27793
1.22372
1.17116
1.13826
1.11832
1.10119
1.08501
1.06948
1.05495
1.04068
1.02265
0.991816
0.95033
0.932662
0.927875
0.926323
0.926289
0.924129
0.919191
0.912387
0.899434
0.897881
0.941892
1
1
1
1
1
1.00002
1.00377
1.16555
2.26633
4.85389
11.6374
13.2279
12.4753
11.8747
11.0539
10.4373
9.9113
9.37655
8.83627
8.34052
7.90399
7.5131
7.14648
6.78654
6.43076
6.093
5.78919
5.52125
5.27945
5.05487
4.84256
4.63806
4.4354
4.23285
4.03871
3.86405
3.71097
3.581
3.47846
3.37275
3.24477
3.10648
2.95827
2.81731
2.73905
2.6877
2.62039
2.54018
2.45251
2.36268
2.27638
2.19767
2.12949
2.06914
2.01017
1.95038
1.89324
1.84309
1.79786
1.74975
1.69068
1.61858
1.55095
1.50794
1.47964
1.4533
1.42592
1.39669
1.36262
1.31759
1.25509
1.19138
1.15595
1.1375
1.12274
1.10927
1.09572
1.0814
1.06469
1.03978
0.995265
0.948113
0.933104
0.927524
0.918737
0.910365
0.905875
0.901267
0.887799
0.866719
0.862068
0.8699
1
1
1
1
1
1
1.00003
1.00407
1.18695
6.79482
15.0119
14.3281
13.0858
12.3445
11.4037
10.5893
10.0064
9.4659
8.9256
8.39864
7.9261
7.51865
7.15649
6.81311
6.47484
6.14552
5.83733
5.55744
5.30406
5.07063
4.84825
4.63052
4.41785
4.21696
4.03516
3.87654
3.73968
3.61255
3.47274
3.32189
3.17295
3.02704
2.90436
2.81839
2.74778
2.66417
2.57554
2.48396
2.38964
2.29798
2.21622
2.14643
2.08406
2.0226
1.95934
1.89743
1.84314
1.79862
1.75767
1.71014
1.64774
1.57274
1.5076
1.46587
1.43766
1.41369
1.39055
1.36578
1.33387
1.28537
1.21163
1.14532
1.11702
1.10347
1.09329
1.0825
1.07049
1.0573
1.04026
1.00852
0.950427
0.913693
0.906473
0.900621
0.892644
0.886837
0.884958
0.8819
0.863099
0.83785
0.834624
0.836844
)
;

boundaryField
{
    inlet
    {
        type            fixedValue;
        value           uniform 1;
    }
    outlet
    {
        type            zeroGradient;
    }
    bottom
    {
        type            zeroGradient;
    }
    top
    {
        type            zeroGradient;
    }
    obstacle
    {
        type            zeroGradient;
    }
    defaultFaces
    {
        type            empty;
    }
}


// ************************************************************************* //
