/*--------------------------------*- C++ -*----------------------------------*\
  =========                 |
  \\      /  F ield         | OpenFOAM: The Open Source CFD Toolbox
   \\    /   O peration     | Website:  https://openfoam.org
    \\  /    A nd           | Version:  7
     \\/     M anipulation  |
\*---------------------------------------------------------------------------*/
FoamFile
{
    version     2.0;
    format      ascii;
    class       volScalarField;
    location    "2.4";
    object      p;
}
// * * * * * * * * * * * * * * * * * * * * * * * * * * * * * * * * * * * * * //

dimensions      [1 -1 -2 0 0 0 0];

internalField   nonuniform List<scalar> 
16192
(
1
1
1
1
1
1
1
1
1
1
1
1
1
1
1
1
1
1
1
1
1
1
1
1
1
1
1
1
1
1
1
1
1
1
1
1
1
1
1
1
1
1
1
1
1
1
1
1
1
1
1
1
1
1
1
1
1
1
1
1
1
1
1
1
1
1
1
1
1
1
1
1
1
1
1
1
1
1
1
1
1
1
1
1
1
1
1
1
1
1
1
1
1
1
1
1
1
1
1
1
1
1
1
1
1
1
1
1
1
1
1
1
1
1
1
1
1
1
1
1
1
1
1
1
1
1
1
1
1
1
1
1
1
1
1
1
1
1
1
1
1
1
1
1
1
1
1
1
1
1
1
1
1
1
1
1
1
1
1
1
1
1
1
1
1
1
1
1
1
1
1
1
1
1
1
1
1
1
1
1
1
1
1
1
1
1
1
1
1
1
1
1
1
1
1
1
1
1
1
1
1
1
1
1
1
1
1
1
1
1
1
1
1
1
1
1
1
1
1
1
1
1
1
1
1
1
1
1
1
1
1
1
1
1
1
1
1
1
1
1
1
1
1
1
1
1
1
1
1
1
1
1
1
1
1
1
1
1
1
1
1
1
1
1
1
1
1
1
1
1
1
1
1
1
1
1
1
1
1
1
1
1
1
1
1
1
1
1
1
1
1
1
1
1
1
1
1
1
1
1
1
1
1
1
1
1
1
1
1
1
1
1
1
1
1
1
1
1
1
1
1
1
1
1
1
1
1
1
1
1
1
1
1
1
1
1
1
1
1
1
1
1
1
1
1
1
1
1
1
1
1
1
1
1
1
1
1
1
1
1
1
1
1
1
1
1
1
1
1
1
1
1
1
1
1
1
1
1
1
1
1
1
1
1
1
1
1
1
1
1
1
1
1
1
1
1
1
1
1
1
1
1
1
1
1
1
1
1
1
1
1
1
1
1
1
1
1
1
1
1
1
1
1
1
1
1
1
1
1
1
1
1
1
1
1
1
1
1
1
1
1
1
1
1
1
1
1
1
1
1
1
1
1
1
1
1
1
1
1
1
1
1
1
1
1
1
1
1
1
1
1
1
1
1
1
1
1
1
1
1
1
1
1
1
1
1
1
1
1
1
1
1
1
1
1
1
1
1
1
1
1
1
1
1
1
1
1
1
1
1
1
1
1
1
1
1
1
1
1
1
1
1
1
1
1
1
1
1
1
1
1
1
1
1
1
1
1
1
1
1
1
1
1
1
1
1
1
1
1
1
1
1
1
1
1
1
1
1
1
1
1
1
1
1
1
1
1
1
1
1
1
1
1
1
1
1
1
1
1
1
1
1
1
1
1
1
1
1
1
1
1
1
1
1
1
1
1
1
1
1
1
1
1
1
1
1
1
1
1
1
1
1
1
1
1
1
1
1
1
1
1
1
1
1
1
1
1
1
1
1
1
1
1
1
1
1
1
1
1
1
1
1
1
1
1
1
1
1
1
1
1
1
1
1
1
1
1
1
1
1
1
1
1
1
1
1
1
1
1
1
1
1
1
1
1
1
1
1
1
1
1
1
1
1
1
1
1
1
1
1
1
1
1
1
1
1
1
1
1
1
1
1
1
1
1
1
1
1
1
1
1
1
1
1
1
1
1
1
1
1
1
1
1
1
1
1
1
1
1
1
1
1
1
1
1
1
1
1
1
1
1
1
1
1
1
1
1
1
1
1
1
1
1
1
1
1
1
1
1
1
1
1
1
1
1
1
1
1
1
1
1
1
1
1
1
1
1
1
1
1
1
1
1
1
1
1
1
1
1
1
1
1
1
1
1
1
1
1
1
1
1
1
1
1
1
1
1
1
1
1
1
1
1
1
1
1
1
1
1
1
1
1
1
1
1
1
1
1
1
1
1
1
1
1
1
1
1
1
1
1
1
1
1
1
1
1
1
1
1
1
1
1
1
1
1
1
1
1
1
1
1
1
1
1
1
1
1
1
1
1
1
1
1
1
1
1
1
1
1
1
1
1
1
1
1
1
1
1
1
1
1
1
1
1
1
1
1
1
1
1
1
1
1
1
1
1
1
1
1
1
1
1
1
1
1
1
1
1
1
1
1
1
1
1
1
1
1
1
1
1
1
1
1
1
1
1
1
1
1
1
1
1
1
1
1
1
1
1
1
1
1
1
1
1
1
1
1
1
1
1
1
1
1
1
1
1
1
1
1
1
1
1
1
1
1
1
1
1
1
1
1
1
1
1
1
1
1
1
1
1
1
1
1
1
1
1
1
1
1
1
1
1
1
1
1
1
1
1
1
1
1
1
1
1
1
1
1
1
1
1
1
1
1
1
1
1
1
1
1
1
1
1
1
1
1
1
1
1
1
1
1
1
1
1
1
1
1
1
1
1
1
1
1
1
1
1
1
1
1
1
1
1
1
1
1
1
1
1
1
1
1
1
1
1
1
1
1
1
1
1
1
1
1
1
1
1
1
1
1
1
1
1
1
1
1
1
1
1
1
1
1
1
1
1
1
1
1
1
1
1
1
1
1
1
1
1
1
1
1
1
1
1
1
1
1
1
1
1
1
1
1
1
1
1
1
1
1
1
1
1
1
1
1
1
1
1
1
1
1
1
1
1
1
1
1
1
1
1
1
1
1
1
1
1
1
1
1
1
1
1
1
1
1
1
1
1
1
1
1
1
1
1
1
1
1
1
1
1
1
1
1
1
1
1
1
1
1
1
1
1
1
1
1
1
1
1
1
1
1
1
1
1
1
1
1
1
1
1
1
1
1
1
1
1
1
1
1
1
1
1
1
1
1
1
1
1
1
1
1
1
1
1
1
1
1
1
1
1
1
1
1
1
1
1
1
1
1
1
1
1
1
1
1
1
1
1
1
1
1
1
1
1
1
1
1
1
1
1
1
1
1
1
1
1
1
1
1
1
1
1
1
1
1.00002
1.00242
1.10902
1.96182
3.1103
4.1665
4.61501
4.61292
4.56412
4.49188
4.45231
4.4324
4.38528
4.3761
4.38236
4.37561
4.37106
4.35534
4.33427
4.32805
4.32765
4.29517
4.25476
4.23472
4.2236
4.19109
4.16134
4.15117
4.12983
4.10188
4.07855
4.05257
4.01977
3.99509
3.98772
3.9811
3.96998
3.9592
3.94727
3.92776
3.89719
3.86861
3.84608
3.82626
3.80574
3.78346
3.7601
3.74269
3.73656
3.73754
3.73321
3.71569
3.68831
3.65996
3.6381
3.63399
3.6401
3.6705
3.72532
3.79594
3.8796
3.91523
3.93603
3.9452
3.94996
3.9449
3.92589
3.90055
3.87091
3.83356
3.78323
3.73376
3.70194
3.6937
3.70043
3.71082
3.69952
3.67739
3.644
3.59014
3.53568
3.50738
3.50101
3.50367
3.50414
3.49482
3.46937
3.42692
3.39692
3.38978
3.38835
3.38218
3.36517
3.32266
3.26277
3.22967
3.22327
3.22673
3.24915
3.25671
3.24739
3.2221
3.16569
3.08981
3.0515
3.04351
3.04397
3.06661
3.09699
3.09857
3.09023
3.07268
3.0368
2.96291
2.88268
2.84759
2.83912
2.83775
2.85461
2.88819
2.89576
2.88975
2.88461
2.87706
2.86018
2.8219
2.74298
2.67618
2.65419
2.65079
2.65748
2.6983
2.74617
2.75078
2.73916
2.71501
2.66628
2.58193
2.52378
2.50399
2.49745
2.49531
2.4987
2.5201
2.55663
2.57594
2.57415
2.56775
2.55184
2.51561
2.44706
2.38671
2.36582
2.35759
2.35496
2.36075
2.37078
2.36867
2.36314
2.35843
2.35579
2.35451
2.3518
2.34709
2.34019
2.32611
2.29954
2.25273
2.21482
2.20121
2.2017
2.2385
2.4825
3.42561
5.05022
5.76572
6.00753
6.16162
6.26227
6.2435
1
1
1
1
1
1
1
1
1
1
1
1
1
1
1
1
1
1
1
1
1
1
1
1
1
1
1
1
1
1
1
1
1
1
1
1
1
1
1
1
1
1
1
1
1
1
1
1
1
1
1
1.00002
1.00329
1.10365
1.56905
2.72509
4.34571
4.56153
4.49398
4.47785
4.45329
4.38115
4.37856
4.40772
4.40757
4.41323
4.40204
4.3721
4.36269
4.36688
4.33114
4.28368
4.26205
4.25711
4.22896
4.18915
4.17409
4.16044
4.13246
4.10862
4.08544
4.05439
4.02966
4.02251
4.01721
4.00403
3.9913
3.97716
3.95741
3.92862
3.89839
3.87305
3.85171
3.83243
3.81323
3.79173
3.77811
3.77446
3.77755
3.77045
3.74874
3.71681
3.67981
3.64507
3.63174
3.62963
3.63266
3.64893
3.6941
3.75776
3.84678
3.91349
3.93955
3.94939
3.95289
3.94795
3.93288
3.90865
3.87623
3.83263
3.78452
3.75292
3.74317
3.74587
3.74518
3.72919
3.70574
3.67117
3.62018
3.57449
3.5487
3.54236
3.54793
3.54859
3.53558
3.50431
3.46112
3.43264
3.42583
3.42469
3.41745
3.39863
3.35654
3.2985
3.26504
3.25836
3.26186
3.28456
3.2927
3.28328
3.25765
3.20158
3.12531
3.08631
3.07848
3.07907
3.10012
3.12594
3.12576
3.11753
3.10024
3.06472
2.99386
2.9174
2.88254
2.87468
2.87332
2.88792
2.91663
2.92215
2.91615
2.91093
2.90361
2.88791
2.85225
2.77747
2.70973
2.68633
2.68298
2.69019
2.73232
2.77786
2.78033
2.76777
2.74221
2.68825
2.59935
2.54513
2.5277
2.52258
2.521
2.52774
2.55524
2.59409
2.60941
2.60569
2.59772
2.57915
2.53932
2.46428
2.40521
2.38617
2.38039
2.3794
2.39109
2.40987
2.41
2.40166
2.38681
2.37971
2.37577
2.37161
2.36618
2.35879
2.34535
2.32142
2.27932
2.24127
2.22856
2.23302
2.30048
2.74545
3.99849
5.55484
5.95312
6.09646
6.21604
6.32079
6.3034
6.23216
1
1
1
1
1
1
1
1
1
1
1
1
1
1
1
1
1
1
1
1
1
1
1
1
1
1
1
1
1
1
1
1
1
1
1
1
1
1
1
1
1
1
1
1
1
1
1
1
1
1
1
1
1.00002
1.00208
1.03517
1.33382
2.87446
4.10368
4.35407
4.48888
4.46022
4.42048
4.43244
4.45407
4.48431
4.4568
4.39922
4.37976
4.39091
4.35401
4.31113
4.29443
4.28531
4.25639
4.21811
4.19704
4.18856
4.16399
4.13883
4.1203
4.09235
4.06626
4.05907
4.05473
4.03919
4.02347
4.00705
3.98518
3.95862
3.93052
3.90313
3.87987
3.85987
3.84259
3.82596
3.81526
3.8123
3.81361
3.8038
3.78024
3.74522
3.70632
3.67518
3.64741
3.63486
3.63019
3.63104
3.64586
3.67818
3.72728
3.79972
3.88603
3.93133
3.94469
3.94962
3.94578
3.93502
3.91656
3.88629
3.84191
3.80668
3.79554
3.79231
3.78082
3.75974
3.73336
3.69639
3.65008
3.61293
3.58963
3.58351
3.59226
3.59438
3.57714
3.54085
3.49604
3.46827
3.46112
3.45996
3.45146
3.43046
3.38979
3.33517
3.30206
3.29518
3.29875
3.32166
3.32915
3.31899
3.29183
3.23533
3.1597
3.12062
3.11294
3.11357
3.13354
3.15546
3.15405
3.14569
3.1274
3.09103
3.02284
2.95208
2.9183
2.91097
2.90996
2.92291
2.94549
2.94848
2.94278
2.93764
2.93027
2.9155
2.88234
2.81221
2.74442
2.71922
2.71588
2.72332
2.76504
2.80812
2.80875
2.79566
2.76899
2.71129
2.61934
2.56831
2.5525
2.54841
2.54765
2.55858
2.59238
2.63046
2.64019
2.63478
2.62547
2.6052
2.56247
2.48243
2.42522
2.40798
2.40384
2.40459
2.42285
2.44945
2.45275
2.44227
2.41588
2.39989
2.39413
2.38892
2.38311
2.3758
2.36397
2.34235
2.3073
2.26906
2.25658
2.26916
2.40269
3.13021
4.65188
5.92135
6.09966
6.16956
6.26809
6.37684
6.35969
6.2912
6.16273
1
1
1
1
1
1
1
1
1
1
1
1
1
1
1
1
1
1
1
1
1
1
1
1
1
1
1
1
1
1
1
1
1
1
1
1
1
1
1
1
1
1
1
1
1
1
1
1
1
1
1
1
1
1.00001
1.00044
1.01761
1.36031
2.77349
3.796
4.34411
4.54468
4.51858
4.51112
4.52746
4.49212
4.4343
4.40644
4.38869
4.36367
4.34284
4.33093
4.31014
4.27598
4.24577
4.2284
4.22375
4.20199
4.17122
4.15546
4.13614
4.10812
4.0993
4.0956
4.07718
4.05553
4.0359
4.01316
3.98848
3.96354
3.93641
3.91045
3.89028
3.87419
3.86163
3.85437
3.8516
3.84875
3.83487
3.80921
3.77336
3.73333
3.70537
3.67973
3.65624
3.64685
3.64253
3.64422
3.65761
3.67305
3.69519
3.73839
3.81621
3.88912
3.9183
3.93088
3.93598
3.93564
3.92555
3.8993
3.86283
3.84851
3.83848
3.81954
3.79243
3.76142
3.72123
3.68069
3.64968
3.63035
3.62494
3.63588
3.63935
3.61982
3.5805
3.5324
3.5038
3.49573
3.49336
3.48335
3.46095
3.42283
3.37293
3.34135
3.33409
3.33816
3.36035
3.3658
3.35386
3.32442
3.26703
3.19288
3.15482
3.14697
3.14782
3.16773
3.18701
3.18484
3.17569
3.1547
3.11576
3.04964
2.98627
2.95483
2.94811
2.9477
2.95929
2.97498
2.97489
2.96958
2.9646
2.95727
2.94337
2.91225
2.84669
2.77959
2.75279
2.7492
2.75647
2.79687
2.83678
2.83623
2.82274
2.79547
2.73527
2.64235
2.59345
2.57861
2.57527
2.57582
2.59164
2.63054
2.66412
2.66796
2.66157
2.65138
2.63009
2.58511
2.50204
2.44642
2.43066
2.42742
2.43019
2.45476
2.48662
2.48972
2.47729
2.44483
2.4184
2.41034
2.40481
2.39883
2.3916
2.38188
2.36356
2.33331
2.3001
2.28899
2.31733
2.58184
3.62751
5.30986
6.17327
6.19878
6.23031
6.32652
6.43682
6.41727
6.34913
6.22196
6.11396
1
1
1
1
1
1
1
1
1
1
1
1
1
1
1
1
1
1
1
1
1
1
1
1
1
1
1
1
1
1
1
1
1
1
1
1
1
1
1
1
1
1
1
1
1
1
1
1
1
1
1
1
1
1
1
1.00028
1.01886
1.38809
2.43117
3.52758
4.44842
4.58971
4.54194
4.47204
4.44152
4.43202
4.38095
4.35913
4.36684
4.36762
4.33268
4.28998
4.27153
4.26115
4.26648
4.24473
4.21008
4.19177
4.18569
4.16067
4.13839
4.13317
4.11562
4.08785
4.06317
4.04131
4.01826
3.99496
3.97203
3.94635
3.92325
3.909
3.89891
3.89297
3.89004
3.88374
3.86565
3.8377
3.79958
3.75904
3.73102
3.70957
3.69136
3.67987
3.67334
3.67137
3.67231
3.6716
3.66678
3.65921
3.67285
3.72337
3.80513
3.85871
3.89781
3.93257
3.9406
3.9364
3.92002
3.89945
3.8816
3.85722
3.8274
3.79202
3.74837
3.7117
3.68573
3.67117
3.66712
3.68032
3.68289
3.66132
3.61976
3.56785
3.53843
3.52876
3.52404
3.51329
3.49128
3.45617
3.41198
3.38214
3.37489
3.37952
3.40021
3.40186
3.3874
3.35575
3.29693
3.22507
3.18946
3.18134
3.18255
3.20337
3.22129
3.21828
3.20756
3.1825
3.13903
3.07415
3.01915
2.99184
2.98613
2.98668
2.99689
3.00515
3.00196
2.99694
2.99197
2.98472
2.97175
2.9422
2.8808
2.81455
2.78696
2.78297
2.7898
2.8281
2.86469
2.86303
2.8495
2.82169
2.75996
2.66774
2.62039
2.60625
2.60359
2.60599
2.62717
2.66847
2.69425
2.69322
2.6865
2.67582
2.65422
2.60757
2.52284
2.46882
2.45386
2.45114
2.4557
2.48554
2.52164
2.52471
2.5107
2.4745
2.43718
2.4255
2.42031
2.41457
2.40747
2.39879
2.38408
2.35882
2.33052
2.32509
2.39327
2.88461
4.23779
5.8641
6.33086
6.28791
6.28697
6.37798
6.49922
6.48161
6.41023
6.27867
6.17099
6.13744
1
1
1
1
1
1
1
1
1
1
1
1
1
1
1
1
1
1
1
1
1
1
1
1
1
1
1
1
1
1
1
1
1
1
1
1
1
1
1
1
1
1
1
1
1
1
1
1
1
1
1
1
1
1
1
1
1.00031
1.02155
1.23365
1.89579
3.59616
4.43951
4.44549
4.45266
4.43875
4.37494
4.35929
4.38049
4.39526
4.36236
4.30838
4.29487
4.29009
4.30535
4.27871
4.24646
4.23388
4.23386
4.21742
4.17723
4.16155
4.14964
4.12089
4.09133
4.07004
4.0492
4.02472
4.00581
3.98543
3.96193
3.94697
3.9382
3.93139
3.92588
3.91634
3.89576
3.86701
3.82687
3.78407
3.755
3.73667
3.72638
3.72129
3.71798
3.71172
3.70631
3.69694
3.67383
3.64211
3.62931
3.6347
3.66064
3.72556
3.7962
3.8694
3.93506
3.94892
3.94819
3.93985
3.92064
3.89245
3.86207
3.8248
3.77999
3.74495
3.7224
3.71132
3.71034
3.72557
3.72582
3.70209
3.65716
3.60064
3.57127
3.56056
3.55368
3.54171
3.52143
3.49019
3.45152
3.42382
3.41681
3.42182
3.43948
3.437
3.41957
3.38599
3.32506
3.25707
3.22451
3.21622
3.21789
3.2408
3.25781
3.25339
3.2398
3.21026
3.16155
3.09741
3.05154
3.02899
3.02452
3.02669
3.03507
3.03591
3.03064
3.02516
3.01976
3.0127
3.00063
2.97219
2.91435
2.8495
2.82126
2.81693
2.82331
2.85935
2.89225
2.88995
2.87624
2.84771
2.7849
2.69488
2.64878
2.6353
2.63322
2.63832
2.66465
2.7046
2.72095
2.71687
2.71015
2.69926
2.67761
2.6304
2.5454
2.49211
2.47771
2.47527
2.4812
2.51548
2.55496
2.55807
2.54375
2.50579
2.45752
2.43968
2.43563
2.43081
2.42446
2.41574
2.40444
2.38269
2.35867
2.36456
2.51974
3.32919
4.92313
6.28342
6.42907
6.35015
6.33897
6.43373
6.56082
6.54607
6.47583
6.34146
6.22792
6.19209
6.19719
1
1
1
1
1
1
1
1
1
1
1
1
1
1
1
1
1
1
1
1
1
1
1
1
1
1
1
1
1
1
1
1
1
1
1
1
1
1
1
1
1
1
1
1
1
1
1
1
1
1
1
1
1
1
1
1
1
1.00023
1.00737
1.09059
1.86164
3.60666
4.1576
4.41814
4.45629
4.42303
4.41863
4.43678
4.41822
4.34964
4.33081
4.31585
4.31945
4.31113
4.28275
4.27499
4.27954
4.25832
4.21419
4.19044
4.18148
4.15501
4.1201
4.09706
4.07934
4.05624
4.03688
4.02368
4.00371
3.98558
3.97759
3.96846
3.96018
3.9469
3.92478
3.89675
3.85705
3.81303
3.78061
3.76508
3.75913
3.75912
3.76398
3.75607
3.74641
3.73195
3.70197
3.65417
3.62259
3.62043
3.62425
3.63994
3.68749
3.76325
3.84597
3.92554
3.94851
3.94972
3.94313
3.92384
3.89432
3.85551
3.81473
3.7828
3.7618
3.75185
3.75463
3.77094
3.76716
3.74222
3.69506
3.63239
3.60152
3.59006
3.58342
3.57063
3.55185
3.52421
3.49062
3.46567
3.4591
3.46366
3.47711
3.47079
3.45046
3.41502
3.35168
3.2891
3.26007
3.25191
3.25388
3.27865
3.29521
3.28908
3.27165
3.23779
3.18228
3.12052
3.08304
3.06592
3.06276
3.06665
3.07214
3.06871
3.06148
3.05432
3.0482
3.04135
3.02997
3.00222
2.9471
2.88367
2.85526
2.85086
2.8565
2.89047
2.92027
2.91729
2.90334
2.87397
2.81007
2.72286
2.67921
2.66643
2.66486
2.67292
2.7029
2.73732
2.74501
2.73969
2.7329
2.72199
2.70063
2.65397
2.57001
2.51666
2.5023
2.50008
2.50703
2.54485
2.58737
2.59072
2.57658
2.53784
2.48123
2.45605
2.45094
2.44649
2.44111
2.43311
2.42202
2.40528
2.38905
2.41853
2.73925
3.89272
5.585
6.56043
6.50255
6.40275
6.38739
6.49063
6.62275
6.60836
6.5403
6.40681
6.28972
6.25146
6.25379
6.29197
1
1
1
1
1
1
1
1
1
1
1
1
1
1
1
1
1
1
1
1
1
1
1
1
1
1
1
1
1
1
1
1
1
1
1
1
1
1
1
1
1
1
1
1
1
1
1
1
1
1
1
1
1
1
1
1
1
1
1.00004
1.00245
1.0851
1.94492
3.27601
4.07064
4.46055
4.51254
4.48144
4.4338
4.38149
4.37349
4.35923
4.33523
4.32175
4.31743
4.31664
4.32041
4.29232
4.2432
4.21632
4.21237
4.19002
4.15059
4.12391
4.10865
4.08837
4.06643
4.05847
4.04489
4.02436
4.01358
4.00362
3.99155
3.97574
3.95326
3.92541
3.88811
3.84656
3.81161
3.79715
3.79374
3.79488
3.80166
3.79517
3.78371
3.76654
3.73582
3.68875
3.63572
3.62101
3.61909
3.62143
3.63516
3.67385
3.74741
3.81855
3.89624
3.93547
3.93996
3.93484
3.91549
3.87808
3.84381
3.82121
3.80515
3.79748
3.80427
3.81553
3.80674
3.78011
3.73243
3.66449
3.6299
3.61777
3.61178
3.60049
3.58288
3.5584
3.52886
3.5072
3.50127
3.5051
3.51322
3.50356
3.48077
3.44277
3.37722
3.32122
3.29549
3.2877
3.29075
3.31737
3.33242
3.32431
3.30314
3.2644
3.20143
3.14424
3.11438
3.10244
3.1006
3.10655
3.10833
3.10305
3.09408
3.08465
3.07786
3.07112
3.05989
3.03194
2.97841
2.91672
2.88853
2.88403
2.88934
2.92152
2.94883
2.94547
2.93126
2.90054
2.83559
2.75166
2.71059
2.69886
2.69828
2.71059
2.74195
2.76654
2.7674
2.76197
2.75502
2.74426
2.72346
2.67875
2.59695
2.54283
2.52782
2.52567
2.5334
2.57408
2.61942
2.62274
2.6091
2.57076
2.50723
2.4744
2.46775
2.46241
2.45665
2.44883
2.43754
2.42538
2.42321
2.50884
3.10078
4.56514
6.15362
6.70293
6.56448
6.45308
6.43802
6.54958
6.68992
6.67438
6.603
6.46639
6.35035
6.31229
6.31343
6.34964
6.33659
1
1
1
1
1
1
1
1
1
1
1
1
1
1
1
1
1
1
1
1
1
1
1
1
1
1
1
1
1
1
1
1
1
1
1
1
1
1
1
1
1
1
1
1
1
1
1
1
1
1
1
1
1
1
1
1
1
1
1
1.00002
1.00243
1.10413
1.77337
2.77053
4.07436
4.52618
4.46162
4.40426
4.40282
4.3933
4.34452
4.32253
4.34386
4.35455
4.35092
4.31827
4.26521
4.23622
4.23526
4.22043
4.18044
4.15272
4.14449
4.1255
4.09928
4.09066
4.0853
4.06382
4.0472
4.03678
4.02124
4.00284
3.98162
3.95348
3.91818
3.88168
3.84742
3.83384
3.83076
3.83104
3.83502
3.82898
3.8164
3.7977
3.76717
3.72407
3.66951
3.63678
3.62943
3.62743
3.62958
3.64451
3.68069
3.73569
3.78109
3.83674
3.88787
3.90605
3.90055
3.87855
3.85853
3.84956
3.84375
3.85057
3.86087
3.85986
3.84579
3.81706
3.76791
3.69593
3.65783
3.64484
3.63871
3.63016
3.61455
3.59324
3.56648
3.54857
3.54345
3.54656
3.54894
3.53604
3.5111
3.4695
3.40305
3.35397
3.3304
3.32294
3.32729
3.35636
3.36981
3.3594
3.33517
3.29114
3.22116
3.16943
3.14565
3.13731
3.13768
3.14616
3.14466
3.13804
3.12767
3.11656
3.10922
3.10251
3.09067
3.06167
3.00824
2.94827
2.92086
2.91629
2.92145
2.95258
2.97834
2.97477
2.96031
2.928
2.8613
2.78092
2.74214
2.73199
2.73276
2.74963
2.77999
2.79339
2.78984
2.78362
2.77609
2.76568
2.74612
2.70477
2.62658
2.57068
2.5545
2.55235
2.56046
2.60307
2.6508
2.6547
2.64186
2.60433
2.53545
2.49291
2.48367
2.47896
2.47065
2.46374
2.45303
2.44503
2.45847
2.66719
3.61556
5.2763
6.58981
6.79661
6.60555
6.49287
6.48412
6.61186
6.75853
6.74386
6.67119
6.52979
6.40819
6.36915
6.36973
6.40632
6.39346
6.3405
1
1
1
1
1
1
1
1
1
1
1
1
1
1
1
1
1
1
1
1
1
1
1
1
1
1
1
1
1
1
1
1
1
1
1
1
1
1
1
1
1
1
1
1
1
1
1
1
1
1
1
1
1
1
1
1
1
1
1
1
1.00002
1.0028
1.06421
1.37453
2.56885
4.17933
4.31626
4.40429
4.41159
4.35986
4.33601
4.36776
4.39108
4.39137
4.3479
4.28355
4.25149
4.25258
4.2412
4.20582
4.18689
4.18258
4.16796
4.13805
4.1262
4.12659
4.10763
4.08154
4.06713
4.05012
4.02708
4.00678
3.98221
3.94948
3.91478
3.88542
3.87314
3.86896
3.86644
3.86675
3.86046
3.84704
3.82801
3.79698
3.75437
3.70553
3.66877
3.65475
3.65027
3.64968
3.65623
3.67391
3.69716
3.71812
3.73435
3.75
3.796
3.83095
3.83756
3.84404
3.85612
3.87063
3.89849
3.91452
3.90511
3.88548
3.85384
3.80415
3.72958
3.68681
3.67208
3.6658
3.6604
3.64712
3.62871
3.60511
3.59006
3.58566
3.58706
3.58348
3.56794
3.54144
3.49679
3.43068
3.38635
3.36531
3.35821
3.36359
3.39423
3.40725
3.39478
3.36829
3.32
3.24462
3.19731
3.1774
3.17061
3.17397
3.18452
3.18081
3.17292
3.16174
3.15005
3.14262
3.13582
3.12245
3.09156
3.03686
2.97891
2.95262
2.94791
2.95299
2.98394
3.0089
3.00514
2.99005
2.95587
2.88744
2.81098
2.77523
2.76647
2.76851
2.78975
2.81619
2.8201
2.8134
2.8045
2.7961
2.78622
2.76858
2.73195
2.65934
2.6007
2.58255
2.58036
2.58868
2.63236
2.68174
2.68638
2.67415
2.63826
2.56539
2.51157
2.49866
2.49361
2.48608
2.47604
2.46924
2.46746
2.51481
2.94275
4.25683
5.94424
6.8553
6.8741
6.63945
6.53308
6.53317
6.67535
6.82534
6.81042
6.73741
6.59343
6.4706
6.43035
6.42815
6.46313
6.44981
6.39616
6.296
1
1
1
1
1
1
1
1
1
1
1
1
1
1
1
1
1
1
1
1
1
1
1
1
1
1
1
1
1
1
1
1
1
1
1
1
1
1
1
1
1
1
1
1
1
1
1
1
1
1
1
1
1
1
1
1
1
1
1
1
1
1.00001
1.0009
1.01899
1.27278
2.62563
3.84403
4.24325
4.42843
4.41644
4.41712
4.42954
4.43713
4.39042
4.31617
4.27779
4.26387
4.25324
4.23229
4.2201
4.22265
4.21923
4.18773
4.16617
4.16629
4.15215
4.11935
4.09449
4.07819
4.05648
4.03163
4.01154
3.9829
3.94717
3.92231
3.9139
3.90718
3.90121
3.89793
3.89079
3.87653
3.8573
3.82682
3.78401
3.73713
3.7044
3.68974
3.68475
3.68404
3.68859
3.69742
3.70322
3.70176
3.6969
3.67272
3.66488
3.70037
3.74964
3.78967
3.83159
3.87347
3.92474
3.94996
3.94385
3.92361
3.89135
3.84209
3.76787
3.71996
3.70227
3.69557
3.69377
3.68432
3.6685
3.64577
3.63164
3.62666
3.62356
3.61514
3.59775
3.57098
3.52614
3.46211
3.42028
3.40065
3.39382
3.4
3.43176
3.44362
3.43002
3.40246
3.35108
3.27376
3.22817
3.20964
3.20401
3.2096
3.22129
3.21627
3.20701
3.19555
3.18479
3.17768
3.17058
3.15508
3.1218
3.06523
3.00915
2.98445
2.9796
2.98484
3.01637
3.04038
3.03623
3.01988
2.98361
2.91378
2.84203
2.80967
2.80267
2.8067
2.83149
2.85184
2.84976
2.83794
2.82451
2.81481
2.80538
2.79038
2.75945
2.69509
2.63339
2.61214
2.60983
2.61797
2.66177
2.71222
2.71731
2.70572
2.67175
2.59666
2.53005
2.51262
2.50716
2.50002
2.48985
2.48532
2.49077
2.62384
3.37984
4.98206
6.52515
7.00959
6.91734
6.67165
6.57596
6.59035
6.75157
6.89583
6.87547
6.79837
6.6518
6.52984
6.48981
6.4871
6.51998
6.5054
6.45284
6.35652
6.23519
1
1
1
1
1
1
1
1
1
1
1
1
1
1
1
1
1
1
1
1
1
1
1
1
1
1
1
1
1
1
1
1
1
1
1
1
1
1
1
1
1
1
1
1
1
1
1
1
1
1
1
1
1
1
1
1
1
1
1
1
1
1
1
1.00024
1.01294
1.2853
2.51966
3.56796
4.22542
4.47815
4.49588
4.45183
4.39564
4.34656
4.31918
4.28888
4.25591
4.25695
4.25162
4.25602
4.26527
4.23795
4.20669
4.20252
4.19007
4.15365
4.12184
4.10313
4.0879
4.05897
4.03734
4.01687
3.98266
3.95662
3.95145
3.94516
3.93496
3.92876
3.92087
3.90586
3.88614
3.8571
3.81601
3.76877
3.73771
3.72615
3.72274
3.7242
3.7281
3.7305
3.72792
3.71832
3.70012
3.65973
3.61454
3.61885
3.64891
3.70158
3.76411
3.83306
3.91677
3.95802
3.96023
3.95111
3.92544
3.87926
3.80793
3.75872
3.73832
3.73125
3.73221
3.72926
3.71634
3.6911
3.66969
3.6623
3.65429
3.64289
3.62515
3.59976
3.55709
3.49688
3.45571
3.43704
3.4308
3.43739
3.46876
3.47888
3.46423
3.43629
3.38291
3.30689
3.26229
3.24386
3.23877
3.24534
3.25644
3.24997
3.23991
3.22929
3.22016
3.21354
3.20556
3.18752
3.15205
3.09325
3.03983
3.01692
3.01185
3.01772
3.05028
3.07307
3.06776
3.04947
3.01081
2.93971
2.87335
2.84509
2.83957
2.84729
2.87397
2.8862
2.87907
2.86097
2.84294
2.83217
2.8234
2.81134
2.78636
2.73236
2.66912
2.6435
2.64086
2.64829
2.69095
2.74167
2.74698
2.73586
2.704
2.62875
2.54845
2.52731
2.51882
2.51378
2.50564
2.50106
2.52584
2.82343
3.97353
5.71483
6.94911
7.13121
6.95189
6.69427
6.61904
6.64991
6.83382
6.97078
6.945
6.85998
6.70482
6.58506
6.5471
6.5454
6.5784
6.56204
6.50735
6.41225
6.29862
6.23925
1
1
1
1
1
1
1
1
1
1
1
1
1
1
1
1
1
1
1
1
1
1
1
1
1
1
1
1
1
1
1
1
1
1
1
1
1
1
1
1
1
1
1
1
1
1
1
1
1
1
1
1
1
1
1
1
1
1
1
1
1
1
1
1
1.00019
1.01444
1.28163
2.09169
3.24543
4.37664
4.50074
4.39848
4.3692
4.35868
4.3207
4.26124
4.27718
4.28367
4.28647
4.30068
4.27196
4.23687
4.23002
4.2257
4.1871
4.14643
4.12954
4.11769
4.09023
4.06008
4.04731
4.02338
3.99296
3.98616
3.98263
3.96774
3.95679
3.94973
3.93559
3.91534
3.88707
3.84884
3.80391
3.77183
3.76232
3.76099
3.76445
3.76668
3.76455
3.75758
3.745
3.72143
3.6747
3.61181
3.59795
3.60512
3.63059
3.6776
3.74682
3.85048
3.93568
3.95292
3.95499
3.94539
3.90717
3.84262
3.79869
3.77925
3.77327
3.77711
3.77635
3.76434
3.7361
3.70399
3.69052
3.68026
3.66779
3.65122
3.62754
3.58885
3.53371
3.49359
3.47505
3.46953
3.47682
3.50605
3.51289
3.49711
3.469
3.41461
3.34049
3.29787
3.28031
3.27562
3.28129
3.2894
3.2819
3.27211
3.26307
3.25561
3.24948
3.24015
3.21988
3.18222
3.12125
3.07116
3.05001
3.04516
3.05191
3.0857
3.10628
3.09938
3.07867
3.0378
2.96528
2.90474
2.88048
2.87627
2.88767
2.91396
2.91884
2.90649
2.88139
2.85976
2.84873
2.84102
2.83151
2.81213
2.76874
2.70754
2.67684
2.67347
2.67945
2.71911
2.76937
2.77523
2.76458
2.7348
2.66081
2.56856
2.5413
2.53317
2.5251
2.52052
2.52154
2.59845
3.17131
4.68435
6.39647
7.18903
7.22531
6.96624
6.72612
6.67544
6.72214
6.92036
7.04386
7.0125
6.9205
6.75735
6.63986
6.60269
6.60219
6.63499
6.61794
6.56338
6.47107
6.36158
6.30394
6.28785
1
1
1
1
1
1
1
1
1
1
1
1
1
1
1
1
1
1
1
1
1
1
1
1
1
1
1
1
1
1
1
1
1
1
1
1
1
1
1
1
1
1
1
1
1
1
1
1
1
1
1
1
1
1
1
1
1
1
1
1
1
1
1
1
1
1.00021
1.01146
1.13001
1.67699
3.33428
4.23802
4.29074
4.36546
4.37891
4.29548
4.29863
4.30968
4.32492
4.34284
4.29749
4.25428
4.24864
4.2563
4.21878
4.17104
4.15311
4.14529
4.12012
4.0889
4.0733
4.06324
4.03355
4.02059
4.01948
4.00432
3.98442
3.97686
3.96483
3.94447
3.917
3.88002
3.83926
3.80852
3.80034
3.80061
3.80444
3.80242
3.79605
3.78714
3.77373
3.74922
3.70512
3.632
3.59782
3.59516
3.59946
3.62201
3.66925
3.74797
3.85291
3.91849
3.93587
3.93855
3.91448
3.86161
3.83109
3.81801
3.81782
3.82835
3.82413
3.80907
3.7766
3.73691
3.7148
3.70321
3.69147
3.67692
3.65532
3.62078
3.57119
3.53236
3.51437
3.50977
3.51847
3.54407
3.54596
3.52918
3.50039
3.44569
3.37351
3.3335
3.31719
3.31333
3.31738
3.31988
3.31233
3.30393
3.29682
3.29091
3.28481
3.27429
3.25164
3.2119
3.14912
3.10314
3.08381
3.0793
3.08725
3.12211
3.13935
3.13041
3.10749
3.06455
2.99132
2.93652
2.91566
2.91251
2.92662
2.95062
2.94967
2.93297
2.90259
2.87692
2.86581
2.85933
2.85152
2.83742
2.80409
2.74852
2.71187
2.70714
2.71143
2.74687
2.79526
2.80157
2.79158
2.76426
2.69288
2.59174
2.55397
2.54757
2.53993
2.53505
2.54595
2.74317
3.70508
5.45161
6.97298
7.34912
7.27882
6.9755
6.7632
6.7294
6.80751
7.02158
7.11846
7.07738
6.97671
6.80663
6.6948
6.65935
6.66066
6.69166
6.67255
6.6181
6.52919
6.42833
6.37603
6.36155
6.38459
1
1
1
1
1
1
1
1
1
1
1
1
1
1
1
1
1
1
1
1
1
1
1
1
1
1
1
1
1
1
1
1
1
1
1
1
1
1
1
1
1
1
1
1
1
1
1
1
1
1
1
1
1
1
1
1
1
1
1
1
1
1
1
1
1
1
1.00008
1.00299
1.05819
1.62591
3.16036
3.96619
4.29483
4.40213
4.35816
4.34236
4.36662
4.38966
4.32261
4.26617
4.25991
4.2836
4.24338
4.19354
4.17918
4.17178
4.14579
4.12055
4.10277
4.1008
4.08183
4.05928
4.05755
4.04581
4.0175
4.00302
3.99379
3.97461
3.94872
3.91331
3.8738
3.84424
3.83811
3.83984
3.84204
3.8359
3.82587
3.81516
3.80152
3.77807
3.73869
3.66996
3.61784
3.60413
3.60111
3.60575
3.6343
3.6894
3.75563
3.82968
3.86927
3.89158
3.88767
3.85512
3.84422
3.84318
3.85724
3.87593
3.87035
3.8522
3.81708
3.77196
3.73993
3.72594
3.71446
3.70202
3.6839
3.65323
3.60853
3.57052
3.55395
3.55017
3.56005
3.58147
3.57881
3.56098
3.53113
3.4763
3.40628
3.36819
3.35337
3.35017
3.35251
3.34836
3.34153
3.33539
3.33024
3.32585
3.31969
3.3078
3.28333
3.24109
3.17734
3.13523
3.11787
3.1138
3.12325
3.15814
3.17185
3.16026
3.13575
3.09098
3.01795
2.96899
2.95056
2.94801
2.96329
2.98449
2.9805
2.95994
2.92492
2.89548
2.88442
2.87905
2.87227
2.86164
2.83639
2.78888
2.74861
2.74165
2.74402
2.77439
2.82023
2.82673
2.81707
2.79173
2.72393
2.6167
2.57056
2.56097
2.55543
2.55388
2.59648
3.01876
4.39519
6.20738
7.33845
7.48914
7.31914
6.97897
6.81184
6.79367
6.90072
7.1235
7.19352
7.14449
7.03149
6.85328
6.74964
6.71754
6.72226
6.75099
6.72741
6.67142
6.58481
6.49369
6.44792
6.43613
6.45952
6.46782
1
1
1
1
1
1
1
1
1
1
1
1
1
1
1
1
1
1
1
1
1
1
1
1
1
1
1
1
1
1
1
1
1
1
1
1
1
1
1
1
1
1
1
1
1
1
1
1
1
1
1
1
1
1
1
1
1
1
1
1
1
1
1
1
1
1
1
1.00001
1.0013
1.04683
1.59537
2.96498
3.81288
4.29642
4.43313
4.42527
4.39728
4.34791
4.29941
4.27835
4.30396
4.26075
4.21696
4.20786
4.20353
4.17467
4.14879
4.13678
4.14002
4.13637
4.10776
4.09807
4.08977
4.06234
4.03405
4.02266
4.0065
3.97995
3.94842
3.9118
3.88039
3.87507
3.8782
3.8768
3.86672
3.85416
3.84147
3.82742
3.80517
3.77022
3.71023
3.65526
3.63134
3.62537
3.62401
3.63949
3.67643
3.71203
3.74581
3.77208
3.78767
3.80808
3.81419
3.82564
3.84633
3.8799
3.90692
3.9044
3.88832
3.85775
3.81163
3.76986
3.75115
3.73947
3.72787
3.71304
3.68596
3.64564
3.60874
3.59296
3.58987
3.60006
3.61666
3.6105
3.59239
3.56216
3.50724
3.44007
3.4028
3.38853
3.38541
3.3856
3.37753
3.37039
3.36599
3.36283
3.35991
3.35355
3.34064
3.31517
3.27036
3.20642
3.16758
3.15178
3.14826
3.15915
3.19306
3.20339
3.18953
3.16389
3.11693
3.04543
3.00173
2.98519
2.98319
2.99853
3.01677
3.01046
2.9878
2.94941
2.91634
2.90515
2.90061
2.89437
2.88544
2.86729
2.82868
2.78663
2.77618
2.77709
2.80209
2.84481
2.85135
2.84173
2.81771
2.7532
2.64229
2.58998
2.57579
2.57189
2.5774
2.70657
3.48571
5.18734
6.90199
7.54632
7.57907
7.32665
6.99486
6.87523
6.87252
7.00951
7.22504
7.26253
7.20721
7.08402
6.90375
6.80693
6.77726
6.78453
6.80856
6.78199
6.7261
6.64293
6.55998
6.52124
6.51337
6.53569
6.52977
6.48776
1
1
1
1
1
1
1
1
1
1
1
1
1
1
1
1
1
1
1
1
1
1
1
1
1
1
1
1
1
1
1
1
1
1
1
1
1
1
1
1
1
1
1
1
1
1
1
1
1
1
1
1
1
1
1
1
1
1
1
1
1
1
1
1
1
1
1
1
1.00001
1.00106
1.04793
1.50694
2.45195
3.63684
4.41161
4.43669
4.34608
4.34038
4.33177
4.32798
4.27425
4.23579
4.23092
4.24144
4.21541
4.18249
4.17257
4.17952
4.18702
4.15911
4.13688
4.12795
4.10568
4.06753
4.05047
4.0378
4.01414
3.98163
3.95142
3.91911
3.91103
3.91292
3.91067
3.89725
3.8815
3.8668
3.85196
3.83016
3.7984
3.74672
3.69687
3.66959
3.66293
3.66117
3.6725
3.69447
3.70789
3.7127
3.718
3.70446
3.7004
3.7301
3.76777
3.81643
3.87544
3.91492
3.91869
3.91138
3.88972
3.85202
3.8062
3.78061
3.76937
3.75775
3.74404
3.71957
3.68201
3.64615
3.63135
3.62857
3.63856
3.64991
3.64132
3.6223
3.59237
3.53886
3.4749
3.43771
3.42408
3.4198
3.41735
3.40869
3.40026
3.39626
3.39424
3.39215
3.38558
3.372
3.34621
3.30027
3.23689
3.2
3.18583
3.18282
3.19475
3.22685
3.23341
3.21784
3.19154
3.14245
3.07382
3.03487
3.02034
3.01828
3.03348
3.0488
3.04027
3.01573
2.97556
2.93941
2.92692
2.92334
2.91804
2.91026
2.89694
2.86547
2.82521
2.81077
2.81039
2.83018
2.86932
2.87564
2.86589
2.84235
2.78156
2.66799
2.61042
2.59518
2.5919
2.61576
2.92449
4.14706
5.99676
7.42972
7.71205
7.63872
7.3166
7.0189
6.94633
6.96634
7.1385
7.32521
7.3265
7.2635
7.13084
6.95674
6.86964
6.84302
6.85022
6.86456
6.83369
6.77666
6.69982
6.62912
6.59832
6.59679
6.61454
6.59505
6.54577
6.46047
1
1
1
1
1
1
1
1
1
1
1
1
1
1
1
1
1
1
1
1
1
1
1
1
1
1
1
1
1
1
1
1
1
1
1
1
1
1
1
1
1
1
1
1
1
1
1
1
1
1
1
1
1
1
1
1
1
1
1
1
1
1
1
1
1
1
1
1
1
1.00001
1.00096
1.02862
1.24593
2.06137
3.76512
4.26847
4.28523
4.34407
4.38115
4.30195
4.2529
4.25006
4.27491
4.26068
4.22119
4.20814
4.21532
4.22948
4.2011
4.16941
4.1624
4.14401
4.10178
4.0744
4.06388
4.04441
4.0126
3.98707
3.96321
3.94623
3.94457
3.94232
3.92784
3.90876
3.89218
3.87709
3.85577
3.82539
3.77918
3.73544
3.71013
3.70363
3.7039
3.71446
3.72617
3.72629
3.71963
3.70886
3.6815
3.64768
3.65665
3.68873
3.74362
3.82306
3.89518
3.91336
3.91598
3.90704
3.8781
3.84129
3.8164
3.8051
3.79402
3.78029
3.75566
3.71794
3.68291
3.66862
3.66632
3.67619
3.68188
3.67129
3.65097
3.62092
3.57069
3.51112
3.47411
3.46108
3.45551
3.44964
3.44136
3.43189
3.42667
3.42457
3.42197
3.41479
3.40106
3.37574
3.33096
3.26936
3.23339
3.22051
3.21792
3.23073
3.25946
3.26244
3.24573
3.2183
3.16732
3.10314
3.06873
3.05576
3.05393
3.06879
3.08136
3.07067
3.04451
3.00178
2.96399
2.95043
2.94704
2.94326
2.93647
2.92585
2.90103
2.86368
2.84493
2.84362
2.85888
2.89399
2.89967
2.88965
2.86626
2.80754
2.69642
2.62994
2.61538
2.6181
2.70227
3.32334
4.94489
6.77683
7.72254
7.84011
7.66962
7.30915
7.07197
7.02799
7.07688
7.27367
7.41199
7.38763
7.31432
7.17027
7.01042
6.93743
6.91584
6.92258
6.92227
6.88466
6.82617
6.75341
6.695
6.67093
6.67547
6.68699
6.66126
6.60458
6.51025
6.39217
1
1
1
1
1
1
1
1
1
1
1
1
1
1
1
1
1
1
1
1
1
1
1
1
1
1
1
1
1
1
1
1
1
1
1
1
1
1
1
1
1
1
1
1
1
1
1
1
1
1
1
1
1
1
1
1
1
1
1
1
1
1
1
1
1
1
1
1
1
1
1
1.00028
1.00907
1.13778
2.0267
3.56337
4.07887
4.30225
4.38573
4.31169
4.27707
4.30156
4.30345
4.2547
4.23913
4.24304
4.26773
4.24182
4.19863
4.18446
4.17309
4.13694
4.09938
4.08739
4.07319
4.04415
4.01587
4.00197
3.98365
3.97291
3.97055
3.95939
3.93708
3.91799
3.90305
3.88243
3.85307
3.81109
3.77259
3.75013
3.74389
3.74579
3.75518
3.75926
3.75435