/*--------------------------------*- C++ -*----------------------------------*\
  =========                 |
  \\      /  F ield         | OpenFOAM: The Open Source CFD Toolbox
   \\    /   O peration     | Website:  https://openfoam.org
    \\  /    A nd           | Version:  7
     \\/     M anipulation  |
\*---------------------------------------------------------------------------*/
FoamFile
{
    version     2.0;
    format      ascii;
    class       volScalarField;
    location    "2.4";
    object      T;
}
// * * * * * * * * * * * * * * * * * * * * * * * * * * * * * * * * * * * * * //

dimensions      [0 0 0 1 0 0 0];

internalField   nonuniform List<scalar> 
16192
(
1
1
1
1
1
1
1
1
1
1
1
1
1
1
1
1
1
1
1
1
1
1
1
1
1
1
1
1
1
1
1
1
1
1
1
1
1
1
1
1
1
1
1
1
1
1
1
1
1
1
1
1
1
1
1
1
1
1
1
1
1
1
1
1
1
1
1
1
1
1
1
1
1
1
1
1
1
1
1
1
1
1
1
1
1
1
1
1
1
1
1
1
1
1
1
1
1
1
1
1
1
1
1
1
1
1
1
1
1
1
1
1
1
1
1
1
1
1
1
1
1
1
1
1
1
1
1
1
1
1
1
1
1
1
1
1
1
1
1
1
1
1
1
1
1
1
1
1
1
1
1
1
1
1
1
1
1
1
1
1
1
1
1
1
1
1
1
1
1
1
1
1
1
1
1
1
1
1
1
1
1
1
1
1
1
1
1
1
1
1
1
1
1
1
1
1
1
1
1
1
1
1
1
1
1
1
1
1
1
1
1
1
1
1
1
1
1
1
1
1
1
1
1
1
1
1
1
1
1
1
1
1
1
1
1
1
1
1
1
1
1
1
1
1
1
1
1
1
1
1
1
1
1
1
1
1
1
1
1
1
1
1
1
1
1
1
1
1
1
1
1
1
1
1
1
1
1
1
1
1
1
1
1
1
1
1
1
1
1
1
1
1
1
1
1
1
1
1
1
1
1
1
1
1
1
1
1
1
1
1
1
1
1
1
1
1
1
1
1
1
1
1
1
1
1
1
1
1
1
1
1
1
1
1
1
1
1
1
1
1
1
1
1
1
1
1
1
1
1
1
1
1
1
1
1
1
1
1
1
1
1
1
1
1
1
1
1
1
1
1
1
1
1
1
1
1
1
1
1
1
1
1
1
1
1
1
1
1
1
1
1
1
1
1
1
1
1
1
1
1
1
1
1
1
1
1
1
1
1
1
1
1
1
1
1
1
1
1
1
1
1
1
1
1
1
1
1
1
1
1
1
1
1
1
1
1
1
1
1
1
1
1
1
1
1
1
1
1
1
1
1
1
1
1
1
1
1
1
1
1
1
1
1
1
1
1
1
1
1
1
1
1
1
1
1
1
1
1
1
1
1
1
1
1
1
1
1
1
1
1
1
1
1
1
1
1
1
1
1
1
1
1
1
1
1
1
1
1
1
1
1
1
1
1
1
1
1
1
1
1
1
1
1
1
1
1
1
1
1
1
1
1
1
1
1
1
1
1
1
1
1
1
1
1
1
1
1
1
1
1
1
1
1
1
1
1
1
1
1
1
1
1
1
1
1
1
1
1
1
1
1
1
1
1
1
1
1
1
1
1
1
1
1
1
1
1
1
1
1
1
1
1
1
1
1
1
1
1
1
1
1
1
1
1
1
1
1
1
1
1
1
1
1
1
1
1
1
1
1
1
1
1
1
1
1
1
1
1
1
1
1
1
1
1
1
1
1
1
1
1
1
1
1
1
1
1
1
1
1
1
1
1
1
1
1
1
1
1
1
1
1
1
1
1
1
1
1
1
1
1
1
1
1
1
1
1
1
1
1
1
1
1
1
1
1
1
1
1
1
1
1
1
1
1
1
1
1
1
1
1
1
1
1
1
1
1
1
1
1
1
1
1
1
1
1
1
1
1
1
1
1
1
1
1
1
1
1
1
1
1
1
1
1
1
1
1
1
1
1
1
1
1
1
1
1
1
1
1
1
1
1
1
1
1
1
1
1
1
1
1
1
1
1
1
1
1
1
1
1
1
1
1
1
1
1
1
1
1
1
1
1
1
1
1
1
1
1
1
1
1
1
1
1
1
1
1
1
1
1
1
1
1
1
1
1
1
1
1
1
1
1
1
1
1
1
1
1
1
1
1
1
1
1
1
1
1
1
1
1
1
1
1
1
1
1
1
1
1
1
1
1
1
1
1
1
1
1
1
1
1
1
1
1
1
1
1
1
1
1
1
1
1
1
1
1
1
1
1
1
1
1
1
1
1
1
1
1
1
1
1
1
1
1
1
1
1
1
1
1
1
1
1
1
1
1
1
1
1
1
1
1
1
1
1
1
1
1
1
1
1
1
1
1
1
1
1
1
1
1
1
1
1
1
1
1
1
1
1
1
1
1
1
1
1
1
1
1
1
1
1
1
1
1
1
1
1
1
1
1
1
1
1
1
1
1
1
1
1
1
1
1
1
1
1
1
1
1
1
1
1
1
1
1
1
1
1
1
1
1
1
1
1
1
1
1
1
1
1
1
1
1
1
1
1
1
1
1
1
1
1
1
1
1
1
1
1
1
1
1
1
1
1
1
1
1
1
1
1
1
1
1
1
1
1
1
1
1
1
1
1
1
1
1
1
1
1
1
1
1
1
1
1
1
1
1
1
1
1
1
1
1
1
1
1
1
1
1
1
1
1
1
1
1
1
1
1
1
1
1
1
1
1
1
1
1
1
1
1
1
1
1
1
1
1
1
1
1
1
1
1
1
1
1
1
1
1
1
1
1
1
1
1
1
1
1
1
1
1
1
1
1
1
1
1
1
1
1
1
1
1
1
1
1
1
1
1
1
1
1
1
1
1
1
1
1
1
1
1
1
1
1
1
1
1
1
1
1
1
1
1
1
1
1
1
1
1
1
1
1
1
1
1
1
1
1
1
1
1
1
1
1
1
1
1
1
1
1
1
1
1
1
1
1
1
1
1
1
1
1
1
1
1
1
1
1
1
1
1
1
1
1
1
1
1
1
1
1
1
1
1
1
1
1
1
1
1
1
1
1
1
1
1
1
1
1
1
1
1
1
1
1
1
1
1
1
1
1
1
1
1
1
1
1
1
1
1
1
1
1
1
1
1
1
1
1
1
1
1
1
1
1
1
1
1
1
1
1
1
1
1
1
1
1
1
1
1
1
1
1
1
1
1
1
1
1
1
1
1
1
1
1
1
1.00001
1.00076
1.03749
1.29897
1.51517
1.63438
1.6985
1.70609
1.70646
1.70426
1.70077
1.69615
1.6876
1.6857
1.68746
1.68866
1.69084
1.69097
1.69063
1.68973
1.68843
1.68379
1.67941
1.67857
1.67886
1.67734
1.67532
1.6744
1.67188
1.66829
1.66552
1.66294
1.66012
1.65842
1.65846
1.6587
1.65853
1.65812
1.65721
1.65521
1.65155
1.64832
1.64607
1.64431
1.64277
1.64152
1.64028
1.639
1.63809
1.63785
1.63667
1.63359
1.62999
1.62852
1.62804
1.62784
1.62857
1.63195
1.63775
1.64493
1.65356
1.65988
1.66448
1.66493
1.6647
1.66331
1.65958
1.65503
1.65064
1.64635
1.64108
1.63521
1.63051
1.62867
1.62913
1.63021
1.62897
1.62698
1.62363
1.61734
1.61096
1.60789
1.60715
1.60794
1.60895
1.60908
1.60734
1.60234
1.59891
1.59845
1.59887
1.59918
1.59865
1.59429
1.58679
1.58329
1.58279
1.58377
1.58783
1.58945
1.58915
1.58722
1.58001
1.56963
1.56503
1.56423
1.5647
1.56901
1.57429
1.57503
1.57496
1.57367
1.56902
1.55804
1.54617
1.54117
1.53983
1.5397
1.5426
1.54806
1.54949
1.54905
1.54899
1.54856
1.54678
1.54141
1.52926
1.51907
1.5159
1.51543
1.51681
1.52389
1.53186
1.53276
1.5315
1.52846
1.52104
1.50759
1.49854
1.49588
1.49508
1.49499
1.49596
1.50007
1.50634
1.50958
1.50935
1.50856
1.50644
1.501
1.48973
1.47993
1.47699
1.47592
1.47561
1.47696
1.47913
1.47894
1.4782
1.47751
1.47725
1.47729
1.47717
1.4768
1.47615
1.47433
1.47005
1.46174
1.45506
1.45274
1.45288
1.46031
1.5101
1.68102
1.89689
1.97521
2.0017
2.01649
2.02505
2.02308
1
1
1
1
1
1
1
1
1
1
1
1
1
1
1
1
1
1
1
1
1
1
1
1
1
1
1
1
1
1
1
1
1
1
1
1
1
1
1
1
1
1
1
1
1
1
1
1
1
1
1
1.00001
1.00104
1.03729
1.18713
1.42043
1.65518
1.71041
1.70583
1.7031
1.6966
1.68406
1.68307
1.68633
1.68897
1.69316
1.69418
1.69294
1.69116
1.69041
1.68545
1.68046
1.67983
1.6808
1.67957
1.67676
1.67519
1.67316
1.66917
1.66651
1.66457
1.66219
1.66069
1.66078
1.66098
1.66028
1.65933
1.65809
1.65604
1.65279
1.64974
1.64755
1.6458
1.64435
1.64305
1.64153
1.64065
1.64027
1.64061
1.63965
1.63691
1.63322
1.62955
1.62724
1.6268
1.62616
1.62623
1.6276
1.63248
1.64001
1.65078
1.66091
1.66591
1.66596
1.66528
1.6637
1.66063
1.6568
1.65273
1.64797
1.64254
1.638
1.63543
1.63483
1.63405
1.63198
1.62961
1.62589
1.6199
1.61429
1.6109
1.60981
1.61072
1.61136
1.61084
1.60824
1.60321
1.59989
1.59925
1.59952
1.59949
1.59855
1.59422
1.5873
1.58397
1.58351
1.58452
1.58871
1.59049
1.59024
1.58845
1.58143
1.57117
1.56664
1.56594
1.56646
1.57061
1.57533
1.57596
1.57605
1.57499
1.57053
1.56017
1.54911
1.54436
1.54322
1.54315
1.54579
1.55048
1.55154
1.5511
1.55092
1.55041
1.54878
1.54395
1.53267
1.52251
1.51926
1.51884
1.52036
1.52762
1.53506
1.5356
1.53416
1.53082
1.5225
1.50843
1.50014
1.49787
1.49733
1.49736
1.49907
1.50426
1.51085
1.51339
1.51284
1.51175
1.5091
1.50291
1.4906
1.48117
1.47861
1.47796
1.47801
1.48058
1.48415
1.48426
1.48309
1.48073
1.47974
1.47933
1.47897
1.47848
1.47773
1.47604
1.47231
1.46501
1.45842
1.45628
1.45719
1.47091
1.55998
1.76266
1.94932
1.99189
2.00792
2.01934
2.02824
2.02633
2.0188
1
1
1
1
1
1
1
1
1
1
1
1
1
1
1
1
1
1
1
1
1
1
1
1
1
1
1
1
1
1
1
1
1
1
1
1
1
1
1
1
1
1
1
1
1
1
1
1
1
1
1
1
1.00001
1.00066
1.012
1.10974
1.45089
1.66445
1.69693
1.69761
1.69037
1.68391
1.68513
1.69017
1.69856
1.69835
1.69463
1.69126
1.69086
1.6854
1.68104
1.68111
1.68192
1.68073
1.678
1.67593
1.67435
1.6705
1.66774
1.66647
1.66449
1.66307
1.66324
1.66341
1.66213
1.66058
1.65899
1.65676
1.65409
1.65157
1.64933
1.64743
1.64579
1.64445
1.64308
1.64231
1.64225
1.64268
1.64187
1.63948
1.63559
1.63158
1.62893
1.62685
1.62574
1.62451
1.62429
1.62566
1.62966
1.63637
1.6462
1.65828
1.66539
1.66533
1.66454
1.6633
1.66151
1.65922
1.65596
1.65109
1.64641
1.64371
1.64187
1.63919
1.63623
1.63321
1.6291
1.62371
1.6189
1.61531
1.61396
1.61481
1.61517
1.61355
1.61008
1.60494
1.60162
1.60068
1.60077
1.60022
1.59857
1.59427
1.58803
1.58486
1.58437
1.58541
1.58968
1.59138
1.59109
1.58912
1.58209
1.57215
1.56777
1.56712
1.56764
1.57166
1.57593
1.57655
1.57675
1.57571
1.57125
1.56148
1.55154
1.54719
1.54625
1.54632
1.54883
1.5527
1.55338
1.55307
1.55284
1.55224
1.55068
1.54633
1.53592
1.52594
1.52253
1.52217
1.52379
1.53103
1.53797
1.53824
1.53675
1.53318
1.52421
1.50974
1.50203
1.50001
1.49965
1.49985
1.50242
1.50864
1.51509
1.51672
1.51593
1.51461
1.51161
1.50475
1.49165
1.48262
1.48039
1.48002
1.48053
1.48445
1.48938
1.49
1.48832
1.48392
1.48146
1.48078
1.48025
1.47971
1.47898
1.47756
1.47431
1.46843
1.46194
1.45989
1.46236
1.48937
1.62836
1.84622
1.98454
2.00361
2.01208
2.02176
2.03116
2.02931
2.022
2.00884
1
1
1
1
1
1
1
1
1
1
1
1
1
1
1
1
1
1
1
1
1
1
1
1
1
1
1
1
1
1
1
1
1
1
1
1
1
1
1
1
1
1
1
1
1
1
1
1
1
1
1
1
1
1
1.00013
1.00583
1.11808
1.46116
1.6263
1.6717
1.68947
1.68934
1.69316
1.70146
1.70108
1.69705
1.69255
1.68802
1.68409
1.68229
1.68241
1.68224
1.6808
1.67885
1.67725
1.67605
1.67275
1.66932
1.66845
1.66746
1.66593
1.66609
1.66619
1.66425
1.66186
1.65982
1.65765
1.65553
1.65362
1.65146
1.64925
1.6475
1.64603
1.64486
1.64433
1.6444
1.64459
1.64368
1.64136
1.63749
1.63328
1.63076
1.62837
1.62595
1.62487
1.62398
1.62408
1.62586
1.62866
1.63244
1.63866
1.6491
1.65895
1.66138
1.6615
1.66208
1.66238
1.66154
1.65885
1.65443
1.65167
1.64914
1.64549
1.64146
1.63756
1.63303
1.62835
1.62421
1.62107
1.61961
1.62029
1.62033
1.61769
1.61338
1.60785
1.60433
1.60305
1.60273
1.60157
1.59928
1.59508
1.58952
1.58646
1.58585
1.58695
1.59106
1.59239
1.59188
1.58947
1.5823
1.5728
1.56866
1.56799
1.56848
1.57246
1.5764
1.57705
1.57726
1.57597
1.57115
1.56189
1.55335
1.54958
1.54883
1.5491
1.55158
1.55452
1.55486
1.55476
1.55461
1.55397
1.5525
1.54851
1.53891
1.52919
1.52567
1.52531
1.52697
1.53404
1.54048
1.54061
1.53915
1.53551
1.52614
1.51158
1.50425
1.50236
1.50211
1.50259
1.50604
1.51307
1.51878
1.51949
1.51867
1.51721
1.51395
1.50656
1.493
1.4843
1.48229
1.48203
1.48303
1.48816
1.49403
1.49465
1.49283
1.48748
1.48293
1.48181
1.4812
1.48064
1.47995
1.4789
1.4763
1.47141
1.46594
1.46422
1.46984
1.52264
1.70625
1.92086
2.00682
2.01061
2.01495
2.02437
2.03399
2.03213
2.0251
2.01217
2.00155
1
1
1
1
1
1
1
1
1
1
1
1
1
1
1
1
1
1
1
1
1
1
1
1
1
1
1
1
1
1
1
1
1
1
1
1
1
1
1
1
1
1
1
1
1
1
1
1
1
1
1
1
1
1
1
1.00008
1.00626
1.1324
1.39756
1.5538
1.66332
1.70144
1.70047
1.69859
1.69705
1.69371
1.68411
1.68058
1.68262
1.6838
1.68215
1.68016
1.67948
1.67836
1.67824
1.6754
1.67185
1.67074
1.67107
1.67
1.66889
1.66852
1.66643
1.66312
1.66042
1.65861
1.65699
1.65542
1.65379
1.65166
1.64949
1.64803
1.64692
1.64645
1.64657
1.64655
1.64537
1.64302
1.63895
1.63458
1.63186
1.62972
1.6277
1.62633
1.62568
1.62564
1.62605
1.62679
1.62756
1.62735
1.62921
1.63584
1.64623
1.65254
1.65686
1.66171
1.66356
1.66317
1.66131
1.65843
1.65533
1.65135
1.64707
1.64255
1.63758
1.63333
1.63003
1.62759
1.62633
1.62697
1.62658
1.62315
1.61799
1.61182
1.60803
1.60636
1.60543
1.60379
1.60112
1.5971
1.59219
1.58909
1.5884
1.58952
1.59317
1.59381
1.59284
1.58983
1.58242
1.57345
1.56968
1.56893
1.5694
1.57333
1.57705
1.57762
1.57774
1.57595
1.5704
1.56151
1.55445
1.55147
1.55094
1.55149
1.55397
1.55591
1.55604
1.55612
1.55603
1.55545
1.55414
1.55044
1.54156
1.53212
1.5286
1.52823
1.52985
1.53663
1.54258
1.54262
1.5413
1.53768
1.52812
1.51375
1.50672
1.50491
1.50474
1.50561
1.50997
1.51731
1.52177
1.52181
1.52108
1.51958
1.5162
1.50841
1.49461
1.48619
1.48426
1.48408
1.48543
1.49152
1.4981
1.49876
1.49681
1.49095
1.48446
1.48268
1.48208
1.48152
1.48084
1.47996
1.47804
1.4742
1.46978
1.46905
1.48273
1.57796
1.78986
1.9761
2.01883
2.01628
2.01744
2.02637
2.0369
2.03526
2.02818
2.01513
2.00464
2.0007
1
1
1
1
1
1
1
1
1
1
1
1
1
1
1
1
1
1
1
1
1
1
1
1
1
1
1
1
1
1
1
1
1
1
1
1
1
1
1
1
1
1
1
1
1
1
1
1
1
1
1
1
1
1
1
1
1.00009
1.00735
1.08307
1.2581
1.54903
1.68687
1.69747
1.69756
1.69308
1.68051
1.67729
1.68037
1.68439
1.683
1.68045
1.68012
1.67926
1.68006
1.67678
1.67386
1.67354
1.67464
1.67425
1.67153
1.66988
1.6682
1.66441
1.6611
1.65964
1.6585
1.65692
1.65582
1.65436
1.65212
1.65039
1.64932
1.64869
1.64857
1.6483
1.64697
1.64467
1.64046
1.63572
1.63273
1.63087
1.62971
1.62913
1.62897
1.62881
1.62879
1.62822
1.62638
1.62346
1.622
1.6227
1.62606
1.63435
1.64337
1.65285
1.66185
1.66409
1.66401
1.66289
1.66013
1.65602
1.65193
1.64746
1.64254
1.63863
1.63593
1.63402
1.63324
1.63408
1.63333
1.62949
1.62366
1.61681
1.6128
1.61079
1.60912
1.60687
1.60407
1.60041
1.59604
1.59295
1.59227
1.59329
1.59614
1.59602
1.59425
1.59056
1.58284
1.57453
1.57109
1.5702
1.5707
1.57478
1.57809
1.57836
1.5782
1.57574
1.56937
1.56075
1.55515
1.55291
1.55259
1.55355
1.55592
1.55686
1.55705
1.55712
1.55703
1.55658
1.5555
1.55204
1.54375
1.53467
1.5312
1.53081
1.53238
1.53884
1.54428
1.5443
1.54315
1.53957
1.52991
1.51601
1.50927
1.50755
1.50745
1.50885
1.51403
1.52106
1.52404
1.52376
1.52322
1.52177
1.51835
1.5104
1.49657
1.48825
1.48636
1.4862
1.4878
1.49463
1.50178
1.50247
1.50058
1.49453
1.48619
1.48341
1.48293
1.48247
1.48189
1.48098
1.47966
1.47654
1.47302
1.47436
1.50518
1.65318
1.8735
2.01393
2.02519
2.01906
2.01916
2.02854
2.03962
2.03831
2.0315
2.01842
2.00757
2.00345
2.0034
1
1
1
1
1
1
1
1
1
1
1
1
1
1
1
1
1
1
1
1
1
1
1
1
1
1
1
1
1
1
1
1
1
1
1
1
1
1
1
1
1
1
1
1
1
1
1
1
1
1
1
1
1
1
1
1
1
1.00007
1.00242
1.03055
1.24657
1.584
1.67332
1.69014
1.6865
1.67994
1.67941
1.68469
1.6869
1.68361
1.68281
1.68017
1.67948
1.67806
1.67541
1.67558
1.67744
1.67683
1.67388
1.67135
1.66971
1.66588
1.66186
1.66043
1.65974
1.65851
1.65744
1.65675
1.65489
1.65271
1.6517
1.65081
1.65048
1.64989
1.64845
1.64626
1.64219
1.63724
1.63379
1.63223
1.63158
1.63176
1.6328
1.6324
1.63206
1.63094
1.62778
1.62245
1.61932
1.61916
1.61966
1.62175
1.62807
1.63812
1.64913
1.65983
1.66306
1.66318
1.66227
1.65958
1.65567
1.6512
1.64706
1.64389
1.64155
1.63987
1.63967
1.64077
1.6396
1.63584
1.62991
1.62245
1.61825
1.61605
1.614
1.61101
1.60789
1.60449
1.60075
1.59802
1.59742
1.5982
1.60008
1.59914
1.59647
1.59204
1.58391
1.57635
1.57316
1.57215
1.57263
1.57675
1.57974
1.57962
1.57876
1.57551
1.56821
1.56008
1.55571
1.55407
1.5539
1.55528
1.55732
1.55784
1.55793
1.55785
1.5577
1.55739
1.55653
1.55322
1.54541
1.53671
1.53336
1.53297
1.53445
1.5406
1.54562
1.54563
1.54466
1.54113
1.5314
1.51811
1.51186
1.51028
1.51024
1.51219
1.51792
1.52402
1.52563
1.52538
1.52503
1.5237
1.5204
1.51255
1.4989
1.49053
1.4886
1.48843
1.49018
1.49756
1.50521
1.50598
1.50423
1.49817
1.48846
1.48446
1.48377
1.48333
1.48288
1.48206
1.4808
1.47854
1.47651
1.48239
1.5446
1.73675
1.94478
2.03601
2.02944
2.02101
2.02052
2.03053
2.04206
2.04092
2.03458
2.0218
2.01073
2.00647
2.00616
2.00904
1
1
1
1
1
1
1
1
1
1
1
1
1
1
1
1
1
1
1
1
1
1
1
1
1
1
1
1
1
1
1
1
1
1
1
1
1
1
1
1
1
1
1
1
1
1
1
1
1
1
1
1
1
1
1
1
1
1
1.00001
1.00075
1.02893
1.28253
1.55472
1.64172
1.67283
1.68514
1.68459
1.6866
1.68584
1.6862
1.68358
1.67886
1.67647
1.67643
1.67736
1.67934
1.67856
1.67523
1.67235
1.67109
1.66775
1.6631
1.66128
1.66087
1.66014
1.65891
1.65861
1.65726
1.65477
1.65356
1.65277
1.65214
1.65139
1.64995
1.64771
1.64387
1.63917
1.63532
1.63392
1.63373
1.63426
1.63575
1.6355
1.63492
1.63346
1.6302
1.62448
1.61842
1.61754
1.61751
1.61788
1.61987
1.62522
1.63502
1.64442
1.65442
1.6595
1.66019
1.65958
1.65719
1.65291
1.64976
1.64803
1.6465
1.64534
1.64579
1.64663
1.64498
1.64134
1.63564
1.6278
1.62342
1.62139
1.6194
1.61625
1.61271
1.60936
1.60616
1.60399
1.60346
1.60402
1.60495
1.60325
1.59975
1.59454
1.58599
1.5791
1.57603
1.57494
1.57549
1.57959
1.58209
1.58154
1.57982
1.57555
1.56726
1.55992
1.5565
1.55524
1.55515
1.55692
1.55841
1.55889
1.55884
1.55849
1.5583
1.55806
1.55729
1.55401
1.54648
1.53818
1.53499
1.53461
1.53604
1.54193
1.5466
1.54664
1.54584
1.5423
1.53255
1.51996
1.51429
1.51284
1.51296
1.51566
1.52149
1.52607
1.52664
1.52667
1.52641
1.52528
1.52224
1.51481
1.50156
1.49305
1.49096
1.49078
1.4926
1.50037
1.50848
1.50927
1.50773
1.50191
1.49108
1.48577
1.48486
1.4842
1.48367
1.48286
1.48154
1.4802
1.48031
1.49728
1.60688
1.82376
1.99919
2.04509
2.03205
2.02295
2.02212
2.03263
2.04483
2.04365
2.03717
2.02433
2.01357
2.00939
2.00895
2.01166
2.01041
1
1
1
1
1
1
1
1
1
1
1
1
1
1
1
1
1
1
1
1
1
1
1
1
1
1
1
1
1
1
1
1
1
1
1
1
1
1
1
1
1
1
1
1
1
1
1
1
1
1
1
1
1
1
1
1
1
1
1
1.00001
1.00076
1.03635
1.24971
1.44324
1.61058
1.68688
1.68768
1.68856
1.68951
1.68672
1.67759
1.67335
1.67582
1.67851
1.67991
1.67941
1.67588
1.67236
1.67158
1.66939
1.66476
1.66263
1.66278
1.66219
1.66089
1.66032
1.65956
1.65667
1.65492
1.6544
1.65364
1.65277
1.6515
1.64912
1.64529
1.64117
1.63728
1.63595
1.63605
1.6368
1.63816
1.63805
1.63726
1.63547
1.63212
1.62686
1.62036
1.61719
1.617
1.61703
1.61758
1.61994
1.62487
1.63212
1.63808
1.64511
1.65144
1.65427
1.65382
1.65159
1.64986
1.6498
1.64969
1.65062
1.65166
1.6514
1.64958
1.64609
1.64032
1.632
1.62753
1.62577
1.62416
1.62166
1.61818
1.61487
1.61197
1.61037
1.60992
1.61032
1.61044
1.60813
1.6041
1.5981
1.58928
1.58296
1.57983
1.5787
1.57927
1.58337
1.58541
1.58436
1.58186
1.57652
1.56726
1.56056
1.55775
1.55661
1.55675
1.55878
1.55967
1.56009
1.55991
1.55934
1.55908
1.55885
1.558
1.55456
1.54709
1.53919
1.53621
1.53582
1.53719
1.54292
1.54738
1.54745
1.54676
1.54314
1.53328
1.52148
1.51632
1.51511
1.51547
1.5189
1.52447
1.52723
1.52738
1.52747
1.52721
1.52632
1.52372
1.51703
1.50445
1.49571
1.49343
1.49322
1.49506
1.50305
1.51148
1.51239
1.51108
1.5056
1.49403
1.48702
1.48574
1.48516
1.48416
1.48351
1.48224
1.48164
1.48445
1.52472
1.68771
1.90464
2.0366
2.04976
2.03293
2.02366
2.02326
2.03488
2.04763
2.04654
2.04005
2.02696
2.01581
2.01164
2.01118
2.01393
2.01266
2.00741
1
1
1
1
1
1
1
1
1
1
1
1
1
1
1
1
1
1
1
1
1
1
1
1
1
1
1
1
1
1
1
1
1
1
1
1
1
1
1
1
1
1
1
1
1
1
1
1
1
1
1
1
1
1
1
1
1
1
1
1
1.00001
1.00089
1.02283
1.12459
1.38699
1.63854
1.68509
1.69272
1.68846
1.67708
1.67189
1.67442
1.67875
1.68179
1.68081
1.67663
1.67235
1.67157
1.66955
1.66561
1.66477
1.66506
1.66464
1.66333
1.66264
1.66224
1.65928
1.65627
1.65561
1.65493
1.65375
1.65267
1.65063
1.64689
1.64275
1.63941
1.63821
1.63837
1.63906
1.64021
1.64024
1.63929
1.63732
1.63367
1.62843
1.62285
1.61904
1.61798
1.61798
1.6183
1.61966
1.62212
1.62521
1.62819
1.63054
1.63265
1.63857
1.64359
1.64511
1.64641
1.64853
1.65087
1.65444
1.65633
1.65528
1.65329
1.65002
1.64441
1.63558
1.63065
1.6289
1.62769
1.62623
1.62348
1.62045
1.61772
1.61651
1.61621
1.61643
1.61581
1.61324
1.60903
1.60257
1.59366
1.58764
1.58463
1.58347
1.584
1.58793
1.58973
1.58823
1.58514
1.57902
1.56891
1.56255
1.5598
1.55857
1.55907
1.56121
1.56147
1.56168
1.56139
1.56068
1.56036
1.56005
1.55889
1.55512
1.54751
1.54002
1.53723
1.53682
1.53811
1.54376
1.5481
1.54817
1.54746
1.54364
1.53367
1.52274
1.51822
1.51715
1.51775
1.52185
1.52676
1.52794
1.52794
1.52776
1.52743
1.52677
1.52469
1.51903
1.5075
1.49842
1.49589
1.49567
1.49755
1.50563
1.51424
1.5153
1.51415
1.50911
1.49703
1.48817
1.4864
1.48577
1.48487
1.48364
1.48311
1.4833
1.49261
1.57227
1.77595
1.97298
2.05531
2.05468
2.03291
2.02423
2.0245
2.03706
2.05007
2.04897
2.04251
2.02926
2.01812
2.01389
2.01319
2.01582
2.01453
2.00921
1.99949
1
1
1
1
1
1
1
1
1
1
1
1
1
1
1
1
1
1
1
1
1
1
1
1
1
1
1
1
1
1
1
1
1
1
1
1
1
1
1
1
1
1
1
1
1
1
1
1
1
1
1
1
1
1
1
1
1
1
1
1
1
1
1.00027
1.00624
1.0905
1.41159
1.63598
1.67596
1.68007
1.67578
1.67504
1.67845
1.68495
1.68422
1.67918
1.67413
1.67077
1.66866
1.66625
1.66614
1.66757
1.66816
1.6667
1.6654
1.66486
1.66233
1.65832
1.65649
1.65601
1.65512
1.65374
1.65219
1.6488
1.64412
1.64139
1.64062
1.64062
1.64109
1.64199
1.6421
1.64106
1.63897
1.63516
1.6298
1.62472
1.62163
1.62044
1.62049
1.62102
1.6222
1.62345
1.62401
1.62398
1.62383
1.62138
1.62058
1.62544
1.63238
1.63799
1.6435
1.64902
1.65555
1.65864
1.658
1.65605
1.65306
1.64787
1.63919
1.63357
1.63148
1.63044
1.62992
1.62829
1.62595
1.62327
1.62205
1.62172
1.62145
1.62033
1.61779
1.61383
1.60753
1.59887
1.59304
1.59016
1.58895
1.58943
1.59322
1.59468
1.59294
1.58959
1.58302
1.57254
1.566
1.56299
1.56171
1.56237
1.56435
1.56422
1.564
1.5635
1.56281
1.5624
1.56189
1.56023
1.556
1.54817
1.54103
1.53843
1.53795
1.5392
1.54482
1.54895
1.54895
1.54804
1.5439
1.53391
1.52391
1.51998
1.51913
1.52005
1.52464
1.52848
1.52879
1.52833
1.52752
1.52704
1.52651
1.52503
1.52061
1.51057
1.50115
1.49824
1.49802
1.4999
1.50798
1.51669
1.51786
1.51688
1.51232
1.50001
1.48906
1.48663
1.48603
1.4852
1.48394
1.4838
1.48506
1.5105
1.64265
1.86262
2.02609
2.06432
2.05514
2.03336
2.02492
2.02621
2.04004
2.05244
2.05094
2.04421
2.03081
2.01979
2.01562
2.01486
2.01731
2.0159
2.01072
2.00148
1.99049
1
1
1
1
1
1
1
1
1
1
1
1
1
1
1
1
1
1
1
1
1
1
1
1
1
1
1
1
1
1
1
1
1
1
1
1
1
1
1
1
1
1
1
1
1
1
1
1
1
1
1
1
1
1
1
1
1
1
1
1
1
1
1
1.00007
1.00426
1.09497
1.41696
1.58472
1.6444
1.67487
1.68268
1.68345
1.68408
1.68194
1.67824
1.67195
1.66607
1.66629
1.66683
1.66901
1.67172
1.67025
1.66805
1.66705
1.6648
1.66029
1.65755
1.65684
1.65655
1.655
1.65336
1.65087
1.64604
1.64295
1.64277
1.64277
1.64292
1.6436
1.64372
1.64262
1.64041
1.63666
1.63146
1.62644
1.6239
1.62326
1.62351
1.62444
1.62543
1.6258
1.62532
1.62403
1.62214
1.61791
1.61277
1.61347
1.61778
1.62509
1.63339
1.6421
1.65239
1.65792
1.65841
1.65753
1.65507
1.65034
1.64239
1.63676
1.63426
1.63326
1.63333
1.63295
1.63144
1.62861
1.62644
1.62584
1.62501
1.62365
1.62137
1.618
1.6123
1.60425
1.5986
1.59591
1.59476
1.59523
1.59878
1.59992
1.59797
1.5946
1.58798
1.57766
1.57087
1.56757
1.5663
1.56688
1.56842
1.56785
1.56724
1.56661
1.56594
1.56535
1.56443
1.56213
1.55742
1.54933
1.54261
1.54012
1.53955
1.54083
1.54643
1.55021
1.54998
1.54864
1.54406
1.5341
1.52512
1.52182
1.52109
1.52258
1.52731
1.5297
1.52944
1.52818
1.52659
1.52597
1.52563
1.52479
1.52165
1.51342
1.50387
1.50043
1.50019
1.50199
1.50991
1.51864
1.51987
1.51909
1.51508
1.50291
1.48974
1.48681
1.48573
1.48529
1.48442
1.48423
1.48898
1.54418
1.72841
1.9405
2.05916
2.07089
2.05504
2.03235
2.02559
2.02805
2.04329
2.05495
2.05287
2.04546
2.03151
2.02077
2.01684
2.01614
2.01857
2.01698
2.01159
2.0025
1.9924
1.98672
1
1
1
1
1
1
1
1
1
1
1
1
1
1
1
1
1
1
1
1
1
1
1
1
1
1
1
1
1
1
1
1
1
1
1
1
1
1
1
1
1
1
1
1
1
1
1
1
1
1
1
1
1
1
1
1
1
1
1
1
1
1
1
1
1.00006
1.00474
1.09917
1.31813
1.50323
1.6534
1.68822
1.68373
1.68428
1.68274
1.67464
1.66412
1.6653
1.66719
1.67009
1.67413
1.67259
1.66962
1.66824
1.66705
1.66221
1.65833
1.65794
1.6579
1.65649
1.65419
1.65261
1.64888
1.64485
1.64458
1.64503
1.64469
1.6449
1.64509
1.64405
1.64169
1.63795
1.63323
1.62856
1.62607
1.62588
1.62658
1.62782
1.62839
1.62814
1.62708
1.62549
1.62291
1.61766
1.61095
1.60949
1.61058
1.61423
1.62062
1.62967
1.64252
1.65319
1.65584
1.65622
1.6553
1.65135
1.64444
1.6397
1.63736
1.63655
1.63714
1.63722
1.63608
1.63302
1.62958
1.6283
1.62727
1.62593
1.62406
1.62128
1.6164
1.60923
1.60394
1.60141
1.60038
1.601
1.60427
1.60499
1.6029
1.59957
1.59312
1.58335
1.57665
1.57326
1.57197
1.57229
1.57315
1.57224
1.57144
1.5708
1.5701
1.56926
1.56777
1.56482
1.55961
1.55128
1.545
1.54256
1.542
1.54334
1.54882
1.55205
1.55142
1.54948
1.54443
1.53449
1.52657
1.52378
1.52322
1.52526
1.52978
1.53082
1.52989
1.52739
1.52514
1.52457
1.52444
1.5241
1.52212
1.51578
1.50662
1.50252
1.50218
1.50376
1.51125
1.51992
1.52128
1.52069
1.51724
1.50545
1.49042
1.48661
1.48568
1.48476
1.48457
1.48503
1.49964
1.60125
1.81763
2.00494
2.07442
2.07562
2.05257
2.03185
2.02709
2.03067
2.04667
2.05701
2.05433
2.0462
2.0317
2.02136
2.01755
2.01696
2.01935
2.01766
2.01229
2.00357
1.99395
1.9884
1.98636
1
1
1
1
1
1
1
1
1
1
1
1
1
1
1
1
1
1
1
1
1
1
1
1
1
1
1
1
1
1
1
1
1
1
1
1
1
1
1
1
1
1
1
1
1
1
1
1
1
1
1
1
1
1
1
1
1
1
1
1
1
1
1
1
1
1.00006
1.00386
1.04555
1.20384
1.51433
1.66418
1.6827
1.68273
1.67948
1.66471
1.66432
1.66606
1.67137
1.67706
1.67464
1.67034
1.66878
1.6687
1.66373
1.65897
1.65867
1.65907
1.6578
1.6556
1.65387
1.65189
1.6474
1.64645
1.64736
1.64709
1.6464
1.64641
1.64542
1.6429
1.63913
1.63469
1.63076
1.62849
1.62856
1.6297
1.63096
1.63094
1.63005
1.62867
1.6271
1.6246
1.61974
1.61155
1.60813
1.60805
1.60866
1.6118
1.61814
1.62838
1.64149
1.64951
1.65216
1.65272
1.65024
1.64448
1.64144
1.64004
1.63997
1.6415
1.64133
1.64005
1.63662
1.6321
1.62966
1.62852
1.62742
1.62603
1.62379
1.61971
1.61349
1.60863
1.60623
1.60547
1.60637
1.60936
1.6095
1.60747
1.60417
1.59783
1.58864
1.58259
1.57936
1.57804
1.57806
1.57808
1.57706
1.57638
1.57584
1.57512
1.57397
1.57192
1.56832
1.56265
1.55414
1.54835
1.54601
1.5455
1.54691
1.55218
1.5546
1.55343
1.5508
1.54529
1.53546
1.52848
1.52607
1.52564
1.5281
1.53207
1.53217
1.53054
1.52695
1.52402
1.52345
1.52344
1.52333
1.52227
1.51774
1.5095
1.50452
1.50401
1.5053
1.51215
1.52057
1.52204
1.52166
1.51879
1.50758
1.49128
1.48579
1.48532
1.48452
1.48439
1.4866
1.52304
1.68113
1.90161
2.0527
2.08175
2.07537
2.04979
2.03145
2.02795
2.03382
2.05083
2.05882
2.05521
2.04623
2.03132
2.02163
2.01804
2.01761
2.01985
2.018
2.01268
2.00438
1.99562
1.99059
1.98873
1.9903
1
1
1
1
1
1
1
1
1
1
1
1
1
1
1
1
1
1
1
1
1
1
1
1
1
1
1
1
1
1
1
1
1
1
1
1
1
1
1
1
1
1
1
1
1
1
1
1
1
1
1
1
1
1
1
1
1
1
1
1
1
1
1
1
1
1
1.00002
1.00094
1.01957
1.192
1.51633
1.65192
1.67039
1.66935
1.6644
1.66512
1.67268
1.6804
1.67679
1.67148
1.66922
1.66994
1.66418
1.65925
1.65938
1.65997
1.65879
1.65717
1.65533
1.65446
1.65125
1.64882
1.64985
1.65006
1.64874
1.64791
1.64694
1.64434
1.64061
1.63638
1.63282
1.63085
1.63116
1.6326
1.6336
1.6331
1.63162
1.63001
1.62845
1.62622
1.62226
1.61478
1.60903
1.60771
1.60738
1.60802
1.61179
1.61904
1.62785
1.63726
1.64232
1.64561
1.64542
1.64185
1.64073
1.64104
1.64294
1.64547
1.64511
1.6436
1.64003
1.63477
1.63096
1.62948
1.62841
1.62736
1.62573
1.62243
1.61706
1.61248
1.61031
1.60977
1.61096
1.61362
1.61334
1.61145
1.60825
1.602
1.59313
1.58776
1.58497
1.58382
1.58358
1.58264
1.58196
1.5816
1.58125
1.58061
1.57922
1.57667
1.57258
1.56644
1.55787
1.55253
1.55046
1.55003
1.55155
1.55641
1.55798
1.55609
1.55279
1.54685
1.53721
1.53108
1.52888
1.52853
1.5311
1.53441
1.53394
1.53155
1.52709
1.52371
1.52309
1.52307
1.52296
1.52235
1.51919
1.51218
1.50664
1.50585
1.50674
1.51278
1.52086
1.52241
1.52215
1.5197
1.50916
1.49211
1.48531
1.48452
1.48416
1.48448
1.49262
1.56822
1.77169
1.97513
2.07763
2.08762
2.07377
2.04534
2.03134
2.02931
2.03731
2.05475
2.06041
2.05595
2.0459
2.03058
2.02175
2.01846
2.01834
2.02046
2.0182
2.01279
2.00492
1.99717
1.99263
1.9911
1.99278
1.99347
1
1
1
1
1
1
1
1
1
1
1
1
1
1
1
1
1
1
1
1
1
1
1
1
1
1
1
1
1
1
1
1
1
1
1
1
1
1
1
1
1
1
1
1
1
1
1
1
1
1
1
1
1
1
1
1
1
1
1
1
1
1
1
1
1
1
1
1
1.0004
1.01578
1.1907
1.50233
1.60252
1.64224
1.67043
1.67605
1.67987
1.67883
1.67571
1.67092
1.67036
1.66312
1.65931
1.66032
1.66141
1.66008
1.65858
1.65718
1.65693
1.65603
1.65232
1.65261
1.6532
1.65213
1.65008
1.6487
1.64628
1.64228
1.63844
1.63522
1.6332
1.63368
1.63537
1.63582
1.63487
1.63302
1.63107
1.62943
1.62751
1.62439
1.61824
1.61223
1.60946
1.60858
1.60835
1.6102
1.61514
1.62048
1.62554
1.62925
1.63137
1.63409
1.63507
1.63649
1.63936
1.64399
1.64776
1.64766
1.64628
1.64327
1.63789
1.63278
1.63062
1.62944
1.6285
1.62736
1.62473
1.62013
1.61579
1.61374
1.61334
1.6147
1.61693
1.61639
1.61472
1.61169
1.60549
1.59703
1.59196
1.58951
1.58858
1.58825
1.58703
1.58657
1.58652
1.58644
1.58602
1.58449
1.58163
1.57726
1.57076
1.56225
1.55736
1.55561
1.55533
1.55695
1.56133
1.56219
1.55953
1.55567
1.54925
1.5399
1.53443
1.53235
1.53209
1.53451
1.53712
1.53613
1.53316
1.52804
1.52416
1.52343
1.52339
1.52327
1.52277
1.52063
1.51499
1.50906
1.50776
1.50832
1.51342
1.52108
1.52267
1.52243
1.5202
1.51025
1.49278
1.48518
1.48361
1.48369
1.48508
1.5091
1.63997
1.8617
2.03461
2.08787
2.0893
2.06897
2.04202
2.03191
2.03133
2.04156
2.05846
2.06133
2.05626
2.04534
2.03024
2.02209
2.01905
2.01917
2.02094
2.01851
2.01323
2.00593
1.9988
1.99497
1.99388
1.99552
1.99501
1.991
1
1
1
1
1
1
1
1
1
1
1
1
1
1
1
1
1
1
1
1
1
1
1
1
1
1
1
1
1
1
1
1
1
1
1
1
1
1
1
1
1
1
1
1
1
1
1
1
1
1
1
1
1
1
1
1
1
1
1
1
1
1
1
1
1
1
1
1
1
1.00032
1.01645
1.17277
1.38264
1.5483
1.66576
1.68267
1.67946
1.67976
1.67685
1.67059
1.66024
1.65764
1.66004
1.66431
1.66318
1.66083
1.65939
1.65952
1.6597
1.65623
1.65512
1.65566
1.65499
1.65226
1.65038
1.64832
1.64449
1.64039
1.63783
1.63572
1.63613
1.63767
1.638
1.63661
1.6343
1.63196
1.63022
1.62849
1.62601
1.62113
1.61587
1.61266
1.61159
1.61123
1.6125
1.61543
1.61788
1.61962
1.62103
1.61977
1.61918
1.62282
1.62764
1.63363
1.64125
1.64743
1.64832
1.64772
1.64554
1.64102
1.63535
1.63229
1.63108
1.63015
1.62924
1.62705
1.62289
1.61866
1.6167
1.61637
1.61778
1.61949
1.61887
1.61732
1.61441
1.60827
1.60031
1.59547
1.59316
1.59229
1.59196
1.59107
1.59068
1.59082
1.59097
1.59075
1.58925
1.58628
1.58189
1.57525
1.56694
1.56242
1.56112
1.56094
1.56272
1.5666
1.56687
1.56361
1.55936
1.55252
1.54358
1.53859
1.53671
1.53641
1.53856
1.54046
1.53891
1.53538
1.5299
1.52556
1.52452
1.52454
1.52445
1.52396
1.52235
1.51769
1.5119
1.51
1.51026
1.5144
1.52153
1.52308
1.52276
1.52053
1.51122
1.49338
1.48511
1.48342
1.48365
1.4883
1.54393
1.73032
1.94306
2.07427
2.09427
2.08831
2.063
2.03928
2.03298
2.03424
2.04728
2.06197
2.06182
2.05611
2.04461
2.03043
2.02307
2.02036
2.02054
2.0216
2.01884
2.01358
2.00711
2.00102
1.99793
1.99749
1.99884
1.99727
1.99258
1.9845
1
1
1
1
1
1
1
1
1
1
1
1
1
1
1
1
1
1
1
1
1
1
1
1
1
1
1
1
1
1
1
1
1
1
1
1
1
1
1
1
1
1
1
1
1
1
1
1
1
1
1
1
1
1
1
1
1
1
1
1
1
1
1
1
1
1
1
1
1
1
1.00029
1.00996
1.08382
1.28928
1.58016
1.67787
1.67965
1.67793
1.67338
1.65762
1.6541
1.6578
1.66642
1.66741
1.66464
1.66186
1.66158
1.66205
1.65867
1.65672
1.65758
1.65717
1.6544
1.65172
1.64977
1.64632
1.64195
1.64005
1.63871
1.63856
1.63963
1.63999
1.63839
1.63553
1.6328
1.63108
1.62956
1.62746
1.62344
1.61905
1.61609
1.61492
1.61474
1.61583
1.61757
1.61824
1.61851
1.61828
1.61539
1.61084
1.61184
1.61589
1.62309
1.63303
1.64272
1.64649
1.64715
1.64619
1.64254
1.63778
1.63475
1.63346
1.63272
1.63199
1.62988
1.62568
1.62141
1.6194
1.61907
1.62044
1.62152
1.62093
1.61947
1.61661
1.6107
1.60323
1.59856
1.59641
1.59544
1.59499
1.59452
1.59418
1.59435
1.59467
1.59451
1.5931
1.59024
1.58603
1.57957
1.57163
1.56746
1.56651
1.56645
1.56845
1.57184
1.57155
1.56808
1.56354
1.55641
1.54807
1.54358
1.54189
1.54157
1.54334
1.54458
1.54239
1.53836
1.5325
1.52792
1.52668
1.52669
1.5267
1.52615
1.52462
1.52077
1.51525
1.51271
1.51276
1.51601
1.52246
1.52389
1.52341
1.52101
1.51201
1.4947
1.48485
1.48361
1.48433
1.49989
1.60597
1.82442
2.01274
2.09184
2.09874
2.08576
2.0574
2.03891
2.03518
2.03863
2.05366
2.06453
2.06228
2.05588
2.04377
2.03112
2.02493
2.02267
2.02288
2.02283
2.01954
2.01442
2.00847
2.00334
2.00098
2.00125
2.00227
2.0001
1.99489
1.98626
1.97595
1
1
1
1
1
1
1
1
1
1
1
1
1
1
1
1
1
1
1
1
1
1
1
1
1
1
1
1
1
1
1
1
1
1
1
1
1
1
1
1
1
1
1
1
1
1
1
1
1
1
1
1
1
1
1
1
1
1
1
1
1
1
1
1
1
1
1
1
1
1
1
1.00008
1.00294
1.04648
1.28838
1.58964
1.66304
1.66305
1.66131
1.65331
1.6552
1.66586
1.67159
1.66875
1.66489
1.6629
1.66334
1.65996
1.65727
1.65804
1.65849
1.6565
1.65311
1.65081
1.64776
1.64351
1.64127
1.64115
1.64087
1.64131
1.64171
1.64036
1.63683
1.63362
1.63203
1.63077
1.62901
1.62566
1.62202
1.61939
1.61817
1.61807
1.61889
1.61965
1.61983
1.61985
1.61871
1.61478