/*--------------------------------*- C++ -*----------------------------------*\
  =========                 |
  \\      /  F ield         | OpenFOAM: The Open Source CFD Toolbox
   \\    /   O peration     | Website:  https://openfoam.org
    \\  /    A nd           | Version:  7
     \\/     M anipulation  |
\*---------------------------------------------------------------------------*/
FoamFile
{
    version     2.0;
    format      ascii;
    class       volScalarField;
    location    "1.5";
    object      T;
}
// * * * * * * * * * * * * * * * * * * * * * * * * * * * * * * * * * * * * * //

dimensions      [0 0 0 1 0 0 0];

internalField   nonuniform List<scalar> 
3328
(
1
1
1
1
1
1
1
1
1
1
1
1.83421
2.74668
2.77299
2.77372
2.7872
2.81099
2.83585
2.85045
2.8544
2.85688
2.87104
2.89651
2.91449
1
1
1
1
1
1
1
1
1
1
1
1.81066
2.73608
2.77265
2.77318
2.78597
2.8091
2.83339
2.84771
2.85135
2.85412
2.86823
2.89306
2.91063
1
1
1
1
1
1
1
1
1
1
1
1.74702
2.71229
2.7697
2.77
2.78236
2.80509
2.82918
2.84372
2.84728
2.85066
2.86479
2.88853
2.90546
1
1
1
1
1
1
1
1
1
1
1
1.65667
2.67639
2.76215
2.76277
2.77525
2.79808
2.82295
2.83868
2.84257
2.84642
2.85974
2.88145
2.89677
1
1
1
1
1
1
1
1
1
1
1
1.5337
2.62244
2.74749
2.75136
2.76552
2.78969
2.81598
2.83259
2.83562
2.83844
2.84987
2.86954
2.88486
1
1
1
1
1
1
1
1
1
1
1
1.36294
2.53428
2.72661
2.73794
2.75578
2.78129
2.80806
2.82519
2.82759
2.83012
2.83924
2.85393
2.86074
1
1
1
1
1
1
1
1
1
1
1
1.15745
2.42065
2.71112
2.73011
2.75085
2.77623
2.80079
2.81543
2.81553
2.81433
2.81572
2.82568
2.83227
1
1
1
1
1
1
1
1
1
1
1
1.00727
2.29457
2.69604
2.71799
2.7397
2.76593
2.78956
2.80234
2.80104
2.79637
2.79589
2.80876
2.83627
1
1
1
1
1
1
1
1
1
1
1
1.00003
2.13281
2.68677
2.70914
2.72892
2.75376
2.77528
2.78641
2.78437
2.77433
2.76233
2.74422
2.74589
1
1
1
1
1
1
1
1
1
1
1
1
1.90148
2.64462
2.68973
2.71111
2.73423
2.75458
2.76581
2.7641
2.75141
2.73084
2.71066
2.70976
1
1
1
1
1
1
1
1
1
1
1
1
1.5406
2.53341
2.66787
2.68549
2.70478
2.7241
2.73689
2.73696
2.72689
2.70395
2.6818
2.66615
1
1
1
1
1
1
1
1
1
1
1
1
1.10117
2.37322
2.66259
2.66381
2.67439
2.69103
2.70444
2.70727
2.70112
2.6831
2.66315
2.64308
1
1
1
1
1
1
1
1
1
1
1
1
1.00198
2.17991
2.62369
2.63919
2.6531
2.66428
2.6749
2.67944
2.67659
2.66511
2.64865
2.62875
1
1
1
1
1
1
1
1
1
1
1
1
0.999998
1.82493
2.55243
2.62232
2.63724
2.64389
2.64978
2.6539
2.65324
2.64752
2.63681
2.62171
1
1
1
1
1
1
1
1
1
1
1
1
1
1.31187
2.41772
2.61582
2.61636
2.62006
2.62448
2.62906
2.63186
2.63029
2.62545
2.61511
1
1
1
1
1
1
1
1
1
1
1
1
1
1.0211
2.2362
2.5778
2.58635
2.59097
2.59775
2.60471
2.61053
2.61323
2.6122
2.60712
1
1
1
1
1
1
1
1
1
1
1
1
1
1.00008
1.8257
2.4954
2.56412
2.57255
2.57852
2.58487
2.59138
2.59645
2.59845
2.59712
1
1
1
1
1
1
1
1
1
1
1
1
1
1
1.2183
2.33773
2.5523
2.55077
2.55658
2.56297
2.56987
2.57665
2.58173
2.58338
1
1
1
1
1
1
1
1
1
1
1
1
1
1
1.0093
2.10134
2.50237
2.52592
2.53581
2.54144
2.54785
2.55554
2.56286
2.56719
1
1
1
1
1
1
1
1
1
1
1
1
1
1
1.00001
1.56789
2.40097
2.51593
2.5158
2.51955
2.52544
2.53289
2.54096
2.54727
1
1
1
1
1
1
1
1
1
1
1
1
1
1
0.999999
1.07386
2.22127
2.4972
2.49307
2.49799
2.504
2.51147
2.51952
2.52592
1
1
1
1
1
1
1
1
1
1
1
1
1
1
1
1.00096
1.78698
2.42056
2.47499
2.48474
2.48859
2.49267
2.4982
2.50373
1
1
1
1
1
1
1
1
1
1
1
1
1
1
1
1
1.16293
2.25545
2.47032
2.46905
2.47159
2.47444
2.47792
2.48205
1
1
1
1
1
1
1
1
1
1
1
1
1
1
1
1
1.00504
1.89664
2.4071
2.44262
2.45128
2.45577
2.45868
2.46161
1
1
1
1
1
1
1
1
1
1
1
1
1
1
1
1
1.00001
1.23896
2.25312
2.43737
2.43482
2.43703
2.43982
2.44136
1
1
1
1
1
1
1
1
1
1
1
1
1
1
1
1
1
1.01101
1.91756
2.37923
2.41206
2.4193
2.42142
2.42122
1
1
1
1
1
1
1
1
1
1
1
1
1
1
1
1
1
1.00003
1.26315
2.22655
2.40953
2.40618
2.40456
2.40168
1
1
1
1
1
1
1
1
1
1
1
1
1
1
1
1
1
1
1.013
1.87077
2.34806
2.38773
2.3844
2.38036
1
1
1
1
1
1
1
1
1
1
1
1
1
1
1
1
1
1
1.00005
1.23307
2.18814
2.37599
2.37111
2.38599
1
1
1
1
1
1
1
1
1
1
1
1
1
1
1
1
1
1
1
1.00974
1.73551
2.27391
2.40071
2.51211
1
1
1
1
1
1
1
1
1
1
1
1
1
1
1
1
1
1
1
1.00004
1.15116
2.15673
2.6574
2.71903
1
1
1
1
1
1
1
1
1
1
1
1
1
1
1
1
1
1
1
1
1.00468
2.38485
2.97379
2.87895
1
1
1
1
1
1
1
1
1
1
1
1
1
1
1
1
1
1
1
1
1.11904
2.61955
3.11639
2.98715
1
1
1
1
1
1
1
1
1
1
1
1
1
1
1
1
1
1
1
1
1.54435
2.80509
3.15645
3.08678
1
1
1
1
1
1
1
1
1
1
1
1
1
1
1
1
1
1
1
1
1.63527
2.85529
3.14636
3.1317
1
1
1
1
1
1
1
1
1
1
1
1
1
1
1
1
1
1
1
1
1.64194
2.84247
3.11877
3.13013
1
1
1
1
1
1
1
1
1
1
1
1
1
1
1
1
1
1
1
1
1.6121
2.80505
3.08285
3.12438
1
1
1
1
1
1
1
1
1
1
1
1
1
1
1
1
1
1
1
1
1.57269
2.77038
3.05349
3.1016
1
1
1
1
1
1
1
1
1
1
1
1
1
1
1
1
1
1
1
1
1.56247
2.76076
3.04086
3.07819
1
1
1
1
1
1
1
1
1
1
1
1
1
1
1
1
1
1
1
1
1.56622
2.7631
3.04287
3.07125
2.63067
2.81192
2.98605
3.12772
3.20695
3.24531
3.2575
3.2594
2.76444
2.88822
2.99454
3.12079
3.19736
3.23884
3.25291
3.25456
2.70797
2.80919
2.92084
3.06229
3.1601
3.22055
3.23978
3.2422
2.66446
2.73387
2.83609
2.98062
3.10101
3.18474
3.21141
3.22463
2.63415
2.66532
2.73057
2.85159
2.9884
3.10778
3.16318
3.1896
2.61711
2.62726
2.6592
2.74205
2.86625
3.01099
3.11088
3.15088
2.60629
2.60602
2.61491
2.65822
2.74462
2.87757
3.02337
3.11068
2.59961
2.5939
2.59534
2.61194
2.65602
2.75485
2.92573
3.11231
2.59205
2.58563
2.58182
2.58483
2.59906
2.64681
2.73496
2.78482
2.58131
2.57602
2.56908
2.56278
2.55767
2.56351
2.57047
2.52564
2.56717
2.56424
2.55611
2.54326
2.52574
2.50366
2.46763
2.38229
2.54851
2.54675
2.53929
2.52339
2.50032
2.46307
2.40638
2.31275
2.5272
2.52611
2.52021
2.50532
2.47966
2.43649
2.37462
2.28429
2.50502
2.50399
2.49867
2.48444
2.4592
2.41652
2.35649
2.27633
2.48272
2.48063
2.47471
2.46156
2.43844
2.40042
2.34592
2.27355
2.46165
2.45882
2.45157
2.43798
2.41581
2.38206
2.33379
2.27055
2.44064
2.43709
2.42837
2.41371
2.39176
2.36093
2.31937
2.27003
2.41956
2.41503
2.4062
2.39238
2.3736
2.35585
2.33879
2.32367
2.39817
2.39259
2.38698
2.38823
2.40202
2.43157
2.4712
2.49038
2.38397
2.4007
2.44027
2.4996
2.55733
2.59013
2.61282
2.59286
2.43623
2.52659
2.60653
2.64375
2.65561
2.64094
2.61797
2.58696
2.61926
2.67053
2.68758
2.68013
2.65936
2.63169
2.60397
2.57663
2.73057
2.70738
2.67633
2.65746
2.63684
2.61443
2.59355
2.57503
2.76747
2.70874
2.66878
2.63457
2.61081
2.59474
2.58514
2.57436
2.84031
2.74628
2.68648
2.64258
2.61335
2.59698
2.58596
2.57336
2.98028
2.88061
2.79767
2.72674
2.67073
2.63469
2.60857
2.58652
3.09113
3.0295
2.9471
2.86153
2.78112
2.71792
2.67121
2.63363
3.11914
3.09696
3.04927
2.98795
2.91581
2.84709
2.78429
2.72752
3.12065
3.11626
3.10203
3.07395
3.03316
2.98509
2.93142
2.87613
3.11176
3.12067
3.11963
3.11671
3.10188
3.0779
3.04606
3.00659
3.09609
3.11401
3.1295
3.13213
3.12587
3.11298
3.09248
3.06677
3.09006
3.10868
3.12531
3.12783
3.11616
3.10559
3.09029
3.07515
2.07141
1.67925
1.48236
1.48031
1.54399
1.60699
1.66217
1.73498
1.83148
1.84123
1.82966
1.81342
1.80868
1.8054
1.81406
1.8988
2.21325
3.02903
3.30832
3.26484
3.19553
3.15045
3.11999
3.08862
3.05934
3.02477
2.99689
2.97291
2.95078
2.93953
2.93724
2.91655
2.88448
2.84552
2.80668
2.78178
2.76519
2.76361
2.75274
2.72847
2.70092
2.66567
2.63805
2.61877
2.60344
2.59302
2.5738
2.55079
2.5234
2.48752
2.45687
2.43573
2.41764
2.40322
2.38766
2.37273
2.35559
2.33126
2.30829
2.29692
2.28987
2.28311
2.27529
2.26435
2.24469
2.21026
2.18345
2.17131
2.16275
2.15662
2.15376
2.1512
2.14819
2.14153
2.12003
2.08484
2.06792
2.06263
2.05985
2.05884
2.06098
2.06539
2.06938
2.07346
2.07368
2.05633
2.01641
1.99334
2.1691
1.98837
1.85737
1.70857
1.66452
1.61625
1.59575
1.60598
1.63178
1.64434
1.65072
1.66491
1.68144
1.71092
1.80489
2.0703
2.201
2.43643
2.85045
2.99177
3.01245
3.00014
2.9798
2.96213
2.95946
2.94568
2.92895
2.90681
2.88529
2.8695
2.86517
2.85873
2.83728
2.81124
2.77683
2.7471
2.72854
2.71782
2.70878
2.69119
2.67147
2.64534
2.61506
2.59373
2.57635
2.56263
2.5481
2.52795
2.5051
2.47719
2.44584
2.42073
2.40186
2.38565
2.37135
2.35704
2.34159
2.32142
2.29832
2.2822
2.27253
2.2655
2.25902
2.25055
2.23566
2.21005
2.18099
2.16345
2.15309
2.14534
2.13985
2.13669
2.13437
2.12932
2.11492
2.08952
2.06669
2.05585
2.05122
2.04974
2.04984
2.05302
2.0592
2.06329
2.06333
2.05352
2.02509
1.99467
2.15445
1.9882
1.86438
1.75133
1.66889
1.60446
1.54464
1.50271
1.50013
1.50143
1.5141
1.54024
1.5886
1.70164
1.90484
2.10927
2.13965
2.10142
2.22056
2.47725
2.68115
2.75233
2.78474
2.79784
2.79904
2.78868
2.77962
2.76672
2.74598
2.72893
2.7152
2.71257
2.70761
2.69601
2.67965
2.65685
2.63593
2.62096
2.60775
2.59582
2.58386
2.57035
2.5507
2.52691
2.50685
2.48895
2.47165
2.45465
2.43814
2.42148
2.40259
2.37929
2.3553
2.33734
2.32315
2.30983
2.29668
2.28285
2.26704
2.25001
2.23562
2.22512
2.21577
2.20498
2.19204
2.1771
2.15842
2.13832
2.12217
2.11111
2.10343
2.09795
2.09263
2.08522
2.07579
2.06433
2.05276
2.04061
2.02961
2.02346
2.02333
2.02399
2.02422
2.02342
2.02133
2.0179
2.00968
1.98968
2.14568
2.01177
1.90098
1.79586
1.71172
1.64165
1.58359
1.53236
1.51857
1.48377
1.47796
1.50083
1.60699
1.81906
1.95158
2.01634
2.00157
1.96283
1.94377
2.00581
2.20595
2.38669
2.51593
2.58357
2.62959
2.63656
2.63015
2.61511
2.58759
2.57079
2.5604
2.55836
2.55928
2.55548
2.54739
2.53182
2.51072
2.49498
2.48429
2.47529
2.4668
2.45749
2.4446
2.42486
2.40406
2.38803
2.37311
2.35849
2.34586
2.33461
2.32264
2.30717
2.28571
2.26312
2.2467
2.23378
2.22217
2.21194
2.20234
2.19184
2.17889
2.16349
2.14848
2.13667
2.12707
2.1163
2.10263
2.08568
2.06718
2.05232
2.04176
2.03257
2.02349
2.01499
2.0093
2.00708
2.00524
2.00116
1.99212
1.98063
1.97522
1.97252
1.9701
1.96728
1.96405
1.96198
1.96176
1.95645
2.15175
2.03745
1.93551
1.83692
1.75509
1.69339
1.62133
1.55153
1.52506
1.50471
1.53874
1.64269
1.8113
1.94039
1.95173
1.93128
1.90382
1.8784
1.87212
1.87399
1.89412
1.99779
2.18413
2.34571
2.43693
2.48672
2.49661
2.51124
2.49878
2.47925
2.465
2.4532
2.44627
2.44015
2.43406
2.42176
2.40203
2.38691
2.3782
2.37127
2.36384
2.35528
2.34437
2.32756
2.30564
2.28741
2.27473
2.26454
2.25523
2.24646
2.23778
2.22752
2.2122
2.19023
2.16796
2.1509
2.13777
2.1273
2.119
2.11155
2.10288
2.09124
2.07706
2.0658
2.05719
2.04687
2.03407
2.01864
1.99969
1.97989
1.96409
1.9513
1.94109
1.93579
1.93463
1.93504
1.93564
1.93538
1.93171
1.92188
1.91111
1.90487
1.90126
1.89765
1.89513
1.89531
1.8985
1.89825
2.16504
2.06209
1.97214
1.88264
1.79652
1.7304
1.67365
1.61659
1.60638
1.66199
1.79111
1.87353
1.95941
1.95756
1.93356
1.90001
1.87543
1.85677
1.85369
1.85406
1.85447
1.85071
1.87335
1.98115
2.13551
2.28087
2.34777
2.39633
2.40913
2.41192
2.40977
2.39755
2.38392
2.37126
2.35796
2.34276
2.32747
2.31484
2.30441
2.29581
2.28844
2.27926
2.26734
2.25287
2.23564
2.21741
2.20117
2.18913
2.17976
2.17125
2.16312
2.15454
2.14338
2.1272
2.107
2.08718
2.07033
2.05677
2.04662
2.03868
2.03104
2.02245
2.01242
2.00164
1.99149
1.98081
1.96838
1.95354
1.93426
1.91
1.88864
1.87536
1.86808
1.86558
1.86507
1.86479
1.86437
1.86353
1.8611
1.85403
1.84097
1.82938
1.82353
1.82059
1.82051
1.82318
1.82852
1.82952
2.18018
2.08792
2.00169
1.91698
1.84598
1.78406
1.75067
1.76889
1.82947
1.94218
2.0047
2.00799
1.99522
1.96743
1.93934
1.91795
1.90081
1.8821
1.86589
1.85265
1.84021
1.83142
1.82628
1.81875
1.83201
1.91561
2.05713
2.19386
2.28426
2.32117
2.34249
2.33753
2.33273
2.32692
2.31252
2.2978
2.28479
2.27099
2.25883
2.24541
2.23267
2.22105
2.20895
2.19702
2.1849
2.172
2.15733
2.14053
2.12557
2.11393
2.10401
2.09495
2.08525
2.07312
2.05852
2.04257
2.02586
2.00912
1.99412
1.98284
1.97455
1.96748
1.96007
1.95087
1.93983
1.92726
1.91315
1.89712
1.87714
1.85202
1.83149
1.82187
1.81621
1.81224
1.80952
1.80707
1.80451
1.80165
1.79796
1.79144
1.77712
1.76103
1.75398
1.75244
1.7528
1.75475
1.75814
1.75807
2.19274
2.10921
2.03719
1.97667
1.92129
1.92742
1.97975
2.01575
2.06573
2.10816
2.09741
2.06574
2.02068
1.98682
1.96624
1.95261
1.93486
1.91201
1.88743
1.86738
1.85156
1.83515
1.82052
1.80644
1.79757
1.78254
1.78811
1.84996
1.98659
2.10693
2.20864
2.24526
2.26112
2.2642
2.26146
2.26293
2.25355
2.24128
2.22861
2.21303
2.19362
2.17518
2.16083
2.15054
2.1427
2.13452
2.12342
2.10778
2.0901
2.07427
2.06052
2.04788
2.03658
2.02683
2.01727
2.00655
1.9944
1.98012
1.96366
1.94701
1.93347
1.92412
1.91638
1.90774
1.89823
1.88708
1.87316
1.85585
1.83526
1.81276
1.79562
1.78607
1.77963
1.77404
1.76947
1.7655
1.76168
1.7579
1.75268
1.74209
1.72183
1.70571
1.70077
1.69944
1.69945
1.69963
1.69941
1.69633
2.21415
2.15855
2.12289
2.13124
2.14298
2.1744
2.20763
2.18622
2.17419
2.16081
2.12408
2.08317
2.04443
2.02056
2.00563
1.99004
1.96938
1.94257
1.91349
1.88664
1.86953
1.85272
1.83431
1.81609
1.79694
1.77737
1.75756
1.744
1.74333
1.77798
1.87986
2.00562
2.09844
2.15433
2.17425
2.19235
2.20448
2.20624
2.19788
2.18307
2.16428
2.14383
2.12518
2.11268
2.10338
2.09471
2.08669
2.07567
2.06033
2.04451
2.02983
2.01539
2.00111
1.98754
1.97799
1.97139
1.96398
1.9539
1.94183
1.92785
1.91146
1.89497
1.88273
1.87501
1.86685
1.85657
1.84282
1.82666
1.80941
1.79322
1.77796
1.76284
1.75215
1.74629
1.74234
1.74019
1.73637
1.72778
1.71316
1.6926
1.67271
1.66317
1.66013
1.6582
1.65725
1.65666
1.65546
1.65073
2.32272
2.32824
2.3406
2.34824
2.32207
2.30944
2.28538
2.25051
2.21696
2.18471
2.14932
2.10801
2.0759
2.05919
2.04286
2.02498
2.00528
1.9778
1.94101
1.90953
1.88585
1.86641
1.84742
1.82853
1.80815
1.78531
1.76167
1.73931
1.72055
1.70949
1.69997
1.7142
1.77278
1.87692
1.97691
2.06412
2.1069
2.12611
2.13734
2.13665
2.13163
2.117
2.09883
2.08559
2.07353
2.06082
2.04953
2.03807
2.02492
2.01191
1.99947
1.9871
1.9752
1.96296
1.9496
1.93736
1.9286
1.92178
1.91497
1.90514
1.89205
1.87674
1.85836
1.83972
1.82618
1.81701
1.80969
1.80107
1.7905
1.77929
1.76607
1.7508
1.73846
1.73169
1.72658
1.71868
1.70648
1.69185
1.67561
1.6582
1.64222
1.63272
1.62856
1.62493
1.62215
1.62081
1.62045
1.61795
2.49848
2.48944
2.47813
2.45019
2.4112
2.37122
2.32339
2.2814
2.24965
2.21728
2.18278
2.14311
2.11134
2.09446
2.07647
2.05562
2.03346
2.00615
1.96965
1.9329
1.90519
1.88249
1.86106
1.83933
1.81692
1.7932
1.77016
1.7483
1.72805
1.70953
1.68963
1.67448
1.65688
1.64595
1.67653
1.76165
1.87355
1.9607
2.03199
2.05008
2.06195
2.06318
2.06482
2.0612
2.04812
2.03491
2.0214
2.00657
1.98848
1.97061
1.95797
1.95112
1.94556
1.93751
1.92643
1.91356
1.90181
1.8909
1.88081
1.87442
1.86893
1.85794
1.83751
1.81426
1.79935
1.79094
1.78431
1.77807
1.77091
1.76237
1.75253
1.7417
1.72977
1.71519
1.69889
1.68503
1.67231
1.65918
1.64731
1.63691
1.62604
1.61388
1.60356
1.59868
1.59755
1.59626
1.59633
1.59408
2.55826
2.52463
2.49461
2.46551
2.43365
2.39839
2.35605
2.31444
2.28155
2.25121
2.21506
2.17297
2.13936
2.11803
2.0998
2.07829
2.05305
2.02583
1.99474
1.95913
1.92562
1.89816
1.87377
1.85016
1.82638
1.8023
1.77853
1.75532
1.73328
1.71244
1.69123
1.66851
1.64528
1.62497
1.60547
1.5919
1.6079
1.66344
1.76517
1.86142
1.9402
1.9707
1.98627
1.99649
2.00286
2.00162
1.9949
1.97875
1.95951
1.94182
1.92716
1.91427
1.90723
1.90317
1.89725
1.88674
1.87625
1.86633
1.8563
1.84575
1.83306
1.82068
1.8089
1.79274
1.77934
1.77204
1.76641
1.75996
1.75129
1.74286
1.737
1.73127
1.71994
1.70063
1.67883
1.66204
1.64815
1.63503
1.62465
1.61731
1.60955
1.6009
1.59249
1.58419
1.5791
1.57738
1.57676
1.57315
2.5566
2.52443
2.49149
2.46273
2.44039
2.41541
2.38006
2.33994
2.30462
2.27232
2.2376
2.19911
2.1612
2.13327
2.11326
2.09392
2.07115
2.04511
2.01554
1.98106
1.94408
1.91148
1.88435
1.8596
1.83526
1.81084
1.78693
1.76426
1.74245
1.7205
1.69824
1.67492
1.65071
1.62523
1.60064
1.57659
1.56399
1.55546
1.55819
1.59118
1.66778
1.76326
1.83918
1.89522
1.91748
1.93566
1.93799
1.93684
1.93513
1.92693
1.91134
1.89491
1.87893
1.8615
1.85233
1.85238
1.85065
1.84442
1.83376
1.82045
1.80518
1.79026
1.77577
1.76531
1.75841
1.75185
1.74499
1.7387
1.73203
1.7254
1.71761
1.70552
1.69078
1.67429
1.65891
1.64477
1.63115
1.61996
1.61156
1.6035
1.5967
1.59121
1.58461
1.57106
1.5635
1.56366
1.5629
1.5583
2.55298
2.52666
2.4955
2.46761
2.4476
2.42706
2.39663
2.35898
2.32365
2.29168
2.25864
2.22078
2.1802
2.15018
2.12665
2.10519
2.0832
2.05794
2.02956
1.99731
1.96161
1.92684
1.89692
1.87071
1.84578
1.82075
1.7954
1.77045
1.74709
1.72506
1.70305
1.6807
1.6577
1.6326
1.60621
1.58073
1.55988
1.54448
1.53535
1.52835
1.52254
1.53461
1.57784
1.65547
1.74466
1.81748
1.84937
1.86267
1.87941
1.88758
1.88431
1.87705
1.8609
1.83969
1.82485
1.81671
1.81089
1.80838
1.80626
1.79829
1.7835
1.76727
1.75532
1.74518
1.73496
1.72777
1.72435
1.7208
1.71577
1.70871
1.69833
1.68308
1.66165
1.64673
1.63726
1.6268
1.61822
1.61211
1.60532
1.59706
1.58729
1.57798
1.56901
1.55707
1.54695
1.53914
1.53502
1.5296
2.55637
2.53393
2.50502
2.47583
2.45241
2.43105
2.4053
2.37394
2.34188
2.31303
2.28263
2.24601
2.20283
2.16769
2.14257
2.11768
2.09121
2.06422
2.0363
2.00663
1.97481
1.94155
1.90929
1.88018
1.85386
1.82879
1.80372
1.77829
1.75298
1.72866
1.70538
1.68291
1.66082
1.63886
1.61623
1.59308
1.57092
1.55131
1.53531
1.52274
1.50856
1.49937
1.48881
1.48884
1.51332
1.57309
1.65662
1.7313
1.78694
1.81656
1.82602
1.83348
1.83146
1.82625
1.81463
1.79864
1.78735
1.78075
1.77363
1.76445
1.75633
1.7508
1.74283
1.72927
1.71728
1.70724
1.69732
1.68885
1.68317
1.67888
1.67366
1.6614
1.63856
1.62141
1.61634
1.61411
1.61369
1.61147
1.60479
1.59576
1.5817
1.56433
1.5511
1.54456
1.53602
1.52535
1.51607
1.50559
2.55943
2.53792
2.508
2.47641
2.45155
2.43086
2.41002
2.38556
2.35738
2.33014
2.30167
2.26743
2.2255
2.18605
2.15488
2.12638
2.09819
2.06949
2.04075
2.01229
1.98335
1.95287
1.92116
1.88992
1.8611
1.83516
1.81094
1.78703
1.76278
1.73879
1.71597
1.69338
1.66971
1.64572
1.62317
1.60444
1.58907
1.57209
1.55403
1.53736
1.51833
1.4993
1.48365
1.47497
1.46913
1.46529
1.47297
1.51245
1.57628
1.65695
1.71089
1.75601
1.78061
1.78801
1.78614
1.7803
1.77354
1.76706
1.75751
1.74783
1.73986
1.72859
1.71498
1.70979
1.70299
1.69105
1.67596
1.66685
1.66117
1.65288
1.64321
1.63246
1.61748
1.60655
1.60171
1.59893
1.59683
1.59247
1.5861
1.57853
1.5695
1.5535
1.53586
1.52312
1.51465
1.50563
1.49663
1.48621
2.5565
2.53346
2.50345
2.47216
2.44784
2.42927
2.41006
2.38987
2.36517
2.33836
2.31059
2.27794
2.239
2.19764
2.16341
2.13346
2.10418
2.07485
2.04549
2.01635
1.98771
1.95946
1.93067
1.90091
1.87123
1.84346
1.81885
1.79667
1.77475
1.75191
1.72919
1.70706
1.68389
1.65946
1.63769
1.61787
1.59929
1.59049
1.58125
1.56576
1.54609
1.52061
1.49922
1.48934
1.48054
1.46346
1.45152
1.44379
1.43844
1.45332
1.49895
1.56573
1.64406
1.70312
1.73908
1.73966
1.73908
1.73655
1.73681
1.73743
1.73314
1.72082
1.70207
1.68138
1.67003
1.66775
1.66388
1.65738
1.64842
1.63541
1.61974
1.60767
1.60123
1.59671
1.59094
1.5861
1.58182
1.57673
1.57048
1.5619
1.54922
1.53582
1.52387
1.50959
1.49606
1.48752
1.4819
1.47466
2.5642
2.53779
2.50445
2.47285
2.44779
2.42657
2.40515
2.38799
2.3682
2.34163
2.31341
2.28166
2.24594
2.20697
2.16967
2.13838
2.11149
2.08544
2.0578
2.02843
1.99846
1.96879
1.94064
1.91435
1.88825
1.86106
1.83418
1.81057
1.7911
1.77332
1.7542
1.7318
1.70761
1.68733
1.66904
1.64924
1.63002
1.6102
1.59018
1.57143
1.55648
1.54547
1.53176
1.51228
1.49057
1.46981
1.45436
1.4406
1.42799
1.41851
1.40645
1.40993
1.44189
1.50063
1.56945
1.63384
1.68025
1.68457
1.69283
1.70313
1.71034
1.70861
1.69879
1.67751
1.65421
1.64231
1.63764
1.63302
1.62736
1.61875
1.60446
1.59361
1.58783
1.58234
1.57489
1.56438
1.55763
1.55382
1.54936
1.54286
1.53381
1.52354
1.5109
1.49652
1.48391
1.4725
1.46386
1.45584
2.60156
2.56337
2.52726
2.49329
2.46502
2.43902
2.41377
2.39391
2.37671
2.3504
2.32064
2.28844
2.25329
2.21765
2.18356
2.15256
2.12421
2.09731
2.07006
2.0423
2.01466
1.98805
1.96244
1.93636
1.90946
1.88294
1.8587
1.83734
1.81749
1.79742
1.77623
1.75409
1.73194
1.70906
1.68354
1.66102
1.6444
1.62837
1.61017
1.59345
1.57922
1.5633
1.54467
1.5235
1.50181
1.48262
1.46631
1.45029
1.43441
1.42079
1.40771
1.39701
1.3885
1.38343
1.3928
1.4252
1.4829
1.54701
1.60263
1.63442
1.65857
1.67469
1.67572
1.66973
1.65041
1.63362
1.62542
1.61811
1.61045
1.60223
1.5928
1.58297
1.57722
1.57195
1.56399
1.55185
1.53765
1.53421
1.53258
1.52905
1.52261
1.51353
1.50071
1.48585
1.47202
1.46028
1.45127
1.44331
2.6786
2.63545
2.59218
2.54897
2.51133
2.47809
2.44907
2.42418
2.40386
2.38217
2.35476
2.32442
2.29101
2.25633
2.22288
2.19135
2.16145
2.13248
2.10554
2.08074
2.05719
2.03334
2.00771
1.9801
1.95181
1.92553
1.90162
1.87889
1.85631
1.83385
1.8118
1.78981
1.76621
1.73812
1.70694
1.67948
1.66175
1.65011
1.63745
1.62096
1.60171
1.58019
1.55891
1.53942
1.52118
1.504
1.48518
1.46221
1.44094
1.425
1.4138
1.40186
1.38711
1.37258
1.36191
1.35289
1.35015
1.36518
1.40504
1.46711
1.53029
1.5788
1.6123
1.63057
1.62547
1.61789
1.61123
1.60391
1.59927
1.59413
1.58474
1.57217
1.55969
1.55414
1.55242
1.54492
1.52811
1.51193
1.50591
1.50292
1.49954
1.49538
1.48967
1.48111
1.46924
1.45495
1.44556
1.44221
2.8196
2.76417
2.7053
2.65058
2.60182
2.55873
2.52017
2.48408
2.45388
2.42762
2.39819
2.36777
2.33405
2.29801
2.2637
2.23128
2.20086
2.17273
2.14603
2.11966
2.09265
2.06448
2.03507
2.0046
1.97445
1.94618
1.92031
1.89582
1.87173
1.84784
1.82424
1.80064
1.77649
1.75158
1.7261
1.70216
1.68006
1.65769
1.63666
1.61756
1.5982
1.57804
1.55701
1.53592
1.51642
1.49872
1.48257
1.46499
1.44743
1.4333
1.41917
1.40241
1.38675
1.37125
1.35818
1.34381
1.33104
1.31816
1.30953
1.31594
1.33976
1.39449
1.45512
1.50746
1.54308
1.57057
1.57803
1.57455
1.57128
1.57058
1.5717
1.56791
1.55727
1.54471
1.53122
1.52146
1.51123
1.49973
1.49298
1.49139
1.48969
1.48702
1.48718
1.48659
1.48065
1.47785
1.48447
1.5206
2.95811
2.90171
2.83824
2.77433
2.71588
2.66448
2.61745
2.574
2.53662
2.5037
2.4691
2.43439
2.39724
2.35798
2.3207
2.2858
2.25328
2.22307
2.19421
2.16544
2.13575
2.10449
2.07152
2.0378
2.00524
1.97519
1.94751
1.92142
1.89637
1.87192
1.84726
1.82149
1.7945
1.76754
1.74237
1.71923
1.69607
1.67222
1.64954
1.62847
1.60764
1.58643
1.56517
1.54466
1.52474
1.50441
1.48624
1.47406
1.46088
1.44488
1.42727
1.40893
1.39203
1.37647
1.36171
1.34536
1.3295
1.31444
1.30437
1.29694
1.29035
1.28756
1.29655
1.32137
1.36425
1.41309
1.45985
1.50762
1.51872
1.52631
1.53963
1.5464
1.5456
1.53782
1.52192
1.50937
1.50443
1.50091
1.5018
1.5069
1.51838
1.53851
1.56333
1.58366
1.59948
1.62195
1.64896
1.69955
3.033
2.98699
2.93236
2.8706
2.80976
2.75216
2.69779
2.64883
2.60573
2.56569
2.52408
2.48403
2.44392
2.40328
2.36438
2.32728
2.29209
2.25871
2.2267
2.19524
2.16344
2.1304
2.09573
2.06025
2.02598
1.99453
1.96591
1.93927
1.91363
1.88789
1.86105
1.83295
1.80472
1.77827
1.75445
1.73215
1.70971
1.68619
1.6615
1.63656
1.61314
1.59235
1.57366
1.55547
1.53627
1.51595
1.49485
1.47213
1.45192
1.43504
1.4228
1.41384
1.40351
1.3894
1.37299
1.35668
1.33851
1.32287
1.31084
1.3006
1.29058
1.27776
1.26703
1.25542
1.25041
1.25903
1.28642
1.33467
1.38835
1.43598
1.47301
1.4985
1.51905
1.52771
1.53833
1.55112
1.56965
1.58922
1.61432
1.6373
1.66163
1.68826
1.70123
1.70588
1.71238
1.72123
1.72902
1.73675
3.05306
3.01856
2.97327
2.91761
2.85946
2.80259
2.7479
2.69694
2.64947
2.60311
2.55759
2.51496
2.47226
2.42754
2.38459
2.34487
2.30783
2.27265
2.23883
2.20586
2.17308
2.13958
2.10464
2.06851
2.03321
2.00103
1.97219
1.94544
1.91939
1.89284
1.86493
1.83575
1.80704
1.78107
1.75823
1.73721
1.71628
1.69361
1.66784
1.63979
1.61356
1.59221
1.57488
1.55949
1.54429
1.52654
1.50186
1.47265
1.44963
1.43435
1.42235
1.41155
1.40225
1.39226
1.37742
1.35341
1.32667
1.30977
1.29869
1.28883
1.27881
1.26686
1.25284
1.23739
1.22199
1.21475
1.21119
1.21674
1.23812
1.28033
1.35307
1.42814
1.50346
1.56658
1.61306
1.65745
1.70252
1.74387
1.78068
1.81451
1.84644
1.86229
1.8637
1.86156
1.86154
1.85673
1.84875
1.8295
)
;

boundaryField
{
    inlet
    {
        type            fixedValue;
        value           uniform 1;
    }
    outlet
    {
        type            inletOutlet;
        inletValue      uniform 1;
        value           nonuniform List<scalar> 
24
(
1.99464
1.99433
1.98811
1.9567
1.89964
1.83111
1.75939
1.69679
1.65098
1.61893
1.59564
1.57471
1.55907
1.53008
1.50528
1.48601
1.47501
1.45631
1.44365
1.44202
1.51569
1.69428
1.73634
1.83166
)
;
    }
    bottom
    {
        type            zeroGradient;
    }
    top
    {
        type            zeroGradient;
    }
    obstacle
    {
        type            zeroGradient;
    }
    defaultFaces
    {
        type            empty;
    }
}


// ************************************************************************* //
