/*--------------------------------*- C++ -*----------------------------------*\
  =========                 |
  \\      /  F ield         | OpenFOAM: The Open Source CFD Toolbox
   \\    /   O peration     | Website:  https://openfoam.org
    \\  /    A nd           | Version:  7
     \\/     M anipulation  |
\*---------------------------------------------------------------------------*/
FoamFile
{
    version     2.0;
    format      ascii;
    class       volVectorField;
    location    "1.5";
    object      U;
}
// * * * * * * * * * * * * * * * * * * * * * * * * * * * * * * * * * * * * * //

dimensions      [0 1 -1 0 0 0 0];

internalField   nonuniform List<vector> 
3328
(
(3 1.5954e-17 0)
(3 8.91249e-20 0)
(3 -4.89543e-19 0)
(3 2.6229e-16 0)
(3 4.69399e-16 0)
(3 2.41265e-16 0)
(3 5.24555e-17 0)
(3 5.93176e-17 0)
(3 -3.03313e-16 0)
(3 -3.24175e-16 0)
(3 -2.49293e-16 0)
(1.9473 0.0111723 0)
(0.771068 0.0106932 0)
(0.656591 0.023398 0)
(0.599146 0.0287008 0)
(0.534274 0.0298186 0)
(0.474889 0.0273021 0)
(0.42332 0.0246721 0)
(0.375015 0.0243239 0)
(0.323625 0.0254718 0)
(0.266809 0.0300323 0)
(0.199101 0.0337372 0)
(0.12331 0.0368203 0)
(0.045782 0.040959 0)
(3 -2.77189e-17 0)
(3 -6.46041e-17 0)
(3 -1.19594e-16 0)
(3 4.46518e-17 0)
(3 2.06907e-16 0)
(3 1.01098e-16 0)
(3 -8.22338e-17 0)
(3 -3.2888e-16 0)
(3 -8.55727e-16 0)
(3 -1.2409e-15 0)
(3 -1.47399e-15 0)
(1.98224 0.0562552 0)
(0.76389 0.0535624 0)
(0.639217 0.0715536 0)
(0.579341 0.0819305 0)
(0.515762 0.0840801 0)
(0.459441 0.0781907 0)
(0.410518 0.0730044 0)
(0.363661 0.0738686 0)
(0.312841 0.0779442 0)
(0.25786 0.0914873 0)
(0.191772 0.10331 0)
(0.11827 0.113249 0)
(0.044107 0.125845 0)
(3 6.11257e-17 0)
(3 1.74952e-16 0)
(3 9.89114e-17 0)
(3 -3.45593e-17 0)
(3 2.42042e-17 0)
(3 3.6554e-16 0)
(3 1.2529e-16 0)
(3 -2.64212e-16 0)
(3 -8.43873e-16 0)
(3 -1.51529e-15 0)
(3 -1.6955e-15 0)
(2.09558 0.0979695 0)
(0.781204 0.0994309 0)
(0.643759 0.127747 0)
(0.578838 0.141275 0)
(0.51436 0.140281 0)
(0.460359 0.129255 0)
(0.413124 0.121668 0)
(0.366372 0.124565 0)
(0.313497 0.13132 0)
(0.257116 0.152234 0)
(0.189202 0.17135 0)
(0.115277 0.187077 0)
(0.0428104 0.206946 0)
(3 8.78037e-17 0)
(3 2.08766e-16 0)
(3 4.15255e-16 0)
(3 4.53072e-16 0)
(3 6.69351e-16 0)
(3 8.22197e-16 0)
(3 1.02646e-16 0)
(3 -6.33787e-16 0)
(3 -4.84756e-16 0)
(3 -7.35622e-16 0)
(3 -6.09492e-16 0)
(2.25359 0.126534 0)
(0.805797 0.150423 0)
(0.645646 0.187312 0)
(0.58281 0.1994 0)
(0.528305 0.192292 0)
(0.482196 0.176293 0)
(0.436155 0.168573 0)
(0.387206 0.176865 0)
(0.328522 0.18923 0)
(0.266787 0.218001 0)
(0.193592 0.24409 0)
(0.117083 0.264184 0)
(0.0419354 0.288077 0)
(3 -1.42903e-16 0)
(3 -1.67627e-16 0)
(3 -3.45757e-16 0)
(3 -6.7243e-16 0)
(3 -7.83844e-16 0)
(3 -9.7306e-16 0)
(3 -8.8811e-16 0)
(3 -6.22579e-16 0)
(3 -6.93917e-16 0)
(3 -7.59393e-16 0)
(3 -1.30277e-15 0)
(2.45327 0.152732 0)
(0.843286 0.214491 0)
(0.655675 0.247064 0)
(0.605884 0.248607 0)
(0.563715 0.232554 0)
(0.520519 0.216998 0)
(0.472504 0.215237 0)
(0.421097 0.232426 0)
(0.357934 0.251664 0)
(0.293859 0.286545 0)
(0.217873 0.319772 0)
(0.13437 0.345693 0)
(0.0501064 0.376069 0)
(3 -2.05472e-17 0)
(3 3.76542e-17 0)
(3 -6.6785e-17 0)
(3 -5.23862e-16 0)
(3 -1.09601e-15 0)
(3 -1.24273e-15 0)
(3 -9.23341e-16 0)
(3 -6.03174e-16 0)
(3 -9.24428e-16 0)
(3 -7.3637e-16 0)
(3 -9.34134e-16 0)
(2.70402 0.16373 0)
(0.925605 0.278189 0)
(0.692417 0.289989 0)
(0.652028 0.276915 0)
(0.60854 0.265483 0)
(0.561306 0.257999 0)
(0.509986 0.264675 0)
(0.458045 0.290488 0)
(0.392303 0.317922 0)
(0.322506 0.360232 0)
(0.237124 0.406273 0)
(0.145611 0.443471 0)
(0.0476082 0.478999 0)
(3 9.15737e-17 0)
(3 6.73997e-17 0)
(3 -1.01106e-16 0)
(3 -3.97932e-16 0)
(3 -1.03363e-15 0)
(3 -1.2328e-15 0)
(3 -7.96121e-16 0)
(3 -6.90161e-16 0)
(3 -2.73041e-16 0)
(3 1.30039e-16 0)
(3 -1.03838e-16 0)
(2.94698 0.070755 0)
(1.04218 0.322714 0)
(0.735365 0.315919 0)
(0.688898 0.315666 0)
(0.638571 0.311603 0)
(0.584777 0.309618 0)
(0.528181 0.321907 0)
(0.474012 0.353601 0)
(0.41149 0.390851 0)
(0.346859 0.43847 0)
(0.282151 0.493666 0)
(0.195628 0.540651 0)
(0.0816396 0.59276 0)
(3 1.00082e-16 0)
(3 1.2395e-16 0)
(3 1.46975e-16 0)
(3 1.28427e-16 0)
(3 -7.57509e-17 0)
(3 -2.60756e-16 0)
(3 -3.2313e-16 0)
(3 -3.90956e-16 0)
(3 2.34246e-16 0)
(3 1.09982e-15 0)
(3 1.4099e-15 0)
(3.01176 0.00648682 0)
(1.18834 0.342481 0)
(0.746102 0.360087 0)
(0.682749 0.363265 0)
(0.628277 0.360516 0)
(0.574793 0.361381 0)
(0.5245 0.378274 0)
(0.479467 0.412426 0)
(0.434473 0.455525 0)
(0.383229 0.504968 0)
(0.330904 0.577108 0)
(0.227545 0.669776 0)
(0.125737 0.800127 0)
(3 8.76808e-17 0)
(3 1.32083e-16 0)
(3 3.13534e-16 0)
(3 6.23482e-16 0)
(3 1.30432e-15 0)
(3 1.4221e-15 0)
(3 7.85622e-16 0)
(3 6.87335e-16 0)
(3 1.13773e-15 0)
(3 1.39954e-15 0)
(3 9.515e-16 0)
(3.00029 2.55139e-05 0)
(1.43303 0.390845 0)
(0.752446 0.414432 0)
(0.675801 0.412674 0)
(0.631696 0.411307 0)
(0.587708 0.413699 0)
(0.547247 0.431527 0)
(0.509382 0.463547 0)
(0.476734 0.508223 0)
(0.438798 0.563778 0)
(0.410278 0.656073 0)
(0.368058 0.776157 0)
(0.426802 0.921165 0)
(3 -7.84722e-17 0)
(3 -1.12133e-16 0)
(3 -1.47936e-16 0)
(3 -3.99515e-16 0)
(3 -3.71054e-16 0)
(3 2.42745e-16 0)
(3 1.11133e-15 0)
(3 1.16448e-15 0)
(3 7.93374e-16 0)
(3 -7.4369e-17 0)
(3 2.95869e-16 0)
(3 -9.68659e-09 0)
(1.84793 0.443117 0)
(0.807771 0.490699 0)
(0.712562 0.459508 0)
(0.678509 0.45316 0)
(0.641673 0.454973 0)
(0.607067 0.47432 0)
(0.571288 0.505166 0)
(0.542205 0.550982 0)
(0.515674 0.61144 0)
(0.506737 0.701066 0)
(0.510941 0.780168 0)
(0.589102 0.807855 0)
(3 -8.43806e-17 0)
(3 -3.80675e-16 0)
(3 -5.87489e-16 0)
(3 -8.42449e-16 0)
(3 -5.61202e-16 0)
(3 3.42885e-16 0)
(3 3.89621e-16 0)
(3 -1.2097e-16 0)
(3 -9.06554e-16 0)
(3 -1.21945e-15 0)
(3 -8.9843e-16 0)
(3 -8.81138e-12 0)
(2.50093 0.379477 0)
(0.949065 0.547095 0)
(0.804607 0.48001 0)
(0.7685 0.474183 0)
(0.726802 0.484785 0)
(0.689853 0.511207 0)
(0.653912 0.545013 0)
(0.622051 0.588233 0)
(0.604663 0.64397 0)
(0.602774 0.71929 0)
(0.63213 0.781242 0)
(0.693793 0.794293 0)
(3 -1.50839e-16 0)
(3 -4.96478e-16 0)
(3 -7.48868e-16 0)
(3 -1.55729e-16 0)
(3 9.84747e-17 0)
(3 -3.07252e-16 0)
(3 -1.0951e-15 0)
(3 -1.33624e-15 0)
(3 -1.08383e-15 0)
(3 -1.21423e-15 0)
(3 -7.04642e-16 0)
(3 -6.87703e-12 0)
(3.0525 0.0775654 0)
(1.18843 0.529477 0)
(0.86776 0.525575 0)
(0.83025 0.525238 0)
(0.787378 0.530256 0)
(0.747185 0.554235 0)
(0.71644 0.589898 0)
(0.689875 0.626904 0)
(0.682141 0.673432 0)
(0.686233 0.729306 0)
(0.720331 0.771728 0)
(0.762828 0.779998 0)
(3 1.68328e-18 0)
(3 8.36437e-17 0)
(3 1.14374e-16 0)
(3 5.26019e-16 0)
(3 -7.1527e-18 0)
(3 -8.52285e-16 0)
(3 -5.19168e-16 0)
(3 -2.86292e-16 0)
(3 -7.15915e-16 0)
(3 -1.45199e-15 0)
(3 -8.7582e-16 0)
(3 -3.66506e-12 0)
(3.01163 0.00148597 0)
(1.41225 0.524317 0)
(0.855015 0.590101 0)
(0.817459 0.571215 0)
(0.789548 0.574329 0)
(0.769468 0.590961 0)
(0.758444 0.620129 0)
(0.744842 0.64868 0)
(0.74332 0.685533 0)
(0.751347 0.72785 0)
(0.78095 0.759014 0)
(0.808236 0.767703 0)
(3 3.49057e-16 0)
(3 3.17274e-17 0)
(3 -2.96e-17 0)
(3 -1.34137e-16 0)
(3 -3.70427e-16 0)
(3 -2.99612e-16 0)
(3 -9.23719e-17 0)
(3 2.07214e-17 0)
(3 -2.18126e-16 0)
(3 -9.63145e-16 0)
(3 -2.07576e-16 0)
(3 -6.40968e-13 0)
(3.00007 -1.24242e-06 0)
(2.01186 0.548717 0)
(0.915135 0.640868 0)
(0.842941 0.595954 0)
(0.822109 0.598123 0)
(0.80585 0.611066 0)
(0.800773 0.637722 0)
(0.793634 0.665757 0)
(0.791907 0.695797 0)
(0.799072 0.728688 0)
(0.821362 0.754892 0)
(0.840249 0.764305 0)
(3 7.90535e-17 0)
(3 3.7018e-18 0)
(3 8.26306e-17 0)
(3 -6.48305e-16 0)
(3 -5.54764e-16 0)
(3 -1.82947e-16 0)
(3 6.26297e-17 0)
(3 2.56989e-16 0)
(3 -1.37958e-16 0)
(3 -5.22937e-16 0)
(3 4.58421e-16 0)
(3 -6.79924e-15 0)
(3 -8.12965e-07 0)
(2.87497 0.258232 0)
(1.13261 0.648226 0)
(0.916897 0.61255 0)
(0.887052 0.617686 0)
(0.862497 0.631849 0)
(0.849841 0.656635 0)
(0.840403 0.683201 0)
(0.834133 0.706753 0)
(0.834923 0.729361 0)
(0.848695 0.750604 0)
(0.862256 0.760015 0)
(3 -1.56716e-16 0)
(3 -1.84977e-16 0)
(3 -1.35524e-17 0)
(3 -1.59478e-17 0)
(3 2.86856e-16 0)
(3 2.18571e-16 0)
(3 4.77842e-16 0)
(3 3.55809e-16 0)
(3 2.71481e-16 0)
(3 -1.38098e-16 0)
(3 3.95595e-16 0)
(3 4.49402e-16 0)
(3 -1.16382e-07 0)
(3.053 0.0154448 0)
(1.38837 0.619663 0)
(0.940211 0.677503 0)
(0.901975 0.673025 0)
(0.882814 0.67342 0)
(0.872307 0.689361 0)
(0.867559 0.711319 0)
(0.863923 0.728777 0)
(0.864879 0.738424 0)
(0.871053 0.750781 0)
(0.880056 0.76167 0)
(3 -2.66067e-16 0)
(3 -4.09241e-16 0)
(3 -2.33665e-16 0)
(3 2.89408e-16 0)
(3 1.27936e-16 0)
(3 1.29608e-16 0)
(3 6.52793e-17 0)
(3 -2.45982e-17 0)
(3 4.10279e-16 0)
(3 1.26169e-15 0)
(3 1.49901e-15 0)
(3 1.32777e-15 0)
(3 -5.54104e-09 0)
(3.00128 6.22215e-05 0)
(2.02629 0.604305 0)
(1.00269 0.734646 0)
(0.94757 0.698325 0)
(0.92637 0.694151 0)
(0.909362 0.706194 0)
(0.902368 0.726555 0)
(0.898456 0.742058 0)
(0.896917 0.75005 0)
(0.896725 0.756656 0)
(0.899505 0.764514 0)
(3 -2.65224e-16 0)
(3 3.97148e-17 0)
(3 1.61631e-16 0)
(3 4.37981e-17 0)
(3 -1.94219e-16 0)
(3 -3.87321e-16 0)
(3 -5.7211e-16 0)
(3 -5.27872e-16 0)
(3 1.03768e-15 0)
(3 2.29191e-15 0)
(3 2.23058e-15 0)
(3 1.98061e-15 0)
(3 -3.17947e-11 0)
(3 -1.39649e-07 0)
(2.97768 0.198637 0)
(1.25349 0.715904 0)
(1.01717 0.722817 0)
(0.9961 0.713719 0)
(0.968062 0.722976 0)
(0.950245 0.739736 0)
(0.939419 0.755315 0)
(0.931998 0.764715 0)
(0.926719 0.768756 0)
(0.924356 0.770732 0)
(3 4.02352e-16 0)
(3 6.47736e-16 0)
(3 3.15149e-16 0)
(3 1.66058e-16 0)
(3 2.59334e-16 0)
(3 -3.20086e-16 0)
(3 -4.07269e-16 0)
(3 1.02936e-16 0)
(3 4.98131e-16 0)
(3 3.94874e-16 0)
(3 -3.48238e-17 0)
(3 -4.07049e-17 0)
(3 -1.80296e-14 0)
(3 -3.48004e-07 0)
(3.03212 0.0057476 0)
(1.58161 0.689442 0)
(1.02605 0.771647 0)
(1.0087 0.757495 0)
(0.997791 0.76369 0)
(0.984239 0.774693 0)
(0.972129 0.784004 0)
(0.963358 0.78965 0)
(0.957045 0.790352 0)
(0.953646 0.787488 0)
(3 2.8773e-16 0)
(3 2.69696e-16 0)
(3 2.66817e-16 0)
(3 1.87588e-16 0)
(3 2.62649e-16 0)
(3 9.21963e-17 0)
(3 3.85775e-16 0)
(3 6.25506e-16 0)
(3 3.2404e-16 0)
(3 -8.22226e-16 0)
(3 -9.92392e-16 0)
(3 -1.07733e-15 0)
(3 5.26427e-17 0)
(3 -9.1784e-08 0)
(3.00037 2.71188e-05 0)
(2.47311 0.496165 0)
(1.14441 0.784599 0)
(1.04601 0.755242 0)
(1.03872 0.767926 0)
(1.02805 0.785847 0)
(1.01512 0.797297 0)
(1.00486 0.803429 0)
(0.996998 0.804724 0)
(0.993413 0.800402 0)
(3 -2.17209e-16 0)
(3 -1.83311e-17 0)
(3 -1.10379e-16 0)
(3 -3.07748e-16 0)
(3 -5.90178e-16 0)
(3 -1.0578e-16 0)
(3 8.13349e-16 0)
(3 1.9428e-15 0)
(3 1.87232e-15 0)
(3 1.17321e-15 0)
(3 6.14853e-16 0)
(3 2.08868e-16 0)
(3 1.3152e-15 0)
(3 -3.05716e-09 0)
(3.00001 -2.15978e-06 0)
(3.07126 0.0614666 0)
(1.44244 0.737934 0)
(1.09145 0.788441 0)
(1.06519 0.796512 0)
(1.05004 0.814603 0)
(1.04169 0.825228 0)
(1.03608 0.830384 0)
(1.03155 0.830358 0)
(1.02933 0.825598 0)
(3 1.26887e-17 0)
(3 1.79615e-17 0)
(3 -8.40222e-17 0)
(3 4.14377e-17 0)
(3 -5.46871e-16 0)
(3 -4.49912e-16 0)
(3 7.37126e-16 0)
(3 1.93655e-15 0)
(3 2.17239e-15 0)
(3 1.32767e-15 0)
(3 1.08731e-15 0)
(3 1.26757e-15 0)
(3 2.24841e-15 0)
(3 -1.03783e-11 0)
(3 -6.44425e-07 0)
(3.00623 0.000781836 0)
(2.09952 0.648027 0)
(1.14422 0.836212 0)
(1.08704 0.825606 0)
(1.07821 0.825602 0)
(1.07545 0.827783 0)
(1.07367 0.833539 0)
(1.07221 0.836431 0)
(1.07085 0.836466 0)
(3 9.78307e-18 0)
(3 -3.74302e-16 0)
(3 -9.84554e-17 0)
(3 -1.63272e-16 0)
(3 -4.20675e-17 0)
(3 3.68699e-16 0)
(3 3.67957e-16 0)
(3 4.80488e-16 0)
(3 1.52091e-16 0)
(3 -1.16667e-16 0)
(3 -1.49191e-16 0)
(3 5.74885e-16 0)
(3 1.92859e-15 0)
(3 3.19936e-16 0)
(3 -4.22929e-08 0)
(3.00002 2.60622e-06 0)
(3.02012 0.154872 0)
(1.40686 0.802662 0)
(1.13737 0.831711 0)
(1.12605 0.834038 0)
(1.11499 0.838302 0)
(1.10589 0.849482 0)
(1.10194 0.85661 0)
(1.09962 0.861486 0)
(3 -1.38826e-16 0)
(3 -4.39177e-16 0)
(3 -6.80477e-16 0)
(3 -3.889e-16 0)
(3 2.27168e-16 0)
(3 5.31383e-16 0)
(3 1.33993e-16 0)
(3 -6.66663e-16 0)
(3 -7.84343e-16 0)
(3 1.21295e-16 0)
(3 -7.57152e-17 0)
(3 5.93431e-17 0)
(3 1.0952e-15 0)
(3 1.02296e-15 0)
(3 -1.67993e-10 0)
(3 -1.24803e-07 0)
(3.01804 0.00316845 0)
(1.94205 0.736206 0)
(1.16215 0.881995 0)
(1.13801 0.864497 0)
(1.13483 0.865288 0)
(1.13423 0.862934 0)
(1.13419 0.863325 0)
(1.13405 0.869311 0)
(3 1.20489e-16 0)
(3 -5.18944e-17 0)
(3 5.52728e-17 0)
(3 2.39241e-16 0)
(3 3.60024e-16 0)
(3 1.86677e-16 0)
(3 -1.40203e-16 0)
(3 -7.28619e-16 0)
(3 -6.55274e-16 0)
(3 5.26401e-16 0)
(3 3.34899e-16 0)
(3 3.06763e-17 0)
(3 -5.17209e-16 0)
(3 -8.20583e-16 0)
(3 -1.58156e-13 0)
(3 -1.93036e-08 0)
(3.00011 3.16196e-05 0)
(2.9515 0.240062 0)
(1.41577 0.848078 0)
(1.17924 0.863396 0)
(1.17534 0.865768 0)
(1.17091 0.868675 0)
(1.16487 0.877654 0)
(1.1618 0.888517 0)
(3 1.79197e-16 0)
(3 9.7646e-17 0)
(3 4.3952e-16 0)
(3 4.58978e-16 0)
(3 7.18731e-16 0)
(3 4.62607e-16 0)
(3 1.59624e-16 0)
(3 8.41995e-17 0)
(3 4.10459e-16 0)
(3 3.64373e-16 0)
(3 9.82371e-17 0)
(3 -8.69339e-16 0)
(3 -3.52104e-15 0)
(3 -3.72246e-15 0)
(3 -2.91936e-15 0)
(3 -1.03913e-09 0)
(3 1.05361e-08 0)
(3.02673 0.00723963 0)
(1.91834 0.769943 0)
(1.20507 0.911052 0)
(1.18613 0.892434 0)
(1.18621 0.894608 0)
(1.18606 0.898842 0)
(1.18968 0.899824 0)
(3 1.88998e-16 0)
(3 3.39912e-16 0)
(3 4.13157e-16 0)
(3 3.16481e-16 0)
(3 3.85972e-16 0)
(3 3.13915e-16 0)
(3 2.80894e-16 0)
(3 5.07462e-16 0)
(3 6.28356e-16 0)
(3 2.06615e-16 0)
(3 -2.59349e-16 0)
(3 -1.5143e-15 0)
(3 -2.48725e-15 0)
(3 -2.83905e-15 0)
(3 -2.26781e-15 0)
(3 -1.10194e-11 0)
(3 -1.90036e-11 0)
(3.00026 0.000111746 0)
(2.91793 0.265588 0)
(1.4581 0.879937 0)
(1.22193 0.889881 0)
(1.2173 0.892889 0)
(1.21483 0.903419 0)
(1.21691 0.911134 0)
(3 -3.779e-17 0)
(3 2.78281e-16 0)
(3 5.4876e-16 0)
(3 5.07302e-16 0)
(3 -1.17333e-16 0)
(3 -4.05449e-16 0)
(3 -2.40444e-16 0)
(3 2.55461e-16 0)
(3 6.11009e-16 0)
(3 7.98938e-16 0)
(3 6.85191e-16 0)
(3 3.81056e-16 0)
(3 4.8071e-16 0)
(3 -7.27795e-16 0)
(3 -1.17125e-15 0)
(3 -2.10996e-14 0)
(3 -1.1519e-11 0)
(3 8.86724e-08 0)
(3.02428 0.00966897 0)
(2.00708 0.772489 0)
(1.25419 0.937822 0)
(1.23034 0.922261 0)
(1.23149 0.925548 0)
(1.23872 0.925922 0)
(3 -1.33541e-16 0)
(3 -5.14904e-17 0)
(3 -9.0037e-18 0)
(3 5.42685e-17 0)
(3 4.80312e-18 0)
(3 8.04712e-17 0)
(3 2.91017e-18 0)
(3 -3.72545e-16 0)
(3 6.33046e-17 0)
(3 1.23011e-15 0)
(3 1.45394e-15 0)
(3 1.75771e-15 0)
(3 1.60379e-15 0)
(3 4.07977e-16 0)
(3 -5.61059e-16 0)
(3 7.57827e-16 0)
(3 -3.56599e-12 0)
(3 1.24943e-12 0)
(3.00024 0.000161833 0)
(2.94605 0.230864 0)
(1.53892 0.901308 0)
(1.26416 0.92447 0)
(1.26055 0.924228 0)
(1.25357 0.913581 0)
(3 -1.16275e-18 0)
(3 2.69502e-16 0)
(3 3.55458e-18 0)
(3 -2.39647e-16 0)
(3 1.39638e-16 0)
(3 6.58601e-16 0)
(3 3.9613e-16 0)
(3 -2.2143e-16 0)
(3 -2.26224e-16 0)
(3 -4.24068e-16 0)
(3 -4.06017e-16 0)
(3 -6.64756e-17 0)
(3 2.35329e-16 0)
(3 1.28411e-16 0)
(3 -4.53097e-16 0)
(3 1.03916e-15 0)
(3 -2.73997e-13 0)
(3 -7.43407e-13 0)
(3 1.53731e-07 0)
(3.01564 0.00898318 0)
(2.24432 0.72965 0)
(1.32039 1.00489 0)
(1.23025 0.876494 0)
(1.14821 0.718556 0)
(3 -1.52977e-16 0)
(3 -2.25115e-16 0)
(3 -1.78383e-16 0)
(3 -9.32509e-17 0)
(3 -5.77792e-17 0)
(3 -8.8392e-18 0)
(3 -1.83167e-16 0)
(3 -5.41186e-16 0)
(3 -9.31208e-16 0)
(3 -1.71421e-15 0)
(3 -1.61018e-15 0)
(3 -1.2859e-15 0)
(3 -9.45858e-16 0)
(3 -4.50491e-16 0)
(3 -6.06338e-16 0)
(3 3.91773e-16 0)
(3 -2.80303e-15 0)
(3 -2.25739e-13 0)
(3 1.48373e-11 0)
(3.0001 0.000127554 0)
(3.01836 0.143182 0)
(1.57981 0.874539 0)
(1.05545 0.526416 0)
(1.02757 0.439413 0)
(3 9.88977e-17 0)
(3 -1.84924e-16 0)
(3 -2.52116e-16 0)
(3 7.77689e-17 0)
(3 4.19709e-16 0)
(3 9.96194e-17 0)
(3 -6.23472e-16 0)
(3 -1.70184e-15 0)
(3 -1.88766e-15 0)
(3 -1.57256e-15 0)
(3 -9.95976e-16 0)
(3 -9.45612e-16 0)
(3 -1.10873e-15 0)
(3 8.11619e-17 0)
(3 6.71093e-16 0)
(3 8.58988e-16 0)
(3 5.02611e-16 0)
(3 -1.08527e-14 0)
(3 -4.44283e-15 0)
(3 9.26093e-08 0)
(3.00597 0.00501335 0)
(1.4361 0.197599 0)
(0.865042 0.213626 0)
(0.970257 0.273386 0)
(3 7.43984e-17 0)
(3 8.62963e-17 0)
(3 -5.36577e-17 0)
(3 -8.68351e-17 0)
(3 6.33308e-17 0)
(3 7.66429e-17 0)
(3 -1.19936e-16 0)
(3 -2.47635e-16 0)
(3 -4.31054e-16 0)
(3 -3.94176e-16 0)
(3 -3.48411e-16 0)
(3 -6.4648e-16 0)
(3 -9.6368e-16 0)
(3 -6.83417e-16 0)
(3 6.9239e-19 0)
(3 3.73518e-16 0)
(3 -1.85329e-16 0)
(3 -1.23037e-15 0)
(3 -1.52319e-15 0)
(3 2.3528e-11 0)
(2.92996 -0.0686051 0)
(0.876641 -0.209789 0)
(0.596647 0.0527132 0)
(0.800315 0.230497 0)
(3 2.31423e-17 0)
(3 -4.5929e-17 0)
(3 -2.05259e-17 0)
(3 -2.73787e-16 0)
(3 -3.50818e-16 0)
(3 -4.10651e-16 0)
(3 -3.25965e-16 0)
(3 1.33748e-16 0)
(3 4.30679e-16 0)
(3 1.47194e-16 0)
(3 -3.07516e-16 0)
(3 -4.61124e-16 0)
(3 -3.23515e-16 0)
(3 -3.57995e-17 0)
(3 1.09154e-16 0)
(3 -3.68123e-16 0)
(3 -1.10377e-15 0)
(3 -1.41808e-15 0)
(3 -1.63169e-15 0)
(3 1.61353e-15 0)
(2.48137 -0.144027 0)
(0.591991 -0.191733 0)
(0.423286 0.00588097 0)
(0.574221 0.135841 0)
(3 3.80423e-17 0)
(3 1.14916e-16 0)
(3 2.75632e-16 0)
(3 2.03953e-16 0)
(3 6.25721e-17 0)
(3 -1.93762e-16 0)
(3 -5.65282e-16 0)
(3 -5.77217e-16 0)
(3 -5.58758e-16 0)
(3 -4.10254e-16 0)
(3 -5.23358e-16 0)
(3 -2.84506e-16 0)
(3 6.09343e-17 0)
(3 2.78934e-16 0)
(3 2.50353e-16 0)
(3 -7.4756e-17 0)
(3 -8.08028e-16 0)
(3 -8.80915e-16 0)
(3 -4.7939e-16 0)
(3 -6.91051e-16 0)
(2.35635 -0.0535838 0)
(0.571832 -0.112056 0)
(0.394693 -0.0366689 0)
(0.452212 0.00517489 0)
(3 -8.44807e-17 0)
(3 8.45727e-18 0)
(3 6.92841e-17 0)
(3 -1.13994e-16 0)
(3 -4.99722e-16 0)
(3 -6.08254e-16 0)
(3 -6.04467e-16 0)
(3 -5.22993e-16 0)
(3 -1.25168e-15 0)
(3 -1.79554e-15 0)
(3 -1.90451e-15 0)
(3 -1.35691e-15 0)
(3 -5.84503e-16 0)
(3 -7.91169e-17 0)
(3 1.35503e-16 0)
(3 3.99312e-16 0)
(3 -2.60717e-17 0)
(3 1.97967e-16 0)
(3 5.22044e-16 0)
(3 3.12678e-16 0)
(2.35475 -0.00579535 0)
(0.590248 -0.0249391 0)
(0.409584 -0.0530606 0)
(0.430181 -0.0470662 0)
(3 -7.8293e-17 0)
(3 -2.0561e-16 0)
(3 -3.00896e-16 0)
(3 -1.86129e-16 0)
(3 -1.79892e-16 0)
(3 -2.0329e-16 0)
(3 1.59657e-17 0)
(3 -1.06358e-16 0)
(3 -8.70383e-16 0)
(3 -2.42384e-15 0)
(3 -2.32691e-15 0)
(3 -1.60533e-15 0)
(3 -1.20243e-15 0)
(3 -5.73787e-16 0)
(3 -3.74511e-16 0)
(3 -4.89875e-17 0)
(3 9.85828e-16 0)
(3 1.74969e-15 0)
(3 1.88042e-15 0)
(3 1.53599e-15 0)
(2.39443 0.0198011 0)
(0.621337 0.019322 0)
(0.430526 -0.0414236 0)
(0.443961 -0.0455489 0)
(3 -4.6143e-17 0)
(3 -1.78964e-16 0)
(3 -8.27571e-17 0)
(3 1.20346e-16 0)
(3 6.13859e-16 0)
(3 7.4567e-16 0)
(3 4.53221e-16 0)
(3 1.8231e-17 0)
(3 -7.14859e-16 0)
(3 -6.52231e-16 0)
(3 1.16159e-16 0)
(3 2.12848e-17 0)
(3 2.21416e-17 0)
(3 5.54079e-17 0)
(3 -2.58537e-18 0)
(3 1.58412e-17 0)
(3 4.58102e-16 0)
(3 1.67743e-15 0)
(3 1.90243e-15 0)
(3 1.37257e-15 0)
(2.44357 0.0103339 0)
(0.645084 0.0128279 0)
(0.450402 -0.0231103 0)
(0.467776 -0.0282194 0)
(3 -1.24533e-16 0)
(3 1.64776e-16 0)
(3 1.68946e-16 0)
(3 -1.79171e-16 0)
(3 -4.15027e-16 0)
(3 -4.55419e-16 0)
(3 -1.81951e-16 0)
(3 3.62202e-16 0)
(3 -6.22041e-17 0)
(3 7.62394e-16 0)
(3 1.72187e-15 0)
(3 1.76431e-15 0)
(3 9.7997e-16 0)
(3 8.85479e-16 0)
(3 1.05048e-15 0)
(3 1.019e-15 0)
(3 5.50542e-16 0)
(3 1.90897e-16 0)
(3 2.43361e-16 0)
(3 -5.85336e-16 0)
(2.45394 0.000936635 0)
(0.649186 0.00293667 0)
(0.461717 -0.0136033 0)
(0.48986 -0.0173107 0)
(3 -5.88721e-17 0)
(3 6.34081e-17 0)
(3 -1.5778e-16 0)
(3 -5.29958e-16 0)
(3 -1.00477e-15 0)
(3 -7.13438e-16 0)
(3 9.13627e-17 0)
(3 3.56991e-16 0)
(3 2.19446e-16 0)
(3 5.79953e-16 0)
(3 1.16302e-15 0)
(3 1.45666e-15 0)
(3 6.7837e-16 0)
(3 3.32738e-16 0)
(3 2.54016e-16 0)
(3 3.47041e-16 0)
(3 3.49458e-17 0)
(3 -2.92466e-16 0)
(3 -4.03486e-16 0)
(3 -6.66614e-16 0)
(2.44844 -4.15097e-05 0)
(0.643195 0.000928043 0)
(0.463281 -0.00241738 0)
(0.500085 -0.00309929 0)
(0.513011 0.64453 0)
(0.0317956 0.272681 0)
(-0.0524144 0.0494729 0)
(-0.0657699 0.00796832 0)
(-0.0785182 0.00612296 0)
(-0.0801894 -0.00513228 0)
(-0.0618797 -0.0189074 0)
(-0.0305076 -0.0339766 0)
(0.608948 0.543997 0)
(0.312167 0.286114 0)
(0.169468 0.0833168 0)
(0.0314333 0.0374163 0)
(-0.0427106 0.024829 0)
(-0.060764 -0.00864624 0)
(-0.0350145 -0.0408067 0)
(-0.0182139 -0.0697235 0)
(0.677266 0.686874 0)
(0.48933 0.55618 0)
(0.316208 0.353734 0)
(0.133365 0.206032 0)
(0.0168187 0.0973496 0)
(-0.00506164 -0.00786691 0)
(-0.011791 -0.0634892 0)
(-0.00913217 -0.0926273 0)
(0.760091 0.743557 0)
(0.678316 0.667451 0)
(0.561394 0.4988 0)
(0.379777 0.314725 0)
(0.201708 0.167556 0)
(0.110112 0.0300663 0)
(0.0193915 -0.0392795 0)
(0.00989917 -0.0952899 0)
(0.817964 0.757772 0)
(0.789473 0.73281 0)
(0.7295 0.646354 0)
(0.579429 0.52114 0)
(0.382418 0.373029 0)
(0.227426 0.186062 0)
(0.0734613 0.042696 0)
(0.0390363 -0.0649772 0)
(0.849604 0.764323 0)
(0.84136 0.764396 0)
(0.821646 0.731231 0)
(0.734923 0.662233 0)
(0.594004 0.538042 0)
(0.431255 0.347052 0)
(0.211952 0.180114 0)
(0.0983184 0.0272579 0)
(0.868895 0.766323 0)
(0.871447 0.770295 0)
(0.873109 0.757389 0)
(0.832281 0.732944 0)
(0.749484 0.671711 0)
(0.60915 0.547539 0)
(0.404249 0.374207 0)
(0.198475 0.220452 0)
(0.885495 0.768452 0)
(0.887408 0.777236 0)
(0.888539 0.777364 0)
(0.870016 0.781937 0)
(0.833653 0.765032 0)
(0.744047 0.7087 0)
(0.553609 0.626409 0)
(0.248568 0.616716 0)
(0.902621 0.772539 0)
(0.905393 0.780283 0)
(0.906646 0.786369 0)
(0.904006 0.800121 0)
(0.895213 0.809884 0)
(0.860484 0.812216 0)
(0.800389 0.844461 0)
(0.791863 0.982055 0)
(0.923511 0.778477 0)
(0.925939 0.788772 0)
(0.927707 0.799343 0)
(0.934106 0.817665 0)
(0.942804 0.840277 0)
(0.951575 0.879707 0)
(0.988031 0.943204 0)
(1.15945 1.02062 0)
(0.951472 0.789589 0)
(0.954053 0.798987 0)
(0.958081 0.81031 0)
(0.968762 0.830376 0)
(0.989753 0.860449 0)
(1.0261 0.902114 0)
(1.11184 0.957437 0)
(1.32711 1.00496 0)
(0.99142 0.797448 0)
(0.991786 0.806996 0)
(0.996703 0.822741 0)
(1.0081 0.846065 0)
(1.03663 0.875888 0)
(1.09095 0.912649 0)
(1.1929 0.957603 0)
(1.38705 0.990809 0)
(1.028 0.81968 0)
(1.02711 0.827909 0)
(1.03424 0.843379 0)
(1.05025 0.86215 0)
(1.08437 0.886769 0)
(1.14733 0.917663 0)
(1.24899 0.947924 0)
(1.4149 0.961749 0)
(1.06889 0.834235 0)
(1.06863 0.837955 0)
(1.07701 0.850401 0)
(1.09565 0.867949 0)
(1.13246 0.891372 0)
(1.19617 0.916773 0)
(1.29139 0.937964 0)
(1.4356 0.945103 0)
(1.0987 0.86273 0)
(1.10235 0.863425 0)
(1.11423 0.870604 0)
(1.13697 0.88314 0)
(1.17708 0.900892 0)
(1.23976 0.919327 0)
(1.32685 0.932342 0)
(1.45032 0.933488 0)
(1.13552 0.872496 0)
(1.14115 0.87339 0)
(1.15435 0.877018 0)
(1.17906 0.885401 0)
(1.21903 0.898398 0)
(1.27887 0.912867 0)
(1.35766 0.925157 0)
(1.46496 0.926797 0)
(1.16495 0.893821 0)
(1.17355 0.895491 0)
(1.18884 0.897744 0)
(1.21453 0.902444 0)
(1.25369 0.910711 0)
(1.30995 0.918995 0)
(1.38237 0.923622 0)
(1.47376 0.921263 0)
(1.19774 0.900563 0)
(1.20875 0.903032 0)
(1.22563 0.904504 0)
(1.25044 0.904981 0)
(1.28458 0.905115 0)
(1.33306 0.904327 0)
(1.39501 0.886423 0)
(1.46089 0.835853 0)
(1.22429 0.91591 0)
(1.23678 0.916222 0)
(1.2512 0.914729 0)
(1.27056 0.900718 0)
(1.29077 0.857279 0)
(1.31013 0.774778 0)
(1.33873 0.660211 0)
(1.38369 0.55671 0)
(1.24411 0.921863 0)
(1.24707 0.898468 0)
(1.23912 0.830658 0)
(1.22771 0.721165 0)
(1.2292 0.60673 0)
(1.25265 0.517083 0)
(1.30823 0.465063 0)
(1.35557 0.411101 0)
(1.22308 0.845824 0)
(1.17209 0.709574 0)
(1.13579 0.565626 0)
(1.14681 0.462271 0)
(1.17923 0.406937 0)
(1.22552 0.380077 0)
(1.28064 0.371646 0)
(1.33864 0.355765 0)
(1.08189 0.559941 0)
(1.05903 0.451898 0)
(1.09482 0.418943 0)
(1.14924 0.408004 0)
(1.20673 0.391574 0)
(1.25912 0.377957 0)
(1.30252 0.371021 0)
(1.34871 0.35908 0)
(1.03011 0.408816 0)
(1.07396 0.399386 0)
(1.121 0.384326 0)
(1.16972 0.387629 0)
(1.22158 0.39559 0)
(1.27589 0.394968 0)
(1.32379 0.384206 0)
(1.36387 0.370071 0)
(1.06343 0.333889 0)
(1.10401 0.379048 0)
(1.14736 0.394419 0)
(1.18668 0.400705 0)
(1.2299 0.404284 0)
(1.27746 0.39275 0)
(1.32465 0.374761 0)
(1.36554 0.35432 0)
(0.985071 0.32931 0)
(1.08527 0.385596 0)
(1.14096 0.420027 0)
(1.18285 0.421109 0)
(1.22192 0.411034 0)
(1.26259 0.38811 0)
(1.31103 0.360377 0)
(1.35688 0.334865 0)
(0.763755 0.238907 0)
(0.918538 0.307619 0)
(1.0349 0.346193 0)
(1.12073 0.361234 0)
(1.18657 0.360452 0)
(1.24213 0.351434 0)
(1.29714 0.33531 0)
(1.34462 0.317425 0)
(0.564287 0.0691139 0)
(0.68308 0.161124 0)
(0.825928 0.231793 0)
(0.958856 0.275032 0)
(1.07243 0.300798 0)
(1.16919 0.314985 0)
(1.25061 0.308138 0)
(1.31396 0.295202 0)
(0.468711 -0.00912149 0)
(0.520017 0.0556547 0)
(0.620359 0.109042 0)
(0.736875 0.175489 0)
(0.869309 0.225532 0)
(1.00074 0.256321 0)
(1.11688 0.276183 0)
(1.21202 0.292025 0)
(0.467672 -0.0314262 0)
(0.477977 0.00026694 0)
(0.510811 0.0362982 0)
(0.574168 0.07433 0)
(0.669239 0.112993 0)
(0.785454 0.147143 0)
(0.911701 0.167709 0)
(1.03639 0.182529 0)
(0.480706 -0.029473 0)
(0.489079 -0.0185489 0)
(0.49973 0.00328394 0)
(0.510792 0.0299901 0)
(0.548447 0.0489667 0)
(0.610506 0.0712794 0)
(0.697621 0.102058 0)
(0.802682 0.133893 0)
(0.506686 -0.013633 0)
(0.511445 -0.00818467 0)
(0.515484 0.000781218 0)
(0.505176 0.011949 0)
(0.500351 0.0237783 0)
(0.518622 0.0307928 0)
(0.561126 0.0395168 0)
(0.63026 0.047744 0)
(0.527674 -0.00606475 0)
(0.530925 -0.00653188 0)
(0.530134 -0.00418785 0)
(0.509245 -0.00298237 0)
(0.486584 -0.00211217 0)
(0.486743 -0.00156137 0)
(0.506346 0.0032672 0)
(0.548173 0.0139809 0)
(1.69971 0.937792 0)
(2.27956 0.888786 0)
(2.62833 0.977279 0)
(2.58742 0.503014 0)
(2.65115 0.263535 0)
(2.69416 0.0361177 0)
(2.73018 -0.105217 0)
(2.71586 -0.136735 0)
(2.65818 -0.112385 0)
(2.64402 -0.137375 0)
(2.6526 -0.111767 0)
(2.66547 -0.0609297 0)
(2.67085 -0.031761 0)
(2.67146 -0.0321465 0)
(2.66343 -0.0313367 0)
(2.57824 -0.0963432 0)
(2.25388 -0.305969 0)
(1.29624 -0.333731 0)
(1.08985 -0.19358 0)
(1.20476 -0.131029 0)
(1.3026 -0.0761908 0)
(1.33739 -0.0474885 0)
(1.37394 -0.0431374 0)
(1.43679 -0.0301471 0)
(1.49753 -0.0140003 0)
(1.53148 -0.00814821 0)
(1.55174 -0.00130901 0)
(1.57331 -7.891e-05 0)
(1.59718 -0.00312499 0)
(1.63508 -0.00953527 0)
(1.69136 -0.0152442 0)
(1.73126 -0.0163359 0)
(1.75887 -0.0136674 0)
(1.77596 -0.00578516 0)
(1.78609 0.00426064 0)
(1.80957 0.0074128 0)
(1.84208 0.00784548 0)
(1.89612 0.0050604 0)
(1.93727 0.0033501 0)
(1.96643 0.00421944 0)
(1.98812 0.00669976 0)
(1.99597 0.0104979 0)
(2.01291 0.0120963 0)
(2.04023 0.0117475 0)
(2.07388 0.00964403 0)
(2.11751 0.00658414 0)
(2.15155 0.00575856 0)
(2.18231 0.00605282 0)
(2.20504 0.00794772 0)
(2.2125 0.0118046 0)
(2.22559 0.0141355 0)
(2.25107 0.0141866 0)
(2.27835 0.013498 0)
(2.3104 0.0120048 0)
(2.33934 0.0116723 0)
(2.36868 0.0119618 0)
(2.3926 0.0126848 0)
(2.40229 0.0132863 0)
(2.40988 0.0130086 0)
(2.43442 0.0123415 0)
(2.46263 0.0117753 0)
(2.49134 0.0110958 0)
(2.52055 0.0106591 0)
(2.54891 0.0108924 0)
(2.56645 0.0116975 0)
(2.55964 0.0142382 0)
(2.56601 0.0156925 0)
(2.59165 0.0156464 0)
(2.61908 0.0154478 0)
(2.64846 0.014742 0)
(2.6803 0.0130823 0)
(2.70978 0.0122657 0)
(2.74 0.0122341 0)
(2.76584 0.0121846 0)
(2.76822 0.0132474 0)
(2.75064 0.017265 0)
(2.76199 0.0188609 0)
(2.78602 0.0191583 0)
(2.80986 0.0194033 0)
(2.83433 0.0196797 0)
(2.86323 0.0189509 0)
(2.89179 0.0163826 0)
(2.92115 0.0141782 0)
(2.95165 0.0119786 0)
(2.97679 0.00947073 0)
(2.97113 0.0108488 0)
(2.93098 0.0177945 0)
(2.9392 0.0199122 0)
(1.88201 0.890252 0)
(2.3297 0.512594 0)
(2.55846 0.309161 0)
(2.65874 0.0704197 0)
(2.71675 -0.226345 0)
(2.72002 -0.351099 0)
(2.78893 -0.350948 0)
(2.77486 -0.26431 0)
(2.74684 -0.196671 0)
(2.71572 -0.156656 0)
(2.68956 -0.100117 0)
(2.67371 -0.0539053 0)
(2.66552 -0.0121486 0)
(2.65547 -0.0300261 0)
(2.59081 -0.154179 0)
(2.41721 -0.458384 0)
(2.05437 -0.925185 0)
(1.91082 -0.743928 0)
(1.49097 -0.254777 0)
(1.38713 -0.059984 0)
(1.38879 -0.011136 0)
(1.38392 0.000825079 0)
(1.40157 -0.00538732 0)
(1.4569 -0.000941371 0)
(1.51522 -0.00815005 0)
(1.55721 -0.00627157 0)
(1.58436 0.00293009 0)
(1.60347 0.0149295 0)
(1.62363 0.0156168 0)
(1.64932 0.00718857 0)
(1.69957 -0.0154899 0)
(1.74971 -0.0357577 0)
(1.77774 -0.0404682 0)
(1.80078 -0.0336867 0)
(1.81478 -0.0079753 0)
(1.8319 0.0179742 0)
(1.85994 0.028892 0)
(1.89736 0.0294702 0)
(1.93872 0.016128 0)
(1.96896 0.00796955 0)
(1.99671 0.005371 0)
(2.01564 0.0129027 0)
(2.02824 0.0289388 0)
(2.05203 0.0361836 0)
(2.08084 0.0368921 0)
(2.11757 0.0268126 0)
(2.15387 0.0111317 0)
(2.18275 0.00429075 0)
(2.2098 0.00104513 0)
(2.22874 0.00798367 0)
(2.24242 0.0256819 0)
(2.26273 0.0374609 0)
(2.28939 0.0400071 0)
(2.31834 0.0374121 0)
(2.34888 0.0295541 0)
(2.37759 0.0247972 0)
(2.40413 0.0218383 0)
(2.42079 0.0245475 0)
(2.42705 0.0354696 0)
(2.44173 0.0424679 0)
(2.46772 0.0419258 0)
(2.49682 0.0395427 0)
(2.52557 0.0331965 0)
(2.55281 0.022403 0)
(2.57568 0.0119175 0)
(2.58166 0.0169582 0)
(2.58165 0.0349317 0)
(2.59862 0.0453471 0)
(2.62386 0.0489549 0)
(2.65172 0.05007 0)
(2.68209 0.0485333 0)
(2.71408 0.0415134 0)
(2.74366 0.0307177 0)
(2.77042 0.0175854 0)
(2.78581 0.00904602 0)
(2.78062 0.0237602 0)
(2.77998 0.0470813 0)
(2.79524 0.0584304 0)
(2.81913 0.0607908 0)
(2.84409 0.0610862 0)
(2.8716 0.057987 0)
(2.90465 0.0489705 0)
(2.93311 0.0393197 0)
(2.96183 0.0283221 0)
(2.98732 0.0147608 0)
(2.99507 0.00497308 0)
(2.96633 0.0229853 0)
(2.9549 0.0482358 0)
(1.7771 0.948515 0)
(2.11957 0.768772 0)
(2.41283 0.490648 0)
(2.52173 0.391666 0)
(2.59119 0.223339 0)
(2.6603 0.0352207 0)
(2.70189 0.0174045 0)
(2.70497 -0.0381799 0)
(2.72381 -0.121453 0)
(2.75754 -0.180571 0)
(2.76557 -0.185057 0)
(2.73441 -0.160563 0)
(2.68865 -0.18016 0)
(2.60779 -0.293728 0)
(2.42806 -0.574637 0)
(2.19007 -0.840094 0)
(2.1318 -0.883618 0)
(2.1446 -0.922623 0)
(2.04694 -0.746094 0)
(1.79801 -0.382693 0)
(1.58569 -0.173453 0)
(1.50561 -0.0613746 0)
(1.5167 -0.00605475 0)
(1.55978 0.0127768 0)
(1.58892 -0.00585759 0)
(1.62381 -0.0351282 0)
(1.65289 -0.0385023 0)
(1.66896 -0.0311499 0)
(1.68219 -0.0171481 0)
(1.70527 -0.0113692 0)
(1.73848 -0.00581536 0)
(1.77742 -0.00540976 0)
(1.81178 -0.0131294 0)
(1.83624 -0.0183207 0)
(1.85875 -0.016375 0)
(1.87624 0.000131328 0)
(1.8947 0.0185893 0)
(1.92348 0.0272199 0)
(1.95296 0.0280889 0)
(1.98165 0.0227612 0)
(2.00877 0.0179099 0)
(2.03466 0.017471 0)