/*--------------------------------*- C++ -*----------------------------------*\
  =========                 |
  \\      /  F ield         | OpenFOAM: The Open Source CFD Toolbox
   \\    /   O peration     | Website:  https://openfoam.org
    \\  /    A nd           | Version:  7
     \\/     M anipulation  |
\*---------------------------------------------------------------------------*/
FoamFile
{
    version     2.0;
    format      ascii;
    class       volScalarField;
    location    "2.3";
    object      p;
}
// * * * * * * * * * * * * * * * * * * * * * * * * * * * * * * * * * * * * * //

dimensions      [1 -1 -2 0 0 0 0];

internalField   nonuniform List<scalar> 
16192
(
1.31462
1.31216
1.31118
1.31068
1.30879
1.3058
1.30105
1.29333
1.28681
1.28538
1.28507
1.28544
1.28816
1.2938
1.29804
1.29647
1.29293
1.28869
1.28389
1.28153
1.2797
1.27856
1.28031
1.28728
1.29309
1.2911
1.2856
1.27882
1.27413
1.27077
1.26847
1.2696
1.27613
1.28583
1.29086
1.28831
1.28363
1.27529
1.26729
1.26285
1.25931
1.25968
1.26864
1.28287
1.28933
1.28746
1.28319
1.27766
1.27035
1.2658
1.26245
1.26123
1.26491
1.26622
1.26351
1.26064
1.25863
1.25704
1.25606
1.25719
1.26035
1.25976
1.25826
1.25695
1.2552
1.25213
1.24814
1.24571
1.24435
1.24323
1.24191
1.24058
1.23952
1.23887
1.23869
1.23876
1.23891
1.23927
1.23959
1.23841
1.23435
1.22912
1.22652
1.22769
1.23124
1.23601
1.24131
1.24623
1.24979
1.25151
1.25125
1.24917
1.24587
1.23908
1.22745
1.22321
1.22929
1.23603
1.2436
1.24803
1.25155
1.25429
1.25136
1.23859
1.22694
1.22882
1.23495
1.24298
1.25431
1.26006
1.2611
1.261
1.25407
1.2354
1.22688
1.22669
1.22794
1.23519
1.25376
1.26116
1.25505
1.24922
1.23897
1.23003
1.22945
1.22986
1.23216
1.24172
1.25393
1.2551
1.24944
1.23891
1.22445
1.21583
1.21315
1.21247
1.21691
1.23178
1.25535
1.26501
1.26252
1.25593
1.24265
1.2217
1.20945
1.20548
1.20313
1.20589
1.22271
1.24781
1.25627
1.25452
1.25056
1.24376
1.22929
1.21673
1.21282
1.21065
1.21217
1.22293
1.2346
1.23626
1.23408
1.22987
1.22105
1.21427
1.21221
1.21116
1.21363
1.22205
1.2278
1.22776
1.22597
1.22362
1.21893
1.21417
1.21186
1.21035
1.20991
1.2113
1.21214
1.21168
1.21121
1.21125
1.21189
1.21173
1.20951
1.20672
1.20482
1.20309
1.20131
1.19999
1.19914
1.19911
1.2015
1.20304
1.20151
1.19798
1.19313
1.18933
1.18762
1.18687
1.18634
1.18624
1.18736
1.18895
1.18983
1.1895
1.18781
1.18513
1.18322
1.18219
1.18124
1.18013
1.17876
1.17778
1.17782
1.1767
1.69316
4.73709
5.54321
5.60022
5.64898
5.6554
5.63519
5.6102
5.58698
5.57775
5.58723
5.58975
5.58893
5.5761
5.54014
5.49681
5.47564
5.46064
5.46173
5.47156
5.48028
5.47341
5.44359
5.40413
5.37213
5.35717
5.35904
5.36789
5.36458
5.33835
5.2974
5.25597
5.22337
5.2044
5.20021
1.30611
1.30372
1.30545
1.3088
1.31037
1.31023
1.30852
1.30348
1.29476
1.2892
1.28772
1.2871
1.28833
1.29262
1.29634
1.29517
1.29185
1.28801
1.28325
1.28029
1.27805
1.27649
1.27712
1.2804
1.28516
1.28755
1.28562
1.28253
1.2794
1.27666
1.27472
1.27439
1.27684
1.28174
1.28332
1.27972
1.27543
1.27276
1.2701
1.26694
1.26461
1.26562
1.27269
1.28214
1.28457
1.2804
1.27456
1.26949
1.26691
1.26475
1.2634
1.26528
1.26836
1.26673
1.26326
1.25935
1.25606
1.25434
1.25332
1.25422
1.25844
1.25966
1.2584
1.25698
1.25499
1.25131
1.24618
1.24281
1.24171
1.24167
1.24203
1.2423
1.24248
1.24274
1.24288
1.24261
1.24204
1.24154
1.241
1.23911
1.23458
1.22905
1.22598
1.22654
1.22945
1.2332
1.23646
1.23959
1.2438
1.24771
1.24969
1.24916
1.24733
1.24294
1.23476
1.22947
1.23439
1.24072
1.2477
1.25214
1.25547
1.25813
1.25592
1.24336
1.2292
1.2292
1.23514
1.24226
1.25056
1.25648
1.25836
1.25866
1.25476
1.2399
1.22912
1.22837
1.22928
1.23531
1.25309
1.26273
1.25733
1.25209
1.24478
1.23384
1.23056
1.23034
1.23134
1.23628
1.24548
1.25016
1.24698
1.24209
1.23429
1.22464
1.21852
1.21562
1.21693
1.22818
1.24681
1.25616
1.25396
1.24771
1.23933
1.22836
1.21818
1.21283
1.20978
1.2106
1.22281
1.24289
1.24909
1.2469
1.24279
1.23613
1.22692
1.22098
1.21788
1.2158
1.2167
1.22403
1.23158
1.23205
1.22974
1.22612
1.22174
1.218
1.21566
1.2142
1.21511
1.22032
1.22358
1.22265
1.22082
1.21903
1.21784
1.21694
1.21607
1.21574
1.21505
1.2132
1.21128
1.20949
1.2078
1.20665
1.20616
1.20658
1.20856
1.21052
1.20995
1.20755
1.20437
1.20064
1.19815
1.19714
1.19681
1.19799
1.19854
1.19771
1.19649
1.19431
1.19087
1.18752
1.18572
1.18504
1.18469
1.18474
1.18479
1.18478
1.18573
1.18691
1.18734
1.18636
1.18443
1.18227
1.17996
1.17763
1.1748
1.1727
1.66383
4.69334
5.59624
5.65533
5.68148
5.66874
5.63203
5.59587
5.5662
5.55156
5.55929
5.57195
5.5747
5.56977
5.54577
5.49795
5.4633
5.4338
5.41648
5.42066
5.44165
5.46211
5.46044
5.43199
5.39304
5.36049
5.34337
5.33993
5.33741
5.32468
5.29995
5.26872
5.23893
5.21588
5.20254
1.29626
1.29254
1.29386
1.29637
1.30172
1.30665
1.3083
1.30877
1.30635
1.30152
1.29949
1.29815
1.29749
1.29813
1.29932
1.29878
1.29627
1.29315
1.28922
1.28477
1.28126
1.27795
1.27491
1.27361
1.27508
1.27696
1.27866
1.27915
1.27899
1.27935
1.2809
1.28333
1.28553
1.28539
1.28082
1.27526
1.27058
1.26809
1.26721
1.26674
1.26761
1.27178
1.28082
1.28856
1.28671
1.28014
1.27172
1.26461
1.26181
1.26031
1.26168
1.26797
1.27091
1.26874
1.2659
1.26281
1.25907
1.25641
1.25471
1.25385
1.25548
1.25764
1.25667
1.25513
1.25316
1.24917
1.24203
1.23646
1.23492
1.2352
1.23671
1.23892
1.24019
1.24164
1.24347
1.2455
1.24695
1.24718
1.2463
1.24393
1.23975
1.23506
1.23154
1.22964
1.22901
1.22923
1.23016
1.23217
1.23475
1.2374
1.24
1.24208
1.24248
1.24036
1.23468
1.23025
1.23583
1.24301
1.25094
1.25625
1.26007
1.26372
1.26227
1.25012
1.23564
1.23315
1.23764
1.24208
1.24788
1.2527
1.25386
1.25408
1.25172
1.24201
1.23229
1.23097
1.23148
1.23469
1.24457
1.25867
1.25767
1.25332
1.24963
1.24211
1.23485
1.23255
1.23083
1.23106
1.23623
1.2424
1.24326
1.24002
1.23587
1.23175
1.22822
1.2252
1.22462
1.22938
1.24056
1.24955
1.24816
1.242
1.23498
1.22759
1.22248
1.21907
1.21673
1.21846
1.22933
1.24564
1.24858
1.24442
1.23786
1.22864
1.22293
1.22085
1.21917
1.21885
1.22298
1.23108
1.23283
1.23008
1.22601
1.22223
1.22065
1.21939
1.21841
1.21908
1.22262
1.2243
1.22214
1.21892
1.21508
1.21268
1.21218
1.21332
1.21581
1.21906
1.22045
1.21928
1.21691
1.21307
1.20765
1.20316
1.2008
1.20004
1.20237
1.20821
1.21138
1.21115
1.20945
1.20703
1.2031
1.19805
1.19439
1.19278
1.19235
1.19429
1.19649
1.19618
1.19543
1.1941
1.19114
1.18658
1.1828
1.18082
1.17965
1.1793
1.1803
1.18371
1.18761
1.18871
1.18818
1.18708
1.18526
1.18155
1.17332
1.16746
1.58102
4.59624
5.6973
5.69914
5.67782
5.66002
5.62864
5.59822
5.57243
5.54883
5.53958
5.54423
5.55439
5.56158
5.55699
5.53402
5.50877
5.48014
5.44683
5.41787
5.40547
5.41308
5.43295
5.4426
5.42792
5.39976
5.3716
5.34577
5.32266
5.30365
5.28637
5.26712
5.24737
5.23018
5.21751
1.30477
1.29854
1.29632
1.2968
1.29859
1.30029
1.30149
1.30173
1.30003
1.29816
1.29761
1.29769
1.29838
1.29965
1.29972
1.29746
1.295
1.29246
1.28955
1.28718
1.28505
1.28317
1.28147
1.28029
1.27969
1.27985
1.27988
1.27892
1.27781
1.27734
1.27782
1.27934
1.28143
1.28275
1.28212
1.2794
1.27579
1.27245
1.26991
1.26851
1.26889
1.27175
1.27769
1.28366
1.28325
1.27847
1.27313
1.26828
1.26495
1.26339
1.26519
1.26907
1.26848
1.2661
1.26355
1.26055
1.25851
1.25733
1.25643
1.25606
1.25731
1.25733
1.25632
1.2554
1.25407
1.25102
1.24564
1.24095
1.23856
1.23789
1.23821
1.23874
1.23929
1.24007
1.24131
1.2429
1.24418
1.24415
1.24239
1.23964
1.23704
1.23537
1.23485
1.23491
1.23499
1.23465
1.23342
1.23181
1.23151
1.23312
1.23593
1.23882
1.23955
1.23794
1.23477
1.23065
1.23282
1.2399
1.2472
1.25288
1.25661
1.25944
1.25636
1.24502
1.23638
1.23881
1.24414
1.24799
1.25037
1.25159
1.25177
1.25154
1.24938
1.24149
1.23502
1.2341
1.23378
1.23422
1.23933
1.25056
1.25513
1.25139
1.24837
1.24456
1.23945
1.23666
1.23396
1.23095
1.2301
1.23499
1.23892
1.23704
1.234
1.23162
1.22991
1.22877
1.22861
1.23057
1.23679
1.24592
1.24843
1.24301
1.23542
1.22829
1.22402
1.22061
1.21821
1.21938
1.22749
1.24114
1.24697
1.24447
1.23917
1.23188
1.22482
1.22083
1.21899
1.21871
1.22284
1.23072
1.23221
1.22944
1.22552
1.22177
1.21959
1.21797
1.21692
1.21782
1.22264
1.22582
1.22461
1.22227
1.21899
1.21561
1.21385
1.21333
1.21432
1.21627
1.21697
1.2167
1.21562
1.21366
1.2107
1.20773
1.20541
1.20359
1.20369
1.20628
1.20794
1.20792
1.20689
1.20525
1.20288
1.20014
1.19768
1.19569
1.19462
1.19465
1.19406
1.19355
1.19331
1.19271
1.19131
1.18903
1.18641
1.18403
1.1823
1.18106
1.18069
1.18264
1.18529
1.18634
1.18612
1.18554
1.1844
1.1809
1.17297
1.17483
1.4324
4.5149
5.91446
5.74841
5.67051
5.65655
5.65061
5.63584
5.6184
5.59579
5.56728
5.55016
5.54503
5.54661
5.5334
5.50718
5.48245
5.46176
5.44609
5.43143
5.41542
5.40251
5.40221
5.40719
5.4043
5.39787
5.38472
5.3627
5.33539
5.30782
5.28237
5.26023
5.24173
5.22654
5.21458
1.30471
1.30442
1.30625
1.30834
1.30873
1.3075
1.30493
1.2997
1.29317
1.29007
1.2886
1.28755
1.28772
1.28981
1.29114
1.28979
1.28773
1.28463
1.28095
1.27869
1.2772
1.27641
1.27674
1.27877
1.28239
1.28569
1.28676
1.28593
1.28393
1.28074
1.27688
1.27322
1.27151
1.27326
1.27693
1.27895
1.27857
1.27723
1.27597
1.27508
1.27427
1.27365
1.27397
1.2757
1.27646
1.27432
1.27141
1.26918
1.26813
1.26936
1.27196
1.27161
1.26927
1.26653
1.26283
1.25872
1.25675
1.25594
1.25561
1.25668
1.25894
1.25885
1.25827
1.25722
1.25454
1.24944
1.24454
1.24183
1.2412
1.24184
1.24267
1.24336
1.24413
1.24501
1.24557
1.24493
1.24239
1.23824
1.234
1.23105
1.22966
1.22937
1.22957
1.22977
1.23025
1.23176
1.23456
1.23798
1.2412
1.24357
1.24477
1.24469
1.24324
1.24175
1.24131
1.24099
1.24027
1.24229
1.24688
1.25052
1.25287
1.25116
1.24193
1.23066
1.22876
1.2347
1.24138
1.24701
1.25153
1.256
1.2589
1.25894
1.25345
1.24015
1.23409
1.23449
1.23522
1.23584
1.237
1.24295
1.24901
1.24615
1.24201
1.2385
1.23595
1.2337
1.23151
1.22992
1.2309
1.23685
1.24322
1.24293
1.23882
1.23442
1.23067
1.22814
1.22693
1.22768
1.23244
1.24165
1.24809
1.2452
1.23879
1.23275
1.22763
1.22386
1.22112
1.2204
1.22413
1.23223
1.23945
1.24012
1.23749
1.23447
1.23035
1.22592
1.22366
1.22243
1.22309
1.22618
1.22792
1.2267
1.22482
1.22324
1.22149
1.21965
1.21839
1.21781
1.2186
1.22027
1.22111
1.22093
1.22027
1.21976
1.21936
1.21871
1.21748
1.21559
1.21309
1.2104
1.20839
1.2072
1.20658
1.20655
1.20769
1.21012
1.21221
1.21157
1.20931
1.20653
1.20261
1.19898
1.1973
1.19663
1.19694
1.19846
1.19923
1.19858
1.19725
1.19497
1.19089
1.18638
1.18443
1.18409
1.18414
1.18412
1.18443
1.1855
1.18717
1.18838
1.18787
1.18656
1.18498
1.18265
1.17844
1.17149
1.17684
1.22754
1.5555
4.04206
6.06792
5.84657
5.67254
5.60552
5.59789
5.59971
5.59816
5.59366
5.5666
5.54663
5.53932
5.53934
5.5318
5.51113
5.48737
5.46465
5.44615
5.43676
5.43156
5.42912
5.4286
5.41641
5.39998
5.38177
5.36127
5.34658
5.33196
5.31468
5.29474
5.27452
5.25566
5.23867
5.22446
1.30505
1.30478
1.30658
1.30907
1.31033
1.30958
1.30647
1.30045
1.29503
1.29294
1.2914
1.28998
1.29031
1.29343
1.29564
1.29491
1.2932
1.28951
1.28409
1.28105
1.27897
1.27673
1.27567
1.2776
1.28189
1.28524
1.28608
1.28537
1.28341
1.28014
1.27661
1.27367
1.27272
1.27545
1.27942
1.2805
1.27925
1.27766
1.27628
1.27485
1.27313
1.27169
1.27196
1.27518
1.27721
1.2752
1.2724
1.27063
1.2706
1.27183
1.27145
1.26957
1.26729
1.26468
1.26142
1.25854
1.25721
1.25657
1.25663
1.25797
1.25844
1.25833
1.25798
1.2564
1.2525
1.24713
1.24346
1.24187
1.24178
1.24201
1.24244
1.24322
1.24426
1.24528
1.24562
1.24455
1.24191
1.23853
1.23575
1.23426
1.23379
1.23347
1.23228
1.23006
1.22837
1.22919
1.23289
1.23781
1.242
1.24395
1.24304
1.24037
1.23827
1.23869
1.24153
1.24517
1.24773
1.24963
1.25334
1.25669
1.25709
1.25207
1.24061
1.23227
1.23222
1.2364
1.24076
1.2445
1.24874
1.25534
1.26168
1.26436
1.25939
1.24337
1.23265
1.23234
1.23366
1.23633
1.24084
1.24786
1.25204
1.24858
1.24257
1.23751
1.23345
1.22922
1.22543
1.22346
1.22545
1.23315
1.24272
1.24601
1.24297
1.23814
1.23366
1.22975
1.2272
1.22722
1.23089
1.23773
1.24326
1.24322
1.23861
1.23354
1.22903
1.22531
1.22285
1.22276
1.22573
1.23092
1.23577
1.23706
1.23525
1.23309
1.23046
1.2273
1.22563
1.22461
1.2242
1.22554
1.22663
1.2255
1.22374
1.22196
1.22089
1.22011
1.21935
1.21883
1.21933
1.22116
1.22175
1.22112
1.22039
1.21989
1.21947
1.21874
1.21749
1.21579
1.21356
1.21091
1.20869
1.20757
1.20708
1.20713
1.20896
1.21198
1.21307
1.21197
1.20998
1.2071
1.20271
1.19887
1.19714
1.19636
1.19696
1.1992
1.19948
1.19904
1.19841
1.19647
1.19211
1.18687
1.18426
1.18349
1.18358
1.18384
1.18465
1.18638
1.18845
1.18901
1.18815
1.18681
1.18511
1.18189
1.1761
1.18276
1.24067
1.59096
2.14867
3.09748
5.17676
5.75598
5.76606
5.66077
5.5755
5.56917
5.57138
5.5969
5.57681
5.55383
5.53106
5.5163
5.50981
5.50132
5.48717
5.4692
5.45102
5.43843
5.42864
5.42686
5.42317
5.4141
5.40099
5.38153
5.35649
5.3376
5.32398
5.31294
5.29881
5.28025
5.25894
5.23852
5.22169
1.31215
1.30881
1.30603
1.30476
1.30354
1.30105
1.29732
1.29384
1.2926
1.29195
1.29127
1.29125
1.29296
1.29611
1.2971
1.29598
1.29395
1.28948
1.28459
1.28268
1.28117
1.27972
1.27993
1.283
1.28636
1.28681
1.28484
1.28186
1.27813
1.27439
1.27183
1.27145
1.27479
1.28064
1.28384
1.2829
1.28058
1.27811
1.27493
1.27158
1.26908
1.26761
1.26906
1.27452
1.2783
1.27795
1.27685
1.27602
1.27448
1.27229
1.2698
1.26712
1.26483
1.26255
1.26004
1.25889
1.25854
1.25872
1.25907
1.25891
1.25859
1.25824
1.2572
1.25418
1.24932
1.24587
1.24428
1.24393
1.24385
1.24345
1.24298
1.24283
1.24281
1.24222
1.24053
1.23819
1.23645
1.23557
1.23523
1.23523
1.23563
1.23597
1.23531
1.23348
1.23206
1.23249
1.23433
1.23668
1.2383
1.23791
1.23584
1.23421
1.23483
1.23755
1.24112
1.24445
1.24685
1.24826
1.25053
1.25273
1.25088
1.24352
1.2349
1.23406
1.23834
1.24317
1.24723
1.25073
1.254
1.25759
1.26197
1.26384
1.25758
1.24241
1.2324
1.2313
1.23101
1.23338
1.24064
1.24908
1.25232
1.25018
1.24617
1.24214
1.23768
1.23275
1.2282
1.22547
1.22661
1.23309
1.24213
1.24586
1.24262
1.23802
1.23419
1.23127
1.23001
1.23102
1.23396
1.23767
1.24073
1.24144
1.23789
1.23302
1.22855
1.22501
1.22295
1.22376
1.22732
1.2309
1.23338
1.23499
1.23487
1.23349
1.23179
1.22925
1.22704
1.22576
1.22472
1.2247
1.22495
1.22384
1.22224
1.22077
1.22007
1.21959
1.21923
1.21929
1.22088
1.22342
1.22375
1.22302
1.22192
1.22006
1.21742
1.21512
1.2138
1.2128
1.21164
1.21037
1.20964
1.20934
1.20925
1.20981
1.21115
1.21172
1.21096
1.2096
1.20756
1.2044
1.20107
1.19923
1.19826
1.19807
1.1992
1.19934
1.19871
1.19776
1.19603
1.19316
1.18981
1.18801
1.18736
1.18632
1.18563
1.18559
1.1856
1.18574
1.18631
1.18634
1.18556
1.18382
1.18159
1.17937
1.1895
1.2867
1.60762
2.34635
2.732
2.78865
3.53469
4.8146
5.57977
5.72401
5.64474
5.5741
5.5267
5.54156
5.54093
5.54644
5.54201
5.52539
5.50273
5.48887
5.47846
5.46499
5.45205
5.43815
5.4259
5.41179
5.39907
5.38959
5.37859
5.36514
5.35128
5.3364
5.3283
5.3194
5.305
5.28842
5.27121
5.25356
5.23746
1.31173
1.30756
1.30496
1.30341
1.30158
1.29908
1.29693
1.2953
1.29387
1.2927
1.29207
1.29252
1.29472
1.29723
1.29749
1.29627
1.2931
1.28732
1.28365
1.28225
1.28101
1.28069
1.28333
1.28772
1.28953
1.28705
1.2833
1.27975
1.27603
1.27293
1.27157
1.27353
1.27905
1.28401
1.28519
1.28417
1.28201
1.27713
1.27147
1.26791
1.26608
1.26597
1.27008
1.27728
1.28157
1.28225
1.28107
1.27744
1.27182
1.26703
1.26409
1.26274
1.26214
1.26119
1.25943
1.25876
1.2588
1.25917
1.25913
1.25901
1.25888
1.25838
1.25639
1.25165
1.24776
1.24628
1.24561
1.24536
1.2452
1.24463
1.24358
1.24232
1.2409
1.23905
1.23676
1.23539
1.2351
1.23488
1.23464
1.23481
1.23583
1.23699
1.23711
1.23607
1.23477
1.2344
1.23491
1.23558
1.2356
1.23459
1.23368
1.23447
1.23679
1.23964
1.24237
1.24462
1.24612
1.24715
1.24841
1.24873
1.24472
1.23684
1.2337
1.23702
1.24185
1.24591
1.25003
1.25423
1.25811
1.26172
1.26492
1.26504
1.25506
1.23734
1.23033
1.23127
1.23258
1.2366
1.24457
1.24789
1.24608
1.24304
1.24098
1.23892
1.236
1.23271
1.22998
1.22873
1.22998
1.2345
1.24133
1.24477
1.24148
1.23701
1.23384
1.23216
1.23233
1.23357
1.23435
1.23487
1.23682
1.23879
1.23653
1.23247
1.22851
1.22516
1.22357
1.22565
1.22961
1.23195
1.23287
1.23377
1.23437
1.23318
1.23104
1.22774
1.2245
1.22295
1.22243
1.22338
1.22413
1.22374
1.22269
1.22181
1.22128
1.22073
1.22007
1.21981
1.22129
1.2234
1.22352
1.22299
1.22173
1.21895
1.21596
1.21426
1.21306
1.21195
1.21112
1.21072
1.21052
1.21073
1.21177
1.21302
1.21329
1.21251
1.21112
1.20877
1.20547
1.20224
1.2003
1.19946
1.19971
1.20118
1.20153
1.20059
1.19908
1.19697
1.1941
1.19125
1.18998
1.18991
1.18954
1.18815
1.18665
1.1864
1.18628
1.18617
1.18622
1.18559
1.18384
1.18103
1.18168
1.19293
1.30383
1.75928
2.34153
2.81734
2.89055
2.84516
2.90539
3.45618
4.60996
5.405
5.61111
5.56972
5.52472
5.51768
5.50553
5.50939
5.51993
5.50788
5.48456
5.47097
5.46695
5.46099
5.4592
5.45492
5.44007
5.41786
5.39893
5.38365
5.37388
5.3594
5.3453
5.32875
5.30943
5.29577
5.28601
5.27839
5.27006
5.25344
5.23339
1.30715
1.30363
1.30105
1.2982
1.29556
1.29438
1.29449
1.29468
1.29456
1.29495
1.29641
1.29871
1.30096
1.3012
1.29986
1.29697
1.29197
1.28778
1.28653
1.28579
1.28569
1.28732
1.2901
1.29044
1.28723
1.28161
1.27665
1.27377
1.27205
1.27151
1.27375
1.27923
1.28525
1.28752
1.28739
1.28467
1.27822
1.2707
1.26641
1.26541
1.26621
1.27052
1.27917
1.2849
1.28545
1.28268
1.27638
1.26849
1.26299
1.26054
1.2597
1.26069
1.26247
1.26253
1.26132
1.26033
1.26035
1.26077
1.26092
1.2606
1.25979
1.25776
1.2533
1.2479
1.24583
1.24549
1.24557
1.24559
1.24545
1.24446
1.2422
1.23953
1.23721
1.23528
1.2338
1.23337
1.23366
1.23513
1.23744
1.2403
1.24319
1.24461
1.24334
1.23881
1.23378
1.23071
1.22927
1.22864
1.22817
1.22772
1.22807
1.23009
1.23284
1.23562
1.23846
1.2415
1.24442
1.24658
1.24724
1.24525
1.23974
1.23499
1.23584
1.23932
1.24387
1.24848
1.25263
1.2565
1.26004
1.26359
1.26683
1.26642
1.25547
1.2369
1.23095
1.23297
1.23462
1.23834
1.24571
1.24734
1.24569
1.24352
1.24173
1.23977
1.2369
1.23407
1.23192
1.23047
1.23003
1.23179
1.23724
1.24312
1.24239
1.23901
1.23669
1.23564
1.23543
1.23489
1.23336
1.23217
1.23362
1.23609
1.2344
1.23118
1.22809
1.22607
1.22685
1.23129
1.23468
1.2343
1.23235
1.23059
1.22942
1.22772
1.22557
1.22404
1.22342
1.22468
1.22733
1.22911
1.22905
1.2273
1.22375
1.22029
1.2183
1.21721
1.21681
1.21829
1.22268
1.22552
1.22583
1.22507
1.22149
1.21625
1.21318
1.21193
1.2113
1.21098
1.21164
1.21366
1.21491
1.21501
1.21461
1.21366
1.21177
1.20909
1.20642
1.20412
1.20259
1.20202
1.20293
1.20441
1.20477
1.2037
1.20163
1.19845
1.19498
1.19261
1.19151
1.19134
1.19239
1.19316
1.19264
1.19037
1.18725
1.1856
1.18462
1.18343
1.18203
1.18017
1.17966
1.18287
1.20459
1.31702
1.82446
2.43719
2.80162
2.91899
2.91216
2.8891
2.87639
2.92209
3.33803
4.3358
5.21429
5.41765
5.49709
5.52245
5.50525
5.48148
5.47249
5.46697
5.46439
5.48476
5.49603
5.48782
5.47713
5.45936
5.43867
5.42649
5.41749
5.40988
5.40306
5.38694
5.36648
5.34312
5.31994
5.30345
5.29336
5.2852
5.27307
5.25091
5.2267
1.30206
1.29859
1.29544
1.29355
1.29314
1.29414
1.29811
1.30304
1.30621
1.30724
1.30653
1.30392
1.30057
1.29725
1.29353
1.28979
1.28781
1.28722
1.28689
1.28701
1.28788
1.28798
1.286
1.28236
1.27755
1.27378
1.27212
1.27161
1.27297
1.27685
1.28262
1.28824
1.28979
1.28852
1.28395
1.27664
1.26993
1.26686
1.26691
1.26879
1.27459
1.28326
1.28661
1.28538
1.28043
1.27305
1.26513
1.26095
1.25967
1.25987
1.26298
1.26782
1.26909
1.26865
1.26615
1.26406
1.26355
1.26284
1.26163
1.25984
1.25699
1.25269
1.2483
1.24658
1.24649
1.24857
1.25046
1.24988
1.24815
1.24472
1.24019
1.23718
1.23566
1.23487
1.23487
1.23609
1.23939
1.24358
1.24599
1.24658
1.24599
1.24243
1.23625
1.22912
1.2244
1.22205
1.22101
1.22115
1.22221
1.22397
1.2266
1.2304
1.2356
1.2417
1.24752
1.25182
1.25438
1.25472
1.25029
1.24377
1.23923
1.23952
1.24219
1.24593
1.25091
1.25516
1.25832
1.26095
1.26222
1.26221
1.2618
1.25923
1.24892
1.23383
1.23078
1.23337
1.23535
1.23884
1.24457
1.24743
1.2478
1.24774
1.24668
1.24338
1.23945
1.23621
1.23324
1.23057
1.22905
1.23047
1.23719
1.2451
1.24514
1.24215
1.23982
1.23746
1.23452
1.23214
1.23009
1.22887
1.23019
1.23335
1.23314
1.23149
1.23069
1.23235
1.2354
1.23549
1.23302
1.22914
1.22522
1.22321
1.2222
1.22299
1.2256
1.22927
1.23284
1.23448
1.23405
1.23087
1.22632
1.22154
1.21734
1.21499
1.21406
1.21418
1.21707
1.22375
1.22926
1.23003
1.22866
1.2239
1.21668
1.21233
1.21121
1.21093
1.21163
1.21466
1.21828
1.21918
1.21809
1.21542
1.21155
1.20834
1.20627
1.20503
1.20443
1.20518
1.20737
1.20931
1.20958
1.20782
1.20429
1.19967
1.19563
1.19331
1.19248
1.19245
1.19457
1.19753
1.19833
1.19733
1.19369
1.18796
1.18369
1.18157
1.18038
1.17941
1.17817
1.17829
1.18382
1.2197
1.41353
1.85341
2.57582
2.80219
2.90558
2.90683
2.90378
2.89967
2.88045
2.88085
2.91738
3.19986
4.03936
4.90927
5.31479
5.48791
5.49445
5.45004
5.42865
5.42714
5.45678
5.50448
5.50568
5.4896
5.45917
5.43411
5.42469
5.41916
5.41437
5.40376
5.38781
5.37026
5.3541
5.34515
5.33359
5.31989
5.30529
5.28894
5.27139
5.25026
5.23338
1.29674
1.29553
1.29522
1.29697
1.30219
1.3088
1.31321
1.31337
1.31021
1.30348
1.29768
1.29234
1.28782
1.28472
1.2832
1.28267
1.28274
1.28391
1.28479
1.28506
1.28447
1.28288
1.28024
1.2772
1.27582
1.27591
1.27727
1.28019
1.28386
1.28666
1.28727
1.28614
1.28358
1.2797
1.27423
1.26951
1.268
1.26896
1.27225
1.27924
1.28577
1.28663
1.28455
1.27921
1.2709
1.26324
1.26053
1.26026
1.26175
1.26732
1.27331
1.27408
1.2723
1.26749
1.2628
1.26124
1.26037
1.25929
1.25764
1.25513
1.25213
1.2495
1.24857
1.24892
1.25247
1.25603
1.2557
1.25315
1.24798
1.24234
1.23885
1.2375
1.23714
1.23754
1.23951
1.24281
1.24511
1.24482
1.24349
1.24134
1.23799
1.23221
1.22398
1.21978
1.21839
1.21836
1.21952
1.22241
1.22669
1.2318
1.23749
1.24376
1.25006
1.25444
1.25612
1.25559
1.25236
1.24926
1.24546
1.24169
1.2417
1.24417
1.24697
1.24958
1.25144
1.25265
1.25323
1.25413
1.25456
1.25396
1.25262
1.25028
1.24467
1.23786
1.23794
1.24085
1.24357
1.24709
1.24973
1.25
1.24918
1.24737
1.24408
1.24029
1.23758
1.23519
1.23244
1.2305
1.2306
1.23432
1.24217
1.24638
1.24453
1.24213
1.23988
1.23511
1.22923
1.22676
1.22561
1.22562
1.22875
1.23374
1.23606
1.23719
1.23811
1.23796
1.2351
1.22932
1.22349
1.22009
1.21867
1.21837
1.22056
1.22723
1.23616
1.24023
1.24033
1.23711
1.2305
1.22362
1.21746
1.21439
1.21324
1.21299
1.21442
1.21933
1.22663
1.23044
1.23021
1.22797
1.22345
1.21694
1.21274
1.21192
1.21203
1.21377
1.21761
1.21994
1.21936
1.21712
1.21339
1.20908
1.20654
1.20549
1.20524
1.20662
1.21014
1.21308
1.21335
1.21131
1.20714
1.20199
1.19685
1.19403
1.19303
1.19281
1.1947
1.19919
1.20162
1.20115
1.19823
1.19295
1.18666
1.18255
1.18069
1.18002
1.1795
1.18004
1.18246
1.18954
1.22701
1.49201
2.0563
2.58101
2.88821
2.89287
2.90274
2.90882
2.90071
2.90676
2.90358
2.89575
2.88922
2.90728
3.07588
3.71815
4.58442
5.25006
5.45404
5.40388
5.39536
5.39774
5.45309
5.50022
5.50099
5.4763
5.43789
5.42179
5.41583
5.41633
5.40854
5.39404
5.37059
5.35388
5.34145
5.33941
5.33201
5.31828
5.29851
5.27401
5.25289
5.24203
5.23621
1.29684
1.29909
1.30497
1.31228
1.31679
1.31695
1.31476
1.30943
1.30188
1.29237
1.28515
1.28276
1.28162
1.28109
1.28135
1.28369
1.28665
1.28821
1.28806
1.28721
1.2859
1.28419
1.28319
1.28338
1.28468
1.28637
1.28693
1.28618
1.28419
1.28244
1.28114
1.27934
1.2761
1.27216
1.26963
1.2697
1.27156
1.27622
1.28328
1.28711
1.28708
1.28427
1.27776
1.26871
1.26241
1.26083
1.26123
1.26458
1.27221
1.27744
1.27743
1.27475
1.26861
1.26172
1.25848
1.25726
1.25634
1.25533
1.25404
1.25243
1.25125
1.25106
1.25298
1.25727
1.25928
1.25845
1.25589
1.25084
1.24388
1.23956
1.23827
1.23773
1.23816
1.24044
1.24183
1.24176
1.24124
1.24029
1.23872
1.23568
1.23006
1.22354
1.22006
1.21954
1.22046
1.22339
1.228
1.23333
1.23795
1.24162
1.24482
1.2471
1.2482
1.24836
1.24756
1.24531
1.24053
1.23522
1.23428
1.23553
1.23796
1.24062
1.24239
1.24369
1.24425
1.24497
1.24665
1.25016
1.25531
1.25824
1.25942
1.26027
1.25939
1.25509
1.24991
1.24772
1.24687
1.24533
1.24396
1.24412
1.24412
1.24291
1.24179
1.24122
1.24036
1.2368
1.23325
1.23199
1.23323
1.23827
1.24367
1.24412
1.24253
1.241
1.2375
1.22934
1.22453
1.22359
1.22359
1.22593
1.23256
1.23975
1.24228
1.24279
1.24191
1.23647
1.22769
1.21992
1.21711
1.2164
1.21677
1.21986
1.22903
1.24035
1.24374
1.24292
1.2391
1.23229
1.22254
1.21546
1.21326
1.21272
1.21328
1.21669
1.22328
1.22837
1.22909
1.22797
1.22611
1.223
1.21814
1.21472
1.21421
1.2148
1.21698
1.21937
1.2194
1.21823
1.21608
1.21237
1.20853
1.20688
1.20644
1.20715
1.21032
1.21448
1.21574
1.21457
1.21172
1.20742
1.2012
1.19603
1.1942
1.19369
1.19435
1.19828
1.20292
1.20357
1.20219
1.19914
1.19379
1.18674
1.18295
1.18197
1.18172
1.18219
1.18441
1.18756
1.1964
1.25127
1.50438
2.19783
2.64883
2.87131
2.92941
2.92233
2.91409
2.90828
2.91191
2.91139
2.91414
2.89932
2.88341
2.87575
2.87874
2.9712
3.4196
4.27485
5.0927
5.31471
5.34525
5.37249
5.44776
5.48291
5.48192
5.45699
5.42356
5.41433
5.41663
5.42474
5.41405
5.39465
5.36982
5.35381
5.34278
5.34041
5.3293
5.31424
5.29262
5.26254
5.24201
5.23517
5.23477
1.30476
1.31225
1.31723
1.31737
1.31589
1.31359
1.30986
1.3027
1.29139
1.28425
1.28232
1.28196
1.28306
1.28652
1.29073
1.29446
1.29595
1.29555
1.29462
1.29329
1.29189
1.29096
1.29068
1.29051
1.28973
1.28754
1.2847
1.28196
1.27963
1.27754
1.27531
1.27286
1.27062
1.26972
1.27074
1.27413
1.28042
1.28649
1.28855
1.28818
1.28435
1.27632
1.26682
1.2621
1.26133
1.26233
1.26722
1.27566
1.27975
1.27933
1.27647
1.27001
1.26073
1.25586
1.25503
1.25467
1.25428
1.25362
1.25292
1.25279
1.25394
1.25738
1.2606
1.2606
1.25948
1.25749
1.2531
1.24465
1.23873
1.23765
1.23709
1.23718
1.23938
1.24041
1.23965
1.23866
1.23754
1.23633
1.23446
1.23105
1.22634
1.22392
1.22413
1.22578
1.22852
1.23135
1.23341
1.23502
1.23714
1.23968
1.24161
1.24226
1.24218
1.24154
1.23903
1.23292
1.22863
1.22846
1.22981
1.23307
1.23647
1.23833
1.23973
1.2411
1.24278
1.24575
1.25192
1.26158
1.26895
1.27084
1.27027
1.26602
1.25767
1.2496
1.24309
1.23955
1.23771
1.2373
1.23861
1.24311
1.24789
1.25029
1.25117
1.24996
1.24337
1.235
1.23206
1.2319
1.23436
1.24034
1.24356
1.24368
1.24305
1.2407
1.23238
1.22422
1.22294
1.22333
1.22554
1.23192
1.24115
1.24519
1.24553
1.24422
1.23884
1.22898
1.21926
1.21602
1.21582
1.21669
1.22025
1.23
1.24082
1.24302
1.24201
1.23945
1.23381
1.22342
1.21587
1.21396
1.21375
1.21515
1.21966
1.225
1.22711
1.22691
1.22589
1.22459
1.22225
1.21903
1.21719
1.21741
1.21846
1.21928
1.21921
1.21852
1.21737
1.21557
1.21246
1.20952
1.20838
1.20842
1.21027
1.21421
1.21669
1.21629
1.21464
1.21215
1.20783
1.20137
1.19675
1.19532
1.19514
1.197
1.20179
1.2047
1.20417
1.20257
1.2
1.19483
1.1879
1.1845
1.18392
1.18394
1.1858
1.18824
1.19008
1.19892
1.29945
1.62264
2.22113
2.74448
2.87761
2.92756
2.92656
2.91896
2.91623
2.91542
2.90748
2.90391
2.90259
2.9001
2.88827
2.87342
2.86716
2.86756
2.91169
3.20034
3.934
4.80475
5.14747
5.32041
5.43458
5.4619
5.45676
5.43525
5.41561
5.41147
5.42062
5.4255
5.41722
5.40013
5.38048
5.36378
5.35136
5.34157
5.32846
5.31269
5.28872
5.26109
5.24325
5.2342
5.2263
1.31573
1.31687
1.31606
1.31466
1.31282
1.30968
1.303
1.29287
1.28664
1.28521
1.28559
1.28852
1.2937
1.29734
1.29767
1.29675
1.29572
1.29476
1.29381
1.29304
1.29229
1.29149
1.29037
1.28878
1.28669
1.28378
1.27991
1.27615
1.27347
1.27188
1.2708
1.27003
1.27017
1.27235
1.27771
1.28462
1.28897
1.28997
1.28887
1.28376
1.27451
1.26583
1.26273
1.26246
1.26412
1.27023
1.27861
1.28122
1.28044
1.27723
1.26993
1.25993
1.25532
1.25435
1.25374
1.25355
1.25385
1.25422
1.25482
1.25649
1.25978
1.26116
1.26038
1.2594
1.2581
1.25485
1.24686
1.23934
1.23766
1.23698
1.2368
1.23823
1.23982
1.23934
1.23837
1.23726
1.23595
1.23438
1.23265
1.23051
1.22868
1.22872
1.22916
1.22959
1.23002
1.23052
1.23128
1.23208
1.23314
1.2353
1.23642
1.23629
1.2357
1.2341
1.23109
1.22881
1.22861
1.23072
1.23535
1.23899
1.2404
1.24159
1.24307
1.24518
1.24921
1.2568
1.26588
1.27062
1.27098
1.26957
1.26569
1.25896
1.24771
1.2383
1.23587
1.23493
1.23477
1.23824
1.24679
1.25533
1.25876
1.25861
1.25421
1.24529
1.23496
1.23076
1.23039
1.23155
1.23683
1.2436
1.24545
1.24566
1.2442
1.23673
1.22588
1.22276
1.22333
1.22544
1.23146
1.24088
1.24524
1.24562
1.24469
1.24063
1.23156
1.22087
1.21668
1.21666
1.21777
1.22122
1.22928
1.23799
1.2402
1.23978
1.23844
1.23426
1.2254
1.21809
1.21609
1.21614
1.21808
1.222
1.22485
1.2255
1.22496
1.22388
1.22266
1.22144
1.22025
1.21973
1.2205
1.22118
1.22097
1.21953
1.21785
1.21656
1.21484
1.21277
1.21108
1.21056
1.21119
1.21381
1.21673
1.21723
1.2161
1.21461
1.21238
1.2081
1.20223
1.19844
1.19729
1.19747
1.20019
1.20427
1.20502
1.20398
1.2026
1.20032
1.19558
1.18945
1.18642
1.18604
1.18664
1.18834
1.1903
1.19138
1.20405
1.32089
1.81014
2.33974
2.76393
2.90502
2.92078
2.93286
2.92935
2.92084
2.90631
2.89649
2.89318
2.89018
2.89262
2.89386
2.89247
2.88404
2.87469
2.8659
2.85871
2.87719
3.03417
3.59625
4.39164
5.05983
5.34445
5.40452
5.40707
5.41503
5.42205
5.43252
5.43915
5.43474
5.42015
5.4065
5.39609
5.38292
5.36615
5.34626
5.32522
5.30379
5.28292
5.26495
5.25097
5.237
5.22197
1.31574
1.31486
1.31356
1.31178
1.30884
1.30336
1.29604
1.29092
1.28983
1.29057
1.29391
1.29749
1.29796
1.29709
1.29598
1.29453
1.29289
1.29174
1.29088
1.29024
1.28965
1.28896
1.28789
1.28593
1.28249
1.2778
1.27363
1.27142
1.27023
1.26951
1.26938
1.27056
1.27476
1.28175
1.28823
1.2909
1.29119
1.28913
1.28296
1.27247
1.26499
1.26287
1.26315
1.26578
1.27281
1.28066
1.2824
1.28137
1.27787
1.26991
1.25998
1.25551
1.25456
1.25441
1.25528
1.25636
1.25706
1.2578
1.25895
1.2606
1.26107
1.26051
1.25956
1.25805
1.25531
1.2492
1.24166
1.23896
1.23822
1.23808
1.23921
1.24019
1.23996
1.23929
1.23834
1.23718
1.23592
1.23466
1.23361
1.23247
1.23
1.22855
1.22825
1.22826
1.22857
1.22866
1.2284
1.22901
1.23169
1.23446
1.23522
1.23523
1.23446
1.23243
1.23128
1.23208
1.23458
1.23862
1.24262
1.24449
1.24534
1.24643
1.24844
1.25235
1.25848
1.26387
1.26629
1.26729
1.26724
1.26535
1.25946
1.24787
1.23913
1.23668
1.23586
1.23712
1.2438
1.25399
1.26036
1.26079
1.25902
1.25535
1.24824
1.23621
1.23015
1.2297
1.23069
1.23539
1.24358
1.24766
1.24806
1.24685
1.24066
1.22908
1.22293
1.22336
1.22536
1.23074
1.23992
1.24447
1.24475
1.24394
1.24086
1.23399
1.22473
1.21954
1.21942
1.22069
1.22357
1.22849
1.23408
1.23682
1.23701
1.23592
1.23298
1.22711
1.22128
1.21951
1.22002
1.22191
1.22347
1.22384
1.22366
1.22287
1.22176
1.22075
1.22031
1.22048
1.22198
1.22356
1.2239