/*--------------------------------*- C++ -*----------------------------------*\
  =========                 |
  \\      /  F ield         | OpenFOAM: The Open Source CFD Toolbox
   \\    /   O peration     | Website:  https://openfoam.org
    \\  /    A nd           | Version:  7
     \\/     M anipulation  |
\*---------------------------------------------------------------------------*/
FoamFile
{
    version     2.0;
    format      ascii;
    class       volVectorField;
    location    "2.3";
    object      U;
}
// * * * * * * * * * * * * * * * * * * * * * * * * * * * * * * * * * * * * * //

dimensions      [0 1 -1 0 0 0 0];

internalField   nonuniform List<vector> 
16192
(
(2.33371 0.000404351 0)
(2.33188 -0.000924493 0)
(2.33118 -0.00132263 0)
(2.331 -0.00133975 0)
(2.3305 -0.000883225 0)
(2.3294 -0.000258404 0)
(2.32715 0.0005786 0)
(2.32268 0.00181254 0)
(2.31822 0.0028912 0)
(2.31698 0.00315223 0)
(2.31664 0.00324149 0)
(2.31691 0.00325858 0)
(2.31929 0.00299866 0)
(2.32435 0.00251439 0)
(2.32838 0.00201539 0)
(2.32822 0.00179459 0)
(2.32698 0.00166689 0)
(2.32484 0.00158171 0)
(2.32216 0.00179056 0)
(2.32093 0.0018427 0)
(2.31949 0.00188477 0)
(2.31863 0.00198979 0)
(2.31932 0.00169825 0)
(2.32293 1.87399e-06 0)
(2.32707 -0.00219425 0)
(2.32776 -0.00282593 0)
(2.32714 -0.00258668 0)
(2.3259 -0.00168959 0)
(2.32549 -0.00081252 0)
(2.32572 -0.000455104 0)
(2.32683 0.000130086 0)
(2.3302 0.000625703 0)
(2.33687 0.000403718 0)
(2.34564 -0.000968302 0)
(2.35124 -0.00278944 0)
(2.35253 -0.00365151 0)
(2.35295 -0.00408918 0)
(2.35196 -0.00406717 0)
(2.35217 -0.003312 0)
(2.35412 -0.00265311 0)
(2.35561 -0.00217585 0)
(2.35969 -0.00150962 0)
(2.36958 -0.00100325 0)
(2.38341 -0.000973638 0)
(2.39144 -0.00152205 0)
(2.39305 -0.0022167 0)
(2.39371 -0.00306877 0)
(2.39449 -0.00381087 0)
(2.39519 -0.00362749 0)
(2.39843 -0.00329754 0)
(2.40166 -0.00298908 0)
(2.40565 -0.00222158 0)
(2.41277 -0.00127732 0)
(2.4169 -0.00103926 0)
(2.41858 -0.00109203 0)
(2.42055 -0.00116993 0)
(2.42262 -0.00116084 0)
(2.42459 -0.00117711 0)
(2.42673 -0.00116076 0)
(2.43071 -0.00110481 0)
(2.43551 -0.00108145 0)
(2.43728 -0.00101871 0)
(2.43914 -0.000875751 0)
(2.44035 -0.000717459 0)
(2.44064 -0.000676173 0)
(2.4398 -0.000874397 0)
(2.43861 -0.00115848 0)
(2.43853 -0.00135025 0)
(2.43913 -0.00137864 0)
(2.44 -0.00137845 0)
(2.44108 -0.00128084 0)
(2.44249 -0.00114686 0)
(2.44421 -0.000774425 0)
(2.44585 -5.60838e-05 0)
(2.44691 0.000909332 0)
(2.44699 0.00190763 0)
(2.446 0.00266427 0)
(2.44429 0.00289149 0)
(2.44224 0.00253213 0)
(2.43962 0.00187932 0)
(2.436 0.00143032 0)
(2.43206 0.0014696 0)
(2.42981 0.00183557 0)
(2.42973 0.00215243 0)
(2.43079 0.0024374 0)
(2.43184 0.00265173 0)
(2.43178 0.00237115 0)
(2.43025 0.00145202 0)
(2.42781 0.000517786 0)
(2.42444 4.65741e-05 0)
(2.41988 -0.000147611 0)
(2.41421 -0.000426834 0)
(2.40873 -0.000836257 0)
(2.40297 -0.000372748 0)
(2.39396 0.00147646 0)
(2.38763 0.00320229 0)
(2.38734 0.00353694 0)
(2.38782 0.00377498 0)
(2.38887 0.00389599 0)
(2.38818 0.00371602 0)
(2.38734 0.00344101 0)
(2.38561 0.00280053 0)
(2.38068 0.00222891 0)
(2.36893 0.00239968 0)
(2.35711 0.00302376 0)
(2.35465 0.00325619 0)
(2.35519 0.00337103 0)
(2.35745 0.00348795 0)
(2.36187 0.00282118 0)
(2.3623 0.00187244 0)
(2.36042 0.00169121 0)
(2.35829 0.00161811 0)
(2.3506 0.00173985 0)
(2.33456 0.0029785 0)
(2.32546 0.00403371 0)
(2.32063 0.00453059 0)
(2.31483 0.00506445 0)
(2.31353 0.00485329 0)
(2.32199 0.00392684 0)
(2.32273 0.00281325 0)
(2.31608 0.00261253 0)
(2.30971 0.00241371 0)
(2.29878 0.00271182 0)
(2.29002 0.00315842 0)
(2.28692 0.0031694 0)
(2.28339 0.00296149 0)
(2.28199 0.00243133 0)
(2.2861 0.000648995 0)
(2.29366 -0.00179802 0)
(2.29568 -0.00275724 0)
(2.29444 -0.00291941 0)
(2.28998 -0.00297525 0)
(2.28392 -0.00110741 0)
(2.28041 0.000908267 0)
(2.27984 0.00146765 0)
(2.2801 0.00156012 0)
(2.28468 0.00114933 0)
(2.29776 -0.000309987 0)
(2.31681 -0.00255125 0)
(2.32783 -0.00420623 0)
(2.33001 -0.0047769 0)
(2.33072 -0.00524223 0)
(2.32738 -0.00503728 0)
(2.31956 -0.00377544 0)
(2.31726 -0.00196084 0)
(2.31926 -0.00130549 0)
(2.32138 -0.000868054 0)
(2.32807 -0.000417011 0)
(2.3446 -0.00036832 0)
(2.36634 -0.00131768 0)
(2.37584 -0.00276737 0)
(2.37779 -0.00357011 0)
(2.37963 -0.00432987 0)
(2.37965 -0.00460205 0)
(2.37431 -0.00373081 0)
(2.37078 -0.00288294 0)
(2.37267 -0.00218447 0)
(2.37467 -0.0016213 0)
(2.37941 -0.000816337 0)
(2.39017 -0.000520011 0)
(2.40124 -0.001129 0)
(2.40478 -0.00189248 0)
(2.40599 -0.00218951 0)
(2.40684 -0.00222457 0)
(2.40458 -0.00180869 0)
(2.4036 -0.00105324 0)
(2.405 -0.000697209 0)
(2.40645 -0.000346472 0)
(2.41102 -2.88645e-05 0)
(2.4195 -7.33654e-05 0)
(2.42583 -0.000795886 0)
(2.42768 -0.00162671 0)
(2.42891 -0.00222363 0)
(2.43032 -0.00252055 0)
(2.43041 -0.00234487 0)
(2.43082 -0.00148432 0)
(2.43247 -0.000687967 0)
(2.43392 3.74459e-05 0)
(2.43564 0.000741706 0)
(2.43838 0.000957845 0)
(2.44058 0.000677913 0)
(2.44188 0.000366782 0)
(2.44291 -0.000106467 0)
(2.44443 -0.000782462 0)
(2.4466 -0.00163559 0)
(2.44875 -0.00226531 0)
(2.45026 -0.00227617 0)
(2.45202 -0.00147387 0)
(2.45377 -0.000687233 0)
(2.45505 2.02726e-05 0)
(2.4562 0.000437891 0)
(2.45746 0.000560481 0)
(2.45877 0.000500266 0)
(2.46094 0.000256272 0)
(2.46459 -0.000728947 0)
(2.46793 -0.00181873 0)
(2.46985 -0.00189485 0)
(2.4715 -0.00138152 0)
(2.47132 -0.000593927 0)
(2.47133 0.000324951 0)
(2.47215 0.000808332 0)
(2.47319 0.000866333 0)
(2.47419 0.000811325 0)
(2.47556 0.000736334 0)
(2.4775 0.000367887 0)
(2.47922 -0.000526541 0)
(2.48099 -0.00148093 0)
(2.48253 -0.00202782 0)
(2.48354 -0.00203788 0)
(2.48445 -0.0013555 0)
(2.48523 -0.000455893 0)
(2.48606 0.000462827 0)
(2.48643 0.00100304 0)
(2.48657 0.00129458 0)
(2.48632 0.00138601 0)
(2.48634 0.00103754 0)
(2.48687 0.000409967 0)
(2.48845 -0.000370169 0)
(2.19309 0.005776 0)
(0.989261 0.0141653 0)
(0.813121 0.00802541 0)
(0.806795 0.00294258 0)
(0.804694 -0.00385102 0)
(0.811796 -0.00717692 0)
(0.820654 -0.00827117 0)
(0.829697 -0.00894331 0)
(0.83952 -0.00889717 0)
(0.850622 -0.00760296 0)
(0.862025 -0.00503078 0)
(0.869904 -0.0028321 0)
(0.875499 -0.001686 0)
(0.879084 -0.00166349 0)
(0.878129 -0.00181088 0)
(0.875611 -0.00297931 0)
(0.878121 -0.00484807 0)
(0.884962 -0.00851167 0)
(0.896552 -0.0124467 0)
(0.912434 -0.0148867 0)
(0.929962 -0.0158145 0)
(0.946201 -0.0156012 0)
(0.958142 -0.0142415 0)
(0.96741 -0.0124958 0)
(0.977459 -0.0110773 0)
(0.990388 -0.0101318 0)
(1.00628 -0.00976066 0)
(1.02271 -0.0103829 0)
(1.03661 -0.0113501 0)
(1.04636 -0.0115401 0)
(1.05309 -0.0107279 0)
(1.05895 -0.00944837 0)
(1.06547 -0.00822152 0)
(1.07392 -0.00763241 0)
(1.08516 -0.00812616 0)
(2.33451 0.00554924 0)
(2.33254 0.00243091 0)
(2.33281 0.000662822 0)
(2.33361 -0.00276394 0)
(2.33369 -0.00565317 0)
(2.33365 -0.00616475 0)
(2.33268 -0.00537347 0)
(2.32949 -0.00251886 0)
(2.32436 0.00243616 0)
(2.32138 0.00590125 0)
(2.32094 0.00719424 0)
(2.32111 0.00831176 0)
(2.32242 0.00919234 0)
(2.32612 0.00900453 0)
(2.32963 0.00769951 0)
(2.32969 0.00671207 0)
(2.32876 0.00643424 0)
(2.32713 0.00619281 0)
(2.32446 0.00671675 0)
(2.32321 0.00714001 0)
(2.32182 0.00732163 0)
(2.32092 0.00757937 0)
(2.32179 0.00736326 0)
(2.32542 0.00548859 0)
(2.32958 0.000665704 0)
(2.33103 -0.00490328 0)
(2.33059 -0.00738699 0)
(2.3301 -0.00758025 0)
(2.33013 -0.00682153 0)
(2.33102 -0.00552729 0)
(2.33304 -0.0033862 0)
(2.33661 -0.000221492 0)
(2.3418 0.00221907 0)
(2.34805 0.0014316 0)
(2.3522 -0.00183135 0)
(2.35259 -0.00408915 0)
(2.35349 -0.00788975 0)
(2.35544 -0.0112446 0)
(2.35691 -0.0116065 0)
(2.3585 -0.0104862 0)
(2.3613 -0.00838658 0)
(2.3667 -0.00561717 0)
(2.3764 -0.00253091 0)
(2.38789 -0.00036001 0)
(2.39359 -5.5023e-05 0)
(2.39456 -0.000352495 0)
(2.39487 -0.00271816 0)
(2.39601 -0.00701171 0)
(2.3987 -0.00912213 0)
(2.40142 -0.00945532 0)
(2.40473 -0.00876014 0)
(2.41112 -0.00605426 0)
(2.41777 -0.00233118 0)
(2.42024 -0.00130283 0)
(2.42254 -0.000802882 0)
(2.42382 -6.70542e-06 0)
(2.42504 0.000498177 0)
(2.42687 0.000536158 0)
(2.42855 0.000376902 0)
(2.43184 -0.000216993 0)
(2.43737 -0.00154896 0)
(2.44052 -0.00215098 0)
(2.44208 -0.00222148 0)
(2.44386 -0.00238833 0)
(2.44489 -0.00244861 0)
(2.44419 -0.00211678 0)
(2.4417 -0.0016241 0)
(2.44048 -0.00159779 0)
(2.44093 -0.00224241 0)
(2.44194 -0.00319756 0)
(2.4433 -0.00437418 0)
(2.44496 -0.00488731 0)
(2.44686 -0.00465021 0)
(2.44862 -0.00364658 0)
(2.45004 -0.00179137 0)
(2.45069 0.0010778 0)
(2.44994 0.00454164 0)
(2.44795 0.00705932 0)
(2.44558 0.00763378 0)
(2.4428 0.00687969 0)
(2.43902 0.00617604 0)
(2.43475 0.00626848 0)
(2.43189 0.00730771 0)
(2.43101 0.00830895 0)
(2.43119 0.00869237 0)
(2.43138 0.00836587 0)
(2.4309 0.00737626 0)
(2.42985 0.00562192 0)
(2.42886 0.00313284 0)
(2.42718 0.000181523 0)
(2.42457 -0.00199325 0)
(2.42127 -0.00409185 0)
(2.41684 -0.00692368 0)
(2.41102 -0.00756481 0)
(2.40129 -0.00347314 0)
(2.39169 0.00142131 0)
(2.39032 0.00275018 0)
(2.39054 0.00338319 0)
(2.39125 0.00405354 0)
(2.3905 0.00402566 0)
(2.3899 0.00392944 0)
(2.38885 0.00387806 0)
(2.38484 0.0044015 0)
(2.37282 0.00648611 0)
(2.35872 0.00944846 0)
(2.35514 0.0107991 0)
(2.35553 0.0110841 0)
(2.35712 0.0109115 0)
(2.36104 0.00920049 0)
(2.36375 0.00704329 0)
(2.36251 0.00537125 0)
(2.36045 0.00394257 0)
(2.35515 0.00285604 0)
(2.34037 0.00508188 0)
(2.3286 0.00790414 0)
(2.32383 0.00896753 0)
(2.3181 0.0109997 0)
(2.3163 0.0120134 0)
(2.32313 0.00807411 0)
(2.32528 0.00331991 0)
(2.31858 0.00263299 0)
(2.31281 0.00217688 0)
(2.3041 0.0033653 0)
(2.29372 0.00757301 0)
(2.28945 0.00916138 0)
(2.28628 0.00929446 0)
(2.28443 0.00890691 0)
(2.28719 0.00662883 0)
(2.29361 0.000683191 0)
(2.29675 -0.00562975 0)
(2.29602 -0.00818186 0)
(2.2946 -0.00901483 0)
(2.29055 -0.00787985 0)
(2.28663 -0.00376365 0)
(2.28578 0.000408773 0)
(2.2865 0.00270784 0)
(2.28997 0.00451042 0)
(2.30034 0.00425363 0)
(2.31754 -9.76628e-05 0)
(2.32837 -0.00524319 0)
(2.3308 -0.00753976 0)
(2.3314 -0.0102916 0)
(2.3302 -0.0140056 0)
(2.32641 -0.0137169 0)
(2.32379 -0.0101644 0)
(2.32537 -0.00701846 0)
(2.32801 -0.00467796 0)
(2.33422 -0.00187002 0)
(2.3486 0.00064295 0)
(2.36796 0.000620471 0)
(2.37707 -0.00094866 0)
(2.37894 -0.00202827 0)
(2.38014 -0.00445203 0)
(2.37915 -0.00821535 0)
(2.37637 -0.0111948 0)
(2.37597 -0.00979663 0)
(2.3777 -0.00788659 0)
(2.37997 -0.00583315 0)
(2.38534 -0.00293653 0)
(2.39469 0.000270642 0)
(2.40291 0.000317219 0)
(2.4056 -0.000886326 0)
(2.40651 -0.0025668 0)
(2.40692 -0.0056326 0)
(2.40692 -0.00665093 0)
(2.40744 -0.00488093 0)
(2.40908 -0.00310183 0)
(2.41122 -0.00146324 0)
(2.41554 0.000672024 0)
(2.42201 0.0018949 0)
(2.42671 0.00111256 0)
(2.42787 0.000125616 0)
(2.42902 -0.00177994 0)
(2.43033 -0.00446301 0)
(2.43194 -0.00646085 0)
(2.43337 -0.00685738 0)
(2.43516 -0.0062745 0)
(2.43784 -0.00419888 0)
(2.43998 -0.000854639 0)
(2.44151 0.0015823 0)
(2.44274 0.00247908 0)
(2.44343 0.0024493 0)
(2.44405 0.00199312 0)
(2.44484 0.00120425 0)
(2.44648 -0.000398934 0)
(2.44874 -0.00295612 0)
(2.45174 -0.00537739 0)
(2.45512 -0.0053749 0)
(2.45688 -0.00428139 0)
(2.45834 -0.00277442 0)
(2.45956 -0.00071299 0)
(2.46001 0.00134571 0)
(2.46089 0.00241808 0)
(2.46222 0.00240642 0)
(2.46428 0.00142898 0)
(2.46785 -0.00121174 0)
(2.47048 -0.00408746 0)
(2.47213 -0.0051772 0)
(2.47395 -0.00468239 0)
(2.47508 -0.00266018 0)
(2.47558 -4.16633e-05 0)
(2.47581 0.00211959 0)
(2.4764 0.00314647 0)
(2.4771 0.0032973 0)
(2.47806 0.00288691 0)
(2.47975 0.00176278 0)
(2.48125 2.21932e-05 0)
(2.48255 -0.00219627 0)
(2.48422 -0.00459052 0)
(2.48611 -0.00499837 0)
(2.48794 -0.00338654 0)
(2.48863 -0.00181495 0)
(2.48933 0.000125918 0)
(2.48964 0.00207708 0)
(2.48922 0.00353775 0)
(2.48833 0.00374057 0)
(2.48755 0.00292267 0)
(2.48973 0.00148151 0)
(2.1997 0.0279325 0)
(0.977747 0.0493423 0)
(0.809065 0.0102255 0)
(0.810681 -0.0107396 0)
(0.818676 -0.0285982 0)
(0.835738 -0.0316859 0)
(0.848903 -0.0275053 0)
(0.860006 -0.0225024 0)
(0.870248 -0.0171066 0)
(0.880147 -0.011356 0)
(0.891013 -0.00759824 0)
(0.901003 -0.00423508 0)
(0.908579 -0.00226277 0)
(0.914877 -0.00268606 0)
(0.917749 -0.00196889 0)
(0.916864 0.00101096 0)
(0.91962 0.00158676 0)
(0.924915 0.00019268 0)
(0.933414 -0.00492765 0)
(0.946289 -0.0136371 0)
(0.964057 -0.023464 0)
(0.982479 -0.0294712 0)
(0.997402 -0.0289991 0)
(1.00728 -0.0241379 0)
(1.015 -0.0184593 0)
(1.02371 -0.0145719 0)
(1.03515 -0.0135922 0)
(1.04892 -0.0150033 0)
(1.06236 -0.0177992 0)
(1.07334 -0.020195 0)
(1.08166 -0.0204116 0)
(1.0885 -0.0185402 0)
(1.09557 -0.0158736 0)
(1.10438 -0.0134617 0)
(1.11608 -0.0123269 0)
(2.3409 0.0115935 0)
(2.33791 0.0110594 0)
(2.33762 0.0100997 0)
(2.33813 0.00853006 0)
(2.34023 0.00472614 0)
(2.34174 0.000920314 0)
(2.34081 -0.0011488 0)
(2.33916 -0.00227791 0)
(2.336 -0.00180168 0)
(2.3334 0.000649899 0)
(2.3331 0.00244913 0)
(2.33382 0.00449934 0)
(2.3355 0.00704314 0)
(2.3374 0.00840584 0)
(2.33861 0.00736848 0)
(2.33845 0.00498544 0)
(2.33768 0.0035436 0)
(2.33684 0.003145 0)
(2.33554 0.00378518 0)
(2.33416 0.00546841 0)
(2.3336 0.00654122 0)
(2.33327 0.00770376 0)
(2.33359 0.00864372 0)
(2.33519 0.0079812 0)
(2.33735 0.0054327 0)
(2.33924 0.00203284 0)
(2.34112 -0.00157428 0)
(2.34251 -0.00403591 0)
(2.34374 -0.00534745 0)
(2.34558 -0.00603531 0)
(2.34859 -0.00619499 0)
(2.35296 -0.00531084 0)
(2.35834 -0.0037837 0)
(2.36332 -0.00401366 0)
(2.36479 -0.00485602 0)
(2.36536 -0.00626096 0)
(2.36662 -0.00783977 0)
(2.36808 -0.00868026 0)
(2.37016 -0.00986615 0)
(2.37259 -0.010685 0)
(2.37629 -0.0105962 0)
(2.38264 -0.00951097 0)
(2.39247 -0.00802852 0)
(2.40185 -0.00682307 0)
(2.4049 -0.00639743 0)
(2.40676 -0.00649688 0)
(2.40745 -0.00676148 0)
(2.40771 -0.00707819 0)
(2.40957 -0.00738554 0)
(2.41126 -0.00800649 0)
(2.41563 -0.00833132 0)
(2.42294 -0.00731832 0)
(2.428 -0.00654422 0)
(2.42991 -0.00651406 0)
(2.43201 -0.0062769 0)
(2.43328 -0.00561108 0)
(2.43411 -0.00429438 0)
(2.43586 -0.00293258 0)
(2.438 -0.00173791 0)
(2.44035 -0.000705999 0)
(2.44448 -0.00054735 0)
(2.4481 -0.00124752 0)
(2.4496 -0.00138941 0)
(2.45159 -0.00109162 0)
(2.45286 -6.01454e-05 0)
(2.45219 0.00168235 0)
(2.44884 0.0034949 0)
(2.44628 0.004138 0)
(2.44631 0.00385627 0)
(2.44715 0.00325714 0)
(2.44857 0.00203125 0)
(2.45062 2.0529e-05 0)
(2.45223 -0.000826708 0)
(2.45399 -0.000910166 0)
(2.45545 -0.000323275 0)
(2.45635 0.0020686 0)
(2.45599 0.00563742 0)
(2.45456 0.00808458 0)
(2.45263 0.0078488 0)
(2.44991 0.00544289 0)
(2.44631 0.00340006 0)
(2.44278 0.00344255 0)
(2.44023 0.00578579 0)
(2.43862 0.00894649 0)
(2.43738 0.0118327 0)
(2.43581 0.0137265 0)
(2.43378 0.0141766 0)
(2.43222 0.0129693 0)
(2.43125 0.0108197 0)
(2.4302 0.00831457 0)
(2.42897 0.0056894 0)
(2.42752 0.00386914 0)
(2.42407 0.00122976 0)
(2.41726 0.000456461 0)
(2.40698 0.00412231 0)
(2.39789 0.0071152 0)
(2.39674 0.00732819 0)
(2.39697 0.00742527 0)
(2.39749 0.00781239 0)
(2.39615 0.00764788 0)
(2.39456 0.0072313 0)
(2.39266 0.00631908 0)
(2.38732 0.00526301 0)
(2.37575 0.00540371 0)
(2.36366 0.00865964 0)
(2.36093 0.0128756 0)
(2.36231 0.0152577 0)
(2.36343 0.0165353 0)
(2.365 0.0160584 0)
(2.36561 0.0133378 0)
(2.36377 0.0115531 0)
(2.36115 0.0100125 0)
(2.35597 0.00908589 0)
(2.34501 0.00994012 0)
(2.33414 0.0133235 0)
(2.32949 0.0149311 0)
(2.32387 0.0180792 0)
(2.32084 0.0197474 0)
(2.32482 0.0165836 0)
(2.32949 0.00977075 0)
(2.32388 0.00737255 0)
(2.31786 0.00649006 0)
(2.31195 0.00558067 0)
(2.30364 0.00729557 0)
(2.29833 0.0103178 0)
(2.29654 0.0109574 0)
(2.29453 0.0109033 0)
(2.29436 0.00868382 0)
(2.29778 0.00308574 0)
(2.30251 -0.00397075 0)
(2.30381 -0.00850913 0)
(2.30279 -0.0103956 0)
(2.30107 -0.0113486 0)
(2.30044 -0.0105236 0)
(2.30123 -0.00807715 0)
(2.30323 -0.00476213 0)
(2.30733 -0.00156334 0)
(2.31539 -0.000116263 0)
(2.32814 -0.00332159 0)
(2.3386 -0.00807538 0)
(2.34169 -0.00999018 0)
(2.34211 -0.0110904 0)
(2.34112 -0.0128341 0)
(2.33913 -0.0138699 0)
(2.33957 -0.013224 0)
(2.34146 -0.0120186 0)
(2.34397 -0.0104979 0)
(2.34997 -0.00867894 0)
(2.36236 -0.00675842 0)
(2.3792 -0.00601564 0)
(2.38628 -0.00586438 0)
(2.38873 -0.00590017 0)
(2.38992 -0.00659694 0)
(2.38747 -0.00862037 0)
(2.38671 -0.0102786 0)
(2.38779 -0.0105809 0)
(2.38898 -0.0106807 0)
(2.39146 -0.0102534 0)
(2.39743 -0.00827501 0)
(2.4065 -0.00468684 0)
(2.41115 -0.00293024 0)
(2.41282 -0.00301389 0)
(2.41383 -0.00435393 0)
(2.41407 -0.00648263 0)
(2.41511 -0.0071518 0)
(2.41641 -0.0074369 0)
(2.41824 -0.00749764 0)
(2.42168 -0.00682121 0)
(2.42727 -0.0039986 0)
(2.43175 -0.000586684 0)
(2.43366 0.000290116 0)
(2.43526 0.000691314 0)
(2.43552 0.000301646 0)
(2.43598 -0.000687325 0)
(2.43686 -0.00149886 0)
(2.43924 -0.00292743 0)
(2.44227 -0.00370425 0)
(2.44567 -0.00355563 0)
(2.44813 -0.00314978 0)
(2.44937 -0.00277877 0)
(2.45089 -0.00170629 0)
(2.45143 -0.000210744 0)
(2.45082 0.00120325 0)
(2.45062 0.00178811 0)
(2.45145 0.00158786 0)
(2.45222 0.000973323 0)
(2.45495 -0.000750233 0)
(2.46014 -0.00353098 0)
(2.46387 -0.00476583 0)
(2.46524 -0.00477721 0)
(2.4663 -0.00431496 0)
(2.46752 -0.00290324 0)
(2.46817 -0.00100384 0)
(2.46825 0.000589643 0)
(2.46954 0.00118471 0)
(2.4714 0.000896056 0)
(2.47267 -0.000143565 0)
(2.47571 -0.00191385 0)
(2.47873 -0.00321378 0)
(2.4798 -0.00357807 0)
(2.48138 -0.00333984 0)
(2.48284 -0.00190248 0)
(2.48341 0.000373731 0)
(2.48279 0.00238388 0)
(2.48259 0.0031083 0)
(2.4834 0.00273261 0)
(2.48406 0.00193287 0)
(2.48475 0.000882628 0)
(2.4861 -0.000217956 0)
(2.48906 -0.00183817 0)
(2.49265 -0.00273062 0)
(2.49438 -0.00238182 0)
(2.49493 -0.00168948 0)
(2.49552 -0.000344304 0)
(2.49577 0.00108114 0)
(2.49515 0.00214956 0)
(2.49353 0.00397847 0)
(2.49288 0.00447706 0)
(2.26563 0.0608631 0)
(0.995795 0.0708953 0)
(0.834739 0.0149731 0)
(0.860079 -0.0266495 0)
(0.892554 -0.0448157 0)
(0.91884 -0.0464452 0)
(0.935399 -0.0406102 0)
(0.948669 -0.0340783 0)
(0.961158 -0.0253786 0)
(0.971335 -0.0126233 0)
(0.982075 -0.00231781 0)
(0.994175 0.000211699 0)
(1.00632 -0.00267375 0)
(1.01654 -0.0083572 0)
(1.02271 -0.0152877 0)
(1.02492 -0.0230117 0)
(1.02971 -0.029478 0)
(1.03656 -0.0347978 0)
(1.04467 -0.0359946 0)
(1.05364 -0.0339662 0)
(1.06433 -0.0326745 0)
(1.0767 -0.035513 0)
(1.09037 -0.0405935 0)
(1.1019 -0.0421914 0)
(1.10948 -0.0397803 0)
(1.11553 -0.0352404 0)
(1.12232 -0.0299934 0)
(1.13048 -0.0267864 0)
(1.13916 -0.0272964 0)
(1.14801 -0.0297673 0)
(1.15695 -0.0318632 0)
(1.16607 -0.0323883 0)
(1.17584 -0.0319177 0)
(1.18697 -0.0319751 0)
(1.20012 -0.033921 0)
(2.36045 0.000840464 0)
(2.35798 0.0049843 0)
(2.35823 0.00882132 0)
(2.35972 0.0115865 0)
(2.36073 0.013294 0)
(2.36021 0.0131778 0)
(2.35943 0.0118719 0)
(2.35813 0.00954059 0)
(2.3558 0.00475317 0)
(2.35456 0.00124318 0)
(2.35462 8.94146e-05 0)
(2.35525 -0.00119924 0)
(2.35683 -0.0023876 0)
(2.35906 -0.00273545 0)
(2.36086 -0.00227006 0)
(2.36106 -0.00220013 0)
(2.36063 -0.00252112 0)
(2.35953 -0.00257401 0)
(2.35798 -0.00271154 0)
(2.35743 -0.00312667 0)
(2.35709 -0.00339828 0)
(2.35733 -0.00316769 0)
(2.35827 -0.00232573 0)
(2.35977 -0.00140853 0)
(2.36254 -0.00123666 0)
(2.36648 -0.00161249 0)
(2.36939 -0.00170722 0)
(2.37106 -0.00163478 0)
(2.37278 -0.00199429 0)
(2.37495 -0.0029909 0)
(2.37767 -0.00454141 0)
(2.38107 -0.00701878 0)
(2.38545 -0.0104499 0)
(2.39037 -0.0141018 0)
(2.39425 -0.0164115 0)
(2.39659 -0.016682 0)
(2.39771 -0.0154791 0)
(2.39881 -0.0137547 0)
(2.40031 -0.0119229 0)
(2.40241 -0.0099971 0)
(2.40575 -0.00841395 0)
(2.41114 -0.00716863 0)
(2.41866 -0.00789118 0)
(2.42621 -0.0114497 0)
(2.42997 -0.0144085 0)
(2.43123 -0.0153893 0)
(2.43217 -0.0157655 0)
(2.4326 -0.0140933 0)
(2.43368 -0.0117409 0)
(2.43542 -0.00975868 0)
(2.43965 -0.00642856 0)
(2.44503 -0.00337584 0)
(2.44713 -0.00299773 0)
(2.44892 -0.00325106 0)
(2.45014 -0.00348349 0)
(2.45074 -0.0043516 0)
(2.45217 -0.0052033 0)
(2.45389 -0.00530543 0)
(2.45565 -0.00495725 0)
(2.45779 -0.00385554 0)
(2.46132 -0.00172349 0)
(2.46307 -0.00076988 0)
(2.46478 -0.000844658 0)
(2.46616 -0.00103513 0)
(2.46659 -0.00130933 0)
(2.46548 -0.00192063 0)
(2.46301 -0.0022032 0)
(2.46128 -0.0011993 0)
(2.46122 0.000442926 0)
(2.46193 0.00200552 0)
(2.46286 0.00319024 0)
(2.46366 0.00352333 0)
(2.46445 0.00389275 0)
(2.46522 0.00490932 0)
(2.46588 0.00658495 0)
(2.4662 0.00839875 0)
(2.46595 0.00961166 0)
(2.46492 0.0094942 0)
(2.46313 0.00725483 0)
(2.46084 0.00349309 0)
(2.45818 0.000329783 0)
(2.45543 -0.00091514 0)
(2.45281 -0.000131853 0)
(2.45042 0.00163411 0)
(2.44845 0.00385928 0)
(2.44681 0.00643624 0)
(2.44505 0.00945195 0)
(2.44298 0.0123736 0)
(2.4414 0.0143669 0)
(2.44036 0.0150972 0)
(2.43926 0.0147353 0)
(2.43713 0.0135433 0)
(2.43307 0.01173 0)
(2.42635 0.0109423 0)
(2.41776 0.0122567 0)
(2.40993 0.016184 0)
(2.40722 0.0190026 0)
(2.40748 0.0193919 0)
(2.408 0.0186694 0)
(2.40666 0.016724 0)
(2.40432 0.0155815 0)
(2.4009 0.01332 0)
(2.39282 0.00856475 0)
(2.38011 0.0035485 0)
(2.37101 0.00313858 0)
(2.37125 0.00602313 0)
(2.37361 0.00950393 0)
(2.37549 0.0133058 0)
(2.37617 0.0154499 0)
(2.3753 0.0157045 0)
(2.37287 0.0158487 0)
(2.36901 0.0162535 0)
(2.36256 0.0164682 0)
(2.35231 0.0164826 0)
(2.34434 0.0177598 0)
(2.34048 0.0197032 0)
(2.33634 0.0237659 0)
(2.33331 0.0263069 0)
(2.33342 0.024891 0)
(2.33865 0.0185344 0)
(2.33742 0.0132228 0)
(2.33149 0.0121342 0)
(2.32602 0.0103231 0)
(2.32039 0.00907647 0)
(2.31606 0.00887286 0)
(2.31453 0.00902031 0)
(2.31293 0.00910169 0)
(2.31201 0.00833099 0)
(2.31369 0.00550306 0)
(2.31949 7.01426e-05 0)
(2.32452 -0.00447773 0)
(2.32557 -0.00618356 0)
(2.326 -0.00707995 0)
(2.3272 -0.00778986 0)
(2.32939 -0.00811264 0)
(2.33249 -0.00760074 0)
(2.33666 -0.00664393 0)
(2.34277 -0.00642579 0)
(2.3521 -0.00826226 0)
(2.3632 -0.0118617 0)
(2.36884 -0.0138157 0)
(2.36934 -0.0140006 0)
(2.36861 -0.0139902 0)
(2.36815 -0.0133189 0)
(2.36962 -0.01233 0)
(2.37135 -0.0109445 0)
(2.37367 -0.00902262 0)
(2.37879 -0.0070945 0)
(2.38825 -0.00695783 0)
(2.4014 -0.0106119 0)
(2.40953 -0.0143355 0)
(2.41171 -0.0152905 0)
(2.41324 -0.0158679 0)
(2.41239 -0.0141846 0)
(2.41082 -0.0103059 0)
(2.41099 -0.00769649 0)
(2.41202 -0.00644764 0)
(2.41375 -0.00546396 0)
(2.41862 -0.00505472 0)
(2.42642 -0.0063677 0)
(2.43028 -0.00753677 0)
(2.43192 -0.00787273 0)
(2.43306 -0.00778256 0)
(2.43329 -0.00669354 0)
(2.43432 -0.0059064 0)
(2.4357 -0.00561322 0)
(2.43698 -0.00530223 0)
(2.4395 -0.00510414 0)
(2.44437 -0.00611926 0)
(2.44869 -0.00777022 0)
(2.45027 -0.00817759 0)
(2.45208 -0.00796149 0)
(2.4527 -0.00652209 0)
(2.4529 -0.00399099 0)
(2.45397 -0.00196386 0)
(2.45522 -0.000574466 0)
(2.45741 0.000343264 0)
(2.45996 -0.000202186 0)
(2.46169 -0.00204022 0)
(2.46265 -0.004193 0)
(2.46324 -0.0062397 0)
(2.46367 -0.00775378 0)
(2.46382 -0.00822372 0)
(2.46438 -0.00727849 0)
(2.46551 -0.00549094 0)
(2.46714 -0.00307479 0)
(2.47036 -0.000199826 0)
(2.47388 0.00141686 0)
(2.47624 0.000307982 0)
(2.4774 -0.00146493 0)
(2.47779 -0.00308932 0)
(2.47824 -0.00489597 0)
(2.47892 -0.00639618 0)
(2.47994 -0.0068411 0)
(2.48144 -0.00620158 0)
(2.48323 -0.00489032 0)
(2.48537 -0.00311672 0)
(2.4876 -0.0005768 0)
(2.48889 5.10071e-05 0)
(2.49032 -0.000267165 0)
(2.4913 -0.00143339 0)
(2.49184 -0.00305019 0)
(2.49216 -0.00442163 0)
(2.49242 -0.0047703 0)
(2.49276 -0.00412618 0)
(2.49322 -0.00306492 0)
(2.49396 -0.00198406 0)
(2.49486 -0.00107618 0)
(2.49648 0.00024804 0)
(2.49921 0.00191733 0)
(2.50195 0.00232581 0)
(2.5037 0.00191083 0)
(2.50425 0.00134987 0)
(2.5047 0.00056845 0)
(2.50498 -0.000466881 0)
(2.50447 -0.00266648 0)
(2.50349 -0.000230134 0)
(2.50128 -0.00363091 0)
(2.43199 -0.0331138 0)
(1.14861 0.0375075 0)
(0.951805 -0.029233 0)
(1.01544 -0.066692 0)
(1.05526 -0.0738622 0)
(1.07887 -0.06983 0)
(1.09264 -0.066876 0)
(1.105 -0.066355 0)
(1.11722 -0.0624283 0)
(1.12727 -0.0518664 0)
(1.13766 -0.0360536 0)
(1.15013 -0.0213351 0)
(1.16435 -0.0136344 0)
(1.17809 -0.011276 0)
(1.18714 -0.0114012 0)
(1.19226 -0.0139362 0)
(1.19702 -0.020224 0)
(1.2022 -0.0280395 0)
(1.20808 -0.0344018 0)
(1.21487 -0.0367004 0)
(1.22215 -0.0345976 0)
(1.2302 -0.0295854 0)
(1.23944 -0.0251742 0)
(1.24761 -0.0255091 0)
(1.25298 -0.0292902 0)
(1.25753 -0.0328105 0)
(1.26199 -0.0351468 0)
(1.26694 -0.0355211 0)
(1.27218 -0.0339767 0)
(1.27821 -0.0318141 0)
(1.28562 -0.0303931 0)
(1.2949 -0.0295735 0)
(1.3062 -0.0290214 0)
(1.31925 -0.0292526 0)
(1.33359 -0.0312612 0)
(2.39205 0.000881655 0)
(2.39132 0.00292047 0)
(2.39259 0.0057775 0)
(2.39411 0.00921894 0)
(2.39476 0.012385 0)
(2.3947 0.0145165 0)
(2.39396 0.0154612 0)
(2.39188 0.0150654 0)
(2.38899 0.0132362 0)
(2.38828 0.0116179 0)
(2.38871 0.0106631 0)
(2.38987 0.00958092 0)
(2.39196 0.00887418 0)
(2.39515 0.00897094 0)
(2.39763 0.00921993 0)
(2.39799 0.00934638 0)
(2.39773 0.00978577 0)
(2.39642 0.00978813 0)
(2.39485 0.00839833 0)
(2.39457 0.00711277 0)
(2.39482 0.00542773 0)
(2.39551 0.00298099 0)
(2.3972 0.000352068 0)
(2.40045 -0.00223716 0)
(2.4051 -0.00432212 0)
(2.40947 -0.00554057 0)
(2.41242 -0.00607501 0)
(2.41482 -0.00609855 0)
(2.41735 -0.00562923 0)
(2.41955 -0.00484784 0)
(2.42107 -0.00456675 0)
(2.42265 -0.00511517 0)
(2.42551 -0.00734338 0)
(2.43011 -0.0109197 0)
(2.43523 -0.0136914 0)
(2.43853 -0.0149579 0)
(2.43998 -0.015296 0)
(2.44087 -0.0148058 0)
(2.44207 -0.0136183 0)
(2.44398 -0.0121617 0)
(2.44663 -0.0110166 0)
(2.45 -0.0101565 0)
(2.45448 -0.00998086 0)
(2.45978 -0.011394 0)
(2.46353 -0.0133776 0)
(2.46469 -0.0139462 0)
(2.46474 -0.0139491 0)
(2.46495 -0.0136242 0)
(2.46594 -0.0124489 0)
(2.4683 -0.0100567 0)
(2.47178 -0.00745893 0)
(2.47356 -0.0066311 0)
(2.47503 -0.00655194 0)
(2.47622 -0.00629066 0)
(2.47644 -0.00598591 0)
(2.47632 -0.00565285 0)
(2.4774 -0.00509003 0)
(2.47871 -0.00456542 0)
(2.47986 -0.00391827 0)
(2.48188 -0.00290544 0)
(2.48452 -0.00194523 0)
(2.48566 -0.00184546 0)
(2.48713 -0.00148095 0)
(2.48801 -0.000733818 0)
(2.48752 0.000192052 0)
(2.48521 0.00062499 0)
(2.48288 0.000399393 0)
(2.48203 0.000341722 0)
(2.48233 0.000869779 0)
(2.4829 0.00138176 0)
(2.48332 0.00162593 0)
(2.48367 0.0020096 0)
(2.48396 0.00297126 0)
(2.4842 0.00490206 0)
(2.4843 0.00816549 0)
(2.48401 0.0123137 0)
(2.48303 0.0156858 0)
(2.48124 0.0164448 0)
(2.47914 0.0143817 0)
(2.47723 0.011775 0)
(2.47546 0.0106925 0)
(2.47342 0.0106793 0)
(2.47079 0.0106999 0)
(2.46781 0.0103066 0)
(2.46502 0.00975844 0)
(2.46297 0.00944532 0)
(2.46191 0.00980086 0)
(2.46153 0.0108169 0)
(2.46116 0.0121369 0)
(2.46004 0.0132505 0)
(2.45755 0.0134612 0)
(2.45336 0.0123826 0)
(2.44776 0.0106539 0)
(2.44152 0.0102448 0)
(2.43603 0.0117961 0)
(2.43189 0.0156121 0)
(2.42841 0.0216466 0)
(2.42631 0.0265984 0)
(2.42511 0.028669 0)
(2.42354 0.0292876 0)
(2.4209 0.0293577 0)
(2.41492 0.0279103 0)
(2.4041 0.0229702 0)
(2.39186 0.0168669 0)
(2.3867 0.0144001 0)
(2.3873 0.0141812 0)
(2.38902 0.0139398 0)
(2.39135 0.0136243 0)
(2.39291 0.0136593 0)
(2.3936 0.01443 0)
(2.39277 0.0158256 0)
(2.38943 0.0180963 0)
(2.38167 0.0207482 0)
(2.36821 0.0220967 0)
(2.36069 0.0226297 0)
(2.35763 0.0236968 0)
(2.35559 0.0269009 0)
(2.35566 0.030259 0)
(2.35631 0.0312753 0)
(2.35929 0.0282087 0)
(2.35994 0.0229091 0)
(2.35461 0.0208766 0)
(2.34993 0.0186551 0)
(2.34619 0.014436 0)
(2.34359 0.0111537 0)
(2.34171 0.0085299 0)
(2.34086 0.00499974 0)
(2.3418 0.000529205 0)
(2.34584 -0.00430772 0)
(2.35401 -0.00937244 0)
(2.36252 -0.0128168 0)
(2.36675 -0.0130998 0)
(2.3683 -0.0121866 0)
(2.36959 -0.0114217 0)
(2.37144 -0.0109005 0)
(2.37426 -0.0106849 0)
(2.3778 -0.0109489 0)
(2.38263 -0.0117935 0)
(2.3902 -0.013526 0)
(2.40041 -0.0165523 0)
(2.40839 -0.0196536 0)
(2.41045 -0.0208111 0)
(2.41045 -0.020774 0)
(2.41064 -0.0193295 0)
(2.41134 -0.0170331 0)
(2.41281 -0.0152089 0)
(2.41472 -0.013502 0)
(2.4185 -0.0113525 0)
(2.42539 -0.00952569 0)
(2.43492 -0.0103537 0)
(2.44305 -0.0133873 0)
(2.44596 -0.0152774 0)
(2.44643 -0.0159588 0)
(2.44641 -0.0163574 0)
(2.4456 -0.0151363 0)
(2.44494 -0.0123915 0)
(2.44575 -0.0100599 0)
(2.44725 -0.00795338 0)
(2.45076 -0.00623573 0)
(2.45574 -0.00678331 0)
(2.45932 -0.00871535 0)
(2.46029 -0.00950298 0)
(2.46099 -0.0101047 0)
(2.46183 -0.00996854 0)
(2.46281 -0.00901632 0)
(2.46387 -0.00737115 0)
(2.46521 -0.00574015 0)
(2.467 -0.0042695 0)
(2.47014 -0.00368339 0)
(2.47333 -0.00476475 0)
(2.47562 -0.00582316 0)
(2.47668 -0.00622945 0)
(2.47717 -0.00624116 0)
(2.47797 -0.00549862 0)
(2.47911 -0.00350778 0)
(2.48035 -0.00113756 0)
(2.48163 0.000655772 0)
(2.48284 0.00158257 0)
(2.48339 0.00169063 0)
(2.48341 0.000699841 0)
(2.48366 -0.00116594 0)
(2.48418 -0.00319418 0)
(2.48484 -0.00474515 0)
(2.48601 -0.00566224 0)
(2.48805 -0.00579478 0)
(2.49122 -0.00432991 0)
(2.49447 -0.00174481 0)
(2.49585 -5.08032e-05 0)
(2.49674 0.000832342 0)
(2.49718 0.00120474 0)
(2.49657 0.000483989 0)
(2.4962 -0.00152303 0)
(2.49704 -0.00327316 0)
(2.49822 -0.00438868 0)
(2.50025 -0.00494118 0)
(2.503 -0.00407731 0)
(2.50498 -0.00249632 0)
(2.50614 -0.00142561 0)
(2.5077 0.000148094 0)
(2.50854 0.00194859 0)
(2.50794 0.00297935 0)
(2.50679 0.00183491 0)
(2.50712 -0.00039799 0)
(2.50808 -0.00210285 0)
(2.50907 -0.0033045 0)
(2.50995 -0.00370539 0)
(2.51117 -0.00353731 0)
(2.51283 -0.00287891 0)
(2.51502 -0.00125044 0)
(2.51724 0.000818665 0)
(2.51824 0.00195391 0)
(2.51905 0.00276033 0)
(2.51981 0.00366042 0)
(2.52039 0.0041821 0)
(2.52043 0.00415908 0)
(2.51915 0.00484406 0)
(2.51534 -0.00199776 0)
(2.50709 -0.0243816 0)
(2.37952 -0.297611 0)
(1.56574 -0.120769 0)
(1.19015 -0.0442032 0)
(1.23445 -0.0595763 0)
(1.26825 -0.0859295 0)
(1.28075 -0.0833564 0)
(1.28497 -0.0740809 0)
(1.2902 -0.0658912 0)
(1.29886 -0.0575613 0)
(1.30639 -0.047138 0)
(1.31321 -0.0334127 0)
(1.32286 -0.0254758 0)
(1.33386 -0.0205178 0)
(1.34641 -0.0194924 0)
(1.35681 -0.0225917 0)
(1.36309 -0.0264985 0)
(1.36755 -0.031807 0)
(1.37031 -0.0395091 0)
(1.37211 -0.0472682 0)
(1.37551 -0.0511116 0)
(1.38046 -0.0516094 0)
(1.38713 -0.0488785 0)
(1.39565 -0.042998 0)
(1.40289 -0.0387259 0)
(1.40843 -0.0357481 0)
(1.41146 -0.0354941 0)
(1.41272 -0.039006 0)
(1.41556 -0.0437255 0)
(1.41945 -0.0480519 0)
(1.42456 -0.0505181 0)