/*--------------------------------*- C++ -*----------------------------------*\
  =========                 |
  \\      /  F ield         | OpenFOAM: The Open Source CFD Toolbox
   \\    /   O peration     | Website:  https://openfoam.org
    \\  /    A nd           | Version:  7
     \\/     M anipulation  |
\*---------------------------------------------------------------------------*/
FoamFile
{
    version     2.0;
    format      ascii;
    class       volScalarField;
    location    "3.8";
    object      T;
}
// * * * * * * * * * * * * * * * * * * * * * * * * * * * * * * * * * * * * * //

dimensions      [0 0 0 1 0 0 0];

internalField   nonuniform List<scalar> 
4080
(
1
1
1
1
1
1
1
1
1
1
1
1
1
1
1
1
1
1.3998
2.53935
2.7403
2.76687
2.79281
2.807
2.81752
1
1
1
1
1
1
1
1
1
1
1
1
1
1
1
1
1
1.3551
2.51212
2.73439
2.76112
2.78461
2.79427
2.79569
1
1
1
1
1
1
1
1
1
1
1
1
1
1
1
1
1
1.22323
2.43672
2.719
2.74594
2.76441
2.76699
2.77408
1
1
1
1
1
1
1
1
1
1
1
1
1
1
1
1
1
1.02078
2.30053
2.68503
2.7178
2.73979
2.7544
2.79309
1
1
1
1
1
1
1
1
1
1
1
1
1
1
1
1
1
1.00017
2.11228
2.6229
2.67462
2.6897
2.66181
2.58882
1
1
1
1
1
1
1
1
1
1
1
1
1
1
1
1
1
0.999998
1.81332
2.526
2.63056
2.62125
2.58557
2.47786
1
1
1
1
1
1
1
1
1
1
1
1
1
1
1
1
1
0.999999
1.36358
2.34873
2.57608
2.55326
2.51652
2.38909
1
1
1
1
1
1
1
1
1
1
1
1
1
1
1
1
1
1
1.0375
2.1354
2.49909
2.4749
2.44314
2.33314
1
1
1
1
1
1
1
1
1
1
1
1
1
1
1
1
1
1
1.00021
1.7054
2.35084
2.43487
2.38734
2.30174
1
1
1
1
1
1
1
1
1
1
1
1
1
1
1
1
1
1
0.999999
1.14335
2.11014
2.39274
2.33727
2.26819
1
1
1
1
1
1
1
1
1
1
1
1
1
1
1
1
1
1
1
1.00455
1.70511
2.2802
2.27298
2.22185
1
1
1
1
1
1
1
1
1
1
1
1
1
1
1
1
1
1
1
1.00001
1.1592
2.02385
2.25001
2.18725
1
1
1
1
1
1
1
1
1
1
1
1
1
1
1
1
1
1
1
1
1.00559
1.52269
2.09818
2.15225
1
1
1
1
1
1
1
1
1
1
1
1
1
1
1
1
1
1
1
1
1.00003
1.08232
1.79926
2.11197
1
1
1
1
1
1
1
1
1
1
1
1
1
1
1
1
1
1
1
1
1
1.00174
1.27435
1.88804
1
1
1
1
1
1
1
1
1
1
1
1
1
1
1
1
1
1
1
1
1
1.00001
1.01901
1.44996
1
1
1
1
1
1
1
1
1
1
1
1
1
1
1
1
1
1
1
1
1
1
1.00022
1.06554
1
1
1
1
1
1
1
1
1
1
1
1
1
1
1
1
1
1
1
1
1
1
1
1.00154
1
1
1
1
1
1
1
1
1
1
1
1
1
1
1
1
1
1
1
1
1
1
1
1.00001
1
1
1
1
1
1
1
1
1
1
1
1
1
1
1
1
1
1
1
1
1
1
1
1
1
1
1
1
1
1
1
1
1
1
1
1
1
1
1
1
1
1
1
1
1
1
1
1
1
1
1
1
1
1
1
1
1
1
1
1
1
1
1
1
1
1
1
1
1
1
1
1
1
1
1
1
1
1
1
1
1
1
1
1
1
1
1
1
1
1
1
1
1
1
1
1
1
1
1
1
1
1
1
1
1
1
1
1
1
1
1
1
1
1
1
1
1
1
1
1
1
1
1
1
1
1
1
1
1
1
1
1
1
1
1
1
1
1
1
1
1
1
1
1
1
1
1
1
1
1
1
1
1
1
1
1
1
1
1
1
1
1
1
1
1
1
1
1
1
1
1
1
1
1
1
1
1
1
1
1
1
1
1
1
1
1
1
1
1
1
1
1
1
1
1
1
1
1
1
1
1
1
1
1
1
1
1
1
1
1
1
1
1
1
1
1
1
1
1
1
1
1
1
1
1
1
1
1
1
1
1
1
1
1
1
1
1
1
1
1
1
1
1
1
1
1
1
1
1
1
1
1
1
1
1
1
1
1
1
1
1
1
1
1
1
1
1
1
1
1
1
1
1
1
1
1
1
1
1
1
1
1
1
1
1
1
1
1
1
1
1
1
1
1
1
1
1
1
1
1
1
1
1
1
1
1
1
1
1
1
1
1
1
1
1
1
1
1
1
1
1
1
1
1
1
1
1
1
1
1
1
1
1
1
1
1
1
1
1
1
1
1
1
1
1
1
1
1
1
1
1
1
1
1
1
1
1
1
1
1
1
1
1
1
1
1
1
1
1
1
1
1
1
1
1
1
1
1
1
1
1
1
1
1
1
1
1
1
1
1
1
1
1
1
1
1
1
1
1
1
1
1
1
1
1
1
1
1
1
1
1
1
1
1
1
1
1
1
1
1
1
1
1
1
1
1
1
1
1
1
1
1
1
1
1
1
1
1
1
1
1
1
1
1
1
1
1
1
1
1
1
1
1
1
1
1
1
1
1
1
1
1
1
1
1
1
1
1
1
1
1
1
1
1
1
1
1
1
1
1
1
1
1
1
1
1
1
1
1
1
1
1
1
1
1
1
1
1
1
1
1
1
1
1
1.80562
1.38807
2.0501
2.5465
2.65223
2.69219
2.70774
2.71781
2.72742
2.73938
2.7488
2.75478
2.01108
1.74723
2.06776
2.54473
2.67853
2.70176
2.7094
2.71743
2.7269
2.74046
2.75104
2.75931
2.12335
1.86706
1.90676
2.25935
2.4852
2.57438
2.64073
2.68043
2.70492
2.72725
2.74418
2.7662
2.17173
1.96957
1.88693
2.02498
2.23886
2.38839
2.51742
2.59843
2.64658
2.68241
2.72296
2.80057
2.18899
2.04608
1.90926
1.92922
2.0685
2.20075
2.32773
2.40595
2.4843
2.54792
2.59066
2.57087
2.18185
2.07577
1.94389
1.90929
1.96961
2.0919
2.19615
2.24163
2.31144
2.38022
2.439
2.41916
2.15963
2.08219
1.97837
1.90332
1.9177
2.01339
2.11613
2.15625
2.18878
2.22978
2.27348
2.26088
2.13499
2.07648
1.99746
1.90558
1.90119
1.94026
2.05631
2.10489
2.12335
2.14266
2.16081
2.15189
2.11098
2.06061
2.00129
1.91833
1.87779
1.89143
1.97929
2.05866
2.0877
2.1009
2.10016
2.09035
2.08942
2.04289
1.99599
1.93127
1.8634
1.86569
1.90339
2.00373
2.04838
2.07154
2.06862
2.05833
2.05693
2.02716
1.9808
1.9301
1.86374
1.83955
1.85058
1.92229
1.99517
2.04224
2.04254
2.03557
1.89627
2.00552
1.97099
1.92478
1.86874
1.81689
1.82175
1.85479
1.93669
1.99378
2.01727
2.01411
1.56812
1.88512
1.95774
1.92288
1.87484
1.8114
1.79713
1.80865
1.86147
1.9331
1.97926
1.9876
1.1366
1.6196
1.8641
1.9113
1.87833
1.82314
1.77169
1.77666
1.80241
1.86998
1.9245
1.95793
1.00568
1.19849
1.63465
1.83328
1.86617
1.83474
1.77513
1.75428
1.76218
1.79956
1.86687
1.9136
1.00005
1.01243
1.23865
1.63169
1.79875
1.82437
1.79048
1.73573
1.73724
1.75433
1.80427
1.85589
1
1.00015
1.01953
1.26079
1.61724
1.76522
1.78433
1.7483
1.71228
1.71877
1.74427
1.80002
1
1
1.0003
1.02527
1.26738
1.59444
1.73673
1.74359
1.71413
1.69598
1.70436
1.73679
1
1
1
1.00045
1.02837
1.2599
1.57233
1.70225
1.70812
1.68797
1.68328
1.69475
1
1
1
1
1.00055
1.02821
1.24514
1.54283
1.66679
1.67853
1.6696
1.67214
1
1
1
1
1
1.00057
1.02566
1.22177
1.51227
1.62583
1.65567
1.65853
1
1
1
1
1
1
1.0005
1.02165
1.19479
1.46412
1.59466
1.63085
1
1
1
1
1
1
1
1.00042
1.01613
1.16404
1.42135
1.54408
1
1
1
1
1
1
1
1
1.00029
1.01158
1.12954
1.3516
1
1
1
1
1
1
1
1
1
1.00017
1.0078
1.08953
1
1
1
1
1
1
1
1
1
1
1.0001
1.00436
1
1
1
1
1
1
1
1
1
1
1
1.00005
1
1
1
1
1
1
1
1
1
1
1
1
1
1
1
1
1
1
1
1
1
1
1
1
1
1
1
1
1
1
1
1
1
1
1
1
1
1
1
1
1
1
1
1
1
1
1
1
1
1
1
1
1
1
1
1
1
1
1
1
1
1
1
1
1
1
1
1
1
1
1
1
1
1
1
1
1
1
1
1
1
1
1
1
1
1
1
1
1
1
1
1
1
1
1
1
1
1
1
1
1
1
1
1
1
1
1
1
2.05973
1.87712
1.91189
1.93369
1.96904
1.9953
1.98811
1.97104
1.95819
1.95447
1.94808
1.93391
1.92126
1.9127
1.90337
1.89444
1.88826
1.88659
1.88701
1.88788
1.88619
1.88008
1.87321
1.86621
1.85925
1.85418
1.85027
1.84791
1.84763
1.84717
1.8451
1.84205
1.83826
1.83326
1.82779
1.82325
1.81997
1.81768
1.81714
1.81676
1.81487
1.80977
2.0895
2.67655
2.75239
2.7707
2.79461
2.81365
2.81878
2.81179
2.80137
2.79084
2.78244
2.77493
2.7666
2.75679
2.74582
2.73503
2.72482
2.7145
2.70288
2.68931
2.67434
2.6595
2.64654
2.63623
2.62684
2.61489
2.5989
2.57949
2.55796
2.53667
2.51868
2.5055
2.49732
2.49409
2.49308
2.49108
2.48184
2.46498
2.44009
2.40656
2.38143
2.35096
2.1957
2.02563
1.95539
1.90338
1.88642
1.872
1.87338
1.8777
1.88731
1.89363
1.88947
1.88106
1.87627
1.87314
1.87199
1.869
1.864
1.85999
1.85635
1.85369
1.85096
1.84689
1.84349
1.84078
1.83874
1.83614
1.83265
1.8287
1.82478
1.82198
1.82053
1.81982
1.81809
1.81553
1.81284
1.80949
1.8052
1.80086
1.79729
1.79456
1.79401
1.7937
2.02278
2.63527
2.75218
2.7729
2.79693
2.81029
2.80854
2.80182
2.79111
2.77973
2.76923
2.75947
2.74994
2.73984
2.72858
2.71712
2.70636
2.69596
2.68467
2.67152
2.65622
2.63857
2.62004
2.60301
2.58894
2.57714
2.56509
2.55279
2.54096
2.5286
2.51309
2.49523
2.4785
2.46401
2.45162
2.44147
2.43388
2.4265
2.4182
2.40476
2.38796
2.35587
2.14294
1.98902
1.87476
1.81126
1.75372
1.7259
1.7335
1.75329
1.78523
1.80266
1.80163
1.79509
1.78628
1.78378
1.78484
1.78492
1.78308
1.77974
1.77932
1.78044
1.7788
1.77323
1.76914
1.76847
1.76939
1.77204
1.77251
1.77161
1.76887
1.76392
1.75914
1.7573
1.75637
1.75584
1.75659
1.75797
1.75802
1.75741
1.75467
1.74933
1.74392
1.74138
1.86235
2.5183
2.73139
2.76916
2.78311
2.78288
2.77858
2.77213
2.76222
2.749
2.73384
2.71725
2.70112
2.68675
2.67323
2.65918
2.64527
2.63201
2.61919
2.60651
2.59446
2.583
2.56744
2.54661
2.5244
2.50313
2.48327
2.46704
2.45807
2.45281
2.44944
2.44274
2.42925
2.41326
2.39149
2.3662
2.34771
2.33919
2.3371
2.34166
2.34561
2.33195
2.08705
1.9798
1.85902
1.8022
1.74323
1.68713
1.66167
1.64881
1.65478
1.66281
1.66564
1.66851
1.67202
1.6784
1.68498
1.68426
1.68096
1.67526
1.67512
1.67841
1.67874
1.67581
1.67441
1.67466
1.67617
1.67901
1.68039
1.68031
1.67905
1.67597
1.67349
1.67334
1.67356
1.67368
1.67384
1.67438
1.67511
1.67535
1.67426
1.67115
1.6695
1.66877
1.68782
2.31867
2.68914
2.74963
2.74289
2.73167
2.71668
2.69961
2.68046
2.65901
2.63584
2.61204
2.59022
2.57257
2.55949
2.5464
2.53047
2.51294
2.49474
2.47664
2.46063
2.44945
2.44292
2.43515
2.4212
2.405
2.38515
2.36392
2.34473
2.32879
2.32242
2.3188
2.30937
2.29939
2.29038
2.27879
2.26223
2.2486
2.24365
2.24312
2.24959
2.24296
2.04377
1.96971
1.87101
1.79374
1.73355
1.66612
1.62367
1.59517
1.57579
1.5685
1.57189
1.57598
1.58379
1.59367
1.60666
1.61212
1.61035
1.60606
1.60083
1.59593
1.59017
1.58634
1.58613
1.58744
1.59192
1.59846
1.60039
1.59981
1.59713
1.59158
1.58828
1.5884
1.58914
1.58996
1.59104
1.59242
1.59319
1.59304
1.59086
1.58829
1.5887
1.58888
1.5884
2.03024
2.60415
2.70731
2.66087
2.62769
2.59636
2.5692
2.54508
2.52097
2.49533
2.46992
2.44755
2.42952
2.41752
2.40974
2.39936
2.38195
2.36174
2.3401
2.32057
2.30465
2.29414
2.29036
2.28652
2.27718
2.26664
2.2527
2.23407
2.2155
2.20027
2.18779
2.1766
2.16749
2.16107
2.15686
2.15341
2.14887
2.14287
2.13871
2.13586
2.12612
2.02417
1.96425
1.88553
1.81165
1.75125
1.68128
1.62788
1.59964
1.57001
1.53985
1.53644
1.52904
1.52163
1.52357
1.53191
1.54228
1.54749
1.54998
1.5495
1.54594
1.5382
1.53393
1.53109
1.53097
1.53202
1.53537
1.53723
1.53662
1.53351
1.52929
1.52721
1.52729
1.5275
1.52755
1.52784
1.52863
1.52908
1.52799
1.52475
1.5236
1.52366
1.52317
1.52328
1.66924
2.43746
2.64151
2.55111
2.48928
2.44913
2.42403
2.40475
2.38337
2.35738
2.33128
2.30866
2.29114
2.27897
2.27351
2.26861
2.25637
2.24099
2.22264
2.20201
2.18548
2.17349
2.1677
2.16676
2.16215
2.15379
2.1451
2.13279
2.11454
2.09499
2.08193
2.07332
2.06685
2.06303
2.06166
2.06047
2.05798
2.05202
2.03983
2.02774
2.0142
2.01162
1.96774
1.90312
1.83416
1.77548
1.7132
1.6545
1.61749
1.57761
1.53041
1.51537
1.5047
1.48834
1.485
1.48849
1.49414
1.49926
1.50171
1.50554
1.50775
1.50938
1.50868
1.50672
1.50356
1.49932
1.49589
1.49334
1.49004
1.48688
1.48618
1.48659
1.4885
1.49131
1.4922
1.4915
1.4903
1.48748
1.48176
1.47833
1.47789
1.47753
1.47886
1.48992
1.58797
2.20576
2.56697
2.48434
2.39073
2.32717
2.29679
2.2792
2.2655
2.24776
2.22614
2.20543
2.18943
2.17771
2.17067
2.1676
2.16031
2.14851
2.13596
2.12078
2.10478
2.09294
2.08383
2.07886
2.07533
2.06937
2.06341
2.05601
2.04409
2.0262
2.00953
2.00105
1.99634
1.99448
1.99381
1.99124
1.98719
1.98078
1.96744
1.94797
1.92835
1.99868
1.96556
1.91472
1.85905
1.80592
1.742
1.68441
1.64647
1.60881
1.55672
1.52791
1.5107
1.48814
1.47215
1.47218
1.47239
1.46636
1.46394
1.46636
1.47204
1.47816
1.48164
1.48489
1.48464
1.48191
1.47619
1.46939
1.46398
1.46041
1.45949
1.45969
1.46145
1.46502
1.46634
1.46562
1.46376
1.45951
1.45341
1.45025
1.44893
1.45004
1.4589
1.54596
1.74547
1.96095
2.33819
2.38146
2.33576
2.27966
2.23119
2.20025
2.1815
2.16574
2.15034
2.13382
2.12036
2.11193
2.10594
2.09909
2.09141
2.08273
2.07411
2.06438
2.0526
2.0393
2.02879
2.02126
2.01489
2.00969
2.00439
1.99939
1.99352
1.98398
1.96946
1.95551
1.94861
1.94453
1.94151
1.93759
1.933
1.9273
1.91791
1.90278
1.88009
1.97958
1.9584
1.92108
1.87176
1.82543
1.77414
1.71904
1.67697
1.63753
1.58774
1.55403
1.53289
1.50729
1.47005
1.4604
1.45731
1.44578
1.44042
1.44243
1.44702
1.45133
1.45592
1.45836
1.46028
1.46077
1.4599
1.45723
1.45295
1.44913
1.44573
1.44256
1.44199
1.44316
1.44358
1.44324
1.44196
1.4394
1.43616
1.43388
1.4347
1.44305
1.51112
1.75437
1.89495
1.90318
2.02594
2.18998
2.24257
2.23212
2.20311
2.16786
2.13692
2.11364
2.09836
2.08491
2.07082
2.06009
2.05299
2.047
2.04087
2.0342
2.02706
2.01961
2.01227
2.00236
1.98934
1.97716
1.96925
1.96329
1.95922
1.95657
1.95323
1.94893
1.94137
1.92772
1.91182
1.903
1.89819
1.89378
1.88943
1.88488
1.87936
1.87217
1.85542
1.95542
1.94288
1.91558
1.87913
1.8402
1.79215
1.74163
1.70423
1.66841
1.62175
1.58171
1.55842
1.5308
1.49362
1.47325
1.46437
1.44767
1.43347
1.43271
1.43421
1.43199
1.43078
1.43195
1.43485
1.43781
1.4395
1.4413
1.44162
1.44035
1.43754
1.43345
1.42954
1.42716
1.42556
1.42406
1.42306
1.42239
1.42174
1.42297
1.4346
1.51353
1.72157
1.90903
1.90802
1.88738
1.87798
1.94727
2.0738
2.14231
2.14792
2.13925
2.11584
2.08821
2.06621
2.04965
2.03607
2.01925
2.00545
1.99887
1.99417
1.9903
1.98625
1.98031
1.97373
1.96695
1.95748
1.94316
1.92945
1.92247
1.9185
1.91727
1.91637
1.91313
1.90914
1.90159
1.88666
1.8692
1.85991
1.85529
1.85169
1.84868
1.84613
1.84289
1.83354
1.92821
1.92226
1.90473
1.87466
1.84213
1.80532
1.76089
1.72324
1.68926
1.64485
1.6089
1.58575
1.55948
1.51639
1.49039
1.47825
1.46022
1.43724
1.42693
1.42582
1.41779
1.41184
1.41266
1.41508
1.41704
1.41836
1.42084
1.42537
1.42829
1.428
1.42611
1.42234
1.41781
1.4124
1.40895
1.40825
1.40765
1.40925
1.41948
1.51804
1.7193
1.89463
1.89676
1.88118
1.86484
1.8546
1.84084
1.87736
1.97298
2.04416
2.06981
2.06839
2.06174
2.04405
2.02415
2.00619
1.98837
1.96977
1.95576
1.94876
1.94485
1.9424
1.94089
1.93508
1.92845
1.92173
1.91239
1.89827
1.88563
1.88023
1.87793
1.87744
1.8747
1.87176
1.86851
1.86132
1.84591
1.8282
1.82015
1.8169
1.81483
1.81378
1.81287
1.80655
1.8975
1.8967
1.88658
1.86597
1.8393
1.80654
1.76925
1.73631
1.70371
1.66617
1.62747
1.60455
1.57864
1.54417
1.51357
1.49707
1.47744
1.44633
1.43281
1.42955
1.42022
1.40855
1.40247
1.40286
1.4016
1.39936
1.4
1.40479
1.40997
1.41135
1.41119
1.41022
1.40798
1.40328
1.39923
1.39736
1.39838
1.40676
1.48833
1.74046
1.85835
1.89142
1.88418
1.8629
1.84618
1.83237
1.82119
1.79693
1.80657
1.85929
1.93292
1.97872
1.99207
2.00335
1.99781
1.98101
1.9606
1.93993
1.92121
1.90745
1.90074
1.89665
1.89443
1.89332
1.8885
1.88165
1.87433
1.86517
1.85297
1.843
1.83889
1.83706
1.83445
1.83158
1.82952
1.82646
1.81906
1.8044
1.78913
1.78302
1.78066
1.77927
1.77833
1.77346
1.84682
1.87067
1.86589
1.85152
1.8312
1.80411
1.77091
1.74134
1.71394
1.67696
1.64312
1.62016
1.59667
1.55927
1.53113
1.51524
1.49552
1.46656
1.44201
1.4352
1.42298
1.40634
1.39468
1.39349
1.39027
1.38409
1.38371
1.38707
1.39095
1.39298
1.39402
1.39514
1.39518
1.39333
1.38983
1.39036
1.39993
1.47559
1.71532
1.87996
1.8731
1.85882
1.84397
1.8313
1.81998
1.80564
1.79012
1.77352
1.75452
1.73748
1.7548
1.81126
1.87114
1.91633
1.92938
1.93
1.92559
1.91157
1.89285
1.87259
1.8589
1.85112
1.84657
1.84461
1.84304
1.8386
1.83262
1.82605
1.81809
1.80807
1.79962
1.79625
1.79403
1.79112
1.78855
1.78643
1.78352
1.77705
1.76452
1.75124
1.74523
1.74258
1.74084
1.73653
1.79052
1.83202
1.84267
1.83491
1.81866
1.7972
1.7699
1.74095
1.71537
1.68599
1.65336
1.62907
1.60673
1.57619
1.54721
1.52936
1.50949
1.47804
1.45571
1.4472
1.43518
1.41407
1.39173
1.39015
1.38658
1.37711
1.3736
1.37475
1.37654
1.37637
1.37589
1.37694
1.37799
1.37682
1.37767
1.39029
1.49325
1.69648
1.88019
1.87846
1.85772
1.83398
1.81415
1.79907
1.78758
1.77431
1.75858
1.74346
1.72552
1.70955
1.68549
1.68172
1.70629
1.76307
1.81502
1.84289
1.85227
1.85808
1.85637
1.84214
1.82389
1.81087
1.80192
1.79591
1.79335
1.79073
1.78681
1.78264
1.77842
1.77312
1.76473
1.75598
1.75211
1.74978
1.7477
1.74585
1.74405
1.74141
1.73552
1.72402
1.7111
1.70489
1.70236
1.69819
1.73151
1.77545
1.81225
1.81179
1.80301
1.78616
1.76234
1.73869
1.7159
1.68542
1.65676
1.63697
1.61481
1.58368
1.55929
1.54243
1.52112
1.49273
1.4648
1.45632
1.44486
1.42423
1.40157
1.3943
1.38686
1.37216
1.36041
1.35917
1.3606
1.35849
1.35724
1.35912
1.36032
1.36266
1.37433
1.49491
1.71265
1.86482
1.87344
1.85542
1.83081
1.80689
1.78493
1.76721
1.75267
1.74016
1.72315
1.70738
1.69252
1.67717
1.66152
1.64675
1.62472
1.62864
1.65622
1.69898
1.73927
1.77238
1.78744
1.78828
1.78624
1.77653
1.76431
1.75305
1.74638
1.74334
1.74016
1.73751
1.73637
1.73406
1.72976
1.72114
1.71104
1.70711
1.70543
1.70452
1.70352
1.70242
1.70016
1.69421
1.68233
1.66982
1.66485
1.66064
1.68695
1.72531
1.76364
1.7869
1.78302
1.77216
1.75441
1.73149
1.71053
1.68596
1.65908
1.6384
1.619
1.58943
1.56572
1.55018
1.53354
1.50292
1.4757
1.46613
1.4544
1.43354
1.40833
1.40171
1.39416
1.37869
1.3598
1.35282
1.35257
1.34727
1.34084
1.34236
1.3478
1.36429
1.46685
1.73032
1.83112
1.8473
1.84496
1.82844
1.80284
1.77949
1.75578
1.73535
1.71712
1.70033
1.68425
1.66964
1.65622
1.64372
1.63211
1.61734
1.59926
1.57926
1.56391
1.56885
1.59213
1.63327
1.67901
1.71123
1.72391
1.72484
1.7221
1.7144
1.70331
1.69806
1.69614
1.69615
1.69693
1.69485
1.69233
1.68734
1.67532
1.66602
1.66382
1.66333
1.6639
1.66332
1.66232
1.66007
1.65342
1.63987
1.63032
1.62504
1.66389
1.68155
1.717
1.74858
1.76148
1.75554
1.74089
1.72483
1.70612
1.68213
1.65697
1.63876
1.61806
1.59273
1.56879
1.55566
1.53857
1.51344
1.4871
1.47329
1.46059
1.44137
1.41842
1.40835
1.40038
1.38497
1.36184
1.35354
1.35106
1.34298
1.33249
1.33239
1.35077
1.46479
1.70119
1.83103
1.83194
1.82261
1.81255
1.79003
1.76618
1.74583
1.72616
1.70531
1.68491
1.66657
1.65165
1.64085
1.62691
1.61244
1.59997
1.58594
1.57033
1.55345
1.53465
1.52116
1.51177
1.51891
1.54217
1.58187
1.62174
1.65493
1.66627
1.66515
1.65948
1.65716
1.65726
1.6615
1.66007
1.65755
1.65621
1.65272
1.64213
1.62871
1.62587
1.62624
1.62793
1.62684
1.62675
1.62593
1.62301
1.61377
1.6013
1.59315
1.64745
1.66148
1.68262
1.7092
1.7346
1.73723
1.72864
1.71353
1.69876
1.67815
1.65681
1.63847
1.61856
1.58932
1.57006
1.55748
1.54258
1.51881
1.49579
1.48341
1.46863
1.44728
1.42112
1.41546
1.40751
1.39229
1.37098
1.35783
1.3496
1.3401
1.3373
1.3559
1.4962
1.70974
1.82879
1.81957
1.80013
1.78049
1.7629
1.74291
1.7236
1.70737
1.69069
1.67255
1.6562
1.6411
1.62572
1.60887
1.5913
1.57715
1.56647
1.55526
1.54248
1.52976
1.51603
1.49746
1.48184
1.47424
1.46922
1.47576
1.49385
1.52727
1.56422
1.59451
1.60907
1.61132
1.61115
1.61529
1.62284
1.62658
1.62419
1.61959
1.611
1.59773
1.59136
1.59102
1.59135
1.59495
1.59575
1.59468
1.593
1.58777
1.57736
1.56795
1.60503
1.63982
1.657
1.67764
1.70197
1.72164
1.71833
1.70622
1.69152
1.6716
1.65184
1.63654
1.61789
1.59226
1.57084
1.55574
1.54027
1.52107
1.50285
1.48991
1.47588
1.45364
1.42688
1.41851
1.4108
1.39697
1.37778
1.36373
1.35426
1.34707
1.36989
1.52257
1.75415
1.82246
1.81332
1.78747
1.75947
1.73842
1.72048
1.70237
1.68514
1.66875
1.65337
1.64139
1.62993
1.61339
1.59396
1.57434
1.55603
1.54409
1.53642
1.53123
1.52253
1.51252
1.50054
1.48162
1.46036
1.44903
1.44309
1.43765
1.4333
1.43762
1.45195
1.47915
1.5094
1.54201
1.56073
1.56882
1.577
1.58568
1.59125
1.59015
1.58496
1.57412
1.56278
1.55951
1.56091
1.56794
1.56999
1.5686
1.56721
1.56435
1.55854
1.54591
1.51302
1.60247
1.62636
1.63942
1.66813
1.69327
1.70213
1.69699
1.68649
1.66791
1.64805
1.63328
1.61464
1.58911
1.57287
1.55982
1.5418
1.51791
1.50246
1.49537
1.48001
1.45805
1.43257
1.42415
1.41492
1.40234
1.38347
1.36623
1.36552
1.40313
1.56221
1.78179
1.84413
1.82549
1.79644
1.76338
1.73178
1.71128
1.69238
1.67278
1.6538
1.63632
1.62222
1.61138
1.59935
1.58284
1.56161
1.54056
1.52756
1.51906
1.51368
1.50853
1.5003
1.4912
1.48014
1.46356
1.4432
1.43068
1.422
1.41562
1.41043
1.40783
1.40575
1.40431
1.41194
1.42993
1.45699
1.48635
1.51078
1.53233
1.55098
1.56019
1.56115
1.55782
1.5468
1.5335
1.52907
1.53155
1.53882
1.54555
1.54564
1.54499
1.54111
1.52736
1.28348
1.49702
1.58778
1.6079
1.63191
1.65347
1.6731
1.68227
1.67933
1.66806
1.64851
1.63236
1.614
1.58666
1.57208
1.56024
1.54529
1.51958
1.50496
1.49569
1.48148
1.45936
1.43839
1.42957
1.42039
1.40619
1.38588
1.3867
1.43913
1.62295
1.80971
1.85853
1.84268
1.80851
1.77391
1.74474
1.71671
1.69095
1.66746
1.64612
1.62779
1.61161
1.59717
1.5851
1.57308
1.5582
1.53913
1.5183
1.50482
1.4984
1.49495
1.48725
1.47726
1.46759
1.45739
1.44558
1.4314
1.41865
1.40665
1.39896
1.39503
1.39143
1.38613
1.3807
1.37498
1.36735
1.3693
1.37962
1.40763
1.44429
1.47779
1.51251
1.53326
1.53458
1.53123
1.52043
1.51043
1.50848
1.5101
1.51377
1.51853
1.51932
1.51821
1.51168
1.05478
1.24292
1.46838
1.54685
1.59586
1.62964
1.65334
1.66986
1.6715
1.66634
1.64998
1.63289
1.61439
1.58999
1.57271
1.56136
1.54633
1.52214
1.50714
1.49752
1.48339
1.46249
1.44463
1.43324
1.42394
1.40819
1.41345
1.49023
1.69234
1.84856
1.87247
1.85524
1.82224
1.78696
1.75791
1.73301
1.70635
1.67888
1.65338
1.63105
1.61123
1.5937
1.57814
1.5649
1.55247
1.53821
1.52154
1.50553
1.49001
1.47787
1.47029
1.46313
1.45562
1.44748
1.43756
1.42794
1.41955
1.40934
1.39738
1.38549
1.38048
1.37685
1.37186
1.36573
1.35689
1.34919
1.34212
1.33261
1.3327
1.34745
1.37651
1.41472
1.45949
1.48574
1.50174
1.5052
1.50107
1.49197
1.4902
1.49047
1.49351
1.49599
1.49572
1.49292
1.00212
1.03419
1.21894
1.404
1.51869
1.59411
1.62777
1.64828
1.66208
1.66131
1.64929
1.63088
1.61249
1.5893
1.57522
1.56635
1.55024
1.52327
1.51035
1.4995
1.48476
1.46726
1.44778
1.44068
1.43035
1.44498
1.56772
1.77148
1.90073
1.89145
1.86147
1.828
1.79592
1.76908
1.74635
1.7233
1.6987
1.67286
1.64758
1.62484
1.6045
1.58617
1.56962
1.55468
1.53997
1.52426
1.50832
1.49246
1.47535
1.46163
1.45137
1.44338
1.43763
1.43178
1.42391
1.41464
1.40493
1.39392
1.38262
1.37117
1.36402
1.36114
1.35801
1.35244
1.34546
1.33894
1.33155
1.32231
1.30721
1.3031
1.30671
1.32019
1.34985
1.38978
1.42519
1.45817
1.47415
1.47353
1.46967
1.46886
1.47143
1.47718
1.48083
1.48075
1.00002
1.00103
1.02644
1.1467
1.3179
1.51763
1.59285
1.62082
1.63895
1.64206
1.63333
1.62007
1.61045
1.59665
1.57863
1.56716
1.54886
1.52417
1.5141
1.50264
1.49149
1.46892
1.45072
1.45042
1.48625
1.64514
1.84663
1.93451
1.92424
1.88652
1.84579
1.8114
1.78263
1.75931
1.73855
1.7178
1.69579
1.67144
1.64545
1.62077
1.59918
1.58052
1.56411
1.54946
1.53528
1.52068
1.50548
1.48825
1.46949
1.45304
1.43948
1.429
1.42391
1.41986
1.41421
1.40636
1.39568
1.38255
1.36907
1.35814
1.34949
1.34585
1.34506
1.34172
1.33699
1.33281
1.32676
1.31612
1.30102
1.28901
1.28565
1.28522
1.28734
1.29837
1.32244
1.36275
1.39806
1.42691
1.44004
1.44563
1.45098
1.45629
1.46226
1.46409
1
1.00001
1.00056
1.0111
1.07281
1.2908
1.50733
1.58166
1.6124
1.62612
1.62803
1.62553
1.61952
1.60309
1.58413
1.57045
1.54765
1.52314
1.5139
1.50654
1.49688
1.47414
1.47522
1.54879
1.73127
1.91955
1.95092
1.93579
1.90175
1.86564
1.83264
1.80357
1.77892
1.75717
1.73622
1.7151
1.6932
1.66944
1.6439
1.61895
1.59704
1.57835
1.56199
1.54704
1.53246
1.51793
1.50283
1.48567
1.46676
1.44853
1.43318
1.42338
1.41673
1.41019
1.4023
1.39371
1.38341
1.3712
1.35953
1.34925
1.34018
1.33428
1.33219
1.32857
1.3231
1.31798
1.3128
1.30563
1.29443
1.28222
1.27574
1.27295
1.26838
1.26664
1.26908
1.28034
1.30436
1.33371
1.36308
1.39582
1.4209
1.42786
1.43616
1.44511
1
1
1
1.00015
1.00345
1.05181
1.28651
1.46652
1.56188
1.61088
1.63385
1.63114
1.62299
1.60872
1.59124
1.57109
1.54731
1.52713
1.51665
1.51261
1.49933
1.51339
1.63683
1.83481
1.96325
1.98342
1.96483
1.9286
1.88981
1.85746
1.82861
1.80197
1.77883
1.75756
1.73592
1.71315
1.68987
1.66672
1.64348
1.62025
1.59873
1.57973
1.56312
1.5482
1.53352
1.51807
1.50108
1.48259
1.4641
1.44725
1.43263
1.42032
1.41007
1.40155
1.39404
1.38645
1.37697
1.3649
1.35466
1.3437
1.33425
1.32675
1.32119
1.31673
1.30919
1.3035
1.29996
1.29444
1.28408
1.27307
1.26865
1.26531
1.25986
1.25428
1.25062
1.24956
1.25153
1.25892
1.27749
1.30341
1.34066
1.3724
1.40134
1.42655
1
1
1
1
1.00004
1.00201
1.05125
1.20524
1.39062
1.57588
1.62541
1.62746
1.6215
1.61155
1.59114
1.56741
1.55078
1.53336
1.52374
1.52434
1.56976
1.74111
1.94214
2.00334
1.99819
1.97886
1.95054
1.91899
1.88877
1.85943
1.82934
1.80168
1.77857
1.75775
1.73667
1.71386
1.68977
1.66594
1.64326
1.62189
1.6021
1.58381
1.56666
1.55042
1.5348
1.51972
1.50396
1.48732
1.47025
1.45178
1.43341
1.41818
1.40615
1.39711
1.38818
1.37848
1.37
1.36208
1.35174
1.33606
1.32446
1.31723
1.31033
1.30414
1.29494
1.29052
1.28907
1.28416
1.27375
1.26564
1.26098
1.25617
1.24921
1.24294
1.24049
1.23869
1.23641
1.23545
1.23574
1.24079
1.25549
1.28453
1.31685
1.37349
1
1
1
1
1
1.00002
1.00167
1.02012
1.11167
1.41637
1.57541
1.61846
1.62437
1.61519
1.59573
1.57866
1.56405
1.5448
1.54862
1.64941
1.87233
2.02094
2.06509
2.05374
2.01465
1.97397
1.94233
1.91457
1.88702
1.85884
1.8309
1.80429
1.77947
1.75634
1.73466
1.71375
1.69293
1.67201
1.65088
1.62851
1.60597
1.58573
1.56739
1.54977
1.53291
1.51778
1.50416
1.49077
1.47497
1.45556
1.43782
1.42355
1.41017
1.3977
1.38634
1.37651
1.3685
1.35998
1.34857
1.33322
1.32178
1.31303
1.30399
1.29549
1.28665
1.28298
1.28062
1.27448
1.26537
1.25992
1.25315
1.24424
1.23593
1.23239
1.23158
1.23119
1.22981
1.2263
1.22312
1.2208
1.21847
1.22116
1.2327
1.28816
1
1
1
1
1
1
1.00001
1.00033
1.00665
1.1233
1.40544
1.54687
1.6192
1.62118
1.61657
1.6058
1.57932
1.58433
1.73171
2.01119
2.10369
2.09328
2.07409
2.04512
2.01247
1.97583
1.94234
1.9142
1.88885
1.86365
1.83755
1.81054
1.78364
1.75841
1.7358
1.71603
1.69811
1.67998
1.6601
1.63782
1.61308
1.58752
1.56581
1.55226
1.54214
1.53016
1.51703
1.50301
1.48596
1.46506
1.44152
1.42537
1.41544
1.40563
1.39479
1.38494
1.37501
1.36353
1.35044
1.33403
1.32091
1.31213
1.30382
1.29322
1.28462
1.27889
1.2736
1.2664
1.25947
1.255
1.24793
1.23705
1.22877
1.22517
1.22458
1.22449
1.22324
1.21956
1.21615
1.21337
1.21073
1.20497
1.2032
1.21934
1
1
1
1
1
1
1
1
1.00011
1.00814
1.11955
1.30251
1.51628
1.6201
1.6162
1.60485
1.61886
1.83293
2.08395
2.1862
2.17354
2.12562
2.07665
2.04021
2.01076
1.97952
1.94784
1.91901
1.89363
1.86939
1.84421
1.81723
1.78912
1.76221
1.7386
1.71774
1.69792
1.67813
1.65866
1.6399
1.61864
1.59402
1.57246
1.55407
1.53775
1.52345
1.50917
1.49492
1.48083
1.46544
1.44983
1.43417
1.41728
1.40089
1.38796
1.37817
1.36899
1.35858
1.34618
1.33422
1.32524
1.31363
1.29758
1.2833
1.27768
1.27385
1.26849
1.26134
1.25583
1.25216
1.24625
1.23614
1.22374
1.21859
1.21722
1.21631
1.21466
1.2122
1.21042
1.20911
1.20703
1.20087
1.19439
1.19481
1
1
1
1
1
1
1
1
1
1.00013
1.0063
1.04543
1.23495
1.53021
1.59621
1.67584
1.89793
2.15649
2.21314
2.17982
2.15699
2.12573
2.08434
2.04371
2.00959
1.98004
1.95292
1.92712
1.90204
1.87652
1.84955
1.82107
1.79271
1.7657
1.74046
1.71805
1.69849
1.68067
1.66267
1.64302
1.62477
1.60802
1.58704
1.56429
1.54263
1.52437
1.50899
1.49463
1.48549
1.47761
1.46526
1.44767
1.42624
1.40671
1.39285
1.38294
1.37397
1.3646
1.35525
1.34672
1.33666
1.32146
1.29992
1.28235
1.27824
1.27495
1.26987
1.26426
1.26101
1.25785
1.25099
1.2373
1.2211
1.21489
1.21283
1.21092
1.20931
1.2088
1.20804
1.20702
1.20519
1.1989
1.19236
1.1909
1
1
1
1
1
1
1
1
1
1
1.00005
1.00114
1.03206
1.29156
1.63456
1.91202
2.24671
2.44796
2.3211
2.19959
2.14594
2.12076
2.08833
2.04667
2.00686
1.97585
1.95087
1.92798
1.90453
1.87969
1.85353
1.82559
1.79499
1.76404
1.73711
1.71473
1.69514
1.67728
1.66097
1.6453
1.62687
1.60247
1.57656
1.55369
1.53508
1.51915
1.5056
1.4947
1.48395
1.47097
1.45583
1.43661
1.41434
1.3943
1.38006
1.37033
1.36201
1.35318
1.34476
1.3371
1.32735
1.313
1.29273
1.27262
1.26661
1.26323
1.25838
1.25403
1.25239
1.25038
1.24415
1.22943
1.213
1.20799
1.20613
1.20401
1.20218
1.20203
1.20216
1.20168
1.20028
1.19385
1.18847
1.1874
)
;

boundaryField
{
    inlet
    {
        type            fixedValue;
        value           uniform 1;
    }
    outlet
    {
        type            inletOutlet;
        inletValue      uniform 1;
        value           nonuniform List<scalar> 
32
(
2.35052
2.35436
2.33218
2.24384
2.12596
2.01367
1.92798
1.87892
1.85394
1.83326
1.80698
1.77413
1.73721
1.69882
1.66128
1.62563
1.59341
1.56813
1.5443
1.52506
1.51041
1.49269
1.48113
1.46497
1.44587
1.42676
1.37363
1.28776
1.21919
1.19483
1.19101
1.18748
)
;
    }
    bottom
    {
        type            zeroGradient;
    }
    top
    {
        type            zeroGradient;
    }
    obstacle
    {
        type            zeroGradient;
    }
    defaultFaces
    {
        type            empty;
    }
}


// ************************************************************************* //
