/*--------------------------------*- C++ -*----------------------------------*\
  =========                 |
  \\      /  F ield         | OpenFOAM: The Open Source CFD Toolbox
   \\    /   O peration     | Website:  https://openfoam.org
    \\  /    A nd           | Version:  7
     \\/     M anipulation  |
\*---------------------------------------------------------------------------*/
FoamFile
{
    version     2.0;
    format      ascii;
    class       volScalarField;
    location    "3.1";
    object      p;
}
// * * * * * * * * * * * * * * * * * * * * * * * * * * * * * * * * * * * * * //

dimensions      [1 -1 -2 0 0 0 0];

internalField   nonuniform List<scalar> 
4128
(
1
1
1
1
1
1
1
1
1
1
1
1
1
1
1
1
1
1.81093
8.54803
10.8083
11.0729
11.4065
11.6626
11.878
1
1
1
1
1
1
1
1
1
1
1
1
1
1
1
1
1
1.68084
8.22408
10.7172
10.9813
11.2852
11.4998
11.5931
1
1
1
1
1
1
1
1
1
1
1
1
1
1
1
1
1
1.38984
7.61337
10.5755
10.7818
10.9915
11.0806
11.2037
1
1
1
1
1
1
1
1
1
1
1
1
1
1
1
1
1
1.03966
6.59331
10.2985
10.4644
10.648
10.6943
10.9668
1
1
1
1
1
1
1
1
1
1
1
1
1
1
1
1
1
1.00038
5.1671
9.7535
9.99499
10.0296
9.45599
7.8196
1
1
1
1
1
1
1
1
1
1
1
1
1
1
1
1
1
0.999996
3.49067
9.0129
9.63009
9.37257
8.69802
7.01448
1
1
1
1
1
1
1
1
1
1
1
1
1
1
1
1
1
0.999999
1.85675
7.81341
9.35783
8.87722
8.1758
6.53336
1
1
1
1
1
1
1
1
1
1
1
1
1
1
1
1
1
1
1.08088
5.85769
8.76951
8.29074
7.67231
6.3145
1
1
1
1
1
1
1
1
1
1
1
1
1
1
1
1
1
1
1.00027
3.22058
7.82203
8.0863
7.37454
6.30219
1
1
1
1
1
1
1
1
1
1
1
1
1
1
1
1
1
1
0.999997
1.34686
6.06103
8.01792
7.23855
6.32355
1
1
1
1
1
1
1
1
1
1
1
1
1
1
1
1
1
1
0.999999
1.01007
3.34954
7.31295
7.0752
6.2853
1
1
1
1
1
1
1
1
1
1
1
1
1
1
1
1
1
1
1
1.00001
1.38321
5.44509
7.1525
6.33322
1
1
1
1
1
1
1
1
1
1
1
1
1
1
1
1
1
1
1
1
1.01222
2.58451
6.20399
6.35553
1
1
1
1
1
1
1
1
1
1
1
1
1
1
1
1
1
1
1
1
1.00007
1.18719
4.06085
6.25409
1
1
1
1
1
1
1
1
1
1
1
1
1
1
1
1
1
1
1
1
1
1.00388
1.71139
4.8363
1
1
1
1
1
1
1
1
1
1
1
1
1
1
1
1
1
1
1
1
1
1.00002
1.0423
2.37018
1
1
1
1
1
1
1
1
1
1
1
1
1
1
1
1
1
1
1
1
1
1
1.00054
1.14815
1
1
1
1
1
1
1
1
1
1
1
1
1
1
1
1
1
1
1
1
1
1
1
1.00354
1
1
1
1
1
1
1
1
1
1
1
1
1
1
1
1
1
1
1
1
1
1
1
1.00002
1
1
1
1
1
1
1
1
1
1
1
1
1
1
1
1
1
1
1
1
1
1
1
1
1
1
1
1
1
1
1
1
1
1
1
1
1
1
1
1
1
1
1
1
1
1
1
1
1
1
1
1
1
1
1
1
1
1
1
1
1
1
1
1
1
1
1
1
1
1
1
1
1
1
1
1
1
1
1
1
1
1
1
1
1
1
1
1
1
1
1
1
1
1
1
1
1
1
1
1
1
1
1
1
1
1
1
1
1
1
1
1
1
1
1
1
1
1
1
1
1
1
1
1
1
1
1
1
1
1
1
1
1
1
1
1
1
1
1
1
1
1
1
1
1
1
1
1
1
1
1
1
1
1
1
1
1
1
1
1
1
1
1
1
1
1
1
1
1
1
1
1
1
1
1
1
1
1
1
1
1
1
1
1
1
1
1
1
1
1
1
1
1
1
1
1
1
1
1
1
1
1
1
1
1
1
1
1
1
1
1
1
1
1
1
1
1
1
1
1
1
1
1
1
1
1
1
1
1
1
1
1
1
1
1
1
1
1
1
1
1
1
1
1
1
1
1
1
1
1
1
1
1
1
1
1
1
1
1
1
1
1
1
1
1
1
1
1
1
1
1
1
1
1
1
1
1
1
1
1
1
1
1
1
1
1
1
1
1
1
1
1
1
1
1
1
1
1
1
1
1
1
1
1
1
1
1
1
1
1
1
1
1
1
1
1
1
1
1
1
1
1
1
1
1
1
1
1
1
1
1
1
1
1
1
1
1
1
1
1
1
1
1
1
1
1
1
1
1
1
1
1
1
1
1
1
1
1
1
1
1
1
1
1
1
1
1
1
1
1
1
1
1
1
1
1
1
1
1
1
1
1
1
1
1
1
1
1
1
1
1
1
1
1
1
1
1
1
1
1
1
1
1
1
1
1
1
1
1
1
1
1
1
1
1
1
1
1
1
1
1
1
1
1
1
1
1
1
1
1
1
1
1
1
1
1
1
1
1
1
1
1
1
1
1
1
1
1
1
1
1
1
1
1
1
1
1
1
1
1
1
1
1
1
1
1
1
1
1
1
1
1
1
1
1
1
1
1
1
1
1
1
1
1
1
1
1
1
1
1
1
1
1
1
1
1
1
1
1
1
1
1
1
1
2.11781
0.771665
0.375619
0.39581
0.524442
0.635815
0.793337
1.05186
1.2344
1.30407
1.32758
1.35071
1.36744
1.36907
2.20623
5.00441
5.65861
5.84085
5.96635
6.08396
6.24059
6.39187
6.47591
6.48545
3.3365
2.06859
1.32526
1.05762
1.01385
0.91963
0.87951
0.905466
0.962579
1.02056
1.08341
1.1592
1.23716
1.26829
2.00656
4.84436
5.65731
5.83791
5.96012
6.06495
6.20478
6.34623
6.4278
6.39994
4.23872
2.97336
2.20993
1.69749
1.40841
1.19041
0.991893
0.927548
0.914398
0.92664
0.990804
1.07935
1.16413
1.19472
1.56826
4.46674
5.64328
5.82342
5.94729
6.03464
6.1407
6.22567
6.24552
6.27012
4.79115
3.70636
2.86327
2.28177
1.88685
1.59379
1.32893
1.20486
1.12038
1.01517
0.987266
1.00878
1.04297
1.07025
1.16762
3.70719
5.55624
5.74961
5.86802
5.94279
6.02135
6.09876
6.09179
6.21992
5.15209
4.23841
3.425
2.78072
2.34447
1.98556
1.65095
1.47334
1.34383
1.2015
1.06888
1.04524
1.0205
1.02086
1.02771
2.54888
5.31492
5.66674
5.7789
5.86628
5.89351
5.88321
5.54307
4.65987
5.35435
4.54946
3.83092
3.18176
2.7254
2.3584
2.01186
1.77224
1.60246
1.43889
1.27549
1.20931
1.13728
1.07613
1.04544
1.42605
4.63711
5.57159
5.67156
5.74244
5.7168
5.59475
5.18731
4.30127
5.47223
4.77027
4.12809
3.53459
3.08524
2.68987
2.31202
2.06807
1.87624
1.68737
1.50002
1.38427
1.27537
1.16816
1.0781
1.10008
3.29896
5.40133
5.5659
5.61805
5.55118
5.33205
4.95221
4.10059
5.60958
4.96933
4.40365
3.83651
3.35859
2.99326
2.63703
2.34533
2.1211
1.90761
1.72226
1.59375
1.46667
1.33795
1.22941
1.15972
1.842
4.88866
5.49263
5.51701
5.40959
5.15047
4.75065
4.03002
5.75361
5.12483
4.6005
4.09902
3.63425
3.24412
2.89422
2.59715
2.37049
2.13516
1.93701
1.78298
1.64162
1.49945
1.40401
1.27854
1.32828
3.53959
5.28897
5.40597
5.27993
5.01447
4.61905
4.0479
5.93265
5.32873
4.81125
4.33492
3.86124
3.48783
3.15597
2.84681
2.58913
2.34162
2.14548
1.98666
1.84186
1.67064
1.5717
1.46053
1.35774
2.00311
4.68592
5.39007
5.24354
4.97455
4.57993
4.1047
5.91126
5.528
4.97541
4.51836
4.0882
3.69272
3.35789
3.05466
2.79331
2.55776
2.34379
2.17002
2.00476
1.83246
1.73959
1.64535
1.46781
1.50967
3.36068
5.14346
5.15002
4.87307
4.52326
4.13254
5.04626
5.61121
5.2118
4.71354
4.26267
3.89166
3.58869
3.28487
2.98273
2.74573
2.55294
2.35684
2.177
1.99479
1.89731
1.79861
1.64521
1.53748
2.04332
4.33435
5.08466
4.85986
4.58274
4.24811
2.95476
5.04078
5.33903
4.97777
4.49322
4.08678
3.7706
3.47323
3.18335
2.95273
2.74647
2.54562
2.32455
2.15623
2.05679
1.95104
1.80877
1.63812
1.67506
2.96411
4.77077
4.9065
4.63529
4.31837
1.31798
3.33647
4.951
5.1175
4.76922
4.30902
3.97743
3.66744
3.35888
3.13521
2.93034
2.72389
2.50712
2.32827
2.20934
2.08836
1.94714
1.80355
1.71533
1.98053
3.79851
4.84718
4.68856
4.37094
1.01231
1.50014
3.53105
4.8132
4.92747
4.58496
4.20644
3.85051
3.52728
3.32343
3.11695
2.89784
2.65153
2.50575
2.37657
2.23434
2.0683
1.95329
1.82584
1.82299
2.52955
4.21944
4.72114
4.48164
1.00011
1.02714
1.64465
3.58935
4.66868
4.755
4.47593
4.08829
3.7166
3.49264
3.28716
3.05832
2.82118
2.67848
2.53567
2.38641
2.19278
2.08744
2.00182
1.86238
1.94102
3.12931
4.40245
4.55389
1
1.00034
1.04389
1.7289
3.57608
4.51509
4.61017
4.35999
3.95321
3.68069
3.46995
3.21848
2.9794
2.8449
2.69266
2.53445
2.33807
2.22755
2.15675
1.99184
1.92099
2.21566
3.58429
4.43902
1
1
1.00069
1.05638
1.76651
3.49518
4.38073
4.47328
4.24164
3.90709
3.6654
3.37507
3.14562
3.00965
2.85399
2.67871
2.46904
2.38026
2.2986
2.15138
1.97203
1.99328
2.55206
3.83896
1
1
1
1.001
1.06376
1.75448
3.38865
4.24817
4.33724
4.15439
3.89634
3.5784
3.31092
3.16385
3.0145
2.82216
2.61939
2.52171
2.42526
2.30328
2.10391
2.03511
2.10968
2.85086
1
1
1
1
1.00122
1.06423
1.70802
3.24263
4.11964
4.22354
4.10593
3.82171
3.50276
3.32187
3.16302
2.9625
2.77721
2.67939
2.56287
2.43456
2.25894
2.14547
2.1011
2.2258
1
1
1
1
1.00001
1.00128
1.05804
1.64123
3.03733
3.99546
4.14568
4.03672
3.75086
3.50596
3.32065
3.07899
2.93308
2.83395
2.70225
2.55816
2.39012
2.29433
2.16954
2.17117
1
1
1
1
1
1.00001
1.00111
1.04888
1.55643
2.83289
3.89962
4.04744
3.95565
3.72992
3.51877
3.23435
3.08253
2.96561
2.83467
2.67923
2.51758
2.44933
2.33139
2.18088
1
1
1
1
1
1
1.00001
1.00086
1.04122
1.43544
2.68388
3.76084
3.88927
3.8643
3.74364
3.46571
3.2465
3.10787
2.98207
2.79565
2.65639
2.59022
2.484
2.28653
1
1
1
1
1
1
1
1
1.00069
1.02809
1.35367
2.50903
3.48015
3.7849
3.82438
3.70276
3.44741
3.2669
3.12841
2.91963
2.80367
2.72573
2.61413
2.44068
1
1
1
1
1
1
1
1
1
1.00043
1.01995
1.27874
2.21804
3.22452
3.74028
3.77603
3.66108
3.47503
3.29691
3.05161
2.93794
2.84545
2.72819
2.57783
1
1
1
1
1
1
1
1
1
1
1.00028
1.01272
1.19648
1.91209
3.01092
3.66894
3.70612
3.6362
3.4973
3.25611
3.08196
2.96165
2.84125
2.67798
1
1
1
1
1
1
1
1
1
1
1
1.00014
1.00742
1.11482
1.66631
2.83036
3.52744
3.60702
3.5839
3.46387
3.25374
3.10307
2.96518
2.77644
1
1
1
1
1
1
1
1
1
1
1
1
1.00007
1.0033
1.06735
1.51252
2.60801
3.33214
3.52127
3.53057
3.44073
3.27887
3.10066
2.88943
1
1
1
1
1
1
1
1
1
1
1
1
1
1.00002
1.00164
1.04384
1.3873
2.30633
3.09894
3.45481
3.50893
3.46004
3.30718
3.06684
1
1
1
1
1
1
1
1
1
1
1
1
1
1
1.00001
1.00093
1.02549
1.2615
1.98191
2.79277
3.33879
3.45684
3.43249
3.27746
1
1
1
1
1
1
1
1
1
1
1
1
1
1
1
1
1.00041
1.01311
1.13334
1.65786
2.48438
3.28244
3.40013
3.34471
1
1
1
1
1
1
1
1
1
1
1
1
1
1
1
1
1
1.00014
1.00418
1.0674
1.40895
2.23978
3.16058
3.28397
1
1
1
1
1
1
1
1
1
1
1
1
1
1
1
1
1
1
1.00003
1.00155
1.03345
1.2595
2.05758
2.86562
1
1
1
1
1
1
1
1
1
1
1
1
1
1
1
1
1
1
1
1.00001
1.00068
1.01634
1.17346
1.8392
1
1
1
1
1
1
1
1
1
1
1
1
1
1
1
1
1
1
1
1
1
1.00027
1.00816
1.11437
1
1
1
1
1
1
1
1
1
1
1
1
1
1
1
1
1
1
1
1
1
1
1.0001
1.00364
1.45571
0.641094
0.467836
0.523636
0.666076
0.856286
1.0863
1.23333
1.31953
1.36037
1.35878
1.36357
1.37514
1.36911
1.37461
1.3883
1.38992
1.38043
1.36928
1.35544
1.33674
1.32963
1.32883
1.33206
1.34422
1.35421
1.3507
1.34076
1.32378
1.29984
1.28379
1.27813
1.27475
1.27528
1.27664
2.17647
4.25749
4.57898
4.58366
4.6143
4.64008
4.65783
4.65855
4.64324
4.61934
4.60031
4.59283
4.59052
4.57549
4.52782
4.45501
4.38109
4.32211
4.28574
4.27294
4.27638
4.28132
4.27941
4.253
4.16898
4.04538
3.92271
3.8285
3.77867
3.77172
3.78359
3.80271
3.83797
3.86278
3.82924
3.72962
3.54922
2.24578
1.52066
1.10017
0.971611
0.944662
0.921463
0.957377
1.03662
1.12315
1.2115
1.25894
1.28424
1.30716
1.32722
1.35026
1.36917
1.37186
1.37473
1.36894
1.36134
1.35108
1.34435
1.33961
1.33622
1.33911
1.33831
1.33378
1.32878
1.31979
1.3053
1.29474
1.28918
1.28508
1.28373
1.27846
2.07966
4.19089
4.60706
4.61338
4.65607
4.70288
4.71475
4.69862
4.66777
4.63275
4.6044
4.58936
4.58547
4.58135
4.56054
4.51046
4.43464
4.3473
4.26476
4.20255
4.16963
4.15629
4.13783
4.1144
4.10587
4.10309
4.08425
4.02159
3.92999
3.84244
3.77478
3.72511
3.68678
3.66069
3.63232
3.61424
3.57276
2.82703
2.11721
1.64905
1.30082
1.13984
1.0386
0.949061
0.973469
1.03363
1.12661
1.2005
1.23918
1.28429
1.33703
1.37089
1.38939
1.39709
1.39156
1.37093
1.35387
1.3413
1.33828
1.33554
1.33812
1.34344
1.34187
1.3378
1.32908
1.31416
1.2996
1.2923
1.28887
1.2864
1.28723
1.28246
1.89092
4.0958
4.6874
4.69721
4.72441
4.75214
4.7462
4.71496
4.66345
4.60867
4.56483
4.5401
4.53542
4.53757
4.53437
4.52186
4.50119
4.46698
4.4039
4.30654
4.19206
4.08438
3.99113
3.93681
3.94408
3.99723
4.06885
4.13117
4.13242
4.05735
3.93885
3.7804
3.61771
3.50194
3.4362
3.42729
3.49882
3.18812
2.54072
2.10661
1.70275
1.41931
1.304
1.15176
1.04164
1.02238
1.03589
1.06977
1.11704
1.18219
1.26723
1.32182
1.34966
1.38025
1.38545
1.37669
1.35397
1.33807
1.33411
1.33235
1.3338
1.3373
1.33932
1.3373
1.32727
1.31332
1.30386
1.29589
1.29053
1.28728
1.28544
1.28121
1.63653
3.92637
4.8406
4.8349
4.81406
4.81577
4.77696
4.73535
4.68069
4.61656
4.56049
4.52369
4.50606
4.49012
4.45982
4.42751
4.40768
4.40627
4.41452
4.40118
4.32336
4.21268
4.09031
3.98565
3.92273
3.9013
3.93544
4.02107
4.08445
4.04992
3.96811
3.84878
3.68538
3.5329
3.44014
3.39453
3.44892
3.44321
2.87834
2.44375
2.09014
1.72735
1.51645
1.37625
1.19677
1.09443
1.04757
1.04047
1.06084
1.10188
1.16625
1.22436
1.25944
1.29328
1.33806
1.36395
1.36658
1.36647
1.36373
1.3541
1.34373
1.33568
1.3286
1.31854
1.30824
1.30488
1.30412
1.30421
1.30128
1.29799
1.29366
1.28273
1.38948
3.62882
5.04003
5.01987
4.91241
4.87398
4.81042
4.77336
4.74475
4.68738
4.62647
4.58002
4.54697
4.51558
4.45874
4.38494
4.32559
4.29237
4.29731
4.32985
4.34354
4.28741
4.20616
4.10841
4.0123
3.94394
3.90341
3.89902
3.92193
3.92063
3.86653
3.79808
3.71548
3.62484
3.5475
3.49964
3.47191
3.60663
3.1255
2.70361
2.37557
2.03959
1.74436
1.59499
1.42539
1.24867
1.18733
1.12665
1.08484
1.07872
1.08738
1.10387
1.13882
1.18658
1.25481
1.30551
1.32445
1.34744
1.37257
1.37489
1.36797
1.35052
1.32297
1.29938
1.2939
1.29345
1.29523
1.30264
1.30831
1.30769
1.30386
1.29102
1.27977
3.26966
5.26682
5.23188
4.99973
4.92502
4.82868
4.76268
4.73129
4.6883
4.64098
4.60298
4.56268
4.52173
4.46127
4.37401
4.29269
4.23292
4.20186
4.22357
4.2789
4.29604
4.23952
4.16265
4.06618
3.96422
3.88789
3.82903
3.79366
3.79754
3.80869
3.78322
3.74998
3.71323
3.66287
3.58966
3.46535
3.71889
3.29911
2.93037
2.61375
2.29572
1.98479
1.79027
1.63145
1.44402
1.326
1.25438
1.15383
1.09276
1.07655
1.0746
1.07375
1.09057
1.13682
1.2046
1.25585
1.29398
1.33771
1.36552
1.36619
1.35471
1.32778
1.30132
1.29251
1.29085
1.29244
1.30124
1.31184
1.31249
1.30478
1.28367
1.27591
2.95475
5.53346
5.47997
5.06625
4.91237
4.80504
4.72999
4.67905
4.64323
4.6103
4.5871
4.55256
4.51915
4.46097
4.38034
4.28887
4.20912
4.16159
4.14736
4.17968
4.22772
4.22213
4.16521
4.09431
3.9991
3.88696
3.79916
3.74881
3.72951
3.75159
3.77385
3.76119
3.72829
3.68519
3.62267
3.46529
3.88112
3.47809
3.11652
2.80492
2.50197
2.21141
1.99022
1.81463
1.63464
1.49099
1.41233
1.30693
1.18616
1.1482
1.11564
1.0785
1.07226
1.07714
1.09729
1.14631
1.20914
1.2749
1.32143
1.33628
1.33259
1.32122
1.31606
1.3079
1.30248
1.3022
1.3062
1.31065
1.30504
1.2896
1.27737
1.33002
2.75132
5.61301
5.77625
5.31967
5.00548
4.82122
4.7001
4.61526
4.57482
4.55742
4.54157
4.5198
4.51104
4.46224
4.38977
4.31051
4.21414
4.14022
4.09937
4.09079
4.12326
4.15825
4.13443
4.08002
4.01775
3.9328
3.83026
3.7521
3.71071
3.69667
3.70984
3.70046
3.66474
3.62526
3.57848
3.46525
3.9737
3.60082
3.25511
2.95595
2.66168
2.39218
2.18318
1.99668
1.8098
1.65983
1.55988
1.45066
1.318
1.23572
1.18311
1.11333
1.06667
1.06414
1.07365
1.0848
1.11426
1.16777
1.22839
1.2693
1.28328
1.29138
1.30646
1.31922
1.32339
1.32191
1.31682
1.30794
1.28994
1.27214
1.31208
1.71541
2.75765
4.76632
5.59951
5.53768
5.27259
5.01927
4.75213
4.59922
4.5157
4.46052
4.42753
4.4296
4.45791
4.45889
4.40064
4.33343
4.24936
4.15017
4.08213
4.04091
4.02735
4.04725
4.06327
4.04344
4.00089
3.94931
3.8797
3.78725
3.70465
3.65952
3.62854
3.60409
3.57404
3.54025
3.50543
3.44417
4.04453
3.71794
3.39965
3.11018
2.83014
2.57455
2.36929
2.17495
1.97481
1.82803
1.71978
1.60143
1.46017
1.35351
1.29596
1.22052
1.13135
1.11493
1.0976
1.08438
1.08978
1.09942
1.1177
1.15007
1.19986
1.23998
1.26903
1.30214
1.32786
1.32767
1.32173
1.30576
1.27785
1.30316
1.60784
2.58862
3.10501
3.56919
4.49766
5.14294
5.30085
5.13723
4.93274
4.74416
4.58506
4.4375
4.35635
4.32856
4.33476
4.35039
4.34547
4.3146
4.26246
4.18416
4.09263
4.01959
3.97428
3.95155
3.95426
3.95903
3.9415
3.91238
3.87133
3.8099
3.72471
3.63241
3.56521
3.52602
3.49606
3.46923
3.4502
3.41467
4.15996
3.84923
3.56229
3.27839
2.99004
2.74188
2.53642
2.33945
2.13281
1.97861
1.86382
1.73759
1.59959
1.48301
1.4122
1.32775
1.22326
1.17084
1.14478
1.1056
1.07336
1.07769
1.09172
1.09597
1.11034
1.15422
1.19792
1.24323
1.28443
1.3043
1.3005
1.29099
1.31804
1.59187
2.37384
3.16503
3.28838
3.32916
3.54373
4.07961
4.55354
4.78016
4.85702
4.82647
4.73698
4.59258
4.46236
4.35013
4.24879
4.19972
4.20824
4.21708
4.19402
4.1587
4.09711
4.01439
3.93984
3.8952
3.87103
3.85822
3.84986
3.83697
3.80846
3.77178
3.71871
3.63947
3.54366
3.47024
3.43749
3.41664
3.40637
3.38221
4.31605
3.99503
3.70345
3.42396
3.14123
2.89692
2.69379
2.49597
2.2814
2.12561
2.0082
1.88519
1.72911
1.60919
1.53477
1.45158
1.34046
1.26718
1.23777
1.19021
1.12262
1.1086
1.09774
1.07785
1.07071
1.08198
1.1056
1.15222
1.21491
1.24663
1.26419
1.2989
1.57986
2.34828
3.04356
3.32322
3.38261
3.35973
3.32424
3.31873
3.51421
3.86952
4.21621
4.43506
4.5602
4.58007
4.52509
4.40034
4.26801
4.19318
4.1501
4.13615
4.10193
4.07022
4.03541
3.9812
3.90256
3.82658
3.78357
3.75923
3.74532
3.74651
3.73782
3.7073
3.67521
3.63093
3.56174
3.46321
3.39072
3.36406
3.35248
3.33173
4.41347
4.13762
3.83985
3.5607
3.28956
3.05028
2.84055
2.64451
2.44293
2.2764
2.14937
2.01513
1.86611
1.73382
1.65643
1.57058
1.45941
1.37347
1.33693
1.28677
1.20416
1.15573
1.12451
1.08271
1.05406
1.0562
1.06906
1.08682
1.12979
1.17379
1.253
1.47863
2.26626
2.95773
3.2898
3.37176
3.43812
3.40954
3.30975
3.2187
3.15562
3.19562
3.36349
3.67631
3.97589
4.16652
4.21568
4.20037
4.16
4.14722
4.11782
4.1191
4.10882
4.0442
3.98904
3.93293
3.86243
3.76768
3.6886
3.65332
3.63696
3.63598
3.64468
3.65022
3.63531
3.60169
3.55559
3.48226
3.38142
3.31673
3.29644
3.26907
4.41984
4.27785
3.99618
3.69838
3.43465
3.20353
2.99726
2.797
2.58651
2.42595
2.29214
2.16035
1.98673
1.86039
1.78084
1.69033
1.57627
1.48419
1.44712
1.39132
1.30606
1.23649
1.19994
1.15091
1.09153
1.07362
1.06792
1.07402
1.09195
1.15629
1.44785
2.05477
2.84278
3.09755
3.28787
3.36764
3.39363
3.39527
3.33425
3.21979
3.12433
3.0804
3.11278
3.17733
3.25607
3.41663
3.57857
3.73177
3.82214
3.85811
3.87803
3.92528
3.99182
4.00334
3.97564
3.91407
3.8498
3.76107
3.65379
3.58443
3.54811
3.53621
3.543
3.56413
3.56703
3.54495
3.51458
3.46847
3.38739
3.28968
3.25074
3.21437
3.95622
4.32111
4.17188
3.87282
3.59009
3.35299
3.14334
2.9383
2.74355
2.57024
2.42701
2.28881
2.12436
1.98697
1.90303
1.81587
1.69261
1.59362
1.55141
1.49982
1.41055
1.32409
1.27858
1.22759
1.15301
1.10642
1.08724
1.08696
1.12605
1.36761
2.00456
2.60081
2.9579
3.04157
3.16851
3.2706
3.27932
3.25082
3.21585
3.17014
3.09021
3.027
2.99025
2.96839
2.99226
2.98014
2.96114
3.04111
3.19175
3.34357
3.48132
3.59433
3.70211
3.74828
3.77246
3.80732
3.81153
3.75861
3.65366
3.57469
3.51436
3.4785
3.47143
3.47455
3.46554
3.44784
3.42888
3.40047
3.3528
3.28056
3.23057
3.17305
3.09698
3.97883
4.22054
4.05574
3.7661
3.50059
3.30199
3.09693
2.87443
2.71218
2.57508
2.42232
2.24277
2.11561
2.03579
1.9356
1.81695
1.70742
1.66078
1.60094
1.50871
1.41534
1.36272
1.3148
1.24088
1.17977
1.16552
1.21857
1.46364
2.04353
2.58511
2.75991
2.85131
2.97294
3.10707
3.13699
3.11732
3.08548
3.03001
2.983
2.94179
2.8953
2.86174
2.84504
2.85071
2.84599
2.81686
2.74252
2.71034
2.75678
2.85696
2.96945
3.12398
3.29058
3.4351
3.54119
3.58708
3.58154
3.5552
3.55341
3.51247
3.45275
3.41065
3.38126
3.36145
3.35055
3.32867
3.30094
3.27507
3.24496
3.21465
3.14336
2.40017
3.31299
3.98143
4.1373
3.98626
3.69739
3.44287
3.24261
3.037
2.86192
2.71277
2.55928
2.37199
2.24592
2.1615
2.0666
1.93261
1.82156
1.77095
1.70555
1.60806
1.505
1.44836
1.39693
1.32943
1.29288
1.34592
1.70058
2.24307
2.67256
2.88989
2.92435
3.00302
3.06596
3.05906
3.01724
2.97415
2.94085
2.88407
2.79143
2.73383
2.71376
2.68976
2.67934
2.69295
2.70985
2.67985
2.62945
2.59453
2.53985
2.49497
2.49485
2.53595
2.65308
2.82675
2.98778
3.15437
3.28221
3.33012
3.36912
3.37446
3.38026
3.35963
3.30485
3.28207
3.26282
3.23082
3.21278
3.19546
3.178
3.16291
3.10065
2.19449
2.55504
3.44876
3.98725
4.07623
3.90235
3.6431
3.40643
3.1646
2.99815
2.85558
2.69681
2.5141
2.37707
2.29095
2.18505
2.05769
1.93732
1.87088
1.80514
1.70167
1.5995
1.53211
1.47365
1.46615
1.55807
1.9467
2.64696
2.9608
3.08427
3.11959
3.10983
3.14564
3.14432
3.09571
3.04239
2.96119
2.88495
2.80455
2.72115
2.62815
2.55823
2.51632
2.49054
2.50863
2.53355
2.51451
2.48977
2.46353
2.40863
2.37421
2.36497
2.33685
2.31783
2.34066
2.40974
2.50832
2.66341
2.83477
3.01773
3.11651
3.19018
3.20493
3.178
3.16727
3.15945
3.15526
3.14564
3.12704
3.11109
3.09372
3.03438
2.20008
2.25579
2.69283
3.54698
3.94577
3.98353
3.82114
3.59523
3.32107
3.13318
2.98825
2.82853
2.6343
2.52193
2.42918
2.30998
2.16393
2.04877
1.98652
1.89904
1.78796
1.68773
1.62292
1.6389
1.85113
2.30025
2.99798
3.37031
3.32661
3.31683
3.31558
3.34379
3.36579
3.29313
3.19557
3.09192
2.98513
2.88397
2.7911
2.69821
2.57969
2.48506
2.44164
2.41052
2.39412
2.36343
2.32437
2.30185
2.28127
2.25738
2.24832
2.25501
2.24147
2.19023
2.13184
2.11615
2.12352
2.15411
2.23344
2.40412
2.592
2.72557
2.85797
2.92209
2.97319
2.97715
2.99389
3.0433
3.07912
3.06172
3.03362
2.97198
2.27136
2.26584
2.33549
2.81201
3.57693
3.8864
3.91699
3.77859
3.51815
3.28503
3.13072
2.96709
2.77469
2.65926
2.55606
2.43587
2.28869
2.16349
2.09
1.99199
1.89354
1.80789
1.85154
2.13509
2.83099
3.33814
3.68015
3.70941
3.6214
3.61433
3.66366
3.67001
3.59224
3.46843
3.33409
3.20069
3.07368
2.95571
2.8456
2.7419
2.63626
2.52936
2.44875
2.38679
2.33444
2.28999
2.23104
2.17687
2.15676
2.15034
2.13673
2.12297
2.09721
2.04373
1.98491
1.95756
1.94431
1.94007
1.95909
2.01288
2.10498
2.18543
2.26681
2.37716
2.5186
2.61695
2.69884
2.82385
2.93868
2.97294
2.97691
2.94562
2.41584
2.33732
2.31869
2.40171
2.9105
3.57627
3.8664
3.88502
3.72051
3.4806
3.30188
3.11161
2.90428
2.79965
2.68368
2.55943
2.39738
2.28235
2.18834
2.09987
2.04965
2.1719
2.57412
3.3101
3.86018
3.89186
3.88946
3.87384
3.90752
3.98376
3.9902
3.90609
3.75592
3.57914
3.42142
3.28694
3.16666
3.05643
2.95013
2.84092
2.72678
2.60743
2.49339
2.39788
2.32131
2.25584
2.19167
2.13608
2.10783
2.0856
2.05954
2.03155
1.9971
1.94632
1.87384
1.82698
1.81305
1.81177
1.83417
1.85462
1.85616
1.86723
1.87238
1.88715
1.93927
2.07169
2.21498
2.37847
2.57596
2.75685
2.83439
2.82943
2.56179
2.47524
2.36697
2.37426
2.49634
2.98295
3.59391
3.83343
3.81929
3.66183
3.48387
3.27472
3.05717
2.93763
2.80692
2.67353
2.49207
2.40024
2.30443
2.34463
2.61907
3.30818
3.88428
4.34157
4.34877
4.24971
4.14773
4.18174
4.30902
4.35284
4.27136
4.10846
3.8919
3.68154
3.51373
3.37849
3.25946
3.14868
3.04142
2.93524
2.82735
2.71456
2.59403
2.47558
2.36919
2.27772
2.20672
2.15367
2.10599
2.06352
2.02323
1.98377
1.93926
1.87926
1.81414
1.76052
1.72604
1.7157
1.72012
1.73011
1.7194
1.7073
1.69621
1.67671
1.6491
1.66398
1.73167
1.85218
2.02596
2.27312
2.50268
2.58092
2.69038
2.62288
2.49405
2.3863
2.395
2.55254
3.04057
3.60821
3.76524
3.76005
3.65194
3.45134
3.22446
3.06676
2.93279
2.78086
2.6227
2.56421
2.72344
3.24205
4.14874
4.67397
4.67704
4.59494
4.44866
4.42067
4.46018
4.62532
4.72039
4.63674
4.47015
4.24814
4.00698
3.78502
3.60816
3.47006
3.35408
3.24682
3.13718
3.02109
2.90222
2.78431
2.66626
2.54854
2.43352
2.33473
2.2594
2.19547
2.1349
2.07842
2.02769
1.97823
1.92408
1.85499
1.77972
1.72444
1.68076
1.65991
1.65375
1.65253
1.63966
1.62016
1.59977
1.57445
1.53409
1.49469
1.49766
1.52837
1.58921
1.68964
1.86296
2.13328
2.80393
2.73895
2.64494
2.49267
2.4342
2.44117
2.58115
3.1034
3.54397
3.72349
3.74133
3.6203
3.40975
3.1978
3.06996
2.92231
2.96625
3.3558
4.16914
4.95948
5.4455
5.37458
5.10254
4.82246
4.67366
4.72824
4.8795
5.0493
4.98818
4.83346
4.61848
4.37259
4.12126
3.88933
3.69873
3.54883
3.42478
3.31368
3.20471
3.09169
2.97593
2.86003
2.74388
2.62623
2.50868
2.40432
2.32059
2.24902
2.18267
2.11729
2.05556
1.99769
1.93871
1.87229
1.79597
1.72427
1.66587
1.63465
1.62297
1.61359
1.59622
1.57441
1.55181
1.51927
1.47181
1.41181
1.39025
1.39119
1.40065
1.41552
1.45285
1.61154
2.93076
2.85208
2.75013
2.62269
2.53034
2.45556
2.46513
2.64732
3.11921
3.5253
3.73604
3.71516
3.58302
3.40652
3.34901
3.61665
4.33724
5.30636
5.73507
5.73707
5.63557
5.45227
5.29095
5.19937
5.22182
5.29849
5.39851
5.33129
5.15617
4.94338
4.71696
4.47895
4.2316
3.99573
3.79619
3.63495
3.49849
3.37668
3.26334
3.15109
3.03656
2.91788
2.79486
2.67555
2.56709
2.47082
2.38599
2.30984
2.23997
2.17245
2.1042
2.03146
1.95688
1.89168
1.82464
1.73821
1.66445
1.62844
1.60968
1.59268
1.57304
1.554
1.53317
1.49904
1.44453
1.37791
1.33156
1.32424
1.32227
1.32003
1.31892
1.3476
3.10909
2.99575
2.86244
2.75989
2.6508
2.51767
2.44689
2.4706
2.68816
3.09815
3.55184
3.67627
3.72525
3.98391
4.72698
5.67839
6.45255
6.65045
6.46603
6.0595
5.68336
5.5239
5.56935
5.69852
5.81964
5.84242
5.73798
5.52613
5.27771
5.03178
4.79819
4.56667
4.33052
4.10128
3.89888
3.72843
3.58233
3.45042
3.32797
3.2112
3.09549
2.97651
2.8487
2.71429
2.58667
2.48282
2.40579
2.33902
2.27508
2.2162
2.16157
2.10375
2.03282
1.94045
1.83872
1.74632
1.67633
1.63631
1.60959
1.58475
1.56092
1.54185
1.52348
1.49609
1.44062
1.36987
1.32084
1.29614
1.28626
1.27742
1.26802
1.25898
3.24615
3.15334
3.01163
2.89293
2.77041
2.64333
2.49594
2.45552
2.47982
2.66289
3.16382
3.68231
4.79853
6.16594
7.24115
7.18987
7.0082
6.81928
6.54647
6.2535
5.99243
6.00938
6.19873
6.30587
6.27834
6.12156
5.88427
5.63806
5.38307
5.13061
4.8887
4.65034
4.41495
4.18847
3.9813
3.80224
3.65028
3.51911
3.3975
3.2795
3.16114
3.03728
2.90397
2.76462
2.63176
2.51728
2.43144
2.37234
2.3232
2.26925
2.2072
2.14357
2.07763
1.99032
1.87258
1.78156
1.7397
1.70328
1.66873
1.63757
1.60803
1.57894
1.54445
1.49716
1.44037
1.38081
1.3261
1.28719
1.26603
1.24848
1.23824
1.22313
3.28894
3.27512
3.18494
3.01793
2.86599
2.75454
2.59259
2.49361
2.51485
2.65065
3.29848
4.97443
6.94496
8.17545
8.47216
7.99724
7.26628
6.70753
6.50621
6.46135
6.53448
6.77737
6.93215
6.80582
6.55637
6.25732
5.95943
5.69484
5.44451
5.19899
4.95964
4.71797
4.47001
4.22828
4.01802
3.84248
3.68329
3.54668
3.42946
3.3215
3.21623
3.10672
2.97888
2.82797
2.67448
2.54528
2.4503
2.38133
2.3193
2.25954
2.20566
2.15316
2.09424
2.02177
1.93114
1.83549
1.74749
1.68531
1.64501
1.61128
1.57777
1.54383
1.50923
1.47343
1.43943
1.40157
1.3359
1.2686
1.23829
1.21883
1.20948
1.19276
3.15063
3.2819
3.27118
3.13826
2.99224
2.88658
2.73464
2.67843
2.90888
3.64165
4.98243
6.4291
7.22401
7.94294
8.25704
8.04315
7.46262
6.86233
6.74426
6.93705
7.31526
7.54294
7.45865
7.13921
6.73023
6.35576
6.03181
5.75944
5.51682
5.28605
5.05932
4.82293
4.57369
4.31258
4.05326
3.87873
3.77871
3.6612
3.52569
3.39751
3.28149
3.16783
3.0403
2.88956
2.73554
2.60168
2.48979
2.39856
2.32471
2.26532
2.21763
2.17245
2.12063
2.05894
1.98081
1.87924
1.77095
1.69431
1.64766
1.61087
1.57505
1.53878
1.50433
1.47809
1.45864
1.42735
1.3549
1.26807
1.22589
1.20264
1.19203
1.17352
2.53272
3.01113
3.22351
3.24247
3.19055
3.12027
3.22389
3.71689
4.78241
5.76338
6.48915
6.65248
6.7634
7.07125
7.43095
7.49389
7.39437
7.29899
7.41262
7.74156
8.10687
8.08072
7.80113
7.33245
6.84378
6.4345
6.08885
5.79389
5.53637
5.3002
5.07172
4.83187
4.57666
4.3252
4.10627
3.92153
3.74791
3.60369
3.48006
3.37494
3.27588
3.17312
3.05919
2.92988
2.78056
2.62272
2.4974
2.40907
2.34183
2.28672
2.23728
2.18793
2.13639
2.0794
2.00453
1.89879
1.78107
1.70054
1.6562
1.62263
1.59011
1.55894
1.53261
1.50981
1.48161
1.43484
1.35212
1.265
1.22329
1.20044
1.1894
1.1696
1.51282
2.08346
2.83824
3.2376
3.67431
4.1364
5.0451
6.00145
6.38816
6.63317
6.5282
6.31731
6.07516
6.16178
6.42915
6.88074
7.37044
7.95254
8.48912
8.63624
8.57849
8.29891
7.85231
7.35266
6.8706
6.45059
6.0906
5.79265
5.54437
5.32216
5.10585
4.88006
4.64333
4.40618
4.17424
3.93685
3.72567
3.59952
3.51622
3.42406
3.32886
3.23336
3.12882
2.99322
2.83185
2.68377
2.55795
2.47192
2.41145
2.35914
2.308
2.25773
2.20826
2.15207
2.07405
1.95897
1.82825
1.74603
1.70676
1.6778
1.6512
1.62671
1.60155
1.57199
1.53334
1.47391
1.37939
1.28811
1.24549
1.22935
1.22098
1.20014
1.04662
1.23813
1.97607
3.61035
5.16125
6.74636
8.25181
8.7951
8.33686
7.4519
6.53375
6.01134
5.60576
5.56739
5.72117
6.31743
7.43518
8.49424
9.35988
9.33138
8.98866
8.42287
7.84994
7.33362
6.87324
6.46545
6.10776
5.80212
5.54579
5.32729
5.12725
4.92612
4.71364
4.48117
4.22153
3.96567
3.7541
3.57779
3.43132
3.31776
3.21818
3.12557
3.04189
2.96693
2.86327
2.67397
2.49807
2.40441
2.34296
2.28959
2.23892
2.19102
2.14522
2.09152
2.01219
1.89206
1.76153
1.68651
1.65306
1.6278
1.6069
1.58613
1.56259
1.53448
1.49517
1.4264
1.31948
1.23283
1.20232
1.19096
1.18482
1.16627
)
;

boundaryField
{
    inlet
    {
        type            fixedValue;
        value           uniform 1;
    }
    outlet
    {
        type            zeroGradient;
    }
    bottom
    {
        type            zeroGradient;
    }
    top
    {
        type            zeroGradient;
    }
    obstacle
    {
        type            zeroGradient;
    }
    defaultFaces
    {
        type            empty;
    }
}


// ************************************************************************* //
