/*--------------------------------*- C++ -*----------------------------------*\
  =========                 |
  \\      /  F ield         | OpenFOAM: The Open Source CFD Toolbox
   \\    /   O peration     | Website:  https://openfoam.org
    \\  /    A nd           | Version:  7
     \\/     M anipulation  |
\*---------------------------------------------------------------------------*/
FoamFile
{
    version     2.0;
    format      ascii;
    class       volScalarField;
    location    "1.6";
    object      p;
}
// * * * * * * * * * * * * * * * * * * * * * * * * * * * * * * * * * * * * * //

dimensions      [1 -1 -2 0 0 0 0];

internalField   nonuniform List<scalar> 
3328
(
1
1
1
1
1
1
1
1
1
1
1
4.65466
10.5458
10.9098
11.0124
11.1968
11.3727
11.5375
11.6733
11.7935
11.901
11.997
12.073
12.1205
1
1
1
1
1
1
1
1
1
1
1
4.52639
10.4732
10.9028
11.0087
11.1877
11.3561
11.5138
11.6444
11.7604
11.8652
11.9577
12.0298
12.078
1
1
1
1
1
1
1
1
1
1
1
4.24389
10.3763
10.8736
10.9776
11.1496
11.31
11.4632
11.5921
11.7064
11.8099
11.8999
11.9666
12.0153
1
1
1
1
1
1
1
1
1
1
1
3.83202
10.2001
10.8302
10.9292
11.0929
11.2419
11.3887
11.5152
11.6306
11.7357
11.8216
11.8756
11.9121
1
1
1
1
1
1
1
1
1
1
1
3.32747
9.90776
10.77
10.8574
11.0085
11.1454
11.2817
11.4042
11.5138
11.6092
11.6871
11.7325
11.7829
1
1
1
1
1
1
1
1
1
1
1
2.77125
9.46847
10.7109
10.7873
10.9303
11.0519
11.1728
11.2877
11.3908
11.4826
11.5513
11.5665
11.5491
1
1
1
1
1
1
1
1
1
1
1
2.11321
8.78676
10.6358
10.6892
10.8293
10.9367
11.0409
11.1373
11.2143
11.2644
11.265
11.2328
11.2089
1
1
1
1
1
1
1
1
1
1
1
1.47993
7.94407
10.6291
10.6489
10.7717
10.8598
10.9417
11.0019
11.0307
11.0314
10.9993
10.9256
10.9787
1
1
1
1
1
1
1
1
1
1
1
1.0346
6.78698
10.441
10.4573
10.5697
10.6558
10.738
10.7803
10.7973
10.7472
10.6095
10.1269
9.29658
1
1
1
1
1
1
1
1
1
1
1
1.00028
5.32804
10.151
10.362
10.4607
10.5209
10.5743
10.5803
10.5706
10.4645
10.2481
9.86517
9.22287
1
1
1
1
1
1
1
1
1
1
1
1
3.7777
9.62082
10.2747
10.3498
10.3856
10.4074
10.3844
10.344
10.2066
9.93735
9.63564
9.10619
1
1
1
1
1
1
1
1
1
1
1
1
2.25896
8.81512
10.26
10.2473
10.2423
10.2249
10.1759
10.1068
9.96291
9.70819
9.46358
9.07595
1
1
1
1
1
1
1
1
1
1
1
1
1.15588
7.414
10.2753
10.1151
10.0778
10.043
9.98383
9.89778
9.76682
9.55328
9.33804
9.07233
1
1
1
1
1
1
1
1
1
1
1
1
1.00235
5.49834
9.74226
9.91479
9.92567
9.88717
9.84249
9.74891
9.62551
9.43873
9.24382
9.05478
1
1
1
1
1
1
1
1
1
1
1
1
0.999991
3.28257
9.01612
9.79706
9.79778
9.76649
9.72094
9.61888
9.49634
9.3384
9.17966
9.02735
1
1
1
1
1
1
1
1
1
1
1
1
0.999998
1.49018
7.8251
9.80886
9.71863
9.66169
9.61155
9.50603
9.38902
9.25052
9.11726
8.98401
1
1
1
1
1
1
1
1
1
1
1
1
1
1.02158
5.76665
9.45048
9.548
9.53721
9.48696
9.39142
9.29673
9.17827
9.05644
8.93589
1
1
1
1
1
1
1
1
1
1
1
1
1
1
3.09712
8.83945
9.47667
9.45665
9.38528
9.28889
9.2028
9.09706
8.98931
8.87393
1
1
1
1
1
1
1
1
1
1
1
1
1
0.999995
1.28348
7.30785
9.47179
9.35384
9.27808
9.19103
9.11683
9.02531
8.92666
8.81149
1
1
1
1
1
1
1
1
1
1
1
1
1
0.999999
1.00657
4.67391
8.91736
9.16348
9.1637
9.12263
9.06715
8.98603
8.88895
8.77114
1
1
1
1
1
1
1
1
1
1
1
1
1
1
0.999991
1.96435
8.06719
9.2261
9.0978
9.03441
8.97696
8.89988
8.80776
8.69653
1
1
1
1
1
1
1
1
1
1
1
1
1
1
0.999998
1.06677
5.84996
8.87812
8.94923
8.92989
8.88834
8.82003
8.73603
8.62671
1
1
1
1
1
1
1
1
1
1
1
1
1
1
1
1.00031
2.72189
8.27392
8.97693
8.88879
8.83048
8.76022
8.67615
8.56177
1
1
1
1
1
1
1
1
1
1
1
1
1
1
1
1
1.18575
6.42289
8.83314
8.82016
8.76997
8.68614
8.59082
8.47769
1
1
1
1
1
1
1
1
1
1
1
1
1
1
1
1
1.00252
3.19618
8.22453
8.82327
8.73426
8.61733
8.50832
8.40068
1
1
1
1
1
1
1
1
1
1
1
1
1
1
1
1
1
1.28224
6.57051
8.74003
8.63407
8.53483
8.42363
8.35601
1
1
1
1
1
1
1
1
1
1
1
1
1
1
1
1
1
1.00573
3.3487
8.1598
8.46803
8.49111
8.62562
9.08125
1
1
1
1
1
1
1
1
1
1
1
1
1
1
1
1
1
1.00001
1.31229
6.35171
8.36359
9.00729
10.285
11.6131
1
1
1
1
1
1
1
1
1
1
1
1
1
1
1
1
1
1
1.00691
2.9054
8.44118
11.9685
13.0895
13.4067
1
1
1
1
1
1
1
1
1
1
1
1
1
1
1
1
1
1
1.00002
1.43182
10.3839
14.6075
14.0779
13.586
1
1
1
1
1
1
1
1
1
1
1
1
1
1
1
1
1
1
1
2.52257
11.6559
14.3795
13.6519
13.185
1
1
1
1
1
1
1
1
1
1
1
1
1
1
1
1
1
1
1
3.77028
11.4414
13.2781
12.7005
12.6386
1
1
1
1
1
1
1
1
1
1
1
1
1
1
1
1
1
1
1
4.41715
11.5573
12.9122
12.623
12.6419
1
1
1
1
1
1
1
1
1
1
1
1
1
1
1
1
1
1
1
4.40874
11.5891
12.6125
12.5219
12.5078
1
1
1
1
1
1
1
1
1
1
1
1
1
1
1
1
1
1
1
4.30201
11.6385
12.439
12.3077
12.3272
1
1
1
1
1
1
1
1
1
1
1
1
1
1
1
1
1
1
1
4.24631
11.7908
12.334
12.2256
12.2278
1
1
1
1
1
1
1
1
1
1
1
1
1
1
1
1
1
1
1
4.11133
11.788
12.3231
12.1767
12.1778
1
1
1
1
1
1
1
1
1
1
1
1
1
1
1
1
1
1
1
3.9902
11.7276
12.323
12.1733
12.1678
1
1
1
1
1
1
1
1
1
1
1
1
1
1
1
1
1
1
1
3.90892
11.6133
12.3046
12.1445
12.1589
1
1
1
1
1
1
1
1
1
1
1
1
1
1
1
1
1
1
1
3.87397
11.504
12.2974
12.1318
12.167
6.82106
7.84659
8.28972
8.53431
8.55306
8.59334
8.61574
8.62376
8.63592
8.9326
8.69774
8.66651
8.56466
8.59745
8.62258
8.62507
8.77233
8.7527
8.53751
8.5829
8.52949
8.61518
8.64195
8.63839
8.86706
8.80528
8.67118
8.72578
8.63452
8.68688
8.64717
8.71319
8.90982
8.82605
8.67532
8.66988
8.6124
8.6704
8.63755
8.78466
8.90604
8.82043
8.71689
8.73255
8.70325
8.75384
8.76822
8.91912
8.90133
8.80346
8.70876
8.69534
8.66825
8.68708
8.77778
8.93789
8.87667
8.77896
8.69883
8.67083
8.62755
8.64968
8.73536
9.04734
8.834
8.73934
8.65394
8.58819
8.48953
8.38708
8.04761
6.58539
8.76944
8.67725
8.5773
8.47299
8.29818
8.02431
7.38712
5.94843
8.70055
8.60037
8.48307
8.34196
8.10115
7.71682
6.9979
5.70941
8.64561
8.51868
8.37812
8.19324
7.91454
7.46645
6.71393
5.61513
8.57284
8.42482
8.25689
8.03948
7.73635
7.25059
6.54848
5.62985
8.50591
8.34472
8.14848
7.90159
7.58524
7.11303
6.48239
5.6899
8.42577
8.25006
8.03041
7.7768
7.45799
7.02817
6.47834
5.81811
8.34664
8.17724
7.95358
7.71825
7.45992
7.18529
6.87201
6.53962
8.2876
8.18438
8.10426
8.12772
8.24326
8.37533
8.38423
8.20449
8.41283
8.73218
9.29876
9.83188
10.0302
9.92163
9.51874
9.0925
9.96722
10.8266
11.2425
11.3005
11.0538
10.6112
10.009
9.47676
12.2706
12.3804
12.0386
11.5503
11.1286
10.655
10.1421
9.65602
13.0415
12.5083
11.9587
11.4126
10.953
10.5299
10.1516
9.7658
13.0481
12.3538
11.777
11.2918
10.883
10.5369
10.2379
9.91193
12.7171
12.2216
11.7216
11.3182
10.9811
10.6919
10.4234
10.1168
12.4778
12.2394
11.9118
11.5836
11.2682
10.9565
10.648
10.3588
12.5571
12.3915
12.1499
11.8356
11.4741
11.1185
10.7933
10.5054
12.4504
12.3339
12.1067
11.7737
11.4362
11.1416
10.8761
10.6431
12.357
12.2689
12.1266
11.8503
11.5479
11.2717
11.0337
10.8228
12.268
12.2267
12.1022
11.8644
11.5967
11.3368
11.1265
10.9693
12.2479
12.2489
12.1356
11.9253
11.6346
11.3703
11.1478
10.9645
12.2425
12.3092
12.2437
12
11.7356
11.4572
11.2146
11.0216
12.2696
12.3735
12.3182
12.1175
11.7989
11.4691
11.1859
10.9417
12.3018
12.4317
12.36
12.1419
11.784
11.3424
11.0147
10.7448
1.96686
0.766064
0.434267
0.450633
0.515836
0.541939
0.625199
0.76287
0.874158
0.924354
0.915543
0.932961
0.976005
1.13893
1.76118
4.42556
7.45793
7.6519
7.27521
7.24604
7.10933
6.91418
6.70753
6.61834
6.5452
6.41609
6.28018
6.1296
5.98888
5.89076
5.86899
5.80701
5.67642
5.53221
5.39106
5.28259
5.18764
5.11024
5.00154
4.87384
4.7161
4.54133
4.42505
4.34297
4.30395
4.31208
4.26127
4.17202
4.05633
3.87905
3.72887
3.6508
3.58731
3.53647
3.47854
3.4054
3.31345
3.17651
3.05387
2.98876
2.94095
2.90291
2.87666
2.83239
2.77907
2.70911
2.59569
2.47983
2.41721
2.38086
2.35313
2.3279
2.29903
2.25457
2.17173
2.07228
2.02216
1.99124
1.96371
1.93793
1.91365
1.88699
1.83547
1.73439
1.65741
1.62648
1.61131
1.58833
2.94505
1.79834
1.13558
0.951468
0.874927
0.771325
0.740987
0.74379
0.741089
0.765863
0.797187
0.867069
1.09001
1.61762
2.23854
2.95782
5.02642
6.5127
6.78965
6.93818
6.94312
6.7874
6.65294
6.57109
6.52021
6.44588
6.32
6.16317
5.98357
5.86779
5.80952
5.76597
5.66804
5.55482
5.42282
5.29603
5.18858
5.09896
5.00362
4.89162
4.76518
4.61136
4.46503
4.36628
4.3033
4.26474
4.20315
4.12844
4.03326
3.9037
3.76143
3.65143
3.57617
3.51475
3.46206
3.39827
3.31695
3.21111
3.09617
3.00617
2.94455
2.89625
2.85196
2.81805
2.77429
2.71246
2.62575
2.52427
2.44033
2.38157
2.33741
2.30599
2.28165
2.24922
2.18882
2.10257
2.03714
1.99752
1.96458
1.9336
1.90444
1.87319
1.83074
1.75807
1.68046
1.63631
1.6168
1.5907
3.59264
2.49089
1.79542
1.35863
1.12784
0.949375
0.796018
0.747427
0.725425
0.755706
0.868153
1.14008
1.61923
2.13798
2.49384
2.56758
2.95905
4.29334
5.93372
6.75092
7.09964
7.01971
6.94711
6.74073
6.53021
6.39356
6.26984
6.12467
5.98536
5.88153
5.79113
5.71293
5.63346
5.53691
5.42985
5.31359
5.19279
5.07233
4.95812
4.85034
4.74619
4.64163
4.54034
4.44059
4.33691
4.23264
4.13706
4.04139
3.95327
3.87296
3.79465
3.70734
3.60081
3.4931
3.40911
3.33572
3.26667
3.20026
3.13388
3.06047
2.9787
2.8992
2.83537
2.77945
2.72323
2.67157
2.62076
2.56494
2.50009
2.42383
2.35009
2.28956
2.23418
2.18954
2.15132
2.111
2.06542
2.01944
1.97595
1.93453
1.89447
1.85166
1.80155
1.75162
1.70261
1.66133
1.63382
1.59463
4.11165
3.09811
2.32001
1.83586
1.50499
1.28846
1.06977
0.994319
0.976129
1.06646
1.29648
1.72415
2.04265
2.25716
2.39687
2.46145
2.45978
2.65007
3.60816
4.98382
6.22797
6.68142
7.02261
6.8962
6.65635
6.40064
6.2123
6.08398
6.00297
5.91827
5.81154
5.69472
5.59747
5.49844
5.39545
5.29244
5.18664
5.07917
4.96851
4.85665
4.75071
4.65759
4.56564
4.46183
4.34194
4.21739
4.0997
3.99246
3.91017
3.84714
3.78857
3.72479
3.63705
3.51557
3.39509
3.30322
3.23448
3.18143
3.13182
3.07786
3.00918
2.91881
2.82298
2.74195
2.67751
2.62918
2.59169
2.5565
2.51927
2.47196
2.39843
2.29585
2.20368
2.14748
2.11698
2.09208
2.06279
2.02928
1.99147
1.94628
1.89194
1.83269
1.77896
1.7399
1.70692
1.67504
1.64801
1.60077
4.44631
3.5689
2.8426
2.24545
1.8825
1.61858
1.46591
1.41688
1.49901
1.80458
2.15847
2.355
2.39148
2.42608
2.43654
2.44243
2.45945
2.45312
2.50026
2.90029
4.08838
5.37894
6.30393
6.61314
6.63897
6.53517
6.34953
6.21452
6.07495
5.95823
5.83763
5.66191
5.52282
5.43254
5.35194
5.2631
5.16412
5.06862
4.96714
4.87138
4.78203
4.69059
4.5876
4.46267
4.31523
4.16158
4.03212
3.94886
3.88908
3.83257
3.77387
3.70911
3.6255
3.51115
3.38543
3.28868
3.22953
3.18209
3.13423
3.08235
3.01802
2.92627
2.812
2.71444
2.64834
2.60313
2.56789
2.53543
2.50284
2.46569
2.41138
2.32631
2.22313
2.14594
2.10586
2.07763
2.04828
2.01561
1.97879
1.93467
1.88071
1.82559
1.78161
1.74831
1.71601
1.68118
1.6485
1.59411
4.7033
3.92344
3.32943
2.73768
2.40923
2.26622
2.32306
2.36682
2.5644
2.89904
2.91172
2.79585
2.70261
2.60381
2.57394
2.60548
2.6116
2.57941
2.53368
2.50119
2.59806
3.13682
4.25248
5.42453
6.08014
6.30515
6.27016
6.29399
6.22811
6.08923
5.92061
5.67559
5.45262
5.33689
5.26286
5.1967
5.12793
5.05449
4.97253
4.87703
4.77313
4.66537
4.55048
4.42438
4.29147
4.15915
4.03845
3.94598
3.87581
3.81375
3.75317
3.68698
3.60349
3.49854
3.38765
3.29284
3.22408
3.16986
3.11793
3.06296
2.99717
2.90868
2.80295
2.71116
2.64483
2.5936
2.55145
2.5143
2.4772
2.43622
2.385
2.31928
2.2468
2.18079
2.12472
2.07962
2.04112
2.00149
1.95486
1.90099
1.85221
1.81577
1.7895
1.76399
1.73284
1.69504
1.6575
1.59028
5.05144
4.40185
4.07345
3.75066
3.49419
3.53185
3.71467
3.56034
3.54722
3.57535
3.42724
3.22223
3.08448
2.95848
2.92771
2.92854
2.88412
2.79853
2.70916
2.61539
2.54958
2.53552
2.64128
3.18567
4.20537
5.28058
5.75367
6.01048
6.1284
6.12262
5.98389
5.76941
5.52379
5.30981
5.19559
5.12545
5.06336
4.99789
4.92667
4.84129
4.73356
4.60712
4.48077
4.3657
4.26528
4.17061
4.07155
3.97038
3.8786
3.79803
3.72177
3.64303
3.55678
3.46894
3.38909
3.31323
3.23684
3.16293
3.09121
3.01844
2.94143
2.85952
2.78101
2.71584
2.66099
2.60821
2.55471
2.50247
2.45305
2.405
2.35347
2.29846
2.24705
2.19831
2.14761
2.09276
2.03633
1.97858
1.91754
1.8697
1.84129
1.81901
1.79882
1.77697
1.75069
1.71382
1.66602
1.57533
6.16756
5.77428
5.60861
5.39272
5.02661
4.88401
4.80133
4.4999
4.19487
3.99754
3.78721
3.591
3.49018
3.3822
3.30961
3.24319
3.14865
3.04154
2.93457
2.84468
2.74943
2.66132
2.59246
2.54156
2.63127
3.18012
4.12539
4.99555
5.59336
5.78917
5.85651
5.79483
5.62381
5.3904
5.20782
5.10667
5.0154
4.9372
4.86082
4.76599
4.64539
4.52406
4.42341
4.34032
4.26107
4.17718
4.08651
3.98753
3.88514
3.78813
3.69595
3.60581
3.51787
3.44051
3.37356
3.30826
3.23816
3.16204
3.07896
2.98637
2.89569
2.81668
2.75473
2.70579
2.66212
2.61794
2.56896
2.51304
2.44907
2.379
2.31488
2.26582
2.22622
2.18939
2.15076
2.10342
2.03243
1.94678
1.88486
1.85585
1.8348
1.81421
1.79502
1.77775
1.76076
1.73035
1.66139
1.54098
7.78429
7.15388
6.76179
6.32038
5.8501
5.57831
5.30871
5.01017
4.67047
4.37009
4.17305
3.98664
3.83858
3.74525
3.64798
3.55142
3.44212
3.3346
3.21934
3.09299
2.96424
2.86024
2.75804
2.65956
2.54703
2.49982
2.59789
3.04954
3.88529
4.65758
5.30976
5.49177
5.47633
5.42676
5.27667
5.1206
5.01024
4.91598
4.81274
4.69179
4.55396
4.44696
4.38547
4.32671
4.25695
4.17847
4.08515
3.97389
3.85757
3.75128
3.66268
3.5862
3.51434
3.44253
3.3668
3.28975
3.22037
3.15022
3.05616
2.95925
2.8808
2.81684
2.75625
2.6963
2.64348
2.59997
2.55654
2.5063
2.45018
2.37794
2.29678
2.2292
2.18352
2.1589
2.1368
2.09802
2.02583
1.93147
1.8778
1.853
1.83286
1.81688
1.80773
1.79479
1.77364
1.7317
1.63803
1.51805
8.49493
7.88241
7.40324
6.85652
6.35964
6.01016
5.64921
5.34028
5.09744
4.84198
4.63885
4.44665
4.2029
4.02034
3.90941
3.81844
3.71987
3.59978
3.47224
3.3399
3.21074
3.08859
2.9748
2.85446
2.69199
2.5182
2.45842
2.44972
2.5306
2.89255
3.59543
4.32724
4.84457
5.14989
5.10738
5.05019
5.00986
4.90928
4.78873
4.63941
4.50264
4.40838
4.34957
4.30084
4.24936
4.17914
4.07796
3.93597
3.7777
3.67046
3.60907
3.55922
3.51053
3.45671
3.3902
3.30056
3.18316
3.06254
2.97788
2.9167
2.86978
2.8271
2.77963
2.721
2.64931
2.57349
2.51909
2.48421
2.43901
2.371
2.29153
2.22938
2.17659
2.12569
2.07637
2.0379
1.99999
1.94559
1.8976
1.86335
1.83654
1.81054
1.77973
1.74529
1.71205
1.67066
1.60524
1.53192
8.85928
8.29647
7.81916
7.31332
6.8388
6.46482
6.10368
5.79667
5.57117
5.34629
5.11161
4.88554
4.6074
4.31463
4.17206
4.06972
3.95628
3.83776
3.69821
3.55241
3.42444
3.31197
3.20166
3.07522
2.90217
2.68854
2.53299
2.4602
2.4322
2.416
2.46124
2.72989
3.23441
3.94024
4.4225
4.7259
4.78424
4.78776
4.7508
4.63852
4.49325
4.39303
4.3159
4.25855
4.20513
4.14381
4.05682
3.91464
3.7296
3.61472
3.55751
3.51187
3.4732
3.43349
3.38327
3.30553
3.17664
3.02685
2.927
2.87608
2.84209
2.81116
2.77543
2.72509
2.66064
2.58451
2.50168
2.41258
2.34377
2.30932
2.28182
2.23751
2.18111
2.12306
2.06777
2.01612
1.97328
1.94643
1.92435
1.90052
1.86255
1.81583
1.76934
1.72119
1.66681
1.60875
1.58435
1.55378
9.09995
8.58488
8.1313
7.68033
7.24579
6.89285
6.57976
6.25961
6.00721
5.78702
5.53257
5.2721
4.97462
4.6455
4.46258
4.35464
4.20933
4.04616
3.89261
3.7374
3.59669
3.48152
3.36822
3.24503
3.0937
2.90816
2.73069
2.60556
2.50911
2.43332
2.39215
2.35855
2.35867
2.50137
2.89664
3.4398
3.90891
4.23941
4.48625
4.47112
4.43136
4.41728
4.33489
4.23797
4.15224
4.06716
3.98434
3.87283
3.72988
3.62269
3.54837
3.48336
3.42529
3.37866
3.33472
3.276
3.16838
3.03406
2.94546
2.88635
2.82657
2.76716
2.72723
2.7009
2.66605
2.60158
2.49967
2.38554
2.3055
2.26025
2.22248
2.18506
2.15255
2.11932
2.07326
2.01913
1.98166
1.95429
1.92235
1.87412
1.81614
1.76555
1.72755
1.69048
1.64554
1.59783
1.56271
1.52203
9.31686
8.88014
8.45883
8.02745
7.59497
7.22259
6.91775
6.60876
6.33364
6.11661
5.8871
5.61396
5.30932
5.018
4.76145
4.56993
4.41285
4.23817
4.05784
3.90439
3.7694
3.6418
3.51445
3.3816
3.24048
3.08385
2.91276
2.76147
2.64398
2.54597
2.45163
2.37152
2.30177
2.27069
2.25006
2.30694
2.54459
2.9183
3.44733
3.81601
4.09007
4.24404
4.24417
4.19835
4.12736
4.01652
3.89978
3.79042
3.70789
3.61813
3.53521
3.47112
3.41437
3.35264
3.2621
3.14842
3.06893
3.01255
2.94744
2.88437
2.82356
2.76264
2.70254
2.63783
2.58046
2.5347
2.47722
2.38968
2.29667
2.22567
2.19332
2.17609
2.15432
2.1183
2.07121
2.02767
1.99426
1.96141
1.91514
1.84949
1.78215
1.73078
1.69348
1.66221
1.63135
1.59503
1.5615
1.52738
9.54735
9.17467
8.77449
8.35549
7.92434
7.53151
7.19316
6.88162
6.62179
6.40964
6.19992
5.94889
5.65002
5.32902
5.0559
4.81736
4.58509
4.39951
4.23791
4.08676
3.94379
3.80445
3.66361
3.5203
3.37642
3.22584
3.06312
2.9039
2.77085
2.6616
2.55915
2.46379
2.36684
2.28616
2.2067
2.16532
2.12058
2.0969
2.22551
2.54381
2.96914
3.42547
3.74102
3.94448
3.98107
3.96167
3.88821
3.75512
3.62039
3.54589
3.51046
3.4683
3.41929
3.34388
3.22748
3.10199
2.99569
2.93749
2.90823
2.87821
2.83404
2.76626
2.68345
2.60014
2.52766
2.461
2.39828
2.34916
2.29697
2.24068
2.19159
2.1454
2.10498
2.07403
2.04944
2.02888
2.00946
1.98079
1.92206
1.82987
1.75076
1.69998
1.66196
1.63221
1.61114
1.59261
1.58389
1.56217
9.80969
9.47929
9.0935
8.68641
8.26148
7.86121
7.51696
7.21159
6.95808
6.73946
6.51327
6.27222
5.99972
5.67742
5.30628
5.03096
4.80345
4.58638
4.40737
4.25496
4.10637
3.95784
3.80944
3.66102
3.51018
3.35099
3.18137
3.01449
2.87174
2.75805
2.66102
2.56871
2.47327
2.37434
2.27255
2.18217
2.09613
2.0405
1.98013
1.93858
1.99479
2.20673
2.57427
3.01064
3.37239
3.63747
3.72915
3.69237
3.57906
3.49118
3.40763
3.33722
3.3037
3.26475
3.19761
3.0792
2.9734
2.91737
2.86803
2.81175
2.76255
2.72269
2.66367
2.57384
2.48047
2.4115
2.36607
2.32954
2.28903
2.24221
2.18018
2.11095
2.07652
2.05964
2.0408
2.01525
1.97838
1.92627
1.86303
1.791
1.73071
1.68791
1.65125
1.6243
1.60735
1.59372
1.58507
1.5569
10.0747
9.75494
9.37994
8.98915
8.60312
8.23713
7.89228
7.57441
7.32204
7.09831
6.85243
6.59195
6.31638
6.00609
5.63649
5.27317
5.01677
4.80528
4.60704
4.42019
4.24388
4.07941
3.92453
3.77441
3.62421
3.46717
3.29502
3.11488
2.95426
2.82873
2.72887
2.64152
2.5522
2.45106
2.34907
2.25287
2.16524
2.08337
1.99566
1.91742
1.8566
1.80617
1.82979
1.95971
2.26007
2.65395
3.0623
3.29516
3.39641
3.41158
3.36339
3.28565
3.2339
3.17175
3.10257
3.0558
2.99867
2.92793
2.85405
2.78778
2.73102
2.6658
2.58907
2.50536
2.44059
2.40746
2.38196
2.34978
2.30347
2.24248
2.14902
2.09431
2.0833
2.07114
2.04968
2.01804
1.96958
1.89324
1.80365
1.74659
1.71143
1.68076
1.65159
1.63227
1.61523
1.59923
1.5856
1.55473
10.2531
9.95816
9.61314
9.25365
8.90515
8.56537
8.22195
7.90189
7.62844
7.40191
7.14815
6.86904
6.58193
6.27574
5.95256
5.59287
5.24677
4.98431
4.77034
4.57019
4.37926
4.20011
4.0334
3.87526
3.71802
3.55604
3.38599
3.21218
3.05408
2.92082
2.80048
2.69614
2.60245
2.50989
2.41459
2.31116
2.20245
2.11091
2.03258
1.95182
1.86638
1.79583
1.76054
1.71997
1.71636
1.79919
2.00075
2.32176
2.65128
2.9395
3.07919
3.15525
3.13856
3.11237
3.07959
3.01533
2.93366
2.84988
2.77079
2.72017
2.68013
2.62885
2.55802
2.48439
2.41337
2.34316
2.30415
2.29109
2.28047
2.23958
2.16345
2.09332
2.02922
1.99916
1.98246
1.95974
1.92519
1.86672
1.77841
1.71649
1.70184
1.69224
1.67808
1.6573
1.63132
1.60892
1.59078
1.54968
10.4325
10.1672
9.85593
9.5107
9.16874
8.83207
8.44528
8.05606
7.74719
7.54846
7.35195
7.07715
6.79316
6.50061
6.19517
5.85769
5.48703
5.14439
4.88315
4.67799
4.49316
4.31494
4.13936
3.96791
3.80572
3.65116
3.49072
3.3149
3.13828
3.00345
2.91074
2.82094
2.72422
2.62048
2.50411
2.38288
2.27199
2.17505
2.08598
2.00648
1.92372
1.84155
1.76351
1.70439
1.66265
1.63476
1.60865
1.63598
1.7552
1.98503
2.28335
2.60504
2.77647
2.90021
2.96164
2.95823
2.93296
2.86237
2.76294
2.65477
2.58866
2.56886
2.54726
2.49943
2.42072
2.34435
2.28621
2.2248
2.18234
2.16626
2.15296
2.10515
2.02854
1.96679
1.92834
1.90194
1.87268
1.83565
1.78458
1.73762
1.69739
1.67582
1.66194
1.64812
1.63236
1.61788
1.60532
1.5695
10.6262
10.3759
10.1073
9.77523
9.39106
9.01875
8.63915
8.25116
7.92149
7.67625
7.5151
7.29616
7.01083
6.69691
6.35038
5.99869
5.65049
5.31621
5.03373
4.80501
4.60481
4.41739
4.2388
4.06753
3.89868
3.72573
3.54564
3.36677
3.20341
3.06151
2.93523
2.81804
2.71064
2.60839
2.50698
2.40597
2.31085
2.22043
2.13136
2.04321
1.95354
1.87437
1.79938
1.73837
1.68241
1.63795
1.59463
1.56893
1.54157
1.51456
1.56501
1.711
1.98398
2.29178
2.51723
2.6667
2.78313
2.78134
2.75379
2.67514
2.5836
2.49818
2.44515
2.42469
2.40397
2.36196
2.29103
2.21871
2.1568
2.10419
2.07508
2.05373
2.01991
1.95239
1.89512
1.86362
1.83362
1.79983
1.77488
1.75071
1.71058
1.67636
1.66609
1.66665
1.68562
1.71917
1.76217
1.87731
10.8094
10.5911
10.3318
10.0722
9.71111
9.297
8.85855
8.44372
8.11106
7.83824
7.61067
7.3903
7.12152
6.83142
6.52319
6.19956
5.87424
5.55118
5.24644
4.99228
4.78242
4.59342
4.41115
4.22981
4.04476
3.85245
3.664
3.489
3.32396
3.16421
3.00683
2.86265
2.73794
2.6359
2.55584
2.48058
2.39402
2.29703
2.19394
2.09368
2.00765
1.93507
1.87019
1.81155
1.7543
1.69848
1.64179
1.58281
1.51057
1.46354
1.40987
1.37473
1.40915
1.52372
1.75138
2.01813
2.2981
2.43574
2.54942
2.57712
2.55992
2.50821
2.42059
2.34494
2.31658
2.30251
2.2798
2.23107
2.1561
2.09228
2.03045
1.99117
1.95946
1.9229
1.8824
1.84955
1.82113
1.80485
1.79902
1.7955
1.80704
1.84046
1.92541
2.04887
2.18891
2.34602
2.44611
2.59632
10.793
10.632
10.469
10.2533
9.92072
9.49766
9.05576
8.66046
8.33539
8.03226
7.73365
7.47098
7.20737
6.89444
6.5617
6.23073
5.90708
5.58697
5.28837
5.02749
4.80033
4.5934
4.39647
4.20369
4.01254
3.82399
3.63908
3.46164
3.29357
3.13665
2.9971
2.87079
2.75638
2.65228
2.55231
2.45508
2.36131
2.26469
2.1653
2.06622
1.97584
1.90283
1.84029
1.78245
1.72667
1.66862
1.60923
1.55022
1.48113
1.41781
1.37442
1.34853
1.3335
1.30681
1.30743
1.36175
1.53119
1.78409
2.049
2.2089
2.32892
2.39353
2.38484
2.33272
2.26654
2.22794
2.20213
2.17976
2.15001
2.09818
2.03196
1.97713
1.9485
1.92212
1.8945
1.89412
1.91596
1.97251
2.08562
2.23366
2.36715
2.52725
2.70354
2.83047
2.88765
2.90289
2.92361
2.93114
10.8793
10.7645
10.6325
10.4134
10.0879
9.69411
9.28648
8.9114
8.57245
8.23092
7.89816
7.59121
7.32495
7.03165
6.69141
6.35358
6.01707
5.68386
5.37554
5.10735
4.87195
4.65564
4.44869
4.24668
4.04992
3.86043
3.6781
3.50022
3.32631
3.16297
3.01595
2.88442
2.76672
2.65948
2.55979
2.46516
2.37179
2.27427
2.17137
2.0684
1.97887
1.90741
1.84678
1.78964
1.73435
1.6752
1.61339
1.55019
1.48202
1.40976
1.36859
1.3512
1.32583
1.28753
1.25502
1.21151
1.19777
1.23354
1.34963
1.55895
1.80915
1.98543
2.12624
2.19601
2.19227
2.16707
2.1339
2.12737
2.11852
2.1059
2.08014
2.05293
2.06532
2.11774
2.22592
2.38851
2.5716
2.7659
2.96516
3.09023
3.14974
3.20257
3.24197
3.24726
3.2144
3.18416
3.17556
3.12903
10.7627
10.6332
10.4991
10.304
10.0237
9.67418
9.30116
8.93513
8.56839
8.20836
7.87959
7.58009
7.3043
7.03922
6.71176
6.38014
6.04875
5.72097
5.416
5.14708
4.90792
4.68814
4.48064
4.28104
4.08694
3.89684
3.70895
3.52293
3.34248
3.17541
3.02755
2.89851
2.78395
2.6787
2.57908
2.48238
2.38577
2.28576
2.18126
2.07693
1.98468
1.91002
1.84892
1.79359
1.7414
1.6863
1.62662
1.55642
1.47886
1.4211
1.38155
1.34475
1.30971
1.27699
1.2439
1.20047
1.15688
1.12545
1.12054
1.14383
1.22194
1.381
1.57314
1.75392
1.88201
2.01806
2.0891
2.15984
2.26003
2.42436
2.56509
2.65645
2.76235
2.87629
2.98405
3.09471
3.2331
3.35307
3.35908
3.33856
3.32692
3.32585
3.29822
3.26642
3.2323
3.20057
3.18199
3.11295
10.5717
10.4884
10.4278
10.3206
10.1204
9.82707
9.46608
9.06831
8.66932
8.30335
7.97718
7.6808
7.38955
7.10387
6.77088
6.42005
6.07374
5.74073
5.43581
5.16619
4.92479
4.70305
4.49569
4.29815
4.10572
3.91484
3.72293
3.53131
3.34621
3.17729
3.03089
2.9049
2.79303
2.68958
2.59031
2.49235
2.39315
2.2911
2.18639
2.08205
1.98672
1.90755
1.84387
1.78914
1.73909
1.68736
1.6306
1.56725
1.49942
1.43196
1.37482
1.33271
1.30063
1.27323
1.24322
1.209
1.15803
1.10315
1.06588
1.05
1.04514
1.05901
1.10796
1.23994
1.43275
1.72004
2.12614
2.51319
2.84882
3.16303
3.45082
3.66697
3.82598
3.95173
4.02243
4.09298
4.12662
4.10364
3.99101
3.80945
3.6327
3.44471
3.2475
3.14184
3.09923
3.07867
3.0783
3.04143
)
;

boundaryField
{
    inlet
    {
        type            fixedValue;
        value           uniform 1;
    }
    outlet
    {
        type            zeroGradient;
    }
    bottom
    {
        type            zeroGradient;
    }
    top
    {
        type            zeroGradient;
    }
    obstacle
    {
        type            zeroGradient;
    }
    defaultFaces
    {
        type            empty;
    }
}


// ************************************************************************* //
