/*--------------------------------*- C++ -*----------------------------------*\
  =========                 |
  \\      /  F ield         | OpenFOAM: The Open Source CFD Toolbox
   \\    /   O peration     | Website:  https://openfoam.org
    \\  /    A nd           | Version:  7
     \\/     M anipulation  |
\*---------------------------------------------------------------------------*/
FoamFile
{
    version     2.0;
    format      ascii;
    class       volScalarField;
    location    "3.5";
    object      rho;
}
// * * * * * * * * * * * * * * * * * * * * * * * * * * * * * * * * * * * * * //

dimensions      [1 -3 0 0 0 0 0];

internalField   nonuniform List<scalar> 
4048
(
1.40001
1.40001
1.40001
1.40001
1.40001
1.40001
1.40001
1.40001
1.40001
1.40001
1.40001
1.40001
1.40001
1.40001
1.40001
1.5192
4.26918
5.47964
5.54989
5.65014
5.73669
5.81295
5.87576
5.93132
1.40001
1.40001
1.40001
1.40001
1.40001
1.40001
1.40001
1.40001
1.40001
1.40001
1.40001
1.40001
1.40001
1.40001
1.40001
1.48903
4.1794
5.46097
5.53575
5.63021
5.71375
5.78548
5.83673
5.86301
1.40001
1.40001
1.40001
1.40001
1.40001
1.40001
1.40001
1.40001
1.40001
1.40001
1.40001
1.40001
1.40001
1.40001
1.40001
1.41183
3.9972
5.42775
5.4955
5.57733
5.64846
5.69765
5.72771
5.76315
1.40001
1.40001
1.40001
1.40001
1.40001
1.40001
1.40001
1.40001
1.40001
1.40001
1.40001
1.40001
1.40001
1.40001
1.40001
1.40024
3.7028
5.35825
5.43282
5.50566
5.57135
5.61939
5.61265
5.69301
1.40001
1.40001
1.40001
1.40001
1.40001
1.40001
1.40001
1.40001
1.40001
1.40001
1.40001
1.40001
1.40001
1.40001
1.40001
1.4
3.30425
5.2539
5.36864
5.42281
5.4607
5.47669
5.31196
5.00129
1.40001
1.40001
1.40001
1.40001
1.40001
1.40001
1.40001
1.40001
1.40001
1.40001
1.40001
1.40001
1.40001
1.40001
1.40001
1.4
2.83602
5.1061
5.32804
5.35749
5.3649
5.34097
5.20964
4.99288
1.40001
1.40001
1.40001
1.40001
1.40001
1.40001
1.40001
1.40001
1.40001
1.40001
1.40001
1.40001
1.40001
1.40001
1.40001
1.4
2.28424
4.8999
5.32737
5.31993
5.29729
5.23954
5.11733
4.94719
1.40001
1.40001
1.40001
1.40001
1.40001
1.40001
1.40001
1.40001
1.40001
1.40001
1.40001
1.40001
1.40001
1.40001
1.40001
1.40001
1.69991
4.58235
5.37942
5.30853
5.24041
5.15117
5.05008
4.92067
1.40001
1.40001
1.40001
1.40001
1.40001
1.40001
1.40001
1.40001
1.40001
1.40001
1.40001
1.40001
1.40001
1.40001
1.40001
1.40001
1.42086
3.91016
5.23141
5.20418
5.15018
5.072
4.99349
4.89475
1.40001
1.40001
1.40001
1.40001
1.40001
1.40001
1.40001
1.40001
1.40001
1.40001
1.40001
1.40001
1.40001
1.40001
1.40001
1.40001
1.39991
3.00836
5.05713
5.15914
5.11962
5.04883
4.96333
4.86386
1.40001
1.40001
1.40001
1.40001
1.40001
1.40001
1.40001
1.40001
1.40001
1.40001
1.40001
1.40001
1.40001
1.40001
1.40001
1.40001
1.39998
2.0775
4.78851
5.15669
5.09788
5.01984
4.93103
4.82181
1.40001
1.40001
1.40001
1.40001
1.40001
1.40001
1.40001
1.40001
1.40001
1.40001
1.40001
1.40001
1.40001
1.40001
1.40001
1.40001
1.4
1.49064
4.03428
5.07494
5.04488
4.98101
4.89284
4.77809
1.40001
1.40001
1.40001
1.40001
1.40001
1.40001
1.40001
1.40001
1.40001
1.40001
1.40001
1.40001
1.40001
1.40001
1.40001
1.40001
1.4
1.40059
2.89272
4.89973
5.01372
4.95782
4.8752
4.74842
1.40001
1.40001
1.40001
1.40001
1.40001
1.40001
1.40001
1.40001
1.40001
1.40001
1.40001
1.40001
1.40001
1.40001
1.40001
1.40001
1.40001
1.4
1.74777
4.60053
5.08276
4.9629
4.8461
4.70312
1.40001
1.40001
1.40001
1.40001
1.40001
1.40001
1.40001
1.40001
1.40001
1.40001
1.40001
1.40001
1.40001
1.40001
1.40001
1.40001
1.40001
1.4
1.41721
3.61205
4.92016
4.88821
4.79273
4.64858
1.40001
1.40001
1.40001
1.40001
1.40001
1.40001
1.40001
1.40001
1.40001
1.40001
1.40001
1.40001
1.40001
1.40001
1.40001
1.40001
1.40001
1.4
1.39993
2.27191
4.72973
4.90595
4.77368
4.6289
1.40001
1.40001
1.40001
1.40001
1.40001
1.40001
1.40001
1.40001
1.40001
1.40001
1.40001
1.40001
1.40001
1.40001
1.40001
1.40001
1.40001
1.40001
1.39999
1.51707
3.90528
4.85869
4.72296
4.60187
1.40001
1.40001
1.40001
1.40001
1.40001
1.40001
1.40001
1.40001
1.40001
1.40001
1.40001
1.40001
1.40001
1.40001
1.40001
1.40001
1.40001
1.40001
1.4
1.40127
2.5067
4.60973
4.71304
4.60218
1.40001
1.40001
1.40001
1.40001
1.40001
1.40001
1.40001
1.40001
1.40001
1.40001
1.40001
1.40001
1.40001
1.40001
1.40001
1.40001
1.40001
1.40001
1.4
1.4
1.5816
3.83675
4.73593
4.62025
1.40001
1.40001
1.40001
1.40001
1.40001
1.40001
1.40001
1.40001
1.40001
1.40001
1.40001
1.40001
1.40001
1.40001
1.40001
1.40001
1.40001
1.40001
1.40001
1.4
1.40373
2.37514
4.46462
4.63399
1.40001
1.40001
1.40001
1.40001
1.40001
1.40001
1.40001
1.40001
1.40001
1.40001
1.40001
1.40001
1.40001
1.40001
1.40001
1.40001
1.40001
1.40001
1.40001
1.40001
1.40002
1.53679
3.58559
4.65835
1.40001
1.40001
1.40001
1.40001
1.40001
1.40001
1.40001
1.40001
1.40001
1.40001
1.40001
1.40001
1.40001
1.40001
1.40001
1.40001
1.40001
1.40001
1.40001
1.40001
1.40001
1.40234
2.14405
4.24774
1.40001
1.40001
1.40001
1.40001
1.40001
1.40001
1.40001
1.40001
1.40001
1.40001
1.40001
1.40001
1.40001
1.40001
1.40001
1.40001
1.40001
1.40001
1.40001
1.40001
1.40001
1.40001
1.47336
3.07974
1.40001
1.40001
1.40001
1.40001
1.40001
1.40001
1.40001
1.40001
1.40001
1.40001
1.40001
1.40001
1.40001
1.40001
1.40001
1.40001
1.40001
1.40001
1.40001
1.40001
1.40001
1.40001
1.40102
1.81315
1.40001
1.40001
1.40001
1.40001
1.40001
1.40001
1.40001
1.40001
1.40001
1.40001
1.40001
1.40001
1.40001
1.40001
1.40001
1.40001
1.40001
1.40001
1.40001
1.40001
1.40001
1.40001
1.40001
1.42199
1.40001
1.40001
1.40001
1.40001
1.40001
1.40001
1.40001
1.40001
1.40001
1.40001
1.40001
1.40001
1.40001
1.40001
1.40001
1.40001
1.40001
1.40001
1.40001
1.40001
1.40001
1.40001
1.40001
1.40023
1.40001
1.40001
1.40001
1.40001
1.40001
1.40001
1.40001
1.40001
1.40001
1.40001
1.40001
1.40001
1.40001
1.40001
1.40001
1.40001
1.40001
1.40001
1.40001
1.40001
1.40001
1.40001
1.40001
1.40001
1.40001
1.40001
1.40001
1.40001
1.40001
1.40001
1.40001
1.40001
1.40001
1.40001
1.40001
1.40001
1.40001
1.40001
1.40001
1.40001
1.40001
1.40001
1.40001
1.40001
1.40001
1.40001
1.40001
1.40001
1.40001
1.40001
1.40001
1.40001
1.40001
1.40001
1.40001
1.40001
1.40001
1.40001
1.40001
1.40001
1.40001
1.40001
1.40001
1.40001
1.40001
1.40001
1.40001
1.40001
1.40001
1.40001
1.40001
1.40001
1.40001
1.40001
1.40001
1.40001
1.40001
1.40001
1.40001
1.40001
1.40001
1.40001
1.40001
1.40001
1.40001
1.40001
1.40001
1.40001
1.40001
1.40001
1.40001
1.40001
1.40001
1.40001
1.40001
1.40001
1.40001
1.40001
1.40001
1.40001
1.40001
1.40001
1.40001
1.40001
1.40001
1.40001
1.40001
1.40001
1.40001
1.40001
1.40001
1.40001
1.40001
1.40001
1.40001
1.40001
1.40001
1.40001
1.40001
1.40001
1.40001
1.40001
1.40001
1.40001
1.40001
1.40001
1.40001
1.40001
1.40001
1.40001
1.40001
1.40001
1.40001
1.40001
1.40001
1.40001
1.40001
1.40001
1.40001
1.40001
1.40001
1.40001
1.40001
1.40001
1.40001
1.40001
1.40001
1.40001
1.40001
1.40001
1.40001
1.40001
1.40001
1.40001
1.40001
1.40001
1.40001
1.40001
1.40001
1.40001
1.40001
1.40001
1.40001
1.40001
1.40001
1.40001
1.40001
1.40001
1.40001
1.40001
1.40001
1.40001
1.40001
1.40001
1.40001
1.40001
1.40001
1.40001
1.40001
1.40001
1.40001
1.40001
1.40001
1.40001
1.40001
1.40001
1.40001
1.40001
1.40001
1.40001
1.40001
1.40001
1.40001
1.40001
1.40001
1.40001
1.40001
1.40001
1.40001
1.40001
1.40001
1.40001
1.40001
1.40001
1.40001
1.40001
1.40001
1.40001
1.40001
1.40001
1.40001
1.40001
1.40001
1.40001
1.40001
1.40001
1.40001
1.40001
1.40001
1.40001
1.40001
1.40001
1.40001
1.40001
1.40001
1.40001
1.40001
1.40001
1.40001
1.40001
1.40001
1.40001
1.40001
1.40001
1.40001
1.40001
1.40001
1.40001
1.40001
1.40001
1.40001
1.40001
1.40001
1.40001
1.40001
1.40001
1.40001
1.40001
1.40001
1.40001
1.40001
1.40001
1.40001
1.40001
1.40001
1.40001
1.40001
1.40001
1.40001
1.40001
1.40001
1.40001
1.40001
1.40001
1.40001
1.40001
1.40001
1.40001
1.40001
1.40001
1.40001
1.40001
1.40001
1.40001
1.40001
1.40001
1.40001
1.40001
1.40001
1.40001
1.40001
1.40001
1.40001
1.40001
1.40001
1.40001
1.40001
1.40001
1.40001
1.40001
1.40001
1.40001
1.40001
1.40001
1.40001
1.40001
1.40001
1.40001
1.40001
1.40001
1.40001
1.40001
1.40001
1.40001
1.40001
1.40001
1.40001
1.40001
1.40001
1.40001
1.40001
1.40001
1.40001
1.40001
1.40001
1.40001
1.40001
1.40001
1.40001
1.40001
1.40001
1.40001
1.40001
1.40001
1.40001
1.40001
1.40001
1.40001
1.40001
1.40001
1.40001
1.40001
1.40001
1.40001
1.40001
1.40001
3.98649
4.39895
4.51807
4.60697
4.67062
4.77929
4.67538
4.67058
4.75812
4.71198
4.58863
4.58474
4.81858
4.74927
4.60843
4.61734
4.80085
4.69873
4.42287
3.64731
4.74672
4.58324
4.23333
3.53506
4.6746
4.48343
4.11446
3.53821
4.61749
4.40284
4.03516
3.55311
4.5678
4.33658
4.00224
3.59313
4.51393
4.28872
3.99541
3.64039
4.47161
4.25876
3.99409
3.68531
4.46421
4.26116
4.00974
3.73659
4.45003
4.26034
4.03145
3.78538
4.45465
4.27253
4.06611
3.83946
4.47525
4.29467
4.09797
3.88269
4.48895
4.31437
4.12578
3.92295
4.51863
4.34764
4.16275
3.96897
4.53726
4.37103
4.19685
4.01662
4.48192
4.42304
4.25689
4.08466
3.83352
4.47334
4.32043
4.1453
2.43034
4.18629
4.36087
4.20544
1.542
3.13533
4.29487
4.26652
1.40344
1.8486
3.64646
4.27719
1.40003
1.42698
2.27444
3.93349
1.40001
1.40034
1.5018
2.72974
1.40001
1.40001
1.40229
1.64809
1.40001
1.40001
1.40002
1.40988
1.40001
1.40001
1.40001
1.4001
1.40001
1.40001
1.40001
1.40001
1.40001
1.40001
1.40001
1.40001
1.40001
1.40001
1.40001
1.40001
1.40001
1.40001
1.40001
1.40001
1.40001
1.40001
1.40001
1.40001
1.40001
1.40001
1.40001
1.40001
1.40001
1.40001
1.40001
1.40001
1.40001
1.40001
1.40001
1.40001
1.47588
0.722009
0.476508
0.498669
0.557759
0.602621
0.684966
0.809517
0.903525
0.946501
0.961702
0.979754
0.995445
1.01735
1.04656
1.06965
1.07569
1.08102
1.08102
1.07562
1.07067
1.07205
1.07678
1.08229
1.08772
1.0931
1.09728
1.09961
1.10036
1.0979
1.09529
1.09497
1.0975
1.10106
1.46201
2.65307
2.92669
2.95327
2.96404
2.96878
2.97072
2.97302
2.9653
2.9457
2.92163
2.8992
2.88383
2.87933
2.88069
2.8683
2.82161
2.76477
2.71205
2.6738
2.65314
2.65774
2.6796
2.66632
2.62239
2.56305
2.49996
2.45835
2.4317
2.42091
2.42644
2.42694
2.40402
2.37056
2.32384
2.27282
2.23831
2.2163
2.20067
2.19648
2.18931
2.16661
2.13933
2.10381
2.06103
2.0271
2.00621
1.99129
1.9826
1.97774
1.96408
1.94571
1.91799
1.87424
1.83451
1.81273
1.79968
1.78207
2.1001
1.45977
1.07231
0.95627
0.88546
0.807535
0.797481
0.800878
0.825677
0.865531
0.902219
0.944477
0.97798
1.00731
1.04083
1.07016
1.07767
1.08385
1.0882
1.08605
1.08397
1.08776
1.09465
1.10028
1.10672
1.11409
1.11633
1.11728
1.11728
1.11521
1.11198
1.10827
1.1069
1.1067
1.42008
2.66573
3.02566
3.03143
3.0133
3.00268
2.99735
3.0024
3.00574
2.98968
2.95476
2.91609
2.88188
2.86142
2.85984
2.8709
2.86492
2.82581
2.77392
2.71202
2.66744
2.64511
2.64583
2.65166
2.63972
2.60885
2.56657
2.51024
2.46006
2.42935
2.41201
2.40499
2.39564
2.37608
2.35083
2.31782
2.27465
2.23604
2.21202
2.19468
2.17988
2.16457
2.14187
2.11511
2.08252
2.04501
2.01232
1.99124
1.97632
1.96543
1.95951
1.94691
1.92569
1.89695
1.86063
1.82566
1.80521
1.78276
2.56158
1.96554
1.57162
1.29915
1.12903
0.989503
0.907289
0.865644
0.853345
0.875146
0.927891
0.976766
1.01303
1.03851
1.06751
1.09775
1.11578
1.13029
1.15069
1.15635
1.15153
1.15187
1.15478
1.15294
1.15205
1.152
1.15127
1.15004
1.14868
1.14798
1.14771
1.14609
1.14601
1.1512
1.34609
2.79331
3.30082
3.20015
3.13171
3.11997
3.12098
3.12307
3.12497
3.12899
3.1063
3.06354
3.01215
2.96624
2.93237
2.92059
2.92699
2.91772
2.88729
2.84582
2.77996
2.70759
2.66441
2.64139
2.64304
2.65206
2.63874
2.60954
2.5676
2.50434
2.44113
2.40676
2.38533
2.37606
2.37556
2.36372
2.34158
2.31027
2.26349
2.21626
2.1899
2.17101
2.15621
2.1398
2.12045
2.09663
2.06012
2.01395
1.98259
1.96668
1.95199
1.93934
1.93061
1.91746
1.89956
1.87029
1.8335
1.79046
2.88419
2.35005
1.94618
1.66374
1.43684
1.27179
1.15469
1.08658
1.01377
0.963924
0.968588
0.965857
0.97698
0.999257
1.03619
1.07292
1.10384
1.12626
1.15243
1.17895
1.18589
1.19474
1.20771
1.21055
1.20866
1.20521
1.19873
1.18988
1.18452
1.18385
1.18333
1.18389
1.19053
1.24199
1.51893
2.6618
3.52815
3.48221
3.36736
3.30459
3.27801
3.25885
3.25078
3.25324
3.23519
3.19514
3.14828
3.09347
3.04942
3.02306
3.00981
2.9999
2.97737
2.94623
2.90249
2.83334
2.76299
2.72706
2.70916
2.70594
2.70249
2.68254
2.65338
2.60991
2.54326
2.47974
2.4468
2.42774
2.41747
2.40817
2.39174
2.36914
2.33544
2.28264
2.23216
2.20478
2.18651
2.17112
2.15657
2.13946
2.11793
2.08264
2.03073
1.98672
1.96599
1.95359
1.94716
1.9408
1.92841
1.91087
1.88474
1.82426
3.09217
2.63931
2.25108
1.96859
1.72677
1.51212
1.38637
1.27448
1.18044
1.09464
1.05179
1.01092
0.981549
0.989588
1.00452
1.02835
1.05751
1.08496
1.11789
1.15187
1.17319
1.19122
1.20826
1.22847
1.2342
1.23793
1.23671
1.23306
1.22649
1.22078
1.21557
1.21925
1.25686
1.53216
1.95832
2.35972
3.11901
3.51572
3.54799
3.49217
3.43918
3.36983
3.33617
3.32644
3.31898
3.29534
3.25788
3.21196
3.15714
3.11341
3.08555
3.06388
3.04607
3.02034
2.98766
2.94104
2.87698
2.82108
2.79059
2.76791
2.75243
2.73409
2.70917
2.67887
2.63512
2.57338
2.52152
2.49495
2.47355
2.45517
2.43592
2.41366
2.38765
2.34913
2.29279
2.24622
2.22312
2.20581
2.18912
2.17265
2.15503
2.13328
2.09828
2.04621
2.00774
1.99177
1.98012
1.96906
1.95547
1.93838
1.91761
1.8671
3.22734
2.84908
2.49811
2.21166
1.97698
1.7534
1.60252
1.47535
1.35876
1.26933
1.19672
1.14056
1.07619
1.0547
1.0424
1.02934
1.02632
1.03416
1.06034
1.09551
1.13263
1.16153
1.1859
1.21446
1.22274
1.23055
1.23657
1.24591
1.24972
1.24791
1.24823
1.28051
1.49801
2.01401
2.3111
2.33198
2.52013
3.05018
3.39635
3.55558
3.5323
3.45439
3.38546
3.35311
3.34029
3.33526
3.31886
3.28448
3.23548
3.16876
3.11898
3.09057
3.07029
3.05938
3.03864
3.00837
2.96435
2.89714
2.83194
2.79713
2.77261
2.75731
2.74648
2.72653
2.69889
2.6557
2.58984
2.53251
2.50346
2.48194
2.46465
2.44809
2.42802
2.40167
2.36046
2.30363
2.25921
2.2366
2.2199
2.20438
2.18917
2.17204
2.15122
2.1187
2.06864
2.02814
2.00883
1.99282
1.97654
1.95876
1.94081
1.90562
3.33308
2.99834
2.69307
2.42233
2.18454
1.96822
1.79906
1.66296
1.53269
1.43267
1.34552
1.25981
1.18611
1.12974
1.09268
1.05329
1.03517
1.04058
1.05225
1.06051
1.07737
1.09949
1.1255
1.15717
1.18363
1.20428
1.2208
1.23814
1.24579
1.25243
1.29136
1.52767
2.00143
2.34896
2.38761
2.34461
2.33299
2.46135
2.86972
3.30886
3.4645
3.47612
3.40946
3.36414
3.34353
3.341
3.33392
3.31065
3.27369
3.21198
3.13953
3.09889
3.07473
3.06445
3.05335
3.02831
2.99673
2.94724
2.87368
2.81541
2.78809
2.77151
2.76233
2.74364
2.72031
2.6904
2.64268
2.5753
2.52332
2.49814
2.4795
2.4642
2.44601
2.42395
2.39526
2.35421
2.30067
2.25997
2.23962
2.22407
2.21149
2.20102
2.18564
2.16437
2.12396
2.06203
2.01823
1.99728
1.98368
1.96984
1.95708
1.93418
3.42378
3.12449
2.85508
2.59789
2.35437
2.16151
1.98562
1.83338
1.69305
1.58667
1.49135
1.39769
1.32092
1.25543
1.19743
1.1442
1.10281
1.09636
1.0825
1.0689
1.0589
1.06137
1.06813
1.08274
1.11312
1.14653
1.17731
1.20897
1.22863
1.26728
1.51788
2.00372
2.37641
2.38492
2.37104
2.35885
2.34983
2.34945
2.43737
2.75304
3.13785
3.36581
3.3894
3.36905
3.34498
3.33982
3.32447
3.30441
3.27809
3.23645
3.17499
3.11287
3.07665
3.05137
3.03851
3.02496
3.00056
2.96998
2.92284
2.85518
2.79751
2.76591
2.74089
2.72857
2.71979
2.69903
2.67287
2.63243
2.57074
2.51033
2.47731
2.4555
2.44055
2.42676
2.40847
2.38629
2.35276
2.3018
2.2615
2.24445
2.23303
2.22087
2.20297
2.17928
2.14477
2.09542
2.03729
1.99999
1.98324
1.97097
1.96753
1.9537
3.50127
3.23548
2.98646
2.73768
2.51128
2.32585
2.14804
1.9819
1.84429
1.73639
1.62534
1.5252
1.44138
1.38014
1.3096
1.24766
1.19644
1.15999
1.12095
1.08845
1.06771
1.06452
1.06572
1.06609
1.07145
1.08683
1.11604
1.15572
1.1918
1.42514
1.97041
2.27522
2.4129
2.40352
2.38343
2.37303
2.3715
2.36407
2.34792
2.3844
2.57596
2.93894
3.23784
3.31365
3.35638
3.34763
3.32056
3.28886
3.26082
3.23531
3.20247
3.15228
3.09202
3.05187
3.02547
3.00351
2.9909
2.97217
2.94542
2.90235
2.83285
2.77021
2.73945
2.7179
2.70271
2.69808
2.68182
2.65765
2.61782
2.547
2.48575
2.45514
2.43437
2.41929
2.4132
2.39875
2.37931
2.35018
2.30184
2.25328
2.22014
2.19821
2.17878
2.15722
2.13543
2.10772
2.06648
2.02231
1.99574
1.98384
1.9834
1.97626
3.57848
3.33595
3.10152
2.85991
2.65427
2.46995
2.29483
2.1202
1.99184
1.86996
1.75714
1.64935
1.56903
1.49691
1.42314
1.35357
1.30131
1.25671
1.20589
1.15919
1.12248
1.10899
1.09208
1.07886
1.07377
1.07472
1.08051
1.10532
1.3062
1.82754
2.19991
2.29023
2.36244
2.37094
2.35939
2.35966
2.36849
2.36455
2.34551
2.32458
2.32739
2.43623
2.75451
3.07877
3.27072
3.34735
3.33265
3.28333
3.24747
3.22446
3.20471
3.1784
3.1346
3.0723
3.02321
2.99662
2.97626
2.96259
2.9449
2.91967
2.87857
2.81253
2.75156
2.71831
2.69777
2.6832
2.67739
2.663
2.63588
2.58952
2.5244
2.46781
2.43691
2.41758
2.40456
2.40258
2.39183
2.36936
2.33184
2.27525
2.2231
2.18708
2.16153
2.14064
2.11875
2.09888
2.08248
2.06322
2.03603
2.00441
1.99049
1.96823
3.64348
3.42005
3.19527
2.96788
2.77832
2.60046
2.42008
2.25257
2.12674
1.99895
1.88245
1.7666
1.68922
1.60718
1.5313
1.45933
1.40333
1.34906
1.29152
1.23516
1.19378
1.16306
1.13218
1.10621
1.08693
1.08112
1.09735
1.25249
1.70331
2.08927
2.19938
2.25768
2.27104
2.27717
2.29942
2.31283
2.32559
2.34228
2.34111
2.32183
2.2984
2.28322
2.34341
2.57546
2.9093
3.20926
3.28361
3.2855
3.25176
3.22478
3.20232
3.1832
3.16039
3.11691
3.05582
3.0038
2.97385
2.95267
2.93592
2.91739
2.8934
2.85574
2.80249
2.74535
2.7043
2.68001
2.65937
2.63915
2.62027
2.59938
2.56695
2.51725
2.46238
2.42396
2.4008
2.3824
2.36783
2.35386
2.3337
2.29692
2.24171
2.18659
2.15203
2.1308
2.11635
2.10571
2.09812
2.08731
2.07073
2.03949
2.0021
1.95756
3.70438
3.4954
3.28221
3.07283
2.89067
2.7175
2.53289
2.38205
2.25263
2.12588
1.99235
1.88523
1.80457
1.71621
1.63532
1.55649
1.50471
1.4446
1.38527
1.32823
1.281
1.2418
1.20452
1.16724
1.13884
1.14864
1.28458
1.67709
2.08319
2.20119
2.1966
2.18329
2.17233
2.17187
2.18246
2.20983
2.24108
2.27971
2.29547
2.29517
2.2776
2.26286
2.24694
2.27371
2.42118
2.73807
3.0477
3.19713
3.22667
3.21948
3.20742
3.18331
3.16236
3.1402
3.1064
3.05628
2.99638
2.94862
2.91977
2.89885
2.88219
2.86421
2.83967
2.79946
2.73915
2.68234
2.64835
2.62601
2.60845
2.59463
2.57804
2.5541
2.51436
2.45563
2.40406
2.3719
2.34856
2.3296
2.31328
2.29552
2.2649
2.22031
2.17144
2.14189
2.12821
2.12253
2.12226
2.10981
2.09066
2.05787
2.01133
1.94696
3.76461
3.56698
3.36541
3.17049
2.99565
2.82389
2.64453
2.50169
2.3683
2.23951
2.10039
2.00204
1.91186
1.82288
1.73147
1.65667
1.60045
1.53538
1.47415
1.41594
1.36835
1.3265
1.27817
1.2346
1.2202
1.3382
1.75444
2.14132
2.26807
2.23789
2.19646
2.16697
2.1541
2.15425
2.14519
2.14201
2.14538
2.16844
2.20147
2.21865
2.2193
2.21782
2.20692
2.19822
2.21719
2.31392
2.53859
2.83641
3.08248
3.13844
3.16922
3.17529
3.16161
3.14962
3.13164
3.10244
3.04669
2.96615
2.91444
2.89036
2.87167
2.86035
2.84795
2.82555
2.7851
2.71238
2.64976
2.62259
2.60459
2.59049
2.58025
2.56409
2.54196
2.50185
2.43151
2.37205
2.34017
2.31832
2.29984
2.2833
2.26866
2.25049
2.22186
2.18301
2.14932
2.12834
2.11143
2.09428
2.07719
2.05459
2.01548
1.94468
3.82344
3.63163
3.44419
3.26346
3.09251
2.91914
2.74887
2.61073
2.47803
2.34202
2.20695
2.114
2.01611
1.92524
1.8257
1.75599
1.69261
1.62508
1.56128
1.50183
1.45365
1.40124
1.35312
1.3391
1.45604
1.88479
2.29413
2.39091
2.35077
2.2992
2.25213
2.22018
2.18987
2.16242
2.14419
2.13877
2.13127
2.11634
2.10985
2.10893
2.11491
2.11876
2.13194
2.13543
2.13686
2.15363
2.21534
2.35517
2.61547
2.88411
3.06004
3.10251
3.13082
3.15882
3.14008
3.11398
3.07857
3.01082
2.92991
2.88637
2.86545
2.8543
2.846
2.82878
2.80245
2.75254
2.683
2.63225
2.60765
2.59081
2.57854
2.56925
2.5537
2.5226
2.46708
2.39917
2.34662
2.31718
2.29957
2.28639
2.27777
2.2661
2.25079
2.22322
2.17734
2.13378
2.10562
2.08289
2.06064
2.03653
2.00915
1.95273
3.89816
3.70825
3.52892
3.35107
3.18119
3.01336
2.85278
2.71157
2.58489
2.43917
2.31825
2.22141
2.11965
2.02081
1.92189
1.85796
1.7828
1.71471
1.64474
1.58578
1.53036
1.47777
1.45782
1.58017
2.02218
2.46768
2.55226
2.50338
2.44327
2.39541
2.35108
2.30112
2.25045
2.20634
2.17027
2.14595
2.12459
2.10717
2.10024
2.09278
2.06349
2.03875
2.03519
2.04109
2.04754
2.05553
2.07313
2.11634
2.20162
2.3804
2.64942
2.90591
3.0004
3.08206
3.12551
3.11217
3.08045
3.03991
2.97593
2.9111
2.87065
2.85127
2.8348
2.81781
2.79538
2.76567
2.72168
2.67104
2.6306
2.60387
2.58288
2.56042
2.53307
2.50455
2.47402
2.43449
2.38768
2.34228
2.31273
2.29721
2.28417
2.27051
2.25549
2.23632
2.2014
2.14686
2.10081
2.0721
2.0491
2.02459
1.99857
1.96673
3.96072
3.77728
3.60257
3.42633
3.2556
3.10545
2.95138
2.80425
2.68
2.53653
2.42205
2.32119
2.2239
2.10518
2.02007
1.95034
1.87142
1.79983
1.72611
1.66249
1.60484
1.58604
1.72285
2.19844
2.6479
2.72804
2.66817
2.60304
2.5559
2.50833
2.4536
2.39348
2.33316
2.275
2.22657
2.18629
2.15345
2.12944
2.1112
2.09236
2.07043
2.03789
1.99158
1.97131
1.96876
1.96987
1.9779
1.99564
2.02135
2.06416
2.15766
2.38169
2.66034
2.88482
3.0261
3.07127
3.08027
3.04959
3.0112
2.96591
2.8965
2.85154
2.83337
2.8141
2.791
2.766
2.73908
2.70477
2.66118
2.61893
2.58506
2.55467
2.52468
2.49765
2.4732
2.44925
2.4208
2.38462
2.345
2.3089
2.28537
2.27105
2.26032
2.24427
2.21536
2.16394
2.1032
2.06326
2.03929
2.01984
2.00943
1.99128
4.02394
3.84977
3.67774
3.50536
3.34469
3.1961
3.0447
2.89686
2.77425
2.64203
2.51535
2.41702
2.3155
2.19544
2.11674
2.03863
1.96271
1.88055
1.80133
1.73911
1.72726
1.89878
2.42312
2.87082
2.91878
2.84178
2.75655
2.70757
2.66452
2.6144
2.56166
2.50347
2.43318
2.35648
2.29557
2.25283
2.21672
2.18326
2.15219
2.12305
2.09535
2.05828
1.9993
1.95733
1.94161
1.93023
1.92689
1.9313
1.9369
1.93058
1.93212
1.97002
2.1066
2.3629
2.66538
2.88236
2.98982
3.03195
3.03693
3.00601
2.9402
2.86011
2.82474
2.80889
2.79343
2.77708
2.75608
2.72617
2.68119
2.62406
2.57978
2.55243
2.52967
2.5067
2.48268
2.45755
2.43202
2.40306
2.36668
2.32764
2.29624
2.26971
2.24215
2.21673
2.19271
2.16346
2.11767
2.07044
2.04455
2.03241
2.02829
2.0092
4.10579
3.93282
3.76202
3.59411
3.43799
3.28691
3.13508
2.99278
2.86685
2.73639
2.60925
2.51181
2.40478
2.28712
2.20395
2.12692
2.05352
1.95628
1.87457
1.8772
2.08689
2.67533
3.13349
3.14603
3.05316
2.94273
2.86228
2.8176
2.77072
2.7179
2.66367
2.60542
2.53677
2.45322
2.37156
2.31733
2.2784
2.24391
2.21218
2.18017
2.14643
2.10686
2.05241
1.98368
1.93512
1.91665
1.9102
1.90486
1.89468
1.88951
1.88404
1.86223
1.85131
1.89355
2.07248
2.38562
2.6807
2.88874
2.98542
2.99142
2.96927
2.88503
2.81049
2.79232
2.78978
2.78792
2.77417
2.74744
2.70028
2.62549
2.57552
2.55451
2.53662
2.51814
2.49761
2.47144
2.43702
2.39918
2.36585
2.33614
2.30495
2.27003
2.23461
2.20325
2.17535
2.15012
2.1277
2.10374
2.0758
2.05405
2.04686
2.02968
4.18892
4.01405
3.83983
3.6812
3.52449
3.36858
3.21924
3.08689
2.95626
2.82541
2.70206
2.60175
2.49142
2.38333
2.29223
2.21726
2.12575
2.02413
2.02913
2.28897
2.8919
3.36085
3.37492
3.28128
3.17363
3.06172
2.97372
2.91894
2.86748
2.81324
2.75723
2.69895
2.63542
2.55845
2.46847
2.3945
2.34656
2.3078
2.27124
2.23443
2.19745
2.15808
2.11138
2.04948
1.98232
1.94165
1.91971
1.90028
1.88427
1.87263
1.85601
1.84322
1.82689
1.78487
1.78505
1.85984
2.07955
2.39816
2.70199
2.89367
2.92182
2.90559
2.82978
2.77504
2.76718
2.78522
2.78159
2.75738
2.72134
2.64899
2.56913
2.53779
2.52117
2.50733
2.49292
2.47599
2.44844
2.40471
2.36339
2.33367
2.30691
2.27509
2.23543
2.19575
2.1659
2.14939
2.13914
2.12863
2.11262
2.08807
2.06195
2.01836
4.22207
4.10299
3.92533
3.76563
3.60916
3.45159
3.3137
3.17785
3.04443
2.90867
2.79965
2.69426
2.58308
2.47031
2.38254
2.29729
2.19058
2.20406
2.5316
3.16146
3.55502
3.60002
3.50727
3.41189
3.31974
3.20706
3.08717
3.01106
2.95296
2.89782
2.84333
2.78817
2.73033
2.66287
2.57751
2.48565
2.41729
2.37051
2.3307
2.29221
2.25376
2.21422
2.17119
2.11753
2.0532
1.99799
1.95962
1.92941
1.90308
1.87859
1.85288
1.83108
1.81003
1.78417
1.74823
1.72861
1.74419
1.83663
2.0752
2.40584
2.68313
2.83627
2.82687
2.78868
2.76739
2.75255
2.76476
2.76
2.72782
2.66674
2.57807
2.53976
2.52828
2.51442
2.49676
2.4782
2.45184
2.40805
2.36318
2.3368
2.31442
2.28371
2.23768
2.19481
2.17499
2.16386
2.15364
2.1423
2.12676
2.10401
2.07253
2.0145
4.05369
4.166
4.02777
3.85935
3.69621
3.54526
3.40852
3.27262
3.13258
3.00243
2.89302
2.7828
2.66967
2.5603
2.47024
2.36485
2.40358
2.83314
3.57886
3.80177
3.77415
3.6723
3.58813
3.53411
3.45796
3.35799
3.23121
3.11268
3.03862
2.97932
2.92243
2.86663
2.81053
2.75042
2.67982
2.59625
2.51469
2.45114
2.40147
2.35708
2.31404
2.27134
2.22761
2.17741
2.1182
2.05781
2.00871
1.97115
1.94047
1.91015
1.87781
1.84545
1.81011
1.77273
1.73548
1.70998
1.69337
1.68374
1.70684
1.82125
2.07287
2.38677
2.64864
2.75075
2.73385
2.7347
2.72596
2.72053
2.70065
2.67007
2.62066
2.55536
2.51143
2.49309
2.47551
2.45617
2.43345
2.40671
2.37389
2.33449
2.3006
2.27463
2.24698
2.22383
2.20294
2.17757
2.15157
2.13606
2.1266
2.11267
2.08615
2.01906
3.13256
4.09031
4.09555
3.96468
3.78336
3.63934
3.5011
3.36407
3.21814
3.10193
2.98297
2.8716
2.74531
2.64886
2.54958
2.62274
3.12099
3.94092
4.2309
4.07465
3.88437
3.75781
3.68986
3.64731
3.57936
3.48875
3.37791
3.25351
3.14899
3.07288
3.00807
2.94605
2.88507
2.82481
2.76209
2.69098
2.61207
2.54019
2.48254
2.43242
2.38341
2.33321
2.28214
2.22926
2.17219
2.11082
2.05535
2.01269
1.97928
1.94866
1.91814
1.88389
1.84259
1.79678
1.74865
1.70995
1.68676
1.66604
1.65036
1.6447
1.67848
1.8061
2.05697
2.35806
2.5797
2.65155
2.66694
2.67675
2.67298
2.66516
2.6386
2.57103
2.50733
2.48551
2.471
2.45511
2.43648
2.41004
2.36517
2.31745
2.29732
2.2831
2.26858
2.24921
2.2181
2.18705
2.16223
2.13978
2.11208
2.08199
2.0538
2.00176
1.86327
3.42696
4.06801
4.04527
3.88848
3.73102
3.59053
3.44541
3.31565
3.19298
3.07966
2.94548
2.83374
2.74832
2.88377
3.49169
4.19895
4.49271
4.39393
4.21501
4.0387
3.91299
3.83228
3.76161
3.68288
3.59465
3.49754
3.38885
3.27938
3.18695
3.11
3.03977
2.972
2.90576
2.83977
2.76963
2.69156
2.6135
2.54774
2.49353
2.44378
2.39452
2.34396
2.29021
2.22945
2.1599
2.09412
2.04448
2.00667
1.97449
1.94628
1.91617
1.87668
1.82461
1.77123
1.73038
1.70201
1.67238
1.64779
1.6276
1.61051
1.60228
1.64028
1.76008
2.00722
2.31368
2.49721
2.57183
2.62327
2.62297
2.60144
2.56089
2.51023
2.48989
2.47703
2.46362
2.44532
2.41297
2.36859
2.32007
2.27578
2.24884
2.23247
2.21899
2.20976
2.19771
2.18091
2.15323
2.11331
2.07245
2.0314
1.98623
1.43042
2.10772
3.60512
4.03783
3.99074
3.84321
3.67943
3.53334
3.40744
3.29272
3.16129
3.02919
2.97629
3.21323
3.99201
4.56418
4.75555
4.66581
4.50339
4.37017
4.23497
4.1059
3.9985
3.89396
3.7922
3.69586
3.60288
3.50631
3.40357
3.30304
3.21441
3.13624
3.06335
2.99202
2.91972
2.84307
2.75959
2.67515
2.60064
2.53905
2.48562
2.43619
2.38789
2.33727
2.27917
2.21129
2.14124
2.08248
2.03775
1.99893
1.96207
1.92688
1.8927
1.84928
1.79898
1.74483
1.69758
1.67399
1.65403
1.62967
1.60302
1.5837
1.56406
1.54055
1.57136
1.71658
1.99628
2.26496
2.45147
2.54833
2.54697
2.51656
2.47893
2.45009
2.42629
2.41449
2.41046
2.39984
2.37726
2.32989
2.27417
2.24332
2.22064
2.19936
2.17839
2.16076
2.14747
2.13343
2.10967
2.06594
2.02209
1.9912
1.40044
1.46917
2.33916
3.71632
3.99621
3.94723
3.78742
3.63306
3.50292
3.38878
3.23792
3.25459
3.64156
4.50243
5.08856
5.05973
4.94999
4.79286
4.65637
4.54299
4.41885
4.28496
4.15609
4.03472
3.92066
3.81442
3.71372
3.61358
3.50974
3.40523
3.30771
3.21988
3.1391
3.06147
2.98303
2.90047
2.81264
2.72539
2.64867
2.58549
2.5309
2.47921
2.4248
2.3655
2.30404
2.24431
2.1803
2.11541
2.06517
2.02684
1.99178
1.9549
1.91721
1.88456
1.83913
1.78224
1.71842
1.678
1.66124
1.6485
1.63017
1.59648
1.54919
1.51061
1.49011
1.49485
1.5517
1.73343
1.99022
2.25083
2.40629
2.45377
2.45564
2.44385
2.41592
2.37796
2.35188
2.33592
2.32023
2.30208
2.27489
2.2388
2.21015
2.18928
2.17088
2.15237
2.12946
2.09843
2.06244
2.03811
2.0286
2.01713
1.40001
1.40143
1.52312
2.54708
3.76217
3.9688
3.90299
3.74342
3.60697
3.48138
3.58824
4.22046
5.02688
5.50848
5.49116
5.32171
5.12355
4.96055
4.83562
4.71305
4.5825
4.44515
4.30699
4.1743
4.04889
3.92995
3.81547
3.70385
3.59345
3.48519
3.38194
3.28574
3.19619
3.11061
3.02589
2.93953
2.85086
2.76397
2.68629
2.62223
2.5687
2.51896
2.4655
2.4033
2.3292
2.24529
2.18471
2.14991
2.116
2.07832
2.04038
1.9996
1.95158
1.88852
1.81869
1.75624
1.72052
1.69887
1.67825
1.65132
1.61863
1.57637
1.52352
1.48826
1.46693
1.46064
1.45412
1.46774
1.54649
1.71933
1.97522
2.1719
2.32477
2.40377
2.40532
2.37741
2.33807
2.30254
2.25846
2.229
2.22002
2.21446
2.2048
2.18964
2.16987
2.1456
2.11815
2.08663
2.05052
2.02852
2.02419
2.06025
1.40001
1.40001
1.40339
1.58952
2.69616
3.80207
3.92707
3.84389
3.73357
4.0366
4.93389
5.6826
5.84318
5.82238
5.66651
5.49739
5.30483
5.1197
4.98061
4.84956
4.71505
4.57532
4.43015
4.2823
4.14164
4.0111
3.88629
3.76778
3.65553
3.54734
3.44275
3.34175
3.24457
3.15005
3.0567
2.96398
2.87372
2.78964
2.71364
2.64502
2.58078
2.51841
2.45807
2.39504
2.3262
2.25815
2.20038
2.14666
2.09761
2.05476
2.01454
1.97405
1.92987
1.87554
1.81492
1.76657
1.73624
1.71102
1.68471
1.65253
1.61482
1.57269
1.52183
1.48133
1.45941
1.44789
1.43141
1.42171
1.40818
1.42568
1.50718
1.69033
1.92306
2.14034
2.28743
2.32307
2.32115
2.29769
2.24942
2.20407
2.17034
2.16036
2.1534
2.14327
2.13061
2.1215
2.11044
2.08686
2.04615
2.04206
2.07838
2.34493
1.40001
1.40001
1.40003
1.40661
1.65537
2.86562
3.71953
3.89205
4.59701
5.67858
6.26864
6.21633
6.12798
5.96411
5.83249
5.67167
5.47012
5.26461
5.10823
4.97215
4.83375
4.688
4.53432
4.37299
4.21058
4.06864
3.95052
3.83953
3.72903
3.61895
3.50915
3.40066
3.29527
3.19398
3.09721
3.00567
2.92022
2.84008
2.76302
2.68792
2.61519
2.54646
2.4812
2.41981
2.3602
2.30005
2.23407
2.16532
2.10507
2.05609
2.01419
1.97374
1.9324
1.89092
1.84965
1.81252
1.77839
1.74583
1.71479
1.68072
1.63315
1.57299
1.51427
1.48054
1.46412
1.44998
1.43261
1.41495
1.39179
1.37595
1.35006
1.36216
1.45986
1.67474
1.93835
2.10589
2.22844
2.24429
2.23936
2.21525
2.16891
2.14756
2.13091
2.1092
2.0933
2.08779
2.08409
2.0802
2.11082
2.23919
2.46869
2.84886
1.40001
1.40001
1.40001
1.40006
1.41249
1.73706
2.73415
4.57282
6.41556
6.60938
6.55991
6.29415
6.11922
5.9811
5.84987
5.68586
5.47804
5.27304
5.09671
4.93416
4.77912
4.62697
4.47195
4.31517
4.16238