/*--------------------------------*- C++ -*----------------------------------*\
  =========                 |
  \\      /  F ield         | OpenFOAM: The Open Source CFD Toolbox
   \\    /   O peration     | Website:  https://openfoam.org
    \\  /    A nd           | Version:  7
     \\/     M anipulation  |
\*---------------------------------------------------------------------------*/
FoamFile
{
    version     2.0;
    format      ascii;
    class       volVectorField;
    location    "0.8";
    object      U;
}
// * * * * * * * * * * * * * * * * * * * * * * * * * * * * * * * * * * * * * //

dimensions      [0 1 -1 0 0 0 0];

internalField   nonuniform List<vector> 
16512
(
(2.25937 0.319018 0)
(2.26425 0.30065 0)
(2.2736 0.287519 0)
(2.28736 0.283112 0)
(2.30182 0.27901 0)
(2.3174 0.275496 0)
(2.33288 0.273313 0)
(2.34679 0.271475 0)
(2.35846 0.269671 0)
(2.36879 0.267497 0)
(2.37744 0.26129 0)
(2.37637 0.24513 0)
(2.36584 0.221413 0)
(2.36438 0.201911 0)
(2.3752 0.194405 0)
(2.38676 0.19056 0)
(2.39888 0.186356 0)
(2.41048 0.181104 0)
(2.42065 0.174927 0)
(2.42815 0.167235 0)
(2.42854 0.154711 0)
(2.4224 0.136519 0)
(2.4282 0.129648 0)
(2.43774 0.128425 0)
(2.44984 0.12574 0)
(2.46242 0.121694 0)
(2.47342 0.115504 0)
(2.48345 0.108028 0)
(2.49277 0.101014 0)
(2.50095 0.0942108 0)
(2.50591 0.0853368 0)
(2.50379 0.0704401 0)
(2.496 0.0524819 0)
(2.49756 0.0439185 0)
(2.50427 0.044013 0)
(2.51508 0.0442073 0)
(2.53017 0.0446052 0)
(2.54027 0.0428194 0)
(2.55114 0.0390322 0)
(2.56066 0.0337393 0)
(2.56738 0.0259108 0)
(2.5682 0.0114803 0)
(2.55868 -0.0103541 0)
(2.54708 -0.0316735 0)
(2.54813 -0.0398297 0)
(2.55356 -0.0403166 0)
(2.56447 -0.0404465 0)
(2.57991 -0.0379341 0)
(2.59148 -0.0369072 0)
(2.5987 -0.0387494 0)
(2.60698 -0.0422242 0)
(2.61344 -0.0464995 0)
(2.61622 -0.0547069 0)
(2.61171 -0.0704717 0)
(2.60046 -0.0889565 0)
(2.59924 -0.0977719 0)
(2.60492 -0.0977304 0)
(2.61318 -0.0963947 0)
(2.62554 -0.0948085 0)
(2.63356 -0.0954195 0)
(2.64187 -0.0979117 0)
(2.64932 -0.101166 0)
(2.65429 -0.106427 0)
(2.65417 -0.118022 0)
(2.64435 -0.137975 0)
(2.63473 -0.156039 0)
(2.63793 -0.161198 0)
(2.64371 -0.162756 0)
(2.65468 -0.164445 0)
(2.66987 -0.163389 0)
(2.68037 -0.162827 0)
(2.68558 -0.163919 0)
(2.69202 -0.165279 0)
(2.69783 -0.166645 0)
(2.70367 -0.168351 0)
(2.70838 -0.171722 0)
(2.70994 -0.179791 0)
(2.70172 -0.196774 0)
(2.68698 -0.218107 0)
(2.68328 -0.230245 0)
(2.68882 -0.231806 0)
(2.69478 -0.232604 0)
(2.70238 -0.233454 0)
(2.71046 -0.233594 0)
(2.71879 -0.233323 0)
(2.72775 -0.232455 0)
(2.73592 -0.231138 0)
(2.74071 -0.231424 0)
(2.74648 -0.232604 0)
(2.75149 -0.234538 0)
(2.75464 -0.239365 0)
(2.7522 -0.250069 0)
(2.74386 -0.263597 0)
(2.74247 -0.270754 0)
(2.74719 -0.271528 0)
(2.75233 -0.272186 0)
(2.75775 -0.273863 0)
(2.76298 -0.275341 0)
(2.76865 -0.277232 0)
(2.77458 -0.279434 0)
(2.78056 -0.282226 0)
(2.78565 -0.286517 0)
(2.7855 -0.294986 0)
(2.77719 -0.308166 0)
(2.77113 -0.31691 0)
(2.771 -0.31668 0)
(2.77127 -0.314532 0)
(2.77073 -0.307856 0)
(2.76753 -0.292183 0)
(2.76063 -0.263093 0)
(2.75096 -0.235183 0)
(2.72605 -0.171086 0)
(2.68972 -0.0906351 0)
(2.65093 -0.053871 0)
(2.58922 0.027615 0)
(2.54566 0.0565842 0)
(2.52467 0.0550573 0)
(2.5148 0.0416187 0)
(2.5141 0.0367195 0)
(2.5223 0.0401167 0)
(2.52694 0.0426852 0)
(2.53721 0.048506 0)
(2.55103 0.0555652 0)
(2.55897 0.0571299 0)
(2.5631 0.0560045 0)
(2.56591 0.0537202 0)
(2.56272 0.0491314 0)
(2.55262 0.0396679 0)
(2.53904 0.0280106 0)
(2.53389 0.0238743 0)
(2.53495 0.0243762 0)
(2.53665 0.0259025 0)
(2.5409 0.0299237 0)
(2.54928 0.0389624 0)
(2.55996 0.0490527 0)
(2.56437 0.0527577 0)
(2.56712 0.0532021 0)
(2.56703 0.0506966 0)
(2.56194 0.04472 0)
(2.55754 0.0374912 0)
(2.56079 0.0356348 0)
(2.56585 0.0358244 0)
(2.57034 0.0361791 0)
(2.57585 0.0368794 0)
(2.58343 0.0388686 0)
(2.58869 0.0409593 0)
(2.59014 0.0421296 0)
(2.5904 0.0431547 0)
(2.58875 0.0449748 0)
(2.58191 0.0457023 0)
(2.57532 0.0445802 0)
(2.57604 0.0438945 0)
(2.5781 0.0430302 0)
(2.58021 0.0412946 0)
(2.58287 0.0394731 0)
(2.58609 0.0374721 0)
(2.58937 0.0354702 0)
(2.59233 0.0338835 0)
(2.59378 0.0328457 0)
(2.59062 0.0314581 0)
(2.58315 0.0289221 0)
(2.58122 0.027321 0)
(2.58406 0.0271019 0)
(2.5871 0.0271367 0)
(2.59039 0.0272738 0)
(2.59384 0.0276978 0)
(2.59868 0.0291248 0)
(2.60334 0.032586 0)
(2.60577 0.0366535 0)
(2.60725 0.0405374 0)
(2.60863 0.0439577 0)
(2.60987 0.0460092 0)
(2.61073 0.0464675 0)
(2.60918 0.0434042 0)
(2.60399 0.0359568 0)
(2.60019 0.0304625 0)
(2.6011 0.0292005 0)
(2.60409 0.0293122 0)
(2.60725 0.0292069 0)
(2.60948 0.0286798 0)
(2.60696 0.0268767 0)
(2.59661 0.0240184 0)
(2.59101 0.0249813 0)
(2.59654 0.028973 0)
(2.60395 0.0346026 0)
(2.61179 0.0406526 0)
(2.61905 0.0451953 0)
(2.62562 0.048117 0)
(2.63131 0.0494086 0)
(2.63617 0.0494964 0)
(2.64056 0.0493319 0)
(2.64451 0.0494926 0)
(2.64691 0.0493978 0)
(2.64472 0.0467188 0)
(2.63657 0.0398035 0)
(2.62894 0.0335795 0)
(2.6294 0.032209 0)
(2.63563 0.0339744 0)
(2.64296 0.0363067 0)
(2.65059 0.0391587 0)
(2.65858 0.0434574 0)
(2.66765 0.0511089 0)
(2.6759 0.0597413 0)
(2.68319 0.0651356 0)
(2.68912 0.0690314 0)
(2.69256 0.0715573 0)
(2.69415 0.072979 0)
(2.69268 0.0733434 0)
(2.68783 0.0717666 0)
(2.68713 0.0701597 0)
(2.69104 0.070048 0)
(2.69494 0.070305 0)
(2.69913 0.0710827 0)
(2.70368 0.0718839 0)
(2.70781 0.0716013 0)
(2.71157 0.0714241 0)
(2.71499 0.0718307 0)
(2.72094 0.0736751 0)
(2.72931 0.0782875 0)
(2.73771 0.0834323 0)
(2.74106 0.0848736 0)
(2.74361 0.0848021 0)
(2.74549 0.0842647 0)
(2.74606 0.082623 0)
(2.74467 0.0790785 0)
(2.74364 0.075615 0)
(2.74505 0.0745852 0)
(2.74683 0.0745301 0)
(2.74872 0.0746345 0)
(2.7507 0.0748189 0)
(2.75253 0.0749943 0)
(2.75519 0.0754738 0)
(2.761 0.0772923 0)
(2.77077 0.0805048 0)
(2.77992 0.0827161 0)
(2.78346 0.0830454 0)
(2.78434 0.0827252 0)
(2.78557 0.0816127 0)
(2.78668 0.079872 0)
(2.78704 0.0769841 0)
(2.78638 0.0730939 0)
(2.78679 0.0711348 0)
(2.788 0.0709797 0)
(2.78924 0.0707295 0)
(2.79064 0.0704509 0)
(2.79209 0.0701055 0)
(2.79365 0.0694893 0)
(2.79562 0.0686361 0)
(2.79855 0.0677092 0)
(2.80314 0.0672173 0)
(2.81068 0.0676961 0)
(2.8211 0.0690965 0)
(2.82841 0.0698395 0)
(2.83039 0.0698487 0)
(2.83292 0.0696694 0)
(2.83506 0.0694595 0)
(2.83695 0.0693281 0)
(2.83874 0.0692758 0)
(2.25167 0.314016 0)
(2.26257 0.303699 0)
(2.27638 0.300629 0)
(2.29189 0.297486 0)
(2.30871 0.295638 0)
(2.32542 0.295075 0)
(2.33987 0.29411 0)
(2.35194 0.292428 0)
(2.36261 0.289803 0)
(2.37144 0.282487 0)
(2.36995 0.26395 0)
(2.35803 0.237649 0)
(2.35279 0.216208 0)
(2.3626 0.210241 0)
(2.37522 0.207051 0)
(2.38778 0.20289 0)
(2.40013 0.199293 0)
(2.41167 0.195291 0)
(2.42175 0.189924 0)
(2.42761 0.181696 0)
(2.42303 0.166514 0)
(2.42053 0.150913 0)
(2.42995 0.14738 0)
(2.4407 0.142769 0)
(2.45231 0.138163 0)
(2.46373 0.133846 0)
(2.47422 0.127542 0)
(2.48342 0.119141 0)
(2.4911 0.11074 0)
(2.4965 0.101716 0)
(2.49619 0.0887734 0)
(2.49052 0.0727583 0)
(2.49284 0.0647706 0)
(2.50017 0.064994 0)
(2.51045 0.0646563 0)
(2.52309 0.0630192 0)
(2.53288 0.0597487 0)
(2.54323 0.0552289 0)
(2.55256 0.0496957 0)
(2.55946 0.0421888 0)
(2.56097 0.0290326 0)
(2.55394 0.00864214 0)
(2.54374 -0.0116102 0)
(2.54511 -0.0198 0)
(2.5507 -0.0198231 0)
(2.56033 -0.0203193 0)
(2.57437 -0.0202555 0)
(2.58544 -0.0215657 0)
(2.59267 -0.0243197 0)
(2.60098 -0.0276174 0)
(2.60784 -0.0314724 0)
(2.6114 -0.0386093 0)
(2.60815 -0.0526341 0)
(2.59786 -0.0704678 0)
(2.59594 -0.0799959 0)
(2.60155 -0.0801055 0)
(2.60957 -0.0788511 0)
(2.62131 -0.0775854 0)
(2.62916 -0.0783832 0)
(2.63786 -0.0806329 0)
(2.6455 -0.0834418 0)
(2.65075 -0.0882727 0)
(2.65106 -0.099001 0)
(2.64114 -0.118576 0)
(2.62967 -0.138312 0)
(2.63143 -0.145377 0)
(2.63699 -0.146812 0)
(2.64623 -0.148737 0)
(2.66115 -0.147941 0)
(2.67507 -0.14621 0)
(2.68147 -0.147059 0)
(2.68795 -0.148515 0)
(2.69397 -0.150146 0)
(2.69976 -0.152058 0)
(2.70469 -0.155482 0)
(2.70695 -0.163044 0)
(2.69968 -0.179488 0)
(2.68492 -0.201212 0)
(2.68004 -0.214334 0)
(2.68527 -0.216019 0)
(2.69114 -0.216412 0)
(2.69852 -0.217007 0)
(2.70651 -0.217237 0)
(2.71511 -0.217062 0)
(2.72351 -0.216566 0)
(2.73175 -0.215945 0)
(2.73743 -0.216223 0)
(2.74298 -0.217331 0)
(2.74798 -0.219809 0)
(2.75097 -0.225989 0)
(2.74801 -0.238385 0)
(2.74049 -0.252636 0)
(2.74013 -0.259638 0)
(2.74438 -0.26008 0)
(2.74947 -0.259554 0)
(2.75538 -0.259535 0)
(2.76053 -0.260544 0)
(2.76556 -0.261626 0)
(2.77064 -0.263019 0)
(2.77581 -0.264866 0)
(2.78061 -0.26781 0)
(2.78237 -0.274512 0)
(2.7762 -0.288234 0)
(2.76668 -0.305596 0)
(2.77036 -0.310746 0)
(2.775 -0.311134 0)
(2.77894 -0.310666 0)
(2.78282 -0.308349 0)
(2.78584 -0.302131 0)
(2.78653 -0.291762 0)
(2.78393 -0.274942 0)
(2.77554 -0.249684 0)
(2.75357 -0.196632 0)
(2.71761 -0.148793 0)
(2.655 -0.077501 0)
(2.57867 0.0227364 0)
(2.54193 0.0240778 0)
(2.5225 0.0252073 0)
(2.52052 0.0328738 0)
(2.52532 0.0468363 0)
(2.53541 0.0548171 0)
(2.54883 0.0609671 0)
(2.55745 0.0616723 0)
(2.56315 0.0586919 0)
(2.56787 0.0536396 0)
(2.56643 0.0491839 0)
(2.55722 0.0418803 0)
(2.54292 0.0306668 0)
(2.53691 0.0252416 0)
(2.53844 0.025597 0)
(2.54097 0.0280675 0)
(2.54677 0.0340437 0)
(2.55559 0.0439955 0)
(2.56484 0.0527503 0)
(2.56817 0.0551525 0)
(2.56949 0.0542767 0)
(2.56851 0.0505625 0)
(2.56359 0.0446906 0)
(2.55782 0.0371232 0)
(2.55909 0.0341171 0)
(2.56462 0.0343642 0)
(2.56983 0.0354082 0)
(2.57587 0.0375834 0)
(2.58548 0.0424707 0)
(2.59373 0.0472216 0)
(2.59719 0.0482827 0)
(2.59786 0.0481245 0)
(2.59728 0.0471602 0)
(2.59134 0.0439779 0)
(2.5806 0.0404628 0)
(2.57739 0.0393425 0)
(2.5794 0.0391821 0)
(2.58158 0.038849 0)
(2.58423 0.0373322 0)
(2.58674 0.0357607 0)
(2.59007 0.0345328 0)
(2.59358 0.0332348 0)
(2.5965 0.0320819 0)
(2.59685 0.0303575 0)
(2.59186 0.0276037 0)
(2.58604 0.0259536 0)
(2.58714 0.0258777 0)
(2.59055 0.0260445 0)
(2.59364 0.0263248 0)
(2.59662 0.0268463 0)
(2.60064 0.0282714 0)
(2.6066 0.0321331 0)
(2.6121 0.0377701 0)
(2.61478 0.0423195 0)
(2.61613 0.0458447 0)
(2.6177 0.0487615 0)
(2.61857 0.0499437 0)
(2.61656 0.0474214 0)
(2.6103 0.0401276 0)
(2.60496 0.0335548 0)
(2.60529 0.0313706 0)
(2.60775 0.0315283 0)
(2.61047 0.0322744 0)
(2.61343 0.0325664 0)
(2.61394 0.0311975 0)
(2.60698 0.0272838 0)
(2.59667 0.0253671 0)
(2.59576 0.0283932 0)
(2.60069 0.0319449 0)
(2.60709 0.0357482 0)
(2.61404 0.0391352 0)
(2.62068 0.0416153 0)
(2.62662 0.0434133 0)
(2.63214 0.0450099 0)
(2.63724 0.0466415 0)
(2.64173 0.048234 0)
(2.64518 0.0495447 0)
(2.64494 0.0488757 0)
(2.63721 0.0420689 0)
(2.62663 0.0328004 0)
(2.62436 0.0292473 0)
(2.62906 0.0306437 0)
(2.63549 0.0333365 0)
(2.64279 0.0360781 0)
(2.65069 0.039194 0)
(2.65967 0.0446849 0)
(2.66847 0.0519345 0)
(2.6772 0.0582834 0)
(2.68613 0.0649551 0)
(2.69306 0.0715065 0)
(2.6971 0.075815 0)
(2.69733 0.0768019 0)
(2.69134 0.0731443 0)
(2.68427 0.0669974 0)
(2.685 0.0641177 0)
(2.68922 0.0638725 0)
(2.6939 0.064189 0)
(2.69845 0.065141 0)
(2.70288 0.066115 0)
(2.70703 0.0664842 0)
(2.711 0.0672997 0)
(2.71636 0.0693677 0)
(2.72536 0.0749501 0)
(2.73434 0.0814435 0)
(2.73777 0.0832046 0)
(2.74086 0.0837131 0)
(2.743 0.0842743 0)
(2.74394 0.0836356 0)
(2.74262 0.0807912 0)
(2.74057 0.0765197 0)
(2.7419 0.0744381 0)
(2.74413 0.0740215 0)
(2.74635 0.0738227 0)
(2.74862 0.0738157 0)
(2.75093 0.0740137 0)
(2.75335 0.0744738 0)
(2.75759 0.0759951 0)
(2.76484 0.0790182 0)
(2.77447 0.0825392 0)
(2.78147 0.0840683 0)
(2.78359 0.0837071 0)
(2.78451 0.0828846 0)
(2.78547 0.0812027 0)
(2.7857 0.0784122 0)
(2.78492 0.0745298 0)
(2.78517 0.072402 0)
(2.78632 0.0722256 0)
(2.78748 0.0719968 0)
(2.78871 0.0713838 0)
(2.78988 0.0703446 0)
(2.79114 0.0690349 0)
(2.79257 0.0678028 0)
(2.79428 0.0668577 0)
(2.79709 0.0660151 0)
(2.80262 0.0655292 0)
(2.81195 0.0666959 0)
(2.82343 0.0694896 0)
(2.82945 0.0708758 0)
(2.83112 0.0709849 0)
(2.83314 0.0708554 0)
(2.83509 0.0708061 0)
(2.83697 0.0707505 0)
(2.83863 0.0704544 0)
(2.25206 0.319636 0)
(2.26628 0.316885 0)
(2.28275 0.31481 0)
(2.30132 0.315052 0)
(2.31947 0.316492 0)
(2.33365 0.316542 0)
(2.34575 0.315145 0)
(2.35662 0.312254 0)
(2.36488 0.303578 0)
(2.36238 0.282901 0)
(2.34943 0.254136 0)
(2.34274 0.230956 0)
(2.35108 0.224358 0)
(2.36352 0.223504 0)
(2.37792 0.220118 0)
(2.39065 0.217287 0)
(2.40261 0.215096 0)
(2.41355 0.21245 0)
(2.42255 0.207958 0)
(2.42539 0.197314 0)
(2.41717 0.17871 0)
(2.41956 0.165707 0)
(2.4304 0.160878 0)
(2.44225 0.153992 0)
(2.45292 0.147782 0)
(2.46402 0.14303 0)
(2.4743 0.137629 0)
(2.48258 0.130327 0)
(2.48864 0.121188 0)
(2.49002 0.109468 0)
(2.48463 0.0936065 0)
(2.48642 0.0846059 0)
(2.49454 0.0848153 0)
(2.50445 0.0842942 0)
(2.51567 0.0815041 0)
(2.52548 0.0772663 0)
(2.53541 0.0711744 0)
(2.54422 0.0646838 0)
(2.55144 0.0575547 0)
(2.55454 0.0468702 0)
(2.54927 0.0289985 0)
(2.53899 0.00855877 0)
(2.54021 -0.000464006 0)
(2.54661 -0.000215345 0)
(2.55593 -9.32817e-05 0)
(2.56901 -0.000990415 0)
(2.57936 -0.00442226 0)
(2.58659 -0.00888583 0)
(2.59464 -0.0133486 0)
(2.60146 -0.01768 0)
(2.6059 -0.0238551 0)
(2.60445 -0.0353235 0)
(2.59561 -0.0517078 0)
(2.59297 -0.0618672 0)
(2.59842 -0.0623294 0)
(2.60609 -0.0615097 0)
(2.61696 -0.0609525 0)
(2.62504 -0.0620523 0)
(2.63385 -0.0641574 0)
(2.64168 -0.0666889 0)
(2.64746 -0.0710314 0)
(2.64852 -0.0806822 0)
(2.63896 -0.099432 0)
(2.6256 -0.12005 0)
(2.62562 -0.128855 0)
(2.63101 -0.13011 0)
(2.63867 -0.132137 0)
(2.65235 -0.132383 0)
(2.66772 -0.130374 0)
(2.67723 -0.130533 0)
(2.68294 -0.132001 0)
(2.6895 -0.133676 0)
(2.69539 -0.135624 0)
(2.70042 -0.139083 0)
(2.70309 -0.146306 0)
(2.69701 -0.1619 0)
(2.68272 -0.182964 0)
(2.67673 -0.196958 0)
(2.68178 -0.199117 0)
(2.68758 -0.199698 0)
(2.69499 -0.200509 0)
(2.70316 -0.200827 0)
(2.71197 -0.200491 0)
(2.72006 -0.200044 0)
(2.72739 -0.200025 0)
(2.73365 -0.20068 0)
(2.73903 -0.201944 0)
(2.74407 -0.205397 0)
(2.74651 -0.213407 0)
(2.74322 -0.226899 0)
(2.73621 -0.241144 0)
(2.73683 -0.247565 0)
(2.74105 -0.247814 0)
(2.74708 -0.247039 0)
(2.75399 -0.245856 0)
(2.7584 -0.246147 0)
(2.76385 -0.247107 0)
(2.76863 -0.248085 0)
(2.77331 -0.249317 0)
(2.7776 -0.251416 0)
(2.77917 -0.256604 0)
(2.77497 -0.268686 0)
(2.76385 -0.285962 0)
(2.76348 -0.295375 0)
(2.76941 -0.296997 0)
(2.77641 -0.298844 0)
(2.78363 -0.299583 0)
(2.79023 -0.29847 0)
(2.79545 -0.297183 0)
(2.7992 -0.293529 0)
(2.80067 -0.288418 0)
(2.79745 -0.280937 0)
(2.78907 -0.267476 0)
(2.77183 -0.243997 0)
(2.72959 -0.202795 0)
(2.64838 -0.0934342 0)
(2.59141 -0.0294525 0)
(2.55403 -0.00923744 0)
(2.53069 0.0325187 0)
(2.53591 0.0594345 0)
(2.54582 0.0683277 0)
(2.55352 0.0657592 0)
(2.55828 0.0621392 0)
(2.56528 0.0547633 0)
(2.56752 0.0473064 0)
(2.56175 0.0409146 0)
(2.54891 0.0329532 0)
(2.54046 0.0279491 0)
(2.54104 0.0279871 0)
(2.54345 0.0300927 0)
(2.55021 0.0370473 0)
(2.56094 0.0491144 0)
(2.57032 0.0579974 0)
(2.57309 0.0591761 0)
(2.57373 0.0571051 0)
(2.57169 0.0515926 0)
(2.56613 0.0440845 0)
(2.55976 0.0360112 0)
(2.55889 0.0329416 0)
(2.56373 0.033256 0)
(2.56905 0.034207 0)
(2.57491 0.0366195 0)
(2.58558 0.0426759 0)
(2.59651 0.0506203 0)
(2.6018 0.053339 0)
(2.60351 0.0531098 0)
(2.60436 0.0514659 0)
(2.60064 0.0468958 0)
(2.58975 0.0396998 0)
(2.58045 0.0343214 0)
(2.58116 0.0344191 0)
(2.58353 0.0348729 0)
(2.58581 0.0351124 0)
(2.58948 0.0349551 0)
(2.5929 0.0340672 0)
(2.59529 0.0333846 0)
(2.59851 0.0321789 0)
(2.60063 0.0306668 0)
(2.59839 0.0272922 0)
(2.5919 0.0234868 0)
(2.58974 0.02329 0)
(2.59325 0.0248613 0)
(2.59715 0.0259497 0)
(2.6005 0.0269589 0)
(2.60409 0.0284626 0)
(2.60982 0.0322908 0)
(2.61638 0.0384625 0)
(2.62092 0.0436391 0)
(2.62238 0.0464154 0)
(2.62422 0.0489974 0)
(2.62559 0.0508695 0)
(2.62414 0.0499178 0)
(2.61785 0.0443164 0)
(2.61162 0.0382537 0)
(2.61123 0.0359688 0)
(2.61283 0.03594 0)
(2.61563 0.0361565 0)
(2.61748 0.0362909 0)
(2.61895 0.0357935 0)
(2.61555 0.0322221 0)
(2.60611 0.0266802 0)
(2.60067 0.0266048 0)
(2.60208 0.0296288 0)
(2.606 0.0320145 0)
(2.61112 0.0336762 0)
(2.61674 0.0353172 0)
(2.6225 0.0378904 0)
(2.62854 0.0412166 0)
(2.63443 0.0446225 0)
(2.6396 0.047843 0)
(2.6438 0.0502762 0)
(2.64502 0.0504718 0)
(2.63866 0.0448644 0)
(2.62659 0.0351911 0)
(2.62211 0.029293 0)
(2.62595 0.0293497 0)
(2.6311 0.0311816 0)
(2.63681 0.0343454 0)
(2.64361 0.0375437 0)
(2.65121 0.0412779 0)
(2.6593 0.0462703 0)
(2.66771 0.0516308 0)
(2.67679 0.0580737 0)
(2.68589 0.0659879 0)
(2.69423 0.0740775 0)
(2.69958 0.0793762 0)
(2.69718 0.078138 0)
(2.68574 0.0697228 0)
(2.67921 0.0607799 0)
(2.68297 0.0588397 0)
(2.68821 0.0588296 0)
(2.69375 0.0592631 0)
(2.69879 0.0606186 0)
(2.70344 0.0628025 0)
(2.70782 0.0643976 0)
(2.71235 0.0662161 0)
(2.72132 0.0708039 0)
(2.73149 0.0775392 0)
(2.73567 0.0800077 0)
(2.73881 0.0812683 0)
(2.74153 0.0825556 0)
(2.74281 0.0825345 0)
(2.7417 0.0805349 0)
(2.73882 0.0764771 0)
(2.73846 0.0734866 0)
(2.7408 0.0725182 0)
(2.74335 0.072115 0)
(2.74594 0.0720085 0)
(2.74846 0.0722251 0)
(2.75088 0.0727719 0)
(2.7546 0.0740242 0)
(2.76125 0.0766598 0)
(2.77035 0.0810667 0)
(2.77838 0.0843554 0)
(2.78219 0.0847648 0)
(2.78345 0.0843276 0)
(2.78475 0.0830604 0)
(2.7851 0.0805182 0)
(2.78416 0.0761359 0)
(2.78421 0.0729625 0)
(2.78524 0.0722562 0)
(2.78659 0.0714667 0)
(2.78786 0.0706474 0)
(2.78889 0.0699356 0)
(2.78976 0.0688866 0)
(2.79063 0.0673264 0)
(2.79175 0.0657373 0)
(2.7932 0.0644342 0)
(2.79645 0.0635303 0)
(2.80345 0.0641397 0)
(2.81545 0.0673393 0)
(2.82675 0.0709411 0)
(2.83041 0.0718954 0)
(2.83211 0.0719934 0)
(2.8339 0.0719607 0)
(2.83542 0.0717286 0)
(2.83698 0.0713266 0)
(2.83818 0.0706096 0)
(2.2562 0.333291 0)
(2.2741 0.331909 0)
(2.29506 0.334048 0)
(2.31471 0.337452 0)
(2.32852 0.338239 0)
(2.34036 0.337342 0)
(2.35137 0.334226 0)
(2.35826 0.323628 0)
(2.35383 0.301166 0)
(2.33971 0.270558 0)
(2.33363 0.246401 0)
(2.34133 0.238895 0)
(2.35286 0.238608 0)
(2.36829 0.237465 0)
(2.38307 0.23626 0)
(2.3955 0.235086 0)
(2.40686 0.234058 0)
(2.41681 0.232025 0)
(2.42252 0.22477 0)
(2.41648 0.206642 0)
(2.41046 0.186 0)
(2.41947 0.177379 0)
(2.43024 0.171905 0)
(2.4424 0.164741 0)
(2.45367 0.157035 0)
(2.46358 0.152576 0)
(2.47358 0.148415 0)
(2.48196 0.142029 0)
(2.4862 0.133144 0)
(2.4827 0.119671 0)
(2.47954 0.105058 0)
(2.48763 0.103018 0)
(2.49637 0.101563 0)
(2.50664 0.0986867 0)
(2.51702 0.0937944 0)
(2.52658 0.0875331 0)
(2.53541 0.0807761 0)
(2.54312 0.0731549 0)
(2.548 0.0634253 0)
(2.54558 0.0494194 0)
(2.53531 0.0304761 0)
(2.53416 0.0193061 0)
(2.54077 0.0185643 0)
(2.55038 0.017841 0)
(2.56255 0.0168662 0)
(2.5723 0.0137993 0)
(2.58086 0.0085778 0)
(2.58845 0.00234051 0)
(2.59491 -0.00318198 0)
(2.59989 -0.00937357 0)
(2.60025 -0.0189968 0)
(2.59321 -0.0333467 0)
(2.59033 -0.043786 0)
(2.59579 -0.0445632 0)
(2.60288 -0.0441709 0)
(2.61289 -0.0444552 0)
(2.62106 -0.0459703 0)
(2.62967 -0.0481358 0)
(2.63756 -0.050655 0)
(2.64396 -0.0546104 0)
(2.64595 -0.0630675 0)
(2.63787 -0.0807047 0)
(2.62298 -0.101947 0)
(2.62063 -0.112905 0)
(2.6259 -0.114185 0)
(2.6327 -0.116026 0)
(2.64424 -0.116721 0)
(2.65964 -0.114558 0)
(2.672 -0.11376 0)
(2.67757 -0.115375 0)
(2.68444 -0.117284 0)
(2.69052 -0.119269 0)
(2.69588 -0.122438 0)
(2.69886 -0.129126 0)
(2.69373 -0.144109 0)
(2.68005 -0.165326 0)
(2.67327 -0.180108 0)
(2.67838 -0.182597 0)
(2.68419 -0.182732 0)
(2.69156 -0.183017 0)
(2.69987 -0.182824 0)
(2.70895 -0.182114 0)
(2.71662 -0.181807 0)
(2.72304 -0.182438 0)
(2.72948 -0.183649 0)
(2.73486 -0.185721 0)
(2.73979 -0.190747 0)
(2.74046 -0.201427 0)
(2.73681 -0.215968 0)
(2.73125 -0.229741 0)
(2.73307 -0.235358 0)
(2.73728 -0.235607 0)
(2.74431 -0.234964 0)
(2.75306 -0.232896 0)
(2.75713 -0.232338 0)
(2.76234 -0.232949 0)
(2.7673 -0.233633 0)
(2.77194 -0.234342 0)
(2.77623 -0.23577 0)
(2.77794 -0.240072 0)
(2.77408 -0.250976 0)
(2.76208 -0.267872 0)
(2.75853 -0.277978 0)
(2.76453 -0.279432 0)
(2.77019 -0.2801 0)
(2.77693 -0.282521 0)
(2.78523 -0.284528 0)
(2.79386 -0.286645 0)
(2.80011 -0.287811 0)
(2.80631 -0.28788 0)
(2.80728 -0.287928 0)
(2.80605 -0.288581 0)
(2.79852 -0.288242 0)
(2.79364 -0.283952 0)
(2.77972 -0.271559 0)
(2.73799 -0.220402 0)
(2.67395 -0.122797 0)
(2.61855 -0.0701762 0)
(2.56441 0.0160783 0)
(2.55246 0.0646245 0)
(2.55541 0.0707289 0)
(2.55822 0.0653827 0)
(2.56069 0.0575732 0)
(2.56486 0.0493779 0)
(2.56271 0.0401957 0)
(2.55267 0.0309847 0)
(2.5447 0.0279769 0)
(2.54556 0.0300384 0)
(2.54755 0.0325164 0)
(2.55344 0.0388562 0)
(2.56393 0.0508764 0)
(2.57394 0.0607155 0)
(2.57677 0.0621673 0)
(2.5781 0.0600642 0)
(2.5762 0.0540448 0)
(2.57048 0.0452939 0)
(2.56332 0.0350746 0)
(2.56137 0.0309476 0)
(2.56451 0.0318902 0)
(2.56938 0.0335484 0)
(2.5747 0.0361711 0)
(2.58486 0.041708 0)
(2.59709 0.0503275 0)
(2.60415 0.0546421 0)
(2.60698 0.0552148 0)
(2.60949 0.0547672 0)
(2.60797 0.0513237 0)
(2.59931 0.043553 0)
(2.58682 0.0338959 0)
(2.58385 0.030904 0)
(2.58609 0.0314369 0)
(2.58829 0.0326044 0)
(2.59164 0.034005 0)
(2.59656 0.0350873 0)
(2.59932 0.0347447 0)
(2.60142 0.0337187 0)
(2.60363 0.0316906 0)
(2.60319 0.0281713 0)
(2.59793 0.0233289 0)
(2.59344 0.0211791 0)
(2.59512 0.0225672 0)
(2.5993 0.0246523 0)
(2.60364 0.0269566 0)
(2.60774 0.0292455 0)
(2.61399 0.0332813 0)
(2.62111 0.0398051 0)
(2.62645 0.0450937 0)
(2.62814 0.0469868 0)
(2.6298 0.0483575 0)
(2.63117 0.0498336 0)
(2.63032 0.0500421 0)
(2.62486 0.0467075 0)
(2.61826 0.0420683 0)
(2.61761 0.0403589 0)
(2.61934 0.0405942 0)
(2.62176 0.0408647 0)
(2.62369 0.0405587 0)
(2.62482 0.0392889 0)
(2.62197 0.0348891 0)
(2.61345 0.0283741 0)
(2.60687 0.0249804 0)
(2.60626 0.0262266 0)
(2.6083 0.0287524 0)
(2.61203 0.0311135 0)
(2.61714 0.0322488 0)
(2.62245 0.0340925 0)
(2.62796 0.0383754 0)
(2.63366 0.0434909 0)
(2.63891 0.0477333 0)
(2.64344 0.0506683 0)
(2.64537 0.0513165 0)
(2.63942 0.0458022 0)
(2.62774 0.0365 0)
(2.62232 0.0308536 0)
(2.62573 0.0304821 0)
(2.63039 0.0317851 0)
(2.63527 0.0348951 0)
(2.64044 0.0380382 0)
(2.64643 0.0409655 0)
(2.65277 0.044406 0)
(2.65953 0.0485784 0)
(2.66699 0.053985 0)
(2.67479 0.0606587 0)
(2.68314 0.0680447 0)
(2.69109 0.0744793 0)
(2.69502 0.0767562 0)
(2.68776 0.0711135 0)
(2.67616 0.0592711 0)
(2.67714 0.0536356 0)
(2.68297 0.0527956 0)
(2.68898 0.0529099 0)
(2.69492 0.0536094 0)
(2.70006 0.0558136 0)
(2.7051 0.0594047 0)
(2.71012 0.0628176 0)
(2.71764 0.0676885 0)
(2.72858 0.0754065 0)
(2.73483 0.0790864 0)
(2.73791 0.0798217 0)
(2.74104 0.0809451 0)
(2.74261 0.0816566 0)
(2.74163 0.0808059 0)
(2.73794 0.0772893 0)
(2.73594 0.0734233 0)
(2.7377 0.0717011 0)
(2.74004 0.0710651 0)
(2.74262 0.0709001 0)
(2.74544 0.0709698 0)
(2.74848 0.0714174 0)
(2.75183 0.0725252 0)
(2.75775 0.0748649 0)
(2.76666 0.0798107 0)
(2.77556 0.0849231 0)
(2.78022 0.0862312 0)
(2.78191 0.0858697 0)
(2.78379 0.0846145 0)
(2.78481 0.0827703 0)
(2.78392 0.07938 0)
(2.78316 0.0757282 0)
(2.78442 0.0744718 0)
(2.78577 0.073547 0)
(2.78707 0.0722346 0)
(2.78808 0.0706605 0)
(2.78888 0.0687394 0)
(2.78951 0.0664953 0)
(2.79031 0.0644669 0)
(2.79132 0.0631551 0)
(2.79308 0.062356 0)
(2.79742 0.0626274 0)
(2.80699 0.0651848 0)
(2.82115 0.0699406 0)
(2.82979 0.0725349 0)
(2.83162 0.0727914 0)
(2.83342 0.0726583 0)
(2.83494 0.0724201 0)
(2.83625 0.0721676 0)
(2.83739 0.0716454 0)
(2.8375 0.0701561 0)
(2.26539 0.350217 0)
(2.28857 0.353839 0)
(2.31031 0.358579 0)
(2.32401 0.359385 0)
(2.33567 0.358454 0)
(2.34673 0.354692 0)
(2.35193 0.342351 0)
(2.34501 0.318391 0)
(2.32931 0.285716 0)
(2.32423 0.26164 0)
(2.33255 0.254415 0)
(2.34367 0.254292 0)
(2.35979 0.254156 0)
(2.37574 0.254871 0)
(2.38928 0.254974 0)
(2.40126 0.254619 0)
(2.41199 0.253236 0)
(2.41959 0.246608 0)
(2.4146 0.228586 0)
(2.40345 0.205228 0)
(2.40861 0.193164 0)
(2.41945 0.188452 0)
(2.43139 0.182612 0)
(2.44357 0.17599 0)
(2.45418 0.17017 0)
(2.46389 0.165003 0)
(2.47288 0.161125 0)
(2.48078 0.157049 0)
(2.48371 0.14803 0)
(2.47779 0.132254 0)
(2.47793 0.120883 0)
(2.48698 0.116676 0)
(2.49655 0.112888 0)
(2.5066 0.108299 0)
(2.51654 0.102861 0)
(2.52612 0.0962235 0)
(2.53458 0.0888683 0)
(2.54106 0.0809157 0)
(2.54231 0.0700607 0)
(2.53342 0.0532159 0)
(2.52796 0.0395961 0)
(2.53486 0.038019 0)
(2.54333 0.036005 0)
(2.55427 0.0326084 0)
(2.5643 0.0291951 0)
(2.57364 0.025059 0)
(2.58188 0.0194117 0)
(2.58867 0.0128383 0)
(2.59407 0.00589329 0)
(2.59634 -0.00239574 0)
(2.59157 -0.0145859 0)
(2.58772 -0.0255799 0)
(2.59323 -0.0268391 0)
(2.59977 -0.0266292 0)
(2.60893 -0.0276545 0)
(2.6171 -0.0298393 0)
(2.62532 -0.032468 0)
(2.63314 -0.0353643 0)
(2.63987 -0.0392601 0)
(2.6429 -0.0466963 0)
(2.63718 -0.0622769 0)
(2.62201 -0.0836022 0)
(2.61642 -0.0968386 0)
(2.62154 -0.0985589 0)
(2.62778 -0.0999448 0)
(2.63728 -0.100959 0)
(2.65178 -0.0993443 0)
(2.66597 -0.097536 0)
(2.67242 -0.0989047 0)
(2.67928 -0.101068 0)
(2.68549 -0.103357 0)
(2.69105 -0.106347 0)
(2.69435 -0.112505 0)
(2.69035 -0.126415 0)
(2.67716 -0.146995 0)
(2.66917 -0.161975 0)
(2.67391 -0.164881 0)
(2.68008 -0.164856 0)
(2.68789 -0.165059 0)
(2.69682 -0.164804 0)
(2.70671 -0.163866 0)
(2.71353 -0.163689 0)
(2.71901 -0.164747 0)
(2.72525 -0.16624 0)
(2.73073 -0.169395 0)
(2.73482 -0.176349 0)
(2.73323 -0.189426 0)
(2.72877 -0.205226 0)
(2.72527 -0.218272 0)
(2.72852 -0.222748 0)
(2.73285 -0.222873 0)
(2.74095 -0.222216 0)
(2.75121 -0.219335 0)
(2.75657 -0.217913 0)
(2.76102 -0.218393 0)
(2.76612 -0.218946 0)
(2.77065 -0.219419 0)
(2.77505 -0.220446 0)
(2.77721 -0.224222 0)
(2.77393 -0.234638 0)
(2.76223 -0.251695 0)
(2.75478 -0.263635 0)
(2.75964 -0.265298 0)
(2.76493 -0.265141 0)
(2.77226 -0.264976 0)
(2.77872 -0.266462 0)
(2.78614 -0.268626 0)
(2.79429 -0.271145 0)
(2.80111 -0.27376 0)
(2.80651 -0.276465 0)
(2.80954 -0.280592 0)
(2.80732 -0.287103 0)
(2.80058 -0.292805 0)
(2.79881 -0.291675 0)
(2.79718 -0.289771 0)
(2.78909 -0.27649 0)
(2.75951 -0.22386 0)
(2.71053 -0.157302 0)
(2.62757 -0.0322987 0)
(2.59125 0.0523049 0)
(2.57086 0.0593607 0)
(2.56653 0.0548245 0)
(2.56444 0.0479418 0)
(2.56179 0.0426551 0)
(2.55403 0.034096 0)
(2.54636 0.0265992 0)
(2.54895 0.0269118 0)
(2.55292 0.0320728 0)
(2.55956 0.0401814 0)
(2.56833 0.0504632 0)
(2.57569 0.0582453 0)
(2.57845 0.0599708 0)
(2.58082 0.0600407 0)
(2.58029 0.0564104 0)
(2.57615 0.048515 0)
(2.56849 0.0365417 0)
(2.56537 0.0303849 0)
(2.5678 0.0303 0)
(2.5714 0.0321619 0)
(2.57607 0.0361114 0)
(2.58518 0.0421862 0)
(2.59672 0.0498617 0)
(2.60464 0.0538992 0)
(2.60836 0.0544855 0)
(2.61246 0.0549393 0)
(2.61313 0.0535166 0)
(2.60748 0.0479514 0)
(2.59537 0.037578 0)
(2.58785 0.0308586 0)
(2.58919 0.0304552 0)
(2.59119 0.0314221 0)
(2.59438 0.0336044 0)
(2.5996 0.0363205 0)
(2.60359 0.0369772 0)
(2.60537 0.0363396 0)
(2.60735 0.0342748 0)
(2.60725 0.0301099 0)
(2.60308 0.024083 0)
(2.59842 0.0208306 0)
(2.59846 0.0217453 0)
(2.60147 0.0237537 0)
(2.60539 0.0262213 0)
(2.61001 0.029311 0)
(2.6169 0.0337958 0)
(2.62544 0.0409684 0)
(2.63181 0.0467315 0)
(2.63389 0.0484197 0)
(2.6357 0.0494285 0)
(2.63701 0.0504254 0)
(2.6364 0.0506141 0)
(2.63163 0.0482018 0)
(2.62399 0.0447822 0)
(2.6225 0.0439552 0)
(2.62484 0.0442945 0)
(2.62753 0.0447437 0)
(2.63008 0.0445663 0)
(2.63165 0.0429924 0)
(2.62938 0.0382563 0)
(2.62125 0.0311227 0)
(2.61275 0.0251566 0)
(2.6109 0.0244192 0)
(2.61211 0.0257904 0)
(2.61465 0.0276202 0)
(2.61857 0.0297109 0)
(2.62338 0.0326418 0)
(2.63135 0.0380474 0)
(2.63829 0.044603 0)
(2.64166 0.0483109 0)
(2.64582 0.0512835 0)
(2.64748 0.0518541 0)
(2.64157 0.0465622 0)
(2.63015 0.0374247 0)
(2.62459 0.0319809 0)
(2.62781 0.032193 0)
(2.63204 0.0339336 0)
(2.63694 0.0366327 0)
(2.64235 0.0397342 0)
(2.64704 0.0426898 0)
(2.65213 0.0458812 0)
(2.65735 0.049939 0)
(2.66279 0.0549065 0)
(2.66805 0.0600564 0)
(2.67365 0.0646569 0)
(2.679 0.0678996 0)
(2.68173 0.0672998 0)
(2.67911 0.0621653 0)
(2.67233 0.0551699 0)
(2.66999 0.0502164 0)
(2.6776 0.0484951 0)
(2.68429 0.0480419 0)
(2.69078 0.0481081 0)
(2.69655 0.049176 0)
(2.7018 0.0522293 0)
(2.70769 0.0572673 0)
(2.71465 0.0644791 0)
(2.72579 0.0740887 0)
(2.7333 0.0793208 0)
(2.73736 0.0801 0)
(2.74158 0.0814042 0)
(2.74368 0.0821371 0)
(2.74227 0.0803354 0)
(2.73825 0.0763183 0)
(2.73501 0.0730557 0)
(2.73562 0.0723023 0)
(2.73783 0.0717724 0)
(2.74013 0.0711068 0)
(2.7427 0.0702648 0)
(2.74565 0.070155 0)
(2.74892 0.0709098 0)
(2.75402 0.0729577 0)
(2.7625 0.0787153 0)
(2.77247 0.084749 0)
(2.7782 0.0866831 0)
(2.78028 0.0866387 0)
(2.78245 0.0857171 0)
(2.78393 0.084449 0)
(2.78395 0.0821218 0)
(2.78219 0.0783003 0)
(2.78269 0.0753788 0)
(2.7845 0.0739347 0)
(2.78609 0.0723911 0)
(2.7874 0.0703282 0)
(2.78828 0.0678922 0)
(2.78892 0.0654709 0)
(2.78971 0.0636464 0)
(2.79055 0.0625948 0)
(2.79186 0.0619788 0)
(2.79454 0.0620848 0)
(2.80096 0.063806 0)
(2.81341 0.0680681 0)
(2.8269 0.0725097 0)
(2.83219 0.0736273 0)
(2.83348 0.0735766 0)
(2.83498 0.0732338 0)
(2.83634 0.0727793 0)
(2.83753 0.0720903 0)
(2.83803 0.0707247 0)
(2.83604 0.0672816 0)
(2.28109 0.374717 0)
(2.30508 0.380365 0)
(2.31913 0.380662 0)
(2.33081 0.378832 0)
(2.34174 0.373509 0)
(2.3455 0.359451 0)
(2.33676 0.334548 0)
(2.31958 0.30045 0)
(2.3147 0.276503 0)
(2.32322 0.269753 0)
(2.33415 0.269908 0)
(2.35187 0.271119 0)
(2.37072 0.273837 0)
(2.38315 0.27433 0)
(2.39577 0.274395 0)
(2.40692 0.273446 0)
(2.41503 0.266441 0)
(2.41074 0.247303 0)
(2.39799 0.221969 0)
(2.39825 0.207077 0)
(2.40903 0.203779 0)
(2.42072 0.19936 0)
(2.4343 0.194321 0)
(2.44663 0.189175 0)
(2.45674 0.18515 0)
(2.46562 0.181868 0)
(2.47347 0.17866 0)
(2.47879 0.173986 0)
(2.47728 0.162697 0)
(2.47112 0.143482 0)
(2.47667 0.132276 0)
(2.48545 0.127074 0)
(2.49531 0.122216 0)
(2.50553 0.116654 0)
(2.51547 0.110625 0)
(2.52482 0.104436 0)
(2.53319 0.0975443 0)
(2.53888 0.0891338 0)
(2.53697 0.0777634 0)
(2.52521 0.0625102 0)
(2.52751 0.0548638 0)
(2.53585 0.0526048 0)
(2.54539 0.0486894 0)
(2.55547 0.0433188 0)
(2.56456 0.0387332 0)
(2.57349 0.0346549 0)
(2.58163 0.029486 0)
(2.58815 0.0229379 0)
(2.5924 0.015399 0)
(2.59148 0.00545578 0)
(2.58597 -0.00596282 0)
(2.59012 -0.00902397 0)
(2.59642 -0.00913009 0)
(2.60426 -0.0106395 0)
(2.61255 -0.0134337 0)
(2.62055 -0.0167381 0)
(2.62826 -0.0202242 0)