/*--------------------------------*- C++ -*----------------------------------*\
  =========                 |
  \\      /  F ield         | OpenFOAM: The Open Source CFD Toolbox
   \\    /   O peration     | Website:  https://openfoam.org
    \\  /    A nd           | Version:  7
     \\/     M anipulation  |
\*---------------------------------------------------------------------------*/
FoamFile
{
    version     2.0;
    format      ascii;
    class       volScalarField;
    location    "1.1";
    object      T;
}
// * * * * * * * * * * * * * * * * * * * * * * * * * * * * * * * * * * * * * //

dimensions      [0 0 0 1 0 0 0];

internalField   nonuniform List<scalar> 
16192
(
1.31794
1.31803
1.31828
1.31902
1.32044
1.32243
1.3252
1.32851
1.33193
1.33483
1.33689
1.33839
1.33886
1.33875
1.33898
1.34004
1.34116
1.34132
1.34073
1.33978
1.33941
1.33901
1.33851
1.33841
1.33814
1.33666
1.33471
1.33249
1.32846
1.32267
1.31947
1.31863
1.31793
1.31706
1.31632
1.31624
1.31663
1.31775
1.31861
1.31865
1.31816
1.3169
1.31539
1.31356
1.31083
1.3083
1.30751
1.30694
1.30632
1.30588
1.30562
1.30561
1.30563
1.30561
1.30542
1.30493
1.30397
1.3025
1.30154
1.30152
1.3017
1.30214
1.30286
1.30392
1.30533
1.30583
1.30559
1.30529
1.30491
1.3039
1.30316
1.30491
1.31357
1.33636
1.38046
1.44041
1.50025
1.55203
1.59831
1.62176
1.63705
1.65262
1.65936
1.65854
1.6489
1.63428
1.62874
1.62598
1.62196
1.61623
1.61215
1.61237
1.6141
1.61768
1.62038
1.62203
1.62415
1.6277
1.62981
1.62937
1.62637
1.62157
1.61608
1.61043
1.60475
1.59933
1.5952
1.59386
1.59391
1.59427
1.59438
1.59411
1.59302
1.5911
1.58836
1.5846
1.58014
1.57563
1.57207
1.56939
1.56712
1.56517
1.56373
1.56357
1.56481
1.56934
1.57297
1.57295
1.57117
1.5692
1.56686
1.56301
1.55911
1.55754
1.55685
1.55592
1.5546
1.55324
1.55185
1.5498
1.54758
1.5467
1.54588
1.54526
1.54491
1.54406
1.54253
1.53994
1.53576
1.53171
1.52948
1.52757
1.52503
1.52132
1.51629
1.51399
1.51407
1.51526
1.51792
1.52074
1.52334
1.52644
1.52923
1.53001
1.52978
1.52869
1.52728
1.52528
1.52248
1.51921
1.51444
1.50695
1.49963
1.49451
1.49314
1.49314
1.49364
1.49497
1.49671
1.49855
1.49935
1.49989
1.5
1.4988
1.49435
1.48892
1.48409
1.47853
1.4731
1.46899
1.46695
1.4666
1.46742
1.47253
1.48176
1.48716
1.48876
1.48945
1.48918
1.48586
1.47548
1.46171
1.45355
1.4468
1.43996
1.43494
1.43312
1.43313
1.43483
1.44278
1.45914
1.46943
1.47147
1.47156
1.4701
1.46408
1.45209
1.43821
1.42674
1.42059
1.4185
1.4179
1.41788
1.41925
1.42339
1.42955
1.43408
1.43497
1.4343
1.43125
1.4256
1.42041
1.41557
1.4115
1.40889
1.408
1.40818
1.40899
1.40935
1.4086
1.40533
1.40033
1.39719
1.39636
1.39618
1.39596
1.39594
1.39683
1.40093
1.40986
1.41599
1.41632
1.41314
1.316
1.31605
1.31642
1.31731
1.31892
1.32192
1.32585
1.33021
1.33446
1.33693
1.33739
1.3375
1.33727
1.33662
1.3366
1.33681
1.3367
1.33628
1.33665
1.33764
1.33775
1.33763
1.33753
1.33748
1.33684
1.33466
1.33199
1.32928
1.32481
1.31909
1.3173
1.31678
1.31616
1.31523
1.31446
1.31449
1.31496
1.31528
1.31512
1.31467
1.314
1.3129
1.31137
1.30901
1.30619
1.30512
1.30464
1.3042
1.30392
1.30351
1.3029
1.30268
1.30256
1.30234
1.30193
1.30125
1.30028
1.29955
1.29958
1.29997
1.3006
1.30143
1.30239
1.30332
1.30379
1.30378
1.30375
1.30388
1.30552
1.31157
1.32861
1.36069
1.40968
1.47033
1.52537
1.57278
1.61635
1.6404
1.64386
1.64592
1.65278
1.65854
1.6577
1.65146
1.6384
1.62879
1.6233
1.61779
1.612
1.60794
1.60733
1.60817
1.61079
1.61458
1.61725
1.61928
1.62205
1.62434
1.62431
1.62224
1.61876
1.61404
1.60809
1.60138
1.59492
1.58947
1.5865
1.58603
1.58625
1.587
1.58741
1.5872
1.58585
1.58322
1.58007
1.57668
1.57313
1.56956
1.56642
1.56416
1.56245
1.56124
1.56121
1.56237
1.56593
1.56795
1.56712
1.56515
1.5632
1.56066
1.55721
1.55382
1.55228
1.55162
1.55087
1.54969
1.54799
1.54613
1.54387
1.54063
1.53791
1.53698
1.53607
1.53536
1.53541
1.53595
1.5365
1.53648
1.53535
1.53147
1.52636
1.52268
1.51975
1.51582
1.51031
1.50776
1.50792
1.50968
1.5125
1.51498
1.51743
1.52042
1.5229
1.52344
1.52306
1.52162
1.51987
1.51765
1.5146
1.51133
1.50767
1.50147
1.49509
1.49073
1.48858
1.48838
1.48908
1.49133
1.49455
1.49583
1.49585
1.49628
1.49624
1.49489
1.49082
1.48408
1.47798
1.4722
1.46709
1.46356
1.46198
1.46177
1.4622
1.46491
1.47215
1.48067
1.48426
1.48462
1.48449
1.4826
1.4756
1.46135
1.44737
1.43986
1.43543
1.43247
1.4315
1.43182
1.43487
1.44275
1.45373
1.46404
1.46784
1.46789
1.46628
1.45981
1.44651
1.43008
1.41862
1.41416
1.41355
1.41356
1.41399
1.41641
1.42334
1.43208
1.43456
1.43406
1.43201
1.42738
1.41999
1.41353
1.40791
1.40321
1.4014
1.40161
1.40375
1.40634
1.40675
1.40636
1.40361
1.39741
1.39306
1.39242
1.39205
1.39143
1.39095
1.39097
1.39211
1.39586
1.40291
1.40657
1.40462
1.315
1.31505
1.31549
1.31711
1.32011
1.32398
1.32832
1.33241
1.33502
1.33582
1.33587
1.33561
1.33458
1.33321
1.33194
1.33126
1.33146
1.333
1.3348
1.33563
1.336
1.33618
1.33616
1.33555
1.33361
1.33098
1.32837
1.32566
1.32195
1.31773
1.31596
1.31536
1.31478
1.3139
1.31302
1.31275
1.31253
1.31188
1.31089
1.31041
1.30998
1.30901
1.30705
1.30441
1.30309
1.3026
1.30209
1.30163
1.30165
1.30154
1.30057
1.2999
1.29963
1.29938
1.29889
1.29794
1.29715
1.29711
1.29756
1.29856
1.29982
1.30101
1.30202
1.30267
1.3032
1.30456
1.3096
1.32316
1.3534
1.40061
1.45794
1.51271
1.55809
1.58055
1.60413
1.63186
1.64838
1.64909
1.64786
1.65068
1.65273
1.65237
1.64805
1.6384
1.62914
1.62233
1.61518
1.60878
1.60467
1.60387
1.6043
1.60592
1.60917
1.61214
1.61407
1.61612
1.61779
1.61744
1.61613
1.61387
1.61024
1.60516
1.5987
1.59181
1.58574
1.5813
1.57944
1.57934
1.57965
1.58037
1.58056
1.58018
1.57834
1.57485
1.57112
1.568
1.56524
1.5629
1.56101
1.5593
1.55841
1.55845
1.55975
1.56235
1.56305
1.56175
1.55969
1.55745
1.55435
1.55041
1.54766
1.54649
1.54586
1.54522
1.54443
1.54331
1.54132
1.53845
1.53513
1.53176
1.52891
1.52759
1.52665
1.52606
1.52626
1.52748
1.52979
1.53077
1.53074
1.52984
1.52587
1.51964
1.51471
1.51031
1.50516
1.5028
1.50292
1.50396
1.5059
1.5077
1.5099
1.51269
1.51514
1.51563
1.51507
1.51377
1.51222
1.50984
1.50661
1.50315
1.49966
1.49514
1.49012
1.48755
1.48619
1.4857
1.48632
1.48872
1.49066
1.49093
1.49116
1.49108
1.49044
1.48895
1.48518
1.47858
1.47178
1.46572
1.46087
1.45824
1.45732
1.45721
1.45764
1.46004
1.46482
1.47234
1.47849
1.47984
1.47944
1.47715
1.47084
1.45935
1.44441
1.43499
1.43265
1.4319
1.43192
1.43356
1.43834
1.44486
1.4504
1.45494
1.45828
1.45905
1.45787
1.45214
1.44104
1.42761
1.41712
1.41225
1.41123
1.41122
1.41223
1.4168
1.42539
1.43027
1.43089
1.43038
1.42813
1.42281
1.4144
1.40699
1.40104
1.39654
1.39487
1.3953
1.39921
1.40297
1.40368
1.40369
1.40209
1.39615
1.3904
1.3896
1.38912
1.38821
1.3868
1.38519
1.38415
1.38406
1.38593
1.39167
1.39378
1.31486
1.3152
1.31691
1.32027
1.32386
1.32668
1.32929
1.33167
1.33316
1.33355
1.3333
1.33174
1.32947
1.32792
1.32745
1.32789
1.32914
1.33082
1.3322
1.33325
1.33391
1.33411
1.33373
1.33189
1.32924
1.32676
1.3246
1.32233
1.31972
1.31731
1.31554
1.31456
1.31383
1.31291
1.31182
1.31074
1.30932
1.3079
1.30695
1.30642
1.30582
1.30449
1.30241
1.30133
1.30092
1.30047
1.29987
1.29958
1.29971
1.29958
1.29835
1.29722
1.29687
1.29661
1.29597
1.29499
1.29466
1.2949
1.2959
1.29758
1.29956
1.3012
1.30325
1.30777
1.32041
1.34528
1.38698
1.44236
1.49408
1.54256
1.58871
1.60541
1.61145
1.62006
1.63397
1.64248
1.64173
1.64301
1.6467
1.64841
1.64668
1.64131
1.63356
1.62717
1.62157
1.61448
1.60694
1.60156
1.60078
1.60095
1.60264
1.60529
1.60709
1.60872
1.61016
1.61062
1.61034
1.60952
1.60777
1.60462
1.60023
1.59505
1.58933
1.58337
1.5781
1.5745
1.57329
1.5733
1.57348
1.57352
1.57334
1.57249
1.57014
1.5666
1.56343
1.56081
1.55864
1.55703
1.55623
1.55618
1.55661
1.55838
1.55919
1.55835
1.5564
1.5542
1.55159
1.54795
1.54362
1.5411
1.54016
1.53961
1.53926
1.53911
1.53856
1.53707
1.53446
1.53077
1.52658
1.52283
1.51997
1.51842
1.51804
1.51811
1.51907
1.5215
1.5244
1.52643
1.52729
1.5272
1.52514
1.51901
1.51047
1.50411
1.49935
1.49656
1.4962
1.49649
1.49792
1.4997
1.50167
1.50393
1.50608
1.50653
1.50632
1.50573
1.50447
1.50204
1.49868
1.49529
1.49217
1.48939
1.487
1.48567
1.48532
1.48487
1.48452
1.485
1.4851
1.48504
1.48487
1.48424
1.48282
1.48078
1.47734
1.47186
1.46528
1.45944
1.45509
1.45308
1.45201
1.45152
1.45211
1.45532
1.46002
1.46579
1.47177
1.47449
1.47443
1.47221
1.46575
1.45548
1.44355
1.4335
1.43095
1.43102
1.43225
1.43565
1.44039
1.44472
1.44732
1.44842
1.44829
1.44781
1.44672
1.44374
1.436
1.42522
1.41679
1.41256
1.41189
1.41246
1.41484
1.41928
1.42302
1.42507
1.42565
1.42539
1.42332
1.4181
1.40981
1.40161
1.39532
1.39114
1.38955
1.39063
1.39579
1.39991
1.40106
1.40139
1.40072
1.39607
1.38832
1.38518
1.38478
1.3839
1.38219
1.37977
1.37719
1.37543
1.37527
1.37699
1.38194
1.31539
1.31758
1.32134
1.32449
1.32554
1.32643
1.32805
1.32964
1.33042
1.33027
1.32845
1.32583
1.32499
1.32499
1.32529
1.32582
1.32677
1.32827
1.32978
1.33079
1.33133
1.33125
1.3298
1.32727
1.32502
1.32303
1.32112
1.31928
1.31773
1.31662
1.31564
1.31457
1.31332
1.31182
1.30997
1.30785
1.30581
1.30417
1.3031
1.3023
1.3011
1.29985
1.29942
1.29927
1.29906
1.29865
1.29809
1.29794
1.29791
1.29747
1.29586
1.29463
1.2941
1.29361
1.29281
1.29236
1.29259
1.29343
1.29538
1.29817
1.30307
1.31344
1.33757
1.37766
1.43364
1.49458
1.54156
1.57376
1.5993
1.61652
1.61426
1.61607
1.62366
1.63428
1.6361
1.63504
1.63538
1.63938
1.64255
1.64121
1.63662
1.62932
1.62345
1.61858
1.6133
1.60583
1.59972
1.59752
1.59746
1.59899
1.6012
1.60231
1.60321
1.60393
1.604
1.60372
1.60297
1.60129
1.59824
1.59437
1.59004
1.58523
1.58036
1.57553
1.57144
1.56897
1.56762
1.5671
1.56684
1.56648
1.56564
1.56377
1.56132
1.55881
1.55666
1.55475
1.55297
1.55204
1.55221
1.55336
1.55516
1.55544
1.55432
1.55211
1.54954
1.54628
1.5417
1.53753
1.53535
1.53406
1.53307
1.53273
1.53308
1.53319
1.53231
1.53036
1.5275
1.52314
1.51835
1.5149
1.51272
1.51164
1.51145
1.51173
1.51343
1.51756
1.52202
1.52407
1.52429
1.52379
1.5214
1.5159
1.50679
1.49746
1.49264
1.49028
1.48965
1.48977
1.49069
1.492
1.49339
1.4949
1.49617
1.49693
1.49713
1.49693
1.49586
1.49365
1.4906
1.4875
1.48551
1.4855
1.4862
1.48613
1.4855
1.48472
1.48255
1.47964
1.47869
1.47855
1.47817
1.47699
1.47485
1.4718
1.46793
1.46266
1.45681
1.45205
1.44857
1.44637
1.44577
1.44604
1.44826
1.45288
1.45761
1.46216
1.46626
1.46941
1.47008
1.46853
1.4629
1.45269
1.44274
1.43491
1.43082
1.43058
1.43136
1.4336
1.43686
1.44036
1.44188
1.44163
1.44039
1.43847
1.43667
1.43474
1.43139
1.42397
1.41733
1.41561
1.4156
1.41684
1.41832
1.41928
1.42
1.41995
1.41937
1.41814
1.41649
1.41332
1.40668
1.39762
1.39019
1.38666
1.38622
1.38874
1.39389
1.39594
1.39683
1.3975
1.39747
1.39513
1.38803
1.38207
1.38065
1.37984
1.37781
1.3745
1.37055
1.36762
1.36677
1.36742
1.37362
1.31836
1.3222
1.32464
1.32473
1.32493
1.32547
1.32621
1.32685
1.32673
1.32489
1.32274
1.32264
1.32295
1.32315
1.32333
1.32363
1.32444
1.32617
1.32746
1.32797
1.32811
1.32706
1.32446
1.32231
1.32086
1.31959
1.3183
1.31707
1.31618
1.31575
1.31529
1.31421
1.31232
1.30996
1.30727
1.30452
1.30225
1.30054
1.2992
1.29764
1.29678
1.29677
1.29718
1.29742
1.29734
1.2971
1.29692
1.29659
1.29596
1.29472
1.29292
1.2918
1.29114
1.29045
1.29037
1.29061
1.29181
1.29511
1.30403
1.32391
1.36226
1.41371
1.4738
1.5322
1.57618
1.60034
1.6197
1.63047
1.62814
1.618
1.61402
1.61812
1.62707
1.62894
1.62894
1.62857
1.63114
1.63407
1.63421
1.63171
1.62686
1.6208
1.6157
1.61112
1.60581
1.5983
1.59433
1.5944
1.59515
1.59621
1.59758
1.59827
1.59825
1.59803
1.5977
1.59696
1.59508
1.59234
1.58914
1.58521
1.58073
1.57626
1.57242
1.56855
1.5655
1.56352
1.56208
1.56093
1.55999
1.55886
1.55736
1.55541
1.55373
1.55238
1.55068
1.549
1.54859
1.54889
1.55023
1.5512
1.5506
1.54868
1.54663
1.54469
1.54181
1.53714
1.53269
1.53022
1.5286
1.52705
1.526
1.52619
1.52664
1.52608
1.52462
1.52299
1.52048
1.51655
1.5124
1.50935
1.50748
1.50673
1.50669
1.50706
1.50965
1.51507
1.51878
1.51911
1.51871
1.51715
1.51386
1.5088
1.5017
1.49278
1.48634
1.48389
1.48314
1.48319
1.48365
1.48445
1.48515
1.48583
1.48659
1.4871
1.48701
1.48666
1.48588
1.48428
1.48207
1.48077
1.48091
1.4827
1.48424
1.48391
1.48317
1.48279
1.48104
1.47605
1.47252
1.47183
1.4711
1.46939
1.46641
1.46236
1.45753
1.45185
1.44684
1.44371
1.44224
1.44192
1.44213
1.44337
1.44658
1.45155
1.45635
1.46012
1.46286
1.46432
1.46463
1.46455
1.46133
1.45199
1.44197
1.43538
1.43039
1.42787
1.42768
1.4282
1.42937
1.43094
1.43331
1.43411
1.43383
1.43258
1.43044
1.42872
1.42776
1.42649
1.42296
1.41983
1.41893
1.41859
1.41808
1.41725
1.41638
1.41567
1.41471
1.41274
1.40997
1.40687
1.40221
1.39462
1.387
1.38409
1.38456
1.38723
1.38887
1.38987
1.39122
1.3926
1.39306
1.39246
1.38846
1.38079
1.37574
1.37394
1.37199
1.36842
1.3641
1.36115
1.3601
1.36083
1.36839
1.32237
1.32457
1.32444
1.32411
1.32404
1.32391
1.32377
1.3233
1.32131
1.31961
1.31971
1.32038
1.32099
1.32128
1.32145
1.32181
1.32295
1.32444
1.3248
1.32463
1.32359
1.3209
1.31852
1.31737
1.31686
1.31655
1.31623
1.31588
1.31544
1.31494
1.31425
1.31289
1.31064
1.30778
1.30449
1.3012
1.29873
1.29697
1.29514
1.29408
1.29392
1.29422
1.2952
1.29585
1.29583
1.29581
1.29557
1.29472
1.29354
1.2918
1.29016
1.28925
1.28887
1.28891
1.28992
1.29452
1.3078
1.33765
1.3898
1.4562
1.51398
1.56581
1.60701
1.61885
1.62268
1.63049
1.63633
1.63374
1.62363
1.61489
1.61414
1.61602
1.62017
1.62117
1.6216
1.62291
1.62586
1.62628
1.62545
1.62323
1.61916
1.61458
1.60982
1.6049
1.59899
1.59317
1.59076
1.59079
1.59115
1.59167
1.59228
1.59278
1.59284
1.59263
1.59166
1.58998
1.58766
1.58465
1.58102
1.57683
1.57267
1.56896
1.56504
1.56163
1.55909
1.55733
1.55595
1.55452
1.5531
1.5518
1.55019
1.54875
1.5473
1.5459
1.54513
1.54503
1.54567
1.54685
1.54665
1.54513
1.54311
1.54103
1.53851
1.53527
1.53142
1.52881
1.52706
1.52493
1.52269
1.52076
1.51984
1.51977
1.51925
1.51764
1.51626
1.51482
1.51265
1.50991
1.50741
1.50563
1.50443
1.50383
1.50375
1.50462
1.50775
1.51
1.50972
1.5086
1.50704
1.50522
1.50294
1.49927
1.49416
1.48861
1.48271
1.47838
1.47699
1.47691
1.47694
1.47699
1.47721
1.47756
1.47799
1.47805
1.47759
1.4767
1.47582
1.47481
1.47425
1.4744
1.47636
1.47911
1.47959
1.47876
1.47858
1.4787
1.47832
1.47518
1.46902
1.46528
1.46362
1.46148
1.45805
1.45281
1.44663
1.44138
1.43746
1.43564
1.43547
1.43585
1.43753
1.44098
1.44586
1.4513
1.45672
1.46004
1.4606
1.45993
1.45843
1.45689
1.45529
1.45008
1.44075
1.43365
1.4286
1.42416
1.42191
1.42166
1.42235
1.42478
1.42824
1.42966
1.42956
1.42883
1.4273
1.42575
1.42514
1.42525
1.42408
1.42026
1.41827
1.41765
1.4163
1.41411
1.41282
1.41217
1.41104
1.40854
1.40489
1.4007
1.39588
1.39022
1.38496
1.3825
1.38249
1.38273
1.38327
1.38423
1.3857
1.38728
1.38832
1.38858
1.38766
1.38316
1.37482
1.36904
1.36601
1.36292
1.35879
1.35585
1.35464
1.35524
1.3634
1.32401
1.32427
1.32395
1.32341
1.32261
1.32171
1.32042
1.31812
1.31655
1.31657
1.31724
1.3182
1.319
1.31951
1.32008
1.32079
1.32161
1.32206
1.32172
1.32009
1.31729
1.31458
1.31324
1.31274
1.31294
1.31372
1.3142
1.31425
1.31415
1.31353
1.31234
1.31071
1.30842
1.30533
1.30162
1.29801
1.29521
1.29335
1.29228
1.29176
1.29177
1.29232
1.29359
1.29432
1.29432
1.29422
1.29369
1.29233
1.2908
1.2894
1.28852
1.28889
1.2909
1.29918
1.3206
1.36225
1.41762
1.48439
1.54373
1.57939
1.61284
1.63992
1.64052
1.63454
1.63335
1.63213
1.63074
1.62618
1.61715
1.61122
1.61036
1.61066
1.61183
1.61347
1.61517
1.6174
1.61919
1.61905
1.61823
1.6164
1.61319
1.60912
1.60435
1.59891
1.59358
1.58888
1.58686
1.5866
1.58646
1.58627
1.58637
1.58702
1.58734
1.58706
1.58568
1.58357
1.58109
1.57784
1.57393
1.57016
1.56622
1.56186
1.55812
1.55492
1.55244
1.55045
1.54882
1.54764
1.54644
1.5453
1.54421
1.54276
1.54119
1.5404
1.54045
1.54159
1.54255
1.54178
1.5402
1.53815
1.53559
1.53201
1.52802
1.52519
1.52343
1.52219
1.521
1.51946
1.51745
1.51583
1.5146
1.51262
1.5102
1.50877
1.50735
1.50555
1.50393
1.5027
1.50211
1.5018
1.50166
1.5015
1.5017
1.50313
1.50398
1.50336
1.50141
1.49874
1.4958
1.49302
1.4908
1.48882
1.48564
1.48235
1.47954
1.47592
1.47282
1.47166
1.47092
1.47029
1.46986
1.46971
1.46989
1.46987
1.46905
1.46802
1.46758
1.4671
1.46699
1.46731
1.46834
1.47112
1.47346
1.47352
1.47358
1.4739
1.474
1.47309
1.46852
1.4609
1.45605
1.45316
1.44951
1.44392
1.43743
1.433
1.43065
1.4299
1.43019
1.43156
1.43467
1.43934
1.44505
1.45135
1.45576
1.45643
1.45594
1.45457
1.45219
1.44987
1.44832
1.44553
1.43824
1.43066
1.42561
1.42084
1.4169
1.41643
1.4171
1.41942
1.42285
1.4251
1.4258
1.42587
1.42565
1.42452
1.4223
1.42046
1.41928
1.41789
1.41656
1.41605
1.41564
1.41456
1.41247
1.41046
1.40848
1.40539
1.40097
1.39549
1.39002
1.38625
1.38256
1.37804
1.37623
1.37623
1.37648
1.37706
1.37827
1.3805
1.38299
1.3848
1.38537
1.38463
1.38004
1.3701
1.36262
1.35852
1.35414
1.35044
1.34991
1.35156
1.35382
1.32364
1.3236
1.32328
1.32223
1.32062
1.31861
1.31574
1.31395
1.31386
1.31417
1.31512
1.31639
1.31749
1.31879
1.31944
1.3196
1.31968
1.31934
1.31747
1.31403
1.31064
1.30889
1.30828
1.30828
1.30909
1.31081
1.31176
1.31189
1.31181
1.31122
1.30986
1.30796
1.30552
1.30236
1.29863
1.29513
1.29251
1.2908
1.29026
1.29018
1.2902
1.29077
1.29216
1.29274
1.29267
1.29239
1.29168
1.29046
1.28905
1.28979
1.29434
1.30872
1.33968
1.39347
1.45682
1.51664
1.57084
1.60549
1.61353
1.62397
1.64004
1.64268
1.64102
1.63659
1.63153
1.62636
1.62259
1.61798
1.61114
1.60573
1.60455
1.60459
1.60499
1.60642
1.60869
1.61154
1.61295
1.61267
1.61197
1.61118
1.60886
1.60437
1.59909
1.59313
1.58712
1.58296
1.58134
1.58107
1.58102
1.5809
1.58097
1.5815
1.58154
1.58094
1.57948
1.57757
1.57481
1.57122
1.56769
1.56382
1.55955
1.55569
1.55205
1.54861
1.54553
1.54351
1.5422
1.5412
1.5404
1.5393
1.53807
1.53716
1.53664
1.53671
1.53764
1.53805
1.53689
1.53489
1.53296
1.53065
1.52662
1.52142
1.51845
1.51744
1.51652
1.51521
1.51388
1.51316
1.51252
1.51126
1.50837
1.50469
1.50166
1.49992
1.49866
1.49707
1.4964
1.49652
1.49683
1.49728
1.49789
1.49878
1.49955
1.49947
1.49795
1.49527
1.49203
1.48819
1.48438
1.48129
1.47912
1.47817
1.47739
1.47567
1.47435
1.4729
1.47039
1.46793
1.46639
1.46505
1.46369
1.46253
1.46222
1.46222
1.46178
1.46062
1.45996
1.45993
1.45996
1.46006
1.46027
1.46138
1.46459
1.46751
1.4683
1.46872
1.46883
1.46839
1.4658
1.45899
1.44988
1.44444
1.44064
1.43583
1.43029
1.42665
1.42605
1.42642
1.42783
1.43077
1.43536
1.44031
1.44476
1.44864
1.45012
1.44999
1.44976
1.44856
1.4459
1.44269
1.44078
1.43947
1.43485
1.42759
1.42257
1.41898
1.41476
1.41191
1.41205
1.41403
1.41775
1.42158
1.42292
1.42292
1.42227
1.42057
1.41865
1.4169
1.41542
1.41426
1.41366
1.41374
1.41396
1.41386
1.41282
1.4103
1.40693
1.40303
1.39772
1.39077
1.38353
1.37781
1.37327
1.36943
1.36838
1.36821
1.36826
1.36858
1.36981
1.37226
1.37562
1.37951
1.38258
1.38356
1.38302
1.37883
1.36832
1.35787
1.35234
1.34831
1.34626
1.34671
1.34506
1.32297
1.3228
1.32201
1.32033
1.31788
1.31459
1.31228
1.31184
1.31185
1.31224
1.31339
1.31512
1.31722
1.31813
1.31797
1.31792
1.31753
1.31581
1.31212
1.30744
1.30422
1.30348
1.30336
1.3039
1.30577
1.30792
1.30898
1.30908
1.30898
1.30839
1.30697
1.30484
1.30229
1.29934
1.29593
1.29276
1.29047
1.28913
1.28896
1.28898
1.28902
1.28946
1.29071
1.29144
1.29148
1.29134
1.2913
1.29369
1.30345
1.3287
1.37086
1.42685
1.48942
1.53644
1.57528
1.61395
1.63364
1.6326
1.62917
1.63305
1.63803
1.63883
1.6368
1.63123
1.62471
1.61955
1.61596
1.61061
1.6039
1.60014
1.59907
1.59902
1.5994
1.60068
1.60323
1.60569
1.60662
1.607
1.60711
1.60662
1.60341
1.59774
1.59116
1.585
1.58009
1.57699
1.57571
1.5755
1.57555
1.57567
1.57599
1.57628
1.5761
1.57538
1.57437
1.57248
1.56961
1.56601
1.56145
1.55701
1.55295
1.54944
1.54623
1.54266
1.53954
1.53779
1.53657
1.5353
1.53399
1.5329
1.53218
1.53213
1.53271
1.53344
1.53315
1.5314
1.52944
1.52747
1.52478
1.52044
1.5154
1.51332
1.51265
1.51169
1.51035
1.50897
1.50813
1.50782
1.50726
1.50481
1.50089
1.49711
1.49396
1.49204
1.4912
1.49084
1.49092
1.49136
1.49215
1.49334
1.49472
1.49549
1.49545
1.494
1.49065
1.48644
1.48181
1.477
1.47294
1.47037
1.4689
1.46832
1.46883
1.46893
1.46841
1.46792
1.46653
1.46394
1.46173
1.46007
1.4582
1.45627
1.45544
1.45543
1.45583
1.45579
1.4544
1.45351
1.45345
1.45352
1.45368
1.45422
1.45567
1.45867
1.46208
1.46309
1.46296
1.46226
1.46025
1.45575
1.44728
1.43806
1.43307
1.42914
1.42527
1.42312
1.42274
1.42426
1.42843
1.43142
1.43329
1.43617
1.43992
1.44324
1.4438
1.44324
1.44276
1.44191
1.4395
1.43564
1.43284
1.43233
1.43129
1.42639
1.42098
1.41784
1.41496
1.41073
1.40871
1.40978
1.41261
1.41491
1.41613
1.4164
1.41621
1.41526
1.41425
1.41388
1.41347
1.41253
1.41141
1.41121
1.4115
1.41201
1.41158
1.40972
1.40631
1.40126
1.39501
1.38705
1.37847
1.37186
1.36675
1.36286
1.36132
1.36094
1.36085
1.36109
1.36203
1.36368
1.36622
1.37034
1.37629
1.38101
1.38216
1.38179
1.37833
1.36952
1.35794
1.34984
1.34471
1.34107
1.33541
1.32211
1.3216
1.32016
1.31776
1.3144
1.31171
1.31062
1.3103
1.31033
1.31106
1.31259
1.31484
1.31639
1.31637
1.31641
1.31624
1.31471
1.31108
1.30565
1.30062
1.29871
1.29857
1.29897
1.3005
1.30278
1.30478
1.30595
1.30617
1.30608
1.30538
1.30356
1.30137
1.2992
1.29668
1.29372
1.29097
1.28921
1.28822
1.28799
1.288
1.28813
1.28865
1.28988
1.29115
1.29328
1.30034
1.31766
1.35493
1.40734
1.46743
1.52642
1.56898
1.58509
1.60173
1.62299
1.63422
1.63446
1.63075
1.63053
1.63227
1.63347
1.63173
1.62738
1.62206
1.6168
1.61258
1.60797
1.60197
1.59755
1.59581
1.5955
1.59556
1.59582
1.59671
1.59828
1.60008
1.60224
1.6033
1.60275
1.5998
1.59474
1.5884
1.58218
1.57712
1.57337
1.57098
1.57002
1.56986
1.56991
1.57023
1.57111
1.57172
1.5716
1.57103
1.56979
1.56742
1.5638
1.55929
1.55444
1.54991
1.54627
1.54313
1.54005
1.53765
1.53592
1.53439
1.53266
1.53063
1.52872
1.52761
1.5274
1.52802
1.52854
1.52757
1.52554
1.52352
1.52165
1.51887
1.51391
1.50877
1.50755
1.5073
1.50681
1.50589
1.50477
1.50392
1.50351
1.50301
1.50067
1.49657
1.49301
1.48947
1.48655
1.48572
1.48559
1.48562
1.486
1.48687
1.48798
1.48958
1.49063
1.49067
1.48989
1.48721
1.48268
1.47702
1.47106
1.46585
1.46241
1.46094
1.46037
1.4602
1.46055
1.46186
1.46176
1.46154
1.46099
1.45929
1.45688
1.45461
1.45237
1.45021
1.44916
1.44917
1.45005
1.45056
1.45021
1.44935
1.44825
1.4478
1.44787
1.44842
1.44899
1.44985
1.45212
1.45527
1.45622
1.45532
1.45314
1.45002
1.44479
1.43606
1.42821
1.42448
1.42215
1.42124
1.42156
1.42356
1.42689
1.42787
1.4288
1.43108
1.43443
1.43686
1.43717
1.43632
1.43506
1.4344
1.43272
1.42898
1.42511
1.42414
1.42492
1.42446
1.42069
1.41742
1.4161
1.41358
1.4079
1.40456
1.40454
1.4057
1.40773
1.40918
1.40971
1.41045
1.41141
1.41214
1.41242
1.41208
1.41042
1.40851
1.40729
1.40659
1.40637
1.4057
1.40312
1.39864
1.39219
1.38435
1.3762
1.3696
1.36487
1.3604
1.3574
1.3564
1.35603
1.35572
1.35559
1.3559
1.35702
1.35918
1.36384
1.37193
1.37836
1.3797
1.37934
1.37734
1.37103
1.35857
1.34416
1.33523
1.3265
1.321
1.31993
1.31779
1.3147
1.31183
1.31021
1.30939
1.3092
1.30975
1.31085
1.31213
1.31373
1.31455
1.31493
1.31493
1.31379
1.31021
1.30454
1.29906
1.29549
1.29454
1.29462
1.29554
1.29743
1.29953
1.3013
1.30259
1.30297
1.30284
1.30196
1.3003
1.2986
1.29659
1.29417
1.29189
1.28981
1.28828
1.28751
1.28744
1.28752
1.28808
1.29008
1.29573
1.3119
1.3422
1.39351
1.44988
1.50199
1.54632
1.5874
1.60114
1.60742
1.61506
1.62593
1.62926
1.62718
1.62586
1.62678
1.63007
1.63001
1.62701
1.62198
1.61725
1.61338
1.61014
1.60506
1.59955
1.59514
1.59311
1.59266
1.59262
1.59265
1.59284
1.5934
1.59497
1.59761
1.59872
1.59775
1.59469
1.58996
1.58447
1.57865
1.57327
1.56912
1.56624
1.56462
1.56411
1.56413
1.56436
1.56502
1.56638
1.56719
1.56715
1.56653
1.56452
1.56083
1.55604
1.55096
1.5463
1.54247
1.53925
1.5367
1.53532
1.5345
1.53359
1.5322
1.53025
1.5279
1.52584
1.52473
1.52427
1.52355
1.52144
1.51904
1.51714
1.51525
1.51213
1.50694
1.50239
1.50147
1.50124
1.50091
1.50033
1.49997
1.49983
1.49977
1.49974
1.49815
1.4935
1.48846
1.48478
1.48168
1.48019
1.48031
1.48065
1.48121
1.48206
1.48302
1.48386
1.48481
1.48519
1.48496
1.48333
1.47936
1.47375
1.46744
1.46136
1.4561
1.45331
1.45275
1.45275
1.45291
1.45343
1.455
1.45538
1.45501
1.45451
1.45345
1.45128
1.4486
1.44605
1.44425
1.44382
1.44415
1.44524
1.44599
1.44621
1.44608
1.44516
1.44346
1.44272
1.44274
1.44299
1.44287
1.44287
1.44383
1.44633
1.44751
1.44622
1.44371
1.44063
1.43535
1.42734
1.42241
1.42089
1.42007
1.41983
1.42045
1.42324
1.42493
1.42541
1.42694
1.42931
1.43066
1.43068
1.42921
1.4269
1.42599
1.42478
1.42172
1.41767
1.4158
1.41682
1.42077
1.4212
1.41946
1.41713
1.41503
1.40985
1.40127
1.39773
1.39779
1.39912
1.40138
1.40323
1.40564
1.40883
1.41179
1.41246
1.41165
1.40877
1.40514
1.40241
1.39981
1.39762
1.3961
1.39485
1.39258
1.38812
1.38181
1.37565
1.37077
1.36579
1.36053
1.35663
1.35392
1.35223
1.35093
1.34995
1.34945
1.34934
1.34953
1.35096
1.35632
1.36733
1.37566
1.37748
1.37727
1.37525
1.36837
1.35283
1.33454
1.32052
1.3196
1.31771
1.31501
1.31233
1.31043
1.30907
1.3086
1.30906
1.30984
1.31015
1.3109
1.31211
1.31294
1.31312
1.31254
1.30973
1.30379
1.29897
1.29522
1.29187
1.29114
1.29145
1.29249
1.29417
1.29612
1.2976
1.29847
1.29862
1.29828
1.29776
1.29721
1.29599
1.29403
1.29182
1.2902
1.2889
1.28765
1.28748
1.28797
1.29071
1.29986
1.32489
1.36891
1.43076
1.49366
1.54306
1.57552
1.60166
1.60996
1.60664
1.6079
1.61699
1.62428
1.62424
1.6218
1.62025
1.62137
1.6262
1.62721
1.6245
1.61836
1.61249
1.60876
1.60644
1.60303
1.59769
1.59326
1.59129
1.59019
1.5898
1.58992
1.59015
1.59053
1.59158
1.59351
1.594
1.59249
1.589
1.5846
1.57943
1.57408
1.56928
1.56483
1.56167
1.56008
1.55894
1.55857
1.55866
1.55924
1.56055
1.56192
1.56253
1.56237
1.56114
1.55794
1.55276
1.5469
1.54186
1.53777
1.53463
1.53257
1.5314
1.53114
1.53092
1.53065
1.52982
1.528
1.52582
1.52377
1.52144
1.51801
1.51453
1.51197
1.51025
1.5085
1.50542
1.49995
1.49569
1.4951
1.49496
1.49464
1.49412
1.49381
1.49425
1.49537
1.49609
1.49553
1.49196
1.48661
1.48145
1.477
1.47475
1.47477
1.47516
1.47592
1.47707
1.47838
1.4793
1.47964
1.47955
1.47902
1.4777
1.47468
1.46995
1.46426
1.45815
1.45291
1.44876
1.44612
1.44576
1.44586
1.44631
1.4471
1.44836
1.4494
1.44901
1.44827
1.44705
1.44505
1.44241
1.44012
1.43909
1.43933
1.44047
1.44087
1.44108
1.44188
1.44227
1.44214
1.44106
1.4388
1.4371
1.43627
1.43571
1.43483
1.43417
1.43446
1.43673
1.43907
1.43869
1.43685
1.43413
1.4291
1.42211
1.41942
1.41866
1.41808
1.4178
1.41936
1.42213
1.42299
1.42369
1.42483
1.42524
1.42473
1.42201
1.41869
1.41716
1.41607
1.41373
1.41032
1.40823
1.40876
1.41534
1.42081
1.41998
1.41678
1.41409
1.41058
1.4025
1.39347
1.39129
1.39177
1.39391
1.39665
1.40094
1.40739
1.41039
1.41016
1.40833
1.40479
1.39978
1.39538
1.3912
1.38745
1.38453
1.38225
1.38082
1.37968
1.37785
1.37586
1.37328
1.36894
1.36371
1.35832
1.35351
1.34966
1.34694
1.34494
1.34341
1.34217
1.34137
1.34128
1.34325
1.35191
1.36685
1.3742
1.37456
1.37319
1.36937
1.36103
1.34476
1.32217
1.3176
1.31526
1.31289
1.31089
1.30923
1.30853
1.30868
1.30908
1.30874
1.30881
1.3095
1.31033
1.31055
1.31035
1.30891
1.30412
1.29877
1.29559
1.29222
1.28883
1.28836
1.28863
1.28931
1.29077
1.29254
1.29342
1.29358
1.2938
1.29468
1.2948
1.2944
1.29321
1.29156
1.29002
1.28891
1.28833
1.28919
1.29438
1.30971
1.34661
1.3997
1.4642
1.52661
1.56599
1.58975
1.61248
1.62154
1.62022
1.61096
1.60752
1.6101
1.6161
1.6177
1.61722
1.61604
1.61688
1.61995
1.62165
1.61991
1.61534
1.60942
1.60502
1.60172
1.59822
1.59418
1.59103
1.58895
1.5879
1.58759
1.58782
1.58815
1.58838
1.58898
1.5896
1.58936
1.58711
1.58343
1.5794
1.57452
1.56898
1.56413
1.56033
1.55684
1.55478
1.55399
1.55355
1.55348
1.55377
1.55473
1.55636
1.55718
1.55703
1.55636
1.55435
1.5504
1.54455
1.53816
1.53339
1.53053
1.52825
1.52747
1.52747
1.52746
1.52743
1.52769
1.52764
1.52667
1.52455
1.52107
1.51611
1.51112
1.50717
1.50429
1.50165
1.49815
1.49356
1.49013
1.48919
1.48907
1.48884
1.4883
1.48761
1.48789
1.4894
1.491
1.49109
1.48915
1.48457
1.47992
1.4755
1.47102
1.4695
1.46967
1.47021
1.47126
1.47266
1.47412
1.47448
1.47438
1.47389
1.47231
1.4692
1.46482
1.45954
1.45394
1.44895
1.44507
1.4425
1.44096
1.44027
1.44034
1.44097
1.44186
1.4427
1.44315
1.4431
1.44247
1.44114
1.43929
1.43691
1.43541
1.43539
1.43556
1.43527
1.43537
1.43592
1.43701
1.43802
1.43826
1.43811
1.43685
1.43364
1.43024
1.42843
1.42711
1.42588
1.42545
1.42573
1.42807
1.43194
1.43264
1.43176
1.4296
1.42475
1.41852
1.41663
1.41614
1.41591
1.41668
1.41928
1.42094
1.4212
1.42115
1.42071
1.4191
1.41523
1.41071
1.4084
1.40713
1.40519
1.4027
1.4013
1.40125
1.40427
1.41175
1.41459
1.4134
1.41082
1.40862
1.40478
1.39595
1.38781
1.38655
1.3876
1.39013
1.39369
1.39998
1.40451
1.40462
1.40283
1.39886
1.39256
1.3865
1.38088
1.37627
1.37285
1.37046
1.36989
1.37102
1.37515
1.3768
1.37515
1.37087
1.3664
1.36104
1.35405
1.34656
1.3414
1.33879
1.337
1.33562
1.33447
1.33392
1.33467
1.33901
1.34914
1.36191
1.36747
1.36739
1.36553
1.36205
1.35539
1.33843
1.31539
1.31361
1.31169
1.30977
1.30863
1.30845
1.30857
1.30765
1.30702
1.3071
1.30739
1.30749
1.3074
1.30671
1.30381
1.29921
1.29598
1.29334
1.29018
1.28709
1.2856
1.28562
1.28626
1.28743
1.28813
1.28812
1.28811
1.28928
1.29134
1.29159
1.29134
1.29064
1.28967
1.28957
1.2914
1.3004
1.32334
1.36949
1.4321
1.49607
1.55386
1.59711
1.60776
1.61015
1.61813
1.62365
1.62209
1.61501
1.60671
1.60521
1.60672
1.61059
1.61179
1.61215
1.61313
1.61447
1.61523
1.61413
1.61088
1.60615
1.60179
1.59756
1.59317
1.58941
1.58665
1.58519
1.58486
1.5852
1.58628
1.58669
1.58661
1.58662
1.58646
1.58512
1.58184
1.57814
1.57413
1.56917
1.56395
1.55982
1.5565
1.55369
1.5512
1.54935
1.54884
1.54871
1.54891
1.54952
1.55025
1.5509
1.55093
1.55031
1.54886
1.54633
1.54254
1.53749
1.53182
1.52681
1.52464
1.52431
1.52426
1.5244
1.52471
1.52461
1.52429
1.52354
1.52201
1.5193
1.51468
1.50969
1.5056
1.50136
1.49682
1.49182
1.48655
1.48411
1.48396
1.48392
1.48369
1.48302
1.48254
1.48272
1.48382
1.48529
1.48533
1.48391
1.48029
1.47615
1.47261
1.46941
1.46663
1.4652
1.46518
1.4657
1.46673
1.4679
1.46868
1.4688
1.46858
1.46757
1.46501
1.46074
1.45493
1.44894
1.44387
1.43994
1.43757
1.43658
1.43624
1.43617
1.43633
1.43709
1.43783
1.43815
1.43826
1.43812
1.43729
1.43571
1.43388
1.43239
1.43139
1.42985
1.42937
1.42951
1.4299
1.43059
1.43172
1.43339
1.43454
1.43467
1.43423
1.43226
1.4276
1.42236
1.41957
1.4179
1.41711
1.41704
1.41763
1.42068
1.42528