0.703125 	0.2001 	8.76882e-17 	4.02873 	2.04368 	2.75985
0.709375 	0.2001 	8.94229e-17 	3.86219 	2.0182 	2.67916
0.715625 	0.2001 	9.08107e-17 	3.67158 	1.98864 	2.5848
0.721875 	0.2001 	9.08107e-17 	3.49726 	1.96106 	2.4967
0.728125 	0.2001 	9.11576e-17 	3.37676 	1.94223 	2.43405
0.734375 	0.2001 	9.28924e-17 	3.22782 	1.9197 	2.354
0.740625 	0.2001 	9.11576e-17 	3.08348 	1.89672 	2.27598
0.746875 	0.2001 	9.08107e-17 	2.96384 	1.88261 	2.20406
0.753125 	0.2001 	9.35862e-17 	2.97475 	1.88733 	2.20664
0.759375 	0.2001 	9.80965e-17 	3.09138 	1.91447 	2.26065
0.765625 	0.2001 	1.01219e-16 	3.53466 	2.00276 	2.47086
0.771875 	0.2001 	9.94843e-17 	4.09137 	2.11493 	2.70833
0.778125 	0.2001 	9.91374e-17 	4.66418 	2.24111 	2.91368
0.784375 	0.2001 	1.01913e-16 	5.13217 	2.36743 	3.03496
0.790625 	0.2001 	1.04688e-16 	5.43862 	2.506 	3.03835
0.796875 	0.2001 	1.07811e-16 	4.98838 	2.56025 	2.72776
0.801495 	0.2001 	1.07811e-16 	2.08894 	2.06514 	1.41614
0.804484 	0.2001 	1.06076e-16 	1.2869 	1.83005 	0.98449
0.807473 	0.2001 	1.03995e-16 	1.00809 	1.74264 	0.809881
0.810462 	0.2001 	1.00525e-16 	1.05061 	1.76625 	0.832758
0.813451 	0.2001 	9.91374e-17 	1.13741 	1.79748 	0.885896
0.81644 	0.2001 	9.74026e-17 	1.22658 	1.82843 	0.939176
0.819429 	0.2001 	9.56679e-17 	1.32891 	1.86766 	0.996156
0.822418 	0.2001 	9.91374e-17 	1.40984 	1.89582 	1.04112
0.825408 	0.2001 	1.03995e-16 	1.43352 	1.89167 	1.06093
0.828397 	0.2001 	1.05382e-16 	1.43168 	1.88508 	1.06328
0.831386 	0.2001 	1.07117e-16 	1.41003 	1.87196 	1.05454
0.834375 	0.2001 	1.07464e-16 	1.39021 	1.86457 	1.04383
0.837364 	0.2001 	1.04688e-16 	1.38688 	1.8613 	1.04316
0.840353 	0.2001 	1.01219e-16 	1.3841 	1.85541 	1.04438
0.843342 	0.2001 	9.77496e-17 	1.38492 	1.85076 	1.04762
0.846332 	0.2001 	9.77496e-17 	1.38688 	1.84919 	1.04999
0.849321 	0.2001 	1.02607e-16 	1.38203 	1.84685 	1.04765
0.85231 	0.2001 	1.06076e-16 	1.37878 	1.846 	1.04567
0.855299 	0.2001 	1.06076e-16 	1.37429 	1.84283 	1.04405
0.858288 	0.2001 	1.06076e-16 	1.36346 	1.83424 	1.04068
0.861277 	0.2001 	1.07464e-16 	1.35388 	1.82797 	1.03691
0.864266 	0.2001 	1.10587e-16 	1.35265 	1.82745 	1.03626
0.867255 	0.2001 	1.11974e-16 	1.3552 	1.82867 	1.03752
0.870245 	0.2001 	1.13015e-16 	1.36104 	1.83058 	1.04091
0.873234 	0.2001 	1.14403e-16 	1.37097 	1.83227 	1.04753
0.876223 	0.2001 	1.14403e-16 	1.38079 	1.83377 	1.05417
0.879212 	0.2001 	1.16138e-16 	1.38178 	1.83356 	1.05505
0.882201 	0.2001 	1.17872e-16 	1.3783 	1.83151 	1.05357
0.88519 	0.2001 	1.16138e-16 	1.37102 	1.8283 	1.04985
0.888179 	0.2001 	1.14403e-16 	1.36103 	1.82352 	1.04493
0.891168 	0.2001 	1.15097e-16 	1.35537 	1.81898 	1.04318
0.894158 	0.2001 	1.15791e-16 	1.35584 	1.81861 	1.04375
0.897147 	0.2001 	1.15791e-16 	1.35884 	1.81925 	1.0457
0.900136 	0.2001 	1.15791e-16 	1.36548 	1.8214 	1.04957
0.903125 	0.2001 	1.18913e-16 	1.37615 	1.82507 	1.05564
0.906114 	0.2001 	1.20648e-16 	1.38698 	1.82785 	1.06233
0.909103 	0.2001 	1.17525e-16 	1.39324 	1.82797 	1.06705
0.912092 	0.2001 	1.12321e-16 	1.3941 	1.8276 	1.06793
0.915082 	0.2001 	1.07464e-16 	1.39279 	1.82652 	1.06756
0.918071 	0.2001 	1.07464e-16 	1.38892 	1.82438 	1.06584
0.92106 	0.2001 	1.1024e-16 	1.38256 	1.8212 	1.06281
0.924049 	0.2001 	1.13709e-16 	1.37542 	1.81723 	1.05963
0.927038 	0.2001 	1.15791e-16 	1.3696 	1.81377 	1.05716
0.930027 	0.2001 	1.15791e-16 	1.36654 	1.81184 	1.05592
0.933016 	0.2001 	1.15791e-16 	1.3649 	1.81061 	1.05537
0.936005 	0.2001 	1.17178e-16 	1.36445 	1.81 	1.05538
0.938995 	0.2001 	1.18566e-16 	1.36637 	1.81001 	1.05686
0.941984 	0.2001 	1.19954e-16 	1.3699 	1.80993 	1.05964
0.944973 	0.2001 	1.24464e-16 	1.3736 	1.80983 	1.06256
0.947962 	0.2001 	1.27587e-16 	1.37581 	1.80976 	1.06431
0.950951 	0.2001 	1.26199e-16 	1.37502 	1.80888 	1.06421
0.95394 	0.2001 	1.27934e-16 	1.37288 	1.80741 	1.06342
0.956929 	0.2001 	1.29322e-16 	1.36975 	1.80548 	1.06213
0.959918 	0.2001 	1.27587e-16 	1.36485 	1.8024 	1.06014
0.962908 	0.2001 	1.27587e-16 	1.35951 	1.79885 	1.05808
0.965897 	0.2001 	1.28975e-16 	1.35752 	1.79699 	1.05762
0.968886 	0.2001 	1.30362e-16 	1.3581 	1.79649 	1.05837
0.971875 	0.2001 	1.28628e-16 	1.36139 	1.79658 	1.06088
0.974864 	0.2001 	1.26893e-16 	1.3691 	1.79818 	1.06594
0.977853 	0.2001 	1.26893e-16 	1.37833 	1.80061 	1.07168
0.980842 	0.2001 	1.23423e-16 	1.38244 	1.80125 	1.07449
0.983832 	0.2001 	1.1926e-16 	1.38253 	1.80076 	1.07485
0.986821 	0.2001 	1.18566e-16 	1.38096 	1.79925 	1.07453
0.98981 	0.2001 	1.20301e-16 	1.37699 	1.79689 	1.07285
0.992799 	0.2001 	1.22036e-16 	1.37335 	1.79449 	1.07144
0.995788 	0.2001 	1.24811e-16 	1.37327 	1.79354 	1.07195
0.998777 	0.2001 	1.28975e-16 	1.37507 	1.79312 	1.07361
1.00177 	0.2001 	1.33832e-16 	1.37985 	1.79341 	1.07716
1.00476 	0.2001 	1.39383e-16 	1.38922 	1.7955 	1.08322
1.00774 	0.2001 	1.40077e-16 	1.39807 	1.79756 	1.08887
1.01073 	0.2001 	1.38689e-16 	1.40088 	1.79764 	1.09101
1.01372 	0.2001 	1.35914e-16 	1.40086 	1.79669 	1.09157
1.01671 	0.2001 	1.34526e-16 	1.39959 	1.79492 	1.09165
1.0197 	0.2001 	1.34526e-16 	1.39623 	1.79225 	1.09066
1.02269 	0.2001 	1.33138e-16 	1.39143 	1.7893 	1.0887
1.02568 	0.2001 	1.34526e-16 	1.38868 	1.78705 	1.08792
1.02867 	0.2001 	1.34526e-16 	1.38753 	1.78552 	1.08795
1.03166 	0.2001 	1.33485e-16 	1.38907 	1.78504 	1.08945
1.03465 	0.2001 	1.32444e-16 	1.39492 	1.78586 	1.09353
1.03764 	0.2001 	1.29668e-16 	1.40038 	1.78694 	1.09715
1.04063 	0.2001 	1.28975e-16 	1.40157 	1.78672 	1.09822
1.04361 	0.2001 	1.26893e-16 	1.40047 	1.78517 	1.09831
1.0466 	0.2001 	1.2273e-16 	1.39726 	1.78241 	1.09749
1.04959 	0.2001 	1.19954e-16 	1.39054 	1.77872 	1.09447
1.05258 	0.2001 	1.17525e-16 	1.38261 	1.77468 	1.09071
1.05557 	0.2001 	1.15444e-16 	1.37642 	1.7712 	1.08796
1.05856 	0.2001 	1.13709e-16 	1.37244 	1.76849 	1.08648
1.06155 	0.2001 	1.13015e-16 	1.36983 	1.76626 	1.08578
1.06454 	0.2001 	1.11974e-16 	1.36813 	1.7644 	1.08558
1.06753 	0.2001 	1.10933e-16 	1.36778 	1.76316 	1.08606
1.07052 	0.2001 	1.10933e-16 	1.36726 	1.76204 	1.08634
1.07351 	0.2001 	1.10933e-16 	1.36668 	1.76102 	1.08651
1.07649 	0.2001 	1.10933e-16 	1.3665 	1.7602 	1.08687
1.07948 	0.2001 	1.13015e-16 	1.36706 	1.75953 	1.08773
1.08247 	0.2001 	1.12321e-16 	1.36793 	1.75884 	1.08885
1.08546 	0.2001 	1.09546e-16 	1.36845 	1.75814 	1.0897
1.08845 	0.2001 	1.09546e-16 	1.36875 	1.7575 	1.09033
1.09144 	0.2001 	1.08505e-16 	1.36924 	1.75693 	1.09108
1.09443 	0.2001 	1.08158e-16 	1.36898 	1.75612 	1.09137
1.09742 	0.2001 	1.09546e-16 	1.36795 	1.75494 	1.09128
1.10041 	0.2001 	1.1024e-16 	1.36677 	1.75382 	1.09104
1.1034 	0.2001 	1.1024e-16 	1.36584 	1.75292 	1.09086
1.10639 	0.2001 	1.09199e-16 	1.36523 	1.75208 	1.09089
1.10938 	0.2001 	1.1024e-16 	1.36497 	1.7512 	1.09123
1.11236 	0.2001 	1.12668e-16 	1.36386 	1.74989 	1.09116
1.11535 	0.2001 	1.13015e-16 	1.36183 	1.74833 	1.09051
1.11834 	0.2001 	1.13015e-16 	1.35878 	1.74664 	1.08912
1.12133 	0.2001 	1.13709e-16 	1.35631 	1.74527 	1.08799
1.12432 	0.2001 	1.14403e-16 	1.3555 	1.74459 	1.08777
1.12731 	0.2001 	1.17872e-16 	1.35605 	1.74449 	1.08827
1.1303 	0.2001 	1.21342e-16 	1.35854 	1.74502 	1.08994
1.13329 	0.2001 	1.21342e-16 	1.36286 	1.74646 	1.0925
1.13628 	0.2001 	1.2273e-16 	1.36902 	1.74863 	1.09608
1.13927 	0.2001 	1.23077e-16 	1.37753 	1.75167 	1.10098
1.14226 	0.2001 	1.20648e-16 	1.38714 	1.75499 	1.10656
1.14524 	0.2001 	1.1926e-16 	1.39319 	1.75684 	1.11022
1.14823 	0.2001 	1.1926e-16 	1.39478 	1.75714 	1.11129
1.15122 	0.2001 	1.17525e-16 	1.39355 	1.75642 	1.11077
1.15421 	0.2001 	1.15791e-16 	1.38852 	1.7543 	1.1081
1.1572 	0.2001 	1.16485e-16 	1.37392 	1.74887 	1.09985
1.16019 	0.2001 	1.17525e-16 	1.35674 	1.74283 	1.08986
1.16318 	0.2001 	1.16485e-16 	1.34873 	1.7403 	1.085
1.16617 	0.2001 	1.15097e-16 	1.34608 	1.73968 	1.08326
1.16916 	0.2001 	1.17178e-16 	1.34538 	1.73967 	1.0827
1.17215 	0.2001 	1.20648e-16 	1.34664 	1.74054 	1.08317
1.17514 	0.2001 	1.24117e-16 	1.35135 	1.74264 	1.08565
1.17813 	0.2001 	1.26199e-16 	1.35469 	1.74405 	1.08745
1.18111 	0.2001 	1.26199e-16 	1.35594 	1.74472 	1.08804
1.1841 	0.2001 	1.26199e-16 	1.357 	1.74538 	1.08848
1.18709 	0.2001 	1.26546e-16 	1.35868 	1.74637 	1.08921
1.19008 	0.2001 	1.26893e-16 	1.36134 	1.7478 	1.09045
1.19307 	0.2001 	1.28975e-16 	1.3648 	1.74955 	1.09212
1.19606 	0.2001 	1.31056e-16 	1.36826 	1.7513 	1.0938
1.19905 	0.2001 	1.31056e-16 	1.3707 	1.75265 	1.09491
1.20204 	0.2001 	1.31403e-16 	1.37166 	1.75342 	1.09519
1.20503 	0.2001 	1.3175e-16 	1.37176 	1.75374 	1.09507
1.20802 	0.2001 	1.3175e-16 	1.37024 	1.7536 	1.09395
1.21101 	0.2001 	1.33832e-16 	1.36488 	1.75212 	1.09059
1.21399 	0.2001 	1.35914e-16 	1.3541 	1.74866 	1.08411
1.21698 	0.2001 	1.37995e-16 	1.34595 	1.74641 	1.07898
1.21997 	0.2001 	1.40424e-16 	1.34323 	1.74613 	1.07697
1.22296 	0.2001 	1.41465e-16 	1.34248 	1.74645 	1.07617
1.22595 	0.2001 	1.40771e-16 	1.34302 	1.7475 	1.07596
1.22894 	0.2001 	1.39383e-16 	1.34561 	1.74942 	1.07685
1.23193 	0.2001 	1.39383e-16 	1.35174 	1.75233 	1.07996
1.23492 	0.2001 	1.39383e-16 	1.35739 	1.75493 	1.08287
1.23791 	0.2001 	1.34873e-16 	1.36001 	1.75644 	1.08402
1.2409 	0.2001 	1.33485e-16 	1.3611 	1.75731 	1.08435
1.24389 	0.2001 	1.40077e-16 	1.36122 	1.75762 	1.08426
1.24688 	0.2001 	1.43546e-16 	1.35969 	1.75746 	1.08314
1.24986 	0.2001 	1.4424e-16 	1.3551 	1.75604 	1.08036
1.25285 	0.2001 	1.45281e-16 	1.34852 	1.75351 	1.07666
1.25584 	0.2001 	1.45628e-16 	1.34351 	1.75177 	1.07373
1.25883 	0.2001 	1.45628e-16 	1.34003 	1.75075 	1.07157
1.26182 	0.2001 	1.45628e-16 	1.3375 	1.75014 	1.06992
1.26481 	0.2001 	1.4771e-16 	1.33638 	1.75 	1.06911
1.2678 	0.2001 	1.49791e-16 	1.33678 	1.75047 	1.06914
1.27079 	0.2001 	1.49791e-16 	1.33841 	1.75164 	1.06973
1.27378 	0.2001 	1.49791e-16 	1.34216 	1.75354 	1.07156
1.27677 	0.2001 	1.47363e-16 	1.34847 	1.75619 	1.07498
1.27976 	0.2001 	1.40771e-16 	1.35488 	1.75857 	1.07863
1.28274 	0.2001 	1.3522e-16 	1.35712 	1.75913 	1.08007
1.28573 	0.2001 	1.29668e-16 	1.35662 	1.75857 	1.08001
1.28872 	0.2001 	1.27587e-16 	1.35461 	1.75692 	1.07942
1.29171 	0.2001 	1.26199e-16 	1.35039 	1.75428 	1.07768
1.2947 	0.2001 	1.24811e-16 	1.34294 	1.75085 	1.07383
1.29769 	0.2001 	1.2273e-16 	1.33561 	1.74788 	1.06979
1.30068 	0.2001 	1.23423e-16 	1.33296 	1.74664 	1.06842
1.30367 	0.2001 	1.28281e-16 	1.33295 	1.74642 	1.06855
1.30666 	0.2001 	1.28628e-16 	1.3342 	1.74649 	1.06951
1.30965 	0.2001 	1.28975e-16 	1.33827 	1.74751 	1.07215
1.31264 	0.2001 	1.29668e-16 	1.34569 	1.74986 	1.07664
1.31563 	0.2001 	1.26199e-16 	1.35147 	1.75137 	1.08033
1.31861 	0.2001 	1.22036e-16 	1.35237 	1.75122 	1.08115
1.3216 	0.2001 	1.2377e-16 	1.3509 	1.74981 	1.08084
1.32459 	0.2001 	1.26199e-16 	1.3459 	1.74698 	1.07859
1.32758 	0.2001 	1.3175e-16 	1.339 	1.74375 	1.07504
1.33057 	0.2001 	1.3522e-16 	1.33602 	1.74198 	1.07374
1.33356 	0.2001 	1.32444e-16 	1.33476 	1.74083 	1.07344
1.33655 	0.2001 	1.29322e-16 	1.33444 	1.74012 	1.07362
1.33954 	0.2001 	1.25158e-16 	1.33575 	1.73986 	1.07483
1.34253 	0.2001 	1.2273e-16 	1.33658 	1.73948 	1.07573
1.34552 	0.2001 	1.20995e-16 	1.33581 	1.73836 	1.07581
1.34851 	0.2001 	1.1926e-16 	1.33485 	1.737 	1.07588
1.35149 	0.2001 	1.1926e-16 	1.33427 	1.73596 	1.07605
1.35448 	0.2001 	1.15791e-16 	1.3345 	1.73531 	1.07664
1.35747 	0.2001 	1.1024e-16 	1.33545 	1.73491 	1.07766
1.36046 	0.2001 	1.12321e-16 	1.33536 	1.7342 	1.07802
1.36345 	0.2001 	1.16485e-16 	1.33346 	1.73278 	1.07737
1.36644 	0.2001 	1.16485e-16 	1.3313 	1.73114 	1.07665
1.36943 	0.2001 	1.16485e-16 	1.32951 	1.7291 	1.07647
1.37242 	0.2001 	1.15097e-16 	1.32846 	1.72704 	1.0769
1.37541 	0.2001 	1.15097e-16 	1.3288 	1.72547 	1.07816
1.3784 	0.2001 	1.16485e-16 	1.32943 	1.72437 	1.07936
1.38139 	0.2001 	1.16485e-16 	1.33034 	1.72371 	1.08051
1.38438 	0.2001 	1.13015e-16 	1.3325 	1.72355 	1.08236
1.38736 	0.2001 	1.0677e-16 	1.3351 	1.7234 	1.08457
1.39035 	0.2001 	1.06076e-16 	1.3367 	1.72287 	1.0862
1.39334 	0.2001 	1.0677e-16 	1.33553 	1.7212 	1.08631
1.39633 	0.2001 	1.05382e-16 	1.33134 	1.71833 	1.08471
1.39932 	0.2001 	1.0677e-16 	1.32402 	1.71468 	1.08104
1.40231 	0.2001 	1.09546e-16 	1.31843 	1.71176 	1.07831
1.4053 	0.2001 	1.09893e-16 	1.31537 	1.70982 	1.07703
1.40829 	0.2001 	1.07464e-16 	1.314 	1.70862 	1.07666
1.41128 	0.2001 	1.04688e-16 	1.31401 	1.70807 	1.07702
1.41427 	0.2001 	1.03301e-16 	1.31631 	1.70811 	1.07888
1.41726 	0.2001 	1.00525e-16 	1.32072 	1.70891 	1.08198
1.42024 	0.2001 	9.98313e-17 	1.32674 	1.71059 	1.08585
1.42323 	0.2001 	1.0226e-16 	1.33159 	1.71172 	1.0891
1.42622 	0.2001 	1.06076e-16 	1.33248 	1.71152 	1.08995
1.42921 	0.2001 	1.08158e-16 	1.3309 	1.71 	1.08963
1.4322 	0.2001 	1.0677e-16 	1.32621 	1.70723 	1.08755
1.43519 	0.2001 	1.0677e-16 	1.31649 	1.70293 	1.08231
1.43818 	0.2001 	1.0677e-16 	1.30923 	1.69965 	1.07842
1.44117 	0.2001 	1.0677e-16 	1.30639 	1.69803 	1.0771
1.44416 	0.2001 	1.0677e-16 	1.3055 	1.69726 	1.07686
1.44715 	0.2001 	1.07464e-16 	1.30671 	1.69723 	1.07787
1.45014 	0.2001 	1.08158e-16 	1.31313 	1.69877 	1.08219
1.45313 	0.2001 	1.08158e-16 	1.32283 	1.70193 	1.08816
1.45611 	0.2001 	1.08505e-16 	1.32812 	1.70349 	1.09151
1.4591 	0.2001 	1.08852e-16 	1.32882 	1.70346 	1.0921
1.46209 	0.2001 	1.08852e-16 	1.32773 	1.70253 	1.0918
1.46508 	0.2001 	1.08852e-16 	1.3243 	1.70078 	1.0901
1.46807 	0.2001 	1.08852e-16 	1.31593 	1.69749 	1.08531
1.47106 	0.2001 	1.09546e-16 	1.30869 	1.69477 	1.08107
1.47405 	0.2001 	1.1024e-16 	1.30687 	1.69398 	1.08007
1.47704 	0.2001 	1.1024e-16 	1.30676 	1.69384 	1.08007
1.48003 	0.2001 	1.1024e-16 	1.30848 	1.69421 	1.08126
1.48302 	0.2001 	1.07464e-16 	1.31114 	1.69496 	1.08298
1.48601 	0.2001 	1.04688e-16 	1.31281 	1.69549 	1.08402
1.48899 	0.2001 	1.03648e-16 	1.31426 	1.69595 	1.08492
1.49198 	0.2001 	1.02607e-16 	1.31545 	1.69628 	1.08569
1.49497 	0.2001 	1.02607e-16 	1.31564 	1.69631 	1.08583
1.49796 	0.2001 	1.01566e-16 	1.31502 	1.69615 	1.08542
1.50095 	0.2001 	1.00525e-16 	1.3131 	1.69571 	1.08412
1.50394 	0.2001 	1.00525e-16 	1.31064 	1.69517 	1.08243
1.50693 	0.2001 	1.00525e-16 	1.30888 	1.69489 	1.08115
1.50992 	0.2001 	1.00525e-16 	1.30726 	1.69467 	1.07996
1.51291 	0.2001 	1.01913e-16 	1.30522 	1.69425 	1.07854
1.5159 	0.2001 	1.03301e-16 	1.30283 	1.6936 	1.07698
1.51889 	0.2001 	1.03995e-16 	1.30173 	1.69338 	1.07621
1.52188 	0.2001 	1.05035e-16 	1.30181 	1.69359 	1.07614
1.52486 	0.2001 	1.08852e-16 	1.3031 	1.69447 	1.07665
1.52785 	0.2001 	1.12321e-16 	1.30602 	1.69585 	1.07818
1.53084 	0.2001 	1.1128e-16 	1.30781 	1.69681 	1.07905
1.53383 	0.2001 	1.1024e-16 	1.30818 	1.69725 	1.07907
1.53682 	0.2001 	1.13709e-16 	1.30779 	1.69737 	1.07868
1.53981 	0.2001 	1.17178e-16 	1.30592 	1.69704 	1.07734
1.5428 	0.2001 	1.17178e-16 	1.30471 	1.69691 	1.07643
1.54579 	0.2001 	1.17872e-16 	1.3047 	1.69716 	1.07626
1.54878 	0.2001 	1.18566e-16 	1.30554 	1.69793 	1.07647
1.55177 	0.2001 	1.18566e-16 	1.30823 	1.6993 	1.07781
1.55476 	0.2001 	1.18566e-16 	1.31005 	1.70028 	1.07869
1.55774 	0.2001 	1.18566e-16 	1.30996 	1.70055 	1.07845
1.56073 	0.2001 	1.18566e-16 	1.30926 	1.70074 	1.07775
1.56372 	0.2001 	1.16485e-16 	1.30695 	1.70053 	1.07598
1.56671 	0.2001 	1.14403e-16 	1.30053 	1.69877 	1.0718
1.5697 	0.2001 	1.15097e-16 	1.29127 	1.69593 	1.06595
1.57269 	0.2001 	1.15791e-16 	1.28567 	1.69446 	1.06225
1.57568 	0.2001 	1.15791e-16 	1.28359 	1.69414 	1.06073
1.57867 	0.2001 	1.15791e-16 	1.28297 	1.6942 	1.06018
1.58166 	0.2001 	1.16138e-16 	1.28323 	1.69464 	1.06012
1.58465 	0.2001 	1.17872e-16 	1.2856 	1.69591 	1.06129
1.58764 	0.2001 	1.17872e-16 	1.29143 	1.69834 	1.06457
1.59063 	0.2001 	1.17178e-16 	1.29643 	1.70064 	1.06725
1.59361 	0.2001 	1.14403e-16 	1.29785 	1.70173 	1.06773
1.5966 	0.2001 	1.10933e-16 	1.29834 	1.7024 	1.06772
1.59959 	0.2001 	1.10933e-16 	1.29849 	1.70277 	1.06761
1.60258 	0.2001 	1.11627e-16 	1.29685 	1.70249 	1.06644
1.60557 	0.2001 	1.12321e-16 	1.29348 	1.70141 	1.06434
1.60856 	0.2001 	1.12668e-16 	1.29157 	1.70075 	1.06318
1.61155 	0.2001 	1.11627e-16 	1.29084 	1.70056 	1.0627
1.61454 	0.2001 	1.1024e-16 	1.28979 	1.70024 	1.06203
1.61753 	0.2001 	1.07117e-16 	1.28794 	1.69959 	1.06092
1.62052 	0.2001 	1.03995e-16 	1.2854 	1.69865 	1.05941
1.62351 	0.2001 	1.03995e-16 	1.28307 	1.69783 	1.058
1.62649 	0.2001 	1.03995e-16 	1.28198 	1.69753 	1.05729
1.62948 	0.2001 	1.03648e-16 	1.28152 	1.69748 	1.05694
1.63247 	0.2001 	1.03301e-16 	1.28126 	1.69753 	1.05669
1.63546 	0.2001 	1.03301e-16 	1.28111 	1.69775 	1.05643
1.63845 	0.2001 	1.03301e-16 	1.28082 	1.698 	1.05604
1.64144 	0.2001 	1.01913e-16 	1.28043 	1.69825 	1.05556
1.64443 	0.2001 	1.00525e-16 	1.27976 	1.69836 	1.05494
1.64742 	0.2001 	1.00525e-16 	1.27856 	1.69832 	1.05398
1.65041 	0.2001 	1.00525e-16 	1.27635 	1.69794 	1.05239
1.6534 	0.2001 	1.00525e-16 	1.27259 	1.69674 	1.05003
1.65639 	0.2001 	9.94843e-17 	1.26923 	1.69549 	1.04803
1.65938 	0.2001 	9.84435e-17 	1.26852 	1.69524 	1.0476
1.66236 	0.2001 	9.84435e-17 	1.26868 	1.69533 	1.04768
1.66535 	0.2001 	1.03301e-16 	1.26935 	1.69558 	1.04808
1.66834 	0.2001 	1.1024e-16 	1.2713 	1.69625 	1.04927
1.67133 	0.2001 	1.12321e-16 	1.27519 	1.69764 	1.05162
1.67432 	0.2001 	1.12668e-16 	1.2799 	1.69939 	1.05442
1.67731 	0.2001 	1.13015e-16 	1.28355 	1.70069 	1.05662
1.6803 	0.2001 	1.16485e-16 	1.28521 	1.7012 	1.05767
1.68329 	0.2001 	1.20301e-16 	1.28536 	1.70119 	1.0578
1.68628 	0.2001 	1.20648e-16 	1.2842 	1.70069 	1.05715
1.68927 	0.2001 	1.24117e-16 	1.28021 	1.69916 	1.05482
1.69226 	0.2001 	1.27587e-16 	1.27399 	1.69684 	1.05113
1.69524 	0.2001 	1.29668e-16 	1.27017 	1.69539 	1.04887
1.69823 	0.2001 	1.3175e-16 	1.26799 	1.69446 	1.04764
1.70122 	0.2001 	1.3175e-16 	1.26634 	1.69366 	1.04678
1.70421 	0.2001 	1.30362e-16 	1.26479 	1.69278 	1.04604
1.7072 	0.2001 	1.30362e-16 	1.26327 	1.69176 	1.04541
1.71019 	0.2001 	1.3175e-16 	1.26238 	1.69095 	1.04517
1.71318 	0.2001 	1.3175e-16 	1.26208 	1.69046 	1.04523
1.71617 	0.2001 	1.3175e-16 	1.26247 	1.69024 	1.04569
1.71916 	0.2001 	1.3175e-16 	1.26387 	1.69026 	1.04684
1.72215 	0.2001 	1.30709e-16 	1.26644 	1.69068 	1.0487
1.72514 	0.2001 	1.29668e-16 	1.26998 	1.69152 	1.05111
1.72813 	0.2001 	1.28281e-16 	1.27291 	1.69202 	1.05323
1.73111 	0.2001 	1.25505e-16 	1.27389 	1.69188 	1.05412
1.7341 	0.2001 	1.20995e-16 	1.27338 	1.69093 	1.05429
1.73709 	0.2001 	1.16485e-16 	1.27249 	1.68964 	1.05436
1.74008 	0.2001 	1.15097e-16 	1.27076 	1.68809 	1.0539
1.74307 	0.2001 	1.15097e-16 	1.26723 	1.68606 	1.05223
1.74606 	0.2001 	1.15097e-16 	1.26433 	1.68436 	1.05088
1.74905 	0.2001 	1.15791e-16 	1.2634 	1.68352 	1.05064
1.75204 	0.2001 	1.16485e-16 	1.26281 	1.68291 	1.05053
1.75503 	0.2001 	1.15097e-16 	1.26254 	1.6824 	1.05062
1.75802 	0.2001 	1.13709e-16 	1.26185 	1.68168 	1.05049
1.76101 	0.2001 	1.16832e-16 	1.26041 	1.68065 	1.04994
1.76399 	0.2001 	1.19954e-16 	1.25879 	1.67954 	1.04928
1.76698 	0.2001 	1.22036e-16 	1.25759 	1.67848 	1.04894
1.76997 	0.2001 	1.24117e-16 	1.25637 	1.67724 	1.0487
1.77296 	0.2001 	1.24117e-16 	1.2552 	1.67588 	1.04858
1.77595 	0.2001 	1.26199e-16 	1.25462 	1.67467 	1.04885
1.77894 	0.2001 	1.26893e-16 	1.25502 	1.67374 	1.04977
1.78193 	0.2001 	1.25505e-16 	1.25523 	1.67294 	1.05044
1.78492 	0.2001 	1.25505e-16 	1.25429 	1.67182 	1.05036
1.78791 	0.2001 	1.25505e-16 	1.25305 	1.67065 	1.05006
1.7909 	0.2001 	1.25505e-16 	1.25164 	1.66965 	1.0495
1.79389 	0.2001 	1.23077e-16 	1.25067 	1.66894 	1.04914
1.79688 	0.2001 	1.24464e-16 	1.25032 	1.66836 	1.04921
1.79986 	0.2001 	1.25505e-16 	1.25034 	1.66786 	1.04954
1.80285 	0.2001 	1.21342e-16 	1.25115 	1.66746 	1.05047
1.80584 	0.2001 	1.18566e-16 	1.25153 	1.66683 	1.05119
1.80883 	0.2001 	1.17178e-16 	1.25015 	1.66543 	1.05091
1.81182 	0.2001 	1.15791e-16 	1.24974 	1.66458 	1.0511
1.81481 	0.2001 	1.15097e-16 	1.25142 	1.66424 	1.05273
1.8178 	0.2001 	1.14403e-16 	1.25311 	1.66372 	1.05448
1.82079 	0.2001 	1.13015e-16 	1.25271 	1.66242 	1.05497
1.82378 	0.2001 	1.13015e-16 	1.25159 	1.66076 	1.05508
1.82677 	0.2001 	1.13709e-16 	1.2508 	1.65955 	1.05518
1.82976 	0.2001 	1.14403e-16 	1.25086 	1.65891 	1.05564
1.83274 	0.2001 	1.13362e-16 	1.25132 	1.65843 	1.05633
1.83573 	0.2001 	1.12321e-16 	1.25123 	1.65783 	1.05664
1.83872 	0.2001 	1.12321e-16 	1.25019 	1.65688 	1.05637
1.84171 	0.2001 	1.1128e-16 	1.24737 	1.65538 	1.05494
1.8447 	0.2001 	1.1024e-16 	1.24293 	1.65346 	1.0524
1.84769 	0.2001 	1.10587e-16 	1.24099 	1.65238 	1.05145
1.85068 	0.2001 	1.09546e-16 	1.24063 	1.65196 	1.05141
1.85367 	0.2001 	1.08852e-16 	1.24193 	1.65203 	1.05247
1.85666 	0.2001 	1.09546e-16 	1.24499 	1.65262 	1.05468
1.85965 	0.2001 	1.11627e-16 	1.24885 	1.65361 	1.05732
1.86264 	0.2001 	1.13709e-16 	1.25405 	1.65518 	1.06072
1.86563 	0.2001 	1.13709e-16 	1.25925 	1.65669 	1.06414
1.86861 	0.2001 	1.13709e-16 	1.26085 	1.65697 	1.06532
1.8716 	0.2001 	1.12321e-16 	1.26008 	1.65633 	1.06508
1.87459 	0.2001 	1.10933e-16 	1.25723 	1.65473 	1.0637
1.87758 	0.2001 	1.09546e-16 	1.24933 	1.65144 	1.05912
1.88057 	0.2001 	1.07117e-16 	1.2395 	1.6477 	1.05317
1.88356 	0.2001 	1.07464e-16 	1.23505 	1.64592 	1.05052
1.88655 	0.2001 	1.07464e-16 	1.23431 	1.64558 	1.05011
1.88954 	0.2001 	1.08158e-16 	1.2344 	1.64558 	1.05019
1.89253 	0.2001 	1.07811e-16 	1.23615 	1.6462 	1.05128
1.89552 	0.2001 	1.05382e-16 	1.24154 	1.64831 	1.05451
1.89851 	0.2001 	1.05382e-16 	1.24974 	1.65156 	1.05939
1.90149 	0.2001 	1.05382e-16 	1.25419 	1.65329 	1.06205
1.90448 	0.2001 	1.03995e-16 	1.25442 	1.65341 	1.06217
1.90747 	0.2001 	1.04688e-16 	1.25372 	1.65329 	1.06165
1.91046 	0.2001 	1.0677e-16 	1.25058 	1.65241 	1.05955
1.91345 	0.2001 	1.0677e-16 	1.24224 	1.64971 	1.05421
1.91644 	0.2001 	1.05729e-16 	1.23532 	1.64769 	1.04962
1.91943 	0.2001 	1.04688e-16 	1.2337 	1.64751 	1.04836
1.92242 	0.2001 	1.04688e-16 	1.23385 	1.64797 	1.0482
1.92541 	0.2001 	1.03648e-16 	1.23516 	1.64912 	1.04858
1.9284 	0.2001 	1.02607e-16 	1.23786 	1.65059 	1.04993
1.93139 	0.2001 	1.00872e-16 	1.2401 	1.65186 	1.05103
1.93438 	0.2001 	9.80965e-17 	1.24143 	1.6528 	1.05155
1.93736 	0.2001 	1.00525e-16 	1.24171 	1.65322 	1.05152
1.94035 	0.2001 	1.03995e-16 	1.24083 	1.65332 	1.05072
1.94334 	0.2001 	9.91374e-17 	1.2388 	1.65325 	1.04904
1.94633 	0.2001 	9.28924e-17 	1.23499 	1.65269 	1.04617
1.94932 	0.2001 	9.15046e-17 	1.23204 	1.65263 	1.04371
1.95231 	0.2001 	8.8729e-17 	1.23159 	1.6536 	1.04271
1.9553 	0.2001 	8.45657e-17 	1.23243 	1.6554 	1.04229
1.95829 	0.2001 	8.31779e-17 	1.23324 	1.65708 	1.04192
1.96128 	0.2001 	7.90146e-17 	1.23376 	1.6585 	1.04147
1.96427 	0.2001 	7.97085e-17 	1.23406 	1.65972 	1.04095
1.96726 	0.2001 	8.45657e-17 	1.23419 	1.66075 	1.04042
1.97024 	0.2001 	8.45657e-17 	1.23451 	1.6617 	1.04009
1.97323 	0.2001 	8.69943e-17 	1.23436 	1.66227 	1.03961
1.97622 	0.2001 	8.94229e-17 	1.2335 	1.66261 	1.03867
1.97921 	0.2001 	8.94229e-17 	1.23196 	1.66277 	1.03728
1.9822 	0.2001 	8.97699e-17 	1.22886 	1.66249 	1.03484
1.98519 	0.2001 	9.18515e-17 	1.225 	1.66206 	1.03186
1.98818 	0.2001 	9.35862e-17 	1.22196 	1.66191 	1.02939
1.99117 	0.2001 	9.21985e-17 	1.22052 	1.66217 	1.02801
1.99416 	0.2001 	8.94229e-17 	1.22097 	1.66324 	1.02773
1.99715 	0.2001 	8.66474e-17 	1.2222 	1.66466 	1.02789
2.00014 	0.2001 	8.52596e-17 	1.22499 	1.66648 	1.02911
2.00313 	0.2001 	8.35249e-17 	1.22942 	1.66881 	1.03139
2.00611 	0.2001 	8.21371e-17 	1.23222 	1.67064 	1.03261
2.0091 	0.2001 	8.2484e-17 	1.23288 	1.67168 	1.03252
2.01209 	0.2001 	8.2484e-17 	1.23234 	1.6723 	1.03168
2.01508 	0.2001 	7.93615e-17 	1.22499 	1.67134 	1.02612
2.01807 	0.2001 	7.6239e-17 	2.14765 	2.05769 	1.46121
2.02106 	0.2001 	7.45043e-17 	4.62086 	2.63183 	2.45807
2.02405 	0.2001 	7.41573e-17 	5.00386 	2.7059 	2.58895
2.02704 	0.2001 	7.41573e-17 	5.11092 	2.72869 	2.62225
2.03003 	0.2001 	7.27696e-17 	5.22073 	2.74718 	2.66056
2.03302 	0.2001 	7.45043e-17 	5.31009 	2.75623 	2.69722
2.03601 	0.2001 	7.76268e-17 	5.37032 	2.75692 	2.72713
2.03899 	0.2001 	7.90146e-17 	5.40592 	2.75386 	2.74826
2.04198 	0.2001 	7.86676e-17 	5.42786 	2.74856 	2.76473
2.04497 	0.2001 	7.34635e-17 	5.44766 	2.74504 	2.77838
2.04796 	0.2001 	6.86062e-17 	5.46954 	2.74414 	2.79045
2.05095 	0.2001 	7.20757e-17 	5.49289 	2.74471 	2.80178
2.05394 	0.2001 	7.55451e-17 	5.51637 	2.74594 	2.8125
2.05693 	0.2001 	7.55451e-17 	5.53535 	2.74624 	2.82186
2.05992 	0.2001 	7.20757e-17 	5.54905 	2.74538 	2.82974
2.06291 	0.2001 	6.68715e-17 	5.55801 	2.74278 	2.83699
2.0659 	0.2001 	6.65246e-17 	5.55849 	2.73808 	2.84211
2.06889 	0.2001 	6.79123e-17 	5.5506 	2.73242 	2.84395
2.07188 	0.2001 	6.65246e-17 	5.54465 	2.72813 	2.84537
2.07486 	0.2001 	6.16673e-17 	5.53982 	2.72526 	2.84588
2.07785 	0.2001 	5.81979e-17 	5.53826 	2.7238 	2.84661
2.08084 	0.2001 	6.30551e-17 	5.54042 	2.72347 	2.84806
2.08383 	0.2001 	6.79123e-17 	5.54508 	2.72395 	2.84996
2.08682 	0.2001 	6.79123e-17 	5.55298 	2.72559 	2.8523
2.08981 	0.2001 	6.79123e-17 	5.5651 	2.72829 	2.8557
2.0928 	0.2001 	6.44429e-17 	5.57675 	2.73111 	2.85872
2.09579 	0.2001 	6.23612e-17 	5.58024 	2.73296 	2.85857
2.09878 	0.2001 	6.23612e-17 	5.57008 	2.73359 	2.85271
2.10177 	0.2001 	5.95857e-17 	5.5495 	2.73355 	2.84221
2.10476 	0.2001 	5.68101e-17 	5.52695 	2.73346 	2.83076
2.10774 	0.2001 	5.54223e-17 	5.50826 	2.73406 	2.82056
2.11073 	0.2001 	5.7504e-17 	5.49941 	2.73628 	2.81375
2.11372 	0.2001 	5.95857e-17 	5.50306 	2.74028 	2.81151
2.11671 	0.2001 	5.61162e-17 	5.51469 	2.7452 	2.8124
2.1197 	0.2001 	5.26468e-17 	5.52566 	2.7495 	2.81358
2.12269 	0.2001 	5.26468e-17 	5.52894 	2.7524 	2.81229
2.12568 	0.2001 	5.1259e-17 	5.52108 	2.75376 	2.8069
2.12867 	0.2001 	4.98712e-17 	5.50509 	2.75394 	2.79859
2.13166 	0.2001 	4.98712e-17 	5.48272 	2.75307 	2.7881
2.13465 	0.2001 	4.81365e-17 	5.45622 	2.75135 	2.77636
2.13764 	0.2001 	4.32793e-17 	5.4303 	2.74962 	2.76491
2.14063 	0.2001 	4.01568e-17 	5.41037 	2.74847 	2.75591
2.14361 	0.2001 	3.8769e-17 	5.40411 	2.74892 	2.75227
2.1466 	0.2001 	3.8769e-17 	5.41958 	2.75253 	2.75653
2.14959 	0.2001 	4.05037e-17 	5.44789 	2.75692 	2.76652
2.15258 	0.2001 	4.08507e-17 	5.4628 	2.75861 	2.77239
2.15557 	0.2001 	3.59934e-17 	5.44781 	2.75539 	2.76802
2.15856 	0.2001 	2.97484e-17 	5.42032 	2.74917 	2.76028
2.16155 	0.2001 	2.52381e-17 	5.38192 	2.74031 	2.74958
2.16454 	0.2001 	2.21156e-17 	5.34033 	2.72974 	2.7389
2.16753 	0.2001 	2.21156e-17 	5.31414 	2.72047 	2.73476
2.17052 	0.2001 	2.21156e-17 	5.30084 	2.71277 	2.73565
2.17351 	0.2001 	2.21156e-17 	5.29537 	2.70578 	2.73989
2.17649 	0.2001 	2.21156e-17 	5.30624 	2.70108 	2.75029
2.17948 	0.2001 	2.21156e-17 	5.31969 	2.69742 	2.76101
2.18247 	0.2001 	2.21156e-17 	5.31277 	2.69166 	2.76332
2.18546 	0.2001 	2.21156e-17 	5.29698 	2.68501 	2.76193
2.18845 	0.2001 	2.21156e-17 	5.27307 	2.67827 	2.75638
2.19144 	0.2001 	2.21156e-17 	5.23953 	2.67089 	2.74641
2.19443 	0.2001 	2.21156e-17 	5.20806 	2.66414 	2.73683
2.19742 	0.2001 	2.21156e-17 	5.1926 	2.66 	2.73296
2.20041 	0.2001 	2.21156e-17 	5.18309 	2.65717 	2.73086
2.2034 	0.2001 	2.21156e-17 	5.18267 	2.65614 	2.73169
2.20639 	0.2001 	2.21156e-17 	5.19298 	2.65649 	2.73677
2.20938 	0.2001 	2.21156e-17 	5.20926 	2.65773 	2.74407
2.21236 	0.2001 	2.21156e-17 	5.22409 	2.65915 	2.75041
2.21535 	0.2001 	2.21156e-17 	5.23143 	2.65977 	2.75363
2.21834 	0.2001 	2.21156e-17 	5.22601 	2.65871 	2.75188
2.22133 	0.2001 	2.21156e-17 	5.19987 	2.65499 	2.74195
2.22432 	0.2001 	2.21156e-17 	5.16161 	2.65009 	2.72681
2.22731 	0.2001 	2.21156e-17 	5.12583 	2.64595 	2.71214
2.2303 	0.2001 	2.21156e-17 	5.10209 	2.64362 	2.70196
2.23329 	0.2001 	2.21156e-17 	5.09944 	2.64447 	2.69969
2.23628 	0.2001 	2.21156e-17 	5.12115 	2.64985 	2.70568
2.23927 	0.2001 	2.21156e-17 	5.15763 	2.65755 	2.71705
2.24226 	0.2001 	2.21156e-17 	5.18047 	2.66297 	2.72353
2.24524 	0.2001 	2.21156e-17 	5.1597 	2.66216 	2.71344
2.24823 	0.2001 	2.21156e-17 	5.12008 	2.65983 	2.69496
2.25122 	0.2001 	2.21156e-17 	5.08136 	2.6579 	2.67652
2.25421 	0.2001 	2.21156e-17 	5.05401 	2.65767 	2.66235
2.2572 	0.2001 	2.21156e-17 	5.04273 	2.65977 	2.65431
2.26019 	0.2001 	2.21156e-17 	5.04925 	2.66483 	2.65269
2.26318 	0.2001 	2.21156e-17 	5.06619 	2.67159 	2.65486
2.26617 	0.2001 	2.21156e-17 	5.08803 	2.6784 	2.65952
2.26916 	0.2001 	2.21156e-17 	5.10182 	2.68322 	2.66194
2.27215 	0.2001 	2.21156e-17 	5.0856 	2.6832 	2.6535
2.27514 	0.2001 	2.21156e-17 	5.04745 	2.68029 	2.63645
2.27813 	0.2001 	2.21156e-17 	5.00731 	2.67666 	2.61903
2.28111 	0.2001 	2.21156e-17 	4.98181 	2.67481 	2.6075
2.2841 	0.2001 	2.21156e-17 	4.96879 	2.67426 	2.60122
2.28709 	0.2001 	2.21156e-17 	4.96608 	2.67473 	2.59934
2.29008 	0.2001 	2.21156e-17 	4.97021 	2.676 	2.60027
2.29307 	0.2001 	2.21156e-17 	4.97861 	2.67732 	2.60338
2.29606 	0.2001 	2.21156e-17 	4.9912 	2.67847 	2.60884
2.29905 	0.2001 	2.38504e-17 	5.00155 	2.6787 	2.61403
2.30204 	0.2001 	2.55851e-17 	4.99766 	2.6763 	2.61434
2.30503 	0.2001 	2.55851e-17 	4.97448 	2.67017 	2.60818
2.30802 	0.2001 	2.38504e-17 	4.94183 	2.66256 	2.59847
2.31101 	0.2001 	2.21156e-17 	4.90916 	2.65473 	2.58891
2.31399 	0.2001 	2.21156e-17 	4.87855 	2.64681 	2.58046
2.31698 	0.2001 	2.21156e-17 	4.85091 	2.63898 	2.57346
2.31997 	0.2001 	2.21156e-17 	4.8307 	2.63217 	2.56936
2.32296 	0.2001 	2.21156e-17 	4.81722 	2.62639 	2.56783
2.32595 	0.2001 	2.21156e-17 	4.8095 	2.6216 	2.5684
2.32894 	0.2001 	2.21156e-17 	4.8118 	2.61837 	2.5728
2.33193 	0.2001 	2.21156e-17 	4.82599 	2.61712 	2.58162
2.33492 	0.2001 	2.21156e-17 	4.84853 	2.61731 	2.59349
2.33791 	0.2001 	2.07279e-17 	4.8617 	2.61661 	2.60123
2.3409 	0.2001 	2.07279e-17 	4.8543 	2.61257 	2.60129
2.34389 	0.2001 	2.21156e-17 	4.83925 	2.60745 	2.59831
2.34688 	0.2001 	2.21156e-17 	4.81486 	2.60142 	2.59121
2.34986 	0.2001 	2.21156e-17 	4.78276 	2.59442 	2.58088
2.35285 	0.2001 	2.21156e-17 	4.74954 	2.58733 	2.56998
2.35584 	0.2001 	2.28095e-17 	4.72353 	2.58139 	2.56178
2.35883 	0.2001 	2.35034e-17 	4.70743 	2.57699 	2.55741
2.36182 	0.2001 	2.35034e-17 	4.69847 	2.57367 	2.55584