0.703125 	0.2001 	8.76882e-17 	1.80267 	0.723888 	0
0.709375 	0.2001 	8.94229e-17 	1.84628 	0.703347 	0
0.715625 	0.2001 	9.08107e-17 	1.88261 	0.688381 	0
0.721875 	0.2001 	9.08107e-17 	1.93011 	0.663673 	0
0.728125 	0.2001 	9.11576e-17 	1.97606 	0.632691 	0
0.734375 	0.2001 	9.28924e-17 	2.01628 	0.611268 	0
0.740625 	0.2001 	9.11576e-17 	2.04595 	0.594372 	0
0.746875 	0.2001 	9.08107e-17 	2.08961 	0.565055 	0
0.753125 	0.2001 	9.35862e-17 	2.07775 	0.562498 	0
0.759375 	0.2001 	9.80965e-17 	2.04057 	0.579425 	0
0.765625 	0.2001 	1.01219e-16 	1.92881 	0.640323 	0
0.771875 	0.2001 	9.94843e-17 	1.75684 	0.710614 	0
0.778125 	0.2001 	9.91374e-17 	1.53166 	0.699405 	0
0.784375 	0.2001 	1.01913e-16 	1.3197 	0.616576 	0
0.790625 	0.2001 	1.04688e-16 	1.06967 	0.506584 	0
0.796875 	0.2001 	1.07811e-16 	0.898631 	0.656261 	0
0.801495 	0.2001 	1.07811e-16 	1.66554 	0.610501 	0
0.804484 	0.2001 	1.06076e-16 	2.03094 	0.566808 	0
0.807473 	0.2001 	1.03995e-16 	2.16588 	0.369937 	0
0.810462 	0.2001 	1.00525e-16 	2.19558 	0.203488 	0
0.813451 	0.2001 	9.91374e-17 	2.22204 	0.0420619 	0
0.81644 	0.2001 	9.74026e-17 	2.26066 	-0.0350654 	0
0.819429 	0.2001 	9.56679e-17 	2.24296 	-0.0375609 	0
0.822418 	0.2001 	9.91374e-17 	2.20027 	-0.0475791 	0
0.825408 	0.2001 	1.03995e-16 	2.19236 	-0.0377017 	0
0.828397 	0.2001 	1.05382e-16 	2.2053 	-0.0317179 	0
0.831386 	0.2001 	1.07117e-16 	2.21186 	-0.0256731 	0
0.834375 	0.2001 	1.07464e-16 	2.2087 	-0.00523921 	0
0.837364 	0.2001 	1.04688e-16 	2.20322 	0.0036939 	0
0.840353 	0.2001 	1.01219e-16 	2.20488 	0.00357971 	0
0.843342 	0.2001 	9.77496e-17 	2.21899 	0.00418057 	0
0.846332 	0.2001 	9.77496e-17 	2.23245 	0.00471134 	0
0.849321 	0.2001 	1.02607e-16 	2.23701 	0.00514329 	0
0.85231 	0.2001 	1.06076e-16 	2.23845 	0.00580874 	0
0.855299 	0.2001 	1.06076e-16 	2.23492 	0.0032868 	0
0.858288 	0.2001 	1.06076e-16 	2.22659 	-0.000695774 	0
0.861277 	0.2001 	1.07464e-16 	2.21989 	-0.00149545 	0
0.864266 	0.2001 	1.10587e-16 	2.2178 	0.00033044 	0
0.867255 	0.2001 	1.11974e-16 	2.21567 	0.00269512 	0
0.870245 	0.2001 	1.13015e-16 	2.21339 	0.00393906 	0
0.873234 	0.2001 	1.14403e-16 	2.21615 	0.00290197 	0
0.876223 	0.2001 	1.14403e-16 	2.22274 	0.00124837 	0
0.879212 	0.2001 	1.16138e-16 	2.22519 	0.00055137 	0
0.882201 	0.2001 	1.17872e-16 	2.22659 	0.000151343 	0
0.88519 	0.2001 	1.16138e-16 	2.22681 	0.000694748 	0
0.888179 	0.2001 	1.14403e-16 	2.22359 	0.00107472 	0
0.891168 	0.2001 	1.15097e-16 	2.21994 	9.63266e-05 	0
0.894158 	0.2001 	1.15791e-16 	2.21915 	-0.000415224 	0
0.897147 	0.2001 	1.15791e-16 	2.21778 	-0.000545981 	0
0.900136 	0.2001 	1.15791e-16 	2.21577 	0.000370142 	0
0.903125 	0.2001 	1.18913e-16 	2.21443 	8.22816e-06 	0
0.906114 	0.2001 	1.20648e-16 	2.21392 	-0.00146826 	0
0.909103 	0.2001 	1.17525e-16 	2.21307 	-0.0027752 	0
0.912092 	0.2001 	1.12321e-16 	2.21338 	-0.00307503 	0
0.915082 	0.2001 	1.07464e-16 	2.21386 	-0.00315481 	0
0.918071 	0.2001 	1.07464e-16 	2.21566 	-0.00305832 	0
0.92106 	0.2001 	1.1024e-16 	2.21808 	-0.00224296 	0
0.924049 	0.2001 	1.13709e-16 	2.21979 	-0.000230252 	0
0.927038 	0.2001 	1.15791e-16 	2.22061 	0.00175857 	0
0.930027 	0.2001 	1.15791e-16 	2.22181 	0.00253644 	0
0.933016 	0.2001 	1.15791e-16 	2.2229 	0.00271765 	0
0.936005 	0.2001 	1.17178e-16 	2.22349 	0.00274546 	0
0.938995 	0.2001 	1.18566e-16 	2.22438 	0.00218665 	0
0.941984 	0.2001 	1.19954e-16 	2.22557 	0.000646179 	0
0.944973 	0.2001 	1.24464e-16 	2.2278 	-0.00124993 	0
0.947962 	0.2001 	1.27587e-16 	2.2305 	-0.00260732 	0
0.950951 	0.2001 	1.26199e-16 	2.23171 	-0.00300101 	0
0.95394 	0.2001 	1.27934e-16 	2.23309 	-0.00283754 	0
0.956929 	0.2001 	1.29322e-16 	2.23387 	-0.00201576 	0
0.959918 	0.2001 	1.27587e-16 	2.23293 	-0.000694167 	0
0.962908 	0.2001 	1.27587e-16 	2.23068 	0.000814193 	0
0.965897 	0.2001 	1.28975e-16 	2.2294 	0.00161241 	0
0.968886 	0.2001 	1.30362e-16 	2.22879 	0.00172835 	0
0.971875 	0.2001 	1.28628e-16 	2.22935 	0.00128191 	0
0.974864 	0.2001 	1.26893e-16 	2.23307 	0.000117202 	0
0.977853 	0.2001 	1.26893e-16 	2.23773 	-0.00184667 	0
0.980842 	0.2001 	1.23423e-16 	2.2392 	-0.00352263 	0
0.983832 	0.2001 	1.1926e-16 	2.23945 	-0.00390808 	0
0.986821 	0.2001 	1.18566e-16 	2.23918 	-0.00389264 	0
0.98981 	0.2001 	1.20301e-16 	2.23732 	-0.00331876 	0
0.992799 	0.2001 	1.22036e-16 	2.23467 	-0.00228285 	0
0.995788 	0.2001 	1.24811e-16 	2.23348 	-0.00184727 	0
0.998777 	0.2001 	1.28975e-16 	2.23198 	-0.00132726 	0
1.00177 	0.2001 	1.33832e-16 	2.23169 	-0.0011978 	0
1.00476 	0.2001 	1.39383e-16 	2.23426 	-0.00188518 	0
1.00774 	0.2001 	1.40077e-16 	2.23716 	-0.00312004 	0
1.01073 	0.2001 	1.38689e-16 	2.23712 	-0.00392838 	0
1.01372 	0.2001 	1.35914e-16 	2.23646 	-0.00416635 	0
1.01671 	0.2001 	1.34526e-16 	2.23605 	-0.0041222 	0
1.0197 	0.2001 	1.34526e-16 	2.23504 	-0.00345138 	0
1.02269 	0.2001 	1.33138e-16 	2.23377 	-0.00155967 	0
1.02568 	0.2001 	1.34526e-16 	2.23335 	0.000256849 	0
1.02867 	0.2001 	1.34526e-16 	2.2337 	0.00125365 	0
1.03166 	0.2001 	1.33485e-16 	2.23593 	0.00216034 	0
1.03465 	0.2001 	1.32444e-16 	2.24146 	0.00250945 	0
1.03764 	0.2001 	1.29668e-16 	2.24707 	0.00214642 	0
1.04063 	0.2001 	1.28975e-16 	2.24977 	0.00143077 	0
1.04361 	0.2001 	1.26893e-16 	2.2506 	0.000306252 	0
1.0466 	0.2001 	1.2273e-16 	2.25109 	-0.000933509 	0
1.04959 	0.2001 	1.19954e-16 	2.25147 	-0.00139921 	0
1.05258 	0.2001 	1.17525e-16 	2.25181 	-0.000729922 	0
1.05557 	0.2001 	1.15444e-16 	2.25291 	0.000795267 	0
1.05856 	0.2001 	1.13709e-16 	2.25424 	0.00211287 	0
1.06155 	0.2001 	1.13015e-16 	2.25547 	0.00273739 	0
1.06454 	0.2001 	1.11974e-16 	2.25662 	0.00272241 	0
1.06753 	0.2001 	1.10933e-16 	2.25896 	0.00204188 	0
1.07052 	0.2001 	1.10933e-16 	2.26121 	0.00134227 	0
1.07351 	0.2001 	1.10933e-16 	2.26286 	0.000787855 	0
1.07649 	0.2001 	1.10933e-16 	2.26453 	0.000144488 	0
1.07948 	0.2001 	1.13015e-16 	2.26625 	-0.000606869 	0
1.08247 	0.2001 	1.12321e-16 	2.26795 	-0.00136993 	0
1.08546 	0.2001 	1.09546e-16 	2.26962 	-0.0018007 	0
1.08845 	0.2001 	1.09546e-16 	2.27107 	-0.00174165 	0
1.09144 	0.2001 	1.08505e-16 	2.2722 	-0.00153603 	0
1.09443 	0.2001 	1.08158e-16 	2.27269 	-0.00146483 	0
1.09742 	0.2001 	1.09546e-16 	2.27274 	-0.00149962 	0
1.10041 	0.2001 	1.1024e-16 	2.27295 	-0.00176554 	0
1.1034 	0.2001 	1.1024e-16 	2.27348 	-0.0019959 	0
1.10639 	0.2001 	1.09199e-16 	2.27421 	-0.00222769 	0
1.10938 	0.2001 	1.1024e-16 	2.27519 	-0.00236605 	0
1.11236 	0.2001 	1.12668e-16 	2.27566 	-0.00230907 	0
1.11535 	0.2001 	1.13015e-16 	2.27604 	-0.00173638 	0
1.11834 	0.2001 	1.13015e-16 	2.27571 	-0.000250992 	0
1.12133 	0.2001 	1.13709e-16 	2.27513 	0.00155222 	0
1.12432 	0.2001 	1.14403e-16 	2.275 	0.00265107 	0
1.12731 	0.2001 	1.17872e-16 	2.27535 	0.00332317 	0
1.1303 	0.2001 	1.21342e-16 	2.27659 	0.00369166 	0
1.13329 	0.2001 	1.21342e-16 	2.27874 	0.00370149 	0
1.13628 	0.2001 	1.2273e-16 	2.28188 	0.0035434 	0
1.13927 	0.2001 	1.23077e-16 	2.28628 	0.00295812 	0
1.14226 	0.2001 	1.20648e-16 	2.29069 	0.00108429 	0
1.14524 	0.2001 	1.1926e-16 	2.29334 	-0.00199847 	0
1.14823 	0.2001 	1.1926e-16 	2.29433 	-0.00474283 	0
1.15122 	0.2001 	1.17525e-16 	2.29516 	-0.00626646 	0
1.15421 	0.2001 	1.15791e-16 	2.29572 	-0.00697466 	0
1.1572 	0.2001 	1.16485e-16 	2.29093 	-0.0062702 	0
1.16019 	0.2001 	1.17525e-16 	2.28503 	-0.0041042 	0
1.16318 	0.2001 	1.16485e-16 	2.28406 	-0.00145129 	0
1.16617 	0.2001 	1.15097e-16 	2.28501 	0.000528091 	0
1.16916 	0.2001 	1.17178e-16 	2.28605 	0.00167764 	0
1.17215 	0.2001 	1.20648e-16 	2.28803 	0.00261514 	0
1.17514 	0.2001 	1.24117e-16 	2.29174 	0.0033329 	0
1.17813 	0.2001 	1.26199e-16 	2.29412 	0.00350874 	0
1.18111 	0.2001 	1.26199e-16 	2.29493 	0.00345331 	0
1.1841 	0.2001 	1.26199e-16 	2.29549 	0.0033393 	0
1.18709 	0.2001 	1.26546e-16 	2.29636 	0.00315606 	0
1.19008 	0.2001 	1.26893e-16 	2.29778 	0.0028765 	0
1.19307 	0.2001 	1.28975e-16 	2.29969 	0.00247444 	0
1.19606 	0.2001 	1.31056e-16 	2.3017 	0.0019633 	0
1.19905 	0.2001 	1.31056e-16 	2.30317 	0.00130498 	0
1.20204 	0.2001 	1.31403e-16 	2.30366 	0.000500786 	0
1.20503 	0.2001 	1.3175e-16 	2.30358 	-0.000584388 	0
1.20802 	0.2001 	1.3175e-16 	2.30304 	-0.00186085 	0
1.21101 	0.2001 	1.33832e-16 	2.30059 	-0.00258157 	0
1.21399 	0.2001 	1.35914e-16 	2.29517 	-0.00228015 	0
1.21698 	0.2001 	1.37995e-16 	2.29186 	-0.00138599 	0
1.21997 	0.2001 	1.40424e-16 	2.29154 	-0.000113368 	0
1.22296 	0.2001 	1.41465e-16 	2.29184 	0.00112819 	0
1.22595 	0.2001 	1.40771e-16 	2.2923 	0.00195691 	0
1.22894 	0.2001 	1.39383e-16 	2.29375 	0.00272621 	0
1.23193 	0.2001 	1.39383e-16 	2.29693 	0.00295735 	0
1.23492 	0.2001 	1.39383e-16 	2.29957 	0.00231019 	0
1.23791 	0.2001 	1.34873e-16 	2.30032 	0.00147488 	0
1.2409 	0.2001 	1.33485e-16 	2.30033 	0.000833673 	0
1.24389 	0.2001 	1.40077e-16 	2.30026 	0.000483344 	0
1.24688 	0.2001 	1.43546e-16 	2.29976 	-5.49415e-05 	0
1.24986 	0.2001 	1.4424e-16 	2.29788 	-0.000851652 	0
1.25285 	0.2001 	1.45281e-16 	2.29522 	-0.00090681 	0
1.25584 	0.2001 	1.45628e-16 	2.29351 	1.57633e-05 	0
1.25883 	0.2001 	1.45628e-16 	2.29222 	0.00129524 	0
1.26182 	0.2001 	1.45628e-16 	2.29072 	0.00244153 	0
1.26481 	0.2001 	1.4771e-16 	2.28939 	0.00305443 	0
1.2678 	0.2001 	1.49791e-16 	2.28886 	0.00320643 	0
1.27079 	0.2001 	1.49791e-16 	2.28866 	0.00324749 	0
1.27378 	0.2001 	1.49791e-16 	2.28973 	0.00304339 	0
1.27677 	0.2001 	1.47363e-16 	2.29247 	0.00220877 	0
1.27976 	0.2001 	1.40771e-16 	2.29537 	0.000334289 	0
1.28274 	0.2001 	1.3522e-16 	2.29698 	-0.00104082 	0
1.28573 	0.2001 	1.29668e-16 	2.29775 	-0.00134515 	0
1.28872 	0.2001 	1.27587e-16 	2.2984 	-0.00121202 	0
1.29171 	0.2001 	1.26199e-16 	2.29776 	-0.000732268 	0
1.2947 	0.2001 	1.24811e-16 	2.29494 	0.000392764 	0
1.29769 	0.2001 	1.2273e-16 	2.29143 	0.00195865 	0
1.30068 	0.2001 	1.23423e-16 	2.28982 	0.00281513 	0
1.30367 	0.2001 	1.28281e-16 	2.28955 	0.00295183 	0
1.30666 	0.2001 	1.28628e-16 	2.28981 	0.00292881 	0
1.30965 	0.2001 	1.28975e-16 	2.29199 	0.00267823 	0
1.31264 	0.2001 	1.29668e-16 	2.29619 	0.0019144 	0
1.31563 	0.2001 	1.26199e-16 	2.29885 	9.78289e-05 	0
1.31861 	0.2001 	1.22036e-16 	2.29933 	-0.00120675 	0
1.3216 	0.2001 	1.2377e-16 	2.29924 	-0.00175008 	0
1.32459 	0.2001 	1.26199e-16 	2.29744 	-0.00198694 	0
1.32758 	0.2001 	1.3175e-16 	2.29502 	-0.00132995 	0
1.33057 	0.2001 	1.3522e-16 	2.29504 	-0.000302649 	0
1.33356 	0.2001 	1.32444e-16 	2.29557 	0.000397062 	0
1.33655 	0.2001 	1.29322e-16 	2.29649 	0.00109713 	0
1.33954 	0.2001 	1.25158e-16 	2.29826 	0.0015745 	0
1.34253 	0.2001 	1.2273e-16 	2.29957 	0.00150802 	0
1.34552 	0.2001 	1.20995e-16 	2.29964 	0.00136328 	0
1.34851 	0.2001 	1.1926e-16 	2.29947 	0.0012045 	0
1.35149 	0.2001 	1.1926e-16 	2.29935 	0.000966317 	0
1.35448 	0.2001 	1.15791e-16 	2.29938 	0.000301317 	0
1.35747 	0.2001 	1.1024e-16 	2.30011 	-0.000825238 	0
1.36046 	0.2001 	1.12321e-16 	2.3007 	-0.00134677 	0
1.36345 	0.2001 	1.16485e-16 	2.30121 	-0.000995074 	0
1.36644 	0.2001 	1.16485e-16 	2.30189 	6.19092e-05 	0
1.36943 	0.2001 	1.16485e-16 	2.30248 	0.000677254 	0
1.37242 	0.2001 	1.15097e-16 	2.30359 	0.0012468 	0
1.37541 	0.2001 	1.15097e-16 	2.30527 	0.00156328 	0
1.3784 	0.2001 	1.16485e-16 	2.30698 	0.0015786 	0
1.38139 	0.2001 	1.16485e-16 	2.30853 	0.00131998 	0
1.38438 	0.2001 	1.13015e-16 	2.31011 	0.000194206 	0
1.38736 	0.2001 	1.0677e-16 	2.31227 	-0.00164909 	0
1.39035 	0.2001 	1.06076e-16 	2.31468 	-0.00343655 	0
1.39334 	0.2001 	1.0677e-16 	2.31619 	-0.0040984 	0
1.39633 	0.2001 	1.05382e-16 	2.31706 	-0.00385684 	0
1.39932 	0.2001 	1.0677e-16 	2.31612 	-0.00244407 	0
1.40231 	0.2001 	1.09546e-16 	2.31556 	-0.000681293 	0
1.4053 	0.2001 	1.09893e-16 	2.31565 	0.000856386 	0
1.40829 	0.2001 	1.07464e-16 	2.31588 	0.00171736 	0
1.41128 	0.2001 	1.04688e-16 	2.31645 	0.0021265 	0
1.41427 	0.2001 	1.03301e-16 	2.31828 	0.00221428 	0
1.41726 	0.2001 	1.00525e-16 	2.32149 	0.00191111 	0
1.42024 	0.2001 	9.98313e-17 	2.32562 	0.00114207 	0
1.42323 	0.2001 	1.0226e-16 	2.32858 	-0.000625546 	0
1.42622 	0.2001 	1.06076e-16 	2.32965 	-0.00211108 	0
1.42921 	0.2001 	1.08158e-16 	2.33016 	-0.00267879 	0
1.4322 	0.2001 	1.0677e-16 	2.32967 	-0.002778 	0
1.43519 	0.2001 	1.0677e-16 	2.32628 	-0.00200365 	0
1.43818 	0.2001 	1.0677e-16 	2.32442 	-0.00037826 	0
1.44117 	0.2001 	1.0677e-16 	2.32449 	0.00110724 	0
1.44416 	0.2001 	1.0677e-16 	2.32489 	0.00178156 	0
1.44715 	0.2001 	1.07464e-16 	2.3264 	0.00226184 	0
1.45014 	0.2001 	1.08158e-16 	2.33112 	0.00222439 	0
1.45313 	0.2001 	1.08158e-16 	2.3381 	0.00136386 	0
1.45611 	0.2001 	1.08505e-16 	2.3417 	-0.000274016 	0
1.4591 	0.2001 	1.08852e-16 	2.34253 	-0.00171132 	0
1.46209 	0.2001 	1.08852e-16 	2.34297 	-0.0023971 	0
1.46508 	0.2001 	1.08852e-16 	2.34308 	-0.0025946 	0
1.46807 	0.2001 	1.08852e-16 	2.34009 	-0.00172104 	0
1.47106 	0.2001 	1.09546e-16 	2.33765 	4.19331e-05 	0
1.47405 	0.2001 	1.1024e-16 	2.3376 	0.00132565 	0
1.47704 	0.2001 	1.1024e-16 	2.33796 	0.0018754 	0
1.48003 	0.2001 	1.1024e-16 	2.33924 	0.00214769 	0
1.48302 	0.2001 	1.07464e-16 	2.34104 	0.00182939 	0
1.48601 	0.2001 	1.04688e-16 	2.34228 	0.0013627 	0
1.48899 	0.2001 	1.03648e-16 	2.34304 	0.000543936 	0
1.49198 	0.2001 	1.02607e-16 	2.34383 	-0.000852052 	0
1.49497 	0.2001 	1.02607e-16 	2.34467 	-0.0019349 	0
1.49796 	0.2001 	1.01566e-16 	2.3457 	-0.00218306 	0
1.50095 	0.2001 	1.00525e-16 	2.34663 	-0.00188084 	0
1.50394 	0.2001 	1.00525e-16 	2.34719 	-0.00103369 	0
1.50693 	0.2001 	1.00525e-16 	2.3478 	-0.000199394 	0
1.50992 	0.2001 	1.00525e-16 	2.34798 	0.000554776 	0
1.51291 	0.2001 	1.01913e-16 	2.34745 	0.00119867 	0
1.5159 	0.2001 	1.03301e-16 	2.3463 	0.00165634 	0
1.51889 	0.2001 	1.03995e-16 	2.34569 	0.00176122 	0
1.52188 	0.2001 	1.05035e-16 	2.34577 	0.00171501 	0
1.52486 	0.2001 	1.08852e-16 	2.34674 	0.00145917 	0
1.52785 	0.2001 	1.12321e-16 	2.34898 	0.000875593 	0
1.53084 	0.2001 	1.1128e-16 	2.35023 	9.16846e-05 	0
1.53383 	0.2001 	1.1024e-16 	2.35045 	-0.000563988 	0
1.53682 	0.2001 	1.13709e-16 	2.35034 	-0.00120188 	0
1.53981 	0.2001 	1.17178e-16 	2.34946 	-0.00157166 	0
1.5428 	0.2001 	1.17178e-16 	2.34933 	-0.00163929 	0
1.54579 	0.2001 	1.17872e-16 	2.34966 	-0.0016728 	0
1.54878 	0.2001 	1.18566e-16 	2.35052 	-0.001764 	0
1.55177 	0.2001 	1.18566e-16 	2.35266 	-0.00198498 	0
1.55476 	0.2001 	1.18566e-16 	2.35458 	-0.00227996 	0
1.55774 	0.2001 	1.18566e-16 	2.35526 	-0.00238197 	0
1.56073 	0.2001 	1.18566e-16 	2.35624 	-0.00249438 	0
1.56372 	0.2001 	1.16485e-16 	2.35639 	-0.00249626 	0
1.56671 	0.2001 	1.14403e-16 	2.35394 	-0.00211961 	0
1.5697 	0.2001 	1.15097e-16 	2.34984 	-0.00102479 	0
1.57269 	0.2001 	1.15791e-16 	2.3478 	0.000353612 	0
1.57568 	0.2001 	1.15791e-16 	2.34743 	0.00158053 	0
1.57867 	0.2001 	1.15791e-16 	2.34759 	0.00240043 	0
1.58166 	0.2001 	1.16138e-16 	2.34791 	0.00276586 	0
1.58465 	0.2001 	1.17872e-16 	2.34943 	0.0029596 	0
1.58764 	0.2001 	1.17872e-16 	2.35312 	0.0025132 	0
1.59063 	0.2001 	1.17178e-16 	2.35641 	0.00186446 	0
1.59361 	0.2001 	1.14403e-16 	2.357 	0.00173982 	0
1.5966 	0.2001 	1.10933e-16 	2.35694 	0.00172261 	0
1.59959 	0.2001 	1.10933e-16 	2.3561 	0.00126817 	0
1.60258 	0.2001 	1.11627e-16 	2.35416 	-0.000123476 	0
1.60557 	0.2001 	1.12321e-16 	2.35239 	-0.00147497 	0
1.60856 	0.2001 	1.12668e-16 	2.35199 	-0.00224673 	0
1.61155 	0.2001 	1.11627e-16 	2.35239 	-0.00255989 	0
1.61454 	0.2001 	1.1024e-16 	2.35302 	-0.00256975 	0
1.61753 	0.2001 	1.07117e-16 	2.35328 	-0.00237044 	0
1.62052 	0.2001 	1.03995e-16 	2.35296 	-0.00193695 	0
1.62351 	0.2001 	1.03995e-16 	2.3526 	-0.00142005 	0
1.62649 	0.2001 	1.03995e-16 	2.35284 	-0.00107272 	0
1.62948 	0.2001 	1.03648e-16 	2.3534 	-0.000876227 	0
1.63247 	0.2001 	1.03301e-16 	2.35406 	-0.000599488 	0
1.63546 	0.2001 	1.03301e-16 	2.35464 	-0.000252001 	0
1.63845 	0.2001 	1.03301e-16 	2.35523 	-2.14582e-05 	0
1.64144 	0.2001 	1.01913e-16 	2.35573 	0.0002271 	0
1.64443 	0.2001 	1.00525e-16 	2.35601 	0.00047107 	0
1.64742 	0.2001 	1.00525e-16 	2.35593 	0.000778828 	0
1.65041 	0.2001 	1.00525e-16 	2.35511 	0.00119451 	0
1.6534 	0.2001 	1.00525e-16 	2.35304 	0.00168673 	0
1.65639 	0.2001 	9.94843e-17 	2.35085 	0.00206036 	0
1.65938 	0.2001 	9.84435e-17 	2.35022 	0.00217872 	0
1.66236 	0.2001 	9.84435e-17 	2.35011 	0.00222096 	0
1.66535 	0.2001 	1.03301e-16 	2.35021 	0.00228784 	0
1.66834 	0.2001 	1.1024e-16 	2.35112 	0.00232877 	0
1.67133 	0.2001 	1.12321e-16 	2.3532 	0.00227249 	0
1.67432 	0.2001 	1.12668e-16 	2.35564 	0.00196622 	0
1.67731 	0.2001 	1.13015e-16 	2.35692 	0.000935602 	0
1.6803 	0.2001 	1.16485e-16 	2.35732 	-0.000549841 	0
1.68329 	0.2001 	1.20301e-16 	2.35757 	-0.00163021 	0
1.68628 	0.2001 	1.20648e-16 	2.35777 	-0.00223411 	0
1.68927 	0.2001 	1.24117e-16 	2.3567 	-0.00215041 	0
1.69226 	0.2001 	1.27587e-16 	2.35452 	-0.00113907 	0
1.69524 	0.2001 	1.29668e-16 	2.35379 	5.42602e-05 	0
1.69823 	0.2001 	1.3175e-16 	2.35373 	0.000972162 	0
1.70122 	0.2001 	1.3175e-16 	2.35356 	0.00161224 	0
1.70421 	0.2001 	1.30362e-16 	2.35306 	0.00199823 	0
1.7072 	0.2001 	1.30362e-16 	2.35237 	0.00214199 	0
1.71019 	0.2001 	1.3175e-16 	2.35209 	0.00211475 	0
1.71318 	0.2001 	1.3175e-16 	2.35215 	0.0020739 	0
1.71617 	0.2001 	1.3175e-16 	2.35263 	0.00196363 	0
1.71916 	0.2001 	1.3175e-16 	2.35385 	0.00181686 	0
1.72215 	0.2001 	1.30709e-16 	2.35595 	0.00165116 	0
1.72514 	0.2001 	1.29668e-16 	2.3588 	0.00140125 	0
1.72813 	0.2001 	1.28281e-16 	2.36125 	0.00100417 	0
1.73111 	0.2001 	1.25505e-16 	2.36239 	0.000651591 	0
1.7341 	0.2001 	1.20995e-16 	2.36247 	0.000434297 	0
1.73709 	0.2001 	1.16485e-16 	2.3622 	0.000245831 	0
1.74008 	0.2001 	1.15097e-16 	2.36121 	-0.000208347 	0
1.74307 	0.2001 	1.15097e-16 	2.35917 	-0.000847093 	0
1.74606 	0.2001 	1.15097e-16 	2.35802 	-0.00155064 	0
1.74905 	0.2001 	1.15791e-16 	2.35841 	-0.00178269 	0
1.75204 	0.2001 	1.16485e-16 	2.35902 	-0.00202498 	0
1.75503 	0.2001 	1.15097e-16 	2.36018 	-0.00232455 	0
1.75802 	0.2001 	1.13709e-16 	2.36123 	-0.00239981 	0
1.76101 	0.2001 	1.16832e-16 	2.36228 	-0.0021334 	0
1.76399 	0.2001 	1.19954e-16 	2.36322 	-0.00126192 	0
1.76698 	0.2001 	1.22036e-16 	2.36407 	-0.00056853 	0
1.76997 	0.2001 	1.24117e-16 	2.36481 	7.8872e-05 	0
1.77296 	0.2001 	1.24117e-16 	2.36547 	0.00078675 	0
1.77595 	0.2001 	1.26199e-16 	2.36629 	0.00143446 	0
1.77894 	0.2001 	1.26893e-16 	2.36737 	0.00158962 	0
1.78193 	0.2001 	1.25505e-16 	2.36843 	0.00150767 	0
1.78492 	0.2001 	1.25505e-16 	2.36862 	0.00149545 	0
1.78791 	0.2001 	1.25505e-16 	2.36873 	0.00141428 	0
1.7909 	0.2001 	1.25505e-16 	2.36854 	0.00129322 	0
1.79389 	0.2001 	1.23077e-16 	2.36849 	0.000583529 	0
1.79688 	0.2001 	1.24464e-16 	2.36863 	-9.98372e-05 	0
1.79986 	0.2001 	1.25505e-16 	2.36922 	-0.000810913 	0
1.80285 	0.2001 	1.21342e-16 	2.37065 	-0.00159798 	0
1.80584 	0.2001 	1.18566e-16 	2.37241 	-0.00177271 	0
1.80883 	0.2001 	1.17178e-16 	2.37343 	-0.00114272 	0
1.81182 	0.2001 	1.15791e-16 	2.37492 	-0.000138179 	0
1.81481 	0.2001 	1.15097e-16 	2.37708 	0.00102475 	0
1.8178 	0.2001 	1.14403e-16 	2.37862 	0.0014791 	0
1.82079 	0.2001 	1.13015e-16 	2.37856 	0.00135874 	0
1.82378 	0.2001 	1.13015e-16 	2.37815 	0.00123614 	0
1.82677 	0.2001 	1.13709e-16 	2.37796 	0.00102063 	0
1.82976 	0.2001 	1.14403e-16 	2.37804 	0.000343459 	0
1.83274 	0.2001 	1.13362e-16 	2.37853 	-0.0012284 	0
1.83573 	0.2001 	1.12321e-16 	2.37953 	-0.00239282 	0
1.83872 	0.2001 	1.12321e-16 	2.38042 	-0.00269843 	0
1.84171 	0.2001 	1.1128e-16 	2.38101 	-0.00234252 	0
1.8447 	0.2001 	1.1024e-16 	2.38042 	-0.000795733 	0
1.84769 	0.2001 	1.10587e-16 	2.38044 	0.000585758 	0
1.85068 	0.2001 	1.09546e-16 	2.38065 	0.00123216 	0
1.85367 	0.2001 	1.08852e-16 	2.38151 	0.00181436 	0
1.85666 	0.2001 	1.09546e-16 	2.38322 	0.00193356 	0
1.85965 	0.2001 	1.11627e-16 	2.3856 	0.001678 	0
1.86264 	0.2001 	1.13709e-16 	2.38862 	0.000814309 	0
1.86563 	0.2001 	1.13709e-16 	2.39157 	-0.000844005 	0
1.86861 	0.2001 	1.13709e-16 	2.39321 	-0.0022446 	0
1.8716 	0.2001 	1.12321e-16 	2.39388 	-0.00269705 	0
1.87459 	0.2001 	1.10933e-16 	2.39419 	-0.00276921 	0
1.87758 	0.2001 	1.09546e-16 	2.39116 	-0.00216818 	0
1.88057 	0.2001 	1.07117e-16 	2.38688 	-0.00052835 	0
1.88356 	0.2001 	1.07464e-16 	2.38525 	0.00103785 	0
1.88655 	0.2001 	1.07464e-16 	2.38524 	0.00158326 	0
1.88954 	0.2001 	1.08158e-16 	2.38551 	0.00181301 	0
1.89253 	0.2001 	1.07811e-16 	2.38684 	0.00199807 	0
1.89552 	0.2001 	1.05382e-16 	2.39064 	0.00177908 	0
1.89851 	0.2001 	1.05382e-16 	2.39613 	0.000866119 	0
1.90149 	0.2001 	1.05382e-16 	2.39895 	-0.000508974 	0
1.90448 	0.2001 	1.03995e-16 	2.39943 	-0.00125767 	0
1.90747 	0.2001 	1.04688e-16 	2.39996 	-0.00173163 	0
1.91046 	0.2001 	1.0677e-16 	2.39951 	-0.00165713 	0
1.91345 	0.2001 	1.0677e-16 	2.39578 	-0.000653835 	0
1.91644 	0.2001 	1.05729e-16 	2.39268 	0.00105522 	0
1.91943 	0.2001 	1.04688e-16 	2.39219 	0.00201669 	0
1.92242 	0.2001 	1.04688e-16 	2.3924 	0.00221382 	0
1.92541 	0.2001 	1.03648e-16 	2.39338 	0.0022332 	0
1.9284 	0.2001 	1.02607e-16 	2.3954 	0.00198436 	0
1.93139 	0.2001 	1.00872e-16 	2.39694 	0.00154254 	0
1.93438 	0.2001 	9.80965e-17 	2.3974 	0.000638461 	0
1.93736 	0.2001 	1.00525e-16 	2.39751 	-0.000525151 	0
1.94035 	0.2001 	1.03995e-16 	2.39803 	-0.00166984 	0
1.94334 	0.2001 	9.91374e-17 	2.39868 	-0.00200626 	0
1.94633 	0.2001 	9.28924e-17 	2.39856 	-0.00126823 	0
1.94932 	0.2001 	9.15046e-17 	2.39874 	0.000242957 	0
1.95231 	0.2001 	8.8729e-17 	2.39957 	0.00119769 	0
1.9553 	0.2001 	8.45657e-17 	2.40058 	0.0015963 	0
1.95829 	0.2001 	8.31779e-17 	2.40133 	0.00183556 	0
1.96128 	0.2001 	7.90146e-17 	2.40194 	0.0019008 	0
1.96427 	0.2001 	7.97085e-17 	2.40207 	0.00202561 	0
1.96726 	0.2001 	8.45657e-17 	2.40158 	0.00206883 	0
1.97024 	0.2001 	8.45657e-17 	2.40059 	0.00143464 	0
1.97323 	0.2001 	8.69943e-17 	2.39953 	-8.23847e-06 	0
1.97622 	0.2001 	8.94229e-17 	2.39899 	-0.00121541 	0
1.97921 	0.2001 	8.94229e-17 	2.39868 	-0.0015811 	0
1.9822 	0.2001 	8.97699e-17 	2.39798 	-0.00116247 	0
1.98519 	0.2001 	9.18515e-17 	2.39686 	-4.40304e-05 	0
1.98818 	0.2001 	9.35862e-17 	2.39568 	0.00127858 	0
1.99117 	0.2001 	9.21985e-17 	2.3948 	0.00223827 	0
1.99416 	0.2001 	8.94229e-17 	2.39474 	0.00247883 	0
1.99715 	0.2001 	8.66474e-17 	2.39513 	0.00243026 	0
2.00014 	0.2001 	8.52596e-17 	2.39671 	0.00208982 	0
2.00313 	0.2001 	8.35249e-17 	2.39947 	0.00129068 	0
2.00611 	0.2001 	8.21371e-17 	2.40113 	0.000144321 	0
2.0091 	0.2001 	8.2484e-17 	2.4016 	-0.000706666 	0
2.01209 	0.2001 	8.2484e-17 	2.40223 	-0.00141466 	0
2.01508 	0.2001 	7.93615e-17 	2.39947 	-0.000633972 	0
2.01807 	0.2001 	7.6239e-17 	1.82086 	0.0106947 	0
2.02106 	0.2001 	7.45043e-17 	0.945539 	0.0142271 	0
2.02405 	0.2001 	7.41573e-17 	0.829907 	0.0213543 	0
2.02704 	0.2001 	7.41573e-17 	0.782996 	0.0202809 	0
2.03003 	0.2001 	7.27696e-17 	0.74222 	0.0200053 	0
2.03302 	0.2001 	7.45043e-17 	0.706916 	0.0188642 	0
2.03601 	0.2001 	7.76268e-17 	0.673413 	0.0155148 	0
2.03899 	0.2001 	7.90146e-17 	0.645943 	0.0101907 	0
2.04198 	0.2001 	7.86676e-17 	0.626766 	0.00549499 	0
2.04497 	0.2001 	7.34635e-17 	0.614772 	0.00383802 	0
2.04796 	0.2001 	6.86062e-17 	0.606613 	0.00418554 	0
2.05095 	0.2001 	7.20757e-17 	0.599317 	0.00414616 	0
2.05394 	0.2001 	7.55451e-17 	0.593217 	0.00338484 	0
2.05693 	0.2001 	7.55451e-17 	0.587901 	0.00286034 	0
2.05992 	0.2001 	7.20757e-17 	0.58453 	0.00232351 	0
2.06291 	0.2001 	6.68715e-17 	0.582649 	0.00110323 	0
2.0659 	0.2001 	6.65246e-17 	0.580277 	0.000280418 	0
2.06889 	0.2001 	6.79123e-17 	0.577724 	-0.000476962 	0
2.07188 	0.2001 	6.65246e-17 	0.576817 	-0.00110132 	0
2.07486 	0.2001 	6.16673e-17 	0.577501 	-0.00160885 	0
2.07785 	0.2001 	5.81979e-17 	0.580064 	-0.00216255 	0
2.08084 	0.2001 	6.30551e-17 	0.584546 	-0.00251325 	0
2.08383 	0.2001 	6.79123e-17 	0.590361 	-0.00266859 	0
2.08682 	0.2001 	6.79123e-17 	0.597564 	-0.00271652 	0
2.08981 	0.2001 	6.79123e-17 	0.60628 	-0.00269687 	0
2.0928 	0.2001 	6.44429e-17 	0.615381 	-0.00291687 	0
2.09579 	0.2001 	6.23612e-17 	0.623237 	-0.0036186 	0
2.09878 	0.2001 	6.23612e-17 	0.629367 	-0.00420972 	0
2.10177 	0.2001 	5.95857e-17 	0.633591 	-0.00449529 	0
2.10476 	0.2001 	5.68101e-17 	0.637502 	-0.00446043 	0
2.10774 	0.2001 	5.54223e-17 	0.642121 	-0.00425141 	0
2.11073 	0.2001 	5.7504e-17 	0.648648 	-0.00390287 	0
2.11372 	0.2001 	5.95857e-17 	0.657838 	-0.00357274 	0
2.11671 	0.2001 	5.61162e-17 	0.668176 	-0.00337729 	0
2.1197 	0.2001 	5.26468e-17 	0.677917 	-0.00332219 	0
2.12269 	0.2001 	5.26468e-17 	0.685907 	-0.00363368 	0
2.12568 	0.2001 	5.1259e-17 	0.691683 	-0.00400735 	0
2.12867 	0.2001 	4.98712e-17 	0.69605 	-0.00431843 	0
2.13166 	0.2001 	4.98712e-17 	0.699766 	-0.0042623 	0
2.13465 	0.2001 	4.81365e-17 	0.702622 	-0.0040286 	0
2.13764 	0.2001 	4.32793e-17 	0.705435 	-0.00357008 	0
2.14063 	0.2001 	4.01568e-17 	0.709155 	-0.00313835 	0
2.14361 	0.2001 	3.8769e-17 	0.715977 	-0.00258266 	0
2.1466 	0.2001 	3.8769e-17 	0.726078 	-0.00211109 	0
2.14959 	0.2001 	4.05037e-17 	0.738833 	-0.00210883 	0
2.15258 	0.2001 	4.08507e-17 	0.747956 	-0.00235705 	0
2.15557 	0.2001 	3.59934e-17 	0.752357 	-0.00235512 	0
2.15856 	0.2001 	2.97484e-17 	0.753031 	-0.00204449 	0
2.16155 	0.2001 	2.52381e-17 	0.750727 	-0.00111157 	0
2.16454 	0.2001 	2.21156e-17 	0.746523 	0.00022719 	0
2.16753 	0.2001 	2.21156e-17 	0.744558 	0.00104515 	0
2.17052 	0.2001 	2.21156e-17 	0.744175 	0.00126424 	0
2.17351 	0.2001 	2.21156e-17 	0.744961 	0.00121145 	0
2.17649 	0.2001 	2.21156e-17 	0.748952 	0.000634835 	0
2.17948 	0.2001 	2.21156e-17 	0.753999 	-2.8828e-05 	0
2.18247 	0.2001 	2.21156e-17 	0.755231 	-0.000266364 	0
2.18546 	0.2001 	2.21156e-17 	0.754987 	-0.000217925 	0
2.18845 	0.2001 	2.21156e-17 	0.753399 	0.000123862 	0
2.19144 	0.2001 	2.21156e-17 	0.749779 	0.000786469 	0
2.19443 	0.2001 	2.21156e-17 	0.746462 	0.00135899 	0
2.19742 	0.2001 	2.21156e-17 	0.746169 	0.00135265 	0
2.20041 	0.2001 	2.21156e-17 	0.747745 	0.000952644 	0
2.2034 	0.2001 	2.21156e-17 	0.751778 	-0.000118182 	0
2.20639 	0.2001 	2.21156e-17 	0.758645 	-0.0017878 	0
2.20938 	0.2001 	2.21156e-17 	0.767882 	-0.00350273 	0
2.21236 	0.2001 	2.21156e-17 	0.778115 	-0.00488583 	0
2.21535 	0.2001 	2.21156e-17 	0.788159 	-0.00609765 	0
2.21834 	0.2001 	2.21156e-17 	0.797297 	-0.00735431 	0
2.22133 	0.2001 	2.21156e-17 	0.803774 	-0.00791363 	0
2.22432 	0.2001 	2.21156e-17 	0.808366 	-0.00754092 	0
2.22731 	0.2001 	2.21156e-17 	0.81325 	-0.00624997 	0
2.2303 	0.2001 	2.21156e-17 	0.820032 	-0.00476063 	0
2.23329 	0.2001 	2.21156e-17 	0.830396 	-0.00361578 	0
2.23628 	0.2001 	2.21156e-17 	0.844668 	-0.00342633 	0
2.23927 	0.2001 	2.21156e-17 	0.862096 	-0.00485558 	0
2.24226 	0.2001 	2.21156e-17 	0.875819 	-0.00709525 	0
2.24524 	0.2001 	2.21156e-17 	0.88388 	-0.00815673 	0
2.24823 	0.2001 	2.21156e-17 	0.888731 	-0.00786699 	0
2.25122 	0.2001 	2.21156e-17 	0.893329 	-0.00616288 	0
2.25421 	0.2001 	2.21156e-17 	0.898956 	-0.00443865 	0
2.2572 	0.2001 	2.21156e-17 	0.906449 	-0.00315086 	0
2.26019 	0.2001 	2.21156e-17 	0.916853 	-0.00269031 	0
2.26318 	0.2001 	2.21156e-17 	0.929051 	-0.00311033 	0
2.26617 	0.2001 	2.21156e-17 	0.941986 	-0.00484145 	0
2.26916 	0.2001 	2.21156e-17 	0.953433 	-0.00698551 	0
2.27215 	0.2001 	2.21156e-17 	0.96074 	-0.00798632 	0
2.27514 	0.2001 	2.21156e-17 	0.964715 	-0.0069377 	0
2.27813 	0.2001 	2.21156e-17 	0.967231 	-0.00450478 	0
2.28111 	0.2001 	2.21156e-17 	0.971004 	-0.0020633 	0
2.2841 	0.2001 	2.21156e-17 	0.975532 	-0.000227623 	0
2.28709 	0.2001 	2.21156e-17 	0.981179 	0.000579966 	0
2.29008 	0.2001 	2.21156e-17 	0.987696 	0.000590298 	0
2.29307 	0.2001 	2.21156e-17 	0.994725 	-0.000259402 	0
2.29606 	0.2001 	2.21156e-17 	1.00248 	-0.00228638 	0
2.29905 	0.2001 	2.38504e-17 	1.0103 	-0.00452054 	0
2.30204 	0.2001 	2.55851e-17 	1.01653 	-0.00571727 	0
2.30503 	0.2001 	2.55851e-17 	1.01941 	-0.00574588 	0
2.30802 	0.2001 	2.38504e-17 	1.02048 	-0.0046096 	0
2.31101 	0.2001 	2.21156e-17 	1.0208 	-0.00297339 	0
2.31399 	0.2001 	2.21156e-17 	1.02063 	-0.000971508 	0
2.31698 	0.2001 	2.21156e-17 	1.01978 	0.00110663 	0
2.31997 	0.2001 	2.21156e-17 	1.01944 	0.00243457 	0
2.32296 	0.2001 	2.21156e-17 	1.01993 	0.00296357 	0
2.32595 	0.2001 	2.21156e-17 	1.02123 	0.00328026 	0
2.32894 	0.2001 	2.21156e-17 	1.02429 	0.00340248 	0
2.33193 	0.2001 	2.21156e-17 	1.02959 	0.00311116 	0
2.33492 	0.2001 	2.21156e-17 	1.03627 	0.00189095 	0
2.33791 	0.2001 	2.07279e-17 	1.04132 	0.000295216 	0
2.3409 	0.2001 	2.07279e-17 	1.04275 	-0.000513792 	0
2.34389 	0.2001 	2.21156e-17 	1.04243 	-0.000633016 	0
2.34688 	0.2001 	2.21156e-17 	1.03993 	-0.000345884 	0
2.34986 	0.2001 	2.21156e-17 	1.03533 	0.00020566 	0
2.35285 	0.2001 	2.21156e-17 	1.03013 	0.000996125 	0
2.35584 	0.2001 	2.28095e-17 	1.02607 	0.00182046 	0
2.35883 	0.2001 	2.35034e-17 	1.0239 	0.00259158 	0
2.36182 	0.2001 	2.35034e-17 	1.02309 	0.00323424 	0
2.36481 	0.2001 	2.35034e-17 	1.0229 	0.00360571 	0
2.3678 	0.2001 	2.35034e-17 	1.02331 	0.00382896 	0
2.37079 	0.2001 	2.35034e-17 	1.02523 	0.00388719 	0
2.37378 	0.2001 	2.35034e-17 	1.02823 	0.00357841 	0
2.37677 	0.2001 	2.35034e-17 	1.03039 	0.00275515 	0
2.37976 	0.2001 	2.35034e-17 	1.03047 	0.00163714 	0
2.38274 	0.2001 	2.35034e-17 	1.02906 	-0.00045678 	0
2.38573 	0.2001 	2.35034e-17 	1.0247 	-0.00274418 	0
2.38872 	0.2001 	2.35034e-17 	1.02161 	-0.00464538 	0
2.39171 	0.2001 	2.24626e-17 	1.024 	-0.0055793 	0
2.3947 	0.2001 	2.14218e-17 	1.02889 	-0.0064147 	0
2.39769 	0.2001 	2.14218e-17 	1.03692 	-0.00674097 	0
2.40068 	0.2001 	2.14218e-17 	1.049 	-0.00638585 	0
2.40367 	0.2001 	2.14218e-17 	1.06475 	-0.00563016 	0
2.40666 	0.2001 	2.0034e-17 	1.08456 	-0.00483846 	0
2.40965 	0.2001 	1.86462e-17 	1.10623 	-0.00573903 	0
2.41264 	0.2001 	1.86462e-17 	1.12108 	-0.00739162 	0
2.41563 	0.2001 	1.86462e-17 	1.12868 	-0.00798134 	0
2.41861 	0.2001 	1.86462e-17 	1.13379 	-0.00735337 	0
2.4216 	0.2001 	1.86462e-17 	1.13762 	-0.00549868 	0
2.42459 	0.2001 	1.86462e-17 	1.14263 	-0.00370481 	0