/*--------------------------------*- C++ -*----------------------------------*\
  =========                 |
  \\      /  F ield         | OpenFOAM: The Open Source CFD Toolbox
   \\    /   O peration     | Website:  https://openfoam.org
    \\  /    A nd           | Version:  7
     \\/     M anipulation  |
\*---------------------------------------------------------------------------*/
FoamFile
{
    version     2.0;
    format      ascii;
    class       volScalarField;
    location    "2";
    object      p;
}
// * * * * * * * * * * * * * * * * * * * * * * * * * * * * * * * * * * * * * //

dimensions      [1 -1 -2 0 0 0 0];

internalField   nonuniform List<scalar> 
4128
(
1
1
1
1
1
1
1
1
1
1
1
1
1
1
1
1
1
1
1
1
1
1
1
1
1
1
1
1
1
1
1
1
1
1
1
1
1
1
1
1
1
1
1
1
1
1
1
1
1
1
1
1
1
1
1
1
1
1
1
1
1
1
1
1
1
1
1
1
1
1
1
1
1
1
1
1
1
1
1
1
1
1
1
1
1
1
1
1
1
1
1
1
1
1
1
1
1
1
1
1
1
1
1
1
1
1
1
1
1
1
1
1
1
1
1
1
1
1
1
1
1
1
1
1
1
1
1
1
1
1
1
1
1
1
1
1
1
1
1
1
1
1
1
1
1
1
1
1
1
1
1
1
1
1
1
1
1
1
1
1
1
1
1
1
1
1
1
1
1
1
1
1
1
1
1
1
1
1
1
1
1
1
1
1
1
1
1
1
1
1
1
1
1
1
1
1
1
1
1
1
1
1
1
1
1
1
1
1
1
1
1
1
1
1
1
1
1
1
1
1
1
1
1
1
1
1
1
1
1
1
1
1
1
1
1
1
1
1
1
1
1
1
1
1
1
1
1
1
1
1
1
1
1
1
1
1
1
1
1
1
1
1
1
1
1
1
1
1
1
1
1
1
1
1
1
1
1
1
1
1
1
1
1
1
1
1
1
1
1
1
1
1
1
1
1
1
1
1
1
1
1
1
1
1
1
1
1
1
1
1
1
1
1
1
1
1
1
1
1
1
1
1
1
1
1
1
1
1
1
1
1
1
1
1
1
1
1
1
1
1
1
1
1
1
1
1
1
1
1
1
1
1
1
1
1
1
1
1
1
1
1
1
1
1
1
1
1
1
1
1
1
1
1
1
1
1
1
1
1
1
1
1
1
1
1
1
1
1
1
1
1
1
1
1
1
1
1
1
1
1
1
1
1
1
1
1
1
1
1
1
1
1
1
1
1
1
1
1
1
1
1
1
1
1
1
1
1
1
1
1
1
1
1
1
1
1
1
1
1
1
1
1
1
1
1
1
1
1
1
1
1
1
1
1
1
1
1
1
1
1
1
1
1
1
1
1
1
1
1
1
1
1
1
1
1
1
1
1
1
1
1
1
1
1
1
1
1
1
1
1
1
1
1
1
1
1
1
1
1
1
1
1
1
1
1
1
1
1
1
1
1
1
1
1
1
1
1
1
1
1
1
1
1
1
1
1
1
1
1
1
1
1
1
1
1
1
1
1
1
1
1
1
1
1
1
1
1
1
1
1
1
1
1
1
1
1
1
1
1
1
1
1
1
1
1
1
1
1
1
1
1
1
1
1
1
1
1
1
1
1
1
1
1
1
1
1
1
1
1
1
1
1
1
1
1
1
1
1
1
1
1
1
1
1
1
1
1
1
1
1
1
1
1
1
1
1
1
1
1
1
1
1
1
1
1
1
1
1
1
1
1
1
1
1
1
1
1
1
1
1
1
1
1
1
1
1
1
1
1
1
1
1
1
1
1
1
1
1
1
1
1
1
1
1
1
1
1
1
1
1
1
1
1
1
1
1
1
1
1
1
1
1
1
1
1
1
1
1
1
1
1
1
1
1
1
1
1
1
1
1
1
1
1
1
1
1
1
1
1
1
1
1
1
1
1
1
1
1
1
1
1
1
1
1
1
1
1
1
1
1
1
1
1
1
1
1
1
1
1
1
1
1
1
1
1
1
1
1
1
1
1
1
1
1
1
1
1
1
1
1
1
1
1
1
1
1
1
1
1
1
1
1
1
1
1
1
1
1
1
1
1
1
1
1
1
1
1
1
1
1
1
1
1
1
1
1
1
1
1
1
1
1
1
1
1
1
1
1
1
1
1
1
1
1
1
1
1
1
1
1
1
1
1
1
1
1
1
1
1
1
1
1
1
1
1
1
1
1
1
1
1
1
1
1
1
1
1
1
1
1
1
1
1
1
1
1
1
1
1
1
1
1
1
1
1
1
1
1
1
1
1
1
1
1
1
1
1
1
1
1
1
1
1
1
1
1
1
1
1
1
1
1
1
1
1
1
1
1
1
1
1
1
1
1
1
1
1
1
1
1
1
1
1
1
1
1
1
1
1
1
1
1
1
1
1
1
1
1
1
1
1
1
1
1
1
1
1
1
1
1
1
1
1
1
1
1
1
1
1
1
1
1
1
1
1
1
1
1
1
1
1
1
1
1
1
1
1
1
1
1
1
1
1
1
1
1
1
1
1
1
1
1
1
1
1
1
1
1
1
1
1
1
1
1
1
1
1
1
1
1
1
1
1
1
1
1
1
1
1
1
1
1
1
1
1
1
1
1
1
1
1
1
1
1
1
1
1
1
1
1
1
1
1
1
1
1
1
1
1
1
1
1
1
1
1
1
1
1
1
1
1
1
1
1
1
1
1
1
1
1
1
1
1
1
1
1
1
1
1
1
1
1
1
1
1
1
1
1
1
1
1
1
1
1
1
1
1
1
1
1
1
1
1
1
1
1
1
1
1
1
1
1
1
1
1
1
1
1
1
1
1
1
1
1
1
1
1
1
1
1
1
1
1
1
1
1
1
1
1
1
1
1
1
1
1
1
1
1
1
1
1
1
1
1
1
1
1
1
1
1
1
1
1
1
1
1
1
1
1
1
1
1
1
1
1
1
1
1
1
1
1
1
1
1
1
1
1
1
1
1
1
1
1
1
1
1
1
1
1
1
1
1
1
1
1
1
1
1
1
1
1
1
1
1
1
1
1
1
1
1
1
1
1
1
1
1
1
1
1
1
1
1
1
1
1
1
1
1
1
1
1
1
1
1
1
1
1
1
1
1
1
1
1
1
1
1
1
1
1
1
1
1
1
1
1
1
1
1
1
1
1
1
1
1
1
1
1
1
1
1
1
1
1
1
1
1
1
1
1
1
1
1
1
1
1
1
1
1
1
1
1
1
1
1
1
1
1
1
1
1
1
1
1
1
1
1
1
1
1
1
1
1
1
1
1
1
1
1
1
1
1
1
1
1
1
1
1
1
1
1
1
1
1
1
1
1
1
1
1
1
1
1
1
1
1
1
1
1
1
1
1
1
1
1
1
1
1
1
1
1
1
1
1
1
1
1
1
1
1
1
1
1
1
1
1
1
1
1
1
1
1
1
1
1
1
1
1
1
1
1
1
1
1
1
1
1
1
1
1
1
1
1
1
1
1
1
1
1
1
1
1
1
1
1
1
1
1
1
1
1
1
1
1
1
1
1
1
1
1
1
1
1
1
1
1
1
1
1
1
1
1
1
1
1
1
1
1
1
1
1
1
1
1
1
1
1
1
1
1
1
1
1
1
1
1
1
1
1
1
1
1
1
1
1
1
1
1
1
1
1
1
1
1
1
1
1
1
1
1
1
1
1
1
1
1
1
1
1
1
1
1
1
1
1
1
1
1
1
1
1
1
1
1
1
1
1
1
1
1
1
1
1
1
1
1
1
1
1
1
1
1
1
1
1
1
1
1
1
1
1
1
1
1
1
1
1
1
1
1
1
1
1
1
1
1
1
1
1
1
1
1
1
1
1
1
1
1
1
1
1
1
1
1
1
1
1
1
1
1
1
1
1
1
1
1
1
1
1
1
1
1
1
1
1
1
1
1
1
1
1
1
1
1
1
1
1
1
1
1
1
1
1
1
1
1
1
1
1
1
1
1
1
1
1
1
1
1
1
1
1
1
1
1
1
1
1
1
1
1
1
1
1
1
1
1
1
1
1
1
1
1
1
1
1
1
1
1
1
1
1
1
1
1
1
1
1
1
1
1
1
1
1
1
1
1
1
1
1
1
1
1
1
1
1
1
1
1
1
1
1
1
1
1
1
1
1
1
1
1
1
1
1
1
1
1
1
1
1
1
1
1
1
1
1
1
1
1
1
1
1
1
1
1
1
1
1
1
1
1
1
1
1
1
1
1
1
1
1
1
1
1
1
1
1
1
1
1
1
1
1
1
1
1
1
1
1
1
1
1
1
1
1
1
1
1
1
1
1
1
1
1
1
1
1
1
1
1.94163
1.87853
1.82055
1.87444
2.60443
4.00725
1
1
1
1
1
1
1
1.00001
1.0022
1.10803
2.0783
3.9035
4.68068
4.75945
4.64659
4.41628
4.265
4.13885
4.01554
3.86898
3.71581
3.63619
3.52299
3.40901
3.29403
3.16483
3.10153
3.0125
2.91907
2.82713
2.71798
2.67015
2.60246
2.52131
2.45567
2.36476
2.31634
2.26681
2.20312
2.14533
2.07304
2.0383
2.0052
1.95188
1.86095
1.86018
1.99107
2.92216
1
1
1
1
1
1
1
1
1.00001
1.00257
1.11219
2.06672
3.79967
4.66036
4.69984
4.56024
4.37518
4.23624
4.10719
3.93746
3.83234
3.73456
3.60264
3.49898
3.3637
3.25975
3.19352
3.09231
3.00355
2.88901
2.80579
2.75618
2.67191
2.60006
2.51825
2.43583
2.39547
2.33231
2.26949
2.20674
2.13798
2.10551
2.06518
2.01643
1.93544
1.88515
1.89552
2.12652
1
1
1
1
1
1
1
1
1
1.00001
1.00261
1.11676
1.98871
3.81728
4.57177
4.59158
4.49441
4.36745
4.18734
4.01953
3.92871
3.80867
3.69189
3.58525
3.4361
3.3638
3.27996
3.17437
3.07933
2.95685
2.89753
2.83379
2.74694
2.67672
2.57649
2.51881
2.47016
2.39549
2.33732
2.26344
2.20661
2.17498
2.12504
2.07576
2.00905
1.94682
1.9181
1.93188
1
1
1
1
1
1
1
1
1
1
1.00001
1.00292
1.10548
1.96726
3.78118
4.39059
4.51498
4.46663
4.28952
4.12299
4.01062
3.88775
3.78979
3.64531
3.53079
3.4659
3.3554
3.25618
3.15033
3.03945
2.98721
2.90703
2.82664
2.74045
2.64595
2.60273
2.5368
2.4632
2.4054
2.32055
2.27966
2.24354
2.18512
2.13238
2.07036
2.01573
1.98062
1.93766
1
1
1
1
1
1
1
1
1
1
1
1.00002
1.00275
1.09688
2.01734
3.51027
4.32541
4.52581
4.41837
4.24591
4.10555
3.99621
3.86679
3.71443
3.64656
3.55023
3.42859
3.34152
3.21827
3.13335
3.07391
2.98282
2.90285
2.79771
2.72972
2.68047
2.59938
2.53631
2.46463
2.38665
2.35818
2.30963
2.24646
2.1926
2.12575
2.08378
2.04946
1.9895
1
1
1
1
1
1
1
1
1
1
1
1
1.00002
1.00246
1.10567
1.88153
3.25304
4.35815
4.47412
4.39696
4.24181
4.11072
3.9276
3.82476
3.73947
3.61249
3.51515
3.42263
3.29099
3.23195
3.15353
3.05875
2.96906
2.86375
2.81523
2.75057
2.66906
2.60853
2.51715
2.46674
2.43497
2.37019
2.31028
2.25275
2.18487
2.14881
2.11363
2.05965
1
1
1
1
1
1
1
1
1
1
1
1
1
1.00002
1.00251
1.08506
1.64817
3.2057
4.30848
4.36875
4.30251
4.20564
4.02908
3.91594
3.79229
3.67555
3.60455
3.4834
3.38461
3.32648
3.22352
3.13239
3.02821
2.9435
2.89799
2.8171
2.74415
2.66877
2.58036
2.55183
2.50489
2.43118
2.37858
2.30595
2.25049
2.21456
2.16689
2.12203
1
1
1
1
1
1
1
1
1
1
1
1
1
1
1.00001
1.00174
1.05124
1.57242
3.29616
4.03446
4.24133
4.27021
4.15384
3.9936
3.84628
3.77053
3.68512
3.54673
3.49105
3.40555
3.29164
3.20508
3.08856
3.03058
2.9775
2.89026
2.8176
2.72074
2.66177
2.63238
2.56494
2.49775
2.44393
2.35816
2.31876
2.28175
2.21931
2.17556
1
1
1
1
1
1
1
1
1
1
1
1
1
1
1
1.00001
1.001
1.04372
1.65162
3.03215
3.86773
4.25146
4.25337
4.10864
3.98589
3.88597
3.72361
3.64681
3.5977
3.4706
3.36948
3.27683
3.15857
3.11674
3.05376
2.96795
2.88214
2.7835
2.74665
2.70165
2.62445
2.56996
2.49624
2.41957
2.38983
2.34087
2.27646
2.22831
1
1
1
1
1
1
1
1
1
1
1
1
1
1
1
1
1.00001
1.00098
1.05089
1.56261
2.61644
3.81204
4.25713
4.23506
4.12051
3.94315
3.78982
3.76757
3.67417
3.52914
3.44757
3.34619
3.23563
3.19706
3.12778
3.04138
2.94354
2.86508
2.82577
2.76134
2.69381
2.63583
2.54055
2.49496
2.45621
2.39542
2.34133
2.28773
1
1
1
1
1
1
1
1
1
1
1
1
1
1
1
1
1
1.00001
1.00098
1.03704
1.33317
2.32508
3.86663
4.14598
4.11114
4.02154
3.93175
3.86308
3.70943
3.58884
3.51873
3.41033
3.31768
3.28241
3.20726
3.11241
3.0099
2.94698
2.89481
2.82678
2.77112
2.6793
2.60613
2.57204
2.51107
2.45522
2.40455
2.35006
1
1
1
1
1
1
1
1
1
1
1
1
1
1
1
1
1
1
1
1.00047
1.0159
1.21296
2.36352
3.63745
3.94499
4.08543
4.07012
3.93749
3.76062
3.6796
3.59899
3.47092
3.41003
3.37125
3.28204
3.17873
3.08385
3.02076
2.95884
2.90332
2.82478
2.73012
2.69185
2.63493
2.56282
2.52541
2.4626
2.41034
1
1
1
1
1
1
1
1
1
1
1
1
1
1
1
1
1
1
1
1
1.00018
1.00956
1.21407
2.24694
3.3604
3.9347
4.0715
4.00679
3.89915
3.80912
3.66051
3.52804
3.49458
3.44933
3.35219
3.24658
3.15609
3.08716
3.0317
2.96925
2.86787
2.81788
2.76708
2.68138
2.63306
2.59169
2.51473
2.47347
1
1
1
1
1
1
1
1
1
1
1
1
1
1
1
1
1
1
1
1
1
1.00013
1.00908
1.20411
1.95943
3.07579
3.87516
4.04233
4.01206
3.90443
3.73038
3.59611
3.55984
3.51484
3.4255
3.32097
3.23072
3.16088
3.10112
3.00539
2.94132
2.90109
2.81715
2.74237
2.71472
2.63989
2.57408
2.53785
1
1
1
1
1
1
1
1
1
1
1
1
1
1
1
1
1
1
1
1
1
1
1.00011
1.00838
1.10965
1.65372
2.7937
3.81051
3.97437
3.92112
3.82089
3.70796
3.64521
3.59328
3.49918
3.39071
3.30666
3.23981
3.14857
3.06908
3.03352
2.96086
2.8628
2.82508
2.77729
2.68374
2.64598
2.60474
1
1
1
1
1
1
1
1
1
1
1
1
1
1
1
1
1
1
1
1
1
1
1
1.00007
1.00264
1.05266
1.47008
2.55802
3.69961
3.85992
3.88685
3.83879
3.78204
3.69863
3.56694
3.45099
3.37498
3.29529
3.20573
3.17021
3.11709
3.0059
2.92899
2.89242
2.80926
2.74541
2.72342
2.67552
1
1
1
1
1
1
1
1
1
1
1
1
1
1
1
1
1
1
1
1
1
1
1
1
1.00001
1.00097
1.0336
1.33343
2.39258
3.51664
3.76956
3.84151
3.85327
3.76734
3.61743
3.51236
3.43625
3.34518
3.29077
3.27022
3.1812
3.06719
3.01546
2.94645
2.8433
2.81102
2.79759
2.74051
1
1
1
1
1
1
1
1
1
1
1
1
1
1
1
1
1
1
1
1
1
1
1
1
1
1
1.00059
1.02112
1.2515
2.27008
3.23005
3.68685
3.8625
3.81464
3.70631
3.62381
3.51444
3.41676
3.39069
3.35191
3.22173
3.13931
3.09105
3.00232
2.91049
2.88889
2.86321
2.78671
1
1
1
1
1
1
1
1
1
1
1
1
1
1
1
1
1
1
1
1
1
1
1
1
1
1
1
1.00035
1.01329
1.21405
2.04105
2.8843
3.6302
3.84823
3.82712
3.69862
3.56989
3.53089
3.52891
3.42423
3.26893
3.19127
3.12893
3.04172
2.98718
2.97838
2.93651
2.84321
1
1
1
1
1
1
1
1
1
1
1
1
1
1
1
1
1
1
1
1
1
1
1
1
1
1
1
1
1.00019
1.00947
1.14604
1.60194
2.54044
3.66361
3.73213
3.6675
3.64363
3.651
3.60039
3.4358
3.31792
3.25671
3.18425
3.1005
3.07179
3.05901
2.98939
2.89847
1
1
1
1
1
1
1
1
1
1
1
1
1
1
1
1
1
1
1
1
1
1
1
1
1
1
1
1
1
1.00009
1.00404
1.04973
1.34013
2.52116
3.37498
3.55387
3.69373
3.7234
3.61902
3.45874
3.39727
3.34261
3.24816
3.19631
3.1765
3.12444
3.03399
2.97405
1
1
1
1
1
1
1
1
1
1
1
1
1
1
1
1
1
1
1
1
1
1
1
1
1
1
1
1
1
1
1.00002
1.00091
1.02256
1.3124
2.34619
3.08591
3.54166
3.7199
3.6867
3.62463
3.54139
3.40869
3.33306
3.3161
3.25824
3.15425
3.07658
3.04406
1
1
1
1
1
1
1
1
1
1
1
1
1
1
1
1
1
1
1
1
1
1
1
1
1
1
1
1
1
1
1
1
1.00049
1.01933
1.29324
1.9909
2.76146
3.5489
3.69354
3.65661
3.57611
3.46737
3.4302
3.37865
3.28487
3.19756
3.13868
3.10123
1
1
1
1
1
1
1
1
1
1
1
1
1
1
1
1
1
1
1
1
1
1
1
1
1
1
1
1
1
1
1
1
1
1.00038
1.01629
1.14635
1.52438
2.58442
3.45326
3.57
3.58359
3.55708
3.50084
3.39914
3.31664
3.26861
3.20531
3.16104
1
1
1
1
1
1
1
1
1
1
1
1
1
1
1
1
1
1
1
1
1
1
1
1
1
1
1
1
1
1
1
1
1
1
1.00018
1.00409
1.04468
1.37777
2.47396
3.15345
3.46288
3.61044
3.56401
3.48822
3.43948
3.34458
3.26049
3.22952
1
1
1
1
1
1
1
1
1
1
1
1
1
1
1
1
1
1
1
1
1
1
1
1
1
1
1
1
1
1
1
1
1
1
1
1.00002
1.00102
1.0277
1.34528
2.17042
2.82076
3.42457
3.59582
3.58223
3.51003
3.38821
3.35144
3.30622
1
1
1
1
1
1
1
1
1
1
1
1
1
1
1
1
1
1
1
1
1
1
1
1
1
1
1
1
1
1
1
1
1
1
1
1
1.00001
1.00063
1.02263
1.21357
1.66244
2.52447
3.41763
3.50676
3.47893
3.45709
3.44391
3.35042
1
1
1
1
1
1
1
1
1
1
1
1
1
1
1
1
1
1
1
1
1
1
1
1
1
1
1
1
1
1
1
1
1
1
1
1
1
1
1.00035
1.00791
1.06989
1.39635
2.41475
3.16935
3.37016
3.46697
3.48099
3.38596
1
1
1
1
1
1
1
1
1
1
1
1
1
1
1
1
1
1
1
1
1
1
1
1
1
1
1
1
1
1
1
1
1
1
1
1
1
1
1
1.00005
1.00167
1.03205
1.30859
2.18507
2.91049
3.28529
3.4567
3.47534
1
1
1
1
1
1
1
1
1
1
1
1
1
1
1
1
1
1
1
1
1
1
1
1
1
1
1
1
1
1
1
1
1
1
1
1
1
1
1
1
1.00001
1.00071
1.02107
1.2312
1.8516
2.52694
3.19497
3.46414
1
1
1
1
1
1
1
1
1
1
1
1
1
1
1
1
1
1
1
1
1
1
1
1
1
1
1
1
1
1
1
1
1
1
1
1
1
1
1
1
1
1
1.00039
1.01177
1.10549
1.45216
2.19538
3.10958
1
1
1
1
1
1
1
1
1
1
1
1
1
1
1
1
1
1
1
1
1
1
1
1
1
1
1
1
1
1
1
1
1
1
1
1
1
1
1
1
1
1
1
1.00012
1.0027
1.03393
1.25896
1.95526
1
1
1
1
1
1
1
1
1
1
1
1
1
1
1
1
1
1
1
1
1
1
1
1
1
1
1
1
1
1
1
1
1
1
1
1
1
1
1
1
1
1
1
1
1.00001
1.00063
1.01507
1.15646
1
1
1
1
1
1
1
1
1
1
1
1
1
1
1
1
1
1
1
1
1
1
1
1
1
1
1
1
1
1
1
1
1
1
1
1
1
1
1
1
1
1
1
1
1
1
1.00023
1.00725
1
1
1
1
1
1
1
1
1
1
1
1
1
1
1
1
1
1
1
1
1
1
1
1
1
1
1
1
1
1
1
1
1
1
1
1
1
1
1
1
1
1
1
1
1
1
1
1.00009
1
1
1
1
1
1
1
1
1
1
1
1
1
1
1
1
1
1
1
1
1
1
1
1
1
1
1
1
1
1
1
1
1
1
1
1
1
1
1
1
1
1
1
1
1
1
1
1
1
1
1
1
1
1
1
1
1
1
1
1
1
1
1
1
1
1
1
1
1
1
1
1
1
1
1
1
1
1
1
1
1
1
1
1
1
1
1
1
1
1
1
1
1
1
1
1
4.49701
4.48528
4.35292
4.19937
4.06622
3.94019
3.80591
3.66529
3.54237
3.42398
3.29629
3.15502
3.03804
2.94714
2.84748
4.14072
4.48314
4.42297
4.27744
4.13649
4.01153
3.8768
3.73455
3.61494
3.49792
3.37045
3.22804
3.11778
3.027
2.92688
3.20351
4.19715
4.45426
4.37151
4.21689
4.08125
3.94148
3.80039
3.685
3.57032
3.44222
3.30052
3.19972
3.10646
3.00409
2.28302
3.4253
4.21692
4.40479
4.30749
4.16333
4.01068
3.86316
3.74983
3.64222
3.51597
3.3806
3.2845
3.18653
3.08045
1.96562
2.45251
3.58757
4.25062
4.36989
4.27301
4.11107
3.94124
3.8211
3.71693
3.58893
3.4611
3.36781
3.27058
3.15943
1.95431
2.01489
2.60769
3.74481
4.26127
4.31069
4.21252
4.04333
3.89949
3.78668
3.65983
3.53765
3.44643
3.35622
3.23884
1.98061
1.98284
2.0947
2.7958
3.86854
4.21959
4.25388
4.1449
3.98895
3.86109
3.73159
3.60961
3.52116
3.43532
3.31563
2.05484
1.98832
1.99564
2.17346
2.99287
3.89856
4.22274
4.22093
4.09511
3.95548
3.81711
3.686
3.59567
3.50737
3.38826
2.1349
2.04645
2.01003
2.02605
2.27467
3.10199
3.95676
4.21839
4.17322
4.05917
3.91411
3.76251
3.6707
3.58162
3.46475
2.19674
2.12844
2.05933
2.03656
2.05747
2.35884
3.21528
4.02561
4.16658
4.12086
4.00935
3.85271
3.74918
3.65596
3.5422
2.25013
2.19793
2.12546
2.08414
2.05804
2.08821
2.42678
3.40934
3.96368
4.10015
4.0758
3.95636
3.83536
3.73191
3.61376
2.30463
2.25442
2.19514
2.14995
2.10411
2.07823
2.11738
2.556
3.43399
3.90468
4.1131
4.0548
3.93401
3.81955
3.68842
2.36312
2.30412
2.25426
2.21653
2.17059
2.10666
2.10177
2.17097
2.65621
3.38298
3.95854
4.09469
4.03066
3.93494
3.78443
2.42678
2.36215
2.31246
2.27317
2.23321
2.16865
2.11455
2.11087
2.21427
2.65943
3.4501
3.99361
4.07013
4.02195
3.8873
2.4865
2.42243
2.36955
2.32595
2.2937
2.24282
2.16459
2.13392
2.13513
2.23265
2.68401
3.59905
3.95073
4.00811
3.95994
2.54468
2.47963
2.42101
2.38911
2.35441
2.30003
2.24404
2.19265
2.14538
2.14465
2.2603
2.8605
3.63947
3.8793
3.97831
2.60585
2.53273
2.48142
2.44998
2.39565
2.35474
2.31495
2.25211
2.19335
2.14394
2.15798
2.3338
2.99252
3.54911
3.85974
2.66127
2.60173
2.56305
2.49436
2.44318
2.41532
2.36518
2.29636
2.24943
2.20144
2.15985
2.17452
2.3851
2.93568
3.48732
2.70485
2.66942
2.62536
2.54088
2.5154
2.48242
2.40981
2.33902
2.30892
2.27029
2.19363
2.18568
2.21029
2.39032
2.85875
2.77861
2.73442
2.65295
2.59505
2.58895
2.54479
2.45371
2.40608
2.38121
2.31485
2.2524
2.23298
2.21968
2.23046
2.38973
2.85356
2.79442
2.69693
2.66948
2.65915
2.59227
2.50223
2.47032
2.4253
2.35018
2.33087
2.30511
2.25834
2.22624
2.2433
2.92309
2.82792
2.75085
2.74304
2.71971
2.63503
2.57695
2.53241
2.44717
2.39297
2.39514
2.37032
2.30802
2.25779
2.22904
2.99302
2.88599
2.81931
2.79804
2.75631
2.6887
2.6473
2.58449
2.48909
2.45596
2.45949
2.43
2.36136
2.30987
2.26148
3.05343
2.96409
2.8907
2.84645
2.79684
2.74914
2.70072
2.63051
2.54284
2.51382
2.51877
2.48891
2.41925
2.37159
2.32025
3.10518
3.02239
2.94449
2.88797
2.85292
2.81395
2.75415
2.68673
2.60645
2.57073
2.56991
2.53756
2.47165
2.42989
2.3817
3.15864
3.07324
2.99726
2.93363
2.90932
2.87385
2.80977
2.74673
2.67515
2.63041
2.62079
2.58433
2.52625
2.48039
2.42948
3.20155
3.11962
3.0514
2.99178
2.97426
2.93652
2.86888
2.80624
2.73741
2.68762
2.67071
2.63552
2.58478
2.53287
2.47611
3.23158
3.17237
3.10933
3.05826
3.04544
3.00092
2.92571
2.85833
2.78955
2.73694
2.71869
2.6916
2.64235
2.58562
2.53052
3.29921
3.24959
3.16593
3.12414
3.11483
3.06041
2.97934
2.90831
2.83517
2.78533
2.77152
2.74783
2.69925
2.64328
2.58535
3.44715
3.36259
3.23227
3.18766
3.17426
3.1103
3.02652
2.95434
2.88175
2.84113
2.83198
2.80645
2.75676
2.70291
2.63865
3.46233
3.40581
3.30942
3.26102
3.2317
3.15914
3.07362
2.99403
2.92554
2.89933
2.89573
2.87086
2.81469
2.75918
2.68561
3.40348
3.39658
3.37506
3.34103
3.29227
3.20231
3.11317
3.03639
2.97974
2.96354
2.96062
2.93331
2.86687
2.79816
2.72958
2.90166
3.25743
3.35827
3.35678
3.32757
3.24079
3.15942
3.09748
3.04907
3.03149
3.0286
2.98234
2.90338
2.83008
2.80986
1.70609
2.6626
3.12719
3.28558
3.30641
3.29174
3.25029
3.19968
3.13111
3.09464
3.07773
3.01791
2.94228
3.01297
3.48579
1.08838
1.51662
2.35763
2.84821
3.20428
3.33704
3.33568
3.26423
3.17773
3.16424
3.12545
3.14092
3.45018
4.37113
6.03274
1.00313
1.04534
1.3149
1.85318
2.55803
3.25458
3.29091
3.21657
3.21959
3.30384
3.58082
4.26694
5.65324
7.01552
7.84795
1.00002
1.00093
1.01648
1.12943
1.51323
2.42955
2.98968
3.26988
3.75256
4.56519
5.44115
6.51288
7.2867
7.79984
7.83301
1
1
1.00019
1.00482
1.0566
1.39807
2.47462
3.9472
5.45455
7.2006
8.64911
9.46004
9.1272
8.49708
7.77929
)
;

boundaryField
{
    inlet
    {
        type            fixedValue;
        value           uniform 1;
    }
    outlet
    {
        type            zeroGradient;
    }
    bottom
    {
        type            zeroGradient;
    }
    top
    {
        type            zeroGradient;
    }
    obstacle
    {
        type            zeroGradient;
    }
    defaultFaces
    {
        type            empty;
    }
    procBoundary2to0
    {
        type            processor;
        value           nonuniform List<scalar> 
112
(
1
1
1
1
1
1
1
1
1
1
1
1
1
1
1
1
1
1
1
1
1
1
1
1
1
1
1
1
1
1
1
1
1
1
1
1
1
1
1
1
1
1
1
1
1
1
1
1
1.86919
1.80997
1.82282
2.31207
3.75621
4.49577
1
1
1
1
1
1
1
1.00148
1.0962
2.04994
3.9917
4.76288
4.8103
4.69298
4.52695
4.30457
4.16748
4.05732
3.91976
3.79171
3.62033
3.52193
3.43628
3.32026
3.2187
3.08334
3.0047
2.9332
2.83263
2.75409
2.64792
2.58005
2.52935
2.44891
2.38335
2.30236
2.23801
2.19705
2.13785
2.08249
2.01256
1.97176
1.97176
4.55509
4.43347
4.27764
4.13114
3.99758
3.86935
3.73404
3.59404
3.46923
3.35237
3.22512
3.08552
2.96097
2.86776
2.76844
)
;
    }
    procBoundary2to1
    {
        type            processor;
        value           nonuniform List<scalar> 6(2.74032 2.81614 2.88663 2.95471 3.02514 3.1001);
    }
    procBoundary2to3
    {
        type            processor;
        value           nonuniform List<scalar> 
32
(
3.18066
3.26125
3.3433
3.42684
3.50312
3.57626
3.65576
3.74441
3.83267
3.91294
3.96998
3.90203
3.57071
2.92033
2.43731
2.26121
2.24503
2.25945
2.31642
2.385
2.44137
2.49556
2.54213
2.58288
2.62134
2.66743
2.95557
4.66512
6.95757
7.83336
7.62714
7.32379
)
;
    }
}


// ************************************************************************* //
