/*--------------------------------*- C++ -*----------------------------------*\
  =========                 |
  \\      /  F ield         | OpenFOAM: The Open Source CFD Toolbox
   \\    /   O peration     | Website:  https://openfoam.org
    \\  /    A nd           | Version:  7
     \\/     M anipulation  |
\*---------------------------------------------------------------------------*/
FoamFile
{
    version     2.0;
    format      ascii;
    class       volScalarField;
    location    "3";
    object      p;
}
// * * * * * * * * * * * * * * * * * * * * * * * * * * * * * * * * * * * * * //

dimensions      [1 -1 -2 0 0 0 0];

internalField   nonuniform List<scalar> 
16512
(
3.1485
3.14801
3.16127
3.17196
3.16505
3.1547
3.13942
3.10546
3.03979
2.94852
2.89154
2.87732
2.87307
2.87103
2.86745
2.8596
2.84975
2.83833
2.82352
2.79936
2.74812
2.67514
2.63879
2.63137
2.62377
2.61644
2.60912
2.60185
2.59247
2.57858
2.55514
2.50753
2.44774
2.42712
2.42277
2.41823
2.4137
2.41192
2.40907
2.40147
2.38767
2.35577
2.30155
2.26261
2.25065
2.24288
2.23639
2.22918
2.22144
2.21194
2.19982
2.1829
2.15026
2.11147
2.0963
2.08563
2.07784
2.07064
2.06077
2.05105
2.04151
2.02922
2.01337
1.99706
1.98226
1.96506
1.95098
1.94136
1.93251
1.92329
1.91261
1.89829
1.87599
1.84405
1.8138
1.80549
1.80461
1.80971
1.81702
1.81491
1.80944
1.80259
1.79273
1.77541
1.74544
1.69955
1.66189
1.64969
1.64907
1.6578
1.68394
1.70702
1.70821
1.70207
1.6898
1.66398
1.61231
1.55185
1.52451
1.51977
1.52
1.53225
1.56516
1.59701
1.60291
1.59849
1.58823
1.56412
1.51523
1.45388
1.42479
1.41803
1.41702
1.42272
1.44573
1.47826
1.49114
1.48875
1.48305
1.46911
1.43742
1.38728
1.35332
1.34466
1.34354
1.34814
1.36733
1.3894
1.39317
1.38958
1.38337
1.36789
1.33432
1.29328
1.27619
1.27434
1.27512
1.28629
1.30867
1.31899
1.31705
1.31213
1.29964
1.27043
1.22839
1.2059
1.20256
1.20279
1.21214
1.23664
1.2563
1.2571
1.2532
1.24374
1.2209
1.17951
1.14622
1.13898
1.14757
1.24416
1.61634
2.30203
2.63972
2.78134
2.77241
2.71444
2.62844
2.60664
2.617
2.64406
2.68373
2.68346
2.66399
2.63771
2.59946
2.59024
2.67599
2.91239
3.15658
3.32861
3.35936
3.34721
3.3094
3.26174
3.23558
3.22325
3.22212
3.22661
3.21441
3.19394
3.16426
3.13359
3.11624
3.1047
3.10403
3.11157
3.10291
3.08418
3.05556
3.01522
2.98775
2.97469
2.96687
2.97353
2.98973
2.98837
2.97162
2.94649
2.91056
2.88193
2.869
2.86041
2.86224
2.87293
2.86834
2.8522
2.8299
2.80136
2.78185
2.77053
2.76178
2.7584
2.75694
2.74604
2.7324
2.71633
2.69892
2.68636
2.67649
2.66709
2.65697
2.64612
2.63399
2.62076
2.60922
2.59945
2.59084
2.5821
2.57204
2.56114
2.54875
2.53346
2.51842
2.50836
2.49989
2.49312
2.48869
2.48272
2.47362
2.46295
2.44881
2.43145
2.41807
2.40905
2.40166
2.39459
2.3865
2.37775
3.19299
3.20427
3.21438
3.20809
3.1978
3.18274
3.14958
3.08694
2.99764
2.93771
2.92113
2.91807
2.91645
2.90938
2.89904
2.8865
2.87329
2.85852
2.83813
2.79909
2.73091
2.67474
2.6623
2.6552
2.64829
2.64017
2.63233
2.6244
2.61347
2.59677
2.56343
2.50303
2.46399
2.45816
2.4557
2.45148
2.44424
2.43926
2.43326
2.4224
2.39656
2.34425
2.29206
2.27587
2.27011
2.26363
2.25857
2.25331
2.24683
2.23831
2.22616
2.20239
2.1539
2.11741
2.10893
2.10089
2.09312
2.08693
2.07861
2.06947
2.06073
2.05096
2.03982
2.02704
2.00539
1.97751
1.96171
1.9525
1.94351
1.93355
1.92103
1.90245
1.87488
1.84737
1.83874
1.8374
1.84006
1.84283
1.83864
1.83127
1.82214
1.81128
1.79533
1.76936
1.72969
1.69301
1.6794
1.67836
1.68524
1.70752
1.72683
1.72716
1.72128
1.70999
1.68604
1.63824
1.57811
1.54787
1.5424
1.54254
1.55473
1.58796
1.61964
1.62468
1.61999
1.60973
1.58585
1.53657
1.47305
1.4423
1.43521
1.43413
1.43983
1.46359
1.49809
1.51246
1.51019
1.50451
1.4908
1.45915
1.4068
1.36932
1.35938
1.358
1.36187
1.38059
1.40559
1.41222
1.40904
1.40327
1.38947
1.35812
1.3144
1.29224
1.28932
1.28936
1.2986
1.32106
1.33486
1.33371
1.32932
1.31842
1.29174
1.24886
1.22168
1.21651
1.21637
1.22392
1.2472
1.26994
1.2727
1.26909
1.26041
1.23913
1.19836
1.16092
1.1519
1.16495
1.29579
1.71093
2.3285
2.76865
2.8319
2.8089
2.75234
2.67507
2.62325
2.61624
2.63612
2.68899
2.71666
2.70467
2.67165
2.62325
2.60051
2.64934
2.85394
3.1169
3.3314
3.39276
3.38598
3.35634
3.30559
3.27196
3.25612
3.24957
3.25408
3.24729
3.22942
3.20385
3.17171
3.15116
3.13827
3.1334
3.1417
3.14006
3.12283
3.09692
3.05622
3.02153
3.00613
2.99614
2.99789
3.01395
3.01831
3.004
2.98115
2.94383
2.90833
2.89314
2.88337
2.88228
2.89444
2.89803
2.88433
2.864
2.83568
2.81135
2.79873
2.78913
2.78434
2.78452
2.77561
2.76196
2.74566
2.72618
2.71119
2.70081
2.69133
2.68144
2.67068
2.65905
2.64603
2.63379
2.62388
2.61498
2.60656
2.59697
2.58614
2.57358
2.5582
2.54162
2.52987
2.5212
2.51358
2.50806
2.5037
2.49563
2.48572
2.47386
2.45779
2.44206
2.43218
2.42454
2.41767
2.40967
2.40077
2.39105
3.24757
3.25573
3.24996
3.24023
3.22544
3.19346
3.13319
3.04685
2.98596
2.96648
2.96297
2.96269
2.95468
2.94077
2.9234
2.90686
2.89123
2.87337
2.84559
2.79025
2.72142
2.69495
2.68672
2.68017
2.67435
2.6659
2.65721
2.64777
2.63495
2.61266
2.56641
2.50799
2.49222
2.48732
2.486
2.48034
2.47062
2.46221
2.4526
2.43437
2.39068
2.33043
2.3017
2.29675
2.29303
2.28896
2.28514
2.28074
2.27395
2.26417
2.24533
2.20182
2.14937
2.12921
2.12372
2.11738
2.11138
2.10648
2.0999
2.09254
2.08582
2.07901
2.06934
2.04838
2.01101
1.98236
1.97128
1.96358
1.95451
1.94321
1.9276
1.90431
1.88027
1.87225
1.87076
1.87151
1.87013
1.86476
1.85408
1.84111
1.82875
1.81445
1.79262
1.75915
1.72441
1.70967
1.70834
1.71351
1.73196
1.74705
1.74583
1.74005
1.72981
1.70775
1.66418
1.60565
1.57288
1.56619
1.56615
1.57789
1.6104
1.64132
1.64572
1.6408
1.63051
1.60713
1.55835
1.49348
1.46061
1.45296
1.45194
1.45781
1.48205
1.51822
1.534
1.5317
1.52591
1.51239
1.48106
1.42739
1.38609
1.37438
1.37281
1.37602
1.39396
1.42125
1.43109
1.42845
1.42302
1.41065
1.38158
1.33637
1.30906
1.30438
1.30402
1.31139
1.33347
1.3508
1.35082
1.34683
1.33728
1.31305
1.2704
1.23826
1.23057
1.23009
1.23602
1.25781
1.28311
1.28833
1.28516
1.27738
1.25733
1.21753
1.17622
1.16521
1.18113
1.34343
1.84858
2.41668
2.8108
2.86571
2.84935
2.77198
2.69392
2.66238
2.65328
2.66987
2.71431
2.74255
2.73523
2.70875
2.65921
2.60922
2.63041
2.78052
3.06417
3.30794
3.42525
3.42735
3.40516
3.3576
3.31232
3.29241
3.28137
3.28311
3.28009
3.26261
3.23973
3.20799
3.18313
3.16955
3.16213
3.169
3.17458
3.15975
3.13596
3.09819
3.05633
3.03616
3.02496
3.02271
3.03774
3.04878
3.03679
3.01485
2.98023
2.93976
2.91895
2.90836
2.90333
2.91262
2.92228
2.91228
2.89452
2.86921
2.84139
2.82585
2.8156
2.80949
2.81064
2.80585
2.79241
2.77639
2.75625
2.73816
2.72667
2.71692
2.70705
2.69612
2.68429
2.67105
2.65767
2.64725
2.63806
2.62999
2.62159
2.61192
2.60087
2.58641
2.5676
2.55244
2.54292
2.53475
2.52821
2.52349
2.51584
2.50624
2.49575
2.48185
2.46503
2.45347
2.44548
2.43918
2.43242
2.42437
2.41561
2.40501
3.29694
3.29099
3.28162
3.2673
3.23661
3.1787
3.09632
3.03557
3.01441
3.01019
3.0097
3.00194
2.98568
2.96089
2.93986
2.92363
2.90719
2.8858
2.84686
2.7795
2.73158
2.72126
2.71271
2.70702
2.70235
2.69403
2.68404
2.67255
2.65675
2.62361
2.56853
2.52974
2.51855
2.51321
2.51142
2.50458
2.49287
2.48087
2.46566
2.4344
2.37836
2.33319
2.32505
2.32183
2.32068
2.31784
2.31353
2.30743
2.29851
2.28347
2.24721
2.19052
2.15433
2.14715
2.14209
2.13725
2.13367
2.13017
2.12533
2.11999
2.1144
2.10685
2.08769
2.04692
2.00794
1.9903
1.98256
1.97528
1.96552
1.95187
1.93291
1.91346
1.9066
1.90531
1.90511
1.90128
1.89284
1.87637
1.85934
1.84603
1.83284
1.81479
1.78737
1.7557
1.74011
1.73835
1.7418
1.75645
1.76808
1.76552
1.75928
1.7492
1.72862
1.68949
1.63429
1.59951
1.59132
1.591
1.60186
1.63298
1.66197
1.66572
1.66084
1.65089
1.62824
1.58049
1.51499
1.48002
1.47154
1.4705
1.4765
1.50106
1.53844
1.55547
1.55317
1.54714
1.53372
1.50333
1.44897
1.40359
1.39007
1.3882
1.39067
1.40765
1.43665
1.44968
1.44774
1.44285
1.43176
1.40481
1.35907
1.32659
1.31954
1.31896
1.32466
1.34579
1.36655
1.36837
1.3646
1.35614
1.33409
1.29234
1.25568
1.24507
1.24415
1.24851
1.26834
1.29595
1.30415
1.3014
1.29433
1.27565
1.23688
1.19193
1.17992
1.20078
1.37878
1.94769
2.52979
2.84137
2.89298
2.87134
2.81102
2.72584
2.69452
2.68722
2.7048
2.75357
2.7757
2.76462
2.73866
2.69235
2.63704
2.64321
2.74474
3.00098
3.27029
3.4422
3.46564
3.45299
3.41011
3.35549
3.32692
3.31354
3.3138
3.31834
3.30336
3.28046
3.24614
3.21396
3.19832
3.18863
3.1925
3.20413
3.19576
3.17511
3.14041
3.09394
3.06744
3.05472
3.04889
3.06029
3.07705
3.07082
3.05175
3.02048
2.97593
2.94756
2.93474
2.92664
2.93134
2.94399
2.94014
2.9241
2.90105
2.87138
2.85247
2.84158
2.83426
2.83493
2.83545
2.82364
2.80785
2.78766
2.76671
2.75354
2.74372
2.73432
2.72383
2.7121
2.69862
2.6834
2.67084
2.66098
2.65214
2.64432
2.63554
2.62549
2.61371
2.59789
2.5799
2.56721
2.55805
2.55025
2.54427
2.53655
2.52633
2.51547
2.50278
2.48672
2.47338
2.46456
2.45767
2.4524
2.44593
2.43805
2.42918
2.41781
3.33221
3.32262
3.30837
3.279
3.2235
3.14438
3.08492
3.06426
3.05979
3.05853
3.05033
3.03161
2.99941
2.97214
2.95574
2.94151
2.92431
2.89739
2.84307
2.77729
2.75691
2.74855
2.74096
2.73584
2.73164
2.72379
2.71262
2.69864
2.67604
2.62462
2.57612
2.5562
2.54248
2.53548
2.53218
2.52472
2.51187
2.49589
2.47238
2.42764
2.3744
2.35619
2.35199
2.34982
2.34999
2.34633
2.33964
2.33053
2.31734
2.28911
2.23548
2.18642
2.17335
2.16879
2.1645
2.1616
2.16048
2.15751
2.15296
2.14755
2.14026
2.12455
2.08582
2.03538
2.01153
2.00345
1.99611
1.98772
1.97647
1.96129
1.94708
1.94156
1.94025
1.93937
1.93474
1.92188
1.89796
1.87687
1.86326
1.85151
1.83666
1.81424
1.78603
1.77072
1.76838
1.77045
1.78165
1.78997
1.78654
1.77989
1.7689
1.74863
1.71357
1.66322
1.62729
1.61757
1.61723
1.62698
1.65584
1.6819
1.68445
1.67977
1.67068
1.64942
1.60365
1.538
1.50078
1.49149
1.49027
1.49611
1.5208
1.55843
1.57626
1.57415
1.56797
1.55482
1.52565
1.47147
1.42248
1.40658
1.40441
1.40629
1.42203
1.45181
1.46799
1.46677
1.46218
1.4524
1.42788
1.38271
1.3451
1.33509
1.33421
1.3384
1.35794
1.38174
1.38609
1.38259
1.37505
1.35507
1.31483
1.27406
1.26013
1.2587
1.26168
1.27909
1.30798
1.32002
1.31807
1.31162
1.29415
1.25612
1.20873
1.1947
1.23169
1.4496
2.01486
2.6225
2.89248
2.9278
2.9129
2.85645
2.7667
2.71005
2.70255
2.72235
2.78359
2.81923
2.80847
2.77875
2.72358
2.6602
2.64999
2.71387
2.93359
3.21891
3.44425
3.49799
3.49222
3.4517
3.39498
3.36398
3.34979
3.34852
3.35782
3.34765
3.32476
3.29015
3.24962
3.2283
3.21658
3.21623
3.23011
3.22987
3.21144
3.18177
3.13667
3.1011
3.08643
3.07765
3.08347
3.10169
3.10272
3.08523
3.05725
3.01569
2.98067
2.96598
2.95625
2.95598
2.96753
2.96727
2.95179
2.93057
2.90129
2.87751
2.86558
2.85724
2.85672
2.86218
2.85436
2.83945
2.81948
2.79586
2.78012
2.76997
2.76112
2.75187
2.74093
2.7282
2.71268
2.69679
2.68512
2.67534
2.66666
2.65822
2.64845
2.63781
2.62504
2.60865
2.59408
2.58417
2.57594
2.56901
2.56054
2.54969
2.53755
2.52371
2.50695
2.49208
2.4828
2.47492
2.46911
2.46435
2.45688
2.44853
2.43912
2.42749
3.36383
3.34948
3.32164
3.26867
3.19188
3.13206
3.11193
3.10932
3.1082
3.09755
3.07491
3.03732
3.00554
2.98802
2.97588
2.96253
2.94332
2.90527
2.83626
2.79311
2.78423
2.77733
2.77111
2.76579
2.76093
2.75328
2.74137
2.72331
2.68501
2.62013
2.59067
2.57879
2.56405
2.55487
2.54965
2.54127
2.52771
2.50864
2.47546
2.42268
2.39145
2.38509
2.38014
2.37794
2.37649
2.37118
2.36197
2.34937
2.32745
2.28166
2.22597
2.20247
2.19803
2.19417
2.19099
2.18972
2.1888
2.18437
2.1786
2.17102
2.1572
2.1242
2.0707
2.03395
2.02482
2.01859
2.01065
2.00082
1.98971
1.98056
1.97655
1.9753
1.973
1.96721
1.9512
1.92103
1.89394
1.87971
1.87008
1.85799
1.83913
1.8146
1.80097
1.79847
1.79992
1.80846
1.81337
1.8093
1.80207
1.78912
1.76796
1.73577
1.69127
1.65598
1.6447
1.64451
1.65308
1.67874
1.70133
1.70224
1.69739
1.68917
1.67002
1.62805
1.56344
1.52323
1.51284
1.51162
1.51728
1.54183
1.57864
1.59592
1.59382
1.5878
1.57542
1.54799
1.4951
1.44281
1.42416
1.42161
1.4229
1.43739
1.46738
1.48596
1.48548
1.48116
1.47261
1.45061
1.4073
1.36479
1.35124
1.34992
1.35282
1.37046
1.39617
1.40351
1.40046
1.39371
1.37589
1.33795
1.29365
1.27582
1.27375
1.27554
1.29056
1.31973
1.33552
1.33446
1.32899
1.31303
1.2764
1.22538
1.20996
1.25832
1.55722
2.11849
2.70458
2.98014
2.99468
2.96162
2.88238
2.79241
2.72988
2.71664
2.72936
2.784
2.84523
2.85023
2.82597
2.77531
2.70076
2.65917
2.69234
2.86579
3.1604
3.42939
3.52956
3.527
3.49256
3.43275
3.39447
3.37957
3.37795
3.39129
3.39006
3.36951
3.33581
3.29008
3.2606
3.24642
3.24194
3.2556
3.26375
3.24889
3.22291
3.17865
3.13429
3.11593
3.10541
3.10689
3.12486
3.13222
3.11763
3.0934
3.05418
3.01367
2.9952
2.98414
2.9812
2.99187
2.99715
2.98435
2.9638
2.93233
2.90316
2.88934
2.87981
2.87709
2.88521
2.88431
2.87073
2.85222
2.82708
2.80648
2.79501
2.78598
2.77831
2.76892
2.75767
2.74397
2.72695
2.71178
2.7007
2.6911
2.68185
2.67166
2.66073
2.64862
2.6342
2.61953
2.60943
2.60134
2.59476
2.58724
2.57704
2.56489
2.54986
2.53034
2.51137
2.50038
2.49214
2.48556
2.48135
2.47446
2.46566
2.45664
2.44608
2.43546
3.39042
3.36531
3.31581
3.24114
3.17898
3.15745
3.15451
3.15447
3.14444
3.11607
3.07236
3.03999
3.02305
3.0118
3.00092
2.98704
2.96189
2.9024
2.83598
2.81867
2.81166
2.80711
2.80247
2.79603
2.78933
2.78129
2.76828
2.74127
2.67991
2.61999
2.60723
2.59713
2.58298
2.5729
2.5655
2.55591
2.54099
2.51913
2.47797
2.43086
2.41958
2.41348
2.40782
2.40342
2.39902
2.3921
2.38051
2.36236
2.32677
2.27233
2.23515
2.22871
2.22545
2.22242
2.21915
2.21719
2.21377
2.20765
2.19963
2.18713
2.15975
2.10999
2.06308
2.0476
2.0413
2.03417
2.02605
2.01827
2.01298
2.01051
2.00959
2.00666
1.99996
1.98083
1.94577
1.91288
1.89601
1.88744
1.87813
1.86325
1.8426
1.83069
1.82846
1.83002
1.83674
1.83837
1.83383
1.82549
1.80939
1.78639
1.7561
1.71794
1.6855
1.67291
1.67236
1.67952
1.70119
1.71986
1.71943
1.71416
1.70615
1.68901
1.6525
1.59132
1.54779
1.53566
1.53453
1.54011
1.56423
1.59948
1.61458
1.61199
1.60618
1.59507
1.57029
1.52019
1.46487
1.44287
1.43977
1.44054
1.45386
1.48352
1.5037
1.50383
1.49967
1.49207
1.47259
1.43241
1.38624
1.36805
1.36606
1.3679
1.38351
1.41036
1.42052
1.41791
1.41187
1.39622
1.36114
1.31438
1.29224
1.28921
1.29003
1.30269
1.33163
1.35091
1.35087
1.34614
1.33249
1.2973
1.24321
1.22833
1.28666
1.6377
2.26452
2.76507
3.02299
3.03515
3.01191
2.92558
2.82012
2.77243
2.75826
2.76168
2.80236
2.85836
2.87081
2.85676
2.81951
2.75099
2.69322
2.70753
2.82728
3.10049
3.39739
3.55858
3.56547
3.53803
3.47526
3.42655
3.40987
3.40723
3.42255
3.42728
3.40941
3.37847
3.33174
3.29475
3.27876
3.27092
3.28196
3.29682
3.28679
3.26341
3.22378
3.1744
3.14888
3.13709
3.1341
3.14911
3.16199
3.15068
3.12777
3.09071
3.04795
3.02583
3.01482
3.01004
3.01969
3.028
3.01628
2.99599
2.96607
2.93213
2.91388
2.90342
2.898
2.90544
2.91182
2.90095
2.88393
2.85951
2.83394
2.81969
2.80967
2.80197
2.79459
2.78438
2.77239
2.75722
2.73988
2.72686
2.71681
2.70734
2.69706
2.68586
2.67372
2.65937
2.64373
2.63299
2.62453
2.61769
2.61191
2.60396
2.59408
2.58132
2.56242
2.53896
2.52257
2.51289
2.50502
2.49956
2.49287
2.48343
2.47389
2.46298
2.45077
2.44218
3.40862
3.36419
3.29301
3.22769
3.20306
3.19904
3.19698
3.18622
3.1569
3.10879
3.07259
3.05989
3.05063
3.04087
3.03
3.01294
2.96885
2.89275
2.85282
2.8447
2.83926
2.83752
2.83346
2.82564
2.81712
2.80713
2.78958
2.74349
2.66887
2.63125
2.62296
2.61292
2.60089
2.59094
2.58138
2.5705
2.55385
2.52924
2.4887
2.45438
2.44556
2.43936
2.43336
2.42615
2.41854
2.40922
2.39478
2.36884
2.3226
2.27708
2.26229
2.25655
2.25314
2.2499
2.24477
2.24003
2.23428
2.22627
2.2146
2.19296
2.15033
2.09739
2.07277
2.06567
2.05878
2.0525
2.04755
2.04464
2.04361
2.04213
2.03826
2.03159
2.01332
1.97438
1.93289
1.9132
1.90489
1.89713
1.88609
1.87084
1.86108
1.85907
1.86068
1.86608
1.86533
1.85995
1.84899
1.82936
1.8048
1.77579
1.74318
1.71471
1.70269
1.70139
1.70646
1.72365
1.73776
1.73605
1.73055
1.7226
1.70684
1.67521
1.62039
1.57481
1.55998
1.55884
1.56423
1.58734
1.62026
1.63266
1.62919
1.62339
1.61354
1.59181
1.54638
1.48927
1.46299
1.45898
1.45922
1.47127
1.50025
1.52129
1.52172
1.51763
1.51079
1.49387
1.4574
1.40918
1.38596
1.38304
1.38388
1.39708
1.42403
1.43727
1.4351
1.42951
1.41586
1.38409
1.33636
1.30961
1.3051
1.30531
1.3156
1.34338
1.36617
1.3675
1.36302
1.35106
1.31967
1.2626
1.24889
1.33952
1.71595
2.38866
2.81731
3.04404
3.06627
3.04283
2.97719
2.86783
2.79927
2.78204
2.78604
2.83612
2.89447
2.89968
2.88267
2.8448
2.78275
2.72023
2.72031
2.79977
3.03956
3.35082
3.57526
3.607
3.58768
3.52479
3.46259
3.43985
3.43388
3.45092
3.46365
3.44888
3.42147
3.37455
3.3282
3.30849
3.29808
3.30559
3.32545
3.32354
3.30316
3.26816
3.21629
3.18207
3.16857
3.16235
3.17407
3.19139
3.18449
3.16404
3.13047
3.08372
3.05412
3.0413
3.03477
3.04331
3.05678
3.05039
3.0325
3.00315
2.964
2.94061
2.92868
2.92083
2.92507
2.9363
2.93067
2.91497
2.89289
2.8644
2.84547
2.83441
2.82564
2.8191
2.81004
2.79898
2.78569
2.76849
2.7527
2.74194
2.73251
2.72278
2.71208
2.70026
2.68596
2.6689
2.65545
2.64635
2.63852
2.63257
2.62702
2.61843
2.60792
2.59378
2.57282
2.55165
2.53915
2.53025
2.52352
2.51619
2.50614
2.49552
2.48377
2.46966
2.45707
2.44851
3.41319
3.34697
3.27854
3.24953
3.24437
3.23968
3.22642
3.19348
3.14542
3.108
3.09516
3.08984
3.08342
3.07426
3.06191
3.03007
2.95694
2.89153
2.87719
2.87083
2.86825
2.86782
2.86285
2.8544
2.84415
2.83005
2.7984
2.72889
2.66573
2.6496
2.63865
2.62922
2.62027
2.61096
2.59996
2.5877
2.56982
2.54314
2.51001
2.48073
2.46808
2.46128
2.45527
2.44646
2.43504
2.42246
2.40514
2.37167
2.3222
2.302
2.29239
2.28279
2.2777
2.2737
2.26646
2.25857
2.25064
2.23991
2.22263
2.18967
2.13769
2.1009
2.09195
2.08561
2.08037
2.07726
2.07611
2.07489
2.07258
2.06838
2.06152
2.04539
2.00776
1.95831
1.93178
1.92296
1.91594
1.90759
1.89845
1.8924
1.89047
1.89214
1.8959
1.89377
1.88732
1.87258
1.84921
1.82326
1.79578
1.76756
1.74252
1.73229
1.73097
1.73481
1.74732
1.75583
1.75292
1.74713
1.73915
1.7246
1.69696
1.64854
1.6029
1.58546
1.58427
1.58926
1.61061
1.64021
1.65006
1.646
1.64007
1.63105
1.61222
1.57282
1.51626
1.48463
1.47919
1.47911
1.48971
1.51749
1.53874
1.5392
1.53509
1.52888
1.51426
1.48186
1.43371
1.40546
1.40082
1.40101
1.41181
1.43761
1.45335
1.45189
1.44672
1.43464
1.40631
1.3594
1.32791
1.3213
1.32122
1.32947
1.35547
1.38102
1.38425
1.37988
1.36911
1.3415
1.28387
1.27547
1.3973
1.85625
2.45729
2.94001
3.10078
3.11175
3.08601
3.01264
2.91187
2.83084
2.8073
2.81166
2.85574
2.9275
2.94678
2.92965
2.88872
2.81521
2.73982
2.72629
2.77662
2.98
3.29623
3.58
3.64393
3.63195
3.57471
3.50351
3.47381
3.46507
3.47945
3.49995
3.49106
3.46612
3.42262
3.3693
3.34248
3.33004
3.33169
3.3521
3.35823
3.34053
3.30955
3.26029
3.217
3.20051
3.19169
3.1989
3.21901
3.2194
3.20073
3.16919
3.12257
3.08668
3.07278
3.06437
3.06911
3.08432
3.08223
3.06482
3.03827
3
2.9698
2.95643
2.94729
2.94721
2.95888
2.95912
2.94455
2.92435
2.89565
2.87166
2.85971
2.85032
2.84391
2.836
2.82497
2.81232
2.79587
2.778
2.76587
2.75631
2.74734
2.73752
2.72645
2.71352
2.69725
2.68029
2.66862
2.65987
2.65241
2.6466
2.63938
2.62979
2.61861
2.60262
2.58178
2.56681
2.55757
2.55047
2.54395
2.5345
2.52356
2.51109
2.49609
2.48038
2.46843
2.45893
3.4019
3.33072
3.29634
3.28982
3.28318
3.26692
3.22944
3.18057
3.14411
3.13166
3.12766
3.12682
3.12025
3.11016
3.08578
3.02106
2.93905
2.90949
2.90212
2.89898
2.89965
2.8973
2.89118
2.88236
2.8698
2.84659
2.78877
2.70843
2.67758
2.66922
2.65722
2.64957
2.64298
2.63431
2.62338
2.61096
2.59336
2.56348
2.53041
2.5028
2.48799
2.4804
2.47362
2.46306
2.44895
2.4336
2.41382
2.37718
2.33836
2.32746
2.31696
2.30433
2.29762
2.29284
2.28449
2.27405
2.26357
2.24964
2.22562
2.18275
2.1357
2.1197
2.1141
2.10944
2.10697
2.10709
2.10533
2.10095
2.09611
2.08963
2.0766
2.04339
1.9898
1.95341
1.94248
1.93613
1.92975
1.92455
1.92193
1.92275
1.92538
1.92535
1.92211
1.91481
1.89636
1.86913
1.84128
1.81585
1.79145
1.76994
1.76143
1.76004
1.76356
1.77265
1.77541
1.77123
1.76481
1.75568
1.74157
1.71787
1.67665
1.63254
1.6121
1.61046
1.61476
1.63366
1.65915
1.66658
1.66237
1.65659
1.64833
1.63194
1.59828
1.54459
1.50825
1.50029
1.50009
1.50918
1.53516
1.5562
1.55656
1.55229
1.54637
1.53355
1.50519
1.459
1.42665
1.41959
1.41931
1.42767
1.45152
1.46894
1.4683
1.46342
1.45266
1.42759
1.38279
1.34711
1.33791
1.33754
1.34397
1.36778
1.39546
1.40105
1.39685
1.38698
1.36264
1.30642
1.30712
1.46362
1.99798
2.57781
2.98418
3.14857
3.15664
3.13572
3.05305
2.92525
2.84817
2.83723
2.84068
2.87826
2.949
2.97788
2.96449
2.93264
2.86956
2.78485
2.74318
2.7699
2.92337
3.23008
3.55421
3.67882
3.67491
3.62536
3.54612
3.50709
3.49581
3.5068
3.53265
3.53189
3.50979
3.47056
3.41412
3.3772
3.36223
3.35853
3.37648
3.39054
3.37683
3.34996
3.30436
3.25493
3.23321
3.22252
3.22499
3.24483
3.25202
3.23662
3.20952
3.16506
3.12065
3.10221
3.09174
3.09253
3.10812
3.11293
3.09855
3.0752
3.03702
3.00061
2.98419
2.97361
2.97014
2.98045
2.98653
2.97452
2.95584
2.92834
2.89903
2.88429
2.87465
2.86892
2.86369
2.85285
2.84076
2.82532
2.80538
2.79025
2.78017
2.77128
2.76214
2.75165
2.73963
2.72451
2.70647
2.69282
2.68301
2.67423
2.66704
2.65895
2.649
2.63814
2.62492
2.60718
2.59093
2.58167
2.57479
2.56976
2.56205
2.55215
2.5411
2.52717
2.51097
2.49671
2.48604
2.47657
3.38436
3.34297
3.33394
3.32526
3.30664
3.26656
3.21676
3.18133
3.16955
3.16695
3.17041
3.16746
3.1587
3.13828
3.07946
2.98911
2.94247
2.933
2.92877
2.93169
2.93208
2.9269
2.91992
2.90978
2.89173
2.84581
2.76191
2.70498
2.69619
2.68854
2.6799
2.67479
2.67029
2.66241
2.65255
2.64105
2.62316
2.58173
2.54151
2.51987
2.50577
2.49775
2.48977
2.47795
2.4631
2.44695
2.42647
2.39522
2.36187
2.34601
2.33429
2.32139
2.31378
2.30791
2.29894
2.28725
2.27496
2.2582
2.22727
2.17932
2.15013
2.14353
2.13866
2.13605
2.13614
2.13457
2.12886
2.12269
2.11567
2.10484
2.07864
2.02768
1.97929
1.96339
1.95819
1.95353
1.95063
1.9503
1.95417
1.95769
1.95549
1.95054
1.94137
1.91984
1.88896
1.85889
1.83527
1.81405
1.79701
1.79073
1.78946
1.79306
1.7995
1.79822
1.79252
1.78351
1.77167
1.75726
1.73683
1.70402
1.66402
1.64087
1.63809
1.64065
1.65629
1.67734
1.68221
1.67818
1.67287
1.66537
1.65151
1.62283
1.57345
1.53391
1.52265
1.52206
1.52945
1.55305
1.57344
1.57389
1.56948
1.56357
1.55218
1.52735
1.48437
1.44914
1.43926
1.43862
1.44507
1.46638
1.48391
1.48401
1.47945
1.47008
1.4481
1.40637
1.36751
1.35514
1.35435
1.35929
1.38043
1.40887
1.41729
1.41356
1.40436
1.38382
1.32985
1.34323
1.55503
2.12362
2.68913
3.02734
3.17343
3.17945
3.15882
3.10198
2.98612
2.88326
2.84991
2.84913
2.89129
2.97259
3.0086
2.9993
2.96682
2.90352
2.82081
2.77694
2.78961
2.89796
3.17134
3.51306
3.70719
3.71679
3.67827
3.5942
3.54112
3.52518
3.53159
3.56072
3.56896
3.55076
3.51607
3.46108
3.41632
3.39886
3.39118
3.4045
3.42317
3.41426
3.38963
3.34785
3.29525
3.26665
3.2546
3.25259
3.2699
3.2834
3.27151
3.24713
3.20554
3.15859
3.13637
3.12582
3.12278
3.13528
3.1437
3.13074
3.10832
3.07402
3.03487
3.01453
3.00373
2.99787
3.0051
3.01407
3.00429
2.98633
2.96009
2.92765
2.90885
2.89838
2.89147
2.88984
2.882
2.86967
2.85528
2.83563
2.81666
2.80504
2.7957
2.78674
2.7764
2.76475
2.75111
2.73429
2.71796
2.70706
2.69836
2.69047
2.68154
2.67093
2.659
2.64536
2.62856
2.61231
2.60256
2.59507
2.59015
2.58559
2.57747
2.56774
2.55579
2.53994
2.52456
2.51407
2.50504
2.4956
3.38642
3.37466
3.36386
3.34307
3.30351
3.25458
3.22006
3.2091
3.20814
3.21723
3.21684
3.20838
3.18893
3.13293
3.03829
2.97652
2.96265
2.95739
2.9605
2.96874
2.96466
2.95812
2.94987
2.93603
2.90023
2.82239
2.74258
2.72167
2.71604
2.71105
2.70784
2.70599
2.7026
2.69543
2.68638
2.67335
2.64123
2.57979
2.54796
2.53441
2.52219
2.51501
2.5063
2.49458
2.48093
2.46654
2.44783
2.41721
2.37928
2.35907
2.3474
2.336
2.3281
2.32114
2.31209
2.30022
2.28665
2.26693
2.22865
2.18625
2.17374
2.16794
2.16375
2.16297
2.16225
2.15611
2.14906
2.14144
2.13138
2.1108
2.06711
2.01231
1.98733
1.98202
1.97846
1.97697
1.97894
1.98445
1.9871
1.98397
1.97857
1.96826
1.94447
1.90934
1.87611
1.85368
1.83614
1.82474
1.82068
1.82039
1.8244
1.82814
1.82491
1.81638
1.80248
1.78763
1.77313
1.75538
1.7295
1.69517
1.67035
1.6667
1.66764
1.67911
1.69546
1.69771
1.69366
1.68909
1.68235
1.67078
1.64654
1.60286
1.5614
1.54676
1.54551
1.55094
1.57152
1.59029
1.59079
1.58644
1.5806
1.57047
1.54871
1.51004
1.47296
1.46001
1.45902
1.46384
1.4823
1.49889
1.49905
1.49458
1.48662
1.46791
1.43048
1.3894
1.37333
1.37189
1.37523
1.39389
1.42207
1.43226
1.42949
1.42137
1.40515
1.35681
1.38592
1.66205
2.26814
2.7821
3.0919
3.21411
3.21754
3.19618
3.13817
3.03729
2.93504
2.89779
2.89278
2.92256
2.99989
3.04627
3.03939
3.01045
2.94838
2.84777
2.78996
2.79069
2.86586
3.1105
3.46284
3.72546
3.75665
3.72884
3.64647
3.58132
3.5611
3.56127
3.58884
3.60485
3.58967
3.55811
3.50531
3.45365
3.43256
3.42242
3.43221
3.45464
3.45243
3.42963
3.39123
3.33726
3.30051
3.28647
3.28108
3.2952
3.31322
3.30547
3.28401
3.2471
3.197
3.16688
3.15454
3.14909
3.15965
3.1729
3.16434
3.14493
3.11309
3.06971
3.04401
3.03159
3.02398
3.02901
3.04086
3.03554
3.01895
2.99395
2.95867
2.93423
2.92255
2.91402
2.91192
2.91051
2.89929
2.8858
2.86781
2.84633
2.8321
2.82217
2.81302
2.8028
2.79114
2.77748
2.76003
2.74193
2.73059
2.72159
2.71376
2.70578
2.69586
2.68464
2.67056
2.65064
2.63174
2.62139
2.6133
2.60728
2.60386
2.59796
2.58884
2.57855
2.56495
2.54908
2.5381
2.52945
2.52081
2.51223
3.408
3.39579
3.37512
3.33949
3.29408
3.26071
3.25032
3.25042
3.26555
3.26929
3.26022
3.23952
3.18343
3.08545
3.01069
2.99078
2.98524
2.98688
3.00143
3.00536
2.99882
2.9914
2.98037
2.95234
2.88319
2.78883
2.74954
2.74348
2.73952
2.74013
2.74285
2.74207
2.73775
2.73068
2.72021
2.69436
2.63432
2.57357
2.55814
2.54836
2.53947
2.5342
2.52583
2.51547
2.50423
2.49151
2.47064
2.42768
2.38671
2.36907
2.35956
2.35138
2.34388
2.3363
2.32779
2.31654
2.3014
2.27721
2.23445
2.20517
2.19698
2.19128
2.18779
2.18752
2.18321
2.1756
2.16732
2.1573
2.14077
2.10471
2.05006
2.01527
2.00856
2.00515
2.00407
2.00694
2.01241
2.01372
2.01026
2.00461
1.99402
1.97033
1.93272
1.89525
1.87283
1.86026
1.85387
1.85137
1.85333
1.8578
1.8581
1.85315
1.84043
1.82077
1.803
1.78904
1.77447
1.75382
1.72472
1.69955
1.69505
1.69517
1.70199
1.71373
1.71408
1.70947
1.70512
1.69942
1.68993
1.66965
1.63208
1.58987
1.57182
1.57021
1.57399
1.59127
1.60745
1.60725
1.60295
1.59751
1.58879
1.57014
1.53565
1.49763
1.48164
1.48034
1.48378
1.49919
1.51381
1.51352
1.50896
1.50193
1.48642
1.45451
1.4131
1.39257
1.39033
1.39229
1.408
1.43535
1.44665
1.4442
1.43684
1.42482
1.38737
1.44545
1.78393
2.43434
2.87378
3.12487
3.24163
3.25275
3.23194
3.17667
3.07138
2.95858
2.92866
2.92482
2.95069
3.0276
3.0799
3.0726
3.04871
2.99645
2.90568
2.8224
2.80387
2.8492
3.04809
3.39437
3.72145
3.79677
3.77828
3.70322
3.62319
3.59651
3.59311
3.62003
3.64343
3.63095
3.60203
3.55172
3.49304
3.46516
3.45332
3.45883
3.48332
3.48946
3.46996
3.4354
3.38197
3.33785
3.32138
3.31328
3.32328
3.3441
3.34144
3.32139
3.287
3.23723
3.20128
3.18808
3.18056
3.18672
3.20146
3.19754
3.17924
3.14968
3.10723
3.07569
3.06259
3.0539
3.05605
3.06892
3.06752
3.05152
3.02777
2.99184
2.96112
2.94732
2.93754
2.93278
2.93481
2.92716
2.91387
2.89785
2.87663
2.8596
2.84914
2.83992
2.83006
2.81856
2.80536
2.78883
2.76901
2.75388
2.74439
2.73629
2.72898
2.72032
2.71018
2.69803
2.68099
2.65902
2.64252
2.63299
2.62575
2.62124
2.61691
2.60822
2.59846
2.58674
2.57083
2.55811
2.54977
2.54208
2.5346
2.52645
3.42247
3.40308
3.37335
3.33416
3.30431
3.29472
3.29597
3.3136
3.32172
3.3121
3.28889
3.23195
3.13191
3.04667
3.02024
3.01384
3.01386
3.02952
3.04526
3.04177
3.03495
3.02535
3.00253
2.94171
2.84132
2.78334
2.77315
2.76857
2.76934
2.77856
2.78246
2.77871
2.77273
2.76408
2.74384
2.69001
2.61298
2.57923
2.57209
2.56522
2.56097
2.557
2.54938
2.54048
2.53051
2.51516
2.47776
2.42305
2.39261
2.38057
2.37476
2.37041
2.36329
2.35573
2.34807
2.33854
2.32226
2.29008
2.24527
2.22552
2.21853
2.21329
2.21054
2.20864
2.20223
2.19386
2.18418
2.17005
2.14061
2.0895
2.04648
2.03674
2.03378
2.03237
2.03431
2.03818
2.03768
2.03409
2.02885
2.01886
1.99597
1.95798
1.91776
1.895
1.8867
1.8836
1.88446
1.88744
1.88958
1.88831
1.88165
1.86329
1.83913
1.81975
1.80549
1.79297
1.77703
1.75254
1.72823
1.72256
1.72246
1.72596
1.73148
1.73129
1.72673
1.72161
1.71592
1.70794
1.69217
1.661
1.61975
1.59661
1.5947
1.59753
1.61152
1.62545
1.62423
1.61953
1.61433
1.60678
1.59181
1.56215
1.5241
1.50423
1.50228
1.50432
1.51641
1.52865
1.52767
1.52286
1.51638
1.50377
1.47756
1.43823
1.41312
1.40956
1.41046
1.42301
1.44853
1.46076
1.45871
1.45172
1.43679
1.41687
1.51339
1.93719
2.57094
2.95068
3.16404
3.26932
3.28128
3.26115
3.21135
3.12417
3.01166
2.94469
2.93493
2.95881
3.03972
3.10999
3.11204
3.08699
3.03515
2.94544
2.86053
2.83997
2.86483
3.01117
3.32313
3.68541
3.83126
3.82263
3.7582
3.67064
3.63617
3.62832
3.65116
3.68255
3.67645
3.64941
3.60065
3.53645
3.50018
3.48637
3.48694
3.51025
3.52392
3.5081
3.47679
3.42655
3.3752
3.35345
3.34308
3.34858
3.37156
3.37691
3.35953
3.32919
3.2803
3.23492
3.21787
3.20852
3.21159
3.22764
3.22899
3.21312
3.18819
3.14712
3.10811
3.09143
3.08086
3.07996
3.09343
3.09862
3.08535
3.06408
3.02952
2.9919
2.97377
2.96272
2.95537
2.9561
2.95446
2.94206
2.92714
2.90705
2.88685
2.87496
2.86559
2.85668
2.84614
2.83385
2.81825
2.79741
2.7785
2.76753
2.7588
2.75129
2.74317
2.73321
2.72177
2.70728
2.68768
2.66938
2.65832
2.64958
2.64325
2.63792
2.62869
2.61821
2.60702
2.59317
2.5787
2.56915
2.56138
2.55438
2.54663
2.53746
3.42974
3.40587
3.37521
3.35179
3.34351
3.34667
3.36488
3.37234
3.36191
3.33526
3.27649
3.17613
3.08489
3.0528
3.04515
3.04377
3.0578
3.08232
3.08602
3.07978
3.0712
3.05162
2.99666
2.89605
2.82191
2.80451
2.79953
2.79895
2.81045
2.82225
2.81973
2.81327
2.80516
2.78905
2.74273
2.66129
2.60667
2.59587
2.59022
2.5883
2.58768
2.58287
2.57554
2.56708
2.55476
2.52494
2.467
2.41964
2.40407
2.39701
2.39535
2.39394
2.38645
2.37983
2.37307
2.36419
2.34338
2.29594
2.2566
2.24506
2.23877
2.23476
2.23252
2.22818
2.22078
2.21174
2.2001
2.1776
2.13144
2.08107
2.06465
2.0627
2.06194
2.06129
2.06193
2.0607
2.05638
2.05114
2.04264
2.02272
1.9855
1.94358
1.9199
1.91425
1.91341
1.9181
1.92227
1.92053
1.91622
1.90783
1.88631
1.85766
1.83643
1.82318
1.8123
1.79898
1.77862
1.7566
1.75012
1.74929
1.75144
1.75258
1.74907
1.7445
1.73924