/*--------------------------------*- C++ -*----------------------------------*\
  =========                 |
  \\      /  F ield         | OpenFOAM: The Open Source CFD Toolbox
   \\    /   O peration     | Website:  https://openfoam.org
    \\  /    A nd           | Version:  7
     \\/     M anipulation  |
\*---------------------------------------------------------------------------*/
FoamFile
{
    version     2.0;
    format      ascii;
    class       volScalarField;
    location    "3";
    object      T;
}
// * * * * * * * * * * * * * * * * * * * * * * * * * * * * * * * * * * * * * //

dimensions      [0 0 0 1 0 0 0];

internalField   nonuniform List<scalar> 
16512
(
1.77293
1.77401
1.77802
1.78091
1.78087
1.78097
1.78041
1.7767
1.76692
1.75298
1.74519
1.74371
1.74365
1.74433
1.74478
1.74451
1.74393
1.74318
1.74196
1.7392
1.73144
1.71942
1.71426
1.7139
1.7136
1.71356
1.71355
1.7135
1.71297
1.71146
1.708
1.69958
1.6889
1.68555
1.68503
1.68455
1.68454
1.68514
1.68556
1.68523
1.68384
1.6786
1.66791
1.6606
1.65876
1.65769
1.65696
1.656
1.65481
1.65321
1.65115
1.64826
1.64211
1.63454
1.63214
1.63055
1.62965
1.62888
1.62745
1.62584
1.62405
1.62144
1.61783
1.61415
1.61124
1.60809
1.60576
1.60451
1.60342
1.60216
1.60042
1.5976
1.59264
1.58525
1.57811
1.57606
1.57604
1.57785
1.58027
1.58022
1.57975
1.57884
1.57695
1.57297
1.56548
1.5539
1.54438
1.54105
1.54084
1.54332
1.5504
1.55641
1.55677
1.55553
1.5528
1.54609
1.53232
1.51653
1.50978
1.50878
1.50916
1.51357
1.52362
1.5326
1.53429
1.53324
1.53057
1.52347
1.50896
1.49137
1.48328
1.48146
1.48117
1.48325
1.49082
1.50082
1.50477
1.5043
1.50317
1.49949
1.48984
1.47447
1.46427
1.46152
1.46093
1.46226
1.46807
1.47462
1.47565
1.47444
1.47259
1.46803
1.45765
1.44511
1.44008
1.4396
1.44006
1.44418
1.45167
1.45498
1.45443
1.45305
1.4491
1.43921
1.42514
1.41759
1.41614
1.41612
1.4191
1.42717
1.43353
1.43378
1.43266
1.42986
1.42231
1.40838
1.39746
1.39535
1.39841
1.43328
1.55297
1.73378
1.80855
1.83021
1.82706
1.81314
1.79393
1.78813
1.78863
1.79134
1.79757
1.79693
1.79236
1.78631
1.77788
1.77526
1.79095
1.83334
1.87528
1.90047
1.90251
1.89967
1.89046
1.87912
1.87256
1.86888
1.86704
1.8656
1.86087
1.85496
1.84806
1.84106
1.83623
1.83254
1.83106
1.83063
1.82724
1.82192
1.81536
1.80693
1.80046
1.79653
1.79359
1.79342
1.79414
1.79243
1.78686
1.78008
1.77173
1.76461
1.76029
1.75693
1.75583
1.75584
1.75341
1.74839
1.74289
1.7366
1.73175
1.72827
1.72509
1.72274
1.72059
1.7165
1.71224
1.70778
1.70313
1.69931
1.69596
1.69269
1.6893
1.68579
1.68203
1.67802
1.67428
1.67088
1.66775
1.66464
1.66132
1.65789
1.65419
1.64996
1.64579
1.64252
1.63952
1.63676
1.63443
1.63179
1.6286
1.62512
1.62095
1.61614
1.61208
1.60896
1.60629
1.60382
1.60127
1.59865
1.77485
1.77854
1.78135
1.78133
1.78135
1.78073
1.77711
1.76806
1.75472
1.74663
1.74499
1.74514
1.74594
1.74592
1.7453
1.74426
1.74319
1.74196
1.73989
1.73456
1.72364
1.71496
1.71386
1.71363
1.71357
1.71343
1.71332
1.71308
1.71218
1.7101
1.70474
1.69367
1.68693
1.68645
1.6865
1.68631
1.68583
1.68599
1.68596
1.68521
1.68151
1.67161
1.66185
1.65943
1.65873
1.65797
1.65756
1.65699
1.656
1.65454
1.65254
1.6484
1.6386
1.63143
1.63057
1.62963
1.62879
1.62827
1.62721
1.62579
1.62424
1.62227
1.61992
1.61737
1.61315
1.60762
1.60486
1.60357
1.60235
1.60086
1.59861
1.59469
1.58853
1.58217
1.58005
1.57989
1.58094
1.5821
1.58168
1.58073
1.57919
1.57705
1.57353
1.56737
1.55769
1.54868
1.54513
1.54484
1.54688
1.5529
1.55789
1.55804
1.55686
1.55431
1.54805
1.53532
1.5197
1.51216
1.51096
1.5113
1.51567
1.52584
1.53486
1.53646
1.53562
1.53327
1.52638
1.51181
1.49363
1.48497
1.48293
1.48257
1.48454
1.49217
1.50266
1.50702
1.50664
1.50563
1.5022
1.49278
1.47697
1.46589
1.46285
1.4622
1.46332
1.46899
1.47641
1.47826
1.47721
1.47548
1.47149
1.46191
1.44858
1.44206
1.44127
1.44146
1.4449
1.45242
1.45687
1.4566
1.45543
1.45216
1.44328
1.42901
1.41998
1.41792
1.41773
1.42002
1.42755
1.43483
1.43567
1.43459
1.43208
1.42518
1.41163
1.39948
1.39684
1.40148
1.44841
1.57833
1.73274
1.82747
1.83619
1.83082
1.81746
1.80025
1.78863
1.78595
1.78806
1.79593
1.79958
1.7963
1.78833
1.77777
1.77367
1.78248
1.81928
1.86499
1.89931
1.90425
1.90224
1.89538
1.88375
1.8754
1.871
1.86818
1.86684
1.86317
1.85758
1.85133
1.84419
1.83883
1.83483
1.83248
1.83233
1.83051
1.8253
1.8191
1.81064
1.80307
1.79869
1.79535
1.79437
1.79505
1.79439
1.78963
1.78332
1.77485
1.76675
1.76205
1.7585
1.75683
1.75701
1.75612
1.75142
1.74588
1.73948
1.7338
1.7301
1.72693
1.72448
1.72286
1.71924
1.7149
1.71036
1.70537
1.70117
1.6978
1.69456
1.6912
1.68771
1.68407
1.68016
1.67637
1.67297
1.66979
1.66674
1.66352
1.66012
1.65642
1.65223
1.64787
1.64439
1.64147
1.63864
1.6361
1.63375
1.63068
1.62731
1.62357
1.61901
1.61453
1.61122
1.60849
1.60604
1.60349
1.60085
1.59805
1.77894
1.78154
1.78162
1.78164
1.78094
1.77743
1.76891
1.75631
1.74824
1.74628
1.74641
1.74755
1.74748
1.74646
1.7446
1.74289
1.74151
1.7399
1.73669
1.72845
1.71752
1.71405
1.71361
1.71361
1.71377
1.71359
1.71332
1.71273
1.71137
1.70819
1.70035
1.68951
1.68712
1.68697
1.68741
1.68717
1.68648
1.68611
1.68555
1.68341
1.67579
1.66449
1.65994
1.65956
1.65939
1.65926
1.65917
1.65877
1.65759
1.6558
1.65254
1.64407
1.63312
1.62983
1.62949
1.62895
1.62854
1.62829
1.62766
1.62675
1.62584
1.6248
1.62312
1.61905
1.61129
1.60535
1.60358
1.60257
1.60129
1.59941
1.59637
1.59135
1.58593
1.58406
1.58388
1.58433
1.58437
1.58375
1.58185
1.57927
1.57673
1.57372
1.56881
1.56097
1.55274
1.54907
1.54878
1.55043
1.55549
1.55939
1.55919
1.55809
1.55581
1.55005
1.53844
1.52329
1.51505
1.51347
1.5137
1.51781
1.52769
1.53655
1.5381
1.53745
1.53545
1.52899
1.51477
1.49633
1.48704
1.48474
1.48433
1.48621
1.49373
1.50454
1.50925
1.50886
1.50788
1.50466
1.49556
1.47962
1.46761
1.46416
1.46349
1.46444
1.46989
1.47796
1.48073
1.47987
1.47823
1.47471
1.46594
1.45224
1.44421
1.44292
1.44295
1.44574
1.45314
1.45866
1.45878
1.4578
1.45511
1.44724
1.43317
1.42265
1.4198
1.41943
1.42114
1.42802
1.43601
1.43758
1.43658
1.43434
1.42793
1.41483
1.40165
1.3984
1.404
1.46122
1.61428
1.75066
1.82853
1.83785
1.83432
1.81786
1.80052
1.79251
1.78944
1.79157
1.79819
1.80199
1.79962
1.79234
1.78087
1.77135
1.77494
1.80211
1.85158
1.89226
1.90716
1.90607
1.90054
1.88954
1.87893
1.87365
1.87014
1.86853
1.86562
1.85992
1.85404
1.847
1.84095
1.8368
1.83384
1.83352
1.8329
1.82827
1.8223
1.81433
1.80574
1.80058
1.79708
1.79533
1.79603
1.79622
1.79224
1.78609
1.77826
1.76954
1.76393
1.76033
1.75782
1.75779
1.75765
1.75386
1.74845
1.74234
1.73603
1.73176
1.72847
1.72588
1.72461
1.72199
1.71763
1.71312
1.70802
1.70333
1.69981
1.6966
1.6933
1.68976
1.68608
1.68217
1.67823
1.67479
1.67159
1.66862
1.66562
1.66244
1.65906
1.65508
1.65037
1.64633
1.64334
1.64056
1.63796
1.63558
1.63256
1.62921
1.62571
1.62153
1.6168
1.61309
1.61022
1.60783
1.60548
1.60302
1.60047
1.59755
1.78156
1.78177
1.78176
1.78102
1.77763
1.76962
1.75787
1.74995
1.74779
1.74785
1.74904
1.74916
1.74803
1.74505
1.74256
1.74106
1.73967
1.73756
1.73245
1.72204
1.71492
1.71405
1.71366
1.71391
1.71434
1.71413
1.71358
1.71253
1.71051
1.70526
1.6957
1.68856
1.68703
1.68698
1.68752
1.68728
1.68645
1.68554
1.68393
1.67913
1.66893
1.66112
1.66045
1.66048
1.66105
1.66117
1.66104
1.66023
1.65853
1.65572
1.64873
1.63709
1.63013
1.62944
1.62913
1.62899
1.62915
1.62927
1.62913
1.62882
1.6283
1.62733
1.62395
1.61554
1.60711
1.60377
1.60266
1.60168
1.60014
1.59765
1.59382
1.58964
1.58814
1.58805
1.58825
1.58772
1.58631
1.58294
1.57921
1.57634
1.57362
1.56977
1.56363
1.5564
1.55274
1.55244
1.55369
1.55786
1.56095
1.56049
1.55936
1.5572
1.55189
1.5415
1.52726
1.51845
1.51639
1.51648
1.52017
1.52946
1.53775
1.5392
1.53873
1.53713
1.5312
1.51758
1.49924
1.48946
1.4869
1.48644
1.48825
1.49559
1.5065
1.51143
1.51102
1.50996
1.50684
1.49822
1.48238
1.46938
1.46554
1.46483
1.4656
1.47082
1.47939
1.48304
1.48241
1.48094
1.47781
1.46977
1.45601
1.44652
1.44456
1.44449
1.44667
1.45377
1.46034
1.461
1.46009
1.45788
1.45095
1.43734
1.42552
1.42183
1.42125
1.42247
1.4286
1.43718
1.4396
1.43867
1.43656
1.43065
1.41801
1.40382
1.40037
1.40769
1.46923
1.63596
1.77221
1.83172
1.83747
1.83347
1.82122
1.803
1.7949
1.79199
1.79398
1.80152
1.80438
1.80133
1.79465
1.78412
1.77278
1.77354
1.79144
1.83646
1.88166
1.907
1.90847
1.90592
1.89608
1.88353
1.87623
1.87216
1.87055
1.86909
1.86386
1.85765
1.85014
1.84297
1.83839
1.83497
1.83418
1.83423
1.83105
1.8254
1.81802
1.80888
1.80271
1.79893
1.79645
1.79683
1.79767
1.7951
1.78946
1.78212
1.77293
1.76624
1.76222
1.75911
1.7586
1.75874
1.75638
1.75108
1.74507
1.73832
1.73341
1.72994
1.72714
1.72585
1.72439
1.72035
1.71587
1.7108
1.70564
1.70187
1.69873
1.69561
1.69221
1.68855
1.6846
1.68036
1.67658
1.6733
1.67022
1.66734
1.66432
1.66113
1.65766
1.65352
1.64905
1.64553
1.64267
1.63997
1.63747
1.63454
1.63109
1.62751
1.62358
1.61901
1.61491
1.61172
1.60905
1.60688
1.60466
1.60233
1.59982
1.59678
1.78182
1.78176
1.78093
1.77771
1.77022
1.75917
1.75159
1.7495
1.74949
1.75058
1.7508
1.74953
1.74553
1.74211
1.74068
1.73964
1.73816
1.73511
1.7272
1.71707
1.71472
1.7142
1.71411
1.71454
1.71509
1.7149
1.71404
1.71241
1.70909
1.70036
1.69204
1.68872
1.68663
1.68653
1.68696
1.68677
1.68585
1.68427
1.6811
1.67359
1.66415
1.66156
1.6616
1.66195
1.66285
1.66281
1.66222
1.66077
1.65831
1.65275
1.64172
1.63207
1.63001
1.62968
1.62963
1.63002
1.63091
1.63114
1.63112
1.63088
1.63015
1.62775
1.62007
1.60917
1.60454
1.60328
1.60219
1.60088
1.59888
1.59594
1.59316
1.59219
1.59219
1.59226
1.5916
1.58914
1.58397
1.57913
1.57616
1.57373
1.5706
1.56572
1.55948
1.55608
1.55575
1.5567
1.56013
1.5625
1.56193
1.56084
1.55854
1.55343
1.54421
1.53134
1.52224
1.5197
1.51971
1.52287
1.5313
1.53871
1.53983
1.53954
1.53831
1.53305
1.52034
1.50231
1.49211
1.4894
1.4889
1.49063
1.49782
1.50851
1.5135
1.51309
1.51189
1.50882
1.50071
1.48521
1.4714
1.46702
1.46628
1.46692
1.47184
1.48066
1.48521
1.48481
1.48344
1.48071
1.47347
1.45997
1.44904
1.44626
1.44608
1.4477
1.45428
1.46178
1.46322
1.46237
1.46051
1.45445
1.44153
1.42858
1.42395
1.42319
1.424
1.42932
1.4382
1.4417
1.44098
1.43896
1.43341
1.42106
1.40628
1.40229
1.41527
1.48908
1.64821
1.78606
1.83672
1.84017
1.83747
1.82538
1.8063
1.79492
1.79226
1.79409
1.8033
1.80836
1.80533
1.79813
1.78604
1.77306
1.77091
1.78206
1.82057
1.86917
1.90397
1.90966
1.90839
1.8999
1.88719
1.87917
1.87496
1.87315
1.87252
1.86844
1.862
1.85431
1.84584
1.84027
1.83643
1.83485
1.83513
1.83352
1.82809
1.82137
1.81249
1.80504
1.80096
1.79795
1.79763
1.79854
1.79735
1.79199
1.78521
1.77657
1.76894
1.7647
1.76139
1.76
1.76013
1.75854
1.75334
1.74752
1.74071
1.73489
1.73115
1.72815
1.72666
1.72602
1.7229
1.71845
1.71348
1.70794
1.70373
1.70059
1.69769
1.69464
1.69119
1.68738
1.6831
1.67876
1.67518
1.67195
1.66893
1.66598
1.66285
1.6596
1.65602
1.65184
1.64803
1.64508
1.64241
1.63989
1.63698
1.63353
1.62978
1.62567
1.62101
1.61669
1.61337
1.61036
1.60783
1.60573
1.60335
1.60098
1.5984
1.59533
1.78163
1.78076
1.7778
1.7709
1.76036
1.75285
1.75093
1.75112
1.75208
1.75202
1.75039
1.74564
1.74165
1.74029
1.73968
1.73882
1.73698
1.73191
1.7212
1.71514
1.71475
1.71463
1.71482
1.7153
1.7157
1.71548
1.71434
1.71189
1.70566
1.69442
1.68988
1.68832
1.68615
1.68565
1.68587
1.68564
1.68464
1.68257
1.6776
1.66859
1.66355
1.6631
1.663
1.66335
1.66381
1.66354
1.6624
1.66032
1.65617
1.64687
1.63556
1.63133
1.63096
1.63087
1.63111
1.632
1.6329
1.63289
1.63273
1.63212
1.63025
1.6241
1.6128
1.60548
1.60399
1.60305
1.60179
1.60007
1.59798
1.59634
1.5959
1.59603
1.5959
1.59508
1.59198
1.58531
1.57898
1.57594
1.57402
1.57151
1.56743
1.56202
1.55911
1.55879
1.55961
1.56246
1.5641
1.56355
1.56251
1.55982
1.55458
1.54626
1.5351
1.52628
1.52329
1.52327
1.52593
1.53323
1.53958
1.54023
1.53996
1.53896
1.53445
1.52311
1.50573
1.49498
1.4921
1.49166
1.49337
1.50047
1.51072
1.5154
1.51493
1.51364
1.51067
1.50309
1.48818
1.47369
1.46865
1.46786
1.46838
1.47301
1.48194
1.48718
1.48704
1.48581
1.48345
1.47701
1.46412
1.45184
1.44806
1.44773
1.4489
1.45484
1.4629
1.46525
1.46454
1.46297
1.45775
1.44573
1.43186
1.42615
1.4252
1.42567
1.43024
1.43917
1.44376
1.44328
1.44147
1.43638
1.42449
1.40866
1.4043
1.42112
1.51925
1.67037
1.79851
1.84665
1.84822
1.84181
1.82638
1.80839
1.7954
1.79158
1.79279
1.80097
1.81025
1.81018
1.80377
1.79212
1.77706
1.76852
1.7741
1.80473
1.85496
1.89847
1.91104
1.91003
1.90291
1.89017
1.88089
1.87642
1.87468
1.87472
1.87257
1.86635
1.85869
1.84952
1.84267
1.83832
1.83588
1.8362
1.83582
1.83123
1.82487
1.81609
1.80732
1.80259
1.79927
1.79828
1.79922
1.79899
1.79442
1.78811
1.77983
1.77156
1.76675
1.76325
1.76142
1.76159
1.76094
1.75656
1.75074
1.74343
1.73661
1.73242
1.72915
1.72725
1.72703
1.72535
1.72092
1.71615
1.71045
1.70545
1.70206
1.6992
1.69656
1.69355
1.69012
1.6862
1.68169
1.6775
1.67405
1.67088
1.66778
1.66456
1.66128
1.65784
1.65404
1.65023
1.64725
1.64464
1.64229
1.63969
1.63652
1.63292
1.62872
1.62365
1.61865
1.61505
1.61196
1.60914
1.60685
1.60428
1.60169
1.59919
1.5964
1.59356
1.78043
1.77804
1.7719
1.76181
1.754
1.75196
1.75209
1.75319
1.7531
1.75061
1.74501
1.74123
1.74009
1.73976
1.73941
1.73851
1.73565
1.72661
1.71633
1.71478
1.7147
1.71518
1.71573
1.71596
1.71602
1.71564
1.71416
1.71009
1.6996
1.68957
1.68823
1.68718
1.68545
1.68479
1.68467
1.68422
1.6829
1.68034
1.67397
1.66612
1.66498
1.6646
1.66428
1.66413
1.66392
1.66324
1.66151
1.65833
1.65163
1.64092
1.63346
1.63264
1.63263
1.63276
1.63302
1.63372
1.63406
1.63394
1.63343
1.63195
1.62718
1.61699
1.60758
1.60487
1.6039
1.60278
1.60139
1.60002
1.59923
1.59915
1.5994
1.59919
1.59825
1.59464
1.58686
1.57923
1.57564
1.574
1.5722
1.56911
1.56459
1.56205
1.56178
1.56258
1.56493
1.56578
1.56536
1.56421
1.56084
1.55522
1.54758
1.53825
1.53035
1.52707
1.52692
1.52911
1.53514
1.54032
1.54058
1.54018
1.53915
1.53527
1.52568
1.50956
1.49816
1.49495
1.4946
1.49637
1.50337
1.51307
1.5171
1.5165
1.51519
1.51242
1.5055
1.49148
1.47631
1.47044
1.46958
1.46996
1.47432
1.48322
1.48897
1.48905
1.48798
1.48596
1.48032
1.46839
1.45509
1.45
1.44945
1.45023
1.4555
1.46388
1.46704
1.46648
1.46518
1.46078
1.44983
1.43533
1.42845
1.42723
1.42743
1.4313
1.44014
1.44578
1.44561
1.44402
1.43963
1.4282
1.41146
1.4074
1.42744
1.53851
1.70113
1.80721
1.85008
1.8506
1.84578
1.82895
1.80853
1.79892
1.79525
1.79497
1.80095
1.80967
1.81079
1.80652
1.79708
1.78273
1.77108
1.77316
1.79387
1.84063
1.88909
1.91218
1.91232
1.9071
1.89409
1.88292
1.87795
1.87602
1.87638
1.87527
1.86971
1.86241
1.8531
1.84519
1.84058
1.83745
1.83753
1.83788
1.83446
1.8283
1.82011
1.81063
1.80472
1.8012
1.79937
1.8001
1.80052
1.79688
1.79073
1.78276
1.77412
1.76876
1.76548
1.76329
1.76347
1.76329
1.75934
1.75357
1.74658
1.73904
1.73398
1.73046
1.72794
1.72777
1.72728
1.72339
1.71857
1.71303
1.70733
1.70344
1.70036
1.69776
1.69524
1.69218
1.68871
1.68461
1.68009
1.67631
1.67307
1.66993
1.66668
1.66334
1.65992
1.65617
1.65223
1.64916
1.64652
1.64413
1.6419
1.63923
1.6362
1.63259
1.6278
1.62214
1.61761
1.61431
1.61125
1.60856
1.60575
1.60277
1.59999
1.59706
1.59396
1.59152
1.77815
1.77307
1.76365
1.75536
1.75291
1.75291
1.75369
1.75356
1.75078
1.74433
1.74024
1.74
1.73994
1.73986
1.7396
1.73829
1.73216
1.71992
1.71451
1.71438
1.71462
1.71587
1.71643
1.71637
1.7161
1.71528
1.71295
1.70554
1.69286
1.6871
1.68649
1.68565
1.68467
1.68415
1.68364
1.68287
1.68108
1.67795
1.67184
1.66644
1.6659
1.66552
1.66506
1.66426
1.66327
1.66185
1.65942
1.65484
1.64641
1.63797
1.63504
1.6344
1.63446
1.63453
1.63435
1.63443
1.63442
1.63407
1.63295
1.62955
1.6212
1.61056
1.60603
1.60491
1.60388
1.60292
1.60215
1.60189
1.60209
1.60221
1.60183
1.60089
1.5976
1.58914
1.57968
1.57551
1.57391
1.57251
1.57041
1.56723
1.56523
1.56502
1.5658
1.56771
1.56791
1.56741
1.56568
1.56149
1.55558
1.5485
1.54078
1.53403
1.53097
1.53066
1.53225
1.53706
1.54095
1.54089
1.54035
1.53921
1.53575
1.5277
1.51355
1.50183
1.49801
1.4977
1.49949
1.50622
1.51523
1.51857
1.51782
1.51655
1.51404
1.50789
1.49515
1.47955
1.47255
1.47145
1.47168
1.47569
1.48447
1.49053
1.49077
1.48989
1.4882
1.48339
1.47262
1.45876
1.45223
1.45139
1.45181
1.45624
1.46462
1.46867
1.46823
1.4671
1.46344
1.45371
1.43907
1.43091
1.42931
1.42932
1.43249
1.441
1.44767
1.44795
1.44648
1.4427
1.4325
1.41482
1.41125
1.44226
1.5571
1.72368
1.8121
1.84972
1.85185
1.84709
1.83385
1.81259
1.79963
1.79546
1.79532
1.80301
1.81197
1.81194
1.80739
1.79828
1.78485
1.77208
1.77162
1.78496
1.82621
1.87762
1.91086
1.91456
1.91121
1.89886
1.88567
1.87953
1.87698
1.87771
1.87762
1.87286
1.86598
1.85677
1.84759
1.84229
1.83868
1.83834
1.83916
1.83739
1.83168
1.82403
1.81415
1.80689
1.80304
1.80055
1.80097
1.80189
1.79932
1.79368
1.78625
1.77713
1.77059
1.76688
1.76439
1.76457
1.76503
1.7625
1.75719
1.75018
1.74183
1.73599
1.73217
1.72913
1.72853
1.7286
1.72597
1.72108
1.71572
1.70961
1.70501
1.70173
1.69888
1.69651
1.69376
1.69067
1.68708
1.6827
1.6785
1.67517
1.67207
1.66892
1.66565
1.66226
1.65854
1.65442
1.65092
1.64819
1.64565
1.64341
1.64121
1.63844
1.63531
1.63148
1.62639
1.62117
1.61741
1.61423
1.61139
1.60847
1.60519
1.60198
1.59868
1.59508
1.59183
1.58932
1.7743
1.7658
1.75696
1.75388
1.75375
1.75408
1.7537
1.75031
1.74383
1.73961
1.73935
1.74004
1.74058
1.74059
1.74015
1.73643
1.72492
1.71492
1.71392
1.71397
1.7149
1.71642
1.71671
1.71653
1.71589
1.71429
1.7096
1.69816
1.68812
1.68601
1.68483
1.68444
1.68424
1.68391
1.68316
1.68203
1.67986
1.67626
1.67158
1.6673
1.66604
1.66557
1.66501
1.66372
1.66172
1.65951
1.65656
1.65072
1.64202
1.63878
1.63736
1.63596
1.63568
1.63556
1.63491
1.63436
1.634
1.63314
1.63088
1.62504
1.61475
1.60766
1.60616
1.60523
1.6046
1.60431
1.60436
1.60446
1.60443
1.604
1.60303
1.60025
1.59235
1.58132
1.57573
1.574
1.57273
1.57126
1.5696
1.56854
1.56844
1.56926
1.57067
1.57056
1.56982
1.56713
1.56198
1.55586
1.54941
1.54291
1.53708
1.53449
1.53422
1.5355
1.53909
1.54157
1.54127
1.54065
1.53938
1.53624
1.52943
1.5172
1.50569
1.50127
1.50095
1.50265
1.50889
1.51695
1.51967
1.51889
1.51771
1.51546
1.51015
1.49906
1.48361
1.47509
1.47357
1.47367
1.4772
1.48563
1.49184
1.49218
1.49148
1.49015
1.48617
1.47666
1.46286
1.45494
1.45357
1.45374
1.45733
1.46527
1.47
1.46976
1.46876
1.46568
1.45718
1.44296
1.43355
1.43139
1.43131
1.43387
1.44184
1.44938
1.45022
1.44886
1.44554
1.43665
1.41888
1.41705
1.4581
1.59244
1.73351
1.83109
1.85483
1.85552
1.85034
1.83566
1.81684
1.80225
1.7969
1.79686
1.80332
1.81441
1.81661
1.81235
1.80278
1.78725
1.77192
1.7687
1.77703
1.81175
1.86468
1.90845
1.91565
1.91363
1.90288
1.88864
1.88132
1.87832
1.87893
1.87989
1.87658
1.86989
1.86094
1.85082
1.84446
1.84054
1.83927
1.84016
1.83964
1.83455
1.82748
1.81797
1.80934
1.80492
1.80191
1.80177
1.80292
1.80174
1.79646
1.78945
1.78037
1.7729
1.76908
1.76625
1.76587
1.76652
1.76486
1.75965
1.75322
1.74511
1.73823
1.73418
1.73099
1.7296
1.72974
1.72834
1.72354
1.71825
1.71202
1.70663
1.70323
1.70026
1.6978
1.69521
1.69223
1.68895
1.6849
1.68049
1.677
1.67395
1.67097
1.66786
1.6646
1.66111
1.65712
1.65307
1.64993
1.64729
1.64481
1.64257
1.64003
1.63706
1.63378
1.62959
1.62452
1.62041
1.61731
1.61454
1.61187
1.60871
1.60536
1.60183
1.59798
1.59406
1.59082
1.58798
1.76823
1.75885
1.7549
1.75453
1.75446
1.75357
1.74948
1.74319
1.73926
1.73891
1.73972
1.74149
1.74186
1.74171
1.73937
1.72961
1.71674
1.71339
1.71337
1.71404
1.71568
1.71663
1.71676
1.71647
1.71533
1.71225
1.7031
1.69035
1.68616
1.68528
1.68405
1.68414
1.68428
1.68404
1.68329
1.68209
1.67995
1.67584
1.67126
1.66733
1.66561
1.66491
1.66406
1.66223
1.65962
1.65692
1.65364
1.64743
1.64103
1.63978
1.63844
1.63658
1.63599
1.63571
1.63481
1.63369
1.63279
1.63132
1.62774
1.61983
1.61061
1.60762
1.60681
1.60629
1.60618
1.60648
1.60642
1.606
1.60553
1.60472
1.60263
1.59589
1.58414
1.5765
1.57438
1.57324
1.57223
1.57151
1.57131
1.57194
1.57311
1.57348
1.57326
1.57229
1.56864
1.56249
1.55601
1.55031
1.54488
1.53987
1.53767
1.53739
1.53858
1.54132
1.54236
1.54195
1.54124
1.53965
1.53662
1.53096
1.52075
1.50986
1.50479
1.50432
1.50581
1.51134
1.51827
1.52038
1.51966
1.51864
1.51667
1.5122
1.50281
1.48818
1.47832
1.47604
1.47602
1.47896
1.48677
1.49296
1.49333
1.49277
1.49171
1.48848
1.48032
1.46714
1.4581
1.45607
1.45604
1.45877
1.46602
1.47116
1.47112
1.47016
1.46752
1.46016
1.44676
1.43628
1.43348
1.4333
1.43534
1.44266
1.45085
1.4524
1.45118
1.44825
1.4405
1.42342
1.42439
1.47621
1.62516
1.75499
1.83317
1.85871
1.85951
1.85507
1.83855
1.81417
1.8004
1.79836
1.79837
1.80384
1.81508
1.81891
1.81531
1.8072
1.79378
1.77718
1.76785
1.77198
1.7981
1.84917
1.9008
1.91727
1.91644
1.90723
1.89173
1.88271
1.87917
1.87945
1.88122
1.87956
1.87347
1.8652
1.85469
1.8468
1.84237
1.84014
1.8409
1.84119
1.83708
1.8305
1.82158
1.81218
1.80682
1.80347
1.80263
1.80371
1.80353
1.79907
1.7927
1.78406
1.77554
1.7709
1.76766
1.76673
1.76744
1.7669
1.76244
1.75641
1.74833
1.74064
1.73613
1.73271
1.73073
1.73085
1.73034
1.72628
1.72107
1.71484
1.70852
1.70461
1.70165
1.69929
1.69699
1.69395
1.69091
1.68721
1.68261
1.67873
1.67569
1.67283
1.66989
1.66674
1.6634
1.65962
1.65542
1.65196
1.64918
1.64652
1.64405
1.64135
1.63826
1.63498
1.63128
1.62681
1.62258
1.61957
1.61699
1.61472
1.61195
1.60881
1.60554
1.60179
1.59766
1.59392
1.59083
1.58794
1.76112
1.75606
1.75521
1.75466
1.75317
1.74851
1.74242
1.73905
1.73881
1.73969
1.74224
1.74333
1.74331
1.74159
1.733
1.71872
1.71275
1.71258
1.71314
1.71517
1.71639
1.71678
1.71679
1.71617
1.71416
1.70733
1.69395
1.68598
1.68544
1.68474
1.68421
1.68457
1.68507
1.68488
1.68426
1.68324
1.68126
1.67529
1.66924
1.66625
1.66445
1.66355
1.6624
1.66035
1.65775
1.65509
1.65183
1.64685
1.64157
1.63958
1.63809
1.63627
1.63552
1.63503
1.63398
1.63258
1.63133
1.62933
1.62433
1.61528
1.60961
1.60851
1.60787
1.60769
1.60792
1.60785
1.60718
1.60657
1.6058
1.60429
1.59928
1.58831
1.5781
1.575
1.57409
1.57345
1.57331
1.57369
1.57529
1.57662
1.57648
1.57592
1.57447
1.57003
1.56289
1.55606
1.55107
1.54649
1.54251
1.54083
1.54055
1.54169
1.54369
1.54374
1.54318
1.54186
1.53965
1.53662
1.53197
1.52408
1.51438
1.50875
1.50803
1.50899
1.5136
1.51932
1.52077
1.52017
1.51931
1.51761
1.51402
1.50621
1.49288
1.48223
1.479
1.4788
1.48105
1.48799
1.49393
1.49434
1.49383
1.49291
1.49032
1.48345
1.47135
1.46161
1.45881
1.45863
1.46071
1.46709
1.47215
1.47229
1.47134
1.46907
1.46273
1.45041
1.43918
1.43558
1.43527
1.4369
1.44346
1.4519
1.4543
1.4533
1.45072
1.44427
1.42808
1.43321
1.50133
1.65272
1.77531
1.83601
1.85731
1.85784
1.8543
1.8433
1.82148
1.80283
1.79595
1.79528
1.80206
1.81529
1.82018
1.81755
1.80944
1.79572
1.77933
1.77026
1.77192
1.7898
1.83533
1.88958
1.91737
1.9187
1.9121
1.89639
1.88476
1.87993
1.87956
1.88166
1.88135
1.87625
1.86871
1.85858
1.84973
1.8449
1.84186
1.84215
1.84285
1.83975
1.83338
1.82483
1.815
1.80866
1.80513
1.8035
1.80442
1.80495
1.80138
1.79537
1.78714
1.77828
1.77318
1.77013
1.76842
1.7689
1.76882
1.76476
1.75882
1.75141
1.74335
1.73822
1.73491
1.73244
1.73235
1.73225
1.72886
1.72373
1.7177
1.71084
1.70613
1.70296
1.70043
1.69879
1.69602
1.69279
1.68938
1.68501
1.68061
1.67739
1.67455
1.67173
1.66867
1.66544
1.66193
1.65794
1.65408
1.65114
1.64855
1.64603
1.64322
1.64003
1.63654
1.6327
1.62835
1.62416
1.62114
1.61858
1.61647
1.61442
1.6117
1.60869
1.60524
1.60107
1.59699
1.59383
1.59098
1.58807
1.75672
1.75555
1.75454
1.7523
1.74743
1.74164
1.73868
1.73867
1.73998
1.74357
1.74496
1.74503
1.74347
1.73537
1.72032
1.71196
1.7113
1.7118
1.71404
1.71688
1.71697
1.71712
1.71684
1.71557
1.71077
1.69863
1.68679
1.68493
1.68494
1.68489
1.68525
1.68615
1.68668
1.68648
1.68597
1.68492
1.68088
1.67098
1.66608
1.66437
1.6628
1.662
1.66074
1.65882
1.65668
1.65461
1.65192
1.64733
1.64128
1.63825
1.63668
1.63521
1.63448
1.63388
1.63292
1.63155
1.63002
1.62739
1.62074
1.61255
1.61026
1.60936
1.60879
1.60881
1.60885
1.60798
1.60724
1.60651
1.60531
1.60178
1.59274
1.58122
1.57625
1.57527
1.57487
1.575
1.57612
1.57817
1.5793
1.57907
1.57849
1.57677
1.57173
1.56353
1.55613
1.55156
1.54791
1.54534
1.5442
1.54415
1.54528
1.54641
1.54602
1.54477
1.54226
1.53931
1.53637
1.53267
1.52684
1.51876
1.51277
1.51187
1.51238
1.51585
1.52033
1.5211
1.52054
1.51986
1.51839
1.51552
1.50916
1.49754
1.48657
1.48251
1.48207
1.48367
1.48954
1.49488
1.49526
1.49472
1.49384
1.49172
1.48605
1.47541
1.46535
1.46179
1.4615
1.46305
1.46851
1.4732
1.47331
1.47232
1.47035
1.465
1.45403
1.44232
1.43776
1.43726
1.43843
1.44431
1.45273
1.4557
1.45505
1.45296
1.448
1.43376
1.44402
1.52893
1.68177
1.79028
1.84617
1.86024
1.85978
1.85512
1.84384
1.82637
1.80855
1.80111
1.79942
1.80371
1.8161
1.8229
1.82086
1.81377
1.80013
1.77977
1.76841
1.76808
1.78021
1.82099
1.87756
1.91557
1.9195
1.91508
1.90061
1.88759
1.88201
1.88065
1.88256
1.883
1.8786
1.87146
1.86177
1.85217
1.84684
1.84336
1.84324
1.84427
1.84237
1.8362
1.82814
1.81818
1.81058
1.80661
1.80432
1.80501
1.80601
1.80338
1.79784
1.79032
1.7812
1.7749
1.77149
1.76938
1.76982
1.7703
1.76743
1.76201
1.75483
1.74618
1.74027
1.7366
1.73384
1.73358
1.73381
1.73157
1.72679
1.72094
1.71362
1.70798
1.7045
1.70163
1.69993
1.69832
1.69496
1.69161
1.68757
1.68287
1.67927
1.67638
1.67361
1.67065
1.66748
1.66402
1.66
1.65589
1.65292
1.65035
1.64792
1.64538
1.64239
1.63908
1.63518
1.63028
1.62555
1.62237
1.61968
1.61738
1.61557
1.61331
1.61051
1.60745
1.60372
1.59957
1.59632
1.59351
1.59069
1.58791
1.75473
1.75342
1.75084
1.74628
1.74107
1.73839
1.73849
1.74015
1.74507
1.74705
1.74701
1.74531
1.73713
1.72146
1.71105
1.7097
1.71017
1.71225
1.71664
1.71796
1.71777
1.71764
1.71681
1.71341
1.70308
1.68892
1.68445
1.68458
1.68505
1.68615
1.68747
1.68826
1.68846
1.68826
1.68764
1.68481
1.67563
1.66557
1.66356
1.66232
1.66125
1.66076
1.6596
1.6581
1.65663
1.65519
1.65273
1.64613
1.63896
1.63609
1.63498
1.63426
1.63369
1.63309
1.63235
1.6312
1.62936
1.62573
1.61784
1.61209
1.61067
1.60977
1.60925
1.60937
1.60876
1.60777
1.60693
1.60586
1.60347
1.59657
1.58529
1.57831
1.57703
1.57664
1.57681
1.57817
1.58029
1.58113
1.58099
1.5805
1.57881
1.57384
1.56508
1.5568
1.55225
1.54973
1.54832
1.54775
1.54835
1.54951
1.5496
1.54872
1.54633
1.54234
1.53862
1.53593
1.53318
1.52895
1.52255
1.51666
1.51553
1.51579
1.51801
1.52132
1.5216
1.52097
1.52033
1.51913
1.51684
1.51169
1.50187
1.49094
1.48614
1.48562
1.48679
1.49164
1.49611
1.49623
1.49557
1.49468
1.4929
1.48833
1.47917
1.4691
1.46484
1.46449
1.46568
1.47023
1.47428
1.47424
1.47316
1.47133
1.4669
1.4576
1.44586
1.44008
1.43935
1.44009
1.44513
1.45336
1.45676
1.45628
1.45453
1.45106
1.44046
1.45993
1.5601
1.71298
1.80119
1.84718
1.86252
1.86313
1.85806
1.84578
1.82632
1.80737
1.80256
1.80136
1.80496
1.817
1.82471
1.82272
1.81689
1.80537
1.7876
1.77119
1.76625
1.77336
1.80624
1.86233
1.91136
1.92048
1.91763
1.90474
1.89013
1.8837
1.88185
1.88396
1.88533
1.88156
1.87463
1.86521
1.85485
1.84848
1.84472
1.84405
1.8453
1.84474
1.83931
1.8316
1.82154
1.81292
1.80854
1.80572
1.80587
1.80714
1.80548
1.80023
1.7931
1.78399
1.77693
1.77351
1.77107
1.771
1.7717
1.7698
1.76465
1.75798
1.74947
1.74257
1.73883
1.73591
1.73515
1.73558
1.73418
1.72956
1.72402
1.71674
1.71015
1.70624
1.70313
1.70091
1.69989
1.69705
1.69346
1.68973
1.68516
1.68115
1.6782
1.67545
1.67257
1.66946
1.66615
1.66235
1.65803
1.65451
1.65195
1.64959
1.64727
1.64463
1.64166
1.63823
1.63382
1.62853
1.62421
1.62116
1.61856
1.61643
1.6144
1.6117
1.60886
1.60561
1.60158
1.59808
1.59537
1.59278
1.59022
1.58756
1.75158
1.74897
1.74506
1.74065
1.73843
1.73862
1.74067
1.74625
1.74917
1.74903
1.74704
1.73859
1.72251
1.71048
1.70832
1.70865
1.71049
1.71545
1.71904
1.71897
1.71877
1.71809
1.71553
1.70682
1.69185
1.68463
1.68443
1.68483
1.68616
1.68878
1.68996
1.68999
1.68995
1.6896
1.68782
1.68012
1.66743
1.66246
1.66168
1.66084
1.66048
1.66015
1.65918
1.65814
1.65728
1.65603
1.651
1.64152
1.63604
1.6343
1.63403
1.63396
1.63346
1.63298
1.63256
1.63186
1.6299
1.62453
1.61574
1.61186
1.61065
1.60977
1.6094
1.60925
1.60837
1.60741
1.60644
1.60466
1.59959
1.58946
1.58094
1.57913
1.57877
1.57883
1.57989
1.58167
1.5822
1.58219
1.58185
1.58039
1.57577
1.56708
1.55825
1.55364
1.55198
1.55135
1.55175
1.55275
1.55337
1.55309
1.55169
1.54775
1.54241
1.53825
1.53556
1.53338
1.5304
1.52536
1.5201
1.51887
1.51907
1.5204
1.52212
1.5223
1.52171
1.52089
1.51971
1.51782
1.51391
1.50592
1.49544
1.48948
1.4889
1.48988
1.49391
1.49769
1.49751
1.49664
1.49564
1.49403
1.4905
1.48289
1.47305
1.46792
1.46742
1.46826
1.47197
1.47535
1.47511
1.47392
1.47214
1.46851
1.4609
1.4498
1.44273
1.44159
1.44197
1.44602
1.45376
1.45752
1.45722
1.45577
1.45186
1.44678
1.4777
1.59752
1.73956
1.81065
1.84765
1.86283
1.86413
1.86018
1.84913
1.83187
1.8123
1.80088
1.79873
1.80239
1.81538
1.82587
1.82546
1.81949
1.80827
1.79074
1.77441
1.76924
1.77269
1.79626
1.84653
1.90204
1.9214
1.92001
1.90893
1.89329
1.88566
1.88304
1.88499
1.88761
1.8852
1.87864
1.86923
1.858
1.85046
1.84636
1.8449
1.84612
1.84641
1.84189
1.83462
1.82508
1.81542
1.81008
1.80679
1.80636
1.80776
1.80738
1.8027
1.79614
1.7873
1.77901
1.77488
1.77213
1.77172
1.77259
1.77173
1.76725
1.76132
1.75309
1.74526
1.74082
1.7375
1.73626
1.73681
1.73645
1.73259
1.72742
1.72038
1.71286
1.70829
1.70495
1.70222
1.70096
1.69922
1.69552
1.69183
1.68745
1.683
1.67983
1.67708
1.67438
1.67142
1.66824
1.66459
1.66018
1.6561
1.65337
1.65103
1.64885
1.64646
1.64362
1.64043
1.63662
1.63184
1.62716
1.62371
1.62073
1.61818
1.61587
1.613
1.61006
1.60702
1.60349
1.59983
1.59701
1.59448
1.59205
1.58945
1.58659
1.74729
1.74402
1.74054
1.73898
1.73927
1.7419
1.74781
1.75088
1.75086
1.74846
1.73946
1.72322
1.71032
1.70742
1.70758
1.70915
1.71415
1.71968
1.72069
1.72031
1.71963
1.71742
1.70971
1.6948
1.6852
1.68431
1.68477
1.68597
1.68913
1.69154
1.69148
1.69119
1.69086
1.68978
1.68381
1.67073
1.66232
1.6611
1.66051
1.66044
1.66054
1.66005
1.6593
1.65872
1.65802
1.65468
1.64522
1.63677
1.63425
1.63372
1.63399
1.63423
1.63369
1.63372
1.63376
1.63345
1.63072
1.62172
1.6136
1.61133
1.61021
1.60962
1.60942
1.60894
1.60811
1.60726
1.60602
1.60254
1.59375
1.58401
1.58105
1.58089
1.58099
1.58136
1.58239
1.58297
1.58288
1.58257
1.58148
1.57766
1.56942
1.56034
1.55555
1.55443
1.5544
1.5559
1.55715
1.55688
1.55602
1.55426
1.54945
1.54275
1.53808
1.53556
1.5337
1.5314
1.5275
1.52297
1.52184
1.52197
1.52304
1.52369
1.52321