/*--------------------------------*- C++ -*----------------------------------*\
  =========                 |
  \\      /  F ield         | OpenFOAM: The Open Source CFD Toolbox
   \\    /   O peration     | Website:  https://openfoam.org
    \\  /    A nd           | Version:  7
     \\/     M anipulation  |
\*---------------------------------------------------------------------------*/
FoamFile
{
    version     2.0;
    format      ascii;
    class       volVectorField;
    location    "4";
    object      U;
}
// * * * * * * * * * * * * * * * * * * * * * * * * * * * * * * * * * * * * * //

dimensions      [0 1 -1 0 0 0 0];

internalField   nonuniform List<vector> 
4128
(
(2.55426 -0.386954 0)
(2.40012 -0.544757 0)
(2.4137 -0.445528 0)
(2.47697 -0.435313 0)
(2.53766 -0.415078 0)
(2.55787 -0.303465 0)
(2.5628 -0.267749 0)
(2.53591 -0.208307 0)
(2.49204 -0.176616 0)
(2.47761 -0.180485 0)
(2.49526 -0.146436 0)
(2.47763 -0.110943 0)
(2.46131 -0.0907742 0)
(2.43359 -0.0508036 0)
(2.42736 -0.0268276 0)
(2.41609 -0.0263439 0)
(2.42019 -0.0375175 0)
(2.45087 -0.0450116 0)
(2.45523 -0.0320005 0)
(2.44355 -0.0242301 0)
(2.41924 -0.0223565 0)
(2.40424 -0.0253454 0)
(2.40567 -0.0323707 0)
(2.41492 -0.0297307 0)
(2.41508 -0.0244352 0)
(2.41204 -0.0198496 0)
(2.40545 -0.00959892 0)
(2.39572 -0.00782356 0)
(2.38715 -0.0101337 0)
(2.38945 -0.0163343 0)
(2.40157 -0.0221199 0)
(2.40951 -0.0170151 0)
(2.40917 -0.00941986 0)
(2.40266 -0.00808598 0)
(2.39834 -0.00876788 0)
(2.39678 -0.0102652 0)
(2.39703 -0.011136 0)
(2.39728 -0.00981286 0)
(2.39516 -0.00675675 0)
(2.38887 -0.00479013 0)
(2.38235 -0.00497747 0)
(2.37938 -0.00544191 0)
(2.38109 -0.00546513 0)
(2.38798 -0.00504276 0)
(2.3965 -0.00451577 0)
(2.40045 -0.00438071 0)
(2.39997 -0.00457388 0)
(2.39812 -0.0049913 0)
(2.3943 -0.00592294 0)
(2.39185 -0.00620936 0)
(2.39179 -0.00477441 0)
(2.39293 -0.00675017 0)
(1.45412 0.0254885 0)
(0.877905 0.0325467 0)
(0.774737 0.0333177 0)
(0.693605 0.0308429 0)
(0.622956 0.0270568 0)
(0.567159 0.0231966 0)
(0.523662 0.0214418 0)
(0.486384 0.0206299 0)
(0.450815 0.0198161 0)
(0.415025 0.0192188 0)
(0.38097 0.0186909 0)
(0.351468 0.0182061 0)
(0.327247 0.0180859 0)
(0.305766 0.0180235 0)
(0.282992 0.0177792 0)
(0.256763 0.0172544 0)
(0.229007 0.0165294 0)
(0.204103 0.0155621 0)
(0.183985 0.0143812 0)
(0.168631 0.0131022 0)
(0.154194 0.0118564 0)
(0.137673 0.0106728 0)
(0.121181 0.00957895 0)
(0.106061 0.00856232 0)
(0.0934416 0.0076857 0)
(0.0822609 0.00680735 0)
(0.0709047 0.00616548 0)
(0.0597593 0.0057311 0)
(0.050804 0.00529651 0)
(0.0452912 0.00501509 0)
(0.0417282 0.00472465 0)
(0.038027 0.00424045 0)
(0.03168 0.00380595 0)
(0.0226314 0.00330928 0)
(0.0140487 0.00282372 0)
(0.00537054 0.00288101 0)
(2.96538 -0.639171 0)
(2.9641 -0.666564 0)
(2.96398 -0.774555 0)
(2.88035 -0.69094 0)
(2.78204 -0.567381 0)
(2.72284 -0.430933 0)
(2.67952 -0.388774 0)
(2.64574 -0.327038 0)
(2.61954 -0.217075 0)
(2.61537 -0.134326 0)
(2.61158 -0.0887777 0)
(2.5671 -0.0503112 0)
(2.52387 -0.0392485 0)
(2.50854 -0.0425283 0)
(2.50522 -0.00954194 0)
(2.50074 0.00868666 0)
(2.4868 -0.0127897 0)
(2.49585 -0.0488464 0)
(2.49823 -0.0478757 0)
(2.48446 -0.0423399 0)
(2.46914 -0.040834 0)
(2.46288 -0.0366919 0)
(2.46132 -0.0310702 0)
(2.46326 -0.0280286 0)
(2.46025 -0.0240767 0)
(2.45066 -0.0191612 0)
(2.44199 -0.00583204 0)
(2.43161 -0.000629843 0)
(2.42421 -0.0027687 0)
(2.42583 -0.0092178 0)
(2.43423 -0.0171891 0)
(2.44191 -0.0151498 0)
(2.43895 -0.00408294 0)
(2.43256 -0.00138471 0)
(2.42742 -0.00214621 0)
(2.42313 -0.00550903 0)
(2.4212 -0.0113962 0)
(2.41974 -0.0153845 0)
(2.41624 -0.0142651 0)
(2.4116 -0.0123884 0)
(2.40839 -0.0111872 0)
(2.40841 -0.00829789 0)
(2.41187 -0.00217781 0)
(2.41649 0.00379298 0)
(2.41911 0.00444894 0)
(2.41949 0.000918367 0)
(2.41776 -0.00382863 0)
(2.41549 -0.00927929 0)
(2.41447 -0.0143303 0)
(2.414 -0.0151895 0)
(2.4132 -0.0133427 0)
(2.41534 -0.01021 0)
(1.5505 0.131014 0)
(0.884846 0.134435 0)
(0.770214 0.109021 0)
(0.695842 0.0943361 0)
(0.634746 0.0826574 0)
(0.587762 0.0703142 0)
(0.550595 0.0620866 0)
(0.517713 0.0565307 0)
(0.484756 0.0504909 0)
(0.449915 0.04511 0)
(0.415385 0.0418196 0)
(0.384559 0.0399604 0)
(0.35874 0.0391272 0)
(0.335931 0.038679 0)
(0.3122 0.0372442 0)
(0.285218 0.034456 0)
(0.256257 0.0316284 0)
(0.229401 0.02974 0)
(0.206756 0.0279896 0)
(0.188741 0.0256494 0)
(0.172232 0.022983 0)
(0.154209 0.0206587 0)
(0.136087 0.0191363 0)
(0.119269 0.0178798 0)
(0.104722 0.016389 0)
(0.0918186 0.0149103 0)
(0.0793996 0.0133612 0)
(0.0675276 0.0127683 0)
(0.0578348 0.0127205 0)
(0.0512079 0.013098 0)
(0.0465212 0.0127834 0)
(0.0416662 0.0117946 0)
(0.0344514 0.0108135 0)
(0.0248158 0.00991818 0)
(0.0151549 0.0093487 0)
(0.00562553 0.00980329 0)
(2.97799 -0.261803 0)
(2.95786 -0.430596 0)
(2.9613 -0.494817 0)
(2.95403 -0.539756 0)
(2.92813 -0.611458 0)
(2.91465 -0.639203 0)
(2.8882 -0.652517 0)
(2.84651 -0.597669 0)
(2.84005 -0.559124 0)
(2.83505 -0.528276 0)
(2.8186 -0.506926 0)
(2.78634 -0.4159 0)
(2.74557 -0.291995 0)
(2.70653 -0.213073 0)
(2.65515 -0.1434 0)
(2.62466 -0.0781602 0)
(2.59074 -0.0901354 0)
(2.57279 -0.0989746 0)
(2.54891 -0.0595243 0)
(2.54185 -0.0410154 0)
(2.55302 -0.0191062 0)
(2.55504 -0.022759 0)
(2.54581 -0.0346781 0)
(2.53409 -0.0455826 0)
(2.52411 -0.0497387 0)
(2.51225 -0.0483791 0)
(2.50302 -0.0417662 0)
(2.49814 -0.0372427 0)
(2.49293 -0.0398929 0)
(2.49337 -0.0465209 0)
(2.49522 -0.0464219 0)
(2.49527 -0.0364924 0)
(2.49313 -0.0265981 0)
(2.48777 -0.0248822 0)
(2.48186 -0.0248566 0)
(2.47752 -0.025789 0)
(2.47459 -0.0241513 0)
(2.47008 -0.018726 0)
(2.46668 -0.0108406 0)
(2.4649 -0.00840266 0)
(2.46402 -0.0102787 0)
(2.46579 -0.0150242 0)
(2.47106 -0.0169154 0)
(2.47291 -0.0134659 0)
(2.46893 -0.0118504 0)
(2.46572 -0.0108297 0)
(2.46184 -0.00937026 0)
(2.45816 -0.00983466 0)
(2.45751 -0.0113069 0)
(2.45758 -0.0118885 0)
(2.45732 -0.0110544 0)
(2.45984 -0.011815 0)
(1.83183 0.207155 0)
(0.969495 0.225567 0)
(0.834102 0.178304 0)
(0.764176 0.147397 0)
(0.704698 0.124407 0)
(0.659904 0.103028 0)
(0.623709 0.0896517 0)
(0.591317 0.0821689 0)
(0.557453 0.0762962 0)
(0.519874 0.0724932 0)
(0.481132 0.0712254 0)
(0.445137 0.0712719 0)
(0.413807 0.0721444 0)
(0.386041 0.0727719 0)
(0.358261 0.0709992 0)
(0.327785 0.0676493 0)
(0.295176 0.0641267 0)
(0.26367 0.0612798 0)
(0.235831 0.0582189 0)
(0.212418 0.0538112 0)
(0.192013 0.0484977 0)
(0.172103 0.0435146 0)
(0.152011 0.0397869 0)
(0.132941 0.0365922 0)
(0.115392 0.0333131 0)
(0.0998641 0.0300193 0)
(0.0858876 0.0268495 0)
(0.0732204 0.0251636 0)
(0.0626899 0.0242764 0)
(0.0546217 0.0239968 0)
(0.0484644 0.022858 0)
(0.0422529 0.0210673 0)
(0.0344956 0.0191988 0)
(0.0250013 0.017649 0)
(0.0150635 0.0167561 0)
(0.00538845 0.0173614 0)
(2.87113 -0.130052 0)
(2.8849 -0.22223 0)
(2.87318 -0.374797 0)
(2.89076 -0.45093 0)
(2.89509 -0.536653 0)
(2.88529 -0.595062 0)
(2.91861 -0.600357 0)
(2.92994 -0.627162 0)
(2.89331 -0.642957 0)
(2.87206 -0.656683 0)
(2.85437 -0.668693 0)
(2.83401 -0.645411 0)
(2.8072 -0.57809 0)
(2.79319 -0.500007 0)
(2.76729 -0.421931 0)
(2.72903 -0.304564 0)
(2.71061 -0.276068 0)
(2.67677 -0.236069 0)
(2.61911 -0.149454 0)
(2.61234 -0.123225 0)
(2.61967 -0.0922882 0)
(2.61742 -0.0666082 0)
(2.60398 -0.06815 0)
(2.58221 -0.0673291 0)
(2.56573 -0.063888 0)
(2.55384 -0.0550575 0)
(2.54697 -0.034235 0)
(2.55269 -0.0103404 0)
(2.55106 -0.0125219 0)
(2.54593 -0.0281429 0)
(2.54204 -0.0369343 0)
(2.53858 -0.0286758 0)
(2.54005 -0.0211278 0)
(2.53632 -0.0215234 0)
(2.53278 -0.0243117 0)
(2.53021 -0.0311473 0)
(2.52388 -0.0331665 0)
(2.51861 -0.0323242 0)
(2.51541 -0.0283606 0)
(2.5154 -0.0265524 0)
(2.51757 -0.0272594 0)
(2.52239 -0.0262057 0)
(2.52633 -0.0207646 0)
(2.52361 -0.0147324 0)
(2.51725 -0.0113316 0)
(2.51239 -0.006507 0)
(2.50755 -0.00323121 0)
(2.50438 -0.00360557 0)
(2.50299 -0.00707834 0)
(2.50244 -0.00973771 0)
(2.50126 -0.0106743 0)
(2.50165 -0.0115994 0)
(2.23617 0.199516 0)
(1.09342 0.29334 0)
(0.938419 0.224165 0)
(0.888724 0.183102 0)
(0.830377 0.156279 0)
(0.782403 0.135461 0)
(0.740435 0.123265 0)
(0.702792 0.116728 0)
(0.664658 0.111007 0)
(0.623529 0.105592 0)
(0.58094 0.102009 0)
(0.540166 0.0998956 0)
(0.503081 0.0986489 0)
(0.469198 0.0980969 0)
(0.435629 0.0976084 0)
(0.400259 0.0946542 0)
(0.363447 0.0894614 0)
(0.327125 0.083636 0)
(0.293087 0.0781253 0)
(0.262426 0.0725241 0)
(0.235333 0.0661554 0)
(0.210569 0.0598021 0)
(0.186413 0.0547736 0)
(0.163025 0.0504936 0)
(0.140588 0.0465884 0)
(0.120382 0.0426528 0)
(0.103044 0.0389043 0)
(0.0882944 0.0363102 0)
(0.0755401 0.0347279 0)
(0.0650929 0.0338202 0)
(0.0562816 0.0321505 0)
(0.0475649 0.0301117 0)
(0.0382501 0.0278406 0)
(0.027833 0.0259358 0)
(0.0168163 0.0248338 0)
(0.00567839 0.0256018 0)
(2.7517 -0.0473892 0)
(2.76944 -0.115423 0)
(2.79091 -0.132706 0)
(2.80909 -0.206224 0)
(2.83137 -0.325524 0)
(2.82708 -0.412905 0)
(2.83327 -0.455451 0)
(2.8568 -0.483196 0)
(2.86108 -0.532655 0)
(2.83813 -0.573279 0)
(2.82326 -0.612295 0)
(2.81187 -0.653664 0)
(2.81727 -0.655424 0)
(2.82168 -0.641178 0)
(2.81334 -0.610655 0)
(2.7872 -0.557567 0)
(2.76604 -0.504679 0)
(2.73019 -0.429484 0)
(2.67796 -0.298179 0)
(2.66149 -0.25599 0)
(2.65556 -0.219404 0)
(2.64948 -0.16588 0)
(2.65741 -0.150021 0)
(2.62944 -0.127859 0)
(2.60016 -0.114099 0)
(2.58239 -0.0968729 0)
(2.57359 -0.0813519 0)
(2.57611 -0.0537716 0)
(2.58101 -0.0397021 0)
(2.57568 -0.0445261 0)
(2.57028 -0.0480896 0)
(2.56903 -0.0394739 0)
(2.56884 -0.0295232 0)
(2.56309 -0.027881 0)
(2.56042 -0.0291242 0)
(2.55368 -0.03031 0)
(2.54526 -0.0270396 0)
(2.54116 -0.0230898 0)
(2.53963 -0.0219433 0)
(2.54061 -0.021805 0)
(2.54633 -0.0190906 0)
(2.5524 -0.0132661 0)
(2.55086 -0.00885405 0)
(2.54719 -0.00720519 0)
(2.54343 -0.00580111 0)
(2.53695 -0.0052561 0)
(2.5316 -0.00867115 0)
(2.52821 -0.0144346 0)
(2.5266 -0.0187192 0)
(2.52582 -0.0200395 0)
(2.52499 -0.0165274 0)
(2.52492 -0.00886485 0)
(2.54264 0.0532073 0)
(1.2746 0.30455 0)
(1.01039 0.251842 0)
(0.988073 0.214547 0)
(0.941707 0.194851 0)
(0.901038 0.175573 0)
(0.862314 0.16106 0)
(0.825671 0.151217 0)
(0.787433 0.143763 0)
(0.745499 0.138107 0)
(0.701091 0.135077 0)
(0.656838 0.13452 0)
(0.614289 0.135201 0)
(0.573695 0.136091 0)
(0.534013 0.136828 0)
(0.493322 0.136026 0)
(0.450758 0.133048 0)
(0.40734 0.128105 0)
(0.365284 0.121237 0)
(0.32625 0.113202 0)
(0.291156 0.10425 0)
(0.259846 0.0949196 0)
(0.230352 0.0863874 0)
(0.201337 0.0790588 0)
(0.1736 0.0719611 0)
(0.147736 0.0653687 0)
(0.126041 0.0591007 0)
(0.108265 0.0541029 0)
(0.0923875 0.0505529 0)
(0.0789046 0.0476609 0)
(0.0667541 0.0447696 0)
(0.0552125 0.0415631 0)
(0.0437554 0.0386771 0)
(0.0318533 0.0362719 0)
(0.0193357 0.034699 0)
(0.00620864 0.03548 0)
(2.59361 0.206054 0)
(2.67724 0.0275199 0)
(2.71196 -0.0744799 0)
(2.74532 -0.103681 0)
(2.74839 -0.163369 0)
(2.76327 -0.23823 0)
(2.78297 -0.340019 0)
(2.7807 -0.410808 0)
(2.80731 -0.468483 0)
(2.82367 -0.502259 0)
(2.81232 -0.52462 0)
(2.79833 -0.544881 0)
(2.79593 -0.571829 0)
(2.80122 -0.585686 0)
(2.80608 -0.589006 0)
(2.80001 -0.600137 0)
(2.7878 -0.615987 0)
(2.77454 -0.612849 0)
(2.74992 -0.573077 0)
(2.7313 -0.515504 0)
(2.71194 -0.447904 0)
(2.68817 -0.344846 0)
(2.69417 -0.284359 0)
(2.67027 -0.213545 0)
(2.62936 -0.149368 0)
(2.60599 -0.123113 0)
(2.588 -0.115846 0)
(2.5843 -0.101403 0)
(2.59333 -0.0801476 0)
(2.59416 -0.0781524 0)
(2.58939 -0.0778245 0)
(2.58467 -0.0707055 0)
(2.58014 -0.0614796 0)
(2.57309 -0.0548924 0)
(2.56782 -0.0517657 0)
(2.55939 -0.0448549 0)
(2.55199 -0.0357918 0)
(2.54696 -0.0343904 0)
(2.54244 -0.0316418 0)
(2.54638 -0.0284193 0)
(2.55625 -0.0222783 0)
(2.55821 -0.0190626 0)
(2.55686 -0.0182335 0)
(2.55193 -0.0172934 0)
(2.54524 -0.0168234 0)
(2.53948 -0.0166402 0)
(2.53612 -0.018135 0)
(2.53486 -0.0197881 0)
(2.53326 -0.0214023 0)
(2.53276 -0.0169314 0)
(2.53668 -0.00533378 0)
(2.53842 0.000147724 0)
(2.54703 0.00603798 0)
(1.44841 0.292339 0)
(1.01078 0.257543 0)
(0.996592 0.240041 0)
(0.984379 0.219499 0)
(0.966865 0.198276 0)
(0.942966 0.186968 0)
(0.916234 0.182988 0)
(0.88551 0.181377 0)
(0.849543 0.179915 0)
(0.809626 0.178755 0)
(0.768257 0.178164 0)
(0.726991 0.177244 0)
(0.686056 0.175709 0)
(0.645179 0.174035 0)
(0.603051 0.172539 0)
(0.558336 0.170153 0)
(0.511318 0.164858 0)
(0.46367 0.155848 0)
(0.417506 0.144803 0)
(0.374602 0.13336 0)
(0.335318 0.122158 0)
(0.298283 0.111385 0)
(0.262163 0.101289 0)
(0.226287 0.0924759 0)
(0.192884 0.0849851 0)
(0.163941 0.0780517 0)
(0.140183 0.071964 0)
(0.119092 0.0669145 0)
(0.100784 0.0623683 0)
(0.0840141 0.0585162 0)
(0.0681758 0.054861 0)
(0.0531416 0.0518059 0)
(0.0385405 0.0489277 0)
(0.0234998 0.0467042 0)
(0.00737925 0.0474367 0)
(2.51765 0.275668 0)
(2.56936 0.184413 0)
(2.62325 0.0750907 0)
(2.65621 0.000567608 0)
(2.68652 -0.0535869 0)
(2.70111 -0.110806 0)
(2.71823 -0.183653 0)
(2.73768 -0.259283 0)
(2.74688 -0.32098 0)
(2.76279 -0.348063 0)
(2.77668 -0.359173 0)
(2.76634 -0.394446 0)
(2.76713 -0.453002 0)
(2.76386 -0.503525 0)
(2.77096 -0.511156 0)
(2.78774 -0.528041 0)
(2.78199 -0.573605 0)
(2.77659 -0.613326 0)
(2.77269 -0.615529 0)
(2.7762 -0.603214 0)
(2.77453 -0.590952 0)
(2.76394 -0.564698 0)
(2.7462 -0.516524 0)
(2.72247 -0.449862 0)
(2.69874 -0.386929 0)
(2.66437 -0.303397 0)
(2.63273 -0.226435 0)
(2.6179 -0.1995 0)
(2.61379 -0.153779 0)
(2.61908 -0.124197 0)
(2.62003 -0.104348 0)
(2.59972 -0.0884283 0)
(2.58772 -0.0786195 0)
(2.57879 -0.0679615 0)
(2.5702 -0.0633934 0)
(2.56054 -0.0512105 0)
(2.55497 -0.0440572 0)
(2.54291 -0.0452949 0)
(2.53776 -0.046314 0)
(2.5465 -0.0406624 0)
(2.55593 -0.0336431 0)
(2.55711 -0.031537 0)
(2.55603 -0.0284544 0)
(2.55005 -0.0227929 0)
(2.54041 -0.0220752 0)
(2.53608 -0.0257281 0)
(2.5347 -0.0267592 0)
(2.53327 -0.0274314 0)
(2.5352 -0.0232798 0)
(2.54144 -0.0132345 0)
(2.54455 -0.00719854 0)
(2.54434 -0.00536611 0)
(2.54177 -0.00306007 0)
(1.68046 0.274837 0)
(1.01139 0.257124 0)
(0.981807 0.237787 0)
(0.984087 0.225957 0)
(0.981841 0.214408 0)
(0.975575 0.207655 0)
(0.964267 0.203361 0)
(0.946725 0.202071 0)
(0.922441 0.202627 0)
(0.892336 0.204584 0)
(0.858521 0.207338 0)
(0.822706 0.21037 0)
(0.785776 0.213207 0)
(0.74805 0.214855 0)
(0.708836 0.215078 0)
(0.666501 0.21405 0)
(0.619759 0.211302 0)
(0.568723 0.206142 0)
(0.516216 0.197847 0)
(0.466005 0.186598 0)
(0.41922 0.173805 0)
(0.374599 0.160442 0)
(0.330608 0.14726 0)
(0.286344 0.135125 0)
(0.245103 0.123359 0)
(0.208646 0.112686 0)
(0.178248 0.102409 0)
(0.15112 0.0935527 0)
(0.127036 0.0856849 0)
(0.104588 0.0797768 0)
(0.0839873 0.0741678 0)
(0.064955 0.0696287 0)
(0.0471281 0.0653657 0)
(0.0289319 0.0620274 0)
(0.00909142 0.0623354 0)
(2.4337 0.351299 0)
(2.46364 0.306358 0)
(2.5257 0.209838 0)
(2.58465 0.104288 0)
(2.62041 0.0216617 0)
(2.64781 -0.0202506 0)
(2.65369 -0.0503563 0)
(2.6733 -0.119912 0)
(2.70471 -0.194339 0)
(2.71065 -0.267896 0)
(2.72165 -0.303518 0)
(2.74222 -0.314769 0)
(2.74155 -0.34221 0)
(2.74459 -0.403083 0)
(2.74131 -0.449466 0)
(2.75202 -0.462915 0)
(2.76411 -0.472073 0)
(2.77023 -0.507301 0)
(2.76791 -0.539403 0)
(2.76918 -0.547845 0)
(2.77666 -0.552366 0)
(2.77701 -0.554705 0)
(2.76735 -0.567956 0)
(2.75926 -0.568207 0)
(2.74844 -0.555517 0)
(2.73285 -0.523816 0)
(2.71372 -0.467631 0)
(2.68943 -0.386557 0)
(2.67153 -0.318215 0)
(2.65393 -0.218718 0)
(2.65631 -0.160998 0)
(2.62484 -0.0974095 0)
(2.60377 -0.076014 0)
(2.58811 -0.0811864 0)
(2.57161 -0.0759668 0)
(2.55921 -0.0620088 0)
(2.54991 -0.0580473 0)
(2.54367 -0.0593208 0)
(2.5487 -0.0555879 0)
(2.55841 -0.0481637 0)
(2.56151 -0.042417 0)
(2.56113 -0.0391991 0)
(2.55876 -0.0314222 0)
(2.55029 -0.0253898 0)
(2.53816 -0.0290114 0)
(2.53413 -0.0321271 0)
(2.53109 -0.0348136 0)
(2.53289 -0.0313949 0)
(2.54182 -0.0228365 0)
(2.54966 -0.0143221 0)
(2.5501 -0.0110394 0)
(2.54849 -0.00586577 0)
(2.54363 -0.0052736 0)
(1.96724 0.246979 0)
(1.03536 0.260256 0)
(0.976635 0.231974 0)
(0.987039 0.219308 0)
(0.992492 0.21243 0)
(0.992779 0.213633 0)
(0.98822 0.216786 0)
(0.978506 0.221372 0)
(0.962742 0.226447 0)
(0.941169 0.232013 0)
(0.915192 0.238094 0)
(0.887125 0.243947 0)
(0.858624 0.248133 0)
(0.829202 0.250123 0)
(0.796818 0.252643 0)
(0.760717 0.255096 0)
(0.719714 0.254964 0)
(0.673106 0.250728 0)
(0.622304 0.241841 0)
(0.570554 0.229968 0)
(0.52003 0.216776 0)
(0.470403 0.20264 0)
(0.42077 0.186856 0)
(0.369897 0.171161 0)
(0.319725 0.156562 0)
(0.274494 0.142672 0)
(0.234561 0.130251 0)
(0.198402 0.119401 0)
(0.165833 0.11009 0)
(0.135857 0.102497 0)
(0.108733 0.0954007 0)
(0.0835152 0.0904046 0)
(0.0600843 0.0857829 0)
(0.036713 0.08187 0)
(0.0115571 0.0814417 0)
(2.34282 0.431905 0)
(2.39617 0.354413 0)
(2.44233 0.296759 0)
(2.48612 0.237354 0)
(2.56064 0.131862 0)
(2.59176 0.0352112 0)
(2.60673 -0.00853895 0)
(2.61755 -0.0168215 0)
(2.62246 -0.0544906 0)
(2.65791 -0.120625 0)
(2.67938 -0.199731 0)
(2.68856 -0.246633 0)
(2.70768 -0.256243 0)
(2.701 -0.268458 0)
(2.70931 -0.323362 0)
(2.71675 -0.37393 0)
(2.72881 -0.391237 0)
(2.74172 -0.408302 0)
(2.75713 -0.449228 0)
(2.75416 -0.488506 0)
(2.75585 -0.495297 0)
(2.76671 -0.509424 0)
(2.76534 -0.523861 0)
(2.75781 -0.557647 0)
(2.75495 -0.570477 0)
(2.75444 -0.567776 0)
(2.75526 -0.557722 0)
(2.75276 -0.543265 0)
(2.74272 -0.511234 0)
(2.72447 -0.457957 0)
(2.70559 -0.37661 0)
(2.69647 -0.329068 0)
(2.65487 -0.237074 0)
(2.62388 -0.180023 0)
(2.60299 -0.163673 0)
(2.58754 -0.131093 0)
(2.58539 -0.108755 0)
(2.58436 -0.0808465 0)
(2.58737 -0.0551371 0)
(2.57902 -0.0417245 0)
(2.57265 -0.0406686 0)
(2.56739 -0.0398145 0)
(2.56353 -0.0387336 0)
(2.55535 -0.0375034 0)
(2.54473 -0.0402388 0)
(2.5397 -0.0419528 0)
(2.535 -0.0417373 0)
(2.5394 -0.0355178 0)
(2.5532 -0.0227207 0)
(2.56012 -0.0145667 0)
(2.55978 -0.0109213 0)
(2.55488 -0.00725054 0)
(2.54681 -0.0114981 0)
(2.28637 0.173457 0)
(1.09541 0.264559 0)
(0.988012 0.226789 0)
(1.00481 0.21857 0)
(1.01248 0.214446 0)
(1.01321 0.214614 0)
(1.01001 0.217946 0)
(1.00301 0.224828 0)
(0.991212 0.232892 0)
(0.974857 0.241433 0)
(0.954638 0.250291 0)
(0.932506 0.260148 0)
(0.909645 0.269797 0)
(0.886431 0.279441 0)
(0.862168 0.285462 0)
(0.834893 0.288852 0)
(0.801923 0.291327 0)
(0.762249 0.291534 0)
(0.716158 0.288597 0)
(0.666554 0.281877 0)
(0.616281 0.271679 0)
(0.565395 0.25897 0)
(0.51218 0.244679 0)
(0.45558 0.229777 0)
(0.397697 0.213951 0)
(0.34273 0.197182 0)
(0.293271 0.180349 0)
(0.248214 0.16472 0)
(0.207199 0.150596 0)
(0.169562 0.138428 0)
(0.134949 0.128351 0)
(0.103274 0.12059 0)
(0.0743548 0.113432 0)
(0.0456728 0.107573 0)
(0.0145908 0.105683 0)
(2.23025 0.524332 0)
(2.32037 0.438455 0)
(2.39873 0.317511 0)
(2.44173 0.275191 0)
(2.45555 0.252841 0)
(2.49269 0.180153 0)
(2.54438 0.0962773 0)
(2.57441 0.0223705 0)
(2.5973 -0.0101799 0)
(2.60089 -0.022937 0)
(2.62164 -0.077185 0)
(2.65157 -0.146546 0)
(2.66554 -0.19815 0)
(2.68392 -0.227325 0)
(2.69011 -0.257837 0)
(2.69438 -0.301365 0)
(2.69919 -0.329811 0)
(2.70827 -0.345544 0)
(2.72321 -0.353297 0)
(2.73797 -0.384146 0)
(2.73926 -0.419762 0)
(2.73983 -0.445982 0)
(2.74644 -0.464274 0)
(2.74498 -0.480055 0)
(2.74147 -0.511451 0)
(2.74424 -0.528421 0)
(2.7525 -0.531182 0)
(2.76046 -0.523549 0)
(2.75958 -0.521442 0)
(2.75542 -0.528346 0)
(2.74974 -0.525065 0)
(2.73969 -0.503279 0)
(2.71813 -0.456289 0)
(2.69643 -0.401025 0)
(2.66689 -0.328802 0)
(2.6217 -0.206913 0)
(2.61849 -0.176274 0)
(2.61676 -0.117251 0)
(2.6085 -0.0339263 0)
(2.60371 -0.027543 0)
(2.58874 -0.0331065 0)
(2.57598 -0.0396287 0)
(2.5627 -0.0457831 0)
(2.55487 -0.0473488 0)
(2.54881 -0.0448061 0)
(2.54673 -0.043659 0)
(2.54564 -0.0399351 0)
(2.55396 -0.0314645 0)
(2.56921 -0.0213324 0)
(2.57169 -0.0144218 0)
(2.56745 -0.0128417 0)
(2.56111 -0.0135915 0)
(2.55132 -0.0191941 0)
(2.50958 0.0454948 0)
(1.191 0.251511 0)
(1.00555 0.217662 0)
(1.02287 0.213884 0)
(1.02952 0.213886 0)
(1.03052 0.218078 0)
(1.02755 0.225631 0)
(1.02044 0.235681 0)
(1.00915 0.245902 0)
(0.995242 0.255622 0)
(0.978849 0.264815 0)
(0.961185 0.274883 0)
(0.94348 0.287306 0)
(0.925852 0.299353 0)
(0.907192 0.309574 0)
(0.885433 0.31948 0)
(0.859319 0.327146 0)
(0.827995 0.329124 0)
(0.790308 0.328584 0)
(0.748458 0.32505 0)
(0.704095 0.318464 0)
(0.657033 0.309566 0)
(0.605997 0.297516 0)
(0.550212 0.282192 0)
(0.490424 0.264736 0)
(0.430208 0.245472 0)
(0.372987 0.225429 0)
(0.319336 0.206159 0)
(0.268822 0.188797 0)
(0.220873 0.174726 0)
(0.176702 0.162216 0)
(0.13602 0.152788 0)
(0.0983913 0.145197 0)
(0.0606614 0.139652 0)
(0.0197777 0.13756 0)
(2.17694 0.564134 0)
(2.27649 0.467084 0)
(2.33573 0.396546 0)
(2.36406 0.36605 0)
(2.41133 0.286714 0)
(2.44783 0.232917 0)
(2.47745 0.193689 0)
(2.53234 0.112892 0)
(2.55667 0.0457496 0)
(2.57412 0.023582 0)
(2.58858 -0.00539369 0)
(2.61604 -0.063927 0)
(2.6347 -0.119368 0)
(2.64578 -0.161311 0)
(2.65595 -0.179789 0)
(2.65193 -0.190943 0)
(2.65714 -0.220553 0)
(2.67796 -0.258833 0)
(2.68747 -0.29696 0)
(2.70505 -0.301763 0)
(2.71998 -0.326184 0)
(2.72248 -0.372768 0)
(2.71959 -0.398874 0)
(2.71979 -0.413444 0)
(2.72379 -0.442282 0)
(2.73474 -0.467157 0)
(2.73866 -0.488971 0)
(2.74682 -0.494592 0)
(2.76057 -0.511116 0)
(2.76619 -0.524923 0)
(2.76239 -0.528607 0)
(2.75438 -0.533327 0)
(2.74469 -0.530526 0)
(2.74048 -0.525149 0)
(2.72954 -0.500023 0)
(2.70804 -0.447475 0)
(2.68471 -0.370824 0)
(2.66286 -0.287228 0)
(2.65062 -0.191624 0)
(2.65956 -0.16182 0)
(2.63914 -0.123423 0)
(2.61315 -0.0998059 0)
(2.59021 -0.092164 0)
(2.5796 -0.0832471 0)
(2.56717 -0.063329 0)
(2.56285 -0.0404054 0)
(2.56486 -0.0325181 0)
(2.57313 -0.0291639 0)
(2.57842 -0.027131 0)
(2.57329 -0.0241957 0)
(2.56919 -0.0234992 0)
(2.56433 -0.0242816 0)
(2.5549 -0.0231601 0)
(2.55695 -0.0124673 0)
(1.28966 0.20297 0)
(0.997547 0.210573 0)
(1.02022 0.210085 0)
(1.03416 0.215517 0)
(1.03744 0.223233 0)
(1.03624 0.232784 0)
(1.03206 0.24417 0)
(1.02344 0.256277 0)
(1.01196 0.267538 0)
(0.998348 0.277842 0)
(0.98373 0.288119 0)
(0.969485 0.300049 0)
(0.954609 0.313303 0)
(0.938433 0.326805 0)
(0.920288 0.337849 0)
(0.899294 0.345374 0)
(0.87364 0.35393 0)
(0.843794 0.360472 0)
(0.810918 0.362032 0)
(0.775156 0.360131 0)
(0.735165 0.355791 0)
(0.688942 0.349307 0)
(0.635943 0.340111 0)
(0.577399 0.326523 0)
(0.515212 0.309581 0)
(0.452544 0.290162 0)
(0.391356 0.269314 0)
(0.331529 0.24908 0)
(0.273335 0.23064 0)
(0.21805 0.214587 0)
(0.167022 0.201748 0)
(0.119944 0.191474 0)
(0.0733838 0.184217 0)
(0.0236634 0.180043 0)
(2.14836 0.582509 0)
(2.23455 0.48737 0)
(2.27121 0.462289 0)
(2.29228 0.43636 0)
(2.36471 0.348086 0)
(2.41454 0.261515 0)
(2.43866 0.243644 0)
(2.45878 0.208314 0)
(2.50413 0.135735 0)
(2.53256 0.0835021 0)
(2.5583 0.0413726 0)
(2.57419 0.0174265 0)
(2.57762 -0.017478 0)
(2.60937 -0.0768561 0)
(2.62152 -0.133563 0)
(2.63422 -0.155041 0)
(2.64152 -0.159422 0)
(2.65075 -0.185789 0)
(2.66982 -0.226585 0)
(2.6792 -0.257631 0)
(2.69505 -0.271642 0)
(2.70548 -0.30118 0)
(2.70157 -0.342732 0)
(2.69815 -0.364559 0)
(2.70156 -0.369582 0)
(2.70988 -0.381484 0)
(2.72598 -0.404971 0)
(2.73327 -0.426469 0)
(2.74067 -0.44392 0)
(2.7511 -0.454934 0)
(2.75225 -0.463479 0)
(2.7428 -0.485454 0)
(2.7347 -0.507018 0)
(2.73864 -0.509845 0)
(2.73982 -0.508459 0)
(2.74111 -0.504363 0)
(2.73827 -0.49666 0)
(2.73085 -0.469735 0)
(2.7133 -0.405353 0)
(2.6984 -0.32221 0)
(2.67942 -0.253462 0)
(2.63407 -0.15474 0)
(2.61493 -0.13841 0)
(2.58356 -0.099802 0)
(2.56613 -0.0599985 0)
(2.5685 -0.0362915 0)
(2.57755 -0.0317678 0)
(2.59067 -0.0345289 0)
(2.5819 -0.0374959 0)
(2.579 -0.0365942 0)
(2.57547 -0.0364994 0)
(2.56992 -0.0345026 0)
(2.56121 -0.0226911 0)
(2.5625 -0.0212726 0)
(1.40008 0.183906 0)
(0.982433 0.200352 0)
(1.00235 0.20426 0)
(1.02779 0.212306 0)
(1.03953 0.222881 0)
(1.04174 0.234727 0)
(1.03946 0.248769 0)
(1.03219 0.263887 0)
(1.02315 0.278733 0)
(1.01352 0.291447 0)
(1.00196 0.303149 0)
(0.989226 0.315801 0)
(0.975474 0.329244 0)
(0.960296 0.342774 0)
(0.942398 0.35462 0)
(0.921658 0.365496 0)
(0.900176 0.375847 0)
(0.878212 0.384063 0)
(0.854048 0.391601 0)
(0.826225 0.396825 0)
(0.7929 0.399431 0)
(0.754696 0.397282 0)
(0.709861 0.390928 0)
(0.657624 0.381431 0)
(0.599705 0.368396 0)
(0.538337 0.351593 0)
(0.475337 0.331003 0)
(0.410819 0.308984 0)
(0.344669 0.288424 0)
(0.279661 0.268656 0)
(0.217044 0.25449 0)
(0.157261 0.244521 0)
(0.0973703 0.23806 0)
(0.0324897 0.233529 0)
(2.11587 0.585531 0)
(2.16848 0.540633 0)
(2.19236 0.525546 0)
(2.25203 0.469294 0)
(2.32406 0.382865 0)
(2.3643 0.330032 0)
(2.38313 0.305821 0)
(2.42634 0.241472 0)
(2.454 0.203247 0)
(2.48149 0.163413 0)
(2.52436 0.0923838 0)
(2.54308 0.0442076 0)
(2.5513 0.0383077 0)
(2.55748 0.0120349 0)
(2.58864 -0.045573 0)
(2.60594 -0.0851673 0)
(2.62256 -0.107425 0)
(2.63649 -0.131774 0)
(2.64228 -0.152129 0)
(2.65713 -0.190138 0)
(2.66759 -0.22702 0)
(2.67437 -0.243198 0)
(2.67022 -0.251376 0)
(2.67396 -0.282957 0)
(2.68371 -0.317321 0)
(2.692 -0.328331 0)
(2.70274 -0.332358 0)
(2.72152 -0.356478 0)
(2.72794 -0.39047 0)
(2.73191 -0.406752 0)
(2.73252 -0.417748 0)
(2.73328 -0.457963 0)
(2.73094 -0.493262 0)
(2.72987 -0.50004 0)
(2.73716 -0.507707 0)
(2.74462 -0.510226 0)
(2.7512 -0.507572 0)
(2.75638 -0.499063 0)
(2.75689 -0.495073 0)
(2.74677 -0.482047 0)
(2.72883 -0.45484 0)
(2.70129 -0.406282 0)
(2.67322 -0.350083 0)
(2.62919 -0.263983 0)
(2.60854 -0.201868 0)
(2.60541 -0.141727 0)
(2.61953 -0.102113 0)
(2.62554 -0.0684081 0)
(2.60905 -0.0561199 0)
(2.60084 -0.0509573 0)
(2.58818 -0.0455306 0)
(2.57483 -0.0378192 0)
(2.56451 -0.0231144 0)
(2.56635 -0.0258622 0)
(1.55485 0.176876 0)
(0.990701 0.169322 0)
(0.996899 0.180426 0)
(1.02632 0.196758 0)
(1.0383 0.214678 0)
(1.0461 0.23195 0)
(1.04663 0.250632 0)
(1.04083 0.26932 0)
(1.03124 0.286734 0)
(1.02239 0.301864 0)
(1.01475 0.315286 0)
(1.00556 0.329003 0)
(0.993748 0.343361 0)
(0.978891 0.357563 0)
(0.960571 0.36942 0)
(0.940554 0.379749 0)
(0.921016 0.390633 0)
(0.90276 0.402743 0)
(0.88426 0.41434 0)
(0.862737 0.423704 0)
(0.836868 0.429559 0)
(0.805759 0.4327 0)
(0.768057 0.434757 0)
(0.724037 0.43198 0)
(0.674319 0.424355 0)
(0.61898 0.412968 0)
(0.55771 0.398542 0)
(0.491689 0.379994 0)
(0.420504 0.360334 0)
(0.346859 0.341137 0)
(0.27394 0.325937 0)
(0.203516 0.313685 0)
(0.12924 0.309111 0)
(0.0452125 0.309473 0)
(2.06579 0.608695 0)
(2.09843 0.593539 0)
(2.14234 0.558721 0)
(2.22573 0.481079 0)
(2.28572 0.406911 0)
(2.30473 0.395005 0)
(2.32818 0.364962 0)
(2.38894 0.289368 0)
(2.42467 0.234527 0)
(2.44092 0.221337 0)
(2.47014 0.174083 0)
(2.5001 0.117823 0)
(2.51807 0.0932001 0)
(2.54162 0.0529582 0)
(2.56546 0.00597598 0)
(2.5725 -0.0124904 0)
(2.59405 -0.0464668 0)
(2.61262 -0.0922305 0)
(2.62562 -0.109628 0)
(2.62665 -0.116177 0)
(2.6409 -0.159672 0)
(2.64792 -0.205444 0)
(2.65305 -0.22203 0)
(2.65693 -0.226014 0)
(2.66625 -0.246161 0)
(2.67808 -0.275433 0)
(2.68763 -0.285983 0)
(2.70146 -0.297034 0)
(2.71307 -0.330642 0)
(2.7127 -0.349332 0)
(2.70671 -0.353456 0)
(2.7051 -0.37955 0)
(2.70696 -0.402908 0)
(2.70838 -0.407945 0)
(2.71692 -0.42245 0)
(2.73157 -0.43774 0)
(2.74111 -0.454599 0)
(2.75019 -0.464355 0)
(2.7552 -0.475912 0)
(2.7507 -0.482431 0)
(2.73683 -0.487902 0)
(2.7283 -0.485727 0)
(2.72139 -0.479732 0)
(2.70428 -0.446324 0)
(2.68235 -0.377924 0)
(2.65907 -0.279249 0)
(2.65524 -0.192031 0)
(2.63885 -0.101421 0)
(2.64004 -0.0680251 0)
(2.6155 -0.0373382 0)
(2.58866 -0.0210356 0)
(2.5715 -0.0237792 0)
(2.55692 -0.0306638 0)
(2.56323 -0.0421375 0)
(1.77408 0.164437 0)
(1.02282 0.153091 0)
(1.01268 0.170425 0)
(1.04535 0.188625 0)
(1.05063 0.208957 0)
(1.05332 0.231507 0)
(1.05352 0.253867 0)
(1.04746 0.274835 0)
(1.03728 0.293731 0)
(1.02976 0.309988 0)
(1.0255 0.324316 0)
(1.01926 0.339964 0)
(1.00836 0.3563 0)
(0.993121 0.371926 0)
(0.974582 0.384651 0)
(0.95502 0.395355 0)
(0.937223 0.407183 0)
(0.921951 0.420879 0)
(0.906233 0.434926 0)
(0.887788 0.447371 0)
(0.865596 0.456715 0)
(0.839447 0.463908 0)
(0.809763 0.468478 0)
(0.775146 0.471377 0)
(0.734434 0.473436 0)
(0.686731 0.472486 0)
(0.632531 0.465742 0)
(0.571198 0.453517 0)
(0.502738 0.435533 0)
(0.427035 0.418001 0)
(0.346641 0.404444 0)
(0.259905 0.400176 0)
(0.165738 0.406615 0)
(0.0548803 0.415494 0)
(2.00267 0.647163 0)
(2.04251 0.625656 0)
(2.11931 0.567108 0)
(2.19108 0.492669 0)
(2.22455 0.464879 0)
(2.23969 0.450487 0)
(2.29532 0.398738 0)
(2.3533 0.327177 0)
(2.38367 0.291232 0)
(2.39855 0.270909 0)
(2.43635 0.217367 0)
(2.4637 0.178091 0)
(2.48534 0.148042 0)
(2.51772 0.0911446 0)
(2.53435 0.0575619 0)
(2.53783 0.0549217 0)
(2.554 0.0238742 0)
(2.58368 -0.0317791 0)
(2.59706 -0.0687692 0)
(2.60617 -0.0790419 0)
(2.6055 -0.0907446 0)
(2.61582 -0.129195 0)
(2.62907 -0.162835 0)
(2.63956 -0.181424 0)
(2.65105 -0.194828 0)
(2.6646 -0.214394 0)
(2.67393 -0.235122 0)
(2.68223 -0.256925 0)
(2.69055 -0.284061 0)
(2.6922 -0.296426 0)
(2.68432 -0.306938 0)
(2.69086 -0.344875 0)
(2.69519 -0.369924 0)
(2.70217 -0.372493 0)
(2.70966 -0.377067 0)
(2.72579 -0.39803 0)
(2.7331 -0.412738 0)
(2.74016 -0.422654 0)
(2.74487 -0.444806 0)
(2.74093 -0.466613 0)
(2.72951 -0.485634 0)
(2.7282 -0.492275 0)
(2.72931 -0.48936 0)
(2.73244 -0.481305 0)
(2.73467 -0.469684 0)
(2.73085 -0.440185 0)
(2.72069 -0.397406 0)
(2.69985 -0.326623 0)
(2.68611 -0.26733 0)
(2.64963 -0.185964 0)
(2.62932 -0.15691 0)
(2.60324 -0.121358 0)
(2.59062 -0.106999 0)
(2.57981 -0.0795815 0)
(2.01854 0.100184 0)
(1.07002 0.115623 0)
(1.02855 0.154239 0)
(1.06345 0.18345 0)
(1.06251 0.209259 0)
(1.0632 0.234782 0)
(1.06012 0.25877 0)
(1.05113 0.280071 0)
(1.03955 0.299535 0)
(1.0325 0.316878 0)
(1.03009 0.333128 0)
(1.02605 0.350359 0)
(1.01618 0.367045 0)
(1.00052 0.38278 0)
(0.981459 0.397063 0)
(0.963953 0.410363 0)
(0.950544 0.423419 0)
(0.939024 0.437685 0)
(0.925799 0.452904 0)
(0.908918 0.467245 0)
(0.888181 0.478775 0)
(0.864098 0.487858 0)
(0.838167 0.496241 0)
(0.810674 0.505407 0)
(0.780674 0.513633 0)
(0.745129 0.519692 0)
(0.702643 0.520893 0)
(0.651138 0.516277 0)
(0.588372 0.508808 0)
(0.515278 0.500112 0)
(0.434321 0.49677 0)
(0.349056 0.499738 0)
(0.252319 0.512208 0)
(0.113807 0.558052 0)
(1.95302 0.674534 0)
(2.01716 0.63276 0)