/*--------------------------------*- C++ -*----------------------------------*\
  =========                 |
  \\      /  F ield         | OpenFOAM: The Open Source CFD Toolbox
   \\    /   O peration     | Website:  https://openfoam.org
    \\  /    A nd           | Version:  7
     \\/     M anipulation  |
\*---------------------------------------------------------------------------*/
FoamFile
{
    version     2.0;
    format      ascii;
    class       volVectorField;
    location    "1.5";
    object      U;
}
// * * * * * * * * * * * * * * * * * * * * * * * * * * * * * * * * * * * * * //

dimensions      [0 1 -1 0 0 0 0];

internalField   nonuniform List<vector> 
16512
(
(2.53965 -0.752463 0)
(2.54215 -0.752743 0)
(2.54297 -0.753289 0)
(2.54392 -0.754097 0)
(2.54714 -0.754628 0)
(2.55031 -0.75456 0)
(2.55368 -0.753626 0)
(2.55805 -0.752946 0)
(2.5615 -0.753305 0)
(2.56229 -0.75522 0)
(2.55984 -0.762151 0)
(2.54585 -0.783762 0)
(2.52627 -0.812916 0)
(2.48799 -0.866761 0)
(2.4438 -0.931748 0)
(2.44749 -0.930292 0)
(2.42831 -0.94451 0)
(2.41928 -0.971183 0)
(2.41984 -0.97328 0)
(2.41967 -0.968792 0)
(2.42163 -0.963756 0)
(2.42502 -0.961578 0)
(2.42746 -0.96383 0)
(2.42991 -0.965938 0)
(2.4343 -0.966715 0)
(2.43861 -0.964844 0)
(2.44614 -0.961726 0)
(2.45164 -0.960633 0)
(2.45447 -0.961638 0)
(2.45688 -0.962835 0)
(2.45661 -0.962702 0)
(2.45781 -0.961656 0)
(2.46109 -0.96071 0)
(2.46425 -0.960424 0)
(2.46814 -0.961264 0)
(2.47239 -0.962626 0)
(2.47623 -0.962972 0)
(2.47936 -0.963048 0)
(2.48199 -0.963661 0)
(2.48578 -0.964233 0)
(2.48942 -0.96408 0)
(2.49292 -0.962337 0)
(2.49369 -0.960985 0)
(2.49541 -0.958182 0)
(2.49799 -0.95573 0)
(2.49979 -0.951637 0)
(2.50336 -0.947005 0)
(2.50666 -0.942294 0)
(2.5081 -0.933882 0)
(2.50858 -0.923876 0)
(2.50815 -0.909984 0)
(2.5069 -0.89418 0)
(2.50534 -0.873771 0)
(2.5029 -0.841784 0)
(2.50242 -0.810729 0)
(2.50268 -0.789437 0)
(2.50406 -0.763296 0)
(2.50485 -0.73849 0)
(2.50349 -0.717327 0)
(2.50333 -0.703196 0)
(2.50295 -0.699323 0)
(2.50402 -0.699629 0)
(2.5098 -0.694731 0)
(2.51196 -0.683226 0)
(2.51391 -0.675252 0)
(2.5167 -0.670258 0)
(2.51822 -0.666643 0)
(2.51863 -0.666657 0)
(2.51964 -0.667755 0)
(2.52201 -0.668377 0)
(2.52521 -0.669042 0)
(2.52766 -0.667113 0)
(2.5293 -0.662966 0)
(2.52978 -0.663126 0)
(2.52937 -0.662274 0)
(2.53017 -0.658409 0)
(2.53453 -0.654226 0)
(2.54278 -0.649087 0)
(2.54968 -0.645631 0)
(2.5537 -0.644544 0)
(2.55836 -0.643226 0)
(2.56012 -0.643284 0)
(2.55943 -0.645219 0)
(2.55757 -0.64643 0)
(2.55721 -0.646121 0)
(2.5589 -0.644981 0)
(2.56167 -0.64305 0)
(2.56428 -0.639912 0)
(2.56809 -0.636418 0)
(2.57118 -0.633679 0)
(2.5732 -0.633758 0)
(2.57535 -0.634455 0)
(2.57688 -0.63414 0)
(2.57822 -0.633066 0)
(2.5802 -0.632035 0)
(2.58335 -0.629748 0)
(2.58603 -0.626532 0)
(2.5879 -0.624669 0)
(2.58952 -0.623821 0)
(2.58969 -0.623358 0)
(2.58997 -0.622291 0)
(2.59045 -0.621003 0)
(2.59172 -0.618885 0)
(2.59407 -0.6158 0)
(2.59677 -0.611871 0)
(2.60008 -0.605825 0)
(2.6015 -0.598513 0)
(2.60363 -0.594351 0)
(2.60552 -0.593986 0)
(2.60671 -0.594147 0)
(2.6078 -0.594429 0)
(2.60863 -0.594834 0)
(2.60969 -0.595071 0)
(2.61094 -0.594666 0)
(2.61331 -0.593432 0)
(2.61562 -0.59161 0)
(2.61826 -0.58895 0)
(2.62147 -0.584475 0)
(2.62362 -0.580033 0)
(2.62626 -0.576986 0)
(2.62849 -0.57501 0)
(2.62932 -0.574279 0)
(2.62939 -0.574904 0)
(2.63034 -0.577387 0)
(2.63199 -0.580225 0)
(2.63393 -0.582467 0)
(2.63817 -0.585812 0)
(2.64491 -0.589436 0)
(2.65245 -0.588699 0)
(2.65796 -0.585237 0)
(2.66134 -0.581649 0)
(2.66353 -0.578906 0)
(2.66634 -0.576189 0)
(2.66809 -0.57212 0)
(2.66519 -0.564459 0)
(2.65665 -0.553634 0)
(2.65099 -0.547665 0)
(2.65078 -0.547543 0)
(2.65171 -0.549115 0)
(2.65305 -0.551442 0)
(2.6553 -0.553327 0)
(2.6577 -0.554349 0)
(2.66177 -0.556017 0)
(2.67018 -0.560881 0)
(2.68166 -0.568321 0)
(2.68948 -0.570645 0)
(2.69269 -0.569284 0)
(2.69419 -0.567888 0)
(2.69571 -0.565593 0)
(2.6958 -0.561247 0)
(2.6913 -0.553287 0)
(2.68251 -0.543416 0)
(2.67696 -0.539094 0)
(2.67604 -0.538955 0)
(2.67684 -0.539578 0)
(2.67872 -0.539863 0)
(2.68049 -0.540007 0)
(2.68332 -0.540121 0)
(2.69003 -0.541542 0)
(2.69982 -0.545548 0)
(2.70663 -0.547271 0)
(2.70881 -0.546599 0)
(2.71119 -0.545644 0)
(2.71339 -0.543925 0)
(2.71433 -0.540335 0)
(2.71178 -0.532268 0)
(2.70678 -0.521572 0)
(2.70654 -0.516899 0)
(2.70878 -0.516662 0)
(2.71079 -0.51708 0)
(2.71274 -0.517979 0)
(2.71542 -0.519495 0)
(2.72008 -0.522079 0)
(2.72608 -0.52797 0)
(2.73193 -0.534023 0)
(2.73469 -0.535352 0)
(2.73743 -0.535752 0)
(2.73937 -0.535263 0)
(2.73924 -0.531142 0)
(2.73516 -0.521286 0)
(2.7277 -0.507348 0)
(2.7247 -0.499552 0)
(2.72657 -0.497895 0)
(2.72935 -0.497911 0)
(2.73223 -0.498718 0)
(2.73479 -0.500467 0)
(2.73756 -0.502592 0)
(2.7439 -0.50769 0)
(2.7555 -0.517849 0)
(2.76638 -0.5244 0)
(2.77039 -0.524501 0)
(2.77223 -0.524217 0)
(2.7743 -0.522577 0)
(2.77372 -0.518278 0)
(2.76648 -0.507951 0)
(2.75398 -0.494589 0)
(2.74858 -0.489766 0)
(2.74941 -0.489706 0)
(2.7516 -0.490825 0)
(2.75384 -0.492188 0)
(2.75617 -0.493663 0)
(2.7601 -0.495989 0)
(2.76913 -0.502295 0)
(2.78298 -0.510908 0)
(2.79338 -0.5124 0)
(2.79836 -0.509686 0)
(2.8012 -0.506883 0)
(2.80316 -0.504349 0)
(2.80443 -0.502054 0)
(2.80247 -0.497851 0)
(2.79347 -0.489749 0)
(2.78296 -0.484965 0)
(2.7795 -0.486442 0)
(2.77933 -0.489352 0)
(2.78105 -0.491835 0)
(2.78417 -0.493114 0)
(2.78687 -0.493955 0)
(2.78969 -0.495022 0)
(2.79693 -0.496814 0)
(2.80744 -0.498634 0)
(2.81615 -0.497895 0)
(2.82172 -0.49592 0)
(2.82541 -0.49352 0)
(2.82766 -0.491172 0)
(2.83008 -0.488961 0)
(2.83165 -0.485936 0)
(2.82746 -0.480148 0)
(2.81507 -0.471841 0)
(2.80745 -0.468327 0)
(2.80816 -0.468815 0)
(2.81082 -0.469912 0)
(2.81364 -0.47109 0)
(2.81646 -0.472687 0)
(2.81964 -0.475182 0)
(2.82523 -0.480199 0)
(2.8308 -0.485247 0)
(2.83499 -0.487274 0)
(2.83687 -0.487368 0)
(2.83805 -0.486051 0)
(2.83967 -0.48106 0)
(2.84102 -0.472634 0)
(2.84153 -0.462796 0)
(2.8419 -0.454925 0)
(2.84304 -0.451111 0)
(2.84433 -0.449979 0)
(2.84497 -0.449997 0)
(2.84384 -0.450931 0)
(2.84259 -0.453583 0)
(2.84315 -0.456939 0)
(2.84439 -0.460027 0)
(2.84634 -0.462798 0)
(2.84879 -0.465023 0)
(2.85308 -0.468404 0)
(2.85889 -0.474324 0)
(2.86355 -0.477958 0)
(2.86623 -0.477148 0)
(2.86752 -0.476144 0)
(2.86928 -0.468681 0)
(2.54314 -0.745617 0)
(2.54453 -0.745751 0)
(2.54407 -0.746929 0)
(2.54624 -0.747678 0)
(2.54941 -0.747713 0)
(2.55229 -0.747273 0)
(2.55585 -0.746289 0)
(2.55993 -0.746372 0)
(2.56122 -0.749238 0)
(2.55693 -0.759183 0)
(2.54504 -0.780408 0)
(2.51766 -0.820953 0)
(2.47453 -0.872002 0)
(2.46348 -0.898289 0)
(2.42758 -0.946026 0)
(2.41553 -0.965233 0)
(2.41999 -0.955577 0)
(2.42505 -0.954406 0)
(2.42471 -0.958384 0)
(2.42421 -0.960752 0)
(2.42618 -0.961182 0)
(2.42846 -0.959406 0)
(2.4306 -0.95936 0)
(2.43488 -0.960627 0)
(2.4384 -0.96054 0)
(2.4432 -0.9588 0)
(2.45085 -0.955301 0)
(2.45478 -0.95383 0)
(2.45773 -0.954699 0)
(2.4596 -0.955612 0)
(2.45949 -0.956311 0)
(2.46203 -0.956807 0)
(2.46554 -0.955947 0)
(2.4692 -0.954711 0)
(2.47324 -0.954267 0)
(2.47713 -0.954401 0)
(2.48048 -0.954557 0)
(2.48273 -0.954521 0)
(2.48401 -0.954822 0)
(2.48709 -0.956214 0)
(2.49 -0.957247 0)
(2.49335 -0.957554 0)
(2.4972 -0.956838 0)
(2.50087 -0.954788 0)
(2.50473 -0.952536 0)
(2.50793 -0.951997 0)
(2.51027 -0.952205 0)
(2.51183 -0.950762 0)
(2.51414 -0.949217 0)
(2.51718 -0.948216 0)
(2.52061 -0.945931 0)
(2.52353 -0.943633 0)
(2.52599 -0.938773 0)
(2.52838 -0.931613 0)
(2.52953 -0.921182 0)
(2.52915 -0.905154 0)
(2.52758 -0.885761 0)
(2.52593 -0.863574 0)
(2.52543 -0.844205 0)
(2.52677 -0.82498 0)
(2.52437 -0.794494 0)
(2.52146 -0.757705 0)
(2.52157 -0.728999 0)
(2.52131 -0.716266 0)
(2.52493 -0.715834 0)
(2.53477 -0.708595 0)
(2.54006 -0.693196 0)
(2.53941 -0.686866 0)
(2.5354 -0.676541 0)
(2.53304 -0.670586 0)
(2.53324 -0.67101 0)
(2.53407 -0.669838 0)
(2.5347 -0.66487 0)
(2.53371 -0.663098 0)
(2.53446 -0.658664 0)
(2.5391 -0.651808 0)
(2.54342 -0.645642 0)
(2.54979 -0.641443 0)
(2.55419 -0.638714 0)
(2.55855 -0.639237 0)
(2.56147 -0.640762 0)
(2.56282 -0.643083 0)
(2.56238 -0.646261 0)
(2.56213 -0.648097 0)
(2.56278 -0.647273 0)
(2.5643 -0.643796 0)
(2.56558 -0.638996 0)
(2.56804 -0.635031 0)
(2.57039 -0.632244 0)
(2.57314 -0.632338 0)
(2.57665 -0.632867 0)
(2.57861 -0.633089 0)
(2.57863 -0.632237 0)
(2.58021 -0.630729 0)
(2.58204 -0.630218 0)
(2.58565 -0.629183 0)
(2.58952 -0.625783 0)
(2.59202 -0.623842 0)
(2.59429 -0.622676 0)
(2.59504 -0.621543 0)
(2.59556 -0.619754 0)
(2.59666 -0.618023 0)
(2.59868 -0.61619 0)
(2.60185 -0.613869 0)
(2.60474 -0.608803 0)
(2.60559 -0.602728 0)
(2.60582 -0.596234 0)
(2.60763 -0.592628 0)
(2.60921 -0.59276 0)
(2.60982 -0.593116 0)
(2.61051 -0.593617 0)
(2.61155 -0.593839 0)
(2.6133 -0.594135 0)
(2.61605 -0.594408 0)
(2.61927 -0.5935 0)
(2.62227 -0.590516 0)
(2.62468 -0.586358 0)
(2.62605 -0.583311 0)
(2.6282 -0.581406 0)
(2.63075 -0.578644 0)
(2.63242 -0.574825 0)
(2.6326 -0.572391 0)
(2.63164 -0.572296 0)
(2.63074 -0.573731 0)
(2.63176 -0.575078 0)
(2.63319 -0.57525 0)
(2.63531 -0.574834 0)
(2.64136 -0.574759 0)
(2.65242 -0.577325 0)
(2.66298 -0.577965 0)
(2.66639 -0.57656 0)
(2.669 -0.575815 0)
(2.67188 -0.575384 0)
(2.67397 -0.574701 0)
(2.67358 -0.572363 0)
(2.66846 -0.566164 0)
(2.65935 -0.556548 0)
(2.65309 -0.55046 0)
(2.6518 -0.549336 0)
(2.65245 -0.549173 0)
(2.65443 -0.549109 0)
(2.65691 -0.549201 0)
(2.65991 -0.548832 0)
(2.66627 -0.548666 0)
(2.67571 -0.55087 0)
(2.68723 -0.55775 0)
(2.69505 -0.562887 0)
(2.69748 -0.563259 0)
(2.69984 -0.562435 0)
(2.70166 -0.560629 0)
(2.70063 -0.557717 0)
(2.69387 -0.551187 0)
(2.68331 -0.541632 0)
(2.67777 -0.535903 0)
(2.67828 -0.53364 0)
(2.68039 -0.532839 0)
(2.68247 -0.532263 0)
(2.6853 -0.53165 0)
(2.69073 -0.53138 0)
(2.69806 -0.532742 0)
(2.70584 -0.53682 0)
(2.71125 -0.540583 0)
(2.71325 -0.541442 0)
(2.71542 -0.541273 0)
(2.71756 -0.54016 0)
(2.71839 -0.537099 0)
(2.71626 -0.530245 0)
(2.7118 -0.520401 0)
(2.71101 -0.515244 0)
(2.71253 -0.514629 0)
(2.71468 -0.51499 0)
(2.71679 -0.516048 0)
(2.71876 -0.517632 0)
(2.72269 -0.520145 0)
(2.73008 -0.525208 0)
(2.73736 -0.528 0)
(2.74101 -0.527373 0)
(2.74267 -0.526471 0)
(2.74478 -0.525647 0)
(2.74621 -0.523253 0)
(2.74329 -0.516504 0)
(2.73414 -0.504756 0)
(2.72826 -0.497666 0)
(2.72916 -0.496535 0)
(2.73155 -0.497113 0)
(2.73409 -0.497946 0)
(2.73648 -0.498674 0)
(2.73949 -0.499758 0)
(2.74731 -0.504249 0)
(2.76125 -0.513787 0)
(2.7728 -0.518704 0)
(2.77624 -0.5182 0)
(2.77856 -0.517937 0)
(2.78096 -0.517035 0)
(2.78051 -0.514145 0)
(2.77236 -0.505502 0)
(2.7577 -0.492133 0)
(2.7513 -0.485948 0)
(2.75227 -0.484838 0)
(2.75435 -0.484952 0)
(2.75643 -0.485331 0)
(2.75882 -0.48614 0)
(2.76462 -0.487692 0)
(2.77493 -0.491865 0)
(2.78875 -0.499834 0)
(2.79886 -0.504036 0)
(2.80244 -0.503397 0)
(2.80556 -0.502166 0)
(2.80814 -0.501455 0)
(2.80915 -0.500923 0)
(2.80477 -0.498295 0)
(2.79184 -0.492206 0)
(2.78048 -0.489467 0)
(2.77783 -0.489723 0)
(2.77855 -0.489744 0)
(2.78088 -0.489221 0)
(2.78373 -0.488887 0)
(2.78639 -0.488513 0)
(2.79344 -0.48711 0)
(2.80514 -0.484072 0)
(2.81652 -0.483635 0)
(2.82315 -0.485252 0)
(2.8264 -0.486409 0)
(2.82849 -0.486731 0)
(2.83184 -0.486806 0)
(2.83401 -0.486474 0)
(2.83172 -0.484723 0)
(2.82248 -0.479072 0)
(2.81142 -0.471555 0)
(2.8081 -0.469494 0)
(2.80908 -0.470232 0)
(2.81136 -0.471475 0)
(2.81382 -0.472811 0)
(2.81621 -0.474173 0)
(2.82082 -0.475977 0)
(2.82699 -0.478132 0)
(2.83403 -0.4774 0)
(2.83987 -0.475835 0)
(2.84348 -0.473585 0)
(2.84576 -0.471181 0)
(2.84744 -0.468385 0)
(2.84894 -0.463467 0)
(2.84799 -0.455684 0)
(2.84542 -0.449336 0)
(2.84428 -0.448419 0)
(2.84392 -0.4505 0)
(2.84279 -0.453358 0)
(2.84111 -0.455251 0)
(2.84133 -0.456095 0)
(2.84317 -0.457313 0)
(2.84522 -0.45931 0)
(2.84732 -0.462482 0)
(2.85007 -0.465367 0)
(2.85555 -0.469575 0)
(2.8632 -0.470986 0)
(2.87018 -0.470641 0)
(2.87477 -0.466185 0)
(2.87711 -0.458518 0)
(2.54583 -0.740259 0)
(2.5463 -0.741162 0)
(2.54598 -0.740761 0)
(2.54836 -0.739864 0)
(2.55127 -0.739439 0)
(2.55382 -0.738815 0)
(2.55757 -0.739122 0)
(2.55954 -0.742839 0)
(2.55308 -0.75575 0)
(2.54106 -0.779998 0)
(2.50252 -0.833877 0)
(2.4794 -0.870209 0)
(2.45305 -0.895934 0)
(2.41576 -0.947691 0)
(2.41515 -0.960791 0)
(2.4189 -0.947118 0)
(2.42395 -0.946043 0)
(2.42575 -0.947587 0)
(2.4278 -0.951329 0)
(2.42903 -0.95369 0)
(2.4308 -0.9545 0)
(2.4335 -0.95433 0)
(2.43628 -0.952694 0)
(2.43995 -0.951616 0)
(2.44368 -0.951311 0)
(2.44759 -0.950555 0)
(2.45332 -0.949361 0)
(2.45769 -0.947411 0)
(2.45982 -0.947405 0)
(2.46157 -0.947559 0)
(2.46236 -0.947165 0)
(2.46522 -0.947374 0)
(2.46883 -0.947263 0)
(2.47263 -0.946858 0)
(2.47716 -0.94725 0)
(2.48168 -0.947951 0)
(2.48566 -0.947889 0)
(2.48772 -0.946575 0)
(2.48695 -0.944716 0)
(2.48805 -0.943916 0)
(2.4911 -0.94395 0)
(2.49426 -0.944116 0)
(2.49874 -0.944474 0)
(2.50384 -0.945257 0)
(2.5073 -0.946 0)
(2.51118 -0.947285 0)
(2.5149 -0.948447 0)
(2.51808 -0.948464 0)
(2.52044 -0.945601 0)
(2.52383 -0.944046 0)
(2.52707 -0.944469 0)
(2.52976 -0.943956 0)
(2.53336 -0.943908 0)
(2.53684 -0.940696 0)
(2.53825 -0.938608 0)
(2.53954 -0.93731 0)
(2.54215 -0.933315 0)
(2.54437 -0.929068 0)
(2.5465 -0.923713 0)
(2.54806 -0.915395 0)
(2.54879 -0.904379 0)
(2.54916 -0.889549 0)
(2.54945 -0.869436 0)
(2.54798 -0.842844 0)
(2.5465 -0.810999 0)
(2.54695 -0.784329 0)
(2.54704 -0.760572 0)
(2.54632 -0.743099 0)
(2.54225 -0.725196 0)
(2.53818 -0.707133 0)
(2.53546 -0.69859 0)
(2.53564 -0.692207 0)
(2.54147 -0.682281 0)
(2.55095 -0.668316 0)
(2.55897 -0.662123 0)
(2.56066 -0.652234 0)
(2.56308 -0.641187 0)
(2.56263 -0.634719 0)
(2.56234 -0.633196 0)
(2.56209 -0.634812 0)
(2.56132 -0.636411 0)
(2.56141 -0.641029 0)
(2.56226 -0.644134 0)
(2.56544 -0.64511 0)
(2.56905 -0.644177 0)
(2.57073 -0.641586 0)
(2.57146 -0.637769 0)
(2.57172 -0.634393 0)
(2.57324 -0.632805 0)
(2.57521 -0.633183 0)
(2.57825 -0.633281 0)
(2.58071 -0.631908 0)
(2.58233 -0.629594 0)
(2.58382 -0.628944 0)
(2.58594 -0.628761 0)
(2.58967 -0.627825 0)
(2.59238 -0.626779 0)
(2.59627 -0.625294 0)
(2.59885 -0.621807 0)
(2.59906 -0.618881 0)
(2.59938 -0.617191 0)
(2.60103 -0.614803 0)
(2.60353 -0.612029 0)
(2.6064 -0.608586 0)
(2.60884 -0.603339 0)
(2.60987 -0.598434 0)
(2.61058 -0.594408 0)
(2.61038 -0.592852 0)
(2.61107 -0.593028 0)
(2.61166 -0.593548 0)
(2.61246 -0.594173 0)
(2.61351 -0.593802 0)
(2.61566 -0.592469 0)
(2.6192 -0.590698 0)
(2.62346 -0.588277 0)
(2.62692 -0.585056 0)
(2.6284 -0.583068 0)
(2.63004 -0.581969 0)
(2.63145 -0.581297 0)
(2.63336 -0.579572 0)
(2.63524 -0.576713 0)
(2.63567 -0.573734 0)
(2.63382 -0.571535 0)
(2.6314 -0.569977 0)
(2.63166 -0.568367 0)
(2.63322 -0.567084 0)
(2.63588 -0.565211 0)
(2.64226 -0.562557 0)
(2.65133 -0.561575 0)
(2.66095 -0.565843 0)
(2.66827 -0.57147 0)
(2.67113 -0.573271 0)
(2.67443 -0.573992 0)
(2.67688 -0.5749 0)
(2.67741 -0.575557 0)
(2.67532 -0.573894 0)
(2.66999 -0.567982 0)
(2.66208 -0.558468 0)
(2.6558 -0.550014 0)
(2.65437 -0.545759 0)
(2.65599 -0.543933 0)
(2.65843 -0.543116 0)
(2.66121 -0.542222 0)
(2.66678 -0.541076 0)
(2.67384 -0.540336 0)
(2.68195 -0.542445 0)
(2.69146 -0.54834 0)
(2.69886 -0.554494 0)
(2.70167 -0.556904 0)
(2.70336 -0.557541 0)
(2.70454 -0.557726 0)
(2.70246 -0.555923 0)
(2.69604 -0.549303 0)
(2.68734 -0.538028 0)
(2.68333 -0.530227 0)
(2.68462 -0.527781 0)
(2.68673 -0.527 0)
(2.68917 -0.526253 0)
(2.69353 -0.525568 0)
(2.69881 -0.525652 0)
(2.70424 -0.527573 0)
(2.7097 -0.531451 0)
(2.71444 -0.535356 0)
(2.71747 -0.536683 0)
(2.71944 -0.536479 0)
(2.72131 -0.536102 0)
(2.72243 -0.533697 0)
(2.72079 -0.528065 0)
(2.716 -0.519535 0)
(2.71309 -0.514046 0)
(2.71381 -0.512958 0)
(2.71575 -0.513138 0)
(2.71777 -0.51351 0)
(2.72004 -0.513766 0)
(2.72603 -0.515351 0)
(2.73583 -0.519767 0)
(2.74365 -0.521508 0)
(2.74584 -0.521425 0)
(2.74874 -0.521702 0)
(2.75163 -0.52204 0)
(2.75263 -0.520971 0)
(2.74834 -0.515268 0)
(2.73803 -0.503297 0)
(2.7315 -0.494854 0)
(2.73221 -0.49255 0)
(2.73455 -0.492007 0)
(2.73683 -0.491881 0)
(2.7393 -0.491756 0)
(2.74451 -0.492363 0)
(2.75381 -0.496932 0)
(2.76804 -0.507242 0)
(2.77838 -0.513439 0)
(2.78149 -0.513586 0)
(2.78455 -0.513865 0)
(2.78712 -0.51351 0)
(2.78632 -0.511032 0)
(2.77764 -0.501993 0)
(2.7629 -0.48696 0)
(2.75692 -0.479273 0)
(2.75829 -0.477549 0)
(2.76041 -0.477023 0)
(2.76235 -0.476911 0)
(2.7655 -0.47743 0)
(2.77151 -0.478661 0)
(2.78035 -0.482011 0)
(2.7922 -0.490319 0)
(2.80253 -0.498218 0)
(2.80653 -0.500509 0)
(2.80925 -0.501211 0)
(2.81213 -0.502474 0)
(2.81237 -0.503369 0)
(2.8053 -0.50057 0)
(2.78953 -0.491981 0)
(2.78015 -0.485926 0)
(2.78048 -0.483382 0)
(2.78284 -0.481554 0)
(2.78612 -0.479638 0)
(2.78977 -0.477548 0)
(2.79763 -0.474733 0)
(2.80835 -0.471308 0)
(2.81744 -0.471319 0)
(2.8226 -0.473263 0)
(2.8256 -0.476109 0)
(2.82796 -0.479873 0)
(2.82913 -0.483066 0)
(2.83092 -0.486012 0)
(2.83125 -0.487691 0)
(2.82697 -0.486352 0)
(2.81929 -0.48065 0)
(2.81231 -0.473198 0)
(2.8098 -0.469348 0)
(2.81048 -0.467998 0)
(2.8124 -0.467465 0)
(2.81422 -0.467366 0)
(2.8185 -0.466977 0)
(2.82626 -0.467135 0)
(2.83562 -0.468578 0)
(2.84365 -0.467964 0)
(2.84673 -0.466759 0)
(2.84893 -0.465432 0)
(2.8514 -0.463972 0)
(2.85355 -0.462036 0)
(2.85339 -0.45847 0)
(2.84898 -0.452694 0)
(2.84439 -0.449627 0)
(2.84247 -0.450756 0)
(2.84134 -0.453633 0)
(2.8403 -0.455977 0)
(2.83979 -0.45702 0)
(2.84047 -0.45781 0)
(2.84251 -0.459282 0)
(2.84496 -0.460766 0)
(2.84702 -0.461445 0)
(2.85187 -0.46282 0)
(2.86057 -0.461767 0)
(2.87221 -0.460035 0)
(2.88091 -0.455559 0)
(2.88543 -0.45076 0)
(2.5475 -0.731953 0)
(2.54658 -0.733502 0)
(2.54791 -0.734771 0)
(2.55065 -0.735384 0)
(2.55246 -0.735414 0)
(2.55543 -0.735635 0)
(2.55653 -0.739681 0)
(2.55113 -0.752282 0)
(2.5288 -0.78764 0)
(2.50267 -0.827527 0)
(2.47266 -0.871867 0)
(2.43148 -0.930984 0)
(2.42325 -0.928599 0)
(2.42216 -0.932577 0)
(2.41711 -0.946066 0)
(2.41861 -0.949622 0)
(2.42159 -0.947522 0)
(2.42625 -0.941608 0)
(2.42995 -0.940789 0)
(2.43326 -0.944984 0)
(2.43532 -0.948728 0)
(2.43778 -0.947831 0)
(2.44133 -0.946802 0)
(2.44501 -0.947558 0)
(2.44798 -0.947578 0)
(2.45269 -0.945946 0)
(2.45759 -0.942258 0)
(2.46003 -0.941427 0)
(2.46237 -0.941736 0)
(2.46308 -0.942356 0)
(2.46486 -0.942625 0)
(2.46876 -0.942459 0)
(2.47269 -0.940626 0)
(2.47678 -0.938307 0)
(2.48145 -0.9377 0)
(2.48583 -0.938595 0)
(2.4895 -0.939955 0)
(2.49164 -0.941165 0)
(2.49176 -0.940884 0)
(2.49261 -0.939101 0)
(2.49565 -0.937572 0)
(2.49931 -0.936162 0)
(2.50366 -0.934732 0)
(2.50694 -0.934285 0)
(2.51076 -0.935146 0)
(2.51417 -0.936463 0)
(2.5173 -0.938108 0)
(2.52077 -0.939865 0)
(2.52416 -0.940679 0)
(2.52747 -0.93984 0)
(2.532 -0.939343 0)
(2.53569 -0.938511 0)
(2.53924 -0.937114 0)
(2.54296 -0.935418 0)
(2.54581 -0.934544 0)
(2.5466 -0.933822 0)
(2.54804 -0.932059 0)
(2.55048 -0.931872 0)
(2.55269 -0.930369 0)
(2.55494 -0.928249 0)
(2.5581 -0.926646 0)
(2.56083 -0.924502 0)
(2.56268 -0.920941 0)
(2.56566 -0.917074 0)
(2.5674 -0.910521 0)
(2.56752 -0.901688 0)
(2.56663 -0.890576 0)
(2.56554 -0.875936 0)
(2.56446 -0.859986 0)
(2.56296 -0.84026 0)
(2.56038 -0.812817 0)
(2.55903 -0.78522 0)
(2.56038 -0.756439 0)
(2.56709 -0.73105 0)
(2.571 -0.703348 0)
(2.57057 -0.679234 0)
(2.57113 -0.667522 0)
(2.56694 -0.656168 0)
(2.56478 -0.650362 0)
(2.56259 -0.647287 0)
(2.56078 -0.643476 0)
(2.56097 -0.644078 0)
(2.5644 -0.644667 0)
(2.57166 -0.642124 0)
(2.57349 -0.641846 0)
(2.57369 -0.640596 0)
(2.5748 -0.639792 0)
(2.57646 -0.638863 0)
(2.57811 -0.636151 0)
(2.57784 -0.634575 0)
(2.5806 -0.633208 0)
(2.58355 -0.631637 0)
(2.58652 -0.630221 0)
(2.58875 -0.628717 0)
(2.59119 -0.627748 0)
(2.59392 -0.626145 0)
(2.59551 -0.625821 0)
(2.59934 -0.624275 0)
(2.60313 -0.62011 0)
(2.60424 -0.617027 0)
(2.60414 -0.615332 0)
(2.60551 -0.612061 0)
(2.60693 -0.608514 0)
(2.60969 -0.605112 0)
(2.61221 -0.601123 0)
(2.61401 -0.598368 0)
(2.61513 -0.596474 0)
(2.61428 -0.595266 0)
(2.6136 -0.595138 0)
(2.61432 -0.595237 0)
(2.61561 -0.594908 0)
(2.61601 -0.592909 0)
(2.61757 -0.589586 0)
(2.62075 -0.586629 0)
(2.62554 -0.584122 0)
(2.62891 -0.582052 0)
(2.63069 -0.580686 0)
(2.63263 -0.580139 0)
(2.63402 -0.58059 0)
(2.63514 -0.580467 0)
(2.63735 -0.578917 0)
(2.63906 -0.576743 0)
(2.6391 -0.573227 0)
(2.63715 -0.567527 0)
(2.63653 -0.561971 0)
(2.63796 -0.559284 0)
(2.64044 -0.557516 0)
(2.64605 -0.555265 0)
(2.65344 -0.553943 0)
(2.65972 -0.555238 0)
(2.66597 -0.559448 0)
(2.67248 -0.565869 0)
(2.67628 -0.570664 0)
(2.67837 -0.572715 0)
(2.67978 -0.574983 0)
(2.67908 -0.575995 0)
(2.67667 -0.573994 0)
(2.67299 -0.567794 0)
(2.6681 -0.558319 0)
(2.66397 -0.548919 0)
(2.66254 -0.542702 0)
(2.66372 -0.539447 0)
(2.66564 -0.537752 0)
(2.66914 -0.536168 0)
(2.67464 -0.534735 0)
(2.68058 -0.535023 0)
(2.68679 -0.53792 0)
(2.69416 -0.543898 0)
(2.70051 -0.550695 0)
(2.70325 -0.553759 0)
(2.70502 -0.554805 0)
(2.70624 -0.555595 0)
(2.70545 -0.553674 0)
(2.70194 -0.547224 0)
(2.6958 -0.536341 0)
(2.69137 -0.527297 0)
(2.69177 -0.523667 0)
(2.69386 -0.522437 0)
(2.69633 -0.521586 0)
(2.70013 -0.521328 0)
(2.70419 -0.521814 0)
(2.70848 -0.523571 0)
(2.71348 -0.5272 0)
(2.71846 -0.531068 0)
(2.72198 -0.532208 0)
(2.72411 -0.531926 0)
(2.72574 -0.531636 0)
(2.72696 -0.530194 0)
(2.72561 -0.52587 0)
(2.72049 -0.517669 0)
(2.71628 -0.510428 0)
(2.71702 -0.507829 0)
(2.71903 -0.50699 0)
(2.72115 -0.506151 0)
(2.72572 -0.505491 0)
(2.73247 -0.506778 0)
(2.7409 -0.512088 0)
(2.74733 -0.517243 0)
(2.74994 -0.518632 0)
(2.75345 -0.519594 0)
(2.75586 -0.520142 0)
(2.75618 -0.518853 0)
(2.75203 -0.512594 0)
(2.74235 -0.499279 0)
(2.73632 -0.488961 0)
(2.73778 -0.486058 0)
(2.74012 -0.485212 0)
(2.74236 -0.484662 0)
(2.74553 -0.484636 0)
(2.75118 -0.485764 0)
(2.75981 -0.490741 0)
(2.77294 -0.50191 0)
(2.78306 -0.509726 0)
(2.78577 -0.510753 0)
(2.78855 -0.511712 0)
(2.7903 -0.511782 0)
(2.78922 -0.50899 0)
(2.78181 -0.499038 0)
(2.76838 -0.482367 0)
(2.76243 -0.473249 0)
(2.76408 -0.471097 0)
(2.76643 -0.471106 0)
(2.76955 -0.471222 0)
(2.77235 -0.471982 0)
(2.77589 -0.473428 0)
(2.78286 -0.477387 0)
(2.79389 -0.487012 0)
(2.80521 -0.497346 0)
(2.80976 -0.501024 0)
(2.81235 -0.502453 0)
(2.81492 -0.50425 0)
(2.81438 -0.504662 0)
(2.80666 -0.499927 0)
(2.79356 -0.489091 0)
(2.78798 -0.481242 0)
(2.78968 -0.477594 0)
(2.79217 -0.474652 0)
(2.79601 -0.471663 0)
(2.80331 -0.467493 0)
(2.81234 -0.463969 0)
(2.81944 -0.463672 0)
(2.82293 -0.466403 0)
(2.82376 -0.469428 0)
(2.82488 -0.473376 0)
(2.82642 -0.478226 0)
(2.82753 -0.482924 0)
(2.82803 -0.486813 0)
(2.82754 -0.488771 0)
(2.8259 -0.487102 0)
(2.82291 -0.480807 0)
(2.81847 -0.470932 0)
(2.81637 -0.462843 0)
(2.81764 -0.458744 0)
(2.81924 -0.457002 0)
(2.82274 -0.455718 0)
(2.83032 -0.453168 0)
(2.83799 -0.452491 0)
(2.84272 -0.454912 0)
(2.84655 -0.458507 0)
(2.84961 -0.460997 0)
(2.85199 -0.461912 0)
(2.85489 -0.462756 0)
(2.85526 -0.462679 0)
(2.85209 -0.460257 0)
(2.84627 -0.454883 0)
(2.84249 -0.452243 0)
(2.8414 -0.452854 0)
(2.84037 -0.454142 0)
(2.83942 -0.454733 0)
(2.83965 -0.454613 0)
(2.84135 -0.454501 0)
(2.84382 -0.454663 0)
(2.84552 -0.454589 0)
(2.85047 -0.454323 0)
(2.86049 -0.452207 0)
(2.8736 -0.449179 0)
(2.88427 -0.445023 0)
(2.8888 -0.444049 0)
(2.54787 -0.725113 0)
(2.54756 -0.72674 0)
(2.54987 -0.72739 0)
(2.55107 -0.727494 0)
(2.55266 -0.728146 0)
(2.55284 -0.733293 0)
(2.54586 -0.751524 0)
(2.51976 -0.79168 0)
(2.50425 -0.822884 0)
(2.44672 -0.892329 0)
(2.42781 -0.92392 0)
(2.43031 -0.921257 0)
(2.41646 -0.928648 0)
(2.41524 -0.945065 0)
(2.41638 -0.944385 0)
(2.42153 -0.938689 0)
(2.4264 -0.933796 0)
(2.43135 -0.933346 0)
(2.43543 -0.934456 0)
(2.43695 -0.936144 0)
(2.43711 -0.941306 0)
(2.44087 -0.94416 0)
(2.44505 -0.943098 0)
(2.44956 -0.938105 0)
(2.45357 -0.936087 0)
(2.4579 -0.935482 0)
(2.46003 -0.935248 0)
(2.46234 -0.935567 0)
(2.46435 -0.935494 0)
(2.46571 -0.935164 0)
(2.46889 -0.934987 0)
(2.47287 -0.934373 0)
(2.47726 -0.932482 0)
(2.48157 -0.931082 0)
(2.48632 -0.930693 0)
(2.49052 -0.930963 0)
(2.49329 -0.931825 0)
(2.49437 -0.933389 0)
(2.49505 -0.933985 0)
(2.49766 -0.933623 0)
(2.50128 -0.933255 0)
(2.50555 -0.931369 0)
(2.50925 -0.929177 0)
(2.5129 -0.928951 0)
(2.51629 -0.928583 0)
(2.51847 -0.927919 0)
(2.52053 -0.928533 0)
(2.52318 -0.929596 0)
(2.52701 -0.930442 0)
(2.53099 -0.931124 0)
(2.5348 -0.930849 0)
(2.53922 -0.929878 0)
(2.54269 -0.929083 0)
(2.5463 -0.929175 0)
(2.55003 -0.929235 0)
(2.55273 -0.92887 0)
(2.55311 -0.927559 0)
(2.5529 -0.924635 0)
(2.55605 -0.922955 0)
(2.55923 -0.922573 0)
(2.56198 -0.922163 0)
(2.5652 -0.921567 0)
(2.56835 -0.921033 0)
(2.57065 -0.921364 0)
(2.57294 -0.920998 0)
(2.5732 -0.918498 0)
(2.57458 -0.915867 0)
(2.57662 -0.91326 0)
(2.5791 -0.908869 0)
(2.58235 -0.903856 0)
(2.58471 -0.895704 0)
(2.58519 -0.883012 0)
(2.58532 -0.866192 0)
(2.58631 -0.845848 0)
(2.58796 -0.828629 0)
(2.58898 -0.812942 0)
(2.58823 -0.794775 0)
(2.58646 -0.777269 0)
(2.58697 -0.766931 0)
(2.58591 -0.745311 0)
(2.57698 -0.710349 0)
(2.57684 -0.682787 0)
(2.57561 -0.671325 0)
(2.57444 -0.655249 0)
(2.57474 -0.652132 0)
(2.57735 -0.654659 0)
(2.58253 -0.652552 0)
(2.58464 -0.650563 0)
(2.58586 -0.64519 0)
(2.58488 -0.638214 0)
(2.58449 -0.635928 0)
(2.58666 -0.634381 0)
(2.59103 -0.631147 0)
(2.59272 -0.629201 0)
(2.59464 -0.626173 0)
(2.59647 -0.623787 0)
(2.59838 -0.623563 0)
(2.60222 -0.622874 0)
(2.60574 -0.620214 0)
(2.60804 -0.616493 0)
(2.60858 -0.615483 0)
(2.61044 -0.61409 0)
(2.61204 -0.611597 0)
(2.61396 -0.60822 0)
(2.61529 -0.606722 0)
(2.61811 -0.604676 0)
(2.61995 -0.601786 0)
(2.61944 -0.599314 0)
(2.61854 -0.598026 0)
(2.61944 -0.597115 0)
(2.61963 -0.595487 0)
(2.62084 -0.5911 0)
(2.62227 -0.583861 0)
(2.62489 -0.580171 0)
(2.62837 -0.577715 0)
(2.63191 -0.576292 0)
(2.63442 -0.575594 0)
(2.63662 -0.576569 0)
(2.63827 -0.578524 0)
(2.63858 -0.580106 0)
(2.64055 -0.58001 0)
(2.64299 -0.578375 0)
(2.64469 -0.575681 0)
(2.64536 -0.57114 0)
(2.64542 -0.56424 0)
(2.64615 -0.558305 0)
(2.64804 -0.55502 0)
(2.65113 -0.552889 0)
(2.656 -0.551732 0)
(2.66026 -0.551537 0)
(2.66424 -0.552684 0)
(2.66955 -0.556034 0)
(2.6755 -0.562523 0)
(2.67964 -0.568949 0)
(2.68096 -0.571377 0)
(2.68215 -0.573146 0)
(2.68223 -0.573471 0)
(2.68115 -0.570626 0)
(2.67928 -0.564273 0)
(2.67668 -0.556438 0)
(2.674 -0.548625 0)
(2.67194 -0.541472 0)
(2.67224 -0.536131 0)
(2.67452 -0.533123 0)
(2.67744 -0.531636 0)
(2.68101 -0.531772 0)
(2.68518 -0.533169 0)
(2.69023 -0.536048 0)
(2.69655 -0.542201 0)
(2.70233 -0.549402 0)
(2.70602 -0.552344 0)
(2.70868 -0.552633 0)
(2.71009 -0.552503 0)
(2.71071 -0.549859 0)
(2.70918 -0.543905 0)
(2.70496 -0.534358 0)
(2.70006 -0.524546 0)
(2.69885 -0.519169 0)
(2.70092 -0.517142 0)
(2.70352 -0.516601 0)
(2.70555 -0.516863 0)
(2.70825 -0.517174 0)
(2.71228 -0.518464 0)
(2.71764 -0.522228 0)
(2.72379 -0.526833 0)
(2.72735 -0.527877 0)
(2.7294 -0.527525 0)
(2.73136 -0.527372 0)
(2.7326 -0.526459 0)
(2.73155 -0.522609 0)
(2.72687 -0.514292 0)
(2.72249 -0.505468 0)
(2.7232 -0.501894 0)
(2.72512 -0.500662 0)
(2.7285 -0.499515 0)
(2.73347 -0.499283 0)
(2.73862 -0.50151 0)
(2.74472 -0.506794 0)
(2.75031 -0.512947 0)
(2.75311 -0.515409 0)
(2.7562 -0.516157 0)
(2.75894 -0.51645 0)
(2.75933 -0.514497 0)
(2.75514 -0.507354 0)
(2.74563 -0.493301 0)
(2.74041 -0.483148 0)
(2.74234 -0.480636 0)
(2.74496 -0.480263 0)
(2.7481 -0.480162 0)
(2.75098 -0.480779 0)
(2.755 -0.48255 0)
(2.76391 -0.488342 0)
(2.77719 -0.499042 0)
(2.78654 -0.505097 0)
(2.78919 -0.505924 0)
(2.79109 -0.506217 0)
(2.79306 -0.505778 0)
(2.7927 -0.502498 0)
(2.78567 -0.49223 0)
(2.77172 -0.475729 0)
(2.76545 -0.467952 0)
(2.76741 -0.466766 0)
(2.77026 -0.467224 0)
(2.77307 -0.467973 0)
(2.77603 -0.468473 0)
(2.77976 -0.469439 0)
(2.78593 -0.473525 0)
(2.79636 -0.484532 0)
(2.80794 -0.497972 0)
(2.81233 -0.503025 0)
(2.81441 -0.504676 0)
(2.8159 -0.506208 0)
(2.81524 -0.504944 0)
(2.81028 -0.498426 0)
(2.80127 -0.485544 0)
(2.79748 -0.474847 0)
(2.79946 -0.469753 0)
(2.80255 -0.46593 0)
(2.80841 -0.461918 0)
(2.8142 -0.459998 0)
(2.8165 -0.46045 0)
(2.81981 -0.462458 0)
(2.82183 -0.46549 0)
(2.82312 -0.46858 0)
(2.82437 -0.472996 0)
(2.82553 -0.478623 0)
(2.82621 -0.483247 0)
(2.82723 -0.485885 0)
(2.82861 -0.486404 0)
(2.82976 -0.484546 0)
(2.82949 -0.479662 0)
(2.82799 -0.471408 0)
(2.82709 -0.460828 0)
(2.82801 -0.451211 0)
(2.83032 -0.445371 0)
(2.83409 -0.4416 0)
(2.83799 -0.441666 0)
(2.84108 -0.444046 0)
(2.84406 -0.447642 0)
(2.84744 -0.453009 0)
(2.85035 -0.458695 0)
(2.85203 -0.461865 0)
(2.85441 -0.464331 0)
(2.85458 -0.464452 0)
(2.85182 -0.461121 0)
(2.84705 -0.454895 0)
(2.84349 -0.451413 0)
(2.84241 -0.450943 0)
(2.8423 -0.450571 0)
(2.84277 -0.449331 0)
(2.84436 -0.44771 0)
(2.84669 -0.446232 0)
(2.8491 -0.445011 0)
(2.8543 -0.442615 0)
(2.86401 -0.437997 0)
(2.876 -0.43328 0)
(2.88513 -0.434289 0)
(2.89044 -0.437574 0)
(2.54824 -0.719905 0)
(2.54983 -0.721423 0)
(2.55028 -0.722042 0)
(2.55071 -0.724073 0)
(2.54876 -0.731805 0)
(2.5358 -0.755031 0)
(2.52013 -0.787502 0)
(2.47821 -0.853102 0)
(2.45156 -0.8801 0)
(2.43896 -0.900099 0)
(2.41535 -0.928803 0)
(2.4089 -0.939535 0)
(2.41256 -0.933885 0)
(2.42106 -0.928831 0)
(2.42557 -0.92971 0)
(2.42788 -0.929665 0)
(2.43253 -0.928183 0)
(2.43633 -0.92717 0)
(2.4375 -0.928958 0)
(2.43888 -0.934611 0)
(2.44272 -0.936444 0)
(2.44619 -0.936352 0)
(2.45076 -0.934283 0)
(2.45465 -0.930426 0)
(2.4587 -0.92776 0)
(2.46139 -0.927175 0)
(2.46309 -0.927823 0)
(2.46467 -0.928949 0)
(2.46644 -0.929877 0)
(2.46907 -0.929781 0)
(2.47331 -0.930135 0)
(2.47831 -0.92883 0)
(2.48283 -0.926658 0)
(2.48763 -0.925809 0)
(2.49214 -0.925161 0)
(2.49533 -0.923663 0)
(2.49588 -0.921934 0)
(2.49591 -0.923334 0)
(2.49927 -0.925211 0)
(2.5022 -0.925887 0)
(2.50545 -0.925392 0)
(2.50997 -0.923977 0)
(2.51339 -0.922913 0)
(2.51753 -0.923381 0)
(2.52131 -0.924093 0)
(2.52416 -0.923946 0)
(2.52596 -0.92277 0)
(2.52806 -0.921839 0)
(2.53062 -0.920491 0)
(2.53455 -0.919189 0)
(2.53825 -0.918738 0)
(2.54221 -0.9185 0)
(2.54543 -0.918429 0)
(2.54883 -0.919662 0)
(2.55193 -0.921123 0)
(2.55485 -0.921782 0)