/*--------------------------------*- C++ -*----------------------------------*\
  =========                 |
  \\      /  F ield         | OpenFOAM: The Open Source CFD Toolbox
   \\    /   O peration     | Website:  https://openfoam.org
    \\  /    A nd           | Version:  7
     \\/     M anipulation  |
\*---------------------------------------------------------------------------*/
FoamFile
{
    version     2.0;
    format      ascii;
    class       volScalarField;
    location    "1.9";
    object      rho;
}
// * * * * * * * * * * * * * * * * * * * * * * * * * * * * * * * * * * * * * //

dimensions      [1 -3 0 0 0 0 0];

internalField   nonuniform List<scalar> 
4040
(
1.40001
1.40001
1.40001
1.40001
1.40001
1.40001
1.40001
1.40001
1.40001
1.40001
1.40001
1.40001
1.40001
1.40001
3.25823
5.35675
5.49456
5.57
5.65529
5.72418
5.77908
5.81776
5.84947
5.88332
1.40001
1.40001
1.40001
1.40001
1.40001
1.40001
1.40001
1.40001
1.40001
1.40001
1.40001
1.40001
1.40001
1.40001
3.17976
5.31643
5.48192
5.55768
5.64138
5.70755
5.75954
5.79317
5.81207
5.83074
1.40001
1.40001
1.40001
1.40001
1.40001
1.40001
1.40001
1.40001
1.40001
1.40001
1.40001
1.40001
1.40001
1.40001
3.01866
5.26422
5.45973
5.53495
5.61485
5.6729
5.71304
5.73317
5.74184
5.76259
1.40001
1.40001
1.40001
1.40001
1.40001
1.40001
1.40001
1.40001
1.40001
1.40001
1.40001
1.40001
1.40001
1.40001
2.78426
5.17877
5.43033
5.50369
5.58075
5.6353
5.67123
5.69004
5.6738
5.75005
1.40001
1.40001
1.40001
1.40001
1.40001
1.40001
1.40001
1.40001
1.40001
1.40001
1.40001
1.40001
1.40001
1.40001
2.49293
5.05072
5.40969
5.47629
5.54553
5.5888
5.59944
5.58794
5.47136
5.33608
1.40001
1.40001
1.40001
1.40001
1.40001
1.40001
1.40001
1.40001
1.40001
1.40001
1.40001
1.40001
1.40001
1.40001
2.13682
4.86371
5.41458
5.45868
5.51004
5.53891
5.52755
5.4953
5.38728
5.29422
1.40001
1.40001
1.40001
1.40001
1.40001
1.40001
1.40001
1.40001
1.40001
1.40001
1.40001
1.40001
1.40001
1.40001
1.7578
4.61741
5.4331
5.42724
5.46102
5.47904
5.45509
5.40866
5.31547
5.1984
1.40001
1.40001
1.40001
1.40001
1.40001
1.40001
1.40001
1.40001
1.40001
1.40001
1.40001
1.40001
1.40001
1.40001
1.44157
4.14682
5.41603
5.39183
5.40321
5.40337
5.37074
5.31694
5.23583
5.14502
1.40001
1.40001
1.40001
1.40001
1.40001
1.40001
1.40001
1.40001
1.40001
1.40001
1.40001
1.40001
1.40001
1.40001
1.40025
3.47174
5.2105
5.29424
5.31352
5.30884
5.27427
5.21822
5.13598
5.00614
1.40001
1.40001
1.40001
1.40001
1.40001
1.40001
1.40001
1.40001
1.40001
1.40001
1.40001
1.40001
1.40001
1.40001
1.4
2.73214
5.00988
5.25768
5.25984
5.24255
5.19839
5.12597
5.00913
4.80806
1.40001
1.40001
1.40001
1.40001
1.40001
1.40001
1.40001
1.40001
1.40001
1.40001
1.40001
1.40001
1.40001
1.40001
1.4
1.98808
4.75078
5.26576
5.22162
5.17623
5.11407
5.02243
4.87973
4.65044
1.40001
1.40001
1.40001
1.40001
1.40001
1.40001
1.40001
1.40001
1.40001
1.40001
1.40001
1.40001
1.40001
1.40001
1.4
1.47906
4.06735
5.18291
5.14624
5.09589
5.02507
4.92084
4.76276
4.53736
1.40001
1.40001
1.40001
1.40001
1.40001
1.40001
1.40001
1.40001
1.40001
1.40001
1.40001
1.40001
1.40001
1.40001
1.40001
1.40051
3.08529
5.03393
5.10065
5.05514
4.9649
4.84273
4.66986
4.44107
1.40001
1.40001
1.40001
1.40001
1.40001
1.40001
1.40001
1.40001
1.40001
1.40001
1.40001
1.40001
1.40001
1.40001
1.40001
1.4
2.0219
4.82329
5.13365
5.0142
4.90389
4.76507
4.59528
4.35421
1.40001
1.40001
1.40001
1.40001
1.40001
1.40001
1.40001
1.40001
1.40001
1.40001
1.40001
1.40001
1.40001
1.40001
1.40001
1.4
1.46443
4.00607
5.02755
4.90936
4.8274
4.69686
4.53124
4.29982
1.40001
1.40001
1.40001
1.40001
1.40001
1.40001
1.40001
1.40001
1.40001
1.40001
1.40001
1.40001
1.40001
1.40001
1.40001
1.4
1.40028
2.76386
4.81695
4.86541
4.80495
4.68306
4.50769
4.28304
1.40001
1.40001
1.40001
1.40001
1.40001
1.40001
1.40001
1.40001
1.40001
1.40001
1.40001
1.40001
1.40001
1.40001
1.40001
1.40001
1.4
1.68102
4.28204
4.91696
4.80386
4.66173
4.48467
4.2721
1.40001
1.40001
1.40001
1.40001
1.40001
1.40001
1.40001
1.40001
1.40001
1.40001
1.40001
1.40001
1.40001
1.40001
1.40001
1.40001
1.4
1.41002
3.1095
4.76068
4.75059
4.62386
4.46258
4.26596
1.40001
1.40001
1.40001
1.40001
1.40001
1.40001
1.40001
1.40001
1.40001
1.40001
1.40001
1.40001
1.40001
1.40001
1.40001
1.40001
1.40001
1.4
1.82752
4.31909
4.80137
4.63737
4.4671
4.27223
1.40001
1.40001
1.40001
1.40001
1.40001
1.40001
1.40001
1.40001
1.40001
1.40001
1.40001
1.40001
1.40001
1.40001
1.40001
1.40001
1.40001
1.4
1.42405
3.14331
4.67394
4.62112
4.45825
4.27541
1.40001
1.40001
1.40001
1.40001
1.40001
1.40001
1.40001
1.40001
1.40001
1.40001
1.40001
1.40001
1.40001
1.40001
1.40001
1.40001
1.40001
1.4
1.4001
1.83843
4.13509
4.66948
4.4903
4.31601
1.40001
1.40001
1.40001
1.40001
1.40001
1.40001
1.40001
1.40001
1.40001
1.40001
1.40001
1.40001
1.40001
1.40001
1.40001
1.40001
1.40001
1.40001
1.40001
1.42431
2.80579
4.53393
4.51183
4.34671
1.40001
1.40001
1.40001
1.40001
1.40001
1.40001
1.40001
1.40001
1.40001
1.40001
1.40001
1.40001
1.40001
1.40001
1.40001
1.40001
1.40001
1.40001
1.40001
1.40018
1.6815
3.78873
4.59832
4.41352
1.40001
1.40001
1.40001
1.40001
1.40001
1.40001
1.40001
1.40001
1.40001
1.40001
1.40001
1.40001
1.40001
1.40001
1.40001
1.40001
1.40001
1.40001
1.40001
1.40001
1.40994
2.32913
4.25
4.45584
1.40001
1.40001
1.40001
1.40001
1.40001
1.40001
1.40001
1.40001
1.40001
1.40001
1.40001
1.40001
1.40001
1.40001
1.40001
1.40001
1.40001
1.40001
1.40001
1.40001
1.40007
1.5125
3.14964
4.3953
1.40001
1.40001
1.40001
1.40001
1.40001
1.40001
1.40001
1.40001
1.40001
1.40001
1.40001
1.40001
1.40001
1.40001
1.40001
1.40001
1.40001
1.40001
1.40001
1.40001
1.40001
1.40213
1.84769
3.75117
1.40001
1.40001
1.40001
1.40001
1.40001
1.40001
1.40001
1.40001
1.40001
1.40001
1.40001
1.40001
1.40001
1.40001
1.40001
1.40001
1.40001
1.40001
1.40001
1.40001
1.40001
1.40001
1.42582
2.35176
1.40001
1.40001
1.40001
1.40001
1.40001
1.40001
1.40001
1.40001
1.40001
1.40001
1.40001
1.40001
1.40001
1.40001
1.40001
1.40001
1.40001
1.40001
1.40001
1.40001
1.40001
1.40001
1.40029
1.51886
1.40001
1.40001
1.40001
1.40001
1.40001
1.40001
1.40001
1.40001
1.40001
1.40001
1.40001
1.40001
1.40001
1.40001
1.40001
1.40001
1.40001
1.40001
1.40001
1.40001
1.40001
1.40001
1.40001
1.40275
1.40001
1.40001
1.40001
1.40001
1.40001
1.40001
1.40001
1.40001
1.40001
1.40001
1.40001
1.40001
1.40001
1.40001
1.40001
1.40001
1.40001
1.40001
1.40001
1.40001
1.40001
1.40001
1.40001
1.40002
1.40001
1.40001
1.40001
1.40001
1.40001
1.40001
1.40001
1.40001
1.40001
1.40001
1.40001
1.40001
1.40001
1.40001
1.40001
1.40001
1.40001
1.40001
1.40001
1.40001
1.40001
1.40001
1.40001
1.40001
1.40001
1.40001
1.40001
1.40001
1.40001
1.40001
1.40001
1.40001
1.40001
1.40001
1.40001
1.40001
1.40001
1.40001
1.40001
1.40001
1.40001
1.40001
1.40001
1.40001
1.40001
1.40001
1.40001
1.40001
1.40001
1.40001
1.40001
1.40001
1.40001
1.40001
1.40001
1.40001
1.40001
1.40001
1.40001
1.40001
1.40001
1.40001
1.40001
1.40001
1.40001
1.40001
1.40001
1.40001
1.40001
1.40001
1.40001
1.40001
1.40001
1.40001
1.40001
1.40001
1.40001
1.40001
1.40001
1.40001
1.40001
1.40001
1.40001
1.40001
1.40001
1.40001
1.40001
1.40001
1.40001
1.40001
1.40001
1.40001
1.40001
1.40001
1.40001
1.40001
1.40001
1.40001
1.40001
1.40001
1.40001
1.40001
1.40001
1.40001
1.40001
1.40001
1.40001
1.40001
1.40001
1.40001
1.40001
1.40001
1.40001
1.40001
1.40001
1.40001
1.40001
1.40001
1.40001
1.40001
1.40001
1.40001
1.40001
1.40001
1.40001
1.40001
1.40001
1.40001
1.40001
1.40001
1.40001
1.40001
1.40001
1.40001
1.40001
1.40001
1.40001
1.40001
1.40001
1.40001
1.40001
1.40001
1.40001
1.40001
1.40001
1.40001
1.40001
1.40001
1.40001
1.40001
1.40001
1.40001
1.40001
1.40001
1.40001
1.40001
1.40001
1.40001
1.40001
1.40001
1.40001
1.40001
1.40001
1.40001
1.40001
1.40001
1.40001
1.40001
1.40001
1.40001
1.40001
1.40001
1.40001
1.40001
1.40001
1.40001
1.40001
1.40001
1.40001
1.40001
1.40001
1.40001
1.40001
1.40001
1.40001
1.40001
1.40001
1.40001
1.40001
1.40001
1.40001
1.40001
1.40001
1.40001
1.40001
1.40001
1.40001
1.40001
1.40001
1.40001
1.40001
1.40001
1.40001
1.40001
1.40001
1.40001
1.40001
1.40001
1.40001
1.40001
1.40001
1.40001
1.40001
1.40001
1.40001
1.40001
1.40001
1.40001
1.40001
1.40001
1.40001
1.40001
1.40001
1.40001
1.40001
1.40001
1.40001
1.40001
1.40001
1.40001
1.40001
1.40001
1.40001
1.40001
1.40001
1.40001
1.40001
1.40001
1.40001
1.40001
4.79992
4.9997
5.14582
5.27397
5.081
5.1097
5.04482
5.07717
4.67062
3.81028
4.43578
3.60434
4.26766
3.53528
4.13288
3.55858
4.05333
3.58997
4.01693
3.6337
4.0087
3.6803
4.0194
3.7268
4.03148
3.76497
4.04539
3.80264
4.06359
3.84035
4.08026
3.87591
4.12727
3.93043
4.16672
3.97713
4.22917
4.03813
4.27271
4.08846
4.33639
4.16566
4.37884
4.24919
4.06226
4.29464
2.89881
4.1496
1.71576
3.33744
1.41428
1.99853
1.40014
1.44772
1.40001
1.40078
1.40001
1.40001
1.40001
1.40001
1.40001
1.40001
1.40001
1.40001
1.40001
1.40001
1.40001
1.40001
1.40001
1.40001
1.40001
1.40001
1.35506
0.63921
0.408404
0.31893
0.322193
0.386283
0.486255
0.59654
0.709064
0.783091
0.842919
0.893349
0.925176
0.956125
0.972181
0.977378
0.985825
1.00203
1.02337
1.04611
1.05357
1.05461
1.0495
1.03983
1.03867
1.04171
1.04461
1.04863
1.05553
1.06385
1.06788
1.06954
1.06967
1.06488
1.05622
1.05174
1.05024
1.05003
1.05254
1.05125
1.04654
1.04092
1.06809
1.23351
1.69622
2.33489
2.8987
3.19559
3.21962
3.13913
2.98629
2.92353
2.88197
2.84876
2.80604
2.75625
2.71463
2.68479
2.66234
2.65078
2.63035
2.59526
2.55594
2.50952
2.45546
2.40376
2.36809
2.3436
2.32351
2.31081
2.29461
2.26995
2.24131
2.19936
2.13061
2.06033
2.0228
2.00289
1.98698
1.97763
1.97737
1.97052
1.95321
1.92914
1.88236
1.80359
1.74617
1.72313
1.70831
1.69616
1.69067
1.69146
1.69203
1.66659
2.05638
1.30125
0.99869
0.829673
0.687219
0.680397
0.673113
0.655652
0.668227
0.696311
0.730454
0.786168
0.857525
0.911546
0.939958
0.953109
0.968781
0.994719
1.0266
1.05292
1.06608
1.07112
1.06761
1.06376
1.06287
1.06585
1.06944
1.0722
1.0774
1.08317
1.08398
1.08412
1.08308
1.0784
1.07063
1.06407
1.06132
1.06052
1.05774
1.05292
1.05594
1.1053
1.28299
1.59874
1.84455
2.07488
2.42992
2.72177
2.93442
3.02464
2.99111
2.96365
2.93799
2.91285
2.86167
2.81093
2.75378
2.70324
2.67037
2.6444
2.62053
2.59782
2.5683
2.53364
2.49279
2.44582
2.39642
2.35499
2.32824
2.30678
2.28754
2.26657
2.24189
2.20808
2.16251
2.10856
2.05516
2.02109
2.003
1.99006
1.97947
1.96327
1.94273
1.91713
1.88169
1.83445
1.78355
1.74294
1.72194
1.70889
1.70091
1.69785
1.69095
1.66336
2.53153
1.88529
1.44981
1.20293
1.01287
0.897318
0.847459
0.783531
0.730144
0.742229
0.763403
0.806012
0.869201
0.914819
0.940754
0.963818
0.993474
1.03057
1.0722
1.09712
1.11691
1.1312
1.13521
1.13147
1.12409
1.12475
1.12509
1.12254
1.12125
1.12123
1.11961
1.11756
1.11577
1.11227
1.10685
1.10324
1.10122
1.09963
1.09641
1.10385
1.16653
1.40951
1.7333
1.96023
1.99186
2.00258
2.06356
2.28284
2.62321
2.92556
3.04938
3.08652
3.05723
3.01373
2.96147
2.91059
2.85104
2.78698
2.72234
2.67431
2.64322
2.6183
2.59914
2.57539
2.54563
2.51346
2.47279
2.41999
2.36629
2.32904
2.30118
2.27244
2.24049
2.21234
2.19073
2.16805
2.1353
2.08815
2.04312
2.01462
1.99272
1.97094
1.94531
1.91321
1.87887
1.85496
1.83234
1.80205
1.76577
1.74346
1.72952
1.71482
1.70014
1.66894
2.85494
2.29652
1.89527
1.58686
1.35668
1.18814
1.09358
1.00939
0.923695
0.892486
0.860963
0.836885
0.842295
0.859218
0.881013
0.910249
0.952459
1.00061
1.04882
1.07983
1.10227
1.12605
1.15563
1.16579
1.16961
1.17823
1.17928
1.17714
1.17538
1.17202
1.16514
1.15643
1.15091
1.14767
1.14629
1.14318
1.14171
1.14271
1.15614
1.23897
1.51058
1.88759
2.04467
2.08452
2.07746
2.05594
2.05817
2.06808
2.17012
2.43011
2.74376
2.93675
3.01037
3.02356
3.04689
3.02881
2.97747
2.90998
2.82337
2.7394
2.67974
2.64949
2.63
2.61586
2.59694
2.56917
2.53699
2.494
2.43206
2.37137
2.33119
2.29967
2.27346
2.25387
2.23828
2.22189
2.20034
2.16821
2.11479
2.05708
2.0185
1.98819
1.95681
1.92725
1.90771
1.89288
1.87879
1.8621
1.83758
1.80243
1.77026
1.74621
1.72543
1.68623
3.06225
2.58477
2.22118
1.92537
1.65395
1.47985
1.34535
1.21936
1.11246
1.03577
0.976227
0.911371
0.876532
0.872888
0.877451
0.886479
0.903859
0.935784
0.971613
1.00927
1.0435
1.08319
1.12529
1.14965
1.16305
1.18028
1.19037
1.1952
1.20157
1.204
1.20146
1.19389
1.18475
1.17897
1.17341
1.16762
1.17027
1.195
1.33147
1.60995
1.98683
2.13937
2.14223
2.13438
2.12288
2.10797
2.07945
2.06468
2.04642
2.05181
2.1631
2.39154
2.68262
2.87475
2.99443
3.01431
3.02681
2.99592
2.92151
2.82415
2.71847
2.66795
2.64307
2.63109
2.62675
2.60871
2.58267
2.54925
2.49289
2.41268
2.35784
2.33155
2.3114
2.29518
2.2839
2.27128
2.25202
2.22624
2.17806
2.09965
2.03548
1.99963
1.97715
1.96347
1.95528
1.94787
1.93606
1.92124
1.90217
1.86882
1.81834
1.77276
1.74241
1.70519
3.2125
2.81771
2.46346
2.18798
1.93706
1.72645
1.56937
1.423
1.31007
1.2222
1.14478
1.0698
1.01564
0.979255
0.943384
0.927626
0.928885
0.916311
0.909171
0.917053
0.939255
0.978167
1.02665
1.08155
1.12113
1.15626
1.17627
1.18695
1.19348
1.20075
1.20305
1.20135
1.20163
1.20029
1.19714
1.19405
1.21713
1.39163
1.75379
2.03226
2.19323
2.18004
2.15257
2.13312
2.11807
2.10864
2.09125
2.06696
2.0431
2.02432
1.98326
1.99325
2.11239
2.36355
2.6448
2.83045
2.95926
2.96456
2.94372
2.88504
2.785
2.70792
2.6727
2.64818
2.63819
2.62616
2.60284
2.57702
2.53538
2.46275
2.39275
2.3581
2.33692
2.32008
2.31445
2.30892
2.28795
2.25889
2.21092
2.12852
2.0503
2.01845
2.00384
1.99303
1.99031
1.99088
1.98123
1.96575
1.9483
1.91705
1.858
1.79423
1.75583
1.72824
3.31488
2.98365
2.67636
2.38884
2.15064
1.94546
1.7746
1.62372
1.49022
1.38664
1.29366
1.21562
1.15603
1.09874
1.04366
0.993835
0.965681
0.93649
0.914431
0.916449
0.921711
0.929031
0.945749
0.979695
1.0266
1.07244
1.11114
1.14728
1.16517
1.18083
1.19472
1.19779
1.20049
1.20262
1.20893
1.24554
1.43622
1.87387
2.10952
2.19846
2.20632
2.18521
2.15999
2.1295
2.10381
2.09179
2.08072
2.06701
2.04735
2.02671
1.99898
1.94984
1.91395
1.94451
2.08419
2.32132
2.5856
2.78619
2.87179
2.86625
2.82044
2.76436
2.7129
2.67922
2.65575
2.63557
2.60915
2.58389
2.55281
2.50355
2.4357
2.38104
2.35429
2.33625
2.31778
2.29785
2.27665
2.25059
2.21444
2.15448
2.08759
2.05258
2.03732
2.02502
2.01692
2.01436
2.00891
1.99551
1.97298
1.93337
1.87218
1.81498
1.78479
1.76241
3.4091
3.11617
2.82906
2.55671
2.34097
2.13632
1.94503
1.79205
1.66828
1.54655
1.44474
1.35222
1.28906
1.22157
1.16265
1.1125
1.06918
1.0285
0.979451
0.95867
0.953206
0.941606
0.934435
0.938519
0.953537
0.972102
1.00249
1.04202
1.08557
1.12111
1.15156
1.17501
1.18779
1.20198
1.27638
1.50089
1.91963
2.2136
2.2285
2.22534
2.2124
2.18247
2.14572
2.11245
2.07879
2.0609
2.05106
2.04986
2.04396
2.02906
2.01181
1.97974
1.92104
1.87701
1.87176
1.9094
2.0331
2.26497
2.51469
2.71958
2.7686
2.76546
2.73098
2.70617
2.67622
2.65341
2.61989
2.59299
2.56281
2.52723
2.48137
2.42592
2.37244
2.33821
2.31588
2.29344
2.26895
2.24053
2.20629
2.17207
2.1364
2.09599
2.06559
2.05064
2.03917
2.02717
2.01097
1.98906
1.96052
1.92255
1.87872
1.8415
1.81939
1.79468
3.4847
3.22059
2.94964
2.70395
2.4954
2.29494
2.09433
1.95043
1.8192
1.69561
1.57463
1.49279
1.41802
1.34452
1.26805
1.21374
1.16544
1.11271
1.06314
1.0253
1.00216
0.976878
0.950687
0.948091
0.952713
0.948902
0.949282
0.957916
0.984023
1.0209
1.06251
1.10398
1.15032
1.23928
1.58493
1.94338
2.23634
2.27442
2.25286
2.23758
2.21749
2.18374
2.14429
2.10949
2.07406
2.04394
2.02987
2.0215
2.02541
2.02389
2.01245
1.9942
1.9546
1.88875
1.85351
1.8391
1.83728
1.87576
2.00031
2.22345
2.45979
2.63237
2.68791
2.67427
2.65347
2.62712
2.61267
2.60278
2.57384
2.54711
2.51517
2.47289
2.42018
2.36251
2.32086
2.29266
2.2662
2.2368
2.20862
2.18789
2.16829
2.14382
2.11063
2.07513
2.04834
2.02523
2.00076
1.97469
1.94677
1.91516
1.89366
1.87705
1.85988
1.82424
3.55105
3.30941
3.05956
2.83129
2.62965
2.43291
2.24345
2.09453
1.95641
1.82727
1.70814
1.62318
1.53719
1.45638
1.37945
1.32285
1.2687
1.21306
1.15582
1.11695
1.08464
1.05225
1.01508
0.994331
0.984244
0.965962
0.952041
0.946154
0.947847
0.954731
0.974743
1.01861
1.10552
1.47196
1.92205
2.1486
2.24566
2.24225
2.23596
2.22552
2.21146
2.19637
2.16294
2.12259
2.08065
2.04063
2.01994
2.01043
2.0106
2.02274
2.01304
1.99584
1.97001
1.92184
1.8631
1.83184
1.81875
1.81492
1.82003
1.859
1.96776
2.15399
2.35534
2.51614
2.60572
2.58093
2.57899
2.57373
2.58507
2.57144
2.54422
2.50862
2.46569
2.40764
2.34441
2.30399
2.27611
2.25049
2.22804
2.20781
2.18902
2.17034
2.1458
2.10742
2.06244
2.02605
1.99646
1.96728
1.93896
1.92321
1.91418
1.90397
1.89169
1.85458
3.61252
3.38663
3.15377
2.94394
2.75168
2.55245
2.37419
2.22885
2.08979
1.94943
1.83297
1.74431
1.65124
1.56543
1.48326
1.42505
1.36275
1.30558
1.25127
1.20963
1.16871
1.12529
1.08066
1.04795
1.02375
0.996834
0.971141
0.954653
0.95098
0.953735
0.963542
1.04797
1.34643
1.83231
1.97489
2.06926
2.10418
2.11782
2.13995
2.17203
2.19613
2.19852
2.17394
2.12894
2.08123
2.03933
2.0171
2.00697
2.00432
2.00831
2.00235
1.98769
1.96715
1.93701
1.89573
1.85242
1.82506
1.8074
1.79316
1.78907
1.79087
1.81453
1.89011
2.03232
2.22296
2.37291
2.47858
2.51045
2.52876
2.54918
2.54951
2.53074
2.49651
2.44358
2.37649
2.32837
2.29995
2.27876
2.26142
2.24118
2.21573
2.18705
2.15846
2.12457
2.08115
2.03583
1.99692
1.96725
1.95116
1.94207
1.93533
1.92758
1.91604
1.87977
3.66925
3.45848
3.24343
3.04764
2.86011
2.66505
2.50068
2.35438
2.21059
2.06054
1.95791
1.86123
1.76412
1.66205
1.58807
1.5273
1.45906
1.39426
1.33585
1.29932
1.25408
1.20894
1.16465
1.12795
1.09599
1.06266
1.03065
1.00158
0.98644
0.995231
1.07702
1.37609
1.79152
1.96545
1.95806
1.94006
1.93348
1.9558
2.00111
2.06308
2.11079
2.12706
2.12009
2.09455
2.06607
2.04329
2.02375
2.01652
2.00724
1.9901
1.97849
1.96736
1.95262
1.93268
1.91034
1.88568
1.85564
1.82232
1.78911
1.76374
1.7518
1.74745
1.74858
1.75892
1.80624
1.92565
2.08277
2.24769
2.35868
2.4535
2.51027
2.50484
2.48686
2.45537
2.40972
2.35593
2.32439
2.307
2.29149
2.27269
2.24991
2.21599
2.17168
2.12926
2.09139
2.05303
2.01582
1.99038
1.97502
1.96202
1.95192
1.94403
1.93357
1.89733
3.73191
3.52999
3.32743
3.14123
2.9573
2.77049
2.61349
2.47014
2.32149
2.175
2.07137
1.96932
1.86939
1.76332
1.69302
1.62234
1.55221
1.47989
1.42617
1.38536
1.33509
1.2851
1.23658
1.20561
1.16843
1.13469
1.09569
1.05896
1.04322
1.12458
1.44464
1.87449
2.04781
2.00363
1.94864
1.90743
1.88922
1.88504
1.88767
1.90814
1.9321
1.94686
1.9672
1.97756
1.99374
1.99895
1.99204
1.99134
1.97941
1.96237
1.95114
1.94712
1.93751
1.92197
1.91693
1.90362
1.87855
1.84218
1.79325
1.75537
1.73811
1.72657
1.71993
1.71748
1.71713
1.71404
1.7434
1.82054
1.94099
2.10298
2.25204
2.36464
2.42994
2.42945
2.41717
2.37913
2.35254
2.33723
2.31559
2.29203
2.27195
2.24312
2.20084
2.15221
2.10341
2.06313
2.03983
2.02562
2.00959
1.99008
1.96957
1.95516
1.94579
1.91337
3.78214
3.58726
3.40077
3.22336
3.04225
2.86643
2.71824
2.57664
2.42338
2.28696
2.18258
2.07804
1.96773
1.86275
1.79319
1.71739
1.64555
1.56621
1.5153
1.46736
1.41404
1.36295
1.31515
1.27854
1.23954
1.19915
1.15972
1.15013
1.24037
1.59044
1.99415
2.15184
2.13159
2.07052
1.99781
1.93627
1.89821
1.88144
1.8731
1.86829
1.86085
1.8608
1.8597
1.85454
1.8619
1.87608
1.88478
1.8975
1.91266
1.90575
1.88973
1.8859
1.89335
1.9123
1.91783
1.90755
1.88529
1.85113
1.80711
1.75975
1.73373
1.71878
1.70816
1.70061
1.69506
1.6883
1.6782
1.6573
1.65769
1.6981
1.80734
1.96867
2.13234
2.24965
2.34046
2.35156
2.3522
2.33872
2.31497
2.30087
2.27958
2.25344
2.22575
2.19276
2.1463
2.08708
2.05309
2.04078
2.02894
2.01459
1.99654
1.9759
1.95612
1.90882
3.8441
3.6522
3.47556
3.30563
3.12726
2.96102
2.81783
2.67893
2.52655
2.40003
2.2891
2.18058
2.06372
1.96988
1.89432
1.81209
1.73103
1.65213
1.60519
1.55007
1.49452
1.43464
1.38962
1.35088
1.30675
1.26357
1.24985
1.35776
1.74293
2.16561
2.28823
2.25025
2.18825
2.13046
2.08259
2.03489
1.97785
1.93183
1.89963
1.86796
1.84759
1.83903
1.82827
1.82716
1.81898
1.79366
1.76136
1.75596
1.76136
1.77649
1.78696
1.79989
1.81243
1.83016
1.85508
1.86395
1.85725
1.84089
1.81566
1.77319
1.73887
1.72403
1.70991
1.69564
1.68427
1.6709
1.65237
1.63482
1.61892
1.59342
1.58861
1.61568
1.71054
1.85076
2.01023
2.13072
2.24333
2.28749
2.29285
2.27519
2.26146
2.25442
2.24599
2.22335
2.18984
2.1439
2.09297
2.04421
2.02471
2.01749
2.00927
1.99429
1.97238
1.91597
3.90268
3.71989
3.54573
3.37896
3.21184
3.05504
2.91238
2.76944
2.62102
2.5018
2.39182
2.27918
2.1534
2.06874
1.98644
1.90456
1.81449
1.74166
1.69043
1.6275
1.56976
1.50922
1.4665
1.41798
1.36997
1.36565
1.50451
1.93857
2.36439
2.44017
2.38023
2.31902
2.26689
2.22943
2.19309
2.14048
2.06862
1.99937
1.95244
1.9159
1.8861
1.86024
1.83884
1.82069
1.80361
1.78723
1.76093
1.72384
1.70061
1.68594
1.68141
1.69082
1.70484
1.70775
1.72185
1.73768
1.74834
1.77057
1.77601
1.75586
1.73833
1.73264
1.71888
1.69835
1.68238
1.66286
1.64462
1.62671
1.60388
1.58357
1.56267
1.54366
1.54322
1.56549
1.62896
1.7253
1.85248
1.98168
2.10188
2.19046
2.20035
2.21355
2.20888
2.2089
2.2031
2.18728
2.1459
2.08419
2.03717
2.01201
2.0026
1.9981
1.98144
1.9321
3.98492
3.80793
3.63652
3.46761
3.30374
3.14983
3.00432
2.86122
2.72205
2.59925
2.48767
2.36747
2.24889
2.16419
2.08227
1.99777
1.89513
1.83083
1.77346
1.71128
1.64667
1.58499
1.53607
1.48479
1.49458
1.67007
2.15469
2.56007
2.61787
2.55533
2.4726
2.40475
2.36834
2.33215
2.28542
2.22819
2.16356
2.09301
2.03028
1.98658
1.95239
1.91983
1.89025
1.86284
1.83516
1.80362
1.763
1.72155
1.69143
1.67041
1.6628
1.65034
1.63253
1.61319
1.6057
1.60499
1.60474
1.62269
1.66303
1.68591
1.69576
1.69776
1.68789
1.66062
1.64618
1.64493
1.64255
1.62779
1.60538
1.57777
1.55055
1.53156
1.52401
1.51887
1.5103
1.50381
1.52615
1.58828
1.68858
1.82767
1.95645
2.07776
2.11801
2.15296
2.16197
2.15871
2.14754
2.12506
2.08193
2.02711
1.99756
1.98387
1.97347
1.94752
4.06556
3.89126
3.72085
3.54766
3.38269
3.23631
3.09146
2.94244
2.80713
2.69221
2.57799
2.45694
2.3414
2.25368
2.16912
2.08095
1.98769
1.92047
1.85583
1.78869
1.71537
1.65727
1.60008
1.63028
1.88691
2.41527
2.79807
2.82693
2.74331
2.64793
2.5751
2.50099
2.45352
2.40859
2.35898
2.30832
2.25384
2.18791
2.11449
2.05481
2.01159
1.97359
1.93703
1.90258
1.86962
1.83592
1.80064
1.76161
1.7196
1.68546
1.66192
1.64146
1.62245
1.60523
1.58369
1.55579
1.53641
1.52926
1.53406
1.55145
1.57287
1.58822
1.58612
1.57587
1.57331
1.57921
1.59158
1.60474
1.59906
1.583
1.56096
1.53795
1.5176
1.50518
1.49027
1.48186
1.47094
1.45695
1.46242
1.49747
1.56722
1.68193
1.8143
1.95302
2.02634
2.06634
2.09632
2.09644
2.08437
2.05152
2.01209
1.98519
1.98067
1.96889
4.14957
3.9706
3.80023
3.62949
3.46883
3.32142
3.17602
3.02494
2.89905
2.78615
2.66928
2.54152
2.43446
2.34939
2.25872
2.16139
2.07237
2.00932
1.93711
1.86652
1.79052
1.72248
1.76653
2.12974
2.70224
3.04575
3.02871
2.92646
2.81076
2.72535
2.65599
2.59649
2.5445
2.49382
2.44186
2.38885
2.33361
2.27171
2.20278
2.13731
2.08312
2.03733
1.99591
1.9573
1.92
1.88455
1.85083
1.81395
1.77006
1.72255
1.68042
1.65013
1.63
1.61235
1.59145
1.56484
1.53663
1.51312
1.4947
1.48485
1.48231
1.47954
1.47835
1.47386
1.46463
1.4704
1.49299
1.52321
1.55253
1.55664
1.54441
1.5156
1.49394
1.48727
1.48178
1.47551
1.46611
1.45247
1.43617
1.41823
1.40775
1.42056
1.46242
1.54647
1.66766
1.7954
1.89315
1.95061
2.00575
2.01787
2.00758
1.97974
1.9729
1.97038
4.21902
4.06701
3.88629
3.7204
3.56183
3.41198
3.26775
3.12268
2.99266
2.87282
2.75472
2.63132
2.53203
2.43928
2.34451
2.23857
2.16004
2.09396
2.01673
1.941
1.86558
1.9378
2.38511
2.99179
3.25972
3.25119
3.15282
3.02941
2.91811
2.82845
2.75519
2.69183
2.63538
2.58113
2.52563
2.4671
2.40524
2.341
2.27548
2.21215
2.15533
2.10417
2.05614
2.01138
1.97071
1.93331
1.89829
1.86323
1.82478
1.7816
1.73223
1.6793
1.63642
1.61627
1.60278
1.58615
1.56233
1.52932
1.49535
1.47705
1.46112
1.44741
1.43821
1.42336
1.39839
1.38996
1.39206
1.40399
1.42874
1.45747
1.46956
1.46614
1.45521
1.45214
1.45437
1.45208
1.44208
1.42873
1.41539
1.40106
1.38922
1.37891
1.36586
1.36511
1.38262
1.4314
1.52506
1.62738
1.72572
1.80921
1.89371
1.93092
1.93778
1.9423
4.1775
4.14939
3.98403
3.80775
3.65487
3.50909
3.35856
3.21116
3.0865
2.96689
2.84194
2.71768
2.62381
2.52669
2.43036
2.3239
2.24697
2.16648
2.09537
2.03225
2.13759
2.68222
3.32908
3.50644
3.44537
3.33596
3.23314
3.13983
3.04472
2.9425
2.85546
2.78505
2.7235
2.6642
2.6034
2.5399
2.47405
2.40699
2.34053
2.27828
2.22382
2.17621
2.13138
2.08586
2.03721
1.98417
1.93229
1.892
1.86158
1.83171
1.79655
1.75296
1.69759
1.64608
1.61385
1.59344
1.57822
1.55787
1.52826
1.49317
1.46236
1.44116
1.42425
1.40904
1.39436
1.37027
1.35106
1.34256
1.3415
1.34395
1.35577
1.37071
1.37427
1.37903
1.39674
1.41044
1.40978
1.40028
1.38418
1.37378
1.3677
1.36026
1.3521
1.34093
1.33468
1.33454
1.33686
1.35579
1.39887
1.4626
1.55605
1.66542
1.75636
1.84092
3.63065
4.14131
4.08568
3.91701
3.74862
3.59504
3.45047
3.31197
3.1825
3.05893
2.92214
2.80873
2.71783
2.62183
2.51322
2.41058
2.32461
2.24921
2.20094
2.38067
3.02337
3.67594
3.77768
3.68314
3.54585
3.41642
3.3276
3.2479
3.15676
3.05541
2.95981
2.87603
2.80422
2.73904
2.6756
2.61259
2.54827
2.48054
2.41013
2.34222
2.28232
2.23106
2.18536
2.1417
2.09675
2.04653
1.99164
1.93806
1.89237
1.85848
1.83279
1.80715
1.77133
1.71996
1.66054
1.61146
1.57936
1.56284
1.54955
1.52982
1.4991
1.46254
1.4313
1.41326
1.40008
1.37723
1.35238
1.33657
1.31928
1.30291
1.29214
1.28822
1.29115
1.29518
1.30289
1.32134
1.33913
1.34068
1.33103
1.31871
1.32077
1.3219
1.31854
1.32277
1.32667
1.32226
1.31502
1.30498
1.28441
1.27146
1.28267
1.32906
1.39875
1.54608
2.30104
3.79066
4.10227
4.0247
3.85805
3.6922
3.54692
3.40288
3.27028
3.15168
3.02591
2.90596
2.80023
2.70307
2.60148
2.49635
2.40101
2.38367
2.64646
3.43706
4.02606
4.01284
3.88871
3.75292
3.63316
3.53088
3.44256
3.35217
3.25431
3.15381
3.05629
2.96651
2.88686
2.81494
2.74708
2.68147
2.61646
2.54972
2.48041
2.41112
2.34564
2.28543
2.2295
2.17695
2.12889
2.08437
2.03944
1.99291
1.94478
1.89936
1.86359
1.83747
1.8121
1.77624
1.72779
1.66864
1.61521
1.58722
1.57109
1.55449
1.53438
1.50785
1.46465
1.4161
1.39311
1.38434
1.37155
1.34874
1.32071
1.301
1.28324
1.25888
1.24908
1.24921
1.2517
1.25167
1.25086
1.25042
1.2488
1.23858
1.23974
1.25009
1.26001
1.272
1.28539
1.29173
1.28856
1.28078
1.2699
1.24918
1.21917
1.21496
1.2194
1.267
1.5086
2.57716
3.87949
4.06044
3.97106
3.79987
3.64262
3.5075
3.37215
3.24069
3.11361
3.00681
2.89815
2.79929
2.68385
2.56272
2.59482
3.00111
3.83703
4.40154
4.41499
4.22859
4.01817
3.85525
3.74497
3.65209
3.55736
3.45651
3.3513
3.24709
3.14752
3.05338
2.96805
2.89175
2.82056
2.75152
2.68285
2.61362
2.54326
2.47217
2.40297
2.33878
2.27933
2.22318
2.17045
2.1232
2.0813
2.04153
1.99917
1.95163
1.90042
1.8524
1.81649
1.7912
1.76438
1.7285
1.68458
1.63577
1.60307
1.58464
1.56599
1.54297
1.50887
1.46032
1.41249
1.38501
1.37038
1.35743
1.34043
1.3167
1.28907
1.26129
1.23778
1.2286
1.22447
1.22087
1.21478
1.20954
1.19833
1.17301
1.15795
1.16194
1.17253
1.18665
1.20694
1.22804
1.23741
1.23636
1.23348
1.22324
1.20277
1.18395
1.1786
1.18081
1.40262
1.59288
2.80927
3.911
4.01893
3.92035
3.75726
3.60291
3.47131
3.33845
3.22071
3.10116
2.98625
2.88499
2.76141
2.82051
3.41487
4.33661
4.71645
4.63916
4.48077
4.312
4.15111
4.00579
3.88257
3.76879
3.6595
3.55165
3.44417
3.33715
3.23067
3.12833
3.03665
2.95714
2.88541
2.81673
2.74765
2.67621
2.60194
2.52633
2.45282
2.38566
2.32563
2.27048
2.21756
2.16635
2.12021
2.07948
2.04003
1.99756
1.95098
1.90129
1.85064
1.8038
1.76832
1.74583
1.72494
1.69587
1.65946
1.61513
1.56839
1.53144
1.51583
1.49924
1.46753
1.42681
1.39341
1.37302
1.35839
1.34008
1.31037
1.27375
1.24175
1.22761
1.2191
1.20948
1.19957
1.18984
1.17839
1.15382
1.11652
1.10777
1.10865
1.11174
1.12042
1.13592
1.15721
1.16945
1.17166
1.16519
1.15384
1.14767
1.14659
1.1459
1.40002
1.40652
1.69118
2.9836
3.91385
3.97161
3.8749
3.71373
3.56622
3.43633
3.31795
3.19497
3.09125
2.97238
3.10403
3.89442
4.84319
5.17099
5.07723
4.81398
4.56945
4.40358
4.2639
4.13313
4.00512
3.88029
3.75947
3.64425
3.53361
3.42468
3.31458
3.20474
3.10336
3.01774
2.9452
2.87852
2.81219
2.74228
2.66573
2.58363
2.50236
2.42907
2.367
2.3143
2.26581
2.21619
2.165
2.11235
2.05942
2.01256
1.97386
1.93609
1.89185
1.8432
1.79891
1.76401
1.74091
1.72339
1.69471
1.64773
1.59427
1.55219
1.52064
1.4992
1.48208
1.46066
1.43769
1.4108
1.37557
1.33509
1.29659
1.26803
1.25146
1.23891
1.22672
1.21467
1.20142
1.1875
1.17123
1.14535
1.11012
1.09377
1.08794
1.08048
1.07789
1.08075
1.0886
1.09496
1.09692
1.09345
1.08246
1.08085
1.0832
1.09363
1.40001
1.40006
1.41324
1.78938
3.11504
3.90011
3.92133
3.83198
3.66824
3.53838
3.40938
3.2967
3.20454
3.45206
4.47046
5.39843
5.448
5.33808
5.16883
4.95595
4.73009
4.54558
4.38548
4.24204
4.11023
3.9837
3.85942
3.73817
3.62085
3.50538
3.38993
3.27749
3.17405
3.08369
3.00537
2.93407
2.86478
2.79496
2.72189
2.64385
2.56263
2.48138
2.40558
2.3417
2.29036
2.24398
2.19764
2.15003
2.10031
2.04957
2.00051
1.95514
1.91403
1.87785
1.84274
1.80219
1.75483
1.71257
1.68627
1.66365
1.63501
1.59652
1.54755
1.51998
1.50704
1.49416
1.47258
1.44007
1.39333
1.35004
1.31583
1.28442
1.25848
1.24673
1.23894
1.23228
1.22167
1.20311
1.17776
1.14324
1.10731
1.0925
1.08368
1.07539
1.06808
1.06467
1.06016
1.05416
1.04493
1.02762
1.00646
1.00039
1.00071
1.01394
1.40001
1.40001
1.40014
1.42272
1.88048
3.20379
3.86267
3.88459
3.78481
3.64039
3.50386
3.42369
3.88132
5.05755
5.91168
6.04152
5.77007
5.44483
5.22644
5.05588
4.87692
4.68755
4.50549
4.34429
4.20224
4.07155
3.94607
3.82325
3.70233
3.5829
3.46594
3.3543
3.25033
3.15446
3.06636
2.98454
2.90585
2.82986
2.75923
2.69188
2.62062
2.54098
2.45733
2.38131
2.31825
2.26334
2.21343
2.16931
2.12834
2.08347
2.03381
1.99139
1.95928
1.92326
1.87848
1.82818
1.77509
1.7292
1.69815
1.68122
1.66519
1.63505
1.59303
1.55374
1.51791
1.48396
1.45375
1.43197
1.41759
1.39445
1.36255
1.32639
1.29969
1.28346
1.26725
1.24515
1.21961
1.19205
1.16011
1.13476
1.12547
1.11485
1.1016
1.08782
1.07325
1.05759
1.0465
1.03625
1.02272
1.00443
0.98249
0.965349
0.958518
0.960869
1.40001
1.40001
1.40001
1.4003
1.43321
1.96387
3.22478
3.84974
3.8482
3.74953
3.65091
4.2406
5.83626
6.29479
6.23376
6.11047
5.88568
5.58442
5.32387
5.13335
4.9642
4.79416
4.61927
4.4481
4.28912
4.14556
4.01443
3.89032
3.76954