/*--------------------------------*- C++ -*----------------------------------*\
  =========                 |
  \\      /  F ield         | OpenFOAM: The Open Source CFD Toolbox
   \\    /   O peration     | Website:  https://openfoam.org
    \\  /    A nd           | Version:  7
     \\/     M anipulation  |
\*---------------------------------------------------------------------------*/
FoamFile
{
    version     2.0;
    format      ascii;
    class       volScalarField;
    location    "1.9";
    object      T;
}
// * * * * * * * * * * * * * * * * * * * * * * * * * * * * * * * * * * * * * //

dimensions      [0 0 0 1 0 0 0];

internalField   nonuniform List<scalar> 
4040
(
1
1
1
1
1
1
1
1
1
1
1
1
1
1
2.06251
2.72946
2.74815
2.75645
2.76838
2.78276
2.8021
2.82287
2.83961
2.84988
1
1
1
1
1
1
1
1
1
1
1
1
1
1
2.0383
2.72196
2.74621
2.75409
2.7656
2.77944
2.79805
2.8179
2.83326
2.84272
1
1
1
1
1
1
1
1
1
1
1
1
1
1
1.97723
2.70816
2.74253
2.74935
2.75964
2.77164
2.78759
2.80553
2.82295
2.83815
1
1
1
1
1
1
1
1
1
1
1
1
1
1
1.87824
2.6801
2.73535
2.74056
2.74996
2.76158
2.7775
2.79703
2.81715
2.85182
1
1
1
1
1
1
1
1
1
1
1
1
1
1
1.74082
2.63213
2.72194
2.72739
2.73661
2.74795
2.76267
2.77625
2.77398
2.78462
1
1
1
1
1
1
1
1
1
1
1
1
1
1
1.54355
2.54906
2.70011
2.71042
2.72088
2.7317
2.74305
2.75229
2.74805
2.7637
1
1
1
1
1
1
1
1
1
1
1
1
1
1
1.26634
2.42422
2.67514
2.68783
2.7014
2.71197
2.719
2.72487
2.72316
2.73115
1
1
1
1
1
1
1
1
1
1
1
1
1
1
1.02149
2.29439
2.66462
2.66837
2.67857
2.68796
2.69012
2.69326
2.69391
2.7047
1
1
1
1
1
1
1
1
1
1
1
1
1
1
1.00011
2.10721
2.62275
2.64432
2.65437
2.66075
2.65936
2.65907
2.65751
2.65419
1
1
1
1
1
1
1
1
1
1
1
1
1
1
0.999999
1.80707
2.54862
2.62848
2.63781
2.63806
2.63471
2.62809
2.6159
2.59156
1
1
1
1
1
1
1
1
1
1
1
1
1
1
1
1.37867
2.40498
2.60518
2.61333
2.61294
2.60806
2.5965
2.57587
2.54036
1
1
1
1
1
1
1
1
1
1
1
1
1
1
1
1.03933
2.22247
2.5621
2.58222
2.58207
2.5773
2.56407
2.53915
2.50093
1
1
1
1
1
1
1
1
1
1
1
1
1
1
1
1.00026
1.90281
2.48804
2.55777
2.55532
2.5472
2.5322
2.50544
2.46561
1
1
1
1
1
1
1
1
1
1
1
1
1
1
1
0.999999
1.36693
2.3443
2.53139
2.51925
2.5118
2.49682
2.47265
2.43103
1
1
1
1
1
1
1
1
1
1
1
1
1
1
1
1
1.03146
2.16537
2.48502
2.47022
2.47098
2.4605
2.43901
2.40083
1
1
1
1
1
1
1
1
1
1
1
1
1
1
1
1
1.00015
1.73688
2.38391
2.44863
2.44435
2.43189
2.40906
2.37406
1
1
1
1
1
1
1
1
1
1
1
1
1
1
1
1
1
1.1486
2.18761
2.43024
2.41982
2.40494
2.38171
2.34917
1
1
1
1
1
1
1
1
1
1
1
1
1
1
1
1
1
1.00466
1.8426
2.34346
2.39322
2.3773
2.35638
2.32668
1
1
1
1
1
1
1
1
1
1
1
1
1
1
1
1
1
1
1.22608
2.14882
2.36878
2.34983
2.33178
2.30549
1
1
1
1
1
1
1
1
1
1
1
1
1
1
1
1
1
1
1.01108
1.81702
2.28846
2.31777
2.30214
2.28045
1
1
1
1
1
1
1
1
1
1
1
1
1
1
1
1
1
1
1.00004
1.22642
2.082
2.29382
2.27366
2.2586
1
1
1
1
1
1
1
1
1
1
1
1
1
1
1
1
1
1
1
1.01098
1.66028
2.18168
2.25088
2.23274
1
1
1
1
1
1
1
1
1
1
1
1
1
1
1
1
1
1
1
1.00006
1.13968
1.95264
2.22724
2.20689
1
1
1
1
1
1
1
1
1
1
1
1
1
1
1
1
1
1
1
1
1.0042
1.43971
2.05916
2.18563
1
1
1
1
1
1
1
1
1
1
1
1
1
1
1
1
1
1
1
1
1.00002
1.05214
1.74307
2.12484
1
1
1
1
1
1
1
1
1
1
1
1
1
1
1
1
1
1
1
1
1
1.00079
1.2178
1.90676
1
1
1
1
1
1
1
1
1
1
1
1
1
1
1
1
1
1
1
1
1
1
1.01094
1.43386
1
1
1
1
1
1
1
1
1
1
1
1
1
1
1
1
1
1
1
1
1
1
1.00009
1.05377
1
1
1
1
1
1
1
1
1
1
1
1
1
1
1
1
1
1
1
1
1
1
1
1.00098
1
1
1
1
1
1
1
1
1
1
1
1
1
1
1
1
1
1
1
1
1
1
1
1
1
1
1
1
1
1
1
1
1
1
1
1
1
1
1
1
1
1
1
1
1
1
1
1
1
1
1
1
1
1
1
1
1
1
1
1
1
1
1
1
1
1
1
1
1
1
1
1
1
1
1
1
1
1
1
1
1
1
1
1
1
1
1
1
1
1
1
1
1
1
1
1
1
1
1
1
1
1
1
1
1
1
1
1
1
1
1
1
1
1
1
1
1
1
1
1
1
1
1
1
1
1
1
1
1
1
1
1
1
1
1
1
1
1
1
1
1
1
1
1
1
1
1
1
1
1
1
1
1
1
1
1
1
1
1
1
1
1
1
1
1
1
1
1
1
1
1
1
1
1
1
1
1
1
1
1
1
1
1
1
1
1
1
1
1
1
1
1
1
1
1
1
1
1
1
1
1
1
1
1
1
1
1
1
1
1
1
1
1
1
1
1
1
1
1
1
1
1
1
1
1
1
1
1
1
1
1
1
1
1
1
1
1
1
1
1
1
1
1
1
1
1
1
1
1
1
1
1
1
1
1
1
1
1
1
1
1
1
1
1
2.72276
2.77173
2.7849
2.8325
2.7575
2.79729
2.74481
2.82677
2.6331
2.55748
2.54354
2.40845
2.47552
2.32422
2.42286
2.29626
2.38798
2.28478
2.36432
2.2812
2.34532
2.27705
2.32769
2.2704
2.30854
2.25922
2.29005
2.24638
2.2726
2.23351
2.25275
2.2194
2.23672
2.20801
2.21399
2.19043
2.19068
2.17053
2.1625
2.14453
2.14228
2.12676
2.11888
2.10703
1.97302
2.08814
1.62682
1.99371
1.14901
1.74736
1.00563
1.27415
1.00004
1.02
1
1.00025
1
1
1
1
1
1
1
1
1
1
1
1
1
1
1
1
1.79765
1.33443
1.23124
1.27011
1.30674
1.3906
1.43863
1.48996
1.56829
1.66927
1.73092
1.72959
1.70847
1.70337
1.70837
1.73194
1.74916
1.74522
1.72954
1.72476
1.72582
1.73175
1.73129
1.72452
1.71081
1.70031
1.69808
1.70032
1.7086
1.71463
1.71441
1.71179
1.70847
1.70486
1.70282
1.7026
1.70228
1.70136
1.70191
1.70072
1.69718
1.69853
1.71991
1.84026
2.09858
2.37677
2.58188
2.69297
2.67655
2.63507
2.57887
2.55004
2.52302
2.49872
2.47508
2.45136
2.43013
2.41258
2.39849
2.38951
2.37731
2.36044
2.34225
2.32116
2.29685
2.27354
2.25707
2.24597
2.23728
2.2317
2.22454
2.21434
2.2035
2.18856
2.16382
2.1382
2.12521
2.11968
2.11632
2.11549
2.11832
2.11869
2.1155
2.10831
2.09084
2.05876
2.03489
2.02605
2.02092
2.01723
2.01623
2.01821
2.02009
2.01202
2.01399
1.70097
1.57853
1.53714
1.47754
1.43332
1.37594
1.37072
1.3961
1.44859
1.48191
1.51288
1.54369
1.568
1.59182
1.62006
1.64347
1.65358
1.65603
1.66078
1.66753
1.67756
1.68007
1.67931
1.67352
1.66966
1.66898
1.67048
1.6774
1.68372
1.68389
1.68281
1.68038
1.67804
1.67686
1.67668
1.67746
1.67755
1.67582
1.67183
1.67634
1.71254
1.83121
1.99715
2.08867
2.15709
2.29728
2.41723
2.48956
2.52072
2.51269
2.50069
2.48441
2.46776
2.44715
2.42808
2.4055
2.38389
2.36843
2.35613
2.3447
2.33359
2.31993
2.30448
2.28684
2.2672
2.24722
2.23044
2.21932
2.21055
2.20297
2.19539
2.18743
2.17688
2.16153
2.14227
2.12359
2.11315
2.10885
2.10654
2.10529
2.10188
2.09654
2.08894
2.07691
2.0592
2.03873
2.02235
2.0144
2.00998
2.0081
2.00856
2.00708
1.99762
2.07311
1.88019
1.72644
1.63206
1.53631
1.45408
1.4077
1.36491
1.33858
1.3499
1.36456
1.38445
1.4143
1.4386
1.45874
1.48094
1.5066
1.53107
1.55435
1.56921
1.58299
1.59739
1.60839
1.6085
1.60653
1.60692
1.6068
1.60615
1.60811
1.61283
1.61585
1.61635
1.61662
1.61676
1.61714
1.6191
1.62336
1.62536
1.62444
1.63265
1.67452
1.81799
1.96669
2.04635
2.02713
2.00154
2.01648
2.10488
2.23617
2.34371
2.39425
2.40924
2.40657
2.4008
2.38757
2.3708
2.35226
2.33224
2.31161
2.29592
2.28523
2.27511
2.26631
2.25655
2.24585
2.23484
2.22084
2.20184
2.18172
2.16807
2.15926
2.15128
2.1427
2.13544
2.12992
2.12337
2.11375
2.0992
2.08528
2.07727
2.07119
2.0648
2.057
2.04714
2.0364
2.02919
2.02185
2.01067
1.99586
1.98707
1.98227
1.97754
1.97273
1.96293
2.11957
1.96549
1.84297
1.73266
1.63719
1.55639
1.50653
1.45356
1.40177
1.38156
1.36124
1.34299
1.34587
1.35446
1.36392
1.37912
1.40257
1.42981
1.4573
1.47686
1.49143
1.50718
1.52551
1.5354
1.54241
1.55003
1.55081
1.54994
1.55068
1.55235
1.55211
1.55049
1.55039
1.55099
1.55251
1.55439
1.55723
1.56194
1.57541
1.62809
1.77424
1.94187
1.98972
1.98404
1.97239
1.9568
1.94964
1.94403
1.98279
2.08221
2.19197
2.25407
2.28349
2.30353
2.32415
2.32201
2.3081
2.28742
2.26293
2.24009
2.22291
2.21246
2.20382
2.19745
2.19089
2.18292
2.17373
2.16014
2.13896
2.11817
2.10638
2.09859
2.09266
2.08851
2.08574
2.08289
2.07808
2.06995
2.05458
2.03619
2.02364
2.01349
2.00275
1.99301
1.98775
1.98452
1.98145
1.97598
1.96613
1.95135
1.93841
1.93013
1.92384
1.91239
2.15358
2.02407
1.91886
1.8237
1.72238
1.65489
1.59899
1.54
1.4829
1.43879
1.40173
1.36319
1.34349
1.34275
1.34262
1.34588
1.35511
1.371
1.38957
1.41035
1.42816
1.44703
1.46649
1.47966
1.48978
1.50178
1.5076
1.51022
1.51343
1.51735
1.51844
1.51706
1.51464
1.5132
1.51087
1.51094
1.51505
1.53216
1.61442
1.75377
1.9161
1.9701
1.96296
1.95548
1.94887
1.94119
1.92754
1.91743
1.90634
1.90546
1.95024
2.03583
2.13262
2.19679
2.24029
2.26031
2.26654
2.25729
2.23654
2.20968
2.18092
2.16509
2.15475
2.14798
2.14503
2.13914
2.13217
2.12285
2.1051
2.07822
2.06081
2.05411
2.04953
2.04618
2.04442
2.04248
2.03857
2.03315
2.02031
1.99461
1.97198
1.95921
1.9511
1.94658
1.9446
1.94326
1.94023
1.93522
1.92725
1.91268
1.89174
1.87417
1.86466
1.85415
2.17994
2.07679
1.97677
1.89149
1.80708
1.73401
1.67477
1.61191
1.55968
1.5181
1.47952
1.43927
1.4089
1.38838
1.36816
1.35814
1.35821
1.35051
1.34529
1.34929
1.36098
1.38078
1.40484
1.43152
1.4511
1.46898
1.47891
1.48391
1.4871
1.49106
1.4947
1.49616
1.49879
1.49842
1.49634
1.49708
1.51166
1.61129
1.7911
1.90275
1.9617
1.95622
1.94518
1.93743
1.92974
1.92398
1.91579
1.90484
1.89288
1.88281
1.86485
1.86904
1.91975
2.01435
2.10853
2.16945
2.21147
2.21422
2.20899
2.19453
2.16794
2.1435
2.13023
2.11998
2.11481
2.10989
2.10278
2.09558
2.08304
2.0595
2.03623
2.0258
2.02035
2.01631
2.01593
2.01547
2.00995
2.00236
1.98847
1.96143
1.93361
1.92179
1.91564
1.91069
1.90919
1.90904
1.90513
1.89952
1.89232
1.87834
1.85309
1.8268
1.81402
1.8067
2.19339
2.11145
2.0287
1.94389
1.86928
1.80185
1.74054
1.68245
1.62874
1.58472
1.54142
1.50315
1.47461
1.4466
1.41746
1.38877
1.37108
1.35447
1.34163
1.34233
1.34445
1.34786
1.35575
1.3733
1.39842
1.42179
1.44116
1.45886
1.46704
1.47386
1.48052
1.48352
1.48692
1.48741
1.49022
1.51002
1.61333
1.82504
1.92226
1.95171
1.95749
1.95111
1.94315
1.93023
1.91664
1.90869
1.90233
1.89506
1.88504
1.87335
1.85926
1.83913
1.82432
1.83893
1.89686
1.98535
2.07456
2.13456
2.15973
2.16274
2.1521
2.13579
2.11851
2.10603
2.09682
2.08903
2.08041
2.07282
2.06312
2.04739
2.02554
2.0083
2.00072
1.99625
1.99114
1.98448
1.97754
1.96967
1.9587
1.93981
1.91707
1.90354
1.89648
1.88991
1.88466
1.88211
1.87889
1.87337
1.86431
1.84736
1.82079
1.79595
1.78494
1.77834
2.2021
2.13393
2.06073
1.98507
1.92244
1.8588
1.7944
1.73917
1.69353
1.64478
1.60204
1.56128
1.53355
1.5019
1.47179
1.44529
1.42235
1.40003
1.37348
1.36076
1.35633
1.3484
1.34396
1.3464
1.35412
1.36374
1.38071
1.40234
1.42515
1.44265
1.45729
1.46891
1.47466
1.48119
1.52158
1.63989
1.83352
1.953
1.95722
1.95747
1.95431
1.94599
1.9335
1.9181
1.89967
1.88779
1.88107
1.87761
1.87171
1.86184
1.85027
1.83378
1.80946
1.79248
1.78703
1.80214
1.85061
1.93584
2.01879
2.0829
2.10273
2.1073
2.09731
2.08822
2.07738
2.07024
2.06105
2.05262
2.04247
2.03083
2.01686
2.00057
1.98469
1.97439
1.96715
1.95928
1.95041
1.94065
1.93006
1.91994
1.90888
1.89473
1.88225
1.87394
1.86671
1.85989
1.8524
1.84334
1.83193
1.81601
1.7966
1.77905
1.76946
1.76078
2.20126
2.14345
2.07873
2.01576
1.95931
1.90077
1.83641
1.78849
1.74289
1.69745
1.64941
1.61631
1.58507
1.55291
1.51701
1.49052
1.46691
1.43987
1.41375
1.39271
1.37912
1.36384
1.34912
1.34692
1.34899
1.34624
1.34613
1.35066
1.36568
1.38636
1.40851
1.42909
1.45153
1.498
1.68765
1.84441
1.9633
1.97229
1.96394
1.95831
1.95151
1.93978
1.92419
1.90638
1.88478
1.86604
1.85672
1.85064
1.84885
1.84373
1.83263
1.81898
1.7995
1.7733
1.75754
1.74994
1.74282
1.75589
1.80157
1.88261
1.96493
2.02457
2.04624
2.04273
2.03672
2.03028
2.02878
2.02739
2.01951
2.01052
1.99993
1.98797
1.9743
1.95804
1.94503
1.9352
1.92524
1.91458
1.90567
1.90013
1.89492
1.88735
1.87513
1.8597
1.84605
1.83419
1.82343
1.81344
1.80304
1.79064
1.78051
1.77145
1.76273
1.74943
2.19736
2.14684
2.0907
2.0361
1.98494
1.93087
1.87449
1.82853
1.78325
1.73808
1.69399
1.66239
1.62861
1.59464
1.5604
1.53515
1.51072
1.48432
1.45517
1.43444
1.41719
1.39951
1.37919
1.36711
1.36156
1.35139
1.34366
1.34016
1.34068
1.34364
1.35379
1.37756
1.42717
1.63314
1.84161
1.92599
1.96625
1.96206
1.95329
1.94337
1.93463
1.92697
1.91207
1.89273
1.86909
1.84537
1.83175
1.8246
1.82239
1.82265
1.81241
1.79799
1.78229
1.76062
1.73713
1.72257
1.71357
1.70659
1.70259
1.71383
1.75444
1.82522
1.89813
1.95414
1.98327
1.97722
1.97834
1.9821
1.99019
1.98622
1.97798
1.96754
1.95614
1.94165
1.92461
1.91182
1.90162
1.89191
1.884
1.87838
1.87423
1.86972
1.86151
1.84612
1.82631
1.80954
1.79707
1.78662
1.77702
1.77124
1.76677
1.76106
1.75433
1.74123
2.19083
2.14548
2.09536
2.04808
2.00214
1.9503
1.901
1.85931
1.8166
1.77047
1.73044
1.69954
1.66454
1.63066
1.5968
1.57298
1.54623
1.52012
1.49414
1.47405
1.45418
1.43235
1.40895
1.39148
1.37863
1.36401
1.35037
1.34061
1.33751
1.33837
1.34267
1.39448
1.56993
1.80556
1.85975
1.89203
1.90609
1.90577
1.90509
1.90672
1.90634
1.90316
1.8892
1.86944
1.84715
1.82462
1.80947
1.80117
1.79617
1.79311
1.78483
1.77296
1.75944
1.74327
1.72444
1.70571
1.69201
1.68111
1.67142
1.6651
1.66044
1.66733
1.69516
1.75102
1.82112
1.87318
1.90891
1.92334
1.93179
1.94202
1.94303
1.93796
1.92935
1.91714
1.90047
1.88688
1.87739
1.86927
1.8627
1.85661
1.85051
1.84384
1.83572
1.82359
1.80627
1.78727
1.77166
1.76143
1.75663
1.75363
1.75099
1.74735
1.74172
1.72986
2.18247
2.142
2.09765
2.05549
2.01269
1.9646
1.92249
1.88305
1.84156
1.79465
1.76229
1.73029
1.69626
1.65811
1.63
1.60675
1.57896
1.55129
1.52501
1.50888
1.48824
1.46693
1.44542
1.42739
1.41145
1.394
1.37698
1.36029
1.35053
1.35541
1.40611
1.5836
1.78125
1.84785
1.84021
1.82613
1.81898
1.82516
1.8367
1.85228
1.85756
1.85569
1.84759
1.83333
1.81827
1.80348
1.7901
1.78183
1.77288
1.76209
1.75331
1.74439
1.73322
1.72031
1.70692
1.69393
1.67951
1.66362
1.64798
1.63577
1.62797
1.62173
1.61728
1.61711
1.63473
1.68335
1.74397
1.80423
1.84249
1.87649
1.88956
1.88831
1.8866
1.88265
1.87305
1.85891
1.84981
1.84381
1.83793
1.83195
1.82636
1.81816
1.80616
1.79287
1.77917
1.76475
1.7509
1.742
1.73743
1.73384
1.73082
1.728
1.72354
1.71266
2.17461
2.13746
2.09714
2.05855
2.01822
1.97443
1.93644
1.89985
1.8591
1.81607
1.78544
1.75349
1.72065
1.68354
1.65906
1.63336
1.60643
1.57716
1.55506
1.53859
1.51731
1.49532
1.47292
1.45878
1.4412
1.42464
1.40472
1.38484
1.37557
1.42846
1.61743
1.81069
1.86868
1.85006
1.82414
1.79986
1.78643
1.78046
1.77617
1.77793
1.77708
1.77236
1.77308
1.77068
1.76993
1.76542
1.75709
1.75112
1.74118
1.7307
1.72157
1.71462
1.7053
1.69561
1.6901
1.68038
1.66614
1.64852
1.62739
1.61112
1.60267
1.59553
1.58877
1.58295
1.57865
1.57432
1.58653
1.62081
1.67122
1.73048
1.77619
1.8107
1.82912
1.83571
1.83448
1.8273
1.82198
1.81769
1.81098
1.80444
1.79956
1.79209
1.78069
1.76606
1.75001
1.73635
1.72896
1.72468
1.72019
1.71487
1.70889
1.70427
1.70082
1.69248
2.16143
2.12844
2.09389
2.05843
2.02005
1.98068
1.94652
1.91191
1.87164
1.8342
1.80528
1.77443
1.74001
1.7056
1.68321
1.65702
1.63114
1.60094
1.58204
1.56399
1.54264
1.52147
1.50096
1.48527
1.46773
1.44837
1.42886
1.42414
1.47848
1.67343
1.84884
1.89349
1.88165
1.85464
1.82274
1.7949
1.77818
1.76787
1.75757
1.74464
1.73173
1.72257
1.71387
1.70251
1.69959
1.7003
1.69886
1.69659
1.69594
1.68954
1.67789
1.66995
1.66849
1.66969
1.66928
1.66136
1.64799
1.63144
1.61196
1.59191
1.57986
1.57197
1.56491
1.55825
1.55188
1.5459
1.54049
1.53233
1.53438
1.55231
1.59605
1.65395
1.70645
1.744
1.77295
1.781
1.78407
1.78022
1.77516
1.77354
1.76955
1.76316
1.75534
1.74524
1.73067
1.71233
1.70295
1.70011
1.69759
1.69415
1.68907
1.68247
1.67565
1.66222
2.14579
2.11705
2.08767
2.05663
2.0206
1.98508
1.95341
1.92116
1.88301
1.85055
1.82105
1.79073
1.75614
1.72782
1.7047
1.67761
1.64984
1.62184
1.60631
1.5867
1.56595
1.54229
1.52428
1.50856
1.48944
1.46965
1.46503
1.52796
1.73068
1.90536
1.92814
1.91
1.88194
1.85516
1.83216
1.80905
1.78332
1.76205
1.74412
1.72607
1.71016
1.6972
1.6844
1.67608
1.66547
1.64888
1.63206
1.62192
1.62105
1.62176
1.61973
1.61901
1.61841
1.62057
1.6251
1.62545
1.61941
1.60833
1.59579
1.57701
1.56113
1.55313
1.54564
1.53728
1.52935
1.52137
1.51312
1.50619
1.49989
1.48971
1.48506
1.49611
1.53427
1.58586
1.63947
1.67897
1.71578
1.72916
1.73311
1.72948
1.72971
1.73143
1.73015
1.72384
1.71381
1.70002
1.6847
1.67127
1.66756
1.66663
1.66467
1.65981
1.65186
1.63446
2.1246
2.10161
2.07648
2.04949
2.01871
1.98737
1.95732
1.92541
1.89029
1.86171
1.83423
1.80454
1.76859
1.74476
1.7204
1.69519
1.66615
1.64254
1.62656
1.60492
1.58446
1.56192
1.54607
1.52718
1.5058
1.50791
1.58414
1.79756
1.96385
1.96181
1.9383
1.91155
1.88677
1.86656
1.84712
1.82281
1.79212
1.76199
1.7396
1.72047
1.70264
1.68599
1.67131
1.65838
1.64505
1.63161
1.61469
1.59386
1.57921
1.56916
1.56115
1.55992
1.55899
1.55607
1.55877
1.56242
1.56301
1.56559
1.56499
1.55373
1.54196
1.53652
1.52904
1.51896
1.51007
1.50048
1.49242
1.48516
1.47647
1.46804
1.45862
1.44978
1.44684
1.45489
1.47874
1.51486
1.56018
1.6029
1.64228
1.67071
1.67761
1.68388
1.68701
1.69052
1.68916
1.68409
1.67163
1.65402
1.64144
1.63592
1.63437
1.63322
1.62692
1.61146
2.10844
2.08852
2.06669
2.04203
2.01506
1.98695
1.95826
1.92858
1.89829
1.87038
1.84375
1.81296
1.78093
1.75849
1.73594
1.71165
1.67963
1.66049
1.64309
1.6231
1.60148
1.57963
1.56261
1.54296
1.54902
1.64148
1.8592
2.01585
2.00742
1.97514
1.94243
1.91527
1.89544
1.87519
1.85227
1.82722
1.80031
1.77086
1.74332
1.72175
1.70343
1.68588
1.6689
1.6525
1.63601
1.6187
1.59909
1.57872
1.56122
1.54777
1.53908
1.52871
1.5159
1.50316
1.49575
1.49248
1.49149
1.49704
1.50902
1.51154
1.5098
1.50647
1.49954
1.48771
1.47985
1.47649
1.47329
1.46646
1.45804
1.44759
1.4366
1.42827
1.4233
1.41881
1.41319
1.40676
1.41452
1.43787
1.47433
1.52371
1.56946
1.6114
1.62824
1.64136
1.64592
1.64575
1.6433
1.63676
1.62523
1.61073
1.60368
1.60057
1.59718
1.58795
2.08888
2.07166
2.05271
2.03011
2.00584
1.98244
1.95664
1.92752
1.89944
1.87513
1.8492
1.81996
1.79076
1.7689
1.74675
1.72251
1.69552
1.67668
1.65773
1.63691
1.61268
1.59373
1.57542
1.5912
1.71298
1.92052
2.05689
2.05317
2.01861
1.97854
1.94872
1.91978
1.89685
1.87418
1.85049
1.82722
1.80348
1.77665
1.74725
1.72184
1.70192
1.68374
1.66567
1.64773
1.62973
1.61124
1.5928
1.57403
1.55435
1.53615
1.52178
1.50956
1.49838
1.48747
1.47425
1.45865
1.44673
1.44172
1.44288
1.44738
1.45044
1.4507
1.4459
1.43886
1.43648
1.43659
1.43738
1.44051
1.43818
1.43177
1.42273
1.41241
1.40282
1.39649
1.38968
1.38423
1.37636
1.36554
1.36269
1.3747
1.40299
1.44952
1.5013
1.55067
1.57462
1.58615
1.59583
1.59839
1.59576
1.58786
1.57793
1.57224
1.57189
1.56779
2.07076
2.05187
2.03481
2.01537
1.99487
1.97428
1.95166
1.92461
1.90081
1.87842
1.85359
1.82418
1.79927
1.77951
1.75683
1.73113
1.70691
1.69057
1.66987
1.64884
1.62496
1.60528
1.62798
1.78859
1.99191
2.0897
2.0808
2.04745
2.00802
1.97495
1.94698
1.92171
1.89771
1.87414
1.85071
1.82741
1.8036
1.77784
1.7502
1.72421
1.70222
1.68322
1.66574
1.64821
1.62956
1.61028
1.59171
1.57324
1.55339
1.53243
1.51261
1.49552
1.48265
1.47245
1.46145
1.44884
1.43528
1.42141
1.41006
1.40437
1.40149
1.39708
1.39153
1.38482
1.37792
1.37864
1.38553
1.3948
1.40317
1.40399
1.39881
1.38693
1.37701
1.37279
1.36918
1.36516
1.3588
1.34871
1.33671
1.32444
1.31797
1.32377
1.3433
1.38031
1.42917
1.4739
1.50497
1.52231
1.53973
1.54838
1.54644
1.53983
1.53953
1.54167
2.0607
2.04014
2.01868
2.00078
1.98264
1.96408
1.94446
1.92176
1.89976
1.87758
1.8541
1.82818
1.80721
1.78627
1.76363
1.73644
1.71705
1.70068
1.6796
1.65785
1.63804
1.67265
1.85904
2.05792
2.11884
2.11207
2.08058
2.04253
2.00653
1.9752
1.94747
1.92179
1.89737
1.87321
1.84907
1.82468
1.79959
1.77377
1.74771
1.72295
1.70107
1.68175
1.66364
1.64583
1.62809
1.61006
1.59196
1.57371
1.55427
1.53427
1.51353
1.49147
1.47138
1.45799
1.44863
1.43946
1.42768
1.41335
1.39817
1.38728
1.37775
1.37032
1.36421
1.35451
1.33976
1.33044
1.32956
1.3321
1.34019
1.34991
1.35339
1.35147
1.34662
1.34395
1.34252
1.33939
1.33327
1.32433
1.31413
1.30398
1.29617
1.29032
1.28428
1.28502
1.2942
1.31615
1.3546
1.39189
1.42467
1.45287
1.48188
1.49626
1.49908
1.50366
2.00471
2.02926
2.00898
1.98755
1.97064
1.95409
1.93494
1.91405
1.8956
1.87589
1.8534
1.82887
1.81025
1.78917
1.76792
1.74261
1.7251
1.70504
1.68657
1.67363
1.72066
1.93215
2.13039
2.15169
2.13183
2.09792
2.06607
2.03648
2.00629
1.97365
1.94419
1.91817
1.8935
1.86884
1.84405
1.81912
1.79381
1.76806
1.74259
1.71907
1.69904
1.68171
1.66495
1.64732
1.6279
1.60639
1.58412
1.56472
1.54904
1.53386
1.51678
1.49821
1.47674
1.45502
1.43852
1.42596
1.41694
1.40668
1.39308
1.37813
1.36475
1.35425
1.34585
1.33799
1.32897
1.31409
1.29945
1.29097
1.28874
1.28969
1.29438
1.29939
1.29999
1.30119
1.30691
1.30793
1.30625
1.29916
1.28771
1.27991
1.27514
1.27023
1.26501
1.25984
1.258
1.25839
1.25982
1.2679
1.28551
1.31045
1.34512
1.38504
1.4152
1.44891
1.80999
1.99637
1.99485
1.97712
1.95896
1.94201
1.92498
1.90726
1.88957
1.87159
1.84837
1.82796
1.81112
1.79223
1.76915
1.74658
1.72791
1.70981
1.70449
1.77739
1.99822
2.19085
2.18617
2.15852
2.12117
2.08355
2.0548
2.02865
2.00023
1.96918
1.939
1.91085
1.8849
1.86037
1.83649
1.81302
1.78915
1.76412
1.73845
1.71418
1.69318
1.67529
1.65903
1.64289
1.62539
1.60514
1.58263
1.5604
1.54075
1.52466
1.51119
1.4979
1.48208
1.46288
1.44033
1.4189
1.40172
1.39094
1.38289
1.37334
1.36102
1.34769
1.33482
1.32532
1.31781
1.3054
1.29122
1.27926
1.26666
1.25769
1.25347
1.25241
1.25329
1.25435
1.25666
1.26244
1.26584
1.26455
1.25566
1.24632
1.24564
1.244
1.23993
1.24052
1.24168
1.24016
1.23766
1.23396
1.22601
1.21797
1.22215
1.24221
1.27027
1.33449
1.38747
1.84519
1.97112
1.96567
1.94803
1.93017
1.91468
1.89744
1.88064
1.86521
1.84629
1.82639
1.80781
1.78998
1.76995
1.74876
1.72709
1.73121
1.83097
2.07673
2.22193
2.21108
2.1716
2.13597
2.10471
2.07567
2.04823
2.02016
1.99069
1.96056
1.93076
1.90233
1.87598
1.85139
1.82784
1.80488
1.7819
1.75828
1.73407
1.71039
1.68841
1.66833
1.64949
1.63122
1.61338
1.59563
1.57705
1.5578
1.53812
1.51945
1.50406
1.49208
1.48028
1.46417
1.4439
1.42121
1.39903
1.38427
1.37458
1.36555
1.35581
1.34629
1.3328
1.31448
1.3008
1.29369
1.28585
1.27336
1.25913
1.24791
1.23782
1.2271
1.22322
1.22327
1.22396
1.22331
1.2212
1.21847
1.21404
1.2054
1.20454
1.20677
1.20877
1.21156
1.21569
1.21833
1.21735
1.21476
1.21009
1.20027
1.18543
1.18263
1.18481
1.20928
1.04716
1.47944
1.85741
1.94785
1.9393
1.91901
1.90208
1.88859
1.87329
1.85676
1.83889
1.82313
1.80534
1.78919
1.76764
1.74699
1.76089
1.8974
2.12776
2.26209
2.2595
2.21414
2.1623
2.12251
2.094
2.06791
2.0403
2.01097
1.98072
1.95079
1.92184
1.89373
1.86724
1.84269
1.81928
1.7963
1.77331
1.75013
1.72683
1.7037
1.68146
1.66074
1.64122
1.62234
1.60396
1.58648
1.56979
1.55299
1.53515
1.51632
1.4972
1.47906
1.46368
1.45142
1.43915
1.42334
1.40481
1.38551
1.37135
1.3626
1.35474
1.34595
1.33304
1.3149
1.29645
1.28308
1.27355
1.26512
1.25561
1.24385
1.23148
1.21949
1.20858
1.20406
1.20223
1.20033
1.19668
1.19259
1.18565
1.17283
1.16429
1.16534
1.16884
1.17331
1.18014
1.18781
1.19076
1.19009
1.1882
1.18247
1.17213
1.16267
1.16128
1.16278
1.0009
1.08542
1.54679
1.85685
1.9258
1.91445
1.89435
1.87694
1.86351
1.84794
1.83328
1.81653
1.7994
1.78389
1.7668
1.7918
1.97584
2.20365
2.27431
2.25529
2.22339
2.18731
2.1503
2.11622
2.08586
2.05666
2.02768
1.99851
1.96933
1.94031
1.91121
1.8825
1.85562
1.83115
1.80825
1.78593
1.76354
1.74077
1.71755
1.6942
1.67156
1.65059
1.6313
1.61312
1.59547
1.57801
1.56127
1.54518
1.5289
1.5118
1.49365
1.47477
1.45595
1.43839
1.42358
1.41272
1.40233
1.38945
1.37578
1.36032
1.34318
1.32795
1.32054
1.31394
1.30229
1.28624
1.27181
1.26254
1.25531
1.24626
1.23276
1.21708
1.20382
1.19744
1.19287
1.1876
1.18173
1.17607
1.17042
1.15972
1.14316
1.13792
1.13801
1.13885
1.14193
1.14811
1.15651
1.15882
1.15837
1.15301
1.14641
1.14318
1.14279
1.14307
1
1.00238
1.1294
1.59133
1.84828
1.90422
1.89205
1.87045
1.8525
1.83757
1.82402
1.80808
1.79481
1.78307
1.82993
2.05208
2.26307
2.31983
2.2999
2.24805
2.19871
2.16348
2.1325
2.10254
2.07247
2.04259
2.01313
1.98448
1.95665
1.92903
1.90073
1.87167
1.8436
1.8184
1.79584
1.77458
1.75359
1.73212
1.70935
1.68527
1.66118
1.6389
1.61959
1.60294
1.58741
1.57125
1.55412
1.5359
1.51668
1.49827
1.48195
1.46653
1.45054
1.43386
1.41804
1.40483
1.39533
1.38767
1.3762
1.35874
1.33932
1.32363
1.31175
1.30287
1.2948
1.28623
1.27778
1.26793
1.25488
1.23878
1.22213
1.20885
1.2013
1.19564
1.18966
1.18348
1.17687
1.17024
1.16284
1.15137
1.13606
1.12822
1.12512
1.12175
1.12099
1.12221
1.12496
1.12608
1.12516
1.11984
1.11318
1.11253
1.11353
1.1187
1
1.00001
1.00501
1.17202
1.62026
1.83633
1.88214
1.8699
1.84562
1.82969
1.8144
1.79828
1.79981
1.87684
2.12806
2.32448
2.31986
2.2983
2.27092
2.23287
2.18956
2.15204
2.11777
2.08599
2.05609
2.02698
1.99819
1.97001
1.94269
1.91561
1.88791
1.85979
1.8324
1.80694
1.78375
1.76219
1.74146
1.72107
1.70018
1.67797
1.65456
1.63062
1.60785
1.58844
1.57273
1.55849
1.54407
1.52871
1.51165
1.4932
1.47508
1.45791
1.44209
1.42927
1.4178
1.40484
1.38939
1.37436
1.36316
1.35288
1.34164
1.32812
1.31171
1.30204
1.29734
1.29277
1.28459
1.27159
1.25314
1.23604
1.22209
1.20895
1.19784
1.19229
1.18889
1.18637
1.18235
1.17413
1.16186
1.14613
1.13061
1.12435
1.12085
1.11771
1.11487
1.11307
1.11036
1.10645
1.10052
1.09033
1.07891
1.07629
1.07687
1.08417
1
1
1.00004
1.00882
1.20861
1.636
1.81751
1.86014
1.84601
1.82654
1.8045
1.80763
1.93905
2.1998
2.35798
2.38072
2.33605
2.28078
2.24225
2.21156
2.17811
2.14128
2.10457
2.07083
2.03998
2.01083
1.98255
1.955
1.92822
1.90187
1.87551
1.84914
1.82303
1.79758
1.77337
1.75063
1.72892
1.70816
1.68884
1.6701
1.64989
1.62702
1.60267
1.58021
1.56154
1.5456
1.53126
1.51823
1.50531
1.49024
1.47343
1.45905
1.44781
1.43533
1.42028
1.40384
1.3866
1.37056
1.35892
1.35198
1.34509
1.33366
1.31914
1.30673
1.29606
1.28483
1.27369
1.26467
1.25835
1.24903
1.23655
1.22253
1.21156
1.20417
1.19704
1.18806
1.17797
1.16646
1.15213
1.14061
1.13638
1.13208
1.1272
1.12195
1.11563
1.10814
1.10235
1.09662
1.08882
1.07872
1.06655
1.05745
1.05703
1.05936
1
1
1
1.00009
1.01316
1.23974
1.63349
1.80117
1.84053
1.8266
1.82022
1.97172
2.3034
2.38542
2.37381
2.3567
2.32196
2.27207
2.22771
2.19374
2.16253
2.13038
2.09648
2.06218
2.02904
1.99795
1.96887
1.94134
1.91506
1.88969
1.86479
1.83991
1.81469
1.78916
1.76409
1.74061
1.71915
1.69921
1.68055
1.66321
1.64517
1.62387
1.59947
1.57534
1.55426
1.5373
1.52355
1.51142
1.49979
1.48804
1.47544
1.46094
1.44373
1.42544
1.40766
1.39309
1.38399
1.37505
1.36429
1.35171
1.33721
1.32447
1.31591
1.30653
1.29372
1.28104
1.27127
1.26311
1.25359
1.2428
1.23015
1.21668
1.20621
1.19856
1.19117
1.18331
1.17481
1.16464
1.1522
1.14219
1.13431
1.12712
1.11967
1.11308
1.10735
1.10159
1.09575
1.0895
1.08274
1.07492
1.06238
1.04967
1.04441
1.04414
1
1
1
1
1.00015
1.01834
1.25284
1.62973
1.7877
1.81471
2.00735
2.3421
2.46555
2.4434
2.38384
2.34045
2.30503
2.26498
2.22302
2.18532
2.15227
2.12119
2.08959
2.05638
2.02263
1.9901
1.95964
1.93102
1.90396
1.87854
1.85452
1.83111
1.80742
1.78295
1.75812
1.7342
1.71263
1.69359
1.67549
1.65743
1.63949
1.61975
1.59653
1.573
1.55237
1.53547
1.5217
1.50943
1.49752
1.48555
1.47275
1.45776
1.43998
1.42153
1.40547
1.39356
1.38308
1.37236
1.3608
1.34813
1.33625
1.32615
1.3154
1.30297
1.29022
1.27905
1.26985
1.261
1.25173
1.24149
1.22933
1.21622
1.20554
1.19793
1.1912
1.18379
1.17466
1.16399
1.15425
1.14575
1.13722
1.12809
1.11874
1.11131
1.10541
1.09957
1.0934
1.08712
1.081
1.07344
1.0605
1.04577
1.04034
1.03895
1
1
1
1
1
1.00024
1.02149
1.26044
1.57113
1.93534
2.42541
2.50354
2.46369
2.44314
2.39363
2.33499
2.29439
2.25775
2.22157
2.18566
2.15117
2.11818
2.08587
2.05319
2.02015
1.98771
1.95676
1.92765
1.90037
1.87482
1.8508
1.8277
1.80453
1.78047
1.75582
1.73193
1.71022
1.69137
1.67553
1.66097
1.64404
1.62368
1.6038
1.58472
1.56483
1.54696
1.53196
1.51878
1.50636
1.49417
1.48152
1.46743
1.45135
1.43409
1.4179
1.40402
1.39216
1.38123
1.3701
1.3588
1.3475
1.33529
1.32187
1.309
1.29783
1.28819
1.27947
1.27099
1.26189
1.25124
1.23865
1.22564
1.21496
1.20659
1.19882
1.19088
1.18268
1.17491
1.16784
1.16029
1.15048
1.1374
1.12462
1.11651
1.11112
1.10615
1.10095
1.09547
1.08926
1.08055
1.06606
1.04799
1.0415
1.0396
1
1
1
1
1
1
1.00036
1.02406
1.27754
2.26146
2.71358
2.61881
2.51189
2.46235
2.41096
2.34087
2.29207
2.25407
2.22063
2.18743
2.15315
2.11876
2.08481
2.05158
2.01922
1.98781
1.95741
1.92832
1.90075
1.8746
1.84971
1.8256
1.80138
1.77656
1.75192
1.72918
1.70956
1.6922
1.6748
1.65533
1.63549
1.61729
1.59892
1.57797
1.55624
1.53668
1.52058
1.50701
1.49479
1.48297
1.47063
1.4567
1.44039
1.42245
1.40535
1.39156
1.38104
1.37135
1.36066
1.3489
1.33612
1.32215
1.30824
1.29654
1.28706
1.2785
1.27011
1.26163
1.25211
1.24087
1.22828
1.21572
1.20477
1.19516
1.18673
1.18019
1.17433
1.16823
1.16133
1.15298
1.14089
1.12482
1.11223
1.10641
1.10239
1.0982
1.09351
1.08839
1.0821
1.07215
1.05519
1.03607
1.03081
1.02971
)
;

boundaryField
{
    inlet
    {
        type            fixedValue;
        value           uniform 1;
    }
    outlet
    {
        type            inletOutlet;
        inletValue      uniform 1;
        value           nonuniform List<scalar> 
32
(
2.01333
1.99834
1.96324
1.91207
1.85426
1.80775
1.77952
1.76183
1.74957
1.74079
1.72944
1.71246
1.69239
1.66122
1.6328
1.61025
1.5882
1.56935
1.54307
1.50344
1.44715
1.33166
1.20787
1.16294
1.14353
1.11945
1.08497
1.06005
1.0449
1.03986
1.04061
1.03077
)
;
    }
    bottom
    {
        type            zeroGradient;
    }
    top
    {
        type            zeroGradient;
    }
    obstacle
    {
        type            zeroGradient;
    }
    defaultFaces
    {
        type            empty;
    }
}


// ************************************************************************* //
