/*--------------------------------*- C++ -*----------------------------------*\
  =========                 |
  \\      /  F ield         | OpenFOAM: The Open Source CFD Toolbox
   \\    /   O peration     | Website:  https://openfoam.org
    \\  /    A nd           | Version:  7
     \\/     M anipulation  |
\*---------------------------------------------------------------------------*/
FoamFile
{
    version     2.0;
    format      ascii;
    class       volScalarField;
    location    "4";
    object      rho;
}
// * * * * * * * * * * * * * * * * * * * * * * * * * * * * * * * * * * * * * //

dimensions      [1 -3 0 0 0 0 0];

internalField   nonuniform List<scalar> 
4128
(
2.76833
2.758
2.74512
2.7205
2.67861
2.64956
2.63679
2.62573
2.61473
2.60456
2.594
2.58214
2.56601
2.53714
2.50132
2.48264
2.47407
2.46728
2.46044
2.45314
2.44463
2.43342
2.41919
2.39772
2.36347
2.33183
2.3178
2.31038
2.30477
2.30041
2.29547
2.28966
2.28223
2.27306
2.26285
2.24548
2.20971
2.17001
2.15433
2.14871
2.14382
2.13808
2.13029
2.12229
2.11457
2.10581
2.09548
2.0831
2.0626
2.03468
2.01769
2.01179
2.00892
2.00573
2.00075
1.99537
1.98926
1.98121
1.97091
1.95652
1.94072
1.9227
1.90452
1.88966
1.87714
1.8649
1.85607
1.85091
1.84516
1.83793
1.82907
1.81715
1.80315
1.79188
1.78434
1.77834
1.77138
1.76313
1.75354
1.74512
1.74246
1.74195
1.74333
1.75465
1.80157
1.89247
2.02741
2.1898
2.34817
2.4921
2.50966
2.5298
2.55451
2.5699
2.58646
2.59579
2.60072
2.59909
2.58761
2.57416
2.56278
2.55892
2.55877
2.55884
2.56117
2.56322
2.56149
2.55608
2.54627
2.53196
2.51505
2.50137
2.49589
2.4968
2.50262
2.5136
2.52115
2.52062
2.5177
2.51219
2.50108
2.48379
2.46325
2.44931
2.44477
2.44458
2.44685
2.45428
2.46174
2.77781
2.76593
2.75318
2.73467
2.7028
2.67202
2.65412
2.64031
2.62675
2.61493
2.60489
2.59332
2.57726
2.55387
2.52686
2.51003
2.49795
2.4854
2.47215
2.46026
2.45062
2.44166
2.4288
2.40892
2.38196
2.357
2.3389
2.32444
2.31289
2.30442
2.29792
2.29389
2.29073
2.28549
2.27635
2.26027
2.23253
2.19672
2.16686
2.15221
2.14601
2.14311
2.14081
2.13434
2.12619
2.11732
2.1073
2.09547
2.08057
2.06197
2.04026
2.02178
2.00926
2.00037
1.99321
1.98613
1.97828
1.96914
1.96255
1.95952
1.95344
1.94056
1.92081
1.89824
1.88052
1.8691
1.85942
1.84907
1.84018
1.83276
1.82703
1.82285
1.81647
1.80529
1.79261
1.78327
1.77526
1.76606
1.75607
1.74674
1.7405
1.73659
1.73393
1.73177
1.72534
1.72699
1.74512
1.8035
1.90407
2.04887
2.20643
2.34725
2.47735
2.4946
2.52392
2.55037
2.56284
2.56401
2.56239
2.56181
2.55986
2.5521
2.54803
2.54855
2.55101
2.55313
2.55147
2.54713
2.53983
2.52914
2.51466
2.49903
2.48809
2.48319
2.48319
2.48621
2.49267
2.49912
2.50029
2.49904
2.49569
2.48588
2.46977
2.44829
2.43395
2.43142
2.43217
2.43436
2.43876
2.78889
2.78054
2.76782
2.74959
2.72546
2.70055
2.67889
2.65982
2.64219
2.62454
2.60595
2.58571
2.56352
2.54572
2.53625
2.52894
2.52021
2.50866
2.4941
2.4776
2.45984
2.43965
2.41763
2.39689
2.38136
2.36899
2.35662
2.34335
2.3295
2.31743
2.30819
2.30067
2.29243
2.2822
2.26869
2.25262
2.23748
2.21812
2.19254
2.16899
2.15434
2.14494
2.13741
2.12995
2.12044
2.10877
2.09771
2.08804
2.08127
2.07443
2.06119
2.03776
2.01596
2.00419
1.99567
1.98665
1.97672
1.9681
1.96225
1.95705
1.95173
1.94542
1.93403
1.91505
1.89262
1.8735
1.85849
1.84784
1.8417
1.83697
1.83176
1.82533
1.8184
1.81186
1.80483
1.79532
1.78635
1.77825
1.7696
1.76017
1.75206
1.74447
1.73644
1.72995
1.7207
1.71219
1.70418
1.69775
1.70372
1.7311
1.8084
1.92557
2.08835
2.25202
2.38225
2.49593
2.51794
2.52894
2.54749
2.54419
2.53466
2.52513
2.51663
2.51516
2.51965
2.52964
2.53779
2.53904
2.53575
2.52819
2.51666
2.50276
2.4884
2.4781
2.47215
2.46998
2.46928
2.47251
2.47875
2.48043
2.48017
2.47815
2.46914
2.45165
2.43155
2.42008
2.41856
2.41774
2.41899
2.79002
2.77424
2.75753
2.74321
2.73291
2.72207
2.70789
2.68882
2.6651
2.64024
2.61627
2.59086
2.56518
2.54997
2.54312
2.53727
2.53097
2.52247
2.5104
2.49263
2.47005
2.44555
2.41991
2.39814
2.38602
2.378
2.3687
2.35692
2.34426
2.33374
2.32426
2.31304
2.30136
2.28701
2.26999
2.25373
2.24029
2.22838
2.2128
2.18989
2.16708
2.15172
2.1408
2.13263
2.12354
2.11018
2.09892
2.0932
2.08907
2.08387
2.07577
2.05836
2.02962
2.00596
1.99362
1.98497
1.97667
1.96915
1.96401
1.96019
1.95613
1.95029
1.94249
1.93008
1.90664
1.87972
1.86158
1.85183
1.84613
1.84117
1.83649
1.83233
1.82823
1.82045
1.80626
1.79183
1.78129
1.77343
1.76602
1.75965
1.75388
1.74866
1.74287
1.73554
1.72498
1.71299
1.69952
1.68447
1.67363
1.67184
1.67586
1.69504
1.745
1.85337
1.99051
2.15885
2.29908
2.42531
2.50935
2.5251
2.51988
2.51817
2.50383
2.49072
2.49053
2.49061
2.4963
2.50835
2.51528
2.51536
2.51188
2.50448
2.49267
2.47877
2.4666
2.46135
2.45964
2.45947
2.46285
2.465
2.46453
2.46308
2.45927
2.44976
2.43269
2.41397
2.40421
2.40197
2.40346
2.79969
2.77946
2.75917
2.74716
2.73975
2.73275
2.72452
2.71286
2.69366
2.66286
2.62172
2.58578
2.56859
2.56053
2.55363
2.54813
2.54208
2.53458
2.52494
2.50876
2.48249
2.45339
2.42672
2.40616
2.39606
2.38895
2.3828
2.37548
2.36398
2.34566
2.32339
2.30634
2.29207
2.28056
2.26889
2.25746
2.24964
2.24293
2.23326
2.214
2.182
2.15355
2.13843
2.12941
2.12387
2.12125
2.11813
2.11387
2.10855
2.10215
2.0931
2.07567
2.04408
2.01125
1.99393
1.98458
1.97709
1.97156
1.96742
1.96382
1.96216
1.96206
1.95708
1.94367
1.91701
1.88619
1.86922
1.86267
1.85796
1.85207
1.84492
1.8372
1.82992
1.82357
1.81239
1.79468
1.78143
1.77336
1.76793
1.76425
1.7603
1.75539
1.74886
1.74024
1.72894
1.7136
1.69695
1.68286
1.67276
1.66821
1.66688
1.66587
1.66383
1.67198
1.7004
1.77614
1.90206
2.05801
2.22952
2.34483
2.45054
2.49109
2.493
2.4861
2.48697
2.47726
2.47519
2.48079
2.48488
2.48611
2.48814
2.48764
2.48457
2.47611
2.46063
2.45064
2.44905
2.44882
2.45062
2.45364
2.45397
2.45319
2.4503
2.4431
2.42943
2.41159
2.39846
2.39038
2.38971
2.80434
2.78074
2.76442
2.7551
2.74672
2.73919
2.73349
2.72499
2.71137
2.68127
2.62791
2.58922
2.57832
2.57181
2.56638
2.56011
2.55297
2.54501
2.53549
2.52218
2.4939
2.45189
2.42862
2.42033
2.413
2.40447
2.39613
2.38723
2.37605
2.35917
2.33407
2.30919
2.29079
2.27744
2.27041
2.26535
2.26098
2.25581
2.24853
2.23347
2.19805
2.15531
2.13883
2.13315
2.12667
2.1193
2.1149
2.11056
2.10454
2.09792
2.09081
2.08116
2.06093
2.02689
2.00201
1.99352
1.9889
1.98483
1.98063
1.97634
1.97082
1.96355
1.95429
1.94213
1.92451
1.90329
1.88514
1.87174
1.86548
1.8618
1.85725
1.84986
1.8397
1.82559
1.80829
1.79144
1.77988
1.77496
1.77162
1.76896
1.76669
1.76321
1.7578
1.74903
1.73552
1.71605
1.69361
1.68026
1.67482
1.67089
1.66744
1.66354
1.66003
1.65552
1.64844
1.64922
1.6656
1.71707
1.82832
1.96972
2.13403
2.27362
2.35804
2.43274
2.46032
2.4575
2.4698
2.48076
2.47786
2.47488
2.47634
2.47495
2.46964
2.46065
2.44824
2.43756
2.43102
2.42913
2.42996
2.4339
2.43993
2.44305
2.44245
2.43849
2.42854
2.41265
2.39632
2.38615
2.37934
2.81016
2.78312
2.77365
2.7653
2.75693
2.74932
2.74155
2.73189
2.71943
2.69509
2.64866
2.60781
2.59068
2.58091
2.57306
2.56771
2.56347
2.55757
2.55043
2.53578
2.50456
2.46093
2.43712
2.42735
2.42035
2.41475
2.40858
2.40071
2.38924
2.36802
2.33142
2.29806
2.28659
2.28104
2.2768
2.27389
2.26993
2.26414
2.2565
2.245
2.21892
2.17128
2.14051
2.13215
2.12672
2.12232
2.11809
2.11347
2.10798
2.1012
2.09419
2.08693
2.07523
2.04767
2.00986
1.98902
1.98135
1.97666
1.97255
1.96929
1.96633
1.96116
1.95367
1.94403
1.92956
1.91249
1.89932
1.88995
1.8812
1.8713
1.86064
1.84908
1.83394
1.81748
1.80351
1.79203
1.78528
1.7811
1.77784
1.77504
1.77178
1.76777
1.76309
1.7568
1.74547
1.72268
1.69572
1.68068
1.67602
1.67316
1.67079
1.66752
1.66349
1.65694
1.64887
1.64064
1.62933
1.62818
1.63748
1.67349
1.74943
1.88705
2.03462
2.17891
2.27092
2.34838
2.4177
2.44532
2.45808
2.47119
2.47332
2.4707
2.46399
2.45648
2.44597
2.43454
2.4239
2.41318
2.40717
2.40667
2.4104
2.41874
2.42502
2.42576
2.42341
2.41387
2.3999
2.38706
2.37577
2.82787
2.79258
2.78227
2.77475
2.76711
2.75815
2.74733
2.73651
2.72268
2.70065
2.66655
2.63064
2.60993
2.59782
2.58846
2.57961
2.56924
2.55761
2.54447
2.5263
2.49698
2.47039
2.45591
2.44548
2.43551
2.42602
2.41683
2.40691
2.39432
2.37217
2.33529
2.30213
2.28893
2.28289
2.27784
2.27454
2.27398
2.27046
2.26411
2.25549
2.2358
2.19304
2.1499
2.13254
2.1244
2.11802
2.11267
2.1095
2.11143
2.11146
2.10673
2.10088
2.09083
2.06641
2.02504
1.9945
1.9823
1.97547
1.97077
1.967
1.96482
1.96314
1.95956
1.95262
1.93815
1.91789
1.90725
1.90085
1.89325
1.8831
1.87063
1.85606
1.83554
1.81004
1.80014
1.79787
1.79618
1.7937
1.7904
1.78657
1.78267
1.77832
1.77251
1.763
1.74538
1.71935
1.69762
1.68935
1.68518
1.68129
1.67695
1.6719
1.66642
1.66019
1.65281
1.64139
1.62892
1.62248
1.62111
1.6201
1.62371
1.64348
1.69651
1.78951
1.93425
2.08259
2.20812
2.27197
2.34608
2.40997
2.43662
2.45176
2.45943
2.45953
2.4515
2.44075
2.43164
2.41441
2.39699
2.39207
2.39081
2.39066
2.39548
2.40275
2.40344
2.40183
2.39733
2.39026
2.37774
2.85915
2.81519
2.79451
2.78311
2.77476
2.76918
2.76269
2.75234
2.7366
2.71278
2.6804
2.65028
2.63067
2.61595
2.6029
2.59148
2.58123
2.56913
2.55164
2.52685
2.49863
2.47731
2.46612
2.45642
2.44655
2.43785
2.43056
2.42177
2.40777
2.38405
2.34665
2.31296
2.29689
2.28909
2.28407
2.28179
2.27791
2.27105
2.26421
2.25579
2.24223
2.2137
2.16727
2.13593
2.1251
2.11938
2.11435
2.11155
2.11163
2.10841
2.1024
2.09593
2.0881
2.07466
2.04925
2.01759
1.99468
1.9822
1.97443
1.96919
1.96488
1.95948
1.95146
1.94108
1.93233
1.92529
1.91798
1.9105
1.90319
1.89523
1.88453
1.86718
1.8385
1.81143
1.80175
1.79828
1.7946
1.79058
1.78655
1.78236
1.77872
1.77522
1.77115
1.76429
1.74769
1.72113
1.70842
1.70462
1.69984
1.69433
1.68864
1.68255
1.6756
1.66646
1.6549
1.64378
1.6347
1.62661
1.6187
1.61312
1.61055
1.61047
1.61203
1.62101
1.65387
1.71667
1.82168
1.97662
2.13178
2.25006
2.29472
2.35363
2.41119
2.43027
2.43298
2.43738
2.43743
2.42281
2.40111
2.38728
2.37964
2.37753
2.37759
2.38148
2.38486
2.38559
2.38638
2.38715
2.37905
2.88034
2.8479
2.82258
2.80333
2.78708
2.77144
2.75594
2.74005
2.71951
2.6952
2.67613
2.66531
2.65517
2.64283
2.62699
2.60778
2.58643
2.56469
2.54175
2.51606
2.49768
2.48868
2.48044
2.47064
2.45944
2.44697
2.43326
2.41782
2.39969
2.37826
2.35465
2.33308
2.3168
2.30656
2.3005
2.29531
2.28828
2.28027
2.2723
2.26344
2.25073
2.22755
2.19112
2.151
2.13084
2.12457
2.12199
2.12071
2.11886
2.11539
2.10989
2.10189
2.09112
2.07884
2.06206
2.03973
2.0155
1.99592
1.98411
1.977
1.97085
1.96319
1.95346
1.94039
1.9297
1.92594
1.92311
1.91969
1.91526
1.90869
1.89714
1.87422
1.83819
1.81006
1.80265
1.7995
1.79631
1.79287
1.78854
1.78523
1.78145
1.7772
1.77238
1.76447
1.75074
1.73384
1.71773
1.70492
1.69644
1.69001
1.68403
1.67805
1.67236
1.66675
1.65929
1.65037
1.63948
1.6276
1.61835
1.61227
1.60767
1.60353
1.59858
1.59566
1.59516
1.59601
1.60955
1.65704
1.74108
1.88182
2.04568
2.19065
2.2983
2.33138
2.37088
2.40243
2.40343
2.39885
2.39043
2.38424
2.37361
2.37004
2.36978
2.37143
2.37557
2.37944
2.38251
2.38312
2.37115
2.88815
2.86914
2.84995
2.82701
2.80345
2.78429
2.76583
2.74324
2.71803
2.69336
2.68192
2.67431
2.66695
2.6582
2.64596
2.62721
2.60149
2.57062
2.54051
2.51797
2.50491
2.49513
2.48667
2.47967
2.47292
2.46348
2.44768
2.42471
2.39935
2.37709
2.36565
2.3571
2.34306
2.31912
2.29386
2.28182
2.27602
2.26881
2.25961
2.24896
2.23695
2.22617
2.21124
2.18866
2.15857
2.13205
2.11854
2.1113
2.10519
2.10042
2.09731
2.09346
2.08698
2.07654
2.06645
2.05756
2.04349
2.01919
1.99254
1.97193
1.96058
1.9551
1.94822
1.93703
1.93147
1.92884
1.92831
1.92855
1.92542
1.91997
1.90816
1.88151
1.84331
1.81825
1.80765
1.80154
1.79769
1.79568
1.79761
1.79507
1.78937
1.78354
1.77633
1.76745
1.75734
1.7431
1.72493
1.70928
1.69874
1.69081
1.68422
1.67868
1.6736
1.66906
1.66478
1.65797
1.64636
1.63225
1.62091
1.61298
1.60695
1.60172
1.59602
1.59168
1.58772
1.58532
1.58113
1.57166
1.57482
1.60121
1.68621
1.80743
1.97041
2.12097
2.27328
2.34986
2.35076
2.35451
2.35931
2.35192
2.34663
2.34474
2.34444
2.35096
2.36394
2.37438
2.37829
2.37861
2.36704
2.89612
2.88619
2.87421
2.85561
2.82551
2.78834
2.75636
2.73039
2.71056
2.70079
2.69377
2.6868
2.67907
2.67006
2.65839
2.64059
2.61105
2.56973
2.53472
2.52153
2.51525
2.50891
2.50081
2.49
2.47639
2.4608
2.44339
2.42005
2.39468
2.38473
2.3805
2.37413
2.36159
2.33623
2.30303
2.28196
2.27286
2.2672
2.25979
2.24822
2.23415
2.22182
2.21444
2.20597
2.18861
2.15579
2.12527
2.11198
2.10474
2.09742
2.09209
2.08973
2.09002
2.08692
2.08128
2.07382
2.06146
2.04041
2.00938
1.97954
1.95978
1.95027
1.9448
1.94074
1.93718
1.93493
1.933
1.9295
1.9249
1.919
1.90854
1.88729
1.85471
1.82733
1.81463
1.8088
1.80476
1.80086
1.79594
1.78984
1.78335
1.7776
1.77276
1.76662
1.75725
1.74543
1.73183
1.7185
1.7073
1.69774
1.6894
1.68248
1.67698
1.67152
1.66441
1.65457
1.64447
1.63638
1.62792
1.61879
1.61035
1.60332
1.59731
1.59208
1.58688
1.58237
1.57663
1.57088
1.55985
1.54602
1.54876
1.56952
1.63316
1.7466
1.90395
2.06231
2.18467
2.30144
2.33174
2.32001
2.32291
2.32012
2.31267
2.31596
2.32838
2.34574
2.35953
2.36521
2.35873
2.90823
2.90068
2.89071
2.87607
2.8474
2.80005
2.75405
2.72864
2.71794
2.71051
2.70297
2.69627
2.68943
2.68001
2.66911
2.65172
2.61595
2.57018
2.54434
2.53285
2.52266
2.51407
2.50748
2.50046
2.48988
2.4708
2.44312
2.41683
2.40333
2.39624
2.38765
2.37818
2.3678
2.35206
2.32464
2.29467
2.27769
2.26683
2.25704
2.24361
2.23014
2.22352
2.21824
2.21259
2.20479
2.18696
2.15164
2.11956
2.10482
2.09758
2.09222
2.08701
2.08231
2.07896
2.07504
2.06876
2.06099
2.05127
2.03174
1.99469
1.96178
1.95104
1.94669
1.94443
1.94515
1.94424
1.93978
1.93487
1.92964
1.92293
1.91369
1.8976
1.87187
1.8415
1.82269
1.81306
1.80542
1.7992
1.79432
1.78972
1.78448
1.77839
1.77344
1.76945
1.76389
1.75356
1.73993
1.72632
1.71397
1.70485
1.69896
1.69353
1.68637
1.67828
1.66941
1.65848
1.646
1.63668
1.6319
1.62749
1.62105
1.61291
1.60692
1.60217
1.59721
1.59155
1.58468
1.57608
1.56376
1.54615
1.53974
1.53625
1.53689
1.55043
1.59216
1.69035
1.82039
1.9946
2.11808
2.21388
2.2914
2.30355
2.29648
2.3086
2.31692
2.32134
2.32914
2.33467
2.33112
2.9207
2.91136
2.90021
2.8858
2.86066
2.80967
2.75406
2.73401
2.72583
2.71801
2.71187
2.70799
2.7008
2.69101
2.67748
2.65648
2.61707
2.57217
2.55477
2.54648
2.53777
2.52751
2.51616
2.50392
2.48696
2.45958
2.42977
2.41882
2.41395
2.40685
2.39752
2.38783
2.37807
2.36569
2.34487
2.31094
2.27644
2.25745
2.24688
2.23948
2.234
2.2287
2.22441
2.21884
2.21265
2.2033
2.17848
2.13614
2.10958
2.09774
2.08944
2.08293
2.07807
2.0749
2.07409
2.07409
2.07083
2.06341
2.04613
2.01106
1.97208
1.95589
1.95008
1.94515
1.94013
1.93591
1.93176
1.92726
1.92238
1.91716
1.91182
1.90529
1.88813
1.85996
1.83513
1.82031
1.80959
1.79987
1.79369
1.79022
1.78741
1.78447
1.77993
1.77151
1.7605
1.74995
1.74053
1.73249
1.72485
1.71578
1.70416
1.69151
1.67989
1.66886
1.65894
1.65183
1.64662
1.64279
1.63787
1.63008
1.61999
1.60986
1.60213
1.59702
1.59224
1.58616
1.57775
1.56797
1.55907
1.55029
1.54161
1.53379
1.52679
1.52599
1.52782
1.53856
1.56992
1.64128
1.76468
1.90421
2.05649
2.14477
2.22127
2.27912
2.30452
2.31277
2.32214
2.3217
2.31422
2.92724
2.91926
2.91042
2.8991
2.87595
2.82705
2.77073
2.7458
2.73458
2.72538
2.71695
2.70893
2.70216
2.69516
2.68518
2.66593
2.63194
2.59279
2.56676
2.55287
2.54468
2.53873
2.53098
2.51735
2.49304
2.4581
2.43231
2.42197
2.41437
2.40857
2.40489
2.39989
2.39376
2.38418
2.36324
2.32111
2.27585
2.25509
2.2468
2.24151
2.23862
2.24219
2.24209
2.23592
2.22941
2.22048
2.19939
2.15797
2.11783
2.09965
2.09022
2.08411
2.08036
2.07758
2.07504
2.07121
2.06594
2.05988
2.05114
2.03039
1.99336
1.96398
1.95257
1.94594
1.94056
1.93615
1.93221
1.92841
1.92423
1.91942
1.91288
1.90214
1.88669
1.86744
1.8479
1.83101
1.81745
1.807
1.79946
1.79387
1.7881
1.78175
1.77575
1.76928
1.76038
1.752
1.7463
1.74124
1.73538
1.72735
1.71504
1.6977
1.68065
1.66798
1.65743
1.65114
1.64788
1.64487
1.64126
1.63499
1.6248
1.61317
1.60353
1.59692
1.59209
1.58609
1.57735
1.56782
1.56049
1.55589
1.55023
1.54067
1.52978
1.5226
1.51957
1.51709
1.51605
1.52005
1.54087
1.59055
1.6953
1.83709
1.973
2.08414
2.17173
2.24799
2.28969
2.30764
2.30942
2.92911
2.91851
2.90812
2.89477
2.87462
2.84217
2.79522
2.75828
2.74335
2.73389
2.72471
2.71575
2.707
2.69612
2.67958
2.65476
2.62472
2.60238
2.58677
2.57333
2.55912
2.54333
2.52687
2.50921
2.48505
2.4567
2.44035
2.43163
2.42411
2.41624
2.40739
2.39939
2.39235
2.38385
2.36853
2.33357
2.28487
2.25974
2.25156
2.24634
2.24171
2.23685
2.23254
2.22702
2.22035
2.21228
2.20107
2.1777
2.14009
2.11354
2.10259
2.09398
2.0852
2.0794
2.0749
2.07003
2.06507
2.05963
2.05261
2.03971
2.01217
1.97842
1.96264
1.95691
1.95235
1.94796
1.94381
1.9399
1.93543
1.92931
1.91986
1.90509
1.8887
1.87524
1.86284
1.8482
1.82884
1.81308
1.80708
1.80326
1.79661
1.78512
1.77298
1.76612
1.76199
1.75912
1.75633
1.75185
1.74467
1.73278
1.71417
1.69427
1.67808
1.66555
1.65802
1.65489
1.65208
1.64785
1.64223
1.6362
1.63021
1.62291
1.61301
1.60248
1.59266
1.58506
1.57996
1.57659
1.57339
1.5694
1.56274
1.55126
1.53511
1.52286
1.51694
1.51289
1.50847
1.50436
1.50338
1.50497
1.51747
1.56082
1.63295
1.75686
1.9029
2.03945
2.12638
2.18974
2.25297
2.94152
2.93214
2.92098
2.90685
2.88594
2.85586
2.81904
2.78509
2.75891
2.74279
2.73212
2.72209
2.71161
2.69902
2.6816
2.65673
2.62956
2.612
2.59958
2.58791
2.5752
2.55897
2.53574
2.50713
2.48261
2.46521
2.45276
2.44086
2.43158
2.42403
2.41732
2.41073
2.40281
2.39193
2.3745
2.34603
2.31004
2.28123
2.2629
2.25098
2.24276
2.23699
2.23191
2.22636
2.21978
2.21193
2.20259
2.19081
2.16759
2.12872
2.09955
2.08837
2.08261
2.07786
2.07448
2.07014
2.06492
2.05928
2.05246
2.04352
2.02917
2.00214
1.97068
1.95365
1.94676
1.94195
1.93714
1.93204
1.92669
1.92043
1.91192
1.89913
1.88423
1.87467
1.86898
1.8617
1.84927
1.83084
1.81005
1.79583
1.78826
1.78064
1.7732
1.76984
1.76697
1.76424
1.76124
1.75723
1.75172
1.74066
1.71883
1.69263
1.67862
1.67136
1.6658
1.66041
1.6555
1.65109
1.64741
1.64389
1.63849
1.62791
1.61039
1.59577
1.58884
1.58311
1.57799
1.5745
1.571
1.56661
1.56145
1.55478
1.5435
1.52856
1.51794
1.51185
1.50611
1.50148
1.49934
1.49865
1.49907
1.50049
1.50335
1.52377
1.57375
1.66698
1.82295
1.97145
2.11663
2.93927
2.92376
2.90923
2.89173
2.86808
2.84238
2.82355
2.80503
2.7809
2.75742
2.74575
2.73914
2.72825
2.70771
2.67679
2.65211
2.64154
2.63337
2.62243
2.60636
2.5838
2.55646
2.52776
2.49855
2.47965
2.47222
2.46527
2.45766
2.44867
2.43663
2.42087
2.4035
2.3888
2.37219
2.35294
2.33641
2.32324
2.30619
2.28335
2.26339
2.25305
2.24645
2.24078
2.23526
2.22943
2.22313
2.21661
2.2075
2.18768
2.14846
2.10618
2.09045
2.08586
2.08353
2.08165
2.07774
2.07288
2.06781
2.06257
2.0564
2.04523
2.02149
1.98671
1.95996
1.9489
1.94287
1.93797
1.93233
1.92567
1.91862
1.9097
1.89777
1.88747
1.88146
1.8753
1.86879
1.86116
1.84748
1.82213
1.79501
1.78274
1.77801
1.77542
1.77459
1.77444
1.77119
1.76712
1.76322
1.75841
1.74865
1.72652
1.69398
1.67359
1.66707
1.66247
1.65822
1.65468
1.65184
1.65025
1.6481
1.64429
1.63518
1.61458
1.59263
1.58499
1.58185
1.57928
1.57684
1.57376
1.56971
1.56514
1.55944
1.55027
1.53613
1.52281
1.51586
1.5116
1.508
1.50496
1.50211
1.49955
1.49536
1.49303
1.48424
1.46971
1.47684
1.5219
1.6089
1.8232
2.95006
2.92819
2.91095
2.89121
2.86703
2.84457
2.83
2.81786
2.80392
2.78352
2.75453
2.72813
2.71241
2.69711
2.67415
2.66067
2.6532
2.6448
2.63498
2.62197
2.59979
2.56245
2.52195
2.49651
2.48661
2.47971
2.47353
2.46788
2.46062
2.45037
2.43304
2.40907
2.3865
2.36873
2.34987
2.33584
2.32805
2.32073
2.30792
2.28256
2.25382
2.23615
2.22741
2.22173
2.21735
2.21216
2.20562
2.19787
2.18874
2.17125
2.14063
2.10625
2.08472
2.07414
2.06854
2.06397
2.05976
2.05465
2.0488
2.04206
2.03401
2.02405
2.00416
1.97806
1.95811
1.95052
1.94702
1.94194
1.93196
1.91387
1.9007
1.8962
1.89381
1.89056
1.88718
1.88287
1.875
1.85699
1.82116
1.79103
1.7835
1.78075
1.77785
1.77491
1.77301
1.77016
1.7663
1.76246
1.7582
1.75087
1.73231
1.69783
1.6742
1.66722
1.6635
1.66045
1.65848
1.65767
1.65534
1.65165
1.64673
1.63772
1.6177
1.59402
1.58536
1.58217
1.57956
1.57752
1.57693
1.57502
1.57175
1.56714
1.55846
1.54068
1.5198
1.51017
1.50615
1.50284
1.49957
1.4965
1.49363
1.49044
1.48649
1.47889
1.46614
1.44971
1.448
1.45543
1.53899
2.97442
2.94143
2.91203
2.88807
2.86872
2.85564
2.84467
2.83391
2.82223
2.80538
2.77366
2.72848
2.69885
2.68566
2.67852
2.67429
2.66884
2.66107
2.65108
2.63669
2.60863
2.55578
2.51215
2.50217
2.49632
2.49046
2.48459
2.47774
2.47043
2.46183
2.44706
2.41647
2.37856
2.36389
2.35883
2.35325
2.34757
2.34035
2.32756
2.30069
2.26375
2.23931
2.22748
2.22061
2.21604
2.21121
2.20463
2.19686
2.18779
2.17822
2.16276
2.13055
2.09428
2.07666
2.06757
2.06195
2.05789
2.05366
2.04763
2.03895
2.02851
2.01822
2.00987
1.99838
1.97885
1.9537
1.93667
1.92998
1.92325
1.91099
1.90204
1.8984
1.89597
1.89444
1.89262
1.88828
1.88149
1.86351
1.82309
1.79272
1.78644
1.78323
1.78013
1.77785
1.77609
1.7728
1.76924
1.76574
1.76189
1.75442
1.73385
1.69968
1.68202
1.67793
1.67508
1.67233
1.67028
1.66856
1.6651
1.66074
1.65476
1.64343
1.62166
1.59604
1.58682
1.58442
1.58252
1.58052
1.57802
1.57519
1.57213
1.56819
1.56094
1.54471
1.52273
1.51129
1.50671
1.5033
1.50004
1.49689
1.49392
1.49099
1.48704
1.48008
1.46676
1.4491
1.43773
1.4371
1.44594
2.99304
2.94422
2.9048
2.88698
2.87806
2.87005
2.86128
2.85102
2.83684
2.81298
2.76929
2.72157
2.6979
2.68802
2.6802
2.67411
2.67244
2.66834
2.65947
2.64671
2.61766
2.56091
2.51895
2.50809
2.50133
2.49434
2.48928
2.48307
2.47526
2.46614
2.45072
2.41941
2.38303
2.3636
2.35323
2.346
2.33904
2.33125
2.32238
2.30924
2.28388
2.25364
2.23601
2.229
2.22389
2.21886
2.21244
2.20588
2.19952
2.19186
2.17842
2.15309
2.11864
2.08973
2.07367
2.06382
2.05714
2.05231
2.04641
2.03753
2.02677
2.02034
2.01605
2.00966
1.99485
1.96606
1.93789
1.92313
1.91602
1.9118
1.90991
1.90963
1.91115
1.90954
1.90491
1.89956
1.89108
1.86955
1.82769
1.80112
1.79633
1.7936
1.79151
1.79028
1.78728
1.78352
1.77971
1.77558
1.77043
1.76139
1.74082
1.70851
1.68418
1.67536
1.67139
1.66803
1.66479
1.66167
1.65865
1.65521
1.65061
1.64263
1.6267
1.60211
1.58938
1.58608
1.58364
1.58115
1.57862
1.57622
1.57354
1.57
1.56378
1.55026
1.53046
1.51884
1.51389
1.51
1.50672
1.50371
1.50087
1.49784
1.49383
1.48752
1.47546
1.45665
1.43973
1.43363
1.43225
3.00203
2.94953
2.91392
2.89852
2.88734
2.87781
2.87066
2.86218
2.84984
2.82316
2.76941
2.71923
2.70341
2.69508
2.68704
2.68111
2.67739
2.67043
2.66165
2.64999
2.62546
2.57455
2.52841
2.51468
2.50899
2.50534
2.50213
2.49495
2.48626
2.47581
2.45867
2.4281
2.39157
2.36815
2.35666
2.3486
2.34061
2.33216
2.32264
2.31174
2.29918
2.28017
2.25297
2.22549
2.21003
2.20443
2.19897
2.19231
2.18595
2.17909
2.17015
2.15858
2.13892
2.11064
2.08674
2.07239
2.06223
2.0536
2.04667
2.04008
2.03374
2.02785
2.0217
2.01416
2.00128
1.97384
1.93969
1.9237
1.91738
1.91294
1.90897
1.90541
1.90349
1.90017
1.89543
1.89014
1.88242
1.8671
1.84176
1.81253
1.79579
1.7897
1.78655
1.78362
1.78026
1.77668
1.77264
1.768
1.76184
1.75202
1.73702
1.71423
1.69041
1.67858
1.67314
1.66914
1.66537
1.66156
1.65773
1.65447
1.6519
1.64803
1.63664
1.6155
1.5972
1.58959
1.58569
1.58266
1.57968
1.57674
1.57343
1.56903
1.5624
1.55264
1.5391
1.52342
1.51213
1.50579
1.50139
1.4977
1.49449
1.49119
1.48715
1.48225
1.47548
1.46346
1.44592
1.43449
1.4292
2.98936
2.95465
2.93408
2.91948
2.90598
2.8936
2.88101
2.86657
2.84943
2.82155
2.77115
2.72524
2.71017
2.70258
2.69644
2.68898
2.67999
2.67107
2.66199
2.64917
2.62867
2.59557
2.55442
2.52628
2.511
2.50061
2.49291
2.48548
2.47712
2.4672
2.45383
2.432
2.40226
2.38239
2.37246
2.36278
2.35262
2.3427
2.33451
2.32766
2.31835
2.30074
2.27199
2.23489
2.21192
2.20369
2.1987
2.19172
2.18333
2.17578
2.16879
2.1621
2.15221
2.13131
2.09763
2.0675
2.05289
2.04539
2.04013
2.03662
2.03701
2.03772
2.03218
2.02453
2.0119
1.98362
1.94602
1.92694
1.91968
1.91477
1.91092
1.90749
1.90378
1.89927
1.89389
1.88753
1.88004
1.87024
1.85305
1.82656
1.80445
1.79405
1.78795
1.78361
1.78014
1.77657
1.77282
1.76851
1.76247
1.75207
1.73459
1.71374
1.6995
1.69122
1.68438
1.67857
1.67379
1.66929
1.665
1.66012
1.65254
1.64255
1.63024
1.61532
1.60301
1.5967
1.59288
1.58898
1.58554
1.58224
1.57871
1.5745
1.56908
1.56151
1.54896
1.53035
1.51547
1.50751
1.50224
1.49804
1.49453
1.49115
1.4871
1.48246
1.47762
1.4703
1.45614
1.44186
1.43143
2.9789
2.96027
2.94933
2.93677
2.92238
2.90777
2.89404
2.87974
2.85884
2.82648
2.78328
2.74702
2.72543
2.71184
2.70192
2.69366
2.68779
2.68064
2.6713
2.65891
2.64055
2.61248
2.57618
2.54486
2.52212
2.50608
2.49477
2.48637
2.47864
2.46929
2.45709
2.44135
2.4204
2.3939
2.37018
2.35514
2.3439
2.3331
2.3234
2.31599
2.30909
2.30188
2.28494
2.25425
2.22444
2.20904
2.20122
2.19435
2.18571
2.17826
2.1722
2.16629
2.15877
2.14414
2.11082
2.07169
2.05291
2.04628
2.04202
2.03936
2.03727
2.03197
2.02605
2.0193
2.00892
1.98929
1.9597
1.93781
1.92622
1.91907
1.9146
1.91102
1.90713
1.90268
1.89689
1.8886
1.87649
1.85901
1.84158
1.82856
1.81709
1.80646
1.79815
1.79267
1.78844
1.78464
1.78051
1.77518
1.76696
1.75352
1.73592
1.71885
1.70417
1.69166
1.68216
1.67453
1.66837
1.66326
1.65834
1.6538
1.64896
1.64055
1.6294
1.62033
1.61274
1.60285
1.59153
1.58331
1.57842
1.57508
1.57162
1.56746
1.56194
1.55379
1.54245
1.53098
1.52147
1.51508
1.51025
1.50529
1.5009
1.49716
1.4933
1.48859
1.48009
1.46778
1.45529
1.44795
1.44022
2.97776
2.97065
2.96205
2.95191
2.93966
2.92362
2.90335
2.87664
2.84266
2.80591
2.78036
2.76472
2.7504
2.73497
2.71853
2.70208
2.6854
2.66889
2.65448
2.63991
2.62035
2.59826
2.57985
2.56169
2.54192
2.52245
2.50896
2.49999
2.49119
2.48132
2.47005
2.45704
2.43817
2.40837
2.37694
2.35605
2.34397
2.33439
2.32453
2.31499
2.30606
2.29558
2.28365
2.26777
2.24124
2.21053
2.19535
2.19065
2.19032
2.1879
2.1825
2.17661
2.1694
2.15587
2.12482
2.08172
2.06063
2.05614
2.05288
2.04911
2.04325
2.03679
2.03069
2.0241
2.01297
1.99278
1.96612
1.94717
1.9374
1.9311
1.92612
1.92221
1.91847
1.91348
1.90609
1.89389
1.87575
1.85742
1.8416
1.8326
1.82684
1.8192
1.80618
1.79019
1.78066
1.77592
1.77165
1.76652
1.76037
1.75393
1.74402
1.72842
1.71119
1.69681
1.68618
1.67693
1.66931
1.66391
1.65858
1.65188
1.6466
1.64298
1.63856
1.63297
1.62495
1.61162
1.59585
1.58474
1.57812
1.57445
1.57113
1.56702
1.56143
1.55332
1.54281
1.53323
1.5262
1.51907
1.51056
1.50267
1.49619
1.49096
1.48621
1.4813
1.47609
1.46827
1.46047
1.45495
1.44271
2.98225
2.9733
2.96571
2.95961
2.95081
2.94043
2.9228
2.88706
2.84087
2.80419
2.78539
2.77427
2.76365
2.75107
2.73358
2.71156
2.69164
2.67521
2.65618
2.63526
2.61415
2.59503
2.58351
2.57469
2.56361
2.54585
2.51878
2.49131
2.4746
2.4634
2.45319
2.44215
2.43042
2.41696
2.39499
2.3679
2.34752
2.33446
2.32312
2.31115
2.30159
2.29429
2.28718
2.27706
2.25361
2.21855
2.19941
2.18813
2.17984
2.17419
2.16937
2.16432
2.15784
2.14772
2.13271
2.11156
2.08215
2.05763
2.04657
2.04079
2.03478
2.0275
2.01895
2.0096
2.00039
1.98816
1.97365
1.96185
1.95002
1.93616
1.92236
1.91316
1.90822
1.9035
1.89653
1.88396
1.86518
1.8506
1.84588
1.8433
1.83933
1.83163
1.8161
1.79544
1.78225
1.77608
1.77171
1.76672
1.76023
1.75057
1.73565
1.71891
1.70774
1.70268
1.6976
1.68949
1.67839
1.66694
1.65816
1.65179
1.64641
1.64042
1.63401
1.62705
1.61937
1.61192
1.60303
1.59355
1.58554
1.57984
1.5758
1.57146
1.56599
1.55888
1.55075
1.54285
1.53507
1.52576
1.51504
1.50539
1.49751
1.49151
1.48623
1.48005
1.4749
1.47353
1.47134
1.46517
1.44842
2.99088
2.98354
2.97915
2.97018
2.95801
2.9409
2.9116
2.86697
2.82938
2.81412
2.80562
2.79473
2.78126
2.76543
2.7457
2.72149
2.69751
2.67006
2.64089
2.6182
2.60499
2.59777
2.59276
2.58714
2.57864
2.56289
2.5316
2.49558
2.4734
2.46061
2.45056
2.4413
2.43186
2.42117
2.40562
2.37971
2.35133
2.33271
2.3211
2.31429
2.30988
2.30555
2.29873
2.28666
2.2643
2.23275
2.20693
2.18831
2.17688
2.17151
2.16626
2.16049
2.15485
2.15016
2.14505
2.13262
2.10611
2.07221
2.05023
2.04025
2.03414
2.02813
2.01973
2.00714
1.993
1.98587
1.9812
1.9736
1.96205
1.94579
1.92781
1.91478
1.90605
1.89979
1.89216
1.87937
1.86288
1.85523
1.852
1.84785
1.84253
1.83463
1.82082
1.80268
1.78974
1.78308
1.77789
1.77223
1.76412
1.75172
1.73453
1.71884
1.71214
1.70714
1.69945
1.68841
1.6765
1.66551
1.65723
1.65139
1.64621
1.64071
1.63459
1.62793
1.62166
1.61586
1.6088
1.59831
1.58449
1.57293
1.566
1.56091
1.55607
1.55083
1.54456
1.53701
1.52919
1.52368
1.51943
1.51405
1.50681
1.49863
1.49165
1.48597
1.48132
1.47549
1.46811
1.4602
1.44566
3.01068
3.00711
3.00044
2.98961
2.97515
2.94945
2.89992
2.84998
2.82999
2.8232
2.81693
2.80824
2.79741
2.78333
2.76416
2.73845
2.69865
2.65963
2.63271
2.61738
2.60913
2.60357
2.59942
2.59259
2.58377
2.57066
2.5431
2.50103
2.4744
2.46622
2.45992
2.4526
2.44471
2.43478
2.41841
2.39052
2.3619
2.34275
2.32884
2.31347
2.29624
2.28753
2.28172
2.27183
2.25669
2.24213
2.22585
2.2043
2.18277
2.16995
2.16307
2.15623
2.14841
2.13986
2.13083
2.12206
2.1124
2.09364
2.06929
2.04743
2.0338
2.02595
2.01884
2.00935
1.99591
1.98607
1.98169
1.97795
1.97149
1.95822
1.93921
1.92078
1.90669
1.89554
1.88548
1.8783
1.87403
1.87055
1.86577
1.85998
1.85315
1.84382
1.83041
1.812
1.79313
1.7793
1.77042
1.76265
1.75353
1.74293
1.73477
1.72891
1.72356
1.71658
1.7065
1.6928
1.67794
1.66845
1.66208
1.65714
1.65255
1.6476
1.64209
1.63706
1.63248
1.62715
1.61944
1.60648
1.58911
1.57405
1.56509
1.55896
1.55332
1.54799
1.54278
1.53666
1.53062
1.52637
1.5219
1.5155
1.5061
1.49514
1.48628
1.48057
1.47604
1.47136
1.46541
1.45982
1.44812
3.02459
2.99575
2.97946
2.97014
2.95709
2.92905
2.88298
2.85162
2.84245
2.83459
2.82621
2.81692
2.80711
2.79569
2.7784
2.74056
2.68316
2.64415
2.63226
2.62738
2.62489
2.62171
2.61524
2.60704
2.59758
2.58376
2.55778
2.52079
2.48697
2.46338
2.44878
2.43939
2.43034
2.41859
2.40277
2.38845
2.37469
2.3592
2.34153
2.32146
2.30058
2.28308
2.27547
2.2711
2.26586
2.25814
2.24521
2.22213
2.19215
2.17112
2.16067
2.15418
2.14745
2.13926
2.12905
2.11811
2.10837
2.09937
2.08295
2.05834
2.03854
2.02545
2.01398
2.00352
1.99608
1.99064
1.98467
1.97588
1.96527
1.95507
1.94629
1.9345
1.91622
1.89425
1.87945
1.87207
1.86784
1.86383
1.85926
1.85412
1.84818
1.84156
1.83303
1.8197
1.80142
1.78579
1.77374
1.76196
1.74938
1.73758
1.72893
1.7233
1.71803
1.71198
1.70515
1.696
1.68241
1.66545
1.65407
1.64795
1.64325
1.6387
1.63443
1.63089
1.62708