/*--------------------------------*- C++ -*----------------------------------*\
  =========                 |
  \\      /  F ield         | OpenFOAM: The Open Source CFD Toolbox
   \\    /   O peration     | Website:  https://openfoam.org
    \\  /    A nd           | Version:  7
     \\/     M anipulation  |
\*---------------------------------------------------------------------------*/
FoamFile
{
    version     2.0;
    format      ascii;
    class       volScalarField;
    location    "1.3";
    object      T;
}
// * * * * * * * * * * * * * * * * * * * * * * * * * * * * * * * * * * * * * //

dimensions      [0 0 0 1 0 0 0];

internalField   nonuniform List<scalar> 
4040
(
1
1
1
1
1
1
1
1
1
1
1
1
1
1
1.51657
2.62503
2.75362
2.75044
2.76405
2.79015
2.82237
2.85202
2.87406
2.88689
1
1
1
1
1
1
1
1
1
1
1
1
1
1
1.47934
2.60554
2.75048
2.74817
2.76184
2.78781
2.81949
2.84851
2.86906
2.88089
1
1
1
1
1
1
1
1
1
1
1
1
1
1
1.38893
2.55803
2.74273
2.74333
2.75768
2.78248
2.81113
2.83747
2.85987
2.87833
1
1
1
1
1
1
1
1
1
1
1
1
1
1
1.25153
2.47594
2.72905
2.73533
2.75198
2.77612
2.80392
2.83183
2.85588
2.89424
1
1
1
1
1
1
1
1
1
1
1
1
1
1
1.06799
2.36125
2.71354
2.73012
2.74845
2.77043
2.79301
2.81357
2.81303
2.82514
1
1
1
1
1
1
1
1
1
1
1
1
1
1
1.00161
2.2331
2.69069
2.71372
2.73331
2.75542
2.77328
2.78821
2.78585
2.80484
1
1
1
1
1
1
1
1
1
1
1
1
1
1
1
2.05801
2.66589
2.69803
2.71844
2.73895
2.75147
2.76164
2.76159
2.77313
1
1
1
1
1
1
1
1
1
1
1
1
1
1
1
1.8001
2.60053
2.6722
2.69679
2.71603
2.72754
2.7342
2.73522
2.74678
1
1
1
1
1
1
1
1
1
1
1
1
1
1
1
1.41789
2.47241
2.64455
2.66262
2.68149
2.69383
2.69911
2.69794
2.69567
1
1
1
1
1
1
1
1
1
1
1
1
1
1
1
1.04404
2.31859
2.63222
2.62887
2.63959
2.65177
2.65473
2.64978
2.62954
1
1
1
1
1
1
1
1
1
1
1
1
1
1
1
1.00041
2.09159
2.59095
2.60173
2.6037
2.6104
2.61039
2.60253
2.5755
1
1
1
1
1
1
1
1
1
1
1
1
1
1
1
0.999999
1.66024
2.48854
2.58056
2.57629
2.57667
2.57028
2.55509
2.52641
1
1
1
1
1
1
1
1
1
1
1
1
1
1
1
1
1.1132
2.30056
2.55944
2.55134
2.54522
2.53264
2.51212
2.47966
1
1
1
1
1
1
1
1
1
1
1
1
1
1
1
1
1.00299
2.01629
2.49006
2.52313
2.51547
2.49871
2.47518
2.43865
1
1
1
1
1
1
1
1
1
1
1
1
1
1
1
1
0.999991
1.4362
2.34301
2.49715
2.48423
2.46722
2.44053
2.40437
1
1
1
1
1
1
1
1
1
1
1
1
1
1
1
1
0.999998
1.04275
2.12964
2.45468
2.44623
2.43269
2.41004
2.37709
1
1
1
1
1
1
1
1
1
1
1
1
1
1
1
1
1
1.00031
1.61848
2.33031
2.42442
2.40443
2.3823
2.35186
1
1
1
1
1
1
1
1
1
1
1
1
1
1
1
1
1
1
1.09642
2.11859
2.3946
2.37365
2.35411
2.32605
1
1
1
1
1
1
1
1
1
1
1
1
1
1
1
1
1
1
1.00174
1.60611
2.25359
2.35117
2.32829
2.30253
1
1
1
1
1
1
1
1
1
1
1
1
1
1
1
1
1
1
1
1.09768
2.0308
2.32504
2.30235
2.27647
1
1
1
1
1
1
1
1
1
1
1
1
1
1
1
1
1
1
1
1.00184
1.46626
2.15221
2.27842
2.24943
1
1
1
1
1
1
1
1
1
1
1
1
1
1
1
1
1
1
1
1
1.05393
1.85077
2.23447
2.22366
1
1
1
1
1
1
1
1
1
1
1
1
1
1
1
1
1
1
1
1
1.00069
1.28057
2.02744
2.20546
1
1
1
1
1
1
1
1
1
1
1
1
1
1
1
1
1
1
1
1
1
1.01703
1.56786
2.07486
1
1
1
1
1
1
1
1
1
1
1
1
1
1
1
1
1
1
1
1
1
1.00014
1.09577
1.78567
1
1
1
1
1
1
1
1
1
1
1
1
1
1
1
1
1
1
1
1
1
1
1.00219
1.26008
1
1
1
1
1
1
1
1
1
1
1
1
1
1
1
1
1
1
1
1
1
1
1.00001
1.01547
1
1
1
1
1
1
1
1
1
1
1
1
1
1
1
1
1
1
1
1
1
1
1
1.00015
1
1
1
1
1
1
1
1
1
1
1
1
1
1
1
1
1
1
1
1
1
1
1
1
1
1
1
1
1
1
1
1
1
1
1
1
1
1
1
1
1
1
1
1
1
1
1
1
1
1
1
1
1
1
1
1
1
1
1
1
1
1
1
1
1
1
1
1
1
1
1
1
1
1
1
1
1
1
1
1
1
1
1
1
1
1
1
1
1
1
1
1
1
1
1
1
1
1
1
1
1
1
1
1
1
1
1
1
1
1
1
1
1
1
1
1
1
1
1
1
1
1
1
1
1
1
1
1
1
1
1
1
1
1
1
1
1
1
1
1
1
1
1
1
1
1
1
1
1
1
1
1
1
1
1
1
1
1
1
1
1
1
1
1
1
1
1
1
1
1
1
1
1
1
1
1
1
1
1
1
1
1
1
1
1
1
1
1
1
1
1
1
1
1
1
1
1
1
1
1
1
1
1
1
1
1
1
1
1
1
1
1
1
1
1
1
1
1
1
1
1
1
1
1
1
1
1
1
1
1
1
1
1
1
1
1
1
1
1
1
1
1
1
1
1
1
1
1
1
1
1
1
1
1
1
1
1
1
1
1
1
1
1
1
1
1
1
1
1
1
1
1
1
1
1
1
1
1
1
1
1
1
1
1
1
1
1
1
2.76814
2.82773
2.83727
2.8957
2.80913
2.8567
2.79528
2.88633
2.67674
2.60553
2.58522
2.44699
2.51272
2.35685
2.45328
2.3262
2.41135
2.31045
2.37993
2.30088
2.35368
2.28808
2.33243
2.27672
2.31228
2.26504
2.29115
2.2513
2.27093
2.23579
2.24713
2.21587
2.22526
2.19798
2.20276
2.17814
2.17871
2.15664
2.16128
2.13346
2.10355
2.1144
1.88478
2.08678
1.41886
1.93014
1.04955
1.54961
1.00085
1.10705
1
1.00308
1
1.00002
1
1
1
1
1
1
1
1
1
1
1
1
1
1
1
1
1
1
1.83272
1.31886
1.17171
1.27751
1.36465
1.42524
1.52205
1.57907
1.61063
1.6367
1.70195
1.74937
1.74879
1.74598
1.74858
1.75311
1.76532
1.78091
1.78466
1.76957
1.74894
1.74974
1.76064
1.76478
1.76411
1.75786
1.7444
1.73765
1.73885
1.74326
1.75039
1.75882
1.76311
1.76247
1.759
1.75181
1.74146
1.73499
1.73094
1.72818
1.72941
1.7313
1.72813
1.72155
1.71342
1.70724
1.70558
1.70428
1.70268
1.70219
1.6983
1.69175
1.68713
1.68348
1.67817
1.67299
1.66919
1.67164
1.67989
1.71063
1.77732
1.87921
2.00245
2.12147
2.22991
2.31295
2.37473
2.41529
2.44498
2.45996
2.46765
2.47386
2.47237
2.46526
2.44585
2.4205
2.39639
2.37334
2.34938
2.32716
2.31378
2.30262
2.29256
2.27895
2.26269
2.24034
2.20923
2.18684
2.17146
2.15852
2.14481
2.1318
2.12596
2.12127
2.055
1.7605
1.53829
1.52474
1.50798
1.46983
1.45398
1.42456
1.41808
1.44032
1.49282
1.54852
1.57958
1.59599
1.61312
1.63338
1.65524
1.68263
1.69595
1.69203
1.68682
1.69134
1.70433
1.71429
1.71615
1.71427
1.71026
1.70802
1.70969
1.71486
1.71997
1.72482
1.72631
1.72498
1.72279
1.71962
1.71466
1.71125
1.70928
1.70772
1.70725
1.70685
1.70519
1.70025
1.6944
1.69048
1.68825
1.68622
1.68439
1.68184
1.67678
1.6705
1.66493
1.66201
1.65714
1.65916
1.66806
1.69924
1.76117
1.85548
1.92265
1.97337
2.00973
2.01423
2.01925
2.04282
2.0832
2.12391
2.14357
2.16006
2.17726
2.19918
2.2271
2.25135
2.26824
2.28233
2.28992
2.28634
2.28086
2.27508
2.26652
2.25675
2.24848
2.23617
2.22186
2.20292
2.17945
2.16021
2.14553
2.13214
2.11952
2.10824
2.10318
2.09912
2.10138
1.91579
1.7513
1.64569
1.56272
1.48072
1.42695
1.39687
1.35141
1.35482
1.38771
1.41888
1.43475
1.44669
1.46086
1.48517
1.50994
1.54054
1.56934
1.59161
1.60007
1.61088
1.62823
1.63427
1.63219
1.62838
1.62721
1.62739
1.63087
1.636
1.64101
1.6477
1.64931
1.64905
1.64768
1.64527
1.64463
1.64612
1.64909
1.65308
1.65314
1.65062
1.64742
1.6425
1.63614
1.63342
1.63243
1.6314
1.63008
1.62766
1.62277
1.61602
1.60645
1.60751
1.61864
1.65111
1.72062
1.80802
1.88304
1.93314
1.95948
1.95244
1.93156
1.90987
1.89034
1.88381
1.86436
1.85282
1.85421
1.8661
1.89185
1.93357
1.98084
2.02218
2.0542
2.08244
2.10451
2.11583
2.12422
2.13189
2.13391
2.13494
2.13918
2.1391
2.13462
2.12378
2.10839
2.09347
2.07917
2.06286
2.04768
2.03562
2.02833
2.01961
2.15132
1.99417
1.85732
1.76045
1.66877
1.57043
1.50905
1.47584
1.42377
1.38123
1.3767
1.36468
1.34855
1.35021
1.35724
1.37504
1.39921
1.42702
1.45115
1.48047
1.5004
1.5155
1.53281
1.54732
1.55391
1.55645
1.55772
1.55894
1.56079
1.56134
1.56251
1.56572
1.56774
1.56749
1.56519
1.56411
1.56468
1.56723
1.57242
1.57817
1.5782
1.57649
1.57472
1.57098
1.56514
1.56218
1.56077
1.55944
1.5577
1.555
1.55234
1.55209
1.55847
1.58122
1.64231
1.73111
1.82056
1.86055
1.9026
1.89825
1.88501
1.86715
1.84969
1.83616
1.82052
1.80208
1.78498
1.7717
1.75669
1.7405
1.72542
1.72685
1.73903
1.76427
1.80073
1.84614
1.89039
1.92154
1.94092
1.95905
1.97295
1.98161
1.9883
1.99008
1.9901
1.98765
1.98416
1.98214
1.97481
1.96584
1.96018
1.95639
1.95557
1.9519
2.18277
2.05826
1.93667
1.83898
1.75238
1.65882
1.60441
1.55971
1.50431
1.43787
1.40553
1.37797
1.34446
1.32886
1.33284
1.33993
1.34727
1.36131
1.38268
1.40837
1.43168
1.44775
1.46203
1.47792
1.48856
1.49557
1.50562
1.51479
1.51873
1.51921
1.52083
1.52045
1.51739
1.51273
1.50965
1.50939
1.50951
1.5105
1.51304
1.51778
1.51858
1.51755
1.51575
1.51237
1.50868
1.50669
1.50491
1.50301
1.50099
1.50199
1.50706
1.52936
1.58521
1.67406
1.75424
1.80572
1.851
1.86044
1.8555
1.83677
1.8203
1.81052
1.80036
1.78589
1.77009
1.75774
1.74744
1.73595
1.72343
1.70748
1.69049
1.67976
1.67504
1.67168
1.67203
1.67846
1.69172
1.70972
1.72773
1.74407
1.76584
1.79163
1.81204
1.82888
1.84715
1.86211
1.87069
1.87568
1.8734
1.8696
1.86792
1.86671
1.86775
1.8692
2.20478
2.09951
1.9979
1.91292
1.82875
1.73803
1.67879
1.62764
1.57477
1.51778
1.48072
1.44636
1.40301
1.36921
1.36448
1.352
1.34184
1.34389
1.34655
1.34831
1.35798
1.37559
1.39716
1.42248
1.44266
1.45599
1.46705
1.47644
1.48043
1.48173
1.48411
1.48823
1.49058
1.48998
1.48907
1.48828
1.48655
1.48322
1.47923
1.47815
1.47632
1.47336
1.47252
1.47179
1.47146
1.47217
1.47297
1.47373
1.47593
1.4949
1.54703
1.63966
1.73627
1.78526
1.81045
1.83419
1.83647
1.82815
1.81047
1.79679
1.7891
1.77662
1.75997
1.74607
1.73836
1.73339
1.72567
1.71604
1.70624
1.69238
1.67334
1.66151
1.65639
1.65233
1.64821
1.64378
1.63847
1.63142
1.62259
1.60992
1.59962
1.60312
1.61685
1.63924
1.66675
1.69785
1.72408
1.74419
1.75905
1.76778
1.77567
1.78059
1.78294
1.78851
2.21207
2.12916
2.04138
1.96365
1.88374
1.80509
1.74915
1.69787
1.63276
1.57433
1.53937
1.50466
1.46425
1.42838
1.41026
1.38777
1.36114
1.34585
1.34145
1.33541
1.33498
1.33905
1.34793
1.36408
1.38845
1.41333
1.43132
1.44539
1.4505
1.45502
1.45877
1.46409
1.46797
1.46968
1.47485
1.47599
1.47453
1.47019
1.46371
1.45796
1.45374
1.44964
1.44868
1.44833
1.44894
1.45133
1.45528
1.4671
1.50981
1.60151
1.71018
1.78267
1.81145
1.82868
1.83126
1.8254
1.81072
1.79379
1.78455
1.77824
1.76581
1.74517
1.72929
1.72215
1.71952
1.71434
1.70638
1.69946
1.69162
1.67984
1.66295
1.64845
1.64237
1.63766
1.63128
1.62447
1.61681
1.60704
1.59719
1.58631
1.56906
1.55133
1.54213
1.53682
1.53781
1.54269
1.55136
1.56233
1.57617
1.59196
1.61042
1.6293
1.64488
1.67596
2.21298
2.14359
2.07172
2.00419
1.93209
1.86058
1.80228
1.74947
1.69185
1.63954
1.59989
1.56088
1.51421
1.4832
1.46469
1.44171
1.41215
1.38778
1.37298
1.35465
1.33971
1.33853
1.34081
1.34091
1.34456
1.35794
1.37723
1.39487
1.41044
1.42453
1.43248
1.44056
1.44559
1.44962
1.45703
1.45918
1.45829
1.45485
1.45104
1.44651
1.44247
1.43965
1.43698
1.43734
1.43954
1.44858
1.4812
1.56168
1.68171
1.76279
1.80507
1.83183
1.83669
1.83319
1.81876
1.80153
1.78752
1.77937
1.77368
1.76272
1.74577
1.72541
1.71076
1.70555
1.69878
1.69061
1.68463
1.67945
1.67314
1.66609
1.65667
1.63936
1.62511
1.61879
1.61327
1.60614
1.59551
1.58352
1.57271
1.56292
1.55136
1.53412
1.51776
1.50785
1.50073
1.49338
1.48603
1.48026
1.47822
1.47781
1.47632
1.47332
1.47577
1.49745
2.21063
2.15011
2.08981
2.03028
1.96301
1.90126
1.85079
1.79769
1.73423
1.68812
1.65008
1.61217
1.56884
1.53731
1.51242
1.48386
1.45116
1.42787
1.40975
1.38842
1.36075
1.34672
1.34548
1.33996
1.3396
1.34149
1.34438
1.3487
1.35268
1.36377
1.38141
1.39883
1.41515
1.42533
1.4375
1.44307
1.44255
1.44051
1.4378
1.43491
1.43397
1.43304
1.43343
1.43794
1.46795
1.5476
1.66303
1.75947
1.8047
1.82431
1.83855
1.83715
1.8257
1.80861
1.79368
1.78336
1.77861
1.77079
1.75889
1.74423
1.72738
1.71419
1.70094
1.68552
1.67423
1.66627
1.66045
1.65523
1.64977
1.6456
1.64066
1.62921
1.60704
1.5899
1.57982
1.56996
1.55901
1.54943
1.541
1.53371
1.5273
1.51876
1.50299
1.48385
1.47101
1.46303
1.45568
1.44953
1.44639
1.44488
1.44186
1.43491
1.42377
1.40595
2.20432
2.15204
2.10116
2.04803
1.98924
1.93386
1.88326
1.83196
1.77803
1.73569
1.69518
1.65238
1.60845
1.58385
1.55948
1.53186
1.49659
1.472
1.4513
1.4288
1.39954
1.38442
1.37721
1.36436
1.34837
1.34489
1.34354
1.3348
1.32553
1.32578
1.33188
1.34568
1.36639
1.38802
1.4065
1.42319
1.42573
1.4246
1.42254
1.42095
1.42107
1.42526
1.44499
1.51071
1.63965
1.76126
1.81164
1.83508
1.84875
1.84872
1.83826
1.8188
1.7981
1.78254
1.77533
1.76964
1.75909
1.74845
1.73742
1.72581
1.71519
1.70219
1.68275
1.65842
1.64481
1.63928
1.63359
1.62794
1.62339
1.61887
1.61383
1.60626
1.58905
1.56268
1.54473
1.53337
1.52291
1.51485
1.51079
1.50385
1.49771
1.49197
1.48205
1.46218
1.44254
1.43183
1.4242
1.41788
1.41557
1.41668
1.41525
1.40923
1.39891
1.37569
2.19449
2.14901
2.10425
2.05666
2.00317
1.95496
1.91019
1.85997
1.80838
1.76989
1.732
1.69255
1.65121
1.62337
1.59461
1.56526
1.53535
1.51471
1.49282
1.4683
1.43561
1.41858
1.40573
1.3888
1.36624
1.35399
1.34677
1.33437
1.32156
1.31983
1.32118
1.32218
1.32611
1.33576
1.35022
1.36816
1.3814
1.39033
1.39796
1.40037
1.40935
1.45471
1.56931
1.71975
1.80861
1.84619
1.8571
1.85404
1.84588
1.83405
1.81648
1.79346
1.77454
1.76627
1.75548
1.74214
1.73085
1.72237
1.71469
1.70693
1.69415
1.67856
1.6583
1.63215
1.61598
1.60928
1.60423
1.60007
1.59375
1.58659
1.57994
1.57278
1.56193
1.54099
1.51479
1.498
1.48676
1.48076
1.4801
1.47361
1.46643
1.46081
1.45302
1.4396
1.41985
1.40266
1.39365
1.38737
1.38358
1.38371
1.38488
1.38185
1.37279
1.35114
2.17926
2.1407
2.10159
2.05866
2.01331
1.9703
1.92719
1.88022
1.8373
1.80087
1.7632
1.71948
1.68419
1.65938
1.63177
1.59953
1.56608
1.54592
1.52371
1.5009
1.47389
1.45737
1.44074
1.4206
1.39519
1.37921
1.36917
1.35423
1.33602
1.32677
1.32578
1.32133
1.31231
1.31115
1.31363
1.31718
1.32467
1.33819
1.36311
1.38967
1.47107
1.63337
1.75715
1.84797
1.867
1.85967
1.84946
1.84125
1.83197
1.81806
1.8011
1.78366
1.76269
1.74137
1.72532
1.71226
1.70134
1.69305
1.68619
1.67786
1.66286
1.64658
1.63022
1.61159
1.59172
1.58004
1.57339
1.5663
1.55712
1.54772
1.53937
1.53282
1.52594
1.51483
1.49541
1.47248
1.45635
1.44615
1.43857
1.4311
1.42553
1.42133
1.41716
1.40975
1.39808
1.38194
1.36601
1.35803
1.35414
1.34992
1.34628
1.3452
1.34202
1.32426
2.16503
2.13026
2.09586
2.0578
2.01753
1.97966
1.94042
1.89678
1.858
1.82367
1.78755
1.74707
1.71362
1.68574
1.65709
1.6259
1.59803
1.57672
1.55332
1.52526
1.49994
1.48704
1.47034
1.45115
1.42597
1.40817
1.39267
1.37495
1.35187
1.3359
1.33261
1.32432
1.31123
1.30522
1.30559
1.3026
1.30262
1.30881
1.35387
1.47963
1.65843
1.77868
1.82546
1.84055
1.83552
1.82156
1.80493
1.79386
1.79371
1.78586
1.77244
1.75814
1.73923
1.7147
1.69525
1.68281
1.67197
1.66171
1.65285
1.64059
1.62434
1.60871
1.59692
1.58702
1.57469
1.5566
1.54102
1.53055
1.52078
1.511
1.50223
1.4949
1.48843
1.48121
1.47187
1.45694
1.43483
1.41572
1.40414
1.3951
1.3886
1.38394
1.37927
1.37591
1.36924
1.35859
1.34502
1.32883
1.3192
1.31529
1.31129
1.30607
1.30349
1.29487
2.14882
2.11825
2.08651
2.05187
2.01704
1.98387
1.94715
1.90661
1.87387
1.8413
1.80521
1.76479
1.73748
1.70986
1.68063
1.64554
1.62083
1.59989
1.5766
1.55075
1.52765
1.51283
1.4942
1.47347
1.4504
1.43514
1.41886
1.40107
1.37725
1.35997
1.35369
1.34254
1.32557
1.31053
1.30809
1.30671
1.31858
1.38566
1.54509
1.68814
1.76894
1.78613
1.78114
1.77096
1.75396
1.73832
1.73151
1.72856
1.72772
1.72746
1.7248
1.71764
1.70609
1.69039
1.67384
1.6577
1.64183
1.62718
1.6128
1.59785
1.58497
1.57422
1.56577
1.55737
1.54891
1.53673
1.51772
1.50018
1.4872
1.4757
1.4665
1.45935
1.45594
1.45053
1.44253
1.43189
1.41608
1.39282
1.3733
1.36181
1.3552
1.35105
1.34637
1.34356
1.34144
1.3319
1.31944
1.30592
1.2901
1.28258
1.27937
1.27514
1.27063
1.2638
2.13139
2.10428
2.07499
2.04368
2.01349
1.98262
1.94848
1.91299
1.88344
1.85316
1.81755
1.78085
1.75517
1.72781
1.69844
1.6653
1.64458
1.62159
1.59707
1.56771
1.55058
1.53673
1.51798
1.49615
1.47209
1.4571
1.43975
1.422
1.39977
1.38484
1.37583
1.36203
1.34334
1.32371
1.31502
1.33971
1.44036
1.62108
1.73327
1.77538
1.76952
1.75401
1.7331
1.71047
1.6874
1.66884
1.66106
1.6592
1.65594
1.65754
1.65782
1.65818
1.65857
1.65114
1.63851
1.62274
1.60563
1.58928
1.57137
1.55795
1.55078
1.54732
1.54109
1.53137
1.5219
1.51155
1.49759
1.47924
1.46069
1.44564
1.43489
1.42723
1.42114
1.41525
1.40634
1.39816
1.38805
1.37193
1.35077
1.33477
1.32645
1.32202
1.31818
1.31402
1.31151
1.30544
1.29322
1.2811
1.26859
1.25632
1.25143
1.24827
1.24468
1.23757
2.10885
2.08582
2.05962
2.03138
2.0053
1.978
1.94676
1.91589
1.88826
1.85885
1.8247
1.79331
1.76911
1.74256
1.71128
1.68083
1.662
1.6402
1.61638
1.58745
1.57095
1.55409
1.53442
1.51177
1.49281
1.47907
1.46125
1.44285
1.41919
1.40545
1.39538
1.3812
1.36365
1.36357
1.40653
1.53827
1.68511
1.78964
1.78442
1.77478
1.75477
1.73055
1.70492
1.67943
1.65884
1.63713
1.61956
1.60723
1.59839
1.59168
1.58674
1.58379
1.58664
1.59199
1.59293
1.58158
1.55766
1.54215
1.53349
1.52414
1.51781
1.51632
1.51006
1.50218
1.49501
1.48648
1.4745
1.45939
1.44225
1.42455
1.40936
1.39852
1.38933
1.37947
1.36926
1.36061
1.35316
1.3453
1.33338
1.31846
1.30459
1.29648
1.29172
1.28641
1.27891
1.27081
1.2633
1.2543
1.24633
1.23818
1.22964
1.22619
1.22374
1.2158
2.0948
2.07206
2.0478
2.02259
1.99828
1.97288
1.94315
1.91709
1.89157
1.86435
1.83123
1.8049
1.78037
1.75368
1.72293
1.69763
1.67911
1.65639
1.63067
1.60448
1.58995
1.57235
1.55228
1.52453
1.50721
1.49459
1.47796
1.46114
1.44043
1.42465
1.41328
1.39848
1.41263
1.49129
1.66083
1.77903
1.81715
1.8087
1.78635
1.76877
1.74585
1.71467
1.68774
1.66613
1.6485
1.62973
1.60707
1.58566
1.57065
1.55852
1.54735
1.53912
1.53394
1.52747
1.52237
1.51498
1.49993
1.48733
1.48654
1.48293
1.47406
1.46977
1.46505
1.45844
1.45428
1.45094
1.44585
1.43601
1.42156
1.40655
1.39172
1.37682
1.3634
1.35209
1.34067
1.33011
1.32071
1.31308
1.30699
1.29955
1.28921
1.2765
1.26674
1.26001
1.2526
1.24412
1.23727
1.23227
1.2241
1.21649
1.21022
1.20362
1.20111
1.19392
2.07902
2.05712
2.03524
2.01272
1.98952
1.96503
1.93859
1.91441
1.89082
1.86403
1.83394
1.81218
1.78957
1.76371
1.7298
1.70913
1.69136
1.67005
1.64403
1.62052
1.60473
1.5847
1.56407
1.53881
1.52462
1.51138
1.49342
1.47477
1.45406
1.44158
1.43764
1.47181
1.60312
1.7671
1.85707
1.86067
1.8438
1.8166
1.787
1.75637
1.72891
1.69895
1.67804
1.66342
1.65011
1.63405
1.60798
1.57232
1.54691
1.53234
1.52017
1.50929
1.49806
1.48887
1.48252
1.4735
1.45604
1.43564
1.42371
1.42079
1.41845
1.41977
1.41927
1.41154
1.40619
1.40481
1.40399
1.39949
1.39174
1.38138
1.37
1.35685
1.34265
1.32892
1.31668
1.30576
1.29522
1.28583
1.27885
1.27363
1.26843
1.25854
1.24699
1.23739
1.2288
1.21944
1.21075
1.20331
1.19502
1.18919
1.18701
1.18209
1.17627
1.17033
2.0566
2.04253
2.01906
1.99785
1.97747
1.95469
1.93043
1.90796
1.88702
1.86248
1.83591
1.81338
1.7921
1.76841
1.74008
1.72061
1.70157
1.67924
1.65056
1.63175
1.61695
1.59821
1.57503
1.54834
1.5381
1.52357
1.50663
1.48963
1.47038
1.47852
1.54932
1.71089
1.84711
1.91291
1.90603
1.88502
1.84585
1.79907
1.76484
1.73862
1.71521
1.69743
1.68234
1.6685
1.65078
1.62749
1.59708
1.56271
1.53834
1.52192
1.50804
1.49452
1.48042
1.4659
1.45208
1.44034
1.4306
1.41794
1.4011
1.38312
1.36987
1.36367
1.36063
1.35495
1.35178
1.35236
1.35612
1.35371
1.34762
1.34335
1.33724
1.32602
1.31294
1.30337
1.29526
1.28679
1.27517
1.26305
1.25475
1.24824
1.24063
1.23367
1.22594
1.21866
1.20978
1.19962
1.18991
1.18161
1.17305
1.1654
1.16102
1.15792
1.15238
1.14654
1.94493
2.02674
2.0084
1.98316
1.96285
1.94251
1.92064
1.90035
1.88005
1.85654
1.83334
1.81481
1.7949
1.7699
1.7428
1.72708
1.70846
1.68638
1.65866
1.64001
1.62445
1.60598
1.58421
1.56217
1.55129
1.53483
1.51704
1.50624
1.53528
1.66521
1.82357
1.92943
1.94337
1.93108
1.89801
1.85944
1.82136
1.78484
1.75399
1.73405
1.71927
1.70265
1.68399
1.66362
1.64014
1.61382
1.58713
1.56314
1.54068
1.52075
1.50429
1.48899
1.47281
1.45519
1.43762
1.42258
1.40952
1.39732
1.38209
1.3603
1.34532
1.33737
1.32836
1.31643
1.30522
1.30351
1.30499
1.30269
1.29732
1.29218
1.28664
1.2789
1.2744
1.27016
1.26371
1.25829
1.25074
1.23712
1.22587
1.21585
1.2049
1.20246
1.20204
1.19958
1.1941
1.18582
1.17494
1.16334
1.15379
1.14582
1.14082
1.13591
1.12924
1.12318
1.64028
1.93776
1.99614
1.97515
1.94976
1.92826
1.90949
1.89156
1.87187
1.84963
1.83027
1.81255
1.79363
1.77056
1.74779
1.7316
1.71263
1.68786
1.65974
1.64581
1.63184
1.61474
1.58991
1.57092
1.55991
1.54531
1.5494
1.61097
1.77661
1.93556
1.97695
1.96927
1.94851
1.91419
1.87558
1.84127
1.81035
1.78424
1.75837
1.73226
1.71289
1.69379
1.67295
1.65062
1.62738
1.60503
1.58452
1.56526
1.54501
1.52225
1.49894
1.47665
1.45717
1.44316
1.43092
1.41729
1.40129
1.38453
1.3663
1.34483
1.3263
1.31358
1.30291
1.29115
1.28183
1.27808
1.27274
1.26574
1.25909
1.25
1.24027
1.23283
1.22571
1.22332
1.22366
1.22465
1.22211
1.21252
1.202
1.19051
1.17742
1.17194
1.16987
1.16853
1.16696
1.16283
1.15568
1.14597
1.1355
1.12652
1.11917
1.11289
1.1087
1.10329
1.17627
1.69355
1.91785
1.96496
1.94519
1.91801
1.89607
1.88008
1.86294
1.84214
1.82402
1.80895
1.79099
1.76774
1.74732
1.73311
1.71489
1.69112
1.66547
1.64962
1.63537
1.61833
1.59386
1.57995
1.57042
1.5992
1.71962
1.88782
2.01272
2.02302
2.00416
1.96527
1.92563
1.89022
1.85508
1.826
1.80429
1.78295
1.75761
1.72938
1.70404
1.68178
1.65971
1.63785
1.61652
1.59508
1.57489
1.55663
1.53839
1.51806
1.4947
1.47077
1.45103
1.43473
1.41816
1.40288
1.3897
1.37654
1.3614
1.34357
1.32195
1.29927
1.28283
1.26997
1.26202
1.25586
1.24967
1.24438
1.23923
1.22876
1.2097
1.19861
1.19379
1.19022
1.18853
1.18408
1.17802
1.17435
1.16837
1.15924
1.14826
1.14124
1.13819
1.1371
1.13773
1.1377
1.13312
1.12456
1.11528
1.10804
1.1001
1.09431
1.09173
1.08753
1.00793
1.24175
1.71647
1.89945
1.93353
1.91453
1.88909
1.87049
1.85243
1.83299
1.81735
1.80295
1.78596
1.76406
1.74645
1.7323
1.713
1.68925
1.66871
1.65496
1.64018
1.62256
1.598
1.60168
1.66025
1.83631
1.99804
2.06086
2.04552
2.01475
1.97024
1.93022
1.89886
1.86952
1.83988
1.81382
1.79415
1.77433
1.75053
1.7231
1.69577
1.67183
1.65083
1.63069
1.60918
1.58526
1.56154
1.54124
1.52328
1.50578
1.48647
1.46597
1.44844
1.43362
1.41752
1.39869
1.37932
1.36198
1.3473
1.33428
1.31884
1.29661
1.27303
1.25428
1.24224
1.23465
1.23098
1.22837
1.22362
1.21392
1.19645
1.18125
1.17592
1.1712
1.16499
1.1571
1.15031
1.1455
1.13783
1.12742
1.11605
1.10784
1.10476
1.10438
1.10667
1.10521
1.09976
1.09371
1.08838
1.08332
1.07627
1.06982
1.06902
1.06832
1.00006
1.01556
1.29171
1.72261
1.87892
1.90466
1.88605
1.86423
1.8443
1.8245
1.81023
1.79594
1.77945
1.75764
1.74325
1.72966
1.71169
1.68745
1.66987
1.65445
1.64133
1.62928
1.65201
1.77917
1.95036
2.07078
2.08639
2.07055
2.0346
1.99101
1.94668
1.91108
1.88438
1.8595
1.83436
1.80822
1.78165
1.75696
1.73309
1.70859
1.68416
1.66118
1.63988
1.61935
1.59838
1.57606
1.55307
1.53094
1.51018
1.49128
1.47335
1.45382
1.43234
1.41411
1.40054
1.38776
1.37444
1.36017
1.34503
1.32861
1.31076
1.29124
1.26894
1.2506
1.23766
1.22771
1.22103
1.21587
1.21092
1.20301
1.18792
1.17312
1.16529
1.15834
1.14911
1.1404
1.13489
1.12942
1.12035
1.11035
1.10112
1.08875
1.08022
1.07757
1.07651
1.0718
1.06532
1.06029
1.05565
1.05138
1.04716
1.0412
1.03877
1.03965
1
1.00017
1.02472
1.32221
1.72291
1.8533
1.8763
1.86214
1.83934
1.81752
1.80254
1.78764
1.77168
1.75287
1.73876
1.72441
1.7065
1.68444
1.66719
1.65503
1.6592
1.7248
1.92124
2.07276
2.12374
2.11354
2.0842
2.04598
2.00693
1.97081
1.93609
1.90187
1.87141
1.84388
1.81773
1.7914
1.76507
1.74014
1.71643
1.69308
1.66929
1.64479
1.62083
1.59944
1.5807
1.56314
1.54419
1.52237
1.49998
1.47998
1.46307
1.44543
1.42064
1.39563
1.38121
1.37065
1.36125
1.35245
1.34203
1.32711
1.30642
1.28148
1.26273
1.24978
1.23865
1.22963
1.22217
1.2146
1.20426
1.18958
1.17747
1.17038
1.16254
1.15282
1.13943
1.12958
1.12517
1.12068
1.11203
1.10178
1.09304
1.08049
1.06791
1.0633
1.05879
1.05186
1.0448
1.03873
1.0331
1.02688
1.02036
1.01336
1.01012
1.00962
1
1
1.00033
1.03281
1.34374
1.70449
1.8241
1.85442
1.83882
1.81323
1.79641
1.78225
1.76566
1.74663
1.73342
1.71755
1.69936
1.68054
1.66964
1.69681
1.84044
2.02274
2.17599
2.18307
2.15237
2.09725
2.05326
2.01253
1.97611
1.94517
1.91652
1.88575
1.85469
1.82565
1.79879
1.77239
1.74589
1.72062
1.69698
1.67471
1.653
1.63003
1.6058
1.58287
1.56274
1.54584
1.52954
1.50993
1.48864
1.4687
1.44984
1.4316
1.41183
1.3901
1.37388
1.36306
1.3522
1.34178
1.33322
1.32436
1.3079
1.28017
1.25567
1.2439
1.23698
1.2316
1.22564
1.21668
1.20308
1.18681
1.17702
1.17077
1.16521
1.15223
1.13347
1.12321
1.11849
1.11498
1.10991
1.10137
1.08907
1.07396
1.06216
1.05671
1.0506
1.04258
1.03457
1.0274
1.02081
1.014
1.00671
0.999303
0.994072
0.987891
1
1
1
1.00053
1.03967
1.34625
1.67811
1.81211
1.83154
1.81383
1.79369
1.77811
1.7593
1.7421
1.72901
1.71061
1.68945
1.69156
1.76306
1.96538
2.15771
2.18858
2.17505
2.14669
2.10336
2.05953
2.02003
1.98359
1.95279
1.92502
1.89654
1.86555
1.83349
1.80324
1.77625
1.75165
1.72791
1.70464
1.6814
1.65718
1.63306
1.61008
1.58735
1.5662
1.54753
1.53005
1.51453
1.4975
1.47653
1.45654
1.43819
1.41919
1.39958
1.38481
1.37526
1.36582
1.35262
1.33876
1.32651
1.31394
1.29812
1.27956
1.26208
1.24914
1.23856
1.22985
1.22182
1.21185
1.19933
1.1903
1.18487
1.17813
1.16489
1.14525
1.12818
1.12158
1.1173
1.11232
1.10532
1.096
1.08364
1.0687
1.05944
1.05447
1.04819
1.03971
1.03095
1.02335
1.01645
1.00998
1.00277
0.995254
0.98955
0.982054
1
1
1
1
1.0007
1.04303
1.32726
1.67152
1.79334
1.80513
1.79383
1.77682
1.7517
1.73356
1.71965
1.70937
1.72292
1.8675
2.09866
2.22355
2.23708
2.21028
2.16085
2.10852
2.06371
2.02746
1.99533
1.96338
1.93309
1.90498
1.87691
1.84673
1.81463
1.78323
1.75494
1.73014
1.70783
1.68676
1.66549
1.64275
1.61914
1.59599
1.57317
1.55288
1.53584
1.51915
1.50291
1.48996
1.47949
1.46373
1.44304
1.42117
1.40025
1.38231
1.36685
1.35833
1.35278
1.34441
1.33175
1.31536
1.29897
1.2859
1.27508
1.26128
1.24641
1.2325
1.22116
1.21226
1.20523
1.19935
1.19093
1.17594
1.15704
1.14674
1.14057
1.13448
1.12755
1.11913
1.10814
1.09487
1.08276
1.07371
1.06701
1.06084
1.0527
1.04189
1.03068
1.02321
1.0177
1.01155
1.00456
0.997065
0.991235
0.982665
1
1
1
1
1
1.00081
1.04001
1.3139
1.66555
1.75631
1.78073
1.771
1.74448
1.7278
1.72265
1.77755
2.00585
2.22429
2.25861
2.22634
2.19429
2.16033
2.12098
2.08086
2.0427
2.00696
1.97436
1.94293
1.91261
1.88448
1.85639
1.82623
1.79458
1.76412
1.73727
1.71442
1.69422
1.6748
1.65464
1.63279
1.60953
1.5868
1.56701
1.55142
1.53653
1.51972
1.50218
1.48617
1.46978
1.45179
1.43316
1.41699
1.4035
1.38739
1.37021
1.35635
1.3439
1.33183
1.32034
1.30877
1.29644
1.28345
1.26679
1.24726
1.233
1.2251
1.2181
1.21037
1.20311
1.19653
1.18842
1.1748
1.15444
1.13919
1.13164
1.12497
1.1179
1.11037
1.10181
1.09195
1.08102
1.06927
1.05794
1.04903
1.04099
1.03229
1.02361
1.01598
1.00969
1.004
0.99775
0.989635
0.982516
0.972505
1
1
1
1
1
1
1.00078
1.03625
1.32263
1.61823
1.72511
1.75302
1.74784
1.75156
1.85869
2.11434
2.32283
2.32033
2.28458
2.21258
2.15063
2.11159
2.08113
2.05115
2.01798
1.9836
1.95162
1.92292
1.89532
1.86675
1.83835
1.80856
1.77838
1.75033
1.72555
1.70388
1.68455
1.66618
1.64734
1.62666
1.60414
1.58171
1.56175
1.54467
1.52878
1.51282
1.49673
1.48031
1.46302
1.44692
1.43287
1.41846
1.40149
1.38264
1.36583
1.35165
1.33875
1.32724
1.31706
1.30718
1.29596
1.28217
1.26422
1.24267
1.22848
1.22235
1.21646
1.2098
1.20341
1.19716
1.18889
1.17401
1.15237
1.1375
1.12948
1.1224
1.1151
1.10748
1.09924
1.09048
1.08133
1.07022
1.05696
1.04616
1.03762
1.02897
1.02035
1.01281
1.00678
1.00195
0.996696
0.988792
0.981233
0.970425
1
1
1
1
1
1
1
1.00073
1.03809
1.28369
1.56696
1.67787
1.78855
1.95619
2.18928
2.29676
2.28684
2.26193
2.22677
2.18345
2.13912
2.09847
2.06489
2.03402
2.00152
1.96925
1.93984
1.91403
1.89291
1.87253
1.84664
1.81777
1.78947
1.76335
1.73952
1.71803
1.69848
1.67963
1.65988
1.63798
1.61453
1.59197
1.57185
1.55397
1.5376
1.52131
1.50462
1.48837
1.47322
1.45901
1.44436
1.42772
1.40922
1.3904
1.37324
1.35927
1.34799
1.33783
1.32783
1.31718
1.30541
1.29134
1.27125
1.24873
1.23934
1.23378
1.22738
1.2204
1.2139
1.2074
1.19856
1.18296
1.16095
1.1453
1.13715
1.13036
1.12315
1.11558
1.10804
1.1009
1.09333
1.08165
1.06429
1.05112
1.04314
1.03553
1.02765
1.02058
1.01505
1.01062
1.0051
0.995884
0.986942
0.975121
1
1
1
1
1
1
1
1
1.00072
1.03164
1.24394
1.63508
1.97992
2.32946
2.51726
2.47255
2.33287
2.23544
2.18081
2.15445
2.1219
2.08451
2.04728
2.01258
1.98209
1.95656
1.9353
1.91542
1.89232
1.86334
1.83245
1.80265
1.77545
1.75052
1.72707
1.70519
1.68505
1.66603
1.6465
1.62466
1.60066
1.57704
1.55616
1.53878
1.5236
1.50814
1.49143
1.47469
1.45958
1.44589
1.4314
1.4143
1.39482
1.37516
1.35817
1.34522
1.33505
1.32609
1.31688
1.30653
1.29462
1.27851
1.25358
1.23344
1.2274
1.22296
1.2176
1.21135
1.20482
1.19774
1.18732
1.16857
1.14597
1.13277
1.12609
1.12001
1.11344
1.10683
1.10052
1.09397
1.08504
1.06919
1.04925
1.03899
1.03284
1.02612
1.01868
1.01175
1.00602
1.00111
0.994471
0.985051
0.978127
0.967522
)
;

boundaryField
{
    inlet
    {
        type            fixedValue;
        value           uniform 1;
    }
    outlet
    {
        type            inletOutlet;
        inletValue      uniform 1;
        value           nonuniform List<scalar> 
32
(
2.12269
2.10067
2.02117
1.95294
1.86863
1.78692
1.6713
1.49265
1.40444
1.37372
1.34928
1.3226
1.29467
1.26503
1.23848
1.21566
1.19365
1.17041
1.14703
1.12395
1.10368
1.08771
1.06873
1.0399
1.00974
0.987967
0.982131
0.98277
0.972554
0.970429
0.975121
0.967556
)
;
    }
    bottom
    {
        type            zeroGradient;
    }
    top
    {
        type            zeroGradient;
    }
    obstacle
    {
        type            zeroGradient;
    }
    defaultFaces
    {
        type            empty;
    }
}


// ************************************************************************* //
