/*--------------------------------*- C++ -*----------------------------------*\
  =========                 |
  \\      /  F ield         | OpenFOAM: The Open Source CFD Toolbox
   \\    /   O peration     | Website:  https://openfoam.org
    \\  /    A nd           | Version:  7
     \\/     M anipulation  |
\*---------------------------------------------------------------------------*/
FoamFile
{
    version     2.0;
    format      ascii;
    class       volVectorField;
    location    "3.8";
    object      U;
}
// * * * * * * * * * * * * * * * * * * * * * * * * * * * * * * * * * * * * * //

dimensions      [0 1 -1 0 0 0 0];

internalField   nonuniform List<vector> 
3328
(
(-0.111667 -0.00329404 0)
(0.515353 -0.00569816 0)
(0.558113 0.00243224 0)
(0.541158 0.00270736 0)
(0.527398 0.00395609 0)
(0.517877 0.00431931 0)
(0.516782 0.0064855 0)
(0.515211 0.0060574 0)
(0.51855 0.00802402 0)
(0.511651 0.00864472 0)
(0.493843 0.00981255 0)
(0.461599 0.0105802 0)
(0.419392 0.0112067 0)
(0.384528 0.012136 0)
(0.358549 0.0137067 0)
(0.335577 0.0147577 0)
(0.317795 0.0159323 0)
(0.301032 0.0171924 0)
(0.276328 0.0194678 0)
(0.240946 0.0218218 0)
(0.192767 0.0243968 0)
(0.131058 0.026504 0)
(0.072996 0.0271705 0)
(0.032924 0.0296211 0)
(-0.109061 -0.00682635 0)
(0.517133 -0.0112055 0)
(0.55907 0.00885727 0)
(0.542147 0.0102217 0)
(0.527586 0.0140122 0)
(0.516404 0.014582 0)
(0.515146 0.019308 0)
(0.512734 0.0186718 0)
(0.516191 0.0212487 0)
(0.509601 0.0238643 0)
(0.491959 0.027204 0)
(0.460122 0.0297667 0)
(0.418402 0.0326215 0)
(0.383582 0.0362859 0)
(0.357344 0.0418671 0)
(0.333527 0.0454865 0)
(0.315203 0.0487697 0)
(0.298139 0.0514353 0)
(0.274047 0.0572066 0)
(0.23919 0.0632779 0)
(0.191147 0.0706137 0)
(0.129163 0.077419 0)
(0.0706731 0.0793284 0)
(0.031926 0.0859392 0)
(-0.106619 -0.0114931 0)
(0.519036 -0.0168391 0)
(0.561941 0.0111129 0)
(0.545304 0.0137463 0)
(0.531226 0.0207299 0)
(0.518312 0.0225031 0)
(0.517424 0.0300812 0)
(0.514391 0.0302174 0)
(0.517957 0.034104 0)
(0.511333 0.0394646 0)
(0.493821 0.0453192 0)
(0.46258 0.0498421 0)
(0.42176 0.0548174 0)
(0.387253 0.0605453 0)
(0.361086 0.0692405 0)
(0.336407 0.0752349 0)
(0.317687 0.0811313 0)
(0.300443 0.0855727 0)
(0.277495 0.0947316 0)
(0.243511 0.104261 0)
(0.194929 0.115624 0)
(0.131878 0.127042 0)
(0.0712385 0.130027 0)
(0.0320444 0.140522 0)
(-0.103589 -0.015447 0)
(0.521327 -0.0214559 0)
(0.565624 0.0104683 0)
(0.549548 0.0141165 0)
(0.535612 0.0248702 0)
(0.520436 0.0285523 0)
(0.519502 0.0390682 0)
(0.515613 0.0405445 0)
(0.519456 0.0463683 0)
(0.513328 0.0545468 0)
(0.496534 0.0630675 0)
(0.466801 0.0697805 0)
(0.427905 0.0760227 0)
(0.394667 0.0842937 0)
(0.369052 0.0956142 0)
(0.34337 0.103972 0)
(0.323944 0.112993 0)
(0.305868 0.119621 0)
(0.283388 0.132394 0)
(0.24976 0.146458 0)
(0.199919 0.161718 0)
(0.136565 0.177574 0)
(0.0739115 0.181507 0)
(0.0328566 0.194701 0)
(-0.101715 -0.0186348 0)
(0.523444 -0.0245621 0)
(0.570643 0.00771666 0)
(0.55528 0.0117542 0)
(0.542433 0.0255607 0)
(0.524482 0.0321301 0)
(0.52282 0.0454686 0)
(0.517989 0.0495311 0)
(0.522245 0.0568966 0)
(0.517313 0.067513 0)
(0.501555 0.0782643 0)
(0.473988 0.08753 0)
(0.437341 0.0964494 0)
(0.405951 0.106814 0)
(0.381149 0.120313 0)
(0.354528 0.131153 0)
(0.334583 0.143861 0)
(0.316482 0.153426 0)
(0.296273 0.16886 0)
(0.265686 0.185455 0)
(0.217186 0.203292 0)
(0.154112 0.225 0)
(0.0862605 0.234695 0)
(0.0385418 0.253974 0)
(-0.101432 -0.0192859 0)
(0.5258 -0.0251871 0)
(0.57707 0.00378986 0)
(0.562532 0.00784234 0)
(0.550564 0.0233297 0)
(0.530795 0.0324881 0)
(0.527781 0.0491345 0)
(0.522142 0.0561182 0)
(0.526026 0.0658366 0)
(0.522196 0.0786911 0)
(0.507326 0.0917408 0)
(0.482644 0.104441 0)
(0.448574 0.115307 0)
(0.419349 0.128025 0)
(0.395564 0.143278 0)
(0.369204 0.156284 0)
(0.349321 0.172378 0)
(0.331707 0.185155 0)
(0.312717 0.202893 0)
(0.284253 0.223787 0)
(0.234605 0.246974 0)
(0.170754 0.279725 0)
(0.0979453 0.301315 0)
(0.0383264 0.328351 0)
(-0.101955 -0.0176805 0)
(0.527319 -0.0231859 0)
(0.583082 -0.000726969 0)
(0.569747 0.00274508 0)
(0.558829 0.0186568 0)
(0.538884 0.0304085 0)
(0.534215 0.0494194 0)
(0.528683 0.0603438 0)
(0.530551 0.0726994 0)
(0.527519 0.0878435 0)
(0.513358 0.102782 0)
(0.492701 0.1191 0)
(0.461096 0.13172 0)
(0.43443 0.146802 0)
(0.412291 0.163498 0)
(0.387017 0.178341 0)
(0.367339 0.197516 0)
(0.350109 0.214593 0)
(0.331777 0.235355 0)
(0.308379 0.262396 0)
(0.267133 0.293604 0)
(0.21411 0.337351 0)
(0.141024 0.373856 0)
(0.0692069 0.41596 0)
(-0.103091 -0.0137712 0)
(0.528544 -0.018699 0)
(0.588237 -0.00439504 0)
(0.576407 -0.00198181 0)
(0.566813 0.0129479 0)
(0.547777 0.0266025 0)
(0.541547 0.0473798 0)
(0.537334 0.0620666 0)
(0.53597 0.0769965 0)
(0.534072 0.0943481 0)
(0.520028 0.110593 0)
(0.50456 0.130165 0)
(0.475273 0.144321 0)
(0.451294 0.161526 0)
(0.431302 0.179754 0)
(0.407479 0.196719 0)
(0.388015 0.218708 0)
(0.372114 0.239919 0)
(0.35598 0.262128 0)
(0.34199 0.292584 0)
(0.310252 0.330586 0)
(0.264304 0.398494 0)
(0.169646 0.477214 0)
(0.122892 0.570788 0)
(-0.103845 -0.00837729 0)
(0.529807 -0.0122223 0)
(0.592179 -0.00584474 0)
(0.581841 -0.00505439 0)
(0.5738 0.00786405 0)
(0.556386 0.0218833 0)
(0.549097 0.0439988 0)
(0.547189 0.0623336 0)
(0.542321 0.0788031 0)
(0.541968 0.0978805 0)
(0.527609 0.11551 0)
(0.516984 0.137224 0)
(0.490283 0.15313 0)
(0.468949 0.172038 0)
(0.451539 0.191926 0)
(0.429973 0.211413 0)
(0.410849 0.235043 0)
(0.39663 0.259284 0)
(0.382882 0.281716 0)
(0.378573 0.313992 0)
(0.3574 0.363554 0)
(0.335721 0.45111 0)
(0.304212 0.542899 0)
(0.366769 0.615338 0)
(-0.103577 -0.0022997 0)
(0.531494 -0.00471145 0)
(0.594663 -0.00580333 0)
(0.585561 -0.00626574 0)
(0.579292 0.0043167 0)
(0.563966 0.0172199 0)
(0.555612 0.0399128 0)
(0.556755 0.0618574 0)
(0.549089 0.0798429 0)
(0.550418 0.0999127 0)
(0.537354 0.117862 0)
(0.529392 0.139925 0)
(0.506683 0.15747 0)
(0.487805 0.177411 0)
(0.472741 0.199186 0)
(0.454896 0.221138 0)
(0.43601 0.245126 0)
(0.422581 0.271984 0)
(0.410846 0.295795 0)
(0.413372 0.327956 0)
(0.407851 0.381459 0)
(0.40633 0.459855 0)
(0.416175 0.512903 0)
(0.476655 0.51394 0)
(-0.10192 0.0038403 0)
(0.533444 0.00224317 0)
(0.596081 -0.00468023 0)
(0.587994 -0.00583753 0)
(0.58316 0.00233076 0)
(0.570136 0.0139331 0)
(0.56074 0.0364954 0)
(0.564638 0.0607526 0)
(0.556827 0.0800078 0)
(0.559176 0.100075 0)
(0.548968 0.117842 0)
(0.541282 0.139096 0)
(0.524092 0.158707 0)
(0.50732 0.179376 0)
(0.494928 0.203032 0)
(0.480318 0.226821 0)
(0.462934 0.25112 0)
(0.449027 0.279058 0)
(0.440072 0.304794 0)
(0.444542 0.335419 0)
(0.456396 0.382117 0)
(0.469198 0.446621 0)
(0.504114 0.494162 0)
(0.551155 0.487764 0)
(-0.0987036 0.00932554 0)
(0.535398 0.00840308 0)
(0.596816 -0.00216713 0)
(0.589401 -0.0039026 0)
(0.585943 0.00215839 0)
(0.574746 0.0127636 0)
(0.564602 0.0347437 0)
(0.571097 0.0596757 0)
(0.564555 0.0802693 0)
(0.568342 0.100061 0)
(0.561557 0.117633 0)
(0.552722 0.137014 0)
(0.541652 0.157885 0)
(0.527249 0.179308 0)
(0.517847 0.204211 0)
(0.505474 0.229096 0)
(0.490795 0.254961 0)
(0.475798 0.282298 0)
(0.469485 0.309999 0)
(0.473718 0.33947 0)
(0.49581 0.374783 0)
(0.518843 0.42471 0)
(0.559479 0.465836 0)
(0.597787 0.46431 0)
(-0.0938716 0.0135964 0)
(0.537594 0.0132486 0)
(0.597099 0.00144662 0)
(0.590093 -0.000729002 0)
(0.587833 0.00320806 0)
(0.577914 0.0130638 0)
(0.567891 0.0342601 0)
(0.576417 0.0585228 0)
(0.571788 0.0801761 0)
(0.577351 0.0998781 0)
(0.57359 0.117806 0)
(0.564183 0.13604 0)
(0.558559 0.1575 0)
(0.547301 0.179604 0)
(0.540778 0.204681 0)
(0.530303 0.230659 0)
(0.518573 0.258513 0)
(0.503504 0.285141 0)
(0.497964 0.313841 0)
(0.501785 0.342118 0)
(0.525997 0.366816 0)
(0.552934 0.403991 0)
(0.593171 0.439334 0)
(0.631982 0.448048 0)
(-0.0877284 0.0164515 0)
(0.540116 0.0165372 0)
(0.597249 0.00558371 0)
(0.59021 0.00327797 0)
(0.589321 0.00514254 0)
(0.580456 0.0139941 0)
(0.571452 0.0336795 0)
(0.580831 0.0568272 0)
(0.578336 0.0796675 0)
(0.58523 0.100105 0)
(0.583786 0.119123 0)
(0.57646 0.137186 0)
(0.573115 0.158105 0)
(0.566506 0.180936 0)
(0.563142 0.205959 0)
(0.555246 0.232128 0)
(0.545782 0.260767 0)
(0.532337 0.288053 0)
(0.525715 0.316819 0)
(0.52895 0.344332 0)
(0.550589 0.36453 0)
(0.578333 0.392104 0)
(0.616577 0.420965 0)
(0.656277 0.437925 0)
(-0.0806329 0.0180954 0)
(0.54292 0.018449 0)
(0.597598 0.00996365 0)
(0.590189 0.00791017 0)
(0.590869 0.00792942 0)
(0.582986 0.0154973 0)
(0.575795 0.0334915 0)
(0.584493 0.0553859 0)
(0.584355 0.0794442 0)
(0.591313 0.100903 0)
(0.592661 0.120925 0)
(0.588422 0.139684 0)
(0.585609 0.160349 0)
(0.583776 0.182832 0)
(0.583892 0.20735 0)
(0.580381 0.233283 0)
(0.57197 0.261615 0)
(0.562036 0.290519 0)
(0.553795 0.318422 0)
(0.555954 0.345596 0)
(0.572398 0.36755 0)
(0.59961 0.386412 0)
(0.633634 0.408876 0)
(0.672571 0.430516 0)
(-0.0729382 0.0187924 0)
(0.546038 0.0191033 0)
(0.59843 0.0142483 0)
(0.590361 0.0127155 0)
(0.592652 0.0114008 0)
(0.585886 0.0174994 0)
(0.580549 0.0333331 0)
(0.587102 0.0538885 0)
(0.589959 0.0783399 0)
(0.595917 0.101161 0)
(0.600405 0.122495 0)
(0.59828 0.142291 0)
(0.597285 0.162062 0)
(0.59846 0.183415 0)
(0.602213 0.20707 0)
(0.604256 0.232315 0)
(0.597543 0.258632 0)
(0.591411 0.287987 0)
(0.582801 0.31628 0)
(0.582871 0.343875 0)
(0.595111 0.367145 0)
(0.619275 0.385952 0)
(0.651303 0.404728 0)
(0.688177 0.424968 0)
(-0.064961 0.0187419 0)
(0.549438 0.0186565 0)
(0.599618 0.0182184 0)
(0.590786 0.0172378 0)
(0.59467 0.0153716 0)
(0.589336 0.0197815 0)
(0.585388 0.0334436 0)
(0.589499 0.052047 0)
(0.594231 0.0750696 0)
(0.599731 0.0988098 0)
(0.606844 0.121832 0)
(0.606108 0.143313 0)
(0.607481 0.16308 0)
(0.610551 0.182719 0)
(0.617909 0.203194 0)
(0.624513 0.226596 0)
(0.622772 0.251579 0)
(0.618486 0.280141 0)
(0.612218 0.309466 0)
(0.609809 0.337369 0)
(0.618842 0.361848 0)
(0.639642 0.382126 0)
(0.670643 0.400218 0)
(0.70675 0.420248 0)
(-0.0569613 0.0181973 0)
(0.553168 0.0176002 0)
(0.601089 0.0217705 0)
(0.591661 0.0213439 0)
(0.59725 0.0193546 0)
(0.593334 0.0221407 0)
(0.589884 0.0339103 0)
(0.593907 0.0497202 0)
(0.597794 0.0700749 0)
(0.603451 0.093726 0)
(0.611313 0.117731 0)
(0.612729 0.140847 0)
(0.615607 0.161006 0)
(0.620536 0.179952 0)
(0.630934 0.198543 0)
(0.641082 0.219218 0)
(0.646347 0.242434 0)
(0.641799 0.268126 0)
(0.640584 0.297744 0)
(0.636624 0.326945 0)
(0.642919 0.353752 0)
(0.662253 0.375294 0)
(0.691484 0.394734 0)
(0.727666 0.412388 0)
(-0.0491277 0.0172175 0)
(0.557245 0.0162193 0)
(0.602733 0.0248994 0)
(0.592992 0.0246885 0)
(0.600351 0.0229714 0)
(0.5976 0.024488 0)
(0.594328 0.0344027 0)
(0.599518 0.0471531 0)
(0.601462 0.0641572 0)
(0.607434 0.086386 0)
(0.614353 0.111017 0)
(0.617899 0.135401 0)
(0.621882 0.156849 0)
(0.628349 0.175559 0)
(0.640884 0.192653 0)
(0.65427 0.21194 0)
(0.665526 0.23348 0)
(0.664907 0.257228 0)
(0.666873 0.284663 0)
(0.662059 0.31364 0)
(0.666301 0.342207 0)
(0.685829 0.364882 0)
(0.712548 0.387746 0)
(0.750337 0.405861 0)
(-0.0416627 0.0161551 0)
(0.561651 0.0156046 0)
(0.604799 0.0272817 0)
(0.59476 0.0269955 0)
(0.603431 0.0263184 0)
(0.60168 0.0268493 0)
(0.599086 0.0345407 0)
(0.604978 0.0443148 0)
(0.605778 0.0581828 0)
(0.611029 0.0778381 0)
(0.617 0.102277 0)
(0.622276 0.127814 0)
(0.626951 0.151369 0)
(0.635286 0.171024 0)
(0.648291 0.188118 0)
(0.664418 0.205523 0)
(0.678802 0.225446 0)
(0.686348 0.247922 0)
(0.68859 0.272714 0)
(0.689793 0.301173 0)
(0.691666 0.330754 0)
(0.709021 0.35478 0)
(0.735179 0.379286 0)
(0.772488 0.397371 0)
(-0.0349982 0.014897 0)
(0.56525 0.0154659 0)
(0.607496 0.0287212 0)
(0.597092 0.028291 0)
(0.606322 0.0294884 0)
(0.605751 0.0291459 0)
(0.604206 0.0344306 0)
(0.609777 0.0419342 0)
(0.611605 0.0527439 0)
(0.614257 0.0695137 0)
(0.619262 0.0924147 0)
(0.625575 0.118219 0)
(0.631101 0.143863 0)
(0.641845 0.165796 0)
(0.653875 0.184863 0)
(0.672175 0.201456 0)
(0.688639 0.219908 0)
(0.70165 0.240085 0)
(0.707401 0.26308 0)
(0.716303 0.289118 0)
(0.718228 0.318821 0)
(0.733186 0.345264 0)
(0.760402 0.371075 0)
(0.793711 0.39232 0)
(-0.0294029 0.0137767 0)
(0.567761 0.0157226 0)
(0.611422 0.0291176 0)
(0.600794 0.0286495 0)
(0.609761 0.0314861 0)
(0.610153 0.0311272 0)
(0.609476 0.0344052 0)
(0.614473 0.0407104 0)
(0.617153 0.0488518 0)
(0.618462 0.062131 0)
(0.622165 0.0822997 0)
(0.628436 0.107231 0)
(0.63539 0.134022 0)
(0.646259 0.158993 0)
(0.659985 0.180793 0)
(0.67793 0.198937 0)
(0.696434 0.216225 0)
(0.712445 0.234759 0)
(0.724896 0.255201 0)
(0.735677 0.27794 0)
(0.745502 0.30605 0)
(0.759277 0.334754 0)
(0.78724 0.361261 0)
(0.816538 0.385898 0)
(-0.0248962 0.0127609 0)
(0.56955 0.0157913 0)
(0.616478 0.0287418 0)
(0.60593 0.0285596 0)
(0.613777 0.0326354 0)
(0.614584 0.0335119 0)
(0.61478 0.0354128 0)
(0.619064 0.0407822 0)
(0.622103 0.0465621 0)
(0.6235 0.0566875 0)
(0.626192 0.0728788 0)
(0.632087 0.0950565 0)
(0.640204 0.121909 0)
(0.650925 0.149637 0)
(0.667483 0.174162 0)
(0.682113 0.195291 0)
(0.702477 0.212191 0)
(0.720645 0.229484 0)
(0.737555 0.24753 0)
(0.751817 0.267568 0)
(0.76889 0.291313 0)
(0.784356 0.319679 0)
(0.812132 0.346604 0)
(0.841544 0.374054 0)
(-0.0214634 0.0118008 0)
(0.570742 0.0149869 0)
(0.622178 0.0275228 0)
(0.612059 0.0280354 0)
(0.618484 0.0335672 0)
(0.619199 0.0352551 0)
(0.619822 0.037775 0)
(0.623198 0.0420548 0)
(0.626836 0.0458708 0)
(0.628736 0.0528998 0)
(0.632391 0.0648671 0)
(0.636619 0.0829182 0)
(0.646908 0.107436 0)
(0.657274 0.136335 0)
(0.672895 0.163777 0)
(0.68879 0.18805 0)
(0.707505 0.206436 0)
(0.726991 0.222478 0)
(0.746404 0.238313 0)
(0.766011 0.256164 0)
(0.784909 0.275416 0)
(0.806885 0.300087 0)
(0.83423 0.326554 0)
(0.865612 0.354967 0)
(-0.0188423 0.0111189 0)
(0.571701 0.0137557 0)
(0.62808 0.0254594 0)
(0.618846 0.0268506 0)
(0.623808 0.0341198 0)
(0.623676 0.0377436 0)
(0.624374 0.0407849 0)
(0.62712 0.0443878 0)
(0.630998 0.0464848 0)
(0.633751 0.0505789 0)
(0.637995 0.0584247 0)
(0.643361 0.0717526 0)
(0.652313 0.092206 0)
(0.664284 0.119482 0)
(0.678267 0.148695 0)
(0.696059 0.175055 0)
(0.710716 0.196612 0)
(0.731665 0.212585 0)
(0.752763 0.227538 0)
(0.775561 0.241814 0)
(0.798201 0.258975 0)
(0.82397 0.278554 0)
(0.8529 0.302383 0)
(0.886489 0.329707 0)
(-0.0168208 0.0106717 0)
(0.57273 0.0124014 0)
(0.633732 0.0229018 0)
(0.625753 0.0250223 0)
(0.629654 0.0338066 0)
(0.628655 0.039342 0)
(0.628925 0.0434259 0)
(0.631041 0.0471883 0)
(0.635305 0.047971 0)
(0.638204 0.0496824 0)
(0.642611 0.0537986 0)
(0.648913 0.0621158 0)
(0.656406 0.077824 0)
(0.670184 0.100665 0)
(0.683782 0.128919 0)
(0.698985 0.157 0)
(0.715903 0.180929 0)
(0.73358 0.19964 0)
(0.75634 0.214175 0)
(0.781022 0.227245 0)
(0.80781 0.241263 0)
(0.835285 0.257693 0)
(0.867734 0.277042 0)
(0.903286 0.301246 0)
(-0.0152166 0.0104772 0)
(0.573653 0.0112147 0)
(0.638671 0.0202982 0)
(0.632184 0.0227331 0)
(0.635922 0.0324192 0)
(0.634341 0.0393172 0)
(0.634068 0.0447593 0)
(0.63573 0.0488165 0)
(0.639877 0.0498093 0)
(0.64255 0.0502512 0)
(0.646836 0.0528255 0)
(0.653194 0.0557473 0)
(0.661201 0.0651957 0)
(0.673296 0.0826569 0)
(0.68838 0.1068 0)
(0.703217 0.134337 0)
(0.718911 0.160637 0)
(0.735526 0.182692 0)
(0.757862 0.199072 0)
(0.783608 0.211877 0)
(0.812606 0.223885 0)
(0.842927 0.237309 0)
(0.877642 0.253561 0)
(0.915752 0.272953 0)
(-0.0137567 0.0105033 0)
(0.574394 0.0102111 0)
(0.642682 0.0184625 0)
(0.637794 0.0206279 0)
(0.642159 0.0301724 0)
(0.640576 0.0376362 0)
(0.639821 0.0441481 0)
(0.641262 0.0489314 0)
(0.644786 0.0509305 0)
(0.647301 0.050562 0)
(0.650544 0.0518132 0)
(0.656248 0.0525277 0)
(0.665046 0.0562374 0)
(0.676559 0.0673783 0)
(0.691866 0.0857098 0)
(0.707564 0.109757 0)
(0.72229 0.136451 0)
(0.739491 0.16109 0)
(0.758289 0.181721 0)
(0.783912 0.19621 0)
(0.813592 0.207591 0)
(0.846741 0.218329 0)
(0.882998 0.230928 0)
(0.923372 0.246391 0)
(-0.01207 0.0105989 0)
(0.575026 0.00930992 0)
(0.645482 0.0176441 0)
(0.642131 0.0190674 0)
(0.647651 0.0275457 0)
(0.64671 0.0344947 0)
(0.645609 0.0412826 0)
(0.6474 0.0471876 0)
(0.650522 0.0502667 0)
(0.65241 0.0508228 0)
(0.654033 0.0514793 0)
(0.658319 0.0508988 0)
(0.667256 0.0517468 0)
(0.679872 0.0563822 0)
(0.695219 0.0680993 0)
(0.711749 0.0867597 0)
(0.727712 0.110405 0)
(0.74257 0.136317 0)
(0.760895 0.159861 0)
(0.782951 0.178832 0)
(0.811303 0.191696 0)
(0.845364 0.201056 0)
(0.883098 0.2104 0)
(0.9249 0.221522 0)
(-0.00982035 0.0106816 0)
(0.575703 0.00832294 0)
(0.647028 0.0177542 0)
(0.644904 0.0182092 0)
(0.651679 0.0248971 0)
(0.65213 0.0307008 0)
(0.651332 0.037298 0)
(0.653941 0.0437723 0)
(0.656989 0.0478898 0)
(0.657872 0.050051 0)
(0.658131 0.0507032 0)
(0.660754 0.0512767 0)
(0.668699 0.0499983 0)
(0.681646 0.0508661 0)
(0.698291 0.0556684 0)
(0.715424 0.0677775 0)
(0.731353 0.0864258 0)
(0.747578 0.109516 0)
(0.76308 0.134594 0)
(0.783448 0.156796 0)
(0.809342 0.173591 0)
(0.842175 0.184571 0)
(0.880948 0.191568 0)
(0.923217 0.199228 0)
(-0.00685226 0.0105424 0)
(0.57638 0.00721821 0)
(0.647455 0.0180918 0)
(0.646105 0.0178459 0)
(0.653843 0.0225623 0)
(0.656078 0.0269954 0)
(0.6563 0.0326736 0)
(0.660453 0.0389832 0)
(0.664096 0.0442358 0)
(0.664388 0.0481747 0)
(0.663376 0.0497234 0)
(0.664141 0.0510736 0)
(0.67048 0.0499399 0)
(0.68208 0.0484989 0)
(0.697974 0.0495548 0)
(0.716162 0.0543648 0)
(0.733612 0.0659235 0)
(0.749213 0.0841258 0)
(0.766697 0.106056 0)
(0.784731 0.129896 0)
(0.808883 0.150767 0)
(0.839849 0.165343 0)
(0.877309 0.174218 0)
(0.919989 0.179779 0)
(-0.00322096 0.0100581 0)
(0.577233 0.00637167 0)
(0.64719 0.0182045 0)
(0.646152 0.0176372 0)
(0.654581 0.0204451 0)
(0.658332 0.0236228 0)
(0.660562 0.0284298 0)
(0.666562 0.0337361 0)
(0.671195 0.0393433 0)
(0.671851 0.0445234 0)
(0.67032 0.0484775 0)
(0.669448 0.0508631 0)
(0.673978 0.0505612 0)
(0.683195 0.0487799 0)
(0.697765 0.0463542 0)
(0.715107 0.0468233 0)
(0.733516 0.0504069 0)
(0.750916 0.0612132 0)
(0.768054 0.0783383 0)
(0.7866 0.100092 0)
(0.808826 0.123119 0)
(0.83776 0.142301 0)
(0.873477 0.156027 0)
(0.915161 0.163265 0)
(0.00065459 0.00900926 0)
(0.577866 0.00557864 0)
(0.646604 0.0178236 0)
(0.645671 0.0171359 0)
(0.655094 0.0186912 0)
(0.659849 0.0206732 0)
(0.664013 0.0252405 0)
(0.671614 0.0289919 0)
(0.677513 0.0341657 0)
(0.67914 0.0392427 0)
(0.678443 0.0442241 0)
(0.676668 0.0475707 0)
(0.678665 0.0493681 0)
(0.686298 0.0481515 0)
(0.698081 0.0443025 0)
(0.713682 0.0407349 0)
(0.731213 0.0399859 0)
(0.749782 0.0436733 0)
(0.768041 0.0543945 0)
(0.788144 0.0709571 0)
(0.809661 0.0932341 0)
(0.836509 0.115862 0)
(0.870529 0.134705 0)
(0.910243 0.147132 0)
(0.00426156 0.00738809 0)
(0.578283 0.00478969 0)
(0.646231 0.0166966 0)
(0.645377 0.016189 0)
(0.65563 0.0171815 0)
(0.66112 0.0184517 0)
(0.666301 0.0225703 0)
(0.675136 0.0252785 0)
(0.682133 0.029375 0)
(0.685483 0.0333115 0)
(0.686158 0.037432 0)
(0.685288 0.041723 0)
(0.685238 0.0445157 0)
(0.689865 0.0437831 0)
(0.6993 0.0407706 0)
(0.712318 0.0356619 0)
(0.728574 0.0313868 0)
(0.747099 0.0311951 0)
(0.767117 0.0357522 0)
(0.787438 0.0471313 0)
(0.810487 0.0647579 0)
(0.836037 0.0878857 0)
(0.867549 0.110202 0)
(0.905952 0.128346 0)
(0.00716333 0.00527628 0)
(0.578727 0.00383934 0)
(0.646412 0.0147724 0)
(0.645466 0.0141235 0)
(0.656309 0.0157706 0)
(0.66216 0.0167247 0)
(0.667686 0.0204136 0)
(0.677053 0.022421 0)
(0.684304 0.0253459 0)
(0.68966 0.0275802 0)
(0.692036 0.0296398 0)
(0.693137 0.0328906 0)
(0.69312 0.0353762 0)
(0.695105 0.035537 0)
(0.701813 0.0341081 0)
(0.711884 0.0294523 0)
(0.725988 0.0249976 0)
(0.743676 0.022161 0)
(0.763407 0.0239149 0)
(0.784975 0.0294208 0)
(0.807528 0.0416782 0)
(0.833759 0.0612365 0)
(0.863369 0.0841734 0)
(0.900238 0.105838 0)
(0.00890236 0.00284471 0)
(0.579517 0.00257582 0)
(0.64764 0.0122438 0)
(0.646351 0.0117792 0)
(0.657042 0.0142525 0)
(0.662755 0.0150016 0)
(0.66818 0.0183591 0)
(0.677607 0.0197949 0)
(0.684367 0.0218529 0)
(0.691023 0.0229892 0)
(0.69595 0.0235533 0)
(0.698532 0.0238072 0)
(0.69997 0.0239591 0)
(0.70178 0.0239952 0)
(0.706389 0.023687 0)
(0.715305 0.0229432 0)
(0.725884 0.020274 0)
(0.740265 0.0176445 0)
(0.758393 0.0165624 0)
(0.778578 0.019609 0)
(0.800191 0.0276641 0)
(0.826405 0.0399653 0)
(0.855788 0.0592534 0)
(0.891416 0.0811411 0)
(0.00943161 0.00106496 0)
(0.580901 0.00156051 0)
(0.649949 0.00910888 0)
(0.648163 0.00899223 0)
(0.658033 0.012352 0)
(0.663141 0.0129284 0)
(0.668185 0.015951 0)
(0.677294 0.0170682 0)
(0.683673 0.0182199 0)
(0.690257 0.0184671 0)
(0.696512 0.0180098 0)
(0.700601 0.0166864 0)
(0.704657 0.0146107 0)
(0.708529 0.0129602 0)
(0.713825 0.013385 0)
(0.720894 0.0152598 0)
(0.728484 0.0158265 0)
(0.738639 0.0158119 0)
(0.752553 0.0140741 0)
(0.770089 0.0141612 0)
(0.790673 0.0176098 0)
(0.815004 0.0263478 0)
(0.844775 0.0406323 0)
(0.879793 0.0575505 0)
(0.00903493 -8.30528e-05 0)
(0.582334 0.000599888 0)
(0.653039 0.00606174 0)
(0.651024 0.00628066 0)
(0.659563 0.00997046 0)
(0.663911 0.010181 0)
(0.668523 0.0126511 0)
(0.677246 0.013469 0)
(0.68335 0.0139047 0)
(0.689195 0.0135917 0)
(0.695213 0.0123149 0)
(0.700551 0.00964921 0)
(0.706261 0.00644927 0)
(0.713532 0.00482332 0)
(0.721797 0.00575318 0)
(0.729295 0.00983104 0)
(0.734018 0.0132931 0)
(0.739549 0.0146712 0)
(0.747774 0.013866 0)
(0.760253 0.0122287 0)
(0.778601 0.0111037 0)
(0.803156 0.0144113 0)
(0.833294 0.0247091 0)
(0.867529 0.0376924 0)
(0.00838891 -0.000535114 0)
(0.583491 -3.21353e-05 0)
(0.655167 0.00293892 0)
(0.653092 0.00323829 0)
(0.660228 0.00651192 0)
(0.664023 0.00649523 0)
(0.668313 0.00829844 0)
(0.676795 0.00880211 0)
(0.682717 0.0089501 0)
(0.687764 0.0085945 0)
(0.693032 0.0073246 0)
(0.698748 0.00481687 0)
(0.705934 0.00181749 0)
(0.715144 0.000253697 0)
(0.726179 0.000189137 0)
(0.735607 0.00350595 0)
(0.739553 0.00810779 0)
(0.741014 0.0111557 0)
(0.743935 0.0115516 0)
(0.751526 0.00963481 0)
(0.766865 0.00745916 0)
(0.791194 0.00733577 0)
(0.823037 0.0127642 0)
(0.858257 0.0212868 0)
(0.00790091 -4.55397e-05 0)
(0.584113 0.000193632 0)
(0.65661 0.000536737 0)
(0.654645 0.000569765 0)
(0.660523 0.0018226 0)
(0.663546 0.00188913 0)
(0.667249 0.00287423 0)
(0.675545 0.00314069 0)
(0.681574 0.00344643 0)
(0.68623 0.0035846 0)
(0.690821 0.00359641 0)
(0.69665 0.00300366 0)
(0.704793 0.00221228 0)
(0.715444 0.000817313 0)
(0.728481 -8.03478e-05 0)
(0.739899 5.18618e-05 0)
(0.743951 0.00129309 0)
(0.742755 0.00291184 0)
(0.742142 0.00433168 0)
(0.747206 0.00464782 0)
(0.760296 0.00532679 0)
(0.784119 0.00644931 0)
(0.817974 0.00726801 0)
(0.853489 0.00880037 0)
(0.459794 0.382469 0)
(0.160212 0.190624 0)
(0.0878033 0.0466885 0)
(0.0221556 0.0171237 0)
(-0.0122951 0.00986848 0)
(-0.0327721 0.00658497 0)
(-0.0303172 0.00401984 0)
(-0.0101076 0.00417496 0)
(0.484077 0.329908 0)
(0.30833 0.188858 0)
(0.205458 0.0736263 0)
(0.0940941 0.0421952 0)
(0.0229396 0.0257775 0)
(-0.0183915 0.0215157 0)
(-0.0254908 0.0163584 0)
(-0.0109874 0.0131974 0)
(0.528485 0.410452 0)
(0.411941 0.32652 0)
(0.301072 0.207395 0)
(0.165879 0.141002 0)
(0.0742359 0.0834128 0)
(0.0204804 0.0404028 0)
(-0.010437 0.0311381 0)
(-0.005288 0.0200877 0)
(0.590733 0.442789 0)
(0.527872 0.393675 0)
(0.434479 0.297789 0)
(0.298521 0.221903 0)
(0.184211 0.149194 0)
(0.0922749 0.095137 0)
(0.0234042 0.0640594 0)
(0.011168 0.037356 0)
(0.637293 0.450635 0)
(0.605234 0.439652 0)
(0.535916 0.387888 0)
(0.419758 0.331322 0)
(0.299686 0.259191 0)
(0.186256 0.187083 0)
(0.0887436 0.126111 0)
(0.0298266 0.0840885 0)
(0.670597 0.451179 0)
(0.657148 0.458798 0)
(0.611497 0.443226 0)
(0.525322 0.415184 0)
(0.419733 0.359904 0)
(0.297356 0.301645 0)
(0.168422 0.246382 0)
(0.0638567 0.179967 0)
(0.696188 0.452125 0)
(0.693155 0.470956 0)
(0.662439 0.482702 0)
(0.60039 0.486246 0)
(0.517777 0.46508 0)
(0.41223 0.433029 0)
(0.301297 0.365184 0)
(0.146695 0.348014 0)
(0.717484 0.449908 0)
(0.722707 0.478334 0)
(0.704193 0.505934 0)
(0.663081 0.530494 0)
(0.602995 0.544662 0)
(0.524527 0.547532 0)
(0.37601 0.562095 0)
(0.199447 0.691221 0)
(0.738438 0.446176 0)
(0.750259 0.476742 0)
(0.742931 0.513079 0)
(0.717038 0.5531 0)
(0.681696 0.596544 0)
(0.642353 0.661651 0)
(0.602543 0.762487 0)
(0.708255 0.995164 0)
(0.761138 0.436333 0)
(0.77764 0.46732 0)
(0.779912 0.506471 0)
(0.767416 0.554087 0)
(0.763926 0.619906 0)
(0.770411 0.713711 0)
(0.837935 0.81455 0)
(1.09001 0.917488 0)
(0.785671 0.42752 0)
(0.806962 0.455866 0)
(0.816169 0.49289 0)
(0.816388 0.541044 0)
(0.835129 0.605825 0)
(0.877099 0.696471 0)
(1.00578 0.798899 0)
(1.27195 0.854 0)
(0.809868 0.418223 0)
(0.836259 0.444371 0)
(0.851865 0.477795 0)
(0.864147 0.521835 0)
(0.895389 0.577139 0)
(0.956903 0.651197 0)
(1.09706 0.732773 0)
(1.33548 0.768107 0)
(0.832325 0.4098 0)
(0.861907 0.432962 0)
(0.883042 0.461826 0)
(0.906641 0.499796 0)
(0.946316 0.544351 0)
(1.0142 0.597396 0)
(1.14287 0.658746 0)
(1.34108 0.674605 0)
(0.854474 0.402782 0)
(0.884561 0.422749 0)
(0.908954 0.446818 0)
(0.940676 0.476849 0)
(0.986148 0.511513 0)
(1.0547 0.546857 0)
(1.16614 0.588777 0)
(1.32506 0.593348 0)
(0.876893 0.393346 0)
(0.905506 0.411412 0)
(0.931432 0.431914 0)
(0.966589 0.454064 0)
(1.01356 0.479787 0)
(1.07922 0.501448 0)
(1.17513 0.529027 0)
(1.30382 0.528732 0)
(0.89845 0.377929 0)
(0.924854 0.396262 0)
(0.951535 0.415341 0)
(0.986628 0.431396 0)
(1.03208 0.449947 0)
(1.09293 0.462856 0)
(1.1755 0.479573 0)
(1.28234 0.476575 0)
(0.917843 0.355378 0)
(0.941876 0.375118 0)
(0.968171 0.394479 0)
(1.0022 0.407196 0)
(1.04542 0.421207 0)
(1.10122 0.429289 0)
(1.17278 0.438498 0)
(1.26276 0.434089 0)
(0.934486 0.326975 0)
(0.956555 0.348184 0)
(0.980768 0.368479 0)
(1.01405 0.380866 0)
(1.0552 0.391866 0)
(1.10616 0.397581 0)
(1.16919 0.40279 0)
(1.24693 0.39843 0)
(0.94834 0.295543 0)
(0.969311 0.316769 0)
(0.990359 0.337425 0)
(1.02338 0.35089 0)
(1.06293 0.360202 0)
(1.10987 0.364909 0)
(1.16638 0.367666 0)
(1.23503 0.364246 0)
(0.959237 0.264595 0)
(0.981083 0.283976 0)
(1.00009 0.303108 0)
(1.02994 0.317661 0)
(1.06777 0.325903 0)
(1.11204 0.33018 0)
(1.16384 0.331379 0)
(1.22545 0.328032 0)
(0.964206 0.234897 0)
(0.989993 0.251308 0)
(1.00903 0.26834 0)
(1.03539 0.283765 0)
(1.06995 0.291659 0)
(1.11101 0.29497 0)
(1.15921 0.295099 0)
(1.21579 0.290636 0)
(0.964454 0.208435 0)
(0.99433 0.221101 0)
(1.01456 0.235603 0)
(1.03874 0.249155 0)
(1.0703 0.259041 0)
(1.10838 0.262443 0)
(1.15289 0.261277 0)
(1.20473 0.254929 0)
(0.96191 0.186664 0)
(0.994524 0.19591 0)
(1.01633 0.207339 0)
(1.03862 0.218827 0)
(1.06746 0.227185 0)
(1.10285 0.230511 0)
(1.14421 0.230051 0)
(1.19081 0.223599 0)
(0.957967 0.169098 0)
(0.992137 0.175982 0)
(1.01447 0.184247 0)
(1.03565 0.192616 0)
(1.0609 0.199742 0)
(1.09225 0.202877 0)
(1.13016 0.201405 0)
(1.17346 0.197334 0)
(0.953155 0.153982 0)
(0.986692 0.160619 0)
(1.0077 0.165975 0)
(1.02766 0.171188 0)
(1.05053 0.17628 0)
(1.0785 0.179213 0)
(1.11258 0.179079 0)
(1.15377 0.175537 0)
(0.945925 0.140083 0)
(0.97815 0.147292 0)
(0.99705 0.150522 0)
(1.01569 0.153329 0)
(1.03677 0.156225 0)
(1.06245 0.158217 0)
(1.09423 0.158647 0)
(1.13314 0.157192 0)
(0.937421 0.122255 0)
(0.966519 0.131774 0)
(0.983535 0.135469 0)
(1.00034 0.1377 0)
(1.02026 0.139425 0)
(1.04432 0.140534 0)
(1.07482 0.140633 0)
(1.11322 0.139904 0)
(0.926808 0.0998391 0)
(0.952893 0.111769 0)
(0.968464 0.117732 0)
(0.983982 0.121632 0)
(1.00353 0.123528 0)
(1.02717 0.124022 0)
(1.05777 0.123247 0)
(1.09763 0.122149 0)
(0.9144 0.0749247 0)
(0.938821 0.0878308 0)
(0.953465 0.0959295 0)
(0.970186 0.101774 0)
(0.990271 0.104162 0)
(1.0144 0.104573 0)
(1.04604 0.103283 0)
(1.0884 0.101503 0)
(0.902172 0.0505312 0)
(0.925378 0.0618603 0)
(0.941226 0.0703735 0)
(0.960091 0.0770219 0)
(0.982455 0.0797225 0)
(1.00898 0.0796134 0)
(1.04338 0.0779658 0)
(1.08907 0.0768182 0)
(0.891054 0.0289141 0)
(0.914111 0.0357654 0)
(0.932135 0.0421196 0)
(0.95291 0.0476354 0)
(0.977361 0.0500665 0)
(1.00687 0.0500909 0)
(1.04486 0.0492089 0)
(1.09336 0.0489699 0)
(0.884634 0.0103056 0)
(0.909397 0.0120409 0)
(0.930927 0.0143911 0)
(0.953339 0.016353 0)
(0.978946 0.0175058 0)
(1.01031 0.0178367 0)
(1.0499 0.0176915 0)
(1.09827 0.0173473 0)
(1.64957 1.02206 0)
(2.17391 1.05612 0)
(2.51067 0.715646 0)
(2.53879 0.273859 0)
(2.48419 -0.00145996 0)
(2.31629 -0.133616 0)
(2.04483 -0.249785 0)
(1.90283 -0.200738 0)
(1.60707 -0.0756157 0)
(1.51043 -0.0269431 0)
(1.35907 0.00540222 0)
(1.29346 0.0043668 0)
(1.30209 0.00275993 0)
(1.31999 -0.00269604 0)
(1.30329 -0.00436561 0)
(1.27922 -0.00564129 0)
(1.26283 -0.00445398 0)
(1.26617 -0.00342355 0)
(1.29175 -0.00408023 0)
(1.33171 -0.00787401 0)
(1.36288 -0.0124985 0)
(1.38429 -0.0150667 0)
(1.40922 -0.0153511 0)
(1.44745 -0.0139848 0)
(1.49565 -0.011942 0)
(1.53112 -0.0142709 0)
(1.55243 -0.0187102 0)
(1.57371 -0.0234059 0)
(1.59553 -0.0263949 0)
(1.61576 -0.025795 0)
(1.63413 -0.0210559 0)
(1.65125 -0.0146107 0)
(1.6684 -0.00743261 0)
(1.68844 -0.00220578 0)
(1.71164 -0.000330574 0)
(1.7376 0.00241793 0)
(1.76149 0.00455432 0)
(1.78326 0.0063676 0)
(1.80069 0.00920785 0)
(1.81166 0.0118136 0)
(1.82461 0.0130002 0)
(1.84291 0.0132152 0)
(1.86257 0.0132269 0)
(1.88668 0.0128321 0)
(1.92087 0.0116675 0)
(1.95829 0.00980789 0)
(1.98485 0.00814855 0)
(2.00802 0.00667013 0)
(2.02903 0.00601316 0)
(2.04804 0.00597019 0)
(2.05623 0.00675995 0)
(2.04832 0.00923641 0)
(2.05219 0.0103351 0)
(2.07614 0.00995784 0)
(2.08516 0.00785082 0)
(2.07489 -0.00426423 0)
(2.0065 -0.0236961 0)
(1.89277 -0.0593574 0)
(1.80798 -0.0634709 0)
(1.75478 -0.0391328 0)
(1.75748 -0.0360924 0)
(1.7772 -0.0360311 0)
(1.79859 -0.0330063 0)
(1.79989 -0.022783 0)
(1.78631 -0.00561693 0)
(1.78525 0.00677202 0)
(1.79502 0.0122093 0)
(1.80493 0.0157497 0)
(1.81534 0.0181467 0)
(1.82889 0.0191863 0)
(1.85206 0.0188501 0)
(1.88599 0.0177179 0)
(1.9242 0.016635 0)
(1.95582 0.0145686 0)
(1.97862 0.0098077 0)
(1.9957 0.000244361 0)
(2.00883 -0.0117417 0)
(2.02065 -0.0201654 0)
(2.02281 -0.0267766 0)
(2.00505 -0.0273541 0)
(1.97447 -0.0201317 0)
(1.95458 -0.00746163 0)
(1.94652 0.00534956 0)
(1.94589 0.0145414 0)
(1.95106 0.0196973 0)
(1.9598 0.0209971 0)
(1.96912 0.024922 0)
(1.99057 0.0246825 0)