/*--------------------------------*- C++ -*----------------------------------*\
  =========                 |
  \\      /  F ield         | OpenFOAM: The Open Source CFD Toolbox
   \\    /   O peration     | Website:  https://openfoam.org
    \\  /    A nd           | Version:  7
     \\/     M anipulation  |
\*---------------------------------------------------------------------------*/
FoamFile
{
    version     2.0;
    format      ascii;
    class       volScalarField;
    location    "3";
    object      T;
}
// * * * * * * * * * * * * * * * * * * * * * * * * * * * * * * * * * * * * * //

dimensions      [0 0 0 1 0 0 0];

internalField   nonuniform List<scalar> 
16512
(
2.41421
2.41171
2.40675
2.40366
2.40257
2.40361
2.40909
2.41405
2.41371
2.40984
2.40254
2.39331
2.38707
2.38474
2.3861
2.39157
2.39657
2.39595
2.39035
2.38196
2.37225
2.36536
2.36168
2.36153
2.36317
2.36408
2.36338
2.36066
2.3554
2.35004
2.34513
2.34121
2.33914
2.33756
2.33487
2.33062
2.32705
2.32476
2.32281
2.32019
2.31723
2.31469
2.31265
2.31035
2.30742
2.30427
2.30167
2.30056
2.3002
2.29946
2.2963
2.29197
2.28816
2.28491
2.28241
2.2808
2.28072
2.28142
2.28189
2.28136
2.27934
2.27656
2.27329
2.27012
2.26707
2.26431
2.2619
2.2598
2.25783
2.25591
2.25384
2.25201
2.2506
2.24952
2.24872
2.2481
2.24735
2.2464
2.24558
2.24536
2.24589
2.2471
2.24743
2.24621
2.24426
2.24261
2.24049
2.23749
2.23427
2.23174
2.22952
2.22705
2.22424
2.22128
2.2184
2.21588
2.21412
2.21303
2.21271
2.21318
2.21506
2.21795
2.21955
2.21916
2.21784
2.21647
2.21476
2.21245
2.20928
2.20532
2.20084
2.19591
2.19064
2.18603
2.18329
2.18315
2.18532
2.18791
2.1893
2.19001
2.18993
2.18924
2.18815
2.18737
2.18664
2.18607
2.18533
2.18366
2.18092
2.17689
2.17159
2.16613
2.16191
2.15955
2.15894
2.16054
2.16297
2.16439
2.16534
2.16628
2.16688
2.1669
2.16617
2.16435
2.1618
2.1581
2.15322
2.1479
2.1435
2.14085
2.13972
2.13963
2.13989
2.13932
2.13827
2.13717
2.13651
2.13649
2.13649
2.13613
2.13498
2.13305
2.13042
2.12619
2.11993
2.11384
2.11062
2.10977
2.11077
2.1133
2.11548
2.11626
2.11639
2.11642
2.11644
2.11647
2.11652
2.11638
2.11558
2.11367
2.11081
2.10775
2.10539
2.10375
2.10264
2.10217
2.10226
2.10287
2.1031
2.10245
2.10139
2.09949
2.09565
2.08846
2.07866
2.07108
2.06793
2.06697
2.06679
2.06831
2.0729
2.0796
2.0865
2.09079
2.09118
2.08935
2.08557
2.07862
2.07072
2.06556
2.06238
2.06048
2.06025
2.06169
2.0645
2.06681
2.06762
2.06693
2.06483
2.06102
2.05592
2.05064
2.047
2.04535
2.04515
2.04636
2.04785
2.04908
2.04978
2.04966
2.04851
2.04767
2.04736
2.0469
2.04617
2.04518
2.0443
2.0446
2.04635
2.0471
2.04494
2.04144
2.03817
2.03524
2.03179
2.02719
2.0214
2.01619
2.01363
2.01318
2.01386
2.01494
2.01539
2.01543
2.01533
2.01498
2.01473
2.0131
2.39625
2.39598
2.39315
2.39283
2.39183
2.39288
2.39479
2.39778
2.39798
2.39521
2.38997
2.38236
2.37455
2.36998
2.3688
2.37138
2.37762
2.37984
2.37622
2.36898
2.35941
2.35022
2.34448
2.34195
2.34345
2.34785
2.34917
2.34563
2.33923
2.33173
2.32506
2.32057
2.31793
2.3177
2.31829
2.31846
2.31713
2.31302
2.30807
2.30349
2.30002
2.29734
2.29581
2.29515
2.29435
2.2932
2.2925
2.29218
2.29158
2.28954
2.28558
2.28177
2.27826
2.27531
2.27308
2.27202
2.27236
2.27331
2.27331
2.27187
2.2699
2.26729
2.26381
2.26001
2.2566
2.2536
2.251
2.24916
2.24826
2.24765
2.24716
2.24696
2.24648
2.24524
2.24333
2.24133
2.23983
2.23864
2.23801
2.23822
2.23943
2.24031
2.23955
2.23703
2.23469
2.2323
2.22959
2.22714
2.22526
2.22409
2.22307
2.22221
2.22134
2.21981
2.21726
2.21373
2.20981
2.20649
2.20441
2.2036
2.20422
2.20615
2.20798
2.20816
2.20716
2.20594
2.20451
2.20259
2.20014
2.1974
2.19463
2.19179
2.18866
2.18522
2.18187
2.17962
2.17724
2.1755
2.17511
2.175
2.17527
2.17642
2.17771
2.17892
2.18012
2.1809
2.18079
2.17922
2.17665
2.1731
2.16872
2.16372
2.15874
2.15465
2.15202
2.15148
2.15202
2.15286
2.15385
2.15505
2.15633
2.15745
2.15809
2.1582
2.15764
2.15548
2.15227
2.14768
2.14194
2.13612
2.13126
2.12799
2.12639
2.12556
2.1246
2.12361
2.12318
2.12315
2.12369
2.12455
2.12504
2.12508
2.12421
2.12247
2.11969
2.11486
2.10904
2.10493
2.10312
2.10331
2.10489
2.10633
2.10722
2.10787
2.1086
2.10969
2.11089
2.11132
2.1106
2.10869
2.10527
2.10085
2.09629
2.09249
2.08997
2.08846
2.08796
2.08814
2.08916
2.09041
2.09057
2.08992
2.08829
2.0846
2.07784
2.06852
2.0615
2.05903
2.05864
2.06083
2.06743
2.07638
2.08211
2.08292
2.08189
2.08016
2.07729
2.07168
2.06358
2.0572
2.05442
2.05339
2.05369
2.05523
2.05666
2.05705
2.05679
2.05601
2.05465
2.05288
2.05073
2.04774
2.04411
2.04099
2.03962
2.03992
2.04052
2.04035
2.03894
2.03583
2.03295
2.03171
2.03156
2.0329
2.03537
2.03759
2.04023
2.04386
2.04598
2.04472
2.04121
2.03611
2.03048
2.02572
2.02135
2.01577
2.00945
2.00546
2.00416
2.00385
2.00459
2.00706
2.0097
2.01118
2.01136
2.0104
2.00881
2.00612
2.37382
2.37614
2.37734
2.3785
2.38023
2.3815
2.38031
2.37934
2.37807
2.37586
2.37232
2.36761
2.36171
2.35602
2.35254
2.35172
2.35417
2.35761
2.3569
2.35167
2.34448
2.33648
2.33032
2.32704
2.32749
2.33117
2.33287
2.32947
2.32363
2.31648
2.30879
2.30381
2.30087
2.30074
2.30382
2.30728
2.30661
2.3027
2.29722
2.29066
2.28607
2.28344
2.28194
2.28218
2.28359
2.28527
2.28629
2.28605
2.28354
2.27998
2.27618
2.27263
2.26946
2.26694
2.26551
2.26538
2.26566
2.26587
2.26465
2.26281
2.26092
2.25852
2.25525
2.25136
2.24771
2.24458
2.24182
2.23969
2.23913
2.23938
2.24047
2.24196
2.24241
2.24161
2.23998
2.23736
2.23463
2.2328
2.23152
2.2312
2.23143
2.23127
2.22931
2.22641
2.22344
2.22009
2.21664
2.2143
2.21319
2.21277
2.21316
2.21459
2.21605
2.21625
2.21531
2.21329
2.20981
2.20516
2.20046
2.19669
2.19424
2.19351
2.1942
2.1954
2.19528
2.19417
2.19286
2.19112
2.18901
2.18714
2.18554
2.18384
2.18239
2.18162
2.18111
2.17862
2.17426
2.16882
2.16438
2.16293
2.16304
2.16489
2.16773
2.17006
2.17128
2.17139
2.17066
2.16895
2.16653
2.16413
2.16169
2.15907
2.1568
2.15466
2.15141
2.1475
2.14442
2.14332
2.14329
2.14332
2.14359
2.14438
2.14567
2.14686
2.14727
2.14715
2.14606
2.14339
2.13989
2.13533
2.12968
2.12355
2.11805
2.11446
2.11282
2.11194
2.11156
2.11151
2.1117
2.11232
2.11331
2.11398
2.11402
2.11371
2.11273
2.11121
2.10912
2.10603
2.10242
2.09898
2.09686
2.09638
2.09698
2.09823
2.09958
2.1009
2.10154
2.10142
2.10086
2.09976
2.09769
2.09437
2.0902
2.08543
2.08086
2.07751
2.07559
2.07494
2.07536
2.07657
2.07758
2.07744
2.07664
2.0751
2.07207
2.06704
2.06082
2.05648
2.05549
2.05733
2.06282
2.06912
2.07162
2.07124
2.07
2.06833
2.06558
2.06155
2.05665
2.05195
2.04903
2.04793
2.04779
2.04722
2.04544
2.04348
2.04206
2.04139
2.0415
2.04241
2.04391
2.04498
2.04473
2.04272
2.03883
2.03429
2.03116
2.02859
2.02503
2.0211
2.01855
2.01773
2.01792
2.01965
2.02357
2.02971
2.03651
2.04093
2.0412
2.03939
2.03674
2.03224
2.02509
2.0171
2.01033
2.00504
2.0012
1.99912
1.99825
1.99797
1.99922
2.00221
2.00507
2.00614
2.00561
2.00414
2.00236
1.99969
2.33817
2.34923
2.35509
2.36079
2.36698
2.36825
2.36622
2.3618
2.35714
2.35401
2.35114
2.34834
2.34525
2.34113
2.33684
2.3335
2.33262
2.33364
2.33412
2.33232
2.3279
2.32302
2.31847
2.3152
2.31469
2.31557
2.31626
2.31379
2.30918
2.30388
2.29748
2.2923
2.28961
2.28948
2.29264
2.29624
2.29573
2.2923
2.28769
2.28154
2.27589
2.27303
2.27169
2.27207
2.27512
2.27924
2.28022
2.27866
2.2758
2.27174
2.26767
2.26444
2.26164
2.2598
2.25914
2.25871
2.25794
2.25683
2.25553
2.25377
2.25201
2.24996
2.24725
2.24389
2.24046
2.23734
2.23456
2.2324
2.23169
2.23225
2.23434
2.23628
2.2366
2.23585
2.23474
2.23304
2.2305
2.22818
2.2263
2.22454
2.2229
2.2207
2.2179
2.21495
2.21147
2.20745
2.20361
2.20125
2.20019
2.20035
2.20252
2.2061
2.20874
2.20962
2.20951
2.20856
2.2067
2.20388
2.1999
2.19475
2.18918
2.18462
2.18218
2.18151
2.18172
2.1812
2.18001
2.17836
2.17672
2.17535
2.17418
2.17368
2.17386
2.17527
2.1764
2.17512
2.17185
2.16762
2.1621
2.15707
2.15453
2.15418
2.15524
2.15687
2.15706
2.15657
2.15562
2.1545
2.15336
2.1527
2.15272
2.15357
2.1552
2.15563
2.15332
2.14851
2.14173
2.13506
2.13139
2.13028
2.1299
2.12965
2.1295
2.12988
2.13109
2.13244
2.13295
2.13292
2.13209
2.13033
2.12798
2.12407
2.11807
2.11112
2.10576
2.10298
2.10163
2.10092
2.10079
2.10069
2.10022
2.09977
2.0999
2.10054
2.10168
2.10345
2.10507
2.10524
2.10363
2.10001
2.0945
2.08947
2.08744
2.08739
2.08748
2.0871
2.08693
2.08713
2.08725
2.08704
2.08632
2.08484
2.08275
2.07989
2.07614
2.07175
2.06774
2.0651
2.06364
2.06277
2.06248
2.06315
2.0637
2.06342
2.06293
2.0621
2.06028
2.05799
2.05621
2.05584
2.05648
2.05751
2.05829
2.05799
2.0569
2.05516
2.05289
2.05092
2.04954
2.04798
2.04559
2.04289
2.04019
2.03714
2.03389
2.03104
2.02913
2.02832
2.02922
2.0326
2.03753
2.04168
2.04325
2.04264
2.0395
2.0318
2.02186
2.01526
2.01135
2.00829
2.00649
2.00618
2.00639
2.00838
2.01351
2.0222
2.03038
2.03311
2.033
2.032
2.03045
2.02744
2.02071
2.01021
2.00107
1.99649
1.99474
1.99398
1.99368
1.99428
1.9958
1.99714
1.99763
1.9975
1.99661
1.99529
1.99395
1.99208
2.25659
2.30035
2.31939
2.33319
2.34609
2.35223
2.35117
2.34507
2.33875
2.33237
2.32812
2.32612
2.32533
2.3249
2.32237
2.31883
2.31654
2.31506
2.31406
2.31281
2.31101
2.30915
2.30723
2.30511
2.30377
2.30298
2.30218
2.29982
2.29652
2.29302
2.2891
2.28516
2.28239
2.28169
2.2826
2.28411
2.28405
2.28193
2.27864
2.27442
2.26934
2.2657
2.26422
2.26429
2.26688
2.27076
2.27144
2.2699
2.26764
2.26434
2.26042
2.25729
2.25482
2.25311
2.25184
2.25013
2.24823
2.24667
2.24582
2.24483
2.24318
2.24146
2.23937
2.23679
2.23409
2.23148
2.22903
2.2271
2.22642
2.22685
2.22854
2.22941
2.22913
2.22819
2.22719
2.22587
2.22394
2.22213
2.22054
2.21866
2.21593
2.21224
2.2081
2.20396
2.19983
2.19573
2.19252
2.1905
2.18944
2.1901
2.19323
2.19714
2.199
2.19932
2.19918
2.19876
2.198
2.19672
2.19472
2.19201
2.18806
2.18259
2.17667
2.17179
2.16883
2.16728
2.16605
2.16486
2.16387
2.16301
2.16248
2.16274
2.16418
2.16655
2.16764
2.16716
2.16525
2.16251
2.1596
2.15574
2.15078
2.14583
2.14244
2.1409
2.14002
2.13925
2.13885
2.13894
2.13973
2.14133
2.14432
2.14872
2.15231
2.15286
2.15065
2.14666
2.14064
2.13178
2.12257
2.11668
2.11445
2.11368
2.11311
2.11267
2.11285
2.11407
2.11629
2.11876
2.12049
2.12154
2.12151
2.11998
2.11727
2.11256
2.10584
2.09926
2.09471
2.09211
2.09049
2.08906
2.08756
2.08641
2.08596
2.08635
2.08881
2.09335
2.09771
2.10002
2.10015
2.09873
2.09553
2.08966
2.08212
2.0764
2.07405
2.07279
2.07146
2.0707
2.07081
2.07173
2.07264
2.07324
2.07325
2.07248
2.07106
2.06861
2.06464
2.05942
2.05478
2.05234
2.05134
2.05111
2.05159
2.05311
2.05508
2.05711
2.0586
2.0588
2.05721
2.05333
2.04848
2.04562
2.04467
2.0444
2.04387
2.04313
2.04277
2.04277
2.04309
2.04271
2.04085
2.03663
2.03136
2.02702
2.02365
2.02106
2.0194
2.01921
2.02155
2.02735
2.03428
2.03864
2.03963
2.03885
2.03633
2.02987
2.0183
2.00646
2.00018
1.99817
1.99756
1.99719
1.99746
1.99979
2.0053
2.01345
2.01995
2.02255
2.0233
2.0232
2.0223
2.02003
2.01445
2.00438
1.99442
1.9903
1.98947
1.9895
1.99036
1.99117
1.99084
1.9896
1.98793
1.98645
1.98531
1.98471
1.9845
1.98383
2.13752
2.19715
2.25516
2.28844
2.31016
2.32624
2.32964
2.32772
2.3231
2.31487
2.3073
2.30434
2.30345
2.30459
2.30646
2.30695
2.30604
2.30313
2.29934
2.29639
2.29492
2.29442
2.29444
2.29445
2.29401
2.29344
2.29131
2.28858
2.28601
2.2837
2.28155
2.27946
2.27737
2.27547
2.27407
2.27305
2.27241
2.27143
2.26935
2.2668
2.26352
2.25994
2.25758
2.25664
2.25734
2.25952
2.26084
2.26034
2.25892
2.25692
2.254
2.25076
2.24804
2.24563
2.24316
2.24057
2.23828
2.23666
2.23628
2.23611
2.23472
2.23293
2.2311
2.22924
2.22755
2.22587
2.22421
2.22298
2.22242
2.22244
2.22241
2.2214
2.21946
2.21797
2.21653
2.21487
2.21368
2.2128
2.21219
2.21127
2.20924
2.20605
2.20154
2.19611
2.19113
2.18755
2.1848
2.18258
2.1817
2.18219
2.18432
2.18639
2.18678
2.18652
2.18624
2.18595
2.18583
2.18566
2.18532
2.18458
2.18276
2.17988
2.17576
2.16996
2.16322
2.15726
2.15363
2.15215
2.15143
2.15107
2.15144
2.15269
2.15466
2.1562
2.15653
2.15623
2.15536
2.15434
2.15295
2.15065
2.14761
2.14276
2.13587
2.12918
2.12514
2.12396
2.124
2.12489
2.1278
2.13226
2.13803
2.14322
2.14544
2.14539
2.14328
2.13985
2.13533
2.12861
2.1197
2.11003
2.10252
2.09875
2.09738
2.09689
2.09688
2.0981
2.1006
2.10403
2.10783
2.11064
2.11197
2.11228
2.1116
2.10973
2.10616
2.10047
2.09358
2.08692
2.08155
2.07788
2.07563
2.07431
2.07413
2.07518
2.0783
2.083
2.0879
2.09139
2.0931
2.09322
2.09181
2.08892
2.08278
2.07236
2.06231
2.05726
2.05579
2.05494
2.05444
2.05508
2.05766
2.06085
2.06339
2.06496
2.06522
2.0643
2.06199
2.05737
2.05105
2.04613
2.04382
2.04302
2.04366
2.04641
2.05022
2.05338
2.05493
2.05461
2.0529
2.04943
2.04389
2.03791
2.03407
2.03257
2.03219
2.03281
2.03445
2.03574
2.03604
2.03592
2.03398
2.02833
2.022
2.01798
2.01534
2.01334
2.0123
2.01337
2.01804
2.02524
2.03
2.03101
2.03046
2.02926
2.02711
2.02275
2.01535
2.00591
1.99703
1.99213
1.99061
1.9903
1.99068
1.99249
1.99601
2.00041
2.00518
2.00988
2.01221
2.01234
2.01148
2.00928
2.00507
1.99877
1.99238
1.98815
1.98628
1.9858
1.98562
1.98497
1.98376
1.98183
1.97965
1.9778
1.97648
1.97576
1.9762
1.97759
2.08009
2.09561
2.14255
2.20372
2.25252
2.28292
2.29529
2.30443
2.30444
2.30116
2.29419
2.2887
2.28598
2.28699
2.29067
2.29547
2.29705
2.29507
2.29013
2.28448
2.28099
2.27942
2.27974
2.28158
2.28421
2.28478
2.28314
2.28039
2.27747
2.27535
2.27359
2.27279
2.2724
2.27123
2.26863
2.26518
2.26231
2.26053
2.25918
2.25783
2.25614
2.25397
2.25153
2.24964
2.24888
2.24921
2.25004
2.25032
2.24993
2.24866
2.24689
2.24415
2.24086
2.23759
2.23434
2.23142
2.22901
2.22787
2.22789
2.22795
2.22653
2.22447
2.22253
2.22119
2.22016
2.21919
2.2186
2.21827
2.21832
2.21827
2.21607
2.21263
2.20922
2.20622
2.2036
2.20151
2.20022
2.19982
2.20022
2.20101
2.2005
2.19857
2.19556
2.19088
2.18549
2.18165
2.179
2.17694
2.17588
2.17534
2.1751
2.17485
2.17401
2.1733
2.17283
2.17245
2.17233
2.17254
2.17296
2.17344
2.17371
2.17339
2.17104
2.16746
2.16239
2.15573
2.14914
2.14449
2.14211
2.14114
2.14142
2.14296
2.14453
2.14491
2.14456
2.14386
2.14359
2.14367
2.14349
2.14254
2.14032
2.13708
2.1321
2.12541
2.11895
2.11501
2.11391
2.11444
2.11822
2.12428
2.12973
2.13225
2.13265
2.13238
2.13085
2.12817
2.125
2.12079
2.11515
2.10794
2.09929
2.09148
2.08663
2.08455
2.08382
2.08453
2.08797
2.09279
2.09671
2.0993
2.1013
2.1029
2.10378
2.10369
2.10225
2.0991
2.09429
2.08777
2.08013
2.07321
2.06855
2.066
2.0653
2.06661
2.06965
2.07296
2.07601
2.07959
2.08297
2.08432
2.08386
2.08227
2.07879
2.07172
2.06049
2.04945
2.04324
2.04112
2.04067
2.04097
2.04329
2.0481
2.05352
2.0567
2.05759
2.05736
2.05642
2.05397
2.04951
2.04413
2.04004
2.03822
2.03822
2.04012
2.04306
2.04489
2.04543
2.04519
2.04403
2.04201
2.03851
2.03332
2.02777
2.02477
2.02407
2.02476
2.0265
2.02723
2.0275
2.02731
2.02465
2.01899
2.01374
2.01076
2.00878
2.00723
2.00732
2.01041
2.01681
2.02049
2.02028
2.01886
2.01789
2.01674
2.0148
2.012
2.00863
2.00459
1.99916
1.9922
1.98675
1.98495
1.9846
1.98489
1.98617
1.98897
1.99286
1.99571
1.99762
1.99877
1.99864
1.99726
1.99487
1.99228
1.99027
1.98794
1.98456
1.98075
1.97763
1.97549
1.97385
1.97251
1.97145
1.97068
1.97012
1.97009
1.97157
1.97379
2.06098
2.06876
2.07375
2.09732
2.14586
2.19978
2.23899
2.26658
2.276
2.28431
2.28468
2.28118
2.27767
2.27762
2.27981
2.28454
2.28681
2.28608
2.28321
2.2773
2.27051
2.26686
2.26641
2.26908
2.27395
2.27557
2.27485
2.27293
2.26987
2.26713
2.26508
2.26461
2.26545
2.26588
2.26398
2.25994
2.25451
2.25033
2.24819
2.24673
2.24595
2.24513
2.24399
2.24292
2.24204
2.24129
2.24088
2.24074
2.24061
2.23977
2.23822
2.23589
2.23262
2.22906
2.2255
2.22246
2.22051
2.22037
2.22086
2.22065
2.21856
2.21623
2.21398
2.21248
2.21146
2.21076
2.21084
2.2116
2.21251
2.21192
2.2088
2.20503
2.20031
2.19476
2.19005
2.18724
2.18558
2.18514
2.18601
2.18813
2.18918
2.1884
2.18666
2.18405
2.1805
2.17725
2.17505
2.17329
2.17171
2.16983
2.16792
2.16587
2.16378
2.16186
2.16022
2.15916
2.15848
2.15812
2.1583
2.15906
2.16016
2.16063
2.16032
2.1587
2.15611
2.15281
2.1484
2.14328
2.13902
2.13644
2.13518
2.13468
2.13418
2.13344
2.13255
2.13171
2.13106
2.13082
2.13097
2.13082
2.12928
2.12677
2.12391
2.12037
2.1166
2.11295
2.11046
2.10998
2.1117
2.11437
2.11578
2.11583
2.1158
2.11575
2.11556
2.11464
2.11248
2.10993
2.10689
2.10293
2.09758
2.0906
2.08373
2.07905
2.07673
2.07643
2.07921
2.0837
2.08665
2.08818
2.08954
2.09106
2.09212
2.09225
2.09174
2.09066
2.08882
2.0858
2.08116
2.07505
2.06894
2.06392
2.06123
2.06099
2.06213
2.06329
2.06364
2.0642
2.06662
2.07049
2.07237
2.07175
2.06995
2.0666
2.0604
2.05129
2.04122
2.03407
2.0311
2.03033
2.03223
2.03808
2.04395
2.04672
2.04774
2.04802
2.04771
2.04673
2.04498
2.04237
2.03912
2.03591
2.03381
2.03295
2.03255
2.0324
2.03245
2.03263
2.03237
2.03147
2.03002
2.02753
2.02379
2.01992
2.01785
2.01745
2.01754
2.01744
2.01711
2.01559
2.01257
2.00929
2.0068
2.00499
2.00364
2.00341
2.00518
2.0097
2.01246
2.01165
2.00938
2.00742
2.00561
2.00382
2.00208
2.00113
2.00088
2.00032
1.9985
1.99419
1.98737
1.9812
1.97839
1.97753
1.97773
1.97955
1.98231
1.98421
1.985
1.98552
1.9858
1.98597
1.98628
1.9865
1.98588
1.98401
1.98043
1.97503
1.96926
1.96535
1.96358
1.96296
1.96277
1.96296
1.96452
1.96729
1.96971
1.96963
2.05186
2.05726
2.05654
2.04906
2.05693
2.08286
2.13164
2.18451
2.22438
2.2524
2.26567
2.27372
2.27517
2.2739
2.2724
2.27239
2.27312
2.27324
2.27269
2.2705
2.26556
2.26021
2.25787
2.25891
2.26278
2.26497
2.26492
2.26387
2.26177
2.25911
2.25709
2.25678
2.25791
2.25866
2.257
2.25348
2.24808
2.24166
2.23752
2.23536
2.23411
2.23413
2.23493
2.23608
2.23622
2.23468
2.23271
2.2313
2.23007
2.22897
2.22762
2.22568
2.22311
2.22017
2.21679
2.21409
2.21332
2.21366
2.21398
2.21253
2.20987
2.20739
2.20483
2.20284
2.2017
2.20098
2.20127
2.20282
2.20388
2.20275
2.19977
2.1965
2.19197
2.18563
2.17943
2.17547
2.17307
2.17173
2.17254
2.17541
2.1774
2.17755
2.17693
2.17576
2.17417
2.17194
2.16997
2.16814
2.16605
2.16386
2.16189
2.15954
2.15687
2.15399
2.15069
2.1475
2.14544
2.1443
2.14339
2.14252
2.14228
2.14312
2.14474
2.14536
2.14524
2.1445
2.14302
2.14139
2.13937
2.13684
2.13402
2.13091
2.1275
2.12414
2.12148
2.11968
2.1184
2.117
2.11549
2.11475
2.11469
2.11441
2.11287
2.11151
2.11093
2.11122
2.11129
2.11001
2.10719
2.10346
2.10098
2.10046
2.10038
2.09991
2.09943
2.09906
2.09889
2.0985
2.09676
2.09438
2.09129
2.08706
2.08235
2.07823
2.07521
2.07394
2.07447
2.07582
2.07667
2.07638
2.07527
2.07408
2.07362
2.07424
2.07606
2.07759
2.0779
2.07751
2.07581
2.07323
2.07061
2.06781
2.06361
2.05822
2.05426
2.05286
2.05233
2.05231
2.05269
2.05395
2.0562
2.0581
2.05828
2.05667
2.05385
2.04954
2.04354
2.03615
2.02971
2.02669
2.02669
2.02971
2.03304
2.0344
2.03529
2.03627
2.03711
2.0377
2.03791
2.0377
2.03656
2.03433
2.03062
2.0259
2.02232
2.0207
2.0199
2.01948
2.01976
2.02083
2.02133
2.02095
2.01989
2.01775
2.01415
2.01033
2.00801
2.00653
2.0046
2.00183
1.99989
1.99965
1.99968
1.9995
1.99963
2.00149
2.00459
2.00567
2.00382
2.00112
1.99857
1.99607
1.99365
1.99153
1.99065
1.99092
1.99239
1.99352
1.9932
1.99134
1.98742
1.98127
1.9752
1.97197
1.97108
1.9721
1.97388
1.97451
1.97442
1.97415
1.97395
1.97498
1.97681
1.97754
1.97702
1.97533
1.97265
1.96848
1.96303
1.95805
1.95528
1.95443
1.95448
1.95653
1.96109
1.96518
1.96596
1.96474
2.04652
2.04937
2.04643
2.04173
2.03443
2.02543
2.03291
2.06651
2.12306
2.17895
2.22319
2.24979
2.26825
2.27014
2.26677
2.26143
2.25966
2.25899
2.25946
2.26022
2.26016
2.25806
2.25466
2.25294
2.25289
2.25313
2.25305
2.25271
2.25178
2.25013
2.24895
2.24892
2.24959
2.24948
2.24734
2.24419
2.23971
2.23375
2.22899
2.22644
2.22483
2.2253
2.22802
2.23055
2.23035
2.22793
2.22437
2.22045
2.21789
2.21638
2.21527
2.21424
2.21289
2.21102
2.20881
2.20706
2.20667
2.20667
2.20551
2.20262
2.19991
2.19729
2.19476
2.19272
2.19147
2.19074
2.19098
2.19233
2.19287
2.19162
2.18925
2.1866
2.18298
2.17791
2.17246
2.16813
2.16507
2.1631
2.16322
2.16522
2.16704
2.16742
2.1673
2.16664
2.16554
2.16387
2.16198
2.16016
2.15824
2.15653
2.15542
2.15327
2.15068
2.14798
2.14451
2.14
2.13518
2.13136
2.12892
2.12741
2.12655
2.12665
2.12775
2.12988
2.13227
2.13405
2.13544
2.13633
2.13624
2.13495
2.13279
2.12976
2.12583
2.12089
2.11511
2.10945
2.1055
2.10342
2.10198
2.10048
2.09923
2.09894
2.0999
2.1018
2.10447
2.10748
2.10843
2.10723
2.10433
2.09897
2.0923
2.0875
2.08564
2.08532
2.0851
2.08495
2.08473
2.08462
2.08487
2.08435
2.08242
2.08031
2.07871
2.07793
2.0778
2.07653
2.07329
2.06895
2.06558
2.06372
2.06178
2.05963
2.05817
2.05772
2.05825
2.06029
2.06328
2.06534
2.06679
2.06833
2.06989
2.07003
2.0672
2.06125
2.05164
2.04347
2.04066
2.04024
2.03992
2.04003
2.04055
2.04132
2.04269
2.04418
2.044
2.0424
2.04003
2.03652
2.03234
2.02866
2.0254
2.02291
2.02213
2.02218
2.02246
2.02386
2.02603
2.02806
2.02965
2.03061
2.03058
2.02925
2.02654
2.02183
2.01604
2.01175
2.00973
2.0089
2.00908
2.01103
2.01338
2.01459
2.01466
2.0134
2.01056
2.00554
1.99951
1.99479
1.99137
1.98928
1.98901
1.98942
1.99123
1.99399
1.9974
2.00047
2.00076
1.99865
1.99497
1.99093
1.9877
1.98484
1.98217
1.98088
1.98071
1.98124
1.98201
1.98258
1.98295
1.98283
1.98191
1.97986
1.9763
1.97156
1.96773
1.96626
1.96593
1.96548
1.96462
1.96366
1.96315
1.96266
1.96249
1.96333
1.96438
1.96411
1.96257
1.96026
1.95693
1.95316
1.95028
1.94911
1.9496
1.95326
1.95828
1.96033
1.96034
1.95784
2.03842
2.03833
2.03559
2.03147
2.02688
2.02292
2.01382
2.00865
2.0232
2.06761
2.13154
2.18776
2.2338
2.25318
2.25943
2.25484
2.24767
2.24534
2.24515
2.24686
2.25081
2.25372
2.25352
2.25061
2.24556
2.24155
2.24013
2.23941
2.23907
2.2391
2.23956
2.24028
2.24035
2.23868
2.23572
2.23253
2.22841
2.22393
2.22052
2.21822
2.21771
2.2196
2.22338
2.22458
2.22289
2.21955
2.21476
2.20939
2.20616
2.2045
2.20332
2.20292
2.20279
2.20243
2.20176
2.20077
2.19963
2.19783
2.19461
2.19155
2.18874
2.18609
2.18387
2.18214
2.18101
2.18055
2.18079
2.18126
2.1808
2.17915
2.17715
2.17479
2.17189
2.16858
2.16538
2.16266
2.16027
2.15895
2.15872
2.15852
2.15814
2.15747
2.15658
2.15547
2.15396
2.15245
2.15118
2.14984
2.14886
2.14867
2.14842
2.14666
2.14415
2.14169
2.13864
2.13445
2.12922
2.12379
2.11936
2.11646
2.11473
2.11425
2.11578
2.11866
2.12142
2.12394
2.1262
2.12755
2.12781
2.12746
2.12617
2.1244
2.12204
2.11871
2.11376
2.10687
2.09934
2.09315
2.08938
2.0875
2.08654
2.08645
2.08754
2.09124
2.09645
2.09963
2.10007
2.09899
2.09697
2.09379
2.08902
2.08287
2.07703
2.07337
2.07215
2.07183
2.07204
2.072
2.07154
2.07152
2.07179
2.07214
2.07335
2.07622
2.07835
2.07744
2.07428
2.06819
2.05953
2.05201
2.04801
2.04599
2.04456
2.0436
2.04334
2.04396
2.04621
2.05077
2.05706
2.0631
2.06662
2.06693
2.06539
2.06187
2.0546
2.04354
2.0334
2.02865
2.02769
2.02776
2.02786
2.02788
2.02803
2.02907
2.03178
2.03373
2.03409
2.03407
2.03339
2.03129
2.02746
2.02117
2.0146
2.01194
2.01192
2.01248
2.01408
2.01677
2.01974
2.0217
2.02226
2.02164
2.01978
2.01636
2.01152
2.0066
2.00344
2.0022
2.00202
2.0038
2.00685
2.00861
2.00864
2.00751
2.00544
2.0009
1.99305
1.98511
1.98062
1.97929
1.97902
1.97954
1.98268
1.9886
1.99369
1.99453
1.99376
1.99185
1.988
1.98269
1.97809
1.97518
1.97344
1.9723
1.97112
1.96977
1.96891
1.96878
1.96982
1.97219
1.9746
1.97582
1.97569
1.97386
1.96994
1.96361
1.95819
1.95577
1.9542
1.95244
1.95098
1.95012
1.94972
1.94965
1.95022
1.95133
1.95174
1.95096
1.94971
1.94869
1.94817
1.94858
1.95027
1.95203
1.95224
1.95222
1.95155
1.9474
2.02913
2.02554
2.02237
2.02051
2.01838
2.0148
2.01071
2.00579
1.99838
2.00096
2.02643
2.07639
2.13782
2.19162
2.22597
2.23889
2.23895
2.23415
2.23232
2.23423
2.23973
2.24595
2.24717
2.24587
2.2413
2.23406
2.22838
2.22593
2.22531
2.22608
2.22865
2.2307
2.23004
2.22678
2.22296
2.2191
2.21542
2.21275
2.2108
2.21011
2.21159
2.21536
2.2173
2.2163
2.21317
2.20911
2.20388
2.19894
2.19601
2.19435
2.19322
2.19324
2.19399
2.19434
2.19403
2.19272
2.19025
2.18703
2.18361
2.18053
2.17763
2.17513
2.17309
2.17153
2.17058
2.17034
2.17062
2.17014
2.16869
2.16695
2.16484
2.1624
2.1602
2.15853
2.15695
2.15611
2.15613
2.15691
2.15709
2.15467
2.15093
2.14731
2.14439
2.14223
2.14061
2.13956
2.13907
2.1391
2.13969
2.1407
2.1407
2.13881
2.13629
2.13363
2.13039
2.12659
2.12262
2.11871
2.11488
2.1116
2.10945
2.10856
2.10927
2.11086
2.11222
2.1129
2.11321
2.11376
2.11471
2.11527
2.11545
2.11541
2.11414
2.11217
2.10946
2.10552
2.09966
2.09205
2.08437
2.07884
2.07624
2.07551
2.07708
2.08169
2.08589
2.08706
2.08714
2.08648
2.08508
2.08372
2.08203
2.07955
2.07567
2.07027
2.06508
2.06192
2.06069
2.0597
2.05857
2.05814
2.05887
2.06198
2.06719
2.07228
2.0741
2.07318
2.07102
2.06728
2.05997
2.049
2.03922
2.03423
2.03233
2.03131
2.0307
2.03088
2.03297
2.03856
2.04708
2.0543
2.0573
2.05773
2.05714
2.05514
2.05151
2.0456
2.03666
2.02613
2.01884
2.01632
2.01609
2.01613
2.01623
2.0164
2.0172
2.02021
2.02529
2.02874
2.03031
2.02988
2.02764
2.02333
2.01606
2.00785
2.00369
2.00323
2.00406
2.00639
2.00882
2.01061
2.01138
2.01097
2.00951
2.00741
2.00469
2.00166
1.9989
1.99726
1.99694
1.99795
1.9999
2.00096
2.00085
1.99987
1.99783
1.99368
1.98653
1.97852
1.97385
1.97212
1.97142
1.97178
1.97502
1.98143
1.98508
1.98499
1.98496
1.98438
1.98227
1.97796
1.97233
1.96814
1.96587
1.9638
1.96129
1.95933
1.95843
1.95837
1.96012
1.96437
1.96943
1.97269
1.97356
1.97285
1.97045
1.96454
1.95499
1.94659
1.94255
1.94083
1.93955
1.93864
1.93809
1.93766
1.9375
1.93795
1.93915
1.94079
1.94243
1.94446
1.94734
1.95005
1.95031
1.94833
1.94516
1.94209
1.93948
1.93375
2.01924
2.0143
2.01038
2.00828
2.00871
2.00896
2.00754
2.00348
1.99832
1.99047
1.98563
1.99334
2.0201
2.06935
2.1273
2.17794
2.20804
2.21999
2.21814
2.22163
2.22659
2.23358
2.23704
2.23666
2.23381
2.228
2.22061
2.21542
2.21373
2.21392
2.21631
2.21897
2.21859
2.21521
2.21082
2.20651
2.20367
2.20214
2.20149
2.2024
2.20594
2.20843
2.20779
2.20528
2.20157
2.19687
2.19241
2.18913
2.18714
2.18584
2.18546
2.18582
2.18622
2.18596
2.18458
2.18217
2.17918
2.17605
2.17337
2.17079
2.16792
2.16534
2.16324
2.16166
2.16057
2.15999
2.15991
2.1594
2.15807
2.1563
2.15389
2.15126
2.14945
2.14833
2.14808
2.14905
2.15175
2.15401
2.15354
2.15038
2.14605
2.14024
2.13406
2.12981
2.12779
2.12674
2.12677
2.12824
2.13056
2.13165
2.13097
2.12868
2.12598
2.12265
2.11898
2.1158
2.11328
2.11119
2.10935
2.10797
2.10779
2.10782
2.10633
2.10393
2.10207
2.10084
2.09953
2.09827
2.098
2.09901
2.1016
2.10309
2.10317
2.1025
2.10106
2.09923
2.09641
2.09218
2.0863
2.07943
2.0734
2.06991
2.06911
2.07024
2.07125
2.07101
2.07065
2.07083
2.07193
2.07274
2.07288
2.07235
2.07108
2.06864
2.06399
2.0575
2.05162
2.04838
2.0474
2.04721
2.04859
2.0529
2.05932
2.06427
2.06575
2.06553
2.06402
2.06161
2.05736
2.05043
2.04064
2.03037
2.02402
2.02156
2.02085
2.02088
2.02258
2.02697
2.03313
2.03875
2.04225
2.04396
2.04441
2.04398
2.04274
2.04039
2.03655
2.03022
2.02109
2.01158
2.00653
2.00536
2.00523
2.00505
2.00534
2.00696
2.01121
2.01826
2.02225
2.02283
2.02196
2.01975
2.01625
2.01042
2.00268
1.99737
1.9965
1.9968
1.99695
1.99658
1.99657
1.99715
1.99748
1.99719
1.99618
1.99522
1.99428
1.99324
1.99238
1.99201
1.99182
1.99154
1.99106
1.99
1.98787
1.98423
1.97929
1.97358
1.96901
1.96661
1.96555
1.96566
1.96742
1.97082
1.97377
1.97489
1.97534
1.97556
1.97527
1.9737
1.9697
1.96342
1.95772
1.95418
1.95185
1.95044
1.94986
1.95057
1.95429
1.96064
1.9658
1.96782
1.96812
1.96741
1.96542
1.96145
1.95434
1.9445
1.93566
1.93108
1.92952
1.92858
1.92767
1.92693
1.92656
1.92685
1.92865
1.93216
1.93685
1.94196
1.94638
1.94801
1.94705
1.9442
1.93871
1.93124
1.92476
1.9174
2.0108
2.00453
2.00135
1.99922
1.99961
2.00294
2.00432
2.00198
1.99635
1.9885
1.98006
1.97248
1.97209
1.98128
2.00968
2.06037
2.11759
2.16715
2.19311
2.20531
2.20949
2.21531
2.22028
2.22295
2.22282
2.21911
2.21371
2.20795
2.20459
2.20373
2.20404
2.20544
2.20555
2.20345
2.19956
2.1959
2.19379
2.19283
2.19297
2.19515
2.19807
2.19792
2.19594
2.193
2.18869
2.18416
2.18121
2.17958
2.17886
2.17904
2.17958
2.17945
2.17793
2.176
2.17376
2.17116
2.16822
2.16549
2.1638
2.16235
2.15978
2.15693
2.15448
2.15232
2.15048
2.14914
2.14843
2.14846
2.14809
2.14665
2.14456
2.14226
2.1408
2.14012
2.14036
2.14218
2.14535
2.1467
2.14553
2.14253
2.13905
2.13428
2.12812
2.12248
2.11905
2.11727
2.11661
2.11799
2.12048
2.1209
2.11958
2.1173
2.11442
2.11073
2.10705
2.1047
2.10338
2.10277
2.10341
2.10553
2.10786
2.10775
2.10504
2.09993
2.09302
2.08748
2.08496
2.08389
2.08329
2.08352
2.08499
2.08769
2.08984
2.09042
2.09032
2.08953
2.08818
2.08612
2.08327
2.0797
2.07552
2.07107
2.06637
2.06203
2.05944
2.05847
2.05799
2.05782
2.05829
2.06041
2.06292
2.06386
2.06391
2.06298
2.06065
2.05612
2.04948
2.04335
2.04023
2.03949
2.04068
2.04496
2.0499
2.05265
2.05409
2.05446
2.05362
2.05206
2.04992
2.04666
2.04167
2.03396
2.02411
2.01652
2.01328
2.01229
2.01265
2.01519
2.01989
2.0238
2.02568
2.02705
2.0291
2.03143
2.03214
2.03195
2.0307
2.02817
2.02358
2.01555
2.00498
1.9972
1.99448
1.99414
1.99411
1.99492
1.99793
2.00292
2.00867
2.01194
2.01261
2.01257
2.01145
2.00919
2.0051
1.99761
1.98926
1.98574
1.98495
1.98426
1.98374
1.98401
1.98534
1.98663
1.98731
1.98781
1.98819
1.98801
1.98702
1.98531
1.98317
1.98142
1.98003
1.97853
1.97674
1.97458
1.97209
1.96892
1.96514
1.96216
1.96059
1.96037
1.96053
1.96104
1.96234
1.96451
1.96625
1.96711
1.96765
1.96756
1.96562
1.9598
1.95165
1.94603
1.94397
1.94317
1.94321
1.94537
1.9499
1.95356
1.95528
1.95653
1.95704
1.95658
1.95551
1.9536
1.9498
1.94367
1.93547
1.92722
1.92224
1.92034
1.91915
1.91821
1.91782
1.91796
1.92018
1.92557
1.93324
1.94023
1.94329
1.94337
1.94166
1.93876
1.93265
1.92045
1.90891
1.90406
2.00685
1.9991
1.99506
1.99258
1.99268
1.99479
1.99715
1.99629
1.99133
1.98484
1.9768
1.96872
1.96345
1.96102
1.96273
1.9758
2.00593
2.05572
2.11255
2.15827
2.18315
2.19017
2.19764
2.20326
2.20648
2.20687
2.20523
2.20219
2.19822
2.19553
2.19313
2.19215
2.19187
2.19087
2.18855
2.18614
2.18455
2.1839
2.18441
2.18646
2.18705
2.18542
2.18309
2.17996
2.17607
2.17297
2.17113
2.17072
2.17154
2.17304
2.17305
2.1714
2.16901
2.16632
2.16371
2.16114
2.15845
2.15648
2.15562
2.1545
2.15168
2.14858
2.14534
2.14236
2.14004
2.13826
2.13733
2.13772
2.13838
2.13775
2.13634
2.13471
2.13359
2.13297
2.13292
2.13347
2.13444
2.13474
2.13396
2.13177
2.12921
2.12607
2.12211
2.11779
2.114
2.11147
2.11012
2.11026
2.11092
2.11028
2.10846
2.10622
2.10339
2.1
2.097
2.09517
2.09437
2.09495
2.09786
2.10184
2.10321
2.10207
2.09992
2.09609
2.08911
2.0805