/*--------------------------------*- C++ -*----------------------------------*\
  =========                 |
  \\      /  F ield         | OpenFOAM: The Open Source CFD Toolbox
   \\    /   O peration     | Website:  https://openfoam.org
    \\  /    A nd           | Version:  7
     \\/     M anipulation  |
\*---------------------------------------------------------------------------*/
FoamFile
{
    version     2.0;
    format      ascii;
    class       volVectorField;
    location    "3";
    object      U;
}
// * * * * * * * * * * * * * * * * * * * * * * * * * * * * * * * * * * * * * //

dimensions      [0 1 -1 0 0 0 0];

internalField   nonuniform List<vector> 
16512
(
(1.49974 -0.210599 0)
(1.50159 -0.20843 0)
(1.49934 -0.202211 0)
(1.49379 -0.199287 0)
(1.49366 -0.197393 0)
(1.49871 -0.193841 0)
(1.51244 -0.188578 0)
(1.52498 -0.185563 0)
(1.52753 -0.185068 0)
(1.52707 -0.18439 0)
(1.52376 -0.180622 0)
(1.51846 -0.174501 0)
(1.5174 -0.171674 0)
(1.51929 -0.17219 0)
(1.52552 -0.175121 0)
(1.53934 -0.178001 0)
(1.55389 -0.177338 0)
(1.5608 -0.173803 0)
(1.56241 -0.170723 0)
(1.56075 -0.166278 0)
(1.55703 -0.161847 0)
(1.55672 -0.160365 0)
(1.55947 -0.16164 0)
(1.56605 -0.165837 0)
(1.57616 -0.16932 0)
(1.58541 -0.167986 0)
(1.59232 -0.162557 0)
(1.59693 -0.156911 0)
(1.59869 -0.153913 0)
(1.60005 -0.153302 0)
(1.60203 -0.154882 0)
(1.60519 -0.15815 0)
(1.61066 -0.162526 0)
(1.61768 -0.166143 0)
(1.62296 -0.166184 0)
(1.62622 -0.162608 0)
(1.62981 -0.15552 0)
(1.6344 -0.14899 0)
(1.63899 -0.146582 0)
(1.6424 -0.147682 0)
(1.64562 -0.150002 0)
(1.64955 -0.152574 0)
(1.65421 -0.155118 0)
(1.65843 -0.156861 0)
(1.66158 -0.157271 0)
(1.66426 -0.156809 0)
(1.66742 -0.155216 0)
(1.67249 -0.152079 0)
(1.67919 -0.148018 0)
(1.68535 -0.145064 0)
(1.68819 -0.144377 0)
(1.68966 -0.144361 0)
(1.69091 -0.144148 0)
(1.69233 -0.143699 0)
(1.69434 -0.143147 0)
(1.69709 -0.142151 0)
(1.70171 -0.14031 0)
(1.70733 -0.137359 0)
(1.71206 -0.1341 0)
(1.7153 -0.131467 0)
(1.7173 -0.12962 0)
(1.71882 -0.128152 0)
(1.7201 -0.127279 0)
(1.72185 -0.127436 0)
(1.72386 -0.128586 0)
(1.726 -0.13054 0)
(1.72824 -0.132572 0)
(1.73053 -0.134273 0)
(1.73264 -0.134996 0)
(1.73455 -0.134356 0)
(1.73598 -0.131924 0)
(1.73767 -0.128591 0)
(1.73973 -0.12496 0)
(1.74201 -0.121528 0)
(1.74434 -0.11923 0)
(1.74671 -0.118022 0)
(1.74898 -0.117133 0)
(1.75118 -0.116356 0)
(1.7537 -0.115655 0)
(1.7572 -0.114671 0)
(1.76217 -0.112939 0)
(1.76819 -0.110687 0)
(1.77281 -0.109198 0)
(1.77514 -0.108748 0)
(1.77657 -0.108835 0)
(1.77796 -0.109188 0)
(1.77859 -0.110077 0)
(1.77808 -0.111124 0)
(1.77745 -0.111627 0)
(1.77815 -0.111201 0)
(1.77985 -0.109764 0)
(1.7816 -0.107465 0)
(1.78318 -0.104169 0)
(1.78456 -0.100064 0)
(1.7857 -0.0958962 0)
(1.78676 -0.0926708 0)
(1.78811 -0.0910407 0)
(1.78968 -0.0906206 0)
(1.79189 -0.0906724 0)
(1.79531 -0.0911051 0)
(1.80041 -0.0918923 0)
(1.80683 -0.0929777 0)
(1.81212 -0.0939794 0)
(1.81479 -0.0947617 0)
(1.81673 -0.0955106 0)
(1.81858 -0.0964767 0)
(1.82017 -0.0976257 0)
(1.82113 -0.0989202 0)
(1.82123 -0.100084 0)
(1.82068 -0.100536 0)
(1.82007 -0.0995259 0)
(1.81954 -0.0967597 0)
(1.81909 -0.0923106 0)
(1.81945 -0.0869981 0)
(1.8214 -0.0822576 0)
(1.82533 -0.0784005 0)
(1.83194 -0.0763525 0)
(1.83891 -0.0776933 0)
(1.843 -0.080504 0)
(1.84527 -0.0842372 0)
(1.84679 -0.0881716 0)
(1.84769 -0.0914132 0)
(1.84842 -0.093367 0)
(1.84979 -0.0938379 0)
(1.85138 -0.0928297 0)
(1.85365 -0.0902909 0)
(1.85612 -0.0869321 0)
(1.8581 -0.0832821 0)
(1.85963 -0.0794036 0)
(1.86035 -0.0749201 0)
(1.85991 -0.0700399 0)
(1.85925 -0.0653459 0)
(1.85989 -0.0619597 0)
(1.86205 -0.0604397 0)
(1.86501 -0.0602617 0)
(1.87017 -0.0610742 0)
(1.87535 -0.0629487 0)
(1.87857 -0.0655023 0)
(1.88115 -0.0681658 0)
(1.88389 -0.0708257 0)
(1.8865 -0.0730192 0)
(1.8888 -0.0744787 0)
(1.89074 -0.0748429 0)
(1.89211 -0.0737082 0)
(1.89324 -0.0701002 0)
(1.89372 -0.0640977 0)
(1.89325 -0.0566549 0)
(1.89234 -0.0487685 0)
(1.89217 -0.0422475 0)
(1.89353 -0.0385181 0)
(1.89577 -0.037414 0)
(1.89902 -0.0379316 0)
(1.90262 -0.0404046 0)
(1.90463 -0.0435238 0)
(1.9063 -0.0471455 0)
(1.90803 -0.0514011 0)
(1.91019 -0.0558705 0)
(1.91287 -0.0602198 0)
(1.91567 -0.0637652 0)
(1.91808 -0.0656666 0)
(1.91982 -0.0664119 0)
(1.92146 -0.0658324 0)
(1.92293 -0.0628218 0)
(1.92296 -0.0571659 0)
(1.9208 -0.0495061 0)
(1.91808 -0.0422484 0)
(1.91851 -0.0387471 0)
(1.92052 -0.0383477 0)
(1.92458 -0.0394325 0)
(1.9308 -0.0416806 0)
(1.93608 -0.043967 0)
(1.93885 -0.0456997 0)
(1.94056 -0.0467847 0)
(1.94211 -0.0472739 0)
(1.94358 -0.0472503 0)
(1.94487 -0.0464811 0)
(1.94618 -0.0443505 0)
(1.94761 -0.0402813 0)
(1.94904 -0.034565 0)
(1.95006 -0.0281523 0)
(1.95049 -0.0225074 0)
(1.951 -0.0190914 0)
(1.95249 -0.018227 0)
(1.95468 -0.018915 0)
(1.95716 -0.0210594 0)
(1.96022 -0.0244059 0)
(1.96383 -0.0287278 0)
(1.96768 -0.0336345 0)
(1.97113 -0.0378219 0)
(1.97341 -0.0398491 0)
(1.97521 -0.0403601 0)
(1.97647 -0.0398856 0)
(1.97571 -0.0367743 0)
(1.97121 -0.0299849 0)
(1.96342 -0.0220818 0)
(1.95778 -0.0184062 0)
(1.95697 -0.0194078 0)
(1.95807 -0.0212581 0)
(1.95993 -0.0233873 0)
(1.96432 -0.0258193 0)
(1.97266 -0.0267621 0)
(1.98344 -0.0234262 0)
(1.99398 -0.0168454 0)
(2.00172 -0.0110736 0)
(2.00527 -0.00880769 0)
(2.0071 -0.00823854 0)
(2.00699 -0.00728094 0)
(2.002 -0.00583967 0)
(1.99565 -0.00641459 0)
(1.99237 -0.0096076 0)
(1.99122 -0.0126333 0)
(1.99125 -0.0145608 0)
(1.99261 -0.0154472 0)
(1.99601 -0.0153406 0)
(2.00079 -0.0139392 0)
(2.00509 -0.0127506 0)
(2.00777 -0.012398 0)
(2.00945 -0.0123664 0)
(2.01108 -0.0119404 0)
(2.01118 -0.00986725 0)
(2.01016 -0.00541766 0)
(2.00932 0.000169928 0)
(2.01005 0.00472115 0)
(2.01249 0.00712247 0)
(2.01597 0.00829085 0)
(2.02082 0.00867769 0)
(2.0246 0.00901415 0)
(2.02692 0.00948903 0)
(2.02762 0.00919661 0)
(2.02773 0.00707864 0)
(2.02751 0.00200405 0)
(2.02757 -0.00465615 0)
(2.02834 -0.0110638 0)
(2.02983 -0.0161967 0)
(2.03169 -0.0181526 0)
(2.03373 -0.0176175 0)
(2.03646 -0.0136964 0)
(2.04134 -0.00564323 0)
(2.04791 0.00631212 0)
(2.05318 0.017244 0)
(2.05519 0.0228795 0)
(2.05612 0.0261502 0)
(2.05626 0.0271663 0)
(2.05638 0.0263739 0)
(2.05581 0.0245488 0)
(2.05377 0.0213177 0)
(2.04956 0.0157744 0)
(2.04543 0.00893022 0)
(2.04452 0.00379505 0)
(2.04569 0.00163945 0)
(2.04831 -0.00037491 0)
(2.05156 -0.00043314 0)
(2.05428 0.0021111 0)
(2.05669 0.00692972 0)
(2.0593 0.0130696 0)
(2.06242 0.0186917 0)
(2.06543 0.0223668 0)
(2.06988 0.0225639 0)
(1.50842 -0.211122 0)
(1.5128 -0.212299 0)
(1.51505 -0.210184 0)
(1.51459 -0.206425 0)
(1.51616 -0.201732 0)
(1.51921 -0.197868 0)
(1.52888 -0.190003 0)
(1.53969 -0.186675 0)
(1.54422 -0.187411 0)
(1.54473 -0.188203 0)
(1.54382 -0.18793 0)
(1.54089 -0.183319 0)
(1.53887 -0.176387 0)
(1.53935 -0.172523 0)
(1.54244 -0.17113 0)
(1.55354 -0.172603 0)
(1.57168 -0.175701 0)
(1.58369 -0.17808 0)
(1.58703 -0.178313 0)
(1.58713 -0.177475 0)
(1.58392 -0.174255 0)
(1.58122 -0.1699 0)
(1.58274 -0.167622 0)
(1.58687 -0.166753 0)
(1.59694 -0.167211 0)
(1.61113 -0.166256 0)
(1.62089 -0.163357 0)
(1.62436 -0.161476 0)
(1.62544 -0.160075 0)
(1.62381 -0.158688 0)
(1.62269 -0.159345 0)
(1.62443 -0.160816 0)
(1.62811 -0.163765 0)
(1.63569 -0.16738 0)
(1.64496 -0.168153 0)
(1.65255 -0.16429 0)
(1.65747 -0.158303 0)
(1.65953 -0.153441 0)
(1.66012 -0.15072 0)
(1.6607 -0.151249 0)
(1.6626 -0.153448 0)
(1.6654 -0.155665 0)
(1.66949 -0.158092 0)
(1.67475 -0.160382 0)
(1.67964 -0.160899 0)
(1.68365 -0.159115 0)
(1.68786 -0.155189 0)
(1.69266 -0.150131 0)
(1.69762 -0.1464 0)
(1.70102 -0.144975 0)
(1.70257 -0.144812 0)
(1.70404 -0.144593 0)
(1.70528 -0.14425 0)
(1.70678 -0.14396 0)
(1.7087 -0.14351 0)
(1.71162 -0.142172 0)
(1.71652 -0.139687 0)
(1.72235 -0.136565 0)
(1.72662 -0.134322 0)
(1.72898 -0.133341 0)
(1.73087 -0.132631 0)
(1.7321 -0.13171 0)
(1.73244 -0.130964 0)
(1.73265 -0.130996 0)
(1.73363 -0.131767 0)
(1.73524 -0.132696 0)
(1.73711 -0.133899 0)
(1.7394 -0.135461 0)
(1.74246 -0.136806 0)
(1.74552 -0.137096 0)
(1.74836 -0.135871 0)
(1.7515 -0.132629 0)
(1.75424 -0.127804 0)
(1.75595 -0.122903 0)
(1.75663 -0.118233 0)
(1.75689 -0.114332 0)
(1.75785 -0.111933 0)
(1.75947 -0.110507 0)
(1.76213 -0.109499 0)
(1.76659 -0.108712 0)
(1.77272 -0.107759 0)
(1.7783 -0.107021 0)
(1.78119 -0.106863 0)
(1.78235 -0.107122 0)
(1.78348 -0.107764 0)
(1.78402 -0.109125 0)
(1.78391 -0.111645 0)
(1.78399 -0.114336 0)
(1.78477 -0.115746 0)
(1.78686 -0.116623 0)
(1.78939 -0.11708 0)
(1.79248 -0.116167 0)
(1.7958 -0.112805 0)
(1.79837 -0.108104 0)
(1.80001 -0.102946 0)
(1.80059 -0.097419 0)
(1.80038 -0.091877 0)
(1.8005 -0.087502 0)
(1.80169 -0.0851069 0)
(1.80374 -0.0842599 0)
(1.80812 -0.0845768 0)
(1.81461 -0.0865695 0)
(1.81997 -0.0902797 0)
(1.82291 -0.0928354 0)
(1.82458 -0.0941529 0)
(1.82624 -0.0955188 0)
(1.82766 -0.097182 0)
(1.82864 -0.0992001 0)
(1.82911 -0.101642 0)
(1.82939 -0.103664 0)
(1.83014 -0.104568 0)
(1.83154 -0.104169 0)
(1.83316 -0.102191 0)
(1.83506 -0.0977376 0)
(1.83738 -0.0904264 0)
(1.84081 -0.0821066 0)
(1.84283 -0.0761361 0)
(1.84426 -0.074906 0)
(1.846 -0.0766018 0)
(1.8479 -0.079707 0)
(1.85 -0.0828626 0)
(1.85281 -0.0853903 0)
(1.8555 -0.0866205 0)
(1.85817 -0.086315 0)
(1.86121 -0.0850597 0)
(1.86439 -0.0835606 0)
(1.86716 -0.0825939 0)
(1.86912 -0.0823335 0)
(1.87095 -0.082574 0)
(1.87204 -0.0826998 0)
(1.87261 -0.081267 0)
(1.87291 -0.0778636 0)
(1.87359 -0.072992 0)
(1.87503 -0.0670562 0)
(1.87728 -0.0608532 0)
(1.88062 -0.0565128 0)
(1.88368 -0.0554473 0)
(1.8862 -0.0564813 0)
(1.88855 -0.058291 0)
(1.89099 -0.0605431 0)
(1.89355 -0.0630551 0)
(1.8962 -0.0655246 0)
(1.89909 -0.0674806 0)
(1.90236 -0.0687558 0)
(1.90538 -0.0694968 0)
(1.90696 -0.0693706 0)
(1.90797 -0.0672621 0)
(1.90802 -0.0623816 0)
(1.9074 -0.0558141 0)
(1.90671 -0.0490055 0)
(1.90668 -0.043655 0)
(1.90768 -0.0411953 0)
(1.9096 -0.0411133 0)
(1.91162 -0.0425933 0)
(1.91332 -0.045426 0)
(1.91495 -0.0482269 0)
(1.91693 -0.0508621 0)
(1.91942 -0.0537363 0)
(1.92265 -0.0569943 0)
(1.92618 -0.0603237 0)
(1.92925 -0.0626624 0)
(1.93187 -0.0642314 0)
(1.93349 -0.0652088 0)
(1.9351 -0.0651092 0)
(1.93596 -0.0622875 0)
(1.93499 -0.0560003 0)
(1.93354 -0.0477849 0)
(1.9339 -0.0403868 0)
(1.93614 -0.0356971 0)
(1.93948 -0.0337209 0)
(1.94362 -0.0343779 0)
(1.94675 -0.0357869 0)
(1.94872 -0.0369347 0)
(1.95035 -0.0377015 0)
(1.95231 -0.0378363 0)
(1.95478 -0.037339 0)
(1.95741 -0.0365618 0)
(1.95958 -0.0358874 0)
(1.96101 -0.0353755 0)
(1.96198 -0.0341564 0)
(1.96169 -0.031567 0)
(1.96102 -0.0281575 0)
(1.96056 -0.0252533 0)
(1.96118 -0.0239085 0)
(1.96329 -0.0241211 0)
(1.9658 -0.025036 0)
(1.96887 -0.0274173 0)
(1.97278 -0.0309636 0)
(1.9768 -0.0349185 0)
(1.98063 -0.0387383 0)
(1.98298 -0.0410419 0)
(1.98435 -0.0422155 0)
(1.98538 -0.0429272 0)
(1.98422 -0.0417507 0)
(1.97916 -0.0366154 0)
(1.97134 -0.0284773 0)
(1.96647 -0.0217704 0)
(1.96664 -0.0188823 0)
(1.96809 -0.0178072 0)
(1.97248 -0.0162548 0)
(1.98256 -0.0133511 0)
(1.99615 -0.00922907 0)
(2.00594 -0.00657978 0)
(2.0098 -0.00694926 0)
(2.01157 -0.00806782 0)
(2.01321 -0.00949075 0)
(2.01346 -0.0109385 0)
(2.00973 -0.0119665 0)
(2.00241 -0.0120319 0)
(1.99804 -0.0119679 0)
(1.9982 -0.0120225 0)
(1.99959 -0.0113854 0)
(2.00223 -0.00938899 0)
(2.0064 -0.00722172 0)
(2.0102 -0.00708664 0)
(2.01251 -0.00903771 0)
(2.01465 -0.0119503 0)
(2.01685 -0.0153073 0)
(2.01883 -0.0179837 0)
(2.02121 -0.0189292 0)
(2.02379 -0.0172164 0)
(2.02539 -0.0113782 0)
(2.02603 -0.00239805 0)
(2.02679 0.00663776 0)
(2.02858 0.0132451 0)
(2.03115 0.0170343 0)
(2.03316 0.0183392 0)
(2.03381 0.0177623 0)
(2.03374 0.0153161 0)
(2.03155 0.0104546 0)
(2.02936 0.00389318 0)
(2.02916 -0.001618 0)
(2.03049 -0.00598875 0)
(2.03367 -0.0103813 0)
(2.03852 -0.0142885 0)
(2.04398 -0.0144443 0)
(2.05046 -0.0102423 0)
(2.05853 -0.00187323 0)
(2.06515 0.00678057 0)
(2.0678 0.011491 0)
(2.06932 0.0158519 0)
(2.06796 0.0206999 0)
(2.06487 0.0237409 0)
(2.06256 0.0233445 0)
(2.06019 0.0204043 0)
(2.05607 0.0163903 0)
(2.0506 0.0122489 0)
(2.04757 0.0102253 0)
(2.04795 0.010035 0)
(2.04938 0.00981615 0)
(2.05272 0.00909941 0)
(2.05863 0.00884209 0)
(2.0644 0.0105774 0)
(2.0685 0.0136643 0)
(2.07109 0.0168375 0)
(2.073 0.0196429 0)
(2.07452 0.0216577 0)
(2.07682 0.0224641 0)
(1.52142 -0.21541 0)
(1.52137 -0.214952 0)
(1.52877 -0.208028 0)
(1.5363 -0.208275 0)
(1.54245 -0.205909 0)
(1.5457 -0.202226 0)
(1.5517 -0.194925 0)
(1.55725 -0.1886 0)
(1.56185 -0.187467 0)
(1.56376 -0.189644 0)
(1.56357 -0.191819 0)
(1.56348 -0.191883 0)
(1.56394 -0.187063 0)
(1.56482 -0.180121 0)
(1.5675 -0.17589 0)
(1.57483 -0.17352 0)
(1.58903 -0.17499 0)
(1.60344 -0.179355 0)
(1.6102 -0.183255 0)
(1.61154 -0.184416 0)
(1.61088 -0.183696 0)
(1.60886 -0.179541 0)
(1.60965 -0.174477 0)
(1.61332 -0.17049 0)
(1.62186 -0.167212 0)
(1.63548 -0.166451 0)
(1.64575 -0.167355 0)
(1.64909 -0.167915 0)
(1.65033 -0.168162 0)
(1.64861 -0.167426 0)
(1.64513 -0.166119 0)
(1.64529 -0.165829 0)
(1.64752 -0.16572 0)
(1.65355 -0.165603 0)
(1.66487 -0.16466 0)
(1.67572 -0.162293 0)
(1.68018 -0.160315 0)
(1.68178 -0.158969 0)
(1.68127 -0.156613 0)
(1.67858 -0.154968 0)
(1.67826 -0.155476 0)
(1.68008 -0.156561 0)
(1.68278 -0.158332 0)
(1.68789 -0.160374 0)
(1.69467 -0.160575 0)
(1.70121 -0.157393 0)
(1.7066 -0.152337 0)
(1.71047 -0.148285 0)
(1.71224 -0.1465 0)
(1.71326 -0.146099 0)
(1.71414 -0.146101 0)
(1.7154 -0.145871 0)
(1.71687 -0.145508 0)
(1.71854 -0.145025 0)
(1.72091 -0.143787 0)
(1.72467 -0.141472 0)
(1.72954 -0.139159 0)
(1.73438 -0.13803 0)
(1.7374 -0.137419 0)
(1.73983 -0.136902 0)
(1.74187 -0.136323 0)
(1.74313 -0.135719 0)
(1.74329 -0.135088 0)
(1.74286 -0.134502 0)
(1.74303 -0.134168 0)
(1.74414 -0.134318 0)
(1.74563 -0.134597 0)
(1.74731 -0.135045 0)
(1.75037 -0.135757 0)
(1.75442 -0.135762 0)
(1.75895 -0.134244 0)
(1.76349 -0.13133 0)
(1.76652 -0.128191 0)
(1.76809 -0.125403 0)
(1.76891 -0.121875 0)
(1.7685 -0.117273 0)
(1.76822 -0.112736 0)
(1.76951 -0.109335 0)
(1.77182 -0.10634 0)
(1.77562 -0.103655 0)
(1.78078 -0.102032 0)
(1.78539 -0.102032 0)
(1.78767 -0.10327 0)
(1.78894 -0.104798 0)
(1.78985 -0.106554 0)
(1.78983 -0.108954 0)
(1.78896 -0.112086 0)
(1.78925 -0.115223 0)
(1.79107 -0.117448 0)
(1.79349 -0.119345 0)
(1.79715 -0.120084 0)
(1.80213 -0.11889 0)
(1.80706 -0.11615 0)
(1.81041 -0.113127 0)
(1.8127 -0.110057 0)
(1.81441 -0.106214 0)
(1.81513 -0.101107 0)
(1.81497 -0.095014 0)
(1.81481 -0.0888965 0)
(1.81561 -0.0841634 0)
(1.81738 -0.0822696 0)
(1.82035 -0.0829547 0)
(1.82571 -0.0851641 0)
(1.83047 -0.088316 0)
(1.83246 -0.0906578 0)
(1.83384 -0.0924101 0)
(1.83511 -0.0943925 0)
(1.83601 -0.096571 0)
(1.83688 -0.0991102 0)
(1.8383 -0.101396 0)
(1.84009 -0.103217 0)
(1.84216 -0.104656 0)
(1.84503 -0.104735 0)
(1.84926 -0.101965 0)
(1.85423 -0.0957902 0)
(1.85703 -0.0893273 0)
(1.85791 -0.0835965 0)
(1.85633 -0.0777199 0)
(1.85467 -0.0741654 0)
(1.85547 -0.0738686 0)
(1.85711 -0.074747 0)
(1.86047 -0.0761967 0)
(1.86472 -0.0770688 0)
(1.8684 -0.0776612 0)
(1.87098 -0.078686 0)
(1.87291 -0.0802811 0)
(1.87489 -0.082443 0)
(1.87665 -0.0848284 0)
(1.87812 -0.0872139 0)
(1.88042 -0.0891664 0)
(1.88311 -0.0899087 0)
(1.8861 -0.0884416 0)
(1.88969 -0.0825261 0)
(1.89288 -0.0727726 0)
(1.8943 -0.0623348 0)
(1.89401 -0.0534652 0)
(1.89301 -0.0480859 0)
(1.89323 -0.0469448 0)
(1.89426 -0.0477426 0)
(1.89567 -0.0499422 0)
(1.89771 -0.0526837 0)
(1.90061 -0.0558696 0)
(1.90413 -0.0597663 0)
(1.90801 -0.0641815 0)
(1.91221 -0.0679311 0)
(1.9162 -0.0701761 0)
(1.91949 -0.0711103 0)
(1.92165 -0.0708963 0)
(1.92308 -0.0686642 0)
(1.92336 -0.0639503 0)
(1.92266 -0.0575536 0)
(1.92088 -0.0505186 0)
(1.91925 -0.0451383 0)
(1.91928 -0.0432495 0)
(1.92052 -0.0434714 0)
(1.92198 -0.0443506 0)
(1.92412 -0.0456975 0)
(1.9268 -0.047225 0)
(1.9298 -0.0491853 0)
(1.93324 -0.0518422 0)
(1.93698 -0.0552873 0)
(1.93994 -0.0592073 0)
(1.94229 -0.0627691 0)
(1.94461 -0.065646 0)
(1.94661 -0.0671633 0)
(1.94909 -0.0659883 0)
(1.95136 -0.0597159 0)
(1.95275 -0.0495873 0)
(1.95337 -0.0390736 0)
(1.95327 -0.0303547 0)
(1.95315 -0.0256297 0)
(1.95385 -0.0250175 0)
(1.95564 -0.0260407 0)
(1.95797 -0.0273323 0)
(1.95991 -0.0284575 0)
(1.96185 -0.0298601 0)
(1.96408 -0.0319901 0)
(1.9664 -0.0342578 0)
(1.96867 -0.0359899 0)
(1.97093 -0.0367895 0)
(1.97243 -0.0369868 0)
(1.97266 -0.0363662 0)
(1.97257 -0.0342816 0)
(1.97215 -0.0311943 0)
(1.9719 -0.0283232 0)
(1.97304 -0.027065 0)
(1.97516 -0.0271119 0)
(1.97768 -0.0279767 0)
(1.98186 -0.0298939 0)
(1.98619 -0.0329847 0)
(1.98932 -0.0376346 0)
(1.99106 -0.0414682 0)
(1.99215 -0.0438296 0)
(1.99267 -0.0451808 0)
(1.99151 -0.0444088 0)
(1.98792 -0.0392278 0)
(1.98327 -0.0297501 0)
(1.98114 -0.0199599 0)
(1.98225 -0.0129083 0)
(1.98623 -0.00614576 0)
(1.99489 -0.000564772 0)
(2.00563 0.000641903 0)
(2.01156 -0.00174387 0)
(2.01353 -0.00402601 0)
(2.01555 -0.00653654 0)
(2.01699 -0.00974845 0)
(2.01684 -0.0138206 0)
(2.01495 -0.0171182 0)
(2.01192 -0.0168006 0)
(2.00925 -0.0129944 0)
(2.00873 -0.00856345 0)
(2.00988 -0.00549301 0)
(2.01249 -0.00260144 0)
(2.01463 -0.00181527 0)
(2.0157 -0.00310389 0)
(2.01695 -0.00649109 0)
(2.01901 -0.0109233 0)
(2.02198 -0.0157093 0)
(2.02601 -0.0198931 0)
(2.03107 -0.0215158 0)
(2.0368 -0.0195856 0)
(2.04186 -0.0135744 0)
(2.04483 -0.00469393 0)
(2.04598 0.00595968 0)
(2.04482 0.016918 0)
(2.04182 0.0241208 0)
(2.04019 0.0245898 0)
(2.03918 0.0215455 0)
(2.0372 0.0167231 0)
(2.03431 0.0109936 0)
(2.03206 0.0062894 0)
(2.03214 0.00309995 0)
(2.03325 0.000575193 0)
(2.0362 -0.00247165 0)
(2.04285 -0.00530874 0)
(2.05302 -0.00573152 0)
(2.06418 -0.0016395 0)
(2.07307 0.00362174 0)
(2.07717 0.00621341 0)
(2.07952 0.00746278 0)
(2.08132 0.00947925 0)
(2.08019 0.0130067 0)
(2.07476 0.0170737 0)
(2.06737 0.0183738 0)
(2.06139 0.0156712 0)
(2.05686 0.0113804 0)
(2.05409 0.0088642 0)
(2.05459 0.00896964 0)
(2.05664 0.010175 0)
(2.05881 0.0120963 0)
(2.06283 0.0150449 0)
(2.06866 0.0185104 0)
(2.0745 0.0208249 0)
(2.07841 0.0217354 0)
(2.08019 0.0218579 0)
(2.08187 0.0214383 0)
(2.08314 0.0216475 0)
(2.08459 0.0225441 0)
(1.55781 -0.24371 0)
(1.54165 -0.224653 0)
(1.54264 -0.213507 0)
(1.5548 -0.20099 0)
(1.56917 -0.205658 0)
(1.57582 -0.205921 0)
(1.57917 -0.203643 0)
(1.58066 -0.198748 0)
(1.58274 -0.192914 0)
(1.5853 -0.190076 0)
(1.58577 -0.191131 0)
(1.58721 -0.194305 0)
(1.59024 -0.195264 0)
(1.59363 -0.190866 0)
(1.59741 -0.183358 0)
(1.6027 -0.179588 0)
(1.61129 -0.178905 0)
(1.62215 -0.181218 0)
(1.6306 -0.184182 0)
(1.63482 -0.186488 0)
(1.63571 -0.187296 0)
(1.63612 -0.18598 0)
(1.63762 -0.181511 0)
(1.64134 -0.17572 0)
(1.64838 -0.170923 0)
(1.65819 -0.169302 0)
(1.66652 -0.170884 0)
(1.6699 -0.172341 0)
(1.67141 -0.173202 0)
(1.6711 -0.173223 0)
(1.66832 -0.170863 0)
(1.6669 -0.167349 0)
(1.66828 -0.164645 0)
(1.673 -0.16101 0)
(1.68368 -0.158211 0)
(1.69461 -0.158744 0)
(1.69848 -0.160329 0)
(1.69937 -0.161307 0)
(1.6989 -0.161651 0)
(1.69597 -0.159881 0)
(1.69339 -0.157716 0)
(1.69399 -0.157154 0)
(1.6956 -0.156922 0)
(1.69945 -0.156679 0)
(1.70738 -0.155688 0)
(1.71671 -0.152893 0)
(1.72171 -0.150516 0)
(1.72369 -0.149851 0)
(1.72477 -0.149363 0)
(1.72425 -0.148396 0)
(1.72406 -0.147317 0)
(1.72524 -0.14621 0)
(1.72679 -0.144664 0)
(1.72898 -0.142964 0)
(1.73236 -0.141277 0)
(1.7362 -0.140328 0)
(1.73967 -0.140529 0)
(1.74289 -0.141177 0)
(1.74595 -0.141836 0)
(1.74842 -0.141868 0)
(1.75068 -0.141319 0)
(1.75226 -0.140503 0)
(1.7528 -0.13953 0)
(1.75255 -0.138325 0)
(1.75255 -0.136997 0)
(1.75321 -0.13569 0)
(1.75429 -0.134506 0)
(1.75568 -0.13341 0)
(1.75841 -0.132146 0)
(1.76301 -0.130743 0)
(1.76904 -0.128991 0)
(1.77428 -0.12733 0)
(1.77694 -0.126372 0)
(1.77813 -0.125669 0)
(1.77911 -0.124488 0)
(1.77948 -0.121918 0)
(1.77947 -0.117841 0)
(1.78073 -0.113709 0)
(1.78337 -0.109994 0)
(1.78674 -0.106196 0)
(1.79054 -0.103541 0)
(1.79345 -0.103188 0)
(1.79553 -0.103677 0)
(1.79715 -0.105078 0)
(1.79762 -0.10739 0)
(1.79675 -0.110252 0)
(1.79549 -0.112666 0)
(1.79569 -0.113938 0)
(1.797 -0.11452 0)
(1.7999 -0.114918 0)
(1.80544 -0.11453 0)
(1.81247 -0.112821 0)
(1.81805 -0.111099 0)
(1.82145 -0.110218 0)
(1.82381 -0.1098 0)
(1.8258 -0.109353 0)
(1.82761 -0.108341 0)
(1.82913 -0.10568 0)
(1.83013 -0.10115 0)
(1.83047 -0.0952734 0)
(1.83032 -0.0889746 0)
(1.83097 -0.0840832 0)
(1.83316 -0.0825915 0)
(1.83589 -0.0835074 0)
(1.83948 -0.0858851 0)
(1.84134 -0.0879773 0)
(1.84265 -0.0903883 0)
(1.84371 -0.0933808 0)
(1.84502 -0.0959807 0)
(1.84665 -0.0977263 0)
(1.84837 -0.0992134 0)
(1.85081 -0.100197 0)
(1.85479 -0.100018 0)
(1.86105 -0.0986639 0)
(1.8674 -0.0971071 0)
(1.87062 -0.0959847 0)
(1.87236 -0.0939929 0)
(1.87273 -0.0893485 0)
(1.87122 -0.0823882 0)
(1.86926 -0.074884 0)
(1.86912 -0.0697167 0)
(1.87042 -0.067878 0)
(1.87324 -0.0682491 0)
(1.8768 -0.0702678 0)
(1.87821 -0.0729928 0)
(1.87946 -0.0766343 0)
(1.88099 -0.0808739 0)
(1.88301 -0.0849306 0)
(1.88543 -0.0882331 0)
(1.88861 -0.0902253 0)
(1.89321 -0.0905939 0)
(1.89937 -0.0879154 0)
(1.90629 -0.0815432 0)
(1.91134 -0.0736462 0)
(1.9133 -0.0668436 0)
(1.91341 -0.0591579 0)
(1.91027 -0.0505073 0)
(1.90554 -0.0444139 0)
(1.90355 -0.0435005 0)
(1.90441 -0.0452833 0)
(1.90593 -0.0476373 0)
(1.90742 -0.0504635 0)
(1.90947 -0.0538446 0)
(1.91251 -0.0580326 0)
(1.91633 -0.0633129 0)
(1.92103 -0.0694276 0)
(1.92563 -0.0748598 0)
(1.92945 -0.0780034 0)
(1.93231 -0.0787072 0)
(1.93487 -0.0775226 0)
(1.93713 -0.0734137 0)
(1.93786 -0.0669217 0)
(1.93635 -0.0585219 0)
(1.93311 -0.0496467 0)
(1.93107 -0.0432574 0)
(1.93142 -0.040613 0)
(1.93278 -0.0402054 0)
(1.93492 -0.0407824 0)
(1.93816 -0.0421296 0)
(1.94115 -0.0439433 0)
(1.94336 -0.046759 0)
(1.94571 -0.0506155 0)
(1.94879 -0.0551517 0)
(1.95219 -0.0598275 0)
(1.9558 -0.0630619 0)
(1.96043 -0.063747 0)
(1.96544 -0.0609405 0)
(1.96878 -0.0553845 0)
(1.97058 -0.0478034 0)
(1.97073 -0.0386934 0)
(1.96817 -0.0287309 0)
(1.96475 -0.0205238 0)
(1.96369 -0.0171423 0)
(1.96428 -0.0171266 0)
(1.96543 -0.0187859 0)
(1.96663 -0.0221863 0)
(1.96851 -0.0265132 0)
(1.97073 -0.0315011 0)
(1.9734 -0.0367615 0)
(1.97633 -0.0414429 0)
(1.97893 -0.0445633 0)
(1.98114 -0.0456066 0)
(1.98325 -0.0451249 0)
(1.98468 -0.0427604 0)
(1.9853 -0.0386307 0)
(1.98505 -0.0333752 0)
(1.98471 -0.0286468 0)
(1.98559 -0.0263093 0)
(1.98715 -0.0263978 0)
(1.98938 -0.0288145 0)
(1.99272 -0.0320268 0)
(1.99648 -0.036028 0)
(1.99887 -0.0402146 0)
(1.99999 -0.0424964 0)
(2.00107 -0.0430111 0)
(2.00162 -0.0406845 0)
(2.00095 -0.032794 0)
(1.99998 -0.0202694 0)
(2.00016 -0.00694469 0)
(2.0025 0.00280071 0)
(2.00644 0.0070235 0)
(2.01099 0.00581397 0)
(2.01542 0.00128863 0)
(2.01787 -0.00334707 0)
(2.01976 -0.00704784 0)
(2.02083 -0.010611 0)
(2.02095 -0.0137058 0)
(2.02114 -0.0153814 0)
(2.02173 -0.0145591 0)
(2.02177 -0.0108047 0)
(2.02107 -0.00518098 0)
(2.02043 -0.000962005 0)
(2.02065 -7.31293e-05 0)
(2.02109 -0.0014685 0)
(2.02122 -0.00421172 0)
(2.02199 -0.0079973 0)
(2.02374 -0.0113347 0)
(2.02639 -0.0137958 0)
(2.03155 -0.0158427 0)
(2.03949 -0.0164101 0)
(2.0488 -0.0136659 0)
(2.05642 -0.00855962 0)
(2.06055 -0.00313895 0)
(2.06216 0.0017868 0)
(2.06201 0.00841285 0)
(2.05679 0.0165697 0)
(2.04788 0.0211894 0)
(2.04237 0.0193269 0)
(2.0393 0.0149071 0)
(2.03689 0.0116105 0)
(2.03638 0.0100046 0)
(2.03743 0.00914041 0)
(2.03891 0.0081614 0)
(2.04257 0.00675073 0)
(2.0505 0.00568162 0)
(2.06387 0.00613904 0)
(2.07696 0.00691775 0)
(2.08327 0.00645867 0)
(2.08604 0.00590825 0)
(2.08834 0.00584887 0)
(2.09061 0.00617853 0)
(2.09127 0.00740252 0)
(2.08649 0.00987139 0)
(2.07522 0.0114218 0)
(2.06525 0.0100292 0)
(2.06201 0.00823718 0)
(2.06291 0.00876504 0)
(2.06461 0.0108663 0)
(2.06648 0.0145407 0)
(2.06947 0.0194893 0)
(2.07368 0.0245712 0)
(2.07837 0.0273414 0)
(2.08241 0.0270496 0)
(2.08553 0.0251654 0)
(2.08751 0.0235202 0)
(2.08912 0.022103 0)
(2.09056 0.0213654 0)
(2.09323 0.0218056 0)
(1.64346 -0.353397 0)
(1.59466 -0.276355 0)
(1.57528 -0.23143 0)
(1.57721 -0.211573 0)
(1.59046 -0.202962 0)
(1.60748 -0.198517 0)
(1.60735 -0.205236 0)
(1.60845 -0.206469 0)
(1.60907 -0.203488 0)
(1.61001 -0.196982 0)
(1.6105 -0.19446 0)
(1.61147 -0.196031 0)
(1.61545 -0.199514 0)
(1.62143 -0.200981 0)
(1.627 -0.197014 0)
(1.63281 -0.190013 0)
(1.63903 -0.184405 0)
(1.64476 -0.181866 0)
(1.65017 -0.182262 0)
(1.65474 -0.184071 0)
(1.6582 -0.18565 0)
(1.661 -0.186509 0)
(1.66364 -0.185677 0)
(1.66696 -0.182176 0)
(1.67234 -0.177993 0)
(1.67871 -0.175191 0)
(1.68398 -0.174826 0)
(1.68644 -0.175978 0)
(1.68782 -0.177206 0)
(1.68849 -0.177819 0)
(1.68821 -0.1763 0)
(1.68782 -0.171845 0)
(1.68911 -0.166498 0)
(1.69308 -0.161239 0)
(1.70013 -0.157692 0)
(1.70752 -0.158328 0)
(1.71131 -0.160724 0)
(1.71243 -0.162164 0)
(1.71266 -0.163281 0)
(1.71128 -0.162727 0)
(1.70865 -0.159284 0)
(1.70755 -0.156067 0)
(1.70861 -0.154626 0)
(1.71151 -0.153154 0)
(1.71869 -0.151993 0)
(1.72806 -0.15197 0)
(1.73262 -0.152308 0)
(1.73414 -0.152473 0)
(1.73506 -0.152462 0)
(1.7347 -0.151559 0)
(1.73399 -0.149558 0)
(1.73479 -0.14771 0)
(1.7365 -0.145858 0)
(1.73918 -0.14389 0)
(1.7424 -0.14278 0)
(1.74491 -0.142982 0)
(1.74705 -0.143765 0)
(1.74977 -0.144778 0)
(1.75367 -0.145388 0)
(1.75711 -0.14498 0)
(1.75922 -0.14431 0)
(1.76086 -0.143384 0)
(1.76164 -0.142318 0)
(1.76175 -0.14113 0)
(1.76207 -0.139605 0)
(1.76285 -0.137648 0)
(1.76401 -0.135391 0)
(1.76584 -0.132861 0)
(1.76923 -0.129648 0)
(1.77433 -0.126069 0)
(1.78034 -0.123134 0)
(1.78464 -0.121648 0)
(1.78683 -0.121389 0)
(1.78803 -0.121705 0)
(1.78901 -0.122112 0)
(1.7897 -0.122946 0)
(1.78999 -0.123228 0)
(1.79173 -0.12194 0)
(1.79492 -0.11957 0)
(1.79833 -0.115913 0)
(1.80099 -0.112495 0)
(1.80262 -0.110269 0)
(1.80356 -0.109304 0)
(1.80402 -0.109515 0)
(1.80385 -0.11018 0)
(1.80308 -0.110585 0)
(1.80311 -0.110494 0)
(1.80435 -0.110339 0)
(1.8063 -0.110185 0)
(1.81055 -0.109502 0)
(1.81737 -0.107513 0)
(1.8247 -0.105599 0)
(1.82921 -0.105166 0)
(1.83165 -0.105793 0)
(1.83367 -0.106721 0)
(1.83584 -0.107799 0)
(1.83817 -0.108796 0)
(1.84052 -0.109365 0)
(1.84275 -0.10895 0)
(1.84494 -0.106852 0)
(1.84645 -0.102341 0)
(1.84675 -0.0960836 0)
(1.84621 -0.0892118 0)
(1.84627 -0.0841035 0)
(1.84716 -0.0826611 0)
(1.8485 -0.08422 0)
(1.8497 -0.0869504 0)
(1.85076 -0.0892424 0)
(1.85198 -0.0906252 0)
(1.8534 -0.0915249 0)
(1.85547 -0.0921029 0)
(1.859 -0.0923622 0)
(1.86478 -0.0919412 0)
(1.87245 -0.0914345 0)
(1.87875 -0.0922782 0)
(1.88259 -0.0936625 0)
(1.88466 -0.0943214 0)
(1.88584 -0.0938035 0)
(1.88681 -0.0906154 0)
(1.8867 -0.084428 0)
(1.88538 -0.076373 0)
(1.88342 -0.0689788 0)
(1.88255 -0.0655476 0)
(1.88319 -0.0665389 0)
(1.88438 -0.0697306 0)
(1.88559 -0.073989 0)
(1.88719 -0.0778375 0)
(1.8892 -0.0809242 0)
(1.89245 -0.0830996 0)
(1.89741 -0.0840467 0)
(1.90452 -0.082864 0)
(1.91367 -0.07947 0)
(1.92226 -0.0755036 0)
(1.92714 -0.0727835 0)
(1.92908 -0.0710352 0)
(1.93016 -0.0684868 0)
(1.92859 -0.0633385 0)
(1.92324 -0.0557093 0)
(1.9168 -0.0486607 0)
(1.9134 -0.0458506 0)
(1.91353 -0.0469209 0)
(1.91505 -0.0493339 0)
(1.91668 -0.0526498 0)
(1.91865 -0.0564263 0)
(1.92179 -0.0608111 0)
(1.9264 -0.065986 0)
(1.93196 -0.0710043 0)
(1.93751 -0.0751264 0)
(1.94226 -0.0771257 0)
(1.94629 -0.0773386 0)
(1.9491 -0.0763651 0)
(1.95091 -0.0745759 0)
(1.95193 -0.0702535 0)
(1.95073 -0.0628746 0)
(1.94749 -0.0533926 0)
(1.94445 -0.0447266 0)
(1.94341 -0.039116 0)
(1.94415 -0.0367745 0)
(1.94544 -0.0366397 0)
(1.94731 -0.0382615 0)
(1.9492 -0.0411902 0)
(1.95103 -0.0443154 0)
(1.95321 -0.0474229 0)
(1.95641 -0.0501974 0)
(1.96207 -0.0524182 0)
(1.96978 -0.0537497 0)
(1.97736 -0.0539082 0)
(1.98245 -0.0527827 0)
(1.98483 -0.0505767 0)
(1.98619 -0.0467195 0)
(1.98643 -0.0397092 0)
(1.98397 -0.0297518 0)
(1.97898 -0.0193777 0)
(1.97506 -0.0143199 0)
(1.97461 -0.0156101 0)
(1.97493 -0.0192281 0)
(1.97545 -0.0238151 0)
(1.977 -0.0287854 0)
(1.97949 -0.0344226 0)
(1.98286 -0.0405161 0)
(1.98706 -0.0454509 0)
(1.99133 -0.0477939 0)
(1.99483 -0.0478809 0)
(1.9974 -0.0463214 0)
(1.99944 -0.0430484 0)
(2.00052 -0.0381819 0)
(2.00002 -0.0325055 0)
(1.99761 -0.0275055 0)
(1.99537 -0.025259 0)
(1.99567 -0.0255137 0)
(1.99705 -0.0266305 0)
(1.99933 -0.0289961 0)
(2.00283 -0.0315562 0)
(2.00693 -0.0333138 0)
(2.01087 -0.032849 0)
(2.01433 -0.0301266 0)
(2.01694 -0.0253264 0)
(2.0186 -0.0187186 0)
(2.01938 -0.0109551 0)
(2.01852 -0.00297785 0)
(2.01661 0.00236883 0)
(2.01741 0.00314464 0)
(2.01982 0.00124084 0)
(2.02239 -0.00337818 0)
(2.02409 -0.00790337 0)
(2.02568 -0.0106209 0)
(2.0276 -0.011446 0)
(2.0292 -0.0103165 0)
(2.03102 -0.00755719 0)
(2.03216 -0.0051268 0)
(2.03229 -0.00261301 0)
(2.03012 -0.000810502 0)
(2.02692 -0.00166342 0)
(2.0255 -0.00411805 0)
(2.02592 -0.00672185 0)
(2.02709 -0.00867993 0)
(2.02888 -0.00995909 0)
(2.03243 -0.011042 0)
(2.03946 -0.0101127 0)
(2.04976 -0.00572564 0)
(2.06069 -0.000213392 0)
(2.06775 0.00317166 0)
(2.07076 0.0040773 0)
(2.07256 0.00410621 0)
(2.07376 0.00408171 0)
(2.06949 0.00503724 0)
(2.05841 0.00878268 0)
(2.04693 0.012611 0)
(2.04169 0.0135086 0)
(2.04149 0.0128287 0)
(2.04316 0.0127358 0)
(2.04475 0.0131804 0)
(2.04686 0.0140074 0)
(2.05103 0.0154892 0)
(2.05921 0.0173805 0)
(2.0719 0.0172786 0)
(2.08378 0.0135187 0)
(2.09048 0.0100923 0)
(2.09389 0.00816094 0)
(2.09618 0.00641002 0)
(2.09818 0.00484677 0)
(2.09936 0.00308584 0)
(2.09593 0.00130231 0)
(2.08541 0.00165326 0)
(2.07482 0.00450907 0)
(2.07258 0.00775256 0)
(2.07395 0.0103081 0)
(2.076 0.013619 0)
(2.07911 0.0180828 0)
(2.08246 0.0227335 0)
(2.08482 0.0259786 0)
(2.08701 0.027669 0)
(2.08873 0.0279446 0)
(2.09039 0.0270118 0)
(2.09266 0.0255134 0)
(2.09553 0.0236769 0)
(2.09843 0.0227188 0)
(2.10218 0.0247085 0)
(1.75476 -0.51399 0)
(1.70571 -0.418842 0)
(1.65428 -0.318719 0)
(1.62493 -0.24876 0)
(1.62541 -0.21744 0)
(1.63209 -0.20346 0)
(1.63046 -0.206501 0)
(1.63522 -0.210997 0)
(1.63552 -0.211322 0)
(1.63703 -0.205841 0)
(1.6368 -0.201694 0)
(1.63655 -0.203077 0)
(1.63839 -0.206349 0)
(1.6441 -0.208892 0)
(1.65343 -0.206918 0)
(1.66143 -0.200766 0)
(1.66694 -0.193011 0)
(1.66922 -0.186911 0)
(1.67021 -0.183384 0)
(1.67166 -0.182358 0)
(1.67438 -0.182642 0)