/*--------------------------------*- C++ -*----------------------------------*\
  =========                 |
  \\      /  F ield         | OpenFOAM: The Open Source CFD Toolbox
   \\    /   O peration     | Website:  https://openfoam.org
    \\  /    A nd           | Version:  7
     \\/     M anipulation  |
\*---------------------------------------------------------------------------*/
FoamFile
{
    version     2.0;
    format      ascii;
    class       volScalarField;
    location    "2";
    object      T;
}
// * * * * * * * * * * * * * * * * * * * * * * * * * * * * * * * * * * * * * //

dimensions      [0 0 0 1 0 0 0];

internalField   nonuniform List<scalar> 
16512
(
1.78585
1.78604
1.78548
1.78013
1.76562
1.75232
1.7498
1.74944
1.75025
1.7538
1.75489
1.75531
1.75543
1.75504
1.75144
1.73953
1.72489
1.72122
1.72125
1.72174
1.72335
1.72486
1.72512
1.7248
1.72351
1.72029
1.71134
1.69977
1.69606
1.69493
1.69482
1.69545
1.69572
1.69532
1.69433
1.6923
1.68716
1.67627
1.66902
1.66742
1.66622
1.66567
1.66557
1.66492
1.66336
1.66154
1.65935
1.65551
1.64747
1.63812
1.63617
1.63549
1.63517
1.63469
1.63416
1.63407
1.63377
1.63275
1.62995
1.62313
1.6131
1.60855
1.60824
1.60838
1.60963
1.60914
1.60773
1.6063
1.60464
1.60188
1.59555
1.58462
1.57565
1.57322
1.57321
1.57574
1.58062
1.58203
1.58112
1.5799
1.5771
1.57061
1.55822
1.54541
1.53986
1.53894
1.53976
1.54543
1.55514
1.56055
1.56036
1.55931
1.55568
1.54644
1.52978
1.51426
1.50792
1.50607
1.5058
1.50817
1.51571
1.52551
1.52945
1.52878
1.52727
1.5233
1.51408
1.49867
1.48591
1.4816
1.48083
1.48112
1.48495
1.49289
1.4986
1.49889
1.49836
1.49722
1.49325
1.48381
1.47039
1.46233
1.46029
1.45993
1.46168
1.46734
1.47177
1.47164
1.47057
1.46883
1.46391
1.45348
1.44154
1.43625
1.43532
1.43552
1.43893
1.44605
1.44968
1.44917
1.44802
1.44499
1.43697
1.42406
1.41663
1.41558
1.41561
1.41817
1.42536
1.43109
1.43128
1.43031
1.42771
1.41987
1.40538
1.39456
1.3918
1.39131
1.39232
1.3982
1.40702
1.40974
1.40931
1.40849
1.4052
1.39556
1.38219
1.37611
1.37483
1.37451
1.37975
1.41243
1.53043
1.65054
1.7516
1.78006
1.77533
1.76517
1.76011
1.75709
1.75725
1.75822
1.75726
1.75485
1.74967
1.74046
1.73263
1.7285
1.7254
1.72475
1.72571
1.72467
1.72156
1.71795
1.71244
1.70437
1.69853
1.69499
1.69219
1.69186
1.69256
1.69135
1.68602
1.67916
1.6699
1.66106
1.65688
1.65417
1.65321
1.65535
1.65916
1.66497
1.68031
1.70999
1.74543
1.76059
1.7679
1.77028
1.77129
1.76902
1.76303
1.75506
1.74604
1.73849
1.73468
1.7317
1.72997
1.73002
1.72875
1.72371
1.71838
1.71281
1.70716
1.70314
1.69997
1.697
1.69372
1.68994
1.68537
1.6799
1.67458
1.67042
1.66703
1.66449
1.66342
1.66128
1.65766
1.65371
1.64835
1.64263
1.63887
1.63563
1.63264
1.63013
1.6266
1.62277
1.61866
1.61383
1.78595
1.78584
1.78259
1.77065
1.75499
1.75005
1.74959
1.74984
1.75334
1.75556
1.75546
1.7556
1.75522
1.75268
1.74294
1.72686
1.72045
1.72045
1.72123
1.7235
1.72495
1.72594
1.72598
1.72526
1.723
1.71624
1.70367
1.69687
1.69577
1.69478
1.69493
1.69574
1.69575
1.69528
1.694
1.69072
1.68185
1.67078
1.66768
1.6668
1.66605
1.66579
1.6656
1.66483
1.66332
1.66122
1.65839
1.65335
1.64449
1.63748
1.63595
1.63517
1.63488
1.63443
1.63378
1.63352
1.63309
1.63172
1.62763
1.61858
1.61154
1.6107
1.61033
1.6104
1.6101
1.609
1.60759
1.60588
1.60349
1.59858
1.58923
1.57983
1.5769
1.57683
1.57857
1.58225
1.58285
1.582
1.58072
1.57814
1.57234
1.5612
1.54871
1.54276
1.54177
1.54259
1.54826
1.55757
1.56215
1.56177
1.56069
1.55707
1.54787
1.5312
1.51599
1.51006
1.50853
1.50841
1.51124
1.51929
1.52915
1.53284
1.53207
1.53025
1.52567
1.51553
1.49903
1.48643
1.48257
1.48187
1.48224
1.48637
1.4947
1.50064
1.501
1.50069
1.49983
1.49608
1.48676
1.47321
1.46473
1.46241
1.462
1.4635
1.46894
1.47383
1.47393
1.47293
1.47139
1.46694
1.45706
1.44474
1.43863
1.43747
1.43747
1.44027
1.44709
1.45136
1.45101
1.44985
1.44707
1.43968
1.42692
1.41843
1.41688
1.41685
1.41886
1.4257
1.4324
1.43316
1.43237
1.43039
1.42371
1.40999
1.39752
1.39363
1.39295
1.39349
1.39825
1.4073
1.41149
1.41124
1.41059
1.40833
1.40047
1.3866
1.37846
1.37671
1.37674
1.38439
1.42504
1.54884
1.69777
1.76165
1.78255
1.7774
1.76644
1.76077
1.7609
1.76066
1.76092
1.75975
1.75643
1.75199
1.74524
1.73589
1.72864
1.72491
1.72287
1.72357
1.72496
1.72342
1.72054
1.71535
1.70684
1.70027
1.69663
1.69352
1.69256
1.6932
1.69298
1.6887
1.68245
1.67389
1.66434
1.65871
1.6558
1.65417
1.65561
1.65992
1.6656
1.67929
1.70885
1.74293
1.76043
1.76845
1.77189
1.77271
1.77033
1.76521
1.75817
1.74995
1.74215
1.73729
1.73402
1.73131
1.73028
1.72948
1.72571
1.72046
1.71524
1.70966
1.70503
1.70161
1.69864
1.69566
1.69237
1.68833
1.68288
1.67705
1.67277
1.66913
1.66623
1.66487
1.66317
1.65946
1.65553
1.65063
1.64478
1.64027
1.63697
1.63402
1.63165
1.62865
1.62494
1.621
1.6163
1.61144
1.78581
1.78397
1.77462
1.75821
1.75045
1.74971
1.74968
1.75247
1.75629
1.7562
1.75608
1.7556
1.75375
1.74591
1.72983
1.71998
1.71944
1.72005
1.72287
1.72561
1.7262
1.72699
1.72678
1.72544
1.72077
1.70878
1.69782
1.69633
1.69534
1.69468
1.69509
1.69577
1.69561
1.69488
1.69283
1.68679
1.67506
1.66787
1.66706
1.66644
1.66621
1.66618
1.66586
1.66502
1.66361
1.66153
1.6583
1.65152
1.64104
1.63674
1.63532
1.63418
1.63414
1.63402
1.63346
1.63301
1.6323
1.63036
1.62495
1.6156
1.61259
1.61185
1.61112
1.6105
1.60957
1.6083
1.60681
1.60485
1.60125
1.59363
1.58407
1.5802
1.58011
1.58111
1.5836
1.58373
1.58305
1.58182
1.57939
1.57419
1.56447
1.5526
1.54615
1.54507
1.5458
1.55118
1.55958
1.56321
1.56275
1.56173
1.55811
1.54911
1.53277
1.51776
1.51208
1.51081
1.51089
1.51432
1.52299
1.53283
1.5362
1.53538
1.53339
1.52843
1.51757
1.49999
1.48718
1.48346
1.48275
1.48319
1.48762
1.49646
1.50266
1.5031
1.50298
1.50241
1.49881
1.48941
1.4756
1.46689
1.4644
1.46392
1.46525
1.47058
1.47592
1.47635
1.47544
1.47403
1.4699
1.46048
1.44799
1.44119
1.4397
1.43955
1.44187
1.44831
1.45313
1.45303
1.45187
1.44925
1.44229
1.42968
1.42029
1.41817
1.41805
1.41962
1.42602
1.43347
1.43492
1.43427
1.43282
1.42716
1.4144
1.40069
1.3956
1.39467
1.39489
1.39862
1.40741
1.41306
1.41307
1.41252
1.41089
1.40464
1.39131
1.38101
1.37848
1.37888
1.39024
1.45472
1.57417
1.72689
1.77381
1.78267
1.78148
1.77329
1.76256
1.75933
1.75999
1.76192
1.76175
1.75821
1.75272
1.74673
1.74018
1.73264
1.72699
1.72382
1.72265
1.7235
1.72333
1.72165
1.71794
1.71012
1.70161
1.69744
1.69443
1.69318
1.69407
1.69444
1.6909
1.68501
1.67712
1.66789
1.66108
1.65754
1.65513
1.65586
1.66015
1.66633
1.67979
1.70713
1.74127
1.76133
1.76901
1.77149
1.77211
1.77041
1.76631
1.7607
1.75362
1.74572
1.73987
1.73646
1.73357
1.73173
1.73089
1.72785
1.72262
1.71739
1.71166
1.7066
1.70306
1.70008
1.69732
1.69418
1.69055
1.68596
1.68032
1.67524
1.67134
1.66805
1.66591
1.66475
1.66175
1.658
1.65344
1.64724
1.64206
1.6387
1.63567
1.63306
1.63045
1.62684
1.62317
1.61879
1.61364
1.60967
1.78461
1.77747
1.76172
1.75114
1.74982
1.74965
1.75148
1.75631
1.75728
1.75688
1.75629
1.75476
1.74852
1.73366
1.7203
1.71833
1.71886
1.72095
1.72593
1.72693
1.72747
1.72786
1.72733
1.72459
1.71448
1.7002
1.69595
1.69584
1.69486
1.6946
1.69524
1.69564
1.6953
1.69408
1.69038
1.6806
1.66968
1.6673
1.66679
1.66657
1.66681
1.66681
1.66637
1.66554
1.6642
1.66203
1.65735
1.64653
1.63753
1.63616
1.63491
1.63345
1.63356
1.63378
1.63341
1.63284
1.63182
1.62924
1.62303
1.61518
1.61263
1.61169
1.6108
1.60981
1.60867
1.60723
1.60559
1.60323
1.59789
1.5888
1.5832
1.58292
1.58326
1.58448
1.58446
1.58394
1.58284
1.58071
1.57629
1.56795
1.55694
1.54997
1.54875
1.54939
1.55418
1.56138
1.56387
1.56335
1.56248
1.55899
1.55038
1.53462
1.51986
1.51414
1.513
1.51322
1.51719
1.52654
1.53627
1.53919
1.53837
1.53648
1.53146
1.5203
1.50193
1.48846
1.48457
1.48374
1.48417
1.48881
1.49817
1.50471
1.50519
1.50522
1.50489
1.50136
1.4918
1.47773
1.46887
1.46625
1.46568
1.46693
1.47223
1.47804
1.47885
1.478
1.47672
1.47283
1.4637
1.45098
1.44374
1.442
1.44175
1.4437
1.44987
1.45509
1.45521
1.45402
1.45149
1.4448
1.43238
1.42218
1.41944
1.4192
1.42045
1.42638
1.43443
1.4367
1.43609
1.43488
1.43011
1.41838
1.40391
1.39762
1.39644
1.39641
1.39931
1.40754
1.41444
1.41491
1.4144
1.41316
1.40812
1.39586
1.38377
1.38026
1.38123
1.39553
1.48132
1.62105
1.73779
1.79319
1.79269
1.78178
1.77144
1.76505
1.75948
1.75792
1.75941
1.76034
1.75884
1.75457
1.74731
1.73887
1.73343
1.72942
1.72595
1.7248
1.7249
1.72331
1.72123
1.71854
1.71288
1.70489
1.69947
1.69602
1.694
1.69449
1.69582
1.69387
1.68853
1.68067
1.67037
1.66247
1.65905
1.65653
1.65669
1.66063
1.66678
1.67957
1.70582
1.7399
1.76153
1.76829
1.77059
1.77193
1.77192
1.76865
1.76349
1.75671
1.74864
1.7418
1.73807
1.73511
1.73288
1.73226
1.7305
1.72536
1.71989
1.71409
1.70831
1.70413
1.70098
1.69831
1.69563
1.69244
1.68855
1.68334
1.67795
1.67397
1.67053
1.66784
1.66649
1.66381
1.66009
1.65598
1.65052
1.64488
1.64103
1.63795
1.63526
1.63271
1.62916
1.62535
1.62096
1.61557
1.61107
1.60798
1.77931
1.76509
1.75193
1.74948
1.74953
1.75069
1.75565
1.7583
1.75778
1.75722
1.75588
1.75092
1.73781
1.72172
1.7175
1.71781
1.71919
1.72443
1.72816
1.72805
1.72858
1.72849
1.7272
1.71999
1.70431
1.69554
1.6952
1.69551
1.69453
1.69463
1.69547
1.6955
1.69485
1.69266
1.68573
1.67362
1.66776
1.6672
1.66692
1.66713
1.66778
1.66757
1.66704
1.66612
1.66465
1.66175
1.65295
1.64017
1.63593
1.63551
1.63472
1.63332
1.63349
1.63407
1.63386
1.63333
1.63217
1.62901
1.62156
1.61383
1.61159
1.61077
1.60995
1.60882
1.60765
1.60621
1.60425
1.60098
1.59414
1.58682
1.58536
1.58505
1.58527
1.58514
1.58449
1.58344
1.5816
1.5782
1.57142
1.56162
1.55416
1.55264
1.55316
1.55716
1.56295
1.56442
1.56382
1.56295
1.5597
1.55178
1.53692
1.52243
1.51646
1.51532
1.51561
1.51998
1.52976
1.53906
1.54149
1.54077
1.53918
1.53447
1.52353
1.50492
1.49052
1.48609
1.48507
1.48545
1.49012
1.49987
1.50677
1.5073
1.5074
1.50717
1.50364
1.49392
1.47954
1.4706
1.46795
1.46732
1.46852
1.47387
1.48015
1.48135
1.48057
1.47939
1.47567
1.46673
1.45388
1.44635
1.44435
1.444
1.44571
1.45164
1.45726
1.45766
1.4564
1.45389
1.44732
1.43486
1.4239
1.42067
1.42028
1.42125
1.42671
1.43525
1.43847
1.43796
1.43691
1.4328
1.42195
1.40698
1.39965
1.39819
1.398
1.40024
1.4078
1.41564
1.41686
1.41627
1.41524
1.41102
1.40001
1.38666
1.38233
1.38474
1.40823
1.49934
1.66316
1.75389
1.79373
1.79402
1.7879
1.77775
1.76862
1.76441
1.762
1.76295
1.76348
1.7608
1.75697
1.75067
1.74105
1.73253
1.72794
1.72499
1.7244
1.72594
1.72564
1.72348
1.7203
1.71352
1.70565
1.70083
1.6978
1.69559
1.69565
1.69664
1.69521
1.69027
1.68397
1.67524
1.66584
1.66062
1.65747
1.65708
1.6606
1.66747
1.67934
1.70436
1.74002
1.76
1.7674
1.77022
1.7728
1.77356
1.77047
1.76489
1.75808
1.75048
1.74352
1.73924
1.73621
1.73389
1.73329
1.73257
1.72846
1.72295
1.71695
1.71055
1.7059
1.70254
1.69971
1.69705
1.69405
1.69048
1.68592
1.68068
1.67631
1.6727
1.66973
1.66802
1.66559
1.66188
1.65797
1.65281
1.64686
1.6429
1.63988
1.63725
1.63507
1.6316
1.62779
1.62361
1.6183
1.61297
1.60934
1.60653
1.76819
1.75312
1.74891
1.74904
1.75003
1.75464
1.75878
1.75866
1.75822
1.75709
1.75311
1.74185
1.72438
1.71716
1.71709
1.71797
1.72205
1.72851
1.7291
1.7293
1.72936
1.72867
1.72413
1.71008
1.69614
1.69426
1.69445
1.69541
1.6946
1.69504
1.69569
1.69542
1.69415
1.68985
1.67894
1.66909
1.6677
1.66727
1.66735
1.66822
1.66856
1.66824
1.66762
1.66651
1.66459
1.6588
1.64559
1.63618
1.63538
1.63516
1.63495
1.63383
1.63405
1.63489
1.63486
1.63444
1.63306
1.62815
1.61748
1.61129
1.61035
1.60984
1.60918
1.60795
1.60663
1.60518
1.60285
1.59824
1.59172
1.5884
1.58685
1.586
1.58558
1.58494
1.58388
1.58221
1.57942
1.57424
1.56614
1.55861
1.55676
1.55695
1.55989
1.56426
1.5649
1.56433
1.56331
1.56023
1.55318
1.53971
1.52558
1.51922
1.51801
1.51831
1.52283
1.53259
1.54112
1.54284
1.54238
1.54133
1.53717
1.52692
1.50864
1.4934
1.48819
1.48691
1.48721
1.49174
1.50166
1.50886
1.50938
1.50945
1.50921
1.50564
1.4958
1.48115
1.4722
1.46956
1.46891
1.47009
1.4755
1.48221
1.48379
1.48307
1.48195
1.47835
1.46949
1.45646
1.4487
1.44662
1.44623
1.44784
1.45368
1.45967
1.46031
1.45903
1.45646
1.44993
1.43742
1.42574
1.42193
1.42141
1.42215
1.42715
1.43602
1.44017
1.43982
1.43883
1.43518
1.42512
1.40995
1.40168
1.39989
1.39957
1.40132
1.40823
1.41679
1.41886
1.41828
1.41733
1.41371
1.40363
1.38954
1.38445
1.38808
1.42976
1.53805
1.69207
1.77196
1.79356
1.79659
1.79326
1.78145
1.76887
1.76221
1.76076
1.76128
1.76547
1.76498
1.76131
1.75571
1.74615
1.73553
1.72932
1.7256
1.72393
1.72529
1.7271
1.72591
1.72312
1.71696
1.70784
1.70109
1.69772
1.69517
1.69552
1.69713
1.69654
1.69198
1.68551
1.67674
1.6684
1.66393
1.661
1.65985
1.6623
1.66865
1.68036
1.70338
1.73974
1.76148
1.76766
1.77025
1.77221
1.77374
1.77159
1.7667
1.76023
1.75241
1.7447
1.74014
1.73711
1.73466
1.73389
1.73363
1.73056
1.7253
1.71983
1.71357
1.70792
1.70407
1.70104
1.69825
1.6953
1.69204
1.68796
1.68284
1.67836
1.67483
1.67173
1.66978
1.66777
1.66413
1.66028
1.65537
1.64938
1.64475
1.64159
1.63888
1.63689
1.63438
1.63076
1.6267
1.62132
1.61515
1.61106
1.60813
1.60567
1.75494
1.74845
1.74837
1.74925
1.75332
1.75865
1.75924
1.759
1.75824
1.75512
1.74558
1.72808
1.71748
1.71665
1.71713
1.71998
1.72743
1.73042
1.73008
1.73028
1.72973
1.72676
1.7156
1.69868
1.69314
1.6932
1.69438
1.69558
1.69513
1.69577
1.69592
1.69526
1.69273
1.68442
1.6722
1.66817
1.66773
1.66756
1.66808
1.66921
1.66907
1.66867
1.6679
1.66652
1.66303
1.65258
1.63895
1.63537
1.63514
1.63536
1.63598
1.63508
1.63526
1.63586
1.63576
1.63517
1.63254
1.6229
1.61202
1.60984
1.60961
1.60946
1.60866
1.60745
1.60612
1.60451
1.60181
1.59655
1.59152
1.58919
1.58715
1.58574
1.58481
1.58385
1.58269
1.58067
1.5768
1.56997
1.56281
1.56091
1.56093
1.56264
1.56527
1.56538
1.56485
1.56372
1.56075
1.55449
1.54272
1.5293
1.52242
1.52115
1.5215
1.52594
1.53521
1.54246
1.54342
1.54329
1.5427
1.5393
1.53007
1.51271
1.49696
1.49094
1.48938
1.48956
1.4938
1.50359
1.51098
1.51149
1.51137
1.51094
1.50735
1.49753
1.4827
1.47374
1.47117
1.47053
1.47171
1.47723
1.48425
1.48615
1.48544
1.48433
1.4808
1.472
1.45876
1.45083
1.44875
1.44837
1.44995
1.4559
1.46225
1.4631
1.46182
1.45921
1.45267
1.43993
1.42748
1.42326
1.42261
1.42313
1.42769
1.43677
1.44196
1.44176
1.44079
1.43745
1.42797
1.4126
1.4034
1.40135
1.40099
1.4024
1.40877
1.41787
1.42091
1.4204
1.41946
1.41631
1.40692
1.3924
1.38657
1.39281
1.44606
1.58357
1.70873
1.79161
1.80786
1.80786
1.79961
1.78405
1.77123
1.76272
1.75905
1.75963
1.76426
1.76684
1.76461
1.75892
1.74859
1.73758
1.73067
1.72622
1.72384
1.72493
1.7264
1.7251
1.72307
1.71879
1.7111
1.70412
1.7006
1.69769
1.69706
1.69824
1.69841
1.69468
1.68839
1.67928
1.66951
1.6639
1.66125
1.66004
1.66266
1.66938
1.68129
1.70391
1.73792
1.76531
1.76897
1.77043
1.77077
1.77263
1.77245
1.7685
1.76281
1.75541
1.74676
1.74081
1.73753
1.73491
1.73381
1.73391
1.73223
1.72717
1.7219
1.71597
1.71006
1.70591
1.70268
1.69993
1.69708
1.69394
1.69002
1.68489
1.68018
1.67656
1.67334
1.67119
1.66971
1.66624
1.66243
1.65805
1.65203
1.6467
1.64338
1.64059
1.63835
1.63616
1.6326
1.62886
1.62431
1.61854
1.61334
1.60991
1.6072
1.60518
1.74823
1.74763
1.74827
1.75168
1.75781
1.75958
1.75935
1.75908
1.7569
1.74887
1.73225
1.7185
1.71629
1.71659
1.71845
1.72554
1.73128
1.73105
1.73124
1.73088
1.7287
1.71975
1.70253
1.6928
1.69225
1.6925
1.69542
1.69601
1.69598
1.69648
1.69618
1.69471
1.68921
1.67686
1.66883
1.66827
1.66785
1.66796
1.66904
1.66966
1.66937
1.66885
1.66786
1.66571
1.65856
1.64451
1.63628
1.63555
1.63541
1.63646
1.63756
1.63652
1.63654
1.63655
1.6361
1.6346
1.62807
1.61555
1.60935
1.60932
1.60946
1.6096
1.60847
1.6074
1.60637
1.60481
1.60188
1.59634
1.5909
1.58807
1.58611
1.58472
1.58345
1.58212
1.58078
1.57868
1.57406
1.56685
1.56458
1.56469
1.56547
1.56618
1.56594
1.56534
1.56407
1.56134
1.55587
1.54574
1.53333
1.52597
1.52455
1.525
1.52923
1.53766
1.54334
1.54365
1.5438
1.54348
1.54077
1.53274
1.51678
1.50087
1.4942
1.49242
1.49247
1.49643
1.50582
1.51305
1.51356
1.51317
1.5124
1.5088
1.49921
1.48432
1.47527
1.47278
1.47222
1.47345
1.47909
1.48631
1.48837
1.48766
1.48654
1.48302
1.47426
1.46082
1.45274
1.45068
1.45033
1.45199
1.45812
1.46487
1.46598
1.46468
1.46201
1.45547
1.44253
1.42932
1.42464
1.42389
1.42424
1.42841
1.43756
1.44379
1.44387
1.44287
1.43966
1.43062
1.41508
1.40497
1.40265
1.40222
1.40337
1.40932
1.41891
1.42299
1.42256
1.42161
1.41889
1.41026
1.39513
1.3896
1.40429
1.46802
1.61816
1.73725
1.7972
1.81073
1.80801
1.80063
1.78771
1.77396
1.7678
1.76402
1.76342
1.76635
1.76862
1.76651
1.76108
1.75183
1.74014
1.73134
1.72669
1.72386
1.72498
1.72733
1.72605
1.72355
1.71857
1.71023
1.70399
1.70134
1.69912
1.69865
1.69997
1.70029
1.69649
1.6908
1.68311
1.67331
1.6661
1.66286
1.66123
1.66317
1.66998
1.68222
1.70471
1.73786
1.76702
1.77078
1.77037
1.77009
1.77215
1.77367
1.77087
1.76522
1.75804
1.74945
1.74226
1.73846
1.73563
1.73397
1.73398
1.73309
1.72861
1.7234
1.71786
1.71196
1.70739
1.70397
1.70121
1.69842
1.69538
1.69187
1.68721
1.68191
1.67784
1.67457
1.67184
1.67053
1.66838
1.66469
1.66073
1.65534
1.64951
1.64571
1.64279
1.64025
1.63813
1.63487
1.63119
1.62681
1.62074
1.6151
1.61184
1.60917
1.60693
1.60616
1.74677
1.74722
1.74983
1.75624
1.75947
1.75945
1.75948
1.75814
1.75161
1.73646
1.72026
1.71615
1.71621
1.71738
1.72344
1.7313
1.73211
1.73216
1.73203
1.73046
1.72317
1.70684
1.69341
1.6914
1.69153
1.69297
1.69701
1.69665
1.69695
1.69705
1.69623
1.69302
1.68251
1.6706
1.66853
1.66832
1.66814
1.66845
1.66968
1.66982
1.66948
1.66876
1.66726
1.66263
1.65107
1.6391
1.63651
1.63621
1.63631
1.63852
1.63885
1.63782
1.63738
1.63676
1.63557
1.63113
1.62087
1.61051
1.60915
1.60929
1.60993
1.61014
1.609
1.60812
1.60734
1.60597
1.60256
1.59495
1.58867
1.58564
1.58394
1.5831
1.58221
1.58086
1.57908
1.57671
1.57264
1.56845
1.56777
1.56771
1.56732
1.56641
1.56542
1.56406
1.56173
1.55718
1.54879
1.53765
1.52993
1.5282
1.52851
1.53228
1.53966
1.544
1.54385
1.54398
1.54376
1.54167
1.53496
1.52069
1.50497
1.49769
1.49583
1.49584
1.49959
1.50847
1.51507
1.51544
1.5148
1.51374
1.51018
1.50102
1.48623
1.47686
1.47438
1.47395
1.47529
1.4811
1.48838
1.49042
1.48968
1.48853
1.48502
1.47634
1.46282
1.45448
1.45241
1.45212
1.45389
1.46026
1.46744
1.4688
1.46747
1.46476
1.45829
1.44526
1.43129
1.42611
1.42529
1.4255
1.42934
1.43852
1.44565
1.44608
1.44504
1.44196
1.43323
1.4176
1.40643
1.4037
1.40324
1.40419
1.40979
1.4198
1.42507
1.42484
1.4238
1.42141
1.41353
1.39809
1.39353
1.41745
1.51452
1.64824
1.76754
1.79636
1.80395
1.80597
1.80179
1.79153
1.77818
1.76813
1.76543
1.76526
1.76883
1.77093
1.76798
1.763
1.75484
1.74362
1.73427
1.72933
1.72612
1.72591
1.72836
1.72852
1.72534
1.7204
1.71241
1.70415
1.70034
1.69811
1.69782
1.70014
1.70173
1.69902
1.6934
1.68511
1.67498
1.6679
1.66485
1.6629
1.66408
1.67036
1.68282
1.70511
1.73881
1.76822
1.77331
1.77185
1.77073
1.77231
1.77426
1.77225
1.76683
1.75998
1.75175
1.74418
1.73999
1.73697
1.73477
1.73457
1.7339
1.72981
1.72481
1.71941
1.71354
1.70897
1.70543
1.70246
1.69991
1.69705
1.69389
1.68952
1.68387
1.67955
1.67619
1.67325
1.67133
1.66941
1.66573
1.66186
1.65728
1.65185
1.64782
1.64491
1.64246
1.64043
1.63716
1.63337
1.62906
1.62353
1.61765
1.61344
1.61051
1.60812
1.60724
1.60689
1.74636
1.74815
1.75421
1.75883
1.75934
1.75961
1.75887
1.75375
1.74037
1.72265
1.71621
1.71595
1.71658
1.72158
1.73033
1.73312
1.73299
1.73309
1.73205
1.72616
1.71117
1.69486
1.69078
1.69076
1.69138
1.69559
1.69792
1.69746
1.69778
1.69737
1.69553
1.68791
1.67409
1.66839
1.66841
1.66855
1.66846
1.66887
1.66998
1.66986
1.66935
1.66826
1.66524
1.65643
1.64361
1.63804
1.63729
1.63724
1.63797
1.64047
1.63976
1.63862
1.63768
1.63642
1.63336
1.62487
1.61427
1.60954
1.60952
1.60988
1.61107
1.61108
1.61023
1.60944
1.60843
1.60643
1.59972
1.59044
1.58636
1.5836
1.58195
1.58164
1.58127
1.58028
1.57853
1.57637
1.57433
1.57271
1.57059
1.56826
1.56663
1.56511
1.56351
1.56153
1.55819
1.55173
1.54216
1.53426
1.53222
1.53222
1.5351
1.54103
1.54432
1.54403
1.54402
1.54375
1.54211
1.53674
1.52446
1.50918
1.50126
1.49941
1.49946
1.50307
1.51137
1.51706
1.51708
1.5162
1.51499
1.51165
1.50319
1.48875
1.4787
1.47605
1.47571
1.47718
1.48315
1.4904
1.49229
1.49149
1.49031
1.48685
1.47835
1.46482
1.45615
1.45402
1.45379
1.45567
1.46229
1.46986
1.47144
1.47013
1.4674
1.46104
1.44806
1.43333
1.42764
1.42675
1.42689
1.43047
1.43962
1.44759
1.44844
1.44736
1.44436
1.43597
1.42017
1.40775
1.40462
1.40413
1.40487
1.41011
1.4204
1.42702
1.42718
1.42619
1.42379
1.41677
1.40107
1.39905
1.43203
1.55717
1.68374
1.76887
1.81225
1.8155
1.81501
1.80554
1.79169
1.78102
1.773
1.76842
1.7669
1.76836
1.7721
1.77164
1.76717
1.75915
1.74706
1.73604
1.73021
1.72651
1.72591
1.72776
1.72841
1.72588
1.72191
1.71498
1.70658
1.70237
1.70026
1.69914
1.70041
1.70256
1.7012
1.69618
1.68848
1.67787
1.6688
1.66498
1.66272
1.66343
1.66968
1.68276
1.70557
1.73818
1.76986
1.77592
1.77347
1.77135
1.77221
1.77485
1.77428
1.76933
1.76278
1.75441
1.74603
1.74136
1.73827
1.73579
1.7353
1.7347
1.73098
1.72615
1.72076
1.71477
1.71014
1.70674
1.70405
1.70156
1.69841
1.69527
1.69145
1.6863
1.68127
1.67764
1.67455
1.67209
1.67028
1.66699
1.66352
1.65928
1.65355
1.64933
1.64655
1.64413
1.64249
1.63986
1.63632
1.63236
1.62662
1.61948
1.61499
1.61215
1.60974
1.60844
1.60846
1.60707
1.74698
1.75223
1.75771
1.75902
1.75959
1.75932
1.75549
1.74377
1.72559
1.71662
1.71578
1.71595
1.71998
1.7289
1.73353
1.73369
1.73398
1.73336
1.72873
1.71532
1.69711
1.69054
1.69027
1.69055
1.69348
1.69853
1.69833
1.69847
1.69835
1.69723
1.69229
1.67922
1.66877
1.66808
1.6683
1.66887
1.66869
1.66935
1.67007
1.66975
1.66893
1.66699
1.66047
1.64797
1.64021
1.63877
1.63831
1.63841
1.64021
1.64141
1.64024
1.63897
1.63756
1.63525
1.62863
1.618
1.61129
1.61031
1.61044
1.61119
1.6125
1.61215
1.6115
1.61043
1.60864
1.6038
1.59334
1.58608
1.58462
1.58239
1.58105
1.58105
1.58102
1.58059
1.57948
1.57839
1.57789
1.57628
1.57081
1.56637
1.56464
1.56305
1.56121
1.55872
1.55417
1.54655
1.53866
1.53628
1.53613
1.53807
1.54227
1.54417
1.54402
1.54406
1.54371
1.54232
1.53798
1.52777
1.51368
1.50514
1.50306
1.50311
1.50643
1.5141
1.519
1.51856
1.5174
1.51611
1.51314
1.50573
1.49212
1.48112
1.47797
1.47764
1.4791
1.48508
1.49223
1.4939
1.49309
1.4919
1.48853
1.48029
1.46686
1.45785
1.45559
1.4554
1.45737
1.46419
1.47206
1.47381
1.47253
1.46985
1.46363
1.45087
1.43553
1.42924
1.42825
1.42835
1.43176
1.44091
1.44961
1.45089
1.44984
1.44693
1.43883
1.42304
1.40939
1.40554
1.40497
1.40551
1.41036
1.42096
1.42874
1.42933
1.42847
1.42629
1.41999
1.40422
1.40984
1.45761
1.58656
1.72161
1.78255
1.81445
1.81876
1.81601
1.80939
1.79442
1.77762
1.7716
1.76917
1.76821
1.77014
1.77307
1.77344
1.77024
1.76371
1.75332
1.74095
1.73287
1.72769
1.72607
1.72787
1.72928
1.72697
1.72259
1.71527
1.70698
1.7025
1.70064
1.69941
1.70069
1.70292
1.7018
1.69727
1.6909
1.68176
1.67214
1.66722
1.66486
1.66498
1.66996
1.68272
1.70596
1.73836
1.76992
1.7784
1.77515
1.77195
1.77209
1.77493
1.77564
1.77177
1.76547
1.75746
1.74878
1.74304
1.73981
1.73723
1.73657
1.73599
1.73245
1.72762
1.72221
1.71597
1.71087
1.70726
1.70451
1.70289
1.70023
1.69694
1.69335
1.68819
1.68273
1.67917
1.67607
1.67351
1.67171
1.66844
1.66469
1.66053
1.65538
1.65067
1.6476
1.64514
1.64372
1.6423
1.63872
1.63474
1.6298
1.62324
1.61738
1.61377
1.61101
1.60916
1.60913
1.60861
1.60531
1.75065
1.75624
1.75844
1.75948
1.75954
1.75693
1.747
1.72904
1.71766
1.7158
1.71571
1.71869
1.72732
1.73326
1.73407
1.7346
1.73435
1.73094
1.71913
1.70005
1.69077
1.69001
1.69014
1.6921
1.69803
1.69958
1.69928
1.69934
1.6985
1.69533
1.68467
1.6707
1.66739
1.66752
1.66864
1.66901
1.66898
1.6698
1.66994
1.66941
1.668
1.66356
1.65252
1.64216
1.64022
1.6395
1.63937
1.63994
1.64199
1.64165
1.64044
1.63897
1.63696
1.63211
1.62199
1.61368
1.61141
1.61133
1.61172
1.61308
1.61351
1.61312
1.61223
1.61052
1.60668
1.59744
1.58738
1.5844
1.58341
1.58162
1.58121
1.58146
1.58188
1.58217
1.58211
1.58174
1.58022
1.5748
1.56693
1.56369
1.56257
1.56116
1.55912
1.55595
1.55034
1.54299
1.54007
1.53981
1.54094
1.54346
1.54398
1.54394
1.54397
1.54364
1.5425
1.53895
1.5306
1.51793
1.50925
1.507
1.50694
1.50969
1.5163
1.52057
1.51998
1.51856
1.51707
1.51445
1.50831
1.4961
1.4843
1.48029
1.47989
1.4812
1.48688
1.49375
1.49523
1.49443
1.4933
1.49008
1.48221
1.46908
1.45968
1.45723
1.45705
1.45906
1.46597
1.47398
1.47583
1.47463
1.47205
1.46606
1.45374
1.438
1.43098
1.42981
1.42989
1.43315
1.44228
1.4516
1.45338
1.45235
1.44956
1.44186
1.42615
1.41114
1.40656
1.4059
1.40623
1.41058
1.42121
1.43039
1.43151
1.43072
1.42846
1.42332
1.40875
1.41972
1.50266
1.62529
1.74887
1.79046
1.81139
1.81563
1.81504
1.8077
1.79654
1.78271
1.77125
1.76714
1.76627
1.7701
1.77476
1.77434
1.77121
1.76554
1.75601
1.745
1.7376
1.73285
1.72954
1.72998
1.73164
1.72975
1.72489
1.71776
1.70839
1.70189
1.69985
1.69857
1.70006
1.70326
1.70312
1.69902
1.69268
1.68312
1.6735
1.66876
1.6665
1.66626
1.67069
1.68314
1.70611
1.73914
1.77078
1.78101
1.7763
1.77254
1.77227
1.77502
1.77666
1.77349
1.76769
1.7604
1.75165
1.74518
1.74177
1.73902
1.73812
1.73771
1.73442
1.72953
1.7241
1.71761
1.71211
1.70824
1.70511
1.70337
1.70176
1.69826
1.69465
1.69011
1.68461
1.68044
1.67733
1.67464
1.67283
1.6701
1.66655
1.66276
1.65738
1.65165
1.64842
1.646
1.64406
1.64332
1.64107
1.63733
1.63299
1.62652
1.61971
1.61593
1.61315
1.61083
1.61031
1.6102
1.60769
1.60389
1.75476
1.75737
1.7591
1.75956
1.75801
1.74985
1.73291
1.71949
1.7163
1.71592
1.71803
1.72615
1.73256
1.73399
1.73493
1.73496
1.73255
1.72244
1.70338
1.69144
1.68988
1.69
1.69143
1.69716
1.70078
1.70031
1.70044
1.69981
1.69754
1.68927
1.67426
1.66695
1.66681
1.66717
1.66936
1.66914
1.66931
1.66992
1.66966
1.66866
1.66579
1.65703
1.64459
1.64067
1.64052
1.64022
1.6404
1.64173
1.64257
1.64173
1.64045
1.63862
1.63517
1.62644
1.61656
1.613
1.61225
1.61244
1.61335
1.61454
1.61436
1.61374
1.61228
1.60916
1.6015
1.59024
1.5848
1.58374
1.58287
1.58207
1.58222
1.58316
1.5842
1.58439
1.58459
1.58375
1.57764
1.5681
1.56316
1.56184
1.56092
1.55948
1.55704
1.55303
1.54736
1.54431
1.54349
1.54362
1.54459
1.54423
1.54392
1.54372
1.54334
1.54244
1.53981
1.5331
1.52192
1.51338
1.51099
1.51081
1.51295
1.51843
1.52176
1.52108
1.51966
1.51806
1.51572
1.51063
1.50028
1.4883
1.48306
1.48247
1.48354
1.48869
1.49503
1.49633
1.49557
1.49452
1.4915
1.48414
1.47148
1.46178
1.45906
1.45887
1.46083
1.46767
1.47555
1.47747
1.47633
1.4739
1.46826
1.45664
1.44077
1.43284
1.43149
1.43155
1.43466
1.44372
1.45357
1.45582
1.45487
1.45223
1.44494
1.42951
1.41337
1.40783
1.407
1.40716
1.41097
1.4214
1.43181
1.43362
1.43294
1.43086
1.42675
1.41487
1.43436
1.53872
1.67651
1.74919
1.80144
1.81918
1.82154
1.82093
1.81106
1.79563
1.78358
1.77558
1.7717
1.77032
1.77198
1.77643
1.77645
1.77312
1.76753
1.75732
1.74521
1.73772
1.73373
1.73105
1.73154
1.73356
1.73233
1.72759
1.72095
1.71157
1.70377
1.70102
1.69952
1.70003
1.70327
1.70418
1.70088
1.69497
1.68602
1.67562
1.66888
1.66627
1.66576
1.66992
1.68277
1.7063
1.73883
1.77214
1.78386
1.77827
1.77326
1.77209
1.77466
1.77738
1.77503
1.76964
1.76284
1.75431
1.74732
1.74369
1.74087
1.73969
1.73942
1.73685
1.73218
1.72676
1.71995
1.7138
1.70966
1.70629
1.70395
1.7028
1.69982
1.69622
1.69196
1.68631
1.68172
1.67869
1.67602
1.67412
1.67194
1.66828
1.66429
1.65928
1.65344
1.64941
1.64673
1.6447
1.64379
1.64235
1.6387
1.63465
1.62951
1.62317
1.61819
1.61499
1.61236
1.61132
1.61124
1.60939
1.60574
1.60184
1.75612
1.75831
1.75933
1.75855
1.75203
1.7365
1.72186
1.71732
1.71657
1.71794
1.72538
1.73229
1.73365
1.73498
1.73532
1.73361
1.72505
1.70676
1.69248
1.68989
1.68995
1.69116
1.6965
1.70165
1.70159
1.70167
1.70125
1.69942
1.6929
1.67886
1.66763
1.66629
1.66636
1.66781
1.66995
1.66931
1.66965
1.66974
1.66909
1.66725
1.66087
1.64828
1.64099
1.64076
1.64077
1.641
1.64164
1.64289
1.64259
1.64168
1.64017
1.63754
1.63093
1.61979
1.61478
1.61347
1.61321
1.61366
1.61497
1.61534
1.61501
1.61392
1.61144
1.60531
1.59436
1.58616
1.58453
1.58381
1.58364
1.58375
1.58412
1.58542
1.58639
1.58633
1.58595
1.58153
1.57022
1.56234
1.56128
1.56069
1.55978
1.55817
1.55513
1.55093
1.54869
1.54809
1.54708
1.54591
1.54489
1.54395
1.54332
1.54276
1.54199
1.54024
1.53523
1.52582
1.51727
1.51489
1.51475
1.51601
1.52028
1.52288
1.52208
1.52067
1.51909
1.51698
1.51278
1.50409
1.49253
1.48624
1.48533
1.48605
1.49048
1.49614
1.49725
1.4965
1.49551
1.4928
1.48611
1.47416
1.46419
1.46119
1.46099
1.46281
1.4694
1.47687
1.47866
1.47757
1.47529
1.47011
1.45947
1.44376
1.43491
1.43325
1.43331
1.43629
1.44521
1.45544
1.4581
1.45725
1.45485
1.44809
1.43316
1.41589
1.40933
1.40831
1.40831
1.41161
1.42159
1.433
1.43572
1.43518
1.43359
1.42537
1.42701
1.46425
1.5722
1.71138
1.77447
1.80465
1.82173
1.82605
1.82441
1.8173
1.80008
1.78045
1.77332
1.77099
1.77061
1.77314
1.77776
1.77851
1.77547
1.77037
1.76181
1.74975
1.7397
1.73453
1.73197
1.73266
1.73528
1.73515
1.73066
1.72356
1.71353
1.70463
1.70114
1.69955
1.69958
1.70255
1.70422
1.70166
1.69657
1.6886
1.67862
1.67134
1.66846
1.66755
1.67097
1.68292
1.70681
1.73895
1.7738
1.78561
1.78065
1.77546
1.77318
1.7747
1.77767
1.77617
1.77115
1.76476
1.75658
1.74899
1.7451
1.7423
1.74101
1.74096
1.73934
1.73461
1.72928
1.7226
1.71576
1.71118
1.70768
1.70501
1.70392
1.70134
1.69748
1.6934
1.68818
1.68327
1.68
1.6773
1.67536
1.67353
1.67009
1.66646
1.6619
1.65564
1.6505
1.64765
1.64531
1.64353
1.64259
1.63981
1.63629
1.63186
1.62534
1.62011
1.61701
1.6144
1.61285
1.61281
1.61185
1.6083
1.60453
1.59951
1.7574
1.75891
1.75864
1.75342
1.7394
1.72433
1.71875
1.71765
1.71843
1.72487
1.73221
1.73361
1.73492
1.73552
1.7343
1.72696
1.70989
1.69395
1.69005
1.68997
1.69096
1.696
1.70221
1.7029
1.70295
1.70275
1.7013
1.6961
1.68346
1.66946
1.66599
1.66601
1.66652
1.66977
1.67007
1.66969
1.66984
1.66939
1.66809
1.66379
1.65279
1.6422
1.64073
1.64082
1.64129
1.64186
1.64284
1.64315
1.64259
1.64146
1.63946
1.63463
1.62415
1.61591
1.61513
1.61417
1.61415
1.6149
1.61607
1.616
1.61537
1.6136
1.60908
1.59917
1.58895
1.58588
1.58514
1.58501
1.58594
1.58577
1.58615
1.58721
1.58755
1.58722
1.58371
1.57411
1.56304
1.56029
1.56028
1.56013
1.55926
1.55742
1.55442
1.55249
1.55217
1.55164
1.54949
1.54581
1.54382
1.54285
1.54208
1.54127
1.53992
1.5366
1.52948
1.52107
1.51811
1.5182
1.51912
1.52178
1.5238
1.52308
1.5218
1.52032