/*--------------------------------*- C++ -*----------------------------------*\
  =========                 |
  \\      /  F ield         | OpenFOAM: The Open Source CFD Toolbox
   \\    /   O peration     | Website:  https://openfoam.org
    \\  /    A nd           | Version:  7
     \\/     M anipulation  |
\*---------------------------------------------------------------------------*/
FoamFile
{
    version     2.0;
    format      ascii;
    class       volVectorField;
    location    "2";
    object      U;
}
// * * * * * * * * * * * * * * * * * * * * * * * * * * * * * * * * * * * * * //

dimensions      [0 1 -1 0 0 0 0];

internalField   nonuniform List<vector> 
16512
(
(2.18166 0.680563 0)
(2.18936 0.678821 0)
(2.19565 0.675226 0)
(2.19621 0.665576 0)
(2.18374 0.646493 0)
(2.17257 0.62847 0)
(2.1769 0.624804 0)
(2.1846 0.623838 0)
(2.19573 0.62269 0)
(2.21041 0.623205 0)
(2.22042 0.62237 0)
(2.22909 0.621834 0)
(2.23674 0.620968 0)
(2.24331 0.618893 0)
(2.24591 0.6121 0)
(2.23661 0.595737 0)
(2.22219 0.574912 0)
(2.22414 0.567447 0)
(2.23133 0.567105 0)
(2.24135 0.565039 0)
(2.25352 0.563917 0)
(2.26426 0.562746 0)
(2.27234 0.56137 0)
(2.27989 0.560091 0)
(2.28697 0.557695 0)
(2.29121 0.552677 0)
(2.28632 0.540575 0)
(2.27498 0.526431 0)
(2.27776 0.520412 0)
(2.28492 0.51768 0)
(2.29348 0.51587 0)
(2.30263 0.513597 0)
(2.31046 0.510282 0)
(2.31732 0.508031 0)
(2.32421 0.505891 0)
(2.32998 0.502281 0)
(2.33079 0.494079 0)
(2.32133 0.479559 0)
(2.31726 0.469754 0)
(2.32271 0.465921 0)
(2.32941 0.461903 0)
(2.33802 0.458051 0)
(2.34726 0.454215 0)
(2.3545 0.450647 0)
(2.36144 0.447771 0)
(2.36848 0.443635 0)
(2.37363 0.438987 0)
(2.37509 0.433608 0)
(2.36729 0.424779 0)
(2.35831 0.414809 0)
(2.36376 0.413439 0)
(2.37016 0.412233 0)
(2.37804 0.409543 0)
(2.38528 0.405909 0)
(2.39269 0.402082 0)
(2.3998 0.397386 0)
(2.40592 0.392387 0)
(2.41163 0.387503 0)
(2.41559 0.382106 0)
(2.41314 0.372899 0)
(2.40416 0.359756 0)
(2.40333 0.354231 0)
(2.40782 0.354776 0)
(2.41493 0.354749 0)
(2.42507 0.354303 0)
(2.43216 0.352286 0)
(2.4397 0.350078 0)
(2.44628 0.34721 0)
(2.45147 0.342907 0)
(2.45448 0.335938 0)
(2.45264 0.324135 0)
(2.44316 0.307836 0)
(2.4365 0.295253 0)
(2.43883 0.292987 0)
(2.44333 0.294695 0)
(2.45346 0.298474 0)
(2.46723 0.304184 0)
(2.47645 0.305649 0)
(2.48253 0.303865 0)
(2.48907 0.299947 0)
(2.49322 0.294159 0)
(2.49192 0.283277 0)
(2.48082 0.264709 0)
(2.46792 0.245278 0)
(2.46617 0.236108 0)
(2.4694 0.235497 0)
(2.47569 0.236689 0)
(2.48948 0.243254 0)
(2.50861 0.255601 0)
(2.52279 0.26267 0)
(2.52763 0.262729 0)
(2.53328 0.259451 0)
(2.53559 0.252357 0)
(2.52983 0.238885 0)
(2.51337 0.214118 0)
(2.49787 0.189628 0)
(2.49566 0.178711 0)
(2.49869 0.176196 0)
(2.50308 0.176024 0)
(2.51331 0.17844 0)
(2.52942 0.188221 0)
(2.54864 0.201675 0)
(2.55969 0.207845 0)
(2.56339 0.207815 0)
(2.56771 0.205261 0)
(2.56861 0.198888 0)
(2.56159 0.185726 0)
(2.54577 0.162566 0)
(2.53315 0.141826 0)
(2.53271 0.133589 0)
(2.53596 0.132692 0)
(2.541 0.133124 0)
(2.55214 0.136989 0)
(2.56796 0.146424 0)
(2.5814 0.153207 0)
(2.58575 0.153537 0)
(2.59061 0.151431 0)
(2.59416 0.147856 0)
(2.59447 0.141025 0)
(2.58672 0.127486 0)
(2.57227 0.108117 0)
(2.56571 0.0962657 0)
(2.56775 0.0942247 0)
(2.57141 0.0944634 0)
(2.58058 0.0967562 0)
(2.59462 0.10384 0)
(2.607 0.109072 0)
(2.61096 0.108985 0)
(2.61546 0.106743 0)
(2.61836 0.102664 0)
(2.61685 0.0944806 0)
(2.60589 0.0792113 0)
(2.592 0.0620237 0)
(2.58916 0.0548077 0)
(2.59139 0.0546351 0)
(2.59659 0.0551509 0)
(2.60765 0.0595187 0)
(2.62369 0.0682894 0)
(2.63472 0.0722051 0)
(2.638 0.0715347 0)
(2.64178 0.0681863 0)
(2.64272 0.0617945 0)
(2.63506 0.0489482 0)
(2.61897 0.0292924 0)
(2.6113 0.0176439 0)
(2.61346 0.0160548 0)
(2.61699 0.0162699 0)
(2.62615 0.0187258 0)
(2.64154 0.0271439 0)
(2.65552 0.0340486 0)
(2.65944 0.0344027 0)
(2.66315 0.0324422 0)
(2.6647 0.0279147 0)
(2.65809 0.0174079 0)
(2.64 -0.00150196 0)
(2.62711 -0.0155918 0)
(2.62755 -0.018346 0)
(2.63031 -0.0181461 0)
(2.63757 -0.0165628 0)
(2.65195 -0.00899495 0)
(2.67039 0.00123852 0)
(2.67886 0.00380762 0)
(2.68172 0.0027273 0)
(2.68474 -0.0006341 0)
(2.68373 -0.00740928 0)
(2.67212 -0.0215309 0)
(2.65411 -0.0398818 0)
(2.64872 -0.0482028 0)
(2.65275 -0.0488449 0)
(2.6564 -0.0465826 0)
(2.66306 -0.0416891 0)
(2.65085 -0.0785373 0)
(2.54686 -0.246521 0)
(2.38791 -0.489481 0)
(2.32368 -0.536004 0)
(2.25721 -0.594552 0)
(2.21717 -0.664451 0)
(2.18308 -0.685431 0)
(2.18549 -0.676101 0)
(2.20034 -0.657015 0)
(2.22151 -0.643635 0)
(2.23807 -0.641296 0)
(2.24428 -0.647802 0)
(2.24537 -0.658079 0)
(2.24273 -0.664588 0)
(2.23824 -0.665011 0)
(2.23879 -0.662985 0)
(2.24416 -0.663236 0)
(2.24926 -0.663956 0)
(2.25778 -0.664494 0)
(2.26909 -0.663151 0)
(2.2746 -0.663108 0)
(2.28006 -0.665778 0)
(2.28373 -0.669899 0)
(2.28286 -0.676084 0)
(2.27826 -0.682533 0)
(2.27879 -0.685081 0)
(2.28208 -0.685388 0)
(2.28629 -0.684491 0)
(2.29563 -0.68141 0)
(2.30741 -0.675419 0)
(2.31435 -0.672959 0)
(2.31755 -0.673861 0)
(2.31858 -0.677254 0)
(2.31398 -0.683992 0)
(2.30934 -0.689418 0)
(2.31281 -0.690913 0)
(2.31744 -0.690613 0)
(2.32433 -0.688538 0)
(2.33493 -0.685309 0)
(2.34034 -0.686182 0)
(2.33304 -0.697649 0)
(2.30409 -0.731531 0)
(2.25789 -0.782251 0)
(2.20544 -0.831041 0)
(2.15873 -0.878227 0)
(2.15797 -0.886543 0)
(2.16764 -0.879852 0)
(2.1767 -0.87437 0)
(2.18136 -0.872794 0)
(2.1874 -0.874934 0)
(2.191 -0.878945 0)
(2.18965 -0.882238 0)
(2.18831 -0.886681 0)
(2.19226 -0.888934 0)
(2.19669 -0.889082 0)
(2.20365 -0.887882 0)
(2.21446 -0.884478 0)
(2.22238 -0.882096 0)
(2.22594 -0.883309 0)
(2.22957 -0.885932 0)
(2.23134 -0.888523 0)
(2.23233 -0.890526 0)
(2.23598 -0.891485 0)
(2.24035 -0.891658 0)
(2.24505 -0.89153 0)
(2.24952 -0.892209 0)
(2.25352 -0.893069 0)
(2.25607 -0.894202 0)
(2.25725 -0.895666 0)
(2.25895 -0.896196 0)
(2.26242 -0.895934 0)
(2.26639 -0.895404 0)
(2.27128 -0.893988 0)
(2.27851 -0.891375 0)
(2.28338 -0.889631 0)
(2.28763 -0.89104 0)
(2.29095 -0.892861 0)
(2.29132 -0.895048 0)
(2.29125 -0.89765 0)
(2.29475 -0.898881 0)
(2.29857 -0.898927 0)
(2.30296 -0.897743 0)
(2.30825 -0.895537 0)
(2.31188 -0.894665 0)
(2.31591 -0.895484 0)
(2.31892 -0.896359 0)
(2.32045 -0.897404 0)
(2.18518 0.688923 0)
(2.19205 0.686211 0)
(2.19493 0.678852 0)
(2.18618 0.662369 0)
(2.17149 0.641302 0)
(2.17264 0.633276 0)
(2.17962 0.632936 0)
(2.1895 0.631341 0)
(2.20436 0.631992 0)
(2.21665 0.631743 0)
(2.22481 0.630933 0)
(2.23286 0.630449 0)
(2.23974 0.629118 0)
(2.24386 0.624238 0)
(2.23784 0.610353 0)
(2.22129 0.588161 0)
(2.2191 0.57629 0)
(2.22576 0.575819 0)
(2.23492 0.574157 0)
(2.24796 0.573198 0)
(2.25944 0.572375 0)
(2.26882 0.571343 0)
(2.27592 0.570312 0)
(2.28292 0.568921 0)
(2.28881 0.565491 0)
(2.2885 0.556064 0)
(2.27652 0.539537 0)
(2.2725 0.53054 0)
(2.27911 0.52808 0)
(2.28712 0.525038 0)
(2.29643 0.52337 0)
(2.30565 0.520685 0)
(2.31283 0.517699 0)
(2.31956 0.515814 0)
(2.32595 0.513492 0)
(2.32993 0.508237 0)
(2.32572 0.495811 0)
(2.3151 0.480458 0)
(2.31774 0.47496 0)
(2.32407 0.472594 0)
(2.33151 0.468812 0)
(2.34039 0.464695 0)
(2.34913 0.461072 0)
(2.35617 0.458062 0)
(2.36272 0.455418 0)
(2.3692 0.451458 0)
(2.37358 0.446386 0)
(2.37261 0.440679 0)
(2.36294 0.431804 0)
(2.358 0.422982 0)
(2.36441 0.41984 0)
(2.37155 0.417727 0)
(2.37973 0.414711 0)
(2.38673 0.411196 0)
(2.39368 0.40786 0)
(2.40061 0.403424 0)
(2.40628 0.398239 0)
(2.41109 0.392684 0)
(2.41243 0.385927 0)
(2.40557 0.375383 0)
(2.40088 0.367347 0)
(2.40509 0.367247 0)
(2.41099 0.366115 0)
(2.419 0.364368 0)
(2.42639 0.361242 0)
(2.43353 0.357897 0)
(2.4404 0.355005 0)
(2.44639 0.351934 0)
(2.45076 0.347083 0)
(2.45075 0.337659 0)
(2.443 0.322202 0)
(2.43495 0.307912 0)
(2.43671 0.304599 0)
(2.44141 0.306213 0)
(2.45071 0.309183 0)
(2.46304 0.312962 0)
(2.47076 0.313229 0)
(2.47743 0.311273 0)
(2.48396 0.308021 0)
(2.48838 0.303018 0)
(2.48808 0.293092 0)
(2.47858 0.276257 0)
(2.46609 0.257502 0)
(2.4637 0.248339 0)
(2.46692 0.247911 0)
(2.47309 0.249648 0)
(2.4867 0.256329 0)
(2.50527 0.267729 0)
(2.5184 0.273309 0)
(2.52345 0.272857 0)
(2.52938 0.269252 0)
(2.5318 0.262299 0)
(2.52625 0.248804 0)
(2.50955 0.224124 0)
(2.49402 0.200318 0)
(2.49241 0.189933 0)
(2.49545 0.187977 0)
(2.5002 0.187783 0)
(2.51092 0.190591 0)
(2.5276 0.200772 0)
(2.54701 0.213899 0)
(2.55785 0.219364 0)
(2.56148 0.218978 0)
(2.56562 0.215964 0)
(2.56604 0.209068 0)
(2.55796 0.19498 0)
(2.54074 0.170713 0)
(2.52848 0.150557 0)
(2.52904 0.143142 0)
(2.53238 0.142541 0)
(2.53788 0.142913 0)
(2.54943 0.147085 0)
(2.56563 0.156999 0)
(2.57908 0.164057 0)
(2.58338 0.164469 0)
(2.58827 0.162473 0)
(2.59185 0.159026 0)
(2.59226 0.152313 0)
(2.58483 0.13889 0)
(2.5705 0.119227 0)
(2.56336 0.106515 0)
(2.56524 0.103794 0)
(2.56881 0.103954 0)
(2.57755 0.105848 0)
(2.59126 0.112717 0)
(2.60422 0.118684 0)
(2.60851 0.119025 0)
(2.61293 0.117009 0)
(2.61607 0.113211 0)
(2.61524 0.105664 0)
(2.60547 0.0912752 0)
(2.59135 0.0735622 0)
(2.58727 0.0649708 0)
(2.58944 0.0644213 0)
(2.59395 0.0648064 0)
(2.60422 0.0684719 0)
(2.6197 0.0770079 0)
(2.63174 0.0820146 0)
(2.63512 0.0816737 0)
(2.63901 0.0785796 0)
(2.64045 0.0725206 0)
(2.6341 0.0603716 0)
(2.6186 0.0407277 0)
(2.60928 0.02736 0)
(2.61092 0.024734 0)
(2.61425 0.0249532 0)
(2.62257 0.0268282 0)
(2.63737 0.0347124 0)
(2.65253 0.0427868 0)
(2.65764 0.0438205 0)
(2.66118 0.042248 0)
(2.66345 0.0381498 0)
(2.65871 0.028686 0)
(2.64201 0.0106608 0)
(2.62663 -0.00571364 0)
(2.62556 -0.0101052 0)
(2.62796 -0.00995077 0)
(2.63412 -0.00891598 0)
(2.647 -0.00256273 0)
(2.66567 0.00845694 0)
(2.67679 0.0128395 0)
(2.67971 0.0122161 0)
(2.68311 0.00940464 0)
(2.68355 0.00355188 0)
(2.67477 -0.00864031 0)
(2.6568 -0.0276015 0)
(2.64744 -0.0384714 0)
(2.65099 -0.0402372 0)
(2.65316 -0.0389713 0)
(2.65712 -0.039341 0)
(2.62961 -0.100466 0)
(2.54624 -0.246908 0)
(2.34499 -0.492038 0)
(2.24673 -0.621678 0)
(2.2246 -0.621428 0)
(2.22844 -0.625443 0)
(2.22349 -0.642909 0)
(2.20916 -0.659594 0)
(2.20701 -0.661898 0)
(2.21208 -0.656548 0)
(2.2271 -0.642779 0)
(2.23925 -0.636583 0)
(2.24701 -0.63911 0)
(2.25102 -0.645005 0)
(2.24995 -0.653382 0)
(2.24396 -0.660757 0)
(2.24294 -0.661941 0)
(2.24758 -0.660129 0)
(2.25364 -0.65693 0)
(2.26488 -0.65397 0)
(2.27536 -0.653154 0)
(2.2799 -0.654667 0)
(2.28426 -0.658577 0)
(2.28439 -0.664208 0)
(2.27928 -0.67224 0)
(2.27848 -0.677799 0)
(2.28233 -0.678867 0)
(2.28653 -0.678268 0)
(2.2945 -0.675663 0)
(2.30553 -0.669568 0)
(2.31425 -0.665838 0)
(2.31765 -0.666466 0)
(2.31998 -0.669931 0)
(2.31717 -0.67614 0)
(2.3108 -0.683044 0)
(2.31196 -0.685502 0)
(2.31625 -0.685743 0)
(2.32196 -0.683871 0)
(2.33316 -0.679467 0)
(2.34125 -0.678269 0)
(2.334 -0.689291 0)
(2.30978 -0.718318 0)
(2.26922 -0.765394 0)
(2.20206 -0.826208 0)
(2.16097 -0.87333 0)
(2.16029 -0.867681 0)
(2.16983 -0.870095 0)
(2.17815 -0.870639 0)
(2.182 -0.870121 0)
(2.18723 -0.870624 0)
(2.19159 -0.873257 0)
(2.19234 -0.877373 0)
(2.19088 -0.881217 0)
(2.19396 -0.881817 0)
(2.19874 -0.881362 0)
(2.20438 -0.879965 0)
(2.21305 -0.878247 0)
(2.22204 -0.876444 0)
(2.2262 -0.876866 0)
(2.22982 -0.878936 0)
(2.2321 -0.880926 0)
(2.23313 -0.882497 0)
(2.23586 -0.883565 0)
(2.24017 -0.88453 0)
(2.24479 -0.885083 0)
(2.24939 -0.885574 0)
(2.25363 -0.886071 0)
(2.2571 -0.886448 0)
(2.25857 -0.887273 0)
(2.25944 -0.888957 0)
(2.2628 -0.890016 0)
(2.26642 -0.889963 0)
(2.2708 -0.888783 0)
(2.27772 -0.886279 0)
(2.28357 -0.883404 0)
(2.28757 -0.884076 0)
(2.29129 -0.885727 0)
(2.29235 -0.888236 0)
(2.29181 -0.89105 0)
(2.29419 -0.892066 0)
(2.29815 -0.892181 0)
(2.30227 -0.891186 0)
(2.30755 -0.889059 0)
(2.31153 -0.887636 0)
(2.31556 -0.888717 0)
(2.31897 -0.889837 0)
(2.32067 -0.891169 0)
(2.32202 -0.892512 0)
(2.18799 0.696834 0)
(2.1926 0.691324 0)
(2.18764 0.677439 0)
(2.17174 0.65522 0)
(2.16861 0.642911 0)
(2.17483 0.642351 0)
(2.18372 0.640438 0)
(2.1976 0.640667 0)
(2.21249 0.641307 0)
(2.22086 0.640063 0)
(2.22915 0.639655 0)
(2.23627 0.638751 0)
(2.24154 0.635335 0)
(2.23862 0.623864 0)
(2.22206 0.60219 0)
(2.21452 0.586275 0)
(2.22041 0.583979 0)
(2.22841 0.582819 0)
(2.24105 0.582461 0)
(2.25486 0.582115 0)
(2.26458 0.581331 0)
(2.27294 0.580414 0)
(2.27927 0.579717 0)
(2.28561 0.577852 0)
(2.28873 0.571214 0)
(2.28023 0.555357 0)
(2.26976 0.539825 0)
(2.2739 0.537776 0)
(2.2806 0.534719 0)
(2.28994 0.531897 0)
(2.29957 0.530391 0)
(2.30833 0.527286 0)
(2.31511 0.524766 0)
(2.32154 0.523001 0)
(2.32691 0.519774 0)
(2.32711 0.511181 0)
(2.31739 0.495221 0)
(2.31308 0.48379 0)
(2.31913 0.481507 0)
(2.32593 0.479342 0)
(2.33423 0.476006 0)
(2.34298 0.471986 0)
(2.35113 0.468875 0)
(2.35807 0.466482 0)
(2.36433 0.464015 0)
(2.37 0.460562 0)
(2.37293 0.455621 0)
(2.36831 0.448224 0)
(2.35787 0.437184 0)
(2.35909 0.428948 0)
(2.36475 0.425209 0)
(2.37231 0.422648 0)
(2.38091 0.419897 0)
(2.38766 0.416727 0)
(2.39452 0.413638 0)
(2.40146 0.409264 0)
(2.4069 0.404136 0)
(2.41091 0.398402 0)
(2.40949 0.390597 0)
(2.40063 0.381423 0)
(2.40215 0.378558 0)
(2.4071 0.37699 0)
(2.41335 0.374336 0)
(2.4205 0.37097 0)
(2.42743 0.367124 0)
(2.43415 0.363351 0)
(2.44027 0.359664 0)
(2.44541 0.355592 0)
(2.448 0.34949 0)
(2.44403 0.338016 0)
(2.43517 0.323281 0)
(2.43475 0.317212 0)
(2.43905 0.317774 0)
(2.44737 0.319152 0)
(2.45843 0.321083 0)
(2.46522 0.32052 0)
(2.47234 0.31852 0)
(2.47883 0.315627 0)
(2.48355 0.311364 0)
(2.48437 0.303011 0)
(2.47693 0.288279 0)
(2.46494 0.270461 0)
(2.46164 0.260646 0)
(2.46477 0.260296 0)
(2.47089 0.262287 0)
(2.48427 0.269238 0)
(2.50189 0.279315 0)
(2.51351 0.283155 0)
(2.51875 0.282096 0)
(2.52488 0.278147 0)
(2.52758 0.271345 0)
(2.5225 0.258475 0)
(2.50616 0.234215 0)
(2.49053 0.211259 0)
(2.4891 0.201339 0)
(2.49232 0.199796 0)
(2.49731 0.199743 0)
(2.50851 0.203004 0)
(2.52585 0.213844 0)
(2.54527 0.226572 0)
(2.55579 0.231118 0)
(2.55945 0.230336 0)
(2.56356 0.226644 0)
(2.5637 0.219137 0)
(2.5548 0.204437 0)
(2.53622 0.178999 0)
(2.52374 0.159214 0)
(2.52485 0.15251 0)
(2.52835 0.152094 0)
(2.53433 0.152518 0)
(2.54644 0.157101 0)
(2.56328 0.167701 0)
(2.57691 0.175177 0)
(2.58118 0.175661 0)
(2.58613 0.173808 0)
(2.58977 0.170429 0)
(2.59012 0.163674 0)
(2.58262 0.150183 0)
(2.56821 0.130015 0)
(2.56083 0.116641 0)
(2.56264 0.113473 0)
(2.566 0.113593 0)
(2.57446 0.115241 0)
(2.58804 0.121854 0)
(2.60148 0.128307 0)
(2.60637 0.128978 0)
(2.61057 0.127362 0)
(2.61396 0.123846 0)
(2.61353 0.116617 0)
(2.60462 0.102713 0)
(2.5906 0.084575 0)
(2.58553 0.0748958 0)
(2.58755 0.0738831 0)
(2.5915 0.0742862 0)
(2.60113 0.077551 0)
(2.61601 0.0860347 0)
(2.62891 0.0918821 0)
(2.63265 0.0918012 0)
(2.63641 0.0891573 0)
(2.6382 0.0834089 0)
(2.63282 0.0718194 0)
(2.61783 0.052236 0)
(2.6072 0.0372001 0)
(2.60835 0.0334711 0)
(2.61139 0.0336037 0)
(2.61906 0.0349797 0)
(2.63333 0.0422866 0)
(2.64937 0.0513989 0)
(2.6557 0.053296 0)
(2.6591 0.0520408 0)
(2.66198 0.0483516 0)
(2.6588 0.039803 0)
(2.64368 0.0227342 0)
(2.62667 0.00447736 0)
(2.62379 -0.0017692 0)
(2.62591 -0.00179717 0)
(2.63115 -0.00109828 0)
(2.64262 0.00408504 0)
(2.66086 0.0152385 0)
(2.67447 0.0215348 0)
(2.67763 0.0214686 0)
(2.6814 0.0192066 0)
(2.68283 0.014359 0)
(2.67642 0.00336701 0)
(2.65922 -0.0151659 0)
(2.64713 -0.0281623 0)
(2.64943 -0.0314447 0)
(2.6507 -0.0299347 0)
(2.64808 -0.0395596 0)
(2.59556 -0.133884 0)
(2.49223 -0.31816 0)
(2.37967 -0.46174 0)
(2.24083 -0.608341 0)
(2.1943 -0.647506 0)
(2.19703 -0.643189 0)
(2.20838 -0.634579 0)
(2.22076 -0.634688 0)
(2.22278 -0.637416 0)
(2.22376 -0.641198 0)
(2.22835 -0.640722 0)
(2.23496 -0.637645 0)
(2.24196 -0.635349 0)
(2.24664 -0.634961 0)
(2.24935 -0.639669 0)
(2.2503 -0.646187 0)
(2.24905 -0.651017 0)
(2.2505 -0.653278 0)
(2.25466 -0.653684 0)
(2.26114 -0.651241 0)
(2.27234 -0.647352 0)
(2.27896 -0.646496 0)
(2.28397 -0.649307 0)
(2.28666 -0.654556 0)
(2.28312 -0.662418 0)
(2.27866 -0.668261 0)
(2.2813 -0.669533 0)
(2.28484 -0.669393 0)
(2.29225 -0.668035 0)
(2.30413 -0.662735 0)
(2.31409 -0.658173 0)
(2.31795 -0.658258 0)
(2.3206 -0.661194 0)
(2.31857 -0.667263 0)
(2.31269 -0.674682 0)
(2.3119 -0.677598 0)
(2.31637 -0.677728 0)
(2.32125 -0.675837 0)
(2.33029 -0.67263 0)
(2.34015 -0.669799 0)
(2.33615 -0.679276 0)
(2.31659 -0.704425 0)
(2.2674 -0.760013 0)
(2.21499 -0.810229 0)
(2.168 -0.856363 0)
(2.15817 -0.871132 0)
(2.16538 -0.870622 0)
(2.17849 -0.864901 0)
(2.18304 -0.860947 0)
(2.1878 -0.86079 0)
(2.19276 -0.864137 0)
(2.19507 -0.869353 0)
(2.19423 -0.873867 0)
(2.19527 -0.874728 0)
(2.19984 -0.875023 0)
(2.20485 -0.87487 0)
(2.21215 -0.873616 0)
(2.22146 -0.870227 0)
(2.22678 -0.868552 0)
(2.23044 -0.870104 0)
(2.23323 -0.872243 0)
(2.23399 -0.874767 0)
(2.23564 -0.877056 0)
(2.23949 -0.878285 0)
(2.24392 -0.878675 0)
(2.24881 -0.87864 0)
(2.25331 -0.87954 0)
(2.2574 -0.880996 0)
(2.25992 -0.882809 0)
(2.26083 -0.884157 0)
(2.26301 -0.883846 0)
(2.26675 -0.883267 0)
(2.27079 -0.882266 0)
(2.27652 -0.880363 0)
(2.28349 -0.877623 0)
(2.28733 -0.877263 0)
(2.29148 -0.878528 0)
(2.29357 -0.879959 0)
(2.29256 -0.882392 0)
(2.29387 -0.884315 0)
(2.29773 -0.884712 0)
(2.30177 -0.883994 0)
(2.30657 -0.882153 0)
(2.31132 -0.880014 0)
(2.31522 -0.880519 0)
(2.31886 -0.881621 0)
(2.32075 -0.882916 0)
(2.32147 -0.884499 0)
(2.32457 -0.885649 0)
(2.18946 0.702859 0)
(2.18776 0.691344 0)
(2.17294 0.67008 0)
(2.16517 0.653957 0)
(2.17049 0.651412 0)
(2.17831 0.650044 0)
(2.19057 0.649577 0)
(2.20686 0.650909 0)
(2.21725 0.649813 0)
(2.2253 0.648878 0)
(2.23266 0.648091 0)
(2.23865 0.645739 0)
(2.23835 0.636461 0)
(2.22381 0.616672 0)
(2.21072 0.597091 0)
(2.2148 0.592116 0)
(2.22236 0.591608 0)
(2.23303 0.590826 0)
(2.24924 0.592077 0)
(2.26012 0.59136 0)
(2.26935 0.590899 0)
(2.27648 0.589883 0)
(2.28233 0.589125 0)
(2.28695 0.585355 0)
(2.28313 0.572067 0)
(2.26921 0.552611 0)
(2.26889 0.54545 0)
(2.27537 0.544366 0)
(2.28276 0.540451 0)
(2.29289 0.538936 0)
(2.30267 0.537034 0)
(2.31073 0.533631 0)
(2.31718 0.531538 0)
(2.32302 0.529497 0)
(2.32612 0.524139 0)
(2.32064 0.51094 0)
(2.31113 0.495281 0)
(2.31459 0.490395 0)
(2.32088 0.488585 0)
(2.32842 0.486572 0)
(2.33734 0.483768 0)
(2.34555 0.480233 0)
(2.35335 0.477721 0)
(2.36021 0.475614 0)
(2.36617 0.473306 0)
(2.37106 0.469802 0)
(2.37179 0.463456 0)
(2.36258 0.450363 0)
(2.3548 0.438799 0)
(2.35996 0.435209 0)
(2.36511 0.431272 0)
(2.37292 0.427868 0)
(2.38176 0.426025 0)
(2.38882 0.423022 0)
(2.39546 0.420055 0)
(2.4023 0.415871 0)
(2.40751 0.411006 0)
(2.41068 0.405629 0)
(2.40763 0.397863 0)
(2.39987 0.390159 0)
(2.40248 0.386803 0)
(2.40812 0.384572 0)
(2.41438 0.381199 0)
(2.42138 0.376992 0)
(2.42821 0.372752 0)
(2.43433 0.368965 0)
(2.43967 0.364796 0)
(2.44323 0.359108 0)
(2.4426 0.350552 0)
(2.43595 0.338438 0)
(2.43408 0.331411 0)
(2.43794 0.331344 0)
(2.44419 0.330212 0)
(2.45314 0.329167 0)
(2.45998 0.327535 0)
(2.46697 0.325552 0)
(2.47341 0.323008 0)
(2.47859 0.319224 0)
(2.48056 0.312315 0)
(2.47586 0.300196 0)
(2.46501 0.284136 0)
(2.46036 0.273658 0)
(2.46305 0.272865 0)
(2.46879 0.274702 0)
(2.48174 0.281089 0)
(2.49824 0.289842 0)
(2.5083 0.292503 0)
(2.51391 0.290826 0)
(2.52007 0.286531 0)
(2.52303 0.279765 0)
(2.51867 0.267558 0)
(2.5031 0.244627 0)
(2.48758 0.222368 0)
(2.48595 0.21291 0)
(2.4893 0.211735 0)
(2.49448 0.212054 0)
(2.50611 0.215965 0)
(2.52398 0.227091 0)
(2.54324 0.239396 0)
(2.55302 0.242761 0)
(2.55703 0.241494 0)
(2.5613 0.237252 0)
(2.56151 0.229418 0)
(2.5524 0.214372 0)
(2.53262 0.188213 0)
(2.51939 0.167972 0)
(2.52045 0.161607 0)
(2.524 0.16129 0)
(2.53043 0.16186 0)
(2.54312 0.166898 0)
(2.56072 0.178373 0)
(2.57476 0.186385 0)
(2.57906 0.186983 0)
(2.58411 0.185264 0)
(2.5878 0.181958 0)
(2.58799 0.175037 0)
(2.58017 0.161221 0)
(2.56554 0.140425 0)
(2.55798 0.126708 0)
(2.55982 0.123099 0)
(2.56306 0.123165 0)
(2.57136 0.124618 0)
(2.58489 0.13115 0)
(2.59886 0.138236 0)
(2.60445 0.139399 0)
(2.60829 0.137884 0)
(2.61189 0.134458 0)
(2.61174 0.127409 0)
(2.6034 0.113809 0)
(2.58932 0.0952489 0)
(2.58365 0.0846814 0)
(2.58562 0.0831642 0)
(2.58924 0.0835479 0)
(2.59836 0.0864716 0)
(2.61282 0.0949305 0)
(2.62623 0.101849 0)
(2.63039 0.102322 0)
(2.63403 0.100004 0)
(2.6361 0.0945427 0)
(2.63127 0.0832613 0)
(2.61678 0.063668 0)
(2.6052 0.0471904 0)
(2.60564 0.042384 0)
(2.60841 0.0422985 0)
(2.61554 0.0432253 0)
(2.62928 0.0499352 0)
(2.64603 0.0599121 0)
(2.65385 0.062892 0)
(2.65702 0.0619155 0)
(2.6602 0.0585669 0)
(2.65825 0.0508286 0)
(2.64484 0.0347568 0)
(2.62685 0.0150216 0)
(2.62207 0.00684817 0)
(2.62403 0.00650191 0)
(2.62847 0.00697142 0)
(2.63882 0.0111582 0)
(2.65622 0.0218361 0)
(2.67181 0.0300278 0)
(2.67584 0.0305709 0)
(2.67954 0.0287599 0)
(2.68171 0.0245986 0)
(2.67729 0.0150958 0)
(2.66144 -0.00274346 0)
(2.64682 -0.018233 0)
(2.64791 -0.0224462 0)
(2.64868 -0.0213269 0)
(2.6388 -0.039893 0)
(2.57828 -0.144899 0)
(2.40291 -0.40671 0)
(2.32871 -0.512032 0)
(2.27208 -0.548012 0)
(2.24377 -0.597009 0)
(2.1979 -0.641246 0)
(2.18423 -0.650998 0)
(2.19287 -0.646359 0)
(2.20684 -0.633409 0)
(2.22173 -0.624045 0)
(2.23313 -0.62409 0)
(2.24 -0.629049 0)
(2.24305 -0.632171 0)
(2.24665 -0.633557 0)
(2.24709 -0.633086 0)
(2.2453 -0.635496 0)
(2.24859 -0.640572 0)
(2.25242 -0.644601 0)
(2.25678 -0.646555 0)
(2.26385 -0.645224 0)
(2.27227 -0.640364 0)
(2.27746 -0.639079 0)
(2.28333 -0.641282 0)
(2.28588 -0.645947 0)
(2.28445 -0.653345 0)
(2.28028 -0.658772 0)
(2.28138 -0.659899 0)
(2.28466 -0.659945 0)
(2.28998 -0.659092 0)
(2.30083 -0.655139 0)
(2.3128 -0.650512 0)
(2.31786 -0.649985 0)
(2.32136 -0.652386 0)
(2.32131 -0.657933 0)
(2.31485 -0.66682 0)
(2.3121 -0.673012 0)
(2.31611 -0.67414 0)
(2.32067 -0.672173 0)
(2.32945 -0.667918 0)
(2.33943 -0.663367 0)
(2.33728 -0.670399 0)
(2.32046 -0.69245 0)
(2.26922 -0.750045 0)
(2.22914 -0.793429 0)
(2.1705 -0.838881 0)
(2.15542 -0.868678 0)
(2.16205 -0.867889 0)
(2.17501 -0.85942 0)
(2.18341 -0.854265 0)
(2.18798 -0.852997 0)
(2.19362 -0.855549 0)
(2.19717 -0.859839 0)
(2.19743 -0.864605 0)
(2.19679 -0.868906 0)
(2.20049 -0.870736 0)
(2.20495 -0.870605 0)
(2.21113 -0.868527 0)
(2.22056 -0.864814 0)
(2.22756 -0.862045 0)
(2.23114 -0.862933 0)
(2.23423 -0.864992 0)
(2.23528 -0.867145 0)
(2.23592 -0.868616 0)
(2.23917 -0.869368 0)
(2.24325 -0.870293 0)
(2.24779 -0.871157 0)
(2.25251 -0.872081 0)
(2.25685 -0.873364 0)
(2.26046 -0.874338 0)
(2.26198 -0.875279 0)
(2.26331 -0.876269 0)
(2.267 -0.876796 0)
(2.27096 -0.876342 0)
(2.27581 -0.874633 0)
(2.28282 -0.871812 0)
(2.28726 -0.870286 0)
(2.29157 -0.871771 0)
(2.29432 -0.874076 0)
(2.29436 -0.877166 0)
(2.29432 -0.878937 0)
(2.2977 -0.878976 0)
(2.30181 -0.878514 0)
(2.3064 -0.876576 0)
(2.31133 -0.873671 0)
(2.31502 -0.873395 0)
(2.31888 -0.874258 0)
(2.32127 -0.875437 0)
(2.32158 -0.877591 0)
(2.32355 -0.879638 0)
(2.32732 -0.880434 0)
(2.1864 0.704128 0)
(2.17404 0.684906 0)
(2.1622 0.665698 0)
(2.16588 0.660375 0)
(2.17313 0.659917 0)
(2.18373 0.658811 0)
(2.19997 0.660366 0)
(2.21325 0.66011 0)
(2.22092 0.658447 0)
(2.22871 0.657563 0)
(2.23514 0.655804 0)
(2.23713 0.648569 0)
(2.22595 0.631312 0)
(2.20876 0.608889 0)
(2.2095 0.60055 0)
(2.21646 0.600512 0)
(2.22584 0.599159 0)
(2.24134 0.600966 0)
(2.25603 0.601928 0)
(2.26458 0.601213 0)
(2.27336 0.600541 0)
(2.27957 0.599484 0)
(2.28433 0.59766 0)
(2.28379 0.588171 0)
(2.27044 0.56809 0)
(2.26446 0.553714 0)
(2.26957 0.552896 0)
(2.27782 0.54993 0)
(2.28553 0.546519 0)
(2.29602 0.545821 0)
(2.30574 0.543195 0)
(2.31292 0.540068 0)
(2.31892 0.538245 0)
(2.32347 0.535142 0)
(2.32221 0.525777 0)
(2.31177 0.509397 0)
(2.30991 0.499731 0)
(2.3163 0.497942 0)
(2.32326 0.495982 0)
(2.33151 0.494135 0)
(2.34072 0.491626 0)
(2.34825 0.488862 0)
(2.35585 0.486815 0)
(2.36245 0.484739 0)
(2.36799 0.48216 0)
(2.3713 0.477422 0)
(2.36713 0.465991 0)
(2.35424 0.449931 0)
(2.3546 0.443345 0)
(2.36048 0.441681 0)
(2.36626 0.436888 0)
(2.37424 0.433718 0)
(2.38312 0.432846 0)
(2.39071 0.430146 0)
(2.39702 0.427376 0)
(2.40322 0.423942 0)
(2.40778 0.419926 0)
(2.40977 0.414555 0)
(2.40531 0.406249 0)
(2.39876 0.397194 0)
(2.40228 0.392795 0)
(2.40839 0.390659 0)
(2.41504 0.387108 0)
(2.4221 0.382771 0)
(2.42901 0.378292 0)
(2.43456 0.374645 0)
(2.43883 0.370756 0)
(2.44006 0.363031 0)
(2.43517 0.352219 0)
(2.43146 0.343613 0)
(2.43654 0.34388 0)
(2.4419 0.343451 0)
(2.44883 0.340362 0)
(2.455 0.336332 0)
(2.46137 0.332953 0)
(2.46745 0.33013 0)
(2.47287 0.326781 0)
(2.47613 0.321225 0)
(2.47427 0.311249 0)
(2.46566 0.297635 0)
(2.46031 0.287239 0)
(2.46234 0.286043 0)
(2.46729 0.287392 0)
(2.47901 0.292151 0)
(2.49395 0.299081 0)
(2.50278 0.300547 0)
(2.50892 0.298753 0)
(2.51522 0.29465 0)
(2.51844 0.288016 0)
(2.51489 0.276385 0)
(2.50043 0.255029 0)
(2.48504 0.233777 0)
(2.48307 0.224542 0)
(2.48639 0.223739 0)
(2.49179 0.224551 0)
(2.50384 0.229191 0)
(2.52202 0.241025 0)
(2.54063 0.251834 0)
(2.54939 0.254018 0)
(2.55385 0.252101 0)
(2.55848 0.247416 0)
(2.55913 0.239606 0)
(2.55062 0.224854 0)
(2.53046 0.198616 0)
(2.51573 0.17763 0)
(2.51625 0.170954 0)
(2.51961 0.170605 0)
(2.52632 0.171182 0)
(2.53944 0.176599 0)
(2.55787 0.188827 0)
(2.57251 0.197417 0)
(2.57691 0.198155 0)
(2.58211 0.196597 0)
(2.58586 0.193357 0)
(2.58581 0.186205 0)
(2.57756 0.171943 0)
(2.56247 0.150673 0)
(2.55489 0.136585 0)
(2.5568 0.132787 0)
(2.55999 0.132808 0)
(2.56819 0.134227 0)
(2.58177 0.140936 0)
(2.59631 0.148572 0)
(2.60253 0.149998 0)
(2.60619 0.148657 0)
(2.60988 0.145222 0)
(2.60989 0.138069 0)
(2.60182 0.124452 0)
(2.58773 0.105335 0)
(2.58166 0.0940474 0)
(2.58356 0.0920947 0)
(2.58697 0.0925931 0)
(2.59579 0.0953924 0)
(2.60995 0.103871 0)
(2.62381 0.111649 0)
(2.62863 0.112621 0)
(2.63199 0.110761 0)
(2.63425 0.105672 0)
(2.62977 0.0947446 0)
(2.61542 0.0752242 0)
(2.60287 0.0574736 0)
(2.60275 0.0515878 0)
(2.60533 0.0513383 0)
(2.61195 0.0518931 0)
(2.62516 0.0578682 0)
(2.64256 0.0683481 0)
(2.65201 0.0724318 0)
(2.65506 0.0718105 0)
(2.65835 0.0687651 0)
(2.65731 0.0616723 0)
(2.64542 0.0465436 0)
(2.62689 0.0258013 0)
(2.62036 0.0158636 0)
(2.62212 0.0149675 0)
(2.62588 0.0152721 0)
(2.63538 0.0185987 0)
(2.65185 0.0286625 0)
(2.66884 0.0383496 0)
(2.67444 0.0397702 0)
(2.6776 0.0382725 0)
(2.68031 0.0346253 0)
(2.67759 0.0265444 0)
(2.66333 0.0101547 0)
(2.64728 -0.00832976 0)
(2.64563 -0.0144891 0)
(2.64525 -0.0161164 0)
(2.62564 -0.052562 0)
(2.55076 -0.182104 0)
(2.41405 -0.371071 0)
(2.26229 -0.572445 0)
(2.22612 -0.596978 0)
(2.2216 -0.589221 0)
(2.22566 -0.593206 0)
(2.2159 -0.616614 0)
(2.20282 -0.635443 0)
(2.20318 -0.637667 0)
(2.21012 -0.634006 0)
(2.22765 -0.624822 0)
(2.24075 -0.618379 0)
(2.24612 -0.619517 0)
(2.24986 -0.624276 0)
(2.24972 -0.629906 0)
(2.24565 -0.63452 0)
(2.24462 -0.634525 0)
(2.24831 -0.633019 0)
(2.25237 -0.632447 0)
(2.26055 -0.631882 0)
(2.27212 -0.630101 0)
(2.27835 -0.629878 0)
(2.2837 -0.632004 0)
(2.28656 -0.635547 0)
(2.28414 -0.642463 0)
(2.27966 -0.652089 0)
(2.28184 -0.656742 0)
(2.28564 -0.657273 0)
(2.29113 -0.655626 0)
(2.30094 -0.650471 0)
(2.31202 -0.643342 0)
(2.3178 -0.641257 0)
(2.32106 -0.643452 0)
(2.32196 -0.649604 0)
(2.31764 -0.658057 0)
(2.31256 -0.662843 0)
(2.31532 -0.662226 0)
(2.31995 -0.661212 0)
(2.32706 -0.659096 0)
(2.33792 -0.655645 0)
(2.33906 -0.661408 0)
(2.32239 -0.682856 0)
(2.27677 -0.733907 0)
(2.23407 -0.781815 0)
(2.16823 -0.833375 0)
(2.15422 -0.855971 0)
(2.16026 -0.856041 0)
(2.17336 -0.852924 0)
(2.18271 -0.849561 0)
(2.18779 -0.84732 0)
(2.19351 -0.848026 0)
(2.19747 -0.8516 0)
(2.19817 -0.856926 0)
(2.19771 -0.861615 0)
(2.20108 -0.863242 0)
(2.20545 -0.863454 0)
(2.21076 -0.862355 0)
(2.21941 -0.859924 0)
(2.22772 -0.856408 0)
(2.23157 -0.85611 0)
(2.23531 -0.857415 0)
(2.23679 -0.859038 0)
(2.23653 -0.861465 0)
(2.2391 -0.863159 0)
(2.24308 -0.863876 0)
(2.24759 -0.864022 0)
(2.25221 -0.864231 0)
(2.25646 -0.865489 0)
(2.2603 -0.867085 0)
(2.2627 -0.869324 0)
(2.26391 -0.871273 0)
(2.267 -0.871558 0)
(2.27103 -0.871054 0)
(2.27568 -0.869438 0)
(2.28218 -0.866662 0)
(2.28704 -0.864346 0)
(2.29139 -0.865439 0)
(2.29488 -0.866923 0)
(2.29551 -0.868824 0)
(2.29473 -0.871327 0)
(2.29774 -0.872632 0)
(2.30148 -0.872699 0)
(2.30593 -0.871052 0)
(2.31136 -0.868041 0)
(2.31511 -0.866975 0)
(2.31931 -0.867629 0)
(2.32165 -0.868589 0)
(2.32201 -0.870195 0)
(2.32256 -0.871424 0)
(2.32613 -0.871849 0)
(2.33021 -0.872307 0)
(2.17472 0.699021 0)
(2.16024 0.678038 0)
(2.16128 0.669701 0)
(2.16794 0.669692 0)
(2.1774 0.668318 0)
(2.19263 0.669662 0)
(2.20799 0.670376 0)
(2.21624 0.668385 0)
(2.2243 0.667134 0)
(2.23109 0.665557 0)
(2.23491 0.660023 0)
(2.22757 0.645328 0)
(2.20877 0.6216 0)
(2.20477 0.609482 0)
(2.21106 0.609261 0)
(2.21948 0.608004 0)
(2.23285 0.608994 0)
(2.25062 0.612196 0)
(2.26004 0.611515 0)
(2.26899 0.611303 0)
(2.27657 0.610081 0)
(2.28195 0.608427 0)
(2.28306 0.602421 0)
(2.27254 0.585198 0)
(2.26017 0.565179 0)
(2.26412 0.560279 0)
(2.2711 0.558944 0)
(2.2808 0.555731 0)
(2.28898 0.553296 0)
(2.29955 0.552522 0)
(2.30851 0.5494 0)
(2.31489 0.546958 0)
(2.32007 0.544934 0)
(2.32193 0.539162 0)
(2.31461 0.524721 0)
(2.30652 0.510309 0)
(2.31162 0.507252 0)
(2.31825 0.50541 0)
(2.32616 0.50371 0)
(2.33531 0.501995 0)
(2.34356 0.499519 0)
(2.35107 0.497488 0)
(2.35837 0.495447 0)
(2.36454 0.493151 0)
(2.36901 0.489811 0)
(2.36862 0.481237 0)
(2.3571 0.464591 0)
(2.34973 0.45126 0)
(2.35483 0.449925 0)
(2.36173 0.44788 0)
(2.36877 0.443263 0)
(2.37641 0.440998 0)
(2.38539 0.440564 0)
(2.39333 0.438153 0)
(2.39917 0.435944 0)
(2.4046 0.43355 0)
(2.40819 0.430031 0)
(2.40735 0.422971 0)
(2.39965 0.410841 0)
(2.39714 0.401881 0)
(2.40225 0.398731 0)
(2.40859 0.396227 0)
(2.41578 0.392333 0)
(2.42274 0.388463 0)
(2.42979 0.384105 0)
(2.43497 0.380185 0)
(2.43817 0.376634 0)
(2.43683 0.367672 0)
(2.43131 0.356296 0)
(2.43258 0.354541 0)
(2.43777 0.353925 0)
(2.44457 0.351993 0)
(2.45086 0.347788 0)
(2.45624 0.342842 0)
(2.46153 0.338505 0)
(2.46663 0.334538 0)
(2.47077 0.329848 0)
(2.47129 0.322129 0)
(2.46556 0.310358 0)
(2.46025 0.30051 0)
(2.46238 0.299403 0)
(2.46667 0.30071 0)
(2.47672 0.303679 0)
(2.48959 0.307414 0)
(2.49688 0.307641 0)