/*--------------------------------*- C++ -*----------------------------------*\
  =========                 |
  \\      /  F ield         | OpenFOAM: The Open Source CFD Toolbox
   \\    /   O peration     | Website:  https://openfoam.org
    \\  /    A nd           | Version:  7
     \\/     M anipulation  |
\*---------------------------------------------------------------------------*/
FoamFile
{
    version     2.0;
    format      ascii;
    class       volVectorField;
    location    "1.8";
    object      U;
}
// * * * * * * * * * * * * * * * * * * * * * * * * * * * * * * * * * * * * * //

dimensions      [0 1 -1 0 0 0 0];

internalField   nonuniform List<vector> 
4128
(
(2.20696 0.687333 0)
(2.20229 0.673834 0)
(2.18794 0.653839 0)
(2.18512 0.634107 0)
(2.19845 0.633425 0)
(2.22001 0.622833 0)
(2.23869 0.610427 0)
(2.24967 0.610085 0)
(2.25911 0.608388 0)
(2.27404 0.601686 0)
(2.29052 0.587839 0)
(2.30213 0.576129 0)
(2.30599 0.567895 0)
(2.30036 0.552983 0)
(2.29036 0.527632 0)
(2.29934 0.515434 0)
(2.31507 0.507567 0)
(2.32724 0.5005 0)
(2.33771 0.497583 0)
(2.3486 0.494469 0)
(2.36144 0.485742 0)
(2.37174 0.467226 0)
(2.37529 0.447018 0)
(2.37738 0.437027 0)
(2.38288 0.432998 0)
(2.39043 0.430148 0)
(2.39931 0.425429 0)
(2.40864 0.414403 0)
(2.41255 0.399417 0)
(2.40855 0.384468 0)
(2.41262 0.370991 0)
(2.42628 0.364455 0)
(2.43639 0.359095 0)
(2.4481 0.353721 0)
(2.46036 0.347952 0)
(2.47144 0.341767 0)
(2.48076 0.334134 0)
(2.48489 0.325665 0)
(2.47873 0.309897 0)
(2.46567 0.284125 0)
(2.47134 0.274749 0)
(2.48114 0.272707 0)
(2.49057 0.267442 0)
(2.5029 0.262595 0)
(2.51712 0.259504 0)
(2.52948 0.254091 0)
(2.53831 0.251044 0)
(2.54804 0.248167 0)
(2.55765 0.242299 0)
(2.56035 0.230637 0)
(2.54745 0.209251 0)
(2.52946 0.189824 0)
(2.52906 0.177702 0)
(2.54047 0.171851 0)
(2.54991 0.169098 0)
(2.56114 0.164715 0)
(2.56877 0.157579 0)
(2.58137 0.15383 0)
(2.59262 0.150198 0)
(2.60079 0.148151 0)
(2.60884 0.146044 0)
(2.61367 0.140563 0)
(2.60829 0.125085 0)
(2.59066 0.101101 0)
(2.58692 0.0873783 0)
(2.59461 0.0856838 0)
(2.60318 0.0825593 0)
(2.61603 0.0789201 0)
(2.62617 0.0754578 0)
(2.63516 0.0743856 0)
(2.64425 0.0728697 0)
(2.65193 0.0708009 0)
(2.65871 0.0669266 0)
(2.65908 0.05841 0)
(2.64515 0.0404915 0)
(2.63209 0.0245771 0)
(2.63778 0.0214484 0)
(2.64409 0.0197442 0)
(2.65095 0.0174955 0)
(2.66211 0.0138832 0)
(2.67215 0.00747731 0)
(2.67613 0.00411544 0)
(2.68322 -0.00160996 0)
(2.69084 -0.00858414 0)
(2.69301 -0.0174835 0)
(2.681 -0.0319147 0)
(2.6757 -0.0437886 0)
(2.67748 -0.0453626 0)
(2.67863 -0.0506513 0)
(2.65601 -0.101781 0)
(2.58219 -0.233108 0)
(2.45201 -0.451418 0)
(2.31302 -0.65112 0)
(2.29193 -0.629259 0)
(2.29086 -0.643748 0)
(2.28884 -0.658598 0)
(2.28527 -0.68253 0)
(2.28216 -0.699792 0)
(2.2915 -0.702227 0)
(2.30396 -0.694727 0)
(2.31855 -0.68516 0)
(2.33617 -0.680162 0)
(2.34729 -0.675158 0)
(2.35456 -0.677147 0)
(2.36431 -0.684681 0)
(2.37135 -0.692674 0)
(2.37386 -0.696799 0)
(2.36909 -0.698194 0)
(2.36738 -0.701508 0)
(2.37458 -0.704024 0)
(2.38248 -0.705845 0)
(2.39125 -0.707549 0)
(2.40017 -0.706707 0)
(2.40985 -0.702643 0)
(2.41812 -0.7039 0)
(2.42259 -0.708392 0)
(2.4206 -0.717652 0)
(2.41035 -0.73835 0)
(2.38603 -0.771674 0)
(2.35491 -0.809743 0)
(2.29713 -0.882966 0)
(2.28569 -0.906874 0)
(2.28922 -0.900427 0)
(2.29186 -0.907278 0)
(2.29604 -0.909459 0)
(2.30356 -0.912462 0)
(2.31065 -0.912434 0)
(2.31559 -0.911876 0)
(2.32302 -0.909296 0)
(2.20075 0.691457 0)
(2.18415 0.677068 0)
(2.17751 0.655564 0)
(2.18869 0.650509 0)
(2.20789 0.644199 0)
(2.22956 0.628435 0)
(2.24396 0.626313 0)
(2.25138 0.628993 0)
(2.26139 0.625555 0)
(2.27746 0.61489 0)
(2.29239 0.598938 0)
(2.30029 0.588337 0)
(2.2987 0.577571 0)
(2.2888 0.554314 0)
(2.29028 0.535055 0)
(2.30587 0.528548 0)
(2.31783 0.522819 0)
(2.32764 0.520494 0)
(2.3381 0.51699 0)
(2.35111 0.509119 0)
(2.36373 0.494008 0)
(2.37106 0.471917 0)
(2.37292 0.456873 0)
(2.37567 0.452877 0)
(2.38321 0.449187 0)
(2.39245 0.445236 0)
(2.40225 0.439924 0)
(2.41023 0.427626 0)
(2.41029 0.411326 0)
(2.40584 0.395415 0)
(2.41479 0.385095 0)
(2.4278 0.37938 0)
(2.43757 0.373915 0)
(2.44965 0.368155 0)
(2.46284 0.361883 0)
(2.47428 0.355028 0)
(2.48207 0.346893 0)
(2.48162 0.337044 0)
(2.46857 0.317162 0)
(2.46236 0.295116 0)
(2.4725 0.292281 0)
(2.48249 0.289521 0)
(2.49205 0.283202 0)
(2.50646 0.278536 0)
(2.52142 0.27386 0)
(2.53247 0.26892 0)
(2.54175 0.266735 0)
(2.55188 0.263046 0)
(2.55912 0.254333 0)
(2.55268 0.235295 0)
(2.53105 0.211759 0)
(2.52326 0.199488 0)
(2.53194 0.193166 0)
(2.543 0.189713 0)
(2.55327 0.186071 0)
(2.56566 0.180456 0)
(2.57414 0.17452 0)
(2.58663 0.170769 0)
(2.59563 0.166797 0)
(2.6032 0.164337 0)
(2.60919 0.16023 0)
(2.60745 0.148106 0)
(2.59136 0.12455 0)
(2.58119 0.1068 0)
(2.58779 0.104374 0)
(2.59606 0.10225 0)
(2.60661 0.0998385 0)
(2.62132 0.0962246 0)
(2.62835 0.0925162 0)
(2.63805 0.0908218 0)
(2.64689 0.0886375 0)
(2.65447 0.0854068 0)
(2.65805 0.0786144 0)
(2.64929 0.0637165 0)
(2.63059 0.0444411 0)
(2.63089 0.0373612 0)
(2.63805 0.0362334 0)
(2.64606 0.0342246 0)
(2.65526 0.0328576 0)
(2.66763 0.0292736 0)
(2.67457 0.0233615 0)
(2.67859 0.018735 0)
(2.68495 0.0121462 0)
(2.68984 0.00378592 0)
(2.68448 -0.00900817 0)
(2.6746 -0.0256979 0)
(2.67337 -0.0308023 0)
(2.66853 -0.0422626 0)
(2.62659 -0.115409 0)
(2.53291 -0.283797 0)
(2.38596 -0.503296 0)
(2.34943 -0.590671 0)
(2.28629 -0.646113 0)
(2.27906 -0.650538 0)
(2.28382 -0.647821 0)
(2.28834 -0.660339 0)
(2.2898 -0.669275 0)
(2.29181 -0.674299 0)
(2.29815 -0.673476 0)
(2.31027 -0.667455 0)
(2.32917 -0.662726 0)
(2.34641 -0.662763 0)
(2.35472 -0.664458 0)
(2.36351 -0.667204 0)
(2.37165 -0.670236 0)
(2.37793 -0.674831 0)
(2.37978 -0.682656 0)
(2.37552 -0.690832 0)
(2.37655 -0.693602 0)
(2.3842 -0.694068 0)
(2.39235 -0.694362 0)
(2.40089 -0.6928 0)
(2.41068 -0.688325 0)
(2.42028 -0.688884 0)
(2.42529 -0.692928 0)
(2.42358 -0.700962 0)
(2.41052 -0.721718 0)
(2.39169 -0.750158 0)
(2.34549 -0.801132 0)
(2.29392 -0.865912 0)
(2.29091 -0.873743 0)
(2.28466 -0.896035 0)
(2.28717 -0.900951 0)
(2.29613 -0.898979 0)
(2.30617 -0.895337 0)
(2.31365 -0.89823 0)
(2.31983 -0.899034 0)
(2.32425 -0.897544 0)
(2.33083 -0.894092 0)
(2.18422 0.698142 0)
(2.16964 0.6818 0)
(2.17804 0.672966 0)
(2.19477 0.669353 0)
(2.21977 0.650351 0)
(2.23615 0.63973 0)
(2.247 0.644319 0)
(2.25234 0.646375 0)
(2.2648 0.63976 0)
(2.2805 0.624405 0)
(2.29188 0.608311 0)
(2.29358 0.598028 0)
(2.28673 0.580807 0)
(2.28334 0.556263 0)
(2.29789 0.546816 0)
(2.30912 0.542927 0)
(2.31886 0.541298 0)
(2.32762 0.539476 0)
(2.3403 0.532425 0)
(2.35378 0.518758 0)
(2.36287 0.49953 0)
(2.36684 0.479938 0)
(2.36896 0.472707 0)
(2.37469 0.470017 0)
(2.3857 0.465159 0)
(2.39651 0.45922 0)
(2.40619 0.452635 0)
(2.4104 0.438331 0)
(2.40634 0.420279 0)
(2.40473 0.407018 0)
(2.41578 0.400161 0)
(2.42809 0.395094 0)
(2.43865 0.389148 0)
(2.45167 0.382432 0)
(2.46562 0.375101 0)
(2.47718 0.367122 0)
(2.48263 0.358024 0)
(2.476 0.34642 0)
(2.46008 0.325647 0)
(2.46297 0.311398 0)
(2.47276 0.310458 0)
(2.48299 0.306392 0)
(2.49443 0.299127 0)
(2.51013 0.293764 0)
(2.52474 0.287708 0)
(2.53448 0.28403 0)
(2.54429 0.281413 0)
(2.55371 0.275794 0)
(2.55505 0.261792 0)
(2.53663 0.236546 0)
(2.52085 0.218563 0)
(2.52491 0.213386 0)
(2.53615 0.209888 0)
(2.54667 0.206362 0)
(2.55958 0.202199 0)
(2.56899 0.196351 0)
(2.57974 0.192254 0)
(2.5909 0.187796 0)
(2.59848 0.183542 0)
(2.60487 0.179268 0)
(2.60604 0.170045 0)
(2.59348 0.148655 0)
(2.57752 0.126469 0)
(2.58132 0.121565 0)
(2.58929 0.120496 0)
(2.59902 0.11908 0)
(2.61211 0.117667 0)
(2.62529 0.113292 0)
(2.63113 0.110278 0)
(2.6412 0.107196 0)
(2.6498 0.103628 0)
(2.65558 0.0978614 0)
(2.65193 0.0859242 0)
(2.63337 0.065824 0)
(2.62481 0.0537038 0)
(2.63135 0.0523254 0)
(2.63933 0.0501193 0)
(2.64951 0.0486463 0)
(2.66144 0.0479819 0)
(2.67214 0.0439001 0)
(2.67702 0.0383224 0)
(2.68209 0.0330769 0)
(2.68705 0.0260272 0)
(2.68652 0.0152511 0)
(2.67628 -0.00381773 0)
(2.66843 -0.0193208 0)
(2.65821 -0.0403083 0)
(2.59752 -0.138344 0)
(2.45327 -0.357014 0)
(2.37811 -0.48974 0)
(2.30265 -0.62806 0)
(2.2794 -0.653324 0)
(2.27939 -0.649287 0)
(2.28286 -0.636239 0)
(2.29072 -0.632183 0)
(2.29594 -0.646409 0)
(2.30023 -0.657962 0)
(2.30345 -0.658779 0)
(2.30887 -0.658128 0)
(2.32358 -0.65575 0)
(2.34092 -0.650041 0)
(2.35067 -0.64905 0)
(2.36153 -0.651158 0)
(2.37054 -0.65431 0)
(2.37798 -0.65914 0)
(2.38254 -0.666422 0)
(2.38268 -0.674252 0)
(2.38135 -0.67816 0)
(2.3857 -0.678247 0)
(2.39387 -0.67813 0)
(2.40232 -0.678175 0)
(2.41118 -0.677059 0)
(2.42169 -0.675285 0)
(2.42934 -0.678169 0)
(2.42922 -0.684991 0)
(2.41623 -0.702757 0)
(2.39301 -0.736045 0)
(2.34298 -0.793075 0)
(2.30932 -0.830151 0)
(2.28178 -0.866346 0)
(2.27691 -0.889377 0)
(2.29138 -0.885637 0)
(2.29731 -0.883035 0)
(2.30703 -0.880479 0)
(2.31737 -0.88198 0)
(2.32409 -0.884999 0)
(2.32685 -0.882753 0)
(2.33159 -0.882057 0)
(2.33876 -0.884601 0)
(2.16824 0.702227 0)
(2.1692 0.690151 0)
(2.18432 0.689839 0)
(2.20875 0.675787 0)
(2.22713 0.658832 0)
(2.23971 0.65931 0)
(2.24471 0.665729 0)
(2.25273 0.66344 0)
(2.2686 0.649853 0)
(2.28252 0.628661 0)
(2.28801 0.613254 0)
(2.28335 0.602096 0)
(2.27696 0.582164 0)
(2.28786 0.56926 0)
(2.30017 0.564306 0)
(2.30994 0.561575 0)
(2.31897 0.559404 0)
(2.33029 0.553644 0)
(2.3441 0.541211 0)
(2.35343 0.524676 0)
(2.35771 0.505887 0)
(2.36121 0.493264 0)
(2.36615 0.490058 0)
(2.3762 0.486866 0)
(2.38915 0.480809 0)
(2.40064 0.472815 0)
(2.40841 0.463927 0)
(2.40661 0.446343 0)
(2.40164 0.42904 0)
(2.40479 0.420651 0)
(2.4157 0.415548 0)
(2.42811 0.410786 0)
(2.44029 0.404398 0)
(2.45452 0.396432 0)
(2.46856 0.387581 0)
(2.47916 0.378701 0)
(2.48068 0.368813 0)
(2.46811 0.355736 0)
(2.45558 0.337516 0)
(2.46384 0.328947 0)
(2.4735 0.327501 0)
(2.48428 0.322123 0)
(2.4976 0.314613 0)
(2.51381 0.307658 0)
(2.52618 0.301659 0)
(2.53585 0.298532 0)
(2.54542 0.294504 0)
(2.55175 0.285272 0)
(2.54335 0.263987 0)
(2.52094 0.240539 0)
(2.52045 0.232964 0)
(2.5284 0.229694 0)
(2.54067 0.226694 0)
(2.55145 0.222546 0)
(2.56586 0.217075 0)
(2.57265 0.213088 0)
(2.58476 0.209346 0)
(2.59432 0.20427 0)
(2.601 0.199265 0)
(2.60411 0.19163 0)
(2.59627 0.173525 0)
(2.57733 0.148544 0)
(2.57543 0.138256 0)
(2.58283 0.13744 0)
(2.59227 0.136413 0)
(2.60311 0.136471 0)
(2.61755 0.135242 0)
(2.62742 0.130806 0)
(2.63463 0.127221 0)
(2.64452 0.12308 0)
(2.65207 0.117317 0)
(2.65269 0.107219 0)
(2.63853 0.0884485 0)
(2.62178 0.071363 0)
(2.6253 0.0678966 0)
(2.63231 0.0663051 0)
(2.64292 0.0643114 0)
(2.65455 0.0635618 0)
(2.66592 0.062498 0)
(2.67528 0.0581409 0)
(2.68086 0.0528715 0)
(2.68612 0.0475229 0)
(2.68745 0.0397199 0)
(2.67974 0.0234304 0)
(2.66523 -0.00971904 0)
(2.63383 -0.0562149 0)
(2.56232 -0.173759 0)
(2.41626 -0.40248 0)
(2.30228 -0.592251 0)
(2.29729 -0.576885 0)
(2.29479 -0.600241 0)
(2.29086 -0.611195 0)
(2.28999 -0.622442 0)
(2.29137 -0.629634 0)
(2.29379 -0.634732 0)
(2.29587 -0.633907 0)
(2.30089 -0.631068 0)
(2.30828 -0.630459 0)
(2.31836 -0.631447 0)
(2.33387 -0.634753 0)
(2.34967 -0.63765 0)
(2.35765 -0.639327 0)
(2.36752 -0.640111 0)
(2.37536 -0.639942 0)
(2.38104 -0.641812 0)
(2.38353 -0.647474 0)
(2.38258 -0.657358 0)
(2.38637 -0.666253 0)
(2.39479 -0.66905 0)
(2.40307 -0.669498 0)
(2.41169 -0.667186 0)
(2.4225 -0.662626 0)
(2.43097 -0.663502 0)
(2.43349 -0.670535 0)
(2.42176 -0.688398 0)
(2.39378 -0.728212 0)
(2.35081 -0.778639 0)
(2.31341 -0.81637 0)
(2.27637 -0.859368 0)
(2.27706 -0.880034 0)
(2.28871 -0.873503 0)
(2.30031 -0.86787 0)
(2.30827 -0.865306 0)
(2.31905 -0.865813 0)
(2.32746 -0.86786 0)
(2.32946 -0.869914 0)
(2.33071 -0.873765 0)
(2.33761 -0.873165 0)
(2.34624 -0.869075 0)
(2.16221 0.709158 0)
(2.17637 0.707939 0)
(2.1973 0.69998 0)
(2.21972 0.680955 0)
(2.23289 0.67467 0)
(2.23846 0.682306 0)
(2.24132 0.685018 0)
(2.25483 0.675921 0)
(2.27086 0.654862 0)
(2.28012 0.631358 0)
(2.27948 0.616707 0)
(2.27379 0.603953 0)
(2.27788 0.590129 0)
(2.29162 0.585096 0)
(2.30161 0.581888 0)
(2.31035 0.579478 0)
(2.32113 0.574433 0)
(2.33487 0.562927 0)
(2.34509 0.54692 0)
(2.34831 0.529915 0)
(2.35117 0.515586 0)
(2.3569 0.509708 0)
(2.3662 0.506817 0)
(2.37888 0.502735 0)
(2.39279 0.494396 0)
(2.40409 0.484488 0)
(2.40748 0.471997 0)
(2.39923 0.452901 0)
(2.39754 0.440626 0)
(2.40415 0.435573 0)
(2.41554 0.431002 0)
(2.42906 0.425842 0)
(2.4429 0.418487 0)
(2.45799 0.40938 0)
(2.47128 0.399322 0)
(2.47911 0.390136 0)
(2.47534 0.379923 0)
(2.4597 0.366371 0)
(2.45381 0.351552 0)
(2.4643 0.34629 0)
(2.47486 0.343574 0)
(2.48701 0.336976 0)
(2.50149 0.328804 0)
(2.51644 0.320692 0)
(2.52728 0.315478 0)
(2.53652 0.312179 0)
(2.54442 0.305858 0)
(2.54402 0.290592 0)
(2.5256 0.26573 0)
(2.51574 0.252803 0)
(2.52239 0.250418 0)
(2.53277 0.246295 0)
(2.54544 0.24232 0)
(2.55814 0.237785 0)
(2.56955 0.232433 0)
(2.57746 0.228787 0)
(2.58916 0.224781 0)
(2.59734 0.220006 0)
(2.60206 0.213067 0)
(2.59836 0.198718 0)
(2.58076 0.173591 0)
(2.57202 0.157002 0)
(2.57785 0.155723 0)
(2.58552 0.154042 0)
(2.59621 0.153761 0)
(2.60812 0.153712 0)
(2.62192 0.150824 0)
(2.62881 0.14709 0)
(2.63839 0.143256 0)
(2.64744 0.137938 0)
(2.65163 0.12899 0)
(2.64319 0.112042 0)
(2.62303 0.091629 0)
(2.62022 0.0839377 0)
(2.62588 0.0826511 0)
(2.6348 0.080016 0)
(2.64928 0.0791518 0)
(2.65785 0.0781485 0)
(2.66954 0.0764894 0)
(2.67874 0.071904 0)
(2.68523 0.0674751 0)
(2.68785 0.0616547 0)
(2.68315 0.0506397 0)
(2.65718 -0.00178372 0)
(2.62237 -0.0629721 0)
(2.49876 -0.239697 0)
(2.35531 -0.458517 0)
(2.32552 -0.523512 0)
(2.28786 -0.610646 0)
(2.27223 -0.615132 0)
(2.27487 -0.608628 0)
(2.28032 -0.603111 0)
(2.28811 -0.604412 0)
(2.29632 -0.613663 0)
(2.30023 -0.623267 0)
(2.30436 -0.627282 0)
(2.31214 -0.627905 0)
(2.32096 -0.628262 0)
(2.33215 -0.626643 0)
(2.34775 -0.622464 0)
(2.35718 -0.61972 0)
(2.36545 -0.621783 0)
(2.3739 -0.623776 0)
(2.38097 -0.625854 0)
(2.38386 -0.631704 0)
(2.38277 -0.641539 0)
(2.38355 -0.647598 0)
(2.39166 -0.64903 0)
(2.40052 -0.649467 0)
(2.4096 -0.647573 0)
(2.4219 -0.645203 0)
(2.43221 -0.64666 0)
(2.43436 -0.65438 0)
(2.42471 -0.671522 0)
(2.39471 -0.712976 0)
(2.36014 -0.757313 0)
(2.31215 -0.804511 0)
(2.27518 -0.855051 0)
(2.27775 -0.861724 0)
(2.28985 -0.858518 0)
(2.30209 -0.853921 0)
(2.31027 -0.849898 0)
(2.32074 -0.84875 0)
(2.32919 -0.853033 0)
(2.33201 -0.858431 0)
(2.33155 -0.859337 0)
(2.33759 -0.857212 0)
(2.3448 -0.856907 0)
(2.35501 -0.856327 0)
(2.17 0.724161 0)
(2.18906 0.719035 0)
(2.21296 0.701627 0)
(2.22767 0.691001 0)
(2.23515 0.696141 0)
(2.23323 0.704777 0)
(2.24062 0.699891 0)
(2.2575 0.680553 0)
(2.27076 0.652773 0)
(2.27504 0.630605 0)
(2.27264 0.618645 0)
(2.27162 0.610721 0)
(2.28182 0.606857 0)
(2.29226 0.603915 0)
(2.3011 0.600952 0)
(2.31194 0.59562 0)
(2.32579 0.584887 0)
(2.33752 0.567947 0)
(2.34112 0.550927 0)
(2.34077 0.537595 0)
(2.3467 0.529725 0)
(2.35625 0.526552 0)
(2.36777 0.52317 0)
(2.38224 0.515852 0)
(2.39632 0.505199 0)
(2.40528 0.493527 0)
(2.40114 0.478685 0)
(2.3904 0.46196 0)
(2.39431 0.454481 0)
(2.40333 0.450476 0)
(2.41612 0.446339 0)
(2.43134 0.439759 0)
(2.44637 0.430377 0)
(2.46078 0.421462 0)
(2.47214 0.412093 0)
(2.47563 0.403162 0)
(2.4665 0.392041 0)
(2.45243 0.377889 0)
(2.45381 0.36583 0)
(2.46538 0.362048 0)
(2.47775 0.357661 0)
(2.49114 0.34988 0)
(2.5054 0.34159 0)
(2.5186 0.333673 0)
(2.52832 0.328899 0)
(2.53619 0.324854 0)
(2.53999 0.314891 0)
(2.52985 0.293232 0)
(2.51344 0.272473 0)
(2.51771 0.26976 0)
(2.52527 0.26699 0)
(2.53787 0.261553 0)
(2.55028 0.257635 0)
(2.564 0.252991 0)
(2.57167 0.248115 0)
(2.58235 0.244287 0)
(2.59246 0.239778 0)
(2.59925 0.233965 0)
(2.59917 0.222361 0)
(2.58573 0.199559 0)
(2.57115 0.177897 0)
(2.57538 0.174472 0)
(2.58147 0.173514 0)
(2.59041 0.171488 0)
(2.60148 0.170919 0)
(2.61315 0.169552 0)
(2.62386 0.165503 0)
(2.63156 0.16282 0)
(2.6413 0.158534 0)
(2.64846 0.15143 0)
(2.64614 0.137066 0)
(2.62767 0.114603 0)
(2.61689 0.100952 0)
(2.62153 0.0997338 0)
(2.6276 0.0967649 0)
(2.64042 0.0943253 0)
(2.65206 0.0939694 0)
(2.66146 0.0931027 0)
(2.67362 0.0904414 0)
(2.68263 0.0866243 0)
(2.68676 0.0823466 0)
(2.68077 0.068039 0)
(2.65565 0.0129431 0)
(2.57764 -0.105892 0)
(2.47113 -0.260011 0)
(2.31876 -0.484803 0)
(2.26183 -0.61354 0)
(2.26351 -0.601842 0)
(2.28327 -0.583308 0)
(2.28725 -0.582675 0)
(2.2932 -0.581904 0)
(2.29745 -0.582666 0)
(2.30123 -0.59416 0)
(2.30238 -0.607565 0)
(2.30414 -0.611875 0)
(2.31137 -0.609541 0)
(2.32158 -0.605779 0)
(2.33397 -0.604816 0)
(2.34548 -0.605593 0)
(2.35809 -0.606716 0)
(2.36638 -0.60741 0)
(2.37495 -0.60915 0)
(2.38206 -0.610743 0)
(2.38528 -0.613639 0)
(2.38107 -0.619846 0)
(2.37843 -0.628847 0)
(2.38707 -0.63366 0)
(2.39581 -0.635379 0)
(2.40488 -0.6352 0)
(2.41863 -0.632545 0)
(2.43186 -0.631934 0)
(2.43601 -0.638652 0)
(2.4268 -0.656459 0)
(2.39451 -0.697173 0)
(2.36325 -0.742772 0)
(2.30377 -0.802924 0)
(2.28079 -0.834728 0)
(2.28076 -0.844352 0)
(2.29044 -0.846486 0)
(2.30111 -0.842705 0)
(2.31031 -0.83815 0)
(2.3211 -0.835464 0)
(2.33089 -0.837533 0)
(2.33498 -0.840531 0)
(2.33297 -0.841416 0)
(2.33741 -0.843816 0)
(2.34449 -0.844699 0)
(2.35331 -0.842828 0)
(2.36639 -0.839165 0)
(2.18334 0.737947 0)
(2.20553 0.722996 0)
(2.22088 0.710369 0)
(2.22859 0.710597 0)
(2.22594 0.722498 0)
(2.22591 0.723324 0)
(2.24175 0.706804 0)
(2.25829 0.676456 0)
(2.26763 0.64834 0)
(2.26874 0.632709 0)
(2.26817 0.628817 0)
(2.273 0.629079 0)
(2.28298 0.627345 0)
(2.29224 0.623314 0)
(2.30256 0.616888 0)
(2.31628 0.606264 0)
(2.32892 0.59005 0)
(2.33449 0.570883 0)
(2.33336 0.557575 0)
(2.33612 0.549426 0)
(2.34594 0.546894 0)
(2.35663 0.544476 0)
(2.37064 0.537325 0)
(2.3858 0.526063 0)
(2.39829 0.5138 0)
(2.40119 0.501077 0)
(2.39012 0.485961 0)
(2.38411 0.473206 0)
(2.39285 0.468223 0)
(2.40382 0.464773 0)
(2.41811 0.460547 0)
(2.43472 0.451936 0)
(2.44936 0.441709 0)
(2.46202 0.433783 0)
(2.47061 0.426054 0)
(2.47021 0.415485 0)
(2.45641 0.402379 0)
(2.44791 0.389538 0)
(2.45482 0.381257 0)
(2.46734 0.376879 0)
(2.48189 0.370248 0)
(2.49528 0.362245 0)
(2.50877 0.354514 0)
(2.5202 0.347113 0)
(2.52849 0.341903 0)
(2.53369 0.336395 0)
(2.53064 0.321471 0)
(2.51419 0.296883 0)
(2.51224 0.287376 0)
(2.52003 0.286726 0)
(2.52931 0.281927 0)
(2.54247 0.276882 0)
(2.55477 0.273144 0)
(2.56602 0.268063 0)
(2.57491 0.263434 0)
(2.58557 0.258998 0)
(2.59422 0.253518 0)
(2.59748 0.244601 0)
(2.5889 0.225524 0)
(2.5711 0.201337 0)
(2.57208 0.192965 0)
(2.57893 0.192984 0)
(2.58717 0.191182 0)
(2.59642 0.188852 0)
(2.60706 0.187648 0)
(2.61812 0.183979 0)
(2.62571 0.180222 0)
(2.63441 0.177531 0)
(2.64292 0.172349 0)
(2.64543 0.161347 0)
(2.63343 0.140236 0)
(2.6162 0.120477 0)
(2.61858 0.116846 0)
(2.62364 0.115011 0)
(2.63186 0.111161 0)
(2.64627 0.108913 0)
(2.65348 0.108828 0)
(2.66555 0.107659 0)
(2.67766 0.1037 0)
(2.68387 0.101425 0)
(2.67406 0.0791808 0)
(2.6396 0.00608256 0)
(2.55994 -0.131434 0)
(2.39668 -0.3476 0)
(2.27935 -0.524588 0)
(2.27738 -0.528485 0)
(2.27984 -0.553187 0)
(2.28378 -0.573381 0)
(2.28896 -0.57403 0)
(2.29764 -0.570751 0)
(2.30246 -0.565004 0)
(2.30483 -0.567263 0)
(2.30387 -0.575865 0)
(2.30379 -0.590118 0)
(2.31082 -0.599017 0)
(2.31929 -0.602497 0)
(2.33004 -0.604058 0)
(2.34438 -0.601441 0)
(2.35914 -0.592338 0)
(2.36717 -0.588296 0)
(2.37686 -0.590239 0)
(2.38522 -0.592666 0)
(2.38999 -0.597057 0)
(2.38734 -0.606792 0)
(2.38025 -0.61756 0)
(2.38362 -0.620132 0)
(2.3921 -0.619181 0)
(2.40074 -0.617489 0)
(2.41196 -0.615111 0)
(2.426 -0.614829 0)
(2.43394 -0.622091 0)
(2.42481 -0.642492 0)
(2.40012 -0.679727 0)
(2.35222 -0.740774 0)
(2.30903 -0.786919 0)
(2.29054 -0.809262 0)
(2.2794 -0.835511 0)
(2.28841 -0.839017 0)
(2.29971 -0.83171 0)
(2.3082 -0.82306 0)
(2.31917 -0.819284 0)
(2.32998 -0.821516 0)
(2.33777 -0.823526 0)
(2.3387 -0.825992 0)
(2.33821 -0.829967 0)
(2.3447 -0.830767 0)
(2.35228 -0.829939 0)
(2.36209 -0.827974 0)
(2.37606 -0.825238 0)
(2.1996 0.744294 0)
(2.21585 0.727559 0)
(2.2242 0.72277 0)
(2.22327 0.732923 0)
(2.21659 0.742556 0)
(2.22415 0.732927 0)
(2.243 0.704318 0)
(2.25671 0.670752 0)
(2.26292 0.648584 0)
(2.26506 0.6417 0)
(2.26938 0.644797 0)
(2.27631 0.647271 0)
(2.28414 0.64626 0)
(2.29301 0.641023 0)
(2.30591 0.630354 0)
(2.31942 0.612935 0)
(2.32702 0.589988 0)
(2.32753 0.57392 0)
(2.32833 0.568176 0)
(2.33584 0.565299 0)
(2.3462 0.564998 0)
(2.35893 0.560158 0)
(2.37424 0.548824 0)
(2.38852 0.534924 0)
(2.3964 0.52132 0)
(2.39135 0.508052 0)
(2.37967 0.494666 0)
(2.38182 0.485951 0)
(2.39336 0.482322 0)
(2.40577 0.478602 0)
(2.42172 0.472435 0)
(2.43796 0.462259 0)
(2.45085 0.453678 0)
(2.46112 0.447626 0)
(2.46691 0.440312 0)
(2.46226 0.427293 0)
(2.44671 0.410554 0)
(2.44726 0.401557 0)
(2.45704 0.396254 0)
(2.47114 0.389429 0)
(2.48566 0.381453 0)
(2.49879 0.37462 0)
(2.51078 0.368023 0)
(2.52051 0.360967 0)
(2.52693 0.354688 0)
(2.52782 0.346686 0)
(2.51715 0.326335 0)
(2.50695 0.306024 0)
(2.51477 0.304417 0)
(2.52321 0.301775 0)
(2.53352 0.296287 0)
(2.54591 0.292664 0)
(2.55773 0.288458 0)
(2.56679 0.283245 0)
(2.577 0.278152 0)
(2.5869 0.272695 0)
(2.59309 0.264882 0)
(2.58932 0.250229 0)
(2.57254 0.22643 0)
(2.56684 0.211385 0)
(2.575 0.211119 0)
(2.58384 0.209738 0)
(2.59244 0.207376 0)
(2.60277 0.205287 0)
(2.61317 0.202805 0)
(2.62197 0.197825 0)
(2.62862 0.195083 0)
(2.6364 0.191625 0)
(2.64148 0.183663 0)
(2.63543 0.16557 0)
(2.61817 0.142572 0)
(2.6161 0.133669 0)
(2.62158 0.132944 0)
(2.62741 0.1301 0)
(2.63799 0.126203 0)
(2.64897 0.124234 0)
(2.65612 0.124301 0)
(2.66848 0.120884 0)
(2.67862 0.115956 0)
(2.6667 0.0883483 0)
(2.62288 -0.00569469 0)
(2.47733 -0.222051 0)
(2.37483 -0.372486 0)
(2.28303 -0.487299 0)
(2.26253 -0.590504 0)
(2.24831 -0.583233 0)
(2.26477 -0.568445 0)
(2.28269 -0.550779 0)
(2.29363 -0.547864 0)
(2.30521 -0.548286 0)
(2.31289 -0.555381 0)
(2.31375 -0.56673 0)
(2.30961 -0.578306 0)
(2.31003 -0.580378 0)
(2.31782 -0.579162 0)
(2.32727 -0.579346 0)
(2.3382 -0.57891 0)
(2.35473 -0.577204 0)
(2.36961 -0.574863 0)
(2.37774 -0.575568 0)
(2.38676 -0.576975 0)
(2.39217 -0.579701 0)
(2.39133 -0.58568 0)
(2.3831 -0.59446 0)
(2.383 -0.599722 0)
(2.3913 -0.601288 0)
(2.39894 -0.601128 0)
(2.40734 -0.598886 0)
(2.42007 -0.598525 0)
(2.42766 -0.606473 0)
(2.42255 -0.625658 0)
(2.39492 -0.667089 0)
(2.34964 -0.72476 0)
(2.31602 -0.766127 0)
(2.28259 -0.799183 0)
(2.27902 -0.825435 0)
(2.28605 -0.824759 0)
(2.2976 -0.819028 0)
(2.30889 -0.810411 0)
(2.31911 -0.804871 0)
(2.32979 -0.804814 0)
(2.33843 -0.807334 0)
(2.34152 -0.811971 0)
(2.33982 -0.81505 0)
(2.34371 -0.814819 0)
(2.35141 -0.815853 0)
(2.35977 -0.815457 0)
(2.37281 -0.813162 0)
(2.38532 -0.809115 0)
(2.20967 0.749563 0)
(2.21869 0.737841 0)
(2.21868 0.741784 0)
(2.21207 0.754113 0)
(2.2102 0.754103 0)
(2.22456 0.732726 0)
(2.24278 0.698523 0)
(2.25337 0.670096 0)
(2.25918 0.656917 0)
(2.26471 0.659721 0)
(2.27069 0.664919 0)
(2.27764 0.666946 0)
(2.28506 0.664427 0)
(2.29589 0.655656 0)
(2.30948 0.637775 0)
(2.31858 0.611991 0)
(2.31999 0.590269 0)
(2.32194 0.583518 0)
(2.32721 0.583711 0)
(2.3368 0.582883 0)
(2.34815 0.581193 0)
(2.36281 0.572237 0)
(2.37742 0.558179 0)
(2.38866 0.543231 0)
(2.38911 0.528505 0)
(2.37952 0.515675 0)
(2.37409 0.505427 0)
(2.38302 0.499749 0)
(2.39554 0.497001 0)
(2.40907 0.491834 0)
(2.42539 0.48317 0)
(2.43975 0.472994 0)
(2.45067 0.466486 0)
(2.45858 0.461897 0)
(2.46142 0.453611 0)
(2.45195 0.436135 0)
(2.44116 0.418085 0)
(2.44915 0.414008 0)
(2.46028 0.408668 0)
(2.47529 0.399494 0)
(2.48824 0.392718 0)
(2.5004 0.387339 0)
(2.51065 0.382308 0)
(2.51898 0.375444 0)
(2.52337 0.366927 0)
(2.51879 0.354871 0)
(2.50553 0.331362 0)
(2.50831 0.321222 0)
(2.5175 0.319982 0)
(2.52611 0.316452 0)
(2.53642 0.311962 0)
(2.54811 0.308798 0)
(2.55866 0.303691 0)
(2.5678 0.297949 0)
(2.57774 0.291912 0)
(2.58612 0.28487 0)
(2.58724 0.272445 0)
(2.57451 0.252169 0)
(2.56217 0.233961 0)
(2.56896 0.229729 0)
(2.57769 0.228601 0)
(2.58893 0.224954 0)
(2.59755 0.222445 0)
(2.60872 0.220448 0)
(2.61847 0.216993 0)
(2.62492 0.212867 0)
(2.63105 0.209971 0)
(2.63653 0.204097 0)
(2.63483 0.190349 0)
(2.61945 0.166414 0)
(2.61267 0.150902 0)
(2.61973 0.150133 0)
(2.62554 0.148676 0)
(2.63245 0.145907 0)
(2.6439 0.140916 0)
(2.65015 0.139399 0)
(2.6607 0.137788 0)
(2.66257 0.127347 0)
(2.65269 0.0854797 0)
(2.56626 -0.0610343 0)
(2.4695 -0.245666 0)
(2.3084 -0.451946 0)
(2.23969 -0.558578 0)
(2.24123 -0.53646 0)
(2.26989 -0.533601 0)
(2.27583 -0.535505 0)
(2.2877 -0.53439 0)
(2.29884 -0.532929 0)
(2.30696 -0.534531 0)
(2.31319 -0.537476 0)
(2.31737 -0.54175 0)
(2.31585 -0.54756 0)
(2.31167 -0.556652 0)
(2.31793 -0.56444 0)
(2.32686 -0.568013 0)
(2.33657 -0.570717 0)
(2.35077 -0.569779 0)
(2.36797 -0.562583 0)
(2.37674 -0.558875 0)
(2.38575 -0.559719 0)
(2.39327 -0.561689 0)
(2.395 -0.567412 0)
(2.388 -0.579192 0)
(2.38509 -0.589361 0)
(2.39281 -0.591322 0)
(2.39998 -0.590349 0)
(2.40645 -0.587681 0)
(2.41657 -0.587315 0)
(2.42302 -0.594344 0)
(2.4197 -0.61277 0)
(2.38735 -0.656577 0)
(2.35255 -0.708211 0)
(2.30538 -0.757751 0)
(2.27981 -0.786461 0)
(2.27875 -0.807745 0)
(2.28527 -0.807726 0)
(2.29638 -0.806314 0)
(2.30754 -0.799238 0)
(2.31838 -0.791893 0)
(2.32981 -0.788602 0)
(2.3389 -0.790588 0)
(2.34268 -0.793556 0)
(2.33966 -0.796673 0)
(2.3415 -0.801828 0)
(2.34939 -0.804135 0)
(2.35771 -0.803585 0)
(2.36881 -0.801428 0)
(2.384 -0.797913 0)
(2.39258 -0.795582 0)
(2.21229 0.757364 0)
(2.21554 0.751676 0)
(2.21097 0.760174 0)
(2.20587 0.766983 0)
(2.2079 0.756287 0)
(2.22502 0.728713 0)
(2.24159 0.697698 0)
(2.25138 0.67641 0)
(2.25924 0.672986 0)
(2.26633 0.67905 0)
(2.27261 0.683179 0)
(2.27932 0.683714 0)
(2.2877 0.678537 0)
(2.2998 0.663384 0)
(2.31021 0.636225 0)
(2.31252 0.610181 0)
(2.31346 0.597902 0)
(2.31948 0.60001 0)
(2.32709 0.601258 0)
(2.33807 0.60029 0)
(2.35156 0.595009 0)
(2.36638 0.581974 0)
(2.37896 0.566945 0)
(2.38455 0.550952 0)
(2.37755 0.535002 0)
(2.37112 0.525177 0)
(2.37393 0.518419 0)
(2.38615 0.514827 0)
(2.39916 0.511267 0)
(2.41327 0.503786 0)
(2.42799 0.49407 0)
(2.44008 0.485614 0)
(2.4487 0.481354 0)
(2.4541 0.476677 0)
(2.45292 0.464177 0)
(2.44057 0.440507 0)
(2.44075 0.428406 0)
(2.45121 0.426024 0)
(2.46372 0.418877 0)
(2.47784 0.410397 0)
(2.4892 0.405408 0)
(2.49994 0.400765 0)
(2.50899 0.396625 0)
(2.51651 0.389111 0)
(2.51834 0.377334 0)
(2.50864 0.361222 0)
(2.50079 0.341369 0)
(2.5104 0.338028 0)
(2.52002 0.334966 0)
(2.52823 0.331487 0)
(2.53802 0.327567 0)
(2.54972 0.323829 0)
(2.55983 0.317687 0)
(2.56866 0.311383 0)
(2.57734 0.304526 0)
(2.58183 0.294508 0)
(2.57463 0.275081 0)
(2.56022 0.256394 0)
(2.56283 0.250046 0)
(2.571 0.247657 0)
(2.58197 0.244046 0)
(2.59343 0.2385 0)
(2.60259 0.237119 0)
(2.61355 0.235188 0)
(2.62187 0.231416 0)
(2.62745 0.227798 0)
(2.63198 0.223356 0)
(2.63272 0.212601 0)
(2.62184 0.190479 0)
(2.60968 0.171922 0)
(2.61429 0.166945 0)
(2.62281 0.166597 0)
(2.62984 0.164758 0)
(2.63811 0.161571 0)
(2.64601 0.156199 0)
(2.65244 0.150598 0)
(2.65275 0.137171 0)
(2.61348 0.0584896 0)
(2.54421 -0.103789 0)
(2.36055 -0.367901 0)
(2.3167 -0.427613 0)
(2.27068 -0.475156 0)
(2.25595 -0.52498 0)
(2.26144 -0.536986 0)
(2.27632 -0.53109 0)
(2.28757 -0.521378 0)
(2.29846 -0.512379 0)
(2.3071 -0.511586 0)
(2.31359 -0.520291 0)
(2.31583 -0.529214 0)
(2.3158 -0.538195 0)
(2.31467 -0.548373 0)
(2.31857 -0.551491 0)
(2.32769 -0.550673 0)
(2.3366 -0.548988 0)
(2.34676 -0.546659 0)
(2.36292 -0.543423 0)
(2.37545 -0.541862 0)
(2.38281 -0.54385 0)
(2.39145 -0.547236 0)
(2.39617 -0.551784 0)
(2.39176 -0.559529 0)
(2.38435 -0.567499 0)
(2.39087 -0.56936 0)
(2.399 -0.570021 0)
(2.40544 -0.56941 0)
(2.41351 -0.571174 0)
(2.41978 -0.580228 0)
(2.41297 -0.602214 0)
(2.3886 -0.640659 0)
(2.34235 -0.703667 0)
(2.30813 -0.739357 0)
(2.28353 -0.761901 0)
(2.27448 -0.788839 0)
(2.28152 -0.797556 0)
(2.29168 -0.796584 0)
(2.30478 -0.786042 0)
(2.3158 -0.774862 0)
(2.32698 -0.772846 0)
(2.33811 -0.77582 0)
(2.34461 -0.77833 0)
(2.34349 -0.782305 0)
(2.34069 -0.78758 0)
(2.34703 -0.788798 0)
(2.35545 -0.788795 0)
(2.36515 -0.787269 0)
(2.37896 -0.784421 0)
(2.39156 -0.78071 0)
(2.39963 -0.781735 0)
(2.21005 0.768109 0)
(2.21083 0.76659 0)
(2.20681 0.773632 0)
(2.20377 0.772215 0)
(2.2076 0.752102 0)
(2.22705 0.726563 0)
(2.24217 0.702387 0)
(2.25205 0.689437 0)
(2.26062 0.692739 0)
(2.26689 0.698418 0)
(2.27282 0.701165 0)
(2.27995 0.698924 0)
(2.29013 0.687337 0)
(2.3012 0.661028 0)
(2.3064 0.631433 0)
(2.30653 0.614495 0)
(2.31146 0.614134 0)
(2.3185 0.617605 0)
(2.32749 0.617843 0)
(2.34013 0.615376 0)
(2.35524 0.606119 0)
(2.36868 0.5914 0)
(2.3775 0.575133 0)
(2.37483 0.556184 0)
(2.36697 0.542014 0)
(2.36884 0.537504 0)
(2.37701 0.533083 0)
(2.39018 0.529738 0)
(2.40378 0.524393 0)
(2.41711 0.515737 0)
(2.42971 0.506938 0)
(2.43978 0.500868 0)
(2.44611 0.497546 0)
(2.44809 0.488951 0)
(2.4403 0.465985 0)
(2.43337 0.44505 0)
(2.44229 0.441484 0)
(2.45363 0.436421 0)
(2.46677 0.429281 0)
(2.47935 0.422821 0)
(2.48888 0.419566 0)
(2.49857 0.41533 0)
(2.50723 0.41069 0)
(2.5137 0.401614 0)
(2.51158 0.385814 0)
(2.49977 0.368169 0)
(2.50069 0.355269 0)
(2.51158 0.353957 0)
(2.52156 0.349894 0)
(2.52938 0.346767 0)
(2.53916 0.342737 0)
(2.55124 0.337869 0)
(2.56107 0.330896 0)
(2.56891 0.324036 0)
(2.57481 0.315507 0)
(2.57187 0.299474 0)
(2.55808 0.277771 0)
(2.55671 0.269281 0)
(2.56417 0.268097 0)
(2.57437 0.264071 0)
(2.58751 0.257727 0)
(2.59663 0.253422 0)
(2.60659 0.252089 0)
(2.61689 0.249882 0)
(2.62416 0.246124 0)
(2.62855 0.241702 0)
(2.62953 0.233033 0)
(2.62188 0.213308 0)
(2.60864 0.192086 0)
(2.61076 0.185378 0)
(2.61682 0.18475 0)
(2.62586 0.182458 0)
(2.63411 0.180159 0)
(2.64009 0.176027 0)
(2.64352 0.166246 0)
(2.63444 0.133387 0)
(2.5844 0.0252406 0)
(2.44549 -0.20096 0)
(2.3799 -0.332961 0)
(2.27578 -0.467454 0)
(2.23601 -0.526612 0)
(2.2359 -0.528553 0)
(2.24771 -0.520904 0)
(2.26899 -0.507452 0)
(2.28474 -0.496049 0)
(2.29846 -0.495908 0)
(2.31084 -0.501822 0)
(2.3209 -0.509615 0)
(2.32459 -0.516435 0)
(2.31867 -0.520166 0)
(2.30972 -0.524032 0)
(2.31389 -0.528964 0)