/*--------------------------------*- C++ -*----------------------------------*\
  =========                 |
  \\      /  F ield         | OpenFOAM: The Open Source CFD Toolbox
   \\    /   O peration     | Website:  https://openfoam.org
    \\  /    A nd           | Version:  7
     \\/     M anipulation  |
\*---------------------------------------------------------------------------*/
FoamFile
{
    version     2.0;
    format      ascii;
    class       volScalarField;
    location    "2.6";
    object      p;
}
// * * * * * * * * * * * * * * * * * * * * * * * * * * * * * * * * * * * * * //

dimensions      [1 -1 -2 0 0 0 0];

internalField   nonuniform List<scalar> 
16192
(
1.96602
1.96397
1.96319
1.96526
1.98111
1.99919
2.00413
2.00464
2.00188
1.99599
1.97956
1.95111
1.94061
1.94042
1.94207
1.94728
1.96048
1.98396
1.99955
2.00138
2.00091
1.99722
1.98573
1.9578
1.92211
1.91019
1.90787
1.90654
1.90595
1.91182
1.92928
1.93371
1.9298
1.92565
1.92082
1.90972
1.88594
1.85854
1.8484
1.84445
1.84307
1.84489
1.84347
1.84042
1.83729
1.83218
1.82194
1.80859
1.80027
1.79508
1.78863
1.77852
1.76828
1.76344
1.76287
1.76776
1.77337
1.77403
1.77309
1.77146
1.76811
1.76297
1.75164
1.72614
1.69534
1.68017
1.6749
1.67213
1.67053
1.67176
1.68538
1.7116
1.72139
1.72206
1.7211
1.71922
1.71324
1.6938
1.67187
1.66914
1.67166
1.67715
1.68474
1.69269
1.70012
1.7082
1.71723
1.72501
1.72672
1.72535
1.72193
1.71675
1.70774
1.69269
1.67114
1.65564
1.65022
1.64868
1.64735
1.64636
1.64565
1.646
1.64859
1.64874
1.64721
1.64443
1.64151
1.63919
1.63674
1.63358
1.6283
1.61649
1.59768
1.58878
1.58698
1.58553
1.58445
1.5847
1.5928
1.60244
1.60279
1.60183
1.60085
1.59836
1.58883
1.57366
1.56905
1.56997
1.57268
1.57694
1.58029
1.58216
1.58228
1.58036
1.57529
1.56516
1.5492
1.53743
1.53431
1.53367
1.54083
1.56252
1.57287
1.57165
1.56767
1.56066
1.54282
1.50687
1.48167
1.47543
1.47351
1.47246
1.47183
1.47274
1.47864
1.48795
1.49045
1.48952
1.48878
1.48835
1.4872
1.48522
1.48352
1.48192
1.48169
1.48272
1.48148
1.47783
1.47096
1.45721
1.44103
1.43141
1.42575
1.41825
1.40312
1.38195
1.37159
1.36959
1.36855
1.36799
1.37003
1.38058
1.39859
1.40733
1.40673
1.40425
1.3999
1.38862
1.36624
1.35008
1.34672
1.34546
1.34428
1.34329
1.34292
1.34471
1.34835
1.35092
1.3543
1.35954
1.36095
1.36007
1.35888
1.35717
1.35432
1.3481
1.33472
1.31072
1.29056
1.28509
1.28338
1.28228
1.28202
1.28386
1.2911
1.29759
1.29974
1.30038
1.30055
1.30013
1.29755
1.28974
1.28156
1.28185
1.28556
1.28786
1.28857
1.29019
1.29533
1.30883
1.3238
1.32599
1.32488
1.32144
1.31563
1.30697
1.29616
1.28697
1.28182
1.27875
1.27575
1.27313
1.26943
1.26584
1.26484
1.26446
1.26211
1.26094
1.26092
1.2609
1.2596
1.25814
1.25515
1.96051
1.95779
1.95622
1.95584
1.9629
1.98637
2.0009
2.00045
1.99721
1.99241
1.98348
1.9622
1.93417
1.92581
1.92602
1.92822
1.93471
1.95019
1.97429
1.9877
1.98915
1.9887
1.98499
1.97357
1.94607
1.91481
1.90452
1.90231
1.90142
1.9011
1.90633
1.92157
1.92464
1.92119
1.91856
1.91444
1.9044
1.88475
1.8576
1.84231
1.83739
1.83599
1.83525
1.83271
1.82924
1.82426
1.81489
1.80276
1.79598
1.79347
1.79127
1.78756
1.78072
1.77349
1.76969
1.76802
1.7676
1.76553
1.76323
1.76151
1.75843
1.75365
1.74588
1.72983
1.70211
1.68061
1.67303
1.66981
1.66816
1.66968
1.68524
1.70831
1.71352
1.71274
1.71232
1.71165
1.70869
1.69531
1.66972
1.65709
1.65686
1.65975
1.66549
1.67419
1.68362
1.69225
1.70121
1.71044
1.71698
1.71756
1.71646
1.7136
1.70757
1.69801
1.68283
1.66156
1.64808
1.64462
1.64335
1.64251
1.64228
1.64401
1.64632
1.64604
1.64399
1.64103
1.63759
1.63314
1.6285
1.62396
1.61829
1.60932
1.59597
1.58753
1.58552
1.58422
1.58354
1.58678
1.59693
1.60179
1.60051
1.59948
1.59831
1.59619
1.59012
1.57474
1.56043
1.55824
1.55886
1.56016
1.56191
1.56424
1.56664
1.5671
1.56614
1.56347
1.55799
1.55145
1.54689
1.54595
1.5502
1.55668
1.56057
1.56069
1.55806
1.55188
1.53551
1.50368
1.48043
1.47403
1.47106
1.46935
1.46856
1.47123
1.48228
1.48547
1.48459
1.48395
1.48313
1.48148
1.4798
1.47868
1.47855
1.48191
1.48609
1.48677
1.48443
1.48149
1.47673
1.46627
1.44738
1.42764
1.41225
1.39566
1.3775
1.36854
1.36643
1.36538
1.36452
1.36463
1.37055
1.39088
1.40798
1.40905
1.40689
1.40427
1.40069
1.39305
1.37396
1.35151
1.34313
1.3407
1.33884
1.33745
1.33654
1.33686
1.34146
1.34926
1.357
1.36089
1.36129
1.361
1.36022
1.35845
1.35346
1.34154
1.31739
1.29307
1.28493
1.28256
1.28105
1.28007
1.27976
1.28317
1.29098
1.29259
1.29248
1.29244
1.29195
1.28943
1.28101
1.27249
1.27142
1.27311
1.27716
1.28255
1.28754
1.29437
1.30801
1.32356
1.32634
1.32504
1.3217
1.31605
1.30674
1.29323
1.28053
1.27431
1.2724
1.27214
1.27426
1.27504
1.27479
1.27449
1.27226
1.26773
1.2617
1.25669
1.25544
1.25489
1.25443
1.2534
1.25086
1.95977
1.9562
1.95449
1.95394
1.95725
1.9696
1.98387
1.98874
1.98637
1.98278
1.97889
1.96874
1.94458
1.91953
1.91331
1.91412
1.91724
1.92487
1.94081
1.96346
1.97553
1.97713
1.97681
1.97325
1.96225
1.93534
1.90694
1.89755
1.89599
1.89554
1.89547
1.90115
1.91529
1.91738
1.91381
1.91067
1.90676
1.89815
1.88024
1.85207
1.833
1.82687
1.82526
1.82384
1.82053
1.81598
1.80934
1.80125
1.7971
1.79464
1.7931
1.79248
1.7901
1.78522
1.77658
1.76662
1.76127
1.75822
1.75402
1.75065
1.74738
1.74312
1.73755
1.72917
1.71408
1.6924
1.67596
1.67073
1.66913
1.67071
1.68172
1.6992
1.70334
1.70216
1.70114
1.69985
1.69786
1.69102
1.67324
1.65275
1.64606
1.64607
1.64882
1.6549
1.6648
1.67506
1.68389
1.6924
1.7013
1.70754
1.70834
1.70782
1.70549
1.69933
1.68879
1.67044
1.64967
1.64232
1.64082
1.63995
1.64052
1.64426
1.64621
1.64493
1.64225
1.63881
1.63439
1.62815
1.62093
1.61456
1.60851
1.60194
1.59453
1.58762
1.58535
1.58435
1.58375
1.58585
1.59105
1.59557
1.59708
1.5959
1.59428
1.59273
1.5901
1.58144
1.5609
1.54534
1.54316
1.54296
1.5431
1.544
1.54686
1.55267
1.55685
1.55735
1.55719
1.55904
1.56488
1.5657
1.56157
1.55628
1.55296
1.55103
1.54762
1.54004
1.52438
1.50047
1.48265
1.47554
1.47169
1.46945
1.46879
1.47259
1.48031
1.48123
1.48006
1.47871
1.4769
1.47449
1.4732
1.47244
1.47223
1.47653
1.48664
1.48895
1.4876
1.48539
1.48182
1.47318
1.45241
1.42101
1.39052
1.37162
1.36558
1.36395
1.3632
1.36259
1.36227
1.36409
1.37757
1.39792
1.40408
1.4033
1.40135
1.39954
1.3977
1.39404
1.38255
1.3588
1.34057
1.3356
1.33383
1.33265
1.33189
1.33238
1.33919
1.35301
1.3622
1.36278
1.36181
1.36075
1.35923
1.35669
1.34974
1.32939
1.29966
1.28613
1.28239
1.2804
1.27916
1.2785
1.27939
1.28586
1.28785
1.28766
1.28754
1.28696
1.28479
1.27766
1.26655
1.26212
1.26189
1.26389
1.2683
1.2752
1.28494
1.30146
1.32238
1.32942
1.32923
1.32469
1.31585
1.30469
1.29071
1.27753
1.27063
1.26807
1.26695
1.26698
1.27064
1.27643
1.28024
1.28026
1.27801
1.27361
1.26558
1.25519
1.24943
1.24831
1.24773
1.24824
1.24739
1.97312
1.95967
1.95722
1.95642
1.95743
1.96152
1.96831
1.97558
1.9772
1.97329
1.96935
1.96502
1.95383
1.92897
1.90774
1.9035
1.90444
1.90728
1.91441
1.92961
1.95162
1.96381
1.96566
1.96558
1.96213
1.95108
1.92364
1.89754
1.88981
1.88901
1.88859
1.88848
1.89471
1.909
1.91072
1.90714
1.90381
1.89934
1.89046
1.87158
1.84034
1.82117
1.81654
1.81482
1.81176
1.80768
1.80495
1.80299
1.80029
1.7979
1.79714
1.79712
1.79425
1.78959
1.78233
1.7699
1.75625
1.74927
1.74498
1.74051
1.73618
1.73187
1.72754
1.72313
1.71784
1.70923
1.6943
1.67934
1.67429
1.67377
1.6791
1.69099
1.6951
1.69309
1.6909
1.68874
1.68592
1.68115
1.67121
1.65616
1.64267
1.63736
1.63715
1.64019
1.6471
1.65744
1.66673
1.67387
1.68145
1.69088
1.69787
1.69865
1.69804
1.69554
1.68948
1.67743
1.65758
1.64326
1.63958
1.63822
1.63747
1.63725
1.63791
1.63766
1.63583
1.63293
1.62898
1.62224
1.61319
1.60553
1.59983
1.59504
1.5903
1.58676
1.58525
1.5847
1.58498
1.58707
1.58849
1.58958
1.59218
1.59343
1.59229
1.59077
1.58843
1.58285
1.56631
1.53984
1.52827
1.52725
1.52717
1.52772
1.5301
1.5365
1.54631
1.55341
1.55933
1.56976
1.57713
1.57628
1.57075
1.55994
1.5487
1.54033
1.5328
1.52278
1.50856
1.49362
1.48391
1.47982
1.47715
1.47532
1.47613
1.47985
1.48014
1.4783
1.47634
1.47371
1.46992
1.46801
1.46743
1.46695
1.46688
1.46987
1.48032
1.49009
1.48969
1.48668
1.48239
1.47368
1.4507
1.40527
1.37127
1.36329
1.36154
1.36083
1.36038
1.36032
1.36127
1.36918
1.38502
1.39552
1.39936
1.39912
1.39716
1.39509
1.39309
1.39055
1.38399
1.36555
1.34111
1.33307
1.33159
1.33051
1.32967
1.33029
1.33796
1.34937
1.35558
1.35722
1.35663
1.35531
1.35361
1.35035
1.33917
1.3127
1.29164
1.28482
1.28176
1.27967
1.27845
1.27821
1.28203
1.28435
1.2836
1.28319
1.28282
1.281
1.27564
1.26446
1.25648
1.25469
1.25427
1.25558
1.26004
1.26909
1.28577
1.31148
1.32624
1.32836
1.32781
1.32188
1.30702
1.2881
1.2739
1.26708
1.26407
1.26214
1.26088
1.26143
1.26901
1.28133
1.28418
1.28308
1.28154
1.27861
1.2717
1.25829
1.24729
1.24437
1.24324
1.24249
1.24206
2.00074
1.9753
1.96196
1.95957
1.95858
1.95822
1.95809
1.95977
1.96434
1.96505
1.96097
1.95771
1.95354
1.94118
1.91527
1.89689
1.89383
1.89443
1.89656
1.90316
1.91823
1.94049
1.95275
1.95483
1.95502
1.95144
1.93949
1.91045
1.88651
1.88071
1.88022
1.87975
1.88004
1.88903
1.90344
1.90382
1.89999
1.89627
1.89132
1.88202
1.8602
1.82595
1.80731
1.80333
1.8013
1.80036
1.80113
1.80166
1.8019
1.80171
1.80163
1.79958
1.79568
1.79089
1.78389
1.77204
1.75577
1.74248
1.73592
1.73075
1.72529
1.72181
1.71987
1.71893
1.71824
1.71595
1.71115
1.70041
1.68744
1.68167
1.68021
1.68148
1.68447
1.68334
1.68026
1.67709
1.67346
1.6686
1.66304
1.65591
1.64659
1.63623
1.63039
1.62969
1.63263
1.63935
1.64849
1.65667
1.66354
1.67136
1.68142
1.68756
1.68808
1.68746
1.68496
1.67896
1.66693
1.64953
1.63983
1.63665
1.63486
1.63382
1.63342
1.63295
1.63111
1.62818
1.62351
1.61469
1.60349
1.59751
1.59427
1.59119
1.58862
1.58594
1.58351
1.5825
1.58261
1.58311
1.5834
1.58342
1.58451
1.58675
1.58615
1.5848
1.5833
1.57976
1.56948
1.54478
1.52174
1.51493
1.51421
1.51438
1.51555
1.51966
1.53124
1.54969
1.57029
1.58231
1.58313
1.58084
1.5751
1.56305
1.54485
1.52737
1.51363
1.50213
1.49283
1.48693
1.48458
1.48252
1.48157
1.48385
1.48641
1.4846
1.4815
1.47865
1.47404
1.46705
1.4631
1.46202
1.46127
1.46053
1.46031
1.46324
1.47195
1.48175
1.48477
1.48326
1.47952
1.47093
1.44389
1.39515
1.36721
1.36187
1.35991
1.3586
1.35783
1.35772
1.36202
1.37829
1.39312
1.3949
1.3947
1.39512
1.39354
1.39118
1.38914
1.38696
1.3828
1.37086
1.34709
1.33291
1.33092
1.32997
1.32915
1.32937
1.33581
1.34881
1.35277
1.35221
1.35159
1.35042
1.34808
1.34156
1.32256
1.2981
1.28897
1.28626
1.28354
1.28118
1.28022
1.28169
1.28338
1.28172
1.27944
1.27825
1.27673
1.27265
1.26341
1.25418
1.25135
1.25038
1.2498
1.25113
1.25593
1.26653
1.28976
1.31355
1.32169
1.32322
1.32278
1.31429
1.29242
1.27298
1.26443
1.26037
1.25831
1.25667
1.25569
1.25809
1.27018
1.28455
1.28564
1.28426
1.28324
1.28113
1.27642
1.26557
1.25005
1.24088
1.23816
1.23659
1.23514
2.01378
2.00154
1.97691
1.96109
1.95755
1.9555
1.95304
1.9505
1.95033
1.95464
1.95415
1.95041
1.94759
1.94319
1.92935
1.90166
1.88599
1.88411
1.88419
1.88572
1.89226
1.90833
1.93086
1.94191
1.94401
1.94425
1.94023
1.92597
1.89435
1.87445
1.87087
1.87045
1.86996
1.87169
1.88462
1.89741
1.89655
1.89282
1.88889
1.88269
1.86978
1.84072
1.8076
1.79603
1.79415
1.79273
1.79408
1.8018
1.80559
1.80673
1.80572
1.80251
1.7981
1.79248
1.78471
1.77338
1.7575
1.73978
1.72687
1.72106
1.71798
1.7158
1.71429
1.71497
1.71815
1.71965
1.71914
1.7164
1.70912
1.69539
1.68183
1.67551
1.67367
1.67209
1.66942
1.66585
1.66185
1.6571
1.65273
1.65022
1.64685
1.64058
1.6305
1.62353
1.62277
1.62563
1.63143
1.63908
1.6465
1.65302
1.66023
1.66978
1.67654
1.67745
1.67764
1.67677
1.67008
1.65854
1.6467
1.6376
1.63213
1.63017
1.62852
1.62653
1.62431
1.62119
1.61596
1.60693
1.59679
1.59252
1.59151
1.59058
1.58838
1.58593
1.58471
1.58309
1.58005
1.57847
1.57792
1.57782
1.57873
1.58077
1.57958
1.57785
1.57661
1.57455
1.56825
1.55084
1.52245
1.50641
1.50277
1.50265
1.50363
1.50766
1.52038
1.54996
1.57489
1.58002
1.57949
1.57721
1.57237
1.56143
1.53918
1.51296
1.49709
1.48991
1.48644
1.48468
1.48413
1.48535
1.49031
1.49616
1.49506
1.49142
1.48722
1.48087
1.46909
1.45981
1.45707
1.45573
1.45458
1.45351
1.45322
1.45758
1.46683
1.47298
1.47471
1.47362
1.47013
1.46234
1.44069
1.39722
1.36707
1.3614
1.35932
1.35778
1.357
1.35735
1.36499
1.38243
1.38978
1.38987
1.38932
1.39
1.39038
1.38793
1.38494
1.38203
1.37819
1.37099
1.35696
1.33888
1.33191
1.33094
1.3307
1.33194
1.33772
1.34479
1.34677
1.34585
1.34469
1.34307
1.33912
1.3265
1.30246
1.28996
1.28796
1.28633
1.28456
1.28376
1.2853
1.28604
1.28358
1.2803
1.27701
1.27306
1.26755
1.25905
1.25124
1.24909
1.24857
1.24802
1.24788
1.24917
1.2546
1.26926
1.29361
1.3082
1.31238
1.31372
1.31325
1.30302
1.27875
1.26382
1.25977
1.25625
1.25333
1.25224
1.25222
1.2571
1.27556
1.28972
1.2896
1.28755
1.28581
1.28326
1.27876
1.27115
1.25664
1.24023
1.23279
1.23065
1.22903
2.01685
2.0128
2.00032
1.97243
1.95394
1.94956
1.94707
1.94422
1.94169
1.94256
1.94702
1.94534
1.94225
1.93989
1.93423
1.91665
1.88791
1.87572
1.87464
1.87442
1.87573
1.88313
1.90205
1.92304
1.93026
1.93206
1.93254
1.92763
1.9091
1.87625
1.86164
1.85972
1.85931
1.85916
1.86432
1.88109
1.89074
1.88842
1.88348
1.87789
1.87044
1.85333
1.81899
1.79442
1.78902
1.7874
1.78642
1.7926
1.80609
1.80919
1.80846
1.80542
1.80124
1.79524
1.78505
1.77022
1.75417
1.73784
1.72365
1.71645
1.71362
1.71161
1.70992
1.70961
1.71377
1.7209
1.72582
1.7255
1.72139
1.71234
1.69363
1.67364
1.6645
1.66069
1.65718
1.65306
1.6497
1.64808
1.64627
1.64399
1.64262
1.64046
1.63446
1.62415
1.61656
1.61554
1.61715
1.6208
1.62674
1.63415
1.64138
1.64923
1.65887
1.66707
1.66935
1.66961
1.66807
1.6622
1.65335
1.64201
1.63261
1.62689
1.62323
1.61966
1.61603
1.61213
1.60742
1.60155
1.595
1.59034
1.58724
1.58476
1.58296
1.58236
1.584
1.58276
1.5788
1.57466
1.57307
1.57259
1.57305
1.57318
1.57125
1.56944
1.56821
1.56662
1.56318
1.55296
1.53069
1.50724
1.49906
1.4976
1.4983
1.5026
1.51533
1.53764
1.55779
1.56598
1.56838
1.56849
1.56587
1.55525
1.52977
1.50321
1.49172
1.48749
1.48545
1.48376
1.48292
1.4881
1.50028
1.50344
1.50131
1.49804
1.49243
1.48051
1.46295
1.45418
1.45175
1.45014
1.44882
1.44769
1.4474
1.45207
1.46042
1.46278
1.46164
1.45932
1.45569
1.44902
1.43485
1.40738
1.37469
1.3618
1.35955
1.35835
1.35784
1.36043
1.37348
1.38405
1.38413
1.38339
1.38313
1.38339
1.38443
1.38371
1.38074
1.37716
1.3735
1.3695
1.36373
1.35204
1.33685
1.3319
1.33131
1.33196
1.3354
1.33952
1.33954
1.33855
1.33742
1.33501
1.32699
1.3063
1.28779
1.2842
1.28323
1.28255
1.28339
1.28687
1.28953
1.28833
1.28548
1.28175
1.27582
1.26622
1.25407
1.24708
1.24602
1.24595
1.24555
1.24527
1.24673
1.25086
1.26068
1.27835
1.29176
1.29567
1.29657
1.29745
1.29724
1.28915
1.26919
1.25782
1.25573
1.25288
1.24953
1.24882
1.25021
1.25712
1.2743
1.28532
1.2855
1.2842
1.28239
1.28015
1.27759
1.27274
1.26174
1.24349
1.22985
1.22569
1.22443
2.01886
2.01576
2.00951
1.99063
1.95883
1.9442
1.9409
1.938
1.93507
1.93409
1.93948
1.94156
1.93832
1.935
1.93187
1.92462
1.9024
1.87489
1.8663
1.8655
1.86505
1.86755
1.87981
1.90163
1.91428
1.91699
1.91832
1.9184
1.91142
1.88841
1.85843
1.84957
1.84856
1.84829
1.84943
1.85895
1.87659
1.88224
1.87885
1.87333
1.86741
1.85776
1.83526
1.80109
1.78699
1.78439
1.78299
1.78337
1.79461
1.80946
1.81004
1.80679
1.80268
1.7969
1.78567
1.76912
1.75134
1.7362
1.72411
1.71572
1.71054
1.70765
1.70559
1.7048
1.71038
1.72485
1.73163
1.7301
1.72667
1.7212
1.70756
1.67971
1.65764
1.64945
1.64448
1.64054
1.63857
1.63867
1.6416
1.64069
1.63838
1.63561
1.63277
1.62751
1.61647
1.60795
1.60668
1.6076
1.61054
1.61627
1.62453
1.63216
1.63967
1.65022
1.65811
1.65982
1.66047
1.65978
1.65533
1.64668
1.63515
1.62475
1.61743
1.61202
1.60737
1.60324
1.59931
1.59579
1.59277
1.58926
1.58547
1.58251
1.58114
1.5821
1.58321
1.58156
1.57835
1.57375
1.56898
1.56702
1.56626
1.56501
1.5631
1.56126
1.55958
1.55777
1.55524
1.55073
1.53972
1.51889
1.50017
1.49601
1.4964
1.5012
1.51256
1.52797
1.54115
1.54716
1.54902
1.54938
1.5475
1.53899
1.5204
1.50124
1.49093
1.48717
1.48521
1.48386
1.48647
1.49864
1.50833
1.50761
1.50564
1.50289
1.4959
1.4777
1.45789
1.45077
1.44824
1.44628
1.44457
1.44321
1.44241
1.44441
1.45038
1.45127
1.4486
1.44523
1.44083
1.43462
1.42584
1.41168
1.38976
1.36873
1.36244
1.36128
1.36079
1.36365
1.37322
1.37883
1.37831
1.37752
1.37702
1.37645
1.37577
1.37677
1.37724
1.3748
1.3715
1.36912
1.36675
1.36174
1.35053
1.33798
1.33435
1.33379
1.3335
1.33332
1.33278
1.33167
1.33003
1.3254
1.3108
1.28847
1.27961
1.2782
1.27736
1.27741
1.28216
1.28971
1.29105
1.28962
1.28756
1.28363
1.27406
1.25727
1.24506
1.24205
1.24172
1.24194
1.24161
1.24179
1.24493
1.25503
1.27251
1.2844
1.2859
1.28422
1.28319
1.28193
1.27872
1.27155
1.26021
1.25057
1.24964
1.24915
1.24685
1.24635
1.24942
1.2589
1.27582
1.28338
1.28343
1.28278
1.28071
1.27747
1.27388
1.26958
1.26193
1.24748
1.23111
1.22355
1.22126
2.01452
2.01325
2.00953
1.99844
1.97227
1.94422
1.93451
1.93177
1.92912
1.92771
1.9329
1.94038
1.93852
1.93495
1.93172
1.92621
1.91258
1.88482
1.86359
1.85861
1.85793
1.8582
1.86451
1.88251
1.89835
1.90173
1.90254
1.90341
1.90234
1.89292
1.86737
1.84282
1.83773
1.83724
1.83739
1.84103
1.85373
1.8698
1.87272
1.86893
1.8636
1.85746
1.84527
1.81905
1.7914
1.78412
1.78227
1.7816
1.78541
1.79432
1.79772
1.79678
1.79417
1.79043
1.78378
1.76854
1.74972
1.73575
1.72554
1.71693
1.71044
1.70606
1.70334
1.70251
1.71001
1.72811
1.7342
1.73292
1.72989
1.72504
1.71477
1.68851
1.6549
1.64032
1.63535
1.6322
1.63007
1.62915
1.63232
1.6391
1.63845
1.63602
1.63293
1.62818
1.61901
1.60696
1.59974
1.59886
1.59973
1.60223
1.60791
1.61685
1.624
1.63142
1.64042
1.64665
1.6493
1.65093
1.6507
1.64619
1.63623
1.62366
1.6118
1.60364
1.59932
1.59609
1.59278
1.5901
1.58838
1.58763
1.58561
1.5833
1.58129
1.57825
1.57389
1.57256
1.57149
1.56964
1.5662
1.56164
1.55911
1.55737
1.55556
1.55378
1.55195
1.54979
1.5469
1.54372
1.53991
1.53201
1.51686
1.50118
1.49791
1.49956
1.50575
1.51558
1.52351
1.52677
1.52765
1.52699
1.5237
1.51764
1.5107
1.50359
1.49639
1.49126
1.48902
1.48969
1.49843
1.51353
1.51625
1.51372
1.51035
1.50481
1.49239
1.4702
1.45272
1.44773
1.44547
1.44376
1.4422
1.44045
1.43862
1.43715
1.43821
1.43848
1.43538
1.43181
1.42741
1.42171
1.41535
1.4083
1.39828
1.38269
1.36963
1.36678
1.36647
1.37071
1.37508
1.37432
1.37317
1.37242
1.37158
1.37065
1.36952
1.369
1.37115
1.37271
1.37178
1.36964
1.36751
1.36481
1.35974
1.34923
1.33571
1.32983
1.32881
1.32806
1.32698
1.32536
1.32194
1.31177
1.29124
1.27755
1.27443
1.27295
1.27204
1.27289
1.27954
1.2895
1.29088
1.28938
1.28702
1.28253
1.27137
1.25322
1.2416
1.23873
1.23826
1.23861
1.23878
1.23988
1.24687
1.26378
1.27724
1.28005
1.27817
1.27553
1.27313
1.26861
1.26037
1.25336
1.25076
1.24884
1.24717
1.24847
1.24739
1.24645
1.2497
1.25832
1.27209
1.27877
1.2785
1.27785
1.27617
1.27292
1.26892
1.26469
1.25941
1.25033
1.23667
1.22449
1.2198
2.0021
2.00067
1.99871
1.99454
1.98063
1.95268
1.93256
1.92629
1.92378
1.92218
1.9257
1.9305
1.9283
1.92511
1.92272
1.92004
1.91453
1.89894
1.87114
1.85572
1.85262
1.85207
1.85366
1.86503
1.88202
1.8868
1.88665
1.88685
1.88749
1.88497
1.87302
1.84684
1.82881
1.82608
1.82603
1.82736
1.83323
1.84684
1.86106
1.86287
1.85895
1.85361
1.847
1.83415
1.80949
1.78877
1.78401
1.78256
1.78266
1.78619
1.78856
1.78741
1.78497
1.78127
1.77495
1.76333
1.74783
1.73577
1.72768
1.72034
1.71343
1.70827
1.70505
1.70415
1.70727
1.71544
1.72712
1.73026
1.72777
1.72337
1.7144
1.69286
1.65841
1.63685
1.62926
1.62608
1.62403
1.62242
1.62248
1.62817
1.63023
1.62793
1.62528
1.62246
1.61854
1.6107
1.59873
1.59234
1.59195
1.5925
1.59424
1.6011
1.60989
1.61495
1.62023
1.62704
1.63357
1.63773
1.63951
1.63905
1.63359
1.62174
1.60768
1.59741
1.59253
1.58997
1.58788
1.58621
1.5849
1.58415
1.5846
1.58373
1.58136
1.57722
1.57116
1.56536
1.56434
1.5633
1.56118
1.55767
1.5539
1.55094
1.54868
1.54684
1.54508
1.54318
1.54078
1.53828
1.53666
1.53505
1.53015
1.51746
1.50173
1.49733
1.49796
1.50103
1.5042
1.50538
1.50524
1.50332
1.50086
1.50018
1.50138
1.50172
1.49982
1.49766
1.49773
1.50455
1.51671
1.51887
1.51498
1.50887
1.50348
1.4964
1.48165
1.45925
1.44808
1.44494
1.44298
1.44151
1.43989
1.43747
1.43361
1.42982
1.42777
1.4258
1.4223
1.41927
1.41628
1.41243
1.40794
1.40449
1.40131
1.39469
1.38369
1.37512
1.37401
1.37455
1.37213
1.37079
1.37005
1.36882
1.36773
1.3666
1.36531
1.36416
1.3661
1.37248
1.37334
1.37104
1.36801
1.3653
1.36211
1.35612
1.34367
1.32988
1.3238
1.32212
1.32054
1.31778
1.31067
1.29416
1.27774
1.27277
1.27105
1.2694
1.26847
1.27003
1.27838
1.28605
1.28643
1.28528
1.28388
1.28048
1.27013
1.25232
1.24079
1.23748
1.23643
1.2365
1.23693
1.24016
1.25291
1.26725
1.27252
1.27314
1.27076
1.26807
1.26441
1.25563
1.24373
1.24111
1.24297
1.24437
1.24422
1.24565
1.24816
1.24879
1.25181
1.26001
1.27041
1.27311
1.27278
1.27206
1.27055
1.26743
1.26302
1.25833
1.25383
1.24882
1.24126
1.23141
1.22105
1.99093
1.9896
1.98757
1.98439
1.97788
1.96181
1.93752
1.92402
1.91952
1.91738
1.91902
1.92409
1.92254
1.91965
1.91716
1.91421
1.91065
1.90306
1.88582
1.86095
1.84981
1.84763
1.84758
1.85144
1.86291
1.87138
1.87154
1.87076
1.87072
1.87077
1.86663
1.8536
1.82971
1.81654
1.8149
1.81524
1.81773
1.82457
1.83814
1.8515
1.85355
1.85019
1.84551
1.83939
1.82748
1.80455
1.78634
1.78186
1.78054
1.77967
1.77907
1.77783
1.77565
1.77232
1.76705
1.75743
1.74335
1.73376
1.72844
1.72339
1.7192
1.71552
1.71167
1.7092
1.70948
1.71171
1.71317
1.71514
1.71466
1.71131
1.70504
1.69101
1.66537
1.64021
1.62858
1.62302
1.62002
1.61843
1.61773
1.62121
1.62568
1.62407
1.62151
1.61936
1.61722
1.61278
1.60313
1.59117
1.58551
1.58496
1.58509
1.5885
1.59721
1.60148
1.60342
1.60689
1.61319
1.62006
1.62382
1.62545
1.62472
1.61736
1.60424
1.59322
1.5873
1.58476
1.58283
1.58183
1.58288
1.58378
1.58348
1.58236
1.58007
1.57653
1.57037
1.56202
1.55636
1.55568
1.55499
1.55325
1.54968
1.54533
1.54232
1.54045
1.5389
1.53747
1.53645
1.53592
1.53602
1.53518
1.53301
1.52772
1.51393
1.49551
1.48881
1.48815
1.48739
1.48538
1.48259
1.48183
1.48314
1.48652
1.49053
1.49422
1.49753
1.50099
1.50963
1.52245
1.52527
1.52206
1.51583
1.5093
1.50012
1.48611
1.46402
1.44802
1.44458
1.44277
1.44121
1.43977
1.43796
1.43549
1.43183
1.42644
1.42087
1.41702
1.41278
1.40849
1.40545
1.40334
1.40146
1.39928
1.39831
1.39787
1.39639
1.39181
1.38504
1.37824
1.37179
1.36846
1.36746
1.36621
1.36515
1.3643
1.36349
1.36235
1.3615
1.36413
1.37113
1.37166
1.36846
1.36549
1.36248
1.35785
1.34884
1.3341
1.32191
1.31628
1.31224
1.30548
1.29243
1.27897
1.27351
1.27105
1.26916
1.26774
1.26702
1.26949
1.27529
1.27856
1.27839
1.2775
1.27642
1.27425
1.26803
1.25591
1.24457
1.2386
1.23649
1.23614
1.237
1.24303
1.2554
1.26296
1.26564
1.26542
1.263
1.2597
1.25305
1.24026
1.23232
1.2321
1.23402
1.23775
1.24075
1.24331
1.24707
1.25059
1.25505
1.26271
1.267
1.2672
1.26658
1.26566
1.26445
1.26153
1.25703
1.25216
1.24786
1.24424
1.24072
1.2365
1.22751
1.97771
1.97668
1.97505
1.97253
1.96905
1.96252
1.94896
1.93007
1.91873
1.91484
1.91347
1.91508
1.9141
1.91152
1.90946
1.90709
1.90394
1.90017
1.89244
1.87693
1.85503
1.84418
1.84217
1.84183
1.84481
1.85195
1.85641
1.85598
1.85495
1.85449
1.85381
1.84901
1.83646
1.81484
1.80447
1.80343
1.80431
1.80765
1.81465
1.82773
1.84304
1.84678
1.84428
1.84046
1.83466
1.82244
1.79894
1.78023
1.77455
1.77268
1.77021
1.76808
1.76569
1.76261
1.7583
1.75112
1.7394
1.73121
1.72745
1.72375
1.72092
1.71946
1.71797
1.71667
1.71511
1.71217
1.70792
1.70394
1.70047
1.6962
1.6903
1.6814
1.66737
1.65037
1.63462
1.62396
1.61882
1.61652
1.61572
1.61594
1.61959
1.61973
1.6171
1.6144
1.61154
1.60881
1.60444
1.59472
1.58415
1.57968
1.57964
1.58095
1.58517
1.58829
1.58839
1.58916
1.59248
1.59929
1.60617
1.61021
1.61176
1.61003
1.60093
1.58895
1.58283
1.58052
1.57896
1.57853
1.58293
1.58586
1.58535
1.58363
1.58065
1.57629
1.57003
1.56177
1.55366
1.54835
1.54677
1.54476
1.54158
1.53863
1.53657
1.53489
1.53357
1.53269
1.53305
1.53547
1.53524
1.53381
1.53248
1.52972
1.52229
1.5046
1.48368
1.474
1.46978
1.4662
1.46466
1.46471
1.46677
1.47226
1.48044
1.48867
1.4962
1.50799
1.52484
1.53149
1.53024
1.52559
1.51818
1.50662
1.49018
1.46613
1.44604
1.44137
1.4405
1.43999
1.43967
1.43839
1.43684
1.43493
1.43169
1.42567
1.41701
1.40907
1.40281
1.39796
1.39534
1.39424
1.39462
1.39673
1.39755
1.39983
1.40254
1.40126
1.39629
1.38699
1.37531
1.36774
1.36549
1.36429
1.3633
1.36238
1.36146
1.36034
1.35889
1.35838
1.36209
1.36817
1.36739
1.36436
1.36167
1.35811
1.35186
1.3404
1.32483
1.31054
1.29829
1.28474
1.2748
1.27221
1.27123
1.27041
1.2685
1.26681
1.26742
1.27256
1.27565
1.27435
1.27232
1.27084
1.26917
1.26604
1.26101
1.2555
1.25035
1.2455
1.24207
1.24084
1.24153
1.24613
1.25213
1.2559
1.25756
1.25694
1.25427
1.24935
1.23902
1.22793
1.22543
1.22536
1.22614
1.22913
1.23449
1.24216
1.24918
1.25383
1.25761
1.2609
1.26104
1.26063
1.25979
1.2579
1.25655
1.25449
1.25109
1.24761
1.2446
1.24189
1.24011
1.23849
1.23183
1.96474
1.96337
1.96239
1.96086
1.95862
1.95609
1.95204
1.94338
1.92847
1.9144
1.90812
1.90604
1.90356
1.90186
1.90063
1.89911
1.89689
1.89388
1.89082
1.88448
1.86992
1.84725
1.83509
1.83353
1.83284
1.83362
1.83699
1.84078
1.84077
1.83959
1.83894
1.83806
1.83365
1.82167
1.80124
1.79267
1.79219
1.79359
1.79728
1.80521
1.82026
1.83718
1.8424
1.84048
1.83592
1.82854
1.81381
1.78842
1.76999
1.76418
1.76115
1.75792
1.7544
1.75057
1.74653
1.74206
1.73728
1.73225
1.72821
1.72508
1.72264
1.7231
1.72378
1.72097
1.71697
1.71241
1.70542
1.69579
1.68696
1.67952
1.67258
1.66579
1.65995
1.6534
1.64525
1.63528
1.62333
1.61592
1.61348
1.61287
1.61341
1.61427
1.61277
1.61011
1.60734
1.6045
1.60182
1.59771
1.58897
1.57802
1.57337
1.57313
1.57388
1.57524
1.57483
1.5746
1.57584
1.58023
1.58763
1.59434
1.59805
1.59923
1.59565
1.58423
1.57704
1.57586
1.5749
1.57444
1.57673
1.58078
1.58125
1.57936
1.57668
1.57389
1.56994
1.56316
1.55414
1.54362
1.53509
1.53237
1.53147
1.53113
1.53104
1.52988
1.52846
1.52814
1.53132
1.53625
1.53598
1.53399
1.53161
1.52835
1.52302
1.51023
1.48448
1.46145
1.45343
1.45122
1.45043
1.45021
1.4515
1.45713
1.46809
1.48292
1.49925
1.51905
1.53193
1.53359
1.53183
1.52645
1.51672
1.49971
1.47152
1.44493
1.43702
1.43546
1.43476
1.43441
1.43552
1.43663
1.43621
1.4352
1.43305
1.42719
1.41469
1.40088
1.39382
1.39058
1.38839
1.38698
1.38686
1.38993
1.39752
1.4056
1.40756
1.40597
1.40247
1.39502
1.38228
1.36899
1.36446
1.3635
1.36252
1.36147
1.36029
1.35884
1.35698
1.35512
1.35567
1.36221
1.36749
1.3654
1.36265
1.3602
1.35581
1.34569
1.32527
1.29753
1.27722
1.2708
1.2693
1.26837
1.26734
1.2664
1.26693
1.26824
1.27223
1.2758
1.27454
1.27162
1.2688
1.26553
1.26112
1.25584
1.25241
1.25155
1.25118
1.2498
1.24842
1.24852
1.24998
1.25012
1.24914
1.24833
1.24829
1.24716
1.2439
1.23678
1.22611
1.22109
1.22006
1.21953
1.21968
1.22214
1.22903
1.23997
1.25139
1.25755
1.25909
1.25649
1.25221
1.25146
1.25087
1.24946
1.2477
1.24623
1.2453
1.24436
1.24302
1.24091
1.2382
1.23568
1.23121
1.9515
1.94939
1.94801
1.94804
1.94925
1.94918
1.94887
1.94638
1.93973
1.92487
1.90577
1.89568
1.89329
1.89144
1.89006
1.88981
1.88969
1.88735
1.88548
1.88316
1.87741
1.86095
1.83529
1.82362
1.82173
1.8198
1.81875
1.82019
1.82551
1.82676
1.82575
1.82555
1.82483
1.82065
1.80787
1.78802
1.78168
1.78179
1.78359
1.78824
1.79833
1.81614
1.83018
1.83218
1.83062
1.82686
1.8184
1.80054
1.7735
1.75636
1.75082
1.74667
1.74206
1.73808
1.73526
1.73342
1.73325
1.73208
1.72959
1.72771
1.72861
1.72982
1.72647
1.72221
1.71787
1.71219
1.70439
1.69334
1.67895
1.66411
1.65416
1.65045
1.64869
1.6484
1.64617
1.64233
1.63542
1.62399
1.61405
1.60987
1.60869
1.60741
1.60698
1.60618
1.60366
1.6016
1.59957
1.59716
1.59156
1.58071
1.57038
1.56581
1.56446
1.56361
1.56268
1.56202
1.56231
1.56467
1.57028
1.57775
1.58297
1.58569
1.58609
1.57976
1.57094
1.56985
1.5703
1.57045
1.57234
1.57766
1.57912
1.57723
1.57442
1.57117
1.56732
1.56241
1.55447
1.54183
1.52681
1.52171
1.52142
1.52137
1.52291
1.52473
1.52383
1.52313
1.52517
1.52984
1.53254
1.53122
1.5285
1.52584
1.52151
1.51134
1.48654
1.45511
1.44199
1.43893
1.43771
1.43734
1.4381
1.44441
1.45965
1.48089
1.50648
1.52312
1.5293
1.53012
1.52861
1.52315
1.51021
1.4827
1.45058
1.43473
1.43075
1.42961
1.42937
1.42988
1.43281
1.43563
1.43519
1.43452
1.4331
1.4282
1.41434
1.39586
1.3881
1.38512
1.3826
1.38085
1.38079
1.38571
1.39771
1.40799
1.40857
1.40752
1.40571
1.40115
1.39086
1.37315
1.36194
1.36042
1.35941
1.35833
1.35715
1.35575
1.35397
1.35188
1.35109
1.35494
1.3615
1.36281
1.36128
1.35914
1.35488
1.34428
1.31668
1.27973
1.26752
1.26633
1.26567
1.26493
1.26412
1.26395
1.26569
1.27152
1.27746
1.27688
1.2737
1.27049
1.26627
1.25885
1.25104
1.24836
1.24789
1.24808
1.24919
1.25222
1.25537
1.25577
1.2544
1.25149
1.24648
1.24248
1.24023
1.23727
1.23107
1.2212
1.21593
1.21492
1.21451
1.21432
1.21526
1.21864
1.22669
1.24124
1.25318
1.25659
1.25737
1.25501
1.24465
1.24004
1.24001
1.23936
1.23841
1.23834
1.23912
1.24094
1.24137
1.24006
1.23769
1.23539
1.23141
1.93783
1.93605
1.93454
1.93404
1.93822
1.94495
1.9472
1.94582
1.94196
1.93327
1.91179
1.88966
1.88301
1.8813
1.87963
1.87842
1.87973
1.88283
1.88201
1.88037
1.87748
1.86959
1.84613
1.81703
1.8082
1.80599
1.80409
1.80302
1.80486
1.81164
1.81503
1.81505
1.81498
1.8139
1.809
1.79408
1.7753
1.77086
1.77149
1.77426
1.78057
1.7929
1.81088
1.82139
1.82237
1.82073
1.81585
1.80522
1.78248
1.753
1.73907
1.73467
1.73142
1.72884
1.72673
1.72509
1.72526
1.72713
1.72851
1.73145
1.73395
1.73133
1.72686
1.7226
1.71859
1.71353
1.70438
1.68872
1.66714
1.64997
1.64336
1.64061
1.63862
1.63844
1.64216
1.64256
1.63926
1.63307
1.62125
1.6092
1.60408
1.60297
1.60214
1.60157
1.59981
1.59782
1.59602
1.5938
1.59089
1.58538
1.57306
1.5583
1.55389
1.55266
1.55173
1.55093
1.55111
1.55262
1.55604
1.56145
1.56741
1.572
1.57488
1.57484
1.56708
1.5622
1.56334
1.56412
1.56478
1.56815
1.57366
1.57387
1.57174
1.56852
1.5644
1.55985
1.55302
1.54119
1.52567
1.51382
1.51153
1.5112
1.51153
1.51411
1.51735
1.51918
1.52143
1.52633
1.52987
1.52947
1.52678
1.52351
1.51911
1.50994
1.48706
1.45254
1.43431
1.43112
1.43032
1.43007
1.43105
1.43782
1.45741
1.48567
1.50293
1.51327
1.52027
1.52283
1.52229
1.51696
1.49727
1.46151
1.43876
1.43107
1.42641
1.42444
1.42473
1.42635
1.43389
1.43852
1.43778
1.43687
1.43525
1.42966
1.41474
1.394
1.38407
1.38104
1.37856
1.37651