/*--------------------------------*- C++ -*----------------------------------*\
  =========                 |
  \\      /  F ield         | OpenFOAM: The Open Source CFD Toolbox
   \\    /   O peration     | Website:  https://openfoam.org
    \\  /    A nd           | Version:  7
     \\/     M anipulation  |
\*---------------------------------------------------------------------------*/
FoamFile
{
    version     2.0;
    format      ascii;
    class       volScalarField;
    location    "1";
    object      p;
}
// * * * * * * * * * * * * * * * * * * * * * * * * * * * * * * * * * * * * * //

dimensions      [1 -1 -2 0 0 0 0];

internalField   nonuniform List<scalar> 
16512
(
0.257404
0.294344
0.342217
0.392047
0.413571
0.433538
0.455505
0.467369
0.492498
0.52473
0.560817
0.600065
0.650313
0.683867
0.695044
0.710556
0.720622
0.717703
0.721392
0.741618
0.78896
0.844869
0.893969
0.912228
0.915118
0.913626
0.905295
0.902531
0.915207
0.947958
0.998235
1.02421
1.02925
1.0332
1.03269
1.03381
1.03994
1.04473
1.05756
1.0915
1.12775
1.13987
1.14505
1.14774
1.15085
1.15343
1.15979
1.17244
1.17985
1.17845
1.17349
1.16694
1.16594
1.16923
1.17999
1.20207
1.21944
1.22195
1.22181
1.21699
1.20885
1.20727
1.20908
1.21413
1.22665
1.24156
1.24772
1.25025
1.25148
1.25168
1.25213
1.25221
1.25374
1.25841
1.26596
1.27121
1.27406
1.27642
1.27855
1.28035
1.28267
1.28599
1.28984
1.29163
1.2917
1.29052
1.28838
1.2862
1.2847
1.28421
1.28577
1.29041
1.29321
1.2914
1.28812
1.28472
1.28302
1.28365
1.28518
1.28791
1.29319
1.296
1.296
1.295
1.29219
1.28974
1.28963
1.29081
1.29289
1.29584
1.29758
1.29831
1.2983
1.29643
2.0194
5.25174
6.0262
6.16286
6.27448
6.35877
6.43144
6.5003
6.56718
6.62069
6.6613
6.6867
6.70524
6.71613
6.72378
6.73921
6.7604
6.78539
6.80923
6.82691
6.83797
6.8503
6.86783
6.89012
6.91244
6.92844
6.93379
6.92923
6.91789
6.90324
6.88884
6.87796
6.87303
6.87449
6.88274
6.89769
6.91523
6.92779
6.9346
6.93142
6.95356
6.96545
6.96727
6.96665
6.94711
6.90815
6.87361
6.85988
6.87598
6.90879
6.92895
6.92415
6.90059
6.88034
6.8767
6.88419
6.88755
6.88272
6.87096
6.86237
6.8511
6.84368
0.173523
0.202211
0.228313
0.261424
0.291416
0.324106
0.363242
0.396813
0.428671
0.466889
0.513099
0.559424
0.596153
0.630027
0.649709
0.665685
0.683641
0.702777
0.718237
0.744404
0.786749
0.831381
0.865525
0.874436
0.877414
0.883883
0.889579
0.894258
0.908289
0.938536
0.981761
1.01436
1.02169
1.02589
1.02794
1.02716
1.03275
1.03806
1.05003
1.08119
1.11857
1.13301
1.13837
1.14114
1.14327
1.14442
1.14822
1.15975
1.1735
1.17907
1.18024
1.17946
1.17884
1.17927
1.18265
1.19271
1.20422
1.2075
1.20928
1.21018
1.21133
1.21387
1.2175
1.22379
1.23351
1.24064
1.24334
1.24422
1.24517
1.24777
1.25114
1.25577
1.2632
1.27005
1.27176
1.27133
1.26861
1.26614
1.26668
1.27048
1.27634
1.28364
1.28944
1.29051
1.2897
1.28807
1.28605
1.28435
1.28308
1.28261
1.28435
1.28845
1.29046
1.28913
1.28758
1.28562
1.28386
1.28402
1.28545
1.28727
1.29115
1.29443
1.295
1.29506
1.29405
1.29181
1.29039
1.29054
1.29151
1.29303
1.29484
1.29631
1.2976
1.29725
1.9236
5.15184
6.05238
6.17944
6.28897
6.37215
6.44448
6.51229
6.57535
6.62177
6.65782
6.68241
6.70337
6.71882
6.72762
6.74164
6.76147
6.78654
6.8116
6.83064
6.84181
6.85277
6.86874
6.89033
6.91299
6.92994
6.93618
6.93185
6.9203
6.90527
6.89041
6.87942
6.87492
6.87745
6.88677
6.90191
6.91862
6.92769
6.93312
6.9266
6.94492
6.95492
6.96133
6.96434
6.95129
6.92075
6.8899
6.87375
6.88066
6.90273
6.918
6.91717
6.9007
6.88602
6.88335
6.88516
6.88386
6.87713
6.86588
6.85959
6.85188
6.85187
0.175327
0.197405
0.20089
0.193926
0.200527
0.223044
0.264521
0.309584
0.342975
0.377042
0.424687
0.471078
0.501204
0.542568
0.583587
0.62029
0.658698
0.700581
0.735123
0.767895
0.803558
0.828096
0.847697
0.855385
0.861971
0.877556
0.895206
0.906439
0.929058
0.961908
0.991371
1.00545
1.00892
1.01232
1.01379
1.01788
1.03038
1.04653
1.06849
1.10444
1.12719
1.13148
1.13244
1.12919
1.13017
1.13246
1.13788
1.15245
1.17367
1.18783
1.19163
1.19238
1.19021
1.1875
1.18703
1.19014
1.19705
1.20104
1.20488
1.21
1.21513
1.22048
1.22768
1.23902
1.24818
1.2499
1.24897
1.24373
1.23707
1.23708
1.24078
1.24819
1.26203
1.27638
1.28143
1.28261
1.28217
1.2767
1.26959
1.26786
1.26983
1.2772
1.28717
1.29038
1.29052
1.28975
1.28711
1.28496
1.28378
1.28392
1.28748
1.2922
1.29269
1.29117
1.28838
1.28482
1.28238
1.28254
1.28419
1.2862
1.28951
1.29168
1.29233
1.29278
1.29239
1.29162
1.29219
1.29346
1.29436
1.29479
1.29511
1.2951
1.29523
1.2956
1.71399
4.93881
6.09809
6.20746
6.31136
6.39064
6.4599
6.5255
6.58588
6.62619
6.65509
6.67624
6.69941
6.7197
6.73164
6.74483
6.76135
6.78454
6.81154
6.83395
6.84703
6.85651
6.8689
6.88789
6.91079
6.9305
6.94019
6.93793
6.92634
6.90951
6.89236
6.88072
6.87806
6.88423
6.89603
6.90989
6.92154
6.92463
6.9262
6.91965
6.93531
6.9455
6.95485
6.95911
6.95186
6.93462
6.90936
6.89209
6.88613
6.89389
6.90306
6.90735
6.90315
6.89603
6.88928
6.88243
6.87689
6.87068
6.86205
6.85657
6.85068
6.85642
0.215383
0.215742
0.210586
0.209377
0.218036
0.232563
0.234933
0.242949
0.256722
0.269268
0.286125
0.305615
0.330864
0.381157
0.456625
0.527022
0.572909
0.621737
0.669455
0.701658
0.732904
0.766322
0.794505
0.816306
0.835385
0.862998
0.892702
0.907949
0.926387
0.952445
0.977801
0.988211
0.999174
1.00699
1.00958
1.01403
1.02492
1.04217
1.07093
1.10841
1.12214
1.12501
1.12413
1.11957
1.12229
1.12774
1.13445
1.14573
1.15939
1.1731
1.17796
1.17983
1.18005
1.17947
1.18183
1.18744
1.1958
1.20374
1.20795
1.21046
1.21197
1.21425
1.21936
1.23063
1.24146
1.24564
1.24735
1.24738
1.2443
1.24137
1.24226
1.24576
1.25282
1.26122
1.26735
1.27163
1.27455
1.276
1.27651
1.27667
1.27806
1.28283
1.28833
1.2896
1.28919
1.2864
1.28277
1.28137
1.28074
1.28152
1.28636
1.28981
1.29003
1.28986
1.28807
1.28477
1.28363
1.28475
1.28647
1.28843
1.29087
1.29167
1.29191
1.29127
1.28943
1.28874
1.29
1.29222
1.29512
1.29763
1.29841
1.29821
1.29774
1.29618
1.46125
4.58385
6.16293
6.25115
6.33774
6.40879
6.47194
6.53507
6.59256
6.63276
6.65701
6.67444
6.69752
6.72027
6.73518
6.74901
6.76326
6.78379
6.8107
6.83567
6.85195
6.86174
6.8711
6.88581
6.90601
6.9265
6.94016
6.94281
6.93459
6.91837
6.89897
6.88348
6.87857
6.88587
6.90048
6.91535
6.92473
6.92536
6.92381
6.92022
6.92539
6.93201
6.94185
6.94902
6.94877
6.94282
6.92793
6.908
6.88917
6.88218
6.88739
6.89742
6.90564
6.90763
6.89826
6.88365
6.87275
6.86626
6.85931
6.85359
6.84809
6.85701
0.28293
0.275697
0.264214
0.263573
0.273604
0.280483
0.279902
0.281493
0.284314
0.282125
0.278298
0.277672
0.279967
0.2891
0.312572
0.352494
0.390186
0.434563
0.494883
0.542027
0.587176
0.648728
0.704475
0.756229
0.791306
0.820644
0.855744
0.8727
0.889011
0.916777
0.943846
0.953543
0.969953
0.986468
0.999643
1.01595
1.03188
1.05202
1.08189
1.10782
1.11639
1.11796
1.11695
1.11557
1.1217
1.13097
1.1382
1.14478
1.15439
1.16812
1.17389
1.17605
1.17956
1.18449
1.18983
1.19549
1.20123
1.20399
1.20463
1.20549
1.20651
1.2102
1.21866
1.22935
1.23679
1.24134
1.24408
1.245
1.24413
1.24527
1.24767
1.25224
1.2571
1.25897
1.25977
1.2607
1.26315
1.26737
1.27249
1.27811
1.2841
1.28825
1.28941
1.2889
1.28569
1.28064
1.27869
1.27891
1.28059
1.28566
1.29221
1.29461
1.2953
1.2948
1.29091
1.28511
1.28221
1.28162
1.2825
1.28464
1.28844
1.29081
1.29186
1.29202
1.29126
1.29156
1.29265
1.29378
1.29474
1.29452
1.29394
1.29363
1.29388
1.29453
1.31147
4.05326
6.21013
6.32305
6.37348
6.42741
6.48142
6.53944
6.59082
6.6307
6.6578
6.6794
6.70233
6.72455
6.73848
6.75124
6.76436
6.78374
6.8097
6.83586
6.85505
6.86646
6.87486
6.88622
6.90237
6.92047
6.93534
6.94238
6.93964
6.92739
6.9085
6.88996
6.88069
6.88547
6.90027
6.91623
6.92579
6.9284
6.92459
6.92464
6.92092
6.92121
6.92712
6.93322
6.94024
6.94331
6.93968
6.91901
6.89207
6.87322
6.87606
6.89031
6.90847
6.91751
6.90663
6.88792
6.87262
6.86578
6.85937
6.85158
6.84328
6.85207
0.367146
0.359924
0.337154
0.331092
0.334488
0.339509
0.337462
0.330458
0.325765
0.320061
0.317755
0.318138
0.321031
0.327776
0.335853
0.333274
0.330541
0.333686
0.344743
0.360807
0.383618
0.426241
0.484736
0.554224
0.634988
0.695243
0.758091
0.805035
0.832807
0.873419
0.908412
0.924447
0.946992
0.965707
0.984634
1.00725
1.01893
1.03443
1.06415
1.0898
1.09848
1.09994
1.09983
1.10128
1.11211
1.12437
1.13306
1.14084
1.15335
1.16057
1.16179
1.16115
1.16442
1.17175
1.17979
1.18649
1.19147
1.19722
1.20214
1.20612
1.20875
1.21206
1.21698
1.2218
1.22447
1.2254
1.22686
1.23081
1.23793
1.24846
1.25866
1.26328
1.26472
1.26496
1.26164
1.25578
1.25459
1.25722
1.26425
1.27534
1.28394
1.28621
1.28691
1.28662
1.28418
1.28066
1.27987
1.28054
1.28306
1.28834
1.29168
1.29198
1.29113
1.28798
1.2819
1.27707
1.27598
1.2769
1.28076
1.28836
1.29563
1.29831
1.29867
1.29687
1.29274
1.2892
1.28798
1.28798
1.28885
1.29031
1.2917
1.29345
1.29592
1.29966
1.30084
3.40971
6.18573
6.42228
6.43462
6.46491
6.50311
6.55096
6.59498
6.63006
6.65776
6.68072
6.70466
6.72791
6.74185
6.75346
6.76495
6.78277
6.80751
6.83375
6.85465
6.86751
6.8757
6.88523
6.89914
6.9158
6.93126
6.94114
6.94261
6.9344
6.91723
6.89695
6.88334
6.88393
6.89754
6.91497
6.92741
6.93298
6.92983
6.92643
6.92048
6.91578
6.91523
6.91969
6.92656
6.93561
6.93653
6.92264
6.89497
6.87208
6.87225
6.8891
6.91206
6.92298
6.91252
6.89386
6.87705
6.8686
6.86135
6.84993
6.83558
6.84013
0.461385
0.447103
0.424835
0.411076
0.412107
0.415316
0.412089
0.400436
0.390876
0.380544
0.370796
0.367972
0.370441
0.378871
0.3793
0.372873
0.368131
0.367486
0.366719
0.368042
0.367796
0.371285
0.380019
0.396158
0.427905
0.472389
0.526143
0.597699
0.664341
0.72181
0.796942
0.852381
0.893634
0.926877
0.953857
0.984923
0.995474
1.00145
1.0278
1.05198
1.06791
1.07954
1.08658
1.09452
1.10579
1.11497
1.12284
1.13313
1.14714
1.15329
1.15422
1.15357
1.15721
1.1648
1.17223
1.17791
1.18121
1.18758
1.19787
1.20257
1.20524
1.2084
1.21274
1.21588
1.21672
1.21731
1.21936
1.22601
1.23949
1.25176
1.25658
1.25851
1.2602
1.26149
1.26046
1.25693
1.25516
1.25667
1.26415
1.2752
1.28079
1.28326
1.28494
1.28594
1.28625
1.28467
1.28329
1.2834
1.28353
1.28428
1.2843
1.28384
1.28284
1.28025
1.27668
1.27566
1.27688
1.28094
1.28823
1.29439
1.29609
1.29589
1.294
1.29031
1.2855
1.28354
1.28392
1.28652
1.29197
1.29763
1.30063
1.30136
1.30099
1.29908
1.29513
2.78968
6.06344
6.4873
6.46774
6.49314
6.52617
6.56625
6.60032
6.62626
6.65037
6.67704
6.70469
6.73042
6.74587
6.75488
6.76403
6.77841
6.80026
6.8258
6.848
6.86253
6.87098
6.87907
6.89098
6.90688
6.92401
6.93781
6.94354
6.93875
6.92392
6.90353
6.88645
6.88162
6.89183
6.91013
6.92649
6.93514
6.93637
6.92987
6.92445
6.91209
6.90745
6.90805
6.91418
6.92235
6.92454
6.91577
6.89613
6.87847
6.87907
6.89511
6.91491
6.9236
6.91443
6.89781
6.88391
6.87444
6.8646
6.84778
6.8254
6.82332
0.567044
0.539837
0.526729
0.508323
0.505145
0.50375
0.495849
0.477435
0.463137
0.450954
0.434587
0.424046
0.422182
0.426398
0.431376
0.427281
0.420629
0.419834
0.416237
0.405994
0.402307
0.403467
0.404282
0.406722
0.409109
0.412088
0.416041
0.426017
0.447835
0.478257
0.535215
0.618092
0.689312
0.767018
0.826406
0.884452
0.928798
0.953159
0.991671
1.02192
1.05203
1.08289
1.09538
1.09324
1.09125
1.09218
1.09734
1.11387
1.13765
1.14751
1.15027
1.14849
1.15309
1.15685
1.15839
1.15933
1.16146
1.1732
1.19161
1.19923
1.20389
1.20833
1.21149
1.21281
1.21333
1.21386
1.21669
1.22551
1.23785
1.24681
1.25035
1.25203
1.253
1.25371
1.25574
1.25854
1.25944
1.26089
1.26665
1.27282
1.27653
1.27901
1.28086
1.28179
1.28195
1.28103
1.28024
1.28057
1.28103
1.28242
1.28318
1.28251
1.28162
1.28041
1.27992
1.28051
1.28187
1.28374
1.28618
1.28876
1.28947
1.28927
1.28705
1.28288
1.2817
1.28251
1.28625
1.29319
1.29876
1.29995
1.29968
1.29837
1.29599
1.29279
1.28849
2.26217
5.87367
6.52609
6.5073
6.52389
6.54716
6.57695
6.60436
6.6296
6.65353
6.67865
6.70504
6.72911
6.74636
6.75347
6.76149
6.77346
6.79187
6.81414
6.83607
6.85329
6.8642
6.87204
6.88196
6.89663
6.91446
6.93115
6.94093
6.93965
6.92713
6.90787
6.88981
6.88155
6.88777
6.90517
6.92367
6.93562
6.93943
6.93447
6.92627
6.91185
6.90584
6.904
6.90758
6.9091
6.90938
6.90411
6.89473
6.88901
6.89363
6.90715
6.91678
6.91926
6.91001
6.89701
6.889
6.88211
6.86996
6.84737
6.81755
6.80358
0.706618
0.650508
0.617488
0.600867
0.600146
0.596427
0.582976
0.557839
0.533908
0.522019
0.504907
0.490882
0.489037
0.492199
0.496343
0.493474
0.477201
0.468518
0.465436
0.456743
0.450861
0.450129
0.448114
0.442918
0.44181
0.443506
0.441802
0.438243
0.437859
0.439139
0.443255
0.456337
0.47981
0.519113
0.572903
0.633465
0.719346
0.810678
0.89134
0.975014
1.02337
1.06138
1.07114
1.06896
1.06466
1.06243
1.07027
1.09752
1.12552
1.14227
1.14884
1.151
1.14878
1.1392
1.13538
1.13465
1.13769
1.15739
1.18455
1.19776
1.20596
1.2093
1.20964
1.20885
1.209
1.2113
1.21784
1.23024
1.23693
1.23801
1.23837
1.23753
1.23816
1.24143
1.2466
1.25238
1.26093
1.26949
1.27263
1.27369
1.27484
1.27576
1.27684
1.27718
1.27709
1.27673
1.27675
1.27742
1.27857
1.28084
1.2823
1.2829
1.28283
1.28263
1.28233
1.28232
1.28268
1.28308
1.28305
1.28285
1.2828
1.28222
1.28105
1.28082
1.28188
1.28514
1.29006
1.2939
1.29587
1.29639
1.29612
1.29446
1.29066
1.28774
1.28705
1.85983
5.5642
6.57928
6.56209
6.56637
6.57525
6.59433
6.61297
6.63411
6.65253
6.67305
6.69822
6.72258
6.74186
6.75395
6.75901
6.7652
6.77728
6.7957
6.81648
6.83544
6.84978
6.86043
6.87103
6.88469
6.90186
6.91914
6.93103
6.9326
6.92297
6.90637
6.89026
6.88193
6.88566
6.90043
6.91863
6.93205
6.93701
6.93413
6.92564
6.91456
6.90741
6.90581
6.90497
6.90165
6.89811
6.89341
6.89206
6.89876
6.90849
6.91902
6.91909
6.91086
6.89795
6.88992
6.88911
6.88851
6.87661
6.85025
6.81346
6.78475
0.828299
0.795188
0.743837
0.698959
0.692646
0.691615
0.676939
0.65009
0.612942
0.590033
0.578343
0.564615
0.556602
0.552393
0.553853
0.555302
0.544711
0.524812
0.514771
0.505019
0.501333
0.498293
0.492657
0.486376
0.486119
0.487611
0.485372
0.476659
0.471481
0.469193
0.465233
0.465991
0.466197
0.465662
0.468041
0.476237
0.498935
0.545085
0.60418
0.695285
0.785438
0.869027
0.938126
0.97149
1.00475
1.02062
1.04863
1.10264
1.13982
1.14833
1.14964
1.14437
1.12633
1.1091
1.11016
1.11511
1.12815
1.15692
1.18218
1.19258
1.19934
1.20057
1.19804
1.1959
1.19646
1.20285
1.22084
1.23605
1.23921
1.23828
1.23127
1.22599
1.22676
1.22864
1.23281
1.243
1.25803
1.26945
1.27422
1.27677
1.27833
1.27804
1.2747
1.27248
1.27158
1.27098
1.27145
1.27384
1.27716
1.27952
1.28076
1.28124
1.28089
1.28034
1.27996
1.27984
1.28024
1.28102
1.28173
1.28171
1.28153
1.28095
1.28071
1.28188
1.28423
1.28717
1.2897
1.29146
1.29198
1.29176
1.29017
1.28791
1.28696
1.28738
1.28848
1.56826
5.18845
6.59982
6.57607
6.57554
6.58243
6.59556
6.61036
6.6253
6.63931
6.66125
6.68947
6.71542
6.73573
6.74972
6.75244
6.7541
6.76253
6.77659
6.79507
6.81456
6.83208
6.84667
6.8593
6.8726
6.88826
6.90517
6.91835
6.92246
6.91577
6.90219
6.88903
6.88263
6.88599
6.89802
6.91386
6.92656
6.9323
6.93148
6.92583
6.91785
6.91179
6.90971
6.90137
6.8977
6.89061
6.88816
6.8921
6.90468
6.91915
6.9252
6.91876
6.90082
6.88327
6.87962
6.8865
6.89233
6.88187
6.8544
6.81365
6.77231
0.936482
0.922915
0.891353
0.828335
0.790443
0.782241
0.771223
0.746753
0.705551
0.658413
0.641836
0.63662
0.633153
0.624192
0.611952
0.611974
0.608389
0.591108
0.571594
0.557986
0.555312
0.55295
0.544676
0.533243
0.5321
0.5322
0.529014
0.519233
0.513562
0.511332
0.506388
0.499285
0.494976
0.489268
0.484267
0.484706
0.486973
0.490712
0.496287
0.50948
0.538378
0.582516
0.656064
0.75206
0.849365
0.950842
1.02363
1.08654
1.11817
1.12131
1.12269
1.11729
1.09257
1.08323
1.09453
1.12039
1.14848
1.1734
1.18188
1.18037
1.17543
1.16904
1.16724
1.17029
1.17632
1.1956
1.22442
1.23529
1.2373
1.23791
1.23444
1.22652
1.22226
1.22216
1.22546
1.23609
1.25299
1.2655
1.27027
1.27241
1.27339
1.27276
1.26997
1.26649
1.26561
1.2661
1.26806
1.27256
1.27701
1.27815
1.27826
1.27807
1.27654
1.2752
1.27502
1.27516
1.27582
1.27701
1.27905
1.28117
1.28224
1.28263
1.28299
1.28398
1.28534
1.28662
1.28776
1.28809
1.28764
1.2861
1.28507
1.28519
1.28602
1.28912
1.29213
1.34336
4.73774
6.59336
6.57324
6.57355
6.58604
6.6027
6.61698
6.62539
6.63682
6.65849
6.68818
6.71521
6.73366
6.74375
6.74157
6.73975
6.747
6.75923
6.77424
6.79073
6.80806
6.82564
6.84299
6.85961
6.87512
6.88888
6.89936
6.90404
6.90145
6.89355
6.88537
6.88224
6.8866
6.89685
6.90906
6.91927
6.92511
6.92595
6.92401
6.92045
6.91546
6.914
6.90614
6.89419
6.88926
6.88642
6.89329
6.90785
6.92094
6.9237
6.91403
6.89412
6.87292
6.87023
6.88052
6.88899
6.88236
6.85695
6.81875
6.77145
1.08103
1.03899
1.01844
0.980398
0.919754
0.868807
0.85279
0.835851
0.803622
0.758793
0.715969
0.700869
0.70216
0.704927
0.692298
0.673905
0.666282
0.652843
0.625507
0.606247
0.603707
0.603776
0.59826
0.583002
0.580633
0.580185
0.574483
0.56086
0.55537
0.553701
0.549831
0.53767
0.533231
0.53082
0.523592
0.517889
0.51704
0.515749
0.51331
0.512539
0.509539
0.510114
0.517056
0.539862
0.585867
0.676332
0.78278
0.876279
0.952358
0.98984
1.02564
1.04925
1.05309
1.06274
1.09665
1.14081
1.16631
1.17731
1.17809
1.16933
1.14824
1.13669
1.14189
1.15064
1.16966
1.2003
1.22434
1.22844
1.23022
1.23148
1.22898
1.2252
1.22665
1.22877
1.23043
1.2377
1.24875
1.25383
1.25532
1.25711
1.25878
1.26041
1.26183
1.26387
1.26579
1.26775
1.2706
1.27458
1.27685
1.27749
1.27759
1.27682
1.27446
1.27177
1.27046
1.27035
1.2711
1.27342
1.278
1.28249
1.28375
1.28413
1.28423
1.2841
1.28451
1.28506
1.28501
1.28404
1.28273
1.28303
1.28391
1.28538
1.28865
1.29243
1.2936
1.2955
4.16966
6.51565
6.56808
6.58171
6.59826
6.61389
6.62616
6.63305
6.64331
6.66245
6.68943
6.71455
6.73033
6.73507
6.72996
6.72927
6.73678
6.74401
6.75036
6.76079
6.77701
6.79846
6.82274
6.84535
6.86242
6.87315
6.87903
6.88221
6.8828
6.88065
6.8783
6.87969
6.88652
6.89627
6.90578
6.91295
6.91731
6.91993
6.9208
6.9212
6.91876
6.91313
6.909
6.89258
6.88546
6.88773
6.89507
6.90661
6.91685
6.91584
6.90597
6.89093
6.87333
6.86449
6.87218
6.8782
6.87539
6.85688
6.82665
6.78431
1.27205
1.17619
1.12252
1.10202
1.06798
1.00352
0.932944
0.902203
0.881242
0.852514
0.812768
0.78222
0.775135
0.777174
0.772362
0.751188
0.729916
0.710801
0.680278
0.658755
0.656244
0.657598
0.653923
0.639333
0.631108
0.628418
0.620649
0.603529
0.594379
0.594084
0.591761
0.581557
0.573306
0.570673
0.565152
0.5563
0.55439
0.552905
0.548479
0.540431
0.531829
0.526644
0.526647
0.528645
0.532664
0.543282
0.566794
0.602478
0.657355
0.732824
0.815815
0.906062
0.981371
1.03069
1.07575
1.12358
1.14866
1.15315
1.15177
1.13875
1.12035
1.11727
1.12941
1.15422
1.18487
1.21473
1.22133
1.21789
1.21211
1.20869
1.21119
1.21489
1.21793
1.22449
1.24028
1.25115
1.25358
1.25133
1.24364
1.242
1.24342
1.24624
1.25126
1.25884
1.26601
1.27056
1.27413
1.27535
1.27499
1.27466
1.27478
1.27469
1.27429
1.27344
1.27118
1.26845
1.26824
1.27097
1.27712
1.2813
1.28204
1.28237
1.28236
1.28219
1.28228
1.282
1.28142
1.28114
1.28192
1.28369
1.28644
1.28942
1.29103
1.29123
1.29109
1.29018
3.57992
6.41963
6.5745
6.59046
6.60847
6.62264
6.63233
6.63865
6.6477
6.66349
6.685
6.70122
6.70814
6.70729
6.70742
6.71403
6.72264
6.7296
6.73125
6.73602
6.74965
6.77235
6.80123
6.82816
6.8472
6.85802
6.86172
6.86266
6.8627
6.864
6.86732
6.87362
6.8828
6.89394
6.90293
6.90768
6.91004
6.9125
6.91532
6.91764
6.91736
6.91429
6.90338
6.89658
6.88224
6.88555
6.89347
6.90276
6.9071
6.90663
6.89919
6.8926
6.88317
6.86669
6.85949
6.85948
6.86118
6.85335
6.8358
6.80829
1.43528
1.35297
1.25104
1.19645
1.17895
1.14038
1.06835
0.984318
0.945298
0.930778
0.911625
0.880117
0.855791
0.845198
0.8389
0.825587
0.801005
0.772777
0.737296
0.716535
0.714058
0.713864
0.710449
0.699352
0.684359
0.676313
0.664874
0.644719
0.632703
0.632387
0.63119
0.622826
0.614797
0.612558
0.60796
0.597815
0.594222
0.591226
0.584848
0.573249
0.562528
0.560285
0.55879
0.555889
0.553438
0.553677
0.554131
0.551753
0.54983
0.557026
0.582241
0.637668
0.737021
0.840295
0.942425
1.01217
1.0478
1.0749
1.08488
1.09305
1.10368
1.11137
1.12667
1.16033
1.19412
1.20951
1.21151
1.20894
1.19721
1.18242
1.18247
1.18631
1.19323
1.21515
1.24649
1.25639
1.25767
1.25629
1.24587
1.23502
1.23519
1.23787
1.24402
1.25622
1.26846
1.2723
1.27288
1.27239
1.27159
1.27086
1.27049
1.27052
1.27065
1.27053
1.27085
1.27056
1.26966
1.27108
1.27505
1.27817
1.27928
1.27995
1.28009
1.27904
1.27737
1.27661
1.27683
1.27835
1.28264
1.28832
1.29166
1.29262
1.29207
1.29033
1.28885
1.28593
3.03386
6.26398
6.58944
6.60537
6.61623
6.62436
6.63192
6.63938
6.64843
6.6573
6.66654
6.67334
6.67735
6.68018
6.68853
6.70071
6.70913
6.71392
6.71814
6.722
6.73034
6.74595
6.7713
6.80125
6.82541
6.83815
6.8435
6.84556
6.84615
6.84773
6.85175
6.86084
6.87385
6.88732
6.89806
6.90335
6.9044
6.90505
6.90829
6.91112
6.91275
6.90953
6.90416
6.89486
6.88768
6.88505
6.89028
6.89425
6.89724
6.89543
6.89505
6.8941
6.89189
6.87579
6.84652
6.83739
6.83972
6.84149
6.84239
6.8369
1.57003
1.50054
1.42006
1.3229
1.2618
1.2334
1.1905
1.1128
1.03029
1.00583
1.00038
0.983847
0.957916
0.931031
0.900138
0.881659
0.864575
0.838681
0.79977
0.783418
0.777931
0.767902
0.762794
0.756638
0.740681
0.725832
0.711012
0.68778
0.673262
0.672473
0.672684
0.666203
0.654864
0.652968
0.649427
0.63896
0.631916
0.628644
0.621
0.606756
0.596986
0.595727
0.594668
0.5912
0.587114
0.58331
0.578623
0.569453
0.55669
0.554413
0.555562
0.56168
0.580147
0.619912
0.684315
0.767476
0.843852
0.916731
0.976975
1.02259
1.06299
1.0796
1.10046
1.14339
1.17429
1.18031
1.18495
1.18634
1.17628
1.16082
1.16083
1.16465
1.17512
1.20367
1.23913
1.24996
1.25157
1.25093
1.24391
1.24009
1.24233
1.24445
1.24763
1.25909
1.26801
1.26946
1.26979
1.26819
1.26634
1.26505
1.26344
1.26267
1.26314
1.26419
1.2658
1.26786
1.27112
1.27297
1.27419
1.27558
1.2764
1.27651
1.27556
1.27278
1.27109
1.27157
1.27347
1.27858
1.28707
1.2914
1.29229
1.29246
1.29148
1.28899
1.28525
1.28038
2.52735
6.07106
6.60402
6.61367
6.61983
6.62461
6.63036
6.63481
6.63652
6.63715
6.63753
6.64138
6.64773
6.65717
6.67183
6.68611
6.6949
6.6995
6.70573
6.71114
6.7164
6.72437
6.73998
6.76418
6.79208
6.81631
6.83009
6.83263
6.83281
6.83323
6.83521
6.8414
6.85511
6.87358
6.88937
6.89808
6.89979
6.89903
6.89995
6.90304
6.9048
6.90441
6.90093
6.89362
6.88702
6.8821
6.88452
6.88503
6.88468
6.88701
6.88904
6.89253
6.89144
6.87722
6.84491
6.81772
6.81548
6.82777
6.84502
6.8575
1.71524
1.61577
1.55809
1.48312
1.38239
1.30691
1.27483
1.22942
1.16498
1.10031
1.07445
1.0694
1.05496
1.02886
0.99236
0.940851
0.915878
0.895683
0.863174
0.851367
0.846104
0.832116
0.817756
0.813161
0.799355
0.774026
0.753797
0.731145
0.715422
0.713631
0.714674
0.711481
0.699241
0.692981
0.688402
0.677434
0.664331
0.65978
0.652883
0.639291
0.632639
0.632297
0.630651
0.627493
0.624612
0.620444
0.612031
0.599507
0.583281
0.573907
0.573109
0.574362
0.580783
0.584878
0.589877
0.598821
0.616058
0.646386
0.701829
0.776453
0.860015
0.944145
1.00403
1.06846
1.11048
1.13134
1.15228
1.16317
1.15703
1.14518
1.1476
1.16124
1.17751
1.19921
1.21939
1.22126
1.22343
1.22887
1.23139
1.23297
1.23662
1.24085
1.25014
1.26091
1.26415
1.26535
1.26582
1.26497
1.26413
1.26257
1.25881
1.25547
1.25497
1.25552
1.25826
1.26476
1.27193
1.27467
1.27541
1.27485
1.27286
1.27012
1.26723
1.26556
1.2662
1.26836
1.27252
1.28042
1.28805
1.29002
1.29077
1.29098
1.28912
1.28423
1.2792
1.27582
2.08321
5.80462
6.63577
6.63642
6.63311
6.6262
6.62246
6.62077
6.61876
6.61546
6.61197
6.61165
6.62019
6.63888
6.65903
6.67372
6.68189
6.68658
6.69284
6.6989
6.70285
6.70381
6.70924
6.72429
6.74942
6.78082
6.80993
6.82781
6.82866
6.82092
6.81593
6.81832
6.82953
6.85009
6.8722
6.88731
6.89339
6.89338
6.89221
6.89302
6.89433
6.89568
6.89522
6.89626
6.88839
6.88293
6.87615
6.87394
6.87443
6.8762
6.8826
6.88551
6.88282
6.87143
6.84436
6.81268
6.79804
6.81475
6.8438
6.86824
1.86863
1.74445
1.66198
1.6064
1.52525
1.41914
1.35759
1.32135
1.28411
1.23782
1.1756
1.13847
1.12822
1.11298
1.08241
1.02189
0.972213
0.954629
0.931067
0.916964
0.912845
0.902664
0.878641
0.864019
0.851499
0.824637
0.795161
0.778144
0.76319
0.757644
0.758424
0.757803
0.748457
0.737833
0.730611
0.718747
0.698798
0.688514
0.683325
0.673598
0.667976
0.667277
0.664899
0.660149
0.656879
0.652773
0.64284
0.628391
0.618471
0.609936
0.604826
0.602897
0.602431
0.601361
0.599685
0.598553
0.592033
0.586915
0.590675
0.606693
0.64354
0.714882
0.807072
0.897222
0.985618
1.04798
1.09644
1.12243
1.12557
1.12766
1.14092
1.16704
1.20021
1.21236
1.21238
1.20408
1.19698
1.19918
1.20473
1.21151
1.21926
1.23222
1.24903
1.2568
1.25883
1.26089
1.26086
1.26189
1.26244
1.26214
1.26028
1.25477
1.25209
1.25326
1.25644
1.26358
1.27109
1.27308
1.27308
1.27123
1.26616
1.26153
1.26033
1.26068
1.2627
1.26733
1.27445
1.28228
1.28546
1.28601
1.28625
1.28542
1.28171
1.27608
1.27396
1.27339
1.7246
5.44747
6.64992
6.62757
6.62099
6.6143
6.61087
6.61024
6.60772
6.60148
6.59465
6.59437
6.60489
6.62741
6.65028
6.66515
6.67119
6.67245
6.67534
6.6806
6.6853
6.68605
6.68751
6.69551
6.71309
6.74229
6.77654
6.80588
6.82216
6.81744
6.80218
6.79356
6.79929
6.8173
6.84354
6.86812
6.88229
6.88572
6.88403
6.88182
6.8822
6.88384
6.88859
6.88976
6.89074
6.8793
6.87243
6.86114
6.86076
6.86988
6.87229
6.87438
6.87017
6.85918
6.84142
6.81519
6.79808
6.80858
6.83544
6.86525
2.0051
1.89609
1.78237
1.70742
1.63764
1.55764
1.48407
1.40953
1.3692
1.34769
1.30371
1.23997
1.19844
1.17693
1.14987
1.1015
1.0407
1.01823
1.00333
0.986795
0.977914
0.970741
0.951869
0.919775
0.896581
0.870877
0.838506
0.826092
0.820764
0.809959
0.803656
0.802843
0.796712
0.781813
0.769077
0.753756
0.730679
0.717547
0.716642
0.714026
0.708788
0.705664
0.701331
0.693561
0.684497
0.675966
0.664412
0.653721
0.650659
0.647531
0.64211
0.637275
0.633592
0.630631
0.625625
0.617694
0.604902
0.596213
0.595764
0.596909
0.600838
0.609801
0.628564
0.659193
0.709921
0.772229
0.839148
0.917262
0.986692
1.04725
1.09368
1.13854
1.18901
1.20839
1.2136
1.21299
1.19901
1.18173
1.18068
1.18466
1.19717
1.22065
1.24371
1.25393
1.25605
1.25502
1.25201
1.25372
1.25567
1.25636
1.25645
1.25686
1.25662
1.25824
1.26089
1.26508
1.26949
1.26931
1.26767
1.26479
1.25947
1.2559
1.25605
1.25777
1.26216
1.26975
1.2778
1.28109
1.28184
1.28164
1.27994
1.27591
1.27117
1.27018
1.27131
1.27298
1.44973
5.01248
6.63725
6.61501
6.60285
6.59968
6.60483
6.60502
6.60061
6.59313
6.58695
6.58738
6.59708
6.61803
6.64051
6.65504
6.6588
6.65565
6.65337
6.65684
6.66378
6.66936
6.67202
6.67434
6.6823
6.70384
6.74024
6.77642
6.80217
6.81068
6.79478
6.77374
6.7664
6.779
6.80585
6.83787
6.86196
6.8729
6.87302
6.86889
6.86553
6.86764
6.87331
6.8835
6.88444
6.88003
6.86421
6.85874
6.85034
6.858
6.866
6.86152
6.85359
6.84477
6.83233
6.81883
6.80781
6.81192
6.82114
6.84898
2.1273
2.02497
1.92149
1.83031
1.74015
1.6714
1.61851
1.53976
1.45919
1.42946
1.40021
1.35574
1.30007
1.24328
1.19982
1.16768
1.12885
1.08801
1.07388
1.06189
1.04185
1.03174
1.01782
0.982325
0.940755
0.911934
0.884295
0.872442
0.871626
0.866094
0.852595
0.847947
0.844104
0.829335
0.809537
0.788209
0.762262
0.75175
0.75147
0.752768
0.748847
0.745098
0.741176
0.733171
0.719155
0.700317
0.684813
0.680341
0.679678
0.678684
0.675293
0.67052
0.666194
0.662252
0.656712
0.64589
0.632027
0.621115
0.615531
0.614026
0.614674
0.616162
0.617458
0.617713
0.618667
0.623304
0.638126
0.681548
0.765132
0.857882
0.946202
1.02318
1.0945
1.15484
1.18251
1.19203
1.19521
1.1891
1.16928
1.1724
1.19268
1.22349
1.24058
1.24858
1.24882
1.24382
1.23724
1.2366
1.2393
1.2429
1.2478
1.25132
1.25523
1.26192
1.26516
1.26616
1.2656
1.26199
1.25879
1.2564
1.254
1.25459
1.25623
1.25837
1.26397
1.27244
1.27619
1.27746
1.27809
1.27642
1.27091
1.26568
1.26492
1.2665
1.27034
1.27516
1.29534
4.48809
6.5688
6.58852
6.5873
6.58895
6.59357
6.59909
6.59823
6.59068
6.58482
6.58403
6.59147
6.605
6.62136
6.63521
6.63991
6.63414
6.62911
6.6331
6.64338
6.65536
6.66049
6.65697
6.65434
6.66679
6.70059
6.74328
6.7785
6.79507
6.78662
6.76066
6.73789
6.73769
6.76114
6.7987
6.83304
6.85314
6.85805
6.85267
6.84626
6.84522
6.85405
6.86616
6.87731
6.87128
6.86133
6.84574
6.84935
6.84777
6.85618
6.84858
6.83788
6.82594
6.82166
6.8176
6.81764
6.8168
6.80711
6.83182
2.25745
2.145
2.0453
1.96232
1.86868
1.77497
1.72322
1.661
1.58628
1.52491
1.4722
1.43636
1.39641
1.33749
1.2592
1.22633
1.20734
1.17303
1.14998
1.13622
1.11308
1.09127
1.07304
1.03916
0.986755
0.958451
0.940952
0.927574
0.924811
0.921924
0.909531
0.894054
0.884487
0.868008
0.842972
0.823268
0.803463
0.791348
0.790003
0.790872
0.787372
0.782117
0.77771
0.768624
0.748305
0.722008
0.711474
0.71088
0.710491
0.709281
0.706812
0.702315
0.695807
0.68799
0.678722
0.665229
0.656251
0.654185
0.651904
0.647996
0.644234
0.640182
0.634369
0.628958
0.622478
0.615584
0.614124
0.616164
0.627355
0.656389
0.714024
0.799067
0.878325
0.956673
1.01644
1.06606
1.12227
1.15128
1.15705
1.17919
1.21554
1.24026
1.24516
1.24385
1.23791
1.23146
1.22656
1.2233
1.22547
1.22856
1.23288
1.24078
1.25284
1.26011
1.26201
1.26276
1.26073
1.2552
1.25146
1.2493
1.24888
1.25052
1.25322
1.25786
1.26632
1.27107
1.27228
1.27336
1.27244
1.26673
1.26051
1.25909
1.26005
1.26431
1.27332
1.2823
1.28358
3.86481
6.4596
6.58472
6.58089
6.58434
6.59124
6.59839
6.59677
6.59071
6.585
6.58233
6.58195
6.58669
6.59653
6.60605
6.61077
6.60658
6.60603
6.61496
6.62892
6.64314
6.64712
6.63646
6.62434
6.62993
6.65921
6.7041
6.74772
6.77262
6.7721
6.74804
6.72002
6.7076
6.72262
6.7569
6.7966
6.82476
6.83573
6.8328
6.82364
6.81897
6.82482
6.84239
6.85722
6.86319
6.8528
6.84375
6.8375
6.8434
6.84541
6.83628
6.81919
6.81034
6.80644
6.81293
6.81922
6.81741
6.79896
6.81544
2.38109
2.267
2.17022
2.07664
1.98966
1.90496
1.83116
1.75381
1.69246
1.63834
1.56793
1.50447
1.46547
1.4185
1.34916
1.30086
1.2789
1.25409
1.2307
1.21036
1.18227
1.14893
1.12194
1.08692
1.03888
1.01119
1.00001
0.987367
0.98023
0.975773
0.966372
0.948526
0.927024
0.900478
0.868573
0.857505
0.85033
0.838543
0.833197
0.831792
0.827417
0.820416
0.814549
0.802608
0.77558
0.748954
0.743282
0.741532
0.740109
0.740734
0.740572
0.737034
0.730602
0.718969
0.698456
0.681407
0.677787
0.677265
0.67945
0.678991
0.675205
0.671681
0.667461
0.657767
0.642529
0.627805
0.622302
0.622022
0.624942
0.630372
0.637877
0.649348
0.667388
0.700508
0.75791
0.8285
0.911859
0.998042
1.07719
1.14593
1.19573
1.21953
1.22543
1.22223