/*--------------------------------*- C++ -*----------------------------------*\
  =========                 |
  \\      /  F ield         | OpenFOAM: The Open Source CFD Toolbox
   \\    /   O peration     | Website:  https://openfoam.org
    \\  /    A nd           | Version:  7
     \\/     M anipulation  |
\*---------------------------------------------------------------------------*/
FoamFile
{
    version     2.0;
    format      ascii;
    class       volScalarField;
    location    "7";
    object      T;
}
// * * * * * * * * * * * * * * * * * * * * * * * * * * * * * * * * * * * * * //

dimensions      [0 0 0 1 0 0 0];

internalField   nonuniform List<scalar> 
3328
(
3.77749
2.74952
2.52925
2.53273
2.53595
2.53956
2.5432
2.54697
2.55094
2.5553
2.56017
2.56561
2.57161
2.57803
2.58468
2.59124
2.59746
2.60369
2.61106
2.62167
2.63753
2.66052
2.6819
2.6915
3.77759
2.74961
2.52922
2.53266
2.53588
2.53947
2.54312
2.54688
2.55086
2.55521
2.56007
2.56549
2.57142
2.57777
2.58435
2.59085
2.59701
2.60316
2.61048
2.62095
2.63657
2.65935
2.68054
2.69004
3.77811
2.74967
2.52939
2.53272
2.53592
2.53949
2.54312
2.54687
2.55083
2.55514
2.55993
2.56523
2.57101
2.57718
2.58359
2.58993
2.59593
2.60188
2.60906
2.61933
2.63475
2.65739
2.67855
2.6881
3.7792
2.75011
2.52982
2.53297
2.53611
2.53963
2.54325
2.54698
2.5509
2.55515
2.55982
2.56493
2.57047
2.57635
2.58246
2.58854
2.59435
2.60008
2.6071
2.61707
2.63203
2.65409
2.67483
2.68416
3.78095
2.75089
2.53061
2.53354
2.53655
2.53996
2.54351
2.5472
2.55106
2.55519
2.5597
2.56456
2.56976
2.57524
2.58094
2.58663
2.5921
2.59735
2.60368
2.61251
2.62635
2.64801
2.66918
2.67963
3.78331
2.75202
2.53177
2.53443
2.53729
2.54052
2.54393
2.5475
2.55124
2.55522
2.5595
2.56405
2.56885
2.57384
2.57902
2.58416
2.58916
2.5938
2.59947
2.60741
2.62028
2.64129
2.66299
2.67302
3.78626
2.75349
2.5333
2.53566
2.5383
2.54129
2.54449
2.54785
2.5514
2.55515
2.55916
2.56335
2.5677
2.57214
2.57672
2.58121
2.58568
2.58977
2.59444
2.60018
2.60984
2.62725
2.65084
2.66822
3.78978
2.75529
2.5352
2.5372
2.53955
2.54222
2.54513
2.54822
2.5515
2.55498
2.55867
2.56245
2.56632
2.57017
2.57412
2.57795
2.58176
2.5852
2.58843
2.59183
2.59891
2.61677
2.64488
2.68274
3.79382
2.75723
2.53737
2.53896
2.54096
2.54324
2.54579
2.54856
2.55157
2.55476
2.55811
2.56145
2.56479
2.56807
2.57135
2.57451
2.57754
2.58019
2.58201
2.58389
2.58727
2.59764
2.60371
2.61795
3.79804
2.75896
2.53955
2.54072
2.54239
2.54424
2.54639
2.54884
2.5516
2.55455
2.55755
2.56048
2.56332
2.56605
2.56858
2.57103
2.5732
2.57496
2.57564
2.57585
2.57586
2.57738
2.58489
2.59426
3.80194
2.75981
2.54152
2.54234
2.54373
2.5452
2.54698
2.54911
2.5516
2.55433
2.55705
2.55967
2.56209
2.56421
2.56602
2.56771
2.569
2.56971
2.56957
2.56816
2.56573
2.5612
2.56513
2.56826
3.80518
2.75946
2.54304
2.54381
2.5449
2.54605
2.54761
2.54947
2.55161
2.55406
2.55657
2.55899
2.56103
2.56266
2.56386
2.56474
2.5652
2.56497
2.56422
2.56161
2.55727
2.55143
2.55182
2.55157
3.80802
2.75834
2.54445
2.54475
2.54547
2.5468
2.5484
2.54999
2.55171
2.55373
2.55603
2.55828
2.56008
2.56134
2.56205
2.5622
2.56204
2.56123
2.55975
2.55661
2.55152
2.5454
2.5398
2.54062
3.81118
2.75904
2.54583
2.54513
2.54599
2.54771
2.5494
2.55069
2.55193
2.55353
2.5555
2.55753
2.55917
2.5601
2.56041
2.56011
2.55946
2.55828
2.55629
2.55293
2.54779
2.54141
2.53467
2.53113
3.81534
2.76279
2.54588
2.54538
2.54732
2.54956
2.55092
2.55168
2.5524
2.55355
2.55521
2.55698
2.55837
2.55895
2.55885
2.55824
2.5572
2.55577
2.55358
2.55026
2.54541
2.53909
2.53163
2.52514
3.82074
2.76728
2.54602
2.54682
2.54982
2.55227
2.55302
2.55314
2.55331
2.55394
2.55527
2.55681
2.55794
2.55811
2.55764
2.5566
2.55517
2.55346
2.55111
2.54787
2.54343
2.53767
2.53031
2.52278
3.82728
2.77168
2.5475
2.54963
2.55313
2.5551
2.55514
2.5548
2.55457
2.55478
2.5557
2.55705
2.55798
2.55788
2.55704
2.55553
2.55364
2.55149
2.54877
2.54537
2.5411
2.53592
2.52936
2.52176
3.83417
2.77593
2.55038
2.55396
2.55713
2.55817
2.5577
2.55676
2.55611
2.55603
2.5566
2.5577
2.55835
2.55812
2.55701
2.55521
2.55297
2.55034
2.54706
2.54309
2.53848
2.53334
2.52741
2.5204
3.84044
2.77843
2.55448
2.55902
2.56141
2.56147
2.56044
2.55899
2.55803
2.55773
2.55805
2.55878
2.55898
2.55841
2.55704
2.55522
2.55298
2.55016
2.5465
2.54191
2.53648
2.53054
2.52434
2.51752
3.84592
2.77988
2.55983
2.56383
2.56503
2.56435
2.56266
2.56107
2.56013
2.55995
2.5602
2.5604
2.55991
2.55853
2.5568
2.55503
2.55302
2.55046
2.54691
2.54209
2.53599
2.52902
2.52159
2.51378
3.8511
2.782
2.56496
2.5675
2.5675
2.56601
2.56402
2.56281
2.56245
2.56283
2.56321
2.56281
2.56122
2.55882
2.55651
2.55456
2.55273
2.55059
2.54749
2.54293
2.53684
2.52937
2.52077
2.51142
3.85643
2.78594
2.56881
2.56993
2.5689
2.56649
2.56477
2.56434
2.56514
2.56654
2.56686
2.56573
2.56297
2.55963
2.55665
2.55429
2.55235
2.55034
2.54757
2.54352
2.53784
2.53058
2.52186
2.51165
3.86212
2.79162
2.57211
2.57179
2.56926
2.5665
2.56544
2.56631
2.56868
2.57055
2.57048
2.5685
2.56491
2.561
2.55752
2.55476
2.55251
2.55025
2.5473
2.54315
2.53776
2.53123
2.52321
2.51335
3.86806
2.79847
2.57513
2.57298
2.56905
2.56692
2.5671
2.56975
2.57269
2.57399
2.57316
2.57037
2.56639
2.56243
2.55904
2.55633
2.55397
2.55129
2.54754
2.54256
2.53663
2.53019
2.52304
2.5147
3.87394
2.80556
2.5774
2.57325
2.56915
2.56878
2.57099
2.57445
2.57656
2.57649
2.57465
2.57117
2.5672
2.56361
2.56097
2.55921
2.55733
2.55416
2.54911
2.54276
2.53564
2.52852
2.52145
2.51401
3.8794
2.81147
2.57828
2.5732
2.57109
2.57333
2.57707
2.57961
2.57993
2.57853
2.57534
2.57141
2.56766
2.56486
2.56355
2.5631
2.5618
2.55812
2.55201
2.54448
2.53631
2.52804
2.5201
2.51253
3.88427
2.8148
2.57768
2.5745
2.57578
2.58041
2.58349
2.58427
2.58317
2.57999
2.57583
2.57173
2.56836
2.56678
2.56668
2.56673
2.56535
2.56129
2.55497
2.54729
2.53875
2.52991
2.52101
2.51216
3.88854
2.815
2.57539
2.57799
2.58284
2.58692
2.58828
2.58771
2.5851
2.58084
2.57617
2.57227
2.57042
2.57014
2.57007
2.56929
2.56676
2.56232
2.55645
2.5496
2.54178
2.53324
2.52404
2.51449
3.89258
2.81347
2.57619
2.58403
2.58906
2.59101
2.591
2.58909
2.58521
2.58104
2.57742
2.57569
2.57553
2.5753
2.57398
2.57122
2.56698
2.56179
2.55617
2.55051
2.54451
2.53796
2.53009
2.5205
3.89675
2.81198
2.58181
2.58995
2.59303
2.59325
2.5917
2.58818
2.58425
2.58114
2.58047
2.58196
2.5832
2.58224
2.57895
2.57371
2.56748
2.5612
2.55546
2.55076
2.547
2.54343
2.53789
2.5291
3.90105
2.81309
2.58957
2.5947
2.59535
2.59381
2.59013
2.58613
2.58297
2.58243
2.58518
2.58858
2.59008
2.58869
2.58419
2.57723
2.56929
2.56153
2.55491
2.55068
2.54855
2.54687
2.54322
2.53627
3.90513
2.81759
2.5956
2.59741
2.596
2.59219
2.58746
2.58408
2.58327
2.58571
2.58967
2.59252
2.59337
2.59189
2.58715
2.57973
2.57098
2.56245
2.55603
2.55246
2.5504
2.54825
2.54467
2.53877
3.90891
2.82392
2.59852
2.59752
2.59407
2.58932
2.58623
2.58547
2.58711
2.59025
2.59281
2.59413
2.59375
2.59119
2.5862
2.5799
2.57318
2.56722
2.56246
2.55829
2.5541
2.54937
2.54403
2.53753
3.91246
2.83191
2.59888
2.59519
2.59063
2.58849
2.58839
2.59096
2.59383
2.59553
2.59572
2.59475
2.59211
2.58774
2.58283
2.57869
2.57613
2.57479
2.5726
2.56789
2.56103
2.55294
2.54446
2.53603
3.91575
2.83974
2.59759
2.59182
2.58898
2.58987
2.59365
2.59807
2.60053
2.60052
2.59846
2.59417
2.58845
2.58277
2.57849
2.57728
2.57912
2.58114
2.58095
2.57732
2.56928
2.55856
2.54698
2.53555
3.91861
2.84454
2.59497
2.59105
2.59028
2.59395
2.59904
2.60247
2.60409
2.6034
2.5992
2.59239
2.58467
2.57839
2.57593
2.57742
2.58045
2.58272
2.58306
2.58087
2.57386
2.56227
2.54858
2.53488
3.9208
2.84573
2.5928
2.59235
2.59419
2.59872
2.60196
2.60391
2.6043
2.60249
2.59764
2.59109
2.58455
2.58035
2.57908
2.5796
2.5806
2.58102
2.58038
2.5776
2.57153
2.56187
2.54958
2.53724
3.92273
2.84287
2.5945
2.59744
2.60035
2.60233
2.60311
2.60326
2.60156
2.59813
2.59468
2.59191
2.58963
2.58768
2.58593
2.58401
2.58163
2.57892
2.57538
2.57039
2.56449
2.55859
2.55208
2.5441
3.92372
2.83753
2.59983
2.60448
2.60528
2.60509
2.60366
2.6005
2.59637
2.59299
2.59141
2.59187
2.5936
2.59452
2.59329
2.58951
2.58388
2.57657
2.56847
2.56129
2.55573
2.55216
2.5504
2.54824
3.92425
2.83466
2.6058
2.60861
2.60865
2.60618
2.60165
2.59626
2.59264
2.59087
2.59162
2.59439
2.59787
2.60013
2.5993
2.59336
2.58338
2.57213
2.56173
2.55498
2.55301
2.55307
2.55336
2.5532
2.52475
2.60608
2.67451
2.74435
2.81787
2.88367
2.91974
2.92989
2.62058
2.66033
2.68472
2.74049
2.81012
2.87728
2.91532
2.9277
2.59037
2.62752
2.65977
2.71528
2.78464
2.85496
2.8992
2.91561
2.56476
2.59476
2.63009
2.68341
2.7483
2.8195
2.86547
2.8821
2.54564
2.56353
2.58934
2.63312
2.69084
2.76284
2.8171
2.83868
2.53308
2.54096
2.55723
2.58735
2.63456
2.70714
2.77474
2.80038
2.52397
2.52641
2.5345
2.55234
2.58388
2.64333
2.72275
2.77482
2.51665
2.51512
2.51696
2.5244
2.54148
2.58459
2.67084
2.78406
2.5135
2.50643
2.5022
2.5024
2.50487
2.5184
2.53567
2.52168
2.51209
2.50266
2.49319
2.48328
2.47346
2.45701
2.43174
2.34069
2.50952
2.49935
2.48731
2.47174
2.45216
2.41946
2.3713
2.254
2.50535
2.49499
2.48191
2.46409
2.43941
2.40233
2.3447
2.24298
2.50128
2.4897
2.47564
2.45723
2.4314
2.39493
2.34098
2.25572
2.49978
2.48634
2.47044
2.45105
2.42537
2.39137
2.3448
2.27772
2.50122
2.48668
2.46902
2.44827
2.42261
2.39053
2.35036
2.29795
2.50376
2.48949
2.47161
2.45044
2.42484
2.39342
2.3572
2.31383
2.50492
2.49299
2.47659
2.45584
2.4307
2.4005
2.36689
2.32855
2.50409
2.4941
2.48053
2.46251
2.43965
2.41182
2.38082
2.34552
2.50318
2.49341
2.48145
2.46633
2.44741
2.42329
2.39638
2.36538
2.50438
2.49332
2.4811
2.46695
2.45111
2.43167
2.40939
2.38345
2.50902
2.49598
2.48218
2.46737
2.45238
2.436
2.41829
2.39697
2.51681
2.50192
2.486
2.4697
2.45436
2.43882
2.42352
2.40641
2.52531
2.51051
2.49356
2.47553
2.45837
2.44224
2.42737
2.41237
2.53003
2.5182
2.50328
2.48559
2.46699
2.44871
2.43231
2.41718
2.53004
2.5211
2.51019
2.49654
2.48055
2.46236
2.44334
2.42455
2.52823
2.52067
2.51312
2.50378
2.49207
2.47726
2.45926
2.4384
2.52576
2.51836
2.51289
2.50761
2.50041
2.48901
2.47271
2.4524
2.52386
2.51664
2.5121
2.50791
2.50243
2.49344
2.4801
2.46239
2.52729
2.51932
2.51281
2.50683
2.50016
2.49156
2.48027
2.46555
2.53534
2.52625
2.51714
2.5076
2.49784
2.48743
2.47555
2.46181
2.54293
2.53404
2.52281
2.51015
2.49666
2.48295
2.46911
2.45529
2.54959
2.5404
2.52648
2.50964
2.49176
2.47538
2.46266
2.45324
1.86149
1.412
1.40724
1.48892
1.62147
1.73177
1.86302
1.95244
2.04256
2.18794
2.2878
2.29423
2.32547
2.39262
2.41984
2.45928
2.46738
2.46129
2.44385
2.43517
2.43672
2.43642
2.41813
2.39405
2.37084
2.35257
2.34062
2.32751
2.31186
2.29473
2.2801
2.26782
2.26094
2.25548
2.24634
2.23641
2.22634
2.21482
2.20072
2.18288
2.1562
2.12605
2.10262
2.08751
2.07725
2.06861
2.0621
2.05612
2.0498
2.04227
2.03092
2.01896
2.00589
2.00067
2.00447
2.0303
2.09549
2.17273
2.24814
2.2789
2.27473
2.27179
2.27179
2.27252
2.2687
2.26227
2.2528
2.23562
2.21318
2.19792
2.18906
2.18318
2.17991
2.18087
2.18336
2.18259
2.18002
2.1763
2.17046
2.15914
2.14127
2.12962
2.12585
2.12344
2.12159
2.12029
2.11789
2.10827
2.01876
1.80676
1.67672
1.64701
1.65378
1.64279
1.66593
1.73042
1.82381
1.94692
2.08584
2.15923
2.23343
2.3182
2.35013
2.38866
2.40623
2.4074
2.39638
2.3896
2.39027
2.3923
2.38226
2.36741
2.35273
2.34021
2.33205
2.31969
2.3039
2.28382
2.26517
2.25104
2.24014
2.23109
2.21861
2.20573
2.1936
2.18209
2.17118
2.15805
2.1433
2.12781
2.10964
2.09053
2.07482
2.06381
2.05525
2.04739
2.03854
2.02786
2.01513
2.00247
1.99438
1.99992
2.02029
2.05804
2.10544
2.15525
2.21799
2.25996
2.26411
2.2619
2.25812
2.25386
2.24899
2.24239
2.23326
2.21981
2.20771
2.19842
2.18942
2.18166
2.17695
2.17567
2.1755
2.17265
2.16843
2.16329
2.15647
2.14794
2.13826
2.13023
2.12358
2.11984
2.11752
2.11551
2.11235
2.10288
2.05775
1.92808
1.81318
1.71352
1.66585
1.64197
1.60963
1.6215
1.67008
1.71633
1.81247
1.93781
2.06428
2.19469
2.24814
2.28473
2.30085
2.30851
2.30442
2.30299
2.30043
2.29792
2.29214
2.28578
2.27949
2.2748
2.27224
2.2662
2.25887
2.24748
2.23223
2.21617
2.19951
2.18219
2.16504
2.14925
2.13629
2.12506
2.11358
2.10423
2.09833
2.0915
2.08321
2.07435
2.06314
2.04909
2.03323
2.01924
2.00583
1.99305
1.98112
1.9723
1.97485
1.99436
2.02943
2.06011
2.0807
2.10647
2.15901
2.22209
2.24217
2.23571
2.22464
2.21587
2.20994
2.20333
2.19393
2.18508
2.18003
2.17467
2.16905
2.16426
2.16055
2.157
2.15299
2.14844
2.14258
2.135
2.1263
2.11871
2.11567
2.11291
2.10907
2.10429
2.10101
2.09817
2.09484
2.08645
2.10818
2.00301
1.91436
1.82313
1.7439
1.71325
1.68912
1.65817
1.62786
1.62851
1.66016
1.75425
1.86927
2.01747
2.11866
2.18702
2.21208
2.22497
2.22308
2.22004
2.21443
2.20943
2.20487
2.2016
2.19949
2.19914
2.19808
2.19345
2.18725
2.17872
2.16844
2.15676
2.14205
2.124
2.10466
2.08738
2.07395
2.06349
2.05518
2.04935
2.04557
2.04133
2.03773
2.03384
2.02779
2.01736
1.99983
1.97665
1.95742
1.94479
1.93758
1.94099
1.96171
1.99529
2.02381
2.04184
2.04636
2.0537
2.08267
2.14046
2.18673
2.19247
2.18024
2.16823
2.1612
2.1559
2.15024
2.14567
2.14163
2.13809
2.13507
2.13203
2.12773
2.12274
2.11678
2.10988
2.10212
2.09368
2.08632
2.08331
2.08205
2.08093
2.07927
2.07612
2.07049
2.06505
2.06107
2.05309
2.1607
2.072
1.99237
1.92197
1.84718
1.78472
1.75633
1.73173
1.69201
1.65364
1.65412
1.67791
1.73384
1.84534
1.98938
2.10469
2.16913
2.19559
2.18941
2.18121
2.17046
2.16268
2.15776
2.15442
2.15084
2.14488
2.13769
2.13036
2.12394
2.11791
2.11093
2.10184
2.08877
2.07144
2.053
2.0367
2.02492
2.01737
2.01237
2.0095
2.00744
2.00547
2.00249
1.99764
1.99101
1.97956
1.96136
1.93625
1.91023
1.90386
1.90592
1.92453
1.95896
1.98996
2.00739
2.01744
2.01586
2.01287
2.02264
2.05254
2.10545
2.13803
2.13352
2.12212
2.11454
2.1096
2.10764
2.10573
2.10478
2.10477
2.10425
2.10066
2.0948
2.08669
2.07571
2.06394
2.05389
2.0473
2.04477
2.04415
2.04484
2.04502
2.04452
2.04236
2.0372
2.02944
2.02156
2.01062
2.20676
2.1337
2.0628
1.99911
1.94088
1.87684
1.82618
1.80274
1.7775
1.73698
1.70309
1.69904
1.70854
1.73456
1.82036
1.9839
2.13056
2.1801
2.18001
2.17374
2.16401
2.15511
2.14588
2.13594
2.12521
2.11365
2.10127
2.09286
2.08822
2.0864
2.08088
2.07242
2.06089
2.04749
2.03479
2.02338
2.01309
2.00438
1.99618
1.98937
1.9834
1.97734
1.9706
1.96247
1.95221
1.93848
1.92141
1.90313
1.88963
1.88872
1.90305
1.9382
1.96817
1.98972
1.99843
2.00249
1.99815
1.99072
1.98415
1.9926
2.02461
2.07495
2.09544
2.09064
2.08749
2.08408
2.08337
2.0831
2.08401
2.08415
2.08097
2.07385
2.06185
2.04903
2.03697
2.02629
2.01898
2.01536
2.01394
2.01416
2.01637
2.0181
2.01802
2.01608
2.00926
1.99576
1.9818
1.97192
2.24193
2.18248
2.12404
2.0663
2.01352
1.96393
1.91009
1.86587
1.84113
1.81595
1.783
1.74782
1.72714
1.7332
1.75002
1.8231
2.00728
2.14722
2.18145
2.17846
2.17008
2.16187
2.15191
2.13729
2.11988
2.10494
2.0929
2.08261
2.07363
2.06639
2.06182
2.05763
2.05221
2.04512
2.03745
2.02781
2.01511
1.99958
1.98445
1.9711
1.95929
1.94897
1.93946
1.9292
1.91778
1.90558
1.89406
1.88684
1.88851
1.90451
1.93782
1.97289
1.98708
1.99547
1.99745
1.99432
1.9859
1.97513
1.96367
1.95908
1.9674
2.00692
2.05641
2.07138
2.07595
2.07725
2.0771
2.07442
2.07089
2.06627
2.05979
2.04967
2.03573
2.02127
2.01114
2.00486
2.00129
1.999
1.99856
2.00019
2.00163
2.00134
1.99923
1.99326
1.98187
1.96675
1.9528
1.94802
2.26847
2.2193
2.1702
2.12343
2.07449
2.03006
1.98755
1.94091
1.90239
1.87869
1.85498
1.822
1.78344
1.76359
1.75964
1.77023
1.83661
2.01781
2.14796
2.18005
2.18026
2.17146
2.1604
2.14536
2.12517
2.10781
2.09609
2.08571
2.07494
2.06423
2.05609
2.05013
2.04698
2.04486
2.03772
2.02777
2.01378
1.99553
1.97714
1.9614
1.94752
1.93426
1.92091
1.90713
1.8951
1.88716
1.88367
1.88969
1.91306
1.9534
1.9908
2.00798
2.00701
1.99993
1.99067
1.98202
1.97319
1.96384
1.95248
1.94553
1.94721
1.9616
2.00924
2.05318
2.07138
2.07741
2.07328
2.06564
2.05836
2.05212
2.04425
2.0325
2.01832
2.00704
2.00012
1.99657
1.99475
1.99459
1.99551
1.99512
1.99279
1.98907
1.98246
1.9722
1.9605
1.94968
1.94264
1.94144
2.289
2.24703
2.20613
2.16591
2.12494
2.08261
2.0455
2.0084
1.97071
1.93678
1.91032
1.88598
1.85677
1.81981
1.79332
1.7814
1.78802
1.84638
2.02114
2.14211
2.17704
2.17691
2.16571
2.15091
2.13289
2.11902
2.108
2.09584
2.08203
2.06816
2.05581
2.04715
2.04086
2.03624
2.02978
2.02133
2.01026
1.99354
1.97415
1.95829
1.94464
1.93017
1.91469
1.89936
1.88919
1.88756
1.89195
1.91604
1.96598
2.00951
2.0253
2.02387
2.01533
2.00232
1.98714
1.97363
1.9658
1.95942
1.95107
1.94318
1.94232
1.94923
1.97605
2.02458
2.0636
2.07297
2.06948
2.06035
2.05029
2.04197
2.03234
2.02099
2.01146
2.00427
1.99976
1.99787
1.99783
1.99816
1.99583
1.9913
1.98504
1.97682
1.96618
1.95355
1.9456
1.94177
1.94157
1.94636
2.30841
2.27009
2.23351
2.19845
2.16275
2.12653
2.09039
2.05832
2.02781
1.9967
1.96412
1.93572
1.91164
1.88375
1.84999
1.8194
1.79858
1.80335
1.85984
2.02468
2.14259
2.16983
2.16219
2.1498
2.13744
2.12771
2.11732
2.10468
2.0887
2.07101
2.05601
2.04389
2.03498
2.02774
2.02078
2.01223
2.00212
1.98897
1.9735
1.95826
1.94412
1.9292
1.9143
1.90104
1.89648
1.89965
1.91943
1.96773
2.01738
2.03586
2.03517
2.02897
2.01737
2.00188
1.9852
1.97508
1.9684
1.96215
1.95623
1.95177
1.95012
1.9532
1.96547
1.99469
2.04071
2.06468
2.06733
2.05882
2.04531
2.03327
2.02501
2.01789
2.01206
2.00887
2.00748
2.00534
2.00171
1.99678
1.9911
1.98512
1.97738
1.96572
1.9526
1.94403
1.93999
1.93878
1.94278
1.96155
2.33091
2.294
2.25827
2.22514
2.19135
2.15827
2.12768
2.09699
2.06972
2.04382
2.0146
1.98386
1.95504
1.93134
1.90657
1.87629
1.8406
1.81466
1.81809
1.874
2.02895
2.13004
2.15078
2.14728
2.14017
2.12995
2.11892
2.10629
2.09119
2.07343
2.05691
2.04373
2.03105
2.02027
2.01156
2.00239
1.99256
1.98283
1.97266
1.9615
1.94827
1.93343
1.92054
1.91038
1.91033
1.92431
1.96893
2.01777
2.04241
2.04343
2.03661
2.02579
2.01261
1.99991
1.98962
1.98216
1.97603
1.97152
1.96951
1.96932
1.96571
1.96092
1.96044
1.96938
1.99549
2.03532
2.057
2.05352
2.03891
2.02973
2.02396
2.0198
2.0181
2.01868
2.01664
2.01191
2.0052
1.99645
1.98735
1.97773
1.96639
1.95478
1.94631
1.94169
1.94038
1.94366
1.95671
1.98545
2.35416
2.32148
2.28652
2.25127
2.21719
2.18456
2.15595
2.12885
2.09994
2.07513
2.05353
2.02643
1.99821
1.97215
1.94965
1.92508
1.8945
1.85548
1.82893
1.83206
1.88528
2.02642
2.11464
2.13504
2.13214
2.124
2.11406
2.10347
2.09033
2.07521
2.05974
2.04467
2.0301
2.01552
2.00314
1.99391
1.98614
1.98015
1.97563
1.96737
1.95341
1.93793
1.92431
1.91914
1.93189
1.97443
2.0216
2.04631
2.04761
2.04074
2.03173
2.02221
2.01275
2.00371
1.99863
1.99462
1.9904
1.98711
1.98388
1.97916
1.97228
1.96342
1.95601
1.95058
1.95692
1.98164
2.02294
2.03864
2.03307
2.02926
2.0256
2.02607
2.02699
2.02399
2.01924
2.01375
2.00653
1.99571
1.98129
1.9676
1.95782
1.95073
1.94604
1.94462
1.94813
1.95977
1.9785
2.00605
2.37265
2.34606
2.3168
2.28251
2.24479
2.21084
2.18236
2.15548
2.12843
2.09995
2.07458
2.05622
2.03428
2.01034
1.98648
1.96198
1.9355
1.9044
1.86866
1.84331
1.84494
1.8935
2.02221
2.10408
2.12025
2.11711
2.10687
2.09645
2.08632
2.07499
2.06142
2.04616
2.03008
2.0141
1.99974
1.98979
1.98298
1.9767
1.96735
1.95606
1.94346
1.93531
1.92841
1.93897
1.98024
2.03292
2.05457
2.05287
2.04549
2.03776
2.03054
2.0233
2.0174
2.01387
2.01205
2.00902
2.00339
1.99507
1.98662
1.9798
1.97247
1.96316
1.95261
1.94105
1.93888
1.94602
1.97723
2.01479
2.02986
2.03094
2.03209
2.0306
2.02526
2.02121
2.01735
2.01278
2.00515
1.99052
1.97439
1.9636
1.95578
1.95148
1.95029
1.95444
1.96578
1.97864
1.99804
2.01886
2.38644
2.36423
2.33966
2.31095
2.27842
2.24307
2.21025
2.18219
2.15393
2.12611
2.09922
2.07595
2.05888
2.04002
2.01761
1.99278
1.96675
1.94084
1.91167
1.87992
1.85519
1.8545
1.89838
2.01617
2.08792
2.10525
2.10062
2.09114
2.08177
2.0727
2.06122
2.04635
2.03001
2.01432
2.00025
1.98885
1.98001
1.96891
1.95675
1.94403
1.93585
1.93297
1.94433
1.9873
2.04069
2.06854
2.06568
2.05512
2.04671
2.03952
2.03359
2.03
2.0285
2.02669
2.02289
2.0165
2.00574
1.99457
1.98603
1.97898
1.97162
1.96257
1.95203
1.94002
1.93431
1.93605
1.94932
1.98505
2.01777
2.0352
2.03702
2.03216
2.02372
2.01664
2.01212
2.00698
1.99788
1.98477
1.97317
1.96361
1.95867
1.95755
1.96061
1.9701
1.98252
1.99845
2.01672
2.02586
2.39616
2.37739
2.35567
2.33053
2.30352
2.27567
2.24454
2.21098
2.18043
2.1521
2.1253
2.10029
2.07747
2.05798
2.03838
2.017
1.99363
1.9696
1.94514
1.91696
1.88565
1.86072
1.85764
1.8979
2.00223
2.06921
2.09311
2.08643
2.07655
2.06638
2.05449
2.0407
2.02746
2.01453
2.00155
1.98932
1.97442
1.95747
1.9433
1.93312
1.93287
1.94497
1.99131
2.05134
2.07937
2.07961
2.06979
2.05834
2.0515
2.04625
2.04278
2.04105
2.03794
2.03224
2.02491
2.01533
2.00345
1.99297
1.98527
1.97861
1.97176
1.96375
1.95385
1.9428
1.93544
1.93401
1.93939
1.96035
1.9944
2.02588
2.034
2.0305
2.02094
2.00971
2.00211
1.99527
1.98706
1.98034
1.97469
1.96893
1.96787
1.96982
1.97554
1.98574
2.00271
2.02113
2.03048
2.02673
2.40195
2.38556
2.36658
2.34443
2.32074
2.29697
2.27198
2.24266
2.20972
2.17912
2.15166
2.12508
2.09949
2.0758
2.05381
2.03191
2.01118
1.99155
1.97106
1.94736
1.91731
1.88307
1.85882
1.85629
1.89379
1.98572
2.06353
2.07932
2.07118
2.06038
2.04682
2.03399
2.02437
2.01456
2.00333
1.98736
1.96605
1.94575
1.93366
1.93262
1.9423
1.98986
2.05518
2.09314
2.09533
2.08767
2.07495
2.06594
2.06063
2.05586
2.05116
2.04544
2.03924
2.03229
2.02371
2.01327
2.00297
1.99403
1.98629
1.97944
1.97292
1.96601
1.959
1.95302
1.94652
1.94065
1.93754
1.94229
1.96231
1.99587
2.02077
2.02377
2.01676
2.00182
1.98929
1.98299
1.97885
1.97515
1.97361
1.97582
1.97935
1.98382
1.99127
2.00665
2.02596
2.0364
2.03583
2.0231
2.40702
2.38985
2.37222
2.35325
2.33264
2.31172
2.2898
2.26493
2.23696
2.20691
2.17773
2.14994
2.1218
2.09391
2.06968
2.04819
2.0272
2.00693
1.98808
1.9684
1.94405
1.91131
1.87691
1.85395
1.8535
1.88777
1.97775
2.05071
2.06012
2.05208
2.03946
2.02922
2.01979
2.00969
1.99714
1.97869
1.95544
1.93903
1.93512
1.94213
1.98747
2.05554
2.10307
2.10818
2.10146
2.09019
2.08076
2.07448
2.06902
2.06262
2.05454
2.04638
2.03852
2.03005
2.02094
2.01238
2.00423
1.99671
1.9891
1.98153
1.97572
1.97154
1.96831
1.96391
1.95668
1.94557
1.93441
1.92917
1.93463
1.95328
1.98487
2.00567
2.00551
1.99544
1.98494
1.97865
1.97434
1.97383
1.97882
1.98385
1.98775
1.99657
2.01167
2.02815
2.03844
2.03896
2.0325
2.02237
2.41616
2.39507
2.37589
2.3577
2.33958
2.32093
2.30201
2.28107
2.25681
2.23018
2.20207
2.17277
2.14248
2.11265
2.08658
2.06426
2.04319
2.02228
2.00103
1.97964
1.95813
1.93401
1.90367
1.87197
1.85152
1.84782
1.8783
1.96346
2.02656
2.03625
2.03264
2.02397
2.01403
2.00456
1.99052
1.97042
1.94919
1.93981
1.94493
1.98709
2.05855
2.10876
2.11978
2.11316
2.10191
2.09296
2.08639
2.08073
2.07442
2.06686
2.05619
2.04461
2.03569
2.02809
2.02071
2.01362
2.00811
2.00285
1.99673
1.98923
1.98158
1.9755
1.9701
1.96404
1.95635
1.9454
1.93339
1.92242
1.92
1.92512
1.94417
1.97343
1.9924
1.9928
1.98523
1.97916
1.97437
1.9721
1.9741
1.98115
1.9929
2.01016
2.02851
2.03972
2.03897
2.03486
2.03092
2.02734
2.42928
2.40474
2.38157
2.36164
2.3438
2.32689
2.30998
2.29196
2.27126
2.24687
2.22009
2.19142
2.1612
2.13101
2.10392
2.07989
2.05718
2.03498
2.01295
1.99088
1.96872
1.94611
1.92246
1.89452
1.86599
1.84559
1.83828
1.86547
1.94267
1.99768
2.02163
2.01645
2.00558
1.99345
1.97768
1.95963
1.9473
1.95046
1.98908
2.06267
2.11833
2.12868
2.12309
2.11105
2.10229
2.09627
2.09175
2.08614
2.07891
2.0697
2.05643
2.04383
2.03557
2.02923
2.02385
2.01991
2.01667
2.01178
2.00547
1.99557
1.98448
1.97548
1.96806
1.96125
1.95362
1.94425
1.93344
1.92276
1.91498
1.91446
1.92059
1.94272
1.97112
1.9884
1.99209
1.98885
1.98028
1.97636
1.97686
1.98322
1.99932
2.02025
2.03655
2.03864
2.03442
2.03294
2.03217
2.03094
2.44062
2.41633
2.39135
2.36781
2.34826
2.3315
2.31497
2.29757
2.27873
2.25739
2.23219
2.20511
2.17642
2.14765
2.12027
2.0946
2.06996
2.04608
2.02301
2.00037
1.97802
1.95603
1.93351
1.90914
1.88146
1.85438
1.83431
1.8283
1.85339
1.91788
1.98541
2.00324
1.99599
1.98047
1.96169
1.95019
1.95461
1.99116
2.06709
2.12617
2.14201
2.13526
2.12061
2.10928
2.10302
2.09836
2.09541
2.08936
2.08175
2.07159
2.05751
2.04503
2.03809
2.03315
2.0307
2.02933
2.02408
2.01734
2.00787
1.99626
1.98542
1.97584
1.96634
1.95744
1.94938
1.94154
1.93357
1.92444
1.91481
1.91006
1.91134
1.92228
1.94782
1.97428
1.99074
1.99225
1.98556
1.97954
1.98032
1.99015
2.00918
2.02801
2.03492
2.03433
2.03284
2.03261
2.03234
2.03481
2.44697
2.42534
2.40211
2.37921
2.35728
2.33746
2.31928
2.3005
2.2811
2.26072
2.23833
2.21284
2.18657
2.16023
2.13415
2.10824
2.08226
2.05642
2.03144
2.00782
1.98525
1.96322
1.941
1.91757
1.89182
1.86457
1.83994
1.82339
1.81693
1.83796
1.90087
1.96013
1.97659
1.96504
1.95027
1.9543
1.98678
2.06345
2.13209
2.14744
2.14551
2.13318
2.11816
2.10956
2.10345
2.10015
2.09692
2.09059
2.08286
2.07234
2.05928
2.04973
2.04354
2.03861
2.03397
2.02864
2.02293
2.01583
2.00679
1.99685
1.9871
1.977
1.96681
1.95664
1.94772
1.9403
1.93352
1.92645
1.9189
1.91171
1.90865
1.9112
1.9261
1.95106
1.97734
1.98729
1.98658
1.98588
1.99083
2.00596
2.02265
2.03085
2.03419
2.03468
2.03409
2.03356
2.03505
2.04038
2.44719
2.43095
2.4121
2.39147
2.37008
2.34782
2.32524
2.30461
2.28338
2.26118
2.24012
2.21722
2.19301
2.16904
2.14482
2.11968
2.09323
2.06588
2.03884
2.01358
1.98994
1.96704
1.94435
1.92173
1.8988
1.87417
1.84962
1.8268
1.81018
1.8011
1.81604
1.86943
1.93208
1.94102
1.95
1.98356
2.05531
2.12596
2.15663
2.15378
2.14437
2.1309
2.11872
2.11145
2.10611
2.10239
2.09657
2.09005
2.08201
2.07196
2.06321
2.05696
2.05045
2.04282
2.03429
2.02666
2.01912
2.01128
2.00362
1.99635
1.98896
1.98027
1.96968
1.95827
1.94878
1.94219
1.93665
1.93102
1.92473
1.91843
1.91189
1.90583
1.90785
1.91988
1.94254
1.9667
1.9802
1.99327
2.0132
2.03256
2.04336
2.04303
2.03901
2.03845
2.03803
2.03793
2.0387
2.03774
2.44229
2.4297
2.41627
2.39984
2.37964
2.3572
2.33414
2.31025
2.2855
2.26141
2.23967
2.21972
2.19726
2.1745
2.15122
2.12687
2.10089
2.07329
2.04522
2.01812
1.9924
1.96816
1.94515
1.92339
1.90253
1.88152
1.85882
1.83496
1.81023
1.79096
1.77371
1.79017
1.84546
1.90617
1.97022
2.04834
2.12615
2.15318
2.15579
2.14971
2.13995
2.12932
2.12161
2.11572
2.11098
2.10469
2.09766
2.08961
2.08058
2.07304
2.06749
2.0618
2.05513
2.04665
2.03522
2.02277
2.01229
2.00497
1.99934
1.99389
1.98792
1.98205
1.97499
1.96524
1.95558
1.94907
1.94364
1.93823
1.9321
1.92499
1.91634
1.90528
1.89576
1.89629
1.90707
1.93196
1.96607
1.99961
2.03008
2.04949
2.05535
2.05349
2.04848
2.04562
2.04492
2.04436
2.04291
2.03966
2.44408
2.43385
2.42204
2.40746
2.38807
2.36438
2.33884
2.31107
2.28389
2.25974
2.23885
2.22071
2.19991
2.17759
2.15456
2.13084
2.10611
2.07927
2.04965
2.01966
1.99223
1.96755
1.94459
1.92329
1.90351
1.88492
1.86489
1.84164
1.81448
1.78621
1.75942
1.75635
1.77779
1.86532
1.99128
2.09724
2.18147
2.17692
2.16257
2.14872
2.13602
2.12829
2.12344
2.11864
2.11239
2.10527
2.09717
2.08782
2.08028
2.07452
2.06914
2.06289
2.05588
2.0467
2.03298
2.01746
2.00748
2.00101
1.99536
1.99173
1.98931
1.98507
1.98
1.97196
1.95997
1.95004
1.94344
1.93764
1.93139
1.92402
1.91529
1.9028
1.88656
1.88041
1.88539
1.90674
1.95044
2.00092
2.04602
2.06985
2.07092
2.06733
2.06076
2.0542
2.04995
2.04777
2.04573
2.04027
)
;

boundaryField
{
    inlet
    {
        type            fixedValue;
        value           uniform 1;
    }
    outlet
    {
        type            inletOutlet;
        inletValue      uniform 1;
        value           nonuniform List<scalar> 
24
(
2.10857
2.10315
2.08678
2.05321
2.01013
1.9717
1.94799
1.94127
1.94663
1.96292
1.98704
2.00703
2.01929
2.02522
2.02466
2.02005
2.0213
2.0275
2.03213
2.03714
2.04226
2.03847
2.03964
2.03908
)
;
    }
    bottom
    {
        type            zeroGradient;
    }
    top
    {
        type            zeroGradient;
    }
    obstacle
    {
        type            zeroGradient;
    }
    defaultFaces
    {
        type            empty;
    }
}


// ************************************************************************* //
