/*--------------------------------*- C++ -*----------------------------------*\
  =========                 |
  \\      /  F ield         | OpenFOAM: The Open Source CFD Toolbox
   \\    /   O peration     | Website:  https://openfoam.org
    \\  /    A nd           | Version:  7
     \\/     M anipulation  |
\*---------------------------------------------------------------------------*/
FoamFile
{
    version     2.0;
    format      ascii;
    class       volVectorField;
    location    "7";
    object      U;
}
// * * * * * * * * * * * * * * * * * * * * * * * * * * * * * * * * * * * * * //

dimensions      [0 1 -1 0 0 0 0];

internalField   nonuniform List<vector> 
3328
(
(-2.27577 0.00090068 0)
(-0.236674 0.000603992 0)
(0.501152 0.0026761 0)
(0.494279 0.00282592 0)
(0.487 0.00328211 0)
(0.478653 0.00372062 0)
(0.46975 0.00423106 0)
(0.460118 0.00477075 0)
(0.449529 0.00536305 0)
(0.437616 0.00601103 0)
(0.424031 0.00672324 0)
(0.408503 0.00750625 0)
(0.390896 0.00837221 0)
(0.371153 0.00936322 0)
(0.349226 0.0104636 0)
(0.324997 0.0117181 0)
(0.29816 0.0131138 0)
(0.268668 0.0145197 0)
(0.236215 0.0164477 0)
(0.199639 0.017937 0)
(0.161296 0.0198891 0)
(0.118838 0.0217059 0)
(0.0731743 0.0229155 0)
(0.0258266 0.0244807 0)
(-2.27553 0.00231343 0)
(-0.236466 0.00173238 0)
(0.501348 0.00827122 0)
(0.494473 0.00879323 0)
(0.487189 0.010179 0)
(0.478794 0.011533 0)
(0.469832 0.0130721 0)
(0.46013 0.0146873 0)
(0.449475 0.0164466 0)
(0.437518 0.0183793 0)
(0.423923 0.0205205 0)
(0.40842 0.0229184 0)
(0.390854 0.0256019 0)
(0.371156 0.0287055 0)
(0.349229 0.0321679 0)
(0.324951 0.0360851 0)
(0.298026 0.040467 0)
(0.268307 0.0448459 0)
(0.235795 0.0507424 0)
(0.198783 0.0553934 0)
(0.160309 0.0612659 0)
(0.117675 0.0667796 0)
(0.0719265 0.0702743 0)
(0.0251656 0.0742733 0)
(-2.27564 0.00394405 0)
(-0.236474 0.00331423 0)
(0.502009 0.0136806 0)
(0.495323 0.0145754 0)
(0.488288 0.0168079 0)
(0.480107 0.0190368 0)
(0.471357 0.0215614 0)
(0.461866 0.0242289 0)
(0.45145 0.0271384 0)
(0.439778 0.0303515 0)
(0.426536 0.0339347 0)
(0.411473 0.0379611 0)
(0.39441 0.0424573 0)
(0.375284 0.047659 0)
(0.353948 0.0534786 0)
(0.330313 0.0600245 0)
(0.304147 0.0673644 0)
(0.275005 0.0745847 0)
(0.243228 0.0842208 0)
(0.206116 0.0922005 0)
(0.167006 0.102085 0)
(0.12303 0.111809 0)
(0.0750823 0.117915 0)
(0.026269 0.124024 0)
(-2.27562 0.00547129 0)
(-0.236364 0.00458565 0)
(0.502857 0.0189074 0)
(0.496418 0.0201465 0)
(0.48966 0.0231087 0)
(0.481735 0.0261881 0)
(0.473233 0.0296804 0)
(0.463989 0.0334016 0)
(0.45387 0.0374547 0)
(0.442586 0.0419334 0)
(0.429846 0.0469143 0)
(0.415434 0.0525432 0)
(0.399141 0.0588138 0)
(0.380927 0.0660635 0)
(0.360568 0.0742038 0)
(0.33791 0.0833155 0)
(0.312752 0.0936958 0)
(0.284024 0.104044 0)
(0.252608 0.117835 0)
(0.214952 0.130249 0)
(0.175015 0.144752 0)
(0.130217 0.159472 0)
(0.0801198 0.169017 0)
(0.0280198 0.177298 0)
(-2.27577 0.00700285 0)
(-0.236328 0.00593811 0)
(0.503837 0.0238981 0)
(0.497748 0.0254646 0)
(0.491341 0.0290301 0)
(0.483783 0.032901 0)
(0.475645 0.037314 0)
(0.466758 0.0420741 0)
(0.457022 0.047244 0)
(0.446229 0.0529731 0)
(0.434104 0.0593102 0)
(0.420512 0.0664963 0)
(0.405192 0.0744733 0)
(0.388133 0.0836719 0)
(0.36903 0.0940785 0)
(0.347582 0.105753 0)
(0.323861 0.119324 0)
(0.296432 0.13307 0)
(0.267197 0.150664 0)
(0.232065 0.167332 0)
(0.193764 0.18603 0)
(0.148666 0.206983 0)
(0.0933351 0.223424 0)
(0.0340084 0.236686 0)
(-2.27598 0.00841694 0)
(-0.236289 0.00722738 0)
(0.505002 0.0286044 0)
(0.499377 0.0304789 0)
(0.493409 0.0345297 0)
(0.486328 0.0391235 0)
(0.478644 0.0443974 0)
(0.470233 0.050189 0)
(0.460981 0.0564609 0)
(0.450783 0.0634084 0)
(0.439363 0.0710446 0)
(0.426725 0.079715 0)
(0.412541 0.0893067 0)
(0.396838 0.10032 0)
(0.379312 0.112858 0)
(0.359526 0.126926 0)
(0.337951 0.143341 0)
(0.312688 0.160234 0)
(0.285589 0.181097 0)
(0.251711 0.203791 0)
(0.211873 0.230741 0)
(0.16322 0.262267 0)
(0.103634 0.289433 0)
(0.0337635 0.306602 0)
(-2.27633 0.00985746 0)
(-0.236304 0.00855055 0)
(0.50625 0.0330197 0)
(0.501205 0.0351893 0)
(0.495773 0.039639 0)
(0.489313 0.0448844 0)
(0.482193 0.050933 0)
(0.474385 0.0577107 0)
(0.465723 0.0650484 0)
(0.45624 0.0731888 0)
(0.445614 0.0820389 0)
(0.434049 0.0920848 0)
(0.421155 0.103162 0)
(0.407014 0.115793 0)
(0.391379 0.130141 0)
(0.373717 0.146277 0)
(0.354459 0.165079 0)
(0.331766 0.185612 0)
(0.306479 0.210266 0)
(0.277486 0.239663 0)
(0.244318 0.273669 0)
(0.203493 0.314146 0)
(0.142754 0.35421 0)
(0.062225 0.385173 0)
(-2.27672 0.0111866 0)
(-0.236338 0.009915 0)
(0.507581 0.0371114 0)
(0.503237 0.0395803 0)
(0.498416 0.0443762 0)
(0.4927 0.0502155 0)
(0.48625 0.0569437 0)
(0.479184 0.0646145 0)
(0.471206 0.0729218 0)
(0.462561 0.0821818 0)
(0.452801 0.0921492 0)
(0.442398 0.103446 0)
(0.430877 0.115844 0)
(0.418461 0.129895 0)
(0.404827 0.145684 0)
(0.389672 0.163684 0)
(0.372738 0.184472 0)
(0.353957 0.208404 0)
(0.332008 0.235292 0)
(0.310969 0.267792 0)
(0.282425 0.308029 0)
(0.245011 0.37286 0)
(0.15891 0.444995 0)
(0.11158 0.528683 0)
(-2.27719 0.0125876 0)
(-0.236507 0.0115448 0)
(0.508917 0.0408643 0)
(0.505406 0.043648 0)
(0.501223 0.0487566 0)
(0.496338 0.055166 0)
(0.490621 0.0624891 0)
(0.484436 0.0709222 0)
(0.477237 0.0800419 0)
(0.469543 0.0902639 0)
(0.460715 0.10122 0)
(0.451557 0.113637 0)
(0.441391 0.127172 0)
(0.430869 0.142463 0)
(0.419203 0.159384 0)
(0.406941 0.178982 0)
(0.392605 0.201104 0)
(0.378455 0.226873 0)
(0.361052 0.254694 0)
(0.345884 0.290916 0)
(0.32179 0.342895 0)
(0.304053 0.426516 0)
(0.277944 0.507616 0)
(0.33545 0.571051 0)
(-2.27754 0.0138089 0)
(-0.236835 0.0135684 0)
(0.510144 0.0442219 0)
(0.507632 0.0473467 0)
(0.504063 0.0527539 0)
(0.500086 0.0597238 0)
(0.495122 0.0675802 0)
(0.489935 0.0766327 0)
(0.483634 0.0863928 0)
(0.476991 0.0973595 0)
(0.469178 0.109129 0)
(0.461376 0.122476 0)
(0.452568 0.136908 0)
(0.443954 0.153235 0)
(0.434253 0.171158 0)
(0.424992 0.191806 0)
(0.413765 0.214627 0)
(0.403831 0.241012 0)
(0.391362 0.270009 0)
(0.380829 0.308559 0)
(0.370061 0.365234 0)
(0.366355 0.440464 0)
(0.378778 0.486673 0)
(0.429923 0.47957 0)
(-2.27767 0.015053 0)
(-0.237482 0.0161593 0)
(0.511664 0.0472667 0)
(0.510187 0.0507046 0)
(0.507138 0.0564449 0)
(0.504088 0.0639313 0)
(0.499959 0.0722186 0)
(0.495856 0.081673 0)
(0.490555 0.0919218 0)
(0.484952 0.103422 0)
(0.478253 0.115837 0)
(0.471819 0.12981 0)
(0.46439 0.144946 0)
(0.457591 0.162006 0)
(0.450156 0.180698 0)
(0.443327 0.201811 0)
(0.435713 0.225096 0)
(0.428778 0.251446 0)
(0.421885 0.280971 0)
(0.415304 0.318169 0)
(0.418478 0.370418 0)
(0.424039 0.435936 0)
(0.454084 0.477402 0)
(0.492605 0.472456 0)
(-2.27743 0.0161019 0)
(-0.238241 0.0181867 0)
(0.515204 0.0493315 0)
(0.514289 0.0536939 0)
(0.511411 0.0599363 0)
(0.509272 0.0675179 0)
(0.506056 0.0760037 0)
(0.502689 0.0858194 0)
(0.498366 0.096574 0)
(0.493598 0.108478 0)
(0.488143 0.121366 0)
(0.482782 0.135652 0)
(0.477088 0.151294 0)
(0.471764 0.168697 0)
(0.466681 0.187829 0)
(0.461738 0.20902 0)
(0.457657 0.232548 0)
(0.453051 0.258482 0)
(0.451178 0.287476 0)
(0.448292 0.321377 0)
(0.458613 0.365368 0)
(0.470962 0.420032 0)
(0.503966 0.459426 0)
(0.532271 0.456851 0)
(-2.27709 0.0172617 0)
(-0.238914 0.0184392 0)
(0.5199 0.0495092 0)
(0.519572 0.0553172 0)
(0.516549 0.0626543 0)
(0.515109 0.0704697 0)
(0.513109 0.0792214 0)
(0.510399 0.0893935 0)
(0.506728 0.100635 0)
(0.502802 0.112741 0)
(0.498698 0.125874 0)
(0.494286 0.140302 0)
(0.490361 0.15627 0)
(0.486241 0.173703 0)
(0.483375 0.192853 0)
(0.480051 0.213753 0)
(0.478885 0.237013 0)
(0.476807 0.262329 0)
(0.478265 0.290169 0)
(0.479066 0.320548 0)
(0.489324 0.355837 0)
(0.506169 0.399113 0)
(0.534012 0.439499 0)
(0.561392 0.452282 0)
(-2.27695 0.018334 0)
(-0.238861 0.0177519 0)
(0.523089 0.0468577 0)
(0.523294 0.0566141 0)
(0.521485 0.0654773 0)
(0.521278 0.0726163 0)
(0.520532 0.0815283 0)
(0.518241 0.0923261 0)
(0.515386 0.10405 0)
(0.512163 0.11621 0)
(0.509535 0.129429 0)
(0.50621 0.14394 0)
(0.503798 0.160094 0)
(0.500793 0.177474 0)
(0.499621 0.19638 0)
(0.498002 0.216717 0)
(0.4991 0.239072 0)
(0.499542 0.263379 0)
(0.503219 0.289742 0)
(0.507142 0.317798 0)
(0.516626 0.347475 0)
(0.531171 0.381002 0)
(0.554545 0.414867 0)
(0.580775 0.43955 0)
(-2.27734 0.0193355 0)
(-0.237497 0.0182808 0)
(0.523251 0.0406559 0)
(0.525025 0.0588992 0)
(0.526445 0.0660046 0)
(0.527137 0.073537 0)
(0.527127 0.0838038 0)
(0.525212 0.0951996 0)
(0.523449 0.1068 0)
(0.521371 0.118779 0)
(0.520183 0.131923 0)
(0.518119 0.146539 0)
(0.517008 0.162812 0)
(0.515154 0.180163 0)
(0.515142 0.19876 0)
(0.515219 0.218529 0)
(0.51801 0.239756 0)
(0.520719 0.262726 0)
(0.526116 0.287272 0)
(0.532261 0.313243 0)
(0.541928 0.339882 0)
(0.554261 0.36807 0)
(0.573065 0.395791 0)
(0.5932 0.422154 0)
(-2.27813 0.0200104 0)
(-0.235943 0.0196834 0)
(0.525177 0.0361193 0)
(0.52557 0.0574054 0)
(0.530377 0.0658627 0)
(0.531498 0.0749303 0)
(0.532119 0.0859853 0)
(0.53103 0.0973111 0)
(0.530504 0.108475 0)
(0.529872 0.120209 0)
(0.530129 0.133321 0)
(0.529566 0.147924 0)
(0.529689 0.164094 0)
(0.528946 0.181514 0)
(0.529954 0.199971 0)
(0.531479 0.219342 0)
(0.535589 0.239606 0)
(0.540173 0.261258 0)
(0.547016 0.284088 0)
(0.554746 0.308144 0)
(0.564999 0.332668 0)
(0.576822 0.357935 0)
(0.592454 0.382797 0)
(0.609644 0.407471 0)
(-2.27924 0.0204586 0)
(-0.235052 0.020394 0)
(0.527956 0.0342604 0)
(0.527121 0.0551774 0)
(0.533638 0.0647965 0)
(0.535253 0.0752958 0)
(0.535989 0.0868613 0)
(0.535584 0.0980998 0)
(0.536242 0.108937 0)
(0.537146 0.120487 0)
(0.538947 0.133432 0)
(0.540148 0.148 0)
(0.541508 0.164085 0)
(0.541991 0.181298 0)
(0.543968 0.199538 0)
(0.546807 0.218677 0)
(0.552032 0.238452 0)
(0.558155 0.259247 0)
(0.566167 0.280811 0)
(0.575088 0.30328 0)
(0.585935 0.326161 0)
(0.598177 0.349515 0)
(0.612673 0.372836 0)
(0.628724 0.396746 0)
(-2.28048 0.0205625 0)
(-0.234755 0.0208923 0)
(0.53056 0.0338799 0)
(0.531291 0.0543951 0)
(0.537277 0.0636408 0)
(0.538466 0.0744742 0)
(0.539253 0.0861799 0)
(0.539308 0.0972741 0)
(0.540901 0.108022 0)
(0.54317 0.11965 0)
(0.546557 0.132554 0)
(0.549584 0.146987 0)
(0.552205 0.162737 0)
(0.554018 0.179621 0)
(0.556961 0.197447 0)
(0.561089 0.216159 0)
(0.567449 0.235546 0)
(0.57497 0.255868 0)
(0.584032 0.276864 0)
(0.593923 0.298532 0)
(0.605332 0.320396 0)
(0.61815 0.342567 0)
(0.632787 0.364862 0)
(0.64899 0.387918 0)
(-2.28153 0.0205592 0)
(-0.235044 0.0211538 0)
(0.535208 0.0353063 0)
(0.538161 0.0535576 0)
(0.542089 0.0627847 0)
(0.542574 0.0733424 0)
(0.542512 0.084586 0)
(0.542616 0.0952459 0)
(0.545022 0.105885 0)
(0.548481 0.11776 0)
(0.553427 0.130845 0)
(0.557966 0.145256 0)
(0.561764 0.160616 0)
(0.564686 0.176869 0)
(0.568563 0.193885 0)
(0.573974 0.211871 0)
(0.581635 0.230715 0)
(0.590647 0.250571 0)
(0.600899 0.27115 0)
(0.611744 0.292411 0)
(0.623785 0.313972 0)
(0.637114 0.33583 0)
(0.652405 0.357794 0)
(0.669486 0.380533 0)
(-2.28241 0.0206597 0)
(-0.235401 0.0201141 0)
(0.541643 0.0385589 0)
(0.545504 0.0526388 0)
(0.547523 0.0614404 0)
(0.546863 0.0715287 0)
(0.546079 0.0818503 0)
(0.546483 0.0919198 0)
(0.549659 0.102657 0)
(0.554267 0.115092 0)
(0.560447 0.128579 0)
(0.566012 0.143027 0)
(0.570604 0.157931 0)
(0.574054 0.173338 0)
(0.578767 0.189371 0)
(0.585277 0.206353 0)
(0.59426 0.224289 0)
(0.60487 0.243402 0)
(0.616665 0.263484 0)
(0.628765 0.284406 0)
(0.641689 0.305641 0)
(0.655657 0.327372 0)
(0.671777 0.349511 0)
(0.689853 0.372603 0)
(-2.28335 0.0210189 0)
(-0.234852 0.0191073 0)
(0.548178 0.0410774 0)
(0.551264 0.0507774 0)
(0.552338 0.0591933 0)
(0.550556 0.0687277 0)
(0.549802 0.0779046 0)
(0.551003 0.087538 0)
(0.555258 0.0986911 0)
(0.561082 0.111912 0)
(0.568193 0.125857 0)
(0.574346 0.140161 0)
(0.579088 0.154395 0)
(0.582745 0.168928 0)
(0.588016 0.183981 0)
(0.595317 0.200081 0)
(0.605334 0.217008 0)
(0.61723 0.235018 0)
(0.630558 0.253968 0)
(0.64424 0.273971 0)
(0.658583 0.294758 0)
(0.673756 0.316369 0)
(0.691007 0.338385 0)
(0.710287 0.361667 0)
(-2.28444 0.0214779 0)
(-0.233359 0.0189208 0)
(0.553538 0.0416243 0)
(0.55533 0.0480343 0)
(0.555549 0.0564469 0)
(0.553175 0.0650594 0)
(0.553432 0.0731969 0)
(0.556069 0.0828377 0)
(0.561723 0.0947973 0)
(0.5688 0.108741 0)
(0.576372 0.122562 0)
(0.582432 0.136107 0)
(0.587158 0.149342 0)
(0.591249 0.163042 0)
(0.597091 0.177449 0)
(0.60494 0.19291 0)
(0.615599 0.209145 0)
(0.628308 0.226318 0)
(0.642714 0.244091 0)
(0.657691 0.262678 0)
(0.67348 0.28198 0)
(0.69033 0.302341 0)
(0.709325 0.323882 0)
(0.730438 0.347031 0)
(-2.28565 0.0218079 0)
(-0.231307 0.0196969 0)
(0.55739 0.0403463 0)
(0.557927 0.0450208 0)
(0.556835 0.0533633 0)
(0.555035 0.0608902 0)
(0.557341 0.0685029 0)
(0.561727 0.0790124 0)
(0.569124 0.0920752 0)
(0.576658 0.105932 0)
(0.583895 0.118635 0)
(0.58939 0.130681 0)
(0.594294 0.142494 0)
(0.599276 0.155111 0)
(0.606112 0.168774 0)
(0.614756 0.184028 0)
(0.626003 0.20023 0)
(0.639054 0.2172 0)
(0.653763 0.23425 0)
(0.66927 0.251471 0)
(0.686019 0.268919 0)
(0.70446 0.287293 0)
(0.725355 0.306928 0)
(0.748817 0.328333 0)
(-2.28689 0.0217255 0)
(-0.22899 0.0211394 0)
(0.56007 0.0373638 0)
(0.558848 0.0419454 0)
(0.556925 0.0492448 0)
(0.557339 0.0563064 0)
(0.561928 0.0649305 0)
(0.568448 0.0771772 0)
(0.576778 0.0906719 0)
(0.583634 0.103153 0)
(0.589881 0.114092 0)
(0.594835 0.124251 0)
(0.60025 0.134378 0)
(0.606581 0.145626 0)
(0.615061 0.158253 0)
(0.625241 0.173137 0)
(0.637542 0.189599 0)
(0.650798 0.207063 0)
(0.665013 0.224134 0)
(0.680035 0.240533 0)
(0.696822 0.256577 0)
(0.716153 0.272752 0)
(0.738583 0.289953 0)
(0.764375 0.308635 0)
(-2.28806 0.0211413 0)
(-0.226821 0.0237644 0)
(0.56129 0.0328533 0)
(0.558296 0.0371663 0)
(0.557421 0.0443938 0)
(0.560927 0.0522217 0)
(0.567697 0.06341 0)
(0.57605 0.0767947 0)
(0.583246 0.0891921 0)
(0.589123 0.0996731 0)
(0.593895 0.108816 0)
(0.59852 0.117228 0)
(0.604606 0.125784 0)
(0.612476 0.13568 0)
(0.623102 0.147257 0)
(0.635651 0.161599 0)
(0.649614 0.17788 0)
(0.663212 0.19525 0)
(0.676673 0.212175 0)
(0.690751 0.228304 0)
(0.706946 0.243682 0)
(0.726383 0.258798 0)
(0.749487 0.274268 0)
(0.776652 0.289921 0)
(-2.28904 0.0201622 0)
(-0.225437 0.0269026 0)
(0.561067 0.0264257 0)
(0.557076 0.0321753 0)
(0.560139 0.0400752 0)
(0.566236 0.0508022 0)
(0.575278 0.0633847 0)
(0.58272 0.0758266 0)
(0.588411 0.0863308 0)
(0.592644 0.095141 0)
(0.596242 0.102703 0)
(0.600822 0.109962 0)
(0.607715 0.117636 0)
(0.61728 0.126853 0)
(0.630297 0.138045 0)
(0.645173 0.151676 0)
(0.660639 0.1665 0)
(0.674566 0.182079 0)
(0.687716 0.197553 0)
(0.701451 0.213028 0)
(0.717288 0.228585 0)
(0.736474 0.243616 0)
(0.759421 0.258538 0)
(0.786879 0.27269 0)
(-2.28974 0.0190405 0)
(-0.225206 0.0292008 0)
(0.560048 0.018451 0)
(0.557529 0.0288422 0)
(0.565064 0.038768 0)
(0.574147 0.050625 0)
(0.582224 0.0627022 0)
(0.587879 0.0731292 0)
(0.592019 0.0817142 0)
(0.59472 0.0888535 0)
(0.597848 0.0953569 0)
(0.602735 0.102197 0)
(0.610515 0.110121 0)
(0.622024 0.119988 0)
(0.636942 0.131581 0)
(0.653012 0.144219 0)
(0.668923 0.156624 0)
(0.68301 0.169003 0)
(0.696592 0.181523 0)
(0.71104 0.195018 0)
(0.727413 0.209779 0)
(0.746842 0.225046 0)
(0.769441 0.240744 0)
(0.796249 0.254927 0)
(-2.29014 0.0179563 0)
(-0.226386 0.0283305 0)
(0.561994 0.00907517 0)
(0.560792 0.0312139 0)
(0.573093 0.0395976 0)
(0.581259 0.0508176 0)
(0.587013 0.0608305 0)
(0.591444 0.068833 0)
(0.593905 0.0750224 0)
(0.59582 0.0803646 0)
(0.598964 0.0863725 0)
(0.604924 0.0935043 0)
(0.615044 0.103384 0)
(0.628639 0.11593 0)
(0.644173 0.127973 0)
(0.659844 0.139104 0)
(0.674746 0.148773 0)
(0.688667 0.157695 0)
(0.702987 0.166633 0)
(0.718683 0.176753 0)
(0.736273 0.189014 0)
(0.756666 0.202761 0)
(0.779699 0.218492 0)
(0.806333 0.233865 0)
(-2.29047 0.016876 0)
(-0.228834 0.0230228 0)
(0.565669 0.00750777 0)
(0.569387 0.0319764 0)
(0.580377 0.0405049 0)
(0.585519 0.0499862 0)
(0.589873 0.0575078 0)
(0.592376 0.0627456 0)
(0.593841 0.0664935 0)
(0.596444 0.0707169 0)
(0.601364 0.0768036 0)
(0.610182 0.0865764 0)
(0.622295 0.0993437 0)
(0.636461 0.112225 0)
(0.651018 0.123994 0)
(0.664692 0.133823 0)
(0.677992 0.141407 0)
(0.69147 0.14786 0)
(0.70646 0.153912 0)
(0.723891 0.160791 0)
(0.743974 0.170075 0)
(0.766846 0.181746 0)
(0.791233 0.196519 0)
(0.817708 0.211313 0)
(-2.29114 0.0156754 0)
(-0.230418 0.0156533 0)
(0.571911 0.0109442 0)
(0.578347 0.0310465 0)
(0.584744 0.0396408 0)
(0.588081 0.0472261 0)
(0.590269 0.0524832 0)
(0.59124 0.0551939 0)
(0.593149 0.057831 0)
(0.597031 0.0618452 0)
(0.60532 0.0690217 0)
(0.617525 0.0802905 0)
(0.630756 0.0936395 0)
(0.64446 0.106259 0)
(0.656536 0.117357 0)
(0.667668 0.126425 0)
(0.679192 0.133308 0)
(0.692001 0.138612 0)
(0.70724 0.1433 0)
(0.725925 0.148274 0)
(0.748252 0.155056 0)
(0.773806 0.163544 0)
(0.800328 0.175266 0)
(0.827323 0.187189 0)
(-2.29238 0.0143408 0)
(-0.230066 0.0101149 0)
(0.579004 0.0146179 0)
(0.584505 0.0281442 0)
(0.58759 0.0359131 0)
(0.588869 0.041837 0)
(0.588896 0.0446992 0)
(0.589754 0.0466322 0)
(0.592857 0.0497238 0)
(0.600248 0.055773 0)
(0.611661 0.0657802 0)
(0.625771 0.0772542 0)
(0.638644 0.0883221 0)
(0.651016 0.0982884 0)
(0.661343 0.107305 0)
(0.67084 0.114897 0)
(0.680826 0.121472 0)
(0.692464 0.127159 0)
(0.707283 0.132397 0)
(0.727047 0.138019 0)
(0.751456 0.144705 0)
(0.77882 0.151391 0)
(0.806801 0.159401 0)
(0.834633 0.166757 0)
(-2.29398 0.0132224 0)
(-0.227674 0.00769244 0)
(0.585185 0.0155744 0)
(0.58781 0.0227549 0)
(0.589008 0.0288864 0)
(0.587806 0.0326052 0)
(0.587045 0.034673 0)
(0.58885 0.0380257 0)
(0.59526 0.0439231 0)
(0.605484 0.0535769 0)
(0.618809 0.0641148 0)
(0.632044 0.0741029 0)
(0.643567 0.082299 0)
(0.65442 0.0889548 0)
(0.663716 0.0944807 0)
(0.672575 0.0994838 0)
(0.682071 0.10485 0)
(0.693779 0.111318 0)
(0.709538 0.119202 0)
(0.73009 0.127895 0)
(0.754262 0.136454 0)
(0.780675 0.14225 0)
(0.807959 0.147266 0)
(0.835804 0.150069 0)
(-2.29549 0.0126169 0)
(-0.224555 0.0098379 0)
(0.588994 0.0130762 0)
(0.589066 0.0158651 0)
(0.587399 0.0199119 0)
(0.585201 0.0218821 0)
(0.586541 0.025122 0)
(0.591802 0.0320824 0)
(0.600701 0.0422697 0)
(0.612523 0.0529526 0)
(0.624736 0.0625675 0)
(0.635463 0.0701133 0)
(0.645512 0.0755199 0)
(0.654625 0.0788094 0)
(0.663464 0.0804695 0)
(0.673285 0.0826618 0)
(0.685123 0.0872307 0)
(0.699897 0.0949512 0)
(0.717333 0.105869 0)
(0.737002 0.117515 0)
(0.758378 0.127437 0)
(0.781426 0.134133 0)
(0.806118 0.13758 0)
(0.832373 0.137211 0)
(-2.29681 0.0118375 0)
(-0.221293 0.0137667 0)
(0.589049 0.00791663 0)
(0.586784 0.00947817 0)
(0.584096 0.0109696 0)
(0.584673 0.0134261 0)
(0.589763 0.0188305 0)
(0.598062 0.0281882 0)
(0.608926 0.039321 0)
(0.619483 0.0497684 0)
(0.629131 0.0579867 0)
(0.637697 0.0638707 0)
(0.645095 0.0670101 0)
(0.651938 0.067608 0)
(0.659899 0.0673806 0)
(0.67093 0.0679266 0)
(0.686299 0.0714534 0)
(0.705468 0.0789972 0)
(0.72593 0.0900277 0)
(0.745676 0.102435 0)
(0.76437 0.113791 0)
(0.783503 0.121492 0)
(0.803945 0.126007 0)
(0.826892 0.125883 0)
(-2.29766 0.0104306 0)
(-0.219088 0.0165846 0)
(0.585107 0.00296752 0)
(0.582253 0.00347376 0)
(0.58275 0.00522327 0)
(0.586548 0.00909465 0)
(0.595072 0.0162439 0)
(0.606025 0.026067 0)
(0.616261 0.0352763 0)
(0.625469 0.0428434 0)
(0.633112 0.0489844 0)
(0.638655 0.0528234 0)
(0.64328 0.0543018 0)
(0.648592 0.0544313 0)
(0.656879 0.0546917 0)
(0.671164 0.0570988 0)
(0.69087 0.0626239 0)
(0.712811 0.0700647 0)
(0.734698 0.0779822 0)
(0.754717 0.086185 0)
(0.771693 0.0951334 0)
(0.787874 0.102549 0)
(0.804868 0.10771 0)
(0.824241 0.109621 0)
(-2.29817 0.00800701 0)
(-0.217746 0.0164229 0)
(0.581104 -0.00381722 0)
(0.578724 0.000515431 0)
(0.583252 0.00428108 0)
(0.589841 0.0100391 0)
(0.600383 0.0173912 0)
(0.610929 0.0236443 0)
(0.619898 0.0285566 0)
(0.627999 0.0323998 0)
(0.633603 0.0348834 0)
(0.637484 0.0361839 0)
(0.640775 0.0372424 0)
(0.645869 0.0390193 0)
(0.657255 0.0436116 0)
(0.674202 0.0504278 0)
(0.694732 0.0564148 0)
(0.716197 0.0608213 0)
(0.737774 0.0642645 0)
(0.758515 0.0679287 0)
(0.775849 0.0725614 0)
(0.790451 0.0773642 0)
(0.805061 0.0816381 0)
(0.822269 0.0850347 0)
(-2.29841 0.005057 0)
(-0.218071 0.0127435 0)
(0.580572 -0.00997084 0)
(0.578677 0.00152574 0)
(0.586227 0.00608419 0)
(0.594407 0.012465 0)
(0.6032 0.0173661 0)
(0.611356 0.0205222 0)
(0.618901 0.0217064 0)
(0.62533 0.0210381 0)
(0.630018 0.0193737 0)
(0.634479 0.0191072 0)
(0.640153 0.0222336 0)
(0.649267 0.0284011 0)
(0.662368 0.036653 0)
(0.678328 0.0448262 0)
(0.696187 0.0513219 0)
(0.715383 0.0545369 0)
(0.735663 0.0549531 0)
(0.75574 0.0530122 0)
(0.774178 0.0504836 0)
(0.790759 0.0500107 0)
(0.806676 0.0534108 0)
(0.825388 0.0602856 0)
(-2.29927 0.00273033 0)
(-0.220976 0.00658924 0)
(0.582693 -0.0131947 0)
(0.582819 0.00420756 0)
(0.590755 0.00916446 0)
(0.597026 0.0143474 0)
(0.603165 0.0178484 0)
(0.609108 0.018605 0)
(0.614205 0.0163489 0)
(0.619223 0.011715 0)
(0.625775 0.00741964 0)
(0.634281 0.00606835 0)
(0.644202 0.00937119 0)
(0.655615 0.0171365 0)
(0.668615 0.0269858 0)
(0.682541 0.0363414 0)
(0.697671 0.0432974 0)
(0.714152 0.0461632 0)
(0.731374 0.0444035 0)
(0.748979 0.0389193 0)
(0.767876 0.0322424 0)
(0.789063 0.0276804 0)
(0.811323 0.0295187 0)
(0.833508 0.0366487 0)
(-2.29918 0.00104452 0)
(-0.224127 0.000694909 0)
(0.586161 -0.00831546 0)
(0.588779 0.00445308 0)
(0.593936 0.00877421 0)
(0.598113 0.0124654 0)
(0.602477 0.0138366 0)
(0.605655 0.0121187 0)
(0.608743 0.00756627 0)
(0.613471 0.0031626 0)
(0.621214 0.000701936 0)
(0.632667 6.36677e-05 0)
(0.646749 0.00170381 0)
(0.661442 0.00784353 0)
(0.676775 0.016814 0)
(0.690632 0.0252031 0)
(0.702879 0.0300515 0)
(0.714135 0.0308078 0)
(0.726258 0.0274077 0)
(0.741537 0.0210834 0)
(0.760216 0.015213 0)
(0.782653 0.0121126 0)
(0.808855 0.0122043 0)
(0.837674 0.01681 0)
(-2.29951 0.000682299 0)
(-0.225861 -0.000886017 0)
(0.588897 0.000418766 0)
(0.592299 0.00293734 0)
(0.595965 0.00394599 0)
(0.599162 0.00443957 0)
(0.600872 0.00385536 0)
(0.601691 0.00230685 0)
(0.603872 0.00109402 0)
(0.609298 0.000620381 0)
(0.619013 0.000869241 0)
(0.632482 0.00210508 0)
(0.649755 0.00444692 0)
(0.667445 0.00617149 0)
(0.682651 0.00784766 0)
(0.693307 0.00956578 0)
(0.700956 0.0100983 0)
(0.708515 0.00910409 0)
(0.718051 0.00740654 0)
(0.733715 0.00567603 0)
(0.757518 0.00525599 0)
(0.785602 0.0063069 0)
(0.815752 0.00744276 0)
(0.846657 0.00925736 0)
(0.403834 0.357186 0)
(0.118976 0.181708 0)
(0.0604293 0.0489013 0)
(0.0193395 0.0175974 0)
(0.00523458 0.00855578 0)
(0.00198126 0.00298579 0)
(0.000636482 0.00124966 0)
(-0.00113707 0.000408009 0)
(0.426281 0.3038 0)
(0.261769 0.179795 0)
(0.184677 0.0727432 0)
(0.0925395 0.0455963 0)
(0.0399004 0.0281796 0)
(0.0156082 0.011632 0)
(0.00224083 0.00546004 0)
(0.000566399 -0.00156007 0)
(0.467851 0.394824 0)
(0.357021 0.327853 0)
(0.269628 0.218444 0)
(0.157716 0.155024 0)
(0.0897549 0.0912756 0)
(0.0426667 0.0437417 0)
(0.0126029 0.0150479 0)
(0.00558343 -0.00125215 0)
(0.525692 0.432809 0)
(0.474764 0.384008 0)
(0.408612 0.291846 0)
(0.298303 0.21621 0)
(0.205689 0.140939 0)
(0.118547 0.0880845 0)
(0.050572 0.0509421 0)
(0.0158583 0.0219029 0)
(0.566623 0.447914 0)
(0.543882 0.436467 0)
(0.503498 0.385565 0)
(0.410933 0.333898 0)
(0.309644 0.26248 0)
(0.202421 0.189029 0)
(0.106062 0.122667 0)
(0.0366597 0.0725268 0)
(0.594238 0.451037 0)
(0.59077 0.454524 0)
(0.57097 0.438146 0)
(0.514561 0.411116 0)
(0.437221 0.352351 0)
(0.32111 0.29551 0)
(0.189503 0.240302 0)
(0.0683271 0.17397 0)
(0.613429 0.443836 0)
(0.619423 0.461395 0)
(0.612357 0.467655 0)
(0.582103 0.472333 0)
(0.527597 0.454527 0)
(0.432945 0.424977 0)
(0.318354 0.358974 0)
(0.150274 0.331396 0)
(0.626418 0.432507 0)
(0.64017 0.457054 0)
(0.644997 0.480649 0)
(0.635599 0.503228 0)
(0.608656 0.512748 0)
(0.547377 0.518333 0)
(0.408407 0.528337 0)
(0.205144 0.654794 0)
(0.644878 0.422321 0)
(0.661525 0.450337 0)
(0.671996 0.482524 0)
(0.678677 0.51917 0)
(0.673428 0.557794 0)
(0.648841 0.613283 0)
(0.617918 0.715469 0)
(0.695984 0.930643 0)
(0.66613 0.412767 0)
(0.684268 0.440745 0)
(0.701213 0.474879 0)
(0.718281 0.519525 0)
(0.738828 0.57848 0)
(0.758495 0.66343 0)
(0.825296 0.76187 0)
(1.05247 0.863534 0)
(0.688618 0.404718 0)
(0.709307 0.432211 0)
(0.732783 0.464948 0)
(0.75774 0.507992 0)
(0.79664 0.565236 0)
(0.849204 0.648407 0)
(0.972093 0.740091 0)
(1.21812 0.792618 0)
(0.710892 0.396736 0)
(0.734638 0.423382 0)
(0.763582 0.453641 0)
(0.797039 0.492164 0)
(0.846201 0.539516 0)
(0.916259 0.605126 0)
(1.05077 0.676716 0)
(1.2715 0.703862 0)
(0.733033 0.386202 0)
(0.759342 0.412747 0)
(0.792005 0.44119 0)
(0.832148 0.47449 0)
(0.887244 0.511702 0)
(0.963847 0.556406 0)
(1.08951 0.608422 0)
(1.27312 0.61751 0)
(0.754997 0.371145 0)
(0.783355 0.397282 0)
(0.818219 0.424818 0)
(0.861743 0.454342 0)
(0.919333 0.484585 0)
(0.996106 0.512835 0)
(1.10773 0.543632 0)
(1.25525 0.541779 0)
(0.775662 0.351624 0)
(0.806152 0.376726 0)
(0.842368 0.402546 0)
(0.886748 0.428911 0)
(0.943731 0.455281 0)
(1.01668 0.473893 0)
(1.11351 0.490426 0)
(1.23216 0.483013 0)
(0.793546 0.329059 0)
(0.826282 0.35132 0)
(0.863764 0.374981 0)
(0.908218 0.39799 0)
(0.962553 0.421307 0)
(1.02939 0.435103 0)
(1.11295 0.445504 0)
(1.21188 0.43722 0)
(0.807504 0.307136 0)
(0.84235 0.324931 0)
(0.88104 0.344731 0)
(0.925355 0.363171 0)
(0.976871 0.383448 0)
(1.03791 0.395164 0)
(1.11028 0.403042 0)
(1.19398 0.39702 0)
(0.818199 0.287349 0)
(0.853826 0.301085 0)
(0.893293 0.316119 0)
(0.937841 0.328768 0)
(0.987732 0.344122 0)
(1.04451 0.352441 0)
(1.10827 0.358871 0)
(1.17986 0.355732 0)
(0.82684 0.268822 0)
(0.861848 0.27991 0)
(0.9005 0.291753 0)
(0.944247 0.29899 0)
(0.992973 0.30884 0)
(1.04688 0.312714 0)
(1.10565 0.315348 0)
(1.17014 0.312172 0)
(0.835611 0.249275 0)
(0.868461 0.260128 0)
(0.904817 0.270284 0)
(0.946058 0.27458 0)
(0.992852 0.279233 0)
(1.04516 0.279428 0)
(1.10067 0.278577 0)
(1.1606 0.272694 0)
(0.845113 0.226511 0)
(0.875206 0.23827 0)
(0.908266 0.249067 0)
(0.945951 0.253058 0)
(0.9892 0.255651 0)
(1.03899 0.252846 0)
(1.09282 0.248852 0)
(1.14941 0.241257 0)
(0.853372 0.201305 0)
(0.88131 0.212789 0)
(0.91131 0.223771 0)
(0.945729 0.229865 0)
(0.985338 0.233798 0)
(1.03115 0.231723 0)
(1.082 0.226006 0)
(1.13641 0.217105 0)
(0.861117 0.176167 0)
(0.888225 0.184762 0)
(0.916319 0.195791 0)
(0.947809 0.203321 0)
(0.983373 0.20902 0)
(1.02502 0.210198 0)
(1.07187 0.206995 0)
(1.12302 0.198636 0)
(0.863398 0.154383 0)
(0.891858 0.158482 0)
(0.920661 0.16483 0)
(0.951396 0.172015 0)
(0.984112 0.180927 0)
(1.02123 0.186722 0)
(1.06353 0.187768 0)
(1.11045 0.183055 0)
(0.860329 0.137277 0)
(0.890483 0.136469 0)
(0.921849 0.138744 0)
(0.954986 0.142018 0)
(0.988801 0.148501 0)
(1.02416 0.156164 0)
(1.06112 0.163057 0)
(1.10103 0.165415 0)
(0.853426 0.123925 0)
(0.883785 0.120494 0)
(0.917296 0.119038 0)
(0.953034 0.119161 0)
(0.98975 0.122383 0)
(1.02713 0.12822 0)
(1.06366 0.134787 0)
(1.09945 0.139384 0)
(0.84839 0.1094 0)
(0.878645 0.106798 0)
(0.913909 0.105101 0)
(0.95266 0.104611 0)
(0.991758 0.106205 0)
(1.02942 0.10784 0)
(1.065 0.110016 0)
(1.09954 0.112485 0)
(0.84529 0.0891564 0)
(0.875739 0.0923798 0)
(0.911309 0.0941 0)
(0.949712 0.0934629 0)
(0.989194 0.0919845 0)
(1.02772 0.0909574 0)
(1.06419 0.0902089 0)
(1.09844 0.0888888 0)
(0.848654 0.0691089 0)
(0.876651 0.0771948 0)
(0.908588 0.0834589 0)
(0.944109 0.0855928 0)
(0.981485 0.0830272 0)
(1.01945 0.0774482 0)
(1.05662 0.0712172 0)
(1.09204 0.066236 0)
(0.856774 0.0470737 0)
(0.882615 0.0578439 0)
(0.910907 0.0664106 0)
(0.941582 0.070779 0)
(0.974121 0.070615 0)
(1.00832 0.0659542 0)
(1.04388 0.0581167 0)
(1.08101 0.0487176 0)
(0.866176 0.0264286 0)
(0.893236 0.0368793 0)
(0.919594 0.0449214 0)
(0.945996 0.0487525 0)
(0.973299 0.0481896 0)
(1.00281 0.0433984 0)
(1.03505 0.0358293 0)
(1.07013 0.0280094 0)
(0.875183 0.0116672 0)
(0.899348 0.0143686 0)
(0.920995 0.0163927 0)
(0.942662 0.0168097 0)
(0.966444 0.0154189 0)
(0.994898 0.0126274 0)
(1.03007 0.00985718 0)
(1.07104 0.00890942 0)
(1.61174 0.967925 0)
(2.16472 1.05332 0)
(2.39293 0.690753 0)
(2.42851 0.371642 0)
(2.40968 -0.000608845 0)
(2.29865 -0.198598 0)
(2.06586 -0.233404 0)
(1.92594 -0.196867 0)
(1.87484 -0.168868 0)
(1.8537 -0.110314 0)
(1.72764 -0.0657896 0)
(1.65615 -0.0524119 0)
(1.49025 -0.0204485 0)
(1.33772 -0.00921296 0)
(1.33113 -0.00616299 0)
(1.35506 -0.00549471 0)
(1.34006 -0.00480836 0)
(1.31518 -0.00562542 0)
(1.30156 -0.00835701 0)
(1.30916 -0.0109845 0)
(1.33943 -0.0145944 0)
(1.37371 -0.0173526 0)
(1.39206 -0.0181718 0)
(1.4058 -0.017373 0)
(1.42126 -0.0135148 0)
(1.4447 -0.00987125 0)
(1.47589 -0.00291229 0)
(1.5019 0.0031315 0)
(1.52136 0.00649921 0)
(1.53673 0.0100758 0)
(1.55551 0.0113011 0)
(1.5783 0.0116164 0)
(1.60991 0.0112801 0)
(1.64272 0.0102185 0)
(1.66807 0.00816834 0)
(1.69061 0.00428321 0)
(1.71431 -0.00214616 0)
(1.73883 -0.00920608 0)
(1.76289 -0.0131604 0)
(1.78513 -0.0141227 0)
(1.79522 -0.0112615 0)
(1.79745 -0.00302756 0)
(1.80532 0.00700154 0)
(1.82124 0.0128741 0)
(1.84104 0.0142531 0)
(1.86188 0.0142315 0)
(1.88587 0.0138068 0)
(1.91073 0.0137235 0)
(1.93642 0.0131801 0)
(1.96367 0.0123267 0)
(1.98902 0.0115931 0)
(2.01421 0.00933165 0)
(2.03959 0.0040922 0)
(2.0472 -0.0018207 0)
(2.00544 -0.0191754 0)
(1.9524 -0.0339883 0)
(1.83941 -0.0412546 0)
(1.71781 -0.0411132 0)
(1.61413 -0.0352164 0)
(1.57432 -0.00676813 0)
(1.60437 0.00762956 0)
(1.6397 0.0109532 0)
(1.66937 0.00849106 0)
(1.69235 0.00282386 0)
(1.70762 -0.00291441 0)
(1.71955 -0.0063197 0)
(1.72817 -0.00920005 0)
(1.72746 -0.00891565 0)
(1.72118 -0.00550983 0)
(1.72551 -0.000656616 0)
(1.73711 0.00388064 0)
(1.75041 0.00623276 0)
(1.76534 0.0076271 0)
(1.78612 0.00736903 0)
(1.80795 0.00573097 0)
(1.82345 0.00389483 0)
(1.83598 0.00209074 0)
(1.84774 -0.000116898 0)
(1.85804 -0.00317275 0)
(1.86187 -0.00362608 0)
(1.85508 -0.000158168 0)
(1.85476 0.00403032 0)
(1.86474 0.0058421 0)
(1.87598 0.00610838 0)
(1.88851 0.00610809 0)
(1.90352 0.00569201 0)
(1.91551 0.00495178 0)
(1.93371 0.004893 0)
(1.7138 0.752912 0)
(2.106 0.457888 0)
(2.27069 0.126113 0)