/*--------------------------------*- C++ -*----------------------------------*\
  =========                 |
  \\      /  F ield         | OpenFOAM: The Open Source CFD Toolbox
   \\    /   O peration     | Website:  https://openfoam.org
    \\  /    A nd           | Version:  7
     \\/     M anipulation  |
\*---------------------------------------------------------------------------*/
FoamFile
{
    version     2.0;
    format      ascii;
    class       volVectorField;
    location    "0.5";
    object      U;
}
// * * * * * * * * * * * * * * * * * * * * * * * * * * * * * * * * * * * * * //

dimensions      [0 1 -1 0 0 0 0];

internalField   nonuniform List<vector> 
66048
(
(3 1.91457e-16 0)
(3 2.55886e-16 0)
(3 1.01588e-16 0)
(3 2.36177e-16 0)
(3 6.31257e-16 0)
(3 6.15618e-16 0)
(3 5.66187e-16 0)
(3 7.3271e-16 0)
(3 6.59705e-16 0)
(3 6.21543e-16 0)
(3 3.33737e-16 0)
(3 -2.84247e-17 0)
(3 -5.03019e-16 0)
(3 -7.76033e-16 0)
(3 -6.70816e-16 0)
(3 -1.54336e-16 0)
(3 -4.60319e-16 0)
(3 -4.11966e-16 0)
(3 -3.27638e-16 0)
(3 -2.94559e-16 0)
(3 5.44257e-17 0)
(3 -7.35417e-16 0)
(3 -6.5264e-16 0)
(3 -1.1038e-16 0)
(3 1.37698e-15 0)
(3 1.46892e-15 0)
(3 5.03305e-16 0)
(3 -4.34516e-16 0)
(3 -1.12113e-15 0)
(3 -1.29148e-15 0)
(3 -8.29686e-16 0)
(3 -1.09428e-15 0)
(3 -9.12418e-16 0)
(3 -4.51858e-16 0)
(3 -4.27771e-17 0)
(3 2.70829e-16 0)
(3 9.08698e-16 0)
(3 1.05421e-15 0)
(3 3.72414e-16 0)
(3 -2.93894e-16 0)
(3 -1.53004e-16 0)
(3 9.84405e-17 0)
(3 1.57391e-16 0)
(3 3.57641e-16 0)
(3 6.07809e-16 0)
(3 4.90075e-16 0)
(3 -5.16143e-16 0)
(3 -7.72518e-16 0)
(3 -4.80152e-16 0)
(3 -1.07403e-16 0)
(3 5.90565e-16 0)
(3 -4.48302e-16 0)
(3 3.32271e-16 0)
(3 6.42217e-17 0)
(3 -3.14884e-17 0)
(3 -1.22523e-15 0)
(3 -1.73278e-15 0)
(3 -1.8779e-15 0)
(3 -1.53182e-15 0)
(3 -8.38517e-16 0)
(3 -4.66485e-16 0)
(3 -2.68467e-16 0)
(3 2.49948e-17 0)
(3 9.98802e-16 0)
(3 1.12999e-15 0)
(3 7.34804e-16 0)
(3 3.96509e-16 0)
(3 4.00701e-16 0)
(3 6.3156e-17 0)
(3 5.04346e-16 0)
(3 5.60638e-16 0)
(3 5.08576e-16 0)
(3 3.74492e-16 0)
(3 -6.3194e-17 0)
(2.9246 0.00163108 0)
(0.989894 0.011191 0)
(0.679917 0.0104498 0)
(0.657328 0.00771429 0)
(0.633856 0.00958613 0)
(0.609962 0.0120554 0)
(0.580257 0.0147503 0)
(0.544127 0.0176512 0)
(0.505411 0.0190582 0)
(0.469855 0.0178449 0)
(0.43756 0.0165315 0)
(0.409071 0.0163013 0)
(0.378761 0.0164131 0)
(0.344745 0.0164838 0)
(0.306962 0.0168417 0)
(0.269366 0.0172282 0)
(0.233334 0.0180232 0)
(0.195228 0.0187182 0)
(0.157928 0.019743 0)
(0.115693 0.0209712 0)
(0.071007 0.0220875 0)
(0.0252515 0.0234684 0)
(3 3.62295e-16 0)
(3 4.31664e-16 0)
(3 3.78096e-16 0)
(3 4.71831e-16 0)
(3 5.96941e-16 0)
(3 8.36145e-16 0)
(3 9.92636e-16 0)
(3 1.10328e-15 0)
(3 3.93957e-16 0)
(3 1.5125e-17 0)
(3 -3.35466e-16 0)
(3 -1.09995e-15 0)
(3 -1.30101e-15 0)
(3 -8.81595e-16 0)
(3 -1.28153e-16 0)
(3 5.58978e-16 0)
(3 3.28112e-16 0)
(3 2.62944e-17 0)
(3 -1.99399e-16 0)
(3 -1.33727e-16 0)
(3 1.01504e-15 0)
(3 -5.30569e-16 0)
(3 -1.66683e-15 0)
(3 -1.01999e-15 0)
(3 8.25933e-16 0)
(3 1.37283e-15 0)
(3 6.32922e-17 0)
(3 -8.42971e-16 0)
(3 -8.45879e-16 0)
(3 -1.01887e-15 0)
(3 -1.12832e-15 0)
(3 -1.22033e-15 0)
(3 -1.41562e-15 0)
(3 -1.13465e-15 0)
(3 6.0894e-16 0)
(3 1.5833e-15 0)
(3 1.31592e-15 0)
(3 2.25897e-16 0)
(3 -2.24109e-16 0)
(3 -1.58067e-15 0)
(3 -1.10877e-15 0)
(3 -6.66956e-17 0)
(3 3.99778e-16 0)
(3 1.09359e-15 0)
(3 1.19228e-15 0)
(3 5.13133e-16 0)
(3 1.77762e-17 0)
(3 -1.80875e-16 0)
(3 4.93578e-16 0)
(3 4.18136e-16 0)
(3 6.46654e-16 0)
(3 4.10359e-16 0)
(3 5.00116e-16 0)
(3 -2.22044e-16 0)
(3 -2.73421e-16 0)
(3 -5.00668e-16 0)
(3 -1.48241e-15 0)
(3 -1.8556e-15 0)
(3 -1.1212e-15 0)
(3 -1.02763e-15 0)
(3 -1.18733e-15 0)
(3 -8.93778e-16 0)
(3 2.54784e-16 0)
(3 1.11492e-15 0)
(3 1.11435e-15 0)
(3 1.18202e-15 0)
(3 1.14021e-15 0)
(3 1.43552e-15 0)
(3 1.07463e-15 0)
(3 1.28077e-15 0)
(3 7.31701e-16 0)
(3 7.74795e-16 0)
(3 6.44582e-16 0)
(3 4.60625e-16 0)
(2.92979 0.0135316 0)
(0.995027 0.0488631 0)
(0.677528 0.0367376 0)
(0.654857 0.0247411 0)
(0.629391 0.0289056 0)
(0.603133 0.0356329 0)
(0.57142 0.0437369 0)
(0.534389 0.0521055 0)
(0.495422 0.0557604 0)
(0.460157 0.0520043 0)
(0.428283 0.0479746 0)
(0.400086 0.0472051 0)
(0.370277 0.0477779 0)
(0.336814 0.0484287 0)
(0.299439 0.0499183 0)
(0.262052 0.0513258 0)
(0.226422 0.0537088 0)
(0.189075 0.0558432 0)
(0.153017 0.058979 0)
(0.112382 0.0631441 0)
(0.0690931 0.0669058 0)
(0.0247642 0.0715236 0)
(3 -1.76642e-16 0)
(3 -4.28242e-18 0)
(3 4.23238e-16 0)
(3 9.86539e-17 0)
(3 -7.37879e-17 0)
(3 2.58436e-16 0)
(3 6.74773e-16 0)
(3 5.97035e-16 0)
(3 1.52573e-16 0)
(3 -1.3974e-16 0)
(3 -3.79074e-16 0)
(3 -9.41822e-16 0)
(3 -1.1702e-15 0)
(3 -9.28839e-16 0)
(3 -3.02324e-16 0)
(3 8.28549e-16 0)
(3 1.13203e-15 0)
(3 6.42527e-16 0)
(3 2.93251e-17 0)
(3 -2.85752e-16 0)
(3 8.68687e-17 0)
(3 4.70268e-16 0)
(3 7.651e-16 0)
(3 7.34841e-16 0)
(3 6.63389e-16 0)
(3 5.88407e-16 0)
(3 7.61449e-16 0)
(3 7.60569e-16 0)
(3 1.12991e-15 0)
(3 4.02997e-16 0)
(3 -4.79983e-16 0)
(3 -5.25203e-16 0)
(3 1.24476e-16 0)
(3 2.9713e-16 0)
(3 6.97141e-16 0)
(3 8.19209e-16 0)
(3 5.26915e-16 0)
(3 -2.23651e-16 0)
(3 -4.48277e-16 0)
(3 -1.28517e-15 0)
(3 -1.29405e-15 0)
(3 -5.55272e-16 0)
(3 -1.12719e-16 0)
(3 2.27207e-16 0)
(3 -7.23775e-17 0)
(3 -4.61149e-16 0)
(3 -1.9592e-16 0)
(3 -1.48654e-16 0)
(3 6.23059e-16 0)
(3 1.59744e-15 0)
(3 1.72912e-15 0)
(3 1.5229e-15 0)
(3 1.05229e-15 0)
(3 -1.21505e-16 0)
(3 -1.51933e-15 0)
(3 -2.27976e-15 0)
(3 -3.19601e-15 0)
(3 -2.68e-15 0)
(3 -1.88875e-15 0)
(3 -1.78137e-15 0)
(3 -2.02384e-15 0)
(3 -1.78431e-15 0)
(3 -8.07e-16 0)
(3 1.61437e-16 0)
(3 1.31792e-16 0)
(3 3.26905e-16 0)
(3 1.58448e-15 0)
(3 1.57789e-15 0)
(3 1.3121e-15 0)
(3 1.97814e-16 0)
(3 -2.7449e-16 0)
(3 1.36831e-16 0)
(3 -4.02725e-16 0)
(3 -8.39969e-16 0)
(2.95647 0.019398 0)
(1.02257 0.0792677 0)
(0.694093 0.0592998 0)
(0.666098 0.0461198 0)
(0.633702 0.0525082 0)
(0.602148 0.0621294 0)
(0.568038 0.0746973 0)
(0.530266 0.0877484 0)
(0.490599 0.0929315 0)
(0.45508 0.0866824 0)
(0.422941 0.0800244 0)
(0.39437 0.0788267 0)
(0.364656 0.0799614 0)
(0.33139 0.0810557 0)
(0.293646 0.0831269 0)
(0.255292 0.0848858 0)
(0.218772 0.0881887 0)
(0.181179 0.0913338 0)
(0.145761 0.096163 0)
(0.106667 0.103124 0)
(0.0652905 0.109721 0)
(0.0235089 0.11782 0)
(3 -3.72698e-16 0)
(3 -4.31048e-16 0)
(3 -3.62539e-16 0)
(3 -4.98863e-16 0)
(3 -3.8109e-16 0)
(3 -2.20546e-16 0)
(3 -1.34254e-16 0)
(3 -4.11976e-17 0)
(3 -8.18867e-17 0)
(3 1.7781e-16 0)
(3 -1.18049e-16 0)
(3 -3.18389e-16 0)
(3 -6.13625e-16 0)
(3 -9.03749e-16 0)
(3 -1.08546e-15 0)
(3 -9.75068e-16 0)
(3 -6.23163e-16 0)
(3 -6.24828e-16 0)
(3 -8.36847e-16 0)
(3 -1.04826e-15 0)
(3 -1.09788e-15 0)
(3 -8.19155e-16 0)
(3 -3.5024e-17 0)
(3 4.01372e-16 0)
(3 2.09401e-16 0)
(3 -3.41379e-16 0)
(3 -6.57045e-17 0)
(3 2.50799e-16 0)
(3 -8.12264e-17 0)
(3 -9.00702e-16 0)
(3 -7.31875e-16 0)
(3 -9.45836e-16 0)
(3 -5.80481e-16 0)
(3 2.93805e-16 0)
(3 6.51887e-16 0)
(3 4.40947e-17 0)
(3 2.0079e-18 0)
(3 -6.01418e-18 0)
(3 -7.694e-17 0)
(3 -1.78654e-16 0)
(3 8.82858e-17 0)
(3 9.3153e-18 0)
(3 -4.72639e-16 0)
(3 -5.86136e-16 0)
(3 -1.25651e-15 0)
(3 -1.13702e-15 0)
(3 -7.61551e-16 0)
(3 -8.90058e-16 0)
(3 -5.9232e-16 0)
(3 4.13807e-16 0)
(3 1.18717e-15 0)
(3 1.06291e-15 0)
(3 1.17662e-15 0)
(3 -3.46379e-16 0)
(3 -2.83064e-15 0)
(3 -3.81632e-15 0)
(3 -4.77491e-15 0)
(3 -4.68733e-15 0)
(3 -3.88615e-15 0)
(3 -2.69436e-15 0)
(3 -2.10821e-15 0)
(3 -1.78689e-15 0)
(3 -3.54802e-16 0)
(3 -1.18851e-16 0)
(3 2.31552e-16 0)
(3 -1.81277e-16 0)
(3 -5.17971e-17 0)
(3 -3.0499e-16 0)
(3 -2.74093e-16 0)
(3 -3.42782e-16 0)
(3 -1.02606e-16 0)
(3 -1.13141e-16 0)
(3 -1.17296e-15 0)
(3 -1.52636e-15 0)
(2.99538 0.00390806 0)
(1.07355 0.0969723 0)
(0.705175 0.08594 0)
(0.672455 0.0733012 0)
(0.637802 0.0794363 0)
(0.604519 0.0897717 0)
(0.570319 0.106139 0)
(0.532767 0.123448 0)
(0.492706 0.129839 0)
(0.457051 0.121507 0)
(0.424541 0.112596 0)
(0.395388 0.111189 0)
(0.365629 0.113061 0)
(0.332517 0.114797 0)
(0.294218 0.117542 0)
(0.254454 0.119741 0)
(0.216264 0.123752 0)
(0.177155 0.127434 0)
(0.141133 0.133105 0)
(0.102512 0.142191 0)
(0.0621793 0.15087 0)
(0.0223603 0.162045 0)
(3 7.62968e-17 0)
(3 -2.34587e-16 0)
(3 4.43926e-17 0)
(3 1.55335e-16 0)
(3 4.71528e-16 0)
(3 4.07475e-16 0)
(3 6.11733e-16 0)
(3 1.04777e-15 0)
(3 4.22053e-16 0)
(3 -2.29318e-16 0)
(3 -2.03888e-16 0)
(3 -9.41856e-17 0)
(3 -2.54028e-17 0)
(3 -7.10913e-16 0)
(3 -1.20739e-15 0)
(3 -2.0072e-15 0)
(3 -2.87225e-15 0)
(3 -2.15516e-15 0)
(3 -9.18871e-16 0)
(3 -2.11494e-16 0)
(3 -1.03128e-16 0)
(3 -3.16367e-17 0)
(3 1.73948e-16 0)
(3 -6.54309e-17 0)
(3 -1.94607e-16 0)
(3 -3.90803e-16 0)
(3 -9.65104e-16 0)
(3 -1.22114e-15 0)
(3 -1.71637e-15 0)
(3 -1.44812e-15 0)
(3 -7.60254e-17 0)
(3 1.11712e-15 0)
(3 1.25145e-16 0)
(3 -6.30583e-17 0)
(3 -2.15342e-16 0)
(3 -2.82777e-16 0)
(3 -4.76682e-16 0)
(3 -6.88979e-16 0)
(3 -7.37851e-16 0)
(3 -8.0663e-17 0)
(3 -8.25715e-17 0)
(3 -6.91458e-16 0)
(3 -1.5816e-15 0)
(3 -2.24308e-15 0)
(3 -2.11287e-15 0)
(3 -2.03695e-15 0)
(3 -1.62976e-15 0)
(3 -1.92502e-15 0)
(3 -2.09172e-15 0)
(3 -2.03833e-15 0)
(3 -1.50712e-15 0)
(3 -2.96616e-16 0)
(3 -4.43616e-16 0)
(3 -1.22389e-15 0)
(3 -2.42921e-15 0)
(3 -4.06941e-15 0)
(3 -4.5618e-15 0)
(3 -5.45989e-15 0)
(3 -5.02768e-15 0)
(3 -4.00403e-15 0)
(3 -2.04038e-15 0)
(3 -8.02349e-16 0)
(3 1.18316e-16 0)
(3 2.64013e-17 0)
(3 -2.12286e-16 0)
(3 -7.35178e-16 0)
(3 -1.25498e-15 0)
(3 -2.4502e-16 0)
(3 2.95061e-16 0)
(3 3.92726e-16 0)
(3 2.16187e-16 0)
(3 -4.97776e-16 0)
(3 -6.99562e-16 0)
(3 -4.70144e-16 0)
(3.00002 3.45976e-05 0)
(1.13491 0.127172 0)
(0.7121 0.114338 0)
(0.67755 0.0998647 0)
(0.642308 0.106549 0)
(0.607228 0.117955 0)
(0.572635 0.138268 0)
(0.534673 0.159393 0)
(0.494001 0.166361 0)
(0.458726 0.156038 0)
(0.426767 0.145088 0)
(0.398359 0.14344 0)
(0.369806 0.146287 0)
(0.338027 0.149086 0)
(0.299832 0.152733 0)
(0.259041 0.155648 0)
(0.219325 0.160523 0)
(0.17821 0.164795 0)
(0.141011 0.170893 0)
(0.101803 0.181243 0)
(0.0612917 0.191346 0)
(0.0218829 0.204714 0)
(3 1.08758e-17 0)
(3 2.97619e-16 0)
(3 4.15941e-16 0)
(3 5.95274e-16 0)
(3 1.24334e-15 0)
(3 1.3696e-15 0)
(3 1.36675e-15 0)
(3 1.21795e-15 0)
(3 1.05432e-15 0)
(3 4.71615e-16 0)
(3 -4.55599e-16 0)
(3 -7.26266e-16 0)
(3 -6.53074e-16 0)
(3 -8.97273e-16 0)
(3 -1.11352e-15 0)
(3 -1.68852e-15 0)
(3 -2.42619e-15 0)
(3 -2.25614e-15 0)
(3 -1.43906e-15 0)
(3 -4.56112e-16 0)
(3 -8.37009e-17 0)
(3 4.57425e-16 0)
(3 4.7415e-16 0)
(3 -3.48479e-16 0)
(3 1.38735e-16 0)
(3 1.24118e-16 0)
(3 -5.70908e-16 0)
(3 -1.15855e-15 0)
(3 -9.40174e-16 0)
(3 -6.8847e-16 0)
(3 -1.56962e-16 0)
(3 7.05349e-16 0)
(3 1.67614e-15 0)
(3 1.36605e-15 0)
(3 9.27116e-16 0)
(3 1.00984e-15 0)
(3 3.97608e-16 0)
(3 -3.97208e-16 0)
(3 -8.78077e-16 0)
(3 -1.35287e-15 0)
(3 -1.7511e-15 0)
(3 -2.10679e-15 0)
(3 -2.10133e-15 0)
(3 -2.12348e-15 0)
(3 -1.99811e-15 0)
(3 -1.84769e-15 0)
(3 -2.93802e-15 0)
(3 -3.33652e-15 0)
(3 -3.08568e-15 0)
(3 -3.55739e-15 0)
(3 -3.82112e-15 0)
(3 -2.05491e-15 0)
(3 -2.36338e-15 0)
(3 -2.7673e-15 0)
(3 -3.529e-15 0)
(3 -3.76538e-15 0)
(3 -3.32097e-15 0)
(3 -3.71926e-15 0)
(3 -3.38129e-15 0)
(3 -3.05876e-15 0)
(3 -2.02853e-15 0)
(3 -9.83954e-16 0)
(3 -1.03575e-16 0)
(3 -3.28515e-16 0)
(3 -1.60181e-15 0)
(3 -9.85841e-16 0)
(3 -6.43545e-16 0)
(3 -3.2226e-16 0)
(3 -2.14873e-16 0)
(3 -1.40991e-16 0)
(3 -2.04611e-16 0)
(3 -7.11274e-16 0)
(3 6.83995e-16 0)
(3 1.4092e-15 0)
(3 1.68705e-08 0)
(1.22794 0.1566 0)
(0.723036 0.140677 0)
(0.682174 0.125601 0)
(0.647531 0.134394 0)
(0.610349 0.14761 0)
(0.574268 0.171877 0)
(0.535033 0.195928 0)
(0.494237 0.202113 0)
(0.461067 0.189361 0)
(0.431497 0.176337 0)
(0.405079 0.174319 0)
(0.378035 0.1787 0)
(0.347243 0.183562 0)
(0.308363 0.189053 0)
(0.265994 0.193339 0)
(0.224654 0.199373 0)
(0.181526 0.204241 0)
(0.143298 0.210485 0)
(0.103295 0.221595 0)
(0.0620011 0.23205 0)
(0.0218791 0.246558 0)
(3 1.66094e-16 0)
(3 7.68599e-16 0)
(3 5.22316e-16 0)
(3 3.47634e-16 0)
(3 6.32817e-16 0)
(3 1.36946e-15 0)
(3 1.23262e-15 0)
(3 1.04869e-15 0)
(3 8.67843e-16 0)
(3 8.59572e-16 0)
(3 4.07855e-16 0)
(3 -7.57053e-17 0)
(3 -5.26229e-16 0)
(3 -7.05782e-16 0)
(3 -6.9396e-16 0)
(3 -1.12734e-15 0)
(3 -6.33925e-16 0)
(3 -7.30654e-16 0)
(3 -4.80922e-16 0)
(3 7.87599e-17 0)
(3 3.75769e-16 0)
(3 -1.63916e-16 0)
(3 -8.54134e-16 0)
(3 -2.31368e-15 0)
(3 -2.15756e-15 0)
(3 -1.73034e-15 0)
(3 -5.37678e-16 0)
(3 1.54575e-16 0)
(3 4.19436e-16 0)
(3 3.97005e-16 0)
(3 5.4224e-16 0)
(3 7.47527e-16 0)
(3 1.82813e-15 0)
(3 2.06751e-15 0)
(3 1.56538e-15 0)
(3 1.14546e-15 0)
(3 2.90954e-16 0)
(3 -1.60379e-16 0)
(3 -5.63377e-16 0)
(3 -2.34625e-15 0)
(3 -3.77335e-15 0)
(3 -3.40903e-15 0)
(3 -2.20564e-15 0)
(3 -9.89699e-16 0)
(3 -1.22217e-15 0)
(3 -1.74587e-15 0)
(3 -2.40914e-15 0)
(3 -3.03561e-15 0)
(3 -4.09816e-15 0)
(3 -4.14343e-15 0)
(3 -3.90295e-15 0)
(3 -3.50796e-15 0)
(3 -3.1367e-15 0)
(3 -3.44253e-15 0)
(3 -4.17825e-15 0)
(3 -3.51785e-15 0)
(3 -2.64636e-15 0)
(3 -2.07135e-15 0)
(3 -1.32339e-15 0)
(3 -7.83931e-16 0)
(3 -4.10573e-16 0)
(3 -1.82227e-16 0)
(3 -6.58592e-16 0)
(3 -9.93476e-16 0)
(3 -1.78999e-15 0)
(3 -1.36871e-15 0)
(3 -8.33818e-16 0)
(3 -8.75184e-16 0)
(3 -7.97376e-16 0)
(3 -9.39644e-16 0)
(3 -3.74264e-16 0)
(3 3.39002e-16 0)
(3 7.52305e-16 0)
(3 6.12784e-16 0)
(3 8.53393e-13 0)
(1.35588 0.184925 0)
(0.737885 0.167388 0)
(0.68762 0.152278 0)
(0.652333 0.163665 0)
(0.612366 0.179564 0)
(0.574472 0.207356 0)
(0.534077 0.23217 0)
(0.494956 0.235296 0)
(0.46658 0.219755 0)
(0.440444 0.205224 0)
(0.41587 0.203652 0)
(0.389603 0.21089 0)
(0.358056 0.219171 0)
(0.31786 0.227348 0)
(0.273809 0.233255 0)
(0.231403 0.240547 0)
(0.187018 0.24603 0)
(0.148206 0.252259 0)
(0.107244 0.263699 0)
(0.0645559 0.273743 0)
(0.0225908 0.288482 0)
(3 4.34647e-16 0)
(3 3.05113e-16 0)
(3 7.42583e-16 0)
(3 7.3689e-16 0)
(3 6.71738e-16 0)
(3 6.76193e-16 0)
(3 9.90871e-16 0)
(3 1.17536e-15 0)
(3 7.7621e-16 0)
(3 5.92065e-17 0)
(3 4.28568e-16 0)
(3 8.33155e-16 0)
(3 7.3378e-16 0)
(3 3.4937e-16 0)
(3 3.19992e-16 0)
(3 5.01213e-16 0)
(3 8.8169e-16 0)
(3 2.81742e-16 0)
(3 -2.88274e-16 0)
(3 2.29108e-16 0)
(3 3.71158e-16 0)
(3 -2.65953e-16 0)
(3 -8.52338e-16 0)
(3 -1.08179e-15 0)
(3 -1.17815e-15 0)
(3 -1.07951e-15 0)
(3 -2.39758e-16 0)
(3 9.09897e-16 0)
(3 9.92326e-16 0)
(3 8.25055e-16 0)
(3 1.68554e-15 0)
(3 2.04611e-15 0)
(3 1.81291e-15 0)
(3 1.77768e-15 0)
(3 1.52166e-15 0)
(3 1.20911e-15 0)
(3 1.07352e-15 0)
(3 6.2717e-16 0)
(3 2.71786e-16 0)
(3 -3.44926e-16 0)
(3 -1.97299e-15 0)
(3 -2.20993e-15 0)
(3 -2.15716e-15 0)
(3 -2.92879e-15 0)
(3 -2.87024e-15 0)
(3 -2.94178e-15 0)
(3 -2.60975e-15 0)
(3 -2.75655e-15 0)
(3 -2.97136e-15 0)
(3 -3.09119e-15 0)
(3 -2.92235e-15 0)
(3 -2.93244e-15 0)
(3 -2.9146e-15 0)
(3 -3.0252e-15 0)
(3 -2.85542e-15 0)
(3 -2.14381e-15 0)
(3 -1.6034e-15 0)
(3 -1.02225e-15 0)
(3 -6.9372e-16 0)
(3 3.3992e-16 0)
(3 1.91807e-16 0)
(3 3.62074e-16 0)
(3 1.81178e-16 0)
(3 -1.93219e-17 0)
(3 -6.97101e-16 0)
(3 -1.04763e-15 0)
(3 -6.95026e-16 0)
(3 -2.64008e-16 0)
(3 -2.30163e-16 0)
(3 -1.54725e-16 0)
(3 -6.02302e-17 0)
(3 2.24228e-15 0)
(3 2.48674e-15 0)
(3 2.39149e-15 0)
(3 1.15113e-15 0)
(1.52529 0.210328 0)
(0.756818 0.196395 0)
(0.692064 0.181628 0)
(0.654297 0.196271 0)
(0.609821 0.214081 0)
(0.57136 0.243357 0)
(0.533926 0.265618 0)
(0.501501 0.263739 0)
(0.479671 0.24577 0)
(0.455326 0.231612 0)
(0.431301 0.232375 0)
(0.404798 0.243789 0)
(0.371373 0.256141 0)
(0.329844 0.267136 0)
(0.283889 0.274603 0)
(0.240044 0.283478 0)
(0.194238 0.290204 0)
(0.154332 0.296778 0)
(0.111876 0.308414 0)
(0.0675181 0.317524 0)
(0.0234511 0.331683 0)
(3 -4.25763e-17 0)
(3 1.04415e-16 0)
(3 -2.93025e-16 0)
(3 -3.14274e-16 0)
(3 -3.65351e-16 0)
(3 -2.7237e-16 0)
(3 7.49835e-17 0)
(3 -4.83559e-17 0)
(3 -3.3076e-16 0)
(3 -6.5049e-16 0)
(3 -4.10568e-16 0)
(3 -1.91827e-16 0)
(3 4.15536e-16 0)
(3 6.81287e-16 0)
(3 6.97814e-16 0)
(3 9.96554e-16 0)
(3 7.09396e-16 0)
(3 8.62233e-16 0)
(3 -5.8314e-18 0)
(3 -1.06505e-15 0)
(3 -9.53255e-16 0)
(3 -1.15014e-15 0)
(3 -1.58385e-15 0)
(3 -1.28942e-15 0)
(3 -9.90317e-16 0)
(3 -5.63669e-16 0)
(3 5.61746e-17 0)
(3 8.30435e-16 0)
(3 9.08273e-16 0)
(3 9.19658e-16 0)
(3 1.0332e-15 0)
(3 8.30655e-16 0)
(3 -1.30344e-16 0)
(3 -8.41515e-17 0)
(3 4.19351e-16 0)
(3 9.209e-16 0)
(3 9.14783e-16 0)
(3 5.32401e-16 0)
(3 1.19947e-16 0)
(3 2.84411e-16 0)
(3 8.13237e-16 0)
(3 6.99477e-16 0)
(3 -1.39498e-15 0)
(3 -3.06821e-15 0)
(3 -3.20792e-15 0)
(3 -3.74757e-15 0)
(3 -4.1054e-15 0)
(3 -3.38313e-15 0)
(3 -2.39362e-15 0)
(3 -1.93767e-15 0)
(3 -1.93034e-15 0)
(3 -2.46779e-15 0)
(3 -2.16465e-15 0)
(3 -1.35928e-15 0)
(3 6.46758e-17 0)
(3 1.87536e-16 0)
(3 -3.49933e-16 0)
(3 -3.49489e-17 0)
(3 1.8272e-16 0)
(3 1.24125e-16 0)
(3 1.53388e-16 0)
(3 1.32019e-16 0)
(3 6.95365e-16 0)
(3 2.83767e-16 0)
(3 7.1093e-16 0)
(3 1.03318e-15 0)
(3 1.04092e-15 0)
(3 1.24557e-15 0)
(3 1.38955e-15 0)
(3 4.46521e-16 0)
(3 5.36087e-16 0)
(3 1.39725e-15 0)
(3 3.06761e-15 0)
(3 3.87743e-15 0)
(3 2.47595e-15 0)
(1.73704 0.229837 0)
(0.778581 0.231107 0)
(0.689705 0.214366 0)
(0.648706 0.229885 0)
(0.606634 0.249246 0)
(0.576353 0.277377 0)
(0.54599 0.292513 0)
(0.520427 0.285123 0)
(0.500584 0.267391 0)
(0.47476 0.257185 0)
(0.449581 0.262311 0)
(0.42149 0.278846 0)
(0.385698 0.29521 0)
(0.342872 0.308432 0)
(0.295367 0.317172 0)
(0.250214 0.327688 0)
(0.203974 0.336269 0)
(0.162829 0.343901 0)
(0.11843 0.356101 0)
(0.0717207 0.364389 0)
(0.0250647 0.377714 0)
(3 -3.77496e-16 0)
(3 -4.27935e-16 0)
(3 -7.83893e-16 0)
(3 -1.02005e-15 0)
(3 -1.10397e-15 0)
(3 -9.91448e-16 0)
(3 -3.942e-16 0)
(3 -1.1991e-15 0)
(3 -1.38161e-15 0)
(3 -1.19528e-15 0)
(3 -1.24825e-15 0)
(3 -1.63246e-15 0)
(3 -9.26644e-16 0)
(3 -1.61557e-16 0)
(3 -8.6401e-17 0)
(3 2.79631e-16 0)
(3 4.22589e-16 0)
(3 1.43212e-15 0)
(3 1.25463e-15 0)
(3 -1.73009e-16 0)
(3 -7.73863e-16 0)
(3 -1.22062e-15 0)
(3 -1.21954e-15 0)
(3 -1.17809e-15 0)
(3 -1.53737e-15 0)
(3 -9.58683e-16 0)
(3 3.90822e-17 0)
(3 -6.01484e-16 0)
(3 -3.39161e-16 0)
(3 -4.90341e-16 0)
(3 -7.33082e-16 0)
(3 -6.05496e-16 0)
(3 -3.73515e-16 0)
(3 -6.85958e-16 0)
(3 -3.61884e-16 0)
(3 -3.00522e-16 0)
(3 -6.53382e-16 0)
(3 -3.74165e-16 0)
(3 -3.65322e-16 0)
(3 8.10064e-16 0)
(3 1.60012e-15 0)
(3 1.34787e-15 0)
(3 -4.49573e-16 0)
(3 -1.8418e-15 0)
(3 -2.50616e-15 0)
(3 -3.12905e-15 0)
(3 -3.24271e-15 0)
(3 -3.33963e-15 0)
(3 -3.55667e-15 0)
(3 -3.33536e-15 0)
(3 -2.50275e-15 0)
(3 -2.60943e-15 0)
(3 -1.89688e-15 0)
(3 -3.12293e-16 0)
(3 3.37405e-16 0)
(3 6.14554e-16 0)
(3 7.03115e-16 0)
(3 7.78863e-16 0)
(3 4.14358e-16 0)
(3 -2.48598e-16 0)
(3 -2.11264e-16 0)
(3 2.03657e-16 0)
(3 1.14226e-15 0)
(3 2.04295e-15 0)
(3 2.32113e-15 0)
(3 1.63842e-15 0)
(3 8.85802e-16 0)
(3 9.99091e-16 0)
(3 1.8423e-15 0)
(3 1.26475e-15 0)
(3 1.39592e-15 0)
(3 1.47644e-15 0)
(3 2.23613e-15 0)
(3 2.16007e-15 0)
(3 2.3847e-15 0)
(1.98464 0.251218 0)
(0.801695 0.277342 0)
(0.688566 0.251368 0)
(0.654271 0.263628 0)
(0.621486 0.280642 0)
(0.598715 0.303445 0)
(0.572227 0.311984 0)
(0.548484 0.303443 0)
(0.524951 0.28898 0)
(0.496228 0.284387 0)
(0.467265 0.295622 0)
(0.436185 0.317651 0)
(0.398476 0.337133 0)
(0.355131 0.351151 0)
(0.307384 0.36046 0)
(0.26156 0.372334 0)
(0.215393 0.383476 0)
(0.17256 0.393563 0)
(0.125572 0.40746 0)
(0.0759474 0.415925 0)
(0.0265289 0.428643 0)
(3 -2.0414e-16 0)
(3 -7.34011e-16 0)
(3 -5.62011e-16 0)
(3 9.51471e-17 0)
(3 -3.98855e-16 0)
(3 -9.15928e-16 0)
(3 -6.63636e-16 0)
(3 -1.28313e-15 0)
(3 -1.21383e-15 0)
(3 -1.17135e-15 0)
(3 -1.06788e-15 0)
(3 -1.03678e-15 0)
(3 -1.16155e-15 0)
(3 -1.14223e-15 0)
(3 -7.28722e-16 0)
(3 1.56603e-16 0)
(3 1.22384e-15 0)
(3 2.27875e-15 0)
(3 2.26122e-15 0)
(3 1.49184e-15 0)
(3 2.93957e-16 0)
(3 4.39556e-16 0)
(3 6.32924e-16 0)
(3 6.96121e-17 0)
(3 -1.00661e-15 0)
(3 -1.81369e-15 0)
(3 -1.97501e-15 0)
(3 -1.48187e-15 0)
(3 -7.26573e-16 0)
(3 -8.81281e-16 0)
(3 -1.3915e-15 0)
(3 -1.12903e-15 0)
(3 -3.72388e-16 0)
(3 -3.93549e-17 0)
(3 -1.5763e-16 0)
(3 -9.72797e-18 0)
(3 -1.38534e-16 0)
(3 -7.3567e-16 0)
(3 -8.12608e-16 0)
(3 -2.72342e-16 0)
(3 -1.82541e-17 0)
(3 -5.74107e-17 0)
(3 -4.47086e-17 0)
(3 -8.63731e-16 0)
(3 -1.45573e-15 0)
(3 -1.25382e-15 0)
(3 -6.91982e-16 0)
(3 -1.46831e-15 0)
(3 -2.14546e-15 0)
(3 -2.23772e-15 0)
(3 -2.12397e-15 0)
(3 -1.48644e-15 0)
(3 -1.44915e-15 0)
(3 -1.9098e-15 0)
(3 -1.06028e-15 0)
(3 5.39817e-17 0)
(3 1.36618e-15 0)
(3 1.08102e-15 0)
(3 5.91941e-16 0)
(3 1.88711e-16 0)
(3 2.4815e-16 0)
(3 8.54106e-16 0)
(3 1.9379e-15 0)
(3 3.18308e-15 0)
(3 2.9259e-15 0)
(3 1.88296e-15 0)
(3 9.8316e-16 0)
(3 1.02911e-15 0)
(3 1.65282e-15 0)
(3 1.58082e-15 0)
(3 1.5803e-15 0)
(3 1.71632e-15 0)
(3 1.12987e-15 0)
(3 8.24598e-16 0)
(3 1.62502e-16 0)
(2.2863 0.270758 0)
(0.848767 0.330291 0)
(0.716506 0.282204 0)
(0.686717 0.286206 0)
(0.656735 0.300178 0)
(0.634282 0.322703 0)
(0.605985 0.332479 0)
(0.578916 0.324672 0)
(0.548033 0.314768 0)
(0.514605 0.315656 0)
(0.481006 0.333491 0)
(0.44681 0.360629 0)
(0.407819 0.381662 0)
(0.365907 0.394654 0)
(0.321272 0.403309 0)
(0.277715 0.416011 0)
(0.233778 0.429945 0)
(0.189682 0.443982 0)
(0.139131 0.461979 0)
(0.0841589 0.473339 0)
(0.0296296 0.486786 0)
(3 4.74214e-16 0)
(3 2.70302e-16 0)
(3 2.70537e-16 0)
(3 4.21524e-16 0)
(3 8.05825e-17 0)
(3 -4.12334e-16 0)
(3 -7.66758e-16 0)
(3 -7.93847e-16 0)
(3 -5.55719e-16 0)
(3 -5.99931e-16 0)
(3 1.29233e-16 0)
(3 1.8358e-17 0)
(3 -6.39638e-16 0)
(3 -1.03087e-15 0)
(3 -9.17105e-16 0)
(3 -3.9356e-16 0)
(3 1.62683e-15 0)
(3 2.67795e-15 0)
(3 2.80258e-15 0)
(3 2.95655e-15 0)
(3 1.80493e-15 0)
(3 1.4799e-15 0)
(3 5.76069e-16 0)
(3 -1.07624e-15 0)
(3 -1.80986e-15 0)
(3 -2.12565e-15 0)
(3 -2.10478e-15 0)
(3 -1.57569e-15 0)
(3 -1.16892e-15 0)
(3 -6.89858e-16 0)
(3 -8.07404e-16 0)
(3 -1.33692e-15 0)
(3 -9.78687e-16 0)
(3 -5.74611e-16 0)
(3 -3.68699e-16 0)
(3 -2.9645e-16 0)
(3 1.19145e-16 0)
(3 -4.28963e-17 0)
(3 -1.6952e-16 0)
(3 -6.37672e-16 0)
(3 -5.93572e-16 0)
(3 -2.2622e-16 0)
(3 -2.15681e-16 0)
(3 3.6281e-16 0)
(3 5.56793e-16 0)
(3 5.21728e-16 0)
(3 4.00764e-16 0)
(3 6.82061e-16 0)
(3 1.31953e-16 0)
(3 -4.3319e-16 0)
(3 -5.8082e-16 0)
(3 -2.22996e-16 0)
(3 -1.53104e-16 0)
(3 -6.29199e-16 0)
(3 -2.11275e-16 0)
(3 1.63925e-16 0)
(3 3.33468e-16 0)
(3 -2.56601e-17 0)
(3 9.74749e-17 0)
(3 8.88791e-16 0)
(3 1.8357e-15 0)
(3 1.71708e-15 0)
(3 1.25927e-15 0)
(3 1.70127e-15 0)
(3 1.96394e-15 0)
(3 1.98772e-15 0)
(3 1.85916e-15 0)
(3 1.24696e-15 0)
(3 1.21771e-15 0)
(3 1.25293e-15 0)
(3 7.23675e-16 0)
(3 6.55501e-16 0)
(3 3.20956e-16 0)
(3 8.5322e-16 0)
(3 2.47158e-16 0)
(2.68094 0.246591 0)
(0.945474 0.358053 0)
(0.767927 0.290473 0)
(0.738289 0.301152 0)
(0.697991 0.324493 0)
(0.664482 0.353585 0)
(0.629998 0.363544 0)
(0.598676 0.356301 0)
(0.562959 0.348628 0)
(0.523402 0.353241 0)
(0.483813 0.37527 0)
(0.448801 0.405464 0)
(0.41371 0.426038 0)
(0.379232 0.436351 0)
(0.341052 0.4436 0)
(0.300509 0.457778 0)
(0.256733 0.477261 0)
(0.208842 0.498742 0)
(0.153152 0.523486 0)
(0.0924023 0.540103 0)
(0.0311761 0.554617 0)
(3 1.37168e-16 0)
(3 2.90648e-16 0)
(3 6.84313e-16 0)
(3 7.17291e-16 0)
(3 1.01565e-15 0)
(3 7.84333e-16 0)
(3 -3.37858e-16 0)
(3 -3.9996e-17 0)
(3 2.17535e-17 0)
(3 -2.21647e-16 0)
(3 -3.26843e-16 0)
(3 -6.4294e-16 0)
(3 -7.55678e-16 0)
(3 -9.31639e-16 0)
(3 -1.20284e-16 0)
(3 8.02593e-16 0)
(3 1.44734e-15 0)
(3 1.98255e-15 0)
(3 1.93296e-15 0)
(3 1.42816e-15 0)
(3 1.59431e-15 0)
(3 1.01319e-15 0)
(3 -7.79797e-16 0)
(3 -7.34604e-16 0)
(3 -1.93435e-16 0)
(3 1.501e-17 0)
(3 -2.15758e-16 0)
(3 -2.02113e-16 0)
(3 -1.013e-16 0)
(3 4.68257e-16 0)
(3 2.20586e-16 0)
(3 -1.82948e-16 0)
(3 -5.20072e-16 0)
(3 -3.90622e-16 0)
(3 -3.31474e-16 0)
(3 -1.2245e-15 0)
(3 -7.08459e-16 0)
(3 -3.07169e-16 0)
(3 -7.91951e-16 0)
(3 -1.00266e-15 0)
(3 -1.33821e-15 0)
(3 4.41992e-16 0)
(3 1.17687e-15 0)
(3 7.48407e-16 0)
(3 2.90597e-16 0)
(3 3.25196e-16 0)
(3 5.1452e-16 0)
(3 1.06414e-15 0)
(3 1.02262e-15 0)
(3 4.65513e-16 0)
(3 -1.26784e-16 0)
(3 -1.28907e-16 0)
(3 2.96881e-16 0)
(3 4.01394e-16 0)
(3 -2.27481e-16 0)
(3 -5.7643e-16 0)
(3 -1.19242e-15 0)
(3 -7.97299e-16 0)
(3 9.24452e-17 0)
(3 1.42591e-15 0)
(3 1.89162e-15 0)
(3 1.54303e-15 0)
(3 5.53817e-16 0)
(3 6.31251e-16 0)
(3 1.851e-15 0)
(3 2.13889e-15 0)
(3 2.13227e-15 0)
(3 1.84584e-15 0)
(3 1.65318e-15 0)
(3 1.70529e-15 0)
(3 1.21404e-15 0)
(3 3.06016e-16 0)
(3 2.53393e-16 0)
(3 2.51493e-16 0)
(3 1.11081e-15 0)
(3.0006 0.0730473 0)
(1.07847 0.368377 0)
(0.790332 0.313316 0)
(0.762914 0.339063 0)
(0.71771 0.368753 0)
(0.674524 0.39601 0)
(0.632521 0.400058 0)
(0.595085 0.390254 0)
(0.558397 0.383414 0)
(0.520082 0.39187 0)
(0.485408 0.416776 0)
(0.457129 0.447052 0)
(0.429618 0.465195 0)
(0.402235 0.473067 0)
(0.368658 0.482311 0)
(0.329929 0.500515 0)
(0.287867 0.52695 0)
(0.24007 0.555967 0)
(0.182598 0.588285 0)
(0.113842 0.615121 0)
(0.040074 0.635365 0)
(3 -4.19137e-16 0)
(3 -4.43277e-16 0)
(3 -2.85468e-16 0)
(3 5.61998e-16 0)
(3 1.33524e-15 0)
(3 9.28091e-16 0)
(3 4.19593e-16 0)
(3 6.02208e-16 0)
(3 -2.94116e-17 0)
(3 -5.81149e-16 0)
(3 -9.25476e-16 0)
(3 -8.5691e-16 0)
(3 -1.6297e-17 0)
(3 6.5325e-16 0)
(3 6.87642e-16 0)
(3 5.53353e-16 0)
(3 1.17102e-16 0)
(3 -7.10863e-16 0)
(3 -8.36503e-16 0)
(3 -6.10389e-16 0)
(3 2.45122e-16 0)
(3 9.88433e-16 0)
(3 9.50258e-16 0)
(3 5.50375e-16 0)
(3 1.01294e-15 0)
(3 7.06157e-16 0)
(3 1.83952e-16 0)
(3 -1.04093e-16 0)
(3 4.17957e-17 0)
(3 8.86035e-16 0)
(3 7.67118e-16 0)
(3 5.90137e-16 0)
(3 -3.24981e-16 0)
(3 -7.41278e-16 0)
(3 -1.02551e-15 0)
(3 -1.68205e-15 0)
(3 -1.41499e-15 0)
(3 -7.45244e-16 0)
(3 -1.80895e-17 0)
(3 9.11789e-18 0)
(3 -7.66352e-16 0)
(3 5.92412e-16 0)
(3 2.50688e-15 0)
(3 2.20517e-15 0)
(3 1.40328e-15 0)
(3 1.24895e-15 0)
(3 1.74142e-15 0)
(3 1.91462e-15 0)
(3 2.44375e-15 0)
(3 2.15001e-15 0)
(3 9.98375e-16 0)
(3 -2.91715e-16 0)
(3 -1.10553e-15 0)
(3 -1.62956e-15 0)
(3 -1.83731e-15 0)
(3 -1.66372e-15 0)
(3 -4.63794e-16 0)
(3 2.05843e-16 0)
(3 4.90105e-16 0)
(3 7.0762e-16 0)
(3 5.35867e-16 0)
(3 3.95043e-16 0)
(3 -2.0383e-16 0)
(3 -6.90945e-16 0)
(3 -2.01138e-17 0)
(3 1.08574e-15 0)
(3 2.51356e-15 0)
(3 2.90747e-15 0)
(3 2.70043e-15 0)
(3 2.11681e-15 0)
(3 1.19488e-15 0)
(3 1.09435e-15 0)
(3 8.12561e-16 0)
(3 4.34956e-16 0)
(3 8.89179e-16 0)
(3.01318 0.00397744 0)
(1.21361 0.362248 0)
(0.781991 0.339983 0)
(0.740051 0.376209 0)
(0.693594 0.40979 0)
(0.655815 0.432148 0)
(0.624179 0.43192 0)
(0.595087 0.422226 0)
(0.564227 0.416664 0)
(0.531025 0.427205 0)
(0.502697 0.452616 0)
(0.479716 0.481302 0)
(0.458172 0.498241 0)
(0.434305 0.507464 0)
(0.404634 0.521498 0)
(0.367832 0.544259 0)
(0.327555 0.577786 0)
(0.277439 0.619051 0)
(0.212169 0.666571 0)
(0.134207 0.712435 0)
(0.0414026 0.739569 0)
(3 -2.17379e-16 0)
(3 -3.59371e-16 0)
(3 5.67093e-17 0)
(3 3.00477e-16 0)
(3 -2.28605e-16 0)
(3 -4.47918e-16 0)
(3 1.55395e-16 0)
(3 7.58663e-17 0)
(3 -2.53603e-16 0)
(3 -3.94155e-16 0)
(3 -2.10896e-16 0)
(3 2.32633e-16 0)
(3 1.73074e-16 0)
(3 1.46789e-16 0)
(3 -7.22271e-18 0)
(3 -4.17088e-16 0)
(3 -1.18607e-15 0)
(3 -2.34674e-15 0)
(3 -2.05511e-15 0)
(3 -1.48124e-15 0)
(3 -4.24229e-16 0)
(3 4.357e-16 0)
(3 1.09157e-15 0)
(3 1.12817e-15 0)
(3 6.32824e-16 0)
(3 -1.00324e-16 0)
(3 -1.98531e-16 0)
(3 -8.57052e-16 0)
(3 -1.11383e-15 0)
(3 -1.38488e-15 0)
(3 -1.25565e-15 0)
(3 -8.46063e-16 0)
(3 -9.59362e-16 0)
(3 -1.54822e-15 0)
(3 -1.72414e-15 0)
(3 -9.39768e-16 0)
(3 -4.35921e-16 0)
(3 -7.60597e-16 0)
(3 -5.7638e-16 0)
(3 1.00733e-15 0)
(3 1.5748e-15 0)
(3 1.22191e-15 0)
(3 1.1519e-15 0)
(3 1.41901e-15 0)
(3 1.28845e-15 0)
(3 1.4297e-15 0)
(3 1.6061e-15 0)
(3 1.82242e-15 0)
(3 3.11556e-15 0)
(3 3.0897e-15 0)
(3 6.46788e-16 0)
(3 -3.87731e-16 0)
(3 -1.81889e-15 0)
(3 -2.02979e-15 0)
(3 -1.14554e-15 0)
(3 -2.93632e-16 0)
(3 -2.71531e-16 0)
(3 5.04531e-16 0)
(3 5.08264e-16 0)
(3 3.26276e-16 0)
(3 -9.00056e-17 0)
(3 -5.49288e-16 0)
(3 -7.92774e-16 0)
(3 -9.76903e-16 0)
(3 -1.67791e-16 0)
(3 6.76512e-16 0)
(3 1.95257e-15 0)
(3 1.31077e-15 0)
(3 4.74004e-16 0)
(3 5.10602e-16 0)
(3 1.10773e-15 0)
(3 8.44169e-16 0)
(3 4.43951e-16 0)
(3 1.67024e-15 0)
(3 1.02332e-15 0)
(3.00018 7.75692e-06 0)
(1.46698 0.396005 0)
(0.779907 0.377987 0)
(0.713232 0.410173 0)
(0.686202 0.446403 0)
(0.660131 0.463805 0)
(0.637587 0.460575 0)
(0.61423 0.451515 0)
(0.588224 0.446582 0)
(0.560244 0.456972 0)
(0.536531 0.481223 0)
(0.517263 0.509253 0)
(0.499106 0.528573 0)
(0.4775 0.541062 0)
(0.450969 0.560341 0)
(0.415781 0.589534 0)
(0.375484 0.634151 0)
(0.32893 0.691893 0)
(0.269272 0.752823 0)
(0.194314 0.816188 0)
(0.0734436 0.867184 0)
(3 -2.67802e-18 0)
(3 1.73362e-16 0)
(3 5.11347e-17 0)
(3 -4.62714e-16 0)
(3 -1.0939e-15 0)
(3 -1.31091e-15 0)
(3 -2.63926e-16 0)
(3 -1.70218e-16 0)
(3 2.27293e-16 0)
(3 6.81715e-16 0)
(3 6.25826e-16 0)
(3 1.72375e-16 0)
(3 -3.78575e-16 0)
(3 -8.4288e-16 0)
(3 -1.32002e-15 0)
(3 -1.87005e-15 0)
(3 -1.83314e-15 0)
(3 -1.46684e-15 0)
(3 -9.2781e-16 0)
(3 -4.86871e-16 0)
(3 -4.0792e-16 0)
(3 2.03246e-16 0)
(3 5.53135e-16 0)
(3 9.16579e-16 0)
(3 1.80046e-16 0)
(3 -8.41187e-16 0)
(3 -1.08256e-15 0)
(3 -4.53605e-16 0)
(3 -6.09873e-17 0)
(3 -5.40299e-16 0)
(3 -9.51402e-16 0)
(3 -1.20904e-15 0)
(3 -7.38038e-16 0)
(3 -1.27556e-15 0)
(3 -1.20915e-15 0)
(3 -7.70181e-16 0)
(3 -5.03158e-16 0)
(3 -1.6547e-16 0)
(3 -2.14734e-16 0)
(3 9.06137e-16 0)
(3 1.22623e-15 0)
(3 8.45095e-16 0)
(3 2.87043e-16 0)
(3 2.03409e-16 0)
(3 1.79088e-16 0)
(3 1.20084e-15 0)
(3 1.98862e-15 0)
(3 2.21706e-15 0)
(3 2.15188e-15 0)
(3 1.73675e-15 0)
(3 1.38694e-15 0)
(3 7.10426e-16 0)
(3 2.21416e-16 0)
(3 8.20413e-16 0)
(3 1.02269e-15 0)
(3 1.36511e-15 0)
(3 6.77626e-16 0)
(3 1.23861e-16 0)
(3 8.10708e-16 0)
(3 1.25957e-17 0)
(3 -5.38082e-16 0)
(3 -1.53574e-15 0)
(3 -1.5723e-15 0)
(3 -1.19948e-15 0)
(3 -1.18845e-15 0)
(3 -5.11471e-16 0)
(3 3.44458e-16 0)
(3 -6.98662e-16 0)
(3 -1.03341e-15 0)
(3 -1.13228e-16 0)
(3 1.15211e-15 0)
(3 9.2724e-16 0)
(3 7.74271e-16 0)
(3 3.24795e-16 0)
(3 9.86738e-16 0)
(3 -8.64562e-09 0)
(1.90657 0.433021 0)
(0.834278 0.4465 0)
(0.732246 0.445749 0)
(0.714316 0.471864 0)
(0.692693 0.483119 0)
(0.673751 0.481269 0)
(0.65382 0.475485 0)
(0.63131 0.472169 0)
(0.607441 0.482667 0)