/*--------------------------------*- C++ -*----------------------------------*\
  =========                 |
  \\      /  F ield         | OpenFOAM: The Open Source CFD Toolbox
   \\    /   O peration     | Website:  https://openfoam.org
    \\  /    A nd           | Version:  7
     \\/     M anipulation  |
\*---------------------------------------------------------------------------*/
FoamFile
{
    version     2.0;
    format      ascii;
    class       volScalarField;
    location    "2";
    object      p;
}
// * * * * * * * * * * * * * * * * * * * * * * * * * * * * * * * * * * * * * //

dimensions      [1 -1 -2 0 0 0 0];

internalField   nonuniform List<scalar> 
16192
(
2.51319
2.48753
2.47636
2.47122
2.46739
2.46629
2.47339
2.47786
2.47436
2.46812
2.45657
2.43636
2.42086
2.41442
2.41023
2.40611
2.40545
2.40758
2.40294
2.39696
2.38787
2.37716
2.36842
2.36314
2.35824
2.35448
2.35132
2.34647
2.34083
2.33272
2.31836
2.29993
2.29072
2.28604
2.28232
2.28145
2.28671
2.29008
2.28677
2.28072
2.27387
2.26354
2.24393
2.22411
2.21427
2.20844
2.20527
2.20284
2.20063
2.19803
2.19513
2.19607
2.19358
2.18992
2.18725
2.18651
2.18737
2.18743
2.18863
2.19656
2.20923
2.22456
2.24061
2.25227
2.25691
2.25676
2.25139
2.23997
2.2233
2.20178
2.1867
2.17883
2.1725
2.16688
2.16355
2.16874
2.18551
2.1924
2.19008
2.18607
2.18034
2.16824
2.14811
2.136
2.13112
2.12723
2.12339
2.1222
2.12017
2.11598
2.10988
2.10048
2.09073
2.08648
2.08361
2.08146
2.07971
2.07903
2.08326
2.09952
2.14131
2.26017
2.49792
2.84205
3.19969
3.55139
3.73432
3.80159
3.86975
3.91567
3.97036
4.00524
4.0158
4.01185
3.99462
3.96907
3.93181
3.8849
3.84613
3.82326
3.81374
3.80665
3.80217
3.805
3.82089
3.84818
3.85711
3.85525
3.85155
3.84325
3.82497
3.79063
3.73969
3.6928
3.6743
3.67013
3.66741
3.66507
3.66851
3.68814
3.71842
3.7265
3.7227
3.71725
3.70336
3.67966
3.6493
3.62375
3.61454
3.6133
3.61595
3.61832
3.62079
3.62691
3.63822
3.64537
3.64205
3.63525
3.62044
3.59105
3.54839
3.50757
3.48531
3.47695
3.47468
3.47742
3.48529
3.49987
3.52884
3.56489
3.58046
3.57633
3.56593
3.55185
3.51818
3.44533
3.35579
3.29723
3.27597
3.27013
3.27295
3.28766
3.32711
3.38681
3.44558
3.47869
3.47966
3.46788
3.44715
3.40605
3.34108
3.27018
3.23428
3.2279
3.22617
3.2285
3.2467
3.29235
3.35249
3.3818
3.38278
3.37602
3.35858
3.30589
3.21919
3.15852
3.13921
3.13507
3.13607
3.1505
3.19471
3.26057
3.33651
3.38215
3.38552
3.37711
3.35601
3.30534
3.20432
3.10352
3.06148
3.05226
3.04971
3.05898
3.08641
3.11167
3.12632
3.14469
3.17428
3.20108
3.20225
3.19317
3.17768
3.14952
3.09804
3.03029
2.99137
2.98533
2.9849
2.99081
3.01282
3.05181
3.07979
3.0784
3.0688
3.04927
3.01276
2.965
2.93239
2.92305
2.92187
2.9266
2.94604
2.53039
2.50079
2.47206
2.46198
2.45729
2.45374
2.45417
2.46654
2.47257
2.46884
2.46265
2.45122
2.42774
2.40809
2.40079
2.39606
2.3913
2.39026
2.39746
2.39919
2.39525
2.38904
2.37847
2.36307
2.35219
2.34534
2.33996
2.33544
2.33142
2.32673
2.31985
2.30797
2.29247
2.28366
2.27938
2.27743
2.2793
2.28361
2.28534
2.28058
2.27375
2.26644
2.2554
2.23532
2.21763
2.20847
2.20267
2.19924
2.19676
2.19473
2.19218
2.18966
2.18479
2.17917
2.17407
2.17116
2.17315
2.17679
2.17881
2.18321
2.19329
2.20742
2.22532
2.24185
2.25141
2.25292
2.25148
2.24399
2.23034
2.2106
2.18775
2.17588
2.16949
2.16405
2.15948
2.15911
2.16782
2.1842
2.18729
2.18317
2.17901
2.17285
2.15898
2.1367
2.12412
2.11904
2.11482
2.11124
2.11249
2.11277
2.1097
2.10548
2.09793
2.08867
2.08217
2.07841
2.07497
2.07143
2.06909
2.07134
2.07926
2.08485
2.10511
2.17502
2.34918
2.62362
2.96999
3.3026
3.61922
3.73665
3.81827
3.88434
3.93166
3.97027
3.99075
3.99007
3.97267
3.94498
3.91167
3.86333
3.82291
3.80385
3.79317
3.78489
3.78225
3.79111
3.82329
3.85211
3.85354
3.85059
3.84388
3.83091
3.80169
3.75143
3.69405
3.6587
3.64312
3.63399
3.62964
3.62992
3.64602
3.68638
3.71672
3.72354
3.72427
3.72118
3.70991
3.68556
3.64774
3.61626
3.60322
3.59725
3.59299
3.59098
3.59247
3.60438
3.62363
3.62778
3.62413
3.61669
3.59864
3.56845
3.52988
3.49562
3.47966
3.47464
3.47473
3.47922
3.48707
3.50392
3.53064
3.5536
3.55596
3.54243
3.51766
3.48161
3.4316
3.36779
3.30677
3.27862
3.27507
3.28201
3.29915
3.31879
3.34569
3.39084
3.44018
3.45436
3.44507
3.43383
3.41118
3.36652
3.29796
3.23715
3.21976
3.21973
3.22735
3.24298
3.27328
3.32077
3.35789
3.36332
3.35018
3.3156
3.26046
3.20389
3.1686
3.1568
3.1567
3.1734
3.20794
3.24135
3.26908
3.30619
3.34175
3.34665
3.33167
3.29696
3.24979
3.18719
3.11844
3.07931
3.07299
3.08299
3.10575
3.11245
3.10844
3.10289
3.10208
3.11759
3.15787
3.18116
3.1776
3.17429
3.16572
3.1358
3.06943
3.00059
2.97754
2.97105
2.96722
2.9707
2.99798
3.04136
3.05656
3.05428
3.04854
3.03096
2.99423
2.94999
2.92676
2.92199
2.92016
2.53501
2.51888
2.4874
2.45853
2.44985
2.44605
2.44411
2.44849
2.46215
2.46483
2.45974
2.45362
2.44179
2.41683
2.3958
2.38813
2.38318
2.37923
2.38341
2.3962
2.39546
2.3901
2.38385
2.37222
2.35262
2.33822
2.33035
2.32481
2.32007
2.31731
2.31475
2.30995
2.30192
2.2907
2.28267
2.27801
2.2752
2.27368
2.27343
2.27263
2.26939
2.26391
2.2564
2.24491
2.22902
2.21469
2.20513
2.19958
2.19612
2.19294
2.18995
2.18605
2.17988
2.17306
2.16514
2.15829
2.15701
2.15965
2.1643
2.17021
2.17842
2.19059
2.20695
2.22703
2.2424
2.2483
2.24856
2.24582
2.23596
2.22023
2.19832
2.17811
2.16981
2.16439
2.15934
2.15601
2.15737
2.16437
2.17446
2.17705
2.17341
2.16858
2.1616
2.1478
2.12659
2.11415
2.10914
2.10532
2.10416
2.10832
2.1084
2.10523
2.10109
2.09317
2.08131
2.0738
2.06968
2.06641
2.06332
2.06078
2.06381
2.0707
2.07166
2.06848
2.07199
2.10421
2.20856
2.40951
2.71363
3.09076
3.39669
3.68267
3.78519
3.85718
3.92665
3.9519
3.95555
3.96401
3.95257
3.91142
3.87092
3.83303
3.7953
3.78059
3.7753
3.77313
3.78081
3.80398
3.83967
3.85356
3.85074
3.84346
3.8303
3.80444
3.75741
3.6916
3.63881
3.619
3.61239
3.60965
3.61116
3.62978
3.68041
3.7275
3.73879
3.73997
3.73743
3.72777
3.70099
3.65331
3.60618
3.58198
3.57446
3.57111
3.56963
3.57035
3.57927
3.60074
3.61784
3.61782
3.61535
3.60861
3.58943
3.55699
3.51668
3.48567
3.47333
3.46918
3.46846
3.46624
3.46797
3.47928
3.49791
3.5069
3.49851
3.48711
3.47617
3.456
3.41773
3.35764
3.3028
3.28748
3.28575
3.28327
3.28357
3.29422
3.32624
3.38436
3.42981
3.43588
3.43195
3.41981
3.39091
3.33582
3.26508
3.22804
3.2233
3.22133
3.22353
3.23874
3.26801
3.29742
3.30547
3.29656
3.28264
3.25884
3.22928
3.207
3.20139
3.21213
3.23067
3.23818
3.23723
3.24128
3.25669
3.27656
3.28197
3.27283
3.26074
3.24764
3.21804
3.16692
3.12347
3.11223
3.10838
3.10041
3.08341
3.06263
3.05421
3.05548
3.07858
3.13829
3.19274
3.20776
3.20771
3.19869
3.16346
3.07356
2.97715
2.93597
2.91913
2.91449
2.92156
2.96138
3.02139
3.0626
3.07597
3.07452
3.063
3.02089
2.94674
2.9068
2.89736
2.53207
2.52269
2.50715
2.47794
2.45044
2.44136
2.43827
2.43871
2.44374
2.45129
2.45323
2.44855
2.44267
2.43121
2.40743
2.38593
2.37852
2.37471
2.37458
2.383
2.39044
2.38592
2.37978
2.37318
2.36093
2.3398
2.32435
2.31675
2.31122
2.30653
2.30585
2.3072
2.30418
2.299
2.2907
2.2802
2.27242
2.26706
2.26276
2.25939
2.25757
2.25662
2.25243
2.24548
2.23731
2.22603
2.21378
2.20437
2.19803
2.19304
2.18804
2.18276
2.17607
2.16792
2.15933
2.15048
2.14536
2.14542
2.14742
2.15156
2.15968
2.17145
2.18611
2.20446
2.2267
2.24065
2.24432
2.24411
2.23995
2.22818
2.21079
2.18916
2.17349
2.16668
2.16141
2.15668
2.1536
2.15306
2.15495
2.15939
2.16224
2.16044
2.15665
2.15014
2.13834
2.12069
2.10859
2.10352
2.1009
2.10358
2.10459
2.10161
2.09863
2.0941
2.08488
2.07202
2.06424
2.0603
2.0573
2.05454
2.05298
2.05507
2.06089
2.05941
2.05554
2.0504
2.04122
2.04793
2.09486
2.24705
2.51124
2.85814
3.2497
3.51972
3.76714
3.87555
3.90771
3.94769
3.9524
3.93246
3.91218
3.86903
3.81576
3.78726
3.77196
3.76216
3.75694
3.76019
3.77846
3.81102
3.8357
3.83594
3.82873
3.81751
3.79736
3.75961
3.7024
3.6435
3.61179
3.60287
3.6013
3.60739
3.62421
3.66044
3.70862
3.7347
3.73619
3.72898
3.71553
3.69271
3.65735
3.61349
3.57638
3.55891
3.5535
3.5521
3.55222
3.5562
3.57025
3.59796
3.61561
3.61548
3.61159
3.60067
3.57794
3.54185
3.4982
3.46478
3.44611
3.43378
3.42565
3.42009
3.42132
3.43918
3.47247
3.49266
3.50215
3.50146
3.49272
3.46472
3.39771
3.31164
3.26924
3.25688
3.24939
3.24399
3.2479
3.27681
3.34604
3.41408
3.42634
3.42294
3.41785
3.40543
3.3713
3.30363
3.23487
3.21289
3.20857
3.2034
3.19978
3.20783
3.23155
3.26538
3.2835
3.28866
3.2952
3.29682
3.28307
3.25734
3.23574
3.22366
3.21228
3.19861
3.18695
3.18577
3.20665
3.24481
3.26818
3.27682
3.27658
3.26415
3.22559
3.15631
3.09866
3.06922
3.05037
3.04051
3.03712
3.03734
3.04885
3.08565
3.15393
3.204
3.20601
3.19792
3.18104
3.13356
3.03088
2.9312
2.90116
2.89472
2.8942
2.91599
3.00294
3.09282
3.10975
3.10655
3.09849
3.0683
2.98047
2.8916
2.86987
2.52069
2.51964
2.51137
2.49855
2.47633
2.45089
2.43843
2.43425
2.43319
2.43327
2.43543
2.43906
2.43654
2.43175
2.42237
2.40283
2.38257
2.37467
2.37108
2.37083
2.37373
2.3758
2.37182
2.36659
2.36001
2.34885
2.32986
2.31349
2.30555
2.3001
2.2968
2.30074
2.30439
2.30108
2.29561
2.28688
2.27243
2.26032
2.2532
2.24871
2.24533
2.24333
2.2426
2.24191
2.23785
2.2324
2.22501
2.21607
2.20572
2.19532
2.18708
2.18051
2.1736
2.16492
2.15518
2.14614
2.13831
2.13557
2.13579
2.13769
2.14164
2.14956
2.16202
2.17817
2.19852
2.22299
2.23667
2.23968
2.23888
2.23348
2.22078
2.20388
2.18421
2.17005
2.16303
2.15737
2.15243
2.14835
2.14553
2.1439
2.14485
2.14702
2.14673
2.1443
2.14007
2.1319
2.11959
2.10909
2.10387
2.10136
2.09987
2.09642
2.09338
2.09014
2.08517
2.07585
2.06296
2.05433
2.04992
2.04728
2.04476
2.04288
2.04412
2.04814
2.04788
2.04417
2.04007
2.04032
2.02544
2.01627
2.04029
2.13227
2.36368
2.68583
3.05209
3.40679
3.64686
3.83081
3.90624
3.93393
3.933
3.89612
3.85066
3.81539
3.77705
3.74718
3.73249
3.72553
3.72197
3.72914
3.76106
3.80195
3.81553
3.80997
3.80371
3.7925
3.76939
3.72934
3.67643
3.63027
3.60833
3.60371
3.60499
3.60903
3.62311
3.65134
3.68535
3.70412
3.70325
3.69459
3.68411
3.6652
3.63425
3.59317
3.55745
3.54049
3.53439
3.5325
3.53428
3.54296
3.56735
3.60206
3.61518
3.61221
3.60485
3.58865
3.55425
3.4989
3.44547
3.41585
3.39898
3.38953
3.38509
3.38806
3.42242
3.49368
3.52716
3.52846
3.52323
3.51365
3.48329
3.40142
3.29063
3.23387
3.21745
3.20965
3.20583
3.21072
3.24248
3.31573
3.39667
3.42701
3.43683
3.437
3.4291
3.40029
3.32619
3.23651
3.18864
3.16077
3.14637
3.14392
3.15621
3.19395
3.25337
3.31371
3.351
3.36227
3.35762
3.32675
3.26109
3.20432
3.17168
3.14806
3.13657
3.13459
3.14634
3.20146
3.27919
3.30851
3.31586
3.31087
3.29209
3.23224
3.12424
3.054
3.03721
3.03292
3.03125
3.03192
3.04034
3.05589
3.08514
3.13269
3.17519
3.18131
3.17123
3.15042
3.10138
3.00938
2.92239
2.89305
2.89139
2.90783
2.95262
3.03016
3.08945
3.10026
3.09264
3.0632
3.00521
2.91639
2.86242
2.49918
2.50568
2.50862
2.5024
2.49293
2.47694
2.45243
2.43364
2.42713
2.42348
2.42062
2.42081
2.42641
2.42607
2.42259
2.41634
2.40232
2.38216
2.37089
2.36561
2.36114
2.35818
2.35774
2.35656
2.35265
2.34817
2.33978
2.32372
2.30709
2.2987
2.29418
2.29556
2.30148
2.29907
2.29336
2.2872
2.27697
2.25936
2.24539
2.23858
2.23484
2.23168
2.22911
2.22902
2.23306
2.23388
2.2297
2.22379
2.21659
2.20578
2.19246
2.1814
2.17301
2.16442
2.15425
2.1443
2.13581
2.12942
2.12752
2.12757
2.12944
2.13304
2.14009
2.1518
2.16755
2.18877
2.21516
2.23075
2.23354
2.23235
2.22663
2.21509
2.19991
2.18099
2.16501
2.15708
2.15072
2.1451
2.14038
2.13602
2.13253
2.13194
2.13439
2.13595
2.1349
2.13195
2.12714
2.11957
2.11017
2.10267
2.09749
2.09316
2.08929
2.0859
2.08235
2.07712
2.06778
2.05397
2.04338
2.03774
2.03486
2.03215
2.02994
2.03107
2.03781
2.03879
2.03684
2.03452
2.03097
2.02869
2.01371
1.99172
2.00161
2.06332
2.22242
2.50904
2.85937
3.20876
3.50929
3.74474
3.84859
3.87146
3.88823
3.87796
3.82903
3.77021
3.73575
3.71259
3.69476
3.68212
3.67792
3.6976
3.7415
3.78645
3.80056
3.79853
3.79597
3.78603
3.76211
3.72319
3.67137
3.62243
3.59452
3.58103
3.57514
3.57601
3.5891
3.61814
3.65616
3.68063
3.6822
3.67484
3.66595
3.64658
3.61147
3.56624
3.5315
3.5181
3.51414
3.51467
3.51939
3.53652
3.57246
3.60339
3.60522
3.59713
3.58351
3.55285
3.49735
3.43207
3.39289
3.37925
3.37513
3.37508
3.38624
3.425
3.48992
3.52872
3.52805
3.51941
3.50579
3.46706
3.37572
3.26482
3.20866
3.19598
3.19196
3.19087
3.19997
3.23352
3.30455
3.3991
3.44379
3.44434
3.43783
3.42613
3.39007
3.29697
3.18284
3.13518
3.1239
3.12115
3.12649
3.15653
3.24557
3.34529
3.38067
3.38299
3.37888
3.36342
3.30807
3.21088
3.14751
3.12721
3.12003
3.12044
3.12782
3.15814
3.22993
3.3043
3.32018
3.31391
3.30109
3.27119
3.19688
3.09574
3.04339
3.03453
3.03216
3.03136
3.03423
3.04428
3.05481
3.0667
3.09224
3.12932
3.14213
3.13313
3.10968
3.07742
3.02865
2.9694
2.935
2.93091
2.94407
2.97105
3.00586
3.03773
3.04497
3.0315
2.99818
2.95655
2.90133
2.48568
2.48562
2.49661
2.50235
2.49709
2.48847
2.47478
2.44978
2.42555
2.41633
2.41204
2.40889
2.40946
2.41714
2.41845
2.41592
2.41097
2.39905
2.37613
2.36009
2.35307
2.34663
2.34179
2.34092
2.34416
2.3421
2.33848
2.33281
2.32235
2.30928
2.30006
2.29525
2.2939
2.29254
2.2874
2.28165
2.27444
2.26306
2.2448
2.23148
2.22559
2.22175
2.21882
2.21687
2.21868
2.22592
2.23031
2.22574
2.22014
2.21371
2.20365
2.19062
2.17887
2.16952
2.15986
2.14766
2.13619
2.12805
2.12273
2.12036
2.11966
2.12114
2.1243
2.13086
2.14144
2.15595
2.17645
2.204
2.22267
2.22696
2.22626
2.2212
2.21087
2.19639
2.17643
2.15731
2.14831
2.14191
2.136
2.13054
2.12553
2.12224
2.12287
2.12686
2.12888
2.12815
2.12596
2.1224
2.11698
2.10785
2.09845
2.09326
2.0893
2.08563
2.08193
2.07725
2.07057
2.05899
2.04235
2.03048
2.02445
2.02124
2.01825
2.01627
2.01903
2.03091
2.03549
2.03535
2.03455
2.03203
2.02647
2.01731
1.98836
1.95762
1.96117
1.99555
2.10271
2.31424
2.63203
3.00198
3.34836
3.59236
3.78092
3.82181
3.84319
3.83524
3.79484
3.74996
3.71076
3.68379
3.66475
3.65607
3.65442
3.67718
3.73407
3.7891
3.80393
3.80429
3.80248
3.78923
3.75408
3.69625
3.62643
3.57449
3.55565
3.54885
3.54619
3.54833
3.5636
3.59702
3.63932
3.6651
3.66613
3.65958
3.64918
3.62527
3.58514
3.53787
3.50757
3.49939
3.49838
3.49928
3.50775
3.53324
3.57221
3.58957
3.58353
3.57012
3.5462
3.50403
3.44859
3.40149
3.38164
3.37724
3.37974
3.39006
3.41097
3.45422
3.5005
3.50817
3.49652
3.47279
3.43236
3.36532
3.27881
3.21134
3.18994
3.18645
3.19136
3.20722
3.23721
3.29074
3.36058
3.41418
3.42492
3.416
3.39314
3.34871
3.26447
3.1703
3.12407
3.11819
3.12489
3.1533
3.20567
3.27703
3.34142
3.36878
3.36714
3.35535
3.32752
3.26248
3.17507
3.12556
3.11698
3.11732
3.12413
3.14382
3.17671
3.22723
3.28137
3.2995
3.29224
3.27582
3.24396
3.18562
3.10715
3.05199
3.03888
3.03679
3.03817
3.03658
3.03203
3.02639
3.02496
3.0377
3.07106
3.09915
3.11142
3.1117
3.10465
3.08345
3.03485
2.9725
2.9494
2.94574
2.94384
2.94563
2.95351
2.96571
2.96724
2.96105
2.94582
2.47702
2.47512
2.48065
2.49546
2.49706
2.48972
2.48138
2.4685
2.44483
2.41911
2.4073
2.40274
2.40096
2.40476
2.41348
2.41264
2.4086
2.4025
2.38945
2.36407
2.34609
2.33814
2.33185
2.32729
2.32599
2.33071
2.33329
2.3322
2.32996
2.32469
2.31365
2.29874
2.2898
2.28371
2.27821
2.27318
2.26757
2.26026
2.24941
2.23345
2.22038
2.21433
2.21116
2.20951
2.20929
2.21168
2.21634
2.22163
2.21911
2.21309
2.20756
2.19972
2.18965
2.17957
2.17031
2.15911
2.14293
2.12862
2.1214
2.11639
2.11262
2.11143
2.11239
2.11508
2.12125
2.13127
2.14502
2.16459
2.19175
2.21443
2.22182
2.22121
2.2163
2.2062
2.19084
2.16735
2.14776
2.13968
2.13351
2.1277
2.12223
2.1175
2.11596
2.11914
2.12242
2.12198
2.12044
2.11855
2.11522
2.10943
2.10117
2.09487
2.0912
2.08792
2.08438
2.07952
2.07339
2.06459
2.04912
2.02962
2.01762
2.0112
2.00797
2.00555
2.0047
2.01335
2.03219
2.03797
2.03735
2.035
2.0312
2.02521
2.01073
1.97949
1.9407
1.92668
1.92839
1.94532
2.00554
2.15608
2.44838
2.80195
3.17805
3.46631
3.67293
3.77709
3.77262
3.76945
3.7606
3.73205
3.69099
3.66338
3.65275
3.6434
3.64653
3.68049
3.74437
3.79335
3.79713
3.78898
3.77586
3.75216
3.70819
3.64212
3.57076
3.53489
3.52635
3.52288
3.52172
3.52709
3.54623
3.58216
3.62602
3.64825
3.64647
3.64226
3.63102
3.60547
3.56298
3.51345
3.48856
3.48487
3.48393
3.48558
3.4979
3.52938
3.56222
3.56332
3.55432
3.54215
3.52069
3.48662
3.43914
3.39605
3.3782
3.37036
3.36591
3.37274
3.40156
3.44299
3.46065
3.45434
3.43955
3.4198
3.38362
3.32095
3.24527
3.20552
3.19842
3.20259
3.21579
3.2309
3.25733
3.30064
3.35035
3.37242
3.36893
3.34717
3.31759
3.27371
3.21348
3.16667
3.15805
3.17273
3.20024
3.22309
3.25151
3.29558
3.3301
3.33211
3.31983
3.29417
3.24947
3.18968
3.14336
3.13144
3.13222
3.14324
3.15476
3.16618
3.19285
3.24092
3.26877
3.26376
3.25088
3.23232
3.19589
3.13058
3.06332
3.03584
3.0266
3.01684
3.00216
2.99024
2.98558
2.98703
3.0081
3.07053
3.12439
3.13834
3.14182
3.13744
3.11679
3.05911
2.97277
2.92319
2.89838
2.88094
2.87194
2.87821
2.90894
2.95052
2.96733
2.47105
2.4696
2.4729
2.47884
2.48649
2.48617
2.47879
2.47086
2.45999
2.44165
2.41848
2.40369
2.3984
2.3978
2.4003
2.40217
2.39979
2.39568
2.3891
2.37552
2.35038
2.3314
2.32318
2.31781
2.31439
2.31668
2.32574
2.3313
2.33118
2.32861
2.32321
2.31035
2.28925
2.2772
2.27056
2.26454
2.25878
2.25319
2.24729
2.23902
2.22636
2.21341
2.20704
2.20485
2.204
2.20361
2.20289
2.20276
2.207
2.2094
2.20481
2.20063
2.1956
2.18885
2.18117
2.17248
2.1599
2.13964
2.12167
2.114
2.10889
2.10449
2.10296
2.10305
2.10543
2.11198
2.12212
2.13592
2.15558
2.18251
2.20814
2.21707
2.21531
2.20966
2.19872
2.18076
2.15553
2.13992
2.13321
2.12746
2.122
2.11671
2.11342
2.11486
2.1162
2.11356
2.11051
2.10818
2.1062
2.10407
2.10007
2.09492
2.09133
2.08841
2.08593
2.08197
2.07652
2.06974
2.05888
2.03901
2.01692
2.00595
2.00102
1.99837
1.99679
1.99911
2.01286
2.02943
2.03551
2.03432
2.03004
2.02432
2.01596
1.99839
1.96364
1.92991
1.91599
1.91162
1.91161
1.91898
1.95658
2.06802
2.29381
2.64844
2.9947
3.35888
3.5312
3.65937
3.71438
3.70476
3.69853
3.69405
3.67761
3.64676
3.64191
3.63769
3.64644
3.68905
3.74484
3.76671
3.76341
3.755
3.7409
3.70631
3.64472
3.5711
3.52279
3.5095
3.50507
3.50063
3.49912
3.5047
3.52645
3.57421
3.62751
3.64162
3.63965
3.63522
3.62127
3.58925
3.53614
3.48866
3.47283
3.46839
3.46575
3.4695
3.48942
3.53159
3.55669
3.55556
3.5517
3.54066
3.51262
3.45748
3.39255
3.36011
3.35029
3.3423
3.33717
3.3439
3.37431
3.41874
3.4327
3.42915
3.42397
3.40669
3.36393
3.29243
3.23519
3.21965
3.21602
3.21302
3.20921
3.21178
3.22719
3.26478
3.30964
3.32689
3.32862
3.32505
3.31133
3.27725
3.23128
3.20991
3.20675
3.20483
3.20307
3.21317
3.24312
3.28415
3.29371
3.28819
3.28221
3.26467
3.22188
3.16583
3.14197
3.13799
3.13453
3.12963
3.13157
3.1518
3.19997
3.24773
3.25763
3.25412
3.24339
3.21305
3.14184
3.0559
3.01376
2.99647
2.98434
2.97518
2.97167
2.97178
2.97713
3.00829
3.08455
3.1552
3.17259
3.1708
3.15958
3.12921
3.0411
2.91319
2.84435
2.81681
2.8092
2.8129
2.84433
2.92095
3.00388
2.47212
2.46936
2.4692
2.46941
2.46784
2.469
2.47102
2.46603
2.46002
2.45256
2.44107
2.42339
2.40471
2.39542
2.39196
2.38868
2.38604
2.38366
2.38012
2.3737
2.3596
2.33542
2.31948
2.31292
2.30888
2.31046
2.32292
2.3297
2.3283
2.3255
2.32118
2.31396
2.2989
2.27653
2.26335
2.25624
2.25043
2.24585
2.24194
2.23751
2.23242
2.22475
2.21336
2.20389
2.20031
2.198
2.1956
2.19227
2.18898
2.19175
2.19861
2.1968
2.19342
2.19021
2.186
2.18042
2.17306
2.16025
2.13729
2.11484
2.10585
2.10055
2.09638
2.09429
2.09379
2.09608
2.10356
2.11469
2.1299
2.1504
2.17634
2.20067
2.20971
2.20743
2.1998
2.18748
2.16843
2.14633
2.13521
2.12911
2.12349
2.11793
2.1134
2.11309
2.11148
2.10764
2.10403
2.1006
2.09693
2.09346
2.09144
2.0902
2.08875
2.08674
2.0846
2.08184
2.07728
2.07161
2.06433
2.05158
2.02924
2.00738
1.99824
1.99467
1.99296
1.99333
1.99857
2.0063
2.01319
2.01929
2.02172
2.0183
2.01187
2.00178
1.98507
1.95734
1.92583
1.91024
1.90612
1.90446
1.9049
1.9125
1.94092
2.02142
2.18129
2.45248
2.8266
3.16034
3.43996
3.51971
3.60402
3.65349
3.64811
3.64496
3.64798
3.63745
3.62658
3.62757
3.65762
3.71695
3.74261
3.74268
3.73555
3.72177
3.69526
3.64751
3.58486
3.52789
3.49863
3.48824
3.48056
3.47602
3.4764
3.49108
3.53669
3.60635
3.64015
3.64019
3.63769
3.63037
3.60758
3.5564
3.49216
3.46094
3.45337
3.44982
3.44975
3.46502
3.50923
3.55269
3.55449
3.54495
3.53175
3.50852
3.46351
3.39691
3.34051
3.31139
3.29799
3.29399
3.29859
3.32943
3.39391
3.43624
3.44097
3.43878
3.43001
3.4033
3.3393
3.25643
3.21193
3.18708
3.16407
3.15078
3.14949
3.16485
3.22199
3.30728
3.34143
3.35684
3.36426
3.36137
3.33634
3.27272
3.20846
3.18175
3.16734
3.16201
3.16805
3.19527
3.25333
3.29693
3.30468
3.30322
3.28893
3.24248
3.16853
3.12366
3.10922
3.10331
3.0997
3.10358
3.12933
3.19356
3.25581
3.26238
3.25529
3.24311
3.20639
3.12162
3.02932
2.99051
2.97724
2.97065
2.96887
2.96916
2.97279
2.98936
3.03218
3.10598
3.16046
3.16571
3.1542
3.13206
3.07742
2.95087
2.83101
2.79726
2.79014
2.79162
2.81359
2.91924
3.04524
2.48038
2.47204
2.46762
2.46335
2.45848
2.45367
2.45299
2.45884
2.45701
2.45206
2.44677
2.4394
2.42523
2.40278
2.38626
2.37922
2.37408
2.37053
2.36754
2.36415
2.35853
2.34653
2.32942
2.31812
2.31283
2.31244
2.3179
2.31862
2.317
2.31562
2.3128
2.30805
2.29943
2.28514
2.26526
2.25041
2.24253
2.2371
2.2339
2.23434
2.23291
2.23
2.22483
2.21285
2.19772
2.19206
2.18902
2.18546
2.18079
2.17654
2.17794
2.18561
2.18787
2.18552
2.18351
2.18108
2.17689
2.17049
2.15825
2.13506
2.10946
2.09767
2.09185
2.08814
2.08612
2.0857
2.08856
2.0976
2.11011
2.12627
2.14645
2.1682
2.18803
2.19786
2.19612
2.18768
2.17508
2.15812
2.14097
2.13175
2.12541
2.11954
2.11431
2.11168
2.10777
2.10293
2.09881
2.09491
2.09097
2.08694
2.08268
2.07927
2.07718
2.07568
2.0759
2.07681
2.07501
2.06968
2.06428
2.05751
2.04639
2.02851
2.00874
1.99734
1.99315
1.99163
1.99142
1.99255
1.99328
1.9947
1.99855
2.00317
2.00237
1.99734
1.99006
1.97949
1.9622
1.93631
1.91269
1.90436
1.90164
1.89998
1.90065
1.90752
1.92659
1.97889
2.09791
2.2901
2.58288
2.93979
3.22509
3.43548
3.48883
3.56438
3.61398
3.60683
3.60227
3.6168
3.62705
3.64738
3.69929
3.73809
3.73614
3.72785
3.71558
3.6951
3.65785
3.59891
3.53278
3.48887
3.4718
3.46414
3.45988
3.45777
3.46738
3.51022
3.58522
3.63515
3.64157
3.63954
3.63421
3.61737
3.57285
3.50181
3.45305
3.44233
3.43986
3.44086
3.45044
3.48074
3.52366
3.53832
3.53135
3.52058
3.5014
3.45379
3.37497
3.31064
3.28708
3.27746
3.27378
3.27736
3.31079
3.38807
3.44935
3.45615
3.45158
3.44387
3.41848
3.34477
3.23083
3.15894
3.13334
3.12226
3.11883
3.12031
3.14347
3.21833
3.33269
3.38617
3.39349
3.39175
3.3824
3.34636
3.25887
3.17305
3.1478
3.14201
3.14103
3.14997
3.18552
3.25489
3.29938
3.30253
3.29774
3.28185
3.23233
3.15203
3.10435
3.09278
3.0885
3.08646
3.09439
3.12481
3.18585
3.24519
3.25454
3.24551
3.22632
3.18274
3.09823
3.0163
2.98677
2.97992
2.97682
2.97587
2.97713
2.98728
3.00774
3.03953
3.08561
3.12635
3.1339
3.12002
3.07783
3.00491
2.89919
2.81877
2.79603
2.79633
2.81904
2.89055
2.99937
2.49022
2.47799
2.46458
2.45713
2.45178
2.4464
2.44187
2.44246
2.45063
2.45102
2.44537
2.43919
2.43205
2.41926
2.3961
2.3751
2.36523
2.35943
2.35523
2.35229
2.34993
2.34634
2.34027
2.33218
2.32488
2.32064
2.31619
2.31022
2.30486
2.30153
2.29872
2.29592
2.29191
2.28465
2.27323
2.25573
2.24014
2.23289
2.22979
2.23144
2.23313
2.23092
2.22792
2.22217
2.20672
2.18863
2.18268
2.17894
2.17441
2.16899
2.16468
2.16436
2.17094
2.17747
2.17758
2.17653
2.17436
2.17058
2.16495
2.15419
2.1336
2.10635
2.09022
2.08387
2.08087
2.07957
2.07989
2.08437
2.09363
2.10598
2.12199
2.13964
2.15666
2.17261
2.18191
2.18068
2.17412
2.16456
2.15192
2.13753
2.12864
2.1218
2.11525
2.11022
2.1046
2.09936
2.09524
2.09119
2.087
2.08288
2.07852
2.07365
2.06868
2.06509
2.06204
2.06051
2.06234
2.06513
2.06163
2.05686
2.05188
2.04415
2.03242
2.01728
2.00208
1.9921
1.98628
1.98259
1.97991
1.97708
1.97505
1.97681
1.98429
1.98955
1.98759
1.98373
1.97832
1.96818
1.94846
1.92113
1.9029
1.89693
1.89395
1.8918
1.89148
1.89682
1.91442
1.95202
2.01901
2.15552
2.37007
2.68239
3.01486
3.27229
3.42635
3.45877
3.5191
3.55693
3.56121
3.55885
3.58147
3.64489
3.70826
3.73649
3.73183
3.71967
3.70322
3.67189
3.61661
3.54403
3.48383
3.46032
3.45103
3.44391
3.44151
3.4483
3.48339
3.55589
3.6197
3.63428
3.6324
3.62894
3.61875
3.58634
3.52358
3.45993
3.43311
3.42334
3.41941
3.42264
3.44755
3.49313
3.5184
3.51311
3.49633
3.47079
3.42935
3.36963
3.30681
3.27595
3.27035
3.2717
3.28309
3.31324
3.37104
3.4294
3.44416
3.43734
3.42445
3.39398
3.31942
3.21135
3.13853
3.11783
3.11274
3.11329
3.12494
3.15793
3.22974
3.32456
3.3784
3.38139
3.37492
3.36309
3.32504
3.24458
3.16312
3.13579
3.13321
3.13457
3.14308
3.17346
3.23144
3.2809
3.29056
3.28613
3.2705
3.22607
3.15137
3.09625
3.08348
3.081
3.08412
3.09335
3.11783
3.16836
3.22205
3.23211
3.22464
3.20587
3.16464
3.09244
3.02222
2.99504
2.98931
2.98757
2.98805
2.99219
2.99936
3.00628
3.01815
3.03655
3.05801
3.06431
3.04859
3.01117
2.9714
2.92492
2.87913
2.85898
2.86337
2.89667
2.93748
2.49014
2.48341
2.46874
2.45332
2.44607
2.44112
2.43679
2.43446
2.43501
2.43774
2.43758
2.43296
2.42711
2.41973
2.40804
2.38751
2.36522
2.35263
2.34672
2.34309
2.341
2.34208
2.34314
2.34027
2.33509
2.32663
2.31494
2.30452
2.29619
2.28922
2.28499
2.28148
2.27885
2.27675
2.2707
2.26195
2.24937
2.24004
2.23536
2.23393
2.23167
2.22926
2.22673
2.22306
2.21495
2.19564
2.17888
2.17315
2.1681
2.16227
2.15654
2.15306
2.15262
2.1575
2.16409
2.16804
2.16858
2.16588
2.16248
2.15773
2.14897
2.1321
2.1051
2.08464
2.07729
2.07466
2.07389
2.07527
2.0809
2.0889
2.0999
2.11451
2.1311
2.14577
2.15703
2.1662
2.16724
2.1649
2.15903
2.14828
2.13519
2.12449
2.1157
2.10856
2.10261
2.09737
2.09328
2.08977
2.08625
2.08248
2.07775
2.07151
2.06447
2.05758
2.05208
2.04793
2.04452
2.04551
2.05253
2.05479
2.05214
2.04921
2.0454
2.03872
2.02532
2.00359
1.9851
1.97492
1.96822
1.96351
1.95958
1.95686
1.95888
1.97281
1.98525
1.98499
1.98265
1.97936
1.97286
1.95612
1.92326
1.89767
1.88796
1.88401
1.88224
1.87957
1.87972
1.88751
1.90889
1.93873
1.97394
2.04299
2.20628
2.45461
2.76569
3.05668
3.31898
3.41439
3.41962
3.44831
3.47249
3.50055
3.54281
3.62698
3.70551
3.72743
3.72075
3.70366
3.67919
3.63579
3.5677
3.5001
3.45804
3.43713
3.42505
3.41967
3.42287
3.44768
3.51019
3.5879
3.62355
3.62488
3.62193
3.61596
3.59383
3.53844
3.46182
3.41753
3.40806
3.4047
3.40345
3.4139
3.44685
3.4769
3.47541
3.4633
3.44723
3.42539
3.38876
3.33789
3.29804
3.28665
3.28581
3.29026
3.30267
3.33594
3.39052
3.4182
3.41364
3.39662
3.36811
3.31646
3.23665
3.15634
3.12366
3.11938
3.12648
3.14792
3.17271
3.21049
3.27638
3.34082
3.35535
3.34763
3.33207
3.30778
3.25708
3.18202
3.13696
3.12978
3.13134
3.13725
3.15591
3.20234
3.25718
3.27233
3.26894
3.25936
3.22884
3.16763
3.10787
3.08821
3.0843
3.08543
3.08828
3.10182
3.14152
3.1952
3.20799
3.20037
3.18506
3.156
3.10271
3.03773
3.00427
2.99808
2.9973
2.99842
2.99742
2.99419
2.9863
2.97292
2.96458
2.9698
2.98467
2.99792
3.00111
2.99721
2.9857
2.95849
2.93138
2.92211
2.92065
2.48224
2.47911
2.47255
2.45906
2.44526
2.43833
2.43357
2.4302
2.42753
2.42338
2.41986
2.41751
2.41522
2.41122
2.40507
2.39502
2.37839
2.3597
2.34762
2.34188
2.3398
2.34208
2.34347
2.34082
2.33644
2.33023
2.31957
2.30387
2.28973
2.28006
2.27332
2.26899
2.26514
2.26219
2.26324
2.26048
2.25459
2.25122
2.24638
2.23897
2.23179
2.22693
2.22356
2.21978
2.21392
2.20318
2.18427
2.1693
2.16206
2.15571
2.14948
2.14521
2.14326
2.1429
2.14483
2.149
2.15529
2.1596
2.1576
2.15466
2.15084
2.14379
2.13001
2.10587
2.0828
2.07184
2.06797
2.0673
2.06946
2.07424
2.08108
2.09241
2.10707
2.12181
2.13516
2.14726
2.15941
2.16306
2.16057
2.15469
2.14391
2.12979
2.11551
2.10581
2.09992
2.09553
2.09149
2.08857
2.0865
2.08428
2.08125
2.0756
2.06554
2.05452
2.04564
2.03835
2.03317
2.02883
2.03082
2.04544
2.05407
2.05283
2.05023
2.04712
2.04095
2.02584
1.99827
1.97322
1.96054
1.95303
1.94832
1.94508
1.94294
1.94666
1.96611
1.98459
1.98511
1.98276
1.97944
1.97319
1.95598
1.91948
1.88859
1.87791
1.87349
1.87098
1.8695
1.86823
1.87124
1.88631
1.90989
1.93059
1.9443
1.97908
2.07611
2.27093
2.5467
2.82434
3.0814
3.34427
3.39837
3.395
3.42633
3.46925
3.53624
3.62667
3.69326
3.7085
3.70269
3.68053
3.64383
3.59429
3.5325
3.47205
3.42644
3.40159
3.39112
3.38935
3.40377
3.45133
3.53077
3.5946
3.61367
3.61382
3.61053
3.59693
3.55522
3.48065
3.41195
3.38198
3.37047
3.366
3.36808
3.39431
3.43948
3.45081
3.4468
3.44186
3.43462
3.41731
3.3794
3.32422
3.28921
3.28141
3.27779
3.27757
3.29366
3.33402
3.37148
3.37438
3.36434
3.35291
3.32882
3.27369
3.19406
3.1507
3.14357
3.13976
3.13683
3.13923
3.1606
3.21753
3.29641
3.3344
3.33693
3.33256
3.31835
3.27717
3.20329
3.13976
3.11832
3.11478
3.11668
3.12927
3.16899
3.23166
3.26037
3.26004
3.25686
3.23979
3.18935
3.12019
3.08383
3.07003
3.06218
3.06015
3.07099
3.10922
3.16905
3.19198
3.18969
3.18287
3.16576
3.12664
3.06533
3.0193
3.0069
3.00226
2.99584
2.98341
2.95741
2.9244
2.90768
2.90686
2.92817
2.98129
3.02547
3.05002
3.06038
3.05608
3.03075
2.97533
2.90598
2.47042
2.47012
2.4681
2.4635
2.45384
2.44237
2.43419
2.42834
2.42175
2.41461
2.40791
2.40239
2.39864
2.39686
2.39491
2.39046
2.38351
2.37488
2.36552
2.35704
2.34881
2.34293
2.33941
2.33591
2.33214
2.3266
2.31839
2.30561
2.28821
2.27465
2.26611
2.25958
2.2549
2.25052
2.24821
2.2535
2.25916
2.25904
2.25315
2.24644
2.23793
2.22674
2.218
2.21227
2.20758
2.20178
2.19214
2.17616
2.16056
2.15117
2.1444
2.13946
2.13655
2.13449
2.13303
2.13305
2.13474
2.13905
2.14585
2.14899
2.14834
2.14606
2.13948
2.12853
2.10868
2.08342
2.06487
2.0583
2.05845
2.06041
2.06413
2.07166
2.0842
2.0984
2.11485
2.13123
2.14301
2.155
2.1598
2.15616
2.14842
2.13698
2.12087
2.10484
2.09631
2.09129
2.08827
2.08716
2.08575
2.08415
2.08224
2.079
2.07117
2.05701
2.04312
2.03267
2.02478
2.0202
2.01793
2.0252
2.04623
2.05449
2.05203
2.04857
2.04404
2.03536
2.01639
1.98599
1.96064
1.94885
1.94219
1.9383
1.93575
1.9345
1.94042
1.96141
1.98163
1.98321
1.97975
1.97595
1.9692
1.95094
1.91266
1.8797
1.86827
1.86365
1.86159
1.85963
1.85898
1.8606
1.86776
1.88916
1.91011
1.92021
1.92343
1.93611
1.9835
2.11336
2.32902
2.63731
2.89102
3.1681
3.33894
3.36007
3.41123
3.45869
3.53059
3.62051
3.6742
3.68025
3.67125
3.6479
3.61077
3.56542
3.50522
3.43737
3.38923
3.37364
3.36977
3.37036
3.39177
3.45265
3.53871
3.59327
3.60484
3.60426
3.59652
3.56282
3.48567
3.39748
3.35409
3.33943
3.33398
3.33602
3.36714
3.43032