/*--------------------------------*- C++ -*----------------------------------*\
  =========                 |
  \\      /  F ield         | OpenFOAM: The Open Source CFD Toolbox
   \\    /   O peration     | Website:  https://openfoam.org
    \\  /    A nd           | Version:  7
     \\/     M anipulation  |
\*---------------------------------------------------------------------------*/
FoamFile
{
    version     2.0;
    format      ascii;
    class       volVectorField;
    location    "2";
    object      U;
}
// * * * * * * * * * * * * * * * * * * * * * * * * * * * * * * * * * * * * * //

dimensions      [0 1 -1 0 0 0 0];

internalField   nonuniform List<vector> 
16192
(
(2.28888 -0.57163 0)
(2.28709 -0.567623 0)
(2.28948 -0.567395 0)
(2.29308 -0.568304 0)
(2.29652 -0.569401 0)
(2.3005 -0.57087 0)
(2.30674 -0.57375 0)
(2.31229 -0.574543 0)
(2.31459 -0.573792 0)
(2.31676 -0.571773 0)
(2.31812 -0.567705 0)
(2.31696 -0.561697 0)
(2.31643 -0.558109 0)
(2.31853 -0.55776 0)
(2.32047 -0.558393 0)
(2.32249 -0.559421 0)
(2.32587 -0.561463 0)
(2.32993 -0.564019 0)
(2.33268 -0.564394 0)
(2.33536 -0.563195 0)
(2.33807 -0.558768 0)
(2.34062 -0.553786 0)
(2.34341 -0.550671 0)
(2.34664 -0.550266 0)
(2.34957 -0.551005 0)
(2.35226 -0.553036 0)
(2.35523 -0.555942 0)
(2.35779 -0.557964 0)
(2.36053 -0.559134 0)
(2.36251 -0.559497 0)
(2.36204 -0.557786 0)
(2.3607 -0.554111 0)
(2.3625 -0.552516 0)
(2.36543 -0.552413 0)
(2.36871 -0.552375 0)
(2.37363 -0.552572 0)
(2.38062 -0.553634 0)
(2.38633 -0.554404 0)
(2.38922 -0.554011 0)
(2.39088 -0.553886 0)
(2.3925 -0.554042 0)
(2.39256 -0.553564 0)
(2.39009 -0.550389 0)
(2.38825 -0.546945 0)
(2.38975 -0.545637 0)
(2.39298 -0.544535 0)
(2.3971 -0.543653 0)
(2.4009 -0.543166 0)
(2.40404 -0.543162 0)
(2.4065 -0.543162 0)
(2.40954 -0.543245 0)
(2.41325 -0.544267 0)
(2.41509 -0.544903 0)
(2.41683 -0.545211 0)
(2.41889 -0.545359 0)
(2.42041 -0.544772 0)
(2.42162 -0.543166 0)
(2.4214 -0.539845 0)
(2.42081 -0.536054 0)
(2.41837 -0.532737 0)
(2.41355 -0.527869 0)
(2.40743 -0.524213 0)
(2.40374 -0.519825 0)
(2.40634 -0.513967 0)
(2.40906 -0.512023 0)
(2.40914 -0.512502 0)
(2.41031 -0.513276 0)
(2.41315 -0.511949 0)
(2.41499 -0.508535 0)
(2.41387 -0.505791 0)
(2.41453 -0.506962 0)
(2.41764 -0.508817 0)
(2.42026 -0.510328 0)
(2.4223 -0.510959 0)
(2.42444 -0.510791 0)
(2.42841 -0.511502 0)
(2.43548 -0.514242 0)
(2.44143 -0.514743 0)
(2.4431 -0.514519 0)
(2.44533 -0.514041 0)
(2.4475 -0.512977 0)
(2.44805 -0.50983 0)
(2.44572 -0.504771 0)
(2.44574 -0.502719 0)
(2.44778 -0.502904 0)
(2.44945 -0.503624 0)
(2.45113 -0.50467 0)
(2.45357 -0.506624 0)
(2.45529 -0.508007 0)
(2.45695 -0.508275 0)
(2.45853 -0.506875 0)
(2.45915 -0.503183 0)
(2.46009 -0.499402 0)
(2.46231 -0.497636 0)
(2.46471 -0.49734 0)
(2.46753 -0.49742 0)
(2.47076 -0.498042 0)
(2.47384 -0.498733 0)
(2.47795 -0.499873 0)
(2.48054 -0.495656 0)
(2.47678 -0.478976 0)
(2.45923 -0.434745 0)
(2.42492 -0.34104 0)
(2.38212 -0.222574 0)
(2.33239 -0.100537 0)
(2.33241 -0.0415553 0)
(2.28083 0.0368766 0)
(2.25484 0.115862 0)
(2.23871 0.115264 0)
(2.24339 0.10893 0)
(2.24941 0.0993647 0)
(2.25181 0.0907536 0)
(2.25781 0.0894871 0)
(2.25979 0.091557 0)
(2.26305 0.0928364 0)
(2.26307 0.0920205 0)
(2.26113 0.0967506 0)
(2.25908 0.106598 0)
(2.25666 0.113213 0)
(2.25762 0.115489 0)
(2.26049 0.115162 0)
(2.26317 0.111853 0)
(2.2663 0.107721 0)
(2.27084 0.103433 0)
(2.27625 0.0968995 0)
(2.28297 0.0888897 0)
(2.28844 0.0844492 0)
(2.29146 0.0834746 0)
(2.29381 0.08366 0)
(2.29633 0.0860228 0)
(2.29738 0.0906164 0)
(2.2957 0.0979847 0)
(2.29095 0.107957 0)
(2.28555 0.115928 0)
(2.28497 0.118095 0)
(2.28739 0.117873 0)
(2.28982 0.116962 0)
(2.29217 0.114421 0)
(2.29585 0.109409 0)
(2.30085 0.100946 0)
(2.30732 0.0909383 0)
(2.31112 0.0856621 0)
(2.31251 0.0844602 0)
(2.31358 0.0854253 0)
(2.31326 0.0898792 0)
(2.31173 0.0973083 0)
(2.3091 0.106547 0)
(2.307 0.11475 0)
(2.30759 0.119392 0)
(2.309 0.120975 0)
(2.31166 0.121622 0)
(2.31464 0.121103 0)
(2.31718 0.119318 0)
(2.31962 0.116283 0)
(2.32288 0.111793 0)
(2.32599 0.107504 0)
(2.32736 0.105602 0)
(2.32797 0.104421 0)
(2.32734 0.104736 0)
(2.32483 0.108109 0)
(2.32039 0.114313 0)
(2.31643 0.120545 0)
(2.31557 0.12484 0)
(2.31718 0.127279 0)
(2.31946 0.128692 0)
(2.32256 0.130143 0)
(2.32857 0.130413 0)
(2.3362 0.129262 0)
(2.34392 0.125217 0)
(2.35279 0.119003 0)
(2.35954 0.1145 0)
(2.36222 0.11307 0)
(2.36445 0.112959 0)
(2.36663 0.11365 0)
(2.36494 0.115042 0)
(2.35528 0.120465 0)
(2.34149 0.129726 0)
(2.33267 0.136307 0)
(2.33027 0.139575 0)
(2.33091 0.141146 0)
(2.33262 0.141565 0)
(2.33833 0.141442 0)
(2.34901 0.138597 0)
(2.3621 0.12802 0)
(2.37374 0.11305 0)
(2.38167 0.101982 0)
(2.38448 0.0984163 0)
(2.38518 0.0975121 0)
(2.38421 0.0981352 0)
(2.38005 0.104316 0)
(2.37278 0.119375 0)
(2.36337 0.136963 0)
(2.35909 0.146268 0)
(2.36032 0.14833 0)
(2.36212 0.1489 0)
(2.36474 0.148324 0)
(2.36878 0.145186 0)
(2.37696 0.136749 0)
(2.38846 0.125376 0)
(2.39524 0.119093 0)
(2.39638 0.118055 0)
(2.39627 0.118144 0)
(2.39379 0.11935 0)
(2.38427 0.123386 0)
(2.36727 0.131211 0)
(2.3557 0.137194 0)
(2.35247 0.140578 0)
(2.35217 0.143328 0)
(2.35278 0.145354 0)
(2.35643 0.148075 0)
(2.36789 0.150099 0)
(2.38633 0.147962 0)
(2.40315 0.138704 0)
(2.41437 0.129043 0)
(2.41815 0.125509 0)
(2.42109 0.12347 0)
(2.42189 0.120484 0)
(2.41453 0.11932 0)
(2.39571 0.126147 0)
(2.37691 0.139063 0)
(2.37128 0.146156 0)
(2.37259 0.148694 0)
(2.37456 0.150776 0)
(2.38028 0.154911 0)
(2.38985 0.160065 0)
(2.39877 0.161117 0)
(2.40531 0.157373 0)
(2.41162 0.14975 0)
(2.41891 0.135893 0)
(2.42559 0.119451 0)
(2.42732 0.110978 0)
(2.42829 0.108547 0)
(2.42783 0.109346 0)
(2.4251 0.115113 0)
(2.41879 0.129157 0)
(2.40845 0.149167 0)
(2.40302 0.16151 0)
(2.40426 0.16444 0)
(2.40576 0.16402 0)
(2.40968 0.159546 0)
(2.41608 0.149528 0)
(2.42472 0.133486 0)
(2.43249 0.1193 0)
(2.43512 0.114853 0)
(2.43801 0.113568 0)
(2.43852 0.116792 0)
(2.43506 0.125466 0)
(2.42859 0.137181 0)
(2.4235 0.143617 0)
(2.42293 0.145102 0)
(2.42396 0.144369 0)
(2.426 0.140569 0)
(2.43219 0.134436 0)
(2.29626 -0.57714 0)
(2.2937 -0.571843 0)
(2.291 -0.566983 0)
(2.2936 -0.566609 0)
(2.2971 -0.567285 0)
(2.30061 -0.567653 0)
(2.30522 -0.568426 0)
(2.31262 -0.57096 0)
(2.31858 -0.571539 0)
(2.32084 -0.571102 0)
(2.32316 -0.570102 0)
(2.32438 -0.567109 0)
(2.32208 -0.561014 0)
(2.32038 -0.5569 0)
(2.32236 -0.556505 0)
(2.32443 -0.556943 0)
(2.32649 -0.557662 0)
(2.32989 -0.559315 0)
(2.33579 -0.561336 0)
(2.34072 -0.560423 0)
(2.34317 -0.55885 0)
(2.34673 -0.556467 0)
(2.34924 -0.553532 0)
(2.3498 -0.550552 0)
(2.35125 -0.550147 0)
(2.35374 -0.551213 0)
(2.35597 -0.553103 0)
(2.35836 -0.555495 0)
(2.36079 -0.557511 0)
(2.36315 -0.558658 0)
(2.36536 -0.558868 0)
(2.36589 -0.556944 0)
(2.36566 -0.553028 0)
(2.3676 -0.55068 0)
(2.37045 -0.549981 0)
(2.37415 -0.549523 0)
(2.38037 -0.549802 0)
(2.3863 -0.55092 0)
(2.39081 -0.551837 0)
(2.39297 -0.552338 0)
(2.39553 -0.552978 0)
(2.39759 -0.553577 0)
(2.39769 -0.553314 0)
(2.39525 -0.550391 0)
(2.39438 -0.547219 0)
(2.3964 -0.545233 0)
(2.39977 -0.543334 0)
(2.40363 -0.541528 0)
(2.40716 -0.54033 0)
(2.41032 -0.539676 0)
(2.41335 -0.539391 0)
(2.41665 -0.540325 0)
(2.41762 -0.5413 0)
(2.41835 -0.541546 0)
(2.42007 -0.541865 0)
(2.42171 -0.541681 0)
(2.42362 -0.541655 0)
(2.42455 -0.540542 0)
(2.42476 -0.538098 0)
(2.42446 -0.535324 0)
(2.42202 -0.531293 0)
(2.41718 -0.526257 0)
(2.41165 -0.521975 0)
(2.4106 -0.517026 0)
(2.4141 -0.512581 0)
(2.4151 -0.51164 0)
(2.41505 -0.511985 0)
(2.41612 -0.511616 0)
(2.41831 -0.509153 0)
(2.41872 -0.505812 0)
(2.41711 -0.504239 0)
(2.41952 -0.505596 0)
(2.42237 -0.50673 0)
(2.42441 -0.507267 0)
(2.42618 -0.506651 0)
(2.42974 -0.505994 0)
(2.43524 -0.507179 0)
(2.44267 -0.511052 0)
(2.44655 -0.512705 0)
(2.4489 -0.512854 0)
(2.45168 -0.512919 0)
(2.45359 -0.512334 0)
(2.45301 -0.50934 0)
(2.44963 -0.504136 0)
(2.44928 -0.502058 0)
(2.45119 -0.502244 0)
(2.45294 -0.502755 0)
(2.45486 -0.503384 0)
(2.45836 -0.504776 0)
(2.46104 -0.505103 0)
(2.46258 -0.504664 0)
(2.46465 -0.502783 0)
(2.46592 -0.499503 0)
(2.46669 -0.495926 0)
(2.46812 -0.49495 0)
(2.47037 -0.49504 0)
(2.47262 -0.495533 0)
(2.47515 -0.496199 0)
(2.47795 -0.496303 0)
(2.48238 -0.498368 0)
(2.48822 -0.499747 0)
(2.49089 -0.496877 0)
(2.48896 -0.486641 0)
(2.47826 -0.457504 0)
(2.45041 -0.387877 0)
(2.41294 -0.274188 0)
(2.36007 -0.153201 0)
(2.32502 -0.0538259 0)
(2.3222 -0.0101722 0)
(2.27219 0.0662485 0)
(2.25928 0.115866 0)
(2.24708 0.103589 0)
(2.25849 0.0954588 0)
(2.26665 0.0929778 0)
(2.26899 0.0956009 0)
(2.27031 0.100554 0)
(2.27323 0.103141 0)
(2.27359 0.10322 0)
(2.26885 0.105229 0)
(2.26568 0.111276 0)
(2.264 0.115566 0)
(2.26465 0.115594 0)
(2.26698 0.113527 0)
(2.27027 0.109961 0)
(2.27398 0.107395 0)
(2.27935 0.104315 0)
(2.28659 0.0985434 0)
(2.29431 0.0924437 0)
(2.29862 0.0895107 0)
(2.30132 0.0884139 0)
(2.30387 0.0884676 0)
(2.30554 0.0905219 0)
(2.30432 0.0956421 0)
(2.29958 0.104573 0)
(2.29328 0.113762 0)
(2.29002 0.117559 0)
(2.2907 0.116661 0)
(2.29265 0.114292 0)
(2.29515 0.111738 0)
(2.29805 0.109447 0)
(2.30318 0.10445 0)
(2.31087 0.0959023 0)
(2.31874 0.0906851 0)
(2.32171 0.090296 0)
(2.32238 0.0912081 0)
(2.32291 0.094328 0)
(2.32313 0.100166 0)
(2.32183 0.108618 0)
(2.31807 0.117901 0)
(2.31484 0.123443 0)
(2.31522 0.124009 0)
(2.31692 0.122847 0)
(2.3187 0.121498 0)
(2.3204 0.1202 0)
(2.32267 0.118675 0)
(2.32595 0.115444 0)
(2.33023 0.110231 0)
(2.33259 0.106623 0)
(2.33316 0.104579 0)
(2.33294 0.103659 0)
(2.33167 0.105431 0)
(2.32931 0.111461 0)
(2.32618 0.120922 0)
(2.3239 0.130113 0)
(2.32503 0.136006 0)
(2.3282 0.138489 0)
(2.33171 0.139765 0)
(2.33698 0.139839 0)
(2.34255 0.138169 0)
(2.34896 0.133841 0)
(2.356 0.125695 0)
(2.3624 0.116079 0)
(2.36585 0.109868 0)
(2.36705 0.105859 0)
(2.36601 0.102277 0)
(2.36251 0.102273 0)
(2.35729 0.108771 0)
(2.34986 0.123123 0)
(2.34194 0.139502 0)
(2.33921 0.149682 0)
(2.34032 0.153359 0)
(2.34349 0.155416 0)
(2.35015 0.154781 0)
(2.3566 0.149911 0)
(2.36278 0.139779 0)
(2.37095 0.123568 0)
(2.38073 0.105711 0)
(2.38593 0.0960302 0)
(2.38734 0.09377 0)
(2.3876 0.094002 0)
(2.38659 0.0991437 0)
(2.38347 0.112024 0)
(2.37617 0.132022 0)
(2.36783 0.148517 0)
(2.36657 0.154042 0)
(2.36795 0.155648 0)
(2.37146 0.156896 0)
(2.37526 0.15518 0)
(2.3801 0.147149 0)
(2.38701 0.132785 0)
(2.39308 0.119519 0)
(2.39459 0.113901 0)
(2.39337 0.110875 0)
(2.38639 0.109084 0)
(2.37561 0.113443 0)
(2.36605 0.124272 0)
(2.36189 0.135093 0)
(2.36238 0.142184 0)
(2.36469 0.147549 0)
(2.37049 0.154988 0)
(2.37992 0.16167 0)
(2.38915 0.162345 0)
(2.39728 0.157409 0)
(2.40598 0.146272 0)
(2.41446 0.131643 0)
(2.41785 0.122471 0)
(2.41859 0.115902 0)
(2.4157 0.11056 0)
(2.40857 0.111676 0)
(2.39948 0.122563 0)
(2.38903 0.1402 0)
(2.38382 0.152659 0)
(2.38465 0.156838 0)
(2.38927 0.161729 0)
(2.39724 0.166225 0)
(2.40111 0.167155 0)
(2.40271 0.166581 0)
(2.40481 0.161127 0)
(2.40821 0.151473 0)
(2.41376 0.138023 0)
(2.42321 0.120825 0)
(2.43167 0.109634 0)
(2.43377 0.107345 0)
(2.43565 0.108198 0)
(2.43573 0.114982 0)
(2.43249 0.129804 0)
(2.42222 0.151728 0)
(2.40881 0.167285 0)
(2.40583 0.169783 0)
(2.40775 0.168625 0)
(2.41021 0.163842 0)
(2.41488 0.153523 0)
(2.42283 0.136862 0)
(2.43481 0.119128 0)
(2.44167 0.11089 0)
(2.44394 0.109581 0)
(2.44592 0.11249 0)
(2.44507 0.121372 0)
(2.44053 0.135554 0)
(2.43269 0.149111 0)
(2.4289 0.152834 0)
(2.42883 0.150735 0)
(2.43109 0.145285 0)
(2.30006 -0.57951 0)
(2.30097 -0.577755 0)
(2.29769 -0.5719 0)
(2.29508 -0.566001 0)
(2.29792 -0.564921 0)
(2.30129 -0.565138 0)
(2.3053 -0.564895 0)
(2.31182 -0.565611 0)
(2.31937 -0.56844 0)
(2.32371 -0.569622 0)
(2.32606 -0.569594 0)
(2.32839 -0.569094 0)
(2.32917 -0.566527 0)
(2.32632 -0.560375 0)
(2.32422 -0.555793 0)
(2.32581 -0.555065 0)
(2.32783 -0.555164 0)
(2.33008 -0.554977 0)
(2.33538 -0.555513 0)
(2.34343 -0.556801 0)
(2.34756 -0.556622 0)
(2.35088 -0.556563 0)
(2.35418 -0.55607 0)
(2.35589 -0.554348 0)
(2.35505 -0.551374 0)
(2.35555 -0.550704 0)
(2.35804 -0.551659 0)
(2.36042 -0.552981 0)
(2.3627 -0.554432 0)
(2.36531 -0.556096 0)
(2.36764 -0.557423 0)
(2.36968 -0.557667 0)
(2.37115 -0.555666 0)
(2.372 -0.551586 0)
(2.3741 -0.548501 0)
(2.37709 -0.547321 0)
(2.38084 -0.546925 0)
(2.38557 -0.546949 0)
(2.39018 -0.547856 0)
(2.39405 -0.54988 0)
(2.39699 -0.551913 0)
(2.39946 -0.553219 0)
(2.40149 -0.553998 0)
(2.40187 -0.553521 0)
(2.40107 -0.55084 0)
(2.40137 -0.547615 0)
(2.40345 -0.544675 0)
(2.40687 -0.542054 0)
(2.41054 -0.539746 0)
(2.41425 -0.53809 0)
(2.41795 -0.537611 0)
(2.42102 -0.537598 0)
(2.4222 -0.53784 0)
(2.42241 -0.538554 0)
(2.42207 -0.539309 0)
(2.4232 -0.538953 0)
(2.42553 -0.538802 0)
(2.42649 -0.53808 0)
(2.42806 -0.537066 0)
(2.42906 -0.535492 0)
(2.42862 -0.53276 0)
(2.42632 -0.52864 0)
(2.42171 -0.524274 0)
(2.41757 -0.52041 0)
(2.41819 -0.515524 0)
(2.4205 -0.511952 0)
(2.42056 -0.511377 0)
(2.42012 -0.511095 0)
(2.42105 -0.509652 0)
(2.42254 -0.507037 0)
(2.42208 -0.504578 0)
(2.42203 -0.503217 0)
(2.4252 -0.503657 0)
(2.42765 -0.503996 0)
(2.42987 -0.503545 0)
(2.43282 -0.502829 0)
(2.43737 -0.50264 0)
(2.44244 -0.504625 0)
(2.448 -0.508954 0)
(2.45115 -0.511759 0)
(2.45339 -0.512458 0)
(2.45592 -0.512558 0)
(2.45744 -0.511621 0)
(2.45657 -0.50844 0)
(2.45335 -0.503219 0)
(2.45285 -0.50094 0)
(2.45451 -0.500986 0)
(2.45623 -0.501231 0)
(2.45951 -0.501478 0)
(2.46454 -0.501677 0)
(2.46701 -0.501184 0)
(2.46877 -0.500556 0)
(2.47087 -0.499082 0)
(2.47195 -0.496245 0)
(2.47163 -0.493115 0)
(2.4727 -0.492235 0)
(2.47486 -0.492583 0)
(2.47685 -0.493067 0)
(2.479 -0.493438 0)
(2.48195 -0.494164 0)
(2.48715 -0.495198 0)
(2.49282 -0.498397 0)
(2.49629 -0.49824 0)
(2.49835 -0.497218 0)
(2.49746 -0.492144 0)
(2.49066 -0.47334 0)
(2.47122 -0.425246 0)
(2.43522 -0.334854 0)
(2.39263 -0.217961 0)
(2.34088 -0.0997231 0)
(2.31478 -0.0170012 0)
(2.31442 0.00910821 0)
(2.28082 0.0753317 0)
(2.27078 0.104769 0)
(2.26502 0.0965573 0)
(2.27924 0.097229 0)
(2.28477 0.100738 0)
(2.28201 0.108263 0)
(2.27864 0.11349 0)
(2.2781 0.113028 0)
(2.27542 0.112588 0)
(2.27168 0.114257 0)
(2.26973 0.116005 0)
(2.27147 0.115363 0)
(2.27409 0.113848 0)
(2.2782 0.112183 0)
(2.28394 0.110964 0)
(2.29044 0.105672 0)
(2.29799 0.0978971 0)
(2.30373 0.0931645 0)
(2.30631 0.0915739 0)
(2.30903 0.0907321 0)
(2.31091 0.0907142 0)
(2.31074 0.0934336 0)
(2.30706 0.100094 0)
(2.29971 0.109328 0)
(2.2937 0.115639 0)
(2.2932 0.117514 0)
(2.29504 0.117511 0)
(2.29734 0.11656 0)
(2.30037 0.11481 0)
(2.3063 0.112353 0)
(2.31544 0.106239 0)
(2.3247 0.100593 0)
(2.32902 0.0996464 0)
(2.33072 0.100296 0)
(2.3318 0.101101 0)
(2.33265 0.10299 0)
(2.33085 0.107205 0)
(2.326 0.114363 0)
(2.32087 0.1211 0)
(2.31935 0.124144 0)
(2.32052 0.124519 0)
(2.32227 0.124272 0)
(2.32416 0.123827 0)
(2.32624 0.122845 0)
(2.32921 0.120438 0)
(2.33315 0.115369 0)
(2.3369 0.109791 0)
(2.3383 0.106921 0)
(2.33886 0.10597 0)
(2.3392 0.107082 0)
(2.33886 0.111714 0)
(2.33775 0.120341 0)
(2.33603 0.131313 0)
(2.33573 0.140426 0)
(2.33865 0.144996 0)
(2.34232 0.146384 0)
(2.34697 0.147121 0)
(2.35052 0.145469 0)
(2.35455 0.140609 0)
(2.35923 0.131497 0)
(2.36368 0.118506 0)
(2.36694 0.106506 0)
(2.36823 0.100119 0)
(2.36937 0.0976035 0)
(2.37012 0.0993811 0)
(2.36955 0.106877 0)
(2.36679 0.121627 0)
(2.35968 0.141827 0)
(2.35162 0.157533 0)
(2.35193 0.162797 0)
(2.35451 0.163237 0)
(2.35618 0.159945 0)
(2.35895 0.153985 0)
(2.36295 0.144514 0)
(2.36942 0.129025 0)
(2.38062 0.109837 0)
(2.39173 0.0979841 0)
(2.39609 0.0967871 0)
(2.39698 0.0977776 0)
(2.39764 0.101974 0)
(2.39653 0.110595 0)
(2.39128 0.126684 0)
(2.38145 0.147162 0)
(2.37623 0.158702 0)
(2.37681 0.160868 0)
(2.37726 0.160569 0)
(2.3778 0.157936 0)
(2.38068 0.151413 0)
(2.38519 0.138719 0)
(2.38898 0.122428 0)
(2.38971 0.110765 0)
(2.38861 0.105822 0)
(2.38682 0.10596 0)
(2.3836 0.112736 0)
(2.38062 0.125302 0)
(2.37924 0.140182 0)
(2.38071 0.152193 0)
(2.38519 0.162023 0)
(2.39069 0.168635 0)
(2.39402 0.170252 0)
(2.39578 0.168549 0)
(2.39947 0.161927 0)
(2.40483 0.148282 0)
(2.41014 0.1301 0)
(2.41305 0.115445 0)
(2.4137 0.10828 0)
(2.41491 0.106429 0)
(2.41474 0.1105 0)
(2.41139 0.122509 0)
(2.40431 0.143102 0)
(2.39799 0.162718 0)
(2.3982 0.170781 0)
(2.40018 0.1714 0)
(2.40171 0.168681 0)
(2.4015 0.162604 0)
(2.4002 0.154428 0)
(2.40081 0.148392 0)
(2.40301 0.143935 0)
(2.40895 0.135584 0)
(2.42163 0.124217 0)
(2.43532 0.120445 0)
(2.4411 0.124039 0)
(2.44318 0.127283 0)
(2.44571 0.130727 0)
(2.44357 0.137542 0)
(2.4289 0.151723 0)
(2.41098 0.161783 0)
(2.40518 0.159472 0)
(2.40527 0.153601 0)
(2.40703 0.14848 0)
(2.41134 0.142129 0)
(2.42212 0.129481 0)
(2.43872 0.119541 0)
(2.45159 0.119748 0)
(2.45671 0.123898 0)
(2.45824 0.126864 0)
(2.45877 0.133155 0)
(2.45242 0.144724 0)
(2.43665 0.155847 0)
(2.42819 0.153879 0)
(2.43033 0.15024 0)
(2.30204 -0.579846 0)
(2.3046 -0.5801 0)
(2.30554 -0.578193 0)
(2.30311 -0.571772 0)
(2.30133 -0.564518 0)
(2.30411 -0.562254 0)
(2.30744 -0.562041 0)
(2.31271 -0.562059 0)
(2.31938 -0.563091 0)
(2.32481 -0.566011 0)
(2.32823 -0.568216 0)
(2.33043 -0.568662 0)
(2.33267 -0.568295 0)
(2.33338 -0.565877 0)
(2.3307 -0.559694 0)
(2.3283 -0.55381 0)
(2.3297 -0.551959 0)
(2.33173 -0.55122 0)
(2.33615 -0.550581 0)
(2.34323 -0.551964 0)
(2.34959 -0.554724 0)
(2.35271 -0.555473 0)
(2.35657 -0.556096 0)
(2.3598 -0.55659 0)
(2.36104 -0.555691 0)
(2.35969 -0.552702 0)
(2.36004 -0.551128 0)
(2.36269 -0.551267 0)
(2.36531 -0.551846 0)
(2.36766 -0.55246 0)
(2.37116 -0.553601 0)
(2.37485 -0.554141 0)
(2.37658 -0.553668 0)
(2.37851 -0.551665 0)
(2.37997 -0.54858 0)
(2.38109 -0.545999 0)
(2.38344 -0.544855 0)
(2.38657 -0.544736 0)
(2.38967 -0.545472 0)
(2.39326 -0.546921 0)
(2.39705 -0.549078 0)
(2.40051 -0.55158 0)
(2.40296 -0.55314 0)
(2.40583 -0.553635 0)
(2.40722 -0.552992 0)
(2.40773 -0.550913 0)
(2.40886 -0.547362 0)
(2.41126 -0.543172 0)
(2.41441 -0.539919 0)
(2.41765 -0.537817 0)
(2.4207 -0.536512 0)
(2.42347 -0.535979 0)
(2.42578 -0.535874 0)
(2.42711 -0.536172 0)
(2.42681 -0.536883 0)
(2.42584 -0.536862 0)
(2.42767 -0.536042 0)
(2.42908 -0.535327 0)
(2.43023 -0.534311 0)
(2.43184 -0.533131 0)
(2.43323 -0.53096 0)
(2.4333 -0.528458 0)
(2.43108 -0.5254 0)
(2.42662 -0.522316 0)
(2.42366 -0.519493 0)
(2.42424 -0.514795 0)
(2.42552 -0.511436 0)
(2.42543 -0.510765 0)
(2.42501 -0.509862 0)
(2.4259 -0.508035 0)
(2.42692 -0.505863 0)
(2.42651 -0.502993 0)
(2.42805 -0.501311 0)
(2.43161 -0.501629 0)
(2.43456 -0.501716 0)
(2.43736 -0.501219 0)
(2.44079 -0.501004 0)
(2.44465 -0.501528 0)
(2.44826 -0.503403 0)
(2.45193 -0.506866 0)
(2.45499 -0.509963 0)
(2.45674 -0.510996 0)
(2.45917 -0.511234 0)
(2.4607 -0.51019 0)
(2.46049 -0.507201 0)
(2.45852 -0.502501 0)
(2.45828 -0.499517 0)
(2.45989 -0.498833 0)
(2.46184 -0.498496 0)
(2.46683 -0.498357 0)
(2.47014 -0.498119 0)
(2.4719 -0.497923 0)
(2.47434 -0.497516 0)
(2.47654 -0.496393 0)
(2.47737 -0.493816 0)
(2.47661 -0.490574 0)
(2.47761 -0.48948 0)
(2.4797 -0.489599 0)
(2.4813 -0.490055 0)
(2.48334 -0.490561 0)
(2.48638 -0.491286 0)
(2.49127 -0.493486 0)
(2.49658 -0.496294 0)
(2.49938 -0.497975 0)
(2.50191 -0.498307 0)
(2.5045 -0.498168 0)
(2.50512 -0.497266 0)
(2.49582 -0.478507 0)
(2.48555 -0.44987 0)
(2.45871 -0.385092 0)
(2.41607 -0.276542 0)
(2.37591 -0.157149 0)
(2.33058 -0.0482704 0)
(2.30975 0.0145658 0)
(2.31504 0.0317681 0)
(2.29961 0.0702618 0)
(2.28502 0.100314 0)
(2.28336 0.102257 0)
(2.29075 0.102798 0)
(2.29236 0.107672 0)
(2.28601 0.113953 0)
(2.28029 0.117425 0)
(2.27767 0.119308 0)
(2.2761 0.119101 0)
(2.2771 0.118469 0)
(2.28029 0.118702 0)
(2.28347 0.117817 0)
(2.28803 0.115939 0)
(2.29385 0.110756 0)
(2.30084 0.10089 0)
(2.30776 0.0919868 0)
(2.31038 0.0888052 0)
(2.3128 0.0874393 0)
(2.3148 0.0866707 0)
(2.31542 0.087871 0)
(2.31328 0.0929533 0)
(2.30789 0.103422 0)
(2.30173 0.115031 0)
(2.2995 0.121856 0)
(2.30066 0.124449 0)
(2.30218 0.125471 0)
(2.30569 0.125832 0)
(2.31125 0.124715 0)
(2.3188 0.119884 0)
(2.32742 0.111695 0)
(2.33335 0.105523 0)
(2.33551 0.103129 0)
(2.33697 0.102349 0)
(2.33734 0.1018 0)
(2.33576 0.103088 0)
(2.33287 0.108221 0)
(2.3291 0.116213 0)
(2.32624 0.123512 0)
(2.32616 0.127301 0)
(2.32779 0.12813 0)
(2.32959 0.128192 0)
(2.33098 0.127694 0)
(2.33248 0.125905 0)
(2.33477 0.122018 0)
(2.33907 0.116032 0)
(2.34365 0.111214 0)
(2.34561 0.109521 0)
(2.34667 0.109571 0)
(2.34819 0.11252 0)
(2.34936 0.119479 0)
(2.34923 0.129886 0)
(2.34741 0.140501 0)
(2.34626 0.14654 0)
(2.34747 0.147119 0)
(2.34949 0.145426 0)
(2.35216 0.142521 0)
(2.35444 0.137724 0)
(2.35752 0.130703 0)
(2.36199 0.119825 0)
(2.36967 0.108634 0)
(2.37688 0.105367 0)
(2.38056 0.106967 0)
(2.38199 0.109775 0)
(2.38358 0.11519 0)
(2.38316 0.125633 0)
(2.37579 0.143877 0)
(2.36197 0.161171 0)
(2.35594 0.165821 0)
(2.35718 0.163986 0)
(2.35924 0.16031 0)
(2.3611 0.155301 0)
(2.36454 0.148399 0)
(2.37062 0.135789 0)
(2.38377 0.11731 0)
(2.39992 0.102132 0)
(2.40616 0.097831 0)
(2.40707 0.0973867 0)
(2.40828 0.100158 0)
(2.40852 0.108706 0)
(2.40621 0.123511 0)
(2.39762 0.144809 0)
(2.38544 0.161208 0)
(2.38165 0.165221 0)
(2.38128 0.165168 0)
(2.38081 0.16212 0)
(2.38109 0.153204 0)
(2.38247 0.139821 0)
(2.38546 0.124523 0)
(2.39183 0.111752 0)
(2.39664 0.106814 0)
(2.39773 0.108773 0)
(2.39962 0.118256 0)
(2.40063 0.134375 0)
(2.39948 0.15245 0)
(2.39681 0.167809 0)
(2.39392 0.173791 0)
(2.39311 0.173228 0)
(2.3932 0.16985 0)
(2.3937 0.163166 0)
(2.39495 0.153187 0)
(2.3978 0.141603 0)
(2.40363 0.127509 0)
(2.41365 0.115665 0)
(2.42124 0.114182 0)
(2.42413 0.117178 0)
(2.42515 0.122322 0)
(2.42481 0.132281 0)
(2.42196 0.148449 0)
(2.41203 0.164967 0)
(2.40185 0.170064 0)
(2.39809 0.1663 0)
(2.39649 0.161211 0)
(2.39669 0.158186 0)
(2.39801 0.156873 0)
(2.39953 0.155874 0)
(2.4041 0.15402 0)
(2.4132 0.1487 0)
(2.42898 0.137028 0)
(2.44255 0.126986 0)
(2.44612 0.124762 0)
(2.44916 0.123955 0)
(2.45014 0.123822 0)
(2.44462 0.128018 0)
(2.4264 0.14257 0)
(2.40657 0.154942 0)
(2.40198 0.156694 0)
(2.4031 0.155477 0)
(2.40482 0.153508 0)
(2.41229 0.149733 0)
(2.433 0.14102 0)
(2.45678 0.133874 0)
(2.46381 0.133026 0)
(2.46606 0.13359 0)
(2.46875 0.135081 0)
(2.46594 0.137999 0)
(2.44842 0.14463 0)
(2.43172 0.147565 0)
(2.42949 0.144297 0)
(2.30374 -0.578016 0)
(2.30793 -0.579726 0)
(2.31005 -0.579997 0)
(2.31173 -0.578019 0)
(2.31144 -0.572047 0)
(2.3106 -0.564266 0)
(2.31291 -0.560362 0)
(2.31623 -0.560034 0)
(2.32064 -0.560354 0)
(2.32569 -0.561441 0)
(2.32978 -0.563591 0)
(2.33356 -0.566251 0)
(2.33573 -0.56695 0)
(2.33772 -0.566884 0)
(2.33881 -0.564395 0)
(2.33716 -0.557993 0)
(2.33522 -0.550995 0)
(2.33661 -0.54842 0)
(2.33896 -0.547806 0)
(2.34396 -0.548078 0)
(2.34952 -0.55037 0)
(2.35428 -0.553865 0)
(2.35726 -0.555665 0)
(2.36115 -0.556896 0)
(2.36423 -0.557563 0)
(2.36575 -0.556786 0)
(2.36497 -0.553475 0)
(2.36481 -0.550606 0)
(2.36701 -0.549917 0)
(2.36959 -0.549886 0)
(2.37265 -0.54966 0)
(2.37868 -0.549587 0)
(2.38317 -0.5489 0)
(2.38477 -0.548431 0)
(2.3867 -0.547685 0)
(2.38784 -0.546327 0)
(2.38731 -0.544293 0)
(2.38798 -0.543466 0)
(2.39093 -0.543797 0)
(2.39419 -0.54491 0)
(2.39744 -0.546295 0)
(2.40066 -0.548099 0)
(2.4044 -0.550624 0)
(2.4083 -0.552319 0)
(2.41172 -0.552024 0)
(2.41363 -0.551638 0)
(2.41509 -0.550192 0)
(2.41713 -0.546833 0)
(2.41942 -0.542536 0)
(2.42156 -0.538828 0)
(2.42388 -0.536787 0)
(2.42634 -0.53568 0)
(2.42845 -0.534994 0)
(2.4299 -0.534719 0)
(2.43061 -0.534739 0)
(2.43002 -0.534794 0)
(2.42988 -0.533749 0)
(2.43195 -0.532836 0)
(2.43338 -0.531983 0)
(2.43457 -0.53068 0)
(2.43625 -0.528879 0)
(2.43761 -0.526573 0)
(2.43765 -0.524306 0)
(2.43529 -0.521868 0)
(2.43087 -0.52006 0)
(2.42833 -0.518515 0)
(2.42884 -0.514081 0)
(2.4303 -0.510443 0)
(2.43057 -0.509469 0)
(2.43041 -0.508264 0)
(2.43139 -0.506461 0)
(2.43247 -0.504142 0)
(2.43273 -0.501001 0)
(2.43491 -0.499212 0)
(2.43871 -0.499512 0)
(2.4419 -0.499823 0)
(2.44477 -0.499952 0)
(2.44762 -0.500384 0)
(2.45038 -0.501227 0)
(2.45266 -0.502624 0)
(2.45524 -0.504837 0)
(2.45814 -0.507472 0)
(2.46032 -0.508584 0)
(2.46259 -0.508775 0)
(2.46457 -0.508058 0)
(2.46534 -0.50573 0)
(2.46492 -0.502011 0)
(2.46512 -0.49855 0)
(2.4669 -0.496838 0)
(2.4691 -0.496093 0)
(2.47197 -0.495476 0)
(2.47459 -0.495472 0)
(2.47754 -0.495546 0)
(2.48022 -0.495285 0)
(2.48253 -0.49406 0)
(2.48338 -0.491263 0)
(2.48246 -0.487772 0)
(2.48291 -0.48632 0)
(2.48473 -0.486265 0)
(2.48613 -0.486979 0)
(2.48819 -0.488067 0)
(2.49084 -0.489226 0)
(2.49511 -0.49141 0)
(2.49998 -0.495274 0)
(2.50371 -0.497231 0)
(2.50653 -0.498449 0)
(2.50917 -0.499195 0)
(2.51013 -0.495076 0)
(2.5112 -0.493121 0)
(2.50638 -0.477663 0)
(2.49998 -0.458056 0)
(2.48185 -0.41228 0)
(2.44613 -0.330434 0)
(2.39863 -0.207085 0)
(2.36176 -0.0849087 0)
(2.32686 0.000945969 0)
(2.3143 0.0380761 0)
(2.31945 0.0507364 0)
(2.31191 0.0704423 0)
(2.30232 0.0902856 0)
(2.29363 0.102029 0)
(2.29271 0.109055 0)
(2.2888 0.11636 0)
(2.283 0.120163 0)
(2.28149 0.125675 0)
(2.28281 0.12821 0)
(2.28561 0.128217 0)
(2.28769 0.127404 0)
(2.29027 0.124455 0)
(2.29561 0.118458 0)
(2.30325 0.10772 0)
(2.31156 0.0954409 0)
(2.31656 0.088827 0)
(2.31907 0.0869019 0)
(2.32149 0.0857876 0)
(2.32265 0.0861267 0)
(2.32189 0.0902631 0)
(2.31905 0.0996785 0)
(2.31449 0.11279 0)
(2.31054 0.124342 0)
(2.30999 0.131713 0)
(2.31156 0.135501 0)
(2.31408 0.137492 0)
(2.31667 0.137283 0)
(2.32074 0.133117 0)
(2.32651 0.124275 0)
(2.33303 0.113346 0)
(2.33773 0.104833 0)
(2.33972 0.101236 0)
(2.34089 0.100194 0)
(2.34139 0.100501 0)
(2.341 0.103545 0)
(2.3397 0.109991 0)
(2.33705 0.118844 0)
(2.33442 0.126912 0)
(2.33376 0.131208 0)
(2.33428 0.132347 0)
(2.33499 0.132503 0)
(2.33543 0.131937 0)
(2.33696 0.129655 0)
(2.3408 0.124168 0)
(2.34707 0.117042 0)
(2.35193 0.113351 0)
(2.35383 0.113001 0)
(2.35619 0.114421 0)
(2.35851 0.118815 0)
(2.35857 0.126463 0)
(2.35469 0.136598 0)
(2.3496 0.144473 0)
(2.34786 0.146477 0)
(2.34844 0.144902 0)
(2.3498 0.141698 0)
(2.35158 0.138636 0)
(2.35443 0.135775 0)
(2.36156 0.129518 0)
(2.3759 0.120188 0)
(2.38718 0.116575 0)
(2.39065 0.117016 0)
(2.3928 0.117846 0)
(2.39546 0.120052 0)
(2.39454 0.125941 0)
(2.38368 0.140342 0)
(2.3657 0.156118 0)
(2.35787 0.160098 0)
(2.35819 0.15788 0)
(2.35984 0.154607 0)
(2.3615 0.151805 0)
(2.36475 0.148558 0)
(2.37224 0.139909 0)
(2.38713 0.123842 0)
(2.40438 0.109578 0)
(2.41384 0.107466 0)
(2.41757 0.11039 0)
(2.4194 0.113492 0)
(2.42115 0.117812 0)
(2.41951 0.12639 0)
(2.40868 0.143144 0)
(2.39221 0.157958 0)
(2.38405 0.158866 0)
(2.38005 0.153308 0)
(2.37765 0.147097 0)
(2.37724 0.142327 0)
(2.3781 0.134687 0)
(2.38333 0.124704 0)
(2.39516 0.119918 0)
(2.40797 0.123371 0)
(2.41495 0.132019 0)
(2.4171 0.139216 0)
(2.41718 0.145002 0)
(2.41474 0.155127 0)
(2.40466 0.166587 0)
(2.39451 0.169198 0)
(2.39018 0.16408 0)
(2.38791 0.156584 0)
(2.38747 0.150057 0)
(2.38844 0.146259 0)
(2.39175 0.142075 0)
(2.40289 0.133985 0)
(2.42128 0.127725 0)
(2.43108 0.12925 0)
(2.43456 0.132479 0)
(2.43641 0.134497 0)
(2.4376 0.13798 0)
(2.43045 0.146762 0)
(2.41026 0.159483 0)
(2.39656 0.164363 0)
(2.39567 0.164097 0)
(2.39731 0.163705 0)
(2.39893 0.163733 0)
(2.401 0.163692 0)
(2.4051 0.162888 0)
(2.41127 0.160257 0)
(2.42047 0.154748 0)
(2.43219 0.142217 0)
(2.44317 0.128111 0)
(2.44744 0.122049 0)
(2.44967 0.119697 0)
(2.44912 0.119343 0)
(2.44251 0.124137 0)
(2.42661 0.13942 0)
(2.41113 0.15833 0)
(2.40694 0.16694 0)
(2.40775 0.1689 0)
(2.41344 0.170374 0)
(2.42815 0.167432 0)
(2.44776 0.155862 0)
(2.46177 0.140888 0)
(2.46608 0.134105 0)
(2.46816 0.130772 0)
(2.46625 0.127221 0)
(2.45484 0.127026 0)
(2.44025 0.135258 0)
(2.43077 0.142737 0)
(2.30387 -0.573038 0)
(2.30959 -0.576241 0)
(2.31525 -0.578043 0)
(2.31738 -0.578061 0)
(2.31999 -0.575994 0)
(2.32164 -0.571086 0)
(2.32097 -0.563933 0)
(2.32124 -0.559201 0)
(2.32428 -0.558803 0)
(2.32752 -0.559496 0)
(2.33112 -0.560292 0)
(2.33514 -0.561629 0)
(2.33968 -0.564005 0)
(2.34253 -0.564317 0)
(2.34434 -0.56394 0)
(2.34595 -0.56127 0)
(2.34576 -0.555583 0)
(2.34405 -0.548837 0)
(2.34502 -0.546263 0)
(2.34763 -0.546415 0)
(2.35051 -0.547622 0)
(2.35372 -0.550016 0)
(2.35769 -0.553538 0)
(2.36147 -0.556269 0)
(2.36547 -0.557484 0)
(2.36899 -0.558185 0)
(2.37151 -0.557265 0)
(2.37183 -0.553481 0)
(2.37173 -0.548999 0)
(2.37368 -0.546837 0)
(2.3759 -0.545867 0)
(2.38075 -0.545184 0)
(2.38675 -0.545122 0)
(2.38919 -0.545194 0)
(2.39143 -0.545549 0)
(2.39357 -0.545855 0)
(2.3941 -0.545434 0)
(2.39252 -0.543551 0)
(2.3928 -0.542859 0)
(2.39582 -0.543266 0)
(2.39904 -0.544008 0)
(2.4022 -0.545089 0)
(2.40549 -0.546608 0)
(2.4094 -0.54834 0)
(2.41428 -0.549691 0)
(2.41886 -0.549757 0)
(2.42112 -0.549655 0)
(2.42247 -0.54911 0)
(2.4248 -0.547018 0)
(2.42699 -0.543384 0)
(2.42846 -0.539284 0)
(2.43004 -0.536521 0)
(2.43204 -0.534863 0)
(2.4338 -0.533658 0)
(2.43452 -0.532715 0)
(2.43435 -0.532396 0)
(2.43415 -0.531839 0)
(2.43484 -0.530638 0)
(2.43677 -0.529949 0)
(2.43836 -0.528977 0)
(2.43973 -0.527457 0)
(2.44142 -0.525482 0)
(2.44237 -0.522947 0)
(2.44171 -0.520628 0)
(2.43883 -0.518194 0)
(2.43441 -0.516938 0)
(2.43227 -0.516633 0)
(2.43361 -0.512742 0)
(2.43545 -0.508707 0)
(2.43606 -0.507424 0)
(2.43622 -0.506173 0)
(2.43765 -0.50441 0)
(2.43936 -0.502399 0)
(2.44002 -0.499631 0)
(2.44154 -0.497809 0)
(2.44518 -0.498072 0)
(2.44828 -0.498631 0)
(2.451 -0.499214 0)
(2.45331 -0.499852 0)
(2.45509 -0.500765 0)
(2.45669 -0.501871 0)
(2.45902 -0.503367 0)
(2.46228 -0.505006 0)
(2.46539 -0.505366 0)
(2.46746 -0.504815 0)
(2.46934 -0.504235 0)
(2.47102 -0.502723 0)
(2.47178 -0.500346 0)
(2.47225 -0.497328 0)
(2.47352 -0.495249 0)
(2.47557 -0.49475 0)
(2.478 -0.494675 0)
(2.48073 -0.494476 0)
(2.48376 -0.493895 0)
(2.48652 -0.492916 0)
(2.48871 -0.491333 0)
(2.48938 -0.4884 0)
(2.48779 -0.484915 0)
(2.48721 -0.483564 0)
(2.48879 -0.483684 0)
(2.49033 -0.484825 0)
(2.4924 -0.486386 0)
(2.49502 -0.487813 0)
(2.49931 -0.490172 0)
(2.5055 -0.494221 0)
(2.51033 -0.495917 0)
(2.51349 -0.496655 0)
(2.51634 -0.496702 0)
(2.51838 -0.496163 0)
(2.52005 -0.490909 0)
(2.52071 -0.486881 0)