/*--------------------------------*- C++ -*----------------------------------*\
  =========                 |
  \\      /  F ield         | OpenFOAM: The Open Source CFD Toolbox
   \\    /   O peration     | Website:  https://openfoam.org
    \\  /    A nd           | Version:  7
     \\/     M anipulation  |
\*---------------------------------------------------------------------------*/
FoamFile
{
    version     2.0;
    format      ascii;
    class       volScalarField;
    location    "0.7";
    object      T;
}
// * * * * * * * * * * * * * * * * * * * * * * * * * * * * * * * * * * * * * //

dimensions      [0 0 0 1 0 0 0];

internalField   nonuniform List<scalar> 
16192
(
2.6977
2.69509
2.70523
2.72541
2.77319
2.857
2.94082
2.98975
3.00339
2.99819
2.95104
2.92309
2.93699
2.97847
2.97167
2.83695
2.65037
2.52744
2.48315
2.45395
2.44509
2.69802
2.69567
2.70521
2.72509
2.77169
2.8548
2.93881
2.98831
3.00218
2.99513
2.94484
2.90629
2.89517
2.90962
2.85724
2.69865
2.53664
2.45679
2.43812
2.41898
2.40759
2.6992
2.69682
2.70448
2.72364
2.76792
2.84853
2.93317
2.9856
3.00199
2.9929
2.93297
2.87139
2.81971
2.77657
2.66054
2.47275
2.34624
2.31279
2.31683
2.31499
2.30731
2.70144
2.69875
2.70315
2.72123
2.7632
2.83984
2.92542
2.98199
3.00144
2.98741
2.91086
2.81912
2.7161
2.60676
2.44969
2.28322
2.21076
2.19995
2.21218
2.2199
2.21424
2.7058
2.70151
2.70213
2.71958
2.7587
2.83004
2.91574
2.97679
2.99961
2.97819
2.8803
2.75422
2.60934
2.46027
2.30411
2.18726
2.15135
2.14777
2.16481
2.18167
2.17864
2.71362
2.70518
2.70234
2.71974
2.75536
2.82028
2.90393
2.96885
2.9947
2.96643
2.84917
2.68923
2.52109
2.36562
2.22925
2.14828
2.12825
2.12712
2.15293
2.17894
2.17971
2.72615
2.71166
2.70544
2.72229
2.75375
2.81107
2.89034
2.95831
2.98583
2.95535
2.82621
2.64424
2.46386
2.3161
2.20026
2.13926
2.12257
2.12402
2.15603
2.1974
2.20505
2.74302
2.7234
2.71377
2.7281
2.75378
2.80233
2.87484
2.9438
2.97138
2.94452
2.81647
2.62634
2.44005
2.29666
2.19258
2.14278
2.13064
2.13481
2.1721
2.22603
2.24957
2.76178
2.74046
2.72905
2.73792
2.75603
2.79449
2.85832
2.92461
2.95496
2.93378
2.81761
2.6303
2.43988
2.29436
2.19546
2.15397
2.14807
2.15873
2.1991
2.26072
2.30463
2.77572
2.75927
2.74938
2.75028
2.76168
2.78934
2.8417
2.90195
2.9375
2.92132
2.82205
2.64531
2.45252
2.30263
2.20721
2.1694
2.17016
2.18892
2.23609
2.30409
2.36661
2.78179
2.77338
2.7685
2.76481
2.77159
2.7882
2.82646
2.87803
2.91617
2.90594
2.82773
2.67017
2.47958
2.32228
2.22647
2.185
2.19153
2.22052
2.27906
2.35608
2.43437
2.77785
2.7777
2.77949
2.77921
2.78503
2.79239
2.81406
2.85314
2.89097
2.88521
2.82696
2.69631
2.51599
2.35223
2.24957
2.2015
2.20814
2.24405
2.31884
2.40706
2.50033
2.76099
2.76907
2.78174
2.78853
2.79871
2.80196
2.80836
2.8318
2.863
2.86197
2.82155
2.71848
2.55637
2.39083
2.275
2.22056
2.21928
2.25372
2.34868
2.45279
2.56339
2.73286
2.74967
2.77148
2.79168
2.80684
2.81193
2.80783
2.81516
2.83364
2.83622
2.81006
2.73015
2.59138
2.43213
2.30368
2.2408
2.225
2.25495
2.37138
2.50302
2.64075
2.68764
2.70933
2.74422
2.78392
2.80793
2.81777
2.80932
2.8052
2.80999
2.81098
2.79201
2.7319
2.61743
2.47195
2.33643
2.2609
2.22818
2.2411
2.37952
2.54259
2.69772
2.62689
2.65888
2.69859
2.75113
2.79715
2.81633
2.81002
2.79992
2.79206
2.78731
2.76926
2.72654
2.63414
2.50652
2.37114
2.27998
2.22743
2.20914
2.27574
2.38979
2.56641
2.55369
2.59263
2.63395
2.69552
2.76234
2.8059
2.80834
2.79875
2.78177
2.7679
2.74757
2.7146
2.64264
2.53333
2.40384
2.29974
2.22761
2.18621
2.15816
2.11699
2.14364
2.46562
2.51974
2.56612
2.6237
2.70465
2.77409
2.80167
2.79542
2.77529
2.75254
2.72759
2.69855
2.64233
2.55289
2.434
2.32239
2.23599
2.17408
2.12613
2.08903
2.08398
2.37644
2.44107
2.49223
2.54784
2.62434
2.71806
2.7807
2.78718
2.77091
2.74394
2.71327
2.68358
2.63799
2.56561
2.46146
2.349
2.25518
2.18121
2.13289
2.13398
2.13664
2.30702
2.36606
2.42081
2.47404
2.54393
2.64233
2.73697
2.77268
2.76303
2.73812
2.70321
2.67051
2.6306
2.57157
2.48321
2.37629
2.28046
2.2016
2.16169
2.17557
2.18506
2.26294
2.30761
2.35719
2.40712
2.46753
2.55608
2.66907
2.74288
2.75028
2.73361
2.69804
2.66212
2.62395
2.57422
2.49978
2.40222
2.3052
2.22281
2.18864
2.21692
2.23382
2.24185
2.27057
2.30853
2.35135
2.40072
2.476
2.58705
2.69448
2.73288
2.72464
2.69447
2.6569
2.61837
2.57431
2.51181
2.42433
2.32975
2.24386
2.21489
2.25701
2.28816
2.23571
2.25276
2.27777
2.30967
2.3473
2.40618
2.50159
2.62262
2.70185
2.71127
2.69116
2.65532
2.61608
2.57488
2.52128
2.44363
2.35332
2.26425
2.241
2.29571
2.33646
2.23617
2.24582
2.26114
2.28176
2.30751
2.3497
2.42567
2.54293
2.6536
2.69533
2.68369
2.6536
2.61554
2.57566
2.52824
2.45974
2.37543
2.2841
2.26351
2.33062
2.38875
2.23806
2.24422
2.25344
2.2651
2.28011
2.30766
2.36281
2.46233
2.58546
2.66735
2.6706
2.65128
2.61692
2.57805
2.53481
2.47362
2.39503
2.3026
2.28447
2.36326
2.434
2.2415
2.24513
2.25056
2.256
2.26251
2.27772
2.31364
2.39078
2.51225
2.62365
2.65669
2.64522
2.61781
2.58133
2.54052
2.48485
2.41185
2.31955
2.30111
2.39154
2.47967
2.24582
2.24745
2.25023
2.25135
2.25172
2.2572
2.2774
2.3319
2.43688
2.56059
2.63286
2.63385
2.61707
2.58522
2.54654
2.49493
2.42643
2.33523
2.31268
2.41489
2.52009
2.24949
2.25045
2.25067
2.24909
2.24442
2.24356
2.25176
2.28567
2.36848
2.49183
2.59518
2.62239
2.61316
2.58777
2.55216
2.50368
2.43884
2.35056
2.31856
2.4301
2.55764
2.25146
2.25289
2.25159
2.24783
2.24029
2.23286
2.23398
2.25198
2.31084
2.42019
2.53882
2.60256
2.60351
2.58744
2.55715
2.51221
2.44993
2.36533
2.31997
2.43529
2.58631
2.25149
2.25437
2.25218
2.24691
2.23757
2.22579
2.22022
2.22796
2.26528
2.35307
2.47444
2.57039
2.59394
2.58473
2.56075
2.52013
2.46005
2.37953
2.31885
2.43338
2.60524
2.25095
2.25503
2.25213
2.24596
2.23565
2.22162
2.20932
2.21069
2.23131
2.29478
2.40573
2.51949
2.5771
2.57648
2.56114
2.52666
2.47004
2.39152
2.31677
2.4218
2.60734
2.2497
2.25502
2.25179
2.24492
2.23405
2.21895
2.20185
2.19687
2.20637
2.24711
2.33945
2.4577
2.54958
2.56755
2.55862
2.53152
2.47903
2.40283
2.31496
2.39836
2.5923
2.24797
2.2546
2.25119
2.24375
2.23247
2.21699
2.1976
2.18511
2.18773
2.21074
2.27959
2.39067
2.50373
2.55267
2.55113
2.53285
2.48761
2.41297
2.31899
2.36075
2.46608
2.24571
2.25319
2.24995
2.24216
2.23056
2.21502
2.19485
2.17612
2.17304
2.18343
2.22966
2.32415
2.44409
2.52767
2.5402
2.53037
2.49356
2.42477
2.31715
2.32927
2.4077
2.24305
2.25081
2.24788
2.24002
2.22815
2.21266
2.19246
2.17094
2.15989
2.16313
2.19036
2.26272
2.37655
2.48469
2.52543
2.52367
2.49753
2.43669
2.32317
2.30645
2.34443
2.23981
2.24737
2.24482
2.23719
2.22505
2.20981
2.19003
2.16782
2.14939
2.14733
2.1606
2.2101
2.30774
2.4257
2.49856
2.51197
2.49617
2.44636
2.34212
2.28974
2.30827
2.23614
2.24322
2.24102
2.23374
2.22134
2.20635
2.18746
2.16536
2.14313
2.13317
2.1385
2.16826
2.24249
2.35773
2.45371
2.49547
2.4892
2.45417
2.36389
2.29569
2.30084
2.23229
2.23879
2.23674
2.22988
2.21751
2.20268
2.18475
2.16332
2.13964
2.12166
2.12156
2.13622
2.18644
2.28553
2.39127
2.466
2.47521
2.45569
2.38944
2.31124
2.30852
2.22845
2.23445
2.23224
2.22586
2.21399
2.19919
2.18195
2.16157
2.13791
2.11425
2.10674
2.11241
2.1411
2.21614
2.31906
2.41597
2.45461
2.44784
2.40597
2.33818
2.32595
2.22437
2.23029
2.22789
2.22191
2.21094
2.19636
2.17942
2.16004
2.13671
2.11172
2.09474
2.09416
2.10733
2.15568
2.24285
2.34353
2.42032
2.42835
2.41112
2.3694
2.35679
2.21975
2.22619
2.22399
2.21826
2.20831
2.19423
2.17738
2.15838
2.13588
2.11076
2.08889
2.078
2.08244
2.10932
2.17166
2.26046
2.35682
2.39489
2.40068
2.39115
2.38888
2.21529
2.22193
2.21999
2.21467
2.20581
2.19247
2.17588
2.15669
2.1352
2.11091
2.0868
2.06561
2.06382
2.07455
2.11218
2.17756
2.2717
2.33526
2.37006
2.38779
2.40271
2.21109
2.21684
2.21574
2.21119
2.20318
2.19076
2.17461
2.15552
2.13455
2.11122
2.08716
2.06062
2.04782
2.04836
2.06541
2.10415
2.17891
2.25029
2.30763
2.36014
2.39168
2.20694
2.21137
2.21152
2.20778
2.20034
2.18876
2.17345
2.1549
2.13437
2.11154
2.08821
2.06047
2.04109
2.02709
2.03271
2.04861
2.09492
2.15377
2.21476
2.29336
2.34828
2.20235
2.20637
2.20759
2.20451
2.19749
2.18655
2.17235
2.15464
2.13449
2.11208
2.08964
2.06214
2.04058
2.01247
2.00961
2.01091
2.02951
2.06224
2.11068
2.19044
2.26723
2.19718
2.20175
2.20354
2.20119
2.19479
2.18448
2.17144
2.15462
2.13493
2.11294
2.09123
2.06521
2.04187
2.01294
1.99681
1.98221
1.98405
1.99303
2.02159
2.07798
2.16741
2.19134
2.19595
2.19912
2.19751
2.19197
2.18264
2.17073
2.1546
2.1355
2.11386
2.09262
2.06796
2.04355
2.01525
1.99201
1.96801
1.9513
1.94357
1.95645
1.98785
2.06816
2.1845
2.18917
2.19436
2.19319
2.18876
2.18077
2.16979
2.15426
2.13575
2.11461
2.09358
2.06999
2.04478
2.01869
1.99286
1.96781
1.93875
1.9164
1.914
1.92694
2.00582
2.17708
2.18263
2.18881
2.18816
2.18506
2.17835
2.16799
2.15307
2.13539
2.11505
2.0941
2.07189
2.04609
2.02237
1.99564
1.97078
1.93889
1.91665
1.89087
1.89604
1.98018
2.17007
2.17666
2.18171
2.18273
2.18038
2.17456
2.16478
2.15084
2.13435
2.11539
2.09458
2.07404
2.04806
2.0258
1.99938
1.97563
1.94313
1.92047
1.88794
1.88964
1.97006
2.16364
2.17056
2.17386
2.17685
2.17468
2.1694
2.16046
2.14818
2.13331
2.11601
2.09545
2.07625
2.0506
2.02867
2.00302
1.97993
1.94987
1.92776
1.89175
1.8923
1.964
2.15735
2.16338
2.16627
2.17036
2.16838
2.1638
2.15625
2.1459
2.13261
2.11662
2.0963
2.07797
2.05301
2.03084
2.00625
1.98342
1.95626
1.9358
1.90205
1.89833
1.95896
2.15093
2.15561
2.15917
2.16362
2.16223
2.15856
2.15243
2.14356
2.13142
2.11641
2.09646
2.07887
2.05482
2.03253
2.00913
1.98649
1.96182
1.94295
1.9149
1.90698
1.95641
2.14492
2.1484
2.15221
2.15707
2.15634
2.15343
2.14814
2.14006
2.12873
2.11488
2.09588
2.07893
2.05602
2.034
2.01176
1.98938
1.96683
1.94927
1.92691
1.91731
1.95963
2.13926
2.14179
2.14535
2.15051
2.14986
2.14757
2.14291
2.13535
2.12482
2.11223
2.09455
2.07866
2.05692
2.03539
2.0142
1.99235
1.9717
1.95543
1.93788
1.92817
1.96517
2.13385
2.13539
2.1387
2.14331
2.14275
2.14128
2.13716
2.1301
2.12054
2.10937
2.09312
2.07821
2.05756
2.03661
2.01637
1.99558
1.97688
1.96216
1.94858
1.93926
1.97263
2.12827
2.12901
2.13198
2.13515
2.13577
2.13487
2.13105
2.12466
2.11624
2.10652
2.09159
2.07749
2.05772
2.0376
2.01831
1.99918
1.98269
1.96994
1.9595
1.95085
1.98157
2.12342
2.12281
2.1254
2.12714
2.12882
2.12804
2.12465
2.11918
2.11191
2.10341
2.08961
2.07615
2.05748
2.03834
2.02007
2.00314
1.98912
1.97876
1.97031
1.9623
1.99079
2.11925
2.11695
2.11879
2.11953
2.12127
2.12085
2.11824
2.11381
2.10743
2.09965
2.08669
2.07385
2.05664
2.03877
2.02185
2.00748
1.99589
1.9876
1.97988
1.97209
1.99825
2.11542
2.11173
2.11224
2.11208
2.11332
2.11372
2.11196
2.10838
2.10241
2.09492
2.0828
2.07075
2.05517
2.03896
2.02382
2.01214
2.00259
1.99529
1.98735
1.97926
2.003
2.11182
2.10697
2.1054
2.10447
2.10544
2.10661
2.10545
2.10234
2.09648
2.08929
2.07826
2.06719
2.05342
2.03922
2.02625
2.017
2.00897
2.00154
1.99251
1.98423
2.00561
2.10849
2.10233
2.09893
2.09691
2.09763
2.09908
2.09817
2.09528
2.08971
2.08316
2.07361
2.06381
2.05199
2.03998
2.02916
2.02174
2.01453
2.00672
1.9961
1.98772
2.00704
2.10519
2.09759
2.0927
2.08929
2.08963
2.09108
2.09032
2.08767
2.08267
2.0771
2.06918
2.06084
2.05099
2.04109
2.0321
2.02567
2.01887
2.01071
1.99873
1.99034
2.00785
2.10179
2.09307
2.08685
2.08239
2.08178
2.0828
2.08217
2.07988
2.07563
2.07143
2.06545
2.05858
2.05037
2.04166
2.03338
2.0271
2.02106
2.01306
2.00084
1.99266
2.00824
2.09812
2.08875
2.08153
2.0764
2.07429
2.07481
2.07401
2.07221
2.06931
2.06678
2.0624
2.05621
2.04877
2.04066
2.03264
2.02634
2.0209
2.01367
2.00261
1.99476
2.00808
2.09423
2.08472
2.07693
2.07109
2.06753
2.06703
2.06581
2.06502
2.06382
2.06243
2.05882
2.05255
2.04529
2.03727
2.0299
2.02411
2.01991
2.01389
2.00415
1.99605
2.00687
2.09017
2.08094
2.07301
2.06639
2.06145
2.05963
2.05889
2.05912
2.05896
2.0579
2.05406
2.04717
2.03946
2.03148
2.02569
2.02108
2.01846
2.01397
2.00527
1.99604
2.00475
2.08599
2.07737
2.06969
2.06243
2.05637
2.05377
2.05321
2.05345
2.05369
2.0522
2.04765
2.03964
2.03174
2.02482
2.02125
2.01832
2.017
2.01378
2.00582
1.99532
2.00146
2.08175
2.07398
2.06678
2.05927
2.05256
2.0493
2.04786
2.04793
2.04757
2.04525
2.0394
2.03065
2.02388
2.01851
2.01713
2.01589
2.0152
2.01257
2.00548
1.99379
1.99765
2.07746
2.07072
2.06422
2.05692
2.05004
2.04579
2.04305
2.04162
2.03976
2.03616
2.03005
2.02199
2.01582
2.01215
2.01268
2.01286
2.01249
2.00971
2.0041
1.99145
1.99384
2.07337
2.06778
2.06203
2.05496
2.04794
2.04232
2.03804
2.03476
2.03126
2.02652
2.02053
2.01362
2.00784
2.00564
2.00732
2.00912
2.00915
2.00664
2.0019
1.9889
1.99119
2.06979
2.06511
2.05983
2.05281
2.04554
2.03855
2.03266
2.02775
2.02267
2.01703
2.0113
2.00571
1.99983
1.99938
2.00176
2.00474
2.00485
2.00339
1.99904
1.98752
1.98917
2.06704
2.06282
2.05743
2.04998
2.04202
2.03418
2.02696
2.02081
2.01453
2.00803
2.00282
1.99843
1.99268
1.99312
1.99621
1.99925
1.9996
2.00026
1.99657
1.98641
1.98704
2.06465
2.06001
2.05385
2.0459
2.03741
2.02929
2.02124
2.01423
2.0075
2.00093
1.99542
1.99157
1.98681
1.98784
1.99051
1.99259
1.99421
1.99728
1.9947
1.9858
1.98426
2.06203
2.05635
2.04915
2.0407
2.03209
2.02409
2.01574
2.0083
2.00138
1.99488
1.98961
1.98557
1.98126
1.98222
1.98409
1.98617
1.98923
1.99394
1.99269
1.98501
1.98002
2.05814
2.05116
2.0433
2.03485
2.0265
2.0188
2.01065
2.00326
1.99662
1.99062
1.98479
1.9799
1.97584
1.97684
1.97837
1.98036
1.98489
1.98969
1.98928
1.98304
1.97441
2.05286
2.04497
2.03702
2.02887
2.02097
2.01383
2.00632
1.99919
1.99251
1.98688
1.98063
1.97479
1.97027
1.97133
1.973
1.97527
1.98103
1.98495
1.98451
1.97988
1.96926
2.04626
2.0381
2.03077
2.02345
2.01601
2.00945
2.00243
1.99554
1.98879
1.98312
1.97663
1.96994
1.96445
1.9654
1.96792
1.97118
1.97747
1.98048
1.97958
1.97575
1.96672
2.03913
2.0314
2.0251
2.01874
2.01193
2.00581
1.99899
1.99202
1.98506
1.97886
1.97231
1.96511
1.95917
1.95989
1.96309
1.96746
1.97387
1.97617
1.97509
1.97139
1.96337
2.03262
2.02564
2.0204
2.01473
2.00853
2.00233
1.99532
1.98807
1.98118
1.97438
1.96783
1.96036
1.95429
1.95496
1.95857
1.96399
1.97042
1.97212
1.97098
1.96708
1.95972
2.02742
2.02125
2.01653
2.0108
2.00478
1.99855
1.99143
1.98402
1.97731
1.96998
1.96326
1.95613
1.95032
1.95097
1.95468
1.96067
1.96692
1.96818
1.96697
1.96303
1.95581
2.02418
2.018
2.01296
2.0068
2.00066
1.9945
1.98718
1.97976
1.97345
1.96631
1.95945
1.95285
1.94712
1.94783
1.9515
1.95734
1.96338
1.96417
1.96298
1.95913
1.95204
2.02054
2.01423
2.0089
2.00245
1.99598
1.99005
1.98271
1.9757
1.96984
1.96318
1.95636
1.95026
1.94443
1.9452
1.94873
1.95393
1.95938
1.96003
1.95883
1.95502
1.94886
2.01616
2.00988
2.0046
1.99844
1.99196
1.98609
1.97857
1.97191
1.9664
1.96022
1.95377
1.94785
1.94163
1.94226
1.94567
1.95022
1.95479
1.95594
1.95473
1.95123
1.94571
2.01158
2.00549
2.00033
1.99443
1.98794
1.9821
1.97468
1.96854
1.96325
1.95718
1.95106
1.94519
1.93832
1.93872
1.94198
1.94613
1.95015
1.95187
1.95083
1.94787
1.94277
2.00814
2.00188
1.99654
1.99065
1.9842
1.97833
1.97115
1.9655
1.96041
1.95425
1.94819
1.94221
1.93432
1.93452
1.93767
1.94189
1.94585
1.9483
1.94749
1.94486
1.94016
2.00457
1.99826
1.99269
1.98664
1.98013
1.97443
1.96775
1.96269
1.95792
1.9515
1.94526
1.939
1.93
1.93005
1.93309
1.93758
1.942
1.94523
1.9447
1.94227
1.9379
2.00031
1.99425
1.9888
1.98281
1.97632
1.97095
1.96479
1.96001
1.95551
1.94881
1.94233
1.93566
1.92571
1.92571
1.92864
1.93335
1.93833
1.94252
1.9423
1.93996
1.93584
1.99619
1.99055
1.98524
1.97937
1.97291
1.96793
1.96222
1.95741
1.95282
1.94579
1.9393
1.93226
1.92173
1.92155
1.9243
1.92918
1.93453
1.93987
1.93992
1.93795
1.93359
1.99195
1.98675
1.98166
1.97608
1.96989
1.96531
1.95987
1.95471
1.94971
1.94233
1.93595
1.92877
1.91793
1.91742
1.92007
1.925
1.93064
1.937
1.93759
1.93585
1.9314
1.98749
1.98234
1.97749
1.97244
1.96677
1.96255
1.95725
1.95163
1.94609
1.93852
1.93231
1.92526
1.91424
1.91308
1.91572
1.92076
1.92668
1.93392
1.9351
1.93349
1.92914
1.98396
1.97798
1.97287
1.96831
1.96328
1.95934
1.9541
1.948
1.94207
1.93454
1.9285
1.92179
1.91049
1.9086
1.91134
1.91644
1.92275
1.93056
1.93235
1.93084
1.92682
1.98212
1.97453
1.9685
1.96374
1.95902
1.95518
1.95008
1.94379
1.93784
1.93062
1.92473
1.91841
1.90689
1.90424
1.90697
1.91212
1.91891
1.92681
1.92934
1.92804
1.92445
1.98201
1.97269
1.96504
1.95923
1.95401
1.95001
1.94517
1.93906
1.93352
1.92691
1.92121
1.91512
1.90362
1.90021
1.90278
1.90787
1.91507
1.92279
1.92625
1.92526
1.92203
2.37746
2.36769
2.33997
2.31527
2.29744
2.2815
2.27227
2.2663
2.26044
2.25411
2.24757
2.24139
2.23253
2.21965
2.20082
2.17656
2.15214
2.12927
2.10595
2.07153
2.03478
2.00007
1.9675
1.93978
1.91554
1.8906
1.86334
1.83771
1.81337
1.79032
1.76912
1.75012
1.73214
1.71564
1.70175
1.6933
1.68679
1.6759
1.66785
1.66233
1.6571
1.65373
1.65354
1.65429
1.6563
1.65931
1.66292
1.66568
1.66653
1.66678
1.66717
1.66859
1.67253
1.67921
1.68722
1.6942
1.70293
1.71329
1.72195
1.72888
1.73528
1.74233
1.7484
1.75147
1.75312
1.7547
1.75603
1.75705
1.75851
1.76103
1.76461
1.76871
1.7724
1.77506
1.77707
1.77901
1.78121
1.78393
1.78782
1.79319
1.79959
1.8068
1.81458
1.82186
1.82752
1.83185
1.83629
1.84259
1.85188
1.86411
1.87867
1.89255
1.90222
1.90677
1.90731
1.90687
1.90813
1.91598
1.92978
1.94442
1.95826
1.96899
1.97581
1.97727
1.97174
1.96389
1.96462
1.97037
1.97645
1.98055
1.98298
1.98374
1.98352
1.98115
1.97728
1.97469
1.97195
1.96921
1.96598
1.96071
1.95479
1.94789
1.93864
1.93093
1.92597
1.92139
1.91637
1.91148
1.90774
1.90295
1.89615
1.88809
1.87992
1.87272
1.8669
1.8629
1.86011
1.85598
1.84841
1.84103
1.83358
1.82533
1.8163
1.80737
1.7996
1.79405
1.79267
1.79234
1.78832
1.78233
1.77743
1.7728
1.76744
1.76129
1.75543
1.75012
1.74494
1.74541
1.75664
1.79737
1.86635
1.90367
1.90341
1.9007
1.89693
1.89418
1.8862
1.87774
1.87174
1.867
1.86258
1.85858
1.85476
1.85029
1.84515
1.84152
1.8406
1.83759
1.83115
1.82408
1.81595
1.80628
1.79648
1.78718
1.77905
1.77271
1.76847
1.76593
1.76402
1.76147
1.75733
1.75268
1.75006
1.74858
1.74567
1.74341
1.74274
1.74218
1.741
1.73815
1.73237
1.72364
1.71544
1.7107
1.71051
1.71151
1.71359
1.71703
1.72196
1.72785
1.73532
1.7434
1.74902
1.75438
1.76122
1.7695
1.77852
1.78778
1.7971
1.80649
1.81628
1.82748
1.84183
1.858
1.87362
1.8929
1.91873
1.95303
1.99731
2.05216
2.37425
2.35917
2.33622
2.31099
2.29698
2.28443
2.27495
2.26858
2.26399
2.26078
2.25598
2.24905
2.23881
2.22447
2.20707
2.1845
2.15628
2.12267
2.09113
2.06301
2.02774
1.99187
1.95872
1.92941
1.90383
1.87925
1.85345
1.82843
1.80458
1.7818
1.76053
1.74174
1.72568
1.70986
1.69548
1.6868
1.67962
1.66808
1.65988
1.65441
1.64918
1.64548
1.64512
1.64576
1.64777
1.65071
1.65359
1.65612
1.65765
1.65831
1.65891
1.65999
1.66237
1.66689
1.67297
1.68056
1.69028
1.70177
1.71101
1.71827
1.72507
1.73174
1.73694
1.73973
1.7414
1.7429
1.74434
1.74587
1.748
1.75095
1.75426
1.75748
1.7604
1.76295
1.7654
1.76804
1.77081
1.77365
1.77684
1.78098
1.78666
1.79384
1.80195
1.80991
1.81654
1.82186
1.82699
1.83328
1.84152
1.85159
1.86346
1.87645
1.8877
1.89536
1.89997
1.90303
1.90609
1.91079
1.91908
1.93108
1.94315
1.95231
1.95806
1.96066
1.96061
1.96113
1.9644
1.96949
1.97356
1.97596
1.97657
1.97643
1.9751
1.97044
1.96571
1.96314
1.96016
1.95688
1.95389
1.94972
1.94426
1.93882
1.93315
1.92826
1.92422
1.91993
1.91509
1.91026
1.90547
1.89884
1.89039
1.88156
1.87271
1.86422
1.85675
1.85047
1.8455
1.84175
1.83868
1.83447
1.82766
1.82031
1.81266
1.80423
1.79598
1.78933
1.7842
1.78065
1.77861
1.77451
1.76909
1.7642
1.75921
1.75368
1.74826
1.74178
1.73653
1.73771
1.74867
1.78608
1.85612
1.90023
1.8999
1.89667
1.89281
1.88939
1.88087
1.87311
1.86741
1.86286
1.85859
1.85445
1.85023
1.8451
1.83916
1.83467
1.83293
1.82938
1.82349
1.81728
1.81022
1.80188
1.79274
1.78398
1.77637
1.76965
1.76467
1.76166
1.75935
1.75671
1.75295
1.74827
1.74481
1.74268
1.7397
1.73777
1.73709
1.73652
1.73537
1.73276
1.72779
1.72052
1.71318
1.70895
1.70803
1.70846
1.71009
1.71325
1.71815
1.72401
1.73054
1.73839
1.745
1.75108
1.75868
1.76756
1.77682
1.7862
1.79562
1.80508
1.81507
1.82561
1.83681
1.85145
1.87008
1.89094
1.91736
1.95221
1.99748
2.05203
2.33585
2.32675
2.32277
2.31022
2.30211
2.29633
2.29328
2.29071
2.28779
2.28538
2.28036
2.2704
2.25662
2.23929
2.22087
2.19877
2.16995
2.13487
2.09965
2.06673
2.03376
2.00046
1.96545
1.9321
1.90108
1.87305
1.84602
1.82005
1.79528
1.77152
1.74929
1.72885
1.71095
1.69411
1.67932
1.67027
1.6622
1.64994
1.64147
1.6361
1.6312
1.62726
1.6262
1.62636
1.62721
1.62871
1.6301
1.63127
1.63191
1.63205
1.63248
1.63375
1.63589
1.6392
1.64246
1.64714
1.65585
1.66705
1.67722
1.68527
1.69209
1.69879
1.70408
1.70693
1.70818
1.70926
1.71019
1.71126
1.71347
1.71711
1.72099
1.72439
1.72694
1.72855
1.73
1.73215
1.7353
1.73914
1.74342
1.74785
1.75261
1.75804
1.76374
1.76996
1.77717
1.78412
1.79085
1.79883
1.80859
1.81914
1.82911
1.83787
1.84582
1.854
1.86224
1.8705
1.87921
1.8881
1.89665
1.90438
1.91036
1.91446
1.9168
1.91754
1.92092
1.92849
1.93661
1.94489
1.95212
1.95663
1.95812
1.95793
1.95356
1.94445
1.93885
1.93565
1.93222
1.92827
1.92387
1.91924
1.91403
1.90917
1.90533
1.90165
1.89812
1.89527
1.89285
1.89029
1.88632
1.88007
1.87245
1.86456
1.85587
1.84656
1.83674
1.82731
1.81945
1.81321
1.81045
1.80732
1.80145
1.79436
1.788
1.78248
1.77619
1.7693
1.76325
1.75765
1.75311
1.75
1.74466
1.73953
1.73532
1.73098
1.72615
1.72045
1.71383
1.71382
1.72217
1.75633
1.82878
1.87982
1.87921
1.87533
1.87228
1.86838
1.86004
1.8532
1.84787
1.84369
1.83999
1.83626
1.8324
1.82788
1.8228
1.81911
1.81553
1.81041
1.80481
1.7989
1.79284
1.78536
1.77651
1.76739
1.76076
1.75549
1.7496
1.74625
1.74401
1.74175
1.73888
1.73498
1.73159
1.72889
1.72549
1.72401
1.72341
1.72248
1.72046
1.71737
1.71285
1.70651
1.70026
1.69797
1.69768
1.69774
1.69857
1.70133
1.70635
1.71139
1.71703
1.72477
1.73191
1.73831
1.74678
1.75685
1.76726
1.77799
1.78849
1.79798
1.80735
1.81697
1.82689
1.84006
1.85728
1.87791
1.90481
1.94265
1.99033
2.04399
2.30893
2.29546
2.29436
2.29391
2.29427
2.29662
2.29878
2.29925
2.29819
2.29504
2.28869
2.27585
2.25859
2.23659
2.21149
2.1855
2.1566
2.12432
2.09055
2.05431
2.01646
1.98193
1.94824
1.91364
1.88022
1.85071
1.82286
1.79616
1.77142
1.74805
1.7259
1.70547
1.6871
1.66996
1.65519
1.64523
1.63609
1.62359
1.61496
1.60926
1.6043
1.60021
1.5981
1.59752
1.59755
1.59758
1.59743
1.59697
1.59606
1.59474
1.59437
1.5949
1.59667
1.59901
1.60105
1.60478
1.61188
1.62142
1.63055
1.63791
1.64366
1.6491
1.65433
1.6577
1.65882
1.65923
1.6596
1.66031
1.6623
1.66592
1.66995
1.67315
1.67507
1.67586
1.6764
1.67763
1.68001
1.68331
1.68726
1.69177
1.69696
1.70263
1.70801
1.71244
1.71663
1.72162
1.72795
1.73611
1.74624
1.75777
1.76951
1.77953
1.78652
1.79173
1.79732
1.8046
1.81367
1.82395
1.83473
1.84511
1.85355
1.85782
1.85837
1.85897
1.86295
1.86986
1.87747
1.88622
1.89525
1.90149
1.90415
1.90428
1.90079
1.89477
1.8924
1.89111
1.88949
1.88729
1.88397
1.87881
1.87269
1.86622
1.86018
1.85462
1.84949
1.84542
1.84269
1.83982
1.83494
1.82839
1.82163
1.81493
1.80798
1.80072
1.79368
1.78686
1.78011
1.77447
1.77004
1.76453
1.75655
1.74865
1.74157
1.73537
1.72903
1.72266
1.7166
1.71076
1.70674
1.70352
1.69795
1.69281
1.68922
1.68594
1.68257
1.6791
1.67392
1.67289
1.67817
1.70753
1.77713
1.83879
1.84102
1.83838
1.83624
1.83158
1.82293
1.81613
1.81089
1.80652
1.80243
1.79822
1.79434
1.7903
1.78638
1.78427
1.78127
1.77717
1.77299
1.7683
1.76312
1.75633
1.74777
1.73833
1.73077
1.72421
1.71771
1.71368
1.71099
1.70885
1.70665
1.70374
1.70135
1.69902
1.69621
1.69574
1.69572
1.69558
1.69452
1.69187
1.68759
1.68173
1.67671
1.67558
1.67567
1.67592
1.67702
1.6805
1.68602
1.69118
1.69675
1.70342
1.7098
1.71626
1.72447
1.73361
1.74345
1.75471
1.76669
1.77791
1.78892
1.79976
1.80956
1.82062
1.8361
1.85712
1.88569
1.92389
1.97008
2.02106
2.29478
2.27841
2.27621
2.28112
2.28743
2.29509
2.30066
2.3008
2.29893
2.2934
2.28414
2.26826
2.24532
2.21704
2.1842
2.1514
2.12033
2.08842
2.05433
2.01732
1.97661
1.94012
1.90784
1.87503
1.84153
1.81299
1.78826
1.76402
1.74176
1.72041
1.6995
1.68057
1.66286
1.64649
1.63253
1.62256
1.61279
1.60052
1.59213
1.58608
1.58076
1.57662
1.57406
1.57235
1.57098
1.56974
1.56843
1.56702
1.56552
1.5643
1.56313
1.56178
1.56134
1.56132
1.56204
1.56515
1.57136
1.5797
1.58912
1.59696
1.60166
1.60553
1.60965
1.61137
1.61129
1.61088
1.6103
1.61023
1.61118
1.61366
1.61634
1.61865
1.61962
1.61959
1.61966
1.6204
1.62202
1.62428
1.62719
1.63054
1.63404
1.63769
1.64143
1.64509
1.64866
1.6527
1.65788
1.66442
1.67223
1.68116
1.69074
1.70015
1.7085
1.71549
1.72165
1.72772
1.73406
1.74085
1.74837
1.75642
1.76383
1.76956
1.77461
1.78082
1.78824
1.79603
1.80377
1.81134
1.81784
1.82103
1.82122
1.81989
1.81618
1.81407
1.8141
1.81418
1.81398
1.81361
1.81306
1.81032
1.80583
1.8009
1.79572
1.79043
1.78524
1.78031
1.77554
1.77041
1.76455
1.75821
1.75155
1.74478
1.73823
1.73216
1.72648
1.72128
1.71741
1.71417
1.71033
1.70447
1.69694
1.68956
1.68217
1.67471
1.66743
1.66054
1.65402
1.64858
1.64601
1.64287
1.6372
1.63221
1.62844
1.625
1.62209
1.61985
1.61663
1.61632
1.61996
1.64496
1.70914
1.78099
1.78839
1.78694
1.78363
1.77702
1.76753
1.76109
1.75629
1.7529
1.74971
1.74635
1.74336
1.74005
1.73724
1.73505
1.73188
1.72837
1.72473
1.72095
1.71679
1.71142
1.70468
1.69704
1.69059
1.68356
1.67752
1.6733
1.66982
1.6669
1.66491
1.66269
1.66024
1.65706
1.65518
1.65476
1.65437
1.6541
1.65347
1.65181
1.64892
1.64439
1.64167
1.64168
1.64214
1.64287
1.6446
1.64855
1.6537
1.65923
1.66569
1.6725
1.67883
1.68576
1.69359
1.70126
1.70921
1.71859
1.72962
1.7415
1.75408
1.76722
1.78005
1.79355
1.81037
1.83259
1.86124
1.89716
1.9394
1.98666
2.30574
2.29355
2.28409
2.28439
2.28572
2.28934
2.29171
2.29175
2.28883
2.27978
2.26488
2.24393
2.21503
2.18152
2.14361
2.10419
2.06596
2.02885
1.99298
1.95589
1.91575
1.87755
1.84749
1.81904
1.78817
1.76289
1.74534
1.72578
1.70633
1.68931
1.67177
1.65573
1.64103
1.62702
1.61465
1.60577
1.59615
1.58501
1.57754
1.57176
1.56641
1.56231
1.55973
1.55758
1.55558
1.55383
1.55212
1.55042
1.54865
1.54616
1.5423
1.5382
1.53626
1.53607
1.53668
1.53906
1.5444
1.55243
1.56222
1.57001
1.573
1.57507
1.57715
1.57728
1.57666
1.57527
1.57399
1.57394
1.575
1.57674
1.57734
1.5774
1.57709
1.57615
1.57542
1.57541
1.57577
1.57655
1.57768
1.57911
1.58071
1.58251
1.58455
1.58686
1.58953
1.59297
1.59749
1.60284
1.6085
1.61432
1.62048
1.62689
1.63302
1.6385
1.64355
1.64854
1.65366
1.659
1.66455
1.67017
1.67585
1.68196
1.68902
1.69668
1.70418
1.71122
1.71789
1.72417
1.72899
1.73119
1.73157
1.73132
1.73122
1.73144
1.73134
1.73134
1.73128
1.73097
1.73028
1.72812
1.72443
1.71998
1.71561
1.71128
1.70688
1.70211
1.6972
1.69267
1.68789
1.68249
1.67693
1.67129
1.66591
1.66113
1.6566
1.65293
1.65041
1.64723
1.64256
1.63641
1.62961
1.62276
1.61566
1.60835
1.60116
1.59493
1.58946
1.58592
1.58426
1.58073
1.57552
1.57123
1.56747
1.56436
1.56145
1.55936
1.55677
1.55615
1.55837
1.57706
1.6343
1.71452
1.73308
1.73239
1.72919
1.72047
1.70877
1.70131
1.69628
1.69315
1.69105
1.68905
1.68737
1.68557
1.6843
1.68248
1.67951
1.6762
1.67262
1.6686
1.66458
1.66011
1.65486
1.64914
1.64357
1.63795
1.63314
1.6292
1.62552
1.62207
1.61975
1.61759
1.61513
1.61245
1.61088
1.60998
1.60923
1.60886
1.60844
1.60783
1.60637
1.60417
1.60373
1.60421
1.60553
1.60726
1.61012
1.61465
1.61953
1.62416
1.62952
1.63548
1.64133
1.64744
1.65385
1.66036
1.66757
1.67606
1.68597
1.69718
1.70956
1.72306
1.73758
1.75374
1.77306
1.79666
1.82503
1.85878
1.89778
1.94182
2.32976
2.32492
2.30868
2.30697
2.30003
2.29238
2.2869
2.28192
2.27236
2.25612
2.23281
2.20437
2.17161
2.13495
2.09327
2.05068
2.00819
1.96715
1.93058
1.8949
1.85782
1.82054
1.79122
1.76558
1.74047
1.72237
1.71014
1.69157
1.67539
1.66288
1.64927
1.63603
1.62435
1.61323
1.60292
1.59468
1.58488
1.57606
1.56985
1.56442
1.5593
1.55517
1.55232
1.54962
1.54708
1.54511
1.54321
1.54108
1.53862
1.53517
1.53036
1.52663
1.52554
1.52549
1.526
1.52794
1.53193
1.53835
1.54693
1.55383
1.55585
1.55657
1.55755
1.55773
1.55722
1.55584
1.55433
1.55445
1.55514
1.55504
1.55357
1.55119
1.54895
1.54676
1.54553
1.54544
1.54548
1.54554
1.5457
1.54605
1.5466
1.54733
1.54796
1.54846
1.54921
1.55068
1.55293
1.55564
1.55858
1.56185
1.56573
1.57
1.57391
1.57708
1.5799
1.58293
1.58649
1.59061
1.59523
1.60032
1.60593
1.61219
1.61897
1.62545
1.63065
1.63427
1.63692
1.63955
1.64216
1.64411
1.64585
1.64823
1.65078
1.65287
1.65385
1.65376
1.65383
1.65364
1.65278
1.65092
1.64763
1.64328
1.63943
1.63583
1.63165
1.62686
1.62216
1.6179
1.61427
1.61037
1.60641
1.60264
1.59909
1.59603
1.59414
1.59294
1.5912
1.5874
1.58156
1.57516
1.56805
1.56044
1.5529
1.54621
1.54071
1.53613
1.53403
1.53357
1.53244
1.52873
1.52384
1.51856
1.51357
1.51027
1.50787
1.50611
1.50434
1.50433
1.5065
1.5196
1.56968
1.6573
1.68259
1.68144
1.67747
1.66808
1.65529
1.64666
1.64135
1.63879
1.63751
1.63696
1.63666
1.63619
1.63517
1.63334
1.63073
1.62753
1.62402
1.62044
1.61681
1.61308
1.60945
1.60553
1.60139
1.59755
1.59369
1.58966
1.58568
1.58218
1.57902
1.57608
1.57328
1.57098
1.56948
1.56826
1.56753
1.56732
1.56745
1.56809
1.56824
1.56825
1.56876
1.57021
1.57228
1.57491
1.57909
1.58446
1.58921
1.59324
1.5973
1.60144
1.60505
1.60838
1.61196
1.61649
1.62239
1.62994
1.63935
1.65057
1.66341
1.67751
1.69251
1.70869
1.72739
1.74957
1.77554
1.80609
1.84179
1.88252
2.36396
2.36548
2.34551
2.34534
2.33228
2.30715
2.28893
2.26974
2.24766
2.22208
2.19085
2.15469
2.1165
2.07733
2.03517
1.99328
1.95168
1.90924
1.87157
1.8371
1.80358
1.76951
1.74231
1.7213
1.70527
1.69562
1.68123
1.66457
1.6526
1.64306
1.63164
1.62015
1.61052
1.60174
1.59382
1.58613
1.5768
1.56981
1.56468
1.55976
1.55509
1.55117
1.54799
1.54472
1.54162
1.53937
1.53736
1.53504
1.53239
1.52888
1.52414
1.52162
1.52075
1.52044
1.52069
1.52175
1.52432
1.52948
1.53744
1.5449
1.54722
1.5478
1.54859
1.54891
1.54858
1.54742
1.546
1.54532
1.54436
1.54193
1.5385
1.5351
1.53232
1.53024
1.5298
1.53019
1.53045
1.53032
1.52998
1.52922
1.52765
1.52545
1.52369
1.52264
1.52249
1.52287
1.52398
1.52542
1.52709
1.52936
1.53215
1.53453
1.53587
1.5365
1.53715
1.53833
1.54021
1.5427
1.54584
1.54978
1.55446
1.55954
1.56469
1.56877
1.57018
1.5702
1.57042
1.5718
1.5741
1.57722
1.58062
1.58376
1.58723
1.58985
1.59119
1.59082
1.58895
1.58759
1.58621
1.58395
1.58057
1.57699
1.57386
1.57082
1.56777
1.56479
1.56186
1.55924
1.55753
1.55594