/*--------------------------------*- C++ -*----------------------------------*\
  =========                 |
  \\      /  F ield         | OpenFOAM: The Open Source CFD Toolbox
   \\    /   O peration     | Website:  https://openfoam.org
    \\  /    A nd           | Version:  7
     \\/     M anipulation  |
\*---------------------------------------------------------------------------*/
FoamFile
{
    version     2.0;
    format      ascii;
    class       volScalarField;
    location    "2.3";
    object      T;
}
// * * * * * * * * * * * * * * * * * * * * * * * * * * * * * * * * * * * * * //

dimensions      [0 0 0 1 0 0 0];

internalField   nonuniform List<scalar> 
16192
(
1
1
1
1
1
1
1
1
1
1
1
1
1
1
1
1
1
1
1
1
1
1
1
1
1
1
1
1
1
1
1
1
1
1
1
1
1
1
1
1
1
1
1
1
1
1
1
1
1
1
1
1
1
1
1
1
1
1
1
1
1
1
1
1
1
1
1
1
1
1
1
1
1
1
1
1
1
1
1
1
1
1
1
1
1
1
1
1
1
1
1
1
1
1
1
1
1
1
1
1
1
1
1
1
1
1
1
1
1
1
1
1
1
1
1
1
1
1
1
1
1
1
1
1
1
1
1
1
1
1
1
1
1
1
1
1
1
1
1
1
1
1
1
1.2949
2.47207
2.69296
2.69152
2.69359
2.69723
2.70312
2.70984
2.71584
2.72007
2.72284
2.72501
2.72736
2.7304
2.73427
2.73863
2.7431
2.7473
2.7509
2.75377
2.7561
2.7583
2.76073
2.76352
2.76647
2.76929
2.77175
2.7739
2.77594
2.77808
2.78035
2.78267
2.7849
2.78699
2.78903
2.79109
2.79316
2.79512
2.79685
2.79825
2.79929
2.79999
2.80047
2.80092
2.80153
2.80246
2.80351
2.8044
2.80482
1
1
1
1
1
1
1
1
1
1
1
1
1
1
1
1
1
1
1
1
1
1
1
1
1
1
1
1
1
1
1
1
1
1
1
1
1
1
1
1
1
1
1
1
1
1
1
1
1
1
1
1
1
1
1
1
1
1
1
1
1
1
1
1
1
1
1
1
1
1
1
1
1
1
1
1
1
1
1
1
1
1
1
1
1
1
1
1
1
1
1
1
1
1
1
1
1
1
1
1
1
1
1
1
1
1
1
1
1
1
1
1
1
1
1
1
1
1
1
1
1
1
1
1
1
1
1
1
1
1
1
1
1
1
1
1
1
1
1
1
1
1
1
1.28811
2.46821
2.69264
2.69161
2.6936
2.69751
2.7035
2.71008
2.71587
2.72001
2.72277
2.72496
2.7273
2.73032
2.73417
2.73853
2.74302
2.74721
2.75077
2.75358
2.75589
2.75813
2.76065
2.76352
2.76654
2.76935
2.77175
2.77381
2.77577
2.77787
2.78014
2.78248
2.78473
2.78685
2.78889
2.79095
2.79303
2.79499
2.79671
2.7981
2.79911
2.79978
2.80026
2.8007
2.80134
2.80227
2.80332
2.80418
2.8046
1
1
1
1
1
1
1
1
1
1
1
1
1
1
1
1
1
1
1
1
1
1
1
1
1
1
1
1
1
1
1
1
1
1
1
1
1
1
1
1
1
1
1
1
1
1
1
1
1
1
1
1
1
1
1
1
1
1
1
1
1
1
1
1
1
1
1
1
1
1
1
1
1
1
1
1
1
1
1
1
1
1
1
1
1
1
1
1
1
1
1
1
1
1
1
1
1
1
1
1
1
1
1
1
1
1
1
1
1
1
1
1
1
1
1
1
1
1
1
1
1
1
1
1
1
1
1
1
1
1
1
1
1
1
1
1
1
1
1
1
1
1
1
1.27158
2.45883
2.69215
2.69115
2.6937
2.69809
2.70414
2.71035
2.71579
2.71981
2.72258
2.72484
2.72721
2.73021
2.73402
2.73837
2.74286
2.74703
2.75053
2.75329
2.75557
2.75784
2.76046
2.76345
2.76655
2.76939
2.77174
2.77369
2.77554
2.77754
2.77979
2.78215
2.78445
2.78661
2.78868
2.79074
2.79281
2.79478
2.79649
2.79786
2.79883
2.79945
2.79989
2.80034
2.801
2.80195
2.80298
2.8038
2.80418
1
1
1
1
1
1
1
1
1
1
1
1
1
1
1
1
1
1
1
1
1
1
1
1
1
1
1
1
1
1
1
1
1
1
1
1
1
1
1
1
1
1
1
1
1
1
1
1
1
1
1
1
1
1
1
1
1
1
1
1
1
1
1
1
1
1
1
1
1
1
1
1
1
1
1
1
1
1
1
1
1
1
1
1
1
1
1
1
1
1
1
1
1
1
1
1
1
1
1
1
1
1
1
1
1
1
1
1
1
1
1
1
1
1
1
1
1
1
1
1
1
1
1
1
1
1
1
1
1
1
1
1
1
1
1
1
1
1
1
1
1
1
1
1.24794
2.44533
2.69122
2.69089
2.69406
2.69884
2.70469
2.71046
2.71551
2.71939
2.72221
2.72458
2.72702
2.73002
2.7338
2.73809
2.74255
2.74665
2.7501
2.7528
2.75508
2.7574
2.7601
2.76321
2.76641
2.76928
2.77159
2.77343
2.77514
2.77704
2.77923
2.78161
2.78397
2.78619
2.78831
2.79039
2.79248
2.79445
2.79615
2.79749
2.79841
2.79898
2.79939
2.79984
2.80052
2.80148
2.80248
2.80325
2.80359
1
1
1
1
1
1
1
1
1
1
1
1
1
1
1
1
1
1
1
1
1
1
1
1
1
1
1
1
1
1
1
1
1
1
1
1
1
1
1
1
1
1
1
1
1
1
1
1
1
1
1
1
1
1
1
1
1
1
1
1
1
1
1
1
1
1
1
1
1
1
1
1
1
1
1
1
1
1
1
1
1
1
1
1
1
1
1
1
1
1
1
1
1
1
1
1
1
1
1
1
1
1
1
1
1
1
1
1
1
1
1
1
1
1
1
1
1
1
1
1
1
1
1
1
1
1
1
1
1
1
1
1
1
1
1
1
1
1
1
1
1
1
1
1.21856
2.42789
2.69017
2.69081
2.6946
2.69937
2.70477
2.71005
2.71471
2.71849
2.72144
2.72401
2.72661
2.72967
2.73341
2.73761
2.74198
2.746
2.7494
2.7521
2.75443
2.75682
2.75962
2.76282
2.76609
2.769
2.77128
2.77304
2.77464
2.77642
2.77855
2.78091
2.78331
2.78561
2.78779
2.78992
2.79201
2.79398
2.79568
2.79698
2.79785
2.79837
2.79876
2.79922
2.79991
2.80087
2.80184
2.80257
2.80289
1
1
1
1
1
1
1
1
1
1
1
1
1
1
1
1
1
1
1
1
1
1
1
1
1
1
1
1
1
1
1
1
1
1
1
1
1
1
1
1
1
1
1
1
1
1
1
1
1
1
1
1
1
1
1
1
1
1
1
1
1
1
1
1
1
1
1
1
1
1
1
1
1
1
1
1
1
1
1
1
1
1
1
1
1
1
1
1
1
1
1
1
1
1
1
1
1
1
1
1
1
1
1
1
1
1
1
1
1
1
1
1
1
1
1
1
1
1
1
1
1
1
1
1
1
1
1
1
1
1
1
1
1
1
1
1
1
1
1
1
1
1
1
1.18292
2.40524
2.68895
2.69074
2.695
2.69959
2.7045
2.70919
2.71351
2.71728
2.72047
2.72336
2.72621
2.72936
2.73305
2.73711
2.74133
2.74522
2.74856
2.75128
2.75369
2.75619
2.75907
2.76232
2.76561
2.76852
2.77079
2.77251
2.77403
2.77571
2.77774
2.78007
2.78249
2.78485
2.78711
2.7893
2.79143
2.7934
2.79507
2.79635
2.79717
2.79765
2.79802
2.79847
2.79915
2.80008
2.80101
2.80171
2.80204
1
1
1
1
1
1
1
1
1
1
1
1
1
1
1
1
1
1
1
1
1
1
1
1
1
1
1
1
1
1
1
1
1
1
1
1
1
1
1
1
1
1
1
1
1
1
1
1
1
1
1
1
1
1
1
1
1
1
1
1
1
1
1
1
1
1
1
1
1
1
1
1
1
1
1
1
1
1
1
1
1
1
1
1
1
1
1
1
1
1
1
1
1
1
1
1
1
1
1
1
1
1
1
1
1
1
1
1
1
1
1
1
1
1
1
1
1
1
1
1
1
1
1
1
1
1
1
1
1
1
1
1
1
1
1
1
1
1
1
1
1
1
1
1.13761
2.37412
2.68673
2.69018
2.69502
2.69943
2.70381
2.70803
2.71209
2.7159
2.71934
2.72258
2.72571
2.72897
2.7326
2.73649
2.74051
2.74425
2.74753
2.75029
2.75281
2.75543
2.75839
2.76165
2.76492
2.76781
2.77007
2.77179
2.77328
2.77489
2.77683
2.7791
2.78152
2.78393
2.78626
2.78851
2.79068
2.79266
2.79431
2.79554
2.79633
2.79679
2.79714
2.79758
2.79823
2.79912
2.80003
2.80071
2.80107
1
1
1
1
1
1
1
1
1
1
1
1
1
1
1
1
1
1
1
1
1
1
1
1
1
1
1
1
1
1
1
1
1
1
1
1
1
1
1
1
1
1
1
1
1
1
1
1
1
1
1
1
1
1
1
1
1
1
1
1
1
1
1
1
1
1
1
1
1
1
1
1
1
1
1
1
1
1
1
1
1
1
1
1
1
1
1
1
1
1
1
1
1
1
1
1
1
1
1
1
1
1
1
1
1
1
1
1
1
1
1
1
1
1
1
1
1
1
1
1
1
1
1
1
1
1
1
1
1
1
1
1
1
1
1
1
1
1
1
1
1
1
1
1.08361
2.34037
2.68537
2.68953
2.69462
2.69888
2.7028
2.70665
2.71051
2.71437
2.71807
2.72166
2.72508
2.72848
2.73204
2.73575
2.73956
2.74312
2.74632
2.74911
2.75174
2.7545
2.75754
2.76082
2.76406
2.76691
2.76917
2.7709
2.77239
2.77396
2.77584
2.77805
2.78044
2.78287
2.78526
2.78757
2.78978
2.79176
2.79339
2.79459
2.79535
2.79579
2.79612
2.79652
2.79713
2.79797
2.79886
2.79957
2.79997
1
1
1
1
1
1
1
1
1
1
1
1
1
1
1
1
1
1
1
1
1
1
1
1
1
1
1
1
1
1
1
1
1
1
1
1
1
1
1
1
1
1
1
1
1
1
1
1
1
1
1
1
1
1
1
1
1
1
1
1
1
1
1
1
1
1
1
1
1
1
1
1
1
1
1
1
1
1
1
1
1
1
1
1
1
1
1
1
1
1
1
1
1
1
1
1
1
1
1
1
1
1
1
1
1
1
1
1
1
1
1
1
1
1
1
1
1
1
1
1
1
1
1
1
1
1
1
1
1
1
1
1
1
1
1
1
1
1
1
1
1
1
1
1.01967
2.30622
2.68494
2.68914
2.69347
2.69776
2.70157
2.70531
2.7091
2.71301
2.71694
2.7208
2.72446
2.72795
2.73145
2.73497
2.73856
2.7419
2.74498
2.74775
2.75048
2.75337
2.75652
2.75982
2.76301
2.76579
2.76802
2.76977
2.77128
2.77285
2.7747
2.77686
2.77922
2.78165
2.78407
2.78644
2.78868
2.79067
2.79229
2.79347
2.79422
2.79464
2.79494
2.79529
2.79584
2.79664
2.79756
2.79831
2.79878
1
1
1
1
1
1
1
1
1
1
1
1
1
1
1
1
1
1
1
1
1
1
1
1
1
1
1
1
1
1
1
1
1
1
1
1
1
1
1
1
1
1
1
1
1
1
1
1
1
1
1
1
1
1
1
1
1
1
1
1
1
1
1
1
1
1
1
1
1
1
1
1
1
1
1
1
1
1
1
1
1
1
1
1
1
1
1
1
1
1
1
1
1
1
1
1
1
1
1
1
1
1
1
1
1
1
1
1
1
1
1
1
1
1
1
1
1
1
1
1
1
1
1
1
1
1
1
1
1
1
1
1
1
1
1
1
1
1
1
1
1
1
1
1.00043
2.26363
2.68505
2.6895
2.69286
2.69691
2.70064
2.70442
2.70828
2.71227
2.71627
2.72018
2.72384
2.7273
2.73068
2.73404
2.73744
2.74062
2.74359
2.74634
2.74912
2.75211
2.75535
2.75866
2.7618
2.76452
2.76671
2.76847
2.77002
2.77162
2.77346
2.77557
2.77788
2.78028
2.78271
2.78511
2.78737
2.78938
2.79101
2.7922
2.79295
2.79334
2.79358
2.79386
2.79435
2.79513
2.79608
2.79691
2.79745
1
1
1
1
1
1
1
1
1
1
1
1
1
1
1
1
1
1
1
1
1
1
1
1
1
1
1
1
1
1
1
1
1
1
1
1
1
1
1
1
1
1
1
1
1
1
1
1
1
1
1
1
1
1
1
1
1
1
1
1
1
1
1
1
1
1
1
1
1
1
1
1
1
1
1
1
1
1
1
1
1
1
1
1
1
1
1
1
1
1
1
1
1
1
1
1
1
1
1
1
1
1
1
1
1
1
1
1
1
1
1
1
1
1
1
1
1
1
1
1
1
1
1
1
1
1
1
1
1
1
1
1
1
1
1
1
1
1
1
1
1
1
1
1
2.21076
2.68393
2.68988
2.69267
2.69632
2.69997
2.70383
2.70787
2.71201
2.71612
2.72002
2.72361
2.72695
2.73019
2.73337
2.73657
2.73952
2.74229
2.74489
2.74763
2.75067
2.75397
2.75731
2.76042
2.76309
2.76524
2.767
2.76857
2.77019
2.77202
2.77408
2.77634
2.77871
2.78114
2.78356
2.78585
2.78789
2.78955
2.79077
2.79151
2.79187
2.79204
2.79224
2.79267
2.79345
2.79446
2.79537
2.79599
1
1
1
1
1
1
1
1
1
1
1
1
1
1
1
1
1
1
1
1
1
1
1
1
1
1
1
1
1
1
1
1
1
1
1
1
1
1
1
1
1
1
1
1
1
1
1
1
1
1
1
1
1
1
1
1
1
1
1
1
1
1
1
1
1
1
1
1
1
1
1
1
1
1
1
1
1
1
1
1
1
1
1
1
1
1
1
1
1
1
1
1
1
1
1
1
1
1
1
1
1
1
1
1
1
1
1
1
1
1
1
1
1
1
1
1
1
1
1
1
1
1
1
1
1
1
1
1
1
1
1
1
1
1
1
1
1
1
1
1
1
1
1
1
2.14811
2.67948
2.68895
2.69194
2.6955
2.69915
2.70315
2.70742
2.7118
2.71605
2.71996
2.72346
2.72667
2.72974
2.73276
2.73577
2.73852
2.74111
2.74358
2.74625
2.74928
2.75257
2.75589
2.75891
2.76149
2.7636
2.76535
2.76694
2.76857
2.77038
2.77241
2.77461
2.77695
2.77937
2.78179
2.78411
2.78618
2.78788
2.78913
2.78988
2.7902
2.7903
2.79043
2.7908
2.79159
2.79266
2.79365
2.79433
1
1
1
1
1
1
1
1
1
1
1
1
1
1
1
1
1
1
1
1
1
1
1
1
1
1
1
1
1
1
1
1
1
1
1
1
1
1
1
1
1
1
1
1
1
1
1
1
1
1
1
1
1
1
1
1
1
1
1
1
1
1
1
1
1
1
1
1
1
1
1
1
1
1
1
1
1
1
1
1
1
1
1
1
1
1
1
1
1
1
1
1
1
1
1
1
1
1
1
1
1
1
1
1
1
1
1
1
1
1
1
1
1
1
1
1
1
1
1
1
1
1
1
1
1
1
1
1
1
1
1
1
1
1
1
1
1
1
1
1
1
1
1
1
2.07662
2.67131
2.68657
2.68995
2.69381
2.69767
2.70196
2.7066
2.71129
2.71571
2.71968
2.72312
2.72625
2.72926
2.73221
2.73511
2.73771
2.74014
2.74244
2.74499
2.74794
2.75119
2.75443
2.75735
2.75985
2.76192
2.76366
2.76525
2.76686
2.76861
2.77055
2.77269
2.77498
2.77738
2.7798
2.78213
2.78424
2.78599
2.78728
2.78803
2.78832
2.78834
2.78842
2.78876
2.78956
2.79069
2.79174
2.79247
1
1
1
1
1
1
1
1
1
1
1
1
1
1
1
1
1
1
1
1
1
1
1
1
1
1
1
1
1
1
1
1
1
1
1
1
1
1
1
1
1
1
1
1
1
1
1
1
1
1
1
1
1
1
1
1
1
1
1
1
1
1
1
1
1
1
1
1
1
1
1
1
1
1
1
1
1
1
1
1
1
1
1
1
1
1
1
1
1
1
1
1
1
1
1
1
1
1
1
1
1
1
1
1
1
1
1
1
1
1
1
1
1
1
1
1
1
1
1
1
1
1
1
1
1
1
1
1
1
1
1
1
1
1
1
1
1
1
1
1
1
1
1
1
1.99485
2.65938
2.6827
2.68647
2.69083
2.69512
2.69992
2.7051
2.71018
2.71481
2.71886
2.7223
2.72545
2.7285
2.73152
2.73442
2.73694
2.73924
2.7414
2.7438
2.74665
2.74979
2.75293
2.75574
2.75814
2.76016
2.76188
2.76344
2.76499
2.76665
2.7685
2.77055
2.7728
2.77517
2.77759
2.77993
2.78207
2.78386
2.78518
2.78594
2.7862
2.78617
2.7862
2.78653
2.78735
2.78852
2.7896
2.79034
1
1
1
1
1
1
1
1
1
1
1
1
1
1
1
1
1
1
1
1
1
1
1
1
1
1
1
1
1
1
1
1
1
1
1
1
1
1
1
1
1
1
1
1
1
1
1
1
1
1
1
1
1
1
1
1
1
1
1
1
1
1
1
1
1
1
1
1
1
1
1
1
1
1
1
1
1
1
1
1
1
1
1
1
1
1
1
1
1
1
1
1
1
1
1
1
1
1
1
1
1
1
1
1
1
1
1
1
1
1
1
1
1
1
1
1
1
1
1
1
1
1
1
1
1
1
1
1
1
1
1
1
1
1
1
1
1
1
1
1
1
1
1
1
1.90086
2.6425
2.67838
2.68221
2.68691
2.69155
2.69695
2.70278
2.70826
2.71302
2.71714
2.72064
2.72393
2.7272
2.73048
2.73355
2.73611
2.73834
2.74039
2.74265
2.74536
2.74838
2.7514
2.75408
2.75639
2.75835
2.76003
2.76153
2.76299
2.76453
2.76624
2.7682
2.77039
2.77273
2.77513
2.77748
2.77964
2.78146
2.78279
2.78356
2.7838
2.78375
2.78378
2.78411
2.78495
2.78614
2.78722
2.78794
1
1
1
1
1
1
1
1
1
1
1
1
1
1
1
1
1
1
1
1
1
1
1
1
1
1
1
1
1
1
1
1
1
1
1
1
1
1
1
1
1
1
1
1
1
1
1
1
1
1
1
1
1
1
1
1
1
1
1
1
1
1
1
1
1
1
1
1
1
1
1
1
1
1
1
1
1
1
1
1
1
1
1
1
1
1
1
1
1
1
1
1
1
1
1
1
1
1
1
1
1
1
1
1
1
1
1
1
1
1
1
1
1
1
1
1
1
1
1
1
1
1
1
1
1
1
1
1
1
1
1
1
1
1
1
1
1
1
1
1
1
1
1
1
1.79467
2.61962
2.67493
2.67809
2.68274
2.68741
2.69311
2.69938
2.70518
2.71002
2.71415
2.71773
2.72129
2.72498
2.72874
2.73217
2.73492
2.73718
2.73917
2.74132
2.74391
2.74682
2.74977
2.75239
2.75465
2.75656
2.75818
2.75958
2.76089
2.76226
2.76383
2.76567
2.76779
2.77009
2.77247
2.7748
2.77696
2.77878
2.78012
2.78089
2.78113
2.78109
2.78112
2.78148
2.78232
2.78348
2.78453
2.78521
1
1
1
1
1
1
1
1
1
1
1
1
1
1
1
1
1
1
1
1
1
1
1
1
1
1
1
1
1
1
1
1
1
1
1
1
1
1
1
1
1
1
1
1
1
1
1
1
1
1
1
1
1
1
1
1
1
1
1
1
1
1
1
1
1
1
1
1
1
1
1
1
1
1
1
1
1
1
1
1
1
1
1
1
1
1
1
1
1
1
1
1
1
1
1
1
1
1
1
1
1
1
1
1
1
1
1
1
1
1
1
1
1
1
1
1
1
1
1
1
1
1
1
1
1
1
1
1
1
1
1
1
1
1
1
1
1
1
1
1
1
1
1
1
1.67836
2.59041
2.67293
2.6743
2.67842
2.68314
2.6891
2.69553
2.70132
2.70599
2.70994
2.71353
2.71737
2.72159
2.726
2.72999
2.7331
2.73551
2.73752
2.73961
2.74214
2.74499
2.74792
2.75054
2.7528
2.7547
2.75626
2.75754
2.75868
2.75988
2.76129
2.76302
2.76504
2.76726
2.76957
2.77185
2.77398
2.77578
2.77712
2.77789
2.77815
2.77813
2.7782
2.77858
2.77943
2.78056
2.78154
2.78217
1
1
1
1
1
1
1
1
1
1
1
1
1
1
1
1
1
1
1
1
1
1
1
1
1
1
1
1
1
1
1
1
1
1
1
1
1
1
1
1
1
1
1
1
1
1
1
1
1
1
1
1
1
1
1
1
1
1
1
1
1
1
1
1
1
1
1
1
1
1
1
1
1
1
1
1
1
1
1
1
1
1
1
1
1
1
1
1
1
1
1
1
1
1
1
1
1
1
1
1
1
1
1
1
1
1
1
1
1
1
1
1
1
1
1
1
1
1
1
1
1
1
1
1
1
1
1
1
1
1
1
1
1
1
1
1
1
1
1
1
1
1
1
1
1.5447
2.54656
2.67007
2.67063
2.67409
2.67838
2.68427
2.69091
2.69679
2.70126
2.705
2.70851
2.7125
2.71717
2.72223
2.72687
2.73045
2.73311
2.73524
2.73734
2.73986
2.74275
2.74575
2.74844
2.75075
2.75265
2.75415
2.75532
2.75633
2.75739
2.75866
2.76026
2.76217
2.76427
2.76646
2.76865
2.77071
2.77248
2.7738
2.77458
2.77487
2.77488
2.77498
2.77539
2.77621
2.77727
2.77817
2.77873
1
1
1
1
1
1
1
1
1
1
1
1
1
1
1
1
1
1
1
1
1
1
1
1
1
1
1
1
1
1
1
1
1
1
1
1
1
1
1
1
1
1
1
1
1
1
1
1
1
1
1
1
1
1
1
1
1
1
1
1
1
1
1
1
1
1
1
1
1
1
1
1
1
1
1
1
1
1
1
1
1
1
1
1
1
1
1
1
1
1
1
1
1
1
1
1
1
1
1
1
1
1
1
1
1
1
1
1
1
1
1
1
1
1
1
1
1
1
1
1
1
1
1
1
1
1
1
1
1
1
1
1
1
1
1
1
1
1
1
1
1
1
1
1
1.38064
2.48108
2.66741
2.66672
2.67069
2.67422
2.67953
2.68586
2.69166
2.6961
2.69969
2.70308
2.70708
2.71202
2.71755
2.72276
2.72684
2.72981
2.73214
2.73435
2.73697
2.73998
2.74315
2.746
2.74842
2.75033
2.75178
2.75287
2.75378
2.75475
2.75593
2.75741
2.75917
2.76111
2.76315
2.7652
2.76714
2.76883
2.77012
2.77089
2.7712
2.77125
2.7714
2.77183
2.77263
2.77362
2.77443
2.77493
1
1
1
1
1
1
1
1
1
1
1
1
1
1
1
1
1
1
1
1
1
1
1
1
1
1
1
1
1
1
1
1
1
1
1
1
1
1
1
1
1
1
1
1
1
1
1
1
1
1
1
1
1
1
1
1
1
1
1
1
1
1
1
1
1
1
1
1
1
1
1
1
1
1
1
1
1
1
1
1
1
1
1
1
1
1
1
1
1
1
1
1
1
1
1
1
1
1
1
1
1
1
1
1
1
1
1
1
1
1
1
1
1
1
1
1
1
1
1
1
1
1
1
1
1
1
1
1
1
1
1
1
1
1
1
1
1
1
1
1
1
1
1
1
1.19932
2.40537
2.66728
2.66477
2.66804
2.67112
2.67594
2.6817
2.6871
2.69132
2.69467
2.69782
2.70163
2.70654
2.7122
2.71773
2.72223
2.72554
2.72815
2.73057
2.7334
2.73664
2.74004
2.74312
2.74565
2.74759
2.74902
2.75009
2.751
2.75195
2.75309
2.75446
2.75606
2.7578
2.75963
2.76148
2.76327
2.76485
2.76609
2.76686
2.76719
2.76728
2.76745
2.76787
2.7686
2.76948
2.77018
2.7706
1
1
1
1
1
1
1
1
1
1
1
1
1
1
1
1
1
1
1
1
1
1
1
1
1
1
1
1
1
1
1
1
1
1
1
1
1
1
1
1
1
1
1
1
1
1
1
1
1
1
1
1
1
1
1
1
1
1
1
1
1
1
1
1
1
1
1
1
1
1
1
1
1
1
1
1
1
1
1
1
1
1
1
1
1
1
1
1
1
1
1
1
1
1
1
1
1
1
1
1
1
1
1
1
1
1
1
1
1
1
1
1
1
1
1
1
1
1
1
1
1
1
1
1
1
1
1
1
1
1
1
1
1
1
1
1
1
1
1
1
1
1
1
1
1.05476
2.34255
2.66972
2.66538
2.66857
2.67164
2.67598
2.68044
2.68444
2.68787
2.69084
2.69368
2.697
2.70139
2.7067
2.71217
2.71689
2.72049
2.72339
2.72608
2.72917
2.73267
2.73631
2.73963
2.74232
2.74434
2.74582
2.74696
2.74794
2.74896
2.75009
2.75137
2.75278
2.75429
2.75588
2.7575
2.7591
2.76054
2.76169
2.76242
2.76274
2.76282
2.76298
2.76338
2.76404
2.76483
2.76545
2.76582
1
1
1
1
1
1
1
1
1
1
1
1
1
1
1
1
1
1
1
1
1
1
1
1
1
1
1
1
1
1
1
1
1
1
1
1
1
1
1
1
1
1
1
1
1
1
1
1
1
1
1
1
1
1
1
1
1
1
1
1
1
1
1
1
1
1
1
1
1
1
1
1
1
1
1
1
1
1
1
1
1
1
1
1
1
1
1
1
1
1
1
1
1
1
1
1
1
1
1
1
1
1
1
1
1
1
1
1
1
1
1
1
1
1
1
1
1
1
1
1
1
1
1
1
1
1
1
1
1
1
1
1
1
1
1
1
1
1
1
1
1
1
1
1
1.0014
2.25647
2.67067
2.66978
2.671
2.67306
2.67606
2.67967
2.68327
2.68655
2.68918
2.6914
2.69385
2.69729
2.70171
2.70663
2.71123
2.71499
2.7181
2.72104
2.72437
2.72809
2.73193
2.73547
2.73833
2.74049
2.74212
2.74342
2.74456
2.74568
2.74685
2.74804
2.74929
2.75057
2.75189
2.75327
2.75465
2.75591
2.75693
2.7576
2.75787
2.75792
2.75802
2.75833
2.75886
2.75952
2.76002
2.76033
1
1
1
1
1
1
1
1
1
1
1
1
1
1
1
1
1
1
1
1
1
1
1
1
1
1
1
1
1
1
1
1
1
1
1
1
1
1
1
1
1
1
1
1
1
1
1
1
1
1
1
1
1
1
1
1
1
1
1
1
1
1
1
1
1
1
1
1
1
1
1
1
1
1
1
1
1
1
1
1
1
1
1
1
1
1
1
1
1
1
1
1
1
1
1
1
1
1
1
1
1
1
1
1
1
1
1
1
1
1
1
1
1
1
1
1
1
1
1
1
1
1
1
1
1
1
1
1
1
1
1
1
1
1
1
1
1
1
1
1
1
1
1
1
1
2.14502
2.67162
2.67383
2.67524
2.67742
2.67922
2.68153
2.68407
2.68672
2.68907
2.69092
2.69271
2.695
2.69818
2.70209
2.70608
2.70964
2.71276
2.71581
2.71922
2.72305
2.72695
2.73063
2.73367
2.73602
2.73786
2.73939
2.74075
2.74204
2.74328
2.74444
2.74553
2.7466
2.74767
2.74878
2.74989
2.75091
2.75175
2.75228
2.75242
2.75236
2.75235
2.75254
2.75294
2.75349
2.75394
2.75423
1
1
1
1
1
1
1
1
1
1
1
1
1
1
1
1
1
1
1
1
1
1
1
1
1
1
1
1
1
1
1
1
1
1
1
1
1
1
1
1
1
1
1
1
1
1
1
1
1
1
1
1
1
1
1
1
1
1
1
1
1
1
1
1
1
1
1
1
1
1
1
1
1
1
1
1
1
1
1
1
1
1
1
1
1
1
1
1
1
1
1
1
1
1
1
1
1
1
1
1
1
1
1
1
1
1
1
1
1
1
1
1
1
1
1
1
1
1
1
1
1
1
1
1
1
1
1
1
1
1
1
1
1
1
1
1
1
1
1
1
1
1
1
1
1
2.00014
2.64849
2.67436
2.67614
2.67839
2.68019
2.68256
2.68521
2.68768
2.68973
2.69129
2.69263
2.6942
2.69635
2.69905
2.70217
2.7052
2.708
2.71084
2.71409
2.71778
2.72158
2.72524
2.72839
2.73094
2.73302
2.73483
2.73645
2.73793
2.73928
2.74046
2.74147
2.74235
2.74317
2.74399
2.7448
2.74554
2.74617
2.74648
2.74643
2.74623
2.74605
2.74604
2.74621
2.74655
2.74684
2.74703
1
1
1
1
1
1
1
1
1
1
1
1
1
1
1
1
1
1
1
1
1
1
1
1
1
1
1
1
1
1
1
1
1
1
1
1
1
1
1
1
1
1
1
1
1
1
1
1
1
1
1
1
1
1
1
1
1
1
1
1
1
1
1
1
1
1
1
1
1
1
1
1
1
1
1
1
1
1
1
1
1
1
1
1
1
1
1
1
1
1
1
1
1
1
1
1
1
1
1
1
1
1
1
1
1
1
1
1
1
1
1
1
1
1
1
1
1
1
1
1
1
1
1
1
1
1
1
1
1
1
1
1
1
1
1
1
1
1
1
1
1
1
1
1
1
1.82556
2.60223
2.66756
2.67381
2.67794
2.68035
2.68282
2.6853
2.68769
2.68988
2.69161
2.69286
2.69405
2.69569
2.69762
2.69979
2.702
2.70426
2.70665
2.70941
2.71264
2.7161
2.71955
2.72268
2.72535
2.72763
2.72969
2.73157
2.73327
2.73478
2.73604
2.73702
2.73777
2.73836
2.73888
2.73936
2.73982
2.74011
2.74005
2.73974
2.73922
2.73871
2.73841
2.73837
2.73856
2.73876
2.73892
1
1
1
1
1
1
1
1
1
1
1
1
1
1
1
1
1
1
1
1
1
1
1
1
1
1
1
1
1
1
1
1
1
1
1
1
1
1
1
1
1
1
1
1
1
1
1
1
1
1
1
1
1
1
1
1
1
1
1
1
1
1
1
1
1
1
1
1
1
1
1
1
1
1
1
1
1
1
1
1
1
1
1
1
1
1
1
1
1
1
1
1
1
1
1
1
1
1
1
1
1
1
1
1
1
1
1
1
1
1
1
1
1
1
1
1
1
1
1
1
1
1
1
1
1
1
1
1
1
1
1
1
1
1
1
1
1
1
1
1
1
1
1
1
1
1.62939
2.53045
2.65278
2.66395
2.67072
2.67495
2.67944
2.68364
2.68715
2.68974
2.69144
2.69263
2.69367
2.69501
2.6967
2.69846
2.70018
2.70176
2.70345
2.70554
2.70808
2.71094
2.71394
2.71683
2.71944
2.72179
2.72402
2.72611
2.72799
2.72967
2.73108
2.73211
2.73279
2.73317
2.73339
2.73356
2.73365
2.73348
2.73304
2.73235
2.73147
2.7306
2.7299
2.72942
2.72919
2.72904
2.72894
1
1
1
1
1
1
1
1
1
1
1
1
1
1
1
1
1
1
1
1
1
1
1
1
1
1
1
1
1
1
1
1
1
1
1
1
1
1
1
1
1
1
1
1
1
1
1
1
1
1
1
1
1
1
1
1
1
1
1
1
1
1
1
1
1
1
1
1
1
1
1
1
1
1
1
1
1
1
1
1
1
1
1
1
1
1
1
1
1
1
1
1
1
1
1
1
1
1
1
1
1
1
1
1
1
1
1
1
1
1
1
1
1
1
1
1
1
1
1
1
1
1
1
1
1
1
1
1
1
1
1
1
1
1
1
1
1
1
1
1
1
1
1
1
1
1.36876
2.43466
2.64379
2.64724
2.65679
2.66464
2.6713
2.67716
2.68269
2.68715
2.69022
2.69201
2.69316
2.69432
2.69581
2.69737
2.69877
2.70011
2.7013
2.70258
2.70425
2.70638
2.70872
2.71113
2.71344
2.7157
2.71796
2.72007
2.72209
2.72397
2.72552
2.72663
2.7273
2.72753
2.7275
2.72734
2.72697
2.72632
2.72537
2.7241
2.7226
2.72104
2.71963
2.71857
2.71796
2.71761
2.71753
1
1
1
1
1
1
1
1
1
1
1
1
1
1
1
1
1
1
1
1
1
1
1
1
1
1
1
1
1
1
1
1
1
1
1
1
1
1
1
1
1
1
1
1
1
1
1
1
1
1
1
1
1
1
1
1
1
1
1
1
1
1
1
1
1
1
1
1
1
1
1
1
1
1
1
1
1
1
1
1
1
1
1
1
1
1
1
1
1
1
1
1
1
1
1
1
1
1
1
1
1
1
1
1
1
1
1
1
1
1
1
1
1
1
1
1
1
1
1
1
1
1
1
1
1
1
1
1
1
1
1
1
1
1
1
1
1
1
1
1
1
1
1
1
1
1.08649
2.34345
2.64504
2.6404
2.64418
2.65064
2.65884
2.66697
2.67431
2.68061
2.68551
2.68889
2.6911
2.69282
2.69457
2.69621
2.69756
2.6986
2.6995
2.70029
2.70131
2.70258
2.70415
2.70589
2.70768
2.70958
2.71164
2.71359
2.71563
2.71761
2.7193
2.72054
2.72121
2.72135
2.72113
2.72063
2.71978
2.71855
2.71693
2.71492
2.71266
2.71038
2.70825
2.70637
2.7047
2.7033
2.70234
1
1
1
1
1
1
1
1
1
1
1
1
1
1
1
1
1
1
1
1
1
1
1
1
1
1
1
1
1
1
1
1
1
1
1
1
1
1
1
1
1
1
1
1
1
1
1
1
1
1
1
1
1
1
1
1
1
1
1
1
1
1
1
1
1
1
1
1
1
1
1
1
1
1
1
1
1
1
1
1
1
1
1
1
1
1
1
1
1
1
1
1
1
1
1
1
1
1
1
1
1
1
1
1
1
1
1
1
1
1
1
1
1
1
1
1
1
1
1
1
1
1
1
1
1
1
1
1
1
1
1
1
1
1
1
1
1
1
1
1
1
1
1
1
1
1.00203
2.26284
2.64155
2.63521
2.64059
2.64515
2.65078
2.65702
2.66436
2.67147
2.67759
2.68254
2.68626
2.6892
2.69182
2.6941
2.69588
2.6971
2.6979
2.69841
2.6988
2.69948
2.70033
2.7013
2.70239
2.7037
2.70529
2.70691
2.70874
2.71065
2.71242
2.71377
2.71446
2.71453
2.71418
2.71338
2.71203
2.71012
2.7077
2.70477
2.70147
2.69791
2.69418
2.69054
2.6874
2.68501
2.68419
1
1
1
1
1
1
1
1
1
1
1
1
1
1
1
1
1
1
1
1
1
1
1
1
1
1
1
1
1
1
1
1
1
1
1
1
1
1
1
1
1
1
1
1
1
1
1
1
1
1
1
1
1
1
1
1
1
1
1
1
1
1
1
1
1
1
1
1
1
1
1
1
1
1
1
1
1
1
1
1
1
1
1
1
1
1
1
1
1
1
1
1
1
1
1
1
1
1
1
1
1
1
1
1
1
1
1
1
1
1
1
1
1
1
1
1
1
1
1
1
1
1
1
1
1
1
1
1
1
1
1
1
1
1
1
1
1
1
1
1
1
1
1
1
1
1
2.1243
2.64503
2.64361
2.64465
2.64579
2.64812
2.65193
2.65661
2.66228
2.6683
2.67381
2.67863
2.68287
2.68676
2.69013
2.69283
2.69474
2.69591
2.69655
2.69674
2.69681
2.69706
2.69739
2.69773
2.69827
2.69918
2.70027
2.70164
2.70326
2.70493
2.70631
2.70702
2.70702
2.70657
2.70549
2.70364
2.701
2.69763
2.69354
2.68883
2.68369
2.6783
2.67286
2.6675
2.66138
2.65595
1
1
1
1
1
1
1
1
1
1
1
1
1
1
1
1
1
1
1
1
1
1
1
1
1
1
1
1
1
1
1
1
1
1
1
1
1
1
1
1
1
1
1
1
1
1
1
1
1
1
1
1
1
1
1
1
1
1
1
1
1
1
1
1
1
1
1
1
1
1
1
1
1
1
1
1
1
1
1
1
1
1
1
1
1
1
1
1
1
1
1
1
1
1
1
1
1
1
1
1
1
1
1
1
1
1
1
1
1
1
1
1
1
1
1
1
1
1
1
1
1
1
1
1
1
1
1
1
1
1
1
1
1
1
1
1
1
1
1
1
1
1
1
1
1
1
1.94044
2.62692
2.64968
2.64849
2.64948
2.65
2.65105
2.65301
2.65639
2.66048
2.66502
2.66984
2.6747
2.67945
2.68394
2.68783
2.69082
2.6928
2.69398
2.69439
2.69432
2.69417
2.69398
2.69368
2.69347
2.69359
2.69398
2.6946
2.69566
2.69697
2.69819
2.69887
2.69881
2.69823
2.69687
2.69454
2.69113
2.6867
2.68127
2.67492
2.6677
2.65937
2.64932
2.63741
2.62523
2.6164
1
1
1
1
1
1
1
1
1
1
1
1
1
1
1
1
1
1
1
1
1
1
1
1
1
1
1
1
1
1
1
1
1
1
1
1
1
1
1
1
1
1
1
1
1
1
1
1
1
1
1
1
1
1
1
1
1
1
1
1
1
1
1
1
1
1
1
1
1
1
1
1
1
1
1
1
1
1
1
1
1
1
1
1
1
1
1
1
1
1
1
1
1
1
1
1
1
1
1
1
1
1
1
1
1
1
1
1
1
1
1
1
1
1
1
1
1
1
1
1
1
1
1
1
1
1
1
1
1
1
1
1
1
1
1
1
1
1
1
1
1
1
1
1
1
1
1.70898
2.55344
2.64587
2.64881
2.65144
2.65222
2.65236
2.653
2.65434
2.65638
2.65909
2.6624
2.66648
2.67113
2.67602
2.68079
2.68488
2.68796
2.69005
2.69115
2.69134
2.69116
2.69074
2.69003
2.68918
2.68859
2.68822
2.68789
2.68816
2.68879
2.68957
2.69005
2.6899
2.68915
2.68749
2.68468
2.6805
2.67496
2.66803
2.65962
2.64953
2.63719
2.62205
2.60391
2.58671
2.58129
1
1
1
1
1
1
1
1
1
1
1
1
1
1
1
1
1
1
1
1
1
1
1
1
1
1
1
1
1
1
1
1
1
1
1
1
1
1
1
1
1
1
1
1
1
1
1
1
1
1
1
1
1
1
1
1
1
1
1
1
1
1
1
1
1
1
1
1
1
1
1
1
1
1
1
1
1
1
1
1
1
1
1
1
1
1
1
1
1
1
1
1
1
1
1
1
1
1
1
1
1
1
1
1
1
1
1
1
1
1
1
1
1
1
1
1
1
1
1
1
1
1
1
1
1
1
1
1
1
1
1
1
1
1
1
1
1
1
1
1
1
1
1
1
1
1
1.39443
2.42897
2.64224
2.64271
2.64614
2.64872
2.65058
2.65227
2.65375
2.6551
2.65625
2.65776
2.66015
2.66357
2.66783
2.67259
2.67725
2.68123
2.68434
2.68646
2.68743
2.6875
2.68719
2.68644
2.68526
2.6841
2.68298
2.68168
2.68095
2.68067
2.68072
2.68074
2.68036
2.67932
2.67731
2.67402
2.66911
2.66246
2.65391
2.64324
2.63004
2.61343
2.59045
2.55503
2.49456
2.44184
1
1
1
1
1
1
1
1
1
1
1
1
1
1
1
1
1
1
1
1
1
1
1
1
1
1
1
1
1
1
1
1
1
1
1
1
1
1
1
1
1
1
1
1
1
1
1
1
1
1
1
1
1
1
1
1
1
1
1
1
1
1
1
1
1
1
1
1
1
1
1
1
1
1
1
1
1
1
1
1
1
1
1
1
1
1
1
1
1
1
1
1
1
1
1
1
1
1
1
1
1
1
1
1
1
1
1
1
1
1
1
1
1
1
1
1
1
1
1
1
1
1
1
1
1
1
1
1
1
1
1
1
1
1
1
1
1
1
1
1
1
1
1
1
1
1
1.04911
2.31338
2.63579
2.63139
2.63424
2.63939
2.64482
2.64879
2.65154
2.65349
2.65469
2.65548
2.65648
2.65826
2.66105
2.66479
2.66906
2.67329
2.67703
2.68001
2.68204
2.68289
2.68287
2.68238
2.68131
2.67988
2.6781
2.67603
2.67425
2.67288
2.67196
2.67122
2.67028
2.66881
2.66638
2.66259
2.65701
2.6493
2.63916
2.62619
2.60957
2.58776
2.55601
2.50603
2.44373
2.40069
1
1
1
1
1
1
1
1
1
1
1
1
1
1
1
1
1
1
1
1
1
1
1
1
1
1
1
1
1
1
1
1
1
1
1
1
1
1
1
1
1
1
1
1
1
1
1
1
1
1
1
1
1
1
1
1
1
1
1
1
1
1
1
1
1
1
1
1
1
1
1
1
1
1
1
1
1
1
1
1
1
1
1
1
1
1
1
1
1
1
1
1
1
1
1
1
1
1
1
1
1
1
1
1
1
1
1
1
1
1
1
1
1
1
1
1
1
1
1
1
1
1
1
1
1
1
1
1
1
1
1
1
1
1
1
1
1
1
1
1
1
1
1
1
1
1
1.00055
2.20552
2.61817
2.6175
2.62373
2.63014
2.63646
2.64215
2.64661
2.65005
2.65228
2.65345
2.65413
2.65493
2.65629
2.65851
2.66157
2.66517
2.6689
2.67218
2.675
2.67686
2.67758
2.67749
2.67682
2.67546
2.67338
2.67079
2.66808
2.6656
2.66352
2.66175
2.65996
2.65781
2.6548
2.65047
2.64425
2.63561
2.62402
2.6089
2.58923
2.56302
2.52593
2.46978
2.40226
2.34017
1
1
1
1
1
1
1
1
1
1
1
1
1
1
1
1
1
1
1
1
1
1
1
1
1
1
1
1
1
1
1
1
1
1
1
1
1
1
1
1
1
1
1
1
1
1
1
1
1
1
1
1
1
1
1
1
1
1
1
1
1
1
1
1
1
1
1
1
1
1
1
1
1
1
1
1
1
1
1
1
1
1
1
1
1
1
1
1
1
1
1
1
1
1
1
1
1
1
1
1
1
1
1
1
1
1
1
1
1
1
1
1
1
1
1
1
1
1
1
1
1
1
1
1
1
1
1
1
1
1
1
1
1
1
1
1
1
1
1
1
1
1
1
1
1
1
0.999995
2.0237
2.60623
2.62142
2.62531
2.62761
2.63071
2.63512
2.6398
2.64429
2.64791
2.65025
2.65149
2.65217
2.65282
2.65386
2.65557
2.65799
2.661
2.66394
2.66688
2.66942
2.67104
2.67164
2.67141
2.67043
2.66846
2.66565
2.66232
2.65888
2.65563
2.65263
2.64973
2.64661
2.64282
2.63782
2.63096
2.62153
2.60879
2.59193
2.56996
2.54088
2.50113
2.44406
2.3699
2.30116
1
1
1
1
1
1
1
1
1
1
1
1
1
1
1
1
1
1
1
1
1
1
1
1
1
1
1
1
1
1
1
1
1
1
1
1
1
1
1
1
1
1
1
1
1
1
1
1
1
1
1
1
1
1
1
1
1
1
1
1
1
1
1
1
1
1
1
1
1
1
1
1
1
1
1
1
1
1
1
1
1
1
1
1
1
1
1
1
1
1
1
1
1
1
1
1
1
1
1
1
1
1
1
1
1
1
1
1
1
1
1
1
1
1
1
1
1
1
1
1
1
1
1
1
1
1
1
1
1
1
1
1
1
1
1
1
1
1
1
1
1
1
1
1
1
1
0.999999
1.77049
2.55463
2.62498
2.62495
2.62648
2.62829
2.63017
2.63329
2.63748
2.64178
2.6453
2.64765
2.64894
2.64957
2.65008
2.65083
2.65209
2.65399
2.65624
2.65858
2.66108
2.66325
2.66461
2.66496
2.66446
2.66291
2.66023
2.65666
2.65255
2.64829
2.64407
2.63987
2.63554
2.63072
2.62488
2.61732
2.60723
2.59367
2.57568
2.55224
2.52167
2.48124
2.42661
2.35444
2.29129
1
1
1
1
1
1
1
1
1
1
1
1
1
1
1
1
1
1
1
1
1
1
1
1
1
1
1
1
1
1
1
1
1
1
1
1
1
1
1
1
1
1
1
1
1
1
1
1
1
1
1
1
1
1
1
1
1
1
1
1
1
1
1
1
1
1
1
1
1
1
1
1
1
1
1
1
1
1
1
1
1
1
1
1
1
1
1
1
1
1
1
1
1
1
1
1
1
1
1
1
1
1
1
1
1
1
1
1
1
1
1
1
1
1
1
1
1
1
1
1
1
1
1
1
1
1
1
1
1
1
1
1
1
1
1
1
1
1
1
1
1
1
1
1
1
1
1
1.42172
2.43377
2.62291
2.6216
2.62333
2.62479
2.6264
2.62867
2.63183
2.63565
2.63944
2.64254
2.64467
2.64579
2.64632
2.64669
2.64725
2.64823
2.6497
2.65104
2.65282
2.65483
2.65657
2.65748
2.65741
2.65644
2.65421
2.65077
2.64639
2.64142
2.63615
2.63065
2.62495
2.61887
2.61197
2.60361
2.59289
2.57883
2.56032
2.53631
2.50555
2.46651
2.41692
2.35502
2.29336
1
1
1
1
1
1
1
1
1
1
1
1
1
1
1
1
1
1
1
1
1
1
1
1
1
1
1
1
1
1
1
1
1
1
1
1
1
1
1
1
1
1
1
1
1
1
1
1
1
1
1
1
1
1
1
1
1
1
1
1
1
1
1
1
1
1
1
1
1
1
1
1
1
1
1
1
1
1
1
1
1
1
1
1
1
1
1
1
1
1
1
1
1
1
1
1
1
1
1
1
1
1
1
1
1
1
1
1
1
1
1
1
1
1
1
1
1
1
1
1
1
1
1
1
1
1
1
1
1
1
1
1
1
1
1
1
1
1
1
1
1
1
1
1
1
1
1
1.05337
2.30258
2.61954
2.61496
2.61601
2.61874
2.62184
2.62418
2.62683
2.62998
2.63338
2.63658
2.63923
2.64095
2.64185
2.64232
2.6427
2.64325
2.64401
2.64455
2.64533
2.64653
2.64798
2.64909
2.64943
2.64891
2.64728
2.64429
2.64004
2.63475
2.62872
2.62212
2.61508
2.60762
2.59948
2.59014
2.57878
2.56441
2.54587
2.52213
2.49225
2.45565
2.41195
2.35938
2.30151
1
1
1
1
1
1
1
1
1
1
1
1
1
1
1
1
1
1
1
1
1
1
1
1
1
1
1
1
1
1
1
1
1
1
1
1
1
1
1
1
1
1
1
1
1
1
1
1
1
1
1
1
1
1
1
1
1
1
1
1
1
1
1
1
1
1
1
1
1
1
1
1
1
1
1
1
1
1
1
1
1
1
1
1
1
1
1
1
1
1
1
1
1
1
1
1
1
1
1
1
1
1
1
1
1
1
1
1
1
1
1
1
1
1
1
1
1
1
1
1
1
1
1
1
1
1
1
1
1
1
1
1
1
1
1
1
1
1
1
1
1
1
1
1
1
1
1
1.00063
2.16289
2.59783
2.60038
2.60639
2.61149
2.61579
2.61889
2.62174
2.62465
2.62762
2.63052
2.63321
2.63519
2.63651
2.63733
2.63791
2.63844
2.6389
2.63898
2.63893
2.63909
2.63963
2.64034
2.64073
2.64048
2.63938
2.63699
2.63316
2.62794
2.62154
2.61419
2.60607
2.59727
2.58779
2.57732
2.5652
2.55055
2.5323
2.50941
2.48115
2.44744
2.40892
2.3649
2.31247
1
1
1
1
1
1
1
1
1
1
1
1
1
1
1
1
1
1
1
1
1
1
1
1
1
1
1
1
1
1
1
1
1
1
1
1
1
1
1
1
1
1
1
1
1
1
1
1
1
1
1
1
1
1
1
1
1
1
1
1
1
1
1
1
1
1
1
1
1
1
1
1
1
1
1
1
1
1
1
1
1
1
1
1
1
1
1
1
1
1
1
1
1
1
1
1
1
1
1
1
1
1
1
1
1
1
1
1
1
1
1
1
1
1
1
1
1
1
1
1
1
1
1
1
1
1
1
1
1
1
1
1
1
1
1
1
1
1
1
1
1
1
1
1
1
1
1
0.999994
1.93355
2.5698
2.60153
2.60541
2.6085
2.61103
2.61363
2.61646
2.61933
2.62211
2.62472
2.62719
2.62905
2.63046
2.63157
2.63248
2.63323
2.63372
2.63372
2.6333
2.6326
2.63209
2.63189
2.63181
2.63152
2.63065
2.62876
2.62548
2.62064
2.61427
2.60656
2.59772
2.58792
2.57719
2.56552
2.55251
2.5375
2.51961
2.49784
2.47154
2.44082
2.40665
2.36902
2.3239
1
1
1
1
1
1
1
1
1
1
1
1
1
1
1
1
1
1
1
1
1
1
1
1
1
1
1
1
1
1
1
1
1
1
1
1
1
1
1
1
1
1
1
1
1
1
1
1
1
1
1
1
1
1
1
1
1
1
1
1
1
1
1
1
1
1
1
1
1
1
1
1
1
1
1
1
1
1
1
1
1
1
1
1
1
1
1
1
1
1
1
1
1
1
1
1
1
1
1
1
1
1
1
1
1
1
1
1
1
1
1
1
1
1
1
1
1
1
1
1
1
1
1
1
1
1
1
1
1
1
1
1
1
1
1
1
1
1
1
1
1
1
1
1
1
1
1
0.999999
1.58513
2.47968
2.60111
2.60234
2.60391
2.60559
2.60823
2.61095
2.61381
2.61659
2.61911
2.62138
2.62302
2.62423
2.62531
2.62639
2.62741
2.62817
2.62837
2.62793
2.62684
2.62547
2.62423
2.62329
2.62249
2.62147
2.61977
2.61692
2.61257
2.60657
2.59896
2.58983
2.5794
2.56779
2.55503
2.54106
2.52555
2.50784
2.48717
2.46287
2.43498
2.4048
2.37209
2.3361
1
1
1
1
1
1
1
1
1
1
1
1
1
1
1
1
1
1
1
1
1
1
1
1
1
1
1
1
1
1
1
1
1
1
1
1
1
1
1
1
1
1
1
1
1
1
1
1
1
1
1
1
1
1
1
1
1
1
1
1
1
1
1
1
1
1
1
1
1
1
1
1
1
1
1
1
1
1
1
1
1
1
1
1
1
1
1
1
1
1
1
1
1
1
1
1
1
1
1
1
1
1
1
1
1
1
1
1
1
1
1
1
1
1
1
1
1
1
1
1
1
1
1
1
1
1
1
1
1
1
1
1
1
1
1
1
1
1
1
1
1
1
1
1
1
1
1
1
1.15417
2.3444
2.60119
2.59482
2.59559
2.59824
2.60172
2.60474
2.60776
2.61069
2.61335
2.61563
2.61718
2.61813
2.61896
2.61993
2.62103
2.62207
2.62261
2.62231
2.62125
2.6195
2.61745
2.61555
2.6139
2.61231
2.6104
2.60769
2.60373
2.59822
2.59103
2.58209
2.57148
2.55936
2.5459
2.53111
2.51496
2.49725
2.4774
2.4549
2.42964
2.40296
2.37444
2.34636
1
1
1
1
1
1
1
1
1
1
1
1
1
1
1
1
1
1
1
1
1
1
1
1
1
1
1
1
1
1
1
1
1
1
1
1
1
1
1
1
1
1
1
1
1
1
1
1
1
1
1
1
1
1
1
1
1
1
1
1
1
1
1
1
1
1
1
1
1
1
1
1
1
1
1
1
1
1
1
1
1
1
1
1
1
1
1
1
1
1
1
1
1
1
1
1
1
1
1
1
1
1
1
1
1
1
1
1
1
1
1
1
1
1
1
1
1
1
1
1
1
1
1
1
1
1
1
1
1
1
1
1
1
1
1
1
1
1
1
1
1
1
1
1
1
1
1
1
1.00597
2.21563
2.58269
2.58145
2.58602
2.59057
2.59463
2.59794
2.60115
2.60427
2.60717
2.60961
2.61128
2.61214
2.61271
2.61338
2.61434
2.61544
2.61627
2.61621
2.61543
2.61371
2.61127
2.60859
2.60603
2.60361
2.6011
2.59816
2.59432
2.58922
2.58255
2.57412
2.56381
2.55169
2.53792
2.52266
2.50599
2.48803
2.46865
2.44767
2.42464
2.40081
2.37612
2.35314
1
1
1
1
1
1
1
1
1
1
1
1
1
1
1
1
1
1
1
1
1
1
1
1
1
1
1
1
1
1
1
1
1
1
1
1
1
1
1
1
1
1
1
1
1
1
1
1
1
1
1
1
1
1
1
1
1
1
1
1
1
1
1
1
1
1
1
1
1
1
1
1
1
1
1
1
1
1
1
1
1
1
1
1
1
1
1
1