/*--------------------------------*- C++ -*----------------------------------*\
  =========                 |
  \\      /  F ield         | OpenFOAM: The Open Source CFD Toolbox
   \\    /   O peration     | Website:  https://openfoam.org
    \\  /    A nd           | Version:  7
     \\/     M anipulation  |
\*---------------------------------------------------------------------------*/
FoamFile
{
    version     2.0;
    format      ascii;
    class       volVectorField;
    location    "2.3";
    object      U;
}
// * * * * * * * * * * * * * * * * * * * * * * * * * * * * * * * * * * * * * //

dimensions      [0 1 -1 0 0 0 0];

internalField   nonuniform List<vector> 
16192
(
(3 -2.45646e-17 0)
(3 -3.49287e-17 0)
(3 -1.00281e-16 0)
(3 -3.08623e-16 0)
(3 -1.95569e-16 0)
(3 2.52128e-16 0)
(3 2.62015e-16 0)
(3 4.26209e-16 0)
(3 6.23293e-16 0)
(3 6.61169e-16 0)
(3 7.96854e-16 0)
(3 2.71697e-16 0)
(3 -8.44877e-16 0)
(3 -1.37513e-15 0)
(3 -9.39529e-16 0)
(3 -1.02857e-16 0)
(3 5.9652e-16 0)
(3 2.91832e-16 0)
(3 -1.86494e-16 0)
(3 -3.3996e-16 0)
(3 -1.85622e-15 0)
(3 -1.62024e-15 0)
(3 -2.38556e-16 0)
(3 -5.56225e-16 0)
(3 -7.08884e-16 0)
(3 -5.46089e-16 0)
(3 -5.4525e-16 0)
(3 -7.52903e-16 0)
(3 -1.76692e-16 0)
(3 5.56144e-16 0)
(3 8.78675e-16 0)
(3 1.4559e-15 0)
(3 8.76853e-16 0)
(3 -4.06828e-16 0)
(3 -8.31941e-16 0)
(3 -5.13276e-16 0)
(3 -1.73939e-16 0)
(3 -1.02649e-16 0)
(3 1.0563e-16 0)
(3 3.80314e-16 0)
(3 1.17542e-15 0)
(3 8.43898e-16 0)
(3 7.46398e-16 0)
(3 1.01371e-15 0)
(3 2.41254e-16 0)
(3 -1.39295e-16 0)
(3 3.13455e-16 0)
(3 -3.63167e-16 0)
(3 -5.01136e-16 0)
(3 -8.76832e-16 0)
(3 -1.00695e-15 0)
(3 -8.37584e-16 0)
(3 -1.30362e-15 0)
(3 -1.56502e-15 0)
(3 -5.4402e-16 0)
(3 4.87255e-16 0)
(3 5.67518e-16 0)
(3 6.55068e-16 0)
(3 1.4365e-15 0)
(3 1.61481e-15 0)
(3 1.57174e-15 0)
(3 1.36168e-15 0)
(3 1.17859e-15 0)
(3 8.84429e-16 0)
(3 6.83111e-16 0)
(3 5.97669e-16 0)
(3 4.06518e-16 0)
(3 3.26001e-16 0)
(3 -1.95195e-16 0)
(3 -8.15492e-16 0)
(3 -8.98545e-16 0)
(3 -3.76818e-16 0)
(3 5.55481e-16 0)
(3 2.19767e-16 0)
(3 -2.16836e-16 0)
(3 2.25712e-16 0)
(3 4.62036e-16 0)
(3 6.58803e-16 0)
(3 9.5409e-17 0)
(3 -3.03022e-16 0)
(3 -1.13285e-16 0)
(3 5.29982e-16 0)
(3 5.06989e-16 0)
(3 4.6613e-16 0)
(3 1.04276e-15 0)
(3 1.63166e-15 0)
(3 1.24837e-15 0)
(3 6.89936e-16 0)
(3 4.55677e-16 0)
(3 -3.58873e-16 0)
(3 -1.27985e-15 0)
(3 -1.17364e-15 0)
(3 -9.40959e-16 0)
(3 -5.69425e-17 0)
(3 3.89277e-16 0)
(3 -2.5546e-16 0)
(3 -7.46332e-16 0)
(3 -1.07554e-15 0)
(3 -1.07414e-15 0)
(3 -9.43776e-16 0)
(3 -9.17046e-16 0)
(3 -9.42597e-16 0)
(3 -1.31292e-15 0)
(3 -1.40865e-15 0)
(3 -2.07394e-15 0)
(3 -2.1386e-15 0)
(3 -7.74803e-16 0)
(3 -1.98095e-16 0)
(3 -3.37105e-16 0)
(3 -4.77017e-16 0)
(3 3.08048e-16 0)
(3 5.15774e-16 0)
(3 -9.91882e-16 0)
(3 -1.12264e-15 0)
(3 -1.10602e-15 0)
(3 -9.79729e-16 0)
(3 -1.01971e-15 0)
(3 1.50381e-16 0)
(3 -4.43301e-17 0)
(3 -6.90955e-16 0)
(3 -7.5914e-16 0)
(3 -2.54888e-16 0)
(3 1.07869e-15 0)
(3 1.22707e-15 0)
(3 1.2722e-15 0)
(3 1.13383e-15 0)
(3 8.12707e-16 0)
(3 9.48878e-16 0)
(3 1.46687e-15 0)
(3 1.05753e-15 0)
(3 4.40609e-16 0)
(3 -8.98318e-16 0)
(3 -1.7449e-15 0)
(3 -6.83681e-16 0)
(3 5.38104e-17 0)
(3 -1.88132e-16 0)
(3 -6.30839e-16 0)
(3 -1.05358e-15 0)
(3 -1.12439e-15 0)
(3 -6.40588e-16 0)
(3 -2.08356e-16 0)
(3 1.35769e-16 0)
(3 -1.10978e-17 0)
(2.77817 0.00203386 0)
(0.961008 0.00627081 0)
(0.756017 0.00418181 0)
(0.744987 0.00498794 0)
(0.731784 0.00553763 0)
(0.717678 0.00658281 0)
(0.700832 0.00753182 0)
(0.682832 0.00752988 0)
(0.665894 0.00649061 0)
(0.651153 0.00567948 0)
(0.637768 0.0057229 0)
(0.624471 0.00630183 0)
(0.610441 0.0069261 0)
(0.59578 0.00699821 0)
(0.581313 0.0065274 0)
(0.567162 0.00629854 0)
(0.55254 0.00659869 0)
(0.53704 0.00697617 0)
(0.521216 0.0070239 0)
(0.505749 0.0068498 0)
(0.490625 0.00680451 0)
(0.47536 0.00694666 0)
(0.459691 0.00711087 0)
(0.443774 0.00722314 0)
(0.427898 0.00734012 0)
(0.412273 0.00749027 0)
(0.396972 0.00763231 0)
(0.381895 0.00772729 0)
(0.366789 0.00777896 0)
(0.35136 0.00781618 0)
(0.335453 0.00785598 0)
(0.31915 0.00791171 0)
(0.302696 0.00798065 0)
(0.286325 0.00804863 0)
(0.270084 0.00812955 0)
(0.253794 0.00822158 0)
(0.237217 0.00830398 0)
(0.220169 0.00840706 0)
(0.202576 0.00852223 0)
(0.184569 0.00861652 0)
(0.166303 0.00876473 0)
(0.147821 0.00899295 0)
(0.129235 0.00922471 0)
(0.110664 0.00947828 0)
(0.0919867 0.00976754 0)
(0.072976 0.0100177 0)
(0.0533024 0.0101969 0)
(0.0327362 0.0102731 0)
(0.0111978 0.0104129 0)
(3 -2.97476e-16 0)
(3 -2.45739e-16 0)
(3 -3.61995e-16 0)
(3 -1.07741e-16 0)
(3 2.64279e-16 0)
(3 4.61617e-16 0)
(3 3.1509e-16 0)
(3 2.10876e-16 0)
(3 3.52919e-16 0)
(3 7.51884e-16 0)
(3 6.7666e-16 0)
(3 2.10291e-16 0)
(3 -3.18376e-16 0)
(3 -1.35606e-15 0)
(3 -1.46106e-15 0)
(3 -5.43684e-16 0)
(3 1.09751e-15 0)
(3 1.94205e-15 0)
(3 -1.25529e-15 0)
(3 -2.1379e-15 0)
(3 -1.91574e-15 0)
(3 -1.15068e-15 0)
(3 3.40829e-17 0)
(3 -2.99591e-16 0)
(3 -3.77692e-16 0)
(3 8.1579e-17 0)
(3 -2.88354e-16 0)
(3 -1.06585e-15 0)
(3 -8.34692e-16 0)
(3 3.08189e-17 0)
(3 9.71406e-16 0)
(3 1.26236e-15 0)
(3 5.99198e-16 0)
(3 -8.49627e-16 0)
(3 -1.50592e-15 0)
(3 -3.07654e-16 0)
(3 1.37002e-16 0)
(3 -3.2159e-16 0)
(3 -5.38873e-16 0)
(3 4.42908e-16 0)
(3 2.11081e-15 0)
(3 2.21403e-15 0)
(3 2.14605e-15 0)
(3 1.48797e-15 0)
(3 -3.45193e-16 0)
(3 -1.38447e-15 0)
(3 -9.3466e-16 0)
(3 -4.61592e-16 0)
(3 -8.48469e-16 0)
(3 -9.68047e-16 0)
(3 -1.39894e-15 0)
(3 -1.07479e-15 0)
(3 -1.42552e-15 0)
(3 -1.82278e-15 0)
(3 2.61961e-16 0)
(3 1.68711e-15 0)
(3 1.82133e-15 0)
(3 1.70351e-15 0)
(3 1.53827e-15 0)
(3 1.81292e-15 0)
(3 1.853e-15 0)
(3 1.62637e-15 0)
(3 1.64983e-15 0)
(3 1.27242e-15 0)
(3 1.0698e-15 0)
(3 8.73163e-16 0)
(3 9.78416e-16 0)
(3 1.1783e-16 0)
(3 -5.43855e-16 0)
(3 -1.42638e-15 0)
(3 -1.32776e-15 0)
(3 -1.82106e-16 0)
(3 1.00508e-15 0)
(3 8.87979e-16 0)
(3 2.11084e-16 0)
(3 2.6303e-16 0)
(3 3.19894e-16 0)
(3 5.74619e-17 0)
(3 -7.5031e-17 0)
(3 -1.61088e-15 0)
(3 -1.43953e-15 0)
(3 -6.17165e-16 0)
(3 7.9043e-18 0)
(3 3.20443e-16 0)
(3 1.77851e-15 0)
(3 2.19862e-15 0)
(3 1.08372e-15 0)
(3 -5.9822e-16 0)
(3 -1.2569e-15 0)
(3 -1.57402e-15 0)
(3 -1.82545e-15 0)
(3 -2.06211e-15 0)
(3 -2.05308e-15 0)
(3 -1.08332e-15 0)
(3 -3.04334e-16 0)
(3 -4.92072e-16 0)
(3 -1.3532e-15 0)
(3 -1.80539e-15 0)
(3 -2.38647e-15 0)
(3 -2.41363e-15 0)
(3 -1.9454e-15 0)
(3 -6.01028e-16 0)
(3 -1.31179e-15 0)
(3 -1.49959e-15 0)
(3 -1.6395e-15 0)
(3 -7.83699e-16 0)
(3 3.76177e-16 0)
(3 1.08359e-15 0)
(3 6.14968e-16 0)
(3 6.6986e-16 0)
(3 1.6553e-15 0)
(3 1.17073e-15 0)
(3 -5.66616e-16 0)
(3 -1.17246e-15 0)
(3 -5.39226e-16 0)
(3 -4.72442e-16 0)
(3 -1.29866e-15 0)
(3 -1.61995e-15 0)
(3 -7.54452e-16 0)
(3 -4.51732e-16 0)
(3 -1.77798e-16 0)
(3 1.16045e-15 0)
(3 2.8782e-15 0)
(3 3.09126e-15 0)
(3 2.37954e-15 0)
(3 1.57231e-15 0)
(3 8.78166e-16 0)
(3 3.57789e-16 0)
(3 7.01635e-16 0)
(3 6.74374e-16 0)
(3 1.15706e-16 0)
(3 -1.19189e-15 0)
(3 -5.78332e-16 0)
(3 3.74523e-17 0)
(3 3.4373e-16 0)
(3 -2.13753e-16 0)
(3 -2.87562e-16 0)
(3 -4.37816e-16 0)
(3 -5.64689e-16 0)
(3 1.21195e-16 0)
(3 5.85255e-16 0)
(3 1.29684e-15 0)
(3 1.51858e-15 0)
(2.78472 0.00977261 0)
(0.962657 0.023923 0)
(0.753188 0.0168635 0)
(0.74039 0.0128904 0)
(0.727561 0.014964 0)
(0.713652 0.0181397 0)
(0.697363 0.0210735 0)
(0.679982 0.0215138 0)
(0.663402 0.0191554 0)
(0.648437 0.0168971 0)
(0.634672 0.0167651 0)
(0.621275 0.0183274 0)
(0.607351 0.0201457 0)
(0.592846 0.0204721 0)
(0.578482 0.0192875 0)
(0.564216 0.0186397 0)
(0.549482 0.0194519 0)
(0.533946 0.0205135 0)
(0.518128 0.0206646 0)
(0.502662 0.0202314 0)
(0.487493 0.0201546 0)
(0.472204 0.020555 0)
(0.456561 0.0209511 0)
(0.440703 0.0212097 0)
(0.424875 0.0215189 0)
(0.409241 0.0219776 0)
(0.393846 0.0224726 0)
(0.378619 0.0228435 0)
(0.363371 0.0230662 0)
(0.347855 0.0232061 0)
(0.331935 0.02332 0)
(0.315676 0.0234712 0)
(0.299283 0.0236712 0)
(0.28296 0.023882 0)
(0.266749 0.0241391 0)
(0.250494 0.0244258 0)
(0.233996 0.0246732 0)
(0.217099 0.0249808 0)
(0.199737 0.0253407 0)
(0.182028 0.025661 0)
(0.16412 0.0261597 0)
(0.146055 0.0269014 0)
(0.12792 0.027643 0)
(0.1098 0.0284408 0)
(0.0915178 0.0293583 0)
(0.0727863 0.0301903 0)
(0.0532622 0.0308248 0)
(0.0327449 0.0311326 0)
(0.0112208 0.0316074 0)
(3 -1.53248e-16 0)
(3 -3.84996e-16 0)
(3 -6.00249e-16 0)
(3 -2.35086e-16 0)
(3 -2.9433e-16 0)
(3 -2.47482e-16 0)
(3 -3.16406e-16 0)
(3 -4.67198e-16 0)
(3 -2.51802e-16 0)
(3 -2.82989e-16 0)
(3 -5.30602e-16 0)
(3 -5.05452e-16 0)
(3 -4.79332e-16 0)
(3 -1.07101e-15 0)
(3 -1.86916e-15 0)
(3 -1.55134e-15 0)
(3 3.02731e-16 0)
(3 1.11349e-15 0)
(3 -4.53725e-16 0)
(3 -3.70198e-15 0)
(3 -3.47636e-15 0)
(3 -3.22217e-15 0)
(3 -2.61297e-15 0)
(3 -1.28422e-15 0)
(3 -6.38452e-16 0)
(3 -5.92508e-16 0)
(3 -4.77538e-16 0)
(3 -6.12428e-16 0)
(3 -2.04615e-16 0)
(3 1.22914e-15 0)
(3 2.06891e-15 0)
(3 1.84163e-15 0)
(3 7.12622e-16 0)
(3 -3.06098e-16 0)
(3 -1.02192e-15 0)
(3 -9.23149e-16 0)
(3 -6.15246e-16 0)
(3 -6.2994e-16 0)
(3 -4.27729e-16 0)
(3 6.56536e-16 0)
(3 2.66604e-15 0)
(3 3.15796e-15 0)
(3 3.08276e-15 0)
(3 3.27621e-15 0)
(3 2.84179e-15 0)
(3 5.35108e-16 0)
(3 -1.03578e-15 0)
(3 -1.26133e-15 0)
(3 -1.476e-15 0)
(3 -1.10558e-15 0)
(3 -4.68762e-16 0)
(3 -7.97715e-16 0)
(3 -1.73086e-15 0)
(3 -2.55674e-15 0)
(3 -4.50251e-16 0)
(3 1.57798e-15 0)
(3 2.91245e-15 0)
(3 2.93774e-15 0)
(3 2.44356e-15 0)
(3 2.63183e-15 0)
(3 2.63e-15 0)
(3 2.61961e-15 0)
(3 2.2566e-15 0)
(3 1.9681e-15 0)
(3 1.14924e-15 0)
(3 5.39699e-16 0)
(3 7.38397e-16 0)
(3 5.73105e-16 0)
(3 2.35241e-16 0)
(3 -5.87821e-16 0)
(3 -1.00083e-15 0)
(3 -7.47818e-16 0)
(3 1.60373e-17 0)
(3 1.74617e-15 0)
(3 2.17079e-15 0)
(3 1.62569e-15 0)
(3 8.5541e-16 0)
(3 -5.45164e-16 0)
(3 -5.96553e-16 0)
(3 2.54535e-16 0)
(3 7.45835e-16 0)
(3 9.825e-16 0)
(3 2.09161e-15 0)
(3 2.54317e-15 0)
(3 2.05778e-15 0)
(3 8.5093e-16 0)
(3 3.54066e-16 0)
(3 -7.32804e-16 0)
(3 -1.22616e-15 0)
(3 -9.00098e-16 0)
(3 -1.24173e-15 0)
(3 -1.72042e-15 0)
(3 -2.18628e-15 0)
(3 -2.86861e-15 0)
(3 -2.62375e-15 0)
(3 -1.90966e-15 0)
(3 -2.02663e-15 0)
(3 -2.24053e-15 0)
(3 -1.72593e-15 0)
(3 -1.77233e-15 0)
(3 -1.71332e-15 0)
(3 -1.783e-15 0)
(3 -2.70592e-15 0)
(3 -3.56176e-15 0)
(3 -3.24967e-15 0)
(3 -2.06092e-15 0)
(3 -1.17078e-15 0)
(3 -4.16115e-16 0)
(3 9.98673e-16 0)
(3 2.06692e-15 0)
(3 2.1747e-15 0)
(3 1.7953e-15 0)
(3 1.06688e-15 0)
(3 3.03011e-16 0)
(3 -2.27443e-16 0)
(3 -4.29708e-17 0)
(3 -1.71167e-15 0)
(3 -2.15876e-15 0)
(3 -2.09801e-15 0)
(3 -1.57465e-15 0)
(3 4.99233e-16 0)
(3 2.09322e-15 0)
(3 2.14126e-15 0)
(3 2.1012e-15 0)
(3 1.65293e-15 0)
(3 1.22616e-15 0)
(3 6.46553e-16 0)
(3 4.19892e-16 0)
(3 -6.69333e-16 0)
(3 -1.04053e-15 0)
(3 -1.38357e-15 0)
(3 -1.41364e-15 0)
(3 -1.02179e-15 0)
(3 -9.05879e-16 0)
(3 -6.28342e-16 0)
(3 -5.12409e-16 0)
(3 -6.57461e-16 0)
(3 -1.39923e-15 0)
(3 -1.83797e-15 0)
(3 -1.24615e-15 0)
(3 -7.29641e-16 0)
(3 7.24817e-16 0)
(3 5.83452e-15 0)
(2.80415 0.0169039 0)
(0.971122 0.0390693 0)
(0.756805 0.0299653 0)
(0.741705 0.0235375 0)
(0.72702 0.0260518 0)
(0.712619 0.0306028 0)
(0.696712 0.0347251 0)
(0.680049 0.0352755 0)
(0.664007 0.0320591 0)
(0.648832 0.0288848 0)
(0.634458 0.0286071 0)
(0.62071 0.0308743 0)
(0.606738 0.0335696 0)
(0.59231 0.0340731 0)
(0.578053 0.0323775 0)
(0.56367 0.0315041 0)
(0.548821 0.0328102 0)
(0.533235 0.0344221 0)
(0.517387 0.0345893 0)
(0.501859 0.0339343 0)
(0.486551 0.0339356 0)
(0.471128 0.0347007 0)
(0.455407 0.035375 0)
(0.439535 0.035728 0)
(0.423694 0.0361599 0)
(0.407973 0.0368415 0)
(0.392377 0.0375944 0)
(0.376846 0.038179 0)
(0.36126 0.0385515 0)
(0.34545 0.0388078 0)
(0.329321 0.0390146 0)
(0.312931 0.0392596 0)
(0.296435 0.0395615 0)
(0.279985 0.0398665 0)
(0.263603 0.040243 0)
(0.247157 0.0406662 0)
(0.230489 0.041012 0)
(0.213485 0.0414357 0)
(0.196096 0.0419289 0)
(0.178436 0.0423499 0)
(0.160663 0.04308 0)
(0.142842 0.044254 0)
(0.125057 0.0454733 0)
(0.107374 0.0468247 0)
(0.0895825 0.0484173 0)
(0.0713273 0.0498995 0)
(0.0522332 0.0510703 0)
(0.0321111 0.0516816 0)
(0.0110104 0.0525663 0)
(3 1.96843e-16 0)
(3 5.1155e-17 0)
(3 3.04249e-17 0)
(3 -9.22312e-18 0)
(3 -5.23014e-16 0)
(3 -1.24024e-15 0)
(3 -1.0548e-15 0)
(3 -8.67394e-16 0)
(3 -8.93905e-16 0)
(3 -1.23963e-15 0)
(3 -1.70253e-15 0)
(3 -2.05432e-15 0)
(3 -1.81652e-15 0)
(3 -1.82334e-15 0)
(3 -1.77291e-15 0)
(3 -6.42226e-16 0)
(3 1.11102e-15 0)
(3 -2.12005e-16 0)
(3 -8.65039e-16 0)
(3 -2.30418e-15 0)
(3 -3.03324e-15 0)
(3 -3.67016e-15 0)
(3 -3.51982e-15 0)
(3 -2.46448e-15 0)
(3 -1.32118e-15 0)
(3 -1.1716e-15 0)
(3 -1.17491e-15 0)
(3 -5.49672e-16 0)
(3 8.28513e-16 0)
(3 1.28174e-15 0)
(3 1.87428e-15 0)
(3 1.99023e-15 0)
(3 9.62033e-16 0)
(3 -1.97802e-16 0)
(3 -1.16886e-15 0)
(3 -1.74358e-15 0)
(3 -1.56115e-15 0)
(3 -1.20102e-15 0)
(3 -8.13375e-16 0)
(3 1.36689e-16 0)
(3 1.39654e-15 0)
(3 1.9597e-15 0)
(3 3.08543e-15 0)
(3 3.58172e-15 0)
(3 4.10391e-15 0)
(3 3.05941e-15 0)
(3 2.6252e-16 0)
(3 -8.69709e-16 0)
(3 -3.79563e-16 0)
(3 1.80263e-16 0)
(3 2.46442e-16 0)
(3 -9.79711e-16 0)
(3 -1.26831e-15 0)
(3 -8.44061e-16 0)
(3 1.87782e-17 0)
(3 9.28864e-16 0)
(3 2.74272e-15 0)
(3 3.96129e-15 0)
(3 3.95665e-15 0)
(3 3.8012e-15 0)
(3 3.62408e-15 0)
(3 3.67611e-15 0)
(3 3.53681e-15 0)
(3 3.90736e-15 0)
(3 2.54652e-15 0)
(3 1.44418e-15 0)
(3 8.61038e-16 0)
(3 1.04288e-15 0)
(3 1.02506e-15 0)
(3 5.86204e-16 0)
(3 4.925e-16 0)
(3 2.10685e-16 0)
(3 6.0291e-16 0)
(3 1.79896e-15 0)
(3 3.22866e-15 0)
(3 2.88172e-15 0)
(3 1.91676e-15 0)
(3 1.4165e-15 0)
(3 1.15221e-15 0)
(3 2.18053e-15 0)
(3 1.47259e-15 0)
(3 1.02699e-15 0)
(3 1.81487e-15 0)
(3 2.28223e-15 0)
(3 1.91084e-15 0)
(3 5.58837e-16 0)
(3 7.57209e-17 0)
(3 1.90408e-17 0)
(3 4.33629e-16 0)
(3 5.42035e-16 0)
(3 1.57612e-17 0)
(3 -6.02563e-16 0)
(3 -1.24386e-15 0)
(3 -2.57696e-15 0)
(3 -3.04813e-15 0)
(3 -2.25803e-15 0)
(3 -4.10467e-16 0)
(3 1.8063e-16 0)
(3 -2.42336e-16 0)
(3 -9.19098e-16 0)
(3 -1.95257e-15 0)
(3 -2.60146e-15 0)
(3 -2.56313e-15 0)
(3 -2.12872e-15 0)
(3 -1.72732e-15 0)
(3 -1.40465e-15 0)
(3 -1.00549e-15 0)
(3 -7.81679e-16 0)
(3 1.46184e-15 0)
(3 2.64902e-15 0)
(3 2.18662e-15 0)
(3 2.14306e-15 0)
(3 2.48187e-15 0)
(3 4.30815e-16 0)
(3 -1.29996e-15 0)
(3 -1.80488e-15 0)
(3 -2.05125e-15 0)
(3 -1.83091e-15 0)
(3 -1.76347e-15 0)
(3 -6.95745e-16 0)
(3 1.28059e-15 0)
(3 1.61875e-15 0)
(3 1.6074e-15 0)
(3 1.43916e-15 0)
(3 1.31677e-15 0)
(3 1.16175e-15 0)
(3 8.32892e-16 0)
(3 9.95688e-16 0)
(3 -9.13289e-17 0)
(3 -1.5112e-15 0)
(3 -1.86503e-15 0)
(3 -1.44226e-15 0)
(3 -1.11142e-15 0)
(3 -1.50025e-15 0)
(3 -1.87283e-15 0)
(3 -1.41891e-15 0)
(3 -1.16334e-15 0)
(3 -1.55264e-15 0)
(3 -1.16531e-15 0)
(3 -1.41953e-15 0)
(3 3.45805e-16 0)
(3 1.73458e-15 0)
(3 9.60392e-16 0)
(2.83062 0.021139 0)
(0.982114 0.0516352 0)
(0.758753 0.0440168 0)
(0.743694 0.0350273 0)
(0.728563 0.0372033 0)
(0.714638 0.042404 0)
(0.699559 0.0471551 0)
(0.683574 0.047761 0)
(0.667814 0.0443842 0)
(0.652418 0.0408317 0)
(0.637566 0.04049 0)
(0.62359 0.0432543 0)
(0.609682 0.0465626 0)
(0.595381 0.0472051 0)
(0.581201 0.0451979 0)
(0.566675 0.0442618 0)
(0.551729 0.0460399 0)
(0.53612 0.048117 0)
(0.520252 0.0482812 0)
(0.504646 0.0474862 0)
(0.489172 0.0476801 0)
(0.473598 0.0489005 0)
(0.457766 0.0499118 0)
(0.441851 0.0503852 0)
(0.42598 0.0509112 0)
(0.410151 0.0517878 0)
(0.394316 0.0527904 0)
(0.378422 0.053612 0)
(0.362413 0.0542077 0)
(0.346203 0.0546705 0)
(0.329753 0.0550459 0)
(0.313127 0.055431 0)
(0.296433 0.0558574 0)
(0.279759 0.0562673 0)
(0.263098 0.0567705 0)
(0.246327 0.0573368 0)
(0.229322 0.0577792 0)
(0.21201 0.0582914 0)
(0.19435 0.0588606 0)
(0.176453 0.0592937 0)
(0.15849 0.0601292 0)
(0.140574 0.0615908 0)
(0.122806 0.0631435 0)
(0.105267 0.0649154 0)
(0.087743 0.0670959 0)
(0.0698156 0.069194 0)
(0.0510791 0.0708985 0)
(0.0313529 0.0718165 0)
(0.0107501 0.0731278 0)
(3 -2.14866e-16 0)
(3 -1.93635e-16 0)
(3 -1.77051e-17 0)
(3 2.70713e-16 0)
(3 4.28415e-16 0)
(3 -1.87341e-16 0)
(3 -4.78615e-16 0)
(3 -1.4553e-15 0)
(3 -2.33206e-15 0)
(3 -2.27358e-15 0)
(3 -2.02261e-15 0)
(3 -1.84032e-15 0)
(3 -1.67326e-15 0)
(3 -1.44059e-15 0)
(3 -1.46089e-15 0)
(3 -1.01916e-15 0)
(3 -1.31715e-16 0)
(3 2.97013e-17 0)
(3 -2.12825e-16 0)
(3 8.43137e-17 0)
(3 -1.2525e-15 0)
(3 -2.35163e-15 0)
(3 -3.93904e-15 0)
(3 -3.24487e-15 0)
(3 -1.29025e-15 0)
(3 -2.79501e-16 0)
(3 -2.29029e-16 0)
(3 -1.35846e-16 0)
(3 -1.70202e-17 0)
(3 2.75844e-16 0)
(3 8.10425e-16 0)
(3 8.81558e-16 0)
(3 8.95752e-16 0)
(3 5.11096e-16 0)
(3 -5.0971e-16 0)
(3 -2.22398e-15 0)
(3 -1.82346e-15 0)
(3 -1.01331e-15 0)
(3 -4.8888e-16 0)
(3 -1.02079e-16 0)
(3 3.56418e-16 0)
(3 8.90326e-16 0)
(3 1.74681e-15 0)
(3 2.82851e-15 0)
(3 3.33447e-15 0)
(3 3.14519e-15 0)
(3 2.16523e-15 0)
(3 1.09127e-15 0)
(3 1.28145e-15 0)
(3 1.53455e-15 0)
(3 2.73974e-16 0)
(3 -1.29113e-15 0)
(3 -6.57729e-16 0)
(3 4.2337e-16 0)
(3 1.08232e-15 0)
(3 1.7465e-15 0)
(3 2.83109e-15 0)
(3 3.4394e-15 0)
(3 3.33763e-15 0)
(3 3.18227e-15 0)
(3 3.28497e-15 0)
(3 3.65708e-15 0)
(3 3.49202e-15 0)
(3 1.80528e-15 0)
(3 1.31011e-15 0)
(3 1.16549e-15 0)
(3 6.60922e-16 0)
(3 -1.30816e-16 0)
(3 -1.21129e-16 0)
(3 2.82898e-16 0)
(3 7.84912e-16 0)
(3 1.47706e-15 0)
(3 2.1621e-15 0)
(3 2.10242e-15 0)
(3 1.84559e-15 0)
(3 6.69666e-16 0)
(3 5.44827e-16 0)
(3 6.44176e-16 0)
(3 1.02137e-15 0)
(3 1.90209e-15 0)
(3 1.51508e-15 0)
(3 1.17282e-15 0)
(3 8.7381e-16 0)
(3 2.24305e-15 0)
(3 2.7779e-15 0)
(3 1.91361e-15 0)
(3 1.33051e-15 0)
(3 1.67569e-15 0)
(3 1.85475e-15 0)
(3 1.12356e-15 0)
(3 4.50838e-16 0)
(3 -4.46402e-16 0)
(3 -4.99303e-16 0)
(3 -1.15602e-15 0)
(3 -2.74858e-15 0)
(3 -2.47985e-15 0)
(3 -6.26751e-16 0)
(3 1.88523e-16 0)
(3 -5.01675e-16 0)
(3 -1.56765e-15 0)
(3 -1.64626e-15 0)
(3 -1.77902e-15 0)
(3 -2.1631e-15 0)
(3 -4.08438e-16 0)
(3 1.71937e-15 0)
(3 1.72324e-15 0)
(3 1.66324e-15 0)
(3 1.0853e-15 0)
(3 1.49821e-15 0)
(3 1.74905e-15 0)
(3 1.76589e-15 0)
(3 1.99503e-15 0)
(3 2.10412e-15 0)
(3 5.0039e-16 0)
(3 -7.4702e-16 0)
(3 -1.34224e-15 0)
(3 -1.59917e-15 0)
(3 -2.01675e-15 0)
(3 -1.16723e-15 0)
(3 8.39877e-16 0)
(3 1.31419e-15 0)
(3 1.31036e-15 0)
(3 2.28828e-15 0)
(3 1.34436e-15 0)
(3 1.47778e-15 0)
(3 1.47653e-15 0)
(3 1.23703e-15 0)
(3 4.55184e-16 0)
(3 -8.99848e-17 0)
(3 -5.5739e-16 0)
(3 -6.53539e-16 0)
(3 -1.80552e-16 0)
(3 6.16596e-17 0)
(3 -4.99773e-16 0)
(3 -1.21127e-15 0)
(3 -1.299e-15 0)
(3 -2.63831e-16 0)
(3 4.46865e-16 0)
(3 5.63665e-16 0)
(3 5.13611e-16 0)
(3 6.29493e-16 0)
(3 9.5534e-16 0)
(3 -1.54023e-15 0)
(2.86059 0.0246023 0)
(0.995043 0.0646377 0)
(0.758807 0.0573893 0)
(0.743945 0.0466797 0)
(0.728479 0.0482403 0)
(0.7146 0.0538044 0)
(0.699742 0.0590329 0)
(0.683924 0.0601584 0)
(0.668159 0.0570981 0)
(0.652502 0.0534617 0)
(0.637245 0.0529126 0)
(0.623103 0.0558198 0)
(0.609403 0.0594802 0)
(0.59539 0.0603048 0)
(0.581401 0.0582338 0)
(0.566854 0.0573345 0)
(0.551931 0.0594971 0)
(0.53644 0.0619423 0)
(0.520706 0.0621241 0)
(0.505164 0.0612715 0)
(0.48966 0.0616981 0)
(0.474062 0.0633702 0)
(0.458234 0.0647171 0)
(0.442378 0.0653169 0)
(0.426605 0.065922 0)
(0.410847 0.0669269 0)
(0.394983 0.0680904 0)
(0.378949 0.0690871 0)
(0.362743 0.0698766 0)
(0.34636 0.0705558 0)
(0.32983 0.0711332 0)
(0.31324 0.071691 0)
(0.296663 0.0722599 0)
(0.280107 0.072777 0)
(0.263508 0.073405 0)
(0.246721 0.0741256 0)
(0.229632 0.0746923 0)
(0.212187 0.0753273 0)
(0.194353 0.0760093 0)
(0.17623 0.0764828 0)
(0.158008 0.0774178 0)
(0.13985 0.0791196 0)
(0.121888 0.0809156 0)
(0.10424 0.0829753 0)
(0.0867267 0.0856158 0)
(0.0688905 0.0882372 0)
(0.0503085 0.0904255 0)
(0.0308019 0.0916218 0)
(0.0105662 0.093355 0)
(3 1.45102e-16 0)
(3 3.52491e-16 0)
(3 4.63297e-16 0)
(3 -5.06464e-17 0)
(3 -3.25287e-18 0)
(3 1.26317e-16 0)
(3 -2.60257e-16 0)
(3 -1.21454e-15 0)
(3 -1.65728e-15 0)
(3 -2.19921e-15 0)
(3 -2.21005e-15 0)
(3 -1.44737e-15 0)
(3 -3.02185e-16 0)
(3 -1.29999e-16 0)
(3 1.8057e-16 0)
(3 -6.45299e-16 0)
(3 -1.09463e-15 0)
(3 -6.4338e-16 0)
(3 -1.75628e-17 0)
(3 -9.23101e-17 0)
(3 -3.62158e-16 0)
(3 -1.04753e-15 0)
(3 -2.62373e-15 0)
(3 -2.68791e-15 0)
(3 -1.26719e-16 0)
(3 1.91172e-15 0)
(3 1.28409e-15 0)
(3 -7.83549e-17 0)
(3 3.9909e-17 0)
(3 4.73999e-16 0)
(3 4.92e-16 0)
(3 -1.82061e-17 0)
(3 -7.71449e-17 0)
(3 5.46614e-16 0)
(3 4.97304e-16 0)
(3 -4.7582e-16 0)
(3 -2.18786e-15 0)
(3 -1.23803e-15 0)
(3 -5.83667e-17 0)
(3 -3.5614e-16 0)
(3 -4.22147e-16 0)
(3 3.81693e-16 0)
(3 1.46157e-15 0)
(3 2.49622e-15 0)
(3 2.37678e-15 0)
(3 2.98148e-15 0)
(3 3.45637e-15 0)
(3 1.7109e-15 0)
(3 -5.12319e-16 0)
(3 -1.10893e-15 0)
(3 -1.21605e-15 0)
(3 -7.75143e-16 0)
(3 -1.07219e-15 0)
(3 -1.19493e-15 0)
(3 -2.14153e-16 0)
(3 2.60673e-15 0)
(3 3.12753e-15 0)
(3 2.75467e-15 0)
(3 2.00942e-15 0)
(3 2.00728e-15 0)
(3 2.14353e-15 0)
(3 2.39042e-15 0)
(3 2.49617e-15 0)
(3 -4.97773e-18 0)
(3 -6.07403e-16 0)
(3 -4.85101e-16 0)
(3 -7.09027e-16 0)
(3 -9.88113e-16 0)
(3 -1.9988e-16 0)
(3 4.52654e-16 0)
(3 1.08223e-15 0)
(3 2.38301e-15 0)
(3 2.98061e-15 0)
(3 2.88782e-15 0)
(3 8.14104e-16 0)
(3 1.85707e-16 0)
(3 -2.93166e-16 0)
(3 -1.39592e-15 0)
(3 -1.00736e-15 0)
(3 2.67546e-16 0)
(3 2.16993e-15 0)
(3 2.78447e-15 0)
(3 3.49543e-15 0)
(3 3.66242e-15 0)
(3 3.83291e-15 0)
(3 3.59875e-15 0)
(3 3.1921e-15 0)
(3 2.78757e-15 0)
(3 1.1967e-15 0)
(3 4.49035e-16 0)
(3 -1.10638e-18 0)
(3 -4.4039e-16 0)
(3 -7.76019e-16 0)
(3 -7.20858e-16 0)
(3 -1.1187e-15 0)
(3 -9.69775e-16 0)
(3 -2.46857e-15 0)
(3 -2.98649e-15 0)
(3 -2.5621e-15 0)
(3 -1.06569e-15 0)
(3 -6.13178e-16 0)
(3 -1.80348e-16 0)
(3 -7.60317e-16 0)
(3 3.82737e-16 0)
(3 1.29378e-15 0)
(3 1.68415e-15 0)
(3 1.84268e-15 0)
(3 1.92876e-15 0)
(3 1.33595e-15 0)
(3 1.38667e-15 0)
(3 1.74161e-15 0)
(3 1.61616e-15 0)
(3 1.55535e-15 0)
(3 7.46827e-16 0)
(3 5.70883e-16 0)
(3 -8.1068e-16 0)
(3 -1.4818e-15 0)
(3 -8.81419e-16 0)
(3 -4.73172e-18 0)
(3 3.30364e-16 0)
(3 -1.83778e-16 0)
(3 -2.03037e-16 0)
(3 6.47193e-16 0)
(3 9.08617e-16 0)
(3 9.85582e-16 0)
(3 1.11794e-15 0)
(3 1.64425e-15 0)
(3 1.91017e-15 0)
(3 8.9909e-16 0)
(3 6.44457e-17 0)
(3 -4.39635e-16 0)
(3 -4.4912e-16 0)
(3 -1.67282e-16 0)
(3 4.44144e-16 0)
(3 1.67472e-15 0)
(3 1.15194e-15 0)
(3 -9.42615e-16 0)
(3 -1.31458e-15 0)
(3 -1.86991e-15 0)
(3 -7.11967e-16 0)
(3 -1.14669e-15 0)
(3 -1.02345e-15 0)
(3 -2.25737e-16 0)
(2.89377 0.0285066 0)
(1.01144 0.0792229 0)
(0.759343 0.07 0)
(0.745006 0.0586535 0)
(0.729243 0.0599458 0)
(0.714994 0.0654483 0)
(0.700296 0.0708877 0)
(0.685012 0.0722646 0)
(0.669811 0.0695972 0)
(0.654439 0.0662323 0)
(0.639119 0.0655572 0)
(0.6248 0.0684256 0)
(0.611116 0.0722087 0)
(0.597196 0.0731948 0)
(0.583216 0.0712107 0)
(0.568515 0.0704496 0)
(0.55345 0.0729478 0)
(0.53789 0.0757101 0)
(0.522105 0.0759594 0)
(0.506479 0.0751339 0)
(0.490852 0.0758206 0)
(0.475161 0.0779128 0)
(0.459265 0.0795574 0)
(0.443392 0.0802662 0)
(0.427644 0.0809588 0)
(0.411919 0.0820997 0)
(0.396045 0.0834156 0)
(0.379924 0.0845577 0)
(0.363567 0.085515 0)
(0.347028 0.0864018 0)
(0.330407 0.0871894 0)
(0.313833 0.0879355 0)
(0.297366 0.0886629 0)
(0.280955 0.0892974 0)
(0.264473 0.0900559 0)
(0.247735 0.0909491 0)
(0.230603 0.0916795 0)
(0.213032 0.092494 0)
(0.194995 0.0933651 0)
(0.176592 0.0939579 0)
(0.15803 0.0950353 0)
(0.139517 0.0969669 0)
(0.121212 0.0989371 0)
(0.103284 0.101148 0)
(0.0856219 0.104102 0)
(0.0677661 0.107125 0)
(0.049314 0.109732 0)
(0.0300708 0.111171 0)
(0.0103209 0.113298 0)
(3 1.72533e-16 0)
(3 4.27041e-16 0)
(3 6.41632e-16 0)
(3 1.85774e-16 0)
(3 -1.73487e-16 0)
(3 -5.64254e-16 0)
(3 -7.4773e-16 0)
(3 -1.91984e-16 0)
(3 6.51222e-16 0)
(3 5.21839e-16 0)
(3 1.46765e-16 0)
(3 1.84239e-17 0)
(3 3.70947e-16 0)
(3 1.58613e-15 0)
(3 2.16812e-15 0)
(3 7.27518e-16 0)
(3 -1.65229e-15 0)
(3 -1.51433e-15 0)
(3 -1.22313e-15 0)
(3 -9.91224e-16 0)
(3 -1.85195e-15 0)
(3 -2.17132e-15 0)
(3 -2.09078e-15 0)
(3 -1.17933e-15 0)
(3 -1.77335e-16 0)
(3 2.86682e-16 0)
(3 -7.21401e-16 0)
(3 -2.22077e-16 0)
(3 1.42418e-15 0)
(3 1.05935e-15 0)
(3 4.28879e-16 0)
(3 2.25908e-16 0)
(3 2.48927e-16 0)
(3 4.18252e-16 0)
(3 1.18076e-15 0)
(3 9.37751e-16 0)
(3 -1.31531e-15 0)
(3 -1.9789e-15 0)
(3 -5.26692e-16 0)
(3 -1.33092e-16 0)
(3 4.65901e-17 0)
(3 5.94421e-16 0)
(3 1.51942e-15 0)
(3 1.87328e-15 0)
(3 2.77452e-15 0)
(3 2.67807e-15 0)
(3 2.5788e-15 0)
(3 1.72892e-15 0)
(3 1.13464e-15 0)
(3 1.91023e-16 0)
(3 -3.62924e-16 0)
(3 -5.75162e-16 0)
(3 -1.00241e-15 0)
(3 -6.77986e-16 0)
(3 5.83947e-16 0)
(3 1.79546e-15 0)
(3 3.01251e-15 0)
(3 2.5847e-15 0)
(3 2.09665e-15 0)
(3 1.47773e-15 0)
(3 1.34839e-15 0)
(3 1.11203e-15 0)
(3 4.22321e-16 0)
(3 2.97977e-16 0)
(3 2.92109e-16 0)
(3 4.89018e-16 0)
(3 -3.18087e-16 0)
(3 -1.47765e-15 0)
(3 9.56293e-17 0)
(3 2.56731e-15 0)
(3 3.2737e-15 0)
(3 3.57316e-15 0)
(3 3.51446e-15 0)
(3 3.45264e-15 0)
(3 1.11244e-15 0)
(3 3.24591e-16 0)
(3 -6.61244e-16 0)
(3 -8.09099e-16 0)
(3 3.97714e-16 0)
(3 1.03297e-15 0)
(3 2.35116e-15 0)
(3 3.27001e-15 0)
(3 3.83334e-15 0)
(3 4.98753e-15 0)
(3 5.32506e-15 0)
(3 4.72275e-15 0)
(3 3.10206e-15 0)
(3 1.60632e-15 0)
(3 4.85109e-16 0)
(3 1.22597e-16 0)
(3 -2.32257e-16 0)
(3 -3.40953e-16 0)
(3 -1.15027e-15 0)
(3 -1.54829e-15 0)
(3 -1.34567e-15 0)
(3 -1.57628e-15 0)
(3 -3.48264e-15 0)
(3 -4.5311e-15 0)
(3 -3.10303e-15 0)
(3 -1.52986e-15 0)
(3 -8.53185e-16 0)
(3 1.66409e-15 0)
(3 2.60309e-15 0)
(3 1.52867e-15 0)
(3 -2.28594e-16 0)
(3 -2.63316e-16 0)
(3 -2.34884e-16 0)
(3 -7.52391e-16 0)
(3 -1.34036e-15 0)
(3 -1.17094e-15 0)
(3 -9.64222e-16 0)
(3 -5.60061e-16 0)
(3 5.86199e-17 0)
(3 -4.68422e-16 0)
(3 -9.03971e-16 0)
(3 -1.65084e-15 0)
(3 -1.8331e-15 0)
(3 -1.89161e-15 0)
(3 -1.38238e-15 0)
(3 -8.19754e-16 0)
(3 -7.27172e-16 0)
(3 -4.34899e-16 0)
(3 1.11519e-15 0)
(3 1.95461e-15 0)
(3 1.45323e-15 0)
(3 1.5078e-15 0)
(3 1.3407e-15 0)
(3 1.37058e-15 0)
(3 7.30536e-16 0)
(3 1.92947e-16 0)
(3 -1.28469e-16 0)
(3 -1.50414e-16 0)
(3 1.81114e-16 0)
(3 1.77626e-15 0)
(3 2.92576e-15 0)
(3 1.41994e-15 0)
(3 -5.23349e-16 0)
(3 -1.32147e-15 0)
(3 -1.89533e-15 0)
(3 -1.45328e-15 0)
(3 -8.47784e-16 0)
(3 -1.47226e-15 0)
(3 -2.72267e-16 0)
(2.93343 0.0325805 0)
(1.03464 0.0932914 0)
(0.765221 0.0803555 0)
(0.751097 0.0703172 0)
(0.734877 0.0719733 0)
(0.719784 0.0773118 0)
(0.704871 0.0823672 0)
(0.689916 0.0836181 0)
(0.675055 0.0814769 0)
(0.659791 0.0787314 0)
(0.644271 0.0783264 0)
(0.629574 0.0812094 0)
(0.615658 0.0849982 0)
(0.601664 0.0861161 0)
(0.587526 0.084336 0)
(0.572505 0.0838326 0)
(0.557062 0.0866955 0)
(0.541132 0.0897943 0)
(0.525007 0.0901689 0)
(0.509103 0.0893909 0)
(0.493285 0.0902707 0)
(0.477529 0.0926689 0)
(0.461631 0.0945252 0)
(0.445775 0.0953168 0)
(0.430029 0.0961071 0)
(0.414273 0.097406 0)
(0.398311 0.0988788 0)
(0.382019 0.100146 0)
(0.365419 0.101236 0)
(0.348619 0.102299 0)
(0.331775 0.10328 0)
(0.315065 0.10421 0)
(0.298558 0.105101 0)
(0.282171 0.105858 0)
(0.265733 0.106749 0)
(0.24901 0.107828 0)
(0.231824 0.108757 0)
(0.214127 0.109811 0)
(0.195905 0.110965 0)
(0.177251 0.111786 0)
(0.158387 0.113085 0)
(0.139538 0.115267 0)
(0.120866 0.117365 0)
(0.102583 0.119585 0)
(0.0846567 0.12267 0)
(0.0666694 0.125922 0)
(0.0482822 0.128825 0)
(0.0292877 0.130424 0)
(0.0100587 0.132866 0)
(3 -2.02325e-16 0)
(3 -1.02943e-16 0)
(3 -1.98351e-16 0)
(3 -2.48989e-17 0)
(3 -8.74893e-17 0)
(3 1.1048e-16 0)
(3 3.36189e-16 0)
(3 1.53578e-15 0)
(3 2.00552e-15 0)
(3 2.30415e-15 0)
(3 2.64434e-15 0)
(3 2.48385e-15 0)
(3 2.0188e-15 0)
(3 2.25612e-15 0)
(3 2.22798e-15 0)
(3 1.86154e-15 0)
(3 1.45288e-15 0)
(3 -5.60918e-16 0)
(3 -1.63289e-15 0)
(3 -1.92119e-15 0)
(3 -1.77056e-15 0)
(3 -1.53802e-15 0)
(3 -1.19399e-15 0)
(3 -7.25236e-16 0)
(3 -1.0779e-15 0)
(3 -9.21565e-16 0)
(3 -4.39768e-16 0)
(3 1.92431e-15 0)
(3 2.23871e-15 0)
(3 9.21102e-16 0)
(3 1.47256e-16 0)
(3 9.80118e-17 0)
(3 2.75215e-16 0)
(3 2.08675e-16 0)
(3 1.02701e-16 0)
(3 -2.07395e-16 0)
(3 -6.78801e-16 0)
(3 -1.18388e-15 0)
(3 -6.5704e-16 0)
(3 -2.07986e-17 0)
(3 -9.50415e-17 0)
(3 1.65501e-16 0)
(3 8.20951e-16 0)
(3 1.6627e-15 0)
(3 2.84674e-15 0)
(3 1.67202e-15 0)
(3 1.10892e-15 0)
(3 1.73583e-15 0)
(3 1.58289e-15 0)
(3 -2.37612e-17 0)
(3 -1.5213e-15 0)
(3 -1.41918e-15 0)
(3 -8.55847e-16 0)
(3 -8.73757e-16 0)
(3 -1.20252e-16 0)
(3 -9.04668e-17 0)
(3 -6.98719e-17 0)
(3 2.34367e-16 0)
(3 1.20028e-15 0)
(3 9.0864e-16 0)
(3 -1.91198e-16 0)
(3 -9.56412e-16 0)
(3 -8.13857e-16 0)
(3 -2.10673e-16 0)
(3 -3.83368e-17 0)
(3 2.00265e-16 0)
(3 3.05e-16 0)
(3 -1.08968e-16 0)
(3 -8.12205e-16 0)
(3 1.11736e-16 0)
(3 2.23317e-15 0)
(3 2.93587e-15 0)
(3 2.63345e-15 0)
(3 6.81972e-16 0)
(3 -9.26914e-16 0)
(3 -1.57428e-15 0)
(3 -1.19338e-15 0)
(3 -9.04934e-16 0)
(3 -6.87174e-16 0)
(3 -2.31933e-16 0)
(3 1.44347e-15 0)
(3 3.05592e-15 0)
(3 3.05805e-15 0)
(3 2.78045e-15 0)
(3 3.42354e-15 0)
(3 3.32128e-15 0)
(3 2.3737e-15 0)
(3 1.51827e-15 0)
(3 1.13183e-15 0)
(3 -8.16663e-16 0)
(3 -1.18895e-15 0)
(3 -1.24036e-15 0)
(3 -2.25327e-15 0)
(3 -2.42716e-15 0)
(3 -2.65819e-15 0)
(3 -3.37303e-15 0)
(3 -3.83294e-15 0)
(3 -3.94821e-15 0)
(3 -2.51368e-15 0)
(3 -1.099e-15 0)
(3 -6.78696e-16 0)
(3 5.46614e-16 0)
(3 9.08718e-16 0)
(3 5.33066e-16 0)
(3 -1.33158e-16 0)
(3 -5.96671e-16 0)
(3 -1.65679e-15 0)
(3 -2.75299e-15 0)
(3 -2.53808e-15 0)
(3 -1.82868e-15 0)
(3 -1.3008e-15 0)
(3 -1.5456e-15 0)
(3 -2.57502e-15 0)
(3 -2.70075e-15 0)
(3 -2.54621e-15 0)
(3 -2.33049e-15 0)
(3 -2.55723e-15 0)
(3 -2.91132e-15 0)
(3 -1.95238e-15 0)
(3 -1.78947e-15 0)
(3 -2.12075e-15 0)
(3 -1.591e-15 0)
(3 -1.15549e-15 0)
(3 -6.6292e-16 0)
(3 5.54512e-16 0)
(3 1.46711e-15 0)
(3 1.89339e-15 0)
(3 1.44223e-15 0)
(3 4.57885e-16 0)
(3 2.20686e-17 0)
(3 7.93212e-16 0)
(3 1.60937e-15 0)
(3 1.87218e-15 0)
(3 2.18869e-15 0)
(3 2.49268e-15 0)
(3 1.51362e-15 0)
(3 6.22818e-16 0)
(3 2.90014e-16 0)
(3 2.2135e-16 0)
(3 -4.51615e-16 0)
(3 -9.41148e-16 0)
(3 -1.24613e-15 0)
(3 -1.54538e-15 0)
(2.9672 0.0113958 0)
(1.05762 0.105227 0)
(0.773402 0.0872469 0)
(0.7594 0.0808644 0)
(0.74309 0.084043 0)
(0.727134 0.0889929 0)
(0.711854 0.0931552 0)
(0.696985 0.0940047 0)
(0.682205 0.0925316 0)
(0.666911 0.0908997 0)
(0.651333 0.0911504 0)
(0.636486 0.0940276 0)
(0.622506 0.0976296 0)
(0.608541 0.0988183 0)
(0.594204 0.0974141 0)
(0.578755 0.0973943 0)
(0.562799 0.100756 0)
(0.546392 0.104239 0)