/*--------------------------------*- C++ -*----------------------------------*\
  =========                 |
  \\      /  F ield         | OpenFOAM: The Open Source CFD Toolbox
   \\    /   O peration     | Website:  https://openfoam.org
    \\  /    A nd           | Version:  7
     \\/     M anipulation  |
\*---------------------------------------------------------------------------*/
FoamFile
{
    version     2.0;
    format      ascii;
    class       volVectorField;
    location    "1";
    object      U;
}
// * * * * * * * * * * * * * * * * * * * * * * * * * * * * * * * * * * * * * //

dimensions      [0 1 -1 0 0 0 0];

internalField   nonuniform List<vector> 
16192
(
(2.94181 -0.000189398 0)
(2.93526 -0.00470866 0)
(2.93126 -0.0077086 0)
(2.93213 -0.00869485 0)
(2.93408 -0.00866232 0)
(2.93636 -0.00847316 0)
(2.93888 -0.00799172 0)
(2.94146 -0.00672804 0)
(2.94509 -0.00489086 0)
(2.94945 -0.00326617 0)
(2.95298 -0.00310587 0)
(2.9555 -0.0038723 0)
(2.95721 -0.00520763 0)
(2.95818 -0.0065909 0)
(2.95908 -0.00806331 0)
(2.95928 -0.00941432 0)
(2.9589 -0.0106427 0)
(2.95871 -0.0117138 0)
(2.95909 -0.0125667 0)
(2.96033 -0.013297 0)
(2.96189 -0.0136953 0)
(2.96598 -0.0137617 0)
(2.97265 -0.0123352 0)
(2.9753 -0.0113496 0)
(2.97838 -0.0104223 0)
(2.98165 -0.00949886 0)
(2.98468 -0.00874534 0)
(2.98665 -0.00794611 0)
(2.98594 -0.00703793 0)
(2.98464 -0.00726077 0)
(2.98533 -0.00856505 0)
(2.9889 -0.00866553 0)
(2.99054 -0.00895987 0)
(2.99209 -0.0108773 0)
(2.99307 -0.0121327 0)
(2.99503 -0.0129097 0)
(2.9985 -0.0154532 0)
(3.0015 -0.0185087 0)
(3.00294 -0.0215376 0)
(3.00488 -0.0244365 0)
(3.00675 -0.0265952 0)
(3.00824 -0.0279946 0)
(3.01032 -0.0293185 0)
(3.01276 -0.0314735 0)
(3.014 -0.0327639 0)
(3.01451 -0.0330162 0)
(3.01524 -0.0334562 0)
(3.01598 -0.0341587 0)
(3.0167 -0.0350536 0)
(3.0174 -0.0360163 0)
(3.01797 -0.0371609 0)
(3.01761 -0.0385586 0)
(3.01527 -0.0409041 0)
(3.01395 -0.0434781 0)
(3.01461 -0.0445302 0)
(3.01546 -0.0448719 0)
(3.01631 -0.0451832 0)
(3.0167 -0.0459735 0)
(3.01636 -0.0474846 0)
(3.01599 -0.0484867 0)
(3.01585 -0.0489771 0)
(3.0159 -0.0493345 0)
(3.01687 -0.0482987 0)
(3.01847 -0.0458348 0)
(3.01952 -0.0435518 0)
(3.01969 -0.0428024 0)
(3.01921 -0.0433374 0)
(3.01877 -0.0441358 0)
(3.01827 -0.0453689 0)
(3.0188 -0.0477023 0)
(3.01996 -0.0498854 0)
(3.0212 -0.0511866 0)
(3.02247 -0.0517419 0)
(3.02322 -0.0518804 0)
(3.02402 -0.0515818 0)
(3.02425 -0.0507179 0)
(3.0238 -0.0493813 0)
(3.02333 -0.0473202 0)
(3.02345 -0.0439182 0)
(3.02276 -0.0413016 0)
(3.01997 -0.0412172 0)
(3.01772 -0.0418143 0)
(3.01506 -0.0425727 0)
(3.01147 -0.0437332 0)
(3.00845 -0.046518 0)
(3.00628 -0.0491334 0)
(3.00583 -0.0498481 0)
(3.00637 -0.0495788 0)
(3.00769 -0.0484537 0)
(3.01117 -0.0451136 0)
(3.01586 -0.0398104 0)
(3.01882 -0.0367099 0)
(3.01961 -0.0363068 0)
(3.02005 -0.0366485 0)
(3.0187 -0.03809 0)
(3.01518 -0.0406495 0)
(3.01159 -0.0433943 0)
(3.01002 -0.0439911 0)
(3.00749 -0.0445028 0)
(3.00561 -0.043437 0)
(3.00639 -0.0392757 0)
(3.00981 -0.0336869 0)
(3.01256 -0.030234 0)
(3.01328 -0.0293046 0)
(3.01333 -0.0293841 0)
(3.01342 -0.0298705 0)
(3.01307 -0.0306383 0)
(3.0108 -0.0320385 0)
(3.00527 -0.0344925 0)
(3.00132 -0.0359433 0)
(2.9996 -0.0364065 0)
(2.996 -0.0372206 0)
(2.99256 -0.037871 0)
(2.98946 -0.0382032 0)
(2.98708 -0.0380365 0)
(2.98617 -0.038064 0)
(2.98787 -0.0382958 0)
(2.99203 -0.0377087 0)
(2.99752 -0.0355639 0)
(3.00286 -0.0319632 0)
(3.00791 -0.0275272 0)
(3.01176 -0.0228872 0)
(3.01211 -0.0199783 0)
(3.01103 -0.0181564 0)
(3.00934 -0.0171673 0)
(3.00572 -0.0157451 0)
(2.99996 -0.0153166 0)
(2.99497 -0.0152238 0)
(2.98731 -0.0159299 0)
(2.98011 -0.0181455 0)
(2.9774 -0.0193146 0)
(2.97645 -0.0192483 0)
(2.9769 -0.0185909 0)
(2.98013 -0.0165466 0)
(2.9851 -0.013433 0)
(2.98807 -0.0116736 0)
(2.98966 -0.0114705 0)
(2.99008 -0.0121027 0)
(2.9875 -0.0133182 0)
(2.98611 -0.0136287 0)
(2.98499 -0.013256 0)
(2.98279 -0.0116354 0)
(2.98061 -0.00889752 0)
(2.98017 -0.0044266 0)
(2.98276 0.00268692 0)
(2.98375 0.00829644 0)
(2.98148 0.00938868 0)
(2.97959 0.00981342 0)
(2.97642 0.0100571 0)
(2.97158 0.00843639 0)
(2.96606 0.00406256 0)
(2.96092 -0.00159195 0)
(2.95812 -0.00470281 0)
(2.9574 -0.00527628 0)
(2.95738 -0.00498578 0)
(2.95766 -0.00334311 0)
(2.95967 0.00180348 0)
(2.96686 0.0136758 0)
(2.98057 0.0317779 0)
(2.98947 0.043066 0)
(2.98954 0.0450447 0)
(2.98863 0.045088 0)
(2.9876 0.0450391 0)
(2.98534 0.044356 0)
(2.98194 0.042235 0)
(2.97517 0.0353689 0)
(2.96271 0.0225304 0)
(2.95373 0.0143942 0)
(2.95253 0.0133728 0)
(2.95235 0.0132429 0)
(2.9521 0.013513 0)
(2.95222 0.0148248 0)
(2.95355 0.0183719 0)
(2.95761 0.0259904 0)
(2.96512 0.037342 0)
(2.97146 0.0455931 0)
(2.97262 0.0470463 0)
(2.97247 0.0470016 0)
(2.97172 0.0466789 0)
(2.96952 0.045446 0)
(2.96491 0.0426069 0)
(2.95566 0.0392854 0)
(2.94922 0.0335598 0)
(2.94695 0.0301433 0)
(2.94463 0.0225816 0)
(2.94304 0.0114111 0)
(2.94142 -0.00404089 0)
(2.93968 -0.0239237 0)
(2.93865 -0.0479025 0)
(2.9398 -0.0770344 0)
(2.94278 -0.110428 0)
(2.94261 -0.148261 0)
(2.93808 -0.188139 0)
(2.93059 -0.230953 0)
(2.92329 -0.272919 0)
(2.91649 -0.313764 0)
(2.90964 -0.353627 0)
(2.90565 -0.386391 0)
(2.90528 -0.412869 0)
(2.90587 -0.439671 0)
(2.90955 -0.46303 0)
(2.91817 -0.470509 0)
(2.92275 -0.477567 0)
(2.91734 -0.48811 0)
(2.91593 -0.489033 0)
(2.90929 -0.490515 0)
(2.90059 -0.498835 0)
(2.89937 -0.501686 0)
(2.89486 -0.50853 0)
(2.89128 -0.523905 0)
(2.8905 -0.5264 0)
(2.89326 -0.518941 0)
(2.89905 -0.51479 0)
(2.90448 -0.515804 0)
(2.91139 -0.512259 0)
(2.91949 -0.50482 0)
(2.93003 -0.500053 0)
(2.9387 -0.49941 0)
(2.94038 -0.499892 0)
(2.94317 -0.503992 0)
(2.94432 -0.512988 0)
(2.9398 -0.522506 0)
(2.92749 -0.529117 0)
(2.91892 -0.531341 0)
(2.91959 -0.530845 0)
(2.92406 -0.53002 0)
(2.9281 -0.527945 0)
(2.93384 -0.523481 0)
(2.94129 -0.513404 0)
(2.94531 -0.504993 0)
(2.94657 -0.500425 0)
(2.94593 -0.49599 0)
(2.94075 -0.494639 0)
(2.93962 -0.497343 0)
(2.94405 -0.498995 0)
(2.94789 -0.50182 0)
(2.95431 -0.50795 0)
(2.96159 -0.517874 0)
(2.96597 -0.526059 0)
(2.96728 -0.533261 0)
(2.96617 -0.536108 0)
(2.96183 -0.536254 0)
(2.95888 -0.537153 0)
(2.96036 -0.538482 0)
(2.96204 -0.539606 0)
(2.96657 -0.540137 0)
(2.97722 -0.535962 0)
(2.98996 -0.524616 0)
(2.99881 -0.513045 0)
(3.00319 -0.506963 0)
(3.00429 -0.504945 0)
(3.00331 -0.502854 0)
(3.00303 -0.502489 0)
(2.93803 -0.00582449 0)
(2.9344 -0.00868284 0)
(2.93314 -0.0095314 0)
(2.93418 -0.00964432 0)
(2.93614 -0.00957313 0)
(2.93838 -0.0093979 0)
(2.94084 -0.00856813 0)
(2.94387 -0.00662437 0)
(2.94749 -0.00476072 0)
(2.95052 -0.0041721 0)
(2.95344 -0.00427692 0)
(2.9556 -0.00493506 0)
(2.95712 -0.00616466 0)
(2.95786 -0.0081621 0)
(2.95786 -0.0101013 0)
(2.95742 -0.0118219 0)
(2.95734 -0.0123903 0)
(2.95768 -0.012459 0)
(2.95853 -0.0126151 0)
(2.95976 -0.0127428 0)
(2.96257 -0.0126897 0)
(2.96901 -0.0114261 0)
(2.97563 -0.00946742 0)
(2.97751 -0.00885807 0)
(2.98076 -0.00866443 0)
(2.98417 -0.00897692 0)
(2.9869 -0.00903024 0)
(2.98801 -0.00883838 0)
(2.98573 -0.0088272 0)
(2.9841 -0.00860298 0)
(2.98479 -0.00929164 0)
(2.98785 -0.0103316 0)
(2.99047 -0.0105568 0)
(2.99236 -0.0121963 0)
(2.99368 -0.0137226 0)
(2.99586 -0.0144823 0)
(2.99853 -0.0169786 0)
(3.00112 -0.0207451 0)
(3.00287 -0.0239049 0)
(3.0046 -0.0262459 0)
(3.00624 -0.0279046 0)
(3.00756 -0.0291867 0)
(3.0092 -0.0301798 0)
(3.01171 -0.0316868 0)
(3.01396 -0.0335928 0)
(3.01483 -0.034289 0)
(3.01522 -0.0344392 0)
(3.016 -0.0349117 0)
(3.01681 -0.0357047 0)
(3.01751 -0.036778 0)
(3.01797 -0.0381416 0)
(3.01732 -0.040182 0)
(3.01474 -0.043124 0)
(3.0136 -0.0454756 0)
(3.01454 -0.046329 0)
(3.01562 -0.0466602 0)
(3.01668 -0.0468713 0)
(3.01719 -0.0470708 0)
(3.01703 -0.0474257 0)
(3.01703 -0.0476391 0)
(3.01729 -0.0479513 0)
(3.01824 -0.04719 0)
(3.02014 -0.0444971 0)
(3.02133 -0.0419433 0)
(3.02101 -0.0413837 0)
(3.0204 -0.0417995 0)
(3.01992 -0.042696 0)
(3.01893 -0.0442046 0)
(3.01837 -0.0473444 0)
(3.01932 -0.0504233 0)
(3.02031 -0.0516668 0)
(3.02132 -0.0521598 0)
(3.023 -0.0520136 0)
(3.02474 -0.0504616 0)
(3.02599 -0.0481479 0)
(3.02654 -0.0463495 0)
(3.02673 -0.0448439 0)
(3.02719 -0.0426681 0)
(3.02633 -0.041094 0)
(3.02326 -0.0412475 0)
(3.02054 -0.0422382 0)
(3.01793 -0.0433723 0)
(3.01441 -0.0444002 0)
(3.01074 -0.0468039 0)
(3.00819 -0.0487887 0)
(3.00726 -0.049115 0)
(3.00729 -0.0487002 0)
(3.00828 -0.0471611 0)
(3.01123 -0.0439164 0)
(3.01549 -0.0395694 0)
(3.01785 -0.0375219 0)
(3.01888 -0.0371551 0)
(3.01975 -0.0373351 0)
(3.01917 -0.0385766 0)
(3.01692 -0.0406944 0)
(3.01384 -0.0432224 0)
(3.01284 -0.0437415 0)
(3.01101 -0.0437678 0)
(3.0093 -0.0423864 0)
(3.00999 -0.0382674 0)
(3.01338 -0.0325123 0)
(3.01447 -0.0300635 0)
(3.01399 -0.0303524 0)
(3.01382 -0.0308188 0)
(3.01356 -0.0312714 0)
(3.01314 -0.0322118 0)
(3.01192 -0.0336579 0)
(3.00832 -0.0361657 0)
(3.00227 -0.0394718 0)
(2.99955 -0.0403707 0)
(2.9976 -0.0403696 0)
(2.99435 -0.0404526 0)
(2.99114 -0.0412252 0)
(2.98932 -0.0422409 0)
(2.98906 -0.042172 0)
(2.9907 -0.0398203 0)
(2.99496 -0.0349146 0)
(3.00093 -0.028566 0)
(3.00634 -0.0236036 0)
(3.00993 -0.0211307 0)
(3.01189 -0.0200237 0)
(3.0139 -0.019768 0)
(3.01408 -0.0201261 0)
(3.01121 -0.0202084 0)
(3.00822 -0.0202379 0)
(3.00338 -0.0208152 0)
(2.99648 -0.0224329 0)
(2.98874 -0.0241539 0)
(2.98291 -0.0252133 0)
(2.98021 -0.0249548 0)
(2.97773 -0.0232829 0)
(2.97855 -0.0203319 0)
(2.98254 -0.0158028 0)
(2.98774 -0.0111283 0)
(2.99007 -0.00929712 0)
(2.99133 -0.00933095 0)
(2.99172 -0.0111166 0)
(2.98881 -0.0136619 0)
(2.98664 -0.0148006 0)
(2.98608 -0.0148085 0)
(2.9847 -0.0139543 0)
(2.98301 -0.0116903 0)
(2.98264 -0.00741006 0)
(2.98564 -6.97146e-06 0)
(2.98819 0.00706997 0)
(2.98628 0.0090161 0)
(2.9843 0.00957446 0)
(2.9812 0.010164 0)
(2.97554 0.00878361 0)
(2.96859 0.00452399 0)
(2.96243 -0.000806124 0)
(2.95967 -0.00353907 0)
(2.95933 -0.00387355 0)
(2.95957 -0.00355749 0)
(2.9605 -0.00215506 0)
(2.96311 0.0025765 0)
(2.97079 0.0139192 0)
(2.98482 0.0304131 0)
(2.99295 0.0404289 0)
(2.99241 0.0421568 0)
(2.99119 0.0423448 0)
(2.98981 0.0424671 0)
(2.98808 0.042456 0)
(2.98487 0.0415127 0)
(2.97833 0.0355153 0)
(2.96611 0.0229503 0)
(2.95618 0.0142605 0)
(2.95431 0.0124207 0)
(2.95419 0.0119573 0)
(2.95405 0.0114829 0)
(2.95401 0.0126744 0)
(2.95495 0.0163938 0)
(2.95879 0.0245013 0)
(2.96738 0.034967 0)
(2.97314 0.0389714 0)
(2.97315 0.0364809 0)
(2.97195 0.0323643 0)
(2.96985 0.0246546 0)
(2.96651 0.0145842 0)
(2.95785 -0.00276593 0)
(2.95 -0.0248594 0)
(2.94226 -0.047882 0)
(2.93381 -0.0763598 0)
(2.92609 -0.110641 0)
(2.91945 -0.14948 0)
(2.91413 -0.190589 0)
(2.90879 -0.234477 0)
(2.9061 -0.275499 0)
(2.90636 -0.313738 0)
(2.90962 -0.346759 0)
(2.91082 -0.378045 0)
(2.90804 -0.406458 0)
(2.90185 -0.431471 0)
(2.89877 -0.450279 0)
(2.89212 -0.475026 0)
(2.88743 -0.500092 0)
(2.89174 -0.506714 0)
(2.89368 -0.518663 0)
(2.89569 -0.531905 0)
(2.90209 -0.529264 0)
(2.91253 -0.521653 0)
(2.91506 -0.529445 0)
(2.91528 -0.531634 0)
(2.91592 -0.531578 0)
(2.9154 -0.533087 0)
(2.91092 -0.532921 0)
(2.90201 -0.534132 0)
(2.89578 -0.532459 0)
(2.89499 -0.527896 0)
(2.89674 -0.521572 0)
(2.89824 -0.518301 0)
(2.89936 -0.520148 0)
(2.90183 -0.518271 0)
(2.90737 -0.509918 0)
(2.91663 -0.500306 0)
(2.92568 -0.495989 0)
(2.93105 -0.500653 0)
(2.93461 -0.508092 0)
(2.93607 -0.511597 0)
(2.93882 -0.517733 0)
(2.93966 -0.525259 0)
(2.93687 -0.530302 0)
(2.93196 -0.529179 0)
(2.92821 -0.523958 0)
(2.93178 -0.52117 0)
(2.93597 -0.520462 0)
(2.94286 -0.518953 0)
(2.95228 -0.51257 0)
(2.95798 -0.505143 0)
(2.96026 -0.501949 0)
(2.95994 -0.49872 0)
(2.95087 -0.497054 0)
(2.93844 -0.497023 0)
(2.93915 -0.498925 0)
(2.94356 -0.500042 0)
(2.94787 -0.502757 0)
(2.95306 -0.510002 0)
(2.95881 -0.522813 0)
(2.96273 -0.533133 0)
(2.96489 -0.535462 0)
(2.96401 -0.539139 0)
(2.96085 -0.542684 0)
(2.96104 -0.543717 0)
(2.96362 -0.543317 0)
(2.96678 -0.540697 0)
(2.97529 -0.532693 0)
(2.9878 -0.518933 0)
(3.00111 -0.50693 0)
(3.00732 -0.503578 0)
(3.00924 -0.503984 0)
(3.01011 -0.505527 0)
(3.00683 -0.511025 0)
(3.00089 -0.515412 0)
(2.93666 -0.00923265 0)
(2.93599 -0.0112834 0)
(2.93628 -0.0113924 0)
(2.93712 -0.0106455 0)
(2.93888 -0.00988673 0)
(2.9409 -0.00934412 0)
(2.94349 -0.00804422 0)
(2.9462 -0.00641371 0)
(2.94912 -0.00539029 0)
(2.95154 -0.00495522 0)
(2.95364 -0.00500925 0)
(2.95542 -0.00580746 0)
(2.95642 -0.00734216 0)
(2.95658 -0.00940339 0)
(2.95595 -0.0119821 0)
(2.95574 -0.013266 0)
(2.9561 -0.0135057 0)
(2.95679 -0.0135367 0)
(2.95797 -0.0133709 0)
(2.96028 -0.0127236 0)
(2.96541 -0.0108084 0)
(2.97265 -0.00787185 0)
(2.9771 -0.0068582 0)
(2.97889 -0.00703545 0)
(2.98236 -0.00756298 0)
(2.98554 -0.00811992 0)
(2.98793 -0.00870857 0)
(2.98829 -0.00959091 0)
(2.98511 -0.0107832 0)
(2.98294 -0.0111934 0)
(2.98426 -0.0107703 0)
(2.98611 -0.011593 0)
(2.98954 -0.0129378 0)
(2.99199 -0.0146683 0)
(2.99352 -0.0160061 0)
(2.99557 -0.0168009 0)
(2.99799 -0.0188296 0)
(3.00044 -0.0229007 0)
(3.00259 -0.0258268 0)
(3.00439 -0.0275689 0)
(3.00607 -0.0289965 0)
(3.00742 -0.0304204 0)
(3.00889 -0.0314282 0)
(3.01117 -0.0324995 0)
(3.01372 -0.0342599 0)
(3.01519 -0.0353674 0)
(3.01545 -0.0355265 0)
(3.01597 -0.0358703 0)
(3.01674 -0.0365647 0)
(3.01743 -0.0377214 0)
(3.0176 -0.039549 0)
(3.01644 -0.0421082 0)
(3.0141 -0.0451722 0)
(3.01409 -0.0468146 0)
(3.01531 -0.0472542 0)
(3.01652 -0.0473614 0)
(3.01752 -0.0472171 0)
(3.01799 -0.0468376 0)
(3.01813 -0.04672 0)
(3.01858 -0.0466276 0)
(3.01986 -0.0454785 0)
(3.02193 -0.0427486 0)
(3.02304 -0.0406698 0)
(3.02232 -0.040447 0)
(3.0216 -0.0407171 0)
(3.02106 -0.0414196 0)
(3.02006 -0.0428247 0)
(3.01914 -0.0456782 0)
(3.01917 -0.0489162 0)
(3.01969 -0.0505526 0)
(3.02047 -0.0513647 0)
(3.02205 -0.0517177 0)
(3.02459 -0.0503632 0)
(3.02725 -0.0469422 0)
(3.02881 -0.0441171 0)
(3.02928 -0.0431285 0)
(3.02932 -0.0424733 0)
(3.02876 -0.0417298 0)
(3.026 -0.042121 0)
(3.02319 -0.0427228 0)
(3.02069 -0.0439777 0)
(3.01749 -0.0452662 0)
(3.01367 -0.0475206 0)
(3.01101 -0.048943 0)
(3.01001 -0.0490428 0)
(3.00951 -0.0484412 0)
(3.00983 -0.0466159 0)
(3.01222 -0.0433093 0)
(3.01562 -0.0398818 0)
(3.0173 -0.038743 0)
(3.01802 -0.038573 0)
(3.01882 -0.0384948 0)
(3.01876 -0.039209 0)
(3.01754 -0.0410637 0)
(3.01565 -0.0430194 0)
(3.01494 -0.0434101 0)
(3.01422 -0.0431176 0)
(3.01308 -0.041802 0)
(3.01363 -0.0384261 0)
(3.0167 -0.0333824 0)
(3.01708 -0.0315764 0)
(3.01519 -0.0322842 0)
(3.014 -0.0332192 0)
(3.01334 -0.034306 0)
(3.01249 -0.0353703 0)
(3.01164 -0.0372547 0)
(3.00931 -0.0405676 0)
(3.00417 -0.043994 0)
(3.00053 -0.0445926 0)
(2.9998 -0.0443097 0)
(2.99779 -0.0427896 0)
(2.99468 -0.0403024 0)
(2.99165 -0.0380146 0)
(2.99024 -0.0357711 0)
(2.99257 -0.0318184 0)
(2.99859 -0.0252844 0)
(3.00527 -0.0190597 0)
(3.00917 -0.0165813 0)
(3.01052 -0.0165402 0)
(3.01298 -0.0177428 0)
(3.01476 -0.0193629 0)
(3.01438 -0.0206317 0)
(3.01291 -0.0218852 0)
(3.01009 -0.0236593 0)
(3.00483 -0.0270717 0)
(2.9973 -0.031283 0)
(2.99234 -0.0329141 0)
(2.98714 -0.0323617 0)
(2.98197 -0.030374 0)
(2.98059 -0.0266634 0)
(2.98217 -0.0208956 0)
(2.9865 -0.0137643 0)
(2.99121 -0.00795556 0)
(2.99284 -0.00612859 0)
(2.99375 -0.00614084 0)
(2.99373 -0.00827228 0)
(2.99021 -0.0126328 0)
(2.98644 -0.0163705 0)
(2.98566 -0.0171728 0)
(2.9852 -0.0170289 0)
(2.98451 -0.0153377 0)
(2.98468 -0.0113416 0)
(2.98804 -0.00392574 0)
(2.99248 0.0048991 0)
(2.9912 0.00834349 0)
(2.9888 0.00883094 0)
(2.98622 0.00962331 0)
(2.98048 0.00905006 0)
(2.97273 0.00537446 0)
(2.96525 0.000257129 0)
(2.96169 -0.00252656 0)
(2.96133 -0.00304404 0)
(2.96172 -0.00286241 0)
(2.96275 -0.00193071 0)
(2.96576 0.00212566 0)
(2.97355 0.0121538 0)
(2.98682 0.0276089 0)
(2.99585 0.0373293 0)
(2.99579 0.0394148 0)
(2.9933 0.0394556 0)
(2.9919 0.0396277 0)
(2.99012 0.0395347 0)
(2.98737 0.0385481 0)
(2.98105 0.0328493 0)
(2.9704 0.0222238 0)
(2.95914 0.0128398 0)
(2.95667 0.010018 0)
(2.95619 0.00871649 0)
(2.95559 0.00654845 0)
(2.9549 0.00506336 0)
(2.955 0.00464951 0)
(2.95848 0.00555871 0)
(2.96491 0.00204949 0)
(2.96738 -0.0113709 0)
(2.96378 -0.0335809 0)
(2.95766 -0.0618557 0)
(2.9508 -0.0964085 0)
(2.9415 -0.139706 0)
(2.93206 -0.184954 0)
(2.9224 -0.230876 0)
(2.91367 -0.275179 0)
(2.90594 -0.313622 0)
(2.89861 -0.346024 0)
(2.88985 -0.378724 0)
(2.88301 -0.408258 0)
(2.87858 -0.434577 0)
(2.87857 -0.45411 0)
(2.88074 -0.470316 0)
(2.8861 -0.48422 0)
(2.88823 -0.50198 0)
(2.89141 -0.503166 0)
(2.89302 -0.507342 0)
(2.88769 -0.518822 0)
(2.88249 -0.536689 0)
(2.88434 -0.541011 0)
(2.88893 -0.544417 0)
(2.89145 -0.556044 0)
(2.89598 -0.557842 0)
(2.90182 -0.551616 0)
(2.90872 -0.547615 0)
(2.9127 -0.543292 0)
(2.9141 -0.539457 0)
(2.91568 -0.536173 0)
(2.91667 -0.539092 0)
(2.91576 -0.543198 0)
(2.91524 -0.540196 0)
(2.91244 -0.531515 0)
(2.90686 -0.523753 0)
(2.90402 -0.519554 0)
(2.90361 -0.519027 0)
(2.90281 -0.516628 0)
(2.90227 -0.510104 0)
(2.90439 -0.502952 0)
(2.9122 -0.497566 0)
(2.92113 -0.49549 0)
(2.92535 -0.498242 0)
(2.92737 -0.503618 0)
(2.93012 -0.51067 0)
(2.93149 -0.516638 0)
(2.93517 -0.523881 0)
(2.93754 -0.530477 0)
(2.93827 -0.53179 0)
(2.93782 -0.526497 0)
(2.94116 -0.52166 0)
(2.94643 -0.520377 0)
(2.95279 -0.517681 0)
(2.96278 -0.512766 0)
(2.96943 -0.507794 0)
(2.97215 -0.506113 0)
(2.97354 -0.502613 0)
(2.96879 -0.498734 0)
(2.9538 -0.497255 0)
(2.93703 -0.501333 0)
(2.93498 -0.506909 0)
(2.9382 -0.510068 0)
(2.94103 -0.513086 0)
(2.94445 -0.518459 0)
(2.94929 -0.52658 0)
(2.95708 -0.536231 0)
(2.96298 -0.541571 0)
(2.96491 -0.541854 0)
(2.9667 -0.539925 0)
(2.96983 -0.535212 0)
(2.97406 -0.528472 0)
(2.97936 -0.521451 0)
(2.98945 -0.513162 0)
(2.99811 -0.507933 0)
(3.00315 -0.506996 0)
(3.0088 -0.508428 0)
(3.00979 -0.511525 0)
(3.00753 -0.514801 0)
(3.00139 -0.524491 0)
(2.99277 -0.526746 0)
(2.93814 -0.0103488 0)
(2.93909 -0.0111096 0)
(2.93982 -0.0113168 0)
(2.94087 -0.010937 0)
(2.942 -0.00969207 0)
(2.94351 -0.00831763 0)
(2.94555 -0.00762002 0)
(2.94802 -0.00701977 0)
(2.95028 -0.00629045 0)
(2.95199 -0.00594823 0)
(2.95328 -0.00631726 0)
(2.95423 -0.00735595 0)
(2.95488 -0.00907265 0)
(2.95482 -0.0110373 0)
(2.95456 -0.0123035 0)
(2.95475 -0.012685 0)
(2.95523 -0.0129656 0)
(2.95633 -0.0131267 0)
(2.9583 -0.0127086 0)
(2.96208 -0.0110342 0)
(2.96851 -0.00743141 0)
(2.97497 -0.00497578 0)
(2.97702 -0.0050769 0)
(2.98005 -0.00591123 0)
(2.9832 -0.00698995 0)
(2.98592 -0.00791241 0)
(2.98779 -0.0088314 0)
(2.98765 -0.0106917 0)
(2.98443 -0.013207 0)
(2.98213 -0.0138415 0)
(2.9832 -0.0132738 0)
(2.98512 -0.013886 0)
(2.98926 -0.0152826 0)
(2.99207 -0.0168439 0)
(2.99405 -0.0177376 0)
(2.99608 -0.0185981 0)
(2.99818 -0.0206839 0)
(3.00041 -0.0244126 0)
(3.00247 -0.0272244 0)
(3.00447 -0.0288544 0)
(3.00632 -0.0301253 0)
(3.00783 -0.031411 0)
(3.00922 -0.0323279 0)
(3.01137 -0.0332014 0)
(3.01388 -0.034654 0)
(3.01542 -0.0359676 0)
(3.01566 -0.0363255 0)
(3.01592 -0.0366265 0)
(3.0165 -0.0373157 0)
(3.01703 -0.0387386 0)
(3.01679 -0.0410521 0)
(3.01525 -0.0444264 0)
(3.01393 -0.0470699 0)
(3.01516 -0.0476881 0)
(3.01679 -0.0477839 0)
(3.01805 -0.0477923 0)
(3.01883 -0.0474279 0)
(3.01942 -0.0468725 0)
(3.02019 -0.0462813 0)
(3.02147 -0.0447373 0)
(3.02368 -0.0415423 0)
(3.0249 -0.0391295 0)
(3.0241 -0.0388821 0)
(3.02331 -0.0391669 0)
(3.0224 -0.0396822 0)
(3.02097 -0.0410375 0)
(3.02004 -0.043951 0)
(3.01987 -0.0469016 0)
(3.02025 -0.0486455 0)
(3.02062 -0.0493292 0)
(3.02161 -0.0496415 0)
(3.02386 -0.0490046 0)
(3.02727 -0.0469131 0)
(3.02971 -0.0447199 0)
(3.03074 -0.0440889 0)
(3.03117 -0.0439973 0)
(3.03094 -0.0434727 0)
(3.0283 -0.0431904 0)
(3.0255 -0.0433952 0)
(3.02324 -0.0443896 0)
(3.02027 -0.0457964 0)
(3.01683 -0.0481103 0)
(3.01466 -0.0492937 0)
(3.01352 -0.0492913 0)
(3.01234 -0.0485572 0)
(3.01239 -0.0466483 0)
(3.01417 -0.0436232 0)
(3.01634 -0.0409933 0)
(3.01736 -0.0402218 0)
(3.01774 -0.0401237 0)
(3.01818 -0.0401606 0)
(3.01815 -0.0402685 0)
(3.01733 -0.0413515 0)
(3.01652 -0.0425899 0)
(3.01641 -0.0427046 0)
(3.01646 -0.042141 0)
(3.01647 -0.0404733 0)
(3.01686 -0.0379318 0)
(3.01887 -0.0348131 0)
(3.01923 -0.0332037 0)
(3.01654 -0.033397 0)
(3.01457 -0.0340604 0)
(3.0133 -0.0351938 0)
(3.01194 -0.0358104 0)
(3.01059 -0.0371518 0)
(3.0084 -0.0408894 0)
(3.00395 -0.0464059 0)
(3.0011 -0.0488801 0)
(3.00078 -0.0490292 0)
(3.00016 -0.0488453 0)
(2.99856 -0.0473056 0)
(2.99651 -0.0439585 0)
(2.99597 -0.0385854 0)
(2.99846 -0.0302526 0)
(3.00439 -0.0204256 0)
(3.00948 -0.0143104 0)
(3.01067 -0.0127109 0)
(3.01101 -0.0128679 0)
(3.01233 -0.015778 0)
(3.0141 -0.0201012 0)
(3.01511 -0.0237855 0)
(3.01438 -0.0265253 0)
(3.01136 -0.0299554 0)
(3.00562 -0.0350988 0)
(2.99917 -0.0389915 0)
(2.99624 -0.0393342 0)
(2.99053 -0.0374067 0)
(2.98595 -0.0341454 0)
(2.98452 -0.0290789 0)
(2.9869 -0.0206492 0)
(2.99178 -0.010795 0)
(2.99529 -0.00476389 0)
(2.99592 -0.00334773 0)
(2.99618 -0.00341212 0)
(2.99568 -0.00600632 0)
(2.99247 -0.0108664 0)
(2.98748 -0.0165873 0)
(2.9854 -0.0191847 0)
(2.98527 -0.0195768 0)
(2.9852 -0.01908 0)
(2.98581 -0.0159492 0)
(2.9894 -0.00864647 0)
(2.99587 0.00191744 0)
(2.99674 0.00767321 0)
(2.99385 0.00843815 0)
(2.99128 0.00884912 0)
(2.98567 0.00844125 0)
(2.97743 0.00574461 0)
(2.96957 0.00145373 0)
(2.96488 -0.000561577 0)
(2.9636 -0.000544016 0)
(2.96404 -0.000154951 0)
(2.96473 0.000311077 0)
(2.96749 0.00276101 0)
(2.97429 0.0109392 0)
(2.98684 0.0242889 0)
(2.99686 0.0337494 0)
(2.99708 0.0348785 0)
(2.99578 0.0342979 0)
(2.99375 0.0331076 0)
(2.99033 0.0304431 0)
(2.98914 0.0283428 0)
(2.98501 0.0238129 0)
(2.97073 0.00946477 0)
(2.96123 -0.00637643 0)
(2.95691 -0.0166825 0)
(2.95261 -0.0328984 0)
(2.94873 -0.055147 0)
(2.94529 -0.0811206 0)
(2.94301 -0.108357 0)
(2.94296 -0.135114 0)
(2.94336 -0.16623 0)
(2.94059 -0.203939 0)
(2.93415 -0.243731 0)
(2.9249 -0.283805 0)
(2.91539 -0.324018 0)
(2.90643 -0.360881 0)
(2.89869 -0.395568 0)
(2.89077 -0.430992 0)
(2.88552 -0.460809 0)
(2.88481 -0.47892 0)
(2.88135 -0.500359 0)
(2.87538 -0.513879 0)
(2.87391 -0.517954 0)
(2.86997 -0.526347 0)
(2.86848 -0.528763 0)
(2.86848 -0.5379 0)
(2.87392 -0.534389 0)
(2.88415 -0.523215 0)
(2.88859 -0.524779 0)
(2.88759 -0.529458 0)
(2.88298 -0.541683 0)
(2.88364 -0.545968 0)
(2.88696 -0.548201 0)
(2.88805 -0.555425 0)
(2.89232 -0.562535 0)
(2.89835 -0.56352 0)
(2.90549 -0.559257 0)
(2.91251 -0.548535 0)
(2.91636 -0.538692 0)
(2.91726 -0.535926 0)
(2.91722 -0.536209 0)
(2.91525 -0.538689 0)
(2.91511 -0.537894 0)
(2.91722 -0.534688 0)
(2.92001 -0.529836 0)
(2.9216 -0.525137 0)
(2.91753 -0.520767 0)
(2.91165 -0.513796 0)
(2.90927 -0.509496 0)
(2.90872 -0.508432 0)
(2.90796 -0.504431 0)
(2.91011 -0.496828 0)
(2.91744 -0.491169 0)
(2.92194 -0.4926 0)
(2.92104 -0.496358 0)
(2.9199 -0.502697 0)
(2.92218 -0.509346 0)
(2.92725 -0.518337 0)
(2.93428 -0.525492 0)
(2.94047 -0.526355 0)
(2.94554 -0.52403 0)
(2.94712 -0.521772 0)
(2.95405 -0.518006 0)
(2.96165 -0.516422 0)
(2.9697 -0.513898 0)
(2.97562 -0.512285 0)
(2.98094 -0.511526 0)
(2.98276 -0.51116 0)
(2.98066 -0.510293 0)
(2.97333 -0.509553 0)
(2.95677 -0.509063 0)
(2.93759 -0.512143 0)
(2.93314 -0.515416 0)
(2.93487 -0.517697 0)
(2.93633 -0.520189 0)
(2.93839 -0.523371 0)
(2.94299 -0.526675 0)
(2.95062 -0.527516 0)
(2.9622 -0.527224 0)
(2.97209 -0.52521 0)
(2.97787 -0.521309 0)
(2.98309 -0.516014 0)
(2.99006 -0.510165 0)
(2.99329 -0.507215 0)
(2.99753 -0.507466 0)
(3.00016 -0.511852 0)
(3.00104 -0.516068 0)
(3.00203 -0.518419 0)
(3.00211 -0.518621 0)
(3.00026 -0.520443 0)
(2.99425 -0.531266 0)
(2.98568 -0.53009 0)
(2.94091 -0.00857407 0)
(2.94213 -0.00913056 0)
(2.94356 -0.00907632 0)
(2.9443 -0.00867775 0)
(2.94523 -0.00819873 0)
(2.94593 -0.00875919 0)
(2.94676 -0.00937182 0)
(2.94828 -0.00897126 0)
(2.94999 -0.00809568 0)
(2.95136 -0.00777324 0)
(2.95237 -0.00850243 0)
(2.9531 -0.00957399 0)
(2.95352 -0.0105558 0)
(2.95391 -0.0113525 0)
(2.95448 -0.0117697 0)
(2.95491 -0.0120873 0)
(2.95561 -0.0123716 0)
(2.95701 -0.0122757 0)
(2.9597 -0.0111748 0)
(2.96485 -0.00860466 0)
(2.97158 -0.00579539 0)
(2.97468 -0.00538477 0)
(2.97711 -0.0062343 0)
(2.98018 -0.00731851 0)
(2.98306 -0.00825713 0)
(2.98548 -0.00949421 0)
(2.98691 -0.0106924 0)
(2.98667 -0.0126467 0)
(2.98382 -0.0153412 0)
(2.98177 -0.0163137 0)
(2.98293 -0.0160997 0)
(2.98543 -0.0166139 0)
(2.9886 -0.0181972 0)
(2.99109 -0.0194315 0)
(2.99337 -0.0196189 0)
(2.99565 -0.020171 0)
(2.99781 -0.0224564 0)
(2.99991 -0.0260689 0)
(3.00225 -0.0285644 0)
(3.00439 -0.0298773 0)
(3.00637 -0.0309842 0)
(3.00807 -0.0321169 0)
(3.00984 -0.0330234 0)
(3.01224 -0.0338684 0)
(3.01462 -0.0347951 0)
(3.01567 -0.0359569 0)
(3.01573 -0.0365356 0)
(3.01577 -0.0370407 0)
(3.01608 -0.0379904 0)
(3.01619 -0.0396706 0)
(3.01547 -0.042964 0)
(3.01451 -0.0464898 0)
(3.01503 -0.047573 0)
(3.01666 -0.0472845 0)
(3.01846 -0.0468979 0)
(3.01984 -0.0463691 0)
(3.02076 -0.0459389 0)
(3.02193 -0.0455103 0)
(3.02329 -0.0440186 0)
(3.02537 -0.0404842 0)
(3.02685 -0.0373197 0)
(3.02611 -0.0368616 0)
(3.02532 -0.0370424 0)
(3.02442 -0.0373087 0)
(3.02263 -0.0383095 0)
(3.02077 -0.0414473 0)
(3.02011 -0.0450531 0)
(3.02063 -0.0466988 0)
(3.02128 -0.0472281 0)
(3.02214 -0.0476909 0)
(3.02385 -0.0478644 0)
(3.02655 -0.0473446 0)
(3.02939 -0.0465237 0)
(3.03116 -0.0455342 0)
(3.03214 -0.0450445 0)
(3.03275 -0.0449731 0)
(3.03144 -0.0449827 0)
(3.02814 -0.0450061 0)
(3.02607 -0.0454301 0)
(3.02297 -0.0465506 0)
(3.02055 -0.0481593 0)
(3.0186 -0.0489038 0)
(3.01648 -0.0489201 0)
(3.01517 -0.0479264 0)
(3.0155 -0.0457868 0)
(3.01704 -0.0432475 0)
(3.01794 -0.0417498 0)
(3.0182 -0.0413485 0)
(3.01829 -0.0413089 0)
(3.01833 -0.0415165 0)
(3.01796 -0.0417489 0)
(3.01722 -0.0422259 0)
(3.01708 -0.0426719 0)
(3.0174 -0.0426592 0)
(3.01795 -0.0421514 0)
(3.01891 -0.0402852 0)
(3.01984 -0.0375703 0)
(3.02059 -0.0354735 0)
(3.02119 -0.0346059 0)
(3.01966 -0.0354329 0)
(3.01697 -0.0365795 0)
(3.01515 -0.0381223 0)
(3.01362 -0.0398048 0)
(3.01159 -0.0413168 0)
(3.00907 -0.0440138 0)
(3.00545 -0.0471869 0)
(3.00221 -0.0479339 0)
(3.00134 -0.0472861 0)
(3.0011 -0.0465641 0)
(3.00056 -0.0443549 0)
(2.99983 -0.0401399 0)
(3.00037 -0.0334572 0)
(3.00393 -0.0240137 0)
(3.01 -0.0153817 0)
(3.01273 -0.0125755 0)
(3.01251 -0.012664 0)
(3.01229 -0.0131253 0)
(3.01217 -0.0146113 0)
(3.01299 -0.0171035 0)
(3.01428 -0.0205129 0)
(3.01383 -0.0252393 0)
(3.01011 -0.0321143 0)
(3.00393 -0.0402796 0)
(3.00036 -0.0439514 0)
(2.99844 -0.0443791 0)
(2.99519 -0.0431406 0)
(2.99178 -0.0390998 0)
(2.99054 -0.0315244 0)
(2.9934 -0.0195796 0)
(2.99801 -0.00798893 0)
(2.99945 -0.00277276 0)
(2.99909 -0.00182022 0)
(2.99839 -0.00201019 0)
(2.9969 -0.00455073 0)
(2.99388 -0.00952098 0)
(2.98886 -0.0168881 0)
(2.98619 -0.0208445 0)
(2.98614 -0.0212616 0)
(2.98646 -0.0213924 0)
(2.98718 -0.019691 0)
(2.9902 -0.0132623 0)
(2.99751 -0.00210834 0)
(3.00174 0.00663177 0)
(2.9991 0.00839184 0)
(2.99636 0.00858349 0)
(2.99176 0.00851911 0)
(2.98249 0.00563146 0)
(2.97367 0.00159088 0)
(2.96891 0.000840389 0)
(2.96684 0.000891603 0)
(2.96645 0.000934709 0)
(2.9669 0.00129929 0)
(2.96873 0.0035574 0)
(2.97444 0.00989424 0)
(2.98608 0.0197286 0)
(2.9952 0.0235479 0)
(2.99595 0.0196886 0)
(2.99412 0.0121483 0)
(2.99108 -0.000961719 0)
(2.98943 -0.0167011 0)
(2.98031 -0.0406257 0)
(2.96887 -0.0708975 0)
(2.95908 -0.105519 0)
(2.94909 -0.142297 0)
(2.93864 -0.179478 0)
(2.92918 -0.220832 0)
(2.92193 -0.263833 0)
(2.91628 -0.307999 0)
(2.91525 -0.345904 0)
(2.91627 -0.377407 0)
(2.91645 -0.404163 0)
(2.91341 -0.428945 0)
(2.90742 -0.45198 0)
(2.89998 -0.473559 0)
(2.89327 -0.487855 0)
(2.89329 -0.492897 0)
(2.88387 -0.507278 0)
(2.87594 -0.525521 0)
(2.87468 -0.535735 0)
(2.87439 -0.542311 0)
(2.87432 -0.547476 0)
(2.87844 -0.549919 0)
(2.87444 -0.551825 0)
(2.86995 -0.559089 0)
(2.86938 -0.56201 0)
(2.86967 -0.554417 0)
(2.87654 -0.537388 0)
(2.88503 -0.529303 0)
(2.88704 -0.529421 0)
(2.88554 -0.533462 0)
(2.88392 -0.540183 0)
(2.88546 -0.542138 0)
(2.88637 -0.546878 0)
(2.88951 -0.55368 0)
(2.89437 -0.555656 0)
(2.90091 -0.555327 0)
(2.90851 -0.552193 0)
(2.9161 -0.545013 0)
(2.92042 -0.539681 0)
(2.92104 -0.537698 0)
(2.9193 -0.535325 0)
(2.91554 -0.534563 0)
(2.91392 -0.53484 0)
(2.91651 -0.533922 0)
(2.92012 -0.533706 0)
(2.92366 -0.534054 0)
(2.92676 -0.531515 0)
(2.92596 -0.525416 0)
(2.92055 -0.517132 0)
(2.91682 -0.508134 0)
(2.91628 -0.502298 0)
(2.9154 -0.49364 0)
(2.91695 -0.48661 0)
(2.9197 -0.48745 0)
(2.91865 -0.490573 0)
(2.91611 -0.494232 0)
(2.91489 -0.499119 0)
(2.91605 -0.504605 0)
(2.92066 -0.512699 0)
(2.93061 -0.518105 0)
(2.94169 -0.516495 0)
(2.95259 -0.51114 0)
(2.9585 -0.50929 0)
(2.96609 -0.509897 0)
(2.97438 -0.51188 0)
(2.98035 -0.514989 0)
(2.98415 -0.517333 0)
(2.98344 -0.52028 0)
(2.98116 -0.524127 0)
(2.97822 -0.526893 0)
(2.97211 -0.526538 0)
(2.9573 -0.524574 0)
(2.94103 -0.520164 0)
(2.93413 -0.517603 0)
(2.9335 -0.516876 0)
(2.93351 -0.516581 0)
(2.93379 -0.51612 0)
(2.93733 -0.515877 0)
(2.94988 -0.513886 0)
(2.96873 -0.508414 0)
(2.98226 -0.502958 0)
(2.99036 -0.500314 0)
(2.99386 -0.499796 0)
(2.9988 -0.501613 0)
(3.00255 -0.50716 0)
(3.0006 -0.515226 0)
(2.99671 -0.522567 0)
(2.99514 -0.526047 0)
(2.99524 -0.529218 0)
(2.99514 -0.529516 0)
(2.9934 -0.528379 0)
(2.98962 -0.528265 0)
(2.98367 -0.52501 0)
(2.94405 -0.00723571 0)
(2.9456 -0.00801739 0)
(2.94647 -0.00834364 0)
(2.9469 -0.00868064 0)
(2.94669 -0.00903273 0)
(2.94686 -0.00977933 0)
(2.94751 -0.0107521 0)
(2.94839 -0.0111113 0)
(2.94958 -0.0105693 0)
(2.95066 -0.00970121 0)
(2.95168 -0.00968428 0)
(2.95264 -0.0102351 0)
(2.95343 -0.0106525 0)
(2.95434 -0.0107444 0)
(2.9552 -0.0106798 0)
(2.95593 -0.0105695 0)
(2.95693 -0.0104005 0)
(2.95871 -0.00983298 0)
(2.96225 -0.00841653 0)
(2.96845 -0.00616055 0)
(2.97297 -0.00528692 0)
(2.97475 -0.00582368 0)
(2.97765 -0.00729945 0)
(2.98006 -0.00864817 0)
(2.98233 -0.0097757 0)
(2.98415 -0.0111602 0)
(2.98491 -0.0129995 0)
(2.98407 -0.0154206 0)
(2.98195 -0.0177771 0)
(2.98143 -0.0185613 0)
(2.9832 -0.0189701 0)
(2.98579 -0.0197015 0)
(2.98854 -0.0205472 0)
(2.991 -0.0212654 0)