/*--------------------------------*- C++ -*----------------------------------*\
  =========                 |
  \\      /  F ield         | OpenFOAM: The Open Source CFD Toolbox
   \\    /   O peration     | Website:  https://openfoam.org
    \\  /    A nd           | Version:  7
     \\/     M anipulation  |
\*---------------------------------------------------------------------------*/
FoamFile
{
    version     2.0;
    format      ascii;
    class       volVectorField;
    location    "3.5";
    object      U;
}
// * * * * * * * * * * * * * * * * * * * * * * * * * * * * * * * * * * * * * //

dimensions      [0 1 -1 0 0 0 0];

internalField   nonuniform List<vector> 
16192
(
(3 1.58252e-18 0)
(3 2.0095e-17 0)
(3 -2.16115e-16 0)
(3 -3.12403e-16 0)
(3 -2.62453e-17 0)
(3 1.26291e-16 0)
(3 6.75131e-17 0)
(3 1.52748e-17 0)
(3 8.7461e-17 0)
(3 5.96567e-17 0)
(3 9.77532e-17 0)
(3 -2.64497e-16 0)
(3 -7.89019e-16 0)
(3 -9.36319e-16 0)
(3 -1.36528e-15 0)
(3 -1.22876e-15 0)
(3 -1.07224e-15 0)
(3 -6.95824e-16 0)
(3 -6.19782e-16 0)
(3 -4.39774e-16 0)
(3 -5.83091e-16 0)
(3 -4.72143e-16 0)
(3 -1.10441e-15 0)
(3 -1.23327e-15 0)
(3 -1.85207e-15 0)
(3 -1.51715e-15 0)
(3 5.07419e-16 0)
(3 8.85397e-16 0)
(3 1.48386e-15 0)
(3 1.2935e-15 0)
(3 4.94548e-16 0)
(3 4.59445e-16 0)
(3 6.41554e-16 0)
(3 4.57896e-16 0)
(3 3.68002e-16 0)
(3 -6.99561e-16 0)
(3 -6.51194e-16 0)
(3 -1.66587e-16 0)
(3 1.76542e-16 0)
(3 4.127e-17 0)
(3 -2.67957e-16 0)
(3 -2.95338e-17 0)
(3 4.60086e-16 0)
(3 8.50761e-16 0)
(3 3.5615e-16 0)
(3 1.42132e-16 0)
(3 2.28879e-16 0)
(3 5.57341e-17 0)
(3 -4.2715e-16 0)
(3 4.12002e-16 0)
(3 7.28374e-16 0)
(3 1.03755e-16 0)
(3 -5.77877e-16 0)
(3 -5.53714e-16 0)
(3 9.12923e-17 0)
(3 2.41981e-16 0)
(3 -1.55758e-16 0)
(3 -7.96158e-16 0)
(3 -1.07998e-15 0)
(3 -4.57823e-17 0)
(3 3.4878e-16 0)
(3 9.77753e-16 0)
(3 8.65086e-16 0)
(3 6.91228e-16 0)
(3 7.64066e-16 0)
(3 4.4066e-16 0)
(3 2.71806e-16 0)
(3 1.68397e-16 0)
(3 4.21291e-16 0)
(3 -5.32482e-16 0)
(3 -5.4488e-16 0)
(3 -3.34172e-16 0)
(3 -1.94249e-16 0)
(3 -6.79749e-16 0)
(3 -1.45234e-15 0)
(3 -1.3795e-15 0)
(3 -1.04028e-15 0)
(3 -9.1403e-16 0)
(3 3.48786e-16 0)
(3 6.68567e-16 0)
(3 6.94976e-16 0)
(3 1.69649e-16 0)
(3 -3.4908e-16 0)
(3 -7.95076e-17 0)
(3 4.33764e-16 0)
(3 7.1321e-16 0)
(3 1.24684e-15 0)
(3 1.5104e-15 0)
(3 1.30177e-15 0)
(3 7.15188e-16 0)
(3 9.83101e-16 0)
(3 1.68784e-15 0)
(3 1.24065e-15 0)
(3 6.4554e-16 0)
(3 1.08712e-16 0)
(3 -3.67326e-16 0)
(3 -3.31713e-16 0)
(3 -6.31548e-16 0)
(3 -8.19811e-16 0)
(3 -7.16577e-16 0)
(3 -3.3235e-16 0)
(3 -3.53191e-16 0)
(3 -1.43374e-16 0)
(3 -2.95706e-16 0)
(3 -3.06716e-16 0)
(3 -3.38123e-16 0)
(3 -6.64035e-16 0)
(3 -7.94148e-16 0)
(3 -1.03231e-15 0)
(3 -1.15108e-15 0)
(3 -6.07089e-16 0)
(3 -5.05532e-16 0)
(3 -4.91941e-16 0)
(3 -4.15648e-16 0)
(3 -8.40613e-16 0)
(3 -1.1778e-15 0)
(3 -9.10657e-16 0)
(3 -9.69079e-16 0)
(3 -1.32666e-15 0)
(3 -1.88157e-15 0)
(3 -1.65146e-15 0)
(3 -5.71045e-16 0)
(3 5.79892e-16 0)
(3 6.10389e-16 0)
(3 6.79005e-16 0)
(3 7.94837e-16 0)
(3 1.16511e-15 0)
(3 1.74282e-15 0)
(3 1.82593e-15 0)
(3 1.95606e-15 0)
(3 1.94655e-15 0)
(3 1.81926e-15 0)
(3 1.13161e-15 0)
(3 4.00396e-16 0)
(3 -1.32934e-16 0)
(3 2.12945e-16 0)
(3 -5.78609e-16 0)
(3 -1.39786e-15 0)
(3 -1.40585e-15 0)
(3 -2.44376e-16 0)
(3 -1.09501e-16 0)
(3 8.65253e-16 0)
(3 7.12457e-17 0)
(2.82627 0.00131893 0)
(0.980208 0.00436588 0)
(0.760213 0.00769477 0)
(0.74343 0.00529107 0)
(0.729543 0.00510949 0)
(0.716186 0.0054826 0)
(0.701647 0.0061578 0)
(0.685925 0.00685143 0)
(0.669664 0.0070429 0)
(0.654153 0.00647677 0)
(0.640116 0.00570956 0)
(0.626987 0.00547835 0)
(0.613507 0.0059025 0)
(0.598757 0.00669053 0)
(0.582841 0.00718596 0)
(0.567026 0.00688082 0)
(0.55223 0.00639652 0)
(0.537777 0.00647552 0)
(0.522714 0.00686488 0)
(0.507162 0.00708128 0)
(0.491793 0.00709676 0)
(0.476818 0.00712978 0)
(0.462014 0.00721623 0)
(0.447122 0.00729769 0)
(0.431956 0.0073822 0)
(0.416414 0.00748098 0)
(0.400533 0.0075696 0)
(0.384441 0.0076405 0)
(0.368232 0.00771029 0)
(0.351925 0.00778636 0)
(0.335508 0.00786376 0)
(0.318958 0.00793989 0)
(0.302244 0.00801581 0)
(0.285367 0.00809243 0)
(0.268405 0.0081713 0)
(0.251505 0.00825477 0)
(0.2348 0.00834425 0)
(0.218302 0.00843866 0)
(0.201858 0.00853959 0)
(0.185196 0.00865264 0)
(0.168047 0.00878711 0)
(0.150253 0.00895623 0)
(0.131801 0.0091708 0)
(0.112768 0.00942757 0)
(0.0932362 0.00970309 0)
(0.0732326 0.0099916 0)
(0.0527132 0.0102674 0)
(0.0317556 0.0103776 0)
(0.010786 0.0104549 0)
(3 -7.22045e-18 0)
(3 -1.00443e-16 0)
(3 -7.33336e-16 0)
(3 -6.78765e-16 0)
(3 -3.98102e-16 0)
(3 -4.01862e-17 0)
(3 -5.87396e-17 0)
(3 3.94078e-16 0)
(3 5.35664e-16 0)
(3 5.40812e-17 0)
(3 -1.98689e-16 0)
(3 -1.33853e-15 0)
(3 -1.82963e-15 0)
(3 -1.95248e-15 0)
(3 -1.99905e-15 0)
(3 -1.10517e-15 0)
(3 -9.87793e-16 0)
(3 -2.91247e-16 0)
(3 -6.07974e-16 0)
(3 -9.66421e-16 0)
(3 -1.71135e-15 0)
(3 -1.30517e-15 0)
(3 -2.08516e-15 0)
(3 -2.0119e-15 0)
(3 -1.88294e-15 0)
(3 -1.07003e-15 0)
(3 1.9492e-15 0)
(3 2.75329e-15 0)
(3 3.03536e-15 0)
(3 2.88275e-15 0)
(3 1.72823e-15 0)
(3 5.7836e-17 0)
(3 3.70152e-16 0)
(3 1.01347e-15 0)
(3 5.67143e-16 0)
(3 -4.40495e-16 0)
(3 -3.31799e-16 0)
(3 1.76855e-16 0)
(3 4.80607e-16 0)
(3 4.36451e-16 0)
(3 -1.557e-16 0)
(3 -1.80737e-16 0)
(3 2.51116e-15 0)
(3 3.43654e-15 0)
(3 1.89781e-15 0)
(3 1.36186e-15 0)
(3 3.83253e-16 0)
(3 -2.94874e-16 0)
(3 -1.15463e-15 0)
(3 1.53262e-16 0)
(3 8.93999e-16 0)
(3 6.80562e-16 0)
(3 -1.8517e-16 0)
(3 3.76254e-16 0)
(3 9.53103e-16 0)
(3 8.50118e-16 0)
(3 7.24634e-17 0)
(3 -7.90558e-16 0)
(3 -5.64934e-16 0)
(3 4.06983e-16 0)
(3 1.01796e-15 0)
(3 8.11184e-16 0)
(3 6.58922e-16 0)
(3 6.06448e-16 0)
(3 1.60879e-15 0)
(3 1.41966e-15 0)
(3 -8.06912e-18 0)
(3 -6.26066e-16 0)
(3 -5.45056e-16 0)
(3 -1.27766e-15 0)
(3 -2.22027e-15 0)
(3 -1.95655e-15 0)
(3 -1.58332e-15 0)
(3 -1.4818e-15 0)
(3 -4.07662e-15 0)
(3 -3.64634e-15 0)
(3 -1.83215e-15 0)
(3 -1.324e-15 0)
(3 2.23011e-16 0)
(3 3.19789e-16 0)
(3 -1.05911e-16 0)
(3 -2.73552e-16 0)
(3 1.7999e-16 0)
(3 8.79402e-16 0)
(3 1.10715e-15 0)
(3 1.41212e-15 0)
(3 1.91597e-15 0)
(3 2.50082e-15 0)
(3 2.06055e-15 0)
(3 1.58034e-15 0)
(3 2.05056e-15 0)
(3 2.30126e-15 0)
(3 9.57029e-16 0)
(3 4.32606e-16 0)
(3 -5.9197e-17 0)
(3 -2.02352e-16 0)
(3 -1.99366e-16 0)
(3 -7.11477e-17 0)
(3 4.71222e-16 0)
(3 6.72316e-16 0)
(3 5.54622e-16 0)
(3 4.28515e-16 0)
(3 -8.09565e-16 0)
(3 -4.88137e-16 0)
(3 -5.21631e-18 0)
(3 -1.68979e-16 0)
(3 -2.03917e-16 0)
(3 -2.55867e-16 0)
(3 -1.46176e-16 0)
(3 -1.43086e-15 0)
(3 -1.28915e-15 0)
(3 -1.9621e-16 0)
(3 -5.96798e-16 0)
(3 -4.29113e-16 0)
(3 -6.20115e-18 0)
(3 -4.71401e-16 0)
(3 -1.07739e-16 0)
(3 -2.42341e-16 0)
(3 -9.2648e-16 0)
(3 -2.00107e-15 0)
(3 -1.9095e-15 0)
(3 -1.08724e-15 0)
(3 1.20109e-15 0)
(3 7.62741e-16 0)
(3 9.32131e-16 0)
(3 1.15941e-15 0)
(3 1.58443e-15 0)
(3 2.20675e-15 0)
(3 3.06529e-15 0)
(3 2.55515e-15 0)
(3 2.0323e-15 0)
(3 1.81433e-15 0)
(3 8.13047e-16 0)
(3 -7.56714e-17 0)
(3 -3.82857e-16 0)
(3 -6.23872e-16 0)
(3 -1.86688e-15 0)
(3 -2.75198e-15 0)
(3 -2.30166e-15 0)
(3 3.58355e-17 0)
(3 2.36054e-15 0)
(3 2.64843e-15 0)
(3 1.05817e-15 0)
(2.83064 0.00759555 0)
(0.980574 0.0193111 0)
(0.756215 0.0239928 0)
(0.740266 0.0159592 0)
(0.725804 0.0142823 0)
(0.712394 0.0152079 0)
(0.697986 0.0173174 0)
(0.682634 0.0194663 0)
(0.666899 0.0202164 0)
(0.651801 0.0190156 0)
(0.637768 0.0170936 0)
(0.624261 0.0163366 0)
(0.61044 0.0173945 0)
(0.595625 0.0195671 0)
(0.579824 0.0209634 0)
(0.564218 0.0202031 0)
(0.549457 0.0189514 0)
(0.53486 0.0191865 0)
(0.51969 0.020298 0)
(0.504065 0.0208822 0)
(0.488667 0.0209121 0)
(0.473665 0.0210314 0)
(0.458815 0.0213098 0)
(0.443867 0.0215519 0)
(0.428651 0.0217966 0)
(0.413066 0.0220925 0)
(0.397146 0.0223632 0)
(0.381019 0.0225791 0)
(0.364782 0.02279 0)
(0.348454 0.0230214 0)
(0.332021 0.0232591 0)
(0.315456 0.0234925 0)
(0.298734 0.0237222 0)
(0.281862 0.0239523 0)
(0.264924 0.0241936 0)
(0.248071 0.0244605 0)
(0.231438 0.0247605 0)
(0.215043 0.0250876 0)
(0.198751 0.0254384 0)
(0.182309 0.0258198 0)
(0.165457 0.026252 0)
(0.148033 0.026773 0)
(0.130012 0.0274196 0)
(0.111446 0.0281938 0)
(0.0923901 0.0290475 0)
(0.0728275 0.0299779 0)
(0.0526536 0.0309252 0)
(0.0318765 0.0314097 0)
(0.0108894 0.0318567 0)
(3 6.92341e-17 0)
(3 1.40488e-16 0)
(3 2.05059e-16 0)
(3 -9.97299e-17 0)
(3 -3.097e-16 0)
(3 3.49373e-16 0)
(3 7.47115e-16 0)
(3 1.40192e-15 0)
(3 1.12988e-15 0)
(3 -1.02267e-16 0)
(3 -1.78917e-15 0)
(3 -1.6534e-15 0)
(3 -1.67813e-15 0)
(3 -2.13482e-15 0)
(3 -2.4444e-15 0)
(3 -1.67975e-15 0)
(3 -2.88087e-16 0)
(3 1.86494e-16 0)
(3 2.82702e-17 0)
(3 -6.58812e-16 0)
(3 -9.25448e-16 0)
(3 -9.54621e-16 0)
(3 -1.27374e-15 0)
(3 -6.12828e-16 0)
(3 -2.29112e-16 0)
(3 4.70812e-17 0)
(3 9.9782e-16 0)
(3 1.8588e-15 0)
(3 2.20467e-15 0)
(3 1.97609e-15 0)
(3 2.18182e-15 0)
(3 9.86566e-16 0)
(3 -2.5262e-16 0)
(3 -4.71886e-16 0)
(3 -1.12446e-15 0)
(3 -8.62876e-16 0)
(3 -5.846e-16 0)
(3 -5.3987e-16 0)
(3 -3.00946e-16 0)
(3 4.76007e-16 0)
(3 1.57363e-16 0)
(3 7.06412e-16 0)
(3 3.13186e-15 0)
(3 4.06918e-15 0)
(3 3.67938e-15 0)
(3 2.40805e-15 0)
(3 -2.94253e-16 0)
(3 -1.18751e-15 0)
(3 -1.28778e-15 0)
(3 -1.29661e-15 0)
(3 -1.23338e-15 0)
(3 -1.28088e-15 0)
(3 -1.51766e-15 0)
(3 -1.53639e-15 0)
(3 -2.68689e-16 0)
(3 -3.24041e-17 0)
(3 2.40465e-17 0)
(3 -1.35121e-15 0)
(3 -9.32954e-17 0)
(3 7.32256e-16 0)
(3 5.45501e-16 0)
(3 1.87723e-16 0)
(3 1.1341e-16 0)
(3 5.41862e-16 0)
(3 1.63097e-15 0)
(3 2.88632e-15 0)
(3 8.09615e-16 0)
(3 -1.47556e-15 0)
(3 -1.97793e-15 0)
(3 -9.34426e-16 0)
(3 -1.84976e-15 0)
(3 -2.24531e-15 0)
(3 -2.63048e-15 0)
(3 -2.40455e-15 0)
(3 -2.26981e-15 0)
(3 -1.79496e-15 0)
(3 -1.60168e-15 0)
(3 -1.23665e-15 0)
(3 -5.46134e-16 0)
(3 1.09004e-16 0)
(3 2.27536e-16 0)
(3 -2.69347e-16 0)
(3 1.00343e-15 0)
(3 1.62795e-15 0)
(3 1.26527e-15 0)
(3 1.36186e-15 0)
(3 1.94887e-15 0)
(3 2.39269e-15 0)
(3 1.67777e-15 0)
(3 1.5316e-15 0)
(3 2.61083e-15 0)
(3 3.65572e-15 0)
(3 2.72565e-15 0)
(3 2.24839e-15 0)
(3 9.55376e-16 0)
(3 3.2766e-16 0)
(3 -1.16381e-15 0)
(3 -1.35698e-15 0)
(3 -5.95092e-16 0)
(3 -1.24699e-16 0)
(3 1.88551e-16 0)
(3 -6.12017e-16 0)
(3 -2.54602e-15 0)
(3 -2.47149e-15 0)
(3 -8.26968e-16 0)
(3 -1.42952e-16 0)
(3 -2.593e-16 0)
(3 -4.20834e-16 0)
(3 -1.37725e-15 0)
(3 -2.20926e-15 0)
(3 -7.75303e-16 0)
(3 5.26336e-17 0)
(3 8.57526e-17 0)
(3 -3.15655e-16 0)
(3 -4.2375e-16 0)
(3 -1.91157e-16 0)
(3 5.51669e-16 0)
(3 4.04349e-17 0)
(3 -1.06995e-15 0)
(3 -1.11995e-15 0)
(3 -9.39594e-16 0)
(3 -2.41952e-16 0)
(3 1.53064e-15 0)
(3 1.3083e-15 0)
(3 1.03178e-15 0)
(3 8.7218e-16 0)
(3 6.00926e-16 0)
(3 6.85372e-16 0)
(3 1.77455e-15 0)
(3 2.02763e-15 0)
(3 2.11355e-15 0)
(3 1.48628e-15 0)
(3 5.65843e-16 0)
(3 -1.40756e-16 0)
(3 -6.60223e-16 0)
(3 -1.41554e-15 0)
(3 -2.22271e-15 0)
(3 -2.24323e-15 0)
(3 -1.57404e-15 0)
(3 -6.24505e-16 0)
(3 -1.42467e-16 0)
(3 -3.54483e-16 0)
(3 1.73904e-15 0)
(2.84608 0.0135652 0)
(0.988424 0.0342043 0)
(0.758819 0.0388046 0)
(0.743129 0.0278779 0)
(0.726759 0.0251935 0)
(0.712222 0.0263711 0)
(0.697336 0.0293766 0)
(0.682079 0.0324087 0)
(0.66676 0.0334142 0)
(0.65207 0.0317534 0)
(0.63805 0.0291037 0)
(0.624086 0.0280685 0)
(0.609772 0.0296757 0)
(0.594761 0.0329143 0)
(0.578951 0.0349006 0)
(0.563494 0.0336875 0)
(0.548734 0.0318489 0)
(0.533975 0.0323278 0)
(0.518706 0.0341399 0)
(0.502979 0.0350545 0)
(0.487507 0.0350777 0)
(0.47242 0.03528 0)
(0.457466 0.0357476 0)
(0.442398 0.0361387 0)
(0.427064 0.0365266 0)
(0.411368 0.0370103 0)
(0.395337 0.0374662 0)
(0.379096 0.0378344 0)
(0.36274 0.0381885 0)
(0.346286 0.0385689 0)
(0.329711 0.0389536 0)
(0.312982 0.0393267 0)
(0.296074 0.0396889 0)
(0.279006 0.0400443 0)
(0.261868 0.0404053 0)
(0.244813 0.0407917 0)
(0.227974 0.0412163 0)
(0.211381 0.0416736 0)
(0.194924 0.0421634 0)
(0.178388 0.0427007 0)
(0.161549 0.0433217 0)
(0.14427 0.0440951 0)
(0.126538 0.0450936 0)
(0.108408 0.0463354 0)
(0.0899105 0.0477585 0)
(0.0709868 0.0493636 0)
(0.0514673 0.0510637 0)
(0.031259 0.0520375 0)
(0.0107236 0.0530236 0)
(3 6.44535e-17 0)
(3 2.49031e-16 0)
(3 5.43258e-16 0)
(3 4.24332e-16 0)
(3 -1.04611e-16 0)
(3 -1.00046e-16 0)
(3 1.28618e-15 0)
(3 1.47584e-15 0)
(3 7.40954e-16 0)
(3 3.15731e-16 0)
(3 -6.73378e-16 0)
(3 -3.31049e-16 0)
(3 -6.48497e-16 0)
(3 -1.26901e-15 0)
(3 -1.14161e-15 0)
(3 -1.19379e-15 0)
(3 -3.86728e-16 0)
(3 -1.45179e-16 0)
(3 -3.9178e-17 0)
(3 -3.5204e-16 0)
(3 -1.18762e-15 0)
(3 -1.37246e-15 0)
(3 -1.13222e-15 0)
(3 -5.78577e-16 0)
(3 -4.02164e-16 0)
(3 1.95177e-16 0)
(3 9.35743e-16 0)
(3 1.12468e-15 0)
(3 1.39455e-15 0)
(3 4.71024e-16 0)
(3 5.65444e-16 0)
(3 1.80247e-15 0)
(3 1.38384e-15 0)
(3 7.45073e-16 0)
(3 -2.50169e-17 0)
(3 -1.18684e-15 0)
(3 -2.28513e-15 0)
(3 -2.67195e-15 0)
(3 -1.97454e-15 0)
(3 1.95617e-16 0)
(3 2.34687e-15 0)
(3 3.12814e-15 0)
(3 3.68349e-15 0)
(3 3.70738e-15 0)
(3 3.0775e-15 0)
(3 2.04331e-15 0)
(3 1.20007e-15 0)
(3 4.76546e-16 0)
(3 -9.02707e-17 0)
(3 -5.13321e-16 0)
(3 -8.41236e-16 0)
(3 -1.42853e-15 0)
(3 -1.831e-15 0)
(3 -9.29503e-16 0)
(3 -3.44253e-16 0)
(3 2.8749e-16 0)
(3 -1.24452e-15 0)
(3 -2.52537e-15 0)
(3 -1.98466e-15 0)
(3 -1.37159e-15 0)
(3 -1.31266e-15 0)
(3 -1.19428e-15 0)
(3 -2.28377e-16 0)
(3 7.60087e-18 0)
(3 -5.35472e-16 0)
(3 -5.61535e-16 0)
(3 -6.21811e-16 0)
(3 -1.16442e-15 0)
(3 -1.25925e-15 0)
(3 -1.13712e-15 0)
(3 6.31533e-17 0)
(3 3.31573e-16 0)
(3 -1.02107e-15 0)
(3 -1.41445e-15 0)
(3 -9.55019e-16 0)
(3 -9.77107e-17 0)
(3 -6.30269e-16 0)
(3 -4.88591e-16 0)
(3 2.13614e-16 0)
(3 8.88484e-16 0)
(3 2.11641e-15 0)
(3 1.98923e-15 0)
(3 1.48383e-15 0)
(3 2.47159e-15 0)
(3 2.42928e-15 0)
(3 1.87624e-15 0)
(3 1.95992e-15 0)
(3 1.91783e-15 0)
(3 2.06355e-15 0)
(3 1.95014e-15 0)
(3 2.20554e-15 0)
(3 3.02468e-15 0)
(3 3.1348e-15 0)
(3 2.46427e-15 0)
(3 1.07784e-15 0)
(3 8.62992e-16 0)
(3 7.45554e-16 0)
(3 -1.05764e-15 0)
(3 -1.18275e-15 0)
(3 -1.26787e-15 0)
(3 -1.41829e-15 0)
(3 -1.92298e-15 0)
(3 -1.82506e-15 0)
(3 -2.08323e-15 0)
(3 -2.13287e-15 0)
(3 -1.7291e-15 0)
(3 -1.52887e-15 0)
(3 -1.40908e-15 0)
(3 -1.95042e-15 0)
(3 -1.38509e-15 0)
(3 -4.56381e-16 0)
(3 -6.28464e-16 0)
(3 -4.85984e-16 0)
(3 -1.11166e-15 0)
(3 -1.00444e-15 0)
(3 -8.63618e-17 0)
(3 4.2781e-16 0)
(3 -5.6614e-16 0)
(3 -7.16786e-16 0)
(3 -6.53844e-16 0)
(3 -5.02746e-16 0)
(3 -9.95795e-17 0)
(3 4.88738e-16 0)
(3 5.90457e-16 0)
(3 5.64156e-16 0)
(3 3.72232e-16 0)
(3 2.47695e-16 0)
(3 4.55192e-16 0)
(3 1.11379e-15 0)
(3 1.1118e-15 0)
(3 1.06554e-15 0)
(3 1.12625e-15 0)
(3 1.20036e-15 0)
(3 3.1257e-16 0)
(3 -7.41201e-16 0)
(3 -1.18331e-15 0)
(3 -1.22494e-15 0)
(3 -4.70839e-16 0)
(3 -3.23962e-16 0)
(3 -1.50797e-16 0)
(3 -4.18844e-16 0)
(3 -5.5579e-16 0)
(3 -1.6274e-15 0)
(2.86649 0.0169695 0)
(0.998644 0.0477519 0)
(0.759519 0.0519771 0)
(0.745117 0.0401066 0)
(0.728628 0.0366289 0)
(0.71389 0.0377311 0)
(0.699122 0.0412598 0)
(0.684237 0.0447114 0)
(0.669376 0.0458587 0)
(0.654986 0.0440571 0)
(0.640924 0.0411318 0)
(0.626624 0.0400277 0)
(0.612024 0.0421217 0)
(0.597017 0.0461583 0)
(0.581304 0.0485081 0)
(0.565964 0.0469258 0)
(0.551091 0.0446902 0)
(0.536119 0.0454522 0)
(0.520783 0.0479116 0)
(0.505015 0.049128 0)
(0.489525 0.0491589 0)
(0.474393 0.0494858 0)
(0.459365 0.0501835 0)
(0.444199 0.0507475 0)
(0.428758 0.051288 0)
(0.412958 0.0519728 0)
(0.396814 0.0526419 0)
(0.380447 0.0532001 0)
(0.363954 0.053739 0)
(0.347346 0.0543135 0)
(0.330587 0.0548951 0)
(0.313635 0.0554618 0)
(0.296466 0.0560123 0)
(0.279106 0.0565458 0)
(0.261652 0.0570714 0)
(0.244252 0.0576103 0)
(0.227033 0.0581777 0)
(0.210024 0.0587643 0)
(0.193133 0.059365 0)
(0.176183 0.0599916 0)
(0.15899 0.0606861 0)
(0.141457 0.0615456 0)
(0.123609 0.0626914 0)
(0.10554 0.0641875 0)
(0.0873016 0.0660014 0)
(0.0688321 0.0681582 0)
(0.0499246 0.0705813 0)
(0.0303491 0.0720898 0)
(0.0104351 0.0737163 0)
(3 -3.1243e-16 0)
(3 -3.79984e-16 0)
(3 9.69985e-17 0)
(3 1.15269e-16 0)
(3 6.82955e-17 0)
(3 1.28836e-16 0)
(3 4.21753e-16 0)
(3 3.05638e-16 0)
(3 3.22955e-16 0)
(3 9.10661e-16 0)
(3 9.73854e-16 0)
(3 2.79776e-16 0)
(3 -7.33452e-16 0)
(3 -8.14951e-16 0)
(3 -3.76148e-16 0)
(3 4.95717e-16 0)
(3 1.13356e-15 0)
(3 8.62391e-16 0)
(3 4.84497e-16 0)
(3 2.93165e-16 0)
(3 -4.89386e-16 0)
(3 -5.58537e-16 0)
(3 2.00203e-16 0)
(3 5.43434e-16 0)
(3 5.01913e-16 0)
(3 1.01301e-15 0)
(3 1.22858e-15 0)
(3 4.25076e-16 0)
(3 -1.794e-16 0)
(3 -2.797e-16 0)
(3 -1.19868e-15 0)
(3 -5.19403e-16 0)
(3 3.62153e-17 0)
(3 -6.34942e-16 0)
(3 -1.25226e-15 0)
(3 -1.87422e-15 0)
(3 -1.52337e-15 0)
(3 1.55708e-16 0)
(3 7.22627e-16 0)
(3 1.41815e-15 0)
(3 3.16009e-15 0)
(3 3.97123e-15 0)
(3 3.16949e-15 0)
(3 2.53243e-15 0)
(3 1.68329e-15 0)
(3 1.56336e-15 0)
(3 7.34979e-16 0)
(3 -4.53847e-16 0)
(3 -8.43098e-16 0)
(3 -7.52791e-16 0)
(3 -1.51123e-17 0)
(3 8.18795e-16 0)
(3 1.30844e-15 0)
(3 1.22158e-15 0)
(3 1.91221e-16 0)
(3 -7.97209e-16 0)
(3 -2.24348e-15 0)
(3 -2.6962e-15 0)
(3 -3.15805e-15 0)
(3 -2.02154e-15 0)
(3 -9.74699e-16 0)
(3 -6.39171e-16 0)
(3 -6.37352e-17 0)
(3 -1.72356e-16 0)
(3 -3.24723e-16 0)
(3 -4.79857e-16 0)
(3 -9.95024e-16 0)
(3 -4.55551e-16 0)
(3 -1.45002e-16 0)
(3 1.57955e-16 0)
(3 4.33409e-16 0)
(3 8.61764e-16 0)
(3 7.22673e-16 0)
(3 2.99302e-17 0)
(3 -4.2419e-16 0)
(3 1.48582e-16 0)
(3 2.72773e-16 0)
(3 1.34757e-15 0)
(3 1.37872e-15 0)
(3 1.28897e-15 0)
(3 1.89383e-15 0)
(3 1.99236e-15 0)
(3 1.23837e-15 0)
(3 1.23401e-15 0)
(3 1.94101e-15 0)
(3 2.10731e-15 0)
(3 1.89251e-15 0)
(3 1.79143e-15 0)
(3 2.84373e-15 0)
(3 3.35802e-15 0)
(3 3.1371e-15 0)
(3 2.98168e-15 0)
(3 2.30795e-15 0)
(3 1.61352e-15 0)
(3 1.39388e-15 0)
(3 2.28458e-15 0)
(3 3.22523e-15 0)
(3 5.60843e-16 0)
(3 -1.03125e-15 0)
(3 -1.46384e-15 0)
(3 -2.905e-15 0)
(3 -2.61934e-15 0)
(3 -1.87534e-15 0)
(3 -2.40489e-15 0)
(3 -3.16807e-15 0)
(3 -2.88395e-15 0)
(3 -1.70443e-15 0)
(3 -1.15267e-15 0)
(3 -8.98896e-17 0)
(3 8.95957e-16 0)
(3 2.04031e-15 0)
(3 1.47286e-15 0)
(3 6.07201e-16 0)
(3 4.80858e-16 0)
(3 4.75899e-16 0)
(3 9.58248e-17 0)
(3 -6.49353e-17 0)
(3 4.95423e-16 0)
(3 8.56191e-17 0)
(3 -9.56641e-16 0)
(3 -2.3824e-15 0)
(3 -2.28405e-15 0)
(3 -2.13401e-15 0)
(3 -1.10091e-15 0)
(3 -2.41857e-16 0)
(3 6.38619e-16 0)
(3 1.53951e-15 0)
(3 2.14042e-15 0)
(3 1.71955e-15 0)
(3 1.61282e-15 0)
(3 1.66779e-15 0)
(3 1.19342e-15 0)
(3 4.01916e-16 0)
(3 -2.55097e-16 0)
(3 -1.003e-15 0)
(3 -1.73981e-15 0)
(3 -1.51539e-15 0)
(3 -1.0213e-15 0)
(3 -7.45975e-16 0)
(3 -4.57434e-16 0)
(3 -7.97913e-16 0)
(3 -7.09546e-17 0)
(3 -1.90442e-15 0)
(2.88957 0.0210481 0)
(1.01029 0.0628071 0)
(0.758218 0.0638598 0)
(0.745031 0.0520386 0)
(0.729142 0.048465 0)
(0.71442 0.0495336 0)
(0.699602 0.0532662 0)
(0.684772 0.0570702 0)
(0.670001 0.0583905 0)
(0.655575 0.0567502 0)
(0.6413 0.0538264 0)
(0.62669 0.0526061 0)
(0.61195 0.0549003 0)
(0.597216 0.0594164 0)
(0.581895 0.0620046 0)
(0.566852 0.0602761 0)
(0.55195 0.0578425 0)
(0.536797 0.0588403 0)
(0.521399 0.0618065 0)
(0.505604 0.0632406 0)
(0.490134 0.0632674 0)
(0.475026 0.0637336 0)
(0.460033 0.0646753 0)
(0.444898 0.0654093 0)
(0.4295 0.0660808 0)
(0.413757 0.0669457 0)
(0.397676 0.0678206 0)
(0.38137 0.0685728 0)
(0.364937 0.0693063 0)
(0.348382 0.0700903 0)
(0.331652 0.0708903 0)
(0.31469 0.0716774 0)
(0.297469 0.0724468 0)
(0.280024 0.0731916 0)
(0.262457 0.0739157 0)
(0.244911 0.074641 0)
(0.227494 0.075387 0)
(0.210223 0.0761436 0)
(0.19301 0.0768993 0)
(0.175694 0.0776526 0)
(0.158118 0.0784314 0)
(0.140215 0.079338 0)
(0.122046 0.080526 0)
(0.103763 0.0821047 0)
(0.0854701 0.084103 0)
(0.0671511 0.0865932 0)
(0.0486238 0.0895919 0)
(0.0295184 0.0915746 0)
(0.010158 0.0938361 0)
(3 -2.79264e-16 0)
(3 -1.51167e-16 0)
(3 -5.36206e-17 0)
(3 -1.97015e-16 0)
(3 1.44533e-16 0)
(3 1.57663e-16 0)
(3 -5.14478e-16 0)
(3 -6.18086e-16 0)
(3 -1.61715e-16 0)
(3 1.40372e-16 0)
(3 2.57985e-16 0)
(3 -7.59608e-16 0)
(3 -1.39278e-15 0)
(3 -2.87911e-17 0)
(3 3.64467e-16 0)
(3 9.63292e-16 0)
(3 1.06294e-15 0)
(3 1.80528e-15 0)
(3 8.31074e-16 0)
(3 5.05516e-17 0)
(3 3.35439e-16 0)
(3 5.15057e-16 0)
(3 1.14429e-15 0)
(3 1.94831e-15 0)
(3 1.98541e-15 0)
(3 2.42317e-15 0)
(3 2.47816e-15 0)
(3 1.43687e-15 0)
(3 8.29586e-16 0)
(3 6.65563e-16 0)
(3 -5.77451e-16 0)
(3 -1.4295e-15 0)
(3 -2.12508e-15 0)
(3 -2.4283e-15 0)
(3 -2.57029e-15 0)
(3 -1.53544e-15 0)
(3 2.74218e-17 0)
(3 5.76051e-16 0)
(3 -3.98313e-16 0)
(3 -5.55494e-16 0)
(3 -2.88695e-16 0)
(3 1.60417e-15 0)
(3 1.94426e-15 0)
(3 1.60281e-15 0)
(3 2.39641e-16 0)
(3 2.47303e-16 0)
(3 -5.09157e-16 0)
(3 -1.22185e-15 0)
(3 -1.51468e-15 0)
(3 -5.60486e-16 0)
(3 9.33291e-16 0)
(3 1.45816e-15 0)
(3 1.31162e-15 0)
(3 5.05622e-16 0)
(3 -1.34323e-15 0)
(3 -3.38764e-15 0)
(3 -3.06561e-15 0)
(3 -1.99191e-15 0)
(3 -2.59426e-15 0)
(3 -1.50334e-15 0)
(3 -9.10681e-16 0)
(3 -8.153e-16 0)
(3 2.26882e-16 0)
(3 1.1829e-15 0)
(3 1.46461e-15 0)
(3 3.89606e-16 0)
(3 2.26392e-16 0)
(3 2.54732e-16 0)
(3 2.913e-16 0)
(3 6.5408e-16 0)
(3 7.96009e-16 0)
(3 5.56386e-16 0)
(3 1.01633e-15 0)
(3 1.13857e-15 0)
(3 8.57102e-16 0)
(3 8.44419e-16 0)
(3 1.22937e-15 0)
(3 7.35133e-16 0)
(3 7.26926e-16 0)
(3 6.10406e-16 0)
(3 1.14295e-15 0)
(3 1.46007e-15 0)
(3 1.76594e-15 0)
(3 1.30659e-15 0)
(3 1.31551e-15 0)
(3 1.73858e-15 0)
(3 1.63877e-15 0)
(3 2.52564e-15 0)
(3 2.78078e-15 0)
(3 2.45366e-15 0)
(3 2.3143e-15 0)
(3 2.09111e-15 0)
(3 1.4976e-15 0)
(3 1.40333e-15 0)
(3 2.21287e-15 0)
(3 3.64527e-15 0)
(3 3.77907e-15 0)
(3 1.95551e-15 0)
(3 -3.37658e-17 0)
(3 -3.20768e-15 0)
(3 -3.45621e-15 0)
(3 -3.7324e-15 0)
(3 -2.9669e-15 0)
(3 -3.85918e-15 0)
(3 -3.59423e-15 0)
(3 -2.97883e-15 0)
(3 -1.85446e-15 0)
(3 -9.46413e-16 0)
(3 1.22901e-15 0)
(3 1.43733e-15 0)
(3 1.03511e-15 0)
(3 4.87541e-16 0)
(3 5.02392e-16 0)
(3 7.79345e-17 0)
(3 -7.13796e-16 0)
(3 -9.93488e-16 0)
(3 -1.65666e-15 0)
(3 -1.46516e-15 0)
(3 -1.67931e-15 0)
(3 -2.64747e-15 0)
(3 -2.95652e-15 0)
(3 -2.37541e-15 0)
(3 -2.01453e-15 0)
(3 -1.2234e-15 0)
(3 -4.62831e-16 0)
(3 6.40786e-16 0)
(3 3.17901e-15 0)
(3 3.67043e-15 0)
(3 2.20421e-15 0)
(3 -2.35997e-16 0)
(3 -5.70146e-16 0)
(3 -9.36871e-16 0)
(3 -1.40446e-15 0)
(3 -1.10959e-15 0)
(3 -8.85848e-16 0)
(3 -6.19087e-16 0)
(3 -6.90968e-16 0)
(3 -2.88839e-16 0)
(3 3.3547e-16 0)
(3 -1.69439e-16 0)
(3 -4.16091e-16 0)
(3 -3.10674e-16 0)
(3 5.87565e-16 0)
(2.91985 0.026103 0)
(1.02834 0.0787059 0)
(0.761439 0.0744128 0)
(0.749122 0.0631924 0)
(0.733554 0.0603289 0)
(0.718413 0.0617195 0)
(0.703023 0.0657066 0)
(0.687854 0.0695402 0)
(0.673048 0.0708868 0)
(0.65868 0.0694626 0)
(0.644422 0.0667118 0)
(0.629717 0.0654349 0)
(0.614857 0.0677473 0)
(0.60021 0.0724555 0)
(0.585017 0.0752224 0)
(0.569926 0.0735902 0)
(0.554722 0.0712082 0)
(0.539192 0.0724603 0)
(0.523555 0.0758116 0)
(0.507615 0.0773735 0)
(0.492068 0.0773712 0)
(0.476889 0.0779805 0)
(0.461817 0.0791854 0)
(0.446563 0.0801084 0)
(0.431021 0.0809104 0)
(0.415134 0.0819442 0)
(0.398927 0.0830182 0)
(0.382523 0.0839614 0)
(0.366031 0.0848878 0)
(0.349455 0.0858834 0)
(0.332725 0.0869105 0)
(0.315766 0.0879333 0)
(0.298543 0.0889432 0)
(0.281091 0.0899264 0)
(0.263515 0.0908797 0)
(0.245946 0.0918231 0)
(0.22847 0.0927812 0)
(0.211084 0.0937466 0)
(0.193688 0.094703 0)
(0.176124 0.0956315 0)
(0.158245 0.0965331 0)
(0.140001 0.0974967 0)
(0.12148 0.098689 0)
(0.102879 0.100249 0)
(0.0843628 0.102279 0)
(0.0659766 0.104892 0)
(0.0476246 0.108291 0)
(0.0288206 0.11064 0)
(0.00991573 0.113465 0)
(3 8.60952e-17 0)
(3 -5.44356e-17 0)
(3 -3.01176e-16 0)
(3 -3.15156e-16 0)
(3 -8.00277e-17 0)
(3 -8.55822e-16 0)
(3 -1.78083e-15 0)
(3 -1.4406e-15 0)
(3 -8.14767e-16 0)
(3 -4.77692e-16 0)
(3 2.991e-16 0)
(3 2.20558e-16 0)
(3 2.58394e-16 0)
(3 1.10915e-15 0)
(3 1.8874e-15 0)
(3 1.23845e-15 0)
(3 2.75133e-16 0)
(3 4.55115e-16 0)
(3 1.13284e-16 0)
(3 -3.53391e-16 0)
(3 -4.91757e-17 0)
(3 9.24645e-16 0)
(3 1.12338e-15 0)
(3 9.19193e-16 0)
(3 1.79357e-15 0)
(3 1.93881e-15 0)
(3 1.76256e-15 0)
(3 1.98771e-15 0)
(3 2.01417e-15 0)
(3 1.37307e-15 0)
(3 4.13936e-16 0)
(3 -7.99594e-16 0)
(3 -1.16286e-15 0)
(3 -1.25334e-15 0)
(3 -1.15285e-15 0)
(3 -1.83736e-15 0)
(3 -1.60025e-15 0)
(3 -7.845e-16 0)
(3 -3.1914e-16 0)
(3 -5.64849e-16 0)
(3 -4.98045e-16 0)
(3 8.96592e-20 0)
(3 5.46796e-16 0)
(3 5.81179e-16 0)
(3 -9.12237e-16 0)
(3 -1.70329e-15 0)
(3 -2.20741e-15 0)
(3 -2.03692e-15 0)
(3 -2.01352e-15 0)
(3 -1.16906e-15 0)
(3 -5.85927e-16 0)
(3 -3.22281e-16 0)
(3 -8.88105e-16 0)
(3 -2.35096e-15 0)
(3 -3.46128e-15 0)
(3 -3.56182e-15 0)
(3 -3.17349e-15 0)
(3 -2.3932e-15 0)
(3 -1.63698e-15 0)
(3 -1.00247e-15 0)
(3 -9.57572e-16 0)
(3 -4.89335e-16 0)
(3 7.55885e-16 0)
(3 9.98422e-16 0)
(3 8.44372e-16 0)
(3 5.41868e-16 0)
(3 1.94831e-16 0)
(3 -5.4203e-16 0)
(3 -9.93931e-16 0)
(3 -7.15629e-16 0)
(3 -3.15864e-16 0)
(3 7.22685e-17 0)
(3 -6.29358e-17 0)
(3 -5.50591e-16 0)
(3 -1.27765e-16 0)
(3 7.44118e-16 0)
(3 9.39034e-16 0)
(3 7.07384e-16 0)
(3 5.87934e-16 0)
(3 4.35991e-16 0)
(3 4.35281e-16 0)
(3 1.39977e-15 0)
(3 2.18691e-15 0)
(3 2.70522e-15 0)
(3 1.64975e-15 0)
(3 5.46335e-16 0)
(3 5.94927e-16 0)
(3 1.25723e-15 0)
(3 8.72828e-16 0)
(3 1.81401e-16 0)
(3 -3.89134e-16 0)
(3 -4.4913e-16 0)
(3 -3.12813e-17 0)
(3 1.3244e-15 0)
(3 1.94925e-15 0)
(3 2.5973e-15 0)
(3 2.4829e-15 0)
(3 1.27882e-15 0)
(3 -1.15685e-15 0)
(3 -2.00264e-15 0)
(3 -2.07879e-15 0)
(3 -2.35631e-15 0)
(3 -2.83663e-15 0)
(3 -3.35783e-15 0)
(3 -3.08964e-15 0)
(3 -2.9999e-15 0)
(3 -1.78673e-15 0)
(3 -8.36618e-16 0)
(3 -9.95846e-16 0)
(3 -1.06613e-15 0)
(3 -8.98004e-16 0)
(3 -6.01149e-16 0)
(3 -3.17934e-16 0)
(3 -3.65261e-16 0)
(3 -7.6156e-16 0)
(3 -1.15023e-15 0)
(3 -3.29889e-15 0)
(3 -4.0032e-15 0)
(3 -4.33295e-15 0)
(3 -3.9747e-15 0)
(3 -2.469e-15 0)
(3 -1.39921e-15 0)
(3 -6.23209e-16 0)
(3 -2.11907e-17 0)
(3 2.81366e-16 0)
(3 1.9674e-15 0)
(3 3.61918e-15 0)
(3 3.478e-15 0)
(3 1.35256e-15 0)
(3 -1.83406e-15 0)
(3 -1.93124e-15 0)
(3 -1.71712e-15 0)
(3 -2.2699e-15 0)
(3 -2.08086e-15 0)
(3 -1.71976e-15 0)
(3 -3.53232e-16 0)
(3 5.44509e-16 0)
(3 5.15685e-16 0)
(3 3.36458e-16 0)
(3 -2.02797e-16 0)
(3 4.75479e-16 0)
(3 1.13092e-15 0)
(3 1.73008e-15 0)
(2.95252 0.017586 0)
(1.04828 0.0921471 0)
(0.767534 0.082098 0)
(0.755814 0.0730032 0)
(0.74028 0.0723295 0)
(0.724445 0.0745372 0)
(0.708295 0.078585 0)
(0.692755 0.0820441 0)
(0.678036 0.0831528 0)
(0.663958 0.0818822 0)
(0.64997 0.0794292 0)
(0.635356 0.0782527 0)
(0.62036 0.0805955 0)
(0.605521 0.0854407 0)
(0.590126 0.0884673 0)
(0.57474 0.0871337 0)
(0.559201 0.0849364 0)
(0.543384 0.0863806 0)
(0.527613 0.0899607 0)
(0.511592 0.0915749 0)
(0.495915 0.0915725 0)
(0.48051 0.0923891 0)
(0.465136 0.0939351 0)
(0.449501 0.0951155 0)
(0.433546 0.0960706 0)
(0.41727 0.0972539 0)
(0.40073 0.0984891 0)
(0.384058 0.099577 0)
(0.367366 0.100644 0)
(0.350647 0.101798 0)
(0.333814 0.103005 0)
(0.316778 0.104225 0)
(0.299506 0.10545 0)
(0.282041 0.106661 0)
(0.264494 0.107847 0)
(0.24699 0.109024 0)
(0.229594 0.110219 0)
(0.212269 0.11143 0)
(0.19489 0.112638 0)
(0.177275 0.113805 0)
(0.159262 0.114898 0)
(0.140804 0.115976 0)
(0.121999 0.117199 0)
(0.103073 0.11871 0)
(0.084242 0.120693 0)
(0.0656095 0.123265 0)
(0.0472041 0.126898 0)
(0.0284579 0.129489 0)
(0.00979007 0.13278 0)
(3 1.67555e-16 0)
(3 -2.84921e-16 0)
(3 -4.7499e-16 0)
(3 -4.30659e-16 0)
(3 -4.87101e-16 0)
(3 -8.31777e-16 0)
(3 -9.24403e-16 0)
(3 -6.84498e-16 0)
(3 1.25056e-16 0)
(3 9.13306e-16 0)
(3 1.57639e-15 0)
(3 2.31934e-15 0)
(3 1.74669e-15 0)
(3 9.19981e-16 0)
(3 6.74424e-16 0)
(3 7.57308e-16 0)
(3 3.85854e-16 0)
(3 -7.91254e-17 0)
(3 -4.70042e-16 0)
(3 -5.07391e-16 0)
(3 5.44952e-16 0)
(3 1.74407e-15 0)
(3 1.24053e-15 0)
(3 7.97176e-17 0)
(3 -1.32344e-16 0)
(3 -4.97174e-16 0)
(3 -4.28843e-16 0)
(3 -1.9195e-16 0)
(3 9.92809e-17 0)
(3 7.26647e-17 0)
(3 5.4981e-16 0)
(3 3.92521e-16 0)
(3 4.20372e-16 0)
(3 -9.93093e-17 0)
(3 -8.73912e-16 0)
(3 -1.89713e-15 0)
(3 -2.10896e-15 0)
(3 -1.74746e-15 0)
(3 -1.1195e-15 0)
(3 -1.24876e-15 0)
(3 -1.39745e-15 0)
(3 -1.31332e-15 0)
(3 3.19782e-18 0)
(3 -1.11721e-15 0)
(3 -2.14119e-15 0)
(3 -2.49299e-15 0)
(3 -3.25992e-15 0)
(3 -3.12633e-15 0)
(3 -3.0431e-15 0)
(3 -2.2718e-15 0)
(3 -9.94712e-16 0)
(3 -9.66306e-16 0)
(3 -1.67411e-15 0)
(3 -3.03685e-15 0)
(3 -3.47063e-15 0)
(3 -2.78356e-15 0)
(3 -1.80809e-15 0)
(3 -1.01247e-15 0)
(3 -2.62862e-16 0)
(3 -7.14913e-16 0)
(3 -9.28336e-16 0)
(3 3.08254e-16 0)
(3 1.29302e-15 0)
(3 -4.42569e-16 0)
(3 -7.69999e-16 0)
(3 -1.59976e-16 0)
(3 -3.16397e-16 0)
(3 -6.01015e-16 0)
(3 -9.12946e-16 0)
(3 -1.3715e-15 0)
(3 -1.35089e-15 0)
(3 -7.89501e-16 0)
(3 -1.09677e-15 0)
(3 -1.53638e-15 0)
(3 -1.14573e-15 0)
(3 -3.26343e-16 0)
(3 2.03916e-16 0)
(3 1.84025e-16 0)
(3 1.57538e-16 0)
(3 4.07695e-16 0)
(3 7.49671e-16 0)
(3 1.1067e-15 0)
(3 1.45338e-15 0)
(3 1.39406e-15 0)
(3 1.18115e-15 0)
(3 1.63928e-15 0)
(3 1.74592e-15 0)
(3 9.73528e-16 0)
(3 -5.2671e-16 0)
(3 -1.50404e-15 0)
(3 -1.42768e-15 0)
(3 -4.17749e-16 0)
(3 -4.58618e-17 0)
(3 3.82554e-16 0)
(3 4.70801e-16 0)
(3 6.09637e-16 0)
(3 6.71569e-16 0)
(3 -2.91941e-17 0)
(3 -3.12919e-16 0)
(3 1.63077e-16 0)
(3 -2.76469e-16 0)
(3 -6.00261e-16 0)
(3 -1.48395e-15 0)
(3 -1.90565e-15 0)
(3 -2.46213e-15 0)
(3 -1.38992e-15 0)
(3 -2.2987e-16 0)
(3 -3.6137e-16 0)
(3 -1.7114e-15 0)
(3 -1.49558e-15 0)
(3 -1.02754e-15 0)
(3 -8.97867e-16 0)
(3 -7.68529e-16 0)
(3 -5.00628e-16 0)
(3 -6.38917e-16 0)
(3 -2.51023e-15 0)
(3 -2.63388e-15 0)
(3 -2.67112e-15 0)
(3 -3.13873e-15 0)
(3 -2.87707e-15 0)
(3 -9.44312e-17 0)
(3 8.45929e-16 0)
(3 1.02291e-15 0)
(3 8.93554e-16 0)
(3 1.25283e-15 0)
(3 2.24346e-15 0)
(3 3.02373e-15 0)
(3 2.61983e-15 0)
(3 1.12749e-15 0)
(3 -1.22154e-15 0)
(3 -1.32222e-15 0)
(3 -1.94961e-15 0)
(3 -2.40467e-15 0)
(3 -2.25451e-15 0)
(3 -2.62334e-15 0)
(3 -2.55459e-15 0)
(3 -1.20977e-15 0)
(3 -1.04132e-15 0)
(3 -1.05926e-15 0)
(3 -7.55025e-16 0)
(3 1.27004e-16 0)
(3 1.83666e-15 0)
(3 3.22242e-16 0)
(2.97104 0.00552556 0)
(1.07039 0.103651 0)
(0.774137 0.0872184 0)
(0.762011 0.0827986 0)
(0.74628 0.0851296 0)
(0.729882 0.0882758 0)
(0.713298 0.0918878 0)
(0.697708 0.0943931 0)
(0.683383 0.0949048 0)
(0.66984 0.0936821 0)
(0.656235 0.0917137 0)
(0.641747 0.0910119 0)
(0.626587 0.0936693 0)
(0.611429 0.0987511 0)
(0.595806 0.101995 0)
(0.580367 0.100874 0)
(0.564898 0.0988046 0)