/*--------------------------------*- C++ -*----------------------------------*\
  =========                 |
  \\      /  F ield         | OpenFOAM: The Open Source CFD Toolbox
   \\    /   O peration     | Website:  https://openfoam.org
    \\  /    A nd           | Version:  7
     \\/     M anipulation  |
\*---------------------------------------------------------------------------*/
FoamFile
{
    version     2.0;
    format      ascii;
    class       volScalarField;
    location    "2.9";
    object      T;
}
// * * * * * * * * * * * * * * * * * * * * * * * * * * * * * * * * * * * * * //

dimensions      [0 0 0 1 0 0 0];

internalField   nonuniform List<scalar> 
4128
(
1
1
1
1
1
1
1
1
1
1
1
1
1
1
1
1
1
1
1
1
1
1
1
1
1
1
1
1
1
1
1
1
1
1
1
1
1
1
1
1
1
1
1
1
1
1
1
1
1
1
1
1.00031
1.00891
1.07648
1.28898
1.52669
1.5828
1.58059
1.57927
1.58142
1.57677
1.57586
1.57896
1.58028
1.57808
1.56707
1.55397
1.53874
1.53197
1.53396
1.54195
1.54877
1.54936
1.54482
1.53226
1.5145
1.50351
1.50152
1.50114
1.50283
1.50759
1.50869
1.50505
1.49407
1.48
1.4738
1
1
1
1
1
1
1
1
1
1
1
1
1
1
1
1
1
1
1
1
1
1
1
1
1
1
1
1
1
1
1
1
1
1
1
1
1
1
1
1
1
1
1
1
1
1
1
1
1
1
1
1
1
1
1.00011
1.00333
1.04896
1.25643
1.49337
1.54704
1.56628
1.58354
1.58347
1.58243
1.58336
1.58069
1.57086
1.55825
1.55085
1.54092
1.54019
1.54718
1.55547
1.55567
1.54999
1.53922
1.52264
1.50874
1.5043
1.50423
1.50638
1.51318
1.51562
1.51316
1.50307
1.48783
1.47768
1.47645
1
1
1
1
1
1
1
1
1
1
1
1
1
1
1
1
1
1
1
1
1
1
1
1
1
1
1
1
1
1
1
1
1
1
1
1
1
1
1
1
1
1
1
1
1
1
1
1
1
1
1
1
1
1
1
1.00003
1.00175
1.03734
1.22746
1.44007
1.51944
1.56553
1.58867
1.59092
1.58674
1.57654
1.56321
1.55696
1.55412
1.54967
1.55231
1.55858
1.55981
1.55586
1.54569
1.5314
1.5159
1.50843
1.50785
1.51001
1.51785
1.52228
1.52009
1.51028
1.49533
1.48352
1.47964
1.48177
1
1
1
1
1
1
1
1
1
1
1
1
1
1
1
1
1
1
1
1
1
1
1
1
1
1
1
1
1
1
1
1
1
1
1
1
1
1
1
1
1
1
1
1
1
1
1
1
1
1
1
1
1
1
1
1
1.00002
1.0013
1.027
1.16854
1.35913
1.49564
1.58404
1.59748
1.58731
1.56944
1.56022
1.55961
1.56016
1.5584
1.56139
1.56311
1.561
1.55238
1.53858
1.52535
1.51422
1.51247
1.51489
1.52273
1.52771
1.52596
1.51678
1.5016
1.4901
1.48465
1.48515
1.49115
1
1
1
1
1
1
1
1
1
1
1
1
1
1
1
1
1
1
1
1
1
1
1
1
1
1
1
1
1
1
1
1
1
1
1
1
1
1
1
1
1
1
1
1
1
1
1
1
1
1
1
1
1
1
1
1
1
1.00001
1.00063
1.01282
1.10155
1.28528
1.49706
1.58619
1.57687
1.56921
1.56354
1.56548
1.56285
1.56134
1.56379
1.5643
1.56028
1.5478
1.5352
1.52407
1.51779
1.51987
1.52733
1.53236
1.53082
1.52334
1.50859
1.49569
1.4908
1.49018
1.49389
1.50163
1
1
1
1
1
1
1
1
1
1
1
1
1
1
1
1
1
1
1
1
1
1
1
1
1
1
1
1
1
1
1
1
1
1
1
1
1
1
1
1
1
1
1
1
1
1
1
1
1
1
1
1
1
1
1
1
1
1
1
1.00018
1.00502
1.05547
1.23571
1.47602
1.55854
1.55863
1.55978
1.56652
1.56416
1.56388
1.56648
1.56537
1.55676
1.54418
1.53537
1.52618
1.52492
1.52985
1.53542
1.53466
1.52919
1.51703
1.50284
1.496
1.49592
1.49761
1.50462
1.508
1
1
1
1
1
1
1
1
1
1
1
1
1
1
1
1
1
1
1
1
1
1
1
1
1
1
1
1
1
1
1
1
1
1
1
1
1
1
1
1
1
1
1
1
1
1
1
1
1
1
1
1
1
1
1
1
1
1
1
1
1.00005
1.00198
1.03176
1.19599
1.4508
1.52597
1.54599
1.5647
1.56787
1.56827
1.56887
1.56359
1.55201
1.54362
1.53858
1.53212
1.53288
1.53723
1.53758
1.5343
1.52473
1.51228
1.50196
1.50137
1.50202
1.50699
1.51145
1.50963
1
1
1
1
1
1
1
1
1
1
1
1
1
1
1
1
1
1
1
1
1
1
1
1
1
1
1
1
1
1
1
1
1
1
1
1
1
1
1
1
1
1
1
1
1
1
1
1
1
1
1
1
1
1
1
1
1
1
1
1
1
1.00002
1.00097
1.02281
1.17597
1.39574
1.48935
1.54604
1.57376
1.57442
1.56838
1.5586
1.55118
1.54711
1.54424
1.53832
1.53908
1.54031
1.53865
1.53146
1.52144
1.51114
1.50641
1.50665
1.50941
1.51411
1.51352
1.50539
1
1
1
1
1
1
1
1
1
1
1
1
1
1
1
1
1
1
1
1
1
1
1
1
1
1
1
1
1
1
1
1
1
1
1
1
1
1
1
1
1
1
1
1
1
1
1
1
1
1
1
1
1
1
1
1
1
1
1
1
1
1
1.00001
1.00064
1.01599
1.12434
1.30163
1.45222
1.55979
1.57314
1.56481
1.55878
1.55416
1.55408
1.54852
1.54286
1.54311
1.54238
1.53771
1.53003
1.52168
1.51439
1.51111
1.5117
1.51569
1.51639
1.51116
1.50055
1
1
1
1
1
1
1
1
1
1
1
1
1
1
1
1
1
1
1
1
1
1
1
1
1
1
1
1
1
1
1
1
1
1
1
1
1
1
1
1
1
1
1
1
1
1
1
1
1
1
1
1
1
1
1
1
1
1
1
1
1
1
1
1
1.00029
1.00687
1.06039
1.21612
1.42666
1.55766
1.55658
1.55646
1.55245
1.55343
1.55003
1.54645
1.54676
1.54412
1.53865
1.53221
1.52546
1.51791
1.51382
1.51571
1.51755
1.51529
1.50824
1.49932
1
1
1
1
1
1
1
1
1
1
1
1
1
1
1
1
1
1
1
1
1
1
1
1
1
1
1
1
1
1
1
1
1
1
1
1
1
1
1
1
1
1
1
1
1
1
1
1
1
1
1
1
1
1
1
1
1
1
1
1
1
1
1
1
1
1.00007
1.00197
1.02795
1.15792
1.40227
1.53804
1.54371
1.54457
1.55177
1.55062
1.54873
1.54975
1.54841
1.54372
1.53594
1.5286
1.51819
1.51648
1.51784
1.51747
1.51395
1.50777
1.50047
1
1
1
1
1
1
1
1
1
1
1
1
1
1
1
1
1
1
1
1
1
1
1
1
1
1
1
1
1
1
1
1
1
1
1
1
1
1
1
1
1
1
1
1
1
1
1
1
1
1
1
1
1
1
1
1
1
1
1
1
1
1
1
1
1
1
1.00001
1.00069
1.01557
1.1283
1.3804
1.49534
1.52403
1.54528
1.55709
1.55755
1.55695
1.55093
1.54351
1.53727
1.52856
1.51987
1.5191
1.51926
1.51782
1.51436
1.51002
1.50403
1
1
1
1
1
1
1
1
1
1
1
1
1
1
1
1
1
1
1
1
1
1
1
1
1
1
1
1
1
1
1
1
1
1
1
1
1
1
1
1
1
1
1
1
1
1
1
1
1
1
1
1
1
1
1
1
1
1
1
1
1
1
1
1
1
1
1
1.00001
1.00038
1.01033
1.1071
1.32505
1.43612
1.51232
1.55984
1.56249
1.55666
1.55103
1.54445
1.5386
1.52778
1.52261
1.5222
1.52143
1.51997
1.51809
1.51396
1.50613
1
1
1
1
1
1
1
1
1
1
1
1
1
1
1
1
1
1
1
1
1
1
1
1
1
1
1
1
1
1
1
1
1
1
1
1
1
1
1
1
1
1
1
1
1
1
1
1
1
1
1
1
1
1
1
1
1
1
1
1
1
1
1
1
1
1
1
1
1
1.0002
1.00647
1.07053
1.21155
1.37342
1.53309
1.55451
1.55272
1.54974
1.54348
1.538
1.52801
1.526
1.52627
1.5264
1.52591
1.52269
1.51567
1.50367
1
1
1
1
1
1
1
1
1
1
1
1
1
1
1
1
1
1
1
1
1
1
1
1
1
1
1
1
1
1
1
1
1
1
1
1
1
1
1
1
1
1
1
1
1
1
1
1
1
1
1
1
1
1
1
1
1
1
1
1
1
1
1
1
1
1
1
1
1
1
1.00008
1.00236
1.02536
1.12883
1.35434
1.51652
1.53414
1.53605
1.53979
1.53642
1.53088
1.53296
1.53638
1.53496
1.52981
1.52361
1.51399
1.50292
1
1
1
1
1
1
1
1
1
1
1
1
1
1
1
1
1
1
1
1
1
1
1
1
1
1
1
1
1
1
1
1
1
1
1
1
1
1
1
1
1
1
1
1
1
1
1
1
1
1
1
1
1
1
1
1
1
1
1
1
1
1
1
1
1
1
1
1
1
1
1
1.00001
1.00054
1.01062
1.09174
1.332
1.47571
1.50861
1.52822
1.5379
1.54228
1.5446
1.54143
1.53604
1.53083
1.52421
1.51119
1.50659
1
1
1
1
1
1
1
1
1
1
1
1
1
1
1
1
1
1
1
1
1
1
1
1
1
1
1
1
1
1
1
1
1
1
1
1
1
1
1
1
1
1
1
1
1
1
1
1
1
1
1
1
1
1
1
1
1
1
1
1
1
1
1
1
1
1
1
1
1
1
1
1
1
1.00021
1.00588
1.0806
1.28891
1.40697
1.48914
1.53904
1.54314
1.54054
1.54064
1.53756
1.53252
1.52083
1.51231
1.51213
1
1
1
1
1
1
1
1
1
1
1
1
1
1
1
1
1
1
1
1
1
1
1
1
1
1
1
1
1
1
1
1
1
1
1
1
1
1
1
1
1
1
1
1
1
1
1
1
1
1
1
1
1
1
1
1
1
1
1
1
1
1
1
1
1
1
1
1
1
1
1
1
1
1
1.00011
1.00441
1.05622
1.17638
1.33659
1.50243
1.53417
1.53934
1.53738
1.5345
1.52827
1.51806
1.51776
1.5201
1
1
1
1
1
1
1
1
1
1
1
1
1
1
1
1
1
1
1
1
1
1
1
1
1
1
1
1
1
1
1
1
1
1
1
1
1
1
1
1
1
1
1
1
1
1
1
1
1
1
1
1
1
1
1
1
1
1
1
1
1
1
1
1
1
1
1
1
1
1
1
1
1
1
1
1.00005
1.00175
1.01794
1.09815
1.32326
1.48076
1.51811
1.52576
1.53036
1.52525
1.52496
1.52957
1.52804
1
1
1
1
1
1
1
1
1
1
1
1
1
1
1
1
1
1
1
1
1
1
1
1
1
1
1
1
1
1
1
1
1
1
1
1
1
1
1
1
1
1
1
1
1
1
1
1
1
1
1
1
1
1
1
1
1
1
1
1
1
1
1
1
1
1
1
1
1
1
1
1
1
1
1
1
1.00001
1.00035
1.00673
1.0764
1.30108
1.43303
1.48795
1.51579
1.52985
1.52925
1.52851
1.52877
1
1
1
1
1
1
1
1
1
1
1
1
1
1
1
1
1
1
1
1
1
1
1
1
1
1
1
1
1
1
1
1
1
1
1
1
1
1
1
1
1
1
1
1
1
1
1
1
1
1
1
1
1
1
1
1
1
1
1
1
1
1
1
1
1
1
1
1
1
1
1
1
1
1
1
1
1
1
1.00012
1.00435
1.06907
1.22178
1.34433
1.46966
1.52436
1.53031
1.53182
1.52957
1
1
1
1
1
1
1
1
1
1
1
1
1
1
1
1
1
1
1
1
1
1
1
1
1
1
1
1
1
1
1
1
1
1
1
1
1
1
1
1
1
1
1
1
1
1
1
1
1
1
1
1
1
1
1
1
1
1
1
1
1
1
1
1
1
1
1
1
1
1
1
1
1
1
1
1
1
1
1
1.00007
1.00308
1.02994
1.10721
1.30263
1.4738
1.51822
1.52715
1.52656
1
1
1
1
1
1
1
1
1
1
1
1
1
1
1
1
1
1
1
1
1
1
1
1
1
1
1
1
1
1
1
1
1
1
1
1
1
1
1
1
1
1
1
1
1
1
1
1
1
1
1
1
1
1
1
1
1
1
1
1
1
1
1
1
1
1
1
1
1
1
1
1
1
1
1
1
1
1
1
1
1.00002
1.00063
1.00755
1.07307
1.29292
1.44189
1.49532
1.51222
1
1
1
1
1
1
1
1
1
1
1
1
1
1
1
1
1
1
1
1
1
1
1
1
1
1
1
1
1
1
1
1
1
1
1
1
1
1
1
1
1
1
1
1
1
1
1
1
1
1
1
1
1
1
1
1
1
1
1
1
1
1
1
1
1
1
1
1
1
1
1
1
1
1
1
1
1
1
1
1
1
1
1.00013
1.00418
1.06576
1.24097
1.35881
1.45702
1
1
1
1
1
1
1
1
1
1
1
1
1
1
1
1
1
1
1
1
1
1
1
1
1
1
1
1
1
1
1
1
1
1
1
1
1
1
1
1
1
1
1
1
1
1
1
1
1
1
1
1
1
1
1
1
1
1
1
1
1
1
1
1
1
1
1
1
1
1
1
1
1
1
1
1
1
1
1
1
1
1
1
1.00008
1.00324
1.03792
1.12272
1.28291
1
1
1
1
1
1
1
1
1
1
1
1
1
1
1
1
1
1
1
1
1
1
1
1
1
1
1
1
1
1
1
1
1
1
1
1
1
1
1
1
1
1
1
1
1
1
1
1
1
1
1
1
1
1
1
1
1
1
1
1
1
1
1
1
1
1
1
1
1
1
1
1
1
1
1
1
1
1
1
1
1
1
1
1
1.00003
1.00092
1.00915
1.06609
1
1
1
1
1
1
1
1
1
1
1
1
1
1
1
1
1
1
1
1
1
1
1
1
1
1
1
1
1
1
1
1
1
1
1
1
1
1
1
1
1
1
1
1
1
1
1
1
1
1
1
1
1
1
1
1
1
1
1
1
1
1
1
1
1
1
1
1
1
1
1
1
1
1
1
1
1
1
1
1
1
1
1
1
1
1
1.00014
1.00369
1
1
1
1
1
1
1
1
1
1
1
1
1
1
1
1
1
1
1
1
1
1
1
1
1
1
1
1
1
1
1
1
1
1
1
1
1
1
1
1
1
1
1
1
1
1
1
1
1
1
1
1
1
1
1
1
1
1
1
1
1
1
1
1
1
1
1
1
1
1
1
1
1
1
1
1
1
1
1
1
1
1
1
1
1
1
1
1.00006
1
1
1
1
1
1
1
1
1
1
1
1
1
1
1
1
1
1
1
1
1
1
1
1
1
1
1
1
1
1
1
1
1
1
1
1
1
1
1
1
1
1
1
1
1
1
1
1
1
1
1
1
1
1
1
1
1
1
1
1
1
1
1
1
1
1
1
1
1
1
1
1
1
1
1
1
1
1
1
1
1
1
1
1
1
1
1
1
1
1
1
1
1
1
1
1
1
1
1
1
1
1
1
1
1
1
1
1
1
1
1
1
1
1
1
1
1
1
1
1
1
1
1
1
1
1
1
1
1
1
1
1
1
1
1
1
1
1
1
1
1
1
1
1
1
1
1
1
1
1
1
1
1
1
1
1
1
1
1
1
1
1
1
1
1
1
1
1
1
1
1
1
1
1
1
1
1
1
1
1
1
1
1
1
1
1
1
1
1
1
1
1
1
1
1
1
1
1
1
1
1
1
1
1
1
1
1
1
1
1
1
1
1
1
1
1
1
1
1
1
1
1
1
1
1
1
1
1
1
1
1
1
1
1
1
1
1
1
1
1
1
1
1
1
1
1
1
1
1
1
1
1
1
1
1
1
1
1
1
1
1
1
1
1
1
1
1
1
1
1
1
1
1
1
1
1
1
1
1
1
1
1
1
1
1
1
1
1
1
1
1
1
1
1
1
1
1
1
1
1
1
1
1
1
1
1
1
1
1
1
1
1
1
1
1
1
1
1
1
1
1
1
1
1
1
1
1
1
1
1
1
1
1
1
1
1
1
1
1
1
1
1
1
1
1
1
1
1
1
1
1
1
1
1
1
1
1
1
1
1
1
1
1
1
1
1
1
1
1
1
1
1
1
1
1
1
1
1
1
1
1
1
1
1
1
1
1
1
1
1
1
1
1
1
1
1
1
1
1
1
1
1
1
1
1
1
1
1
1
1
1
1
1
1
1
1
1
1
1
1
1
1
1
1
1
1
1
1
1
1
1
1
1
1
1
1
1
1
1
1
1
1
1
1
1
1
1
1
1
1
1
1
1
1
1
1
1
1
1
1
1
1
1
1
1
1
1
1
1
1
1
1
1
1
1
1
1
1
1
1
1
1
1
1
1
1
1
1
1
1
1
1
1
1
1
1
1
1
1
1
1
1
1
1
1
1
1
1
1
1
1
1
1
1
1
1
1
1
1
1
1
1
1
1
1
1
1
1
1
1
1
1
1
1
1
1
1
1
1
1
1
1
1
1
1
1
1
1
1
1
1
1
1
1
1
1
1
1
1
1
1
1
1
1
1
1
1
1
1
1
1
1
1
1
1
1
1
1
1
1
1
1
1
1
1
1
1
1
1
1
1
1
1
1
1
1
1
1
1
1
1
1
1
1
1
1
1
1
1
1
1
1
1
1
1
1
1.47391
1.47649
1.48047
1.48121
1.47855
1.46655
1.45087
1.44334
1.44252
1.44386
1.44861
1.45363
1.45432
1.45043
1.43716
1.4223
1.41424
1.41299
1.41405
1.41854
1.42379
1.42424
1.42112
1.41008
1.39253
1.38263
1.38319
1.38699
1.40624
1.47874
1.4792
1.48472
1.48712
1.48579
1.47543
1.45734
1.44825
1.44659
1.4471
1.45055
1.45673
1.45912
1.45714
1.445
1.4291
1.4203
1.41704
1.41772
1.42125
1.42671
1.42851
1.42674
1.41837
1.40334
1.38905
1.38534
1.3862
1.39076
1.39717
1.41679
1.48836
1.49273
1.49232
1.48383
1.46567
1.45261
1.4504
1.45098
1.4535
1.45951
1.4638
1.4631
1.45295
1.43479
1.42546
1.42215
1.42162
1.424
1.42975
1.4327
1.43218
1.42628
1.41144
1.39717
1.3902
1.39042
1.3937
1.39742
1.40021
1.4026
1.49772
1.49825
1.49171
1.47507
1.45872
1.45394
1.45453
1.45721
1.46262
1.46824
1.46869
1.46095
1.44226
1.42872
1.42631
1.42603
1.42699
1.43227
1.43728
1.43741
1.43375
1.42154
1.40371
1.39574
1.39445
1.39607
1.40185
1.40321
1.40303
1.39841
1.50352
1.49882
1.48429
1.46651
1.45856
1.45763
1.46115
1.46636
1.4725
1.47394
1.46831
1.45126
1.4337
1.42904
1.42926
1.43045
1.43468
1.44115
1.44273
1.44065
1.43104
1.41317
1.40032
1.39854
1.39951
1.40303
1.40776
1.40773
1.40562
1.39971
1.50487
1.49257
1.4751
1.4645
1.46168
1.46436
1.4703
1.47653
1.4788
1.47495
1.4604
1.44093
1.43267
1.43196
1.43376
1.43734
1.44427
1.44777
1.44698
1.43993
1.42206
1.40674
1.40264
1.40338
1.40624
1.41022
1.41161
1.41079
1.40704
1.39965
1.49955
1.48398
1.47169
1.46674
1.46811
1.47388
1.48004
1.48316
1.48078
1.46893
1.4497
1.43772
1.4353
1.43714
1.4406
1.447
1.45234
1.45246
1.44745
1.43161
1.41278
1.40691
1.40733
1.41016
1.41425
1.41535
1.41506
1.41242
1.40655
1.39906
1.49233
1.47988
1.47288
1.47314
1.47754
1.48308
1.48716
1.48582
1.47623
1.45859
1.44423
1.4396
1.44074
1.44445
1.45004
1.45627
1.45736
1.45367
1.44038
1.42033
1.41071
1.41074
1.41336
1.41828
1.4202
1.41983
1.41785
1.41239
1.40519
1.39897
1.48955
1.48005
1.47901
1.48167
1.48561
1.49051
1.49026
1.48266
1.4672
1.45186
1.44474
1.44481
1.44849
1.45339
1.45991
1.46209
1.45937
1.44836
1.42909
1.41512
1.41405
1.41618
1.42117
1.42481
1.42473
1.42351
1.41874
1.41124
1.40402
1.40126
1.48984
1.48496
1.48615
1.4879
1.49292
1.49381
1.48813
1.47505
1.4605
1.45084
1.44945
1.45235
1.45674
1.46331
1.46657
1.4648
1.45589
1.43824
1.42142
1.41748
1.41907
1.42353
1.42856
1.42917
1.42849
1.42487
1.41813
1.41013
1.4051
1.4049
1.49356
1.4906
1.49075
1.4944
1.49645
1.4926
1.4818
1.46979
1.45842
1.45476
1.45666
1.45994
1.46626
1.47059
1.46966
1.4628
1.44723
1.42933
1.42174
1.42259
1.42615
1.43174
1.43348
1.433
1.43045
1.4243
1.41678
1.40998
1.40862
1.40798
1.4969
1.49417
1.49607
1.49857
1.49632
1.48791
1.47795
1.46746
1.46062
1.46149
1.46356
1.46892
1.47425
1.47419
1.46917
1.45551
1.43783
1.42707
1.42653
1.42911
1.43482
1.43801
1.43768
1.43587
1.43051
1.42302
1.41574
1.41234
1.41194
1.40915
1.49748
1.49774
1.50039
1.49973
1.49419
1.48587
1.47694
1.46787
1.46661
1.46732
1.47124
1.47746
1.47834
1.47481
1.46342
1.4463
1.43385
1.43084
1.43234
1.43723
1.44221
1.44236
1.44119
1.43666
1.42942
1.42167
1.41677
1.41565
1.41364
1.40972
1.49936
1.50152
1.50261
1.50019
1.49364
1.48598
1.47721
1.47191
1.47124
1.47352
1.47967
1.48171
1.47924
1.47047
1.45479
1.44102
1.43579
1.43656
1.44005
1.44555
1.44684
1.44608
1.44268
1.43568
1.42752
1.42178
1.41965
1.41815
1.41437
1.41265
1.50275
1.50522
1.50507
1.50084
1.49478
1.48704
1.47978
1.47566
1.47635
1.48106
1.48437
1.48277
1.47605
1.46268
1.44909
1.44107
1.44094
1.44381
1.44898
1.45156
1.45096
1.44841
1.44224
1.43369
1.42648
1.424
1.42278
1.41989
1.41718
1.41671
1.50781
1.50886
1.50661
1.50237
1.49627
1.48884
1.4815
1.48063
1.48277
1.48636
1.48565
1.48071
1.46965
1.4572
1.44739
1.44528
1.44737
1.45243
1.45627
1.45607
1.45391
1.44833
1.44021
1.43191
1.42798
1.427
1.42551
1.4224
1.42165
1.41966
1.51298
1.51198
1.50886
1.50416
1.49759
1.48859
1.48553
1.48624
1.48827
1.48846
1.48518
1.47582
1.46432
1.45438
1.45025
1.45155
1.45605
1.46052
1.46086
1.45884
1.45372
1.44593
1.43739
1.43259
1.43147
1.43071
1.42835
1.42651
1.42468
1.41985
1.51967
1.5162
1.51219
1.50711
1.49764
1.4907
1.49078
1.49176
1.4921
1.48975
1.48144
1.47082
1.46125
1.45607
1.45644
1.45983
1.46469
1.46593
1.46393
1.4585
1.45054
1.44202
1.43683
1.43588
1.43577
1.43463
1.43206
1.42947
1.42483
1.41776
1.52424
1.52088
1.5167
1.50676
1.49718
1.49554
1.49632
1.4965
1.49442
1.48726
1.47718
1.46791
1.46232
1.46208
1.46456
1.4686
1.47018
1.46879
1.46308
1.45484
1.44662
1.44115
1.43976
1.44017
1.44016
1.43856
1.43448
1.42963
1.42336
1.41664
1.52724
1.52355
1.51298
1.50327
1.50033
1.50094
1.50134
1.49925
1.49356
1.48434
1.47505
1.46908
1.46826
1.47036
1.47353
1.47432
1.47292
1.46745
1.45891
1.45079
1.44592
1.44448
1.44498
1.44564
1.44459
1.43959
1.43398
1.42865
1.42255
1.41944
1.52666
1.51632
1.507
1.50606
1.50787
1.50782
1.50492
1.49951
1.49245
1.48285
1.47673
1.47528
1.4762
1.47869
1.47889
1.47686
1.47126
1.46266
1.4551
1.45058
1.44947
1.45035
1.45172
1.45076
1.4451
1.43816
1.43315
1.42848
1.42489
1.42525
1.52127
1.51172
1.51276
1.51573
1.51442
1.51187
1.50779
1.50174
1.49122
1.48394
1.48283
1.48268
1.48415
1.48415
1.48098
1.4745
1.46562
1.45895
1.45554
1.45483
1.45578
1.45699
1.45582
1.45001
1.44209
1.43699
1.43342
1.43082
1.43077
1.43303
1.51894
1.5186
1.51742
1.51712
1.51777
1.51568
1.51013
1.49952
1.4908
1.48928
1.48954
1.48937
1.48951
1.48661
1.47929
1.46919
1.46234
1.46035
1.46049
1.46215
1.46316
1.46158
1.45506
1.44574
1.43992
1.43701
1.43665
1.43663
1.43847
1.4399
1.50945
1.5201
1.52157
1.52163
1.51886
1.51522
1.503
1.49691
1.49664
1.49824
1.49668
1.49465
1.49146
1.4847
1.4751
1.46708
1.46527
1.4662
1.46813
1.46873
1.4668
1.46069
1.45111
1.44424
1.44127
1.44103
1.44187
1.4436
1.44444
1.44142
1.45986
1.5095
1.52339
1.5201
1.51762
1.50705
1.50159
1.50398
1.50656
1.50505
1.50219
1.49822
1.49024
1.47983
1.47254
1.47059
1.47212
1.47466
1.47457
1.47134
1.46462
1.45525
1.44847
1.4461
1.44632
1.44743
1.44863
1.44893
1.4437
1.44668
1.27223
1.44164
1.4965
1.51189
1.51323
1.50914
1.50825
1.50849
1.50894
1.50927
1.50749
1.49914
1.48776
1.47977
1.47599
1.47657
1.47906
1.47938
1.47689
1.47014
1.4604
1.45366
1.45134
1.4518
1.453
1.45496
1.45315
1.45469
1.48018
1.57483
1.05418
1.24327
1.37607
1.45141
1.49651
1.5133
1.51184
1.51128
1.51069
1.50919
1.50423
1.4928
1.48757
1.48701
1.48556
1.48466
1.48331
1.47952
1.47309
1.46451
1.45878
1.4574
1.45785
1.45977
1.46037
1.46049
1.47568
1.55136
1.69336
1.81883
1.00262
1.04039
1.14479
1.27205
1.4331
1.50395
1.51447
1.51643
1.51331
1.50807
1.49333
1.48909
1.49087
1.49187
1.49273
1.49227
1.48658
1.47616
1.46729
1.46331
1.46299
1.46407
1.46644
1.46643
1.47473
1.52808
1.66178
1.80241
1.89149
1.9251
1.00003
1.00116
1.01184
1.06335
1.23606
1.43084
1.49446
1.50814
1.50829
1.50251
1.49424
1.4953
1.49776
1.49681
1.49557
1.493
1.48376
1.47336
1.47001
1.46848
1.46985
1.4704
1.47487
1.51063
1.62562
1.78382
1.88886
1.94069
1.9533
1.95054
1
1.00001
1.00017
1.00335
1.04099
1.21137
1.39751
1.45401
1.48065
1.4992
1.50715
1.50656
1.50355
1.49968
1.49708
1.491
1.47858
1.47614
1.47785
1.4773
1.4788
1.49739
1.59573
1.75219
1.87735
1.94869
1.95207
1.94897
1.94433
1.93937
1
1
1
1.00005
1.00173
1.03047
1.16152
1.29425
1.3934
1.48193
1.51195
1.51006
1.5072
1.50418
1.50028
1.4848
1.47674
1.47857
1.48175
1.49281
1.55538
1.7075
1.86585
1.94686
1.98532
1.98588
1.97197
1.94926
1.93115
1.92465
1
1
1
1
1.00002
1.00102
1.01398
1.07493
1.19744
1.39249
1.48899
1.50276
1.502
1.4993
1.49304
1.47981
1.48118
1.48939
1.53226
1.65754
1.82763
1.93841
1.96553
1.96928
1.97088
1.96946
1.96013
1.94193
1.92272
1.9132
1
1
1
1
1
1.00001
1.00021
1.00356
1.03096
1.16027
1.37203
1.47067
1.48749
1.48079
1.48095
1.49085
1.522
1.61067
1.78024
1.92193
1.97688
1.99171
1.98641
1.9698
1.95297
1.94587
1.94188
1.93267
1.91666
1.90534
1
1
1
1
1
1
1
1.00003
1.0011
1.01692
1.12806
1.31995
1.41409
1.44908
1.52826
1.6225
1.72116
1.85592
1.92572
1.95507
1.97259
1.96507
1.96068
1.959
1.94833
1.93716
1.93243
1.92752
1.91736
1.90761
1
1
1
1
1
1
1
1
1.00001
1.00046
1.01146
1.10013
1.24548
1.44606
1.65885
1.84904
1.99886
2.09032
2.07816
2.02968
1.97212
1.95027
1.94259
1.94026
1.93731
1.92974
1.92542
1.92088
1.91259
1.90524
)
;

boundaryField
{
    inlet
    {
        type            fixedValue;
        value           nonuniform 0();
    }
    outlet
    {
        type            inletOutlet;
        inletValue      nonuniform 0();
        value           nonuniform 0();
    }
    bottom
    {
        type            zeroGradient;
    }
    top
    {
        type            zeroGradient;
    }
    obstacle
    {
        type            zeroGradient;
    }
    defaultFaces
    {
        type            empty;
    }
    procBoundary13to9
    {
        type            processor;
        value           nonuniform List<scalar> 
119
(
1
1
1
1
1
1
1
1
1
1
1
1
1
1
1
1
1
1
1
1
1
1
1
1
1
1
1
1
1
1
1
1
1
1
1
1
1
1
1
1
1
1
1
1
1
1
1
1
1
1.00001
1.00085
1.01936
1.13821
1.32721
1.53368
1.60951
1.60061
1.58819
1.57848
1.57856
1.57534
1.57391
1.57873
1.58219
1.58049
1.57182
1.55818
1.5409
1.52881
1.5278
1.52913
1.53596
1.54282
1.54329
1.53749
1.52315
1.50686
1.50118
1.49944
1.49771
1.49865
1.5016
1.50133
1.49566
1.48382
1.47362
1
1
1
1.47113
1.47143
1.47333
1.47533
1.47519
1.47055
1.45782
1.44401
1.4389
1.43924
1.44178
1.44683
1.44949
1.44868
1.44243
1.42829
1.41478
1.40925
1.40894
1.4107
1.41639
1.42063
1.41994
1.41356
1.39824
1.38507
1.38417
1.3965
1.46694
1.57979
)
;
    }
    procBoundary13to10
    {
        type            processor;
        value           nonuniform List<scalar> 3(1.58181 1.48171 1.41916);
    }
    procBoundary13to12
    {
        type            processor;
        value           nonuniform List<scalar> 
34
(
1
1
1
1
1
1
1
1
1
1
1
1
1
1
1
1
1
1
1
1
1
1
1
1
1
1
1
1
1
1
1
1
1
1
)
;
    }
    procBoundary13to14
    {
        type            processor;
        value           nonuniform List<scalar> 
32
(
1.39834
1.39011
1.3891
1.392
1.39651
1.40079
1.40416
1.40486
1.40542
1.40859
1.41202
1.41426
1.41446
1.41233
1.41139
1.41463
1.42036
1.42818
1.43498
1.43782
1.43429
1.48721
1.71949
1.90582
1.93458
1.93722
1.93111
1.92137
1.90987
1.90033
1.9014
1.89835
)
;
    }
}


// ************************************************************************* //
