/*--------------------------------*- C++ -*----------------------------------*\
  =========                 |
  \\      /  F ield         | OpenFOAM: The Open Source CFD Toolbox
   \\    /   O peration     | Website:  https://openfoam.org
    \\  /    A nd           | Version:  7
     \\/     M anipulation  |
\*---------------------------------------------------------------------------*/
FoamFile
{
    version     2.0;
    format      ascii;
    class       volVectorField;
    location    "4";
    object      U;
}
// * * * * * * * * * * * * * * * * * * * * * * * * * * * * * * * * * * * * * //

dimensions      [0 1 -1 0 0 0 0];

internalField   nonuniform List<vector> 
16512
(
(2.45692 -0.442938 0)
(2.45859 -0.446172 0)
(2.46233 -0.447373 0)
(2.46538 -0.446745 0)
(2.46988 -0.445173 0)
(2.47481 -0.442909 0)
(2.47911 -0.441106 0)
(2.48304 -0.439799 0)
(2.48645 -0.438333 0)
(2.48814 -0.436664 0)
(2.48727 -0.435928 0)
(2.4838 -0.438104 0)
(2.48213 -0.441849 0)
(2.48493 -0.443277 0)
(2.48853 -0.44375 0)
(2.49192 -0.443854 0)
(2.49624 -0.444159 0)
(2.50088 -0.444369 0)
(2.5058 -0.444383 0)
(2.51094 -0.444579 0)
(2.51568 -0.445087 0)
(2.51779 -0.444995 0)
(2.51445 -0.44251 0)
(2.50974 -0.437626 0)
(2.51019 -0.434546 0)
(2.51345 -0.433593 0)
(2.51712 -0.43334 0)
(2.52045 -0.433545 0)
(2.52331 -0.434408 0)
(2.526 -0.43584 0)
(2.52906 -0.437527 0)
(2.53223 -0.439255 0)
(2.53515 -0.441013 0)
(2.53809 -0.442807 0)
(2.54115 -0.444122 0)
(2.54423 -0.44465 0)
(2.54686 -0.443492 0)
(2.54892 -0.440808 0)
(2.55019 -0.437347 0)
(2.55085 -0.434345 0)
(2.55192 -0.433241 0)
(2.5533 -0.433616 0)
(2.55441 -0.434835 0)
(2.55585 -0.43643 0)
(2.55874 -0.437865 0)
(2.56252 -0.438904 0)
(2.56609 -0.439174 0)
(2.56822 -0.4369 0)
(2.56701 -0.43179 0)
(2.56584 -0.427079 0)
(2.56885 -0.425956 0)
(2.57208 -0.426287 0)
(2.57487 -0.42704 0)
(2.57791 -0.428322 0)
(2.58054 -0.429273 0)
(2.58374 -0.429917 0)
(2.58782 -0.430475 0)
(2.59215 -0.431278 0)
(2.59598 -0.431942 0)
(2.59954 -0.432762 0)
(2.60238 -0.434482 0)
(2.60426 -0.436259 0)
(2.60328 -0.435734 0)
(2.59742 -0.430005 0)
(2.59183 -0.423052 0)
(2.59328 -0.421431 0)
(2.59646 -0.421751 0)
(2.5994 -0.421968 0)
(2.60254 -0.421752 0)
(2.60596 -0.421953 0)
(2.60946 -0.422571 0)
(2.61241 -0.423704 0)
(2.61493 -0.424848 0)
(2.61641 -0.426068 0)
(2.61767 -0.426926 0)
(2.62045 -0.427374 0)
(2.62351 -0.427654 0)
(2.62642 -0.427769 0)
(2.62907 -0.427694 0)
(2.63166 -0.427423 0)
(2.63443 -0.427162 0)
(2.63684 -0.426934 0)
(2.63684 -0.425539 0)
(2.63403 -0.422705 0)
(2.63261 -0.420665 0)
(2.63355 -0.419825 0)
(2.6356 -0.419465 0)
(2.63846 -0.419401 0)
(2.64168 -0.419742 0)
(2.64505 -0.420423 0)
(2.64802 -0.421511 0)
(2.65067 -0.422644 0)
(2.65309 -0.422767 0)
(2.65381 -0.421029 0)
(2.65125 -0.417887 0)
(2.64906 -0.415851 0)
(2.6507 -0.41535 0)
(2.65348 -0.415042 0)
(2.65669 -0.414775 0)
(2.66017 -0.414699 0)
(2.66346 -0.414947 0)
(2.66651 -0.415481 0)
(2.66913 -0.41558 0)
(2.67028 -0.414627 0)
(2.66976 -0.413789 0)
(2.66823 -0.414133 0)
(2.66736 -0.414993 0)
(2.66865 -0.415187 0)
(2.67214 -0.415417 0)
(2.67483 -0.415973 0)
(2.67716 -0.415661 0)
(2.67844 -0.41383 0)
(2.67867 -0.411739 0)
(2.67973 -0.410072 0)
(2.68254 -0.409094 0)
(2.68558 -0.408592 0)
(2.68848 -0.40836 0)
(2.69118 -0.40852 0)
(2.69315 -0.409321 0)
(2.69532 -0.410342 0)
(2.69795 -0.411078 0)
(2.70044 -0.411444 0)
(2.70255 -0.411807 0)
(2.70404 -0.412846 0)
(2.70577 -0.414085 0)
(2.70772 -0.414852 0)
(2.70967 -0.414 0)
(2.71084 -0.410874 0)
(2.70977 -0.406089 0)
(2.70735 -0.402414 0)
(2.70734 -0.401818 0)
(2.70886 -0.403028 0)
(2.71061 -0.404099 0)
(2.71267 -0.404446 0)
(2.71398 -0.40464 0)
(2.71421 -0.405959 0)
(2.71603 -0.406398 0)
(2.71876 -0.406271 0)
(2.72121 -0.40586 0)
(2.72339 -0.404171 0)
(2.7247 -0.401107 0)
(2.72353 -0.397425 0)
(2.71993 -0.396515 0)
(2.7188 -0.398715 0)
(2.7218 -0.399842 0)
(2.72391 -0.40024 0)
(2.72602 -0.400278 0)
(2.72879 -0.399613 0)
(2.73152 -0.398966 0)
(2.73414 -0.39854 0)
(2.73652 -0.398094 0)
(2.73888 -0.397375 0)
(2.7414 -0.39661 0)
(2.74407 -0.39629 0)
(2.74658 -0.395931 0)
(2.74864 -0.396269 0)
(2.75003 -0.398383 0)
(2.75011 -0.400165 0)
(2.74811 -0.401172 0)
(2.7461 -0.399137 0)
(2.74661 -0.396018 0)
(2.74728 -0.390482 0)
(2.7477 -0.382383 0)
(2.74338 -0.363923 0)
(2.73062 -0.325843 0)
(2.70562 -0.254818 0)
(2.68258 -0.176265 0)
(2.65729 -0.0815452 0)
(2.61904 0.056523 0)
(2.60184 0.0859556 0)
(2.6047 0.0713781 0)
(2.59323 0.0853613 0)
(2.57703 0.0937998 0)
(2.5699 0.106297 0)
(2.5641 0.111758 0)
(2.5637 0.118824 0)
(2.56205 0.12478 0)
(2.5622 0.129997 0)
(2.56492 0.134601 0)
(2.56838 0.13701 0)
(2.57106 0.136044 0)
(2.57389 0.132124 0)
(2.57702 0.128687 0)
(2.57891 0.127474 0)
(2.57948 0.128189 0)
(2.58011 0.130982 0)
(2.58067 0.136536 0)
(2.57933 0.142546 0)
(2.57643 0.146203 0)
(2.57584 0.146409 0)
(2.5758 0.145452 0)
(2.57559 0.144949 0)
(2.57543 0.14551 0)
(2.57468 0.147199 0)
(2.57274 0.150949 0)
(2.57144 0.156459 0)
(2.57256 0.16092 0)
(2.57431 0.164713 0)
(2.5768 0.167653 0)
(2.58004 0.16967 0)
(2.5825 0.169705 0)
(2.58417 0.169719 0)
(2.58513 0.170113 0)
(2.58578 0.170548 0)
(2.58689 0.171549 0)
(2.58786 0.172548 0)
(2.58763 0.173327 0)
(2.58448 0.174151 0)
(2.5803 0.175727 0)
(2.57843 0.177194 0)
(2.5783 0.177856 0)
(2.57847 0.178158 0)
(2.57967 0.178845 0)
(2.58298 0.180105 0)
(2.58641 0.18207 0)
(2.58781 0.183711 0)
(2.58845 0.185044 0)
(2.58926 0.186863 0)
(2.58904 0.189736 0)
(2.58623 0.193956 0)
(2.58231 0.198066 0)
(2.58026 0.199791 0)
(2.58048 0.199699 0)
(2.58091 0.199472 0)
(2.58145 0.199227 0)
(2.58305 0.198937 0)
(2.58616 0.199068 0)
(2.58952 0.200418 0)
(2.59127 0.202674 0)
(2.5919 0.204554 0)
(2.59297 0.207399 0)
(2.59316 0.210603 0)
(2.59185 0.21386 0)
(2.59026 0.215537 0)
(2.59017 0.215605 0)
(2.59068 0.215306 0)
(2.59115 0.21495 0)
(2.59149 0.214656 0)
(2.5917 0.214927 0)
(2.59122 0.216426 0)
(2.58959 0.219805 0)
(2.58875 0.223397 0)
(2.58908 0.225552 0)
(2.59074 0.228335 0)
(2.59458 0.232804 0)
(2.59885 0.236894 0)
(2.60098 0.238396 0)
(2.6022 0.239294 0)
(2.60397 0.240549 0)
(2.60536 0.242671 0)
(2.60448 0.245478 0)
(2.59944 0.247211 0)
(2.59284 0.245863 0)
(2.59015 0.24209 0)
(2.58979 0.238952 0)
(2.58993 0.237443 0)
(2.59115 0.235705 0)
(2.59284 0.237309 0)
(2.4556 -0.435281 0)
(2.45874 -0.436494 0)
(2.46198 -0.436215 0)
(2.46612 -0.43554 0)
(2.47226 -0.43468 0)
(2.47781 -0.433156 0)
(2.48163 -0.432266 0)
(2.48571 -0.432057 0)
(2.48961 -0.431744 0)
(2.49114 -0.431661 0)
(2.48767 -0.432784 0)
(2.4823 -0.434328 0)
(2.48242 -0.435056 0)
(2.48597 -0.435222 0)
(2.48932 -0.434772 0)
(2.49356 -0.434378 0)
(2.49879 -0.43417 0)
(2.50443 -0.434824 0)
(2.50858 -0.436482 0)
(2.51304 -0.4381 0)
(2.51734 -0.43919 0)
(2.51947 -0.440144 0)
(2.51854 -0.439756 0)
(2.51634 -0.436905 0)
(2.51539 -0.432737 0)
(2.51643 -0.429419 0)
(2.51865 -0.427287 0)
(2.52102 -0.425848 0)
(2.52327 -0.425555 0)
(2.52513 -0.426766 0)
(2.52672 -0.4286 0)
(2.52949 -0.430557 0)
(2.53325 -0.431971 0)
(2.53702 -0.432881 0)
(2.54094 -0.433605 0)
(2.54537 -0.434078 0)
(2.5491 -0.434244 0)
(2.55266 -0.434045 0)
(2.55508 -0.432457 0)
(2.55535 -0.429788 0)
(2.55426 -0.427712 0)
(2.55372 -0.427754 0)
(2.55435 -0.428972 0)
(2.55604 -0.429971 0)
(2.55877 -0.430542 0)
(2.5623 -0.431068 0)
(2.5664 -0.431631 0)
(2.5704 -0.431956 0)
(2.57276 -0.430571 0)
(2.57174 -0.426241 0)
(2.57163 -0.421595 0)
(2.57395 -0.419415 0)
(2.57581 -0.419019 0)
(2.57819 -0.419541 0)
(2.58104 -0.420202 0)
(2.58416 -0.421039 0)
(2.58861 -0.422506 0)
(2.59212 -0.423837 0)
(2.59638 -0.424776 0)
(2.6005 -0.425466 0)
(2.60403 -0.426294 0)
(2.60559 -0.428306 0)
(2.60545 -0.430144 0)
(2.60363 -0.428623 0)
(2.60035 -0.422577 0)
(2.59746 -0.415633 0)
(2.59746 -0.412918 0)
(2.59956 -0.413146 0)
(2.60218 -0.414301 0)
(2.60496 -0.41539 0)
(2.60768 -0.416302 0)
(2.60999 -0.417736 0)
(2.61205 -0.419487 0)
(2.61496 -0.420513 0)
(2.61883 -0.421193 0)
(2.62244 -0.421316 0)
(2.62586 -0.420934 0)
(2.62923 -0.420336 0)
(2.63225 -0.419455 0)
(2.63473 -0.419034 0)
(2.63715 -0.418852 0)
(2.63913 -0.418941 0)
(2.63958 -0.419194 0)
(2.63732 -0.418342 0)
(2.63581 -0.416898 0)
(2.63684 -0.415676 0)
(2.63883 -0.414546 0)
(2.64123 -0.413403 0)
(2.6439 -0.412472 0)
(2.64642 -0.412157 0)
(2.64892 -0.412769 0)
(2.6513 -0.414037 0)
(2.65344 -0.415391 0)
(2.65532 -0.416134 0)
(2.65487 -0.415162 0)
(2.65202 -0.412287 0)
(2.65129 -0.410196 0)
(2.65324 -0.409144 0)
(2.65586 -0.408355 0)
(2.65856 -0.407803 0)
(2.6615 -0.407561 0)
(2.66481 -0.407489 0)
(2.66822 -0.407391 0)
(2.67146 -0.407419 0)
(2.67315 -0.40751 0)
(2.67175 -0.407771 0)
(2.66934 -0.407924 0)
(2.66996 -0.407515 0)
(2.67254 -0.406938 0)
(2.67555 -0.406871 0)
(2.67838 -0.407212 0)
(2.68115 -0.407855 0)
(2.68308 -0.407987 0)
(2.68393 -0.406644 0)
(2.68496 -0.404603 0)
(2.68643 -0.402655 0)
(2.68807 -0.401091 0)
(2.68977 -0.400866 0)
(2.69113 -0.402031 0)
(2.69252 -0.40339 0)
(2.69406 -0.404734 0)
(2.69561 -0.405978 0)
(2.69822 -0.406039 0)
(2.70144 -0.405872 0)
(2.70438 -0.406011 0)
(2.70751 -0.406063 0)
(2.71079 -0.405658 0)
(2.71363 -0.404013 0)
(2.71439 -0.400541 0)
(2.71132 -0.396292 0)
(2.70715 -0.394627 0)
(2.70648 -0.39521 0)
(2.70787 -0.396457 0)
(2.70916 -0.397365 0)
(2.71058 -0.397899 0)
(2.71264 -0.398297 0)
(2.71499 -0.398105 0)
(2.71831 -0.397506 0)
(2.72134 -0.397383 0)
(2.72455 -0.397509 0)
(2.72706 -0.39642 0)
(2.72547 -0.393605 0)
(2.7198 -0.391816 0)
(2.71906 -0.39232 0)
(2.72147 -0.392726 0)
(2.7234 -0.392934 0)
(2.72544 -0.393005 0)
(2.72949 -0.392397 0)
(2.73194 -0.391462 0)
(2.73475 -0.391145 0)
(2.73752 -0.39075 0)
(2.74028 -0.390324 0)
(2.74316 -0.389908 0)
(2.74592 -0.389789 0)
(2.7483 -0.389532 0)
(2.74993 -0.389012 0)
(2.74903 -0.390693 0)
(2.74666 -0.393885 0)
(2.74709 -0.395779 0)
(2.74858 -0.396069 0)
(2.7509 -0.39428 0)
(2.75237 -0.391255 0)
(2.75339 -0.387386 0)
(2.75452 -0.384046 0)
(2.75455 -0.377524 0)
(2.75354 -0.366956 0)
(2.74603 -0.34182 0)
(2.72757 -0.292957 0)
(2.69957 -0.205594 0)
(2.68453 -0.137575 0)
(2.64223 -0.03119 0)
(2.6076 0.0792725 0)
(2.59046 0.0815959 0)
(2.59485 0.0736763 0)
(2.5858 0.0882304 0)
(2.57516 0.102685 0)
(2.57259 0.114735 0)
(2.57144 0.122502 0)
(2.57138 0.132742 0)
(2.57251 0.139397 0)
(2.57307 0.14103 0)
(2.57463 0.141102 0)
(2.57589 0.140337 0)
(2.57742 0.138011 0)
(2.58023 0.134408 0)
(2.58229 0.133714 0)
(2.58414 0.135499 0)
(2.58347 0.13994 0)
(2.58006 0.143439 0)
(2.57767 0.144327 0)
(2.57694 0.144703 0)
(2.57716 0.145595 0)
(2.5775 0.147063 0)
(2.57744 0.149174 0)
(2.57641 0.152247 0)
(2.57615 0.15625 0)
(2.57701 0.160618 0)
(2.57829 0.166257 0)
(2.58055 0.171261 0)
(2.58293 0.173376 0)
(2.58446 0.173517 0)
(2.58549 0.173031 0)
(2.58609 0.172798 0)
(2.58689 0.172824 0)
(2.58816 0.173005 0)
(2.58899 0.173184 0)
(2.58833 0.173149 0)
(2.5859 0.173577 0)
(2.5835 0.1756 0)
(2.58204 0.17855 0)
(2.58141 0.181133 0)
(2.5815 0.18255 0)
(2.5826 0.184013 0)
(2.58549 0.185123 0)
(2.58845 0.185641 0)
(2.58961 0.186342 0)
(2.59049 0.187165 0)
(2.59143 0.18827 0)
(2.59171 0.190074 0)
(2.5904 0.193189 0)
(2.58654 0.197494 0)
(2.58268 0.201106 0)
(2.5814 0.202295 0)
(2.58163 0.20238 0)
(2.58205 0.202373 0)
(2.58358 0.202239 0)
(2.58679 0.202758 0)
(2.59074 0.204667 0)
(2.59307 0.206535 0)
(2.59376 0.207745 0)
(2.59495 0.209797 0)
(2.59565 0.212241 0)
(2.59501 0.214509 0)
(2.59226 0.21632 0)
(2.59013 0.217129 0)
(2.59058 0.217211 0)
(2.59144 0.217304 0)
(2.59216 0.217549 0)
(2.59333 0.218244 0)
(2.59386 0.219667 0)
(2.59379 0.221894 0)
(2.59396 0.22538 0)
(2.59512 0.229784 0)
(2.59666 0.235304 0)
(2.59933 0.239795 0)
(2.60112 0.240858 0)
(2.60235 0.240938 0)
(2.6041 0.241197 0)
(2.606 0.241536 0)
(2.60744 0.242076 0)
(2.60639 0.242715 0)
(2.60047 0.24281 0)
(2.59326 0.242247 0)
(2.59044 0.241225 0)
(2.59 0.240679 0)
(2.59011 0.24052 0)
(2.59112 0.239653 0)
(2.59296 0.24268 0)
(2.45788 -0.428066 0)
(2.46132 -0.428342 0)
(2.46499 -0.428171 0)
(2.46944 -0.427564 0)
(2.47587 -0.426196 0)
(2.48071 -0.425031 0)
(2.48472 -0.42548 0)
(2.48862 -0.426154 0)
(2.49185 -0.426933 0)
(2.4926 -0.428326 0)
(2.48787 -0.430041 0)
(2.4832 -0.430089 0)
(2.48513 -0.428237 0)
(2.48911 -0.427486 0)
(2.4929 -0.427405 0)
(2.49672 -0.426038 0)
(2.50008 -0.424734 0)
(2.50454 -0.425134 0)
(2.50898 -0.42639 0)
(2.51252 -0.428891 0)
(2.51613 -0.430566 0)
(2.51899 -0.432502 0)
(2.5203 -0.433948 0)
(2.52114 -0.432886 0)
(2.52193 -0.430156 0)
(2.52162 -0.426171 0)
(2.52111 -0.422004 0)
(2.52247 -0.419209 0)
(2.52487 -0.41792 0)
(2.52787 -0.418525 0)
(2.52975 -0.42021 0)
(2.5314 -0.422095 0)
(2.53447 -0.423205 0)
(2.5376 -0.423985 0)
(2.5414 -0.42451 0)
(2.54617 -0.424867 0)
(2.55074 -0.425007 0)
(2.55454 -0.425301 0)
(2.55822 -0.425491 0)
(2.5601 -0.424662 0)
(2.55873 -0.423259 0)
(2.55594 -0.422878 0)
(2.55586 -0.423986 0)
(2.55857 -0.424864 0)
(2.56185 -0.424986 0)
(2.56526 -0.424576 0)
(2.5688 -0.423801 0)
(2.5726 -0.423006 0)
(2.57631 -0.422157 0)
(2.57754 -0.419912 0)
(2.57344 -0.415428 0)
(2.57063 -0.412275 0)
(2.57335 -0.411266 0)
(2.57688 -0.411143 0)
(2.58009 -0.41145 0)
(2.58344 -0.412243 0)
(2.58681 -0.414055 0)
(2.5901 -0.416147 0)
(2.59345 -0.417865 0)
(2.59695 -0.418961 0)
(2.60034 -0.419629 0)
(2.60325 -0.420392 0)
(2.60537 -0.421615 0)
(2.60708 -0.422019 0)
(2.60743 -0.419446 0)
(2.60464 -0.413683 0)
(2.60186 -0.408717 0)
(2.60233 -0.407135 0)
(2.60427 -0.407471 0)
(2.60627 -0.4088 0)
(2.60804 -0.410054 0)
(2.60988 -0.411256 0)
(2.61272 -0.412478 0)
(2.61547 -0.413147 0)
(2.61778 -0.413282 0)
(2.6205 -0.41277 0)
(2.62396 -0.411759 0)
(2.62765 -0.410322 0)
(2.63119 -0.409672 0)
(2.63439 -0.40976 0)
(2.63673 -0.410327 0)
(2.63815 -0.411149 0)
(2.63879 -0.412155 0)
(2.63841 -0.412838 0)
(2.63744 -0.411433 0)
(2.6381 -0.409275 0)
(2.64037 -0.407594 0)
(2.64264 -0.406297 0)
(2.64528 -0.40577 0)
(2.64841 -0.40584 0)
(2.65135 -0.406337 0)
(2.65383 -0.407184 0)
(2.65574 -0.408151 0)
(2.65665 -0.40936 0)
(2.65648 -0.410093 0)
(2.65518 -0.408661 0)
(2.65446 -0.406027 0)
(2.65589 -0.403971 0)
(2.6583 -0.402719 0)
(2.66086 -0.401938 0)
(2.66367 -0.401384 0)
(2.66656 -0.400965 0)
(2.66898 -0.400542 0)
(2.67084 -0.400142 0)
(2.67187 -0.400473 0)
(2.67189 -0.401583 0)
(2.67145 -0.401985 0)
(2.67161 -0.401182 0)
(2.67316 -0.400195 0)
(2.67594 -0.399416 0)
(2.67889 -0.398982 0)
(2.68175 -0.398864 0)
(2.68444 -0.398948 0)
(2.68656 -0.398875 0)
(2.68746 -0.398372 0)
(2.68804 -0.397403 0)
(2.68936 -0.39611 0)
(2.69103 -0.395038 0)
(2.69242 -0.39476 0)
(2.6927 -0.396059 0)
(2.6929 -0.397438 0)
(2.69494 -0.398296 0)
(2.69757 -0.398782 0)
(2.70068 -0.399158 0)
(2.70482 -0.399556 0)
(2.70881 -0.399546 0)
(2.71217 -0.399451 0)
(2.7156 -0.398684 0)
(2.71804 -0.396462 0)
(2.71698 -0.392948 0)
(2.71103 -0.389651 0)
(2.70667 -0.388729 0)
(2.70752 -0.389279 0)
(2.70965 -0.389904 0)
(2.71198 -0.390463 0)
(2.71471 -0.390953 0)
(2.71731 -0.391198 0)
(2.72044 -0.39093 0)
(2.72254 -0.390936 0)
(2.72579 -0.391333 0)
(2.72869 -0.391274 0)
(2.72801 -0.389762 0)
(2.72194 -0.387655 0)
(2.72053 -0.386393 0)
(2.72266 -0.385811 0)
(2.72484 -0.385366 0)
(2.7269 -0.384702 0)
(2.72881 -0.384178 0)
(2.73112 -0.384096 0)
(2.73412 -0.383979 0)
(2.73681 -0.383626 0)
(2.73963 -0.383297 0)
(2.74249 -0.382855 0)
(2.74476 -0.382911 0)
(2.74626 -0.383551 0)
(2.74638 -0.384856 0)
(2.74476 -0.386688 0)
(2.74418 -0.387632 0)
(2.74693 -0.388021 0)
(2.75001 -0.388393 0)
(2.7529 -0.388678 0)
(2.75541 -0.388464 0)
(2.7576 -0.385565 0)
(2.75841 -0.382076 0)
(2.75932 -0.378264 0)
(2.76039 -0.374509 0)
(2.76115 -0.372964 0)
(2.75868 -0.366932 0)
(2.75164 -0.349125 0)
(2.73995 -0.31613 0)
(2.71567 -0.262204 0)
(2.68663 -0.182123 0)
(2.6706 -0.115723 0)
(2.61898 0.0174916 0)
(2.59887 0.0942146 0)
(2.59394 0.0833783 0)
(2.60137 0.0878869 0)
(2.58727 0.105089 0)
(2.58064 0.118532 0)
(2.582 0.129997 0)
(2.58325 0.13707 0)
(2.58213 0.142743 0)
(2.5788 0.144107 0)
(2.57796 0.143925 0)
(2.58009 0.144189 0)
(2.58219 0.144324 0)
(2.58312 0.144416 0)
(2.58229 0.144323 0)
(2.58136 0.144973 0)
(2.58032 0.146783 0)
(2.58032 0.148498 0)
(2.58102 0.149356 0)
(2.58126 0.150146 0)
(2.58079 0.150978 0)
(2.58059 0.153721 0)
(2.58166 0.157932 0)
(2.58148 0.163136 0)
(2.58149 0.169211 0)
(2.5833 0.174814 0)
(2.58425 0.177808 0)
(2.58459 0.178145 0)
(2.58547 0.177356 0)
(2.58653 0.175677 0)
(2.58717 0.174691 0)
(2.58834 0.173689 0)
(2.58902 0.172682 0)
(2.58846 0.172231 0)
(2.5874 0.17326 0)
(2.58649 0.175664 0)
(2.58547 0.179088 0)
(2.58469 0.183102 0)
(2.58478 0.186122 0)
(2.58548 0.187674 0)
(2.58735 0.188914 0)
(2.58977 0.189373 0)
(2.59121 0.189485 0)
(2.59193 0.189823 0)
(2.59278 0.190394 0)
(2.59344 0.191289 0)
(2.59312 0.193196 0)
(2.59063 0.196896 0)
(2.58655 0.201661 0)
(2.5843 0.204927 0)
(2.58433 0.206021 0)
(2.58485 0.206341 0)
(2.58638 0.207042 0)
(2.59017 0.20824 0)
(2.5946 0.209678 0)
(2.59603 0.210326 0)
(2.59669 0.210881 0)
(2.59766 0.212135 0)
(2.59834 0.213688 0)
(2.59799 0.215732 0)
(2.59531 0.218182 0)
(2.59202 0.220052 0)
(2.59146 0.220611 0)
(2.59194 0.220723 0)
(2.59255 0.2211 0)
(2.59387 0.221939 0)
(2.59597 0.223389 0)
(2.59798 0.2262 0)
(2.59976 0.230505 0)
(2.60083 0.235707 0)
(2.60077 0.239491 0)
(2.60115 0.241713 0)
(2.60209 0.24236 0)
(2.60311 0.242412 0)
(2.60434 0.242366 0)
(2.60531 0.242005 0)
(2.60518 0.240879 0)
(2.60316 0.238987 0)
(2.59956 0.238674 0)
(2.5961 0.240935 0)
(2.59358 0.243518 0)
(2.59252 0.244974 0)
(2.59248 0.245292 0)
(2.59296 0.245598 0)
(2.59528 0.24917 0)
(2.45723 -0.416811 0)
(2.46146 -0.416523 0)
(2.46554 -0.416262 0)
(2.46991 -0.415837 0)
(2.47585 -0.415746 0)
(2.48044 -0.416075 0)
(2.48519 -0.417115 0)
(2.48947 -0.418577 0)
(2.49242 -0.421004 0)
(2.49096 -0.424562 0)
(2.48685 -0.427977 0)
(2.48667 -0.426876 0)
(2.48925 -0.423821 0)
(2.49218 -0.420179 0)
(2.49581 -0.417436 0)
(2.50003 -0.41705 0)
(2.50386 -0.417584 0)
(2.5073 -0.418342 0)
(2.5109 -0.419311 0)
(2.51389 -0.420659 0)
(2.51372 -0.423855 0)
(2.51529 -0.425488 0)
(2.51948 -0.426069 0)
(2.5232 -0.426196 0)
(2.52646 -0.425148 0)
(2.52865 -0.422535 0)
(2.52832 -0.418307 0)
(2.52498 -0.41418 0)
(2.5236 -0.412848 0)
(2.52546 -0.412257 0)
(2.52886 -0.412428 0)
(2.53255 -0.413143 0)
(2.53581 -0.413794 0)
(2.53913 -0.414689 0)
(2.54293 -0.415406 0)
(2.54747 -0.415931 0)
(2.55184 -0.416667 0)
(2.55586 -0.417453 0)
(2.55996 -0.418366 0)
(2.56294 -0.419457 0)
(2.56246 -0.4202 0)
(2.55965 -0.420079 0)
(2.55922 -0.419031 0)
(2.56161 -0.417945 0)
(2.56522 -0.41743 0)
(2.56889 -0.417125 0)
(2.57248 -0.416806 0)
(2.57597 -0.416965 0)
(2.57948 -0.416976 0)
(2.58196 -0.416163 0)
(2.58084 -0.413433 0)
(2.57622 -0.408041 0)
(2.57596 -0.40498 0)
(2.57952 -0.40441 0)
(2.58279 -0.404582 0)
(2.58638 -0.405124 0)
(2.58966 -0.405723 0)
(2.59227 -0.4068 0)
(2.59459 -0.408459 0)
(2.59756 -0.410009 0)
(2.60092 -0.411158 0)
(2.60394 -0.412107 0)
(2.60689 -0.412764 0)
(2.60968 -0.413217 0)
(2.61126 -0.412724 0)
(2.61019 -0.410141 0)
(2.60597 -0.405425 0)
(2.60384 -0.402094 0)
(2.60517 -0.401459 0)
(2.60779 -0.402608 0)
(2.61016 -0.404508 0)
(2.6114 -0.405101 0)
(2.61308 -0.404638 0)
(2.61584 -0.404722 0)
(2.61871 -0.405155 0)
(2.62212 -0.405415 0)
(2.62618 -0.404705 0)
(2.62936 -0.404132 0)
(2.63315 -0.403714 0)
(2.63632 -0.40332 0)
(2.63822 -0.403139 0)
(2.63902 -0.40359 0)
(2.63949 -0.404979 0)
(2.64007 -0.406443 0)
(2.64051 -0.405642 0)
(2.64114 -0.402869 0)
(2.64124 -0.40037 0)
(2.642 -0.399661 0)
(2.64402 -0.399453 0)
(2.64662 -0.399326 0)
(2.64921 -0.399725 0)
(2.65152 -0.400675 0)
(2.6533 -0.401757 0)
(2.65454 -0.402435 0)
(2.65568 -0.402366 0)
(2.65682 -0.401753 0)
(2.65755 -0.400021 0)
(2.65849 -0.397638 0)
(2.6608 -0.395805 0)
(2.66364 -0.394665 0)
(2.66628 -0.394175 0)
(2.66896 -0.394367 0)
(2.67162 -0.395013 0)
(2.67328 -0.395295 0)
(2.67329 -0.395082 0)
(2.6721 -0.395401 0)
(2.67221 -0.395655 0)
(2.67409 -0.395175 0)
(2.67607 -0.394265 0)
(2.67767 -0.392991 0)
(2.67925 -0.391845 0)
(2.68169 -0.391294 0)
(2.68485 -0.391273 0)
(2.68773 -0.391566 0)
(2.68969 -0.391572 0)
(2.69026 -0.390645 0)
(2.68917 -0.39043 0)
(2.68783 -0.391006 0)
(2.68774 -0.391372 0)
(2.69011 -0.391047 0)
(2.69352 -0.390886 0)
(2.69635 -0.391094 0)
(2.69917 -0.391276 0)
(2.70229 -0.391588 0)
(2.70536 -0.392 0)
(2.70901 -0.392065 0)
(2.71234 -0.391661 0)
(2.71594 -0.391015 0)
(2.71948 -0.390096 0)
(2.72041 -0.388335 0)
(2.71459 -0.385097 0)
(2.70843 -0.382773 0)
(2.70903 -0.38209 0)
(2.71113 -0.382042 0)
(2.71308 -0.382171 0)
(2.7148 -0.382308 0)
(2.71684 -0.382334 0)
(2.71963 -0.382936 0)
(2.72243 -0.384193 0)
(2.72506 -0.385746 0)
(2.72741 -0.387404 0)
(2.72859 -0.388202 0)
(2.72538 -0.385379 0)
(2.72206 -0.381614 0)
(2.72401 -0.380262 0)
(2.72643 -0.379301 0)
(2.72902 -0.378219 0)
(2.73185 -0.377857 0)
(2.73452 -0.377872 0)
(2.73693 -0.377564 0)
(2.73928 -0.377361 0)
(2.74194 -0.377115 0)
(2.74457 -0.376524 0)
(2.74676 -0.37599 0)
(2.74735 -0.377174 0)
(2.74578 -0.37914 0)
(2.74396 -0.381093 0)
(2.74506 -0.381178 0)
(2.74659 -0.380324 0)
(2.74878 -0.379459 0)
(2.75186 -0.37916 0)
(2.75509 -0.379113 0)
(2.75856 -0.378624 0)
(2.76163 -0.378386 0)
(2.76378 -0.376346 0)
(2.76434 -0.372702 0)
(2.76371 -0.369486 0)
(2.76229 -0.367665 0)
(2.75958 -0.368584 0)
(2.75505 -0.363479 0)
(2.75208 -0.357723 0)
(2.74441 -0.338774 0)
(2.73053 -0.299534 0)
(2.70183 -0.223338 0)
(2.68494 -0.148111 0)
(2.66023 -0.0601497 0)
(2.61726 0.0755068 0)
(2.60064 0.109145 0)
(2.60204 0.0939053 0)
(2.6027 0.10609 0)
(2.59764 0.121746 0)
(2.59127 0.133571 0)
(2.58725 0.13829 0)
(2.58565 0.14185 0)
(2.58407 0.144577 0)
(2.58274 0.145355 0)
(2.58204 0.146579 0)
(2.58217 0.148496 0)
(2.58261 0.152051 0)
(2.58263 0.155929 0)
(2.58249 0.156251 0)
(2.58257 0.15535 0)
(2.5835 0.153572 0)
(2.58429 0.153234 0)
(2.58505 0.154973 0)
(2.58645 0.159184 0)
(2.58662 0.163924 0)
(2.58687 0.169617 0)
(2.58721 0.175292 0)
(2.58676 0.179735 0)
(2.58553 0.182031 0)
(2.58584 0.182099 0)
(2.5864 0.181263 0)
(2.58669 0.179379 0)
(2.58751 0.176651 0)
(2.58826 0.175038 0)
(2.58883 0.174735 0)
(2.5894 0.175183 0)
(2.58972 0.176677 0)
(2.58971 0.179655 0)
(2.58928 0.183914 0)
(2.58906 0.188362 0)
(2.58933 0.19176 0)
(2.58993 0.193114 0)
(2.59083 0.193187 0)
(2.59193 0.192995 0)
(2.59289 0.192903 0)
(2.59351 0.19301 0)
(2.59433 0.193435 0)
(2.59475 0.194437 0)
(2.59401 0.196777 0)
(2.59092 0.201259 0)
(2.58791 0.20641 0)
(2.58771 0.209262 0)
(2.58828 0.210246 0)
(2.58952 0.211604 0)
(2.59236 0.213316 0)
(2.5962 0.213813 0)
(2.59783 0.213654 0)
(2.59836 0.213903 0)
(2.59913 0.214672 0)
(2.59988 0.215636 0)
(2.60029 0.217189 0)
(2.59888 0.219962 0)
(2.59582 0.223277 0)
(2.59461 0.224959 0)
(2.59471 0.225301 0)
(2.59521 0.22575 0)
(2.59618 0.227261 0)
(2.59729 0.229569 0)
(2.59956 0.2322 0)
(2.60229 0.235729 0)
(2.60353 0.238698 0)
(2.60368 0.24031 0)
(2.60361 0.242473 0)
(2.60316 0.243435 0)
(2.60297 0.243247 0)
(2.60296 0.242688 0)
(2.6026 0.241125 0)
(2.60151 0.23835 0)
(2.60028 0.23646 0)
(2.59993 0.237385 0)
(2.5996 0.240097 0)
(2.5985 0.244889 0)
(2.59697 0.249364 0)
(2.59658 0.251625 0)
(2.59677 0.253796 0)
(2.59916 0.257445 0)
(2.46051 -0.410539 0)
(2.46489 -0.409506 0)
(2.46947 -0.408752 0)
(2.47423 -0.408155 0)
(2.47958 -0.408441 0)
(2.48317 -0.409823 0)
(2.48698 -0.411171 0)
(2.49064 -0.413019 0)
(2.49116 -0.416116 0)
(2.4881 -0.419932 0)
(2.48753 -0.420692 0)
(2.49026 -0.419959 0)
(2.4936 -0.418528 0)
(2.49724 -0.415716 0)
(2.50051 -0.411829 0)
(2.50285 -0.40868 0)
(2.50451 -0.40788 0)
(2.50629 -0.409385 0)
(2.50857 -0.411343 0)
(2.50986 -0.414334 0)
(2.5119 -0.416954 0)
(2.51604 -0.418139 0)
(2.51967 -0.418316 0)
(2.52428 -0.417736 0)
(2.52833 -0.417187 0)
(2.53234 -0.417301 0)
(2.53508 -0.416397 0)
(2.53285 -0.413021 0)
(2.52693 -0.408407 0)
(2.52682 -0.406445 0)
(2.52985 -0.405512 0)
(2.53342 -0.404991 0)
(2.53722 -0.405133 0)
(2.54073 -0.405511 0)
(2.54462 -0.405843 0)
(2.55002 -0.406677 0)
(2.5535 -0.408363 0)
(2.55712 -0.410374 0)
(2.56091 -0.412249 0)
(2.56376 -0.414079 0)
(2.56256 -0.415241 0)
(2.56119 -0.414739 0)
(2.56274 -0.412692 0)
(2.56491 -0.410244 0)
(2.56688 -0.408102 0)
(2.56936 -0.407268 0)
(2.57301 -0.407606 0)
(2.57691 -0.408419 0)
(2.58031 -0.409579 0)
(2.58338 -0.410712 0)
(2.58525 -0.410172 0)
(2.58485 -0.406383 0)
(2.58135 -0.400233 0)
(2.57874 -0.396987 0)
(2.5803 -0.397042 0)
(2.58298 -0.397488 0)
(2.58593 -0.397827 0)
(2.5889 -0.398578 0)
(2.59184 -0.400313 0)
(2.59455 -0.402145 0)
(2.59748 -0.403598 0)
(2.60105 -0.404378 0)
(2.6048 -0.404619 0)
(2.60828 -0.404803 0)
(2.61161 -0.405305 0)
(2.61412 -0.405148 0)
(2.61274 -0.40233 0)
(2.60673 -0.39807 0)
(2.60357 -0.396951 0)
(2.60479 -0.397071 0)
(2.60791 -0.39731 0)
(2.61151 -0.397876 0)
(2.61486 -0.398032 0)
(2.61781 -0.397353 0)
(2.62026 -0.396473 0)
(2.62265 -0.396168 0)
(2.62558 -0.396646 0)
(2.62875 -0.397217 0)
(2.63189 -0.397491 0)
(2.63445 -0.397387 0)
(2.63572 -0.397216 0)
(2.63608 -0.397515 0)
(2.63713 -0.397885 0)
(2.63984 -0.398154 0)
(2.64284 -0.398636 0)
(2.6453 -0.398547 0)
(2.6459 -0.397005 0)
(2.64484 -0.394913 0)
(2.64472 -0.393408 0)
(2.64659 -0.392621 0)
(2.64946 -0.392651 0)
(2.65214 -0.393297 0)
(2.65421 -0.393964 0)
(2.6555 -0.393998 0)
(2.65665 -0.393298 0)
(2.65819 -0.392582 0)
(2.65991 -0.391879 0)
(2.66125 -0.39066 0)
(2.6621 -0.388863 0)
(2.66351 -0.387655 0)
(2.66583 -0.387666 0)
(2.66826 -0.3882 0)
(2.6706 -0.388614 0)
(2.67267 -0.388885 0)
(2.67372 -0.389267 0)
(2.67394 -0.389791 0)
(2.67369 -0.389333 0)
(2.6735 -0.388054 0)
(2.67559 -0.386699 0)
(2.67921 -0.386153 0)
(2.68179 -0.385773 0)
(2.68397 -0.385165 0)
(2.68555 -0.383892 0)
(2.68723 -0.383008 0)
(2.68953 -0.383411 0)
(2.69114 -0.384165 0)
(2.69082 -0.384872 0)
(2.68728 -0.385547 0)
(2.68656 -0.385756 0)
(2.68931 -0.385268 0)
(2.6922 -0.384566 0)
(2.69557 -0.383814 0)
(2.69908 -0.383316 0)
(2.70298 -0.38338 0)
(2.70716 -0.384402 0)
(2.7113 -0.385527 0)
(2.71391 -0.385732 0)
(2.71748 -0.385917 0)
(2.72118 -0.385784 0)
(2.72291 -0.385367 0)
(2.71782 -0.383039 0)
(2.71069 -0.378841 0)
(2.71079 -0.376219 0)
(2.71292 -0.375171 0)
(2.71542 -0.374905 0)
(2.71799 -0.375189 0)
(2.72029 -0.375555 0)
(2.72183 -0.375466 0)
(2.72376 -0.376092 0)
(2.72587 -0.37771 0)
(2.72744 -0.37955 0)
(2.72843 -0.381018 0)
(2.7279 -0.380775 0)
(2.72448 -0.377506 0)
(2.72227 -0.373928 0)
(2.72422 -0.372042 0)
(2.72752 -0.371244 0)
(2.73054 -0.37092 0)
(2.73319 -0.370338 0)
(2.73554 -0.37014 0)
(2.73816 -0.370146 0)
(2.74088 -0.370128 0)
(2.74403 -0.37038 0)
(2.7473 -0.370722 0)
(2.74865 -0.371522 0)
(2.74534 -0.373818 0)
(2.74489 -0.374754 0)
(2.74726 -0.374895 0)
(2.74939 -0.374642 0)
(2.752 -0.374405 0)
(2.75447 -0.373686 0)
(2.7569 -0.37212 0)
(2.7595 -0.370321 0)
(2.76236 -0.36913 0)
(2.76527 -0.368481 0)
(2.76751 -0.367482 0)
(2.76759 -0.365632 0)
(2.76456 -0.364172 0)
(2.75897 -0.364971 0)
(2.75452 -0.363986 0)
(2.7546 -0.362417 0)
(2.75633 -0.361044 0)
(2.75678 -0.35756 0)
(2.75393 -0.34566 0)
(2.74505 -0.313183 0)
(2.72707 -0.259719 0)
(2.69734 -0.171182 0)
(2.68764 -0.105928 0)
(2.64644 0.00138002 0)
(2.61635 0.118422 0)
(2.60375 0.12142 0)
(2.61157 0.107771 0)
(2.60557 0.120864 0)
(2.59768 0.13117 0)
(2.59089 0.134853 0)
(2.58609 0.137308 0)
(2.58661 0.139876 0)
(2.58767 0.142974 0)
(2.58694 0.152951 0)
(2.58438 0.159078 0)
(2.58269 0.159028 0)
(2.58161 0.157425 0)
(2.58269 0.156763 0)
(2.58475 0.156836 0)
(2.58752 0.158091 0)
(2.58967 0.160568 0)
(2.59054 0.163159 0)
(2.59164 0.167437 0)
(2.59221 0.172049 0)
(2.5917 0.176865 0)
(2.58923 0.180962 0)
(2.58661 0.182507 0)
(2.58608 0.181392 0)
(2.58668 0.179649 0)
(2.58782 0.178671 0)
(2.58873 0.17859 0)
(2.58981 0.178898 0)
(2.59095 0.179766 0)
(2.5917 0.181288 0)
(2.59249 0.183775 0)
(2.59287 0.18642 0)
(2.59303 0.189618 0)
(2.59268 0.193052 0)
(2.59183 0.195587 0)
(2.59206 0.196403 0)
(2.59253 0.19628 0)
(2.59318 0.196014 0)
(2.59419 0.195831 0)
(2.59486 0.195941 0)
(2.59563 0.196676 0)
(2.59589 0.198246 0)
(2.59518 0.201155 0)
(2.59277 0.206156 0)
(2.59142 0.211287 0)
(2.59189 0.213918 0)
(2.59242 0.215094 0)
(2.59402 0.216358 0)
(2.59663 0.216658 0)
(2.59879 0.216751 0)
(2.59962 0.217288 0)
(2.59997 0.217623 0)
(2.60073 0.218279 0)
(2.60164 0.219451 0)
(2.6018 0.221719 0)
(2.60014 0.225526 0)
(2.5981 0.228897 0)
(2.59747 0.230326 0)
(2.59761 0.231006 0)
(2.59875 0.232597 0)
(2.60053 0.234476 0)
(2.60263 0.236535 0)
(2.60507 0.238323 0)
(2.60642 0.239419 0)
(2.60673 0.239971 0)
(2.60649 0.241228 0)
(2.60468 0.242485 0)
(2.60243 0.242016 0)
(2.60082 0.240949 0)
(2.60004 0.239364 0)
(2.6005 0.238319 0)
(2.60178 0.238393 0)
(2.60315 0.239392 0)
(2.60404 0.241244 0)
(2.60407 0.244642 0)
(2.60308 0.250282 0)
(2.60278 0.25533 0)
(2.60342 0.259776 0)
(2.60469 0.262922 0)
(2.46266 -0.400997 0)
(2.46657 -0.400068 0)
(2.47056 -0.398969 0)
(2.47469 -0.398604 0)
(2.47922 -0.399367 0)
(2.48314 -0.401347 0)
(2.48605 -0.40403 0)
(2.48723 -0.407306 0)
(2.48623 -0.411782 0)
(2.48731 -0.413464 0)
(2.49091 -0.412709 0)
(2.49406 -0.411049 0)
(2.49748 -0.40911 0)
(2.501 -0.407203 0)
(2.50413 -0.40521 0)
(2.50631 -0.403196 0)
(2.50745 -0.401967 0)
(2.5074 -0.402801 0)
(2.50662 -0.405943 0)
(2.50933 -0.40805 0)
(2.51315 -0.40898 0)
(2.51614 -0.409209 0)
(2.51954 -0.409123 0)
(2.5244 -0.409011 0)
(2.52924 -0.409462 0)
(2.53377 -0.410559 0)
(2.53783 -0.412069 0)
(2.53862 -0.412143 0)
(2.53429 -0.408138 0)
(2.53054 -0.402521 0)
(2.53161 -0.399424 0)
(2.5353 -0.398075 0)
(2.53927 -0.397397 0)
(2.54255 -0.397036 0)
(2.54526 -0.397273 0)
(2.54872 -0.398247 0)
(2.55246 -0.399657 0)
(2.55548 -0.401573 0)
(2.55858 -0.403294 0)
(2.56096 -0.406439 0)
(2.56192 -0.409067 0)
(2.56304 -0.408644 0)
(2.56555 -0.407091 0)
(2.56837 -0.405656 0)
(2.57078 -0.403941 0)
(2.5727 -0.402205 0)
(2.57452 -0.401013 0)
(2.57662 -0.400833 0)
(2.57958 -0.40154 0)
(2.58276 -0.402309 0)
(2.58608 -0.402774 0)
(2.58918 -0.402296 0)
(2.59003 -0.399432 0)
(2.58676 -0.394009 0)
(2.58369 -0.390744 0)
(2.58479 -0.390743 0)
(2.58735 -0.391013 0)
(2.59039 -0.391283 0)
(2.59347 -0.392404 0)
(2.59628 -0.394079 0)
(2.59873 -0.395418 0)
(2.60149 -0.3962 0)
(2.60475 -0.396543 0)
(2.60831 -0.396653 0)
(2.6119 -0.397167 0)
(2.61539 -0.398059 0)
(2.61713 -0.398243 0)
(2.61268 -0.395728 0)
(2.60539 -0.392196 0)
(2.60595 -0.390967 0)
(2.60852 -0.390182 0)
(2.61084 -0.389547 0)
(2.61397 -0.389293 0)
(2.61766 -0.389159 0)