/*--------------------------------*- C++ -*----------------------------------*\
  =========                 |
  \\      /  F ield         | OpenFOAM: The Open Source CFD Toolbox
   \\    /   O peration     | Website:  https://openfoam.org
    \\  /    A nd           | Version:  7
     \\/     M anipulation  |
\*---------------------------------------------------------------------------*/
FoamFile
{
    version     2.0;
    format      ascii;
    class       volScalarField;
    location    "2.1";
    object      T;
}
// * * * * * * * * * * * * * * * * * * * * * * * * * * * * * * * * * * * * * //

dimensions      [0 0 0 1 0 0 0];

internalField   nonuniform List<scalar> 
16512
(
1
1
1
1
1
1
1
1
1
1
1
1
1
1
1
1.00007
1.00765
1.18086
1.58565
1.70964
1.75268
1.77157
1.76997
1.7741
1.77533
1.76997
1.76233
1.7566
1.75221
1.74463
1.74048
1.74045
1.74275
1.74261
1.7425
1.74116
1.73453
1.72503
1.71948
1.71544
1.7131
1.71425
1.71482
1.71364
1.71087
1.70647
1.69999
1.69392
1.69222
1.69267
1.69288
1.69148
1.68793
1.68307
1.67724
1.67221
1.67139
1.67135
1.6703
1.66831
1.66485
1.65864
1.65114
1.64833
1.64906
1.64945
1.64867
1.6471
1.64525
1.63991
1.63051
1.62356
1.62319
1.62484
1.62551
1.62515
1.62352
1.61965
1.61489
1.60898
1.60185
1.59728
1.59723
1.59686
1.5945
1.59283
1.59175
1.58971
1.58789
1.58694
1.58526
1.58193
1.57751
1.57285
1.56703
1.56271
1.56182
1.56324
1.56528
1.5658
1.56476
1.56048
1.55277
1.54573
1.54282
1.54266
1.54355
1.54492
1.54426
1.53972
1.53259
1.52726
1.52466
1.52441
1.52415
1.52241
1.52096
1.51766
1.51365
1.51306
1.51322
1.51257
1.50989
1.50482
1.49707
1.49209
1.49193
1.49279
1.49391
1.49438
1.49366
1.48941
1.48379
1.48115
1.47906
1.47678
1.47506
1.47266
1.46863
1.46745
1.46779
1.46774
1.46723
1.46533
1.46067
1.45341
1.44967
1.44884
1.44839
1.44828
1.44806
1.44624
1.44255
1.44065
1.43941
1.43719
1.43451
1.45401
1.61594
1.81828
1
1
1
1
1
1
1
1
1
1
1
1
1
1
1
1
1
1
1
1
1
1
1
1
1
1
1
1
1
1
1
1
1.00012
1.0123
1.21927
1.52561
1.68895
1.7686
1.7799
1.77802
1.77283
1.76481
1.75817
1.756
1.74867
1.74402
1.74361
1.74609
1.74584
1.74486
1.74308
1.73794
1.72745
1.72116
1.71925
1.71731
1.7168
1.71712
1.71575
1.71221
1.70747
1.70213
1.69672
1.6952
1.69626
1.69686
1.69511
1.69078
1.68517
1.67913
1.67378
1.67261
1.67298
1.67373
1.67294
1.67058
1.66465
1.65571
1.64977
1.64932
1.65043
1.65045
1.64926
1.64766
1.64441
1.63663
1.62716
1.62401
1.62489
1.627
1.62701
1.62638
1.62381
1.61974
1.61455
1.60787
1.60071
1.59821
1.5985
1.59753
1.59555
1.59445
1.59294
1.5917
1.59084
1.58869
1.58528
1.57964
1.57416
1.56967
1.56553
1.56455
1.56622
1.56854
1.56875
1.56744
1.56227
1.55426
1.54805
1.54584
1.54572
1.54645
1.5476
1.5464
1.54157
1.53472
1.52976
1.52723
1.52705
1.52717
1.52545
1.52364
1.52047
1.51662
1.51571
1.51616
1.51581
1.51343
1.50843
1.50048
1.49452
1.49398
1.49481
1.49603
1.4967
1.49632
1.49286
1.48704
1.48403
1.482
1.47969
1.47781
1.47559
1.47168
1.4695
1.47012
1.47031
1.47002
1.4685
1.46449
1.45735
1.45225
1.45117
1.45096
1.451
1.45095
1.44954
1.44538
1.44296
1.44216
1.44077
1.43768
1.43266
1.43305
1.47007
1.64608
1
1
1
1
1
1
1
1
1
1
1
1
1
1
1
1
1
1
1
1
1
1
1
1
1
1
1
1
1
1
1
1
1
1.0002
1.01635
1.17367
1.45198
1.72833
1.78093
1.7748
1.76715
1.75952
1.75838
1.75153
1.74579
1.74631
1.74942
1.74941
1.74771
1.74515
1.74151
1.73143
1.72366
1.72173
1.72137
1.72038
1.71959
1.71817
1.71424
1.70826
1.70325
1.69992
1.69821
1.69948
1.7003
1.69829
1.69369
1.68739
1.68105
1.67568
1.67405
1.67451
1.67633
1.67667
1.67525
1.67002
1.66069
1.65236
1.65
1.65069
1.65196
1.6515
1.65004
1.6479
1.64262
1.63336
1.62601
1.62548
1.62736
1.62857
1.6282
1.62675
1.62338
1.61946
1.61365
1.60642
1.60036
1.59999
1.60005
1.59876
1.59733
1.59603
1.59502
1.59449
1.59203
1.58822
1.58267
1.57636
1.57203
1.56905
1.56776
1.56906
1.57058
1.57052
1.56871
1.5635
1.55572
1.55024
1.54862
1.54871
1.54928
1.55019
1.54846
1.54326
1.53659
1.53202
1.52972
1.52978
1.53015
1.52843
1.52617
1.5229
1.51921
1.51804
1.51881
1.51894
1.51719
1.51235
1.50425
1.49735
1.49613
1.49697
1.49834
1.49912
1.49889
1.4959
1.49016
1.48677
1.4848
1.48258
1.48056
1.47839
1.47457
1.47165
1.4721
1.47271
1.47258
1.47146
1.46811
1.46124
1.4551
1.45363
1.45346
1.45367
1.45384
1.45301
1.449
1.44527
1.44419
1.44307
1.44102
1.43788
1.43302
1.43002
1.4323
1.48715
1
1
1
1
1
1
1
1
1
1
1
1
1
1
1
1
1
1
1
1
1
1
1
1
1
1
1
1
1
1
1
1
1
1
1.0002
1.00924
1.11561
1.49817
1.7569
1.76094
1.7577
1.7566
1.75386
1.74683
1.74803
1.75299
1.75409
1.75092
1.74721
1.74402
1.73641
1.7273
1.7243
1.72427
1.72426
1.72271
1.7209
1.71707
1.71007
1.70429
1.70241
1.70212
1.70339
1.7037
1.70142
1.69644
1.68951
1.68276
1.67767
1.67607
1.67658
1.6785
1.68007
1.67918
1.67454
1.66527
1.65564
1.65106
1.65118
1.65252
1.65363
1.65288
1.65135
1.64798
1.64027
1.63075
1.62663
1.62747
1.62984
1.62977
1.62903
1.62646
1.62306
1.61848
1.6118
1.60459
1.60137
1.60204
1.60175
1.60056
1.5994
1.59851
1.59792
1.59534
1.59091
1.58508
1.57866
1.57463
1.57212
1.57099
1.57182
1.57325
1.57309
1.5706
1.56473
1.55707
1.55223
1.55103
1.55163
1.55212
1.55279
1.55085
1.54552
1.53878
1.5343
1.53223
1.53241
1.53306
1.53124
1.52849
1.52508
1.52168
1.52046
1.52147
1.52208
1.521
1.51668
1.50854
1.50042
1.49827
1.49905
1.50059
1.50162
1.50149
1.4988
1.4932
1.48946
1.48747
1.48541
1.48335
1.48117
1.47733
1.47386
1.47387
1.47493
1.47496
1.47419
1.47147
1.46518
1.45775
1.45593
1.45593
1.45618
1.45666
1.45635
1.45294
1.44809
1.44647
1.44515
1.44337
1.44064
1.43757
1.43344
1.42974
1.43049
1.43703
1
1
1
1
1
1
1
1
1
1
1
1
1
1
1
1
1
1
1
1
1
1
1
1
1
1
1
1
1
1
1
1
1
1
1
1.00008
1.00564
1.13331
1.55659
1.7123
1.73778
1.75602
1.75238
1.75185
1.75812
1.76011
1.75514
1.74909
1.74503
1.74034
1.73146
1.72738
1.72718
1.72729
1.7264
1.72371
1.7206
1.71342
1.70634
1.70487
1.70564
1.70761
1.70734
1.70492
1.69946
1.69177
1.68432
1.67952
1.67835
1.679
1.68108
1.68322
1.68275
1.67875
1.66979
1.65982
1.65306
1.65217
1.6528
1.65481
1.65554
1.65491
1.6529
1.64672
1.63724
1.62969
1.62849
1.63024
1.63134
1.6308
1.62919
1.62587
1.62244
1.6168
1.6097
1.60375
1.60343
1.60404
1.60341
1.60239
1.60158
1.6014
1.59963
1.5945
1.58771
1.58172
1.57795
1.57518
1.57381
1.57396
1.57509
1.57508
1.5728
1.56698
1.55943
1.55481
1.55362
1.55437
1.55484
1.55532
1.55333
1.54823
1.54168
1.53706
1.53499
1.53522
1.53584
1.53375
1.53037
1.52673
1.52375
1.52264
1.52392
1.5251
1.52467
1.52107
1.51316
1.50404
1.50053
1.50106
1.5027
1.50398
1.50394
1.50158
1.49636
1.49233
1.49016
1.4883
1.48621
1.48395
1.48
1.4761
1.47564
1.4769
1.47734
1.47682
1.47459
1.46908
1.46087
1.45779
1.45791
1.45848
1.4593
1.45937
1.45696
1.45146
1.44888
1.44744
1.4457
1.44305
1.44028
1.43703
1.43399
1.43142
1.43199
1.43444
1
1
1
1
1
1
1
1
1
1
1
1
1
1
1
1
1
1
1
1
1
1
1
1
1
1
1
1
1
1
1
1
1
1
1
1
1.00007
1.00745
1.17627
1.53492
1.67154
1.73927
1.7625
1.76307
1.76246
1.75805
1.75175
1.74571
1.74312
1.73501
1.73009
1.72976
1.73036
1.72978
1.7271
1.72352
1.71855
1.70997
1.70761
1.70879
1.71016
1.70956
1.70759
1.70247
1.69448
1.68677
1.68193
1.68089
1.68165
1.68393
1.68619
1.68606
1.68276
1.6742
1.66368
1.65596
1.65348
1.65378
1.65488
1.65733
1.65765
1.65693
1.65204
1.64314
1.63504
1.63036
1.63069
1.63265
1.63255
1.63158
1.62861
1.6253
1.62117
1.61489
1.60809
1.60487
1.60579
1.60575
1.60494
1.6039
1.60368
1.60319
1.5994
1.59194
1.58488
1.58164
1.57932
1.57711
1.57636
1.57671
1.57666
1.57461
1.56924
1.56204
1.55772
1.55672
1.55736
1.55751
1.55781
1.55581
1.55099
1.54483
1.54025
1.53807
1.53828
1.53847
1.53585
1.53214
1.52832
1.52552
1.52449
1.526
1.52776
1.5279
1.52511
1.51761
1.50774
1.50289
1.50293
1.50446
1.50603
1.50614
1.50422
1.49959
1.49557
1.49314
1.49134
1.48928
1.48682
1.48255
1.47834
1.4775
1.47881
1.47975
1.47943
1.47764
1.47281
1.4643
1.45972
1.45966
1.46028
1.46161
1.46213
1.46074
1.45547
1.45154
1.4499
1.44803
1.44551
1.44276
1.44009
1.43697
1.43531
1.43537
1.43535
1.43613
1
1
1
1
1
1
1
1
1
1
1
1
1
1
1
1
1
1
1
1
1
1
1
1
1
1
1
1
1
1
1
1
1
1
1
1
1
1.00011
1.01198
1.18206
1.44538
1.67011
1.76301
1.76291
1.75869
1.75321
1.74712
1.74508
1.73775
1.73141
1.73098
1.73305
1.73253
1.72997
1.72637
1.72315
1.71599
1.71081
1.71144
1.71176
1.71096
1.70971
1.70536
1.69744
1.68861
1.68442
1.68358
1.68434
1.68679
1.68911
1.68907
1.68636
1.67899
1.66794
1.65964
1.65591
1.65542
1.6559
1.65786
1.65963
1.65954
1.65609
1.6479
1.64021
1.63454
1.63231
1.63325
1.63417
1.63363
1.63154
1.62764
1.62449
1.61966
1.61354
1.60785
1.60731
1.60788
1.60728
1.6063
1.60537
1.60508
1.60317
1.59729
1.58907
1.5849
1.58335
1.58146
1.57947
1.57897
1.57873
1.57676
1.57178
1.56504
1.56068
1.56008
1.56051
1.55992
1.56001
1.55842
1.5543
1.54848
1.54404
1.54166
1.54146
1.54111
1.53751
1.53361
1.53026
1.52755
1.52648
1.52817
1.53044
1.53099
1.52892
1.52186
1.51116
1.50498
1.50451
1.50581
1.50759
1.50795
1.50658
1.50281
1.49921
1.49662
1.49465
1.49248
1.48969
1.48505
1.48058
1.47949
1.48079
1.48226
1.4821
1.48066
1.47643
1.46789
1.46175
1.46134
1.46192
1.4635
1.46466
1.46406
1.45961
1.45452
1.45252
1.45049
1.44793
1.44516
1.44269
1.44012
1.43836
1.43823
1.43869
1.43883
1.43807
1
1
1
1
1
1
1
1
1
1
1
1
1
1
1
1
1
1
1
1
1
1
1
1
1
1
1
1
1
1
1
1
1
1
1
1
1
1
1.00017
1.01044
1.11131
1.41047
1.72412
1.75685
1.75351
1.74571
1.74464
1.73912
1.73184
1.73208
1.73545
1.73575
1.73279
1.72893
1.72609
1.72183
1.71533
1.71393
1.71372
1.71245
1.71124
1.7087
1.70143
1.69143
1.68671
1.68625
1.6869
1.68927
1.69173
1.69161
1.68918
1.68282
1.67276
1.66379
1.65931
1.65778
1.65803
1.65929
1.661
1.66141
1.65908
1.652
1.6441
1.63956
1.63553
1.63466
1.63537
1.63538
1.6338
1.63005
1.62683
1.62342
1.6184
1.61288
1.60916
1.60958
1.6094
1.60842
1.60718
1.60645
1.6056
1.60185
1.59449
1.58876
1.58687
1.58527
1.58307
1.5816
1.58111
1.57949
1.57517
1.56928
1.56431
1.56324
1.5639
1.56221
1.56154
1.56037
1.5573
1.55237
1.54829
1.54613
1.54531
1.54379
1.53912
1.53485
1.53175
1.52953
1.52861
1.53066
1.53332
1.53417
1.53254
1.52602
1.51489
1.50705
1.50579
1.50688
1.5088
1.50938
1.50856
1.50596
1.50312
1.50072
1.4983
1.49573
1.49234
1.48734
1.48283
1.48162
1.48291
1.48485
1.48488
1.48362
1.47973
1.47146
1.46413
1.46301
1.46351
1.46519
1.46697
1.46695
1.46355
1.45783
1.45525
1.45307
1.4504
1.44749
1.44509
1.44273
1.44136
1.44126
1.44136
1.44149
1.44112
1.43875
1
1
1
1
1
1
1
1
1
1
1
1
1
1
1
1
1
1
1
1
1
1
1
1
1
1
1
1
1
1
1
1
1
1
1
1
1
1
1
1.00009
1.00452
1.08986
1.47986
1.71582
1.73179
1.74008
1.74101
1.73441
1.73444
1.7397
1.74057
1.73652
1.73159
1.72854
1.7259
1.71879
1.71616
1.71565
1.71513
1.713
1.71057
1.70547
1.69566
1.68927
1.68896
1.68953
1.69166
1.69391
1.69376
1.69141
1.68567
1.67661
1.66797
1.66345
1.66102
1.66109
1.66176
1.66289
1.66309
1.66093
1.6553
1.64786
1.64339
1.64057
1.63799
1.63727
1.63712
1.63556
1.63218
1.6287
1.62625
1.62233
1.61783
1.61319
1.61132
1.61134
1.61048
1.60903
1.60758
1.60704
1.60515
1.59973
1.59316
1.59039
1.58872
1.58642
1.58434
1.58323
1.58185
1.57858
1.57391
1.56923
1.56682
1.56682
1.56466
1.56321
1.56203
1.55964
1.55558
1.55218
1.55041
1.54932
1.54706
1.54118
1.53594
1.53287
1.53101
1.53074
1.53337
1.53647
1.53728
1.5359
1.52986
1.5189
1.50949
1.507
1.50782
1.50995
1.51082
1.51041
1.50903
1.50721
1.50536
1.50221
1.49879
1.49446
1.4893
1.48511
1.48396
1.4853
1.48756
1.4878
1.48658
1.48243
1.47429
1.46685
1.46495
1.46526
1.46684
1.46917
1.46965
1.46715
1.46134
1.45803
1.45577
1.45295
1.44984
1.4475
1.44516
1.44374
1.44393
1.44424
1.44416
1.44364
1.4417
1.43669
1
1
1
1
1
1
1
1
1
1
1
1
1
1
1
1
1
1
1
1
1
1
1
1
1
1
1
1
1
1
1
1
1
1
1
1
1
1
1
1
1.00004
1.00404
1.11693
1.5033
1.66157
1.71554
1.74303
1.74254
1.74546
1.74521
1.74046
1.73486
1.73085
1.72881
1.72134
1.71752
1.71743
1.71742
1.71613
1.71256
1.7085
1.70066
1.69287
1.69171
1.69232
1.6945
1.69638
1.69588
1.69312
1.68749
1.67965
1.6719
1.66771
1.66575
1.66529
1.66516
1.66537
1.6649
1.66231
1.65755
1.65135
1.64697
1.64479
1.64296
1.64116
1.6396
1.63692
1.6338
1.63042
1.62859
1.62609
1.62216
1.61819
1.61448
1.613
1.61228
1.61099
1.60933
1.60837
1.60745
1.6041
1.59799
1.59357
1.59173
1.58939
1.5871
1.58558
1.58416
1.58154
1.57803
1.57418
1.57125
1.56983
1.5671
1.56492
1.5636
1.56175
1.55873
1.55602
1.55482
1.55319
1.55023
1.5443
1.53735
1.53354
1.53213
1.53264
1.53619
1.53959
1.54036
1.53905
1.5332
1.52257
1.51251
1.50846
1.50883
1.51116
1.51272
1.51259
1.51223
1.51133
1.50998
1.50624
1.50151
1.49604
1.491
1.48741
1.48646
1.48804
1.49061
1.4909
1.48959
1.48485
1.47627
1.46916
1.46727
1.46738
1.4687
1.47133
1.47239
1.47054
1.46495
1.46081
1.45846
1.45568
1.4523
1.44986
1.44773
1.4459
1.44602
1.4469
1.44691
1.44639
1.44452
1.43987
1.43308
1
1
1
1
1
1
1
1
1
1
1
1
1
1
1
1
1
1
1
1
1
1
1
1
1
1
1
1
1
1
1
1
1
1
1
1
1
1
1
1
1
1.00005
1.00603
1.14373
1.43703
1.62034
1.7333
1.75149
1.74647
1.74266
1.73768
1.73262
1.73092
1.72358
1.71896
1.71866
1.71959
1.71877
1.71532
1.71096
1.70506
1.69674
1.69489
1.69584
1.69713
1.69876
1.69804
1.69484
1.68929
1.68185
1.67461
1.67108
1.67
1.67024
1.66966
1.66847
1.66674
1.66372
1.65921
1.654
1.65023
1.64864
1.64773
1.64592
1.64343
1.63931
1.63503
1.63186
1.6306
1.62918
1.62667
1.62293
1.61928
1.61508
1.61343
1.61251
1.61123
1.6098
1.6094
1.60771
1.60289
1.59731
1.59393
1.59172
1.58925
1.5877
1.5865
1.58432
1.58175
1.57887
1.57581
1.57339
1.57003
1.56701
1.56507
1.56332
1.56139
1.55974
1.5592
1.55751
1.5529
1.54733
1.53983
1.53466
1.53318
1.53414
1.53866
1.5422
1.54323
1.54196
1.53614
1.52585
1.51588
1.51034
1.50994
1.5121
1.51498
1.51564
1.51586
1.51557
1.51422
1.5099
1.50392
1.49745
1.49266
1.48968
1.48902
1.49101
1.49402
1.49428
1.49265
1.48711
1.47801
1.471
1.46932
1.46956
1.47093
1.4737
1.47516
1.47374
1.46852
1.46368
1.46116
1.45842
1.45505
1.45246
1.45038
1.44817
1.44787
1.4491
1.44955
1.44921
1.44758
1.44336
1.43615
1.43191
1
1
1
1
1
1
1
1
1
1
1
1
1
1
1
1
1
1
1
1
1
1
1
1
1
1
1
1
1
1
1
1
1
1
1
1
1
1
1
1
1
1
1.00008
1.00746
1.10187
1.34114
1.6523
1.74834
1.74548
1.74051
1.73241
1.73159
1.72562
1.71844
1.71893
1.72185
1.72144
1.71799
1.71297
1.70887
1.70086
1.69737
1.69887
1.70046
1.7006
1.69988
1.69667
1.69062
1.68376
1.67723
1.67426
1.67389
1.67455
1.67427
1.672
1.66878
1.66511
1.66087
1.65622
1.65312
1.65222
1.65215
1.65051
1.64726
1.64225
1.63701
1.63334
1.63221
1.6319
1.63097
1.62828
1.62458
1.61938
1.61449
1.61333
1.61271
1.61161
1.61111
1.61051
1.60755
1.60188
1.59704
1.59362
1.59118
1.58894
1.58816
1.58686
1.58493
1.58327
1.5803
1.57684
1.57338
1.56985
1.56701
1.56498
1.56352
1.56336
1.56323
1.56172
1.55633
1.54942
1.54305
1.53696
1.53463
1.53568
1.54041
1.54458
1.54576
1.54465
1.5389
1.52906
1.5195
1.51313
1.51149
1.51288
1.51679
1.51889
1.51968
1.51973
1.51821
1.51299
1.5058
1.499
1.49449
1.49183
1.49156
1.49421
1.49764
1.49787
1.49571
1.48926
1.4798
1.47275
1.47109
1.47155
1.47335
1.47628
1.47803
1.47688
1.47192
1.4666
1.46388
1.46134
1.45783
1.45514
1.4532
1.45053
1.44964
1.45089
1.45203
1.45191
1.45071
1.44705
1.43979
1.4342
1.43321
1
1
1
1
1
1
1
1
1
1
1
1
1
1
1
1
1
1
1
1
1
1
1
1
1
1
1
1
1
1
1
1
1
1
1
1
1
1
1
1
1
1
1
1.00007
1.00342
1.05791
1.35551
1.68782
1.73061
1.72963
1.72657
1.72624
1.71806
1.71853
1.72324
1.72458
1.72121
1.71489
1.71068
1.70555
1.69985
1.7006
1.70332
1.70338
1.7017
1.69916
1.69278
1.6844
1.67917
1.67721
1.67731
1.67857
1.67884
1.67619
1.6713
1.66623
1.66181
1.65788
1.65573
1.65564
1.65638
1.65524
1.65105
1.64477
1.63857
1.63511
1.63419
1.63444
1.6346
1.63325
1.62982
1.62453
1.61704
1.61388
1.61358
1.61339
1.61291
1.61302
1.6118
1.60723
1.60099
1.59586
1.59249
1.59019
1.58898
1.58886
1.58772
1.58674
1.58445
1.58035
1.57644
1.5731
1.56957
1.56689
1.56572
1.56633
1.56701
1.56574
1.56079
1.55165
1.54597
1.54047
1.5369
1.53755
1.54202
1.54674
1.54793
1.54702
1.54144
1.53204
1.52314
1.51649
1.51399
1.51462
1.51826
1.52208
1.52323
1.52333
1.5215
1.51575
1.50749
1.50054
1.49638
1.49402
1.49424
1.4976
1.50123
1.50144
1.49872
1.49155
1.48178
1.47462
1.47282
1.47332
1.47597
1.47906
1.48091
1.47991
1.47526
1.46957
1.4665
1.46418
1.46108
1.45786
1.4559
1.45319
1.4514
1.45245
1.45421
1.45435
1.45364
1.45078
1.44392
1.43689
1.43537
1.43547
1
1
1
1
1
1
1
1
1
1
1
1
1
1
1
1
1
1
1
1
1
1
1
1
1
1
1
1
1
1
1
1
1
1
1
1
1
1
1
1
1
1
1
1
1.00002
1.00186
1.05951
1.40493
1.66299
1.70145
1.7233
1.72293
1.72086
1.72552
1.72907
1.7254
1.71773
1.71194
1.71014
1.70336
1.70256
1.70478
1.70624
1.70501
1.70147
1.69624
1.68677
1.67997
1.67941
1.67998
1.68144
1.68248
1.68068
1.67518
1.66834
1.66266
1.65881
1.6575
1.65828
1.6602
1.6598
1.65572
1.64774
1.64016
1.63658
1.63612
1.63686
1.63795
1.63744
1.63481
1.62914
1.62098
1.61467
1.61419
1.61449
1.61485
1.6157
1.61568
1.61332
1.60682
1.59898
1.59392
1.59117
1.58973
1.58996
1.59017
1.58945
1.58796
1.58414
1.579
1.57577
1.57246
1.56941
1.56812
1.56889
1.57044
1.56958
1.56517
1.55523
1.54834
1.54451
1.54004
1.53979
1.5435
1.54869
1.54996
1.5492
1.54447
1.53525
1.52697
1.52022
1.51677
1.51698
1.52024
1.5247
1.52652
1.52636
1.52414
1.51819
1.50949
1.50215
1.49793
1.49644
1.49734
1.50133
1.5047
1.50482
1.50175
1.49409
1.48405
1.47673
1.47471
1.4753
1.47859
1.482
1.48385
1.4829
1.47841
1.47271
1.46933
1.4668
1.46433
1.46089
1.45849
1.4558
1.45352
1.45396
1.4561
1.45663
1.45619
1.45413
1.44832
1.44021
1.43759
1.43771
1.43814
1
1
1
1
1
1
1
1
1
1
1
1
1
1
1
1
1
1
1
1
1
1
1
1
1
1
1
1
1
1
1
1
1
1
1
1
1
1
1
1
1
1
1
1
1
1.00002
1.00217
1.07812
1.40351
1.59722
1.68801
1.73003
1.73463
1.73486
1.73026
1.72165
1.71299
1.71272
1.70884
1.70481
1.7065
1.70806
1.70802
1.70498
1.69918
1.69178
1.68245
1.68049
1.68202
1.6842
1.68473
1.68388
1.67958
1.6716
1.6643
1.65995
1.65895
1.66032
1.66322
1.66357
1.66031
1.65207
1.64282
1.63797
1.6375
1.6386
1.64103
1.64104
1.6395
1.63382
1.62459
1.61688
1.61479
1.61532
1.61634
1.6179
1.61918
1.61858
1.614
1.60372
1.596
1.59246
1.59091
1.59072
1.59204
1.59217
1.591
1.58784
1.58218
1.5779
1.57495
1.57187
1.57059
1.5713
1.57344
1.57319
1.56937
1.55972
1.55081
1.54805
1.54428
1.5425
1.54507
1.55022
1.55179
1.55117
1.54752
1.53878
1.53081
1.52454
1.51989
1.51953
1.52228
1.52687
1.52907
1.52902
1.52669
1.52077
1.51184
1.50407
1.49978
1.49895
1.50067
1.50512
1.50814
1.50803
1.50479
1.49676
1.48686
1.47944
1.47705
1.47769
1.48134
1.48499
1.48668
1.48578
1.48142
1.47602
1.4725
1.46971
1.4673
1.46392
1.46115
1.45826
1.45567
1.45562
1.45773
1.45888
1.45855
1.45694
1.45227
1.44415
1.44001
1.43991
1.4405
1.44117
1
1
1
1
1
1
1
1
1
1
1
1
1
1
1
1
1
1
1
1
1
1
1
1
1
1
1
1
1
1
1
1
1
1
1
1
1
1
1
1
1
1
1
1
1
1
1.00002
1.00305
1.07626
1.31445
1.54874
1.7191
1.7417
1.73379
1.72724
1.71732
1.7142
1.71202
1.7065
1.70738
1.71014
1.71051
1.70885
1.70282
1.69661
1.68865
1.68244
1.68297
1.68566
1.6879
1.687
1.68336
1.67582
1.66642
1.66122
1.66038
1.662
1.66541
1.66653
1.66415
1.65663
1.64652
1.63983
1.6388
1.63968
1.64299
1.64426
1.64351
1.63876
1.62892
1.61961
1.61622
1.61624
1.61749
1.61958
1.6219
1.62235
1.61973
1.61005
1.59847
1.59395
1.59233
1.59211
1.59315
1.59474
1.59426
1.59133
1.58593
1.58057
1.57733
1.57415
1.5728
1.57345
1.57598
1.57634
1.57311
1.5641
1.55407
1.55037
1.54914
1.54612
1.54726
1.5517
1.55364
1.5531
1.5503
1.54266
1.53435
1.52935
1.52388
1.52226
1.52431
1.52876
1.53098
1.53104
1.52908
1.52362
1.51486
1.50664
1.50243
1.50198
1.50414
1.5084
1.5113
1.51089
1.50726
1.49922
1.49015
1.48296
1.48017
1.48078
1.48417
1.48792
1.48944
1.48839
1.48412
1.47937
1.47605
1.47313
1.47041
1.46684
1.46371
1.4606
1.45785
1.45748
1.45934
1.46114
1.46092
1.45951
1.45538
1.44794
1.44278
1.44219
1.44264
1.44363
1.44391
1
1
1
1
1
1
1
1
1
1
1
1
1
1
1
1
1
1
1
1
1
1
1
1
1
1
1
1
1
1
1
1
1
1
1
1
1
1
1
1
1
1
1
1
1
1
1
1.00003
1.00218
1.04187
1.23904
1.58806
1.7333
1.7298
1.72366
1.71402
1.71433
1.70774
1.70595
1.71085
1.71427
1.7128
1.70688
1.69926
1.69501
1.68714
1.68505
1.68648
1.68919
1.68999
1.68706
1.68059
1.67083
1.66323
1.66211
1.66352
1.66685
1.66841
1.66705
1.66083
1.65078
1.64278
1.64061
1.64102
1.6438
1.64685
1.64669
1.64317
1.63413
1.6233
1.61803
1.61747
1.61875
1.62117
1.62377
1.62501
1.62334
1.61579
1.60308
1.59577
1.59415
1.59387
1.59456
1.59662
1.59716
1.59513
1.58979
1.58397
1.58012
1.5767
1.57488
1.57537
1.57801
1.57903
1.57638
1.56818
1.55798
1.55278
1.55258
1.55075
1.55013
1.55307
1.55547
1.55507
1.5528
1.54633
1.53738
1.53327
1.52896
1.52555
1.52661
1.53029
1.5326
1.53273
1.53125
1.52639
1.51841
1.51022
1.50579
1.50543
1.50736
1.5113
1.51361
1.513
1.50895
1.50118
1.49355
1.48701
1.4841
1.48454
1.48715
1.49048
1.49189
1.49066
1.48661
1.48274
1.47987
1.47701
1.4738
1.46984
1.46634
1.46292
1.46007
1.45961
1.46133
1.46347
1.46344
1.46215
1.458
1.4508
1.44564
1.44451
1.44477
1.44575
1.44644
1.44515
1
1
1
1
1
1
1
1
1
1
1
1
1
1
1
1
1
1
1
1
1
1
1
1
1
1
1
1
1
1
1
1
1
1
1
1
1
1
1
1
1
1
1
1
1
1
1
1
1.00001
1.00084
1.02578
1.24294
1.61555
1.70625
1.70831
1.71051
1.71095
1.70591
1.70916
1.71803
1.71804
1.71166
1.70146
1.69745
1.69295
1.68752
1.68847
1.69045
1.69141
1.69035
1.68476
1.67669
1.6673
1.66364
1.66459
1.6675
1.6695
1.66901
1.66464
1.65529
1.64653
1.64321
1.64309
1.64474
1.64849
1.64917
1.64678
1.63905
1.62833
1.62087
1.61926
1.6199
1.62304
1.6258
1.62722
1.62597
1.61963
1.60826
1.59844
1.59598
1.59589
1.59632
1.5982
1.5998
1.59887
1.59387
1.58757
1.58304
1.57974
1.5771
1.57727
1.57958
1.58122
1.57932
1.57231
1.56227
1.5559
1.55479
1.55465
1.55301
1.55458
1.5573
1.5572
1.55525
1.55009
1.54057
1.53533
1.5336
1.52983
1.52946
1.53175
1.53394
1.53419
1.53324
1.52923
1.52205
1.51479
1.50971
1.50888
1.51026
1.51355
1.51509
1.51437
1.51015
1.50286
1.49648
1.49087
1.48826
1.48854
1.49012
1.49251
1.49353
1.4923
1.48899
1.48609
1.48376
1.48114
1.47732
1.47296
1.46903
1.46525
1.46243
1.46202
1.4638
1.4662
1.46628
1.46498
1.46068
1.45301
1.44789
1.44682
1.44695
1.44771
1.44865
1.44776
1.44359
1
1
1
1
1
1
1
1
1
1
1
1
1
1
1
1
1
1
1
1
1
1
1
1
1
1
1
1
1
1
1
1
1
1
1
1
1
1
1
1
1
1
1
1
1
1
1
1
1
1
1.00056
1.02445
1.27208
1.59944
1.66832
1.69667
1.71002
1.71295
1.72101
1.72235
1.7165
1.70585
1.69905
1.69691
1.69067
1.69036
1.69238
1.69323
1.69278
1.68857
1.68105
1.67295
1.66588
1.6655
1.66767
1.67034
1.67032
1.6676
1.65994
1.65072
1.64613
1.64548
1.64632
1.64966
1.65116
1.64974
1.64334
1.63348
1.62519
1.62203
1.62205
1.62448
1.62802
1.62955
1.62846
1.62279
1.61254
1.60257
1.59802
1.59793
1.59843
1.60019
1.60235
1.60232
1.59819
1.59129
1.58609
1.58263
1.57965
1.5793
1.58101
1.58323
1.58215
1.5764
1.56686
1.55984
1.55687
1.55702
1.55549
1.55603
1.55885
1.55941
1.55794
1.5538
1.54529
1.53707
1.53595
1.5345
1.53241
1.53335
1.53509
1.53543
1.5349
1.53187
1.52574
1.51937
1.51414
1.51193
1.51267
1.51506
1.51604
1.51534
1.51138
1.50517
1.49941
1.49449
1.49217
1.49225
1.49289
1.49395
1.49435
1.4932
1.49089
1.48912
1.4875
1.48499
1.4807
1.4759
1.47149
1.46754
1.46497
1.46467
1.46671
1.46935
1.46948
1.46806
1.46343
1.45546
1.44987
1.44882
1.44903
1.44975
1.45072
1.45
1.44625
1.44143
1
1
1
1
1
1
1
1
1
1
1
1
1
1
1
1
1
1
1
1
1
1
1
1
1
1
1
1
1
1
1
1
1
1
1
1
1
1
1
1
1
1
1
1
1
1
1
1
1
1
1
1.00059
1.03151
1.28362
1.52016
1.64446
1.71243
1.72271
1.72103
1.71745
1.71067
1.70277
1.70036
1.69316
1.69112
1.69395
1.69671
1.69609
1.69206
1.6846
1.6777
1.66948
1.66691
1.66807
1.67073
1.67141
1.66983
1.66399
1.65534
1.64923
1.64764
1.64839
1.65115
1.65287
1.65213
1.64687
1.638
1.62994
1.62567
1.62535
1.62645
1.62981
1.63176
1.63089
1.62599
1.61632
1.60656
1.60097
1.60008
1.60066
1.60255
1.60511
1.60555
1.60225
1.5952
1.58952
1.58538
1.58242
1.58149
1.58269
1.58512
1.58481
1.58039
1.5716
1.56443
1.56009
1.55905
1.5573
1.55744
1.55979
1.56141
1.56064
1.55742
1.55059
1.5414
1.53731
1.53692
1.53528
1.53519
1.53661
1.53693
1.53644
1.53422
1.52927
1.52363
1.51872
1.51502
1.51525
1.51675
1.51705
1.51623
1.51279
1.5079
1.50291
1.49832
1.49597
1.49517
1.49493
1.49472
1.49456
1.49349
1.49213
1.49147
1.49069
1.48815
1.48357
1.4783
1.47367
1.46966
1.46741
1.46732
1.46984
1.4728
1.47291
1.47128
1.46625
1.45823
1.45219
1.45093
1.45116
1.45197
1.45283
1.45205
1.44841
1.44376
1.44155
1
1
1
1
1
1
1
1
1
1
1
1
1
1
1
1
1
1
1
1
1
1
1
1
1
1
1
1
1
1
1
1
1
1
1
1
1
1
1
1
1
1
1
1
1
1
1
1
1
1
1
1
1.00077
1.03092
1.20076
1.44336
1.67712
1.72608
1.71979
1.71493
1.70511
1.70323
1.69609
1.69101
1.6942
1.70065
1.70017
1.69576
1.68853
1.68212
1.6748
1.6696
1.67012
1.67163
1.67289
1.6723
1.66798
1.66044
1.65305
1.64985
1.65039
1.65296
1.65441
1.65407
1.64987
1.64231
1.63469
1.62958
1.62892
1.62928
1.63155
1.63371
1.63317
1.62893
1.62015
1.6107
1.6044
1.60259
1.60306
1.60507
1.60773
1.60819
1.60558
1.59908
1.59312
1.58857
1.58525
1.58388
1.58478
1.58709
1.58722
1.5839
1.57627
1.56901
1.56415
1.56192
1.55938
1.55901
1.56068
1.56307
1.56298
1.56078
1.55523
1.54718
1.54047
1.53799
1.53743
1.53719
1.53808
1.53878
1.53831
1.5365
1.53275
1.52774
1.52334
1.5184
1.51751
1.51813
1.51799
1.51709
1.51446
1.51079
1.50666
1.50251
1.49994
1.49798
1.49695
1.49587
1.49487
1.49384
1.49314
1.49313
1.49313
1.49092
1.48612
1.48013
1.47535
1.47195
1.46984
1.46979
1.47276
1.47599
1.47602
1.47407
1.46906
1.46136
1.455
1.4534
1.4536
1.45457
1.45533
1.45428
1.45044
1.44598
1.4438
1.44254
1
1
1
1
1
1
1
1
1
1
1
1
1
1
1
1
1
1
1
1
1
1
1
1
1
1
1
1
1
1
1
1
1
1
1
1
1
1
1
1
1
1
1
1
1
1
1
1
1
1
1
1
1
1.00051
1.01417
1.12591
1.47451
1.69416
1.70906
1.70539
1.70166
1.69983
1.69262
1.69465
1.70276
1.70363
1.69965
1.6931
1.68705
1.6819
1.67426
1.67335
1.6741
1.6748
1.67477
1.67175
1.6656
1.65822
1.65249
1.65235
1.65409
1.6554
1.6552
1.65237
1.64665
1.64017
1.63413
1.63208
1.63232
1.63388
1.63555
1.63527
1.63149
1.62372
1.61523
1.60851
1.60556
1.60583
1.6075
1.61011
1.61038
1.6082
1.60267
1.5967
1.59213
1.58854
1.58647
1.58717
1.58928
1.58953
1.58689
1.58033
1.57328
1.56828
1.56516
1.56236
1.56094
1.56201
1.56429
1.56494
1.56367
1.55947
1.55257
1.54536
1.54032
1.53863
1.53872
1.53936
1.54065
1.54051
1.53899
1.53619
1.53187
1.52747
1.52244
1.51951
1.51955
1.51918
1.51806
1.51582
1.51314
1.51025
1.50674
1.50426
1.50101
1.49842
1.49735
1.49577
1.49447
1.49412
1.49471
1.49549
1.49358
1.48876
1.48218
1.47665
1.47394
1.4725
1.47232
1.47527
1.47873
1.47868
1.47644
1.47153
1.46469
1.45855
1.45632
1.45637
1.45736
1.45809
1.45675
1.45255
1.44818
1.44616
1.44505
1.44423
1
1
1
1
1
1
1
1
1
1
1
1
1
1
1
1
1
1
1
1
1
1
1
1
1
1
1
1
1
1
1
1
1
1
1
1
1
1
1
1
1
1
1
1
1
1
1
1
1
1
1
1
1
1
1.00016
1.00713
1.13275
1.50793
1.65472
1.6869
1.70367
1.69971
1.70032
1.70528
1.70588
1.70233
1.69772
1.69198
1.6872
1.67958
1.67692
1.67796
1.67867
1.67823
1.67525
1.67012
1.66378
1.65694
1.65462
1.65504
1.65578
1.65589
1.65468
1.65067
1.64537
1.64014
1.63542
1.63503
1.63626
1.63738
1.63718
1.63381
1.62711
1.61966
1.61373
1.60923
1.60892
1.60999
1.61207
1.61222
1.61045
1.60596
1.60033
1.5957
1.59219
1.58968
1.5899
1.59164
1.59188
1.58958
1.58382
1.57713
1.57228
1.56838
1.5656
1.56337
1.56397
1.56567
1.56659
1.56588
1.56272
1.55744
1.55079
1.54444
1.5408
1.54036
1.54063
1.54175
1.54232
1.54138
1.5394
1.5358
1.53115
1.52589
1.52191
1.52166
1.52159
1.52026
1.51745
1.51521
1.51348
1.51101
1.50872
1.50527
1.50022
1.49894
1.49798
1.49589
1.49504
1.49571
1.49734
1.4964
1.49177
1.4847
1.47854
1.47568
1.47507
1.4752
1.47787
1.48095
1.48091
1.47864
1.47394
1.46788
1.46277
1.4598
1.45952
1.46014
1.46069
1.45918
1.45477
1.45048
1.44867
1.44775
1.44706
1.44558
1
1
1
1
1
1
1
1
1
1
1
1
1
1
1
1
1
1
1
1
1
1
1
1
1
1
1
1
1
1
1
1
1
1
1
1
1
1
1
1
1
1
1
1
1
1
1
1
1
1
1
1
1
1
1
1.00011
1.00799
1.16866
1.46992
1.61378
1.68833
1.70763
1.70575
1.70535
1.70331
1.70026
1.69533
1.69081
1.68283
1.68002
1.68152
1.68395
1.68271
1.67907
1.67432
1.66873
1.66135
1.6578
1.65657
1.65661
1.657
1.65682
1.65437
1.65033
1.64613
1.64162
1.63756
1.63791
1.63863
1.63845
1.63573
1.63046
1.62413
1.61885
1.61478
1.61237
1.61265
1.61366
1.61367
1.61227
1.60885
1.60407
1.59964
1.59589
1.59351
1.59306
1.59411
1.59424
1.59218
1.58706
1.58075
1.57603
1.57197
1.56872
1.5661
1.56653
1.56776
1.56829
1.56779
1.56525
1.56102
1.55563
1.54952
1.54445
1.54241
1.54244
1.54288
1.5439
1.54354
1.54209
1.53946
1.53497
1.52911
1.52402
1.52312
1.52344
1.52282
1.52024
1.51758
1.5167
1.51545
1.5134
1.51014
1.50344
1.49949
1.49936
1.49876
1.49679
1.49714
1.49853
1.49854
1.49523
1.4882
1.4808
1.47784
1.47724
1.4776
1.48018
1.48284
1.48284
1.48082
1.47652
1.4715
1.46702
1.46408
1.46296
1.46298
1.46296
1.46123
1.45699
1.45297
1.45138
1.45067
1.45019
1.44873
1.44574
1
1
1
1
1
1
1
1
1
1
1
1
1
1
1
1
1
1
1
1
1
1
1
1
1
1
1
1
1
1
1
1
1
1
1
1
1
1
1
1
1
1
1
1
1
1
1
1
1
1
1
1
1
1
1
1
1.00014
1.01248
1.14651
1.36556
1.61017
1.70529
1.70579
1.70391
1.70018
1.69697
1.69156
1.68417
1.6829
1.68441
1.68734
1.68581
1.68255
1.67841
1.6733
1.66554
1.66089
1.65974
1.65936
1.65892
1.65839
1.65695
1.65443
1.65137
1.64766
1.64282
1.63945
1.63926
1.63889
1.63703
1.63347
1.62845
1.62395
1.62027
1.61747
1.61559
1.61522
1.61475
1.61355
1.61112
1.60752
1.60393
1.60033
1.59786
1.59626
1.59647
1.59625
1.59445
1.59014
1.58447
1.58001
1.57573
1.57261
1.56917
1.56917
1.57018
1.5702
1.56944
1.56744
1.5641
1.55963
1.55373
1.54914
1.54588
1.54435
1.5444
1.54515
1.54536
1.54455
1.54286
1.53905
1.53332
1.52688
1.52467
1.52495
1.52456
1.52246
1.51991
1.51954
1.51936
1.5181
1.51496
1.50865
1.50279
1.50042
1.50029
1.49942
1.49897
1.50029
1.50059
1.49843
1.49239
1.48404
1.47993
1.47965
1.4795
1.48103
1.48397
1.48413
1.4827
1.47935
1.47548
1.47174
1.46873
1.46688
1.46573
1.46472
1.46273
1.45897
1.45565
1.45444
1.45397
1.45363
1.45227
1.44892
1.44464
1
1
1
1
1
1
1
1
1
1
1
1
1
1
1
1
1
1
1
1
1
1
1
1
1
1
1
1
1
1
1
1
1
1
1
1
1
1
1
1
1
1
1
1
1
1
1
1
1
1
1
1
1
1
1
1
1
1.00018
1.00755
1.07103
1.34603
1.64675
1.69342
1.69827
1.69693
1.69247
1.68625
1.68594
1.68875
1.69087
1.68864
1.68515
1.68159
1.67681
1.66935
1.66385
1.66261
1.66252
1.66177
1.66074
1.65979
1.65778
1.65489
1.65159
1.64758
1.64269
1.63995
1.63895
1.63799
1.63583
1.63223
1.62884
1.62579
1.6224
1.61905
1.61697
1.61563
1.61451
1.61283
1.61052
1.60798
1.60533
1.6029
1.59987
1.59863
1.59784
1.59605
1.59259
1.58794
1.58409
1.58008
1.57682
1.57341
1.57198
1.57222
1.57171
1.57067
1.5691
1.56667
1.56359
1.5584
1.55266
1.5497
1.54764
1.5465
1.54645
1.54671
1.54631
1.54547
1.54273
1.53789
1.53106
1.52706
1.52697
1.52671
1.52417
1.52179
1.52163
1.52203
1.52159
1.5192
1.51364
1.50788
1.50411
1.50169
1.50091
1.50158
1.50268
1.50285
1.50143
1.49678
1.48885
1.48277
1.48191
1.48184
1.48205
1.48389
1.48474
1.48393
1.48167
1.47909
1.4764
1.47363
1.47101
1.46845
1.46622
1.46377
1.46052
1.4582
1.45767