/*--------------------------------*- C++ -*----------------------------------*\
  =========                 |
  \\      /  F ield         | OpenFOAM: The Open Source CFD Toolbox
   \\    /   O peration     | Website:  https://openfoam.org
    \\  /    A nd           | Version:  7
     \\/     M anipulation  |
\*---------------------------------------------------------------------------*/
FoamFile
{
    version     2.0;
    format      ascii;
    class       volScalarField;
    location    "4";
    object      rho;
}
// * * * * * * * * * * * * * * * * * * * * * * * * * * * * * * * * * * * * * //

dimensions      [1 -3 0 0 0 0 0];

internalField   nonuniform List<scalar> 
16192
(
3.21734
3.21503
3.21592
3.21917
3.21879
3.21639
3.2111
3.19942
3.18862
3.18494
3.18334
3.18519
3.18871
3.18789
3.18487
3.17926
3.17043
3.16208
3.1583
3.15625
3.15551
3.15551
3.15423
3.15149
3.1456
3.13612
3.12882
3.12461
3.12138
3.11935
3.11887
3.11842
3.11704
3.11475
3.10985
3.1024
3.09578
3.0907
3.08587
3.08105
3.07643
3.07316
3.07148
3.07229
3.07441
3.07415
3.06946
3.05992
3.05018
3.04363
3.03807
3.03311
3.02869
3.02486
3.02064
3.01472
3.00972
3.00711
3.00638
3.00821
3.00983
3.00843
3.00458
2.99656
2.98583
2.97883
2.97409
2.97015
2.96742
2.96648
2.96591
2.96494
2.96469
2.964
2.96092
2.95534
2.94878
2.94195
2.93433
2.92586
2.91825
2.91322
2.91087
2.91131
2.91788
2.92519
2.92528
2.92153
2.91144
2.89013
2.87035
2.86124
2.85658
2.85417
2.85499
2.86468
2.87875
2.88335
2.88084
2.87407
2.85591
2.82997
2.81569
2.81019
2.80804
2.80917
2.82296
2.84012
2.84233
2.83944
2.83496
2.82595
2.80565
2.78076
2.76854
2.76497
2.76369
2.76962
2.78472
2.79108
2.78965
2.78635
2.78026
2.77076
2.75912
2.74638
2.73437
2.72701
2.72375
2.72102
2.71732
2.71404
2.71364
2.71764
2.72403
2.73075
2.73543
2.7359
2.73114
2.71794
2.69791
2.68135
2.66742
2.65782
2.65383
2.65389
2.65895
2.66841
2.68075
2.68884
2.68883
2.68246
2.6661
2.64475
2.62795
2.61788
2.61372
2.61235
2.61503
2.62248
2.62955
2.63189
2.63021
2.62505
2.61301
2.59634
2.5825
2.57146
2.56586
2.56402
2.56513
2.57165
2.58245
2.59101
2.59054
2.58502
2.57361
2.55836
2.54209
2.52863
2.52163
2.51901
2.52081
2.53006
2.5425
2.54863
2.54687
2.53978
2.52738
2.51481
2.50168
2.48794
2.47925
2.47648
2.4757
2.47939
2.487
2.4913
2.49037
2.48511
2.47568
2.46754
2.46399
2.46174
2.46115
2.46071
2.45801
2.45427
2.44881
2.43973
2.42819
2.42126
2.41996
2.41989
2.42364
2.43553
2.44587
2.4476
2.44517
2.43995
2.42589
2.39821
2.37306
2.3599
2.35359
2.35141
2.35258
2.36799
2.39497
2.40692
2.4086
2.40617
2.4003
2.38496
2.35912
2.33676
2.32571
2.3212
2.3199
2.32321
2.33059
2.33913
2.3431
2.34254
2.33741
2.32345
2.30625
2.29916
2.29677
2.29535
2.29729
2.3086
2.31232
3.22694
3.21848
3.21548
3.21462
3.21584
3.21548
3.21348
3.20862
3.19781
3.18715
3.18291
3.18201
3.18531
3.18858
3.18756
3.18484
3.17984
3.17138
3.16253
3.15858
3.1571
3.15731
3.15708
3.15454
3.15004
3.14094
3.12973
3.12344
3.12024
3.11904
3.12149
3.12436
3.12452
3.1225
3.11806
3.1083
3.09682
3.08904
3.08328
3.0787
3.07571
3.07479
3.07791
3.08346
3.08649
3.08497
3.08054
3.06891
3.05045
3.03714
3.03056
3.02639
3.02344
3.02298
3.02388
3.02156
3.0183
3.01623
3.01605
3.01684
3.01617
3.01375
3.00934
3.00134
2.98926
2.97781
2.97024
2.96568
2.96303
2.96278
2.96846
2.97605
2.98035
2.97988
2.97613
2.96683
2.95135
2.93771
2.92824
2.92077
2.91569
2.91299
2.91219
2.91702
2.92699
2.93062
2.92833
2.92409
2.91537
2.89675
2.8731
2.85962
2.85538
2.85377
2.85773
2.87453
2.88673
2.88622
2.88267
2.87594
2.86151
2.83759
2.81946
2.81283
2.81085
2.8137
2.82441
2.83241
2.83557
2.83505
2.83127
2.82253
2.80901
2.7934
2.78101
2.77454
2.77342
2.77887
2.78436
2.78475
2.78297
2.78026
2.77735
2.77469
2.7715
2.76601
2.75632
2.74192
2.72714
2.71658
2.70942
2.70546
2.70407
2.70842
2.72614
2.74298
2.74931
2.74908
2.74563
2.73659
2.7122
2.67785
2.65846
2.65024
2.64649
2.64574
2.65476
2.68246
2.70074
2.70161
2.69827
2.69238
2.67738
2.64735
2.62343
2.61423
2.60988
2.60785
2.61052
2.62557
2.63855
2.6407
2.63908
2.63535
2.62628
2.60404
2.57877
2.56693
2.56241
2.56066
2.56177
2.57363
2.59371
2.60206
2.6005
2.59575
2.58313
2.55754
2.5352
2.52452
2.52053
2.51996
2.52717
2.5454
2.5571
2.55643
2.55303
2.54623
2.52914
2.50414
2.48663
2.47776
2.47402
2.47321
2.4782
2.49326
2.50734
2.50988
2.50704
2.49756
2.47924
2.46647
2.46219
2.45956
2.45754
2.45669
2.45621
2.45398
2.45075
2.44478
2.43409
2.42723
2.42567
2.42484
2.42524
2.42981
2.44201
2.448
2.44668
2.44384
2.43597
2.41289
2.37909
2.35989
2.3551
2.3541
2.35613
2.36649
2.38546
2.40426
2.40772
2.40485
2.39948
2.38681
2.35717
2.32928
2.31927
2.31565
2.314
2.31716
2.3371
2.35926
2.36344
2.36199
2.35781
2.34496
2.318
2.29644
2.28921
2.28549
2.2835
2.28624
2.29936
3.23773
3.22911
3.21972
3.21494
3.21249
3.21147
3.20999
3.20757
3.20426
3.197
3.18922
3.18538
3.18485
3.18708
3.18818
3.18689
3.18456
3.18066
3.17309
3.16397
3.1595
3.15729
3.15553
3.15297
3.14962
3.14426
3.13599
3.12826
3.12443
3.12356
3.12562
3.12738
3.12624
3.12364
3.11888
3.109
3.0964
3.08818
3.0839
3.0811
3.08048
3.08382
3.08888
3.09084
3.08922
3.08628
3.08121
3.07129
3.05353
3.03636
3.02767
3.02399
3.02236
3.02567
3.03142
3.03325
3.03252
3.02986
3.02524
3.02009
3.01581
3.01139
3.00591
2.99862
2.99081
2.98192
2.97321
2.96801
2.96593
2.96841
2.97752
2.98534
2.98613
2.9835
2.9788
2.97065
2.95633
2.93913
2.92632
2.91983
2.91664
2.91519
2.91773
2.92527
2.92932
2.92885
2.92678
2.92186
2.91219
2.89809
2.88347
2.87184
2.86509
2.86342
2.86899
2.87834
2.88071
2.88021
2.87748
2.87114
2.86002
2.84794
2.83749
2.82966
2.82591
2.82667
2.8295
2.82932
2.82694
2.82403
2.81939
2.81338
2.80849
2.80576
2.80322
2.80022
2.79562
2.78982
2.78471
2.77903
2.77399
2.77138
2.77172
2.77583
2.77886
2.7774
2.77311
2.76225
2.73941
2.71733
2.70769
2.70442
2.7033
2.70583
2.71662
2.73484
2.74689
2.74723
2.74377
2.73745
2.72274
2.69317
2.66394
2.65016
2.6465
2.64672
2.65685
2.6747
2.68974
2.69635
2.69579
2.68991
2.67753
2.65912
2.63842
2.62205
2.61351
2.61116
2.61376
2.62273
2.63357
2.63918
2.63795
2.63379
2.62623
2.61176
2.58797
2.56947
2.56288
2.56102
2.56418
2.58194
2.59977
2.60303
2.6008
2.59556
2.58437
2.56312
2.54098
2.53042
2.5272
2.52812
2.53854
2.55175
2.55553
2.55471
2.55145
2.54457
2.53006
2.50584
2.48504
2.47635
2.47402
2.47502
2.48901
2.51065
2.51615
2.51406
2.50848
2.4976
2.48214
2.46965
2.46278
2.45864
2.45593
2.4551
2.45703
2.4566
2.45507
2.45205
2.44186
2.43158
2.42788
2.42584
2.42446
2.42586
2.43392
2.44391
2.44582
2.44369
2.43817
2.42501
2.40285
2.38142
2.36988
2.36649
2.36704
2.37147
2.37695
2.38549
2.39485
2.39677
2.39244
2.38147
2.36485
2.3432
2.32492
2.31734
2.31621
2.32139
2.33557
2.35097
2.36082
2.36154
2.35732
2.34706
2.32917
2.30601
2.28954
2.28391
2.28232
2.28263
2.29104
3.24052
3.23771
3.23176
3.22131
3.21082
3.20543
3.20239
3.20216
3.20406
3.2038
3.20129
3.19591
3.19084
3.18845
3.18719
3.18712
3.1858
3.18344
3.17973
3.17253
3.1636
3.1578
3.1544
3.15172
3.1495
3.147
3.14359
3.13879
3.13344
3.13032
3.12851
3.12669
3.12457
3.12144
3.11657
3.10891
3.09901
3.09144
3.08804
3.08722
3.09036
3.09485
3.095
3.09255
3.08922
3.08416
3.07696
3.06683
3.05535
3.04385
3.03526
3.0313
3.03155
3.03721
3.04237
3.04291
3.04094
3.03737
3.02996
3.01932
3.01043
3.00427
2.99909
2.99508
2.99186
2.98872
2.9855
2.98287
2.98194
2.98288
2.98306
2.98131
2.97988
2.9776
2.97313
2.96538
2.95587
2.94539
2.93632
2.93007
2.92653
2.92626
2.92987
2.9311
2.92888
2.92515
2.91962
2.91289
2.9042
2.89632
2.89204
2.889
2.88713
2.88658
2.88477
2.8816
2.87878
2.87417
2.86727
2.8602
2.85649
2.85474
2.85381
2.85348
2.85044
2.84347
2.83406
2.82598
2.81894
2.81178
2.80674
2.80497
2.80677
2.81379
2.82103
2.82181
2.81705
2.80398
2.78545
2.77367
2.76859
2.7665
2.76687
2.77454
2.78283
2.78294
2.78032
2.77405
2.75672
2.73069
2.71419
2.70849
2.70652
2.70786
2.71531
2.72176
2.72754
2.73448
2.73632
2.73197
2.72128
2.70705
2.69127
2.67751
2.66884
2.66722
2.67148
2.6755
2.67657
2.67713
2.67716
2.67457
2.66887
2.66221
2.65639
2.64893
2.6396
2.63148
2.62815
2.62762
2.62609
2.62551
2.62592
2.62467
2.6201
2.61177
2.6023
2.59198
2.58282
2.57868
2.58142
2.58723
2.5886
2.5899
2.58993
2.58673
2.57839
2.56657
2.55718
2.55157
2.54838
2.5484
2.5488
2.54656
2.54532
2.5445
2.54174
2.53544
2.52451
2.51216
2.50125
2.49378
2.49065
2.49404
2.50235
2.50506
2.50555
2.50393
2.499
2.49029
2.48227
2.47618
2.46996
2.46471
2.46198
2.46168
2.46107
2.45962
2.45758
2.44986
2.43931
2.43291
2.42958
2.42656
2.42448
2.42496
2.43133
2.43637
2.43851
2.43837
2.43596
2.43093
2.42265
2.41238
2.39934
2.38576
2.37919
2.37716
2.37606
2.37504
2.37522
2.37562
2.3742
2.37068
2.36564
2.35961
2.35107
2.34238
2.33832
2.33973
2.34355
2.34576
2.34725
2.34858
2.34639
2.33962
2.33048
2.32033
2.30745
2.29424
2.28691
2.28572
2.28988
3.23756
3.23748
3.23599
3.23056
3.21764
3.20439
3.19983
3.19812
3.20008
3.20674
3.20891
3.20694
3.20106
3.19347
3.18987
3.18784
3.18575
3.18309
3.18027
3.17541
3.16771
3.161
3.15705
3.15447
3.15336
3.15342
3.152
3.14893
3.14413
3.13665
3.12881
3.12421
3.12116
3.11804
3.11445
3.11068
3.10696
3.1028
3.09965
3.09856
3.09874
3.09759
3.09525
3.09205
3.08661
3.07886
3.07023
3.06298
3.05885
3.05553
3.05251
3.05115
3.05123
3.05067
3.04869
3.04594
3.04203
3.03627
3.02785
3.01688
3.00655
2.99918
2.99499
2.99282
2.99315
2.99717
3.00208
3.00418
3.00225
2.9959
2.98514
2.97699
2.97185
2.96682
2.96169
2.95711
2.95327
2.95058
2.9486
2.94783
2.9474
2.94546
2.94079
2.93446
2.92743
2.9193
2.90959
2.9017
2.89767
2.89642
2.89815
2.9051
2.91149
2.91047
2.90285
2.88942
2.87683
2.86602
2.8583
2.85475
2.85426
2.85819
2.86621
2.87017
2.86756
2.86013
2.84333
2.8226
2.81064
2.8047
2.80163
2.8009
2.80735
2.82304
2.83285
2.83258
2.82851
2.81635
2.79185
2.77291
2.76727
2.76515
2.7663
2.77585
2.78368
2.7838
2.78077
2.77499
2.76434
2.75058
2.73753
2.72624
2.71901
2.71658
2.71751
2.71911
2.71749
2.71598
2.71529
2.71472
2.71361
2.71158
2.71043
2.71065
2.7089
2.70177
2.68993
2.67829
2.66944
2.66138
2.65402
2.65088
2.65334
2.66092
2.66683
2.67043
2.67062
2.66523
2.65119
2.63319
2.62218
2.6153
2.60951
2.60531
2.60423
2.60723
2.6099
2.6116
2.61354
2.61281
2.60634
2.59554
2.58763
2.58148
2.57476
2.56926
2.5677
2.56922
2.57151
2.57485
2.5756
2.57079
2.55968
2.54679
2.53854
2.53187
2.52492
2.51984
2.51805
2.51723
2.51718
2.52058
2.52415
2.52229
2.51514
2.50569
2.49631
2.48723
2.48078
2.47924
2.48074
2.48189
2.48177
2.48077
2.47847
2.47429
2.46884
2.46275
2.45299
2.44064
2.43396
2.43183
2.43033
2.42862
2.42771
2.43011
2.43512
2.4367
2.43566
2.43528
2.43416
2.43329
2.43237
2.43056
2.4256
2.41445
2.3969
2.38164
2.37315
2.36579
2.35857
2.35376
2.35318
2.35749
2.36394
2.36884
2.37223
2.37431
2.37241
2.36512
2.35465
2.34413
2.33602
2.32882
2.32493
2.32575
2.32885
2.32794
2.32542
2.32052
2.31194
2.30165
2.29453
3.23229
3.23193
3.23316
3.23162
3.22595
3.21447
3.20509
3.20179
3.20291
3.2089
3.2108
3.20975
3.20701
3.20139
3.19651
3.19218
3.18744
3.18286
3.1787
3.1741
3.16904
3.16487
3.16184
3.16013
3.16032
3.1604
3.15852
3.15549
3.15096
3.14313
3.13142
3.12227
3.11773
3.11473
3.11275
3.1128
3.11516
3.11638
3.11474
3.10984
3.10214
3.096
3.09224
3.08821
3.08231
3.07446
3.0685
3.06574
3.06587
3.06918
3.07185
3.07107
3.06664
3.05913
3.05057
3.04392
3.03838
3.03191
3.0237
3.01445
3.00553
2.99981
2.99705
2.99644
3.00083
3.00884
3.01389
3.01363
3.01044
3.00365
2.99013
2.97451
2.96447
2.9581
2.95313
2.94998
2.94925
2.95342
2.96061
2.96567
2.96598
2.9623
2.95402
2.93944
2.92449
2.91208
2.90258
2.89648
2.89439
2.8962
2.90728
2.92219
2.92692
2.92439
2.91711
2.899
2.87487
2.8611
2.85542
2.85343
2.854
2.86335
2.87549
2.87697
2.87388
2.86669
2.85082
2.82607
2.8087
2.80272
2.80061
2.80174
2.81515
2.83211
2.8351
2.83285
2.82759
2.81723
2.80256
2.78866
2.77869
2.77411
2.77424
2.77672
2.7758
2.77424
2.77202
2.76813
2.763
2.75944
2.75578
2.75065
2.74278
2.73201
2.72241
2.7157
2.7078
2.69983
2.69623
2.69723
2.70414
2.71641
2.73129
2.74046
2.7404
2.73361
2.71453
2.68538
2.66032
2.64462
2.63866
2.63712
2.64065
2.65435
2.67633
2.68968
2.69054
2.6867
2.67438
2.64611
2.61804
2.60476
2.59822
2.59536
2.59534
2.60163
2.61688
2.63186
2.63774
2.63641
2.62988
2.61265
2.58913
2.57225
2.56364
2.56038
2.56007
2.5662
2.58058
2.59007
2.58978
2.58569
2.5748
2.55276
2.53133
2.51988
2.51482
2.51284
2.51346
2.52136
2.537
2.54908
2.55026
2.54504
2.52956
2.50556
2.48291
2.47164
2.46826
2.46763
2.47237
2.48422
2.49507
2.49839
2.49663
2.4907
2.47781
2.46048
2.44402
2.43457
2.43111
2.42923
2.42797
2.42958
2.43599
2.44268
2.44311
2.44103
2.43734
2.43314
2.43168
2.43371
2.43772
2.43803
2.43568
2.4307
2.41715
2.39087
2.36583
2.3513
2.34352
2.34052
2.34064
2.34851
2.36657
2.38795
2.40151
2.40493
2.40181
2.38969
2.36415
2.3376
2.31897
2.31064
2.30862
2.31143
2.32232
2.33474
2.34288
2.34441
2.34066
2.32601
2.29861
3.22965
3.22625
3.22488
3.22755
3.22785
3.22335
3.21703
3.21324
3.21215
3.21096
3.20914
3.2079
3.20666
3.20457
3.20184
3.19828
3.19292
3.18501
3.17679
3.17222
3.16967
3.16782
3.16754
3.16878
3.16799
3.16506
3.16188
3.15856
3.1545
3.14841
3.13844
3.1266
3.1193
3.1162
3.11463
3.11638
3.12223
3.12485
3.12303
3.11886
3.10988
3.09752
3.08864
3.08269
3.07747
3.0742
3.07284
3.07469
3.07993
3.08413
3.08344
3.07983
3.07316
3.06269
3.05183
3.04224
3.0341
3.02741
3.02151
3.01623
3.01193
3.0083
3.0063
3.00728
3.01164
3.01498
3.01491
3.01234
3.00778
3.00128
2.99247
2.97915
2.96476
2.9546
2.94954
2.94757
2.94956
2.96019
2.9713
2.97421
2.9724
2.96828
2.95965
2.94416
2.92356
2.90813
2.9001
2.897
2.89665
2.9046
2.92085
2.92937
2.92842
2.92475
2.91745
2.903
2.88069
2.86469
2.85902
2.85696
2.8594
2.87056
2.87805
2.8776
2.87358
2.8647
2.84965
2.83343
2.82042
2.81271
2.81003
2.81373
2.82343
2.82627
2.82544
2.8234
2.81933
2.81328
2.80916
2.80611
2.80181
2.79493
2.78587
2.77806
2.77245
2.76678
2.76222
2.76002
2.76099
2.76398
2.7661
2.76513
2.76118
2.75186
2.73261
2.71227
2.69992
2.69271
2.68953
2.68985
2.7018
2.73145
2.75004
2.75099
2.74746
2.74117
2.7256
2.69045
2.65523
2.64041
2.63517
2.63368
2.63711
2.65673
2.68234
2.6917
2.69083
2.68665
2.6778
2.65832
2.62793
2.60455
2.59542
2.59251
2.59298
2.60696
2.633
2.64511
2.64481
2.64137
2.63521
2.62162
2.59482
2.57063
2.56112
2.55841
2.55825
2.56789
2.58788
2.59532
2.59319
2.58875
2.58012
2.56023
2.53336
2.51756
2.51207
2.51074
2.51501
2.53626
2.55632
2.55836
2.55534
2.54987
2.53424
2.50066
2.47593
2.46783
2.46469
2.4635
2.46769
2.48593
2.50567
2.51007
2.50801
2.5018
2.48456
2.45472
2.4366
2.43126
2.42935
2.42844
2.43023
2.4402
2.45257
2.45535
2.4535
2.4487
2.43901
2.43126
2.42936
2.42891
2.43305
2.4368
2.43507
2.4321
2.42516
2.40449
2.37182
2.34941
2.34082
2.33764
2.33729
2.34672
2.3797
2.40886
2.41434
2.41199
2.40777
2.39661
2.36443
2.3229
2.30656
2.30281
2.30161
2.30467
2.32031
2.3475
2.3621
2.36294
2.35962
2.34468
2.30459
3.23881
3.2254
3.22206
3.22162
3.22567
3.2294
3.22894
3.22708
3.22287
3.21621
3.20948
3.20554
3.20349
3.20259
3.20213
3.2003
3.19683
3.18986
3.17941
3.17357
3.17132
3.1708
3.17416
3.17616
3.17375
3.16932
3.16374
3.15903
3.15503
3.15061
3.14461
3.13628
3.12773
3.1224
3.12001
3.12012
3.12347
3.12485
3.1232
3.12026
3.11459
3.10386
3.09011
3.08141
3.07841
3.07764
3.08035
3.08609
3.08977
3.08885
3.08587
3.08118
3.07241
3.05968
3.04797
3.0394
3.03273
3.02792
3.0249
3.02383
3.02488
3.02585
3.02534
3.02276
3.01838
3.0137
3.00882
3.00446
3.00026
2.99512
2.98831
2.98084
2.97239
2.96402
2.95849
2.9566
2.96044
2.96911
2.9739
2.974
2.9711
2.96559
2.95585
2.94218
2.9289
2.91819
2.91206
2.90971
2.91251
2.92158
2.92585
2.92392
2.92142
2.91768
2.9107
2.89944
2.88768
2.87892
2.87377
2.8721
2.87558
2.87921
2.87752
2.87333
2.86649
2.85656
2.84573
2.83979
2.83631
2.83358
2.83225
2.83066
2.82768
2.82447
2.81903
2.81337
2.81023
2.81016
2.81354
2.81654
2.81576
2.81174
2.80202
2.7848
2.7699
2.76187
2.75769
2.7559
2.75646
2.7636
2.77063
2.77061
2.76807
2.76199
2.7457
2.72002
2.70099
2.69343
2.69136
2.69303
2.70412
2.71984
2.73514
2.74355
2.74346
2.73735
2.72305
2.70096
2.6757
2.65551
2.64442
2.64152
2.64566
2.65688
2.66403
2.67142
2.67796
2.67825
2.67206
2.66106
2.64563
2.62659
2.61078
2.60429
2.60562
2.61548
2.62359
2.63054
2.63632
2.63649
2.6315
2.6214
2.60533
2.5846
2.56962
2.56437
2.56418
2.57084
2.57863
2.5852
2.58817
2.58564
2.57754
2.56378
2.5458
2.52933
2.52082
2.51931
2.52493
2.53672
2.54737
2.55345
2.55266
2.54671
2.53289
2.51042
2.48552
2.4702
2.46503
2.46379
2.47021
2.49198
2.5081
2.51023
2.50761
2.5011
2.48605
2.45954
2.43853
2.43104
2.42842
2.42798
2.43728
2.45806
2.46603
2.46413
2.45971
2.44997
2.43602
2.429
2.42677
2.42555
2.42668
2.43084
2.43157
2.42943
2.42356
2.41065
2.38723
2.36205
2.34799
2.34397
2.34457
2.35544
2.37507
2.394
2.40603
2.409
2.4055
2.39324
2.36629
2.32964
2.30754
2.30141
2.3
2.30383
2.32816
2.36065
2.36871
2.367
2.36167
2.34857
2.31406
3.25137
3.2399
3.22875
3.2247
3.22604
3.23219
3.23427
3.23277
3.22985
3.22474
3.21684
3.2075
3.20154
3.19908
3.19805
3.19797
3.19621
3.1929
3.18598
3.17874
3.17566
3.17557
3.17923
3.17985
3.17748
3.17357
3.16684
3.15993
3.15532
3.15165
3.14779
3.14325
3.13797
3.13254
3.12788
3.12483
3.12292
3.12105
3.11984
3.11766
3.11443
3.10903
3.10058
3.09205
3.08731
3.08629
3.08824
3.09066
3.08993
3.08743
3.08404
3.0786
3.0693
3.05631
3.04429
3.03759
3.03428
3.03249
3.03314
3.0366
3.04031
3.04141
3.03933
3.03462
3.02527
3.01272
3.00254
2.99545
2.98914
2.98432
2.98161
2.98074
2.98016
2.97998
2.9807
2.98119
2.97913
2.97495
2.97078
2.96584
2.96053
2.95399
2.94545
2.93747
2.93339
2.93147
2.93237
2.936
2.93739
2.93393
2.92806
2.92123
2.91426
2.90569
2.89802
2.89353
2.89175
2.89124
2.89358
2.89562
2.89311
2.88646
2.87719
2.86747
2.85746
2.84946
2.84598
2.84533
2.84958
2.85413
2.85263
2.84621
2.83471
2.82235
2.81376
2.80863
2.80666
2.80756
2.81436
2.82022
2.82036
2.81808
2.81208
2.79603
2.77324
2.76061
2.7569
2.75505
2.75621
2.76474
2.7712
2.77059
2.76684
2.76001
2.74915
2.73539
2.72323
2.71434
2.70945
2.70939
2.71359
2.71757
2.71964
2.7217
2.72234
2.7192
2.71165
2.70181
2.69412
2.6867
2.67795
2.66976
2.6653
2.66332
2.66145
2.6584
2.65595
2.65605
2.65709
2.65626
2.65364
2.65127
2.64771
2.64035
2.63166
2.62702
2.62495
2.62217
2.62041
2.62033
2.61931
2.61514
2.60866
2.6019
2.5944
2.58657
2.58123
2.57922
2.5786
2.5767
2.57499
2.57283
2.56905
2.56361
2.55894
2.55427
2.54888
2.54467
2.54275
2.54196
2.5406
2.5391
2.53688
2.53167
2.52338
2.51412
2.50479
2.49411
2.48474
2.48148
2.4852
2.48926
2.49098
2.49398
2.49457
2.49014
2.47934
2.46706
2.45607
2.44692
2.44168
2.44271
2.45302
2.46082
2.46181
2.46023
2.45529
2.44423
2.43214
2.42676
2.42445
2.42307
2.42351
2.4259
2.42516
2.42266
2.41882
2.41178
2.40077
2.38792
2.37648
2.36925
2.36792
2.37193
2.37813
2.38243
2.38576
2.3876
2.38514
2.37555
2.35899
2.34277
2.32895
2.31829
2.31426
2.31927
2.33537
2.34776
2.35474
2.35668
2.3539
2.3443
2.32336
3.25607
3.25401
3.24749
3.23753
3.23431
3.23436
3.23491
3.23404
3.23198
3.22845
3.2226
3.21375
3.20443
3.1978
3.19476
3.19307
3.19333
3.19345
3.1909
3.18672
3.18351
3.18269
3.18274
3.1813
3.17911
3.17609
3.17037
3.16281
3.15693
3.15265
3.14897
3.14588
3.14309
3.14034
3.13691
3.13188
3.12529
3.12005
3.11725
3.11514
3.1135
3.11205
3.11003
3.10696
3.10131
3.09499
3.09151
3.08878
3.08613
3.08312
3.07941
3.07444
3.06725
3.05754
3.04751
3.04183
3.04016
3.04104
3.04463
3.04798
3.04858
3.04684
3.04376
3.03918
3.03065
3.01735
3.00242
2.9907
2.98324
2.97912
2.97794
2.98126
2.98915
2.99672
3.00028
2.99901
2.99419
2.98339
2.96899
2.95746
2.94843
2.94141
2.93658
2.93477
2.93655
2.94415
2.95325
2.95597
2.95318
2.94618
2.93314
2.91948
2.90766
2.89856
2.89268
2.89087
2.89375
2.90363
2.91137
2.91108
2.90609
2.8933
2.8762
2.86191
2.85318
2.84942
2.84848
2.85367
2.86411
2.86666
2.86361
2.857
2.84213
2.82232
2.81153
2.80827
2.80659
2.80735
2.81487
2.82083
2.82004
2.8172
2.81152
2.80083
2.78626
2.7737
2.76596
2.76288
2.76375
2.76618
2.7643
2.76211
2.75879
2.75285
2.74759
2.74523
2.74332
2.74155
2.73828
2.7324
2.72502
2.71866
2.71271
2.7056
2.69759
2.69328
2.69447
2.70039
2.70596
2.71052
2.71135
2.70604
2.69158
2.67178
2.65652
2.64382
2.63642
2.63477
2.63837
2.64718
2.66106
2.67438
2.67882
2.67567
2.66379
2.64187
2.6243
2.61275
2.60454
2.59968
2.5988
2.60304
2.60913
2.61342
2.61493
2.61348
2.60665
2.59281
2.57868
2.56838
2.56094
2.5572
2.55714
2.56197
2.56805
2.57287
2.57477
2.57242
2.56417
2.54984
2.53712
2.52734
2.5182
2.51212
2.51083
2.51292
2.51463
2.51608
2.51742
2.51464
2.50599
2.49488
2.48586
2.47858
2.47165
2.46768
2.46829
2.47023
2.47017
2.47111
2.47331
2.47266
2.46765
2.46176
2.45651
2.45068
2.44083
2.4305
2.42725
2.42546
2.42318
2.42174
2.42225
2.42373
2.42268
2.42024
2.41575
2.41217
2.41053
2.40905
2.40706
2.40276
2.39553
2.38763
2.38196
2.37767
2.37261
2.36491
2.357
2.35301
2.35171
2.35035
2.3487
2.34808
2.34882
2.34892
2.34745
2.34618
2.34474
2.34154
2.3362
2.33047
2.325
3.25721
3.26089
3.26108
3.25432
3.2459
3.24207
3.23895
3.23535
3.23134
3.22701
3.22167
3.21581
3.2097
3.20277
3.19584
3.19221
3.19076
3.19093
3.19359
3.19508
3.19393
3.19071
3.18592
3.18164
3.1787
3.17566
3.17123
3.16559
3.15988
3.15419
3.14986
3.14692
3.14477
3.14346
3.14124
3.13775
3.13235
3.1245
3.11795
3.11533
3.11409
3.11469
3.11552
3.11375
3.10993
3.10298
3.09346
3.08603
3.08159
3.07817
3.07459
3.07079
3.06738
3.06455
3.06078
3.05543
3.05132
3.05004
3.04981
3.0489
3.04682
3.04363
3.03974
3.03507
3.02931
3.02072
3.00845
2.99504
2.98634
2.98328
2.98377
2.99039
2.99954
3.00445
3.00374
3.00073
2.99645
2.98845
2.97394
2.95678
2.94416
2.93663
2.93401
2.9349
2.94521
2.95895
2.96171
2.95923
2.95514
2.9482
2.9357
2.91803
2.90468
2.89749
2.89438
2.89463
2.90396
2.9155
2.91748
2.91464
2.90685
2.89196
2.8745
2.86366
2.85865
2.85625
2.85833
2.86809
2.87266
2.87018
2.86607
2.85735
2.84252
2.82646
2.81718
2.81281
2.81067
2.8106
2.81453
2.81534
2.81304
2.81009
2.80575
2.79999
2.79534
2.79145
2.78682
2.78052
2.77295
2.76617
2.76101
2.75611
2.75149
2.74881
2.7486
2.75127
2.75672
2.76092
2.76049
2.75521
2.74218
2.72356
2.7047
2.68885
2.68121
2.6788
2.68086
2.69431
2.71699
2.73037
2.73087
2.72673
2.71421
2.68302
2.64925
2.63386
2.62798
2.62616
2.62892
2.64933
2.68129
2.69365
2.69228
2.68834
2.67959
2.65596
2.62174
2.60203
2.59345
2.58922
2.58758
2.59285
2.61257
2.62588
2.62982
2.62838
2.62349
2.60835
2.58098
2.56191
2.55427
2.55123
2.55078
2.5585
2.57685
2.58971
2.59109
2.58792
2.58011
2.56046
2.53228
2.51238
2.50437
2.50199
2.50251
2.50936
2.52453
2.53993
2.54533
2.54272
2.53157
2.50781
2.48069
2.46072
2.45251
2.4508
2.45416
2.46606
2.48391
2.49807
2.50239
2.49939
2.48862
2.46823
2.4487
2.43266
2.42218
2.41944
2.4199
2.42258
2.42504
2.4273
2.42768
2.42582
2.4229
2.41986
2.41789
2.41775
2.42019
2.42506
2.42808
2.42659
2.4204
2.40655
2.38766
2.37058
2.35422
2.34095
2.33569
2.3361
2.34386
2.35555
2.36739
2.37795
2.38173
2.37763
2.36585
2.35005
2.33515
2.32196
2.31552
2.31681
2.32477
3.25976
3.26364
3.26305
3.25923
3.25321
3.24993
3.24626
3.23998
3.23119
3.222
3.21628
3.21309
3.21078
3.20778
3.20277
3.19677
3.19309
3.19176
3.19453
3.1999
3.20034
3.1977
3.19258
3.184
3.17652
3.17207
3.16844
3.16487
3.16116
3.15689
3.15266
3.14949
3.14746
3.14618
3.14451
3.14215
3.13901
3.13359
3.12505
3.11832
3.11588
3.11494
3.11414
3.11201
3.10934
3.10516
3.09759
3.08823
3.08087
3.0766
3.07387
3.07217
3.07271
3.07428
3.07346
3.07068
3.06471
3.0552
3.04796
3.04309
3.03885
3.03523
3.03207
3.02898
3.02532
3.02091
3.01666
3.01211
3.00736
3.00326
3.00146
3.00091
2.99912
2.99696
2.99648
2.99539
2.99158
2.98582
2.97793
2.96543
2.95215
2.94437
2.94206
2.94551
2.95209
2.95331
2.95338
2.95227
2.94901
2.94246
2.93256
2.92227
2.91429
2.91038
2.90971
2.91446
2.91871
2.91716
2.91357
2.90786
2.89832
2.88493
2.87475
2.8707
2.86886
2.87093
2.87876
2.88098
2.87726
2.87121
2.86202
2.85003
2.83677
2.8283
2.82383
2.81997
2.81733
2.81666
2.81524
2.81257
2.80941
2.8053
2.80217
2.80116
2.80219
2.80326
2.80129
2.79681
2.78745
2.77262
2.7603
2.75251
2.74794
2.7463
2.74696
2.75443
2.76567
2.77084
2.76925
2.76501
2.7538
2.72684
2.69809
2.68387
2.67794
2.6762
2.67826
2.69514
2.72146
2.73198
2.73128
2.72703
2.71838
2.69774
2.66364
2.63736
2.62837
2.62685
2.63059
2.64499
2.66549
2.68263
2.6886
2.68594
2.67801
2.66324
2.63661
2.60826
2.59266
2.58791
2.58672
2.5905
2.60442
2.62372
2.63048
2.62901
2.62475
2.61488
2.59228
2.56629
2.55433
2.55158
2.55159
2.56119
2.58144
2.59131
2.59034
2.58645
2.57946
2.56243
2.53032
2.50828
2.50097
2.49868
2.49937
2.51387
2.54496
2.55821
2.5568
2.55285
2.54313
2.5151
2.47512
2.45425
2.44711
2.44525
2.44786
2.46971
2.50335
2.51465
2.51319
2.50937
2.50099
2.47656
2.43804
2.41849
2.41349
2.41177
2.4119
2.41667
2.42736
2.43595
2.43646
2.43444
2.42896
2.4232
2.42181
2.42163
2.42604
2.43506
2.43847
2.43602
2.43117
2.41922
2.39033
2.35602
2.33595
2.32892
2.32688
2.32778
2.3381
2.36435
2.39363
2.40541
2.40501
2.40021
2.38598
2.35586
2.32227
2.30656
2.30298
2.30415
2.31948
3.26302
3.26094
3.2592
3.25563
3.25293
3.25201
3.24969
3.24374
3.23396
3.2205
3.21225
3.20941
3.20831
3.20915
3.20782
3.20436
3.19968
3.19721
3.19789
3.20167
3.20262
3.20059
3.19737
3.19001
3.17738
3.16795
3.16372
3.16126
3.15916
3.15738
3.15587
3.15488
3.15393
3.15193
3.14904
3.14603
3.14318
3.13988
3.13467
3.12686
3.11829
3.11268
3.10949
3.1073
3.10568
3.10299
3.09962
3.09474
3.08866
3.0831
3.07981
3.07887
3.08007
3.08125
3.08029
3.07768
3.0722
3.06225
3.05044
3.04035
3.03353
3.02865
3.02481
3.02183
3.02031
3.02222
3.02693
3.03025
3.03064
3.02799
3.01998
3.00605
2.99529
2.98995
2.98621
2.98349
2.9819
2.98012
2.97696
2.97411
2.97188
2.97047
2.96832
2.9637
2.95764
2.95181
2.94579
2.93959
2.93372
2.92936
2.92735
2.92599
2.92565
2.92985
2.93659
2.93798
2.93301
2.92224
2.90946
2.89672
2.88487
2.87822
2.87648
2.87649
2.88153
2.89146
2.89541
2.89215
2.88474
2.87187
2.85568
2.83925
2.8305
2.82735
2.82535
2.82475
2.82511
2.8241
2.82095
2.81564
2.80881
2.8047
2.80307
2.80352
2.80654
2.8074
2.80558
2.80275
2.79675
2.78264
2.76393
2.75308
2.74954
2.74792
2.74911
2.75837
2.76825
2.76971
2.76738
2.763
2.75454
2.73576
2.70934
2.69118
2.68432
2.68254
2.68642
2.69682
2.70356
2.71061
2.71748
2.71879
2.71291
2.70091
2.68601
2.6699
2.65481
2.64601
2.64563
2.65164
2.6575
2.66118
2.66697
2.67124
2.66856
2.65924
2.6476
2.63288
2.61628
2.60209
2.59661
2.59752
2.60264
2.60728
2.61322
2.61922
2.61913
2.6128
2.60224
2.58832
2.57434
2.56528
2.56336
2.56628
2.5699
2.57521
2.58018
2.57944
2.5733
2.55961
2.53957
2.51862
2.50717
2.50414
2.50669
2.52122
2.53964
2.55269
2.55519
2.55185
2.54205
2.52158
2.48972
2.4625
2.4508
2.44852
2.45159
2.46538
2.48771
2.50649
2.511
2.50783
2.49899
2.47977
2.44642
2.41923
2.41058
2.40849
2.40817
2.41653
2.43638
2.44578
2.44599
2.44427
2.4368
2.42883
2.42675
2.42598
2.42838
2.43552
2.43675
2.43408
2.42983
2.42068
2.39639
2.35779
2.33442
2.32745
2.32565
2.32628
2.34043
2.37943
2.40677
2.40954
2.40698
2.40309
2.39091
2.35292
2.31149
2.30047
2.29794
2.29725
2.30974
3.27004
3.26374
3.25928
3.25568
3.25304
3.24983
3.24624
3.24161
3.23505
3.22711
3.21679
3.20968
3.20744
3.20798
3.21057
3.21022
3.20765
3.20418
3.20218
3.20167
3.20132
3.19969
3.19698
3.1921
3.18253
3.17036
3.16213
3.15861
3.15669
3.15585
3.15741
3.16021
3.16071
3.1589
3.15597
3.15186
3.14711
3.14283
3.13841
3.13229
3.12321
3.11313
3.10704
3.10398
3.10151
3.09996
3.10072
3.10104
3.09934
3.09643
3.09175
3.08692
3.08429
3.08202
3.07893
3.07462
3.0696
3.06416
3.05662
3.04583
3.03354
3.02555
3.02193
3.02052
3.02281
3.03127
3.03864
3.03963
3.03776
3.03472
3.0287
3.01524
2.99731
2.98545
2.97959
2.97534
2.97242
2.97123
2.97379
2.9825
2.9913
2.99444
2.99199
2.98309
2.96606
2.94945
2.93676
2.9272
2.92203
2.91959
2.91926
2.92455
2.93771
2.94979
2.95274
2.95
2.94332
2.92948
2.90819
2.88941
2.87922
2.87617
2.87579
2.88182
2.89468
2.90137
2.89975
2.89482
2.88607
2.87129
2.85004
2.83608
2.83034
2.82743
2.82642
2.82976
2.83304
2.83184
2.82917
2.82341
2.81448
2.80947
2.80726
2.80583
2.80579
2.80699
2.80587
2.8029
2.79755
2.78785
2.77493
2.76467
2.75863
2.75576
2.75606
2.75939
2.76028
2.75999
2.75928
2.75621
2.74905
2.7378
2.72565
2.71535
2.70732
2.70305
2.70268
2.70247
2.70051
2.6974
2.69466
2.69494
2.69765
2.69823
2.697
2.69627
2.69382
2.68559
2.67109
2.65813
2.65101
2.64607
2.64201
2.64114
2.64665
2.65293
2.65189
2.64992
2.6466
2.63848
2.62377
2.60993
2.60396
2.60062
2.598
2.59766
2.60196
2.60607
2.60544
2.60384
2.60072
2.59346
2.58141
2.57164
2.56872
2.56634
2.5641
2.56178
2.5579
2.55213
2.54464
2.53803
2.53246
2.52949
2.53157
2.53668
2.53962
2.54051
2.54112
2.53894
2.53153
2.51914
2.50638
2.49339
2.48028
2.47095
2.46887
2.47144
2.47505
2.48134
2.48874
2.49094
2.48587
2.47331
2.45776
2.43974
2.42364
2.41657
2.41652
2.42839
2.44622
2.45343
2.45338
2.44817
2.43828
2.43273
2.43071
2.42919
2.42938
2.43141
2.43134
2.42928
2.42533
2.41656
2.39812
2.37054
2.34751
2.33713
2.33425
2.33634
2.35
2.37067
2.39063
2.40253
2.40421
2.40006
2.38686
2.35777
2.3193
2.30052
2.29676
2.29591
2.30709
3.24942
3.27073
3.27151
3.26484
3.25915
3.24708
3.23889
3.23449
3.23211
3.23086
3.22901
3.22214
3.21524
3.21244
3.21283
3.21404
3.21389
3.2121
3.20787
3.20272
3.19948
3.19705
3.19396
3.18944
3.18396
3.17664
3.16761
3.16065
3.15796
3.1574
3.15989
3.16383
3.16486
3.16354
3.16126
3.15765
3.15109
3.14323
3.13722
3.132
3.12577
3.11734
3.10864
3.10385
3.10167
3.10138
3.10474
3.10722
3.10654
3.10455
3.1015
3.09536
3.08594
3.07814
3.07257
3.06848
3.06612
3.06377
3.0608
3.05575
3.04768
3.03818
3.03119
3.02916
3.03019
3.03073
3.03089
3.03326
3.03303
3.02989
3.02518
3.01881
3.00617
2.99008
2.97748
2.97115
2.96868
2.96978
2.98117
2.99609
3.00107
2.99964
2.996
2.98847
2.97303
2.95046
2.93255
2.92298
2.91764
2.91551
2.91823
2.93452
2.95042
2.95376
2.95201
2.94811
2.94091
2.92858
2.9119
2.89632
2.8869
2.88288
2.88376
2.89233
2.90017
2.90095
2.89809
2.89197
2.88139
2.86642
2.8537
2.84541
2.84
2.83647
2.83663
2.8393
2.83934
2.83821
2.83587
2.82935
2.82199
2.81681
2.81239
2.80919
2.80696
2.80424
2.80034
2.79645
2.79256
2.7877
2.78187
2.77755
2.77405
2.77003
2.76496
2.76022
2.75737
2.75419
2.74912
2.74359
2.74007
2.73873
2.73818
2.73915
2.73792
2.73164
2.7195
2.70557
2.69433
2.68403
2.67762
2.67562
2.67916
2.69308
2.70932
2.7191
2.72034
2.71581
2.69982
2.66799
2.64119
2.62854
2.62285
2.62078
2.62397
2.6394
2.6582
2.66857
2.66988
2.66628
2.65425
2.62751
2.60254