/*--------------------------------*- C++ -*----------------------------------*\
  =========                 |
  \\      /  F ield         | OpenFOAM: The Open Source CFD Toolbox
   \\    /   O peration     | Website:  https://openfoam.org
    \\  /    A nd           | Version:  7
     \\/     M anipulation  |
\*---------------------------------------------------------------------------*/
FoamFile
{
    version     2.0;
    format      ascii;
    class       volScalarField;
    location    "1.3";
    object      rho;
}
// * * * * * * * * * * * * * * * * * * * * * * * * * * * * * * * * * * * * * //

dimensions      [1 -3 0 0 0 0 0];

internalField   nonuniform List<scalar> 
16512
(
0.917913
0.917523
0.917147
0.916756
0.916449
0.916793
0.919363
0.92359
0.924688
0.92404
0.923497
0.92295
0.922118
0.920247
0.918204
0.917316
0.916872
0.916399
0.915933
0.9156
0.915251
0.914841
0.914615
0.914854
0.915164
0.915285
0.914806
0.913683
0.913418
0.913612
0.914188
0.91529
0.917041
0.918783
0.919441
0.919585
0.919738
0.920014
0.920116
0.919317
0.916829
0.914171
0.912945
0.912477
0.912183
0.91218
0.913617
0.917443
0.921681
0.923224
0.923199
0.922847
0.921237
0.917605
0.912004
0.90851
0.90773
0.907652
0.90823
0.909953
0.912256
0.913946
0.914486
0.914532
0.913981
0.912494
0.911179
0.910612
0.910348
0.910026
0.909584
0.909094
0.908536
0.907683
0.905975
0.903701
0.902446
0.901908
0.901636
0.901883
0.90363
0.906699
0.909377
0.910769
0.911216
0.91128
0.911124
0.909902
0.906779
0.903636
0.902675
0.90241
0.902285
0.901921
0.901462
0.900946
0.900317
0.89956
0.899001
0.898631
0.898344
0.898134
0.898147
0.899079
0.899867
0.899522
0.898759
0.897789
0.89672
0.895357
0.894239
0.893997
0.896925
0.90633
0.928348
0.975489
1.06067
1.17925
1.3291
1.48166
1.52551
1.54277
1.57275
1.61187
1.62519
1.62298
1.60753
1.58442
1.57738
1.578
1.58335
1.58394
1.58006
1.57235
1.5669
1.56544
1.56822
1.57302
1.57466
1.57363
1.57109
1.56847
1.56663
1.56492
1.56234
1.55917
1.55513
1.55081
1.54756
1.54525
1.54375
1.54338
1.54361
1.54339
1.54304
1.54312
1.54318
1.54211
1.53993
1.53557
1.527
1.51931
1.5167
1.51644
1.52004
1.52977
1.54003
1.54337
1.5436
1.54306
1.54109
1.53581
1.5245
1.51096
1.505
1.50308
1.5021
1.50274
1.50907
1.52027
1.52663
1.52804
1.52711
1.52452
1.51874
1.50777
1.49502
1.48899
1.48777
1.48959
1.49537
1.50646
1.51629
1.52076
1.52221
1.52215
1.52056
1.5153
1.50566
1.49882
1.4967
1.49553
1.49454
1.49412
1.49434
1.49609
1.49891
1.50116
1.50115
1.49889
1.49144
1.47516
1.45808
1.45102
1.44894
1.44838
1.45134
1.45878
1.46336
1.46475
1.46475
1.46379
1.46102
1.45656
1.45501
1.45501
1.45855
1.4659
1.47132
1.4716
1.4679
1.45942
1.45252
1.45015
1.44912
1.4494
1.4511
1.45431
1.45603
1.45552
1.45379
1.44931
1.43921
1.42713
1.42138
1.42059
1.42469
1.43373
1.44024
1.44107
1.43854
1.43559
1.43312
1.43074
1.42814
1.42513
1.4217
1.41386
0.921581
0.921271
0.920999
0.920816
0.921311
0.924063
0.929062
0.931579
0.931165
0.930391
0.929443
0.927842
0.924821
0.921228
0.919549
0.919021
0.918564
0.918052
0.917633
0.917466
0.917532
0.917973
0.918584
0.918949
0.91909
0.918652
0.916877
0.91543
0.915322
0.915545
0.916214
0.917647
0.919974
0.922264
0.923247
0.92363
0.923905
0.923971
0.923002
0.919934
0.916589
0.915315
0.914922
0.914639
0.914595
0.915914
0.919883
0.924998
0.927162
0.927073
0.926532
0.924668
0.920671
0.914374
0.910249
0.909317
0.909192
0.909721
0.911563
0.913934
0.91556
0.916057
0.916116
0.915634
0.914067
0.912556
0.912036
0.911879
0.912029
0.912539
0.912488
0.912165
0.911613
0.910223
0.907289
0.904559
0.903536
0.903099
0.902926
0.903795
0.906988
0.910963
0.912858
0.913171
0.913155
0.91309
0.912521
0.910333
0.906984
0.905559
0.905365
0.90533
0.90558
0.905323
0.904698
0.903817
0.902678
0.901901
0.901468
0.901108
0.900856
0.90075
0.90109
0.902418
0.903614
0.90342
0.902851
0.902156
0.902189
0.904316
0.912865
0.936015
0.976195
1.03358
1.10987
1.19516
1.29181
1.40488
1.5145
1.56477
1.58657
1.60348
1.61591
1.62155
1.61975
1.61594
1.61296
1.60614
1.59355
1.58591
1.58208
1.58091
1.5825
1.58299
1.5828
1.58383
1.58628
1.58713
1.58472
1.58169
1.57865
1.57586
1.57328
1.5707
1.56741
1.56453
1.56292
1.56087
1.55815
1.55603
1.55449
1.55322
1.55197
1.55083
1.55012
1.55002
1.55037
1.55036
1.54913
1.5468
1.542
1.53262
1.52412
1.52103
1.52036
1.52394
1.53447
1.54616
1.55256
1.55472
1.55415
1.55168
1.5455
1.53045
1.51218
1.50436
1.50221
1.5015
1.5035
1.51131
1.5233
1.53053
1.53294
1.53286
1.53099
1.52632
1.51585
1.5016
1.4942
1.49288
1.49487
1.50187
1.51519
1.52608
1.53033
1.5307
1.52971
1.52722
1.52042
1.50822
1.49874
1.49538
1.494
1.49364
1.49538
1.49876
1.50304
1.5075
1.51031
1.51015
1.50776
1.50086
1.48481
1.46501
1.45505
1.45265
1.45319
1.45987
1.46832
1.4712
1.47066
1.46936
1.46749
1.46301
1.45683
1.455
1.45511
1.45856
1.46697
1.47376
1.47431
1.47118
1.4629
1.45455
1.45108
1.44899
1.44751
1.44754
1.45138
1.456
1.4578
1.45824
1.45707
1.45251
1.44515
1.4402
1.43921
1.44011
1.44115
1.44196
1.44164
1.4392
1.43698
1.43552
1.43437
1.43231
1.43031
1.42384
0.925695
0.925466
0.925394
0.92595
0.928538
0.933818
0.937874
0.937931
0.937144
0.936061
0.934187
0.930481
0.925553
0.922586
0.921663
0.921128
0.920756
0.920587
0.920591
0.92082
0.921401
0.92227
0.922755
0.922862
0.922349
0.920237
0.917923
0.917365
0.917498
0.91793
0.918986
0.921181
0.924346
0.926682
0.927392
0.927647
0.927706
0.926646
0.92313
0.918694
0.917045
0.916833
0.916741
0.916956
0.918437
0.922564
0.92865
0.931999
0.932041
0.931381
0.929266
0.924749
0.917599
0.912528
0.911327
0.911142
0.911528
0.913498
0.916175
0.917696
0.918036
0.918009
0.917524
0.915897
0.914052
0.913418
0.913353
0.913551
0.914535
0.915427
0.915377
0.915043
0.91415
0.911653
0.907893
0.90575
0.905128
0.904772
0.904743
0.906478
0.910967
0.914658
0.915313
0.915191
0.915103
0.91491
0.913776
0.910825
0.90858
0.908397
0.908442
0.908679
0.908575
0.908079
0.907176
0.905804
0.904617
0.904048
0.903617
0.903255
0.903052
0.90313
0.903787
0.905013
0.906348
0.90699
0.908419
0.913675
0.927937
0.962192
1.0184
1.09261
1.1724
1.24403
1.31278
1.38448
1.4616
1.50311
1.55362
1.61471
1.63768
1.63949
1.63068
1.62217
1.62105
1.62511
1.62832
1.62453
1.60881
1.58773
1.58032
1.58008
1.58861
1.59978
1.60228
1.60049
1.59795
1.59605
1.59458
1.592
1.58836
1.58358
1.57795
1.5729
1.57031
1.56915
1.56944
1.57072
1.56974
1.56809
1.56684
1.5649
1.5622
1.55978
1.55793
1.55681
1.55636
1.5563
1.55613
1.55511
1.5528
1.5479
1.53801
1.52842
1.52503
1.52555
1.53415
1.55007
1.56017
1.56165
1.56044
1.55838
1.55494
1.54726
1.53192
1.51424
1.50569
1.50349
1.50381
1.5083
1.51601
1.52669
1.53402
1.53657
1.53719
1.53595
1.53213
1.52222
1.50763
1.50022
1.49942
1.50323
1.5121
1.52564
1.53396
1.5347
1.53345
1.53126
1.52718
1.51893
1.50688
1.4987
1.49657
1.49651
1.49994
1.50509
1.50879
1.5119
1.51522
1.51747
1.5171
1.51468
1.50893
1.49624
1.47818
1.46656
1.4634
1.46416
1.47027
1.47513
1.47532
1.47335
1.47075
1.46718
1.46077
1.45539
1.45462
1.45576
1.4609
1.47201
1.478
1.47746
1.47286
1.46235
1.45254
1.44847
1.44627
1.44485
1.44548
1.45129
1.4588
1.46408
1.46831
1.47006
1.46872
1.46194
1.45153
1.44467
1.44206
1.44086
1.44235
1.44339
1.4417
1.44028
1.43989
1.43873
1.43694
1.43081
0.930736
0.930754
0.931274
0.933125
0.937408
0.942478
0.943629
0.942946
0.941867
0.940193
0.936887
0.931457
0.926907
0.925317
0.924628
0.924139
0.923989
0.924388
0.925058
0.925636
0.926258
0.92666
0.926644
0.925878
0.923508
0.92069
0.919714
0.919852
0.920274
0.921101
0.922981
0.926346
0.929766
0.931126
0.931397
0.931439
0.930287
0.926532
0.920993
0.918229
0.918031
0.918278
0.91896
0.920673
0.924982
0.932027
0.937109
0.937682
0.937087
0.934984
0.930039
0.92209
0.915626
0.913951
0.913643
0.913759
0.915593
0.918741
0.920348
0.920452
0.920294
0.919878
0.91835
0.916111
0.915127
0.915086
0.915258
0.916125
0.917506
0.91795
0.917753
0.917141
0.915411
0.911875
0.908578
0.907528
0.907156
0.906886
0.907211
0.910029
0.915177
0.917898
0.917969
0.917793
0.917626
0.917123
0.915159
0.912028
0.911073
0.911125
0.911364
0.911198
0.910539
0.909568
0.908489
0.907457
0.906652
0.906014
0.905542
0.905222
0.905158
0.905544
0.906367
0.907697
0.91084
0.920495
0.944618
0.995104
1.06598
1.14904
1.22393
1.28872
1.31822
1.36407
1.43744
1.49762
1.5278
1.56181
1.60185
1.63461
1.64287
1.64281
1.63985
1.63596
1.63482
1.6342
1.63236
1.62805
1.61835
1.60352
1.59601
1.59564
1.60164
1.6095
1.61193
1.61112
1.60986
1.60951
1.60767
1.6041
1.59863
1.58925
1.57973
1.5757
1.57405
1.57322
1.57386
1.57664
1.57893
1.57989
1.58077
1.57958
1.5759
1.57083
1.56628
1.56369
1.56186
1.56083
1.56039
1.56031
1.56018
1.5585
1.55438
1.54601
1.53876
1.53661
1.53984
1.55293
1.56292
1.56446
1.56335
1.56137
1.55859
1.55461
1.54815
1.5369
1.52224
1.51303
1.51023
1.50999
1.51377
1.51977
1.52815
1.53563
1.53932
1.54137
1.54126
1.5388
1.53051
1.51727
1.51046
1.50972
1.51298
1.51922
1.52843
1.53448
1.53394
1.53214
1.52991
1.52653
1.52068
1.5125
1.50702
1.50607
1.50797
1.51216
1.51376
1.51407
1.51567
1.5201
1.52361
1.52405
1.52239
1.51895
1.51084
1.49564
1.48118
1.47567
1.47404
1.47458
1.47648
1.47678
1.47458
1.47138
1.46713
1.46039
1.4558
1.45614
1.45998
1.46771
1.47797
1.47973
1.47718
1.47021
1.4579
1.44885
1.44618
1.44499
1.44535
1.45021
1.4587
1.4675
1.47355
1.47696
1.47754
1.47507
1.46601
1.453
1.44597
1.44367
1.44307
1.44585
1.44598
1.44457
1.44414
1.44354
1.44203
1.43562
0.936719
0.937221
0.938509
0.940948
0.944908
0.947884
0.947803
0.946934
0.945524
0.94296
0.93813
0.93245
0.929794
0.929003
0.928469
0.928203
0.928515
0.929827
0.930914
0.93105
0.93089
0.930552
0.929384
0.926612
0.923511
0.922263
0.92237
0.922874
0.923741
0.925411
0.928702
0.932829
0.93495
0.935299
0.935301
0.934014
0.930171
0.923913
0.919483
0.918898
0.91929
0.920361
0.922411
0.926818
0.934584
0.941655
0.943353
0.94301
0.941202
0.936328
0.928007
0.919885
0.91738
0.916888
0.916706
0.917943
0.921389
0.923417
0.92339
0.923078
0.922621
0.921278
0.918836
0.917358
0.917213
0.917302
0.917955
0.919299
0.920097
0.920027
0.919569
0.918344
0.915607
0.911853
0.909951
0.909556
0.909293
0.909205
0.910371
0.914454
0.919543
0.921322
0.921289
0.921136
0.920855
0.91973
0.916472
0.913442
0.91301
0.91299
0.912857
0.912299
0.911287
0.910314
0.909764
0.909331
0.90877
0.908026
0.907594
0.907529
0.907866
0.90936
0.913742
0.92682
0.958276
1.0183
1.10603
1.19542
1.27745
1.34229
1.36799
1.37052
1.38791
1.44509
1.49622
1.54724
1.59388
1.61736
1.62461
1.63271
1.64672
1.65621
1.65742
1.65408
1.64272
1.63136
1.62763
1.62817
1.6294
1.62721
1.62094
1.61516
1.61341
1.61334
1.61759
1.62271
1.62453
1.62313
1.61995
1.61518
1.60721
1.59496
1.58503
1.58147
1.57945
1.57791
1.57734
1.57925
1.58442
1.59103
1.59456
1.59333
1.59022
1.58526
1.57811
1.57184
1.56843
1.56595
1.56416
1.56333
1.56393
1.56643
1.56779
1.56646
1.56315
1.55921
1.55734
1.55815
1.56184
1.56377
1.56375
1.56248
1.5607
1.55849
1.55586
1.55193
1.54414
1.53135
1.52104
1.51741
1.51616
1.51781
1.52245
1.5296
1.53738
1.54319
1.54733
1.54881
1.54759
1.54063
1.52735
1.51934
1.51782
1.51818
1.5207
1.5261
1.53124
1.53195
1.53147
1.53099
1.53018
1.52789
1.52325
1.51963
1.51919
1.52002
1.51917
1.51736
1.51643
1.51826
1.52566
1.53202
1.53342
1.53207
1.52961
1.52339
1.50842
1.4894
1.48004
1.47705
1.47567
1.47634
1.47833
1.47748
1.47527
1.47213
1.46716
1.46374
1.46386
1.46738
1.47275
1.47747
1.47734
1.47387
1.46708
1.45818
1.45213
1.45009
1.44977
1.45343
1.45952
1.46391
1.46888
1.47462
1.47746
1.47736
1.47459
1.46644
1.4564
1.45107
1.44942
1.44985
1.4503
1.44879
1.44761
1.44618
1.4439
1.4381
0.943281
0.94386
0.945219
0.947254
0.950071
0.951915
0.951666
0.950753
0.948932
0.945075
0.938976
0.934773
0.933689
0.93318
0.932892
0.933185
0.934865
0.936686
0.936821
0.936313
0.935477
0.933668
0.93015
0.926581
0.925141
0.925065
0.925419
0.926402
0.928156
0.931368
0.935928
0.938932
0.939486
0.939434
0.938027
0.934074
0.927419
0.921508
0.920111
0.920326
0.921341
0.923571
0.928053
0.936155
0.94493
0.948307
0.948361
0.947191
0.942907
0.934789
0.925184
0.921532
0.920838
0.920409
0.920848
0.923975
0.926806
0.926886
0.926465
0.925951
0.92473
0.922148
0.920057
0.919687
0.91968
0.920067
0.921219
0.922188
0.922246
0.921938
0.921082
0.91915
0.915677
0.9127
0.911962
0.911708
0.911524
0.911849
0.914327
0.9196
0.924006
0.924941
0.924865
0.924679
0.924003
0.921419
0.916735
0.914276
0.913928
0.913648
0.913188
0.912511
0.911884
0.911454
0.911296
0.911523
0.911262
0.910786
0.911006
0.912705
0.919524
0.940409
0.984408
1.05382
1.14729
1.23055
1.29719
1.35256
1.40213
1.4076
1.40607
1.41778
1.45646
1.49473
1.53996
1.60968
1.63946
1.63839
1.6391
1.64353
1.65681
1.6685
1.66683
1.65975
1.6444
1.63269
1.63014
1.63256
1.64179
1.64368
1.64023
1.63287
1.62826
1.62734
1.63062
1.63569
1.63532
1.63274
1.62907
1.62356
1.61541
1.60474
1.59488
1.58924
1.58613
1.58406
1.58285
1.58347
1.58924
1.59874
1.60426
1.6038
1.60187
1.59872
1.59283
1.5836
1.57592
1.57175
1.56902
1.56696
1.56618
1.56922
1.57624
1.58235
1.58404
1.58228
1.57649
1.56846
1.56425
1.56278
1.56242
1.56309
1.56343
1.56299
1.56172
1.55988
1.557
1.55038
1.53792
1.52653
1.52226
1.52073
1.52169
1.52603
1.5327
1.54105
1.54975
1.55569
1.55763
1.55624
1.54843
1.53283
1.52252
1.51986
1.51854
1.51851
1.52296
1.52975
1.53286
1.5348
1.53713
1.53875
1.53836
1.53547
1.53119
1.52795
1.52514
1.52219
1.52054
1.52063
1.52563
1.53536
1.54138
1.54191
1.53993
1.53667
1.52919
1.5124
1.49135
1.48116
1.47823
1.47707
1.47923
1.48385
1.48551
1.48472
1.48284
1.47938
1.47481
1.47257
1.47263
1.47335
1.475
1.47516
1.47326
1.47052
1.46677
1.4632
1.46112
1.46041
1.46099
1.46187
1.46269
1.46578
1.47233
1.47703
1.47746
1.47601
1.47209
1.46586
1.46053
1.45739
1.45517
1.45238
1.44881
1.44589
1.4432
1.43994
0.949266
0.949414
0.950188
0.951792
0.954295
0.955983
0.955805
0.954913
0.952402
0.946692
0.940651
0.938627
0.938082
0.937713
0.937766
0.939434
0.942253
0.942997
0.942478
0.941439
0.939292
0.935041
0.930509
0.928675
0.928403
0.9284
0.92905
0.930805
0.934023
0.938861
0.942778
0.943793
0.94379
0.942459
0.938439
0.931498
0.924428
0.922172
0.922042
0.922506
0.924365
0.928673
0.936787
0.946756
0.951894
0.952546
0.952142
0.949003
0.941836
0.931358
0.926115
0.925136
0.924584
0.92447
0.926614
0.930195
0.930818
0.930358
0.929825
0.928779
0.926205
0.923373
0.922559
0.922462
0.922535
0.923272
0.924312
0.924501
0.924283
0.923748
0.922601
0.92008
0.916413
0.914623
0.914282
0.914044
0.913965
0.915019
0.918925
0.924809
0.928005
0.928341
0.928234
0.927877
0.926229
0.921671
0.916593
0.914842
0.914368
0.9139
0.913369
0.913011
0.912779
0.912826
0.913788
0.914932
0.915756
0.918593
0.928479
0.9561
1.01029
1.0918
1.1896
1.27953
1.33689
1.37227
1.40612
1.41935
1.41287
1.41714
1.43621
1.4705
1.50811
1.5521
1.60209
1.63886
1.655
1.65653
1.65825
1.66094
1.66495
1.6683
1.66635
1.65997
1.65014
1.64297
1.64081
1.64072
1.64594
1.65275
1.65375
1.65111
1.6482
1.64697
1.64721
1.64588
1.64302
1.63999
1.63611
1.63019
1.62241
1.61425
1.60668
1.60073
1.59676
1.59428
1.59309
1.59321
1.59652
1.60365
1.61038
1.61197
1.61095
1.60874
1.60425
1.59507
1.58494
1.5798
1.57689
1.57449
1.57288
1.57397
1.58195
1.59251
1.59728
1.59693
1.59371
1.58514
1.57275
1.56567
1.56375
1.56372
1.56593
1.56758
1.56729
1.5657
1.56361
1.56058
1.55427
1.54255
1.53109
1.52668
1.52536
1.5267
1.5318
1.53854
1.54708
1.55744
1.563
1.56365
1.56095
1.55088
1.53291
1.52169
1.51899
1.51795
1.51893
1.52601
1.53409
1.53824
1.54151
1.54494
1.54716
1.54705
1.54423
1.5389
1.53422
1.53081
1.52874
1.52755
1.52876
1.53394
1.54253
1.54687
1.54588
1.54274
1.53782
1.52909
1.51328
1.49496
1.48587
1.48315
1.48255
1.48715
1.49473
1.49821
1.49732
1.49487
1.49042
1.48227
1.47577
1.474
1.47331
1.4752
1.47874
1.47897
1.47759
1.47514
1.47004
1.4644
1.46227
1.46091
1.45995
1.45977
1.463
1.4708
1.47773
1.48167
1.48333
1.48199
1.47542
1.46489
1.45721
1.45248
1.4479
1.44461
1.44311
1.44302
0.953592
0.953529
0.953996
0.955806
0.958814
0.960397
0.960215
0.95908
0.954896
0.947732
0.943853
0.943112
0.942673
0.942497
0.943595
0.946831
0.948704
0.948525
0.947684
0.94561
0.941167
0.935611
0.933023
0.932585
0.932388
0.932533
0.933773
0.936713
0.941515
0.946135
0.947779
0.947972
0.947099
0.943306
0.936322
0.92827
0.92508
0.924635
0.924621
0.925588
0.929083
0.936636
0.947199
0.954066
0.955449
0.955605
0.953991
0.948409
0.938134
0.930907
0.929332
0.928774
0.92842
0.929607
0.933322
0.934904
0.934524
0.933994
0.933138
0.930821
0.927493
0.926016
0.925777
0.925681
0.925901
0.926757
0.927129
0.92693
0.92654
0.925872
0.924418
0.921182
0.917908
0.917044
0.916769
0.916562
0.916732
0.918798
0.923967
0.929457
0.931281
0.931327
0.931173
0.930341
0.927072
0.921021
0.916596
0.915442
0.91486
0.914377
0.91405
0.913945
0.914337
0.916316
0.919617
0.92645
0.943142
0.981206
1.04571
1.13165
1.2201
1.30416
1.34882
1.38748
1.42384
1.43673
1.4352
1.42011
1.42083
1.43796
1.47369
1.51751
1.57247
1.61088
1.63451
1.65832
1.67526
1.6779
1.67599
1.67035
1.66568
1.66377
1.66439
1.66374
1.66032
1.65429
1.64933
1.64717
1.64719
1.65565
1.66651
1.67031
1.66943
1.66661
1.66193
1.65629
1.65126
1.64692
1.64165
1.63474
1.6279
1.62344
1.61984
1.61553
1.61106
1.60764
1.6057
1.60518
1.60633
1.6106
1.61621
1.61859
1.61799
1.61579
1.61138
1.60316
1.5938
1.58951
1.58722
1.58507
1.58344
1.58335
1.58749
1.59632
1.60369
1.60529
1.60439
1.60058
1.59131
1.57774
1.5696
1.5674
1.56696
1.56924
1.57104
1.57044
1.56863
1.56648
1.56367
1.55835
1.54807
1.53734
1.53333
1.53234
1.53401
1.53961
1.54578
1.55246
1.56141
1.56565
1.56509
1.56121
1.55049
1.53318
1.52189
1.51936
1.51967
1.5246
1.53325
1.54012
1.54408
1.5474
1.5503
1.55243
1.55264
1.55065
1.54629
1.54183
1.53842
1.53633
1.53491
1.53509
1.53724
1.54377
1.54748
1.54569
1.54225
1.53766
1.53064
1.51883
1.50436
1.49657
1.49439
1.49407
1.49873
1.50636
1.50933
1.50753
1.50403
1.4974
1.48651
1.4797
1.47824
1.47898
1.48406
1.48625
1.48486
1.48253
1.4779
1.46841
1.46148
1.45941
1.45801
1.45727
1.45862
1.46559
1.47699
1.48695
1.48975
1.48905
1.48577
1.47585
1.46006
1.45083
1.4475
1.44537
1.44426
1.44651
0.956851
0.956783
0.957683
0.960664
0.964161
0.965037
0.964657
0.962264
0.955598
0.949189
0.947725
0.947255
0.946973
0.947664
0.950887
0.953865
0.954054
0.953547
0.952005
0.947945
0.941827
0.938084
0.937374
0.937038
0.936952
0.937638
0.939983
0.944251
0.949112
0.951366
0.951749
0.95141
0.94839
0.94196
0.933075
0.928707
0.927919
0.9277
0.927978
0.930311
0.93659
0.946758
0.955027
0.957392
0.957894
0.957549
0.953982
0.945016
0.935887
0.93326
0.93274
0.932334
0.932901
0.936201
0.938857
0.938739
0.938196
0.937432
0.935424
0.932094
0.930113
0.929668
0.929448
0.929378
0.929824
0.930445
0.930309
0.929957
0.929455
0.928497
0.925977
0.92186
0.919751
0.919372
0.919123
0.919023
0.919809
0.923235
0.929197
0.933319
0.934047
0.933992
0.933656
0.931843
0.926753
0.919977
0.916994
0.916235
0.915762
0.915449
0.915405
0.916648
0.920829
0.93222
0.957054
1.00769
1.08607
1.17703
1.26657
1.34826
1.3725
1.38771
1.4104
1.43678
1.44435
1.44236
1.43139
1.43003
1.44199
1.47155
1.518
1.58277
1.62339
1.64524
1.6619
1.67668
1.68514
1.68475
1.68103
1.67384
1.66741
1.6645
1.66409
1.66719
1.66663
1.66285
1.65801
1.65564
1.65498
1.66036
1.67176
1.68097
1.68432
1.68259
1.67816
1.67103
1.66171
1.65313
1.64521
1.63879
1.63546
1.63313
1.63248
1.63087
1.62757
1.624
1.62064
1.61874
1.61872
1.62105
1.62365
1.62368
1.6224
1.61978
1.61549
1.60919
1.60232
1.59918
1.59729
1.59558
1.5942
1.5934
1.59405
1.59831
1.60571
1.61048
1.61093
1.60997
1.60589
1.59625
1.58266
1.57449
1.57183
1.57072
1.57207
1.57393
1.5734
1.57193
1.57041
1.5685
1.56445
1.55541
1.54633
1.54354
1.5429
1.54392
1.54728
1.55081
1.5548
1.56186
1.56608
1.56565
1.56248
1.55458
1.54217
1.53137
1.52747
1.52797
1.53323
1.53869
1.5422
1.54532
1.54938
1.55328
1.55629
1.55785
1.55719
1.55393
1.54891
1.54361
1.53995
1.53784
1.53654
1.5369
1.54291
1.54685
1.54563
1.54341
1.54094
1.5369
1.52831
1.51569
1.50881
1.50693
1.50622
1.50854
1.51472
1.51732
1.51533
1.51137
1.50415
1.49511
1.4908
1.48956
1.49026
1.49101
1.48922
1.48624
1.48145
1.47342
1.46431
1.45947
1.4578
1.45713
1.45847
1.46581
1.4783
1.48772
1.48978
1.48889
1.48694
1.48181
1.46887
1.45448
1.44961
1.44785
1.44694
1.4527
0.959664
0.959975
0.962578
0.96734
0.969944
0.969978
0.968812
0.963548
0.955128
0.951579
0.951012
0.95069
0.951088
0.954161
0.958554
0.959594
0.959219
0.958104
0.954934
0.948988
0.943893
0.942561
0.94211
0.941833
0.942099
0.943915
0.947456
0.951796
0.954649
0.955259
0.955244
0.953199
0.947892
0.939038
0.933298
0.931813
0.931446
0.93136
0.93271
0.937712
0.946742
0.955315
0.958729
0.959551
0.959888
0.958197
0.95129
0.941284
0.936987
0.936426
0.936081
0.936388
0.939116
0.942427
0.942845
0.942317
0.941513
0.939651
0.936503
0.93445
0.933922
0.933624
0.933446
0.933602
0.934401
0.934555
0.934227
0.933739
0.932893
0.930651
0.926148
0.922504
0.921689
0.92138
0.92117
0.921359
0.923344
0.928411
0.934259
0.936512
0.93663
0.936506
0.935696
0.932315
0.925291
0.919544
0.918
0.917616
0.917498
0.918232
0.922373
0.938119
0.972665
1.03594
1.12013
1.21202
1.29148
1.3672
1.4016
1.41774
1.42614
1.43792
1.44219
1.44182
1.43962
1.43896
1.4421
1.45343
1.47829
1.52069
1.57767
1.63359
1.66533
1.67469
1.67898
1.68082
1.6823
1.68309
1.68123
1.67895
1.67412
1.6686
1.66656
1.66642
1.6695
1.6701
1.66768
1.66544
1.66451
1.66578
1.67341
1.68546
1.69328
1.69338
1.69014
1.68389
1.67242
1.65893
1.65083
1.64723
1.64454
1.64253
1.64227
1.64371
1.64302
1.64119
1.63879
1.6358
1.63402
1.63291
1.63104
1.62884
1.62577
1.62203
1.61843
1.61495
1.61123
1.60864
1.60676
1.60518
1.6039
1.60281
1.60214
1.60309
1.6077
1.61358
1.6154
1.6152
1.61345
1.60836
1.59824
1.58603
1.57937
1.57653
1.57492
1.57557
1.57822
1.57879
1.57799
1.57705
1.57562
1.57195
1.56305
1.55562
1.55362
1.55249
1.55166
1.5518
1.55341
1.55624
1.56271
1.56784
1.56886
1.56804
1.5654
1.55892
1.54858
1.5404
1.53855
1.53914
1.5404
1.54136
1.54372
1.54871
1.55494
1.55979
1.56242
1.56235
1.55936
1.55231
1.544
1.53939
1.53717
1.53577
1.53649
1.54439
1.55028
1.55067
1.54972
1.54833
1.54528
1.53683
1.52364
1.5169
1.51482
1.51344
1.51467
1.52117
1.52469
1.52342
1.52067
1.51526
1.5073
1.50074
1.49724
1.49495
1.49212
1.48822
1.48316
1.47763
1.47261
1.46822
1.46533
1.46433
1.4651
1.46981
1.47602
1.48011
1.48371
1.48586
1.48524
1.4835
1.47802
1.46725
1.45893
1.45602
1.45589
1.46254
0.962672
0.964572
0.970266
0.975005
0.975695
0.975127
0.971261
0.962419
0.955537
0.954364
0.953988
0.954005
0.956273
0.961689
0.964762
0.964691
0.963948
0.961581
0.956447
0.950713
0.948272
0.947576
0.947129
0.947033
0.948207
0.951181
0.954621
0.957319
0.958428
0.958615
0.95752
0.953467
0.945526
0.939067
0.93662
0.935982
0.935587
0.936006
0.939813
0.948039
0.956144
0.959925
0.961034
0.961701
0.961369
0.956853
0.947004
0.940762
0.939834
0.939599
0.939891
0.942224
0.945684
0.946634
0.946158
0.945277
0.943485
0.940504
0.93845
0.938026
0.9378
0.937655
0.937782
0.938663
0.93948
0.939308
0.938845
0.938045
0.936022
0.931326
0.92595
0.924005
0.923559
0.923218
0.92309
0.923987
0.927758
0.934212
0.938561
0.939264
0.939177
0.93885
0.937046
0.931568
0.923843
0.920339
0.92023
0.92104
0.925233
0.942994
0.986187
1.06547
1.16219
1.25477
1.32928
1.38841
1.40013
1.41358
1.43659
1.45344
1.4564
1.45445
1.44494
1.43931
1.43969
1.44765
1.46315
1.48962
1.53299
1.58545
1.63901
1.67897
1.68825
1.6848
1.68223
1.68178
1.68397
1.68606
1.68584
1.68397
1.6801
1.67369
1.66954
1.66813
1.66958
1.67519
1.67697
1.67512
1.67372
1.67377
1.67846
1.68847
1.69586
1.69717
1.69531
1.69074
1.68235
1.67053
1.66069
1.65596
1.65312
1.65075
1.64959
1.65153
1.65587
1.65861
1.65889
1.65686
1.6526
1.64635
1.64021
1.63504
1.62917
1.62374
1.62095
1.61978
1.61898
1.61707
1.61506
1.61353
1.61236
1.61159
1.61087
1.61068
1.61252
1.61631
1.6181
1.61779
1.61656
1.61366
1.60774
1.59781
1.58857
1.5845
1.58226
1.58098
1.58264
1.58666
1.58769
1.58708
1.58619
1.58453
1.57937
1.56898
1.56279
1.56053
1.5584
1.55622
1.55493
1.55519
1.55861
1.56584
1.57378
1.57889
1.58049
1.57956
1.57516
1.5633
1.54817
1.54243
1.54101
1.54009
1.54008
1.54256
1.54842
1.55627
1.56283
1.56574
1.56531
1.56098
1.55131
1.54178
1.53781
1.53622
1.53601
1.54084
1.55177
1.5573
1.55785
1.55682
1.55493
1.55057
1.54014
1.52675
1.52056
1.51851
1.51748
1.52111
1.53127
1.5365
1.5359
1.5335
1.52806
1.51771
1.50705
1.50009
1.49474
1.4896
1.48435
1.48114
1.4796
1.4781
1.47632
1.47479
1.47408
1.47417
1.47467
1.47473
1.47484
1.4768
1.48189
1.48488
1.48457
1.48202
1.4775
1.47355
1.47195
1.47262
0.967553
0.973447
0.980105
0.981689
0.981356
0.978446
0.970288
0.960387
0.957598
0.957167
0.956977
0.958048
0.962774
0.968342
0.969514
0.96914
0.967625
0.963537
0.957734
0.954488
0.953527
0.952924
0.952594
0.953073
0.955406
0.958143
0.95995
0.961052
0.961432
0.961089
0.95834
0.951572
0.944991
0.942247
0.941327
0.940689
0.940445
0.942487
0.949897
0.958334
0.961809
0.962839
0.963518
0.96384
0.96142
0.95295
0.945024
0.943196
0.943049
0.943314
0.94535
0.948726
0.949994
0.949524
0.948557
0.946805
0.944044
0.941984
0.941592
0.941511
0.941594
0.941941
0.942927
0.944498
0.944877
0.944522
0.94376
0.941971
0.937506
0.930925
0.926978
0.926078
0.925583
0.925246
0.925387
0.927697
0.933675
0.939768
0.941728
0.941728
0.941542
0.940762
0.937352
0.929744
0.924477
0.925062
0.930838
0.951361
0.998058
1.08463
1.18527
1.2807
1.35754
1.41714
1.42781
1.43154
1.43563
1.44575
1.45681
1.45915
1.45626
1.4509
1.44702
1.4466
1.45046
1.46414
1.49328
1.5423
1.60135
1.65501
1.69191
1.69069
1.68955
1.69038
1.68994
1.69055
1.69138
1.68991
1.68837
1.68638
1.68407
1.68078
1.67748
1.67589
1.67541
1.67763
1.68238
1.6847
1.6843
1.68457
1.68756
1.69141
1.69337
1.69508
1.69624
1.69511
1.69153
1.6846
1.67362
1.66435
1.66036
1.65796
1.65672
1.65959
1.66773
1.67395
1.67533
1.67384
1.67045
1.66372
1.65257
1.64181
1.63396
1.62873
1.626
1.62445
1.62464
1.62476
1.62285
1.62119
1.62019
1.61983
1.61963
1.61912
1.61887
1.61936
1.61964
1.61891
1.61779
1.61597
1.61248
1.60573
1.59674
1.59189
1.59003
1.58877
1.5892
1.59375
1.59748
1.59786
1.59698
1.59555
1.5925
1.58396
1.57286
1.5676
1.56504
1.5625
1.56013
1.55874
1.55979
1.56739
1.57896
1.58787
1.59197
1.59233
1.59081
1.58594
1.57141
1.55128
1.54242
1.54045
1.53944
1.53948
1.54233
1.54868
1.55755
1.56484
1.56689
1.56576
1.56031
1.55013
1.54185
1.53904
1.53829
1.54167
1.55034
1.55874
1.5618
1.56142
1.56011
1.5573
1.55154
1.54069
1.52947
1.525
1.52365
1.52479
1.5343
1.54527
1.54719
1.54509
1.54135
1.53332
1.51938
1.50724
1.49984
1.495
1.4924
1.49064
1.48942
1.48866
1.48687
1.48357
1.47832
1.47502
1.47322
1.47185
1.47105
1.47113
1.47448
1.48213
1.48934
1.49578
1.50041
1.50017
1.4933
1.47788
0.978009
0.985975
0.988303
0.987962
0.985277
0.977712
0.966001
0.960733
0.960063
0.959789
0.960136
0.963276
0.969603
0.973376
0.973639
0.973118
0.970506
0.964877
0.960498
0.959508
0.959051
0.958638
0.958659
0.960166
0.962343
0.963367
0.963811
0.964083
0.963959
0.962242
0.957113
0.949978
0.947436
0.94693
0.946329
0.945781
0.946454
0.951941
0.960785
0.964908
0.965538
0.965876
0.9662
0.964809
0.958518
0.950089
0.947142
0.94692
0.946955
0.948319
0.951355
0.952866
0.952375
0.951336
0.949665
0.947157
0.945053
0.944613
0.944613
0.944931
0.945637
0.946868
0.94898
0.950453
0.950355
0.949727
0.948143
0.944098
0.93736
0.931363
0.929304
0.928584
0.928043
0.927784
0.92879
0.933628
0.940592
0.943865
0.944035
0.943935
0.943623
0.942346
0.936059
0.932228
0.937952
0.962982
1.01894
1.11234
1.21679
1.30667
1.37137
1.4256
1.4385
1.44245
1.4496
1.45939
1.46269
1.46029
1.45721
1.45676
1.45826
1.45778
1.4569
1.4578
1.46509
1.49214
1.54328
1.60696
1.67996
1.70257
1.70202
1.70063
1.70058
1.70328
1.70217
1.6982
1.69413
1.69116
1.68934
1.689
1.68885
1.68816
1.68658
1.68471
1.68317
1.68214
1.68433
1.69095
1.69477
1.69556
1.69509
1.69355
1.69232
1.69167
1.69369
1.69779
1.69717
1.69329
1.68553
1.67546
1.66948
1.66689
1.66589
1.66939
1.67844
1.68533
1.68682
1.68509
1.68203
1.67693
1.66626
1.65195
1.64208
1.63719
1.63408
1.63156
1.63019
1.63143
1.63159
1.62994
1.62882
1.6285
1.62839
1.62727
1.62505
1.62251
1.62117
1.62024
1.61945
1.61832
1.616
1.61136
1.6044
1.59957
1.59777
1.59664
1.59678
1.60029
1.60439
1.60568
1.6051
1.6037
1.60161
1.59683
1.5872
1.57789
1.57286
1.5705
1.56934
1.56853
1.57044
1.57802
1.58759
1.5947
1.59862
1.59967
1.59875
1.59647
1.59048
1.5756
1.55532
1.54354
1.54054
1.53979
1.54082
1.54383
1.5489
1.55716
1.56494
1.56688
1.56591
1.5613
1.55391
1.54851
1.54665
1.54685
1.55096
1.55488
1.558
1.56121
1.56138
1.56034
1.55809
1.55315
1.54454
1.53729
1.53507
1.53484
1.53881
1.54787
1.55317
1.55228
1.54906
1.54303
1.53059
1.51553
1.50938
1.50731
1.50568
1.50449
1.50337
1.50122
1.49797
1.49259
1.48309
1.47488
1.4721
1.47051
1.46939
1.46908
1.47114
1.47875
1.49296
1.50944
1.51607
1.51557
1.51159
1.48969
0.992356
0.995574
0.995219
0.992441
0.98516
0.972347
0.963941
0.96253
0.962136
0.962078
0.963943
0.969911
0.976173
0.977928
0.977995
0.977417
0.973631
0.967419
0.965246
0.964955
0.964698
0.964548
0.965126
0.966743
0.9673
0.967144
0.967022
0.966754
0.965382
0.961658
0.955206
0.951974
0.95163
0.951524
0.951312
0.95167
0.955212
0.963111
0.968387
0.969087
0.969124
0.969056
0.967769
0.963251
0.955413
0.95163
0.951475
0.951575
0.952198
0.953785
0.955203
0.954896
0.953854
0.952298
0.950044
0.947886
0.947272
0.947275
0.947648
0.948619
0.950158
0.952606
0.955218
0.955839
0.955486
0.954257
0.950792
0.944411
0.937091
0.933472
0.932327
0.931619
0.931094
0.931154
0.934238
0.941649
0.946209
0.946547
0.946358
0.946607
0.946026
0.94403
0.950452
0.976329
1.03592
1.13244
1.2412
1.32944
1.40209
1.45044
1.46221
1.45187
1.45127
1.4591
1.47108
1.47204
1.46743
1.45899
1.45637
1.45688
1.46313
1.46562
1.46752
1.47413
1.49757
1.54721
1.61353
1.67655
1.70599
1.71916
1.71916
1.71845
1.71681
1.71285
1.70831
1.70213
1.69764
1.69527
1.69383
1.69372
1.69402
1.69366
1.69276
1.69162
1.69049
1.6898
1.69176
1.69943
1.70491
1.70416
1.70083
1.6957
1.69252
1.69102
1.69047
1.69307
1.69823
1.69783
1.69451
1.68835
1.68292
1.67981
1.67863
1.68116
1.68777
1.6922
1.69227
1.6904
1.68767
1.68365
1.67662
1.66596
1.65485
1.64745
1.64337
1.64056
1.63854
1.63914
1.64171
1.64078
1.63907
1.63791
1.63656
1.63412
1.63056
1.62557
1.62243
1.62106
1.62053
1.62092
1.62025
1.6178
1.61362
1.60939
1.60682
1.60552
1.60531
1.60663
1.60855
1.60952
1.60922
1.60799
1.60653
1.60469
1.60079
1.594
1.5868
1.58173