/*--------------------------------*- C++ -*----------------------------------*\
  =========                 |
  \\      /  F ield         | OpenFOAM: The Open Source CFD Toolbox
   \\    /   O peration     | Website:  https://openfoam.org
    \\  /    A nd           | Version:  7
     \\/     M anipulation  |
\*---------------------------------------------------------------------------*/
FoamFile
{
    version     2.0;
    format      ascii;
    class       volVectorField;
    location    "2.1";
    object      U;
}
// * * * * * * * * * * * * * * * * * * * * * * * * * * * * * * * * * * * * * //

dimensions      [0 1 -1 0 0 0 0];

internalField   nonuniform List<vector> 
4128
(
(2.54521 -0.547843 0)
(2.46266 -0.657496 0)
(2.46058 -0.561794 0)
(2.51419 -0.456545 0)
(2.53644 -0.270307 0)
(2.55158 -0.188462 0)
(2.56533 -0.179537 0)
(2.56697 -0.160984 0)
(2.51814 -0.196064 0)
(2.52045 -0.197538 0)
(2.50391 -0.133518 0)
(2.4629 -0.113763 0)
(2.43804 -0.0907927 0)
(2.42271 -0.0586527 0)
(2.41928 -0.0344956 0)
(2.4049 -0.0322235 0)
(2.41075 -0.0423426 0)
(2.44185 -0.0329556 0)
(2.46612 -0.0202583 0)
(2.45517 -0.0236241 0)
(2.43806 -0.0278883 0)
(2.42533 -0.0327188 0)
(2.41677 -0.0360398 0)
(2.40876 -0.0342197 0)
(2.40444 -0.0242309 0)
(2.40239 -0.0120817 0)
(2.40195 -0.00632893 0)
(2.40549 -0.0104343 0)
(2.41053 -0.0174194 0)
(2.41435 -0.0214199 0)
(2.41571 -0.019264 0)
(2.41126 -0.0141778 0)
(2.40713 -0.00939062 0)
(2.40358 -0.00808687 0)
(2.40249 -0.00836048 0)
(2.40479 -0.00974481 0)
(2.40697 -0.0110496 0)
(2.40583 -0.00934064 0)
(2.40088 -0.00652739 0)
(2.39416 -0.00559015 0)
(2.38932 -0.0063443 0)
(2.38934 -0.00687253 0)
(2.3942 -0.00642578 0)
(2.40167 -0.00549062 0)
(2.40508 -0.00497359 0)
(2.40349 -0.00473013 0)
(2.40088 -0.00408387 0)
(2.39584 -0.00328745 0)
(2.39304 -0.00242463 0)
(2.39246 -0.00196728 0)
(2.39194 -0.000854758 0)
(2.39395 -0.00369048 0)
(1.94934 0.024355 0)
(0.946059 0.0355991 0)
(0.769368 0.0378937 0)
(0.679693 0.033759 0)
(0.603894 0.0317075 0)
(0.543597 0.0298115 0)
(0.49607 0.0276566 0)
(0.456837 0.0267232 0)
(0.42178 0.0259732 0)
(0.388512 0.0248437 0)
(0.356619 0.0232905 0)
(0.326941 0.0217694 0)
(0.300923 0.0203805 0)
(0.277843 0.0190482 0)
(0.256788 0.0174289 0)
(0.235846 0.0157738 0)
(0.213941 0.0143058 0)
(0.192799 0.0129702 0)
(0.174171 0.0116828 0)
(0.159364 0.0105289 0)
(0.147405 0.00976723 0)
(0.135639 0.00924238 0)
(0.12377 0.00884192 0)
(0.113217 0.00824383 0)
(0.104381 0.00765645 0)
(0.096199 0.00706365 0)
(0.0865443 0.0065456 0)
(0.0743961 0.00620449 0)
(0.0610245 0.0057869 0)
(0.0496474 0.00526155 0)
(0.0420871 0.00466478 0)
(0.0365816 0.00413315 0)
(0.030271 0.00380863 0)
(0.0226232 0.00362407 0)
(0.014085 0.00352612 0)
(0.00563855 0.00388552 0)
(3.02794 -0.615154 0)
(3.03073 -0.729097 0)
(3.02423 -0.777659 0)
(2.83779 -0.670318 0)
(2.70894 -0.510347 0)
(2.67508 -0.352639 0)
(2.67463 -0.294908 0)
(2.66827 -0.250323 0)
(2.66339 -0.221682 0)
(2.64348 -0.170389 0)
(2.60214 -0.105411 0)
(2.55516 -0.0628853 0)
(2.52747 -0.0688129 0)
(2.51875 -0.0582484 0)
(2.50752 -0.00755079 0)
(2.49605 0.00201416 0)
(2.4899 -0.0334402 0)
(2.50344 -0.0306017 0)
(2.51302 -0.0081722 0)
(2.49769 -0.0156755 0)
(2.48268 -0.0325519 0)
(2.48057 -0.0517547 0)
(2.47849 -0.0572305 0)
(2.46681 -0.0542908 0)
(2.45346 -0.036718 0)
(2.448 -0.00421174 0)
(2.44586 0.010831 0)
(2.44036 0.00556834 0)
(2.44078 -0.00865593 0)
(2.44731 -0.0210684 0)
(2.45198 -0.022497 0)
(2.44559 -0.0181129 0)
(2.43942 -0.0100126 0)
(2.43543 -0.00438612 0)
(2.43079 -0.00438848 0)
(2.42789 -0.00727435 0)
(2.42739 -0.0127337 0)
(2.42757 -0.0146916 0)
(2.4228 -0.0107674 0)
(2.418 -0.0055516 0)
(2.41573 -0.000655346 0)
(2.41571 0.00327476 0)
(2.41788 0.00589497 0)
(2.42129 0.00499133 0)
(2.42378 -0.000359703 0)
(2.42206 -0.00603976 0)
(2.41821 -0.00947284 0)
(2.41548 -0.0116263 0)
(2.41416 -0.0112176 0)
(2.4137 -0.00796101 0)
(2.41455 -0.00167784 0)
(2.41633 2.93966e-05 0)
(2.06678 0.106882 0)
(0.984544 0.156118 0)
(0.782158 0.130285 0)
(0.704558 0.102852 0)
(0.638365 0.0871226 0)
(0.584306 0.0776285 0)
(0.539633 0.0664377 0)
(0.50062 0.0528486 0)
(0.463685 0.0431136 0)
(0.428266 0.038764 0)
(0.394439 0.036334 0)
(0.362701 0.0343002 0)
(0.334713 0.0331876 0)
(0.309578 0.0329911 0)
(0.286031 0.0327209 0)
(0.262339 0.0310135 0)
(0.237978 0.0278253 0)
(0.214584 0.0242539 0)
(0.193829 0.021141 0)
(0.177064 0.018513 0)
(0.163502 0.0166947 0)
(0.150273 0.0159519 0)
(0.137102 0.0161565 0)
(0.125093 0.0163163 0)
(0.114801 0.0160916 0)
(0.105473 0.0148477 0)
(0.0949595 0.0135654 0)
(0.0823461 0.012617 0)
(0.0685886 0.0122367 0)
(0.0563365 0.0125907 0)
(0.0472208 0.0129259 0)
(0.0399128 0.0127869 0)
(0.0319092 0.0125838 0)
(0.0234279 0.0118604 0)
(0.014095 0.0111459 0)
(0.00567698 0.0115725 0)
(3.04148 -0.368882 0)
(2.98981 -0.493273 0)
(2.92156 -0.509415 0)
(2.90556 -0.536322 0)
(2.8901 -0.573026 0)
(2.86754 -0.599465 0)
(2.8462 -0.603678 0)
(2.82646 -0.555983 0)
(2.84172 -0.51915 0)
(2.84885 -0.504594 0)
(2.83415 -0.46056 0)
(2.79922 -0.352849 0)
(2.76699 -0.281078 0)
(2.7161 -0.232582 0)
(2.65742 -0.144329 0)
(2.63352 -0.0937814 0)
(2.61391 -0.111587 0)
(2.6006 -0.0861844 0)
(2.58246 -0.0359482 0)
(2.56176 -0.0315323 0)
(2.55472 -0.0303994 0)
(2.55355 -0.0346891 0)
(2.54746 -0.0500416 0)
(2.53813 -0.0545945 0)
(2.5261 -0.0511839 0)
(2.51651 -0.0402326 0)
(2.51537 -0.0322587 0)
(2.50697 -0.0362886 0)
(2.50522 -0.0460416 0)
(2.50647 -0.0503822 0)
(2.50544 -0.0453937 0)
(2.49985 -0.0344589 0)
(2.49398 -0.0270852 0)
(2.48766 -0.0245315 0)
(2.4809 -0.0241531 0)
(2.47674 -0.0244957 0)
(2.476 -0.0229385 0)
(2.47498 -0.018146 0)
(2.47334 -0.0155837 0)
(2.47089 -0.0116757 0)
(2.47014 -0.0112239 0)
(2.46918 -0.0103621 0)
(2.46859 -0.00903216 0)
(2.46808 -0.0077172 0)
(2.4672 -0.0060416 0)
(2.46344 -0.00703811 0)
(2.45909 -0.00833478 0)
(2.45687 -0.0109965 0)
(2.45689 -0.0136886 0)
(2.45819 -0.0145026 0)
(2.45974 -0.0104387 0)
(2.45938 -0.00597436 0)
(2.32613 0.110189 0)
(1.11133 0.251418 0)
(0.856517 0.200974 0)
(0.785532 0.158655 0)
(0.71932 0.133301 0)
(0.667294 0.11513 0)
(0.620934 0.102743 0)
(0.57521 0.0963069 0)
(0.529333 0.0934399 0)
(0.486288 0.0902068 0)
(0.447588 0.0850727 0)
(0.41322 0.0786983 0)
(0.382733 0.0734541 0)
(0.354914 0.070552 0)
(0.328272 0.0685628 0)
(0.301167 0.0648605 0)
(0.273238 0.0595208 0)
(0.246033 0.0537158 0)
(0.221361 0.0480109 0)
(0.201003 0.0422991 0)
(0.184312 0.0374746 0)
(0.168677 0.034265 0)
(0.152316 0.0330874 0)
(0.137249 0.0325443 0)
(0.1237 0.0320823 0)
(0.111583 0.0299748 0)
(0.0990973 0.0279233 0)
(0.0857022 0.0261984 0)
(0.0721499 0.0246735 0)
(0.0599756 0.0237381 0)
(0.0498673 0.0230107 0)
(0.0409184 0.0222324 0)
(0.0315229 0.0214932 0)
(0.0227568 0.0205366 0)
(0.013397 0.019661 0)
(0.00559042 0.0205127 0)
(2.85606 -0.0911413 0)
(2.86236 -0.227427 0)
(2.82675 -0.331266 0)
(2.8753 -0.463592 0)
(2.87606 -0.575104 0)
(2.89074 -0.57802 0)
(2.88923 -0.581678 0)
(2.88429 -0.614426 0)
(2.8787 -0.614053 0)
(2.87465 -0.617003 0)
(2.86699 -0.615427 0)
(2.85511 -0.576239 0)
(2.82912 -0.542146 0)
(2.80618 -0.498488 0)
(2.77966 -0.414027 0)
(2.7573 -0.321232 0)
(2.74445 -0.29534 0)
(2.69262 -0.22545 0)
(2.64931 -0.135567 0)
(2.64177 -0.121325 0)
(2.6278 -0.100356 0)
(2.60884 -0.086949 0)
(2.59797 -0.0900169 0)
(2.58114 -0.0728706 0)
(2.57045 -0.0574265 0)
(2.56588 -0.0414043 0)
(2.56388 -0.0214366 0)
(2.56167 -0.0181286 0)
(2.55515 -0.0265626 0)
(2.55005 -0.0340372 0)
(2.54523 -0.028871 0)
(2.54244 -0.0182191 0)
(2.53801 -0.0145306 0)
(2.53271 -0.0147896 0)
(2.52725 -0.0198166 0)
(2.52266 -0.0307245 0)
(2.51958 -0.0381796 0)
(2.51679 -0.0400128 0)
(2.51739 -0.0391007 0)
(2.52075 -0.0352774 0)
(2.52372 -0.0281294 0)
(2.52233 -0.0219644 0)
(2.51904 -0.0169295 0)
(2.51476 -0.0096077 0)
(2.50982 -0.00219004 0)
(2.50651 0.00159292 0)
(2.5037 0.000890653 0)
(2.50141 -0.00409096 0)
(2.50099 -0.00935306 0)
(2.50238 -0.0124907 0)
(2.50402 -0.0111611 0)
(2.50284 -0.00965604 0)
(2.50258 0.0207336 0)
(1.32201 0.299464 0)
(0.949121 0.250808 0)
(0.886773 0.209629 0)
(0.82286 0.185239 0)
(0.771491 0.165543 0)
(0.725404 0.148224 0)
(0.681734 0.131719 0)
(0.637553 0.118643 0)
(0.593142 0.11099 0)
(0.551038 0.105001 0)
(0.511551 0.0984541 0)
(0.474598 0.0920033 0)
(0.440022 0.0869822 0)
(0.407119 0.0838118 0)
(0.374087 0.081735 0)
(0.340617 0.0788019 0)
(0.307654 0.0742786 0)
(0.276674 0.0689008 0)
(0.249097 0.0626491 0)
(0.22569 0.0557899 0)
(0.204781 0.0498249 0)
(0.184079 0.045489 0)
(0.16487 0.0436635 0)
(0.147147 0.0431336 0)
(0.130855 0.0412517 0)
(0.115153 0.0390596 0)
(0.0996648 0.0373833 0)
(0.0846334 0.0357405 0)
(0.070599 0.0343566 0)
(0.0579708 0.0328091 0)
(0.0462878 0.0313994 0)
(0.0348656 0.0304325 0)
(0.0247006 0.0296363 0)
(0.0145599 0.0289631 0)
(0.00585388 0.0303603 0)
(2.73563 -0.0278724 0)
(2.74615 -0.126134 0)
(2.75407 -0.158565 0)
(2.81192 -0.24788 0)
(2.8315 -0.31263 0)
(2.82799 -0.362823 0)
(2.83772 -0.458997 0)
(2.82849 -0.479684 0)
(2.82535 -0.524826 0)
(2.82114 -0.567877 0)
(2.81683 -0.60753 0)
(2.82119 -0.612728 0)
(2.82737 -0.621786 0)
(2.83146 -0.62201 0)
(2.82581 -0.590461 0)
(2.80675 -0.553202 0)
(2.78639 -0.507992 0)
(2.73979 -0.421638 0)
(2.6971 -0.294766 0)
(2.69035 -0.275127 0)
(2.66647 -0.226684 0)
(2.64218 -0.184712 0)
(2.64806 -0.172105 0)
(2.61678 -0.131719 0)
(2.60056 -0.102914 0)
(2.59476 -0.0945584 0)
(2.58686 -0.0671419 0)
(2.58488 -0.0598759 0)
(2.57865 -0.0552448 0)
(2.57244 -0.0504389 0)
(2.5716 -0.0427675 0)
(2.56691 -0.0323521 0)
(2.56366 -0.0278918 0)
(2.55983 -0.0249414 0)
(2.55174 -0.025861 0)
(2.54217 -0.0296609 0)
(2.53761 -0.0300033 0)
(2.53345 -0.0286618 0)
(2.53673 -0.0258496 0)
(2.54935 -0.0204538 0)
(2.55649 -0.0158105 0)
(2.55323 -0.0136117 0)
(2.54915 -0.0124234 0)
(2.54396 -0.0112354 0)
(2.53587 -0.0117828 0)
(2.53038 -0.0126519 0)
(2.52759 -0.0132918 0)
(2.52612 -0.0140566 0)
(2.52452 -0.0128638 0)
(2.52724 -0.00595925 0)
(2.53087 0.00237075 0)
(2.53089 0.00262786 0)
(2.52954 0.0057024 0)
(1.62788 0.322956 0)
(0.993718 0.306297 0)
(0.940901 0.264184 0)
(0.909152 0.235322 0)
(0.877737 0.208887 0)
(0.844455 0.183478 0)
(0.806218 0.165162 0)
(0.763919 0.15799 0)
(0.720393 0.156487 0)
(0.676419 0.156422 0)
(0.6325 0.154221 0)
(0.588592 0.148966 0)
(0.546128 0.141075 0)
(0.505862 0.132801 0)
(0.467233 0.125826 0)
(0.428845 0.119481 0)
(0.390227 0.11358 0)
(0.351531 0.108452 0)
(0.314535 0.102199 0)
(0.281331 0.093578 0)
(0.252356 0.0832637 0)
(0.226014 0.0743003 0)
(0.201383 0.0685358 0)
(0.178845 0.0650841 0)
(0.157703 0.061362 0)
(0.137787 0.0576659 0)
(0.119195 0.0544117 0)
(0.101383 0.0514541 0)
(0.0837021 0.0492553 0)
(0.0667586 0.0467874 0)
(0.0517322 0.0439918 0)
(0.0390323 0.0414841 0)
(0.0276906 0.0401825 0)
(0.0169539 0.0394653 0)
(0.00631096 0.0413423 0)
(2.57111 0.213289 0)
(2.63123 0.0867775 0)
(2.7045 -0.0507391 0)
(2.74643 -0.158804 0)
(2.75935 -0.203918 0)
(2.77202 -0.265728 0)
(2.78424 -0.347456 0)
(2.78815 -0.375489 0)
(2.78771 -0.424196 0)
(2.78996 -0.504973 0)
(2.79048 -0.517934 0)
(2.7868 -0.522673 0)
(2.8042 -0.542791 0)
(2.80891 -0.562396 0)
(2.8126 -0.579229 0)
(2.80121 -0.599623 0)
(2.79579 -0.621194 0)
(2.77919 -0.61286 0)
(2.75744 -0.573255 0)
(2.74498 -0.532766 0)
(2.72219 -0.470988 0)
(2.69191 -0.36395 0)
(2.69024 -0.30897 0)
(2.64966 -0.199716 0)
(2.62877 -0.138762 0)
(2.61659 -0.137982 0)
(2.5994 -0.099946 0)
(2.58996 -0.0980615 0)
(2.58415 -0.0942569 0)
(2.58614 -0.0829621 0)
(2.58669 -0.0714066 0)
(2.57597 -0.0644441 0)
(2.57355 -0.0623747 0)
(2.56993 -0.0574952 0)
(2.56094 -0.047678 0)
(2.54987 -0.0374029 0)
(2.54475 -0.0365761 0)
(2.53889 -0.036371 0)
(2.54308 -0.0329771 0)
(2.55973 -0.0261546 0)
(2.5649 -0.0225916 0)
(2.56272 -0.0226448 0)
(2.55792 -0.0241024 0)
(2.54815 -0.0269533 0)
(2.54004 -0.0259732 0)
(2.53834 -0.0216517 0)
(2.53799 -0.0196652 0)
(2.53714 -0.0170311 0)
(2.53891 -0.00909236 0)
(2.54406 0.000830506 0)
(2.54356 0.00311568 0)
(2.54219 0.00331496 0)
(2.53733 0.00199167 0)
(2.03006 0.292411 0)
(1.05953 0.310596 0)
(0.985583 0.260358 0)
(0.984933 0.234431 0)
(0.967304 0.22505 0)
(0.94463 0.215025 0)
(0.916464 0.203413 0)
(0.883008 0.19388 0)
(0.845975 0.191554 0)
(0.807623 0.191519 0)
(0.767794 0.187636 0)
(0.725381 0.179235 0)
(0.68058 0.168671 0)
(0.63497 0.159647 0)
(0.58997 0.153527 0)
(0.545432 0.149513 0)
(0.500746 0.145528 0)
(0.455632 0.139445 0)
(0.410394 0.130719 0)
(0.367064 0.119635 0)
(0.327253 0.107959 0)
(0.291426 0.0973793 0)
(0.258473 0.0899696 0)
(0.228027 0.085716 0)
(0.199511 0.081702 0)
(0.173152 0.0774225 0)
(0.149134 0.0730242 0)
(0.126625 0.0686211 0)
(0.104285 0.0651873 0)
(0.0823651 0.0618335 0)
(0.0627296 0.0585401 0)
(0.0471755 0.0550783 0)
(0.0341043 0.0526617 0)
(0.0214514 0.0512393 0)
(0.00738414 0.0529452 0)
(2.52645 0.217603 0)
(2.56736 0.16184 0)
(2.60856 0.0942976 0)
(2.64245 0.0275425 0)
(2.65949 -0.0110494 0)
(2.71055 -0.114453 0)
(2.72879 -0.222652 0)
(2.72926 -0.246932 0)
(2.73167 -0.266303 0)
(2.75151 -0.35147 0)
(2.75102 -0.390194 0)
(2.74118 -0.4142 0)
(2.76639 -0.450423 0)
(2.77521 -0.49793 0)
(2.78533 -0.503307 0)
(2.79216 -0.532089 0)
(2.78433 -0.587749 0)
(2.77283 -0.60899 0)
(2.77043 -0.605586 0)
(2.77408 -0.597042 0)
(2.77509 -0.591927 0)
(2.76603 -0.569827 0)
(2.75164 -0.528923 0)
(2.72539 -0.459393 0)
(2.69644 -0.360985 0)
(2.67802 -0.315228 0)
(2.63729 -0.231172 0)
(2.61571 -0.178544 0)
(2.60807 -0.168149 0)
(2.60488 -0.126369 0)
(2.61085 -0.100457 0)
(2.59843 -0.0912771 0)
(2.58863 -0.0887616 0)
(2.57849 -0.0802992 0)
(2.56287 -0.062966 0)
(2.55542 -0.0435368 0)
(2.55012 -0.0414895 0)
(2.54109 -0.0464381 0)
(2.54343 -0.0474136 0)
(2.55788 -0.0405157 0)
(2.56427 -0.035073 0)
(2.56371 -0.0320405 0)
(2.55852 -0.0296305 0)
(2.5469 -0.0311059 0)
(2.53935 -0.0342374 0)
(2.53891 -0.0345949 0)
(2.53992 -0.0321965 0)
(2.54476 -0.0243796 0)
(2.55233 -0.0126124 0)
(2.55106 -0.00773473 0)
(2.54938 -0.00607513 0)
(2.54512 -0.00205986 0)
(2.53862 -0.00228895 0)
(2.41986 0.148832 0)
(1.15633 0.314729 0)
(1.01305 0.267508 0)
(1.02746 0.245245 0)
(1.01951 0.229865 0)
(1.00563 0.220764 0)
(0.987184 0.217071 0)
(0.964538 0.218002 0)
(0.939057 0.221137 0)
(0.911009 0.224931 0)
(0.879044 0.226533 0)
(0.842189 0.225129 0)
(0.800462 0.219911 0)
(0.755521 0.21363 0)
(0.709579 0.208556 0)
(0.663561 0.204013 0)
(0.617014 0.198765 0)
(0.568131 0.192992 0)
(0.516291 0.18452 0)
(0.463024 0.172876 0)
(0.412702 0.158504 0)
(0.36691 0.144386 0)
(0.324703 0.133201 0)
(0.285708 0.12522 0)
(0.248784 0.118294 0)
(0.214851 0.110888 0)
(0.184487 0.103055 0)
(0.156878 0.0948484 0)
(0.130169 0.0876327 0)
(0.103551 0.0816217 0)
(0.078273 0.077529 0)
(0.0573667 0.0735266 0)
(0.0408488 0.069579 0)
(0.0257899 0.0660792 0)
(0.00846303 0.0663745 0)
(2.43296 0.345131 0)
(2.45279 0.308821 0)
(2.52931 0.204979 0)
(2.58456 0.081586 0)
(2.61163 0.0443715 0)
(2.63631 0.0164093 0)
(2.66725 -0.0674837 0)
(2.66996 -0.123006 0)
(2.68702 -0.195444 0)
(2.70464 -0.268292 0)
(2.70654 -0.285477 0)
(2.70839 -0.312814 0)
(2.73979 -0.374718 0)
(2.75322 -0.419862 0)
(2.76108 -0.430757 0)
(2.76809 -0.462352 0)
(2.76646 -0.50684 0)
(2.7604 -0.509822 0)
(2.75215 -0.520307 0)
(2.77018 -0.539013 0)
(2.77695 -0.559933 0)
(2.78207 -0.567384 0)
(2.77894 -0.577715 0)
(2.76898 -0.570561 0)
(2.75695 -0.555552 0)
(2.74206 -0.527779 0)
(2.71556 -0.477669 0)
(2.68848 -0.396311 0)
(2.67459 -0.335205 0)
(2.6403 -0.209082 0)
(2.6352 -0.134973 0)
(2.64289 -0.120341 0)
(2.60949 -0.0880341 0)
(2.58408 -0.0820583 0)
(2.56364 -0.0825465 0)
(2.55605 -0.0696285 0)
(2.55581 -0.0587003 0)
(2.55712 -0.0562382 0)
(2.56123 -0.052458 0)
(2.56392 -0.0445843 0)
(2.56595 -0.0412836 0)
(2.56954 -0.0311699 0)
(2.56216 -0.0223377 0)
(2.5457 -0.0280078 0)
(2.53959 -0.0330845 0)
(2.53736 -0.0413765 0)
(2.54232 -0.0417466 0)
(2.55451 -0.0301757 0)
(2.56173 -0.0180014 0)
(2.55945 -0.014381 0)
(2.5565 -0.0121202 0)
(2.54879 -0.00549363 0)
(2.54027 -0.00410326 0)
(2.55619 0.0181595 0)
(1.26586 0.271965 0)
(1.00853 0.258202 0)
(1.02209 0.25437 0)
(1.02352 0.247562 0)
(1.02058 0.240401 0)
(1.01306 0.234141 0)
(1.00091 0.234622 0)
(0.986676 0.239197 0)
(0.970661 0.247489 0)
(0.949844 0.255952 0)
(0.924001 0.258144 0)
(0.892799 0.254375 0)
(0.856801 0.248737 0)
(0.817726 0.243745 0)
(0.77599 0.241404 0)
(0.731657 0.240291 0)
(0.683959 0.236619 0)
(0.631192 0.230076 0)
(0.574211 0.219828 0)
(0.517278 0.205232 0)
(0.463915 0.188364 0)
(0.414119 0.171912 0)
(0.366771 0.15858 0)
(0.320259 0.14894 0)
(0.275742 0.140945 0)
(0.23536 0.13292 0)
(0.199016 0.124044 0)
(0.16504 0.115259 0)
(0.132183 0.107158 0)
(0.100882 0.101084 0)
(0.0737411 0.0954249 0)
(0.0515366 0.0898256 0)
(0.0318746 0.084467 0)
(0.0102917 0.0836014 0)
(2.34555 0.434878 0)
(2.38006 0.387255 0)
(2.46108 0.286397 0)
(2.50176 0.22565 0)
(2.54509 0.158121 0)
(2.59764 0.0526215 0)
(2.61577 -0.00541846 0)
(2.61394 -0.0192006 0)
(2.63499 -0.0778015 0)
(2.66197 -0.159967 0)
(2.66589 -0.189364 0)
(2.67844 -0.222367 0)
(2.70123 -0.271274 0)
(2.71564 -0.295957 0)
(2.71885 -0.301034 0)
(2.73323 -0.347685 0)
(2.74027 -0.409101 0)
(2.73653 -0.427874 0)
(2.73688 -0.451937 0)
(2.74855 -0.487521 0)
(2.75866 -0.495193 0)
(2.76846 -0.502659 0)
(2.77796 -0.53941 0)
(2.76826 -0.568489 0)
(2.75828 -0.570933 0)
(2.75747 -0.567987 0)
(2.75574 -0.564997 0)
(2.75019 -0.552083 0)
(2.74269 -0.517279 0)
(2.72577 -0.466583 0)
(2.70806 -0.387873 0)
(2.69919 -0.325811 0)
(2.65392 -0.225995 0)
(2.61994 -0.166748 0)
(2.60124 -0.164076 0)
(2.58477 -0.132828 0)
(2.58375 -0.105108 0)
(2.59363 -0.0753537 0)
(2.59685 -0.0537331 0)
(2.58564 -0.0541543 0)
(2.58278 -0.0547002 0)
(2.57971 -0.0439642 0)
(2.56524 -0.0304561 0)
(2.54938 -0.0308621 0)
(2.54267 -0.0372805 0)
(2.53999 -0.0479514 0)
(2.54594 -0.0464895 0)
(2.56342 -0.0335464 0)
(2.57053 -0.0220257 0)
(2.56764 -0.0197276 0)
(2.56414 -0.0190745 0)
(2.55497 -0.0188536 0)
(2.54249 -0.017059 0)
(2.54726 -0.0175233 0)
(1.38364 0.239956 0)
(0.984882 0.26129 0)
(0.996802 0.254306 0)
(1.01047 0.248478 0)
(1.01441 0.244514 0)
(1.01146 0.242531 0)
(1.00646 0.243843 0)
(1.00162 0.249388 0)
(0.994562 0.258643 0)
(0.983695 0.267784 0)
(0.966429 0.275503 0)
(0.943646 0.281534 0)
(0.917294 0.283666 0)
(0.888402 0.283866 0)
(0.85696 0.284147 0)
(0.821429 0.284173 0)
(0.779466 0.284941 0)
(0.731306 0.282729 0)
(0.677721 0.275212 0)
(0.620334 0.263844 0)
(0.562302 0.24977 0)
(0.505242 0.234217 0)
(0.449074 0.218747 0)
(0.393845 0.204431 0)
(0.339964 0.191938 0)
(0.289936 0.180464 0)
(0.245423 0.167926 0)
(0.20492 0.155079 0)
(0.166875 0.142228 0)
(0.130561 0.131123 0)
(0.0969226 0.12189 0)
(0.0666268 0.114917 0)
(0.0394236 0.108392 0)
(0.0121983 0.106389 0)
(2.24078 0.52776 0)
(2.31856 0.45385 0)
(2.41169 0.340964 0)
(2.46423 0.260293 0)
(2.48364 0.234173 0)
(2.5119 0.185299 0)
(2.54562 0.117281 0)
(2.57603 0.0372587 0)
(2.60354 -0.053791 0)
(2.61608 -0.083735 0)
(2.61322 -0.0832973 0)
(2.6436 -0.124596 0)
(2.67516 -0.197548 0)
(2.68906 -0.232589 0)
(2.69041 -0.238776 0)
(2.70555 -0.284927 0)
(2.71052 -0.329872 0)
(2.71146 -0.337882 0)
(2.71335 -0.356746 0)
(2.73284 -0.405138 0)
(2.73599 -0.440617 0)
(2.7437 -0.44591 0)
(2.75531 -0.464404 0)
(2.75579 -0.487188 0)
(2.74249 -0.494614 0)
(2.74215 -0.520507 0)
(2.74832 -0.531459 0)
(2.75509 -0.530417 0)
(2.76187 -0.527639 0)
(2.76061 -0.533187 0)
(2.75471 -0.530857 0)
(2.74345 -0.504044 0)
(2.72111 -0.453099 0)
(2.6984 -0.394627 0)
(2.67172 -0.328339 0)
(2.62225 -0.211541 0)
(2.6076 -0.147766 0)
(2.62666 -0.112603 0)
(2.6313 -0.0473849 0)
(2.60392 -0.043214 0)
(2.58323 -0.0469744 0)
(2.5704 -0.0528884 0)
(2.56267 -0.0510765 0)
(2.5554 -0.047113 0)
(2.5525 -0.0495433 0)
(2.55026 -0.0515234 0)
(2.55645 -0.0459104 0)
(2.57255 -0.0307356 0)
(2.57943 -0.0201611 0)
(2.57655 -0.0190782 0)
(2.57108 -0.0214911 0)
(2.5589 -0.0274239 0)
(2.54795 -0.0267057 0)
(2.54919 -0.0282645 0)
(1.58441 0.230852 0)
(0.979908 0.245927 0)
(0.969674 0.239527 0)
(0.989049 0.242688 0)
(1.00039 0.242493 0)
(1.00453 0.245363 0)
(1.00539 0.250291 0)
(1.00451 0.258346 0)
(0.999379 0.268607 0)
(0.991404 0.279841 0)
(0.979262 0.289855 0)
(0.96456 0.296721 0)
(0.947788 0.301677 0)
(0.929141 0.307074 0)
(0.907734 0.312665 0)
(0.881308 0.320186 0)
(0.848782 0.325211 0)
(0.809679 0.326083 0)
(0.763761 0.323445 0)
(0.712733 0.316911 0)
(0.658678 0.30631 0)
(0.602508 0.29144 0)
(0.544422 0.273388 0)
(0.484534 0.255105 0)
(0.424234 0.238066 0)
(0.365991 0.222937 0)
(0.31203 0.20873 0)
(0.26195 0.195233 0)
(0.214412 0.181658 0)
(0.168295 0.169409 0)
(0.124717 0.158275 0)
(0.0857495 0.148061 0)
(0.0501378 0.138972 0)
(0.0152291 0.135415 0)
(2.18144 0.572324 0)
(2.28947 0.462701 0)
(2.35273 0.390414 0)
(2.36104 0.374493 0)
(2.40955 0.313379 0)
(2.47339 0.210258 0)
(2.50953 0.148803 0)
(2.50909 0.133495 0)
(2.52776 0.0762142 0)
(2.56246 0.0121917 0)
(2.5834 -0.0256369 0)
(2.61881 -0.0798895 0)
(2.63543 -0.12476 0)
(2.64463 -0.127393 0)
(2.65016 -0.140177 0)
(2.67239 -0.198482 0)
(2.68189 -0.254164 0)
(2.68345 -0.27603 0)
(2.68873 -0.287648 0)
(2.69743 -0.301381 0)
(2.71016 -0.335103 0)
(2.71856 -0.369605 0)
(2.72585 -0.397412 0)
(2.73514 -0.426112 0)
(2.72851 -0.441481 0)
(2.73414 -0.473712 0)
(2.73934 -0.500244 0)
(2.7498 -0.502442 0)
(2.75834 -0.506701 0)
(2.76761 -0.518938 0)
(2.76484 -0.532373 0)
(2.7594 -0.535797 0)
(2.74994 -0.527008 0)
(2.74416 -0.5183 0)
(2.73165 -0.497785 0)
(2.70899 -0.448749 0)
(2.68845 -0.373005 0)
(2.67291 -0.277131 0)
(2.6574 -0.16726 0)
(2.65391 -0.153609 0)
(2.62869 -0.135236 0)
(2.59901 -0.120224 0)
(2.58213 -0.107412 0)
(2.57258 -0.0820108 0)
(2.57023 -0.0612929 0)
(2.56896 -0.0469494 0)
(2.57494 -0.037876 0)
(2.58203 -0.0302207 0)
(2.58262 -0.023706 0)
(2.57915 -0.0178274 0)
(2.56942 -0.0176913 0)
(2.55798 -0.0266118 0)
(2.55264 -0.0276638 0)
(2.55376 -0.0334607 0)
(1.82598 0.222298 0)
(1.00364 0.240185 0)
(0.966822 0.225159 0)
(0.984615 0.225968 0)
(0.995291 0.231009 0)
(1.00201 0.239276 0)
(1.00689 0.249899 0)
(1.00922 0.26278 0)
(1.0057 0.275475 0)
(0.998344 0.287826 0)
(0.987399 0.298837 0)
(0.974463 0.30831 0)
(0.96087 0.317698 0)
(0.946841 0.326593 0)
(0.931433 0.335579 0)
(0.912898 0.344389 0)
(0.889517 0.353321 0)
(0.859603 0.36177 0)
(0.824436 0.365611 0)
(0.784954 0.363374 0)
(0.740905 0.357218 0)
(0.690398 0.348097 0)
(0.633163 0.336326 0)
(0.571183 0.320933 0)
(0.506668 0.30318 0)
(0.441867 0.286256 0)
(0.379842 0.269757 0)
(0.321323 0.253489 0)
(0.265458 0.236667 0)
(0.211326 0.220542 0)
(0.161477 0.202808 0)
(0.114207 0.188744 0)
(0.067403 0.178832 0)
(0.0208138 0.173883 0)
(2.15811 0.57454 0)
(2.23748 0.49188 0)
(2.26574 0.471959 0)
(2.29766 0.42967 0)
(2.37188 0.338269 0)
(2.41745 0.272369 0)
(2.42564 0.253988 0)
(2.46314 0.185973 0)
(2.5006 0.0973231 0)
(2.52327 0.076611 0)
(2.53299 0.0719553 0)
(2.56828 0.0254542 0)
(2.60155 -0.0454518 0)
(2.61498 -0.0723335 0)
(2.62757 -0.100807 0)
(2.64494 -0.155842 0)
(2.65093 -0.170676 0)
(2.64316 -0.180376 0)
(2.67004 -0.228892 0)
(2.6827 -0.275251 0)
(2.69143 -0.278524 0)
(2.6996 -0.303023 0)
(2.70456 -0.341706 0)
(2.70954 -0.352043 0)
(2.71118 -0.360021 0)
(2.72344 -0.395974 0)
(2.72846 -0.423513 0)
(2.73199 -0.433532 0)
(2.73963 -0.443795 0)
(2.74984 -0.460402 0)
(2.75585 -0.474023 0)
(2.75085 -0.486735 0)
(2.73683 -0.50257 0)
(2.73456 -0.507697 0)
(2.73735 -0.507167 0)
(2.74135 -0.507745 0)
(2.74121 -0.498162 0)
(2.73673 -0.466637 0)
(2.7209 -0.403927 0)
(2.70759 -0.342643 0)
(2.66936 -0.257348 0)
(2.62185 -0.166345 0)
(2.6021 -0.15995 0)
(2.57531 -0.107975 0)
(2.57477 -0.046614 0)
(2.58338 -0.0321424 0)
(2.59253 -0.041214 0)
(2.58994 -0.0444358 0)
(2.58753 -0.0429653 0)
(2.58226 -0.0394044 0)
(2.57073 -0.0282801 0)
(2.56008 -0.0242626 0)
(2.55641 -0.0235107 0)
(2.55791 -0.0340714 0)
(2.1052 0.195397 0)
(1.04801 0.240791 0)
(0.975393 0.213508 0)
(0.996807 0.213193 0)
(1.00686 0.219567 0)
(1.01461 0.231485 0)
(1.02072 0.247396 0)
(1.02206 0.266477 0)
(1.01674 0.283284 0)
(1.00761 0.297038 0)
(0.997121 0.309325 0)
(0.985598 0.320778 0)
(0.973512 0.332263 0)
(0.960054 0.342965 0)
(0.945388 0.353616 0)
(0.928151 0.364269 0)
(0.908909 0.375638 0)
(0.887668 0.385394 0)
(0.863448 0.393746 0)
(0.834491 0.401415 0)
(0.799755 0.404421 0)
(0.759214 0.401372 0)
(0.710819 0.393037 0)
(0.654125 0.380978 0)
(0.591728 0.365768 0)
(0.527577 0.347494 0)
(0.463657 0.327922 0)
(0.399999 0.309229 0)
(0.336203 0.291156 0)
(0.272925 0.273057 0)
(0.209636 0.257663 0)
(0.146929 0.246355 0)
(0.0884464 0.232512 0)
(0.0276156 0.226072 0)
(2.11913 0.578399 0)
(2.16586 0.547075 0)
(2.18922 0.528327 0)
(2.26118 0.460576 0)
(2.33021 0.37102 0)
(2.36662 0.327808 0)
(2.38061 0.301372 0)
(2.41715 0.245909 0)
(2.45846 0.181786 0)
(2.4815 0.15623 0)
(2.51006 0.11699 0)
(2.54702 0.0502485 0)
(2.5641 0.0222754 0)
(2.56686 0.0233517 0)
(2.58792 -0.0164297 0)
(2.61666 -0.0902444 0)
(2.62697 -0.128503 0)
(2.62865 -0.135712 0)
(2.64273 -0.164616 0)
(2.65589 -0.199842 0)
(2.66526 -0.208223 0)
(2.67111 -0.223687 0)
(2.68451 -0.271951 0)
(2.68726 -0.3009 0)
(2.68987 -0.30345 0)
(2.70202 -0.327839 0)
(2.71014 -0.347951 0)
(2.71147 -0.353677 0)
(2.72257 -0.378232 0)
(2.73264 -0.414216 0)
(2.73838 -0.439312 0)
(2.73744 -0.461986 0)
(2.72955 -0.481247 0)
(2.72983 -0.49434 0)
(2.73937 -0.502644 0)
(2.74728 -0.502713 0)
(2.75236 -0.499231 0)
(2.75815 -0.497121 0)
(2.75765 -0.496175 0)
(2.74583 -0.484142 0)
(2.72491 -0.459805 0)
(2.69577 -0.412428 0)
(2.66187 -0.341153 0)
(2.61876 -0.244855 0)
(2.61005 -0.165492 0)
(2.63806 -0.135711 0)
(2.6479 -0.0891696 0)
(2.61961 -0.0777227 0)
(2.6022 -0.0773513 0)
(2.59199 -0.0723726 0)
(2.5794 -0.0517267 0)
(2.56515 -0.0320418 0)
(2.56113 -0.0292606 0)
(2.56023 -0.037215 0)
(2.39404 0.112393 0)
(1.12026 0.242006 0)
(0.994435 0.212085 0)
(1.02373 0.21299 0)
(1.03501 0.221231 0)
(1.04217 0.234992 0)
(1.04653 0.252863 0)
(1.04451 0.272044 0)
(1.036 0.289519 0)
(1.02418 0.305424 0)
(1.01315 0.319923 0)
(1.00245 0.333564 0)
(0.990196 0.347072 0)
(0.975449 0.359603 0)
(0.958437 0.371067 0)
(0.939612 0.381337 0)
(0.921145 0.392116 0)
(0.903917 0.40371 0)
(0.887139 0.416219 0)
(0.867817 0.427719 0)
(0.842825 0.436412 0)
(0.811909 0.440615 0)
(0.772555 0.44137 0)
(0.72466 0.436099 0)
(0.669835 0.425233 0)
(0.609508 0.412354 0)
(0.545838 0.397131 0)
(0.479133 0.380567 0)
(0.409685 0.36203 0)
(0.336864 0.345645 0)
(0.264316 0.329379 0)
(0.195148 0.31239 0)
(0.123339 0.299412 0)
(0.042186 0.296775 0)
(2.05986 0.608709 0)
(2.09161 0.597454 0)
(2.14879 0.554145 0)
(2.23244 0.466196 0)
(2.28314 0.405618 0)
(2.29645 0.398465 0)
(2.32604 0.360353 0)
(2.38849 0.283157 0)
(2.43027 0.226052 0)
(2.44937 0.213318 0)
(2.46495 0.1906 0)
(2.5033 0.132976 0)
(2.53102 0.083453 0)
(2.54455 0.0577843 0)
(2.56799 0.0094411 0)
(2.58206 -0.0328084 0)
(2.58429 -0.0370478 0)
(2.59121 -0.0584414 0)
(2.61969 -0.111031 0)
(2.63642 -0.155983 0)
(2.64363 -0.168059 0)
(2.65156 -0.185144 0)
(2.66274 -0.216002 0)
(2.66413 -0.224761 0)
(2.66861 -0.245497 0)
(2.68478 -0.285806 0)
(2.69172 -0.30823 0)
(2.69901 -0.304002 0)
(2.70558 -0.315367 0)
(2.71004 -0.350562 0)
(2.70881 -0.363677 0)
(2.70018 -0.370132 0)
(2.71233 -0.404409 0)
(2.71855 -0.427812 0)
(2.7259 -0.430124 0)
(2.73465 -0.440548 0)
(2.74649 -0.458805 0)
(2.75126 -0.47239 0)
(2.75582 -0.479968 0)
(2.74703 -0.485613 0)
(2.73051 -0.485563 0)
(2.72646 -0.481738 0)
(2.7181 -0.470841 0)
(2.70263 -0.431354 0)
(2.68606 -0.363305 0)
(2.68063 -0.274065 0)
(2.67197 -0.170107 0)
(2.64451 -0.086465 0)
(2.6205 -0.0884565 0)
(2.59393 -0.0833594 0)
(2.57282 -0.0764675 0)
(2.56632 -0.0608614 0)
(2.5666 -0.0452527 0)
(2.57435 -0.0412132 0)
(2.55677 0.00375476 0)
(1.21055 0.204227 0)
(1.00993 0.188831 0)
(1.04961 0.202118 0)
(1.0593 0.219882 0)
(1.06788 0.239074 0)
(1.07254 0.261646 0)
(1.06725 0.283527 0)
(1.05513 0.301813 0)
(1.04188 0.317154 0)
(1.03191 0.33028 0)
(1.02225 0.34468 0)
(1.00986 0.360181 0)
(0.993863 0.374915 0)
(0.974291 0.387217 0)
(0.952804 0.397407 0)
(0.933401 0.407924 0)
(0.919075 0.420043 0)
(0.906455 0.434017 0)
(0.891007 0.449146 0)
(0.870722 0.462826 0)
(0.845449 0.473625 0)
(0.81538 0.479273 0)
(0.778438 0.480349 0)
(0.733885 0.479237 0)
(0.683122 0.47389 0)
(0.627394 0.463277 0)
(0.565601 0.449135 0)
(0.496133 0.433774 0)
(0.421138 0.416453 0)
(0.342826 0.401265 0)
(0.257362 0.396426 0)
(0.165916 0.393674 0)
(0.0532063 0.401344 0)
(1.99997 0.644539 0)
(2.04957 0.617548 0)
(2.12698 0.5601 0)
(2.18563 0.487957 0)
(2.2125 0.469039 0)
(2.23248 0.452335 0)
(2.2991 0.39176 0)
(2.35348 0.315483 0)
(2.37926 0.297427 0)
(2.38733 0.28605 0)
(2.43577 0.228927 0)
(2.47426 0.160481 0)
(2.49099 0.145041 0)
(2.49213 0.133044 0)
(2.52094 0.0816334 0)
(2.54955 0.0206754 0)
(2.56044 0.00103677 0)
(2.57445 -0.026774 0)
(2.59191 -0.0692634 0)
(2.60111 -0.0772116 0)
(2.60045 -0.0833928 0)
(2.62682 -0.127128 0)
(2.63992 -0.173114 0)
(2.64621 -0.182601 0)
(2.64654 -0.187924 0)
(2.66234 -0.219416 0)
(2.67138 -0.246262 0)
(2.67876 -0.252748 0)
(2.68763 -0.268579 0)
(2.69409 -0.306091 0)
(2.69151 -0.328094 0)
(2.68691 -0.332204 0)
(2.69579 -0.351084 0)
(2.70573 -0.372731 0)
(2.71386 -0.379096 0)
(2.72232 -0.384823 0)
(2.73492 -0.407393 0)
(2.74031 -0.43405 0)
(2.74183 -0.452693 0)
(2.7367 -0.471057 0)
(2.72557 -0.486545 0)
(2.73094 -0.490072 0)
(2.73347 -0.484351 0)
(2.73957 -0.47285 0)
(2.74164 -0.466041 0)
(2.73583 -0.443852 0)
(2.7215 -0.39678 0)
(2.7022 -0.33306 0)
(2.6765 -0.276299 0)
(2.62164 -0.182999 0)
(2.58853 -0.14548 0)
(2.58379 -0.126128 0)
(2.58757 -0.0855224 0)
(2.60534 -0.0688067 0)
(2.60108 -0.0273837 0)
(1.26798 0.130751 0)
(1.00416 0.149124 0)
(1.06198 0.184089 0)
(1.06856 0.219214 0)
(1.07965 0.247247 0)
(1.08581 0.275243 0)
(1.08041 0.298865 0)
(1.06513 0.316443 0)
(1.04828 0.331357 0)
(1.04002 0.344673 0)
(1.03586 0.358323 0)
(1.02655 0.373474 0)
(1.01085 0.38889 0)
(0.988716 0.402228 0)
(0.964936 0.412951 0)
(0.947084 0.424303 0)
(0.935608 0.437137 0)
(0.924695 0.452407 0)
(0.910766 0.469167 0)
(0.892482 0.484974 0)
(0.870399 0.498222 0)
(0.846186 0.508066 0)
(0.818653 0.515295 0)
(0.787033 0.519656 0)
(0.748816 0.523134 0)
(0.70309 0.522974 0)
(0.648122 0.518676 0)
(0.583622 0.509013 0)
(0.509621 0.49968 0)
(0.429581 0.495288 0)
(0.346249 0.499268 0)
(0.251937 0.50085 0)
(0.114433 0.541776 0)
(1.96713 0.660777 0)