/*--------------------------------*- C++ -*----------------------------------*\
  =========                 |
  \\      /  F ield         | OpenFOAM: The Open Source CFD Toolbox
   \\    /   O peration     | Website:  https://openfoam.org
    \\  /    A nd           | Version:  7
     \\/     M anipulation  |
\*---------------------------------------------------------------------------*/
FoamFile
{
    version     2.0;
    format      ascii;
    class       volScalarField;
    location    "1.7";
    object      T;
}
// * * * * * * * * * * * * * * * * * * * * * * * * * * * * * * * * * * * * * //

dimensions      [0 0 0 1 0 0 0];

internalField   nonuniform List<scalar> 
4128
(
1
1
1
1
1
1
1
1
1
1
1
1
1
1
1
1
1
1
1
1
1
1
1
1
1
1
1
1
1
1
1
1
1
1
1
1
1
1
1
1
1
1
1
1
1
1
1
1
1
1
1
1
1
1
1
1
1
1
1
1
1
1
1
1
1
1
1
1
1
1
1
1
1
1
1
1
1
1
1
1
1
1
1
1
1
1
1
1
1
1
1
1
1
1
1
1
1
1
1
1
1
1
1
1
1
1
1
1
1
1
1
1
1
1
1
1
1
1
1
1
1
1
1
1
1
1
1
1
1
1
1
1
1
1
1
1
1
1
1
1
1
1
1
1
1
1
1
1
1
1
1
1
1
1
1
1
1
1
1
1
1
1
1
1
1
1
1
1
1
1
1
1
1
1
1
1
1
1
1
1
1
1
1
1
1
1
1
1
1
1
1
1
1
1
1
1
1
1
1
1
1
1
1
1
1
1
1
1
1
1
1
1
1
1
1
1
1
1
1
1
1
1
1
1
1
1
1
1
1
1
1
1
1
1
1
1
1
1
1
1
1
1
1
1
1
1
1
1
1
1
1
1
1
1
1
1
1
1
1
1
1
1
1
1
1
1
1
1
1
1
1
1
1
1
1
1
1
1
1
1
1
1
1
1
1
1
1
1
1
1
1
1
1
1
1
1
1
1
1
1
1
1
1
1
1
1
1
1
1
1
1
1
1
1
1
1
1
1
1
1
1
1
1
1
1
1
1
1
1
1
1
1
1
1
1
1
1
1
1
1
1
1
1
1
1
1
1
1
1
1
1
1
1
1
1
1
1
1
1
1
1
1
1
1
1
1
1
1
1
1
1
1
1
1
1
1
1
1
1
1
1
1
1
1
1
1
1
1
1
1
1
1
1
1
1
1
1
1
1
1
1
1
1
1
1
1
1
1
1
1
1
1
1
1
1
1
1
1
1
1
1
1
1
1
1
1
1
1
1
1
1
1
1
1
1
1
1
1
1
1
1
1
1
1
1
1
1
1
1
1
1
1
1
1
1
1
1
1
1
1
1
1
1
1
1
1
1
1
1
1
1
1
1
1
1
1
1
1
1
1
1
1
1
1
1
1
1
1
1
1
1
1
1
1
1
1
1
1
1
1
1
1
1
1
1
1
1
1
1
1
1
1
1
1
1
1
1
1
1
1
1
1
1
1
1
1
1
1
1
1
1
1
1
1
1
1
1
1
1
1
1
1
1
1
1
1
1
1
1
1
1
1
1
1
1
1
1
1
1
1
1
1
1
1
1
1
1
1
1
1
1
1
1
1
1
1
1
1
1
1
1
1
1
1
1
1
1
1
1
1
1
1
1
1
1
1
1
1
1
1
1
1
1
1
1
1
1
1
1
1
1
1
1
1
1
1
1
1
1
1
1
1
1
1
1
1
1
1
1
1
1
1
1
1
1
1
1
1
1
1
1
1
1
1
1
1
1
1
1
1
1
1
1
1
1
1
1
1
1
1
1
1
1
1
1
1
1
1
1
1
1
1
1
1
1
1
1
1
1
1
1
1
1
1
1
1
1
1
1
1
1
1
1
1
1
1
1
1
1
1
1
1
1
1
1
1
1
1
1
1
1
1
1
1
1
1
1
1
1
1
1
1
1
1
1
1
1
1
1
1
1
1
1
1
1
1
1
1
1
1
1
1
1
1
1
1
1
1
1
1
1
1
1
1
1
1
1
1
1
1
1
1
1
1
1
1
1
1
1
1
1
1
1
1
1
1
1
1
1
1
1
1
1
1
1
1
1
1
1
1
1
1
1
1
1
1
1
1
1
1
1
1
1
1
1
1
1
1
1
1
1
1
1
1
1
1
1
1
1
1
1
1
1
1
1
1
1
1
1
1
1
1
1
1
1
1
1
1
1
1
1
1
1
1
1
1
1
1
1
1
1
1
1
1
1
1
1
1
1
1
1
1
1
1
1
1
1
1
1
1
1
1
1
1
1
1
1
1
1
1
1
1
1
1
1
1
1
1
1
1
1
1
1
1
1
1
1
1
1
1
1
1
1
1
1
1
1
1
1
1
1
1
1
1
1
1
1
1
1
1
1
1
1
1
1
1
1
1
1
1
1
1
1
1
1
1
1
1
1
1
1
1
1
1
1
1
1
1
1
1
1
1
1
1
1
1
1
1
1
1
1
1
1
1
1
1
1
1
1
1
1
1
1
1
1
1
1
1
1
1
1
1
1
1
1
1
1
1
1
1
1
1
1
1
1
1
1
1
1
1
1
1
1
1
1
1
1
1
1
1
1
1
1
1
1
1
1
1
1
1
1
1
1
1
1
1
1
1
1
1
1
1
1
1
1
1
1
1
1
1
1
1
1
1
1
1
1
1
1
1
1
1
1
1
1
1
1
1
1
1
1
1
1
1
1
1
1
1
1
1
1
1
1
1
1
1
1
1
1
1
1
1
1
1
1
1
1
1
1
1
1
1
1
1
1
1
1
1
1
1
1
1
1
1
1
1
1
1
1
1
1
1
1
1
1
1
1
1
1
1
1
1
1
1
1
1
1
1
1
1
1
1
1
1
1
1
1
1
1
1
1
1
1
1
1
1
1
1
1
1
1
1
1
1
1
1
1
1
1
1
1
1
1
1
1
1
1
1
1
1
1
1
1
1
1
1
1
1
1
1
1
1
1
1
1
1
1
1
1
1
1
1
1
1
1
1
1
1
1
1
1
1
1
1
1
1
1
1
1
1
1
1
1
1
1
1
1
1
1
1
1
1
1
1
1
1
1
1
1
1
1
1
1
1
1
1
1
1
1
1
1
1
1
1
1
1
1
1
1
1
1
1
1
1
1
1
1
1
1
1
1
1
1
1
1
1
1
1
1
1
1
1
1
1
1
1
1
1
1
1
1
1
1
1
1
1
1
1
1
1
1
1
1
1
1
1
1
1
1
1
1
1
1
1
1
1
1
1
1
1
1
1
1
1
1
1
1
1
1
1
1
1
1
1
1
1
1
1
1
1
1
1
1
1
1
1
1
1
1
1
1
1
1
1
1
1
1
1
1
1
1
1
1
1
1
1
1
1
1
1
1
1
1
1
1
1
1
1
1
1
1
1
1
1
1
1
1
1
1
1
1
1
1
1
1
1
1
1
1
1
1
1
1
1
1
1
1
1
1
1
1
1
1
1
1
1
1
1
1
1
1
1
1
1
1
1
1
1
1
1
1
1
1
1
1
1
1
1
1
1
1
1
1
1
1
1
1
1
1
1
1
1
1
1
1
1
1
1
1
1
1
1
1
1
1
1
1
1
1
1
1
1
1
1
1
1
1
1
1
1
1
1
1
1
1
1
1
1
1
1
1
1
1
1
1
1
1
1
1
1
1
1
1
1
1
1
1
1
1
1
1
1
1
1
1
1
1
1
1
1
1
1
1
1
1
1
1
1
1
1
1
1
1
1
1
1
1
1
1
1
1
1
1
1
1
1
1
1
1
1
1
1
1
1
1
1
1
1
1
1
1
1
1
1
1
1
1
1
1
1
1
1
1
1
1
1
1
1
1
1
1
1
1
1
1
1
1
1
1
1
1
1
1
1
1
1
1
1
1
1
1
1
1
1
1
1
1
1
1
1
1
1
1
1
1
1
1
1
1
1
1
1
1
1
1
1
1
1
1
1
1
1
1
1
1
1
1
1
1
1
1
1
1
1
1
1
1
1
1
1
1
1
1
1
1
1
1
1
1
1
1
1
1
1
1
1
1
1
1
1
1
1
1
1
1
1
1
1
1
1
1
1
1
1
1
1
1
1
1
1
1
1
1
1
1
1
1
1
1
1
1
1
1
1
1
1
1
1
1
1
1
1
1
1
1
1
1
1
1
1
1
1
1
1
1
1
1
1
1
1
1
1
1
1
1
1
1
1
1
1
1
1
1
1
1
1
1
1
1
1
1
1
1
1
1
1
1
1
1
1
1
1
1
1
1
1
1
1
1
1
1
1
1
1
1
1
1
1
1
1
1
1
1
1
1
1
1.46645
1.44858
1.4436
1.44768
1.53018
1.77553
1
1
1
1
1
1
1
1
1.00037
1.02623
1.25896
1.59635
1.75015
1.77487
1.76494
1.75212
1.73191
1.71595
1.70671
1.69292
1.68277
1.67099
1.66006
1.65196
1.64088
1.62992
1.61918
1.60848
1.59463
1.58233
1.57475
1.56836
1.55886
1.54358
1.53443
1.52911
1.52038
1.50961
1.49484
1.48534
1.48286
1.47704
1.46769
1.45278
1.44486
1.44064
1.44738
1.56554
1
1
1
1
1
1
1
1
1
1.00044
1.02585
1.24506
1.61041
1.73369
1.75556
1.75023
1.7291
1.7141
1.70245
1.69187
1.6824
1.67008
1.66295
1.65296
1.64153
1.62936
1.61914
1.60725
1.59535
1.58382
1.57578
1.56903
1.55837
1.54363
1.53537
1.52958
1.52045
1.51037
1.49689
1.48765
1.48492
1.47884
1.46804
1.45406
1.44771
1.44127
1.43466
1.4495
1
1
1
1
1
1
1
1
1
1
1.00047
1.02322
1.26324
1.6027
1.70185
1.73802
1.72966
1.71492
1.70204
1.69365
1.68127
1.67289
1.66473
1.65319
1.64006
1.62943
1.61883
1.60752
1.59836
1.58571
1.57787
1.56959
1.55747
1.54347
1.53659
1.53045
1.52117
1.51232
1.49957
1.49059
1.4869
1.47966
1.46781
1.45419
1.45015
1.44489
1.43262
1.43127
1
1
1
1
1
1
1
1
1
1
1
1.00045
1.02725
1.27777
1.54885
1.68165
1.7272
1.72124
1.71154
1.69912
1.68139
1.67386
1.66455
1.65151
1.63916
1.62936
1.61864
1.61091
1.60118
1.58786
1.58044
1.56941
1.55584
1.54372
1.53877
1.53216
1.52355
1.51527
1.50151
1.49416
1.48912
1.47967
1.46766
1.45492
1.45159
1.44865
1.43784
1.42463
1
1
1
1
1
1
1
1
1
1
1
1
1.00056
1.02975
1.22813
1.4966
1.68454
1.72798
1.72194
1.7018
1.68324
1.67262
1.6607
1.64799
1.63859
1.62962
1.62197
1.61587
1.60074
1.59111
1.58129
1.56764
1.55402
1.54536
1.54214
1.53546
1.52792
1.51777
1.50345
1.4977
1.49006
1.47885
1.46826
1.45719
1.45462
1.45188
1.44446
1.42713
1
1
1
1
1
1
1
1
1
1
1
1
1
1.00053
1.01974
1.17026
1.50571
1.68977
1.70674
1.70061
1.68809
1.66989
1.65478
1.64655
1.63952
1.63266
1.62794
1.61663
1.60151
1.59329
1.57901
1.5655
1.55305
1.54887
1.54707
1.54096
1.53291
1.51831
1.5064
1.50031
1.48941
1.4787
1.47058
1.46091
1.4592
1.45604
1.44832
1.43274
1
1
1
1
1
1
1
1
1
1
1
1
1
1
1.00028
1.01253
1.17003
1.51519
1.65883
1.68144
1.68262
1.67207
1.65706
1.6485
1.64228
1.6382
1.63192
1.61541
1.60476
1.59222
1.57528
1.56523
1.55439
1.55392
1.55305
1.54714
1.5357
1.518
1.50902
1.50062
1.4882
1.48132
1.47451
1.46665
1.46543
1.46036
1.44958
1.43487
1
1
1
1
1
1
1
1
1
1
1
1
1
1
1
1.0002
1.01266
1.17422
1.49001
1.6165
1.6565
1.67449
1.66634
1.6558
1.64964
1.64409
1.62995
1.61466
1.60561
1.58715
1.57373
1.56787
1.55997
1.56068
1.55929
1.55115
1.53449
1.51768
1.50942
1.49927
1.49002
1.48709
1.47918
1.47456
1.47166
1.46239
1.44852
1.43402
1
1
1
1
1
1
1
1
1
1
1
1
1
1
1
1
1.00021
1.01281
1.15831
1.42136
1.57424
1.65411
1.67519
1.66818
1.65965
1.64518
1.62397
1.61418
1.60314
1.58268
1.57687
1.57428
1.56817
1.56805
1.56419
1.55129
1.53077
1.51704
1.50876
1.49919
1.49638
1.49354
1.48566
1.48242
1.4749
1.46111
1.4462
1.43304
1
1
1
1
1
1
1
1
1
1
1
1
1
1
1
1
1
1.0002
1.00931
1.11236
1.34419
1.56227
1.66885
1.67099
1.66148
1.64217
1.62116
1.61445
1.59951
1.58427
1.58458
1.58324
1.57726
1.57388
1.56532
1.5473
1.5267
1.5163
1.50852
1.50445
1.50437
1.49878
1.49319
1.48741
1.47287
1.45787
1.44509
1.43494
1
1
1
1
1
1
1
1
1
1
1
1
1
1
1
1
1
1
1.0001
1.00491
1.07031
1.29545
1.57825
1.65629
1.65273
1.64057
1.62801
1.61746
1.59842
1.59142
1.59236
1.59019
1.58357
1.57695
1.56374
1.54143
1.52466
1.51714
1.51283
1.51316
1.51067
1.50427
1.499
1.48615
1.4662
1.45644
1.44714
1.44106
1
1
1
1
1
1
1
1
1
1
1
1
1
1
1
1
1
1
1
1.00004
1.00249
1.04825
1.28422
1.56853
1.6195
1.62701
1.62736
1.61893
1.60213
1.59974
1.59936
1.59513
1.58604
1.57668
1.55866
1.53517
1.52502
1.52259
1.52282
1.5221
1.5157
1.50911
1.49925
1.47698
1.46167
1.45917
1.45233
1.45035
1
1
1
1
1
1
1
1
1
1
1
1
1
1
1
1
1
1
1
1
1.00002
1.00164
1.0409
1.2818
1.51866
1.58432
1.61444
1.62186
1.61447
1.61135
1.60701
1.59668
1.58534
1.57482
1.55152
1.53302
1.5308
1.53221
1.53322
1.52854
1.52066
1.5114
1.49083
1.46808
1.46561
1.46528
1.45919
1.46052
1
1
1
1
1
1
1
1
1
1
1
1
1
1
1
1
1
1
1
1
1
1.00001
1.00136
1.03859
1.24366
1.43836
1.55255
1.61719
1.63141
1.62476
1.61098
1.59432
1.58388
1.57191
1.5467
1.53816
1.54009
1.54341
1.54139
1.53377
1.52391
1.50596
1.47876
1.47067
1.47336
1.47085
1.46882
1.47026
1
1
1
1
1
1
1
1
1
1
1
1
1
1
1
1
1
1
1
1
1
1
1.00001
1.00106
1.0256
1.15549
1.35106
1.56195
1.62806
1.62423
1.60895
1.59409
1.58708
1.56891
1.54829
1.54766
1.55155
1.55211
1.54669
1.53678
1.52221
1.49389
1.47737
1.47974
1.48199
1.47807
1.47949
1.47736
1
1
1
1
1
1
1
1
1
1
1
1
1
1
1
1
1
1
1
1
1
1
1
1.00001
1.00042
1.00981
1.08768
1.33008
1.57761
1.60176
1.59782
1.5912
1.58695
1.56823
1.55614
1.55859
1.56159
1.55901
1.54977
1.5374
1.51248
1.48717
1.48569
1.49089
1.48979
1.48883
1.48891
1.47896
1
1
1
1
1
1
1
1
1
1
1
1
1
1
1
1
1
1
1
1
1
1
1
1
1
1.00011
1.00449
1.06814
1.32856
1.53037
1.56507
1.58103
1.58319
1.57226
1.56944
1.57187
1.57078
1.56111
1.54914
1.53267
1.50319
1.49405
1.49891
1.50114
1.49915
1.49859
1.49206
1.47282
1
1
1
1
1
1
1
1
1
1
1
1
1
1
1
1
1
1
1
1
1
1
1
1
1
1
1.00006
1.00314
1.05971
1.29557
1.46032
1.5315
1.57351
1.59123
1.5897
1.58227
1.57062
1.55837
1.54974
1.52648
1.50592
1.50814
1.51192
1.51044
1.50832
1.50389
1.48668
1.46601
1
1
1
1
1
1
1
1
1
1
1
1
1
1
1
1
1
1
1
1
1
1
1
1
1
1
1
1.00004
1.00246
1.04908
1.21132
1.3668
1.52575
1.5928
1.59219
1.58162
1.5683
1.56084
1.55025
1.52311
1.51769
1.52136
1.52177
1.51904
1.51437
1.50101
1.47673
1.46572
1
1
1
1
1
1
1
1
1
1
1
1
1
1
1
1
1
1
1
1
1
1
1
1
1
1
1
1
1.00003
1.00142
1.0208
1.11103
1.32661
1.54952
1.57685
1.57345
1.56505
1.56203
1.54608
1.52702
1.52881
1.53129
1.52953
1.52417
1.51475
1.49092
1.47445
1.46911
1
1
1
1
1
1
1
1
1
1
1
1
1
1
1
1
1
1
1
1
1
1
1
1
1
1
1
1
1
1.00001
1.0003
1.00683
1.0755
1.32271
1.51475
1.54269
1.55374
1.55584
1.54394
1.53844
1.54197
1.54154
1.5342
1.52491
1.50891
1.48454
1.47983
1.47566
1
1
1
1
1
1
1
1
1
1
1
1
1
1
1
1
1
1
1
1
1
1
1
1
1
1
1
1
1
1
1
1.0001
1.00394
1.06286
1.2947
1.44831
1.50671
1.53921
1.55743
1.5586
1.5528
1.54274
1.53351
1.52627
1.50366
1.48825
1.48856
1.4853
1
1
1
1
1
1
1
1
1
1
1
1
1
1
1
1
1
1
1
1
1
1
1
1
1
1
1
1
1
1
1
1
1.00006
1.00293
1.05408
1.21636
1.34982
1.48518
1.55689
1.55942
1.55243
1.54266
1.53723
1.52538
1.50024
1.49686
1.49815
1.49624
1
1
1
1
1
1
1
1
1
1
1
1
1
1
1
1
1
1
1
1
1
1
1
1
1
1
1
1
1
1
1
1
1
1.00004
1.00185
1.02348
1.10404
1.29127
1.50684
1.54787
1.54622
1.54031
1.53628
1.51902
1.50329
1.50506
1.50841
1.50665
1
1
1
1
1
1
1
1
1
1
1
1
1
1
1
1
1
1
1
1
1
1
1
1
1
1
1
1
1
1
1
1
1
1
1.00001
1.00036
1.00621
1.06356
1.28342
1.47801
1.51686
1.5229
1.52748
1.51838
1.51644
1.52071
1.51977
1.51339
1
1
1
1
1
1
1
1
1
1
1
1
1
1
1
1
1
1
1
1
1
1
1
1
1
1
1
1
1
1
1
1
1
1
1
1
1.00009
1.00326
1.05077
1.25625
1.40996
1.46851
1.50572
1.53115
1.53284
1.5289
1.52228
1.51573
1
1
1
1
1
1
1
1
1
1
1
1
1
1
1
1
1
1
1
1
1
1
1
1
1
1
1
1
1
1
1
1
1
1
1
1
1
1.00005
1.00225
1.04109
1.17445
1.29903
1.4368
1.52587
1.53227
1.52885
1.52298
1.51839
1
1
1
1
1
1
1
1
1
1
1
1
1
1
1
1
1
1
1
1
1
1
1
1
1
1
1
1
1
1
1
1
1
1
1
1
1
1
1.00003
1.00122
1.01526
1.07382
1.23137
1.45279
1.51285
1.51905
1.51695
1.51415
1
1
1
1
1
1
1
1
1
1
1
1
1
1
1
1
1
1
1
1
1
1
1
1
1
1
1
1
1
1
1
1
1
1
1
1
1
1
1
1.00001
1.00019
1.00358
1.03946
1.21582
1.41848
1.47785
1.49281
1.50278
1
1
1
1
1
1
1
1
1
1
1
1
1
1
1
1
1
1
1
1
1
1
1
1
1
1
1
1
1
1
1
1
1
1
1
1
1
1
1
1
1
1.00004
1.00161
1.02923
1.18416
1.33516
1.41159
1.47634
1
1
1
1
1
1
1
1
1
1
1
1
1
1
1
1
1
1
1
1
1
1
1
1
1
1
1
1
1
1
1
1
1
1
1
1
1
1
1
1
1
1
1.00002
1.001
1.01977
1.10072
1.21265
1.38293
1
1
1
1
1
1
1
1
1
1
1
1
1
1
1
1
1
1
1
1
1
1
1
1
1
1
1
1
1
1
1
1
1
1
1
1
1
1
1
1
1
1
1
1.00001
1.00037
1.0053
1.03393
1.15961
1
1
1
1
1
1
1
1
1
1
1
1
1
1
1
1
1
1
1
1
1
1
1
1
1
1
1
1
1
1
1
1
1
1
1
1
1
1
1
1
1
1
1
1
1
1.00005
1.00114
1.01786
1
1
1
1
1
1
1
1
1
1
1
1
1
1
1
1
1
1
1
1
1
1
1
1
1
1
1
1
1
1
1
1
1
1
1
1
1
1
1
1
1
1
1
1
1
1
1.00001
1.00052
1
1
1
1
1
1
1
1
1
1
1
1
1
1
1
1
1
1
1
1
1
1
1
1
1
1
1
1
1
1
1
1
1
1
1
1
1
1
1
1
1
1
1
1
1
1
1
1
1
1
1
1
1
1
1
1
1
1
1
1
1
1
1
1
1
1
1
1
1
1
1
1
1
1
1
1
1
1
1
1
1
1
1
1
1
1
1
1
1
1
1
1
1
1
1
1
1
1
1
1
1
1
1
1
1
1
1
1
1
1
1
1
1
1
1
1
1
1
1
1
1
1
1
1
1
1
1
1
1
1
1
1
1
1
1
1
1
1
1
1
1
1
1
1
1.91286
1.95728
1.95042
1.93819
1.92918
1.9215
1.91255
1.90082
1.89032
1.88154
1.87026
1.85784
1.84215
1.83174
1.81949
1.79898
1.90101
1.93663
1.92818
1.91545
1.90657
1.89766
1.88665
1.87887
1.87041
1.8603
1.84768
1.83367
1.82385
1.81065
1.60286
1.80675
1.89202
1.91316
1.90488
1.8953
1.88477
1.87403
1.86724
1.85844
1.84889
1.83532
1.82423
1.81391
1.80035
1.46225
1.6305
1.80808
1.87721
1.88988
1.88459
1.87374
1.863
1.85541
1.84661
1.83619
1.82282
1.81384
1.8023
1.79045
1.42602
1.47497
1.65081
1.80226
1.8644
1.86906
1.86131
1.85054
1.84283
1.83455
1.82315
1.81165
1.80297
1.79138
1.78133
1.42145
1.42531
1.48707
1.66605
1.79629
1.84982
1.84774
1.83743
1.82871
1.82034
1.80872
1.80064
1.79229
1.78196
1.77257
1.42251
1.41738
1.42281
1.50135
1.67746
1.79075
1.83292
1.82746
1.81714
1.80545
1.79384
1.7887
1.78104
1.77335
1.76304
1.42527
1.41727
1.41338
1.42352
1.51875
1.68637
1.7809
1.81392
1.80867
1.79523
1.78151
1.77604
1.77003
1.76418
1.75307
1.42771
1.42182
1.41327
1.41462
1.42964
1.53265
1.68424
1.76544
1.7957
1.78888
1.77657
1.76806
1.76179
1.75396
1.74231
1.43057
1.42819
1.42069
1.41446
1.41688
1.43656
1.53432
1.67353
1.75063
1.78132
1.77531
1.76459
1.75508
1.74177
1.73219
1.4355
1.43479
1.43076
1.41991
1.41504
1.41081
1.43004
1.52655
1.67352
1.74136
1.7658
1.76095
1.75018
1.73319
1.72338
1.44298
1.44232
1.43736
1.42615
1.41623
1.40242
1.40035
1.42468
1.54501
1.67734
1.73
1.75261
1.74699
1.73034
1.71668
1.4518
1.44945
1.44046
1.42761
1.41578
1.40101
1.39157
1.39488
1.43451
1.56354
1.67143
1.72417
1.73815
1.72775
1.71381
1.45991
1.45319
1.43967
1.42551
1.4142
1.40334
1.39261
1.39329
1.39914
1.44719
1.56103
1.66501
1.70583
1.72044
1.71383
1.46528
1.45293
1.4359
1.42152
1.41342
1.40774
1.40256
1.39652
1.40065
1.40742
1.44919
1.54679
1.64687
1.68873
1.70847
1.46518
1.44896
1.43125
1.42023
1.41609
1.41472
1.41317
1.40748
1.40679
1.40306
1.40383
1.43614
1.53759
1.63656
1.67869
1.46058
1.44441
1.42851
1.42384
1.4232
1.42324
1.42184
1.41816
1.41362
1.40424
1.3878
1.38949
1.43059
1.546
1.63145
1.45595
1.44231
1.43198
1.43242
1.43215
1.43155
1.42825
1.4238
1.41725
1.40348
1.38317
1.37878
1.38625
1.4396
1.54978
1.45536
1.44287
1.44222
1.44259
1.44134
1.43858
1.43184
1.42496
1.41657
1.40152
1.38531
1.37836
1.38181
1.39245
1.44507
1.45578
1.4516
1.45398
1.45271
1.44943
1.44233
1.43156
1.42414
1.41408
1.40068
1.39246
1.38588
1.3863
1.39231
1.39999
1.4616
1.46423
1.46515
1.46142
1.45451
1.44145
1.42898
1.42321
1.41364
1.40407
1.40177
1.3987
1.39497
1.39549
1.39229
1.47326
1.47648
1.47465
1.46697
1.45511
1.4366
1.42729
1.4243
1.41756
1.41248
1.41091
1.4072
1.40327
1.39796
1.38991
1.48482
1.48567
1.48012
1.46795
1.45179
1.43289
1.42915
1.42877
1.42562
1.4221
1.41825
1.4106
1.40525
1.39972
1.38948
1.49453
1.49144
1.47992
1.46437
1.44751
1.43478
1.43515
1.43638
1.43439
1.43014
1.42194
1.40979
1.40466
1.40128
1.39328
1.50244
1.49318
1.47534
1.45992
1.44812
1.44205
1.44441
1.44555
1.44242
1.43491
1.42134
1.40788
1.40536
1.40399
1.40007
1.5062
1.49147
1.47003
1.46089
1.4555
1.45261
1.4549
1.45422
1.44712
1.43483
1.41806
1.40885
1.4095
1.40925
1.40755
1.50903
1.48655
1.4693
1.4679
1.46651
1.46394
1.46439
1.45938
1.4465
1.43138
1.41685
1.41457
1.41737
1.41735
1.41529
1.50424
1.4806
1.47522
1.47716
1.47677
1.47436
1.47087
1.45846
1.44263
1.42943
1.42146
1.42389
1.42754
1.42616
1.42135
1.49629
1.48407
1.48743
1.49051
1.48718
1.48223
1.47267
1.45427
1.44165
1.43307
1.43136
1.43609
1.43675
1.43203
1.42277
1.5002
1.5019
1.50241
1.49846
1.49355
1.48835
1.47041
1.45248
1.44678
1.4421
1.44325
1.44648
1.44298
1.43264
1.42009
1.51062
1.51022
1.50576
1.50177
1.49828
1.4875
1.46423
1.45606
1.45548
1.45271
1.45425
1.45345
1.44332
1.42947
1.41449
1.4927
1.50387
1.50496
1.50205
1.49727
1.47818
1.46437
1.4663
1.46769
1.46459
1.46295
1.45514
1.43895
1.42583
1.41116
1.3787
1.46907
1.49241
1.49409
1.48954
1.47757
1.47946
1.48259
1.47888
1.47443
1.46864
1.45236
1.43568
1.42427
1.41854
1.13684
1.33911
1.41774
1.45533
1.47952
1.491
1.49008
1.48669
1.48402
1.48078
1.46754
1.44769
1.43609
1.43593
1.45627
1.01246
1.10266
1.22707
1.33369
1.44646
1.49139
1.48916
1.48768
1.48451
1.47921
1.45911
1.452
1.46414
1.53676
1.67572
1.00028
1.00578
1.03706
1.12109
1.30931
1.44266
1.48144
1.48101
1.47774
1.47909
1.48746
1.53123
1.64664
1.80631
1.90005
1
1.00005
1.00099
1.0112
1.08462
1.27024
1.41605
1.45061
1.49502
1.57166
1.65061
1.75295
1.84929
1.89506
1.91001
1
1
1.00001
1.00025
1.00545
1.07268
1.24274
1.41335
1.58314
1.75263
1.9032
2.02705
2.03645
2.00631
1.95116
)
;

boundaryField
{
    inlet
    {
        type            fixedValue;
        value           uniform 1;
    }
    outlet
    {
        type            inletOutlet;
        inletValue      nonuniform 0();
        value           nonuniform 0();
    }
    bottom
    {
        type            zeroGradient;
    }
    top
    {
        type            zeroGradient;
    }
    obstacle
    {
        type            zeroGradient;
    }
    defaultFaces
    {
        type            empty;
    }
    procBoundary2to0
    {
        type            processor;
        value           nonuniform List<scalar> 
112
(
1
1
1
1
1
1
1
1
1
1
1
1
1
1
1
1
1
1
1
1
1
1
1
1
1
1
1
1
1
1
1
1
1
1
1
1
1
1
1
1
1
1
1
1
1
1
1
1
1.4616
1.44533
1.44779
1.49841
1.73532
1.92151
1
1
1
1
1
1
1
1.00029
1.02302
1.27054
1.6017
1.75311
1.78873
1.77707
1.76167
1.74908
1.73649
1.7177
1.70764
1.6967
1.68235
1.67309
1.65946
1.65012
1.64095
1.62897
1.61997
1.60969
1.59377
1.58293
1.57556
1.56741
1.55841
1.54348
1.53361
1.52893
1.52046
1.50929
1.49312
1.48353
1.48119
1.47562
1.47562
1.98038
1.97421
1.96486
1.95543
1.9466
1.93822
1.92798
1.91579
1.90151
1.89142
1.87915
1.8665
1.85104
1.83821
1.8267
)
;
    }
    procBoundary2to1
    {
        type            processor;
        value           nonuniform List<scalar> 6(1.80521 1.79758 1.78838 1.77763 1.76779 1.7584);
    }
    procBoundary2to3
    {
        type            processor;
        value           nonuniform List<scalar> 
32
(
1.75124
1.7443
1.73644
1.72641
1.71448
1.70585
1.70467
1.70671
1.70669
1.70244
1.68006
1.63277
1.54162
1.43875
1.39357
1.3822
1.38169
1.38629
1.39517
1.40381
1.41009
1.41174
1.40869
1.40233
1.4008
1.40877
1.42326
1.54259
1.81789
1.92209
1.9033
1.89684
)
;
    }
}


// ************************************************************************* //
