/*--------------------------------*- C++ -*----------------------------------*\
  =========                 |
  \\      /  F ield         | OpenFOAM: The Open Source CFD Toolbox
   \\    /   O peration     | Website:  https://openfoam.org
    \\  /    A nd           | Version:  7
     \\/     M anipulation  |
\*---------------------------------------------------------------------------*/
FoamFile
{
    version     2.0;
    format      ascii;
    class       volScalarField;
    location    "3.7";
    object      rho;
}
// * * * * * * * * * * * * * * * * * * * * * * * * * * * * * * * * * * * * * //

dimensions      [1 -3 0 0 0 0 0];

internalField   nonuniform List<scalar> 
4128
(
2.65306
2.67271
2.68233
2.67892
2.66739
2.65187
2.63281
2.61445
2.6018
2.59765
2.60859
2.63012
2.64893
2.6582
2.65851
2.65262
2.64509
2.64181
2.64944
2.66746
2.68175
2.68446
2.68052
2.67419
2.66821
2.66498
2.66776
2.67952
2.69713
2.71289
2.72032
2.71665
2.70634
2.69541
2.68643
2.68115
2.68236
2.69189
2.70402
2.71164
2.71378
2.71288
2.71066
2.7082
2.70661
2.70695
2.70993
2.71428
2.71364
2.70632
2.69797
2.69068
2.68499
2.68198
2.68354
2.69096
2.69972
2.70189
2.69653
2.68808
2.67548
2.66015
2.64783
2.6402
2.63484
2.63197
2.63583
2.64518
2.64529
2.63922
2.63073
2.61926
2.60978
2.60457
2.60166
2.604
2.61325
2.62038
2.61871
2.61269
2.60332
2.58772
2.56644
2.54916
2.54144
2.53785
2.53997
2.54859
2.55685
2.55943
2.55669
2.55092
2.54005
2.52154
2.49836
2.48209
2.47571
2.4746
2.48273
2.4945
2.498
2.49472
2.48823
2.47662
2.45766
2.43689
2.42408
2.41861
2.41709
2.42434
2.43866
2.45066
2.45586
2.45412
2.44645
2.42888
2.40428
2.38559
2.3742
2.36541
2.36067
2.35866
2.35706
2.35352
2.34807
2.34037
2.3313
2.32649
2.32447
2.67838
2.6863
2.68458
2.67709
2.66957
2.66418
2.66006
2.656
2.65289
2.65362
2.66051
2.67249
2.68501
2.69481
2.70071
2.702
2.69919
2.69629
2.70058
2.71685
2.73628
2.74248
2.73585
2.72541
2.7165
2.71089
2.71061
2.72045
2.74034
2.76122
2.77116
2.76673
2.75651
2.74448
2.73452
2.72709
2.72438
2.7307
2.74432
2.75424
2.75519
2.75177
2.74778
2.74428
2.74168
2.74029
2.741
2.7435
2.73875
2.72922
2.71913
2.71099
2.70469
2.70124
2.70374
2.71279
2.72099
2.72149
2.71654
2.70993
2.70017
2.68572
2.66931
2.65673
2.65004
2.64612
2.64645
2.65361
2.65833
2.65461
2.6482
2.63818
2.62751
2.62146
2.61879
2.6201
2.62569
2.63216
2.63587
2.63413
2.62819
2.61882
2.60274
2.58008
2.55836
2.54561
2.53997
2.53791
2.54177
2.54948
2.55454
2.55491
2.55188
2.54527
2.53188
2.51418
2.50066
2.49448
2.49261
2.49499
2.49878
2.50018
2.49807
2.49313
2.48321
2.46609
2.44764
2.43738
2.43426
2.44006
2.45549
2.46792
2.47112
2.46837
2.46217
2.44775
2.41902
2.38606
2.36415
2.35438
2.35016
2.35077
2.35845
2.36927
2.37826
2.38103
2.37671
2.36459
2.33923
2.71583
2.71892
2.70841
2.69313
2.68206
2.67827
2.68237
2.69262
2.70563
2.71762
2.72547
2.7292
2.73113
2.73485
2.74199
2.75045
2.75721
2.76207
2.76794
2.77894
2.79306
2.79662
2.78579
2.77274
2.76239
2.75595
2.75501
2.76439
2.78588
2.80714
2.81175
2.80637
2.79703
2.78436
2.77304
2.76458
2.75905
2.76081
2.77268
2.78404
2.78552
2.7818
2.77763
2.77439
2.77208
2.77047
2.77069
2.76966
2.76166
2.75103
2.73896
2.72871
2.7222
2.71885
2.72104
2.72721
2.73057
2.73018
2.72774
2.72337
2.71721
2.70808
2.69459
2.67868
2.66738
2.66136
2.65777
2.65907
2.66533
2.66681
2.66294
2.65728
2.6499
2.64386
2.64075
2.63976
2.63946
2.6398
2.64195
2.64396
2.64182
2.63579
2.62692
2.61228
2.59161
2.56848
2.54967
2.54018
2.53619
2.53752
2.54421
2.55137
2.5558
2.55631
2.55305
2.54536
2.53381
2.52049
2.50768
2.49979
2.49602
2.49545
2.49869
2.50121
2.49993
2.49476
2.48462
2.47264
2.46508
2.46291
2.46509
2.46798
2.4677
2.4649
2.45971
2.45018
2.43072
2.40177
2.37313
2.35714
2.35215
2.35148
2.36018
2.37955
2.39793
2.40495
2.40317
2.39577
2.36224
2.75412
2.76511
2.76353
2.75031
2.73507
2.72537
2.72492
2.73499
2.7528
2.77206
2.78504
2.7882
2.78545
2.78328
2.78646
2.79584
2.80843
2.82142
2.83285
2.84159
2.84564
2.84007
2.82601
2.81268
2.80217
2.79575
2.79584
2.80781
2.82987
2.843
2.84091
2.83488
2.82514
2.8123
2.79995
2.79089
2.7845
2.7834
2.79152
2.80137
2.80405
2.80176
2.79859
2.7964
2.79531
2.79515
2.79633
2.79306
2.78469
2.77454
2.76241
2.75066
2.74283
2.73866
2.73781
2.73753
2.73488
2.73179
2.72969
2.72799
2.72465
2.71974
2.71248
2.70108
2.68805
2.67922
2.67371
2.67151
2.67486
2.67906
2.67907
2.67702
2.67358
2.66795
2.66085
2.6547
2.64941
2.64453
2.64168
2.64198
2.64354
2.6421
2.63762
2.63111
2.62093
2.60501
2.5827
2.55874
2.54412
2.53873
2.53667
2.53963
2.54773
2.55638
2.56215
2.56276
2.55821
2.54972
2.53552
2.51664
2.50214
2.49687
2.49512
2.49866
2.50683
2.51392
2.51558
2.51187
2.50354
2.48954
2.47357
2.46442
2.45934
2.45605
2.45169
2.4443
2.43368
2.41995
2.40302
2.38531
2.37321
2.36966
2.37451
2.38866
2.40351
2.41076
2.411
2.4061
2.38093
2.78783
2.80455
2.81797
2.82122
2.81317
2.80325
2.7976
2.79841
2.80567
2.81729
2.82915
2.83576
2.83555
2.83311
2.83368
2.8406
2.8533
2.86819
2.88122
2.88919
2.88586
2.8736
2.85862
2.84514
2.83495
2.82896
2.83056
2.84445
2.86186
2.86502
2.86008
2.85275
2.8424
2.83049
2.82007
2.81194
2.80621
2.80485
2.80964
2.8151
2.81658
2.8153
2.81335
2.81196
2.81127
2.81134
2.81241
2.81109
2.80481
2.79676
2.7874
2.77729
2.76866
2.76136
2.75374
2.74584
2.73847
2.73249
2.72804
2.72547
2.72481
2.72362
2.71986
2.71441
2.70642
2.69916
2.69422
2.69188
2.69359
2.69714
2.69768
2.69529
2.69102
2.68452
2.67472
2.66308
2.65409
2.64789
2.64278
2.63997
2.64066
2.64307
2.64507
2.64538
2.64147
2.63418
2.62158
2.60009
2.57189
2.55006
2.54153
2.53796
2.53824
2.54537
2.55796
2.56844
2.57261
2.56927
2.56188
2.54771
2.52596
2.50711
2.50051
2.49901
2.50397
2.51663
2.52886
2.53363
2.52963
2.51965
2.50075
2.4754
2.45705
2.44738
2.43982
2.4358
2.43531
2.43387
2.43017
2.42335
2.41336
2.40434
2.40028
2.39926
2.40035
2.40371
2.40489
2.40101
2.38739
2.83748
2.85091
2.86976
2.88653
2.89098
2.88488
2.87571
2.86729
2.86124
2.85851
2.86143
2.86922
2.8754
2.87771
2.87966
2.88468
2.89365
2.90343
2.91093
2.91473
2.91064
2.9002
2.88675
2.87332
2.86374
2.85899
2.86132
2.87063
2.8775
2.87567
2.86953
2.86181
2.85247
2.84331
2.8366
2.83187
2.83019
2.83226
2.83511
2.83453
2.83103
2.82731
2.82424
2.8217
2.8196
2.81832
2.81861
2.82034
2.81942
2.81481
2.80932
2.80325
2.7954
2.78472
2.77172
2.75879
2.74747
2.73782
2.7303
2.72517
2.72218
2.72201
2.72233
2.72072
2.71807
2.71549
2.71385
2.71404
2.71656
2.71755
2.71441
2.70916
2.70261
2.69407
2.68252
2.66929
2.65878
2.65203
2.64712
2.644
2.6435
2.64608
2.65032
2.65507
2.65719
2.65379
2.64716
2.63574
2.61438
2.58345
2.55624
2.54399
2.53953
2.53855
2.54455
2.56253
2.57955
2.5844
2.58135
2.57481
2.56069
2.53649
2.51401
2.50609
2.50444
2.50867
2.52406
2.53714
2.53947
2.53501
2.52515
2.50479
2.47331
2.44703
2.43749
2.43435
2.43595
2.44416
2.45245
2.45447
2.4517
2.44386
2.42786
2.40864
2.39921
2.39405
2.38934
2.38932
2.39145
2.89925
2.90512
2.92006
2.94062
2.9515
2.94713
2.93604
2.92172
2.90829
2.89739
2.89132
2.89371
2.90337
2.91275
2.91948
2.92445
2.9279
2.92943
2.92885
2.92651
2.92449
2.92153
2.91389
2.90435
2.89559
2.88965
2.88681
2.88449
2.88056
2.87648
2.87169
2.86582
2.85992
2.85483
2.85183
2.85226
2.85778
2.86451
2.86398
2.85734
2.84862
2.8397
2.83293
2.82771
2.82344
2.82078
2.82087
2.8243
2.82795
2.82909
2.82698
2.8223
2.81489
2.80442
2.79065
2.77614
2.76396
2.7536
2.74388
2.73528
2.72912
2.72547
2.72415
2.72442
2.72515
2.72629
2.72857
2.7321
2.73426
2.73186
2.7267
2.72049
2.71269
2.70269
2.69107
2.67906
2.66843
2.66084
2.65648
2.6547
2.65504
2.65637
2.65818
2.66144
2.66578
2.66725
2.66324
2.65676
2.64597
2.62518
2.59302
2.56231
2.54722
2.54207
2.54243
2.55547
2.5774
2.5913
2.59451
2.592
2.58578
2.57154
2.54605
2.52078
2.51053
2.50806
2.51167
2.52517
2.53911
2.54142
2.53772
2.52884
2.50946
2.47934
2.4546
2.44595
2.4444
2.44955
2.46282
2.47258
2.47203
2.46612
2.45428
2.43195
2.4053
2.38931
2.38413
2.38324
2.39322
2.95539
2.95692
2.96743
2.98521
2.99188
2.98535
2.9756
2.961
2.9428
2.92923
2.91932
2.91566
2.92398
2.93989
2.95285
2.95812
2.95489
2.94817
2.94156
2.93561
2.93186
2.93317
2.93635
2.93368
2.92763
2.91802
2.90511
2.89219
2.88268
2.87586
2.87153
2.86954
2.86808
2.86722
2.86885
2.87468
2.88287
2.88686
2.88357
2.87687
2.86798
2.85645
2.84448
2.83585
2.83021
2.82644
2.82634
2.83006
2.83458
2.83864
2.83966
2.83493
2.8278
2.81884
2.80693
2.79286
2.78156
2.77398
2.76698
2.75934
2.75073
2.74234
2.73636
2.73284
2.73132
2.73238
2.73657
2.74105
2.74114
2.73784
2.73375
2.72883
2.72283
2.71526
2.70738
2.69978
2.6917
2.68332
2.6764
2.67245
2.67032
2.66847
2.6665
2.66524
2.6666
2.67111
2.67324
2.6697
2.66356
2.65359
2.6341
2.60306
2.57319
2.55902
2.55488
2.55658
2.56757
2.58528
2.59838
2.60155
2.59892
2.59217
2.57799
2.55394
2.52914
2.51655
2.51308
2.51642
2.52804
2.54122
2.5446
2.5422
2.53546
2.52047
2.49556
2.47143
2.46128
2.4589
2.46316
2.47362
2.47676
2.47326
2.4663
2.45345
2.4309
2.40676
2.39443
2.39133
2.39927
2.99579
2.99784
3.00706
3.0176
3.01521
3.00735
2.99781
2.9842
2.96744
2.95353
2.9437
2.93937
2.9481
2.96839
2.98263
2.98198
2.97534
2.96478
2.95277
2.94525
2.93983
2.94021
2.94963
2.95491
2.95049
2.94114
2.92569
2.906
2.89103
2.88263
2.87746
2.87699
2.88059
2.88478
2.88964
2.89474
2.89709
2.89527
2.89179
2.88782
2.88194
2.87374
2.86226
2.85132
2.84457
2.84135
2.8414
2.8431
2.84409
2.84495
2.84654
2.84507
2.83908
2.83176
2.82225
2.80932
2.79816
2.79288
2.78879
2.78455
2.77894
2.77105
2.76056
2.75045
2.74433
2.7414
2.74201
2.74447
2.74306
2.7397
2.73653
2.73405
2.73232
2.73104
2.73074
2.73072
2.72819
2.72186
2.71096
2.69639
2.68368
2.67659
2.67201
2.66799
2.66553
2.66723
2.67409
2.67758
2.67499
2.6696
2.66098
2.64461
2.61895
2.59191
2.57545
2.56948
2.56927
2.57785
2.59133
2.60188
2.60438
2.60205
2.59633
2.58489
2.56556
2.54307
2.52837
2.52378
2.5249
2.53324
2.54365
2.54856
2.54811
2.54321
2.53168
2.51211
2.48811
2.4725
2.46771
2.46601
2.47053
2.47567
2.47333
2.4683
2.45941
2.4436
2.42412
2.41405
2.4142
3.02279
3.02587
3.036
3.03855
3.03069
3.02107
3.00967
2.99752
2.98653
2.97743
2.97106
2.97089
2.98287
3.00065
3.00558
2.99927
2.99059
2.97712
2.96286
2.95464
2.94864
2.94814
2.95869
2.96707
2.96393
2.95712
2.94624
2.92931
2.91231
2.90187
2.89641
2.89622
2.90088
2.90494
2.90623
2.90432
2.89993
2.89504
2.89081
2.88825
2.88733
2.88489
2.8799
2.87401
2.86861
2.86514
2.86277
2.85989
2.85612
2.85233
2.85049
2.85243
2.85198
2.84673
2.8397
2.82932
2.81688
2.80994
2.806
2.80303
2.80017
2.79562
2.78831
2.77788
2.76702
2.75932
2.7548
2.75119
2.74662
2.74254
2.7394
2.73802
2.74043
2.74732
2.75587
2.76224
2.76267
2.75789
2.74763
2.72811
2.70294
2.68437
2.67493
2.66952
2.66551
2.6642
2.66907
2.67711
2.68103
2.68062
2.67704
2.67083
2.65887
2.6387
2.61342
2.59268
2.58379
2.58103
2.58222
2.58858
2.60079
2.60788
2.60788
2.60392
2.59673
2.5835
2.56395
2.54508
2.53727
2.53519
2.5372
2.54534
2.55021
2.54963
2.54611
2.53822
2.52276
2.49952
2.47862
2.47058
2.46865
2.4719
2.4794
2.48306
2.48139
2.47691
2.4664
2.44951
2.43269
3.03744
3.03825
3.04912
3.04981
3.0416
3.03058
3.01747
3.00883
3.00277
2.99869
2.99866
3.00609
3.01993
3.02687
3.02055
3.01136
2.99949
2.98447
2.9723
2.96487
2.95935
2.95948
2.96953
2.97691
2.97417
2.96902
2.9631
2.95434
2.94293
2.93343
2.92795
2.92685
2.92682
2.92261
2.91592
2.90851
2.90115
2.89476
2.8896
2.88668
2.88837
2.89458
2.89995
2.90093
2.89765
2.89089
2.88198
2.87376
2.86746
2.86184
2.85767
2.85929
2.86546
2.86454
2.85912
2.85101
2.83868
2.82655
2.82021
2.81564
2.81198
2.80891
2.80535
2.80074
2.79494
2.78709
2.77723
2.76684
2.75815
2.75214
2.74816
2.74619
2.75064
2.76334
2.77665
2.7827
2.7816
2.77735
2.77056
2.7562
2.73201
2.70508
2.68491
2.67391
2.66845
2.66512
2.66593
2.67252
2.67898
2.68298
2.68535
2.68528
2.68151
2.67415
2.65949
2.63602
2.609
2.59164
2.58598
2.58556
2.59227
2.60471
2.61487
2.61932
2.61798
2.61333
2.60326
2.5834
2.55702
2.54112
2.5366
2.53425
2.53758
2.54824
2.5521
2.54942
2.54346
2.53093
2.50988
2.48913
2.48029
2.4786
2.48257
2.49249
2.49898
2.49824
2.49383
2.48355
2.45285
3.04518
3.04275
3.05377
3.05795
3.05155
3.04164
3.02981
3.02324
3.01898
3.01728
3.02152
3.03502
3.04636
3.04247
3.03291
3.02029
3.00464
2.9906
2.9823
2.97622
2.9731
2.97691
2.98699
2.98992
2.9856
2.98093
2.97712
2.97387
2.97019
2.96647
2.96388
2.95959
2.95114
2.9403
2.92864
2.9174
2.90739
2.89961
2.89379
2.89048
2.89518
2.90906
2.92041
2.92196
2.91778
2.90952
2.89642
2.88478
2.87767
2.87204
2.86808
2.87073
2.88041
2.88222
2.87754
2.87057
2.8592
2.84388
2.83225
2.82562
2.8203
2.81639
2.81583
2.81976
2.8204
2.81497
2.80525
2.792
2.77909
2.77
2.76462
2.76209
2.76486
2.7759
2.78636
2.78855
2.7866
2.7832
2.77823
2.76997
2.75603
2.73667
2.71426
2.69355
2.67973
2.67306
2.67004
2.67107
2.67498
2.67883
2.68421
2.69122
2.69658
2.69545
2.68981
2.67734
2.65389
2.62386
2.60263
2.59558
2.59352
2.59657
2.60999
2.62561
2.63133
2.62964
2.62484
2.61464
2.59226
2.5608
2.53921
2.53288
2.53224
2.53824
2.55036
2.55735
2.55645
2.55233
2.54325
2.52549
2.50504
2.49586
2.49356
2.49628
2.50361
2.50637
2.50296
2.49547
2.47045
3.05549
3.05203
3.06218
3.06856
3.06434
3.05703
3.04785
3.0416
3.03727
3.03507
3.03887
3.05327
3.06116
3.05422
3.04394
3.02926
3.01207
3.00011
2.993
2.98833
2.98855
2.99785
3.00702
3.00449
2.99833
2.99276
2.98829
2.98581
2.98607
2.99
2.99069
2.98402
2.97356
2.9604
2.94599
2.93256
2.92125
2.91261
2.9068
2.90509
2.91395
2.93019
2.93735
2.93408
2.92831
2.91846
2.90402
2.89341
2.88754
2.88285
2.88128
2.88845
2.89843
2.8975
2.89218
2.8847
2.87255
2.85674
2.84433
2.83636
2.83047
2.82682
2.82926
2.83818
2.84061
2.83636
2.82883
2.81673
2.80303
2.79309
2.78657
2.7826
2.78191
2.78601
2.78908
2.78716
2.78402
2.78089
2.77693
2.77199
2.76616
2.75827
2.74599
2.7288
2.70974
2.69351
2.68354
2.67905
2.6765
2.67659
2.68096
2.68991
2.70074
2.70665
2.70584
2.70104
2.69065
2.66985
2.63899
2.61182
2.60087
2.59838
2.60461
2.62122
2.63439
2.63626
2.63339
2.62806
2.61734
2.59526
2.56522
2.54493
2.53862
2.53785
2.54535
2.55816
2.56509
2.56535
2.56268
2.55598
2.54029
2.51818
2.50512
2.50093
2.49936
2.50037
2.49868
2.49409
2.48253
3.07499
3.07532
3.08331
3.0854
3.08107
3.07501
3.0675
3.06052
3.05495
3.05131
3.05313
3.06581
3.07239
3.06552
3.05591
3.04278
3.02792
3.01657
3.00884
3.0044
3.0065
3.01773
3.02215
3.01671
3.00962
3.00204
2.99637
2.99235
2.99174
2.99892
3.00453
2.99967
2.99158
2.98024
2.96584
2.95208
2.94198
2.93468
2.93
2.93101
2.9423
2.95194
2.94889
2.94235
2.93354
2.92093
2.90837
2.90184
2.89739
2.89522
2.89983
2.91262
2.91724
2.91241
2.90462
2.89332
2.87827
2.8643
2.85552
2.84929
2.84486
2.84477
2.85232
2.85934
2.85734
2.85218
2.84517
2.83429
2.82245
2.81438
2.80773
2.80275
2.80128
2.79888
2.79328
2.78786
2.78234
2.77719
2.77328
2.77092
2.77025
2.76971
2.76634
2.76016
2.74937
2.73369
2.71414
2.69646
2.68757
2.68422
2.68308
2.68621
2.69521
2.70723
2.71388
2.71288
2.70803
2.69839
2.67943
2.6506
2.62411
2.6129
2.61056
2.61529
2.62643
2.63455
2.63536
2.63273
2.62817
2.6198
2.60335
2.57906
2.55868
2.55113
2.54984
2.55485
2.5659
2.57332
2.57368
2.57015
2.56194
2.54424
2.52063
2.50472
2.49764
2.49324
2.49148
2.49537
2.49339
3.10715
3.11667
3.11727
3.10979
3.10163
3.09282
3.08464
3.07677
3.07003
3.06614
3.06917
3.08215
3.08675
3.0801
3.07146
3.06124
3.04997
3.03965
3.03107
3.02565
3.02624
3.03229
3.03101
3.02491
3.01794
3.00956
3.00238
2.99715
2.99473
3.00055
3.01029
3.00954
3.0039
2.99537
2.98286
2.97056
2.96296
2.95795
2.956
2.962
2.97249
2.97072
2.96263
2.95164
2.93731
2.92231
2.91365
2.90889
2.90602
2.90894
2.92306
2.93611
2.93499
2.92867
2.91761
2.89974
2.88113
2.87089
2.86526
2.86133
2.86209
2.87128
2.88075
2.87974
2.87413
2.86684
2.85677
2.84496
2.83527
2.82884
2.82417
2.82267
2.82138
2.81509
2.80661
2.79684
2.78634
2.77818
2.77365
2.77093
2.77012
2.77244
2.77774
2.78088
2.77828
2.77101
2.75658
2.73373
2.71076
2.69889
2.69439
2.69212
2.69327
2.7015
2.71143
2.71331
2.71074
2.70668
2.70041
2.68821
2.66816
2.64397
2.62833
2.62389
2.62336
2.62741
2.63278
2.63541
2.6349
2.63254
2.62802
2.61692
2.59726
2.5757
2.56457
2.56195
2.56406
2.57117
2.57282
2.56987
2.56443
2.55402
2.53647
2.51587
2.50183
2.49577
2.49347
2.49837
2.50755
3.14864
3.1578
3.1494
3.13599
3.1201
3.10638
3.09725
3.08863
3.0818
3.08023
3.08948
3.10394
3.10497
3.09833
3.0903
3.08123
3.07238
3.06468
3.05733
3.05154
3.05009
3.04601
3.03837
3.03156
3.02489
3.01749
3.01013
3.00431
3.00118
3.00501
3.01509
3.0169
3.01246
3.00593
2.99597
2.98619
2.98069
2.97757
2.97924
2.99075
2.99713
2.99095
2.98061
2.96532
2.9458
2.9304
2.92268
2.91815
2.91681
2.92548
2.94392
2.95238
2.94907
2.9428
2.93047
2.90965
2.8914
2.88311
2.87848
2.8775
2.88594
2.89907
2.90094
2.89574
2.88818
2.87665
2.86182
2.85056
2.84427
2.83963
2.83859
2.84235
2.84
2.83292
2.8236
2.81082
2.7957
2.78368
2.7775
2.77398
2.77152
2.77224
2.78117
2.79318
2.7982
2.79602
2.7897
2.77546
2.75026
2.72317
2.70767
2.70151
2.69785
2.6968
2.6988
2.70414
2.7092
2.71222
2.71271
2.71035
2.70421
2.68969
2.66568
2.643
2.63349
2.63038
2.63062
2.63413
2.63761
2.6395
2.63867
2.63537
2.62711
2.61041
2.58827
2.57192
2.56609
2.56311
2.56244
2.56323
2.56003
2.55405
2.5451
2.53118
2.5168
2.51
2.50762
2.51226
2.527
3.18553
3.18425
3.17194
3.15396
3.13212
3.11697
3.10782
3.09941
3.09427
3.09876
3.11489
3.12568
3.12296
3.11665
3.10894
3.09958
3.09138
3.08491
3.08022
3.07923
3.07682
3.06654
3.05258
3.04119
3.03466
3.02865
3.02262
3.01753
3.01465
3.01746
3.02524
3.02538
3.02071
3.01478
3.00702
2.99987
2.99552
2.99375
2.99869
3.01187
3.01521
3.00896
2.99914
2.98349
2.96406
2.94998
2.94166
2.93615
2.93489
2.9435
2.95686
2.95939
2.95579
2.9499
2.93884
2.92331
2.91109
2.90395
2.90052
2.90352
2.91438
2.91821
2.91319
2.90608
2.89546
2.87903
2.86325
2.85561
2.85097
2.84895
2.85415
2.86127
2.85847
2.85219
2.84274
2.82767
2.80824
2.79238
2.7844
2.77998
2.77666
2.77635
2.78574
2.80195
2.81082
2.81065
2.80767
2.80143
2.78554
2.75801
2.73012
2.71186
2.70246
2.69703
2.69483
2.7013
2.71182
2.71858
2.72258
2.72545
2.72519
2.72061
2.70797
2.68407
2.65661
2.64122
2.63669
2.63435
2.63408
2.63586
2.63809
2.63882
2.63617
2.62931
2.61573
2.59479
2.57308
2.56135
2.5574
2.55504
2.55553
2.55485
2.55171
2.54715
2.54077
2.53603
2.53451
2.53872
2.54774
3.20737
3.19932
3.18455
3.16324
3.14125
3.12746
3.11856
3.11185
3.11236
3.12598
3.1401
3.14133
3.13629
3.13031
3.12324
3.11438
3.10595
3.10006
3.09921
3.10584
3.10538
3.09561
3.07921
3.06023
3.04994
3.04386
3.0384
3.03414
3.03281
3.03835
3.04331
3.03913
3.03291
3.02638
3.02017
3.01471
3.01105
3.01046
3.0177
3.02924
3.02946
3.02346
3.01522
3.00283
2.98807
2.97746
2.97046
2.96486
2.96214
2.96495
2.96657
2.96196
2.95706
2.95097
2.9426
2.9356
2.93172
2.92933
2.9312
2.93855
2.93884
2.93174
2.92246
2.91112
2.89563
2.8774
2.86604
2.86085
2.85786
2.86045
2.87253
2.87933
2.87603
2.87034
2.861
2.84356
2.82045
2.80221
2.79218
2.78651
2.78307
2.78384
2.79541
2.81167
2.81835
2.81729
2.81487
2.81123
2.80212
2.78311
2.75852
2.73429
2.71603
2.70724
2.70453
2.70917
2.7192
2.72591
2.73006
2.73408
2.73704
2.73533
2.73001
2.71786
2.69434
2.66421
2.64328
2.63518
2.63069
2.62778
2.6278
2.63238
2.63465
2.63264
2.62742
2.61674
2.59807
2.57598
2.56107
2.55622
2.55455
2.55578
2.56002
2.56408
2.56716
2.5701
2.57047
2.56748
2.56095
3.22228
3.21051
3.19156
3.17014
3.15264
3.14024
3.1324
3.13074
3.14139
3.15641
3.1578
3.1511
3.14459
3.13915
3.13395
3.12711
3.12016
3.11687
3.12183
3.13185
3.13115
3.12371
3.11006
3.08812
3.06949
3.06047
3.05409
3.04947
3.0512
3.06283
3.0651
3.05877
3.04985
3.04269
3.03755
3.03299
3.02999
3.03054
3.03867
3.045
3.04087
3.03454
3.02712
3.01759
3.00816
3.00226
2.99789
2.99501
2.99366
2.98954
2.9806
2.96956
2.95814
2.94894
2.94455
2.94251
2.94313
2.9503
2.96037
2.96217
2.95603
2.94566
2.93123
2.91365
2.8951
2.88066
2.87304
2.86848
2.86749
2.87565
2.88865
2.8918
2.8884
2.88326
2.87404
2.85568
2.83387
2.8177
2.80631
2.79852
2.79465
2.79712
2.80916
2.81945
2.82081
2.81872
2.81625
2.81238
2.80351
2.79173
2.7792
2.76477
2.74859
2.73503
2.72853
2.72811
2.73108
2.73348
2.73448
2.73447
2.73482
2.7366
2.73517
2.72928
2.71825
2.69691
2.6651
2.63838
2.62721
2.62263
2.61969
2.6185
2.62519
2.63318
2.63256
2.62845
2.62054
2.60462
2.58318
2.56915
2.56569
2.56655
2.57307
2.58355
2.59185
2.59475
2.59262
2.5874
2.5702
3.24139
3.22122
3.19939
3.18342
3.17087
3.16016
3.15597
3.1632
3.17788
3.17893
3.16967
3.15916
3.151
3.14513
3.141
3.13835
3.13765
3.14302
3.15362
3.15708
3.15236
3.14555
3.13341
3.11253
3.09029
3.07576
3.06785
3.06365
3.06919
3.08342
3.08393
3.07771
3.06818
3.06072
3.0562
3.05218
3.0496
3.05227
3.06163
3.06181
3.05506
3.0467
3.03681
3.02655
3.01999
3.01575
3.01291
3.01322
3.0165
3.01226
3.00267
2.98833
2.96916
2.95406
2.94886
2.94706
2.95041
2.96411
2.97338
2.97055
2.96478
2.95534
2.93923
2.9193
2.90384
2.89506
2.88907
2.88584
2.88856
2.89772
2.90153
2.89832
2.89387
2.88805
2.87618
2.85955
2.84661
2.83753
2.82885
2.82159
2.81861
2.82232
2.82618
2.82401
2.82122
2.81918
2.81576
2.80582
2.79544
2.7915
2.78983
2.78922
2.78691
2.78016
2.76819
2.75406
2.74394
2.73785
2.73212
2.72662
2.72324
2.7245
2.72952
2.72878
2.72354
2.71416
2.69359
2.65961
2.63187
2.6214
2.617
2.61487
2.61698
2.62819
2.63957
2.64107
2.63831
2.63258
2.61996
2.60035
2.58744
2.58519
2.58777
2.59627
2.60288
2.60177
2.59799
2.59282
2.57369
3.26161
3.23353
3.21537
3.20541
3.19579
3.19072
3.19614
3.20904
3.20909
3.19875
3.18289
3.1663
3.15648
3.14994
3.1461
3.14781
3.16042
3.17955
3.18674
3.18034
3.17115
3.15927
3.14259
3.12346
3.10767
3.09477
3.08602
3.08309
3.09042
3.0992
3.096
3.08944
3.08035
3.07351
3.06928
3.06577
3.06464
3.07193
3.08163
3.07878
3.07157
3.06093
3.04584
3.03159
3.02347
3.01862
3.01581
3.01601
3.02231
3.0247
3.01943
3.01027
2.99439
2.97391
2.96041
2.95607
2.95645
2.9649
2.9712
2.96829
2.96328
2.95549
2.94206
2.92776
2.9197
2.91453
2.91174
2.91426
2.92029
2.91768
2.91015
2.90216
2.89467
2.88496
2.87017
2.8594
2.85477
2.85133
2.85032
2.85437
2.85939
2.85589
2.84539
2.83334
2.82421
2.81532
2.80274
2.79239
2.78817
2.78752
2.79303
2.80642
2.81613
2.81577
2.8079
2.7886
2.75844
2.73426
2.72186
2.71494
2.71096
2.70938
2.71535
2.72541
2.72602
2.72186
2.71303
2.69185
2.65777
2.63224
2.62315
2.61977
2.61858
2.62516
2.64129
2.65231
2.65482
2.65409
2.65085
2.64139
2.62197
2.60596
2.60209
2.60034
2.60025
2.59898
2.59529
2.59063
2.57442
3.27802
3.24915
3.23619
3.22963
3.22565
3.23247
3.24829
3.24932
3.23921
3.22304
3.19911
3.17599
3.16299
3.1556
3.15168
3.15916
3.18518
3.20664
3.20547
3.1968
3.18303
3.16214
3.14079
3.12745
3.11981
3.1136
3.11078
3.11546
3.12161
3.11646
3.10703
3.09649
3.08532
3.07795
3.07353
3.07052
3.07183
3.08412
3.09441
3.09186
3.08543
3.07504
3.05715
3.03676
3.02312
3.01615
3.01223
3.01129
3.01825
3.0272
3.02685
3.02301
3.01557
3.00176
2.98484
2.97249
2.96678
2.96453
2.96468
2.96236
2.9576
2.95123
2.94205
2.93588
2.93255
2.93142
2.9363
2.94541
2.94495
2.93728
2.92553
2.90901
2.89006
2.8737
2.86366
2.85945
2.85702
2.85824
2.86923
2.88738
2.894
2.88839
2.87551
2.85372
2.82764
2.80619
2.791
2.78383
2.78169
2.78367
2.79766
2.81934
2.83095
2.83064
2.82628
2.81299
2.77855
2.73512
2.71367
2.7068
2.70229
2.69967
2.70418
2.71959
2.7282
2.72729
2.72361
2.71469
2.69353
2.66246
2.64058
2.63253
2.62975
2.63174
2.64446
2.66101
2.66862
2.66937
2.66757
2.66387
2.65286
2.62861
2.6068
2.5985
2.59442
2.59171
2.58942
2.58601
2.57484
3.29656
3.27016
3.25854
3.25307
3.25582
3.27486
3.28692
3.27962
3.26742
3.24773
3.22012
3.19448
3.17738
3.1674
3.16337
3.17411
3.20227
3.21696
3.2124
3.20324
3.18606
3.15836
3.13788
3.13066
3.12589
3.12681
3.14027
3.15501
3.15366
3.1432
3.12593
3.1059
3.08931
3.07828
3.0724
3.06955
3.07378
3.08917
3.09956
3.097
3.09151
3.08324
3.06786
3.04695
3.0286
3.01703
3.01085
3.00846
3.01456
3.02509
3.02764
3.02598
3.02264
3.01638
3.0076
2.99677
2.98404
2.97394
2.9667
2.96039
2.95427
2.94788
2.94327
2.94032
2.93891
2.94266
2.95534
2.96319
2.95966
2.95298
2.94209
2.92125
2.8903
2.86789
2.86139
2.85815
2.85685
2.86383
2.88472
2.9055
2.9091
2.90506
2.89717
2.87734
2.83832
2.80083
2.78603
2.78175
2.77916
2.78276
2.80091
2.82302
2.83144
2.83053
2.8274
2.81666
2.79059
2.75165
2.72204
2.70667
2.6994
2.69597
2.7006
2.71812
2.73074
2.7318
2.7299
2.72578
2.71672
2.69735
2.67363
2.65625
2.64835
2.64642
2.65316
2.66801
2.67444
2.67394
2.67224
2.66977
2.66306
2.64598
2.62117
2.60168
2.59174
2.58716
2.58412
2.58092
2.57527
3.31393
3.3019
3.28655
3.27984
3.28787
3.30426
3.3049
3.29548
3.28361
3.26434
3.2397
3.22095
3.20685
3.19552
3.19046
3.19618
3.20928
3.21301
3.20818
3.19795
3.18016
3.15522
3.13964
3.13457
3.13231
3.14205
3.16626
3.17837
3.17464
3.16639
3.14882
3.12444
3.10368
3.08668
3.07606
3.07267
3.07792
3.09113
3.09678
3.09345
3.08819
3.08034
3.06901
3.05661
3.04387
3.03203
3.02381
3.02046
3.02357
3.02832
3.02821
3.02585
3.02339
3.01935
3.01423
3.00805
3.00042
2.99142
2.98046
2.96875
2.9585
2.95182
2.94812
2.94564
2.94508
2.95161
2.96524
2.9695
2.96516
2.95888
2.94895
2.92934
2.89938
2.8776
2.86921
2.86515
2.86473
2.87472
2.89649
2.91131
2.91166
2.90821
2.90256
2.88697
2.85364
2.81764
2.79773
2.7898
2.78697
2.79198
2.80938
2.82246
2.82508
2.82385
2.81821
2.80623
2.78455
2.7618
2.74433
2.7308
2.72146
2.71846
2.7248
2.7351
2.73603
2.73382
2.73342
2.73237
2.72468
2.71297
2.70154
2.68876
2.67633
2.66876
2.66713
2.66753
2.66751
2.66941
2.66884
2.66429
2.65714
2.64747
2.6354
2.6202
2.6032
2.5903
2.58418
2.58158
2.57908
3.30485
3.3159
3.30703
3.31524
3.33052
3.33035
3.31741
3.30043
3.28488
3.26679
3.2511
3.2434
3.23507
3.23
3.2328
3.2298
3.2179
3.20854
3.19982
3.1879
3.17281
3.15698
3.14732
3.14383
3.14601
3.162
3.18109
3.18359
3.17901
3.1724
3.15911
3.14258
3.12791
3.11314
3.09919
3.09137
3.09084
3.09182
3.08834
3.08449
3.07883
3.07071
3.06304
3.05882
3.05512
3.0519
3.05272
3.0572
3.05351
3.04409
3.03616
3.02945
3.02071
3.01436
3.01007
3.00746
3.00666
3.00351
2.99615
2.984
2.97006
2.96208
2.95818
2.95553
2.95491
2.96086
2.97126
2.97141
2.96622
2.95972
2.94982
2.93235
2.90864
2.89153
2.88374
2.87994
2.88027
2.88978
2.90477
2.91013
2.90767
2.90375
2.89643
2.88148
2.85901
2.83814
2.82259
2.81156
2.80796
2.81235
2.81926
2.81728
2.81216
2.80557
2.7975
2.78644
2.7727
2.76383
2.76089
2.76005
2.76415
2.76835
2.76482
2.75531
2.74603
2.74051
2.73418
2.72182
2.71402
2.71132
2.70931
2.70885
2.70641
2.69783
2.68341
2.67072
2.66552
2.66143
2.65451
2.64832
2.64564
2.64358
2.64044
2.63546
2.62508
2.60851
2.59333
2.5881
2.58648
3.24645
3.29333
3.30924
3.33816
3.35374
3.34737
3.33226
3.30862
3.28417
3.26623
3.25771
3.25316
3.25014
3.25666
3.26798
3.2627
3.24732
3.22177
3.19631
3.18166
3.17241
3.16518
3.16034
3.1597
3.16611
3.17765
3.18071
3.17644
3.17182
3.1647
3.15542
3.14939
3.14426
3.14268
3.14229
3.13475
3.11919
3.10016
3.08444
3.07251
3.06351
3.05816
3.05547
3.05479
3.05884
3.07117
3.08919
3.09707
3.09083
3.07407
3.04833
3.02639
3.01492
3.00959
3.00547
3.00392
3.00953
3.01237
3.00841
2.9989
2.98321
2.97292
2.96901
2.96654
2.96582
2.97045
2.97753
2.97529
2.96997
2.96311
2.95232
2.9353
2.91625
2.90469
2.89923
2.89681
2.89932
2.90676
2.90832
2.9042
2.89946
2.89364
2.8855
2.87372
2.86027
2.85249
2.84843
2.84572
2.8418
2.83464
2.82457
2.81389
2.80474
2.79508
2.78387
2.77245
2.76707
2.76671
2.77272
2.78884
2.80544
2.80785
2.80093
2.78449
2.76046
2.739
2.72154
2.70891
2.70378
2.70223
2.70523
2.71756
2.72391
2.71988
2.70876
2.68937
2.66807
2.65258
2.64325
2.63829
2.63627
2.63757
2.64417
2.64667
2.64415
2.63694
2.62216
2.60248
2.58634
3.04321
3.17788
3.25932
3.32531
3.3462
3.33973
3.33228
3.31302
3.29187
3.27891
3.26759
3.2613
3.26209
3.2735
3.28151
3.27634
3.26491
3.24083
3.21025
3.19359
3.18492
3.18084
3.18343
3.18985
3.19062
3.18385
3.17304
3.16158
3.15231
3.14738
3.14591
3.14566
3.15078
3.16605
3.17816
3.17467
3.16038
3.13122
3.09283
3.0666
3.05678
3.05258
3.04977
3.0527
3.07088
3.10151
3.12382
3.12409
3.11556
3.0942
3.05523
3.02371
3.01405
3.00917
3.00529
3.0064
3.0181
3.02378
3.02105
3.01402
2.99885
2.98388
2.97768
2.97453
2.97316
2.9759
2.9814
2.98064
2.97708
2.97202
2.96281
2.94596
2.92734
2.91735
2.9129
2.9128
2.91531
2.91349
2.90924
2.90322
2.89581
2.88767
2.87877
2.87094
2.86723
2.86615
2.87006
2.87078
2.86447
2.85316
2.83668
2.81833
2.8025
2.78939
2.77652
2.76968
2.76813
2.77265
2.79103
2.81485
2.82409
2.82195
2.81687
2.8043
2.77494
2.73613
2.71118
2.70124
2.69792
2.69642
2.70354
2.72408
2.73471
2.73312
2.72723
2.71075
2.67742
2.64826
2.63667
2.63294
2.63104
2.63411
2.64655
2.65544
2.6568
2.65484
2.64644
2.6243
2.58906
2.64394
2.84288
3.04203
3.18983
3.28633
3.29782
3.31142
3.30501
3.29407
3.28996
3.28506
3.28427
3.28906
3.28825
3.28258
3.27418
3.26159
3.24277
3.22444
3.21409
3.20743
3.20752
3.218
3.22014
3.21128
3.19536
3.17235
3.15183
3.14
3.13413
3.13151
3.13628
3.15601
3.18431
3.19613
3.19095
3.17949
3.15685
3.11672
3.07766
3.06052
3.05516
3.05297
3.0616
3.09146
3.12416
3.12877
3.12313
3.11298
3.09225
3.05579
3.02568
3.01479
3.00952
3.00691
3.014
3.03092
3.03721
3.03472
3.02923
3.01753
2.99918
2.98553
2.97898
2.97557
2.97541
2.97972
2.98273
2.98222
2.97933
2.97362
2.96156
2.94617
2.93646
2.93118
2.92649
2.91984
2.91247
2.90595
2.89977
2.89251
2.8846
2.87909
2.87676
2.87686
2.8829
2.88964
2.88647
2.87881
2.86721
2.84905
2.82506
2.80235
2.78723
2.77968
2.77624
2.77591
2.78518
2.80733
2.82316
2.82382
2.82093
2.81559
2.80397
2.77903
2.73895
2.70931
2.69999
2.69647
2.69598
2.70818
2.7313
2.74017
2.73878
2.73498
2.72275
2.69073
2.65257
2.63778
2.63369
2.63151
2.63394
2.64666
2.6587
2.66158
2.66054
2.65617
2.6416
2.59961
2.23522
2.35755
2.53554
2.72331
2.93259
3.07651
3.18656
3.25077
3.25902
3.2781
3.30172
3.31195
3.31144
3.30069
3.28638
3.26892
3.24762
3.23265
3.22916
3.22725
3.22606
3.23393
3.24308
3.23689
3.22601
3.2089
3.1802
3.15189
3.13571
3.12816
3.12474
3.13232
3.16286
3.19409
3.19679
3.18923
3.17772
3.16125
3.13701
3.10723
3.08387
3.07231
3.06947
3.07979
3.10323
3.11531
3.11574
3.11139
3.102
3.08168
3.05362
3.03053
3.01694
3.0111
3.0112
3.02436
3.04131
3.0445
3.04161
3.03642
3.02671
3.01246
2.99668
2.98342
2.97602
2.97298
2.97407
2.97898
2.98118
2.97892
2.97416
2.96698
2.96176
2.95802
2.95149
2.94073
2.92692
2.91263
2.90081
2.89167
2.8844
2.88044
2.87866
2.87817
2.88325
2.89721
2.90262
2.89845
2.89057
2.87747
2.85517
2.82559
2.80242
2.79209
2.78756
2.78539
2.78769
2.79998
2.8158
2.8188
2.81595
2.81227
2.80668