/*--------------------------------*- C++ -*----------------------------------*\
  =========                 |
  \\      /  F ield         | OpenFOAM: The Open Source CFD Toolbox
   \\    /   O peration     | Website:  https://openfoam.org
    \\  /    A nd           | Version:  7
     \\/     M anipulation  |
\*---------------------------------------------------------------------------*/
FoamFile
{
    version     2.0;
    format      ascii;
    class       volScalarField;
    location    "1.3";
    object      p;
}
// * * * * * * * * * * * * * * * * * * * * * * * * * * * * * * * * * * * * * //

dimensions      [1 -1 -2 0 0 0 0];

internalField   nonuniform List<scalar> 
16512
(
1
1
1
1
1
1
1
1
1
1
1
1
1
1
1
1
1
1
1
1
1
1
1
1
1
1
1
1
1
1
1
1
1
1
1
1
6.31764
10.5916
10.7618
10.955
11.1457
11.3248
11.4924
11.6459
11.7852
11.9004
11.9901
12.0547
1
1
1
1
1
1
1
1
1
1
1
1
1
1
1
1
1
1
1
1
1
1
1
1
1
1
1
1
1
1
1
1
1
1
1
1
6.1424
10.5337
10.7358
10.9265
11.1166
11.2914
11.4533
11.5999
11.7321
11.8403
11.9229
11.984
1
1
1
1
1
1
1
1
1
1
1
1
1
1
1
1
1
1
1
1
1
1
1
1
1
1
1
1
1
1
1
1
1
1
1
1
5.7845
10.4616
10.687
10.8737
11.0626
11.2325
11.3885
11.5284
11.6539
11.7562
11.8314
11.8929
1
1
1
1
1
1
1
1
1
1
1
1
1
1
1
1
1
1
1
1
1
1
1
1
1
1
1
1
1
1
1
1
1
1
1
1
5.26368
10.3371
10.6204
10.8017
10.9892
11.1533
11.3032
11.4356
11.5504
11.6375
11.6904
11.7288
1
1
1
1
1
1
1
1
1
1
1
1
1
1
1
1
1
1
1
1
1
1
1
1
1
1
1
1
1
1
1
1
1
1
1
1
4.59776
10.1248
10.5313
10.7036
10.8828
11.0329
11.1651
11.2755
11.3661
11.4384
11.4815
11.5387
1
1
1
1
1
1
1
1
1
1
1
1
1
1
1
1
1
1
1
1
1
1
1
1
1
1
1
1
1
1
1
1
1
1
1
1
3.81409
9.77936
10.4279
10.5905
10.7574
10.8884
10.9979
11.0886
11.1625
11.2197
11.2285
11.1916
1
1
1
1
1
1
1
1
1
1
1
1
1
1
1
1
1
1
1
1
1
1
1
1
1
1
1
1
1
1
1
1
1
1
1
1
2.94764
9.256
10.3713
10.5071
10.6445
10.745
10.817
10.8633
10.8733
10.8243
10.7507
10.7009
1
1
1
1
1
1
1
1
1
1
1
1
1
1
1
1
1
1
1
1
1
1
1
1
1
1
1
1
1
1
1
1
1
1
1
1
2.03298
8.4556
10.2982
10.3783
10.5036
10.5817
10.6146
10.6124
10.5478
10.4461
10.3019
10.268
1
1
1
1
1
1
1
1
1
1
1
1
1
1
1
1
1
1
1
1
1
1
1
1
1
1
1
1
1
1
1
1
1
1
1
1
1.1972
7.42056
10.3624
10.2897
10.3301
10.3533
10.341
10.2884
10.1361
9.86054
9.08214
7.19216
1
1
1
1
1
1
1
1
1
1
1
1
1
1
1
1
1
1
1
1
1
1
1
1
1
1
1
1
1
1
1
1
1
1
1
1
1.00496
5.9671
9.81822
9.91166
10.0006
10.0391
10.0051
9.90275
9.66648
9.19778
8.38762
6.33241
1
1
1
1
1
1
1
1
1
1
1
1
1
1
1
1
1
1
1
1
1
1
1
1
1
1
1
1
1
1
1
1
1
1
1
1
0.999972
4.22678
9.34388
9.78687
9.83215
9.81814
9.73278
9.56068
9.25242
8.67941
7.82698
5.89344
1
1
1
1
1
1
1
1
1
1
1
1
1
1
1
1
1
1
1
1
1
1
1
1
1
1
1
1
1
1
1
1
1
1
1
1
0.999993
2.45701
8.47008
9.68175
9.67203
9.60773
9.46755
9.23173
8.85938
8.28462
7.35857
5.77737
1
1
1
1
1
1
1
1
1
1
1
1
1
1
1
1
1
1
1
1
1
1
1
1
1
1
1
1
1
1
1
1
1
1
1
1
0.999999
1.20033
7.06129
9.66921
9.49957
9.36489
9.1818
8.92042
8.52419
7.97057
7.04663
5.84101
1
1
1
1
1
1
1
1
1
1
1
1
1
1
1
1
1
1
1
1
1
1
1
1
1
1
1
1
1
1
1
1
1
1
1
1
1
1.00363
5.09693
9.1
9.12764
9.04349
8.88578
8.62689
8.25569
7.70584
6.87353
5.91557
1
1
1
1
1
1
1
1
1
1
1
1
1
1
1
1
1
1
1
1
1
1
1
1
1
1
1
1
1
1
1
1
1
1
1
1
1
0.999962
2.64634
8.25806
9.0147
8.90746
8.72043
8.43397
8.06588
7.50712
6.79222
6.00654
1
1
1
1
1
1
1
1
1
1
1
1
1
1
1
1
1
1
1
1
1
1
1
1
1
1
1
1
1
1
1
1
1
1
1
1
1
0.999991
1.20742
6.50613
8.89969
8.75597
8.55644
8.25134
7.87956
7.35775
6.74357
6.07036
1
1
1
1
1
1
1
1
1
1
1
1
1
1
1
1
1
1
1
1
1
1
1
1
1
1
1
1
1
1
1
1
1
1
1
1
1
0.999999
1.00332
3.88828
8.30662
8.56121
8.36822
8.10626
7.73069
7.25714
6.71508
6.12143
1
1
1
1
1
1
1
1
1
1
1
1
1
1
1
1
1
1
1
1
1
1
1
1
1
1
1
1
1
1
1
1
1
1
1
1
1
1
0.999986
1.52263
7.08145
8.59713
8.28117
8.01421
7.62789
7.17082
6.67202
6.14106
1
1
1
1
1
1
1
1
1
1
1
1
1
1
1
1
1
1
1
1
1
1
1
1
1
1
1
1
1
1
1
1
1
1
1
1
1
1
0.999997
1.02257
4.68191
8.09154
8.09421
7.86672
7.51406
7.08638
6.6255
6.15425
1
1
1
1
1
1
1
1
1
1
1
1
1
1
1
1
1
1
1
1
1
1
1
1
1
1
1
1
1
1
1
1
1
1
1
1
1
1
0.999999
1.00001
1.83258
7.00098
8.14559
7.80273
7.44179
7.03919
6.62042
6.19244
1
1
1
1
1
1
1
1
1
1
1
1
1
1
1
1
1
1
1
1
1
1
1
1
1
1
1
1
1
1
1
1
1
1
1
1
1
1
1
1
1.05377
4.72591
7.80506
7.65827
7.34028
6.98504
6.60756
6.20745
1
1
1
1
1
1
1
1
1
1
1
1
1
1
1
1
1
1
1
1
1
1
1
1
1
1
1
1
1
1
1
1
1
1
1
1
1
1
1
1
1.00025
1.88395
6.56661
7.67178
7.30894
6.96693
6.60764
6.2301
1
1
1
1
1
1
1
1
1
1
1
1
1
1
1
1
1
1
1
1
1
1
1
1
1
1
1
1
1
1
1
1
1
1
1
1
1
1
1
1
1
1.05827
4.11165
7.33931
7.22727
6.91339
6.58206
6.2406
1
1
1
1
1
1
1
1
1
1
1
1
1
1
1
1
1
1
1
1
1
1
1
1
1
1
1
1
1
1
1
1
1
1
1
1
1
1
1
1
1
1.00044
1.64534
5.82702
7.25642
6.90624
6.60032
6.27909
1
1
1
1
1
1
1
1
1
1
1
1
1
1
1
1
1
1
1
1
1
1
1
1
1
1
1
1
1
1
1
1
1
1
1
1
1
1
1
1
1
1
1.03213
3.00724
6.52656
6.89244
6.61289
6.31102
1
1
1
1
1
1
1
1
1
1
1
1
1
1
1
1
1
1
1
1
1
1
1
1
1
1
1
1
1
1
1
1
1
1
1
1
1
1
1
1
1
1
1.00028
1.28325
4.59062
6.86694
6.669
6.37503
1
1
1
1
1
1
1
1
1
1
1
1
1
1
1
1
1
1
1
1
1
1
1
1
1
1
1
1
1
1
1
1
1
1
1
1
1
1
1
1
1
1
1
1.0076
1.9746
5.62929
6.65367
6.40649
1
1
1
1
1
1
1
1
1
1
1
1
1
1
1
1
1
1
1
1
1
1
1
1
1
1
1
1
1
1
1
1
1
1
1
1
1
1
1
1
1
1
1
1.00005
1.07155
3.02456
6.02197
6.44582
1
1
1
1
1
1
1
1
1
1
1
1
1
1
1
1
1
1
1
1
1
1
1
1
1
1
1
1
1
1
1
1
1
1
1
1
1
1
1
1
1
1
1
1
1.00103
1.292
4.0933
6.20245
1
1
1
1
1
1
1
1
1
1
1
1
1
1
1
1
1
1
1
1
1
1
1
1
1
1
1
1
1
1
1
1
1
1
1
1
1
1
1
1
1
1
1
1
1
1.00892
1.74527
4.82876
1
1
1
1
1
1
1
1
1
1
1
1
1
1
1
1
1
1
1
1
1
1
1
1
1
1
1
1
1
1
1
1
1
1
1
1
1
1
1
1
1
1
1
1
1
1.00007
1.04543
2.33113
1
1
1
1
1
1
1
1
1
1
1
1
1
1
1
1
1
1
1
1
1
1
1
1
1
1
1
1
1
1
1
1
1
1
1
1
1
1
1
1
1
1
1
1
1
1
1.00061
1.13575
1
1
1
1
1
1
1
1
1
1
1
1
1
1
1
1
1
1
1
1
1
1
1
1
1
1
1
1
1
1
1
1
1
1
1
1
1
1
1
1
1
1
1
1
1
1
1
1.00293
1
1
1
1
1
1
1
1
1
1
1
1
1
1
1
1
1
1
1
1
1
1
1
1
1
1
1
1
1
1
1
1
1
1
1
1
1
1
1
1
1
1
1
1
1
1
1
1.00002
1
1
1
1
1
1
1
1
1
1
1
1
1
1
1
1
1
1
1
1
1
1
1
1
1
1
1
1
1
1
1
1
1
1
1
1
1
1
1
1
1
1
1
1
1
1
1
1
1
1
1
1
1
1
1
1
1
1
1
1
1
1
1
1
1
1
1
1
1
1
1
1
1
1
1
1
1
1
1
1
1
1
1
1
1
1
1
1
1
1
1
1
1
1
1
1
1
1
1
1
1
1
1
1
1
1
1
1
1
1
1
1
1
1
1
1
1
1
1
1
1
1
1
1
1
1
1
1
1
1
1
1
1
1
1
1
1
1
1
1
1
1
1
1
1
1
1
1
1
1
1
1
1
1
1
1
1
1
1
1
1
1
1
1
1
1
1
1
1
1
1
1
1
1
1
1
1
1
1
1
1
1
1
1
1
1
1
1
1
1
1
1
1
1
1
1
1
1
1
1
1
1
1
1
1
1
1
1
1
1
1
1
1
1
1
1
1
1
1
1
1
1
1
1
1
1
1
1
1
1
1
1
1
1
1
1
1
1
1
1
1
1
1
1
1
1
1
1
1
1
1
1
1
1
1
1
1
1
1
1
1
1
1
1
1
1
1
1
1
1
1
1
1
1
1
1
1
1
1
1
1
1
1
1
1
1
1
1
1
1
1
1
1
1
1
1
1
1
1
1
1
1
1
1
1
1
1
1
1
1
1
1
1
1
1
1
1
1
1
1
1
1
1
1
1
1
1
1
1
1
1
1
1
1
1
1
1
1
1
1
1
1
1
1
1
1
1
1
1
1
1
1
1
1
1
1
1
1
1
1
1
1
1
1
1
1
1
1
1
1
1
1
1
1
1
1
1
1
1
1
1
1
1
1
1
1
1
1
1
1
1
1
1
1
1
1
1
1
1
1
1
1
1
1
1
1
1
1
1
1
1
1
1
1
1
1
1
1
1
1
1
1
1
1
1
1
1
1
1
1
1
1
1
1
1
1
1
1
1
1
1
1
1
1
1
1
1
1
1
1
1
1
1
1
1
1
1
1
1
1
1
1
1
1
1
1
1
1
1
1
1
1
1
1
1
1
1
1
1
1
1
1
1
1
1
1
1
1
1
1
1
1
1
1
1
1
1
1
1
1
1
1
1
1
1
1
1
1
1
1
1
1
1
1
1
1
1
1
1
1
1
1
1
1
1
1
1
1
1
1
1
1
1
1
1
1
1
1
1
1
1
1
1
1
1
1
1
1
1
1
1
1
1
1
1
1
1
1
1
1
1
1
1
1
1
1
1
1
1
1
1
1
1
1
1
1
1
1
1
1
1
1
1
1
1
1
1
1
1
1
1
1
1
1
1
1
1
1
1
1
1
1
1
1
1
1
1
1
1
1
1
1
1
1
1
1
1
1
1
1
1
1
1
1
1
1
1
1
1
1
1
1
1
1
1
1
1
1
1
1
1
1
1
1
1
1
1
1
1
1
1
1
1
1
1
1
1
1
1
1
1
1
1
1
1
1
1
1
1
1
1
1
1
1
1
1
1
1
1
1
1
1
1
1
1
1
1
1
1
1
1
1
1
1
1
1
1
1
1
1
1
1
1
1
1
1
1
1
1
1
1
1
1
1
1
1
1
1
1
1
1
1
1
1
1
1
1
1
1
1
1
1
1
1
1
1
1
1
1
1
1
1
1
1
1
1
1
1
1
1
1
1
1
1
1
1
1
1
1
1
1
1
1
1
1
1
1
1
1
1
1
1
1
1
1
1
1
1
1
1
1
1
1
1
1
1
1
1
1
1
1
1
1
1
1
1
1
1
1
1
1
1
1
1
1
1
1
1
1
1
1
1
1
1
1
1
1
1
1
1
1
1
1
1
1
1
1
1
1
1
1
1
1
1
1
1
1
1
1
1
1
1
1
1
1
1
1
1
1
1
1
1
1
1
1
1
1
1
1
1
1
1
1
1
1
1
1
1
1
1
1
1
1
1
1
1
1
1
1
1
1
1
1
1
1
1
1
1
1
1
1
1
1
1
1
1
1
1
1
1
1
1
1
1
1
1
1
1
1
1
1
1
1
1
1
1
1
1
1
1
1
1
1
1
1
1
1
1
1
1
1
1
1
1
1
1
1
1
1
1
1
1
1
1
1
1
1
1
1
1
1
1
1
1
1
1
1
1
1
1
1
1
1
1
1
1
1
1
1
1
1
1
1
1
1
1
1
1
1
1
1
1
1
1
1
1
1
1
1
1
1
1
1
1
1
1
1
1
1
1
1
1
1
1
1
1
1
1
1
1
1
1
1
1
1
1
1
1
1
1
1
1
1
1
1
1
1
1
1
1
1
1
1
1
1
1
1
1
1
1
1
1
1
1
1
1
1
1
1
1
1
1
1
1
1
1
1
1
1
1
1
1
1
1
1
1
1
1
1
1
1
1
1
1
1
1
1
1
1
1
1
1
1
1
1
1
1
1
1
1
1
1
1
1
1
1
1
1
1
1
1
1
1
1
1
1
1
1
1
1
1
1
1
1
1
1
1
1
1
1
1
1
1
1
1
1
1
1
1
1
1
1
1
1
1
1
1
1
1
1
1
1
1
1
1
1
1
1
1
1
1
1
1
1
1
1
1
1
1
1
1
1
1
1
1
1
1
1
1
1
1
1
1
1
1
1
1
1
1
1
1
1
1
1
1
1
1
1
1
1
1
1
1
1
1
1
1
1
1
1
1
1
1
1
1
1
1
1
1
1
1
1
1
1
1
1
1
1
1
1
1
1
1
1
1
1
1
1
1
1
1
1
1
1
1
1
1
1
1
1
1
1
1
1
1
1
1
1
1
1
1
1
1
1
1
1
1
1
1
1
1
1
1
1
1
1
1
1
1
1
1
1
1
1
1
1
1
1
1
1
1
1
1
1
1
1
1
1
1
1
1
1
1
1
1
1
1
1
1
1
1
1
1
1
1
1
1
1
1
1
1
1
1
1
1
1
1
1
1
1
1
1
1
1
1
1
1
1
1
1
1
1
1
1
1
1
1
1
1
1
1
1
1
1
1
1
1
1
1
1
1
1
1
1
1
1
1
1
1
1
1
1
1
1
1
1
1
1
1
1
1
1
1
1
1
1
1
1
1
1
1
1
1
1
1
1
1
1
1
1
1
1
1
1
1
1
1
1
1
1
1
1
1
1
1
1
1
1
1
1
1
1
1
1
1
1
1
1
1
1
1
1
1
1
1
1
1
1
1
1
1
1
1
1
1
1
1
1
1
1
1
1
1
1
1
1
1
1
1
1
1
1
1
1
1
1
1
1
1
1
1
1
1
1
1
1
1
1
1
1
1
1
1
1
1
1
1
1
1
1
1
1
1
1
1
1
1
1
1
1
1
1
1
1
1
1
1
1
1
1
1
1
1
1
1
1
1
1
1
1
1
1
1
1
1
1
1
1
1
1
1
1
1
1
1
1
1
1
1
1
1
1
1
1
1
1
1
1
1
1
1
1
1
1
1
1
1
1
1
1
1
1
1
1
1
1
1
1
1
1
1
1
1
1
1
1
1
1
1
1
1
1
1
1
1
1
1
1
1
1
1
1
1
1
1
1
1
1
1
1
1
1
1
1
1
1
1
1
1
1
1
1
1
1
1
1
1
1
1
1
1
1
1
1
1
1
1
1
1
1
1
1
1
1
1
1
1
1
1
1
1
1
1
1
1
1
1
1
1
1
1
1
1
1
1
1
1
1
1
1
1
1
1
1
1
1
1
1
1
1
1
1
1
1
1
1
1
1
1
1
1
1
1
1
1
1
1
1
1
1
1
1
1
1
1
1
1
1
1
1
1
1
1
1
1
1
1
1
1
1
1
1
1
1
1
1
1
1
1
1
1
1
1
1
1
1
1
1
1
1
1
1
1
1
1
1
1
1
1
1
1
1
1
1
1
1
1
1
1
1
1
1
1
1
1
1
1
1
1
1
1
1
1
1
1
1
1
1
1
1
1
1
1
1
1
1
1
1
1
1
1
1
1
1
1
1
1
1
1
1
1
1
1
1
1
1
1
1
1
1
1
1
1
1
1
1
1
1
1
1
1
1
1
1
1
1
1
1
1
1
1
1
1
1
1
1
1
1
1
1
1
1
1
1
1
1
1
1
1
1
1
1
1
1
1
1
1
1
1
1
1
1
1
1
1
1
1
1
1
1
1
1
1
1
1
1
1
1
1
1
1
1
1
1
1
1
1
1
1
1
1
1
1
1
1
1
1
1
1
1
1
1
1
1
1
1
1
1
1
1
1
1
1
1
1
1
1
1
1
1
1
1
1
1
1
1
1
1
1
1
1
1
1
1
1
1
1
1
1
1
1
1
1
1
1
1
1
1
1
1
1
1
1
1
1
1
1
1
1
1
1
1
1
1
1
1
1
1
1
1
1
1
1
1
1
1
1
1
1
1
1
1
1
1
1
1
1
1
1
1
1
1
1
1
1
1
1
1
1
1
1
1
1
1
1
1
1
1
1
1
1
1
1
1
1
1
1
1
1
1
1
1
1
1
1
1
1
1
1
1
1
1
1
1
1
1
1
1
1
1
1
1
1
1
1
1
1
1
1
1
1
1
1
1
1
1
1
1
1
1
1
1
1
1
1
1
1
1
1
1
1
1
1
1
1
1
1
1
1
1
1
1
1
1
1
1
1
1
1
1
1
1
1
1
1
1
1
1
1
1
1
1
1
1
1
1
1
1
1
1
1
1
1
1
1
1
1
1
1
1
1
1
1
1
1
1
1
1
1
1
1
1
1
1
1
1
1
1
1
1
1
1
1
1
1
1
1
1
1
1
1
1
1
1
1
1
1
1
1
1
1
1
1
1
1
1
1
1
1
1
1
1
1
1
1
1
1
1
1
1
1
1
1
1
1
1
1
1
1
1
1
1
1
1
1
1
1
1
1
1
1
1
1
1
1
1
1
1
1
1
1
1
1
1
1
1
1
1
1
1
1
1
1
1
1
1
1
1
1.56862
0.398277
0.210123
0.17629
0.201155
0.240542
0.333463
0.45973
0.629207
0.778916
0.915383
1.03337
1.09957
1.14499
1.18602
1.24052
1.26144
1.27944
1.27837
1.27117
1.2575
1.24918
1.26589
1.31197
1.3471
1.35382
1.33891
1.30069
1.28564
1.29017
1.3144
3.14106
5.53807
5.83889
5.99217
6.14561
6.26174
6.31719
6.36067
6.41804
6.46234
6.47745
6.48406
6.50655
6.54044
6.55663
6.53983
6.52085
2.79093
1.39505
0.869101
0.686725
0.597675
0.541056
0.498061
0.486355
0.505946
0.572645
0.651545
0.741444
0.845878
0.922549
0.990721
1.07798
1.12131
1.15802
1.19988
1.23662
1.26323
1.26829
1.27184
1.28035
1.29785
1.31151
1.32112
1.31886
1.30897
1.30689
1.30381
2.82608
5.40223
5.85294
6.01924
6.14882
6.24951
6.31407
6.36071
6.41214
6.45227
6.47112
6.48355
6.50794
6.54025
6.55825
6.54642
6.52618
3.66222
2.43083
1.66671
1.21133
0.993102
0.854895
0.737727
0.641559
0.571562
0.581679
0.630794
0.687687
0.754901
0.821037
0.86288
0.930779
1.00342
1.05623
1.12051
1.19579
1.28732
1.31976
1.3204
1.30639
1.28725
1.28466
1.29159
1.31049
1.32963
1.33631
1.32181
2.30379
5.15612
5.877
6.07197
6.17963
6.23283
6.29363
6.36098
6.41357
6.4416
6.45406
6.47161
6.49934
6.52986
6.55126
6.5557
6.54384
4.22394
3.15247
2.39575
1.8707
1.45761
1.21976
1.11309
1.00898
0.858802
0.752821
0.740118
0.727595
0.717869
0.725799
0.738
0.763092
0.82383
0.902412
0.973532
1.05517
1.16044
1.22643
1.2613
1.2774
1.27644
1.28071
1.29176
1.31503
1.3456
1.34986
1.33449
1.66957
4.66731
5.88436
6.08011
6.19404
6.22354
6.25877
6.3376
6.41216
6.44464
6.44977
6.46103
6.48848
6.52052
6.54439
6.55308
6.54907
4.69041
3.73861
2.97352
2.4634
2.01695
1.61033
1.43955
1.33708
1.21067
1.04107
0.886381
0.821384
0.774354
0.761988
0.768658
0.785715
0.796162
0.795475
0.808193
0.856645
0.957095
1.07085
1.15536
1.20661
1.22386
1.2281
1.24379
1.27086
1.31043
1.34227
1.34399
1.38352
3.87772
5.88691
6.10824
6.18405
6.2167
6.24641
6.30379
6.37933
6.42562
6.44117
6.45375
6.47543
6.49982
6.51975
6.53504
6.5416
4.99952
4.18838
3.44828
2.92063
2.50401
2.10982
1.7871
1.5823
1.46699
1.34889
1.21014
1.05445
0.92834
0.898614
0.889459
0.872963
0.84973
0.825866
0.800787
0.793982
0.813709
0.863154
0.931503
1.01829
1.10386
1.15866
1.19574
1.22837
1.265
1.30294
1.32191
1.32971
2.79754
5.74492
6.19666
6.16395
6.19237
6.22821
6.27728
6.33205
6.37707
6.40753
6.43121
6.45614
6.47494
6.49318
6.51106
6.48819
5.24472
4.53038
3.85717
3.32297
2.87261
2.49258
2.19695
1.93407
1.66637
1.52827
1.4462
1.33573
1.20169
1.05931
0.987463
0.950147
0.918615
0.897427
0.87738
0.849971
0.821861
0.810113
0.815729
0.839625
0.902255
0.991572
1.08558
1.15012
1.18261
1.21276
1.26008
1.28625
1.8664
5.40968
6.27711
6.1249
6.11303
6.15184
6.2219
6.29914
6.32525
6.33357
6.36112
6.40035
6.41457
6.39915
6.37593
6.37921
5.40688
4.77371
4.1714
3.66318
3.20332
2.78697
2.50502
2.27221
2.00479
1.74915
1.59537
1.51677
1.43244
1.32744
1.20138
1.07558
1.02489
1.01653
0.997909
0.956398
0.901468
0.845189
0.816192
0.820277
0.83205
0.861537
0.911897
0.967754
1.03577
1.08641
1.14068
1.18482
1.31129
4.71516
6.29262
6.09832
6.06448
6.09938
6.17188
6.21883
6.24842
6.26464
6.26945
6.28541
6.30166
6.28773
6.20476
6.30075
5.53439
4.96289
4.40587
3.9331
3.51055
3.10036
2.75789
2.50231
2.28158
2.06645
1.86708
1.65663
1.54845
1.50159
1.42242
1.31427
1.19309
1.11021
1.06988
1.03388
0.994065
0.958244
0.912475
0.859325
0.845202
0.850469
0.866126
0.881676
0.901394
0.935229
0.983783
1.04969
1.08683
3.73333
6.08544
5.97475
5.93272
5.96351
6.02678
6.1015
6.15692
6.15549
6.15587
6.15342
6.13842
6.03638
5.67093
4.62266
5.61394
5.09577
4.59802
4.1501
3.73005
3.35401
3.03952
2.7411
2.45709
2.27687
2.11667
1.9185
1.72823
1.61025
1.54644
1.48308
1.40039
1.30577
1.19488
1.10946
1.08262
1.06863
1.03566
0.979673
0.921028
0.875697
0.86721
0.867231
0.876715
0.888604
0.893538
0.916379
0.929777
2.65667
5.66169
5.82815
5.86231
5.8959
5.92607
5.96515
5.99238
6.02108
6.01276
5.96651
5.88402
5.70098
5.17451
4.23245
5.67584
5.20238
4.76171
4.3446
3.93433
3.56965
3.26406
2.97572
2.6941
2.46681
2.28364
2.12193
1.96289
1.82491
1.68773
1.57153
1.52
1.46522
1.38101
1.27553
1.17559
1.1357
1.11344
1.07881
1.03535
0.991566
0.936725
0.885296
0.878668
0.885109
0.89399
0.894508
0.890155
1.5916
5.12076
5.76828
5.76737
5.80589
5.81596
5.8438
5.85835
5.86527
5.85079
5.80283
5.68587
5.39077
4.88746
4.0162
5.74729
5.30373
4.89472
4.49621
4.10599
3.76745
3.45721
3.1655
2.90527
2.68477
2.47357
2.27407
2.12932
2.0172
1.88456
1.73665
1.61556
1.54933
1.49647
1.42993
1.35146
1.26489
1.17966
1.1446
1.12709
1.1025
1.05818
0.986722
0.926155
0.90778
0.900972
0.898569
0.897649
0.959222
4.0258
5.60131
5.63586
5.70787
5.72067
5.73591
5.73688
5.73606
5.70137
5.61518
5.43891
5.17287
4.70125
3.97264
5.79046
5.38665
4.99723
4.61539
4.26368
3.94764
3.64106
3.34149
3.09618
2.87655
2.66996
2.4686
2.3001
2.15467
2.02702
1.90744
1.7942
1.68953
1.57511
1.50502
1.46748
1.41159
1.3294
1.23662
1.19115
1.17201
1.14293
1.09722
1.04405
0.999053
0.948584
0.910902
0.908597
0.91966
2.55991
5.34712
5.61451
5.6411
5.64234
5.64652
5.64222
5.6191
5.57538
5.47587
5.28856
5.00552
4.56267
3.96199
5.84062
5.46922
5.1008
4.73567
4.41312
4.10526
3.79874
3.51359
3.27866
3.04861
2.83192
2.63588
2.47846
2.31789
2.16033
2.01948
1.9295
1.83375
1.72634
1.61354
1.53875
1.49619
1.44406
1.37544
1.30868
1.24887
1.1979
1.16823
1.13953
1.10463
1.05602
0.991598
0.948245
0.933925
1.35619
4.61674
5.56117
5.56688
5.57095
5.56496
5.55422
5.52964
5.47065
5.35532
5.17267
4.89439
4.48356
3.98877
5.89326
5.54265
5.1884
4.8553
4.54654
4.24334
3.93956
3.68051
3.43841
3.20968
2.98268
2.79683
2.62313
2.46181
2.30706
2.1702
2.05336
1.93924
1.8457
1.75333
1.6713
1.59149
1.51757
1.4679
1.42264
1.36666
1.29826
1.22942
1.19862
1.17585
1.13989
1.09428
1.05362
0.996495
1.01025
3.07464
5.31234
5.50387
5.50652
5.49603
5.48965
5.44106
5.38134
5.26424
5.07843
4.81447
4.44083
4.01932
5.95572
5.62301
5.28312
4.97134
4.67201
4.36911
4.08342
3.83222
3.586
3.3477
3.12831
2.94906
2.76477
2.5997
2.43618
2.31484
2.18829
2.06944
1.95159
1.86285
1.79123
1.70898
1.62493
1.54635
1.49754
1.45235
1.40041
1.33687
1.27745
1.23414
1.19502
1.16193
1.14092
1.1055
1.04519
1.57037
4.68724
5.4658
5.4957
5.48879
5.41454
5.35382
5.2758
5.16991
5.00186
4.76095
4.42297
4.05353
6.00185
5.68633
5.37957
5.07757
4.77248
4.47293
4.21541
3.96188
3.71507
3.46674
3.2728
3.08169
2.90223
2.72328
2.5768
2.44723
2.3108
2.194
2.07452
1.98675
1.89266
1.80792
1.73136
1.65867
1.59323
1.5242
1.46674
1.42372
1.37676
1.32331
1.27547
1.22394
1.19736
1.17536
1.11661
1.14077
3.2224
5.23023
5.41582
5.40026
5.33996
5.26808
5.19237
5.07915
4.90281
4.69345
4.40667
4.08599
6.07142
5.76086
5.46488
5.16856
4.8636
4.58199
4.32871
4.07884
3.82674
3.60197
3.41163
3.21586
3.03194
2.84909
2.71743
2.5729
2.44253
2.30859
2.19998
2.10558
2.00193
1.91252
1.82426
1.76077
1.68927
1.61926
1.54735
1.49087
1.44952
1.40318
1.36078
1.31184
1.27206
1.23591
1.18655
1.14561
1.65357
4.5616
5.38369
5.36202
5.33233
5.25908
5.16407
5.0183
4.85175
4.64625
4.38066
4.10091
6.09964
5.80291
5.51753
5.22869
4.93621
4.68111
4.43409
4.18647
3.93575
3.7383
3.53832
3.34716
3.14674
2.98916
2.84568
2.69523
2.55846
2.42108
2.3236
2.21176
2.11112
2.00987
1.92703
1.85515
1.773
1.70559
1.63531
1.58248
1.52854
1.47316
1.427
1.38752
1.3502
1.3095
1.26443
1.19808
1.22729
2.99431
5.14305
5.33925
5.27034
5.20659
5.10003
4.97142
4.80939
4.6045
4.36471
4.11415
6.16525
5.86041
5.58609
5.30613
5.0322
4.7883
4.54725
4.28932
4.06054
3.86809
3.66643
3.46559
3.26806
3.125
2.96386
2.81851
2.66369
2.54524
2.43776
2.31782
2.21537
2.10622
2.03346
1.94987
1.86781
1.78997
1.71893
1.67135
1.61191
1.55783
1.50077
1.45587
1.41491
1.37068
1.33258
1.28348
1.23979
1.61567
4.21871
5.26266
5.22761
5.17805
5.08144
4.9357
4.76823
4.56985
4.34663
4.12529
6.23721
5.95487
5.66517
5.39082
5.12894
4.88648
4.64648
4.38989
4.17868
3.98087
3.78097
3.56014
3.39434
3.24532
3.08295
2.92343
2.76642
2.66515
2.54156
2.42679
2.30617
2.20961
2.13436
2.03945
1.96079
1.87293
1.81351
1.75588
1.68913
1.63339
1.57447
1.53215
1.48324
1.43537
1.38648
1.35135
1.296
1.30887
2.52353
4.88918
5.23239
5.16948
5.07215
4.92386
4.75694
4.57236
4.37141
4.1608
6.15211
6.0382
5.75426
5.47271
5.21737
4.98086
4.73848
4.49127
4.28432
4.09131
3.88613
3.66717
3.51258
3.3545
3.19729
3.01886
2.88698
2.77848
2.64866
2.52853
2.39601
2.31962
2.23226
2.1379
2.04828
1.96062
1.90964
1.84045
1.77417
1.70643
1.64819
1.60702
1.55179
1.50512
1.44976
1.41545
1.37607
1.32471
1.51524
3.75615
5.15136
5.14137
5.02637
4.8901
4.73689
4.56614
4.37958
4.18155
5.26674
6.02117
5.84954
5.55993
5.30132
5.06889
4.82852
4.59257
4.39011
4.19722
3.98121
3.77551
3.6252
3.46983
3.30282
3.116
3.00138
2.88233
2.75709
2.62004
2.49917
2.4249
2.32556
2.23311
2.12743
2.05629
1.99997
1.92313
1.85479
1.77446
1.72654
1.67949
1.62124
1.57098
1.51184
1.48121
1.4491
1.37502
1.3771
2.15619
4.52673
5.1194
5.00516
4.88993
4.74944
4.58753
4.40924
4.22056
2.9618
5.47921
5.89113
5.6801
5.39618
5.15846
4.92176
4.6936
4.49559
4.29981
4.08142
3.88683
3.73286
3.57756
3.39916
3.22446
3.11219
2.98873
2.86121
2.70572
2.60561
2.5251
2.42313
2.32384
2.21045
2.15211
2.08608
2.00742
1.92994
1.84823
1.80664
1.75276
1.69493
1.63609
1.57968
1.54815
1.51436
1.45718
1.39881
1.48399
3.09011
4.8448
5.01947
4.9007
4.76781
4.61155
4.43674
4.25257
1.2969
3.54674
5.51857
5.7437
5.52514
5.25794
5.01155
4.79264
4.60052
4.40153
4.18014
3.99408
3.8411
3.68062
3.49405
3.33159
3.21702
3.09241
2.95631
2.80088
2.70897
2.62013
2.52058
2.40516
2.2991
2.24447
2.16914
2.09048
1.99809
1.92695
1.88644
1.82632
1.76787
1.6975
1.6499
1.61857
1.57501
1.52925
1.45756
1.45352
1.82928
3.91051
4.99021
4.91464
4.76941
4.61925
4.45117
4.27485
1.01011
1.52746
3.98765
5.50226
5.60316
5.39447
5.11195
4.88696
4.69759
4.50038
4.28495
4.10667
3.94915
3.78067
3.58828
3.43882
3.32248
3.19261
3.04659
2.8979
2.81059
2.71702
2.61396
2.48774
2.39112
2.33176
2.25235
2.17044
2.06895
2.01027
1.96558
1.90238
1.83913
1.76123
1.72271
1.6885
1.64034
1.59182
1.53228
1.48435
1.50629
2.39948
4.4118
4.91229
4.77767
4.63106
4.4743
4.30799
1.00008
1.02685
1.79784
4.28994
5.42934
5.47915
5.24937
4.99383
4.7916
4.58771
4.38185
4.2178
4.05498
3.88011
3.6854
3.54421
3.42336
3.28992
3.13614
2.99771
2.91161
2.81067
2.70144
2.57062
2.48349
2.4194
2.33741
2.24844
2.14472
2.09409
2.04358
1.97797
1.90738
1.8294
1.79652
1.75747
1.70547
1.6502
1.59306
1.55347
1.51658
1.63141
3.09365
4.59127
4.80661
4.6812
4.5274
4.3701
1
1.00032
1.05631
2.07228
4.45787
5.35814
5.35717
5.13068
4.90069
4.67356
4.47941
4.32174
4.1545
3.9749
3.7841
3.65478
3.52605
3.38712
3.22636
3.10074
3.01098
2.90221
2.78791
2.65699
2.57772
2.50723
2.42188
2.32528
2.22548
2.17789
2.12147
2.05455
1.9738
1.90156
1.8712
1.82541
1.77036
1.70599
1.65095
1.62624
1.56741
1.55383
1.91337
3.68194
4.70523
4.73455
4.59207
4.43629
1
1
1.0009
1.09891
2.30644
4.5599
5.28355
5.24915
5.04124
4.77153
4.57777
4.42176
4.25629
4.06755
3.89183
3.76619
3.62488
3.4805
3.31623
3.20684
3.10968
2.99531
2.87388
2.74523
2.67361
2.59414
2.50347
2.40246
2.30941
2.26082
2.19912
2.12908
2.04064
1.97654
1.94411
1.89236
1.83498
1.76443
1.71052
1.6916
1.64691
1.57161
1.5918
2.31795
4.08897
4.72715
4.64836
4.48542
1
1
1
1.00203
1.14814
2.49323
4.63484
5.18228
5.13617
4.91403
4.68663
4.52154
4.35539
4.15976
4.00735
3.87076
3.72261
3.57147
3.40999
3.31313
3.20475
3.08849
2.95618
2.84032
2.77118
2.67904
2.58567
2.47847
2.3946
2.34488
2.27613
2.20156
2.109
2.05185
2.01592
1.95953
1.89879
1.82297
1.77764
1.75482
1.71412
1.637
1.59501
1.68316
2.77021
4.31627
4.66891
4.54827
1
1
1
1.00001
1.00379
1.19701
2.66812
4.62281
5.07377
5.03419
4.8349
4.63499
4.43999
4.25128
4.11497
3.96762
3.82373
3.65562
3.51351
3.41962
3.29902
3.17975
3.03651
2.94062
2.86423
2.76302
2.66884
2.55459
2.48435
2.42916
2.35232
2.27403
2.17967
2.12806
2.08747
2.02811
1.96275
1.88271
1.84706
1.8192
1.77462
1.71328
1.63904
1.64981
1.87267
3.21843
4.38116
4.57315
1
1
1
1
1.00002
1.00608
1.24559
2.8055
4.52344
5.0098
4.96945
4.78532
4.54213
4.34782
4.21179
4.06684
3.92037
3.73875
3.62704
3.51881
3.39024
3.26559
3.12248
3.04287
2.95375
2.85087
2.74832
2.63254
2.57608
2.51037
2.42716
2.34688
2.25335
2.20524
2.15915
2.09675
2.02656
1.9472
1.91628
1.88327
1.83513
1.77876
1.70631
1.67422
1.68753
2.08939
3.56582
4.37704
1
1
1
1
1
1.00005
1.00845
1.2979
2.80372
4.5012
4.96391
4.90079
4.68573
4.45536
4.30161
4.16595
4.00245
3.8431
3.74038
3.60804
3.48278
3.3459
3.21635
3.14329
3.04124
2.93931
2.82129
2.72046
2.66821
2.58819
2.50462
2.41853
2.32782
2.28526
2.2318
2.16488
2.09185
2.01547
1.98568
1.9492
1.89696
1.83688
1.77116
1.73791
1.70285
1.73044
2.35112
3.76586
1
1
1
1
1
1
1.00007
1.01125
1.32008
2.76968
4.53557
4.87137
4.78688
4.57946
4.41358
4.25881
4.07379
3.95403
3.83741
3.69721
3.57823
3.4216
3.31926
3.24065
3.12868
3.02385
2.89419
2.81569
2.75625
2.66532
2.58479
2.48724
2.40799
2.36658
2.30257
2.2333
2.15879
2.08669
2.05605
2.01496
1.95981
1.8913
1.83122
1.80667
1.76353
1.71985
1.78974
2.59009
1
1
1
1
1
1
1
1.0001
1.01329
1.31386
2.82874
4.49888
4.71613
4.6783
4.56176
4.3668
4.16594
4.05334
3.92174
3.79577
3.66369
3.50264
3.4261
3.33074
3.21512
3.10334
2.97575
2.91264
2.83934
2.74576
2.66255
2.55332
2.49332
2.44632
2.37145
2.30422
2.2271
2.15995
2.1276
2.07957
2.02074
1.94855
1.88971
1.86982
1.83424
1.75311
1.75459
1.90296
1
1
1
1
1
1
1
1
1.00013
1.01383
1.32769
2.90391
4.27338
4.61939
4.64286
4.50698
4.2932
4.14805
4.01236
3.89584
3.73482
3.60386
3.53013
3.41391
3.30137
3.17898
3.06652
3.00701
2.91886
2.8288
2.73296
2.62775
2.58218
2.52116
2.44123
2.37762
2.29232
2.23576
2.20044
2.14225
2.08011
2.00931
1.95069
1.92948
1.89997
1.82787
1.76547
1.77695
1
1
1
1
1
1
1
1
1
1.00015
1.01524
1.35208
2.79543
4.09083
4.5905
4.60263
4.43999
4.25652
4.1239
3.98933
3.80581
3.71647
3.62553
3.49642
3.38782
3.25394
3.16293
3.09635
2.99831
2.90971
2.79621
2.71601
2.66945
2.59048
2.51673
2.4504
2.3569
2.31435
2.2709
2.20164
2.1408
2.07129
2.01534
1.99169
1.9589
1.90379
1.82506
1.79705
1
1
1
1
1
1
1
1
1
1
1.00018
1.01602
1.33252
2.56571
4.02033
4.57025
4.55251
4.40507
4.25769
4.0617
3.89528
3.8251
3.70677
3.58102
3.47154
3.33225
3.25982
3.18002
3.08061
2.98342
2.86691
2.81088
2.74828
2.66011
2.59751
2.51128
2.42916
2.39604
2.33549
2.26035
2.20545
2.13136
2.08329
2.0586
2.01753
1.96614
1.89641
1.85573
1
1
1
1
1
1
1
1
1
1
1
1.00018
1.01378
1.27036
2.35665
4.05636
4.49336
4.43175
4.3517
4.16453
4.01114
3.9102
3.77137
3.66477
3.54533
3.41735
3.35607
3.26264
3.16409
3.0497
2.95656
2.90042
2.81765
2.74215
2.67495
2.56548
2.51607
2.47311
2.39068
2.32478
2.27175
2.18844
2.15724
2.12946
2.07641
2.0238
1.96008
1.92125
1
1
1
1
1
1
1
1
1
1
1
1
1.00013
1.01061
1.20527
2.35636
3.99178
4.2923
4.37531
4.29079
4.12784
3.97614
3.84404
3.75485
3.6153
3.51855
3.45286
3.3464
3.24005
3.12207
3.05015
2.97813
2.89378
2.83295
2.73321
2.64259
2.60185
2.53371
2.44908
2.3985
2.32439
2.25388
2.23921
2.19835
2.13334
2.08249
2.01763
1.98173
1
1
1
1
1
1
1
1
1
1
1
1
1
1.00009
1.0082
1.19694
2.39414
3.65207
4.22052
4.38047
4.25935
4.08469
3.97477
3.84989
3.68198
3.62846
3.54485
3.42855
3.31157
3.20751
3.13416
3.05518
2.98419
2.90377
2.80286
2.73051
2.66683
2.58784
2.52931
2.46818
2.36742
2.3378
2.31989
2.25675
2.19411
2.14571
2.0749
2.04237
1
1
1
1
1
1
1
1
1
1
1
1
1
1
1.00009
1.00756
1.20538
2.18711
3.33958
4.21746
4.35789
4.29072
4.14379
3.90625
3.77366
3.73144
3.62553
3.50797
3.3905
3.29422
3.2147
3.14294
3.05785
2.97261
2.89074
2.80104
2.71951
2.66294
2.61717
2.5165
2.43353
2.42147
2.3857
2.31237
2.26303
2.20367
2.13307
2.10497
1
1
1
1
1
1
1
1
1
1
1
1
1
1
1
1.00007
1.00731
1.15612
1.78657
3.18537
4.21948
4.25818
4.17493
4.00075
3.89352
3.80901
3.69323
3.58571
3.47954
3.38269
3.29953
3.21267
3.13263
3.05492
2.96
2.86971
2.78624
2.73629
2.68368
2.5756
2.52022
2.49571
2.44255
2.37824
2.32981
2.24859
2.19736
2.16794
1
1
1
1
1
1
1
1
1
1
1
1
1
1
1
1
1.00006
1.00409
1.07243
1.61871
3.21887
3.971
4.11783
4.10394
4.01697
3.88039
3.75775
3.65588
3.56374
3.47657
3.37433
3.29159
3.22776
3.12705
3.02104
2.94766
2.85578
2.79828
2.74383
2.65436
2.60332
2.56474
2.50558
2.45422
2.38842
2.29595
2.2644
2.22684
1
1
1
1
1
1
1
1
1
1
1
1
1
1
1
1
1
1.00002
1.00151
1.05292
1.62167
3.00688
3.79757
4.06435
4.08862
3.99574
3.85883
3.74117
3.64768
3.54587
3.44033
3.39509
3.31517
3.18638
3.09805
3.01744
2.91265
2.87172
2.81745
2.73903
2.68284
2.62847
2.56928
2.52042
2.43285
2.3614
2.33463
2.2823
1
1
1
1
1
1
1
1
1
1
1
1
1
1
1
1
1
1
1.00001
1.00124
1.05168
1.54692
2.69776
3.62344
4.02466
4.07867
3.99165
3.86308
3.74538
3.5948
3.51553
3.48458
3.37749
3.25398
3.18195
3.06595
2.98316
2.95129
2.89626
2.82623
2.7609
2.69194
2.63798
2.57737
2.47274
2.4341
2.39973
2.33237
1
1
1
1
1
1
1
1
1
1
1
1
1
1
1
1
1
1
1
1.00001
1.00114
1.03844
1.36939
2.32504
3.41754
4.02675
4.05268
3.96832
3.84507
3.67385
3.61054
3.56285
3.43431
3.33741
3.25059
3.1232
3.06315
3.03188
2.97696
2.90461
2.8262
2.75902
2.71023
2.62045
2.53627
2.51179
2.45593
2.38335
1
1
1
1
1
1
1
1
1
1
1
1
1
1
1
1
1
1
1
1
1.00001
1.00059
1.01794
1.21821
1.99384
3.29405
3.95587
3.95105
3.91277
3.80851
3.73849
3.64498
3.50679
3.41382
3.31248
3.19818
3.14664
3.11891
3.05906
2.96969
2.88461
2.83312
2.77301
2.66189
2.61849
2.58565
2.50507
2.44693
1
1
1
1
1
1
1
1
1
1
1
1
1
1
1
1
1
1
1
1
1
1
1.00018
1.00791
1.12921
1.78694
3.14
3.76866
3.87659
3.87279
3.84279
3.72056
3.57756
3.47702
3.37588
3.27935
3.24038
3.21487
3.13411
3.02451
2.95367
2.9036
2.81177
2.7231
2.70147
2.64605
2.55479
2.51825
1
1
1
1
1
1
1
1
1
1
1
1
1
1
1
1
1
1
1
1
1
1
1
1.00007
1.00398
1.08518
1.64913
2.94083
3.57059
3.81396
3.8687
3.78577
3.66112
3.55824
3.45206
3.36037
3.33122
3.29964
3.18739
3.08173
3.02887
2.96436
2.85431
2.80682
2.77909
2.69399
2.61868
2.58853
1
1
1
1
1
1
1
1
1
1
1
1
1
1
1
1
1
1
1
1
1
1
1
1
1.00003
1.00241
1.06019
1.54492
2.63587
3.34932
3.77785
3.84649
3.79815
3.68291
3.52847
3.44132
3.43146
3.37354
3.23271
3.15136
3.09946
3.01078
2.92006
2.89741
2.84688
2.74253
2.69621
2.65573
1
1
1
1
1
1
1
1
1
1
1
1
1
1
1
1
1
1
1
1
1
1
1
1
1
1.00002
1.00149
1.04102
1.37921
2.13819
3.0794
3.78731
3.82335
3.71459
3.59836
3.55825
3.54752
3.41985
3.28065
3.22163
3.16205
3.06055
3.00843
2.984
2.90005
2.80686
2.77277
2.71039
1
1
1
1
1
1
1
1
1
1
1
1
1
1
1
1
1
1
1
1
1
1
1
1
1
1
1.00001
1.0007
1.01888
1.17466
1.72939
3.02681
3.65453
3.63691
3.65699
3.66355
3.60836
3.44079
3.34031
3.29567
3.22721
3.13586
3.10609
3.05758
2.94633
2.88315
2.84352
2.76183
1
1
1
1
1
1
1
1
1
1
1
1
1
1
1
1
1
1
1
1
1
1
1
1
1
1
1
1
1.00018
1.00574
1.08158
1.61201
2.84224
3.3721
3.58345
3.69805
3.63719
3.50299
3.45525
3.39655
3.28871
3.22942
3.20811
3.11384
3.00673
2.96479
2.90631
2.82171
1
1
1
1
1
1
1
1
1
1
1
1
1
1
1
1
1
1
1
1
1
1
1
1
1
1
1
1
1
1.00004
1.00253
1.05665
1.53891
2.53493
3.13411
3.56377
3.68167
3.67444
3.58799
3.44294
3.35713
3.34746
3.29415
3.15465
3.08124
3.04054
2.95716
2.89632
1
1
1
1
1
1
1
1
1
1
1
1
1
1
1
1
1
1
1
1
1
1
1
1
1
1
1
1
1
1
1.00002
1.00159
1.04527
1.38397
2.00728
2.83989
3.59853
3.66692
3.56722
3.48631
3.46043
3.44565
3.31318
3.19234
3.15193
3.10843
3.0162
2.97675
1
1
1
1
1
1
1
1
1
1
1
1
1
1
1
1
1
1
1
1
1
1
1
1
1
1
1
1
1
1
1
1.00001
1.00093
1.02125
1.1506
1.58976
2.79986
3.40975
3.45382
3.5101
3.5535
3.48226
3.32757
3.27454
3.25679
3.16889
3.09156
3.05693
1
1
1
1
1
1
1
1
1
1
1
1
1
1
1
1
1
1
1
1
1
1
1
1
1
1
1
1
1
1
1
1
1
1.0002
1.00468
1.05775
1.48592
2.53793
3.10544
3.40855
3.55831
3.51599
3.46111
3.42168
3.3107
3.21365
3.19161
3.13339
1
1
1
1
1
1
1
1
1
1
1
1
1
1
1
1
1
1
1
1
1
1
1
1
1
1
1
1
1
1
1
1
1
1
1.00003
1.0016
1.03848
1.39833
2.17821
2.78311
3.38887
3.56115
3.53866
3.42609
3.33016
3.30407
3.28067
3.16781
1
1
1
1
1
1
1
1
1
1
1
1
1
1
1
1
1
1
1
1
1
1
1
1
1
1
1
1
1
1
1
1
1
1
1
1.00001
1.00094
1.02805
1.22682
1.64434
2.51426
3.3941
3.42864
3.38697
3.3862
3.39392
3.31083
3.1893
1
1
1
1
1
1
1
1
1
1
1
1
1
1
1
1
1
1
1
1
1
1
1
1
1
1
1
1
1
1
1
1
1
1
1
1
1.00001
1.00044
1.00867
1.0672
1.38161
2.39272
3.04758
3.2689
3.40464
3.42986
3.3496
3.30332
1
1
1
1
1
1
1
1
1
1
1
1
1
1
1
1
1
1
1
1
1
1
1
1
1
1
1
1
1
1
1
1
1
1
1
1
1
1
1.00005
1.00156
1.02874