/*--------------------------------*- C++ -*----------------------------------*\
  =========                 |
  \\      /  F ield         | OpenFOAM: The Open Source CFD Toolbox
   \\    /   O peration     | Website:  https://openfoam.org
    \\  /    A nd           | Version:  7
     \\/     M anipulation  |
\*---------------------------------------------------------------------------*/
FoamFile
{
    version     2.0;
    format      ascii;
    class       volScalarField;
    location    "1.3";
    object      T;
}
// * * * * * * * * * * * * * * * * * * * * * * * * * * * * * * * * * * * * * //

dimensions      [0 0 0 1 0 0 0];

internalField   nonuniform List<scalar> 
16512
(
1
1
1
1
1
1
1
1
1
1
1
1
1
1
1
1
1
1
1
1
1
1
1
1
1
1
1
1
1
1
1
1
1
1
1
1
2.25855
2.7178
2.73688
2.75245
2.76458
2.77365
2.78131
2.78989
2.80207
2.81754
2.83194
2.84009
1
1
1
1
1
1
1
1
1
1
1
1
1
1
1
1
1
1
1
1
1
1
1
1
1
1
1
1
1
1
1
1
1
1
1
1
2.23925
2.71492
2.73544
2.75047
2.76253
2.77132
2.77862
2.78677
2.79851
2.8135
2.8274
2.83532
1
1
1
1
1
1
1
1
1
1
1
1
1
1
1
1
1
1
1
1
1
1
1
1
1
1
1
1
1
1
1
1
1
1
1
1
2.19429
2.71075
2.73265
2.7471
2.75903
2.76745
2.77436
2.78206
2.79331
2.80788
2.82134
2.82933
1
1
1
1
1
1
1
1
1
1
1
1
1
1
1
1
1
1
1
1
1
1
1
1
1
1
1
1
1
1
1
1
1
1
1
1
2.12243
2.7001
2.72826
2.74249
2.75439
2.76242
2.76892
2.77604
2.78637
2.79985
2.81191
2.81829
1
1
1
1
1
1
1
1
1
1
1
1
1
1
1
1
1
1
1
1
1
1
1
1
1
1
1
1
1
1
1
1
1
1
1
1
2.0202
2.67863
2.72021
2.73467
2.74659
2.75404
2.75957
2.76527
2.77378
2.78582
2.79695
2.80452
1
1
1
1
1
1
1
1
1
1
1
1
1
1
1
1
1
1
1
1
1
1
1
1
1
1
1
1
1
1
1
1
1
1
1
1
1.88134
2.64108
2.70447
2.72131
2.73476
2.74237
2.74722
2.75222
2.76003
2.77058
2.77708
2.77587
1
1
1
1
1
1
1
1
1
1
1
1
1
1
1
1
1
1
1
1
1
1
1
1
1
1
1
1
1
1
1
1
1
1
1
1
1.69518
2.57881
2.68087
2.70449
2.7206
2.72863
2.73247
2.73574
2.73942
2.74112
2.74101
2.73856
1
1
1
1
1
1
1
1
1
1
1
1
1
1
1
1
1
1
1
1
1
1
1
1
1
1
1
1
1
1
1
1
1
1
1
1
1.42858
2.4707
2.65382
2.68147
2.7012
2.71091
2.71468
2.71561
2.71351
2.71259
2.71441
2.72863
1
1
1
1
1
1
1
1
1
1
1
1
1
1
1
1
1
1
1
1
1
1
1
1
1
1
1
1
1
1
1
1
1
1
1
1
1.08793
2.34235
2.65367
2.66078
2.67398
2.6844
2.68837
2.68731
2.67959
2.66504
2.62091
2.52651
1
1
1
1
1
1
1
1
1
1
1
1
1
1
1
1
1
1
1
1
1
1
1
1
1
1
1
1
1
1
1
1
1
1
1
1
1.00203
2.19701
2.61757
2.62513
2.63783
2.6502
2.65381
2.651
2.63823
2.60827
2.55605
2.40118
1
1
1
1
1
1
1
1
1
1
1
1
1
1
1
1
1
1
1
1
1
1
1
1
1
1
1
1
1
1
1
1
1
1
1
1
0.999993
1.94225
2.57318
2.61035
2.6207
2.62519
2.62378
2.61638
2.59829
2.55916
2.4967
2.31931
1
1
1
1
1
1
1
1
1
1
1
1
1
1
1
1
1
1
1
1
1
1
1
1
1
1
1
1
1
1
1
1
1
1
1
1
0.999998
1.53409
2.44958
2.59022
2.60027
2.60076
2.59574
2.58295
2.55876
2.51746
2.44265
2.28432
1
1
1
1
1
1
1
1
1
1
1
1
1
1
1
1
1
1
1
1
1
1
1
1
1
1
1
1
1
1
1
1
1
1
1
1
1
1.07982
2.27423
2.57558
2.57227
2.57184
2.56574
2.55127
2.52415
2.48213
2.40288
2.28457
1
1
1
1
1
1
1
1
1
1
1
1
1
1
1
1
1
1
1
1
1
1
1
1
1
1
1
1
1
1
1
1
1
1
1
1
1
1.00146
2.04814
2.51342
2.53246
2.53482
2.53131
2.51861
2.49411
2.45133
2.37782
2.28373
1
1
1
1
1
1
1
1
1
1
1
1
1
1
1
1
1
1
1
1
1
1
1
1
1
1
1
1
1
1
1
1
1
1
1
1
1
0.99999
1.56212
2.38414
2.50754
2.50596
2.50154
2.48917
2.4673
2.42504
2.36232
2.28538
1
1
1
1
1
1
1
1
1
1
1
1
1
1
1
1
1
1
1
1
1
1
1
1
1
1
1
1
1
1
1
1
1
1
1
1
1
0.999998
1.08172
2.18345
2.47778
2.47509
2.47079
2.45811
2.43763
2.40044
2.34864
2.28428
1
1
1
1
1
1
1
1
1
1
1
1
1
1
1
1
1
1
1
1
1
1
1
1
1
1
1
1
1
1
1
1
1
1
1
1
1
1
1.00133
1.81618
2.3845
2.44764
2.43871
2.42797
2.40773
2.37623
2.33387
2.28022
1
1
1
1
1
1
1
1
1
1
1
1
1
1
1
1
1
1
1
1
1
1
1
1
1
1
1
1
1
1
1
1
1
1
1
1
1
1
0.999997
1.19997
2.205
2.42553
2.40884
2.39946
2.37917
2.35021
2.31391
2.26964
1
1
1
1
1
1
1
1
1
1
1
1
1
1
1
1
1
1
1
1
1
1
1
1
1
1
1
1
1
1
1
1
1
1
1
1
1
1
0.999999
1.00883
1.93358
2.35594
2.37429
2.366
2.34825
2.32223
2.29062
2.25439
1
1
1
1
1
1
1
1
1
1
1
1
1
1
1
1
1
1
1
1
1
1
1
1
1
1
1
1
1
1
1
1
1
1
1
1
1
1
1
1.00001
1.30343
2.18333
2.35844
2.33828
2.31962
2.29683
2.27013
2.23937
1
1
1
1
1
1
1
1
1
1
1
1
1
1
1
1
1
1
1
1
1
1
1
1
1
1
1
1
1
1
1
1
1
1
1
1
1
1
1
1
1.02102
1.9242
2.31251
2.30633
2.28935
2.26996
2.24742
2.2204
1
1
1
1
1
1
1
1
1
1
1
1
1
1
1
1
1
1
1
1
1
1
1
1
1
1
1
1
1
1
1
1
1
1
1
1
1
1
1
1
1.0001
1.31544
2.13354
2.29168
2.26694
2.24728
2.22586
2.2013
1
1
1
1
1
1
1
1
1
1
1
1
1
1
1
1
1
1
1
1
1
1
1
1
1
1
1
1
1
1
1
1
1
1
1
1
1
1
1
1
1
1.0226
1.81243
2.24348
2.2401
2.22212
2.20256
2.18111
1
1
1
1
1
1
1
1
1
1
1
1
1
1
1
1
1
1
1
1
1
1
1
1
1
1
1
1
1
1
1
1
1
1
1
1
1
1
1
1
1
1.00015
1.23575
2.04069
2.22647
2.20193
2.18414
2.16428
1
1
1
1
1
1
1
1
1
1
1
1
1
1
1
1
1
1
1
1
1
1
1
1
1
1
1
1
1
1
1
1
1
1
1
1
1
1
1
1
1
1
1.01216
1.58827
2.10721
2.18754
2.16744
2.14787
1
1
1
1
1
1
1
1
1
1
1
1
1
1
1
1
1
1
1
1
1
1
1
1
1
1
1
1
1
1
1
1
1
1
1
1
1
1
1
1
1
1
1.00009
1.10761
1.85003
2.16102
2.15127
2.13402
1
1
1
1
1
1
1
1
1
1
1
1
1
1
1
1
1
1
1
1
1
1
1
1
1
1
1
1
1
1
1
1
1
1
1
1
1
1
1
1
1
1
1
1.00272
1.3265
1.97578
2.12962
2.11461
1
1
1
1
1
1
1
1
1
1
1
1
1
1
1
1
1
1
1
1
1
1
1
1
1
1
1
1
1
1
1
1
1
1
1
1
1
1
1
1
1
1
1
1.00001
1.02679
1.56914
2.01657
2.10074
1
1
1
1
1
1
1
1
1
1
1
1
1
1
1
1
1
1
1
1
1
1
1
1
1
1
1
1
1
1
1
1
1
1
1
1
1
1
1
1
1
1
1
1
1.00033
1.10875
1.74848
2.04262
1
1
1
1
1
1
1
1
1
1
1
1
1
1
1
1
1
1
1
1
1
1
1
1
1
1
1
1
1
1
1
1
1
1
1
1
1
1
1
1
1
1
1
1
1
1.00312
1.25541
1.83867
1
1
1
1
1
1
1
1
1
1
1
1
1
1
1
1
1
1
1
1
1
1
1
1
1
1
1
1
1
1
1
1
1
1
1
1
1
1
1
1
1
1
1
1
1
1.00002
1.01663
1.40263
1
1
1
1
1
1
1
1
1
1
1
1
1
1
1
1
1
1
1
1
1
1
1
1
1
1
1
1
1
1
1
1
1
1
1
1
1
1
1
1
1
1
1
1
1
1
1.00019
1.05003
1
1
1
1
1
1
1
1
1
1
1
1
1
1
1
1
1
1
1
1
1
1
1
1
1
1
1
1
1
1
1
1
1
1
1
1
1
1
1
1
1
1
1
1
1
1
1
1.00096
1
1
1
1
1
1
1
1
1
1
1
1
1
1
1
1
1
1
1
1
1
1
1
1
1
1
1
1
1
1
1
1
1
1
1
1
1
1
1
1
1
1
1
1
1
1
1
1
1
1
1
1
1
1
1
1
1
1
1
1
1
1
1
1
1
1
1
1
1
1
1
1
1
1
1
1
1
1
1
1
1
1
1
1
1
1
1
1
1
1
1
1
1
1
1
1
1
1
1
1
1
1
1
1
1
1
1
1
1
1
1
1
1
1
1
1
1
1
1
1
1
1
1
1
1
1
1
1
1
1
1
1
1
1
1
1
1
1
1
1
1
1
1
1
1
1
1
1
1
1
1
1
1
1
1
1
1
1
1
1
1
1
1
1
1
1
1
1
1
1
1
1
1
1
1
1
1
1
1
1
1
1
1
1
1
1
1
1
1
1
1
1
1
1
1
1
1
1
1
1
1
1
1
1
1
1
1
1
1
1
1
1
1
1
1
1
1
1
1
1
1
1
1
1
1
1
1
1
1
1
1
1
1
1
1
1
1
1
1
1
1
1
1
1
1
1
1
1
1
1
1
1
1
1
1
1
1
1
1
1
1
1
1
1
1
1
1
1
1
1
1
1
1
1
1
1
1
1
1
1
1
1
1
1
1
1
1
1
1
1
1
1
1
1
1
1
1
1
1
1
1
1
1
1
1
1
1
1
1
1
1
1
1
1
1
1
1
1
1
1
1
1
1
1
1
1
1
1
1
1
1
1
1
1
1
1
1
1
1
1
1
1
1
1
1
1
1
1
1
1
1
1
1
1
1
1
1
1
1
1
1
1
1
1
1
1
1
1
1
1
1
1
1
1
1
1
1
1
1
1
1
1
1
1
1
1
1
1
1
1
1
1
1
1
1
1
1
1
1
1
1
1
1
1
1
1
1
1
1
1
1
1
1
1
1
1
1
1
1
1
1
1
1
1
1
1
1
1
1
1
1
1
1
1
1
1
1
1
1
1
1
1
1
1
1
1
1
1
1
1
1
1
1
1
1
1
1
1
1
1
1
1
1
1
1
1
1
1
1
1
1
1
1
1
1
1
1
1
1
1
1
1
1
1
1
1
1
1
1
1
1
1
1
1
1
1
1
1
1
1
1
1
1
1
1
1
1
1
1
1
1
1
1
1
1
1
1
1
1
1
1
1
1
1
1
1
1
1
1
1
1
1
1
1
1
1
1
1
1
1
1
1
1
1
1
1
1
1
1
1
1
1
1
1
1
1
1
1
1
1
1
1
1
1
1
1
1
1
1
1
1
1
1
1
1
1
1
1
1
1
1
1
1
1
1
1
1
1
1
1
1
1
1
1
1
1
1
1
1
1
1
1
1
1
1
1
1
1
1
1
1
1
1
1
1
1
1
1
1
1
1
1
1
1
1
1
1
1
1
1
1
1
1
1
1
1
1
1
1
1
1
1
1
1
1
1
1
1
1
1
1
1
1
1
1
1
1
1
1
1
1
1
1
1
1
1
1
1
1
1
1
1
1
1
1
1
1
1
1
1
1
1
1
1
1
1
1
1
1
1
1
1
1
1
1
1
1
1
1
1
1
1
1
1
1
1
1
1
1
1
1
1
1
1
1
1
1
1
1
1
1
1
1
1
1
1
1
1
1
1
1
1
1
1
1
1
1
1
1
1
1
1
1
1
1
1
1
1
1
1
1
1
1
1
1
1
1
1
1
1
1
1
1
1
1
1
1
1
1
1
1
1
1
1
1
1
1
1
1
1
1
1
1
1
1
1
1
1
1
1
1
1
1
1
1
1
1
1
1
1
1
1
1
1
1
1
1
1
1
1
1
1
1
1
1
1
1
1
1
1
1
1
1
1
1
1
1
1
1
1
1
1
1
1
1
1
1
1
1
1
1
1
1
1
1
1
1
1
1
1
1
1
1
1
1
1
1
1
1
1
1
1
1
1
1
1
1
1
1
1
1
1
1
1
1
1
1
1
1
1
1
1
1
1
1
1
1
1
1
1
1
1
1
1
1
1
1
1
1
1
1
1
1
1
1
1
1
1
1
1
1
1
1
1
1
1
1
1
1
1
1
1
1
1
1
1
1
1
1
1
1
1
1
1
1
1
1
1
1
1
1
1
1
1
1
1
1
1
1
1
1
1
1
1
1
1
1
1
1
1
1
1
1
1
1
1
1
1
1
1
1
1
1
1
1
1
1
1
1
1
1
1
1
1
1
1
1
1
1
1
1
1
1
1
1
1
1
1
1
1
1
1
1
1
1
1
1
1
1
1
1
1
1
1
1
1
1
1
1
1
1
1
1
1
1
1
1
1
1
1
1
1
1
1
1
1
1
1
1
1
1
1
1
1
1
1
1
1
1
1
1
1
1
1
1
1
1
1
1
1
1
1
1
1
1
1
1
1
1
1
1
1
1
1
1
1
1
1
1
1
1
1
1
1
1
1
1
1
1
1
1
1
1
1
1
1
1
1
1
1
1
1
1
1
1
1
1
1
1
1
1
1
1
1
1
1
1
1
1
1
1
1
1
1
1
1
1
1
1
1
1
1
1
1
1
1
1
1
1
1
1
1
1
1
1
1
1
1
1
1
1
1
1
1
1
1
1
1
1
1
1
1
1
1
1
1
1
1
1
1
1
1
1
1
1
1
1
1
1
1
1
1
1
1
1
1
1
1
1
1
1
1
1
1
1
1
1
1
1
1
1
1
1
1
1
1
1
1
1
1
1
1
1
1
1
1
1
1
1
1
1
1
1
1
1
1
1
1
1
1
1
1
1
1
1
1
1
1
1
1
1
1
1
1
1
1
1
1
1
1
1
1
1
1
1
1
1
1
1
1
1
1
1
1
1
1
1
1
1
1
1
1
1
1
1
1
1
1
1
1
1
1
1
1
1
1
1
1
1
1
1
1
1
1
1
1
1
1
1
1
1
1
1
1
1
1
1
1
1
1
1
1
1
1
1
1
1
1
1
1
1
1
1
1
1
1
1
1
1
1
1
1
1
1
1
1
1
1
1
1
1
1
1
1
1
1
1
1
1
1
1
1
1
1
1
1
1
1
1
1
1
1
1
1
1
1
1
1
1
1
1
1
1
1
1
1
1
1
1
1
1
1
1
1
1
1
1
1
1
1
1
1
1
1
1
1
1
1
1
1
1
1
1
1
1
1
1
1
1
1
1
1
1
1
1
1
1
1
1
1
1
1
1
1
1
1
1
1
1
1
1
1
1
1
1
1
1
1
1
1
1
1
1
1
1
1
1
1
1
1
1
1
1
1
1
1
1
1
1
1
1
1
1
1
1
1
1
1
1
1
1
1
1
1
1
1
1
1
1
1
1
1
1
1
1
1
1
1
1
1
1
1
1
1
1
1
1
1
1
1
1
1
1
1
1
1
1
1
1
1
1
1
1
1
1
1
1
1
1
1
1
1
1
1
1
1
1
1
1
1
1
1
1
1
1
1
1
1
1
1
1
1
1
1
1
1
1
1
1
1
1
1
1
1
1
1
1
1
1
1
1
1
1
1
1
1
1
1
1
1
1
1
1
1
1
1
1
1
1
1
1
1
1
1
1
1
1
1
1
1
1
1
1
1
1
1
1
1
1
1
1
1
1
1
1
1
1
1
1
1
1
1
1
1
1
1
1
1
1
1
1
1
1
1
1
1
1
1
1
1
1
1
1
1
1
1
1
1
1
1
1
1
1
1
1
1
1
1
1
1
1
1
1
1
1
1
1
1
1
1
1
1
1
1
1
1
1
1
1
1
1
1
1
1
1
1
1
1
1
1
1
1
1
1
1
1
1
1
1
1
1
1
1
1
1
1
1
1
1
1
1
1
1
1
1
1
1
1
1
1
1
1
1
1
1
1
1
1
1
1
1
1
1
1
1
1
1
1
1
1
1
1
1
1
1
1
1
1
1
1
1
1
1
1
1
1
1
1
1
1
1
1
1
1
1
1
1
1
1
1
1
1
1
1
1
1
1
1
1
1
1
1
1
1
1
1
1
1
1
1
1
1
1
1
1
1
1
1
1
1
1
1
1
1
1
1
1
1
1
1
1
1
1
1
1
1
1
1
1
1
1
1
1
1
1
1
1
1
1
1
1
1
1
1
1
1
1
1
1
1
1
1
1
1
1
1
1
1
1
1
1
1
1
1
1
1
1
1
1
1
1
1
1
1
1
1
1
1
1
1
1
1
1
1
1
1
1
1
1
1
1
1
1
1
1
1
1
1
1
1
1
1
1
1
1
1
1
1
1
1
1
1
1
1
1
1
1
1
1
1
1
1
1
1
1
1
1
1
1
1
1
1
1
1
1
1
1
1
1
1
1
1
1
1
1
1
1
1
1
1
1
1
1
1
1
1
1
1
1
1
1
1
1
1
1
1
1
1
1
1
1
1
1
1
1
1
1
1
1
1
1
1
1
1
1
1
1
1
1
1
1
1
1
1
1
1
1
1
1
1
1
1
1
1
1
1
1
1
1
1
1
1
1
1
1
1
1
1
1
1
1
1
1
1
1
1
1
1
1
1
1
1
1
1
1
1
1
1
1
1
1
1
1
1
1
1
1
1
1
1
1
1
1
1
1
1
1
1
1
1
1
1
1
1
1
1
1
1
1
1
1
1
1
1
1
1
1
1
1
1
1
1
1
1
1
1
1
1
1
1
1
1
1
1
1
1
1
1
1
1
1
1
1
1
1
1
1
1
1
1
1
1
1
1
1
1
1
1
1
1
1
1
1
1
1
1
1
1
1
1
1
1
1
1
1
1
1
1
1
1
1
1
1
1
1
1
1
1
1
1
1
1
1
1
1
1
1
1
1
1
1
1
1
1
1
1
1
1
1
1
1
1
1
1
1
1
1
1
1
1
1
1
1
1
1
1
1
1
1
1
1
1
1
1
1
1
1
1
1
1
1
1
1
1
1
1
1
1
1
1
1
1
1
1
1
1
1
1
1
1
1
1
1
1
1
1
1
1
1
1
1
1
1
1
1
1
1
1
1
1
1
1
1
1
1
1
1
1
1
1
1
1
1
1
1
1
1
1
1
1
1
1
1
1
1
1
1
1
1
1
1
1
1
1
1
1
1.70438
1.15003
1.02266
1.10816
1.2195
1.30386
1.37741
1.41536
1.47
1.53829
1.64353
1.74495
1.76218
1.74701
1.70651
1.69427
1.7095
1.74654
1.75727
1.74794
1.72115
1.69933
1.69883
1.7176
1.74154
1.7455
1.73579
1.70637
1.6892
1.68773
1.69503
2.31612
2.782
2.82371
2.84771
2.87339
2.89077
2.8941
2.89353
2.89884
2.91171
2.93407
2.97413
3.03025
3.08887
3.13241
3.15215
3.15598
1.95783
1.62962
1.42483
1.38331
1.37344
1.3554
1.29948
1.26163
1.26804
1.31584
1.39118
1.47004
1.53159
1.55072
1.55061
1.56155
1.58903
1.63267
1.67001
1.67839
1.67257
1.65928
1.6572
1.66645
1.68513
1.69325
1.692
1.68176
1.66992
1.66746
1.66664
2.21978
2.7412
2.81069
2.84034
2.86558
2.88375
2.89069
2.89166
2.89654
2.90831
2.93014
2.96948
3.02522
3.08462
3.13021
3.15183
3.15583
2.0506
1.84921
1.67662
1.54704
1.47841
1.4241
1.36167
1.29254
1.23889
1.24426
1.27783
1.31903
1.35801
1.38709
1.40026
1.42279
1.45496
1.48757
1.527
1.56407
1.59491
1.59994
1.60133
1.60234
1.60462
1.60865
1.61111
1.61291
1.6159
1.61913
1.61662
2.0053
2.63051
2.7591
2.80832
2.83992
2.85992
2.87403
2.88268
2.88999
2.9
2.91826
2.95412
3.00794
3.06935
3.12074
3.14883
3.15535
2.09982
1.94636
1.81401
1.70257
1.59455
1.51977
1.48204
1.43726
1.3657
1.30804
1.30199
1.2964
1.295
1.29903
1.30493
1.31664
1.34227
1.37473
1.40575
1.4417
1.48539
1.50972
1.52238
1.53145
1.53585
1.54165
1.54752
1.55579
1.56631
1.56787
1.5638
1.7063
2.44724
2.66707
2.73969
2.78337
2.81018
2.83225
2.85342
2.87024
2.8833
2.89893
2.92857
2.97767
3.04119
3.10148
3.13855
3.14936
2.14987
2.0212
1.90149
1.81113
1.71782
1.61367
1.56428
1.53286
1.49118
1.42939
1.36187
1.32861
1.30647
1.30226
1.3063
1.31397
1.31683
1.31594
1.31997
1.33981
1.38285
1.42796
1.45884
1.47775
1.48518
1.48759
1.49371
1.50456
1.52071
1.5328
1.53328
1.5475
2.25252
2.58881
2.66515
2.70392
2.73493
2.7645
2.79462
2.82366
2.84615
2.86623
2.89319
2.9359
2.99782
3.06705
3.11751
3.13572
2.18065
2.07672
1.96896
1.883
1.80585
1.72279
1.64562
1.59099
1.55857
1.52321
1.47746
1.41947
1.36618
1.35331
1.34957
1.34203
1.33202
1.32144
1.30956
1.3061
1.31437
1.33585
1.36533
1.40058
1.43241
1.4509
1.46249
1.47334
1.48706
1.50281
1.51016
1.51152
1.99347
2.51973
2.61228
2.62695
2.65142
2.6814
2.7161
2.75163
2.7845
2.81427
2.84466
2.88419
2.94234
3.01955
3.08698
3.10827
2.20258
2.11571
2.02383
1.94268
1.86595
1.7939
1.7329
1.6733
1.6045
1.56597
1.54244
1.5084
1.46406
1.41156
1.38271
1.36777
1.35543
1.34677
1.33856
1.32612
1.31233
1.30707
1.3093
1.31981
1.34735
1.3845
1.42034
1.44315
1.45394
1.46512
1.48259
1.49092
1.70674
2.43873
2.59081
2.58118
2.59145
2.61312
2.64344
2.67853
2.71067
2.74336
2.77916
2.82051
2.87316
2.94819
3.03407
3.0793
2.21421
2.14026
2.06226
1.98973
1.91675
1.84333
1.79007
1.74296
1.68341
1.61955
1.57744
1.5553
1.53088
1.49908
1.45783
1.41194
1.39232
1.38921
1.38188
1.36489
1.34247
1.31856
1.305
1.30689
1.31223
1.32498
1.3475
1.37168
1.39872
1.41791
1.43779
1.45344
1.49826
2.35265
2.59936
2.57876
2.57856
2.58645
2.60215
2.62125
2.64494
2.67425
2.70745
2.74608
2.79404
2.86432
2.96836
3.08646
2.22087
2.157
2.08808
2.02403
1.96122
1.89442
1.83379
1.78486
1.7394
1.69195
1.64456
1.58931
1.55912
1.5465
1.52361
1.49042
1.44972
1.41937
1.40437
1.39106
1.37626
1.36228
1.34366
1.32079
1.31432
1.31679
1.32349
1.33041
1.3395
1.35436
1.37441
1.40194
1.415
2.23776
2.61283
2.59113
2.57666
2.57436
2.57815
2.58831
2.60258
2.61797
2.64222
2.67352
2.71236
2.76041
2.80645
2.81514
2.21908
2.16414
2.10594
2.04839
1.98912
1.93149
1.8797
1.82625
1.77058
1.73339
1.69871
1.65265
1.60438
1.57241
1.55475
1.53688
1.51248
1.48299
1.4457
1.41502
1.40556
1.40074
1.38863
1.36714
1.34374
1.32451
1.32088
1.32107
1.32526
1.33059
1.3332
1.34363
1.34905
2.05113
2.62228
2.61395
2.60259
2.59324
2.58576
2.5806
2.57704
2.5818
2.59158
2.60619
2.62701
2.64899
2.63861
2.58791
2.21252
2.16519
2.11707
2.06692
2.01236
1.95969
1.91228
1.86382
1.81254
1.76844
1.73081
1.69553
1.65892
1.62543
1.58974
1.55755
1.54331
1.52775
1.50268
1.46948
1.4353
1.4213
1.4137
1.40155
1.38591
1.36926
1.34717
1.32539
1.32272
1.32573
1.32985
1.3302
1.32883
1.70191
2.58257
2.64913
2.63815
2.62599
2.60743
2.59174
2.57864
2.56682
2.56298
2.56162
2.56255
2.5523
2.52165
2.43625
2.20327
2.16245
2.12039
2.07551
2.0271
1.98156
1.9362
1.88995
1.8457
1.806
1.76519
1.72374
1.69233
1.6673
1.63591
1.59848
1.56577
1.54743
1.53271
1.51359
1.49002
1.46236
1.43322
1.42117
1.41551
1.40713
1.39109
1.36382
1.33928
1.33155
1.32883
1.32827
1.32839
1.36257
2.40735
2.66825
2.65865
2.65186
2.63507
2.61441
2.59142
2.57201
2.55611
2.53653
2.51267
2.48833
2.44241
2.35601
2.18864
2.15456
2.11756
2.07709
2.03676
1.99732
1.9554
1.91069
1.87183
1.83482
1.79758
1.75877
1.72447
1.69341
1.6646
1.63646
1.60881
1.58197
1.55069
1.53088
1.52047
1.50431
1.47939
1.44915
1.43374
1.42746
1.41763
1.40167
1.38231
1.36497
1.34457
1.32925
1.32852
1.33337
2.03705
2.63093
2.66554
2.66138
2.65063
2.63455
2.61287
2.58767
2.56429
2.53782
2.50295
2.45971
2.39873
2.31347
2.17312
2.14391
2.1118
2.07589
2.0415
2.00565
1.96654
1.92717
1.89273
1.85635
1.81962
1.78424
1.75456
1.72237
1.68883
1.6571
1.63659
1.61374
1.58679
1.55677
1.53608
1.52434
1.50956
1.48931
1.4686
1.44909
1.4319
1.42194
1.41233
1.40018
1.38247
1.35795
1.34034
1.33524
1.5505
2.44725
2.63839
2.64928
2.64722
2.63961
2.62577
2.60604
2.58098
2.54788
2.50838
2.45995
2.39331
2.31452
2.15739
2.13121
2.10212
2.07212
2.04122
2.00828
1.97236
1.93968
1.90654
1.87281
1.83663
1.80548
1.77458
1.74415
1.71336
1.68477
1.65942
1.63327
1.61096
1.58821
1.56738
1.54618
1.52557
1.51151
1.49852
1.48184
1.46052
1.4378
1.42762
1.42017
1.4079
1.39192
1.37705
1.35528
1.36306
2.10896
2.54919
2.6124
2.62571
2.62945
2.62505
2.61144
2.59289
2.56269
2.52193
2.47039
2.40288
2.32737
2.14291
2.11902
2.0922
2.06594
2.03837
2.00745
1.97602
1.94633
1.91484
1.8819
1.84947
1.82169
1.79096
1.76192
1.73125
1.70781
1.68192
1.65636
1.62969
1.60908
1.59212
1.5716
1.54964
1.52807
1.51455
1.50176
1.48659
1.46735
1.44857
1.43448
1.42144
1.41027
1.40318
1.39066
1.36937
1.60238
2.36305
2.54649
2.58812
2.60826
2.60647
2.60143
2.58908
2.56822
2.53525
2.48838
2.42404
2.35268
2.12754
2.10547
2.08254
2.05816
2.0315
2.00274
1.97597
1.94749
1.91788
1.88567
1.85961
1.83177
1.80406
1.77442
1.74905
1.72555
1.6992
1.6758
1.65054
1.63155
1.61009
1.58988
1.571
1.55248
1.53531
1.51636
1.50003
1.48769
1.47391
1.45768
1.44263
1.42566
1.41693
1.40954
1.38926
1.40076
2.07144
2.44276
2.52822
2.55365
2.56632
2.57236
2.57104
2.55953
2.53254
2.49631
2.44441
2.38293
2.11488
2.09357
2.07203
2.04883
2.02286
1.99729
1.97286
1.94646
1.9177
1.89077
1.86671
1.83991
1.81326
1.78486
1.76406
1.73937
1.71613
1.69078
1.66946
1.6502
1.62774
1.60766
1.58689
1.57176
1.55395
1.53582
1.51645
1.50073
1.48916
1.47576
1.46323
1.44824
1.43582
1.42414
1.40749
1.39463
1.59794
2.26903
2.45449
2.49058
2.51881
2.53453
2.54045
2.53427
2.51924
2.49178
2.45029
2.40219
2.09614
2.0774
2.05795
2.03636
2.01228
1.99046
1.96784
1.94353
1.91644
1.89446
1.87017
1.8458
1.81826
1.79613
1.77481
1.75081
1.72789
1.70337
1.68571
1.66394
1.64353
1.62195
1.60368
1.58737
1.56771
1.55116
1.53324
1.51954
1.50511
1.48971
1.47656
1.46512
1.45417
1.4418
1.42764
1.40629
1.41813
1.96423
2.34954
2.43955
2.45409
2.47336
2.48598
2.49279
2.48826
2.47188
2.44284
2.40576
2.08097
2.06133
2.04412
2.02468
2.00374
1.9841
1.96326
1.93884
1.91574
1.89547
1.87254
1.84833
1.8231
1.80482
1.78188
1.76042
1.73567
1.71625
1.69779
1.6757
1.65625
1.63419
1.61932
1.60119
1.58262
1.56441
1.54723
1.53572
1.52059
1.50646
1.49097
1.47854
1.46704
1.45416
1.44289
1.42775
1.41462
1.55583
2.16278
2.37051
2.39239
2.4115
2.42657
2.43595
2.43928
2.43373
2.41843
2.39552
2.06891
2.05073
2.0318
2.01331
1.99445
1.97598
1.95634
1.93293
1.9133
1.89362
1.87229
1.84659
1.82741
1.80901
1.78724
1.76458
1.74099
1.72615
1.70592
1.68631
1.66435
1.64619
1.63172
1.61205
1.59541
1.57589
1.56262
1.5493
1.53304
1.51918
1.50401
1.49308
1.47997
1.46669
1.45268
1.44241
1.42588
1.43094
1.80814
2.24901
2.34982
2.3588
2.36891
2.37613
2.3828
2.38424
2.38011
2.36902
2.03841
2.03531
2.0186
2.00064
1.9835
1.96669
1.94776
1.92645
1.90828
1.89035
1.86983
1.84562
1.82862
1.80981
1.79013
1.76578
1.74804
1.73301
1.71293
1.69347
1.67028
1.65737
1.64142
1.6232
1.60529
1.5869
1.57643
1.56108
1.54589
1.52984
1.5157
1.50575
1.49155
1.47925
1.46409
1.45458
1.44317
1.42852
1.49623
2.04828
2.29025
2.316
2.31688
2.31957
2.32387
2.32719
2.32651
2.32243
1.89021
2.01356
2.00444
1.98616
1.97015
1.95527
1.93789
1.91909
1.90242
1.88562
1.86476
1.84351
1.82811
1.81073
1.79075
1.76653
1.75252
1.73643
1.71825
1.69683
1.67721
1.66569
1.64844
1.63185
1.61156
1.5979
1.58692
1.57069
1.556
1.53778
1.52712
1.51624
1.50192
1.48931
1.47376
1.46583
1.45701
1.43582
1.43655
1.68153
2.14805
2.27875
2.27458
2.27647
2.27726
2.27717
2.27581
2.2727
1.53265
1.91193
1.99041
1.97618
1.95696
1.94237
1.92671
1.9102
1.89532
1.87937
1.85931
1.8406
1.82576
1.80952
1.7892
1.76791
1.7548
1.73873
1.72107
1.69754
1.68311
1.67136
1.65472
1.63782
1.61697
1.6069
1.59462
1.57899
1.5632
1.54568
1.53722
1.52525
1.51177
1.49764
1.48359
1.47585
1.46704
1.45108
1.43558
1.46372
1.8855
2.1868
2.2522
2.2441
2.24036
2.23628
2.23144
2.22599
1.10783
1.63189
1.91327
1.96679
1.95053
1.93138
1.91465
1.89996
1.88684
1.87174
1.85257
1.83603
1.82221
1.80644
1.78611
1.76754
1.75474
1.73927
1.72127
1.69921
1.68717
1.67465
1.65932
1.64009
1.6218
1.6133
1.6
1.58548
1.56731
1.55314
1.54543
1.5326
1.51977
1.50357
1.49256
1.48529
1.47432
1.46218
1.44366
1.44081
1.55925
2.01121
2.20826
2.21125
2.20619
2.20079
2.19371
2.18611
1.00347
1.18353
1.69465
1.9064
1.94382
1.92822
1.9062
1.89028
1.87752
1.8632
1.84567
1.83108
1.81761
1.80182
1.78169
1.76608
1.75386
1.73863
1.7203
1.70042
1.68973
1.67693
1.66166
1.6414
1.62607
1.6174
1.60416
1.58985
1.57058
1.55991
1.55178
1.539
1.52592
1.50879
1.50062
1.493
1.48135
1.46922
1.45367
1.44208
1.44871
1.69854
2.07603
2.18176
2.17372
2.16816
2.16187
2.15425
1.00002
1.00948
1.26169
1.72858
1.89541
1.9205
1.90324
1.88364
1.8693
1.85431
1.83813
1.82566
1.81216
1.79641
1.77692
1.76338
1.75134
1.73662
1.71815
1.70087
1.69085
1.6774
1.66197
1.64208
1.62955
1.62062
1.60756
1.59249
1.57351
1.56525
1.5565
1.54403
1.53016
1.51384
1.50742
1.499
1.48695
1.47384
1.45974
1.45025
1.4413
1.47701
1.83463
2.08898
2.1543
2.14599
2.13812
2.13063
1
1.00009
1.02024
1.32956
1.74536
1.8832
1.89551
1.87974
1.86344
1.84634
1.83166
1.81996
1.80626
1.79054
1.77227
1.76093
1.74843
1.73379
1.71521
1.70079
1.69089
1.67709
1.66182
1.64291
1.63246
1.62278
1.60962
1.59369
1.57642
1.56948
1.56022
1.54832
1.53294
1.51854
1.51301
1.50347
1.49142
1.47687
1.4643
1.45885
1.44542
1.44103
1.54559
1.91876
2.09551
2.12681
2.11893
2.11053
1
1
1.00028
1.03573
1.38086
1.75355
1.86905
1.87328
1.86019
1.83949
1.82536
1.81417
1.80124
1.78498
1.7692
1.75862
1.7449
1.7302
1.71185
1.7007
1.69038
1.67654
1.66101
1.64332
1.6346
1.62365
1.61009
1.59421
1.57935
1.5728
1.56307
1.55112
1.53466
1.52264
1.51704
1.5068
1.49506
1.47991
1.46831
1.46465
1.45443
1.43642
1.44245
1.63639
1.96411
2.09191
2.09301
2.08614
1
1
1
1.00065
1.05335
1.41725
1.75785
1.85334
1.85259
1.83662
1.81915
1.80769
1.79564
1.77934
1.76701
1.75541
1.74139
1.7265
1.70929
1.70054
1.6891
1.67565
1.65903
1.64415
1.63616
1.62358
1.61037
1.59428
1.58205
1.57567
1.56497
1.55254
1.53577
1.52592
1.52013
1.50961
1.4979
1.48227
1.47321
1.46892
1.46001
1.44156
1.43324
1.45919
1.72087
1.9879
2.06876
2.06245
1
1
1
1
1.00123
1.07054
1.44814
1.7555
1.83384
1.83253
1.81724
1.80199
1.78741
1.77287
1.76328
1.75101
1.73847
1.72221
1.70852
1.70041
1.6876
1.67427
1.65646
1.64537
1.63661
1.62325
1.61074
1.59422
1.58504
1.57785
1.56597
1.55331
1.53687
1.52888
1.5227
1.51225
1.50015
1.48409
1.47761
1.47249
1.46326
1.44949
1.434
1.43666
1.49763
1.78916
1.9841
2.04132
1
1
1
1
1.00001
1.00201
1.08723
1.47279
1.73915
1.81729
1.81565
1.80209
1.78252
1.76753
1.75804
1.74668
1.73493
1.71783
1.70872
1.69899
1.68542
1.67181
1.65472
1.64673
1.63661
1.62371
1.61053
1.59431
1.58774
1.57886
1.56623
1.55387
1.53845
1.53176
1.52496
1.51438
1.50164
1.48616
1.48109
1.47526
1.46586
1.45439
1.4384
1.43347
1.43693
1.54164
1.83394
1.97042
1
1
1
1
1
1.00001
1.00284
1.10434
1.46901
1.72912
1.80632
1.80258
1.785
1.76494
1.75281
1.74278
1.7294
1.71573
1.70807
1.69543
1.68287
1.66823
1.65415
1.64779
1.63643
1.62438
1.60914
1.59583
1.59003
1.57897
1.56692
1.55424
1.54022
1.53496
1.52705
1.51586
1.50281
1.48848
1.4841
1.47804
1.46839
1.45673
1.44291
1.4368
1.43015
1.43797
1.59204
1.85014
1
1
1
1
1
1
1.00002
1.00381
1.11086
1.45913
1.73059
1.79343
1.78564
1.76583
1.75184
1.73899
1.72269
1.71414
1.70481
1.69137
1.68045
1.66393
1.65488
1.6484
1.63625
1.6243
1.60744
1.59807
1.59126
1.5789
1.56822
1.55429
1.54307
1.53811
1.52833
1.51689
1.50391
1.49118
1.48707
1.48057
1.47079
1.45753
1.44546
1.44115
1.43278
1.42417
1.44408
1.63111
1
1
1
1
1
1
1
1.00003
1.00447
1.10852
1.46999
1.72707
1.76886
1.765
1.75543
1.73849
1.72021
1.71195
1.70056
1.68952
1.67739
1.6611
1.65619
1.64795
1.63567
1.62282
1.6064
1.59984
1.59144
1.57956
1.56937
1.55417
1.54667
1.54058
1.52878
1.51803
1.50519
1.49434
1.49028
1.48275
1.47243
1.4584
1.44682
1.44391
1.43733
1.42217
1.42283
1.46136
1
1
1
1
1
1
1
1
1.00004
1.00462
1.11347
1.48503
1.69155
1.74621
1.75509
1.74203
1.722
1.71051
1.69934
1.68948
1.67359
1.66196
1.65733
1.64629
1.63433
1.61969
1.60613
1.60084
1.59115
1.58093
1.56957
1.55553
1.55028
1.54152
1.52897
1.51958
1.50615
1.49819
1.49378
1.48441
1.47335
1.45954
1.44834
1.44571
1.44109
1.42745
1.41654
1.41948
1
1
1
1
1
1
1
1
1
1.00004
1.00513
1.12188
1.45937
1.65756
1.73776
1.74283
1.72812
1.7122
1.70116
1.68937
1.67133
1.66503
1.65764
1.64421
1.6324
1.61612
1.60689
1.60149
1.59132
1.58223
1.56862
1.55859
1.55271
1.54082
1.53005
1.52128
1.50755
1.50264
1.49672
1.48504
1.47405
1.46056
1.45066
1.44817
1.44359
1.43414
1.4192
1.41452
1
1
1
1
1
1
1
1
1
1
1.00005
1.00545
1.1143
1.41042
1.64455
1.73257
1.73277
1.71974
1.70658
1.6879
1.67226
1.66741
1.6559
1.64247
1.63051
1.61426
1.60875
1.60227
1.59253
1.58254
1.56825
1.56149
1.55284
1.53993
1.53238
1.52147
1.51073
1.50731
1.49802
1.48496
1.47506
1.46098
1.45406
1.45207
1.44654
1.438
1.4242
1.41621
1
1
1
1
1
1
1
1
1
1
1
1.00005
1.00467
1.09253
1.36782
1.65387
1.71972
1.7149
1.70876
1.69045
1.67555
1.66655
1.65224
1.64156
1.62867
1.61512
1.61179
1.60383
1.59418
1.58124
1.56969
1.56265
1.55118
1.54168
1.53484
1.52109
1.51593
1.51036
1.49681
1.48544
1.47609
1.46118
1.45917
1.45736
1.4498
1.44031
1.42704
1.41904
1
1
1
1
1
1
1
1
1
1
1
1
1.00004
1.0035
1.0704
1.37213
1.64334
1.68726
1.70204
1.69376
1.67797
1.66345
1.65063
1.64254
1.628
1.61998
1.61596
1.60569
1.59416
1.57986
1.57117
1.56214
1.55151
1.54583
1.53484
1.52422
1.51972
1.50951
1.49558
1.48752
1.47495
1.46489
1.46597
1.4619
1.45149
1.44159
1.42772
1.42117
1
1
1
1
1
1
1
1
1
1
1
1
1
1.00003
1.00263
1.06841
1.37962
1.59171
1.66657
1.6935
1.68284
1.66612
1.65668
1.64603
1.62916
1.62642
1.61887
1.60604
1.59266
1.5803
1.57189
1.56275
1.55561
1.5477
1.53639
1.52795
1.5192
1.50709
1.49832
1.48931
1.47366
1.47239
1.47206
1.46325
1.45244
1.44291
1.42846
1.42401
1
1
1
1
1
1
1
1
1
1
1
1
1
1
1.00002
1.00246
1.07125
1.33786
1.5331
1.65531
1.68851
1.68336
1.67067
1.64716
1.6339
1.63006
1.61809
1.60526
1.59254
1.58206
1.57377
1.56692
1.5584
1.54939
1.53993
1.52796
1.51631
1.50861
1.50309
1.48839
1.47751
1.47844
1.47456
1.46291
1.45435
1.44314
1.43051
1.42811
1
1
1
1
1
1
1
1
1
1
1
1
1
1
1
1.00002
1.0024
1.05515
1.23653
1.50011
1.65859
1.67773
1.67035
1.6516
1.63882
1.62823
1.61509
1.60481
1.59487
1.58597
1.57839
1.56963
1.56101
1.55184
1.5394
1.52744
1.51644
1.51095
1.50524
1.49042
1.48439
1.4821
1.47436
1.46397
1.45615
1.44185
1.43518
1.43302
1
1
1
1
1
1
1
1
1
1
1
1
1
1
1
1
1.00002
1.00132
1.0246
1.18967
1.51283
1.63694
1.65817
1.65328
1.64036
1.62444
1.61317
1.60546
1.59904
1.59281
1.58282
1.57308
1.56498
1.55131
1.53737
1.52901
1.51819
1.51283
1.50753
1.49625
1.48974
1.48414
1.47468
1.46706
1.45727
1.44287
1.441
1.43747
1
1
1
1
1
1
1
1
1
1
1
1
1
1
1
1
1
1.00001
1.00046
1.01765
1.19393
1.49208
1.6092
1.63393
1.63849
1.62942
1.618
1.61052
1.60531
1.59726
1.58484
1.57805
1.56603
1.54824
1.53871
1.53138
1.52028
1.51779
1.51248
1.50209
1.49317
1.48408
1.47506
1.46915
1.45734
1.44886
1.44744
1.44065
1
1
1
1
1
1
1
1
1
1
1
1
1
1
1
1
1
1
1
1.00038
1.01746
1.17957
1.43399
1.56051
1.61593
1.63714
1.63102
1.62215
1.61343
1.5974
1.58533
1.57903
1.56295
1.54787
1.5433
1.53347
1.52644
1.52443
1.51772
1.50644
1.49459
1.48341
1.47705
1.47142
1.45903
1.45633
1.45248
1.44113
1
1
1
1
1
1
1
1
1
1
1
1
1
1
1
1
1
1
1
1
1.00035
1.01327
1.12464
1.34691
1.52248
1.62372
1.63741
1.63127
1.61942
1.59774
1.58649
1.57817
1.56055
1.55263
1.54871
1.53921
1.5343
1.53042
1.52096
1.5068
1.49288
1.48424
1.48138
1.47428
1.46623
1.46394
1.45414
1.43958
1
1
1
1
1
1
1
1
1
1
1
1
1
1
1
1
1
1
1
1
1
1.00018
1.00604
1.07345
1.27611
1.5163
1.62596
1.6258
1.61848
1.60246
1.59154
1.5787
1.56304
1.55889
1.55512
1.54772
1.54137
1.53503
1.52166
1.50373
1.49108
1.48887
1.48752
1.4797
1.4758
1.46943
1.45164
1.43841
1
1
1
1
1
1
1
1
1
1
1
1
1
1
1
1
1
1
1
1
1
1
1.00005
1.00257
1.04333
1.23312
1.50539
1.59943
1.60486
1.60014
1.59517
1.58119
1.56855
1.56479
1.56153
1.55492
1.54711
1.53804
1.51901
1.49978
1.49525
1.49591
1.49334
1.48764
1.48367
1.46934
1.44645
1.43892
1
1
1
1
1
1
1
1
1
1
1
1
1
1
1
1
1
1
1
1
1
1
1
1.00002
1.00125
1.02854
1.20111
1.47382
1.55778
1.57827
1.59207
1.58573
1.5775
1.57328
1.56821
1.55846
1.54894
1.5372
1.51338
1.50197
1.50349
1.50417
1.50054
1.4962
1.48765
1.46304
1.44449
1.44178
1
1
1
1
1
1
1
1
1
1
1
1
1
1
1
1
1
1
1
1
1
1
1
1
1.00001
1.00073
1.02016
1.17533
1.41437
1.50723
1.56433
1.59458
1.59378
1.58649
1.57248
1.55823
1.55059
1.53452
1.51195
1.5103
1.51295
1.51245
1.50859
1.5027
1.48547
1.45554
1.44841
1.44751
1
1
1
1
1
1
1
1
1
1
1
1
1
1
1
1
1
1
1
1
1
1
1
1
1
1
1.00045
1.014
1.12727
1.30577
1.45975
1.58
1.59666
1.58761
1.57283
1.56172
1.55425
1.5303
1.51727
1.51989
1.52242
1.52046
1.51518
1.50419
1.4768
1.45542
1.45575
1.45468
1
1
1
1
1
1
1
1
1
1
1
1
1
1
1
1
1
1
1
1
1
1
1
1
1
1
1
1.00021
1.0064
1.05872
1.21017
1.46498
1.57743
1.57447
1.56895
1.56314
1.55243
1.52933
1.52614
1.53041
1.53193
1.52741
1.51777
1.49887
1.46935
1.46315
1.46523
1.4638
1
1
1
1
1
1
1
1
1
1
1
1
1
1
1
1
1
1
1
1
1
1
1
1
1
1
1
1
1.00005
1.00182
1.02682
1.18461
1.45002
1.53482
1.54756
1.55712
1.55012
1.53757
1.54114
1.5437
1.53875
1.52852
1.51702
1.49051
1.47254
1.47448
1.47605
1.47466
1
1
1
1
1
1
1
1
1
1
1
1
1
1
1
1
1
1
1
1
1
1
1
1
1
1
1
1
1
1.00001
1.00077
1.01867
1.16904
1.39753
1.47694
1.52337
1.55414
1.56167
1.55826
1.54848
1.53815
1.53068
1.51391
1.48707
1.48354
1.48687
1.48642
1.48533
1
1
1
1
1
1
1
1
1
1
1
1
1
1
1
1
1
1
1
1
1
1
1
1
1
1
1
1
1
1
1.00001
1.00048
1.01514
1.12779
1.27745
1.4124
1.53648
1.56245
1.55608
1.54802
1.53988
1.53146
1.50528
1.49165
1.49456
1.49858
1.49617
1.4924
1
1
1
1
1
1
1
1
1
1
1
1
1
1
1
1
1
1
1
1
1
1
1
1
1
1
1
1
1
1
1
1
1.00028
1.00711
1.05033
1.17236
1.41683
1.5303
1.54169
1.54024
1.539
1.52566
1.50361
1.50372
1.51043
1.50904
1.50276
1.49394
1
1
1
1
1
1
1
1
1
1
1
1
1
1
1
1
1
1
1
1
1
1
1
1
1
1
1
1
1
1
1
1
1
1.00006
1.00147
1.0188
1.14863
1.38947
1.48809
1.51519
1.52761
1.52282
1.52088
1.52392
1.51991
1.51284
1.50679
1.49175
1
1
1
1
1
1
1
1
1
1
1
1
1
1
1
1
1
1
1
1
1
1
1
1
1
1
1
1
1
1
1
1
1
1
1.00001
1.00048
1.01256
1.12842
1.32229
1.41389
1.48717
1.52923
1.53253
1.52638
1.52066
1.51584
1.50753
1.48471
1
1
1
1
1
1
1
1
1
1
1
1
1
1
1
1
1
1
1
1
1
1
1
1
1
1
1
1
1
1
1
1
1
1
1
1
1.00028
1.0093
1.07663
1.18805
1.35309
1.49961
1.52482
1.52323
1.52045
1.51692
1.50044
1.48125
1
1
1
1
1
1
1
1
1
1
1
1
1
1
1
1
1
1
1
1
1
1
1
1
1
1
1
1
1
1
1
1
1
1
1
1
1
1.00013
1.00279
1.02186
1.11684
1.34407
1.47467
1.50616
1.51159
1.51041
1.49748
1.49444
1
1
1
1
1
1
1
1
1
1
1
1
1
1
1
1
1
1
1
1
1
1
1
1
1
1
1
1
1
1
1
1
1
1
1
1
1
1
1.00002
1.00047
1.00927
1.09248
1.30572
1.41858
1.46635
1.49388
1.50715
1.50612
1
1
1
1
1
1
1
1
1
1
1
1
1
1
1
1
1
1
1
1
1
1
1
1
1
1
1
1
1
1
1
1
1
1
1
1
1
1
1
1
1.00018
1.00586
1.07135
1.20824
1.31804
1.44332
1.5029
1.50293
1
1
1
1
1
1
1
1
1
1
1
1
1
1
1