/*--------------------------------*- C++ -*----------------------------------*\
  =========                 |
  \\      /  F ield         | OpenFOAM: The Open Source CFD Toolbox
   \\    /   O peration     | Website:  https://openfoam.org
    \\  /    A nd           | Version:  7
     \\/     M anipulation  |
\*---------------------------------------------------------------------------*/
FoamFile
{
    version     2.0;
    format      ascii;
    class       volVectorField;
    location    "3.8";
    object      U;
}
// * * * * * * * * * * * * * * * * * * * * * * * * * * * * * * * * * * * * * //

dimensions      [0 1 -1 0 0 0 0];

internalField   nonuniform List<vector> 
16192
(
(-0.455937 0.0210628 0)
(-0.540122 0.0210709 0)
(-0.63324 0.0208958 0)
(-0.733243 0.0200638 0)
(-0.8363 0.0183414 0)
(-0.937605 0.0157893 0)
(-1.03331 0.0127805 0)
(-1.12242 0.00988028 0)
(-1.20105 0.00724026 0)
(-1.27337 0.00546787 0)
(-1.31339 0.0035883 0)
(-1.32576 0.000670261 0)
(-1.30631 -0.00422692 0)
(-1.24673 -0.0129086 0)
(-1.16143 -0.0229521 0)
(-1.04121 -0.0324456 0)
(-0.895643 -0.0350317 0)
(-0.716204 -0.0445074 0)
(-0.527653 -0.0484606 0)
(-0.316674 -0.0590587 0)
(-0.0925995 -0.0548617 0)
(-0.433098 0.0550836 0)
(-0.520569 0.0600458 0)
(-0.616895 0.0623 0)
(-0.719126 0.0613458 0)
(-0.823829 0.0573804 0)
(-0.926522 0.0506494 0)
(-1.02308 0.0419262 0)
(-1.11251 0.0328991 0)
(-1.19085 0.0240315 0)
(-1.26284 0.0177919 0)
(-1.30286 0.0129541 0)
(-1.31671 0.00849623 0)
(-1.29515 -0.00145338 0)
(-1.231 -0.0121252 0)
(-1.13891 -0.0267139 0)
(-1.01109 -0.053013 0)
(-0.867431 -0.0811448 0)
(-0.69574 -0.114136 0)
(-0.513249 -0.130112 0)
(-0.314477 -0.160169 0)
(-0.0942447 -0.154869 0)
(-0.415803 0.0965896 0)
(-0.500291 0.103806 0)
(-0.594114 0.106361 0)
(-0.694725 0.103753 0)
(-0.798613 0.0964139 0)
(-0.901037 0.0845904 0)
(-0.997376 0.0692675 0)
(-1.08666 0.0530808 0)
(-1.16442 0.0367311 0)
(-1.2361 0.0247786 0)
(-1.27627 0.0138469 0)
(-1.29217 0.00316602 0)
(-1.27131 -0.0153434 0)
(-1.21413 -0.0389993 0)
(-1.12427 -0.0662685 0)
(-1.00146 -0.105902 0)
(-0.853075 -0.141619 0)
(-0.687616 -0.192414 0)
(-0.501711 -0.217522 0)
(-0.311276 -0.264582 0)
(-0.0937878 -0.262097 0)
(-0.377378 0.128662 0)
(-0.459599 0.140253 0)
(-0.552176 0.145683 0)
(-0.652085 0.143311 0)
(-0.755614 0.133615 0)
(-0.858176 0.117691 0)
(-0.954625 0.097283 0)
(-1.04365 0.0760946 0)
(-1.12 0.0553832 0)
(-1.18991 0.0408646 0)
(-1.22821 0.0283623 0)
(-1.24606 0.0175058 0)
(-1.22219 -0.00675229 0)
(-1.1682 -0.0390205 0)
(-1.07531 -0.0812793 0)
(-0.959006 -0.142334 0)
(-0.812162 -0.195201 0)
(-0.657962 -0.266268 0)
(-0.4728 -0.303066 0)
(-0.295183 -0.363912 0)
(-0.0884543 -0.368066 0)
(-0.33296 0.166754 0)
(-0.411315 0.182529 0)
(-0.500157 0.18996 0)
(-0.596728 0.187203 0)
(-0.697198 0.17477 0)
(-0.79698 0.154096 0)
(-0.890592 0.127054 0)
(-0.976889 0.0978679 0)
(-1.04987 0.0679122 0)
(-1.11764 0.0447894 0)
(-1.15365 0.0224725 0)
(-1.17552 0.0042309 0)
(-1.15121 -0.0281472 0)
(-1.105 -0.0671886 0)
(-1.01209 -0.114259 0)
(-0.90843 -0.187048 0)
(-0.760582 -0.250011 0)
(-0.621867 -0.339395 0)
(-0.441306 -0.389118 0)
(-0.275779 -0.458451 0)
(-0.0817032 -0.47025 0)
(-0.272037 0.195004 0)
(-0.34407 0.214135 0)
(-0.427416 0.224292 0)
(-0.519257 0.222346 0)
(-0.61497 0.207696 0)
(-0.710289 0.182435 0)
(-0.800286 0.150604 0)
(-0.884069 0.118279 0)
(-0.954621 0.0871613 0)
(-1.02048 0.064436 0)
(-1.0542 0.040722 0)
(-1.08155 0.0205222 0)
(-1.05668 -0.0209056 0)
(-1.02267 -0.0731882 0)
(-0.933631 -0.136515 0)
(-0.846533 -0.227429 0)
(-0.699964 -0.304421 0)
(-0.572948 -0.407521 0)
(-0.404636 -0.473832 0)
(-0.252708 -0.549118 0)
(-0.0737262 -0.568243 0)
(-0.205253 0.230467 0)
(-0.269587 0.254473 0)
(-0.344905 0.268275 0)
(-0.428527 0.266944 0)
(-0.516121 0.250523 0)
(-0.604293 0.222449 0)
(-0.688239 0.185935 0)
(-0.767539 0.146688 0)
(-0.834619 0.106063 0)
(-0.898765 0.0723083 0)
(-0.931525 0.037553 0)
(-0.96635 0.00978369 0)
(-0.944303 -0.0388455 0)
(-0.927043 -0.0966153 0)
(-0.843084 -0.166616 0)
(-0.772573 -0.269417 0)
(-0.63371 -0.362298 0)
(-0.516634 -0.475039 0)
(-0.363354 -0.556037 0)
(-0.227371 -0.636527 0)
(-0.0652649 -0.661971 0)
(-0.125229 0.249759 0)
(-0.179205 0.277218 0)
(-0.243927 0.293436 0)
(-0.317205 0.293725 0)
(-0.394697 0.276524 0)
(-0.473765 0.244522 0)
(-0.550707 0.203107 0)
(-0.625919 0.160774 0)
(-0.691713 0.120074 0)
(-0.756107 0.0879772 0)
(-0.791628 0.0534152 0)
(-0.832945 0.0255137 0)
(-0.813433 -0.0294794 0)
(-0.81272 -0.098928 0)
(-0.736109 -0.185831 0)
(-0.681485 -0.303854 0)
(-0.558008 -0.416403 0)
(-0.455054 -0.539672 0)
(-0.318407 -0.633821 0)
(-0.20023 -0.718705 0)
(-0.0565545 -0.749418 0)
(-0.0420077 0.277092 0)
(-0.0844707 0.310859 0)
(-0.136949 0.331882 0)
(-0.197283 0.333901 0)
(-0.26222 0.317764 0)
(-0.330964 0.286645 0)
(-0.400111 0.244815 0)
(-0.470105 0.20015 0)
(-0.53302 0.153706 0)
(-0.595589 0.111678 0)
(-0.63492 0.0655719 0)
(-0.681924 0.023459 0)
(-0.666844 -0.0388177 0)
(-0.680818 -0.115763 0)
(-0.617192 -0.213625 0)
(-0.577134 -0.338948 0)
(-0.474147 -0.467501 0)
(-0.390251 -0.599856 0)
(-0.270374 -0.70478 0)
(-0.17201 -0.792991 0)
(-0.0479145 -0.827944 0)
(0.0467271 0.285083 0)
(0.0188576 0.320842 0)
(-0.0189819 0.34403 0)
(-0.0647671 0.348872 0)
(-0.115711 0.334605 0)
(-0.17275 0.302948 0)
(-0.232736 0.258041 0)
(-0.296549 0.209719 0)
(-0.356896 0.161766 0)
(-0.418807 0.120874 0)
(-0.465257 0.0776753 0)
(-0.514828 0.0369078 0)
(-0.512761 -0.0253801 0)
(-0.532695 -0.108401 0)
(-0.488129 -0.221748 0)
(-0.461836 -0.35801 0)
(-0.380594 -0.505084 0)
(-0.322217 -0.650893 0)
(-0.219612 -0.767471 0)
(-0.143436 -0.858503 0)
(-0.0395567 -0.897206 0)
(0.132109 0.30323 0)
(0.119771 0.344946 0)
(0.0974178 0.373348 0)
(0.0676888 0.38146 0)
(0.0327721 0.370323 0)
(-0.0118353 0.341733 0)
(-0.0628203 0.300711 0)
(-0.120292 0.255856 0)
(-0.176575 0.206863 0)
(-0.235642 0.159876 0)
(-0.285662 0.106867 0)
(-0.333223 0.0471059 0)
(-0.352306 -0.0275921 0)
(-0.372834 -0.121533 0)
(-0.355513 -0.24523 0)
(-0.344212 -0.38731 0)
(-0.284269 -0.543317 0)
(-0.254045 -0.696249 0)
(-0.167546 -0.821592 0)
(-0.115502 -0.91413 0)
(-0.0313033 -0.956161 0)
(0.214732 0.297321 0)
(0.218051 0.342367 0)
(0.212388 0.371819 0)
(0.200316 0.384286 0)
(0.183576 0.37811 0)
(0.153039 0.353926 0)
(0.114022 0.311634 0)
(0.0650493 0.262344 0)
(0.0136667 0.212161 0)
(-0.0433436 0.166712 0)
(-0.0959977 0.115421 0)
(-0.14653 0.0614261 0)
(-0.187258 -0.00493991 0)
(-0.21042 -0.0982868 0)
(-0.218831 -0.22851 0)
(-0.224085 -0.38193 0)
(-0.183366 -0.554455 0)
(-0.183429 -0.72254 0)
(-0.114361 -0.862802 0)
(-0.089574 -0.959331 0)
(-0.0232394 -1.00475 0)
(0.297751 0.310304 0)
(0.309804 0.356072 0)
(0.318538 0.389045 0)
(0.323437 0.404309 0)
(0.323563 0.404874 0)
(0.30871 0.386888 0)
(0.28275 0.35235 0)
(0.241022 0.312604 0)
(0.196825 0.263405 0)
(0.143095 0.21603 0)
(0.0914815 0.159842 0)
(0.039219 0.0924126 0)
(-0.0136405 0.00762511 0)
(-0.0457875 -0.10402 0)
(-0.0786092 -0.242568 0)
(-0.106366 -0.403274 0)
(-0.0861569 -0.578404 0)
(-0.115439 -0.744879 0)
(-0.0631136 -0.890135 0)
(-0.0651153 -0.988906 0)
(-0.0135806 -1.03712 0)
(0.393259 0.301616 0)
(0.397811 0.341653 0)
(0.41574 0.374276 0)
(0.435068 0.394604 0)
(0.45073 0.401905 0)
(0.453619 0.390886 0)
(0.444818 0.359554 0)
(0.416435 0.318441 0)
(0.382387 0.268782 0)
(0.332184 0.224795 0)
(0.283841 0.169136 0)
(0.224223 0.113576 0)
(0.162162 0.0412411 0)
(0.111044 -0.0593748 0)
(0.0594723 -0.197764 0)
(0.00806964 -0.363284 0)
(0.0108978 -0.554445 0)
(-0.0455295 -0.733867 0)
(-0.0134361 -0.901627 0)
(-0.0445132 -1.01115 0)
(-0.00370878 -1.05983 0)
(0.512796 0.335698 0)
(0.491894 0.358595 0)
(0.508518 0.386239 0)
(0.535045 0.403549 0)
(0.560857 0.412807 0)
(0.578189 0.409366 0)
(0.586444 0.387831 0)
(0.572843 0.356926 0)
(0.550634 0.313508 0)
(0.506342 0.273127 0)
(0.463745 0.216117 0)
(0.399939 0.156381 0)
(0.340044 0.0685406 0)
(0.272762 -0.045664 0)
(0.206489 -0.19389 0)
(0.130009 -0.362268 0)
(0.107526 -0.552389 0)
(0.0229951 -0.722156 0)
(0.0327777 -0.891792 0)
(-0.0212077 -1.00501 0)
(0.0106602 -1.06148 0)
(0.691283 0.363422 0)
(0.614843 0.347907 0)
(0.601992 0.370218 0)
(0.625219 0.390386 0)
(0.655447 0.400062 0)
(0.684789 0.400118 0)
(0.708465 0.385117 0)
(0.712294 0.359842 0)
(0.706162 0.319901 0)
(0.672874 0.282127 0)
(0.637983 0.226937 0)
(0.572556 0.177241 0)
(0.51224 0.0994411 0)
(0.422747 0.00411532 0)
(0.342133 -0.13779 0)
(0.241032 -0.304765 0)
(0.195405 -0.503885 0)
(0.0864309 -0.681203 0)
(0.0759498 -0.870376 0)
(0.000331873 -0.994033 0)
(0.0220611 -1.05551 0)
(0.900252 0.469799 0)
(0.758781 0.424652 0)
(0.709961 0.400192 0)
(0.715069 0.404544 0)
(0.742554 0.406622 0)
(0.776645 0.408256 0)
(0.808367 0.39896 0)
(0.82527 0.381853 0)
(0.833596 0.350028 0)
(0.813165 0.319887 0)
(0.78695 0.270072 0)
(0.724352 0.223592 0)
(0.668235 0.142144 0)
(0.567848 0.0406487 0)
(0.479785 -0.110373 0)
(0.357487 -0.276839 0)
(0.286201 -0.472909 0)
(0.151874 -0.637846 0)
(0.115283 -0.829975 0)
(0.0189182 -0.962851 0)
(0.0332259 -1.03522 0)
(1.13946 0.564312 0)
(0.974571 0.462885 0)
(0.873793 0.404859 0)
(0.830674 0.394606 0)
(0.833003 0.395069 0)
(0.858528 0.396854 0)
(0.892093 0.38952 0)
(0.918082 0.377531 0)
(0.938891 0.351192 0)
(0.932703 0.32573 0)
(0.917835 0.280392 0)
(0.862652 0.24045 0)
(0.809781 0.167404 0)
(0.698961 0.0822225 0)
(0.596491 -0.0540346 0)
(0.451428 -0.206497 0)
(0.357407 -0.401972 0)
(0.204926 -0.570989 0)
(0.151598 -0.77883 0)
(0.0388026 -0.924982 0)
(0.0439226 -1.00682 0)
(1.35193 0.66221 0)
(1.19569 0.575672 0)
(1.06023 0.496909 0)
(0.965633 0.456617 0)
(0.93873 0.422925 0)
(0.94294 0.414643 0)
(0.970171 0.40028 0)
(0.996196 0.390638 0)
(1.02237 0.367989 0)
(1.02514 0.349902 0)
(1.01939 0.311335 0)
(0.971181 0.280277 0)
(0.922802 0.211387 0)
(0.806815 0.132226 0)
(0.700239 -0.00372816 0)
(0.547371 -0.155909 0)
(0.435751 -0.349438 0)
(0.263496 -0.507219 0)
(0.185007 -0.716693 0)
(0.0530672 -0.873441 0)
(0.0510751 -0.968471 0)
(1.5054 0.73759 0)
(1.40212 0.657227 0)
(1.27964 0.563079 0)
(1.16064 0.486744 0)
(1.09358 0.432865 0)
(1.05783 0.412038 0)
(1.0609 0.391118 0)
(1.07405 0.384897 0)
(1.0974 0.363145 0)
(1.10395 0.350068 0)
(1.10431 0.316641 0)
(1.06489 0.2928 0)
(1.01886 0.232081 0)
(0.901359 0.165336 0)
(0.787607 0.0439569 0)
(0.621286 -0.0877088 0)
(0.486046 -0.267027 0)
(0.301448 -0.42425 0)
(0.21247 -0.64593 0)
(0.0694716 -0.817313 0)
(0.0619389 -0.925792 0)
(1.6008 0.779358 0)
(1.54958 0.725173 0)
(1.46977 0.647302 0)
(1.35914 0.578779 0)
(1.26726 0.512871 0)
(1.19564 0.469365 0)
(1.1697 0.427742 0)
(1.15927 0.411456 0)
(1.17239 0.381644 0)
(1.1745 0.370288 0)
(1.17492 0.338448 0)
(1.13922 0.322431 0)
(1.09058 0.26952 0)
(0.971043 0.21413 0)
(0.850694 0.103251 0)
(0.680068 -0.0188376 0)
(0.546304 -0.199165 0)
(0.353622 -0.351318 0)
(0.243132 -0.572603 0)
(0.0823631 -0.752705 0)
(0.067054 -0.876269 0)
(1.65082 0.799954 0)
(1.64069 0.763365 0)
(1.60829 0.707319 0)
(1.53991 0.643078 0)
(1.46135 0.565349 0)
(1.3768 0.504405 0)
(1.32335 0.446437 0)
(1.2823 0.417741 0)
(1.27136 0.381642 0)
(1.2585 0.371739 0)
(1.25065 0.340801 0)
(1.21429 0.330916 0)
(1.1606 0.28645 0)
(1.04023 0.243183 0)
(0.912179 0.147586 0)
(0.739415 0.039487 0)
(0.59046 -0.12359 0)
(0.377485 -0.260819 0)
(0.261571 -0.490034 0)
(0.0941229 -0.685926 0)
(0.0771252 -0.824168 0)
(1.66652 0.811702 0)
(1.68555 0.785383 0)
(1.69337 0.741596 0)
(1.66578 0.697044 0)
(1.62105 0.633659 0)
(1.55218 0.575641 0)
(1.48994 0.512421 0)
(1.42594 0.47618 0)
(1.39033 0.428294 0)
(1.35659 0.409328 0)
(1.33527 0.371223 0)
(1.29095 0.363119 0)
(1.2271 0.32228 0)
(1.09907 0.290941 0)
(0.959878 0.205903 0)
(0.777541 0.11268 0)
(0.621118 -0.0401064 0)
(0.417324 -0.179235 0)
(0.296741 -0.413128 0)
(0.109717 -0.613903 0)
(0.0836778 -0.767464 0)
(1.66822 0.813121 0)
(1.70052 0.794823 0)
(1.73111 0.76513 0)
(1.74025 0.729208 0)
(1.73427 0.676382 0)
(1.69596 0.628947 0)
(1.65268 0.564305 0)
(1.59251 0.514327 0)
(1.54506 0.452948 0)
(1.49178 0.426141 0)
(1.45228 0.383632 0)
(1.39495 0.375785 0)
(1.31667 0.340075 0)
(1.17967 0.320438 0)
(1.02625 0.25202 0)
(0.834557 0.172607 0)
(0.674415 0.0274723 0)
(0.464001 -0.0986207 0)
(0.319834 -0.324942 0)
(0.119779 -0.537094 0)
(0.0936407 -0.708005 0)
(1.66139 0.811221 0)
(1.70091 0.796186 0)
(1.74392 0.772237 0)
(1.7708 0.747997 0)
(1.79411 0.709763 0)
(1.79127 0.669071 0)
(1.77977 0.608674 0)
(1.73757 0.568212 0)
(1.69586 0.512319 0)
(1.63707 0.482349 0)
(1.58743 0.431839 0)
(1.51746 0.42327 0)
(1.42477 0.385457 0)
(1.27491 0.373922 0)
(1.10177 0.317097 0)
(0.89428 0.247583 0)
(0.720421 0.10987 0)
(0.494354 -0.00472174 0)
(0.356392 -0.236255 0)
(0.143931 -0.456774 0)
(0.10742 -0.645322 0)
(1.65062 0.805697 0)
(1.6936 0.793808 0)
(1.74025 0.776093 0)
(1.77983 0.754034 0)
(1.82011 0.723116 0)
(1.84093 0.692819 0)
(1.85592 0.646817 0)
(1.84286 0.609168 0)
(1.82727 0.551925 0)
(1.78096 0.519002 0)
(1.73566 0.464658 0)
(1.66516 0.450193 0)
(1.5662 0.411458 0)
(1.40825 0.408685 0)
(1.21678 0.367604 0)
(0.990426 0.310993 0)
(0.796974 0.187416 0)
(0.561671 0.0771594 0)
(0.411181 -0.148881 0)
(0.171225 -0.3666 0)
(0.123846 -0.575685 0)
(1.64206 0.800404 0)
(1.68112 0.78949 0)
(1.73023 0.774744 0)
(1.77691 0.75579 0)
(1.82458 0.729945 0)
(1.85671 0.709622 0)
(1.89273 0.671078 0)
(1.90596 0.63438 0)
(1.91558 0.586972 0)
(1.89054 0.56139 0)
(1.86367 0.508995 0)
(1.80573 0.495343 0)
(1.71592 0.457473 0)
(1.56088 0.4658 0)
(1.35493 0.442942 0)
(1.10855 0.393113 0)
(0.894358 0.277451 0)
(0.64207 0.174567 0)
(0.473139 -0.0479517 0)
(0.207319 -0.26589 0)
(0.149001 -0.498254 0)
(1.63427 0.797242 0)
(1.67129 0.785802 0)
(1.7182 0.772769 0)
(1.76307 0.75751 0)
(1.81455 0.7368 0)
(1.85927 0.714118 0)
(1.90551 0.682118 0)
(1.93011 0.654542 0)
(1.95972 0.61461 0)
(1.96188 0.588833 0)
(1.95944 0.539693 0)
(1.92182 0.524855 0)
(1.85524 0.490649 0)
(1.72341 0.499694 0)
(1.52378 0.49455 0)
(1.2623 0.462498 0)
(1.02907 0.362609 0)
(0.762401 0.265306 0)
(0.567179 0.0561276 0)
(0.268629 -0.154506 0)
(0.186494 -0.406922 0)
(1.62773 0.795282 0)
(1.66462 0.783425 0)
(1.70661 0.77168 0)
(1.7497 0.757693 0)
(1.80448 0.737162 0)
(1.84878 0.717423 0)
(1.89459 0.695787 0)
(1.934 0.6657 0)
(1.97843 0.622398 0)
(1.99349 0.606916 0)
(2.01208 0.571318 0)
(1.99997 0.550293 0)
(1.96184 0.516688 0)
(1.86275 0.533006 0)
(1.68823 0.555369 0)
(1.42862 0.539244 0)
(1.18341 0.457759 0)
(0.906094 0.369281 0)
(0.680545 0.179959 0)
(0.355369 -0.0243321 0)
(0.235289 -0.293119 0)
(1.62333 0.794501 0)
(1.65916 0.783198 0)
(1.6983 0.771148 0)
(1.74049 0.757077 0)
(1.78853 0.73747 0)
(1.83262 0.718373 0)
(1.88541 0.695872 0)
(1.92613 0.673286 0)
(1.97261 0.638743 0)
(2.00378 0.613868 0)
(2.0365 0.583526 0)
(2.0413 0.566585 0)
(2.03276 0.53634 0)
(1.96127 0.546591 0)
(1.8329 0.581202 0)
(1.58958 0.604559 0)
(1.35089 0.541328 0)
(1.07912 0.45757 0)
(0.831751 0.299118 0)
(0.499594 0.109244 0)
(0.293364 -0.133795 0)
(1.6211 0.794737 0)
(1.65446 0.783655 0)
(1.69258 0.770364 0)
(1.73025 0.756923 0)
(1.77563 0.738819 0)
(1.82225 0.717023 0)
(1.86797 0.697921 0)
(1.90718 0.679892 0)
(1.9637 0.648436 0)
(2.00149 0.620517 0)
(2.03968 0.595909 0)
(2.05413 0.579308 0)
(2.06912 0.548394 0)
(2.02241 0.557849 0)
(1.93898 0.595212 0)
(1.73773 0.637151 0)
(1.50395 0.617631 0)
(1.24287 0.559283 0)
(0.995945 0.421183 0)
(0.667453 0.266416 0)
(0.432766 0.0615186 0)
(1.62031 0.795213 0)
(1.65153 0.783792 0)
(1.687 0.770668 0)
(1.72316 0.756724 0)
(1.76497 0.740193 0)
(1.80864 0.719763 0)
(1.85332 0.698863 0)
(1.89589 0.679916 0)
(1.94023 0.656246 0)
(1.9851 0.627359 0)
(2.02917 0.603503 0)
(2.05197 0.587591 0)
(2.08241 0.559371 0)
(2.05879 0.561872 0)
(2.0005 0.584743 0)
(1.8519 0.66245 0)
(1.64437 0.664143 0)
(1.40132 0.621016 0)
(1.15806 0.530051 0)
(0.88211 0.358642 0)
(0.544194 0.386164 0)
(1.61983 0.795147 0)
(1.64981 0.784126 0)
(1.68311 0.770948 0)
(1.71814 0.756748 0)
(1.75601 0.741797 0)
(1.79819 0.723123 0)
(1.84353 0.699801 0)
(1.88035 0.683451 0)
(1.92438 0.660988 0)
(1.97238 0.632968 0)
(2.01544 0.606302 0)
(2.03924 0.595343 0)
(2.08599 0.565886 0)
(2.07408 0.562626 0)
(2.03816 0.578078 0)
(1.92565 0.638202 0)
(1.74542 0.709519 0)
(1.51212 0.69741 0)
(1.3013 0.617189 0)
(1.0533 0.510334 0)
(0.888426 0.667382 0)
(1.61835 0.793765 0)
(1.6486 0.783839 0)
(1.68078 0.771257 0)
(1.7142 0.757521 0)
(1.74985 0.742955 0)
(1.79018 0.725814 0)
(1.83174 0.704548 0)
(1.87065 0.684724 0)
(1.90959 0.66573 0)
(1.9519 0.641133 0)
(1.99638 0.612387 0)
(2.02931 0.59485 0)
(2.0679 0.573862 0)
(2.07582 0.561283 0)
(2.05912 0.570506 0)
(1.9592 0.622825 0)
(1.82936 0.701896 0)
(1.60934 0.722886 0)
(1.41646 0.679212 0)
(1.24237 0.623131 0)
(1.14442 0.621363 0)
(1.6152 0.791923 0)
(1.64635 0.783166 0)
(1.67852 0.77176 0)
(1.71146 0.758209 0)
(1.74586 0.743693 0)
(1.78192 0.728779 0)
(1.82328 0.708436 0)
(1.86324 0.686293 0)
(1.89732 0.670117 0)
(1.93813 0.648677 0)
(1.98415 0.618215 0)
(2.0151 0.598799 0)
(2.05044 0.577202 0)
(2.07311 0.563284 0)
(2.06667 0.566295 0)
(1.99688 0.604634 0)
(1.86209 0.677043 0)
(1.67206 0.754005 0)
(1.49363 0.72671 0)
(1.39121 0.693886 0)
(1.31766 0.672072 0)
(1.61083 0.790187 0)
(1.64278 0.782054 0)
(1.67591 0.77143 0)
(1.70873 0.758937 0)
(1.74214 0.745089 0)
(1.77703 0.730108 0)
(1.81605 0.711922 0)
(1.85414 0.69064 0)
(1.8897 0.67177 0)
(1.9257 0.65414 0)
(1.96721 0.627351 0)
(2.0026 0.601778 0)
(2.0347 0.580269 0)
(2.06431 0.564799 0)
(2.06399 0.564923 0)
(2.02679 0.588489 0)
(1.88454 0.664451 0)
(1.72407 0.74374 0)
(1.54638 0.748381 0)
(1.47566 0.741787 0)
(1.44159 0.704313 0)
(1.60641 0.789148 0)
(1.63834 0.781026 0)
(1.67108 0.771547 0)
(1.70453 0.760114 0)
(1.73912 0.745831 0)
(1.77293 0.731452 0)
(1.8083 0.715923 0)
(1.8473 0.69477 0)
(1.88339 0.673465 0)
(1.91551 0.658364 0)
(1.95573 0.635116 0)
(1.99263 0.607475 0)
(2.02255 0.585889 0)
(2.05425 0.56713 0)
(2.05991 0.563904 0)
(2.04191 0.577051 0)
(1.92512 0.638936 0)
(1.74972 0.723393 0)
(1.58243 0.763657 0)
(1.51767 0.76244 0)
(1.51874 0.734834 0)
(1.60351 0.788168 0)
(1.63365 0.780542 0)
(1.66604 0.771472 0)
(1.70017 0.760379 0)
(1.73424 0.747595 0)
(1.76832 0.733537 0)
(1.80377 0.717939 0)
(1.84024 0.699685 0)
(1.87642 0.677673 0)
(1.90858 0.660563 0)
(1.94489 0.641598 0)
(1.98017 0.616174 0)
(2.01424 0.590193 0)
(2.04255 0.570884 0)
(2.05751 0.563052 0)
(2.04779 0.569727 0)
(1.96852 0.614884 0)
(1.7685 0.712304 0)
(1.60724 0.767198 0)
(1.54014 0.765326 0)
(1.5634 0.750216 0)
(1.60156 0.78815 0)
(1.62969 0.780527 0)
(1.661 0.771585 0)
(1.6936 0.761517 0)
(1.72846 0.74936 0)
(1.7642 0.734815 0)
(1.79778 0.720952 0)
(1.83238 0.705026 0)
(1.87057 0.682613 0)
(1.90355 0.662291 0)
(1.93523 0.646964 0)
(1.97037 0.624196 0)
(2.00572 0.596766 0)
(2.03397 0.57556 0)
(2.05466 0.563139 0)
(2.05 0.56548 0)
(2.00222 0.596297 0)
(1.79758 0.692225 0)
(1.62172 0.753846 0)
(1.54822 0.765908 0)
(1.58057 0.759662 0)
(1.60096 0.787464 0)
(1.62742 0.779726 0)
(1.6567 0.771288 0)
(1.68863 0.761365 0)
(1.72301 0.750036 0)
(1.75673 0.737576 0)
(1.79152 0.723648 0)
(1.8275 0.707517 0)
(1.86327 0.688364 0)
(1.89676 0.667594 0)
(1.92869 0.650601 0)
(1.96112 0.631599 0)
(1.99599 0.605215 0)
(2.02794 0.580045 0)
(2.05182 0.565619 0)
(2.05058 0.565105 0)
(2.02219 0.583883 0)
(1.84934 0.666175 0)
(1.63095 0.745474 0)
(1.55144 0.766416 0)
(1.58441 0.761256 0)
(1.60073 0.787657 0)
(1.62587 0.779721 0)
(1.65352 0.771032 0)
(1.68403 0.761363 0)
(1.71579 0.751324 0)
(1.75029 0.738974 0)
(1.78601 0.724707 0)
(1.81887 0.711135 0)
(1.85423 0.694155 0)
(1.89186 0.671829 0)
(1.92366 0.6532 0)
(1.95249 0.63789 0)
(1.98683 0.613873 0)
(2.02275 0.58504 0)
(2.04854 0.57191 0)
(2.05071 0.564362 0)
(2.03449 0.575331 0)
(1.9098 0.641756 0)
(1.64441 0.736683 0)
(1.55125 0.763962 0)
(1.58148 0.761133 0)
(1.60105 0.787116 0)
(1.62552 0.779046 0)
(1.65196 0.770262 0)
(1.68061 0.760883 0)
(1.71121 0.750908 0)
(1.74456 0.739362 0)
(1.77772 0.726883 0)
(1.81216 0.712673 0)
(1.8478 0.696682 0)
(1.88214 0.678174 0)
(1.91617 0.658575 0)
(1.94623 0.641722 0)
(1.97822 0.62117 0)
(2.01147 0.596042 0)
(2.04543 0.574831 0)
(2.05168 0.566287 0)
(2.04247 0.571383 0)
(1.96106 0.620097 0)
(1.677 0.722024 0)
(1.55082 0.760241 0)
(1.57649 0.75934 0)
(1.60067 0.787517 0)
(1.62503 0.77951 0)
(1.65072 0.770726 0)
(1.67799 0.761273 0)
(1.70708 0.751386 0)
(1.73834 0.740419 0)
(1.77181 0.727374 0)
(1.80503 0.71401 0)
(1.83746 0.700396 0)
(1.87443 0.681992 0)
(1.91059 0.661758 0)
(1.93897 0.6461 0)
(1.96989 0.628011 0)
(2.00328 0.603887 0)
(2.04059 0.579559 0)
(2.05382 0.567899 0)
(2.04913 0.569021 0)
(1.99848 0.60088 0)
(1.73203 0.705674 0)
(1.55225 0.75748 0)
(1.57232 0.756825 0)
(1.60042 0.7872 0)
(1.62492 0.779414 0)
(1.6502 0.770889 0)
(1.67673 0.76159 0)
(1.7045 0.751542 0)
(1.73465 0.740403 0)
(1.76589 0.728412 0)
(1.79786 0.715734 0)
(1.83139 0.701041 0)
(1.86602 0.684657 0)
(1.89941 0.66775 0)
(1.93308 0.64875 0)
(1.96208 0.632666 0)
(1.99396 0.61147 0)
(2.03049 0.587859 0)
(2.05337 0.572826 0)
(2.04992 0.568392 0)
(2.02155 0.587361 0)
(1.79676 0.687627 0)
(1.55947 0.75535 0)
(1.56751 0.754067 0)
(1.59962 0.78786 0)
(1.6239 0.780504 0)
(1.64907 0.77225 0)
(1.67518 0.763257 0)
(1.70226 0.753068 0)
(1.7307 0.742329 0)
(1.76096 0.729888 0)
(1.79242 0.71685 0)
(1.82313 0.703659 0)
(1.8569 0.6879 0)
(1.8928 0.669872 0)
(1.92488 0.652945 0)
(1.95186 0.638493 0)
(1.98675 0.616783 0)
(2.02034 0.594922 0)
(2.05068 0.575319 0)
(2.05176 0.568354 0)
(2.03542 0.579261 0)
(1.87794 0.665277 0)
(1.57122 0.750425 0)
(1.56615 0.750205 0)
(1.59954 0.78763 0)
(1.62348 0.780764 0)
(1.64836 0.772991 0)
(1.67419 0.76451 0)
(1.70091 0.754551 0)
(1.72849 0.743798 0)
(1.7575 0.731536 0)
(1.78747 0.71891 0)
(1.81758 0.705312 0)
(1.85122 0.689164 0)
(1.88261 0.674289 0)
(1.91679 0.656852 0)
(1.94555 0.640952 0)
(1.97802 0.621517 0)
(2.00728 0.602796 0)
(2.04469 0.57878 0)
(2.05276 0.570322 0)
(2.04401 0.574872 0)
(1.93791 0.641107 0)
(1.60854 0.740787 0)
(1.5671 0.750015 0)
(1.59927 0.788482 0)
(1.62256 0.781927 0)
(1.64699 0.77458 0)
(1.67242 0.766554 0)
(1.69888 0.757068 0)
(1.7255 0.746898 0)
(1.75415 0.73452 0)
(1.78348 0.721358 0)
(1.8121 0.708566 0)
(1.8436 0.693541 0)
(1.87597 0.67723 0)
(1.90883 0.660354 0)
(1.93654 0.645726 0)
(1.96748 0.627216 0)
(1.99801 0.607489 0)
(2.03411 0.58498 0)
(2.05223 0.572017 0)
(2.04805 0.573234 0)
(1.98469 0.616553 0)
(1.64963 0.732393 0)
(1.56965 0.751748 0)
(1.59995 0.78834 0)
(1.62258 0.781972 0)
(1.64646 0.77492 0)
(1.67128 0.767385 0)
(1.69743 0.758522 0)
(1.72375 0.74875 0)
(1.75172 0.737033 0)
(1.78019 0.724255 0)
(1.80858 0.71137 0)
(1.83944 0.696144 0)
(1.86858 0.681831 0)
(1.90198 0.663958 0)
(1.9293 0.648918 0)
(1.95952 0.631251 0)
(1.98757 0.613416 0)
(2.02428 0.590396 0)
(2.0488 0.575178 0)
(2.0489 0.573056 0)
(2.01405 0.59873 0)
(1.70588 0.720126 0)
(1.5739 0.754789 0)
(1.60035 0.789474 0)
(1.62225 0.783166 0)
(1.64538 0.77623 0)
(1.66968 0.768713 0)
(1.69532 0.760212 0)
(1.7209 0.751248 0)
(1.7486 0.740137 0)
(1.77701 0.727397 0)
(1.80479 0.715141 0)
(1.8337 0.701098 0)
(1.86334 0.685768 0)
(1.89513 0.668032 0)
(1.92221 0.652889 0)
(1.94931 0.637132 0)
(1.97977 0.618165 0)
(2.01288 0.59728 0)
(2.04214 0.578974 0)
(2.04931 0.572948 0)
(2.03066 0.587065 0)
(1.77548 0.702755 0)
(1.58274 0.759816 0)
(1.60155 0.7896 0)
(1.62283 0.783348 0)
(1.64533 0.776453 0)
(1.66898 0.768915 0)
(1.69395 0.760655 0)
(1.71928 0.751877 0)
(1.74631 0.741715 0)
(1.7744 0.729634 0)
(1.80189 0.717678 0)
(1.83079 0.703412 0)
(1.85826 0.689613 0)
(1.88905 0.672097 0)
(1.9163 0.656661 0)
(1.94376 0.639929 0)
(1.97049 0.624078 0)
(2.00189 0.604245 0)
(2.03553 0.582291 0)
(2.04826 0.574255 0)
(2.03883 0.581163 0)
(1.84976 0.680651 0)
(1.60091 0.766343 0)
(1.60205 0.791126 0)
(1.6229 0.784856 0)
(1.64478 0.778001 0)
(1.66775 0.77039 0)
(1.69214 0.761975 0)
(1.71693 0.753349 0)
(1.74322 0.743711 0)
(1.77112 0.73197 0)
(1.79835 0.720213 0)
(1.82627 0.707023 0)
(1.85367 0.693009 0)
(1.8834 0.676053 0)
(1.91001 0.661118 0)
(1.93679 0.645375 0)
(1.96307 0.629244 0)
(1.99286 0.610231 0)
(2.02573 0.589277 0)
(2.04632 0.576081 0)
(2.0431 0.57785 0)
(1.91815 0.653789 0)
(1.62711 0.765014 0)
(1.60328 0.7915 0)
(1.62374 0.785354 0)
(1.6452 0.778545 0)
(1.66761 0.770996 0)
(1.69126 0.762646 0)
(1.71568 0.753785 0)
(1.74118 0.744502 0)
(1.76843 0.733394 0)
(1.79544 0.721545 0)
(1.82368 0.708108 0)
(1.84901 0.69585 0)
(1.87865 0.679703 0)
(1.90545 0.664211 0)
(1.93267 0.648327 0)
(1.95586 0.634417 0)
(1.98544 0.616082 0)
(2.01702 0.595514 0)
(2.04427 0.57878 0)
(2.04371 0.576893 0)
(1.96574 0.628097 0)
(1.67412 0.753825 0)
(1.60372 0.79324 0)
(1.62387 0.787128 0)
(1.64501 0.780348 0)
(1.66684 0.772984 0)
(1.6898 0.764761 0)
(1.71394 0.755679 0)
(1.73862 0.746398 0)
(1.76502 0.735621 0)
(1.7918 0.723681 0)
(1.81897 0.711156 0)
(1.84508 0.698255 0)
(1.87343 0.683465 0)
(1.89987 0.668439 0)
(1.9263 0.653687 0)
(1.95096 0.638505 0)
(1.97808 0.62206 0)
(2.00793 0.602882 0)
(2.0392 0.583345 0)
(2.04421 0.577576 0)
(1.99699 0.608125 0)
(1.72715 0.734697 0)
(1.60509 0.793652 0)
(1.62485 0.787651 0)
(1.6457 0.780982 0)
(1.66697 0.773961 0)
(1.68954 0.765919 0)
(1.71324 0.756894 0)
(1.73708 0.747751 0)
(1.7626 0.737346 0)
(1.78894 0.725509 0)
(1.81617 0.712636 0)
(1.84081 0.700888 0)
(1.86906 0.686841 0)
(1.89561 0.671738 0)
(1.92254 0.656488 0)
(1.94593 0.643009 0)
(1.9723 0.62753 0)
(2.00055 0.609474 0)
(2.03356 0.587753 0)
(2.04498 0.577352 0)
(2.0192 0.593928 0)
(1.78248 0.712515 0)
(1.60597 0.79545 0)
(1.62525 0.789414 0)
(1.64565 0.782838 0)
(1.66652 0.775961 0)
(1.68861 0.768233 0)
(1.71184 0.759483 0)
(1.73515 0.750313 0)
(1.75993 0.740036 0)
(1.7854 0.728592 0)
(1.81127 0.716743 0)
(1.83749 0.703374 0)
(1.86385 0.690571 0)
(1.88965 0.676704 0)
(1.91672 0.662035 0)
(1.94192 0.646749 0)
(1.96684 0.632859 0)
(1.99221 0.616723 0)
(2.02577 0.594807 0)
(2.04428 0.579481 0)
(2.0317 0.586595 0)
(1.84185 0.687081 0)
(1.60795 0.796014 0)
(1.62666 0.789955 0)
(1.6465 0.783464 0)
(1.6669 0.776771 0)
(1.68871 0.769231 0)
(1.71148 0.760744 0)
(1.73421 0.751969 0)
(1.75816 0.742192 0)
(1.78313 0.731028 0)
(1.80862 0.719182 0)
(1.8338 0.70679 0)
(1.85922 0.694298 0)
(1.88574 0.680218 0)
(1.91272 0.665958 0)
(1.93713 0.651586 0)
(1.9613 0.638359 0)
(1.98684 0.621579 0)
(2.01879 0.601195 0)
(2.04303 0.581549 0)
(2.03906 0.583216 0)
(1.89712 0.660697 0)
(1.60967 0.798046 0)
(1.62765 0.791893 0)
(1.64679 0.785385 0)
(1.66689 0.778531 0)
(1.68818 0.771153 0)
(1.71015 0.763105 0)
(1.73284 0.754284 0)
(1.75625 0.744719 0)
(1.78028 0.734261 0)
(1.80452 0.723219 0)
(1.83028 0.710449 0)
(1.85495 0.698074 0)
(1.88085 0.684812 0)
(1.906 0.67198 0)
(1.93317 0.656056 0)
(1.95601 0.642856 0)
(1.98126 0.626882 0)
(2.0084 0.609573 0)
(2.04176 0.584405 0)
(2.04061 0.583522 0)
(1.95072 0.635052 0)
(1.61236 0.799067 0)
(1.62962 0.792883 0)
(1.64809 0.786288 0)
(1.66777 0.779294 0)
(1.68842 0.772032 0)
(1.70977 0.764175 0)
(1.73231 0.755385 0)
(1.75502 0.746313 0)
(1.77855 0.736295 0)
(1.80234 0.725231 0)
(1.82722 0.713485 0)
(1.85113 0.701705 0)
(1.87728 0.688215 0)
(1.90225 0.674845 0)
(1.92761 0.661338 0)
(1.95051 0.647416 0)
(1.97646 0.631109 0)
(2.00142 0.614564 0)
(2.03623 0.590978 0)
(2.04236 0.584093 0)
(1.98943 0.616113 0)
(1.6146 0.801397 0)
(1.63123 0.795189 0)
(1.64921 0.788393 0)
(1.66836 0.781196 0)
(1.68812 0.774012 0)
(1.70883 0.766235 0)
(1.73122 0.757336 0)
(1.75344 0.74829 0)
(1.77604 0.738953 0)
(1.79941 0.728169 0)
(1.82426 0.716263 0)
(1.84752 0.704988 0)
(1.8727 0.692345 0)
(1.89678 0.679198 0)
(1.92324 0.665197 0)
(1.94588 0.651043 0)
(1.97057 0.635976 0)
(1.99341 0.620867 0)
(2.02901 0.597667 0)
(2.04339 0.585346 0)
(2.01461 0.603344 0)
(1.61739 0.802892 0)
(1.63362 0.796681 0)
(1.65121 0.78977 0)
(1.66969 0.782555 0)
(1.6886 0.775384 0)
(1.70892 0.767438 0)
(1.73077 0.758643 0)
(1.75224 0.749886 0)
(1.77445 0.740633 0)
(1.79778 0.729803 0)
(1.82163 0.718508 0)
(1.84455 0.707511 0)
(1.86921 0.69537 0)
(1.89392 0.680838 0)
(1.91785 0.669095 0)
(1.9411 0.65494 0)
(1.96596 0.639791 0)
(1.98831 0.624441 0)
(2.02047 0.604704 0)
(2.04256 0.587714 0)
(2.02839 0.5963 0)
(1.61969 0.805242 0)
(1.63578 0.799004 0)
(1.65304 0.792037 0)
(1.67071 0.784952 0)
(1.68911 0.777584 0)
(1.7089 0.769564 0)
(1.72977 0.761068 0)
(1.75078 0.752223 0)
(1.77265 0.742917 0)
(1.79526 0.732684 0)
(1.81896 0.721161 0)
(1.84185 0.709766 0)
(1.8649 0.698951 0)
(1.8897 0.68465 0)
(1.91369 0.67197 0)
(1.93713 0.658056 0)
(1.95999 0.644708 0)
(1.98232 0.629457 0)
(2.01223 0.611684 0)
(2.04004 0.590452 0)
(2.03613 0.59319 0)
(1.62229 0.807019 0)
(1.63836 0.800746 0)
(1.6552 0.793919 0)
(1.67225 0.786953 0)
(1.69032 0.779443 0)
(1.70964 0.771287 0)
(1.72933 0.763289 0)
(1.74993 0.754485 0)
(1.77152 0.744938 0)
(1.79387 0.734733 0)
(1.81591 0.724343 0)
(1.8395 0.71218 0)
(1.86185 0.701449 0)
(1.88713 0.687278 0)
(1.90885 0.675669 0)
(1.93348 0.661679 0)
(1.95515 0.648851 0)
(1.97929 0.63203 0)
(2.00247 0.618889 0)
(2.03785 0.592942 0)
(2.038 0.594418 0)
(1.6248 0.809147 0)
(1.64074 0.802906 0)
(1.65709 0.796257 0)
(1.67379 0.789322 0)
(1.6917 0.781676 0)
(1.71025 0.77377 0)
(1.72903 0.766066 0)
(1.74931 0.757256 0)
(1.7706 0.747545 0)
(1.79168 0.73803 0)
(1.8134 0.727638 0)
(1.83733 0.715003 0)
(1.85866 0.704663 0)
(1.88301 0.691992 0)
(1.90547 0.67888 0)
(1.92997 0.665096 0)
(1.95004 0.653773 0)
(1.97407 0.638109 0)
(1.99596 0.623974 0)
(2.0316 0.600874 0)
(2.03945 0.596494 0)
(1.62745 0.811192 0)
(1.64306 0.805 0)
(1.65897 0.798492 0)
(1.67558 0.791447 0)
(1.69323 0.783871 0)
(1.71113 0.776168 0)
(1.72934 0.768634 0)
(1.74937 0.759806 0)
(1.76987 0.750357 0)
(1.7905 0.740698 0)
(1.81111 0.731009 0)
(1.83492 0.718712 0)
(1.85643 0.707548 0)
(1.87991 0.695646 0)
(1.90157 0.683502 0)
(1.92621 0.669397 0)
(1.94647 0.657769 0)
(1.97025 0.643599 0)
(1.99062 0.629413 0)
(2.02444 0.608503 0)
(2.04098 0.598603 0)
(1.63028 0.813225 0)
(1.64534 0.80717 0)
(1.66096 0.800629 0)
(1.67756 0.793448 0)
(1.69473 0.786133 0)
(1.71203 0.778791 0)
(1.73018 0.771106 0)
(1.74977 0.762355 0)
(1.76934 0.753291 0)
(1.7893 0.74386 0)
(1.80978 0.733872 0)
(1.83321 0.721877 0)
(1.85356 0.711523 0)
(1.87679 0.69972 0)
(1.89823 0.687884 0)
(1.92361 0.673126 0)
(1.94243 0.662307 0)