/*--------------------------------*- C++ -*----------------------------------*\
  =========                 |
  \\      /  F ield         | OpenFOAM: The Open Source CFD Toolbox
   \\    /   O peration     | Website:  https://openfoam.org
    \\  /    A nd           | Version:  7
     \\/     M anipulation  |
\*---------------------------------------------------------------------------*/
FoamFile
{
    version     2.0;
    format      ascii;
    class       volScalarField;
    location    "5.1";
    object      T;
}
// * * * * * * * * * * * * * * * * * * * * * * * * * * * * * * * * * * * * * //

dimensions      [0 0 0 1 0 0 0];

internalField   nonuniform List<scalar> 
3328
(
3.74481
2.78536
2.61061
2.61756
2.62311
2.6285
2.63312
2.63721
2.64094
2.64434
2.64701
2.64884
2.65048
2.65303
2.65766
2.66535
2.67698
2.69375
2.72054
2.76708
2.83896
2.92367
2.98888
3.01384
3.74532
2.78616
2.61034
2.6167
2.62163
2.62632
2.6304
2.63424
2.63811
2.64201
2.64545
2.64814
2.65059
2.65375
2.65872
2.66648
2.67797
2.69446
2.72113
2.76746
2.83913
2.92356
2.98846
3.01331
3.74575
2.78727
2.60971
2.61507
2.61934
2.62334
2.62702
2.63088
2.63517
2.6398
2.6442
2.64796
2.65128
2.655
2.66014
2.6677
2.67875
2.69456
2.7207
2.76631
2.83738
2.92174
2.98695
3.01194
3.74653
2.78849
2.60891
2.61328
2.61667
2.62019
2.62378
2.62798
2.63275
2.638
2.64326
2.64802
2.65226
2.65655
2.66176
2.66901
2.67947
2.69465
2.71983
2.76405
2.83379
2.91773
2.98305
3.00792
3.7473
2.78891
2.60814
2.61188
2.61483
2.61836
2.62216
2.62678
2.63185
2.63745
2.64317
2.64855
2.6534
2.65797
2.663
2.66976
2.67947
2.6935
2.71686
2.75801
2.82496
2.90884
2.97525
3.00115
3.74814
2.78825
2.60759
2.61138
2.61453
2.61819
2.6223
2.62712
2.63226
2.63778
2.6436
2.64926
2.65436
2.65881
2.6633
2.66936
2.67811
2.69043
2.71161
2.74929
2.8128
2.89622
2.96532
2.99099
3.74926
2.78677
2.60734
2.61168
2.61546
2.61964
2.62405
2.62908
2.63417
2.63931
2.64467
2.65005
2.65488
2.65896
2.66269
2.66772
2.67506
2.68548
2.70368
2.73609
2.79267
2.87156
2.94725
2.98357
3.75075
2.7851
2.60748
2.61285
2.61731
2.62225
2.62731
2.63257
2.63751
2.64213
2.64647
2.6507
2.65475
2.65821
2.66095
2.66477
2.67035
2.67853
2.69312
2.71915
2.76719
2.84533
2.93228
2.99927
3.75246
2.78376
2.60803
2.61453
2.61978
2.62539
2.631
2.63642
2.64103
2.64475
2.64776
2.65068
2.65364
2.65624
2.65818
2.66088
2.66441
2.67031
2.68111
2.70144
2.73885
2.8045
2.87082
2.92305
3.75422
2.78304
2.60843
2.61566
2.62179
2.62792
2.63355
2.63859
2.64268
2.64558
2.64758
2.64939
2.65124
2.65314
2.65469
2.65665
2.6585
2.66225
2.66933
2.68354
2.70987
2.75626
2.81996
2.87951
3.75606
2.7831
2.6087
2.61598
2.6225
2.62866
2.63385
2.6381
2.64146
2.64391
2.64549
2.64657
2.64771
2.64921
2.65079
2.65254
2.6537
2.6557
2.65961
2.6679
2.68503
2.71402
2.76364
2.81811
3.75808
2.78381
2.60905
2.61558
2.62175
2.62747
2.63206
2.63571
2.63857
2.6406
2.6419
2.64274
2.64356
2.64488
2.64658
2.64849
2.65
2.65106
2.65292
2.65682
2.66664
2.68431
2.71823
2.7614
3.76021
2.78485
2.61027
2.61525
2.62018
2.62478
2.62855
2.63174
2.6344
2.63664
2.63814
2.63904
2.63981
2.64088
2.64244
2.64442
2.64646
2.64747
2.64838
2.64987
2.65459
2.66512
2.68507
2.71638
3.76222
2.78545
2.61233
2.61518
2.61826
2.62155
2.62469
2.62768
2.63057
2.63326
2.63529
2.63661
2.63752
2.63812
2.63903
2.64047
2.64235
2.64367
2.64419
2.64467
2.64683
2.65332
2.66479
2.68499
3.76372
2.78488
2.61332
2.6148
2.61643
2.61866
2.62148
2.62465
2.62793
2.63113
2.63392
2.63601
2.63726
2.63745
2.63735
2.63738
2.63803
2.63902
2.63936
2.63939
2.64034
2.64426
2.65171
2.66386
3.7646
2.78312
2.61351
2.61475
2.61526
2.61679
2.6197
2.62318
2.62669
2.63005
2.6334
2.6363
2.63817
2.63853
2.6376
2.63607
2.63475
2.63426
2.63393
2.63349
2.6336
2.63565
2.64085
2.64887
3.76536
2.78113
2.61364
2.61452
2.61457
2.61626
2.61957
2.62335
2.62689
2.63009
2.63324
2.63634
2.63874
2.63987
2.63888
2.63663
2.63359
2.63086
2.62892
2.62739
2.62647
2.62707
2.6301
2.63599
3.76657
2.78217
2.61527
2.61453
2.61492
2.61704
2.62087
2.62496
2.6284
2.63119
2.63365
2.63608
2.63842
2.64018
2.63993
2.63801
2.63432
2.62996
2.62607
2.62264
2.62012
2.61908
2.62003
2.62321
3.76838
2.78602
2.61528
2.61556
2.61597
2.61884
2.62341
2.62776
2.63096
2.63313
2.63459
2.63578
2.63727
2.63901
2.6397
2.6388
2.63578
2.63103
2.62597
2.62088
2.61636
2.61293
2.61162
2.61195
3.77069
2.79197
2.61352
2.61648
2.61798
2.62136
2.62629
2.63046
2.63318
2.63471
2.63531
2.63543
2.6358
2.63692
2.63817
2.63815
2.63654
2.63275
2.62745
2.62171
2.61584
2.61038
2.60616
2.60351
3.77333
2.79589
2.61423
2.61779
2.61968
2.62316
2.62776
2.63169
2.63403
2.63521
2.6354
2.63487
2.63425
2.6345
2.63557
2.63646
2.63583
2.63351
2.62927
2.62363
2.61723
2.61077
2.60455
2.59907
3.77596
2.79797
2.616
2.61802
2.62007
2.62355
2.62768
2.63151
2.63369
2.6348
2.635
2.6343
2.63317
2.63251
2.63299
2.6339
2.63406
2.63282
2.62978
2.62514
2.61917
2.61228
2.60527
2.59818
3.77785
2.79844
2.61759
2.61885
2.62054
2.62334
2.62643
2.62989
2.63229
2.63364
2.63426
2.63399
2.63302
2.63187
2.63159
2.6318
2.63193
2.6312
2.6289
2.62505
2.61985
2.61354
2.60636
2.59879
3.77887
2.79789
2.6189
2.61954
2.62031
2.62191
2.62394
2.62717
2.6299
2.63167
2.63303
2.63379
2.6335
2.63258
2.63176
2.63117
2.6305
2.62937
2.62722
2.62383
2.61898
2.61315
2.60634
2.59892
3.77995
2.79856
2.61989
2.61923
2.61906
2.61995
2.62167
2.62466
2.62743
2.62938
2.63127
2.63316
2.63414
2.6338
2.63279
2.63165
2.6302
2.62826
2.62565
2.62211
2.61743
2.61173
2.60491
2.59753
3.7815
2.80132
2.62061
2.61859
2.61812
2.61894
2.62049
2.62301
2.62538
2.62715
2.62907
2.63175
2.63407
2.63473
2.63396
2.63251
2.63051
2.62796
2.62478
2.6209
2.61604
2.61018
2.60324
2.59553
3.78334
2.80338
2.61855
2.61922
2.61877
2.61954
2.62062
2.62238
2.62397
2.62527
2.62677
2.62953
2.63295
2.63483
2.63439
2.63297
2.63064
2.62771
2.62431
2.62041
2.61562
2.60979
2.60272
2.59449
3.78539
2.803
2.61743
2.62013
2.62081
2.62149
2.62189
2.62265
2.62328
2.62396
2.62496
2.62745
2.63144
2.63431
2.63414
2.63269
2.63011
2.62697
2.6236
2.62004
2.61584
2.61061
2.6039
2.59554
3.78711
2.80099
2.61704
2.62119
2.62313
2.62384
2.62374
2.62346
2.62317
2.62323
2.62391
2.62641
2.63072
2.63392
2.6338
2.63205
2.62907
2.62582
2.62263
2.61949
2.61596
2.61173
2.60605
2.5984
3.78818
2.79793
2.61806
2.62258
2.62478
2.62521
2.62482
2.62407
2.6232
2.62294
2.62374
2.62659
2.63113
2.63403
2.63372
2.63164
2.62836
2.62507
2.62205
2.61921
2.61613
2.61263
2.60802
2.60173
3.78885
2.79631
2.61994
2.62363
2.62505
2.62508
2.62448
2.6235
2.62243
2.62202
2.62325
2.62733
2.63209
2.63442
2.63401
2.63198
2.62876
2.62552
2.62261
2.61992
2.61694
2.61356
2.60937
2.60411
3.78948
2.79574
2.62151
2.6242
2.62442
2.62362
2.62276
2.6215
2.62025
2.62085
2.62382
2.62839
2.63241
2.63428
2.6342
2.63288
2.63046
2.62763
2.6249
2.62218
2.61892
2.61514
2.6107
2.60559
3.79011
2.79639
2.62277
2.62424
2.62317
2.62087
2.61971
2.619
2.61959
2.62137
2.62407
2.62755
2.63081
2.63272
2.63344
2.63337
2.63261
2.63092
2.62876
2.62595
2.62219
2.61768
2.61254
2.60694
3.79109
2.79885
2.62347
2.62301
2.62013
2.61865
2.61874
2.61993
2.62104
2.6223
2.62366
2.62557
2.62757
2.62936
2.63122
2.63305
2.63437
2.63428
2.63309
2.63044
2.62629
2.62108
2.61517
2.60882
3.79258
2.804
2.62255
2.61835
2.61648
2.6175
2.62026
2.62284
2.62389
2.62408
2.62388
2.62375
2.62417
2.62549
2.62815
2.63177
2.63506
2.63668
2.63627
2.63415
2.63
2.62456
2.61835
2.61158
3.79438
2.80941
2.61845
2.61484
2.61495
2.61813
2.62212
2.62512
2.62639
2.62628
2.62499
2.62318
2.62228
2.62297
2.62574
2.63002
2.63423
2.63679
2.63696
2.63555
2.63221
2.62735
2.62153
2.61494
3.79579
2.81402
2.61413
2.61458
2.61531
2.61816
2.6215
2.6247
2.62661
2.62675
2.62552
2.6236
2.62252
2.62278
2.6249
2.62848
2.63233
2.63496
2.63563
2.63491
2.63275
2.62907
2.62412
2.61819
3.79723
2.81732
2.61435
2.61627
2.6155
2.61709
2.61927
2.62163
2.62382
2.62542
2.6261
2.62604
2.62582
2.62568
2.62628
2.62778
2.62995
2.63193
2.63315
2.63333
2.63253
2.63025
2.62642
2.62114
3.79807
2.81898
2.61786
2.61834
2.61533
2.61542
2.61595
2.61721
2.61937
2.62263
2.62607
2.62856
2.6297
2.62973
2.62934
2.62874
2.62856
2.62884
2.62962
2.63061
2.63115
2.63033
2.62783
2.62312
3.79916
2.82196
2.61968
2.62051
2.61526
2.61309
2.61282
2.61422
2.61756
2.62225
2.62734
2.63134
2.63322
2.63303
2.6317
2.62946
2.62735
2.62644
2.62708
2.62902
2.63078
2.63072
2.62887
2.6243
2.83526
2.93104
2.98521
3.02087
3.04183
3.05651
3.06652
3.07078
2.94209
2.99528
3.00514
3.02694
3.04348
3.05566
3.06108
3.06648
2.88768
2.95425
2.98766
3.01824
3.03855
3.05393
3.05912
3.0628
2.82493
2.89989
2.95916
3.00479
3.03308
3.05153
3.05811
3.06052
2.76485
2.82978
2.89735
2.9578
3.0017
3.03229
3.05012
3.05909
2.717
2.76629
2.82785
2.89308
2.95312
3.00385
3.04338
3.05969
2.68426
2.71744
2.76455
2.82144
2.88295
2.94902
3.01201
3.05266
2.66154
2.68271
2.71511
2.75821
2.81005
2.87853
2.97036
3.07548
2.64433
2.65717
2.67738
2.70654
2.74372
2.78962
2.82464
2.79962
2.6287
2.63658
2.64832
2.66477
2.68381
2.69879
2.69454
2.61001
2.61381
2.61714
2.62296
2.63009
2.63636
2.63035
2.60601
2.50159
2.60171
2.60022
2.60005
2.59979
2.59684
2.58272
2.54637
2.45812
2.59394
2.58837
2.58222
2.57544
2.56541
2.54719
2.51182
2.44542
2.59065
2.58198
2.57131
2.55893
2.54335
2.52242
2.48981
2.43933
2.59042
2.58026
2.56705
2.55099
2.53122
2.50751
2.47714
2.43663
2.59054
2.58057
2.56725
2.54988
2.52806
2.50269
2.47348
2.43806
2.58941
2.58014
2.56801
2.55182
2.53087
2.50525
2.47679
2.44391
2.58711
2.57822
2.56749
2.55378
2.53532
2.51142
2.48479
2.45441
2.58547
2.57611
2.56597
2.55411
2.53898
2.51868
2.49504
2.46757
2.58598
2.57562
2.56503
2.55374
2.54081
2.52419
2.50388
2.47994
2.58892
2.57777
2.56616
2.55418
2.54176
2.52756
2.51031
2.48966
2.59335
2.58238
2.57003
2.55672
2.54354
2.52974
2.51458
2.49666
2.59707
2.58739
2.57564
2.56181
2.54753
2.53286
2.51805
2.50181
2.59927
2.59097
2.5807
2.56783
2.55359
2.53817
2.52258
2.50655
2.60074
2.59324
2.58425
2.57287
2.55964
2.54459
2.52868
2.51215
2.60226
2.59496
2.58675
2.57674
2.56486
2.55079
2.53509
2.51822
2.60458
2.59703
2.58904
2.57983
2.56897
2.55597
2.541
2.52436
2.60783
2.59998
2.59169
2.5825
2.57206
2.55981
2.5457
2.52978
2.61144
2.60355
2.59478
2.58509
2.57459
2.56278
2.54929
2.534
2.61453
2.60653
2.59743
2.58736
2.57659
2.56494
2.55197
2.5373
2.61652
2.60844
2.5993
2.58923
2.57837
2.56669
2.55386
2.53941
2.61757
2.60934
2.60004
2.58991
2.57904
2.56733
2.55461
2.54048
2.06153
1.60412
1.63056
1.68334
1.77971
1.93093
2.10542
2.24735
2.39187
2.49029
2.53977
2.52717
2.57918
2.70641
2.73493
2.73844
2.72616
2.70295
2.6918
2.68625
2.6849
2.67033
2.64971
2.63267
2.61986
2.61145
2.60149
2.5866
2.56956
2.55256
2.53547
2.51908
2.50336
2.48791
2.47229
2.45598
2.43796
2.41769
2.39746
2.38033
2.36579
2.35234
2.33905
2.3253
2.31048
2.29467
2.27874
2.26514
2.24854
2.25032
2.26115
2.29071
2.34935
2.41995
2.47974
2.5109
2.50914
2.50019
2.49252
2.48941
2.48744
2.4866
2.48734
2.48661
2.48064
2.47374
2.46612
2.4581
2.45179
2.44782
2.4449
2.44187
2.43833
2.43363
2.42798
2.42205
2.41617
2.41031
2.40327
2.39266
2.3797
2.36831
2.36013
2.35367
2.34803
2.34438
2.34491
2.33844
2.2495
2.00336
1.93393
1.87106
1.84402
1.84581
1.87992
1.96448
2.09557
2.23062
2.33709
2.38895
2.46686
2.60831
2.65906
2.68222
2.68808
2.67914
2.6708
2.66429
2.66176
2.65083
2.63246
2.61379
2.59839
2.58577
2.57554
2.56335
2.5466
2.52875
2.51055
2.49397
2.47931
2.46567
2.45243
2.43885
2.42387
2.40707
2.39002
2.3744
2.35987
2.34604
2.33218
2.31771
2.30228
2.28624
2.27
2.25567
2.24532
2.25047
2.26587
2.29759
2.34643
2.40297
2.45567
2.48893
2.49465
2.49065
2.48691
2.48434
2.48254
2.4807
2.4794
2.47868
2.47524
2.46952
2.46376
2.458
2.4521
2.44643
2.44149
2.43713
2.43239
2.42679
2.42028
2.41331
2.40696
2.40153
2.39572
2.38881
2.38059
2.37089
2.36062
2.35213
2.34574
2.34028
2.33771
2.33221
2.30661
2.13931
2.03773
1.9567
1.88566
1.84005
1.79958
1.82706
1.88055
1.94304
2.05767
2.18305
2.3015
2.44286
2.52999
2.56854
2.58713
2.59211
2.59317
2.59233
2.58812
2.5831
2.57421
2.5629
2.54741
2.53438
2.52378
2.51391
2.50146
2.4869
2.46942
2.45145
2.43576
2.42239
2.41024
2.39767
2.38326
2.36869
2.35602
2.34444
2.33326
2.32145
2.30848
2.29391
2.27906
2.26377
2.24933
2.23643
2.23528
2.24385
2.26404
2.29449
2.32502
2.35973
2.40596
2.45383
2.46687
2.47017
2.46827
2.46646
2.46427
2.46076
2.45711
2.45326
2.44984
2.44683
2.443
2.43922
2.43554
2.4311
2.42599
2.42123
2.41667
2.41137
2.40455
2.39621
2.38736
2.37943
2.37347
2.36942
2.36533
2.36083
2.35504
2.34764
2.33904
2.33001
2.32392
2.31537
2.34184
2.22508
2.12844
2.0536
1.97198
1.92653
1.88115
1.83064
1.81785
1.83259
1.88146
1.98877
2.103
2.24571
2.37827
2.46247
2.50117
2.50028
2.50497
2.50893
2.50737
2.5035
2.49813
2.48807
2.47479
2.46397
2.45526
2.44668
2.43721
2.42541
2.41079
2.39625
2.38386
2.37286
2.36202
2.35018
2.33713
2.32485
2.31436
2.30489
2.29543
2.28461
2.27122
2.25587
2.24088
2.22716
2.21742
2.21363
2.21902
2.23697
2.2625
2.28385
2.29619
2.30975
2.33882
2.39173
2.42408
2.43436
2.43286
2.43125
2.43046
2.42802
2.42424
2.42032
2.41639
2.41345
2.40964
2.40592
2.40237
2.39826
2.39323
2.38817
2.3839
2.37986
2.37508
2.36895
2.36131
2.35287
2.34567
2.34089
2.33793
2.33574
2.33313
2.32908
2.3229
2.31461
2.30502
2.2919
2.36783
2.28038
2.20146
2.13511
2.05918
1.99869
1.96204
1.91287
1.8681
1.84071
1.84999
1.88307
1.9475
2.06206
2.22782
2.36143
2.4448
2.46168
2.45825
2.45436
2.45018
2.44532
2.43845
2.43001
2.42271
2.4162
2.4084
2.39807
2.38522
2.37165
2.35962
2.3498
2.34096
2.33158
2.31993
2.30706
2.29631
2.28791
2.27993
2.27201
2.26297
2.25067
2.23474
2.21751
2.20256
2.1916
2.18951
2.1927
2.20861
2.23474
2.25331
2.26332
2.26601
2.26809
2.28076
2.31857
2.36818
2.39472
2.39987
2.39616
2.39295
2.38985
2.38511
2.38143
2.37784
2.37495
2.37191
2.36822
2.3647
2.36069
2.35544
2.3491
2.34284
2.33739
2.33241
2.32739
2.3219
2.31588
2.31032
2.30663
2.30433
2.30257
2.30059
2.29781
2.29332
2.28642
2.27707
2.26268
2.38304
2.31682
2.2505
2.19505
2.13785
2.07152
2.02746
1.99385
1.9573
1.91949
1.8847
1.88106
1.89153
1.9226
2.03039
2.23087
2.38497
2.43313
2.43983
2.43294
2.42288
2.41494
2.40727
2.40082
2.39573
2.39041
2.38315
2.37198
2.35829
2.34575
2.3366
2.32877
2.32082
2.31176
2.29985
2.28836
2.28043
2.27285
2.26428
2.25387
2.24119
2.22522
2.20773
2.19206
2.1798
2.17562
2.17779
2.19026
2.21896
2.24038
2.24602
2.24713
2.24536
2.24171
2.24402
2.26067
2.30413
2.34458
2.37
2.36871
2.36378
2.35782
2.35238
2.34882
2.34553
2.34222
2.33892
2.33473
2.33059
2.32593
2.31967
2.31189
2.3046
2.2989
2.29422
2.28984
2.2852
2.28001
2.27496
2.27113
2.26841
2.26627
2.26417
2.26151
2.25733
2.25132
2.24368
2.23181
2.39183
2.33991
2.28624
2.23681
2.19065
2.13988
2.08798
2.04899
2.01898
1.99223
1.95954
1.91548
1.89279
1.90078
1.92447
2.02966
2.26147
2.37831
2.42586
2.41848
2.40738
2.40032
2.3938
2.38841
2.38415
2.37911
2.37136
2.36095
2.35062
2.34254
2.3342
2.32476
2.313
2.30237
2.29544
2.28873
2.2801
2.26867
2.25328
2.23634
2.22109
2.20829
2.19587
2.18585
2.17761
2.17492
2.18483
2.20995
2.24083
2.25081
2.24674
2.24208
2.23652
2.2281
2.22446
2.22864
2.2528
2.29653
2.33203
2.35022
2.34723
2.34067
2.33319
2.32739
2.32345
2.31956
2.3153
2.31026
2.30505
2.29904
2.29097
2.28212
2.27521
2.27002
2.26557
2.26133
2.25692
2.25213
2.24719
2.24262
2.23856
2.23483
2.23122
2.2274
2.22283
2.21747
2.21304
2.20657
2.39947
2.35614
2.31208
2.27012
2.22796
2.18512
2.14328
2.10236
2.06594
2.04207
2.01899
1.98372
1.93801
1.91579
1.92002
1.93454
2.03927
2.26638
2.39118
2.39728
2.39284
2.38997
2.38565
2.38096
2.37607
2.36974
2.36256
2.35627
2.35147
2.34527
2.33618
2.32369
2.31103
2.30138
2.29297
2.28368
2.27257
2.2598
2.24467
2.22955
2.21474
2.19961
2.18699
2.18029
2.17797
2.18839
2.21579
2.24629
2.26187
2.26171
2.25291
2.23908
2.23087
2.22309
2.21712
2.21732
2.22455
2.25399
2.29454
2.32684
2.33721
2.33286
2.32515
2.31713
2.31032
2.30545
2.30057
2.29514
2.28871
2.28087
2.27167
2.26373
2.25787
2.25265
2.24753
2.24243
2.23745
2.23278
2.22794
2.22292
2.2179
2.21257
2.20681
2.20053
2.19498
2.19055
2.18904
2.18983
2.4089
2.37108
2.33267
2.29673
2.25967
2.21887
2.18125
2.14853
2.11388
2.08078
2.05619
2.03197
2.00194
1.96387
1.93246
1.92828
1.94085
2.05599
2.27886
2.34772
2.37868
2.37723
2.37101
2.36863
2.3645
2.35848
2.35397
2.35176
2.34855
2.34207
2.332
2.31962
2.3084
2.29936
2.29049
2.28039
2.26815
2.25344
2.23907
2.22602
2.2121
2.19879
2.18997
2.18425
2.19341
2.22374
2.25777
2.27767
2.27851
2.27203
2.25738
2.24126
2.23255
2.22623
2.22218
2.21874
2.21716
2.22612
2.256
2.2973
2.32457
2.32803
2.32283
2.31462
2.30621
2.29892
2.29183
2.2837
2.27571
2.26795
2.26091
2.25536
2.25012
2.24485
2.2393
2.23345
2.22745
2.22166
2.21599
2.2104
2.20463
2.19829
2.19117
2.1827
2.17597
2.17425
2.17511
2.18296
2.42179
2.38715
2.35238
2.31831
2.28516
2.24953
2.21233
2.18153
2.1539
2.12236
2.08992
2.06477
2.04368
2.01702
1.98131
1.94744
1.93887
1.95211
2.07309
2.26115
2.35261
2.35909
2.35058
2.34906
2.3464
2.34237
2.34073
2.33953
2.33681
2.33105
2.32188
2.31104
2.30164
2.2936
2.28519
2.27534
2.26352
2.25049
2.23683
2.22174
2.20708
2.19787
2.19341
2.20045
2.23316
2.27035
2.29387
2.29692
2.29159
2.27967
2.26233
2.24855
2.24119
2.23577
2.23096
2.22294
2.21616
2.21579
2.22718
2.26146
2.30585
2.32308
2.32259
2.31606
2.30699
2.29783
2.28916
2.27994
2.26939
2.26194
2.25695
2.25261
2.24793
2.24268
2.23704
2.23033
2.22137
2.21242
2.2071
2.20215
2.19605
2.18922
2.18232
2.17517
2.16929
2.16948
2.17198
2.18664
2.43741
2.40515
2.37232
2.33983
2.30781
2.27567
2.24253
2.21017
2.18294
2.15687
2.12708
2.09628
2.07059
2.05016
2.02669
1.99572
1.95973
1.94631
1.96239
2.08375
2.26099
2.3237
2.32654
2.32615
2.32395
2.32187
2.32079
2.32006
2.3184
2.31413
2.30643
2.29764
2.29024
2.28365
2.27663
2.26866
2.25953
2.24837
2.23357
2.21622
2.20383
2.19969
2.20617
2.24088
2.28806
2.31243
2.31426
2.30924
2.29863
2.28491
2.27168
2.26253
2.25574
2.2491
2.24084
2.22999
2.22045
2.21652
2.2188
2.23497
2.27691
2.31467
2.3225
2.31919
2.31041
2.30061
2.29083
2.28062
2.26939
2.26035
2.25482
2.25054
2.24784
2.24314
2.23715
2.22952
2.21929
2.20933
2.20144
2.1939
2.18728
2.18126
2.17684
2.1737
2.17309
2.17532
2.18219
2.20167
2.45311
2.42372
2.39268
2.36164
2.32968
2.29911
2.26906
2.23868
2.20876
2.18235
2.15714
2.12948
2.10065
2.07472
2.05536
2.03378
2.00527
1.96788
1.95486
1.97234
2.09384
2.2473
2.30404
2.30508
2.30178
2.29976
2.29818
2.2976
2.29661
2.29334
2.2871
2.2805
2.27527
2.27046
2.26536
2.25994
2.25351
2.24332
2.22729
2.21105
2.20509
2.21012
2.24175
2.29934
2.33476
2.33519
2.32642
2.31541
2.30507
2.29471
2.28633
2.27905
2.27156
2.2626
2.25221
2.24092
2.23089
2.2244
2.22411
2.22914
2.25067
2.29168
2.31901
2.32109
2.3155
2.30696
2.29704
2.28625
2.27432
2.26316
2.25578
2.2498
2.24472
2.24017
2.23463
2.22857
2.21996
2.2093
2.19956
2.19074
2.18373
2.1791
2.17689
2.17863
2.18358
2.19435
2.20706
2.22232
2.46623
2.44009
2.4119
2.38245
2.35216
2.3213
2.29228
2.26401
2.23506
2.20601
2.17955
2.15566
2.13062
2.10433
2.07927
2.05773
2.03642
2.00818
1.96925
1.9629
1.98142
2.09699
2.23032
2.2704
2.28327
2.28038
2.27739
2.27546
2.27364
2.27061
2.26628
2.26216
2.2587
2.25562
2.25275
2.24919
2.24303
2.23147
2.2165
2.20939
2.21199
2.23977
2.29815
2.34783
2.35555
2.34608
2.33333
2.32413
2.31575
2.30877
2.30272
2.29507
2.28541
2.27392
2.2637
2.25503
2.2468
2.24012
2.23591
2.23281
2.23811
2.26051
2.29484
2.32171
2.32102
2.31597
2.30795
2.2966
2.28277
2.26931
2.25968
2.25263
2.24624
2.2398
2.23337
2.22637
2.21874
2.21013
2.20079
2.19186
2.18681
2.18469
2.18583
2.19167
2.20392
2.21967
2.23158
2.23718
2.47615
2.45323
2.42816
2.40124
2.37267
2.34353
2.31444
2.28646
2.25859
2.2302
2.20199
2.17626
2.15389
2.13103
2.10657
2.08178
2.05671
2.03389
2.00487
1.97088
1.96843
1.98698
2.09279
2.2051
2.25581
2.26266
2.25844
2.25458
2.25139
2.24809
2.24542
2.2436
2.2419
2.24071
2.23925
2.23577
2.22764
2.2136
2.20678
2.20939
2.23244
2.2946
2.35219
2.36976
2.3614
2.3502
2.34218
2.33543
2.32965
2.32422
2.31642
2.30629
2.29473
2.28436
2.27685
2.27046
2.26409
2.25679
2.24776
2.23898
2.23455
2.24112
2.26558
2.30246
2.32532
2.32449
2.31783
2.30505
2.29092
2.27885
2.26873
2.25934
2.25055
2.24292
2.23565
2.22812
2.22031
2.21234
2.20514
2.20011
2.19742
2.19622
2.20125
2.21414
2.23099
2.24135
2.2482
2.24711
2.48361
2.46335
2.44106
2.41683
2.39056
2.36304
2.33568
2.30752
2.27955
2.2518
2.22435
2.19774
2.17322
2.15097
2.12898
2.10509
2.08014
2.05455
2.02896
1.9986
1.97165
1.96908
1.98926
2.08634
2.19123
2.23826
2.24033
2.23591
2.23188
2.22789
2.22495
2.22395
2.22409
2.22475
2.22422
2.21949
2.2072
2.1963
2.19948
2.21816
2.28239
2.35586
2.38098
2.37151
2.36094
2.35466
2.35057
2.34755
2.34264
2.33522
2.3252
2.31347
2.3032
2.29591
2.2897
2.28369
2.27657
2.26689
2.25636
2.24636
2.23915
2.23909
2.24917
2.27624
2.31728
2.32893
2.32445
2.31221
2.29984
2.29026
2.28083
2.27029
2.25923
2.24964
2.24169
2.23363
2.22547
2.21915
2.21549
2.21243
2.21066
2.2155
2.22738
2.24218
2.25426
2.25729
2.25748
2.25397
2.48958
2.47111
2.45085
2.42891
2.40515
2.37977
2.35362
2.32686
2.29902
2.2712
2.24405
2.21817
2.19328
2.1687
2.14512
2.12271
2.09978
2.07586
2.05141
2.02354
1.99145
1.96696
1.96543
1.98723
2.0792
2.17703
2.21566
2.21943
2.2151
2.21174
2.20924
2.20768
2.20782
2.2083
2.2059
2.19831
2.18478
2.18575
2.19811
2.2576
2.34912
2.39115
2.38563
2.37021
2.3632
2.35887
2.3582
2.35547
2.34908
2.3405
2.32924
2.31948
2.31249
2.30662
2.30066
2.29416
2.28493
2.27337
2.26375
2.25494
2.24845
2.24456
2.24708
2.25822
2.29006
2.31952
2.3228
2.31783
2.3097
2.30249
2.29282
2.28104
2.26818
2.25717
2.24862
2.24062
2.23484
2.23091
2.22766
2.22898
2.23465
2.24605
2.25853
2.26639
2.26918
2.26812
2.26509
2.25843
2.49517
2.47737
2.45833
2.4382
2.41654
2.39313
2.36867
2.34284
2.31611
2.2888
2.26154
2.23544
2.21067
2.18613
2.16155
2.1373
2.114
2.09167
2.06916
2.04522
2.01649
1.98296
1.95714
1.95763
1.98203
2.07077
2.1586
2.19483
2.20088
2.19743
2.19509
2.19325
2.19298
2.19036
2.18445
2.17336
2.17294
2.17961
2.22651
2.32433
2.39202
2.39472
2.38239
2.37178
2.36633
2.36355
2.3624
2.35758
2.35038
2.34019
2.3308
2.32429
2.31893
2.31371
2.30745
2.29985
2.28893
2.27816
2.2702
2.26325
2.2571
2.25286
2.25015
2.2498
2.26079
2.28805
2.30975
2.31924
2.31922
2.31581
2.30514
2.29071
2.27575
2.26438
2.25576
2.24967
2.24605
2.24482
2.24966
2.25897
2.27276
2.28088
2.2859
2.28425
2.28153
2.27741
2.27187
2.26258
2.50078
2.48286
2.46431
2.44525
2.42499
2.40314
2.38052
2.35608
2.33018
2.30393
2.27717
2.25084
2.2253
2.20054
2.17622
2.15202
2.12787
2.10384
2.0806
2.05824
2.03458
2.00608
1.97424
1.94973
1.94966
1.97484
2.05967
2.14054
2.17927
2.18559
2.18165
2.17862
2.17616
2.17077
2.16224
2.15795
2.16343
2.19875
2.29536
2.37703
2.40275
2.3946
2.38092
2.37349
2.36917
2.36673
2.36315
2.3573
2.34833
2.33793
2.33126
2.32654
2.32216
2.31637
2.31008
2.30085
2.28899
2.28027
2.27504
2.27006
2.26468
2.25898
2.25318
2.24634
2.24531
2.25886
2.28555
2.31211
2.32406
2.32279
2.31358
2.29762
2.28217
2.27161
2.26469
2.26103
2.26147
2.26739
2.28143
2.29618
2.30878
2.30856
2.30681
2.30142
2.29437
2.2862
2.27853
2.26824
2.50656
2.48813
2.46945
2.45067
2.43105
2.41039
2.38945
2.36661
2.34179
2.3162
2.29008
2.26413
2.23856
2.21322
2.18821
2.16382
2.13976
2.11573
2.09161
2.06783
2.04444
2.02081
1.99344
1.96472
1.94234
1.94237
1.96743
2.04624
2.12516
2.16819
2.16835
2.16409
2.15752
2.14861
2.14391
2.14939
2.1739
2.26387
2.3659
2.40344
2.39975
2.38797
2.37839
2.37392
2.37152
2.36859
2.36323
2.3554
2.34454
2.33626
2.33135
2.32766
2.32242
2.3164
2.3088
2.29743
2.28592
2.28051
2.27665
2.27285
2.26809
2.26177
2.2535
2.2431
2.23985
2.24356
2.26234
2.29238
2.32068
2.32283
2.31602
2.30095
2.28902
2.2812
2.27748
2.27843
2.28332
2.29823
2.31403
2.32541
2.33034
2.33024
2.32603
2.31818
2.30738
2.29488
2.28556
2.27616
2.5123
2.49366
2.47451
2.45523
2.43558
2.41553
2.39574
2.37415
2.35039
2.32566
2.30053
2.27493
2.24946
2.2241
2.19883
2.17369
2.14886
2.12451
2.10051
2.07692
2.054
2.03122
2.00671
1.97956
1.95319
1.93319
1.93359
1.95891
2.03337
2.1131
2.1509
2.14878
2.14001
2.12984
2.13549
2.15435
2.22962
2.34444
2.40492
2.40424
2.39373
2.38244
2.3771
2.37499
2.37429
2.37038
2.36371
2.35277
2.34197
2.33569
2.33103
2.32689
2.32123
2.31479
2.30587
2.29326
2.28457
2.2803
2.27651
2.27275
2.2681
2.26122
2.25112
2.24051
2.23634
2.23689
2.2449
2.26531
2.29602
2.31185
2.30996
2.30242
2.29656
2.2948
2.29671
2.30278
2.31596
2.33242
2.33795
2.34283
2.34687
2.34917
2.34353
2.33364
2.31944
2.30316
2.29489
2.28692
2.51708
2.49881
2.47962
2.45985
2.43964
2.41953
2.4004
2.37912
2.3559
2.33219
2.30801
2.28319
2.25814
2.23278
2.20724
2.18181
2.15671
2.132
2.10767
2.08391
2.06098
2.03899
2.0171
1.99321
1.96602
1.94065
1.92282
1.92391
1.94875
2.0218
2.09245
2.12837
2.12175
2.12417
2.13692
2.19484
2.31409
2.3914
2.40592
2.40053
2.38977
2.3826
2.37882
2.37798
2.37619
2.37083
2.36184
2.35014
2.34215
2.33617
2.33057
2.32512
2.31899
2.31176
2.30215
2.29097
2.28288
2.27745
2.27293
2.26882
2.26439
2.25828
2.24892
2.23916
2.23495
2.23296
2.23508
2.24343
2.26199
2.28425
2.29657
2.30071
2.30537
2.31191
2.32241
2.33717
2.353
2.35539
2.35493
2.35436
2.35635
2.35786
2.35118
2.3416
2.32805
2.31288
2.30575
2.29745
2.52091
2.50297
2.48392
2.46414
2.44376
2.4236
2.40369
2.38179
2.35959
2.3372
2.31363
2.28944
2.26472
2.2394
2.21367
2.18793
2.16259
2.13782
2.11363
2.0899
2.06664
2.04418
2.02264
2.00136
1.97807
1.9528
1.92931
1.91177
1.91215
1.93414
1.99922
2.0725
2.09633
2.12178
2.17449
2.27648
2.36715
2.40855
2.40479
2.39809
2.3903
2.38521
2.38154
2.37807
2.37348
2.36676
2.35743
2.34895
2.34284
2.33673
2.33016
2.3227
2.31453
2.30621
2.29676
2.28747
2.28013
2.27457
2.26979
2.26528
2.26046
2.25463
2.24764
2.24042
2.235
2.23085
2.22834
2.23042
2.23779
2.25414
2.27596
2.29361
2.31025
2.33208
2.3523
2.36901
2.37657
2.37434
2.37032
2.36436
2.36186
2.35717
2.34933
2.34133
2.33176
2.32171
2.31522
2.30586
2.52326
2.50557
2.48673
2.46694
2.44658
2.42622
2.40424
2.38215
2.36122
2.34019
2.31706
2.29336
2.26886
2.24363
2.218
2.19236
2.16708
2.1423
2.11802
2.09411
2.0706
2.04769
2.02587
2.00508
1.98482
1.96297
1.93909
1.91686
1.89605
1.89464
1.91796
1.98633
2.06235
2.14493
2.24797
2.34396
2.38804
2.4016
2.39954
2.39554
2.39246
2.38884
2.38344
2.37609
2.36818
2.36046
2.35438
2.34903
2.34355
2.33716
2.33011
2.32216
2.31305
2.30241
2.29135
2.28381
2.27872
2.27379
2.26917
2.2645
2.25945
2.25369
2.24715
2.24052
2.23469
2.22953
2.22513
2.22231
2.22457
2.23429
2.25249
2.28258
2.31581
2.34904
2.37406
2.38533
2.38638
2.38457
2.38035
2.37481
2.36568
2.35514
2.34514
2.33712
2.33134
2.32699
2.32201
2.31161
2.52478
2.50761
2.48909
2.46955
2.44922
2.42826
2.40686
2.38553
2.36452
2.34279
2.31982
2.29613
2.27154
2.24632
2.22077
2.19528
2.17013
2.14538
2.12097
2.09678
2.07291
2.0495
2.02747
2.00675
1.9883
1.9693
1.94784
1.92174
1.89692
1.87575
1.87997
1.91429
2.02575
2.17247
2.29756
2.40138
2.40846
2.4013
2.39627
2.39496
2.39307
2.38964
2.3836
2.37374
2.36345
2.35738
2.35236
2.34798
2.34266
2.33589
2.32862
2.3204
2.31043
2.29838
2.28832
2.28137
2.27544
2.27042
2.26596
2.26167
2.25701
2.25127
2.24485
2.23917
2.23407
2.22892
2.22376
2.21882
2.21769
2.22166
2.23596
2.26684
2.31348
2.35518
2.38499
2.39975
2.39693
2.39396
2.38944
2.37948
2.36685
2.35133
2.34085
2.33356
2.32893
2.32837
2.32454
2.31345
)
;

boundaryField
{
    inlet
    {
        type            fixedValue;
        value           uniform 1;
    }
    outlet
    {
        type            inletOutlet;
        inletValue      uniform 1;
        value           nonuniform List<scalar> 
24
(
2.33876
2.33309
2.31582
2.29181
2.26229
2.23133
2.2064
2.19009
2.18345
2.18681
2.20112
2.22173
2.23713
2.2472
2.25386
2.25817
2.26207
2.26772
2.27604
2.28709
2.29777
2.30607
2.31154
2.31335
)
;
    }
    bottom
    {
        type            zeroGradient;
    }
    top
    {
        type            zeroGradient;
    }
    obstacle
    {
        type            zeroGradient;
    }
    defaultFaces
    {
        type            empty;
    }
}


// ************************************************************************* //
