/*--------------------------------*- C++ -*----------------------------------*\
  =========                 |
  \\      /  F ield         | OpenFOAM: The Open Source CFD Toolbox
   \\    /   O peration     | Website:  https://openfoam.org
    \\  /    A nd           | Version:  7
     \\/     M anipulation  |
\*---------------------------------------------------------------------------*/
FoamFile
{
    version     2.0;
    format      ascii;
    class       volScalarField;
    location    "1.3";
    object      T;
}
// * * * * * * * * * * * * * * * * * * * * * * * * * * * * * * * * * * * * * //

dimensions      [0 0 0 1 0 0 0];

internalField   nonuniform List<scalar> 
16192
(
2.88323
2.82037
2.7508
2.70132
2.66458
2.64682
2.63408
2.52636
2.35173
2.30242
2.29686
2.33195
2.38766
2.45756
2.54132
2.62252
2.70562
2.77542
2.83888
2.88148
2.90789
2.88337
2.8197
2.74876
2.6975
2.65989
2.64041
2.62682
2.52799
2.36403
2.30958
2.3014
2.33379
2.38767
2.45923
2.5358
2.61654
2.7016
2.77533
2.84015
2.88449
2.91167
2.88506
2.82119
2.74779
2.69357
2.65503
2.63392
2.61735
2.53048
2.38659
2.32323
2.31091
2.33864
2.39096
2.4632
2.54122
2.6207
2.70574
2.77914
2.84586
2.89255
2.92149
2.88685
2.82415
2.74704
2.68841
2.64774
2.62381
2.60355
2.53076
2.41199
2.34549
2.32319
2.34113
2.38741
2.45045
2.52829
2.60713
2.69564
2.77348
2.84376
2.89387
2.92428
2.88978
2.83108
2.7501
2.68588
2.6415
2.61308
2.58754
2.52599
2.43162
2.36696
2.33358
2.33857
2.37169
2.42482
2.49948
2.57736
2.66873
2.75323
2.82808
2.88147
2.913
2.89104
2.8399
2.75688
2.68598
2.63619
2.60192
2.57069
2.51663
2.43957
2.37725
2.3342
2.32861
2.34027
2.38259
2.45242
2.53309
2.62965
2.72252
2.80273
2.85855
2.89058
2.88893
2.85022
2.77106
2.69201
2.63503
2.59349
2.55634
2.50514
2.4393
2.3785
2.32578
2.3091
2.30279
2.3353
2.40323
2.48915
2.59202
2.69153
2.77544
2.83158
2.86262
2.88003
2.85715
2.78957
2.70536
2.63813
2.58923
2.54593
2.49439
2.43307
2.37129
2.31143
2.28333
2.26908
2.2911
2.36007
2.45272
2.56093
2.66273
2.74575
2.79922
2.82754
2.86405
2.85779
2.81002
2.72851
2.65026
2.59143
2.54181
2.48816
2.42763
2.36468
2.30421
2.26935
2.25368
2.26621
2.33078
2.42525
2.53404
2.63299
2.71055
2.75862
2.78303
2.83997
2.84947
2.82175
2.75422
2.67279
2.6021
2.54367
2.48614
2.42528
2.36073
2.30214
2.2639
2.24888
2.25727
2.31524
2.4044
2.50887
2.60071
2.66946
2.71091
2.73032
2.81022
2.83044
2.81809
2.77361
2.70183
2.62511
2.55591
2.49148
2.42771
2.36388
2.30733
2.26742
2.25269
2.25836
2.30911
2.3886
2.48452
2.56655
2.62481
2.6586
2.67219
2.77584
2.79898
2.79931
2.77544
2.72367
2.65325
2.57868
2.50568
2.43634
2.37174
2.31625
2.276
2.26239
2.26551
2.30822
2.37733
2.46172
2.53142
2.57763
2.60257
2.60936
2.74381
2.76286
2.77036
2.76359
2.72936
2.67437
2.60631
2.53074
2.45542
2.38603
2.3305
2.29068
2.27743
2.27907
2.31255
2.36928
2.43987
2.49565
2.52919
2.5447
2.54493
2.71073
2.72463
2.73129
2.73458
2.71828
2.67983
2.62442
2.5567
2.4813
2.4081
2.34928
2.30942
2.29651
2.29674
2.32193
2.36459
2.42005
2.46078
2.48163
2.48843
2.48351
2.67033
2.69022
2.69326
2.69599
2.69312
2.67193
2.62863
2.57244
2.50602
2.43603
2.37419
2.3324
2.31825
2.31686
2.33356
2.36165
2.40162
2.42752
2.43688
2.43522
2.4275
2.61834
2.65284
2.65797
2.65602
2.65399
2.64447
2.61837
2.57452
2.52121
2.45961
2.39917
2.35541
2.33904
2.33639
2.34632
2.36122
2.38665
2.39861
2.40233
2.39533
2.387
2.53067
2.59757
2.62268
2.62235
2.61722
2.6088
2.59367
2.56646
2.52576
2.47467
2.41991
2.37838
2.35923
2.35371
2.35794
2.36169
2.37309
2.37197
2.37072
2.35996
2.35399
2.43112
2.52917
2.58012
2.59098
2.58523
2.57319
2.55802
2.54035
2.51411
2.47559
2.43077
2.39445
2.37451
2.36698
2.36579
2.35991
2.35973
2.34825
2.34664
2.33515
2.335
2.32826
2.42795
2.50821
2.55083
2.55522
2.54619
2.53014
2.51307
2.49507
2.46899
2.43291
2.4049
2.38707
2.37818
2.37226
2.35904
2.34964
2.33135
2.33225
2.32075
2.32765
2.2448
2.32566
2.4229
2.49736
2.52452
2.52144
2.50916
2.49163
2.47291
2.45276
2.42652
2.40655
2.39346
2.3853
2.37641
2.35862
2.34328
2.32082
2.32567
2.31487
2.32783
2.18771
2.23879
2.32103
2.40926
2.46997
2.4913
2.48916
2.47838
2.46091
2.44129
2.42057
2.40805
2.39836
2.39023
2.3799
2.3597
2.34185
2.31725
2.32469
2.31846
2.34742
2.15238
2.17688
2.23003
2.31258
2.39969
2.4516
2.4667
2.46421
2.45184
2.4342
2.41528
2.40896
2.40131
2.39301
2.382
2.36158
2.3442
2.31891
2.33253
2.33013
2.3758
2.13154
2.13825
2.16421
2.22021
2.30262
2.37575
2.42097
2.44158
2.43836
2.42824
2.41463
2.41164
2.40419
2.3944
2.3832
2.3657
2.35236
2.33008
2.35088
2.35108
2.41063
2.12108
2.11582
2.12201
2.15049
2.20801
2.28558
2.3595
2.40844
2.42036
2.41713
2.41121
2.40971
2.40246
2.3922
2.38176
2.37037
2.36547
2.35236
2.38164
2.38145
2.45026
2.11954
2.10427
2.0963
2.10488
2.13523
2.19241
2.26642
2.33455
2.37244
2.3903
2.3993
2.40428
2.40217
2.39494
2.38562
2.37869
2.38311
2.3848
2.42339
2.41995
2.49453
2.12139
2.10143
2.07991
2.07708
2.08587
2.11691
2.17195
2.24341
2.30673
2.35436
2.37753
2.3868
2.3939
2.39159
2.38449
2.38474
2.39955
2.42464
2.47509
2.46665
2.54289
2.12535
2.10298
2.07852
2.05987
2.0547
2.06501
2.09418
2.14729
2.21084
2.27219
2.31182
2.33919
2.36822
2.38006
2.37847
2.38514
2.41304
2.46952
2.52787
2.51755
2.5942
2.13063
2.10693
2.08097
2.05805
2.03588
2.03319
2.04118
2.06803
2.11367
2.171
2.22736
2.28085
2.32325
2.35108
2.35848
2.37233
2.41169
2.51227
2.57375
2.56874
2.64514
2.13595
2.11229
2.08622
2.06049
2.03619
2.01682
2.01009
2.01548
2.037
2.07383
2.12159
2.1749
2.22485
2.27369
2.29704
2.32634
2.38728
2.54353
2.60435
2.61731
2.68245
2.14049
2.11798
2.09274
2.06584
2.03987
2.0152
1.99676
1.98403
1.98783
2.0012
2.02645
2.06139
2.11187
2.16806
2.20186
2.24582
2.31751
2.54583
2.61646
2.64827
2.71535
2.14351
2.12259
2.09925
2.07243
2.04612
2.01803
1.99702
1.97419
1.96129
1.95664
1.96251
1.97337
2.00286
2.04278
2.08016
2.12535
2.20259
2.50489
2.60328
2.65032
2.74068
2.14507
2.12647
2.10486
2.07915
2.05367
2.02397
1.9997
1.9751
1.95348
1.93653
1.92794
1.92298
1.93006
1.94785
1.97431
2.01071
2.0924
2.44072
2.56412
2.62798
2.7683
2.14575
2.12853
2.10925
2.08481
2.06112
2.03194
2.0056
1.97953
1.95503
1.93682
1.91676
1.90418
1.89313
1.88873
1.9007
1.92515
1.99583
2.39007
2.51755
2.58058
2.6151
2.14595
2.1296
2.11223
2.08959
2.06789
2.04057
2.01349
1.98804
1.9596
1.94011
1.91693
1.90221
1.88279
1.86378
1.86649
1.87953
1.93378
2.36311
2.4801
2.53032
2.51519
2.14625
2.13028
2.11429
2.09322
2.07346
2.04841
2.02219
1.99763
1.96764
1.94638
1.92121
1.90329
1.88198
1.86354
1.84956
1.8564
1.89627
2.35723
2.45526
2.48049
2.43659
2.14671
2.13083
2.11569
2.09592
2.0778
2.05482
2.03011
2.00654
1.97781
1.95256
1.92851
1.9066
1.88535
1.86459
1.84319
1.84739
1.87462
2.34505
2.43884
2.44115
2.3868
2.14732
2.13156
2.11688
2.09822
2.08111
2.05975
2.03672
2.01387
1.98772
1.96077
1.93724
1.9128
1.89303
1.8701
1.84525
1.84604
1.86203
2.32455
2.43121
2.41958
2.34676
2.1482
2.13265
2.11808
2.10034
2.0836
2.06344
2.04199
2.01981
1.99591
1.96986
1.94619
1.9215
1.90256
1.87992
1.85441
1.84644
1.8556
2.29479
2.42372
2.40495
2.3156
2.14913
2.13388
2.11926
2.10233
2.08552
2.06648
2.04603
2.02478
2.00192
1.97833
1.95447
1.93099
1.91105
1.88982
1.86614
1.84908
1.85428
2.26086
2.41603
2.39403
2.29557
2.15005
2.13513
2.12048
2.10435
2.08718
2.06928
2.04937
2.02909
2.0067
1.98559
1.96206
1.93953
1.91951
1.89786
1.87719
1.85334
1.85609
2.22247
2.40723
2.38399
2.28381
2.15079
2.13631
2.12168
2.10634
2.08891
2.07206
2.05248
2.03316
2.01085
1.99157
1.96886
1.9468
1.92664
1.905
1.88569
1.85891
1.85955
2.18099
2.39489
2.37311
2.27738
2.1513
2.13741
2.12298
2.1084
2.09089
2.07492
2.05561
2.03699
2.01511
1.99647
1.97442
1.95324
1.9322
1.91215
1.89153
1.86558
1.86345
2.13565
2.37781
2.36075
2.27385
2.1517
2.13851
2.1243
2.11032
2.09303
2.07756
2.05878
2.04064
2.01937
2.00077
1.97931
1.95898
1.93708
1.91878
1.89712
1.87354
1.86628
2.08739
2.35522
2.34746
2.27115
2.15195
2.13947
2.1255
2.11193
2.09513
2.0799
2.06173
2.04397
2.02375
2.00449
1.98353
1.96398
1.94275
1.92414
1.90409
1.88092
1.86888
2.0363
2.32533
2.33739
2.26796
2.15213
2.14023
2.12659
2.11321
2.09704
2.08186
2.06435
2.0469
2.02769
2.0082
1.98803
1.96821
1.94864
1.92941
1.91091
1.88841
1.87211
1.98455
2.29061
2.32841
2.26348
2.15218
2.14068
2.12745
2.11417
2.09866
2.08351
2.06667
2.04935
2.03137
2.01157
1.99239
1.97273
1.954
1.93484
1.91714
1.89551
1.87576
1.9401
2.25351
2.31746
2.25756
2.15207
2.14078
2.12805
2.11494
2.10012
2.08492
2.06876
2.05143
2.03439
2.01494
1.99658
1.97695
1.95908
1.93981
1.92253
1.90212
1.87968
1.9121
2.21509
2.30541
2.2508
2.15175
2.14061
2.1284
2.11552
2.10134
2.08615
2.07057
2.05331
2.03705
2.01794
2.00052
1.98104
1.96351
1.9445
1.92726
1.90797
1.88364
1.89709
2.17371
2.29409
2.24411
2.15116
2.14018
2.12844
2.11589
2.10231
2.08725
2.0722
2.05507
2.03934
2.02082
2.0039
1.9848
1.96741
1.94868
1.93157
1.91332
1.88755
1.89227
2.1264
2.28373
2.23912
2.15033
2.13952
2.12831
2.11606
2.10294
2.0882
2.07357
2.05691
2.0414
2.02345
2.00687
1.9882
1.97105
1.95251
1.93596
1.91811
1.89217
1.89287
2.07474
2.2722
2.23443
2.14938
2.13877
2.12796
2.11596
2.10329
2.08903
2.07475
2.05873
2.04331
2.02588
2.00934
1.99135
1.97427
1.9562
1.94028
1.92273
1.89866
1.89339
2.02286
2.25775
2.22949
2.14828
2.13786
2.1274
2.11565
2.10335
2.08982
2.07571
2.06044
2.04497
2.02802
2.01129
1.99421
1.9772
1.95995
1.94419
1.92783
1.90506
1.89454
1.9764
2.23933
2.22126
2.1472
2.1369
2.12666
2.11515
2.10324
2.09044
2.07649
2.0617
2.04634
2.0298
2.01304
1.99678
1.9799
1.96366
1.94777
1.93281
1.91113
1.89626
1.94295
2.21265
2.21204
2.14612
2.13586
2.12575
2.11447
2.10295
2.09083
2.077
2.06265
2.04729
2.03127
2.01448
1.99917
1.98252
1.96716
1.95112
1.93707
1.91666
1.89836
1.92225
2.17453
2.20879
2.14513
2.13488
2.12483
2.11384
2.10253
2.09091
2.07733
2.06318
2.04808
2.03258
2.01607
2.00135
1.98508
1.97043
1.95419
1.94055
1.9214
1.90083
1.9101
2.12827
2.20506
2.14425
2.13396
2.12394
2.11324
2.10205
2.09076
2.0775
2.06357
2.04867
2.03377
2.01776
2.00349
1.98757
1.97337
1.95691
1.94358
1.92526
1.90382
1.90661
2.0763
2.19851
2.14348
2.13326
2.12324
2.11284
2.10166
2.09045
2.07758
2.06384
2.0493
2.03489
2.01965
2.0055
1.99003
1.97585
1.95967
1.94601
1.92895
1.90694
1.90507
2.02554
2.18541
2.14277
2.13269
2.12269
2.11243
2.10138
2.09001
2.07749
2.06402
2.05
2.03595
2.02145
2.00734
1.99239
1.97787
1.96229
1.94803
1.93256
1.91025
1.904
1.98266
2.16084
2.14203
2.13218
2.12222
2.11207
2.10104
2.08961
2.07739
2.06421
2.05071
2.037
2.02314
2.00904
1.99438
1.97973
1.9646
1.95014
1.93571
1.91453
1.90372
1.95025
2.13033
2.14114
2.13156
2.12168
2.1115
2.10064
2.08907
2.07714
2.06431
2.05142
2.03795
2.02445
2.01042
1.99617
1.98122
1.96666
1.95196
1.93858
1.91882
1.90406
1.92888
2.09671
2.14001
2.13068
2.12093
2.1108
2.10004
2.08857
2.07688
2.06443
2.05198
2.03876
2.02558
2.0115
1.99749
1.98255
1.96846
1.95355
1.94092
1.92263
1.90505
1.91634
2.05674
2.13859
2.12948
2.1199
2.10983
2.09935
2.08804
2.07659
2.06446
2.05238
2.03938
2.02619
2.01235
1.99852
1.98359
1.96997
1.95479
1.94285
1.92577
1.90661
1.90986
2.01318
2.13695
2.12802
2.11867
2.10881
2.09857
2.08765
2.07644
2.06458
2.05261
2.03978
2.02667
2.01291
1.99914
1.98457
1.97112
1.95617
1.94403
1.92884
1.90762
1.9081
1.97528
2.13508
2.12635
2.11722
2.10764
2.09773
2.0872
2.07627
2.06462
2.05273
2.04005
2.02667
2.01334
1.99952
1.98534
1.97188
1.95761
1.94487
1.93163
1.9093
1.90727
1.94683
2.13312
2.12461
2.11574
2.10648
2.09684
2.08671
2.07606
2.06466
2.05271
2.04021
2.02678
2.01342
1.99988
1.98595
1.9726
1.95906
1.94588
1.93396
1.91359
1.90668
1.92814
2.13101
2.12282
2.1142
2.10521
2.09582
2.08601
2.07562
2.06446
2.05256
2.04011
2.0267
2.01356
2.00008
1.98678
1.97306
1.96067
1.94725
1.93638
1.91882
1.90703
1.91635
2.12893
2.12109
2.11274
2.10395
2.09475
2.0852
2.07501
2.0641
2.0522
2.03991
2.02673
2.01368
2.00041
1.98773
1.97404
1.96216
1.94922
1.93886
1.92377
1.9083
1.91141
2.12674
2.11934
2.11126
2.10263
2.09358
2.08422
2.07421
2.06348
2.05177
2.03961
2.02675
2.014
2.00098
1.98878
1.97567
1.96379
1.95167
1.94142
1.92783
1.9092
1.90972
2.12458
2.11758
2.10979
2.10135
2.09244
2.08324
2.07332
2.06284
2.05125
2.03941
2.02693
2.01456
2.00189
1.99015
1.97773
1.9659
1.95413
1.94371
1.93125
1.91106
1.90685
2.12224
2.11568
2.10822
2.10002
2.09132
2.08222
2.07242
2.06205
2.05083
2.03925
2.0273
2.01545
2.00324
1.99183
1.97999
1.96832
1.95647
1.94543
1.93346
1.91477
1.90248
2.11979
2.11365
2.1066
2.09876
2.09025
2.08128
2.07153
2.06134
2.05041
2.03934
2.02795
2.01663
2.00504
1.99375
1.9824
1.97037
1.95841
1.94665
1.93457
1.91773
1.90106
2.11704
2.11142
2.1049
2.09746
2.0892
2.08031
2.07063
2.06064
2.05026
2.03969
2.02894
2.01822
2.00705
1.99582
1.98437
1.97214
1.9597
1.94707
1.93518
1.91894
1.90211
2.11404
2.109
2.10308
2.09612
2.08808
2.07926
2.06977
2.06007
2.05029
2.04043
2.03028
2.01995
2.00905
1.99772
1.98584
1.97343
1.96026
1.94721
1.93493
1.92002
1.9037
2.11079
2.10637
2.10107
2.09455
2.08675
2.07809
2.06891
2.05974
2.05063
2.04147
2.0318
2.02168
2.01076
1.99895
1.98683
1.97397
1.96044
1.94695
1.93459
1.92096
1.90495
2.10734
2.1035
2.09874
2.09262
2.0851
2.07677
2.06817
2.05971
2.05132
2.04268
2.0332
2.02298
2.01173
1.99954
1.98672
1.97383
1.9603
1.94658
1.93443
1.92188
1.90722
2.1037
2.10035
2.09602
2.09024
2.08318
2.07545
2.06765
2.06002
2.05221
2.04377
2.03408
2.02329
2.01157
1.99909
1.98616
1.97335
1.95993
1.94651
1.9345
1.92302
1.91011
2.09979
2.09678
2.09278
2.08748
2.08118
2.07439
2.06754
2.06056
2.05297
2.04416
2.03394
2.02271
2.01066
1.99805
1.98519
1.97241
1.95965
1.94666
1.93508
1.92462
1.91257
2.09565
2.0928
2.08914
2.08459
2.07944
2.07379
2.06777
2.06106
2.053
2.04365
2.03294
2.02126
2.00909
1.99652
1.98387
1.97147
1.95955
1.94726
1.93619
1.92624
1.91542
2.09129
2.0885
2.08535
2.08195
2.07822
2.07376
2.06806
2.06088
2.05219
2.0421
2.03102
2.01915
2.00698
1.99478
1.98265
1.97076
1.95949
1.94833
1.93749
1.92774
1.91741
2.08679
2.08405
2.08189
2.07991
2.07744
2.07353
2.06761
2.05977
2.05034
2.03969
2.02841
2.01662
2.00474
1.99301
1.98151
1.97041
1.95985
1.94939
1.93898
1.92893
1.91871
2.08218
2.07997
2.07922
2.07835
2.07649
2.07257
2.06609
2.0575
2.04743
2.03654
2.02544
2.01399
2.00251
1.99154
1.98088
1.97045
1.96055
1.95051
1.94034
1.92977
1.91938
2.07776
2.07677
2.07701
2.07666
2.07486
2.0703
2.06323
2.05415
2.04386
2.03306
2.02226
2.01153
2.00093
1.99073
1.9809
1.97094
1.96135
1.95155
1.94125
1.93048
1.9199
2.0744
2.07461
2.07498
2.07429
2.07166
2.06652
2.05916
2.05013
2.04017
2.0298
2.01961
2.00972
1.99995
1.99066
1.98133
1.97164
1.96216
1.95233
1.94178
1.93101
1.92007
2.07243
2.07235
2.07176
2.07021
2.06693
2.06157
2.05442
2.04583
2.03657
2.02704
2.0176
2.00845
1.99944
1.99073
1.98181
1.97231
1.96272
1.95264
1.94205
1.93117
1.92044
2.07088
2.06938
2.06722
2.0647
2.06115
2.05601
2.04954
2.04187
2.03357
2.02497
2.01642
2.00784
1.99935
1.99085
1.98202
1.97255
1.9628
1.95266
1.94194
1.93122
1.92084
2.06807
2.06512
2.06177
2.05846
2.05454
2.04995
2.04461
2.03855
2.03178
2.02428
2.0162
2.00779
1.99931
1.99067
1.98172
1.97229
1.96251
1.95236
1.94178
1.93135
1.92117
2.06341
2.05972
2.05505
2.05101
2.04751
2.04397
2.04024
2.03591
2.03048
2.02383
2.01618
2.00787
1.99928
1.99044
1.98123
1.9717
1.96194
1.95186
1.94162
1.93153
1.92162
2.05704
2.05199
2.04692
2.04362
2.04117
2.03884
2.03653
2.03348
2.02902
2.02305
2.01578
2.00766
1.99911
1.99013
1.98072
1.97115
1.96142
1.95144
1.9415
1.9318
1.92221
2.04902
2.04372
2.03868
2.03683
2.03544
2.03421
2.03295
2.03076
2.027
2.02154
2.01468
2.00688
1.99847
1.98953
1.98009
1.97057
1.96092
1.95112
1.94145
1.93207
1.92266
2.04052
2.03551
2.03088
2.03027
2.03015
2.02992
2.02938
2.02771
2.02441
2.01943
2.013
2.00553
1.99732
1.98848
1.97912
1.96975
1.9603
1.95069
1.94125
1.9321
1.92285
2.03217
2.02751
2.02342
2.02324
2.02452
2.0253
2.02552
2.02438
2.02152
2.01704
2.01115
2.00402
1.99596
1.98715
1.97786
1.9686
1.95931
1.94992
1.94079
1.93187
1.92268
2.02471
2.02148
2.01867
2.01896
2.01954
2.02014
2.0209
2.02014
2.01804
2.0145
2.00936
2.00266
1.99475
1.9859
1.97653
1.96723
1.95802
1.9488
1.9399
1.93122
1.92222
2.02007
2.01814
2.01524
2.01447
2.01371
2.01428
2.01517
2.01476
2.01376
2.01151
2.00745
2.00138
1.99372
1.98493
1.97546
1.96601
1.9567
1.94755
1.93882
1.9303
1.92152
2.01907
2.01644
2.0123
2.00961
2.00719
2.00752
2.00868
2.00904
2.00915
2.00814
2.00516
1.99988
1.99271
1.98412
1.9747
1.96515
1.95567
1.94649
1.93779
1.92935
1.92082
2.03526
1.70699
1.50101
1.50744
1.53415
1.54633
1.587
1.64255
1.66141
1.66221
1.66542
1.68139
1.69304
1.69537
1.696
1.69725
1.69643
1.69198
1.68463
1.67861
1.67724
1.67795
1.68173
1.68842
1.69427
1.6981
1.69881
1.69744
1.69711
1.70075
1.70979
1.71868
1.72528
1.73062
1.73617
1.74483
1.75297
1.76864
1.80377
1.84431
1.86518
1.88061
1.89532
1.90917
1.92046
1.92509
1.92905
1.93531
1.9436
1.95265
1.96018
1.96703
1.97418
1.98008
1.98435
1.99053
1.99786
2.00456
2.0108
2.01639
2.0198
2.02002
2.01757
2.01484
2.01471
2.01663
2.02006
2.02392
2.02788
2.03104
2.03241
2.03235
2.02875
2.02117
2.01499
2.01047
2.0088
2.00811
2.00742
2.00842
2.01046
2.01045
2.00783
2.00139
1.9934
1.98608
1.97965
1.97427
1.96709
1.95649
1.94559
1.93558
1.92551
1.91571
1.90838
1.90307
1.89665
1.88756
1.87694
1.8658
1.85483
1.845
1.83731
1.83164
1.82648
1.81918
1.80905
1.79773
1.78637
1.7752
1.76496
1.75796
1.75582
1.75601
1.75493
1.74718
1.73357
1.72064
1.71009
1.70154
1.69942
1.70157
1.70313
1.69763
1.68743
1.677
1.66844
1.66388
1.66132
1.66317
1.66771
1.66699
1.66523
1.66348
1.66219
1.66212
1.66255
1.66411
1.66711
1.67119
1.67591
1.68083
1.68527
1.68937
1.69417
1.70084
1.71006
1.72194
1.73708
1.7563
1.77651
1.79547
1.81264
1.82576
1.83162
1.83465
1.84213
1.85378
1.8656
1.87635
1.88842
1.9027
1.91536
1.91968
1.91943
1.92502
1.93827
1.94967
1.96127
1.97359
1.98642
2.00425
2.03125
2.06659
2.09099
2.09433
2.09591
2.09685
2.09633
2.09433
2.08828
2.07525
2.05303
2.01963
1.97808
1.94075
1.9118
1.89388
1.88276
1.87313
1.86223
1.85037
1.83984
1.83275
1.83085
1.83117
1.83131
1.82806
1.81801
1.80903
1.80417
1.79878
1.79308
1.78794
1.78337
1.77726
1.77193
1.77055
1.77015
1.77032
1.77215
1.77578
1.78007
1.78375
1.785
1.78307
1.77843
1.7721
1.76399
1.75226
1.73489
1.71885
1.71038
1.70057
1.67955
1.65932
1.64618
1.64099
1.63831
1.63935
2.15908
1.95397
1.77738
1.69197
1.64024
1.59597
1.58368
1.56916
1.55051
1.55465
1.56956
1.59679
1.61749
1.63007
1.63835
1.64522
1.6476
1.64582
1.64365
1.64391
1.64516
1.64867
1.6555
1.66472
1.67027
1.6726
1.67456
1.67503
1.67547
1.67897
1.68673
1.69456
1.69998
1.70509
1.71234
1.72225
1.73241
1.75047
1.78511
1.82568
1.84716
1.86286
1.87826
1.89064
1.90055
1.90759
1.91355
1.9208
1.92834
1.93733
1.94643
1.95506
1.9636
1.97045
1.97419
1.97648
1.98035
1.98632
1.993
1.99963
2.00555
2.00993
2.01215
2.01277
2.01268
2.01216
2.01203
2.01312
2.01552
2.0174
2.01884
2.0195
2.01911
2.01741
2.01474
2.01092
2.00644
2.00548
2.00476
2.00496
2.00614
2.00596
2.00357
1.99769
1.99013
1.98314
1.97715
1.97161
1.96529
1.95667
1.94661
1.93667
1.92732
1.91817
1.91003
1.90312
1.89534
1.88536
1.87473
1.86459
1.85486
1.8457
1.83784
1.83136
1.82472
1.81659
1.80684
1.79634
1.78615
1.77674
1.76817
1.7607
1.75441
1.74857
1.74176
1.73311
1.72503
1.71756
1.70919
1.7024
1.69939
1.69947
1.69787
1.68891
1.67895
1.67129
1.66569
1.66133
1.65883
1.66025
1.66343
1.66216
1.66022
1.65845
1.65687
1.65673
1.65731
1.65921
1.66282
1.66763
1.67288
1.67834
1.68348
1.68837
1.69358
1.69993
1.70856
1.71971
1.73318
1.74968
1.76759
1.78508
1.8016
1.81615
1.82674
1.83298
1.83937
1.84923
1.8601
1.87106
1.88244
1.89553
1.90896
1.91894
1.92249
1.92633
1.93712
1.94823
1.95857
1.96979
1.98175
1.99884
2.02458
2.05868
2.08529
2.09209
2.09553
2.09767
2.09718
2.09528
2.08935
2.07689
2.05545
2.02344
1.98276
1.94204
1.91148
1.89362
1.8832
1.87459
1.86502
1.85425
1.84485
1.83809
1.83416
1.83289
1.83237
1.82997
1.82184
1.81172
1.80649
1.80134
1.79653
1.79195
1.78785
1.78302
1.77819
1.77644
1.77561
1.77511
1.77534
1.77671
1.77897
1.78275
1.78619
1.78543
1.77663
1.76523
1.75472
1.74486
1.73183
1.71724
1.70647
1.69548
1.67498
1.6559
1.64372
1.63807
1.6348
1.63492
2.16647
1.99746
1.85397
1.74482
1.66365
1.59514
1.53509
1.50857
1.47801
1.47731
1.49334
1.51905
1.5318
1.54356
1.54951
1.5564
1.5649
1.57452
1.58428
1.58915
1.59043
1.59325
1.59943
1.60549
1.60633
1.60752
1.61018
1.61331
1.61616
1.62163
1.62921
1.6373
1.64466
1.65162
1.65942
1.66703
1.67397
1.69121
1.72265
1.76773
1.79595
1.81446
1.83195
1.84476
1.8527
1.85853
1.86369
1.87015
1.87764
1.88691
1.89757
1.90809
1.91894
1.92979
1.93913
1.94492
1.94671
1.94713
1.9485
1.95215
1.95814
1.96609
1.97388
1.97983
1.98495
1.9888
1.99054
1.99069
1.98966
1.98729
1.98532
1.98492
1.98686
1.9907
1.99341
1.99533
1.99637
1.99741
1.99522
1.99341
1.99528
1.9956
1.99418
1.99
1.98367
1.97736
1.97114
1.96402
1.95662
1.94934
1.94179
1.9343
1.92732
1.92078
1.91419
1.90627
1.89603
1.88479
1.87388
1.86358
1.85414
1.8459
1.83843
1.83075
1.822
1.81228
1.80207
1.7918
1.78209
1.77349
1.76616
1.75949
1.75228
1.74338
1.73184
1.72145
1.71368
1.70745
1.70111
1.69621
1.69406
1.69296
1.68785
1.67666
1.66657
1.65914
1.65362
1.64938
1.64795
1.64966
1.65126
1.64923
1.64699
1.64505
1.64324
1.64284
1.64313
1.64459
1.64814
1.65293
1.6582
1.66434
1.67044
1.67634
1.68284
1.69064
1.69993
1.71068
1.72269
1.73579
1.74938
1.76278
1.77619
1.79036
1.80538
1.81709
1.82482
1.83297
1.84203
1.85079
1.85986
1.87057
1.88357
1.89719
1.90717
1.91391
1.92398
1.93557
1.94659
1.95683
1.96766
1.98344
2.00669
2.03782
2.06667
2.07978
2.08726
2.09179
2.09113
2.09012
2.08726
2.07758
2.05859
2.02951
1.99014
1.94736
1.91369
1.89377
1.88194
1.87346
1.86554
1.85704
1.84894
1.84257
1.83745
1.83472
1.83401
1.83288
1.82871
1.82078
1.81528
1.81163
1.80819
1.80487
1.80102
1.79654
1.79335
1.79238
1.79198
1.79197
1.79209
1.79215
1.79269
1.79295
1.7938
1.79407
1.79251
1.78611
1.7746
1.7605
1.74405
1.72629
1.70975
1.69292
1.6748
1.65455
1.63676
1.62669
1.62318
1.62375
2.17428
2.03352
1.90617
1.80233
1.72063
1.64773
1.57776
1.54502
1.50812
1.47189
1.4646
1.46555
1.4576
1.4576
1.46093
1.46966
1.48235
1.4955
1.50995
1.5213
1.53012
1.53363
1.53973
1.54164
1.53956
1.53944
1.54103
1.54392
1.54776
1.55219
1.55742
1.56473
1.57309
1.5816
1.5891
1.59474
1.60064
1.61472
1.64064
1.68248
1.71617
1.73567
1.753
1.76719
1.77628
1.78396
1.79081
1.79808
1.80636
1.81541
1.82578
1.83615
1.84577
1.85496
1.86396
1.87268
1.87877
1.88118
1.88332
1.88735
1.89284
1.89901
1.90582
1.91301
1.91982
1.9257
1.93038
1.93437
1.93815
1.94085
1.94166
1.94169
1.94212
1.94363
1.94677
1.95176
1.95744
1.96308
1.96436
1.96577
1.97026
1.97343
1.97503
1.97434
1.97132
1.96701
1.96208
1.9558
1.94788
1.94004
1.93295
1.92618
1.92031
1.91538
1.91011
1.90287
1.89385
1.88413
1.87412
1.8641
1.85447
1.84553
1.83685
1.82718
1.81626
1.805
1.79381
1.78278
1.7724
1.763
1.75439
1.74583
1.73645
1.7261
1.71563
1.70615
1.69815
1.69124
1.6857
1.6817
1.67811
1.67248
1.66443
1.65483
1.6463
1.63915
1.63303
1.62837
1.6269
1.62746
1.62774
1.62537
1.62343
1.62207
1.6207
1.62035
1.62053
1.62208
1.62614
1.63105
1.63556
1.64055
1.64592
1.65142
1.65792
1.66589
1.67465
1.68437
1.69536
1.70695
1.71841
1.72957
1.74135
1.75547
1.77155
1.78525
1.79374
1.80099
1.80826
1.81472
1.82129
1.82924
1.83934
1.8519
1.86504
1.87518
1.88515
1.89726
1.90868
1.91813
1.92798
1.9417
1.96157
1.98912
2.02178
2.05039
2.06842
2.07938
2.08225
2.08187
2.08072
2.07513
2.05996
2.03373
1.99778
1.95534
1.919
1.89686
1.88454
1.87738
1.87166
1.86517
1.85781
1.85081
1.84447
1.83952
1.83885
1.83909
1.8386
1.83549
1.83084
1.8282
1.82691
1.82543
1.82164
1.81773
1.81592
1.81475
1.81381
1.81325
1.81213
1.81023
1.80861
1.80915
1.81084
1.81167
1.80987
1.80241
1.78938
1.76989
1.74562
1.72273
1.70269
1.68521
1.66826
1.64781
1.62525
1.60647
1.6001
1.60063
2.17375
2.05924
1.95005
1.85413
1.77828
1.69996
1.62825
1.5842
1.54656
1.49823
1.4583
1.44743
1.42921
1.4177
1.42205
1.42962
1.43412
1.43933
1.45045
1.46395
1.47422
1.48088
1.48847
1.49577
1.50083
1.5
1.49699
1.49692
1.49872
1.49986
1.50179
1.50676
1.51458
1.52237
1.52728
1.53245
1.54039
1.55097
1.56927
1.6014
1.63839
1.65922
1.67517
1.68848
1.69673
1.70289
1.70922
1.71654
1.72561
1.73559
1.74611
1.75627
1.76441
1.77127
1.77748
1.78268
1.78756
1.792
1.79669
1.80281
1.81001
1.81788
1.82608
1.83403
1.84042
1.84447
1.84687
1.8499
1.85553
1.86265
1.86907
1.87436
1.87879
1.88261
1.88731
1.89295
1.8985
1.90316
1.9059
1.91069
1.91752
1.92392
1.92981
1.93514
1.93545
1.9342
1.93161
1.92857
1.92567
1.92198
1.91661
1.91028
1.90483
1.90033
1.89498
1.88864
1.882
1.87485
1.86688
1.85831
1.84944
1.84006
1.82946
1.8175
1.80484
1.792
1.77922
1.76699
1.75555
1.74461
1.73377
1.72272
1.7115
1.70068
1.6909
1.68241
1.67523
1.66931
1.66443
1.65962
1.65309
1.644
1.63495
1.62726
1.6204
1.61439
1.60922
1.60511
1.60244
1.60128
1.60002
1.59706
1.59492
1.59337
1.59206
1.59145
1.59137
1.59267
1.59686
1.60207
1.60674
1.61137
1.61599
1.62068
1.6261
1.6322
1.63834
1.64505
1.65301
1.66153
1.66979
1.67853
1.69019
1.7057
1.72295
1.73845
1.7486
1.75445
1.75932
1.76404
1.76894
1.77495
1.78313
1.79397
1.80649
1.81798
1.82739
1.83794
1.84855
1.85729
1.86577
1.87629
1.89092
1.91253
1.94447
1.98615
2.02625
2.05334
2.0669
2.0697
2.06914
2.06473
2.05283
2.03164
2.00046
1.96344
1.92803
1.90402
1.8912
1.8845
1.87939
1.87391
1.86749
1.86045
1.85341
1.84765
1.84615
1.84639
1.84759
1.84777
1.84621
1.84525
1.8454
1.84468
1.84175
1.83859
1.83662
1.835
1.83317
1.83084
1.82778
1.82387
1.82027
1.81953
1.822
1.82412
1.82083
1.81186
1.79888
1.78081
1.75756
1.73187
1.70853
1.68753
1.66484
1.64009
1.61416
1.59204
1.57811
1.5694
2.17404
2.08061
1.98883
1.90014
1.82694
1.75557
1.68712
1.63793
1.59482
1.54535
1.49922
1.47712
1.45292
1.42534
1.4176
1.4183
1.41214
1.40801
1.41231
1.42521
1.43546
1.44231
1.44792
1.45596
1.46336
1.4658
1.46848
1.4742
1.47652
1.47595
1.47543
1.47626
1.47823
1.48171
1.4838
1.4884
1.49632
1.50603
1.51954
1.54308
1.58172
1.6057
1.6195
1.62961
1.63635
1.64167
1.64675
1.65236
1.65941
1.66733
1.67637
1.68555
1.69208
1.69658
1.70052
1.70409
1.7078
1.71236
1.71751
1.72333
1.72965
1.73648
1.74386
1.75119
1.75681
1.76005
1.76264
1.76751
1.77547
1.78426
1.79212
1.79881
1.80463
1.80976
1.81519
1.8208
1.82664
1.83269
1.8383
1.8452
1.85338
1.86196
1.87051
1.87903
1.88451
1.88465
1.88365
1.88204
1.88113
1.88004
1.87789
1.87477
1.87162
1.86899
1.86589
1.86192
1.85716
1.85188
1.84595
1.83876
1.83005
1.81979
1.80787
1.79472
1.78113
1.76757
1.7544
1.74191
1.72981
1.71766
1.70555
1.69359
1.68193
1.67116
1.66172
1.65362
1.64685
1.64125
1.63606
1.63001
1.62189
1.61298
1.60526
1.59898
1.59392
1.58944
1.58519
1.58146
1.57841
1.57624
1.57408
1.57119
1.5688
1.56679
1.5652
1.56398
1.56357
1.56465
1.56806
1.57189
1.57523
1.57885
1.58246
1.58602
1.59
1.59441
1.59904
1.60429
1.61017
1.61619
1.62226
1.62963
1.63995
1.65266
1.66672
1.68073
1.69129
1.69686
1.70013
1.70305
1.70634
1.71074
1.71715
1.72596
1.73661
1.74772
1.75774
1.76739
1.77723
1.78611
1.79441
1.80354
1.81504
1.8316
1.85853
1.89977
1.95106
2.00158
2.03961
2.05307
2.05299
2.04642
2.03663
2.02103
1.99512
1.96415
1.93616
1.91316
1.8994
1.89185
1.88609
1.87979
1.87317
1.86627
1.8588
1.85315
1.85165
1.85174
1.85283
1.85453
1.85461
1.85472
1.85534
1.85441
1.8517
1.849
1.84642
1.84375
1.84089
1.83767
1.83408
1.83007
1.82609
1.82485
1.82742
1.82958
1.82503
1.8139
1.79963
1.78178
1.75903
1.73149
1.70322
1.67836
1.6553
1.63048
1.60423
1.58091
1.55941
1.54161
2.17796
2.09918
2.01672
1.94121
1.87465
1.80431
1.73799
1.6899
1.64479
1.59193
1.54857
1.51966
1.48814
1.4512
1.42678
1.42088
1.40731
1.39622
1.39879
1.40689
1.41253
1.41386
1.41598
1.4231
1.43267
1.43785
1.4432
1.45143
1.45889
1.46159
1.46336
1.46304
1.46055
1.45929
1.45959
1.46246
1.46927
1.47821
1.48888
1.50571
1.53508
1.56917
1.58364
1.59145
1.59652
1.60079
1.60464
1.60868
1.61341
1.6188
1.62524
1.63226
1.63711
1.63943
1.64099
1.64315
1.6466
1.65133
1.6566
1.66182
1.66705
1.67215
1.67683
1.68063
1.68281
1.68409
1.68716
1.69477
1.70474
1.71445
1.72307
1.73056
1.73627
1.7405
1.74358
1.74534
1.74878
1.75711
1.76659
1.77526
1.78409
1.79309
1.80224
1.81195
1.82037
1.82424
1.82511
1.82521
1.82538
1.825
1.82344
1.82134
1.81957
1.81883
1.81841
1.81759
1.81599
1.81372
1.80985
1.80322
1.7943
1.78404
1.77245
1.75986
1.74701
1.73413
1.72158
1.70973
1.69812
1.68615
1.67411
1.66232
1.65117
1.64116
1.63238
1.62465
1.61787
1.61197
1.60634
1.59962
1.59176
1.58444
1.57843
1.57408
1.57137
1.56853
1.5647
1.56108
1.55795
1.5553
1.55327
1.55155
1.54952
1.54756
1.54576
1.54384
1.54321
1.54396
1.54607
1.54787
1.5493
1.55124
1.55347
1.55534
1.55736
1.56009
1.56356
1.56779
1.5727
1.57798
1.58358
1.59026
1.59808
1.60656
1.61595
1.626
1.63441
1.6392
1.64183
1.64405
1.64655
1.64985
1.65445
1.66027
1.6671
1.6747
1.68266
1.69108
1.70023
1.70954
1.71859
1.72756
1.73768
1.75165
1.77366
1.80721
1.85348
1.90985
1.96823
2.01024
2.0222
2.0196
2.01053
1.99997
1.98321
1.96046
1.93753
1.917
1.90199
1.89332
1.88742
1.88081
1.87395
1.86762
1.86062
1.85488
1.85351
1.8537
1.85468
1.85616
1.85697
1.85733
1.85717
1.85557
1.85313
1.85156
1.84834
1.84437
1.84087
1.83808
1.83517
1.83117
1.82725
1.82585
1.82672
1.82708
1.82134
1.80854
1.79441
1.77717
1.75405
1.72473
1.6924
1.66306
1.63891
1.61643
1.59377
1.57127
1.54628
1.52294
2.1843
2.11592
2.04604
1.97566
1.91129
1.84838
1.78759
1.73841
1.6934
1.63912
1.5978
1.56694
1.53655
1.49595
1.46928
1.45372
1.43406
1.41135
1.40676
1.40646
1.3989
1.39251
1.39259
1.39669
1.40478
1.41458
1.42245
1.43133
1.43987
1.4434
1.44687
1.44929
1.4512
1.45066
1.45045
1.45262
1.45751
1.46359
1.47081
1.48086
1.50031
1.5327
1.5557
1.56512
1.57148
1.57646
1.57918
1.58126
1.58384
1.58745
1.59227
1.59737
1.59998
1.60016
1.60015
1.60109
1.6038
1.60759
1.61173
1.61611
1.62048
1.62408
1.62602
1.62632
1.6262
1.6267
1.63075
1.63914
1.64825
1.65697
1.66509
1.67202
1.67699
1.67935
1.67946
1.67953
1.68406
1.69335
1.7025
1.71135
1.7193
1.72636
1.73343
1.74145
1.75038
1.75686
1.76027
1.76252
1.76415
1.76399
1.76268
1.76128
1.7605
1.76048
1.76116
1.763
1.76381
1.76347
1.76115
1.75529
1.74702
1.7376
1.72714
1.71619
1.70547
1.69489
1.68461
1.67489
1.66477
1.65391
1.64279
1.63178
1.6216
1.61247
1.60428
1.59706
1.59088
1.58556
1.5801
1.57357
1.56694
1.56149
1.55773
1.55576
1.55434
1.55135
1.54734
1.54389
1.54149
1.53953
1.5388
1.53838