/*--------------------------------*- C++ -*----------------------------------*\
  =========                 |
  \\      /  F ield         | OpenFOAM: The Open Source CFD Toolbox
   \\    /   O peration     | Website:  https://openfoam.org
    \\  /    A nd           | Version:  7
     \\/     M anipulation  |
\*---------------------------------------------------------------------------*/
FoamFile
{
    version     2.0;
    format      ascii;
    class       volScalarField;
    location    "4";
    object      p;
}
// * * * * * * * * * * * * * * * * * * * * * * * * * * * * * * * * * * * * * //

dimensions      [1 -1 -2 0 0 0 0];

internalField   nonuniform List<scalar> 
4040
(
1
1
1
1
1
1
1
1
1
1
1
1
1
1.15806
7.07949
10.6122
10.776
11.0052
11.2145
11.4115
11.5943
11.7498
11.8737
11.9736
1
1
1
1
1
1
1
1
1
1
1
1
1
1.11806
6.91028
10.5767
10.7537
10.9744
11.1791
11.3697
11.5476
11.6929
11.7901
11.848
1
1
1
1
1
1
1
1
1
1
1
1
1
1.01097
6.51609
10.5111
10.6874
10.8964
11.0908
11.2612
11.4126
11.5264
11.6159
11.7158
1
1
1
1
1
1
1
1
1
1
1
1
1
1.00015
5.93517
10.3746
10.5829
10.7813
10.9691
11.1309
11.2717
11.3912
11.4466
11.7527
1
1
1
1
1
1
1
1
1
1
1
1
1
1
5.1763
10.1631
10.4665
10.6455
10.817
10.9561
11.0486
11.0981
10.877
10.6008
1
1
1
1
1
1
1
1
1
1
1
1
1
1
4.27233
9.83374
10.3333
10.4949
10.6408
10.7462
10.7889
10.7717
10.5425
10.4398
1
1
1
1
1
1
1
1
1
1
1
1
1
1
3.27477
9.32502
10.2394
10.3809
10.4849
10.5495
10.5455
10.4742
10.303
10.122
1
1
1
1
1
1
1
1
1
1
1
1
1
1
2.21783
8.5021
10.1498
10.2492
10.3287
10.3651
10.3171
10.2047
10.0556
9.90769
1
1
1
1
1
1
1
1
1
1
1
1
1
1
1.25184
7.4839
10.2416
10.1275
10.1303
10.1109
10.0323
9.89846
9.72101
9.45925
1
1
1
1
1
1
1
1
1
1
1
1
1
1
1.0079
5.98022
9.67501
9.74888
9.80929
9.79963
9.7216
9.56096
9.30913
8.85959
1
1
1
1
1
1
1
1
1
1
1
1
1
1
0.999941
4.09498
9.17113
9.61645
9.62815
9.58044
9.47074
9.2656
8.94638
8.40658
1
1
1
1
1
1
1
1
1
1
1
1
1
1
0.999985
2.25186
8.27935
9.535
9.48404
9.39103
9.23295
8.97831
8.59932
8.05619
1
1
1
1
1
1
1
1
1
1
1
1
1
1
0.999997
1.15109
6.63265
9.3859
9.2973
9.17482
8.98131
8.70779
8.31849
7.7691
1
1
1
1
1
1
1
1
1
1
1
1
1
1
1
1.00168
4.42929
8.86218
9.07242
8.94135
8.73692
8.45238
8.08634
7.519
1
1
1
1
1
1
1
1
1
1
1
1
1
1
1
0.999983
2.06578
7.95373
9.01843
8.76534
8.55615
8.26937
7.89526
7.36132
1
1
1
1
1
1
1
1
1
1
1
1
1
1
1
0.999996
1.09435
6.0555
8.70433
8.4764
8.34361
8.08065
7.71558
7.23702
1
1
1
1
1
1
1
1
1
1
1
1
1
1
1
0.999999
1.00049
3.23938
7.96847
8.37143
8.23988
7.98056
7.61174
7.15506
1
1
1
1
1
1
1
1
1
1
1
1
1
1
1
1
0.999997
1.33453
6.43033
8.38185
8.17564
7.88909
7.51871
7.08272
1
1
1
1
1
1
1
1
1
1
1
1
1
1
1
1
0.999999
1.00902
3.75946
7.79144
8.0304
7.75128
7.41088
7.0044
1
1
1
1
1
1
1
1
1
1
1
1
1
1
1
1
1
1
1.49289
6.36069
8.03299
7.6838
7.34589
6.96042
1
1
1
1
1
1
1
1
1
1
1
1
1
1
1
1
1
1
1.0193
3.70513
7.48945
7.55856
7.25208
6.91086
1
1
1
1
1
1
1
1
1
1
1
1
1
1
1
1
1
1
1.00007
1.48364
5.8967
7.56998
7.22297
6.91603
1
1
1
1
1
1
1
1
1
1
1
1
1
1
1
1
1
1
1
1.01857
2.99036
6.87122
7.19276
6.89302
1
1
1
1
1
1
1
1
1
1
1
1
1
1
1
1
1
1
1
1.00011
1.27964
4.99651
7.23139
6.91957
1
1
1
1
1
1
1
1
1
1
1
1
1
1
1
1
1
1
1
1
1.00703
2.19355
6.09251
6.91242
1
1
1
1
1
1
1
1
1
1
1
1
1
1
1
1
1
1
1
1
1.00004
1.10349
3.66722
6.55136
1
1
1
1
1
1
1
1
1
1
1
1
1
1
1
1
1
1
1
1
1
1.00157
1.50857
4.91423
1
1
1
1
1
1
1
1
1
1
1
1
1
1
1
1
1
1
1
1
1
1.00001
1.02206
2.26225
1
1
1
1
1
1
1
1
1
1
1
1
1
1
1
1
1
1
1
1
1
1
1.00021
1.11862
1
1
1
1
1
1
1
1
1
1
1
1
1
1
1
1
1
1
1
1
1
1
1
1.00228
1
1
1
1
1
1
1
1
1
1
1
1
1
1
1
1
1
1
1
1
1
1
1
1.00001
1
1
1
1
1
1
1
1
1
1
1
1
1
1
1
1
1
1
1
1
1
1
1
1
1
1
1
1
1
1
1
1
1
1
1
1
1
1
1
1
1
1
1
1
1
1
1
1
1
1
1
1
1
1
1
1
1
1
1
1
1
1
1
1
1
1
1
1
1
1
1
1
1
1
1
1
1
1
1
1
1
1
1
1
1
1
1
1
1
1
1
1
1
1
1
1
1
1
1
1
1
1
1
1
1
1
1
1
1
1
1
1
1
1
1
1
1
1
1
1
1
1
1
1
1
1
1
1
1
1
1
1
1
1
1
1
1
1
1
1
1
1
1
1
1
1
1
1
1
1
1
1
1
1
1
1
1
1
1
1
1
1
1
1
1
1
1
1
1
1
1
1
1
1
1
1
1
1
1
1
1
1
1
1
1
1
1
1
1
1
1
1
1
1
1
1
1
1
1
1
1
1
1
1
1
1
1
1
1
1
1
1
1
1
1
1
9.31867
9.90398
10.2421
10.6977
10.0053
10.2301
9.89298
10.2776
8.76559
6.96205
8.05282
6.15254
7.54857
5.855
7.1382
5.7623
6.8962
5.82344
6.75522
5.89257
6.70394
5.96569
6.66281
6.01576
6.6282
6.0599
6.59355
6.08881
6.56201
6.10604
6.56102
6.14063
6.55012
6.1637
6.57579
6.20989
6.57473
6.23655
6.60349
6.27336
6.58543
6.27696
6.62167
6.34295
6.59471
6.40139
5.62206
6.39726
3.22792
5.89342
1.36542
4.10874
1.01351
1.788
1.00012
1.05219
1
1.0008
1
1
1
1
1
1
1
1
1
1
1
1
1
1
1.76047
0.594133
0.249343
0.226823
0.256169
0.378807
0.525402
0.654446
0.814678
0.959221
1.05212
1.06586
1.1066
1.17489
1.23784
1.29026
1.30216
1.30464
1.31675
1.32784
1.31708
1.30325
1.30243
1.31165
1.32784
1.34457
1.35065
1.35075
1.34546
3.86311
5.72269
5.8694
5.94146
5.96896
5.9307
5.86492
5.79435
5.73944
5.70334
5.66953
5.62275
5.56553
5.5067
5.45326
5.39966
5.32742
5.2264
5.11583
5.02332
4.95833
4.91894
4.89505
4.85026
4.75553
4.63871
4.53167
4.45037
4.39864
4.35492
4.29189
4.21581
4.13822
4.06569
4.00376
3.95099
3.89304
3.82947
3.7651
3.70091
3.63985
3.58513
3.5343
3.47779
3.42051
3.36125
3.29854
3.23086
3.16179
3.09999
3.04971
3.00793
2.97462
2.9543
2.92941
2.88941
2.83477
2.75424
2.67747
2.62727
2.59218
2.56437
2.5479
2.53429
2.47858
2.8121
1.62149
1.13058
0.809375
0.651882
0.660572
0.663736
0.643419
0.647292
0.691392
0.779668
0.861335
0.938801
1.01751
1.09408
1.16219
1.21293
1.24264
1.26203
1.28346
1.29627
1.29125
1.28907
1.29766
1.30999
1.33114
1.34992
1.35066
1.34434
3.68183
5.76464
5.9431
5.98377
5.98029
5.93459
5.85009
5.76051
5.69205
5.66188
5.65902
5.62326
5.53102
5.42838
5.34442
5.29683
5.27443
5.25438
5.18932
5.07659
4.95488
4.84586
4.76462
4.72883
4.70452
4.66133
4.58525
4.49586
4.40364
4.31849
4.24717
4.19307
4.14491
4.09221
4.02508
3.94782
3.868
3.79347
3.73236
3.68262
3.63795
3.58861
3.53167
3.4722
3.41027
3.34966
3.29301
3.23848
3.18499
3.12908
3.07111
3.01642
2.97207
2.93331
2.89569
2.86369
2.8238
2.7719
2.7159
2.6581
2.60673
2.56767
2.53651
2.50998
2.46105
3.71015
2.46397
1.8022
1.42276
1.12936
0.906002
0.828712
0.75914
0.678186
0.666745
0.718397
0.807726
0.874267
0.92801
0.985823
1.04498
1.12082
1.18297
1.2278
1.26862
1.30461
1.30794
1.31727
1.33265
1.34049
1.34722
1.34651
1.33744
1.33205
3.23419
5.93492
6.10945
5.98716
5.96381
5.94772
5.88488
5.78557
5.69485
5.63991
5.64159
5.67279
5.62546
5.5018
5.35339
5.23635
5.16369
5.16211
5.194
5.16709
5.0694
4.9328
4.7674
4.65114
4.59078
4.58541
4.59121
4.54602
4.46616
4.35858
4.23953
4.15914
4.10751
4.08129
4.04596
3.98207
3.90523
3.8107
3.71849
3.65729
3.61456
3.58287
3.53667
3.48321
3.41796
3.3356
3.25825
3.21144
3.17766
3.14777
3.11043
3.06204
2.99493
2.91665
2.85605
2.81009
2.77441
2.75522
2.73192
2.69901
2.65517
2.59379
2.52653
2.47981
2.42491
4.24927
3.23441
2.43875
1.94803
1.65898
1.32132
1.12514
1.05527
0.963727
0.865567
0.81927
0.810117
0.806891
0.822501
0.853839
0.904057
0.985814
1.06672
1.11893
1.16057
1.20998
1.24682
1.27887
1.32014
1.35266
1.36097
1.35468
1.33826
1.36346
2.65879
6.07561
6.52491
6.08156
5.93267
5.89871
5.89592
5.81134
5.69711
5.59902
5.54052
5.54309
5.55602
5.5018
5.40598
5.27031
5.16252
5.102
5.0844
5.08074
5.02822
4.94921
4.84331
4.70388
4.59931
4.54307
4.51805
4.49399
4.44061
4.37618
4.29111
4.17943
4.09114
4.03615
3.99244
3.94788
3.89039
3.82535
3.74605
3.65563
3.59043
3.54618
3.50742
3.46536
3.41878
3.36188
3.28966
3.21303
3.16183
3.12944
3.09955
3.06313
3.01176
2.93659
2.84975
2.78883
2.75651
2.73376
2.71793
2.69852
2.66953
2.6261
2.54894
2.46286
2.39543
4.6647
3.79981
3.04953
2.4443
2.11427
1.80022
1.46065
1.31104
1.20209
1.0911
0.992046
0.923826
0.870477
0.829898
0.836129
0.845447
0.874406
0.928697
0.979315
1.02906
1.09245
1.16127
1.20693
1.24868
1.29446
1.30515
1.31014
1.35402
1.57651
2.36555
5.54787
6.90705
6.30661
5.94011
5.78563
5.7968
5.8018
5.73815
5.63579
5.53173
5.47109
5.44408
5.43598
5.39121
5.31666
5.2098
5.10309
5.02742
4.97339
4.93971
4.89203
4.8332
4.75372
4.6443
4.54766
4.48798
4.44201
4.40198
4.35385
4.29935
4.22481
4.12193
4.02156
3.95894
3.90919
3.86104
3.81281
3.76052
3.6917
3.60426
3.52677
3.47234
3.42722
3.38616
3.34745
3.30487
3.24879
3.1819
3.12018
3.0691
3.02227
2.97311
2.9185
2.8608
2.80557
2.76077
2.73152
2.70595
2.67864
2.64631
2.60565
2.54861
2.48556
2.40548
4.96431
4.1867
3.52737
2.93489
2.50097
2.18928
1.85882
1.6263
1.4582
1.3275
1.22771
1.12563
1.05409
0.978709
0.937101
0.902527
0.890998
0.888381
0.893405
0.907986
0.942775
1.01409
1.08678
1.14429
1.21326
1.23206
1.27593
1.53778
2.21969
2.64895
4.0818
6.13334
6.35454
6.05435
5.80891
5.70522
5.72979
5.7293
5.66986
5.55585
5.44598
5.38966
5.36423
5.36445
5.32369
5.24715
5.12831
4.99906
4.92398
4.87438
4.84618
4.81023
4.75937
4.68398
4.56897
4.46342
4.40522
4.35887
4.31768
4.27036
4.21575
4.13788
4.02962
3.9352
3.87996
3.83605
3.79255
3.74601
3.68989
3.61169
3.52077
3.45424
3.41056
3.37472
3.342
3.30706
3.26041
3.18726
3.10464
3.04395
2.99731
2.95564
2.91812
2.88035
2.83253
2.77344
2.72428
2.68694
2.6501
2.61052
2.57077
2.53226
2.5
2.43334
5.2034
4.50665
3.88079
3.33808
2.87716
2.52237
2.21433
1.95099
1.7367
1.56364
1.45043
1.34786
1.23569
1.13918
1.05399
0.988538
0.930267
0.90712
0.905664
0.906319
0.913895
0.928326
0.956598
0.996241
1.05441
1.13187
1.36538
2.03168
2.72102
2.93376
3.24947
4.3896
5.74817
6.04337
5.85754
5.71464
5.67636
5.70629
5.6628
5.58262
5.43878
5.33772
5.29009
5.28721
5.28792
5.23371
5.15216
5.02264
4.90005
4.83764
4.80022
4.78102
4.74284
4.68618
4.60031
4.47698
4.37845
4.32301
4.27769
4.23681
4.18812
4.12899
4.04675
3.9435
3.86024
3.80765
3.76297
3.71734
3.66645
3.60404
3.52646
3.45308
3.40678
3.37163
3.33845
3.30176
3.24938
3.15987
3.06245
3.00923
2.97786
2.9515
2.92721
2.89746
2.85544
2.78182
2.69659
2.64215
2.60458
2.57258
2.54682
2.52569
2.50786
2.45451
5.36506
4.73057
4.15091
3.66708
3.22027
2.81621
2.51207
2.24997
2.02599
1.81872
1.66397
1.54822
1.42656
1.33061
1.24108
1.15427
1.07077
1.0186
0.992405
0.965455
0.94851
0.934987
0.918565
0.922623
0.943965
1.13286
1.78754
2.39605
2.65915
2.86106
2.96022
3.22765
4.16918
5.42797
5.74224
5.71382
5.65151
5.6771
5.63447
5.56867
5.46142
5.31707
5.23676
5.20224
5.20395
5.1796
5.12704
5.04826
4.92304
4.8112
4.75385
4.71861
4.6966
4.64788
4.58823
4.50084
4.38042
4.28937
4.2384
4.19705
4.15015
4.09934
4.04039
3.96077
3.85825
3.77678
3.7236
3.67805
3.63302
3.5865
3.5346
3.47248
3.41561
3.37667
3.33742
3.28814
3.2228
3.13377
3.04613
2.99744
2.97081
2.95234
2.93501
2.91008
2.86898
2.78801
2.67734
2.60623
2.57294
2.54992
2.53261
2.52172
2.51121
2.463
5.4771
4.902
4.38818
3.91719
3.47708
3.10226
2.79826
2.50891
2.25481
2.06343
1.90147
1.74694
1.605
1.50159
1.40527
1.30929
1.22596
1.1669
1.10868
1.05202
0.998845
0.955138
0.930672
0.944495
1.0987
1.63211
2.2888
2.37577
2.43769
2.54988
2.64674
2.73142
2.94442
3.74929
5.00081
5.51086
5.62856
5.65389
5.59654
5.51165
5.4487
5.35658
5.23347
5.15476
5.11091
5.09433
5.0704
5.02027
4.94902
4.83216
4.71668
4.65355
4.60644
4.57755
4.54384
4.48854
4.41018
4.29966
4.19933
4.13744
4.09162
4.05681
4.01309
3.95484
3.87048
3.76928
3.69628
3.64951
3.61048
3.57398
3.5348
3.4846
3.41707
3.34307
3.28003
3.22599
3.16968
3.11296
3.06585
3.0194
2.97591
2.94765
2.92094
2.87971
2.82868
2.76369
2.68015
2.61274
2.57767
2.55682
2.54482
2.53815
2.51888
2.45679
5.5578
5.04062
4.57597
4.12787
3.69676
3.35234
3.03983
2.75603
2.48854
2.2875
2.10318
1.93902
1.78784
1.67674
1.569
1.46142
1.36141
1.30565
1.24409
1.18138
1.11
1.04791
1.05177
1.18727
1.65409
2.27591
2.51837
2.47958
2.39819
2.36412
2.37683
2.41041
2.46261
2.6191
3.27546
4.47339
5.27987
5.47159
5.45834
5.43124
5.40597
5.36389
5.2915
5.1685
5.05455
4.99928
4.96076
4.95156
4.91331
4.84633
4.72933
4.60415
4.5433
4.50047
4.47113
4.44311
4.39436
4.31743
4.19691
4.10196
4.04937
4.00392
3.95844
3.91419
3.86455
3.79164
3.70532
3.64105
3.59827
3.55884
3.51739
3.46895
3.39753
3.30481
3.23248
3.17979
3.1396
3.11133
3.08106
3.04007
2.9875
2.93056
2.87604
2.82681
2.77773
2.72677
2.68521
2.6471
2.60721
2.5763
2.5507
2.51164
2.47023
2.39957
5.62302
5.16784
4.73717
4.3059
3.91505
3.58039
3.26563
2.9634
2.7169
2.50106
2.30103
2.12679
1.97103
1.83838
1.72123
1.61657
1.52086
1.44562
1.37254
1.28336
1.21745
1.20156
1.33813
1.79308
2.40777
2.66372
2.63087
2.55927
2.46019
2.38429
2.36559
2.36818
2.40009
2.42236
2.47576
2.83976
3.74703
4.75808
5.12305
5.23301
5.33088
5.34526
5.30405
5.22136
5.06224
4.92907
4.88056
4.85506
4.85544
4.81663
4.74454
4.61712
4.4961
4.44103
4.4063
4.38623
4.34937
4.29786
4.21525
4.09954
4.0106
3.95898
3.9166
3.87624
3.8356
3.79004
3.72455
3.64469
3.58374
3.54035
3.49819
3.44648
3.3692
3.26479
3.188
3.15237
3.12718
3.11165
3.0872
3.05065
2.98688
2.89076
2.82188
2.77921
2.7427
2.71794
2.69889
2.6734
2.63512
2.57914
2.51844
2.46902
2.42861
2.36818
5.69805
5.28271
4.87318
4.45952
4.10581
3.77554
3.45725
3.1552
2.92269
2.69489
2.49194
2.29447
2.15151
2.00677
1.87626
1.75902
1.66322
1.57818
1.48818
1.40017
1.40847
1.57843
2.08411
2.62078
2.84729
2.80932
2.75001
2.70192
2.64244
2.55158
2.45833
2.41771
2.39989
2.39347
2.40363
2.395
2.49931
3.00314
3.97809
4.71596
5.02332
5.23784
5.28395
5.21336
5.09142
4.9114
4.8221
4.78455
4.7801
4.76579
4.71545
4.63697
4.50972
4.40945
4.36173
4.32614
4.29245
4.25091
4.20002
4.11653
4.00669
3.92706
3.88105
3.84206
3.80386
3.76396
3.7137
3.64016
3.562
3.50833
3.4649
3.41515
3.34476
3.24686
3.172
3.14027
3.12748
3.12236
3.0946
3.05462
2.98064
2.86596
2.78258
2.74867
2.72858
2.7177
2.70375
2.67922
2.64151
2.5689
2.48361
2.42927
2.39568
2.35193
5.76535
5.3759
4.98099
4.60587
4.27174
3.94668
3.61775
3.34723
3.1082
2.87864
2.65519
2.47197
2.32072
2.16451
2.03086
1.90095
1.80535
1.70431
1.59913
1.6222
1.88231
2.50648
2.98083
3.09288
3.03002
2.95641
2.91836
2.88276
2.8252
2.74383
2.61431
2.51572
2.46984
2.43001
2.39764
2.37274
2.3607
2.3628
2.55689
3.24123
4.14338
4.8042
5.06473
5.12924
5.07085
4.93314
4.80223
4.74216
4.72155
4.70629
4.66463
4.61229
4.5305
4.41389
4.33227
4.28594
4.24101
4.19692
4.15234
4.09818
4.01938
3.92769
3.85821
3.81012
3.76734
3.72375
3.67421
3.60802
3.52595
3.46111
3.41674
3.37336
3.3241
3.27244
3.21411
3.14641
3.09501
3.06129
3.03442
3.00189
2.95106
2.86101
2.77494
2.73777
2.71956
2.71522
2.7066
2.67855
2.63584
2.55419
2.45438
2.39623
2.37497
2.34317
5.83686
5.46564
5.08359
4.73536
4.4143
4.0913
3.7712
3.51959
3.27484
3.0453
2.8127
2.64592
2.47741
2.32659
2.17356
2.04071
1.93001
1.82564
1.87188
2.20595
2.9678
3.47392
3.43849
3.32329
3.20079
3.13589
3.1121
3.06935
3.00111
2.92152
2.80388
2.67089
2.59883
2.54478
2.49105
2.43785
2.38921
2.34916
2.30488
2.33146
2.66919
3.45046
4.25538
4.77259
4.88268
4.91027
4.80342
4.7195
4.6821
4.64638
4.61093
4.56805
4.50842
4.41429
4.30759
4.2447
4.20117
4.15743
4.11061
4.06018
4.00075
3.92371
3.84408
3.78525
3.73823
3.69105
3.63843
3.57419
3.49114
3.40794
3.35719
3.32699
3.30395
3.2811
3.24332
3.17336
3.08203
3.01793
2.9774
2.94015
2.89846
2.85491
2.80912
2.75426
2.70327
2.67351
2.65203
2.6263
2.59029
2.53047
2.44313
2.38341
2.36352
2.33202
5.88611
5.52746
5.17255
4.84673
4.53315
4.21199
3.9239
3.6754
3.43403
3.18584
2.97744
2.80802
2.6334
2.47241
2.29614
2.17761
2.07071
2.14299
2.57063
3.28327
3.87775
3.86441
3.71598
3.54882
3.39701
3.32031
3.27989
3.23189
3.1609
3.08061
2.97911
2.84572
2.73002
2.66825
2.61391
2.55826
2.49662
2.42652
2.35238
2.26821
2.23882
2.32762
2.77292
3.56305
4.26869
4.61982
4.68513
4.69132
4.63805
4.58914
4.55693
4.51535
4.46653
4.38818
4.27033
4.18849
4.15218
4.11775
4.07985
4.03616
3.9807
3.90203
3.80738
3.7383
3.69356
3.65278
3.60949
3.55668
3.47947
3.37596
3.31276
3.28946
3.27423
3.25729
3.22916
3.18479
3.10064
2.99431
2.92348
2.88298
2.85643
2.83731
2.81393
2.77423
2.70714
2.64085
2.5997
2.57182
2.53956
2.50015
2.45403
2.40081
2.3581
2.31138
5.93742
5.59312
5.26095
4.95044
4.64654
4.33959
4.07531
3.82324
3.58047
3.32873
3.14164
2.95417
2.78285
2.58491
2.43695
2.36085
2.51678
3.11558
3.74294
4.1462
4.1859
4.06194
3.93811
3.80611
3.64178
3.51836
3.44745
3.37931
3.30382
3.22155
3.12917
3.02037
2.89938
2.80084
2.72726
2.66299
2.59852
2.52902
2.4478
2.35877
2.26013
2.2264
2.23071
2.37398
2.88615
3.62209
4.22363
4.45065
4.50297
4.52981
4.50235
4.45798
4.42177
4.35573
4.24012
4.12716
4.08662
4.05989
4.03809
4.00728
3.96318
3.8893
3.76734
3.66284
3.61937
3.59046
3.56249
3.52959
3.48226
3.40549
3.30384
3.24307
3.21927
3.20605
3.18979
3.16042
3.10131
2.99429
2.88529
2.84365
2.82599
2.81104
2.79272
2.76585
2.71603
2.63045
2.55607
2.51614
2.49162
2.47126
2.4517
2.41536
2.35582
2.2881
5.96025
5.64478
5.3439
5.04435
4.73895
4.45795
4.20978
3.96088
3.70357
3.47596
3.27963
3.09142
2.89529
2.70486
2.67856
2.95348
3.77398
4.4864
4.55788
4.47864
4.31645
4.21144
4.15078
4.04976
3.90601
3.73378
3.61479
3.52416
3.43543
3.34697
3.25653
3.15999
3.05118
2.94043
2.8483
2.76716
2.68948
2.61706
2.54547
2.46698
2.37832
2.28608
2.21016
2.18508
2.21218
2.40929
2.92809
3.57612
4.09824
4.28092
4.35479
4.40985
4.37808
4.31735
4.22828
4.09041
4.01407
3.98749
3.97447
3.95455
3.92126
3.86727
3.75402
3.61261
3.55435
3.53011
3.50919
3.48861
3.46264
3.42529
3.34807
3.23994
3.16907
3.13169
3.10536
3.08172
3.05131
2.99766
2.91259
2.82874
2.79299
2.77669
2.76457
2.74395
2.70547
2.63338
2.5375
2.47783
2.45407
2.44063
2.42771
2.40628
2.36526
2.28794
6.03359
5.73249
5.43994
5.14591
4.84884
4.58384
4.32907
4.08171
3.82847
3.61757
3.40362
3.21418
3.01558
3.05725
3.5236
4.33092
5.10402
5.17605
4.95378
4.67007
4.47843
4.3896
4.34837
4.26318
4.13845
3.97154
3.79327
3.67479
3.57526
3.47969
3.38672
3.29289
3.18855
3.06846
2.95471
2.86446
2.7871
2.71214
2.64027
2.56852
2.48733
2.38588
2.286
2.20713
2.15266
2.13772
2.17769
2.39918
2.9057
3.50801
3.9324
4.14973
4.25235
4.26564
4.204
4.09297
3.96733
3.91124
3.89202
3.87872
3.85308
3.81636
3.7437
3.61203
3.51163
3.47722
3.45348
3.43298
3.41122
3.39027
3.35396
3.2651
3.14051
3.06966
3.03483
3.00792
2.98347
2.95869
2.92363
2.86311
2.78889
2.73653
2.70479
2.68086
2.65631
2.61876
2.5562
2.48354
2.43547
2.40889
2.38889
2.36977
2.34807
2.29475
6.09069
5.80087
5.51419
5.21973
4.94126
4.68754
4.43418
4.1759
3.95036
3.72149
3.53241
3.36842
3.50309
4.24686
5.03791
5.42613
5.56111
5.42225
5.19657
4.93111
4.70596
4.59605
4.5281
4.44003
4.3164
4.16502
3.97566
3.82172
3.71231
3.61274
3.51519
3.41702
3.31213
3.19121
3.05746
2.94305
2.85992
2.79172
2.72575
2.65771
2.58368
2.4958
2.39527
2.29406
2.20979
2.13769
2.10431
2.09004
2.1316
2.36415
2.86162
3.39495
3.82614
4.04877
4.08514
4.07605
3.97251
3.85661
3.81779
3.79245
3.77398
3.75083
3.70269
3.62157
3.52057
3.44915
3.41181
3.38809
3.37171
3.35196
3.32123
3.25409
3.15062
3.0438
2.97897
2.94771
2.92907
2.91308
2.89436
2.86235
2.80029
2.71346
2.65769
2.62722
2.60247
2.57865
2.54998
2.49966
2.42418
2.37475
2.35384
2.33854
2.32542
2.31163
6.15173
5.85917
5.57615
5.29475
5.03539
4.79034
4.52709
4.28299
4.05213
3.8507
3.78221
4.10909
5.07085
5.98699
6.03243
5.91683
5.75774
5.61034
5.44897
5.2339
4.97837
4.81644
4.70889
4.60585
4.47914
4.33417
4.15991
3.98282
3.84788
3.73864
3.63559
3.53224
3.42599
3.31127
3.18332
3.05421
2.94459
2.85866
2.78407
2.71151
2.63811
2.56248
2.48151
2.39496
2.30916
2.22434
2.14483
2.08019
2.05287
2.02833
2.07741
2.3207
2.81162
3.34025
3.69512
3.89806
3.90783
3.85713
3.78655
3.72642
3.66152
3.62821
3.61866
3.58665
3.52395
3.47163
3.41633
3.34979
3.27716
3.22051
3.19527
3.1785
3.13197
3.06432
2.99224
2.92227
2.88465
2.86694
2.85427
2.83796
2.79182
2.70353
2.62034
2.57799
2.55589
2.54051
2.52431
2.49416
2.43975
2.37228
2.32382
2.30892
2.30691
2.38687
6.21655
5.96042
5.64657
5.37738
5.13572
4.89063
4.61122
4.39376
4.17608
4.26846
4.85354
5.90624
6.7285
6.70134
6.35271
6.1062
5.93441
5.83054
5.69812
5.49606
5.23612
5.03111
4.8933
4.77026
4.63942
4.49399
4.32865
4.14676
3.98307
3.85182
3.7371
3.62757
3.51867
3.40855
3.29309
3.17018
3.04981
2.94538
2.85424
2.76928
2.68826
2.61117
2.53739
2.4617
2.37996
2.29509
2.21359
2.138
2.06563
2.00754
1.98005
1.95974
2.02528
2.31236
2.76894
3.29883
3.63076
3.72385
3.73877
3.71601
3.63133
3.55103
3.49876
3.48248
3.4858
3.46106
3.41212
3.32538
3.23088
3.15859
3.10104
3.06826
3.06259
3.04926
2.99903
2.93012
2.87401
2.83735
2.80615
2.76762
2.72331
2.67018
2.60724
2.55308
2.51648
2.49601
2.48009
2.46197
2.4351
2.38467
2.32736
2.32747
2.38188
2.75088
5.98841
6.03874
5.75551
5.46543
5.24218
4.95246
4.72883
4.57521
4.86727
5.86341
6.76994
7.29409
7.37329
7.05595
6.62539
6.31063
6.1501
6.05356
5.92066
5.71467
5.45599
5.23551
5.08378
4.94505
4.8032
4.65202
4.48624
4.3021
4.12052
3.97083
3.84548
3.72937
3.61573
3.50299
3.38827
3.2674
3.14229
3.02698
2.92891
2.84091
2.75736
2.67548
2.59508
2.51332
2.43117
2.34623
2.26772
2.19466
2.12589
2.05631
1.99196
1.94023
1.90399
1.89912
1.98494
2.27002
2.76877
3.18842
3.52313
3.62513
3.60876
3.54417
3.46895
3.40226
3.36686
3.34626
3.32407
3.29072
3.22375
3.14239
3.07396
3.02065
2.97795
2.95321
2.94318
2.92159
2.87405
2.81241
2.75773
2.71135
2.67515
2.63405
2.5803
2.53574
2.5108
2.48517
2.45872
2.43889
2.43545
2.41847
2.44355
2.56859
2.85675
3.37384
4.69806
5.92687
5.84223
5.5954
5.30923
5.04018
5.06504
5.68606
7.05487
7.94205
7.85294
7.69067
7.54004
7.25885
6.92086
6.60942
6.42786
6.29138
6.13799
5.92863
5.66832
5.42845
5.2587
5.11138
4.96218
4.80346
4.63011
4.43882
4.24663
4.08532
3.95375
3.83518
3.71924
3.60102
3.47627
3.34455
3.21071
3.08686
2.98498
2.89932
2.81903
2.73706
2.6528
2.5636
2.47343
2.38455
2.30771
2.23787
2.17505
2.11138
2.04716
1.98185
1.91961
1.87138
1.82391
1.82696
1.94519
2.25471
2.71852
3.11609
3.43692
3.48429
3.46041
3.39434
3.32662
3.26659
3.21777
3.19748
3.18383
3.15638
3.09671
3.01116
2.94721
2.90133
2.86555
2.83901
2.81699
2.78192
2.72609
2.67012
2.62972
2.60662
2.575
2.52256
2.46379
2.43565
2.43382
2.43557
2.49371
2.64852
2.90895
3.27
3.63163
3.78507
2.29202
5.02953
5.82369
5.68219
5.37017
5.65825
6.84473
8.07098
8.90824
8.78159
8.3183
7.87633
7.63598
7.44627
7.18101
6.91242
6.7197
6.54129
6.36438
6.15126
5.89018
5.63103
5.4297
5.26133
5.10077
4.93595
4.75798
4.56289
4.36313
4.19065
4.05132
3.92908
3.81142
3.69108
3.56186
3.4233
3.2821
3.15072
3.04313
2.95364
2.87227
2.78918
2.70215
2.60899
2.51374
2.42294
2.34654
2.28184
2.22059
2.15967
2.09304
2.02228
1.94867
1.88258
1.81841
1.78988
1.77035
1.78668
1.91442
2.2378
2.72715
3.0781
3.29567
3.34332
3.31259
3.22231
3.14497
3.11718
3.09234
3.07327
3.05066
3.01022
2.94461
2.88055
2.83354
2.79884
2.76123
2.71448
2.67201
2.64626
2.61629
2.56254
2.50437
2.46626
2.43304
2.42681
2.45978
2.60594
2.93283
3.32917
3.66872
3.92921
3.93745
3.84685
1.1312
2.8011
5.28701
5.5818
6.48464
8.371
9.41489
9.49605
9.36308
8.99478
8.53353
8.08555
7.835
7.67174
7.44388
7.19298
6.9821
6.76059
6.55106
6.33468
6.08358
5.81942
5.59459
5.40502
5.22793
5.05346
4.87245
4.6787
4.47969
4.30083
4.1532
4.02666
3.907
3.78588
3.65417
3.51005
3.37213
3.258
3.15533
3.06558
2.98392
2.90137
2.81244
2.71674
2.61692
2.51896
2.43445
2.36568
2.30241
2.24037
2.17265
2.10276
2.02917
1.95887
1.89061
1.83439
1.77047
1.71909
1.70249
1.75042
1.92577
2.2943
2.68154
3.05293
3.16314
3.15057
3.1154
3.06951
3.02879
2.98313
2.9386
2.90448
2.86974
2.82152
2.7704
2.73774
2.7127
2.69075
2.66454
2.61741
2.55915
2.50323
2.47578
2.45622
2.47328
2.5775
2.8488
3.28017
3.68331
3.9874
4.06234
4.01113
3.92152
3.85831
1.0029
1.26385
3.11823
5.94978
10.0075
10.8412
10.3301
9.91623
9.51079
9.16877
8.81849
8.43574
8.13938
7.95273
7.72672
7.44466
7.19951
6.95494
6.70932
6.47887
6.24042
5.99007
5.75406
5.54634
5.3527
5.16174
4.96699
4.76815
4.57421
4.39813
4.24374
4.10714
3.97547
3.84189
3.70341
3.55837
3.4076
3.26651
3.15289
3.06053
2.9772
2.89412
2.80611
2.70734
2.59974
2.49006
2.3928
2.31878
2.26157
2.21284
2.1588
2.09662
2.0235
1.95021
1.87892
1.8163
1.76565
1.71803
1.6853
1.64672
1.63757
1.71008
1.90187
2.27466
2.64639
2.97366
3.0678
3.06349
3.02014
2.94999
2.88629
2.84439
2.79356
2.73754
2.70842
2.68156
2.65095
2.62209
2.58681
2.5382
2.48736
2.48148
2.49452
2.59172
2.84382
3.25138
3.66942
3.99121
4.09011
4.10332
4.07771
4.01623
3.95469
3.92214
1.00002
1.00766
1.5177
8.05025
12.5809
11.4949
10.5942
10.0219
9.55623
9.30324
9.01708
8.66199
8.41991
8.27089
8.03975
7.72274
7.44678
7.2033
6.95495
6.72068
6.48412
6.23321
5.98379
5.75656
5.54755
5.34691
5.14824
4.9493
4.75307
4.56838
4.40152
4.24614
4.1036
3.96615
3.82924
3.68171
3.51764
3.34636
3.20596
3.0987
3.01152
2.93331
2.85587
2.76508
2.65006
2.52655
2.41733
2.33385
2.27138
2.22504
2.18229
2.13482
2.07148
1.98993
1.90954
1.84144
1.78667
1.74086
1.69932
1.64758
1.61209
1.5764
1.58494
1.66827
1.90667
2.32342
2.65523
2.9005
2.95966
2.95408
2.92144
2.85058
2.75843
2.68997
2.65714
2.63086
2.59329
2.55884
2.52577
2.50269
2.502
2.57013
2.81082
3.2541
3.73061
4.0514
4.16391
4.14112
4.12473
4.1238
4.11644
4.08375
4.0616
4.01278
1
1.00009
1.74856
9.16003
11.7463
10.8223
10.3242
9.99307
9.69829
9.46469
9.20634
8.93021
8.70656
8.51986
8.23319
7.86802
7.53423
7.28831
7.03428
6.78424
6.54424
6.28816
6.02605
5.78565
5.56784
5.36164
5.15992
4.95904
4.75897
4.56765
4.39365
4.23783
4.09198
3.9491
3.80549
3.65835
3.51018
3.37127
3.24442
3.13015
3.02601
2.92795
2.83286
2.73791
2.63786
2.53826
2.45247
2.37852
2.30609
2.23517
2.16606
2.1
2.03713
1.9738
1.91236
1.85447
1.79678
1.74052
1.69281
1.64961
1.61074
1.5702
1.54278
1.51298
1.53353
1.68139
2.00015
2.39654
2.6162
2.79574
2.82584
2.7723
2.71257
2.67952
2.63422
2.59044
2.55347
2.54041
2.52392
2.56023
2.76248
3.18881
3.69921
4.08568
4.27316
4.31115
4.27312
4.19468
4.1411
4.12046
4.10488
4.08511
4.06675
4.02161
1
1
2.57625
9.32574
10.9702
10.6463
10.4325
10.2084
9.95167
9.68768
9.40488
9.12143
8.86154
8.6025
8.29975
7.96607
7.65391
7.41377
7.17805
6.91329
6.65166
6.38681
6.11962
5.87228
5.64996
5.44085
5.23565
5.0312
4.8282
4.63291
4.45161
4.28567
4.13213
3.98569
3.84158
3.69736
3.55735
3.42369
3.29446
3.17025
3.05188
2.94186
2.83986
2.74367
2.65338
2.57185
2.49482
2.41624
2.33213
2.24427
2.16114
2.09068
2.02982
1.97274
1.92004
1.86742
1.81013
1.74817
1.69386
1.65582
1.62339
1.58854
1.54302
1.50367
1.46155
1.46189
1.51212
1.71408
2.07823
2.4985
2.60808
2.6166
2.62881
2.6297
2.58636
2.56373
2.54702
2.57696
2.72635
3.08819
3.63515
4.04472
4.28981
4.39528
4.41219
4.3933
4.3087
4.16941
4.11795
4.10227
4.09897
4.0947
4.08437
4.0301
1
1
2.73812
9.31395
10.6118
10.5221
10.3967
10.1885
9.94976
9.70424
9.4523
9.20645
8.97635
8.71854
8.41911
8.09999
7.80874
7.55515
7.31024
7.03265
6.74147
6.45594
6.18897
5.94204
5.71901
5.50842
5.29367
5.0716
4.85361
4.65256
4.47095
4.30574
4.15365
4.00828
3.86201
3.71084
3.5621
3.42474
3.29904
3.18246
3.07043
2.96433
2.86552
2.76791
2.67272
2.58474
2.50222
2.42122
2.33993
2.25633
2.17198
2.10007
2.04144
1.98569
1.93069
1.87696
1.82263
1.76641
1.71324
1.66815
1.62575
1.58445
1.54261
1.50433
1.4619
1.4308
1.39628
1.40797
1.51565
1.79172
2.13527
2.41885
2.58946
2.59679
2.57735
2.63153
2.7884
3.08459
3.52079
3.99533
4.29049
4.37734
4.47029
4.47345
4.4395
4.37478
4.28788
4.17788
4.11789
4.0967
4.08487
4.08261
4.06641
4.00572
1
1
2.65919
9.34772
10.5785
10.4588
10.3721
10.1967
9.9962
9.76715
9.52551
9.28137
9.02068
8.72145
8.40843
8.11081
7.84022
7.5812
7.31574
7.01145
6.70768
6.44971
6.22561
5.99596
5.77082
5.54178
5.30171
5.0683
4.86367
4.68775
4.52718
4.37069
4.21034
4.03957
3.86181
3.69315
3.54946
3.42979
3.32572
3.22831
3.12802
3.01194
2.87855
2.75161
2.64873
2.56786
2.49741
2.42742
2.35441
2.28298
2.2117
2.12744
2.04563
1.98182
1.93098
1.88522
1.8378
1.78904
1.73799
1.67679
1.61463
1.56823
1.5353
1.50445
1.46795
1.4258
1.38917
1.35075
1.34263
1.38721
1.58303
1.92274
2.24747
2.48907
2.75514
3.18182
3.58228
3.90179
4.17993
4.42599
4.44661
4.39287
4.37853
4.40301
4.39057
4.34141
4.29826
4.23814
4.16239
4.11663
4.08046
4.04584
4.01616
3.96987
1
1
2.58385
9.36819
10.5389
10.4023
10.3224
10.1536
9.97703
9.76888
9.54439
9.30152
9.0338
8.75104
8.47461
8.2117
7.95103
7.68288
7.39152
7.08228
6.78091
6.52477
6.29594
6.05378
5.80831
5.55114
5.29517
5.07234
4.88632
4.71962
4.55929
4.39613
4.22081
4.02904
3.83805
3.67732
3.55416
3.45261
3.35911
3.26131
3.145
3.00517
2.8547
2.72518
2.62826
2.5566
2.49747
2.44268
2.38672
2.3141
2.2154
2.11322
2.03244
1.97436
1.93005
1.89296
1.85637
1.81016
1.74356
1.66577
1.59892
1.55345
1.52256
1.49601
1.4707
1.44301
1.39538
1.33593
1.31903
1.30946
1.33637
1.48157
1.84297
2.43701
3.17927
3.84327
4.51042
4.88931
4.9668
4.871
4.6158
4.38203
4.34482
4.33842
4.33695
4.30554
4.27953
4.23958
4.16226
4.10743
4.06799
4.03302
4.0101
3.97347
)
;

boundaryField
{
    inlet
    {
        type            fixedValue;
        value           uniform 1;
    }
    outlet
    {
        type            zeroGradient;
    }
    bottom
    {
        type            zeroGradient;
    }
    top
    {
        type            zeroGradient;
    }
    obstacle
    {
        type            zeroGradient;
    }
    defaultFaces
    {
        type            empty;
    }
}


// ************************************************************************* //
