/*--------------------------------*- C++ -*----------------------------------*\
  =========                 |
  \\      /  F ield         | OpenFOAM: The Open Source CFD Toolbox
   \\    /   O peration     | Website:  https://openfoam.org
    \\  /    A nd           | Version:  7
     \\/     M anipulation  |
\*---------------------------------------------------------------------------*/
FoamFile
{
    version     2.0;
    format      ascii;
    class       volScalarField;
    location    "2.9";
    object      T;
}
// * * * * * * * * * * * * * * * * * * * * * * * * * * * * * * * * * * * * * //

dimensions      [0 0 0 1 0 0 0];

internalField   nonuniform List<scalar> 
16192
(
1.69283
1.68993
1.68827
1.68727
1.68494
1.68122
1.67794
1.67587
1.67444
1.6738
1.67414
1.67515
1.67532
1.67483
1.67432
1.67417
1.67403
1.67313
1.67122
1.66957
1.66875
1.66803
1.66711
1.6663
1.66582
1.66569
1.66589
1.66607
1.6657
1.66511
1.66434
1.66351
1.66302
1.66311
1.66392
1.66558
1.66847
1.67194
1.67448
1.67582
1.67663
1.67666
1.67443
1.67215
1.67246
1.67445
1.67688
1.67931
1.68173
1.68375
1.6859
1.68817
1.6904
1.69251
1.69502
1.69883
1.70332
1.70748
1.71066
1.71283
1.71322
1.71143
1.70933
1.70979
1.71248
1.71602
1.71993
1.72412
1.72728
1.72924
1.73049
1.7302
1.72689
1.72278
1.72219
1.72296
1.72444
1.72635
1.72791
1.72828
1.72824
1.72785
1.72691
1.7258
1.72473
1.72387
1.72279
1.7208
1.71788
1.71354
1.70817
1.70386
1.701
1.69838
1.6961
1.69531
1.6959
1.69698
1.69644
1.69369
1.69027
1.68655
1.68292
1.68041
1.67848
1.67747
1.6773
1.67619
1.67324
1.66961
1.66566
1.66313
1.66131
1.66038
1.66077
1.66215
1.66215
1.66042
1.65808
1.65614
1.65437
1.65264
1.65083
1.64897
1.6477
1.64745
1.6475
1.64741
1.64724
1.64737
1.64829
1.64924
1.64895
1.64738
1.64559
1.64322
1.63918
1.63517
1.63345
1.6324
1.63159
1.63166
1.63364
1.63602
1.63616
1.63564
1.63512
1.63486
1.63478
1.63508
1.63577
1.63607
1.6358
1.63532
1.63461
1.63304
1.63073
1.62918
1.62868
1.62856
1.62854
1.62879
1.6302
1.63187
1.63218
1.63218
1.63217
1.63183
1.6308
1.63038
1.63054
1.63092
1.63129
1.63181
1.63258
1.63363
1.6347
1.63545
1.63625
1.63728
1.63826
1.63884
1.6389
1.63865
1.63773
1.63655
1.63641
1.63714
1.6386
1.64024
1.64243
1.64473
1.64686
1.64813
2.20755
2.71042
2.75689
2.76689
2.77742
2.79353
2.81767
2.84223
2.86049
2.86663
2.86409
2.85602
2.84447
2.82901
2.81101
2.79028
2.76892
2.74944
2.73399
2.72478
2.72009
2.71545
2.7091
2.70227
2.69574
2.68943
2.68427
2.68078
2.67816
2.67561
2.67348
2.67258
2.67291
2.67566
2.68104
2.68741
2.69268
2.69672
2.69831
2.70035
2.70593
2.71762
2.7371
2.76142
2.78602
2.80733
2.82293
2.83137
2.83135
2.83086
2.83017
2.83073
2.83356
2.83422
2.83045
2.81615
2.79481
2.7708
2.7481
1.69041
1.68876
1.68767
1.68686
1.68474
1.68121
1.67824
1.67623
1.67457
1.67355
1.67326
1.67309
1.67236
1.67074
1.66906
1.66825
1.66812
1.66811
1.66856
1.66916
1.66896
1.66761
1.66582
1.66392
1.66236
1.6617
1.66154
1.6618
1.66289
1.66357
1.66357
1.66356
1.66321
1.66284
1.66296
1.66386
1.66584
1.66847
1.67046
1.67174
1.67272
1.67303
1.67264
1.6723
1.67275
1.67447
1.67646
1.67822
1.67988
1.68161
1.68346
1.6853
1.687
1.68866
1.69075
1.69423
1.69855
1.7027
1.70646
1.70935
1.71114
1.7113
1.71042
1.71034
1.71197
1.71478
1.71818
1.72172
1.7242
1.72566
1.72615
1.72594
1.72449
1.72306
1.72298
1.72323
1.72427
1.72561
1.72588
1.7258
1.72517
1.72378
1.72284
1.72189
1.72108
1.72075
1.72021
1.71852
1.71611
1.71308
1.70924
1.7053
1.70186
1.6987
1.69602
1.69423
1.69405
1.69425
1.69292
1.68993
1.68672
1.68369
1.6813
1.67891
1.67647
1.67465
1.67353
1.67188
1.6693
1.66682
1.66497
1.66316
1.66168
1.66107
1.66119
1.6613
1.65993
1.65721
1.65439
1.65174
1.64984
1.64844
1.64773
1.64769
1.64767
1.64763
1.64719
1.64611
1.64515
1.64486
1.64509
1.64536
1.64472
1.64302
1.64128
1.63915
1.63605
1.63333
1.63205
1.63124
1.63085
1.63121
1.63342
1.6352
1.63495
1.63414
1.6332
1.63232
1.6319
1.63168
1.63177
1.63216
1.63222
1.63197
1.63161
1.63116
1.63037
1.62944
1.62917
1.62911
1.62905
1.62911
1.62994
1.63082
1.63096
1.63104
1.63104
1.63062
1.62949
1.62906
1.6292
1.62953
1.6298
1.63011
1.63061
1.63124
1.63193
1.63259
1.63345
1.63456
1.6358
1.63702
1.63794
1.63823
1.63805
1.63724
1.63694
1.63737
1.63853
1.63996
1.64177
1.64364
1.64557
1.6469
2.18776
2.70605
2.75839
2.76999
2.77994
2.79467
2.81767
2.84157
2.86
2.86612
2.86362
2.85577
2.84467
2.82971
2.81206
2.79159
2.7701
2.75026
2.73402
2.72362
2.71856
2.71392
2.70679
2.69943
2.69254
2.68619
2.68114
2.67783
2.6756
2.67384
2.67288
2.67322
2.67468
2.67558
2.6752
2.67524
2.67787
2.68343
2.69147
2.70053
2.70941
2.72015
2.73475
2.75327
2.7737
2.79314
2.8098
2.82175
2.82894
2.83124
2.83127
2.83081
2.83088
2.82991
2.82527
2.81253
2.79279
2.77113
2.74908
1.67948
1.67879
1.6784
1.67775
1.67558
1.67214
1.66913
1.66725
1.66668
1.66687
1.66763
1.66746
1.6657
1.66318
1.66016
1.65745
1.65619
1.65608
1.65731
1.66042
1.66208
1.66196
1.66088
1.65901
1.65593
1.65307
1.65192
1.65168
1.65204
1.65344
1.65472
1.65556
1.65628
1.65714
1.6582
1.6592
1.66
1.66051
1.66108
1.66181
1.66233
1.6626
1.66312
1.66393
1.66556
1.66792
1.67077
1.67324
1.67507
1.67676
1.67796
1.67848
1.67874
1.67944
1.68138
1.68457
1.68821
1.69183
1.69513
1.698
1.70069
1.70272
1.70376
1.70542
1.70826
1.71137
1.7136
1.71531
1.71658
1.71717
1.71714
1.71586
1.71396
1.71479
1.71671
1.7189
1.72111
1.72184
1.72148
1.72009
1.71745
1.71507
1.7141
1.71315
1.71233
1.71185
1.71117
1.70976
1.70778
1.70562
1.70281
1.70029
1.69785
1.6953
1.69317
1.69182
1.69085
1.68856
1.6851
1.6816
1.67809
1.67543
1.67354
1.67187
1.67038
1.66821
1.66499
1.66206
1.65952
1.65782
1.65671
1.65577
1.65544
1.6559
1.65733
1.65753
1.6554
1.6521
1.64849
1.64437
1.64116
1.63945
1.63878
1.63923
1.64091
1.64192
1.64183
1.64111
1.64023
1.63947
1.63899
1.63856
1.63724
1.63546
1.63357
1.63128
1.62843
1.62588
1.62449
1.62383
1.62374
1.62461
1.62772
1.63013
1.63032
1.62982
1.62897
1.62753
1.62572
1.62462
1.6241
1.62385
1.62379
1.62377
1.62378
1.62377
1.62376
1.6237
1.62384
1.62427
1.62501
1.62621
1.62752
1.62795
1.62811
1.6283
1.62825
1.6275
1.62631
1.62604
1.6262
1.62637
1.62638
1.62625
1.62599
1.62585
1.6259
1.62623
1.62691
1.62788
1.62908
1.63044
1.63189
1.63308
1.63347
1.63334
1.63334
1.6341
1.63552
1.6373
1.6391
1.64063
1.64247
1.64385
2.13946
2.6971
2.75682
2.76867
2.77809
2.79204
2.81477
2.83854
2.85766
2.86361
2.8614
2.85438
2.84469
2.83131
2.81467
2.79478
2.77328
2.7531
2.73603
2.72464
2.71863
2.71402
2.70605
2.69702
2.68845
2.6808
2.67473
2.67105
2.66897
2.66746
2.6666
2.66693
2.66863
2.67089
2.67092
2.66856
2.66671
2.66806
2.67534
2.68798
2.70278
2.71691
2.72935
2.74066
2.75273
2.76738
2.78423
2.80079
2.81371
2.82172
2.82587
2.82682
2.82593
2.82311
2.81791
2.80812
2.79179
2.77208
2.75016
1.66279
1.66233
1.66197
1.66072
1.65774
1.65388
1.65011
1.64724
1.64626
1.64652
1.64745
1.64738
1.64638
1.64528
1.64396
1.64208
1.64049
1.63968
1.63993
1.64178
1.6431
1.64318
1.64261
1.64119
1.63927
1.63773
1.63715
1.63695
1.63721
1.63758
1.63771
1.63805
1.63869
1.63981
1.64124
1.64267
1.64409
1.64551
1.64672
1.64743
1.64769
1.64784
1.64785
1.64785
1.64847
1.65038
1.65293
1.65546
1.65763
1.65976
1.66182
1.66359
1.66514
1.66692
1.66928
1.672
1.67463
1.67693
1.6789
1.68062
1.68209
1.68319
1.68445
1.68704
1.6908
1.69481
1.69838
1.70134
1.70355
1.70428
1.70376
1.70083
1.69823
1.69848
1.70042
1.70325
1.70647
1.70836
1.70885
1.70862
1.70669
1.70368
1.70196
1.7009
1.69986
1.69914
1.69825
1.6962
1.69362
1.69079
1.68785
1.68542
1.6831
1.6809
1.67911
1.67856
1.67863
1.67775
1.67472
1.67079
1.66715
1.6642
1.66168
1.65998
1.65878
1.65698
1.6539
1.65029
1.64704
1.64432
1.64221
1.64095
1.64062
1.6411
1.64199
1.6417
1.63974
1.63714
1.63469
1.63201
1.62943
1.62732
1.62602
1.62599
1.62657
1.62662
1.62592
1.625
1.6244
1.62404
1.62393
1.62398
1.62385
1.62281
1.62141
1.6198
1.61746
1.61442
1.61222
1.61119
1.61076
1.61112
1.61308
1.61487
1.61518
1.61518
1.61494
1.61445
1.61379
1.61336
1.61327
1.61321
1.61315
1.61316
1.61312
1.61282
1.61203
1.61154
1.61161
1.61209
1.61316
1.61474
1.61595
1.61651
1.617
1.61743
1.61749
1.6171
1.61632
1.61613
1.61638
1.61676
1.61709
1.61723
1.61725
1.61728
1.61734
1.61754
1.61799
1.61874
1.61978
1.62102
1.62219
1.62285
1.62288
1.62247
1.62239
1.62298
1.62437
1.62618
1.62774
1.62915
1.63102
1.63244
2.05412
2.67197
2.74651
2.75905
2.7703
2.786
2.80815
2.83365
2.85326
2.85874
2.85605
2.84903
2.84049
2.82933
2.81467
2.79583
2.77484
2.75435
2.73619
2.72354
2.71722
2.71372
2.70719
2.69696
2.68643
2.67635
2.66813
2.66252
2.65915
2.65647
2.65358
2.65116
2.65081
2.6528
2.65656
2.65646
2.65379
2.65228
2.65432
2.66279
2.67789
2.69418
2.70412
2.71192
2.71864
2.72736
2.74128
2.75901
2.77728
2.79203
2.80236
2.80786
2.80924
2.80824
2.80456
2.79911
2.78961
2.77383
2.75432
1.63539
1.63618
1.63649
1.63548
1.63241
1.62877
1.62512
1.62161
1.61893
1.61756
1.61692
1.61618
1.61546
1.61474
1.61414
1.61405
1.61407
1.61458
1.61604
1.61684
1.61638
1.61533
1.61368
1.61155
1.61024
1.60991
1.60995
1.61083
1.6126
1.61363
1.61411
1.61449
1.61456
1.61435
1.61417
1.61442
1.61557
1.61731
1.61916
1.62096
1.6224
1.62377
1.62485
1.62529
1.62546
1.62587
1.62672
1.62779
1.62893
1.63018
1.63165
1.6335
1.63591
1.63888
1.64207
1.6453
1.64858
1.6518
1.65476
1.65695
1.65762
1.65722
1.65674
1.65754
1.66031
1.66388
1.66759
1.67137
1.67442
1.67656
1.67781
1.67797
1.67736
1.67684
1.67727
1.6786
1.67993
1.68109
1.68185
1.68187
1.68113
1.67974
1.67899
1.67851
1.67797
1.67757
1.67706
1.67572
1.67322
1.67006
1.66666
1.66329
1.66008
1.65722
1.65478
1.65314
1.6527
1.65252
1.65127
1.64877
1.6463
1.64414
1.64211
1.63992
1.63727
1.63422
1.63111
1.62824
1.62572
1.6235
1.62176
1.62059
1.61977
1.61895
1.61778
1.61566
1.61312
1.61079
1.60889
1.60736
1.60615
1.60559
1.60576
1.60622
1.60573
1.60408
1.60225
1.60039
1.5991
1.59842
1.59831
1.59894
1.59953
1.59934
1.59855
1.59758
1.59628
1.59416
1.59233
1.59158
1.59145
1.59189
1.59299
1.59298
1.59232
1.59153
1.59073
1.59043
1.59048
1.59087
1.59173
1.59282
1.59384
1.59467
1.59533
1.59548
1.59498
1.59421
1.59422
1.59469
1.59536
1.59601
1.59637
1.59671
1.59703
1.5972
1.59721
1.59715
1.59692
1.59671
1.59684
1.59717
1.59745
1.59758
1.59771
1.59795
1.59839
1.59915
1.60013
1.60145
1.60337
1.60561
1.60742
1.60809
1.60782
1.60629
1.60554
1.60573
1.6064
1.60729
1.60827
1.60942
1.6109
1.61208
1.93207
2.62109
2.72424
2.74035
2.7561
2.77401
2.79598
2.82074
2.84012
2.84464
2.84164
2.83479
2.82873
2.82163
2.81119
2.79521
2.77576
2.75546
2.73641
2.72172
2.71327
2.70929
2.7049
2.6968
2.68516
2.67266
2.66079
2.65114
2.64432
2.63955
2.63513
2.6301
2.62543
2.62413
2.62655
2.63155
2.63378
2.63312
2.63244
2.63415
2.64037
2.65002
2.65804
2.66375
2.6691
2.67523
2.68594
2.7015
2.71984
2.73711
2.75216
2.76416
2.77215
2.77706
2.77974
2.77924
2.77656
2.76852
2.75524
1.59923
1.59974
1.60007
1.59942
1.59729
1.5947
1.59201
1.58926
1.58687
1.58533
1.58433
1.58358
1.58293
1.58215
1.58154
1.58155
1.58192
1.58274
1.58373
1.58398
1.58369
1.58279
1.58149
1.58006
1.57923
1.57909
1.57936
1.5803
1.58117
1.5816
1.58214
1.58263
1.58277
1.58266
1.58263
1.5831
1.58439
1.58594
1.58738
1.58881
1.59029
1.59164
1.59238
1.59251
1.59258
1.59306
1.59413
1.59536
1.59648
1.59752
1.59864
1.60017
1.60232
1.60492
1.60759
1.61017
1.61299
1.6158
1.61814
1.61981
1.62068
1.62081
1.62076
1.62157
1.62426
1.62746
1.63035
1.63313
1.636
1.63876
1.64115
1.64262
1.64274
1.64274
1.64368
1.6452
1.64601
1.64628
1.64625
1.64605
1.64569
1.64517
1.64463
1.64429
1.64388
1.64337
1.64283
1.6419
1.63995
1.63714
1.63418
1.63147
1.62883
1.62623
1.62385
1.62192
1.62121
1.62109
1.62045
1.61869
1.61666
1.6148
1.61291
1.61049
1.60735
1.60404
1.60096
1.59813
1.59565
1.59373
1.59244
1.59153
1.59054
1.58909
1.58741
1.58554
1.58345
1.58145
1.57965
1.57828
1.57766
1.57768
1.57814
1.57798
1.57645
1.57462
1.57284
1.57121
1.57019
1.56964
1.56955
1.57044
1.57148
1.57136
1.57084
1.57016
1.5692
1.56756
1.5658
1.56501
1.56492
1.56524
1.56601
1.56608
1.56551
1.56467
1.56377
1.56334
1.5634
1.56393
1.56506
1.56618
1.56699
1.56787
1.56867
1.56895
1.56863
1.56826
1.56871
1.56984
1.57087
1.57161
1.57218
1.57264
1.57301
1.57335
1.57369
1.57388
1.57385
1.57353
1.57338
1.57341
1.57339
1.57325
1.57313
1.57319
1.57363
1.5744
1.57529
1.57653
1.57838
1.58064
1.58261
1.5836
1.58353
1.58231
1.58173
1.58195
1.5825
1.58315
1.58398
1.58504
1.58648
1.58774
1.76839
2.53042
2.69669
2.71928
2.73918
2.75835
2.77868
2.79937
2.81579
2.82012
2.81822
2.81305
2.80996
2.80711
2.80155
2.79084
2.77513
2.75641
2.73686
2.71948
2.70676
2.69929
2.6947
2.68901
2.67967
2.66651
2.65134
2.63637
2.62366
2.61439
2.60837
2.6037
2.5981
2.59183
2.58887
2.59033
2.59509
2.5984
2.59757
2.59562
2.59478
2.59513
2.59798
2.60386
2.60888
2.61445
2.62255
2.63379
2.64648
2.66039
2.67532
2.69042
2.705
2.71853
2.72973
2.73788
2.74302
2.74337
2.74028
1.56468
1.5649
1.56519
1.56479
1.56318
1.56101
1.55876
1.55679
1.55497
1.55344
1.55228
1.55148
1.55097
1.55069
1.55054
1.5506
1.55108
1.55147
1.55143
1.55114
1.55066
1.55006
1.54948
1.54913
1.54906
1.54936
1.55021
1.55076
1.55082
1.55087
1.55088
1.55063
1.55025
1.55015
1.55044
1.55152
1.55308
1.55459
1.55595
1.55713
1.5581
1.55856
1.55837
1.55762
1.55756
1.55831
1.55953
1.56072
1.56192
1.56329
1.56487
1.56659
1.56842
1.57028
1.57207
1.57379
1.57552
1.5771
1.57839
1.57936
1.57991
1.58001
1.58007
1.58115
1.58382
1.58689
1.58987
1.59304
1.59645
1.5995
1.60161
1.60228
1.60187
1.60161
1.60252
1.60409
1.60555
1.60674
1.60745
1.60783
1.60789
1.60764
1.60669
1.60586
1.60521
1.60446
1.60385
1.60296
1.60107
1.59842
1.59586
1.59351
1.59122
1.58907
1.58735
1.58663
1.58679
1.58721
1.58674
1.58506
1.58319
1.58132
1.57923
1.57687
1.57439
1.57196
1.56954
1.5671
1.56485
1.56293
1.56119
1.55928
1.55718
1.55525
1.55384
1.55282
1.55186
1.55079
1.54971
1.54895
1.5487
1.54871
1.54844
1.54721
1.54554
1.54354
1.54169
1.54077
1.54034
1.5401
1.54023
1.54122
1.54241
1.54251
1.54233
1.54208
1.5416
1.54059
1.53897
1.53772
1.53719
1.53697
1.53685
1.53674
1.53637
1.53598
1.53588
1.53595
1.53633
1.53701
1.5377
1.5383
1.53891
1.53951
1.53993
1.53996
1.53952
1.53928
1.53979
1.541
1.54205
1.54285
1.54357
1.54423
1.5449
1.54568
1.54638
1.54674
1.54675
1.54625
1.54591
1.54602
1.54622
1.54633
1.5465
1.54675
1.54716
1.54762
1.54818
1.54895
1.55
1.55138
1.55272
1.55333
1.55321
1.55233
1.55201
1.5523
1.55297
1.55367
1.55456
1.55568
1.55713
1.55843
1.58994
2.40082
2.67303
2.70738
2.72549
2.74152
2.75454
2.76765
2.77932
2.78365
2.78405
2.78239
2.78171
2.78206
2.78047
2.77498
2.76468
2.75033
2.7337
2.71614
2.69961
2.68604
2.67618
2.66861
2.66093
2.65074
2.63643
2.61842
2.5994
2.58297
2.57143
2.56537
2.5622
2.55794
2.55168
2.54735
2.54696
2.54863
2.54919
2.54639
2.54222
2.53896
2.53838
2.54062
2.54616
2.55173
2.55732
2.56313
2.5696
2.57767
2.58807
2.60109
2.61673
2.63402
2.65114
2.6667
2.67941
2.68897
2.69496
1.5369
1.53635
1.53584
1.5348
1.53338
1.5319
1.53074
1.52974
1.52869
1.52767
1.52675
1.52605
1.5258
1.52584
1.52604
1.52614
1.52616
1.52607
1.52561
1.52485
1.52413
1.52373
1.52367
1.52392
1.52463
1.52584
1.52693
1.52746
1.52749
1.52692
1.52577
1.52452
1.52363
1.52343
1.52387
1.52495
1.52633
1.52786
1.52929
1.53045
1.53101
1.53098
1.53011
1.52933
1.52932
1.5296
1.53014
1.53093
1.53201
1.53356
1.53519
1.5367
1.53816
1.53935
1.54037
1.54152
1.5428
1.5439
1.54469
1.54511
1.54518
1.54491
1.54465
1.54519
1.547
1.54943
1.55208
1.55515
1.55839
1.56118
1.56301
1.5634
1.56306
1.56329
1.56469
1.56618
1.5674
1.5685
1.56932
1.56971
1.56971
1.56894
1.56742
1.56669
1.56632
1.56617
1.56616
1.56599
1.56494
1.56296
1.56067
1.55845
1.55642
1.55455
1.55303
1.55256
1.55288
1.5533
1.55285
1.55155
1.55023
1.54851
1.54632
1.54437
1.54275
1.54119
1.5396
1.53807
1.53661
1.53491
1.53266
1.53009
1.52779
1.52613
1.5251
1.52451
1.5241
1.52364
1.52336
1.52339
1.52356
1.52334
1.52223
1.52065
1.51878
1.51673
1.51504
1.51436
1.51415
1.51411
1.51436
1.51507
1.51623
1.51706
1.5171
1.51704
1.51688
1.51644
1.51534
1.51374
1.51284
1.5124
1.51202
1.5119
1.51182
1.51174
1.51178
1.51189
1.5121
1.51242
1.51283
1.51335
1.51386
1.51422
1.5143
1.514
1.5132
1.51296
1.51338
1.51441
1.51538
1.5162
1.51689
1.5176
1.51841
1.51926
1.51983
1.52004
1.51985
1.51894
1.51867
1.51891
1.51934
1.51969
1.52016
1.52066
1.52103
1.52138
1.5219
1.52248
1.52316
1.52399
1.52475
1.52501
1.52485
1.52412
1.52377
1.52391
1.52442
1.52509
1.52596
1.52706
1.5284
1.52966
1.53239
2.25215
2.64936
2.70972
2.71453
2.72217
2.7255
2.73094
2.73713
2.74026
2.74255
2.74372
2.74572
2.74758
2.74693
2.74297
2.73413
2.72276
2.71029
2.69741
2.6834
2.66748
2.65109
2.63635
2.62435
2.6144
2.60373
2.58914
2.56996
2.54919
2.53121
2.51873
2.51288
2.51089
2.50785
2.50187
2.49597
2.49252
2.49046
2.48729
2.48412
2.48152
2.48053
2.48133
2.48493
2.48872
2.49066
2.49272
2.49528
2.49941
2.50582
2.51462
2.5257
2.53883
2.55385
2.57029
2.58691
2.60243
2.61493
1.51529
1.51478
1.51462
1.51431
1.51375
1.51306
1.51242
1.51184
1.51134
1.51093
1.51062
1.51041
1.51023
1.50989
1.5093
1.50838
1.5073
1.50641
1.50578
1.50557
1.50573
1.50651
1.50796
1.50984
1.51142
1.51201
1.51176
1.51071
1.50922
1.50752
1.50609
1.50537
1.5053
1.50554
1.50664
1.5084
1.51036
1.51179
1.51218
1.51208
1.51113
1.50922
1.50761
1.50708
1.50712
1.50764
1.50859
1.51021
1.51237
1.5146
1.51615
1.51684
1.51683
1.51617
1.51559
1.51557
1.5158
1.51619
1.51663
1.51695
1.51698
1.51688
1.51692
1.51772
1.5196
1.52216
1.52512
1.52804
1.53019
1.53143
1.53169
1.53117
1.53083
1.5314
1.53269
1.53384
1.53493
1.53593
1.5366
1.5369
1.53668
1.5352
1.53402
1.5338
1.53366
1.53379
1.53428
1.53434
1.53362
1.53212
1.53037
1.52876
1.52739
1.52613
1.5254
1.52547
1.52626
1.52658
1.52615
1.52478
1.5227
1.51997
1.51772
1.51647
1.51567
1.51507
1.51456
1.51412
1.51339
1.51173
1.50925
1.50682
1.50499
1.50393
1.50372
1.50384
1.50413
1.5045
1.50476
1.50459
1.50377
1.50249
1.50064
1.49873
1.49721
1.49612
1.49534
1.49504
1.49514
1.49531
1.49545
1.49568
1.49627
1.49715
1.49743
1.49744
1.49744
1.49717
1.4963
1.49474
1.49354
1.49314
1.49302
1.49315
1.49346
1.49359
1.49361
1.49352
1.49334
1.49331
1.49337
1.4934
1.49333
1.49314
1.49289
1.49252
1.49223
1.49233
1.49298
1.4941
1.49525
1.49616
1.49682
1.49745
1.49817
1.49877
1.49903
1.49902
1.49821
1.49714
1.49704
1.49729
1.49778
1.49829
1.49881
1.49927
1.49966
1.49999
1.50015
1.50023
1.50032
1.50035
1.50031
1.50022
1.49997
1.49945
1.49926
1.49942
1.49995
1.50087
1.50204
1.50326
1.50448
1.5056
1.50611
2.08584
2.63012
2.71313
2.70295
2.70008
2.6937
2.69224
2.69367
2.69434
2.69471
2.69599
2.69825
2.69895
2.69813
2.69343
2.68244
2.66801
2.65481
2.64445
2.63616
2.62625
2.61127
2.59271
2.57484
2.56005
2.54872
2.53821
2.52476
2.50711
2.4884
2.47238
2.46117
2.45599
2.45445
2.45177
2.44587
2.43981
2.43472
2.43055
2.42788
2.42662
2.42642
2.4275
2.42947
2.42924
2.42849
2.42813
2.42885
2.43163
2.43622
2.44167
2.44767
2.45434
2.46225
2.47225
2.48482
2.49921
2.51366
1.50235
1.50316
1.50483
1.50583
1.50584
1.50537
1.50389
1.50255
1.50177
1.50103
1.5004
1.49978
1.49902
1.49789
1.49644
1.49512
1.49431
1.49413
1.49444
1.49544
1.49739
1.50009
1.50186
1.50221
1.50164
1.50009
1.49845
1.49661
1.4952
1.49485
1.49502
1.49566
1.49709
1.49882
1.50004
1.50032
1.50016
1.49938
1.49822
1.49687
1.49501
1.49365
1.49342
1.49374
1.4947
1.49652
1.49913
1.50161
1.50272
1.50278
1.5022
1.50078
1.49906
1.49758
1.49694
1.49696
1.49753
1.49827
1.49905
1.49962
1.50004
1.50059
1.50183
1.50366
1.50587
1.50772
1.50853
1.50886
1.50872
1.50774
1.50655
1.50616
1.50651
1.50762
1.50906
1.51072
1.51242
1.51375
1.51441
1.51446
1.51315
1.51078
1.50974
1.50938
1.50917
1.50931
1.51002
1.51025
1.50993
1.50916
1.50821
1.5076
1.5072
1.50707
1.50736
1.50821
1.50863
1.50792
1.50598
1.5031
1.49982
1.49748
1.4965
1.49619
1.49622
1.49667
1.49728
1.49732
1.49657
1.4948
1.49272
1.49111
1.49008
1.48994
1.49051
1.49152
1.4918
1.49142
1.49055
1.48933
1.488
1.48675
1.48572
1.48513
1.48512
1.48515
1.48506
1.48433
1.48291
1.48188
1.48146
1.48129
1.48139
1.48236
1.48349
1.48379
1.4838
1.48364
1.48304
1.48187
1.48083
1.4806
1.48075
1.4812
1.48141
1.48138
1.48104
1.48047
1.48001
1.47973
1.47949
1.47927
1.47916
1.47921
1.47956
1.4802
1.48097
1.48188
1.48287
1.48369
1.48415
1.48436
1.48451
1.48459
1.48459
1.48451
1.48416
1.48292
1.48105
1.48033
1.48036
1.48074
1.48136
1.48194
1.4825
1.48307
1.48339
1.48343
1.48331
1.48301
1.48282
1.48277
1.48275
1.48277
1.48281
1.48287
1.48306
1.48374
1.48479
1.48587
1.48668
1.48727
1.48778
1.48798
1.48782
1.91715
2.60489
2.71464
2.69112
2.67757
2.66289
2.65479
2.65079
2.64764
2.64393
2.64061
2.63757
2.63429
2.63064
2.62508
2.6141
2.59793
2.58045
2.56655
2.5582
2.55304
2.54502
2.53017
2.51264
2.49596
2.48241
2.47204
2.46345
2.45289
2.43888
2.42454
2.41245
2.40405
2.4001
2.39859
2.39612
2.39237
2.38786
2.38305
2.37915
2.37747
2.37755
2.37929
2.38111
2.38014
2.37814
2.37621
2.37609
2.37729
2.38022
2.3831
2.3858
2.3883
2.39075
2.3941
2.39983
2.40804
2.4179
1.4968
1.49931
1.50055
1.50058
1.49952
1.49704
1.49464
1.49352
1.49304
1.49254
1.49187
1.49118
1.49038
1.48949
1.48864
1.48821
1.48831
1.48888
1.49042
1.49319
1.49553
1.49617
1.49587
1.49479
1.49321
1.49102
1.48901
1.48848
1.48854
1.48918
1.49103
1.49337
1.49449
1.49452
1.49381
1.49243
1.49124
1.48987
1.48812
1.48688
1.48649
1.4865
1.48717
1.48908
1.49166
1.49362
1.49419
1.4941
1.49346
1.49227
1.49076
1.48848
1.48708
1.48688
1.4871
1.48779
1.48942
1.4914
1.49277
1.49347
1.49385
1.49397
1.49395
1.49395
1.49408
1.4942
1.49383
1.49273
1.49175
1.49129
1.49131
1.49186
1.49318
1.49515
1.49753
1.49981
1.50112
1.5013
1.50053
1.49823
1.4951
1.49325
1.49278
1.49271
1.49292
1.49381
1.49514
1.49598
1.49612
1.49604
1.49573
1.4955
1.49544
1.49549
1.49558
1.49526
1.49407
1.49221
1.48985
1.48745
1.4857
1.48514
1.48516
1.48574
1.48694
1.48778
1.48775
1.48679
1.48513
1.4834
1.4823
1.48176
1.48169
1.48212
1.48257
1.48229
1.48146
1.48024
1.47916
1.47864
1.4785
1.47847
1.47895
1.47976
1.47997
1.47957
1.47764
1.47478
1.47244
1.47149
1.47117
1.47106
1.47164
1.47362
1.47545
1.47595
1.47597
1.47583
1.47537
1.47474
1.47432
1.47417
1.47406
1.47376
1.47325
1.47259
1.47191
1.4714
1.47109
1.47092
1.4709
1.47113
1.47182
1.4731
1.47455
1.47557
1.47593
1.47579
1.47535
1.475
1.47463
1.47432
1.47429
1.4741
1.47358
1.47291
1.47181
1.47016
1.469
1.4689
1.46917
1.46973
1.47042
1.47096
1.47151
1.47204
1.47237
1.47245
1.47244
1.47251
1.4727
1.47332
1.47427
1.47507
1.47552
1.47564
1.47536
1.47477
1.47446
1.47442
1.47437
1.47406
1.47377
1.47344
1.47343
1.7489
2.55733
2.71134
2.67222
2.64882
2.62811
2.6122
2.60055
2.59249
2.58568
2.57671
2.56667
2.5568
2.54717
2.5392
2.53061
2.5177
2.5005
2.48427
2.47418
2.47012
2.46715
2.458
2.44471
2.43189
2.41985
2.4104
2.40402
2.39856
2.38992
2.37918
2.36955
2.3619
2.35702
2.35511
2.35457
2.35366
2.35198
2.34873
2.34448
2.34155
2.34117
2.34245
2.34393
2.34279
2.34054
2.33769
2.33626
2.33625
2.33768
2.34015
2.3421
2.34362
2.34423
2.34397
2.34382
2.3448
2.34766
1.49564
1.49631
1.49599
1.49476
1.4926
1.4897
1.48763
1.4869
1.48665
1.48681
1.48691
1.48673
1.4862
1.48566
1.48561
1.48596
1.48693
1.4888
1.49098
1.49197
1.49194
1.49144
1.49059
1.48897
1.48655
1.48503
1.48486
1.48513
1.48642
1.48889
1.49076
1.49106
1.49066
1.48964
1.48822
1.48643
1.4846
1.4835
1.48304
1.48286
1.48324
1.48488
1.48721
1.48875
1.48905
1.48882
1.48821
1.48751
1.48645
1.4846
1.48281
1.48219
1.48213
1.48253
1.48412
1.48623
1.48774
1.48821
1.48819
1.48777
1.48676
1.48598
1.48559
1.4852
1.48444
1.48374
1.48356
1.48359
1.48372
1.48427
1.48573
1.4878
1.48992
1.49164
1.49253
1.4926
1.49217
1.49072
1.48846
1.48536
1.48358
1.4833
1.48346
1.48424
1.4859
1.48783
1.48895
1.48913
1.48881
1.48804
1.4872
1.48674
1.48644
1.48607
1.48552
1.48472
1.4837
1.48246
1.4811
1.48043
1.48046
1.48091
1.4816
1.48188
1.48151
1.48041
1.47913
1.47775
1.47661
1.47608
1.47601
1.47621
1.47644
1.47638
1.47577
1.47479
1.47371
1.47328
1.47334
1.47372
1.47469
1.47628
1.47714
1.47704
1.47601
1.47374
1.47059
1.46722
1.46568
1.46534
1.4653
1.46566
1.4674
1.47029
1.47189
1.47211
1.47207
1.47187
1.47151
1.47103
1.4704
1.46945
1.46831
1.46752
1.46678
1.46624
1.46594
1.46581
1.46581
1.46599
1.46655
1.46775
1.4695
1.47067
1.47093
1.4707
1.46997
1.46912
1.46838
1.46774
1.46729
1.46732
1.46761
1.46751
1.46694
1.4661
1.46498
1.46396
1.46374
1.46391
1.46459
1.46539
1.46577
1.46607
1.46637
1.46669
1.46706
1.46738
1.46775
1.4684
1.46929
1.47014
1.47054
1.47047
1.46984
1.46845
1.46712
1.46626
1.46556
1.46489
1.4645
1.46448
1.46457
1.46485
1.46608
1.56765
2.4476
2.68494
2.62975
2.598
2.57607
2.55731
2.53993
2.52624
2.51798
2.50754
2.49378
2.4798
2.46649
2.45527
2.44798
2.44038
2.42894
2.41594
2.40593
2.40057
2.39754
2.39222
2.38431
2.37698
2.36953
2.36293
2.35781
2.35381
2.34876
2.34234
2.3367
2.33193
2.32825
2.32632
2.32573
2.32574
2.32566
2.32465
2.32185
2.31835
2.3162
2.31575
2.31607
2.3152
2.31348
2.31216
2.31189
2.31243
2.31458
2.31626
2.31652
2.31617
2.31473
2.31153
2.30736
2.30453
2.30428
1.49292
1.49239
1.49113
1.48886
1.48565
1.48328
1.48269
1.48274
1.48329
1.48453
1.48497
1.48493
1.48483
1.48507
1.48563
1.48659
1.48795
1.48898
1.48913
1.48889
1.4885
1.4878
1.48624
1.48396
1.4828
1.4827
1.48315
1.48482
1.48728
1.48836
1.48824
1.48776
1.48695
1.48536
1.48317
1.48163
1.4811
1.48085
1.48089
1.48202
1.48417
1.48591
1.48624
1.48591
1.48527
1.48458
1.48364
1.48228
1.48077
1.47989
1.47964
1.47975
1.48092
1.48286
1.48411
1.48429
1.48409
1.48359
1.48296
1.48208
1.48084
1.47956
1.47883
1.4787
1.47884
1.479
1.47924
1.48019
1.48187
1.48377
1.4853
1.48621
1.48645
1.48639
1.48609
1.48553
1.4846
1.48258
1.47975
1.47839
1.4783
1.47867
1.47996
1.48192
1.48324
1.48339
1.48306
1.48253
1.48178
1.48107
1.48061
1.48031
1.48007
1.4798
1.47946
1.47904
1.47854
1.47831
1.47843
1.47875
1.47884
1.47846
1.47743
1.4763
1.4753
1.47409
1.47266
1.47195
1.47186
1.4721
1.47279
1.47301
1.47288
1.47209
1.47084
1.46995
1.46978
1.47009
1.47115
1.47296
1.47468
1.47517
1.47481
1.47365
1.47163
1.46837
1.46472
1.46296
1.46248
1.46236
1.46255
1.46405
1.46728
1.46931
1.46945
1.46933
1.46914
1.46883
1.4684
1.46781
1.46679
1.46541
1.46403
1.46305
1.46274
1.46262
1.46259
1.46264
1.46292
1.46364
1.46504
1.46667
1.46728
1.46724
1.46689
1.46613
1.46473
1.46378
1.46362
1.46362
1.46381
1.46448
1.46496
1.46485
1.46436
1.46353
1.46277
1.46271
1.46296
1.46339
1.46384
1.46411
1.46413
1.46411
1.46427
1.46467
1.46505
1.46539
1.46573
1.46613
1.46636
1.46636
1.46613
1.46547
1.46435
1.46259
1.46084
1.46007
1.4599
1.4599
1.4599
1.46006
1.46093
1.46304
1.47613
1.58115
2.25745
2.62061
2.57415
2.53151
2.50734
2.49033
2.4743
2.45905
2.45006
2.44177
2.428
2.4139
2.39988
2.38766
2.37958
2.37671
2.37396
2.36796
2.3603
2.354
2.34893
2.34506
2.342
2.33913
2.33586
2.33256
2.32912
2.32597
2.32372
2.32124
2.31824
2.31533
2.31255
2.31053
2.30974
2.30973
2.31017
2.31015
2.30874
2.30607
2.30322
2.30123
2.30055
2.30054
2.30061
2.30096
2.30165
2.30162
2.30057
2.29887
2.29671
2.29435
2.29168
2.28901
2.28726
2.28649
2.28676
1.48975
1.48819
1.48538
1.48174
1.47998
1.47997
1.48031
1.48084
1.48242
1.48481
1.48565
1.48592
1.48601
1.48616
1.48647
1.48683
1.48706
1.48707
1.48692
1.48662
1.48592
1.48439
1.48256
1.48169
1.48163
1.48223
1.48392
1.48584
1.48628
1.48607
1.48565
1.48478
1.48304
1.48099
1.48001
1.47967
1.47954
1.48016
1.48196
1.484
1.48461
1.4844
1.48379
1.48296
1.48192
1.48061
1.47928
1.47851
1.47827
1.4782
1.47875
1.48038
1.48172
1.48186
1.48147
1.48089
1.48037
1.47968
1.47851
1.47692
1.47581
1.47562
1.47566
1.47568
1.47621
1.4774
1.47911
1.48079
1.48178
1.48207
1.48203
1.48189
1.4817
1.48146
1.48097
1.48001
1.47847
1.47672
1.47578
1.47578
1.47636
1.47771
1.47898
1.47926
1.47901
1.47861
1.47796
1.47708
1.47675
1.47674
1.47681
1.47688
1.47695
1.477
1.477
1.47706
1.47722
1.47734
1.47725
1.47658
1.47548
1.47429
1.47306
1.4717
1.47024
1.46933
1.46916
1.46921
1.4699
1.47126
1.47162
1.47152
1.47064
1.46886
1.46769
1.46755
1.46808
1.46964
1.47156
1.47259
1.47266
1.47241
1.4718
1.47047
1.46758
1.46387
1.46183
1.46127
1.46115
1.46145
1.46267
1.46487
1.46665
1.46707
1.46698
1.46681
1.46663
1.46636
1.46596
1.46529
1.46413
1.46236
1.46102
1.46071
1.46066
1.46067
1.46076
1.46107
1.46176
1.4631
1.46441
1.46469
1.46459
1.4643
1.46345
1.46197
1.46115
1.46113
1.46127
1.46183
1.46317
1.46432
1.46447
1.46433
1.46391
1.46326
1.46286
1.4627
1.4626
1.46248
1.46222
1.4619
1.46163
1.46161
1.46184
1.4622
1.46257
1.46286
1.46292
1.46305
1.46307
1.463
1.4626
1.46159
1.45998
1.45852
1.45782
1.45762
1.45761
1.45796
1.4588
1.45995
1.46195
1.47844
1.58121
1.7579
2.01469
2.42343
2.49914
2.48026
2.45493
2.43348
2.41736
2.40553
2.39719
2.39158
2.38237
2.37127
2.35908
2.34816
2.34195
2.34104
2.34334
2.34334
2.3385
2.33214
2.32473
2.32039
2.31931
2.31932
2.31939
2.31873
2.31661
2.31311
2.31003
2.30778
2.3059
2.30452
2.30349
2.30312
2.30295
2.30216
2.30142
2.30109
2.30038
2.2989
2.29722
2.29564
2.29447
2.29402
2.29373
2.29328
2.2928
2.29222
2.29057
2.2882
2.28524
2.28275
2.28138
2.28085
2.28182
2.28389
2.28454
1.48607
1.48263
1.47917
1.47803
1.47801
1.47817
1.47906
1.48154
1.48499
1.48687
1.4874
1.48714
1.48611
1.48566
1.48566
1.48567
1.48572
1.48565
1.4854
1.48478
1.48344
1.48199
1.48126
1.48128
1.48188
1.48339
1.48466
1.4848
1.48461
1.48422
1.48329
1.48151
1.47989
1.47914
1.47887
1.47904
1.48029
1.48242
1.48362
1.48359
1.48319
1.48248
1.48135
1.47975
1.47825
1.47748
1.47723
1.47713
1.47734
1.47852
1.48002
1.48042
1.48012
1.47952
1.47887
1.47804
1.47689
1.4754
1.47415
1.47379
1.47376
1.47375
1.47431
1.47548
1.47698
1.47831
1.47894
1.479
1.47879
1.47855
1.47839
1.47813
1.47768
1.47712
1.47651
1.47582
1.47495
1.47444
1.47459
1.47523
1.476
1.47626
1.47611
1.47588
1.47551
1.47472
1.47407
1.47402
1.47415
1.47454
1.47524
1.47589
1.47626
1.47647
1.47651
1.47638
1.47594
1.47526
1.4744
1.47338
1.47211
1.47054
1.46889
1.46776
1.46734
1.4672
1.46733
1.4687
1.47093
1.47166
1.47157
1.47064
1.46837
1.46662
1.46633
1.46665
1.46774
1.46944
1.47013
1.47008
1.47001
1.46978
1.46896
1.4671
1.46428
1.46178
1.46102
1.46098
1.46125
1.46225
1.46356
1.46419
1.46433
1.46458
1.46505
1.46505
1.46494
1.46475
1.46437
1.46354
1.46189
1.46002
1.45943
1.45942
1.45946
1.45956
1.45985
1.46053
1.4618
1.46285
1.46297
1.46285
1.46252
1.46164
1.4603
1.45962
1.45956
1.45977
1.4607
1.46244
1.46367
1.46379
1.46361
1.46325
1.4627
1.46214
1.46179
1.46152
1.46123
1.46091
1.46054
1.46001