/*--------------------------------*- C++ -*----------------------------------*\
  =========                 |
  \\      /  F ield         | OpenFOAM: The Open Source CFD Toolbox
   \\    /   O peration     | Website:  https://openfoam.org
    \\  /    A nd           | Version:  7
     \\/     M anipulation  |
\*---------------------------------------------------------------------------*/
FoamFile
{
    version     2.0;
    format      ascii;
    class       volScalarField;
    location    "3.2";
    object      p;
}
// * * * * * * * * * * * * * * * * * * * * * * * * * * * * * * * * * * * * * //

dimensions      [1 -1 -2 0 0 0 0];

internalField   nonuniform List<scalar> 
4128
(
5.02163
5.01701
5.01679
5.0193
5.02161
5.02351
5.02726
5.03441
5.04266
5.04458
5.0245
4.9858
4.93814
4.89103
4.85491
4.83197
4.82558
4.82993
4.84099
4.85897
4.88023
4.89284
4.88178
4.85264
4.82238
4.79752
4.78106
4.77253
4.76926
4.76941
4.77123
4.77477
4.77806
4.77512
4.75501
4.7183
4.67014
4.63341
4.6083
4.59625
4.59783
4.60806
4.62034
4.63123
4.63848
4.63596
4.61596
4.57703
4.52088
4.47749
4.45173
4.44635
4.46288
4.49122
4.52047
4.54159
4.5476
4.53022
4.49635
4.45029
4.41094
4.38531
4.37237
4.37295
4.3787
4.37945
4.37211
4.35914
4.34113
4.31778
4.28119
4.22725
4.18549
4.16393
4.1546
4.16263
4.18701
4.21655
4.23958
4.24395
4.23016
4.20619
4.16094
4.11362
4.08892
4.07387
4.06794
4.07148
4.07881
4.08148
4.07667
4.06907
4.06215
4.05547
4.04457
4.02415
3.99054
3.93812
3.88828
3.84858
3.81917
3.80044
3.78838
3.78635
3.7954
3.81365
3.84001
3.86475
3.88043
3.87387
3.8427
3.78717
3.72108
3.66663
3.6291
3.60749
3.59797
3.60434
3.62562
3.66036
3.7051
3.74125
3.75472
3.74038
3.7091
3.66024
3.58321
3.50949
3.47483
5.01001
5.00886
5.0108
5.01348
5.01468
5.01531
5.01788
5.0223
5.02511
5.01965
5.0039
4.98079
4.9507
4.91892
4.8886
4.86221
4.84263
4.83157
4.83153
4.84194
4.85598
4.86402
4.86609
4.8616
4.84971
4.83333
4.814
4.7935
4.7751
4.7606
4.75036
4.74201
4.73199
4.71894
4.70507
4.69394
4.68341
4.67169
4.65982
4.64593
4.63131
4.61969
4.61195
4.60456
4.59461
4.58336
4.57073
4.55979
4.5464
4.5258
4.50165
4.48271
4.47735
4.48666
4.5022
4.51254
4.51149
4.49768
4.47612
4.44848
4.42128
4.39875
4.38481
4.37828
4.37521
4.36924
4.35576
4.33538
4.31022
4.28128
4.25413
4.23562
4.22004
4.2067
4.19684
4.19438
4.20254
4.21429
4.2173
4.21155
4.19931
4.17768
4.15334
4.13049
4.10343
4.08253
4.06962
4.06504
4.06823
4.07071
4.06546
4.05417
4.03925
4.02357
4.00609
3.98714
3.96799
3.95087
3.93113
3.90476
3.87277
3.84073
3.81622
3.80186
3.79517
3.79393
3.79502
3.80139
3.80723
3.8119
3.81044
3.79769
3.77627
3.74657
3.71013
3.67544
3.65055
3.64003
3.64351
3.65549
3.66615
3.67399
3.67352
3.65824
3.62882
3.59499
3.56933
3.55345
3.54064
5.00425
5.00919
5.01769
5.02429
5.02517
5.02126
5.01556
5.00828
4.99789
4.98493
4.9723
4.96097
4.94956
4.93713
4.92338
4.90751
4.88919
4.87066
4.85537
4.84391
4.83563
4.83369
4.84034
4.85198
4.85958
4.86107
4.85479
4.83917
4.81673
4.79002
4.76232
4.73333
4.70385
4.67764
4.66171
4.65927
4.66721
4.67714
4.6864
4.69418
4.6963
4.68084
4.64739
4.60561
4.56341
4.53012
4.51241
4.51448
4.52931
4.54319
4.54897
4.54315
4.52776
4.50971
4.49218
4.47861
4.46898
4.461
4.45363
4.44423
4.42996
4.41549
4.40288
4.39247
4.38318
4.3725
4.35763
4.33551
4.30481
4.26899
4.24284
4.23
4.22891
4.23447
4.24193
4.24578
4.2377
4.21761
4.19447
4.17256
4.15553
4.14391
4.13879
4.13114
4.11652
4.10018
4.08586
4.07569
4.07119
4.07104
4.06786
4.05261
4.02888
4.00051
3.97226
3.95218
3.94198
3.94216
3.94231
3.93537
3.92285
3.90509
3.87978
3.84663
3.81222
3.78377
3.7595
3.74355
3.73859
3.7406
3.75193
3.77114
3.78292
3.78183
3.77174
3.7577
3.739
3.71545
3.68818
3.65929
3.63012
3.60469
3.58435
3.5652
3.54889
3.53702
3.53617
3.5447
3.56368
4.97774
4.98358
4.99804
5.01423
5.02465
5.02543
5.01689
5.0002
4.97901
4.95984
4.94768
4.94267
4.94056
4.93721
4.93045
4.91943
4.90519
4.89037
4.87498
4.85839
4.84362
4.83692
4.84183
4.85294
4.86293
4.86738
4.86296
4.84765
4.8258
4.79692
4.76409
4.73227
4.70415
4.68138
4.66765
4.66177
4.66109
4.66395
4.67226
4.68514
4.6964
4.69782
4.67902
4.64506
4.59737
4.54584
4.51065
4.49375
4.49935
4.52345
4.55448
4.57492
4.56933
4.5397
4.49587
4.45158
4.42451
4.41447
4.42039
4.43218
4.43797
4.43134
4.4142
4.38972
4.36557
4.34415
4.32567
4.31127
4.30011
4.28724
4.27316
4.26225
4.25835
4.26184
4.26857
4.26803
4.25381
4.23066
4.19807
4.16106
4.13322
4.11712
4.11267
4.11137
4.10673
4.09824
4.08748
4.07606
4.06515
4.0568
4.05135
4.04089
4.02001
3.99362
3.96741
3.94774
3.93775
3.93691
3.93859
3.93969
3.93802
3.92814
3.90862
3.88066
3.84531
3.80634
3.76793
3.73572
3.71167
3.7064
3.72089
3.74451
3.76847
3.78832
3.79958
3.79869
3.78429
3.75893
3.72294
3.67614
3.62572
3.5789
3.54133
3.51742
3.50952
3.51573
3.52538
3.53813
3.57438
4.96633
4.96479
4.97635
4.99649
5.01385
5.01838
5.00589
4.98318
4.95931
4.94054
4.93094
4.93272
4.93995
4.94554
4.94105
4.92742
4.90839
4.88926
4.87118
4.85518
4.84422
4.84285
4.85075
4.8641
4.87558
4.87726
4.86514
4.84504
4.81629
4.78091
4.7483
4.72406
4.70576
4.69774
4.69875
4.69863
4.69253
4.68288
4.67318
4.66379
4.65773
4.65838
4.66079
4.65265
4.63191
4.6018
4.56275
4.52934
4.51322
4.5167
4.53532
4.55599
4.56285
4.54598
4.51323
4.46633
4.4235
4.40157
4.39851
4.4154
4.43666
4.44121
4.42584
4.39784
4.35383
4.3097
4.28366
4.27121
4.27336
4.29217
4.31573
4.32694
4.32249
4.30784
4.28356
4.25842
4.23281
4.20733
4.18337
4.16264
4.14381
4.12925
4.11775
4.10799
4.09937
4.09125
4.08289
4.07299
4.06053
4.04649
4.03302
4.02099
4.00876
3.99416
3.97979
3.96926
3.9627
3.95698
3.95061
3.94197
3.92795
3.9095
3.88717
3.86245
3.83778
3.81368
3.78929
3.76803
3.75357
3.74888
3.75157
3.75986
3.77415
3.78939
3.7944
3.78282
3.76153
3.73272
3.69557
3.65352
3.61234
3.57682
3.5495
3.53044
3.53073
3.54362
3.55603
3.56702
3.59207
4.96804
4.96064
4.96655
4.9843
5.00218
5.00617
4.99363
4.97465
4.95452
4.93745
4.92692
4.92687
4.93454
4.94225
4.93967
4.92807
4.91275
4.8959
4.8798
4.86589
4.85686
4.85586
4.86201
4.87011
4.87285
4.8626
4.84496
4.82113
4.79139
4.76292
4.74232
4.72568
4.71402
4.71235
4.71899
4.72351
4.71897
4.70426
4.6822
4.65946
4.64066
4.63137
4.63428
4.6415
4.64503
4.63788
4.6201
4.58973
4.55227
4.52517
4.5088
4.50353
4.50651
4.50904
4.4993
4.47852
4.4497
4.42192
4.40779
4.40716
4.41491
4.42019
4.41098
4.38784
4.34861
4.30234
4.2702
4.25344
4.25333
4.28112
4.32736
4.3639
4.36831
4.34496
4.30746
4.25921
4.21412
4.18272
4.16159
4.14959
4.14497
4.14241
4.13414
4.11784
4.09908
4.0807
4.06321
4.04713
4.03212
4.01894
4.0092
4.00434
4.00426
4.00431
4.00062
3.99525
3.98924
3.98003
3.96467
3.94386
3.91815
3.8885
3.86003
3.83614
3.81741
3.80458
3.79889
3.79899
3.8012
3.80074
3.79689
3.79237
3.78875
3.78287
3.76785
3.74412
3.71549
3.68272
3.64775
3.61516
3.58983
3.57083
3.55673
3.55456
3.56792
3.58885
3.60925
3.61853
3.60965
4.97659
4.96179
4.95869
4.97004
4.98557
4.98922
4.98138
4.96773
4.95319
4.93853
4.92789
4.92801
4.93696
4.94412
4.93847
4.92407
4.90754
4.89022
4.8747
4.86321
4.86095
4.87066
4.88451
4.88882
4.87404
4.84902
4.81442
4.77885
4.75155
4.73531
4.72741
4.72755
4.73568
4.74644
4.75244
4.74743
4.73164
4.7105
4.68328
4.65569
4.63523
4.62292
4.62412
4.63477
4.64684
4.6544
4.65173
4.63466
4.59794
4.54242
4.49243
4.46393
4.4503
4.45383
4.46942
4.48305
4.4818
4.46889
4.44706
4.4225
4.40291
4.38783
4.3751
4.3582
4.33609
4.31353
4.29166
4.27878
4.28046
4.29737
4.32316
4.34653
4.3561
4.34058
4.30828
4.26466
4.21979
4.18685
4.16519
4.15357
4.14955
4.14924
4.14882
4.13901
4.11606
4.08772
4.05611
4.02626
4.00195
3.98404
3.97617
3.98138
3.99734
4.01491
4.0246
4.02297
4.01102
3.99075
3.96239
3.92757
3.89347
3.86475
3.84215
3.82516
3.81855
3.82392
3.83547
3.8466
3.85156
3.84592
3.82968
3.80718
3.78205
3.75452
3.72564
3.69576
3.66523
3.63576
3.6119
3.59598
3.58484
3.57794
3.57597
3.58454
3.60958
3.64393
3.66442
3.65644
3.61709
4.98639
4.97422
4.97282
4.98416
4.99324
4.98828
4.97778
4.96647
4.95474
4.94408
4.9398
4.94502
4.95229
4.95017
4.93554
4.91644
4.89701
4.88219
4.8736
4.8727
4.88177
4.89805
4.91039
4.90265
4.88043
4.84415
4.79555
4.75538
4.73654
4.72752
4.72955
4.74494
4.76607
4.77763
4.76722
4.74695
4.72086
4.69675
4.6793
4.66646
4.65825
4.65285
4.65005
4.64864
4.64749
4.64552
4.63951
4.62507
4.59666
4.55023
4.4951
4.45019
4.42565
4.41828
4.43579
4.46756
4.49314
4.49831
4.48113
4.44747
4.40284
4.36591
4.34181
4.32788
4.32599
4.32827
4.32667
4.32305
4.3188
4.31059
4.29924
4.29329
4.29703
4.3007
4.2871
4.26152
4.23521
4.20877
4.1851
4.16603
4.15018
4.13905
4.13477
4.13422
4.12363
4.09942
4.06621
4.02802
3.99628
3.97489
3.9692
3.98633
4.01487
4.03581
4.03956
4.02727
4.00395
3.97078
3.93256
3.89785
3.87354
3.85633
3.84809
3.85148
3.86158
3.87359
3.88328
3.88051
3.86089
3.8368
3.8086
3.7754
3.74337
3.71769
3.69662
3.67758
3.65757
3.6362
3.62039
3.61034
3.60172
3.59586
3.5971
3.61279
3.6456
3.67077
3.66782
3.64776
3.59703
5.00964
5.00449
5.00753
5.0047
4.99142
4.97324
4.96125
4.95704
4.95693
4.95895
4.96391
4.96662
4.96081
4.94823
4.93426
4.92043
4.90836
4.89905
4.89354
4.89094
4.88894
4.8876
4.88736
4.87975
4.86036
4.83001
4.7899
4.75141
4.72982
4.71982
4.71792
4.72555
4.74061
4.75241
4.74761
4.73004
4.71096
4.69781
4.69377
4.69821
4.70356
4.69791
4.67912
4.65267
4.62476
4.60165
4.5835
4.56687
4.55035
4.52822
4.50127
4.4706
4.44669
4.43728
4.44556
4.46614
4.48814
4.49879
4.48822
4.46008
4.41681
4.37259
4.34394
4.32666
4.32951
4.34649
4.3595
4.35315
4.33001
4.30107
4.272
4.24997
4.24582
4.25906
4.27355
4.27376
4.25789
4.23397
4.20209
4.16633
4.14169
4.12393
4.11403
4.11123
4.11073
4.10246
4.08131
4.05133
4.02432
4.00718
4.00456
4.01292
4.01717
4.00787
3.99255
3.9744
3.95165
3.9253
3.90207
3.88598
3.87706
3.88164
3.89914
3.91831
3.92402
3.91045
3.8862
3.85578
3.81643
3.77849
3.75125
3.73439
3.72342
3.71816
3.71737
3.71493
3.70466
3.6859
3.65689
3.62864
3.6107
3.59832
3.59636
3.61283
3.63361
3.63865
3.63043
3.61285
3.5671
5.04938
5.04073
5.02796
5.00488
4.97801
4.96363
4.9587
4.96344
4.97598
4.98587
4.98236
4.97125
4.95841
4.94674
4.93809
4.93301
4.92597
4.91361
4.89752
4.88178
4.86907
4.86043
4.8554
4.84788
4.8352
4.81994
4.80114
4.77107
4.73417
4.71081
4.69905
4.69333
4.70291
4.72654
4.73918
4.73755
4.72905
4.72088
4.71746
4.71623
4.71349
4.7038
4.68292
4.65143
4.60514
4.55775
4.52192
4.5014
4.49706
4.50304
4.50929
4.51085
4.50726
4.49957
4.49009
4.47858
4.46794
4.46366
4.46191
4.44792
4.4223
4.39379
4.36903
4.35301
4.34925
4.35453
4.35808
4.34497
4.31857
4.28902
4.26072
4.23759
4.2288
4.24092
4.26237
4.27137
4.25726
4.23459
4.20614
4.17004
4.13851
4.11794
4.10007
4.0856
4.07808
4.08135
4.08426
4.07581
4.06821
4.06795
4.05566
4.0271
3.99595
3.97108
3.94924
3.93104
3.91814
3.90845
3.90158
3.90015
3.90583
3.91743
3.92863
3.93201
3.92437
3.90242
3.86713
3.81951
3.77952
3.75308
3.73545
3.72805
3.734
3.7415
3.74095
3.7306
3.71643
3.69904
3.67034
3.63386
3.60815
3.59493
3.59307
3.6006
3.60227
3.59286
3.57955
3.56221
3.53727
5.07503
5.05434
5.02963
5.00227
4.98437
4.97506
4.97563
4.98802
4.99769
4.99218
4.97987
4.96369
4.95097
4.94126
4.93584
4.93612
4.93316
4.92037
4.9008
4.87559
4.85176
4.83439
4.82342
4.82109
4.82422
4.8231
4.81476
4.79977
4.77032
4.7267
4.69705
4.6843
4.68067
4.69543
4.73017
4.75277
4.75479
4.74095
4.7233
4.7069
4.694
4.67955
4.65923
4.62957
4.58535
4.53501
4.49896
4.47619
4.46747
4.48302
4.51688
4.54636
4.55899
4.55067
4.52443
4.49002
4.45748
4.43243
4.42341
4.42559
4.42539
4.4148
4.3988
4.38296
4.36788
4.35258
4.33831
4.3244
4.30537
4.28236
4.25944
4.23986
4.2279
4.22949
4.24151
4.25329
4.25163
4.23652
4.21734
4.1885
4.14526
4.10252
4.0756
4.05617
4.04248
4.04185
4.05899
4.08561
4.11081
4.11831
4.10033
4.06345
4.00936
3.96329
3.93608
3.91848
3.90806
3.90558
3.90678
3.90796
3.90697
3.90494
3.90387
3.90239
3.89314
3.87599
3.85051
3.82084
3.79247
3.77192
3.76042
3.75617
3.7506
3.7422
3.72856
3.71243
3.69488
3.67904
3.66953
3.65336
3.63243
3.61758
3.60614
3.58931
3.57144
3.54977
3.53159
3.5223
3.52388
5.08114
5.05958
5.03254
5.01423
5.00399
4.99843
5.0006
5.0052
4.99753
4.98527
4.96757
4.94776
4.9369
4.93096
4.92978
4.93251
4.9325
4.92452
4.90917
4.88514
4.85214
4.82353
4.80594
4.79703
4.80034
4.81285
4.82187
4.81877
4.80628
4.77638
4.72908
4.69674
4.68575
4.68781
4.70438
4.73417
4.75138
4.74727
4.7223
4.69082
4.66377
4.63781
4.60992
4.58249
4.56179
4.53975
4.51548
4.49466
4.4871
4.50134
4.52874
4.55216
4.56233
4.55452
4.53081
4.50093
4.46848
4.43842
4.41795
4.41633
4.42318
4.42501
4.41541
4.39742
4.37517
4.35152
4.32975
4.31237
4.29654
4.27819
4.25857
4.24019
4.22638
4.22288
4.23167
4.24631
4.25319
4.24449
4.2268
4.19987
4.1503
4.08851
4.04973
4.02928
4.01531
4.01459
4.0411
4.09949
4.14351
4.14295
4.12375
4.0966
4.05256
3.99507
3.94873
3.92334
3.90781
3.89802
3.89179
3.88452
3.87657
3.86854
3.85946
3.85042
3.84445
3.84153
3.84107
3.83973
3.83654
3.83052
3.81393
3.78442
3.74898
3.71708
3.69013
3.66633
3.64991
3.64542
3.64996
3.65985
3.66877
3.66277
3.63936
3.6011
3.56175
3.5356
3.51758
3.50986
3.52641
5.07619
5.05241
5.03188
5.02234
5.01742
5.01677
5.01778
5.00944
4.99673
4.97875
4.95409
4.93086
4.91544
4.9064
4.90198
4.90336
4.90904
4.91438
4.91282
4.90011
4.87948
4.84718
4.81426
4.79605
4.78555
4.7848
4.79879
4.8179
4.82348
4.81592
4.78888
4.74644
4.70985
4.69124
4.6871
4.69922
4.72273
4.73414
4.71639
4.67705
4.62692
4.59106
4.56801
4.55463
4.54851
4.54733
4.54587
4.54254
4.53943
4.53721
4.53516
4.53385
4.53069
4.52176
4.50875
4.49401
4.4776
4.46089
4.44593
4.43477
4.42801
4.4227
4.41158
4.39343
4.3714
4.34809
4.32532
4.30494
4.28674
4.268
4.24904
4.23281
4.22313
4.2244
4.23414
4.244
4.24442
4.23426
4.21769
4.19366
4.15368
4.10029
4.05243
4.02206
4.00611
4.01117
4.05161
4.10825
4.13636
4.13397
4.11726
4.09695
4.0716
4.03492
3.99209
3.95395
3.92336
3.89961
3.88074
3.86344
3.84786
3.8303
3.81026
3.79441
3.78889
3.79899
3.82471
3.85308
3.87745
3.88052
3.86424
3.82945
3.76669
3.69793
3.65117
3.62406
3.61066
3.60582
3.61925
3.66065
3.69419
3.6947
3.67763
3.64231
3.58703
3.54282
3.52381
3.5177
3.51824
5.06285
5.03864
5.02449
5.01959
5.02333
5.03323
5.03708
5.02713
5.01171
4.98668
4.95917
4.93703
4.91796
4.89885
4.88255
4.87284
4.868
4.87199
4.88484
4.89793
4.89713
4.8804
4.85218
4.81352
4.78842
4.77427
4.76976
4.7844
4.81128
4.82783
4.8239
4.79922
4.76197
4.72039
4.68917
4.66839
4.6722
4.68757
4.69515
4.67258
4.63469
4.59266
4.56227
4.54309
4.54056
4.54901
4.56207
4.57429
4.57838
4.56771
4.54683
4.52352
4.50317
4.48953
4.48119
4.47626
4.47449
4.47359
4.47032
4.45965
4.44138
4.42051
4.39922
4.37783
4.35643
4.33542
4.31499
4.29562
4.27723
4.25973
4.2439
4.23245
4.22863
4.23195
4.23589
4.23366
4.22464
4.21371
4.19674
4.1733
4.14561
4.11689
4.08882
4.06358
4.04676
4.04823
4.06568
4.08014
4.08756
4.09347
4.09187
4.07723
4.05506
4.03357
4.01055
3.98504
3.96045
3.93285
3.8995
3.86363
3.83134
3.80247
3.7757
3.75773
3.74807
3.75491
3.78954
3.85294
3.89176
3.89215
3.87836
3.8547
3.80057
3.71194
3.64235
3.61452
3.60155
3.59512
3.60602
3.64352
3.68642
3.69886
3.6888
3.67201
3.64033
3.59771
3.55896
3.53711
3.51854
5.05815
5.03336
5.01726
5.01011
5.01375
5.02622
5.02934
5.0228
5.01017
4.99227
4.97549
4.95952
4.93936
4.91273
4.88262
4.85927
4.84563
4.83862
4.84545
4.86477
4.8863
4.89506
4.87887
4.84541
4.80301
4.77426
4.75873
4.75997
4.77755
4.80909
4.83126
4.82338
4.79351
4.75073
4.70154
4.66372
4.63387
4.63513
4.65552
4.67148
4.65551
4.62368
4.59429
4.57335
4.56085
4.5559
4.55855
4.56637
4.57219
4.56784
4.55167
4.5287
4.50533
4.48539
4.47172
4.46539
4.46448
4.46463
4.46216
4.45647
4.44343
4.41791
4.38818
4.36016
4.33719
4.31871
4.30252
4.28732
4.27395
4.26365
4.25779
4.2555
4.25351
4.24415
4.22788
4.21088
4.19376
4.17598
4.15931
4.14439
4.13212
4.12154
4.11493
4.11684
4.12037
4.11263
4.09174
4.0708
4.05682
4.04836
4.03788
4.02801
4.019
4.0091
3.99635
3.98502
3.97517
3.95858
3.93326
3.89361
3.84231
3.79347
3.764
3.74636
3.73402
3.73707
3.76835
3.81663
3.85912
3.87838
3.87048
3.8504
3.81577
3.75509
3.68154
3.6304
3.60886
3.60018
3.60576
3.62335
3.64339
3.6632
3.67715
3.6738
3.66157
3.64167
3.61373
3.58074
3.52506
5.05641
5.03716
5.0218
5.01393
5.01196
5.01159
5.00591
4.99552
4.98605
4.9833
4.98256
4.97659
4.96001
4.9307
4.89034
4.85582
4.83465
4.81896
4.81866
4.83341
4.85635
4.87719
4.88675
4.8726
4.84009
4.80157
4.77062
4.74811
4.75299
4.78062
4.81181
4.82116
4.79561
4.75782
4.71001
4.66671
4.63466
4.61142
4.62198
4.65346
4.67178
4.6602
4.63578
4.61032
4.58591
4.56374
4.54689
4.53876
4.53854
4.54041
4.53993
4.53422
4.52223
4.50543
4.48694
4.46855
4.45084
4.43632
4.42711
4.41885
4.41275
4.40543
4.38544
4.3609
4.33571
4.31367
4.29643
4.28289
4.27398
4.27313
4.28161
4.28982
4.28029
4.25687
4.22429
4.1897
4.1637
4.14368
4.12749
4.11654
4.11092
4.11634
4.13222
4.15326
4.16588
4.15973
4.13679
4.09752
4.04822
4.01162
3.99259
3.9816
3.97282
3.96675
3.96869
3.9719
3.96452
3.95204
3.93699
3.91786
3.88616
3.84214
3.79451
3.75795
3.74049
3.74267
3.76771
3.7953
3.80908
3.81944
3.82943
3.82631
3.80709
3.77534
3.73549
3.69146
3.65148
3.62605
3.61276
3.60817
3.61282
3.6205
3.63305
3.64911
3.65538
3.64933
3.63625
3.61827
3.5584
5.05181
5.03799
5.0269
5.01788
5.01107
5.00139
4.98604
4.9712
4.96445
4.96502
4.97339
4.97903
4.97002
4.94695
4.90668
4.86278
4.83131
4.81042
4.80355
4.81045
4.82787
4.85025
4.86724
4.8748
4.86065
4.8301
4.79732
4.77094
4.75348
4.7551
4.77657
4.79856
4.78894
4.75426
4.71293
4.67328
4.63992
4.61334
4.61087
4.6415
4.68061
4.68658
4.66172
4.62953
4.59711
4.56664
4.53933
4.51895
4.51186
4.51747
4.52685
4.53351
4.5335
4.52354
4.50316
4.47544
4.44088
4.40899
4.38511
4.3731
4.37222
4.37822
4.38326
4.37551
4.35434
4.32632
4.30021
4.28375
4.27492
4.2796
4.29525
4.30355
4.29357
4.273
4.24122
4.19704
4.15405
4.12596
4.10874
4.10034
4.10633
4.12115
4.13473
4.14251
4.1442
4.14187
4.13418
4.11258
4.07806
4.03228
3.99215
3.96429
3.94907
3.94147
3.93549
3.92663
3.92
3.9152
3.91164
3.90767
3.90189
3.88809
3.86508
3.83809
3.81415
3.79837
3.78931
3.78377
3.77963
3.77261
3.76668
3.76499
3.76433
3.75553
3.74185
3.7251
3.7005
3.66779
3.63419
3.61079
3.59508
3.59016
3.5964
3.60782
3.62397
3.63538
3.63237
3.62197
3.58269
5.05566
5.04464
5.03463
5.02305
5.01052
4.99465
4.97682
4.96232
4.95221
4.94991
4.95504
4.95991
4.95882
4.9475
4.92826
4.90137
4.86517
4.82887
4.79955
4.79079
4.80208
4.82275
4.84764
4.86677
4.87072
4.85103
4.81967
4.7891
4.76504
4.75321
4.75614
4.77071
4.777
4.75179
4.71475
4.67734
4.6447
4.61937
4.61374
4.6377
4.67729
4.69342
4.66828
4.63351
4.59724
4.56571
4.53903
4.52035
4.51335
4.51729
4.5243
4.52705
4.52316
4.51321
4.49619
4.47164
4.43821
4.39941
4.36685
4.34578
4.33824
4.34792
4.36853
4.37998
4.37279
4.35154
4.32105
4.29408
4.27965
4.27851
4.28591
4.28756
4.28122
4.27056
4.25388
4.22924
4.19344
4.15926
4.13534
4.12296
4.12189
4.11993
4.10995
4.09712
4.08772
4.084
4.0846
4.08712
4.08534
4.07035
4.04847
4.02048
3.98729
3.95166
3.91891
3.89398
3.87329
3.85714
3.84916
3.8552
3.87092
3.88631
3.90217
3.91466
3.91325
3.89043
3.84786
3.79407
3.75446
3.73408
3.71762
3.70251
3.69555
3.70287
3.71447
3.71476
3.7037
3.68619
3.66012
3.62921
3.60409
3.58632
3.57557
3.57948
3.59914
3.6127
3.6117
3.60535
3.57997
5.05965
5.05123
5.0417
5.03011
5.01682
5.00234
4.98883
4.97504
4.96531
4.9554
4.94557
4.93723
4.93279
4.93074
4.93126
4.92889
4.91113
4.87398
4.83574
4.80771
4.79658
4.80477
4.82567
4.84914
4.86476
4.86178
4.83789
4.80646
4.77869
4.75815
4.74681
4.74657
4.75366
4.75084
4.72118
4.68385
4.64938
4.62373
4.61332
4.6253
4.65253
4.67541
4.66324
4.63108
4.59553
4.56657
4.54638
4.53612
4.53438
4.53411
4.52743
4.51258
4.49617
4.48149
4.4685
4.45522
4.43583
4.41013
4.37854
4.35009
4.33389
4.33346
4.34296
4.35476
4.36389
4.36128
4.34358
4.32023
4.29833
4.28219
4.26672
4.25216
4.24333
4.2389
4.23766
4.23514
4.22761
4.21583
4.20235
4.18524
4.1597
4.12481
4.08443
4.04638
4.02221
4.00814
4.00544
4.02052
4.04524
4.07115
4.09331
4.09405
4.07336
4.03176
3.96507
3.88868
3.83312
3.80691
3.7939
3.79007
3.80349
3.84597
3.9048
3.94905
3.95999
3.94563
3.91639
3.86449
3.79039
3.71851
3.67218
3.65148
3.64365
3.65006
3.66591
3.67734
3.67644
3.66643
3.65197
3.63278
3.61639
3.60317
3.59483
3.59832
3.61286
3.61508
3.60391
3.59341
3.56719
5.05549
5.05008
5.04312
5.03211
5.01963
5.00638
4.99953
5.00077
4.99521
4.97756
4.95138
4.92754
4.91102
4.90439
4.90567
4.91041
4.91346
4.90505
4.87737
4.84068
4.81031
4.7965
4.80132
4.81868
4.83993
4.85698
4.85898
4.83574
4.80168
4.76894
4.74164
4.72308
4.71948
4.72642
4.72321
4.69597
4.66242
4.63371
4.61467
4.60863
4.619
4.63915
4.65103
4.63423
4.60583
4.57998
4.56408
4.55842
4.55676
4.54489
4.52257
4.49599
4.46713
4.4433
4.42687
4.41867
4.41884
4.42018
4.41244
4.39516
4.37025
4.34221
4.32195
4.31196
4.31882
4.33356
4.34557
4.3477
4.33496
4.30915
4.27211
4.2348
4.21052
4.19602
4.1938
4.20386
4.21964
4.23552
4.24383
4.23078
4.20173
4.16119
4.10812
4.04741
3.99219
3.9575
3.94208
3.94382
3.96944
4.02377
4.08197
4.11279
4.10919
4.08724
4.04301
3.96481
3.87212
3.80186
3.76606
3.75141
3.75871
3.80257
3.87134
3.92752
3.94984
3.94731
3.9313
3.9032
3.84986
3.77423
3.70309
3.65809
3.63529
3.62578
3.63553
3.64738
3.64497
3.6329
3.62019
3.60929
3.59946
3.59236
3.59389
3.61088
3.62866
3.62458
3.61206
3.59961
3.56784
5.05214
5.04636
5.03921
5.0285
5.02033
5.01861
5.02031
5.02266
5.02098
5.00975
4.98812
4.95867
4.92462
4.89375
4.87405
4.87043
4.88029
4.89477
4.89983
4.88047
4.84391
4.81014
4.78825
4.7835
4.79576
4.8215
4.85016
4.86184
4.83419
4.79041
4.74517
4.71007
4.68721
4.68543
4.69595
4.69785
4.67829
4.6501
4.62333
4.60267
4.59202
4.59965
4.62027
4.6345
4.62653
4.60866
4.59354
4.58098
4.56386
4.54058
4.51467
4.4848
4.45113
4.42009
4.3968
4.38407
4.39295
4.41559
4.43575
4.43551
4.41345
4.37814
4.33385
4.30225
4.28493
4.29242
4.32217
4.34938
4.35125
4.33112
4.30099
4.25932
4.21796
4.19016
4.17232
4.16817
4.17884
4.19781
4.2145
4.21916
4.20346
4.17667
4.13999
4.09065
4.03384
3.98133
3.94611
3.93204
3.9451
3.98395
4.02831
4.06377
4.08011
4.07289
4.05015
4.00758
3.94228
3.86731
3.80777
3.77751
3.77104
3.79114
3.83197
3.87224
3.89687
3.90271
3.89365
3.87439
3.84479
3.80472
3.7588
3.713
3.67505
3.65177
3.6404
3.63298
3.62214
3.60929
3.59816
3.5893
3.58216
3.57939
3.58816
3.61109
3.62485
3.61916
3.60859
3.59856
3.56943
5.03626
5.0268
5.02331
5.02922
5.03306
5.03295
5.02864
5.02181
5.01393
5.00659
4.99953
4.98856
4.96916
4.93834
4.90105
4.8686
4.85297
4.85734
4.87535
4.88935
4.87319
4.83297
4.79383
4.76408
4.75274
4.76742
4.80309
4.83918
4.84671
4.81511
4.76915
4.71658
4.67899
4.65648
4.656
4.66989
4.67915
4.66925
4.64378
4.61441
4.5904
4.57686
4.5859
4.61236
4.63395
4.63525
4.62054
4.59551
4.56268
4.52915
4.50006
4.47249
4.44495
4.41922
4.39645
4.38303
4.38876
4.40868
4.42735
4.43105
4.41575
4.39139
4.35851
4.32322
4.29823
4.29196
4.31071
4.33415
4.33911
4.32376
4.30141
4.27284
4.23721
4.20111
4.17235
4.15146
4.13661
4.13464
4.14641
4.16143
4.16886
4.1607
4.13945
4.11362
4.08071
4.04257
4.00452
3.97599
3.96307
3.96038
3.96691
3.98314
4.00512
4.01824
4.01362
3.99714
3.97259
3.93438
3.89028
3.85127
3.82499
3.8115
3.80588
3.80957
3.8216
3.83097
3.82902
3.81982
3.80938
3.79864
3.78563
3.76783
3.74313
3.71096
3.67365
3.63844
3.61165
3.59402
3.58133
3.57218
3.5678
3.57168
3.58557
3.60339
3.60669
3.59969
3.59026
3.57952
3.55089
5.02961
5.00792
4.99917
5.00956
5.03358
5.05453
5.05605
5.03533
5.0059
4.98029
4.96628
4.96278
4.96217
4.95518
4.93195
4.89334
4.85687
4.83525
4.83816
4.85996
4.87808
4.86093
4.81839
4.77535
4.74377
4.73124
4.7456
4.77731
4.80553
4.81148
4.7857
4.74462
4.69467
4.65848
4.63856
4.63682
4.65002
4.66256
4.66057
4.63892
4.61105
4.58783
4.57794
4.59056
4.6177
4.63384
4.62166
4.59614
4.56229
4.52273
4.48829
4.46133
4.43741
4.41711
4.40244
4.39707
4.40052
4.40512
4.40335
4.39629
4.38869
4.37871
4.3617
4.34214
4.32765
4.32427
4.32779
4.32691
4.31681
4.30247
4.28466
4.26271
4.23795
4.20836
4.17436
4.14171
4.11577
4.09506
4.08871
4.10052
4.118
4.13116
4.13697
4.13652
4.13129
4.11987
4.09749
4.05764
4.00001
3.94602
3.91775
3.90583
3.91236
3.93365
3.95831
3.97456
3.97901
3.97502
3.96414
3.94078
3.90103
3.8503
3.80405
3.77422
3.75821
3.75602
3.7611
3.76684
3.77403
3.78319
3.7913
3.7914
3.77948
3.75628
3.71714
3.66782
3.62377
3.59408
3.5753
3.56192
3.55691
3.56615
3.58249
3.5907
3.58633
3.57751
3.56725
3.55378
3.525
5.02937
4.99324
4.97741
4.9863
5.01685
5.05582
5.08008
5.07085
5.03138
4.98516
4.94766
4.92741
4.92364
4.92741
4.92661
4.90847
4.87325
4.83992
4.81974
4.82215
4.84175
4.85658
4.84092
4.80445
4.76542
4.73491
4.71629
4.71566
4.73376
4.75907
4.77326
4.75817
4.7257
4.6847
4.65258
4.63324
4.6262
4.63283
4.64431
4.64843
4.63538
4.61352
4.59537
4.58854
4.59573
4.6058
4.59907
4.57721
4.55169
4.52098
4.49217
4.46848
4.44907
4.43503
4.42557
4.41991
4.41305
4.39877
4.37935
4.36195
4.35116
4.34875
4.35106
4.35648
4.36539
4.37204
4.35898
4.33126
4.30126
4.27637
4.25595
4.23621
4.21436
4.19052
4.16278
4.1308
4.10079
4.0772
4.06017
4.05976
4.07694
4.10245
4.12789
4.1488
4.16353
4.16501
4.14865
4.11779
4.06019
3.97707
3.90226
3.86353
3.84921
3.85583
3.89022
3.93265
3.96267
3.9791
3.98157
3.96849
3.93965
3.89204
3.83643
3.78381
3.74303
3.72149
3.71454
3.72374
3.74322
3.76246
3.7768
3.78162
3.77459
3.75783
3.72872
3.6898
3.64962
3.61587
3.59252
3.57825
3.57409
3.58081
3.58771
3.58088
3.56811
3.55444
3.53769
3.51821
3.49684
5.06377
5.00527
4.96653
4.9577
4.97705
5.01614
5.05619
5.07221
5.05145
5.00568
4.9578
4.91978
4.89757
4.89106
4.89334
4.8934
4.87758
4.84868
4.82175
4.80471
4.80522
4.82046
4.83391
4.82844
4.80312
4.76988
4.73485
4.70589
4.68812
4.69494
4.72094
4.74226
4.73599
4.70984
4.67753
4.6501
4.62941
4.61638
4.61725
4.62913
4.63963
4.63635
4.61899
4.60051
4.58598
4.57599
4.56552
4.54838
4.528
4.50707
4.48737
4.47107
4.45964
4.45475
4.45348
4.44577
4.42351
4.39339
4.36221
4.33622
4.31772
4.31338
4.32703
4.3551
4.38712
4.39466
4.37323
4.34285
4.30236
4.25917
4.22642
4.2029
4.18252
4.16323
4.14353
4.12275
4.10081
4.08065
4.06595
4.06254
4.07431
4.09634
4.12237
4.14506
4.15933
4.15981
4.14579
4.12462
4.08763
4.02607
3.94738
3.87825
3.84177
3.82995
3.84514
3.88634
3.92454
3.94373
3.94797
3.93853
3.91967
3.89504
3.86762
3.83457
3.79561
3.75668
3.73026
3.72115
3.72303
3.7308
3.73506
3.73538
3.73093
3.7201
3.70332
3.68352
3.66309
3.64388
3.62948
3.62247
3.62255
3.61683
3.60094
3.58165
3.55922
3.53385
3.50771
3.48859
3.47577
5.08501
5.02791
4.98178
4.95762
4.95795
4.97736
5.00758
5.03331
5.03573
5.00848
4.96666
4.92633
4.8954
4.87614
4.86821
4.86741
4.86586
4.85369
4.83047
4.80637
4.7886
4.78636
4.8007
4.81836
4.82384
4.80668
4.77592
4.73814
4.70281
4.67796
4.67684
4.70033
4.72026
4.71369
4.69024
4.66439
4.64044
4.61942
4.60534
4.60625
4.62063
4.63523
4.63382
4.61326
4.58866
4.56526
4.54423
4.52481
4.50702
4.49095
4.4771
4.4665
4.45933
4.45854
4.46535
4.46445
4.4389
4.40571
4.36696
4.33073
4.30727
4.29727
4.30931
4.34023
4.37031
4.37783
4.36224
4.33832
4.30549
4.26104
4.21413
4.17836
4.155
4.13699
4.12297
4.11405
4.10735
4.09996
4.09349
4.09249
4.0985
4.10723
4.11484
4.11945
4.12088
4.11743
4.10785
4.09238
4.07067
4.041
3.99966
3.94602
3.89095
3.85577
3.84496
3.85462
3.87398
3.88086
3.8777
3.87157
3.86873
3.87065
3.87619
3.87871
3.86896
3.84599
3.80608
3.75461
3.71426
3.69413
3.68009
3.66943
3.66389
3.66317
3.66551
3.66747
3.66809
3.66939
3.67264
3.67526
3.66789
3.64935
3.62325
3.59143
3.55577
3.51896
3.48817
3.47235
3.45938
5.09169
5.05983
5.01609
4.98244
4.96244
4.95477
4.95874
4.97415
4.98944
4.98767
4.96523
4.93423
4.90571
4.88284
4.86524
4.85305
4.84667
4.84231
4.83152
4.81138
4.78926
4.77486
4.77807
4.79595
4.81244
4.81348
4.79788
4.77216
4.7392
4.70518
4.68104
4.67898
4.69443
4.70028
4.68452
4.66335
4.64223
4.62211
4.60495
4.59601
4.60093
4.61487
4.62384
4.61383
4.59044
4.56506
4.53947
4.51451
4.49275
4.47579
4.46293
4.45325
4.44568
4.44245
4.44713
4.4561
4.45084
4.42659
4.39472
4.35747
4.32633
4.30857
4.30575
4.31405
4.32129
4.32481
4.32423
4.31343
4.29388
4.26527
4.22514
4.1825
4.15006
4.12959
4.11609
4.11101
4.11442
4.12063
4.12517
4.12627
4.12545
4.11762
4.10162
4.08494
4.07077
4.0608
4.05289
4.04645
4.04069
4.03362
4.02338
4.00631
3.97603
3.92915
3.87467
3.83422
3.81427
3.8002
3.79081
3.79288
3.8091
3.83546
3.86901
3.89936
3.91324
3.90726
3.88376
3.82999
3.74707
3.67015
3.62756
3.6091
3.59973
3.60127
3.62185
3.64956
3.6729
3.69028
3.69923
3.69585
3.68336
3.66241
3.63233
3.59717
3.55961
3.52273
3.49028
3.4687
3.45093
5.06676
5.07788
5.05527
5.01926
4.98501
4.95546
4.93258
4.92717
4.9411
4.95734
4.95731
4.94087
4.91914
4.89815
4.87683
4.85582
4.83785
4.82571
4.81915
4.81129
4.79825
4.78618
4.78358
4.78965
4.79433
4.79053
4.7816
4.77212
4.75856
4.73586
4.7119
4.69738
4.69522
4.69039
4.67256
4.65267
4.63326
4.61519
4.59959
4.58848
4.58635
4.59212
4.59795
4.59593
4.58417
4.56642
4.54565
4.52102
4.4923
4.46578
4.44762
4.43417
4.42323
4.41442
4.41141
4.41998
4.43614
4.44077
4.42416
4.40215
4.37683
4.34835
4.31822
4.29281
4.27503
4.26582
4.26707
4.27111
4.26857
4.25559
4.23581
4.2072
4.17454
4.14708
4.12961
4.12056
4.11982
4.12655
4.13732
4.14341
4.13477
4.11752
4.09535
4.06681
4.03766
4.01749
4.0056
4.00062
4.00392
4.01121
4.0183
4.01905
4.00837
3.98465
3.93646
3.8643
3.79622
3.75847
3.74554
3.7472
3.77237
3.81496
3.85902
3.89369
3.91386
3.91615
3.90108
3.86547
3.79857
3.70963
3.6289
3.58397
3.56954
3.56959
3.59552
3.63827
3.67352
3.69068
3.69125
3.68257
3.66714
3.64457
3.61847
3.59227
3.56567
3.53929
3.51147
3.48679
3.45476
5.03301
5.07095
5.08419
5.05281
5.0081
4.96522
4.92746
4.90244
4.9047
4.92734
4.94674
4.9462
4.92954
4.90765
4.88396
4.85857
4.83401
4.81429
4.80458
4.80558
4.80951
4.81159
4.80961
4.80063
4.78244
4.76212
4.74573
4.73699
4.73662
4.73804
4.73479
4.73049
4.72231
4.69829
4.66931
4.64262
4.6207
4.60172
4.58604
4.57485
4.57041
4.57096
4.57028
4.56616
4.56206
4.56067
4.55272
4.5337
4.50724
4.47229
4.43754
4.4155
4.39897
4.3846
4.37436
4.37762
4.39995
4.4304
4.44601
4.44258
4.42663
4.3994
4.35504
4.2969
4.24912
4.2249
4.21231
4.21106
4.21908
4.22807
4.23092
4.22162
4.20594
4.18405
4.1591
4.13934
4.12763
4.12321
4.12873
4.13509
4.12583
4.10973
4.0908
4.06488
4.03264
4.0024
3.98297
3.97289
3.97085
3.97811
3.98807
3.99437
3.99374
3.98361
3.96238
3.91839
3.85372
3.79344
3.76033