/*--------------------------------*- C++ -*----------------------------------*\
  =========                 |
  \\      /  F ield         | OpenFOAM: The Open Source CFD Toolbox
   \\    /   O peration     | Website:  https://openfoam.org
    \\  /    A nd           | Version:  7
     \\/     M anipulation  |
\*---------------------------------------------------------------------------*/
FoamFile
{
    version     2.0;
    format      ascii;
    class       volScalarField;
    location    "3.3";
    object      p;
}
// * * * * * * * * * * * * * * * * * * * * * * * * * * * * * * * * * * * * * //

dimensions      [1 -1 -2 0 0 0 0];

internalField   nonuniform List<scalar> 
16512
(
3.72985
3.70431
3.67161
3.63112
3.56914
3.485
3.41366
3.38397
3.37037
3.35066
3.31734
3.25671
3.17751
3.10737
3.07381
3.06236
3.05395
3.032
2.98666
2.91605
2.84308
2.79722
2.78172
2.77712
2.76681
2.74069
2.68769
2.61962
2.56351
2.54038
2.53407
2.53117
2.51725
2.48459
2.42811
2.36799
2.32968
2.31833
2.31587
2.31002
2.29333
2.25535
2.20296
2.15756
2.13849
2.13391
2.13134
2.12099
2.09576
2.05101
2.00714
1.98495
1.97895
1.97483
1.96552
1.94372
1.90195
1.86504
1.85497
1.85147
1.84725
1.83889
1.82461
1.79164
1.74909
1.72193
1.71613
1.71267
1.70631
1.69696
1.67744
1.64301
1.622
1.61619
1.61163
1.60649
1.5998
1.5897
1.56811
1.53596
1.50641
1.49796
1.49585
1.49237
1.48626
1.47762
1.46724
1.45691
1.44547
1.42784
1.39854
1.37891
1.37573
1.3741
1.37319
1.36948
1.36492
1.35995
1.35292
1.33765
1.30468
1.28625
1.41021
3.83252
5.4121
5.49955
5.5121
5.49297
5.4686
5.46425
5.47432
5.48166
5.47305
5.43942
5.40076
5.39416
5.4086
5.4222
5.4301
5.42756
5.40251
5.34696
5.28631
5.26311
5.26227
5.26309
5.25851
5.24661
5.21694
5.15621
5.08557
5.05177
5.03359
5.01548
4.99354
4.96482
4.9229
4.85697
4.77928
4.73097
4.6986
4.66611
4.63026
4.58599
4.52368
4.43965
4.36909
4.32505
4.28826
4.2563
4.2245
4.18491
5.22404
5.15383
5.09195
5.02659
4.95973
4.89281
4.82774
4.76739
4.70437
4.64074
4.57549
4.5115
4.45664
4.39859
4.33752
4.27558
4.21211
4.15433
4.10506
4.05458
4.00298
3.94125
3.8619
3.81196
3.77999
3.74309
3.70292
3.649
3.56859
3.49387
3.4612
3.44518
3.42291
3.38938
3.33011
3.24993
3.17833
3.14458
3.13282
3.12332
3.10024
3.05386
2.98254
2.90941
2.86464
2.84952
2.8444
2.83211
2.80352
2.74767
2.67751
2.62243
2.60081
2.59478
2.59139
2.57603
2.5408
2.48227
2.42168
2.38555
2.37489
2.37246
2.36539
2.3465
2.30463
2.24995
2.20549
2.18865
2.18457
2.18157
2.16992
2.1418
2.09472
2.0507
2.03032
2.02508
2.02123
2.01149
1.98879
1.9457
1.90612
1.89453
1.89117
1.88784
1.87943
1.86489
1.83175
1.78868
1.75983
1.75359
1.75116
1.74584
1.73717
1.71866
1.68297
1.65638
1.64961
1.64527
1.64025
1.63364
1.6227
1.59906
1.56636
1.53719
1.5282
1.52624
1.52311
1.51712
1.50728
1.49459
1.48328
1.47281
1.45889
1.43402
1.40853
1.40297
1.40038
1.39857
1.39509
1.39076
1.38568
1.37868
1.36398
1.33709
1.31022
1.3011
1.30835
2.14929
4.98747
5.51667
5.50316
5.46715
5.44455
5.44946
5.46414
5.47186
5.4606
5.42661
5.39675
5.39784
5.41187
5.4234
5.42838
5.41935
5.38383
5.32184
5.27195
5.26043
5.26332
5.26527
5.26072
5.24488
5.20244
5.12744
5.06952
5.04809
5.03216
5.01435
4.99043
4.95899
4.91165
4.83795
4.76722
4.7292
4.69884
4.66659
4.63021
4.58497
4.52092
4.43825
4.37764
4.33976
4.30749
4.27806
4.24317
4.19718
5.24209
5.17952
5.11597
5.04929
4.98202
4.91496
4.85501
4.79316
4.72904
4.66529
4.59851
4.54171
4.48459
4.42411
4.36334
4.29991
4.24083
4.18858
4.13597
4.08359
4.02778
3.95614
3.89808
3.85812
3.81671
3.77501
3.72614
3.65081
3.57349
3.53796
3.51988
3.49587
3.46259
3.40571
3.32505
3.25094
3.21562
3.20295
3.19188
3.16792
3.12083
3.0488
2.97589
2.9322
2.91764
2.91229
2.89837
2.86773
2.80917
2.73736
2.68286
2.66194
2.65591
2.65152
2.63504
2.59712
2.53628
2.47627
2.44206
2.43227
2.43015
2.42169
2.40042
2.35522
2.29869
2.25505
2.2396
2.23576
2.23188
2.21926
2.18825
2.13946
2.09556
2.07648
2.07191
2.06849
2.05837
2.03494
1.9907
1.94887
1.93541
1.93199
1.92894
1.92048
1.90546
1.87175
1.82833
1.79837
1.7917
1.78979
1.78519
1.77648
1.758
1.72202
1.69218
1.68482
1.68109
1.67615
1.66911
1.65715
1.63141
1.59769
1.569
1.5596
1.55743
1.55472
1.54883
1.53751
1.52201
1.50973
1.50014
1.48902
1.46966
1.44182
1.43125
1.428
1.42491
1.42154
1.41714
1.41214
1.4054
1.3918
1.36504
1.33756
1.32826
1.32429
1.32054
1.42816
3.70381
5.39607
5.48001
5.44712
5.42253
5.43517
5.45211
5.45973
5.44883
5.41899
5.39746
5.40245
5.41596
5.4263
5.42893
5.4116
5.36182
5.29502
5.26262
5.26145
5.26584
5.26735
5.26209
5.23887
5.18123
5.10093
5.06134
5.04451
5.03166
5.01437
4.98968
4.95561
4.89833
4.81617
4.75998
4.73066
4.70215
4.67052
4.6338
4.58675
4.51893
4.43747
4.38436
4.34927
4.31822
4.28665
4.24677
4.19497
5.26587
5.20456
5.13836
5.07211
5.00256
4.94109
4.88074
4.81656
4.75392
4.68688
4.62702
4.57028
4.50955
4.44998
4.387
4.32744
4.27396
4.21923
4.16496
4.11091
4.04584
3.98614
3.93899
3.89371
3.84925
3.80179
3.73497
3.65644
3.61252
3.59149
3.56691
3.5348
3.48213
3.40318
3.32605
3.2881
3.27404
3.26068
3.23594
3.18855
3.11543
3.04225
2.99903
2.98486
2.97944
2.9645
2.93248
2.87255
2.7997
2.74478
2.7245
2.71821
2.71232
2.69426
2.65316
2.59086
2.5313
2.49856
2.4896
2.48768
2.47834
2.45506
2.40764
2.34941
2.30637
2.29206
2.28808
2.28335
2.2692
2.23514
2.18471
2.14048
2.12304
2.11908
2.11605
2.10566
2.08147
2.03632
1.99289
1.97796
1.97428
1.97129
1.96268
1.94692
1.91221
1.86782
1.83739
1.83045
1.82874
1.8247
1.81579
1.79678
1.76086
1.7289
1.72081
1.71777
1.71325
1.70583
1.69239
1.6642
1.62998
1.60316
1.59477
1.59214
1.58843
1.58209
1.56844
1.54901
1.53601
1.52766
1.51866
1.50369
1.47726
1.46022
1.45626
1.45259
1.44883
1.44465
1.43976
1.43333
1.42097
1.39413
1.36409
1.35245
1.34958
1.34653
1.3407
1.34553
2.07132
4.8669
5.47382
5.42991
5.411
5.42797
5.44372
5.45062
5.44224
5.41805
5.40186
5.40873
5.42119
5.4299
5.42721
5.39646
5.33097
5.27523
5.26272
5.26574
5.26931
5.26944
5.26105
5.22771
5.15717
5.08442
5.05789
5.04417
5.03402
5.01627
4.99038
4.94972
4.87795
4.79876
4.76045
4.73448
4.70701
4.67584
4.63865
4.5885
4.51473
4.4357
4.38804
4.35356
4.32142
4.28701
4.24464
4.19011
5.29131
5.22609
5.16111
5.09166
5.02692
4.96748
4.9033
4.84073
4.77489
4.71272
4.65639
4.59525
4.53567
4.47327
4.41248
4.3593
4.30365
4.2477
4.19341
4.13182
4.07283
4.02186
3.97259
3.92659
3.87796
3.81856
3.74638
3.68895
3.66075
3.6354
3.60449
3.55637
3.48137
3.40263
3.36165
3.34646
3.33109
3.30531
3.25813
3.18406
3.10918
3.06531
3.05115
3.04529
3.02954
2.99657
2.93615
2.86276
2.80825
2.78854
2.78202
2.77462
2.75485
2.7112
2.6464
2.58612
2.55519
2.54667
2.5448
2.53472
2.50948
2.46008
2.40097
2.3594
2.34608
2.34221
2.33632
2.32051
2.28389
2.23096
2.18642
2.17013
2.1664
2.1635
2.15286
2.12758
2.08172
2.03761
2.02131
2.01762
2.01488
2.0062
1.98972
1.95384
1.90814
1.87709
1.86982
1.86825
1.86439
1.85513
1.83531
1.79901
1.76612
1.75719
1.75448
1.75057
1.74284
1.728
1.69791
1.66285
1.63827
1.63201
1.63062
1.6271
1.6188
1.59981
1.57575
1.5622
1.55519
1.548
1.53639
1.5131
1.49009
1.48433
1.48068
1.47718
1.47317
1.46856
1.4626
1.45074
1.42445
1.39228
1.37621
1.3736
1.37048
1.36711
1.36241
1.355
1.43698
3.45951
5.30639
5.41961
5.40335
5.41611
5.43105
5.43964
5.43626
5.41869
5.40818
5.4175
5.42864
5.43477
5.42184
5.36938
5.29645
5.26739
5.26723
5.27172
5.2735
5.27111
5.25629
5.21016
5.13122
5.07459
5.05691
5.04692
5.03696
5.01814
4.98959
4.93746
4.85294
4.79156
4.76405
4.73932
4.71209
4.68084
4.64222
4.58664
4.50598
4.43293
4.3898
4.355
4.32144
4.28529
4.24226
4.18735
5.31283
5.24756
5.18021
5.11282
5.05388
4.99043
4.92713
4.86224
4.79798
4.74227
4.6818
4.62153
4.5602
4.49686
4.44342
4.38792
4.33072
4.27593
4.21601
4.15776
4.10541
4.05294
4.00544
3.95629
3.9002
3.83688
3.77419
3.73269
3.70294
3.67286
3.62852
3.55836
3.47896
3.43407
3.41805
3.40203
3.37602
3.33016
3.25616
3.17824
3.1324
3.11746
3.11036
3.09368
3.06011
2.99932
2.92584
2.87175
2.85272
2.84657
2.83831
2.81714
2.77146
2.70404
2.64277
2.6126
2.60421
2.60179
2.59036
2.56316
2.51155
2.45259
2.41276
2.40029
2.39725
2.39067
2.37356
2.33468
2.27921
2.23433
2.21837
2.2145
2.21124
2.19999
2.17327
2.12647
2.08211
2.06478
2.06114
2.05895
2.05036
2.03339
1.99666
1.94976
1.91791
1.91026
1.90855
1.90463
1.89509
1.874
1.83663
1.80317
1.79358
1.79112
1.7876
1.77958
1.76387
1.7324
1.69655
1.67449
1.66941
1.66861
1.66523
1.65637
1.63297
1.60344
1.58922
1.58345
1.57738
1.56805
1.54866
1.52194
1.51248
1.50884
1.50583
1.50237
1.49785
1.49216
1.4809
1.45486
1.42119
1.40174
1.39821
1.39498
1.39081
1.3866
1.38247
1.37353
1.37086
1.9311
4.65608
5.38768
5.41461
5.42035
5.42515
5.43211
5.43201
5.42048
5.4148
5.4243
5.43262
5.43054
5.3988
5.32978
5.27601
5.26929
5.27364
5.27968
5.2793
5.2732
5.24709
5.1853
5.10774
5.07144
5.06071
5.05363
5.04155
5.02079
4.98522
4.91722
4.83274
4.79233
4.76828
4.74466
4.71684
4.68444
4.64223
4.57813
4.49457
4.43296
4.39347
4.35819
4.32346
4.28627
4.24303
4.18865
5.33281
5.2669
5.19769
5.13876
5.07742
5.01368
4.95011
4.88333
4.82712
4.76838
4.70716
4.64753
4.58247
4.52727
4.47219
4.41368
4.3583
4.2988
4.24079
4.18833
4.13415
4.08423
4.03541
3.98104
3.92404
3.86275
3.81209
3.77232
3.73985
3.69951
3.63585
3.55543
3.50495
3.48828
3.47119
3.44545
3.40211
3.33096
3.25098
3.20176
3.18558
3.17651
3.15849
3.12442
3.06249
2.98812
2.93421
2.91574
2.91009
2.9015
2.87953
2.833
2.76422
2.70208
2.67228
2.66365
2.65978
2.64691
2.61746
2.5632
2.50384
2.46544
2.45393
2.45167
2.44489
2.42711
2.38633
2.32973
2.28435
2.26867
2.26438
2.26033
2.24818
2.21976
2.17128
2.12631
2.10832
2.10465
2.10282
2.09426
2.07689
2.03963
1.99222
1.95989
1.95194
1.95001
1.94584
1.93598
1.91369
1.87479
1.84038
1.83011
1.82767
1.82432
1.81621
1.79963
1.76718
1.73129
1.71125
1.70698
1.7061
1.70188
1.6919
1.66633
1.63397
1.61812
1.61324
1.60783
1.59976
1.58376
1.55599
1.54133
1.53755
1.53473
1.53166
1.52724
1.52148
1.50966
1.48416
1.45073
1.42764
1.42336
1.42062
1.41608
1.4113
1.40579
1.40149
1.39427
1.37729
1.42459
3.10532
5.19541
5.42254
5.42582
5.42609
5.42808
5.42793
5.42067
5.41771
5.42659
5.43008
5.41473
5.36314
5.29365
5.27006
5.2728
5.28135
5.28781
5.28584
5.27317
5.23063
5.15229
5.09147
5.07366
5.06683
5.05998
5.04575
5.02123
4.97454
4.89092
4.82019
4.79274
4.7718
4.74925
4.72074
4.68638
4.63801
4.56368
4.48572
4.43768
4.4007
4.36502
4.32898
4.29067
4.24702
4.19317
5.35356
5.28376
5.22293
5.16364
5.09961
5.03754
4.96979
4.91123
4.85443
4.79247
4.73358
4.66872
4.61111
4.55698
4.49757
4.44151
4.38194
4.32298
4.27057
4.21537
4.16272
4.11346
4.05994
4.00753
3.95004
3.89513
3.84931
3.80849
3.76965
3.71347
3.63668
3.57466
3.55553
3.53807
3.51206
3.47137
3.40452
3.32507
3.27285
3.25573
3.24531
3.22597
3.19127
3.12818
3.05149
2.99604
2.97739
2.97167
2.96285
2.94046
2.89347
2.82481
2.76305
2.73367
2.72516
2.72031
2.70603
2.67444
2.61717
2.55564
2.51807
2.50709
2.50503
2.49796
2.47917
2.43682
2.38046
2.33532
2.32019
2.31588
2.31126
2.29829
2.26819
2.21759
2.17115
2.15243
2.14854
2.14668
2.13788
2.11982
2.08188
2.03447
2.00217
1.99416
1.99236
1.98809
1.97785
1.95431
1.91391
1.87846
1.86747
1.8648
1.86127
1.85297
1.83554
1.80221
1.76634
1.74799
1.74436
1.74331
1.73828
1.7274
1.69989
1.66576
1.64916
1.64496
1.64002
1.63248
1.61891
1.59172
1.57147
1.56701
1.56431
1.5613
1.55646
1.55029
1.53769
1.51181
1.47889
1.45504
1.44955
1.44639
1.44217
1.43673
1.43155
1.42597
1.42062
1.41393
1.39372
1.37654
1.76973
4.401
5.43
5.4229
5.42852
5.42903
5.42844
5.42149
5.41525
5.41755
5.4135
5.38631
5.32826
5.27854
5.27328
5.27958
5.29057
5.29474
5.29025
5.26555
5.20157
5.1213
5.08713
5.07829
5.07376
5.06521
5.04908
5.01896
4.95852
4.86822
4.81674
4.79494
4.77718
4.75506
4.72556
4.6875
4.62931
4.5477
4.4848
4.44697
4.41233
4.37675
4.33932
4.29937
4.25457
4.20066
5.37128
5.30784
5.24966
5.18593
5.1242
5.05733
4.99528
4.93932
4.87728
4.81786
4.75411
4.69351
4.6408
4.58189
4.52518
4.46681
4.40653
4.35401
4.29805
4.24247
4.19133
4.13645
4.08612
4.03347
3.97734
3.93022
3.88316
3.84216
3.79101
3.72428
3.65363
3.62132
3.60323
3.57671
3.53756
3.47524
3.39778
3.34258
3.32512
3.31473
3.29518
3.26084
3.1981
3.11905
3.06016
3.04009
3.03299
3.02298
2.99991
2.95229
2.88364
2.82251
2.7945
2.78674
2.78209
2.76719
2.73433
2.67466
2.61034
2.57262
2.56153
2.55871
2.55058
2.53033
2.48622
2.42965
2.38551
2.37131
2.36765
2.36305
2.34953
2.31831
2.26606
2.21784
2.19825
2.19383
2.19152
2.18229
2.16319
2.12378
2.07617
2.0442
2.03633
2.03487
2.03075
2.02009
1.9955
1.95397
1.91755
1.90602
1.90304
1.89924
1.89055
1.87233
1.83775
1.80162
1.78484
1.7816
1.78032
1.7747
1.76297
1.73417
1.69905
1.68142
1.67763
1.67371
1.6667
1.65463
1.62844
1.60307
1.59707
1.59428
1.59143
1.5861
1.57901
1.56493
1.53847
1.50623
1.48234
1.47654
1.47365
1.46895
1.46315
1.4569
1.45176
1.44651
1.43988
1.42992
1.40404
1.37751
1.40269
2.78133
5.14405
5.41364
5.42224
5.42988
5.42848
5.42056
5.41049
5.40155
5.38511
5.34953
5.29957
5.27635
5.27974
5.28832
5.298
5.2995
5.28844
5.24622
5.16385
5.10486
5.08969
5.08325
5.07955
5.06887
5.05015
5.01246
4.93641
4.85123
4.81662
4.79847
4.78315
4.76125
4.7307
4.68689
4.61565
4.53494
4.48943
4.45715
4.42575
4.39128
4.35284
4.31085
4.26385
4.20836
5.39248
5.33491
5.27228
5.21019
5.14522
5.08014
5.02378
4.96218
4.90122
4.83878
4.77483
4.72258
4.66551
4.60769
4.55112
4.49017
4.43811
4.38306
4.32545
4.27267
4.21496
4.16256
4.11263
4.0569
4.00806
3.95987
3.91625
3.87008
3.80945
3.74586
3.69298
3.66927
3.64271
3.60317
3.54631
3.46992
3.41024
3.39153
3.38096
3.36218
3.32907
3.26934
3.19092
3.12846
3.10653
3.09752
3.08518
3.06095
3.01159
2.94145
2.88009
2.85295
2.84601
2.84219
2.82725
2.79423
2.73431
2.66866
2.63038
2.619
2.61496
2.60521
2.58333
2.53661
2.47816
2.4346
2.42101
2.41809
2.41381
2.39995
2.36824
2.3154
2.26622
2.24598
2.24115
2.23824
2.22846
2.20829
2.16681
2.11813
2.08643
2.07864
2.07733
2.07321
2.06208
2.0366
1.99432
1.9573
1.94545
1.94236
1.93849
1.92952
1.91052
1.87427
1.83786
1.82184
1.81882
1.81726
1.81113
1.79874
1.76921
1.73326
1.71466
1.71104
1.7078
1.70151
1.69082
1.66561
1.63616
1.62761
1.62456
1.62156
1.61602
1.60815
1.5924
1.56497
1.5335
1.51023
1.50426
1.50171
1.49733
1.49073
1.48301
1.47703
1.47199
1.46634
1.45689
1.43584
1.40812
1.39064
1.39434
1.67142
4.15084
5.40911
5.42719
5.4307
5.42329
5.41438
5.40329
5.3859
5.35833
5.32205
5.29243
5.28629
5.29177
5.29971
5.3047
5.30168
5.27719
5.21266
5.13335
5.10346
5.09477
5.09085
5.08664
5.07413
5.05117
5.00102
4.91096
4.84422
4.82092
4.8057
4.79122
4.76946
4.73736
4.68571
4.60275
4.53163
4.49595
4.46638
4.43762
4.40498
4.36656
4.32296
4.27319
4.21408
5.41789
5.35593
5.29334
5.23059
5.16479
5.10837
5.04824
4.98605
4.92501
4.85828
4.80355
4.748
4.6887
4.63303
4.57147
4.51929
4.46741
4.40957
4.35663
4.29886
4.24263
4.19206
4.13603
4.08388
4.03465
3.98719
3.94575
3.89209
3.83322
3.7789
3.73858
3.71079
3.67135
3.61883
3.54543
3.47788
3.45596
3.44368
3.42442
3.39292
3.33709
3.26197
3.19809
3.17504
3.16555
3.152
3.12656
3.07586
3.00257
2.93838
2.91074
2.9035
2.89962
2.88463
2.85143
2.79213
2.72705
2.68923
2.67819
2.67394
2.66317
2.64
2.59074
2.52866
2.48436
2.47078
2.46772
2.46323
2.44904
2.41657
2.36371
2.31471
2.29438
2.2896
2.28664
2.2765
2.2554
2.21209
2.16158
2.12969
2.12177
2.12034
2.11585
2.10417
2.07751
2.03444
1.99716
1.98522
1.98229
1.97867
1.96954
1.94999
1.91249
1.87503
1.85935
1.85637
1.85448
1.84786
1.83484
1.80458
1.7679
1.74843
1.74477
1.74233
1.73634
1.72621
1.70228
1.67028
1.65855
1.65538
1.65208
1.64625
1.63786
1.62088
1.59204
1.5607
1.53905
1.53363
1.53132
1.52701
1.52023
1.51032
1.50242
1.49726
1.49181
1.48393
1.46614
1.43592
1.41816
1.41302
1.40645
1.42355
2.5
5.02206
5.42013
5.41248
5.40824
5.40283
5.39051
5.36534
5.33255
5.30368
5.29356
5.29692
5.30321
5.30861
5.30926
5.29516
5.25164
5.17382
5.12061
5.10853
5.10287
5.10123
5.09493
5.08058
5.04947
4.97852
4.88729
4.84603
4.8277
4.81365
4.79763
4.77513
4.74109
4.68174
4.59364
4.53407
4.50174
4.47302
4.44519
4.41433
4.37713
4.33319
4.28104
4.21673
5.43925
5.37515
5.31194
5.24542
5.18915
5.1324
5.07077
5.01208
4.94625
4.88769
4.83186
4.77092
4.71429
4.65173
4.5966
4.54809
4.49158
4.43812
4.38284
4.32574
4.27489
4.21843
4.16309
4.11213
4.05787
4.0159
3.96872
3.91285
3.8627
3.81341
3.78125
3.74254
3.69319
3.62842
3.5529
3.52313
3.50772
3.48558
3.45347
3.40078
3.32847
3.26439
3.24094
3.23257
3.21958
3.1943
3.14503
3.0702
3.00173
2.97194
2.96304
2.9572
2.94103
2.90669
2.84678
2.78273
2.74585
2.73565
2.73247
2.72177
2.6983
2.64816
2.5833
2.53713
2.52287
2.51884
2.51337
2.49831
2.46426
2.41065
2.36208
2.34194
2.33758
2.33519
2.32498
2.30339
2.25922
2.207
2.17456
2.16639
2.16454
2.15945
2.14719
2.11891
2.07459
2.03709
2.02519
2.02247
2.01931
2.0101
1.9901
1.95174
1.91325
1.89758
1.89447
1.8923
1.88531
1.87168
1.84058
1.80297
1.78261
1.77889
1.77685
1.7712
1.7614
1.73824
1.70478
1.68997
1.68669
1.68337
1.67729
1.66855
1.65068
1.62089
1.58936
1.56912
1.56436
1.56269
1.5586
1.55125
1.5391
1.52875
1.52288
1.51753
1.51026
1.49559
1.46732
1.44254
1.43741
1.43501
1.42836
1.42689
1.60208
3.79263
5.33147
5.40577
5.40114
5.39538
5.38057
5.35516
5.32773
5.31067
5.30801
5.3116
5.31581
5.31715
5.30866
5.27889
5.21631
5.14688
5.12385
5.1185
5.1161
5.11341
5.1035
5.0827
5.03263
4.9433
4.87753
4.85395
4.83795
4.82324
4.80413
4.77946
4.74267
4.67617
4.59022
4.5402
4.50871
4.4792
4.4503
4.41972
4.38384
4.34036
4.28627
4.21627
5.45748
5.39559
5.32775
5.26674
5.21172
5.15209
5.09517
5.03319
4.97474
4.91925
4.85715
4.79837
4.73576
4.6738
4.62485
4.57032
4.51585
4.46234
4.40566
4.35731
4.30334
4.24651
4.19565
4.13733
4.08848
4.04239
3.9876
3.93793
3.88617
3.84835
3.81404
3.76695
3.71345
3.64093
3.59459
3.57746
3.55118
3.51549
3.46583
3.39365
3.32703
3.30181
3.29415
3.28268
3.2584
3.2121
3.13988
3.07023
3.03808
3.02767
3.01915
3.00123
2.96499
2.90186
2.83681
2.80023
2.7904
2.78816
2.77794
2.75465
2.70516
2.63997
2.59253
2.57782
2.57305
2.56631
2.55029
2.51435
2.45847
2.409
2.389
2.38479
2.38274
2.37268
2.35067
2.30624
2.25335
2.2207
2.21247
2.21034
2.20462
2.1918
2.16176
2.11561
2.07758
2.06564
2.06293
2.06001
2.05069
2.03036
1.99141
1.95229
1.93641
1.93321
1.93087
1.92358
1.9095
1.87753
1.83869
1.81736
1.81337
1.81157
1.80604
1.79635
1.77365
1.73933
1.72164
1.71823
1.71513
1.70911
1.70014
1.68161
1.65106
1.61985
1.60156
1.59713
1.59544
1.59147
1.58368
1.56881
1.55575
1.54938
1.54408
1.53722
1.52476
1.49828
1.47044
1.4629
1.45978
1.45747
1.45373
1.4437
1.4526
2.20131
4.77902
5.38871
5.39785
5.39088
5.36544
5.33822
5.32111
5.31556
5.31744
5.32159
5.32419
5.31957
5.29791
5.25016
5.17933
5.13923
5.1334
5.13251
5.13208
5.12571
5.11072
5.0746
4.99707
4.91374
4.88126
4.86442
4.85188
4.83536
4.81304
4.78453
4.74046
4.66353
4.58704
4.54733
4.5168
4.48633
4.4554
4.4233
4.38736
4.34387
4.2877
4.21312
5.48079
5.41498
5.35207
5.29363
5.23174
5.17252
5.11196
5.0537
5.0024
4.94387
4.8853
4.82529
4.7589
4.70493
4.64912
4.59157
4.53781
4.47925
4.43259
4.38482
4.32934
4.27966
4.2244
4.17072
4.12189
4.06582
4.01327
3.95984
3.91104
3.87926
3.83727
3.78833
3.73178
3.67122
3.64807
3.61988
3.58279
3.53627
3.46681
3.39385
3.363
3.35284
3.34046
3.31666
3.27319
3.20493
3.13727
3.10413
3.09396
3.0849
3.06623
3.02892
2.96279
2.89367
2.85547
2.84488
2.84201
2.83152
2.80807
2.75897
2.69469
2.64749
2.63294
2.62869
2.62176
2.60522
2.56804
2.50948
2.45767
2.43727
2.43257
2.4302
2.41985
2.39707
2.35219
2.29938
2.26695
2.2589
2.25694
2.25094
2.2377
2.20612
2.15814
2.11915
2.10703
2.10415
2.10111
2.09161
2.07081
2.03122
1.99166
1.9755
1.9723
1.97006
1.96251
1.9481
1.91549
1.87531
1.85291
1.84852
1.8467
1.84121
1.83149
1.8087
1.77397
1.75358
1.74981
1.74705
1.74112
1.73219
1.71312
1.68185
1.65101
1.63581
1.63239
1.63044
1.62544
1.61639
1.59845
1.58324
1.5765
1.57135
1.56492
1.55395
1.52963
1.49987
1.48926
1.48672
1.48414
1.48128
1.47778
1.46797
1.44839
1.53324
3.33183
5.19684
5.3847
5.38318
5.36604
5.34673
5.3315
5.32473
5.32564
5.3303
5.33144
5.31861
5.28185
5.21658
5.15786
5.14489
5.14538
5.14816
5.14695
5.13803
5.11288
5.05124
4.95604
4.90433
4.88826
4.87774
4.86923
4.85083
4.8262
4.79164
4.72865
4.6404
4.58599
4.55576
4.52667
4.49608
4.46343
4.42862
4.39043
4.34508
4.28583
4.20923
5.50271
5.4402
5.37959
5.31598
5.25421
5.19088
5.12848
5.0786
5.02441
4.96639
4.91079
4.84822
4.79159
4.73369
4.67288
4.61729
4.55448
4.50269
4.45895
4.4063
4.35681
4.3059
4.25391
4.20634
4.15071
4.0957
4.04339
3.98322
3.94444
3.90443
3.85494
3.80674
3.74775
3.71439
3.68705
3.65
3.60752
3.54685
3.47087
3.43222
3.41743
3.40004
3.37367
3.33146
3.2651
3.19838
3.1653
3.15631
3.14888
3.13043
3.0946
3.02929
2.95643
2.91484
2.90275
2.89776
2.88599
2.86158
2.81121
2.7471
2.70041
2.6862
2.68288
2.67666
2.66027
2.62322
2.56347
2.50917
2.48786
2.48244
2.47919
2.46822
2.44443
2.39827
2.345
2.3129
2.30502
2.30346
2.29738
2.28375
2.25114
2.20195
2.16187
2.14953
2.14643
2.14312
2.13334
2.1119
2.07138
2.03123
2.01472
2.01152
2.00947
2.00182
1.98714
1.95411
1.91292
1.88931
1.88454
1.88257
1.87707
1.86712
1.84425
1.80849
1.78597
1.78164
1.7791
1.77338
1.76434
1.74485
1.71315
1.68273
1.67024
1.66799
1.66664
1.6611
1.64987
1.62733
1.61014
1.60405
1.59926
1.59304
1.58318
1.56136
1.53065
1.51647
1.51395
1.51199
1.50899
1.50455
1.49779
1.48077
1.45053
1.45029
1.93465
4.45697
5.38956
5.36652
5.35631
5.34917
5.3408
5.33284
5.32891
5.33036
5.32723
5.30624
5.25816
5.18985
5.15745
5.15566
5.15872
5.1619
5.15985
5.14693
5.10597
5.01365
4.92905
4.90681
4.89661
4.89395
4.88668
4.86718
4.83984
4.79069
4.69925
4.62005
4.58862
4.5633
4.53572
4.5057
4.47276
4.4362
4.39489
4.34514
4.28083
4.20605
5.52409
5.4666
5.40397
5.34126
5.27732
5.20752
5.15092
5.09745
5.0399
4.98612
4.92841
4.87598
4.82196
4.76121
4.70519
4.64229
4.58071
4.53278
4.47936
4.42679
4.37619
4.32498
4.28337
4.23421
4.17964
4.13113
4.07161
4.02151
3.97772
3.92604
3.87707
3.81959
3.77469
3.74897
3.71425
3.67489
3.62338
3.55138
3.50785
3.49064
3.4669
3.43678
3.39472
3.32738
3.25845
3.22349
3.21394
3.20732
3.18961
3.15601
3.09404
3.02126
2.9774
2.96423
2.95771
2.9444
2.91898
2.86639
2.79998
2.75272
2.73837
2.73521
2.72962
2.71343
2.67705
2.61727
2.56196
2.53973
2.534
2.53015
2.51864
2.49403
2.44606
2.39135
2.35926
2.35132
2.34984
2.34367
2.32956
2.29627
2.24626
2.20535
2.19287
2.18966
2.18612
2.17607
2.15392
2.11221
2.07115
2.05418
2.05089
2.04894
2.04123
2.02632
1.99308
1.95108
1.92637
1.92123
1.91922
1.91373
1.90363
1.88034
1.84363
1.81911
1.81405
1.81171
1.80608
1.79699
1.77722
1.74459
1.71468
1.70405
1.70222
1.70094
1.69547
1.68314
1.65726
1.6368
1.63098
1.62716
1.62149
1.61249
1.59302
1.56213
1.54433
1.54148
1.53966
1.53678
1.53223
1.52426
1.50579
1.48214
1.46325
1.45711
1.50235
2.88592
5.10868
5.3422
5.34576
5.34855
5.34555
5.34017
5.33424
5.3298
5.31789
5.28595
5.23007
5.17949
5.1684
5.16938
5.17249
5.17405
5.16986
5.14783
5.08039
4.9745
4.92578
4.91444
4.90961
4.91144
4.9018
4.88128
4.84659
4.77221
4.66931
4.61764
4.59385
4.57075
4.54466
4.51551
4.48326
4.44677
4.40255
4.3444
4.27301
4.20603
5.5436
5.48681
5.42642
5.36707
5.29964
5.23547
5.17545
5.11448
5.05704
4.99696
4.94579
4.90015
4.84505
4.79162
4.73608
4.67337
4.6183
4.5608
4.5038
4.44936
4.38987
4.34768
4.30648
4.25504
4.20932
4.15828
4.1061
4.05946
4.00587
3.95506
3.90014
3.84083
3.81003
3.77544
3.736
3.69264
3.62845
3.58124
3.56182
3.53583
3.50469
3.4647
3.39921
3.32475
3.28404
3.27162
3.26299
3.24468
3.21284
3.1541
3.08335
3.03857
3.0252
3.01907
3.00547
2.98005
2.92647
2.8568
2.80707
2.79174
2.78771
2.78198
2.76553
2.72924
2.66983
2.61439
2.59112
2.58553
2.58183
2.57012
2.54513
2.49579
2.43936
2.40669
2.39851
2.39677
2.3903
2.37562
2.3415
2.29077
2.24934
2.23669
2.2335
2.22987
2.21958
2.19682
2.15391
2.11164
2.09405
2.09058
2.0886
2.08078
2.06564
2.03192
1.98936
1.96375
1.95833
1.95641
1.9509
1.94075
1.91719
1.87959
1.85302
1.84732
1.84503
1.83963
1.83044
1.81037
1.77685
1.74692
1.7375
1.73564
1.7338
1.72776
1.71442
1.68681
1.66384
1.65787
1.65486
1.64972
1.64169
1.62432
1.59386
1.57258
1.56887
1.56709
1.56421
1.55947
1.55131
1.53214
1.50576
1.49078
1.48663
1.47924
1.47814
1.76184
4.05806
5.32189
5.35973
5.35943
5.35516
5.34754
5.33677
5.32325
5.30032
5.2614
5.21072
5.18634
5.18575
5.18718
5.18772
5.18574
5.17427
5.13099
5.03526
4.95366
4.93502
4.9282
4.92792
4.92756
4.9139
4.88916
4.83808
4.74022
4.65675
4.62665
4.60366
4.58126
4.55613
4.52866
4.49806
4.46137
4.40984
4.33689
4.26455
4.21238
5.55862
5.50219
5.44624
5.3877
5.3284
5.26557
5.20099
5.14073
5.07549
5.01423
4.96818
4.91761
4.86511
4.8142
4.75884
4.70707
4.64977
4.59011
4.53546
4.47023
4.41649
4.37401
4.32311
4.27515
4.22776
4.18049
4.13911
4.08855
4.03685
3.98816
3.92472
3.88117
3.84357
3.79905
3.7569
3.69942
3.64788
3.62672
3.59941
3.56784
3.53248
3.4762
3.39993
3.3517
3.33552
3.3217
3.30131
3.26995
3.21187
3.14268
3.09717
3.0836
3.07841
3.06547
3.0407
2.98829
2.9173
2.86431
2.84769
2.84245
2.83588
2.81902
2.78208
2.72188
2.66592
2.6419
2.63634
2.63294
2.62123
2.59622
2.54633
2.48845
2.45496
2.44656
2.44452
2.43774
2.42248
2.38737
2.33573
2.2938
2.28095
2.27779
2.2741
2.2636
2.24037
2.19647
2.15287
2.13448
2.13078
2.12863
2.12068
2.10529
2.07092
2.02774
2.00127
1.99557
1.99381
1.98838
1.97813
1.95441
1.91598
1.88787
1.88148
1.87922
1.874
1.86479
1.84457
1.81008
1.77996
1.77094
1.76904
1.76673
1.76017
1.74592
1.71679
1.6915
1.68515
1.68277
1.67831
1.67075
1.65509
1.62541
1.60099
1.59606
1.59408
1.59116
1.58627
1.57791
1.55862
1.53231
1.51678
1.51309
1.51042
1.50396
1.48524
1.49646
2.45614
4.87674
5.35209
5.36164
5.36855
5.35834
5.33432
5.30511
5.27065
5.22968
5.2009
5.20015
5.20366
5.20635
5.20409
5.19652
5.16705
5.08846
4.99197
4.95613
4.94956
4.94772
4.94874
4.94084
4.92304
4.88735
4.81078
4.70914
4.66215
4.63973
4.61924
4.5976
4.57299
4.54621
4.51503
4.4713
4.40096
4.32052
4.26408
4.22619
5.56545
5.5083
5.45387
5.40369
5.35122
5.29193
5.23443
5.17262
5.10479
5.04792
4.99176
4.93398
4.87929
4.82454
4.77967
4.73197
4.67547
4.62388
4.56482
4.50242
4.4518
4.39781
4.34551
4.29391
4.24204
4.20583
4.164
4.11383
4.06994
4.01509
3.96308
3.92069
3.8723
3.8275
3.77372
3.71354
3.68609
3.65887
3.62585
3.5917
3.54513
3.47583
3.42499
3.4053
3.38628
3.36331
3.33066
3.27292
3.20275
3.15503
3.14037
3.13524
3.12294
3.09919
3.04905
2.9786
2.92285
2.90494
2.89913
2.89176
2.87463
2.83709
2.77531
2.71808
2.69302
2.68714
2.68375
2.67182
2.64698
2.59704
2.53796
2.50343
2.49486
2.49272
2.48569
2.47
2.43403
2.38135
2.33876
2.32565
2.32247
2.31879
2.30808
2.28442
2.23973
2.19484
2.17555
2.1716
2.16926
2.16112
2.14543
2.11037
2.06634
2.03903
2.033
2.03137
2.02609
2.01568
1.9918
1.95278
1.92333
1.91633
1.91409
1.9091
1.89993
1.87955
1.84426
1.81362
1.80475
1.80283
1.80015
1.79323
1.77846
1.74837
1.72063
1.71348
1.71146
1.70753
1.70045
1.68608
1.657
1.62968
1.6232
1.62085
1.61784
1.61275
1.60424
1.58465
1.55859
1.54396
1.54062
1.53727
1.53198
1.52141
1.49375
1.48768
1.63623
3.59554
5.22681
5.37009
5.36458
5.35345
5.32705
5.28834
5.24756
5.21555
5.21018
5.21552
5.22188
5.22388
5.21905
5.19862
5.13526
5.03505
4.97684
4.96807
4.96653
4.96964
4.96544
4.95279
4.92778
4.87317
4.77263
4.69526
4.6721
4.65466
4.63935
4.6186
4.59431
4.56612
4.52743
4.46157
4.37533
4.31139
4.2751
4.24423
5.58885
5.52192
5.46427
5.41708
5.36608
5.31422
5.26065
5.19983
5.139
5.07742
5.01651
4.95801
4.89319
4.84268
4.79971
4.74802
4.69903
4.64878
4.59217
4.53869
4.48161
4.42621
4.37403
4.31247
4.26982
4.23136
4.18256
4.13869
4.09146
4.04279
4.00085
3.95146
3.9044
3.85651
3.79164
3.75156
3.71983
3.68313
3.64649
3.60266
3.54443
3.49667
3.47255
3.45135
3.42745
3.39567
3.3403
3.26722
3.21512
3.19784
3.1912
3.17871
3.15601
3.10821
3.03902
2.9816
2.96227
2.95626
2.94862
2.93147
2.89374
2.83055
2.77116
2.74465
2.73829
2.73486
2.72286
2.69819
2.64804
2.58805
2.55227
2.54339
2.54111
2.53388
2.51792
2.48132
2.42756
2.38414
2.37073
2.36749
2.36384
2.35294
2.329
2.28362
2.23747
2.21726
2.21308
2.21058
2.20226
2.18633
2.15051
2.10547
2.07722
2.07086
2.06924
2.06404
2.05351
2.02936
1.98978
1.9591
1.95159
1.94946
1.94467
1.93552
1.91514
1.87922
1.84779
1.83885
1.83688
1.83403
1.8269
1.81183
1.78086
1.75131
1.74317
1.74112
1.73771
1.73088
1.71757
1.68886
1.65913
1.65063
1.64796
1.64475
1.63942
1.63073
1.61084
1.58463
1.57063
1.56765
1.56456
1.55889
1.54765
1.52623
1.5057
1.49766
1.50743
2.14421
4.58152
5.38588
5.34609
5.32745
5.30496
5.26955
5.2354
5.22294
5.22813
5.23345
5.23868
5.23738
5.22507
5.17774
5.08337
5.00246
4.98505
4.98126
4.98543
4.98692
4.97845
4.96232
4.92698
4.84684
4.74003
4.69857
4.68184
4.67113
4.66025
4.64019
4.61552
4.58278
4.52547
4.43521
4.35704
4.3192
4.29178
4.26318
5.61605
5.55064
5.49494
5.43836
5.38013
5.32557
5.27259
5.22096
5.16391
5.10336
5.0464
4.98063
4.91853
4.87029
4.81735
4.76444
4.71378
4.66383
4.6189
4.56694
4.51134
4.4618
4.40128
4.347
4.30388
4.25347
4.20518
4.15626
4.1075
4.07162
4.02805
3.98031
3.93788
3.88028
3.82912
3.79075
3.74829
3.70911
3.6625
3.60439
3.5625
3.53484
3.51072
3.48735
3.45911
3.40971
3.33768
3.27987
3.25961
3.24936
3.23515
3.2125
3.16604
3.0982
3.04023
3.01958
3.01353
3.00608
2.98872
2.95156
2.8875
2.82503
2.79684
2.78987
2.78625
2.77433
2.74991
2.69989
2.63912
2.60185
2.59249
2.59006
2.58263
2.56648
2.52939
2.47443
2.4299
2.41605
2.41274
2.40916
2.39808
2.37385
2.32802
2.28071
2.25966
2.25524
2.25261
2.24414
2.22799
2.19151
2.14537
2.11607
2.10933
2.10765
2.1025
2.0918
2.06737
2.02718
1.99527
1.9873
1.98511
1.98057
1.97139
1.95105
1.91472
1.88241
1.87322
1.87113
1.86821
1.86091
1.84576
1.81425
1.78293
1.77359
1.77168
1.76865
1.76209
1.74962
1.72145
1.68982
1.67892
1.676
1.67254
1.667
1.65804
1.6378
1.61095
1.59708
1.59428
1.59131
1.58566
1.57495
1.55165
1.53169
1.52707
1.52134
1.51648
1.59356
3.10645
5.14658
5.32103
5.30313
5.28094
5.25656
5.2438
5.24603
5.24897
5.25132
5.25138
5.24406
5.21101
5.13216
5.03934
5.00557
4.99919
4.99896
5.00365
4.99917
4.98867
4.96748
4.91718
4.81393
4.73141
4.70957
4.69619
4.69005
4.67959
4.6594
4.63269
4.5881
4.50455
4.41013
4.36199
4.33605
4.30996
4.28147
5.63889
5.5747
5.51375
5.45465
5.39534
5.33547
5.28996
5.24225
5.185
5.13073
5.07347
5.00991
4.95194
4.8941
4.83818
4.78315
4.72616
4.6845
4.64144
4.58933
4.54248
4.49037
4.43437
4.38581
4.33287
4.28159
4.23106
4.17251
4.13374
4.09542
4.04813
4.00797
3.96058
3.90996
3.86838
3.82187
3.77964
3.73504
3.67348
3.62827
3.59663
3.56644
3.53936