/*--------------------------------*- C++ -*----------------------------------*\
  =========                 |
  \\      /  F ield         | OpenFOAM: The Open Source CFD Toolbox
   \\    /   O peration     | Website:  https://openfoam.org
    \\  /    A nd           | Version:  7
     \\/     M anipulation  |
\*---------------------------------------------------------------------------*/
FoamFile
{
    version     2.0;
    format      ascii;
    class       volVectorField;
    location    "0.2";
    object      U;
}
// * * * * * * * * * * * * * * * * * * * * * * * * * * * * * * * * * * * * * //

dimensions      [0 1 -1 0 0 0 0];

internalField   nonuniform List<vector> 
4128
(
(3 3.80632e-17 0)
(3 -5.54648e-16 0)
(3 -1.7063e-15 0)
(3 -1.94805e-15 0)
(3 -1.70968e-15 0)
(3 -2.45219e-15 0)
(3 -3.04182e-15 0)
(3 -3.01125e-15 0)
(3 -1.86984e-15 0)
(3 -1.46649e-15 0)
(3 1.29107e-17 0)
(3 2.64639e-15 0)
(3 3.03931e-15 0)
(3 1.06989e-15 0)
(3 -4.3946e-16 0)
(3 6.46296e-17 0)
(3 -1.49878e-17 0)
(3 -5.09634e-16 0)
(3 -2.18209e-15 0)
(3 -2.7309e-15 0)
(3 -2.11549e-15 0)
(3 -7.4603e-16 0)
(3 -6.63839e-16 0)
(3 -5.46849e-16 0)
(3 -6.29949e-16 0)
(3 -1.51778e-16 0)
(3 5.70031e-16 0)
(3 7.25515e-16 0)
(3 7.67651e-16 0)
(3 8.66234e-16 0)
(3 1.55586e-15 0)
(3 1.4824e-15 0)
(3 7.61248e-17 0)
(3 7.79874e-17 0)
(3 2.81121e-17 0)
(3 4.19117e-16 0)
(3 5.18962e-16 0)
(3 9.6889e-16 0)
(3 1.23508e-15 0)
(3 1.04058e-15 0)
(3 7.74792e-16 0)
(3 1.48123e-15 0)
(3 1.94636e-15 0)
(3 1.70112e-15 0)
(3 2.86916e-16 0)
(3 -7.57519e-16 0)
(3 -7.23665e-16 0)
(3 3.12561e-16 0)
(3 4.9784e-16 0)
(3 -6.74071e-16 0)
(3 -1.76211e-15 0)
(3 -1.47063e-15 0)
(3 -4.27002e-16 0)
(3 -7.3008e-17 0)
(3 1.22795e-16 0)
(3 5.36643e-16 0)
(3 6.87247e-16 0)
(3 8.34403e-16 0)
(3 5.83223e-16 0)
(3 9.53172e-16 0)
(3 1.53118e-15 0)
(3 -4.00638e-16 0)
(3 -7.81635e-16 0)
(3 -5.40634e-16 0)
(3 -4.32257e-16 0)
(3 2.87426e-16 0)
(3 7.9442e-16 0)
(3 -4.15691e-17 0)
(3 -1.44183e-15 0)
(3 -1.11945e-15 0)
(3 -1.11916e-15 0)
(3 -2.72622e-15 0)
(3 -4.29668e-15 0)
(3 -3.50981e-15 0)
(3 -2.31239e-15 0)
(3 -1.08343e-15 0)
(3 -8.76173e-16 0)
(3 7.24363e-16 0)
(3 2.98838e-15 0)
(3 3.06256e-15 0)
(3 3.22222e-15 0)
(3 2.92232e-15 0)
(3 3.04041e-15 0)
(3 3.30762e-15 0)
(3 3.50786e-15 0)
(3 3.3903e-15 0)
(3 3.11757e-15 0)
(3 2.55862e-15 0)
(3 1.53527e-15 0)
(3 6.30605e-16 0)
(3 7.04866e-16 0)
(3 7.84605e-16 0)
(3 3.20146e-16 0)
(3 5.57759e-16 0)
(3 -4.7351e-16 0)
(3 -6.0852e-16 0)
(3 -3.5997e-16 0)
(3 -1.30691e-15 0)
(3 -1.48582e-15 0)
(3 -1.47155e-15 0)
(3 -8.33982e-16 0)
(3 -1.51499e-16 0)
(3 -2.78138e-16 0)
(3 -6.06466e-16 0)
(3 -8.0205e-16 0)
(3 -2.79794e-16 0)
(3 7.59578e-16 0)
(3 2.34837e-15 0)
(3 3.13317e-15 0)
(3 1.94709e-15 0)
(3 1.75695e-16 0)
(3 -3.35333e-16 0)
(3 -2.70979e-16 0)
(3 1.29802e-16 0)
(3 -5.47524e-16 0)
(3 -1.58639e-15 0)
(3 -2.78544e-15 0)
(3 -3.03448e-15 0)
(3 -2.54001e-15 0)
(3 -2.36467e-15 0)
(3 -1.32288e-15 0)
(3 -2.99684e-16 0)
(3 -2.0721e-16 0)
(3 2.92065e-16 0)
(3 1.1629e-15 0)
(3 1.82682e-15 0)
(3 2.10542e-15 0)
(3 1.91592e-15 0)
(3 1.67253e-16 0)
(3 5.01549e-16 0)
(3 8.73437e-16 0)
(3 6.53086e-16 0)
(3 6.93117e-16 0)
(3 1.51859e-15 0)
(3 2.6213e-15 0)
(3 2.14217e-15 0)
(3 1.61819e-15 0)
(3 2.04196e-15 0)
(3 3.73975e-16 0)
(3 5.39831e-17 0)
(3 1.73358e-16 0)
(3 5.72027e-17 0)
(3 -4.59062e-16 0)
(3 3.80982e-17 0)
(3 -8.07035e-17 0)
(3 -1.2727e-16 0)
(3 1.28458e-16 0)
(3 -9.82095e-18 0)
(3 -9.40179e-16 0)
(3 -9.43794e-16 0)
(3 -2.69146e-16 0)
(3 2.58907e-16 0)
(3 3.05466e-16 0)
(3 7.44264e-17 0)
(3 3.56998e-16 0)
(3 -2.66533e-16 0)
(3 -2.15989e-15 0)
(3 -2.81414e-15 0)
(3 -2.13512e-15 0)
(3 -1.81945e-15 0)
(3 -9.13382e-16 0)
(3 4.63324e-16 0)
(3 1.35593e-15 0)
(3 2.58928e-16 0)
(3 -9.71529e-16 0)
(3 -5.76952e-16 0)
(3 -7.69603e-16 0)
(3 -1.44212e-15 0)
(3 -1.37636e-15 0)
(3 -6.50795e-16 0)
(3 -2.64668e-16 0)
(3 -2.14905e-16 0)
(3 -2.08433e-16 0)
(3 -1.63026e-16 0)
(3 1.61079e-15 0)
(3 3.2444e-15 0)
(3 2.25475e-15 0)
(3 8.99561e-16 0)
(3 1.89799e-15 0)
(3 2.41326e-15 0)
(3 1.81802e-15 0)
(3 1.38224e-15 0)
(3 7.8592e-16 0)
(3 1.74928e-15 0)
(3 1.22571e-15 0)
(3 1.52264e-15 0)
(3 1.83263e-15 0)
(3 1.38492e-15 0)
(3 1.00503e-15 0)
(3 5.66237e-16 0)
(3 -7.21499e-17 0)
(3 -1.22915e-16 0)
(3 3.879e-17 0)
(3 -4.22431e-16 0)
(3 -8.32097e-16 0)
(3 -1.00894e-15 0)
(3 -7.45451e-16 0)
(3 -4.77584e-16 0)
(3 1.20324e-15 0)
(3 1.59033e-15 0)
(3 2.01577e-15 0)
(3 1.77739e-15 0)
(3 1.58399e-15 0)
(3 1.15875e-15 0)
(3 9.32282e-16 0)
(3 7.02828e-16 0)
(3 7.08556e-16 0)
(3 1.65706e-16 0)
(3 3.02789e-16 0)
(3 1.18417e-16 0)
(3 3.31818e-16 0)
(3 -8.8487e-16 0)
(3 -1.87773e-15 0)
(3 -2.95488e-15 0)
(3 -3.07838e-15 0)
(3 -2.35259e-15 0)
(3 -2.0069e-15 0)
(3 -8.85834e-16 0)
(3 6.26526e-16 0)
(3 2.06606e-15 0)
(3 2.53673e-15 0)
(3 2.51449e-15 0)
(3 1.41402e-15 0)
(3 8.8451e-16 0)
(3 6.19868e-16 0)
(3 9.76318e-16 0)
(3 6.21292e-16 0)
(3 1.86207e-16 0)
(3 2.99977e-16 0)
(3 6.52588e-16 0)
(3 1.22064e-15 0)
(3 1.35988e-15 0)
(3 5.66066e-16 0)
(3 -2.74997e-16 0)
(3 -8.68185e-16 0)
(3 -5.96784e-16 0)
(3 -5.34596e-16 0)
(3 1.02858e-16 0)
(3 -9.41986e-17 0)
(3 4.22513e-17 0)
(3 1.39122e-17 0)
(3 -1.01147e-16 0)
(3 3.77846e-16 0)
(3 2.82887e-16 0)
(3 -9.60845e-16 0)
(3 -1.41141e-15 0)
(3 -1.22157e-15 0)
(3 -7.84619e-16 0)
(3 -3.26366e-16 0)
(3 -2.96964e-16 0)
(3 1.8071e-16 0)
(3 -6.28083e-16 0)
(3 -2.83332e-15 0)
(3 -3.56408e-15 0)
(3 -3.71527e-15 0)
(3 -2.98502e-15 0)
(3 -7.30183e-16 0)
(3 1.98964e-16 0)
(3 6.83402e-16 0)
(3 1.197e-15 0)
(3 1.10501e-15 0)
(3 9.78713e-16 0)
(3 -1.04946e-16 0)
(3 -1.56892e-16 0)
(3 3.35272e-16 0)
(3 6.48613e-16 0)
(3 8.53429e-16 0)
(3 5.57722e-16 0)
(3 4.96177e-17 0)
(3 1.967e-17 0)
(3 1.52273e-15 0)
(3 2.51862e-15 0)
(3 1.8726e-15 0)
(3 1.31873e-15 0)
(3 1.51019e-15 0)
(3 1.61396e-15 0)
(3 9.32066e-16 0)
(3 2.61212e-16 0)
(3 1.56025e-15 0)
(3 7.4745e-16 0)
(3 1.12708e-16 0)
(3 8.23304e-16 0)
(3 6.98735e-16 0)
(3 2.33826e-16 0)
(3 -7.01447e-17 0)
(3 -6.69957e-16 0)
(3 -5.82284e-17 0)
(3 -1.8624e-16 0)
(3 -4.91424e-17 0)
(3 -1.19266e-16 0)
(3 -3.58829e-16 0)
(3 -1.70752e-16 0)
(3 -3.59416e-16 0)
(3 -3.79679e-16 0)
(3 7.3559e-16 0)
(3 2.35132e-15 0)
(3 2.44286e-15 0)
(3 2.46511e-15 0)
(3 2.24351e-15 0)
(3 1.40392e-16 0)
(3 -3.82458e-16 0)
(3 1.45862e-15 0)
(3 2.01824e-15 0)
(3 2.12117e-15 0)
(3 1.79552e-15 0)
(3 4.10944e-16 0)
(3 5.47118e-16 0)
(3 -6.8601e-16 0)
(3 -4.43716e-16 0)
(3 -1.62617e-15 0)
(3 -1.6546e-15 0)
(3 -7.36839e-16 0)
(3 -7.73474e-16 0)
(3 -4.3736e-16 0)
(3 -3.59871e-17 0)
(3 1.16337e-15 0)
(3 1.84854e-15 0)
(3 1.67892e-15 0)
(3 4.03189e-16 0)
(3 4.99133e-16 0)
(3 -1.22874e-16 0)
(3 -4.00685e-16 0)
(3 -3.86328e-16 0)
(3 -1.41506e-16 0)
(3 4.57298e-17 0)
(3 1.02061e-16 0)
(3 -7.02395e-17 0)
(3 -3.48154e-16 0)
(3 -3.69974e-16 0)
(3 -5.83577e-16 0)
(3 -2.84606e-17 0)
(3 8.44874e-17 0)
(3 6.4815e-18 0)
(3 2.73604e-16 0)
(3 3.19272e-16 0)
(3 -5.47397e-16 0)
(3 -5.52543e-16 0)
(3 -5.60736e-17 0)
(3 6.76643e-16 0)
(3 2.86793e-17 0)
(3 -8.26354e-16 0)
(3 -5.67852e-18 0)
(3 9.38112e-17 0)
(3 2.99242e-16 0)
(3 6.94634e-17 0)
(3 -5.06658e-16 0)
(3 -1.51055e-15 0)
(3 -1.30893e-15 0)
(3 -1.35475e-15 0)
(3 -1.77618e-15 0)
(3 -2.03954e-15 0)
(3 -1.99828e-15 0)
(3 -7.96508e-16 0)
(3 -3.96781e-16 0)
(3 -4.4134e-16 0)
(3 1.86692e-16 0)
(3 1.56087e-15 0)
(3 1.71142e-15 0)
(3 7.69626e-16 0)
(3 9.98286e-16 0)
(3 9.06307e-16 0)
(3 9.34662e-16 0)
(3 1.27405e-15 0)
(3 1.09209e-15 0)
(3 1.06674e-15 0)
(3 1.6074e-15 0)
(3 1.74771e-15 0)
(3 1.31834e-15 0)
(3 7.32476e-16 0)
(3 1.65327e-16 0)
(3 -1.06504e-16 0)
(3 -1.37318e-16 0)
(3 -7.38503e-16 0)
(3 -1.64262e-15 0)
(3 -1.97766e-15 0)
(3 -1.7414e-15 0)
(3 -3.03314e-16 0)
(3 4.66435e-16 0)
(3 4.60317e-17 0)
(3 -9.82657e-16 0)
(3 -9.19897e-16 0)
(3 -7.53279e-16 0)
(3 -3.17045e-16 0)
(3 4.61904e-16 0)
(3 4.14654e-16 0)
(3 -4.12966e-16 0)
(3 -2.547e-16 0)
(3 -3.65096e-16 0)
(3 4.13018e-16 0)
(3 1.3558e-16 0)
(3 -4.98528e-16 0)
(3 2.11341e-17 0)
(3 7.3772e-16 0)
(3 1.35513e-15 0)
(3 1.02316e-15 0)
(3 2.1782e-16 0)
(3 8.61171e-16 0)
(3 2.22098e-15 0)
(3 2.62039e-15 0)
(3 2.53704e-15 0)
(3 1.79363e-15 0)
(3 1.15585e-15 0)
(3 9.87528e-16 0)
(3 9.92696e-16 0)
(3 3.29065e-16 0)
(3 -5.05986e-16 0)
(3 -9.79239e-16 0)
(3 -8.6972e-16 0)
(3 -6.29364e-16 0)
(3 -5.62103e-16 0)
(3 6.33959e-16 0)
(3 9.52876e-16 0)
(3 1.03199e-15 0)
(3 6.75773e-16 0)
(3 4.52074e-16 0)
(3 8.07762e-16 0)
(3 -4.37424e-16 0)
(3 -5.64297e-16 0)
(3 -2.53595e-16 0)
(3 -2.59456e-16 0)
(3 1.7394e-16 0)
(3 -2.97541e-16 0)
(3 -8.23126e-16 0)
(3 -4.8618e-16 0)
(3 2.47165e-16 0)
(3 1.09066e-15 0)
(3 1.01417e-15 0)
(3 -6.01644e-17 0)
(3 -1.46153e-16 0)
(3 -1.45058e-16 0)
(3 2.56999e-16 0)
(3 -6.23915e-16 0)
(3 -5.77324e-16 0)
(3 2.18828e-17 0)
(3 1.97442e-15 0)
(3 2.13089e-15 0)
(3 1.61371e-15 0)
(3 1.59476e-15 0)
(3 1.76339e-15 0)
(3 1.91324e-16 0)
(3 -3.59324e-16 0)
(3 -5.59151e-16 0)
(3 -4.20155e-16 0)
(3 8.17584e-17 0)
(3 3.76916e-17 0)
(3 1.02343e-16 0)
(3 1.37638e-16 0)
(3 7.77607e-16 0)
(3 1.27024e-15 0)
(3 1.13586e-15 0)
(3 -8.91941e-17 0)
(3 3.53761e-16 0)
(3 8.4622e-16 0)
(3 7.24861e-16 0)
(3 7.95342e-16 0)
(3 1.1562e-15 0)
(3 9.81152e-16 0)
(3 3.76612e-16 0)
(3 4.75432e-16 0)
(3 8.76257e-16 0)
(3 2.28138e-15 0)
(3 2.70032e-15 0)
(3 2.2748e-15 0)
(3 5.69037e-16 0)
(3 -3.38312e-16 0)
(3 -1.09222e-16 0)
(3 -3.51979e-16 0)
(3 -6.23436e-16 0)
(3 -1.39168e-15 0)
(3 -1.92027e-15 0)
(3 -3.29802e-15 0)
(3 -1.87828e-15 0)
(3 1.10002e-16 0)
(3 5.01677e-16 0)
(3 7.00363e-16 0)
(3 1.6443e-15 0)
(3 1.86108e-15 0)
(3 1.38683e-15 0)
(3 9.47727e-16 0)
(3 6.89999e-16 0)
(3 4.91823e-16 0)
(3 8.55794e-16 0)
(3 1.18085e-15 0)
(3 5.68102e-16 0)
(3 7.20503e-16 0)
(3 3.55368e-16 0)
(3 -6.69428e-16 0)
(3 -1.8333e-15 0)
(3 -1.35825e-15 0)
(3 -1.12495e-15 0)
(3 -1.56502e-15 0)
(3 -9.65573e-16 0)
(3 4.97363e-16 0)
(3 1.35269e-15 0)
(3 2.00782e-15 0)
(3 2.02257e-15 0)
(3 1.6805e-15 0)
(3 1.82703e-15 0)
(3 1.54538e-15 0)
(3 1.76752e-15 0)
(3 1.16319e-15 0)
(3 -5.83986e-16 0)
(3 -1.7918e-15 0)
(3 -1.8496e-15 0)
(3 -6.70334e-16 0)
(3 2.0174e-16 0)
(3 1.18353e-15 0)
(3 9.79016e-16 0)
(3 4.98136e-16 0)
(3 3.26828e-16 0)
(3 5.19027e-17 0)
(3 -9.08718e-17 0)
(3 -1.04935e-16 0)
(3 2.5598e-16 0)
(3 6.17702e-16 0)
(3 4.27062e-16 0)
(3 6.58391e-16 0)
(3 2.33002e-16 0)
(3 -4.19268e-16 0)
(3 -2.90785e-16 0)
(3 -7.54843e-16 0)
(3 -4.38978e-16 0)
(3 -5.63356e-16 0)
(3 -3.99425e-16 0)
(3 -5.00306e-16 0)
(3 -2.48196e-16 0)
(3 -1.93403e-16 0)
(3 -8.00989e-17 0)
(3 2.92058e-16 0)
(3 5.24756e-16 0)
(3 1.46365e-15 0)
(3 1.43592e-15 0)
(3 2.52072e-15 0)
(3 1.67585e-15 0)
(3 7.08863e-16 0)
(3 -1.07901e-15 0)
(3 -1.86246e-15 0)
(3 -1.24443e-15 0)
(3 7.54618e-16 0)
(3 1.42142e-15 0)
(3 1.19733e-15 0)
(3 1.49511e-15 0)
(3 1.55768e-15 0)
(3 1.81272e-15 0)
(3 1.52071e-15 0)
(3 6.37025e-16 0)
(3 -7.56633e-16 0)
(3 -1.19685e-15 0)
(3 -3.8435e-16 0)
(3 9.74058e-16 0)
(3 1.05627e-15 0)
(3 4.50965e-16 0)
(3 -4.59982e-16 0)
(3 -4.49622e-16 0)
(3 1.61339e-16 0)
(3 4.7369e-16 0)
(3 7.30647e-16 0)
(3 4.68093e-16 0)
(3 -4.08092e-16 0)
(3 -9.90052e-16 0)
(3 -7.02882e-16 0)
(3 -2.88511e-17 0)
(3 1.10346e-16 0)
(3 -3.30751e-16 0)
(3 -3.60357e-16 0)
(3 -1.00161e-16 0)
(3 -6.58061e-16 0)
(3 -3.83996e-16 0)
(3 2.37965e-16 0)
(3 1.19799e-15 0)
(3 2.09496e-15 0)
(3 3.23597e-15 0)
(3 3.63129e-15 0)
(3 2.99402e-15 0)
(3 1.54178e-15 0)
(3 -2.39582e-17 0)
(3 6.20002e-16 0)
(3 1.82938e-15 0)
(3 2.27512e-15 0)
(3 2.24524e-15 0)
(3 1.46308e-15 0)
(3 6.52138e-16 0)
(3 1.03805e-16 0)
(3 -5.56713e-16 0)
(3 -1.06738e-15 0)
(3 -2.34314e-15 0)
(3 -2.3282e-15 0)
(3 -5.02373e-16 0)
(3 -3.61205e-16 0)
(3 5.45345e-16 0)
(3 1.7686e-15 0)
(3 1.67624e-15 0)
(3 1.56262e-15 0)
(3 1.06332e-15 0)
(3 8.20801e-16 0)
(3 7.63092e-16 0)
(3 4.75755e-16 0)
(3 4.96866e-16 0)
(3 1.12773e-16 0)
(3 -5.8727e-16 0)
(3 -6.21004e-16 0)
(3 -6.70603e-16 0)
(3 -9.90432e-16 0)
(3 -9.31075e-16 0)
(3 -6.77732e-16 0)
(3 -1.36552e-16 0)
(3 -3.80745e-17 0)
(3 3.60334e-16 0)
(3 6.84342e-17 0)
(3 1.30347e-16 0)
(3 1.07104e-16 0)
(3 4.90144e-16 0)
(3 2.84159e-16 0)
(3 8.90499e-16 0)
(3 3.10524e-16 0)
(3 -1.16332e-15 0)
(3 -1.70458e-15 0)
(3 -1.5607e-15 0)
(3 -1.18645e-15 0)
(3 -8.20608e-16 0)
(3 -1.35945e-16 0)
(3 2.68144e-16 0)
(3 7.4041e-16 0)
(3 1.26157e-15 0)
(3 1.01148e-15 0)
(3 9.80263e-16 0)
(3 3.49745e-16 0)
(3 4.7656e-16 0)
(3 1.10676e-15 0)
(3 1.07816e-15 0)
(3 -9.31022e-16 0)
(3 -7.55175e-16 0)
(3 -1.20891e-15 0)
(3 -8.82849e-16 0)
(3 5.85363e-16 0)
(3 1.9365e-15 0)
(3 2.17106e-15 0)
(3 2.24966e-15 0)
(3 2.64974e-15 0)
(3 2.39743e-15 0)
(3 8.74693e-16 0)
(3 -3.36663e-16 0)
(3 -1.05262e-15 0)
(3 -5.86014e-16 0)
(3 -3.13535e-16 0)
(3 3.95358e-16 0)
(3 2.54486e-16 0)
(3 -4.52994e-16 0)
(3 -1.32652e-15 0)
(3 -9.43922e-16 0)
(3 -8.9548e-16 0)
(3 -1.33647e-15 0)
(3 -1.76673e-15 0)
(3 -2.54585e-15 0)
(3 -3.47476e-15 0)
(3 -3.0974e-15 0)
(3 -1.79066e-15 0)
(3 -1.50482e-15 0)
(3 -2.4962e-15 0)
(3 -2.74487e-15 0)
(3 -6.84855e-16 0)
(3 4.65568e-16 0)
(3 2.7806e-16 0)
(3 3.83429e-16 0)
(3 7.73307e-16 0)
(3 3.28867e-16 0)
(3 -2.11046e-17 0)
(3 1.72822e-15 0)
(3 3.52498e-15 0)
(3 3.66547e-15 0)
(3 3.53662e-15 0)
(3 2.27255e-15 0)
(3 1.54385e-15 0)
(3 1.3951e-15 0)
(3 1.40492e-15 0)
(3 1.62464e-15 0)
(3 1.5511e-15 0)
(3 9.00362e-16 0)
(3 -2.25055e-16 0)
(3 -4.34799e-16 0)
(3 -9.77367e-16 0)
(3 -1.19547e-15 0)
(3 -6.32939e-16 0)
(3 4.63369e-16 0)
(3 7.56819e-16 0)
(3 1.03858e-15 0)
(3 1.25941e-15 0)
(3 3.40788e-16 0)
(3 -1.98429e-16 0)
(3 -3.49359e-17 0)
(3 -1.0257e-16 0)
(3 -7.0247e-16 0)
(3 -1.3517e-15 0)
(3 -1.15445e-15 0)
(3 -1.25852e-15 0)
(3 -1.74718e-15 0)
(3 -2.04171e-15 0)
(3 -1.81855e-15 0)
(3 -1.57067e-15 0)
(3 -1.0889e-15 0)
(3 -8.62565e-17 0)
(3 1.58241e-16 0)
(3 7.4128e-16 0)
(3 6.68898e-16 0)
(3 3.33772e-17 0)
(3 -3.30624e-16 0)
(3 -6.65556e-16 0)
(3 -1.53141e-16 0)
(3 -6.71037e-16 0)
(3 -1.12168e-15 0)
(3 -1.10067e-15 0)
(3 -1.57485e-15 0)
(3 -1.474e-15 0)
(3 -1.8223e-15 0)
(3 -1.82464e-15 0)
(3 -8.01981e-16 0)
(3 -2.90843e-16 0)
(3 3.15292e-16 0)
(3 1.47411e-15 0)
(3 2.41908e-15 0)
(3 1.60503e-15 0)
(3 7.70536e-16 0)
(3 2.68875e-16 0)
(3 -8.69835e-16 0)
(3 -1.46198e-15 0)
(3 -1.38507e-15 0)
(3 -6.75937e-16 0)
(3 -3.63917e-16 0)
(3 -1.56956e-16 0)
(3 -5.08555e-16 0)
(3 1.00584e-15 0)
(3 1.60889e-15 0)
(3 1.71364e-15 0)
(3 2.05374e-15 0)
(3 2.12936e-15 0)
(3 1.90937e-15 0)
(3 5.70701e-16 0)
(3 -9.96208e-16 0)
(3 -9.61861e-16 0)
(3 -1.02554e-16 0)
(3 5.27287e-16 0)
(3 -1.43526e-17 0)
(3 6.36145e-17 0)
(3 1.28484e-16 0)
(3 -8.80406e-16 0)
(3 -1.68577e-15 0)
(3 -1.89661e-15 0)
(3 -1.52288e-15 0)
(3 -1.94793e-15 0)
(3 -2.63311e-15 0)
(3 -2.18365e-15 0)
(3 -1.00653e-15 0)
(3 -1.11675e-15 0)
(3 -2.80127e-15 0)
(3 -2.91862e-15 0)
(3 -2.37116e-15 0)
(3 7.80696e-16 0)
(3 1.16631e-15 0)
(3 6.85103e-16 0)
(3 1.15121e-16 0)
(3 -3.88931e-16 0)
(3 -2.56162e-16 0)
(3 5.40879e-16 0)
(3 1.55767e-15 0)
(3 1.96015e-15 0)
(3 2.56284e-15 0)
(3 3.92929e-15 0)
(3 3.79483e-15 0)
(3 3.12711e-15 0)
(3 2.73758e-15 0)
(3 2.35028e-15 0)
(3 1.54022e-15 0)
(3 1.09793e-15 0)
(3 2.54488e-16 0)
(3 -6.13785e-16 0)
(3 -1.35796e-15 0)
(3 -1.62898e-15 0)
(3 5.16132e-17 0)
(3 2.07387e-15 0)
(3 1.79451e-15 0)
(3 9.65812e-16 0)
(3 1.41105e-16 0)
(3 -7.33254e-16 0)
(3 -8.14318e-16 0)
(3 -5.22457e-16 0)
(3 -1.15485e-15 0)
(3 -1.67723e-15 0)
(3 -2.14791e-15 0)
(3 -2.27308e-15 0)
(3 -2.66397e-15 0)
(3 -1.87845e-15 0)
(3 -1.31155e-15 0)
(3 -1.03519e-15 0)
(3 -6.31796e-16 0)
(3 -1.92052e-16 0)
(3 2.28659e-16 0)
(3 9.44357e-16 0)
(3 6.79665e-16 0)
(3 7.09351e-16 0)
(3 3.72106e-16 0)
(3 -7.47165e-17 0)
(3 -3.86731e-16 0)
(3 -3.64956e-16 0)
(3 -2.40787e-16 0)
(3 -1.14124e-15 0)
(3 -2.18048e-15 0)
(3 -1.96392e-15 0)
(3 -1.19813e-15 0)
(3 -1.26165e-15 0)
(3 -1.08301e-15 0)
(3 -4.75797e-16 0)
(3 5.93812e-16 0)
(3 1.14786e-15 0)
(3 1.63224e-15 0)
(3 2.63041e-15 0)
(3 2.16499e-15 0)
(3 1.11124e-15 0)
(3 1.16656e-16 0)
(3 1.34632e-15 0)
(3 1.00592e-15 0)
(3 -2.6695e-16 0)
(3 -8.8393e-16 0)
(3 -4.88392e-16 0)
(3 -1.81552e-16 0)
(3 1.94254e-16 0)
(3 2.06215e-16 0)
(3 1.18451e-15 0)
(3 1.63341e-15 0)
(3 1.55494e-15 0)
(3 2.15524e-15 0)
(3 2.22234e-15 0)
(3 1.28479e-15 0)
(3 -5.82908e-16 0)
(3 -1.20262e-15 0)
(3 -1.0737e-15 0)
(3 -4.75071e-16 0)
(3 8.19116e-16 0)
(3 8.77494e-16 0)
(3 6.77383e-16 0)
(3 2.85659e-17 0)
(3 3.95524e-16 0)
(3 -5.93072e-16 0)
(3 -2.43677e-16 0)
(3 -1.98588e-16 0)
(3 -5.4941e-16 0)
(3 -6.69721e-16 0)
(3 -3.26481e-16 0)
(3 -6.29317e-16 0)
(3 -1.18793e-15 0)
(3 -1.38977e-15 0)
(3 -1.5188e-15 0)
(3 5.3586e-17 0)
(3 -2.58102e-17 0)
(3 6.33429e-16 0)
(3 1.02922e-15 0)
(3 9.76284e-16 0)
(3 2.44502e-16 0)
(3 4.10387e-16 0)
(3 6.11391e-16 0)
(3 -2.03606e-16 0)
(3 -8.13966e-16 0)
(3 3.55407e-16 0)
(3 2.46723e-15 0)
(3 4.04862e-15 0)
(3 4.30382e-15 0)
(3 4.23342e-15 0)
(3 2.95983e-15 0)
(3 1.65661e-15 0)
(3 4.53141e-18 0)
(3 1.15275e-16 0)
(3 4.45482e-16 0)
(3 1.75113e-16 0)
(3 4.89177e-16 0)
(3 1.63141e-15 0)
(3 2.07697e-15 0)
(3 1.64036e-15 0)
(3 7.86011e-16 0)
(3 -7.00417e-16 0)
(3 -1.14465e-15 0)
(3 -6.65668e-16 0)
(3 1.27901e-16 0)
(3 -9.25426e-16 0)
(3 -2.6347e-15 0)
(3 -2.78802e-15 0)
(3 -2.76917e-15 0)
(3 -2.01177e-15 0)
(3 -1.33145e-15 0)
(3 -2.6955e-16 0)
(3 6.4916e-16 0)
(3 6.97351e-16 0)
(3 4.79149e-16 0)
(3 4.96149e-16 0)
(3 6.6593e-16 0)
(3 8.98142e-17 0)
(3 -5.52515e-16 0)
(3 -5.90462e-16 0)
(3 2.82194e-16 0)
(3 5.57912e-16 0)
(3 5.70005e-16 0)
(3 -1.17365e-18 0)
(3 -3.24831e-16 0)
(3 -6.43737e-16 0)
(3 -4.0901e-16 0)
(3 1.23791e-16 0)
(3 7.06939e-16 0)
(3 7.8451e-16 0)
(3 1.06798e-15 0)
(3 6.45924e-16 0)
(3 1.14089e-15 0)
(3 1.94492e-15 0)
(3 2.36654e-15 0)
(3 1.33005e-15 0)
(3 3.65696e-16 0)
(3 6.11423e-16 0)
(3 2.11537e-15 0)
(3 2.14023e-15 0)
(3 1.02857e-15 0)
(3 2.74824e-16 0)
(3 4.26823e-16 0)
(3 9.67993e-16 0)
(3 1.34051e-15 0)
(3 1.65775e-15 0)
(3 8.07912e-16 0)
(3 8.41914e-16 0)
(3 6.62792e-16 0)
(3 8.76283e-16 0)
(3 6.05631e-16 0)
(3 -5.61816e-16 0)
(3 -8.53468e-16 0)
(3 -1.02181e-15 0)
(3 -7.06763e-16 0)
(3 -8.58388e-16 0)
(3 -3.64852e-16 0)
(3 3.42542e-16 0)
(3 8.80842e-16 0)
(3 1.25592e-15 0)
(3 1.62503e-15 0)
(3 2.38309e-15 0)
(3 1.65227e-15 0)
(3 7.37731e-16 0)
(3 5.04857e-17 0)
(3 9.00457e-17 0)
(3 -7.88084e-17 0)
(3 -1.11468e-15 0)
(3 -1.80387e-15 0)
(3 -9.22311e-16 0)
(3 2.03083e-16 0)
(3 -3.31593e-17 0)
(3 -8.1275e-16 0)
(3 5.27639e-17 0)
(3 1.59905e-15 0)
(3 1.88477e-15 0)
(3 1.11284e-15 0)
(3 7.34795e-16 0)
(3 1.20885e-15 0)
(3 1.34927e-15 0)
(3 1.21021e-15 0)
(3 1.88701e-15 0)
(3 2.57811e-15 0)
(3 2.90458e-15 0)
(3 3.5587e-15 0)
(3 2.79756e-15 0)
(3 2.67571e-15 0)
(3 2.36432e-15 0)
(3 1.62444e-15 0)
(3 1.56684e-15 0)
(3 1.87661e-15 0)
(3 1.62418e-15 0)
(3 1.47455e-15 0)
(3 8.7693e-16 0)
(3 4.76337e-16 0)
(3 -4.77259e-16 0)
(3 -1.70192e-15 0)
(3 -2.62893e-15 0)
(3 -1.53876e-15 0)
(3 -2.77318e-16 0)
(3 -1.15231e-16 0)
(3 -1.06416e-15 0)
(3 -2.11313e-15 0)
(3 -2.04205e-15 0)
(3 -1.85245e-15 0)
(3 -1.24401e-15 0)
(3 -1.13329e-15 0)
(3 -7.09657e-16 0)
(3 -5.89058e-16 0)
(3 -5.88969e-16 0)
(3 -6.55379e-16 0)
(3 -8.35378e-16 0)
(3 -9.40234e-16 0)
(3 -2.10847e-15 0)
(3 -3.10914e-15 0)
(3 -1.69462e-15 0)
(3 -1.36825e-16 0)
(3 2.89644e-16 0)
(3 4.01161e-16 0)
(3 2.05934e-16 0)
(3 1.67029e-16 0)
(3 -1.48759e-16 0)
(3 -3.13478e-16 0)
(3 5.38348e-16 0)
(3 1.40256e-15 0)
(3 1.92139e-15 0)
(3 1.6504e-15 0)
(3 1.18984e-15 0)
(3 3.46587e-16 0)
(3 -4.53038e-16 0)
(3 -2.24082e-16 0)
(3 4.27651e-16 0)
(3 9.82762e-16 0)
(3 1.65346e-15 0)
(3 1.33615e-15 0)
(3 1.88278e-15 0)
(3 1.74771e-15 0)
(3 1.24249e-15 0)
(3 1.2319e-15 0)
(3 1.63617e-15 0)
(3 1.93648e-15 0)
(3 1.75352e-15 0)
(3 9.1527e-16 0)
(3 -5.43692e-16 0)
(3 -6.56652e-16 0)
(3 -5.39092e-16 0)
(3 -9.10291e-16 0)
(3 -1.04231e-15 0)
(3 -7.14599e-16 0)
(3 -7.90478e-16 0)
(3 -1.4263e-15 0)
(3 -2.36994e-15 0)
(3 -2.24674e-15 0)
(3 -1.10868e-15 0)
(3 -9.53775e-16 0)
(3 1.21663e-16 0)
(3 1.01398e-15 0)
(3 2.37159e-15 0)
(3 2.99046e-15 0)
(3 3.22869e-15 0)
(3 3.48703e-15 0)
(3 3.04678e-15 0)
(3 4.88554e-16 0)
(3 -2.17236e-15 0)
(3 -2.09608e-15 0)
(3 -2.34313e-16 0)
(3 8.65443e-16 0)
(3 9.53576e-17 0)
(3 4.33689e-17 0)
(3 6.70211e-16 0)
(3 2.13481e-15 0)
(3 2.40093e-15 0)
(3 2.04958e-15 0)
(3 1.48438e-15 0)
(3 1.72024e-15 0)
(3 3.28158e-15 0)
(3 4.33164e-15 0)
(3 4.56959e-15 0)
(3 2.61936e-15 0)
(3 1.97943e-15 0)
(3 1.25653e-15 0)
(3 1.77297e-15 0)
(3 3.61165e-15 0)
(3 3.16705e-15 0)
(3 2.65617e-15 0)
(3 1.4962e-15 0)
(3 -2.52482e-16 0)
(3 -7.8502e-16 0)
(3 -8.24672e-16 0)
(3 -1.12479e-15 0)
(3 -1.23775e-15 0)
(3 -1.38237e-15 0)
(3 -1.60341e-15 0)
(3 -1.94292e-15 0)
(3 -7.64346e-16 0)
(3 -5.35122e-17 0)
(3 -6.37215e-16 0)
(3 -2.45519e-16 0)
(3 -9.73935e-16 0)
(3 -1.09079e-15 0)
(3 -7.73527e-16 0)
(3 -8.88138e-16 0)
(3 -1.36026e-16 0)
(3 -1.20009e-16 0)
(3 -2.39811e-16 0)
(3 -4.13007e-16 0)
(3 -2.88045e-16 0)
(3 -1.02582e-15 0)
(3 -2.20755e-15 0)
(3 -3.2624e-15 0)
(3 -2.71157e-15 0)
(3 -1.67804e-15 0)
(3 -2.05762e-16 0)
(3 -3.35158e-16 0)
(3 -2.03021e-16 0)
(3 -3.99856e-16 0)
(3 -3.35364e-17 0)
(3 5.41986e-16 0)
(3 5.34139e-16 0)
(3 2.79884e-16 0)
(3 3.73137e-16 0)
(3 1.07987e-15 0)
(3 8.40607e-16 0)
(3 7.92298e-16 0)
(3 -1.10032e-16 0)
(3 -9.28834e-16 0)
(3 -1.31084e-15 0)
(3 9.19529e-17 0)
(3 9.33828e-16 0)
(3 7.10453e-16 0)
(3 8.02403e-16 0)
(3 8.45371e-16 0)
(3 6.55057e-16 0)
(3 8.93757e-16 0)
(3 8.47626e-16 0)
(3 1.88549e-16 0)
(3 2.05433e-18 0)
(3 -1.44205e-16 0)
(3 -4.37478e-16 0)
(3 -1.3163e-15 0)
(3 -8.76405e-16 0)
(3 -1.05944e-15 0)
(3 -9.31418e-16 0)
(3 -1.33835e-15 0)
(3 -1.1462e-15 0)
(3 -9.46174e-16 0)
(3 -4.656e-16 0)
(3 -6.36587e-16 0)
(3 -1.56986e-15 0)
(3 -1.98201e-15 0)
(3 -1.88103e-15 0)
(3 -1.55576e-15 0)
(3 2.10708e-16 0)
(3 7.93698e-16 0)
(3 9.25307e-16 0)
(3 6.50065e-16 0)
(3 1.09335e-15 0)
(3 3.58323e-16 0)
(3 -1.89217e-16 0)
(3 -1.01574e-15 0)
(3 -1.15525e-15 0)
(3 -4.94747e-16 0)
(3 -4.08219e-16 0)
(3 2.99258e-16 0)
(3 2.14425e-15 0)
(3 3.01787e-15 0)
(3 3.27552e-15 0)
(3 3.38694e-15 0)
(3 2.9254e-15 0)
(3 1.92019e-15 0)
(3 1.12648e-15 0)
(3 1.95118e-15 0)
(3 2.92395e-15 0)
(3 3.1333e-15 0)
(3 2.54234e-15 0)
(3 2.25956e-15 0)
(3 1.96244e-15 0)
(3 8.13516e-16 0)
(3 -6.46209e-17 0)
(3 6.59847e-16 0)
(3 1.32386e-15 0)
(3 1.02929e-15 0)
(3 7.1966e-16 0)
(3 1.16469e-15 0)
(3 1.42006e-15 0)
(3 1.02551e-15 0)
(3 -1.45456e-15 0)
(3 -1.49843e-15 0)
(3 -1.04508e-15 0)
(3 -7.30677e-16 0)
(3 -8.08162e-16 0)
(3 -1.15012e-15 0)
(3 -5.14183e-16 0)
(3 -3.52549e-16 0)
(3 -3.65479e-16 0)
(3 4.33595e-16 0)
(3 2.11752e-15 0)
(3 1.58189e-15 0)
(3 1.44136e-15 0)
(3 1.20164e-15 0)
(3 1.079e-15 0)
(3 4.25889e-16 0)
(3 1.67649e-16 0)
(3 -8.59515e-16 0)
(3 -1.89513e-15 0)
(3 -1.42391e-15 0)
(3 -1.20089e-15 0)
(3 -1.80238e-15 0)
(3 -7.75225e-19 0)
(3 -7.79472e-16 0)
(3 -6.734e-16 0)
(3 -5.68341e-16 0)
(3 -3.42514e-16 0)
(3 8.87947e-16 0)
(3 1.6233e-15 0)
(3 1.34237e-15 0)
(3 4.75621e-16 0)
(3 4.57951e-16 0)
(3 9.21096e-17 0)
(3 -2.90788e-16 0)
(3 -5.72781e-16 0)
(3 -9.63915e-16 0)
(3 -1.96988e-15 0)
(3 -1.03779e-15 0)
(3 -5.76597e-16 0)
(3 3.56328e-16 0)
(3 3.70001e-16 0)
(3 -7.29441e-16 0)
(3 -1.22555e-15 0)
(3 -1.56313e-15 0)
(3 -1.70907e-15 0)
(3 -1.15241e-15 0)
(3 -1.21923e-15 0)
(3 -1.65658e-15 0)
(3 -2.39248e-15 0)
(3 -2.16471e-15 0)
(3 -7.37896e-16 0)
(3 -5.48194e-17 0)
(3 2.67277e-16 0)
(3 -5.34611e-17 0)
(3 5.33331e-16 0)
(3 6.95479e-16 0)
(3 1.7953e-15 0)
(3 1.95964e-15 0)
(3 2.46825e-16 0)
(3 -4.04455e-16 0)
(3 -2.94643e-16 0)
(3 4.12422e-16 0)
(3 3.73162e-16 0)
(3 -3.41624e-16 0)
(3 -8.74125e-16 0)
(3 -1.02513e-15 0)
(3 -6.95324e-16 0)
(3 -3.7959e-16 0)
(3 -3.20782e-16 0)
(3 3.47962e-16 0)
(3 2.44267e-16 0)
(3 -3.26214e-16 0)
(3 -1.41639e-15 0)
(3 -2.52805e-16 0)
(3 1.23568e-16 0)
(3 1.66969e-15 0)
(3 2.91278e-15 0)
(3 2.86899e-15 0)
(3 1.47632e-15 0)
(3 1.2073e-15 0)
(3 6.01243e-16 0)
(3 1.40792e-16 0)
(3 2.38866e-16 0)
(3 7.17197e-16 0)
(3 6.77897e-16 0)
(3 7.86318e-16 0)
(3 1.35319e-15 0)
(3 1.34493e-15 0)
(3 1.15005e-15 0)
(3 1.65604e-15 0)
(3 2.5479e-15 0)
(3 2.05796e-15 0)
(3 1.60738e-15 0)
(3 1.52656e-15 0)
(3 1.54163e-15 0)
(3 4.72501e-16 0)
(3 -1.28743e-15 0)
(3 -1.74597e-15 0)
(3 -1.7477e-15 0)
(3 -1.80889e-15 0)
(3 -1.9053e-15 0)
(3 -1.86536e-15 0)
(3 -6.50434e-16 0)
(3 3.56109e-16 0)
(3 7.25464e-16 0)
(3 2.15122e-16 0)
(3 5.99802e-16 0)
(3 4.69852e-16 0)
(3 2.6056e-16 0)
(3 -8.55149e-17 0)
(3 -3.50856e-17 0)
(3 -9.78331e-17 0)
(3 -3.20619e-16 0)
(3 -1.11729e-15 0)
(3 -9.20568e-16 0)
(3 -8.826e-16 0)
(3 -1.736e-15 0)
(3 -3.05661e-15 0)
(3 -5.98464e-17 0)
(3 -2.68265e-16 0)
(3 -2.68161e-16 0)
(3 3.4524e-17 0)
(3 4.4023e-16 0)
(3 4.2185e-16 0)
(3 6.36774e-16 0)
(3 7.79571e-16 0)
(3 4.66873e-16 0)
(3 3.3416e-16 0)
(3 1.6979e-16 0)
(3 -4.11024e-16 0)
(3 -1.26882e-15 0)
(3 -2.09394e-15 0)
(3 -2.39304e-15 0)
(3 -2.44911e-15 0)
(3 -2.21265e-15 0)
(3 -2.0628e-15 0)
(3 -2.47277e-15 0)
(3 -1.99237e-15 0)
(3 -2.0808e-15 0)
(3 -2.37602e-15 0)
(3 -6.39693e-16 0)
(3 2.09494e-16 0)
(3 -4.02523e-17 0)
(3 -9.87508e-16 0)
(3 -8.64061e-16 0)
(3 -1.00669e-16 0)
(3 2.70286e-16 0)
(3 5.28142e-16 0)
(3 3.21057e-16 0)
(3 5.88853e-16 0)
(3 1.06949e-15 0)
(3 1.66497e-15 0)
(3 1.91137e-15 0)
(3 1.7607e-15 0)
(3 2.02657e-15 0)
(3 1.40682e-15 0)
(3 6.58365e-16 0)
(3 9.7505e-16 0)
(3 1.02366e-15 0)
(3 -1.66517e-16 0)
(3 -1.271e-15 0)
(3 -1.86338e-15 0)
(3 -1.77522e-15 0)
(3 -1.00802e-15 0)
(3 -1.3715e-16 0)
(3 4.35477e-17 0)
(3 -1.46779e-16 0)
(3 -1.28861e-15 0)
(3 -2.46664e-16 0)
(3 -3.99685e-16 0)
(3 -7.99552e-16 0)
(3 -4.64408e-16 0)
(3 3.19981e-16 0)
(3 -6.92034e-17 0)
(3 -9.13535e-16 0)
(3 -8.7707e-16 0)
(3 -6.55846e-16 0)
(3 -9.22899e-16 0)
(3 -8.63354e-16 0)
(3 -6.62894e-16 0)
(3 -6.73149e-16 0)
(3 -2.53243e-15 0)
(3 -1.78058e-15 0)
(3 5.4783e-16 0)
(3 1.53141e-15 0)
(3 5.30447e-16 0)
(3 8.77617e-16 0)
(3 1.15325e-15 0)
(3 1.25869e-15 0)
(3 6.83932e-16 0)
(3 4.88617e-16 0)
(3 -6.24123e-16 0)
(3 -1.25201e-15 0)
(3 -1.74004e-15 0)
(3 -2.66869e-15 0)
(3 -3.1311e-15 0)
(3 -3.0459e-15 0)
(3 -2.93528e-15 0)
(3 -2.78147e-15 0)
(3 -1.44191e-15 0)
(3 2.56939e-16 0)
(3 9.98269e-16 0)
(3 5.46526e-16 0)
(3 5.07417e-16 0)
(3 5.18157e-16 0)
(3 1.38193e-17 0)
(3 -1.59076e-16 0)
(3 -3.4984e-16 0)
(3 -6.44347e-16 0)
(3 -1.23861e-15 0)
(3 -1.55382e-15 0)
(3 -1.90672e-15 0)
(3 -2.27419e-15 0)
(3 -1.84639e-15 0)
(3 1.7413e-16 0)
(3 3.38054e-16 0)
(3 2.17932e-16 0)
(3 4.20258e-16 0)
(3 3.36253e-16 0)
(3 1.50047e-17 0)
(3 -9.64873e-17 0)
(3 4.22485e-16 0)
(3 3.58911e-16 0)
(3 -1.74722e-16 0)
(3 -7.3015e-16 0)
(3 -5.43116e-16 0)
(3 -3.92335e-16 0)
(3 -5.2056e-16 0)
(3 -4.05234e-16 0)
(3 -5.6397e-16 0)
(3 -1.81722e-15 0)
(3 -2.70677e-15 0)
(3 -3.02789e-15 0)
(3 -3.15425e-15 0)
(3 -1.94782e-15 0)
(3 -1.49176e-15 0)
(3 -6.80758e-16 0)
(3 -2.62557e-16 0)
(3 -4.27112e-16 0)
(3 -1.49536e-16 0)
(3 -1.94987e-16 0)
(3 -6.42554e-17 0)
(3 1.89686e-16 0)
(3 5.42791e-16 0)
(3 4.2452e-16 0)
(3 6.60143e-16 0)
(3 1.15742e-15 0)
(3 2.08989e-15 0)
(3 2.25146e-15 0)
(3 1.94047e-15 0)
(3 1.4481e-15 0)
(3 9.91099e-16 0)
(3 4.11126e-16 0)
(3 3.24003e-16 0)
(3 6.84502e-16 0)
(3 4.44661e-16 0)
(3 -4.76009e-16 0)
(3 -7.95563e-16 0)
(3 -1.24717e-15 0)
(3 -1.84447e-15 0)
(3 -1.44256e-15 0)
(3 -1.12028e-15 0)
(3 -7.30645e-16 0)
(3 -3.61624e-16 0)
(3 -1.69374e-15 0)
(3 -2.00065e-15 0)
(3 -2.27197e-15 0)
(3 -2.53316e-15 0)
(3 -2.37489e-15 0)
(3 -1.94979e-15 0)
(3 -1.22599e-15 0)
(3 -7.94148e-16 0)
(3 -7.37843e-16 0)
(3 -5.46418e-16 0)
(3 -1.06899e-15 0)
(3 -1.18383e-15 0)
(3 -1.4068e-15 0)
(3 -2.32243e-15 0)
(3 -2.07018e-15 0)
(3 -4.58514e-16 0)
(3 9.65473e-16 0)
(3 -2.15074e-16 0)
(3 -2.5014e-16 0)
(3 8.37952e-16 0)
(3 1.36896e-15 0)
(3 7.96826e-16 0)
(3 1.00552e-15 0)
(3 -5.95959e-16 0)
(3 -2.07217e-15 0)
(3 -2.33597e-15 0)
(3 -2.63194e-15 0)
(3 -2.73514e-15 0)
(3 -2.6523e-15 0)
(3 -2.2604e-15 0)
(3 -2.58744e-15 0)
(3 -1.52422e-15 0)
(3 -3.20308e-16 0)
(3 1.58915e-15 0)
(3 1.99371e-15 0)
(3 2.24894e-15 0)
(3 1.58656e-15 0)
(3 1.14907e-15 0)
(3 -2.01634e-16 0)
(3 -1.26017e-15 0)
(3 -1.75823e-15 0)
(3 -1.96656e-15 0)
(3 -2.4923e-15 0)
(3 -3.34477e-15 0)
(3 -3.12208e-15 0)
(3 -2.58823e-15 0)
(3 7.89046e-17 0)
(3 3.76199e-16 0)
(3 -1.44321e-16 0)
(3 -1.70028e-16 0)
(3 -5.97144e-16 0)
(3 -4.93942e-16 0)
(3 -6.22655e-16 0)
(3 -2.78728e-16 0)
(3 -5.63809e-16 0)
(3 1.24597e-16 0)
(3 4.99424e-16 0)
(3 6.02317e-16 0)
(3 4.31651e-17 0)
(3 -1.58633e-17 0)
(3 -8.28782e-17 0)
(3 -3.97557e-17 0)
(3 -3.30441e-16 0)
(3 -5.81365e-16 0)
(3 -1.57591e-15 0)
(3 -2.35856e-15 0)
(3 -2.20524e-15 0)
(3 -1.45852e-15 0)
(3 -1.25214e-15 0)
(3 -1.80775e-15 0)
(3 -2.19848e-15 0)
(3 -7.69382e-16 0)
(3 1.13391e-17 0)
(3 -9.1086e-17 0)
(3 -8.64724e-17 0)
(3 -3.21485e-16 0)
(3 -1.64063e-16 0)
(3 -8.35825e-17 0)
(3 6.21622e-16 0)
(3 8.00505e-16 0)
(3 1.19763e-15 0)
(3 9.65898e-16 0)
(3 1.06093e-15 0)
(3 5.82706e-16 0)
(3 1.9264e-16 0)
(3 -7.18129e-16 0)
(3 -1.00451e-15 0)
(3 4.87559e-16 0)
(3 1.07055e-15 0)
(3 6.57597e-16 0)
(3 3.07528e-16 0)
(3 -1.71955e-15 0)
(3 -3.04893e-15 0)
(3 -2.84866e-15 0)
(3 -2.02807e-15 0)
(3 -1.33015e-15 0)
(3 -1.59843e-15 0)
(3 -1.48573e-15 0)
(3 -1.38599e-15 0)
(3 -1.76128e-15 0)
(3 -2.86082e-15 0)
(3 -2.29467e-15 0)
(3 4.29132e-16 0)
(3 1.39868e-15 0)
(3 1.36271e-15 0)
(3 9.76671e-16 0)
(3 2.8887e-16 0)
(3 2.74971e-16 0)
(3 -2.94742e-16 0)
(3 -1.63686e-16 0)
(3 -8.21381e-16 0)
(3 -2.03244e-15 0)
(3 -2.30227e-15 0)
(3 2.29821e-16 0)
(3 1.63435e-15 0)
(3 1.68163e-15 0)
(3 4.77932e-16 0)
(3 2.6408e-16 0)
(3 9.00113e-16 0)
(3 9.3847e-16 0)
(3 -1.45743e-15 0)
(3 -2.12355e-15 0)
(3 -2.54517e-15 0)
(3 -2.40647e-15 0)
(3 -2.01828e-15 0)
(3 -1.52998e-15 0)
(3 -7.344e-16 0)
(3 4.5442e-16 0)
(3 1.73703e-15 0)
(3 1.85778e-15 0)
(3 1.18573e-15 0)
(3 1.60999e-16 0)
(3 -6.16724e-16 0)
(3 -5.36447e-16 0)
(3 -1.04391e-15 0)
(3 -1.65847e-15 0)
(3 -2.17479e-15 0)
(3 -2.81464e-15 0)
(3 -2.45868e-15 0)
(3 -1.70916e-15 0)
(3 -1.76785e-15 0)
(3 -2.06309e-15 0)
(3 5.9126e-17 0)
(3 -1.77794e-17 0)
(3 -1.3114e-16 0)
(3 -7.40867e-16 0)
(3 -1.3608e-16 0)
(3 -1.40352e-16 0)
(3 -3.09558e-16 0)
(3 -7.36881e-16 0)
(3 -8.77855e-16 0)
(3 -2.78222e-16 0)
(3 5.63277e-16 0)
(3 -1.98268e-16 0)
(3 -7.79916e-16 0)
(3 -4.54305e-16 0)
(3 9.49117e-17 0)
(3 1.94541e-16 0)
(3 3.86837e-16 0)
(3 1.0118e-15 0)
(3 -2.09237e-16 0)
(3 -1.37452e-15 0)
(3 -1.94934e-15 0)
(3 -1.98502e-15 0)
(3 -2.34927e-15 0)
(3 -3.16045e-15 0)
(3 -1.55195e-15 0)
(3 -7.83796e-16 0)