/*--------------------------------*- C++ -*----------------------------------*\
  =========                 |
  \\      /  F ield         | OpenFOAM: The Open Source CFD Toolbox
   \\    /   O peration     | Website:  https://openfoam.org
    \\  /    A nd           | Version:  7
     \\/     M anipulation  |
\*---------------------------------------------------------------------------*/
FoamFile
{
    version     2.0;
    format      ascii;
    class       volVectorField;
    location    "2.7";
    object      U;
}
// * * * * * * * * * * * * * * * * * * * * * * * * * * * * * * * * * * * * * //

dimensions      [0 1 -1 0 0 0 0];

internalField   nonuniform List<vector> 
4128
(
(2.1626 0.244046 0)
(2.17858 0.233195 0)
(2.19098 0.216353 0)
(2.19615 0.183089 0)
(2.19667 0.157732 0)
(2.20119 0.148667 0)
(2.21488 0.140451 0)
(2.23365 0.132777 0)
(2.2555 0.120681 0)
(2.27402 0.109557 0)
(2.29218 0.0993672 0)
(2.3092 0.0857121 0)
(2.32264 0.0704456 0)
(2.33051 0.0526601 0)
(2.32224 0.0265526 0)
(2.307 -0.00284622 0)
(2.31578 -0.0156207 0)
(2.33068 -0.021458 0)
(2.34784 -0.0276233 0)
(2.36709 -0.0347367 0)
(2.38469 -0.0430727 0)
(2.40017 -0.0506045 0)
(2.41446 -0.0576985 0)
(2.42588 -0.0656842 0)
(2.42988 -0.0785056 0)
(2.41708 -0.102586 0)
(2.40026 -0.131353 0)
(2.40756 -0.1428 0)
(2.41937 -0.148023 0)
(2.43436 -0.153668 0)
(2.4522 -0.158608 0)
(2.46925 -0.165145 0)
(2.48127 -0.172544 0)
(2.49135 -0.179329 0)
(2.49969 -0.186084 0)
(2.50353 -0.196607 0)
(2.49505 -0.215569 0)
(2.47973 -0.238885 0)
(2.48501 -0.248753 0)
(2.49422 -0.251742 0)
(2.50366 -0.256506 0)
(2.51766 -0.262695 0)
(2.52738 -0.269797 0)
(2.54 -0.278252 0)
(2.553 -0.288393 0)
(2.56285 -0.298318 0)
(2.56694 -0.311143 0)
(2.55756 -0.328781 0)
(2.5417 -0.34619 0)
(2.54602 -0.350952 0)
(2.55401 -0.350625 0)
(2.55839 -0.346843 0)
(2.56422 -0.340279 0)
(2.57091 -0.333326 0)
(2.57245 -0.317271 0)
(2.56757 -0.290201 0)
(2.54821 -0.238369 0)
(2.53346 -0.1993 0)
(2.49126 -0.145384 0)
(2.45574 -0.11386 0)
(2.43605 -0.104743 0)
(2.41549 -0.0700137 0)
(2.41566 -0.0357332 0)
(2.42507 -0.0158557 0)
(2.4387 -0.000615437 0)
(2.43562 0.00431796 0)
(2.42897 0.00442981 0)
(2.42673 0.00563021 0)
(2.42469 0.011298 0)
(2.41812 0.0192345 0)
(2.40392 0.0192696 0)
(2.39576 0.0158793 0)
(2.38942 0.0126732 0)
(2.3874 0.0123137 0)
(2.39329 0.0192098 0)
(2.40807 0.0344824 0)
(2.41508 0.0449011 0)
(2.41225 0.0463189 0)
(2.40865 0.0460817 0)
(2.40216 0.0443382 0)
(2.39151 0.0411862 0)
(2.38152 0.0374123 0)
(2.37851 0.0344923 0)
(2.37774 0.0328902 0)
(2.37745 0.0309674 0)
(2.3792 0.0296999 0)
(2.38687 0.0339848 0)
(2.39979 0.0444137 0)
(2.40603 0.051437 0)
(2.40674 0.0534136 0)
(2.40474 0.053858 0)
(2.39546 0.0485501 0)
(2.3835 0.0409399 0)
(2.38227 0.0386008 0)
(2.38448 0.0386584 0)
(2.38718 0.0392859 0)
(2.39342 0.041916 0)
(2.4028 0.0474644 0)
(2.40786 0.0509701 0)
(2.40866 0.0516665 0)
(2.40852 0.0524912 0)
(2.40356 0.0511454 0)
(2.39274 0.0456595 0)
(2.38737 0.0413866 0)
(2.38806 0.0399234 0)
(2.38951 0.0385308 0)
(2.3938 0.0373594 0)
(2.40328 0.0390379 0)
(2.41388 0.0427725 0)
(2.41704 0.044852 0)
(2.41868 0.0457723 0)
(2.41674 0.0510556 0)
(2.4044 0.0392923 0)
(2.38582 0.0174186 0)
(2.26708 -0.105344 0)
(1.97839 -0.382807 0)
(1.72927 -0.541114 0)
(1.70019 -0.591261 0)
(1.69816 -0.597794 0)
(1.70496 -0.602061 0)
(1.71481 -0.602296 0)
(1.72939 -0.595832 0)
(1.74746 -0.585084 0)
(1.75953 -0.580275 0)
(1.76417 -0.584329 0)
(1.76629 -0.596931 0)
(1.77125 -0.607671 0)
(1.78024 -0.612689 0)
(1.79365 -0.613486 0)
(2.16409 0.258093 0)
(2.1779 0.248147 0)
(2.18882 0.229755 0)
(2.19449 0.194137 0)
(2.19981 0.174607 0)
(2.20944 0.170457 0)
(2.22402 0.162667 0)
(2.24324 0.153121 0)
(2.26388 0.138424 0)
(2.28121 0.128356 0)
(2.29704 0.119502 0)
(2.31215 0.10387 0)
(2.32284 0.0850238 0)
(2.32485 0.0632036 0)
(2.3114 0.0347088 0)
(2.30956 0.0155294 0)
(2.32354 0.01103 0)
(2.33848 0.00387485 0)
(2.35683 -0.00353214 0)
(2.37528 -0.011685 0)
(2.39095 -0.0209067 0)
(2.40545 -0.0288119 0)
(2.41869 -0.0368649 0)
(2.42759 -0.0470431 0)
(2.42389 -0.0662288 0)
(2.4033 -0.0969359 0)
(2.40052 -0.114689 0)
(2.41246 -0.118171 0)
(2.42449 -0.123067 0)
(2.44007 -0.129878 0)
(2.45833 -0.135537 0)
(2.47435 -0.141974 0)
(2.48617 -0.149229 0)
(2.49608 -0.15666 0)
(2.50316 -0.164206 0)
(2.50206 -0.176992 0)
(2.48609 -0.202458 0)
(2.47779 -0.224119 0)
(2.48862 -0.228485 0)
(2.49795 -0.23095 0)
(2.50848 -0.236335 0)
(2.52134 -0.242148 0)
(2.52992 -0.244395 0)
(2.54259 -0.250804 0)
(2.55318 -0.259389 0)
(2.56027 -0.268875 0)
(2.55843 -0.281244 0)
(2.54395 -0.302764 0)
(2.53829 -0.319984 0)
(2.5455 -0.326062 0)
(2.5558 -0.330658 0)
(2.56863 -0.332596 0)
(2.57928 -0.334197 0)
(2.58705 -0.333076 0)
(2.59213 -0.327761 0)
(2.5909 -0.324809 0)
(2.58332 -0.317322 0)
(2.56962 -0.29949 0)
(2.54828 -0.273792 0)
(2.51676 -0.229289 0)
(2.48518 -0.180506 0)
(2.45054 -0.11275 0)
(2.44651 -0.0793016 0)
(2.45999 -0.0483174 0)
(2.47063 -0.00958498 0)
(2.46029 -0.000934161 0)
(2.448 -0.00216081 0)
(2.43934 -0.00403423 0)
(2.43226 -0.00110468 0)
(2.42419 0.0083368 0)
(2.41574 0.0156933 0)
(2.41087 0.0153289 0)
(2.40389 0.0121775 0)
(2.40288 0.0116832 0)
(2.4139 0.0203154 0)
(2.42908 0.0353542 0)
(2.43162 0.0425298 0)
(2.42985 0.0447855 0)
(2.42407 0.0451734 0)
(2.41176 0.0405244 0)
(2.39558 0.0333645 0)
(2.38804 0.0304102 0)
(2.38776 0.0314361 0)
(2.38776 0.032009 0)
(2.38857 0.0324205 0)
(2.3938 0.034725 0)
(2.40543 0.0422933 0)
(2.41489 0.0497805 0)
(2.4168 0.0521947 0)
(2.41739 0.0546375 0)
(2.41188 0.0537328 0)
(2.39797 0.0462809 0)
(2.38962 0.0390469 0)
(2.38962 0.0374296 0)
(2.39132 0.0371131 0)
(2.39709 0.03896 0)
(2.40881 0.0457955 0)
(2.41941 0.0529186 0)
(2.42168 0.0546461 0)
(2.42215 0.0551378 0)
(2.4197 0.0545904 0)
(2.40932 0.0501851 0)
(2.39784 0.0446898 0)
(2.39638 0.0426836 0)
(2.39731 0.0420176 0)
(2.39958 0.0408966 0)
(2.40611 0.0413622 0)
(2.41855 0.0444172 0)
(2.4277 0.0478358 0)
(2.43008 0.0483239 0)
(2.43064 0.0529187 0)
(2.42158 0.0460623 0)
(2.40005 0.0160816 0)
(2.31992 -0.0740551 0)
(2.05182 -0.318043 0)
(1.74855 -0.555565 0)
(1.71024 -0.589262 0)
(1.72483 -0.58228 0)
(1.73569 -0.587608 0)
(1.73862 -0.59694 0)
(1.74321 -0.603012 0)
(1.74967 -0.605003 0)
(1.76031 -0.60072 0)
(1.76919 -0.592343 0)
(1.77364 -0.590603 0)
(1.7774 -0.595648 0)
(1.78233 -0.601755 0)
(1.79255 -0.607963 0)
(1.80871 -0.608189 0)
(2.16001 0.275296 0)
(2.17238 0.266127 0)
(2.18347 0.246276 0)
(2.19345 0.211693 0)
(2.20347 0.197105 0)
(2.21558 0.195534 0)
(2.23039 0.187954 0)
(2.24979 0.176284 0)
(2.26886 0.159717 0)
(2.28492 0.150156 0)
(2.29881 0.141095 0)
(2.31157 0.122226 0)
(2.31811 0.0995553 0)
(2.31398 0.0767134 0)
(2.30499 0.052875 0)
(2.31554 0.0436369 0)
(2.33075 0.0390827 0)
(2.34602 0.0304857 0)
(2.36345 0.0221345 0)
(2.38074 0.0128745 0)
(2.39504 0.00187105 0)
(2.40838 -0.00718474 0)
(2.42029 -0.0171275 0)
(2.42425 -0.0305849 0)
(2.41047 -0.0543356 0)
(2.3946 -0.0823884 0)
(2.40418 -0.0909079 0)
(2.41682 -0.0940731 0)
(2.43055 -0.0989384 0)
(2.44693 -0.106779 0)
(2.46153 -0.113816 0)
(2.47722 -0.119274 0)
(2.48951 -0.125832 0)
(2.49933 -0.133411 0)
(2.50424 -0.142981 0)
(2.49529 -0.158429 0)
(2.4754 -0.185492 0)
(2.47784 -0.201246 0)
(2.4886 -0.20405 0)
(2.49879 -0.207759 0)
(2.51324 -0.21418 0)
(2.52513 -0.222239 0)
(2.53352 -0.226251 0)
(2.54533 -0.233041 0)
(2.55533 -0.240833 0)
(2.56012 -0.251249 0)
(2.55239 -0.267344 0)
(2.53769 -0.286007 0)
(2.53959 -0.293943 0)
(2.54654 -0.297368 0)
(2.55493 -0.304338 0)
(2.56957 -0.309067 0)
(2.58338 -0.313331 0)
(2.59375 -0.319393 0)
(2.59926 -0.323338 0)
(2.60078 -0.32492 0)
(2.59652 -0.32773 0)
(2.58266 -0.330525 0)
(2.57245 -0.325508 0)
(2.56435 -0.313014 0)
(2.54892 -0.283518 0)
(2.51907 -0.220517 0)
(2.50485 -0.163287 0)
(2.49754 -0.0990619 0)
(2.49593 -0.0401247 0)
(2.49483 -0.0175075 0)
(2.47334 -0.0138775 0)
(2.45766 -0.0151555 0)
(2.44404 -0.0151419 0)
(2.43331 -0.00775478 0)
(2.42664 0.00798066 0)
(2.4245 0.0162784 0)
(2.41904 0.0161478 0)
(2.42163 0.0160728 0)
(2.43545 0.0239364 0)
(2.44422 0.0333449 0)
(2.44451 0.0381608 0)
(2.44212 0.0415143 0)
(2.43511 0.0423855 0)
(2.41896 0.0366002 0)
(2.40101 0.0268161 0)
(2.39605 0.0239325 0)
(2.39574 0.0247138 0)
(2.39716 0.0274026 0)
(2.40261 0.0328404 0)
(2.4145 0.0421703 0)
(2.42462 0.0490443 0)
(2.42626 0.0500337 0)
(2.42628 0.0505257 0)
(2.42403 0.0514983 0)
(2.41408 0.0497061 0)
(2.40147 0.04475 0)
(2.39747 0.0422056 0)
(2.39713 0.0413135 0)
(2.39889 0.0408365 0)
(2.40755 0.0445926 0)
(2.42316 0.0536603 0)
(2.43115 0.0583444 0)
(2.43264 0.0588569 0)
(2.43274 0.0579985 0)
(2.42637 0.0538689 0)
(2.41202 0.0472819 0)
(2.40472 0.0440183 0)
(2.40523 0.0437074 0)
(2.40635 0.0434563 0)
(2.41046 0.0439604 0)
(2.42079 0.0465633 0)
(2.43381 0.0507 0)
(2.43876 0.0514856 0)
(2.43985 0.0535869 0)
(2.43555 0.049277 0)
(2.41611 0.0236073 0)
(2.31412 -0.0905483 0)
(2.11391 -0.295654 0)
(1.88645 -0.462574 0)
(1.73878 -0.583265 0)
(1.71047 -0.619453 0)
(1.72239 -0.603456 0)
(1.74567 -0.589003 0)
(1.76287 -0.58763 0)
(1.77174 -0.59292 0)
(1.77516 -0.604921 0)
(1.77475 -0.612418 0)
(1.77605 -0.61198 0)
(1.78207 -0.606445 0)
(1.79106 -0.601753 0)
(1.8 -0.600718 0)
(1.81408 -0.601096 0)
(1.82925 -0.602911 0)
(2.15652 0.287408 0)
(2.16875 0.277345 0)
(2.18105 0.25709 0)
(2.19514 0.228611 0)
(2.20769 0.218631 0)
(2.22115 0.217622 0)
(2.23703 0.208971 0)
(2.25574 0.194026 0)
(2.27244 0.176815 0)
(2.2861 0.169677 0)
(2.29799 0.159961 0)
(2.30794 0.13551 0)
(2.31021 0.107316 0)
(2.30615 0.0879805 0)
(2.3072 0.0738291 0)
(2.32155 0.0692314 0)
(2.3381 0.0621333 0)
(2.35353 0.0533445 0)
(2.3689 0.0450121 0)
(2.38464 0.0344293 0)
(2.39728 0.0218635 0)
(2.40937 0.0110189 0)
(2.4189 -0.00213099 0)
(2.41605 -0.0213692 0)
(2.39805 -0.0457103 0)
(2.39621 -0.0621788 0)
(2.40794 -0.0682228 0)
(2.42136 -0.0716571 0)
(2.43547 -0.0755969 0)
(2.45149 -0.0836971 0)
(2.46385 -0.0922992 0)
(2.47899 -0.0991493 0)
(2.49216 -0.107079 0)
(2.50141 -0.116413 0)
(2.50187 -0.129741 0)
(2.48554 -0.148313 0)
(2.47111 -0.166876 0)
(2.47794 -0.17568 0)
(2.48936 -0.179767 0)
(2.50035 -0.184325 0)
(2.51554 -0.191134 0)
(2.52756 -0.200301 0)
(2.53452 -0.205619 0)
(2.54493 -0.211509 0)
(2.55436 -0.218364 0)
(2.55585 -0.22919 0)
(2.54028 -0.246229 0)
(2.53146 -0.260337 0)
(2.53856 -0.264257 0)
(2.54704 -0.269658 0)
(2.55592 -0.278416 0)
(2.56777 -0.28504 0)
(2.58269 -0.291389 0)
(2.59318 -0.298967 0)
(2.60001 -0.304761 0)
(2.60352 -0.311037 0)
(2.59798 -0.319208 0)
(2.58451 -0.331085 0)
(2.58102 -0.332911 0)
(2.58211 -0.331434 0)
(2.58193 -0.326597 0)
(2.57732 -0.305314 0)
(2.56833 -0.26426 0)
(2.55689 -0.213795 0)
(2.53562 -0.135283 0)
(2.54182 -0.10182 0)
(2.5133 -0.058477 0)
(2.47781 -0.0302177 0)
(2.45425 -0.0282219 0)
(2.4428 -0.0246932 0)
(2.43574 -0.00669574 0)
(2.43576 0.00973128 0)
(2.43669 0.0171048 0)
(2.4441 0.0203763 0)
(2.45162 0.0242005 0)
(2.45291 0.0275183 0)
(2.45281 0.0309715 0)
(2.4508 0.0360241 0)
(2.44366 0.0397628 0)
(2.42669 0.0356103 0)
(2.4097 0.0261996 0)
(2.40568 0.0233414 0)
(2.40406 0.0232993 0)
(2.40725 0.0276347 0)
(2.4194 0.0387923 0)
(2.43525 0.0505353 0)
(2.43893 0.0522449 0)
(2.43777 0.0510064 0)
(2.43451 0.0481641 0)
(2.42557 0.0441835 0)
(2.4135 0.0419859 0)
(2.4082 0.0434355 0)
(2.4075 0.0444296 0)
(2.40734 0.0444239 0)
(2.40981 0.04515 0)
(2.42097 0.049736 0)
(2.43473 0.0554717 0)
(2.4382 0.0567802 0)
(2.4405 0.0571755 0)
(2.43882 0.0554998 0)
(2.42834 0.0504638 0)
(2.4155 0.0464749 0)
(2.41307 0.0472467 0)
(2.41397 0.048133 0)
(2.41563 0.0493151 0)
(2.4221 0.0517152 0)
(2.43587 0.0554669 0)
(2.44546 0.0560276 0)
(2.44682 0.0562783 0)
(2.44395 0.0517386 0)
(2.42906 0.0285113 0)
(2.35851 -0.0647336 0)
(2.09062 -0.319174 0)
(1.92364 -0.467599 0)
(1.8393 -0.502992 0)
(1.76453 -0.568923 0)
(1.72543 -0.619677 0)
(1.7191 -0.622515 0)
(1.73888 -0.61328 0)
(1.76985 -0.599648 0)
(1.78768 -0.594511 0)
(1.79591 -0.6003 0)
(1.79685 -0.612654 0)
(1.79324 -0.621694 0)
(1.7965 -0.621457 0)
(1.80559 -0.615827 0)
(1.81924 -0.608039 0)
(1.83836 -0.600621 0)
(1.85046 -0.598394 0)
(2.1515 0.301431 0)
(2.16357 0.292001 0)
(2.17712 0.274848 0)
(2.19537 0.252687 0)
(2.21017 0.242855 0)
(2.22483 0.241087 0)
(2.24104 0.231919 0)
(2.25748 0.215436 0)
(2.27124 0.198679 0)
(2.28191 0.191612 0)
(2.29154 0.178782 0)
(2.29811 0.147596 0)
(2.29833 0.11891 0)
(2.30186 0.108375 0)
(2.31022 0.10085 0)
(2.3256 0.0963315 0)
(2.3428 0.0853399 0)
(2.35788 0.0757025 0)
(2.3711 0.0693258 0)
(2.38479 0.0578666 0)
(2.39595 0.0435136 0)
(2.40631 0.0300912 0)
(2.4112 0.0145023 0)
(2.40066 -0.00887499 0)
(2.39013 -0.0306682 0)
(2.40028 -0.0366374 0)
(2.41128 -0.0418562 0)
(2.42473 -0.0479935 0)
(2.43875 -0.0520269 0)
(2.45266 -0.0593129 0)
(2.46512 -0.0693557 0)
(2.47845 -0.0777009 0)
(2.49111 -0.0872061 0)
(2.49799 -0.0992227 0)
(2.49135 -0.116912 0)
(2.47328 -0.136448 0)
(2.47283 -0.146016 0)
(2.47957 -0.15085 0)
(2.49169 -0.155306 0)
(2.50325 -0.159436 0)
(2.51588 -0.165855 0)
(2.52831 -0.176207 0)
(2.53514 -0.184362 0)
(2.54391 -0.192455 0)
(2.55149 -0.202968 0)
(2.54933 -0.21775 0)
(2.53279 -0.233876 0)
(2.53106 -0.241573 0)
(2.53948 -0.243583 0)
(2.54813 -0.246234 0)
(2.55702 -0.252339 0)
(2.56687 -0.258529 0)
(2.58035 -0.266035 0)
(2.59098 -0.27465 0)
(2.59762 -0.28287 0)
(2.60046 -0.29318 0)
(2.5939 -0.309582 0)
(2.58063 -0.323804 0)
(2.58824 -0.327786 0)
(2.59061 -0.327724 0)
(2.59425 -0.325794 0)
(2.59952 -0.32097 0)
(2.60319 -0.313872 0)
(2.60313 -0.29705 0)
(2.59492 -0.263783 0)
(2.58081 -0.214744 0)
(2.55539 -0.162249 0)
(2.52123 -0.113071 0)
(2.50438 -0.0995711 0)
(2.46876 -0.0646365 0)
(2.4517 -0.0297532 0)
(2.44926 -0.0120869 0)
(2.45778 0.00634831 0)
(2.47055 0.0211235 0)
(2.4667 0.0233682 0)
(2.4614 0.0226988 0)
(2.45827 0.023411 0)
(2.45689 0.0282027 0)
(2.45177 0.0355454 0)
(2.43534 0.0357585 0)
(2.42133 0.031161 0)
(2.41604 0.0290321 0)
(2.41342 0.0286037 0)
(2.4197 0.0345713 0)
(2.4374 0.0474323 0)
(2.44901 0.0539233 0)
(2.44875 0.0530426 0)
(2.44657 0.0501089 0)
(2.43916 0.0443274 0)
(2.42573 0.0374866 0)
(2.41632 0.0366201 0)
(2.41588 0.0414649 0)
(2.41685 0.0460775 0)
(2.4188 0.0488306 0)
(2.42416 0.0510915 0)
(2.435 0.0532411 0)
(2.44161 0.0535621 0)
(2.44326 0.0535452 0)
(2.44498 0.0538334 0)
(2.44166 0.0526716 0)
(2.42997 0.0487441 0)
(2.42206 0.0472969 0)
(2.42255 0.0490799 0)
(2.42387 0.0515531 0)
(2.42706 0.0544138 0)
(2.43495 0.0576219 0)
(2.44741 0.0581323 0)
(2.45258 0.0585347 0)
(2.45019 0.0539854 0)
(2.43712 0.0325608 0)
(2.35398 -0.0727967 0)
(2.19282 -0.257505 0)
(1.94335 -0.455338 0)
(1.81083 -0.568742 0)
(1.76962 -0.558791 0)
(1.76352 -0.564448 0)
(1.74708 -0.58804 0)
(1.74688 -0.611245 0)
(1.7595 -0.616597 0)
(1.77551 -0.611824 0)
(1.79288 -0.60751 0)
(1.80347 -0.610224 0)
(1.81036 -0.615735 0)
(1.81253 -0.622601 0)
(1.81776 -0.626054 0)
(1.82585 -0.62517 0)
(1.84028 -0.618034 0)
(1.85765 -0.608782 0)
(1.8671 -0.607289 0)
(2.14835 0.314435 0)
(2.16096 0.305361 0)
(2.17863 0.29038 0)
(2.19791 0.273038 0)
(2.21278 0.266469 0)
(2.22723 0.265401 0)
(2.24371 0.254199 0)
(2.25791 0.233729 0)
(2.2684 0.215458 0)
(2.27613 0.205991 0)
(2.2822 0.189444 0)
(2.28707 0.154795 0)
(2.29187 0.13231 0)
(2.30225 0.129706 0)
(2.31381 0.125339 0)
(2.32972 0.119212 0)
(2.34624 0.104242 0)
(2.35989 0.0949523 0)
(2.37173 0.0902921 0)
(2.38402 0.0771058 0)
(2.39366 0.0592731 0)
(2.40108 0.0430955 0)
(2.40059 0.0257014 0)
(2.38863 0.00209586 0)
(2.39101 -0.0109607 0)
(2.40322 -0.014052 0)
(2.41633 -0.0218071 0)
(2.42844 -0.0256165 0)
(2.44057 -0.0302388 0)
(2.45342 -0.0364975 0)
(2.46521 -0.0471489 0)
(2.47676 -0.0583526 0)
(2.48691 -0.0712032 0)
(2.48972 -0.0887508 0)
(2.47776 -0.110784 0)
(2.46834 -0.124542 0)
(2.47588 -0.126902 0)
(2.48403 -0.128331 0)
(2.49463 -0.13231 0)
(2.50713 -0.136311 0)
(2.51791 -0.142034 0)
(2.52803 -0.152044 0)
(2.53443 -0.160636 0)
(2.54144 -0.171017 0)
(2.54467 -0.184488 0)
(2.53807 -0.202458 0)
(2.52795 -0.217496 0)
(2.53326 -0.223276 0)
(2.54127 -0.225496 0)
(2.55046 -0.228077 0)
(2.55961 -0.232842 0)
(2.56908 -0.23765 0)
(2.57937 -0.243414 0)
(2.58837 -0.250304 0)
(2.59363 -0.258777 0)
(2.59191 -0.26816 0)
(2.5836 -0.286162 0)
(2.57625 -0.29953 0)
(2.58423 -0.307992 0)
(2.59368 -0.312388 0)
(2.60307 -0.316679 0)
(2.6096 -0.318793 0)
(2.61534 -0.318558 0)
(2.62083 -0.313498 0)
(2.62115 -0.309532 0)
(2.6152 -0.298262 0)
(2.60023 -0.273853 0)
(2.57721 -0.237848 0)
(2.5507 -0.196547 0)
(2.50898 -0.128973 0)
(2.4875 -0.0862758 0)
(2.48625 -0.0654888 0)
(2.49034 -0.0232594 0)
(2.49734 0.0149891 0)
(2.48839 0.0189682 0)
(2.47564 0.0158985 0)
(2.46867 0.0139191 0)
(2.46199 0.0145397 0)
(2.45489 0.0230114 0)
(2.44196 0.0336541 0)
(2.43444 0.0354737 0)
(2.42822 0.0334553 0)
(2.42577 0.0316886 0)
(2.43503 0.0376587 0)
(2.4521 0.0488666 0)
(2.4571 0.053145 0)
(2.45633 0.053322 0)
(2.4529 0.050436 0)
(2.4438 0.0428654 0)
(2.42968 0.0352777 0)
(2.42315 0.0356991 0)
(2.42362 0.0399276 0)
(2.42531 0.0455585 0)
(2.42996 0.0516646 0)
(2.43866 0.0565322 0)
(2.44615 0.055379 0)
(2.44738 0.0526785 0)
(2.44773 0.0515339 0)
(2.44791 0.0510088 0)
(2.44347 0.0513954 0)
(2.43366 0.0512163 0)
(2.43114 0.0516638 0)
(2.43182 0.052392 0)
(2.43351 0.0546399 0)
(2.43782 0.0582192 0)
(2.44544 0.0600846 0)
(2.45469 0.0617949 0)
(2.45539 0.0560532 0)
(2.44279 0.0349508 0)
(2.36528 -0.0690176 0)
(2.14894 -0.306226 0)
(2.00875 -0.425416 0)
(1.90686 -0.487954 0)
(1.81456 -0.559202 0)
(1.76832 -0.589583 0)
(1.76179 -0.57548 0)
(1.76802 -0.580384 0)
(1.77726 -0.599528 0)
(1.78401 -0.612839 0)
(1.78837 -0.615007 0)
(1.79484 -0.616024 0)
(1.80509 -0.614265 0)
(1.81655 -0.613276 0)
(1.82629 -0.618257 0)
(1.83676 -0.625295 0)
(1.8496 -0.626468 0)
(1.86395 -0.620855 0)
(1.87519 -0.616425 0)
(1.88469 -0.616594 0)
(2.14611 0.330762 0)
(2.16078 0.322234 0)
(2.18057 0.311334 0)
(2.19934 0.298181 0)
(2.21385 0.292614 0)
(2.22805 0.29002 0)
(2.24311 0.275356 0)
(2.2527 0.251311 0)
(2.25821 0.232347 0)
(2.26238 0.219892 0)
(2.26838 0.197183 0)
(2.27844 0.166115 0)
(2.28917 0.153886 0)
(2.30191 0.154887 0)
(2.31513 0.151225 0)
(2.33158 0.143132 0)
(2.34683 0.125516 0)
(2.35867 0.116094 0)
(2.36883 0.11204 0)
(2.37912 0.0974209 0)
(2.38603 0.0763449 0)
(2.38824 0.0593648 0)
(2.38434 0.0397933 0)
(2.38264 0.0196324 0)
(2.39349 0.0143544 0)
(2.4061 0.00843827 0)
(2.41915 0.00114762 0)
(2.43082 -0.00279335 0)
(2.44057 -0.00545205 0)
(2.45213 -0.0128007 0)
(2.4632 -0.0245554 0)
(2.47155 -0.0371922 0)
(2.47688 -0.0527143 0)
(2.47502 -0.0749629 0)
(2.4649 -0.0975059 0)
(2.46911 -0.106747 0)
(2.47894 -0.107779 0)
(2.48841 -0.10983 0)
(2.49895 -0.111973 0)
(2.50923 -0.115455 0)
(2.52 -0.121547 0)
(2.52765 -0.130564 0)
(2.53237 -0.138224 0)
(2.53635 -0.149785 0)
(2.53486 -0.165757 0)
(2.52586 -0.186107 0)
(2.52722 -0.200122 0)
(2.53584 -0.202612 0)
(2.54415 -0.206044 0)
(2.55283 -0.209633 0)
(2.56149 -0.213498 0)
(2.57003 -0.217511 0)
(2.57857 -0.221928 0)
(2.58591 -0.227801 0)
(2.58926 -0.237319 0)
(2.58283 -0.25063 0)
(2.57487 -0.269338 0)
(2.57622 -0.278672 0)
(2.58133 -0.283078 0)
(2.59308 -0.288091 0)
(2.60379 -0.293233 0)
(2.61195 -0.297357 0)
(2.61992 -0.300206 0)
(2.62545 -0.30527 0)
(2.6282 -0.308568 0)
(2.62808 -0.310505 0)
(2.61605 -0.310156 0)
(2.60536 -0.301428 0)
(2.59526 -0.289502 0)
(2.57358 -0.249331 0)
(2.55527 -0.201476 0)
(2.53084 -0.128251 0)
(2.51418 -0.0472473 0)
(2.5239 -0.0274051 0)
(2.52954 -0.00540642 0)
(2.50557 -3.73274e-05 0)
(2.48754 -0.00149456 0)
(2.4758 -0.00151735 0)
(2.46318 0.00740951 0)
(2.45293 0.0257165 0)
(2.44943 0.031472 0)
(2.4448 0.0313115 0)
(2.44378 0.0315638 0)
(2.45231 0.0367681 0)
(2.4612 0.043547 0)
(2.46266 0.0464821 0)
(2.46223 0.048218 0)
(2.45906 0.0485466 0)
(2.44994 0.0435541 0)
(2.43704 0.0370435 0)
(2.43194 0.0365949 0)
(2.43173 0.0386843 0)
(2.43377 0.0441249 0)
(2.44001 0.0515644 0)
(2.45058 0.0577617 0)
(2.45467 0.058164 0)
(2.45398 0.0567927 0)
(2.45283 0.0550607 0)
(2.45081 0.0545863 0)
(2.44567 0.0549623 0)
(2.43924 0.0549565 0)
(2.43921 0.0552165 0)
(2.44042 0.0550282 0)
(2.44229 0.0551527 0)
(2.446 0.055763 0)
(2.4525 0.0595257 0)
(2.45801 0.0593391 0)
(2.44734 0.0375429 0)
(2.37863 -0.0641003 0)
(2.13753 -0.32546 0)
(2.00448 -0.450943 0)
(1.95903 -0.457011 0)
(1.8847 -0.49432 0)
(1.79421 -0.585633 0)
(1.75402 -0.629307 0)
(1.74549 -0.613159 0)
(1.77328 -0.593816 0)
(1.79715 -0.590033 0)
(1.80524 -0.596261 0)
(1.80623 -0.603533 0)
(1.80539 -0.611895 0)
(1.81066 -0.616921 0)
(1.81898 -0.620998 0)
(1.83211 -0.624998 0)
(1.85247 -0.626227 0)
(1.87296 -0.623142 0)
(1.88567 -0.62197 0)
(1.8929 -0.623919 0)
(1.90062 -0.626351 0)
(2.14576 0.348895 0)
(2.16363 0.341223 0)
(2.18431 0.332434 0)
(2.20222 0.321696 0)
(2.2153 0.316618 0)
(2.22699 0.312492 0)
(2.23828 0.292617 0)
(2.24361 0.262725 0)
(2.24621 0.24113 0)
(2.25003 0.223355 0)
(2.25999 0.201172 0)
(2.27572 0.183071 0)
(2.28843 0.176572 0)
(2.3023 0.17767 0)
(2.31645 0.174159 0)
(2.33333 0.163938 0)
(2.34675 0.146038 0)
(2.35617 0.137253 0)
(2.3641 0.131083 0)
(2.37304 0.110275 0)
(2.3775 0.0845025 0)
(2.37657 0.0679743 0)
(2.37493 0.0510709 0)
(2.38457 0.0413089 0)
(2.39709 0.0367059 0)
(2.40979 0.0274542 0)
(2.42213 0.0221421 0)
(2.43201 0.0193524 0)
(2.44092 0.0141536 0)
(2.45056 0.00657691 0)
(2.45975 -0.00463734 0)
(2.46573 -0.0203086 0)
(2.4648 -0.0400314 0)
(2.45845 -0.0642428 0)
(2.46174 -0.0807567 0)
(2.47196 -0.0848324 0)
(2.48194 -0.0878051 0)
(2.49196 -0.0901821 0)
(2.50206 -0.0935477 0)
(2.51178 -0.0967976 0)
(2.5196 -0.100813 0)
(2.5255 -0.109754 0)
(2.52784 -0.11985 0)
(2.52542 -0.131348 0)
(2.52082 -0.150607 0)
(2.51825 -0.168793 0)
(2.52716 -0.17732 0)
(2.5367 -0.180569 0)
(2.54666 -0.185922 0)
(2.55491 -0.190849 0)
(2.56303 -0.195263 0)
(2.5707 -0.199187 0)
(2.57817 -0.203457 0)
(2.58398 -0.209403 0)
(2.58359 -0.219762 0)
(2.57296 -0.236265 0)
(2.56876 -0.247891 0)
(2.57436 -0.253557 0)
(2.58025 -0.258316 0)
(2.59207 -0.265842 0)
(2.6037 -0.27409 0)
(2.61186 -0.281245 0)
(2.62024 -0.286634 0)
(2.62756 -0.293788 0)
(2.63191 -0.300788 0)
(2.63119 -0.306202 0)
(2.61943 -0.310963 0)
(2.61157 -0.31061 0)
(2.61114 -0.309109 0)
(2.60977 -0.303274 0)
(2.60528 -0.282357 0)
(2.59608 -0.249076 0)
(2.57634 -0.186443 0)
(2.57154 -0.137283 0)
(2.5551 -0.0626137 0)
(2.53183 -0.0152675 0)
(2.51564 -0.0108058 0)
(2.49031 -0.0111896 0)
(2.47375 -0.00762728 0)
(2.46408 0.00783117 0)
(2.4614 0.0232661 0)
(2.4621 0.0313544 0)
(2.46836 0.0365919 0)
(2.4717 0.0366318 0)
(2.47029 0.0369827 0)
(2.46988 0.0385228 0)
(2.46934 0.0416187 0)
(2.46621 0.0457507 0)
(2.45667 0.0451492 0)
(2.4455 0.0397696 0)
(2.44222 0.0379589 0)
(2.44031 0.0379891 0)
(2.44164 0.0412463 0)
(2.44917 0.0492981 0)
(2.46024 0.0580749 0)
(2.46294 0.0597585 0)
(2.46219 0.0590363 0)
(2.46009 0.0571385 0)
(2.45575 0.0547529 0)
(2.44853 0.0535505 0)
(2.44426 0.0542104 0)
(2.44555 0.0541537 0)
(2.44741 0.0542631 0)
(2.45016 0.0541643 0)
(2.45328 0.0553211 0)
(2.45761 0.0593867 0)
(2.45313 0.0439664 0)
(2.35894 -0.0772563 0)
(2.19674 -0.276818 0)
(2.01397 -0.458134 0)
(1.94051 -0.507016 0)
(1.90952 -0.504529 0)
(1.85299 -0.529497 0)
(1.78666 -0.598702 0)
(1.76747 -0.634917 0)
(1.77664 -0.623567 0)
(1.80316 -0.603628 0)
(1.81777 -0.590249 0)
(1.82616 -0.590927 0)
(1.82745 -0.597801 0)
(1.82033 -0.610147 0)
(1.82142 -0.619078 0)
(1.82874 -0.623091 0)
(1.84404 -0.626191 0)
(1.87041 -0.622915 0)
(1.89396 -0.618825 0)
(1.90389 -0.620013 0)
(1.9117 -0.624168 0)
(1.91685 -0.629189 0)
(2.14762 0.369677 0)
(2.16824 0.362814 0)
(2.18838 0.354496 0)
(2.20477 0.34597 0)
(2.21563 0.340001 0)
(2.22249 0.330957 0)
(2.22636 0.303162 0)
(2.22646 0.270063 0)
(2.23011 0.25035 0)
(2.23946 0.230522 0)
(2.2582 0.215596 0)
(2.27486 0.205111 0)
(2.28808 0.19954 0)
(2.3023 0.200071 0)
(2.31776 0.196684 0)
(2.33413 0.184992 0)
(2.3452 0.168315 0)
(2.35076 0.158027 0)
(2.35397 0.148896 0)
(2.35978 0.122806 0)
(2.36253 0.0957026 0)
(2.36428 0.0822809 0)
(2.37273 0.0705077 0)
(2.38658 0.0670926 0)
(2.40035 0.0592966 0)
(2.41224 0.0494534 0)
(2.42328 0.0459578 0)
(2.43159 0.0436588 0)
(2.43927 0.0351485 0)
(2.44682 0.0241621 0)
(2.45342 0.0121416 0)
(2.45472 -0.00550796 0)
(2.4486 -0.0306226 0)
(2.44999 -0.0490257 0)
(2.46026 -0.0528264 0)
(2.47155 -0.0573754 0)
(2.48386 -0.0644816 0)
(2.4939 -0.0690043 0)
(2.50386 -0.0738546 0)
(2.51218 -0.0790338 0)
(2.51919 -0.0840004 0)
(2.52325 -0.0918637 0)
(2.52166 -0.104962 0)
(2.51374 -0.123643 0)
(2.51019 -0.137164 0)
(2.51696 -0.144388 0)
(2.52464 -0.150412 0)
(2.5359 -0.156199 0)
(2.5477 -0.163545 0)
(2.55614 -0.170289 0)
(2.56389 -0.175603 0)
(2.57085 -0.180392 0)
(2.57727 -0.18568 0)
(2.58066 -0.193307 0)
(2.57509 -0.206509 0)
(2.5651 -0.221803 0)
(2.56799 -0.22789 0)
(2.57295 -0.231098 0)
(2.57996 -0.235281 0)
(2.59091 -0.24233 0)
(2.60157 -0.248717 0)
(2.6095 -0.256032 0)
(2.61681 -0.260625 0)
(2.6242 -0.267481 0)
(2.62883 -0.278738 0)
(2.6274 -0.292939 0)
(2.61627 -0.305112 0)
(2.61711 -0.309754 0)
(2.61848 -0.310474 0)
(2.62101 -0.309401 0)
(2.62513 -0.303031 0)
(2.62724 -0.296226 0)
(2.62522 -0.28033 0)
(2.61715 -0.24801 0)
(2.60066 -0.19821 0)
(2.58099 -0.143239 0)
(2.56962 -0.108773 0)
(2.51708 -0.0468313 0)
(2.4896 -0.0223002 0)
(2.48098 -0.0123994 0)
(2.47663 0.0133444 0)
(2.4802 0.0304004 0)
(2.4877 0.038311 0)
(2.48472 0.0367096 0)
(2.47941 0.0350836 0)
(2.47684 0.0336325 0)
(2.47545 0.0357442 0)
(2.47311 0.0417778 0)
(2.46424 0.04397 0)
(2.45627 0.0417511 0)
(2.45119 0.0391667 0)
(2.44815 0.0368526 0)
(2.45051 0.0399651 0)
(2.4604 0.0493243 0)
(2.4697 0.0580283 0)
(2.47084 0.0599456 0)
(2.47014 0.0597938 0)
(2.46732 0.0575962 0)
(2.46066 0.0531193 0)
(2.45138 0.049466 0)
(2.44876 0.0496968 0)
(2.45129 0.0517315 0)
(2.45401 0.0523364 0)
(2.4574 0.0529888 0)
(2.45952 0.0564639 0)
(2.45124 0.0394516 0)
(2.38514 -0.0640561 0)
(2.14593 -0.31527 0)
(2.03486 -0.42536 0)
(1.98447 -0.481502 0)
(1.94295 -0.512545 0)
(1.90166 -0.531253 0)
(1.83327 -0.554821 0)
(1.78341 -0.602342 0)
(1.78195 -0.625096 0)
(1.8048 -0.621559 0)
(1.8248 -0.609131 0)
(1.83604 -0.602227 0)
(1.84425 -0.603176 0)
(1.844 -0.608294 0)
(1.83741 -0.614148 0)
(1.83874 -0.618384 0)
(1.84538 -0.620739 0)
(1.86294 -0.621429 0)
(1.89076 -0.61887 0)
(1.90853 -0.620175 0)
(1.91697 -0.623845 0)
(1.92474 -0.629159 0)
(1.92993 -0.633245 0)
(2.15233 0.390924 0)
(2.17359 0.383805 0)
(2.19247 0.375422 0)
(2.20683 0.367899 0)
(2.21429 0.35836 0)
(2.2136 0.338859 0)
(2.20959 0.302874 0)
(2.21166 0.275513 0)
(2.22066 0.258261 0)
(2.23845 0.24431 0)
(2.25867 0.236085 0)
(2.27462 0.228376 0)
(2.28894 0.223175 0)
(2.30322 0.221853 0)
(2.32002 0.217421 0)
(2.33501 0.205808 0)
(2.34167 0.19078 0)
(2.34071 0.176843 0)
(2.33816 0.158078 0)
(2.34416 0.127444 0)
(2.35295 0.105282 0)
(2.3603 0.0983309 0)
(2.37418 0.0937431 0)
(2.38903 0.0897323 0)
(2.40304 0.0807884 0)
(2.41495 0.0710897 0)
(2.42453 0.0666446 0)
(2.43189 0.0637581 0)
(2.43778 0.0533514 0)
(2.44241 0.0374278 0)
(2.44517 0.0195703 0)
(2.44208 -0.00331625 0)
(2.44036 -0.021184 0)
(2.44957 -0.0257251 0)
(2.4601 -0.0294631 0)
(2.47302 -0.0345021 0)
(2.48489 -0.0412808 0)
(2.49442 -0.0456287 0)
(2.50415 -0.0511728 0)
(2.5119 -0.0587593 0)
(2.51765 -0.0658085 0)
(2.51961 -0.0775192 0)
(2.51279 -0.0975372 0)
(2.50332 -0.117244 0)
(2.50883 -0.122837 0)
(2.51704 -0.123893 0)
(2.5253 -0.127842 0)
(2.53656 -0.134752 0)
(2.54868 -0.142387 0)
(2.55705 -0.149556 0)
(2.56421 -0.155303 0)
(2.57021 -0.161295 0)
(2.57495 -0.169075 0)
(2.57454 -0.181431 0)
(2.56507 -0.197149 0)
(2.56299 -0.206295 0)
(2.56839 -0.208414 0)
(2.5741 -0.212834 0)
(2.58147 -0.216848 0)
(2.59125 -0.223076 0)
(2.60129 -0.229243 0)
(2.60911 -0.236847 0)
(2.61511 -0.241655 0)
(2.6212 -0.24725 0)
(2.62445 -0.259919 0)
(2.62099 -0.27656 0)
(2.61218 -0.287301 0)
(2.61504 -0.291751 0)
(2.6206 -0.292531 0)
(2.62693 -0.29356 0)
(2.63222 -0.294745 0)
(2.63633 -0.294321 0)
(2.64075 -0.295082 0)
(2.6419 -0.292158 0)
(2.63749 -0.280519 0)
(2.62502 -0.254238 0)
(2.60766 -0.220505 0)
(2.57352 -0.16741 0)
(2.54797 -0.123086 0)
(2.529 -0.0781644 0)
(2.50162 -0.00887575 0)
(2.49519 0.0187038 0)
(2.5034 0.0356349 0)
(2.50298 0.0392307 0)
(2.49214 0.0368594 0)
(2.48575 0.0325921 0)
(2.48095 0.0320064 0)
(2.47769 0.0371959 0)
(2.47033 0.0446279 0)
(2.46601 0.0458728 0)
(2.46012 0.0430652 0)
(2.45759 0.0401161 0)
(2.4626 0.0436212 0)
(2.4734 0.0533402 0)
(2.4784 0.059229 0)
(2.47855 0.0606553 0)
(2.47725 0.0606885 0)
(2.47313 0.0568273 0)
(2.46434 0.0506866 0)
(2.45541 0.0462042 0)
(2.45473 0.0474082 0)
(2.45748 0.0492928 0)
(2.46155 0.0517782 0)
(2.46328 0.0556152 0)
(2.45067 0.0355072 0)
(2.38409 -0.0690912 0)
(2.15169 -0.342948 0)
(2.03541 -0.417028 0)
(1.99648 -0.452763 0)
(1.96681 -0.49084 0)
(1.92149 -0.538424 0)
(1.85042 -0.577549 0)
(1.79137 -0.592942 0)
(1.78213 -0.602094 0)
(1.79995 -0.61297 0)
(1.82759 -0.61221 0)
(1.84289 -0.60807 0)
(1.85159 -0.610639 0)
(1.85727 -0.617621 0)
(1.855 -0.62624 0)
(1.85645 -0.62854 0)
(1.86341 -0.627402 0)
(1.87231 -0.623978 0)
(1.88989 -0.61941 0)
(1.91 -0.617266 0)
(1.91983 -0.620192 0)
(1.92757 -0.625259 0)
(1.93484 -0.629437 0)
(1.94199 -0.631169 0)
(2.15785 0.410734 0)
(2.17853 0.402367 0)
(2.19554 0.393867 0)
(2.20653 0.38496 0)
(2.20813 0.3683 0)
(2.19786 0.33583 0)
(2.19243 0.302307 0)
(2.20358 0.285731 0)
(2.21967 0.274652 0)
(2.23973 0.267087 0)
(2.26014 0.258599 0)
(2.27548 0.252508 0)
(2.29114 0.248034 0)
(2.30595 0.244643 0)
(2.32253 0.238457 0)
(2.33412 0.225739 0)
(2.33345 0.208226 0)
(2.32621 0.18446 0)
(2.3231 0.157251 0)
(2.33352 0.137193 0)
(2.34764 0.127366 0)
(2.35804 0.122432 0)
(2.37404 0.11865 0)
(2.39063 0.111848 0)
(2.40424 0.102183 0)
(2.41581 0.0937708 0)
(2.42389 0.0880862 0)
(2.42916 0.0836986 0)
(2.43272 0.0702977 0)
(2.43219 0.0510114 0)
(2.42874 0.0269412 0)
(2.42938 0.00604768 0)
(2.43957 0.000632812 0)
(2.4503 -0.00219924 0)
(2.46161 -0.00723065 0)
(2.47452 -0.0126915 0)
(2.48567 -0.0192807 0)
(2.49468 -0.0243402 0)
(2.50365 -0.0302595 0)
(2.51111 -0.0402442 0)
(2.5138 -0.0519256 0)
(2.51103 -0.0690238 0)
(2.50174 -0.0891928 0)
(2.50034 -0.101137 0)
(2.50913 -0.102615 0)
(2.51814 -0.103866 0)
(2.52801 -0.107709 0)
(2.53805 -0.113498 0)
(2.54978 -0.121382 0)
(2.55769 -0.129084 0)
(2.56345 -0.134719 0)
(2.56815 -0.142684 0)
(2.56935 -0.153442 0)
(2.56469 -0.169169 0)
(2.55737 -0.184198 0)