/*--------------------------------*- C++ -*----------------------------------*\
  =========                 |
  \\      /  F ield         | OpenFOAM: The Open Source CFD Toolbox
   \\    /   O peration     | Website:  https://openfoam.org
    \\  /    A nd           | Version:  7
     \\/     M anipulation  |
\*---------------------------------------------------------------------------*/
FoamFile
{
    version     2.0;
    format      ascii;
    class       volScalarField;
    location    "1.4";
    object      T;
}
// * * * * * * * * * * * * * * * * * * * * * * * * * * * * * * * * * * * * * //

dimensions      [0 0 0 1 0 0 0];

internalField   nonuniform List<scalar> 
16192
(
1
1
1
1
1
1
1
1
1
1
1
1
1
1
1
1
1
1
1
1
1
1
1
1
1
1
1
1
1
1
1
1
1
1
1
1
1
1
1
1
1
1
1
1
1
1
1
1
1
1
1
1
1
1
1
1
1
1
1
1
1
1
1
1
1
1
1
1
1
1
1
1
1
1
1
1
1
1
1
1
1
1
1
1
1
1
1
1
1
1
1
1
1
1
1
1
1
1
1
1
1
1
1
1
1
1
1
1
1
1
1
1
1
1
1
1
1
1
1
1
1
1
1
1
1
1
1
1
1
1
1
1
1
1
1
1
1
1
1
1
1
1
1
1
1
1
1
1
1
1
1
1
1
1
1
1
1
1
1
1
1
1
1
1
1
1
1
1
1
1
1
1
1
1
1
1
1
1
1
1
1
1
1
1
1
1
1
1
1
1
1
1
1
1
1
1
1
1
1
1
1
1
1
1
1
1
1
1
1
1
1
1
1
1
1
1
1
1
1
1
1
1
1
1
1
1
1
1
1
1
1
1
1
1
1
1
1
1
1
1
1
1
1
1
1
1
1
1
1
1
1
1
1
1
1
1
1
1
1
1
1
1
1
1
1
1
1
1
1
1
1
1
1
1
1
1
1
1
1
1
1
1
1
1
1
1
1
1
1
1
1
1
1
1
1
1
1
1
1
1
1
1
1
1
1
1
1
1
1
1
1
1
1
1
1
1
1
1
1
1
1
1
1
1
1
1
1
1
1
1
1
1
1
1
1
1
1
1
1
1
1
1
1
1
1
1
1
1
1
1
1
1
1
1
1
1
1
1
1
1
1
1
1
1
1
1
1
1
1
1
1
1
1
1
1
1
1
1
1
1
1
1
1
1
1
1
1
1
1
1
1
1
1
1
1
1
1
1
1
1
1
1
1
1
1
1
1
1
1
1
1
1
1
1
1
1
1
1
1
1
1
1
1
1
1
1
1
1
1
1
1
1
1
1
1
1
1
1
1
1
1
1
1
1
1
1
1
1
1
1
1
1
1
1
1
1
1
1
1
1
1
1
1
1
1
1
1
1
1
1
1
1
1
1
1
1
1
1
1
1
1
1
1
1
1
1
1
1
1
1
1
1
1
1
1
1
1
1
1
1
1
1
1
1
1
1
1
1
1
1
1
1
1
1
1
1
1
1
1
1
1
1
1
1
1
1
1
1
1
1
1
1
1
1
1
1
1
1
1
1
1
1
1
1
1
1
1
1
1
1
1
1
1
1
1
1
1
1
1
1
1
1
1
1
1
1
1
1
1
1
1
1
1
1
1
1
1
1
1
1
1
1
1
1
1
1
1
1
1
1
1
1
1
1
1
1
1
1
1
1
1
1
1
1
1
1
1
1
1
1
1
1
1
1
1
1
1
1
1
1
1
1
1
1
1
1
1
1
1
1
1
1
1
1
1
1
1
1
1
1
1
1
1
1
1
1
1
1
1
1
1
1
1
1
1
1
1
1
1
1
1
1
1
1
1
1
1
1
1
1
1
1
1
1
1
1
1
1
1
1
1
1
1
1
1
1
1
1
1
1
1
1
1
1
1
1
1
1
1
1
1
1
1
1
1
1
1
1
1
1
1
1
1
1
1
1
1
1
1
1
1
1
1
1
1
1
1
1
1
1
1
1
1
1
1
1
1
1
1
1
1
1
1
1
1
1
1
1
1
1
1
1
1
1
1
1
1
1
1
1
1
1
1
1
1
1
1
1
1
1
1
1
1
1
1
1
1
1
1
1
1
1
1
1
1
1
1
1
1
1
1
1
1
1
1
1
1
1
1
1
1
1
1
1
1
1
1
1
1
1
1
1
1
1
1
1
1
1
1
1
1
1
1
1
1
1
1
1
1
1
1
1
1
1
1
1
1
1
1
1
1
1
1
1
1
1
1
1
1
1
1
1
1
1
1
1
1
1
1
1
1
1
1
1
1
1
1
1
1
1
1
1
1
1
1
1
1
1
1
1
1
1
1
1
1
1
1
1
1
1
1
1
1
1
1
1
1
1
1
1
1
1
1
1
1
1
1
1
1
1
1
1
1
1
1
1
1
1
1
1
1
1
1
1
1
1
1
1
1
1
1
1
1
1
1
1
1
1
1
1
1
1
1
1
1
1
1
1
1
1
1
1
1
1
1
1
1
1
1
1
1
1
1
1
1
1
1
1
1
1
1
1
1
1
1
1
1
1
1
1
1
1
1
1
1
1
1
1
1
1
1
1
1
1
1
1
1
1
1
1
1
1
1
1
1
1
1
1
1
1
1
1
1
1
1
1
1
1
1
1
1
1
1
1
1
1
1
1
1
1
1
1
1
1
1
1
1
1
1
1
1
1
1
1
1
1
1
1
1
1
1
1
1
1
1
1
1
1
1
1
1
1
1
1
1
1
1
1
1
1
1
1
1
1
1
1
1
1
1
1
1
1
1
1
1
1
1
1
1
1
1
1
1
1
1
1
1
1
1
1
1
1
1
1
1
1
1
1
1
1
1
1
1
1
1
1
1
1
1
1
1
1
1
1
1
1
1
1
1
1
1
1
1
1
1
1
1
1
1
1
1
1
1
1
1
1
1
1
1
1
1
1
1
1
1
1
1
1
1
1
1
1
1
1
1
1
1
1
1
1
1
1
1
1
1
1
1
1
1
1
1
1
1
1
1
1
1
1
1
1
1
1
1
1
1
1
1
1
1
1
1
1
1
1
1
1
1
1
1
1
1
1
1
1
1
1
1
1
1
1
1
1
1
1
1
1
1
1
1
1
1
1
1
1
1
1
1
1
1
1
1
1
1
1
1
1
1
1
1
1
1
1
1
1
1
1
1
1
1
1
1
1
1
1
1
1
1
1
1
1
1
1
1
1
1
1
1
1
1
1
1
1
1
1
1
1
1
1
1
1
1
1
1
1
1
1
1
1.00001
1.00098
1.03719
1.28978
1.50779
1.61245
1.6706
1.68677
1.68707
1.68676
1.68659
1.68469
1.6829
1.67998
1.67714
1.67763
1.67782
1.67598
1.67279
1.67192
1.67167
1.66743
1.66236
1.66093
1.65948
1.65706
1.65721
1.65736
1.65561
1.65269
1.64912
1.64726
1.64778
1.64868
1.64866
1.64788
1.6456
1.64232
1.63912
1.63719
1.63641
1.63552
1.6331
1.62957
1.62776
1.62858
1.63219
1.63982
1.64859
1.65248
1.65402
1.65323
1.65061
1.64716
1.64305
1.6392
1.63513
1.63114
1.62758
1.62377
1.62107
1.62046
1.62004
1.62106
1.62409
1.62548
1.62366
1.62055
1.61628
1.60767
1.59916
1.59621
1.59447
1.59249
1.59058
1.5896
1.59046
1.59418
1.59663
1.59537
1.59206
1.58755
1.58136
1.573
1.56511
1.55925
1.5547
1.55315
1.55314
1.55514
1.55815
1.55871
1.558
1.55426
1.55042
1.54761
1.54508
1.54314
1.54142
1.53797
1.53279
1.53132
1.53179
1.53247
1.53203
1.52984
1.52579
1.52095
1.51711
1.51586
1.51622
1.51756
1.51704
1.51236
1.50866
1.50893
1.50975
1.51035
1.5106
1.51043
1.50978
1.5081
1.50512
1.49867
1.48865
1.48321
1.48271
1.48281
1.48531
1.48773
1.48996
1.49253
1.49472
1.49557
1.49491
1.4906
1.48111
1.47287
1.47009
1.46935
1.46949
1.4726
1.47877
1.48116
1.47977
1.47646
1.47012
1.45937
1.44998
1.44735
1.44726
1.44807
1.45047
1.45441
1.45695
1.45801
1.45877
1.45885
1.45754
1.45466
1.44864
1.43761
1.42435
1.4174
1.41505
1.41482
1.41768
1.42696
1.43472
1.43578
1.43535
1.43381
1.4292
1.41766
1.40497
1
1
1
1
1
1
1
1
1
1
1
1
1
1
1
1
1
1
1
1
1
1
1
1
1
1
1
1
1
1
1
1
1
1
1
1
1
1
1
1
1
1
1
1
1
1
1
1
1
1
1
1
1
1
1
1
1.00001
1.00103
1.03552
1.1833
1.38534
1.61461
1.68485
1.68902
1.68901
1.68527
1.67801
1.67778
1.6785
1.67979
1.67991
1.67737
1.67241
1.67091
1.6716
1.66873
1.66384
1.6626
1.66245
1.66035
1.66
1.66044
1.65869
1.65523
1.65167
1.64897
1.64922
1.65061
1.65059
1.64971
1.6475
1.64436
1.64184
1.64079
1.64057
1.63963
1.63618
1.63154
1.62847
1.62805
1.62989
1.63593
1.64435
1.64884
1.6512
1.65113
1.64979
1.6484
1.64635
1.64379
1.64058
1.63678
1.63295
1.62894
1.62571
1.6249
1.62452
1.62563
1.62814
1.62853
1.62609
1.62314
1.61925
1.61135
1.60244
1.59928
1.59778
1.59613
1.59453
1.59396
1.59531
1.59959
1.60151
1.5999
1.59662
1.59237
1.58607
1.57774
1.57085
1.56587
1.56229
1.56095
1.56124
1.56308
1.56443
1.56466
1.56267
1.55809
1.55364
1.55046
1.54727
1.54424
1.54204
1.53902
1.5346
1.5328
1.53338
1.5342
1.53407
1.53221
1.52832
1.52379
1.51995
1.51781
1.5178
1.51864
1.51794
1.51316
1.50893
1.50905
1.51044
1.512
1.51272
1.51235
1.51162
1.51003
1.50714
1.50074
1.49027
1.48354
1.48246
1.48244
1.48481
1.48935
1.49183
1.49459
1.49711
1.49813
1.49707
1.49214
1.48226
1.47516
1.47292
1.47237
1.4726
1.47602
1.4825
1.48528
1.484
1.48036
1.47334
1.4614
1.45125
1.44852
1.44843
1.44925
1.45176
1.45646
1.46029
1.46203
1.46303
1.46348
1.46264
1.45978
1.45359
1.44219
1.42877
1.42171
1.41903
1.41865
1.4212
1.43021
1.4377
1.43847
1.43781
1.43614
1.43172
1.42076
1.4083
1.40377
1
1
1
1
1
1
1
1
1
1
1
1
1
1
1
1
1
1
1
1
1
1
1
1
1
1
1
1
1
1
1
1
1
1
1
1
1
1
1
1
1
1
1
1
1
1
1
1
1
1
1
1
1
1
1
1
1
1.00001
1.00063
1.01125
1.08897
1.38113
1.62677
1.67602
1.68413
1.68065
1.6763
1.6766
1.68044
1.68267
1.67981
1.67484
1.67163
1.66959
1.66815
1.66624
1.66533
1.66458
1.66269
1.66216
1.66276
1.6617
1.65809
1.65434
1.65163
1.65078
1.65207
1.65255
1.65158
1.64928
1.64634
1.64463
1.64435
1.6445
1.6436
1.63996
1.63476
1.63076
1.62955
1.63025
1.63422
1.64074
1.64481
1.64684
1.64689
1.64615
1.64758
1.64737
1.64646
1.645
1.64244
1.63915
1.63514
1.63134
1.63031
1.62995
1.6309
1.63259
1.63164
1.62831
1.62512
1.62131
1.61457
1.60568
1.60162
1.6001
1.59878
1.59758
1.59743
1.59951
1.60407
1.60548
1.60368
1.6006
1.59644
1.58959
1.58137
1.57597
1.57211
1.56948
1.56843
1.5695
1.57168
1.57176
1.57104
1.56797
1.56308
1.55821
1.55484
1.55152
1.54764
1.54433
1.54119
1.53731
1.53513
1.53572
1.53661
1.53655
1.53484
1.53129
1.52734
1.52397
1.52164
1.52062
1.52037
1.51869
1.51362
1.50909
1.509
1.51061
1.51305
1.51491
1.51457
1.51364
1.51211
1.50934
1.50301
1.49229
1.48433
1.4826
1.48243
1.48422
1.49031
1.49355
1.49606
1.4987
1.4997
1.49833
1.49268
1.48272
1.47705
1.47545
1.47514
1.47561
1.47956
1.48627
1.48906
1.48781
1.484
1.47659
1.46372
1.45258
1.44965
1.44953
1.45032
1.45298
1.45839
1.46352
1.46614
1.46737
1.46799
1.46743
1.46471
1.45832
1.44632
1.4329
1.42602
1.42312
1.42257
1.42488
1.43351
1.44072
1.4413
1.44034
1.43847
1.43411
1.42364
1.41139
1.40695
1.40649
1
1
1
1
1
1
1
1
1
1
1
1
1
1
1
1
1
1
1
1
1
1
1
1
1
1
1
1
1
1
1
1
1
1
1
1
1
1
1
1
1
1
1
1
1
1
1
1
1
1
1
1
1
1
1
1
1
1
1
1.0001
1.00389
1.07801
1.38288
1.58484
1.6506
1.67176
1.67761
1.67719
1.67973
1.67973
1.67867
1.67547
1.66889
1.66704
1.66728
1.66759
1.66651
1.66513
1.66467
1.66519
1.66491
1.66148
1.65733
1.65489
1.65355
1.65388
1.65496
1.65393
1.65114
1.64821
1.64716
1.64738
1.64774
1.64688
1.64354
1.6385
1.63419
1.63247
1.6326
1.63512
1.63906
1.64151
1.64298
1.64253
1.6407
1.64265
1.6462
1.64696
1.6469
1.64629
1.64456
1.64168
1.63818
1.63683
1.63641
1.63697
1.63756
1.63509
1.6309
1.62691
1.62295
1.6174
1.60952
1.604
1.60189
1.60076
1.59991
1.60023
1.60328
1.60782
1.60852
1.60652
1.60381
1.59959
1.59177
1.58386
1.57993
1.57718
1.57529
1.57454
1.57615
1.57853
1.57833
1.57702
1.57383
1.56896
1.56412
1.56066
1.55714
1.55285
1.5487
1.54529
1.54159
1.53873
1.53921
1.53998
1.53984
1.53815
1.53503
1.5317
1.52857
1.52683
1.52513
1.52326
1.52011
1.51438
1.50976
1.50941
1.511
1.51384
1.517
1.51709
1.51596
1.51439
1.51164
1.50533
1.49456
1.48582
1.48338
1.483
1.48451
1.49079
1.49537
1.4973
1.49962
1.50028
1.49863
1.49217
1.48278
1.47851
1.47746
1.4774
1.47836
1.48308
1.48979
1.49228
1.49108
1.48733
1.47971
1.46633
1.45419
1.45077
1.45059
1.45126
1.45419
1.46035
1.46652
1.47012
1.47175
1.47237
1.47198
1.46936
1.46259
1.44983
1.4367
1.43029
1.42733
1.42664
1.42883
1.43709
1.44375
1.44412
1.44284
1.44075
1.43633
1.42617
1.41431
1.41003
1.40959
1.41096
1
1
1
1
1
1
1
1
1
1
1
1
1
1
1
1
1
1
1
1
1
1
1
1
1
1
1
1
1
1
1
1
1
1
1
1
1
1
1
1
1
1
1
1
1
1
1
1
1
1
1
1
1
1
1
1
1
1
1
1
1.00004
1.00299
1.07694
1.31489
1.49098
1.6285
1.67956
1.67829
1.68017
1.68165
1.67903
1.67014
1.66643
1.66659
1.66745
1.66684
1.66715
1.66793
1.66813
1.66805
1.66461
1.66057
1.65887
1.65783
1.65692
1.65755
1.65718
1.65392
1.65049
1.64971
1.65007
1.65028
1.64918
1.64635
1.64213
1.63819
1.63634
1.63615
1.63773
1.63964
1.63983
1.64031
1.6393
1.63619
1.63694
1.64048
1.64453
1.64675
1.6475
1.64747
1.64657
1.64481
1.64387
1.64343
1.64348
1.64276
1.6394
1.63423
1.62932
1.62517
1.62049
1.61396
1.60746
1.60409
1.60287
1.60224
1.60303
1.60689
1.61086
1.61089
1.60872
1.60614
1.60172
1.59312
1.58552
1.58282
1.58091
1.57935
1.57878
1.58073
1.58345
1.58316
1.58167
1.57848
1.57392
1.57009
1.56715
1.56396
1.55946
1.55484
1.55099
1.54751
1.54423
1.54395
1.5444
1.54402
1.54234
1.53985
1.53708
1.5344
1.53272
1.5304
1.52723
1.5229
1.51626
1.51131
1.51069
1.5122
1.51517
1.51913
1.51995
1.51875
1.51703
1.51411
1.50769
1.49697
1.48792
1.48485
1.48426
1.4858
1.492
1.49699
1.49856
1.50024
1.50037
1.49802
1.49083
1.4826
1.47957
1.47897
1.47911
1.48074
1.48627
1.49279
1.49466
1.49356
1.49019
1.48265
1.46906
1.45617
1.45202
1.45167
1.45208
1.45525
1.46244
1.46943
1.47362
1.47578
1.47646
1.4763
1.47364
1.46624
1.45264
1.44029
1.43454
1.43165
1.43091
1.43307
1.44102
1.44694
1.44694
1.4452
1.44289
1.43833
1.42829
1.41684
1.41283
1.41248
1.4141
1.41875
1
1
1
1
1
1
1
1
1
1
1
1
1
1
1
1
1
1
1
1
1
1
1
1
1
1
1
1
1
1
1
1
1
1
1
1
1
1
1
1
1
1
1
1
1
1
1
1
1
1
1
1
1
1
1
1
1
1
1
1
1
1.00003
1.00274
1.04277
1.17836
1.45344
1.64484
1.67542
1.68507
1.68065
1.67234
1.66656
1.66632
1.6687
1.6693
1.66917
1.67139
1.67098
1.66874
1.66673
1.6641
1.6633
1.66283
1.66124
1.66083
1.66072
1.6578
1.65365
1.65212
1.65223
1.65201
1.65074
1.64835
1.6451
1.64197
1.64041
1.64015
1.64109
1.64143
1.64045
1.63948
1.6374
1.63365
1.63274
1.63473
1.63817
1.64272
1.64608
1.64774
1.64876
1.6493
1.64977
1.65017
1.64969
1.64797
1.64402
1.63836
1.63317
1.62899
1.62466
1.61909
1.61237
1.60742
1.60592
1.60537
1.60659
1.61074
1.61358
1.61274
1.61051
1.60773
1.60306
1.59432
1.58684
1.58474
1.58333
1.58191
1.5814
1.58359
1.58682
1.58668
1.58535
1.58202
1.57725
1.57435
1.57222
1.56998
1.56669
1.56217
1.55856
1.55528
1.55187
1.54998
1.54959
1.54871
1.5471
1.5454
1.54333
1.54105
1.53915
1.53596
1.53195
1.52692
1.51975
1.51432
1.51327
1.51464
1.51755
1.52176
1.52321
1.52195
1.52009
1.51692
1.51035
1.49985
1.49091
1.48734
1.48658
1.48817
1.49414
1.49881
1.49997
1.50083
1.50026
1.49693
1.48939
1.48258
1.4803
1.48002
1.4804
1.48288
1.48904
1.49483
1.49602
1.49519
1.49238
1.48511
1.47168
1.45858
1.45364
1.45294
1.45312
1.4562
1.46443
1.47225
1.47651
1.47893
1.48004
1.48001
1.47718
1.46911
1.4548
1.44358
1.43862
1.43599
1.43538
1.43769
1.44535
1.45034
1.44985
1.44754
1.44488
1.44003
1.42997
1.41886
1.41529
1.41509
1.41705
1.42161
1.42872
1
1
1
1
1
1
1
1
1
1
1
1
1
1
1
1
1
1
1
1
1
1
1
1
1
1
1
1
1
1
1
1
1
1
1
1
1
1
1
1
1
1
1
1
1
1
1
1
1
1
1
1
1
1
1
1
1
1
1
1
1
1
1.00002
1.00076
1.01339
1.13995
1.4588
1.6309
1.67105
1.67836
1.67213
1.66843
1.67169
1.677
1.67578
1.67463
1.67273
1.66851
1.66709
1.66642
1.66701
1.66752
1.6666
1.66563
1.66531
1.66226
1.6574
1.65453
1.65361
1.65288
1.65189
1.6501
1.64755
1.64529
1.64418
1.64398
1.64439
1.64367
1.64227
1.6403
1.63705
1.63273
1.63084
1.63139
1.63331
1.63648
1.64097
1.64507
1.64815
1.65108
1.65364
1.65511
1.65484
1.65282
1.64854
1.64299
1.63779
1.63343
1.62944
1.62465
1.61828
1.61223
1.61023
1.60977
1.61124
1.61492
1.61621
1.6146
1.61205
1.60887
1.60405
1.59586
1.58843
1.58612
1.58483
1.58355
1.5831
1.58537
1.58929
1.58936
1.58818
1.5848
1.57916
1.57646
1.57496
1.57333
1.5721
1.56889
1.56538
1.56295
1.56018
1.55707
1.55515
1.55368
1.55216
1.55099
1.54954
1.5476
1.54529
1.54161
1.53725
1.53191
1.52465
1.51894
1.51752
1.51858
1.52119
1.52528
1.52682
1.52561
1.52354
1.52004
1.51344
1.50343
1.49509
1.49114
1.49022
1.49178
1.49735
1.50104
1.50144
1.50156
1.5002
1.49593
1.48837
1.48289
1.48118
1.48107
1.48165
1.48504
1.49148
1.49616
1.49662
1.49629
1.49386
1.48678
1.4738
1.46106
1.45574
1.45452
1.45453
1.45775
1.4663
1.47447
1.47849
1.48119
1.48275
1.48276
1.47978
1.47097
1.4564
1.44664
1.44247
1.44018
1.43986
1.44261
1.45007
1.45404
1.45296
1.45002
1.44683
1.44153
1.43122
1.42035
1.4172
1.41724
1.41963
1.42443
1.43107
1.43524
1
1
1
1
1
1
1
1
1
1
1
1
1
1
1
1
1
1
1
1
1
1
1
1
1
1
1
1
1
1
1
1
1
1
1
1
1
1
1
1
1
1
1
1
1
1
1
1
1
1
1
1
1
1
1
1
1
1
1
1
1
1
1
1
1.0002
1.00845
1.13379
1.44436
1.58554
1.64665
1.67549
1.68302
1.68337
1.68162
1.67901
1.67554
1.6696
1.66637
1.66652
1.66781
1.67083
1.67069
1.67029
1.66992
1.66719
1.66157
1.65723
1.65521
1.65431
1.65337
1.65221
1.64991
1.6481
1.64756
1.64727
1.647
1.64594
1.64448
1.64238
1.63835
1.63313
1.63031
1.62994
1.63057
1.63228
1.63535
1.63965
1.64461
1.65009
1.65511
1.65749
1.65776
1.65649
1.65276
1.64767
1.64272
1.6383
1.63441
1.63008
1.62426
1.61803
1.61568
1.61535
1.61688
1.6194
1.61917
1.61687
1.61374
1.61007
1.60524
1.59801
1.59071
1.58757
1.58615
1.58494
1.58459
1.58706
1.59155
1.5918
1.59051
1.58686
1.58022
1.57726
1.57609
1.57478
1.57424
1.57374
1.57099
1.56863
1.56642
1.56329
1.56031
1.55846
1.55705
1.55613
1.55503
1.55332
1.55081
1.54708
1.5427
1.53745
1.53047
1.52488
1.5233
1.52398
1.52611
1.52972
1.53095
1.52954
1.52712
1.52337
1.51696
1.5079
1.5005
1.49652
1.49555
1.49697
1.50143
1.50356
1.50327
1.50247
1.50046
1.49556
1.48831
1.48399
1.48253
1.48244
1.48336
1.48749
1.49373
1.49696
1.49713
1.49704
1.49472
1.48775
1.47524
1.46345
1.45818
1.45657
1.45648
1.4599
1.46833
1.47572
1.47958
1.48256
1.48435
1.48429
1.48132
1.47192
1.45744
1.44913
1.44586
1.44412
1.44425
1.44773
1.45493
1.45794
1.45635
1.45276
1.44884
1.44296
1.43221
1.42131
1.41846
1.41868
1.42148
1.42688
1.43369
1.43789
1.43827
1
1
1
1
1
1
1
1
1
1
1
1
1
1
1
1
1
1
1
1
1
1
1
1
1
1
1
1
1
1
1
1
1
1
1
1
1
1
1
1
1
1
1
1
1
1
1
1
1
1
1
1
1
1
1
1
1
1
1
1
1
1
1
1
1
1.00012
1.00851
1.12741
1.32757
1.5137
1.65298
1.68
1.68682
1.6878
1.6814
1.66921
1.66503
1.66577
1.66763
1.6724
1.67315
1.67226
1.67165
1.67071
1.66517
1.65992
1.65748
1.65653
1.65528
1.65427
1.65286
1.65075
1.65008
1.64979
1.6491
1.64798
1.64652
1.64462
1.641
1.63528
1.63112
1.6299
1.63003
1.63053
1.63206
1.63504
1.6395
1.64607
1.65374
1.6571
1.65808
1.65789
1.65565
1.65175
1.64744
1.64328
1.6396
1.63564
1.63045
1.62471
1.62213
1.62183
1.62306
1.624
1.62275
1.61969
1.61589
1.61194
1.60734
1.60111
1.59413
1.58983
1.58799
1.58678
1.58654
1.58934
1.59419
1.59454
1.59291
1.58875
1.58088
1.57721
1.57633
1.57543
1.57495
1.57558
1.57497
1.57304
1.57104
1.56808
1.56434
1.56231
1.56115
1.5604
1.55951
1.558
1.5556
1.55213
1.54795
1.54294
1.53642
1.53148
1.53005
1.53038
1.53188
1.53483
1.5355
1.53372
1.53083
1.5268
1.52082
1.51294
1.5067
1.50339
1.50256
1.50366
1.50644
1.50686
1.50528
1.50362
1.50129
1.49626
1.48975
1.48614
1.4848
1.48465
1.48588
1.49044
1.49591
1.49763
1.49768
1.49752
1.49511
1.48839
1.47645
1.46579
1.46081
1.459
1.45895
1.46262
1.47056
1.47636
1.47971
1.483
1.4849
1.48477
1.48183
1.47208
1.45819
1.45116
1.44855
1.44752
1.44831
1.45281
1.45969
1.46181
1.45982
1.45578
1.45116
1.44458
1.43323
1.42192
1.41907
1.41939
1.42238
1.42844
1.43603
1.44078
1.44128
1.4403
1
1
1
1
1
1
1
1
1
1
1
1
1
1
1
1
1
1
1
1
1
1
1
1
1
1
1
1
1
1
1
1
1
1
1
1
1
1
1
1
1
1
1
1
1
1
1
1
1
1
1
1
1
1
1
1
1
1
1
1
1
1
1
1
1
1
1.00012
1.00592
1.05093
1.21477
1.51894
1.65323
1.68612
1.68568
1.67623
1.66615
1.66549
1.66801
1.67576
1.67678
1.67453
1.6717
1.67174
1.66733
1.66148
1.66042
1.65983
1.65838
1.65674
1.65648
1.65451
1.65197
1.65137
1.65054
1.6492
1.64805
1.64661
1.64364
1.63896
1.63354
1.63078
1.63079
1.63093
1.63131
1.63289
1.63612
1.64165
1.64939
1.65404
1.65577
1.65667
1.65618
1.65379
1.65088
1.64783
1.64461
1.64109
1.63677
1.63229
1.62985
1.62933
1.62944
1.62862
1.62632
1.62282
1.61906
1.61517
1.61087
1.6054
1.59875
1.59333
1.59079
1.58954
1.5894
1.59246
1.5974
1.59772
1.59574
1.59111
1.58197
1.57698
1.57607
1.57545
1.5751
1.57622
1.57728
1.5763
1.57453
1.57141
1.56734
1.5652
1.5642
1.56357
1.56286
1.56169
1.55969
1.55666
1.55278
1.54793
1.54179
1.53771
1.53672
1.53689
1.538
1.5402
1.5404
1.53795
1.53456
1.5303
1.52467
1.518
1.51319
1.51109
1.51058
1.5114
1.51252
1.51097
1.50767
1.5054
1.50284
1.49805
1.49266
1.4895
1.48843
1.48823
1.48956
1.49391
1.49784
1.49831
1.49823
1.49772
1.49533
1.48902
1.47795
1.46847
1.46369
1.46175
1.46186
1.46573
1.47282
1.47682
1.47955
1.48282
1.48469
1.48448
1.48142
1.47148
1.45857
1.45272
1.45065
1.4501
1.45173
1.45737
1.46392
1.46536
1.46313
1.45902
1.45399
1.44671
1.43456
1.42249
1.41934
1.41955
1.42233
1.42874
1.43766
1.44333
1.4444
1.44364
1.44175
1
1
1
1
1
1
1
1
1
1
1
1
1
1
1
1
1
1
1
1
1
1
1
1
1
1
1
1
1
1
1
1
1
1
1
1
1
1
1
1
1
1
1
1
1
1
1
1
1
1
1
1
1
1
1
1
1
1
1
1
1
1
1
1
1
1
1
1.00004
1.00111
1.02127
1.19906
1.51795
1.64367
1.66839
1.67146
1.66828
1.67086
1.67951
1.68093
1.67762
1.67336
1.6696
1.66703
1.66329
1.66233
1.66254
1.66159
1.66022
1.65977
1.65855
1.65408
1.652
1.6514
1.65045
1.64941
1.64848
1.64648
1.64289
1.63732
1.63312
1.63282
1.63293
1.63311
1.63402
1.63594
1.63952
1.64465
1.64904
1.65105
1.65236
1.65394
1.65355
1.65233
1.65062
1.64883
1.64643
1.64304
1.63993
1.63812
1.63733
1.63608
1.63336
1.6298
1.62625
1.62264
1.61899
1.61522
1.61051
1.60437
1.59818
1.59465
1.59328
1.59316
1.59631
1.60115
1.60132
1.59902
1.59408
1.5841
1.57748
1.57616
1.57553
1.57523
1.57648
1.57904
1.5788
1.57732
1.57395
1.56907
1.5669
1.5662
1.5657
1.56518
1.56443
1.56304
1.56066
1.55717
1.55231
1.54619
1.54286
1.54232
1.54252
1.54359
1.54539
1.54527
1.54226
1.53834
1.53388
1.52855
1.52278
1.51943
1.51872
1.51873
1.51925
1.51926
1.5158
1.51105
1.50793
1.5051
1.50099
1.49671
1.49406
1.49356
1.49332
1.49452
1.49762
1.49943
1.49896
1.4985
1.49775
1.49572
1.49011
1.48009
1.47167
1.46704
1.46494
1.4651
1.46889
1.47509
1.47754
1.47956
1.48241
1.48393
1.48365
1.48036
1.47026
1.45871
1.45397
1.45227
1.452
1.45443
1.46099
1.46704
1.46803
1.46605
1.46233
1.45736
1.44971
1.43662
1.42327
1.41952
1.4195
1.42161
1.42772
1.43802
1.4455
1.44712
1.4473
1.44609
1.44624
1
1
1
1
1
1
1
1
1
1
1
1
1
1
1
1
1
1
1
1
1
1
1
1
1
1
1
1
1
1
1
1
1
1
1
1
1
1
1
1
1
1
1
1
1
1
1
1
1
1
1
1
1
1
1
1
1
1
1
1
1
1
1
1
1
1
1
1
1
1.00043
1.01719
1.19983
1.46361
1.57703
1.64366
1.67838
1.68166
1.68156
1.67917
1.67475
1.66588
1.66317
1.6638
1.66393
1.66497
1.66455
1.66305
1.66226
1.6617
1.65658
1.65197
1.65177
1.6517
1.65095
1.65009
1.64879
1.64589
1.64118
1.63673
1.63595
1.63621
1.63666
1.63715
1.63831
1.63961
1.64159
1.6439
1.64581
1.64699
1.64812
1.64985
1.65147
1.65165
1.65124
1.65074
1.64941
1.64739
1.64609
1.64464
1.64177
1.63758
1.63371
1.63004
1.6264
1.62294
1.61961
1.61582
1.6105
1.60409
1.59963
1.59802
1.59777
1.60065
1.60519
1.6052
1.60268
1.59754
1.58715
1.57903
1.57704
1.57623
1.5759
1.57737
1.58089
1.58126
1.57989
1.57605
1.56987
1.56755
1.56701
1.56681
1.5668
1.56635
1.56557
1.56396
1.56099
1.5561
1.54962
1.54676
1.54651
1.54682
1.54794
1.54987
1.54982
1.54664
1.54224
1.53747
1.53227
1.52724
1.52517
1.52543
1.52621
1.52654
1.52588
1.52121
1.5153
1.5112
1.50791
1.50434
1.50132
1.49977
1.49976
1.49958
1.50033
1.5015
1.50118
1.49942
1.49855
1.49789
1.49645
1.49173
1.48301
1.47567
1.47112
1.46879
1.46886
1.47225
1.4774
1.47873
1.48
1.48212
1.48302
1.48267
1.47902
1.46887
1.4588
1.45496
1.45354
1.45337
1.45626
1.46341
1.46896
1.4696
1.4682
1.46547
1.46111
1.45353
1.43988
1.42465
1.41982
1.41955
1.4207
1.42611
1.43641
1.44663
1.44946
1.45056
1.45192
1.46944
1.56355
1
1
1
1
1
1
1
1
1
1
1
1
1
1
1
1
1
1
1
1
1
1
1
1
1
1
1
1
1
1
1
1
1
1
1
1
1
1
1
1
1
1
1
1
1
1
1
1
1
1
1
1
1
1
1
1
1
1
1
1
1
1
1
1
1
1
1
1
1
1
1.00033
1.01587
1.13209
1.30877
1.53768
1.66
1.68074
1.68388
1.67806
1.66266
1.65838
1.6611
1.66491
1.66976
1.66912
1.66595
1.66367
1.66362
1.65903
1.65273
1.65242
1.65303
1.65266
1.65194
1.65094
1.64825
1.64422
1.64076
1.63941
1.6399
1.64113
1.64182
1.64171
1.64131
1.64038
1.64043
1.64117
1.64173
1.64164
1.64295
1.64671
1.65001
1.6521
1.65354
1.65413
1.65373
1.65263
1.65059
1.64657
1.64181
1.63761
1.63381
1.63027
1.62705
1.62417
1.6211
1.61662
1.61057
1.60569
1.60381
1.60339
1.6056
1.60943
1.60924
1.60652
1.60127
1.5909
1.58165
1.57877
1.57778
1.57755
1.57954
1.58356
1.58417
1.5827
1.5783
1.57067
1.56744
1.56702
1.56689
1.5677
1.56809
1.56757
1.56653
1.56413
1.5592
1.55222
1.54953
1.54943
1.54989
1.55109
1.55338
1.55364
1.55082
1.54628
1.54111
1.53568
1.53116
1.52995
1.53097
1.53254
1.53277
1.53183
1.52691
1.52017
1.51488
1.51111
1.50799
1.50631
1.50615
1.50672
1.50645
1.50648
1.50598
1.50311
1.50008
1.49904
1.49866
1.49771
1.49383
1.48645
1.48026
1.47596
1.47349
1.47335
1.47604
1.47999
1.48047
1.48103
1.48205
1.48225
1.48174
1.47765
1.46755
1.45904
1.45601
1.45472
1.4544
1.45727
1.46464
1.4697
1.47015
1.46948
1.46805
1.46484
1.45789
1.44414
1.42733
1.42062
1.41978
1.42018
1.42421
1.43467
1.44497
1.45135
1.45343
1.46443
1.526
1.67326
1.83353
1
1
1
1
1
1
1
1
1
1
1
1
1
1
1
1
1
1
1
1
1
1
1
1
1
1
1
1
1
1
1
1
1
1
1
1
1
1
1
1
1
1
1
1
1
1
1
1
1
1
1
1
1
1
1
1
1
1
1
1
1
1
1
1
1
1
1
1
1
1
1
1.0002
1.00532
1.04626
1.25053
1.55318
1.65568
1.67972
1.6743
1.66099
1.65847
1.66343
1.67358
1.67328
1.6697
1.66545
1.66379
1.65989
1.65482
1.65448
1.655
1.65445
1.6542
1.65374
1.65123
1.64719
1.64472
1.64315
1.64353
1.64519
1.64605
1.64532
1.64338
1.64131
1.63938
1.63797
1.63777
1.63727
1.63735
1.64016
1.64473
1.64973
1.65425
1.65654
1.65694
1.65647
1.65435
1.65074
1.64654
1.64192
1.63768
1.63411
1.63116
1.6287
1.6262
1.62254
1.61719
1.61245
1.61047
1.60994
1.61157
1.61426
1.6136
1.6106
1.6052
1.59497
1.58512
1.5814
1.58031
1.58027
1.58296
1.58732
1.58781
1.58605
1.58109
1.57222
1.56757
1.5669
1.56675
1.56745
1.5699
1.56976
1.56891
1.56674
1.56162
1.55409
1.5514
1.55133
1.55191
1.55324
1.55604
1.55676
1.55452
1.55014
1.54473
1.53888
1.53444
1.53366
1.53512
1.53737
1.53778
1.53687
1.53233
1.52529
1.51886
1.5145
1.51194
1.51128
1.51214
1.51354
1.51343
1.51298
1.51088
1.50608
1.5018
1.50026
1.49993
1.49932
1.49632
1.49029
1.48523
1.48145
1.47897
1.47858
1.48042
1.48297
1.48278
1.4825
1.48239
1.48211
1.48119
1.47659
1.46677
1.45977
1.45731
1.45599
1.45542
1.45781
1.46479
1.4696
1.47001
1.47003
1.46984
1.46811
1.46235
1.44905
1.43115
1.42262
1.42058
1.42043
1.423
1.43213
1.4439
1.45076
1.45871
1.49722
1.62979
1.79188
1.91372
1.93919
1
1
1
1
1
1
1
1
1
1
1
1
1
1
1
1
1
1
1
1
1
1
1
1
1
1
1
1
1
1
1
1
1
1
1
1
1
1
1
1
1
1
1
1
1
1
1
1
1
1
1
1
1
1
1
1
1
1
1
1
1
1
1
1
1
1
1
1
1
1
1
1
1.00003
1.00121
1.03004
1.25316
1.53338
1.6249
1.65145
1.66343
1.66667
1.67234
1.67506
1.67319
1.66873
1.66244
1.65918
1.65672
1.65676
1.65721
1.65731
1.65753
1.65757
1.65559
1.65082
1.64861
1.64797
1.64721
1.64799
1.64886
1.64797
1.6457
1.6429
1.64012
1.63792
1.63581
1.63462
1.63463
1.63562
1.63874
1.64404
1.65118
1.65537
1.65691
1.65728
1.65653
1.65398
1.65038
1.6464
1.64187
1.63799
1.63522
1.6331
1.6311
1.62815
1.62364
1.6195
1.6176
1.61709
1.61828
1.62001
1.61874
1.6153
1.60955
1.59945
1.58937
1.58481
1.58358
1.58374
1.58717
1.59174
1.592
1.58996
1.58449
1.57476
1.56868
1.56744
1.56716
1.56769
1.57106
1.57244
1.57157
1.5693
1.5637
1.5555
1.55266
1.55257
1.55319
1.55475
1.55804
1.55932
1.55764
1.55365
1.54808
1.54179
1.53725
1.53649
1.53798
1.54068
1.54149
1.54084
1.53712
1.5302
1.52276
1.51782
1.51589
1.51585
1.5174
1.51971
1.51988
1.51892
1.51569
1.51
1.50448
1.5022
1.50179
1.50139
1.49905
1.49422
1.49026
1.48731
1.48493
1.48424
1.48531
1.4865
1.48549
1.48433
1.48359
1.48293
1.48138
1.47618
1.46672
1.46098
1.45888
1.45741
1.45663
1.45852
1.46477
1.469
1.46956
1.47023
1.47076
1.47024
1.46628
1.45412
1.43581
1.42581
1.42255
1.42155
1.42285
1.43026
1.44229
1.45142
1.4736
1.5717
1.75243
1.89797
1.94672
1.96613
1.96425
1
1
1
1
1
1
1
1
1
1
1
1
1
1
1
1
1
1
1
1
1
1
1
1
1
1
1
1
1
1
1
1
1
1
1
1
1
1
1
1
1
1
1
1
1
1
1
1
1
1
1
1
1
1
1
1
1
1
1
1
1
1
1
1
1
1
1
1
1
1
1
1
1
1.00001
1.00075
1.02894
1.22362
1.41337
1.56226
1.65006
1.67626
1.67876
1.67764
1.67233
1.66095
1.6572
1.65753
1.65802
1.65919
1.66041
1.66194
1.66248
1.66036
1.6551
1.65251
1.6528
1.65232
1.6503
1.6502
1.64987
1.64804
1.64511
1.64188
1.63887
1.63662
1.63462
1.63372
1.63411
1.63553
1.6389
1.64477
1.65115
1.65346
1.65538
1.65626
1.65562
1.65333
1.64973
1.6462
1.64246
1.63952
1.63754
1.63582
1.63339
1.62963
1.62625
1.62465
1.62432
1.62526
1.62614
1.62441
1.62074
1.61483
1.60487
1.59454
1.5891
1.58762
1.58777
1.59158
1.59642
1.59649
1.59409
1.58825
1.57801
1.57086
1.56893
1.56859
1.56909
1.57282
1.57549
1.57471
1.57219
1.56595
1.55676
1.55362
1.55346
1.55402
1.55592
1.5599
1.56158
1.56026
1.5569
1.55124
1.54429
1.53971
1.5388
1.53993
1.5427
1.54406
1.54372
1.54091
1.5346
1.52659
1.52105
1.51936
1.51962
1.52169
1.5244
1.52504
1.52409
1.52047
1.51431
1.50815
1.50493
1.50409
1.50369
1.50189
1.49809
1.49509
1.49315
1.491
1.49002
1.49055
1.49077
1.48862
1.48675
1.48572
1.48472
1.48255
1.47682
1.46776
1.46302
1.46104
1.45934
1.45813
1.45941
1.46491
1.46881
1.46912
1.47007
1.47141
1.47148
1.46921
1.45882
1.44079
1.42989
1.42559
1.42372
1.42374
1.42956
1.44131
1.45693
1.51776
1.68118
1.87218
1.95965
1.97444
1.97552
1.97468
1.97212
1
1
1
1
1
1
1
1
1
1
1
1
1
1
1
1
1
1
1
1
1
1
1
1
1
1
1
1
1
1
1
1
1
1
1
1
1
1
1
1
1
1
1
1
1
1
1
1
1
1
1
1
1
1
1
1
1
1
1
1
1
1
1
1
1
1
1
1
1
1
1
1
1
1
1.00001
1.00063
1.01769
1.10198
1.30597
1.57606
1.66257
1.68265
1.68043
1.6655
1.65625
1.65749
1.66039
1.66506
1.66522
1.66582
1.6665
1.66416
1.65831
1.65592
1.65657
1.65615
1.65288
1.65158
1.65141
1.64991
1.64694
1.64395
1.64106
1.63808
1.63647
1.63485
1.6347
1.63547
1.63704
1.63983
1.64408
1.6481
1.65017
1.65281
1.65443
1.65386
1.65192
1.64903
1.64688
1.6446
1.64256
1.64091
1.63874
1.63539
1.63252
1.63109
1.6309
1.63178
1.63209
1.62999
1.62641
1.62068
1.6112
1.60079
1.59446
1.59257
1.59256
1.59616
1.60085
1.60073
1.59805
1.59211
1.58168
1.57399
1.57146
1.57107
1.57168
1.57564
1.57893
1.57834
1.57568
1.56892
1.55851
1.55451
1.5542
1.55468
1.55693
1.5617
1.56377
1.5627
1.55987
1.55443
1.54666
1.54187
1.54089
1.54154
1.54395
1.54577
1.54572
1.54372
1.5381
1.53006
1.52417
1.5225
1.52282
1.52495
1.52802
1.52913
1.52811
1.52444
1.51831
1.51201
1.50819
1.5068
1.50627
1.5048
1.50178
1.49966
1.4986
1.49689
1.49567
1.4959
1.49569
1.49266
1.49
1.48858
1.48716
1.48446
1.47848
1.4701
1.46592
1.46401
1.46219
1.46051
1.4611
1.46552
1.46911
1.4692
1.46991
1.47158
1.47223
1.47121
1.46286
1.44571
1.43475
1.4296
1.42672
1.42603
1.42993
1.44331
1.48042
1.6082
1.80757
1.94641
1.99927
1.99264
1.98419
1.97995
1.97546
1.9721
1
1
1
1
1
1
1
1
1
1
1
1
1
1
1
1
1
1
1
1
1
1
1
1
1
1
1
1
1
1
1
1
1
1
1
1
1
1
1
1
1
1
1
1
1
1
1
1
1
1
1
1
1
1
1
1
1
1
1
1
1
1
1
1
1
1
1
1
1
1
1
1
1
1
1
1
1.00018
1.004
1.05253
1.31268
1.57731
1.65552
1.66886
1.66543
1.66123
1.66431
1.66945
1.6692
1.66738
1.66676
1.66663
1.6598
1.65763
1.65887
1.65841
1.65557
1.65334
1.65324
1.65207
1.64868
1.64569
1.64349
1.64065
1.63864
1.63839
1.63771
1.63777
1.63755
1.6375
1.63858
1.6412
1.64385
1.64608
1.64884
1.6512
1.65137
1.65046
1.64918
1.6487
1.64788
1.64662
1.64475
1.6414
1.6386
1.63705
1.63667
1.63724
1.63718
1.63514
1.63193
1.62657
1.61782
1.60767
1.60073
1.5984
1.59822
1.60123
1.60532
1.60494
1.60194
1.59581
1.58552
1.57782
1.57482
1.57434
1.57516
1.57942
1.58276
1.58228
1.57963
1.57269
1.56133
1.5558
1.55511
1.55545
1.55786
1.56329
1.56573
1.56496
1.5627
1.55756
1.54948
1.54391
1.54286
1.54323
1.54507
1.54703
1.54719
1.54574
1.54081
1.53303
1.52714
1.52539
1.52558
1.5276
1.53078
1.53217
1.53154
1.52778
1.5214
1.51527
1.51136
1.50959
1.50899
1.50779
1.50533
1.50384
1.50338
1.50223
1.50102
1.50115
1.50087
1.49756
1.49411
1.49202
1.48999
1.48674
1.48067
1.47334
1.46971
1.46809
1.46626
1.4641
1.46404
1.46722
1.47026
1.46991
1.47018
1.4715
1.47286
1.47256
1.46609
1.45045
1.43977
1.43466
1.43033
1.4291
1.43273
1.45421
1.54284
1.72759
1.91518
2.00015
2.00296
1.99721
1.98857
1.98211
1.9787
1.97613
1.97332
1
1
1
1
1
1
1
1
1
1
1
1
1
1
1
1
1
1
1
1
1
1
1
1
1
1
1
1
1
1
1
1
1
1
1
1
1
1
1
1
1
1
1
1
1
1
1
1
1
1
1
1
1
1
1
1
1
1
1
1
1
1
1
1
1
1
1
1
1
1
1
1
1
1
1
1
1
1.00003
1.00183
1.04791
1.30148
1.5099
1.60067
1.65052
1.67406
1.67414
1.67224
1.66974
1.66643
1.66514
1.66011
1.65771
1.65893
1.65901
1.65756
1.65617
1.65611
1.65487
1.65082
1.64746
1.64625
1.64415
1.64242
1.64261
1.64238
1.64101
1.63968
1.63719
1.63554
1.63636
1.63843
1.63941
1.64048
1.64381
1.64721
1.64914
1.64981
1.6508
1.65226
1.65197
1.65111
1.64811
1.64451
1.64288
1.64176
1.64181
1.6413
1.63964
1.63697
1.63214
1.62422
1.6146
1.60742
1.60478
1.60451
1.60687
1.60999
1.6093
1.60594
1.59944
1.58932
1.58205
1.57883
1.5782
1.5792
1.5837
1.58686
1.58643
1.5839
1.57695
1.56515
1.55823
1.55678
1.55689
1.55887
1.56452
1.5673
1.56684
1.56529
1.56084
1.55287
1.54638
1.5449
1.54522
1.54674
1.54835
1.5485
1.54724
1.54282
1.53561
1.53007
1.52816
1.52815
1.52993
1.53315
1.53481
1.5343
1.5305
1.52386
1.51789
1.51407
1.51216
1.51153
1.51064
1.50854
1.50742
1.50732
1.50674
1.50578
1.506
1.50587
1.50271
1.49887
1.49604
1.49311
1.48908
1.48299
1.4771
1.47423
1.4731
1.4715