/*--------------------------------*- C++ -*----------------------------------*\
  =========                 |
  \\      /  F ield         | OpenFOAM: The Open Source CFD Toolbox
   \\    /   O peration     | Website:  https://openfoam.org
    \\  /    A nd           | Version:  7
     \\/     M anipulation  |
\*---------------------------------------------------------------------------*/
FoamFile
{
    version     2.0;
    format      ascii;
    class       volVectorField;
    location    "4";
    object      U;
}
// * * * * * * * * * * * * * * * * * * * * * * * * * * * * * * * * * * * * * //

dimensions      [0 1 -1 0 0 0 0];

internalField   nonuniform List<vector> 
4128
(
(2.1631 0.243163 0)
(2.16984 0.210433 0)
(2.17315 0.189032 0)
(2.17828 0.181849 0)
(2.18689 0.170395 0)
(2.20817 0.160759 0)
(2.22783 0.147582 0)
(2.24568 0.137097 0)
(2.26653 0.123814 0)
(2.2841 0.108501 0)
(2.29994 0.093128 0)
(2.31061 0.0757854 0)
(2.30572 0.0519624 0)
(2.28694 0.0216009 0)
(2.29201 0.00623748 0)
(2.30795 0.00129817 0)
(2.32462 -0.00432438 0)
(2.34404 -0.0113186 0)
(2.36337 -0.0196692 0)
(2.37893 -0.0265624 0)
(2.3941 -0.0335722 0)
(2.40688 -0.0438762 0)
(2.41105 -0.0613558 0)
(2.39525 -0.0889289 0)
(2.37968 -0.113911 0)
(2.38898 -0.122742 0)
(2.40228 -0.128494 0)
(2.41826 -0.1346 0)
(2.43601 -0.141061 0)
(2.4522 -0.150022 0)
(2.46148 -0.154566 0)
(2.4741 -0.158975 0)
(2.48498 -0.1665 0)
(2.48633 -0.180358 0)
(2.46843 -0.204552 0)
(2.45591 -0.224644 0)
(2.46289 -0.228898 0)
(2.4715 -0.234466 0)
(2.48529 -0.244596 0)
(2.50332 -0.253206 0)
(2.51873 -0.262143 0)
(2.52847 -0.267895 0)
(2.5398 -0.272926 0)
(2.54957 -0.279704 0)
(2.55117 -0.289786 0)
(2.53659 -0.304881 0)
(2.52321 -0.320575 0)
(2.52953 -0.328715 0)
(2.53987 -0.332121 0)
(2.54917 -0.336295 0)
(2.55981 -0.335488 0)
(2.56938 -0.337032 0)
(2.57757 -0.332942 0)
(2.58169 -0.32931 0)
(2.57886 -0.32147 0)
(2.56481 -0.300048 0)
(2.54245 -0.263918 0)
(2.51725 -0.226295 0)
(2.47251 -0.173023 0)
(2.43696 -0.124867 0)
(2.42755 -0.0978872 0)
(2.42144 -0.0527986 0)
(2.42742 -0.0161822 0)
(2.43947 0.00193883 0)
(2.43227 0.00286257 0)
(2.42229 0.00263031 0)
(2.41852 0.00486347 0)
(2.41468 0.0120391 0)
(2.40687 0.0197754 0)
(2.39345 0.015721 0)
(2.38552 0.00941594 0)
(2.38158 0.00621782 0)
(2.38144 0.00719498 0)
(2.38908 0.0189623 0)
(2.4023 0.0402777 0)
(2.40506 0.0508447 0)
(2.40227 0.0514561 0)
(2.39675 0.048121 0)
(2.38502 0.0399389 0)
(2.37434 0.0316503 0)
(2.37264 0.0303575 0)
(2.37328 0.0306917 0)
(2.37407 0.030605 0)
(2.37789 0.0311028 0)
(2.38724 0.0364656 0)
(2.39768 0.0459002 0)
(2.40121 0.0517376 0)
(2.40131 0.0550322 0)
(2.39619 0.0575032 0)
(2.38068 0.0529626 0)
(2.36738 0.0440546 0)
(2.36636 0.039857 0)
(2.36735 0.0385415 0)
(2.37113 0.0373919 0)
(2.37994 0.0400452 0)
(2.39347 0.0457314 0)
(2.39913 0.0511967 0)
(2.3977 0.0521632 0)
(1.91601 0.169406 0)
(0.981926 0.18386 0)
(0.876274 0.139693 0)
(0.880764 0.124362 0)
(0.88366 0.101245 0)
(0.896767 0.0743022 0)
(0.910372 0.0489565 0)
(0.917274 0.0280245 0)
(0.913986 0.0117236 0)
(0.906562 -0.00181544 0)
(0.905527 -0.0102682 0)
(0.910705 -0.0159809 0)
(0.9198 -0.0230697 0)
(0.933216 -0.0315925 0)
(0.947231 -0.0414247 0)
(0.958808 -0.050797 0)
(0.966218 -0.0596511 0)
(0.969927 -0.06803 0)
(0.972854 -0.0745648 0)
(0.977405 -0.0766384 0)
(0.982895 -0.0770219 0)
(0.990058 -0.0767305 0)
(0.998623 -0.0767088 0)
(1.00785 -0.0783247 0)
(1.01828 -0.0817289 0)
(1.02941 -0.0880423 0)
(1.03912 -0.0970491 0)
(1.04735 -0.103279 0)
(1.05431 -0.10515 0)
(1.05992 -0.105168 0)
(1.0657 -0.103396 0)
(2.15988 0.259197 0)
(2.1685 0.227153 0)
(2.17633 0.20938 0)
(2.18582 0.205592 0)
(2.19491 0.195364 0)
(2.21625 0.181307 0)
(2.23445 0.167412 0)
(2.25037 0.15934 0)
(2.2693 0.145467 0)
(2.2853 0.127995 0)
(2.29909 0.110867 0)
(2.30523 0.0899151 0)
(2.2946 0.0642244 0)
(2.28618 0.0427096 0)
(2.29846 0.033362 0)
(2.31499 0.0285754 0)
(2.33273 0.021978 0)
(2.35174 0.0133739 0)
(2.36877 0.00446829 0)
(2.38405 -0.00346796 0)
(2.39777 -0.0114506 0)
(2.4073 -0.0246011 0)
(2.40171 -0.0489353 0)
(2.38122 -0.0795332 0)
(2.38217 -0.092567 0)
(2.39362 -0.0977788 0)
(2.40809 -0.105115 0)
(2.42547 -0.112075 0)
(2.44375 -0.119391 0)
(2.45771 -0.128068 0)
(2.46795 -0.133676 0)
(2.47899 -0.138741 0)
(2.48678 -0.148287 0)
(2.47967 -0.16693 0)
(2.45785 -0.191759 0)
(2.45765 -0.202732 0)
(2.4664 -0.20471 0)
(2.47627 -0.209654 0)
(2.48983 -0.219531 0)
(2.50639 -0.22826 0)
(2.52126 -0.236467 0)
(2.53134 -0.243651 0)
(2.54155 -0.250584 0)
(2.54985 -0.260018 0)
(2.54785 -0.274677 0)
(2.53146 -0.291343 0)
(2.5254 -0.301149 0)
(2.53129 -0.305696 0)
(2.54276 -0.30925 0)
(2.55472 -0.312413 0)
(2.56538 -0.316739 0)
(2.57715 -0.320381 0)
(2.58595 -0.324121 0)
(2.58905 -0.327117 0)
(2.59005 -0.329323 0)
(2.5857 -0.334886 0)
(2.56844 -0.330766 0)
(2.55921 -0.32226 0)
(2.53746 -0.292935 0)
(2.51072 -0.244633 0)
(2.48489 -0.18315 0)
(2.45925 -0.0991438 0)
(2.46393 -0.0581136 0)
(2.48114 -0.0262613 0)
(2.46666 -0.00660176 0)
(2.44715 -0.00809833 0)
(2.43553 -0.0097344 0)
(2.42885 -0.00614678 0)
(2.41953 0.00521957 0)
(2.40781 0.0107544 0)
(2.40176 0.00784797 0)
(2.39623 0.00279257 0)
(2.3997 0.0069269 0)
(2.41401 0.0238699 0)
(2.42393 0.0406195 0)
(2.42387 0.046071 0)
(2.41968 0.0485903 0)
(2.40827 0.0437416 0)
(2.3912 0.0324817 0)
(2.38203 0.0250643 0)
(2.38246 0.0241923 0)
(2.3839 0.0253768 0)
(2.38878 0.0293942 0)
(2.39972 0.0377862 0)
(2.4124 0.0471671 0)
(2.4166 0.051407 0)
(2.41647 0.0524882 0)
(2.41429 0.0540565 0)
(2.40355 0.053222 0)
(2.38532 0.0468183 0)
(2.37625 0.0408905 0)
(2.37554 0.0389262 0)
(2.37643 0.0375496 0)
(2.38205 0.0384186 0)
(2.3964 0.0458846 0)
(2.41214 0.054338 0)
(2.41481 0.0574828 0)
(2.41175 0.0571526 0)
(2.05307 0.161953 0)
(1.00628 0.184617 0)
(0.880642 0.137551 0)
(0.891051 0.119975 0)
(0.897906 0.0962162 0)
(0.914257 0.0706793 0)
(0.929816 0.0455499 0)
(0.935557 0.0246108 0)
(0.932373 0.00792468 0)
(0.926134 -0.00533 0)
(0.926492 -0.0137067 0)
(0.932391 -0.0204812 0)
(0.942593 -0.0288994 0)
(0.957888 -0.0388466 0)
(0.974101 -0.0491968 0)
(0.986368 -0.0590302 0)
(0.992534 -0.0681204 0)
(0.995529 -0.0766396 0)
(0.999099 -0.0813899 0)
(1.00391 -0.082429 0)
(1.01036 -0.0824338 0)
(1.01876 -0.0812495 0)
(1.02806 -0.0800622 0)
(1.03769 -0.0809157 0)
(1.04666 -0.085975 0)
(1.05392 -0.0957371 0)
(1.06061 -0.106222 0)
(1.06834 -0.111179 0)
(1.07557 -0.112315 0)
(1.08189 -0.111119 0)
(1.08862 -0.107658 0)
(2.15709 0.272221 0)
(2.17027 0.241946 0)
(2.18126 0.226898 0)
(2.1923 0.225845 0)
(2.20241 0.216911 0)
(2.22288 0.199139 0)
(2.23926 0.185329 0)
(2.25367 0.178883 0)
(2.27102 0.163695 0)
(2.28529 0.143079 0)
(2.29606 0.124758 0)
(2.29717 0.103078 0)
(2.28698 0.0783994 0)
(2.29267 0.0644152 0)
(2.30578 0.0576313 0)
(2.32317 0.0519452 0)
(2.34121 0.0435116 0)
(2.35777 0.034734 0)
(2.37385 0.0268255 0)
(2.38825 0.0174788 0)
(2.39941 0.00666442 0)
(2.40296 -0.0112272 0)
(2.38821 -0.0411999 0)
(2.37774 -0.0634009 0)
(2.38703 -0.0676706 0)
(2.39833 -0.0729905 0)
(2.41376 -0.0804204 0)
(2.43137 -0.0879331 0)
(2.44853 -0.0969852 0)
(2.46157 -0.10648 0)
(2.47201 -0.113386 0)
(2.48142 -0.119889 0)
(2.48459 -0.13156 0)
(2.46933 -0.153663 0)
(2.45342 -0.174449 0)
(2.46091 -0.179992 0)
(2.47027 -0.181826 0)
(2.48118 -0.185824 0)
(2.49439 -0.195174 0)
(2.5092 -0.204915 0)
(2.52293 -0.213153 0)
(2.5327 -0.220234 0)
(2.54167 -0.227486 0)
(2.54752 -0.23762 0)
(2.54094 -0.253597 0)
(2.52491 -0.269853 0)
(2.52767 -0.278039 0)
(2.5349 -0.281611 0)
(2.54503 -0.286405 0)
(2.55793 -0.290425 0)
(2.56947 -0.295108 0)
(2.57983 -0.301473 0)
(2.58759 -0.309665 0)
(2.59276 -0.316381 0)
(2.59447 -0.321923 0)
(2.58705 -0.332476 0)
(2.57496 -0.340496 0)
(2.57201 -0.339703 0)
(2.5702 -0.336139 0)
(2.56491 -0.318012 0)
(2.55376 -0.282931 0)
(2.53413 -0.221613 0)
(2.5217 -0.152347 0)
(2.52446 -0.0954248 0)
(2.49871 -0.0273855 0)
(2.47947 -0.0167548 0)
(2.45355 -0.0173411 0)
(2.43603 -0.0186813 0)
(2.42543 -0.0129586 0)
(2.41953 0.00266632 0)
(2.4166 0.00898021 0)
(2.41614 0.0105427 0)
(2.42466 0.017062 0)
(2.43512 0.0267699 0)
(2.43785 0.0334452 0)
(2.43696 0.0378144 0)
(2.43183 0.0424475 0)
(2.41712 0.0393339 0)
(2.39832 0.0267752 0)
(2.39237 0.0202538 0)
(2.39094 0.018652 0)
(2.39401 0.0209501 0)
(2.40604 0.0313641 0)
(2.42421 0.0475252 0)
(2.43176 0.0547617 0)
(2.43136 0.0548571 0)
(2.42871 0.0533107 0)
(2.42035 0.049999 0)
(2.40515 0.0459555 0)
(2.39098 0.0426321 0)
(2.38754 0.0416001 0)
(2.38688 0.0411725 0)
(2.38755 0.0410804 0)
(2.39577 0.0451943 0)
(2.414 0.0554778 0)
(2.42588 0.0615354 0)
(2.42656 0.0617902 0)
(2.42197 0.0590853 0)
(2.18009 0.147082 0)
(1.03711 0.182695 0)
(0.882218 0.135386 0)
(0.896084 0.117501 0)
(0.908403 0.0921906 0)
(0.926613 0.0643397 0)
(0.942832 0.0396624 0)
(0.947485 0.0196384 0)
(0.945354 0.0037471 0)
(0.941503 -0.00874097 0)
(0.94361 -0.0173489 0)
(0.950537 -0.0255174 0)
(0.962254 -0.0355065 0)
(0.979883 -0.0463109 0)
(0.997159 -0.0570161 0)
(1.00776 -0.0678387 0)
(1.01218 -0.0781043 0)
(1.01553 -0.0856577 0)
(1.02051 -0.0877097 0)
(1.02648 -0.0879981 0)
(1.03511 -0.0869426 0)
(1.04519 -0.0846527 0)
(1.05487 -0.0832611 0)
(1.06279 -0.0857197 0)
(1.06885 -0.0929124 0)
(1.07328 -0.104503 0)
(1.07939 -0.113553 0)
(1.08707 -0.116612 0)
(1.09464 -0.115992 0)
(1.10191 -0.112715 0)
(1.10963 -0.10765 0)
(2.15492 0.284874 0)
(2.16953 0.262458 0)
(2.18173 0.251357 0)
(2.19415 0.250225 0)
(2.20797 0.239425 0)
(2.22706 0.21694 0)
(2.2406 0.203715 0)
(2.25219 0.200259 0)
(2.26796 0.184434 0)
(2.28083 0.160152 0)
(2.28847 0.140773 0)
(2.28592 0.120065 0)
(2.28476 0.0978305 0)
(2.2981 0.0885785 0)
(2.31126 0.0841834 0)
(2.32881 0.0773633 0)
(2.3459 0.0663512 0)
(2.36107 0.056815 0)
(2.37622 0.0492812 0)
(2.38865 0.0383805 0)
(2.39567 0.0233857 0)
(2.39109 0.00217193 0)
(2.3757 -0.0267743 0)
(2.37988 -0.0384467 0)
(2.39058 -0.0409114 0)
(2.40292 -0.0477095 0)
(2.41814 -0.0561455 0)
(2.43472 -0.0645244 0)
(2.45061 -0.0749871 0)
(2.4632 -0.0859237 0)
(2.47326 -0.0946446 0)
(2.4804 -0.103505 0)
(2.47841 -0.117029 0)
(2.46008 -0.138512 0)
(2.45354 -0.154277 0)
(2.46386 -0.157946 0)
(2.47394 -0.160213 0)
(2.48569 -0.163958 0)
(2.49926 -0.172045 0)
(2.51147 -0.181436 0)
(2.52334 -0.189387 0)
(2.53308 -0.197335 0)
(2.54064 -0.206567 0)
(2.54283 -0.219562 0)
(2.53213 -0.237793 0)
(2.52287 -0.251857 0)
(2.52944 -0.255377 0)
(2.53769 -0.259336 0)
(2.54718 -0.263847 0)
(2.55982 -0.268778 0)
(2.57082 -0.273642 0)
(2.57964 -0.278701 0)
(2.58647 -0.285264 0)
(2.59051 -0.291624 0)
(2.58825 -0.300259 0)
(2.57614 -0.319004 0)
(2.57597 -0.329782 0)
(2.57879 -0.330524 0)
(2.58166 -0.331645 0)
(2.58511 -0.331104 0)
(2.58943 -0.322667 0)
(2.58963 -0.302628 0)
(2.58374 -0.267663 0)
(2.57089 -0.218504 0)
(2.54682 -0.152259 0)
(2.53801 -0.125612 0)
(2.48846 -0.0809683 0)
(2.45392 -0.0514734 0)
(2.43814 -0.0444782 0)
(2.42987 -0.0164631 0)
(2.43349 0.0061413 0)
(2.4414 0.0165433 0)
(2.44824 0.0207512 0)
(2.44538 0.0217285 0)
(2.44404 0.0238941 0)
(2.44387 0.0277778 0)
(2.44127 0.0344647 0)
(2.42742 0.0350412 0)
(2.40975 0.0280409 0)
(2.40404 0.0246233 0)
(2.4007 0.0213609 0)
(2.4068 0.0253565 0)
(2.42642 0.0392143 0)
(2.44293 0.0518796 0)
(2.44485 0.0541115 0)
(2.44352 0.0538422 0)
(2.43748 0.0508966 0)
(2.42304 0.0444167 0)
(2.40512 0.0378555 0)
(2.39908 0.0391535 0)
(2.39917 0.0421733 0)
(2.39965 0.0436385 0)
(2.40287 0.0458989 0)
(2.41439 0.0516404 0)
(2.42934 0.0585685 0)
(2.43389 0.0602106 0)
(2.43402 0.0600069 0)
(2.42843 0.0568696 0)
(2.28934 0.122764 0)
(1.07665 0.177433 0)
(0.880491 0.129874 0)
(0.896198 0.111048 0)
(0.914991 0.0846026 0)
(0.933909 0.0572778 0)
(0.948933 0.0336294 0)
(0.95414 0.0151939 0)
(0.953795 0.000596954 0)
(0.952896 -0.0117715 0)
(0.956949 -0.0215375 0)
(0.965393 -0.0315567 0)
(0.979762 -0.0428369 0)
(0.999432 -0.0538202 0)
(1.01584 -0.0655838 0)
(1.02307 -0.0774713 0)
(1.02647 -0.0888693 0)
(1.03163 -0.0939305 0)
(1.03782 -0.0945805 0)
(1.04624 -0.0931969 0)
(1.05709 -0.0898955 0)
(1.06828 -0.0867109 0)
(1.07625 -0.0874531 0)
(1.08092 -0.0924208 0)
(1.0842 -0.102758 0)
(1.08865 -0.114048 0)
(1.09626 -0.119841 0)
(1.10517 -0.120472 0)
(1.11428 -0.116495 0)
(1.12243 -0.110398 0)
(1.13001 -0.105175 0)
(2.14994 0.303693 0)
(2.16831 0.285313 0)
(2.18365 0.271045 0)
(2.19783 0.2678 0)
(2.21252 0.257672 0)
(2.22802 0.235495 0)
(2.23849 0.223103 0)
(2.2483 0.218261 0)
(2.264 0.198383 0)
(2.27493 0.171015 0)
(2.27998 0.15412 0)
(2.27797 0.13702 0)
(2.28649 0.120454 0)
(2.30186 0.110379 0)
(2.31609 0.10673 0)
(2.33289 0.0988652 0)
(2.34888 0.0854337 0)
(2.36215 0.0751084 0)
(2.37586 0.06875 0)
(2.38637 0.055409 0)
(2.38904 0.0335504 0)
(2.37995 0.0111304 0)
(2.37239 -0.00926918 0)
(2.38356 -0.0157575 0)
(2.39546 -0.0191451 0)
(2.40765 -0.0258248 0)
(2.42089 -0.0338075 0)
(2.43554 -0.0423592 0)
(2.4499 -0.053039 0)
(2.46176 -0.0646858 0)
(2.47094 -0.0749471 0)
(2.47555 -0.0867625 0)
(2.46947 -0.102708 0)
(2.45397 -0.121822 0)
(2.45579 -0.134381 0)
(2.46689 -0.137307 0)
(2.47746 -0.139891 0)
(2.48954 -0.143822 0)
(2.50273 -0.151501 0)
(2.51335 -0.160254 0)
(2.52349 -0.167299 0)
(2.53222 -0.174983 0)
(2.53721 -0.185424 0)
(2.53351 -0.201093 0)
(2.52147 -0.219939 0)
(2.52259 -0.228701 0)
(2.53008 -0.230554 0)
(2.53932 -0.235481 0)
(2.54835 -0.240654 0)
(2.56018 -0.246073 0)
(2.57122 -0.251979 0)
(2.58015 -0.258501 0)
(2.58677 -0.266743 0)
(2.58875 -0.277311 0)
(2.58232 -0.291111 0)
(2.57059 -0.305656 0)
(2.57531 -0.314338 0)
(2.58354 -0.317423 0)
(2.59031 -0.318901 0)
(2.59652 -0.321341 0)
(2.60223 -0.324777 0)
(2.60905 -0.319294 0)
(2.61217 -0.314621 0)
(2.60919 -0.304276 0)
(2.59449 -0.277822 0)
(2.57602 -0.243487 0)
(2.54361 -0.204635 0)
(2.50287 -0.1452 0)
(2.48401 -0.121224 0)
(2.46118 -0.0662185 0)
(2.45872 -0.0137863 0)
(2.4694 0.0116365 0)
(2.47247 0.0176886 0)
(2.46138 0.016233 0)
(2.45545 0.0152716 0)
(2.45032 0.0174678 0)
(2.44473 0.0238969 0)
(2.4326 0.0315773 0)
(2.42194 0.0338303 0)
(2.41643 0.0316838 0)
(2.41319 0.0279418 0)
(2.42277 0.030851 0)
(2.44398 0.0423445 0)
(2.45396 0.0499679 0)
(2.45426 0.0513767 0)
(2.45226 0.0513874 0)
(2.44407 0.0475121 0)
(2.4265 0.0405429 0)
(2.41059 0.0370913 0)
(2.40828 0.039998 0)
(2.40885 0.0443012 0)
(2.41161 0.0498263 0)
(2.41889 0.0558421 0)
(2.43182 0.0591517 0)
(2.43864 0.0576172 0)
(2.43931 0.0566542 0)
(2.43923 0.0559279 0)
(2.4336 0.0526577 0)
(2.37204 0.0836856 0)
(1.12221 0.164457 0)
(0.878115 0.121602 0)
(0.89572 0.101389 0)
(0.918813 0.0770812 0)
(0.935748 0.0511152 0)
(0.950729 0.0294163 0)
(0.957065 0.0126209 0)
(0.958613 -0.00179251 0)
(0.960602 -0.0151639 0)
(0.966859 -0.0268571 0)
(0.977551 -0.0389897 0)
(0.995446 -0.0509557 0)
(1.01625 -0.0622704 0)
(1.02927 -0.0749092 0)
(1.03352 -0.087489 0)
(1.03773 -0.0975598 0)
(1.04454 -0.100505 0)
(1.05298 -0.10027 0)
(1.06427 -0.0969397 0)
(1.07682 -0.0923493 0)
(1.08664 -0.0906248 0)
(1.09149 -0.0928537 0)
(1.09408 -0.100056 0)
(1.09637 -0.110868 0)
(1.10252 -0.119123 0)
(1.11235 -0.123351 0)
(1.12522 -0.122902 0)
(1.13724 -0.118288 0)
(1.14482 -0.113575 0)
(1.15042 -0.110294 0)
(2.14862 0.321151 0)
(2.1685 0.305358 0)
(2.18306 0.295395 0)
(2.1973 0.292756 0)
(2.21308 0.280009 0)
(2.22634 0.253652 0)
(2.23423 0.237779 0)
(2.24154 0.232317 0)
(2.2548 0.212713 0)
(2.26497 0.185048 0)
(2.27072 0.170823 0)
(2.27372 0.157946 0)
(2.28808 0.14586 0)
(2.30313 0.133039 0)
(2.31793 0.129781 0)
(2.33318 0.122947 0)
(2.34812 0.108365 0)
(2.35895 0.0961205 0)
(2.3709 0.0892321 0)
(2.38003 0.0710993 0)
(2.37772 0.0455422 0)
(2.37023 0.0273215 0)
(2.37282 0.0158632 0)
(2.38654 0.0099748 0)
(2.39824 0.00453957 0)
(2.40975 -0.00212131 0)
(2.42174 -0.0106621 0)
(2.43422 -0.0203739 0)
(2.44746 -0.0324668 0)
(2.45821 -0.0453927 0)
(2.46602 -0.0572883 0)
(2.46796 -0.0711893 0)
(2.45944 -0.0872032 0)
(2.44987 -0.10189 0)
(2.45756 -0.110305 0)
(2.46891 -0.114211 0)
(2.48017 -0.118121 0)
(2.49238 -0.123486 0)
(2.50439 -0.131837 0)
(2.51412 -0.140518 0)
(2.52327 -0.147394 0)
(2.53056 -0.155658 0)
(2.53182 -0.169385 0)
(2.52221 -0.189153 0)
(2.51614 -0.203857 0)
(2.52376 -0.207117 0)
(2.53131 -0.209169 0)
(2.54109 -0.214526 0)
(2.54937 -0.219213 0)
(2.56012 -0.224086 0)
(2.57034 -0.229506 0)
(2.57833 -0.234527 0)
(2.58345 -0.241756 0)
(2.58141 -0.253044 0)
(2.56924 -0.268976 0)
(2.56622 -0.282357 0)
(2.57511 -0.287637 0)
(2.5828 -0.292495 0)
(2.59187 -0.297585 0)
(2.60063 -0.302332 0)
(2.60871 -0.306347 0)
(2.61337 -0.310515 0)
(2.61799 -0.312437 0)
(2.62036 -0.314262 0)
(2.61333 -0.317308 0)
(2.59907 -0.311569 0)
(2.58959 -0.300741 0)
(2.56837 -0.264317 0)
(2.54471 -0.217746 0)
(2.51031 -0.142848 0)
(2.49733 -0.0762124 0)
(2.51268 -0.0423112 0)
(2.51322 -0.00290016 0)
(2.48636 0.00390838 0)
(2.47093 0.00443838 0)
(2.45669 0.00660906 0)
(2.44324 0.00954678 0)
(2.43779 0.0195497 0)
(2.4352 0.0298109 0)
(2.43198 0.0315529 0)
(2.43055 0.0314681 0)
(2.44023 0.0336597 0)
(2.45439 0.0394444 0)
(2.45893 0.0438869 0)
(2.45941 0.0456953 0)
(2.45814 0.0476178 0)
(2.4506 0.0458512 0)
(2.43328 0.0409414 0)
(2.42056 0.0393911 0)
(2.41877 0.0409948 0)
(2.41922 0.0451764 0)
(2.42291 0.0522232 0)
(2.43241 0.0590511 0)
(2.44373 0.0606053 0)
(2.44565 0.0571238 0)
(2.44493 0.0549781 0)
(2.44408 0.0539539 0)
(2.44142 0.0501107 0)
(2.42271 0.0595487 0)
(1.18279 0.147347 0)
(0.878948 0.110878 0)
(0.894659 0.0918349 0)
(0.918542 0.0695642 0)
(0.934588 0.0455792 0)
(0.950932 0.0260637 0)
(0.957627 0.00977393 0)
(0.960629 -0.00585977 0)
(0.965206 -0.0207585 0)
(0.973775 -0.0343236 0)
(0.987855 -0.0473759 0)
(1.00919 -0.0586541 0)
(1.02955 -0.0703269 0)
(1.03857 -0.0822665 0)
(1.04159 -0.0948778 0)
(1.04719 -0.102459 0)
(1.05524 -0.104756 0)
(1.06672 -0.10445 0)
(1.0808 -0.10131 0)
(1.09383 -0.0978303 0)
(1.10076 -0.0979102 0)
(1.1042 -0.101162 0)
(1.1057 -0.108671 0)
(1.10887 -0.117228 0)
(1.11672 -0.123066 0)
(1.1297 -0.126988 0)
(1.1483 -0.126808 0)
(1.16315 -0.123616 0)
(1.17118 -0.120897 0)
(1.17644 -0.118519 0)
(2.14776 0.342152 0)
(2.16763 0.331146 0)
(2.18413 0.31963 0)
(2.1989 0.313141 0)
(2.21259 0.295801 0)
(2.22061 0.267017 0)
(2.2247 0.252175 0)
(2.23203 0.243447 0)
(2.24691 0.22117 0)
(2.25787 0.195553 0)
(2.26614 0.185846 0)
(2.27361 0.178509 0)
(2.29015 0.168814 0)
(2.30502 0.154163 0)
(2.31921 0.149459 0)
(2.33259 0.144161 0)
(2.34594 0.128737 0)
(2.35534 0.112821 0)
(2.36409 0.104756 0)
(2.37042 0.0838925 0)
(2.36767 0.0550478 0)
(2.36634 0.0437893 0)
(2.37653 0.0369982 0)
(2.39056 0.0304771 0)
(2.40144 0.0246079 0)
(2.4119 0.017357 0)
(2.42236 0.00815009 0)
(2.43228 -0.000949882 0)
(2.44346 -0.012654 0)
(2.45307 -0.026788 0)
(2.45941 -0.0408484 0)
(2.45932 -0.0575273 0)
(2.45125 -0.0728967 0)
(2.44827 -0.0837128 0)
(2.46011 -0.0888065 0)
(2.4709 -0.0923929 0)
(2.48185 -0.097013 0)
(2.4938 -0.102823 0)
(2.50474 -0.111493 0)
(2.51375 -0.120918 0)
(2.52124 -0.12782 0)
(2.52579 -0.137492 0)
(2.52117 -0.153809 0)
(2.51025 -0.174364 0)
(2.51435 -0.182915 0)
(2.52355 -0.184023 0)
(2.53189 -0.186319 0)
(2.54178 -0.19171 0)
(2.54956 -0.196582 0)
(2.55933 -0.201374 0)
(2.56895 -0.207307 0)
(2.5763 -0.213795 0)
(2.57922 -0.225016 0)
(2.57299 -0.240388 0)
(2.56151 -0.255799 0)
(2.56588 -0.263746 0)
(2.57549 -0.265809 0)
(2.5841 -0.269931 0)
(2.59194 -0.275877 0)
(2.60154 -0.282002 0)
(2.60982 -0.289298 0)
(2.61589 -0.295724 0)
(2.62153 -0.301295 0)
(2.62272 -0.307665 0)
(2.61353 -0.318224 0)
(2.6043 -0.321962 0)
(2.60383 -0.319776 0)
(2.60262 -0.314785 0)
(2.5981 -0.298057 0)
(2.58416 -0.25879 0)
(2.56361 -0.193313 0)
(2.55953 -0.137394 0)
(2.53608 -0.0464875 0)
(2.52368 -0.0266873 0)
(2.50035 -0.0198493 0)
(2.47624 -0.017774 0)
(2.45715 -0.0138828 0)
(2.44778 -0.00314787 0)
(2.44453 0.0189098 0)
(2.44835 0.0332272 0)
(2.45303 0.0379768 0)
(2.46085 0.0361371 0)
(2.46404 0.0348681 0)
(2.4646 0.0361191 0)
(2.46523 0.0381123 0)
(2.46466 0.042801 0)
(2.4581 0.0457936 0)
(2.44231 0.0438604 0)
(2.43119 0.0417954 0)
(2.42986 0.0418439 0)
(2.42986 0.044243 0)
(2.43379 0.0502728 0)
(2.44378 0.0578273 0)
(2.45293 0.0616212 0)
(2.45284 0.0599586 0)
(2.45142 0.0570301 0)
(2.4495 0.054415 0)
(2.44649 0.0549546 0)
(2.43712 0.054479 0)
(1.2473 0.130644 0)
(0.880152 0.0972145 0)
(0.890924 0.0799799 0)
(0.916828 0.0606136 0)
(0.93384 0.03941 0)
(0.950805 0.0216927 0)
(0.9572 0.0051211 0)
(0.961211 -0.0123149 0)
(0.968005 -0.0286105 0)
(0.979138 -0.043218 0)
(0.997436 -0.0557218 0)
(1.02092 -0.0659818 0)
(1.03829 -0.0778499 0)
(1.04439 -0.0889176 0)
(1.04793 -0.100033 0)
(1.05512 -0.105141 0)
(1.06521 -0.107315 0)
(1.07946 -0.107671 0)
(1.096 -0.106654 0)
(1.10925 -0.106458 0)
(1.11551 -0.10766 0)
(1.11942 -0.11096 0)
(1.12228 -0.116823 0)
(1.1277 -0.121576 0)
(1.13748 -0.125399 0)
(1.1538 -0.129108 0)
(1.17593 -0.131988 0)
(1.19369 -0.134148 0)
(1.20461 -0.134812 0)
(1.21217 -0.134558 0)
(2.14935 0.364906 0)
(2.17023 0.352983 0)
(2.18588 0.341449 0)
(2.19682 0.333809 0)
(2.20383 0.312621 0)
(2.20866 0.279315 0)
(2.21459 0.261254 0)
(2.22437 0.251389 0)
(2.23987 0.23223 0)
(2.25209 0.212505 0)
(2.26267 0.206754 0)
(2.27495 0.200749 0)
(2.29335 0.189754 0)
(2.30681 0.174599 0)
(2.3186 0.170766 0)
(2.32878 0.167439 0)
(2.33999 0.150428 0)
(2.34723 0.132858 0)
(2.35297 0.120414 0)
(2.35648 0.0976833 0)
(2.35961 0.0713368 0)
(2.3665 0.0637701 0)
(2.37829 0.0603694 0)
(2.39214 0.0535272 0)
(2.40243 0.0468437 0)
(2.41121 0.040141 0)
(2.42064 0.0295727 0)
(2.42934 0.0185446 0)
(2.43838 0.00679599 0)
(2.44758 -0.0096625 0)
(2.45188 -0.0260222 0)
(2.4495 -0.0421022 0)
(2.44531 -0.0553195 0)
(2.44873 -0.0624321 0)
(2.46105 -0.0663473 0)
(2.47218 -0.0707208 0)
(2.48225 -0.0751303 0)
(2.49371 -0.0818658 0)
(2.5041 -0.0913315 0)
(2.51213 -0.101082 0)
(2.51809 -0.111943 0)
(2.51651 -0.123214 0)
(2.50848 -0.143706 0)
(2.50609 -0.156375 0)
(2.51331 -0.161584 0)
(2.52384 -0.16336 0)
(2.53336 -0.166198 0)
(2.54288 -0.171926 0)
(2.55018 -0.175873 0)
(2.55904 -0.1801 0)
(2.56763 -0.186357 0)
(2.5726 -0.194245 0)
(2.56908 -0.206233 0)
(2.55996 -0.224663 0)
(2.55719 -0.236941 0)
(2.56603 -0.243058 0)
(2.57578 -0.244879 0)
(2.58504 -0.248849 0)
(2.59301 -0.25439 0)
(2.60088 -0.25845 0)
(2.60851 -0.2642 0)
(2.61419 -0.270263 0)
(2.61809 -0.276751 0)
(2.61439 -0.288048 0)
(2.60507 -0.30463 0)
(2.60604 -0.311856 0)
(2.60811 -0.314261 0)
(2.61257 -0.317323 0)
(2.61764 -0.314354 0)
(2.62018 -0.306688 0)
(2.61861 -0.287817 0)
(2.61106 -0.256239 0)
(2.5915 -0.201937 0)
(2.57547 -0.152295 0)
(2.54575 -0.103006 0)
(2.4993 -0.0400977 0)
(2.47458 -0.0361122 0)
(2.4643 -0.0240644 0)
(2.45843 0.00484765 0)
(2.46362 0.0251961 0)
(2.47143 0.0370244 0)
(2.4787 0.0369305 0)
(2.47507 0.0337609 0)
(2.47148 0.0322105 0)
(2.47112 0.0329668 0)
(2.47054 0.0375553 0)
(2.46598 0.0431066 0)
(2.453 0.0445693 0)
(2.44292 0.0417592 0)
(2.44079 0.0404983 0)
(2.43991 0.0406964 0)
(2.44369 0.0450782 0)
(2.45423 0.0534464 0)
(2.46164 0.0589881 0)
(2.46125 0.0593067 0)
(2.45972 0.0581881 0)
(2.45664 0.0552884 0)
(2.45199 0.0554259 0)
(2.4448 0.0541242 0)
(1.30503 0.112053 0)
(0.881619 0.0827329 0)
(0.888799 0.0678579 0)
(0.916643 0.0513227 0)
(0.934058 0.0325972 0)
(0.949909 0.0155869 0)
(0.955834 -0.00177945 0)
(0.961163 -0.0205624 0)
(0.970087 -0.0377318 0)
(0.98447 -0.0524078 0)
(1.00712 -0.0632149 0)
(1.03163 -0.0722318 0)
(1.0453 -0.0824055 0)
(1.05021 -0.0931823 0)
(1.05508 -0.102722 0)
(1.06385 -0.106884 0)
(1.07653 -0.109953 0)
(1.09357 -0.111853 0)
(1.11259 -0.113073 0)
(1.12783 -0.115362 0)
(1.1366 -0.118685 0)
(1.14244 -0.122857 0)
(1.14916 -0.128054 0)
(1.15835 -0.132271 0)
(1.17233 -0.135481 0)
(1.1928 -0.137814 0)
(1.2164 -0.140868 0)
(1.23672 -0.145191 0)
(1.25186 -0.148763 0)
(1.26418 -0.150637 0)
(2.15387 0.385739 0)
(2.17333 0.37272 0)
(2.18537 0.362072 0)
(2.19045 0.350031 0)
(2.19343 0.317087 0)
(2.19749 0.284278 0)
(2.20595 0.271826 0)
(2.21811 0.262707 0)
(2.23536 0.246534 0)
(2.2505 0.230908 0)
(2.26331 0.226122 0)
(2.27849 0.221019 0)
(2.29635 0.210293 0)
(2.30872 0.196742 0)
(2.31765 0.192782 0)
(2.32522 0.186883 0)
(2.33435 0.16536 0)
(2.33937 0.144971 0)
(2.34221 0.130083 0)
(2.34651 0.108682 0)
(2.35763 0.0904452 0)
(2.36823 0.0832017 0)
(2.38054 0.0794802 0)
(2.39314 0.0741138 0)
(2.40367 0.06581 0)
(2.41183 0.0570378 0)
(2.41861 0.0475679 0)
(2.42607 0.035306 0)
(2.43336 0.0227926 0)
(2.44022 0.00833721 0)
(2.4437 -0.0105057 0)
(2.44209 -0.0283651 0)
(2.44401 -0.0394876 0)
(2.45193 -0.0436348 0)
(2.46239 -0.046863 0)
(2.47323 -0.0514147 0)
(2.48278 -0.0555208 0)
(2.49249 -0.0614667 0)
(2.5017 -0.0710136 0)
(2.50816 -0.0823288 0)
(2.51037 -0.0952909 0)
(2.50332 -0.113633 0)
(2.49831 -0.129015 0)
(2.50595 -0.134489 0)
(2.51329 -0.138116 0)
(2.52413 -0.142563 0)
(2.53499 -0.146293 0)
(2.54392 -0.152115 0)
(2.55095 -0.155826 0)
(2.55879 -0.159539 0)
(2.56538 -0.165605 0)
(2.56602 -0.177383 0)
(2.55554 -0.195828 0)
(2.55128 -0.210787 0)
(2.55762 -0.217562 0)
(2.56567 -0.222078 0)
(2.57647 -0.224796 0)
(2.58619 -0.228812 0)
(2.59444 -0.235094 0)
(2.60159 -0.238453 0)
(2.60931 -0.243935 0)
(2.61463 -0.251783 0)
(2.61549 -0.263455 0)
(2.60743 -0.281131 0)
(2.6018 -0.294437 0)
(2.60707 -0.298182 0)
(2.61291 -0.300597 0)
(2.61905 -0.300808 0)
(2.62425 -0.303955 0)
(2.62991 -0.306874 0)
(2.6365 -0.304242 0)
(2.63701 -0.301159 0)
(2.63179 -0.291438 0)
(2.61778 -0.265254 0)
(2.59667 -0.232694 0)
(2.56052 -0.178379 0)
(2.53595 -0.133916 0)
(2.49659 -0.059357 0)
(2.47873 -0.0128081 0)
(2.4834 -0.00385719 0)
(2.4923 0.0267326 0)
(2.49868 0.0382202 0)
(2.48931 0.0362325 0)
(2.48238 0.0338367 0)
(2.47749 0.0306855 0)
(2.47497 0.0328127 0)
(2.47156 0.0392769 0)
(2.46408 0.0444673 0)
(2.45615 0.043066 0)
(2.45235 0.0407375 0)
(2.45008 0.0385992 0)
(2.45397 0.0415819 0)
(2.46463 0.0499085 0)
(2.47043 0.0560327 0)
(2.47026 0.0571657 0)
(2.46844 0.0569976 0)
(2.46395 0.0537105 0)
(2.45631 0.0521497 0)
(2.44996 0.0512337 0)
(1.34833 0.0942436 0)
(0.881502 0.0700208 0)
(0.88727 0.0571422 0)
(0.916437 0.0423208 0)
(0.933038 0.0248548 0)
(0.946675 0.00803827 0)
(0.952277 -0.0103828 0)
(0.960106 -0.0298029 0)
(0.972388 -0.0470492 0)
(0.991538 -0.0615071 0)
(1.0181 -0.0725582 0)
(1.0416 -0.082468 0)
(1.05183 -0.0906711 0)
(1.05726 -0.101274 0)
(1.06581 -0.107563 0)
(1.07749 -0.110657 0)
(1.09444 -0.113808 0)
(1.11587 -0.116257 0)
(1.13884 -0.118774 0)
(1.15795 -0.122945 0)
(1.17135 -0.128552 0)
(1.18225 -0.134434 0)
(1.19428 -0.140001 0)
(1.20935 -0.14526 0)
(1.22928 -0.149719 0)
(1.25358 -0.153463 0)
(1.27867 -0.157175 0)
(1.30058 -0.160989 0)
(1.31842 -0.164676 0)
(1.33421 -0.16719 0)
(2.159 0.404541 0)
(2.17527 0.390624 0)
(2.18213 0.37777 0)
(2.17939 0.356284 0)
(2.17958 0.318119 0)
(2.18869 0.293443 0)
(2.20031 0.285593 0)
(2.21517 0.276018 0)
(2.23515 0.262492 0)
(2.25099 0.252187 0)
(2.26491 0.248513 0)
(2.28183 0.242651 0)
(2.29895 0.231702 0)
(2.3107 0.21896 0)
(2.31613 0.213501 0)
(2.31815 0.204425 0)
(2.3237 0.178926 0)
(2.32758 0.157095 0)
(2.33174 0.14047 0)
(2.34335 0.122958 0)
(2.35688 0.112975 0)
(2.36825 0.107401 0)
(2.3816 0.101431 0)
(2.39441 0.0936072 0)
(2.4033 0.0858524 0)
(2.4091 0.077949 0)
(2.41394 0.0684179 0)
(2.41945 0.0560868 0)
(2.4269 0.0392871 0)
(2.43252 0.0220928 0)
(2.43502 0.00405807 0)
(2.43624 -0.0095978 0)
(2.443 -0.0170999 0)
(2.45369 -0.0219957 0)
(2.46344 -0.0257553 0)
(2.47353 -0.0308728 0)
(2.48229 -0.0360707 0)
(2.49067 -0.0418844 0)
(2.4977 -0.0507191 0)
(2.50048 -0.0643037 0)
(2.49596 -0.0826682 0)
(2.49033 -0.101843 0)
(2.4968 -0.108003 0)
(2.50513 -0.110609 0)
(2.51425 -0.116692 0)
(2.5245 -0.122097 0)
(2.53642 -0.12696 0)
(2.54522 -0.133182 0)
(2.55208 -0.136976 0)
(2.55891 -0.140685 0)
(2.56214 -0.149065 0)
(2.55466 -0.166022 0)
(2.54465 -0.186569 0)
(2.5499 -0.193195 0)
(2.55757 -0.196769 0)
(2.56561 -0.202669 0)
(2.57709 -0.205429 0)
(2.58725 -0.208778 0)
(2.59533 -0.214609 0)
(2.6016 -0.217733 0)
(2.60826 -0.221052 0)
(2.61143 -0.227598 0)
(2.60566 -0.24008 0)
(2.59557 -0.260118 0)
(2.60021 -0.270622 0)
(2.60689 -0.27306 0)
(2.61255 -0.27942 0)
(2.62034 -0.286362 0)
(2.62913 -0.292559 0)
(2.6355 -0.295203 0)
(2.6411 -0.297148 0)
(2.64454 -0.300425 0)
(2.64445 -0.30305 0)
(2.63526 -0.304037 0)
(2.62402 -0.295119 0)
(2.61239 -0.279584 0)
(2.59392 -0.242169 0)
(2.56492 -0.182809 0)
(2.53768 -0.11222 0)
(2.53488 -0.0753871 0)
(2.51462 -0.000871758 0)
(2.51174 0.0341172 0)
(2.50784 0.0348972 0)
(2.49774 0.0351426 0)
(2.48749 0.0323231 0)
(2.47968 0.0293327 0)
(2.47515 0.0324464 0)
(2.47158 0.0429987 0)
(2.46752 0.046249 0)
(2.46295 0.0440981 0)
(2.46103 0.0418178 0)
(2.46689 0.0451963 0)
(2.47671 0.0529381 0)
(2.4798 0.0570598 0)
(2.47925 0.0581092 0)
(2.47647 0.0580371 0)
(2.4703 0.0546977 0)
(2.46055 0.0510763 0)
(2.45579 0.0504036 0)
(1.3754 0.0817323 0)
(0.878522 0.0608332 0)
(0.881943 0.0484655 0)
(0.912901 0.0336205 0)
(0.927238 0.0162902 0)
(0.940018 -0.000601492 0)
(0.947698 -0.0199462 0)
(0.960282 -0.0392785 0)
(0.97845 -0.0562891 0)
(1.00479 -0.0709473 0)
(1.03667 -0.0831994 0)
(1.06097 -0.0940496 0)
(1.07195 -0.101318 0)
(1.07976 -0.110493 0)
(1.09116 -0.115042 0)
(1.10677 -0.118806 0)
(1.1291 -0.122418 0)
(1.15643 -0.125615 0)
(1.18525 -0.129158 0)
(1.2102 -0.13391 0)
(1.22947 -0.13992 0)
(1.24568 -0.146785 0)
(1.26258 -0.154006 0)
(1.28267 -0.161362 0)
(1.3068 -0.16843 0)
(1.33356 -0.174811 0)
(1.35969 -0.180017 0)
(1.38256 -0.183013 0)
(1.4015 -0.184118 0)
(1.41812 -0.184207 0)
(2.16327 0.421365 0)
(2.17534 0.406282 0)
(2.17454 0.385743 0)
(2.16469 0.35314 0)
(2.17098 0.320671 0)
(2.18511 0.307645 0)
(2.19844 0.301427 0)
(2.21641 0.291764 0)
(2.2371 0.28112 0)
(2.25291 0.273661 0)
(2.2679 0.270462 0)
(2.28572 0.26363 0)
(2.30151 0.252141 0)
(2.31031 0.24158 0)
(2.31046 0.232825 0)
(2.30711 0.215195 0)
(2.31246 0.183783 0)
(2.31955 0.163636 0)
(2.32764 0.152076 0)
(2.34233 0.142874 0)
(2.35748 0.135117 0)
(2.37105 0.126616 0)
(2.38379 0.120071 0)
(2.39461 0.114921 0)
(2.40216 0.107529 0)
(2.40721 0.0957899 0)
(2.41061 0.0825277 0)
(2.41441 0.0687028 0)
(2.41928 0.0526789 0)
(2.42307 0.0356911 0)
(2.42662 0.0196177 0)
(2.43407 0.0086079 0)
(2.44373 0.00336902 0)
(2.45423 -0.000992016 0)
(2.46438 -0.0062878 0)
(2.47367 -0.0114787 0)
(2.48184 -0.0170481 0)
(2.48861 -0.0229249 0)
(2.49232 -0.0324501 0)
(2.48876 -0.0505359 0)
(2.48096 -0.0745687 0)
(2.48703 -0.0845261 0)
(2.49586 -0.0857639 0)
(2.50594 -0.0894777 0)