/*--------------------------------*- C++ -*----------------------------------*\
  =========                 |
  \\      /  F ield         | OpenFOAM: The Open Source CFD Toolbox
   \\    /   O peration     | Website:  https://openfoam.org
    \\  /    A nd           | Version:  7
     \\/     M anipulation  |
\*---------------------------------------------------------------------------*/
FoamFile
{
    version     2.0;
    format      ascii;
    class       volScalarField;
    location    "2";
    object      rho;
}
// * * * * * * * * * * * * * * * * * * * * * * * * * * * * * * * * * * * * * //

dimensions      [1 -3 0 0 0 0 0];

internalField   nonuniform List<scalar> 
4128
(
2.53749
2.47813
2.42061
2.36008
2.28731
2.22896
2.19242
2.14378
2.0939
2.03327
1.98307
1.94944
1.90192
1.853
1.79839
1.75615
1.73953
1.71188
1.67806
1.6391
1.59909
1.57719
1.54923
1.51751
1.48643
1.45375
1.43915
1.42423
1.40132
1.37949
1.35737
1.34205
1.32549
1.29778
1.26069
1.23173
1.2251
1.21979
1.20969
1.19723
1.18819
1.20318
1.2792
1.48362
1.79133
1.93163
1.9802
1.98137
1.9679
1.94431
1.91282
1.87393
1.83717
1.82051
1.82222
1.84001
1.90428
2.00742
2.11078
2.18841
2.20335
2.19554
2.17665
2.14698
2.13213
2.12601
2.12811
2.14348
2.17317
2.21275
2.26023
2.29463
2.29818
2.28204
2.25161
2.23128
2.21654
2.21305
2.22112
2.25391
2.29328
2.30238
2.29355
2.27358
2.24101
2.19469
2.14793
2.1218
2.11154
2.10828
2.11333
2.12281
2.12804
2.12153
2.11255
2.0989
2.06674
2.02479
2.00701
2.00022
1.98976
1.97177
1.95888
1.95112
1.94407
1.94094
1.93789
1.93204
1.92994
1.92418
1.9073
1.87263
1.83497
1.81478
1.80478
1.79739
1.79204
1.78898
1.78597
1.7807
1.77497
1.76845
1.75039
1.71982
1.70257
1.69394
1.68605
1.67712
1.66462
2.61452
2.55332
2.49427
2.43017
2.35227
2.30175
2.26366
2.21356
2.16172
2.0957
2.04704
2.00937
1.9589
1.91109
1.85559
1.82186
1.80313
1.76968
1.73274
1.68793
1.64715
1.62559
1.59677
1.56607
1.53336
1.50232
1.48915
1.47155
1.44599
1.42272
1.39926
1.38159
1.36009
1.32922
1.29535
1.27438
1.26953
1.26211
1.25093
1.24292
1.26819
1.39237
1.67396
1.91037
2.00945
2.04626
2.05805
2.04497
2.01924
1.99751
1.97295
1.93447
1.90404
1.90531
1.92064
1.96544
2.05648
2.14453
2.20689
2.23742
2.22858
2.20738
2.18072
2.14924
2.12021
2.11139
2.10278
2.10022
2.10908
2.12819
2.14765
2.15961
2.15876
2.15387
2.14376
2.13593
2.14556
2.16276
2.18483
2.20881
2.23245
2.24826
2.2507
2.24755
2.23432
2.20647
2.1717
2.13873
2.1257
2.12126
2.11801
2.11208
2.1079
2.10508
2.09727
2.0898
2.08038
2.06182
2.0398
2.01893
1.99819
1.97303
1.94866
1.9373
1.93089
1.92644
1.9307
1.9424
1.94354
1.93673
1.92432
1.89738
1.84899
1.81374
1.80149
1.79361
1.78692
1.78462
1.78792
1.78424
1.77775
1.76974
1.75354
1.72356
1.70017
1.69074
1.68206
1.67659
1.66915
2.6919
2.62966
2.56967
2.50057
2.42179
2.37635
2.33458
2.28256
2.22672
2.15698
2.11033
2.06976
2.02001
1.9728
1.91753
1.88948
1.86664
1.82787
1.78734
1.73595
1.69749
1.67686
1.64726
1.6169
1.58197
1.55314
1.54023
1.51926
1.49163
1.46702
1.44134
1.41964
1.39342
1.36401
1.33595
1.32007
1.314
1.30605
1.30541
1.35104
1.52627
1.85181
2.07935
2.16035
2.16285
2.1441
2.12132
2.10213
2.0801
2.04773
2.00678
1.97541
1.97397
1.99518
2.04711
2.14404
2.23572
2.28751
2.30196
2.28808
2.26332
2.23452
2.20382
2.17262
2.14055
2.11592
2.10614
2.10161
2.10127
2.10446
2.1105
2.1116
2.10879
2.10008
2.08041
2.0551
2.04457
2.05513
2.08413
2.11084
2.1282
2.14
2.15135
2.16749
2.17907
2.17516
2.1619
2.14727
2.13944
2.13556
2.12572
2.11039
2.09647
2.08986
2.0874
2.0872
2.09002
2.08249
2.0671
2.04206
2.0092
1.97473
1.94482
1.92965
1.92363
1.91925
1.92136
1.94263
1.9493
1.94068
1.92756
1.90649
1.86322
1.81716
1.80108
1.79463
1.7892
1.78684
1.79092
1.7891
1.78246
1.77375
1.75537
1.71875
1.69412
1.68741
1.68136
1.67853
1.67181
2.76955
2.70589
2.64401
2.57062
2.49563
2.45189
2.40469
2.35004
2.28878
2.21714
2.17409
2.13227
2.08428
2.03622
1.9823
1.95648
1.92887
1.88649
1.8416
1.78464
1.7518
1.73118
1.70001
1.66907
1.631
1.60461
1.59144
1.56743
1.53832
1.51238
1.48316
1.45623
1.4289
1.40451
1.38037
1.36759
1.36012
1.37516
1.4603
1.6991
2.00768
2.26336
2.27864
2.25071
2.2185
2.18841
2.15765
2.13482
2.11659
2.08876
2.05318
2.04438
2.05934
2.11768
2.21517
2.33087
2.38753
2.39361
2.37409
2.3426
2.30703
2.27093
2.24122
2.22198
2.20441
2.17734
2.14791
2.12881
2.11245
2.10232
2.09758
2.09253
2.08631
2.07858
2.07175
2.06206
2.03648
2.00523
1.9988
1.99914
1.99896
2.00509
2.01631
2.03163
2.05565
2.089
2.11708
2.11984
2.11981
2.1203
2.10738
2.08465
2.0665
2.06075
2.06378
2.08709
2.09743
2.08893
2.07951
2.06066
2.02332
1.98
1.94642
1.92887
1.92222
1.91854
1.92179
1.94177
1.94802
1.93996
1.92767
1.90759
1.87009
1.82832
1.80677
1.79985
1.7956
1.79402
1.79914
1.79555
1.78847
1.77882
1.75865
1.72119
1.69433
1.68596
1.68026
1.67839
1.67054
2.8429
2.77917
2.71623
2.64028
2.57189
2.52676
2.47291
2.41571
2.34893
2.27916
2.24085
2.19791
2.15061
2.10094
2.04815
2.02197
1.99013
1.94562
1.89572
1.83695
1.81022
1.78763
1.75462
1.72241
1.68092
1.65726
1.64339
1.61685
1.58618
1.55744
1.52329
1.49366
1.47021
1.45002
1.42905
1.42261
1.44655
1.59132
1.90803
2.23598
2.33351
2.34804
2.32305
2.30011
2.27342
2.25275
2.23344
2.20908
2.17724
2.14311
2.13538
2.15246
2.21023
2.30229
2.39815
2.4886
2.48982
2.46618
2.43106
2.39282
2.35336
2.31841
2.2961
2.28084
2.26604
2.24575
2.21486
2.17921
2.14891
2.12833
2.11477
2.10221
2.08985
2.07891
2.07049
2.06188
2.04781
2.02683
2.0047
1.97899
1.95549
1.94301
1.94041
1.94142
1.94835
1.96481
1.9923
2.01849
2.02872
2.02135
2.00864
2.00775
2.00541
2.00501
2.0135
2.03329
2.06362
2.07826
2.07551
2.06111
2.02686
1.98226
1.94792
1.93637
1.93171
1.92929
1.93162
1.93719
1.93256
1.92115
1.90559
1.88253
1.85685
1.83634
1.82125
1.81258
1.80883
1.80338
1.79385
1.78118
1.76952
1.75916
1.74233
1.71616
1.69758
1.68982
1.68421
1.68238
1.67354
2.91364
2.85091
2.78779
2.71125
2.65099
2.60023
2.53971
2.48084
2.40687
2.34532
2.31181
2.26593
2.21808
2.16694
2.11409
2.08609
2.05053
2.00391
1.94983
1.89402
1.8706
1.84472
1.81069
1.77554
1.731
1.71148
1.69631
1.66697
1.63378
1.60169
1.56209
1.53401
1.51727
1.49788
1.49951
1.55548
1.7452
2.13528
2.40026
2.48704
2.46888
2.43443
2.39412
2.37203
2.36337
2.34688
2.31522
2.26813
2.2224
2.20988
2.22788
2.28882
2.39602
2.48703
2.57359
2.58643
2.56269
2.52359
2.47957
2.43794
2.40232
2.37531
2.35586
2.33952
2.32197
2.30039
2.27347
2.24229
2.2106
2.18172
2.15786
2.13748
2.1188
2.1022
2.08635
2.07247
2.06057
2.04698
2.02914
2.00174
1.96456
1.94043
1.92805
1.91933
1.91424
1.91302
1.91709
1.92093
1.91833
1.91168
1.90383
1.89834
1.90371
1.91987
1.94086
1.96343
1.98959
2.01258
2.01976
2.01718
2.00253
1.9718
1.94817
1.94112
1.93921
1.94602
1.94737
1.93806
1.92632
1.91313
1.89395
1.86589
1.84071
1.83304
1.82922
1.82382
1.81506
1.8042
1.79261
1.78007
1.76159
1.74136
1.72714
1.71338
1.70111
1.69498
1.69104
1.69165
1.6818
2.98719
2.92584
2.85976
2.78455
2.72789
2.66913
2.60767
2.54668
2.46592
2.41986
2.38584
2.33374
2.28591
2.23199
2.17813
2.14887
2.10967
2.06081
2.00545
1.95497
1.93181
1.90223
1.86743
1.82728
1.78283
1.76756
1.74961
1.71717
1.68149
1.64503
1.60225
1.58071
1.56775
1.58504
1.69234
1.99635
2.33284
2.60405
2.64101
2.59829
2.52726
2.48908
2.46213
2.44273
2.4251
2.4048
2.37062
2.31946
2.29281
2.30469
2.36616
2.49052
2.58537
2.65818
2.67866
2.65777
2.62206
2.57793
2.52896
2.48483
2.45196
2.42827
2.40905
2.39082
2.3709
2.34914
2.32703
2.30442
2.27842
2.24549
2.20749
2.17494
2.1477
2.12264
2.10781
2.09596
2.08551
2.07571
2.06342
2.04399
2.01161
1.96845
1.93305
1.91561
1.90758
1.90322
1.89769
1.89058
1.88786
1.88692
1.87603
1.85081
1.83418
1.83177
1.83768
1.85205
1.86967
1.88795
1.90512
1.91998
1.92409
1.91926
1.91684
1.9166
1.92184
1.93265
1.93174
1.92113
1.90775
1.8956
1.8801
1.85931
1.84299
1.83402
1.82868
1.82394
1.81748
1.80874
1.7977
1.78082
1.75706
1.72988
1.71608
1.7124
1.70819
1.70028
1.68968
1.68451
1.67187
3.06692
3.00013
2.92708
2.8571
2.80003
2.7368
2.67859
2.6083
2.53261
2.50045
2.45811
2.40107
2.35498
2.29462
2.24144
2.21135
2.16696
2.11645
2.06304
2.01778
1.99322
1.96051
1.92411
1.87702
1.83771
1.82476
1.80253
1.76522
1.72931
1.68809
1.65016
1.6472
1.6867
1.87176
2.24398
2.62555
2.78098
2.7387
2.66258
2.59299
2.55003
2.53107
2.52517
2.51311
2.4886
2.4604
2.42753
2.40531
2.42102
2.47622
2.59577
2.68823
2.74418
2.76556
2.74715
2.71328
2.67262
2.62814
2.58196
2.53975
2.50395
2.47624
2.45295
2.43373
2.41624
2.39665
2.37647
2.3576
2.33853
2.31462
2.27803
2.22968
2.18614
2.15375
2.13628
2.12441
2.1135
2.10201
2.08938
2.07482
2.05442
2.02318
1.97988
1.94135
1.91891
1.90521
1.89478
1.88458
1.87669
1.87049
1.86527
1.85752
1.84018
1.81154
1.79256
1.7856
1.7838
1.78437
1.78872
1.79754
1.81943
1.83648
1.8369
1.83631
1.84832
1.8704
1.87663
1.87358
1.86909
1.86618
1.85946
1.85147
1.84856
1.84294
1.82738
1.8098
1.79993
1.79331
1.78582
1.77427
1.75384
1.72929
1.71681
1.71046
1.70195
1.69143
1.68154
1.67623
1.66337
3.14674
3.06888
2.98992
2.92651
2.86947
2.80938
2.75002
2.66601
2.61176
2.57979
2.52414
2.46929
2.42302
2.3529
2.30644
2.27394
2.22245
2.17276
2.12276
2.08156
2.05496
2.01929
1.97968
1.92685
1.89574
1.88164
1.85232
1.81126
1.77752
1.7364
1.74195
1.85316
2.12604
2.51699
2.86271
2.92074
2.88814
2.81837
2.7268
2.65462
2.62751
2.61655
2.60792
2.58464
2.55244
2.52033
2.50437
2.52572
2.58851
2.70313
2.81574
2.83449
2.84054
2.82394
2.79387
2.75793
2.72082
2.68294
2.6454
2.60518
2.56372
2.52728
2.49359
2.4708
2.45494
2.43774
2.41925
2.40202
2.38602
2.36772
2.33964
2.29261
2.23311
2.18704
2.16239
2.14818
2.13617
2.12486
2.11434
2.10431
2.09306
2.07773
2.04865
1.99907
1.94782
1.91909
1.90411
1.89264
1.88202
1.87275
1.86456
1.85755
1.84686
1.82258
1.79274
1.77558
1.76327
1.75341
1.74799
1.7448
1.74581
1.7458
1.74559
1.74509
1.74106
1.74618
1.76014
1.77125
1.78271
1.79261
1.8026
1.81833
1.83115
1.83162
1.81843
1.79929
1.78649
1.7768
1.76755
1.75809
1.74763
1.7364
1.72882
1.71897
1.70683
1.6929
1.67731
1.66486
1.6477
3.21876
3.14458
3.06236
2.99542
2.93788
2.8836
2.81404
2.73306
2.69637
2.6518
2.58718
2.53955
2.48511
2.40895
2.37387
2.33506
2.27775
2.23271
2.18502
2.14667
2.11701
2.07807
2.03383
1.97987
1.95436
1.9352
1.89689
1.86314
1.84163
1.87287
2.05862
2.47241
2.78521
3.0148
3.04128
3.00566
2.93483
2.86544
2.82257
2.77406
2.72919
2.69883
2.66939
2.63576
2.59493
2.58819
2.61548
2.69421
2.81308
2.93827
2.95892
2.92402
2.89035
2.86709
2.83546
2.80092
2.77162
2.74451
2.71603
2.68239
2.63578
2.57512
2.52501
2.50139
2.48558
2.47059
2.45723
2.4449
2.43074
2.41441
2.3933
2.35797
2.29443
2.22565
2.19124
2.17552
2.16298
2.1512
2.13995
2.12973
2.11857
2.10675
2.08953
2.05474
1.99891
1.95027
1.92573
1.91243
1.90153
1.891
1.88102
1.87112
1.85995
1.84134
1.80805
1.77666
1.75924
1.74834
1.74148
1.73717
1.73093
1.7228
1.7141
1.70074
1.67551
1.66015
1.66031
1.66488
1.67604
1.68978
1.70525
1.73167
1.76454
1.77477
1.77232
1.76308
1.75193
1.7403
1.73397
1.73172
1.7335
1.74099
1.74008
1.73151
1.71743
1.70118
1.68092
1.65859
1.63603
3.26981
3.22366
3.14969
3.0732
3.01245
2.95292
2.86813
2.81034
2.77373
2.71416
2.65276
2.60702
2.53525
2.47087
2.44328
2.39332
2.33582
2.29678
2.24939
2.2124
2.17858
2.13651
2.08567
2.03905
2.0084
1.98377
1.94676
1.96049
2.07522
2.35138
2.80661
3.07068
3.15973
3.19779
3.15642
3.08038
3.00178
2.94047
2.89651
2.85498
2.81082
2.76985
2.71982
2.67596
2.6702
2.70544
2.80813
2.94126
3.06312
3.09155
3.06358
2.98566
2.937
2.90584
2.87349
2.84642
2.825
2.80434
2.78346
2.75542
2.70615
2.62673
2.55651
2.53021
2.51489
2.50068
2.48974
2.48347
2.47704
2.4638
2.44421
2.41372
2.35409
2.26529
2.21336
2.19736
2.18719
2.17812
2.16706
2.15448
2.14132
2.12827
2.1145
2.09302
2.04757
1.99156
1.96041
1.94288
1.92744
1.91282
1.90025
1.88779
1.87271
1.85288
1.82429
1.79165
1.77245
1.76153
1.75153
1.74042
1.72882
1.7187
1.70817
1.69359
1.66758
1.63694
1.62648
1.62328
1.62263
1.62389
1.62838
1.63923
1.65779
1.66973
1.66994
1.66463
1.67032
1.67368
1.67486
1.67964
1.69431
1.71354
1.71762
1.71319
1.70061
1.68618
1.66906
1.64551
1.62573
3.25427
3.27713
3.23821
3.16341
3.09327
3.01486
2.92834
2.88647
2.83966
2.77213
2.7195
2.66458
2.58031
2.54135
2.51093
2.44913
2.40058
2.36427
2.31391
2.27756
2.23932
2.19272
2.13652
2.096
2.06488
2.05089
2.10344
2.35786
2.7666
3.11653
3.31812
3.27918
3.24865
3.23169
3.17876
3.10735
3.0591
3.01997
2.98187
2.93508
2.87788
2.81643
2.76849
2.76368
2.80526
2.91491
3.07315
3.20531
3.2267
3.20546
3.13196
3.0313
2.97261
2.93885
2.91059
2.88819
2.8739
2.86209
2.84714
2.82205
2.77311
2.68178
2.59465
2.56191
2.5453
2.53063
2.51997
2.51722
2.51227
2.49671
2.47843
2.45434
2.40962
2.33173
2.26114
2.22842
2.21064
2.19825
2.18789
2.17902
2.16793
2.1564
2.14331
2.12504
2.09243
2.03969
1.99081
1.96753
1.95216
1.93655
1.9217
1.91003
1.89837
1.88009
1.84439
1.79908
1.7803
1.77167
1.76248
1.75343
1.74544
1.73594
1.72286
1.70463
1.67362
1.63581
1.61831
1.61283
1.60789
1.60331
1.60035
1.59868
1.59569
1.59079
1.58275
1.56935
1.56726
1.57501
1.58691
1.59967
1.62258
1.6566
1.675
1.67576
1.66934
1.65507
1.64003
1.62336
1.61396
3.0763
3.28235
3.27766
3.23288
3.17312
3.08601
3.00145
2.95325
2.89461
2.83079
2.7804
2.70781
2.63712
2.61574
2.57265
2.50673
2.47142
2.4296
2.37906
2.34052
2.29638
2.24613
2.19522
2.15581
2.18076
2.34123
2.69184
3.20102
3.44154
3.53685
3.51784
3.42427
3.32092
3.2353
3.18719
3.15356
3.12868
3.10272
3.06899
3.02095
2.95147
2.87122
2.85333
2.89397
3.00479
3.16745
3.33125
3.36047
3.34205
3.2873
3.18453
3.06912
3.00663
2.9775
2.9532
2.93636
2.92876
2.92208
2.90388
2.87747
2.83149
2.74117
2.64196
2.59973
2.58078
2.56537
2.55374
2.54954
2.53656
2.51831
2.50003
2.47824
2.44514
2.39042
2.32377
2.27803
2.25213
2.23237
2.21462
2.19653
2.17738
2.15777
2.13867
2.12406
2.11255
2.09015
2.04041
1.99601
1.97825
1.96439
1.9481
1.92949
1.91182
1.89449
1.87052
1.83585
1.80746
1.79112
1.77604
1.76115
1.7496
1.73957
1.7302
1.71915
1.69639
1.65176
1.62028
1.61191
1.60532
1.59886
1.59386
1.58965
1.58432
1.57598
1.5608
1.53149
1.51042
1.51003
1.51311
1.52202
1.53808
1.56339
1.59188
1.60633
1.60809
1.59655
1.57776
1.57515
1.57892
2.68428
3.18314
3.26304
3.25473
3.23596
3.16413
3.07306
3.00995
2.94571
2.89267
2.8349
2.74918
2.71147
2.68869
2.62724
2.57204
2.54209
2.48687
2.44367
2.39845
2.35174
2.30121
2.29507
2.37224
2.7047
3.14109
3.5206
3.68443
3.67069
3.62901
3.5694
3.48475
3.38538
3.29673
3.25189
3.22742
3.20373
3.17913
3.14857
3.10341
3.02395
2.96935
3.00204
3.1148
3.25505
3.41261
3.47025
3.45307
3.41352
3.34104
3.23058
3.11209
3.05372
3.0268
3.00392
2.98794
2.98158
2.9708
2.9495
2.92304
2.88027
2.7994
2.69995
2.64642
2.62048
2.60251
2.58937
2.57435
2.55597
2.53785
2.51924
2.49865
2.47282
2.43666
2.38874
2.33212
2.28322
2.25279
2.234
2.21768
2.19761
2.17505
2.15471
2.13745
2.12283
2.1067
2.07372
2.0266
2.00078
1.98585
1.9713
1.95567
1.93813
1.91579
1.88171
1.84074
1.82068
1.81126
1.80146
1.7903
1.77659
1.76006
1.74286
1.72444
1.70081
1.66589
1.6321
1.61776
1.6091
1.60075
1.59363
1.58758
1.58126
1.57266
1.55721
1.52792
1.49583
1.48577
1.48456
1.48493
1.4881
1.49369
1.50112
1.51054
1.51888
1.51999
1.50799
1.49869
1.51276
2.38188
2.82743
3.17812
3.2421
3.25504
3.22029
3.14031
3.0672
3.00629
2.95578
2.87995
2.80914
2.79291
2.75307
2.68039
2.64193
2.60526
2.53964
2.49749
2.45887
2.42699
2.47958
2.71486
3.15418
3.61832
3.82877
3.93366
3.89894
3.79398
3.68149
3.59652
3.50616
3.42992
3.38724
3.34713
3.30779
3.27585
3.24713
3.21575
3.17894
3.1281
3.14266
3.2486
3.36834
3.49372
3.57042
3.55348
3.51605
3.46019
3.38296
3.28422
3.17397
3.11321
3.08525
3.06098
3.04418
3.02872
3.00719
2.98381
2.95619
2.91565
2.84951
2.76814
2.70641
2.67054
2.64544
2.62395
2.60335
2.58288
2.56045
2.53405
2.50435
2.47883
2.45947
2.43417
2.39418
2.34112
2.28482
2.24407
2.22332
2.20954
2.19573
2.17878
2.15652
2.1334
2.11381
2.08976
2.05194
2.02073
2.00371
1.98927
1.97477
1.95914
1.93927
1.91017
1.86775
1.83102
1.81581
1.80653
1.79801
1.789
1.77827
1.76564
1.75111
1.72879
1.68593
1.6432
1.62818
1.62061
1.61366
1.60694
1.59943
1.59091
1.58164
1.56702
1.53915
1.50131
1.48035
1.47339
1.46953
1.46793
1.4694
1.46965
1.46874
1.46782
1.46435
1.45174
1.43348
1.43675
2.27837
2.45677
2.88346
3.12881
3.22415
3.25151
3.20519
3.1381
3.08526
3.02356
2.92493
2.88412
2.8663
2.80491
2.73904
2.70991
2.6503
2.59716
2.5565
2.58898
2.77614
3.21406
3.65991
3.97533
4.00858
4.00969
3.98891
3.93429
3.84901
3.75492
3.6651
3.56864
3.49013
3.44809
3.41061
3.3749
3.34694
3.32338
3.30639
3.29729
3.31705
3.42726
3.53272
3.61862
3.67144
3.65092
3.60607
3.55226
3.48736
3.41642
3.345
3.26413
3.18524
3.14312
3.11556
3.09096
3.06645
3.04107
3.01227
2.97566
2.9304
2.88127
2.83319
2.78337
2.72869
2.68205
2.6522
2.63045
2.61007
2.58816
2.56166
2.52852
2.49625
2.47222
2.45146
2.42533
2.38245
2.32768
2.28422
2.25367
2.229
2.21045
2.19693
2.18281
2.16204
2.13693
2.11306
2.08146
2.05102
2.03037
2.01453
1.99898
1.98162
1.96103
1.93158
1.88828
1.8492
1.82952
1.81749
1.80798
1.80006
1.79359
1.78602
1.7751
1.75607
1.72346
1.67868
1.64417
1.62749
1.61551
1.60411
1.59298
1.58247
1.57356
1.56736
1.5566
1.52455
1.48641
1.47137
1.46528
1.46151
1.45955
1.45701
1.45229
1.44807
1.44537
1.43813
1.4099
1.38537
2.28546
2.31724
2.49863
2.84339
3.06737
3.23416
3.25566
3.22104
3.17426
3.09482
2.98793
2.9615
2.92812
2.85171
2.80413
2.773
2.70152
2.70332
2.84275
3.21687
3.76486
4.16228
4.34354
4.3315
4.23902
4.10309
4.00108
3.93286
3.8896
3.84645
3.78044
3.67776
3.57391
3.50027
3.4517
3.42196
3.40718
3.40691
3.44161
3.48811
3.61493
3.72956
3.78361
3.79217
3.76022
3.69913
3.63457
3.57316
3.51302
3.45584
3.40385
3.34896
3.27937
3.20979
3.1634
3.13108
3.1026
3.0739
3.04136
2.99905
2.94613
2.90296
2.87464
2.84562
2.80457
2.74765
2.69037
2.6478
2.61466
2.58578
2.56266
2.54219
2.52185
2.5021
2.48052
2.45053
2.40304
2.34662
2.30944
2.28654
2.26638
2.24597
2.22213
2.19234
2.1554
2.11404
2.09425
2.08684
2.07725
2.06175
2.04481
2.02804
2.00626
1.97323
1.92796
1.8878
1.86814
1.85468
1.83965
1.82414
1.81129
1.79882
1.78501
1.77015
1.75627
1.73983
1.70751
1.66651
1.63833
1.62235
1.61089
1.60145
1.59289
1.58382
1.57233
1.55728
1.53747
1.50873
1.48608
1.47451
1.46681
1.46059
1.45315
1.44589
1.43845
1.43062
1.42142
1.40811
1.3817
2.30761
2.29492
2.32233
2.46983
2.7473
3.08232
3.2607
3.26009
3.23997
3.1738
3.07668
3.04087
2.97834
2.90636
2.87718
2.86348
2.9344
3.30186
3.80798
4.24425
4.46944
4.45665
4.42696
4.3786
4.29103
4.18259
4.07027
3.9828
3.94229
3.907
3.85726
3.77591
3.66983
3.58531
3.51912
3.48828
3.49108
3.54459
3.64711
3.77629
3.91865
3.96323
3.94468
3.88267
3.80564
3.72673
3.65522
3.5973
3.55063
3.50814
3.46544
3.41748
3.35892
3.29091
3.22439
3.17123
3.12975
3.09294
3.05523
3.01498
2.97097
2.9357
2.91059
2.88567
2.85293
2.79884
2.72651
2.67234
2.638
2.60616
2.57539
2.55237
2.53465
2.51835
2.50236
2.48186
2.43981
2.3707
2.32323
2.303
2.2865
2.26856
2.24466
2.21216
2.17042
2.12492
2.09965
2.08816
2.07948
2.07361
2.06537
2.05245
2.03039
1.9953
1.94603
1.90014
1.87983
1.86938
1.8571
1.83864
1.82078
1.80592
1.79233
1.77901
1.76213
1.73674
1.71184
1.68782
1.6629
1.64072
1.62588
1.61673
1.6092
1.60175
1.59216
1.57528
1.54723
1.52168
1.50608
1.49415
1.48076
1.46544
1.45207
1.44295
1.43552
1.42619
1.41581
1.40537
1.38328
2.35588
2.32252
2.30077
2.31283
2.43841
2.74684
3.15258
3.24366
3.26376
3.23802
3.17526
3.11369
3.03151
2.9967
3.07453
3.36796
3.90784
4.43424
4.70601
4.81057
4.76773
4.62449
4.46092
4.36876
4.3081
4.25221
4.17379
4.08184
4.00453
3.94199
3.88993
3.82621
3.75347
3.6833
3.62452
3.61029
3.65508
3.7859
3.91676
4.06386
4.11856
4.10056
4.03373
3.93602
3.83865
3.75387
3.68926
3.63607
3.59158
3.55202
3.51127
3.46617
3.41551
3.3588
3.29532
3.22761
3.16478
3.11239
3.06462
3.01823
2.98801
2.96656
2.94597
2.9242
2.89624
2.85012
2.7726
2.68668
2.63682
2.61324
2.59582
2.58084
2.56515
2.54499
2.51829
2.48578
2.44864
2.40076
2.35708
2.32745
2.30248
2.27902
2.25692
2.23353
2.20066
2.15503
2.11827
2.10098
2.08977
2.07835
2.06501
2.04781
2.02643
2.00473
1.97939
1.94328
1.90185
1.87517
1.86402
1.85624
1.84499
1.83043
1.81388
1.79433
1.77113
1.74572
1.72367
1.70615
1.69023
1.67393
1.65753
1.64497
1.63428
1.62256
1.60975
1.59343
1.57398
1.55364
1.52494
1.49525
1.47986
1.46935
1.45773
1.44807
1.43959
1.4298
1.41715
1.40504
1.3857
2.40429
2.36114
2.32167
2.30243
2.31906
2.45816
2.84388
3.14672
3.24662
3.24677
3.2315
3.17473
3.2034
3.4495
3.9972
4.61308
4.94269
4.89998
4.90087
4.87984
4.82288
4.72125
4.56976
4.43362
4.35916
4.30712
4.24197
4.1653
4.08019
3.99102
3.92383
3.86062
3.81671
3.77642
3.78191
3.82568
3.96607
4.09687
4.20372
4.24154
4.21308
4.15322
4.06873
3.97358
3.88045
3.80239
3.73957
3.68129
3.63029
3.58742
3.54615
3.50192
3.45548
3.40835
3.3568
3.29037
3.2048
3.11993
3.06591
3.03635
3.01388
2.99401
2.97658
2.95737
2.93259
2.88884
2.80637
2.70989
2.65714
2.63217
2.61313
2.59715
2.58568
2.57193
2.55185
2.51658
2.45559
2.39905
2.37072
2.35098
2.33065
2.3084
2.28387
2.25502
2.2173
2.17143
2.13763
2.11941
2.10414
2.08916
2.0747
2.05974
2.04252
2.01954
1.99122
1.96192
1.93151
1.9039
1.87973
1.85632
1.83636
1.81846
1.8006
1.7822
1.76514
1.75584
1.74874
1.73805
1.71971
1.69014
1.65409
1.63101
1.62007
1.60952
1.59817
1.59148
1.5868
1.57698
1.55476
1.51852
1.48888
1.48045
1.47562
1.46685
1.45299
1.4359
1.419
1.4118
1.39948
2.4434
2.40452
2.35739
2.31286
2.31192
2.34385
2.51841
2.89401
3.11227
3.22778
3.36089
3.6006
4.09228
4.73265
5.22403
5.37349
5.30099
5.10145
4.91491
4.83808
4.8016
4.748
4.66261
4.54155
4.44049
4.36631
4.29066
4.21115
4.12787
4.03917
3.95999
3.90007
3.88257
3.91955
4.00921
4.15687
4.30786
4.36734
4.36718
4.32442
4.24994
4.16757
4.08699
4.00971
3.93807
3.87421
3.80824
3.7369
3.66752
3.60637
3.55801
3.5184
3.48126
3.44467
3.40223
3.33898
3.24275
3.14616
3.09339
3.06551
3.04168
3.01848
2.99645
2.97439
2.94893
2.90705
2.82415
2.73212
2.68963
2.66772
2.64895
2.63173
2.61286
2.58769
2.55409
2.51069
2.45423
2.40313
2.38083
2.36636
2.3527
2.33793
2.3192
2.2919
2.25031
2.19607
2.1458
2.11581
2.09855
2.08541
2.07327
2.06002
2.04365
2.02603
2.00951
1.98957
1.96076
1.9263
1.89382
1.86473
1.84089
1.82134
1.80313
1.78829
1.77892
1.77059
1.76107
1.75037
1.73555
1.70717
1.6632
1.63013
1.61697
1.60952
1.60351
1.59691
1.58706
1.57431
1.56067
1.54396
1.52072
1.49345
1.47207
1.46074
1.45227
1.44243
1.42982
1.42269
1.40811
2.48296
2.4486
2.39655
2.34223
2.32077
2.33277
2.36829
2.59541
2.87312
3.3692
4.15924
4.77971
5.30545
5.53828
5.54187
5.45416
5.32693
5.1684
4.99959
4.87111
4.79983
4.761
4.70546
4.63212
4.54434
4.4499
4.34392
4.24265
4.15294
4.0791
4.00788
3.99291
4.03607
4.18673
4.35358
4.50803
4.56343
4.52801
4.44334
4.35119
4.26076
4.17947
4.1132
4.05655
4.00409
3.94675
3.87196
3.78065
3.6941
3.6262
3.57588
3.53689
3.50087
3.46577
3.42941
3.37927
3.2922
3.18061
3.12122
3.097
3.0775
3.06081
3.03986
3.01316
2.97982
2.93116
2.85878
2.78228
2.72766
2.69587
2.67581
2.65849
2.64044
2.61725
2.57719
2.50946
2.44715
2.42208
2.40699
2.3915
2.37548
2.35775
2.3383
2.31353
2.27396
2.21834
2.16401
2.12729
2.10543
2.0907
2.07968
2.07143
2.06556
2.05747
2.0427
2.02041
1.98885
1.94827
1.9111
1.88394
1.86316
1.8441
1.82937
1.81838
1.80753
1.79539
1.78161
1.76507
1.74386
1.71639
1.67862
1.63942
1.62105
1.61252
1.60513
1.59821
1.59145
1.58494
1.57771
1.56673
1.5482
1.51481
1.4782
1.46046
1.45354
1.44893
1.44397
1.44021
1.42551
2.51918
2.48596
2.4371
2.38431
2.36392
2.36117
2.39505
2.57642
3.17707
4.13822
5.00423
5.51555
5.81846
5.83265
5.66927
5.45406
5.31099
5.2303
5.11329
4.97023
4.8569
4.77882
4.71323
4.66455
4.60927
4.52831
4.41214
4.28778
4.18401
4.112
4.10407
4.16104
4.32186
4.5509
4.68856
4.71357
4.68443
4.59298
4.4653
4.34781
4.25896
4.19645
4.14486
4.09954
4.05681
4.006
3.93129
3.82653
3.72003
3.63785
3.58886
3.55423
3.51949
3.48312
3.44507
3.40264
3.34415
3.25909
3.17625
3.12607
3.09324
3.06332
3.03128
2.99585
2.95435
2.90814
2.86693
2.82717
2.78346
2.74412
2.7138
2.68693
2.65851
2.62233
2.57234
2.50389
2.45324
2.43576
2.42237
2.41145
2.39934
2.38327
2.35954
2.3261
2.27157
2.21126
2.17776
2.15516
2.13541
2.11872
2.10386
2.08762
2.06951
2.05022
2.02763
2.00269
1.98011
1.96234
1.94014
1.90751
1.86731
1.83291
1.81634
1.80666
1.79693
1.7869
1.77769
1.76842
1.75589
1.73323
1.69021
1.64381
1.62421
1.61587
1.60877
1.60261
1.59754
1.59344
1.58692
1.57597
1.55095
1.50506
1.47534
1.46625
1.45921
1.45165
1.44656
1.44294
1.43039
2.55247
2.51803
2.46862
2.43855
2.44722
2.52284
2.8527
3.41055
4.05064
4.50712
4.93502
5.42783
5.76811
5.79521
5.71397
5.49219
5.35609
5.28096
5.16548
5.04721
4.93015
4.81352
4.72683
4.67248
4.62383
4.5601
4.4636
4.34833
4.24011
4.21928
4.29433
4.47509
4.70342
4.87607
4.87865
4.84024
4.74808
4.61152
4.46228
4.34265
4.2748
4.2262
4.18466
4.14689
4.10782
4.05839
3.98201
3.86452
3.74115
3.65692
3.60702
3.57428
3.54212
3.50808
3.47313
3.43456
3.38721
3.32099
3.23425
3.16242
3.1177
3.08023
3.04191
3.00075
2.95733
2.91692
2.88435
2.85231
2.81605
2.77735
2.745
2.71726
2.68439
2.63913
2.5741
2.50991
2.48047
2.46201
2.44405
2.42485
2.40755
2.39353
2.37804
2.34843
2.29675
2.22998
2.19268
2.18082
2.17247
2.16041
2.14061
2.11463
2.08491
2.05571
2.03016
2.00839
1.99104
1.97296
1.95376
1.93118
1.88614
1.8383
1.81578
1.8059
1.79808
1.79117
1.78445
1.77657
1.76677
1.75022
1.70989
1.65548
1.62853
1.61964
1.61414
1.61026
1.60852
1.60408
1.59692
1.58523
1.55743
1.51052
1.48226
1.47285
1.46652
1.46141
1.45645
1.45208
1.4376
2.584
2.53958
2.52308
2.56945
2.82516
3.36921
4.04698
4.33671
4.3929
4.43812
4.59453
4.95295
5.33795
5.52449
5.59003
5.53454
5.44084
5.32648
5.18463
5.07319
4.96671
4.85035
4.74626
4.67564
4.62568
4.57242
4.51424
4.43911
4.38684
4.45646
4.63577
4.83092
5.00048
5.01804
4.97305
4.89083
4.77209
4.6183
4.46684
4.36929
4.31114
4.26377
4.22342
4.18729
4.15005
4.10131
4.02126
3.89997
3.77568
3.68041
3.62779
3.59529
3.56284
3.52859
3.49797
3.46768
3.43235
3.37983
3.2988
3.20584
3.13722
3.08941
3.04344
2.99567
2.96049
2.93968
2.92073
2.89739
2.8644
2.81764
2.76277
2.71506
2.67822
2.64313
2.59351
2.53439
2.49821
2.47876
2.46288
2.44724
2.42909
2.40482
2.37374
2.32892
2.28482
2.25714
2.23792
2.21621
2.18753
2.15314
2.12073
2.0935
2.06968
2.0472
2.03196
2.02384
2.01662
2.00494
1.97854
1.92721
1.87754
1.84486
1.8272
1.81481
1.80604
1.79938
1.79307
1.78548
1.77506
1.75204
1.70228
1.65575
1.64505
1.64044
1.63638
1.63438
1.62984
1.6227
1.6136
1.59823
1.56402
1.51675
1.49744
1.49094
1.48596
1.48112
1.47524
1.46974
1.45345
2.61634
2.62126
2.77289
3.31549
3.98144
4.51634
4.72256
4.69491
4.5859
4.45683
4.43571
4.51303
4.80067
5.15896
5.45317
5.54767
5.49437
5.36833
5.21425
5.08391
4.97873
4.87674
4.77528
4.68909
4.62986
4.60119
4.60134
4.62816
4.7048
4.88827
5.01928
5.12333
5.13881
5.08539
5.0037
4.90503
4.78073
4.63111
4.50185
4.42252
4.3653
4.31699
4.27265
4.22646
4.18125
4.12505
4.03927
3.91947
3.80493
3.71962
3.664
3.62542
3.59018
3.55831
3.52729
3.48948
3.44618
3.40145
3.34082
3.24925
3.16147
3.1055
3.06021
3.01335
2.97511
2.95257
2.93379
2.91358
2.88849
2.84754
2.78755
2.73397
2.69235
2.64796
2.60288
2.56687
2.53386
2.49938
2.47046
2.45255
2.44127
2.42416
2.39077
2.33733
2.29123
2.27887
2.26989
2.25432
2.21974
2.16399
2.114
2.08757
2.07249
2.06134
2.05018
2.0361
2.02071
2.0029
1.97209
1.9133
1.86854
1.85874
1.85212
1.84423
1.83476
1.82515
1.81629
1.80678
1.79216
1.76293
1.7129
1.67257
1.65101
1.63541
1.62532
1.61838
1.61226
1.60646
1.59901
1.58614
1.56428
1.5356
1.50823
1.48807
1.47602
1.46944
1.46359
1.45798
1.44182
2.81318
3.16458
3.88536
4.58192
4.76799
4.79941
4.75711
4.67623
4.58856
4.49694
4.41139
4.35747
4.41179
4.63502
5.00287
5.38016
5.42046
5.37282
5.25477
5.12136
5.00707
4.90676
4.81468
4.73361
4.68272
4.70411
4.79347
4.94172
5.16019
5.267
5.28297
5.25702
5.18741
5.10001
5.01019
4.91329
4.79491
4.66474
4.5576
4.48101
4.42495
4.37404
4.32218
4.26785
4.2109
4.14318
4.05383
3.94319
3.83492
3.75889
3.70644
3.66094
3.61598
3.5763
3.54584
3.51692
3.48512
3.44481
3.38698
3.29786
3.1954
3.11913
3.07305
3.04462
3.02119
3.0003
2.98091
2.95913
2.93045
2.88648
2.82225
2.75545
2.70209
2.66026
2.62121
2.57861
2.5434
2.52084
2.50354
2.48251
2.4477
2.4055
2.36915
2.34015
2.32456
2.30854
2.2857
2.25255
2.2034
2.14101
2.10253
2.08952
2.08161
2.07746
2.07092
2.05913
2.04402
2.02101
1.97487
1.91291
1.87988
1.86772
1.85599
1.84322
1.82923
1.81453
1.79998
1.78588
1.76893
1.74404
1.71276
1.68408
1.66092
1.643
1.6289
1.61751
1.60852
1.60118
1.59554
1.58894
1.57538
1.55151
1.52148
1.49739
1.47946
1.46875
1.46238
1.45811
1.44411
3.82889
4.47602
5.01396
5.082
5.04132
4.89681
4.73955
4.62375
4.56576
4.51429
4.43594
4.34069
4.31706
4.33773
4.51659
4.92614
5.23115
5.30722
5.28074
5.18348
5.06093
4.94208
4.86833
4.82634
4.85362
4.97764
5.17334
5.40092
5.53004
5.51485
5.44593
5.32571
5.20734
5.10826
5.02091
4.92756
4.82251
4.71886
4.61559
4.52841
4.47416
4.42521
4.36559
4.30073
4.2306
4.15263
4.06573
3.9761
3.88362
3.80143
3.74365
3.69699
3.65292
3.6092
3.56671
3.52449
3.47287
3.41046
3.3407
3.27766
3.21495
3.16228
3.12716
3.08928
3.03793
2.98361
2.95066
2.92792
2.90157
2.86778
2.82678
2.7763
2.71948
2.67193
2.63616
2.6025
2.57082
2.53936
2.50214
2.46662
2.4321
2.39342
2.36664
2.35747
2.35437
2.342
2.31681
2.27032
2.19633
2.13436
2.11426
2.10535
2.09814
2.08964
2.07773
2.06249
2.03945
2.00225
1.94839
1.9061
1.89094
1.88026
1.86814
1.85369
1.83687
1.8191
1.80143
1.784
1.76529
1.74202
1.71897
1.69884
1.67705
1.65632
1.63966
1.62672
1.61674
1.60562
1.59065
1.57
1.54916
1.5363
1.52906
1.51621
1.49872
1.48219
1.46852
1.45798
1.43512
5.10849
5.19345
5.17113
5.083
4.97366
4.90519
4.80846
4.69424
4.60556
4.5499
4.48286
4.39715
4.32303
4.27045
4.29197
4.46244
4.79012
5.08496
5.22303
5.21399
5.12763
5.00503
4.96931
5.00423
5.16791
5.39647
5.62588
5.70779
5.68419
5.59844
5.485
5.35844
5.23638
5.13342
5.0465
4.9574
4.86359
4.7766
4.68983
4.59218
4.49812
4.44781
4.40749
4.34526
4.26158
4.16859
4.08523
4.01577
3.94255
3.85542
3.77228
3.71992
3.68692
3.65361
3.61178
3.56152
3.5024
3.41966
3.32443
3.25455
3.22382
3.2034
3.17846
3.13931
3.07751
3.00521
2.95231
2.9252
2.90212
2.87415
2.84197
2.80273
2.75223
2.69824
2.6521
2.62854
2.61128
2.58082
2.52606
2.45683
2.41242
2.39311
2.38313
2.37425
2.35989
2.33973
2.30695
2.24059
2.16472
2.1424
2.13443
2.1264
2.11712
2.10549
2.09304
2.07758
2.05069
1.99577
1.93064
1.90375
1.89499
1.88723