/*--------------------------------*- C++ -*----------------------------------*\
  =========                 |
  \\      /  F ield         | OpenFOAM: The Open Source CFD Toolbox
   \\    /   O peration     | Website:  https://openfoam.org
    \\  /    A nd           | Version:  7
     \\/     M anipulation  |
\*---------------------------------------------------------------------------*/
FoamFile
{
    version     2.0;
    format      ascii;
    class       volScalarField;
    location    "0.5";
    object      p;
}
// * * * * * * * * * * * * * * * * * * * * * * * * * * * * * * * * * * * * * //

dimensions      [1 -1 -2 0 0 0 0];

internalField   nonuniform List<scalar> 
16192
(
5.71847
5.62756
5.54823
5.47184
5.39184
5.33691
5.28538
5.23289
5.17462
5.10237
5.01721
4.92217
4.81685
4.7061
4.5901
4.46573
4.34131
4.21989
4.10213
3.9914
3.88886
5.74071
5.64335
5.55728
5.48455
5.41096
5.35491
5.298
5.24499
5.18742
5.12196
5.04589
4.96016
4.86358
4.75971
4.64524
4.51666
4.38485
4.25775
4.13615
4.02685
3.92811
5.76407
5.66502
5.57541
5.49475
5.41996
5.35582
5.29281
5.23698
5.19367
5.14725
5.08368
5.00368
4.91012
4.80538
4.68935
4.56119
4.42849
4.29813
4.17383
4.06473
3.96693
5.77625
5.67721
5.5898
5.50306
5.42467
5.35429
5.28963
5.23898
5.20818
5.1689
5.11403
5.03998
4.94693
4.84082
4.72407
4.59905
4.47173
4.34315
4.21712
4.10741
4.00825
5.80591
5.70019
5.60788
5.51871
5.43512
5.35383
5.28161
5.23083
5.20665
5.17717
5.13479
5.07073
4.97883
4.86964
4.75246
4.63399
4.51491
4.39193
4.26504
4.15056
4.04758
5.8332
5.71953
5.61872
5.53292
5.4465
5.3565
5.27364
5.22352
5.20644
5.18718
5.15215
5.09157
5.00281
4.89566
4.78245
4.67005
4.55764
4.44056
4.31573
4.19721
4.08833
5.80158
5.74526
5.64084
5.54891
5.45963
5.37088
5.28001
5.22443
5.20169
5.18082
5.15244
5.10076
5.02439
4.92868
4.82096
4.71026
4.60012
4.48454
4.3623
4.24363
4.1316
5.82084
5.78188
5.66395
5.55898
5.47225
5.38946
5.2935
5.22842
5.19539
5.17318
5.15001
5.11239
5.05025
4.96477
4.86141
4.75047
4.63762
4.52242
4.40629
4.29015
4.17684
5.4943
5.73028
5.67328
5.57693
5.49418
5.415
5.31814
5.24146
5.19125
5.16277
5.14085
5.11474
5.06719
4.99561
4.89965
4.78865
4.67334
4.55886
4.44875
4.33636
4.22252
5.16928
5.75915
5.71552
5.60782
5.51475
5.43443
5.34566
5.26016
5.19132
5.15106
5.13209
5.11784
5.08444
5.02081
4.92934
4.81686
4.7018
4.59404
4.48941
4.38028
4.2662
4.07533
5.46788
5.66601
5.61896
5.54101
5.45938
5.37465
5.28339
5.20357
5.14994
5.12986
5.11975
5.08951
5.03133
4.94488
4.83707
4.72835
4.62837
4.52733
4.41927
4.30368
2.42768
5.16972
5.70817
5.67029
5.57662
5.4819
5.40214
5.31453
5.22704
5.15638
5.13275
5.12454
5.09158
5.03552
4.95481
4.85542
4.75512
4.65745
4.55567
4.44934
4.33436
1.31659
4.12009
5.43737
5.62138
5.58496
5.50194
5.43122
5.34841
5.26074
5.17079
5.13563
5.11711
5.08056
5.03099
4.95817
4.86897
4.77654
4.68139
4.57951
4.47303
4.35892
1.02407
2.48224
5.15805
5.65986
5.62503
5.5409
5.45497
5.37853
5.29338
5.18944
5.1384
5.10485
5.06716
5.02512
4.96429
4.88505
4.79707
4.70093
4.59864
4.49175
4.37935
1.00063
1.34051
4.13817
5.39353
5.56503
5.52158
5.46088
5.4025
5.32023
5.21076
5.13929
5.09724
5.06025
5.02182
4.97037
4.90043
4.81532
4.71711
4.61292
4.50688
4.39964
1.00001
1.02717
2.50607
5.1202
5.59855
5.55761
5.48758
5.41689
5.33617
5.231
5.14555
5.08556
5.04915
5.01927
4.98069
4.91884
4.83446
4.73505
4.62959
4.52536
4.42385
1
1.00075
1.3501
4.11025
5.32585
5.49407
5.46317
5.4173
5.34951
5.25469
5.16008
5.08578
5.0469
5.02005
4.99085
4.93539
4.85322
4.75418
4.64729
4.54651
4.45154
1
1.00001
1.02831
2.47892
5.04696
5.52851
5.49866
5.43845
5.36547
5.27898
5.18057
5.09772
5.04714
5.02526
5.00151
4.94781
4.86943
4.77505
4.67081
4.57601
4.48511
1
1
1.00079
1.33651
4.02753
5.23649
5.43169
5.43469
5.37947
5.30381
5.20907
5.12108
5.05643
5.03403
5.00659
4.95561
4.88649
4.79854
4.70037
4.61278
4.52318
1
1
1.00001
1.02646
2.41248
4.93713
5.4769
5.46735
5.40473
5.32937
5.24313
5.14859
5.07071
5.04375
5.01051
4.9607
4.90163
4.82249
4.73368
4.65046
4.56046
1
1
1
1.00073
1.3116
3.9047
5.16159
5.41256
5.41126
5.35291
5.27629
5.17554
5.08831
5.05498
5.0168
4.97079
4.91958
4.8466
4.76814
4.68609
4.59401
1
1
1
1.00001
1.02365
2.32258
4.81889
5.44761
5.44594
5.38567
5.31009
5.20015
5.10532
5.06344
5.02096
4.98165
4.93595
4.8684
4.79253
4.70884
4.61882
1
1
1
1
1.00065
1.27862
3.7306
5.12419
5.4112
5.39764
5.33457
5.21986
5.12294
5.07765
5.0343
4.99736
4.9512
4.88702
4.81106
4.72556
4.63652
1
1
1
1
1.00001
1.01973
2.18512
4.7124
5.42934
5.4232
5.35908
5.241
5.13358
5.08584
5.04776
5.01148
4.96327
4.89999
4.82336
4.7391
4.6518
1
1
1
1
1
1.0005
1.22975
3.52823
5.13136
5.39076
5.36646
5.26546
5.1496
5.10161
5.06719
5.02894
4.97884
4.91527
4.83692
4.75185
4.66395
1
1
1
1
1
1
1.01463
2.02175
4.60726
5.38255
5.37288
5.28057
5.15694
5.09472
5.07375
5.04249
4.99514
4.93262
4.85467
4.76855
4.67921
1
1
1
1
1
1
1.00035
1.17842
3.30621
5.09729
5.36165
5.3085
5.18738
5.10162
5.07817
5.05668
5.01699
4.95534
4.87945
4.79063
4.69926
1
1
1
1
1
1
1
1.01025
1.85925
4.45383
5.31993
5.27893
5.16052
5.08955
5.07264
5.06158
5.02976
4.97435
4.90654
4.8197
4.73087
1
1
1
1
1
1
1
1.00022
1.13451
3.04309
5.04346
5.28464
5.20035
5.11786
5.08765
5.06987
5.03974
4.99038
4.93228
4.85052
4.76771
1
1
1
1
1
1
1
1
1.007
1.66864
4.29953
5.18832
5.11064
5.08375
5.0753
5.07878
5.04689
5.00192
4.95277
4.87745
4.80043
1
1
1
1
1
1
1
1
1.00013
1.08696
2.81304
4.90319
5.13254
5.13304
5.11241
5.09357
5.04876
5.01007
4.96418
4.89251
4.82017
1
1
1
1
1
1
1
1
1
1.00381
1.51
4.09311
4.91532
5.04748
5.10087
5.10304
5.05496
5.01805
4.97389
4.90236
4.83112
1
1
1
1
1
1
1
1
1
1.00006
1.05315
2.5835
4.60264
5.08955
5.14422
5.11687
5.06802
5.02891
4.97113
4.88872
4.82853
1
1
1
1
1
1
1
1
1
1
1.00197
1.38862
3.65262
4.88619
5.16346
5.13563
5.08305
5.03588
4.97286
4.88282
4.82826
1
1
1
1
1
1
1
1
1
1.00003
1.03292
2.19537
4.37433
5.17145
5.18015
5.12039
5.04575
4.95375
4.85793
4.81909
1
1
1
1
1
1
1
1
1
1
1.00097
1.23238
3.14535
4.98354
5.15371
5.1204
5.0616
4.96217
4.86971
4.82869
1
1
1
1
1
1
1
1
1
1
1.00001
1.01429
1.76541
4.20684
5.14363
5.10825
5.01499
4.91257
4.85961
4.83671
1
1
1
1
1
1
1
1
1
1
1
1.00029
1.10679
2.72133
4.88779
5.09603
5.0225
4.90443
4.86988
4.84992
1
1
1
1
1
1
1
1
1
1
1
1
1.00495
1.49138
4.04359
4.91345
4.92542
4.8756
4.88554
4.85719
1
1
1
1
1
1
1
1
1
1
1
1
1.00009
1.05634
2.50642
4.60795
4.85527
4.89946
4.90356
4.84874
1
1
1
1
1
1
1
1
1
1
1
1
1
1.00246
1.36011
3.69682
4.67258
4.90278
4.89639
4.83977
1
1
1
1
1
1
1
1
1
1
1
1
1
1.00004
1.032
2.19997
4.16377
4.88954
4.90713
4.86419
1
1
1
1
1
1
1
1
1
1
1
1
1
1
1.00102
1.22881
3.02339
4.5713
4.94197
4.92973
1
1
1
1
1
1
1
1
1
1
1
1
1
1
1.00001
1.01413
1.65908
3.58845
4.88312
5.00064
1
1
1
1
1
1
1
1
1
1
1
1
1
1
1
1.00026
1.06971
2.23348
4.41314
5.00978
1
1
1
1
1
1
1
1
1
1
1
1
1
1
1
1
1.00211
1.256
3.15818
4.72465
1
1
1
1
1
1
1
1
1
1
1
1
1
1
1
1
1.00002
1.01591
1.85931
3.90187
1
1
1
1
1
1
1
1
1
1
1
1
1
1
1
1
1
1.00036
1.15088
2.63893
1
1
1
1
1
1
1
1
1
1
1
1
1
1
1
1
1
1
1.00979
1.48209
1
1
1
1
1
1
1
1
1
1
1
1
1
1
1
1
1
1
1.00024
1.05781
1
1
1
1
1
1
1
1
1
1
1
1
1
1
1
1
1
1
1
1.00264
1
1
1
1
1
1
1
1
1
1
1
1
1
1
1
1
1
1
1
1.00004
1
1
1
1
1
1
1
1
1
1
1
1
1
1
1
1
1
1
1
1
1
1
1
1
1
1
1
1
1
1
1
1
1
1
1
1
1
1
1
1
1
1
1
1
1
1
1
1
1
1
1
1
1
1
1
1
1
1
1
1
1
1
1
1
1
1
1
1
1
1
1
1
1
1
1
1
1
1
1
1
1
1
1
1
1
1
1
1
1
1
1
1
1
1
1
1
1
1
1
1
1
1
1
1
1
1
1
1
1
1
1
1
1
1
1
1
1
1
1
1
1
1
1
1
1
1
1
1
1
1
1
1
1
1
1
1
1
1
1
1
1
1
1
1
1
1
1
1
1
1
1
1
1
1
1
1
1
1
1
1
1
1
1
1
1
1
1
1
1
1
1
1
1
1
1
1
1
1
1
1
1
1
1
1
1
1
1
1
1
1
1
1
1
1
1
1
1
1
1
1
1
1
1
1
1
1
1
1
1
1
1
1
1
1
1
1
1
1
1
1
1
1
1
1
1
1
1
1
1
1
1
1
1
1
1
1
1
1
1
1
1
1
1
1
1
1
1
1
1
1
1
1
1
1
1
1
1
1
1
1
1.00399
1.00137
0.995569
0.980693
0.958553
0.946767
0.943962
0.941367
0.93905
0.938036
0.938409
0.940431
0.945559
0.945821
0.943945
0.942795
0.940253
0.934255
0.924884
0.907065
0.88191
0.86847
0.865434
0.866415
0.868955
0.875364
0.880876
0.88128
0.881212
0.880135
0.875211
0.867981
0.855299
0.840978
0.8346
0.832059
0.831028
0.830816
0.834312
0.842591
0.847706
0.846951
3.81557
3.76651
3.71984
3.67591
3.62884
3.58428
3.53164
3.48912
3.44285
3.39357
3.34906
3.29188
3.25548
3.21875
3.17938
3.14887
3.11129
3.08449
3.05004
3.00807
2.96263
2.92307
2.88963
2.85865
2.83581
2.85464
2.93018
3.05749
3.16555
3.22013
3.24175
3.25505
3.2461
3.22172
3.18419
3.13154
3.06615
3.0035
2.93754
2.87389
2.81679
2.74536
2.66248
2.60075
2.58099
2.5844
2.61232
2.64588
2.69047
2.7218
2.72362
2.7138
2.68241
2.63472
2.58479
2.52963
2.45215
2.36968
2.30141
2.2549
2.23171
2.21815
2.20148
2.18207
2.16391
2.13455
2.10795
2.07575
2.02719
1.99102
1.95551
1.91764
1.88686
1.85971
1.82229
1.78672
1.75982
1.737
1.72929
1.71887
1.70523
1.6962
1.68162
1.65804
1.63767
1.62805
1.6152
1.60251
1.58769
1.56313
1.52913
1.50836
1.49649
1.48311
1.47643
1.47092
1.45815
1.44221
1.42699
1.41012
1.38691
1.36425
1.35479
1.35074
1.34678
1.33983
1.33213
1.32162
1.30105
1.26682
1.25006
1.24839
1.24729
1.2429
1.23701
1.22798
1.20697
1.17491
1.15034
1.14334
1.1413
1.14669
1.15323
1.14998
1.14154
1.1307
1.1154
1.0926
1.07231
1.07065
1.07951
1.10022
1.13672
1.19016
1.21731
1.21901
1.21698
1.20218
1.17155
1.13533
1.10856
1.09816
1.0926
1.08645
1.07868
1.06891
1.05385
1.03693
1.0282
1.02502
1.02461
1.03249
1.05247
1.07169
1.09475
1.13916
1.16734
1.18073
1.19265
1.20028
1.21067
1.21852
1.21383
1.20496
1.19653
1.18138
1.15423
1.12543
1.11097
1.10534
1.10349
1.10387
1.1076
1.10856
1.10437
1.09983
1.09322
1.07939
1.0538
1.03242
1.02737
1.02481
1.02309
1.02176
1.01866
1.01572
1.01429
1.01462
1.01274
1.00828
0.99566
0.971605
0.955311
0.95238
0.950322
0.947756
0.945742
0.945508
0.946931
0.950976
0.95238
0.950673
0.94923
0.945488
0.938732
0.927593
0.906663
0.883011
0.873364
0.871632
0.872949
0.876208
0.883785
0.888386
0.887803
0.886835
0.883773
0.877579
0.868295
0.853032
0.841684
0.837664
0.836193
0.835808
0.837499
0.844639
0.853592
0.85654
0.854989
0.852139
3.85575
3.80673
3.76229
3.71489
3.66928
3.61857
3.56892
3.52447
3.47181
3.42641
3.37167
3.32483
3.2945
3.25317
3.2211
3.18268
3.15169
3.12437
3.08519
3.04463
2.99689
2.94769
2.89999
2.85117
2.81114
2.79725
2.8056
2.87233
2.99375
3.10643
3.18847
3.23134
3.23891
3.2283
3.20449
3.16935
3.11413
3.04794
2.97723
2.90992
2.84498
2.7562
2.69478
2.65523
2.64303
2.65111
2.68485
2.71491
2.76125
2.78329
2.7809
2.76539
2.72725
2.67351
2.61354
2.53816
2.448
2.36927
2.32536
2.30843
2.29265
2.27377
2.25567
2.23927
2.21253
2.18098
2.15312
2.10423
2.05079
2.01461
1.97599
1.93956
1.90931
1.87585
1.83427
1.8118
1.79314
1.77864
1.76848
1.75384
1.74323
1.73129
1.70946
1.68397
1.67143
1.65996
1.64483
1.62966
1.6077
1.57381
1.54423
1.53305
1.52107
1.51243
1.50785
1.49677
1.47888
1.46102
1.44272
1.41948
1.39814
1.38953
1.38532
1.38098
1.37343
1.36576
1.35645
1.33853
1.30332
1.27934
1.27634
1.2755
1.27188
1.2658
1.25611
1.23428
1.2013
1.17579
1.16794
1.16486
1.169
1.1764
1.17511
1.16845
1.15747
1.14027
1.11522
1.09208
1.08762
1.09378
1.11015
1.14074
1.19258
1.23068
1.23454
1.23339
1.22133
1.19115
1.15776
1.12722
1.1131
1.10615
1.10051
1.09261
1.08275
1.06765
1.05122
1.04256
1.03851
1.03605
1.03867
1.05043
1.06242
1.06788
1.07429
1.09842
1.13517
1.16155
1.19006
1.21851
1.2323
1.23226
1.22557
1.21113
1.19272
1.16791
1.13862
1.12533
1.12115
1.11878
1.12085
1.1271
1.12767
1.12328
1.11676
1.10665
1.08845
1.05735
1.0347
1.02977
1.02755
1.02614
1.02727
1.03027
1.02854
1.0256
1.02463
1.02348
1.0199
1.00978
0.987644
0.965968
0.960797
0.958869
0.956971
0.954833
0.953263
0.95362
0.95624
0.958348
0.956875
0.954819
0.950246
0.943211
0.930127
0.906737
0.886598
0.879713
0.879372
0.880857
0.88464
0.892238
0.895524
0.89417
0.891917
0.886822
0.879562
0.867742
0.851535
0.843491
0.8409
0.840429
0.840844
0.84536
0.855331
0.862978
0.8634
0.861157
0.857369
0.85048
3.89361
3.8464
3.80146
3.75386
3.70676
3.65266
3.60853
3.55785
3.50781
3.45917
3.40084
3.36997
3.33205
3.29379
3.25796
3.21703
3.19129
3.15449
3.11435
3.07073
3.02232
2.97034
2.9158
2.85811
2.8069
2.7947
2.79204
2.79754
2.86099
2.96965
3.08832
3.17386
3.20634
3.2065
3.19028
3.16739
3.13304
3.07824
3.01198
2.94775
2.87848
2.79275
2.75953
2.72615
2.71272
2.72525
2.75529
2.78102
2.82347
2.83698
2.83116
2.80645
2.75886
2.69732
2.62439
2.53564
2.44877
2.39706
2.38081
2.36909
2.35137
2.3313
2.31723
2.29653
2.26113
2.22712
2.18237
2.11671
2.07109
2.03462
1.99606
1.96195
1.92824
1.88745
1.86074
1.85083
1.83355
1.81995
1.80475
1.79009
1.78029
1.76207
1.73536
1.71622
1.70631
1.69144
1.67445
1.6532
1.62227
1.5861
1.5709
1.56077
1.55029
1.54525
1.53666
1.51798
1.49707
1.47663
1.45238
1.43147
1.4239
1.42039
1.41586
1.407
1.39831
1.38989
1.37575
1.34398
1.31201
1.30614
1.30475
1.30228
1.29688
1.2868
1.26387
1.2295
1.20324
1.1948
1.19084
1.19334
1.19968
1.19957
1.19449
1.18504
1.16694
1.1391
1.11329
1.10628
1.11042
1.12321
1.14829
1.19523
1.24353
1.25198
1.2513
1.24199
1.21307
1.17844
1.14892
1.12948
1.11857
1.11228
1.10495
1.09641
1.08177
1.06424
1.05603
1.05265
1.05173
1.05676
1.06543
1.06747
1.06502
1.06293
1.06313
1.07106
1.10311
1.13898
1.1793
1.22407
1.23332
1.23328
1.22772
1.21063
1.18525
1.15686
1.14108
1.13709
1.13489
1.13648
1.1425
1.14321
1.14034
1.1353
1.1244
1.10293
1.06628
1.03916
1.03376
1.03147
1.02994
1.03101
1.03915
1.04243
1.03944
1.03638
1.03448
1.03096
1.0222
1.0019
0.977801
0.969789
0.967414
0.965416
0.964932
0.963293
0.961585
0.96227
0.964393
0.963829
0.960647
0.95495
0.947319
0.932224
0.908031
0.892039
0.887166
0.887783
0.889614
0.893942
0.900373
0.901706
0.900101
0.896904
0.890297
0.881261
0.866369
0.851514
0.845894
0.844594
0.845043
0.846833
0.854237
0.864884
0.869209
0.868014
0.865576
0.860893
0.853545
0.843339
3.93361
3.88728
3.84018
3.79391
3.74174
3.69255
3.64719
3.5936
3.54752
3.48868
3.4457
3.41247
3.3685
3.33304
3.28721
3.25386
3.22122
3.17756
3.13695
3.08851
3.04138
2.9894
2.93631
2.87755
2.8269
2.81093
2.79677
2.79299
2.80464
2.86044
2.95618
3.04967
3.13075
3.16048
3.15369
3.14433
3.12343
3.08506
3.03596
2.98827
2.93168
2.87455
2.84618
2.80799
2.78723
2.79778
2.817
2.83957
2.8776
2.88193
2.86764
2.83315
2.77899
2.70856
2.62523
2.53776
2.48138
2.45874
2.44419
2.42904
2.41072
2.39406
2.3777
2.34715
2.3068
2.25595
2.18816
2.13165
2.09263
2.05493
2.01899
1.98471
1.94433
1.91192
1.90428
1.89418
1.87492
1.85895
1.83926
1.82698
1.81364
1.78946
1.76403
1.75143
1.73853
1.72114
1.6997
1.67143
1.63489
1.61184
1.60376
1.59138
1.58341
1.57714
1.55998
1.53568
1.51313
1.48799
1.46549
1.45839
1.45602
1.45172
1.4414
1.4308
1.42141
1.40958
1.38484
1.34925
1.33784
1.33511
1.33314
1.32885
1.31891
1.29464
1.25941
1.233
1.22448
1.22011
1.2212
1.22471
1.22402
1.22004
1.21263
1.1957
1.16498
1.13584
1.12606
1.12858
1.13827
1.1584
1.19794
1.2537
1.27163
1.27192
1.26533
1.23982
1.20266
1.17226
1.15136
1.13552
1.12516
1.11641
1.10722
1.09252
1.07517
1.06643
1.06271
1.06228
1.06971
1.08311
1.08542
1.08052
1.07053
1.0635
1.06099
1.0619
1.07788
1.11501
1.15695
1.20596
1.22414
1.22654
1.22328
1.206
1.17732
1.1582
1.15537
1.15549
1.15661
1.15828
1.15651
1.15405
1.15114
1.14278
1.12179
1.08194
1.04746
1.0398
1.03776
1.03633
1.03671
1.04564
1.05556
1.05419
1.05046
1.04736
1.04316
1.03435
1.01413
0.987425
0.977625
0.975416
0.973501
0.973215
0.975368
0.973002
0.971248
0.971642
0.971259
0.967173
0.960147
0.949979
0.933021
0.911641
0.899244
0.895371
0.896228
0.898314
0.902595
0.907569
0.907483
0.905666
0.901787
0.894351
0.883127
0.865793
0.853396
0.849213
0.848995
0.850103
0.853574
0.863006
0.872097
0.872985
0.870961
0.868364
0.863055
0.855544
0.843051
0.825022
3.97224
3.9255
3.87815
3.83073
3.77648
3.73324
3.68407
3.6353
3.58369
3.52623
3.49288
3.44912
3.40795
3.36383
3.31892
3.28762
3.24354
3.19942
3.15214
3.10417
3.05862
3.00934
2.96375
2.90949
2.87603
2.85296
2.82998
2.81023
2.80742
2.81228
2.84228
2.89514
2.97273
3.04868
3.08045
3.09794
3.09314
3.07189
3.04098
3.02174
3.00019
2.96646
2.93187
2.89092
2.86047
2.8609
2.86958
2.89545
2.92071
2.91787
2.89461
2.85277
2.79373
2.71446
2.62773
2.57131
2.54753
2.52559
2.50847
2.4924
2.47394
2.45528
2.42799
2.38627
2.33149
2.25775
2.19399
2.15347
2.1156
2.07821
2.04586
2.0081
1.96882
1.95684
1.95356
1.93639
1.91607
1.89506
1.87371
1.86239
1.84354
1.81631
1.79723
1.78456
1.76702
1.74532
1.71899
1.68667
1.65576
1.64735
1.63792
1.62516
1.61771
1.60384
1.57806
1.55211
1.52783
1.50205
1.49321
1.4918
1.48922
1.47741
1.46456
1.45386
1.44151
1.41997
1.38881
1.37199
1.3677
1.36393
1.35987
1.35054
1.32543
1.28947
1.26373
1.25585
1.25198
1.25333
1.25361
1.25002
1.24649
1.24031
1.22585
1.19371
1.16031
1.14686
1.14781
1.15472
1.17055
1.20201
1.25816
1.29067
1.29287
1.28919
1.26939
1.23252
1.2002
1.17983
1.16086
1.14544
1.13322
1.12091
1.10356
1.08394
1.07378
1.06988
1.06813
1.07315
1.0863
1.09201
1.08966
1.084
1.0757
1.06854
1.06468
1.06325
1.06955
1.09381
1.12576
1.1629
1.19621
1.20945
1.20905
1.19399
1.17475
1.17164
1.17577
1.18389
1.18266
1.17686
1.16992
1.16451
1.15773
1.14082
1.10332
1.0608
1.04823
1.0456
1.04397
1.04451
1.05356
1.06748
1.06882
1.06563
1.06235
1.05778
1.04784
1.02583
0.995897
0.983863
0.981523
0.980045
0.980744
0.986561
0.986114
0.983315
0.981736
0.979603
0.973659
0.965257
0.951557
0.931435
0.916603
0.908966
0.905204
0.905082
0.906509
0.909628
0.913247
0.912743
0.910851
0.906586
0.898732
0.885583
0.867025
0.856986
0.854116
0.85439
0.855867
0.860447
0.870248
0.876783
0.875839
0.873299
0.870152
0.864441
0.856286
0.841321
0.824685
0.817298
4.01127
3.96309
3.91602
3.86454
3.81489
3.77264
3.72268
3.67639
3.61612
3.57169
3.53199
3.48399
3.44212
3.38919
3.35122
3.31107
3.26271
3.21887
3.1664
3.12334
3.07735
3.03639
2.99544
2.95555
2.93534
2.90748
2.87783
2.84507
2.82585
2.81379
2.79646
2.79368
2.81886
2.87653
2.94313
3.00169
3.03096
3.03669
3.0326
3.03867
3.03993
3.01836
2.98863
2.95522
2.92278
2.91745
2.92155
2.94375
2.95659
2.9493
2.91886
2.87246
2.80987
2.72306
2.66216
2.6422
2.62127
2.59523
2.5763
2.55736
2.53151
2.50075
2.45899
2.40185
2.33467
2.25928
2.21083
2.17761
2.14019
2.10543
2.07609
2.03811
2.01416
2.00894
2.0009
1.97877
1.95726
1.928
1.90855
1.89516
1.87124
1.84623
1.83102
1.81379
1.78998
1.7646
1.73679
1.70535
1.68935
1.68343
1.67163
1.65998
1.64712
1.62371
1.59369
1.57051
1.54507
1.52974
1.52696
1.52665
1.51594
1.5
1.48687
1.47404
1.45365
1.42399
1.40845
1.40286
1.39659
1.39012
1.37941
1.35465
1.31926
1.29376
1.28646
1.28373
1.28663
1.28554
1.27888
1.2746
1.26877
1.25712
1.22618
1.18707
1.16918
1.16882
1.17304
1.18469
1.20873
1.25764
1.3058
1.31289
1.31133
1.29728
1.26436
1.23161
1.21138
1.19232
1.17418
1.15847
1.14267
1.12199
1.09729
1.08413
1.07914
1.07608
1.07773
1.0867
1.09279
1.09102
1.08666
1.08302
1.08041
1.07599
1.0688
1.06476
1.06643
1.07967
1.09256
1.10654
1.13493
1.165
1.17822
1.17657
1.17729
1.18823
1.20395
1.20922
1.20668
1.19755
1.18481
1.17244
1.15644
1.12596
1.08048
1.06073
1.05668
1.05427
1.05388
1.06292
1.08061
1.08444
1.08139
1.0782
1.07382
1.06336
1.0391
1.00478
0.989626
0.986994
0.985808
0.987747
0.996443
0.998434
0.99552
0.992728
0.988364
0.980529
0.970355
0.952766
0.930565
0.921241
0.917999
0.916315
0.914687
0.91417
0.915441
0.917597
0.917366
0.91557
0.91091
0.90318
0.8886
0.870847
0.862678
0.860594
0.860928
0.862474
0.867259
0.875741
0.879746
0.878349
0.875762
0.872095
0.865814
0.856436
0.839721
0.826057
0.820936
0.81922
4.05295
4.00384
3.95545
3.90026
3.85553
3.81015
3.76251
3.70954
3.65092
3.61285
3.56471
3.5192
3.46744
3.41884
3.38055
3.33106
3.28568
3.23353
3.18617
3.14611
3.10409
3.07211
3.03229
3.01075
2.98914
2.95798
2.92414
2.88678
2.85633
2.825
2.79406
2.76695
2.7446
2.74985
2.78946
2.85949
2.93253
2.97986
3.00644
3.02964
3.03976
3.02603
3.00726
2.98429
2.96141
2.95434
2.95575
2.9839
2.99406
2.98461
2.94836
2.90006
2.83479
2.76606
2.7393
2.7251
2.69925
2.66505
2.63957
2.61214
2.57211
2.52623
2.47071
2.40928
2.3363
2.27051
2.23682
2.20347
2.16871
2.13716
2.11065
2.08498
2.06922
2.06144
2.04441
2.02226
1.99548
1.95935
1.94324
1.9262
1.89998
1.87887
1.86163
1.83642
1.80927
1.78508
1.75762
1.73437
1.72533
1.71572
1.70453
1.69043
1.66977
1.63849
1.61283
1.59376
1.57166
1.56404
1.5629
1.55504
1.53821
1.52166
1.50672
1.48804
1.45988
1.44207
1.43818
1.43193
1.42233
1.4074
1.38137
1.34835
1.32411
1.31665
1.31334
1.31712
1.31748
1.30947
1.30425
1.29806
1.28751
1.26258
1.21915
1.19416
1.19211
1.19481
1.20224
1.22071
1.25779
1.313
1.33175
1.33189
1.32228
1.29446
1.26349
1.24325
1.22377
1.2051
1.18869
1.17249
1.15157
1.12068
1.10112
1.09477
1.08944
1.08757
1.0924
1.0947
1.09201
1.08905
1.08525
1.08146
1.07798
1.07219
1.06519
1.05939
1.05789
1.06001
1.06016
1.05722
1.06882
1.09813
1.13063
1.15266
1.1709
1.19993
1.21958
1.22186
1.22108
1.21214
1.19349
1.17177
1.14599
1.10633
1.0771
1.07106
1.06781
1.06634
1.07391
1.09528
1.10283
1.09921
1.09507
1.09018
1.07928
1.05379
1.01527
0.996655
0.993217
0.992115
0.994812
1.00498
1.00868
1.0056
1.00166
0.995836
0.987329
0.975813
0.955251
0.932601
0.925684
0.924522
0.925817
0.924905
0.922112
0.920953
0.921547
0.921209
0.919639
0.915103
0.906829
0.891994
0.877518
0.870212
0.868507
0.868721
0.869905
0.873321
0.880046
0.882111
0.880616
0.878668
0.875065
0.867996
0.856476
0.839708
0.829822
0.826101
0.824928
0.824933
4.09635
4.04608
3.99342
3.93848
3.89412
3.84495
3.79674
3.73486
3.68787
3.64513
3.5949
3.54824
3.49224
3.45084
3.40488
3.35593
3.30966
3.25439
3.21726
3.17608
3.14386
3.10978
3.07834
3.06152
3.03216
3.00156
2.96413
2.9278
2.89016
2.84476
2.80019
2.75429
2.72844
2.72266
2.72102
2.7498
2.81609
2.89502
2.9539
2.99808
3.01498
3.01022
2.99901
2.97984
2.9641
2.95972
2.98234
3.02594
3.04249
3.03084
2.99055
2.94888
2.89577
2.8585
2.83534
2.80718
2.77357
2.72771
2.68759
2.64849
2.59711
2.53703
2.47617
2.41708
2.34144
2.29442
2.26721
2.23524
2.20394
2.17396
2.15553
2.14268
2.12854
2.10913
2.08606
2.06304
2.02698
1.99089
1.97678
1.9569
1.93176
1.9108
1.88626
1.85427
1.8322
1.81001
1.78351
1.77004
1.75774
1.74522
1.7337
1.71451
1.68663
1.65517
1.64013
1.62291
1.60516
1.59987
1.59354
1.57745
1.55847
1.54078
1.52294
1.50004
1.4779
1.47224
1.46743
1.45776
1.43884
1.40803
1.375
1.35417
1.34806
1.34427
1.34496
1.34578
1.33823
1.33043
1.32503
1.31509
1.29722
1.25722
1.22291
1.21776
1.21953
1.22344
1.23699
1.26666
1.31611
1.34863
1.35163
1.34632
1.32299
1.29366
1.27472
1.25483
1.23488
1.21827
1.20233
1.18412
1.1549
1.12641
1.1172
1.1115
1.10751
1.10802
1.10586
1.09822
1.09328
1.09069
1.08661
1.07903
1.0703
1.06409
1.05763
1.05035
1.0433
1.03623
1.03104
1.02594
1.02472
1.03988
1.07303
1.11253
1.1512
1.19333
1.21587
1.21941
1.2202
1.21397
1.19385
1.16638
1.13298
1.09835
1.08741
1.08543
1.08548
1.09326
1.11049
1.12094
1.11896
1.11443
1.10799
1.09478
1.06802
1.02733
1.00577
1.00136
0.999868
1.00138
1.011
1.01495
1.01146
1.00698
1.00117
0.993509
0.981567
0.958684
0.935715
0.929686
0.929088
0.930282
0.933063
0.931571
0.928043
0.926232
0.925159
0.923274
0.918842
0.910682
0.895183
0.88373
0.879419
0.877871
0.877283
0.877775
0.879132
0.883134
0.885082
0.883516
0.881823
0.87868
0.871464
0.858329
0.842663
0.835089
0.832596
0.831733
0.833578
0.843459
4.13986
4.08763
4.0281
3.97515
3.92673
3.8767
3.82132
3.7601
3.72012
3.67147
3.62467
3.57063
3.52145
3.48011
3.42968
3.38612
3.33058
3.28782
3.25256
3.21593
3.18702
3.14818
3.1283
3.10297
3.06967
3.03687
2.99834
2.96269
2.91736
2.86645
2.81705
2.75773
2.73245
2.7261
2.71756
2.71628
2.74029
2.80105
2.86869
2.9259
2.9642
2.97502
2.97163
2.961
2.9498
2.9473
3.00017
3.06789
3.09594
3.08565
3.06191
3.04316
3.00724
2.96829
2.92782
2.88304
2.83322
2.77679
2.72274
2.67329
2.61314
2.54041
2.48126
2.42747
2.35997
2.32668
2.30406
2.2765
2.24684
2.2224
2.20901
2.19962
2.18103
2.15267
2.12554
2.09914
2.05568
2.02308
2.00896
1.98842
1.96429
1.93881
1.90356
1.87734
1.86089
1.83672
1.81496
1.80503
1.78714
1.77189
1.75781
1.73406
1.7033
1.68253
1.67229
1.6556
1.64066
1.63061
1.61543
1.5956
1.57592
1.55686
1.53954
1.52091
1.50918
1.50313
1.49437
1.47483
1.43901
1.40254
1.38361
1.37915
1.37784
1.37621
1.37245
1.36575
1.35676
1.34824
1.33925
1.32437
1.29667
1.25519
1.2444
1.24481
1.24723
1.25486
1.28168
1.32003
1.36219
1.37312
1.37091
1.3537
1.32517
1.30743
1.28868
1.26607
1.24802
1.23173
1.21411
1.18686
1.15411
1.14101
1.13502
1.13048
1.12926
1.12728
1.12123
1.11207
1.10389
1.09871
1.08952
1.0706
1.0549
1.04838
1.04281
1.03588
1.0278
1.02007
1.01244
1.00356
0.99723
0.998499
1.01655
1.05214
1.10022
1.15908
1.19586
1.20665
1.21071
1.20854
1.19148
1.15682
1.12172
1.10556
1.10454
1.10649
1.11966
1.13529
1.13754
1.13534
1.13225
1.12474
1.1095
1.08211
1.03945
1.01552
1.01066
1.00849
1.00781
1.01316
1.01732
1.01421
1.00943
1.0044
0.998162
0.987123
0.963547
0.939315
0.933443
0.932997
0.933769
0.936274
0.938757
0.936151
0.932748
0.93033
0.927681
0.923126
0.91469
0.899222
0.888965
0.886919
0.887385
0.886368
0.885176
0.885076
0.886157
0.888165
0.887294
0.885606
0.882617
0.875616
0.861909
0.847949
0.841873
0.840193
0.840096
0.845517
0.86027
0.8772
4.18162
4.12492
4.06364
4.0113
3.95733
3.90438
3.83988
3.79313
3.74993
3.69944
3.65162
3.59645
3.55624
3.50912
3.46297
3.41629
3.3626
3.33082
3.29288
3.26311
3.22525
3.19331
3.17291
3.13764
3.10509
3.06571
3.02862
2.98905
2.9371
2.88818
2.83717
2.77984
2.76365
2.74787
2.73002
2.71822
2.71769
2.72738
2.76458
2.81397
2.85576
2.88738
2.90105
2.90573
2.9035
2.91912
2.99048
3.09217
3.14443
3.16258
3.16802
3.16207
3.1248
3.07027
3.00951
2.9472
2.88013
2.81364
2.75152
2.68965
2.62323
2.54944
2.4893
2.44611
2.39635
2.36688
2.34915
2.32734
2.2983
2.27936
2.26657
2.25075
2.22596
2.19119
2.15884
2.13009
2.08802
2.05659
2.0407
2.02077
1.99519
1.96013
1.92306
1.90845
1.89072
1.86354
1.84903
1.83703
1.81404
1.79614
1.77898
1.75429
1.72929
1.71571
1.70311
1.68865
1.67206
1.65325
1.63181
1.61129
1.59162
1.57403
1.5625
1.5514
1.54158
1.53146
1.51294
1.4753
1.43378
1.41496
1.41079
1.41048
1.41047
1.40291
1.3945
1.38513
1.37367
1.3629
1.34912
1.32973
1.2949
1.27074
1.26894
1.26972
1.27372
1.29528
1.33184
1.3658
1.39256
1.39528
1.3855
1.36073
1.34357
1.32736
1.30367
1.2826
1.2649
1.24505
1.21545
1.17884
1.16092
1.15553
1.15141
1.14928
1.1485
1.14508
1.14032
1.13304
1.12219
1.10749
1.08633
1.05542
1.03991
1.03559
1.03078
1.02416
1.01673
1.01035
1.00369
0.996109
0.982631
0.970586
0.972033
0.988695
1.02478
1.07963
1.13335
1.15647
1.17072
1.17422
1.16604
1.13636
1.11671
1.11658
1.12256
1.13952
1.16017
1.15931
1.1514
1.14398
1.13497
1.12186
1.09693
1.05153
1.02219
1.01705
1.01462
1.01288
1.01463
1.01725
1.01495
1.0112
1.00671
1.00088
0.99091
0.969159
0.94402
0.937417
0.936728
0.937088
0.938234
0.942492
0.942851
0.939628
0.936529
0.933426
0.92884
0.920185
0.90485
0.893919
0.89222
0.893823
0.895119
0.893247
0.891533
0.891082
0.891643
0.891611
0.890115
0.886987
0.879954
0.867462
0.85575
0.850467
0.849094
0.850211
0.859626
0.877811
0.890672
0.89209
4.21621
4.15399
4.09586
4.04147
3.98725
3.92736
3.86745
3.82775
3.77886
3.73298
3.67838
3.63203
3.5919
3.5434
3.50216
3.44585
3.40834
3.37536
3.33992
3.30672
3.26352
3.24128
3.2102
3.17196
3.13441
3.09057
3.05379
3.00665
2.95502
2.91354
2.86212
2.82815
2.81201
2.78545
2.7635
2.73743
2.71823
2.71596
2.70571
2.71076
2.72326
2.74272
2.76802
2.79611
2.82138
2.86297
2.95383
3.07394
3.17984
3.23504
3.26117
3.25219
3.21214
3.15144
3.07823
3.00073
2.92191
2.84675
2.77654
2.70227
2.63125
2.56646
2.50998
2.47694
2.447
2.41887
2.40215
2.38397
2.35674
2.33833
2.32069
2.29496
2.26273
2.22549
2.18913
2.15793
2.12379
2.09255
2.07312
2.0531
2.0236
1.97845
1.95307
1.94123
1.91779
1.89265
1.88042
1.86445
1.83943
1.82044
1.80203
1.7811
1.76349
1.74914
1.73182
1.71429
1.69483
1.67025
1.64632
1.62823
1.61108
1.59896
1.59157
1.58242
1.57004
1.55037
1.51434
1.46925
1.44759
1.44415
1.44431
1.4432
1.43502
1.42614
1.41591
1.40418
1.3915
1.37803
1.36068
1.33734
1.30335
1.29349
1.29204
1.29302
1.30555
1.34255
1.3703
1.40181
1.41573
1.41207
1.39396
1.37944
1.3677
1.34713
1.32387
1.30406
1.28202
1.24954
1.20681
1.18088
1.17448
1.16993
1.16737
1.16747
1.1677
1.16491
1.15949
1.15176
1.13442
1.10456
1.07061
1.0436
1.03421
1.03064
1.02641
1.02019
1.01308
1.00645
0.999773
0.991584
0.979083
0.960058
0.944881
0.946309
0.958721
0.984299
1.0173
1.04489
1.06758
1.09256
1.116
1.11191
1.10712
1.11642
1.13722
1.1641
1.17537
1.16987
1.15736
1.14331
1.12989
1.1077
1.06326
1.02668
1.01883
1.01587
1.01407
1.0154
1.01734
1.01481
1.01219
1.00866
1.00328
0.993406
0.973594
0.949907
0.942393
0.941327
0.941098
0.941299
0.943624
0.947831
0.946463
0.942803
0.93956
0.935415
0.927252
0.912827
0.900016
0.897279
0.898207
0.900661
0.901855
0.899843
0.898124
0.897525
0.897281
0.895772
0.892504
0.884903
0.87289
0.863804
0.860599
0.859647
0.862411
0.874665
0.89187
0.898659
0.897083
0.891289
4.24402
4.18286
4.12698
4.07039
4.01514
3.95162
3.90649
3.86087
3.81075
3.76232
3.70861
3.67132
3.62529
3.58258
3.5353
3.48577
3.45721
3.41904
3.38683
3.34351
3.30836
3.28172
3.24053
3.20339
3.15705
3.11451
3.07373
3.0209
2.97892
2.93971
2.89679
2.88192
2.85964
2.82932
2.80263
2.76456
2.74048
2.72339
2.70037
2.67714
2.65243
2.63351
2.64037
2.66399
2.71255
2.78031
2.89791
3.04032
3.17402
3.26396
3.30028
3.29201
3.25786
3.20352
3.13093
3.04692
2.96145
2.87923
2.79827
2.71916
2.65
2.59567
2.55271
2.52577
2.50708
2.48447
2.46237
2.44176
2.41603
2.39225
2.36656
2.33187
2.29247
2.25676
2.22104
2.18674
2.15915
2.13091
2.10706
2.08458
2.04945
2.0043
1.98797
1.97134
1.94455
1.92374
1.90696
1.88797
1.86508
1.84677
1.83081
1.81397
1.79744
1.78004
1.75831
1.7339
1.71057
1.6853
1.66381
1.65039
1.63887
1.62982
1.62138
1.60989
1.58911
1.55236
1.50698
1.4817
1.47775
1.47741
1.47659
1.4683
1.45733
1.44624
1.43506
1.42349
1.41183
1.397
1.37882
1.35096
1.3227
1.31676
1.31581
1.32137
1.34968
1.37755
1.40201
1.42964
1.43167
1.42179
1.4103
1.40366
1.38969
1.36756
1.34649
1.32433
1.29175
1.24349
1.2079
1.19878
1.19288
1.18889
1.18885
1.18865
1.18617
1.18129
1.17498
1.16248
1.12968
1.08137
1.05938
1.04948
1.0381
1.03097
1.02624
1.02023
1.01292
1.00548
0.998047
0.989005
0.976067
0.957287
0.939993
0.930684
0.927446
0.927143
0.926749
0.93003
0.945882
0.976224
1.02694
1.07486
1.0924
1.10716
1.13681
1.16613
1.17323
1.1686
1.156
1.13953
1.11577
1.07207
1.02839
1.01802
1.01496
1.01284
1.01408
1.01775
1.01551
1.01244
1.00966
1.00544
0.996594
0.977554
0.955382
0.947766
0.947056
0.946849
0.946586