/*--------------------------------*- C++ -*----------------------------------*\
  =========                 |
  \\      /  F ield         | OpenFOAM: The Open Source CFD Toolbox
   \\    /   O peration     | Website:  https://openfoam.org
    \\  /    A nd           | Version:  7
     \\/     M anipulation  |
\*---------------------------------------------------------------------------*/
FoamFile
{
    version     2.0;
    format      ascii;
    class       volScalarField;
    location    "0.5";
    object      rho;
}
// * * * * * * * * * * * * * * * * * * * * * * * * * * * * * * * * * * * * * //

dimensions      [1 -3 0 0 0 0 0];

internalField   nonuniform List<scalar> 
16192
(
4.05306
3.98735
3.93085
3.87899
3.8289
3.79546
3.7661
3.73764
3.70614
3.66667
3.61929
3.56519
3.50357
3.43711
3.36677
3.29175
3.21702
3.14421
3.07342
3.00619
2.94309
4.08646
4.01599
3.9529
3.89904
3.84854
3.81121
3.77665
3.74665
3.71451
3.67896
3.638
3.59079
3.53575
3.47455
3.40618
3.32982
3.25177
3.17595
3.10277
3.03594
2.9746
4.12043
4.04886
3.9825
3.92203
3.86757
3.82219
3.78047
3.74564
3.72013
3.69402
3.65981
3.61679
3.56497
3.50503
3.43745
3.3626
3.28495
3.20835
3.13429
3.06755
3.00641
4.14322
4.07584
4.01133
3.94689
3.88839
3.83654
3.78981
3.75351
3.73243
3.70876
3.67798
3.63801
3.58738
3.52821
3.46193
3.39036
3.31689
3.24201
3.16797
3.10158
3.03989
4.17118
4.10576
4.04232
3.97696
3.91466
3.85499
3.80095
3.76087
3.73875
3.71816
3.69251
3.6566
3.60658
3.5466
3.48129
3.41466
3.34715
3.27671
3.20298
3.13492
3.07191
4.19878
4.13081
4.06773
4.00587
3.94226
3.87696
3.81543
3.77324
3.7509
3.73154
3.70762
3.67176
3.62196
3.5627
3.49985
3.43725
3.37462
3.30903
3.23804
3.16881
3.10335
4.18971
4.15577
4.09395
4.03339
3.97025
3.90547
3.83881
3.79298
3.76531
3.74082
3.71633
3.68257
3.63755
3.5828
3.52224
3.46077
3.40019
3.33667
3.26866
3.20086
3.13487
4.21182
4.18659
4.11734
4.05393
3.99525
3.93529
3.86671
3.81564
3.78189
3.7543
3.72796
3.69817
3.658
3.60664
3.54699
3.48471
3.42254
3.35961
3.29582
3.23081
3.16558
4.06111
4.16478
4.13135
4.07448
4.02107
3.96649
3.90038
3.84287
3.8004
3.7692
3.74075
3.71187
3.67716
3.63036
3.57244
3.50888
3.44448
3.38137
3.32087
3.25876
3.19459
3.93651
4.19
4.16336
4.10006
4.04323
3.99137
3.93261
3.87268
3.82037
3.78372
3.75637
3.73068
3.69954
3.65463
3.59599
3.52973
3.46431
3.4035
3.34508
3.28472
3.22125
3.36188
4.05312
4.14104
4.11314
4.06609
4.01594
3.96213
3.90305
3.84534
3.80205
3.77568
3.75202
3.71911
3.67491
3.6159
3.54889
3.48488
3.42698
3.36922
3.30852
3.24413
2.42628
3.93857
4.17213
4.14891
4.09357
4.03715
3.98791
3.93307
3.87499
3.82208
3.79637
3.77553
3.74065
3.69452
3.63698
3.57148
3.50871
3.44968
3.39017
3.32907
3.26391
1.67274
3.39042
4.04359
4.1258
4.10393
4.05555
4.01229
3.96137
3.90628
3.84572
3.81479
3.79093
3.75573
3.71172
3.65726
3.59506
3.53354
3.47267
3.41042
3.34766
3.28179
1.42311
2.46086
3.93692
4.15521
4.13353
4.08467
4.03269
3.98556
3.93379
3.87004
3.83074
3.80122
3.76783
3.72922
3.67995
3.62257
3.56138
3.49732
3.43194
3.36614
3.29914
1.40064
1.69173
3.40514
4.02911
4.10583
4.08025
4.04266
4.0057
3.95638
3.89221
3.84425
3.81134
3.78073
3.74656
3.7028
3.65085
3.59013
3.52316
3.45436
3.38619
3.31938
1.40001
1.42602
2.47671
3.92455
4.13323
4.10716
4.06484
4.02084
3.97239
3.91124
3.85877
3.81747
3.78876
3.76155
3.72681
3.68041
3.62
3.55155
3.48054
3.41119
3.34491
1.40001
1.40076
1.6991
3.39719
4.004
4.07723
4.05869
4.02889
3.98689
3.93106
3.87539
3.82822
3.79891
3.77561
3.74873
3.70725
3.64888
3.58083
3.50858
3.43994
3.37522
1.40001
1.40001
1.42708
2.46365
3.89545
4.10653
4.08526
4.0473
4.00271
3.95137
3.8939
3.84354
3.80886
3.78975
3.76839
3.72929
3.67462
3.61019
3.53991
3.47437
3.41092
1.40001
1.40001
1.4008
1.68856
3.35806
3.96723
4.0533
4.05138
4.01785
3.9723
3.91648
3.86385
3.82265
3.80393
3.78239
3.74623
3.69859
3.63926
3.57349
3.51266
3.45006
1.40001
1.40001
1.40001
1.42534
2.42625
3.84589
4.08939
4.07709
4.03885
3.99362
3.94235
3.88623
3.83827
3.81739
3.79356
3.75972
3.71929
3.66649
3.60739
3.55034
3.48849
1.40001
1.40001
1.40001
1.40074
1.66943
3.29478
3.93725
4.05205
4.04899
4.0137
3.96783
3.90849
3.85508
3.83084
3.80485
3.77415
3.73945
3.69166
3.63983
3.58506
3.52353
1.40001
1.40001
1.40001
1.40001
1.42272
2.37236
3.79054
4.08312
4.07546
4.0391
3.99392
3.92969
3.87154
3.84253
3.81445
3.78802
3.75734
3.71372
3.66468
3.61057
3.55178
1.40001
1.40001
1.40001
1.40001
1.40065
1.64311
3.20131
3.92731
4.06136
4.05211
4.01468
3.94864
3.88888
3.85751
3.82885
3.80412
3.77373
3.73267
3.68461
3.6308
3.57395
1.40001
1.40001
1.40001
1.40001
1.40001
1.41902
2.28685
3.74038
4.08206
4.07462
4.03586
3.96797
3.90279
3.86972
3.84379
3.81933
3.78792
3.74767
3.69982
3.64751
3.59275
1.40001
1.40001
1.40001
1.40001
1.40001
1.40051
1.6032
3.08908
3.94072
4.06234
4.04715
3.98911
3.92034
3.88706
3.86262
3.8365
3.80379
3.76341
3.71485
3.66257
3.60838
1.40001
1.40001
1.40001
1.40001
1.40001
1.40001
1.4142
2.18176
3.69063
4.06754
4.05938
4.0049
3.93185
3.89051
3.87381
3.85162
3.82019
3.78017
3.73179
3.67922
3.6249
1.40001
1.40001
1.40001
1.40001
1.40001
1.40001
1.40035
1.56052
2.96411
3.93461
4.05837
4.02698
3.95532
3.90203
3.88377
3.86731
3.83992
3.80011
3.75271
3.69879
3.64374
1.40001
1.40001
1.40001
1.40001
1.40001
1.40001
1.40001
1.41002
2.07289
3.61583
4.04421
4.01737
3.94756
3.90318
3.88869
3.87769
3.85499
3.8185
3.77554
3.7225
3.66853
1.40001
1.40001
1.40001
1.40001
1.40001
1.40001
1.40001
1.40023
1.52277
2.81593
3.91545
4.02764
3.977
3.92475
3.90333
3.88972
3.86857
3.83594
3.79825
3.7476
3.6967
1.40001
1.40001
1.40001
1.40001
1.40001
1.40001
1.40001
1.40001
1.40688
1.93925
3.53035
3.98654
3.9335
3.91117
3.90272
3.90192
3.88125
3.85144
3.8185
3.77075
3.72247
1.40001
1.40001
1.40001
1.40001
1.40001
1.40001
1.40001
1.40001
1.40014
1.48056
2.6765
3.85572
3.95838
3.9441
3.92968
3.91775
3.89083
3.86484
3.83359
3.78736
3.74101
1.40001
1.40001
1.40001
1.40001
1.40001
1.40001
1.40001
1.40001
1.40001
1.40377
1.82221
3.42582
3.85371
3.90465
3.93026
3.93123
3.90291
3.87746
3.84722
3.80117
3.75522
1.40001
1.40001
1.40001
1.40001
1.40001
1.40001
1.40001
1.40001
1.40001
1.40007
1.44996
2.54376
3.70563
3.9426
3.96186
3.94662
3.91685
3.88985
3.85177
3.80029
3.76133
1.40001
1.40001
1.40001
1.40001
1.40001
1.40001
1.40001
1.40001
1.40001
1.40001
1.40196
1.73123
3.18436
3.84675
3.98005
3.96328
3.93103
3.89955
3.859
3.80408
3.76873
1.40001
1.40001
1.40001
1.40001
1.40001
1.40001
1.40001
1.40001
1.40001
1.40003
1.43132
2.3007
3.5915
3.99488
3.99436
3.95765
3.91104
3.85621
3.79927
3.77167
1.40001
1.40001
1.40001
1.40001
1.40001
1.40001
1.40001
1.40001
1.40001
1.40001
1.40097
1.60506
2.89328
3.90668
3.98249
3.96239
3.92661
3.86685
3.81011
3.78389
1.40001
1.40001
1.40001
1.40001
1.40001
1.40001
1.40001
1.40001
1.40001
1.40001
1.40001
1.41382
2.01112
3.4906
3.98499
3.96379
3.90687
3.84323
3.81002
3.79662
1.40001
1.40001
1.40001
1.40001
1.40001
1.40001
1.40001
1.40001
1.40001
1.40001
1.40001
1.4003
1.49822
2.62319
3.86239
3.96492
3.9196
3.84653
3.82454
3.81383
1.40001
1.40001
1.40001
1.40001
1.40001
1.40001
1.40001
1.40001
1.40001
1.40001
1.40001
1.40001
1.40489
1.80908
3.402
3.87926
3.87167
3.84033
3.84318
3.82723
1.40001
1.40001
1.40001
1.40001
1.40001
1.40001
1.40001
1.40001
1.40001
1.40001
1.40001
1.40001
1.4001
1.45318
2.49439
3.72574
3.8493
3.86034
3.86074
3.82893
1.40001
1.40001
1.40001
1.40001
1.40001
1.40001
1.40001
1.40001
1.40001
1.40001
1.40001
1.40001
1.40001
1.40246
1.70759
3.20952
3.76661
3.87317
3.86591
3.82863
1.40001
1.40001
1.40001
1.40001
1.40001
1.40001
1.40001
1.40001
1.40001
1.40001
1.40001
1.40001
1.40001
1.40005
1.43048
2.30088
3.50146
3.88205
3.87422
3.84482
1.40001
1.40001
1.40001
1.40001
1.40001
1.40001
1.40001
1.40001
1.40001
1.40001
1.40001
1.40001
1.40001
1.40001
1.40103
1.60079
2.8351
3.72604
3.89937
3.88466
1.40001
1.40001
1.40001
1.40001
1.40001
1.40001
1.40001
1.40001
1.40001
1.40001
1.40001
1.40001
1.40001
1.40001
1.40002
1.41362
1.93442
3.17933
3.87468
3.92604
1.40001
1.40001
1.40001
1.40001
1.40001
1.40001
1.40001
1.40001
1.40001
1.40001
1.40001
1.40001
1.40001
1.40001
1.40001
1.40027
1.46419
2.33735
3.62523
3.93375
1.40001
1.40001
1.40001
1.40001
1.40001
1.40001
1.40001
1.40001
1.40001
1.40001
1.40001
1.40001
1.40001
1.40001
1.40001
1.40001
1.40208
1.62533
2.89612
3.7786
1.40001
1.40001
1.40001
1.40001
1.40001
1.40001
1.40001
1.40001
1.40001
1.40001
1.40001
1.40001
1.40001
1.40001
1.40001
1.40001
1.40002
1.41533
2.07773
3.34959
1.40001
1.40001
1.40001
1.40001
1.40001
1.40001
1.40001
1.40001
1.40001
1.40001
1.40001
1.40001
1.40001
1.40001
1.40001
1.40001
1.40001
1.40037
1.53735
2.62076
1.40001
1.40001
1.40001
1.40001
1.40001
1.40001
1.40001
1.40001
1.40001
1.40001
1.40001
1.40001
1.40001
1.40001
1.40001
1.40001
1.40001
1.40001
1.40961
1.81385
1.40001
1.40001
1.40001
1.40001
1.40001
1.40001
1.40001
1.40001
1.40001
1.40001
1.40001
1.40001
1.40001
1.40001
1.40001
1.40001
1.40001
1.40001
1.40025
1.45504
1.40001
1.40001
1.40001
1.40001
1.40001
1.40001
1.40001
1.40001
1.40001
1.40001
1.40001
1.40001
1.40001
1.40001
1.40001
1.40001
1.40001
1.40001
1.40001
1.40263
1.40001
1.40001
1.40001
1.40001
1.40001
1.40001
1.40001
1.40001
1.40001
1.40001
1.40001
1.40001
1.40001
1.40001
1.40001
1.40001
1.40001
1.40001
1.40001
1.40004
1.40001
1.40001
1.40001
1.40001
1.40001
1.40001
1.40001
1.40001
1.40001
1.40001
1.40001
1.40001
1.40001
1.40001
1.40001
1.40001
1.40001
1.40001
1.40001
1.40001
1.40001
1.40001
1.40001
1.40001
1.40001
1.40001
1.40001
1.40001
1.40001
1.40001
1.40001
1.40001
1.40001
1.40001
1.40001
1.40001
1.40001
1.40001
1.40001
1.40001
1.40001
1.40001
1.40001
1.40001
1.40001
1.40001
1.40001
1.40001
1.40001
1.40001
1.40001
1.40001
1.40001
1.40001
1.40001
1.40001
1.40001
1.40001
1.40001
1.40001
1.40001
1.40001
1.40001
1.40001
1.40001
1.40001
1.40001
1.40001
1.40001
1.40001
1.40001
1.40001
1.40001
1.40001
1.40001
1.40001
1.40001
1.40001
1.40001
1.40001
1.40001
1.40001
1.40001
1.40001
1.40001
1.40001
1.40001
1.40001
1.40001
1.40001
1.40001
1.40001
1.40001
1.40001
1.40001
1.40001
1.40001
1.40001
1.40001
1.40001
1.40001
1.40001
1.40001
1.40001
1.40001
1.40001
1.40001
1.40001
1.40001
1.40001
1.40001
1.40001
1.40001
1.40001
1.40001
1.40001
1.40001
1.40001
1.40001
1.40001
1.40001
1.40001
1.40001
1.40001
1.40001
1.40001
1.40001
1.40001
1.40001
1.40001
1.40001
1.40001
1.40001
1.40001
1.40001
1.40001
1.40001
1.40001
1.40001
1.40001
1.40001
1.40001
1.40001
1.40001
1.40001
1.40001
1.40001
1.40001
1.40001
1.40001
1.40001
1.40001
1.40001
1.40001
1.40001
1.40001
1.40001
1.40001
1.40001
1.40001
1.40001
1.40001
1.40001
1.40001
1.40001
1.40001
1.40001
1.40001
1.40001
1.40001
1.40001
1.40001
1.40001
1.40001
1.40001
1.40001
1.40001
1.40001
1.40001
1.40001
1.40001
1.40001
1.40001
1.40001
1.40001
1.40001
1.40001
1.40001
1.40001
1.40001
1.40001
1.40001
1.40001
1.40001
1.40001
1.40001
1.40001
1.40001
1.40001
1.40001
1.40001
1.40001
1.40001
1.40001
1.40001
1.40001
1.40001
1.40001
1.40001
1.40001
1.40001
1.40001
1.40001
1.40001
1.40001
1.40001
1.40001
1.40001
1.40001
1.40001
1.40001
1.40001
1.40001
1.40001
1.40001
1.40001
1.40001
1.40001
1.40001
1.40001
1.40001
1.40001
1.40001
1.40001
1.40001
1.40001
1.40001
1.40001
1.40001
1.40001
1.40001
1.40001
1.40001
1.40001
1.40001
1.40001
1.40001
1.40001
1.40001
1.40001
1.40001
1.40001
1.40001
1.40001
1.40001
1.40001
1.40001
1.40001
1.40001
1.40001
1.06922
1.06786
1.06375
1.0522
1.03427
1.02425
1.02178
1.01937
1.01679
1.01501
1.01386
1.0137
1.01602
1.01521
1.01224
1.00912
1.00436
0.996593
0.986173
0.968822
0.946479
0.933556
0.929426
0.927968
0.927562
0.930147
0.93232
0.930731
0.928426
0.925545
0.920157
0.912906
0.90202
0.890321
0.884701
0.882251
0.881141
0.880783
0.88326
0.889554
0.893372
0.892567
2.89757
2.86716
2.83802
2.81035
2.78095
2.75287
2.72034
2.69346
2.66468
2.63423
2.60646
2.57154
2.54788
2.52456
2.49976
2.47976
2.4556
2.43745
2.41504
2.38829
2.35929
2.33344
2.31205
2.29243
2.27431
2.28344
2.32372
2.39211
2.44885
2.47603
2.48312
2.48279
2.47564
2.45962
2.43622
2.40454
2.36564
2.32736
2.28652
2.24694
2.2117
2.16915
2.11972
2.08362
2.06846
2.06941
2.08333
2.10001
2.12287
2.13779
2.13794
2.13208
2.1141
2.08693
2.05794
2.02533
1.97947
1.93133
1.89194
1.86496
1.8511
1.84271
1.83254
1.82085
1.80999
1.7925
1.77661
1.75728
1.72796
1.70593
1.68419
1.66089
1.64173
1.62463
1.60086
1.57819
1.56101
1.54639
1.54139
1.5348
1.52602
1.51972
1.50956
1.49337
1.47958
1.47333
1.46534
1.4576
1.44805
1.43142
1.40793
1.39288
1.38399
1.37451
1.37009
1.36664
1.35834
1.34758
1.337
1.32531
1.30954
1.29459
1.28875
1.2864
1.28408
1.27956
1.27432
1.26696
1.25247
1.22841
1.21614
1.21455
1.21328
1.20946
1.20474
1.19825
1.18425
1.16336
1.14775
1.14468
1.14421
1.14891
1.15427
1.15202
1.14575
1.13715
1.12538
1.10957
1.09626
1.09547
1.10247
1.11827
1.14492
1.18308
1.20475
1.20669
1.20577
1.19662
1.17677
1.15221
1.13341
1.12646
1.12323
1.11967
1.11494
1.10863
1.09824
1.08627
1.08042
1.07874
1.07889
1.08596
1.10259
1.11785
1.13563
1.16883
1.18977
1.2004
1.2105
1.21712
1.2249
1.2302
1.22663
1.21995
1.21389
1.20333
1.18426
1.16304
1.15196
1.14769
1.14646
1.14687
1.14994
1.15084
1.14816
1.14493
1.1397
1.12871
1.10876
1.09154
1.08679
1.08432
1.08278
1.0817
1.07964
1.07883
1.07946
1.08115
1.0808
1.07819
1.06885
1.04997
1.03628
1.03348
1.03156
1.02898
1.02654
1.02515
1.02464
1.02593
1.02585
1.02316
1.02009
1.01484
1.00689
0.995025
0.975321
0.953871
0.943878
0.940622
0.9395
0.939819
0.943589
0.94533
0.943179
0.940184
0.935707
0.929079
0.920114
0.907286
0.897541
0.893517
0.891791
0.890916
0.891668
0.896738
0.903515
0.905683
0.904383
0.901694
2.92941
2.89892
2.87086
2.84115
2.81239
2.78074
2.74971
2.72177
2.68941
2.66101
2.62747
2.59793
2.57811
2.55225
2.53145
2.5069
2.48641
2.46808
2.44289
2.41688
2.3867
2.35554
2.32537
2.29541
2.2689
2.25762
2.26073
2.29566
2.36096
2.42144
2.46446
2.48227
2.48001
2.47147
2.45546
2.43399
2.40121
2.36106
2.31729
2.27549
2.23588
2.18345
2.14589
2.12183
2.11142
2.11461
2.13142
2.14541
2.16893
2.17842
2.17664
2.16754
2.14576
2.11458
2.07894
2.03401
1.98133
1.93585
1.91048
1.90037
1.89057
1.87897
1.86801
1.8582
1.84235
1.82366
1.80711
1.77779
1.74556
1.7237
1.7003
1.6781
1.65944
1.63853
1.61235
1.59813
1.58617
1.57698
1.57077
1.56174
1.55482
1.54671
1.53195
1.51479
1.50638
1.49904
1.48967
1.48011
1.46556
1.44256
1.4219
1.41346
1.40479
1.39894
1.39611
1.38907
1.37722
1.3649
1.35211
1.33612
1.32189
1.31653
1.31409
1.31166
1.30705
1.3021
1.29579
1.28327
1.25866
1.24129
1.23855
1.23735
1.23404
1.22897
1.22171
1.20684
1.18522
1.16906
1.16552
1.16474
1.16866
1.17503
1.17425
1.16931
1.16057
1.14701
1.1291
1.1139
1.11137
1.11629
1.12897
1.15179
1.18891
1.21767
1.22144
1.221
1.21352
1.19391
1.1716
1.15035
1.14073
1.13648
1.13324
1.12829
1.1217
1.11128
1.09995
1.09434
1.09205
1.09087
1.09347
1.10383
1.11426
1.11907
1.12433
1.14288
1.17077
1.19123
1.21341
1.23512
1.24514
1.24504
1.2401
1.22954
1.21625
1.19864
1.17743
1.16753
1.16443
1.16266
1.16415
1.16876
1.16924
1.16623
1.16173
1.15431
1.14046
1.11644
1.09827
1.0936
1.09127
1.08957
1.08993
1.09238
1.09151
1.09082
1.09191
1.09261
1.09125
1.08441
1.0676
1.05018
1.04544
1.04349
1.04152
1.03915
1.03685
1.03561
1.03572
1.03583
1.03337
1.03002
1.02448
1.0167
1.00352
0.982194
0.963213
0.955443
0.952958
0.951979
0.952839
0.956933
0.957969
0.955515
0.95179
0.945775
0.938025
0.926974
0.913222
0.905732
0.902794
0.901538
0.901068
0.903801
0.911093
0.916787
0.917029
0.915197
0.911913
0.90592
2.96044
2.93076
2.90224
2.87225
2.8424
2.80874
2.78071
2.74923
2.71812
2.68784
2.65201
2.63166
2.60761
2.58343
2.56037
2.53438
2.51698
2.49311
2.46738
2.43957
2.40911
2.37651
2.3422
2.3066
2.27355
2.26306
2.25926
2.26042
2.29406
2.35312
2.41709
2.4614
2.47436
2.46952
2.45766
2.44219
2.42046
2.38647
2.34533
2.30551
2.26341
2.21273
2.19113
2.17015
2.15883
2.16438
2.17861
2.18964
2.21042
2.21559
2.2121
2.19791
2.17009
2.13335
2.08976
2.03762
1.98708
1.95728
1.94744
1.93988
1.92873
1.91636
1.9078
1.89552
1.87471
1.85469
1.82807
1.78855
1.76114
1.73932
1.71618
1.69557
1.67491
1.64957
1.63288
1.62653
1.61563
1.60734
1.5982
1.58915
1.58273
1.5707
1.55301
1.54026
1.53376
1.5244
1.51381
1.50003
1.47933
1.45476
1.44371
1.43627
1.42904
1.42587
1.42052
1.40839
1.39424
1.38006
1.36324
1.34903
1.34424
1.3422
1.33966
1.33436
1.32904
1.32362
1.31396
1.29194
1.26918
1.26413
1.26238
1.2598
1.255
1.2471
1.23113
1.20839
1.1918
1.18786
1.18674
1.18973
1.19573
1.19603
1.19235
1.18482
1.17042
1.1498
1.13257
1.12855
1.13196
1.142
1.16107
1.19508
1.23037
1.23777
1.23754
1.23175
1.21289
1.18976
1.16945
1.15601
1.14882
1.14505
1.14044
1.13469
1.12435
1.11231
1.10757
1.10604
1.10591
1.11067
1.11851
1.12081
1.12018
1.11957
1.11993
1.12628
1.15121
1.17929
1.21025
1.24358
1.25049
1.25053
1.24653
1.23402
1.21558
1.195
1.18371
1.18112
1.17952
1.1806
1.18479
1.18522
1.18298
1.17935
1.17153
1.15579
1.12794
1.10637
1.10147
1.09915
1.09732
1.09731
1.10308
1.10599
1.10434
1.10366
1.1041
1.10324
1.09811
1.08341
1.06465
1.058
1.05566
1.05351
1.05254
1.05043
1.0477
1.04632
1.04586
1.04386
1.03983
1.03359
1.02556
1.01144
0.989761
0.974067
0.968006
0.96607
0.965188
0.966466
0.969895
0.969771
0.967245
0.963185
0.956147
0.946973
0.933545
0.920401
0.914664
0.912629
0.911759
0.912066
0.91702
0.924967
0.928113
0.927126
0.92512
0.921205
0.91506
0.906443
2.99314
2.96376
2.93389
2.90437
2.87151
2.84041
2.81159
2.77837
2.74927
2.71313
2.68581
2.66425
2.63674
2.61395
2.58524
2.56358
2.54217
2.51455
2.48856
2.45803
2.42818
2.39544
2.36185
2.32525
2.29255
2.27998
2.26917
2.26481
2.26974
2.29919
2.35063
2.40021
2.4427
2.45526
2.44832
2.43974
2.42479
2.3994
2.36762
2.33717
2.30242
2.26783
2.2488
2.22566
2.20919
2.21357
2.22131
2.23017
2.24801
2.24923
2.24068
2.21992
2.18737
2.14522
2.09599
2.04477
2.01215
1.99858
1.98908
1.97911
1.96739
1.95698
1.94712
1.9292
1.9055
1.87536
1.83467
1.80086
1.77763
1.75521
1.73382
1.7132
1.68851
1.66852
1.66372
1.65745
1.64567
1.63614
1.62426
1.6166
1.60801
1.59234
1.57575
1.5675
1.55931
1.54849
1.53488
1.51629
1.49188
1.47591
1.46984
1.46123
1.45606
1.45224
1.4413
1.4252
1.40982
1.39243
1.37689
1.37225
1.37087
1.36842
1.36217
1.35575
1.34998
1.34225
1.32531
1.3005
1.29143
1.28855
1.28606
1.28194
1.27372
1.25639
1.23284
1.21615
1.21221
1.21086
1.2132
1.2175
1.21783
1.21501
1.20912
1.19571
1.17247
1.1523
1.1466
1.14881
1.15653
1.1721
1.20131
1.24139
1.2557
1.25619
1.25212
1.23541
1.21049
1.18969
1.17532
1.16452
1.15776
1.15213
1.14595
1.13553
1.12336
1.11832
1.11687
1.1171
1.12373
1.1351
1.1375
1.13499
1.12839
1.12344
1.12243
1.12346
1.13647
1.16587
1.19851
1.23552
1.24895
1.25056
1.24814
1.23527
1.21418
1.20053
1.1991
1.19946
1.20039
1.20136
1.19974
1.19762
1.19532
1.18911
1.17396
1.1444
1.1174
1.11074
1.10876
1.10713
1.10673
1.11261
1.12033
1.11952
1.11761
1.1169
1.11566
1.11098
1.0971
1.07696
1.06933
1.06745
1.06545
1.0647
1.0655
1.06261
1.05938
1.05725
1.05483
1.05
1.04261
1.03279
1.01773
0.998631
0.986154
0.98111
0.979435
0.978647
0.979761
0.982092
0.981092
0.978498
0.97412
0.966662
0.956133
0.940749
0.929149
0.924568
0.923203
0.922591
0.923902
0.930468
0.937292
0.937863
0.936183
0.934048
0.92975
0.923643
0.913411
0.898433
3.02511
2.99558
2.96547
2.93512
2.90103
2.87309
2.84203
2.81129
2.77884
2.74333
2.72149
2.69383
2.6678
2.63999
2.61193
2.59139
2.56349
2.53554
2.50571
2.47534
2.4462
2.41485
2.38556
2.35151
2.32919
2.31285
2.29652
2.28233
2.27835
2.27908
2.29375
2.32069
2.3617
2.4022
2.41729
2.42413
2.41754
2.4018
2.37944
2.36444
2.34964
2.32855
2.30636
2.2812
2.26027
2.25772
2.25903
2.26998
2.28099
2.27842
2.26375
2.23807
2.20209
2.15475
2.10388
2.07105
2.05683
2.04295
2.03142
2.02056
2.00859
1.99705
1.9809
1.95642
1.924
1.87983
1.84173
1.81765
1.79514
1.77298
1.75381
1.73109
1.70714
1.69985
1.69798
1.68766
1.67547
1.6629
1.6499
1.64284
1.63088
1.61349
1.60125
1.59324
1.58234
1.56878
1.55179
1.53045
1.50976
1.50357
1.49695
1.48853
1.48392
1.47522
1.45843
1.44104
1.42444
1.40661
1.40056
1.39979
1.39844
1.39116
1.38325
1.37677
1.36906
1.35477
1.33315
1.32076
1.31657
1.31267
1.30839
1.30029
1.28197
1.25759
1.24129
1.23784
1.23684
1.23954
1.24183
1.24069
1.23826
1.23342
1.22213
1.1977
1.17359
1.16547
1.16659
1.17219
1.18457
1.20828
1.2487
1.27314
1.27531
1.27306
1.26009
1.23531
1.21328
1.1995
1.18649
1.17602
1.1679
1.15952
1.14725
1.13337
1.12701
1.12533
1.12477
1.12941
1.14076
1.14584
1.14483
1.14191
1.13647
1.13132
1.12924
1.12933
1.1347
1.15425
1.17938
1.20787
1.23316
1.2431
1.24272
1.23123
1.21709
1.21525
1.21887
1.22517
1.2242
1.21978
1.21432
1.20996
1.20471
1.19231
1.16485
1.13238
1.12198
1.11951
1.11782
1.11779
1.12384
1.13416
1.13524
1.1332
1.13183
1.13001
1.12454
1.10975
1.08777
1.0789
1.0773
1.07601
1.07626
1.07996
1.07878
1.07492
1.07118
1.067
1.06028
1.05152
1.03889
1.02151
1.00787
0.99988
0.995223
0.993045
0.991907
0.992187
0.993266
0.991855
0.989241
0.984635
0.977149
0.965498
0.949115
0.939229
0.935783
0.9347
0.934246
0.93619
0.94301
0.947864
0.947015
0.944845
0.942215
0.937721
0.931306
0.919275
0.905305
0.8986
3.05635
3.0265
2.99677
2.96435
2.93283
2.90545
2.87392
2.84434
2.80705
2.77872
2.75307
2.72302
2.69644
2.66375
2.63934
2.61361
2.58324
2.55542
2.52253
2.49468
2.46518
2.4385
2.412
2.38604
2.3713
2.35237
2.33252
2.31055
2.29649
2.28729
2.27579
2.26994
2.28158
2.31256
2.34829
2.37878
2.39235
2.39205
2.38508
2.38202
2.38064
2.36676
2.3474
2.32629
2.30492
2.29805
2.29665
2.30722
2.31069
2.30528
2.28556
2.25611
2.21752
2.16625
2.13104
2.11903
2.1058
2.08904
2.07605
2.06327
2.04699
2.0285
2.00379
1.96986
1.9299
1.8849
1.85586
1.83603
1.81371
1.7931
1.77572
1.75289
1.73844
1.73554
1.73099
1.71783
1.70504
1.68736
1.67549
1.6672
1.65221
1.63645
1.62691
1.61626
1.60152
1.58547
1.56742
1.54674
1.53588
1.53175
1.524
1.51663
1.50862
1.49357
1.47376
1.45809
1.44065
1.42999
1.42827
1.42842
1.42192
1.41195
1.4039
1.39608
1.38309
1.36295
1.35138
1.34655
1.34085
1.3346
1.3252
1.30685
1.28253
1.26606
1.26304
1.26283
1.26675
1.26808
1.26535
1.26268
1.25825
1.24924
1.22596
1.19693
1.18541
1.1858
1.18935
1.19856
1.21699
1.25263
1.28764
1.29385
1.29298
1.28383
1.26183
1.23962
1.22609
1.21312
1.20066
1.19001
1.17909
1.16416
1.14623
1.13777
1.13554
1.13419
1.13605
1.14421
1.1498
1.14915
1.14692
1.14492
1.14356
1.14095
1.13644
1.13514
1.13692
1.14786
1.15848
1.16966
1.1915
1.21466
1.22494
1.22339
1.22368
1.23208
1.24438
1.24847
1.24659
1.23975
1.23004
1.22061
1.2087
1.18628
1.15199
1.13639
1.13288
1.13056
1.12996
1.13611
1.14914
1.15203
1.14984
1.14813
1.14604
1.13989
1.12339
1.09832
1.08747
1.08603
1.08531
1.0869
1.0933
1.09408
1.09047
1.08592
1.0799
1.07128
1.06079
1.04483
1.02553
1.01635
1.01247
1.00978
1.00696
1.00477
1.00387
1.00366
1.00207
0.999495
0.994568
0.987301
0.974829
0.959194
0.950863
0.948094
0.947047
0.946708
0.948699
0.954361
0.95721
0.955943
0.953555
0.950384
0.945486
0.938281
0.924931
0.913407
0.908706
0.906942
3.08753
3.05745
3.02765
2.99388
2.96545
2.93661
2.90647
2.87325
2.83702
2.8121
2.78174
2.75305
2.72087
2.69034
2.66551
2.63432
2.60548
2.57295
2.54258
2.51632
2.489
2.46748
2.44164
2.42587
2.41039
2.3896
2.36725
2.34282
2.32226
2.30133
2.28127
2.26283
2.24593
2.24755
2.26793
2.3054
2.3444
2.36921
2.38117
2.38738
2.38869
2.37928
2.36619
2.35129
2.33495
2.32701
2.32531
2.34072
2.34157
2.3343
2.30992
2.27851
2.23861
2.1987
2.18289
2.17364
2.1572
2.13537
2.11833
2.10059
2.07617
2.04873
2.01573
1.97943
1.9359
1.8961
1.87567
1.85551
1.83466
1.81589
1.80023
1.78498
1.77572
1.77141
1.76153
1.74848
1.73251
1.71056
1.70078
1.69031
1.67402
1.66092
1.65031
1.63479
1.61794
1.60259
1.58483
1.56967
1.56373
1.5576
1.55063
1.54187
1.52871
1.50827
1.49118
1.47816
1.46292
1.45783
1.4575
1.45297
1.4425
1.43223
1.42312
1.41152
1.39314
1.38028
1.37656
1.37095
1.36242
1.34978
1.33024
1.30744
1.29143
1.28789
1.28743
1.29205
1.29439
1.291
1.28809
1.28364
1.27556
1.25692
1.22454
1.20731
1.20682
1.20914
1.21517
1.22945
1.25706
1.29664
1.31143
1.31181
1.30567
1.28729
1.26652
1.25309
1.23989
1.22706
1.21587
1.20459
1.18933
1.16647
1.15282
1.14976
1.14757
1.14716
1.15196
1.15465
1.15356
1.15197
1.14949
1.14699
1.145
1.14171
1.13779
1.13478
1.13468
1.13697
1.13811
1.1366
1.14569
1.16857
1.19393
1.21075
1.2239
1.2453
1.26035
1.2622
1.26167
1.25506
1.24115
1.22501
1.20602
1.17629
1.15369
1.14883
1.14603
1.14458
1.14972
1.1653
1.17096
1.16821
1.16555
1.16289
1.15619
1.13853
1.11012
1.09666
1.09479
1.09437
1.09687
1.10497
1.10727
1.10397
1.09892
1.09189
1.08261
1.07078
1.05212
1.03213
1.02487
1.02256
1.02206
1.02074
1.01746
1.01516
1.01387
1.0119
1.00929
1.00436
0.996499
0.983882
0.97114
0.96374
0.961301
0.960141
0.95969
0.960717
0.964755
0.966042
0.9646
0.962564
0.959268
0.953669
0.944833
0.931429
0.923164
0.919862
0.918682
0.918518
3.11821
3.08807
3.05629
3.02308
2.99557
2.96519
2.93511
2.89742
2.86773
2.84043
2.80909
2.7798
2.74515
2.71842
2.68913
2.6581
2.62877
2.59403
2.56924
2.54244
2.52076
2.49802
2.47658
2.4637
2.44372
2.42312
2.39851
2.37462
2.34995
2.32055
2.29198
2.26294
2.24416
2.23874
2.23546
2.24968
2.28531
2.32864
2.36075
2.38225
2.38498
2.38003
2.37164
2.35842
2.34516
2.33982
2.35075
2.37505
2.37886
2.36915
2.34125
2.31376
2.28148
2.25934
2.24515
2.22778
2.20659
2.17776
2.15222
2.12783
2.09678
2.06125
2.02542
1.98998
1.9441
1.91516
1.89822
1.87864
1.85977
1.8419
1.83114
1.82374
1.81561
1.80433
1.79084
1.77731
1.75565
1.73368
1.72517
1.713
1.69752
1.68466
1.66964
1.64996
1.63635
1.62236
1.60548
1.59702
1.58937
1.5817
1.57473
1.56266
1.54458
1.52386
1.51366
1.50185
1.48982
1.48681
1.48337
1.47354
1.46175
1.45098
1.44009
1.42562
1.41076
1.40578
1.40122
1.3927
1.37711
1.3538
1.33066
1.317
1.31398
1.31288
1.31534
1.31826
1.31527
1.31097
1.30732
1.2999
1.28645
1.25687
1.2318
1.22972
1.23132
1.23464
1.24513
1.26741
1.30311
1.32726
1.3302
1.32688
1.31162
1.29222
1.2799
1.26654
1.25278
1.24136
1.23018
1.21677
1.19506
1.1746
1.16918
1.16648
1.16525
1.1669
1.16648
1.16176
1.15855
1.15696
1.15428
1.1491
1.14347
1.13994
1.13615
1.13165
1.12714
1.12235
1.11919
1.11649
1.11608
1.12827
1.15442
1.18525
1.21465
1.24578
1.26264
1.26523
1.26586
1.26136
1.24656
1.22615
1.20117
1.17476
1.1662
1.16454
1.1644
1.16976
1.18205
1.18963
1.18801
1.18472
1.18088
1.17266
1.15402
1.12359
1.10763
1.10503
1.10438
1.10591
1.11391
1.11682
1.11362
1.10863
1.10202
1.09358
1.08127
1.06041
1.03988
1.03337
1.03143
1.03068
1.03187
1.03053
1.02683
1.02426
1.02192
1.01892
1.01393
1.00584
0.992448
0.982176
0.977596
0.975358
0.973546
0.972618
0.972433
0.974108
0.975073
0.973532
0.971646
0.968644
0.962801
0.952565
0.940044
0.933847
0.931829
0.931129
0.932633
0.940569
3.1471
3.11652
3.0816
3.05001
3.02077
2.99053
2.95712
2.92011
2.89462
2.86446
2.83535
2.80212
2.77116
2.74455
2.71282
2.68495
2.6504
2.6223
2.5988
2.57462
2.55482
2.52919
2.51428
2.49646
2.4741
2.45201
2.42668
2.40309
2.37377
2.34107
2.30939
2.27194
2.25328
2.24724
2.2401
2.23761
2.24933
2.28235
2.31979
2.35054
2.36768
2.36997
2.36651
2.35801
2.34756
2.34399
2.37105
2.40698
2.41922
2.40789
2.3883
2.37484
2.35296
2.32984
2.30572
2.27867
2.24793
2.21275
2.17913
2.14885
2.11331
2.07085
2.03532
2.00208
1.96044
1.93931
1.92485
1.90779
1.88986
1.87533
1.86754
1.86221
1.8514
1.83475
1.81884
1.80323
1.77694
1.75706
1.7485
1.73595
1.7212
1.70565
1.68404
1.66818
1.65823
1.64325
1.62981
1.62397
1.61308
1.60385
1.59519
1.58
1.55991
1.54608
1.53906
1.52786
1.51826
1.51245
1.50341
1.49123
1.47928
1.4678
1.45728
1.44544
1.43707
1.43162
1.42383
1.40789
1.38084
1.35463
1.34204
1.34017
1.34039
1.34104
1.34095
1.33853
1.33378
1.32833
1.32177
1.31057
1.2903
1.25948
1.25304
1.25402
1.25621
1.26224
1.28226
1.31036
1.34044
1.34977
1.34859
1.33752
1.31886
1.30757
1.2952
1.27959
1.26711
1.25566
1.24267
1.22234
1.19861
1.19031
1.18719
1.18543
1.18614
1.18605
1.1825
1.17626
1.1708
1.16753
1.16126
1.14774
1.13664
1.13246
1.12892
1.12434
1.11886
1.11357
1.10826
1.10209
1.09857
1.10007
1.11485
1.14324
1.18092
1.2258
1.25346
1.26159
1.26466
1.26307
1.25031
1.22411
1.19735
1.18491
1.18406
1.18529
1.19476
1.20601
1.2073
1.20509
1.20252
1.19774
1.18844
1.16987
1.13779
1.11956
1.11643
1.11529
1.11502
1.11957
1.12283
1.1203
1.11567
1.11006
1.10308
1.09162
1.06997
1.04814
1.0417
1.03987
1.03878
1.03934
1.04107
1.03885
1.03529
1.03238
1.02909
1.024
1.01555
1.00181
0.992215
0.989623
0.98889
0.987048
0.984958
0.98371
0.983395
0.983929
0.982915
0.981051
0.978161
0.972443
0.961624
0.950467
0.945628
0.944443
0.944483
0.949203
0.961442
0.975043
3.17358
3.14123
3.10608
3.07544
3.04364
3.01224
2.97413
2.94542
2.91884
2.8881
2.85871
2.82478
2.79913
2.76967
2.74057
2.71129
2.67758
2.65619
2.63138
2.61121
2.58621
2.56443
2.54941
2.52567
2.5037
2.47775
2.45312
2.42696
2.39362
2.36192
2.32918
2.29261
2.27966
2.26787
2.25509
2.24568
2.24368
2.24757
2.26724
2.29385
2.31487
2.32975
2.33549
2.336
2.33221
2.33825
2.37435
2.42837
2.4558
2.45913
2.45529
2.45064
2.42836
2.39636
2.36067
2.32336
2.28238
2.24125
2.20305
2.16623
2.12742
2.08376
2.04671
2.01907
1.98768
1.9684
1.95683
1.94327
1.92573
1.9144
1.90678
1.89741
1.88279
1.86228
1.84317
1.82601
1.80041
1.78106
1.77132
1.75918
1.74363
1.72216
1.69967
1.69131
1.68085
1.66431
1.65585
1.64897
1.63507
1.6241
1.61327
1.59732
1.58088
1.57179
1.56348
1.5542
1.54395
1.53263
1.51963
1.50731
1.49563
1.48527
1.47851
1.47128
1.4638
1.45523
1.44011
1.41186
1.3818
1.36863
1.36666
1.36741
1.3689
1.36616
1.36266
1.35783
1.35073
1.34324
1.33313
1.31887
1.29338
1.27599
1.27611
1.27701
1.28029
1.29631
1.32326
1.34755
1.36739
1.37017
1.36423
1.34838
1.33771
1.32735
1.31114
1.29647
1.2841
1.2697
1.24772
1.22076
1.20865
1.206
1.20447
1.20465
1.20567
1.20442
1.20178
1.19722
1.18986
1.1795
1.16443
1.1416
1.13014
1.12727
1.12406
1.11952
1.11437
1.10996
1.10528
1.09993
1.08997
1.08204
1.08374
1.09763
1.12666
1.16968
1.21096
1.2288
1.23972
1.24271
1.2365
1.21366
1.19828
1.19814
1.20243
1.21461
1.2297
1.22882
1.22206
1.21589
1.20962
1.20186
1.18582
1.15223
1.12958
1.12593
1.12444
1.12338
1.12495
1.12704
1.12512
1.12155
1.11678
1.11047
1.10024
1.08008
1.05727
1.05004
1.04802
1.04672
1.04628
1.04877
1.04905
1.04619
1.04302
1.03976
1.03503
1.0266
1.01264
1.00224
0.999879
0.999541
0.999488
0.997382
0.995071
0.993665
0.99309
0.992476
0.990859
0.98791
0.982188
0.972306
0.962962
0.958847
0.957945
0.95907
0.967251
0.982377