/*--------------------------------*- C++ -*----------------------------------*\
  =========                 |
  \\      /  F ield         | OpenFOAM: The Open Source CFD Toolbox
   \\    /   O peration     | Website:  https://openfoam.org
    \\  /    A nd           | Version:  7
     \\/     M anipulation  |
\*---------------------------------------------------------------------------*/
FoamFile
{
    version     2.0;
    format      ascii;
    class       volScalarField;
    location    "6.2";
    object      rho;
}
// * * * * * * * * * * * * * * * * * * * * * * * * * * * * * * * * * * * * * //

dimensions      [1 -3 0 0 0 0 0];

internalField   nonuniform List<scalar> 
3328
(
44.9359
10.2847
7.14162
7.16663
7.1765
7.18654
7.19555
7.20593
7.21863
7.23332
7.24826
7.2622
7.27465
7.28602
7.2946
7.2996
7.30025
7.30016
7.29777
7.29315
7.27017
7.22151
7.1699
7.15061
44.9289
10.2832
7.13999
7.16444
7.17401
7.1838
7.19251
7.20253
7.21467
7.2287
7.24285
7.25592
7.26734
7.27766
7.28551
7.29063
7.29215
7.29313
7.29199
7.2868
7.26234
7.21175
7.15881
7.1383
44.9176
10.279
7.137
7.1604
7.16953
7.17884
7.1871
7.1966
7.208
7.22115
7.23435
7.24637
7.25645
7.26531
7.27201
7.27689
7.27888
7.28061
7.28022
7.27426
7.24911
7.19872
7.14648
7.12639
44.8976
10.2728
7.13248
7.15447
7.16309
7.17176
7.17934
7.18803
7.19845
7.21053
7.22271
7.23376
7.24255
7.24981
7.25496
7.25903
7.26141
7.2642
7.26549
7.25987
7.23364
7.18138
7.12695
7.10507
44.8695
10.2637
7.12652
7.14684
7.15486
7.1629
7.16978
7.17757
7.18675
7.1977
7.20889
7.21915
7.22699
7.23289
7.23649
7.23904
7.24093
7.24315
7.24379
7.23522
7.20586
7.15288
7.09783
7.07961
44.8327
10.2511
7.11928
7.13781
7.14518
7.15253
7.15874
7.16573
7.17367
7.18322
7.19335
7.20289
7.21016
7.21498
7.21718
7.21754
7.21787
7.21862
7.21919
7.21129
7.18344
7.12881
7.06442
7.02446
44.7869
10.2342
7.11064
7.12738
7.13416
7.14088
7.14644
7.15259
7.15943
7.16749
7.17624
7.18474
7.19146
7.19533
7.19646
7.19451
7.19302
7.19176
7.19041
7.17806
7.14069
7.0648
6.9842
6.95106
44.7318
10.2128
7.1003
7.11529
7.12156
7.12773
7.13275
7.13806
7.14376
7.15032
7.15745
7.16434
7.17002
7.17291
7.17307
7.16939
7.16507
7.16016
7.15397
7.13777
7.0981
7.02532
6.91867
6.95085
44.6673
10.1875
7.08795
7.10119
7.10694
7.11252
7.11707
7.12153
7.12618
7.13119
7.13653
7.1412
7.14496
7.1465
7.14537
7.14035
7.13232
7.12327
7.11161
7.09333
7.04587
6.96067
6.72426
6.44439
44.5944
10.1595
7.07354
7.08487
7.08992
7.09468
7.09858
7.10212
7.10593
7.10959
7.11291
7.11494
7.11589
7.11534
7.11253
7.10618
7.09459
7.08104
7.06356
7.04029
6.99177
6.89742
6.75436
6.49566
44.5149
10.1298
7.0574
7.06637
7.07031
7.0738
7.07684
7.07945
7.08215
7.08435
7.0857
7.08535
7.08324
7.08002
7.07516
7.06715
7.05314
7.03461
7.0121
6.98254
6.93648
6.84233
6.73654
6.5361
44.4328
10.0986
7.04017
7.04633
7.04885
7.05044
7.0519
7.05299
7.05422
7.05495
7.05486
7.05267
7.04804
7.04215
7.03534
7.02548
7.01068
6.98801
6.96176
6.92823
6.88223
6.80602
6.72116
6.58519
44.3552
10.0635
7.02354
7.02559
7.02616
7.02527
7.02461
7.02388
7.02359
7.02311
7.02176
7.01812
7.01202
7.00405
6.99588
6.98474
6.97027
6.94632
6.91803
6.88305
6.83627
6.77766
6.69552
6.61677
44.2864
10.0226
7.00626
7.00402
7.00272
6.99959
6.99686
6.99469
6.99308
6.99139
6.98927
6.9849
6.97824
6.96904
6.95979
6.94803
6.93385
6.91156
6.88314
6.84787
6.80263
6.75296
6.68783
6.6198
44.2229
9.97659
6.98983
6.98276
6.97919
6.9746
6.97073
6.96743
6.96484
6.96256
6.96041
6.95604
6.94912
6.93924
6.92897
6.91699
6.9024
6.8821
6.855
6.82063
6.77863
6.73212
6.67862
6.61966
44.153
9.93707
6.97282
6.96001
6.95425
6.95079
6.94817
6.9449
6.94164
6.93928
6.93774
6.93423
6.92747
6.91693
6.90472
6.89119
6.87544
6.8554
6.82879
6.79522
6.75608
6.71268
6.66377
6.61571
44.0631
9.91615
6.95392
6.93261
6.92967
6.93086
6.93091
6.928
6.92354
6.92087
6.92007
6.91799
6.91197
6.90087
6.88617
6.8696
6.85125
6.82935
6.8016
6.76777
6.72936
6.68737
6.6413
6.5966
43.9522
9.91268
6.92824
6.90585
6.91073
6.91693
6.91815
6.9134
6.90599
6.90181
6.90091
6.89972
6.89456
6.88352
6.8674
6.84811
6.82657
6.80218
6.7728
6.73762
6.69764
6.65387
6.60691
6.56049
43.8447
9.90246
6.89043
6.88672
6.89716
6.90529
6.90535
6.89682
6.88531
6.87814
6.87572
6.87425
6.86925
6.85849
6.84179
6.82092
6.79762
6.7717
6.74132
6.70484
6.66275
6.61563
6.56386
6.51003
43.7496
9.87084
6.85896
6.87347
6.88552
6.89198
6.88871
6.87558
6.86032
6.84972
6.84459
6.84147
6.83521
6.82389
6.80701
6.7856
6.76164
6.73527
6.70528
6.66934
6.62694
6.57779
6.52133
6.45835
43.6613
9.82666
6.84044
6.86325
6.87276
6.87376
6.86566
6.8488
6.83094
6.81784
6.81074
6.80535
6.79593
6.78202
6.76415
6.74258
6.71844
6.69219
6.66333
6.62963
6.59012
6.54323
6.48655
6.41835
43.5757
9.78281
6.83167
6.85206
6.85491
6.84902
6.83482
6.81544
6.79729
6.78583
6.77911
6.77065
6.75577
6.73718
6.71717
6.69553
6.67163
6.64567
6.61752
6.58576
6.55002
6.50868
6.45809
6.39331
43.4927
9.75473
6.8251
6.83552
6.82926
6.81495
6.79573
6.77616
6.76242
6.7574
6.75277
6.74006
6.71859
6.69496
6.67251
6.65079
6.62745
6.60168
6.57306
6.54129
6.50683
6.46977
6.42728
6.37287
43.4123
9.74398
6.81562
6.81001
6.79459
6.7725
6.7512
6.7379
6.7333
6.73453
6.72963
6.7115
6.68574
6.65946
6.63589
6.61479
6.59277
6.56756
6.53777
6.50375
6.46624
6.42788
6.38884
6.34468
43.3312
9.74534
6.79771
6.77898
6.75401
6.72966
6.7141
6.7101
6.71317
6.71509
6.7048
6.68256
6.6559
6.63037
6.60847
6.59043
6.57229
6.54924
6.51804
6.47967
6.43578
6.39068
6.34665
6.30455
43.2452
9.75013
6.77228
6.74351
6.71231
6.69619
6.692
6.69626
6.70126
6.696
6.67847
6.65358
6.62709
6.6034
6.58497
6.57229
6.56025
6.54113
6.51016
6.46872
6.41886
6.36487
6.30996
6.25971
43.154
9.75408
6.73902
6.70146
6.67832
6.67868
6.68638
6.6941
6.69158
6.6769
6.65323
6.62573
6.59881
6.57681
6.56257
6.55518
6.54759
6.53146
6.50232
6.46176
6.41117
6.3529
6.28856
6.22504
43.067
9.74324
6.69437
6.66656
6.66247
6.67648
6.68915
6.69109
6.68016
6.65822
6.63017
6.60043
6.57329
6.5543
6.54463
6.53868
6.5292
6.51106
6.48253
6.44618
6.40193
6.34867
6.28403
6.21234
43.005
9.70523
6.64436
6.65148
6.66351
6.67943
6.68553
6.67993
6.66163
6.63534
6.6056
6.57773
6.55687
6.54415
6.53476
6.52239
6.50368
6.47762
6.44569
6.41217
6.37707
6.33732
6.28489
6.21723
42.9666
9.65447
6.62326
6.65683
6.66927
6.67534
6.67078
6.65313
6.62785
6.6021
6.57943
6.56276
6.55405
6.54554
6.52995
6.50515
6.47238
6.43528
6.39718
6.36277
6.33393
6.30891
6.2763
6.22425
42.938
9.60268
6.63244
6.66658
6.67013
6.66284
6.64198
6.61335
6.58517
6.56155
6.55029
6.55216
6.55539
6.5482
6.52551
6.48904
6.44321
6.39508
6.34964
6.31201
6.28584
6.26964
6.25169
6.21828
42.9037
9.56956
6.65632
6.67338
6.66481
6.64092
6.60572
6.57088
6.54411
6.53332
6.53842
6.54847
6.55078
6.53974
6.51333
6.47255
6.42101
6.36602
6.31618
6.27711
6.25109
6.23413
6.217
6.19119
42.8595
9.5706
6.66982
6.66661
6.64651
6.61243
6.57165
6.54051
6.52639
6.52712
6.53393
6.53726
6.5301
6.51174
6.4833
6.44525
6.39944
6.35191
6.30908
6.27256
6.23992
6.20896
6.17949
6.14764
42.8068
9.59617
6.66161
6.64266
6.61357
6.58024
6.55234
6.53718
6.53152
6.53142
6.52896
6.51787
6.49683
6.46878
6.43709
6.40481
6.37486
6.34902
6.32234
6.28903
6.24824
6.20038
6.15092
6.10397
42.7536
9.6394
6.63466
6.60329
6.57126
6.55156
6.54519
6.54761
6.54977
6.54261
6.52449
6.4972
6.46178
6.42183
6.38582
6.36068
6.34984
6.34625
6.33689
6.31105
6.26616
6.20764
6.14152
6.07499
42.7084
9.67249
6.59893
6.5653
6.54485
6.54278
6.55016
6.56192
6.56261
6.55046
6.5222
6.47859
6.42974
6.38291
6.34835
6.33737
6.33949
6.34309
6.33903
6.3205
6.28019
6.2182
6.14388
6.06535
42.683
9.68411
6.56566
6.5484
6.53733
6.54468
6.55619
6.5614
6.55854
6.54338
6.5114
6.46394
6.41278
6.37314
6.35208
6.34179
6.33774
6.33386
6.32494
6.3063
6.27241
6.21848
6.14715
6.06975
42.6674
9.65051
6.55343
6.55161
6.54901
6.5534
6.55366
6.5497
6.53467
6.50963
6.48083
6.45519
6.42781
6.40215
6.38172
6.36215
6.34115
6.31966
6.29757
6.26959
6.23367
6.19299
6.14503
6.08571
42.6434
9.58672
6.5598
6.57415
6.57131
6.56278
6.55
6.52683
6.49547
6.46478
6.44338
6.43522
6.43626
6.43491
6.42107
6.39489
6.36038
6.31858
6.27241
6.22607
6.1811
6.1428
6.11417
6.08491
42.6432
9.54721
6.58685
6.59565
6.58959
6.57183
6.53976
6.49945
6.4653
6.44262
6.4377
6.44476
6.45957
6.46762
6.45767
6.42427
6.37084
6.30672
6.24389
6.19603
6.16716
6.14538
6.12455
6.104
5.55789
5.9257
5.98216
5.89696
5.74357
5.62832
5.57053
5.5534
6.26877
6.28594
6.11725
5.95908
5.77901
5.66282
5.59576
5.57421
6.36239
6.26977
6.11713
5.99737
5.83481
5.70341
5.61239
5.60283
6.47265
6.3712
6.23528
6.1263
5.95733
5.8008
5.67509
5.64702
6.52597
6.45012
6.33377
6.23207
6.06919
5.89762
5.75906
5.72736
6.55727
6.48878
6.40317
6.32902
6.20343
6.03538
5.87626
5.80434
6.56876
6.50781
6.4355
6.36974
6.27014
6.10879
5.90513
5.82121
6.56649
6.51368
6.44697
6.3689
6.28138
6.15988
5.91714
5.80738
6.55212
6.50126
6.43542
6.35339
6.24414
6.09344
5.69321
4.63
6.51764
6.47067
6.40709
6.30782
6.17671
5.95405
5.53853
4.57953
6.46071
6.41185
6.35261
6.25333
6.10166
5.84554
5.44971
4.64429
6.39472
6.33413
6.2713
6.17853
6.02545
5.78019
5.4012
4.76594
6.34068
6.26119
6.18192
6.08825
5.94575
5.72658
5.39558
4.90627
6.31041
6.21506
6.11378
6.00657
5.86824
5.67536
5.40068
5.02911
6.29685
6.19886
6.08278
5.95787
5.8137
5.63632
5.40758
5.11915
6.28321
6.19623
6.08005
5.94636
5.79576
5.62345
5.42193
5.18436
6.25463
6.18574
6.08476
5.95697
5.80841
5.64007
5.45381
5.24325
6.21039
6.15481
6.07547
5.96543
5.83078
5.6731
5.50259
5.30954
6.16486
6.1083
6.04301
5.9546
5.84234
5.70344
5.5538
5.38135
6.13827
6.06805
5.99971
5.92285
5.83073
5.71401
5.58757
5.44067
6.1371
6.05218
5.9692
5.88674
5.80277
5.70293
5.5955
5.47258
6.14992
6.05945
5.96312
5.86727
5.77668
5.6831
5.58702
5.48212
6.15895
6.0738
5.97587
5.87124
5.7696
5.67164
5.57709
5.4806
6.14679
6.07885
5.99169
5.88962
5.78336
5.67812
5.57771
5.4809
6.10924
6.05826
5.99226
5.90872
5.81298
5.70768
5.60064
5.49454
6.06079
6.01742
5.96921
5.90826
5.83528
5.74563
5.64184
5.5277
6.01742
5.97126
5.93259
5.89085
5.83829
5.76857
5.67923
5.56934
5.99519
5.94073
5.90192
5.86867
5.82881
5.77251
5.69588
5.59881
5.99794
5.93738
5.89007
5.84969
5.80916
5.75806
5.69125
5.60706
6.02207
5.9598
5.89989
5.84177
5.78742
5.73081
5.66566
5.59082
6.04504
5.99056
5.92591
5.856
5.78212
5.70635
5.62964
5.5546
6.07156
6.01767
5.94417
5.85702
5.76641
5.68543
5.62019
5.56094
1.79903
0.930004
0.674226
0.715429
0.822381
1.0487
1.39989
1.736
2.13666
2.44699
2.62762
2.66004
2.81926
3.29528
3.54232
3.59657
3.59509
3.62305
3.66475
3.72567
3.73021
3.68895
3.63041
3.57984
3.5415
3.51512
3.46399
3.39839
3.3256
3.27153
3.22993
3.19916
3.17038
3.13863
3.10906
3.08389
3.05929
3.03062
2.99453
2.95138
2.89268
2.8028
2.709
2.64664
2.60816
2.57861
2.55499
2.53393
2.50418
2.46913
2.42575
2.37618
2.34884
2.38089
2.4964
2.83741
3.29929
3.22946
3.12131
3.05671
3.02408
3.00995
3.00946
3.01913
3.03002
3.02751
3.01471
2.99854
2.97958
2.95569
2.91845
2.85093
2.77069
2.73228
2.7149
2.70201
2.69961
2.71105
2.71375
2.70048
2.68388
2.66699
2.64968
2.63095
2.60832
2.57767
2.52575
2.44914
2.70647
1.87815
1.56038
1.42032
1.36454
1.34634
1.40447
1.57482
1.86854
2.25136
2.56305
2.69297
2.88429
3.32904
3.58697
3.66876
3.68969
3.69388
3.71128
3.74094
3.74331
3.70424
3.65673
3.61763
3.58967
3.5764
3.53997
3.48987
3.4285
3.36803
3.31672
3.26628
3.21597
3.17102
3.13123
3.09647
3.06257
3.02411
2.98365
2.93888
2.88384
2.82193
2.76183
2.6972
2.63604
2.59446
2.5654
2.53871
2.50836
2.47254
2.43305
2.38865
2.38947
2.4447
2.57368
2.83749
3.25386
3.2498
3.1634
3.09144
3.05376
3.03169
3.02508
3.03113
3.04106
3.0358
3.01877
2.9996
2.97743
2.94896
2.90899
2.85524
2.80674
2.76684
2.73844
2.72108
2.71235
2.71673
2.72077
2.70922
2.69216
2.67422
2.65478
2.63345
2.60841
2.57554
2.52933
2.47325
3.49067
2.71618
2.28037
2.01373
1.8498
1.72925
1.64734
1.71357
1.84736
2.06298
2.40557
2.73128
3.03116
3.45944
3.78664
3.92959
3.93652
3.91966
3.9131
3.89351
3.85486
3.79301
3.73465
3.69652
3.66997
3.65686
3.62701
3.58651
3.54408
3.50233
3.45999
3.41002
3.351
3.28555
3.22266
3.16738
3.11525
3.06137
3.00371
2.94413
2.89177
2.85666
2.82306
2.78474
2.73162
2.66476
2.60684
2.56575
2.52939
2.4924
2.46694
2.45439
2.49724
2.59865
2.69957
2.84008
3.14812
3.29073
3.26683
3.20083
3.14564
3.11169
3.09244
3.08898
3.09103
3.08271
3.06683
3.04612
3.01802
2.97544
2.92113
2.87988
2.85305
2.82601
2.79689
2.77279
2.75679
2.7481
2.74412
2.73725
2.72418
2.70682
2.68624
2.65955
2.62331
2.57738
2.53409
2.50963
4.03028
3.42259
2.95744
2.60891
2.38173
2.27273
2.14147
2.01415
1.98046
2.03166
2.20114
2.48082
2.78914
3.22881
3.69956
4.10771
4.18112
4.16792
4.11306
4.06214
4.00761
3.94668
3.89049
3.84971
3.81618
3.78593
3.75287
3.71705
3.68189
3.64404
3.59948
3.54733
3.48441
3.41026
3.32966
3.25213
3.18298
3.11969
3.06005
3.01043
2.97488
2.94699
2.9172
2.88305
2.83993
2.77798
2.70176
2.63175
2.57422
2.53798
2.53587
2.56823
2.67073
2.8022
2.8486
2.88939
3.05934
3.30063
3.35972
3.31822
3.25585
3.21125
3.18512
3.17064
3.15812
3.14465
3.13078
3.10922
3.07476
3.027
2.98075
2.9517
2.92998
2.90945
2.88788
2.8631
2.8366
2.8153
2.79857
2.78391
2.77143
2.7563
2.73639
2.709
2.6672
2.61028
2.57134
2.56894
4.3931
3.91243
3.51296
3.1721
2.85594
2.67801
2.56238
2.40461
2.24443
2.19583
2.25571
2.31851
2.43552
2.70392
3.23994
3.91615
4.27142
4.31941
4.24718
4.1712
4.12844
4.09307
4.04383
3.98717
3.93915
3.89654
3.85848
3.82464
3.78551
3.73979
3.68666
3.62746
3.56436
3.49326
3.4081
3.31336
3.22551
3.15565
3.10631
3.07043
3.04426
3.02362
2.9945
2.96035
2.91792
2.86193
2.79056
2.71548
2.64468
2.6251
2.64463
2.72843
2.86305
2.9714
2.98087
2.97712
3.03551
3.22645
3.40584
3.42348
3.38521
3.33603
3.2981
3.26724
3.2409
3.21964
3.1953
3.1638
3.12395
3.08612
3.06029
3.03901
3.02085
3.00434
2.98531
2.96212
2.93233
2.8967
2.87095
2.85414
2.83871
2.82146
2.79693
2.76191
2.71505
2.67107
2.64351
2.65754
4.65383
4.25474
3.90273
3.6175
3.33218
3.0462
2.89515
2.7841
2.62047
2.49159
2.43712
2.40838
2.40546
2.44365
2.64817
3.26572
4.05282
4.32312
4.29598
4.26223
4.21884
4.17374
4.11523
4.03352
3.96201
3.91456
3.87084
3.82745
3.78041
3.72965
3.67473
3.61527
3.55462
3.49326
3.42149
3.33847
3.26068
3.20318
3.16048
3.12595
3.09924
3.07515
3.04527
3.01105
2.96929
2.91286
2.84931
2.78939
2.72987
2.7208
2.76801
2.91526
3.03549
3.09455
3.09393
3.06384
3.05853
3.14194
3.32288
3.45738
3.47119
3.44925
3.40238
3.34733
3.29865
3.26077
3.22727
3.19901
3.17556
3.15722
3.13998
3.12289
3.10586
3.08652
3.06524
3.04201
3.01525
2.98104
2.94516
2.92243
2.90282
2.87706
2.84058
2.80005
2.75892
2.73197
2.72441
2.75953
4.82238
4.5047
4.19861
3.93324
3.69941
3.4439
3.19435
3.0565
2.95074
2.80484
2.66671
2.56967
2.49342
2.47863
2.50662
2.66845
3.30694
4.04396
4.25603
4.28303
4.24672
4.193
4.13452
4.04448
3.95666
3.89915
3.84737
3.79308
3.73431
3.67334
3.62012
3.5751
3.53115
3.48235
3.42634
3.3597
3.29818
3.25606
3.22185
3.18705
3.15017
3.11195
3.07544
3.0336
2.98951
2.93507
2.88611
2.84083
2.80806
2.82956
2.94223
3.10059
3.15615
3.15559
3.15196
3.12336
3.0876
3.10594
3.20234
3.37257
3.48542
3.49327
3.46543
3.40079
3.32676
3.27151
3.24073
3.22258
3.21033
3.20035
3.18546
3.16977
3.15453
3.13864
3.12134
3.10388
3.08483
3.05712
3.0109
2.96068
2.92533
2.8935
2.85862
2.82491
2.79845
2.79207
2.8024
2.86411
4.93908
4.6743
4.4189
4.18633
3.96417
3.75364
3.52319
3.3173
3.19916
3.09628
2.94829
2.79223
2.68766
2.62932
2.56815
2.57868
2.70868
3.33598
3.98843
4.2131
4.23048
4.1819
4.12116
4.03451
3.93537
3.86857
3.81297
3.75584
3.69193
3.62518
3.57401
3.53584
3.51262
3.48309
3.4448
3.40104
3.35494
3.30939
3.26846
3.22942
3.18362
3.12739
3.06261
2.9988
2.93933
2.89006
2.86431
2.85683
2.89277
3.01195
3.16973
3.22021
3.20248
3.18099
3.17209
3.161
3.12167
3.10304
3.13684
3.25222
3.41557
3.47778
3.47223
3.42534
3.34933
3.2817
3.25202
3.23501
3.22283
3.21561
3.20427
3.19162
3.18112
3.17173
3.16056
3.14575
3.12634
3.09328
3.03559
2.97092
2.92684
2.89373
2.86674
2.84238
2.83341
2.84332
2.87921
2.96691
5.02664
4.79937
4.58039
4.37641
4.1742
3.97613
3.78551
3.59505
3.43056
3.3145
3.20174
3.05801
2.90461
2.78966
2.71178
2.63254
2.64002
2.76529
3.36279
3.94454
4.1621
4.1536
4.09854
4.01807
3.93487
3.865
3.80328
3.74273
3.67648
3.6116
3.56045
3.5211
3.48967
3.47016
3.45739
3.42917
3.38707
3.33321
3.27385
3.21726
3.16297
3.10203
3.02754
2.95446
2.89164
2.85716
2.85236
2.89782
3.03214
3.22687
3.29574
3.2728
3.23119
3.20379
3.19082
3.19141
3.16501
3.13108
3.13206
3.16765
3.27979
3.40057
3.43976
3.42136
3.37141
3.30621
3.26548
3.24585
3.2319
3.22286
3.21654
3.21408
3.20967
3.19725
3.18047
3.16086
3.13575
3.09703
3.03662
2.9741
2.92727
2.89124
2.86866
2.85644
2.86104
2.89322
2.96776
3.06425
5.10813
4.90184
4.70481
4.52219
4.34477
4.15601
3.97648
3.81496
3.66379
3.5186
3.39608
3.27823
3.13934
2.99717
2.88505
2.78794
2.68786
2.68422
2.80852
3.35873
3.92146
4.08873
4.06229
3.99541
3.92865
3.86565
3.80414
3.73975
3.67603
3.61754
3.56399
3.51505
3.47604
3.44845
3.42116
3.38793
3.35176
3.30688
3.24921
3.18656
3.12234
3.04919
2.96926
2.89923
2.8473
2.8403
2.87134
3.00923
3.21777
3.33765
3.34144
3.31141
3.26958
3.2441
3.228
3.21437
3.19373
3.15738
3.12479
3.11366
3.14965
3.2516
3.35439
3.38823
3.37443
3.33021
3.28107
3.25804
3.24231
3.23399
3.23429
3.22867
3.21049
3.19096
3.17132
3.14929
3.12002
3.07741
3.02363
2.9732
2.92924
2.89371
2.8747
2.87327
2.89319
2.9577
3.05935
3.13671
5.19544
5.00168
4.81238
4.63713
4.46478
4.29641
4.13266
3.97849
3.84417
3.70918
3.57012
3.444
3.32671
3.20134
3.08025
2.95647
2.83216
2.71993
2.72053
2.83963
3.35887
3.85956
3.98635
3.98012
3.92439
3.86578
3.80658
3.74446
3.68163
3.62127
3.56441
3.50887
3.45643
3.41259
3.374
3.33663
3.29927
3.25771
3.20425
3.14082
3.06903
2.9896
2.91343
2.86124
2.83982
2.864
3.00445
3.19663
3.35565
3.39331
3.37961
3.35021
3.3145
3.28689
3.26331
3.2363
3.20086
3.15812
3.11156
3.07295
3.06529
3.10728
3.21048
3.3173
3.35244
3.33282
3.29373
3.27193
3.25776
3.24949
3.24317
3.22797
3.20928
3.18894
3.16465
3.1346
3.09449
3.04536
3.00235
2.96915
2.936
2.9015
2.88973
2.90116
2.95477
3.04252
3.13557
3.18509
5.27853
5.10378
4.92224
4.74327
4.56889
4.40295
4.25393
4.10787
3.96136
3.84603
3.7281
3.59146
3.46959
3.3604
3.24902
3.13177
3.00257
2.861
2.74726
2.74677
2.86074
3.34611
3.76564
3.9038
3.91052
3.86246
3.80542
3.74249
3.67377
3.60984
3.55213
3.49521
3.43866
3.38117
3.32681
3.28052
3.23871
3.19577
3.1469
3.09271
3.02547
2.94836
2.88565
2.85182
2.86991
2.99844
3.20906
3.37004
3.44321
3.44484
3.42239
3.39131
3.35621
3.32064
3.28328
3.24035
3.19007
3.13903
3.09274
3.05141
3.02386
3.02844
3.07792
3.19632
3.2951
3.32295
3.3092
3.28987
3.27336
3.25791
3.24238
3.22408
3.20283
3.17791
3.1485
3.11095
3.06523
3.02092
2.98361
2.95933
2.9396
2.9231
2.92866
2.96723
3.05248
3.13697
3.19158
3.20771
5.33538
5.1864
5.02704
4.85476
4.67337
4.50199
4.3524
4.21421
4.07458
3.92711
3.81433
3.71877
3.59687
3.4832
3.37764
3.26968
3.15418
3.02385
2.87593
2.76644
2.76445
2.87146
3.30954
3.69382
3.83122
3.8242
3.77692
3.71961
3.65185
3.58872
3.53245
3.47766
3.42027
3.35436
3.28414
3.22662
3.18074
3.13804
3.09284
3.04203
2.98593
2.92686
2.88171
2.89209
3.0077
3.22683
3.40591
3.49006
3.49865
3.48275
3.45058
3.40984
3.36903
3.32841
3.28462
3.2305
3.16305
3.11296
3.07702
3.04126
3.01105
3.00117
3.01193
3.07992
3.19806
3.29775
3.32403
3.30908
3.28354
3.25984
3.23308
3.20853
3.18505
3.1576
3.12291
3.0836
3.04749
3.01285
2.97861
2.951
2.94032
2.94754
2.98495
3.0685
3.17069
3.22029
3.22634
3.20625
5.36625
5.23874
5.10044
4.95007
4.78663
4.61267
4.44905
4.30599
4.16564
4.02646
3.89117
3.78388
3.69928
3.59016
3.47786
3.37087
3.26457
3.15362
3.02824
2.88499
2.78134
2.76568
2.8664
3.25475
3.62991
3.75357
3.73912
3.68819
3.62768
3.56441
3.50756
3.45395
3.39685
3.32873
3.25017
3.18542
3.13821
3.09284
3.04305
2.98996
2.94961
2.92269
2.93452
3.0382
3.264
3.45286
3.53945
3.54203
3.51795
3.48247
3.44235
3.40288
3.36419
3.32328
3.27386
3.20637
3.14203
3.10568
3.07423
3.03831
3.00995
2.98811
2.98774
3.02433
3.11444
3.23237
3.30462
3.30687
3.28592
3.25403
3.22053
3.18948
3.15853
3.12655
3.09538
3.06724
3.03952
3.01135
2.97866
2.95925
2.96067
2.99192
3.07072
3.1813
3.26237
3.27047
3.24897
3.19941
5.37919
5.26884
5.14723
5.0136
4.87163
4.72279
4.5613
4.39913
4.25591
4.11548
3.98005
3.85749
3.75194
3.66503
3.56305
3.45294
3.34613
3.2437
3.14063
3.02021
2.8796
2.78043
2.7516
2.84117
3.19397
3.55324
3.6577
3.63582
3.58789
3.53746
3.485
3.42896
3.36937
3.30019
3.22316
3.15595
3.10841
3.05835
3.00542
2.96508
2.94875
2.96258
3.06469
3.29787
3.49937
3.58179
3.57861
3.54987
3.51059
3.46734
3.42572
3.38952
3.35183
3.30844
3.25398
3.18739
3.13339
3.10033
3.07372
3.04697
3.02443
3.00574
2.99549
3.0089
3.05335
3.14214
3.23886
3.27278
3.26388
3.23773
3.20396
3.16631
3.12647
3.09085
3.07145
3.05413
3.03514
3.0157
2.99619
2.99609
3.01401
3.07351
3.17736
3.26971
3.29902
3.28778
3.25903
3.18967
5.38525
5.28411
5.17482
5.05583
4.92822
4.79661
4.65827
4.50474
4.34683
4.20349
4.06552
3.9355
3.82049
3.71398
3.61697
3.51725
3.41487
3.31564
3.2189
3.11706
2.99474
2.85587
2.7595
2.72497
2.80634
3.12928
3.45598
3.54383
3.54796
3.50499
3.45328
3.39918
3.33941
3.27128
3.19616
3.13293
3.08544
3.0301
2.98252
2.97111
2.98522
3.07924
3.31545
3.52422
3.61306
3.6123
3.58594
3.54355
3.49023
3.43788
3.40218
3.37111
3.33684
3.29616
3.24358
3.17996
3.13324
3.10645
3.08417
3.06943
3.06293
3.04978
3.02808
3.00888
3.00579
3.03612
3.10879
3.17592
3.20275
3.19615
3.17385
3.13581
3.09318
3.06725
3.05152
3.03762
3.02463
3.02186
3.02938
3.05088
3.09761
3.19454
3.27996
3.30852
3.30852
3.28896
3.25259
3.17641
5.3921
5.29089
5.18731
5.07864
4.96339
4.84418
4.72027
4.58707
4.44114
4.2897
4.14793
4.01294
3.88576
3.77299
3.66808
3.56533
3.46637
3.37035
3.27825
3.1838
3.07879
2.95038
2.81552
2.72622
2.69475
2.76679
3.05591
3.34521
3.4654
3.46576
3.42203
3.36569
3.30306
3.23836
3.16933
3.11906
3.06178
3.00928
2.98812
2.99379
3.07077
3.3133
3.5354
3.61692
3.63075
3.612
3.57548
3.52344
3.46176
3.42128
3.39369
3.36445
3.33116
3.2923
3.24055
3.18613
3.15642
3.13363
3.11786
3.11014
3.09365
3.06757
3.03313
2.99075
2.95823
2.93913
2.96201
3.01823
3.08609
3.12927
3.12739
3.10163
3.06823
3.05141
3.03836
3.02832
3.03164
3.04893
3.07383
3.11455
3.20732
3.31324
3.34173
3.32021
3.29511
3.26521
3.22878
3.17035
5.41027
5.29796
5.19183
5.0871
4.98073
4.87251
4.76071
4.63969
4.50919
4.36891
4.22495
4.08434
3.95001
3.8275
3.71847
3.61517
3.51317
3.41387
3.31865
3.2286
3.13515
3.02788
2.89808
2.76958
2.68896
2.65686
2.72105
2.97937
3.25235
3.38072
3.37032
3.31978
3.26156
3.20343
3.14776
3.08281
3.02552
2.99471
2.99047
3.06211
3.28987
3.53406
3.62729
3.63363
3.61796
3.5882
3.54835
3.49986
3.45141
3.41852
3.3915
3.3625
3.33148
3.29732
3.25641
3.22048
3.19545
3.17352
3.15548
3.13383
3.10549
3.06745
3.02064
2.96705
2.91633
2.88084
2.87197
2.89671
2.95075
3.03058
3.07436
3.06864
3.05108
3.03902
3.03431
3.04037
3.05299
3.07123
3.10983
3.1909
3.30967
3.36933
3.35973
3.31172
3.27121
3.24015
3.21323
3.17352
5.44653
5.32027
5.20084
5.09101
4.98773
4.88618
4.7819
4.67241
4.55421
4.42449
4.28767
4.14803
4.0099
3.88149
3.76621
3.65932
3.55679
3.45635
3.35697
3.25859
3.16467
3.07079
2.96816
2.84607
2.72579
2.64812
2.61186
2.6697
2.89772
3.16883
3.27931
3.26717
3.21847
3.15974
3.09711
3.0337
3.00173
2.9949
3.05437
3.27189
3.53717
3.61146
3.63084
3.62059
3.59439
3.56157
3.52592
3.48741
3.45045
3.42587
3.40278
3.3789
3.35347
3.32566
3.29318
3.25544
3.22144
3.19328
3.164
3.13225
3.09707
3.05222
2.99555
2.93928
2.89441
2.86032
2.84007
2.84112
2.85972
2.9236
3.00276
3.03807
3.03521
3.03493
3.04632
3.06068
3.07267
3.09838
3.16765
3.27924
3.36928
3.37651
3.3468
3.30043
3.26129
3.22873
3.20367
3.17649
5.48257
5.3546
5.22522
5.10364
4.9961
4.895
4.79162
4.68604
4.57792
4.46008
4.33139
4.19782
4.06299
3.93349
3.8138
3.70162
3.59429
3.49066
3.38919
3.2887
3.18952
3.09352
3.00045
2.90292
2.78958
2.68062
2.60375
2.56525
2.61147
2.81881
3.07465
3.17907
3.16182
3.10636
3.03733
2.99604
2.99134
3.05396
3.26806
3.53059
3.65564
3.64861
3.63046
3.61048
3.5835
3.55396
3.52081
3.48584
3.46234
3.44369
3.42786
3.4075
3.38393
3.35202
3.30625
3.25904
3.22258
3.18991
3.15651
3.11899
3.07371
3.0216
2.97179
2.93086
2.8917
2.85575
2.82923
2.8195
2.82773
2.84993
2.92128
2.98662
3.01844
3.03769
3.06238
3.07079
3.08992
3.15219
3.24862
3.34839
3.37942
3.36254
3.33215
3.29405
3.25583
3.22586
3.20882
3.18762
5.50437
5.38635
5.26065
5.137
5.01981
4.90908
4.79985
4.69321
4.58383
4.47236
4.35571
4.22958
4.10293
3.97895
3.85909
3.74297
3.62988
3.51997
3.41336
3.3101
3.20959
3.11275
3.01937
2.92687
2.82987
2.7251
2.62638
2.55408
2.51413
2.55291
2.74412
2.95439
3.06044
3.03626
2.99492
2.99288
3.05859
3.26697
3.55411
3.65877
3.66687
3.64916
3.62554
3.60215
3.57695
3.55067
3.52449
3.50265
3.48641
3.46894
3.44767
3.42148
3.38474
3.33876
3.28898
3.2463
3.21176
3.17831
3.14125
3.09687
3.04612
2.99992
2.96313
2.92797
2.89531
2.86459
2.83632
2.81769
2.81437
2.81663
2.84401
2.91482
2.97
3.01525
3.0488
3.08306
3.13942
3.23308
3.32389
3.36379
3.36599
3.35387
3.32927
3.29633
3.2609
3.23469
3.22112
3.20163
5.5073
5.40962
5.29633
5.17639
5.05193
4.92706
4.81149
4.70245
4.5883
4.47234
4.36331
4.25094
4.13375
4.01712
3.89971
3.78109
3.66184
3.54435
3.43134
3.32428
3.22175
3.12334
3.0297
2.94101
2.85428
2.76135
2.66328
2.56907
2.49844
2.45068
2.47672
2.62805
2.84534
2.93313
2.96543
3.06407
3.27721
3.54168
3.69535
3.72093
3.69181
3.65327
3.62427
3.59888
3.57723
3.55591
3.53836
3.52557
3.50412
3.4768
3.44338
3.40395
3.36016
3.30909
3.2612
3.22269
3.18875
3.15491
3.11696
3.07319
3.02966
2.99163
2.95945
2.93414
2.91246
2.8905
2.86513
2.83919
2.81692
2.79319
2.78423
2.82038
2.89558
2.96679
3.03126
3.10703
3.19899
3.29196
3.34304
3.37546
3.3751
3.36505
3.34457
3.31436
3.2777
3.24798
3.23212
3.20436
5.48022
5.40098
5.31093
5.2052
5.08673
4.96428
4.83983
4.71205
4.58633
4.46967
4.36412
4.26396
4.1531
4.04133
3.92744
3.80985
3.68793
3.56478
3.4455
3.3336
3.22843
3.1292
3.03567
2.94808
2.86498
2.7826
2.69432
2.59976
2.50493
2.42583
2.36117
2.39298
2.54539
2.77135
2.98651
3.26144
3.54277
3.68526
3.72786
3.71585
3.68885
3.65637
3.62612
3.60087
3.58086
3.56307
3.55115
3.53472
3.50816
3.4786
3.44227
3.39382
3.33455
3.27887
3.23773
3.20331
3.16898
3.13125
3.08966
3.04842
3.01461
2.98931
2.96741
2.95142
2.94241
2.92668
2.90266
2.87195
2.828
2.77401
2.74145
2.75239
2.8045
2.89419
3.00732
3.12693
3.23004
3.29299
3.341
3.3794
3.39399
3.38939
3.37119
3.33953
3.2927
3.25832
3.23943
3.20712
5.49627
5.42341
5.33901
5.23826
5.11823
4.98509
4.8457
4.70812
4.58212
4.46976
4.36832
4.2727
4.16676
4.05626
3.9445
3.82965
3.70885
3.58188
3.45461
3.33637
3.22909
3.13018
3.03706
2.9497
2.8681
2.79186
2.71222
2.62311
2.52032
2.42005
2.32927
2.29653
2.34543
2.57746
3.01494
3.43177
3.74442
3.82385
3.78852
3.73612
3.69897
3.66414
3.62801
3.6003
3.58128
3.5644
3.55258
3.53572
3.50803
3.47724
3.43807
3.38005
3.30964
3.25875
3.22358
3.19066
3.15505
3.11178
3.06264
3.02599
3.00282
2.98684
2.98284
2.98143
2.96844
2.94801
2.92141
2.88048
2.82409
2.76091
2.71511
2.71422
2.73897
2.81719
2.96018
3.11992
3.24481
3.31042
3.35041
3.39242
3.42575
3.41692
3.39567
3.35509
3.29317
3.25508
3.23532
3.20175
)
;

boundaryField
{
    inlet
    {
        type            calculated;
        value           uniform 1.40001;
    }
    outlet
    {
        type            calculated;
        value           nonuniform List<scalar> 
24
(
2.45111
2.47457
2.50928
2.56793
2.65646
2.75824
2.86305
2.96606
3.06267
3.13373
3.18168
3.20567
3.20505
3.20006
3.19212
3.17869
3.17133
3.17341
3.17531
3.18588
3.19987
3.20369
3.2068
3.20155
)
;
    }
    bottom
    {
        type            calculated;
        value           nonuniform List<scalar> 
24
(
44.9359
10.2847
7.14162
7.16663
7.1765
7.18654
7.19555
7.20593
7.21863
7.23332
7.24826
7.2622
7.27465
7.28602
7.2946
7.2996
7.30025
7.30016
7.29777
7.29315
7.27017
7.22151
7.1699
7.15061
)
;
    }
    top
    {
        type            calculated;
        value           nonuniform List<scalar> 
120
(
42.6432
9.54721
6.58685
6.59565
6.58959
6.57183
6.53976
6.49945
6.4653
6.44262
6.4377
6.44476
6.45957
6.46762
6.45767
6.42427
6.37084
6.30672
6.24389
6.19603
6.16716
6.14538
6.12455
6.104
6.07156
6.01767
5.94417
5.85702
5.76641
5.68543
5.62019
5.56094
5.49627
5.42341
5.33901
5.23826
5.11823
4.98509
4.8457
4.70812
4.58212
4.46976
4.36832
4.2727
4.16676
4.05626
3.9445
3.82965
3.70885
3.58188
3.45461
3.33637
3.22909
3.13018
3.03706
2.9497
2.8681
2.79186
2.71222
2.62311
2.52032
2.42005
2.32927
2.29653
2.34543
2.57746
3.01494
3.43177
3.74442
3.82385
3.78852
3.73612
3.69897
3.66414
3.62801
3.6003
3.58128
3.5644
3.55258
3.53572
3.50803
3.47724
3.43807
3.38005
3.30964
3.25875
3.22358
3.19066
3.15505
3.11178
3.06264
3.02599
3.00282
2.98684
2.98284
2.98143
2.96844
2.94801
2.92141
2.88048
2.82409
2.76091
2.71511
2.71422
2.73897
2.81719
2.96018
3.11992
3.24481
3.31042
3.35041
3.39242
3.42575
3.41692
3.39567
3.35509
3.29317
3.25508
3.23532
3.20175
)
;
    }
    obstacle
    {
        type            calculated;
        value           nonuniform List<scalar> 
112
(
7.15061
7.1383
7.12639
7.10507
7.07961
7.02446
6.95106
6.95085
5.55789
5.9257
5.98216
5.89696
5.74357
5.62832
5.57053
5.5534
5.5534
5.57421
5.60283
5.64702
5.72736
5.80434
5.82121
5.80738
1.79903
0.930004
0.674226
0.715429
0.822381
1.0487
1.39989
1.736
2.13666
2.44699
2.62762
2.66004
2.81926
3.29528
3.54232
3.59657
3.59509
3.62305
3.66475
3.72567
3.73021
3.68895
3.63041
3.57984
3.5415
3.51512
3.46399
3.39839
3.3256
3.27153
3.22993
3.19916
3.17038
3.13863
3.10906
3.08389
3.05929
3.03062
2.99453
2.95138
2.89268
2.8028
2.709
2.64664
2.60816
2.57861
2.55499
2.53393
2.50418
2.46913
2.42575
2.37618
2.34884
2.38089
2.4964
2.83741
3.29929
3.22946
3.12131
3.05671
3.02408
3.00995
3.00946
3.01913
3.03002
3.02751
3.01471
2.99854
2.97958
2.95569
2.91845
2.85093
2.77069
2.73228
2.7149
2.70201
2.69961
2.71105
2.71375
2.70048
2.68388
2.66699
2.64968
2.63095
2.60832
2.57767
2.52575
2.44914
)
;
    }
    defaultFaces
    {
        type            empty;
    }
}


// ************************************************************************* //
