/*--------------------------------*- C++ -*----------------------------------*\
  =========                 |
  \\      /  F ield         | OpenFOAM: The Open Source CFD Toolbox
   \\    /   O peration     | Website:  https://openfoam.org
    \\  /    A nd           | Version:  7
     \\/     M anipulation  |
\*---------------------------------------------------------------------------*/
FoamFile
{
    version     2.0;
    format      ascii;
    class       volScalarField;
    location    "0.5";
    object      p;
}
// * * * * * * * * * * * * * * * * * * * * * * * * * * * * * * * * * * * * * //

dimensions      [1 -1 -2 0 0 0 0];

internalField   nonuniform List<scalar> 
16192
(
4.12746
4.32009
4.50393
4.67756
4.82828
4.94857
5.02809
5.06246
5.04384
5.02196
4.99066
4.96945
4.97017
4.97052
4.95528
4.9387
4.92015
4.91725
4.91675
4.92465
4.93194
4.12381
4.32482
4.51462
4.68864
4.83516
4.94983
5.02646
5.06052
5.05216
5.0302
4.99662
4.97077
4.96489
4.96029
4.94321
4.92701
4.91271
4.91503
4.91954
4.93417
4.94428
4.11438
4.32348
4.52249
4.70124
4.84731
4.95645
5.02786
5.06077
5.05903
5.03777
5.00562
4.97443
4.95795
4.94694
4.92883
4.91304
4.9041
4.91389
4.9254
4.94755
4.96114
4.10575
4.31906
4.52565
4.70958
4.85756
4.96644
5.03573
5.06701
5.069
5.04874
5.01706
4.97988
4.94957
4.92897
4.90603
4.89177
4.89169
4.91108
4.93055
4.95964
4.97642
4.09892
4.3141
4.52368
4.71098
4.86345
4.9773
5.05
5.08162
5.0823
5.05989
5.02749
4.98527
4.94314
4.91101
4.88159
4.86844
4.87622
4.90277
4.93068
4.96672
4.98634
4.09577
4.30812
4.51755
4.70629
4.86571
4.98694
5.06765
5.10133
5.09722
5.07256
5.03667
4.98955
4.93803
4.89117
4.85302
4.84165
4.85443
4.88923
4.92494
4.9679
4.99195
4.09105
4.30316
4.51059
4.70265
4.86901
4.99643
5.08626
5.12376
5.11551
5.08776
5.04584
4.9928
4.93109
4.87058
4.82438
4.81125
4.82673
4.8679
4.91245
4.96237
4.98962
4.08037
4.29681
4.50866
4.70518
4.87678
5.00829
5.10365
5.14608
5.13819
5.10486
5.05544
4.99581
4.92101
4.85107
4.79593
4.77687
4.79348
4.83872
4.8898
4.94404
4.97353
4.06589
4.2887
4.51282
4.71757
4.89473
5.0254
5.11924
5.16535
5.16044
5.12461
5.06716
4.9981
4.9079
4.82879
4.76148
4.73657
4.75319
4.80072
4.85658
4.9123
4.94453
4.04505
4.27745
4.51764
4.73534
4.92221
5.05412
5.13779
5.18251
5.1831
5.1473
5.08361
5.00267
4.8923
4.80303
4.72607
4.69109
4.70424
4.75214
4.81611
4.87558
4.90777
4.03649
4.27101
4.5325
4.7622
4.95151
5.08763
5.16723
5.20419
5.20639
5.17101
5.1018
5.00778
4.87791
4.77379
4.68619
4.64178
4.65299
4.70222
4.76278
4.81355
4.84022
4.08822
4.30167
4.53491
4.78096
4.99177
5.12734
5.20109
5.23139
5.23159
5.19549
5.12012
5.01295
4.86439
4.744
4.64355
4.58823
4.59256
4.63504
4.69108
4.73789
4.76059
4.12973
4.33762
4.57232
4.81515
5.02304
5.17927
5.24577
5.27162
5.26149
5.219
5.13701
5.01734
4.85275
4.71313
4.5969
4.52867
4.52338
4.5544
4.61084
4.64252
4.66783
4.19229
4.40889
4.65652
4.87161
5.07303
5.2209
5.30227
5.3158
5.29719
5.2403
5.15123
5.01949
4.84268
4.68299
4.54777
4.46567
4.43556
4.46163
4.51014
4.53387
4.558
4.19655
4.48807
4.71592
4.93257
5.11644
5.26608
5.34843
5.36033
5.33418
5.26228
5.16475
5.01906
4.8325
4.64998
4.49254
4.39051
4.34793
4.34647
4.38919
4.41823
4.44635
4.1695
4.50502
4.79142
5.00983
5.18924
5.32014
5.39182
5.41015
5.36737
5.28357
5.17495
5.01537
4.81985
4.61279
4.43568
4.30793
4.24237
4.22496
4.26799
4.32233
4.36373
4.09749
4.50483
4.822
5.03603
5.22835
5.35724
5.42897
5.4375
5.39819
5.29997
5.18764
5.01125
4.80586
4.57781
4.37844
4.22121
4.12226
4.08628
4.13556
4.2228
4.26661
3.9715
4.47036
4.8442
5.07164
5.25202
5.38234
5.45656
5.47145
5.43404
5.31618
5.18847
5.00254
4.78933
4.54178
4.32036
4.12867
3.99609
3.94145
4.00879
4.12157
4.15616
3.78826
4.38763
4.83036
5.08675
5.28099
5.39927
5.47261
5.47225
5.41635
5.31958
5.18679
4.99401
4.76544
4.50297
4.25692
4.03386
3.87379
3.80448
3.87876
3.96283
3.96301
3.57423
4.21275
4.77429
5.10659
5.25824
5.3885
5.45969
5.47215
5.43024
5.32711
5.17488
4.96935
4.74396
4.45979
4.19269
3.93659
3.75286
3.66536
3.72289
3.71348
3.66418
3.3438
4.00535
4.68925
5.08361
5.25195
5.38225
5.44847
5.4593
5.39823
5.28447
5.13896
4.94793
4.70145
4.41471
4.13015
3.84693
3.64748
3.54074
3.5618
3.46615
3.42684
3.16593
3.7306
4.51551
5.03966
5.25099
5.35125
5.42378
5.43082
5.37613
5.27285
5.13353
4.9116
4.66697
4.35901
4.06253
3.76519
3.5565
3.43673
3.45443
3.38395
3.41303
3.06815
3.45505
4.29264
4.89006
5.22416
5.33437
5.39754
5.41299
5.35558
5.23912
5.05269
4.85009
4.61692
4.30976
4.02041
3.70565
3.49528
3.37999
3.4277
3.3831
3.49142
3.04145
3.24974
3.97453
4.80355
5.18424
5.31946
5.36829
5.37815
5.32799
5.20622
5.04189
4.84999
4.56444
4.25658
3.96787
3.67306
3.4758
3.37866
3.48406
3.46717
3.66989
3.05212
3.12787
3.64099
4.58634
5.05852
5.27769
5.34775
5.36961
5.31157
5.1862
5.02594
4.76241
4.53145
4.20157
3.93769
3.64904
3.48077
3.41758
3.58248
3.60358
3.92516
3.0701
3.09002
3.36917
4.26081
5.00846
5.20897
5.31973
5.33171
5.29141
5.1854
5.00379
4.78045
4.5064
4.20402
3.91843
3.6459
3.51253
3.49586
3.73391
3.80863
4.24202
3.12039
3.09491
3.20455
3.89811
4.82701
5.14467
5.27742
5.29864
5.27653
5.18437
5.02305
4.77734
4.50575
4.19041
3.89582
3.66533
3.57192
3.60589
3.91548
4.05222
4.62596
3.19793
3.10586
3.13766
3.55618
4.5376
5.09363
5.21343
5.26116
5.23351
5.17674
5.02564
4.79734
4.5191
4.20814
3.93714
3.70569
3.6197
3.7394
4.13383
4.34835
5.06841
3.28593
3.1432
3.1299
3.31647
4.17253
4.9473
5.17992
5.2064
5.19132
5.16207
5.03359
4.81995
4.55158
4.2594
3.96364
3.74536
3.66142
3.87915
4.36504
4.66608
5.53686
3.37371
3.20734
3.13037
3.19812
3.77903
4.7076
5.12953
5.14469
5.17366
5.13597
5.02836
4.84561
4.596
4.31884
4.027
3.7979
3.7226
4.02972
4.60282
5.01781
5.99796
3.45177
3.28619
3.15124
3.15457
3.45204
4.38851
4.99269
5.14417
5.15641
5.10832
5.01682
4.87728
4.64828
4.38984
4.08722
3.85822
3.78379
4.17624
4.83331
5.44636
6.30302
3.52627
3.36432
3.20057
3.15267
3.26518
3.9955
4.77175
5.14449
5.12681
5.07222
4.99951
4.88844
4.69012
4.45507
4.15589
3.92063
3.85888
4.3219
5.09657
5.69911
6.58869
3.59191
3.4378
3.2654
3.15876
3.18212
3.61818
4.50036
5.0714
5.07542
5.04235
4.98434
4.88704
4.70443
4.5088
4.21242
3.99367
3.93681
4.4686
5.35924
5.77273
5.76049
3.65248
3.50477
3.33952
3.17864
3.17898
3.36757
4.13997
4.92327
5.0328
5.0355
4.97388
4.87517
4.70147
4.53246
4.2551
4.06278
4.03301
4.62729
5.57829
5.89096
5.70734
3.70967
3.56286
3.40798
3.22581
3.18873
3.23793
3.75091
4.67222
4.98957
5.03417
4.94655
4.85284
4.70547
4.55306
4.29784
4.12575
4.14346
4.80808
5.7844
5.93136
5.60424
3.76116
3.61321
3.47026
3.29674
3.20613
3.20632
3.45685
4.31696
4.90044
5.01961
4.91722
4.83784
4.71374
4.56996
4.33373
4.19571
4.23042
5.00011
5.90651
5.95019
5.58496
3.80934
3.65832
3.52389
3.37491
3.24251
3.21502
3.29711
3.91098
4.72589
4.96605
4.86419
4.82863
4.73044
4.59437
4.36678
4.27047
4.32762
5.23128
5.97299
5.95284
5.55797
3.85373
3.7016
3.5734
3.44936
3.3018
3.23297
3.23889
3.5662
4.4161
4.86305
4.85029
4.82352
4.73711
4.61021
4.39919
4.33421
4.44448
5.45983
6.00781
5.94376
5.52481
3.89712
3.74354
3.62241
3.51402
3.3735
3.26735
3.23187
3.35574
4.0257
4.6806
4.83065
4.80516
4.73469
4.61256
4.42972
4.37326
4.59424
5.64673
6.01684
5.92788
5.47985
3.94015
3.79058
3.67444
3.57133
3.44343
3.31864
3.23819
3.26498
3.65291
4.3917
4.76901
4.78899
4.71267
4.61044
4.46298
4.40828
4.77636
5.77467
6.00986
5.91352
5.43599
3.98604
3.84146
3.72495
3.62517
3.50655
3.38
3.25935
3.23395
3.39815
4.01399
4.62333
4.7583
4.68058
4.60763
4.48955
4.44034
4.97442
5.84902
5.99272
5.89666
5.39489
4.03315
3.89621
3.77783
3.67649
3.56223
3.43994
3.30509
3.23869
3.27724
3.64156
4.34963
4.69657
4.64264
4.59422
4.49875
4.46747
5.1577
5.89287
5.98035
5.8747
5.36038
4.08435
3.95055
3.82821
3.72402
3.61098
3.49576
3.36397
3.25035
3.23568
3.38599
3.97738
4.5313
4.5981
4.57811
4.50196
4.48733
5.32447
5.9231
5.97017
5.84749
5.33706
4.13532
4.00435
3.87992
3.77026
3.65594
3.5455
3.42673
3.29019
3.23955
3.26909
3.60658
4.23177
4.51946
4.55658
4.48346
4.48777
5.46596
5.94767
5.96307
5.81037
5.31647
4.18849
4.05659
3.92834
3.81344
3.69835
3.58944
3.48247
3.35498
3.25608
3.23603
3.35955
3.84698
4.34673
4.51313
4.44082
4.47601
5.57863
5.97261
5.95689
5.7741
5.29245
4.23969
4.10645
3.97659
3.85697
3.7404
3.63269
3.53275
3.42227
3.30184
3.24027
3.25411
3.49601
4.04787
4.4121
4.37535
4.45584
5.65221
6.00039
5.95005
5.73555
5.27176
4.29
4.15427
4.02205
3.89952
3.7834
3.67513
3.57981
3.48086
3.36895
3.26177
3.22454
3.28904
3.67713
4.18453
4.29703
4.4323
5.68373
6.01438
5.94262
5.71013
5.25489
4.33586
4.19898
4.06757
3.94407
3.82807
3.71915
3.62522
3.53259
3.43167
3.30959
3.23859
3.21141
3.38003
3.84938
4.16026
4.35958
5.68515
6.02493
5.92586
5.67168
5.2338
4.37882
4.24133
4.11005
3.98716
3.87253
3.76423
3.66881
3.57904
3.48556
3.3713
3.26487
3.20402
3.23633
3.50564
3.91541
4.20858
5.61006
6.02055
5.90204
5.64299
5.22371
4.41814
4.28142
4.15218
4.03088
3.91703
3.80836
3.71199
3.62114
3.53132
3.42815
3.31334
3.22155
3.18408
3.27054
3.58737
3.9439
5.45962
6.01198
5.87367
5.61659
5.21813
4.45563
4.31954
4.19089
4.07154
3.95967
3.85171
3.75382
3.66108
3.57292
3.48021
3.37083
3.26238
3.18649
3.1633
3.29194
3.58518
5.17631
5.97453
5.85565
5.59491
5.22137
4.4921
4.35706
4.22983
4.11243
4.00114
3.89275
3.79482
3.70093
3.61178
3.5262
3.42774
3.31539
3.21328
3.15013
3.13645
3.25422
4.67326
5.90827
5.85902
5.58058
5.22971
4.52834
4.39385
4.26771
4.15198
4.04161
3.93392
3.83589
3.74219
3.65309
3.57062
3.47769
3.37232
3.25444
3.15491
3.08248
3.07094
4.01518
5.79084
5.84309
5.55949
5.23511
4.56616
4.43238
4.30829
4.19355
4.08269
3.9745
3.87841
3.78514
3.69633
3.61384
3.52298
3.42158
3.3022
3.18373
3.07695
2.99172
3.43722
5.48169
5.81213
5.55033
5.24634
4.60559
4.47253
4.35051
4.2357
4.12445
4.01806
3.9234
3.83135
3.74297
3.65694
3.56397
3.46236
3.34692
3.21931
3.09154
2.98226
3.10394
4.94129
5.78285
5.54695
5.25826
4.64783
4.51639
4.3952
4.27965
4.16737
4.06307
3.97131
3.87937
3.79051
3.69978
3.60136
3.49643
3.38217
3.25454
3.12237
2.98474
2.97258
4.27607
5.71688
5.55078
5.26612
4.69138
4.56171
4.44023
4.32322
4.21114
4.11132
4.02179
3.92876
3.83793
3.74152
3.63485
3.52454
3.41011
3.28447
3.15895
3.00614
2.95598
3.653
5.51897
5.55059
5.27619
4.73612
4.60802
4.48499
4.36691
4.25583
4.16054
4.07278
3.97835
3.88383
3.78036
3.66496
3.54936
3.43281
3.30821
3.19388
3.05548
2.9595
3.24308
5.10182
5.54294
5.27845
4.77933
4.65262
4.52891
4.41165
4.30314
4.21206
4.1239
4.02618
3.92557
3.81561
3.69097
3.57052
3.45235
3.33152
3.22673
3.11471
2.98492
3.04097
4.51993
5.50837
5.27817
4.82142
4.69486
4.5721
4.4565
4.352
4.26382
4.17272
4.07158
3.96376
3.84568
3.71459
3.58939
3.47185
3.35577
3.26056
3.17088
3.03239
3.00708
3.90532
5.34575
5.26934
4.86092
4.73478
4.61442
4.50183
4.40238
4.31437
4.21826
4.11126
3.9962
3.87097
3.73612
3.6077
3.49436
3.38542
3.29604
3.22036
3.09409
3.01008
3.4266
5.02836
5.24006
4.89893
4.77418
4.65685
4.5464
4.45011
4.35924
4.25737
4.14583
4.02571
3.89353
3.75557
3.62936
3.52004
3.41829
3.33436
3.26383
3.15222
3.03251
3.15707
4.55187
5.2072
4.93863
4.81592
4.69982
4.59241
4.49489
4.39776
4.28997
4.17381
4.04951
3.91475
3.77625
3.65459
3.55214
3.45501
3.37189
3.30114
3.20228
3.06614
3.05574
3.99847
5.11335
4.98197
4.86063
4.74412
4.63657
4.53453
4.4311
4.31804
4.19939
4.07311
3.93774
3.80105
3.6876
3.58761
3.49285
3.40777
3.33033
3.241
3.10503
3.05391
3.52639
4.86014
5.03112
4.90749
4.78828
4.67778
4.56964
4.46014
4.34294
4.22254
4.0956
3.96379
3.83438
3.7282
3.63084
3.53262
3.4448
3.35424
3.27052
3.14564
3.06678
3.24055
4.40948
5.07851
4.95188
4.82853
4.71208
4.59899
4.48609
4.36671
4.24622
4.12127
3.9934
3.8762
3.77679
3.6797
3.57562
3.47969
3.38089
3.29366
3.1886
3.08854
3.10484
3.90835
5.12034
4.98901
4.86176
4.7416
4.62607
4.51064
4.38937
4.26846
4.14776
4.02751
3.92301
3.82996
3.73112
3.62462
3.51784
3.4133
3.31621
3.2298
3.11586
3.07306
3.48234
5.15066
5.01626
4.88776
4.7665
4.65087
4.53508
4.41397
4.29419
4.17754
4.06455
3.97084
3.88258
3.7816
3.67198
3.56038
3.45178
3.34844
3.2688
3.15416
3.06953
3.2221
5.17075
5.03592
4.90896
4.79038
4.67823
4.56409
4.44363
4.32438
4.2099
4.10394
4.0156
3.92701
3.82453
3.71314
3.60152
3.49219
3.38648
3.30869
3.20038
3.07538
3.09687
5.17904
5.04743
4.92569
4.81361
4.70739
4.59768
4.48056
4.36521
4.2524
4.14745
4.05616
3.96303
3.85629
3.74527
3.639
3.53352
3.42698
3.34309
3.24193
3.10217
3.05641
5.18565
5.05793
4.94183
4.83742
4.73908
4.63518
4.52463
4.41483
4.30344
4.19569
4.09799
3.99487
3.88388
3.77471
3.67369
3.57122
3.46697
3.37443
3.27401
3.13398
3.05267
5.19749
5.07422
4.96219
4.86188
4.76938
4.67405
4.57369
4.47107
4.36119
4.24833
4.14089
4.02747
3.91062
3.80413
3.70853
3.6085
3.50268
3.40086
3.3015
3.16494
3.0671
5.22005
5.10049
4.98816
4.88612
4.79609
4.70818
4.61826
4.52214
4.41361
4.29782
4.18249
4.06217
3.94326
3.84164
3.74673
3.64569
3.53894
3.42807
3.32243
3.20417
3.09244
5.25345
5.13825
5.02439
4.91772
4.82564
4.74046
4.65693
4.56561
4.45787
4.3396
4.22026
4.09646
3.9794
3.88018
3.78584
3.68114
3.57168
3.45602
3.34836
3.24277
3.13905
5.30284
5.19069
5.07355
4.96273
4.8671
4.77979
4.69485
4.60218
4.49304
4.37466
4.25512
4.13197
4.01822
3.92031
3.82155
3.71272
3.5996
3.48408
3.37686
3.2804
3.19104
5.35034
5.24259
5.12736
5.01744
4.92007
4.82907
4.73963
4.64173
4.52877
4.41036
4.29197
4.17072
4.05884
3.95886
3.85384
3.73956
3.62446
3.5132
3.41115
3.32178
3.23562
5.38905
5.28532
5.17322
5.06669
4.96977
4.87615
4.78268
4.68143
4.56828
4.45347
4.33832
4.21817
4.1057
3.99845
3.88494
3.7641
3.65106
3.54542
3.44826
3.36126
3.27788
5.41997
5.31589
5.20696
5.10461
5.00884
4.91389
4.81909
4.71794
4.60903
4.50037
4.38822
4.26797
4.15225
4.03683
3.91551
3.79193
3.68411
3.58432
3.48979
3.40199
3.313
5.46034
5.35071
5.24053
5.13901
5.04219
4.94509
4.84986
4.75164
4.65007
4.54794
4.43787
4.31604
4.195
4.07153
3.9448
3.82442
3.72328
3.6283
3.53322
3.44094
3.3466
5.49545
5.38636
5.27858
5.17819
5.07939
4.98015
4.88538
4.79072
4.69509
4.59594
4.48377
4.3573
4.2301
4.10229
3.97484
3.86195
3.76747
3.67413
3.5774
3.47798
3.37585
5.51445
5.41042
5.30824
5.21151
5.11425
5.01742
4.92687
4.83768
4.74619
4.64555
4.52724
4.39425
4.26206
4.1326
4.00753
3.90365
3.81169
3.71749
3.61719
3.51188
3.40243
5.52728
5.42857
5.33108
5.2377
5.14338
5.05274
4.96978
4.88668
4.79663
4.6914
4.56541
4.42716
4.29409
4.16706
4.04686
3.9479
3.85417
3.75672
3.65247
3.54178
3.42801
5.54271
5.44756
5.35379
5.2637
5.17286
5.08854
5.01221
4.93329
4.84185
4.7309
4.59887
4.45992
4.33087
4.20802
4.09215
3.99218
3.89331
3.78946
3.68053
3.56777
3.4545
5.56404
5.47012
5.37819
5.29108
5.20506
5.12662
5.05432
4.97561
4.87961
4.76345
4.6292
4.49506
4.37373
4.25568
4.14171
4.0358
3.9283
3.81578
3.70335
3.59236
3.48378
5.58059
5.48884
5.40044
5.3184
5.23921
5.16543
5.09384
5.01198
4.91093
4.79216
4.65997
4.53508
4.42125
4.30599
4.19115
4.07708
3.95972
3.83839
3.72473
3.61845
3.51704
5.59159
5.49561
5.41507
5.34115
5.27119
5.20113
5.12863
5.04277
4.93879
4.82086
4.69463
4.57899
4.46932
4.35404
4.23577
4.11417
3.98865
3.86232
3.75021
3.64877
3.55343
5.60076
5.50933
5.43398
5.36658
5.29932
5.22939
5.15558
5.06807
4.96601
4.85303
4.73491
4.625
4.51438
4.39498
4.27175
4.14617
4.01767
3.89263
3.78417
3.68573
3.59252
5.61537
5.5324
5.4639
5.39328
5.32375
5.25162
5.17577
5.09042
4.99507
4.88979
4.7798
4.67139
4.55512
4.42769
4.29971
4.17394
4.04829
3.93102
3.82703
3.72862
3.63306
5.64353
5.55933
5.48586
5.40947
5.33259
5.26238
5.19027
5.11145
5.02562
4.92894
4.82468
4.71486
4.59114
4.4552
4.32337
4.20025
4.08218
3.97522
3.87521
3.77482
3.67354
5.66884
5.57606
5.49868
5.41718
5.33308
5.2688
5.20142
5.13168
5.056
4.96755
4.86718
4.75454
4.62409
4.48288
4.35011
4.23019
4.11985
4.02125
3.92349
3.8198
3.71165
5.67662
5.58578
5.5121
5.42778
5.33829
5.26782
5.20711
5.1473
5.08196
5.00242
4.90557
4.79078
4.65676
4.51486
4.38388
4.26662
4.16143
4.06634
3.96818
3.86103
3.74744
5.69913
5.60684
5.52911
5.44073
5.34626
5.27821
5.22249
5.16599
5.10624
5.03341
4.9401
4.82568
4.69182
4.5534
4.42665
4.31038
4.20549
4.10857
4.00759
3.89717
3.78152
5.7016
5.60803
5.52904
5.44505
5.3613
5.30137
5.24782
5.19121
5.13211
5.06063
4.969
4.85722
4.72917
4.599
4.47687
4.35911
4.25019
4.14725
4.04155
3.92954
3.81612
5.70265
5.61701
5.54288
5.4631
5.38353
5.32565
5.27029
5.21474
5.15494
5.08154
4.99254
4.88801
4.77013
4.65047
4.53317
4.41235
4.29543
4.18343
4.07197
3.96025
3.85197
2.81279
1.84768
1.4591
1.3733
1.35514
1.34069
1.35073
1.36056
1.3383
1.28248
1.22839
1.18896
1.15476
1.12059
1.08619
1.06182
1.04268
1.02174
0.996844
0.973375
0.956036
0.942813
0.930113
0.91942
0.912612
0.911623
0.908777
0.900667
0.890751
0.881585
0.87325
0.866619
0.861702
0.856531
0.852027
0.849179
0.847416
0.841565
0.829482
0.816371
0.804175
0.790285
0.777615
0.772635
0.770949
0.769459
0.768326
0.76765
0.762279
0.750629
0.73353
0.720198
0.730267
0.791498
0.938921
1.0504
1.0881
1.11454
1.13801
1.15326
1.15234
1.14592
1.14577
1.15386
1.16792
1.18588
1.20302
1.20911
1.19672
1.17245
1.15557
1.15407
1.16144
1.1699
1.1749
1.16884
1.14871
1.1241
1.10208
1.09473
1.09533
1.09403
1.09083
1.08361
1.06516
1.03614
1.01591
1.00937
1.00949
1.00677
0.992562
0.96482
0.934946
0.917758
0.909701
0.901853
0.889781
0.874117
0.857193
0.836791
0.812377
0.798536
0.798202
0.799945
0.804081
0.810057
0.816587
0.822693
0.828266
0.83444
0.842132
0.851531
0.862601
0.875562
0.892482
0.917235
0.940373
0.951533
0.956718
0.96016
0.962707
0.966821
0.975668
0.985899
0.995349
1.00517
1.01384
1.0206
1.02223
1.01367
1.00679
1.00895
1.01873
1.03316
1.04931
1.06397
1.07742
1.08816
1.08672
1.07681
1.0652
1.05166
1.04374
1.04166
1.05378
1.07287
1.08822
1.10397
1.11586
1.11516
1.11119
1.11161
1.11614
1.12771
1.14656
1.1696
1.18965
1.2008
1.19974
1.18677
1.17005
1.15552
1.14317
1.13249
1.1238
1.11597
1.10638
1.09266
1.07219
1.05067
1.03318
1.02687
1.04282
1.04964
1.03358
1.01632
1.00196
0.986403
0.967656
0.954221
0.946476
0.939015
0.93125
0.923538
0.917878
0.914336
0.910658
0.905132
0.899727
0.897183
0.885874
0.879214
0.877971
0.878586
0.88049
0.884091
0.888659
0.891518
0.892267
0.891398
0.887983
0.87328
0.859161
0.868676
0.873711
0.874334
0.868537
0.846478
0.827606
0.825543
0.826093
0.828151
0.831557
0.833307
0.833701
0.838006
0.816804
0.802531
0.798994
0.79439
0.788593
0.782379
0.773956
0.765758
0.766053
0.769172
0.771206
0.770768
0.765069
0.761442
3.64183
2.69748
2.13794
1.84146
1.63595
1.49918
1.40139
1.33703
1.27562
1.21213
1.18006
1.159
1.13463
1.10231
1.07162
1.05172
1.03473
1.01425
0.990535
0.971514
0.96137
0.950966
0.939093
0.927691
0.920862
0.917525
0.911255
0.902629
0.894392
0.886891
0.878605
0.869404
0.860032
0.851771
0.846052
0.841588
0.838546
0.832722
0.82306
0.81333
0.805382
0.796384
0.784704
0.777356
0.772514
0.767188
0.762319
0.759839
0.754135
0.742958
0.732648
0.726028
0.734598
0.785963
0.926575
1.04519
1.08506
1.11092
1.13353
1.15099
1.15707
1.15487
1.15427
1.15987
1.17014
1.18288
1.19717
1.20575
1.19981
1.18247
1.16787
1.16382
1.16771
1.17353
1.17781
1.17206
1.15265
1.12893
1.10698
1.09784
1.09789
1.09696
1.09486
1.0894
1.0708
1.04131
1.02076
1.01202
1.00832
1.00322
0.990204
0.965426
0.935918
0.915048
0.902939
0.893541
0.882997
0.870705
0.857026
0.840777
0.821006
0.804564
0.800266
0.799852
0.801298
0.805051
0.81062
0.817469
0.825364
0.833879
0.84311
0.853651
0.866013
0.880262
0.895029
0.907173
0.921069
0.936389
0.950244
0.961869
0.971902
0.97763
0.977928
0.978484
0.983427
0.98841
0.990566
0.992652
0.999011
1.01071
1.01954
1.02461
1.02935
1.03553
1.04298
1.05109
1.05972
1.06793
1.06719
1.06078
1.05494
1.05036
1.04948
1.0527
1.05708
1.06397
1.07499
1.09063
1.10355
1.11033
1.11153
1.11682
1.12694
1.13972
1.15491
1.17096
1.18545
1.19295
1.18652
1.17069
1.1547
1.14079
1.13023
1.12417
1.11663
1.10389
1.08952
1.077
1.06209
1.04389
1.0279
1.02086
1.03298
1.04334
1.03072
1.015
1.00053
0.984805
0.965955
0.952334
0.944945
0.938211
0.930926
0.923183
0.917398
0.914131
0.910785
0.905265
0.900117
0.896928
0.885835
0.879032
0.877651
0.878373
0.880776
0.885602
0.892809
0.899577
0.900279
0.895371
0.887997
0.877045
0.867061
0.872816
0.87642
0.876136
0.871365
0.854281
0.835963
0.833318
0.834057
0.836154
0.839639
0.841368
0.840536
0.842995
0.823509
0.806919
0.801493
0.797137
0.792935
0.789197
0.781742
0.771945
0.770845
0.773566
0.775235
0.774462
0.76879
0.764776
4.04101
3.12445
2.47649
2.04949
1.75933
1.5512
1.39748
1.31253
1.24226
1.18196
1.15074
1.14187
1.12631
1.09582
1.06507
1.04818
1.03784
1.02025
1.0017
0.990766
0.981607
0.970328
0.955956
0.938249
0.923524
0.915932
0.908315
0.898937
0.89124
0.882833
0.876778
0.872449
0.864904
0.856974
0.85119
0.84406
0.837443
0.829925
0.820145
0.811196
0.804749
0.799146
0.79086
0.784842
0.780175
0.773229
0.766276
0.759137
0.748819
0.732037
0.720887
0.722371
0.732267
0.775325
0.910721
1.04532
1.0875
1.11198
1.13175
1.14356
1.1497
1.15424
1.15976
1.16875
1.17968
1.18811
1.19259
1.19107
1.18181
1.17237
1.16834
1.16911
1.17208
1.17479
1.1753
1.16941
1.15238
1.13236
1.11605
1.10662
1.10074
1.09496
1.08735
1.07543
1.05608
1.03454
1.02252
1.01708
1.01197
1.00165
0.984414
0.960703
0.935806
0.915452
0.899202
0.884288
0.869588
0.856159
0.844777
0.834638
0.823339
0.810326
0.804333
0.803553
0.804263
0.806447
0.810243
0.815784
0.823843
0.83405
0.84537
0.857684
0.871262
0.885565
0.899331
0.910792
0.919202
0.92902
0.941842
0.955396
0.969188
0.980866
0.987653
0.990961
0.99234
0.991141
0.987218
0.986564
0.992847
1.00819
1.02662
1.03901
1.0457
1.04967
1.05161
1.0518
1.05151
1.0532
1.0579
1.05935
1.05709
1.05572
1.05825
1.063
1.06702
1.06998
1.07128
1.07332
1.08188
1.09194
1.10334
1.1166
1.13413
1.15313
1.17081
1.18416
1.19114
1.1903
1.1833
1.17582
1.16586
1.1509
1.13739
1.12634
1.11563
1.10554
1.0948
1.08572
1.07694
1.05922
1.04066
1.02708
1.0242
1.03619
1.0346
1.02
1.00359
0.985035
0.963382
0.948414
0.94134
0.935088
0.928381
0.921447
0.916601
0.913958
0.911355
0.907689
0.903463
0.898457
0.884661
0.877403
0.876006
0.877285
0.880534
0.886305
0.892161
0.894975
0.895295
0.892426
0.884989
0.871664
0.858315
0.864293
0.869973
0.871017
0.868616
0.856796
0.837586
0.831051
0.831102
0.830959
0.830981
0.830786
0.828174
0.827315
0.821789
0.805794
0.800138
0.7979
0.794537
0.788178
0.77689
0.764579
0.763265
0.766612
0.769918
0.770874
0.768872
0.765344
4.32279
3.50626
2.85242
2.37039
2.02403
1.76708
1.56164
1.42698
1.31495
1.22874
1.15662
1.12006
1.09541
1.0523
1.02762
1.02451
1.02091
1.01057
0.996271
0.988628
0.982083
0.973736
0.961609
0.943874
0.929212
0.920953
0.911339
0.901488
0.894224
0.88404
0.875168
0.869146
0.860618
0.85309
0.848594
0.84164
0.835297
0.8281
0.818444
0.811277
0.806388
0.799991
0.789772
0.782149
0.776791
0.769847
0.763044
0.757986
0.75098
0.736484
0.723102
0.722184
0.728234
0.75924
0.872868
1.03242
1.08301
1.10821
1.13011
1.14184
1.14552
1.15079
1.16074
1.17442
1.18868
1.19772
1.19752
1.18928
1.17846
1.17298
1.17483
1.17904
1.18089
1.17924
1.17339
1.16467
1.15293
1.13925
1.12861
1.11827
1.10703
1.09623
1.0842
1.06775
1.04677
1.03073
1.02381
1.01973
1.01274
0.999618
0.979184
0.954878
0.933639
0.916656
0.900486
0.88286
0.864504
0.84818
0.83587
0.827045
0.818047
0.807308
0.801772
0.80046
0.80206
0.805689
0.810156
0.815683
0.823195
0.832984
0.844547
0.857614
0.872371
0.887657
0.901243
0.911733
0.920831
0.93035
0.940114
0.950352
0.961261
0.970792
0.977605
0.982191
0.983911
0.983265
0.983355
0.9874
0.996897
1.01181
1.02983
1.04479
1.05192
1.05219
1.04777
1.04196
1.03704
1.03681
1.04266
1.05161
1.06065
1.06813
1.07326
1.07617
1.07393
1.06823
1.06551
1.06976
1.07912
1.09183
1.10658
1.12524
1.14747
1.16814
1.1825
1.18788
1.1835
1.17397
1.16791
1.16656
1.16367
1.15219
1.13466
1.11741
1.10265
1.0909
1.08182
1.07489
1.07078
1.06161
1.04605
1.03201
1.02468
1.02925
1.03168
1.0206
1.00592
0.988271
0.964762
0.945935
0.938675
0.933006
0.927056
0.921036
0.916818
0.914056
0.910731
0.906834
0.906092
0.9011
0.884491
0.876346
0.874648
0.876774
0.882337
0.888037
0.891475
0.893243
0.893302
0.890425
0.884532
0.87299
0.85577
0.857425
0.864743
0.867461
0.868283
0.860864
0.841525
0.831949
0.831632
0.830827
0.828769
0.827177
0.825299
0.821507
0.822661
0.813545
0.805055
0.802115
0.797174
0.788859
0.77583
0.761405
0.758925
0.762114
0.766052
0.769093
0.768956
0.765999
4.49906
3.78124
3.16105
2.66316
2.29013
1.98132
1.73032
1.54694
1.40362
1.29609
1.1868
1.12598
1.0908
1.04891
1.01746
1.00631
1.004
0.994883
0.976528
0.966139
0.96562
0.962841
0.956453
0.950469
0.945047
0.938151
0.927981
0.915966
0.904694
0.892035
0.879702
0.868618
0.856838
0.849556
0.843165
0.832639
0.82535
0.818599
0.810832
0.808505
0.806279
0.801594
0.795546
0.788782
0.780435
0.772045
0.762385
0.75406
0.746526
0.733291
0.722379
0.722447
0.726553
0.746679
0.826481
1.00047
1.07979
1.10685
1.12714
1.14045
1.14874
1.15676
1.16517
1.1739
1.18232
1.18699
1.18616
1.18253
1.17961
1.17976
1.18401
1.18884
1.18928
1.18405
1.17289
1.15674
1.14258
1.13547
1.12978
1.12231
1.11258
1.101
1.08717
1.06986
1.0481
1.02775
1.01584
1.01069
1.00502
0.993995
0.974788
0.950842
0.931167
0.915912
0.900694
0.883142
0.864254
0.846756
0.833625
0.824049
0.814046
0.803753
0.797883
0.795527
0.796929
0.801842
0.808323
0.815689
0.824013
0.833975
0.845869
0.858924
0.872564
0.886904
0.901634
0.913389
0.92283
0.932712
0.942188
0.950658
0.958973
0.966792
0.971618
0.973745
0.975333
0.97785
0.983134
0.992255
1.00471
1.01803
1.03137
1.04444
1.04736
1.04357
1.0389
1.03198
1.02736
1.02738
1.03389
1.04688
1.06037
1.07318
1.08704
1.08559
1.07671
1.06813
1.06061
1.0596
1.06532
1.08093
1.10651
1.13655
1.16488
1.18369
1.1898
1.18531
1.17563
1.16497
1.15946
1.16031
1.15906
1.15215
1.13983
1.12381
1.10709
1.09218
1.08044
1.07388
1.07435
1.06573
1.04687
1.03162
1.02405
1.027
1.03022
1.02081
1.00691
0.989644
0.96612
0.946097
0.938696
0.933434
0.92794
0.921703
0.916306
0.912517
0.908213
0.903387
0.904756
0.897713
0.880217
0.873503
0.872325
0.876907
0.884337
0.8885
0.891446
0.893936
0.893557
0.889699
0.884107
0.874293
0.860176
0.85949
0.865261
0.866551
0.865876
0.860509
0.843839
0.833131
0.833176
0.833014
0.830229
0.826984
0.824295
0.820522
0.816204
0.812059
0.802002
0.796644
0.7931
0.78795
0.77856
0.763869
0.756667
0.758455
0.762341
0.765022
0.765765
0.764176
4.61996
3.98393
3.42301
2.9436
2.546
2.2188
1.94849
1.73996
1.57158
1.43431
1.3125
1.22074
1.15467
1.09975
1.05106
1.01037
0.993149
0.966546
0.94229
0.939357
0.941588
0.943818
0.939029
0.934507
0.932095
0.927388
0.91943
0.910764
0.907415
0.902814
0.89535
0.885377
0.874111
0.864542
0.854325
0.840025
0.824608
0.813116
0.804902
0.801637
0.79715
0.791423
0.787155
0.783233
0.776964
0.772387
0.766077
0.757666
0.750288
0.739645
0.72702
0.721387
0.723516
0.734373
0.785954
0.935163
1.06691
1.10206
1.1231
1.13907
1.15018
1.15976
1.16922
1.17802
1.18411
1.18615
1.18463
1.18276
1.18389
1.18796
1.19439
1.19992
1.19825
1.18859
1.17515
1.16077
1.14742
1.13722
1.12688
1.11514
1.1047
1.09475
1.08582
1.07607
1.06164
1.03875
1.0138
0.998157
0.989047
0.979026
0.963951
0.944216
0.926663
0.913828
0.90046
0.884467
0.866167
0.848482
0.834998
0.823466
0.811446
0.802682
0.797126
0.79363
0.794304
0.799419
0.806952
0.815186
0.823904
0.833318
0.844518
0.857632
0.871223
0.884849
0.899782
0.913689
0.92235
0.930127
0.936402
0.942215
0.948994
0.956634
0.963821
0.968553
0.972125
0.977547
0.986933
1.00074
1.01582
1.02668
1.03321
1.03859
1.03958
1.03418
1.02859
1.02393
1.02262
1.02457
1.03296
1.04796
1.0615
1.07258
1.08683
1.08939
1.07943
1.06883
1.0594
1.05773
1.06126
1.07566
1.10706
1.14409
1.17435
1.19096
1.19156
1.18267
1.16949
1.16102
1.15772
1.15929
1.15501
1.14557
1.13324
1.11713
1.09591
1.0761
1.06821
1.0729
1.08046
1.0673
1.04351
1.02818
1.02237
1.02447
1.02813
1.01951
1.00554
0.988051
0.963296
0.943014
0.93616
0.931623
0.927018
0.921528
0.91546
0.910723
0.906544
0.905852
0.911358
0.893086
0.876404
0.870898
0.870581
0.877969
0.885594
0.889597
0.893323
0.896149
0.89502
0.888162
0.876548
0.864468
0.857049
0.863461
0.870992
0.87184
0.868976
0.854723
0.833022
0.826896
0.827216
0.829889
0.831405
0.82882
0.825643
0.821398
0.813336
0.807359
0.806011
0.79928
0.79444
0.78935
0.780473
0.768548
0.758076
0.756557
0.759736
0.762445
0.76311
0.761371
4.70513
4.15403
3.62422
3.17234
2.79189
2.45783
2.17185
1.93736
1.74216
1.58741
1.45303
1.33916
1.23427
1.16003
1.09167
1.03507
1.00286
0.968957
0.945277
0.932389
0.931346
0.930216
0.918095
0.90863
0.907975
0.905321
0.897009
0.890536
0.889575
0.889203
0.887075
0.882307
0.877365
0.873723
0.867138
0.856183
0.840359
0.822385
0.811613
0.803537
0.79358
0.784868
0.778265
0.773613
0.770455
0.768131
0.762296
0.755453
0.749609
0.7443
0.734406
0.725588
0.723391
0.728429
0.757159
0.866851
1.03868
1.1009
1.12326
1.14111
1.15469
1.16446
1.172
1.17693
1.17997
1.18132
1.18011
1.17915
1.18288
1.18965
1.19723
1.20362
1.20042
1.18688
1.17067
1.15991
1.15376
1.14837
1.13919
1.11993
1.09585
1.08023
1.07382
1.07073
1.06548
1.05139
1.02517
0.996845
0.978592
0.965487
0.951828
0.934838
0.918368
0.908476
0.899068
0.885466
0.868618
0.853049
0.840306
0.827193
0.814742
0.806872
0.801039
0.796325
0.796212
0.800945
0.807663
0.814986
0.823126
0.832249
0.842612
0.854718
0.867879
0.881022
0.894619
0.909957
0.920161
0.926104
0.930498
0.934453
0.940428
0.947981
0.957045
0.966207
0.973561
0.981863
0.994339
1.00952
1.02136
1.02624
1.02694
1.02711
1.02961
1.02694
1.02104
1.01877
1.02123
1.02849
1.04087
1.05292
1.06316
1.07041
1.07844
1.0843
1.07651
1.06588
1.05821
1.05793
1.06317
1.08132
1.11602
1.15242
1.17757
1.18958
1.19019
1.18108
1.16768
1.16036
1.15908
1.1566
1.14835
1.13777
1.12614
1.11029
1.0883
1.07118
1.06672
1.07689
1.08409
1.06413
1.03998
1.02682
1.02187
1.02328
1.02751
1.01911
1.00472
0.987064
0.961256
0.941902
0.935538
0.930912
0.92612
0.920758
0.914268
0.908512
0.904755
0.910252
0.910092
0.886164
0.873455
0.8703
0.871828
0.881501
0.888846
0.893864
0.898498
0.900742
0.897314
0.886963
0.873424
0.861032
0.852991
0.864037
0.876128
0.878227
0.872953
0.851668
0.829481
0.826061
0.826506
0.827544
0.828919
0.830223
0.826782
0.819328
0.811015
0.803866
0.803124
0.801444
0.793491
0.787148
0.780571
0.771152
0.762065
0.757082
0.756902
0.759398
0.760354
0.757453
4.75595
4.26179
3.80657
3.3841
2.99517
2.6613
2.38284
2.14153
1.93277
1.74643
1.61072
1.47669
1.36151
1.27537
1.19117