/*--------------------------------*- C++ -*----------------------------------*\
  =========                 |
  \\      /  F ield         | OpenFOAM: The Open Source CFD Toolbox
   \\    /   O peration     | Website:  https://openfoam.org
    \\  /    A nd           | Version:  7
     \\/     M anipulation  |
\*---------------------------------------------------------------------------*/
FoamFile
{
    version     2.0;
    format      ascii;
    class       volScalarField;
    location    "0.7";
    object      p;
}
// * * * * * * * * * * * * * * * * * * * * * * * * * * * * * * * * * * * * * //

dimensions      [1 -1 -2 0 0 0 0];

internalField   nonuniform List<scalar> 
16192
(
0.863705
0.862804
0.869372
0.879999
0.882948
0.881478
0.879467
0.875685
0.868959
0.856658
0.837504
0.821356
0.81521
0.812081
0.809075
0.808082
0.816201
0.844092
0.894522
0.940461
0.958431
0.957723
0.95029
0.943633
0.937152
0.92981
0.922383
0.914757
0.905198
0.890701
0.875072
0.868539
0.86643
0.864496
0.862484
0.861593
0.864923
0.876518
0.899298
0.925207
0.937099
0.936133
0.930402
0.924363
0.917346
0.906673
0.894092
0.887101
0.887052
0.891185
0.899827
0.919357
0.940891
0.950805
0.953215
0.952934
0.94905
0.940577
0.92959
0.919689
0.914474
0.918242
0.935384
0.951165
0.953452
0.950605
0.943885
0.927427
0.912506
0.909161
0.910736
0.916499
0.932348
0.952089
0.95903
0.963784
0.968432
0.969395
0.959785
0.926685
0.872186
0.861789
0.88017
0.890893
0.898404
0.908818
0.91883
0.929067
0.943397
0.958213
0.963177
0.965874
0.970107
0.973738
0.973815
0.966205
0.961054
0.967877
0.968669
0.962025
0.945193
0.91865
0.898189
0.886212
0.88802
0.894605
0.897456
0.903389
0.91178
0.92047
0.930335
0.953192
0.97614
0.98437
0.987901
0.992266
0.998839
1.00278
0.996618
0.982929
0.96066
0.942697
0.939263
0.936864
0.93413
0.928975
0.914462
0.912209
0.917137
0.929797
0.951134
0.971104
0.98492
0.9968
1.00943
1.01855
1.0209
1.02018
1.00593
0.966006
0.933622
0.927478
0.924726
0.921471
0.917038
0.909111
0.901096
0.895372
0.894087
0.918251
0.974975
1.01923
1.04219
1.06453
1.09837
1.05204
1.00073
0.978928
0.950204
0.931124
0.925011
0.925245
0.941385
0.958579
0.966704
0.969918
0.971367
0.970915
0.970676
0.972584
0.976151
0.980775
0.987422
0.997201
1.00836
1.01781
1.02911
1.04726
1.04383
0.982145
0.96436
0.968352
0.982681
0.996675
1.00177
1.00327
1.00112
0.991588
0.985326
0.989483
0.994512
0.999241
1.00925
1.02849
1.03625
1.03429
1.03134
1.02844
1.02401
1.01739
1.00579
0.986854
0.97309
0.970888
0.970505
0.970588
0.974721
0.99765
1.03544
1.04732
1.04548
1.04139
1.03454
1.01847
1.00182
0.997792
0.996823
0.99639
1.00007
1.01624
1.03515
1.03822
1.03685
1.03448
1.02935
1.01349
0.978974
0.951042
0.94691
0.947163
0.948981
0.958461
0.990221
1.04086
1.06463
1.06647
1.06442
1.06059
1.05374
1.03578
1.00971
1.00054
1.00009
1.00048
1.00555
1.02331
1.04419
1.04929
1.04922
1.04797
1.04393
1.03125
1.01465
0.868501
0.869235
0.871881
0.875681
0.877095
0.876427
0.87524
0.872824
0.867319
0.856184
0.839849
0.826845
0.820958
0.817832
0.815271
0.815066
0.823285
0.845629
0.881501
0.922107
0.950747
0.957436
0.951155
0.94383
0.937161
0.929918
0.922651
0.915031
0.905656
0.893627
0.880285
0.871689
0.868968
0.867269
0.865555
0.864739
0.867334
0.876154
0.89248
0.914533
0.93116
0.93349
0.927566
0.920623
0.913436
0.906381
0.901265
0.897074
0.895817
0.898652
0.904954
0.920202
0.9374
0.944428
0.946229
0.945012
0.941554
0.936551
0.930848
0.924386
0.920427
0.925035
0.938812
0.947956
0.947447
0.943813
0.935361
0.921116
0.91404
0.912592
0.914179
0.92044
0.937168
0.952072
0.956608
0.960569
0.964667
0.965487
0.957652
0.934153
0.890703
0.866059
0.880117
0.890272
0.897597
0.907521
0.91763
0.928546
0.940938
0.953146
0.963165
0.967378
0.969876
0.971519
0.971803
0.96919
0.967986
0.974033
0.974406
0.966782
0.94795
0.917152
0.895389
0.885157
0.887063
0.894366
0.897453
0.902983
0.911664
0.922121
0.934247
0.954201
0.975902
0.985686
0.989129
0.991851
0.993632
0.996343
0.992008
0.980489
0.960438
0.943728
0.939507
0.938266
0.93659
0.932248
0.920277
0.918264
0.92418
0.935911
0.955341
0.974658
0.9875
0.996437
1.0031
1.00729
1.00903
1.00777
0.993502
0.960887
0.934483
0.925688
0.922018
0.917839
0.914374
0.911481
0.908271
0.906617
0.910413
0.931005
0.973803
1.00715
1.03025
1.05343
1.08704
1.05531
1.00309
0.982252
0.95875
0.93827
0.926594
0.920713
0.936074
0.954808
0.964141
0.968742
0.971546
0.971367
0.970725
0.971746
0.974852
0.980151
0.987656
0.997784
1.00852
1.01838
1.02681
1.04326
1.035
0.972786
0.959253
0.964006
0.981515
1.00371
1.01155
1.01375
1.01219
1.00405
0.988721
0.980901
0.983673
0.988191
0.995612
1.01239
1.028
1.02829
1.02608
1.02402
1.0209
1.01537
1.00536
0.989534
0.97795
0.973943
0.972559
0.972303
0.976228
0.991461
1.01904
1.0396
1.04091
1.03752
1.03089
1.02055
1.00709
1.00019
0.998913
0.998505
1.00124
1.0144
1.03137
1.03514
1.03389
1.03159
1.02667
1.01156
0.980081
0.956205
0.951317
0.951099
0.952726
0.961975
0.98939
1.03277
1.06047
1.06442
1.06266
1.05861
1.05166
1.03665
1.01479
1.0035
1.00242
1.0027
1.00717
1.02155
1.04063
1.04749
1.04767
1.04655
1.04279
1.03089
1.01557
0.874592
0.87813
0.880715
0.878031
0.875748
0.874004
0.871523
0.868405
0.863897
0.856254
0.844539
0.833879
0.829288
0.826853
0.824846
0.825283
0.832788
0.848242
0.871626
0.900208
0.929876
0.951474
0.953138
0.94499
0.937726
0.930353
0.922495
0.914942
0.907296
0.897822
0.885642
0.876537
0.873923
0.872771
0.871808
0.87216
0.875235
0.88106
0.890499
0.904175
0.919163
0.929267
0.925029
0.916193
0.908872
0.904796
0.903065
0.902227
0.903437
0.907344
0.914997
0.926005
0.933759
0.935779
0.936659
0.936731
0.934653
0.931429
0.927982
0.924872
0.92621
0.935769
0.944767
0.945426
0.942654
0.937583
0.927295
0.917302
0.914613
0.913615
0.914497
0.923729
0.944918
0.956376
0.959089
0.961301
0.963228
0.962299
0.954394
0.936733
0.903246
0.875802
0.885436
0.89379
0.898026
0.905697
0.91551
0.92566
0.93641
0.946391
0.956237
0.964651
0.967768
0.968681
0.968866
0.969509
0.971876
0.981132
0.985119
0.9773
0.956774
0.92322
0.900898
0.891525
0.887526
0.893039
0.898041
0.903465
0.912408
0.92358
0.938841
0.959122
0.972958
0.979719
0.984702
0.988131
0.98898
0.989039
0.983347
0.972327
0.959457
0.9456
0.939413
0.93564
0.932596
0.928832
0.919447
0.919901
0.93043
0.947486
0.966616
0.979484
0.986425
0.992907
0.999174
1.00157
1.00017
0.991947
0.974894
0.953396
0.937491
0.928424
0.921813
0.917506
0.914978
0.915004
0.918229
0.92374
0.93394
0.952682
0.977734
0.997267
1.01392
1.03219
1.06432
1.05455
1.00377
0.98469
0.967181
0.94568
0.928766
0.916023
0.927198
0.948625
0.960726
0.968547
0.974821
0.975307
0.972578
0.970493
0.971374
0.976172
0.986019
1.00029
1.01903
1.03531
1.04518
1.06567
1.01945
0.962632
0.952834
0.955614
0.97318
1.00476
1.01997
1.02355
1.02543
1.02266
1.00584
0.982255
0.974814
0.977111
0.980765
0.989032
1.01029
1.03183
1.03725
1.0352
1.03228
1.0272
1.01553
0.995464
0.984274
0.982455
0.981175
0.980466
0.982124
0.988433
1.00304
1.02492
1.03443
1.03289
1.02911
1.02333
1.01292
1.00486
1.00334
1.00291
1.00434
1.01381
1.02916
1.03344
1.03244
1.03015
1.02469
1.00893
0.979315
0.960751
0.957963
0.957769
0.959142
0.966168
0.986687
1.02497
1.05544
1.06141
1.06011
1.0563
1.05027
1.03779
1.01819
1.00741
1.00632
1.00644
1.0091
1.01953
1.03749
1.04592
1.04626
1.04515
1.04153
1.03046
1.01646
0.880156
0.883664
0.880663
0.876222
0.873273
0.871185
0.868596
0.865454
0.861637
0.856372
0.848358
0.841257
0.838914
0.837662
0.836782
0.837896
0.842543
0.851719
0.865985
0.884021
0.905093
0.930702
0.950069
0.947398
0.938658
0.931332
0.922921
0.914298
0.907001
0.899913
0.890465
0.879822
0.875651
0.87506
0.874758
0.875233
0.877481
0.882112
0.889928
0.900221
0.910376
0.919778
0.923208
0.912863
0.904907
0.903751
0.905454
0.908233
0.912685
0.919299
0.926015
0.929049
0.928428
0.92729
0.928145
0.930068
0.930522
0.929383
0.927473
0.927647
0.934847
0.94381
0.944187
0.941921
0.93866
0.93173
0.925179
0.920279
0.917231
0.914725
0.915994
0.925483
0.9433
0.952904
0.955994
0.958247
0.959818
0.957578
0.948439
0.933488
0.908434
0.887676
0.896298
0.902086
0.905044
0.910315
0.91695
0.924697
0.933087
0.941139
0.949624
0.959406
0.963984
0.966094
0.967928
0.970302
0.971566
0.977301
0.983754
0.976483
0.95536
0.921694
0.900894
0.895957
0.895636
0.897206
0.90367
0.908522
0.916375
0.927777
0.943642
0.966683
0.973197
0.970351
0.973611
0.978662
0.98036
0.978316
0.974705
0.968961
0.963195
0.95221
0.940959
0.93467
0.931946
0.928887
0.922306
0.924585
0.941276
0.964758
0.979943
0.983781
0.985243
0.987494
0.991336
0.991493
0.984762
0.97128
0.957381
0.947698
0.940218
0.93366
0.927492
0.923899
0.922609
0.92375
0.92957
0.93952
0.954464
0.971281
0.982747
0.990057
0.998674
1.0121
1.04027
1.05435
1.00691
0.986116
0.972989
0.950878
0.930199
0.913317
0.916364
0.939489
0.954488
0.965222
0.975085
0.977061
0.974436
0.972547
0.974111
0.977395
0.985018
1.00061
1.01966
1.03425
1.06181
1.07787
0.994462
0.95881
0.950278
0.95157
0.965203
1.00073
1.02637
1.03291
1.03635
1.03719
1.0255
0.99384
0.96772
0.963195
0.964724
0.969135
0.986885
1.02234
1.03982
1.03957
1.03683
1.0329
1.02528
1.00803
0.991619
0.98771
0.986235
0.984742
0.984242
0.985817
0.991268
1.00439
1.02288
1.03067
1.02967
1.02615
1.01945
1.01049
1.0072
1.00675
1.00722
1.01317
1.02462
1.02905
1.02884
1.02692
1.02123
1.00525
0.979433
0.966839
0.965365
0.965203
0.965968
0.970638
0.985206
1.01481
1.04643
1.05645
1.05605
1.05275
1.04814
1.03917
1.02328
1.01201
1.0103
1.01024
1.01156
1.01826
1.03243
1.04229
1.04332
1.04259
1.03979
1.03121
1.01862
0.887076
0.885274
0.879958
0.872864
0.866716
0.863925
0.862844
0.862156
0.860656
0.858154
0.853539
0.848884
0.847334
0.846781
0.8472
0.849505
0.853206
0.858355
0.865696
0.875509
0.888218
0.906501
0.931915
0.946646
0.940488
0.932112
0.925037
0.9166
0.908334
0.901272
0.893473
0.883445
0.876967
0.876106
0.876083
0.876398
0.877257
0.880125
0.887154
0.897833
0.906964
0.912593
0.916304
0.912911
0.905154
0.90463
0.911842
0.921565
0.928741
0.930683
0.929861
0.927452
0.9235
0.92017
0.919058
0.921001
0.923882
0.926845
0.930955
0.939277
0.948619
0.946344
0.940757
0.934705
0.928411
0.92455
0.921987
0.919189
0.918789
0.921586
0.927841
0.937861
0.947076
0.953482
0.957248
0.958569
0.95625
0.94949
0.939289
0.927651
0.909429
0.897482
0.903697
0.906109
0.908802
0.912921
0.917665
0.923765
0.930952
0.938194
0.946232
0.955941
0.961658
0.964769
0.967928
0.971533
0.972326
0.973463
0.979151
0.971818
0.94903
0.915892
0.897401
0.894998
0.89748
0.900805
0.906874
0.915168
0.924797
0.936779
0.952799
0.96967
0.971452
0.965355
0.961611
0.962805
0.964557
0.964202
0.962622
0.962901
0.9633
0.959751
0.948727
0.938827
0.931901
0.928224
0.924914
0.927119
0.950448
0.979227
0.988416
0.988196
0.986761
0.983364
0.980574
0.976187
0.967208
0.955341
0.94701
0.943455
0.941076
0.937275
0.933831
0.932748
0.933054
0.936517
0.943999
0.954594
0.96707
0.978965
0.988391
0.989207
0.989104
0.995374
1.01558
1.0483
1.01578
0.985664
0.973851
0.953157
0.931953
0.914038
0.914669
0.938366
0.956987
0.972967
0.987732
0.991031
0.988495
0.985136
0.983301
0.982928
0.98646
0.996707
1.00772
1.02323
1.08302
1.06155
0.987161
0.961138
0.948261
0.948037
0.955777
0.986386
1.02811
1.04345
1.04626
1.04679
1.03949
1.01072
0.968702
0.956211
0.955882
0.957988
0.966404
0.995478
1.03126
1.04054
1.03951
1.03747
1.03362
1.02362
1.00444
0.991457
0.98821
0.985839
0.983831
0.983655
0.986002
0.992931
1.00839
1.02477
1.02817
1.02664
1.0235
1.0176
1.01177
1.01071
1.01104
1.01427
1.02021
1.02329
1.02348
1.02181
1.01683
1.00498
0.984688
0.973815
0.972616
0.972723
0.973505
0.977335
0.987114
1.0062
1.0339
1.05054
1.05235
1.04977
1.04598
1.04035
1.02934
1.01771
1.01478
1.01469
1.01543
1.0187
1.02773
1.03776
1.03982
1.03919
1.03712
1.03142
1.02145
0.888909
0.88573
0.87969
0.869468
0.861149
0.858181
0.856738
0.856405
0.857813
0.858665
0.85781
0.856402
0.855227
0.854907
0.855312
0.856778
0.859599
0.863479
0.867913
0.873013
0.879765
0.890628
0.910362
0.935043
0.94185
0.93348
0.925599
0.919284
0.912106
0.904651
0.896852
0.888047
0.880349
0.877221
0.87646
0.876174
0.876242
0.877934
0.883842
0.894071
0.904294
0.910355
0.912512
0.911282
0.907312
0.908886
0.922597
0.935288
0.937605
0.935752
0.931295
0.923672
0.917114
0.913278
0.911168
0.912245
0.917808
0.926852
0.940113
0.952908
0.950112
0.941175
0.934053
0.925655
0.918768
0.917347
0.918523
0.919421
0.923385
0.938969
0.954352
0.95241
0.95108
0.951185
0.949972
0.94648
0.941552
0.935461
0.929445
0.923386
0.912734
0.907786
0.908512
0.908471
0.909224
0.911276
0.914713
0.919513
0.925436
0.932045
0.939916
0.950056
0.957348
0.962747
0.968067
0.972952
0.975267
0.978855
0.98396
0.970186
0.942292
0.914178
0.901514
0.898957
0.901038
0.906573
0.914296
0.924173
0.935368
0.948912
0.961038
0.967741
0.967257
0.962303
0.955825
0.948185
0.946967
0.949084
0.951816
0.956081
0.960116
0.960939
0.957017
0.946011
0.936874
0.932646
0.932362
0.936116
0.954642
0.984926
0.994462
0.990748
0.987201
0.980683
0.967693
0.954459
0.948468
0.946018
0.943685
0.942173
0.940463
0.938756
0.94076
0.944565
0.947513
0.951865
0.958023
0.965004
0.972418
0.978389
0.982834
0.987179
0.985916
0.985571
0.995054
1.02787
1.02627
0.988893
0.972254
0.956448
0.936558
0.918922
0.915818
0.935442
0.955751
0.977951
0.998323
1.00359
1.00128
0.996218
0.989761
0.984543
0.984963
0.986598
0.987586
1.01161
1.09155
1.05779
0.994568
0.969783
0.947494
0.944592
0.949626
0.9683
1.01416
1.05007
1.05629
1.05594
1.04971
1.02675
0.978027
0.951897
0.949325
0.949315
0.952138
0.970684
1.01196
1.04045
1.04347
1.04231
1.04007
1.0349
1.02094
0.999455
0.989317
0.986338
0.983575
0.981641
0.981786
0.98553
0.994907
1.01212
1.02588
1.02772
1.02674
1.02409
1.01855
1.01438
1.01395
1.01495
1.01622
1.01672
1.01666
1.0153
1.01133
1.00342
0.99094
0.981208
0.979203
0.979351
0.980214
0.983369
0.989985
1.00099
1.01942
1.04059
1.04849
1.04777
1.04465
1.04116
1.03458
1.02369
1.01812
1.01786
1.01837
1.01983
1.02392
1.03175
1.03596
1.03581
1.03443
1.0313
1.0245
0.887831
0.884733
0.877724
0.86485
0.855725
0.853779
0.853119
0.853093
0.854436
0.857355
0.860504
0.862238
0.862437
0.862445
0.863295
0.864793
0.867064
0.869657
0.871595
0.872811
0.874596
0.879932
0.89423
0.919091
0.937939
0.935857
0.926848
0.920056
0.914339
0.907053
0.899071
0.891847
0.885443
0.880548
0.877917
0.876089
0.874707
0.87515
0.880331
0.890437
0.901044
0.907934
0.910242
0.909124
0.907483
0.912951
0.928521
0.940517
0.939169
0.935782
0.930407
0.919519
0.910936
0.90716
0.905077
0.908394
0.91991
0.938486
0.956276
0.954446
0.94478
0.936134
0.926904
0.91635
0.911425
0.910429
0.915439
0.924927
0.93668
0.958016
0.968762
0.95406
0.94457
0.938397
0.932814
0.928999
0.927092
0.925131
0.923604
0.924457
0.923503
0.920373
0.919428
0.918224
0.915995
0.914711
0.914579
0.914978
0.918141
0.924519
0.93387
0.947318
0.957516
0.965193
0.972068
0.977325
0.980937
0.98833
0.985263
0.95858
0.931675
0.917579
0.912343
0.909703
0.909388
0.913617
0.925486
0.93659
0.945173
0.957012
0.964461
0.964418
0.963236
0.959084
0.949558
0.938578
0.934602
0.934405
0.937833
0.946043
0.95489
0.959626
0.960246
0.95645
0.947615
0.941609
0.940029
0.944297
0.959112
0.985261
0.996426
0.991502
0.985801
0.975033
0.95279
0.938786
0.938137
0.940378
0.943613
0.94339
0.941257
0.941067
0.94593
0.955701
0.959166
0.961033
0.963752
0.967097
0.971224
0.974238
0.974715
0.977742
0.983043
0.983468
0.987033
1.00531
1.0258
0.995984
0.971574
0.958516
0.942742
0.925987
0.921366
0.936749
0.959564
0.985518
1.00044
1.00745
1.00944
1.00263
0.990048
0.979759
0.974602
0.971861
0.972771
1.00945
1.09532
1.06526
1.00763
0.982195
0.948922
0.939382
0.943396
0.955685
0.992012
1.04614
1.06349
1.06312
1.05756
1.03948
0.993573
0.951168
0.943461
0.942492
0.942882
0.95373
0.989862
1.03296
1.0457
1.04555
1.04402
1.041
1.03281
1.0129
0.99279
0.986456
0.983633
0.981261
0.979521
0.980037
0.985933
1.00043
1.0207
1.02977
1.03001
1.02898
1.02611
1.02042
1.0154
1.01394
1.01368
1.01325
1.01206
1.00964
1.00575
1.00108
0.995858
0.990093
0.986373
0.985961
0.986626
0.988547
0.992718
0.999107
1.0092
1.02628
1.04272
1.04659
1.04488
1.04227
1.03899
1.03114
1.02213
1.02023
1.02041
1.02114
1.02252
1.02572
1.03116
1.03285
1.0323
1.03069
1.02697
0.885781
0.88314
0.87686
0.864737
0.854997
0.85328
0.853187
0.853361
0.854011
0.855993
0.859543
0.86335
0.865605
0.866343
0.866939
0.868722
0.870412
0.870924
0.870907
0.871241
0.872013
0.87496
0.885154
0.907003
0.930098
0.935257
0.928197
0.920779
0.915063
0.909179
0.902065
0.894556
0.887482
0.881735
0.877381
0.873966
0.871899
0.872588
0.878334
0.888921
0.898846
0.905477
0.908983
0.910272
0.910553
0.91423
0.93048
0.944843
0.939976
0.933876
0.927798
0.918013
0.912517
0.909118
0.906685
0.912138
0.930469
0.95121
0.953973
0.945943
0.937357
0.929148
0.918462
0.909816
0.906269
0.907185
0.916453
0.934062
0.951089
0.966095
0.970283
0.950231
0.933647
0.925438
0.918596
0.916138
0.916662
0.918047
0.920395
0.92952
0.935038
0.928948
0.927104
0.925157
0.921838
0.919454
0.916485
0.912905
0.912559
0.916592
0.927085
0.944613
0.957777
0.968104
0.976898
0.98249
0.986687
0.992693
0.977175
0.942387
0.924626
0.922091
0.920689
0.920231
0.921736
0.928424
0.941104
0.949814
0.95561
0.960694
0.964496
0.966756
0.964443
0.956721
0.941498
0.927184
0.924493
0.924969
0.927045
0.932537
0.94396
0.956924
0.962982
0.963009
0.959827
0.9562
0.954873
0.955733
0.967071
0.985417
0.990293
0.985023
0.976966
0.959672
0.939991
0.935575
0.93547
0.939249
0.946419
0.947587
0.945543
0.945172
0.948501
0.959226
0.966353
0.966479
0.966479
0.967953
0.97004
0.971521
0.969643
0.968219
0.975079
0.983894
0.987482
0.99274
1.00943
1.00313
0.975584
0.961763
0.949732
0.935412
0.932849
0.94572
0.971552
0.98403
0.989283
0.99794
1.00569
1.0026
0.993889
0.983017
0.971155
0.962235
0.965287
1.00216
1.0937
1.08152
1.02287
0.995228
0.952899
0.933286
0.935034
0.944546
0.972889
1.03355
1.06647
1.06766
1.06434
1.05124
1.01144
0.960291
0.942266
0.93987
0.939482
0.945385
0.970365
1.01638
1.04431
1.04718
1.04631
1.04431
1.03983
1.0274
1.00359
0.98652
0.982249
0.979579
0.977367
0.976806
0.980832
0.992099
1.01214
1.02876
1.03205
1.03167
1.02998
1.02601
1.01915
1.01296
1.01004
1.00832
1.00632
1.00339
1.0006
0.999634
0.999433
0.997629
0.993552
0.99123
0.991528
0.992437
0.99429
0.997657
1.00338
1.01456
1.03318
1.04573
1.04705
1.04496
1.04244
1.03784
1.02787
1.0209
1.02016
1.02046
1.02117
1.02259
1.02561
1.0298
1.03061
1.03041
1.02903
0.885675
0.884513
0.880409
0.868582
0.855226
0.851951
0.851702
0.851558
0.851723
0.852981
0.856075
0.860533
0.864442
0.867509
0.871175
0.875518
0.879224
0.87845
0.874966
0.87337
0.873585
0.87438
0.880397
0.897645
0.922173
0.932591
0.929065
0.922241
0.916641
0.911435
0.904691
0.895275
0.884817
0.878532
0.875423
0.873136
0.8724
0.874746
0.881452
0.891624
0.901563
0.90809
0.911107
0.913632
0.916397
0.918764
0.92452
0.938324
0.940872
0.931983
0.924962
0.916727
0.912954
0.91064
0.910867
0.921317
0.942004
0.951185
0.945296
0.937761
0.930474
0.921375
0.911723
0.906806
0.904979
0.909454
0.924665
0.946265
0.959713
0.968812
0.97243
0.951785
0.92828
0.913746
0.907241
0.907471
0.912172
0.917071
0.922444
0.936801
0.945445
0.938716
0.932046
0.928485
0.923828
0.919342
0.913949
0.909721
0.908433
0.911683
0.925539
0.945783
0.959684
0.971889
0.981137
0.985511
0.989322
0.989388
0.959346
0.927715
0.921088
0.919815
0.919148
0.921913
0.929736
0.94327
0.954874
0.959468
0.961775
0.962354
0.961933
0.96437
0.966035
0.957421
0.936875
0.919731
0.916961
0.917307
0.919055
0.923807
0.93264
0.946462
0.961712
0.968812
0.969969
0.96983
0.970876
0.975401
0.984001
0.987692
0.982535
0.974887
0.960129
0.942384
0.937198
0.936489
0.937461
0.942303
0.950555
0.954054
0.951256
0.948892
0.949383
0.955759
0.966343
0.968826
0.9693
0.969371
0.96965
0.970674
0.970783
0.968413
0.968806
0.978466
0.98721
0.991628
1.00115
1.00372
0.983471
0.966397
0.95512
0.94621
0.947845
0.961973
0.977207
0.97857
0.981188
0.988602
0.996774
0.991061
0.982752
0.977581
0.968146
0.958724
0.963193
0.993224
1.07685
1.10125
1.04001
1.00571
0.959849
0.92968
0.928204
0.934415
0.957353
1.01887
1.06944
1.0759
1.07375
1.06253
1.02368
0.965406
0.941646
0.938466
0.937966
0.942804
0.95887
0.995958
1.03635
1.04802
1.04774
1.04613
1.04318
1.03615
1.01868
0.994656
0.984237
0.981196
0.978369
0.976568
0.978441
0.986334
1.00259
1.02393
1.03366
1.03414
1.03301
1.03009
1.02386
1.01428
1.00697
1.00267
0.999075
0.997604
0.999356
1.00132
1.00297
1.0032
1.00048
0.99597
0.994852
0.99504
0.995205
0.996187
0.999258
1.00718
1.02423
1.04331
1.04903
1.048
1.04518
1.04176
1.03361
1.02278
1.01927
1.01871
1.01864
1.01942
1.0214
1.02621
1.03121
1.03213
1.03155
0.885162
0.884094
0.881654
0.873026
0.858442
0.851275
0.850585
0.850577
0.850793
0.851841
0.854469
0.858862
0.864019
0.868369
0.872531
0.878003
0.883658
0.884754
0.881059
0.875345
0.87194
0.871366
0.876258
0.891202
0.914676
0.929393
0.929438
0.923658
0.918414
0.913071
0.904675
0.891777
0.881359
0.87839
0.876478
0.874638
0.874762
0.87773
0.885317
0.8958
0.904601
0.909951
0.912773
0.914991
0.918654
0.922505
0.924795
0.927113
0.932063
0.927785
0.919521
0.914958
0.912984
0.91365
0.918664
0.934306
0.948934
0.945484
0.937235
0.930322
0.921603
0.911756
0.907037
0.905354
0.906462
0.914617
0.936255
0.956733
0.961558
0.962567
0.966521
0.954151
0.926543
0.906584
0.901053
0.903374
0.909629
0.920036
0.931011
0.943072
0.948654
0.945554
0.936485
0.92832
0.922506
0.916835
0.91226
0.909876
0.909324
0.91404
0.931289
0.948922
0.962028
0.973786
0.982032
0.984796
0.985265
0.972458
0.932408
0.914204
0.912638
0.911484
0.91199
0.917819
0.929612
0.948078
0.963681
0.967637
0.968417
0.967393
0.964558
0.96249
0.962642
0.958145
0.937392
0.913097
0.907875
0.909806
0.913207
0.918196
0.925359
0.936751
0.952733
0.968815
0.978902
0.985197
0.991567
0.996461
0.99436
0.988074
0.977398
0.959388
0.940241
0.934351
0.934175
0.936594
0.940863
0.948359
0.957523
0.961206
0.957315
0.951996
0.949097
0.950435
0.959228
0.967499
0.969893
0.970942
0.970547
0.969654
0.970954
0.971499
0.970851
0.973308
0.982065
0.994354
1.00251
0.997232
0.983297
0.968184
0.956531
0.953827
0.959688
0.973581
0.97777
0.97559
0.976333
0.980093
0.985899
0.982495
0.971221
0.968242
0.967911
0.964379
0.96619
0.988827
1.05669
1.11286
1.05474
1.00887
0.965077
0.927509
0.923203
0.926137
0.946111
1.00743
1.06836
1.07955
1.07807
1.06871
1.03416
0.977326
0.949831
0.944985
0.942855
0.944451
0.954454
0.978976
1.01962
1.04445
1.04709
1.04596
1.04392
1.03996
1.02932
1.007
0.986452
0.980638
0.978365
0.976348
0.976051
0.980914
0.994694
1.01894
1.03635
1.03842
1.03721
1.03403
1.02681
1.01446
1.00215
0.995907
0.994831
0.99639
0.998739
1.00206
1.00617
1.00742
1.00603
1.00088
0.995752
0.995066
0.995032
0.994893
0.996138
1.00217
1.01801
1.04036
1.05069
1.05107
1.0484
1.04523
1.03926
1.02681
1.01764
1.01587
1.01543
1.01582
1.01761
1.02328
1.03155
1.03424
1.03384
0.882842
0.882063
0.880456
0.874621
0.861958
0.853593
0.852165
0.851538
0.850931
0.851082
0.853303
0.858251
0.864697
0.871031
0.876138
0.880282
0.883653
0.885437
0.883908
0.88007
0.876041
0.874371
0.877232
0.888758
0.90798
0.92434
0.928062
0.923472
0.918465
0.912868
0.901223
0.886519
0.880838
0.879197
0.87719
0.875284
0.876213
0.882416
0.893429
0.903423
0.909526
0.912799
0.914271
0.915549
0.918128
0.92074
0.920894
0.92004
0.920411
0.918409
0.913745
0.912036
0.914711
0.919918
0.930768
0.947366
0.951894
0.940157
0.930341
0.9228
0.912863
0.906449
0.904637
0.905323
0.910889
0.92385
0.948429
0.964583
0.964932
0.959741
0.956777
0.953694
0.92905
0.903237
0.893299
0.893413
0.901193
0.920578
0.937207
0.945538
0.947028
0.944249
0.938166
0.928606
0.920413
0.916423
0.913905
0.912186
0.913521
0.921517
0.939805
0.95407
0.964343
0.97301
0.979149
0.981669
0.978571
0.952095
0.912611
0.905945
0.906772
0.906523
0.909265
0.916397
0.927773
0.948068
0.971516
0.978168
0.978191
0.975682
0.970827
0.964539
0.959299
0.953431
0.93779
0.912626
0.904775
0.909651
0.913198
0.916478
0.921902
0.93108
0.946517
0.96827
0.990214
1.0056
1.013
1.01308
1.00608
0.988765
0.961947
0.93773
0.930847
0.929441
0.930456
0.934253
0.942854
0.955731
0.966491
0.96774
0.962777
0.956139
0.951162
0.950128
0.954803
0.965161
0.970647
0.973042
0.974668
0.97301
0.971351
0.972821
0.973592
0.974603
0.979428
0.991469
0.994201
0.982648
0.970514
0.962362
0.958458
0.960146
0.968602
0.981673
0.981563
0.976462
0.974665
0.975555
0.975282
0.972551
0.960238
0.956488
0.962023
0.971316
0.979464
0.994742
1.04276
1.10925
1.07131
1.01143
0.969345
0.9293
0.921194
0.921919
0.938391
0.99569
1.06326
1.07988
1.07838
1.07054
1.0437
0.99041
0.956722
0.950456
0.947999
0.948352
0.954912
0.969867
0.999381
1.03396
1.04539
1.04567
1.04382
1.04095
1.03451
1.01833
0.993181
0.978715
0.975548
0.973607
0.97321
0.977183
0.990228
1.01653
1.03702
1.03981
1.03848
1.03497
1.02708
1.01132
0.99724
0.99383
0.993893
0.995616
0.998378
1.00446
1.01069
1.01193
1.01061
1.00506
0.996559
0.993918
0.993734
0.993592
0.993938
0.998633
1.01426
1.03897
1.05236
1.05377
1.0514
1.04796
1.04244
1.02938
1.01619
1.01298
1.01257
1.01275
1.01448
1.02152
1.03242
1.03653
1.0362
0.88
0.879258
0.877664
0.872944
0.862338
0.854506
0.853267
0.852785
0.852105
0.851718
0.853103
0.858866
0.869109
0.877706
0.881029
0.881298
0.880948
0.881664
0.882891
0.881729
0.879508
0.879041
0.881707
0.889649
0.903868
0.917848
0.923428
0.919807
0.914406
0.907262
0.896436
0.886711
0.882046
0.879648
0.877432
0.876637
0.880729
0.891343
0.901499
0.905647
0.907642
0.911162
0.915955
0.91956
0.919639
0.918369
0.917879
0.916052
0.914095
0.910376
0.907175
0.910625
0.918984
0.931056
0.942408
0.948804
0.949179
0.935926
0.923323
0.914836
0.906778
0.903404
0.902907
0.90629
0.915474
0.934802
0.958457
0.966622
0.965685
0.956992
0.947888
0.943024
0.929196
0.903334
0.88897
0.888676
0.899725
0.925231
0.94828
0.956681
0.958399
0.95633
0.946819
0.931037
0.91979
0.914788
0.911137
0.90955
0.913644
0.926607
0.946829
0.959502
0.96673
0.972892
0.976783
0.976337
0.970142
0.943051
0.900762
0.898262
0.90389
0.905453
0.907863
0.913009
0.922677
0.94283
0.972397
0.983741
0.983351
0.980437
0.973704
0.964217
0.954547
0.945629
0.93378
0.91458
0.901433
0.906119
0.913187
0.918023
0.923098
0.931541
0.946714
0.973388
1.00514
1.02246
1.02561
1.02316
1.01322
0.982825
0.94265
0.92858
0.926457
0.925357
0.92576
0.931668
0.945069
0.960699
0.968521
0.967255
0.963143
0.95841
0.952947
0.950541
0.95384
0.963999
0.972047
0.975552
0.979079
0.981123
0.977393
0.973558
0.973718
0.973446
0.976278
0.983435
0.977325
0.965672
0.961053
0.962847
0.96504
0.967714
0.977296
0.988129
0.98498
0.975978
0.972118
0.973484
0.975187
0.969613
0.949599
0.944469
0.951364
0.968375
0.994951
1.02149
1.05702
1.09213
1.07027
1.01449
0.970153
0.934325
0.919943
0.919709
0.93247
0.982579
1.05423
1.07731
1.07625
1.06984
1.05072
1.00532
0.964209
0.955495
0.953954
0.953569
0.956894
0.966736
0.984804
1.01548
1.04108
1.04535
1.04304
1.03979
1.03565
1.0253
1.00371
0.983107
0.976714
0.974659
0.97277
0.974381
0.986566
1.01433
1.03681
1.03988
1.0385
1.03473
1.02523
1.00639
0.994229
0.992664
0.992988
0.994508
0.998253
1.00778
1.01468
1.01555
1.01411
1.00841
0.997606
0.992128
0.99167
0.991661
0.991924
0.99623
1.01253
1.03926
1.05361
1.05521
1.05304
1.04944
1.04378
1.03021
1.01455
1.01031
1.00996
1.01001
1.01198
1.02052
1.03345
1.03867
1.03853
0.877332
0.876464
0.874722
0.870133
0.861087
0.855096
0.853978
0.853143
0.85231
0.852193
0.854594
0.862239
0.875108
0.883739
0.883327
0.880737
0.878725
0.877768
0.878983
0.881137
0.882487
0.884502
0.888336
0.894653
0.903404
0.911642
0.914756
0.911754
0.906445
0.901378
0.895236
0.888842
0.884566
0.881906
0.880298
0.88248
0.892123
0.902779
0.904175
0.902173
0.90204
0.906392
0.915064
0.921298
0.921481
0.917383
0.9127
0.910997
0.908463
0.903799
0.901286
0.910621
0.929132
0.945714
0.950743
0.94719
0.941823
0.934088
0.919327
0.908758
0.902175
0.900481
0.901543
0.906741
0.922964
0.94883
0.963577
0.966577
0.964505
0.955429
0.940634
0.931848
0.922715
0.904686
0.889288
0.891857
0.908238
0.936521
0.954924
0.956672
0.953929
0.947611
0.935285
0.91982
0.911248
0.907485
0.904584
0.905775
0.915432
0.936001
0.954174
0.963016
0.968424
0.974025
0.976572
0.972749
0.962468
0.943554
0.905238
0.886442
0.898247
0.903013
0.904736
0.908526
0.917557
0.937184
0.965439
0.982483
0.984227
0.981978
0.975594
0.964839
0.95127
0.937852
0.926974
0.917215
0.908483
0.908746
0.916298
0.923807
0.930285
0.937167
0.952115
0.982479
1.01439
1.02624
1.02686
1.02321
1.0104
0.97418
0.936358
0.92702
0.925348
0.924215
0.926203
0.935559
0.951396
0.963261
0.965085
0.961511
0.958724
0.957934
0.953738
0.950506
0.954655
0.965653
0.974561
0.978742
0.983087
0.986742
0.984007
0.975585
0.971319
0.969409
0.968053
0.967667
0.963148
0.958718
0.959614
0.963783
0.969431
0.977581
0.988382
0.992364
0.985471
0.97385
0.969249
0.970842
0.973519
0.967442
0.942292
0.935912
0.946306
0.968765
1.01283
1.05384
1.07705
1.07369
1.04603
1.01179
0.975432
0.943604
0.924748
0.919651
0.929043
0.970587
1.04187
1.07112
1.07033
1.06511
1.05243
1.02116
0.977598
0.960422
0.959393
0.959689
0.961484
0.966992
0.9786
0.998691
1.02738
1.04334
1.04337
1.03865
1.03407
1.02725
1.0105
0.987465
0.976804
0.974624
0.973596
0.975682
0.987583
1.01433
1.03506
1.03762
1.03623
1.03209
1.02112
1.00253
0.993559
0.992732
0.993123
0.994651
0.999873
1.01162
1.01768
1.01827
1.01672
1.01062
0.998265
0.990804
0.989995
0.990122
0.990584
0.995048
1.01219
1.04
1.05436
1.05582
1.05378
1.05029
1.04465
1.03042
1.01304
1.00802
1.00761
1.00756
1.00999
1.02034
1.03517
1.04096
1.04081
0.876013
0.875159
0.872311
0.866189
0.858616
0.855276
0.854437
0.853597
0.852955
0.853748
0.858463
0.868177
0.879448
0.886396
0.885007
0.880664
0.877163
0.875468
0.875583
0.878775
0.883331
0.888416
0.894283
0.900486
0.904785
0.905349
0.904197
0.904483
0.902288
0.896908
0.892311
0.888612
0.885804
0.884245
0.885205
0.89222
0.903449
0.906586
0.903204
0.899954
0.898917
0.902557
0.912031
0.919393
0.918798
0.914742
0.909394
0.903711
0.900183
0.896876
0.897632
0.913035
0.940504
0.954897
0.952352
0.945874
0.939088
0.931917
0.919093
0.905575
0.898697
0.897943
0.901225
0.913826
0.94051
0.958858
0.963442
0.964162
0.961392
0.9516
0.932828
0.920867
0.914187
0.906772
0.896469
0.898994
0.917408
0.938968
0.949468
0.95037
0.947325
0.937511
0.922313
0.910383
0.906459
0.905926
0.905899