/*--------------------------------*- C++ -*----------------------------------*\
  =========                 |
  \\      /  F ield         | OpenFOAM: The Open Source CFD Toolbox
   \\    /   O peration     | Website:  https://openfoam.org
    \\  /    A nd           | Version:  7
     \\/     M anipulation  |
\*---------------------------------------------------------------------------*/
FoamFile
{
    version     2.0;
    format      ascii;
    class       volScalarField;
    location    "3.4";
    object      T;
}
// * * * * * * * * * * * * * * * * * * * * * * * * * * * * * * * * * * * * * //

dimensions      [0 0 0 1 0 0 0];

internalField   nonuniform List<scalar> 
16192
(
1.37005
1.36926
1.36831
1.36683
1.3634
1.35751
1.35332
1.35269
1.35259
1.35419
1.35705
1.3573
1.35714
1.35706
1.35656
1.35328
1.3446
1.33515
1.33203
1.33153
1.33171
1.3339
1.33878
1.34243
1.34317
1.34333
1.34362
1.34379
1.34346
1.34165
1.33934
1.33875
1.33862
1.33855
1.33842
1.33818
1.3374
1.33673
1.33679
1.33735
1.33909
1.34303
1.34626
1.34656
1.34618
1.34526
1.34284
1.33755
1.33235
1.3305
1.33005
1.32997
1.33023
1.33096
1.33173
1.33222
1.33266
1.33341
1.33484
1.33669
1.33784
1.33794
1.3377
1.33734
1.33627
1.34076
1.3786
1.55023
1.78153
1.84579
1.8599
1.85532
1.85506
1.86171
1.86874
1.87148
1.87088
1.86771
1.86187
1.85584
1.85144
1.84766
1.84648
1.84508
1.84405
1.84555
1.84911
1.84929
1.84697
1.84314
1.83787
1.83085
1.82538
1.82265
1.82095
1.82074
1.82173
1.82179
1.81894
1.81495
1.81078
1.8066
1.8036
1.80133
1.79905
1.7964
1.79363
1.79126
1.7888
1.78626
1.78439
1.78282
1.78164
1.78173
1.78168
1.77995
1.77738
1.7742
1.77076
1.76702
1.76431
1.76283
1.76177
1.76174
1.76322
1.76512
1.76449
1.76267
1.75987
1.75505
1.75053
1.74872
1.74781
1.74729
1.74789
1.74962
1.74938
1.74781
1.7457
1.74297
1.74034
1.73826
1.73663
1.73525
1.73375
1.73209
1.72973
1.72626
1.72343
1.72186
1.72073
1.71984
1.71962
1.71958
1.71834
1.71653
1.71471
1.71251
1.70935
1.70506
1.70177
1.69973
1.69823
1.69765
1.69777
1.69726
1.69557
1.69365
1.69125
1.68796
1.68453
1.68172
1.67924
1.67717
1.67552
1.67402
1.67265
1.67146
1.67003
1.66846
1.66801
1.66818
1.66803
1.66628
1.66434
1.66229
1.65978
1.65696
1.65372
1.65073
1.64867
1.64693
1.64551
1.64491
1.64513
1.64537
1.64389
1.64111
1.63784
1.63375
1.62918
1.62462
1.62144
1.61962
1.61806
1.61684
1.61654
1.61731
1.61882
1.61864
1.61716
1.61525
1.61279
1.60976
1.60642
1.60269
1.59904
1.59598
1.59351
1.5916
1.59033
1.58946
1.58909
1.58989
1.59164
1.59166
1.59063
1.5893
1.5874
1.58412
1.57933
1.57485
1.57203
1.57042
1.56929
1.56851
1.56872
1.57105
1.57355
1.57449
1.57438
1.57358
1.57241
1.57
1.56444
1.55726
1.55349
1.55192
1.5509
1.55009
1.54976
1.55043
1.55285
1.37182
1.3709
1.36962
1.36693
1.36143
1.35634
1.35535
1.35516
1.35625
1.35923
1.35979
1.35945
1.35936
1.35896
1.35609
1.34782
1.33756
1.33341
1.33256
1.33257
1.33449
1.33919
1.34255
1.34291
1.34302
1.34329
1.34344
1.34318
1.34118
1.33804
1.337
1.3367
1.33649
1.33627
1.33595
1.33534
1.33473
1.33476
1.33532
1.33699
1.34075
1.34435
1.34491
1.34462
1.34384
1.34171
1.33691
1.33204
1.33029
1.32993
1.32996
1.33039
1.33089
1.33116
1.33134
1.33144
1.33165
1.33257
1.33448
1.33635
1.33674
1.33654
1.33625
1.33554
1.34314
1.4152
1.56492
1.76564
1.84823
1.8603
1.86029
1.85495
1.85236
1.85792
1.8627
1.86556
1.86501
1.86071
1.85525
1.84865
1.84341
1.84166
1.8417
1.84209
1.843
1.84625
1.8476
1.84515
1.84156
1.83728
1.8304
1.82406
1.8213
1.81944
1.81918
1.8206
1.82107
1.81856
1.81441
1.80977
1.8053
1.80256
1.80047
1.79866
1.79655
1.79396
1.79061
1.78717
1.78467
1.78261
1.78095
1.78045
1.78102
1.78226
1.78158
1.77908
1.77511
1.77023
1.76552
1.76293
1.7614
1.7605
1.76047
1.7618
1.7637
1.76334
1.76174
1.75955
1.75579
1.75107
1.74804
1.74662
1.74582
1.7458
1.74737
1.74824
1.7472
1.74574
1.74424
1.74209
1.73913
1.73625
1.73411
1.73231
1.73075
1.7291
1.72731
1.72518
1.723
1.72123
1.71992
1.71894
1.71796
1.71642
1.71449
1.71238
1.71039
1.70828
1.70571
1.70276
1.70022
1.69811
1.69626
1.69508
1.69387
1.69203
1.69036
1.6886
1.6864
1.68375
1.68091
1.67823
1.67573
1.67331
1.67125
1.66937
1.66753
1.66587
1.66448
1.66368
1.66364
1.66383
1.6628
1.66096
1.6592
1.65711
1.65435
1.6512
1.64856
1.64652
1.64477
1.64333
1.64267
1.64303
1.64357
1.64248
1.64012
1.63708
1.63326
1.6286
1.6238
1.62039
1.61813
1.61633
1.61486
1.61402
1.61437
1.61578
1.61591
1.61461
1.61328
1.61147
1.60852
1.60447
1.60023
1.59723
1.59494
1.59289
1.59086
1.58905
1.58778
1.58697
1.58683
1.58778
1.58898
1.58866
1.58786
1.58682
1.58508
1.58167
1.57621
1.57128
1.56844
1.56664
1.56538
1.5646
1.56453
1.56655
1.5711
1.57285
1.57233
1.57128
1.57012
1.56845
1.5651
1.55894
1.55241
1.54885
1.54698
1.54607
1.54567
1.54626
1.55022
1.37354
1.37235
1.37029
1.36549
1.35985
1.35826
1.35801
1.35864
1.36149
1.36268
1.3622
1.36194
1.36152
1.35888
1.35103
1.3404
1.33552
1.33448
1.33433
1.33589
1.34019
1.34326
1.3434
1.34336
1.34347
1.34357
1.34341
1.34149
1.33761
1.33575
1.33533
1.33501
1.33468
1.33423
1.33355
1.33282
1.33275
1.33315
1.33462
1.33817
1.34208
1.34296
1.34281
1.34224
1.34039
1.336
1.33145
1.32991
1.32972
1.32986
1.33057
1.33081
1.33054
1.33032
1.33026
1.33025
1.3307
1.33236
1.33476
1.33562
1.33547
1.33532
1.33498
1.34362
1.43788
1.64993
1.76994
1.8353
1.85756
1.86066
1.8607
1.85939
1.85386
1.85284
1.85395
1.85417
1.85478
1.85125
1.84526
1.84133
1.83814
1.83737
1.83832
1.84076
1.84427
1.84559
1.84316
1.83926
1.83538
1.82944
1.82291
1.81971
1.8178
1.81732
1.8188
1.81987
1.81764
1.8138
1.80944
1.80466
1.80143
1.79944
1.79798
1.79622
1.79389
1.79104
1.78767
1.7844
1.78219
1.78047
1.77926
1.77958
1.78171
1.78172
1.77951
1.77652
1.77199
1.76639
1.7629
1.76115
1.76003
1.75965
1.76074
1.76258
1.76212
1.76032
1.75817
1.75494
1.75125
1.74852
1.74671
1.74552
1.74486
1.74506
1.74556
1.74535
1.74433
1.74325
1.74206
1.74058
1.7384
1.73517
1.73168
1.72911
1.72722
1.72559
1.72401
1.72257
1.72121
1.72011
1.71894
1.7174
1.7154
1.71297
1.71046
1.70792
1.70526
1.70283
1.70074
1.69876
1.69698
1.69567
1.69447
1.6927
1.69054
1.68781
1.68497
1.68274
1.68049
1.6781
1.67573
1.67351
1.67122
1.66901
1.66703
1.66526
1.66346
1.66164
1.6602
1.65959
1.65929
1.65829
1.65646
1.65486
1.65321
1.65114
1.64866
1.64626
1.64437
1.64273
1.6413
1.64063
1.64101
1.64146
1.6403
1.63808
1.6355
1.63227
1.62794
1.62338
1.62015
1.61784
1.61573
1.61389
1.61265
1.61257
1.61343
1.61341
1.61182
1.61021
1.60866
1.60669
1.60373
1.59932
1.59525
1.59304
1.59153
1.58995
1.58833
1.58684
1.5856
1.58484
1.58482
1.58571
1.58666
1.58608
1.58518
1.58402
1.58215
1.57904
1.57446
1.5698
1.56659
1.56438
1.56269
1.56159
1.56134
1.56215
1.56452
1.56665
1.56756
1.56763
1.56698
1.56585
1.56367
1.56016
1.55484
1.54885
1.54535
1.54375
1.54308
1.54336
1.54579
1.37514
1.37339
1.36941
1.36376
1.36144
1.36112
1.3614
1.36389
1.36573
1.3653
1.36482
1.36425
1.36159
1.35401
1.34339
1.33814
1.33698
1.33679
1.33808
1.34177
1.34445
1.34451
1.34426
1.34421
1.3442
1.34401
1.34229
1.33811
1.33524
1.33456
1.3342
1.3338
1.33325
1.33234
1.33128
1.33102
1.33122
1.33234
1.33554
1.3396
1.34081
1.34078
1.34043
1.33893
1.33491
1.33055
1.32922
1.32915
1.32946
1.33034
1.33055
1.33012
1.32928
1.32901
1.32896
1.32915
1.33043
1.33309
1.33455
1.33447
1.33457
1.33484
1.34586
1.43986
1.68184
1.81056
1.84587
1.84759
1.84807
1.85363
1.85817
1.85859
1.85632
1.85269
1.84777
1.84491
1.84401
1.84252
1.84006
1.8386
1.83645
1.83587
1.83779
1.84159
1.84269
1.84088
1.83726
1.83318
1.82728
1.8208
1.81792
1.81633
1.81588
1.8172
1.81844
1.81639
1.81262
1.80867
1.8042
1.8004
1.79825
1.7966
1.79488
1.79283
1.79052
1.78785
1.78503
1.78251
1.78064
1.7793
1.77908
1.78009
1.77989
1.77802
1.77597
1.77283
1.76791
1.76389
1.76195
1.76056
1.75981
1.76052
1.76174
1.76114
1.75921
1.7568
1.75337
1.74969
1.74777
1.74694
1.74626
1.74551
1.74506
1.74455
1.74329
1.742
1.74089
1.74009
1.73927
1.73807
1.73649
1.73401
1.72994
1.72585
1.72349
1.72183
1.72031
1.71916
1.71889
1.71812
1.7164
1.71461
1.71241
1.70957
1.70631
1.70308
1.70001
1.69732
1.69523
1.69359
1.69274
1.69247
1.69151
1.68942
1.68727
1.6846
1.6809
1.67742
1.67478
1.67224
1.66985
1.66784
1.66562
1.66359
1.66187
1.66031
1.65878
1.65721
1.65612
1.65566
1.65467
1.65256
1.65062
1.64884
1.64703
1.64501
1.64308
1.64153
1.6402
1.63905
1.63869
1.63916
1.63946
1.63804
1.63576
1.63327
1.63023
1.62636
1.62222
1.61913
1.61704
1.61513
1.61337
1.612
1.61173
1.6123
1.61229
1.61029
1.60791
1.60561
1.60333
1.60103
1.59835
1.59518
1.59227
1.59045
1.58912
1.58774
1.58626
1.58486
1.5837
1.58301
1.58316
1.58394
1.58356
1.5825
1.58149
1.58042
1.57884
1.57623
1.57301
1.56984
1.56685
1.56409
1.56184
1.56025
1.55951
1.55954
1.55988
1.56029
1.56064
1.56114
1.56166
1.56149
1.56062
1.55886
1.55634
1.55253
1.54725
1.54346
1.54217
1.54215
1.54345
1.37642
1.37302
1.36763
1.36478
1.36439
1.36449
1.36658
1.36889
1.36857
1.36789
1.36715
1.36436
1.35681
1.34625
1.34096
1.33981
1.33966
1.34098
1.34407
1.34606
1.34604
1.34564
1.3454
1.34525
1.34493
1.34346
1.33936
1.33556
1.3345
1.33412
1.33364
1.333
1.3318
1.33027
1.32972
1.32976
1.33055
1.33331
1.33721
1.33868
1.33871
1.33848
1.33734
1.33377
1.32944
1.32817
1.32815
1.3286
1.32958
1.32983
1.32941
1.32832
1.32774
1.32767
1.32773
1.3287
1.33138
1.33359
1.33342
1.33359
1.33539
1.35721
1.45452
1.6748
1.8308
1.85494
1.85627
1.84915
1.84335
1.84782
1.85367
1.85639
1.85543
1.84973
1.84302
1.83776
1.83448
1.83261
1.83296
1.83349
1.83421
1.83585
1.83943
1.84048
1.83837
1.83469
1.8303
1.82439
1.81879
1.81603
1.81445
1.81417
1.81549
1.81692
1.8151
1.81142
1.80758
1.80335
1.79982
1.79749
1.79554
1.79343
1.79107
1.78857
1.78623
1.78404
1.78227
1.78058
1.77927
1.77922
1.78003
1.77948
1.77738
1.77462
1.77124
1.76718
1.76399
1.76227
1.76104
1.76061
1.76143
1.76245
1.76165
1.75927
1.75619
1.7521
1.748
1.74601
1.74516
1.74501
1.74577
1.74624
1.74512
1.74283
1.74051
1.73894
1.73772
1.73667
1.73597
1.73483
1.7333
1.73134
1.72811
1.72366
1.72043
1.71847
1.71688
1.71592
1.71571
1.71454
1.7125
1.71056
1.70827
1.70516
1.70166
1.69854
1.69589
1.69338
1.69127
1.68994
1.68956
1.68881
1.68684
1.68483
1.68266
1.68
1.67677
1.67335
1.67043
1.66761
1.66493
1.66257
1.66014
1.65803
1.65634
1.6549
1.65362
1.65277
1.65218
1.65111
1.64919
1.64725
1.6453
1.64325
1.64117
1.6396
1.63836
1.63733
1.63655
1.63649
1.63721
1.63746
1.63604
1.63378
1.63118
1.62813
1.62443
1.62048
1.61755
1.61575
1.6141
1.61259
1.61144
1.61126
1.61186
1.612
1.61015
1.60761
1.60487
1.60171
1.59814
1.59491
1.59287
1.59155
1.59017
1.58867
1.58734
1.58615
1.58489
1.58354
1.58243
1.58206
1.58231
1.58166
1.57992
1.57843
1.57726
1.57593
1.57417
1.57222
1.57056
1.56917
1.5675
1.56553
1.56329
1.56131
1.55955
1.55766
1.55596
1.55507
1.55442
1.554
1.55414
1.55518
1.55617
1.55597
1.55533
1.55412
1.55194
1.54868
1.54501
1.5427
1.5417
1.37644
1.37135
1.36812
1.36769
1.36773
1.36955
1.37214
1.372
1.37106
1.37007
1.36718
1.35959
1.34895
1.34366
1.34265
1.34262
1.34423
1.34692
1.34809
1.34794
1.34741
1.34704
1.34673
1.34627
1.34499
1.34113
1.33663
1.33507
1.33467
1.33417
1.33341
1.3319
1.32987
1.32895
1.32887
1.32944
1.33183
1.33536
1.33684
1.33687
1.33668
1.33577
1.33265
1.32835
1.32692
1.32689
1.32732
1.32838
1.32873
1.32839
1.32728
1.32638
1.3263
1.32634
1.32707
1.32966
1.33252
1.3329
1.33246
1.33456
1.37118
1.52503
1.68399
1.82158
1.85618
1.8557
1.85347
1.84854
1.84411
1.8471
1.85182
1.85232
1.85073
1.84465
1.8365
1.83037
1.82702
1.82552
1.82583
1.82865
1.83293
1.8381
1.84
1.83803
1.83333
1.82745
1.82042
1.81501
1.81284
1.81187
1.81215
1.81431
1.81574
1.81391
1.81042
1.80656
1.80259
1.79961
1.79736
1.7953
1.79314
1.7907
1.78764
1.78441
1.78214
1.78041
1.77889
1.77812
1.77847
1.78017
1.78022
1.77823
1.7753
1.77123
1.76609
1.76265
1.76102
1.7603
1.7603
1.76172
1.76353
1.76271
1.76024
1.75667
1.75177
1.74755
1.74529
1.74414
1.7437
1.74456
1.74562
1.74488
1.74313
1.74088
1.7381
1.7359
1.73441
1.73318
1.7322
1.73065
1.72895
1.72726
1.72491
1.72167
1.71837
1.71598
1.71421
1.71294
1.71168
1.70972
1.70766
1.70551
1.70284
1.69938
1.69625
1.6938
1.69142
1.68926
1.68782
1.68766
1.68691
1.68445
1.68203
1.67939
1.67652
1.67383
1.67121
1.66854
1.666
1.66339
1.66064
1.65805
1.65554
1.65331
1.65157
1.65013
1.64918
1.6486
1.64744
1.64556
1.64368
1.64174
1.63977
1.638
1.6365
1.63532
1.63434
1.6337
1.63382
1.63482
1.63511
1.63379
1.63165
1.62925
1.6263
1.62261
1.6188
1.61596
1.61435
1.61297
1.61166
1.61073
1.61073
1.61163
1.61186
1.61007
1.60752
1.6048
1.60166
1.59774
1.59377
1.59072
1.58863
1.5877
1.58717
1.58639
1.58553
1.58462
1.58364
1.58258
1.58183
1.58204
1.58154
1.57941
1.57726
1.57538
1.57336
1.5711
1.56911
1.56784
1.56716
1.56646
1.56578
1.56532
1.56444
1.56297
1.56059
1.55705
1.55335
1.55037
1.54856
1.54756
1.54706
1.54727
1.54925
1.55185
1.55237
1.55238
1.55241
1.5519
1.54996
1.54581
1.54072
1.37492
1.37146
1.37095
1.371
1.37266
1.3754
1.37551
1.37442
1.37304
1.36988
1.3624
1.35165
1.34613
1.34526
1.34546
1.34751
1.3502
1.3506
1.35
1.34949
1.34905
1.34861
1.34804
1.34688
1.34335
1.33841
1.33619
1.33575
1.33524
1.33439
1.33266
1.3301
1.32882
1.32866
1.32907
1.3312
1.3343
1.33555
1.33555
1.33538
1.33455
1.33174
1.32745
1.32571
1.32561
1.32595
1.327
1.32746
1.32725
1.32623
1.32498
1.32479
1.32484
1.32548
1.32788
1.33129
1.33227
1.33191
1.3346
1.37099
1.56215
1.74941
1.82412
1.84938
1.85161
1.85172
1.8507
1.84991
1.8467
1.84554
1.84577
1.84468
1.84321
1.83864
1.83085
1.82434
1.82149
1.82097
1.82204
1.82711
1.83479
1.83735
1.83612
1.83277
1.82772
1.81919
1.81192
1.80951
1.80843
1.80867
1.81194
1.81456
1.81298
1.80966
1.80563
1.80168
1.79912
1.79717
1.79548
1.79363
1.79114
1.78778
1.78396
1.78084
1.77909
1.77776
1.77675
1.77702
1.77924
1.77968
1.77802
1.77567
1.77198
1.76659
1.76276
1.76101
1.75996
1.75957
1.76102
1.76323
1.76264
1.76047
1.75729
1.75248
1.74747
1.74467
1.74341
1.7427
1.74299
1.7437
1.74303
1.74139
1.73975
1.738
1.73603
1.73377
1.73171
1.72998
1.72807
1.72589
1.72366
1.72169
1.71977
1.71757
1.71526
1.71304
1.71143
1.70974
1.70743
1.70508
1.7027
1.69999
1.69662
1.69322
1.6906
1.68817
1.68579
1.68427
1.68432
1.68455
1.68292
1.68035
1.67777
1.67389
1.66976
1.66721
1.66512
1.66295
1.66083
1.65868
1.65624
1.65375
1.65145
1.64933
1.64757
1.64621
1.64519
1.64393
1.64219
1.64035
1.63842
1.63639
1.63454
1.63319
1.63214
1.63123
1.63086
1.63117
1.63238
1.63265
1.63138
1.62936
1.62701
1.62413
1.62053
1.61672
1.6141
1.61269
1.61155
1.61045
1.60986
1.61014
1.61139
1.61156
1.60976
1.60733
1.60476
1.60176
1.59819
1.5944
1.59106
1.58857
1.58638
1.58458
1.5836
1.583
1.58248
1.58198
1.58132
1.58105
1.58155
1.58176
1.5803
1.57814
1.5759
1.57291
1.56908
1.5658
1.56445
1.56375
1.56324
1.56298
1.56356
1.56461
1.56464
1.56351
1.56157
1.55809
1.55216
1.54637
1.54318
1.54187
1.54117
1.54081
1.54152
1.54504
1.54921
1.55118
1.55221
1.55236
1.55143
1.54894
1.54327
1.37475
1.3742
1.37423
1.3758
1.37859
1.37891
1.37783
1.37622
1.37269
1.36507
1.3544
1.34859
1.34761
1.34797
1.35046
1.35347
1.35348
1.35251
1.35187
1.35135
1.35084
1.3502
1.3491
1.34595
1.34069
1.33769
1.33724
1.33677
1.33581
1.33392
1.33106
1.32945
1.32916
1.32943
1.33127
1.33397
1.33491
1.33486
1.33471
1.33394
1.33132
1.32697
1.32479
1.32455
1.32476
1.32573
1.32627
1.32612
1.32516
1.32358
1.32315
1.32321
1.32381
1.32605
1.32978
1.33154
1.33162
1.33667
1.3794
1.55722
1.7769
1.84166
1.85331
1.84805
1.84486
1.84564
1.849
1.84929
1.84857
1.84634
1.84157
1.83652
1.83439
1.83171
1.82661
1.82215
1.81983
1.81918
1.82093
1.82675
1.83151
1.83174
1.83009
1.82662
1.81981
1.8111
1.80717
1.80584
1.80574
1.80839
1.81211
1.8114
1.80873
1.80522
1.80075
1.7979
1.7962
1.79506
1.7935
1.79142
1.78869
1.78447
1.78033
1.77831
1.77684
1.77583
1.77588
1.77769
1.77877
1.77733
1.77474
1.77141
1.76664
1.76281
1.76104
1.75999
1.75958
1.76054
1.76227
1.76151
1.75932
1.75651
1.75238
1.74757
1.74467
1.74317
1.74201
1.74194
1.7422
1.74101
1.73892
1.73688
1.73522
1.73393
1.73268
1.73132
1.72945
1.72701
1.72409
1.72108
1.71826
1.71581
1.71382
1.71223
1.7113
1.71011
1.70791
1.70547
1.70291
1.70021
1.69729
1.69413
1.69095
1.68828
1.68589
1.68354
1.68149
1.68076
1.68096
1.68047
1.67809
1.67576
1.67289
1.66869
1.66443
1.66156
1.65928
1.65729
1.65547
1.65372
1.65163
1.64935
1.64737
1.64569
1.64414
1.64265
1.64105
1.63928
1.63738
1.63533
1.63327
1.6315
1.63006
1.62884
1.62804
1.62788
1.62827
1.62981
1.63037
1.62934
1.62752
1.62522
1.62235
1.61864
1.6147
1.61204
1.61056
1.60958
1.6088
1.60866
1.60925
1.61089
1.61086
1.60897
1.60686
1.60458
1.60173
1.59835
1.59502
1.59216
1.58996
1.58779
1.58519
1.5825
1.58061
1.57958
1.57884
1.57821
1.57795
1.57882
1.58017
1.58026
1.57894
1.57708
1.57443
1.57018
1.56494
1.56188
1.56065
1.56003
1.55979
1.5603
1.56212
1.56396
1.56403
1.56312
1.56149
1.55846
1.55248
1.54466
1.5396
1.53726
1.53631
1.53595
1.53599
1.53844
1.54543
1.55106
1.5522
1.55187
1.55067
1.54881
1.54506
1.37739
1.37742
1.37889
1.38161
1.38209
1.38114
1.37953
1.37584
1.36798
1.35709
1.35122
1.35014
1.35039
1.35272
1.35622
1.3566
1.35554
1.35455
1.3539
1.35331
1.35264
1.3516
1.34886
1.34344
1.33946
1.3389
1.33856
1.33762
1.33563
1.33259
1.3308
1.33043
1.33056
1.33201
1.33419
1.33482
1.33476
1.33466
1.33404
1.33159
1.32712
1.32437
1.32387
1.32395
1.32477
1.32531
1.32516
1.32414
1.32223
1.32147
1.3215
1.32204
1.32412
1.32801
1.3305
1.33115
1.34099
1.41934
1.57775
1.77888
1.84294
1.85586
1.85542
1.84739
1.84105
1.84326
1.84563
1.84755
1.84678
1.84288
1.83662
1.83028
1.82555
1.8225
1.81995
1.81858
1.81806
1.81854
1.8214
1.82467
1.82486
1.82378
1.82148
1.81668
1.81015
1.80652
1.80474
1.80419
1.80521
1.80819
1.80876
1.80703
1.80453
1.80098
1.7973
1.79497
1.79345
1.7922
1.79072
1.78878
1.7856
1.78099
1.77769
1.77614
1.7751
1.77494
1.77664
1.77827
1.77691
1.77431
1.77075
1.7658
1.76193
1.76027
1.75922
1.75899
1.76022
1.76211
1.76135
1.75878
1.75523
1.75081
1.7464
1.74378
1.74217
1.74108
1.74124
1.74145
1.74
1.73745
1.73449
1.73182
1.73015
1.72879
1.72798
1.7276
1.72606
1.72348
1.72038
1.7169
1.71377
1.71112
1.7089
1.70771
1.70761
1.70654
1.70372
1.701
1.69806
1.69472
1.69122
1.68808
1.68566
1.68356
1.68157
1.6797
1.67849
1.6784
1.67782
1.67512
1.67241
1.66988
1.66685
1.66349
1.66041
1.6576
1.65479
1.65236
1.65046
1.64871
1.64692
1.64511
1.64356
1.64232
1.64086
1.63922
1.63733
1.63515
1.63293
1.63081
1.62886
1.6274
1.62625
1.62529
1.6249
1.62523
1.62673
1.62758
1.62686
1.62541
1.62358
1.62103
1.61732
1.61337
1.61044
1.60882
1.60787
1.60713
1.60687
1.60776
1.60955
1.60934
1.60752
1.60574
1.60397
1.60172
1.59882
1.59562
1.59285
1.5908
1.58884
1.58646
1.58375
1.58106
1.57868
1.57708
1.57619
1.57557
1.57535
1.57638
1.57835
1.57809
1.57663
1.57483
1.57223
1.56774
1.56261
1.55968
1.55809
1.55717
1.55687
1.55803
1.56156
1.56317
1.56272
1.56172
1.56016
1.55741
1.55256
1.5452
1.53844
1.53479
1.53299
1.53243
1.53238
1.53372
1.53829
1.54487
1.54865
1.5491
1.54816
1.54649
1.54388
1.38054
1.38188
1.38441
1.38495
1.38423
1.38284
1.37923
1.3712
1.36008
1.35411
1.35282
1.35309
1.35534
1.35829
1.35918
1.35871
1.35765
1.35671
1.356
1.35528
1.35426
1.35189
1.34655
1.3415
1.34057
1.34037
1.33961
1.33771
1.3346
1.33269
1.33228
1.33229
1.33331
1.33488
1.33519
1.33516
1.3351
1.33466
1.33246
1.32797
1.32459
1.32374
1.32369
1.32427
1.32474
1.32451
1.32332
1.32105
1.31984
1.31981
1.32026
1.32217
1.326
1.32919
1.33032
1.34065
1.4484
1.65645
1.78427
1.84661
1.85103
1.85111
1.85295
1.8508
1.84479
1.84173
1.84309
1.84326
1.84224
1.83847
1.83117
1.82237
1.81698
1.81486
1.81447
1.81562
1.8184
1.82147
1.82349
1.82236
1.81919
1.81557
1.81102
1.80618
1.80349
1.80268
1.80283
1.80416
1.80663
1.80617
1.80415
1.80205
1.79975
1.7972
1.79512
1.79333
1.79141
1.78943
1.7874
1.78483
1.78117
1.77781
1.77595
1.77469
1.77421
1.77553
1.77758
1.77659
1.7743
1.77095
1.76545
1.76068
1.75861
1.75746
1.75718
1.75872
1.7616
1.76111
1.75856
1.75505
1.74972
1.74433
1.74148
1.7399
1.73889
1.73914
1.73974
1.7385
1.73579
1.73275
1.72942
1.72696
1.72525
1.72396
1.72353
1.72316
1.72134
1.71875
1.71578
1.71255
1.70961
1.70701
1.70496
1.70434
1.70408
1.70201
1.69913
1.69622
1.69265
1.68861
1.68501
1.68237
1.68028
1.67836
1.67668
1.67598
1.67616
1.67594
1.67338
1.67023
1.66684
1.66334
1.66043
1.65815
1.65618
1.65398
1.65134
1.64835
1.64584
1.64403
1.64241
1.64093
1.63978
1.63871
1.63736
1.63582
1.63393
1.63139
1.6286
1.62667
1.62531
1.62407
1.62302
1.62238
1.62247
1.62344
1.62435
1.62385
1.62264
1.62131
1.61935
1.6161
1.61208
1.60911
1.60766
1.60668
1.60601
1.60574
1.60626
1.6072
1.60661
1.60488
1.60332
1.60199
1.6005
1.59857
1.59614
1.59398
1.59198
1.58966
1.58692
1.58422
1.58181
1.57956
1.57755
1.57591
1.57473
1.57404
1.57379
1.57432
1.57457
1.57395
1.57284
1.57148
1.56938
1.56574
1.56167
1.559
1.55718
1.55596
1.55551
1.55635
1.55769
1.55852
1.55873
1.55844
1.55753
1.55538
1.55117
1.54593
1.54033
1.53495
1.5318
1.53058
1.53025
1.53108
1.53383
1.53723
1.54009
1.54243
1.5435
1.54306
1.54126
1.38484
1.38701
1.38744
1.38696
1.38594
1.38263
1.3746
1.36341
1.35732
1.3558
1.35588
1.35827
1.36102
1.3613
1.36123
1.36086
1.3599
1.35898
1.35819
1.35714
1.35489
1.3498
1.344
1.34227
1.34212
1.34158
1.33998
1.33702
1.335
1.33451
1.33441
1.33505
1.33603
1.33603
1.336
1.33596
1.33563
1.33377
1.32934
1.32542
1.32421
1.32401
1.3244
1.32472
1.32434
1.32293
1.32021
1.3184
1.31825
1.31854
1.32032
1.32408
1.32753
1.32962
1.34344
1.44591
1.68982
1.81265
1.84625
1.85222
1.85374
1.85195
1.84958
1.84741
1.84463
1.84161
1.84122
1.84071
1.83833
1.83365
1.82555
1.81687
1.81354
1.81222
1.81233
1.8161
1.82217
1.82404
1.82232
1.81869
1.81396
1.80703
1.8013
1.79939
1.79915
1.79977
1.80282
1.80595
1.80533
1.80305
1.80006
1.79732
1.79558
1.79445
1.79363
1.79218
1.79011
1.78736
1.7839
1.77996
1.77694
1.77534
1.77425
1.77378
1.77483
1.77658
1.7758
1.77352
1.77038
1.76546
1.76044
1.75781
1.75641
1.75595
1.757
1.75961
1.75943
1.75711
1.7541
1.74943
1.74344
1.73967
1.73772
1.73641
1.73636
1.73695
1.73604
1.73337
1.73034
1.72687
1.72426
1.72239
1.72083
1.71996
1.71976
1.71844
1.71582
1.71304
1.71019
1.70745
1.70487
1.70258
1.70137
1.701
1.69964
1.69686
1.69416
1.691
1.68705
1.68306
1.68006
1.67771
1.67569
1.67404
1.67322
1.67354
1.67373
1.6719
1.66881
1.66534
1.66131
1.65747
1.65511
1.65351
1.65193
1.65004
1.64774
1.64503
1.64215
1.64008
1.63852
1.63711
1.63596
1.63488
1.63354
1.63206
1.63025
1.62785
1.62538
1.62361
1.62229
1.6212
1.62041
1.6203
1.6209
1.62164
1.62094
1.61944
1.61815
1.61666
1.61412
1.6106
1.6078
1.60639
1.60555
1.60498
1.605
1.60607
1.60616
1.60461
1.60272
1.60105
1.59943
1.59787
1.59638
1.59521
1.59439
1.59321
1.59128
1.58805
1.58424
1.58155
1.57957
1.57781
1.57624
1.57504
1.57407
1.57366
1.57372
1.57287
1.57168
1.57041
1.56906
1.56736
1.56517
1.56281
1.56074
1.55912
1.5577
1.5564
1.55615
1.55608
1.55507
1.55404
1.55379
1.55343
1.55252
1.55068
1.548
1.54506
1.54238
1.53918
1.53474
1.53098
1.52976
1.52977
1.53099
1.53242
1.53322
1.53393
1.53513
1.53632
1.53631
1.38958
1.38974
1.38938
1.38866
1.38572
1.37795
1.36678
1.36073
1.35908
1.35896
1.36112
1.36402
1.36392
1.36361
1.3635
1.36302
1.36222
1.3614
1.36034
1.35807
1.35296
1.34668
1.34406
1.34386
1.34347
1.34227
1.33969
1.33766
1.33706
1.33679
1.33705
1.33761
1.3374
1.33727
1.33718
1.33686
1.3353
1.33105
1.32672
1.32524
1.32495
1.32517
1.32532
1.32476
1.32318
1.32002
1.31743
1.31703
1.31714
1.31865
1.32253
1.32597
1.32937
1.35591
1.46711
1.69455
1.82432
1.85403
1.85273
1.85173
1.84935
1.84621
1.84308
1.84264
1.84312
1.84253
1.84249
1.83657
1.83185
1.82703
1.81985
1.81424
1.81238
1.81167
1.81366
1.81944
1.82211
1.82081
1.81828
1.81435
1.80711
1.80025
1.79782
1.79697
1.79702
1.79935
1.80314
1.80341
1.80186
1.79897
1.79559
1.79378
1.79273
1.79229
1.79229
1.79059
1.78804
1.78452
1.77945
1.77594
1.77418
1.77308
1.77291
1.77443
1.7762
1.77519
1.77253
1.76885
1.76393
1.75945
1.75709
1.75557
1.75469
1.75541
1.75752
1.75727
1.75483
1.75175
1.74748
1.742
1.73823
1.73613
1.73435
1.73359
1.73378
1.73294
1.73019
1.72722
1.72398
1.72092
1.71879
1.71704
1.71597
1.71594
1.71539
1.713
1.71014
1.70727
1.70479
1.70247
1.70023
1.69864
1.69798
1.69688
1.69416
1.69136
1.68852
1.68528
1.68171
1.67847
1.676
1.6739
1.67212
1.67101
1.67113
1.67132
1.66969
1.66705
1.66393
1.66017
1.65645
1.65376
1.65191
1.65023
1.64835
1.64622
1.64397
1.64152
1.63897
1.63698
1.63541
1.63404
1.63269
1.63114
1.62954
1.62793
1.62631
1.62451
1.62259
1.62108
1.61987
1.61887
1.6185
1.61891
1.61953
1.61883
1.61722
1.61573
1.614
1.61151
1.60837
1.60587
1.60463
1.60394
1.60355
1.60401
1.60516
1.60467
1.60305
1.6012
1.59939
1.59778
1.59616
1.59452
1.59317
1.59224
1.59162
1.59077
1.58908
1.58589
1.5819
1.57922
1.57746
1.57588
1.57453
1.57369
1.57376
1.57389
1.57283
1.57132
1.56965
1.56762
1.56508
1.56249
1.56066
1.55954
1.55861
1.55745
1.55721
1.55741
1.55698
1.55513
1.55309
1.55121
1.54957
1.54837
1.54689
1.5449
1.54356
1.54275
1.54171
1.54045
1.53869
1.53575
1.53216
1.52968
1.5286
1.52836
1.52813
1.52752
1.52714
1.52752
1.52924
1.39214
1.39175
1.39108
1.38833
1.38086
1.36994
1.36404
1.36249
1.36235
1.36408
1.36693
1.36694
1.36615
1.36594
1.36574
1.36536
1.36475
1.36381
1.36147
1.35621
1.34954
1.34613
1.34571
1.34536
1.34447
1.34241
1.34046
1.33983
1.33938
1.33924
1.33951
1.33927
1.33898
1.33878
1.33841
1.33699
1.33295
1.32832
1.32663
1.32636
1.32647
1.32647
1.32572
1.32418
1.32066
1.31711
1.31625
1.31622
1.31733
1.32121
1.32486
1.32899
1.37326
1.533
1.70802
1.8331
1.8447
1.8548
1.85499
1.85086
1.84658
1.84309
1.84082
1.84018
1.84105
1.84136
1.83833
1.83247
1.82601
1.81898
1.8138
1.81182
1.81089
1.81198
1.81615
1.81964
1.81879
1.81644
1.81341
1.80809
1.80133
1.79743
1.79615
1.79593
1.79687
1.79962
1.8004
1.79945
1.79747
1.79468
1.79247
1.79125
1.79047
1.79057
1.78969
1.78766
1.78473
1.77998
1.77544
1.7733
1.77224
1.77202
1.7737
1.7763
1.77547
1.77256
1.76843
1.76249
1.75736
1.75497
1.75323
1.75238
1.75324
1.75551
1.75555
1.75299
1.74932
1.74476
1.73923
1.73547
1.7333
1.73145
1.73075
1.73083
1.72977
1.72669
1.72347
1.72013
1.71718
1.71507
1.71335
1.71229
1.71232
1.71208
1.7099
1.70683
1.7039
1.70158
1.69943
1.69737
1.69591
1.69525
1.69421
1.69153
1.68849
1.68549
1.68248
1.67943
1.67659
1.67417
1.67213
1.67047
1.66937
1.6695
1.66955
1.66767
1.66507
1.66194
1.65831
1.65487
1.65261
1.65091
1.64933
1.64762
1.64549
1.64283
1.64001
1.63752
1.63552
1.63404
1.6328
1.63153
1.62996
1.62813
1.62615
1.62421
1.62255
1.62112
1.61974
1.61839
1.61732
1.61669
1.6168
1.61724
1.61686
1.61537
1.6139
1.61227
1.6097
1.60626
1.60388
1.6025
1.60189
1.60178
1.60241
1.60339
1.60293
1.60135
1.59958
1.59808
1.59652
1.59499
1.59364
1.59232
1.59095
1.58937
1.58761
1.58629
1.58469
1.58234
1.57967
1.57777
1.57619
1.5747
1.57356
1.57339
1.5739
1.57338
1.5719
1.57046
1.5683
1.5644
1.56006
1.55802
1.55708
1.55607
1.55528
1.55552
1.5569
1.55752
1.55627
1.55434
1.55227
1.54903
1.54529
1.54262
1.54118
1.54018
1.53918
1.53864
1.53901
1.5395
1.53954
1.53861
1.53656
1.53217
1.52698
1.52445
1.52334
1.52192
1.52056
1.52
1.52064
1.39421
1.39347
1.39067
1.38331
1.37267
1.3671
1.36575
1.36568
1.36759
1.37013
1.37003
1.36898
1.36857
1.36841
1.36826
1.36795
1.36719
1.3647
1.35931
1.35243
1.34852
1.34781
1.34745
1.34676
1.34512
1.34331
1.34264
1.34209
1.34164
1.34156
1.34144
1.34109
1.34076
1.34029
1.33889
1.335
1.33018
1.32826
1.32805
1.32812
1.32795
1.32724
1.3258
1.32204
1.31758
1.31608
1.31587
1.31658
1.32021
1.32424
1.32942
1.37547
1.58319
1.75983
1.83281
1.85149
1.84978
1.84874
1.85004
1.8495
1.84479
1.84142
1.84109
1.84026
1.83903
1.83728
1.83282
1.82524
1.81759
1.81356
1.81158
1.81056
1.81157
1.81505
1.81818
1.81744
1.81517
1.8123
1.80784
1.80187
1.79778
1.79617
1.79538
1.79602
1.79806
1.79797
1.79637
1.79453
1.79263
1.7912
1.79008
1.78952
1.78974
1.78882
1.78636
1.78327
1.77912
1.77478
1.77237
1.77113
1.77081
1.77248
1.77552
1.77494
1.77225
1.76845
1.76255
1.75642
1.75311
1.75109
1.74991
1.75056
1.75316
1.75367
1.75114
1.7472
1.74245
1.73635
1.73252
1.73026
1.72845
1.72786
1.7279
1.72665
1.72343
1.71987
1.71618
1.71331
1.71119
1.70941
1.70849
1.70874
1.70891
1.7072
1.70399
1.70037
1.69767
1.69557
1.69358
1.69211
1.69177
1.69148
1.68933
1.6862
1.68298
1.67967
1.67659
1.674
1.67195
1.6702
1.66866
1.66786
1.66828
1.66854
1.66688
1.66415
1.66057
1.65636
1.65296
1.65082
1.64926
1.64804
1.64665
1.64507
1.64308
1.6401
1.63644
1.63379
1.6322
1.63104
1.63013
1.62896
1.62746
1.62567
1.62342
1.621
1.61933
1.61806
1.61692
1.61593
1.61516
1.61509
1.61532
1.6146
1.61304
1.61159
1.61005
1.60792
1.60496
1.60243
1.60094
1.6003
1.60018
1.60079
1.60128
1.60065
1.59922
1.59777
1.59634
1.59496
1.59412
1.59331
1.59216
1.5907
1.58913
1.58737
1.58523
1.58257
1.57997
1.57822
1.57722
1.57611
1.5749
1.57365
1.57309
1.57357
1.57395
1.57275
1.5711
1.56929
1.566
1.56076
1.55633
1.55461
1.55386
1.55316
1.55274
1.55375
1.5562
1.55669
1.55523
1.55334
1.55118
1.54689
1.54077
1.53771
1.53695
1.53632
1.53555
1.53546
1.53638
1.53843
1.53934
1.53895
1.53783
1.53546
1.52918
1.52141
1.51788
1.51637
1.51518
1.51423
1.51392
1.39597
1.39309
1.38565
1.37511
1.36982
1.36868
1.36869
1.37087
1.37376
1.37364
1.3724
1.37164
1.37139
1.3712
1.37097
1.37023
1.36744
1.36196
1.35524
1.35115
1.35022
1.34976
1.34917
1.34795
1.34626
1.34548
1.34482
1.34419
1.34387
1.34372
1.34342
1.34302
1.34245
1.34102
1.33725
1.33235
1.33013
1.32994
1.33
1.32978
1.32914
1.32783
1.32403
1.31881
1.31651
1.31612
1.31645
1.31961
1.32407
1.33378
1.38824
1.58589
1.79756
1.84442
1.85144
1.84976
1.85113
1.84982
1.84758
1.84468
1.8426
1.8392
1.83933
1.83943
1.83676
1.83324
1.82773
1.8196
1.81428
1.812
1.81089
1.81174
1.81508
1.81788
1.81694
1.8147
1.81223
1.8082
1.80214
1.7978
1.79598
1.79504
1.79539
1.797
1.79685
1.79504
1.79251
1.78995
1.78856
1.78785
1.78773
1.78827
1.78794
1.78568
1.7825
1.77764
1.77316
1.77099
1.76966
1.76933
1.77096
1.77398
1.77358
1.77099
1.7672
1.76166
1.7556
1.75229
1.75014
1.74848
1.74859
1.75062
1.75113
1.7486
1.74465
1.74007
1.73424
1.73017
1.7278
1.7259
1.7251
1.72513
1.72367
1.72029
1.71654
1.71267
1.70947
1.70717
1.70534
1.70446
1.70483
1.70559
1.70446
1.70139
1.69759
1.69421
1.69185
1.68984
1.68818
1.68772
1.68774
1.68651
1.68367
1.68067
1.67747
1.6742
1.67144
1.66937
1.66771
1.66639
1.66598
1.66666
1.6675
1.66619
1.66357
1.66024
1.65613
1.65226
1.64988
1.64818
1.64676
1.64568
1.64424
1.64263
1.64068
1.63745
1.63385
1.63129
1.62955
1.6283
1.62727
1.62612
1.62477
1.62314