/*--------------------------------*- C++ -*----------------------------------*\
  =========                 |
  \\      /  F ield         | OpenFOAM: The Open Source CFD Toolbox
   \\    /   O peration     | Website:  https://openfoam.org
    \\  /    A nd           | Version:  7
     \\/     M anipulation  |
\*---------------------------------------------------------------------------*/
FoamFile
{
    version     2.0;
    format      ascii;
    class       volVectorField;
    location    "0.3";
    object      U;
}
// * * * * * * * * * * * * * * * * * * * * * * * * * * * * * * * * * * * * * //

dimensions      [0 1 -1 0 0 0 0];

internalField   nonuniform List<vector> 
16192
(
(3 1.72196e-17 0)
(3 -1.81557e-16 0)
(3 2.09698e-16 0)
(3 9.27556e-17 0)
(3 -5.04524e-17 0)
(3 -2.84967e-17 0)
(3 -5.22586e-17 0)
(3 2.54276e-16 0)
(3 2.89143e-16 0)
(3 -1.11815e-17 0)
(3 -1.48742e-16 0)
(3 -2.27062e-17 0)
(3 -1.304e-16 0)
(3 -5.92745e-16 0)
(3 -2.11415e-18 0)
(3 5.38523e-16 0)
(3 7.01904e-16 0)
(3 9.88513e-16 0)
(3 1.21916e-15 0)
(3 8.41022e-16 0)
(3 -2.16332e-16 0)
(3 -5.20909e-16 0)
(3 -2.87701e-16 0)
(3 3.32305e-16 0)
(3 7.61739e-16 0)
(3 9.72702e-16 0)
(3 2.93716e-16 0)
(3 -1.03122e-15 0)
(3 -1.45975e-15 0)
(3 -1.44974e-16 0)
(3 4.83344e-16 0)
(3 1.45668e-15 0)
(3 1.85159e-15 0)
(3 1.97384e-15 0)
(3 1.79924e-15 0)
(3 -4.49196e-16 0)
(3 -1.65435e-15 0)
(3 -2.07005e-15 0)
(3 -2.48107e-15 0)
(3 1.41387e-16 0)
(3 4.68245e-16 0)
(3 3.62611e-16 0)
(3 7.53758e-16 0)
(3 1.72836e-15 0)
(3 1.82997e-15 0)
(3 7.38707e-16 0)
(3 -1.6449e-16 0)
(3 3.32218e-17 0)
(3 8.03623e-18 0)
(3 -8.32126e-16 0)
(3 -1.80811e-15 0)
(3 -2.17493e-15 0)
(3 -1.21559e-15 0)
(3 -1.07788e-15 0)
(3 -5.7015e-16 0)
(3 1.50001e-16 0)
(3 3.69433e-16 0)
(3 2.68313e-16 0)
(3 2.19255e-16 0)
(3 4.25694e-16 0)
(3 1.55051e-16 0)
(3 -7.51835e-17 0)
(3 -5.49682e-16 0)
(3 -1.12584e-15 0)
(3 -1.08905e-15 0)
(3 -7.0937e-16 0)
(3 -2.10329e-16 0)
(3 -4.10973e-16 0)
(3 1.49538e-16 0)
(3 1.18307e-15 0)
(3 1.39816e-15 0)
(3 1.62848e-15 0)
(3 1.3304e-15 0)
(3 1.11102e-15 0)
(3 5.66789e-16 0)
(3 8.22069e-17 0)
(3 -2.11787e-16 0)
(3 8.17129e-17 0)
(3 -2.51514e-16 0)
(3 -6.35942e-17 0)
(3 3.94827e-17 0)
(3 8.4283e-17 0)
(3 3.93556e-17 0)
(3 -3.78758e-16 0)
(3 -3.6655e-16 0)
(3 -3.71625e-16 0)
(3 -5.48737e-17 0)
(3 7.60273e-18 0)
(3 6.93187e-17 0)
(3 2.91336e-16 0)
(3 1.4833e-15 0)
(3 2.27739e-15 0)
(3 2.3742e-15 0)
(3 1.47266e-15 0)
(3 9.39466e-16 0)
(3 8.99029e-16 0)
(3 1.9551e-15 0)
(3 7.98247e-16 0)
(3 -1.30315e-16 0)
(3 -1.12685e-15 0)
(3 -1.93312e-15 0)
(3 -2.41185e-15 0)
(3 -2.05928e-15 0)
(3 -1.62534e-15 0)
(3 -5.26796e-16 0)
(3 2.8872e-16 0)
(3 -3.63589e-16 0)
(3 -5.80983e-16 0)
(3 -3.75267e-16 0)
(3 -8.04965e-16 0)
(3 -1.11286e-15 0)
(3 -1.02418e-15 0)
(3 -1.26798e-17 0)
(3 4.18812e-16 0)
(3 -3.60917e-16 0)
(3 -1.23784e-15 0)
(3 -1.52711e-15 0)
(3 -1.9884e-15 0)
(3 -2.18971e-15 0)
(3 -1.21814e-15 0)
(3 -1.10923e-15 0)
(3 -1.3566e-15 0)
(3 -1.71643e-15 0)
(3 -1.35717e-15 0)
(3 -9.24239e-16 0)
(3 -1.20897e-15 0)
(3 -8.30951e-16 0)
(3 -1.35257e-15 0)
(3 -2.63848e-15 0)
(3 -2.97859e-15 0)
(3 -1.53818e-15 0)
(3 -9.23644e-17 0)
(3 5.06394e-16 0)
(3 1.76516e-15 0)
(3 2.32195e-15 0)
(3 2.35681e-15 0)
(3 1.7056e-15 0)
(3 1.36252e-15 0)
(3 1.89339e-15 0)
(3 2.55664e-15 0)
(3 2.0206e-15 0)
(3 -5.79057e-16 0)
(3 -1.34139e-15 0)
(3 -1.53102e-15 0)
(3 -1.07813e-15 0)
(3 -4.75892e-16 0)
(3 -5.54481e-16 0)
(3 -3.91026e-16 0)
(3 -6.14683e-16 0)
(3 -1.62766e-15 0)
(3 -1.20212e-15 0)
(3 -3.94002e-16 0)
(3 -1.757e-16 0)
(3 3.6277e-16 0)
(3 -1.01223e-14 0)
(1.60304 0.00367051 0)
(0.709099 0.00197652 0)
(0.635771 0.0130678 0)
(0.60615 0.00829412 0)
(0.582203 0.00686065 0)
(0.568635 0.00694356 0)
(0.555008 0.00789649 0)
(0.536128 0.00831044 0)
(0.51346 0.00760475 0)
(0.484301 0.00704301 0)
(0.453937 0.00728164 0)
(0.431832 0.00792774 0)
(0.420444 0.00831643 0)
(0.417028 0.00865882 0)
(0.414056 0.00891851 0)
(0.41077 0.00869234 0)
(0.399579 0.00860458 0)
(0.381399 0.00864104 0)
(0.357988 0.00865097 0)
(0.332885 0.00859539 0)
(0.309356 0.00865939 0)
(0.286798 0.00872697 0)
(0.26414 0.00880643 0)
(0.245419 0.00885123 0)
(0.230494 0.00882005 0)
(0.219003 0.00887148 0)
(0.208785 0.0088365 0)
(0.196294 0.00881285 0)
(0.178865 0.00882666 0)
(0.156382 0.00932466 0)
(0.131951 0.00983673 0)
(0.109733 0.0103991 0)
(0.0908194 0.0108509 0)
(0.0736871 0.0110778 0)
(0.0562048 0.0110514 0)
(0.0362926 0.0110795 0)
(0.0128728 0.0111949 0)
(3 -4.35328e-18 0)
(3 -7.38625e-16 0)
(3 -3.76758e-16 0)
(3 -8.5032e-17 0)
(3 -3.49575e-16 0)
(3 -1.18698e-16 0)
(3 -1.73234e-16 0)
(3 -3.29861e-16 0)
(3 -8.51675e-17 0)
(3 -1.89434e-16 0)
(3 -2.85858e-17 0)
(3 4.26831e-16 0)
(3 1.09494e-16 0)
(3 -4.73197e-16 0)
(3 -8.41098e-17 0)
(3 3.34601e-16 0)
(3 3.15038e-16 0)
(3 2.66441e-16 0)
(3 7.08715e-16 0)
(3 2.84396e-16 0)
(3 -8.09462e-16 0)
(3 -1.06514e-15 0)
(3 -8.89253e-16 0)
(3 -5.55679e-16 0)
(3 2.75183e-16 0)
(3 9.45357e-16 0)
(3 2.37029e-18 0)
(3 -2.17652e-15 0)
(3 -3.21101e-15 0)
(3 -3.49355e-16 0)
(3 2.3642e-15 0)
(3 2.92808e-15 0)
(3 2.32354e-15 0)
(3 2.29513e-15 0)
(3 1.71973e-15 0)
(3 -9.75667e-16 0)
(3 -2.12531e-15 0)
(3 -2.66275e-15 0)
(3 -2.62513e-15 0)
(3 -1.63448e-15 0)
(3 -5.7046e-16 0)
(3 -5.19889e-17 0)
(3 7.78994e-16 0)
(3 2.15793e-15 0)
(3 2.44035e-15 0)
(3 1.41865e-15 0)
(3 -1.82425e-15 0)
(3 -2.35062e-15 0)
(3 -2.36077e-15 0)
(3 -1.93331e-15 0)
(3 -1.3977e-15 0)
(3 -8.76309e-16 0)
(3 -1.3688e-16 0)
(3 -2.00021e-16 0)
(3 -4.38248e-16 0)
(3 -6.80756e-17 0)
(3 -9.64783e-17 0)
(3 -2.8979e-16 0)
(3 3.28061e-16 0)
(3 9.85682e-16 0)
(3 7.14608e-16 0)
(3 3.61087e-16 0)
(3 -1.97301e-16 0)
(3 -3.16275e-16 0)
(3 -9.92798e-16 0)
(3 -8.6249e-16 0)
(3 -6.51818e-16 0)
(3 -9.84374e-17 0)
(3 4.51212e-16 0)
(3 9.35462e-16 0)
(3 7.70384e-16 0)
(3 6.40893e-16 0)
(3 8.27597e-16 0)
(3 1.11683e-15 0)
(3 6.14539e-16 0)
(3 -2.27535e-16 0)
(3 -3.34144e-16 0)
(3 -6.46359e-17 0)
(3 -8.52806e-16 0)
(3 -6.195e-16 0)
(3 -5.55638e-16 0)
(3 1.65187e-16 0)
(3 -1.38183e-18 0)
(3 -4.42738e-16 0)
(3 -3.18436e-16 0)
(3 -1.27331e-16 0)
(3 8.16863e-16 0)
(3 1.15512e-15 0)
(3 1.36651e-15 0)
(3 1.64926e-15 0)
(3 1.71119e-15 0)
(3 2.67365e-15 0)
(3 2.90207e-15 0)
(3 1.78377e-15 0)
(3 1.03868e-15 0)
(3 1.1243e-15 0)
(3 1.69159e-15 0)
(3 5.63147e-16 0)
(3 -2.58719e-15 0)
(3 -3.17938e-15 0)
(3 -3.50313e-15 0)
(3 -3.95631e-15 0)
(3 -3.91323e-15 0)
(3 -2.60556e-15 0)
(3 -1.09899e-15 0)
(3 -3.86541e-17 0)
(3 -5.17326e-16 0)
(3 -5.82321e-16 0)
(3 6.00882e-17 0)
(3 -1.21398e-16 0)
(3 -5.95511e-16 0)
(3 -5.66021e-16 0)
(3 2.00636e-16 0)
(3 -1.99044e-17 0)
(3 -5.95114e-16 0)
(3 -1.7191e-15 0)
(3 -2.58453e-15 0)
(3 -2.89095e-15 0)
(3 -2.03477e-15 0)
(3 -2.65328e-15 0)
(3 -2.57277e-15 0)
(3 -2.2051e-15 0)
(3 -2.56106e-15 0)
(3 -1.50007e-15 0)
(3 -1.00795e-15 0)
(3 -1.46876e-15 0)
(3 -1.51488e-15 0)
(3 -2.05029e-15 0)
(3 -2.72823e-15 0)
(3 -2.84792e-15 0)
(3 -2.30815e-15 0)
(3 -2.08184e-15 0)
(3 7.25311e-17 0)
(3 2.35479e-15 0)
(3 2.67698e-15 0)
(3 2.82819e-15 0)
(3 2.4814e-15 0)
(3 2.44422e-15 0)
(3 3.61106e-15 0)
(3 3.71354e-15 0)
(3 1.67365e-15 0)
(3 -1.23358e-15 0)
(3 -3.01821e-15 0)
(3 -2.81989e-15 0)
(3 -2.09438e-15 0)
(3 -1.69519e-15 0)
(3 -1.31699e-15 0)
(3 -7.56842e-16 0)
(3 -8.63835e-16 0)
(3 -1.49797e-15 0)
(3 -1.45141e-15 0)
(3 3.60686e-16 0)
(3 2.97942e-16 0)
(3 5.18555e-16 0)
(3 -7.75392e-15 0)
(1.61062 0.0175516 0)
(0.705359 0.0126179 0)
(0.630065 0.0347355 0)
(0.601837 0.0250018 0)
(0.577349 0.0190728 0)
(0.564095 0.018954 0)
(0.551285 0.0224795 0)
(0.532988 0.0245686 0)
(0.510785 0.0230743 0)
(0.481675 0.0214431 0)
(0.451277 0.0218851 0)
(0.429167 0.023466 0)
(0.417736 0.0244135 0)
(0.41423 0.0255254 0)
(0.410661 0.0263689 0)
(0.407042 0.0257436 0)
(0.395568 0.0254986 0)
(0.377283 0.0255871 0)
(0.35386 0.0256098 0)
(0.328764 0.0255144 0)
(0.305132 0.0258015 0)
(0.282351 0.0260736 0)
(0.25949 0.0262718 0)
(0.240581 0.0262696 0)
(0.225558 0.0260041 0)
(0.214005 0.0260598 0)
(0.203721 0.0258442 0)
(0.191223 0.0256558 0)
(0.173917 0.0256871 0)
(0.151855 0.0270938 0)
(0.128232 0.0287485 0)
(0.107016 0.0305602 0)
(0.0891207 0.0321049 0)
(0.0728092 0.0330542 0)
(0.0558113 0.0332738 0)
(0.0361331 0.0335013 0)
(0.0128357 0.0339201 0)
(3 -9.84341e-17 0)
(3 -3.47174e-16 0)
(3 -6.52808e-16 0)
(3 -5.91163e-16 0)
(3 -6.37077e-16 0)
(3 6.02879e-16 0)
(3 3.88216e-16 0)
(3 -7.81616e-16 0)
(3 -6.81965e-16 0)
(3 -4.31785e-16 0)
(3 -3.10531e-16 0)
(3 -1.07157e-17 0)
(3 2.59022e-16 0)
(3 1.11974e-15 0)
(3 8.75638e-16 0)
(3 9.80024e-16 0)
(3 5.04875e-16 0)
(3 4.59466e-16 0)
(3 2.39381e-16 0)
(3 5.79811e-16 0)
(3 4.2115e-16 0)
(3 5.28062e-16 0)
(3 1.81524e-16 0)
(3 -4.89928e-16 0)
(3 -1.63182e-16 0)
(3 4.53154e-16 0)
(3 4.55346e-16 0)
(3 -1.16227e-15 0)
(3 -1.23547e-15 0)
(3 -8.55714e-16 0)
(3 -1.35357e-16 0)
(3 3.75048e-16 0)
(3 6.47728e-16 0)
(3 1.05542e-15 0)
(3 1.1506e-15 0)
(3 1.78528e-15 0)
(3 2.08819e-15 0)
(3 6.1058e-16 0)
(3 9.47479e-17 0)
(3 -5.24894e-16 0)
(3 1.77869e-16 0)
(3 1.2439e-15 0)
(3 2.01131e-15 0)
(3 2.583e-15 0)
(3 2.73614e-15 0)
(3 4.49679e-16 0)
(3 -1.08209e-15 0)
(3 -2.61608e-15 0)
(3 -2.81754e-15 0)
(3 -1.90191e-15 0)
(3 -1.52908e-15 0)
(3 -2.75899e-16 0)
(3 -3.65817e-16 0)
(3 -4.72644e-16 0)
(3 -3.32773e-16 0)
(3 -2.85024e-16 0)
(3 -2.38511e-16 0)
(3 -2.87979e-16 0)
(3 4.88682e-16 0)
(3 5.46194e-16 0)
(3 2.09758e-16 0)
(3 -1.83813e-16 0)
(3 -2.85008e-16 0)
(3 -3.49471e-17 0)
(3 -1.39804e-16 0)
(3 -3.19273e-16 0)
(3 -5.50567e-16 0)
(3 3.99078e-16 0)
(3 1.05928e-15 0)
(3 7.86438e-16 0)
(3 7.54569e-16 0)
(3 7.58553e-16 0)
(3 1.23352e-15 0)
(3 1.36837e-15 0)
(3 8.52849e-16 0)
(3 -4.24156e-16 0)
(3 -1.05776e-15 0)
(3 -1.37633e-15 0)
(3 -8.53954e-16 0)
(3 -5.71714e-16 0)
(3 -2.79278e-16 0)
(3 -9.90447e-16 0)
(3 -1.64845e-16 0)
(3 1.36382e-15 0)
(3 1.10593e-15 0)
(3 7.73982e-17 0)
(3 7.60881e-16 0)
(3 1.0508e-15 0)
(3 8.99591e-16 0)
(3 1.41303e-15 0)
(3 1.14315e-15 0)
(3 1.36017e-15 0)
(3 1.34442e-15 0)
(3 6.21541e-16 0)
(3 8.60543e-16 0)
(3 1.43146e-15 0)
(3 1.75323e-15 0)
(3 2.97294e-16 0)
(3 -2.322e-15 0)
(3 -2.72572e-15 0)
(3 -3.40946e-15 0)
(3 -3.20009e-15 0)
(3 -3.1533e-15 0)
(3 -2.13612e-15 0)
(3 -1.8347e-15 0)
(3 -1.12115e-15 0)
(3 -9.88216e-16 0)
(3 -9.20163e-17 0)
(3 1.01272e-15 0)
(3 1.17407e-15 0)
(3 9.32509e-16 0)
(3 -3.46785e-16 0)
(3 -1.02213e-15 0)
(3 -1.73778e-15 0)
(3 -1.77853e-15 0)
(3 -2.06944e-15 0)
(3 -2.6298e-15 0)
(3 -2.9173e-15 0)
(3 -3.66453e-15 0)
(3 -4.68266e-15 0)
(3 -5.04518e-15 0)
(3 -3.77266e-15 0)
(3 -2.75537e-15 0)
(3 -2.50376e-15 0)
(3 -2.98338e-15 0)
(3 -2.97165e-15 0)
(3 -2.88706e-15 0)
(3 -2.16588e-15 0)
(3 -2.3894e-15 0)
(3 -3.08041e-15 0)
(3 -4.06485e-15 0)
(3 -5.43967e-15 0)
(3 -1.90552e-15 0)
(3 2.84301e-15 0)
(3 2.60359e-15 0)
(3 1.99799e-15 0)
(3 1.09682e-15 0)
(3 2.02714e-15 0)
(3 3.72368e-15 0)
(3 2.92577e-15 0)
(3 8.08592e-16 0)
(3 -2.47897e-15 0)
(3 -3.89219e-15 0)
(3 -3.69308e-15 0)
(3 -3.62389e-15 0)
(3 -3.64476e-15 0)
(3 -2.97008e-15 0)
(3 -2.29292e-15 0)
(3 -1.26893e-15 0)
(3 3.55708e-16 0)
(3 1.26734e-15 0)
(3 1.22808e-15 0)
(3 1.14979e-15 0)
(3 2.86925e-17 0)
(3 -1.75484e-15 0)
(1.63724 0.0331924 0)
(0.70787 0.0270897 0)
(0.628463 0.0545681 0)
(0.601071 0.0423522 0)
(0.576378 0.0327735 0)
(0.562249 0.0314524 0)
(0.549375 0.0365886 0)
(0.5312 0.0403232 0)
(0.509479 0.0387471 0)
(0.480747 0.0365645 0)
(0.450476 0.037221 0)
(0.428465 0.039637 0)
(0.416973 0.0410928 0)
(0.413315 0.0427113 0)
(0.40893 0.0440197 0)
(0.404931 0.0430156 0)
(0.393141 0.0426981 0)
(0.374773 0.0429475 0)
(0.351363 0.0430456 0)
(0.326231 0.0428836 0)
(0.302308 0.0433001 0)
(0.278996 0.0437018 0)
(0.255558 0.0439739 0)
(0.236077 0.0439196 0)
(0.220613 0.0434308 0)
(0.20869 0.0435212 0)
(0.198062 0.043129 0)
(0.18526 0.0427307 0)
(0.167757 0.0426791 0)
(0.145815 0.0447877 0)
(0.122721 0.0473016 0)
(0.102304 0.0500574 0)
(0.0853737 0.0524487 0)
(0.0700312 0.0540466 0)
(0.05388 0.0545925 0)
(0.0349658 0.0551079 0)
(0.0124387 0.0558805 0)
(3 2.45022e-16 0)
(3 3.99843e-16 0)
(3 1.85629e-16 0)
(3 2.88145e-17 0)
(3 2.52467e-16 0)
(3 5.26006e-16 0)
(3 -4.10719e-16 0)
(3 -7.46398e-16 0)
(3 -1.01427e-15 0)
(3 -5.57006e-16 0)
(3 -5.49919e-16 0)
(3 2.64782e-16 0)
(3 1.12147e-15 0)
(3 2.29796e-15 0)
(3 2.31127e-15 0)
(3 2.12324e-15 0)
(3 2.05363e-15 0)
(3 2.17068e-15 0)
(3 1.79731e-15 0)
(3 1.40537e-15 0)
(3 1.35743e-15 0)
(3 1.03418e-15 0)
(3 7.776e-16 0)
(3 1.03511e-15 0)
(3 8.62172e-16 0)
(3 7.32503e-16 0)
(3 8.37785e-16 0)
(3 9.73067e-16 0)
(3 6.1962e-16 0)
(3 5.88265e-16 0)
(3 4.78182e-16 0)
(3 5.10488e-16 0)
(3 8.91292e-16 0)
(3 1.08549e-15 0)
(3 1.92622e-15 0)
(3 2.72916e-15 0)
(3 2.69619e-15 0)
(3 8.89662e-16 0)
(3 1.14426e-16 0)
(3 5.65021e-16 0)
(3 1.52042e-15 0)
(3 2.22427e-15 0)
(3 2.55103e-15 0)
(3 3.23037e-15 0)
(3 2.64921e-15 0)
(3 1.02618e-15 0)
(3 -3.33497e-16 0)
(3 -7.64185e-16 0)
(3 -4.87799e-16 0)
(3 -2.89772e-16 0)
(3 -9.76411e-16 0)
(3 -2.05387e-15 0)
(3 -3.36661e-15 0)
(3 -3.06621e-15 0)
(3 -1.66938e-15 0)
(3 -6.39405e-16 0)
(3 8.59232e-16 0)
(3 1.2986e-15 0)
(3 1.42841e-15 0)
(3 1.052e-15 0)
(3 -3.16898e-17 0)
(3 -5.66452e-16 0)
(3 -7.39152e-16 0)
(3 -9.90721e-16 0)
(3 9.94251e-17 0)
(3 6.43927e-16 0)
(3 2.06152e-16 0)
(3 -3.39212e-18 0)
(3 3.05604e-16 0)
(3 9.78407e-16 0)
(3 1.09821e-15 0)
(3 1.49246e-15 0)
(3 1.71919e-15 0)
(3 1.54524e-15 0)
(3 8.86434e-16 0)
(3 6.15611e-16 0)
(3 2.85875e-16 0)
(3 -1.84623e-16 0)
(3 -9.47132e-16 0)
(3 5.53821e-17 0)
(3 3.58931e-16 0)
(3 -1.61103e-17 0)
(3 -7.4343e-16 0)
(3 -1.07039e-15 0)
(3 -9.69828e-16 0)
(3 -6.89045e-16 0)
(3 -3.86553e-16 0)
(3 -2.77072e-16 0)
(3 -3.66415e-16 0)
(3 6.94304e-17 0)
(3 8.38051e-16 0)
(3 8.01966e-16 0)
(3 4.35643e-16 0)
(3 1.13938e-15 0)
(3 1.41833e-15 0)
(3 1.11267e-15 0)
(3 1.83419e-15 0)
(3 2.21958e-15 0)
(3 1.51947e-15 0)
(3 4.42272e-16 0)
(3 -8.95108e-16 0)
(3 -1.29589e-15 0)
(3 -1.16935e-15 0)
(3 -8.78055e-16 0)
(3 -9.37749e-16 0)
(3 -1.67461e-15 0)
(3 -1.94338e-15 0)
(3 -1.03228e-15 0)
(3 4.51341e-17 0)
(3 -2.80462e-16 0)
(3 -1.72638e-15 0)
(3 -2.84728e-15 0)
(3 -3.82287e-15 0)
(3 -3.07753e-15 0)
(3 -2.61084e-15 0)
(3 -2.0872e-15 0)
(3 -1.96395e-15 0)
(3 -1.98692e-15 0)
(3 -2.51864e-15 0)
(3 -3.35997e-15 0)
(3 -4.17814e-15 0)
(3 -4.0891e-15 0)
(3 -2.81463e-15 0)
(3 -3.51433e-15 0)
(3 -4.15829e-15 0)
(3 -4.00643e-15 0)
(3 -3.0189e-15 0)
(3 -2.77564e-15 0)
(3 -2.80206e-15 0)
(3 -3.49743e-15 0)
(3 -3.92621e-15 0)
(3 -3.31728e-15 0)
(3 -1.32461e-15 0)
(3 1.94497e-15 0)
(3 2.37907e-15 0)
(3 2.03628e-15 0)
(3 2.06023e-15 0)
(3 2.0799e-15 0)
(3 2.09653e-15 0)
(3 6.71664e-16 0)
(3 -9.12954e-16 0)
(3 -2.67311e-15 0)
(3 -3.21154e-15 0)
(3 -3.26905e-15 0)
(3 -3.17945e-15 0)
(3 -2.8213e-15 0)
(3 -2.8886e-15 0)
(3 -2.23435e-15 0)
(3 -1.46005e-17 0)
(3 1.61122e-15 0)
(3 2.00591e-15 0)
(3 1.38551e-15 0)
(3 3.3412e-16 0)
(3 -6.57723e-16 0)
(3 3.07718e-15 0)
(1.6778 0.0474334 0)
(0.713067 0.0442268 0)
(0.62636 0.0724295 0)
(0.599703 0.058501 0)
(0.576894 0.0463657 0)
(0.562356 0.0440411 0)
(0.549426 0.0504557 0)
(0.53111 0.0557329 0)
(0.5102 0.0544299 0)
(0.48245 0.0519144 0)
(0.452907 0.0526958 0)
(0.431247 0.0558529 0)
(0.419618 0.057843 0)
(0.415562 0.0598399 0)
(0.410091 0.0616166 0)
(0.405629 0.0603154 0)
(0.393596 0.0599851 0)
(0.375336 0.0604605 0)
(0.352124 0.0607141 0)
(0.327084 0.0605629 0)
(0.302891 0.0611815 0)
(0.278955 0.0618395 0)
(0.254765 0.0622932 0)
(0.23444 0.0622631 0)
(0.218229 0.0615893 0)
(0.205609 0.0616722 0)
(0.19437 0.061189 0)
(0.181011 0.0605548 0)
(0.163023 0.0603927 0)
(0.140878 0.0629467 0)
(0.117981 0.0659977 0)
(0.0979679 0.0692558 0)
(0.0815977 0.0720452 0)
(0.0669123 0.0740156 0)
(0.0514756 0.0748342 0)
(0.0333774 0.0756233 0)
(0.0118326 0.0767686 0)
(3 -5.19371e-17 0)
(3 7.9093e-17 0)
(3 5.01602e-18 0)
(3 2.38867e-16 0)
(3 4.44653e-16 0)
(3 -2.33117e-16 0)
(3 -3.56334e-16 0)
(3 -3.34151e-16 0)
(3 -4.99655e-16 0)
(3 -3.03393e-17 0)
(3 2.29379e-16 0)
(3 1.25303e-15 0)
(3 1.92655e-15 0)
(3 2.1776e-15 0)
(3 1.62557e-15 0)
(3 1.02055e-15 0)
(3 1.83675e-15 0)
(3 1.25604e-15 0)
(3 1.18655e-15 0)
(3 5.76791e-16 0)
(3 -1.64119e-16 0)
(3 -5.13731e-16 0)
(3 -4.82709e-16 0)
(3 1.03563e-15 0)
(3 1.33706e-15 0)
(3 4.17379e-16 0)
(3 -1.30354e-16 0)
(3 1.40006e-16 0)
(3 -2.62544e-16 0)
(3 3.51269e-16 0)
(3 8.22819e-16 0)
(3 9.21118e-16 0)
(3 8.92062e-16 0)
(3 1.12222e-15 0)
(3 1.86117e-15 0)
(3 2.33829e-15 0)
(3 2.25892e-15 0)
(3 2.09107e-15 0)
(3 9.17569e-16 0)
(3 4.36509e-16 0)
(3 1.04623e-15 0)
(3 2.69389e-15 0)
(3 3.26324e-15 0)
(3 3.83306e-15 0)
(3 4.18596e-15 0)
(3 4.26715e-15 0)
(3 3.4515e-15 0)
(3 2.68581e-15 0)
(3 9.68978e-16 0)
(3 1.58218e-17 0)
(3 -5.18223e-16 0)
(3 -2.04109e-15 0)
(3 -2.3714e-15 0)
(3 -1.40211e-15 0)
(3 4.36377e-16 0)
(3 8.12499e-16 0)
(3 1.85496e-15 0)
(3 2.02397e-15 0)
(3 2.19584e-15 0)
(3 8.59825e-16 0)
(3 -1.27174e-15 0)
(3 -1.44979e-15 0)
(3 -8.16899e-16 0)
(3 -1.15936e-16 0)
(3 4.527e-16 0)
(3 5.14446e-16 0)
(3 8.53836e-16 0)
(3 9.78089e-16 0)
(3 1.11837e-15 0)
(3 9.46241e-16 0)
(3 7.70927e-16 0)
(3 7.11357e-16 0)
(3 3.92853e-16 0)
(3 2.6316e-16 0)
(3 -2.17439e-16 0)
(3 2.83031e-16 0)
(3 1.23707e-15 0)
(3 1.16183e-15 0)
(3 -7.6661e-16 0)
(3 -1.8342e-15 0)
(3 -1.31111e-15 0)
(3 -1.09168e-15 0)
(3 -1.25657e-15 0)
(3 -1.05395e-15 0)
(3 -1.01765e-16 0)
(3 2.02232e-16 0)
(3 -1.63878e-15 0)
(3 -1.77576e-15 0)
(3 -1.17894e-15 0)
(3 -3.2768e-16 0)
(3 3.10798e-16 0)
(3 6.32197e-16 0)
(3 1.24218e-15 0)
(3 1.71241e-15 0)
(3 1.92109e-15 0)
(3 1.99535e-15 0)
(3 3.24459e-15 0)
(3 2.54106e-15 0)
(3 9.54468e-16 0)
(3 -4.28128e-16 0)
(3 -7.54813e-16 0)
(3 -9.29242e-16 0)
(3 -6.20165e-16 0)
(3 -4.1343e-16 0)
(3 -5.35995e-16 0)
(3 -1.88775e-15 0)
(3 -1.44343e-15 0)
(3 -9.92137e-16 0)
(3 -4.07169e-16 0)
(3 -1.78153e-15 0)
(3 -1.89883e-15 0)
(3 -2.01282e-15 0)
(3 -2.725e-15 0)
(3 -1.58619e-15 0)
(3 -1.64099e-17 0)
(3 -1.86539e-16 0)
(3 -6.19446e-16 0)
(3 -1.239e-15 0)
(3 -1.00895e-15 0)
(3 -1.06263e-15 0)
(3 -2.35694e-15 0)
(3 -3.42504e-15 0)
(3 -3.33148e-15 0)
(3 -3.21506e-15 0)
(3 -3.38587e-15 0)
(3 -3.22248e-15 0)
(3 -3.48304e-15 0)
(3 -3.91867e-15 0)
(3 -3.77574e-15 0)
(3 -2.92906e-15 0)
(3 -2.58841e-15 0)
(3 -1.60396e-15 0)
(3 -1.4271e-15 0)
(3 -1.66943e-15 0)
(3 -4.13084e-16 0)
(3 2.25578e-15 0)
(3 2.90032e-15 0)
(3 2.49423e-15 0)
(3 1.22438e-15 0)
(3 1.05571e-15 0)
(3 3.05055e-16 0)
(3 3.41792e-16 0)
(3 -8.78547e-16 0)
(3 -1.27609e-15 0)
(3 -8.38068e-16 0)
(3 -6.29295e-16 0)
(3 -7.88911e-16 0)
(3 5.12272e-17 0)
(3 1.34067e-15 0)
(3 1.37157e-15 0)
(3 1.10674e-15 0)
(3 -3.05594e-16 0)
(3 -1.17064e-18 0)
(3 -1.51146e-16 0)
(3 5.08546e-16 0)
(1.72911 0.0623904 0)
(0.718253 0.0648046 0)
(0.622675 0.0885871 0)
(0.59924 0.072742 0)
(0.578724 0.0591171 0)
(0.563501 0.0565046 0)
(0.549849 0.0643431 0)
(0.530992 0.0710213 0)
(0.510782 0.0701672 0)
(0.484503 0.0675142 0)
(0.456159 0.0683592 0)
(0.435033 0.0721444 0)
(0.423209 0.0747152 0)
(0.418489 0.0768868 0)
(0.412102 0.0789805 0)
(0.407174 0.0774511 0)
(0.395112 0.0771057 0)
(0.37729 0.0778531 0)
(0.354551 0.0783478 0)
(0.329847 0.0782847 0)
(0.305584 0.0791387 0)
(0.281191 0.0801407 0)
(0.256369 0.0808762 0)
(0.235231 0.080983 0)
(0.218277 0.0802519 0)
(0.204956 0.0804678 0)
(0.193093 0.079838 0)
(0.179274 0.0791217 0)
(0.16095 0.0790305 0)
(0.138635 0.081913 0)
(0.115859 0.0852816 0)
(0.0960179 0.0887002 0)
(0.0797969 0.0914341 0)
(0.0653025 0.0933931 0)
(0.0500756 0.094218 0)
(0.032305 0.0951015 0)
(0.0113418 0.0965028 0)
(3 -5.41134e-17 0)
(3 -4.30958e-17 0)
(3 -1.30851e-16 0)
(3 -2.96969e-17 0)
(3 -3.37699e-17 0)
(3 -5.11002e-16 0)
(3 -3.78314e-17 0)
(3 2.89179e-16 0)
(3 1.11748e-16 0)
(3 -1.84998e-16 0)
(3 6.73381e-17 0)
(3 4.23028e-16 0)
(3 1.78517e-16 0)
(3 4.26189e-16 0)
(3 1.19651e-15 0)
(3 1.47465e-15 0)
(3 5.9859e-16 0)
(3 -3.801e-17 0)
(3 5.54404e-17 0)
(3 -2.03365e-16 0)
(3 -5.43406e-17 0)
(3 -2.86016e-16 0)
(3 3.96005e-16 0)
(3 4.67553e-16 0)
(3 8.51847e-17 0)
(3 4.76164e-17 0)
(3 -5.61965e-16 0)
(3 -1.59531e-15 0)
(3 -8.48365e-16 0)
(3 -3.64529e-16 0)
(3 -7.63758e-17 0)
(3 3.5606e-16 0)
(3 3.60614e-16 0)
(3 6.24816e-16 0)
(3 7.7765e-16 0)
(3 1.4433e-15 0)
(3 1.44388e-15 0)
(3 1.42819e-15 0)
(3 1.15756e-15 0)
(3 4.54238e-16 0)
(3 1.33311e-16 0)
(3 1.78268e-15 0)
(3 2.6971e-15 0)
(3 3.03655e-15 0)
(3 3.22788e-15 0)
(3 2.83596e-15 0)
(3 2.90316e-15 0)
(3 2.42917e-15 0)
(3 1.48933e-15 0)
(3 -2.5701e-16 0)
(3 -1.33187e-15 0)
(3 -1.39038e-15 0)
(3 -4.84989e-16 0)
(3 1.35143e-15 0)
(3 2.36333e-15 0)
(3 2.57875e-15 0)
(3 1.86371e-15 0)
(3 6.18347e-16 0)
(3 4.9414e-16 0)
(3 3.68257e-16 0)
(3 -4.37963e-16 0)
(3 -6.58443e-16 0)
(3 -6.42215e-16 0)
(3 -3.22299e-17 0)
(3 -2.94257e-16 0)
(3 -6.15788e-16 0)
(3 1.09622e-15 0)
(3 2.40006e-15 0)
(3 1.91813e-15 0)
(3 1.12826e-15 0)
(3 7.96123e-16 0)
(3 8.43452e-16 0)
(3 8.15122e-16 0)
(3 6.93012e-16 0)
(3 1.24029e-16 0)
(3 -4.85927e-16 0)
(3 -3.26761e-16 0)
(3 1.21924e-16 0)
(3 -2.16713e-15 0)
(3 -3.42481e-15 0)
(3 -3.33117e-15 0)
(3 -2.8509e-15 0)
(3 -1.43736e-15 0)
(3 1.92284e-16 0)
(3 9.87573e-16 0)
(3 4.53301e-16 0)
(3 -1.02181e-15 0)
(3 -8.30029e-16 0)
(3 2.06889e-16 0)
(3 2.8478e-16 0)
(3 7.29067e-16 0)
(3 1.07719e-15 0)
(3 1.49279e-15 0)
(3 1.33185e-15 0)
(3 1.50424e-15 0)
(3 1.37813e-15 0)
(3 1.15634e-15 0)
(3 1.1671e-15 0)
(3 1.27881e-15 0)
(3 -1.86418e-16 0)
(3 -9.89209e-16 0)
(3 -8.59031e-16 0)
(3 -2.57325e-16 0)
(3 -1.60808e-16 0)
(3 -3.10552e-16 0)
(3 -1.65826e-15 0)
(3 -2.29117e-15 0)
(3 -2.39673e-15 0)
(3 -1.78914e-15 0)
(3 -1.9915e-15 0)
(3 -1.4226e-15 0)
(3 -8.37639e-16 0)
(3 -4.91679e-16 0)
(3 -1.7626e-16 0)
(3 -8.74554e-17 0)
(3 -3.84884e-16 0)
(3 -8.83294e-16 0)
(3 -1.3116e-15 0)
(3 -1.5962e-15 0)
(3 -2.30093e-15 0)
(3 -2.22415e-15 0)
(3 -2.14256e-15 0)
(3 -3.06261e-15 0)
(3 -3.18411e-15 0)
(3 -2.84776e-15 0)
(3 -3.16939e-15 0)
(3 -3.83376e-15 0)
(3 -4.07096e-15 0)
(3 -3.52143e-15 0)
(3 -2.21713e-15 0)
(3 -1.17439e-15 0)
(3 -8.87791e-16 0)
(3 -1.30043e-15 0)
(3 -2.85028e-15 0)
(3 -1.93598e-15 0)
(3 1.41967e-15 0)
(3 2.278e-15 0)
(3 3.03286e-15 0)
(3 3.15794e-15 0)
(3 3.6431e-15 0)
(3 3.95665e-15 0)
(3 2.7779e-15 0)
(3 1.65612e-15 0)
(3 1.12247e-15 0)
(3 9.99116e-16 0)
(3 5.48833e-16 0)
(3 7.92156e-16 0)
(3 9.93711e-16 0)
(3 6.47509e-16 0)
(3 6.41273e-16 0)
(3 6.45382e-16 0)
(3 1.60517e-18 0)
(3 3.26782e-16 0)
(3 7.29891e-16 0)
(3 -4.24809e-15 0)
(1.7945 0.0779533 0)
(0.723892 0.0876327 0)
(0.620511 0.10322 0)
(0.601205 0.0852565 0)
(0.581143 0.0709008 0)
(0.564605 0.0691524 0)
(0.549494 0.0787631 0)
(0.530247 0.086584 0)
(0.511104 0.0860539 0)
(0.487147 0.0832781 0)
(0.460281 0.0840911 0)
(0.439576 0.0884469 0)
(0.427247 0.0917088 0)
(0.421096 0.0939728 0)
(0.413904 0.0962016 0)
(0.408199 0.0944675 0)
(0.396224 0.0940811 0)
(0.379045 0.0951392 0)
(0.356956 0.0959649 0)
(0.332768 0.0960766 0)
(0.30864 0.0971587 0)
(0.284034 0.0985266 0)
(0.25884 0.099588 0)
(0.237081 0.0999034 0)
(0.219547 0.0992376 0)
(0.205716 0.09971 0)
(0.193405 0.0991648 0)
(0.179312 0.0982517 0)
(0.160945 0.0980936 0)
(0.138797 0.101265 0)
(0.116309 0.10489 0)
(0.0966635 0.108244 0)
(0.0804339 0.110712 0)
(0.0656985 0.112496 0)
(0.0501402 0.113231 0)
(0.032102 0.114099 0)
(0.0111364 0.115668 0)
(3 -4.39759e-17 0)
(3 -7.59657e-17 0)
(3 -2.14199e-16 0)
(3 -1.46367e-16 0)
(3 -4.14446e-16 0)
(3 -3.76149e-16 0)
(3 -4.11553e-16 0)
(3 -5.44823e-16 0)
(3 -5.60968e-16 0)
(3 -5.83362e-16 0)
(3 -4.76915e-16 0)
(3 -7.87877e-16 0)
(3 -1.73048e-15 0)
(3 -1.47532e-15 0)
(3 -4.82179e-16 0)
(3 -1.26867e-16 0)
(3 -2.2931e-16 0)
(3 -3.77886e-16 0)
(3 -3.86543e-16 0)
(3 1.07558e-16 0)
(3 2.83147e-16 0)
(3 2.62254e-16 0)
(3 -2.17167e-16 0)
(3 -7.35171e-16 0)
(3 -1.58224e-15 0)
(3 -1.3578e-15 0)
(3 -8.16735e-16 0)
(3 -3.85438e-16 0)
(3 -3.5648e-17 0)
(3 2.65891e-16 0)
(3 5.68691e-16 0)
(3 1.46488e-15 0)
(3 1.29195e-15 0)
(3 1.40293e-15 0)
(3 1.53171e-15 0)
(3 1.25095e-15 0)
(3 9.33455e-16 0)
(3 6.35903e-16 0)
(3 4.49501e-16 0)
(3 1.34533e-16 0)
(3 -3.62361e-16 0)
(3 -4.84637e-16 0)
(3 -6.8362e-17 0)
(3 2.02616e-16 0)
(3 -3.9311e-17 0)
(3 -2.20892e-16 0)
(3 1.22342e-16 0)
(3 4.20376e-16 0)
(3 8.27677e-16 0)
(3 6.3879e-16 0)
(3 7.26827e-16 0)
(3 1.09562e-15 0)
(3 7.3491e-16 0)
(3 9.61497e-16 0)
(3 1.37756e-15 0)
(3 2.15783e-15 0)
(3 1.05513e-15 0)
(3 -3.1526e-17 0)
(3 -7.24179e-16 0)
(3 -3.12874e-16 0)
(3 2.78184e-16 0)
(3 -5.95346e-16 0)
(3 -1.43774e-15 0)
(3 -8.62443e-16 0)
(3 -2.52676e-16 0)
(3 -5.74387e-16 0)
(3 -1.93202e-16 0)
(3 -1.28195e-16 0)
(3 8.49955e-16 0)
(3 8.95507e-16 0)
(3 4.32054e-16 0)
(3 4.57079e-16 0)
(3 7.46749e-16 0)
(3 1.09201e-15 0)
(3 4.48923e-16 0)
(3 -3.6601e-16 0)
(3 -1.88479e-15 0)
(3 -2.49933e-15 0)
(3 -2.44871e-15 0)
(3 -2.76189e-15 0)
(3 -3.83388e-15 0)
(3 -3.2424e-15 0)
(3 -1.76642e-15 0)
(3 -6.04074e-16 0)
(3 -1.44652e-16 0)
(3 5.96792e-16 0)
(3 1.5981e-15 0)
(3 1.36697e-15 0)
(3 4.17726e-16 0)
(3 4.04391e-17 0)
(3 2.44993e-16 0)
(3 1.1287e-15 0)
(3 1.44626e-15 0)
(3 1.30094e-15 0)
(3 5.81541e-16 0)
(3 -3.91554e-17 0)
(3 -9.46309e-18 0)
(3 1.17876e-15 0)
(3 1.82659e-15 0)
(3 2.32426e-15 0)
(3 2.30266e-15 0)
(3 2.40571e-15 0)
(3 1.97695e-15 0)
(3 1.58383e-15 0)
(3 1.56377e-15 0)
(3 8.82195e-16 0)
(3 -9.37813e-16 0)
(3 -2.05849e-15 0)
(3 -2.3542e-15 0)
(3 -2.13766e-15 0)
(3 -1.57064e-15 0)
(3 -1.10432e-15 0)
(3 -4.39026e-16 0)
(3 -3.99183e-16 0)
(3 -1.14946e-15 0)
(3 -1.47825e-15 0)
(3 -2.58153e-15 0)
(3 -2.65504e-15 0)
(3 -2.20221e-15 0)
(3 -2.1698e-15 0)
(3 -1.74186e-15 0)
(3 -1.45116e-15 0)
(3 -1.75591e-15 0)
(3 -2.17815e-15 0)
(3 -2.01291e-15 0)
(3 -2.0712e-15 0)
(3 -2.17514e-15 0)
(3 -2.69905e-15 0)
(3 -2.64194e-15 0)
(3 -2.29284e-15 0)
(3 -2.00679e-15 0)
(3 -1.53191e-15 0)
(3 -1.45702e-15 0)
(3 -1.811e-15 0)
(3 -1.35821e-15 0)
(3 -1.52397e-15 0)
(3 -1.04162e-15 0)
(3 3.487e-16 0)
(3 1.01025e-15 0)
(3 1.42815e-15 0)
(3 2.15653e-15 0)
(3 2.51917e-15 0)
(3 2.76217e-15 0)
(3 2.24275e-15 0)
(3 1.59694e-15 0)
(3 1.74219e-15 0)
(3 2.7885e-15 0)
(3 2.2427e-15 0)
(3 2.23078e-16 0)
(3 -5.21726e-16 0)
(3 -4.8729e-16 0)
(3 4.14759e-16 0)
(3 7.40977e-16 0)
(3 1.09303e-15 0)
(3 -8.33642e-15 0)
(1.87369 0.0936104 0)
(0.730429 0.112227 0)
(0.620151 0.116753 0)
(0.604341 0.0963571 0)
(0.583722 0.0820364 0)
(0.565537 0.0819576 0)
(0.549104 0.0938645 0)
(0.530047 0.102482 0)
(0.512744 0.10193 0)
(0.491162 0.0990186 0)
(0.465567 0.099863 0)
(0.444937 0.104903 0)
(0.43171 0.108922 0)
(0.423756 0.111177 0)
(0.415526 0.113336 0)
(0.409107 0.111353 0)
(0.397352 0.110916 0)
(0.380925 0.112274 0)
(0.359517 0.113478 0)
(0.335836 0.113838 0)
(0.311858 0.115119 0)
(0.287142 0.116836 0)
(0.261756 0.118226 0)
(0.239511 0.11879 0)
(0.221505 0.118321 0)
(0.207289 0.119166 0)
(0.194673 0.118854 0)
(0.180463 0.117962 0)
(0.162293 0.117924 0)
(0.140595 0.12108 0)
(0.11845 0.124501 0)
(0.0988381 0.127694 0)
(0.0823067 0.129888 0)
(0.0669565 0.131467 0)
(0.0507967 0.132262 0)
(0.0322477 0.133028 0)
(0.0110582 0.134779 0)
(3 -1.38951e-16 0)
(3 -1.96922e-16 0)
(3 -1.21749e-16 0)
(3 -3.79616e-16 0)
(3 -4.73159e-16 0)
(3 -2.32313e-16 0)
(3 -3.01855e-16 0)
(3 -3.2121e-16 0)
(3 -2.34637e-17 0)
(3 5.58831e-16 0)
(3 3.45739e-17 0)
(3 -6.85548e-16 0)
(3 -8.58383e-16 0)
(3 -8.63e-16 0)
(3 -1.13543e-15 0)
(3 -1.45425e-15 0)
(3 -1.22724e-15 0)
(3 -1.25989e-15 0)
(3 -1.75498e-15 0)
(3 -1.5951e-15 0)
(3 -1.71731e-15 0)
(3 -1.43987e-15 0)
(3 -2.19575e-15 0)
(3 -2.40785e-15 0)
(3 -1.86485e-15 0)
(3 -1.42381e-15 0)
(3 -6.2421e-16 0)
(3 5.06173e-16 0)
(3 7.11733e-16 0)
(3 1.16783e-15 0)
(3 2.37635e-15 0)
(3 3.76938e-15 0)
(3 3.56614e-15 0)
(3 3.00571e-15 0)
(3 1.7911e-15 0)
(3 6.20147e-16 0)
(3 5.9464e-16 0)
(3 1.05666e-15 0)
(3 1.26519e-15 0)
(3 2.12816e-15 0)
(3 9.86937e-16 0)
(3 3.47719e-16 0)
(3 -2.93059e-16 0)
(3 -5.38761e-16 0)
(3 -6.83254e-16 0)
(3 -7.38988e-16 0)
(3 -6.76354e-16 0)
(3 -4.26498e-16 0)
(3 8.2079e-18 0)
(3 1.82294e-16 0)
(3 9.21774e-16 0)
(3 2.07355e-15 0)
(3 1.12418e-15 0)
(3 -4.0357e-16 0)
(3 -9.20646e-17 0)
(3 4.26206e-16 0)
(3 -1.30658e-16 0)
(3 -8.73375e-16 0)
(3 -1.48142e-15 0)
(3 -1.9659e-15 0)
(3 -1.9977e-15 0)
(3 -1.73562e-15 0)
(3 -1.36188e-15 0)
(3 -1.5526e-15 0)
(3 -1.2366e-15 0)
(3 -7.75931e-16 0)
(3 -6.70744e-16 0)
(3 -4.22112e-16 0)
(3 1.05764e-16 0)
(3 1.05752e-15 0)
(3 9.89028e-16 0)
(3 5.8807e-16 0)
(3 5.60302e-16 0)
(3 4.50569e-16 0)
(3 3.21843e-16 0)
(3 -8.03417e-16 0)
(3 -3.65109e-15 0)
(3 -5.0982e-15 0)
(3 -4.46419e-15 0)
(3 -5.12711e-15 0)
(3 -5.28872e-15 0)
(3 -4.75196e-15 0)
(3 -4.53082e-15 0)
(3 -4.21759e-15 0)
(3 -1.68317e-15 0)
(3 4.65044e-16 0)
(3 8.72531e-16 0)
(3 2.99444e-16 0)
(3 1.58426e-16 0)
(3 2.80545e-16 0)
(3 9.99186e-16 0)
(3 2.12487e-15 0)
(3 2.49113e-15 0)
(3 2.72341e-15 0)
(3 2.93512e-16 0)
(3 -8.03529e-16 0)
(3 -3.62056e-16 0)
(3 6.16247e-16 0)
(3 2.22186e-15 0)
(3 3.5472e-15 0)
(3 3.7719e-15 0)
(3 3.85393e-15 0)
(3 3.3003e-15 0)
(3 1.95912e-15 0)
(3 1.13591e-15 0)
(3 2.7468e-16 0)
(3 -8.74667e-16 0)
(3 -1.02316e-15 0)
(3 -1.3666e-15 0)
(3 -1.50031e-15 0)
(3 -2.16818e-15 0)
(3 -2.15464e-15 0)
(3 -1.02047e-15 0)
(3 -1.16004e-15 0)
(3 -1.99308e-15 0)
(3 -2.37164e-15 0)
(3 -2.6231e-15 0)
(3 -2.62127e-15 0)
(3 -1.75979e-15 0)
(3 -3.86002e-16 0)
(3 -5.03775e-16 0)
(3 -1.52269e-15 0)
(3 -1.59039e-15 0)
(3 -1.32655e-15 0)
(3 -9.15654e-16 0)
(3 -1.12228e-15 0)
(3 -1.11263e-15 0)
(3 -2.0544e-15 0)
(3 -1.9822e-15 0)
(3 -2.08375e-15 0)
(3 -2.44452e-15 0)
(3 -2.07826e-15 0)
(3 -1.64965e-15 0)
(3 -4.1928e-16 0)
(3 2.25879e-16 0)
(3 -5.01902e-16 0)
(3 -3.23222e-16 0)
(3 1.21922e-15 0)
(3 1.44763e-15 0)
(3 1.48754e-15 0)
(3 1.80592e-15 0)
(3 2.47013e-15 0)
(3 2.97482e-15 0)
(3 3.05059e-15 0)
(3 3.47557e-15 0)
(3 3.81669e-15 0)
(3 3.76325e-15 0)
(3 1.69804e-15 0)
(3 8.44059e-16 0)
(3 2.79168e-16 0)
(3 -3.47863e-16 0)
(3 -2.02307e-16 0)
(3 4.59365e-16 0)
(3 5.18158e-16 0)
(3 -5.82708e-16 0)
(1.96691 0.110095 0)
(0.738092 0.138286 0)
(0.62154 0.129116 0)
(0.608923 0.105923 0)
(0.586924 0.0927211 0)
(0.566582 0.0952327 0)
(0.5494 0.110034 0)
(0.530836 0.118909 0)
(0.51568 0.117773 0)
(0.496147 0.114722 0)
(0.471629 0.115824 0)
(0.450943 0.121658 0)
(0.436605 0.126375 0)
(0.426625 0.128449 0)
(0.417197 0.13034 0)
(0.410081 0.128193 0)
(0.398592 0.127759 0)
(0.382868 0.129416 0)
(0.362086 0.131 0)
(0.338823 0.131635 0)
(0.31494 0.133046 0)
(0.290182 0.135045 0)
(0.264769 0.136723 0)
(0.242171 0.137538 0)
(0.223786 0.137373 0)