/*--------------------------------*- C++ -*----------------------------------*\
  =========                 |
  \\      /  F ield         | OpenFOAM: The Open Source CFD Toolbox
   \\    /   O peration     | Website:  https://openfoam.org
    \\  /    A nd           | Version:  7
     \\/     M anipulation  |
\*---------------------------------------------------------------------------*/
FoamFile
{
    version     2.0;
    format      ascii;
    class       volScalarField;
    location    "2.2";
    object      p;
}
// * * * * * * * * * * * * * * * * * * * * * * * * * * * * * * * * * * * * * //

dimensions      [1 -1 -2 0 0 0 0];

internalField   nonuniform List<scalar> 
16192
(
1.28353
1.28475
1.2876
1.29108
1.29453
1.29693
1.29706
1.29152
1.27708
1.26244
1.25747
1.25876
1.26163
1.26849
1.27612
1.28355
1.29142
1.29514
1.29338
1.27799
1.25321
1.24032
1.24021
1.246
1.25175
1.25866
1.2665
1.26908
1.26881
1.26326
1.24883
1.24041
1.24006
1.24043
1.24124
1.24367
1.24787
1.25171
1.25362
1.25397
1.25244
1.24943
1.2459
1.24329
1.24337
1.24863
1.25487
1.25705
1.25763
1.25853
1.26006
1.2616
1.26229
1.26103
1.25867
1.25776
1.2588
1.26044
1.2625
1.26589
1.27265
1.28458
1.29427
1.29452
1.28724
1.27698
1.26889
1.2647
1.26259
1.26441
1.27217
1.28499
1.29354
1.29305
1.28728
1.2789
1.27119
1.26719
1.26511
1.2662
1.27353
1.28312
1.28511
1.28214
1.27572
1.26951
1.26674
1.26563
1.26917
1.27358
1.27299
1.2708
1.26853
1.2666
1.26491
1.2632
1.26073
1.25922
1.26101
1.26376
1.26285
1.26055
1.25763
1.2537
1.25138
1.25001
1.24904
1.24774
1.24685
1.24942
1.25336
1.25315
1.25178
1.2501
1.24788
1.24494
1.24265
1.24187
1.24121
1.23989
1.2389
1.23911
1.24051
1.24127
1.24105
1.24054
1.24029
1.24087
1.2423
1.24283
1.24189
1.23959
1.23614
1.23251
1.23
1.22917
1.22889
1.22877
1.2289
1.2305
1.23106
1.23023
1.22967
1.22911
1.22788
1.22519
1.2195
1.21245
1.20855
1.20669
1.20572
1.20509
1.20471
1.20442
1.20379
1.20309
1.20385
1.20503
1.20528
1.2055
1.20546
1.20477
1.2034
1.20134
1.19862
1.1955
1.1911
1.18413
1.17916
1.17899
1.18007
1.181
1.18217
1.18379
1.18709
1.19056
1.18924
1.18305
1.17394
1.17182
1.17285
1.17445
1.17712
1.18103
1.1832
1.18131
1.17842
1.17446
1.16893
1.16652
1.16468
1.16292
1.16355
1.17266
1.18086
1.17651
1.17245
1.16637
1.15483
1.15026
1.14988
1.14996
1.15222
1.1604
1.17734
1.19227
1.19233
1.18797
1.18285
1.17282
1.15972
1.15464
1.15237
1.15367
1.16667
1.19119
1.20644
1.20815
1.20414
1.19915
1.18946
1.17581
1.17022
1.22908
4.26342
6.54987
6.54057
6.44098
6.34315
6.24445
6.1885
6.15163
6.09291
6.01572
5.94422
5.88841
5.85222
5.83151
5.78632
5.72304
5.67127
5.63941
5.62456
5.60576
5.58471
5.55885
5.53122
5.50896
5.49562
5.48943
5.48281
5.46329
5.41718
1.28745
1.28891
1.29093
1.29328
1.29587
1.29785
1.29823
1.29388
1.28139
1.26737
1.26186
1.26367
1.26681
1.26986
1.27595
1.28266
1.28755
1.28886
1.28495
1.27215
1.2566
1.24924
1.2479
1.25047
1.25501
1.25976
1.26475
1.26748
1.26775
1.26455
1.25428
1.24456
1.24332
1.24343
1.24389
1.24581
1.24892
1.25044
1.25023
1.2502
1.25066
1.25086
1.25014
1.24931
1.24971
1.25287
1.25577
1.2559
1.25506
1.25423
1.25373
1.25388
1.25519
1.25916
1.26461
1.26966
1.27005
1.26738
1.26528
1.26492
1.2676
1.27296
1.27981
1.28601
1.2875
1.28426
1.27916
1.27327
1.26918
1.26745
1.26987
1.27546
1.28176
1.28508
1.2843
1.28108
1.27746
1.27321
1.26974
1.26812
1.27041
1.27453
1.27613
1.27466
1.27307
1.2719
1.27089
1.27194
1.27457
1.27401
1.27143
1.26827
1.26425
1.26137
1.25977
1.25891
1.26011
1.26337
1.26692
1.2667
1.26404
1.26079
1.25637
1.2503
1.24691
1.24551
1.2447
1.24572
1.24977
1.25529
1.2563
1.25444
1.25195
1.24884
1.24406
1.23957
1.23819
1.23785
1.23815
1.24002
1.2425
1.24443
1.24477
1.24362
1.24192
1.24001
1.23859
1.23791
1.23794
1.23879
1.23885
1.23829
1.23756
1.2359
1.2327
1.22907
1.22739
1.22699
1.22706
1.22831
1.23045
1.23059
1.23007
1.22949
1.22852
1.22655
1.22261
1.21694
1.21305
1.21111
1.21
1.20913
1.20833
1.20753
1.20674
1.20597
1.20535
1.20487
1.20385
1.2026
1.20135
1.20006
1.19859
1.19669
1.19439
1.1922
1.18982
1.18674
1.18469
1.185
1.18618
1.18703
1.18778
1.18885
1.19127
1.19357
1.19107
1.18268
1.17068
1.16777
1.16842
1.16959
1.17247
1.17786
1.18312
1.18339
1.18087
1.1778
1.17236
1.16766
1.1657
1.16417
1.16445
1.1704
1.17933
1.17663
1.17266
1.16876
1.16019
1.15436
1.15361
1.15327
1.15392
1.15993
1.17524
1.18779
1.18558
1.18029
1.17434
1.16721
1.16327
1.16088
1.15912
1.1603
1.16983
1.18781
1.19974
1.20082
1.1967
1.191
1.18253
1.18257
1.21826
1.49906
3.93895
6.49727
6.54614
6.36471
6.23269
6.1352
6.0786
6.06406
6.06316
6.01995
5.94382
5.86946
5.81167
5.78527
5.78339
5.75492
5.70433
5.64671
5.59797
5.57091
5.5596
5.55114
5.54349
5.53207
5.51499
5.49524
5.47777
5.46021
5.43357
1.28502
1.2883
1.29169
1.29518
1.29891
1.30209
1.30347
1.29932
1.28749
1.27537
1.27164
1.27457
1.279
1.2822
1.28324
1.28278
1.28246
1.28141
1.27497
1.25973
1.24947
1.24949
1.25393
1.25902
1.263
1.26521
1.26574
1.26514
1.26398
1.26159
1.25503
1.2481
1.24786
1.24916
1.25082
1.25141
1.25039
1.24862
1.24668
1.24481
1.24226
1.24056
1.24344
1.25011
1.25758
1.26205
1.26129
1.25851
1.25457
1.25006
1.2466
1.24444
1.24435
1.24824
1.25888
1.27163
1.27947
1.28051
1.27746
1.2733
1.26992
1.26668
1.26683
1.27191
1.27986
1.28436
1.2842
1.28238
1.28027
1.27831
1.27636
1.27415
1.2735
1.27522
1.27696
1.27748
1.27736
1.27754
1.2786
1.27858
1.27536
1.27092
1.26727
1.265
1.26505
1.26727
1.27062
1.27669
1.28082
1.27966
1.27683
1.27261
1.26514
1.25771
1.25442
1.2532
1.25492
1.26324
1.27106
1.27172
1.26971
1.26678
1.26112
1.25121
1.24342
1.24045
1.23915
1.24041
1.24864
1.25946
1.26155
1.26019
1.25792
1.25337
1.24418
1.23521
1.23222
1.23154
1.23175
1.23503
1.24155
1.24644
1.24807
1.24813
1.24704
1.24483
1.24109
1.23712
1.23451
1.23328
1.23311
1.23416
1.23535
1.23555
1.23492
1.23274
1.22876
1.22573
1.22476
1.22429
1.22518
1.22703
1.22678
1.22614
1.22531
1.2237
1.22063
1.21624
1.21354
1.21255
1.21224
1.21229
1.21263
1.21305
1.21326
1.21281
1.21076
1.20658
1.20187
1.1986
1.19658
1.19495
1.19317
1.19102
1.18833
1.18504
1.18228
1.1821
1.18285
1.1848
1.18715
1.18908
1.19076
1.1929
1.19634
1.19873
1.19408
1.18167
1.16745
1.16386
1.16422
1.1651
1.16723
1.17099
1.17578
1.17993
1.17999
1.17818
1.17559
1.17091
1.16791
1.16591
1.16476
1.16768
1.17565
1.17503
1.17105
1.16845
1.16365
1.15875
1.15795
1.15778
1.15853
1.16324
1.17503
1.18767
1.18691
1.17943
1.17057
1.16515
1.1638
1.16291
1.16361
1.16786
1.17766
1.19208
1.20021
1.199
1.19304
1.18309
1.1859
1.24335
1.56164
2.10074
3.12662
5.61462
6.48864
6.40042
6.29968
6.178
6.09876
6.04682
6.03124
6.02934
5.98573
5.91892
5.81958
5.75971
5.73736
5.74564
5.73671
5.70422
5.6499
5.58103
5.53557
5.52912
5.53554
5.54308
5.54631
5.5285
5.4822
5.42486
5.38928
1.28564
1.28656
1.28903
1.29197
1.29489
1.29696
1.29666
1.29104
1.28046
1.27149
1.26928
1.27213
1.27706
1.28275
1.28828
1.29196
1.29134
1.28465
1.26985
1.25008
1.24272
1.24478
1.25014
1.25628
1.26048
1.26397
1.26603
1.26601
1.26361
1.25894
1.25003
1.24278
1.24353
1.24652
1.25175
1.25731
1.25804
1.25437
1.24805
1.24134
1.23608
1.23288
1.23402
1.24242
1.25439
1.26052
1.26158
1.26139
1.25989
1.25682
1.25243
1.24747
1.24459
1.24528
1.25282
1.26453
1.27483
1.27958
1.27954
1.27765
1.2749
1.27165
1.26879
1.27056
1.27828
1.28304
1.28262
1.28066
1.27902
1.2778
1.27702
1.27754
1.27958
1.28071
1.27918
1.27658
1.27437
1.27353
1.27518
1.27732
1.2771
1.2747
1.27174
1.26911
1.26813
1.26899
1.27156
1.27547
1.27717
1.276
1.27396
1.27113
1.26649
1.26135
1.25824
1.2565
1.2569
1.26248
1.26779
1.26844
1.26719
1.26486
1.26038
1.25329
1.2471
1.2439
1.24204
1.24216
1.24813
1.25684
1.25922
1.25857
1.25707
1.25342
1.2462
1.23969
1.237
1.23584
1.23538
1.23677
1.24064
1.24343
1.24451
1.24488
1.24444
1.24308
1.24078
1.23917
1.23823
1.23754
1.23705
1.23588
1.23431
1.23298
1.23218
1.23125
1.22948
1.22795
1.22752
1.22722
1.22742
1.22745
1.22655
1.22569
1.2244
1.2217
1.2166
1.21163
1.21012
1.20972
1.20955
1.20968
1.21016
1.21085
1.21158
1.21189
1.21135
1.20959
1.20623
1.20257
1.19959
1.19706
1.19455
1.19213
1.18972
1.18678
1.18355
1.18136
1.18081
1.18182
1.18375
1.18587
1.188
1.19066
1.19406
1.19693
1.19576
1.18627
1.1723
1.16507
1.16442
1.16434
1.16462
1.16664
1.17119
1.17589
1.17649
1.17499
1.17346
1.17199
1.17003
1.16767
1.16572
1.1657
1.17159
1.17423
1.17018
1.16693
1.16302
1.15962
1.15894
1.15852
1.15927
1.16339
1.17083
1.17893
1.18375
1.17873
1.17191
1.16709
1.16474
1.16378
1.16449
1.16838
1.17669
1.18883
1.19558
1.19452
1.18857
1.19248
1.2611
1.61848
2.27476
2.69914
2.79744
3.72515
5.59815
6.3014
6.34358
6.18882
6.05697
6.00013
5.97466
5.97877
5.96558
5.92823
5.85577
5.7656
5.72315
5.70316
5.69686
5.68106
5.65706
5.61023
5.54779
5.50864
5.50255
5.50779
5.51445
5.51297
5.49152
5.44223
5.38364
1.29514
1.29437
1.29571
1.29734
1.2978
1.29582
1.29036
1.28211
1.27401
1.26898
1.26742
1.268
1.2698
1.27248
1.27803
1.28533
1.2894
1.28745
1.27731
1.26142
1.25178
1.25065
1.25306
1.25561
1.2575
1.25906
1.26167
1.26579
1.26842
1.26612
1.25538
1.24082
1.23731
1.23851
1.2423
1.24868
1.25315
1.25365
1.25133
1.24804
1.24484
1.24202
1.24091
1.24393
1.24817
1.24951
1.2497
1.25048
1.25207
1.2537
1.25461
1.25502
1.25616
1.25916
1.26367
1.26809
1.27116
1.27254
1.27251
1.27147
1.27021
1.26985
1.27239
1.27982
1.28802
1.28946
1.28543
1.28033
1.27549
1.27188
1.2697
1.27234
1.27997
1.28462
1.28389
1.28103
1.27723
1.2742
1.27207
1.27007
1.26863
1.26934
1.27162
1.27366
1.27521
1.27671
1.2781
1.27727
1.27504
1.27242
1.26867
1.26396
1.26099
1.26015
1.25972
1.26039
1.26458
1.26906
1.26869
1.26686
1.26419
1.25922
1.25216
1.24765
1.24591
1.24476
1.24466
1.24755
1.25438
1.25882
1.25833
1.2567
1.2537
1.2475
1.23993
1.23757
1.23768
1.23847
1.24071
1.24451
1.24599
1.24544
1.24437
1.24233
1.23884
1.23576
1.23469
1.23477
1.23604
1.23871
1.2406
1.24046
1.23928
1.23636
1.23157
1.22751
1.22624
1.22667
1.22755
1.22886
1.23064
1.23097
1.23104
1.23092
1.22996
1.22718
1.22104
1.21443
1.21203
1.21111
1.21045
1.20991
1.20942
1.20863
1.20738
1.20574
1.2043
1.20354
1.20256
1.20104
1.19975
1.19884
1.19797
1.19674
1.19503
1.19297
1.19061
1.18858
1.18785
1.1882
1.18894
1.18975
1.19039
1.19052
1.18986
1.18867
1.18722
1.18347
1.17473
1.16972
1.17065
1.17172
1.17403
1.17761
1.18065
1.18038
1.178
1.17458
1.16928
1.1666
1.16579
1.16493
1.16385
1.16408
1.16931
1.17515
1.17197
1.16753
1.16331
1.16105
1.15965
1.15828
1.15811
1.16042
1.1655
1.17139
1.17637
1.17863
1.1749
1.17075
1.168
1.16677
1.16685
1.16889
1.17455
1.1841
1.18928
1.19041
1.20384
1.28298
1.65146
2.37305
2.73188
2.89762
2.83727
2.90489
3.82235
5.40556
6.21498
6.26173
6.10147
6.00163
5.95384
5.94309
5.94107
5.9173
5.86296
5.77961
5.70747
5.6726
5.65979
5.6562
5.64178
5.62172
5.58581
5.54033
5.50694
5.49034
5.48277
5.47949
5.47359
5.45599
5.42057
1.29604
1.29448
1.29514
1.29654
1.29696
1.29476
1.28939
1.28314
1.2786
1.27573
1.27402
1.27382
1.27493
1.2762
1.27692
1.27772
1.27923
1.27929
1.27441
1.26404
1.25591
1.25475
1.25668
1.25878
1.26023
1.26063
1.26147
1.26475
1.26885
1.26928
1.26082
1.24749
1.24287
1.24242
1.24262
1.24357
1.24387
1.24391
1.24441
1.24506
1.24565
1.24673
1.24935
1.25247
1.25252
1.24975
1.2468
1.2454
1.24634
1.24908
1.25243
1.25579
1.25946
1.26354
1.2674
1.27016
1.27137
1.27126
1.27023
1.26877
1.2679
1.26954
1.2758
1.28426
1.28908
1.28861
1.28518
1.28076
1.27652
1.27316
1.27169
1.27579
1.28262
1.28446
1.28277
1.27994
1.27642
1.27365
1.27145
1.26956
1.26835
1.27015
1.27397
1.27642
1.27763
1.27821
1.27735
1.27554
1.27348
1.27118
1.26802
1.26398
1.26163
1.26109
1.26114
1.26311
1.26784
1.26939
1.26825
1.26662
1.26405
1.25869
1.25157
1.24851
1.24727
1.24632
1.2467
1.24981
1.25544
1.25819
1.25759
1.25614
1.25364
1.24868
1.24242
1.23944
1.23908
1.23989
1.24158
1.24406
1.24521
1.24505
1.24444
1.24297
1.23998
1.23698
1.23581
1.23572
1.23662
1.23867
1.23962
1.23936
1.23854
1.23612
1.23133
1.22682
1.22509
1.22549
1.22653
1.22798
1.22953
1.22988
1.23001
1.2297
1.22859
1.22608
1.2213
1.21577
1.21313
1.21205
1.21128
1.21097
1.21093
1.21043
1.20919
1.20739
1.20511
1.20278
1.20089
1.19939
1.19838
1.19778
1.19713
1.19594
1.19384
1.19131
1.18934
1.18851
1.18879
1.18966
1.19068
1.19154
1.19193
1.19176
1.19043
1.18723
1.18329
1.17934
1.17167
1.16521
1.16732
1.16993
1.17415
1.18055
1.18561
1.18702
1.18508
1.18127
1.1734
1.16564
1.16281
1.16097
1.1593
1.16004
1.16695
1.17601
1.17626
1.17147
1.16743
1.16457
1.16157
1.15875
1.15724
1.15823
1.16263
1.16923
1.17418
1.17757
1.17753
1.17263
1.16913
1.16761
1.16724
1.16844
1.17286
1.18096
1.18745
1.20497
1.34214
1.71946
2.38135
2.83123
2.88168
2.90116
2.87175
2.85153
2.94531
3.72395
5.19932
6.07852
6.09446
6.01589
5.95272
5.91044
5.8939
5.87364
5.83331
5.77876
5.71373
5.66494
5.64244
5.63305
5.62238
5.60978
5.58714
5.5505
5.50377
5.47351
5.46433
5.46479
5.46267
5.45593
5.43533
1.29609
1.29278
1.29177
1.29162
1.29057
1.28803
1.28519
1.28328
1.28142
1.27848
1.27561
1.27499
1.27621
1.27792
1.27918
1.27959
1.27953
1.27835
1.27232
1.26016
1.25177
1.25184
1.25467
1.25758
1.26025
1.26231
1.26421
1.26644
1.26772
1.26349
1.25012
1.24056
1.24112
1.24329
1.24685
1.24884
1.24858
1.2478
1.24693
1.24582
1.24466
1.24441
1.24564
1.24713
1.24734
1.24643
1.24565
1.24646
1.24957
1.25392
1.25739
1.25925
1.26012
1.26066
1.26183
1.26438
1.26749
1.26937
1.26976
1.27004
1.27213
1.27737
1.28401
1.28724
1.28614
1.28358
1.28079
1.27798
1.27547
1.27404
1.2764
1.28267
1.28611
1.28495
1.28218
1.27717
1.27239
1.27001
1.26878
1.26853
1.27115
1.27604
1.27885
1.27883
1.27738
1.27548
1.27322
1.27134
1.26982
1.26835
1.26661
1.26481
1.26386
1.26339
1.26348
1.26535
1.26698
1.26609
1.26473
1.26326
1.26115
1.25738
1.25256
1.25054
1.24973
1.24908
1.24929
1.25102
1.25378
1.25535
1.25484
1.25358
1.25187
1.24954
1.24658
1.24329
1.24135
1.24125
1.24167
1.24199
1.24213
1.24192
1.2412
1.24016
1.23912
1.23839
1.23789
1.23793
1.23846
1.23854
1.23806
1.23729
1.23578
1.23302
1.22991
1.22786
1.22701
1.22707
1.22767
1.22822
1.22845
1.22824
1.22738
1.22586
1.224
1.22177
1.2187
1.21469
1.2117
1.21002
1.20876
1.20867
1.20899
1.20881
1.20821
1.20765
1.20694
1.20598
1.20515
1.2041
1.20216
1.19966
1.19735
1.19522
1.19269
1.1899
1.1877
1.1867
1.18685
1.18741
1.18791
1.18815
1.18809
1.1879
1.18754
1.18662
1.18525
1.18314
1.17853
1.16947
1.16673
1.17047
1.17314
1.17667
1.17968
1.18111
1.18033
1.1773
1.17158
1.16659
1.16395
1.1617
1.16027
1.16206
1.16841
1.17496
1.17515
1.17117
1.16725
1.16385
1.16076
1.15838
1.15748
1.15908
1.16401
1.17101
1.17594
1.17784
1.17831
1.17302
1.16824
1.16563
1.16497
1.16533
1.17164
1.18449
1.20943
1.35344
1.88806
2.42382
2.827
2.90694
2.89661
2.89775
2.89534
2.86595
2.85297
2.93761
3.57893
5.03134
5.82633
6.03149
5.99041
5.91252
5.85384
5.81871
5.78854
5.7698
5.75276
5.71136
5.65189
5.60796
5.58168
5.55886
5.54646
5.54279
5.52449
5.49301
5.45845
5.43955
5.4286
5.41684
5.3994
1.29739
1.29335
1.29098
1.28895
1.28642
1.28384
1.28215
1.28118
1.27972
1.27742
1.27584
1.27637
1.27774
1.27909
1.28036
1.2815
1.28232
1.28171
1.2758
1.2634
1.25487
1.25494
1.25709
1.25875
1.26021
1.26232
1.2654
1.26827
1.26846
1.25993
1.24271
1.23669
1.23958
1.24228
1.24644
1.24971
1.24968
1.24876
1.24773
1.24636
1.24479
1.24365
1.24298
1.24242
1.24198
1.24192
1.24271
1.24558
1.25121
1.25704
1.2597
1.25978
1.25907
1.25848
1.2589
1.26128
1.26518
1.26878
1.27144
1.27435
1.27935
1.28597
1.28872
1.28653
1.28253
1.27887
1.27641
1.27476
1.27443
1.2776
1.28441
1.28951
1.28944
1.28628
1.27957
1.27239
1.26877
1.26767
1.268
1.27126
1.27742
1.28123
1.28131
1.27951
1.27626
1.27288
1.27063
1.26931
1.26851
1.26799
1.26713
1.2655
1.26489
1.26472
1.26492
1.26605
1.26645
1.26569
1.26445
1.26286
1.26079
1.25784
1.25401
1.25155
1.25089
1.25084
1.25157
1.25264
1.25372
1.25419
1.25348
1.25219
1.25098
1.24995
1.24855
1.24593
1.24347
1.24275
1.24254
1.24204
1.24105
1.2397
1.23856
1.23808
1.23829
1.23915
1.23986
1.24034
1.2404
1.23992
1.23893
1.23718
1.23458
1.2317
1.22943
1.22756
1.22625
1.22591
1.22614
1.22658
1.22716
1.22751
1.22705
1.2258
1.22417
1.22226
1.21967
1.21576
1.21176
1.20929
1.20803
1.20804
1.20837
1.20825
1.20783
1.20737
1.20692
1.20658
1.20644
1.20588
1.20371
1.20032
1.19758
1.1955
1.19348
1.19132
1.18943
1.18824
1.18765
1.18732
1.18692
1.18644
1.18609
1.18561
1.18495
1.18487
1.18508
1.18366
1.18025
1.17509
1.16996
1.17341
1.17705
1.17893
1.17921
1.17837
1.17662
1.17243
1.16625
1.16278
1.16135
1.16063
1.16159
1.16617
1.17259
1.17529
1.1733
1.16911
1.16483
1.16118
1.15862
1.1573
1.15752
1.16005
1.16534
1.17173
1.17589
1.17684
1.17618
1.17172
1.16664
1.16445
1.16367
1.16738
1.18092
1.22001
1.37394
1.93915
2.55964
2.81073
2.88776
2.90257
2.90089
2.90183
2.90343
2.89204
2.86508
2.85049
2.90456
3.45424
4.70092
5.71995
5.95702
5.89303
5.8089
5.75633
5.72893
5.73376
5.76634
5.7388
5.67938
5.59926
5.54679
5.51856
5.50472
5.53038
5.55437
5.52883
5.48105
5.43978
5.41585
5.40051
5.38281
1.28939
1.28546
1.28301
1.28111
1.28027
1.28063
1.28232
1.28434
1.28498
1.28512
1.28573
1.28675
1.28737
1.28753
1.28725
1.28632
1.28436
1.27964
1.26992
1.25722
1.25028
1.25007
1.25183
1.25409
1.25905
1.26477
1.26924
1.27221
1.26987
1.25659
1.24137
1.23931
1.24244
1.24498
1.24827
1.24974
1.24935
1.24857
1.24807
1.24749
1.2472
1.24644
1.24478
1.24273
1.24119
1.24125
1.24348
1.24772
1.2532
1.25676
1.25636
1.2547
1.2535
1.25339
1.25522
1.26045
1.26741
1.27375
1.27977
1.28526
1.28759
1.28651
1.28313
1.2778
1.27436
1.273
1.27341
1.2766
1.28286
1.29111
1.29559
1.29433
1.28829
1.27837
1.2698
1.26617
1.2656
1.26703
1.27216
1.27971
1.2833
1.28287
1.27977
1.27465
1.27034
1.26822
1.26733
1.26751
1.26935
1.27024
1.27004
1.26846
1.2671
1.26664
1.26628
1.26555
1.26449
1.26356
1.26232
1.26095
1.25978
1.25854
1.25658
1.25403
1.25301
1.25264
1.25234
1.25167
1.25101
1.25116
1.25202
1.25241
1.25287
1.25299
1.25204
1.24851
1.24391
1.24115
1.23934
1.23772
1.23674
1.23651
1.23737
1.24023
1.24329
1.24495
1.24515
1.24382
1.24118
1.23806
1.23477
1.23156
1.22904
1.22784
1.22718
1.2263
1.22587
1.22619
1.22668
1.22699
1.22703
1.22642
1.22503
1.22323
1.2215
1.2199
1.21798
1.21507
1.21127
1.20921
1.20872
1.20878
1.20917
1.20995
1.2105
1.21058
1.21061
1.21075
1.21043
1.20841
1.20397
1.19864
1.1952
1.19336
1.19159
1.18948
1.1874
1.18618
1.1856
1.18513
1.18476
1.1849
1.18586
1.18686
1.18719
1.18805
1.18885
1.1869
1.18239
1.17899
1.17557
1.17466
1.17833
1.18066
1.18065
1.17923
1.17677
1.17195
1.16593
1.16233
1.1606
1.15976
1.16172
1.16868
1.1749
1.17524
1.17294
1.16976
1.16605
1.16291
1.16128
1.16047
1.16048
1.16262
1.16715
1.17194
1.17411
1.17388
1.17263
1.17006
1.16667
1.16536
1.16881
1.18023
1.22875
1.46331
1.96196
2.67711
2.83411
2.88847
2.88592
2.88742
2.91329
2.91948
2.91486
2.90126
2.87373
2.84751
2.8375
2.87949
3.30007
4.48516
5.54769
5.87177
5.81582
5.71893
5.68659
5.68882
5.7297
5.72526
5.68488
5.61695
5.53445
5.49343
5.4742
5.49434
5.53195
5.52738
5.49006
5.44176
5.41438
5.40018
5.40025
1.28315
1.28191
1.28163
1.28287
1.28682
1.29193
1.29603
1.2973
1.29653
1.29291
1.28893
1.28661
1.2846
1.28244
1.28009
1.27718
1.27283
1.26569
1.25572
1.24833
1.24678
1.24846
1.25325
1.26225
1.27241
1.27796
1.2783
1.27384
1.26167
1.24414
1.23665
1.2381
1.24155
1.24749
1.25262
1.25379
1.25254
1.24972
1.24693
1.24415
1.24126
1.23875
1.23728
1.23731
1.2389
1.24277
1.2493
1.2547
1.25474
1.25253
1.24993
1.24851
1.2487
1.25105
1.25722
1.26806
1.27882
1.2846
1.2862
1.28543
1.28153
1.27599
1.2725
1.27125
1.27159
1.27476
1.2821
1.29173
1.29724
1.29684
1.29205
1.28394
1.27395
1.26721
1.26522
1.26569
1.26888
1.27613
1.2832
1.28458
1.28267
1.27795
1.27219
1.26871
1.26754
1.2675
1.26961
1.27386
1.27619
1.27619
1.27439
1.27003
1.2663
1.26441
1.26288
1.26146
1.26053
1.26046
1.26202
1.26346
1.2639
1.26343
1.26122
1.25637
1.25222
1.25018
1.24901
1.2484
1.24847
1.25085
1.2552
1.25769
1.25812
1.25706
1.2521
1.24468
1.23924
1.2369
1.23582
1.2355
1.23642
1.24036
1.24597
1.2491
1.24931
1.24716
1.24282
1.23811
1.23421
1.23137
1.22925
1.22813
1.2281
1.22975
1.23135
1.23154
1.23089
1.22977
1.22828
1.2266
1.22463
1.22246
1.22121
1.22116
1.22135
1.221
1.22034
1.21854
1.21534
1.21402
1.2139
1.21409
1.21492
1.21562
1.21514
1.21434
1.21332
1.21135
1.2075
1.20224
1.19657
1.19156
1.18867
1.18802
1.18797
1.18759
1.18703
1.18698
1.18744
1.18845
1.19009
1.19245
1.19529
1.19695
1.19723
1.19614
1.19224
1.18494
1.17755
1.17359
1.17063
1.16816
1.17019
1.1724
1.1735
1.17304
1.1717
1.16907
1.16524
1.16338
1.16274
1.1641
1.16811
1.17445
1.17742
1.17557
1.17185
1.16784
1.16489
1.16358
1.16342
1.16182
1.16042
1.16246
1.16751
1.17162
1.17219
1.17136
1.1705
1.16958
1.16927
1.17144
1.18101
1.22413
1.52258
2.11372
2.63564
2.90852
2.91854
2.90986
2.91256
2.90845
2.91369
2.90498
2.89524
2.88864
2.87633
2.8527
2.83461
2.83226
2.86325
3.19478
4.20602
5.3724
5.69421
5.68426
5.6499
5.64924
5.67518
5.68225
5.65519
5.61448
5.54285
5.48332
5.45633
5.4576
5.48971
5.5011
5.47885
5.44198
5.41038
5.39375
5.38659
1.28635
1.28768
1.29161
1.29664
1.29974
1.29969
1.29827
1.29477
1.28944
1.28338
1.27739
1.27441
1.27309
1.27243
1.27121
1.2692
1.26609
1.26072
1.25546
1.2549
1.25729
1.26361
1.27237
1.27701
1.27625
1.2736
1.2682
1.25751
1.24532
1.23954
1.23977
1.24434
1.25414
1.26011
1.25897
1.25422
1.24618
1.23959
1.2372
1.2363
1.23611
1.23731
1.24052
1.24555
1.25157
1.2555
1.25543
1.25241
1.24626
1.24293
1.24304
1.24491
1.24913
1.25798
1.27146
1.28073
1.28317
1.28249
1.27734
1.27088
1.26869
1.26911
1.2705
1.27336
1.28
1.29088
1.29866
1.29945
1.29586
1.28975
1.28116
1.27136
1.26678
1.26639
1.26818
1.27377
1.28125
1.28421
1.28321
1.27981
1.27451
1.27016
1.26845
1.26829
1.26984
1.27434
1.27878
1.27952
1.27805
1.27396
1.26858
1.2639
1.26145
1.26012
1.25915
1.25853
1.25903
1.26281
1.26757
1.26885
1.26817
1.26488
1.25831
1.2515
1.24823
1.24712
1.24673
1.24707
1.25028
1.25692
1.26103
1.26117
1.25915
1.2538
1.24561
1.23864
1.23625
1.23561
1.23572
1.2382
1.24439
1.24985
1.25069
1.24908
1.24532
1.24046
1.23482
1.23119
1.22965
1.22926
1.22975
1.23215
1.2351
1.23586
1.23494
1.23184
1.22826
1.22556
1.22338
1.22167
1.22053
1.22024
1.22108
1.22416
1.22595
1.22591
1.22429
1.21997
1.21548
1.21432
1.21392
1.21364
1.21339
1.21248
1.21101
1.20897
1.20606
1.20216
1.1979
1.19388
1.19051
1.1887
1.18848
1.18942
1.19225
1.1952
1.19621
1.19665
1.19719
1.19784
1.19841
1.19806
1.19731
1.19581
1.19284
1.18732
1.1788
1.17061
1.16534
1.16301
1.16282
1.16464
1.16742
1.17128
1.1764
1.17827
1.17824
1.17667
1.17337
1.17214
1.17162
1.17209
1.17223
1.17187
1.17095
1.16836
1.1657
1.16386
1.16291
1.16388
1.16497
1.1623
1.15977
1.16275
1.16858
1.17134
1.17147
1.17119
1.17095
1.17139
1.17373
1.18384
1.24129
1.51932
2.24731
2.66347
2.88536
2.94818
2.93697
2.92529
2.90991
2.90253
2.89813
2.89805
2.89398
2.88699
2.8807
2.86707
2.84402
2.82854
2.82662
2.84616
3.07212
3.94562
5.02882
5.59876
5.62002
5.6486
5.62127
5.61328
5.60591
5.5826
5.53882
5.48425
5.45191
5.43534
5.44077
5.459
5.46289
5.44217
5.40972
5.3827
5.36763
1.29579
1.29775
1.29899
1.29859
1.29737
1.29556
1.29286
1.28801
1.27907
1.27236
1.27071
1.26986
1.26963
1.27173
1.27315
1.27252
1.27184
1.27072
1.26944
1.2695
1.27051
1.27096
1.26987
1.2685
1.26614
1.25973
1.25227
1.24786
1.24676
1.24926
1.25605
1.26022
1.25897
1.25407
1.24726
1.2377
1.2323
1.23118
1.23216
1.23733
1.24598
1.25288
1.25596
1.25592
1.25216
1.24777
1.24308
1.23717
1.23554
1.23681
1.23998
1.24662
1.2591
1.2731
1.27912
1.28026
1.27835
1.27077
1.26344
1.26368
1.26597
1.26975
1.27687
1.28801
1.29776
1.30074
1.2991
1.29496
1.28896
1.27983
1.27154
1.26844
1.26869
1.2721
1.27923
1.28418
1.28447
1.28252
1.2783
1.27234
1.26908
1.26845
1.26912
1.27269
1.27878
1.28177
1.28138
1.27887
1.27425
1.26786
1.26189
1.25961
1.25883
1.25839
1.25823
1.2596
1.26454
1.27013
1.27122
1.26987
1.26674
1.26125
1.25303
1.24809
1.24699
1.24676
1.24744
1.25137
1.25855
1.26207
1.26172
1.25986
1.25583
1.2478
1.23979
1.23732
1.23695
1.23737
1.24076
1.24712
1.25028
1.24991
1.24818
1.24486
1.23889
1.23287
1.23044
1.22993
1.23032
1.23274
1.23683
1.23884
1.23845
1.23616
1.23211
1.22743
1.22278
1.22047
1.21964
1.21925
1.21941
1.22176
1.22623
1.22786
1.22705
1.22467
1.22041
1.21441
1.21084
1.21013
1.20983
1.20946
1.20855
1.20727
1.20562
1.20347
1.20088
1.19792
1.1954
1.19417
1.19399
1.19535
1.1982
1.20109
1.20261
1.20235
1.20049
1.19671
1.19486
1.19398
1.19269
1.19085
1.18876
1.18604
1.18172
1.17579
1.16977
1.16612
1.16509
1.1659
1.16942
1.17514
1.18137
1.18746
1.19009
1.1895
1.18629
1.17948
1.17255
1.1688
1.16635
1.16385
1.16189
1.16135
1.16273
1.16453
1.16599
1.16771
1.17001
1.1712
1.16838
1.16207
1.16099
1.16414
1.16913
1.17125
1.17175
1.17208
1.17277
1.17451
1.18333
1.28074
1.61269
2.2567
2.78576
2.87443
2.9107
2.92991
2.93412
2.91887
2.90976
2.89383
2.88925
2.89053
2.89566
2.89319
2.88785
2.87994
2.85873
2.83329
2.82239
2.82007
2.83089
2.98105
3.65979
4.74318
5.40795
5.58401
5.5571
5.54042
5.53277
5.53091
5.5185
5.48969
5.45448
5.42676
5.40669
5.41252
5.43435
5.43533
5.40999
5.37158
5.34023
1.29813
1.29734
1.29654
1.29528
1.29369
1.29099
1.28598
1.27903
1.27385
1.27186
1.27135
1.27278
1.27755
1.28214
1.28265
1.28203
1.28108
1.27845
1.27269
1.26777
1.26616
1.26484
1.2625
1.25791
1.25412
1.2521
1.25096
1.25287
1.25981
1.26382
1.26283
1.25769
1.25056
1.24131
1.23109
1.22828
1.2281
1.2309
1.24125
1.25538
1.26147
1.26109
1.25559
1.24801
1.24132
1.23356
1.22941
1.2299
1.23225
1.23695
1.24625
1.26109
1.27284
1.2761
1.2768
1.27506
1.26649
1.25907
1.26018
1.26368
1.26962
1.28072
1.29331
1.29861
1.29898
1.29764
1.29437
1.28795
1.27925
1.27304
1.27117
1.27204
1.27697
1.2837
1.28588
1.28519
1.28236
1.27693
1.27086
1.26847
1.26824
1.2698
1.27514
1.28187
1.28371
1.28288
1.28005
1.27486
1.26751
1.26135
1.25921
1.25873
1.25857
1.259
1.2615
1.26691
1.27115
1.27124
1.26977
1.26763
1.26372
1.25618
1.24969
1.24813
1.24794
1.24894
1.25335
1.25974
1.26172
1.26105
1.25975
1.2568
1.24989
1.24186
1.23905
1.23878
1.23958
1.2435
1.24854
1.24971
1.24891
1.24724
1.24372
1.23757
1.2323
1.23064
1.23055
1.23221
1.2364
1.24032
1.24103
1.24008
1.23739
1.23298
1.22689
1.22153
1.21958
1.21898
1.21872
1.21949
1.22306
1.22746
1.22805
1.2269
1.22483
1.221
1.21434
1.20937
1.20826
1.20806
1.20839
1.20846
1.20756
1.20639
1.20499
1.20312
1.20161
1.20099
1.20091
1.20193
1.20357
1.20466
1.20451
1.20361
1.2017
1.19894
1.19585
1.19169
1.18877
1.18723
1.18586
1.18459
1.18337
1.18172
1.17834
1.17431
1.17337
1.17438
1.17722
1.18034
1.18346
1.18623
1.18731
1.1866
1.18476
1.18188
1.17707
1.16803
1.16178
1.1595
1.15815
1.15725
1.15752
1.16116
1.16757
1.173
1.17621
1.17751
1.1761
1.17018
1.16202
1.15893
1.16035
1.16495
1.17006
1.17204
1.17299
1.17384
1.17502
1.18344
1.28598
1.77124
2.336
2.79459
2.91217
2.92206
2.93702
2.94268
2.94368
2.92446
2.90195
2.88771
2.88254
2.88386
2.88857
2.89495
2.89061
2.88306
2.86705
2.83903
2.82103
2.81494
2.81243
2.81906
2.91322
3.39786
4.39
5.18633
5.51995
5.4962
5.4805
5.46242
5.47675
5.4765
5.45096
5.41322
5.38692
5.37857
5.39969
5.41394
5.39859
5.36963
5.33099
1.29649
1.29522
1.29348
1.2911
1.28798
1.2846
1.28135
1.27827
1.27695
1.27722
1.27995
1.28456
1.28712
1.28625
1.28462
1.28261
1.27954
1.27492
1.26865
1.26353
1.25945
1.25625
1.25432
1.25323
1.25222
1.25426
1.26168
1.26794
1.26827
1.26518
1.25923
1.25062
1.23776
1.22861
1.22671
1.22683
1.2318
1.24613
1.261
1.26433
1.26245
1.25707
1.24766
1.23546
1.22699
1.22519
1.22589
1.22914
1.23632
1.24874
1.26285
1.26948
1.27085
1.27166
1.27099
1.26376
1.25624
1.2574
1.26206
1.26956
1.28177
1.29245
1.29504
1.29552
1.2952
1.2929
1.28703
1.27998
1.27579
1.27475
1.27634
1.28193
1.28648
1.28696
1.28559
1.28185
1.27539
1.26965
1.2681
1.26812
1.27033
1.27695
1.28385
1.28512
1.28417
1.28119
1.27554
1.26772
1.26216
1.26025
1.25986
1.25987
1.26096
1.26408
1.2688
1.27107
1.27053
1.26941
1.26793
1.26498
1.25902
1.25273
1.25044
1.25022
1.25139
1.25546
1.26007
1.26088
1.26033
1.25941
1.25698
1.25111
1.24407
1.24123
1.24099
1.24217
1.24622
1.2497
1.24974
1.2485
1.24623
1.24192
1.23606
1.23245
1.23142
1.23181
1.23478
1.24002
1.24284
1.24271
1.2411
1.23783
1.23272
1.22616
1.2216
1.22011
1.21956
1.2195
1.22122
1.22532
1.22827
1.22801
1.22692
1.22521
1.22144
1.21476
1.20985
1.20861
1.20835
1.20897
1.21063
1.2106
1.20979
1.20877
1.20788
1.20686
1.20619
1.20594
1.20582
1.20548
1.20469
1.20358
1.20225
1.2007
1.19829
1.19412
1.18903
1.1867
1.18585
1.18524
1.18489
1.18433
1.18366
1.18368
1.18329
1.18231
1.18218
1.18263
1.18248
1.18168
1.18107
1.18123
1.18104
1.17982
1.17712
1.17159
1.16467
1.16045
1.1588
1.15818
1.15827
1.16062
1.16636
1.17414
1.17886
1.17968
1.17881
1.17612
1.17146
1.16306
1.15743
1.15767
1.16044
1.16682
1.1721
1.17359
1.17495
1.17617
1.18957
1.29811
1.80201
2.47423
2.79098
2.93036
2.94791
2.95192
2.9473
2.93078
2.92139
2.91756
2.90927
2.89607
2.88873
2.88557
2.88394
2.88353
2.88187
2.87668
2.86786
2.84743
2.82256
2.8129
2.80821
2.80612
2.8116
2.86048
3.18703
3.97887
4.95962
5.29038
5.40864
5.42232
5.44753
5.44691
5.42325
5.3908
5.36904
5.36094
5.36582
5.38191
5.37899
5.35973
5.32621
1.29316
1.29097
1.28861
1.28673
1.28539
1.2841
1.28335
1.28418
1.28571
1.28706
1.28764
1.28701
1.28597
1.28448
1.28268
1.28025
1.27622
1.26931
1.26143
1.25741
1.25569
1.25428
1.25316
1.25464
1.2614
1.26952
1.27191
1.27031
1.26692
1.26164
1.25102
1.23577
1.2283
1.22706
1.22736
1.23371
1.25002
1.26283
1.26382
1.26211
1.25808
1.24746
1.23146
1.22364
1.22317
1.22458
1.22979
1.23973
1.25209
1.26096
1.26393
1.26529
1.26628
1.26573
1.26018
1.25489
1.25601
1.26071
1.26953
1.2803
1.28734
1.2902
1.29156
1.29172
1.29027
1.28629
1.28182
1.27935
1.2791
1.28184
1.2868
1.28863
1.28802
1.2854
1.28006
1.27278
1.26879
1.26806
1.26832
1.27116
1.27865
1.28548
1.2863
1.28516
1.28198
1.27596
1.26842
1.26387
1.26234
1.26213
1.26257
1.26419
1.267
1.2698
1.27058
1.26998
1.26895
1.26753
1.26507
1.26081
1.25618
1.25391
1.25361
1.2546
1.25758
1.26017
1.26023
1.25966
1.25872
1.25653
1.25171
1.24614
1.24365
1.24347
1.24493
1.24883
1.25081
1.25033
1.24865
1.24562
1.24057
1.23549
1.23293
1.23228
1.2332
1.23727
1.24266
1.24447
1.24386
1.24176
1.23768
1.2313
1.2253
1.22237
1.22131
1.22101
1.22179
1.2247
1.2282
1.22906
1.2283
1.22714
1.22522
1.22146
1.21572
1.21162
1.21039
1.2102
1.21128
1.21294
1.21289
1.2122
1.21047
1.2085
1.20773
1.207
1.20617
1.20546
1.20479
1.20394
1.20285
1.20141
1.19934
1.19632
1.19244
1.18907
1.18736
1.18661
1.18644
1.18778
1.18964