/*--------------------------------*- C++ -*----------------------------------*\
  =========                 |
  \\      /  F ield         | OpenFOAM: The Open Source CFD Toolbox
   \\    /   O peration     | Website:  https://openfoam.org
    \\  /    A nd           | Version:  7
     \\/     M anipulation  |
\*---------------------------------------------------------------------------*/
FoamFile
{
    version     2.0;
    format      ascii;
    class       volScalarField;
    location    "1.3";
    object      p;
}
// * * * * * * * * * * * * * * * * * * * * * * * * * * * * * * * * * * * * * //

dimensions      [1 -1 -2 0 0 0 0];

internalField   nonuniform List<scalar> 
16192
(
1.19173
1.18662
1.17794
1.17038
1.16771
1.16655
1.16565
1.16532
1.16551
1.16609
1.16658
1.165
1.16237
1.15981
1.15655
1.15166
1.14463
1.1391
1.13709
1.13622
1.1363
1.13904
1.14038
1.14016
1.13986
1.13919
1.13691
1.13083
1.12124
1.1173
1.1188
1.13137
1.16274
1.21624
1.2867
1.33046
1.34497
1.34552
1.34107
1.32949
1.31636
1.30182
1.28291
1.27067
1.26687
1.2652
1.26428
1.26532
1.27132
1.27246
1.27046
1.26917
1.26843
1.26616
1.26173
1.25221
1.234
1.21996
1.21626
1.21463
1.21331
1.21362
1.21854
1.22707
1.23111
1.23051
1.22882
1.22481
1.2164
1.20152
1.18955
1.18595
1.18388
1.1824
1.18206
1.18538
1.19359
1.19872
1.19809
1.19608
1.19325
1.18835
1.18099
1.17199
1.16687
1.16522
1.16445
1.16449
1.1654
1.16668
1.16663
1.16646
1.16701
1.16791
1.1676
1.16672
1.16435
1.15973
1.15508
1.15264
1.15109
1.1494
1.14739
1.14512
1.14252
1.13963
1.1363
1.13212
1.12841
1.12617
1.12479
1.12394
1.12365
1.12446
1.1258
1.12619
1.12594
1.12515
1.1237
1.12262
1.12179
1.12104
1.12042
1.12003
1.12031
1.12136
1.12306
1.12536
1.1281
1.13114
1.1337
1.13476
1.13484
1.13363
1.12883
1.12105
1.11108
1.10402
1.10118
1.10048
1.10067
1.10173
1.10451
1.10447
1.10322
1.10196
1.0998
1.09581
1.08972
1.08467
1.08302
1.08222
1.08192
1.08319
1.08498
1.08433
1.0823
1.07882
1.07291
1.0621
1.05044
1.04668
1.04546
1.04457
1.04409
1.04482
1.04708
1.04977
1.05043
1.04912
1.04641
1.04226
1.03668
1.03054
1.02584
1.02288
1.02128
1.02054
1.02001
1.01864
1.01603
1.01079
1.00602
1.00433
1.00311
1.00191
1.00142
1.00003
0.998183
0.997078
0.995818
0.993641
0.99031
0.983829
0.976557
0.97401
0.972794
0.971675
0.970889
0.969452
0.968557
0.968175
0.968119
0.967618
0.966014
0.962856
0.958939
0.957387
0.956439
0.955246
0.953928
0.952229
0.950596
0.9491
0.947157
0.944612
0.94226
0.940521
0.938891
0.937494
0.936659
0.935988
0.935081
0.933758
0.932003
0.930499
0.928875
0.927036
0.925587
0.92495
0.924305
0.923194
0.923095
0.924261
0.925631
0.92537
0.9241
0.923656
0.924433
0.926321
0.929724
0.934649
0.941183
0.94907
0.965129
1.00753
1.1304
1.36098
1.67725
2.07279
2.49732
2.59366
2.54867
1.19005
1.1816
1.17444
1.17189
1.1708
1.17005
1.16999
1.17023
1.1701
1.17006
1.16904
1.16646
1.16354
1.15974
1.15443
1.14786
1.14316
1.14141
1.14071
1.14144
1.14504
1.14631
1.14526
1.14419
1.14277
1.13931
1.1317
1.12025
1.11528
1.11479
1.11534
1.12165
1.14363
1.18325
1.25488
1.32603
1.34677
1.34824
1.34404
1.33174
1.31508
1.29448
1.2781
1.27225
1.26952
1.26822
1.26884
1.27495
1.27974
1.278
1.27587
1.27403
1.27134
1.26602
1.25573
1.23823
1.22431
1.22026
1.21881
1.2175
1.21772
1.22389
1.23158
1.23401
1.23404
1.23318
1.22992
1.22136
1.2057
1.19331
1.18964
1.18743
1.18557
1.18495
1.18855
1.19809
1.20393
1.20343
1.20172
1.19897
1.19324
1.18401
1.17241
1.16623
1.16438
1.16361
1.16324
1.16348
1.1654
1.16817
1.16868
1.16865
1.16926
1.16939
1.16881
1.16688
1.16211
1.1573
1.15545
1.15433
1.15306
1.15142
1.14917
1.14593
1.14186
1.13724
1.13232
1.12909
1.12739
1.12652
1.12604
1.12659
1.12843
1.1296
1.12928
1.12844
1.12651
1.12366
1.12197
1.12094
1.12001
1.11924
1.11859
1.11823
1.11866
1.12022
1.12286
1.1263
1.13032
1.13402
1.13589
1.13635
1.13606
1.13367
1.12758
1.11665
1.1082
1.10492
1.10389
1.10376
1.10463
1.10773
1.10848
1.10714
1.10531
1.10198
1.09598
1.08793
1.08349
1.0824
1.08189
1.0822
1.08449
1.0878
1.08787
1.08612
1.08298
1.07759
1.0669
1.05402
1.04922
1.0478
1.04672
1.04602
1.04654
1.04916
1.0523
1.05293
1.05175
1.04925
1.0454
1.04009
1.03404
1.02929
1.02599
1.02406
1.02283
1.02198
1.02064
1.01798
1.01277
1.00718
1.00534
1.00437
1.00322
1.00248
1.00263
1.00103
0.999087
0.997689
0.995679
0.992318
0.986223
0.979631
0.976421
0.974945
0.973821
0.973091
0.971848
0.970551
0.969981
0.969746
0.969263
0.967869
0.965221
0.96185
0.959768
0.958931
0.958029
0.956969
0.95571
0.953934
0.951114
0.948479
0.946394
0.944102
0.941825
0.940327
0.939247
0.938399
0.937717
0.936848
0.935505
0.933538
0.932101
0.930828
0.92916
0.927654
0.926911
0.927485
0.927665
0.926666
0.926505
0.927151
0.926675
0.924977
0.923152
0.923191
0.924179
0.926604
0.93073
0.936591
0.951118
0.996862
1.13183
1.35998
1.66172
1.92475
2.17392
2.39432
2.53455
2.61031
2.61215
1.18515
1.17836
1.17592
1.17485
1.17413
1.17455
1.17508
1.17443
1.17391
1.17332
1.17114
1.16801
1.16367
1.15769
1.15139
1.14751
1.14604
1.14546
1.147
1.15132
1.15216
1.15085
1.14945
1.14704
1.14204
1.13323
1.12134
1.1151
1.11382
1.11334
1.1135
1.11763
1.13402
1.16272
1.2172
1.3053
1.34182
1.34627
1.34349
1.33131
1.31068
1.29011
1.28086
1.27678
1.27412
1.27362
1.27829
1.28571
1.28552
1.2835
1.28134
1.27812
1.27164
1.25966
1.24124
1.22787
1.2236
1.22236
1.22156
1.22257
1.22975
1.23784
1.23805
1.23723
1.23614
1.23281
1.22462
1.20863
1.19593
1.19271
1.19087
1.18902
1.18828
1.19181
1.20195
1.20885
1.20857
1.20713
1.20468
1.19938
1.19016
1.17623
1.1677
1.16502
1.16403
1.16344
1.16316
1.16399
1.1676
1.17035
1.17028
1.1702
1.17039
1.17012
1.1683
1.16338
1.1579
1.15634
1.15564
1.15486
1.15387
1.15252
1.15039
1.14631
1.14005
1.13462
1.13146
1.12963
1.12884
1.12862
1.12965
1.13153
1.13189
1.13121
1.13014
1.12808
1.12444
1.12136
1.1203
1.1195
1.11865
1.11798
1.11735
1.11699
1.11786
1.12076
1.12519
1.13002
1.13351
1.13485
1.13536
1.13556
1.13465
1.13095
1.12254
1.11424
1.11068
1.10945
1.10881
1.10923
1.11134
1.11161
1.11039
1.10848
1.10479
1.09786
1.08809
1.08305
1.08189
1.08145
1.08183
1.08452
1.08884
1.08977
1.08841
1.08574
1.08126
1.07192
1.05874
1.05266
1.05098
1.04981
1.04893
1.04912
1.05156
1.05454
1.05498
1.05383
1.0515
1.04784
1.04269
1.03695
1.03259
1.02937
1.02705
1.02562
1.02454
1.02323
1.02059
1.01554
1.00892
1.00654
1.00572
1.0048
1.00394
1.00406
1.00334
1.00118
0.999305
0.997298
0.994356
0.988498
0.981954
0.979394
0.978197
0.976836
0.975796
0.974798
0.973065
0.97199
0.971087
0.970093
0.968659
0.966739
0.964419
0.962672
0.961724
0.960942
0.960168
0.959165
0.957662
0.954953
0.950727
0.946834
0.945463
0.944282
0.942509
0.941186
0.940515
0.939925
0.939117
0.937845
0.935751
0.934151
0.933103
0.931791
0.930354
0.929552
0.929959
0.930893
0.930118
0.929044
0.928413
0.927496
0.925877
0.922909
0.921558
0.922073
0.923816
0.927884
0.937804
0.977496
1.10274
1.35613
1.65846
1.94179
2.15275
2.26517
2.30846
2.40812
2.54842
2.63661
2.64189
1.18254
1.18015
1.17907
1.17825
1.17888
1.17997
1.17897
1.17812
1.17758
1.17589
1.17284
1.16816
1.16156
1.15532
1.15209
1.15079
1.15041
1.15281
1.15759
1.15813
1.15673
1.15516
1.15224
1.14611
1.13519
1.123
1.11718
1.1154
1.11478
1.11428
1.11529
1.1197
1.13051
1.15015
1.18362
1.25891
1.32591
1.33798
1.33556
1.32424
1.30689
1.29352
1.28829
1.2845
1.28235
1.28364
1.29032
1.29208
1.29045
1.28864
1.28554
1.27885
1.26625
1.24667
1.2321
1.2271
1.22563
1.22491
1.22666
1.23493
1.24418
1.24367
1.24133
1.23876
1.23463
1.22625
1.21014
1.1974
1.1946
1.19339
1.19206
1.19192
1.19564
1.20559
1.21353
1.21335
1.21158
1.20924
1.20472
1.196
1.18258
1.17432
1.17025
1.16765
1.16614
1.16546
1.16546
1.16746
1.1712
1.17193
1.17157
1.17135
1.17079
1.16861
1.16351
1.15765
1.15605
1.15552
1.15507
1.15444
1.15357
1.15226
1.14976
1.14506
1.1393
1.1357
1.13395
1.13273
1.13223
1.13276
1.13375
1.13307
1.13196
1.13071
1.12903
1.12624
1.12256
1.12028
1.11932
1.11865
1.11793
1.11728
1.11678
1.11706
1.11968
1.12445
1.13003
1.13317
1.13359
1.13356
1.1333
1.13257
1.13024
1.12407
1.11707
1.11475
1.11449
1.11474
1.11645
1.11728
1.11626
1.11429
1.11152
1.10728
1.10023
1.08987
1.08389
1.08243
1.08192
1.08201
1.08421
1.08869
1.09047
1.08943
1.08715
1.0835
1.07569
1.06349
1.05661
1.05463
1.0534
1.0525
1.05259
1.05464
1.05703
1.0571
1.05582
1.05354
1.04983
1.04453
1.03925
1.03549
1.03255
1.03013
1.02829
1.0271
1.02592
1.02365
1.01914
1.01191
1.0084
1.00752
1.00676
1.006
1.00585
1.00528
1.00318
1.00109
0.998859
0.995903
0.990569
0.984418
0.981982
0.981403
0.98088
0.97954
0.978091
0.9764
0.974499
0.972572
0.97072
0.969007
0.967548
0.966223
0.965436
0.964943
0.96415
0.963275
0.962491
0.961278
0.958583
0.953976
0.948767
0.946632
0.945596
0.944892
0.944038
0.942916
0.942336
0.94174
0.94062
0.938415
0.936371
0.935437
0.934459
0.933267
0.932484
0.932978
0.933001
0.932103
0.93123
0.929963
0.928222
0.926335
0.923277
0.920333
0.920205
0.92177
0.928392
0.95777
1.0569
1.30883
1.62919
1.91414
2.12145
2.26985
2.30608
2.28513
2.32563
2.4541
2.58071
2.611
2.60689
1.18457
1.18354
1.18266
1.18315
1.18497
1.18381
1.18264
1.18198
1.18052
1.17771
1.17288
1.16591
1.15974
1.15691
1.15567
1.15551
1.15858
1.16372
1.16395
1.16248
1.16092
1.1579
1.15138
1.13885
1.12543
1.12035
1.11893
1.11842
1.11803
1.11866
1.12168
1.1253
1.13049
1.14081
1.15837
1.2007
1.28067
1.31802
1.32092
1.31707
1.30804
1.30146
1.29814
1.29619
1.29475
1.29612
1.29799
1.29677
1.29533
1.29269
1.28609
1.2733
1.2535
1.23842
1.23258
1.23054
1.2296
1.23128
1.23916
1.24917
1.24921
1.24605
1.24198
1.23656
1.22723
1.21127
1.19842
1.19569
1.19528
1.19501
1.19575
1.1997
1.20943
1.21799
1.21802
1.21562
1.21292
1.20866
1.20044
1.18689
1.1783
1.17576
1.17397
1.17215
1.17107
1.17069
1.17139
1.17367
1.17404
1.17348
1.17292
1.17175
1.16889
1.16317
1.15656
1.1547
1.15439
1.15456
1.15413
1.15342
1.15262
1.15126
1.14821
1.14347
1.14047
1.1391
1.13837
1.13783
1.13682
1.13587
1.13483
1.13328
1.13117
1.12892
1.12598
1.12276
1.12084
1.11979
1.11916
1.11872
1.11824
1.1178
1.11816
1.12086
1.12498
1.12915
1.1319
1.13209
1.13165
1.13153
1.13108
1.12913
1.12398
1.11798
1.11603
1.11636
1.11783
1.12099
1.12299
1.1224
1.12037
1.11667
1.11109
1.10348
1.09295
1.08599
1.08416
1.08353
1.08327
1.08435
1.088
1.09033
1.08961
1.08764
1.08463
1.07834
1.06746
1.06015
1.05804
1.05685
1.05601
1.0564
1.05842
1.06014
1.05967
1.05816
1.05581
1.05179
1.04582
1.041
1.03803
1.03539
1.03303
1.03095
1.02943
1.02823
1.02639
1.02283
1.01586
1.01121
1.01014
1.0094
1.00861
1.00827
1.00763
1.00556
1.00322
1.00069
0.997523
0.992353
0.986723
0.984509
0.983968
0.984094
0.983726
0.982218
0.980333
0.978008
0.97496
0.971687
0.969627
0.96841
0.967641
0.967564
0.967755
0.967363
0.966603
0.965655
0.964271
0.961708
0.957338
0.951327
0.948439
0.947493
0.946744
0.946187
0.946068
0.945284
0.944579
0.943677
0.941443
0.938644
0.937581
0.936847
0.935987
0.935305
0.935737
0.935179
0.933852
0.932685
0.931373
0.929295
0.926696
0.92336
0.92
0.91946
0.922094
0.941693
1.02504
1.25178
1.57686
1.90382
2.09856
2.24407
2.29981
2.28448
2.28115
2.30291
2.3654
2.47493
2.54436
2.55898
2.56415
1.18801
1.18721
1.18763
1.18996
1.189
1.18753
1.18657
1.18513
1.18247
1.17738
1.17028
1.16432
1.16175
1.16051
1.16046
1.16396
1.16935
1.16952
1.16792
1.1662
1.16341
1.15725
1.14435
1.12964
1.12439
1.12323
1.12283
1.12283
1.12395
1.12686
1.12863
1.12865
1.12992
1.13341
1.13915
1.15755
1.21203
1.28031
1.30788
1.31243
1.3116
1.30969
1.31065
1.3114
1.30779
1.30518
1.30319
1.30126
1.29851
1.29268
1.28144
1.26242
1.24639
1.23979
1.23719
1.23566
1.23694
1.24438
1.25357
1.25373
1.25081
1.24624
1.23909
1.22733
1.211
1.19987
1.19699
1.19699
1.19793
1.1998
1.20425
1.21366
1.22242
1.22272
1.21977
1.21652
1.21191
1.20355
1.19014
1.18151
1.17919
1.17796
1.17723
1.1772
1.17773
1.17821
1.17847
1.17826
1.17749
1.17619
1.17389
1.16998
1.16337
1.15607
1.15329
1.15271
1.15293
1.15377
1.1533
1.15256
1.15161
1.14966
1.1463
1.14414
1.14312
1.14257
1.1423
1.14132
1.13989
1.13783
1.13518
1.13253
1.12986
1.12612
1.12263
1.12078
1.12
1.11948
1.11906
1.11883
1.11907
1.12065
1.12371
1.12693
1.12876
1.13
1.13044
1.12972
1.1292
1.12873
1.1273
1.12349
1.11867
1.11669
1.11731
1.11932
1.12321
1.12655
1.12657
1.12553
1.12283
1.11704
1.10829
1.0974
1.09024
1.08754
1.08666
1.0862
1.08614
1.08769
1.08982
1.08954
1.08781
1.08516
1.07998
1.07064
1.06325
1.06097
1.0599
1.0592
1.06003
1.0623
1.0636
1.06276
1.06111
1.05862
1.05421
1.04717
1.04233
1.04009
1.03794
1.03568
1.03356
1.03177
1.03035
1.02866
1.02583
1.01995
1.01466
1.01332
1.01273
1.0119
1.01104
1.01031
1.00871
1.00631
1.00321
0.999372
0.993971
0.988806
0.98677
0.98626
0.986495
0.986996
0.986008
0.984265
0.981933
0.978451
0.973947
0.970835
0.969805
0.969389
0.969338
0.969801
0.970217
0.969649
0.968611
0.966826
0.963967
0.960077
0.954637
0.950881
0.949676
0.949039
0.948501
0.948404
0.948336
0.947604
0.946391
0.944396
0.941296
0.939602
0.938893
0.938249
0.937613
0.93785
0.93774
0.935766
0.934232
0.932635
0.930341
0.927529
0.922996
0.920244
0.9208
0.932063
0.991442
1.18087
1.50411
1.86188
2.12635
2.2787
2.30287
2.28427
2.27513
2.28301
2.3145
2.34564
2.37919
2.44414
2.50496
2.53331
2.54915
1.19164
1.19197
1.19481
1.19436
1.19265
1.19135
1.18982
1.18698
1.18163
1.17451
1.16869
1.1663
1.16509
1.16511
1.16867
1.17421
1.17457
1.17295
1.17112
1.16836
1.16269
1.15062
1.13514
1.12909
1.12799
1.12754
1.12778
1.12935
1.13267
1.13352
1.13218
1.13043
1.12857
1.12655
1.12326
1.1291
1.15924
1.23051
1.28693
1.30879
1.31584
1.31903
1.32444
1.32407
1.31788
1.31233
1.30787
1.30351
1.29763
1.28772
1.27083
1.25628
1.24977
1.24683
1.245
1.24587
1.25199
1.25925
1.2591
1.2555
1.24986
1.2416
1.22735
1.21
1.20121
1.19885
1.1989
1.20037
1.20365
1.20933
1.21867
1.22727
1.22786
1.22455
1.22056
1.21546
1.20684
1.19287
1.18381
1.18174
1.18078
1.18001
1.18031
1.18279
1.18444
1.18431
1.18394
1.18338
1.1819
1.17828
1.17284
1.16472
1.15636
1.15299
1.15197
1.15159
1.15234
1.15299
1.15253
1.15188
1.15028
1.14744
1.14581
1.14519
1.14497
1.14493
1.14372
1.14247
1.14114
1.13912
1.13573
1.13117
1.1269
1.12394
1.12208
1.12117
1.12071
1.12038
1.12027
1.12106
1.12379
1.12726
1.12857
1.12873
1.12867
1.12871
1.12824
1.12728
1.12652
1.12543
1.12295
1.1194
1.11721
1.11773
1.11984
1.12388
1.12786
1.12848
1.12783
1.12608
1.12244
1.11525
1.10351
1.09623
1.09326
1.09131
1.0901
1.0894
1.08931
1.08996
1.08975
1.08823
1.0858
1.08123
1.0731
1.06608
1.06355
1.06257
1.06203
1.06324
1.06584
1.06694
1.06593
1.0643
1.06184
1.0573
1.04927
1.04351
1.04175
1.04021
1.03821
1.03615
1.0343
1.03262
1.03081
1.0282
1.02316
1.01789
1.01644
1.01608
1.01546
1.01444
1.01323
1.01187
1.00996
1.00684
1.00207
0.995872
0.990889
0.988846
0.988182
0.988437
0.989421
0.988963
0.9875
0.985226
0.982073
0.977689
0.973319
0.971849
0.971484
0.971454
0.9718
0.972366
0.972215
0.971104
0.968865
0.965867
0.961931
0.957483
0.95407
0.952539
0.951601
0.951064
0.950806
0.950754
0.950018
0.948622
0.946313
0.943861
0.94208
0.941046
0.940236
0.939636
0.939231
0.939658
0.938468
0.936178
0.934248
0.931665
0.928119
0.923142
0.922596
0.929016
0.967833
1.11685
1.4065
1.75892
2.0504
2.27592
2.34834
2.34467
2.29346
2.27901
2.28632
2.31141
2.32912
2.3379
2.3542
2.41013
2.48225
2.51944
2.54582
1.19603
1.19897
1.1995
1.19773
1.19614
1.19439
1.19141
1.18586
1.17868
1.17305
1.17058
1.16926
1.16926
1.17277
1.17837
1.17895
1.17744
1.1757
1.17306
1.16755
1.15632
1.14126
1.13411
1.13288
1.13233
1.13254
1.13405
1.13743
1.1381
1.13662
1.13482
1.13203
1.12727
1.1179
1.11049
1.11328
1.12923
1.18054
1.25524
1.29929
1.31855
1.32821
1.33478
1.33307
1.32601
1.318
1.31071
1.30319
1.29355
1.27852
1.26497
1.25951
1.25711
1.25542
1.2567
1.26242
1.26724
1.26632
1.26214
1.25527
1.24463
1.2265
1.20837
1.20195
1.20027
1.20036
1.20181
1.20624
1.2141
1.22419
1.23237
1.23356
1.23058
1.22582
1.21981
1.21069
1.19602
1.18596
1.18355
1.18263
1.18205
1.18239
1.18544
1.18927
1.18955
1.18891
1.18847
1.18742
1.18392
1.17768
1.16749
1.15849
1.15521
1.15377
1.15284
1.15245
1.15287
1.15247
1.15188
1.15031
1.14741
1.14594
1.14545
1.14506
1.14518
1.14533
1.14385
1.14248
1.14132
1.13956
1.13609
1.13052
1.12623
1.12452
1.12332
1.12235
1.12195
1.12218
1.12373
1.12692
1.1298
1.12992
1.12906
1.12813
1.12761
1.12718
1.12641
1.12532
1.12426
1.12272
1.12046
1.11843
1.11839
1.11994
1.1233
1.12688
1.12794
1.1277
1.12672
1.12472
1.12024
1.11113
1.10313
1.10021
1.09824
1.09595
1.09377
1.09249
1.09167
1.09083
1.08942
1.08699
1.08267
1.0754
1.06879
1.06608
1.06507
1.06459
1.06597
1.06888
1.06995
1.06879
1.06712
1.0648
1.06052
1.0526
1.04527
1.0433
1.04224
1.04065
1.03877
1.037
1.03525
1.0332
1.0304
1.02577
1.02057
1.01897
1.01874
1.01856
1.01771
1.01653
1.01503
1.0133
1.0108
1.00606
0.998757
0.993172
0.991104
0.990075
0.990156
0.991303
0.991154
0.99
0.987919
0.984785
0.981241
0.977349
0.974824
0.974148
0.973969
0.974202
0.974387
0.97405
0.972694
0.970512
0.967314
0.963108
0.95989
0.957203
0.955737
0.954651
0.953812
0.953285
0.95283
0.951882
0.95021
0.947705
0.945601
0.944396
0.943541
0.942555
0.941642
0.940904
0.940476
0.940227
0.938722
0.93619
0.933374
0.929156
0.92482
0.928647
0.957415
1.07822
1.33092
1.71155
1.98407
2.20405
2.30309
2.32013
2.33102
2.33187
2.32705
2.32016
2.31431
2.30809
2.30268
2.30863
2.33122
2.3883
2.47376
2.51851
2.52966
1.20263
1.20414
1.20254
1.20082
1.19892
1.19595
1.19039
1.18302
1.17749
1.17502
1.17343
1.17297
1.17597
1.18186
1.18286
1.18138
1.17979
1.17757
1.17262
1.16189
1.14684
1.139
1.13775
1.13707
1.13707
1.138
1.14051
1.14175
1.14066
1.13918
1.13675
1.1321
1.12177
1.10919
1.10732
1.1098
1.11755
1.14517
1.2145
1.2773
1.31579
1.33355
1.34045
1.33899
1.33229
1.32273
1.31258
1.30038
1.28524
1.27289
1.26829
1.2667
1.26589
1.26852
1.27443
1.27603
1.27351
1.26955
1.26261
1.25057
1.2301
1.21065
1.20386
1.20161
1.20107
1.20185
1.20659
1.21662
1.2285
1.23676
1.23839
1.2362
1.23155
1.22519
1.21552
1.20017
1.18884
1.18595
1.18489
1.18404
1.18389
1.18696
1.19241
1.19359
1.19266
1.1919
1.19095
1.18814
1.18222
1.17144
1.16245
1.15926
1.15779
1.15661
1.15575
1.15485
1.15374
1.15268
1.1506
1.14674
1.14487
1.14436
1.14389
1.14352
1.14374
1.14455
1.1435
1.14188
1.14051
1.13867
1.13544
1.13054
1.12801
1.12729
1.1263
1.1253
1.12507
1.12637
1.12953
1.13114
1.13058
1.1296
1.12855
1.12713
1.1263
1.12589
1.12531
1.12436
1.12314
1.1213
1.11975
1.11991
1.12075
1.1227
1.12542
1.12631
1.12635
1.12605
1.1249
1.12204
1.11561
1.10882
1.10655
1.10506
1.10292
1.10044
1.0978
1.09537
1.09333
1.09137
1.08883
1.08471
1.07801
1.07175
1.06885
1.06765
1.06709
1.06849
1.07134
1.07234
1.0712
1.06947
1.06712
1.06323
1.05615
1.04823
1.0452
1.04433
1.04317
1.04155
1.03987
1.03818
1.03604
1.03286
1.02804
1.02266
1.02088
1.02056
1.02071
1.02046
1.0194
1.0181
1.01644
1.01414
1.01038
1.00334
0.996158
0.993689
0.992414
0.991965
0.99291
0.992971
0.99193
0.98999
0.987081
0.984008
0.980968
0.978672
0.977566
0.976948
0.976681
0.976512
0.975572
0.973692
0.971623
0.968444
0.964293
0.961635
0.960062
0.958811
0.957686
0.956791
0.956001
0.954995
0.9536
0.951296
0.948483
0.946976
0.946276
0.945492
0.94472
0.943929
0.942935
0.942032
0.941169
0.940298
0.93826
0.935483
0.93072
0.931657
0.948247
1.04241
1.26795
1.6219
1.96937
2.24011
2.27875
2.27522
2.29286
2.32816
2.35965
2.36367
2.35444
2.32802
2.2978
2.28703
2.28624
2.30173
2.33387
2.38843
2.46465
2.50679
2.51412
1.2084
1.20712
1.20543
1.20355
1.20072
1.19555
1.18791
1.18215
1.17966
1.1779
1.17713
1.17919
1.18448
1.18633
1.18512
1.18349
1.18162
1.17769
1.16823
1.15287
1.14382
1.14224
1.14158
1.14113
1.14154
1.14279
1.14412
1.14355
1.14252
1.14073
1.13662
1.1273
1.11361
1.10811
1.10756
1.10872
1.11475
1.12893
1.17416
1.24366
1.29664
1.33211
1.34254
1.34192
1.33685
1.32703
1.31384
1.29567
1.28036
1.27525
1.27435
1.27439
1.27819
1.28539
1.2868
1.28386
1.27848
1.26995
1.25614
1.23297
1.21415
1.20891
1.20659
1.20519
1.2051
1.20923
1.22
1.2321
1.23907
1.24093
1.24007
1.23644
1.23003
1.21978
1.2043
1.1927
1.18923
1.18793
1.18702
1.18675
1.18904
1.19539
1.19732
1.19592
1.19461
1.19333
1.19038
1.18436
1.17341
1.16532
1.1633
1.16244
1.16179
1.16127
1.15992
1.1579
1.15573
1.1526
1.1471
1.14275
1.14189
1.14153
1.14137
1.14153
1.14211
1.14316
1.14284
1.1413
1.13966
1.13786
1.13544
1.13264
1.13143
1.13106
1.13048
1.12975
1.13
1.13184
1.13243
1.13151
1.1303
1.12896
1.12769
1.1264
1.12534
1.12479
1.12441
1.12378
1.12235
1.12046
1.1204
1.12113
1.12205
1.12311
1.12409
1.12437
1.12447
1.12423
1.12269
1.1185
1.11296
1.11093
1.11002
1.10843
1.1065
1.10425
1.10145
1.09826
1.09512
1.09185
1.08748
1.08109
1.07499
1.07202
1.07064
1.06976
1.0709
1.07351
1.0742
1.07292
1.07131
1.06911
1.06548
1.05908
1.05165
1.04772
1.04661
1.04569
1.04448
1.04299
1.04135
1.03922
1.03574
1.03038
1.02437
1.02233
1.02188
1.02181
1.02237
1.02185
1.02064
1.01922
1.01724
1.01379
1.00828
1.00085
0.996912
0.995369
0.994363
0.994545
0.994497
0.993493
0.991674
0.988984
0.986378
0.984194
0.982281
0.981162
0.980323
0.979544
0.978559
0.976737
0.974754
0.972044
0.968798
0.966271
0.963699
0.962421
0.961611
0.960658
0.959626
0.958619
0.957345
0.955381
0.952409
0.949131
0.947655
0.947468
0.947243
0.946387
0.945618
0.944968
0.94397
0.943014
0.941593
0.939996
0.937104
0.935513
0.945371
1.01023
1.1922
1.53473
1.87084
2.18447
2.29405
2.30174
2.31579
2.33024
2.34013
2.34995
2.3555
2.35124
2.33832
2.31448
2.29367
2.28645
2.28869
2.30743
2.33227
2.37193
2.4395
2.49112
2.50162
1.21162
1.20998
1.20823
1.20569
1.20114
1.19357
1.1873
1.18473
1.18282
1.18174
1.18318
1.18735
1.18918
1.18857
1.18731
1.18561
1.18231
1.17469
1.16018
1.14922
1.14689
1.1462
1.14541
1.14488
1.14516
1.14595
1.14564
1.14474
1.14337
1.14013
1.13196
1.11895
1.11196
1.11073
1.11011
1.11055
1.11522
1.12354
1.14499
1.19978
1.26231
1.31912
1.34221
1.34284
1.33965
1.32985
1.31381
1.29368
1.28413
1.28286
1.2828
1.2858
1.29203
1.29315
1.29049
1.28639
1.27932
1.26589
1.24119
1.21923
1.21294
1.21073
1.20918
1.209
1.21369
1.22545
1.23747
1.24316
1.24406
1.24292
1.23905
1.23214
1.2213
1.20618
1.19555
1.19215
1.19069
1.18988
1.18997
1.19318
1.19969
1.20204
1.20054
1.19837
1.19591
1.19178
1.18479
1.17349
1.16668
1.16558
1.16537
1.16528
1.166
1.16598
1.16407
1.16146
1.1579
1.15107
1.14274
1.13999
1.13941
1.13903
1.13888
1.13959
1.14077
1.14179
1.14224
1.14135
1.13986
1.13823
1.13679
1.13572
1.13507
1.13492
1.13458
1.13406
1.1344
1.13443
1.13326
1.1318
1.13044
1.12901
1.12742
1.12616
1.12531
1.12467
1.12426
1.12334
1.1211
1.11979
1.11976
1.12033
1.12138
1.12194
1.12226
1.12255
1.12265
1.12223
1.11993
1.11587
1.11405
1.11375
1.1127
1.11118
1.10949
1.10734
1.10447
1.10104
1.09713
1.09195
1.08492
1.07841
1.07541
1.07395
1.07278
1.0732
1.07529
1.07562
1.07419
1.07261
1.07065
1.06752
1.06173
1.05472
1.05078
1.04933
1.04829
1.04726
1.0461
1.04471
1.04268
1.03907
1.03315
1.02608
1.02365
1.02311
1.02273
1.02297
1.02359
1.02284
1.02153
1.01987
1.01709
1.01205
1.00576
1.00145
0.999115
0.997554
0.996794
0.996058
0.99481
0.993021
0.99047
0.988516
0.987077
0.985672
0.984574
0.983708
0.982599
0.980792
0.978292
0.975562
0.972027
0.969396
0.967904
0.966537
0.964979
0.964037
0.96348
0.962615
0.961315
0.959605
0.957111
0.953761
0.950094
0.948243
0.947904
0.948043
0.947982
0.947078
0.946397
0.945746
0.944702
0.943555
0.941787
0.939034
0.945384
0.991806
1.1403
1.4613
1.8085
2.13098
2.21192
2.26051
2.33479
2.37935
2.38234
2.37137
2.34325
2.32711
2.32489
2.33254
2.33295
2.32562
2.30923
2.29687
2.29268
2.29831
2.31836
2.35171
2.41438
2.48472
2.49844
1.21478
1.21316
1.21097
1.20698
1.19989
1.19309
1.19039
1.18841
1.187
1.18774
1.19137
1.19235
1.19166
1.19093
1.18972
1.18731
1.18085
1.16775
1.15596
1.15201
1.15086
1.14987
1.14884
1.14814
1.14809
1.14783
1.14688
1.1453
1.14231
1.13553
1.12407
1.11654
1.11473
1.11421
1.11444
1.11531
1.11736
1.1213
1.12942
1.16012
1.21625
1.28529
1.33598
1.34133
1.33988
1.33071
1.31363
1.30015
1.29525
1.29309
1.29354
1.29744
1.29777
1.29517
1.29127
1.28424
1.2714
1.24821
1.22699
1.2202
1.21753
1.21559
1.21519
1.2204
1.23315
1.24407
1.24796
1.24815
1.24708
1.24294
1.23443
1.22043
1.2055
1.19735
1.19395
1.19226
1.19151
1.19278
1.19828
1.20549
1.20777
1.20652
1.20415
1.20044
1.19435
1.18507
1.17302
1.16692
1.16614
1.16669
1.16724
1.16865
1.17017
1.16971
1.16747
1.16426
1.15817
1.1478
1.13985
1.13814
1.13754
1.13713
1.13693
1.1379
1.13982
1.1411
1.14213
1.14189
1.14095
1.13985
1.13925
1.13872
1.13798
1.1376
1.13709
1.13629
1.13607
1.13563
1.13442
1.13301
1.13158
1.13003
1.1285
1.12735
1.12649
1.12563
1.12415
1.12131
1.11862
1.11773
1.11767
1.11833
1.11973
1.12042
1.12071
1.12101
1.12114
1.12044
1.11783
1.11585
1.1157
1.11577
1.11504
1.11365
1.11205
1.11004
1.10741
1.10399
1.09893
1.09078
1.08236
1.07885
1.07742
1.07605
1.07548
1.07664
1.07675
1.07523
1.07363
1.07187
1.06916
1.06415
1.05751
1.05378
1.0524
1.0513
1.05014
1.04898
1.04784
1.04618
1.04276
1.03645
1.02811
1.02503
1.02443
1.02397
1.02363
1.02415
1.02454
1.02354
1.02205
1.0199
1.01583
1.00993
1.00589
1.00361
1.00129
0.999394
0.997759
0.996068
0.993928
0.991609
0.990409
0.989739
0.988779
0.987789
0.986955
0.985716
0.983353
0.98015
0.976276
0.972254
0.970203
0.969289
0.968988
0.968209
0.966814
0.965944
0.965461
0.964369
0.962244
0.958947
0.954895
0.951266
0.949334
0.948705
0.94843
0.948445
0.948674
0.947775
0.947094
0.946314
0.945414
0.943469
0.946257
0.973181
1.09505
1.36984
1.73868
2.12819
2.25671
2.24823
2.27837
2.33653
2.38603
2.39206
2.38229
2.35404
2.32402
2.31644
2.31885
2.33766
2.34384
2.33483
2.3179
2.3
2.29294
2.29397
2.30975
2.33687
2.38308
2.45813
2.48319
1.2183
1.2164
1.21306
1.20674
1.1995
1.19645
1.19452
1.1929
1.19289
1.19604
1.1967
1.19536
1.19458
1.19373
1.19217
1.18765
1.17616
1.16245
1.15792
1.15638
1.15461
1.15298
1.15176
1.1509
1.1503
1.14942
1.14784
1.14508
1.13929
1.12918
1.12135
1.11913
1.1182
1.11766
1.11867
1.1186
1.11823
1.11959
1.12294
1.13608
1.17492
1.23442
1.31078
1.33756
1.33747
1.32921
1.31852
1.31582
1.31126
1.3058
1.30451
1.30315
1.2996
1.29458
1.28739
1.27535
1.25496
1.2344
1.22626
1.22358
1.2218
1.22144
1.22719
1.24203
1.25197
1.25344
1.2532
1.25204
1.24763
1.23792
1.22006
1.20429
1.19819
1.19503
1.19301
1.19226
1.19534
1.20329
1.21137
1.21374
1.21281
1.21084
1.20677
1.19888
1.18657
1.1731
1.16739
1.16657
1.16744
1.16831
1.16977
1.17223
1.17323
1.17193
1.16937
1.16479
1.15586
1.14375
1.13899
1.13797
1.13733
1.13689
1.13663
1.13736
1.13946
1.14146
1.1433
1.14334
1.14254
1.14182
1.14144
1.14047
1.13923
1.1386
1.13792
1.13701
1.13668
1.13716
1.13659
1.13534
1.13396
1.13258
1.13129
1.12996
1.12824
1.12564
1.12158
1.11743
1.11587
1.1153
1.11511
1.11607
1.11781
1.11876
1.11906
1.11941
1.11961
1.11868
1.11717
1.11704
1.11704
1.11726
1.11723
1.11609
1.11458
1.11283
1.11058
1.10692
1.09939
1.08834
1.08241
1.08077
1.07938
1.07804
1.07785
1.07771
1.07616
1.07457
1.07301
1.0706
1.06625
1.06011
1.05651
1.05532
1.05433
1.05322
1.05203
1.05072
1.04927
1.04638
1.04041
1.0308
1.02657
1.02586
1.02544
1.02505
1.0249
1.02548
1.02525
1.02401
1.02226
1.01926
1.01407
1.00965
1.0075
1.00514
1.00233
0.999622
0.997157
0.99483
0.99293
0.992186
0.992002
0.991618
0.990861
0.990016
0.988709
0.986162
0.982303
0.976891
0.972753
0.971235
0.97059
0.970551
0.970941
0.970212
0.968952
0.967999
0.967114
0.965184
0.961295
0.956016
0.95232
0.950694
0.949913
0.949405
0.949058
0.949045
0.949377
0.948541
0.947981
0.947057
0.94897
0.966112
1.04577
1.27386
1.62224
2.00334
2.24224
2.29795
2.33117
2.35519
2.36487
2.37079
2.36898
2.3608
2.35182
2.34189
2.33392
2.33164
2.33458
2.33594
2.33203
2.32508
2.31609
2.30419
2.29723
2.29583
2.30357
2.31869
2.35307
2.41767
2.46564
1.2221
1.21932
1.21384
1.20652
1.20288
1.20094
1.19921
1.1985
1.20086
1.20185
1.20009
1.19893
1.19796
1.19672
1.19383
1.18496
1.17041
1.16354
1.16175
1.1598
1.15785
1.15611
1.15468
1.15358
1.15261
1.15124
1.14895
1.14453
1.13601
1.12664
1.12344
1.12244
1.12127
1.1204
1.12094
1.12009
1.1182
1.11828
1.12027
1.12575
1.14626
1.18905
1.25741
1.32135
1.33194
1.32963
1.33099
1.33335
1.32892
1.32001
1.31304
1.30655
1.29835
1.28802
1.27331
1.25543
1.24129
1.23421
1.2318
1.23045
1.23025
1.23596
1.25063
1.26022
1.26012
1.25886
1.25699
1.2527
1.24274
1.22242
1.20503
1.19952
1.19642
1.19417
1.1933
1.19801
1.20897
1.21679
1.21885
1.21827
1.21714
1.21347
1.20421
1.1896
1.17518
1.16921
1.16791
1.16852
1.16957
1.17072
1.17319
1.17525
1.17484
1.17287
1.1696
1.16308
1.15071
1.14135
1.13912
1.13829
1.13772
1.1374
1.1373
1.13819
1.1405
1.14318
1.14515
1.14494
1.14409
1.14336
1.14221
1.1402
1.13925
1.13866
1.138
1.13733
1.13793
1.13945
1.13912
1.13811
1.13712
1.13628
1.13519
1.13295
1.12884
1.12264
1.1163
1.11422
1.11368
1.11319
1.11312
1.11406
1.11624
1.11722
1.11749
1.11782
1.11796
1.11748
1.11778
1.11823
1.11828
1.11861
1.11943
1.11874
1.11737
1.11574
1.11335
1.10823
1.09781
1.0872
1.08411
1.08248
1.08088
1.07957
1.07876
1.07719
1.07561
1.07419
1.07212
1.06817
1.06235
1.05902
1.05797
1.05704
1.05612
1.0551
1.05389
1.05216
1.04939
1.04438
1.03467
1.02855
1.02749
1.02704
1.0267
1.02642
1.02665
1.02681
1.02578
1.02434
1.02205
1.01788
1.01289
1.01014
1.00803
1.00524
1.00181
0.998642
0.996172
0.994615
0.994033
0.993931
0.994176
0.993716
0.992931
0.991493
0.988768
0.984553
0.97793
0.973528
0.972357
0.971953
0.971909
0.972516
0.973076
0.972139
0.97103
0.969667
0.967492
0.964059
0.958139
0.953549
0.951937
0.951226
0.950743
0.950422
0.950137
0.950029
0.950152
0.949875
0.95023
0.961541
1.02541
1.20767
1.53497
1.94425
2.14022
2.23182
2.3336
2.40072
2.40933
2.40142
2.36796
2.34488
2.34031
2.34463
2.3583
2.36261
2.3561
2.33988
2.33104
2.32533
2.32137
2.32237
2.31996
2.30913
2.29694
2.29054
2.29032
2.29902
2.32615
2.38161
2.44699
1.22598
1.22142
1.21416
1.20965
1.2076
1.20577
1.2046
1.20572
1.20723
1.20543
1.20396
1.20296
1.20168
1.19944
1.19287
1.17887
1.16911
1.16679
1.16487
1.16284
1.1609
1.15908
1.15751
1.15614
1.15478
1.15299
1.15017
1.14474
1.13549
1.12872
1.12662
1.12502
1.12354
1.12227
1.12198
1.12138
1.11878
1.11775
1.11848
1.12149
1.13067
1.15546
1.2037
1.2747
1.31631
1.33297
1.34414
1.34632
1.34205
1.33124
1.31864
1.30739
1.29476
1.27557
1.25705
1.24602
1.23918
1.2365
1.23543
1.23745
1.24545
1.25857
1.26715
1.26708
1.26521
1.26225
1.25721
1.24674
1.22558
1.20792
1.20263
1.19976
1.19737
1.19634
1.20153
1.2153
1.22299
1.22336
1.22282
1.22202
1.21915
1.20944
1.19201
1.17874
1.17302
1.17071
1.17061
1.17143
1.17249
1.17423
1.17685
1.17724