/*--------------------------------*- C++ -*----------------------------------*\
  =========                 |
  \\      /  F ield         | OpenFOAM: The Open Source CFD Toolbox
   \\    /   O peration     | Website:  https://openfoam.org
    \\  /    A nd           | Version:  7
     \\/     M anipulation  |
\*---------------------------------------------------------------------------*/
FoamFile
{
    version     2.0;
    format      ascii;
    class       volScalarField;
    location    "0.5";
    object      p;
}
// * * * * * * * * * * * * * * * * * * * * * * * * * * * * * * * * * * * * * //

dimensions      [1 -1 -2 0 0 0 0];

internalField   nonuniform List<scalar> 
259072
(
1
1
1
1
1
1
1
1
1
1
1
1
1
1
1
1
1
1
1
1
1
1
1
1
1
1
1
1
1
1
1
1
1
1
1
1
1
1
1
1
1
1
1
1
1
1
1
1
1
1
1
1
1
1
1
1
1
1
1
1
1
1
1
1
1
1
1
1
1
1
1
1
1
1
1
1
1
1
1
1
1
1
1
1
1
1
1
1
1
1
1
1
1
1
1
1
1
1
1
1
1
1
1
1
1
1
1
1
1
1
1
1
1
1
1
1
1
1
1
1
1
1
1
1
1
1
1
1
1
1
1
1
1
1
1
1
1
1
1
1
1
1
1
1
1
1
1
1
1
3.54701
10.1128
10.8875
10.8989
10.9263
10.9329
10.9292
10.9564
11.0155
11.1064
11.2223
11.3344
11.4161
11.4698
11.4887
11.4797
11.4446
11.4107
11.4045
11.4326
11.5106
11.6088
11.7071
11.7936
11.8648
11.9216
11.9643
11.998
12.0314
12.063
12.0864
12.0927
12.0789
12.0445
12.0056
11.9944
12.0272
12.0826
12.1352
12.1715
12.1899
12.1954
12.1923
1
1
1
1
1
1
1
1
1
1
1
1
1
1
1
1
1
1
1
1
1
1
1
1
1
1
1
1
1
1
1
1
1
1
1
1
1
1
1
1
1
1
1
1
1
1
1
1
1
1
1
1
1
1
1
1
1
1
1
1
1
1
1
1
1
1
1
1
1
1
1
1
1
1
1
1
1
1
1
1
1
1
1
1
1
1
1
1
1
1
1
1
1
1
1
1
1
1
1
1
1
1
1
1
1
1
1
1
1
1
1
1
1
1
1
1
1
1
1
1
1
1
1
1
1
1
1
1
1
1
1
1
1
1
1
1
1
1
1
1
1
1
1
1
1
1
1
1
1
3.5095
10.1009
10.8726
10.8991
10.9264
10.9327
10.929
10.9517
11.0126
11.103
11.221
11.3307
11.4126
11.4656
11.4841
11.4759
11.4425
11.41
11.4044
11.4326
11.5109
11.6094
11.7085
11.7955
11.866
11.9211
11.9617
11.9938
12.0267
12.0583
12.0817
12.088
12.074
12.0402
12.0036
11.994
12.0256
12.0773
12.1271
12.1639
12.1854
12.1946
12.1952
1
1
1
1
1
1
1
1
1
1
1
1
1
1
1
1
1
1
1
1
1
1
1
1
1
1
1
1
1
1
1
1
1
1
1
1
1
1
1
1
1
1
1
1
1
1
1
1
1
1
1
1
1
1
1
1
1
1
1
1
1
1
1
1
1
1
1
1
1
1
1
1
1
1
1
1
1
1
1
1
1
1
1
1
1
1
1
1
1
1
1
1
1
1
1
1
1
1
1
1
1
1
1
1
1
1
1
1
1
1
1
1
1
1
1
1
1
1
1
1
1
1
1
1
1
1
1
1
1
1
1
1
1
1
1
1
1
1
1
1
1
1
1
1
1
1
1
1
1
3.42805
10.0819
10.8554
10.8926
10.9206
10.9299
10.9251
10.9432
11.0084
11.0974
11.2178
11.3253
11.4076
11.4591
11.4765
11.4692
11.4384
11.4079
11.403
11.4309
11.5091
11.6081
11.7089
11.7973
11.8679
11.9214
11.9596
11.9897
12.0212
12.0518
12.0741
12.0798
12.0661
12.0342
12.0013
11.9933
12.0216
12.0678
12.1151
12.1537
12.1793
12.1919
12.1965
1
1
1
1
1
1
1
1
1
1
1
1
1
1
1
1
1
1
1
1
1
1
1
1
1
1
1
1
1
1
1
1
1
1
1
1
1
1
1
1
1
1
1
1
1
1
1
1
1
1
1
1
1
1
1
1
1
1
1
1
1
1
1
1
1
1
1
1
1
1
1
1
1
1
1
1
1
1
1
1
1
1
1
1
1
1
1
1
1
1
1
1
1
1
1
1
1
1
1
1
1
1
1
1
1
1
1
1
1
1
1
1
1
1
1
1
1
1
1
1
1
1
1
1
1
1
1
1
1
1
1
1
1
1
1
1
1
1
1
1
1
1
1
1
1
1
1
1
1
3.31082
10.0342
10.8434
10.8843
10.9133
10.925
10.921
10.9344
11.0032
11.0901
11.2122
11.3182
11.4008
11.4506
11.4659
11.46
11.4329
11.405
11.4008
11.428
11.5057
11.6055
11.7081
11.7979
11.8686
11.9203
11.9561
11.9844
12.0144
12.0434
12.0639
12.0686
12.055
12.0253
11.9961
11.9897
12.0144
12.0554
12.1007
12.1414
12.1711
12.1872
12.1957
1
1
1
1
1
1
1
1
1
1
1
1
1
1
1
1
1
1
1
1
1
1
1
1
1
1
1
1
1
1
1
1
1
1
1
1
1
1
1
1
1
1
1
1
1
1
1
1
1
1
1
1
1
1
1
1
1
1
1
1
1
1
1
1
1
1
1
1
1
1
1
1
1
1
1
1
1
1
1
1
1
1
1
1
1
1
1
1
1
1
1
1
1
1
1
1
1
1
1
1
1
1
1
1
1
1
1
1
1
1
1
1
1
1
1
1
1
1
1
1
1
1
1
1
1
1
1
1
1
1
1
1
1
1
1
1
1
1
1
1
1
1
1
1
1
1
1
1
1
3.15882
9.94993
10.8379
10.8786
10.9078
10.9198
10.9168
10.9262
10.9965
11.0812
11.2044
11.3096
11.3921
11.4405
11.4539
11.4491
11.4259
11.4006
11.3971
11.4234
11.5004
11.6004
11.7047
11.7958
11.8667
11.9172
11.9511
11.9781
12.0068
12.034
12.0526
12.0558
12.0423
12.0143
11.9877
11.9821
12.004
12.0417
12.0864
12.1288
12.1614
12.1798
12.1912
1
1
1
1
1
1
1
1
1
1
1
1
1
1
1
1
1
1
1
1
1
1
1
1
1
1
1
1
1
1
1
1
1
1
1
1
1
1
1
1
1
1
1
1
1
1
1
1
1
1
1
1
1
1
1
1
1
1
1
1
1
1
1
1
1
1
1
1
1
1
1
1
1
1
1
1
1
1
1
1
1
1
1
1
1
1
1
1
1
1
1
1
1
1
1
1
1
1
1
1
1
1
1
1
1
1
1
1
1
1
1
1
1
1
1
1
1
1
1
1
1
1
1
1
1
1
1
1
1
1
1
1
1
1
1
1
1
1
1
1
1
1
1
1
1
1
1
1
1
2.97482
9.82744
10.8346
10.8732
10.903
10.913
10.9129
10.9194
10.9883
11.0706
11.195
11.3
11.3825
11.4301
11.4424
11.4381
11.4177
11.3941
11.3907
11.4162
11.4931
11.5933
11.699
11.7909
11.8616
11.911
11.9438
11.9701
11.9976
12.0235
12.0405
12.0423
12.0288
12.0015
11.9755
11.9694
11.9899
12.0274
12.0729
12.1165
12.1503
12.1692
12.1815
1
1
1
1
1
1
1
1
1
1
1
1
1
1
1
1
1
1
1
1
1
1
1
1
1
1
1
1
1
1
1
1
1
1
1
1
1
1
1
1
1
1
1
1
1
1
1
1
1
1
1
1
1
1
1
1
1
1
1
1
1
1
1
1
1
1
1
1
1
1
1
1
1
1
1
1
1
1
1
1
1
1
1
1
1
1
1
1
1
1
1
1
1
1
1
1
1
1
1
1
1
1
1
1
1
1
1
1
1
1
1
1
1
1
1
1
1
1
1
1
1
1
1
1
1
1
1
1
1
1
1
1
1
1
1
1
1
1
1
1
1
1
1
1
1
1
1
1
1
2.75907
9.66093
10.8337
10.8699
10.901
10.9053
10.9083
10.914
10.9786
11.0589
11.1847
11.2896
11.3717
11.4184
11.4304
11.4265
11.4074
11.3847
11.3808
11.4061
11.4841
11.5856
11.6925
11.7843
11.8538
11.9018
11.9335
11.9589
11.9851
12.0102
12.0267
12.0281
12.0148
11.9873
11.9597
11.9521
11.9723
12.0122
12.0597
12.1039
12.1371
12.1549
12.1664
1
1
1
1
1
1
1
1
1
1
1
1
1
1
1
1
1
1
1
1
1
1
1
1
1
1
1
1
1
1
1
1
1
1
1
1
1
1
1
1
1
1
1
1
1
1
1
1
1
1
1
1
1
1
1
1
1
1
1
1
1
1
1
1
1
1
1
1
1
1
1
1
1
1
1
1
1
1
1
1
1
1
1
1
1
1
1
1
1
1
1
1
1
1
1
1
1
1
1
1
1
1
1
1
1
1
1
1
1
1
1
1
1
1
1
1
1
1
1
1
1
1
1
1
1
1
1
1
1
1
1
1
1
1
1
1
1
1
1
1
1
1
1
1
1
1
1
1
1
2.51773
9.45503
10.8292
10.8628
10.8989
10.9002
10.8998
10.9089
10.9673
11.0455
11.1728
11.2776
11.3594
11.405
11.4179
11.4149
11.3962
11.3737
11.3683
11.3939
11.474
11.5773
11.6851
11.776
11.8437
11.8899
11.9203
11.9444
11.9691
11.9934
12.0101
12.0123
11.9998
11.9718
11.9413
11.9313
11.9521
11.9953
12.046
12.0902
12.1218
12.1371
12.1465
1
1
1
1
1
1
1
1
1
1
1
1
1
1
1
1
1
1
1
1
1
1
1
1
1
1
1
1
1
1
1
1
1
1
1
1
1
1
1
1
1
1
1
1
1
1
1
1
1
1
1
1
1
1
1
1
1
1
1
1
1
1
1
1
1
1
1
1
1
1
1
1
1
1
1
1
1
1
1
1
1
1
1
1
1
1
1
1
1
1
1
1
1
1
1
1
1
1
1
1
1
1
1
1
1
1
1
1
1
1
1
1
1
1
1
1
1
1
1
1
1
1
1
1
1
1
1
1
1
1
1
1
1
1
1
1
1
1
1
1
1
1
1
1
1
1
1
1
1
2.27396
9.21105
10.8086
10.8499
10.8947
10.8997
10.8907
10.9025
10.9541
11.0341
11.1602
11.2648
11.3453
11.3887
11.4035
11.4025
11.384
11.3604
11.3541
11.3817
11.4623
11.5676
11.6759
11.7656
11.8313
11.8759
11.9051
11.9277
11.9505
11.9731
11.9897
11.9933
11.9822
11.9542
11.9208
11.9083
11.9299
11.9766
12.03
12.0744
12.1038
12.1164
12.1234
1
1
1
1
1
1
1
1
1
1
1
1
1
1
1
1
1
1
1
1
1
1
1
1
1
1
1
1
1
1
1
1
1
1
1
1
1
1
1
1
1
1
1
1
1
1
1
1
1
1
1
1
1
1
1
1
1
1
1
1
1
1
1
1
1
1
1
1
1
1
1
1
1
1
1
1
1
1
1
1
1
1
1
1
1
1
1
1
1
1
1
1
1
1
1
1
1
1
1
1
1
1
1
1
1
1
1
1
1
1
1
1
1
1
1
1
1
1
1
1
1
1
1
1
1
1
1
1
1
1
1
1
1
1
1
1
1
1
1
1
1
1
1
1
1
1
1
1
1
2.03837
8.92353
10.7774
10.8316
10.8786
10.8903
10.8768
10.8932
10.9398
11.0256
11.1481
11.2501
11.3276
11.3681
11.3861
11.3885
11.3706
11.3463
11.3406
11.3712
11.4514
11.5563
11.6628
11.7503
11.8142
11.8583
11.888
11.9103
11.9312
11.9513
11.9665
11.9705
11.9607
11.9335
11.8983
11.8838
11.906
11.955
12.0101
12.0549
12.0831
12.0934
12.0983
1
1
1
1
1
1
1
1
1
1
1
1
1
1
1
1
1
1
1
1
1
1
1
1
1
1
1
1
1
1
1
1
1
1
1
1
1
1
1
1
1
1
1
1
1
1
1
1
1
1
1
1
1
1
1
1
1
1
1
1
1
1
1
1
1
1
1
1
1
1
1
1
1
1
1
1
1
1
1
1
1
1
1
1
1
1
1
1
1
1
1
1
1
1
1
1
1
1
1
1
1
1
1
1
1
1
1
1
1
1
1
1
1
1
1
1
1
1
1
1
1
1
1
1
1
1
1
1
1
1
1
1
1
1
1
1
1
1
1
1
1
1
1
1
1
1
1
1
1
1.80707
8.57226
10.7281
10.8135
10.8679
10.8761
10.8611
10.8795
10.922
11.0143
11.1349
11.2337
11.3067
11.3438
11.365
11.3714
11.3551
11.3319
11.3299
11.3647
11.4431
11.544
11.6449
11.7278
11.7897
11.8349
11.8679
11.8923
11.9125
11.9302
11.9425
11.9446
11.9345
11.9083
11.8728
11.8574
11.8799
11.9297
11.9858
12.0308
12.0591
12.0685
12.0724
1
1
1
1
1
1
1
1
1
1
1
1
1
1
1
1
1
1
1
1
1
1
1
1
1
1
1
1
1
1
1
1
1
1
1
1
1
1
1
1
1
1
1
1
1
1
1
1
1
1
1
1
1
1
1
1
1
1
1
1
1
1
1
1
1
1
1
1
1
1
1
1
1
1
1
1
1
1
1
1
1
1
1
1
1
1
1
1
1
1
1
1
1
1
1
1
1
1
1
1
1
1
1
1
1
1
1
1
1
1
1
1
1
1
1
1
1
1
1
1
1
1
1
1
1
1
1
1
1
1
1
1
1
1
1
1
1
1
1
1
1
1
1
1
1
1
1
1
1
1.56941
8.13738
10.6906
10.8048
10.8692
10.8688
10.8542
10.8689
10.9058
11.0003
11.1164
11.2122
11.2822
11.3175
11.3406
11.3502
11.3352
11.317
11.3225
11.3626
11.4381
11.532
11.6237
11.6988
11.7569
11.8036
11.842
11.8715
11.8932
11.91
11.9199
11.9183
11.9053
11.8789
11.844
11.8283
11.8507
11.9003
11.9567
12.0024
12.0313
12.0412
12.0451
1
1
1
1
1
1
1
1
1
1
1
1
1
1
1
1
1
1
1
1
1
1
1
1
1
1
1
1
1
1
1
1
1
1
1
1
1
1
1
1
1
1
1
1
1
1
1
1
1
1
1
1
1
1
1
1
1
1
1
1
1
1
1
1
1
1
1
1
1
1
1
1
1
1
1
1
1
1
1
1
1
1
1
1
1
1
1
1
1
1
1
1
1
1
1
1
1
1
1
1
1
1
1
1
1
1
1
1
1
1
1
1
1
1
1
1
1
1
1
1
1
1
1
1
1
1
1
1
1
1
1
1
1
1
1
1
1
1
1
1
1
1
1
1
1
1
1
1
1
1.30072
7.57088
10.6798
10.8238
10.8742
10.8721
10.8573
10.8608
10.888
10.9788
11.0883
11.1852
11.2557
11.2914
11.3137
11.324
11.3096
11.3011
11.317
11.3622
11.4336
11.5191
11.6005
11.6663
11.7189
11.7652
11.8083
11.8446
11.8704
11.8888
11.898
11.8931
11.8756
11.8467
11.8116
11.7955
11.8172
11.8664
11.923
11.9697
12.0001
12.0114
12.0162
1
1
1
1
1
1
1
1
1
1
1
1
1
1
1
1
1
1
1
1
1
1
1
1
1
1
1
1
1
1
1
1
1
1
1
1
1
1
1
1
1
1
1
1
1
1
1
1
1
1
1
1
1
1
1
1
1
1
1
1
1
1
1
1
1
1
1
1
1
1
1
1
1
1
1
1
1
1
1
1
1
1
1
1
1
1
1
1
1
1
1
1
1
1
1
1
1
1
1
1
1
1
1
1
1
1
1
1
1
1
1
1
1
1
1
1
1
1
1
1
1
1
1
1
1
1
1
1
1
1
1
1
1
1
1
1
1
1
1
1
1
1
1
1
1
1
1
1
1
1.03017
6.8773
10.7076
10.8482
10.8652
10.862
10.8495
10.8502
10.8747
10.9547
11.0554
11.1556
11.2282
11.2668
11.2874
11.2967
11.2811
11.2851
11.3106
11.359
11.4251
11.5029
11.5758
11.6344
11.6817
11.7249
11.7681
11.8081
11.8398
11.8632
11.8745
11.8687
11.8472
11.8143
11.7771
11.7592
11.7795
11.8282
11.8851
11.9329
11.9648
11.9776
11.9836
1
1
1
1
1
1
1
1
1
1
1
1
1
1
1
1
1
1
1
1
1
1
1
1
1
1
1
1
1
1
1
1
1
1
1
1
1
1
1
1
1
1
1
1
1
1
1
1
1
1
1
1
1
1
1
1
1
1
1
1
1
1
1
1
1
1
1
1
1
1
1
1
1
1
1
1
1
1
1
1
1
1
1
1
1
1
1
1
1
1
1
1
1
1
1
1
1
1
1
1
1
1
1
1
1
1
1
1
1
1
1
1
1
1
1
1
1
1
1
1
1
1
1
1
1
1
1
1
1
1
1
1
1
1
1
1
1
1
1
1
1
1
1
1
1
1
1
1
1
1.00024
6.07068
10.6335
10.8264
10.8546
10.8595
10.8461
10.8411
10.855
10.9226
11.0194
11.1231
11.1977
11.2413
11.2626
11.272
11.2583
11.2696
11.3005
11.3468
11.4071
11.4792
11.5485
11.6046
11.6493
11.688
11.7259
11.7638
11.7995
11.8292
11.8458
11.8426
11.8196
11.7829
11.7418
11.7201
11.7375
11.7857
11.8433
11.8922
11.9252
11.939
11.9461
1
1
1
1
1
1
1
1
1
1
1
1
1
1
1
1
1
1
1
1
1
1
1
1
1
1
1
1
1
1
1
1
1
1
1
1
1
1
1
1
1
1
1
1
1
1
1
1
1
1
1
1
1
1
1
1
1
1
1
1
1
1
1
1
1
1
1
1
1
1
1
1
1
1
1
1
1
1
1
1
1
1
1
1
1
1
1
1
1
1
1
1
1
1
1
1
1
1
1
1
1
1
1
1
1
1
1
1
1
1
1
1
1
1
1
1
1
1
1
1
1
1
1
1
1
1
1
1
1
1
1
1
1
1
1
1
1
1
1
1
1
1
1
1
1
1
1
1
1
1
5.23969
10.5162
10.7981
10.8364
10.851
10.8359
10.8241
10.8312
10.891
10.9855
11.0879
11.1649
11.2155
11.2431
11.2538
11.2471
11.2589
11.287
11.3242
11.3761
11.4442
11.5157
11.5753
11.6212
11.6562
11.6866
11.7176
11.7517
11.7852
11.8088
11.8115
11.7905
11.7519
11.7064
11.6795
11.6927
11.7398
11.7976
11.8474
11.8807
11.8943
11.9018
1
1
1
1
1
1
1
1
1
1
1
1
1
1
1
1
1
1
1
1
1
1
1
1
1
1
1
1
1
1
1
1
1
1
1
1
1
1
1
1
1
1
1
1
1
1
1
1
1
1
1
1
1
1
1
1
1
1
1
1
1
1
1
1
1
1
1
1
1
1
1
1
1
1
1
1
1
1
1
1
1
1
1
1
1
1
1
1
1
1
1
1
1
1
1
1
1
1
1
1
1
1
1
1
1
1
1
1
1
1
1
1
1
1
1
1
1
1
1
1
1
1
1
1
1
1
1
1
1
1
1
1
1
1
1
1
1
1
1
1
1
1
1
1
1
1
1
1
1
1
4.43202
10.3141
10.7672
10.8164
10.8304
10.8154
10.7993
10.804
10.8599
10.9535
11.0519
11.1298
11.1878
11.2257
11.2426
11.2459
11.2538
11.2701
11.2918
11.3334
11.3983
11.4756
11.5431
11.5934
11.6275
11.6521
11.6747
11.702
11.7339
11.7623
11.7717
11.7561
11.7187
11.6703
11.638
11.6458
11.6902
11.7478
11.7984
11.8315
11.8437
11.8508
1
1
1
1
1
1
1
1
1
1
1
1
1
1
1
1
1
1
1
1
1
1
1
1
1
1
1
1
1
1
1
1
1
1
1
1
1
1
1
1
1
1
1
1
1
1
1
1
1
1
1
1
1
1
1
1
1
1
1
1
1
1
1
1
1
1
1
1
1
1
1
1
1
1
1
1
1
1
1
1
1
1
1
1
1
1
1
1
1
1
1
1
1
1
1
1
1
1
1
1
1
1
1
1
1
1
1
1
1
1
1
1
1
1
1
1
1
1
1
1
1
1
1
1
1
1
1
1
1
1
1
1
1
1
1
1
1
1
1
1
1
1
1
1
1
1
1
1
1
1
3.67702
10.0253
10.7245
10.7866
10.8033
10.7895
10.7726
10.7762
10.8302
10.9243
11.0183
11.0931
11.1582
11.206
11.235
11.2465
11.249
11.2482
11.2529
11.2839
11.3461
11.4276
11.5035
11.5602
11.5967
11.6187
11.635
11.6541
11.6803
11.7084
11.7229
11.7143
11.6815
11.6331
11.5963
11.5974
11.6369
11.6928
11.7439
11.7765
11.7865
11.7924
1
1
1
1
1
1
1
1
1
1
1
1
1
1
1
1
1
1
1
1
1
1
1
1
1
1
1
1
1
1
1
1
1
1
1
1
1
1
1
1
1
1
1
1
1
1
1
1
1
1
1
1
1
1
1
1
1
1
1
1
1
1
1
1
1
1
1
1
1
1
1
1
1
1
1
1
1
1
1
1
1
1
1
1
1
1
1
1
1
1
1
1
1
1
1
1
1
1
1
1
1
1
1
1
1
1
1
1
1
1
1
1
1
1
1
1
1
1
1
1
1
1
1
1
1
1
1
1
1
1
1
1
1
1
1
1
1
1
1
1
1
1
1
1
1
1
1
1
1
1
2.9877
9.62209
10.694
10.7537
10.7717
10.7612
10.7477
10.7498
10.8013
10.895
10.9879
11.0634
11.1306
11.1834
11.2251
11.2434
11.2412
11.2233
11.2121
11.2318
11.2918
11.3736
11.456
11.5192
11.5597
11.5825
11.5957
11.6083
11.6268
11.6506
11.6668
11.6641
11.6375
11.5926
11.5527
11.546
11.5779
11.6309
11.6825
11.7154
11.724
11.7292
1
1
1
1
1
1
1
1
1
1
1
1
1
1
1
1
1
1
1
1
1
1
1
1
1
1
1
1
1
1
1
1
1
1
1
1
1
1
1
1
1
1
1
1
1
1
1
1
1
1
1
1
1
1
1
1
1
1
1
1
1
1
1
1
1
1
1
1
1
1
1
1
1
1
1
1
1
1
1
1
1
1
1
1
1
1
1
1
1
1
1
1
1
1
1
1
1
1
1
1
1
1
1
1
1
1
1
1
1
1
1
1
1
1
1
1
1
1
1
1
1
1
1
1
1
1
1
1
1
1
1
1
1
1
1
1
1
1
1
1
1
1
1
1
1
1
1
1
1
1
2.34362
9.07839
10.6796
10.7334
10.7472
10.7338
10.7226
10.7265
10.7797
10.8699
10.9643
11.0414
11.1066
11.1625
11.2101
11.232
11.2225
11.1929
11.1701
11.1786
11.2389
11.3186
11.4049
11.4719
11.5147
11.54
11.5533
11.5614
11.5727
11.5891
11.6047
11.606
11.5868
11.5488
11.5074
11.4919
11.5135
11.5609
11.6121
11.6463
11.655
11.6606
1
1
1
1
1
1
1
1
1
1
1
1
1
1
1
1
1
1
1
1
1
1
1
1
1
1
1
1
1
1
1
1
1
1
1
1
1
1
1
1
1
1
1
1
1
1
1
1
1
1
1
1
1
1
1
1
1
1
1
1
1
1
1
1
1
1
1
1
1
1
1
1
1
1
1
1
1
1
1
1
1
1
1
1
1
1
1
1
1
1
1
1
1
1
1
1
1
1
1
1
1
1
1
1
1
1
1
1
1
1
1
1
1
1
1
1
1
1
1
1
1
1
1
1
1
1
1
1
1
1
1
1
1
1
1
1
1
1
1
1
1
1
1
1
1
1
1
1
1
1
1.75113
8.44295
10.7016
10.7041
10.722
10.7114
10.6994
10.7087
10.7649
10.8536
10.9516
11.0309
11.0891
11.1389
11.1823
11.2032
11.1935
11.1583
11.1306
11.1314
11.1877
11.2641
11.3515
11.4203
11.4639
11.4913
11.5056
11.51
11.5154
11.5238
11.5362
11.5409
11.5298
11.5008
11.4585
11.4333
11.4419
11.4811
11.5309
11.5679
11.5799
11.5881
1
1
1
1
1
1
1
1
1
1
1
1
1
1
1
1
1
1
1
1
1
1
1
1
1
1
1
1
1
1
1
1
1
1
1
1
1
1
1
1
1
1
1
1
1
1
1
1
1
1
1
1
1
1
1
1
1
1
1
1
1
1
1
1
1
1
1
1
1
1
1
1
1
1
1
1
1
1
1
1
1
1
1
1
1
1
1
1
1
1
1
1
1
1
1
1
1
1
1
1
1
1
1
1
1
1
1
1
1
1
1
1
1
1
1
1
1
1
1
1
1
1
1
1
1
1
1
1
1
1
1
1
1
1
1
1
1
1
1
1
1
1
1
1
1
1
1
1
1
1
1.27222
7.64392
10.724
10.6969
10.7087
10.7019
10.6839
10.6921
10.7401
10.8237
10.9268
11.009
11.0623
11.1063
11.1447
11.1639
11.1592
11.1236
11.0929
11.0888
11.1358
11.2076
11.2946
11.3649
11.4098
11.4387
11.4529
11.4533
11.4518
11.4521
11.4604
11.469
11.4667
11.4477
11.4061
11.371
11.3645
11.3925
11.4385
11.4781
11.4951
11.5078
1
1
1
1
1
1
1
1
1
1
1
1
1
1
1
1
1
1
1
1
1
1
1
1
1
1
1
1
1
1
1
1
1
1
1
1
1
1
1
1
1
1
1
1
1
1
1
1
1
1
1
1
1
1
1
1
1
1
1
1
1
1
1
1
1
1
1
1
1
1
1
1
1
1
1
1
1
1
1
1
1
1
1
1
1
1
1
1
1
1
1
1
1
1
1
1
1
1
1
1
1
1
1
1
1
1
1
1
1
1
1
1
1
1
1
1
1
1
1
1
1
1
1
1
1
1
1
1
1
1
1
1
1
1
1
1
1
1
1
1
1
1
1
1
1
1
1
1
1
1
1.01218
6.73461
10.5903
10.631
10.667
10.667
10.6465
10.6594
10.7077
10.7888
10.899
10.9874
11.0366
11.0741
11.1015
11.1186
11.1186
11.0882
11.0559
11.0491
11.0838
11.148
11.232
11.3035
11.3518
11.383
11.3963
11.3918
11.3825
11.3744
11.3777
11.3897
11.3959
11.3863
11.3463
11.301
11.2788
11.2936
11.3345
11.377
11.4004
11.4192
1
1
1
1
1
1
1
1
1
1
1
1
1
1
1
1
1
1
1
1
1
1
1
1
1
1
1
1
1
1
1
1
1
1
1
1
1
1
1
1
1
1
1
1
1
1
1
1
1
1
1
1
1
1
1
1
1
1
1
1
1
1
1
1
1
1
1
1
1
1
1
1
1
1
1
1
1
1
1
1
1
1
1
1
1
1
1
1
1
1
1
1
1
1
1
1
1
1
1
1
1
1
1
1
1
1
1
1
1
1
1
1
1
1
1
1
1
1
1
1
1
1
1
1
1
1
1
1
1
1
1
1
1
1
1
1
1
1
1
1
1
1
1
1
1
1
1
1
1
1
1.00007
5.67193
10.3987
10.5995
10.6497
10.6514
10.6311
10.6336
10.6634
10.7399
10.8556
10.954
11.0053
11.0402
11.059
11.0738
11.0745
11.0502
11.018
11.0095
11.0336
11.0852
11.164
11.2361
11.2892
11.3236
11.3366
11.3278
11.3102
11.2929
11.2903
11.3026
11.3161
11.3146
11.2769
11.2237
11.1872
11.188
11.2208
11.2627
11.2899
11.3137
1
1
1
1
1
1
1
1
1
1
1
1
1
1
1
1
1
1
1
1
1
1
1
1
1
1
1
1
1
1
1
1
1
1
1
1
1
1
1
1
1
1
1
1
1
1
1
1
1
1
1
1
1
1
1
1
1
1
1
1
1
1
1
1
1
1
1
1
1
1
1
1
1
1
1
1
1
1
1
1
1
1
1
1
1
1
1
1
1
1
1
1
1
1
1
1
1
1
1
1
1
1
1
1
1
1
1
1
1
1
1
1
1
1
1
1
1
1
1
1
1
1
1
1
1
1
1
1
1
1
1
1
1
1
1
1
1
1
1
1
1
1
1
1
1
1
1
1
1
1
1
4.59147
10.0571
10.56
10.6346
10.6332
10.6082
10.6019
10.6191
10.6865
10.8015
10.9127
10.9725
11.0082
11.023
11.035
11.035
11.0131
10.9811
10.9686
10.9833
11.0212
11.0915
11.1625
11.22
11.2576
11.2717
11.2604
11.2359
11.2109
11.2013
11.2094
11.2254
11.2281
11.1929
11.133
11.0835
11.0708
11.0945
11.1344
11.164
11.1918
1
1
1
1
1
1
1
1
1
1
1
1
1
1
1
1
1
1
1
1
1
1
1
1
1
1
1
1
1
1
1
1
1
1
1
1
1
1
1
1
1
1
1
1
1
1
1
1
1
1
1
1
1
1
1
1
1
1
1
1
1
1
1
1
1
1
1
1
1
1
1
1
1
1
1
1
1
1
1
1
1
1
1
1
1
1
1
1
1
1
1
1
1
1
1
1
1
1
1
1
1
1
1
1
1
1
1
1
1
1
1
1
1
1
1
1
1
1
1
1
1
1
1
1
1
1
1
1
1
1
1
1
1
1
1
1
1
1
1
1
1
1
1
1
1
1
1
1
1
1
1
3.55489
9.59378
10.4973
10.6155
10.6473
10.6241
10.5929
10.5871
10.6337
10.7377
10.8545
10.9226
10.9635
10.9841
10.9999
11.0024
10.9808
10.9469
10.9274
10.9299
10.9561
11.0181
11.0875
11.1461
11.1843
11.1987
11.1871
11.1593
11.1294
11.1132
11.1126
11.1235
11.126
11.0931
11.0295
10.9707
10.9454
10.9571
10.9887
11.0139
11.0399
1
1
1
1
1
1
1
1
1
1
1
1
1
1
1
1
1
1
1
1
1
1
1
1
1
1
1
1
1
1
1
1
1
1
1
1
1
1
1
1
1
1
1
1
1
1
1
1
1
1
1
1
1
1
1
1
1
1
1
1
1
1
1
1
1
1
1
1
1
1
1
1
1
1
1
1
1
1
1
1
1
1
1
1
1
1
1
1
1
1
1
1
1
1
1
1
1
1
1
1
1
1
1
1
1
1
1
1
1
1
1
1
1
1
1
1
1
1
1
1
1
1
1
1
1
1
1
1
1
1
1
1
1
1
1
1
1
1
1
1
1
1
1
1
1
1
1
1
1
1
1
2.48349
8.93893
10.5814
10.5937
10.6229
10.6067
10.5734
10.5554
10.5813
10.6694
10.7852
10.8637
10.915
10.9467
10.971
10.9732
10.9458
10.9059
10.8773
10.8713
10.8908
10.947
11.0127
11.0668
11.1012
11.1141
11.1042
11.0786
11.0476
11.0246
11.0135
11.0132
11.0097
10.9751
10.9068
10.8378
10.7977
10.7956
10.8181
10.839
10.8643
1
1
1
1
1
1
1
1
1
1
1
1
1
1
1
1
1
1
1
1
1
1
1
1
1
1
1
1
1
1
1
1
1
1
1
1
1
1
1
1
1
1
1
1
1
1
1
1
1
1
1
1
1
1
1
1
1
1
1
1
1
1
1
1
1
1
1
1
1
1
1
1
1
1
1
1
1
1
1
1
1
1
1
1
1
1
1
1
1
1
1
1
1
1
1
1
1
1
1
1
1
1
1
1
1
1
1
1
1
1
1
1
1
1
1
1
1
1
1
1
1
1
1
1
1
1
1
1
1
1
1
1
1
1
1
1
1
1
1
1
1
1
1
1
1
1
1
1
1
1
1
1.537
8.14898
10.7044
10.6327
10.6266
10.606
10.5776
10.5629
10.5756
10.6388
10.7385
10.8113
10.8569
10.8861
10.9142
10.9192
10.8961
10.8568
10.8224
10.8126
10.8282
10.8791
10.939
10.9838
11.0106
11.0188
11.0106
10.991
10.9624
10.9336
10.9101
10.8963
10.88
10.8402
10.768
10.6892
10.6347
10.615
10.6187
10.6233
10.6343
1
1
1
1
1
1
1
1
1
1
1
1
1
1
1
1
1
1
1
1
1
1
1
1
1
1
1
1
1
1
1
1
1
1
1
1
1
1
1
1
1
1
1
1
1
1
1
1
1
1
1
1
1
1
1
1
1
1
1
1
1
1
1
1
1
1
1
1
1
1
1
1
1
1
1
1
1
1
1
1
1
1
1
1
1
1
1
1
1
1
1
1
1
1
1
1
1
1
1
1
1
1
1
1
1
1
1
1
1
1
1
1
1
1
1
1
1
1
1
1
1
1
1
1
1
1
1
1
1
1
1
1
1
1
1
1
1
1
1
1
1
1
1
1
1
1
1
1
1
1
1
1.03395
7.11965
10.5354
10.4911
10.5452
10.548
10.5285
10.5139
10.5219
10.5739
10.6693
10.7481
10.8005
10.8343
10.8654
10.8695
10.847
10.8062
10.7635
10.75
10.7635
10.8097
10.864
10.8989
10.9164
10.917
10.9089
10.8948
10.8697
10.8359
10.8001
10.7706
10.7393
10.6915
10.6117
10.5157
10.4344
10.3825
10.362
10.3522
10.3628
1
1
1
1
1
1
1
1
1
1
1
1
1
1
1
1
1
1
1
1
1
1
1
1
1
1
1
1
1
1
1
1
1
1
1
1
1
1
1
1
1
1
1
1
1
1
1
1
1
1
1
1
1
1
1
1
1
1
1
1
1
1
1
1
1
1
1
1
1
1
1
1
1
1
1
1
1
1
1
1
1
1
1
1
1
1
1
1
1
1
1
1
1
1
1
1
1
1
1
1
1
1
1
1
1
1
1
1
1
1
1
1
1
1
1
1
1
1
1
1
1
1
1
1
1
1
1
1
1
1
1
1
1
1
1
1
1
1
1
1
1
1
1
1
1
1
1
1
1
1
1
1.00018
5.71336
10.1857
10.4156
10.516
10.5299
10.5147
10.4953
10.4978
10.5369
10.6211
10.6975
10.7495
10.784
10.8145
10.8182
10.7979
10.7556
10.7045
10.6851
10.696
10.7356
10.783
10.8126
10.8222
10.815
10.8037
10.7908
10.7665
10.7274
10.6798
10.6337
10.5874
10.5282
10.4365
10.3207
10.2101
10.125
10.0674
10.0112
9.96089
1
1
1
1
1
1
1
1
1
1
1
1
1
1
1
1
1
1
1
1
1
1
1
1
1
1
1
1
1
1
1
1
1
1
1
1
1
1
1
1
1
1
1
1
1
1
1
1
1
1
1
1
1
1
1
1
1
1
1
1
1
1
1
1
1
1
1
1
1
1
1
1
1
1
1
1
1
1
1
1
1
1
1
1
1
1
1
1
1
1
1
1
1
1
1
1
1
1
1
1
1
1
1
1
1
1
1
1
1
1
1
1
1
1
1
1
1
1
1
1
1
1
1
1
1
1
1
1
1
1
1
1
1
1
1
1
1
1
1
1
1
1
1
1
1
1
1
1
1
1
1
1
4.36926
9.8396
10.3931
10.4886
10.5286
10.5101
10.4784
10.4741
10.4999
10.5697
10.6438
10.6961
10.7322
10.7625
10.7668
10.7506
10.7095
10.6521
10.6225
10.6243
10.6532
10.693
10.7213
10.7284
10.7162
10.6989
10.6821
10.6542
10.6077
10.5477
10.4842
10.4219
10.3495
10.2453
10.1047
9.94644
9.78894
9.63661
9.49769
9.40247
1
1
1
1
1
1
1
1
1
1
1
1
1
1
1
1
1
1
1
1
1
1
1
1
1
1
1
1
1
1
1
1
1
1
1
1
1
1
1
1
1
1
1
1
1
1
1
1
1
1
1
1
1
1
1
1
1
1
1
1
1
1
1
1
1
1
1
1
1
1
1
1
1
1
1
1
1
1
1
1
1
1
1
1
1
1
1
1
1
1
1
1
1
1
1
1
1
1
1
1
1
1
1
1
1
1
1
1
1
1
1
1
1
1
1
1
1
1
1
1
1
1
1
1
1
1
1
1
1
1
1
1
1
1
1
1
1
1
1
1
1
1
1
1
1
1
1
1
1
1
1
1
3.0164
9.22351
10.4266
10.472
10.4922
10.4756
10.4447
10.4363
10.4546
10.5142
10.5874
10.6412
10.6781
10.7066
10.712
10.7011
10.6635
10.6014
10.5558
10.5451
10.5636
10.5984
10.6269
10.6337
10.6193
10.5954
10.5717
10.536
10.4782
10.4037
10.3216
10.2418
10.1551
10.0362
9.86157
9.647
9.42076
9.16879
8.89511
8.73356
1
1
1
1
1
1
1
1
1
1
1
1
1
1
1
1
1
1
1
1
1
1
1
1
1
1
1
1
1
1
1
1
1
1
1
1
1
1
1
1
1
1
1
1
1
1
1
1
1
1
1
1
1
1
1
1
1
1
1
1
1
1
1
1
1
1
1
1
1
1
1
1
1
1
1
1
1
1
1
1
1
1
1
1
1
1
1
1
1
1
1
1
1
1
1
1
1
1
1
1
1
1
1
1
1
1
1
1
1
1
1
1
1
1
1
1
1
1
1
1
1
1
1
1
1
1
1
1
1
1
1
1
1
1
1
1
1
1
1
1
1
1
1
1
1
1
1
1
1
1
1
1
1.78974
8.44417
10.5264
10.4489
10.4515
10.4338
10.3997
10.3789
10.3896
10.4416
10.5165
10.577
10.6193
10.648
10.6535
10.6437
10.6093
10.5486
10.4931
10.4679
10.4731
10.4994
10.5259
10.5369
10.5252
10.4962
10.4633
10.4144
10.3428
10.2514
10.1497
10.0498
9.94486
9.80718
9.60053
9.32866
8.99055
8.51622
7.57237
5.74088
1
1
1
1
1
1
1
1
1
1
1
1
1
1
1
1
1
1
1
1
1
1
1
1
1
1
1
1
1
1
1
1
1
1
1
1
1
1
1
1
1
1
1
1
1
1
1
1
1
1
1
1
1
1
1
1
1
1
1
1
1
1
1
1
1
1
1
1
1
1
1
1
1
1
1
1
1
1
1
1
1
1
1
1
1
1
1
1
1
1
1
1
1
1
1
1
1
1
1
1
1
1
1
1
1
1
1
1
1
1
1
1
1
1
1
1
1
1
1
1
1
1
1
1
1
1
1
1
1
1
1
1
1
1
1
1
1
1
1
1
1
1
1
1
1
1
1
1
1
1
1
1
1.06481
7.22139
10.4688
10.3913
10.4044
10.3966
10.3626
10.327
10.3298
10.3688
10.4394
10.5047
10.5544
10.5864
10.5948
10.5863
10.5563
10.4965
10.4297
10.3855
10.3772
10.3974
10.423
10.4391
10.4304
10.3983
10.3556
10.2913
10.205
10.0955
9.97364
9.85164
9.72309
9.56192
9.32054
8.98614
8.51294
7.87147
6.77844
4.97488
1
1
1
1
1
1
1
1
1
1
1
1
1
1
1
1
1
1
1
1
1
1
1
1
1
1
1
1
1
1
1
1
1
1
1
1
1
1
1
1
1
1
1
1
1
1
1
1
1
1
1
1
1
1
1
1
1
1
1
1
1
1
1
1
1
1
1
1
1
1
1
1
1
1
1
1
1
1
1
1
1
1
1
1
1
1
1
1
1
1
1
1
1
1
1
1
1
1
1
1
1
1
1
1
1
1
1
1
1
1
1
1
1
1
1
1
1
1
1
1
1
1
1
1
1
1
1
1
1
1
1
1
1
1
1
1
1
1
1
1
1
1
1
1
1
1
1
1
1
1
1
1
1.00047
5.55591
10.0118
10.3138
10.3882
10.3778
10.3314
10.283
10.2769
10.3029
10.366
10.4365
10.4942
10.5287
10.5378
10.528
10.497
10.4368
10.366
10.3083
10.2852
10.2947
10.3157
10.3347
10.3285
10.297
10.2458
10.1678
10.0663
9.94028
9.79926
9.65474
9.49804
9.30908
9.03297
8.65952
8.12059
7.3951
6.22003
4.76442
1
1
1
1
1
1
1
1
1
1
1
1
1
1
1
1
1
1
1
1
1
1
1
1
1
1
1
1
1
1
1
1
1
1
1
1
1
1
1
1
1
1
1
1
1
1
1
1
1
1
1
1
1
1
1
1
1
1
1
1
1
1
1
1
1
1
1
1
1
1
1
1
1
1
1
1
1
1
1
1
1
1
1
1
1
1
1
1
1
1
1
1
1
1
1
1
1
1
1
1
1
1
1
1
1
1
1
1
1
1
1
1
1
1
1
1
1
1
1
1
1
1
1
1
1
1
1
1
1
1
1
1
1
1
1
1
1
1
1
1
1
1
1
1
1
1
1
1
1
1
1
1
0.999999
3.97178
9.59644
10.2827
10.354
10.3589
10.3275
10.2686
10.2444
10.2517
10.2998
10.371
10.4341
10.4702
10.4803
10.4708
10.4397
10.3819
10.3115
10.2427
10.2025
10.1952
10.2062
10.2226
10.2171
10.1869
10.129
10.0408
9.92633
9.78809
9.63104
9.4652
9.27966
9.05948
8.75697
8.35028
7.80017
7.0038
5.92765
4.7144
1
1
1
1
1
1
1
1
1
1
1
1
1
1
1
1
1
1
1
1
1
1
1
1
1
1
1
1
1
1
1
1
1
1
1
1
1
1
1
1
1
1
1
1
1
1
1
1
1
1
1
1
1
1
1
1
1
1
1
1
1
1
1
1
1
1
1
1
1
1
1
1
1
1
1
1
1
1
1
1
1
1
1
1
1
1
1
1
1
1
1
1
1
1
1
1
1
1
1
1
1
1
1
1
1
1
1
1
1
1
1
1
1
1
1
1
1
1
1
1
1
1
1
1
1
1
1
1
1
1
1
1
1
1
1
1
1
1
1
1
1
1
1
1
1
1
1
1
1
1
1
1
1
2.45662
8.89175
10.2858
10.3128
10.3335
10.3157
10.2545
10.2117
10.205
10.2377
10.3059
10.3725
10.4105
10.4199
10.4085
10.378
10.3267
10.2623
10.1878
10.1305
10.1021
10.0978
10.1051
10.0977
10.0674
10.0043
9.90769
9.78374
9.63865
9.47099
9.28738
9.07594
8.82307
8.49945
8.07403
7.53078
6.74478
5.80255
4.76101
1
1
1
1
1
1
1
1
1
1
1
1
1
1
1
1
1
1
1
1
1
1
1
1
1
1
1
1
1
1
1
1
1
1
1
1
1
1
1
1
1
1
1
1
1
1
1
1
1
1
1
1
1
1
1
1
1
1
1
1
1
1
1
1
1
1
1
1
1
1
1
1
1
1
1
1
1
1
1
1
1
1
1
1
1
1
1
1
1
1
1
1
1
1
1
1
1
1
1
1
1
1
1
1
1
1
1
1
1
1
1
1
1
1
1
1
1
1
1
1
1
1
1
1
1
1
1
1
1
1
1
1
1
1
1
1
1
1
1
1
1
1
1
1
1
1
1
1
1
1
1
1
1
1.27686
7.67099
10.3464
10.3066
10.3072
10.2923
10.2311
10.1743
10.1601
10.1803
10.2392
10.3033
10.3405
10.3501
10.3386
10.3124
10.2709
10.2156
10.1408
10.0696
10.0206
9.99487
9.98741
9.97574
9.94309
9.87359
9.76858
9.63813
9.49038
9.3186
9.12352
8.89143
8.61056
8.2689
7.84065
7.30599
6.58298
5.7559
4.86635
1
1
1
1
1
1
1
1
1
1
1
1
1
1
1
1
1
1
1
1
1
1
1
1
1
1
1
1
1
1
1
1
1
1
1
1
1
1
1
1
1
1
1
1
1
1
1
1
1
1
1
1
1
1
1
1
1
1
1
1
1
1
1
1
1
1
1
1
1
1
1
1
1
1
1
1
1
1
1
1
1
1
1
1
1
1
1
1
1
1
1
1
1
1
1
1
1
1
1
1
1
1
1
1
1
1
1
1
1
1
1
1
1
1
1
1
1
1
1
1
1
1
1
1
1
1
1
1
1
1
1
1
1
1
1
1
1
1
1
1
1
1
1
1
1
1
1
1
1
1
1
1
1
1.00765
6.01305
9.93062
10.1727
10.248
10.2401
10.1891
10.129
10.1131
10.1287
10.1753
10.2331
10.2678
10.2767
10.2642
10.2415
10.2081
10.1617
10.0919
10.0144
9.94716
9.90081
9.87516
9.85474
9.81552
9.73845
9.62674
9.492
9.34313
9.17197
8.97174
8.7251
8.42555
8.07121
7.64323
7.12819
6.48268
5.75049
4.95866
1
1
1
1
1
1
1
1
1
1
1
1
1
1
1
1
1
1
1
1
1
1
1
1
1
1
1
1
1
1
1
1
1
1
1
1
1
1
1
1
1
1
1
1
1
1
1
1
1
1
1
1
1
1
1
1
1
1
1
1
1
1
1
1
1
1
1
1
1
1
1
1
1
1
1
1
1
1
1
1
1
1
1
1
1
1
1
1
1
1
1
1
1
1
1
1
1
1
1
1
1
1
1
1
1
1
1
1
1
1
1
1
1
1
1
1
1
1
1
1
1
1
1
1
1
1
1
1
1
1
1
1
1
1
1
1
1
1
1
1
1
1
1
1
1
1
1
1
1
1
1
1
1
0.999999
4.16721
9.5577
10.1624
10.1984
10.2041
10.1658
10.1005
10.0753
10.0825
10.1123
10.1559
10.1872
10.1963
10.1852
10.1648
10.1359
10.0982
10.0368
9.95959
9.87922
9.81263
9.76731
9.73266
9.68509
9.60356
9.48857
9.34992
9.19891
9.02965
8.82775
8.57376
8.26577
7.90583
7.48344
6.99556
6.41047
5.76485
5.06363
1
1
1
1
1
1
1
1
1
1
1
1
1
1
1
1
1
1
1
1
1
1
1
1
1
1
1
1
1
1
1
1
1
1
1
1
1
1
1
1
1
1
1
1
1
1
1
1
1
1
1
1
1
1
1
1
1
1
1
1
1
1
1
1
1
1
1
1
1
1
1
1
1
1
1
1
1
1
1
1
1
1
1
1
1
1
1
1
1
1
1
1
1
1
1
1
1
1
1
1
1
1
1
1
1
1
1
1
1
1
1
1
1
1
1
1
1
1
1
1
1
1
1
1
1
1
1
1
1
1
1
1
1
1
1
1
1
1
1
1
1
1
1
1
1
1
1
1
1
1
1
1
1
0.999999
2.41635
8.86811
10.1602
10.1398
10.1587
10.1381
10.0763
10.0377
10.0307
10.0457
10.077
10.1074
10.1181
10.1091
10.0862
10.0567
10.0234
9.97211
9.9004
9.81248
9.72904
9.66295
9.61317
9.55801
9.47451
9.35873
9.21662
9.06223
8.89208
8.68837
8.43444
8.12574
7.76996
7.35913
6.89267
6.36254
5.79297
5.16054
1
1
1
1
1
1
1
1
1
1
1
1
1
1
1
1
1
1
1
1
1
1
1
1
1
1
1
1
1
1
1
1
1
1
1
1
1
1
1
1
1
1
1
1
1
1
1
1
1
1
1
1
1
1
1
1
1
1
1
1
1
1
1
1
1
1
1
1
1
1
1
1
1
1
1
1
1
1
1
1
1
1
1
1
1
1
1
1
1
1
1
1
1
1
1
1
1
1
1
1
1
1
1
1
1
1
1
1
1
1
1
1
1
1
1
1
1
1
1
1
1
1
1
1
1
1
1
1
1
1
1
1
1
1
1
1
1
1
1
1
1
1
1
1
1
1
1
1
1
1
1
1
1
1
1.17461
7.49617
10.2055
10.1367
10.1348
10.1271
10.0674
10.0078
9.98131
9.98141
10.0028
10.0303
10.0428
10.0373
10.0092
9.97573
9.94202
9.89933
9.83384
9.74357
9.64943
9.56611
9.50036
9.4376
9.35422
9.23965
9.09638
8.93851
8.76174
8.55484
8.30473
8.00144
7.65867
7.2578
6.8217
6.34698
5.82039
5.23901
1
1
1
1
1
1
1
1
1
1
1
1
1
1
1
1
1
1
1
1
1
1
1
1
1
1
1
1
1
1
1
1
1
1
1
1
1
1
1
1
1
1
1
1
1
1
1
1
1
1
1
1
1
1
1
1
1
1
1
1
1
1
1
1
1
1
1
1
1
1
1
1
1
1
1
1
1
1
1
1
1
1
1
1
1
1
1
1
1
1
1
1
1
1
1
1
1
1
1
1
1
1
1
1
1
1
1
1
1
1
1
1
1
1
1
1
1
1
1
1
1
1
1
1
1
1
1
1
1
1
1
1
1
1
1
1
1
1
1
1
1
1
1
1
1
1
1
1
1
1
1
1
1
1
1.00285
5.56897
9.67802
9.98233
10.0888
10.1088
10.0551
9.98538
9.94559
9.93411
9.94651
9.9669
9.97986
9.97184
9.93677
9.8968
9.85994
9.82154
9.7616
9.67254
9.57216
9.47587
9.39448
9.32348
9.24116
9.13054
8.99154
8.82922
8.64173
8.42993
8.18308
7.89186
7.56191
7.18261
6.78701
6.34023
5.83456
5.30193
1
1
1
1
1
1
1
1
1
1
1
1
1
1
1
1
1
1
1
1
1
1
1
1
1
1
1
1
1
1
1
1
1
1
1
1
1
1
1
1
1
1
1
1
1
1
1
1
1
1
1
1
1
1
1
1
1
1
1
1
1
1
1
1
1
1
1
1
1
1
1
1
1
1
1
1
1
1
1
1
1
1
1
1
1
1
1
1
1
1
1
1
1
1
1
1
1
1
1
1
1
1
1
1
1
1
1
1
1
1
1
1
1
1
1
1
1
1
1
1
1
1
1
1
1
1
1
1
1
1
1
1
1
1
1
1
1
1
1
1
1
1
1
1
1
1
1
1
1
1
1
1
1
1
0.999991
3.46666
9.1915
10.0104
10.0493
10.0644
10.0213
9.9564
9.90507
9.8836
9.88934
9.90487
9.91887
9.90953
9.87098
9.82429
9.78207
9.7423
9.68537
9.59907
9.49567
9.38929
9.2942
9.21369
9.13129
9.02753
8.89739
8.7298
8.53452
8.31482
8.07196
7.7945
7.47952
7.13506
6.75892
6.32106
5.84744
5.37751
1
1
1
1
1
1
1
1
1
1
1
1
1
1
1
1
1
1
1
1
1
1
1
1
1
1
1
1
1
1
1
1
1
1
1
1
1
1
1
1
1
1
1
1
1
1
1
1
1
1
1
1
1
1
1
1
1
1
1
1
1
1
1
1
1
1
1
1
1
1
1
1
1
1
1
1
1
1
1
1
1
1
1
1
1
1
1
1
1
1
1
1
1
1
1
1
1
1
1
1
1
1
1
1
1
1
1
1
1
1
1
1
1
1
1
1
1
1
1
1
1
1
1
1
1
1
1
1
1
1
1
1
1
1
1
1
1
1
1
1
1
1
1
1
1
1
1
1
1
1
1
1
1
1
0.999998
1.69583
8.22292
10.0865
10.0118
10.0024
9.97632
9.91915
9.8541
9.82257
9.82246
9.83764
9.85344
9.84754
9.80978
9.75691
9.70716
9.66165
9.60553
9.52488
9.42221
9.30923
9.20266
9.10959
9.02275
8.92544
8.80365
8.63595
8.43809
8.21016
7.97297
7.70568
7.411
7.09368
6.71851
6.30894
5.89198
5.46006
1
1
1
1
1
1
1
1
1
1
1
1
1
1
1
1
1
1
1
1
1
1
1
1
1
1
1
1
1
1
1
1
1
1
1
1
1
1
1
1
1
1
1
1
1
1
1
1
1
1
1
1
1
1
1
1
1
1
1
1
1
1
1
1
1
1
1
1
1
1
1
1
1
1
1
1
1
1
1
1
1
1
1
1
1
1
1
1
1
1
1
1
1
1
1
1
1
1
1
1
1
1
1
1
1
1
1
1
1
1
1
1
1
1
1
1
1
1
1
1
1
1
1
1
1
1
1
1
1
1
1
1
1
1
1
1
1
1
1
1
1
1
1
1
1
1
1
1
1
1
1
1
1
1
1
1.0428
6.47406
9.73199
9.88008
9.95345
9.94839
9.89101
9.81636
9.7673
9.74996
9.75989
9.77727
9.78093
9.75095
9.69625
9.63857
9.58403
9.52599
9.45092
9.35181
9.2381
9.12321
9.01566
8.91837
8.82126
8.70434
8.54386
8.34921
8.11906
7.88296
7.62222
7.35069
7.04368
6.68378
6.32333
5.94397
5.53163
1
1
1
1
1
1
1
1
1
1
1
1
1
1
1
1
1
1
1
1
1
1
1
1
1
1
1
1
1
1
1
1
1
1
1
1
1
1
1
1
1
1
1
1
1
1
1
1
1
1
1
1
1
1
1
1
1
1
1
1
1
1
1
1
1
1
1
1
1
1
1
1
1
1
1
1
1
1
1
1
1
1
1
1
1
1
1
1
1
1
1
1
1
1
1
1
1
1
1
1
1
1
1
1
1
1
1
1
1
1
1
1
1
1
1
1
1
1
1
1
1
1
1
1
1
1
1
1
1
1
1
1
1
1
1
1
1
1
1
1
1
1
1
1
1
1
1
1
1
1
1
1
1
1
1
1.00013
4.15808
9.26756
9.8413
9.90316
9.91051
9.8657
9.79457
9.72938
9.69134
9.68688
9.69741
9.70524
9.6851
9.6348
9.57264
9.5102
9.44952
9.37823
9.28592
9.17729
9.05692