/*--------------------------------*- C++ -*----------------------------------*\
  =========                 |
  \\      /  F ield         | OpenFOAM: The Open Source CFD Toolbox
   \\    /   O peration     | Website:  https://openfoam.org
    \\  /    A nd           | Version:  7
     \\/     M anipulation  |
\*---------------------------------------------------------------------------*/
FoamFile
{
    version     2.0;
    format      ascii;
    class       volScalarField;
    location    "3.3";
    object      rho;
}
// * * * * * * * * * * * * * * * * * * * * * * * * * * * * * * * * * * * * * //

dimensions      [1 -3 0 0 0 0 0];

internalField   nonuniform List<scalar> 
16192
(
1.44385
1.4364
1.41786
1.3862
1.3665
1.36238
1.36271
1.36951
1.39033
1.41006
1.41231
1.40909
1.39988
1.37739
1.34514
1.3317
1.32942
1.32916
1.33205
1.34351
1.35873
1.36374
1.36303
1.36157
1.35953
1.35446
1.34142
1.32256
1.31557
1.31497
1.3155
1.32099
1.33325
1.34034
1.3405
1.33954
1.33582
1.32771
1.32199
1.32148
1.32171
1.32206
1.32222
1.32271
1.32347
1.3243
1.32544
1.32796
1.33472
1.34368
1.34633
1.34661
1.34668
1.3458
1.34131
1.33112
1.3242
1.32309
1.32288
1.32412
1.3308
1.3387
1.34
1.33974
1.33592
1.34064
1.42188
1.87116
2.3338
2.60457
2.73522
2.75056
2.74693
2.74022
2.72052
2.70488
2.69695
2.69656
2.70324
2.70724
2.70941
2.709
2.70323
2.69329
2.6857
2.68161
2.68014
2.681
2.68038
2.67538
2.66939
2.66692
2.66873
2.67631
2.68111
2.68112
2.67956
2.67673
2.67087
2.66329
2.65959
2.65796
2.65734
2.65652
2.65431
2.65087
2.64656
2.64112
2.63555
2.63134
2.62902
2.62963
2.6279
2.62282
2.61686
2.6072
2.59174
2.57687
2.56879
2.56484
2.56294
2.56573
2.57355
2.57427
2.57047
2.56314
2.54936
2.53359
2.52557
2.52149
2.51886
2.51781
2.51939
2.51972
2.51738
2.51286
2.50832
2.50525
2.50378
2.50311
2.50125
2.49825
2.49157
2.48343
2.47941
2.47765
2.47682
2.47699
2.48212
2.48981
2.48993
2.48623
2.48006
2.47104
2.46182
2.45409
2.44805
2.44311
2.43918
2.43591
2.43341
2.4325
2.43456
2.43487
2.43161
2.42747
2.42206
2.41286
2.39872
2.38535
2.37918
2.37587
2.37369
2.37363
2.37866
2.38467
2.38444
2.38136
2.37715
2.37202
2.36752
2.3637
2.36019
2.35688
2.35353
2.34973
2.34381
2.33525
2.32833
2.32378
2.32043
2.31851
2.31962
2.32586
2.32876
2.32691
2.3242
2.3203
2.3135
2.30234
2.29233
2.28774
2.28505
2.28363
2.28401
2.28955
2.29936
2.30249
2.30091
2.29838
2.29383
2.28463
2.27224
2.26355
2.25964
2.25713
2.25532
2.25548
2.26158
2.26888
2.26817
2.26526
2.26199
2.25788
2.25238
2.24431
2.23315
2.22124
2.21363
2.21041
2.20804
2.20586
2.20406
2.20318
2.20523
2.20719
2.20547
2.20257
2.19844
2.19107
2.1794
2.17121
2.16853
2.16692
2.16586
2.16588
2.16959
2.17593
2.17865
2.17775
2.17602
2.17253
2.16379
1.45146
1.43227
1.39937
1.37846
1.37389
1.37417
1.38119
1.40255
1.42229
1.42444
1.42107
1.41123
1.38755
1.35372
1.3394
1.33702
1.33677
1.34006
1.35252
1.36757
1.37167
1.37076
1.36934
1.36745
1.3631
1.35158
1.33138
1.3209
1.31969
1.31985
1.32414
1.33633
1.34558
1.34613
1.34505
1.34146
1.333
1.32424
1.32249
1.32238
1.32237
1.32231
1.32223
1.32252
1.32321
1.32429
1.32649
1.33229
1.34185
1.34603
1.34662
1.3469
1.34666
1.3437
1.33469
1.32662
1.32509
1.32496
1.32603
1.33216
1.34102
1.34297
1.34275
1.33998
1.35313
1.4534
1.88305
2.48499
2.65091
2.70539
2.72476
2.74377
2.75349
2.74816
2.73505
2.71456
2.70288
2.6972
2.70328
2.71284
2.71351
2.71057
2.70342
2.69068
2.68093
2.67748
2.6763
2.67802
2.67977
2.67946
2.67833
2.67676
2.67578
2.67557
2.67471
2.67416
2.67419
2.67343
2.67189
2.66843
2.66269
2.65924
2.65747
2.65563
2.65352
2.65061
2.64708
2.64324
2.63974
2.63811
2.63864
2.63593
2.63073
2.62513
2.61674
2.60479
2.59004
2.57848
2.57247
2.56904
2.56842
2.57396
2.57842
2.57519
2.56974
2.5601
2.54457
2.5313
2.52449
2.52089
2.51854
2.5182
2.52147
2.52233
2.51994
2.51603
2.50975
2.50258
2.49733
2.49471
2.49251
2.48951
2.48554
2.481
2.47712
2.47477
2.47444
2.47855
2.48738
2.49115
2.48933
2.4853
2.479
2.46987
2.4594
2.451
2.44456
2.44062
2.43782
2.43556
2.43484
2.43828
2.44121
2.43845
2.43415
2.42884
2.42067
2.408
2.39503
2.38834
2.38483
2.38215
2.38101
2.38333
2.38817
2.38756
2.3844
2.38119
2.37773
2.3742
2.37071
2.36688
2.36261
2.35802
2.35325
2.34772
2.34198
2.33665
2.33281
2.32988
2.32759
2.32635
2.32759
2.33012
2.32842
2.32536
2.32236
2.31786
2.31032
2.30179
2.29626
2.29271
2.2903
2.28927
2.29169
2.29906
2.30276
2.30166
2.29855
2.29369
2.28578
2.27587
2.26869
2.26441
2.26121
2.2594
2.2593
2.26421
2.27205
2.27223
2.26941
2.26644
2.26285
2.25816
2.25193
2.24303
2.23011
2.21822
2.2124
2.20931
2.20708
2.20543
2.20418
2.20448
2.20926
2.21197
2.21032
2.20733
2.2024
2.19265
2.1791
2.16994
2.16513
2.16219
2.16052
2.15991
2.16426
2.17474
2.18026
2.18108
2.17971
2.17693
2.17058
1.44759
1.41349
1.39134
1.38636
1.38649
1.39341
1.41506
1.43501
1.43711
1.43375
1.42371
1.3994
1.36384
1.34823
1.34566
1.34549
1.34941
1.36289
1.37734
1.38035
1.37918
1.37774
1.376
1.37238
1.36227
1.34191
1.3274
1.32507
1.32505
1.32823
1.33971
1.35117
1.35257
1.35147
1.34805
1.3396
1.32831
1.3245
1.32402
1.32364
1.32311
1.32268
1.32263
1.32287
1.32367
1.32559
1.33041
1.33943
1.34512
1.3461
1.34658
1.3467
1.34503
1.33739
1.32851
1.32656
1.32654
1.32768
1.33341
1.34297
1.3461
1.34603
1.34378
1.36309
1.55016
1.93922
2.50168
2.72273
2.74003
2.74079
2.72514
2.72977
2.73795
2.73936
2.73239
2.71992
2.71429
2.71025
2.70846
2.71239
2.71143
2.70745
2.70107
2.69296
2.68381
2.67584
2.67248
2.67128
2.6739
2.67941
2.68342
2.68459
2.68192
2.67506
2.66997
2.66793
2.667
2.66805
2.67015
2.6701
2.66757
2.66177
2.65689
2.65384
2.65104
2.64871
2.64644
2.64464
2.645
2.64914
2.64839
2.64247
2.6341
2.62294
2.6105
2.59935
2.59046
2.58556
2.58138
2.57865
2.57976
2.5807
2.57628
2.57128
2.56469
2.55335
2.54012
2.53178
2.52675
2.52297
2.52087
2.52098
2.52205
2.52126
2.51893
2.51578
2.51135
2.50388
2.49415
2.48712
2.48301
2.48047
2.47908
2.47826
2.47743
2.47725
2.47956
2.48625
2.48987
2.48798
2.48454
2.48096
2.47599
2.4684
2.45824
2.44937
2.44403
2.4401
2.43719
2.43591
2.43911
2.44588
2.44553
2.44167
2.43678
2.42867
2.41573
2.40236
2.39532
2.39196
2.38964
2.38893
2.39106
2.39336
2.391
2.38754
2.38395
2.38061
2.37801
2.3759
2.37352
2.37044
2.36678
2.36219
2.35583
2.34734
2.34001
2.33705
2.33471
2.33294
2.33252
2.3351
2.3362
2.33336
2.32883
2.32325
2.31672
2.3106
2.30466
2.3008
2.29894
2.29747
2.29681
2.29895
2.3038
2.30393
2.30068
2.29701
2.29236
2.28443
2.27552
2.27008
2.26758
2.26603
2.26483
2.26472
2.26871
2.27564
2.27564
2.27243
2.26957
2.26679
2.26324
2.25883
2.2523
2.24199
2.2284
2.21701
2.21168
2.2081
2.20512
2.20332
2.20264
2.20522
2.21284
2.21519
2.21293
2.20973
2.20399
2.19332
2.17976
2.17021
2.16446
2.16002
2.15683
2.15527
2.15628
2.16703
2.18102
2.18265
2.18035
2.17696
2.17091
1.4285
1.40496
1.39955
1.39949
1.4061
1.42793
1.44808
1.45016
1.44685
1.4368
1.41252
1.37562
1.35851
1.35567
1.35552
1.35991
1.37425
1.38793
1.38988
1.38846
1.38697
1.38534
1.38236
1.37341
1.35366
1.33532
1.33124
1.33105
1.33329
1.34372
1.35687
1.35958
1.35861
1.35541
1.34721
1.3341
1.32769
1.32666
1.32602
1.32506
1.3241
1.32387
1.32385
1.32419
1.32565
1.32967
1.33755
1.34396
1.34539
1.34595
1.34624
1.34542
1.339
1.32956
1.32733
1.32747
1.3287
1.33417
1.34423
1.34886
1.34917
1.34822
1.36811
1.59305
2.12297
2.49165
2.72449
2.76908
2.76619
2.764
2.75043
2.73721
2.73303
2.73061
2.72733
2.72461
2.72232
2.7218
2.71775
2.71026
2.70511
2.70107
2.69632
2.69014
2.68427
2.67758
2.6718
2.66951
2.67145
2.68037
2.6858
2.68476
2.68193
2.67554
2.66609
2.66312
2.66242
2.66404
2.66829
2.66909
2.66774
2.66286
2.65572
2.65098
2.64768
2.64502
2.64367
2.64521
2.65385
2.65885
2.65547
2.64827
2.63555
2.61831
2.60368
2.59601
2.59219
2.58982
2.5907
2.59286
2.58998
2.58354
2.57579
2.56672
2.55625
2.54609
2.53928
2.53579
2.53265
2.52946
2.52642
2.5235
2.52057
2.51813
2.51704
2.51485
2.5108
2.50468
2.4936
2.48187
2.47668
2.4741
2.47268
2.47315
2.47616
2.48145
2.48909
2.49274
2.49082
2.48564
2.47946
2.47388
2.46919
2.46453
2.45857
2.45223
2.44738
2.44367
2.44114
2.44142
2.44805
2.45178
2.44882
2.44439
2.43796
2.42639
2.41071
2.40227
2.39886
2.39622
2.39528
2.39794
2.40069
2.3982
2.39384
2.38879
2.38433
2.38128
2.37901
2.37752
2.37583
2.37345
2.37065
2.36673
2.3594
2.34844
2.34169
2.33834
2.33592
2.33449
2.33569
2.34005
2.33957
2.33645
2.3319
2.32347
2.31166
2.30369
2.30072
2.29915
2.29841
2.30022
2.30699
2.31347
2.31311
2.30843
2.30041
2.28999
2.2793
2.27065
2.26739
2.26639
2.26565
2.26524
2.26709
2.27354
2.28069
2.28053
2.27681
2.27189
2.26681
2.26411
2.26189
2.25791
2.25087
2.23951
2.22719
2.21902
2.21337
2.20872
2.20515
2.2028
2.20243
2.20771
2.21402
2.21419
2.21196
2.20898
2.20323
2.19304
2.18299
2.17394
2.16592
2.16023
2.15657
2.15434
2.15455
2.15887
2.16546
2.17103
2.17262
2.17129
2.1676
1.41917
1.41333
1.41306
1.41916
1.44089
1.46139
1.46352
1.46026
1.45051
1.42664
1.38866
1.36988
1.36678
1.36672
1.37174
1.38683
1.39929
1.40023
1.39866
1.39723
1.39568
1.39301
1.38502
1.36605
1.34457
1.33833
1.33789
1.33932
1.34868
1.36302
1.36722
1.36638
1.3635
1.35549
1.34115
1.33217
1.33035
1.32951
1.32831
1.32687
1.32628
1.32611
1.32615
1.32706
1.33027
1.33686
1.34315
1.34492
1.34544
1.34576
1.34538
1.34001
1.32986
1.32694
1.32737
1.32878
1.33409
1.34506
1.35071
1.35181
1.35448
1.3884
1.59774
2.22425
2.57337
2.70747
2.75517
2.77324
2.77797
2.77278
2.76467
2.74527
2.73089
2.72505
2.72531
2.73088
2.73117
2.72916
2.72476
2.71507
2.70349
2.69656
2.69147
2.6868
2.6837
2.68044
2.67669
2.67518
2.67689
2.68183
2.68234
2.68057
2.67809
2.67323
2.6662
2.66086
2.65969
2.66195
2.66601
2.6662
2.66451
2.65989
2.65331
2.64762
2.64519
2.64328
2.64271
2.6497
2.66196
2.66298
2.65785
2.64835
2.63105
2.61199
2.60199
2.59733
2.59445
2.59538
2.60204
2.60235
2.59663
2.58707
2.57248
2.55776
2.54836
2.54322
2.54042
2.53961
2.53979
2.53767
2.53346
2.52715
2.52076
2.51639
2.51262
2.51003
2.50707
2.50205
2.49281
2.48156
2.47474
2.47138
2.4693
2.46905
2.47499
2.48649
2.49342
2.49353
2.49133
2.48569
2.47575
2.46734
2.46267
2.45956
2.45669
2.45368
2.4509
2.44846
2.44782
2.45217
2.45764
2.45568
2.45144
2.44589
2.43647
2.42223
2.41089
2.40631
2.4033
2.40142
2.40245
2.40572
2.40389
2.40018
2.39632
2.39197
2.38783
2.38474
2.38265
2.38117
2.37928
2.37668
2.37363
2.36863
2.3598
2.35064
2.34492
2.34096
2.33818
2.33682
2.33884
2.3416
2.34008
2.33683
2.33159
2.32203
2.30903
2.30163
2.29891
2.29716
2.29742
2.30476
2.31672
2.32075
2.31875
2.31357
2.3013
2.28131
2.26595
2.26189
2.2609
2.26026
2.26059
2.26486
2.27506
2.28487
2.2862
2.28369
2.27957
2.2735
2.26621
2.2592
2.25476
2.25069
2.24439
2.2353
2.22704
2.22232
2.2182
2.21399
2.21046
2.20797
2.20793
2.20876
2.20613
2.20502
2.20351
2.20048
2.19553
2.18907
2.18414
2.18017
2.17369
2.16743
2.16296
2.16007
2.16005
2.15989
2.15612
2.15496
2.15539
2.15485
2.15351
1.42749
1.42706
1.43257
1.45395
1.47481
1.47706
1.47394
1.46475
1.44167
1.40294
1.38202
1.37847
1.37849
1.38399
1.39984
1.41145
1.41166
1.40995
1.40859
1.40716
1.40482
1.3974
1.37899
1.35491
1.3461
1.34538
1.3463
1.35463
1.36992
1.37568
1.37506
1.37249
1.36458
1.34927
1.33765
1.33496
1.334
1.33273
1.33109
1.33016
1.32979
1.32961
1.32997
1.33233
1.33758
1.34309
1.34502
1.34543
1.34572
1.34548
1.34105
1.33038
1.32594
1.32642
1.32783
1.33294
1.34441
1.35246
1.35293
1.35764
1.43009
1.69929
2.22131
2.68598
2.73352
2.76014
2.75597
2.76723
2.77449
2.77092
2.76316
2.74685
2.73628
2.73212
2.72928
2.7361
2.73892
2.73456
2.72843
2.71665
2.70093
2.69304
2.68868
2.68503
2.68295
2.68303
2.68379
2.68589
2.68716
2.68312
2.67788
2.67372
2.67111
2.66917
2.66638
2.66473
2.66405
2.6621
2.65967
2.65792
2.656
2.65311
2.64883
2.64525
2.64248
2.64244
2.64773
2.65922
2.66308
2.65975
2.65338
2.64122
2.62266
2.60942
2.60399
2.60086
2.6005
2.60705
2.61144
2.60739
2.59972
2.58529
2.56458
2.55153
2.54593
2.54281
2.54193
2.54444
2.54497
2.54222
2.53846
2.53335
2.52596
2.51752
2.51058
2.50464
2.50009
2.49549
2.48972
2.48338
2.47819
2.47382
2.47168
2.47255
2.4801
2.48949
2.49211
2.4913
2.48905
2.48392
2.47397
2.46349
2.45848
2.45579
2.45385
2.45244
2.45151
2.45239
2.45773
2.46411
2.46319
2.45893
2.45326
2.44471
2.43222
2.42024
2.41477
2.41149
2.40904
2.40817
2.40963
2.40876
2.40541
2.40198
2.39864
2.39586
2.39363
2.39185
2.38989
2.38701
2.38324
2.37882
2.37317
2.36528
2.35734
2.35189
2.34853
2.34548
2.3431
2.34262
2.34321
2.34051
2.3363
2.33296
2.32825
2.31988
2.30956
2.30285
2.29979
2.29829
2.30001
2.31132
2.32231
2.32142
2.31784
2.31227
2.29928
2.27582
2.26175
2.25708
2.25525
2.25466
2.25701
2.26799
2.2839
2.28859
2.28695
2.28459
2.28159
2.27682
2.26881
2.25851
2.24826
2.24064
2.2346
2.22945
2.22614
2.22368
2.22178
2.2207
2.22137
2.22121
2.21758
2.21179
2.20491
2.19762
2.19258
2.18698
2.183
2.18189
2.18247
2.183
2.18205
2.18088
2.18097
2.17911
2.17318
2.16429
2.15477
2.14549
2.13926
2.13517
2.13353
1.44137
1.44636
1.46717
1.4883
1.49068
1.48769
1.47914
1.45723
1.4182
1.39505
1.3908
1.3908
1.39635
1.41279
1.42429
1.42408
1.42225
1.42107
1.41976
1.41759
1.41038
1.39199
1.36587
1.3548
1.35364
1.35408
1.36134
1.37733
1.38513
1.38464
1.38224
1.37483
1.35869
1.3442
1.3404
1.33931
1.33797
1.33651
1.33554
1.33496
1.33459
1.33456
1.33594
1.33993
1.34432
1.34596
1.34621
1.34638
1.34606
1.3424
1.33173
1.32518
1.32536
1.32653
1.33091
1.34252
1.35303
1.35429
1.36049
1.44157
1.85355
2.31207
2.66753
2.78588
2.77698
2.77656
2.77988
2.77668
2.78273
2.76459
2.75033
2.73934
2.73196
2.73503
2.73848
2.74472
2.74509
2.73813
2.72806
2.71446
2.70027
2.69349
2.68927
2.68512
2.68304
2.68502
2.69206
2.69547
2.69271
2.68644
2.67668
2.66959
2.66587
2.66423
2.66518
2.66777
2.66682
2.66238
2.65533
2.64878
2.64384
2.64135
2.64064
2.64063
2.64225
2.64847
2.66051
2.66516
2.66217
2.65495
2.64378
2.6282
2.61542
2.60956
2.60619
2.60482
2.60963
2.61709
2.61495
2.60898
2.59851
2.57993
2.56057
2.55079
2.54657
2.54388
2.54407
2.54725
2.54689
2.54416
2.54097
2.53717
2.53214
2.5243
2.51288
2.50217
2.49393
2.48841
2.48532
2.48289
2.48107
2.48043
2.48038
2.48324
2.48876
2.49046
2.48868
2.4866
2.48431
2.47943
2.47143
2.46399
2.45876
2.45512
2.45265
2.45141
2.45324
2.46063
2.46933
2.47002
2.46645
2.46109
2.4524
2.44018
2.42816
2.42217
2.41884
2.41603
2.41483
2.41619
2.41508
2.41121
2.40753
2.40447
2.40202
2.40045
2.40004
2.39941
2.39713
2.39331
2.38742
2.37847
2.36781
2.35915
2.35427
2.35173
2.34942
2.3483
2.34982
2.35054
2.34719
2.34178
2.33489
2.3267
2.32007
2.31562
2.31175
2.30817
2.306
2.30559
2.30892
2.31499
2.31729
2.31673
2.31406
2.30859
2.29618
2.27799
2.26304
2.25628
2.25359
2.25296
2.257
2.27016
2.28347
2.2868
2.28545
2.28385
2.2818
2.2784
2.27147
2.25821
2.24142
2.23029
2.22654
2.22478
2.22369
2.22324
2.22344
2.22719
2.23177
2.23076
2.22692
2.22007
2.20809
2.19241
2.17899
2.17355
2.17182
2.17094
2.17257
2.17783
2.18398
2.19136
2.19622
2.19521
2.19008
2.17884
2.16053
2.14115
2.12523
2.11874
2.11726
1.46052
1.48076
1.5021
1.50452
1.50151
1.49347
1.4729
1.4341
1.40891
1.40369
1.40352
1.40856
1.42531
1.43784
1.43776
1.4359
1.43481
1.43363
1.43144
1.42384
1.40474
1.37714
1.36438
1.36268
1.36287
1.3691
1.38506
1.39502
1.39493
1.39279
1.38607
1.37022
1.35183
1.3464
1.34526
1.34392
1.3428
1.34199
1.34145
1.34108
1.34088
1.34139
1.34387
1.34712
1.3483
1.34823
1.34813
1.34761
1.34432
1.33396
1.32523
1.32469
1.3255
1.32904
1.33953
1.3527
1.3557
1.36632
1.45273
1.89122
2.45588
2.67675
2.76459
2.78968
2.79375
2.79222
2.79374
2.78425
2.77555
2.76438
2.74951
2.74131
2.73998
2.74272
2.748
2.74967
2.74476
2.73711
2.72625
2.71226
2.70006
2.69389
2.69071
2.68816
2.68751
2.69284
2.7004
2.69896
2.6942
2.68738
2.67717
2.66882
2.66508
2.66348
2.66498
2.66664
2.66419
2.65923
2.64994
2.63885
2.63331
2.63114
2.63131
2.63422
2.64373
2.66002
2.66738
2.66537
2.65908
2.64659
2.62898
2.61679
2.61183
2.60866
2.60725
2.61162
2.62004
2.6192
2.61445
2.6068
2.59359
2.57458
2.56193
2.55584
2.55152
2.54903
2.54857
2.54861
2.54671
2.5441
2.54125
2.53798
2.53422
2.52917
2.51974
2.50417
2.49174
2.48575
2.48237
2.47985
2.47936
2.48354
2.49099
2.49618
2.49573
2.49262
2.48789
2.48248
2.47666
2.47083
2.4661
2.46317
2.46099
2.45884
2.45731
2.45721
2.46258
2.47295
2.47669
2.47372
2.4686
2.46033
2.44749
2.4344
2.42758
2.42416
2.42123
2.41945
2.4206
2.42258
2.41946
2.41513
2.41105
2.40805
2.40628
2.4059
2.40642
2.40491
2.40182
2.3969
2.38798
2.37602
2.36352
2.35565
2.35182
2.34966
2.34851
2.35009
2.35504
2.35424
2.35051
2.34435
2.33405
2.32284
2.31549
2.31222
2.31075
2.31
2.31085
2.31623
2.31908
2.31629
2.31133
2.30684
2.30236
2.29596
2.28802
2.28016
2.27227
2.26385
2.2588
2.25796
2.26132
2.26718
2.2716
2.27673
2.28129
2.28155
2.27956
2.27622
2.27027
2.2572
2.23852
2.22734
2.22288
2.22092
2.21961
2.21972
2.22437
2.23392
2.23803
2.23635
2.23291
2.22615
2.21118
2.18869
2.17336
2.16625
2.16296
2.1613
2.16127
2.16883
2.18471
2.20059
2.20598
2.20546
2.20262
2.1951
2.17371
2.14002
2.11905
2.11028
2.10674
1.49462
1.5163
1.51891
1.51574
1.50801
1.48866
1.45038
1.42305
1.41703
1.41667
1.42082
1.43749
1.45209
1.45255
1.45074
1.4498
1.44883
1.44644
1.4379
1.41726
1.38814
1.37473
1.37254
1.37261
1.37815
1.39387
1.40528
1.40572
1.40389
1.3978
1.38246
1.36151
1.35332
1.35203
1.35097
1.35006
1.34942
1.34897
1.34873
1.3486
1.34871
1.34977
1.35146
1.35209
1.35178
1.35141
1.35059
1.34722
1.33712
1.32644
1.32479
1.32521
1.32805
1.33715
1.35133
1.35695
1.37869
1.52002
1.90387
2.53821
2.70939
2.77228
2.7778
2.78748
2.80573
2.80584
2.8014
2.79117
2.76919
2.75456
2.74678
2.74535
2.75055
2.75303
2.75283
2.75036
2.74309
2.73357
2.72364
2.71372
2.70521
2.69927
2.69584
2.6944
2.69594
2.70102
2.70087
2.69685
2.69232
2.68635
2.67863
2.67228
2.66942
2.66702
2.66311
2.65944
2.65607
2.64947
2.63762
2.62908
2.62653
2.62546
2.62605
2.63503
2.65294
2.66459
2.66452
2.66035
2.64929
2.63083
2.61678
2.61222
2.6095
2.60832
2.61359
2.62335
2.62333
2.61868
2.61093
2.59911
2.58489
2.5732
2.56709
2.56308
2.55942
2.5569
2.55427
2.55059
2.54689
2.5437
2.54077
2.53728
2.53363
2.52918
2.52184
2.50961
2.49717
2.48919
2.48434
2.48156
2.48144
2.48932
2.49954
2.50109
2.49881
2.49574
2.49059
2.48025
2.4698
2.46401
2.46181
2.46068
2.45996
2.45971
2.46067
2.46578
2.47581
2.48235
2.4808
2.47644
2.46852
2.45621
2.44131
2.43151
2.42763
2.42457
2.4222
2.42158
2.42576
2.42681
2.42349
2.42012
2.41709
2.41484
2.41342
2.41184
2.40937
2.40631
2.40176
2.3953
2.38559
2.3728
2.36291
2.35614
2.35161
2.34903
2.34885
2.35407
2.35687
2.35405
2.34984
2.34316
2.33222
2.32156
2.3153
2.31175
2.30935
2.30905
2.31537
2.32272
2.3219
2.31784
2.31029
2.29958
2.28944
2.28243
2.27983
2.27906
2.27805
2.27619
2.2729
2.26973
2.26772
2.26657
2.26586
2.26701
2.27095
2.27388
2.27306
2.27104
2.26714
2.25722
2.24075
2.22788
2.22211
2.21913
2.21775
2.21811
2.22777
2.23985
2.24033
2.23715
2.23286
2.22559
2.21116
2.18989
2.17384
2.16501
2.15871
2.15559
2.15473
2.16083
2.18697
2.20961
2.21203
2.20906
2.20519
2.19897
2.18317
2.15062
2.12206
2.10927
2.10223
1.53071
1.53374
1.53057
1.52312
1.50465
1.4671
1.43765
1.43066
1.43013
1.43336
1.44951
1.46702
1.46866
1.46682
1.46587
1.46487
1.46201
1.45185
1.42907
1.39906
1.38574
1.38331
1.38325
1.38842
1.40409
1.4164
1.41706
1.41529
1.41008
1.39563
1.37238
1.3611
1.3595
1.35873
1.35852
1.35831
1.35782
1.35751
1.35739
1.35735
1.35751
1.35775
1.35745
1.35686
1.35619
1.35495
1.35127
1.34153
1.3293
1.32612
1.32618
1.32826
1.3361
1.35049
1.35814
1.38333
1.60888
2.06954
2.50765
2.76846
2.78286
2.79231
2.79947
2.80178
2.81228
2.79794
2.79023
2.77957
2.76502
2.76065
2.75832
2.76199
2.76562
2.75815
2.7526
2.74622
2.73725
2.72737
2.72075
2.7162
2.71203
2.70885
2.70695
2.70696
2.70735
2.70377
2.69825
2.69214
2.68673
2.68286
2.67991
2.67696
2.6747
2.67074
2.66322
2.65343
2.64285
2.63156
2.62434
2.62205
2.62119
2.62276
2.63152
2.64822
2.66048
2.6602
2.65646
2.64717
2.62981
2.6166
2.61168
2.60897
2.60831
2.61361
2.62556
2.62822
2.62349
2.61607
2.60432
2.58952
2.57901
2.57445
2.57122
2.5692
2.56699
2.56367
2.55952
2.55452
2.5497
2.54521
2.54075
2.53639
2.53221
2.52763
2.52055
2.51221
2.50517
2.49976
2.49507
2.49219
2.49272
2.49942
2.50394
2.50237
2.4998
2.49665
2.48979
2.47716
2.46514
2.461
2.45908
2.45766
2.4571
2.4591
2.4659
2.47708
2.48572
2.48575
2.48288
2.47633
2.46608
2.4514
2.43762
2.43117
2.42744
2.42442
2.42253
2.42359
2.42906
2.42988
2.42754
2.42544
2.42404
2.42235
2.41922
2.41456
2.40918
2.40351
2.39725
2.38916
2.37949
2.37205
2.3673
2.36282
2.35797
2.35493
2.35492
2.3529
2.34964
2.34724
2.34339
2.33752
2.33011
2.32459
2.32027
2.31678
2.31515
2.3172
2.3221
2.32036
2.31788
2.31458
2.30625
2.29049
2.27963
2.27628
2.27472
2.27455
2.27883
2.28312
2.28264
2.27926
2.27338
2.26696
2.26324
2.26132
2.26172
2.26359
2.2631
2.26163
2.25942
2.25444
2.24496
2.23329
2.22416
2.21948
2.21775
2.21877
2.22546
2.23166
2.23337
2.23213
2.22891
2.22243
2.2103
2.19611
2.1815
2.16803
2.1593
2.15523
2.15399
2.15799
2.1736
2.19579
2.2061
2.20656
2.20365
2.19761
2.18486
2.16431
2.1384
2.11646
2.10341
1.54881
1.54573
1.53859
1.52107
1.48441
1.45295
1.44466
1.44391
1.44625
1.46146
1.4822
1.48597
1.48414
1.48295
1.48177
1.47807
1.46575
1.44022
1.40982
1.3972
1.39488
1.39476
1.39986
1.41558
1.42852
1.42924
1.42728
1.42252
1.40922
1.38498
1.37006
1.36762
1.36706
1.36764
1.36866
1.3682
1.36753
1.36722
1.36693
1.36647
1.3658
1.36484
1.36354
1.36218
1.36035
1.35633
1.34718
1.33408
1.32904
1.32878
1.32998
1.33633
1.35075
1.36098
1.39102
1.62281
2.21811
2.58002
2.74261
2.78562
2.78886
2.80112
2.80982
2.81162
2.81317
2.80714
2.78434
2.77222
2.76202
2.76176
2.76518
2.77376
2.77608
2.76739
2.75283
2.73915
2.72844
2.72347
2.72106
2.7191
2.71927
2.72176
2.72136
2.71755
2.71191
2.70457
2.69648
2.68927
2.68409
2.68072
2.67922
2.67948
2.67606
2.67031
2.66152
2.64623
2.62968
2.62107
2.61735
2.61637
2.61713
2.62643
2.64519
2.65808
2.65778
2.65383
2.64388
2.62694
2.61361
2.60937
2.60828
2.60803
2.61338
2.62598
2.6313
2.62761
2.62092
2.6104
2.59654
2.58463
2.57897
2.57618
2.57417
2.57258
2.57033
2.56712
2.5637
2.55973
2.55499
2.5497
2.54392
2.53763
2.53069
2.52354
2.51662
2.51217
2.50892
2.50605
2.50431
2.50448
2.50923
2.51147
2.50805
2.50393
2.49968
2.49425
2.48519
2.474
2.46713
2.46373
2.46116
2.45958
2.45958
2.46428
2.47565
2.48683
2.48827
2.48593
2.48136
2.47322
2.46067
2.44763
2.43891
2.43335
2.42954
2.4269
2.42576
2.42873
2.4328
2.43248
2.43082
2.42982
2.42862
2.42596
2.42227
2.4166
2.40764
2.39727
2.38739
2.37949
2.37413
2.37087
2.36871
2.3684
2.36948
2.36763
2.36273
2.35512
2.34602
2.33867
2.33279
2.32832
2.32621
2.32491
2.32449
2.32556
2.33003
2.33109
2.3264
2.31896
2.31069
2.30223
2.29191
2.28161
2.27621
2.27417
2.27282
2.27338
2.27987
2.28524
2.28464
2.28272
2.27965
2.27378
2.26468
2.25679
2.25363
2.25341
2.25242
2.25116
2.2497
2.2478
2.24438
2.2398
2.23482
2.22991
2.22637
2.22619
2.2247
2.22174
2.22079
2.21914
2.21576
2.21082
2.20459
2.19799
2.19246
2.18396
2.17325
2.16569
2.16294
2.16468
2.17033
2.17592
2.18278
2.1888
2.19024
2.18773
2.18067
2.16861
2.1556
2.13984
2.12031
1.56123
1.55454
1.53796
1.50221
1.46889
1.45921
1.45821
1.45975
1.47368
1.49723
1.50403
1.50232
1.5008
1.49907
1.49367
1.47885
1.45043
1.42058
1.40913
1.40705
1.40703
1.4125
1.4284
1.44134
1.44201
1.43986
1.43521
1.4229
1.39901
1.38031
1.3763
1.3758
1.37686
1.37979
1.37984
1.37878
1.37808
1.3774
1.37644
1.37538
1.37392
1.37164
1.36913
1.36657
1.36225
1.35379
1.34074
1.33387
1.33328
1.33376
1.33802
1.35138
1.36626
1.41592
1.65009
2.27656
2.64262
2.75855
2.78831
2.77876
2.8038
2.81387
2.8206
2.81645
2.79975
2.7891
2.77541
2.76597
2.76422
2.76997
2.77843
2.78221
2.77769
2.76882
2.75206
2.73399
2.726
2.72287
2.72102
2.72181
2.72738
2.73015
2.7269
2.72041
2.71228
2.70354
2.69551
2.68895
2.68447
2.6821
2.67897
2.67347
2.66935
2.66331
2.65052
2.6334
2.62256
2.61815
2.61488
2.61367
2.62136
2.63972
2.65338
2.65421
2.65133
2.64329
2.62511
2.61025
2.60629
2.60486
2.60467
2.61086
2.62392
2.63082
2.62869
2.6239
2.61526
2.60256
2.59368
2.58927
2.58502
2.58067
2.57672
2.57332
2.57033
2.56799
2.56639
2.56385
2.55989
2.55539
2.55015
2.54243
2.53148
2.52149
2.51653
2.51328
2.51057
2.50888
2.51
2.51739
2.52298
2.52033
2.51517
2.50846
2.49909
2.48698
2.47647
2.47044
2.46768
2.46569
2.46439
2.46382
2.46601
2.47479
2.48638
2.4895
2.48751
2.48334
2.47592
2.46477
2.45267
2.44473
2.44058
2.43692
2.43348
2.43171
2.43278
2.43712
2.43791
2.43609
2.43445
2.43261
2.42993
2.42661
2.42191
2.41504
2.40438
2.3901
2.37934
2.37415
2.37111
2.36885
2.36799
2.37248
2.37782
2.37619
2.37074
2.36014
2.3432
2.32895
2.32376
2.3215
2.31955
2.31909
2.32414
2.33435
2.34063
2.33907
2.33408
2.32372
2.30705
2.28878
2.27732
2.27451
2.27332
2.27241
2.27218
2.27532
2.28078
2.28384
2.28391
2.28326
2.28191
2.2789
2.27206
2.2588
2.24693
2.24337
2.24182
2.23989
2.23922
2.23965
2.24073
2.24068
2.24193
2.24426
2.24247
2.23567
2.22584
2.21616
2.20992
2.20642
2.20107
2.19622
2.19511
2.19626
2.19705
2.19619
2.19405
2.19249
2.18926
2.18132
2.17244
2.16652
2.16485
2.16445
2.16489
2.16619
2.16701
2.16537
2.16211
2.15718
2.14908
1.57076
1.55514
1.52061
1.4852
1.47416
1.47301
1.47406
1.4866
1.51196
1.52243
1.52095
1.51892
1.51617
1.50845
1.49084
1.45975
1.43176
1.42164
1.41992
1.42002
1.42605
1.44227
1.45476
1.45512
1.45285
1.44856
1.43703
1.41342
1.39171
1.38603
1.38556
1.38644
1.39047
1.39179
1.39079
1.3898
1.38872
1.38742
1.38607
1.38424
1.38089
1.37682
1.3733
1.36894
1.3613
1.34897
1.34062
1.33945
1.33972
1.34261
1.35341
1.37128
1.46103
1.76966
2.28681
2.71867
2.76203
2.80032
2.80798
2.81216
2.817
2.81745
2.81616
2.80776
2.78966
2.77882
2.77386
2.77241
2.77813
2.78366
2.78393
2.78289
2.7776
2.76633
2.74872
2.73487
2.72874
2.72529
2.72488
2.72985
2.73277
2.72975
2.72438
2.7174
2.70961
2.7023
2.69738
2.69381
2.69054
2.68635
2.68044
2.6718
2.66015
2.64615
2.63168
2.62521
2.62243
2.62116
2.62199
2.62852
2.64359
2.65272
2.65085
2.64551
2.63746
2.62281
2.60812
2.60244
2.60104
2.6025
2.61031
2.62346
2.62943
2.62728
2.62211
2.61475
2.60537
2.59916
2.59619
2.59558
2.59332
2.58758
2.58021
2.57494
2.57158
2.56945
2.56857
2.56648
2.56284
2.55857
2.55341
2.54519
2.53333
2.52509
2.52024
2.51633
2.51344
2.51227
2.51748
2.5282
2.52967
2.52597
2.5209
2.51193
2.49729
2.48078
2.47158
2.46882
2.46699
2.46576
2.46542
2.46761
2.47556
2.48695
2.49137
2.48989
2.4857
2.4777
2.46641
2.45428
2.44629
2.44195
2.43991
2.43838
2.4372
2.43865
2.44379
2.44586
2.44367
2.44075
2.43745
2.43314
2.42778
2.42192
2.41602
2.40777
2.39518
2.3835
2.37718
2.37329
2.37051
2.36912
2.3719
2.38043
2.38236
2.37907
2.37248
2.36003
2.34067
2.32586
2.31909
2.31608
2.31459
2.31524
2.32465
2.34138
2.34469
2.34161
2.33679
2.32702
2.30492
2.28251
2.27252
2.26878
2.2675
2.26782
2.27209
2.27752
2.28132
2.28251
2.2831
2.28356
2.28269
2.28077
2.2773
2.26778
2.24872
2.23419
2.23022
2.22902
2.22846
2.22914
2.23302
2.23952
2.2479
2.25229
2.2512
2.24624
2.23417
2.21642
2.20132
2.19203
2.18737
2.18509
2.18408
2.18556
2.19176
2.19997
2.20735
2.21113
2.20938
2.20137
2.18375
2.16486
2.15324
2.14724
2.14351
2.14213
2.14576
2.15669
2.16252
2.16285
2.16208
1.57234
1.53912
1.50211
1.48942
1.4881
1.4889
1.50054
1.52671
1.54046
1.53941
1.53673
1.53259
1.52237
1.50186
1.46844
1.44313
1.43458
1.43324
1.43367
1.44054
1.45691
1.46862
1.46853
1.46595
1.46178
1.45123
1.42883
1.40459
1.39669
1.3961
1.39696
1.40154
1.4038
1.40301
1.40212
1.40106
1.39968
1.39815
1.39582
1.39119
1.38509
1.38043
1.37623
1.36958
1.35865
1.3491
1.34721
1.34722
1.34944
1.35864
1.37818
1.48335
1.93831
2.398
2.72004
2.78822
2.77943
2.80171
2.81354
2.82352
2.83768
2.82104
2.80684
2.79581
2.78055
2.77886
2.77881
2.78579
2.79667
2.79351
2.78707
2.77881
2.76795
2.75628
2.74759
2.74145
2.73707
2.73558
2.73716
2.73574
2.73113
2.72495
2.71724
2.70888
2.70355
2.70034
2.69803
2.69693
2.69501
2.69081
2.68323
2.6699
2.64916
2.63071
2.6231
2.61951
2.61844
2.62205
2.63507
2.65298
2.66065
2.65773
2.64877
2.6348
2.61677
2.60432
2.60074
2.59982
2.60065
2.60921
2.62435
2.63085
2.6287
2.62182
2.61235
2.60341
2.59913
2.59678
2.59645
2.59922
2.59725
2.59236
2.58543
2.57956
2.5757
2.57353
2.57284
2.56977
2.56531
2.5605
2.55409
2.54421
2.5352
2.53006
2.52585
2.52206
2.51955
2.52013
2.52881
2.53613
2.53391
2.52939
2.52254
2.51048
2.49246
2.4788
2.47333
2.47033
2.46827
2.46709
2.46803
2.47509
2.4867
2.49343
2.49259
2.48902
2.48232
2.47072
2.45635
2.44768
2.443
2.44005
2.43816
2.43826
2.44192
2.44792
2.45194
2.45094
2.44822
2.44491
2.44061
2.43487
2.42755
2.41839
2.40732
2.39522
2.38539
2.37896
2.37601
2.37372
2.3723
2.37392
2.38142
2.3847
2.38193
2.37746
2.37073
2.35806
2.34017
2.32582
2.31843
2.31386
2.31169
2.31323
2.3276
2.34102
2.34139
2.33864
2.33433
2.32493
2.30765
2.28639
2.27367
2.26772
2.26408
2.26247
2.26278
2.26652
2.27245
2.27896
2.28259
2.28426
2.28424
2.28256
2.27955
2.27335
2.25619
2.23251
2.22174
2.21891
2.21823
2.21881
2.22518
2.23917
2.25254
2.25618
2.2549
2.25131
2.24226
2.22122
2.19723
2.1846
2.17866
2.17611
2.17484
2.17645
2.18675
2.20478
2.21844
2.22058
2.21852
2.21415
2.20187
2.17323
2.14596
2.13366
2.12945
2.1276
2.12729
2.13435
2.15362
2.16664
2.17063
1.55758
1.51946
1.50489
1.50342
1.50416
1.51521
1.54165
1.55776
1.55716
1.55397
1.54821
1.53572
1.51193
1.477
1.45519
1.44815
1.44713
1.44809
1.45609
1.47239
1.4826
1.48206
1.47926
1.47504
1.46504
1.44405
1.4184
1.40854
1.40757
1.4079
1.41279
1.4166
1.41587
1.41495
1.41412
1.41292
1.41145
1.40872
1.40216
1.39382
1.38808
1.38383
1.37836
1.36925
1.35917
1.35626
1.35609
1.35799
1.36654
1.38886
1.50869
1.98616
2.58263
2.73467
2.76836
2.76458
2.77991
2.81484
2.83378
2.83986
2.83673
2.8217
2.80192
2.78345
2.77486
2.77486
2.77958
2.79641
2.80545
2.80054
2.78918
2.77119
2.75363
2.74706
2.74456
2.74307
2.74375
2.74813
2.74631
2.74028
2.73247
2.72246
2.71163
2.70383
2.69886
2.69558
2.69529
2.69816
2.69589
2.69012
2.68071
2.66162
2.63752
2.62507
2.62065
2.6171
2.61673
2.63036
2.65566
2.66629
2.66322
2.656
2.64165
2.61704
2.60031
2.59649
2.59484
2.59493
2.60463
2.62212
2.63046
2.629
2.62386
2.6151
2.60434
2.5982
2.59558
2.59523
2.59933
2.60108
2.59797
2.59354
2.58843
2.58417
2.58116
2.58042
2.57865
2.57386
2.5684
2.56158
2.55137
2.54113
2.53566
2.53234
2.52946
2.52738
2.52741
2.53413
2.54293
2.54182
2.53698
2.53012
2.5188
2.50305
2.48892
2.48165
2.47769
2.47425
2.47157
2.47053
2.47406
2.48491
2.49293
2.49272
2.49028
2.4854
2.47571
2.46132
2.4502
2.44534
2.44271
2.44076
2.44002
2.44266
2.44996
2.45458
2.45409
2.45172