/*--------------------------------*- C++ -*----------------------------------*\
  =========                 |
  \\      /  F ield         | OpenFOAM: The Open Source CFD Toolbox
   \\    /   O peration     | Website:  https://openfoam.org
    \\  /    A nd           | Version:  7
     \\/     M anipulation  |
\*---------------------------------------------------------------------------*/
FoamFile
{
    version     2.0;
    format      ascii;
    class       volScalarField;
    location    "3.2";
    object      T;
}
// * * * * * * * * * * * * * * * * * * * * * * * * * * * * * * * * * * * * * //

dimensions      [0 0 0 1 0 0 0];

internalField   nonuniform List<scalar> 
4128
(
1
1
1
1
1
1
1
1
1
1
1
1
1
1
1
1
1
1.37565
2.52965
2.74079
2.76729
2.79327
2.80756
2.81823
1
1
1
1
1
1
1
1
1
1
1
1
1
1
1
1
1
1.32785
2.49986
2.73406
2.76092
2.78484
2.79503
2.79669
1
1
1
1
1
1
1
1
1
1
1
1
1
1
1
1
1
1.19835
2.42285
2.71779
2.74473
2.76369
2.76761
2.77549
1
1
1
1
1
1
1
1
1
1
1
1
1
1
1
1
1
1.01685
2.28723
2.68372
2.71579
2.7381
2.75453
2.79503
1
1
1
1
1
1
1
1
1
1
1
1
1
1
1
1
1
1.00012
2.09466
2.62261
2.6741
2.68859
2.66099
2.59178
1
1
1
1
1
1
1
1
1
1
1
1
1
1
1
1
1
0.999999
1.79
2.52204
2.63071
2.62074
2.58398
2.47578
1
1
1
1
1
1
1
1
1
1
1
1
1
1
1
1
1
1
1.33545
2.33956
2.57661
2.55228
2.51321
2.382
1
1
1
1
1
1
1
1
1
1
1
1
1
1
1
1
1
1
1.032
2.12861
2.49641
2.47195
2.43892
2.32627
1
1
1
1
1
1
1
1
1
1
1
1
1
1
1
1
1
1
1.00014
1.68681
2.3448
2.43319
2.38397
2.29593
1
1
1
1
1
1
1
1
1
1
1
1
1
1
1
1
1
1
0.999999
1.13432
2.09933
2.3901
2.33394
2.26321
1
1
1
1
1
1
1
1
1
1
1
1
1
1
1
1
1
1
1
1.00395
1.67528
2.27075
2.2674
2.21693
1
1
1
1
1
1
1
1
1
1
1
1
1
1
1
1
1
1
1
1.00001
1.14388
2.00933
2.24522
2.18099
1
1
1
1
1
1
1
1
1
1
1
1
1
1
1
1
1
1
1
1
1.00457
1.4926
2.07799
2.15144
1
1
1
1
1
1
1
1
1
1
1
1
1
1
1
1
1
1
1
1
1.00002
1.07108
1.76802
2.10381
1
1
1
1
1
1
1
1
1
1
1
1
1
1
1
1
1
1
1
1
1
1.00135
1.24827
1.86794
1
1
1
1
1
1
1
1
1
1
1
1
1
1
1
1
1
1
1
1
1
1.00001
1.01548
1.41682
1
1
1
1
1
1
1
1
1
1
1
1
1
1
1
1
1
1
1
1
1
1
1.00017
1.05444
1
1
1
1
1
1
1
1
1
1
1
1
1
1
1
1
1
1
1
1
1
1
1
1.00115
1
1
1
1
1
1
1
1
1
1
1
1
1
1
1
1
1
1
1
1
1
1
1
1.00001
1
1
1
1
1
1
1
1
1
1
1
1
1
1
1
1
1
1
1
1
1
1
1
1
1
1
1
1
1
1
1
1
1
1
1
1
1
1
1
1
1
1
1
1
1
1
1
1
1
1
1
1
1
1
1
1
1
1
1
1
1
1
1
1
1
1
1
1
1
1
1
1
1
1
1
1
1
1
1
1
1
1
1
1
1
1
1
1
1
1
1
1
1
1
1
1
1
1
1
1
1
1
1
1
1
1
1
1
1
1
1
1
1
1
1
1
1
1
1
1
1
1
1
1
1
1
1
1
1
1
1
1
1
1
1
1
1
1
1
1
1
1
1
1
1
1
1
1
1
1
1
1
1
1
1
1
1
1
1
1
1
1
1
1
1
1
1
1
1
1
1
1
1
1
1
1
1
1
1
1
1
1
1
1
1
1
1
1
1
1
1
1
1
1
1
1
1
1
1
1
1
1
1
1
1
1
1
1
1
1
1
1
1
1
1
1
1
1
1
1
1
1
1
1
1
1
1
1
1
1
1
1
1
1
1
1
1
1
1
1
1
1
1
1
1
1
1
1
1
1
1
1
1
1
1
1
1
1
1
1
1
1
1
1
1
1
1
1
1
1
1
1
1
1
1
1
1
1
1
1
1
1
1
1
1
1
1
1
1
1
1
1
1
1
1
1
1
1
1
1
1
1
1
1
1
1
1
1
1
1
1
1
1
1
1
1
1
1
1
1
1
1
1
1
1
1
1
1
1
1
1
1
1
1
1
1
1
1
1
1
1
1
1
1
1
1
1
1
1
1
1
1
1
1
1
1
1
1
1
1
1
1
1
1
1
1
1
1
1
1
1
1
1
1
1
1
1
1
1
1
1
1
1
1
1
1
1
1
1
1
1
1
1
1
1
1
1
1
1
1
1
1
1
1
1
1
1
1
1
1
1
1
1
1
1
1
1
1
1
1
1
1
1
1
1
1
1
1
1
1
1
1
1
1
1
1
1
1
1
1
1
1
1
1
1
1
1
1
1
1
1
1
1
1
1
1
1
1
1
1
1
1
1
1
1
1
1
1
1
1
1
1
1
1
1
1
1
1
1
1
1
1
1
1
1
1
1
1
1
1
1
1
1
1
1
1
1
1
1
1
1
1
1
1
1.84985
1.37682
1.29042
1.35579
1.40273
1.4998
1.5897
1.6479
1.68097
1.72384
1.768
1.768
1.76458
1.75525
2.07948
2.70733
2.78189
2.7999
2.8244
2.84638
2.86172
2.87055
2.87574
2.88451
2.07039
1.76217
1.61812
1.58477
1.53638
1.51795
1.4975
1.4833
1.50319
1.54106
1.58519
1.62205
1.64793
1.65883
1.95432
2.62725
2.74964
2.7791
2.80965
2.83459
2.85324
2.86537
2.87174
2.87396
2.13983
1.95215
1.79536
1.69287
1.60315
1.52093
1.47832
1.43336
1.41721
1.43927
1.47053
1.49948
1.52168
1.53402
1.69541
2.45446
2.6707
2.72709
2.77129
2.80355
2.82764
2.84295
2.85202
2.8677
2.16941
2.0238
1.90081
1.79539
1.69984
1.60379
1.55197
1.50264
1.44785
1.43293
1.42898
1.42097
1.42434
1.43686
1.47997
2.24853
2.58705
2.65772
2.70672
2.7457
2.77812
2.80532
2.83656
2.89642
2.18583
2.07167
1.95992
1.86826
1.77433
1.68666
1.62878
1.57843
1.51384
1.46281
1.43528
1.4055
1.39642
1.4024
1.40682
1.96824
2.5179
2.59889
2.64439
2.68457
2.71492
2.74008
2.73355
2.70065
2.1781
2.08773
1.9926
1.91077
1.83092
1.75223
1.69161
1.6374
1.57951
1.52827
1.49253
1.45421
1.41974
1.41348
1.40197
1.56391
2.3846
2.54746
2.59115
2.62322
2.6418
2.65225
2.63422
2.55782
2.15562
2.08411
2.01129
1.94279
1.86828
1.79939
1.74551
1.69182
1.62902
1.58254
1.54323
1.50322
1.46266
1.43927
1.40798
1.41244
2.1401
2.49757
2.54294
2.56905
2.57493
2.56936
2.54704
2.44724
2.12989
2.07542
2.0122
1.95353
1.89494
1.83423
1.77884
1.72642
1.67056
1.62905
1.58911
1.54757
1.50511
1.48019
1.45036
1.42061
1.6939
2.36854
2.49376
2.52154
2.51929
2.50614
2.4729
2.38393
2.10645
2.05815
2.00795
1.95609
1.90159
1.84963
1.80356
1.7553
1.70278
1.66002
1.62007
1.58055
1.54523
1.52123
1.49104
1.44167
1.46138
2.09928
2.40876
2.47116
2.46602
2.44971
2.414
2.34578
2.08497
2.04198
1.99669
1.95149
1.90634
1.86051
1.81647
1.76929
1.72429
1.68642
1.65221
1.60624
1.57447
1.54934
1.5208
1.4828
1.45597
1.67031
2.23258
2.41636
2.41321
2.40019
2.36891
2.31558
2.05041
2.02367
1.98129
1.93979
1.89858
1.85762
1.81872
1.78035
1.7392
1.70258
1.6683
1.62714
1.59898
1.57451
1.54487
1.50807
1.47018
1.48801
1.96674
2.29882
2.35005
2.33614
2.31291
2.27462
1.88052
1.99869
1.96805
1.92496
1.88859
1.8561
1.8187
1.7785
1.74823
1.71642
1.68213
1.64275
1.61643
1.59184
1.56281
1.53013
1.50165
1.47744
1.62563
2.09053
2.27799
2.27183
2.2643
2.24065
1.5328
1.86961
1.95125
1.92078
1.877
1.84517
1.8142
1.78155
1.7515
1.72033
1.68515
1.65069
1.62923
1.60614
1.5759
1.54098
1.52413
1.49036
1.49695
1.81291
2.13579
2.22408
2.20971
2.18976
1.11477
1.59006
1.84658
1.90755
1.87718
1.84115
1.80461
1.77487
1.75043
1.72221
1.69035
1.65813
1.63529
1.61155
1.58433
1.55257
1.53891
1.51403
1.48302
1.55544
1.92671
2.14634
2.1458
2.13011
1.00421
1.17199
1.60923
1.81552
1.86577
1.8416
1.80149
1.76866
1.74558
1.72028
1.68709
1.66248
1.64302
1.61743
1.58801
1.55764
1.54779
1.5294
1.48745
1.48876
1.66344
1.97401
2.09651
2.08167
1.00003
1.00941
1.2116
1.60587
1.78215
1.82965
1.80409
1.7643
1.73935
1.71603
1.68462
1.66378
1.64393
1.62068
1.59024
1.56482
1.55354
1.53827
1.50166
1.47887
1.50641
1.76169
1.97737
2.04666
1
1.0001
1.01515
1.23201
1.59232
1.75194
1.79215
1.76747
1.73897
1.7119
1.67931
1.66233
1.64379
1.62191
1.59228
1.57106
1.55893
1.54122
1.51482
1.48163
1.48228
1.55176
1.80813
1.96646
1
1
1.00021
1.01964
1.2382
1.57468
1.71909
1.75738
1.7411
1.71365
1.67716
1.65777
1.64163
1.62158
1.59044
1.57587
1.56325
1.54418
1.51924
1.49229
1.4771
1.48202
1.59961
1.82357
1
1
1
1.00031
1.02205
1.23311
1.54949
1.68734
1.72935
1.7171
1.68413
1.65445
1.6382
1.61814
1.59013
1.57679
1.56402
1.54687
1.52062
1.4983
1.48602
1.4688
1.4834
1.63646
1
1
1
1
1.00037
1.02207
1.2184
1.52331
1.65909
1.70133
1.68993
1.66057
1.63935
1.61603
1.58861
1.57768
1.56422
1.54649
1.52055
1.50262
1.49435
1.47243
1.46092
1.49262
1
1
1
1
1
1.00039
1.01987
1.20059
1.49287
1.63081
1.67461
1.66626
1.64649
1.62007
1.5898
1.57735
1.56311
1.54623
1.51895
1.50663
1.49961
1.47977
1.45183
1.45628
1
1
1
1
1
1
1.00035
1.01692
1.17678
1.45492
1.59708
1.65136
1.64952
1.63172
1.59886
1.57793
1.5637
1.54548
1.51928
1.5107
1.50138
1.48559
1.45343
1.44691
1
1
1
1
1
1
1
1.00029
1.01292
1.15068
1.40374
1.56912
1.63522
1.63418
1.61493
1.58593
1.56859
1.54373
1.51993
1.51336
1.50156
1.48872
1.46426
1.44813
1
1
1
1
1
1
1
1
1.00019
1.00978
1.1172
1.35105
1.55252
1.61856
1.61334
1.59568
1.578
1.54957
1.52507
1.51515
1.50239
1.4903
1.46981
1.45537
1
1
1
1
1
1
1
1
1
1.00013
1.0065
1.08291
1.31543
1.53402
1.58158
1.59204
1.58761
1.56593
1.53663
1.51954
1.50762
1.49339
1.47251
1.46459
1
1
1
1
1
1
1
1
1
1
1.00008
1.00377
1.06183
1.28116
1.4791
1.55063
1.5794
1.57606
1.55451
1.53103
1.51794
1.49648
1.47574
1.4714
1
1
1
1
1
1
1
1
1
1
1
1.00004
1.00244
1.0427
1.2309
1.41834
1.52591
1.56781
1.56582
1.55141
1.53504
1.50567
1.4819
1.4754
1
1
1
1
1
1
1
1
1
1
1
1
1.00002
1.00126
1.02762
1.165
1.35327
1.51124
1.55945
1.55562
1.54649
1.52451
1.49608
1.48155
1
1
1
1
1
1
1
1
1
1
1
1
1
1.00001
1.00058
1.01429
1.10108
1.31635
1.48657
1.53482
1.53923
1.53364
1.51237
1.49094
1
1
1
1
1
1
1
1
1
1
1
1
1
1
1
1.00025
1.0058
1.07264
1.26935
1.45883
1.50707
1.52115
1.51762
1.50349
1
1
1
1
1
1
1
1
1
1
1
1
1
1
1
1
1.00007
1.00369
1.0495
1.21416
1.39347
1.48126
1.5068
1.51367
1
1
1
1
1
1
1
1
1
1
1
1
1
1
1
1
1
1.00005
1.00188
1.02736
1.14803
1.33226
1.43211
1.495
1
1
1
1
1
1
1
1
1
1
1
1
1
1
1
1
1
1
1.00001
1.00072
1.01155
1.0909
1.25507
1.40255
1
1
1
1
1
1
1
1
1
1
1
1
1
1
1
1
1
1
1
1
1.00018
1.00486
1.05032
1.18172
1
1
1
1
1
1
1
1
1
1
1
1
1
1
1
1
1
1
1
1
1
1.00006
1.00186
1.02424
1
1
1
1
1
1
1
1
1
1
1
1
1
1
1
1
1
1
1
1
1
1
1.00002
1.00073
2.01115
1.62163
1.55811
1.62732
1.76284
1.88252
1.98201
2.02576
2.02493
2.02596
2.04433
2.04624
2.0469
2.04714
2.04263
2.03026
2.00913
1.99019
1.9832
1.98237
1.98487
1.99019
1.99001
1.98589
1.97825
1.96725
1.95582
1.94875
1.9447
1.94371
1.94605
1.94699
1.94404
1.93662
2.16047
2.78231
2.9042
2.93021
2.94584
2.94832
2.94374
2.93868
2.93466
2.93443
2.93533
2.93229
2.92265
2.91021
2.8982
2.8885
2.88165
2.87602
2.86839
2.85661
2.84075
2.82257
2.80383
2.78621
2.77034
2.75756
2.74865
2.74187
2.73688
2.73394
2.73043
2.71634
2.68739
2.64591
2.60418
2.57298
2.5514
2.54918
2.19482
1.99711
1.82663
1.78391
1.78771
1.77569
1.78655
1.81716
1.85679
1.89931
1.93438
1.95592
1.97151
1.97651
1.97779
1.97318
1.96426
1.95755
1.95506
1.95478
1.95667
1.95917
1.95769
1.95361
1.9479
1.94099
1.93445
1.93008
1.92791
1.92711
1.9272
1.92707
1.92429
1.91792
2.10841
2.74693
2.89376
2.92338
2.94306
2.94647
2.94172
2.93718
2.93291
2.9314
2.93104
2.92605
2.91413
2.89814
2.88201
2.86793
2.85713
2.84895
2.84133
2.83271
2.82285
2.8123
2.80155
2.7894
2.77138
2.74884
2.72642
2.70605
2.68842
2.67436
2.66405
2.65588
2.64971
2.6382
2.61749
2.59074
2.56204
2.54054
2.23675
2.09399
1.96684
1.8401
1.77097
1.72071
1.6763
1.68606
1.71865
1.76448
1.79849
1.82767
1.85401
1.87006
1.88238
1.89079
1.88797
1.8834
1.88463
1.88598
1.88672
1.88532
1.88461
1.8833
1.87908
1.87534
1.87504
1.87584
1.87823
1.87984
1.87849
1.87603
1.87319
1.8679
1.98603
2.65146
2.86115
2.89962
2.91678
2.91885
2.91678
2.91568
2.91366
2.91138
2.90644
2.89526
2.87984
2.86226
2.84265
2.82279
2.8034
2.78555
2.76998
2.7569
2.74665
2.74008
2.73723
2.73642
2.73602
2.7263
2.69999
2.66622
2.62767
2.59192
2.56625
2.55225
2.55444
2.56469
2.56853
2.56148
2.5456
2.51894
2.24735
2.1283
2.03476
1.91709
1.8184
1.77205
1.70872
1.67476
1.6703
1.67129
1.67556
1.69782
1.73007
1.75667
1.7749
1.79236
1.80654
1.8115
1.81458
1.81503
1.81173
1.80606
1.80513
1.80462
1.80248
1.80206
1.80254
1.80581
1.80875
1.80932
1.80901
1.80778
1.80621
1.80383
1.83331
2.50752
2.81644
2.86197
2.86568
2.86228
2.8562
2.85224
2.84863
2.84454
2.83619
2.81975
2.80053
2.78572
2.77224
2.75563
2.73516
2.71065
2.684
2.65786
2.63514
2.61937
2.61126
2.61087
2.61516
2.61683
2.60363
2.57709
2.54741
2.5121
2.47941
2.45845
2.4495
2.45337
2.46297
2.46732
2.45774
2.43614
2.25293
2.15518
2.06885
1.97926
1.88292
1.81813
1.76069
1.70146
1.67275
1.64509
1.63143
1.6362
1.65049
1.67069
1.68926
1.7065
1.72979
1.75046
1.76188
1.76694
1.76507
1.75923
1.75135
1.74467
1.74244
1.74244
1.7436
1.74788
1.75286
1.75304
1.75265
1.7503
1.74613
1.74287
1.74341
2.35191
2.77287
2.82054
2.80573
2.79209
2.77809
2.76766
2.75886
2.7499
2.73521
2.71112
2.68466
2.66645
2.65692
2.64788
2.6344
2.61415
2.58783
2.55799
2.52777
2.50232
2.48493
2.4735
2.46857
2.4682
2.46625
2.45178
2.43159
2.4101
2.38736
2.36745
2.35368
2.34486
2.34228
2.34034
2.32984
2.31173
2.24541
2.16691
2.08683
2.01139
1.93686
1.8662
1.80731
1.7494
1.71036
1.67477
1.63586
1.62409
1.6208
1.61406
1.61912
1.63805
1.66721
1.69447
1.70804
1.71457
1.7221
1.72232
1.71902
1.7136
1.71068
1.70914
1.7082
1.70924
1.71267
1.71324
1.71218
1.70811
1.70381
1.70143
1.69944
2.20537
2.73625
2.78643
2.75388
2.73129
2.71071
2.69032
2.67029
2.64879
2.62302
2.59234
2.56085
2.53694
2.52401
2.51693
2.50955
2.49703
2.47835
2.45452
2.42542
2.3974
2.37351
2.35648
2.34468
2.33895
2.33886
2.33775
2.32924
2.31389
2.29729
2.27802
2.25664
2.23909
2.22604
2.21541
2.20785
2.19625
2.22364
2.16428
2.09812
2.02926
1.96861
1.9078
1.84471
1.79072
1.74971
1.70761
1.66055
1.62241
1.60893
1.59343
1.59099
1.59733
1.61133
1.63441
1.65211
1.66318
1.67584
1.68349
1.68706
1.69149
1.69315
1.69192
1.68928
1.68707
1.68648
1.68502
1.68022
1.67515
1.67309
1.67179
1.67043
2.06285
2.69544
2.74975
2.69602
2.66141
2.63423
2.60973
2.5841
2.55445
2.52013
2.48395
2.45252
2.4269
2.40919
2.39915
2.39233
2.38419
2.37294
2.35846
2.33613
2.31229
2.28856
2.26635
2.25019
2.24048
2.23789
2.23864
2.23818
2.22977
2.21511
2.19938
2.17944
2.15503
2.13421
2.12203
2.11462
2.10824
2.20081
2.15218
2.09554
2.03469
1.98173
1.93065
1.87257
1.82041
1.78386
1.743
1.69707
1.65161
1.6293
1.60591
1.58593
1.58043
1.58198
1.57944
1.58202
1.59501
1.61629
1.63735
1.64951
1.6588
1.66639
1.67304
1.67309
1.67078
1.66646
1.66154
1.65404
1.64953
1.64754
1.64662
1.6496
1.90854
2.60281
2.69502
2.62594
2.57181
2.53517
2.51362
2.49815
2.47047
2.43464
2.39633
2.36626
2.34111
2.32085
2.3052
2.29335
2.2846
2.27609
2.26705
2.25522
2.23789
2.2198
2.20048
2.18129
2.16695
2.15797
2.15297
2.15127
2.14843
2.13912
2.12694
2.11339
2.0954
2.0738
2.05688
2.04926
2.04354
2.1591
2.12098
2.07563
2.02548
1.98092
1.93885
1.88984
1.84198
1.80553
1.76707
1.72318
1.68175
1.65311
1.62213
1.58825
1.5647
1.56229
1.55493
1.55061
1.5513
1.55914
1.57709
1.59672
1.61324
1.62511
1.63831
1.64726
1.64746
1.64454
1.6391
1.63192
1.62565
1.62321
1.62635
1.65009
1.83561
2.43388
2.61046
2.56549
2.49562
2.44239
2.41154
2.39847
2.37992
2.35208
2.3206
2.29378
2.27061
2.25056
2.23274
2.21648
2.2016
2.19002
2.18069
2.17259
2.16536
2.15496
2.14092
2.12506
2.10698
2.09136
2.08159
2.07392
2.06859
2.06547
2.05874
2.04996
2.04037
2.02742
2.01043
1.99758
1.98627
2.10693
2.07957
2.04646
2.00845
1.9732
1.93711
1.89498
1.85389
1.81887
1.78198
1.73782
1.69835
1.67286
1.64393
1.60865
1.57429
1.56469
1.55235
1.53815
1.52715
1.52783
1.52803
1.53266
1.54772
1.57154
1.59246
1.60686
1.61288
1.61338
1.61255
1.61005
1.60237
1.60242
1.62142
1.76815
1.98514
2.20312
2.40764
2.44806
2.42075
2.38084
2.34329
2.31144
2.28823
2.26458
2.23999
2.21768
2.19878
2.18383
2.16868
2.1509
2.13271
2.11638
2.10356
2.09403
2.08841
2.08466
2.07722
2.06518
2.05098
2.03337
2.01655
2.00606
1.99836
1.99313
1.9914
1.98785
1.98189
1.97572
1.96619
1.95251
1.92994
2.06025
2.03886
2.01302
1.98345
1.95489
1.92499
1.88867
1.85202
1.81793
1.78241
1.74353
1.70717
1.68345
1.655
1.62227
1.58809
1.57133
1.55315
1.52913
1.50763
1.50173
1.49954
1.50043
1.50325
1.51459
1.53321
1.55198
1.56363
1.56778
1.57521
1.57708
1.57663
1.59003
1.7022
1.95543
2.07762
2.0809
2.14452
2.24459
2.29502
2.29722
2.28228
2.25567
2.22431
2.19393
2.16358
2.14159
2.12381
2.10904
2.09668
2.08373
2.06727
2.04819
2.0326
2.02202
2.01439
2.01015
2.00788
2.00091
1.99028
1.97735
1.95959
1.94286
1.93324
1.92667
1.92436
1.92475
1.92252
1.91751
1.91159
1.9032
1.88128
2.02907
2.00476
1.97986
1.95452
1.92921
1.90273
1.87171
1.84068
1.81117
1.78103
1.74179
1.70786
1.68668
1.66364
1.63434
1.6003
1.58239
1.56381
1.53802
1.50727
1.49755
1.49106
1.47935
1.4744
1.47838
1.48171
1.48742
1.49853
1.51376
1.52535
1.53065
1.55301
1.64791
1.87587
2.02567
2.05479
2.03414
2.01519
2.03736
2.10033
2.15043
2.1659
2.16279
2.15351
2.13212
2.10785
2.08492
2.06024
2.0401
2.02639
2.01456
2.00022
1.98049
1.96071
1.94885
1.94187
1.93803
1.93793
1.93732
1.92991
1.91994
1.90736
1.8894
1.87334
1.86511
1.86057
1.86031
1.86102
1.85759
1.85308
1.84842
1.83474
1.99255
1.97515
1.94923
1.92599
1.90305
1.87855
1.8518
1.82415
1.79719
1.76955
1.73796
1.70669
1.68636
1.66373
1.63673
1.60736
1.59028
1.5717
1.54506
1.51014
1.49293
1.48306
1.46751
1.45176
1.44853
1.45102
1.45388
1.45496
1.46077
1.46862
1.4927
1.60333
1.79994
1.9656
2.00406
2.00675
1.99637
1.97045
1.94436
1.94323
1.96107
1.99436
2.02178
2.0334
2.02871
2.02186
2.01184
2.00174
1.99129
1.97473
1.95851
1.94044
1.91945
1.89562
1.87911
1.87138
1.86875
1.86982
1.87215
1.87184
1.86522
1.85521
1.84192
1.82451
1.81108
1.80492
1.80194
1.8019
1.79985
1.79617
1.79331
1.78639
1.94557
1.94216
1.92099
1.89858
1.87756
1.85584
1.83099
1.80545
1.78004
1.75761
1.72767
1.70096
1.68293
1.66202
1.63645
1.60723
1.59378
1.57534
1.54987
1.51692
1.49679
1.48675
1.4703
1.44765
1.43936
1.43663
1.42843
1.4238
1.428
1.45204
1.53438
1.74169
1.88741
1.94756
1.94232
1.93657
1.92872
1.91029
1.88946
1.87375
1.86467
1.84435
1.84997
1.86782
1.89046
1.90424
1.90435
1.90906
1.91359
1.91358
1.90696
1.89196
1.87293
1.84832
1.82653
1.81426
1.80762
1.80707
1.80968
1.81069
1.80742
1.80152
1.79355
1.78147
1.76652
1.75589
1.75193
1.75109
1.74969
1.74608
1.74326
1.73839
1.82474
1.90876
1.89805
1.87533
1.85245
1.83079
1.80908
1.78625
1.76334
1.74225
1.71786
1.69409
1.67527
1.65649
1.632
1.60513
1.59096
1.57457
1.55198
1.51951
1.50066
1.48992
1.475
1.4499
1.43586
1.4254
1.41109
1.40644
1.42173
1.52368
1.68969
1.82421
1.86943
1.87029
1.86581
1.85643
1.84686
1.83062
1.81523
1.80363
1.79206
1.77159
1.75328
1.73463
1.73898
1.75424
1.77372
1.79665
1.81563
1.82394
1.82416
1.82484
1.82016
1.80576
1.78808
1.77318
1.76344
1.75781
1.75758
1.75536
1.75082
1.74665
1.7418
1.73464
1.72528
1.71478
1.70786
1.70603
1.70408
1.70087
1.69813
1.69303
1.66103
1.80988
1.87154
1.85997
1.83522
1.81137
1.78746
1.76423
1.74761
1.72983
1.70573
1.68413
1.66911
1.64938
1.62577
1.59943
1.58707
1.57115
1.54871
1.52072
1.50227
1.49368
1.47828
1.45639
1.4373
1.42528
1.41596
1.42823
1.51243
1.69387
1.79208
1.82827
1.82414
1.81568
1.80677
1.78845
1.76453
1.74852
1.7413
1.7365
1.72688
1.70602
1.68694
1.67223
1.65808
1.64363
1.64664
1.65906
1.68639
1.71207
1.72937
1.74278
1.7435
1.7396
1.73556
1.73113
1.72382
1.71833
1.71181
1.70613
1.70202
1.69901
1.69475
1.68875
1.68317
1.67772
1.67023
1.66394
1.66144
1.65881
1.65564
1.64972
1.50973
1.6709
1.78718
1.83698
1.82283
1.7968
1.77444
1.75174
1.73227
1.71559
1.69472
1.67497
1.65974
1.64325
1.61915
1.59313
1.58092
1.56624
1.54674
1.51741
1.50321
1.49316
1.48038
1.45922
1.44148
1.43416
1.45671
1.53704
1.68786
1.80346
1.80459
1.80195
1.79226
1.78103
1.76177
1.7357
1.7132
1.69608
1.67739
1.66662
1.66053
1.64333
1.62539
1.61423
1.60142
1.58805
1.57574
1.56624
1.5698
1.58539
1.60195
1.62235
1.64743
1.65964
1.66468
1.67063
1.66888
1.66809
1.66491
1.66191
1.6602
1.65759
1.65353
1.64805
1.64395
1.63994
1.63543
1.62827
1.62182
1.61944
1.61677
1.61136
1.45438
1.52253
1.67282
1.76294
1.80112
1.78892
1.76561
1.73902
1.72333
1.70724
1.68591
1.66459
1.65091
1.63408
1.61195
1.58835
1.57508
1.56153
1.54217
1.51756
1.5017
1.4926
1.4787
1.4581
1.45771
1.4837
1.60332
1.71681
1.80136
1.80117
1.79444
1.79419
1.78544
1.7679
1.73818
1.70477
1.67511
1.65518
1.63928
1.62103
1.60254
1.59013
1.57923
1.56464
1.54854
1.53723
1.52414
1.51088
1.50186
1.50351
1.50435
1.5079
1.52255
1.54493
1.56323
1.58388
1.59606
1.60997
1.61195
1.60911
1.61044
1.61359
1.61328
1.61256
1.60939
1.60413
1.60061
1.59659
1.59004
1.5834
1.58015
1.57645
1.44356
1.45107
1.53031
1.66398
1.73605
1.76956
1.75971
1.73459
1.71381
1.69829
1.67631
1.65777
1.64408
1.6268
1.60329
1.58099
1.5726
1.55791
1.53899
1.51467
1.49928
1.49247
1.47888
1.4833
1.52187
1.64469
1.77645
1.80782
1.80178
1.79017
1.79135
1.79195
1.78016
1.75354
1.7202
1.68587
1.65535
1.63029
1.60917
1.58909
1.56929
1.55316
1.539
1.5264
1.51514
1.5005
1.48114
1.4635
1.45434
1.45279
1.4479
1.44105
1.44217
1.44457
1.45113
1.46766
1.4858
1.50146
1.52386
1.54286
1.55585
1.56096
1.56778
1.57161
1.57089
1.57126
1.57006
1.56799
1.56205
1.55205
1.54769
1.54585
1.44578
1.4336
1.44541
1.53392
1.65081
1.71522
1.7428
1.73013
1.70951
1.69256
1.66847
1.64891
1.63532
1.61969
1.59887
1.57829
1.56855
1.55351
1.53619
1.51216
1.49996
1.49563
1.51061
1.5917
1.70012
1.81434
1.82696
1.81481
1.80809
1.80259
1.80268
1.79837
1.77621
1.74203
1.70634
1.67333
1.64442
1.61828
1.59369
1.57062
1.54994
1.53123
1.5139
1.49756
1.48424
1.47328
1.45988
1.43741
1.4226
1.41456
1.40553
1.39862
1.39501
1.38958
1.38521
1.38785
1.39481
1.40038
1.40945
1.42828
1.45205
1.47315
1.49533
1.52374
1.53368
1.53447
1.53552
1.53687
1.53513
1.52748
1.51948
1.51715
1.45284
1.42866
1.427
1.44453
1.5324
1.63951
1.69654
1.71327
1.70288
1.68658
1.65986
1.64045
1.62698
1.61275
1.59172
1.57596
1.56531
1.55061
1.53212
1.51188
1.51338
1.54346
1.65082
1.77489
1.83814
1.83769
1.82354
1.80549
1.80815
1.80984
1.80457
1.7852
1.75682
1.72587
1.69579
1.6673
1.63998
1.61268
1.58509
1.55901
1.53644
1.51727
1.49941
1.4837
1.47015
1.45733
1.44259
1.42382
1.40505
1.3906
1.37851
1.37087
1.36611
1.36055
1.35467
1.35019
1.34482
1.3396
1.33405
1.33274
1.34024
1.36042
1.38343
1.41532
1.4541
1.48345
1.49456
1.49975
1.50225
1.49805
1.49082
1.4903
1.46001
1.43629
1.41725
1.42083
1.44675
1.53239
1.62671
1.67098
1.68655
1.67826
1.65573
1.63335
1.6192
1.60612
1.58437
1.57356
1.56022
1.54768
1.53478
1.54374
1.60893
1.71697
1.82977
1.86081
1.85705
1.84536
1.83346
1.82515
1.81812
1.81324
1.79598
1.76821
1.73801
1.71009
1.68434
1.65937
1.63397
1.60707
1.57871
1.55158
1.52862
1.50973
1.49302
1.47833
1.46487
1.45076
1.43438
1.41514
1.39408
1.37455
1.36044
1.35323
1.34791
1.34208
1.33637
1.32939
1.32043
1.30994
1.29856
1.28616
1.28153
1.2836
1.29411
1.31099
1.33629
1.37457
1.41
1.42544
1.44421
1.45686
1.45522
1.45909
1.4637
1.44681
1.41974
1.41743
1.42039
1.44764
1.52959
1.60778
1.65366
1.66477
1.65268
1.63063
1.6156
1.59994
1.57755
1.56707
1.55535
1.55791
1.58863
1.69876
1.80675
1.86572
1.86268
1.84634
1.83403
1.83479
1.84125
1.84186
1.83369
1.8106
1.78058
1.75044
1.72307
1.69869
1.6754
1.65186
1.62709
1.59979
1.56991
1.54251
1.52253
1.5067
1.49226
1.47869
1.46485
1.44919
1.43069
1.40882
1.38535
1.36442
1.35136
1.34397
1.33723
1.33077
1.32446
1.31684
1.30696
1.29368
1.27834
1.26408
1.25488
1.25267
1.25306
1.2554
1.25961
1.26909
1.29373
1.31814
1.33478
1.36155
1.38505
1.41304
1.46863
1.45391
1.43044
1.42071
1.41385
1.4165
1.44746
1.5229
1.59791
1.64072
1.64212
1.62978
1.61537
1.5929
1.56993
1.56812
1.58609
1.65578
1.77544
1.89081
1.89974
1.88676
1.86448
1.84352
1.82772
1.83847
1.85325
1.84874
1.82891
1.79773
1.76504
1.73634
1.71218
1.69057
1.66942
1.64751
1.62369
1.59637
1.56602
1.53841
1.51814
1.50229
1.48808
1.47472
1.46154
1.44783
1.43226
1.41263
1.38813
1.36453
1.34901
1.33905
1.33097
1.32335
1.31596
1.30805
1.29825
1.28586
1.2693
1.25008
1.23812
1.23382
1.23288
1.23259
1.23136
1.22873
1.22924
1.2335
1.23957
1.24962
1.2685
1.32342
1.47772
1.46292
1.44431
1.43399
1.41889
1.40596
1.41031
1.44478
1.51993
1.59167
1.62273
1.62005
1.61226
1.59408
1.59504
1.63968
1.759
1.85974
1.91598
1.90963
1.88112
1.85577
1.84771
1.84668
1.85461
1.87172
1.86852
1.8452
1.81228
1.77855
1.74849
1.7238
1.70268
1.68307
1.66372
1.643
1.61957
1.5925
1.56323
1.53717
1.51748
1.50197
1.48794
1.47436
1.46063
1.44554
1.42819
1.4083
1.38653
1.36642
1.35125
1.34022
1.33102
1.32165
1.31196
1.30302
1.29416
1.28343
1.26777
1.24672
1.23112
1.22349
1.21894
1.2168
1.21484
1.21196
1.20969
1.20814
1.20477
1.19614
1.18956
1.21045
1.49131
1.47412
1.45734
1.44674
1.4321
1.40802
1.40525
1.4093
1.44135
1.52193
1.57453
1.59639
1.6138
1.65565
1.74968
1.86059
1.95219
1.96219
1.94418
1.89984
1.85729
1.83743
1.84162
1.85941
1.88774
1.88843
1.87339
1.84098
1.80259
1.7676
1.73857
1.71496
1.69418
1.67428
1.65496
1.63504
1.61284
1.5876
1.56042
1.53541
1.51552
1.49984
1.48636
1.47379
1.46109
1.44705
1.43083
1.41161
1.38939
1.36738
1.34973
1.3368
1.32729
1.3197
1.31227
1.30414
1.29562
1.28558
1.27072
1.2489
1.2293
1.21922
1.21238
1.20706
1.20409
1.20057
1.19756
1.19522
1.19105
1.18359
1.1668
1.15346
1.50964
1.49312
1.4707
1.45572
1.44046
1.41701
1.40527
1.40392
1.40913
1.45004
1.52072
1.5911
1.72052
1.86083
1.94646
1.97067
1.9664
1.94758
1.92245
1.89336
1.86189
1.8576
1.86879
1.89277
1.90217
1.89059
1.86791
1.83628
1.80059
1.7656
1.73497
1.70934
1.68732
1.66686
1.64699
1.6272
1.60633
1.58385
1.55944
1.53501
1.51432
1.49794
1.48426
1.47194
1.45983
1.44673
1.43127
1.41229
1.39047
1.36923
1.35217
1.33947
1.32907
1.3192
1.30961
1.3008
1.29285
1.28453
1.27255
1.25439
1.2339
1.21923
1.20951
1.20149
1.19593
1.19181
1.18922
1.18669
1.1825
1.17497
1.16211
1.14106
1.51178
1.50586
1.48682
1.46916
1.45004
1.43114
1.41193
1.40329
1.40607
1.42818
1.54
1.74155
1.90719
1.99968
2.03944
2.01374
1.97012
1.92715
1.90482
1.89543
1.89528
1.90206
1.91306
1.91751
1.90613
1.88492
1.85798
1.82796
1.79501
1.76117
1.73031
1.70399
1.68191
1.66206
1.64258
1.62266
1.6015
1.57897
1.55523
1.53179
1.51087
1.49382
1.47945
1.46666
1.4547
1.44288
1.43013
1.41458
1.39387
1.37075
1.35172
1.33865
1.32881
1.32013
1.31196
1.30368
1.29455
1.2847
1.27441
1.26166
1.24193
1.22092
1.2089
1.20038
1.19343
1.18833
1.1843
1.18034
1.17551
1.16894
1.15916
1.13947
1.49498
1.50061
1.49214
1.4771
1.45986
1.4469
1.4267
1.42971
1.47222
1.59364
1.74786
1.85408
1.91384
1.96813
2.00744
2.00265
1.97444
1.93362
1.9192
1.92517
1.94053
1.94797
1.94252
1.92425
1.89971
1.87412
1.84695
1.81844
1.78651
1.75352
1.72487
1.70124
1.68125
1.66273
1.64446
1.62635
1.60674
1.58314
1.55635
1.53389
1.51989
1.50527
1.48858
1.47332
1.46024
1.44825
1.43553
1.41964
1.39798
1.37344
1.35365
1.34026
1.32999
1.32096
1.31277
1.30502
1.29678
1.28763
1.27748
1.26455
1.24495
1.2222
1.209
1.2011
1.19425
1.18828
1.18264
1.17698
1.17121
1.16551
1.15858
1.13912
1.3719
1.48033
1.47845
1.47272
1.47015
1.47197
1.49369
1.56636
1.69978
1.8279
1.85444
1.85081
1.86126
1.88364
1.92035
1.94475
1.94776
1.94207
1.95425
1.96544
1.97606
1.9702
1.94949
1.91938
1.89005
1.86252
1.83488
1.80574
1.77371
1.74237
1.71572
1.69342
1.67454
1.65698
1.63914
1.62076
1.60065
1.57786
1.55336
1.52994
1.50973
1.49447
1.48085
1.46834
1.4561
1.44393
1.43134
1.41708
1.39979
1.37932
1.35888
1.3425
1.33047
1.32102
1.31281
1.305
1.29684
1.28761
1.27643
1.26219
1.244
1.22461
1.21064
1.20251
1.19597
1.18939
1.18285
1.17716
1.1721
1.16647
1.15825
1.1368
1.12955
1.3336
1.42362
1.45985
1.53437
1.61008
1.68519
1.77252
1.8281
1.85108
1.83878
1.81707
1.79329
1.80016
1.83024
1.87712
1.9193
1.96517
2.00634
2.00061
1.98765
1.96729
1.94207
1.91473
1.88671
1.85879
1.83048
1.80024
1.76711
1.73486
1.70813
1.68737
1.67058
1.65461
1.63775
1.6195
1.59943
1.57737
1.55408
1.5297
1.50481
1.48963
1.48289
1.47378
1.46229
1.44995
1.43736
1.42441
1.41091
1.39437
1.37415
1.35502
1.34104
1.33094
1.32252
1.31451
1.306
1.29625
1.28501
1.27215
1.25661
1.23749
1.22079
1.21181
1.20554
1.19922
1.19297
1.18723
1.18166
1.17489
1.16504
1.14126
1.01179
1.11419
1.32005
1.50398
1.66322
1.81725
1.94283
1.99791
1.97703
1.91772
1.83628
1.78796
1.76159
1.75282
1.76658
1.8231
1.91629
1.99186
2.04555
2.03808
2.00804
1.97162
1.94124
1.91454
1.88804
1.86067
1.83128
1.79837
1.76335
1.73099
1.70524
1.68582
1.66923
1.65242
1.6343
1.61538
1.59671
1.57769
1.55584
1.53136
1.50923
1.49131
1.47456
1.46064
1.44771
1.43423
1.42061
1.40832
1.39725
1.38423
1.366
1.34501
1.32948
1.31913
1.3107
1.30298
1.29486
1.28541
1.27444
1.26153
1.24463
1.22386
1.20821
1.20046
1.19467
1.18895
1.18341
1.17809
1.17297
1.16639
1.15425
1.1256
)
;

boundaryField
{
    inlet
    {
        type            fixedValue;
        value           uniform 1;
    }
    outlet
    {
        type            inletOutlet;
        inletValue      uniform 1;
        value           nonuniform List<scalar> 
32
(
2.55247
2.54001
2.51555
2.43394
2.31071
2.19692
2.11115
2.0462
1.98684
1.92831
1.87851
1.83313
1.7863
1.73892
1.69343
1.64976
1.61131
1.57672
1.54639
1.51774
1.49062
1.45873
1.41183
1.32204
1.20939
1.15291
1.13921
1.13724
1.13648
1.13382
1.13801
1.12185
)
;
    }
    bottom
    {
        type            zeroGradient;
    }
    top
    {
        type            zeroGradient;
    }
    obstacle
    {
        type            zeroGradient;
    }
    defaultFaces
    {
        type            empty;
    }
}


// ************************************************************************* //
