/*--------------------------------*- C++ -*----------------------------------*\
  =========                 |
  \\      /  F ield         | OpenFOAM: The Open Source CFD Toolbox
   \\    /   O peration     | Website:  https://openfoam.org
    \\  /    A nd           | Version:  7
     \\/     M anipulation  |
\*---------------------------------------------------------------------------*/
FoamFile
{
    version     2.0;
    format      ascii;
    class       volVectorField;
    location    "3.2";
    object      U;
}
// * * * * * * * * * * * * * * * * * * * * * * * * * * * * * * * * * * * * * //

dimensions      [0 1 -1 0 0 0 0];

internalField   nonuniform List<vector> 
4128
(
(3 -1.83778e-17 0)
(3 4.05549e-18 0)
(3 -1.68983e-16 0)
(3 9.47112e-17 0)
(3 6.1237e-16 0)
(3 1.06321e-15 0)
(3 7.79609e-16 0)
(3 4.99714e-16 0)
(3 -1.13164e-16 0)
(3 1.91891e-16 0)
(3 -3.94792e-17 0)
(3 3.2439e-16 0)
(3 2.30458e-16 0)
(3 1.89789e-18 0)
(3 4.16439e-16 0)
(3 -5.11166e-16 0)
(3 -5.92835e-16 0)
(2.66515 0.0130281 0)
(0.878212 0.0305541 0)
(0.628369 0.0401439 0)
(0.525297 0.0490984 0)
(0.399397 0.0586721 0)
(0.257242 0.0660689 0)
(0.1076 0.0856283 0)
(3 -2.3068e-16 0)
(3 -2.15311e-16 0)
(3 2.77298e-16 0)
(3 6.32743e-16 0)
(3 1.13315e-15 0)
(3 1.25639e-15 0)
(3 8.51455e-16 0)
(3 2.45655e-16 0)
(3 -1.98694e-16 0)
(3 1.65745e-16 0)
(3 -1.67966e-16 0)
(3 1.04317e-15 0)
(3 8.53912e-16 0)
(3 3.56796e-16 0)
(3 5.74515e-16 0)
(3 4.5893e-16 0)
(3 -7.26905e-16 0)
(2.72004 0.0687846 0)
(0.890628 0.144579 0)
(0.609266 0.140195 0)
(0.501286 0.158668 0)
(0.376591 0.190223 0)
(0.238269 0.218677 0)
(0.0919559 0.272815 0)
(3 -2.4226e-16 0)
(3 -6.04641e-16 0)
(3 1.08179e-16 0)
(3 5.58869e-16 0)
(3 7.59436e-16 0)
(3 7.2944e-16 0)
(3 6.85453e-16 0)
(3 8.24757e-16 0)
(3 6.55525e-16 0)
(3 -3.26882e-16 0)
(3 -8.53448e-16 0)
(3 -5.31754e-16 0)
(3 -1.14012e-16 0)
(3 -1.98842e-17 0)
(3 2.98386e-16 0)
(3 2.96126e-16 0)
(3 -6.22613e-16 0)
(2.87966 0.112041 0)
(0.984337 0.263937 0)
(0.657618 0.244403 0)
(0.550682 0.272687 0)
(0.437611 0.321075 0)
(0.299838 0.359569 0)
(0.151273 0.456584 0)
(3 1.46764e-16 0)
(3 -9.13902e-17 0)
(3 2.3577e-16 0)
(3 2.97984e-16 0)
(3 4.724e-16 0)
(3 5.04902e-16 0)
(3 6.68823e-16 0)
(3 2.42379e-16 0)
(3 2.17076e-16 0)
(3 1.00761e-16 0)
(3 5.82547e-18 0)
(3 -4.46978e-16 0)
(3 -5.7731e-16 0)
(3 1.23987e-16 0)
(3 2.92684e-16 0)
(3 -1.87738e-16 0)
(3 -4.70709e-16 0)
(3.02588 0.0138508 0)
(1.17241 0.346235 0)
(0.752588 0.327296 0)
(0.649523 0.363003 0)
(0.544036 0.434453 0)
(0.360303 0.545428 0)
(0.199159 0.763386 0)
(3 1.70719e-16 0)
(3 6.9198e-16 0)
(3 4.07331e-16 0)
(3 2.74301e-16 0)
(3 2.33403e-16 0)
(3 -7.50726e-17 0)
(3 -5.03326e-16 0)
(3 -5.53989e-16 0)
(3 -1.28811e-16 0)
(3 1.14485e-16 0)
(3 3.88331e-16 0)
(3 4.01561e-17 0)
(3 2.16397e-16 0)
(3 1.64566e-16 0)
(3 -1.99339e-16 0)
(3 -1.15298e-16 0)
(3 -8.30288e-17 0)
(3.00197 8.49829e-06 0)
(1.45892 0.402486 0)
(0.806697 0.42874 0)
(0.693127 0.471103 0)
(0.612814 0.578837 0)
(0.559086 0.75973 0)
(0.664442 1.04921 0)
(3 -3.5494e-17 0)
(3 -3.52731e-17 0)
(3 -2.93957e-16 0)
(3 -9.33117e-17 0)
(3 8.2573e-17 0)
(3 -1.51894e-17 0)
(3 -5.50179e-16 0)
(3 -3.41687e-16 0)
(3 -1.49491e-17 0)
(3 -1.74746e-16 0)
(3 -3.52272e-16 0)
(3 -1.68348e-16 0)
(3 2.10294e-16 0)
(3 -2.02853e-17 0)
(3 -6.76674e-16 0)
(3 -5.3067e-16 0)
(3 -1.81541e-16 0)
(3.00001 -4.88393e-07 0)
(1.9776 0.451057 0)
(0.893352 0.543521 0)
(0.762402 0.55637 0)
(0.735753 0.655558 0)
(0.778857 0.786672 0)
(1.00176 0.926716 0)
(3 -4.34656e-16 0)
(3 -7.27874e-16 0)
(3 -8.57666e-16 0)
(3 -6.14897e-16 0)
(3 -8.33213e-17 0)
(3 3.32952e-16 0)
(3 6.29498e-16 0)
(3 8.75826e-16 0)
(3 1.04067e-15 0)
(3 9.34422e-16 0)
(3 3.32227e-16 0)
(3 4.33075e-16 0)
(3 3.7991e-16 0)
(3 1.45544e-16 0)
(3 -2.39453e-16 0)
(3 -3.27436e-16 0)
(3 -1.18147e-16 0)
(3 -5.73241e-07 0)
(2.78352 0.285085 0)
(1.10922 0.640676 0)
(0.894454 0.603451 0)
(0.883003 0.695819 0)
(0.964653 0.807524 0)
(1.21259 0.897246 0)
(3 2.04989e-16 0)
(3 2.70751e-16 0)
(3 6.4073e-16 0)
(3 5.43244e-16 0)
(3 2.49281e-16 0)
(3 3.07324e-16 0)
(3 6.85615e-16 0)
(3 1.00578e-15 0)
(3 9.79013e-16 0)
(3 8.98762e-16 0)
(3 8.76191e-16 0)
(3 2.04068e-16 0)
(3 -1.2796e-16 0)
(3 1.32584e-16 0)
(3 -6.9246e-17 0)
(3 -2.88471e-16 0)
(3 -5.27237e-16 0)
(3 -1.2088e-07 0)
(3.06875 0.0202666 0)
(1.50704 0.65624 0)
(1.01563 0.711354 0)
(1.0207 0.727217 0)
(1.09056 0.788677 0)
(1.29944 0.840011 0)
(3 1.02388e-16 0)
(3 6.26445e-16 0)
(3 7.84779e-16 0)
(3 8.88708e-16 0)
(3 4.44782e-16 0)
(3 1.54342e-16 0)
(3 4.31084e-16 0)
(3 3.8185e-17 0)
(3 -1.78714e-16 0)
(3 -4.28708e-16 0)
(3 2.95461e-16 0)
(3 6.17345e-16 0)
(3 1.08455e-16 0)
(3 -1.47653e-16 0)
(3 -1.26301e-16 0)
(3 -2.9798e-16 0)
(3 -3.81665e-16 0)
(3 -1.24785e-08 0)
(3.00313 0.000113373 0)
(2.22527 0.577109 0)
(1.15647 0.805949 0)
(1.10705 0.797693 0)
(1.19561 0.814859 0)
(1.36098 0.827677 0)
(3 -1.15805e-16 0)
(3 -1.25181e-15 0)
(3 -1.4994e-15 0)
(3 -1.13248e-15 0)
(3 -6.61559e-16 0)
(3 -4.91159e-16 0)
(3 -8.22416e-17 0)
(3 -9.89191e-17 0)
(3 -2.26225e-17 0)
(3 3.76198e-16 0)
(3 5.08047e-16 0)
(3 1.40222e-15 0)
(3 1.12538e-15 0)
(3 4.7167e-16 0)
(3 -2.75122e-16 0)
(3 -4.43949e-16 0)
(3 -2.04643e-16 0)
(3 -4.0104e-10 0)
(3.00001 -6.67207e-08 0)
(3.04307 0.124143 0)
(1.55124 0.818571 0)
(1.20854 0.791009 0)
(1.30035 0.802689 0)
(1.42262 0.808874 0)
(3 -2.09105e-16 0)
(3 -7.02152e-16 0)
(3 -7.94558e-16 0)
(3 -9.16844e-16 0)
(3 -7.41469e-16 0)
(3 -3.59228e-16 0)
(3 -3.05119e-16 0)
(3 4.81831e-16 0)
(3 3.1806e-16 0)
(3 5.11276e-16 0)
(3 -1.61276e-16 0)
(3 -2.51387e-16 0)
(3 2.4121e-16 0)
(3 3.94185e-16 0)
(3 -4.2907e-17 0)
(3 -2.46426e-16 0)
(3 1.26201e-16 0)
(3 -9.72962e-13 0)
(3 -4.38398e-07 0)
(3.01487 0.0031115 0)
(2.25979 0.651673 0)
(1.33538 0.871424 0)
(1.34413 0.861483 0)
(1.45523 0.847586 0)
(3 -1.83049e-16 0)
(3 3.28712e-16 0)
(3 2.13257e-16 0)
(3 -1.75296e-16 0)
(3 -6.96515e-16 0)
(3 -4.23956e-16 0)
(3 -4.14135e-17 0)
(3 2.4822e-16 0)
(3 -3.58317e-16 0)
(3 -1.14197e-15 0)
(3 -1.1697e-15 0)
(3 -1.32816e-15 0)
(3 -8.5869e-16 0)
(3 -1.54251e-16 0)
(3 2.11378e-16 0)
(3 3.71399e-16 0)
(3 7.5781e-16 0)
(3 -4.30248e-16 0)
(3 -9.26994e-08 0)
(3.00009 3.96145e-05 0)
(3.01309 0.134332 0)
(1.75681 0.855716 0)
(1.39647 0.868733 0)
(1.50939 0.853988 0)
(3 4.96915e-17 0)
(3 1.93385e-16 0)
(3 -2.54588e-16 0)
(3 -2.91548e-16 0)
(3 -2.90059e-16 0)
(3 -5.52701e-16 0)
(3 -3.04096e-16 0)
(3 -1.4741e-16 0)
(3 -7.73558e-17 0)
(3 -5.08179e-16 0)
(3 -1.05399e-16 0)
(3 -2.23803e-16 0)
(3 -4.31234e-16 0)
(3 -3.88023e-16 0)
(3 -1.61278e-16 0)
(3 -2.56227e-16 0)
(3 -2.56814e-16 0)
(3 -3.81412e-16 0)
(3 -9.40318e-09 0)
(3 6.95056e-09 0)
(3.00854 0.00602427 0)
(2.59348 0.55048 0)
(1.56514 0.915574 0)
(1.54607 0.910023 0)
(3 2.45551e-16 0)
(3 9.85862e-17 0)
(3 1.62253e-16 0)
(3 7.98139e-16 0)
(3 4.50786e-16 0)
(3 1.60567e-16 0)
(3 -1.16521e-16 0)
(3 -2.37963e-17 0)
(3 9.01814e-17 0)
(3 2.17007e-16 0)
(3 4.06081e-16 0)
(3 2.56917e-16 0)
(3 -2.39712e-16 0)
(3 -2.59857e-16 0)
(3 -4.48596e-17 0)
(3 -5.42828e-16 0)
(3 -9.97077e-16 0)
(3 -9.46004e-16 0)
(3 -1.30911e-10 0)
(3 -7.62253e-10 0)
(3.00003 7.95737e-05 0)
(3.02616 0.0643417 0)
(2.1039 0.763767 0)
(1.63131 0.915717 0)
(3 -5.93482e-17 0)
(3 1.9964e-16 0)
(3 3.60497e-16 0)
(3 1.62971e-16 0)
(3 6.51665e-17 0)
(3 -9.47911e-17 0)
(3 -7.19912e-16 0)
(3 -7.75583e-16 0)
(3 -6.35429e-18 0)
(3 1.16479e-15 0)
(3 7.74623e-16 0)
(3 -6.3311e-17 0)
(3 -2.61327e-16 0)
(3 -1.2161e-16 0)
(3 -2.13373e-16 0)
(3 -4.12339e-16 0)
(3 -8.24605e-16 0)
(3 6.4732e-16 0)
(3 -6.77098e-13 0)
(3 -1.69469e-10 0)
(3 7.12422e-08 0)
(3.00147 0.0030401 0)
(2.85033 0.271515 0)
(1.94562 0.856246 0)
(3 -1.60285e-16 0)
(3 9.91053e-17 0)
(3 1.25732e-16 0)
(3 -4.31211e-16 0)
(3 -6.24068e-16 0)
(3 -5.3018e-16 0)
(3 -2.41986e-16 0)
(3 -2.9586e-16 0)
(3 2.25655e-17 0)
(3 7.26467e-16 0)
(3 5.44513e-16 0)
(3 2.74321e-16 0)
(3 2.12019e-16 0)
(3 -1.33108e-15 0)
(3 -1.10975e-15 0)
(3 -9.73829e-16 0)
(3 3.61138e-17 0)
(3 6.65097e-16 0)
(3 -1.36275e-16 0)
(3 -1.63604e-11 0)
(3 2.7101e-12 0)
(3 1.65064e-05 0)
(3.00104 0.020831 0)
(2.61373 0.48136 0)
(3 1.66815e-16 0)
(3 -7.24684e-17 0)
(3 -2.41441e-16 0)
(3 -3.54418e-16 0)
(3 -3.37066e-16 0)
(3 4.95156e-16 0)
(3 6.41311e-16 0)
(3 5.61166e-16 0)
(3 -4.09897e-16 0)
(3 -9.41001e-16 0)
(3 4.09534e-18 0)
(3 2.18763e-16 0)
(3 -2.85509e-16 0)
(3 -1.19373e-15 0)
(3 -8.32913e-16 0)
(3 -7.17592e-17 0)
(3 9.34972e-16 0)
(3 1.32704e-15 0)
(3 1.37164e-15 0)
(3 -6.6356e-13 0)
(3 -6.51099e-13 0)
(3 1.28952e-08 0)
(2.99995 0.000449485 0)
(2.98022 0.0644501 0)
(3 4.08716e-16 0)
(3 2.52067e-16 0)
(3 3.31406e-16 0)
(3 5.96998e-16 0)
(3 1.71689e-15 0)
(3 1.69175e-15 0)
(3 8.23696e-16 0)
(3 -1.46035e-16 0)
(3 -6.89982e-16 0)
(3 -8.75933e-16 0)
(3 -5.41141e-16 0)
(3 -1.69927e-16 0)
(3 8.046e-17 0)
(3 3.76761e-16 0)
(3 5.28485e-16 0)
(3 1.52674e-15 0)
(3 2.76244e-15 0)
(3 2.46002e-15 0)
(3 2.32806e-15 0)
(3 -3.72928e-15 0)
(3 -2.04483e-13 0)
(3 4.17732e-12 0)
(3 1.01619e-06 0)
(2.99958 0.00257073 0)
(3 1.29619e-16 0)
(3 3.36501e-16 0)
(3 6.44842e-16 0)
(3 3.84094e-16 0)
(3 1.94445e-16 0)
(3 -5.38963e-17 0)
(3 -6.26935e-17 0)
(3 -2.60217e-16 0)
(3 -8.26693e-16 0)
(3 -1.1292e-15 0)
(3 -1.24314e-15 0)
(3 -8.36217e-16 0)
(3 -3.12328e-16 0)
(3 8.41171e-16 0)
(3 1.27018e-15 0)
(3 2.12495e-15 0)
(3 2.13932e-15 0)
(3 1.66233e-15 0)
(3 1.00107e-15 0)
(3 -2.30995e-16 0)
(3 -2.84181e-14 0)
(3 -2.90532e-14 0)
(3 8.20461e-10 0)
(3 1.3283e-05 0)
(3 -2.56283e-16 0)
(3 -4.55326e-16 0)
(3 -7.68911e-16 0)
(3 -4.16038e-16 0)
(3 -8.92168e-16 0)
(3 -1.2219e-15 0)
(3 -8.73804e-16 0)
(3 -2.2755e-16 0)
(3 -3.58352e-16 0)
(3 -1.3428e-15 0)
(3 -1.53339e-15 0)
(3 -1.30936e-15 0)
(3 2.34132e-16 0)
(3 1.72665e-15 0)
(3 1.9755e-15 0)
(3 1.84304e-15 0)
(3 1.60149e-15 0)
(3 1.45136e-15 0)
(3 4.74441e-17 0)
(3 -1.38407e-15 0)
(3 -2.82205e-15 0)
(3 -1.24614e-14 0)
(3 1.10036e-13 0)
(3 1.695e-08 0)
(3 -3.94248e-16 0)
(3 -6.26332e-16 0)
(3 -6.98221e-16 0)
(3 -2.71232e-16 0)
(3 1.87665e-17 0)
(3 -2.15569e-16 0)
(3 -6.6338e-16 0)
(3 5.71295e-17 0)
(3 5.26823e-16 0)
(3 6.18191e-17 0)
(3 -6.6502e-16 0)
(3 -5.51703e-16 0)
(3 4.08373e-16 0)
(3 9.58007e-16 0)
(3 1.36114e-15 0)
(3 9.63109e-16 0)
(3 2.45972e-16 0)
(3 3.25799e-16 0)
(3 -5.54256e-16 0)
(3 -1.51757e-15 0)
(3 -1.09321e-15 0)
(3 -2.90431e-15 0)
(3 -3.27255e-15 0)
(3 5.48426e-12 0)
(3 -3.47408e-17 0)
(3 4.05555e-16 0)
(3 3.78427e-16 0)
(3 -1.93352e-16 0)
(3 -3.49425e-16 0)
(3 1.96519e-17 0)
(3 1.68477e-16 0)
(3 -4.64574e-16 0)
(3 -6.10174e-18 0)
(3 -2.08124e-16 0)
(3 -7.13496e-16 0)
(3 -5.56929e-16 0)
(3 -6.52928e-16 0)
(3 2.59127e-16 0)
(3 4.15452e-16 0)
(3 -4.47767e-17 0)
(3 -1.51593e-15 0)
(3 -1.76548e-15 0)
(3 -1.22254e-15 0)
(3 -1.08503e-15 0)
(3 -8.84085e-16 0)
(3 -5.92284e-16 0)
(3 -2.16386e-15 0)
(3 -4.32094e-16 0)
(3 2.32924e-17 0)
(3 3.00472e-16 0)
(3 6.73608e-16 0)
(3 3.5784e-16 0)
(3 -1.53598e-16 0)
(3 -2.90686e-16 0)
(3 -1.50841e-16 0)
(3 -7.54338e-16 0)
(3 -1.0245e-15 0)
(3 -1.11398e-15 0)
(3 -1.20921e-15 0)
(3 -1.05904e-15 0)
(3 -3.07114e-16 0)
(3 2.1488e-16 0)
(3 4.41879e-17 0)
(3 -8.23867e-16 0)
(3 -1.52729e-15 0)
(3 -9.0918e-16 0)
(3 -6.10159e-16 0)
(3 -9.7851e-16 0)
(3 -1.57797e-15 0)
(3 -3.64306e-16 0)
(3 5.88483e-16 0)
(3 2.21128e-16 0)
(3 -2.62486e-16 0)
(3 -3.89137e-16 0)
(3 -3.80303e-16 0)
(3 3.11213e-17 0)
(3 1.76937e-16 0)
(3 -3.82725e-16 0)
(3 -4.76657e-16 0)
(3 9.05428e-17 0)
(3 6.79378e-17 0)
(3 1.15425e-16 0)
(3 3.96904e-16 0)
(3 6.19771e-17 0)
(3 -1.12075e-16 0)
(3 9.46553e-17 0)
(3 -1.46236e-16 0)
(3 -6.27192e-16 0)
(3 -5.98842e-16 0)
(3 -2.61942e-16 0)
(3 2.03043e-16 0)
(3 -6.96137e-17 0)
(3 3.22275e-16 0)
(3 9.36114e-16 0)
(3 1.94019e-15 0)
(3 1.7071e-15 0)
(3 -2.19943e-16 0)
(3 -3.92885e-16 0)
(3 -4.10411e-16 0)
(3 -4.20766e-16 0)
(3 -1.43789e-16 0)
(3 1.49909e-17 0)
(3 -3.31625e-17 0)
(3 2.94257e-16 0)
(3 5.60633e-16 0)
(3 7.26556e-16 0)
(3 8.73483e-16 0)
(3 -8.9237e-17 0)
(3 -1.05058e-15 0)
(3 -1.53234e-15 0)
(3 -1.29435e-15 0)
(3 -1.11037e-15 0)
(3 -9.50499e-16 0)
(3 -1.12679e-16 0)
(3 3.49886e-16 0)
(3 7.75612e-16 0)
(3 1.36447e-15 0)
(3 1.52042e-15 0)
(3 1.20573e-15 0)
(3 7.35324e-16 0)
(3 1.0383e-16 0)
(3 -5.64569e-17 0)
(3 -3.69527e-17 0)
(3 -1.47451e-16 0)
(3 2.4827e-16 0)
(3 5.08514e-17 0)
(3 1.74452e-17 0)
(3 2.83188e-17 0)
(3 1.87198e-16 0)
(3 5.1762e-16 0)
(3 5.5433e-16 0)
(3 -6.56771e-17 0)
(3 -1.94335e-15 0)
(3 -2.62478e-15 0)
(3 -2.99123e-15 0)
(3 -2.63225e-15 0)
(3 -1.62581e-15 0)
(3 -6.75376e-16 0)
(3 -2.03679e-16 0)
(3 1.62436e-16 0)
(3 6.23029e-16 0)
(3 7.40954e-16 0)
(3 2.30256e-16 0)
(3 -6.28305e-16 0)
(3 5.49891e-16 0)
(3 1.0366e-15 0)
(3 4.16705e-16 0)
(3 3.38205e-16 0)
(3 -9.89736e-17 0)
(3 2.49708e-16 0)
(3 8.88961e-17 0)
(3 3.30781e-16 0)
(3 2.06011e-16 0)
(3 -1.38832e-16 0)
(3 -6.15096e-17 0)
(3 -2.1667e-16 0)
(3 -4.14176e-16 0)
(3 -1.80242e-15 0)
(3 -2.74316e-15 0)
(3 -3.00959e-15 0)
(3 -2.09095e-15 0)
(3 -9.1261e-16 0)
(3 8.67796e-17 0)
(3 9.7096e-16 0)
(3 1.8944e-15 0)
(3 1.76848e-15 0)
(3 9.97449e-16 0)
(3 5.36435e-16 0)
(3 -1.77702e-16 0)
(3 -1.76279e-16 0)
(3 -1.9793e-17 0)
(3 -6.61776e-17 0)
(3 -3.63391e-16 0)
(3 2.17851e-16 0)
(3 5.36495e-17 0)
(3 -4.55456e-16 0)
(3 -3.12299e-16 0)
(3 -5.65562e-16 0)
(3 -9.23937e-16 0)
(3 1.11721e-16 0)
(3 6.44899e-16 0)
(3 -7.69248e-18 0)
(3 -6.79796e-16 0)
(3 -9.98206e-16 0)
(3 -8.55287e-16 0)
(3 -5.35198e-16 0)
(3 4.39981e-16 0)
(3 1.19699e-15 0)
(3 1.72458e-15 0)
(3 1.64573e-15 0)
(3 1.34126e-15 0)
(3 2.96595e-16 0)
(3 -4.44325e-16 0)
(3 -7.41194e-16 0)
(3 -5.94251e-16 0)
(3 -5.24737e-16 0)
(3 3.03675e-16 0)
(3 1.78802e-16 0)
(3 1.04938e-16 0)
(3 -1.09946e-16 0)
(3 -7.18925e-16 0)
(3 -3.75349e-16 0)
(3 3.71462e-16 0)
(3 9.08e-16 0)
(3 7.63583e-16 0)
(3 6.99405e-16 0)
(3 6.41552e-16 0)
(3 8.01927e-16 0)
(3 7.90161e-16 0)
(3 8.35211e-16 0)
(3 4.01725e-16 0)
(3 -1.08734e-18 0)
(3 7.30643e-16 0)
(3 9.13429e-16 0)
(3 3.66877e-16 0)
(3 3.26299e-17 0)
(3 -2.42733e-17 0)
(3 -9.59681e-17 0)
(3 -7.70144e-19 0)
(3 1.82524e-16 0)
(3 4.72065e-17 0)
(3 1.3397e-16 0)
(3 2.29299e-16 0)
(3 5.34361e-16 0)
(3 6.53143e-16 0)
(3 7.1481e-16 0)
(3 9.48263e-16 0)
(3 6.01728e-16 0)
(3 2.18228e-16 0)
(3 -1.17499e-16 0)
(3 -2.41281e-16 0)
(3 -1.97658e-16 0)
(3 3.92444e-17 0)
(3 -2.48932e-16 0)
(3 -6.99797e-16 0)
(3 -7.11058e-16 0)
(3 -2.07878e-16 0)
(3 7.5528e-16 0)
(3 1.07127e-16 0)
(3 -2.75909e-17 0)
(3 1.59054e-16 0)
(3 2.176e-16 0)
(3 6.51949e-16 0)
(3 4.61129e-16 0)
(3 2.15402e-16 0)
(3 -3.37013e-16 0)
(3 -5.42373e-16 0)
(3 3.13192e-16 0)
(3 1.02814e-15 0)
(3 8.83433e-16 0)
(3 8.8821e-16 0)
(3 5.82343e-16 0)
(3 -3.01348e-16 0)
(3 -5.84989e-16 0)
(3 -3.33825e-17 0)
(3 3.00869e-16 0)
(3 -6.41599e-17 0)
(3 -6.13296e-16 0)
(3 -6.96018e-16 0)
(3 -2.04496e-16 0)
(3 -1.92706e-16 0)
(3 -6.48241e-16 0)
(3 -4.8553e-16 0)
(3 -6.81561e-16 0)
(3 1.15348e-16 0)
(3 7.02312e-16 0)
(3 4.86358e-16 0)
(3 3.54985e-16 0)
(3 5.44179e-16 0)
(3 -2.69521e-16 0)
(3 -4.4155e-16 0)
(3 -2.11783e-16 0)
(3 -2.70213e-16 0)
(3 -5.06471e-17 0)
(3 4.42913e-16 0)
(3 5.45584e-16 0)
(3 -4.48892e-17 0)
(3 -5.21336e-17 0)
(3 3.21502e-16 0)
(3 5.83812e-16 0)
(3 3.02127e-16 0)
(3 -1.02244e-16 0)
(3 -2.32856e-16 0)
(3 -1.49025e-16 0)
(3 -3.32447e-16 0)
(3 -1.02595e-15 0)
(3 -7.13602e-16 0)
(3 3.13428e-16 0)
(3 1.42533e-18 0)
(3 -2.27034e-16 0)
(3 -1.5872e-16 0)
(3 3.19533e-16 0)
(3 4.74033e-16 0)
(3 6.84737e-16 0)
(3 2.917e-16 0)
(3 3.07432e-17 0)
(3 -3.31556e-18 0)
(3 2.70291e-16 0)
(3 -5.6396e-17 0)
(3 -1.40871e-17 0)
(3 2.74454e-16 0)
(3 -2.06506e-16 0)
(3 2.23517e-16 0)
(3 5.97444e-16 0)
(3 6.99496e-16 0)
(3 4.25857e-16 0)
(3 3.83371e-16 0)
(3 2.63674e-16 0)
(3 -8.68546e-17 0)
(3 -1.02122e-16 0)
(3 -1.06047e-16 0)
(3 2.25611e-16 0)
(3 -2.41451e-17 0)
(3 -5.74838e-16 0)
(3 -7.38977e-16 0)
(3 -3.38898e-16 0)
(3 -2.41536e-16 0)
(3 -5.45921e-17 0)
(3 2.46758e-16 0)
(3 1.7638e-16 0)
(3 2.72812e-17 0)
(3 -6.24025e-16 0)
(3 -8.80276e-16 0)
(3 -2.92069e-16 0)
(3 5.76338e-16 0)
(3 5.97395e-16 0)
(3 4.46925e-16 0)
(3 4.16076e-16 0)
(3 6.5645e-16 0)
(3 1.10208e-15 0)
(3 4.0404e-16 0)
(3 6.98471e-17 0)
(3 6.15311e-17 0)
(3 3.98684e-16 0)
(3 -5.42579e-17 0)
(3 -1.25461e-15 0)
(3 -1.46315e-16 0)
(3 -2.29479e-16 0)
(3 -3.55217e-16 0)
(3 -7.77844e-16 0)
(3 -1.20615e-15 0)
(3 -8.54343e-16 0)
(3 5.34854e-16 0)
(3 7.66763e-16 0)
(3 2.85742e-16 0)
(3 -2.91051e-16 0)
(3 -4.93672e-16 0)
(3 1.99273e-16 0)
(3 7.88193e-16 0)
(3 8.73456e-16 0)
(3 2.6148e-16 0)
(3 -3.11569e-17 0)
(3 4.8565e-16 0)
(3 2.04085e-16 0)
(3 -2.54998e-16 0)
(3 -5.0605e-16 0)
(3 -2.60873e-16 0)
(3 -1.16619e-15 0)
(3 -9.82278e-16 0)
(3 -8.31538e-16 0)
(3 2.15256e-18 0)
(3 1.10228e-16 0)
(3 2.19485e-16 0)
(3 -2.05563e-16 0)
(3 -4.10633e-16 0)
(3 -1.95589e-16 0)
(3 3.74528e-16 0)
(3 4.9264e-16 0)
(3 5.93193e-16 0)
(3 7.26279e-16 0)
(3 4.0753e-16 0)
(3 5.6462e-16 0)
(3 5.60736e-16 0)
(3 4.57499e-16 0)
(3 6.07729e-16 0)
(3 5.1808e-16 0)
(3 5.3183e-16 0)
(3 6.34137e-16 0)
(3 3.0734e-16 0)
(3 -1.42238e-16 0)
(3 1.18082e-16 0)
(3 -2.90164e-16 0)
(3 -2.28166e-16 0)
(3 4.05297e-16 0)
(3 2.0031e-16 0)
(3 8.82878e-16 0)
(3 6.16823e-16 0)
(3 4.71381e-16 0)
(3 3.87719e-16 0)
(3 3.41513e-16 0)
(3 -5.21937e-16 0)
(3 -1.13911e-15 0)
(3 -7.08269e-16 0)
(3 -1.72407e-16 0)
(3 3.15402e-16 0)
(3 1.87599e-16 0)
(3 4.94153e-16 0)
(3 1.37106e-15 0)
(3 2.15931e-15 0)
(3 9.75341e-16 0)
(3 1.75195e-16 0)
(3 3.16405e-16 0)
(3 2.19276e-16 0)
(3 -6.4835e-16 0)
(3 -1.09362e-15 0)
(3 -3.76715e-16 0)
(3 -2.95548e-17 0)
(3 1.06009e-15 0)
(3 9.91778e-17 0)
(3 6.03334e-16 0)
(3 5.25013e-16 0)
(3 3.17155e-16 0)
(3 8.66454e-17 0)
(3 1.13826e-16 0)
(3 -8.99362e-17 0)
(3 -9.07606e-16 0)
(3 -1.30472e-15 0)
(3 -6.12043e-16 0)
(3 6.08421e-17 0)
(3 6.10155e-16 0)
(3 9.94023e-16 0)
(3 1.56421e-15 0)
(3 1.40011e-15 0)
(3 1.10687e-15 0)
(3 7.97554e-16 0)
(3 -5.90193e-17 0)
(3 2.16321e-16 0)
(3 1.0357e-16 0)
(3 -1.97783e-16 0)
(3 -2.18904e-16 0)
(3 -1.41608e-16 0)
(3 7.41128e-16 0)
(3 9.68795e-17 0)
(3 -9.63069e-17 0)
(3 -3.34106e-16 0)
(3 -4.69513e-16 0)
(3 -1.07911e-16 0)
(3 -5.88364e-17 0)
(3 -9.34472e-17 0)
(3 -1.84624e-16 0)
(3 -1.28623e-16 0)
(3 -5.93915e-16 0)
(3 -6.42178e-16 0)
(3 -3.32485e-16 0)
(3 1.6224e-16 0)
(3 -2.00576e-16 0)
(3 -6.2585e-16 0)
(3 -4.13135e-16 0)
(3 1.20783e-16 0)
(3 5.74788e-16 0)
(3 8.7701e-16 0)
(3 6.62166e-16 0)
(3 1.17045e-16 0)
(3 3.34191e-16 0)
(3 5.59405e-16 0)
(3 1.09454e-15 0)
(3 2.74393e-17 0)
(3 -1.40123e-16 0)
(3 -5.91502e-16 0)
(3 -4.79831e-16 0)
(3 -2.22569e-16 0)
(3 7.9868e-17 0)
(3 -2.60496e-16 0)
(3 1.51573e-17 0)
(3 5.83336e-16 0)
(3 -1.87854e-16 0)
(3 -6.71154e-16 0)
(3 -1.01263e-15 0)
(3 -8.46935e-16 0)
(3 -1.00695e-15 0)
(3 -9.37626e-16 0)
(3 -9.11487e-16 0)
(3 -3.71062e-16 0)
(3 3.022e-16 0)
(3 5.31347e-16 0)
(3 4.96833e-16 0)
(3 2.82117e-16 0)
(3 5.22688e-16 0)
(3 5.63756e-16 0)
(3 9.03129e-16 0)
(1.59862 1.10399 0)
(2.09015 1.1559 0)
(2.45267 0.877777 0)
(2.57145 0.46587 0)
(2.58997 0.183105 0)
(2.59967 -0.0129422 0)
(2.48429 -0.182883 0)
(2.40734 -0.227833 0)
(2.40752 -0.166009 0)
(2.38883 -0.139006 0)
(2.38876 -0.12605 0)
(2.39447 -0.0751105 0)
(2.40919 -0.0491377 0)
(2.40976 -0.0297833 0)
(1.93706 0.0118438 0)
(0.963564 0.0314888 0)
(0.770679 0.0407948 0)
(0.667858 0.0401471 0)
(0.576902 0.0388789 0)
(0.496555 0.0383783 0)
(0.409161 0.0392872 0)
(0.303209 0.0450342 0)
(0.18086 0.052437 0)
(0.070329 0.0629444 0)
(1.7268 0.854866 0)
(2.14881 0.642476 0)
(2.42227 0.221026 0)
(2.5343 -0.118576 0)
(2.5965 -0.237227 0)
(2.60042 -0.38785 0)
(2.5461 -0.472891 0)
(2.5541 -0.42176 0)
(2.52398 -0.325478 0)
(2.46904 -0.187744 0)
(2.44655 -0.120899 0)
(2.43112 -0.064914 0)
(2.43254 -0.0322404 0)
(2.44003 -0.0303245 0)
(2.05755 0.102277 0)
(0.987183 0.161603 0)
(0.77207 0.143746 0)
(0.676771 0.132795 0)
(0.58984 0.129228 0)
(0.510172 0.128881 0)
(0.421332 0.133923 0)
(0.313672 0.151956 0)
(0.191074 0.177462 0)
(0.0702983 0.213443 0)
(1.66511 0.846013 0)
(1.98232 0.702875 0)
(2.16944 0.535609 0)
(2.38304 0.223464 0)
(2.48905 0.0810014 0)
(2.50946 0.0152053 0)
(2.54509 -0.15992 0)
(2.59928 -0.192358 0)
(2.61293 -0.225544 0)
(2.58981 -0.235537 0)
(2.5633 -0.246008 0)
(2.54523 -0.204706 0)
(2.54499 -0.149579 0)
(2.52166 -0.0979584 0)
(2.38819 0.0609953 0)
(1.13002 0.246006 0)
(0.854441 0.219667 0)
(0.758999 0.208593 0)
(0.66643 0.209122 0)
(0.581488 0.216136 0)
(0.494091 0.225793 0)
(0.395949 0.252115 0)
(0.277221 0.289007 0)
(0.143173 0.376682 0)
(1.59709 0.819162 0)
(1.84293 0.741775 0)
(2.09274 0.546246 0)
(2.26683 0.343657 0)
(2.34699 0.290271 0)
(2.42497 0.18791 0)
(2.53973 -0.0410899 0)
(2.59304 -0.185719 0)
(2.62675 -0.190481 0)
(2.6504 -0.255707 0)
(2.65146 -0.308251 0)
(2.6426 -0.291665 0)
(2.62959 -0.246593 0)
(2.60566 -0.177375 0)
(2.64614 -0.136665 0)
(1.41681 0.301893 0)
(0.960745 0.29654 0)
(0.869828 0.277636 0)
(0.780284 0.279916 0)
(0.695366 0.293123 0)
(0.606251 0.304091 0)
(0.513157 0.34937 0)
(0.354057 0.456972 0)
(0.215581 0.674318 0)
(1.57104 0.802301 0)
(1.77409 0.74168 0)
(1.96003 0.63478 0)
(2.1097 0.511867 0)
(2.22959 0.425762 0)
(2.36928 0.283346 0)
(2.45495 0.121898 0)
(2.49574 0.0613435 0)
(2.52316 0.0545394 0)
(2.5805 -0.0491202 0)
(2.61414 -0.170748 0)
(2.63849 -0.183753 0)
(2.63654 -0.193768 0)
(2.63197 -0.19264 0)
(2.65484 -0.206748 0)
(1.9365 0.250031 0)
(1.05625 0.362261 0)
(0.942459 0.36518 0)
(0.870103 0.36942 0)
(0.79677 0.387257 0)
(0.720076 0.397628 0)
(0.652556 0.468035 0)
(0.592711 0.628271 0)
(0.710255 0.898698 0)
(1.58862 0.786098 0)
(1.74752 0.746888 0)
(1.8915 0.681362 0)
(2.05083 0.568579 0)
(2.17419 0.487567 0)
(2.25934 0.421556 0)
(2.3652 0.279739 0)
(2.44357 0.163784 0)
(2.48571 0.124879 0)
(2.54154 0.0289947 0)
(2.58534 -0.0981354 0)
(2.61525 -0.124039 0)
(2.62897 -0.153 0)
(2.63748 -0.22238 0)
(2.66255 -0.22968 0)
(2.60027 -0.0551409 0)
(1.26727 0.407176 0)
(1.03417 0.406179 0)
(0.970548 0.407874 0)
(0.913141 0.428482 0)
(0.856358 0.449724 0)
(0.818095 0.525198 0)
(0.846912 0.632055 0)
(1.04956 0.739862 0)
(1.5828 0.824012 0)
(1.7096 0.788615 0)
(1.84444 0.722865 0)
(1.96604 0.645422 0)
(2.06074 0.595497 0)
(2.18959 0.493558 0)
(2.29577 0.357826 0)
(2.34348 0.320271 0)
(2.37725 0.286166 0)
(2.46591 0.164683 0)
(2.52143 0.0458334 0)
(2.55475 0.0208128 0)
(2.5757 -0.0086163 0)
(2.60535 -0.0880346 0)
(2.63218 -0.126191 0)
(2.65043 -0.119368 0)
(1.67499 0.40125 0)
(1.09084 0.489736 0)
(1.01789 0.480249 0)
(0.978445 0.501284 0)
(0.953606 0.522361 0)
(0.952821 0.581008 0)
(1.03054 0.653794 0)
(1.24937 0.717155 0)
(1.60942 0.826586 0)
(1.71474 0.789595 0)
(1.82443 0.743453 0)
(1.93133 0.681987 0)
(2.02783 0.620367 0)
(2.13094 0.548103 0)
(2.22743 0.453437 0)
(2.28664 0.40393 0)
(2.34227 0.341411 0)
(2.42112 0.227096 0)
(2.46996 0.152522 0)
(2.48987 0.152096 0)
(2.52552 0.0981641 0)
(2.58636 -0.0148475 0)
(2.61979 -0.0813241 0)
(2.64754 -0.111215 0)
(2.41518 0.168696 0)
(1.28325 0.532151 0)
(1.11865 0.512532 0)
(1.07572 0.518554 0)
(1.05748 0.535624 0)
(1.07101 0.573583 0)
(1.15179 0.614768 0)
(1.33708 0.647897 0)
(1.62695 0.872031 0)
(1.71992 0.826261 0)
(1.80691 0.78216 0)
(1.88986 0.739886 0)
(1.984 0.681511 0)
(2.09214 0.592734 0)
(2.16637 0.525613 0)
(2.21016 0.504219 0)
(2.28364 0.442685 0)
(2.37164 0.319423 0)
(2.41942 0.251401 0)
(2.43148 0.251847 0)
(2.48362 0.189603 0)
(2.53542 0.0972914 0)
(2.56657 0.0676185 0)
(2.60571 0.00727794 0)
(2.61362 0.0208752 0)
(1.74227 0.515256 0)
(1.21886 0.600896 0)
(1.16293 0.595173 0)
(1.14649 0.600362 0)
(1.16713 0.612527 0)
(1.24514 0.633566 0)
(1.39306 0.638756 0)
(1.66374 0.897467 0)
(1.74397 0.854774 0)
(1.81382 0.8164 0)
(1.9032 0.752991 0)
(1.98732 0.6924 0)
(2.04792 0.654997 0)
(2.11206 0.611378 0)
(2.18754 0.547495 0)
(2.27872 0.456756 0)
(2.33525 0.373683 0)
(2.35793 0.365405 0)
(2.37608 0.348716 0)
(2.45513 0.261325 0)
(2.5089 0.146323 0)
(2.54101 0.129833 0)
(2.56955 0.106777 0)
(2.5973 0.0474915 0)
(2.43543 0.263251 0)
(1.44673 0.639215 0)
(1.29241 0.621911 0)
(1.27486 0.604098 0)
(1.28554 0.606257 0)
(1.343 0.611119 0)
(1.45006 0.608188 0)
(1.70639 0.927184 0)
(1.75279 0.90243 0)
(1.8386 0.846504 0)
(1.90409 0.80368 0)
(1.95628 0.769605 0)
(2.03307 0.708456 0)
(2.11594 0.635805 0)
(2.16886 0.595444 0)
(2.21302 0.552028 0)
(2.27988 0.473998 0)
(2.32936 0.426373 0)
(2.36368 0.394424 0)
(2.42579 0.311757 0)
(2.45768 0.242934 0)
(2.47648 0.251944 0)
(2.51668 0.216803 0)
(2.57041 0.110725 0)
(2.57244 0.117528 0)
(1.92138 0.548387 0)
(1.38135 0.69172 0)
(1.36718 0.680358 0)
(1.38295 0.671626 0)
(1.41866 0.663073 0)
(1.49158 0.645417 0)
(1.90976 0.912789 0)
(1.77085 0.928013 0)
(1.82893 0.896757 0)
(1.9003 0.851523 0)
(1.97258 0.790315 0)
(2.03862 0.734239 0)
(2.08225 0.712341 0)
(2.13005 0.671136 0)
(2.207 0.576872 0)
(2.26536 0.504101 0)
(2.29547 0.501813 0)
(2.32304 0.477436 0)
(2.38981 0.389766 0)
(2.43601 0.294696 0)
(2.46971 0.28319 0)
(2.48277 0.28524 0)
(2.53129 0.202692 0)
(2.55862 0.149817 0)
(2.43939 0.302934 0)
(1.67039 0.702058 0)
(1.4469 0.719133 0)
(1.4744 0.702652 0)
(1.50362 0.681712 0)
(1.55733 0.652935 0)
(2.45766 0.620941 0)
(1.90804 0.928868 0)
(1.84485 0.92948 0)
(1.89401 0.892696 0)
(1.9641 0.840359 0)
(2.03295 0.78312 0)
(2.08469 0.741423 0)
(2.12811 0.699295 0)
(2.18597 0.635283 0)
(2.23448 0.58696 0)
(2.2657 0.570688 0)
(2.31724 0.514068 0)
(2.37578 0.418481 0)
(2.40375 0.370871 0)
(2.42036 0.388707 0)
(2.45457 0.355303 0)
(2.50706 0.26183 0)
(2.54156 0.195171 0)
(2.53307 0.217497 0)
(2.15246 0.545507 0)
(1.58221 0.750644 0)
(1.55779 0.736392 0)
(1.58894 0.703365 0)
(1.62991 0.677378 0)
(2.93125 0.14088 0)
(2.37096 0.695727 0)
(1.93166 0.925519 0)
(1.91331 0.928239 0)
(1.96159 0.884731 0)
(2.03075 0.823267 0)
(2.06622 0.802709 0)
(2.12047 0.750681 0)
(2.18973 0.66419 0)
(2.23604 0.620254 0)
(2.25873 0.617581 0)
(2.28932 0.580752 0)
(2.34529 0.498073 0)
(2.38953 0.427403 0)
(2.41933 0.421835 0)
(2.44171 0.40064 0)
(2.48066 0.326703 0)
(2.51024 0.272163 0)
(2.53977 0.247412 0)
(2.47618 0.333896 0)
(1.90544 0.679613 0)
(1.61226 0.774086 0)
(1.62905 0.753706 0)
(1.67627 0.723424 0)
(2.99798 0.00776422 0)
(2.87179 0.222348 0)
(2.32114 0.731158 0)
(1.98262 0.922281 0)
(1.97066 0.923249 0)
(2.01465 0.881846 0)
(2.06379 0.843459 0)
(2.13397 0.775873 0)
(2.18553 0.70549 0)
(2.21177 0.695322 0)
(2.22955 0.686442 0)
(2.2906 0.613932 0)
(2.34536 0.513876 0)
(2.37647 0.487155 0)
(2.38341 0.508691 0)
(2.41471 0.471854 0)
(2.46672 0.374699 0)
(2.49214 0.326056 0)
(2.53742 0.292786 0)
(2.53107 0.306754 0)
(2.32857 0.490226 0)
(1.83445 0.773064 0)
(1.6753 0.781254 0)
(1.70897 0.761035 0)
(2.99997 7.7732e-05 0)
(2.99479 0.0153518 0)
(2.81617 0.284448 0)
(2.31579 0.746638 0)
(2.02816 0.917447 0)
(2.01803 0.920271 0)
(2.05705 0.887155 0)
(2.1249 0.825816 0)
(2.17846 0.754665 0)
(2.20501 0.743582 0)
(2.23107 0.721943 0)
(2.28889 0.651114 0)
(2.33052 0.571911 0)
(2.35815 0.55652 0)
(2.37095 0.559486 0)
(2.41426 0.506404 0)
(2.45452 0.414526 0)
(2.47317 0.387002 0)
(2.50268 0.387386 0)
(2.53631 0.332733 0)
(2.50877 0.354179 0)
(2.20141 0.607918 0)
(1.80062 0.789268 0)
(1.77361 0.789624 0)
(3 1.40973e-07 0)
(2.99991 0.0002442 0)
(2.9906 0.023126 0)
(2.78272 0.321041 0)
(2.32218 0.751215 0)
(2.07318 0.912335 0)
(2.06626 0.914155 0)
(2.10608 0.877149 0)
(2.16455 0.80993 0)
(2.19596 0.792358 0)
(2.2303 0.764086 0)
(2.29127 0.684209 0)
(2.32761 0.610362 0)
(2.35066 0.607829 0)
(2.35779 0.613983 0)
(2.40142 0.561791 0)
(2.44577 0.469954 0)
(2.47169 0.424747 0)
(2.49116 0.436656 0)
(2.52714 0.399827 0)
(2.52749 0.351858 0)
(2.45303 0.432146 0)
(2.08391 0.686604 0)
(1.83997 0.809126 0)
(3 8.07409e-11 0)
(3 5.78727e-07 0)
(2.99983 0.000492596 0)
(2.98697 0.0287527 0)
(2.76263 0.340263 0)
(2.35062 0.744479 0)
(2.11458 0.90144 0)
(2.10819 0.902888 0)
(2.13855 0.872186 0)
(2.18308 0.834485 0)
(2.23394 0.794296 0)
(2.29175 0.712793 0)
(2.31416 0.664894 0)
(2.32822 0.675912 0)
(2.34782 0.661796 0)
(2.40904 0.586949 0)
(2.44299 0.49688 0)
(2.46314 0.482378 0)
(2.46296 0.509576 0)
(2.50431 0.463971 0)
(2.53819 0.382582 0)
(2.53424 0.384301 0)
(2.38917 0.523769 0)
(2.05117 0.750512 0)
(3 6.93084e-15 0)
(3 4.80845e-10 0)
(3 1.41365e-06 0)
(2.99974 0.000726792 0)
(2.98401 0.03235 0)
(2.76785 0.339075 0)
(2.37938 0.728819 0)
(2.15087 0.889995 0)
(2.14498 0.894065 0)
(2.16667 0.874556 0)
(2.21493 0.836377 0)
(2.27057 0.767499 0)
(2.30373 0.712514 0)
(2.32532 0.711736 0)
(2.35132 0.692422 0)
(2.39991 0.626602 0)
(2.42723 0.554071 0)
(2.44783 0.543281 0)
(2.45495 0.554221 0)
(2.49334 0.505962 0)
(2.53321 0.415647 0)
(2.54873 0.396512 0)
(2.52634 0.42837 0)
(2.32243 0.611749 0)
(3 1.03804e-15 0)
(3 5.69936e-14 0)
(3 1.44886e-09 0)
(3 2.4846e-06 0)
(2.99968 0.000847787 0)
(2.98268 0.0340419 0)
(2.78756 0.316749 0)
(2.40591 0.707856 0)
(2.18607 0.881633 0)
(2.17871 0.888704 0)
(2.19838 0.869993 0)
(2.24803 0.814647 0)
(2.2896 0.757026 0)
(2.31003 0.758059 0)
(2.3415 0.733804 0)
(2.39547 0.659917 0)
(2.42339 0.592045 0)
(2.4437 0.588022 0)
(2.44814 0.59669 0)
(2.48108 0.550256 0)
(2.51575 0.472295 0)
(2.54896 0.435541 0)
(2.54963 0.438999 0)
(2.50471 0.482099 0)
(3 2.44414e-16 0)
(3 -1.14143e-16 0)
(3 2.23087e-13 0)
(3 2.76743e-09 0)
(3 3.36502e-06 0)
(2.99966 0.000838692 0)
(2.98373 0.032548 0)
(2.81092 0.286434 0)
(2.42757 0.689191 0)
(2.24102 0.862128 0)
(2.20628 0.876117 0)
(2.2184 0.861254 0)
(2.25757 0.816937 0)
(2.29184 0.795502 0)
(2.34293 0.756248 0)
(2.39462 0.678369 0)
(2.41272 0.636112 0)
(2.41991 0.650918 0)
(2.42437 0.645706 0)
(2.47632 0.582797 0)
(2.50642 0.509264 0)
(2.53299 0.487024 0)
(2.56334 0.466441 0)
(2.54818 0.473147 0)
(3 -5.46022e-16 0)
(3 -3.96306e-16 0)
(3 -7.32561e-16 0)
(3 5.17541e-13 0)
(3 3.70699e-09 0)
(3 3.73551e-06 0)
(2.9997 0.000696902 0)
(2.98514 0.0308157 0)
(2.84748 0.239217 0)
(2.46612 0.667374 0)
(2.26638 0.84856 0)
(2.23357 0.863858 0)
(2.24038 0.854953 0)
(2.27686 0.826456 0)
(2.32804 0.791739 0)
(2.37533 0.720563 0)
(2.38915 0.68966 0)
(2.39181 0.701242 0)
(2.41408 0.675513 0)
(2.46926 0.6091 0)
(2.4968 0.54264 0)
(2.51571 0.538507 0)
(2.533 0.540711 0)
(2.5638 0.486628 0)
(3 -4.32613e-16 0)
(3 -3.09731e-16 0)
(3 -1.03298e-15 0)
(3 1.21922e-16 0)
(3 7.80967e-13 0)
(3 3.94582e-09 0)
(3 3.2788e-06 0)
(2.99975 0.000579324 0)
(2.98952 0.0243578 0)
(2.87431 0.201207 0)
(2.49966 0.634678 0)
(2.31919 0.804302 0)
(2.26757 0.848671 0)