/*--------------------------------*- C++ -*----------------------------------*\
  =========                 |
  \\      /  F ield         | OpenFOAM: The Open Source CFD Toolbox
   \\    /   O peration     | Website:  https://openfoam.org
    \\  /    A nd           | Version:  7
     \\/     M anipulation  |
\*---------------------------------------------------------------------------*/
FoamFile
{
    version     2.0;
    format      ascii;
    class       volScalarField;
    location    "3.3";
    object      p;
}
// * * * * * * * * * * * * * * * * * * * * * * * * * * * * * * * * * * * * * //

dimensions      [1 -1 -2 0 0 0 0];

internalField   nonuniform List<scalar> 
4128
(
1
1
1
1
1
1
1
1
1
1
1
1
1
1
1
1
1
1
1
1
1
1
1
1
1
1
1
1
1
1
1
1
1
1
1
1
1
1
1
1
1
1
1
1
1
1
1
1
1
1
1.00002
1.00083
1.02301
1.277
2.32323
3.3224
3.6944
3.87697
3.88412
3.81817
3.82063
3.79625
3.72168
3.67295
3.66064
3.60486
3.52846
3.48473
3.43781
3.38706
3.38121
3.38019
3.35486
3.31334
3.26819
3.20549
3.14483
3.10993
3.07037
3.05503
3.04488
3.02779
3.00282
2.97567
2.93717
2.89559
1
1
1
1
1
1
1
1
1
1
1
1
1
1
1
1
1
1
1
1
1
1
1
1
1
1
1
1
1
1
1
1
1
1
1
1
1
1
1
1
1
1
1
1
1
1
1
1
1
1
1
1
1
1
1.00041
1.01582
1.24171
2.14478
3.01212
3.6234
3.88499
3.9195
3.85951
3.77816
3.72884
3.71346
3.70287
3.61706
3.55874
3.53392
3.49101
3.44761
3.43579
3.42483
3.38924
3.34102
3.28889
3.21597
3.15859
3.1366
3.11656
3.10254
3.08548
3.0607
3.03505
2.99364
2.95414
2.92018
1
1
1
1
1
1
1
1
1
1
1
1
1
1
1
1
1
1
1
1
1
1
1
1
1
1
1
1
1
1
1
1
1
1
1
1
1
1
1
1
1
1
1
1
1
1
1
1
1
1
1
1
1
1
1
1.00028
1.01282
1.17888
1.74262
2.60701
3.67178
3.91093
3.81559
3.76955
3.7694
3.78212
3.70946
3.62041
3.60919
3.60875
3.56172
3.51747
3.49933
3.46364
3.39841
3.34294
3.29266
3.23085
3.20206
3.19219
3.16906
3.14488
3.11614
3.0852
3.04424
3.00452
2.97699
2.94991
1
1
1
1
1
1
1
1
1
1
1
1
1
1
1
1
1
1
1
1
1
1
1
1
1
1
1
1
1
1
1
1
1
1
1
1
1
1
1
1
1
1
1
1
1
1
1
1
1
1
1
1
1
1
1
1
1.00017
1.00595
1.07218
1.40597
2.49139
3.61151
3.67268
3.75546
3.83302
3.82424
3.71461
3.64483
3.65105
3.64171
3.59607
3.57114
3.55442
3.48622
3.41538
3.36285
3.30334
3.25048
3.24966
3.24512
3.21717
3.1835
3.1505
3.10479
3.05028
3.02268
3.00966
2.98679
1
1
1
1
1
1
1
1
1
1
1
1
1
1
1
1
1
1
1
1
1
1
1
1
1
1
1
1
1
1
1
1
1
1
1
1
1
1
1
1
1
1
1
1
1
1
1
1
1
1
1
1
1
1
1
1
1
1.00003
1.00142
1.02964
1.29901
2.36429
3.24206
3.60823
3.8218
3.84211
3.77805
3.75343
3.72632
3.65188
3.60331
3.58978
3.5705
3.50721
3.45757
3.4115
3.34071
3.302
3.2984
3.28758
3.24781
3.2135
3.18004
3.12096
3.07264
3.06455
3.04941
3.02827
1
1
1
1
1
1
1
1
1
1
1
1
1
1
1
1
1
1
1
1
1
1
1
1
1
1
1
1
1
1
1
1
1
1
1
1
1
1
1
1
1
1
1
1
1
1
1
1
1
1
1
1
1
1
1
1
1
1
1.00001
1.00057
1.01722
1.25992
2.1509
2.97074
3.58449
3.79212
3.82543
3.8219
3.76693
3.69704
3.66215
3.63944
3.58333
3.5181
3.46672
3.42977
3.38005
3.36048
3.35869
3.3297
3.2761
3.22958
3.18033
3.12877
3.11795
3.12025
3.09965
3.07364
1
1
1
1
1
1
1
1
1
1
1
1
1
1
1
1
1
1
1
1
1
1
1
1
1
1
1
1
1
1
1
1
1
1
1
1
1
1
1
1
1
1
1
1
1
1
1
1
1
1
1
1
1
1
1
1
1
1
1
1
1.00034
1.0144
1.19942
1.73453
2.68654
3.59327
3.7265
3.70539
3.70288
3.68766
3.70436
3.69208
3.63159
3.56127
3.50784
3.45676
3.41605
3.40285
3.40317
3.36252
3.30736
3.25317
3.19398
3.16524
3.17657
3.17158
3.14506
3.10854
1
1
1
1
1
1
1
1
1
1
1
1
1
1
1
1
1
1
1
1
1
1
1
1
1
1
1
1
1
1
1
1
1
1
1
1
1
1
1
1
1
1
1
1
1
1
1
1
1
1
1
1
1
1
1
1
1
1
1
1
1
1.0002
1.00785
1.07783
1.42622
2.53502
3.30992
3.68478
3.7914
3.7434
3.6989
3.68224
3.66062
3.61644
3.54785
3.48159
3.44803
3.43606
3.43273
3.39176
3.34413
3.28551
3.2292
3.22702
3.22436
3.20309
3.16814
3.12401
1
1
1
1
1
1
1
1
1
1
1
1
1
1
1
1
1
1
1
1
1
1
1
1
1
1
1
1
1
1
1
1
1
1
1
1
1
1
1
1
1
1
1
1
1
1
1
1
1
1
1
1
1
1
1
1
1
1
1
1
1
1
1.00005
1.00176
1.02834
1.34757
2.21642
3.10327
3.65936
3.74359
3.7334
3.72217
3.70984
3.65868
3.58458
3.5246
3.49519
3.47415
3.45364
3.41364
3.375
3.32858
3.29673
3.28413
3.25463
3.21666
3.17248
3.13143
1
1
1
1
1
1
1
1
1
1
1
1
1
1
1
1
1
1
1
1
1
1
1
1
1
1
1
1
1
1
1
1
1
1
1
1
1
1
1
1
1
1
1
1
1
1
1
1
1
1
1
1
1
1
1
1
1
1
1
1
1
1
1
1.00001
1.00053
1.02175
1.23913
1.84616
2.96675
3.61362
3.68075
3.67397
3.67746
3.66463
3.62016
3.59378
3.561
3.52543
3.497
3.4526
3.41179
3.38336
3.36193
3.3243
3.27444
3.23181
3.18814
3.15323
1
1
1
1
1
1
1
1
1
1
1
1
1
1
1
1
1
1
1
1
1
1
1
1
1
1
1
1
1
1
1
1
1
1
1
1
1
1
1
1
1
1
1
1
1
1
1
1
1
1
1
1
1
1
1
1
1
1
1
1
1
1
1
1
1
1.00038
1.01175
1.11573
1.64057
2.8117
3.34666
3.62529
3.74473
3.72539
3.6787
3.6105
3.57426
3.57263
3.56361
3.51034
3.45483
3.40844
3.36558
3.32484
3.28602
3.25589
3.21889
3.1876
1
1
1
1
1
1
1
1
1
1
1
1
1
1
1
1
1
1
1
1
1
1
1
1
1
1
1
1
1
1
1
1
1
1
1
1
1
1
1
1
1
1
1
1
1
1
1
1
1
1
1
1
1
1
1
1
1
1
1
1
1
1
1
1
1
1
1.00013
1.00402
1.06248
1.53641
2.39799
3.12192
3.68615
3.73057
3.63658
3.6004
3.59578
3.61084
3.59494
3.53474
3.48411
3.43593
3.38402
3.32824
3.293
3.27248
3.24742
3.22397
1
1
1
1
1
1
1
1
1
1
1
1
1
1
1
1
1
1
1
1
1
1
1
1
1
1
1
1
1
1
1
1
1
1
1
1
1
1
1
1
1
1
1
1
1
1
1
1
1
1
1
1
1
1
1
1
1
1
1
1
1
1
1
1
1
1
1
1.00003
1.00162
1.04341
1.31295
1.90638
2.9971
3.61835
3.61096
3.6407
3.6332
3.63353
3.5873
3.53325
3.50407
3.47464
3.41767
3.36744
3.341
3.31511
3.28751
3.25965
1
1
1
1
1
1
1
1
1
1
1
1
1
1
1
1
1
1
1
1
1
1
1
1
1
1
1
1
1
1
1
1
1
1
1
1
1
1
1
1
1
1
1
1
1
1
1
1
1
1
1
1
1
1
1
1
1
1
1
1
1
1
1
1
1
1
1
1
1.00001
1.00079
1.01513
1.13083
1.65596
2.84618
3.34121
3.53975
3.67693
3.67858
3.6042
3.57261
3.55097
3.48643
3.43417
3.41621
3.40172
3.36046
3.3286
3.29888
1
1
1
1
1
1
1
1
1
1
1
1
1
1
1
1
1
1
1
1
1
1
1
1
1
1
1
1
1
1
1
1
1
1
1
1
1
1
1
1
1
1
1
1
1
1
1
1
1
1
1
1
1
1
1
1
1
1
1
1
1
1
1
1
1
1
1
1
1
1
1.00015
1.00472
1.06739
1.57519
2.62844
3.17823
3.55412
3.67296
3.67707
3.63466
3.55917
3.51383
3.50335
3.49103
3.43518
3.38932
3.35944
3.32593
1
1
1
1
1
1
1
1
1
1
1
1
1
1
1
1
1
1
1
1
1
1
1
1
1
1
1
1
1
1
1
1
1
1
1
1
1
1
1
1
1
1
1
1
1
1
1
1
1
1
1
1
1
1
1
1
1
1
1
1
1
1
1
1
1
1
1
1
1
1
1
1.00004
1.00229
1.05741
1.48105
2.17905
2.93152
3.60539
3.66985
3.60794
3.57716
3.56608
3.56708
3.49958
3.44026
3.41587
3.4005
3.36456
1
1
1
1
1
1
1
1
1
1
1
1
1
1
1
1
1
1
1
1
1
1
1
1
1
1
1
1
1
1
1
1
1
1
1
1
1
1
1
1
1
1
1
1
1
1
1
1
1
1
1
1
1
1
1
1
1
1
1
1
1
1
1
1
1
1
1
1
1
1
1
1
1.00002
1.00164
1.03565
1.22396
1.7149
2.8841
3.45036
3.53934
3.58351
3.62211
3.58191
3.49635
3.46866
3.46727
3.43696
3.40249
1
1
1
1
1
1
1
1
1
1
1
1
1
1
1
1
1
1
1
1
1
1
1
1
1
1
1
1
1
1
1
1
1
1
1
1
1
1
1
1
1
1
1
1
1
1
1
1
1
1
1
1
1
1
1
1
1
1
1
1
1
1
1
1
1
1
1
1
1
1
1
1
1
1.00001
1.00051
1.00918
1.08361
1.56899
2.66577
3.23447
3.49122
3.61411
3.60713
3.59388
3.56888
3.51123
3.46132
3.44608
1
1
1
1
1
1
1
1
1
1
1
1
1
1
1
1
1
1
1
1
1
1
1
1
1
1
1
1
1
1
1
1
1
1
1
1
1
1
1
1
1
1
1
1
1
1
1
1
1
1
1
1
1
1
1
1
1
1
1
1
1
1
1
1
1
1
1
1
1
1
1
1
1
1
1
1.00008
1.00262
1.05454
1.48757
2.35884
2.95752
3.46659
3.61685
3.60929
3.568
3.53838
3.52772
3.52287
1
1
1
1
1
1
1
1
1
1
1
1
1
1
1
1
1
1
1
1
1
1
1
1
1
1
1
1
1
1
1
1
1
1
1
1
1
1
1
1
1
1
1
1
1
1
1
1
1
1
1
1
1
1
1
1
1
1
1
1
1
1
1
1
1
1
1
1
1
1
1
1
1
1
1
1
1.00002
1.00174
1.04112
1.2991
1.83717
2.73712
3.51761
3.49686
3.46898
3.48272
3.52032
3.52836
1
1
1
1
1
1
1
1
1
1
1
1
1
1
1
1
1
1
1
1
1
1
1
1
1
1
1
1
1
1
1
1
1
1
1
1
1
1
1
1
1
1
1
1
1
1
1
1
1
1
1
1
1
1
1
1
1
1
1
1
1
1
1
1
1
1
1
1
1
1
1
1
1
1
1
1
1
1.00002
1.00079
1.01498
1.11094
1.54949
2.55411
3.34916
3.4579
3.5034
3.50646
3.50151
1
1
1
1
1
1
1
1
1
1
1
1
1
1
1
1
1
1
1
1
1
1
1
1
1
1
1
1
1
1
1
1
1
1
1
1
1
1
1
1
1
1
1
1
1
1
1
1
1
1
1
1
1
1
1
1
1
1
1
1
1
1
1
1
1
1
1
1
1
1
1
1
1
1
1
1
1
1
1
1.00015
1.00328
1.05533
1.39186
2.35343
3.11069
3.3701
3.50744
3.53249
1
1
1
1
1
1
1
1
1
1
1
1
1
1
1
1
1
1
1
1
1
1
1
1
1
1
1
1
1
1
1
1
1
1
1
1
1
1
1
1
1
1
1
1
1
1
1
1
1
1
1
1
1
1
1
1
1
1
1
1
1
1
1
1
1
1
1
1
1
1
1
1
1
1
1
1
1
1
1
1
1.00003
1.00142
1.03211
1.2871
2.07699
2.81133
3.26303
3.50227
1
1
1
1
1
1
1
1
1
1
1
1
1
1
1
1
1
1
1
1
1
1
1
1
1
1
1
1
1
1
1
1
1
1
1
1
1
1
1
1
1
1
1
1
1
1
1
1
1
1
1
1
1
1
1
1
1
1
1
1
1
1
1
1
1
1
1
1
1
1
1
1
1
1
1
1
1
1
1
1
1
1.00001
1.00072
1.01768
1.17094
1.69752
2.407
3.22564
1
1
1
1
1
1
1
1
1
1
1
1
1
1
1
1
1
1
1
1
1
1
1
1
1
1
1
1
1
1
1
1
1
1
1
1
1
1
1
1
1
1
1
1
1
1
1
1
1
1
1
1
1
1
1
1
1
1
1
1
1
1
1
1
1
1
1
1
1
1
1
1
1
1
1
1
1
1
1
1
1
1
1
1.00025
1.00622
1.07211
1.37644
2.13626
1
1
1
1
1
1
1
1
1
1
1
1
1
1
1
1
1
1
1
1
1
1
1
1
1
1
1
1
1
1
1
1
1
1
1
1
1
1
1
1
1
1
1
1
1
1
1
1
1
1
1
1
1
1
1
1
1
1
1
1
1
1
1
1
1
1
1
1
1
1
1
1
1
1
1
1
1
1
1
1
1
1
1
1
1.00005
1.00162
1.02729
1.21441
1
1
1
1
1
1
1
1
1
1
1
1
1
1
1
1
1
1
1
1
1
1
1
1
1
1
1
1
1
1
1
1
1
1
1
1
1
1
1
1
1
1
1
1
1
1
1
1
1
1
1
1
1
1
1
1
1
1
1
1
1
1
1
1
1
1
1
1
1
1
1
1
1
1
1
1
1
1
1
1
1
1
1
1
1
1.00001
1.00046
1.01162
1
1
1
1
1
1
1
1
1
1
1
1
1
1
1
1
1
1
1
1
1
1
1
1
1
1
1
1
1
1
1
1
1
1
1
1
1
1
1
1
1
1
1
1
1
1
1
1
1
1
1
1
1
1
1
1
1
1
1
1
1
1
1
1
1
1
1
1
1
1
1
1
1
1
1
1
1
1
1
1
1
1
1
1
1
1
1
1.00018
1
1
1
1
1
1
1
1
1
1
1
1
1
1
1
1
1
1
1
1
1
1
1
1
1
1
1
1
1
1
1
1
1
1
1
1
1
1
1
1
1
1
1
1
1
1
1
1
1
1
1
1
1
1
1
1
1
1
1
1
1
1
1
1
1
1
1
1
1
1
1
1
1
1
1
1
1
1
1
1
1
1
1
1
1
1
1
1
1
1
1
1
1
1
1
1
1
1
1
1
1
1
1
1
1
1
1
1
1
1
1
1
1
1
1
1
1
1
1
1
1
1
1
1
1
1
1
1
1
1
1
1
1
1
1
1
1
1
1
1
1
1
1
1
1
1
1
1
1
1
1
1
1
1
1
1
1
1
1
1
1
1
1
1
1
1
1
1
1
1
1
1
1
1
1
1
1
1
1
1
1
1
1
1
1
1
1
1
1
1
1
1
1
1
1
1
1
1
1
1
1
1
1
1
1
1
1
1
1
1
1
1
1
1
1
1
1
1
1
1
1
1
1
1
1
1
1
1
1
1
1
1
1
1
1
1
1
1
1
1
1
1
1
1
1
1
1
1
1
1
1
1
1
1
1
1
1
1
1
1
1
1
1
1
1
1
1
1
1
1
1
1
1
1
1
1
1
1
1
1
1
1
1
1
1
1
1
1
1
1
1
1
1
1
1
1
1
1
1
1
1
1
1
1
1
1
1
1
1
1
1
1
1
1
1
1
1
1
1
1
1
1
1
1
1
1
1
1
1
1
1
1
1
1
1
1
1
1
1
1
1
1
1
1
1
1
1
1
1
1
1
1
1
1
1
1
1
1
1
1
1
1
1
1
1
1
1
1
1
1
1
1
1
1
1
1
1
1
1
1
1
1
1
1
1
1
1
1
1
1
1
1
1
1
1
1
1
1
1
1
1
1
1
1
1
1
1
1
1
1
1
1
1
1
1
1
1
1
1
1
1
1
1
1
1
1
1
1
1
1
1
1
1
1
1
1
1
1
1
1
1
1
1
1
1
1
1
1
1
1
1
1
1
1
1
1
1
1
1
1
1
1
1
1
1
1
1
1
1
1
1
1
1
1
1
1
1
1
1
1
1
1
1
1
1
1
1
1
1
1
1
1
1
1
1
1
1
1
1
1
1
1
1
1
1
1
1
1
1
1
1
1
1
1
1
1
1
1
1
1
1
1
1
1
1
1
1
1
1
1
1
1
1
1
1
1
1
1
1
1
1
1
1
1
1
1
1
1
1
1
1
1
1
1
1
1
1
1
1
1
1
1
1
1
1
1
1
1
1
1
1
1
1
1
1
1
1
1
1
1
1
1
1
1
1
1
1
1
1
1
1
1
1
1
1
1
1
1
1
1
1
1
1
1
1
1
1
1
1
1
1
1
1
1
1
1
2.85848
2.83014
2.80923
2.78751
2.75623
2.71883
2.69234
2.67106
2.65045
2.63449
2.62012
2.60499
2.58013
2.53127
2.47087
2.43605
2.42142
2.41076
2.40544
2.39942
2.39359
2.38752
2.37457
2.33296
2.27159
2.22986
2.22125
2.23284
2.34597
2.90717
2.89087
2.86935
2.84892
2.82005
2.77678
2.74328
2.72402
2.70511
2.68899
2.67539
2.66106
2.63803
2.58646
2.52098
2.48261
2.46835
2.45635
2.44964
2.44719
2.4428
2.43569
2.42178
2.38445
2.32279
2.28019
2.2601
2.2468
2.24327
2.25533
2.41524
2.9273
2.90908
2.88296
2.84187
2.79599
2.77461
2.7595
2.74361
2.72927
2.71451
2.69194
2.64461
2.57333
2.52972
2.51729
2.50765
2.5
2.49606
2.49161
2.48468
2.46902
2.42774
2.36791
2.32258
2.30618
2.3009
2.2857
2.26646
2.25569
2.26906
2.97159
2.95004
2.9131
2.85859
2.82449
2.81163
2.7988
2.7831
2.76726
2.74523
2.70279
2.63224
2.57877
2.56616
2.55981
2.55403
2.54926
2.54282
2.53433
2.51702
2.47208
2.40838
2.36376
2.34622
2.34344
2.33767
2.31888
2.29282
2.27262
2.2641
3.00829
2.97889
2.93443
2.87984
2.86193
2.85399
2.83729
2.81703
2.79435
2.75781
2.69594
2.63536
2.61844
2.61386
2.60977
2.60468
2.59615
2.58585
2.56566
2.51787
2.45296
2.40601
2.3883
2.38576
2.38006
2.36454
2.33903
2.3203
2.3043
2.28539
3.03954
2.99218
2.93439
2.90335
2.90251
2.89402
2.87162
2.84367
2.80599
2.75298
2.69506
2.67271
2.66959
2.66858
2.66414
2.65318
2.63818
2.61192
2.56261
2.50019
2.45208
2.43441
2.43235
2.42619
2.40793
2.38018
2.36049
2.3487
2.34021
2.32451
3.0626
3.00706
2.95213
2.94189
2.94412
2.92518
2.89399
2.85437
2.80591
2.75665
2.72964
2.72566
2.7277
2.72672
2.71445
2.6935
2.65951
2.6091
2.54919
2.50059
2.48285
2.48219
2.47657
2.45552
2.42193
2.39865
2.38578
2.38
2.37837
2.36857
3.08213
3.03085
2.99118
2.98901
2.97653
2.94378
2.90212
2.85473
2.81278
2.78803
2.7807
2.78334
2.788
2.77639
2.74949
2.70748
2.65734
2.60042
2.55104
2.53306
2.53253
2.52775
2.50444
2.46584
2.43795
2.42462
2.41651
2.42068
2.41732
2.40791
3.10009
3.06389
3.04288
3.03135
2.99995
2.95405
2.9077
2.86921
2.84925
2.83906
2.8361
2.8436
2.83411
2.80069
2.7529
2.70496
2.65325
2.60499
2.5865
2.5852
2.57961
2.55269
2.51024
2.47849
2.46482
2.45656
2.46203
2.46296
2.45447
2.43295
3.1257
3.10331
3.08871
3.05926
3.01202
2.96389
2.92943
2.91031
2.90526
2.89566
2.89689
2.88678
2.85057
2.80089
2.74914
2.70391
2.66419
2.64333
2.63954
2.63378
2.60427
2.55708
2.52043
2.50689
2.49842
2.5055
2.51021
2.50143
2.47968
2.4338
3.16128
3.14232
3.1143
3.06827
3.01838
2.98703
2.9665
2.97048
2.96099
2.95153
2.93865
2.90143
2.85008
2.79555
2.74984
2.72208
2.70414
2.69534
2.6874
2.65796
2.60786
2.56562
2.55135
2.54303
2.55033
2.55924
2.55019
2.52754
2.48064
2.41343
3.20842
3.18257
3.13288
3.0765
3.04529
3.02557
3.0279
3.02438
3.00667
2.98417
2.94845
2.89851
2.84425
2.80092
2.77705
2.76406
2.75468
2.74156
2.71194
2.6601
2.61336
2.59765
2.59022
2.59736
2.60992
2.60055
2.57714
2.52945
2.45853
2.40724
3.23195
3.19452
3.14494
3.11093
3.09311
3.08815
3.08274
3.06277
3.0299
2.99095
2.94306
2.89318
2.85338
2.83234
2.82375
2.81424
2.79855
2.76651
2.71321
2.66272
2.64484
2.6387
2.64605
2.66209
2.65258
2.6279
2.57987
2.50571
2.44963
2.43142
3.25613
3.20594
3.17255
3.1568
3.15371
3.14283
3.12057
3.08198
3.0357
2.98522
2.93751
2.90038
2.88334
2.87849
2.87513
2.85614
2.82208
2.76789
2.71403
2.69336
2.68889
2.69623
2.71536
2.70736
2.67998
2.631
2.55558
2.49511
2.47446
2.4702
3.27802
3.24545
3.23159
3.21676
3.19642
3.16899
3.13339
3.09097
3.03967
2.98579
2.9454
2.93091
2.92817
2.93261
2.91383
2.87655
2.82263
2.76803
2.74412
2.74202
2.74945
2.76927
2.76371
2.73359
2.68292
2.60658
2.54221
2.51975
2.51614
2.51989
3.32155
3.30363
3.27798
3.24415
3.21594
3.18422
3.14919
3.10579
3.04919
2.99813
2.98181
2.977
2.97952
2.9611
2.92507
2.8757
2.8231
2.79661
2.79656
2.80559
2.82325
2.81745
2.78612
2.73553
2.66015
2.59196
2.56697
2.5647
2.56702
2.57898
3.38024
3.34605
3.30137
3.25861
3.2211
3.1909
3.15595
3.11289
3.06391
3.03932
3.03252
3.02855
3.01236
2.97789
2.931
2.87926
2.85036
2.85101
2.86093
2.87302
2.86337
2.83121
2.78396
2.71643
2.64672
2.61692
2.61579
2.61832
2.62704
2.62391
3.41782
3.35899
3.31702
3.27922
3.24183
3.21418
3.18163
3.13957
3.10843
3.09008
3.06596
3.04987
3.02926
2.99136
2.94049
2.90877
2.90624
2.91346
2.9162
2.89978
2.86566
2.82294
2.76734
2.70524
2.67027
2.6688
2.67315
2.67984
2.67591
2.65307
3.45444
3.37279
3.31674
3.27773
3.25167
3.24348
3.22443
3.19268
3.16526
3.13092
3.08146
3.06089
3.04481
3.0079
2.97431
2.96759
2.96765
2.96073
2.93438
2.89438
2.85196
2.80827
2.7603
2.72531
2.72175
2.7282
2.73534
2.73085
2.70743
2.65731
3.46363
3.40035
3.343
3.30177
3.29227
3.29289
3.27362
3.23527
3.19469
3.1423
3.09797
3.08546
3.0765
3.05031
3.03458
3.02597
3.01271
2.97405
2.9239
2.87964
2.84366
2.80785
2.77938
2.77401
2.78032
2.78965
2.78491
2.76115
2.70818
2.64292
3.45633
3.41549
3.37281
3.35011
3.34619
3.34747
3.31597
3.26498
3.20958
3.15353
3.13018
3.12554
3.12536
3.1112
3.09248
3.07062
3.02652
2.96689
2.91314
2.87576
2.84554
2.82736
2.82402
2.8317
2.84034
2.83558
2.81085
2.75711
2.69107
2.64805
3.50922
3.4773
3.43363
3.39793
3.38436
3.37919
3.3351
3.28106
3.22995
3.19494
3.18945
3.18766
3.17858
3.14808
3.1157
3.07695
3.02527
2.96554
2.9188
2.88833
2.87364
2.87284
2.88387
2.88644
2.88222
2.85631
2.80274
2.73698
2.69595
2.6853
3.55841
3.54275
3.4809
3.43828
3.43489
3.40901
3.34418
3.29726
3.26124
3.24709
3.24514
3.24199
3.21154
3.1649
3.12183
3.07664
3.02256
2.97025
2.93948
2.92581
2.92469
2.93617
2.93292
2.92497
2.89864
2.84511
2.781
2.74188
2.73149
2.7305
3.5551
3.50713
3.46098
3.4636
3.47004
3.41798
3.35278
3.3306
3.31281
3.2912
3.28264
3.26988
3.22582
3.17308
3.12953
3.08198
3.03
2.99734
2.98473
2.98113
2.9868
2.98017
2.96942
2.94181
2.88864
2.82402
2.78573
2.77328
2.7771
2.77903
3.17307
3.35944
3.42006
3.45808
3.48102
3.42979
3.38241
3.37643
3.36383
3.3222
3.29474
3.27544
3.22743
3.18215
3.14207
3.09518
3.06099
3.04983
3.04339
3.03705
3.0225
3.01094
2.9863
2.9374
2.87292
2.83041
2.81607
2.82039
2.82639
2.88792
1.91516
2.9088
3.24636
3.39484
3.45538
3.45535
3.4425
3.43391
3.38871
3.33335
3.31415
3.28988
3.23434
3.19444
3.16042
3.12688
3.11734
3.11008
3.09681
3.06951
3.05036
3.03078
2.99072
2.92903
2.87974
2.86567
2.86317
2.90371
3.14151
3.92579
1.13499
1.74971
2.60244
3.06087
3.39727
3.49726
3.48492
3.41635
3.36344
3.34872
3.35716
3.31388
3.25367
3.22173
3.20002
3.1807
3.17245
3.16069
3.12907
3.09389
3.07123
3.04266
2.99078
2.9365
2.91639
2.92822
3.07752
3.7127
4.95338
6.22033
1.00633
1.09092
1.5057
2.13196
2.90385
3.46041
3.4628
3.382
3.37988
3.39826
3.39021
3.31962
3.28111
3.27137
3.25895
3.23014
3.2124
3.19416
3.15097
3.11618
3.09218
3.0584
2.99654
2.97628
3.04401
3.46843
4.59757
5.98814
7.09087
7.29819
1.00008
1.00278
1.03999
1.23484
1.77656
2.84756
3.27138
3.30682
3.36017
3.41932
3.40437
3.34646
3.3415
3.34266
3.2961
3.25691
3.2434
3.21977
3.17288
3.14315
3.12223
3.07563
3.08331
3.34081
4.27929
5.74133
6.97525
7.57944
7.62746
7.51151
1
1.00002
1.00064
1.01167
1.10547
1.58254
2.55544
3.04019
3.2732
3.41126
3.42674
3.40588
3.38527
3.33953
3.30663
3.29605
3.29127
3.2341
3.18407
3.15761
3.16064
3.29029
4.0171
5.43512
6.83295
7.63477
7.71292
7.65558
7.51999
7.36758
1
1
1
1.00013
1.00383
1.05796
1.45817
2.24725
2.81041
3.2883
3.43362
3.4169
3.3558
3.33862
3.34417
3.35274
3.29968
3.22917
3.20072
3.26435
3.72579
5.04097
6.65027
7.717
8.14831
8.13735
7.94282
7.63552
7.37076
7.26619
1
1
1
1
1.00004
1.00193
1.04003
1.29511
1.79424
2.58431
3.32556
3.35381
3.32073
3.34493
3.36285
3.3616
3.28382
3.28592
3.5502
4.51769
6.2595
7.72116
8.04478
8.08818
8.09513
8.04571
7.87161
7.59746
7.343
7.25143
1
1
1
1
1
1.00002
1.00088
1.01617
1.11292
1.47448
2.46298
3.01995
3.21583
3.29623
3.37158
3.44395
3.59387
4.21446
5.73951
7.51805
8.42402
8.5792
8.44805
8.13951
7.91884
7.84521
7.76712
7.6337
7.45194
7.29474
1
1
1
1
1
1
1
1.00016
1.00364
1.04234
1.33975
2.13605
2.77385
3.11635
3.73197
4.45488
5.31871
6.80712
7.8366
8.48983
8.53975
8.3157
8.15255
8.04144
7.9228
7.7903
7.74312
7.70357
7.60504
7.43222
1
1
1
1
1
1
1
1
1.00003
1.00105
1.02497
1.29163
1.97094
3.13392
4.88807
6.92958
8.81652
10.2497
10.0894
9.45712
8.60275
8.0742
7.8967
7.88431
7.84932
7.78177
7.70225
7.66362
7.58779
7.43898
)
;

boundaryField
{
    inlet
    {
        type            fixedValue;
        value           nonuniform 0();
    }
    outlet
    {
        type            zeroGradient;
    }
    bottom
    {
        type            zeroGradient;
    }
    top
    {
        type            zeroGradient;
    }
    obstacle
    {
        type            zeroGradient;
    }
    defaultFaces
    {
        type            empty;
    }
    procBoundary13to9
    {
        type            processor;
        value           nonuniform List<scalar> 
119
(
1
1
1
1
1
1
1
1
1
1
1
1
1
1
1
1
1
1
1
1
1
1
1
1
1
1
1
1
1
1
1
1
1
1
1
1
1
1
1
1
1
1
1
1
1
1
1
1
1
1.00009
1.00352
1.04865
1.35001
2.46501
3.59347
3.74441
3.85152
3.91918
3.8907
3.77511
3.71863
3.73124
3.70141
3.64248
3.61922
3.59333
3.51955
3.4601
3.40883
3.34712
3.32156
3.31799
3.29982
3.27157
3.23959
3.19888
3.14382
3.09982
3.04696
3.00331
2.99505
2.986
2.96815
2.94481
2.91555
2.87507
1
1
1
2.83357
2.79857
2.77278
2.75271
2.7293
2.69915
2.66721
2.64014
2.6168
2.59574
2.57929
2.56335
2.54714
2.52324
2.47635
2.42018
2.39106
2.37821
2.36885
2.36105
2.35371
2.34914
2.34062
2.31915
2.26899
2.21961
2.21712
2.30093
2.73551
3.58617
)
;
    }
    procBoundary13to10
    {
        type            processor;
        value           nonuniform List<scalar> 3(3.57976 2.94373 2.44126);
    }
    procBoundary13to12
    {
        type            processor;
        value           nonuniform List<scalar> 
34
(
1
1
1
1
1
1
1
1
1
1
1
1
1
1
1
1
1
1
1
1
1
1
1
1
1
1
1
1
1
1
1
1
1
1
)
;
    }
    procBoundary13to14
    {
        type            processor;
        value           nonuniform List<scalar> 
32
(
2.28506
2.28453
2.31094
2.35178
2.38104
2.38388
2.36864
2.36525
2.39124
2.42733
2.47653
2.53473
2.57602
2.60218
2.60652
2.59372
2.59857
2.63608
2.68321
2.73038
2.77986
3.23776
5.17934
7.06514
7.28525
7.26308
7.22102
7.21957
7.23856
7.24373
7.28779
7.27239
)
;
    }
}


// ************************************************************************* //
