/*--------------------------------*- C++ -*----------------------------------*\
  =========                 |
  \\      /  F ield         | OpenFOAM: The Open Source CFD Toolbox
   \\    /   O peration     | Website:  https://openfoam.org
    \\  /    A nd           | Version:  7
     \\/     M anipulation  |
\*---------------------------------------------------------------------------*/
FoamFile
{
    version     2.0;
    format      ascii;
    class       volVectorField;
    location    "2.6";
    object      U;
}
// * * * * * * * * * * * * * * * * * * * * * * * * * * * * * * * * * * * * * //

dimensions      [0 1 -1 0 0 0 0];

internalField   nonuniform List<vector> 
4128
(
(3 1.00161e-16 0)
(3 -2.65306e-16 0)
(3 -2.18356e-16 0)
(3 9.60187e-17 0)
(3 -8.82202e-17 0)
(3 -2.07641e-16 0)
(3 -2.03317e-16 0)
(3 -1.30064e-17 0)
(3 -5.01356e-17 0)
(3 -3.66733e-16 0)
(3 -1.02564e-15 0)
(3 -1.11415e-15 0)
(3 -1.58778e-15 0)
(3 -1.84783e-15 0)
(3 -2.47272e-15 0)
(3 -2.08361e-15 0)
(3 -1.44295e-15 0)
(3 -7.67037e-16 0)
(3 -3.09928e-16 0)
(3 1.22878e-16 0)
(3 9.63026e-16 0)
(3 8.32287e-16 0)
(3 8.07874e-16 0)
(3 2.17938e-16 0)
(3 1.04627e-16 0)
(3 2.28426e-16 0)
(3 2.8805e-17 0)
(3 8.66777e-16 0)
(3 9.09218e-16 0)
(3 4.25678e-16 0)
(3 -1.5879e-16 0)
(3 -3.93079e-16 0)
(3 -1.01479e-16 0)
(3 6.84367e-17 0)
(3 7.56653e-17 0)
(3 1.96145e-16 0)
(3 -2.96421e-16 0)
(3 -1.42814e-15 0)
(3 -1.58014e-15 0)
(3 -1.02816e-15 0)
(3 -5.77348e-16 0)
(3 3.89518e-16 0)
(3 3.97454e-16 0)
(3 -1.25268e-16 0)
(3 -1.26335e-15 0)
(3 -1.44813e-15 0)
(3 -1.56883e-16 0)
(3 1.15385e-15 0)
(3 -1.66265e-16 0)
(3 -7.58318e-17 0)
(3 5.77141e-18 0)
(3 -6.57902e-18 0)
(3 2.51179e-16 0)
(3 4.19795e-16 0)
(3 1.63446e-16 0)
(3 -2.22861e-17 0)
(3 1.36649e-16 0)
(3 1.62429e-16 0)
(3 -1.95863e-16 0)
(3 -2.96874e-16 0)
(3 -4.84095e-16 0)
(3 -1.05599e-15 0)
(3 -1.67858e-15 0)
(3 -1.45632e-15 0)
(3 -1.02415e-15 0)
(3 -1.03706e-16 0)
(3 2.50484e-16 0)
(3 7.22825e-16 0)
(3 1.35159e-15 0)
(3 1.33797e-15 0)
(3 1.12742e-15 0)
(3 8.53537e-16 0)
(3 4.5149e-16 0)
(3 2.72344e-16 0)
(3 7.55149e-16 0)
(3 6.98278e-16 0)
(3 3.67328e-16 0)
(3 -8.73706e-16 0)
(3 -1.68562e-15 0)
(3 -1.94087e-15 0)
(3 -1.69012e-15 0)
(3 -1.39571e-15 0)
(3 -1.34094e-15 0)
(3 -1.26038e-15 0)
(3 -8.52825e-16 0)
(3 -4.70787e-16 0)
(3 -5.08029e-16 0)
(3 -2.56889e-16 0)
(3 -3.87281e-16 0)
(3 -4.42622e-16 0)
(3 -7.42689e-16 0)
(3 -7.14842e-16 0)
(3 -7.97496e-16 0)
(3 -1.12118e-15 0)
(3 -1.30647e-15 0)
(3 -5.66738e-16 0)
(3 -2.63689e-16 0)
(3 -7.46283e-17 0)
(3 1.4041e-16 0)
(3 3.34547e-16 0)
(3 1.44002e-15 0)
(3 1.382e-15 0)
(3 9.74064e-16 0)
(3 4.66368e-16 0)
(3 3.08559e-16 0)
(3 1.60781e-17 0)
(3 -4.25937e-17 0)
(3 4.89947e-17 0)
(3 1.40612e-17 0)
(3 -8.70992e-16 0)
(3 -1.01672e-15 0)
(3 -5.38562e-16 0)
(3 -1.08992e-16 0)
(3 -1.42289e-16 0)
(3 1.51848e-16 0)
(3 1.40045e-15 0)
(3 1.35097e-15 0)
(3 1.35801e-15 0)
(3 1.0764e-15 0)
(3 1.0136e-15 0)
(3 6.04128e-16 0)
(3 2.96174e-16 0)
(3 2.32862e-16 0)
(3 -5.85409e-16 0)
(3 -5.48614e-16 0)
(3 -8.97906e-16 0)
(3 -1.35251e-15 0)
(3 -2.22137e-15 0)
(3 -2.93287e-15 0)
(3 -2.47309e-15 0)
(3 -1.92892e-15 0)
(3 -1.87471e-15 0)
(3 -7.1078e-16 0)
(3 -8.06281e-17 0)
(3 -1.90107e-17 0)
(3 -1.44502e-16 0)
(3 -8.42013e-16 0)
(3 -1.96937e-15 0)
(3 -2.08092e-15 0)
(3 -1.60393e-15 0)
(3 -1.14012e-15 0)
(3 -8.30188e-16 0)
(3 -9.64089e-16 0)
(3 -7.62257e-16 0)
(3 1.53634e-17 0)
(3 -1.73567e-17 0)
(3 1.10869e-16 0)
(3 3.63503e-16 0)
(3 4.63508e-16 0)
(3 5.7317e-16 0)
(3 5.51258e-16 0)
(3 4.7031e-16 0)
(3 6.50135e-16 0)
(3 5.27625e-16 0)
(3 3.61269e-16 0)
(3 1.49646e-16 0)
(3 -9.05989e-16 0)
(3 -1.70644e-15 0)
(3 -1.29319e-15 0)
(3 -1.35396e-15 0)
(3 -8.50748e-16 0)
(3 -6.57422e-16 0)
(3 6.45546e-16 0)
(3 8.89096e-16 0)
(3 6.76449e-16 0)
(3 1.6136e-16 0)
(3 3.77189e-17 0)
(3 2.09348e-16 0)
(3 2.39852e-16 0)
(3 -1.05002e-16 0)
(3 -5.33748e-16 0)
(3 -7.68977e-16 0)
(3 -7.64671e-16 0)
(3 -1.39488e-15 0)
(3 -2.05367e-15 0)
(3 -1.91258e-15 0)
(3 -2.27598e-15 0)
(3 -2.2823e-15 0)
(3 -2.10327e-15 0)
(3 -1.09607e-15 0)
(3 -7.88911e-16 0)
(3 -9.10899e-16 0)
(3 -1.20802e-15 0)
(3 -1.15984e-15 0)
(3 -1.6599e-15 0)
(3 -2.72045e-15 0)
(3 -1.89807e-15 0)
(3 -1.1809e-15 0)
(3 -3.27884e-16 0)
(3 1.51242e-16 0)
(3 7.11182e-17 0)
(3 -2.75714e-16 0)
(3 -1.56839e-17 0)
(3 3.82577e-17 0)
(3 1.7424e-16 0)
(3 2.36716e-16 0)
(3 2.96595e-16 0)
(3 2.48179e-16 0)
(3 4.18941e-16 0)
(3 9.11596e-16 0)
(3 1.04365e-15 0)
(3 6.16525e-16 0)
(3 6.25744e-16 0)
(3 4.06422e-16 0)
(3 -2.09108e-16 0)
(3 -5.54415e-16 0)
(3 -9.97712e-16 0)
(3 -1.5798e-15 0)
(3 -1.37054e-15 0)
(3 -7.03045e-16 0)
(3 -7.57652e-16 0)
(3 -8.4344e-16 0)
(3 -9.05732e-16 0)
(3 -7.31961e-16 0)
(3 7.19889e-17 0)
(3 8.38917e-16 0)
(3 9.75032e-16 0)
(3 5.0981e-16 0)
(3 2.53846e-16 0)
(3 -6.96343e-16 0)
(3 -1.76718e-15 0)
(3 -2.06291e-15 0)
(3 -1.49504e-15 0)
(3 -1.5597e-15 0)
(3 -1.73639e-15 0)
(3 -1.31815e-15 0)
(3 -7.47359e-16 0)
(3 1.88126e-16 0)
(3 2.94474e-16 0)
(3 6.77984e-16 0)
(3 -1.34842e-16 0)
(3 -9.79438e-16 0)
(3 -1.4077e-15 0)
(3 -1.25979e-15 0)
(3 -1.25779e-15 0)
(3 -8.61711e-16 0)
(3 -5.34717e-16 0)
(3 6.50976e-16 0)
(3 7.09677e-16 0)
(3 -6.59994e-17 0)
(3 1.02864e-17 0)
(3 7.26371e-17 0)
(3 -4.98559e-17 0)
(3 -1.8088e-16 0)
(3 -1.88295e-16 0)
(3 -1.9945e-16 0)
(3 -1.47671e-16 0)
(3 -7.79331e-18 0)
(3 2.92544e-16 0)
(3 3.74915e-16 0)
(3 7.42908e-16 0)
(3 2.98135e-16 0)
(3 1.2362e-16 0)
(3 -1.67609e-16 0)
(3 -9.60183e-16 0)
(3 -4.89419e-16 0)
(3 -4.14314e-16 0)
(3 -4.08309e-16 0)
(3 -1.30378e-15 0)
(3 -2.1022e-15 0)
(3 -1.82976e-15 0)
(3 -1.0157e-15 0)
(3 1.88068e-17 0)
(3 7.03457e-16 0)
(3 8.73656e-16 0)
(3 2.59517e-16 0)
(3 2.2479e-16 0)
(3 -6.97759e-17 0)
(3 -7.07497e-16 0)
(3 -7.89481e-16 0)
(3 -3.32434e-16 0)
(3 -3.07782e-16 0)
(3 -9.10953e-17 0)
(3 4.43721e-16 0)
(3 6.64305e-16 0)
(3 9.58759e-16 0)
(3 1.24281e-15 0)
(3 1.12547e-15 0)
(3 1.20258e-15 0)
(3 6.1156e-16 0)
(3 4.40779e-16 0)
(3 5.06884e-16 0)
(3 5.2691e-16 0)
(3 8.46687e-17 0)
(3 1.85615e-16 0)
(3 6.52945e-16 0)
(3 2.22846e-16 0)
(3 -8.90461e-16 0)
(3 2.57697e-16 0)
(3 2.52722e-16 0)
(3 -6.79874e-17 0)
(3 -5.39773e-16 0)
(3 -6.94907e-16 0)
(3 -8.07103e-16 0)
(3 -1.38897e-15 0)
(3 -4.72042e-16 0)
(3 1.07807e-16 0)
(3 4.17359e-16 0)
(3 4.90132e-16 0)
(3 1.00247e-15 0)
(3 1.15834e-15 0)
(3 7.19842e-16 0)
(3 -2.54497e-16 0)
(3 -2.50061e-17 0)
(3 -2.94393e-16 0)
(3 -9.26316e-16 0)
(3 -1.12306e-15 0)
(3 -1.31385e-15 0)
(3 -9.55373e-16 0)
(3 -8.21027e-16 0)
(3 -5.60415e-16 0)
(3 -9.30096e-16 0)
(3 -1.75779e-15 0)
(3 -1.54106e-15 0)
(3 -1.09505e-15 0)
(3 -5.08249e-16 0)
(3 -1.04158e-15 0)
(3 -8.0133e-16 0)
(3 -1.82156e-16 0)
(3 4.04708e-16 0)
(3 7.8368e-16 0)
(3 7.66638e-16 0)
(3 8.28614e-16 0)
(3 1.01972e-15 0)
(3 1.08864e-15 0)
(3 1.242e-15 0)
(3 1.64605e-15 0)
(3 1.94827e-15 0)
(3 1.73691e-15 0)
(3 1.17348e-15 0)
(3 1.01228e-15 0)
(3 1.26402e-15 0)
(3 1.4022e-15 0)
(3 1.10968e-15 0)
(3 4.97328e-16 0)
(3 -7.35048e-16 0)
(3 1.27738e-16 0)
(3 8.9803e-17 0)
(3 -1.54126e-16 0)
(3 9.96297e-17 0)
(3 -5.51158e-16 0)
(3 -1.00544e-15 0)
(3 -8.72775e-16 0)
(3 -6.02594e-16 0)
(3 -4.82733e-16 0)
(3 1.9316e-16 0)
(3 3.37361e-16 0)
(3 7.37672e-16 0)
(3 1.03245e-15 0)
(3 9.95606e-16 0)
(3 8.60409e-16 0)
(3 7.50577e-16 0)
(3 1.51433e-16 0)
(3 -1.49777e-16 0)
(3 -5.91894e-16 0)
(3 -2.01337e-16 0)
(3 -4.90562e-16 0)
(3 -1.09793e-15 0)
(3 -1.18474e-15 0)
(3 -1.26318e-15 0)
(3 -1.9807e-15 0)
(3 -1.72977e-15 0)
(3 -1.68301e-15 0)
(3 -1.28379e-15 0)
(3 -8.11471e-16 0)
(3 -3.23227e-16 0)
(3 -1.96107e-16 0)
(3 -1.30365e-16 0)
(3 6.96837e-16 0)
(3 9.09045e-16 0)
(3 9.84625e-16 0)
(3 1.29945e-15 0)
(3 1.09683e-15 0)
(3 1.11094e-15 0)
(3 1.58784e-15 0)
(3 2.59894e-15 0)
(3 2.54236e-15 0)
(3 1.70461e-15 0)
(3 1.44037e-15 0)
(3 1.66546e-15 0)
(3 1.28958e-15 0)
(3 7.33192e-16 0)
(3 6.00998e-16 0)
(3 -7.24896e-17 0)
(3 -2.43235e-16 0)
(3 9.75231e-17 0)
(3 3.85502e-16 0)
(3 3.93958e-16 0)
(3 -3.51863e-16 0)
(3 -9.17538e-16 0)
(3 -9.35609e-16 0)
(3 -8.59469e-16 0)
(3 -7.91334e-16 0)
(3 -5.85268e-16 0)
(3 -4.87671e-16 0)
(3 -9.01716e-17 0)
(3 1.72245e-16 0)
(3 7.22075e-16 0)
(3 1.29485e-15 0)
(3 1.18869e-15 0)
(3 7.6846e-16 0)
(3 3.47622e-16 0)
(3 -2.42495e-16 0)
(3 -2.4069e-16 0)
(3 -8.87166e-16 0)
(3 -1.74434e-15 0)
(3 -2.17868e-15 0)
(3 -2.20261e-15 0)
(3 -1.87447e-15 0)
(3 -1.54756e-15 0)
(3 -1.69711e-15 0)
(3 -1.66315e-15 0)
(3 1.32003e-16 0)
(3 -8.35258e-17 0)
(3 -7.18016e-16 0)
(3 -4.31674e-16 0)
(3 4.71464e-16 0)
(3 7.92349e-16 0)
(3 9.98021e-16 0)
(3 4.05618e-16 0)
(3 8.35274e-16 0)
(3 1.24202e-15 0)
(3 1.60157e-15 0)
(3 2.39509e-15 0)
(3 2.63099e-15 0)
(3 2.57128e-15 0)
(3 1.92586e-15 0)
(3 8.5949e-16 0)
(3 5.55572e-16 0)
(3 8.22681e-16 0)
(3 8.88714e-16 0)
(3 7.87241e-16 0)
(3 -1.97068e-16 0)
(3 -3.30338e-16 0)
(3 -2.18399e-16 0)
(3 -3.47904e-16 0)
(3 -3.05565e-16 0)
(3 -4.30325e-16 0)
(3 -9.27466e-17 0)
(3 -4.64312e-17 0)
(3 -3.44046e-16 0)
(3 -6.7445e-16 0)
(3 -7.45493e-16 0)
(3 -2.31799e-16 0)
(3 -1.80638e-16 0)
(3 2.97155e-16 0)
(3 1.30605e-15 0)
(3 1.54505e-15 0)
(3 4.88614e-16 0)
(3 -5.56283e-16 0)
(3 -1.40899e-16 0)
(3 -9.92568e-16 0)
(3 -1.59903e-15 0)
(3 -1.46893e-15 0)
(3 -1.32181e-15 0)
(3 -1.33011e-15 0)
(3 -6.46776e-16 0)
(3 -9.64087e-16 0)
(3 -1.02051e-15 0)
(3 -8.16521e-16 0)
(3 -6.00062e-16 0)
(3 -1.90438e-16 0)
(3 1.4315e-16 0)
(3 2.45234e-16 0)
(3 -1.02237e-16 0)
(3 -1.00974e-15 0)
(3 -8.58438e-16 0)
(3 -4.76392e-16 0)
(3 -1.64581e-16 0)
(3 1.06735e-15 0)
(3 4.97772e-16 0)
(3 2.69874e-17 0)
(3 1.16641e-15 0)
(3 2.68416e-15 0)
(3 1.94425e-15 0)
(3 7.2325e-16 0)
(3 1.68414e-16 0)
(3 9.54162e-16 0)
(3 2.08234e-15 0)
(3 2.68842e-15 0)
(3 1.34665e-16 0)
(3 -6.2352e-16 0)
(3 -1.25344e-15 0)
(3 -1.76955e-15 0)
(3 -1.53284e-15 0)
(3 -4.55941e-16 0)
(3 1.01128e-16 0)
(3 1.08666e-16 0)
(3 1.30059e-16 0)
(3 4.54598e-16 0)
(3 1.74561e-16 0)
(3 8.26013e-17 0)
(3 2.95281e-16 0)
(3 8.14834e-16 0)
(3 1.32837e-15 0)
(3 1.10951e-15 0)
(3 7.1697e-16 0)
(3 7.63529e-16 0)
(3 8.58232e-16 0)
(3 4.07981e-16 0)
(3 -4.52994e-16 0)
(3 -1.7636e-15 0)
(3 -2.00835e-15 0)
(3 -1.74418e-15 0)
(3 -9.91973e-16 0)
(3 7.84327e-16 0)
(3 1.02389e-15 0)
(3 2.32408e-16 0)
(3 -2.71864e-16 0)
(3 -5.61032e-16 0)
(3 2.05593e-16 0)
(3 1.02961e-15 0)
(3 1.01315e-15 0)
(3 -4.40931e-16 0)
(3 -1.18865e-15 0)
(3 -3.63614e-16 0)
(3 -2.77733e-16 0)
(3 2.49102e-16 0)
(3 2.71307e-16 0)
(3 -2.94238e-16 0)
(3 -6.09635e-16 0)
(3 3.02043e-16 0)
(3 5.91222e-16 0)
(3 5.77154e-16 0)
(3 1.65691e-15 0)
(3 2.11071e-15 0)
(3 2.83534e-15 0)
(3 2.06971e-15 0)
(3 2.70835e-16 0)
(3 1.66045e-16 0)
(3 -3.3427e-16 0)
(3 -5.80733e-16 0)
(3 -4.21268e-16 0)
(3 -2.24643e-16 0)
(3 -2.66572e-16 0)
(3 1.08663e-16 0)
(3 1.81943e-16 0)
(3 1.07304e-16 0)
(3 2.4656e-17 0)
(3 -8.9736e-18 0)
(3 5.15509e-16 0)
(3 1.18034e-15 0)
(3 6.46384e-16 0)
(3 2.97871e-16 0)
(3 1.65178e-15 0)
(3 2.27348e-15 0)
(3 1.46375e-15 0)
(3 1.43761e-15 0)
(3 6.17928e-16 0)
(3 -5.56734e-16 0)
(3 -2.19445e-15 0)
(3 -2.45837e-15 0)
(3 -1.46929e-15 0)
(3 2.09204e-16 0)
(3 6.8524e-16 0)
(3 5.46735e-17 0)
(3 -1.02568e-15 0)
(3 -1.02331e-15 0)
(3 -3.43726e-16 0)
(3 1.25278e-15 0)
(3 1.45825e-15 0)
(3 1.96472e-16 0)
(3 -6.54253e-16 0)
(3 -2.35793e-16 0)
(3 8.56907e-16 0)
(3 1.12711e-15 0)
(3 1.21853e-15 0)
(3 5.55988e-16 0)
(3 -8.87886e-16 0)
(3 -1.32982e-15 0)
(3 -8.37485e-16 0)
(3 1.61188e-16 0)
(3 1.68763e-15 0)
(3 1.7115e-15 0)
(3 1.41177e-15 0)
(3 2.04071e-16 0)
(3 -2.52596e-16 0)
(3 -2.66463e-17 0)
(3 2.38275e-16 0)
(3 7.57259e-16 0)
(3 1.0292e-15 0)
(3 6.44009e-16 0)
(3 5.36695e-16 0)
(3 2.31916e-16 0)
(3 2.43905e-16 0)
(3 -5.99697e-17 0)
(3 4.56894e-16 0)
(3 4.77179e-16 0)
(3 7.05677e-16 0)
(3 4.37396e-16 0)
(3 -2.01051e-17 0)
(3 8.37872e-17 0)
(3 1.24746e-15 0)
(3 1.58999e-15 0)
(3 1.31941e-15 0)
(3 7.53014e-16 0)
(3 8.89184e-16 0)
(3 1.57042e-15 0)
(3 3.41242e-16 0)
(3 -7.25714e-16 0)
(3 -6.60303e-16 0)
(3 -7.78351e-16 0)
(3 -6.10682e-16 0)
(3 -2.28403e-16 0)
(3 -3.79247e-16 0)
(3 1.38273e-16 0)
(3 5.03485e-16 0)
(3 3.97751e-16 0)
(3 1.65704e-17 0)
(3 2.7892e-16 0)
(3 9.93703e-16 0)
(3 8.75067e-16 0)
(3 -5.41498e-17 0)
(3 -3.717e-16 0)
(3 -6.64631e-16 0)
(3 -1.02968e-15 0)
(3 -1.97962e-15 0)
(3 -2.35343e-15 0)
(3 -2.1517e-15 0)
(3 -1.1255e-15 0)
(3 -1.22431e-15 0)
(3 -1.2701e-15 0)
(3 -1.65666e-15 0)
(3 -6.4686e-16 0)
(3 1.09377e-17 0)
(3 -1.93099e-16 0)
(3 4.61142e-16 0)
(3 4.77788e-16 0)
(3 5.94878e-16 0)
(3 4.7316e-16 0)
(3 4.64314e-16 0)
(3 3.58861e-16 0)
(3 3.55369e-16 0)
(3 1.31385e-16 0)
(3 1.67134e-16 0)
(3 2.34415e-16 0)
(3 3.89352e-16 0)
(3 4.99745e-16 0)
(3 8.61673e-16 0)
(3 6.0321e-16 0)
(3 2.6905e-16 0)
(3 3.65828e-16 0)
(3 1.15791e-15 0)
(3 9.40496e-16 0)
(3 7.86856e-16 0)
(3 8.23751e-16 0)
(3 8.11147e-16 0)
(3 4.3879e-16 0)
(3 8.62075e-16 0)
(3 1.82354e-16 0)
(3 -4.24755e-17 0)
(3 2.48762e-16 0)
(3 2.75864e-16 0)
(3 3.5165e-16 0)
(3 1.2786e-16 0)
(3 -7.71253e-16 0)
(3 -1.58767e-15 0)
(3 -1.06275e-15 0)
(3 -4.20913e-16 0)
(3 -6.76565e-16 0)
(3 -2.70513e-16 0)
(3 -1.12164e-15 0)
(3 -1.51596e-15 0)
(3 -2.3674e-15 0)
(3 -2.94403e-15 0)
(3 -3.37051e-15 0)
(3 -3.59156e-15 0)
(3 -3.81104e-15 0)
(3 -3.10344e-15 0)
(3 -2.79304e-15 0)
(3 -3.23089e-15 0)
(3 -5.71192e-16 0)
(3 2.12371e-16 0)
(3 1.83635e-16 0)
(3 4.08463e-16 0)
(3 4.17738e-16 0)
(3 2.70345e-16 0)
(3 4.10953e-16 0)
(3 1.37177e-16 0)
(3 3.72926e-16 0)
(3 2.53411e-16 0)
(3 -2.56293e-16 0)
(3 -4.78361e-16 0)
(3 -1.7089e-16 0)
(3 2.60609e-16 0)
(3 7.23137e-16 0)
(3 1.11503e-15 0)
(3 1.42952e-15 0)
(3 5.44267e-16 0)
(3 -2.99009e-16 0)
(3 3.09348e-16 0)
(3 6.40246e-16 0)
(3 4.07211e-16 0)
(3 -2.22173e-16 0)
(3 4.54736e-16 0)
(3 1.10479e-15 0)
(3 1.09835e-15 0)
(3 8.67562e-16 0)
(3 2.48309e-16 0)
(3 2.02033e-16 0)
(3 6.15204e-17 0)
(3 -6.92237e-17 0)
(3 -1.74909e-16 0)
(3 -3.8228e-16 0)
(3 -1.05264e-15 0)
(3 -1.56551e-15 0)
(3 -1.20591e-15 0)
(3 -1.16699e-15 0)
(3 -7.95915e-16 0)
(3 -9.76035e-16 0)
(3 -1.23214e-15 0)
(3 -1.58382e-15 0)
(3 -1.46006e-15 0)
(3 -3.22598e-15 0)
(3 -4.35369e-15 0)
(3 -4.04369e-15 0)
(3 -3.11492e-15 0)
(3 -2.98108e-15 0)
(3 -2.41801e-15 0)
(3 7.61008e-16 0)
(3 -8.52288e-17 0)
(3 4.36979e-16 0)
(3 4.40279e-16 0)
(3 4.94957e-16 0)
(3 3.51636e-16 0)
(3 1.9061e-16 0)
(3 2.16063e-16 0)
(3 1.58753e-16 0)
(3 -3.76248e-16 0)
(3 -7.55714e-16 0)
(3 -8.84789e-16 0)
(3 -6.66489e-16 0)
(3 -5.74909e-16 0)
(3 -7.02819e-17 0)
(3 2.36913e-16 0)
(3 6.7333e-16 0)
(3 1.02102e-15 0)
(3 7.08079e-16 0)
(3 -9.62062e-17 0)
(3 -6.85023e-16 0)
(3 -5.81786e-16 0)
(3 -1.50683e-16 0)
(3 4.5959e-16 0)
(3 8.02386e-16 0)
(3 6.02453e-16 0)
(3 1.02519e-15 0)
(3 1.22614e-15 0)
(3 1.1359e-15 0)
(3 4.91634e-16 0)
(3 3.02954e-16 0)
(3 6.43999e-16 0)
(3 -1.26401e-16 0)
(3 2.6543e-17 0)
(3 -1.42974e-16 0)
(3 6.86216e-17 0)
(3 1.28465e-16 0)
(3 -9.65806e-16 0)
(3 -1.03096e-15 0)
(3 -7.41049e-16 0)
(3 -6.60564e-16 0)
(3 -1.49082e-16 0)
(3 -7.84404e-16 0)
(3 -2.13675e-15 0)
(3 -1.54608e-15 0)
(3 -1.48274e-15 0)
(3 -2.05691e-15 0)
(3 -1.57781e-15 0)
(3 5.33289e-16 0)
(3 -1.17684e-16 0)
(3 3.42766e-16 0)
(3 7.89476e-17 0)
(3 -1.9185e-16 0)
(3 -8.90438e-17 0)
(3 -1.34067e-16 0)
(3 4.21594e-16 0)
(3 2.655e-16 0)
(3 -2.15895e-16 0)
(3 2.46318e-16 0)
(3 2.30916e-16 0)
(3 -1.37684e-17 0)
(3 -4.84147e-16 0)
(3 -4.7851e-16 0)
(3 -4.10074e-16 0)
(3 -2.19651e-16 0)
(3 -4.5933e-16 0)
(3 -4.6122e-16 0)
(3 -1.21842e-15 0)
(3 -1.74385e-15 0)
(3 -1.555e-15 0)
(3 -8.16609e-16 0)
(3 -2.25611e-16 0)
(3 -4.68356e-17 0)
(3 6.42959e-16 0)
(3 1.1419e-15 0)
(3 1.4035e-15 0)
(3 1.27304e-15 0)
(3 1.17908e-15 0)
(3 1.21226e-15 0)
(3 1.83603e-15 0)
(3 1.59415e-15 0)
(3 1.16227e-15 0)
(3 8.08149e-16 0)
(3 4.29217e-16 0)
(3 3.81198e-16 0)
(3 -4.61593e-16 0)
(3 -4.29399e-16 0)
(3 -6.44116e-16 0)
(3 -1.01488e-15 0)
(3 -1.39188e-15 0)
(3 -9.52408e-16 0)
(3 -2.90506e-16 0)
(3 -8.21407e-16 0)
(3 -1.26398e-15 0)
(3 -1.34892e-15 0)
(3 -1.4419e-15 0)
(3 -1.22232e-15 0)
(3 -3.7435e-17 0)
(3 -3.39888e-17 0)
(3 2.51532e-17 0)
(3 2.0975e-16 0)
(3 1.2217e-16 0)
(3 3.63369e-16 0)
(3 3.90927e-16 0)
(3 3.55946e-16 0)
(3 9.9667e-16 0)
(3 1.7212e-15 0)
(3 1.67616e-15 0)
(3 8.66892e-16 0)
(3 -6.45974e-16 0)
(3 -1.45605e-15 0)
(3 -1.32164e-15 0)
(3 -1.21341e-15 0)
(3 -1.35513e-15 0)
(3 -2.11179e-15 0)
(3 -1.95268e-15 0)
(3 -1.70617e-15 0)
(3 -1.45497e-15 0)
(3 -1.60489e-15 0)
(3 -5.46514e-16 0)
(3 1.83984e-16 0)
(3 8.27978e-17 0)
(3 -2.28187e-16 0)
(3 6.05343e-16 0)
(3 1.14317e-15 0)
(3 2.07714e-15 0)
(3 2.18931e-15 0)
(3 2.0936e-15 0)
(3 1.95615e-15 0)
(3 1.12815e-15 0)
(3 6.90161e-17 0)
(3 -6.4799e-16 0)
(3 -3.59598e-16 0)
(3 -1.89745e-16 0)
(3 -4.13658e-16 0)
(3 -1.04962e-15 0)
(3 -1.1625e-15 0)
(3 -1.59324e-15 0)
(3 -1.29466e-15 0)
(3 -6.96279e-16 0)
(3 -6.92321e-16 0)
(3 -7.10409e-16 0)
(3 -4.84515e-16 0)
(3 -1.03434e-15 0)
(3 -1.88922e-15 0)
(3 -1.18123e-16 0)
(3 -5.32685e-16 0)
(3 -6.68812e-16 0)
(3 -3.79419e-16 0)
(3 -3.19648e-16 0)
(3 -2.92918e-16 0)
(3 -2.40867e-16 0)
(3 1.90438e-16 0)
(3 8.56425e-16 0)
(3 1.09198e-15 0)
(3 9.87398e-16 0)
(3 7.83753e-18 0)
(3 -9.0289e-16 0)
(3 -1.74668e-15 0)
(3 -1.78976e-15 0)
(3 -1.85871e-15 0)
(3 -1.68171e-15 0)
(3 -1.86931e-15 0)
(3 -2.21848e-15 0)
(3 -1.48636e-15 0)
(3 -6.11108e-16 0)
(3 -8.64426e-17 0)
(3 4.74439e-16 0)
(3 8.89883e-16 0)
(3 4.58494e-16 0)
(3 9.61498e-17 0)
(3 5.07633e-16 0)
(3 1.12578e-15 0)
(3 1.63474e-15 0)
(3 1.7407e-15 0)
(3 1.49597e-15 0)
(3 1.48384e-15 0)
(3 1.54815e-15 0)
(3 9.39794e-16 0)
(3 1.07456e-17 0)
(3 -4.79078e-16 0)
(3 -4.69521e-16 0)
(3 -9.20092e-16 0)
(3 -4.67067e-16 0)
(3 3.34689e-16 0)
(3 6.82518e-16 0)
(3 5.71683e-16 0)
(3 2.96338e-16 0)
(3 3.53209e-16 0)
(3 4.74474e-16 0)
(3 2.90941e-16 0)
(3 -4.32314e-16 0)
(3 -7.11506e-16 0)
(3 -8.8378e-17 0)
(3 -2.49788e-16 0)
(3 -5.91725e-16 0)
(3 -8.35921e-16 0)
(3 -9.23573e-16 0)
(3 -1.02858e-15 0)
(3 -1.02222e-15 0)
(3 -3.76637e-16 0)
(3 2.10727e-16 0)
(3 1.4427e-16 0)
(3 1.76408e-16 0)
(3 4.39376e-16 0)
(3 7.67465e-16 0)
(3 1.86879e-16 0)
(3 -4.98051e-16 0)
(3 -8.09706e-16 0)
(3 -9.07248e-16 0)
(3 -1.12657e-15 0)
(3 -1.75226e-15 0)
(3 -2.35717e-15 0)
(3 -7.50293e-16 0)
(3 3.37933e-16 0)
(3 5.71291e-16 0)
(3 1.73066e-16 0)
(3 -4.67148e-17 0)
(3 3.15717e-16 0)
(3 5.70423e-16 0)
(3 7.10524e-16 0)
(3 3.84863e-16 0)
(3 6.97975e-16 0)
(3 1.07249e-15 0)
(3 1.68752e-15 0)
(3 2.17327e-15 0)
(3 2.10772e-15 0)
(3 1.65852e-15 0)
(3 4.16224e-16 0)
(3 -2.68903e-17 0)
(3 5.34337e-16 0)
(3 1.19126e-15 0)
(3 1.46479e-15 0)
(3 1.99267e-15 0)
(3 1.91879e-15 0)
(3 1.22412e-15 0)
(3 1.16482e-15 0)
(3 3.97821e-16 0)
(3 1.18321e-16 0)
(3 2.26878e-16 0)
(3 8.66012e-16 0)
(3 -7.7188e-18 0)
(3 -3.16709e-18 0)
(3 2.90364e-16 0)
(3 5.54727e-17 0)
(3 -1.90036e-16 0)
(3 -2.91307e-16 0)
(3 -3.59533e-16 0)
(3 -5.31923e-16 0)
(3 -5.26391e-19 0)
(3 6.61167e-16 0)
(3 5.16755e-16 0)
(3 6.41803e-16 0)
(3 1.03534e-15 0)
(3 1.06103e-15 0)
(3 5.19491e-16 0)
(3 -4.07139e-16 0)
(3 -1.51896e-15 0)
(3 -1.63157e-15 0)
(3 -1.53462e-15 0)
(3 -1.49676e-15 0)
(3 -8.26945e-16 0)
(3 -2.07594e-16 0)
(3 9.43429e-17 0)
(3 6.40526e-16 0)
(3 9.29772e-16 0)
(3 8.10893e-16 0)
(3 3.7445e-16 0)
(3 1.6795e-16 0)
(3 2.76395e-16 0)
(3 3.33146e-16 0)
(3 1.16835e-15 0)
(3 1.51986e-15 0)
(3 1.46611e-15 0)
(3 1.13137e-15 0)
(3 8.79792e-16 0)
(3 7.52131e-16 0)
(3 3.21939e-16 0)
(3 5.68062e-16 0)
(3 9.49726e-16 0)
(3 1.4644e-15 0)
(3 1.74675e-15 0)
(3 1.47628e-15 0)
(3 9.35017e-16 0)
(3 4.97607e-16 0)
(3 1.25836e-16 0)
(3 -1.50469e-16 0)
(3 7.77254e-16 0)
(3 1.69831e-15 0)
(3 1.11636e-16 0)
(3 -6.96359e-17 0)
(3 -2.1171e-16 0)
(3 -2.02934e-16 0)
(3 1.7572e-16 0)
(3 6.93739e-16 0)
(3 7.36072e-16 0)
(3 3.34871e-16 0)
(3 5.90496e-16 0)
(3 8.79929e-16 0)
(3 5.2497e-16 0)
(3 2.51163e-16 0)
(3 4.97508e-17 0)
(3 -1.59423e-16 0)
(3 -6.14792e-17 0)
(3 -2.89799e-16 0)
(3 -8.19628e-16 0)
(3 -6.88446e-16 0)
(3 -2.0245e-16 0)
(3 1.90782e-16 0)
(3 -9.6314e-16 0)
(3 -1.49813e-15 0)
(3 -4.73172e-16 0)
(3 7.42215e-16 0)
(3 1.50779e-15 0)
(3 1.41109e-15 0)
(3 1.28262e-15 0)
(3 7.80944e-16 0)
(3 2.32508e-16 0)
(3 2.42792e-16 0)
(3 8.37222e-16 0)
(3 8.23992e-16 0)
(3 8.61505e-16 0)
(3 7.27076e-16 0)
(3 6.90483e-16 0)
(3 4.92155e-16 0)
(3 -2.68792e-18 0)
(3 -4.03846e-16 0)
(3 1.98989e-16 0)
(3 8.31337e-16 0)
(3 1.36734e-15 0)
(3 1.32062e-15 0)
(3 9.27342e-16 0)
(3 5.25767e-16 0)
(3 6.53536e-16 0)
(3 2.06164e-16 0)
(3 4.22194e-16 0)
(3 5.76662e-16 0)
(3 -1.04673e-17 0)
(3 -7.11902e-17 0)
(3 -1.00368e-16 0)
(3 -8.51422e-17 0)
(3 9.9673e-17 0)
(3 6.24926e-16 0)
(3 7.88161e-16 0)
(3 1.05157e-15 0)
(3 8.72558e-16 0)
(3 1.49809e-16 0)
(3 -5.5901e-16 0)
(3 -4.69467e-16 0)
(3 -9.69343e-16 0)
(3 -5.44643e-16 0)
(3 -1.39788e-16 0)
(3 7.65062e-16 0)
(3 1.05952e-15 0)
(3 8.04999e-16 0)
(3 4.05442e-16 0)
(3 5.41424e-16 0)
(3 -3.78052e-16 0)
(3 -1.214e-15 0)
(3 -1.55283e-16 0)
(3 -6.81008e-18 0)
(3 1.3711e-15 0)
(3 2.3481e-15 0)
(3 1.94311e-15 0)
(3 7.59204e-16 0)
(3 5.37376e-16 0)
(3 1.15483e-16 0)
(3 -4.19027e-16 0)
(3 -5.02051e-16 0)
(3 3.29716e-16 0)
(3 9.30393e-16 0)
(3 9.0103e-16 0)
(3 4.93697e-16 0)
(3 2.62695e-16 0)
(3 3.58315e-16 0)
(3 1.80466e-16 0)
(3 1.40745e-16 0)
(3 5.82347e-16 0)
(3 8.60776e-16 0)
(3 1.06997e-15 0)
(3 1.28712e-15 0)
(3 1.20325e-15 0)
(3 8.07822e-16 0)
(3 1.18368e-15 0)
(3 6.48776e-16 0)
(3 1.87087e-16 0)
(3 2.3226e-16 0)
(3 -3.20523e-18 0)
(3 -9.85527e-18 0)
(3 -3.01108e-16 0)
(3 -2.80478e-16 0)
(3 2.23287e-16 0)
(3 1.10676e-15 0)
(3 3.71327e-16 0)
(3 -2.12196e-17 0)
(3 -8.64517e-17 0)
(3 -5.13484e-16 0)
(3 -5.55112e-16 0)
(3 -1.04033e-16 0)
(3 -1.11935e-16 0)
(3 5.90694e-16 0)
(3 1.18556e-15 0)
(3 9.36075e-16 0)
(3 2.4479e-16 0)
(3 5.76865e-16 0)
(3 8.82512e-16 0)
(3 1.49085e-15 0)
(3 8.24055e-16 0)
(3 3.31899e-16 0)
(3 5.21809e-16 0)
(3 1.43839e-15 0)
(3 1.08882e-15 0)
(3 1.58355e-15 0)
(3 2.51417e-15 0)
(3 2.76787e-15 0)
(3 3.42364e-16 0)
(3 5.22505e-17 0)
(3 -5.42439e-17 0)
(3 -1.93499e-16 0)
(3 4.01939e-17 0)
(3 5.02101e-16 0)
(3 1.16268e-15 0)
(3 9.18215e-16 0)
(3 3.56347e-16 0)
(3 2.44736e-16 0)
(3 -1.48744e-16 0)
(3 1.50782e-16 0)
(3 9.10085e-16 0)
(3 1.86557e-15 0)
(3 2.37881e-15 0)
(3 1.84529e-15 0)
(3 1.62342e-15 0)
(3 1.9536e-15 0)
(3 1.90393e-16 0)
(3 4.48968e-16 0)
(3 5.18427e-16 0)
(3 5.90218e-16 0)
(3 7.35859e-16 0)
(3 3.88806e-16 0)
(3 3.35615e-16 0)
(3 -7.06385e-18 0)
(3 -1.1978e-15 0)
(3 -1.25192e-15 0)
(3 -5.18675e-16 0)
(3 2.66975e-16 0)
(3 7.15776e-16 0)
(3 3.30014e-16 0)
(3 -4.0115e-16 0)
(3 -1.09949e-15 0)
(3 -4.31793e-16 0)
(3 3.87726e-16 0)
(3 4.21302e-16 0)
(3 2.36927e-16 0)
(3 9.07722e-16 0)
(3 1.50477e-15 0)
(3 1.02812e-15 0)
(3 5.22702e-16 0)
(3 4.36521e-16 0)
(3 6.70075e-16 0)
(3 1.14008e-15 0)
(3 1.0705e-15 0)
(3 1.26822e-15 0)
(3 1.15585e-15 0)
(3 1.44347e-15 0)
(3 8.32442e-16 0)
(3 -2.66416e-16 0)
(3 -7.65904e-16 0)
(3 -7.47272e-16 0)
(3 -3.74903e-16 0)
(3 -1.38957e-16 0)
(3 -2.61258e-16 0)
(3 -2.29718e-16 0)
(3 -5.55951e-17 0)
(3 -2.12624e-16 0)
(3 2.88139e-16 0)
(3 8.16965e-16 0)
(3 8.36921e-16 0)
(3 1.36275e-15 0)
(3 1.62439e-15 0)
(3 1.04043e-15 0)
(3 5.51596e-16 0)
(3 -2.70505e-16 0)
(3 -2.26378e-17 0)
(3 1.64997e-16 0)
(3 2.76586e-16 0)
(3 4.04296e-16 0)
(3 -3.7429e-17 0)
(3 -4.95105e-16 0)
(3 -1.53752e-15 0)
(3 -1.62409e-15 0)
(3 -1.47998e-15 0)
(3 -9.32305e-16 0)
(3 3.3344e-16 0)
(3 5.64299e-16 0)
(3 -4.62406e-16 0)
(3 -1.15008e-15 0)
(3 -2.52524e-15 0)
(3 -2.54939e-15 0)
(3 -1.9096e-15 0)
(3 -1.22944e-15 0)
(3 -9.007e-16 0)
(3 1.09295e-15 0)
(3 1.39176e-15 0)
(3 -1.47361e-16 0)
(3 -7.54635e-16 0)
(3 -1.12627e-15 0)
(3 -1.13102e-15 0)
(3 -1.98904e-16 0)
(3 -5.07348e-16 0)
(3 -5.84609e-16 0)
(3 -2.51057e-16 0)
(3 -2.91963e-16 0)
(3 5.71155e-16 0)
(3 -3.8329e-16 0)
(3 -7.68121e-16 0)
(3 -1.86433e-15 0)
(3 -1.20818e-15 0)
(3 -1.42306e-15 0)
(3 -1.06901e-15 0)
(3 -6.77778e-16 0)
(3 -4.49186e-16 0)
(3 -3.50474e-16 0)
(3 2.96102e-16 0)
(3 5.96304e-16 0)
(3 7.07395e-16 0)
(3 4.86291e-16 0)
(3 6.73742e-16 0)
(3 -1.06062e-16 0)
(3 -6.2706e-16 0)
(3 -6.3192e-17 0)
(3 -1.78686e-16 0)
(3 -1.38405e-16 0)
(3 -3.82792e-16 0)
(3 -7.37489e-16 0)
(3 -1.08113e-15 0)
(3 -1.21797e-15 0)
(3 -8.33227e-16 0)
(3 2.89291e-16 0)
(3 6.86464e-16 0)
(3 8.63714e-16 0)
(3 5.20738e-16 0)
(3 -2.75493e-16 0)
(3 -2.47129e-16 0)
(3 -6.73936e-17 0)
(3 -1.41475e-15 0)
(3 -1.74506e-15 0)
(3 -1.80228e-15 0)
(3 -1.08918e-15 0)
(3 4.83225e-16 0)
(3 9.44618e-16 0)
(3 6.85043e-16 0)
(3 -8.43664e-16 0)
(3 -1.27215e-15 0)
(3 -2.05245e-15 0)
(3 -2.1608e-15 0)
(3 -1.94087e-15 0)
(3 -1.89638e-15 0)
(3 -1.62972e-15 0)
(3 -1.25702e-15 0)
(3 -6.70083e-16 0)
(3 -1.10405e-15 0)
(3 -2.00725e-15 0)
(3 -2.68866e-15 0)
(3 -3.38618e-15 0)
(3 -2.36127e-15 0)
(3 -1.19706e-15 0)
(3 -2.39765e-16 0)
(3 -7.25149e-17 0)
(3 -5.4499e-16 0)
(3 -2.67403e-16 0)
(3 -1.71915e-16 0)
(3 -4.68979e-16 0)
(3 -5.41984e-16 0)
(3 -7.17237e-16 0)
(3 -1.11096e-15 0)
(3 -1.19788e-15 0)
(3 -1.92796e-15 0)
(3 1.53803e-16 0)
(3 5.59551e-17 0)
(3 8.04222e-16 0)
(3 8.21204e-16 0)
(3 5.91958e-16 0)
(3 3.71151e-16 0)
(3 6.73411e-17 0)
(3 7.80991e-17 0)
(3 5.96443e-16 0)
(3 1.30203e-15 0)
(3 1.11817e-15 0)
(3 8.01098e-16 0)
(3 4.213e-16 0)
(3 8.27969e-16 0)
(3 1.15117e-15 0)
(3 9.70675e-16 0)
(3 1.00226e-15 0)
(3 1.1069e-15 0)
(3 1.30067e-15 0)
(3 8.92625e-16 0)
(3 2.12551e-16 0)
(3 -9.61867e-16 0)
(3 -1.25139e-15 0)
(3 -1.25518e-15 0)
(3 -8.32624e-16 0)
(3 -5.2801e-16 0)
(3 -1.25112e-15 0)
(3 -1.22599e-15 0)
(3 -1.01442e-15 0)
(3 -9.1366e-16 0)
(3 -8.46592e-16 0)
(3 -1.37364e-15 0)
(3 -1.77007e-15 0)
(3 -1.73752e-15 0)
(3 -1.74049e-15 0)
(3 -7.19648e-16 0)
(3 3.04712e-16 0)
(3 1.7671e-16 0)
(3 -3.4873e-16 0)
(3 -6.71681e-16 0)
(3 -4.79398e-16 0)
(3 -4.38034e-16 0)
(3 -1.1607e-15 0)
(3 -2.08202e-15 0)
(3 -2.74722e-15 0)
(3 -2.5654e-15 0)
(3 -1.76192e-15 0)
(3 -1.24156e-15 0)
(3 1.86264e-16 0)
(3 4.83746e-17 0)
(3 -1.13567e-16 0)
(3 1.64221e-17 0)
(3 2.44467e-16 0)
(3 4.58529e-16 0)
(3 6.36041e-17 0)
(3 -1.49743e-17 0)
(3 2.61949e-17 0)
(3 2.50126e-16 0)
(3 -4.00735e-17 0)
(3 2.86067e-17 0)
(3 5.19835e-16 0)
(3 1.12839e-15 0)
(3 1.62772e-15 0)
(3 2.94675e-15 0)
(3 2.82504e-15 0)
(3 3.01287e-15 0)
(3 2.06397e-15 0)
(3 1.11178e-15 0)
(3 -6.69897e-16 0)
(3 -1.53331e-15 0)
(3 -9.10085e-16 0)
(3 7.39979e-16 0)
(3 1.30347e-15 0)
(3 7.56434e-16 0)
(3 -8.66741e-16 0)
(3 -8.74261e-16 0)
(3 -8.46724e-16 0)
(3 -8.55692e-16 0)
(3 -1.54419e-15 0)
(3 -1.13128e-15 0)
(3 -7.09966e-16 0)
(3 -4.21526e-17 0)
(3 3.42916e-16 0)
(3 4.43678e-16 0)
(3 6.92788e-16 0)
(3 1.54008e-16 0)
(3 -2.77798e-16 0)
(3 -2.10509e-16 0)
(3 -1.31107e-15 0)
(3 -2.17316e-15 0)
(3 -2.74737e-15 0)
(3 -2.80446e-15 0)
(3 -3.04445e-15 0)
(3 -2.46441e-15 0)
(3 -1.43153e-15 0)
(3 -6.50407e-16 0)
(3 -2.77852e-16 0)
(3 -2.26808e-16 0)
(3 -7.77027e-16 0)
(3 -9.50145e-16 0)
(3 -1.07922e-15 0)
(3 -7.95335e-16 0)
(3 -7.65908e-16 0)
(3 -3.08473e-16 0)
(3 -1.11532e-16 0)
(3 -1.10528e-16 0)
(3 6.305e-17 0)
(3 1.99292e-16 0)
(3 2.81928e-16 0)
(3 2.76897e-16 0)
(3 8.25094e-16 0)
(3 1.88064e-15 0)
(3 2.47115e-15 0)
(3 2.24436e-15 0)
(3 1.44326e-15 0)
(3 2.57677e-16 0)
(3 -2.37613e-16 0)
(3 -1.2584e-16 0)
(3 4.84522e-16 0)
(3 1.21833e-15 0)
(3 1.28654e-15 0)
(3 -7.23255e-16 0)
(3 -2.66131e-15 0)
(3 -2.58122e-15 0)
(3 -2.48659e-15 0)
(3 -1.87846e-15 0)
(3 -1.49287e-15 0)
(3 -1.46145e-15 0)
(3 -7.83725e-16 0)
(3 -2.81334e-16 0)
(3 7.96985e-16 0)
(3 9.98025e-16 0)
(3 3.07118e-16 0)
(3 -7.7567e-17 0)
(3 -6.00616e-16 0)
(3 -8.58196e-16 0)
(3 -1.66298e-15 0)
(3 -2.45335e-15 0)
(3 -2.45752e-15 0)
(3 -2.46224e-15 0)
(3 -1.51501e-15 0)
(3 -8.40137e-16 0)
(3 -7.93361e-16 0)
(3 -8.01527e-16 0)
(3 -7.12359e-17 0)
(3 -2.52382e-16 0)
(3 -3.84986e-16 0)
(3 -6.19972e-16 0)
(3 -1.03341e-16 0)
(3 7.1279e-17 0)
(3 2.17982e-16 0)
(3 1.85177e-16 0)
(3 -5.42206e-16 0)
(3 -5.0419e-16 0)
(3 1.20933e-16 0)
(3 5.28026e-16 0)
(3 1.48482e-16 0)
(3 -1.04658e-16 0)
(3 3.25939e-16 0)
(3 5.04176e-16 0)
(3 1.8806e-16 0)
(3 -1.0172e-16 0)
(3 -3.96393e-16 0)
(3 -1.00109e-15 0)
(3 9.95038e-17 0)
(3 1.07918e-15 0)
(3 7.41922e-16 0)
(3 -4.78109e-17 0)
(3 -1.61267e-15 0)
(3 -1.88134e-15 0)
(3 -2.5779e-15 0)
(3 -3.07358e-15 0)
(3 -2.87082e-15 0)
(3 -1.77246e-15 0)
(3 -1.25749e-15 0)
(3 -1.42672e-15 0)
(3 -9.92658e-16 0)
(3 3.38291e-16 0)
(3 1.65251e-15 0)
(3 1.85865e-15 0)
(3 1.49866e-15 0)
(3 8.2554e-16 0)
(3 1.71257e-16 0)
(3 -2.77834e-16 0)
(3 -4.18476e-16 0)
(3 -5.17805e-16 0)
(3 -1.50395e-15 0)
(3 -1.51659e-15 0)
(3 -7.12142e-16 0)
(3 -2.27803e-16 0)
(3 -9.95288e-18 0)
(3 3.18647e-17 0)
(3 2.8708e-16 0)
(3 -1.3956e-16 0)
(3 2.95623e-16 0)
(3 3.86974e-16 0)
(3 7.18388e-16 0)
(3 5.79297e-16 0)
(3 3.81164e-16 0)
(3 -1.29601e-16 0)
(3 -1.00755e-15 0)
(3 -1.24138e-15 0)
(3 -8.42754e-16 0)
(3 -1.65271e-16 0)
(3 -1.65201e-16 0)
(3 3.12392e-16 0)
(3 5.22242e-16 0)
(3 4.99107e-16 0)
(3 -2.44614e-16 0)
(3 -1.38934e-16 0)
(3 7.12415e-18 0)
(3 2.56506e-16 0)
(3 4.53644e-17 0)
(3 -2.78163e-16 0)
(3 -7.80377e-16 0)
(3 -2.14265e-15 0)
(3 -3.52364e-15 0)
(3 -3.24961e-15 0)
(3 -1.58201e-15 0)
(3 -1.51734e-15 0)
(3 -1.91298e-15 0)
(3 -2.4748e-15 0)
(3 -2.47271e-15 0)
(3 -1.77585e-15 0)
(3 -5.56231e-16 0)
(3 2.25107e-16 0)
(3 1.64671e-15 0)
(3 1.30809e-15 0)
(3 8.46503e-16 0)
(3 2.30779e-16 0)
(3 2.16668e-16 0)
(3 1.54684e-16 0)
(3 -6.39847e-18 0)
(3 -6.68689e-16 0)
(3 -1.24286e-15 0)
(3 -1.78308e-15 0)
(3 -1.65368e-15 0)
(3 -5.57753e-16 0)
(3 1.10382e-15 0)
(3 1.15928e-15 0)
(3 -1.18859e-16 0)
(3 1.17047e-17 0)
(3 2.69359e-16 0)
(3 8.78935e-16 0)
(3 9.49301e-16 0)
(3 5.43372e-16 0)
(3 6.93146e-16 0)
(3 1.57342e-16 0)
(3 -1.68602e-16 0)
(3 -3.57775e-16 0)
(3 -9.82459e-16 0)
(3 -3.47733e-16 0)
(3 4.72794e-16 0)
(3 9.32531e-16 0)
(3 9.44521e-16 0)
(3 7.64368e-17 0)
(3 5.78142e-16 0)
(3 1.73518e-15 0)
(3 1.6063e-15 0)
(3 1.02543e-15 0)
(3 -9.93688e-17 0)
(3 -1.4057e-15 0)
(3 -1.77431e-15 0)
(3 -2.3988e-15 0)
(3 -2.7807e-15 0)
(3 -2.31963e-15 0)
(3 -1.53399e-15 0)
(3 -1.20664e-15 0)
(3 -1.72742e-15 0)
(3 -2.1558e-15 0)
(3 -2.04191e-15 0)
(3 -1.09428e-15 0)
(3 -1.26979e-16 0)
(3 9.79129e-17 0)
(3 -3.11193e-16 0)
(3 -5.81941e-16 0)
(3 -6.3422e-16 0)
(3 -7.59667e-16 0)
(3 -6.40169e-16 0)
(3 -3.48372e-16 0)
(3 -8.8695e-16 0)
(3 -6.14023e-16 0)
(3 5.05285e-16 0)
(3 5.05908e-16 0)
(3 -1.03212e-16 0)
(3 -1.03017e-16 0)
(3 1.51115e-15 0)
(3 1.39311e-15 0)
(3 1.22614e-16 0)
(3 1.9991e-16 0)
(3 -6.48321e-17 0)
(3 -4.6029e-17 0)
(3 1.27149e-16 0)
(3 6.62629e-16 0)
(3 7.9522e-16 0)
(3 7.37708e-16 0)