/*--------------------------------*- C++ -*----------------------------------*\
  =========                 |
  \\      /  F ield         | OpenFOAM: The Open Source CFD Toolbox
   \\    /   O peration     | Website:  https://openfoam.org
    \\  /    A nd           | Version:  7
     \\/     M anipulation  |
\*---------------------------------------------------------------------------*/
FoamFile
{
    version     2.0;
    format      ascii;
    class       volScalarField;
    location    "3.9";
    object      rho;
}
// * * * * * * * * * * * * * * * * * * * * * * * * * * * * * * * * * * * * * //

dimensions      [1 -3 0 0 0 0 0];

internalField   nonuniform List<scalar> 
4128
(
2.12628
2.17373
2.30265
2.54895
2.81743
3.06122
3.20564
3.29282
3.34542
3.3529
3.35515
3.34801
3.32565
3.31193
3.30199
3.29848
3.30031
3.29841
3.29437
3.28117
3.25564
3.22656
3.2055
3.18944
3.18
3.17456
3.17147
3.1752
3.18949
3.20477
3.20631
3.19825
3.17677
3.13505
3.09922
3.08848
3.08536
3.08561
3.10022
3.12801
3.13814
3.13473
3.12965
3.12057
3.09735
3.06529
3.05017
3.045
3.04263
3.04753
3.05974
3.06317
3.05953
3.05373
3.0412
3.01546
2.98463
2.96678
2.96086
2.95872
2.96189
2.97324
2.9871
2.99631
2.99659
2.99332
2.98689
2.97479
2.95078
2.91064
2.87605
2.86449
2.86416
2.87799
2.90273
2.92098
2.92175
2.91715
2.90887
2.89239
2.86593
2.8415
2.83197
2.82839
2.82748
2.83251
2.83858
2.83824
2.83354
2.8223
2.80565
2.79695
2.79405
2.79155
2.7881
2.78518
2.78249
2.77804
2.76771
2.74747
2.7293
2.72449
2.72651
2.73847
2.74742
2.74532
2.74125
2.73554
2.7242
2.70346
2.68151
2.66754
2.66145
2.65885
2.66112
2.67431
2.68617
2.68538
2.6797
2.66791
2.65092
2.64134
2.63766
2.63446
2.63224
2.63025
2.62694
2.62308
2.60891
2.12132
2.11094
2.11294
2.13626
2.22319
2.40148
2.67712
2.90947
3.12943
3.21885
3.28139
3.30439
3.30452
3.31019
3.31049
3.31018
3.3279
3.33494
3.32829
3.31527
3.29159
3.25561
3.21279
3.18237
3.16821
3.16116
3.15693
3.1683
3.19629
3.21439
3.21692
3.21318
3.20348
3.17657
3.13038
3.09774
3.08846
3.08745
3.10077
3.12514
3.12978
3.12623
3.12179
3.11447
3.09902
3.07504
3.05656
3.04912
3.04712
3.05337
3.0627
3.06227
3.05888
3.05457
3.0458
3.02743
3.00233
2.9806
2.96849
2.96398
2.96366
2.969
2.97312
2.9732
2.97243
2.97165
2.96993
2.96548
2.95791
2.94449
2.92202
2.90055
2.89026
2.89013
2.89404
2.89492
2.89754
2.89721
2.89298
2.88431
2.87
2.85217
2.83915
2.83393
2.83311
2.84113
2.85153
2.85367
2.85099
2.84312
2.82436
2.80221
2.79147
2.78634
2.78288
2.77997
2.77757
2.77543
2.77288
2.76779
2.7553
2.74391
2.74181
2.74079
2.73789
2.7349
2.73175
2.7275
2.71977
2.70338
2.68246
2.67183
2.66809
2.6679
2.67714
2.69169
2.69418
2.69058
2.68481
2.67413
2.65381
2.63413
2.62649
2.62263
2.61944
2.61743
2.61739
2.61645
2.60599
2.14313
2.1306
2.12255
2.12387
2.11958
2.12755
2.17133
2.27593
2.45989
2.69998
2.92753
3.10681
3.19859
3.26185
3.27279
3.30261
3.33912
3.35232
3.34738
3.33308
3.31031
3.28209
3.23856
3.19104
3.16488
3.1564
3.15526
3.17343
3.19995
3.21428
3.21768
3.21485
3.20708
3.19156
3.16804
3.13914
3.11739
3.10861
3.10841
3.11649
3.11519
3.10888
3.10362
3.0979
3.08966
3.07734
3.06444
3.05532
3.05224
3.05513
3.0575
3.05617
3.05358
3.04953
3.04261
3.02944
3.01242
2.9965
2.98123
2.97206
2.96961
2.96701
2.96219
2.95688
2.95212
2.94739
2.94466
2.94469
2.94775
2.94915
2.94953
2.94592
2.93334
2.9117
2.89201
2.88341
2.87871
2.87443
2.86973
2.86577
2.86191
2.85661
2.85104
2.84893
2.85324
2.86182
2.86428
2.86189
2.85801
2.84909
2.83144
2.80722
2.78908
2.78087
2.77669
2.77432
2.77356
2.77542
2.77805
2.77779
2.77506
2.76752
2.7526
2.73703
2.72873
2.72474
2.721
2.71556
2.70881
2.69938
2.69041
2.68654
2.68539
2.68919
2.69502
2.69345
2.68921
2.68446
2.67915
2.66988
2.65266
2.6296
2.61659
2.61233
2.60951
2.60743
2.60766
2.61043
2.60401
2.16486
2.15583
2.14883
2.14198
2.1352
2.13171
2.12558
2.1175
2.12136
2.16327
2.273
2.48284
2.73144
2.96126
3.10747
3.21209
3.28461
3.31775
3.32866
3.32584
3.31623
3.29835
3.27028
3.23398
3.2002
3.18302
3.17997
3.18482
3.18894
3.18542
3.18437
3.18663
3.18909
3.18583
3.17978
3.17111
3.15865
3.14185
3.12696
3.11633
3.10743
3.09954
3.09083
3.08235
3.07524
3.07201
3.0702
3.06662
3.06083
3.05351
3.04596
3.04334
3.04292
3.04025
3.0347
3.02749
3.02034
3.01204
3.00256
2.99186
2.97913
2.96556
2.95454
2.94506
2.93353
2.92425
2.91996
2.91887
2.9257
2.94387
2.96282
2.9679
2.96312
2.94776
2.91564
2.88018
2.86163
2.85276
2.84817
2.84576
2.84719
2.85552
2.86566
2.87593
2.88176
2.87923
2.87193
2.86213
2.85158
2.84083
2.82718
2.81135
2.79488
2.78122
2.77348
2.77053
2.77278
2.78298
2.78678
2.78531
2.78195
2.77541
2.76371
2.74536
2.72727
2.71687
2.71049
2.70523
2.70031
2.698
2.69796
2.70082
2.70433
2.70414
2.69943
2.69169
2.68375
2.67733
2.67069
2.66288
2.64956
2.62828
2.61259
2.60768
2.60471
2.60225
2.60235
2.60612
2.60127
2.18504
2.17861
2.17296
2.16783
2.16228
2.15454
2.14559
2.13474
2.11948
2.09849
2.09406
2.10834
2.17623
2.32233
2.56016
2.79765
3.02104
3.14079
3.22091
3.26754
3.28795
3.28661
3.28326
3.26564
3.25434
3.24654
3.23511
3.21778
3.19341
3.17191
3.16074
3.1555
3.15573
3.16786
3.17773
3.18008
3.17791
3.16988
3.15572
3.13373
3.1102
3.09396
3.08288
3.07401
3.06965
3.07014
3.07787
3.08193
3.07611
3.05901
3.03726
3.02207
3.01713
3.01547
3.01719
3.02161
3.02413
3.0252
3.0222
3.01512
3.00059
2.97713
2.95221
2.93233
2.91603
2.90647
2.90256
2.90145
2.9099
2.93881
2.9671
2.97341
2.97065
2.96326
2.94234
2.89742
2.85763
2.84401
2.83958
2.83758
2.83995
2.85636
2.87954
2.89096
2.89041
2.88572
2.87592
2.85935
2.8418
2.82812
2.81753
2.80815
2.8006
2.79269
2.78432
2.77925
2.77788
2.77602
2.77473
2.77372
2.7724
2.76956
2.76403
2.75443
2.73817
2.71814
2.7055
2.70093
2.69986
2.70171
2.70576
2.7083
2.70723
2.70424
2.69972
2.69239
2.68261
2.67255
2.66338
2.65372
2.64272
2.62712
2.61226
2.60651
2.60361
2.60193
2.60373
2.60488
2.59949
2.20495
2.19851
2.19327
2.18952
2.18432
2.17671
2.16809
2.15738
2.1416
2.12397
2.10424
2.10186
2.0954
2.09737
2.1244
2.2041
2.36459
2.58612
2.80629
3.00288
3.11349
3.19506
3.23854
3.24872
3.27679
3.29152
3.27902
3.25509
3.22011
3.17727
3.15415
3.14481
3.14092
3.14331
3.16085
3.17829
3.18285
3.17974
3.17201
3.15193
3.11894
3.09477
3.08141
3.0732
3.07049
3.0762
3.09115
3.09523
3.09059
3.07688
3.04669
3.0154
2.99899
2.99286
2.99104
2.99755
3.01903
3.03041
3.03115
3.02673
3.01719
2.9953
2.95896
2.92666
2.90974
2.90097
2.897
2.89614
2.90632
2.93827
2.96762
2.96993
2.96622
2.96038
2.94765
2.91786
2.87134
2.84328
2.83705
2.8357
2.84412
2.87127
2.88881
2.88877
2.88516
2.87991
2.86949
2.85211
2.83187
2.81609
2.80788
2.80465
2.80409
2.8059
2.80455
2.79789
2.78645
2.77444
2.76729
2.76374
2.76086
2.7587
2.75712
2.75339
2.74658
2.73238
2.71299
2.70158
2.69909
2.69773
2.69649
2.69668
2.69926
2.69988
2.69676
2.69227
2.68448
2.67274
2.66003
2.64838
2.63655
2.62434
2.61483
2.61069
2.6087
2.60888
2.60869
2.60584
2.59972
2.22621
2.21977
2.21488
2.21018
2.20288
2.19483
2.18668
2.17556
2.16113
2.14945
2.14093
2.13077
2.11936
2.10617
2.09049
2.07888
2.08209
2.11459
2.20107
2.3718
2.59218
2.81364
3.00426
3.13088
3.22895
3.25419
3.25628
3.25346
3.23442
3.19797
3.16793
3.14874
3.14003
3.13909
3.15226
3.17383
3.18128
3.17963
3.17518
3.15972
3.12704
3.09659
3.08031
3.07217
3.07125
3.08515
3.09995
3.1008
3.09622
3.08798
3.06665
3.02628
2.99495
2.98383
2.98001
2.98084
2.99616
3.025
3.03171
3.02776
3.02051
3.00492
2.97258
2.93495
2.91461
2.90628
2.90289
2.9043
2.91702
2.93823
2.95047
2.95041
2.94744
2.94371
2.93695
2.92235
2.89602
2.86724
2.85259
2.85012
2.85854
2.87029
2.87328
2.87198
2.86953
2.86538
2.85656
2.84002
2.82229
2.81202
2.80782
2.80764
2.81583
2.82398
2.82233
2.8139
2.79689
2.77325
2.75791
2.75316
2.75016
2.74813
2.74888
2.7507
2.74805
2.74117
2.72572
2.70414
2.69256
2.68982
2.68757
2.68584
2.68636
2.68975
2.69136
2.6888
2.68367
2.67542
2.66387
2.65092
2.63836
2.62799
2.62289
2.62011
2.61693
2.61186
2.60495
2.60075
2.59556
2.24836
2.24233
2.2362
2.22862
2.22055
2.21155
2.20108
2.18745
2.17682
2.17186
2.16795
2.16225
2.15487
2.14353
2.12526
2.09511
2.07047
2.06178
2.05959
2.06841
2.11266
2.22091
2.42065
2.65289
2.88368
3.0571
3.13404
3.20078
3.20143
3.18947
3.18669
3.17841
3.15363
3.14933
3.15511
3.17105
3.18096
3.17816
3.17145
3.15799
3.13161
3.10206
3.08462
3.07719
3.07397
3.0735
3.07829
3.08447
3.08705
3.08276
3.06938
3.04546
3.01282
2.98756
2.9791
2.97872
2.98701
2.99845
3.01083
3.01278
3.00927
2.99983
2.97754
2.94914
2.93164
2.92318
2.91959
2.92203
2.93019
2.93838
2.93937
2.93612
2.9317
2.92619
2.91933
2.91201
2.90228
2.89068
2.88263
2.8775
2.87235
2.86639
2.86204
2.8583
2.85387
2.84721
2.83743
2.82554
2.81602
2.81211
2.81185
2.82009
2.83295
2.83488
2.83048
2.81896
2.79613
2.76695
2.74994
2.74417
2.74083
2.73858
2.74097
2.74802
2.74739
2.74272
2.73142
2.70818
2.68664
2.67909
2.67648
2.67418
2.67467
2.68331
2.6867
2.68378
2.68114
2.67747
2.67088
2.66073
2.64609
2.63317
2.62721
2.62239
2.61677
2.60921
2.60118
2.59585
2.59135
2.27247
2.26522
2.25707
2.24777
2.23761
2.22674
2.21221
2.1995
2.19288
2.18767
2.18457
2.18368
2.17988
2.17278
2.16211
2.13953
2.1001
2.06656
2.05507
2.0543
2.05308
2.05465
2.07409
2.1408
2.26302
2.45894
2.67584
2.89577
3.03528
3.09811
3.14737
3.1529
3.14668
3.15969
3.16837
3.17725
3.18516
3.18023
3.16975
3.15861
3.1454
3.133
3.12189
3.10625
3.08592
3.06599
3.05148
3.04767
3.05008
3.05458
3.05308
3.04685
3.03937
3.02619
3.00886
2.99617
2.99157
2.99069
2.99198
2.99254
2.98817
2.98138
2.97112
2.95668
2.94503
2.93917
2.93687
2.93693
2.93356
2.92856
2.92568
2.92224
2.91638
2.91044
2.90633
2.90308
2.90331
2.90731
2.90692
2.89809
2.88171
2.86381
2.85081
2.84214
2.83468
2.82741
2.82149
2.81794
2.81627
2.8194
2.83068
2.84084
2.84012
2.83559
2.82782
2.81305
2.78864
2.76024
2.74328
2.73701
2.73331
2.73129
2.73424
2.74229
2.74207
2.73809
2.73091
2.71336
2.68575
2.67207
2.66862
2.66702
2.66743
2.67436
2.68294
2.68629
2.68697
2.68576
2.68123
2.67109
2.65206
2.63199
2.6203
2.61423
2.60947
2.60449
2.59854
2.59256
2.58814
2.29891
2.28882
2.27857
2.26851
2.2567
2.23964
2.22107
2.21127
2.20556
2.20093
2.1985
2.19886
2.19629
2.19029
2.18274
2.16955
2.14461
2.11054
2.08172
2.06342
2.05392
2.05082
2.0525
2.05416
2.05953
2.08441
2.15111
2.27351
2.47324
2.68835
2.87284
2.99625
3.06143
3.1108
3.12352
3.14051
3.16001
3.16932
3.16597
3.16043
3.16282
3.16461
3.1602
3.14807
3.12255
3.08297
3.04703
3.03048
3.02147
3.01592
3.01561
3.02695
3.04311
3.04978
3.04841
3.0366
3.01334
2.99009
2.9792
2.97514
2.97084
2.96647
2.9623
2.9596
2.95894
2.95972
2.95675
2.94758
2.93388
2.91872
2.90664
2.89969
2.89622
2.89417
2.89404
2.89735
2.9098
2.92057
2.91978
2.9119
2.89176
2.8609
2.8368
2.82338
2.81655
2.81312
2.8115
2.81212
2.81963
2.83791
2.85182
2.85088
2.84343
2.82946
2.81225
2.79209
2.76908
2.75037
2.73873
2.73185
2.72798
2.72628
2.73061
2.7399
2.74023
2.7368
2.72994
2.71645
2.6935
2.67174
2.66436
2.66242
2.66277
2.67173
2.68821
2.69552
2.69463
2.69124
2.68539
2.6736
2.65184
2.62718
2.61285
2.60587
2.60164
2.59847
2.59466
2.59026
2.58761
2.32756
2.31598
2.30384
2.29024
2.27415
2.25385
2.23477
2.22533
2.21909
2.21404
2.2111
2.21021
2.20668
2.20084
2.19462
2.1859
2.17045
2.14802
2.12426
2.10214
2.08112
2.06725
2.05749
2.05246
2.05198
2.0529
2.05446
2.06147
2.0905
2.16553
2.29624
2.49248
2.70258
2.86857
2.96579
3.03262
3.07354
3.08607
3.10577
3.13986
3.17215
3.1783
3.17214
3.1631
3.14795
3.12091
3.07841
3.03223
3.00621
2.99597
2.99232
2.99523
3.0236
3.05688
3.05977
3.05362
3.03801
3.00554
2.97091
2.95733
2.95365
2.95208
2.95519
2.96183
2.97242
2.97759
2.97458
2.96316
2.94009
2.9109
2.88812
2.87771
2.87405
2.87216
2.87428
2.89372
2.91907
2.925
2.92115
2.91417
2.89728
2.85973
2.82674
2.81383
2.80741
2.80458
2.80372
2.80869
2.83056
2.85381
2.85494
2.84996
2.83913
2.82098
2.79466
2.76701
2.74899
2.7403
2.73389
2.72812
2.72522
2.727
2.73505
2.73679
2.73314
2.72767
2.72169
2.71362
2.70051
2.68354
2.66808
2.66214
2.66166
2.66648
2.67715
2.68479
2.68457
2.68182
2.67741
2.66776
2.65036
2.62809
2.61031
2.60088
2.59544
2.5925
2.59048
2.58981
2.59048
2.35941
2.34713
2.33314
2.31527
2.29191
2.26869
2.25343
2.24333
2.23538
2.22916
2.22428
2.21956
2.21408
2.2082
2.202
2.19496
2.18479
2.17103
2.15685
2.14119
2.11976
2.09522
2.07657
2.06619
2.0597
2.05417
2.0514
2.05062
2.05198
2.05623
2.06601
2.09731
2.16996
2.29063
2.4674
2.65877
2.8301
2.91447
2.9886
3.04794
3.09371
3.13601
3.15347
3.15683
3.1515
3.13252
3.10354
3.06269
3.01696
2.99231
2.98803
2.98984
3.00481
3.03629
3.05521
3.05108
3.04024
3.01674
2.97603
2.94529
2.93566
2.93306
2.93652
2.95946
2.98084
2.98467
2.98172
2.97398
2.95344
2.91313
2.87961
2.8662
2.86048
2.85823
2.86035
2.87538
2.89971
2.91058
2.9101
2.90583
2.89375
2.86489
2.82853
2.81006
2.80306
2.79986
2.80115
2.81594
2.83816
2.84205
2.83982
2.83552
2.82621
2.80405
2.77045
2.748
2.73999
2.73453
2.73073
2.72912
2.73212
2.73934
2.73927
2.73495
2.73087
2.72364
2.7141
2.7057
2.69941
2.6924
2.681
2.66802
2.66264
2.66258
2.66864
2.67412
2.67358
2.67065
2.6655
2.65628
2.64192
2.62735
2.61438
2.60221
2.59401
2.59108
2.59211
2.59738
2.59897
2.38726
2.37658
2.36327
2.34342
2.31424
2.28994
2.27711
2.26628
2.25738
2.24931
2.24062
2.23145
2.22377
2.21687
2.20889
2.20043
2.19186
2.18491
2.17803
2.16959
2.15648
2.13184
2.0988
2.08039
2.07158
2.06436
2.05882
2.05422
2.05114
2.05065
2.05035
2.05485
2.05807
2.05831
2.0793
2.13896
2.25508
2.44479
2.64789
2.82411
2.91911
3.00014
3.05275
3.09074
3.11203
3.11249
3.10383
3.07738
3.04651
3.02291
3.00703
3.00126
3.00326
3.01141
3.021
3.02473
3.02112
3.01161
2.98512
2.94624
2.92847
2.92335
2.92347
2.93698
2.96471
2.97715
2.97538
2.96979
2.95619
2.92671
2.88695
2.86303
2.85584
2.85334
2.85613
2.8686
2.8804
2.88523
2.88577
2.8842
2.87916
2.86205
2.83597
2.81904
2.81037
2.80683
2.81196
2.8261
2.82923
2.82639
2.82317
2.81748
2.80344
2.77396
2.74662
2.73883
2.73576
2.73345
2.7342
2.74492
2.75684
2.75573
2.74536
2.73106
2.71906
2.70854
2.69996
2.69659
2.69378
2.68959
2.68495
2.67706
2.66791
2.66227
2.65996
2.65885
2.65724
2.65375
2.64712
2.63761
2.62992
2.62507
2.61976
2.61347
2.60828
2.60541
2.60436
2.60317
2.59419
2.40995
2.40019
2.38767
2.36916
2.34045
2.31412
2.30167
2.29269
2.28328
2.27233
2.26046
2.24863
2.23652
2.22707
2.21772
2.20698
2.20078
2.19635
2.19297
2.18782
2.18038
2.16754
2.14045
2.10475
2.08648
2.07759
2.07037
2.06406
2.05816
2.05507
2.05304
2.05087
2.04925
2.05071
2.04993
2.03732
2.02607
2.04693
2.11304
2.25554
2.45694
2.6527
2.83311
2.92653
2.98903
3.03655
3.05438
3.05312
3.04702
3.0492
3.04045
3.02916
3.01311
3.00498
3.00034
2.99962
3.00128
2.9982
2.98852
2.96328
2.93386
2.9237
2.92199
2.92663
2.93216
2.93886
2.94448
2.94609
2.94294
2.92972
2.90563
2.88249
2.86921
2.86327
2.86227
2.86814
2.87073
2.86674
2.86291
2.85918
2.85394
2.84572
2.83337
2.82615
2.82293
2.82352
2.82499
2.82318
2.81988
2.81655
2.81162
2.80056
2.77545
2.74438
2.73127
2.72801
2.72665
2.72933
2.74707
2.77252
2.77841
2.7729
2.75767
2.73134
2.70522
2.69239
2.68793
2.68498
2.68243
2.68201
2.68275
2.68089
2.6758
2.66656
2.65349
2.64306
2.63728
2.63144
2.62655
2.62426
2.62338
2.62397
2.62886
2.63301
2.63262
2.62786
2.61862
2.605
2.58069
2.42727
2.41771
2.4063
2.39032
2.36744
2.34485
2.33011
2.3191
2.30847
2.29672
2.28345
2.26943
2.25411
2.23574
2.22174
2.21527
2.21053
2.20712
2.20562
2.20199
2.19572
2.1882
2.17476
2.14564
2.10913
2.09035
2.08196
2.07633
2.07095
2.06557
2.06095
2.0576
2.05555
2.05375
2.04956
2.04382
2.03859
2.01479
1.98363
1.98579
2.01853
2.1028
2.25396
2.45328
2.64548
2.80909
2.91099
2.95789
3.00487
3.0248
3.03866
3.04147
3.03016
3.00404
2.99486
2.99312
2.99206
2.98791
2.98257
2.97762
2.96574
2.95267
2.94232
2.93048
2.92104
2.91478
2.9118
2.91093
2.91027
2.90758
2.90238
2.89332
2.88633
2.88141
2.87607
2.87028
2.86305
2.85477
2.84685
2.83999
2.83407
2.82943
2.82819
2.82991
2.83451
2.83252
2.8255
2.81739
2.8108
2.80576
2.79761
2.77946
2.75199
2.7332
2.72558
2.72305
2.7241
2.73967
2.77367
2.79053
2.78755
2.77919
2.76022
2.72373
2.68955
2.67966
2.6764
2.67357
2.67199
2.67606
2.68337
2.68396
2.67962
2.66968
2.6509
2.62862
2.617
2.61306
2.61171
2.61238
2.61695
2.63017
2.64726
2.65373
2.65118
2.64292
2.626
2.59652
2.56103
2.44378
2.43245
2.42017
2.40634
2.39061
2.37332
2.3567
2.34384
2.33332
2.32284
2.3106
2.2939
2.2703
2.24493
2.23086
2.22431
2.21883
2.21428
2.21263
2.21175
2.20756
2.20169
2.19414
2.17981
2.15092
2.11486
2.0941
2.08497
2.07883
2.07368
2.07006
2.06972
2.07142
2.0684
2.0634
2.05873
2.05107
2.0361
2.0121
1.97834
1.95796
1.95538
1.96664
2.0097
2.10484
2.26549
2.48164
2.6764
2.82063
2.91107
2.97254
3.01172
3.00705
2.993
2.99465
2.99244
2.98356
2.97758
2.97706
2.97965
2.98038
2.97787
2.96975
2.95202
2.9256
2.90629
2.89827
2.89269
2.88818
2.88499
2.88519
2.88958
2.89135
2.88818
2.88088
2.86992
2.85609
2.84481
2.8366
2.83059
2.82673
2.82499
2.82633
2.83501
2.83841
2.83326
2.82225
2.80748
2.79536
2.78633
2.77553
2.75942
2.74157
2.73042
2.72698
2.72696
2.73826
2.76799
2.7853
2.78312
2.77911
2.77249
2.75432
2.71586
2.68175
2.67042
2.66637
2.66368
2.66335
2.67238
2.68502
2.68572
2.68154
2.67268
2.65233
2.62413
2.60629
2.60219
2.60131
2.60429
2.62277
2.65245
2.66475
2.66248
2.65632
2.64566
2.62487
2.58632
2.54909
2.45889
2.44695
2.43484
2.42365
2.41255
2.39825
2.38004
2.36576
2.3569
2.34808
2.33676
2.3202
2.29406
2.2638
2.24628
2.2373
2.23009
2.2237
2.21827
2.21511
2.21322
2.20968
2.2044
2.19696
2.18295
2.15759
2.1246
2.10237
2.09211
2.0853
2.07966
2.07473
2.07012
2.06626
2.06447
2.0623
2.05692
2.05061
2.03871
2.01354
1.97371
1.95158
1.94777
1.94432
1.94617
1.96414
2.01993
2.14302
2.30884
2.52228
2.69079
2.84511
2.90236
2.92287
2.94922
2.949
2.9399
2.94065
2.94624
2.97344
2.98852
2.98503
2.97558
2.96012
2.94122
2.91367
2.89002
2.88314
2.87997
2.87846
2.88106
2.88955
2.89192
2.8874
2.87839
2.8619
2.84131
2.82873
2.82535
2.82367
2.82291
2.82446
2.83486
2.84325
2.8408
2.83349
2.82101
2.8027
2.78173
2.76502
2.7533
2.74365
2.73634
2.7337
2.73398
2.74369
2.76539
2.77736
2.77551
2.7716
2.76688
2.75894
2.74121
2.70812
2.67839
2.66689
2.66179
2.65867
2.66004
2.67715
2.69108
2.68936
2.68435
2.67551
2.65761
2.62576
2.6038
2.59884
2.59829
2.60205
2.61788
2.64252
2.65245
2.65081
2.64706
2.63937
2.61994
2.58534
2.54486
2.47116
2.45936
2.45004
2.44179
2.43238
2.41931
2.40235
2.38818
2.37762
2.36724
2.35554
2.34075
2.32007
2.29458
2.27302
2.25821
2.24631
2.23597
2.2278
2.22157
2.21632
2.21267
2.20935
2.20482
2.19857
2.18795
2.16567
2.13122
2.10605
2.09482
2.0875
2.08184
2.07728
2.07365
2.07077
2.06723
2.06258
2.05756
2.05172
2.04008
2.00903
1.96789
1.94778
1.94033
1.93789
1.93752
1.93735
1.94269
1.96788
2.03663
2.15486
2.31372
2.50476
2.65816
2.7961
2.84055
2.86114
2.89513
2.90884
2.93072
2.95579
2.95493
2.95487
2.95399
2.94314
2.91808
2.89044
2.877
2.87482
2.87536
2.88379
2.89474
2.89343
2.88616
2.87391
2.85496
2.8323
2.81591
2.80982
2.80852
2.81135
2.82516
2.84206
2.8451
2.84137
2.8342
2.82187
2.80024
2.77116
2.74893
2.73834
2.73327
2.7326
2.73478
2.74597
2.76693
2.77433
2.77005
2.7644
2.75921
2.75206
2.73986
2.72048
2.69958
2.68318
2.67106
2.66331
2.66066
2.66612
2.67747
2.67991
2.67834
2.67585
2.67212
2.66127
2.63819
2.6126
2.6012
2.59931
2.60219
2.61751
2.63595
2.63861
2.63587
2.63171
2.62449
2.60933
2.58542
2.55135
2.4859
2.47586
2.46755
2.45908
2.4494
2.43743
2.4234
2.40955
2.3966
2.38379
2.37041
2.35551
2.33791
2.31844
2.30077
2.28531
2.26963
2.25306
2.23897
2.23
2.22365
2.21807
2.21436
2.21287
2.2096
2.20385
2.19404
2.17471
2.14161
2.11042
2.09583
2.08846
2.08316
2.07937
2.07862
2.07783
2.07369
2.06882
2.06355
2.05528
2.03784
2.00581
1.96889
1.95037
1.94218
1.93675
1.93343
1.93295
1.93298
1.93352
1.9408
1.96586
2.03135
2.14202
2.28996
2.47047
2.63242
2.79109
2.85709
2.88272
2.92131
2.92943
2.92645
2.92672
2.92007
2.90564
2.88619
2.87294
2.87205
2.87392
2.88544
2.89588
2.89395
2.88803
2.87735
2.85794
2.83131
2.81153
2.80062
2.79591
2.796
2.80285
2.81935
2.83068
2.83061
2.82674
2.81638
2.79502
2.76534
2.74283
2.73445
2.73302
2.73445
2.74519
2.76384
2.76896
2.76392
2.75508
2.74691
2.73888
2.72798
2.71255
2.69794
2.6895
2.68577
2.68308
2.6805
2.67868
2.67609
2.6718
2.66918
2.66667
2.66354
2.65908
2.65196
2.64104
2.62748
2.61436
2.60744
2.60758
2.61381
2.62
2.61991
2.61664
2.61119
2.60224
2.58984
2.57669
2.55803
2.50332
2.4938
2.48487
2.47557
2.46528
2.45359
2.44126
2.42916
2.41688
2.40348
2.38803
2.37017
2.35142
2.33489
2.32154
2.30922
2.29506
2.27662
2.2559
2.24158
2.2335
2.22697
2.22087
2.21524
2.21176
2.20901
2.20386
2.19589
2.17986
2.15034
2.11909
2.10292
2.09427
2.08821
2.08319
2.07781
2.07165
2.06569
2.05997
2.05467
2.04883
2.03538
2.00519
1.97402
1.96033
1.95171
1.94482
1.93829
1.93333
1.93083
1.9285
1.92767
1.92858
1.93354
1.95442
2.01877
2.13041
2.29538
2.49134
2.64704
2.80009
2.88447
2.90033
2.90511
2.89731
2.88211
2.87056
2.85649
2.84561
2.84564
2.8583
2.87717
2.88518
2.88267
2.87613
2.86332
2.84269
2.81569
2.7967
2.79042
2.78956
2.79429
2.80135
2.80741
2.80825
2.80575
2.79847
2.78188
2.75671
2.7402
2.73703
2.73683
2.7444
2.76111
2.76811
2.76473
2.75763
2.74772
2.73242
2.7125
2.69357
2.68477
2.68287
2.68187
2.68333
2.69298
2.69813
2.69477
2.68374
2.66923
2.65966
2.65409
2.64856
2.64187
2.63582
2.63298
2.63031
2.62632
2.61993
2.61263
2.6071
2.60399
2.60142
2.59655
2.58833
2.5775
2.57011
2.56445
2.55982
2.52495
2.51283
2.50138
2.48971
2.47756
2.46552
2.45468
2.44504
2.4353
2.42397
2.40911
2.38898
2.36671
2.35003
2.33908
2.32941
2.3181
2.30224
2.27919
2.25621
2.2438
2.23647
2.22998
2.22412
2.21892
2.21468
2.21085
2.20593
2.19919
2.18553
2.15543
2.12044
2.10376
2.09555
2.08952
2.08376
2.07715
2.06999
2.06464
2.06028
2.05593
2.05037
2.0369
2.00488
1.97601
1.9651
1.95826
1.95158
1.94492
1.93888
1.93095
1.92461
1.9212
1.9204
1.91854
1.91242
1.91104
1.93255
2.00755
2.13628
2.3126
2.50665
2.65304
2.79222
2.8574
2.86015
2.86759
2.86208
2.8394
2.83345
2.83036
2.8283
2.84051
2.85693
2.85993
2.85481
2.84297
2.82337
2.8067
2.79647
2.79192
2.79141
2.79363
2.79497
2.79338
2.78947
2.78023
2.76434
2.74679
2.73816
2.73669
2.74098
2.75288
2.76302
2.76284
2.75934
2.75357
2.74211
2.71916
2.68728
2.66915
2.66551
2.6647
2.66759
2.68451
2.70224
2.70382
2.69909
2.68763
2.66753
2.64787
2.63774
2.63183
2.62761
2.62482
2.62502
2.6291
2.62892
2.62528
2.61719
2.60425
2.59195
2.58246
2.57312
2.56421
2.55918
2.55741
2.55796
2.56053
2.54962
2.53368
2.51888
2.50418
2.48933
2.47589
2.46607
2.45801
2.45003
2.44104
2.42878
2.40963
2.38458
2.36582
2.35554
2.34719
2.33799
2.32579
2.30664
2.27873
2.25565
2.24431
2.23739
2.23152
2.22641
2.2232
2.22178
2.21859
2.21355
2.20633
2.19116
2.16024
2.12181
2.1011
2.09157
2.08551
2.08127
2.07878
2.07605
2.07268
2.06886
2.06417
2.05622
2.03939
2.00806
1.97669
1.96242
1.95407
1.94755
1.94254
1.93838
1.93283
1.92709
1.92292
1.91968
1.91587
1.91073
1.8919
1.87641
1.88183
1.91675
2.01237
2.14961
2.33568
2.52159
2.65834
2.78887
2.83032
2.83318
2.84336
2.83356
2.81616
2.8197
2.82076
2.82006
2.81888
2.81697
2.81426
2.80732
2.79962
2.7937
2.78902
2.78601
2.78323
2.78052
2.77664
2.76987
2.75747
2.74462
2.73437
2.72881
2.72814
2.73322
2.74137
2.74692
2.74735
2.74377
2.73207
2.70588
2.6755
2.66113
2.65751
2.65678
2.66101
2.67501
2.68871
2.69021
2.68726
2.67905
2.65896
2.6317
2.61853
2.61511
2.6131
2.61429
2.62492
2.63023
2.62971
2.62657
2.61937
2.60311
2.57846
2.55726
2.54695
2.54301
2.54092
2.54018
2.55113
2.5645
2.58147
2.55859
2.53748
2.51717
2.49904
2.48724
2.47846
2.47009
2.46172
2.45308
2.44276
2.4266
2.40324
2.38435
2.37354
2.36484
2.35609
2.34605
2.33195
2.30866
2.27773
2.25697
2.24691
2.23995
2.23411
2.22886
2.22389
2.21984
2.21671
2.2119
2.20475
2.19031
2.15978
2.1226
2.10258
2.09264
2.08447
2.077
2.07115
2.06678
2.0636
2.06123
2.05773
2.05109
2.03576
2.00572
1.97699
1.96443
1.95743
1.95107
1.94456
1.93797
1.93078
1.92329
1.91799
1.91437
1.91065
1.90371
1.89087
1.8711
1.85558
1.85461
1.86858
1.92027
2.02789
2.17398
2.36493
2.54246
2.6657
2.7769
2.80666
2.8102
2.82165
2.81335
2.80026
2.80011
2.798
2.78998
2.78422
2.78239
2.77777
2.77038
2.76626
2.76547
2.76535
2.76481
2.76161
2.75613
2.74896
2.73987
2.73133
2.72591
2.72248
2.71978
2.71938
2.72005
2.71812
2.71008
2.69152
2.66962
2.65817
2.65448
2.65309
2.65877
2.67413
2.67956
2.6776
2.67374
2.66604
2.64696
2.62062
2.60614
2.6019
2.60094
2.60393
2.61644
2.62892
2.62807
2.62327
2.61573
2.5983
2.56252
2.53227
2.52536
2.5243
2.52487
2.53066
2.5478
2.56744
2.6179
2.59221
2.55868
2.52863
2.51211
2.50243
2.49382
2.48518
2.47588
2.46545
2.45301
2.43648
2.41646
2.40148
2.39175
2.38278
2.37375
2.36434
2.35307
2.3364
2.30914
2.27635
2.25661
2.24705
2.24005
2.23426
2.22938
2.22576
2.223
2.21979
2.21502
2.2078
2.19196
2.1565
2.11748
2.09904
2.08851
2.07998
2.07377
2.06927
2.06633
2.06464
2.06143
2.0569
2.0497
2.03359
2.00486
1.97756
1.96476
1.95718
1.95101
1.94512
1.93835
1.93019
1.9225
1.91717
1.91294
1.90924
1.90229
1.88752
1.86517
1.84923
1.84094
1.83617
1.84068
1.8637
1.9272
2.05021
2.19968
2.38427
2.54752
2.66428
2.75688
2.78051
2.78255
2.7963
2.79649
2.78642
2.77862
2.76941
2.75406
2.74213
2.7362
2.73407
2.73444
2.73913
2.74956
2.7533
2.75049
2.74752
2.7419
2.73215
2.72018
2.71058
2.70375
2.6984
2.69151
2.68059
2.66938
2.66179
2.65682
2.65524
2.65624
2.6597
2.66312
2.66482
2.66323
2.66025
2.65362
2.63732
2.61469
2.60096
2.59516
2.59281
2.59583
2.61138
2.61951
2.61789
2.61464
2.60878
2.59249
2.55741
2.52477
2.515
2.51361
2.5146
2.52686
2.5557
2.56247
2.6485
2.62606
2.58662
2.54686
2.52753
2.51667
2.50791
2.50022
2.49221
2.48217
2.46795
2.44654
2.42434
2.41338
2.40551
2.39739
2.38908
2.38055
2.37082
2.35752
2.33694
2.30711
2.27713
2.25894
2.24867
2.24087
2.2342
2.22863
2.22577
2.22544
2.22217
2.2169
2.20741
2.18609
2.14963
2.11821
2.10357
2.09379
2.08438
2.07651
2.07118
2.06653
2.0624
2.05941
2.056
2.05018
2.03676
2.01084
1.98148
1.96444
1.95414
1.94599
1.93903
1.93262
1.92661
1.92121
1.91636
1.91108
1.90557
1.89868
1.88516
1.8629
1.8411
1.82936
1.82437
1.82134
1.82003
1.82772
1.85987
1.9348
2.07293
2.22806
2.40126
2.54299
2.64946
2.7352
2.76237
2.77435
2.77787
2.77294
2.75481
2.74209
2.73078
2.71587
2.71238
2.71219
2.71551
2.72733
2.73943
2.74189
2.73873
2.73116
2.71907
2.70518
2.69278
2.68198
2.67107
2.66189
2.65615
2.6519
2.65122
2.65165
2.65089
2.64803
2.64424
2.64332
2.64365
2.64264
2.63849
2.62818
2.61403
2.60347
2.59661
2.59326
2.59381
2.59772
2.60123
2.60086
2.59886
2.59542
2.58449
2.5563
2.52366
2.51171
2.50979
2.51123
2.52282
2.54488
2.54947
2.66759
2.64865
2.61756
2.5818
2.55409
2.53488
2.52009
2.50987
2.50313
2.49572
2.48348
2.46322
2.44189
2.42811
2.41777
2.40818
2.39939
2.39133
2.38304
2.37206
2.35527
2.33224
2.30541
2.28139
2.26472
2.25292
2.24293
2.23568
2.23048
2.22642
2.22136
2.21568
2.21014
2.20034
2.17919
2.14786
2.12018
2.10519
2.09497
2.086
2.07829
2.07222
2.06746
2.063
2.05874
2.05491
2.04911
2.03518
2.00941
1.98086
1.96234
1.95072
1.94207
1.93575
1.9303
1.92518
1.92079
1.9172
1.9139
1.9095
1.9014
1.8836
1.85496
1.83323
1.82295
1.81834
1.81362
1.80992
1.80876
1.81055
1.82456
1.86514
1.95205
2.09858
2.25105
2.41053
2.53741
2.63936
2.72039
2.73632
2.74759
2.74894
2.73939
2.71469
2.70861
2.70815
2.70866
2.71084
2.71553
2.71515
2.71216
2.70761
2.7006
2.68972
2.6773
2.66754
2.65911
2.6528
2.65087
2.65163
2.65403
2.65181
2.64767
2.64254
2.63615
2.62551
2.619
2.6171
2.61422
2.61216
2.61029
2.60709
2.60587
2.60202
2.59553
2.5891
2.58558
2.58312
2.58002
2.57505
2.56601
2.55054
2.53161
2.51922
2.51468
2.51478
2.52429
2.53631
2.53488
2.67707
2.66128
2.63895
2.61403
2.59093
2.56784
2.54398
2.52329
2.5079
2.49699
2.48729
2.47535
2.46329
2.45259
2.44114
2.42836
2.41467
2.40097
2.38789
2.37622
2.36517
2.34879
2.32877
2.3095
2.29128
2.27353
2.25766
2.24592
2.23786
2.23099
2.22365
2.21578
2.2078
2.20109
2.19413
2.18015
2.1545
2.12531
2.10557
2.09296
2.08364
2.07711
2.07208
2.06736
2.06215
2.05614
2.04937
2.04155
2.02856
2.00516
1.97776
1.95999
1.95014
1.94282
1.9373
1.93239
1.92771
1.92301
1.918
1.9126
1.90654
1.89601
1.87253
1.84088
1.82462
1.81822
1.81326
1.80833
1.80552
1.80432
1.80474
1.80586
1.80759
1.82239
1.86567
1.95529
2.10729
2.25978
2.41632
2.53022
2.62525
2.69343
2.70118
2.7012
2.71424
2.72106
2.71668
2.71457
2.71406
2.70851
2.69959
2.68942
2.67633
2.66174
2.64895
2.64406
2.64444
2.64693
2.6512
2.65539
2.6551
2.65363
2.64946
2.64244
2.63228
2.61859
2.60226
2.59266
2.59038
2.58995
2.59473
2.60587
2.60857
2.60503
2.59632
2.58473
2.57413
2.56682
2.56022
2.55267
2.54429
2.53657
2.5305
2.5267
2.52529
2.52658
2.5262
2.52245
2.5187
2.68775
2.67018
2.65128
2.63501
2.6212
2.60555
2.58275
2.55098
2.52129
2.50078
2.48661
2.47917
2.47457
2.46914
2.46203
2.4533
2.44174
2.42591
2.40481
2.3812
2.36153
2.35051
2.34079
2.32953
2.31709
2.30188
2.28089
2.25651
2.24203
2.23602
2.23072
2.22412
2.21649
2.20897
2.20128
2.19146
2.17691
2.15646
2.13052
2.10961
2.09843
2.09059
2.08256
2.07478
2.06857
2.06306
2.05748
2.05093
2.0413
2.0263
2.00195
1.96904
1.95292
1.94788
1.94303
1.93766
1.93316
1.92925
1.92502
1.9202
1.91429
1.90586
1.88965
1.85795
1.83021
1.8198
1.8146
1.81078
1.80855
1.80598
1.80333
1.80103
1.79922
1.79667
1.78652
1.7814
1.79607
1.84446
1.95181
2.12215
2.28787
2.43215
2.51833
2.60424
2.66358
2.68925
2.71159
2.7208
2.71859
2.70859
2.69924
2.6886
2.67197
2.65236
2.63538
2.62308
2.61739
2.61788
2.62482
2.63737
2.64806
2.64911
2.64509
2.63831
2.62898
2.61493
2.59551
2.58
2.57604
2.57563
2.57825
2.5856
2.59122
2.59117
2.58748
2.57777
2.56084
2.54545
2.53822
2.53392
2.53014
2.52753
2.52789
2.53196
2.53482
2.53254
2.52586
2.51698
2.50322
2.69067
2.67135
2.65834
2.64974
2.64159
2.63215
2.61771
2.59067
2.54836
2.51211
2.49326
2.48382
2.47634
2.47156
2.47113
2.467
2.45995
2.44968
2.43034
2.39812
2.3682
2.35319
2.34522
2.33869
2.33168
2.32161
2.3054
2.28278
2.25958
2.24209
2.2296
2.22051
2.21278
2.20474
2.19714
2.19129
2.18645
2.17941
2.16467
2.1357
2.10376
2.08638
2.07834
2.07229
2.06698
2.06198
2.05706
2.05261
2.04812
2.04102
2.02376
1.9877
1.95755
1.94823
1.94393
1.94071
1.9372
1.93287
1.92941
1.9264
1.92216
1.91679
1.90637
1.8814
1.84751
1.82963
1.82225
1.81712
1.81294
1.80975
1.81111
1.81296
1.80816
1.80011
1.7869
1.77099
1.75477
1.74866
1.75465
1.78622
1.85664
1.98789
2.16861
2.33679
2.45157
2.52942
2.60858
2.65549
2.67681
2.69142
2.69573
2.6923
2.67602
2.658
2.64033
2.62188
2.61101
2.60623
2.60424
2.60624
2.61437