/*--------------------------------*- C++ -*----------------------------------*\
  =========                 |
  \\      /  F ield         | OpenFOAM: The Open Source CFD Toolbox
   \\    /   O peration     | Website:  https://openfoam.org
    \\  /    A nd           | Version:  7
     \\/     M anipulation  |
\*---------------------------------------------------------------------------*/
FoamFile
{
    version     2.0;
    format      ascii;
    class       volScalarField;
    location    "3.9";
    object      p;
}
// * * * * * * * * * * * * * * * * * * * * * * * * * * * * * * * * * * * * * //

dimensions      [1 -1 -2 0 0 0 0];

internalField   nonuniform List<scalar> 
16192
(
4.84256
4.86237
4.86958
4.86471
4.8506
4.82095
4.78675
4.77169
4.76772
4.76838
4.77451
4.77624
4.77246
4.76438
4.74807
4.72535
4.70924
4.70272
4.70075
4.70467
4.7155
4.71908
4.71523
4.70694
4.68992
4.66061
4.63384
4.62385
4.62009
4.61942
4.62341
4.62675
4.6264
4.62461
4.62148
4.61531
4.60419
4.58503
4.55912
4.53579
4.52358
4.51798
4.51562
4.52309
4.53843
4.5441
4.54113
4.53315
4.51452
4.47826
4.44578
4.43265
4.42686
4.42819
4.45042
4.47463
4.47795
4.47139
4.45807
4.42465
4.37748
4.3517
4.34112
4.33459
4.33105
4.33694
4.35416
4.36353
4.36096
4.35153
4.33222
4.31124
4.29872
4.28932
4.27878
4.26468
4.24776
4.23386
4.22541
4.22028
4.21789
4.2236
4.23765
4.24791
4.24695
4.24064
4.22805
4.19996
4.16376
4.14036
4.12798
4.1197
4.1143
4.1115
4.11566
4.1211
4.11929
4.11465
4.10548
4.08815
4.07039
4.0601
4.05492
4.05335
4.05786
4.06199
4.05902
4.05357
4.04423
4.02835
4.00299
3.97498
3.95307
3.93948
3.93288
3.93197
3.94585
3.97028
3.97998
3.98279
3.97963
3.96861
3.94547
3.91479
3.88799
3.86686
3.85322
3.84655
3.84776
3.86255
3.87417
3.87315
3.86627
3.8529
3.83422
3.81134
3.7884
3.77045
3.75579
3.74774
3.74356
3.74335
3.75081
3.76042
3.76141
3.75615
3.74327
3.72234
3.70169
3.69318
3.69237
3.70136
3.72259
3.7328
3.72868
3.72086
3.70617
3.67818
3.63356
3.60369
3.59014
3.5827
3.57783
3.57642
3.58272
3.58468
3.57981
3.57418
3.56351
3.54959
3.54289
3.54078
3.54499
3.55666
3.56083
3.55134
3.52736
3.4955
3.46821
3.45071
3.44489
3.44592
3.46513
3.50201
3.51428
3.51025
3.50374
3.4853
3.43504
3.36935
3.33607
3.32854
3.32725
3.33604
3.36495
3.41295
3.45377
3.46539
3.46101
3.44682
3.41491
3.36108
3.30932
3.28415
3.27619
3.27291
3.27381
3.2875
3.30906
3.31991
3.31968
3.31729
3.3154
3.3112
3.30337
3.28888
3.26709
3.24045
3.21221
3.19237
3.1863
3.18899
3.20544
3.222
3.23168
3.23924
3.23947
3.23285
3.21868
3.19552
3.16133
3.12219
3.09753
3.08847
3.08599
3.08803
3.10255
3.13114
3.14894
3.15081
3.14594
3.1384
3.12438
3.09718
3.06516
3.04447
3.0333
3.02787
3.02589
3.03373
3.05996
3.08329
3.08613
4.82389
4.83264
4.84902
4.85163
4.84587
4.83326
4.80847
4.77655
4.75717
4.75229
4.75124
4.75662
4.76114
4.75882
4.75208
4.73794
4.71559
4.69603
4.68806
4.68511
4.68669
4.69732
4.70373
4.70073
4.69317
4.67775
4.64908
4.61926
4.60662
4.60218
4.60401
4.61256
4.61634
4.61424
4.61013
4.6049
4.59672
4.58392
4.56625
4.54398
4.52288
4.51207
4.50858
4.51204
4.52139
4.5272
4.52543
4.51853
4.5067
4.48599
4.4561
4.43362
4.42643
4.42937
4.4469
4.46351
4.46279
4.45545
4.44591
4.42661
4.38463
4.34274
4.32667
4.32192
4.32284
4.34046
4.36289
4.37076
4.3665
4.35646
4.3375
4.30871
4.2867
4.27488
4.26623
4.25713
4.24602
4.23337
4.22366
4.21878
4.21781
4.22467
4.23608
4.23988
4.23626
4.22949
4.22002
4.20272
4.1707
4.1368
4.1166
4.10762
4.10302
4.10333
4.11168
4.11446
4.11275
4.11086
4.10437
4.09254
4.08279
4.07658
4.07119
4.06581
4.05902
4.05087
4.04222
4.03304
4.02062
4.00088
3.97903
3.96503
3.95868
3.95482
3.95597
3.967
3.97766
3.97577
3.96933
3.95942
3.94559
3.92661
3.90612
3.89221
3.88424
3.87829
3.87449
3.87553
3.87949
3.878
3.8723
3.86156
3.84561
3.82602
3.80412
3.78712
3.77624
3.76873
3.7643
3.7626
3.76428
3.76775
3.76905
3.7661
3.7601
3.74626
3.72716
3.70866
3.70001
3.69824
3.70428
3.72087
3.72923
3.72514
3.71912
3.70993
3.69097
3.65458
3.62222
3.60746
3.59874
3.59156
3.587
3.58638
3.58239
3.57532
3.56543
3.54968
3.53697
3.53291
3.5356
3.54796
3.57214
3.58834
3.58666
3.57759
3.55194
3.49597
3.44524
3.42772
3.4224
3.4203
3.42647
3.45356
3.4895
3.50465
3.50256
3.49229
3.46638
3.42336
3.38063
3.35348
3.3444
3.34585
3.36027
3.37797
3.39798
3.41851
3.42538
3.41722
3.39473
3.36619
3.33544
3.30586
3.28892
3.28475
3.28975
3.30675
3.31461
3.31163
3.30693
3.30205
3.29662
3.28993
3.28018
3.26664
3.25347
3.24598
3.23841
3.22772
3.22094
3.22108
3.22273
3.22106
3.21806
3.21451
3.2105
3.20365
3.1922
3.17631
3.16026
3.14314
3.12343
3.10593
3.09812
3.09919
3.10588
3.10963
3.11743
3.12921
3.13507
3.13051
3.1218
3.10856
3.08365
3.05086
3.0293
3.02203
3.02017
3.02515
3.04231
3.08123
3.09099
4.81558
4.81363
4.81895
4.82679
4.82828
4.82351
4.81613
4.79934
4.77093
4.74483
4.73627
4.73388
4.73726
4.74597
4.74643
4.7408
4.72861
4.70657
4.68269
4.67178
4.66817
4.67006
4.68147
4.68805
4.6849
4.67785
4.6635
4.63686
4.60999
4.59915
4.59571
4.59866
4.60141
4.5972
4.59178
4.58619
4.57962
4.57178
4.56271
4.5519
4.5385
4.52372
4.5128
4.5072
4.50224
4.49649
4.49287
4.49259
4.48961
4.48335
4.4739
4.45922
4.44601
4.44056
4.43864
4.43625
4.43442
4.43128
4.42412
4.41053
4.3899
4.36463
4.34308
4.33401
4.33636
4.34912
4.35757
4.35636
4.35001
4.34086
4.32889
4.30978
4.28569
4.26516
4.25419
4.24889
4.24457
4.23914
4.23247
4.22735
4.22508
4.22395
4.21951
4.2138
4.21032
4.20635
4.1987
4.18551
4.16902
4.15061
4.13297
4.11951
4.11272
4.11153
4.11144
4.10881
4.10546
4.09861
4.09158
4.08818
4.08668
4.08634
4.08379
4.07752
4.06701
4.05098
4.0313
4.01187
3.99013
3.97034
3.95896
3.95572
3.95798
3.97129
3.99082
3.99853
3.99281
3.97788
3.9564
3.93185
3.90327
3.88373
3.87625
3.87381
3.87815
3.89114
3.90671
3.91301
3.90736
3.89097
3.86485
3.83905
3.81217
3.79086
3.77916
3.77219
3.7689
3.77148
3.7821
3.79454
3.79997
3.79606
3.78389
3.7641
3.74355
3.72534
3.71006
3.70263
3.70123
3.70672
3.72101
3.72808
3.7234
3.71562
3.70393
3.6872
3.65819
3.62581
3.61144
3.60526
3.60097
3.60063
3.60474
3.60204
3.59264
3.57712
3.55494
3.5348
3.52546
3.52371
3.53048
3.56055
3.58657
3.58747
3.58255
3.57416
3.55554
3.51207
3.45578
3.42292
3.41312
3.41039
3.41545
3.43159
3.44867
3.46403
3.47512
3.47453
3.46462
3.45145
3.43247
3.40863
3.38251
3.36645
3.36294
3.36196
3.36013
3.36113
3.36713
3.37307
3.37032
3.36438
3.35809
3.34431
3.32522
3.31393
3.3123
3.31187
3.30767
3.3017
3.29352
3.28416
3.27446
3.26595
3.25852
3.25282
3.25141
3.25606
3.26217
3.2632
3.25864
3.24606
3.22753
3.21285
3.20252
3.19025
3.17679
3.16601
3.15994
3.15705
3.15552
3.15454
3.15174
3.14539
3.13418
3.12037
3.10763
3.09932
3.09494
3.0938
3.10031
3.10948
3.10865
3.10268
3.09422
3.07858
3.0571
3.03845
3.03012
3.03044
3.03656
3.04699
3.06121
4.81456
4.80497
4.80063
4.79936
4.79931
4.80416
4.80623
4.80102
4.78874
4.76319
4.73208
4.71959
4.71704
4.72093
4.73164
4.73308
4.72826
4.71758
4.69632
4.6707
4.65752
4.6531
4.65451
4.66466
4.67053
4.66749
4.66155
4.6499
4.62897
4.60724
4.59749
4.59288
4.58869
4.58226
4.57521
4.56717
4.5604
4.55584
4.55275
4.55083
4.54737
4.53982
4.52494
4.50236
4.48408
4.47547
4.46997
4.46712
4.47183
4.47914
4.48094
4.4764
4.4663
4.44599
4.42492
4.41466
4.40757
4.40077
4.39483
4.39105
4.38953
4.38741
4.38214
4.36877
4.35141
4.34207
4.33528
4.32781
4.32272
4.31824
4.31102
4.30297
4.29253
4.27612
4.25864
4.24924
4.24593
4.24428
4.2419
4.23702
4.22776
4.21463
4.20237
4.19357
4.18413
4.17416
4.16631
4.16286
4.16122
4.15836
4.15595
4.15199
4.14313
4.12856
4.11219
4.09873
4.0863
4.07707
4.07311
4.07234
4.07642
4.08155
4.08283
4.07833
4.07135
4.05894
4.03149
3.99356
3.96588
3.95305
3.94966
3.95273
3.97216
4.00115
4.01248
4.00807
3.99509
3.97041
3.93501
3.89657
3.87501
3.86523
3.8608
3.86311
3.88486
3.91634
3.92909
3.92616
3.91464
3.89047
3.85273
3.81085
3.78619
3.77312
3.7663
3.76425
3.77175
3.79138
3.81138
3.81953
3.81737
3.81001
3.79265
3.76304
3.73133
3.70957
3.7009
3.69861
3.7022
3.71473
3.72408
3.72084
3.71308
3.70267
3.68734
3.65944
3.62684
3.61142
3.60627
3.60381
3.60765
3.61969
3.62319
3.61793
3.60626
3.58002
3.54736
3.52935
3.52448
3.52319
3.5321
3.55164
3.56365
3.56772
3.56623
3.55897
3.54083
3.51419
3.48728
3.46079
3.43648
3.42381
3.42249
3.42667
3.42503
3.42401
3.42742
3.44016
3.4568
3.46105
3.45906
3.45259
3.43757
3.40895
3.3705
3.3428
3.32721
3.31819
3.31493
3.3213
3.34615
3.36496
3.36889
3.36792
3.36285
3.35016
3.32859
3.30836
3.29772
3.28951
3.27987
3.26954
3.26048
3.252
3.24682
3.24684
3.25947
3.27788
3.28512
3.28387
3.27662
3.25728
3.22775
3.2021
3.1788
3.15687
3.14365
3.13875
3.13829
3.1457
3.16242
3.18052
3.19022
3.18866
3.17543
3.14179
3.10264
3.08042
3.06952
3.06417
3.06257
3.06885
3.08269
3.09234
3.09383
3.09124
3.08751
3.0788
3.062
3.0442
3.03383
3.02976
3.02728
4.8217
4.80764
4.79179
4.78217
4.77782
4.7751
4.78127
4.78978
4.78723
4.7767
4.7519
4.7187
4.70467
4.70182
4.70569
4.71589
4.71778
4.71403
4.70538
4.6868
4.66096
4.6448
4.63933
4.63956
4.64737
4.65392
4.65205
4.64749
4.63858
4.62086
4.60271
4.59309
4.58488
4.57604
4.56572
4.55466
4.54781
4.54418
4.54336
4.54557
4.54475
4.54008
4.53091
4.51134
4.48346
4.46411
4.45626
4.45247
4.45653
4.47069
4.4782
4.47501
4.46695
4.45098
4.42314
4.39911
4.38762
4.38101
4.37748
4.38337
4.39817
4.4049
4.40152
4.39122
4.36423
4.32917
4.31153
4.3035
4.29694
4.29206
4.29071
4.29559
4.2967
4.29148
4.28144
4.2648
4.25146
4.24668
4.24229
4.23609
4.22604
4.21132
4.19364
4.17697
4.16316
4.15217
4.14606
4.14494
4.15347
4.16535
4.17048
4.16812
4.16118
4.14567
4.11896
4.09015
4.07033
4.06188
4.05781
4.05486
4.05617
4.06695
4.07444
4.07265
4.06741
4.05563
4.02849
3.99025
3.96603
3.95752
3.95575
3.96715
3.9937
4.00722
4.0044
3.99686
3.98261
3.95368
3.91068
3.88231
3.86745
3.86066
3.85883
3.87278
3.90511
3.92437
3.92488
3.91734
3.90208
3.87361
3.83578
3.80679
3.78717
3.77622
3.77168
3.77623
3.79433
3.81321
3.81979
3.81647
3.80857
3.79728
3.78213
3.76203
3.73866
3.71799
3.70658
3.70273
3.70607
3.71394
3.71275
3.70568
3.69738
3.68576
3.6645
3.63378
3.61435
3.60817
3.60561
3.60943
3.62479
3.63357
3.63087
3.62502
3.60711
3.57879
3.55595
3.54414
3.5367
3.53402
3.53822
3.54385
3.543
3.53958
3.53419
3.52385
3.51146
3.50329
3.4983
3.49325
3.48446
3.46865
3.44668
3.42642
3.41194
3.40199
3.39762
3.40017
3.42015
3.45292
3.46539
3.46668
3.46266
3.44936
3.41134
3.34956
3.31197
3.29943
3.29547
3.29516
3.30711
3.34538
3.37356
3.37692
3.3748
3.36817
3.35095
3.31977
3.29328
3.27981
3.27014
3.26049
3.25276
3.24908
3.24889
3.25892
3.27581
3.28425
3.2842
3.27964
3.26864
3.24836
3.21897
3.18243
3.15388
3.1404
3.13357
3.12996
3.12998
3.1487
3.19087
3.21558
3.21497
3.20817
3.19131
3.15132
3.09236
3.0577
3.04587
3.0405
3.03787
3.04051
3.0579
3.08332
3.10246
3.1121
3.11578
3.11267
3.10052
3.07296
3.03801
3.01272
2.99453
4.82041
4.81375
4.80066
4.77793
4.76065
4.7546
4.754
4.76663
4.77631
4.77329
4.76321
4.73862
4.70609
4.69139
4.68781
4.68968
4.69786
4.70147
4.69917
4.69236
4.67657
4.65191
4.63321
4.62683
4.62679
4.63486
4.64028
4.63778
4.63315
4.62323
4.60517
4.59266
4.58504
4.57671
4.56642
4.55435
4.54363
4.53741
4.53434
4.53359
4.53174
4.52798
4.52296
4.51391
4.4976
4.47495
4.45708
4.45
4.4485
4.45232
4.45914
4.45856
4.4512
4.44094
4.42243
4.39672
4.38106
4.37529
4.37516
4.38822
4.40005
4.39912
4.39394
4.38459
4.36484
4.33024
4.29986
4.28584
4.27921
4.27525
4.28083
4.29624
4.30282
4.30016
4.29402
4.28042
4.25652
4.23873
4.23063
4.2242
4.21708
4.20763
4.193
4.17122
4.15114
4.14172
4.13759
4.14093
4.15544
4.166
4.1654
4.1606
4.15291
4.14046
4.12134
4.09652
4.07405
4.05803
4.04884
4.04445
4.04607
4.05517
4.0603
4.05994
4.05218
4.03785
4.01542
3.99638
3.98795
3.98455
3.98765
3.99287
3.99033
3.98366
3.97683
3.96711
3.94918
3.92134
3.89957
3.88801
3.88148
3.87904
3.88795
3.90835
3.91607
3.91048
3.8997
3.88651
3.86549
3.83747
3.81705
3.80698
3.80148
3.79951
3.80436
3.8138
3.81758
3.81367
3.80369
3.79192
3.78187
3.77207
3.76217
3.75421
3.74915
3.74305
3.73181
3.71629
3.70556
3.69858
3.69078
3.68305
3.67374
3.65926
3.63845
3.62309
3.61801
3.61619
3.62143
3.63479
3.63951
3.63568
3.62996
3.61357
3.58862
3.56957
3.56245
3.55785
3.55577
3.55267
3.54558
3.53662
3.5263
3.51295
3.49854
3.48947
3.48756
3.4937
3.50582
3.51924
3.52242
3.51428
3.48784
3.43873
3.39707
3.37893
3.3733
3.37155
3.37934
3.41428
3.46341
3.47754
3.47583
3.4682
3.44644
3.39049
3.32218
3.29282
3.28502
3.28269
3.28406
3.30203
3.34454
3.37131
3.37032
3.36718
3.3595
3.33781
3.30269
3.27637
3.2643
3.25854
3.25554
3.25683
3.26745
3.28044
3.28249
3.27893
3.27237
3.26217
3.24728
3.22349
3.19285
3.169
3.15328
3.14173
3.13582
3.13438
3.14505
3.17494
3.19863
3.20602
3.20766
3.20152
3.18376
3.14917
3.10378
3.0631
3.04036
3.03213
3.02954
3.03098
3.0485
3.09054
3.12469
3.13401
3.13175
3.1262
3.11668
3.09218
3.0443
2.99162
2.95617
4.80854
4.81037
4.80345
4.78476
4.75462
4.74029
4.73561
4.74138
4.75733
4.76154
4.75724
4.7471
4.72555
4.69712
4.67938
4.67435
4.67327
4.67857
4.68559
4.68516
4.67951
4.66638
4.64428
4.62519
4.61816
4.61736
4.62344
4.62481
4.62055
4.61412
4.60061
4.58658
4.58015
4.57427
4.56751
4.55963
4.55034
4.53981
4.52933
4.52123
4.51605
4.51202
4.50876
4.50515
4.49965
4.48972
4.47326
4.45408
4.44206
4.4356
4.43106
4.42872
4.42714
4.42148
4.41252
4.40003
4.3904
4.38661
4.38845
4.39067
4.38697
4.3813
4.3736
4.36299
4.34687
4.32706
4.30428
4.28637
4.27797
4.27584
4.28545
4.29736
4.29907
4.29506
4.28882
4.2778
4.25814
4.23504
4.2192
4.21196
4.20657
4.2003
4.1921
4.18054
4.16681
4.15524
4.14872
4.14647
4.14293
4.13748
4.13503
4.13262
4.1277
4.11836
4.106
4.09613
4.08715
4.07749
4.06766
4.06002
4.0546
4.04966
4.04267
4.02971
4.01536
4.00563
4.00261
4.00236
4.00922
4.02022
4.02204
4.01253
3.99194
3.96802
3.94791
3.92405
3.90119
3.89032
3.8872
3.88757
3.89704
3.91601
3.93154
3.92963
3.91697
3.89551
3.87086
3.84369
3.82284
3.81195
3.80845
3.81092
3.8246
3.84232
3.84888
3.84277
3.82508
3.80112
3.77945
3.76314
3.75416
3.74824
3.74518
3.74916
3.75899
3.75977
3.75356
3.73693
3.70799
3.68371
3.66984
3.65713
3.64218
3.62846
3.62033
3.61769
3.62045
3.63479
3.65478
3.65971
3.65274
3.6373
3.61166
3.58427
3.56821
3.56326
3.56202
3.56686
3.57084
3.56589
3.55546
3.53718
3.51119
3.48758
3.4753
3.47099
3.47125
3.48586
3.5199
3.54198
3.54164
3.53414
3.51323
3.45799
3.3953
3.36951
3.36288
3.36097
3.36653
3.39101
3.43165
3.46499
3.46992
3.46311
3.4469
3.41549
3.36121
3.30675
3.28082
3.27493
3.27391
3.28252
3.30306
3.3341
3.359
3.36151
3.35546
3.34076
3.3165
3.2897
3.272
3.26557
3.26467
3.27231
3.28299
3.28263
3.27772
3.26936
3.25649
3.23791
3.21263
3.18678
3.17012
3.16056
3.15468
3.15094
3.1506
3.16154
3.18534
3.19975
3.19877
3.19459
3.18724
3.17563
3.15488
3.1276
3.10511
3.08505
3.06154
3.04269
3.03676
3.03924
3.05574
3.07635
3.09713
3.11692
3.12416
3.12009
3.10975
3.08695
3.04311
2.97799
2.9402
4.79288
4.80294
4.80061
4.78974
4.7624
4.73798
4.72893
4.72705
4.73372
4.74077
4.74162
4.73697
4.73009
4.71514
4.69081
4.66774
4.65994
4.65813
4.66064
4.66967
4.67156
4.66711
4.65729
4.63924
4.61991
4.61118
4.60798
4.60846
4.60524
4.60016
4.59126
4.57808
4.57032
4.56519
4.56152
4.55785
4.55269
4.54554
4.53495
4.52023
4.50615
4.49891
4.49516
4.49319
4.49197
4.48778
4.48009
4.46566
4.44286
4.42196
4.4121
4.40681
4.40263
4.40102
4.40138
4.40175
4.40191
4.39974
4.39331
4.3824
4.36988
4.35854
4.34737
4.33499
4.32432
4.31659
4.30854
4.29967
4.29496
4.29533
4.29543
4.29114
4.28505
4.27718
4.2682
4.25774
4.24648
4.23408
4.21911
4.20544
4.19817
4.19391
4.19084
4.18993
4.1884
4.18289
4.17095
4.15083
4.13016
4.1166
4.10524
4.09502
4.08796
4.08418
4.08474
4.0877
4.09313
4.09859
4.09918
4.09276
4.07611
4.0493
4.02266
4.00124
3.98813
3.98326
3.98483
3.99994
4.02535
4.03717
4.03416
4.02551
4.00497
3.96419
3.91936
3.8908
3.87575
3.87075
3.8731
3.89272
3.92735
3.94833
3.9471
3.93595
3.9127
3.87612
3.84023
3.81662
3.80305
3.79917
3.80469
3.8293
3.85654
3.86381
3.85911
3.84612
3.82145
3.78583
3.75996
3.74656
3.73862
3.73532
3.74001
3.75869
3.76631
3.76249
3.7539
3.7372
3.71177
3.68116
3.65357
3.63438
3.6195
3.6093
3.60631
3.61165
3.63467
3.66746
3.68013
3.67632
3.66344
3.63134
3.58613
3.56148
3.55546
3.5539
3.55894
3.57119
3.57344
3.56844
3.56033
3.54098
3.50647
3.47826
3.46719
3.46435
3.46662
3.49205
3.52832
3.53907
3.53599
3.52773
3.51028
3.47501
3.42582
3.38789
3.36937
3.36401
3.36752
3.3843
3.39718
3.41048
3.42751
3.43487
3.42874
3.41055
3.3876
3.35738
3.32034
3.2891
3.27858
3.27812
3.28764
3.29823
3.31175
3.32838
3.33476
3.33005
3.32318
3.31279
3.29952
3.28926
3.28566
3.28536
3.28238
3.27687
3.26754
3.2529
3.23013
3.1989
3.17452
3.16366
3.15854
3.15646
3.15768
3.16691
3.18508
3.20565
3.21071
3.20617
3.19562
3.18093
3.16234
3.1378
3.11511
3.10373
3.09968
3.09623
3.0887
3.07692
3.0685
3.0672
3.07046
3.07357
3.07554
3.08125
3.08992
3.09252
3.0856
3.06736
3.04058
3.00027
2.95114
4.77841
4.79124
4.79128
4.78425
4.76796
4.74958
4.73588
4.72733
4.72181
4.71725
4.71447
4.7176
4.72021
4.7158
4.70505
4.68263
4.65492
4.64467
4.6423
4.64483
4.65522
4.65897
4.65568
4.64845
4.63408
4.61478
4.60192
4.59537
4.59029
4.5852
4.57871
4.56882
4.55892
4.55285
4.54877
4.54729
4.54595
4.54223
4.53667
4.52754
4.51229
4.49396
4.48383
4.47951
4.47707
4.47562
4.47097
4.46289
4.44756
4.42444
4.40423
4.39449
4.39004
4.39136
4.39805
4.40065
4.39829
4.39377
4.38551
4.37053
4.35417
4.34008
4.32661
4.31712
4.31221
4.31217
4.31589
4.31803
4.31542
4.30783
4.29458
4.27774
4.26346
4.25241
4.24273
4.23542
4.23092
4.22619
4.21925
4.20787
4.19846
4.19463
4.19349
4.19572
4.19686
4.19249
4.18368
4.16421
4.13165
4.10025
4.08005
4.06757
4.06085
4.05828
4.06052
4.07783
4.10356
4.11699
4.11649
4.11049
4.09441
4.05686
4.01177
3.98453
3.97387
3.97046
3.97445
4.00203
4.03117
4.03375
4.02815
4.0192
4.00141
3.96233
3.90886
3.8772
3.86806
3.86607
3.87866
3.91612
3.94232
3.94263
3.93559
3.92282
3.89947
3.8632
3.83043
3.81136
3.80402
3.80403
3.82104
3.84819
3.85852
3.8554
3.84587
3.82988
3.80716
3.78428
3.76397
3.74976
3.74252
3.7421
3.74904
3.74896
3.74508
3.74214
3.73473
3.72139
3.70578
3.68591
3.65672
3.62621
3.60817
3.60229
3.60194
3.62078
3.66299
3.68396
3.6812
3.67321
3.65608
3.61872
3.57413
3.55555
3.55081
3.54911
3.55518
3.5669
3.56797
3.5641
3.55741
3.53982
3.51145
3.48918
3.47823
3.47408
3.47885
3.49413
3.50016
3.50334
3.50557
3.50189
3.48985
3.4699
3.44918
3.4301
3.41235
3.39736
3.3894
3.38677
3.38539
3.38069
3.37584
3.37708
3.38461
3.38857
3.38437
3.37897
3.36749
3.34407
3.31256
3.29191
3.28741
3.28529
3.28215
3.28466
3.3015
3.32216
3.3261
3.32572
3.32347
3.31789
3.3067
3.29048
3.27569
3.26435
3.25065
3.22746
3.19426
3.16918
3.15815
3.15355
3.15235
3.15838
3.17769
3.2062
3.22697
3.2282
3.22111
3.20361
3.18073
3.15212
3.11991
3.10058
3.09464
3.09251
3.09626
3.10869
3.11926
3.12127
3.11511
3.09917
3.07855
3.06498
3.05925
3.05495
3.05122
3.04848
3.04399
3.03619
3.02556
3.00936
2.98461
4.77067
4.77553
4.77164
4.76448
4.75913
4.75556
4.75105
4.73847
4.717
4.69893
4.69363
4.69184
4.6992
4.70656
4.70304
4.69268
4.66723
4.63921
4.62976
4.62736
4.63401
4.64444
4.64612
4.643
4.63688
4.62507
4.60684
4.58898
4.57871
4.57229
4.56625
4.55892
4.54915
4.54035
4.53491
4.53184
4.53217
4.53261
4.5302
4.52648
4.51946
4.50581
4.48475
4.46819
4.4614
4.45691
4.45323
4.44779
4.4402
4.42851
4.41291
4.40011
4.39462
4.39484
4.39606
4.39172
4.38598
4.37882
4.36653
4.35005
4.33559
4.32585
4.31961
4.31573
4.31772
4.32444
4.32649
4.32139
4.3126
4.29808
4.27988
4.26334
4.24834
4.23531
4.22664
4.22172
4.22102
4.2217
4.2186
4.21361
4.20529
4.19834
4.19518
4.19304
4.1908
4.18648
4.17934
4.16731
4.14302
4.10689
4.07288
4.05369
4.0465
4.04429
4.05568
4.08908
4.11105
4.11335
4.10952
4.10207
4.08745
4.06082
4.02506
3.99695
3.98109
3.97443
3.97831
3.99387
4.00349
4.00838
4.00789
4.00096
3.98351
3.9547
3.92476
3.90363
3.89258
3.89111
3.90251
3.91337
3.91243
3.90913
3.90348
3.89229
3.87324
3.8528
3.83939
3.83285
3.83201
3.84064
3.84947
3.84694
3.83713
3.82365
3.8081
3.79179
3.78137
3.77545
3.77137
3.77021
3.77103
3.7678
3.75834
3.74389
3.7285
3.71437
3.70339
3.69564
3.68787
3.67698
3.66204
3.64239
3.62687
3.62054
3.6249
3.64463
3.6596
3.66081
3.65858
3.65126
3.63361
3.60555
3.58403
3.57075
3.56152
3.55731
3.55814
3.55925
3.55793
3.55515
3.54549
3.52739
3.5122
3.50666
3.50364
3.5025
3.49955
3.49321
3.48723
3.47958
3.46924
3.45942
3.45476
3.45405
3.4525
3.45385
3.45598
3.44914
3.42999
3.39982
3.37334
3.35043
3.33118
3.32257
3.32462
3.34476
3.37235
3.38755
3.39173
3.38861
3.37369
3.33726
3.29306
3.27091
3.26296
3.26037
3.26376
3.28772
3.32288
3.33417
3.33565
3.33187
3.32253
3.30213
3.27261
3.24609
3.21837
3.1875
3.16757
3.15934
3.1557
3.15432
3.16172
3.18501
3.21675
3.23352
3.23351
3.22854
3.21523
3.19157
3.15456
3.11701
3.0972
3.08905
3.08591
3.08888
3.10972
3.13892
3.15387
3.15414
3.146
3.12304
3.08508
3.05558
3.0379
3.02418
3.0126
3.00499
3.00204
3.00351
3.00531
3.0078
3.00573
4.76883
4.75646
4.74087
4.73604
4.73926
4.75016
4.75252
4.74521
4.7243
4.69236
4.67736
4.67258
4.67621
4.68958
4.69153
4.68669
4.67473
4.65129
4.63025
4.62144
4.61943
4.6239
4.62857
4.62924
4.62706
4.6213
4.61068
4.59256
4.57391
4.56433
4.55816
4.55168
4.54323
4.53265
4.52363
4.5185
4.51648
4.51781
4.51933
4.5179
4.51499
4.50935
4.49727
4.47558
4.45318
4.44057
4.43396
4.42888
4.42613
4.42245
4.41729
4.41154
4.40644
4.40087
4.39321
4.38387
4.37292
4.3591
4.34204
4.32663
4.31928
4.3159
4.3157
4.32257
4.33211
4.33409
4.32831
4.31792
4.29895
4.27557
4.25543
4.2426
4.2342
4.22786
4.22329
4.22294
4.22649
4.22648
4.22321
4.21812
4.21031
4.19853
4.18725
4.18108
4.17575
4.16937
4.16191
4.15129
4.13768
4.12118
4.1004
4.07796
4.06196
4.05807
4.06571
4.07307
4.07483
4.07704
4.07737
4.0739
4.06394
4.04728
4.03338
4.02325
4.01436
4.00734
4.00032
3.99314
3.98839
3.9822
3.97355
3.96127
3.9468
3.93827
3.93517
3.93612
3.94101
3.93906
3.9261
3.9061
3.88928
3.8743
3.85935
3.84769
3.84234
3.8427
3.84835
3.86247
3.87814
3.87902
3.8661
3.84004
3.81185
3.78391
3.76637
3.76038
3.75882
3.76406
3.77991
3.79687
3.79974
3.79292
3.7738
3.73998
3.70746
3.68407
3.67046
3.6626
3.65773
3.65746
3.65819
3.65716
3.65841
3.66396
3.66814
3.66253
3.65287
3.6428
3.62937
3.61016
3.594
3.5899
3.58837
3.58819
3.58729
3.58203
3.57133
3.55768
3.54586
3.53338
3.52144
3.51384
3.51152
3.51566
3.52458
3.52469
3.51646
3.49917
3.47656
3.45232
3.4324
3.4251
3.42473
3.4338
3.45652
3.48309
3.49175
3.48663
3.46846
3.42173
3.35605
3.31407
3.29588
3.28975
3.28922
3.3061
3.35717
3.40458
3.42301
3.42385
3.41645
3.38688
3.32062
3.26769
3.25299
3.24869
3.24775
3.25596
3.29194
3.33307
3.33887
3.3337
3.32442
3.30445
3.26839
3.22155
3.18341
3.16552
3.15785
3.15514
3.15576
3.16801
3.19701
3.22914
3.23925
3.23669
3.22862
3.21357
3.19102
3.15665
3.12216
3.10307
3.09326
3.08915
3.08986
3.10576
3.13697
3.15629
3.15742
3.15213
3.14096
3.11959
3.082
3.03734
3.0097
2.99557
2.98661
2.98059
2.97757
2.9809
2.99522
3.01691
3.03418
4.76935
4.73326
4.71158
4.70768
4.71637
4.74064
4.7477
4.74483
4.73046
4.70077
4.6783
4.66669
4.66287
4.66689
4.67071
4.66816
4.66332
4.65724
4.64717
4.63139
4.61561
4.60926
4.60598
4.60541
4.60914
4.60792
4.60187
4.59158
4.57535
4.56244
4.55512
4.54868
4.5415
4.53234
4.52067
4.50998
4.50423
4.50154
4.50205
4.50268
4.50117
4.49876
4.49411
4.4839
4.46451
4.44084
4.42469
4.41728
4.41351
4.4135
4.41378
4.41134
4.40708
4.40069
4.39161
4.37956
4.365
4.34795
4.33112
4.32031
4.31513
4.31347
4.31766
4.32604
4.32906
4.32553
4.31851
4.30639
4.28236
4.25261
4.23416
4.2261
4.22177
4.22072
4.22689
4.23686
4.24059
4.2379
4.23231
4.22332
4.20974
4.19067
4.1722
4.16004
4.15075
4.14229
4.13414
4.12858
4.12681
4.12677
4.12463
4.12083
4.11311
4.09751
4.07658
4.06169
4.05326
4.04455
4.03534
4.02782
4.02472
4.0281
4.03373
4.04113
4.04818
4.04671
4.03297
4.00499
3.97612
3.95435
3.93443
3.92205
3.9178
3.92007
3.93649
3.96169
3.97124
3.9667
3.95076
3.91335
3.86928
3.84307
3.82896
3.82189
3.82032
3.83052
3.86267
3.89255
3.89644
3.88778
3.86903
3.82921
3.78201
3.7571
3.74675
3.74224
3.74298
3.76427
3.79955
3.80974
3.80454
3.79415
3.77276
3.73287
3.68745
3.66285
3.65111
3.6434
3.63944
3.64049
3.6541
3.6746
3.69206
3.69924
3.69522
3.68079
3.65359
3.62314
3.59241
3.57271
3.56688
3.56697
3.57867
3.5994
3.60789
3.60441
3.59438
3.5704
3.53751
3.51586
3.50668
3.50479
3.5101
3.52677
3.53545
3.53133
3.52209
3.50111
3.46177
3.42858
3.41422
3.40945
3.40993
3.4302
3.47735
3.49822
3.49559
3.48803
3.47099
3.43235
3.36615
3.31128
3.28967
3.2838
3.28395
3.30075
3.34785
3.40598
3.42763
3.42646
3.41735
3.39594
3.3539
3.29777
3.25745
3.24376
3.24092
3.2452
3.26153
3.28983
3.31598
3.32136
3.31427
3.29416
3.25083
3.19994
3.17475
3.16445
3.16042
3.16076
3.17499
3.20882
3.24014
3.24555
3.24155
3.23144
3.21308
3.1839
3.14681
3.12033
3.10845
3.10312
3.10069
3.10371
3.11927
3.14305
3.1521
3.1494
3.14379
3.13698
3.12474
3.10286
3.07533
3.04643
3.01468
2.99021
2.97836
2.97278
2.97093
2.97473
2.99758
3.0404
3.06951
4.75555
4.71162
4.69705
4.69874
4.71391
4.73418
4.73534
4.7306
4.71646
4.70017
4.69116
4.68054
4.66434
4.65157
4.64661
4.64332
4.64404
4.65067
4.65177
4.64489
4.62735
4.60149
4.5895
4.58566
4.58412
4.58762
4.58616
4.58015
4.57197
4.56248
4.55485
4.5486
4.54268
4.53598
4.52693
4.51419
4.49927
4.48812
4.48255
4.47927
4.47884
4.4798
4.4786
4.47562
4.46959
4.45647
4.43708
4.41866
4.40844
4.40372
4.40129
4.3977
4.39356
4.38736
4.37743
4.36589
4.35494
4.34647
4.34027
4.3341
4.32734
4.32211
4.31934
4.31646
4.31257
4.30652
4.29787
4.28489
4.26641
4.24504
4.23037
4.22353
4.22136
4.22651
4.23803
4.24419
4.24276
4.23856
4.2322
4.22085
4.20307
4.18038
4.15686
4.13961
4.12854
4.11938
4.11343
4.112
4.11885
4.13174
4.1431
4.14771
4.1445
4.13233
4.10273
4.06099
4.02996
4.01203
4.00114
3.99619
3.99605
4.00613
4.03205
4.05789
4.06532
4.0605
4.04943
4.02236
3.97313
3.93218
3.91276
3.9038
3.90216
3.91583
3.95429
3.9749
3.97297
3.96589
3.95217
3.92143
3.87173
3.83229
3.81571
3.81107
3.81307
3.84002
3.87805
3.88743
3.88417
3.87513
3.85583
3.82393
3.7857
3.75821
3.7443
3.73935
3.74515
3.77173
3.78915
3.79117
3.78788
3.77725
3.75475
3.72637
3.69712
3.66803
3.64708
3.63821
3.63585
3.64557
3.67397
3.69968
3.70786
3.70439
3.69666
3.68322
3.65202
3.60171
3.56692
3.55411
3.55076
3.55166
3.57116
3.60313
3.61479
3.61309
3.60726
3.58589
3.54065
3.51045
3.50391
3.50277
3.51175
3.52645
3.52778
3.52225
3.51318
3.49456
3.45939
3.42524
3.4115
3.40793
3.41084
3.432
3.45697
3.472
3.47614
3.47215
3.45654
3.42129
3.38124
3.34758
3.32084
3.3055
3.30363
3.31811
3.34207
3.35657
3.37474
3.3905
3.39192
3.38106
3.36178
3.3374
3.30808
3.27587
3.254
3.24841
3.24876
3.25289
3.26634
3.27928
3.27881
3.26308
3.2325
3.20278
3.18459
3.17682
3.17544
3.18658
3.21872
3.24803
3.25118
3.24555
3.2331
3.21236
3.17878
3.13923
3.1154
3.10571
3.10273
3.10369
3.11502
3.13732
3.15618
3.15787
3.15236
3.14013
3.12488
3.10814
3.08864
3.07173
3.0611
3.0509
3.03532
3.00933
2.98628
2.97989
2.97986
2.98811
3.00586
3.03685
3.06781
4.66838
4.67518
4.69836
4.71206
4.73008
4.72855
4.71376
4.69489
4.68873
4.68582
4.68886
4.688
4.67462
4.64725
4.62809
4.62424
4.62461
4.63648
4.64525
4.64274
4.6345
4.61293
4.58579
4.57181
4.56639
4.56372
4.56495
4.56463
4.56088
4.55759
4.55406
4.54942
4.54446
4.53914
4.5324
4.52252
4.50722
4.48674
4.46853
4.45984
4.45579
4.45332
4.45571
4.46106
4.46106
4.45816
4.45139
4.43903
4.42142
4.40273
4.38848
4.37941
4.37241
4.36433
4.35377
4.3479
4.34456
4.34412
4.3478
4.35016
4.34729
4.33827
4.3201
4.29926
4.28518
4.27571
4.26804
4.26064
4.25342
4.24852
4.24367
4.23942
4.23793
4.2385
4.23747
4.23393
4.22988
4.22477
4.21837
4.21004
4.19683
4.17795
4.15299
4.12707
4.11156
4.10555
4.10314
4.10503
4.11772
4.13791
4.15091
4.15126
4.14628
4.13824
4.11951
4.07968
4.03119
3.99873
3.98509
3.98064
3.9816
4.002
4.03754
4.05468
4.05583
4.04972
4.03961
4.02275
3.98799
3.942
3.91297
3.90403
3.90394
3.91793
3.9347
3.94543
3.95042
3.94727
3.93584
3.91497
3.88728
3.85841
3.83761
3.82872
3.8321
3.84379
3.84592
3.84447
3.84126
3.8337
3.81957
3.8037
3.79341
3.78509
3.77839
3.77731
3.77932
3.77641
3.77024
3.76059
3.74885
3.73301
3.71541
3.70208
3.69372
3.68741
3.67776
3.66872
3.66649
3.67194
3.67665
3.67843
3.68481
3.68926
3.6841
3.67094
3.64737
3.60455
3.56494
3.5507
3.54697
3.55019
3.57591
3.60596
3.6121
3.60914
3.60173
3.5847
3.55834
3.53444
3.51817
3.51079
3.50856
3.50479
3.50287
3.49976
3.49223
3.47721
3.45724
3.44374
3.43576
3.43092
3.43348
3.44247
3.44597
3.44411
3.44121
3.43345
3.41629
3.39545
3.38396
3.3776
3.36947
3.35986
3.35158
3.34645
3.34353
3.34083
3.33604
3.33372
3.3384
3.34569
3.34524
3.34124
3.33622
3.32407
3.30089
3.26881
3.24613
3.23823
3.23267
3.22713
3.22256
3.21817
3.21336
3.20823
3.20486
3.20531
3.21589
3.2378
3.25289
3.25233
3.24679
3.23472
3.2126
3.17504
3.1349
3.11473
3.10747
3.10496
3.10784
3.12446
3.15172
3.16704
3.16587
3.15784
3.14226
3.12017
3.09216
3.06714
3.05624
3.05314
3.0518
3.0517
3.04829
3.03755
3.01654
3.00258
3.00148
3.00689
3.01446
3.02588
3.04231
4.16334
4.4325
4.60338
4.68744
4.72027
4.71801
4.68624
4.66261
4.65908
4.6647
4.68361
4.68758
4.67956
4.65336
4.62085
4.61189
4.61032
4.62051
4.63189
4.63018
4.62502
4.61619
4.59919
4.57857
4.55992
4.54948
4.54487
4.54228
4.54363
4.54622
4.54797
4.54604
4.54197
4.53713
4.53122
4.52387
4.51352
4.49692
4.47203
4.44784
4.43699
4.43289
4.43047
4.43094
4.44182
4.44929
4.44875
4.44578
4.43855
4.42328
4.39929
4.37412
4.35508
4.3419
4.33528
4.3324
4.33174
4.33654
4.34701
4.35403
4.35253
4.34561
4.32954
4.30029
4.27133
4.25527
4.24593
4.24118
4.24334
4.25409
4.26118
4.26053
4.25345
4.23764
4.22272
4.2151
4.2085
4.20265
4.19765
4.19179
4.18452
4.1753
4.16162
4.14101
4.11927
4.10849
4.10645
4.1101
4.11758
4.12352
4.12956
4.13434
4.13108
4.12288
4.11033
4.08956
4.05858
4.02386
3.99761
3.98707
3.98751
3.99861
4.00524
4.01007
4.01637
4.02052
4.01703
4.00416
3.98466
3.96639
3.95165
3.9387
3.93079
3.92779
3.92545
3.92087
3.9147
3.90831
3.9016
3.89463
3.88856
3.88459
3.88252
3.87771
3.86566
3.84722
3.82758
3.80929
3.79052
3.77638
3.77258
3.77896
3.79107
3.80568
3.82226
3.82731
3.81612
3.78765
3.75459
3.72443
3.6978
3.6817
3.67654
3.67647
3.68411
3.70165
3.71718
3.72241
3.71592
3.6948
3.67243
3.66447
3.65997
3.65723
3.65398
3.64599
3.63037
3.60926
3.58899
3.57445
3.56784
3.57183
3.58428
3.58448
3.58312
3.58086
3.57527
3.56824
3.56456
3.55959
3.54982
3.53192
3.50755