/*--------------------------------*- C++ -*----------------------------------*\
  =========                 |
  \\      /  F ield         | OpenFOAM: The Open Source CFD Toolbox
   \\    /   O peration     | Website:  https://openfoam.org
    \\  /    A nd           | Version:  7
     \\/     M anipulation  |
\*---------------------------------------------------------------------------*/
FoamFile
{
    version     2.0;
    format      ascii;
    class       volScalarField;
    location    "1.9";
    object      rho;
}
// * * * * * * * * * * * * * * * * * * * * * * * * * * * * * * * * * * * * * //

dimensions      [1 -3 0 0 0 0 0];

internalField   nonuniform List<scalar> 
16512
(
2.01551
2.01117
2.00564
2.00184
1.99869
1.9954
1.99244
1.98929
1.98576
1.98172
1.97646
1.96983
1.96509
1.96198
1.95872
1.95499
1.95077
1.94586
1.94013
1.93466
1.92997
1.92626
1.92345
1.92155
1.92014
1.9173
1.91352
1.90944
1.90509
1.90105
1.89757
1.89489
1.89223
1.88917
1.8853
1.87948
1.87144
1.86518
1.86127
1.8581
1.85565
1.85448
1.85322
1.85021
1.8472
1.84386
1.83874
1.83024
1.82333
1.82034
1.81708
1.81317
1.80899
1.80489
1.80088
1.79758
1.79548
1.79413
1.79308
1.79196
1.79201
1.79558
1.80374
1.81739
1.83873
1.86909
1.90791
1.95276
1.996
2.03331
2.07184
2.10499
2.12726
2.14579
2.16109
2.17419
2.18133
2.18267
2.18251
2.18008
2.18162
2.18328
2.18121
2.17446
2.16516
2.1574
2.1538
2.15286
2.15268
2.15104
2.14853
2.14512
2.14175
2.13765
2.13547
2.13365
2.13313
2.13636
2.13749
2.13476
2.13146
2.12845
2.12338
2.11712
2.11087
2.10488
2.09916
2.09443
2.09028
2.08589
2.08075
2.074
2.06534
2.05697
2.05099
2.04853
2.04771
2.0503
2.0627
2.07671
2.07915
2.07668
2.07305
2.06672
2.05371
2.03549
2.02118
2.01387
2.00967
2.00592
2.00184
1.9976
1.99438
1.99229
1.99097
1.99026
1.99051
1.99413
2.00378
2.01593
2.01874
2.01584
2.01151
2.00294
1.98596
1.96546
1.9544
1.9506
1.94871
1.94788
1.94864
1.95259
1.95543
1.95389
1.94987
1.94236
1.93088
1.92339
1.92079
1.91903
1.91745
1.91631
1.91613
1.9162
1.91466
1.91297
1.91
1.90295
1.88985
1.87328
1.86437
1.86131
1.85977
1.8593
1.86131
1.86913
1.88294
1.89043
1.88914
1.886
1.87992
1.86671
1.84682
1.83082
1.82261
1.81872
1.81689
1.81556
1.81458
1.81406
1.81407
1.81515
1.82021
1.82997
1.83549
1.83466
1.83016
1.82017
1.80071
1.77903
1.77137
1.76967
1.76885
1.7684
1.76844
1.76906
1.76926
1.76895
1.7691
1.77014
1.77018
1.76847
1.76568
1.76223
1.75846
1.7522
1.74041
1.7276
1.72321
1.72206
1.72193
1.72165
1.72066
1.71977
1.72002
1.72203
1.72074
1.71864
1.71675
1.71463
1.71104
1.70261
1.6901
1.68414
1.68275
1.68205
1.68156
1.68146
1.68301
1.68801
1.69157
1.69079
1.68915
1.68744
1.68501
1.67926
1.66878
1.65938
1.65519
1.65382
1.65299
1.65274
1.6545
1.65562
1.65462
1.65288
1.65025
1.63765
2.03052
2.02498
2.01859
2.01466
2.0116
2.00862
2.0054
2.00164
1.99744
1.99247
1.98598
1.97982
1.97636
1.97336
1.97023
1.96675
1.96252
1.95717
1.95054
1.9455
1.94261
1.93994
1.93789
1.93612
1.93334
1.92926
1.9241
1.91751
1.91017
1.90595
1.90325
1.90113
1.89943
1.8973
1.89476
1.89124
1.88515
1.87898
1.87512
1.87219
1.86979
1.86698
1.86315
1.85857
1.85361
1.84841
1.84229
1.83552
1.83223
1.83012
1.82784
1.82501
1.82195
1.81855
1.81438
1.80922
1.80403
1.79948
1.79583
1.79268
1.79009
1.78807
1.78682
1.78589
1.78583
1.78728
1.79183
1.80046
1.81671
1.84238
1.87404
1.91069
1.94656
1.98132
2.01858
2.05389
2.08382
2.10982
2.13338
2.15511
2.17068
2.17864
2.17899
2.17483
2.16895
2.16152
2.15329
2.14536
2.14007
2.13879
2.14224
2.14583
2.14403
2.14057
2.13519
2.12764
2.12263
2.12095
2.12069
2.12443
2.12922
2.12719
2.12467
2.12102
2.11547
2.10847
2.10118
2.0955
2.091
2.08662
2.0823
2.07763
2.07098
2.06048
2.05071
2.0464
2.04486
2.04424
2.04602
2.05404
2.06512
2.07249
2.07315
2.07019
2.06498
2.05611
2.04157
2.02513
2.01355
2.00767
2.00403
2.00069
1.99698
1.99357
1.9914
1.99012
1.98953
1.98963
1.99162
1.99763
2.00822
2.01521
2.01387
2.00986
2.00303
1.98944
1.97087
1.95658
1.9504
1.94786
1.94624
1.94542
1.94608
1.94813
1.94754
1.94388
1.93649
1.92864
1.9244
1.92236
1.92127
1.92063
1.91916
1.91695
1.91427
1.91081
1.90712
1.90361
1.89674
1.88658
1.87488
1.86661
1.86329
1.86217
1.86277
1.86552
1.87001
1.87852
1.88697
1.88705
1.8831
1.87542
1.85962
1.83914
1.82686
1.82177
1.8197
1.81804
1.81642
1.81499
1.81376
1.81323
1.81487
1.82153
1.83047
1.83233
1.831
1.82789
1.81963
1.80115
1.77922
1.77055
1.7682
1.76704
1.7663
1.76603
1.76509
1.76351
1.76183
1.76065
1.76057
1.76294
1.76485
1.76542
1.76476
1.76241
1.75619
1.74208
1.72689
1.72128
1.71939
1.71831
1.71706
1.71611
1.71574
1.71886
1.7215
1.72036
1.71864
1.71668
1.71372
1.70762
1.69588
1.68522
1.68215
1.68129
1.68086
1.68086
1.68429
1.69062
1.69113
1.68952
1.6871
1.68415
1.68107
1.67748
1.67138
1.66225
1.65549
1.65326
1.65261
1.65391
1.65818
1.65818
1.65636
1.65421
1.65179
1.6419
2.04336
2.03714
2.03187
2.02893
2.02655
2.02385
2.02027
2.01617
2.01143
2.00506
1.99685
1.99125
1.98794
1.98491
1.9816
1.97763
1.97263
1.96659
1.96088
1.95665
1.95365
1.95149
1.95034
1.94892
1.94618
1.94263
1.93762
1.93022
1.92254
1.91672
1.91232
1.90879
1.90568
1.90278
1.90027
1.89779
1.89397
1.8887
1.88587
1.88372
1.88116
1.87807
1.87464
1.87062
1.86511
1.8573
1.84831
1.84201
1.83875
1.83687
1.83488
1.83187
1.82861
1.82521
1.82202
1.81925
1.81687
1.81421
1.81111
1.80761
1.80276
1.79552
1.78945
1.78645
1.78498
1.78432
1.78329
1.78152
1.7796
1.77868
1.77911
1.78179
1.78882
1.80101
1.82063
1.85031
1.88935
1.93208
1.97674
2.0181
2.05761
2.10344
2.13792
2.15246
2.16032
2.16333
2.15454
2.13537
2.12709
2.12584
2.12694
2.13148
2.13599
2.13477
2.12788
2.11806
2.10953
2.10585
2.10418
2.10585
2.11659
2.12666
2.12715
2.12471
2.12005
2.11317
2.10456
2.09681
2.09088
2.0854
2.0809
2.07766
2.07402
2.06732
2.05642
2.04792
2.04507
2.0441
2.04392
2.04387
2.04579
2.05069
2.05874
2.06497
2.06479
2.06143
2.05616
2.04621
2.03093
2.0159
2.00792
2.00457
2.00151
1.9973
1.99321
1.99098
1.98972
1.98894
1.98833
1.98845
1.99099
1.99868
2.00912
2.01153
2.00817
2.00261
1.99279
1.97775
1.96064
1.94971
1.94555
1.94333
1.94186
1.94094
1.94085
1.94005
1.93818
1.93448
1.93014
1.92671
1.92434
1.92236
1.9203
1.91794
1.91507
1.91114
1.90565
1.90012
1.89695
1.89281
1.887
1.87962
1.87231
1.86825
1.86686
1.86673
1.86714
1.86843
1.87369
1.88213
1.8837
1.87952
1.87054
1.85396
1.83351
1.82221
1.81825
1.8164
1.81489
1.81347
1.81237
1.81211
1.81454
1.82055
1.82784
1.83327
1.8332
1.83103
1.82549
1.81546
1.79751
1.77718
1.76838
1.76557
1.76411
1.76282
1.76155
1.7598
1.7573
1.75529
1.7543
1.75522
1.76364
1.76997
1.77026
1.7685
1.7648
1.7562
1.73846
1.72305
1.71788
1.71573
1.71461
1.71392
1.71351
1.71604
1.72312
1.72373
1.72161
1.71908
1.7158
1.71074
1.70269
1.69128
1.68363
1.68165
1.68112
1.68173
1.68452
1.68763
1.68844
1.68721
1.68477
1.68154
1.67784
1.67506
1.67264
1.66864
1.66226
1.65632
1.65454
1.65422
1.65483
1.65432
1.65261
1.65079
1.64922
1.64249
2.05408
2.04671
2.04316
2.04069
2.03922
2.03716
2.03392
2.03002
2.02514
2.01792
2.00959
2.0046
2.00127
1.99796
1.99415
1.98954
1.98357
1.97591
1.9704
1.96688
1.96384
1.96164
1.96043
1.95874
1.95591
1.95247
1.94802
1.9418
1.93596
1.9318
1.92769
1.92289
1.91734
1.9117
1.90749
1.90414
1.90058
1.89692
1.89451
1.89209
1.88871
1.88509
1.88164
1.87786
1.87276
1.86598
1.85988
1.85526
1.85239
1.85025
1.84724
1.84296
1.83729
1.83073
1.82616
1.82379
1.82208
1.82066
1.81865
1.81677
1.8145
1.81103
1.80668
1.80194
1.79693
1.79185
1.78703
1.78277
1.77891
1.77556
1.77129
1.76773
1.76635
1.76598
1.76642
1.7687
1.77361
1.78317
1.79879
1.82145
1.85034
1.88611
1.92944
1.9728
2.01973
2.07696
2.10778
2.11222
2.11716
2.11688
2.10884
2.1058
2.10513
2.10752
2.10699
2.10433
2.10259
2.10104
2.09897
2.09987
2.10926
2.12224
2.128
2.1262
2.12343
2.11898
2.11133
2.1019
2.09332
2.08597
2.08108
2.0782
2.07589
2.07302
2.0685
2.06188
2.05462
2.0491
2.0459
2.04309
2.04018
2.03857
2.03936
2.04523
2.05471
2.05945
2.05766
2.05451
2.04774
2.03394
2.01708
2.00821
2.00452
2.00121
1.99752
1.99407
1.99165
1.98965
1.98757
1.98545
1.98448
1.98473
1.98982
2.00082
2.00738
2.00538
2.00113
1.99442
1.98218
1.96343
1.94829
1.94291
1.94027
1.93824
1.93633
1.93494
1.93496
1.93542
1.93385
1.93072
1.92609
1.92233
1.92035
1.9184
1.9158
1.91206
1.90628
1.89948
1.8952
1.89342
1.89149
1.88829
1.8834
1.87713
1.8719
1.86929
1.86791
1.86672
1.86641
1.86957
1.87609
1.87729
1.87367
1.86448
1.84643
1.82632
1.81833
1.81574
1.81422
1.81312
1.81231
1.81269
1.81635
1.82264
1.82781
1.8291
1.82757
1.8254
1.82316
1.81892
1.80867
1.78996
1.77145
1.76385
1.76177
1.76031
1.75906
1.75773
1.75576
1.7538
1.75277
1.75271
1.75738
1.76804
1.77225
1.7709
1.76781
1.76252
1.75212
1.73314
1.71893
1.71519
1.71399
1.71332
1.71292
1.71364
1.71685
1.71927
1.71827
1.7162
1.71388
1.71106
1.70711
1.7008
1.69081
1.68372
1.68197
1.68182
1.68208
1.68276
1.6833
1.68327
1.68204
1.67975
1.67671
1.67385
1.67235
1.67116
1.66893
1.6639
1.65719
1.65394
1.65336
1.6523
1.65051
1.64846
1.6465
1.64093
2.06658
2.05836
2.05414
2.0517
2.05075
2.04898
2.04532
2.04131
2.03626
2.02887
2.02209
2.01821
2.01509
2.01183
2.00796
2.00297
1.99669
1.99002
1.98436
1.97993
1.9762
1.97343
1.97074
1.96733
1.96359
1.95942
1.9547
1.94978
1.94641
1.94342
1.94016
1.93649
1.93184
1.92513
1.91796
1.91352
1.91048
1.90801
1.9057
1.90265
1.89856
1.89331
1.88726
1.88081
1.87435
1.86943
1.86671
1.86481
1.86356
1.86278
1.86087
1.85773
1.85263
1.84466
1.83697
1.8323
1.82923
1.82679
1.82393
1.82105
1.81882
1.8175
1.81592
1.81352
1.81019
1.80643
1.80225
1.79696
1.78956
1.77974
1.77155
1.76661
1.7642
1.7629
1.76241
1.76269
1.76481
1.76459
1.76276
1.76115
1.76172
1.76584
1.77531
1.79124
1.8149
1.84935
1.89108
1.93505
1.98303
2.03051
2.04294
2.0442
2.05319
2.06684
2.07968
2.08551
2.08991
2.09426
2.09449
2.09803
2.1096
2.11971
2.12427
2.1266
2.12627
2.1235
2.11844
2.11119
2.10144
2.09075
2.08565
2.08249
2.07916
2.07718
2.07598
2.07438
2.07123
2.06515
2.05549
2.04514
2.03913
2.03538
2.03244
2.03124
2.0338
2.04398
2.05415
2.05421
2.0521
2.04695
2.03484
2.01784
2.00639
2.00225
1.99999
1.99787
1.99555
1.99277
1.98914
1.98472
1.98104
1.97985
1.97932
1.98216
1.99276
2.00236
2.00176
1.99898
1.99418
1.98379
1.96458
1.94669
1.94024
1.93733
1.9353
1.93368
1.9328
1.93389
1.93373
1.93153
1.9275
1.92144
1.91798
1.91697
1.91572
1.91312
1.90866
1.90247
1.89732
1.8944
1.89258
1.89096
1.88857
1.88494
1.88017
1.87475
1.86998
1.8668
1.86469
1.86382
1.86517
1.86898
1.86878
1.86504
1.85584
1.83997
1.8239
1.81667
1.81423
1.81331
1.81315
1.81455
1.81971
1.82602
1.83006
1.8292
1.82659
1.82334
1.81989
1.81588
1.80995
1.79793
1.7781
1.76409
1.76052
1.75912
1.75793
1.75694
1.75597
1.75489
1.75396
1.75389
1.75654
1.75984
1.76225
1.76414
1.76459
1.76288
1.75774
1.74733
1.72998
1.71765
1.71498
1.71411
1.71362
1.71393
1.71498
1.71538
1.71505
1.7138
1.71248
1.71123
1.7094
1.70617
1.70001
1.6894
1.68237
1.68002
1.67935
1.67867
1.67796
1.67768
1.67837
1.67765
1.67634
1.67521
1.67423
1.67328
1.67197
1.66938
1.66308
1.65462
1.65055
1.64953
1.6478
1.64547
1.64331
1.63919
2.0784
2.0731
2.06942
2.06675
2.06472
2.06085
2.05611
2.05088
2.04436
2.03749
2.0331
2.02985
2.02679
2.02326
2.01899
2.01367
2.00779
2.00279
1.99894
1.9958
1.9928
1.98935
1.98497
1.9795
1.97324
1.96631
1.95981
1.95654
1.95393
1.95138
1.94878
1.94602
1.94257
1.93731
1.93007
1.925
1.92186
1.9196
1.9178
1.91558
1.91223
1.907
1.89877
1.8871
1.87683
1.87217
1.86967
1.86811
1.86787
1.86908
1.8683
1.86609
1.86318
1.85854
1.85228
1.8472
1.8437
1.84015
1.83572
1.82978
1.82473
1.82199
1.82018
1.81854
1.81612
1.81336
1.81017
1.80612
1.80075
1.79271
1.7824
1.77516
1.77151
1.76869
1.76641
1.76494
1.76392
1.76245
1.76103
1.75939
1.75592
1.75322
1.75255
1.75266
1.7546
1.7601
1.76745
1.77837
1.79356
1.81517
1.84293
1.87027
1.89945
1.93236
1.9691
2.00521
2.03351
2.06024
2.08147
2.09408
2.10467
2.1132
2.11315
2.11481
2.12094
2.12229
2.12017
2.11533
2.10586
2.0958
2.09204
2.08845
2.08431
2.08233
2.08166
2.08032
2.07812
2.07458
2.06774
2.05614
2.04318
2.03439
2.02962
2.02613
2.02472
2.02573
2.03418
2.04877
2.05261
2.05093
2.04707
2.03667
2.0191
2.0058
2.00126
1.99887
1.99696
1.99499
1.99203
1.98682
1.97999
1.976
1.97479
1.97408
1.97593
1.98605
1.9982
1.99928
1.99642
1.99224
1.98314
1.96437
1.94493
1.93788
1.93547
1.93374
1.93264
1.93309
1.93283
1.93064
1.92757
1.92225
1.91638
1.91374
1.91303
1.91255
1.9108
1.90811
1.90385
1.8986
1.89464
1.89173
1.88921
1.88705
1.88461
1.88137
1.87641
1.86963
1.86373
1.86039
1.85893
1.85852
1.8604
1.86077
1.85812
1.85213
1.84083
1.82598
1.81655
1.81372
1.8132
1.81453
1.81701
1.81952
1.82363
1.82635
1.82493
1.82187
1.8183
1.81398
1.80877
1.80089
1.7857
1.76683
1.75999
1.75845
1.75755
1.7572
1.7576
1.75879
1.75924
1.75894
1.75862
1.758
1.75698
1.75623
1.75627
1.75702
1.75643
1.75278
1.74505
1.73155
1.72013
1.717
1.71609
1.71557
1.7146
1.7132
1.71202
1.71111
1.70991
1.70907
1.70875
1.70747
1.70411
1.69727
1.68621
1.67964
1.677
1.6757
1.6745
1.67351
1.673
1.67407
1.67603
1.67703
1.67653
1.67564
1.67437
1.67229
1.66771
1.65815
1.64933
1.64574
1.64399
1.64187
1.63991
1.63681
2.09019
2.08704
2.08535
2.08433
2.08041
2.0751
2.0692
2.06157
2.05327
2.04861
2.04513
2.04184
2.03837
2.0343
2.02914
2.02274
2.01714
2.01393
2.01124
2.00912
2.00682
2.0037
1.99985
1.99457
1.9866
1.97732
1.97048
1.96589
1.96257
1.95978
1.95663
1.95314
1.94957
1.94492
1.93941
1.9356
1.93258
1.93038
1.92874
1.92698
1.92454
1.92054
1.91259
1.89945
1.88713
1.88013
1.8762
1.87366
1.87216
1.87191
1.87132
1.86934
1.86727
1.86499
1.86144
1.85744
1.85427
1.85119
1.84755
1.8426
1.83736
1.83378
1.83069
1.82725
1.82343
1.81933
1.81496
1.81026
1.80493
1.79961
1.79396
1.78874
1.78548
1.78273
1.77949
1.77555
1.77138
1.76765
1.7644
1.7611
1.75672
1.75234
1.7511
1.75089
1.75149
1.7528
1.75346
1.75446
1.75547
1.75345
1.75158
1.75088
1.75042
1.7583
1.77476
1.8031
1.83877
1.87959
1.92533
1.97128
2.00933
2.04045
2.06884
2.08452
2.09495
2.10537
2.10877
2.10619
2.10101
2.09591
2.09321
2.08998
2.08698
2.08599
2.08618
2.08649
2.08372
2.07887
2.07241
2.06486
2.05469
2.043
2.03246
2.0257
2.02242
2.02086
2.02076
2.02774
2.04432
2.05254
2.05172
2.04885
2.04145
2.02738
2.01061
2.00049
1.99601
1.99376
1.99258
1.98879
1.98142
1.97505
1.9725
1.97114
1.97012
1.97087
1.97845
1.99083
1.99566
1.99362
1.98835
1.97914
1.96111
1.9423
1.93614
1.93415
1.93294
1.93333
1.9342
1.93252
1.92964
1.92546
1.91884
1.91271
1.90999
1.90907
1.90948
1.91003
1.90834
1.90546
1.90058
1.8951
1.89026
1.88659
1.88471
1.88337
1.88016
1.87468
1.86587
1.85796
1.85411
1.85237
1.85139
1.85353
1.85754
1.85656
1.85336
1.84593
1.83316
1.82137
1.81674
1.81506
1.81386
1.81349
1.81418
1.81736
1.82083
1.81987
1.81697
1.81312
1.80843
1.80247
1.79255
1.77578
1.76173
1.75798
1.7572
1.75688
1.75796
1.76162
1.76413
1.76328
1.76017
1.75652
1.75422
1.75238
1.75095
1.75009
1.75086
1.75194
1.74962
1.74419
1.73395
1.72271
1.71794
1.71582
1.7141
1.71273
1.71155
1.71049
1.70882
1.70684
1.70528
1.7042
1.70327
1.70057
1.69369
1.68309
1.67665
1.67371
1.67232
1.67155
1.67107
1.67276
1.67836
1.68001
1.67874
1.67714
1.67542
1.67325
1.6694
1.66179
1.65081
1.6433
1.64012
1.6386
1.63728
1.63536
2.1001
2.09803
2.09853
2.09913
2.09516
2.08985
2.08269
2.07238
2.06504
2.06138
2.05821
2.05507
2.05136
2.04677
2.04028
2.03274
2.02793
2.02464
2.02206
2.01999
2.01785
2.01517
2.01163
2.00628
1.99805
1.98901
1.98278
1.97878
1.97521
1.97138
1.96691
1.96168
1.95636
1.95109
1.947
1.94444
1.94188
1.93972
1.93821
1.93621
1.93341
1.92958
1.92323
1.91372
1.90382
1.89658
1.89089
1.88568
1.88139
1.8785
1.87582
1.87302
1.87048
1.86829
1.86614
1.86329
1.8599
1.85639
1.85298
1.84969
1.84723
1.84523
1.84293
1.84005
1.83661
1.83233
1.82644
1.81811
1.8086
1.80172
1.79857
1.79638
1.79424
1.79202
1.78949
1.78676
1.78383
1.78
1.77434
1.76645
1.76046
1.75794
1.75609
1.75459
1.75332
1.75254
1.7517
1.75109
1.75115
1.75106
1.74911
1.74776
1.74482
1.73239
1.71637
1.70756
1.70921
1.71918
1.73966
1.7676
1.8012
1.83884
1.88549
1.93678
1.97544
2.00601
2.0332
2.05153
2.06865
2.08068
2.07953
2.07265
2.07092
2.07465
2.083
2.08413
2.08182
2.07752
2.07355
2.07025
2.06375
2.05481
2.04587
2.03572
2.0253
2.02045
2.01937
2.01904
2.02505
2.04239
2.05389
2.054
2.05245
2.04727
2.03482
2.01531
1.99924
1.99207
1.98834
1.98686
1.98273
1.9762
1.97231
1.97019
1.96827
1.96692
1.96675
1.97083
1.98005
1.9868
1.98654
1.98211
1.97246
1.95593
1.94008
1.9351
1.93349
1.93323
1.93591
1.93551
1.93341
1.93046
1.92495
1.91578
1.90939
1.90734
1.90662
1.90701
1.90943
1.90881
1.90726
1.90358
1.89733
1.88981
1.88362
1.8804
1.87971
1.87673
1.86954
1.85943
1.85224
1.84943
1.84812
1.84755
1.85235
1.85923
1.85865
1.85656
1.8518
1.84129
1.82562
1.81544
1.81109
1.80956
1.80874
1.80835
1.8105
1.81455
1.81459
1.81236
1.80899
1.8044
1.79787
1.78724
1.77105
1.75902
1.75533
1.75452
1.75489
1.76031
1.76591
1.76517
1.76141
1.75614
1.75276
1.75056
1.74842
1.74674
1.74572
1.74643
1.74833
1.74714
1.74344
1.73577
1.72405
1.7167
1.71379
1.7124
1.7113
1.71025
1.70867
1.70654
1.70475
1.70306
1.70132
1.69971
1.69669
1.68924
1.67868
1.67338
1.67179
1.67098
1.67051
1.67147
1.67396
1.67442
1.67358
1.67228
1.6708
1.66927
1.66721
1.66287
1.65422
1.64394
1.63863
1.63694
1.63608
1.63613
2.11049
2.10911
2.11082
2.11063
2.1065
2.10107
2.09296
2.08275
2.07711
2.07391
2.07135
2.06856
2.06489
2.06015
2.05362
2.04634
2.04159
2.03816
2.03507
2.03219
2.02894
2.02505
2.02044
2.01442
2.00648
1.99928
1.99457
1.99077
1.9871
1.98323
1.97864
1.97266
1.96631
1.96176
1.95804
1.95507
1.95293
1.9506
1.94769
1.94433
1.9405
1.93597
1.9301
1.92291
1.91676
1.91234
1.90815
1.90298
1.8961
1.88889
1.88379
1.88024
1.87755
1.87533
1.87317
1.87048
1.86668
1.86123
1.8557
1.85307
1.8514
1.85036
1.84938
1.84761
1.84536
1.84263
1.8388
1.83227
1.82103
1.80968
1.8047
1.80197
1.79924
1.79668
1.79413
1.79165
1.78973
1.78767
1.78413
1.77825
1.77074
1.76486
1.76134
1.75895
1.75744
1.75781
1.75668
1.75401
1.7516
1.74946
1.74768
1.74691
1.74515
1.74172
1.73591
1.72424
1.70249
1.69028
1.68789
1.68837
1.69266
1.70207
1.71851
1.74633
1.78482
1.82575
1.86882
1.91234
1.94975
1.98732
2.00445
2.01594
2.03036
2.04303
2.05218
2.0542
2.0559
2.06187
2.06884
2.06843
2.06404
2.05814
2.05422
2.04895
2.04112
2.03084
2.02146
2.01845
2.0187
2.02479
2.04202
2.05526
2.05527
2.05329
2.04853
2.03739
2.01697
1.99629
1.98658
1.98204
1.98021
1.97739
1.97409
1.97104
1.96816
1.96578
1.9643
1.96359
1.96497
1.97112
1.97676
1.97601
1.97306
1.96527
1.95149
1.939
1.93436
1.93243
1.93227
1.93513
1.93522
1.93312
1.92936
1.92282
1.91281
1.90654
1.90448
1.90361
1.90367
1.90805
1.91038
1.90967
1.90637
1.89902
1.88789
1.87886
1.87474
1.87357
1.87075
1.8629
1.85355
1.84911
1.84747
1.84649
1.84663
1.8531
1.86126
1.86067
1.85837
1.85379
1.84217
1.82349
1.81141
1.807
1.80511
1.80395
1.80315
1.80409
1.80769
1.80961
1.80873
1.80622
1.80207
1.79656
1.78683
1.77011
1.75757
1.75526
1.75494
1.75539
1.75822
1.76088
1.75992
1.75632
1.75258
1.75037
1.74802
1.74578
1.74437
1.74373
1.74465
1.74616
1.74536
1.74204
1.73517
1.7227
1.71407
1.71144
1.71088
1.7099
1.70816
1.70617
1.70433
1.70244
1.70038
1.69827
1.6962
1.69257
1.68441
1.67524
1.67191
1.6707
1.67009
1.67086
1.67228
1.6714
1.67015
1.66893
1.66741
1.6657
1.66373
1.66123
1.65684
1.64908
1.64063
1.63673
1.63534
1.63466
2.12549
2.12524
2.12549
2.12179
2.11621
2.10885
2.09903
2.09139
2.08779
2.08504
2.08294
2.07979
2.0757
2.07088
2.06527
2.06021
2.05655
2.05351
2.05046
2.04694
2.04267
2.03728
2.03018
2.02131
2.01344
2.00857
2.00452
2.00052
1.99675
1.99285
1.98796
1.98208
1.97679
1.97233
1.96915
1.96697
1.96545
1.96314
1.9598
1.95591
1.95079
1.94343
1.93498
1.92934
1.92645
1.92374
1.92056
1.91629
1.90991
1.90143
1.8944
1.89072
1.88837
1.88635
1.88412
1.88144
1.8777
1.87151
1.86338
1.85831
1.85555
1.85343
1.85224
1.85149
1.84974
1.84762
1.84522
1.84148
1.83473
1.82631
1.8206
1.81609
1.81123
1.80607
1.80062
1.79533
1.79136
1.78899
1.78747
1.78537
1.78163
1.77721
1.77302
1.76865
1.76427
1.76147
1.75992
1.7588
1.75665
1.75414
1.75168
1.74969
1.74835
1.7468
1.74397
1.73903
1.72816
1.70732
1.6897
1.68507
1.68324
1.6824
1.68234
1.68476
1.69224
1.70469
1.7209
1.74051
1.76416
1.79615
1.83549
1.87489
1.91289
1.94757
1.96865
1.98627
2.00455
2.02083
2.03143
2.03931
2.0448
2.05012
2.05172
2.0495
2.04491
2.04084
2.03309
2.02259
2.01695
2.01695
2.02215
2.03698
2.05298
2.05518
2.05187
2.04661
2.03578
2.01513
1.99176
1.98019
1.97626
1.97603
1.97534
1.97345
1.97061
1.96653
1.96386
1.96232
1.96119
1.96119
1.96614
1.97002
1.96841
1.9657
1.96067
1.9509
1.93989
1.93304
1.92767
1.92499
1.92528
1.92786
1.9287
1.92573
1.91914
1.90974
1.90375
1.90167
1.90077
1.90137
1.90814
1.91159
1.91046
1.90687
1.89824
1.88364
1.87281
1.86875
1.86744
1.86484
1.85871
1.85183
1.84844
1.84716
1.8465
1.84687
1.85087
1.85814
1.85961
1.85653
1.85065
1.83877
1.81982
1.80776
1.80365
1.80143
1.79998
1.79885
1.79848
1.7996
1.80137
1.80313
1.80332
1.80061
1.79588
1.78677
1.77036
1.7583
1.75618
1.75561
1.7555
1.75721
1.75801
1.75624
1.75309
1.75079
1.7487
1.74617
1.74447
1.74352
1.7429
1.74255
1.74229
1.74176
1.7394
1.73263
1.7198
1.71112
1.70814
1.70749
1.70624
1.7047
1.70312
1.7014
1.69948
1.69744
1.69553
1.69341
1.68921
1.6812
1.67345
1.67045
1.66956
1.6692
1.66844
1.66718
1.66609
1.66497
1.66354
1.66196
1.66031
1.65871
1.65714
1.65388
1.64717
1.63883
1.63541
1.63488
2.14136
2.14272
2.13987
2.13478
2.12808
2.11741
2.10654
2.10166
2.09855
2.09621
2.09366
2.08987
2.0853
2.07997
2.07512
2.07182
2.06907
2.06671
2.06399
2.06064
2.0565
2.05066
2.04189
2.03205
2.02537
2.02072
2.01637
2.01194
2.00718
2.00194
1.99582
1.9894
1.98492
1.98171
1.9788
1.97654
1.97478
1.97243
1.96948
1.96591
1.96049
1.95222
1.94478
1.94084
1.93806
1.93533
1.93205
1.92773
1.92129
1.91195
1.90352
1.89912
1.89641
1.89435
1.89222
1.88979
1.88675
1.88212
1.87557
1.86887
1.86477
1.8616
1.85913
1.85654
1.85331
1.85026
1.84754
1.84482
1.84109
1.836
1.83204
1.82869
1.82506
1.82081
1.81531
1.80769
1.79842
1.79186
1.78857
1.78648
1.7849
1.78316
1.78089
1.77777
1.77342
1.76798
1.76376
1.76109
1.75875
1.75662
1.75541
1.75527
1.75471
1.75309
1.7511
1.7488
1.74488
1.73594
1.71646
1.69297
1.6836
1.68165
1.68103
1.68095
1.68127
1.68298
1.68788
1.69394
1.69835
1.70278
1.70915
1.72005
1.7355
1.75708
1.78554
1.81825
1.85662
1.90021
1.93068
1.95594
1.98272
2.00451
2.01784
2.02758
2.03302
2.03432
2.03127
2.02383
2.01712
2.01252
2.01114
2.01424
2.02632
2.04356
2.05163
2.04926
2.04216
2.03155
2.01297
1.98842
1.97614
1.97164
1.97101
1.97266
1.97155
1.96873
1.96492
1.96146
1.95979
1.95863
1.95905
1.96505
1.96806
1.96711
1.96589
1.96306
1.95488
1.94099
1.92859
1.9205
1.91665
1.91588
1.91721
1.92082
1.92021
1.91519
1.90718
1.90202
1.90053
1.90024
1.90272
1.90959
1.91116
1.90954
1.90547
1.89424
1.87683
1.86658
1.86335
1.86274
1.86116
1.85761
1.85319
1.84928
1.84731
1.84625
1.84573
1.84672
1.85081
1.85352
1.85173
1.84626
1.83533
1.81734
1.80508
1.80105
1.79872
1.79688
1.79517
1.79365
1.79275
1.7929
1.79535
1.79919
1.79857
1.79436
1.78666
1.77153
1.75903
1.75618
1.75529
1.75486
1.75576
1.75549
1.75316
1.75083
1.74906
1.74665
1.74466
1.74368
1.74293
1.74157
1.74033
1.73954
1.73874
1.73629
1.72882
1.71578
1.70699
1.70388
1.70318
1.70214
1.70096
1.69967
1.69817
1.69651
1.6947
1.69289
1.69072
1.68651
1.67906
1.67163
1.66769
1.66616
1.66448
1.66277
1.66161
1.66029
1.65904
1.65797
1.65706
1.65643
1.65581
1.65474
1.65258
1.64768
1.64053
1.63556
2.15765
2.15817
2.15408
2.14809
2.13888
2.1268
2.11851
2.11447
2.11153
2.10846
2.10449
2.09958
2.09379
2.089
2.08557
2.0823
2.07951
2.07733
2.07506
2.07197
2.06789
2.06159
2.05223
2.04347
2.03799
2.03375
2.02968
2.02523
2.01972
2.01291
2.00551
1.99933
1.99494
1.99157
1.98892
1.98641
1.98349
1.98015
1.97637
1.97172
1.96558
1.95931
1.9556
1.95301
1.95087
1.94854
1.94543
1.94128
1.93509
1.92549
1.91419
1.90689
1.90253
1.89858
1.89492
1.89202
1.88949
1.88655
1.88252
1.8779
1.87516
1.8729
1.87022
1.86672
1.86232
1.85726
1.85208
1.84746
1.84384
1.84112
1.83841
1.83558
1.83259
1.82923
1.82485
1.81856
1.81002
1.8011
1.79537
1.79203
1.78961
1.78742
1.78515
1.78256
1.77872
1.773
1.76821
1.76564
1.76332
1.76054
1.75805
1.7561
1.75481
1.75472
1.75478
1.75364
1.7519
1.74908
1.74252
1.72735
1.70466
1.69009
1.68568
1.68367
1.68214
1.68146
1.68155
1.68251
1.6844
1.68873
1.69304
1.69292
1.69021
1.68759
1.68768
1.69219
1.70164
1.71978
1.74713
1.78136
1.82607
1.87062
1.90074
1.9269
1.95024
1.96896
1.9921
2.00932
2.01078
2.00145
1.99742
1.99908
2.00413
2.01337
2.027
2.03856
2.04017
2.03634
2.02791
2.0121
1.99006
1.97415
1.96737
1.96498
1.96606
1.96783
1.96583
1.96209
1.95889
1.95744
1.95645
1.9591
1.96853
1.97223
1.97152
1.9698
1.96638
1.95736
1.94019
1.92264
1.91362
1.9099
1.90871
1.909
1.91395
1.91613
1.91382
1.90868
1.90427
1.90289
1.90333
1.90627
1.91014
1.91011
1.90744
1.90144
1.8875
1.86998
1.86146
1.85888
1.859
1.85921
1.85676
1.85369
1.84929
1.84566
1.84394
1.84294
1.84233
1.8438
1.84669
1.84637
1.84191
1.83263
1.81714
1.8042
1.79934
1.79678
1.7945
1.7922
1.79014
1.78878
1.78813
1.78926
1.79392
1.79572
1.79234
1.78511
1.77166
1.75905
1.7553
1.75411
1.75337
1.75356
1.75255
1.75109
1.7498
1.74743
1.74527
1.74406
1.74266
1.74097
1.73974
1.73867
1.73746
1.73611
1.7334
1.72496
1.71089
1.70253
1.70004
1.6993
1.69832
1.6973
1.6962
1.69496
1.69358
1.69215
1.6908
1.68881
1.68399
1.67529
1.66784
1.66405
1.66172
1.65932
1.65758
1.65621
1.65504
1.65424
1.65379
1.65404
1.65523
1.65562
1.65507
1.65334
1.64916
1.63898
2.17278
2.17008
2.16512
2.15822
2.14722
2.13682
2.13211
2.12854
2.12498
2.12098
2.11599
2.10952
2.10318
2.0991
2.09588
2.09293
2.09036
2.08808
2.08509
2.08136
2.0767
2.0699
2.06151
2.05511
2.05052
2.04643
2.04236
2.03767
2.03163
2.02428
2.01722
2.01126
2.00682
2.00358
2.00054
1.99718
1.99336
1.98907
1.98392
1.97649
1.96787
1.96433
1.96216
1.96034
1.95935
1.958
1.95557
1.95256
1.94856
1.94254
1.93475
1.9267
1.9183
1.90945
1.90164
1.89596
1.8914
1.88694
1.883
1.88075
1.87899
1.87782
1.87654
1.87452
1.87174
1.86789
1.86246
1.85522
1.85023
1.84759
1.84495
1.84188
1.83822
1.83407
1.82934
1.82348
1.81713
1.81182
1.80838
1.80521
1.80174
1.79817
1.79466
1.79081
1.78527
1.77721
1.77095
1.76807
1.76581
1.7635
1.76128
1.75941
1.75823
1.75749
1.75706
1.75711
1.75678
1.75521
1.75274
1.7476
1.73564
1.71515
1.69849
1.69158
1.688
1.68558
1.68381
1.68247
1.68176
1.68213
1.68399
1.68712
1.68873
1.688
1.68629
1.68022
1.67297
1.66919
1.66901
1.6716
1.68031
1.69743
1.72131
1.75283
1.78913
1.81906
1.84883
1.88004
1.90951
1.94329
1.96976
1.97611
1.97688
1.98152
1.98808
2.00077
2.01953
2.02788
2.02579
2.02051
2.01131
1.99294
1.97283
1.96268
1.95933
1.95977
1.96352
1.96291
1.95915
1.95518
1.95377
1.95372
1.95985
1.97213
1.97444
1.97242
1.97042
1.96655
1.95684
1.93811
1.9177
1.90889
1.90588
1.90452
1.90465
1.91185
1.91779
1.91767
1.9151
1.91056
1.90775
1.90646
1.90613
1.90681
1.90578
1.90303
1.8964
1.88176
1.86478
1.8568
1.85436
1.85454
1.85676
1.85543
1.85199
1.84734
1.84285
1.8407
1.83951
1.83851
1.8385
1.84064
1.84099
1.83764
1.83044
1.81776
1.80457
1.79827
1.79526
1.79275
1.79013
1.78778
1.7864
1.78564
1.78589
1.78884
1.79072
1.78861
1.7819
1.76993
1.7574
1.75326
1.75215
1.75127
1.75018
1.74893
1.74727
1.74483
1.7427
1.74117
1.73989
1.73889
1.73841
1.73831
1.73774
1.73681
1.73551
1.7319
1.7211
1.70586
1.69856
1.69663
1.69586
1.69501
1.69414
1.69337
1.69266
1.69152
1.69026
1.68886
1.68621
1.67968
1.67006
1.66347
1.66023
1.65779
1.6554
1.65362
1.65228
1.65142
1.65145
1.65233
1.65468
1.6572
1.65714
1.65588
1.65387
1.64502
2.18678
2.18183
2.17501
2.16485
2.15388
2.14843
2.14489
2.14149
2.13763
2.13297
2.12667
2.11869
2.11281
2.10929
2.10618
2.10348
2.10143
2.09899
2.0956
2.09149
2.08572
2.07737
2.07017
2.06605
2.0625
2.05873
2.05418
2.04829
2.04103
2.03375
2.02792
2.02266
2.01819
2.01504
2.01188
2.00829
2.00435
1.99964
1.9929
1.98291
1.97427
1.97054
1.96797
1.96578
1.9641
1.96268
1.96111
1.9591
1.95664
1.95374
1.95033
1.94613
1.94062
1.93302
1.92282
1.91035
1.89871
1.89099
1.88653
1.88353
1.88107
1.87894
1.87723
1.87574
1.87442
1.87297
1.87028
1.86549
1.86171
1.85927
1.85645
1.85311
1.84891
1.84262
1.8337
1.82392
1.81856
1.81684
1.81552
1.81381
1.81138
1.80843
1.80519
1.80163
1.79696
1.78959
1.78046
1.77465
1.77145
1.76862
1.76583
1.7634
1.76119
1.7595
1.75848
1.75781
1.75768
1.7582
1.75785
1.75601
1.75236
1.74291
1.72391
1.70516
1.69693
1.69286
1.68945
1.68678
1.68486
1.68334
1.6823
1.68194
1.68441
1.6887
1.68844
1.68605
1.68193
1.67609
1.66775
1.66008
1.65661
1.65553
1.65638
1.66004
1.66735
1.67764
1.69109
1.71021
1.73453
1.76398
1.7977
1.83671
1.87796
1.90961
1.9283
1.942
1.95648
1.9769
2.00244
2.01149
2.00984
2.00295
1.99046
1.9715
1.95761
1.95411
1.95483
1.95814
1.95667
1.95197
1.9477
1.94674
1.94726
1.95379
1.96539
1.97141
1.97087
1.96802
1.96238
1.95239
1.93483
1.91519
1.90608
1.90358
1.90242
1.90341
1.91414
1.92237
1.92192
1.91905
1.91263
1.90655
1.90401
1.90309
1.90223
1.9009
1.89829
1.89184
1.87685
1.85978
1.85203
1.84967
1.84957
1.85187
1.85213
1.84894
1.84407
1.83998
1.83823
1.83714
1.83615
1.83569
1.83646
1.83615
1.83366
1.82738
1.81629
1.8046
1.7985
1.79513
1.79204
1.78879
1.78633
1.78492
1.78392
1.78367
1.78433
1.78384
1.7823
1.77668
1.76519
1.75411
1.75125
1.75061
1.74969
1.74816
1.7462
1.74381
1.74126
1.73879
1.73676
1.73556
1.73495
1.73593
1.73857
1.73843
1.73769
1.73615
1.73089
1.71664
1.70087
1.69498
1.6934
1.69267
1.69186
1.69122
1.69114
1.69096
1.68995
1.68874
1.68715
1.68333
1.67451
1.66465
1.65942
1.65687
1.65471
1.6529
1.65125
1.65011
1.65059
1.65468
1.65869
1.66034
1.65943
1.65761
1.6557
1.64824
2.19893
2.19339
2.18456
2.17276
2.16543
2.16146
2.15815
2.15469
2.1503
2.14481
2.13758
2.12886
2.12238
2.11878
2.11592
2.11364
2.11132
2.10817
2.10474
2.10065
2.09471
2.08731
2.0824
2.07896
2.07551
2.0717
2.06686
2.05973
2.05028
2.04283
2.03805
2.03359
2.02938
2.02567
2.02189
2.01795
2.01385
2.00882
2.00178
1.99246
1.98483
1.98093
1.97868
1.97606
1.97187
1.96744
1.96414
1.9616
1.9596
1.95855
1.9577
1.95569
1.95281
1.9489
1.94311
1.93336
1.91908
1.9052
1.89666
1.89188
1.88845
1.88551
1.8823
1.87862
1.87461
1.87129
1.86956
1.86861
1.86776
1.86699
1.86593
1.86402
1.86102
1.85613
1.84647
1.83237
1.82313
1.81934
1.81719
1.81596
1.81528
1.81376
1.8115
1.80874
1.80525
1.79998
1.79206
1.78439
1.7798
1.77657
1.77321
1.76941
1.76598
1.76349
1.76147
1.76027
1.76015
1.76117
1.76193
1.76123
1.7597
1.75667
1.74891