/*--------------------------------*- C++ -*----------------------------------*\
  =========                 |
  \\      /  F ield         | OpenFOAM: The Open Source CFD Toolbox
   \\    /   O peration     | Website:  https://openfoam.org
    \\  /    A nd           | Version:  7
     \\/     M anipulation  |
\*---------------------------------------------------------------------------*/
FoamFile
{
    version     2.0;
    format      ascii;
    class       volVectorField;
    location    "1.8";
    object      U;
}
// * * * * * * * * * * * * * * * * * * * * * * * * * * * * * * * * * * * * * //

dimensions      [0 1 -1 0 0 0 0];

internalField   nonuniform List<vector> 
16192
(
(2.31119 -0.586973 0)
(2.3127 -0.587444 0)
(2.31509 -0.587858 0)
(2.3174 -0.587473 0)
(2.3185 -0.585594 0)
(2.31941 -0.582577 0)
(2.32167 -0.580596 0)
(2.32455 -0.579632 0)
(2.32778 -0.578737 0)
(2.33108 -0.577285 0)
(2.33409 -0.576063 0)
(2.33697 -0.574449 0)
(2.33992 -0.573988 0)
(2.34252 -0.574287 0)
(2.34521 -0.574881 0)
(2.34829 -0.575984 0)
(2.35225 -0.577411 0)
(2.35578 -0.577664 0)
(2.35889 -0.577545 0)
(2.36152 -0.576422 0)
(2.36367 -0.573607 0)
(2.36491 -0.569315 0)
(2.36564 -0.564718 0)
(2.36726 -0.56195 0)
(2.36998 -0.561368 0)
(2.373 -0.561809 0)
(2.37626 -0.56253 0)
(2.37994 -0.563482 0)
(2.38483 -0.565736 0)
(2.39028 -0.569983 0)
(2.39387 -0.572116 0)
(2.39591 -0.572614 0)
(2.39759 -0.572562 0)
(2.39759 -0.570409 0)
(2.39518 -0.565973 0)
(2.39523 -0.563533 0)
(2.3975 -0.563432 0)
(2.4003 -0.563566 0)
(2.40485 -0.563641 0)
(2.40741 -0.562922 0)
(2.41023 -0.562483 0)
(2.41285 -0.561793 0)
(2.41466 -0.560106 0)
(2.4155 -0.558053 0)
(2.41767 -0.557535 0)
(2.42038 -0.557815 0)
(2.42282 -0.55835 0)
(2.4254 -0.558888 0)
(2.42818 -0.55937 0)
(2.4315 -0.560151 0)
(2.43645 -0.561862 0)
(2.43949 -0.562101 0)
(2.44161 -0.561631 0)
(2.44348 -0.560083 0)
(2.4441 -0.556598 0)
(2.44431 -0.55214 0)
(2.44634 -0.550142 0)
(2.44863 -0.549438 0)
(2.45149 -0.549411 0)
(2.45605 -0.550806 0)
(2.46013 -0.55264 0)
(2.46243 -0.553232 0)
(2.46471 -0.553625 0)
(2.4671 -0.553591 0)
(2.4689 -0.552605 0)
(2.46852 -0.54898 0)
(2.46676 -0.543519 0)
(2.46822 -0.541409 0)
(2.47046 -0.540903 0)
(2.47283 -0.540288 0)
(2.47569 -0.539994 0)
(2.47895 -0.540289 0)
(2.4817 -0.541363 0)
(2.48384 -0.543637 0)
(2.48499 -0.544637 0)
(2.48706 -0.545034 0)
(2.48879 -0.544644 0)
(2.49039 -0.544075 0)
(2.49214 -0.543871 0)
(2.49473 -0.543242 0)
(2.49852 -0.541969 0)
(2.50169 -0.540264 0)
(2.50375 -0.538601 0)
(2.50517 -0.537105 0)
(2.50568 -0.534772 0)
(2.50359 -0.530281 0)
(2.50028 -0.526296 0)
(2.50026 -0.526196 0)
(2.50205 -0.527015 0)
(2.50386 -0.527741 0)
(2.50565 -0.528379 0)
(2.50862 -0.529077 0)
(2.51297 -0.528463 0)
(2.51602 -0.526113 0)
(2.51756 -0.52362 0)
(2.51877 -0.520885 0)
(2.51923 -0.51798 0)
(2.51847 -0.515288 0)
(2.51845 -0.514037 0)
(2.51978 -0.514191 0)
(2.5211 -0.515109 0)
(2.52288 -0.516131 0)
(2.52506 -0.517266 0)
(2.52896 -0.519814 0)
(2.53656 -0.526763 0)
(2.54648 -0.536242 0)
(2.55133 -0.539529 0)
(2.55405 -0.539713 0)
(2.55678 -0.539582 0)
(2.55842 -0.537494 0)
(2.55644 -0.531019 0)
(2.54877 -0.516998 0)
(2.54169 -0.504102 0)
(2.54166 -0.500468 0)
(2.54369 -0.500138 0)
(2.54581 -0.500164 0)
(2.54852 -0.50025 0)
(2.55227 -0.501578 0)
(2.55683 -0.505416 0)
(2.56092 -0.509459 0)
(2.56267 -0.510779 0)
(2.56491 -0.511199 0)
(2.56715 -0.51163 0)
(2.56942 -0.512324 0)
(2.57159 -0.513425 0)
(2.57388 -0.514778 0)
(2.57724 -0.516985 0)
(2.57956 -0.518438 0)
(2.58184 -0.518736 0)
(2.58386 -0.518171 0)
(2.58439 -0.515416 0)
(2.58226 -0.509296 0)
(2.57982 -0.502797 0)
(2.58126 -0.500793 0)
(2.58402 -0.500831 0)
(2.5867 -0.501167 0)
(2.58937 -0.501825 0)
(2.59203 -0.50289 0)
(2.59529 -0.504787 0)
(2.5997 -0.508562 0)
(2.60394 -0.513085 0)
(2.60591 -0.51434 0)
(2.60795 -0.514639 0)
(2.60979 -0.513769 0)
(2.61054 -0.510086 0)
(2.6084 -0.501745 0)
(2.601 -0.488497 0)
(2.59518 -0.478474 0)
(2.59575 -0.475848 0)
(2.59724 -0.475984 0)
(2.59758 -0.475316 0)
(2.5954 -0.467391 0)
(2.58728 -0.442835 0)
(2.56582 -0.389954 0)
(2.53551 -0.304438 0)
(2.51209 -0.212908 0)
(2.46294 -0.0547331 0)
(2.44149 0.0196708 0)
(2.44406 0.0229122 0)
(2.43136 0.0439762 0)
(2.40559 0.0711678 0)
(2.38861 0.104292 0)
(2.37074 0.128269 0)
(2.35111 0.151881 0)
(2.34586 0.162812 0)
(2.34652 0.165078 0)
(2.34975 0.165018 0)
(2.35171 0.16461 0)
(2.35141 0.166866 0)
(2.3492 0.168308 0)
(2.35146 0.166982 0)
(2.35448 0.164499 0)
(2.35944 0.15918 0)
(2.37133 0.143745 0)
(2.38848 0.125925 0)
(2.39606 0.119796 0)
(2.39931 0.118416 0)
(2.39994 0.11965 0)
(2.3922 0.128946 0)
(2.37875 0.145211 0)
(2.37356 0.154994 0)
(2.37564 0.158648 0)
(2.37806 0.161026 0)
(2.37966 0.163287 0)
(2.37958 0.165112 0)
(2.37946 0.166066 0)
(2.38114 0.166362 0)
(2.3841 0.165817 0)
(2.38882 0.1626 0)
(2.3967 0.153693 0)
(2.40955 0.136895 0)
(2.42107 0.122253 0)
(2.42481 0.118112 0)
(2.4269 0.115022 0)
(2.42308 0.116042 0)
(2.412 0.124604 0)
(2.40296 0.135912 0)
(2.40292 0.142682 0)
(2.40563 0.147687 0)
(2.40873 0.153874 0)
(2.41287 0.159969 0)
(2.41754 0.16331 0)
(2.42259 0.164439 0)
(2.42947 0.162641 0)
(2.43754 0.158106 0)
(2.44607 0.150493 0)
(2.45098 0.145663 0)
(2.45392 0.143693 0)
(2.45583 0.14223 0)
(2.45503 0.140715 0)
(2.45196 0.137984 0)
(2.4479 0.1326 0)
(2.4445 0.126117 0)
(2.44349 0.12166 0)
(2.44536 0.120232 0)
(2.44818 0.121411 0)
(2.45038 0.126031 0)
(2.45172 0.134318 0)
(2.45393 0.142763 0)
(2.45717 0.149788 0)
(2.46165 0.156824 0)
(2.46608 0.16292 0)
(2.46922 0.165068 0)
(2.47148 0.165063 0)
(2.4704 0.161703 0)
(2.46798 0.154482 0)
(2.46802 0.147312 0)
(2.4702 0.140531 0)
(2.47549 0.129768 0)
(2.48577 0.117292 0)
(2.49218 0.112266 0)
(2.49478 0.112022 0)
(2.49668 0.11476 0)
(2.49393 0.123322 0)
(2.48544 0.139389 0)
(2.4771 0.155798 0)
(2.47615 0.16342 0)
(2.47824 0.167073 0)
(2.48188 0.171398 0)
(2.48336 0.172197 0)
(2.48504 0.170791 0)
(2.48637 0.165882 0)
(2.48939 0.159224 0)
(2.49519 0.148611 0)
(2.50531 0.131085 0)
(2.51872 0.112925 0)
(2.52666 0.106026 0)
(2.52951 0.105938 0)
(2.53204 0.108032 0)
(2.5308 0.115441 0)
(2.52142 0.129703 0)
(2.50639 0.153641 0)
(2.49459 0.16832 0)
(2.3123 -0.58145 0)
(2.31432 -0.582559 0)
(2.31654 -0.584017 0)
(2.3191 -0.585195 0)
(2.32191 -0.585737 0)
(2.32431 -0.584755 0)
(2.32688 -0.58278 0)
(2.32936 -0.580766 0)
(2.33155 -0.578628 0)
(2.33347 -0.576656 0)
(2.3355 -0.575112 0)
(2.33785 -0.573355 0)
(2.34058 -0.57157 0)
(2.34352 -0.571057 0)
(2.34609 -0.571269 0)
(2.34872 -0.571757 0)
(2.35214 -0.572889 0)
(2.35728 -0.575229 0)
(2.36217 -0.576249 0)
(2.36564 -0.575957 0)
(2.36853 -0.575344 0)
(2.37112 -0.573322 0)
(2.37284 -0.569853 0)
(2.3732 -0.565152 0)
(2.3734 -0.561001 0)
(2.3752 -0.559486 0)
(2.37799 -0.559719 0)
(2.38098 -0.560358 0)
(2.38454 -0.561211 0)
(2.38912 -0.562874 0)
(2.39451 -0.566768 0)
(2.3985 -0.569814 0)
(2.40043 -0.570396 0)
(2.40215 -0.570483 0)
(2.40231 -0.568546 0)
(2.40029 -0.564114 0)
(2.40056 -0.561078 0)
(2.40283 -0.560536 0)
(2.40595 -0.560253 0)
(2.41004 -0.559637 0)
(2.41276 -0.559372 0)
(2.41578 -0.559664 0)
(2.41872 -0.55972 0)
(2.42062 -0.558751 0)
(2.42059 -0.557008 0)
(2.4221 -0.55657 0)
(2.42476 -0.556873 0)
(2.4272 -0.557312 0)
(2.42967 -0.557666 0)
(2.43241 -0.557797 0)
(2.43651 -0.558076 0)
(2.44199 -0.558548 0)
(2.44527 -0.557647 0)
(2.44715 -0.556578 0)
(2.44914 -0.555088 0)
(2.45009 -0.552307 0)
(2.45064 -0.549032 0)
(2.45292 -0.548143 0)
(2.4553 -0.548321 0)
(2.45786 -0.548943 0)
(2.46154 -0.550498 0)
(2.466 -0.552721 0)
(2.46866 -0.553267 0)
(2.47108 -0.553294 0)
(2.47351 -0.552591 0)
(2.47536 -0.550813 0)
(2.47519 -0.546304 0)
(2.47358 -0.54031 0)
(2.47498 -0.538367 0)
(2.47691 -0.538254 0)
(2.47889 -0.538291 0)
(2.48155 -0.538718 0)
(2.48349 -0.539443 0)
(2.48566 -0.540369 0)
(2.48822 -0.542012 0)
(2.48929 -0.542359 0)
(2.4913 -0.541482 0)
(2.49335 -0.539687 0)
(2.49527 -0.538371 0)
(2.49777 -0.537344 0)
(2.50072 -0.536727 0)
(2.50348 -0.536991 0)
(2.50614 -0.537311 0)
(2.50789 -0.537288 0)
(2.50949 -0.53703 0)
(2.50986 -0.53622 0)
(2.50689 -0.532838 0)
(2.5028 -0.527761 0)
(2.50298 -0.52607 0)
(2.50481 -0.526102 0)
(2.50659 -0.526054 0)
(2.50969 -0.525718 0)
(2.51554 -0.524818 0)
(2.52034 -0.523236 0)
(2.52204 -0.522051 0)
(2.52362 -0.52101 0)
(2.52491 -0.519501 0)
(2.52451 -0.516632 0)
(2.52234 -0.513086 0)
(2.5219 -0.511808 0)
(2.52323 -0.512021 0)
(2.52466 -0.5128 0)
(2.52649 -0.513635 0)
(2.52868 -0.51457 0)
(2.53197 -0.5163 0)
(2.53865 -0.521772 0)
(2.54905 -0.53179 0)
(2.55616 -0.537129 0)
(2.55891 -0.537435 0)
(2.56178 -0.537529 0)
(2.5642 -0.53629 0)
(2.56425 -0.531834 0)
(2.55924 -0.520734 0)
(2.55044 -0.505834 0)
(2.54736 -0.498726 0)
(2.54883 -0.497611 0)
(2.55074 -0.497546 0)
(2.55295 -0.497684 0)
(2.55582 -0.498573 0)
(2.55936 -0.501393 0)
(2.56352 -0.505769 0)
(2.56613 -0.508446 0)
(2.5682 -0.509159 0)
(2.57076 -0.509808 0)
(2.5731 -0.510537 0)
(2.57532 -0.511515 0)
(2.5777 -0.51263 0)
(2.58149 -0.514608 0)
(2.58457 -0.515985 0)
(2.58661 -0.516068 0)
(2.58883 -0.515765 0)
(2.59016 -0.513848 0)
(2.58884 -0.508878 0)
(2.58534 -0.501984 0)
(2.58524 -0.499088 0)
(2.58764 -0.499176 0)
(2.59028 -0.499638 0)
(2.59277 -0.500276 0)
(2.59513 -0.501083 0)
(2.59777 -0.502246 0)
(2.60208 -0.505484 0)
(2.60723 -0.509723 0)
(2.61079 -0.510427 0)
(2.61246 -0.509841 0)
(2.61442 -0.508485 0)
(2.61601 -0.505894 0)
(2.61517 -0.500958 0)
(2.60844 -0.488792 0)
(2.59933 -0.477574 0)
(2.5985 -0.47522 0)
(2.60023 -0.475493 0)
(2.60208 -0.476808 0)
(2.60289 -0.477146 0)
(2.60228 -0.473409 0)
(2.59827 -0.460115 0)
(2.58757 -0.427881 0)
(2.56329 -0.358592 0)
(2.54621 -0.27973 0)
(2.50309 -0.134204 0)
(2.46399 -0.0180441 0)
(2.45943 0.000474172 0)
(2.44127 0.0338724 0)
(2.40839 0.0738745 0)
(2.38721 0.11628 0)
(2.36499 0.147159 0)
(2.34999 0.167288 0)
(2.34947 0.170253 0)
(2.35238 0.170945 0)
(2.35587 0.170442 0)
(2.35826 0.169977 0)
(2.35746 0.171642 0)
(2.35588 0.171826 0)
(2.35696 0.169994 0)
(2.35965 0.167201 0)
(2.36992 0.15371 0)
(2.38907 0.130288 0)
(2.40023 0.117208 0)
(2.40333 0.114671 0)
(2.40486 0.115741 0)
(2.4001 0.125605 0)
(2.38859 0.144761 0)
(2.3812 0.158315 0)
(2.38162 0.162642 0)
(2.3834 0.163988 0)
(2.38478 0.165423 0)
(2.3847 0.167332 0)
(2.38368 0.167863 0)
(2.38476 0.166507 0)
(2.38764 0.165557 0)
(2.39105 0.163916 0)
(2.39798 0.157708 0)
(2.40933 0.142181 0)
(2.42227 0.123744 0)
(2.42657 0.11698 0)
(2.42861 0.114865 0)
(2.4265 0.117492 0)
(2.42079 0.127639 0)
(2.41586 0.140859 0)
(2.41634 0.149638 0)
(2.41933 0.155102 0)
(2.42245 0.159783 0)
(2.42511 0.164016 0)
(2.42886 0.166165 0)
(2.43311 0.166096 0)
(2.43764 0.163781 0)
(2.44346 0.15929 0)
(2.45038 0.151234 0)
(2.45424 0.145072 0)
(2.45627 0.141652 0)
(2.45725 0.138266 0)
(2.45339 0.133973 0)
(2.44661 0.128371 0)
(2.44446 0.124768 0)
(2.44635 0.123662 0)
(2.44893 0.123558 0)
(2.45446 0.124628 0)
(2.46055 0.128659 0)
(2.46409 0.134177 0)
(2.468 0.141184 0)
(2.47148 0.148739 0)
(2.4739 0.155848 0)
(2.47472 0.161216 0)
(2.47421 0.164192 0)
(2.47184 0.164686 0)
(2.46726 0.162237 0)
(2.46432 0.158143 0)
(2.46515 0.15432 0)
(2.4671 0.149943 0)
(2.47094 0.143537 0)
(2.47884 0.13237 0)
(2.4916 0.119053 0)
(2.5005 0.113017 0)
(2.50253 0.112654 0)
(2.50448 0.116328 0)
(2.50376 0.12665 0)
(2.49937 0.144015 0)
(2.49122 0.164063 0)
(2.48576 0.175205 0)
(2.48529 0.177345 0)
(2.48563 0.176892 0)
(2.48467 0.174916 0)
(2.48395 0.170343 0)
(2.48573 0.164608 0)
(2.48901 0.15771 0)
(2.49567 0.147097 0)
(2.50747 0.12934 0)
(2.52506 0.110736 0)
(2.53642 0.102778 0)
(2.53879 0.102066 0)
(2.54105 0.106135 0)
(2.53964 0.11432 0)
(2.53389 0.134351 0)
(2.51638 0.161737 0)
(2.3146 -0.577934 0)
(2.31623 -0.578718 0)
(2.31823 -0.579964 0)
(2.32129 -0.581239 0)
(2.32467 -0.582258 0)
(2.32795 -0.582889 0)
(2.33145 -0.5824 0)
(2.33452 -0.581545 0)
(2.33691 -0.58059 0)
(2.33832 -0.578772 0)
(2.33845 -0.575899 0)
(2.33906 -0.573113 0)
(2.34124 -0.570993 0)
(2.34432 -0.569407 0)
(2.34755 -0.568764 0)
(2.35049 -0.568784 0)
(2.35344 -0.569102 0)
(2.35739 -0.570028 0)
(2.3631 -0.572392 0)
(2.36896 -0.574278 0)
(2.37304 -0.574013 0)
(2.37634 -0.573394 0)
(2.37906 -0.572078 0)
(2.3811 -0.569565 0)
(2.38152 -0.565495 0)
(2.38054 -0.560554 0)
(2.38101 -0.55781 0)
(2.38345 -0.557647 0)
(2.38627 -0.558189 0)
(2.38958 -0.55903 0)
(2.39364 -0.560238 0)
(2.39884 -0.563438 0)
(2.40311 -0.56704 0)
(2.40503 -0.567876 0)
(2.40662 -0.568059 0)
(2.40702 -0.566268 0)
(2.40581 -0.561896 0)
(2.40653 -0.558317 0)
(2.40881 -0.557304 0)
(2.41191 -0.556597 0)
(2.41517 -0.556693 0)
(2.41844 -0.557493 0)
(2.42155 -0.558293 0)
(2.42439 -0.558844 0)
(2.42578 -0.558157 0)
(2.42536 -0.556168 0)
(2.42652 -0.555296 0)
(2.42887 -0.555322 0)
(2.43128 -0.555383 0)
(2.43392 -0.555153 0)
(2.43741 -0.554702 0)
(2.44334 -0.554203 0)
(2.44808 -0.553831 0)
(2.45022 -0.553153 0)
(2.45246 -0.552528 0)
(2.45473 -0.551433 0)
(2.45574 -0.549625 0)
(2.45607 -0.547712 0)
(2.45832 -0.5476 0)
(2.4606 -0.548048 0)
(2.46291 -0.548723 0)
(2.46654 -0.550361 0)
(2.47178 -0.55249 0)
(2.47498 -0.552535 0)
(2.47726 -0.55202 0)
(2.47976 -0.550991 0)
(2.48181 -0.548898 0)
(2.48178 -0.544012 0)
(2.47956 -0.537553 0)
(2.48023 -0.535548 0)
(2.48204 -0.535767 0)
(2.48334 -0.536677 0)
(2.48469 -0.53802 0)
(2.48624 -0.539204 0)
(2.48884 -0.540325 0)
(2.4931 -0.540875 0)
(2.49602 -0.539487 0)
(2.49791 -0.53738 0)
(2.50007 -0.534911 0)
(2.50166 -0.533225 0)
(2.50365 -0.532767 0)
(2.5052 -0.533179 0)
(2.50711 -0.534034 0)
(2.50975 -0.53562 0)
(2.51121 -0.537011 0)
(2.5124 -0.537558 0)
(2.51255 -0.537021 0)
(2.51052 -0.533231 0)
(2.50784 -0.52727 0)
(2.50836 -0.524525 0)
(2.50981 -0.524015 0)
(2.5124 -0.523199 0)
(2.51794 -0.52191 0)
(2.52308 -0.521421 0)
(2.52574 -0.521035 0)
(2.52733 -0.520678 0)
(2.52897 -0.520004 0)
(2.52995 -0.518572 0)
(2.52888 -0.515321 0)
(2.52603 -0.511139 0)
(2.52551 -0.50955 0)
(2.52693 -0.509659 0)
(2.52851 -0.510266 0)
(2.53034 -0.510873 0)
(2.53248 -0.511583 0)
(2.53534 -0.512736 0)
(2.54115 -0.516689 0)
(2.55123 -0.52626 0)
(2.56051 -0.534104 0)
(2.56385 -0.534871 0)
(2.56691 -0.53506 0)
(2.56976 -0.534538 0)
(2.57127 -0.531674 0)
(2.56867 -0.523831 0)
(2.56018 -0.509182 0)
(2.55345 -0.498008 0)
(2.55357 -0.495322 0)
(2.55529 -0.495063 0)
(2.55689 -0.495328 0)
(2.5586 -0.49603 0)
(2.5617 -0.498133 0)
(2.56568 -0.502287 0)
(2.56928 -0.506218 0)
(2.57125 -0.507362 0)
(2.57404 -0.507959 0)
(2.5764 -0.508561 0)
(2.57855 -0.509317 0)
(2.58097 -0.510087 0)
(2.58479 -0.511657 0)
(2.58828 -0.51332 0)
(2.59028 -0.513661 0)
(2.59273 -0.513341 0)
(2.59414 -0.512168 0)
(2.59306 -0.508433 0)
(2.5892 -0.501699 0)
(2.58824 -0.4978 0)
(2.59035 -0.497553 0)
(2.59284 -0.497938 0)
(2.5951 -0.498369 0)
(2.5973 -0.498703 0)
(2.59991 -0.49914 0)
(2.60453 -0.500897 0)
(2.61031 -0.504422 0)
(2.61428 -0.505994 0)
(2.61626 -0.50585 0)
(2.61894 -0.504947 0)
(2.62091 -0.50352 0)
(2.62022 -0.499818 0)
(2.6133 -0.490409 0)
(2.60337 -0.478151 0)
(2.60131 -0.475051 0)
(2.60294 -0.475197 0)
(2.60431 -0.475391 0)
(2.60581 -0.475918 0)
(2.60719 -0.475659 0)
(2.60873 -0.474166 0)
(2.60927 -0.468232 0)
(2.60642 -0.452026 0)
(2.59202 -0.406751 0)
(2.57528 -0.336308 0)
(2.54168 -0.212271 0)
(2.48679 -0.064795 0)
(2.47494 -0.0243885 0)
(2.45288 0.0238005 0)
(2.41237 0.079998 0)
(2.38164 0.1307 0)
(2.35835 0.166586 0)
(2.35277 0.174398 0)
(2.3542 0.173175 0)
(2.36066 0.173101 0)
(2.36332 0.17266 0)
(2.36353 0.174065 0)
(2.3584 0.176218 0)
(2.35697 0.173446 0)
(2.35966 0.170814 0)
(2.36932 0.160563 0)
(2.38967 0.135492 0)
(2.40538 0.117934 0)
(2.40877 0.11512 0)
(2.41091 0.116665 0)
(2.40761 0.126744 0)
(2.39722 0.146368 0)
(2.38737 0.161999 0)
(2.38564 0.166225 0)
(2.38711 0.166214 0)
(2.38853 0.166053 0)
(2.38796 0.167173 0)
(2.38614 0.169001 0)
(2.38751 0.168945 0)
(2.39073 0.167362 0)
(2.39443 0.164786 0)
(2.3997 0.160384 0)
(2.40906 0.14864 0)
(2.42292 0.130675 0)
(2.43077 0.12168 0)
(2.43314 0.120547 0)
(2.43464 0.123443 0)
(2.43353 0.132286 0)
(2.43041 0.144626 0)
(2.42872 0.153669 0)
(2.43013 0.158069 0)
(2.43277 0.160838 0)
(2.43507 0.163644 0)
(2.43698 0.165759 0)
(2.44076 0.165949 0)
(2.44441 0.164159 0)
(2.44847 0.158855 0)
(2.45233 0.151063 0)
(2.45396 0.144438 0)
(2.4544 0.138058 0)
(2.45091 0.13112 0)
(2.44666 0.127032 0)
(2.44753 0.126468 0)
(2.44963 0.127046 0)
(2.45276 0.12796 0)
(2.46012 0.129586 0)
(2.46995 0.132855 0)
(2.47662 0.137082 0)
(2.47997 0.140634 0)
(2.48398 0.144639 0)
(2.48651 0.150457 0)
(2.4835 0.157575 0)
(2.47594 0.160834 0)
(2.46919 0.159874 0)
(2.46443 0.156555 0)
(2.46265 0.153326 0)
(2.46311 0.149947 0)
(2.46453 0.145867 0)
(2.46652 0.142153 0)
(2.47099 0.137925 0)
(2.48168 0.129175 0)
(2.49768 0.120879 0)
(2.51013 0.12052 0)
(2.51544 0.124681 0)
(2.51708 0.129401 0)
(2.5171 0.137615 0)
(2.51351 0.152422 0)
(2.50176 0.170347 0)
(2.48978 0.178086 0)
(2.48566 0.176152 0)
(2.48409 0.171162 0)
(2.4821 0.163575 0)
(2.48147 0.15443 0)
(2.48288 0.146643 0)
(2.48536 0.141854 0)
(2.49229 0.134788 0)
(2.50881 0.121038 0)
(2.53078 0.110451 0)
(2.5446 0.112083 0)
(2.54989 0.11811 0)
(2.55178 0.120007 0)
(2.55286 0.130012 0)
(2.54593 0.148627 0)
(2.31913 -0.577133 0)
(2.31986 -0.576396 0)
(2.32149 -0.576786 0)
(2.32378 -0.577316 0)
(2.32715 -0.577889 0)
(2.33086 -0.578459 0)
(2.33478 -0.579117 0)
(2.33801 -0.57984 0)
(2.34092 -0.580312 0)
(2.34323 -0.580152 0)
(2.3438 -0.578789 0)
(2.34286 -0.575452 0)
(2.34328 -0.571488 0)
(2.34556 -0.568629 0)
(2.34876 -0.567096 0)
(2.35229 -0.566448 0)
(2.35591 -0.566237 0)
(2.35949 -0.566394 0)
(2.36359 -0.567204 0)
(2.36919 -0.569272 0)
(2.37532 -0.571666 0)
(2.38008 -0.571844 0)
(2.38362 -0.570938 0)
(2.38636 -0.569804 0)
(2.38844 -0.568086 0)
(2.38899 -0.565023 0)
(2.38753 -0.560249 0)
(2.38686 -0.55667 0)
(2.38883 -0.555988 0)
(2.39162 -0.556435 0)
(2.39461 -0.557119 0)
(2.39822 -0.557923 0)
(2.40329 -0.560292 0)
(2.40801 -0.563707 0)
(2.41036 -0.564535 0)
(2.41169 -0.564667 0)
(2.41254 -0.563161 0)
(2.41216 -0.559405 0)
(2.41295 -0.555913 0)
(2.41518 -0.554708 0)
(2.41781 -0.554881 0)
(2.42086 -0.555581 0)
(2.42398 -0.556518 0)
(2.42704 -0.557467 0)
(2.42975 -0.557976 0)
(2.43116 -0.55711 0)
(2.43127 -0.554896 0)
(2.43274 -0.553678 0)
(2.43492 -0.553353 0)
(2.4372 -0.552846 0)
(2.43987 -0.552048 0)
(2.44444 -0.551034 0)
(2.44935 -0.549634 0)
(2.45237 -0.549077 0)
(2.45486 -0.549154 0)
(2.45716 -0.549365 0)
(2.4594 -0.549018 0)
(2.46011 -0.547464 0)
(2.46045 -0.546248 0)
(2.46269 -0.546457 0)
(2.4648 -0.546939 0)
(2.46728 -0.547722 0)
(2.47199 -0.549524 0)
(2.47778 -0.55112 0)
(2.48094 -0.550861 0)
(2.48305 -0.55018 0)
(2.48553 -0.548922 0)
(2.4876 -0.546756 0)
(2.48733 -0.54209 0)
(2.48401 -0.536109 0)
(2.48418 -0.534382 0)
(2.48606 -0.534723 0)
(2.48722 -0.535626 0)
(2.48819 -0.536445 0)
(2.49029 -0.537053 0)
(2.49594 -0.537002 0)
(2.50133 -0.535927 0)
(2.50286 -0.535407 0)
(2.505 -0.534144 0)
(2.50636 -0.532597 0)
(2.50677 -0.531397 0)
(2.5083 -0.531122 0)
(2.50985 -0.531643 0)
(2.51142 -0.532524 0)
(2.51345 -0.533893 0)
(2.51492 -0.536005 0)
(2.51568 -0.53683 0)
(2.5161 -0.53672 0)
(2.51549 -0.533402 0)
(2.51425 -0.526855 0)
(2.51492 -0.522151 0)
(2.51664 -0.520653 0)
(2.51965 -0.519846 0)
(2.5239 -0.519658 0)
(2.52762 -0.520124 0)
(2.53032 -0.520106 0)
(2.53192 -0.519834 0)
(2.53364 -0.519222 0)
(2.53476 -0.517745 0)
(2.53373 -0.514179 0)
(2.53045 -0.509234 0)
(2.52948 -0.507117 0)
(2.53082 -0.507098 0)
(2.53244 -0.507453 0)
(2.53421 -0.507871 0)
(2.53625 -0.508378 0)
(2.53886 -0.509134 0)
(2.54393 -0.511932 0)
(2.55337 -0.520305 0)
(2.56429 -0.530112 0)
(2.56848 -0.532443 0)
(2.57167 -0.532623 0)
(2.57462 -0.532585 0)
(2.57684 -0.530717 0)
(2.57619 -0.525287 0)
(2.56968 -0.512903 0)
(2.56018 -0.498541 0)
(2.5575 -0.493386 0)
(2.55861 -0.492826 0)
(2.56016 -0.493072 0)
(2.56155 -0.493938 0)
(2.56382 -0.495611 0)
(2.56774 -0.49921 0)
(2.5722 -0.503744 0)
(2.57437 -0.505362 0)
(2.57704 -0.505772 0)
(2.57958 -0.506111 0)
(2.5819 -0.506588 0)
(2.58441 -0.507095 0)
(2.58772 -0.508036 0)
(2.59121 -0.509787 0)
(2.59346 -0.511051 0)
(2.59542 -0.511284 0)
(2.59695 -0.510589 0)
(2.59607 -0.507613 0)
(2.59256 -0.501322 0)
(2.59124 -0.496456 0)
(2.59329 -0.495363 0)
(2.59575 -0.495183 0)
(2.59807 -0.494954 0)
(2.6005 -0.494582 0)
(2.60388 -0.494399 0)
(2.60819 -0.495332 0)
(2.61292 -0.498015 0)
(2.6172 -0.501174 0)
(2.61964 -0.502689 0)
(2.62214 -0.502824 0)
(2.62417 -0.50208 0)
(2.62376 -0.499515 0)
(2.61809 -0.491642 0)
(2.60813 -0.479487 0)
(2.60455 -0.473848 0)
(2.60568 -0.47331 0)
(2.60728 -0.473426 0)
(2.60869 -0.473298 0)
(2.61034 -0.473164 0)
(2.61341 -0.472388 0)
(2.61683 -0.472005 0)
(2.61928 -0.470495 0)
(2.62017 -0.46581 0)
(2.61553 -0.442588 0)
(2.60269 -0.384447 0)
(2.57465 -0.276577 0)
(2.51339 -0.118122 0)
(2.49486 -0.0581376 0)
(2.46553 0.011979 0)
(2.41254 0.0816755 0)
(2.36979 0.152215 0)
(2.35745 0.17549 0)
(2.35683 0.17062 0)
(2.36565 0.170649 0)
(2.36776 0.173464 0)
(2.36688 0.175951 0)
(2.35977 0.180027 0)
(2.35709 0.180437 0)
(2.36065 0.177714 0)
(2.3694 0.169452 0)
(2.38968 0.145215 0)
(2.40781 0.123269 0)
(2.4122 0.11958 0)
(2.41414 0.122483 0)
(2.41276 0.131636 0)
(2.40521 0.147531 0)
(2.3944 0.162372 0)
(2.38984 0.166211 0)
(2.39005 0.165336 0)
(2.39062 0.165085 0)
(2.3909 0.167216 0)
(2.39063 0.170526 0)
(2.39162 0.172104 0)
(2.39478 0.17164 0)
(2.3981 0.169173 0)
(2.40221 0.165364 0)
(2.40998 0.157105 0)
(2.42371 0.140643 0)
(2.43688 0.129071 0)
(2.44069 0.127522 0)
(2.44377 0.129319 0)
(2.44463 0.134592 0)
(2.44109 0.143487 0)
(2.43694 0.152183 0)
(2.43715 0.156966 0)
(2.43953 0.159582 0)
(2.44197 0.161922 0)
(2.44314 0.164135 0)
(2.44373 0.164403 0)
(2.44597 0.16204 0)
(2.44839 0.156652 0)
(2.44943 0.147862 0)
(2.44872 0.138167 0)
(2.44709 0.131581 0)
(2.44797 0.130293 0)
(2.44995 0.131775 0)
(2.45182 0.134531 0)
(2.45587 0.137249 0)
(2.46489 0.140535 0)
(2.47749 0.142685 0)
(2.48494 0.14304 0)
(2.48798 0.143073 0)
(2.49214 0.143345 0)
(2.49499 0.144355 0)
(2.49061 0.147757 0)
(2.47679 0.152251 0)
(2.4656 0.152971 0)
(2.46255 0.152757 0)
(2.46247 0.15257 0)
(2.46283 0.151921 0)
(2.46335 0.150746 0)
(2.4644 0.149831 0)
(2.46675 0.148304 0)
(2.47469 0.145356 0)
(2.49204 0.14011 0)
(2.51234 0.13571 0)
(2.52246 0.138521 0)
(2.52589 0.142911 0)
(2.52795 0.146106 0)
(2.52929 0.149771 0)
(2.52129 0.157009 0)
(2.50028 0.167585 0)
(2.4852 0.168925 0)
(2.48022 0.163655 0)
(2.47755 0.157652 0)
(2.47656 0.153058 0)
(2.47719 0.149866 0)
(2.47841 0.147647 0)
(2.4828 0.144615 0)
(2.49571 0.140152 0)
(2.52178 0.131037 0)
(2.54756 0.124933 0)
(2.5567 0.126236 0)
(2.55901 0.128277 0)
(2.56157 0.133558 0)
(2.56584 0.142157 0)
(2.32432 -0.579324 0)
(2.32514 -0.577684 0)
(2.32673 -0.576213 0)
(2.32864 -0.575118 0)
(2.33091 -0.574274 0)
(2.33403 -0.574099 0)
(2.33745 -0.574394 0)
(2.34038 -0.575146 0)
(2.34303 -0.577274 0)
(2.34525 -0.578652 0)
(2.3473 -0.579101 0)
(2.34785 -0.578163 0)
(2.34802 -0.575468 0)
(2.34913 -0.571355 0)
(2.35114 -0.567299 0)
(2.35398 -0.565081 0)
(2.35726 -0.564571 0)
(2.36075 -0.564583 0)
(2.36456 -0.564714 0)
(2.36909 -0.565021 0)
(2.37468 -0.565928 0)
(2.38037 -0.567463 0)
(2.38568 -0.568316 0)
(2.38907 -0.567718 0)
(2.39224 -0.566888 0)
(2.39439 -0.566087 0)
(2.39495 -0.564212 0)
(2.39356 -0.560209 0)
(2.39233 -0.556106 0)
(2.39369 -0.554572 0)
(2.39635 -0.554752 0)
(2.39911 -0.555242 0)
(2.40253 -0.555679 0)
(2.40797 -0.557234 0)
(2.41337 -0.559847 0)
(2.41645 -0.560155 0)
(2.41801 -0.560115 0)
(2.4196 -0.559463 0)
(2.42009 -0.557635 0)
(2.41997 -0.555251 0)
(2.42132 -0.55424 0)
(2.42374 -0.554387 0)
(2.42651 -0.55501 0)
(2.42942 -0.555873 0)
(2.43233 -0.556642 0)
(2.43496 -0.556874 0)
(2.43673 -0.555825 0)
(2.43759 -0.553554 0)
(2.43931 -0.552113 0)
(2.44144 -0.551434 0)
(2.44388 -0.550503 0)
(2.44726 -0.549185 0)
(2.4511 -0.547489 0)
(2.4539 -0.546797 0)
(2.45698 -0.54668 0)
(2.45964 -0.546543 0)
(2.46184 -0.546616 0)
(2.46361 -0.5465 0)
(2.46405 -0.545027 0)
(2.4654 -0.544276 0)
(2.46747 -0.544509 0)
(2.46943 -0.544937 0)
(2.47227 -0.545716 0)
(2.47799 -0.547738 0)
(2.48383 -0.548915 0)
(2.48647 -0.548486 0)
(2.48855 -0.548079 0)
(2.49099 -0.547439 0)
(2.49308 -0.545791 0)
(2.49223 -0.541241 0)
(2.48821 -0.535188 0)
(2.48778 -0.533201 0)
(2.48917 -0.532972 0)
(2.49022 -0.532771 0)
(2.49239 -0.532479 0)
(2.49782 -0.533003 0)
(2.50486 -0.533657 0)
(2.50713 -0.533508 0)
(2.5093 -0.533493 0)
(2.51085 -0.53306 0)
(2.51088 -0.531712 0)
(2.51063 -0.530429 0)
(2.51228 -0.530195 0)
(2.51399 -0.530631 0)
(2.51543 -0.531261 0)
(2.51703 -0.531892 0)
(2.51952 -0.533093 0)
(2.52136 -0.532884 0)
(2.52183 -0.531961 0)
(2.52202 -0.528523 0)
(2.52079 -0.523087 0)
(2.52084 -0.519675 0)
(2.52281 -0.51917 0)
(2.52502 -0.519024 0)
(2.52801 -0.518964 0)
(2.53199 -0.51936 0)
(2.53506 -0.519197 0)
(2.53667 -0.51883 0)
(2.53863 -0.518275 0)
(2.54008 -0.516817 0)
(2.53929 -0.513064 0)
(2.53553 -0.507355 0)
(2.53375 -0.504523 0)
(2.53465 -0.504271 0)
(2.53609 -0.504436 0)
(2.5378 -0.50467 0)
(2.53983 -0.505016 0)
(2.5425 -0.505504 0)
(2.54727 -0.507468 0)
(2.55574 -0.514475 0)
(2.56682 -0.525337 0)
(2.57295 -0.529797 0)
(2.57601 -0.529841 0)
(2.57892 -0.529914 0)
(2.58153 -0.528828 0)
(2.58224 -0.525274 0)
(2.57757 -0.515769 0)
(2.56663 -0.500268 0)
(2.56085 -0.492216 0)
(2.56122 -0.491162 0)
(2.56273 -0.491348 0)
(2.56417 -0.492193 0)
(2.56596 -0.49358 0)
(2.56967 -0.496373 0)
(2.57453 -0.500987 0)
(2.57736 -0.503197 0)
(2.57994 -0.503525 0)
(2.58295 -0.503706 0)
(2.5856 -0.503966 0)
(2.58803 -0.504404 0)
(2.59042 -0.505064 0)
(2.59346 -0.506465 0)
(2.59608 -0.508444 0)
(2.59755 -0.50913 0)
(2.59925 -0.508831 0)
(2.59887 -0.506596 0)
(2.59654 -0.501163 0)
(2.59538 -0.495365 0)
(2.59741 -0.492886 0)
(2.59996 -0.492066 0)
(2.6025 -0.491319 0)
(2.6053 -0.490654 0)
(2.60808 -0.490616 0)
(2.61101 -0.491514 0)
(2.61412 -0.493403 0)
(2.61799 -0.496445 0)
(2.6217 -0.499623 0)
(2.6238 -0.500611 0)
(2.62645 -0.500561 0)
(2.62697 -0.498639 0)
(2.62318 -0.492462 0)
(2.61414 -0.480285 0)
(2.60885 -0.472581 0)
(2.60939 -0.471355 0)
(2.61071 -0.471045 0)
(2.6123 -0.470456 0)
(2.61485 -0.469306 0)
(2.61734 -0.469466 0)
(2.6207 -0.47023 0)
(2.62351 -0.470607 0)
(2.62683 -0.471761 0)
(2.63131 -0.474743 0)
(2.63575 -0.467056 0)
(2.6298 -0.426789 0)
(2.60153 -0.332295 0)
(2.54172 -0.181137 0)
(2.52168 -0.111151 0)
(2.47036 -0.00668344 0)
(2.39702 0.0997503 0)
(2.37139 0.159471 0)
(2.36471 0.157841 0)
(2.37218 0.162692 0)
(2.3722 0.17065 0)
(2.36905 0.176374 0)
(2.36371 0.182514 0)
(2.35927 0.186743 0)
(2.36273 0.184818 0)
(2.36864 0.178622 0)
(2.3844 0.159799 0)
(2.40433 0.133651 0)
(2.41278 0.123632 0)
(2.4157 0.123517 0)
(2.4182 0.129227 0)
(2.41546 0.142101 0)
(2.40384 0.159453 0)
(2.39343 0.167901 0)
(2.39229 0.168214 0)
(2.39364 0.168038 0)
(2.39535 0.169468 0)
(2.39697 0.17264 0)
(2.39781 0.175454 0)
(2.39986 0.175939 0)
(2.4028 0.174915 0)
(2.40608 0.17128 0)
(2.41281 0.164906 0)
(2.42596 0.150015 0)
(2.4418 0.134971 0)
(2.44755 0.130914 0)
(2.45089 0.131085 0)
(2.45218 0.134879 0)
(2.44872 0.143947 0)
(2.44376 0.153748 0)
(2.44283 0.157762 0)
(2.44418 0.158219 0)
(2.4455 0.158273 0)
(2.44589 0.157724 0)
(2.44523 0.155502 0)
(2.44409 0.151128 0)
(2.44352 0.145437 0)
(2.4447 0.140602 0)
(2.44683 0.138114 0)
(2.4503 0.136667 0)
(2.45405 0.1383 0)
(2.4577 0.141524 0)
(2.46303 0.145927 0)
(2.47179 0.14985 0)
(2.482 0.148567 0)
(2.4883 0.14389 0)
(2.49105 0.140864 0)
(2.49411 0.138632 0)
(2.49593 0.136897 0)
(2.49278 0.13638 0)
(2.48056 0.14022 0)
(2.46806 0.146162 0)
(2.46461 0.149828 0)
(2.46495 0.1518 0)
(2.46572 0.154022 0)
(2.46704 0.156863 0)
(2.46863 0.159281 0)
(2.47108 0.161485 0)
(2.4779 0.163903 0)
(2.49051 0.163283 0)
(2.50615 0.15754 0)
(2.52064 0.14687 0)
(2.52853 0.141147 0)
(2.5311 0.140096 0)
(2.53308 0.139132 0)
(2.52947 0.139817 0)
(2.5141 0.144715 0)
(2.49134 0.152498 0)
(2.4799 0.155238 0)
(2.47827 0.155657 0)
(2.47863 0.156548 0)
(2.47986 0.158044 0)
(2.48112 0.159202 0)
(2.48545 0.161149 0)
(2.49733 0.162001 0)
(2.5162 0.158862 0)
(2.53625 0.147046 0)
(2.55261 0.132534 0)
(2.55967 0.126883 0)
(2.5619 0.123964 0)
(2.56775 0.124483 0)
(2.32771 -0.579332 0)
(2.33053 -0.579456 0)
(2.33274 -0.578388 0)
(2.33491 -0.576331 0)
(2.33696 -0.574116 0)
(2.3384 -0.571998 0)
(2.33979 -0.570904 0)
(2.3419 -0.57091 0)
(2.34448 -0.571438 0)
(2.34649 -0.57365 0)
(2.34846 -0.576246 0)
(2.3504 -0.577304 0)
(2.35238 -0.576803 0)
(2.35447 -0.575281 0)
(2.3564 -0.572162 0)
(2.35817 -0.567717 0)
(2.36037 -0.563987 0)
(2.3634 -0.562194 0)
(2.36665 -0.561646 0)
(2.3705 -0.561349 0)
(2.37561 -0.561337 0)
(2.38037 -0.561707 0)
(2.38497 -0.562803 0)
(2.39001 -0.564591 0)
(2.39399 -0.565639 0)
(2.39687 -0.56556 0)
(2.39924 -0.565191 0)
(2.40014 -0.563962 0)
(2.39932 -0.560606 0)
(2.39789 -0.555811 0)
(2.39853 -0.552767 0)
(2.40099 -0.552253 0)
(2.40366 -0.552252 0)
(2.40766 -0.552267 0)
(2.41351 -0.553372 0)
(2.41886 -0.556051 0)
(2.42182 -0.557032 0)
(2.42428 -0.557397 0)
(2.42646 -0.557454 0)
(2.42707 -0.556693 0)
(2.42651 -0.554938 0)
(2.42736 -0.55384 0)
(2.4294 -0.553717 0)
(2.43179 -0.553978 0)
(2.43458 -0.554356 0)
(2.43749 -0.554677 0)
(2.44019 -0.554586 0)
(2.4424 -0.553437 0)
(2.44386 -0.551331 0)
(2.44594 -0.550199 0)
(2.44818 -0.549572 0)
(2.45063 -0.547664 0)
(2.45273 -0.546245 0)
(2.45598 -0.545668 0)
(2.45897 -0.545142 0)
(2.46179 -0.544424 0)
(2.46431 -0.543734 0)
(2.4663 -0.543427 0)
(2.46753 -0.543091 0)
(2.46851 -0.542037 0)
(2.47048 -0.541777 0)
(2.47249 -0.541985 0)
(2.47448 -0.542281 0)
(2.478 -0.543197 0)
(2.48434 -0.545669 0)
(2.48956 -0.546746 0)
(2.49187 -0.546643 0)
(2.49423 -0.546773 0)
(2.49661 -0.546682 0)
(2.49833 -0.545359 0)
(2.49666 -0.540452 0)
(2.49247 -0.533058 0)
(2.49251 -0.529862 0)
(2.49384 -0.529094 0)
(2.49576 -0.528385 0)
(2.50011 -0.528138 0)
(2.50579 -0.530126 0)
(2.50981 -0.532384 0)
(2.51176 -0.532787 0)
(2.51407 -0.53293 0)
(2.51537 -0.532513 0)
(2.51482 -0.53083 0)
(2.51404 -0.529353 0)
(2.51512 -0.528988 0)
(2.51652 -0.529047 0)
(2.51778 -0.528849 0)
(2.52056 -0.528506 0)
(2.52484 -0.528351 0)
(2.52749 -0.527427 0)
(2.52818 -0.526595 0)
(2.52804 -0.524331 0)
(2.52569 -0.520517 0)
(2.52545 -0.518578 0)
(2.52743 -0.51844 0)
(2.52959 -0.518245 0)
(2.53264 -0.51807 0)
(2.53712 -0.518318 0)
(2.54042 -0.518021 0)
(2.54214 -0.517615 0)
(2.54421 -0.517147 0)
(2.5458 -0.515791 0)