/*--------------------------------*- C++ -*----------------------------------*\
  =========                 |
  \\      /  F ield         | OpenFOAM: The Open Source CFD Toolbox
   \\    /   O peration     | Website:  https://openfoam.org
    \\  /    A nd           | Version:  7
     \\/     M anipulation  |
\*---------------------------------------------------------------------------*/
FoamFile
{
    version     2.0;
    format      ascii;
    class       volScalarField;
    location    "1.2";
    object      p;
}
// * * * * * * * * * * * * * * * * * * * * * * * * * * * * * * * * * * * * * //

dimensions      [1 -1 -2 0 0 0 0];

internalField   nonuniform List<scalar> 
16512
(
0.756269
0.748649
0.745842
0.745745
0.746562
0.749894
0.764004
0.806046
0.903349
1.05298
1.223
1.35722
1.48016
1.57207
1.58656
1.57808
1.55412
1.55372
1.56626
1.57566
1.5698
1.55295
1.53287
1.52589
1.52526
1.52945
1.52518
1.51366
1.49779
1.48819
1.48385
1.48321
1.48506
1.48175
1.47811
1.47736
1.48157
1.49908
1.53669
1.59949
1.69705
1.79905
1.89586
2.00092
2.05207
2.07815
2.10087
2.10757
2.11325
2.11361
2.11642
2.13206
2.19456
2.30441
2.40196
2.50572
2.59255
2.64849
2.663
2.64857
2.6191
2.60336
2.59702
2.60193
2.61225
2.61156
2.60427
2.59383
2.58194
2.56514
2.54199
2.51985
2.50681
2.50231
2.50429
2.51509
2.51622
2.50859
2.49688
2.47636
2.45185
2.43369
2.42348
2.41667
2.41336
2.41757
2.41751
2.41107
2.40308
2.39064
2.3752
2.36328
2.35243
2.34073
2.33056
2.32053
2.31089
2.30176
2.29274
2.28678
2.2839
2.28287
2.28414
2.2867
2.29024
2.28902
2.27922
2.26524
2.25133
2.23868
2.22713
2.21456
2.20532
2.20116
2.19733
2.19379
2.19286
2.19377
2.18979
2.1818
2.17198
2.15997
2.14719
2.13462
2.12479
2.11827
2.11136
2.10677
2.10627
2.10841
2.11212
2.11377
2.11004
2.10109
2.09011
2.07647
2.06015
2.04408
2.03003
2.01697
2.00808
2.00503
2.00539
2.01528
2.03294
2.03819
2.03268
2.02213
2.00639
1.97929
1.94002
1.91275
1.9023
1.8996
1.89912
1.9042
1.92138
1.95172
1.97042
1.96895
1.96177
1.95079
1.92921
1.89921
1.87968
1.87458
1.87389
1.87615
1.88529
1.90488
1.92856
1.9372
1.93513
1.92692
1.91189
1.88804
1.86016
1.84224
1.83511
1.83235
1.83177
1.83522
1.84661
1.86551
1.87537
1.87231
1.86216
1.84463
1.81753
1.78345
1.76348
1.75788
1.75616
1.75647
1.76459
1.77449
1.77402
1.7696
1.76243
1.7484
1.72373
1.69617
1.67689
1.66736
1.6627
1.66101
1.66485
1.67779
1.68755
1.68815
1.68409
1.67716
1.66798
1.65363
1.64188
1.63774
1.63406
1.62952
1.62355
1.61346
1.60137
1.58999
1.57923
1.56871
1.55991
1.55394
1.55343
1.5567
1.56542
1.58006
1.58994
1.59079
1.58863
1.58326
1.5662
1.52829
1.49807
1.48922
1.48604
1.48389
1.48323
1.484
1.48512
1.48373
1.4817
1.47962
1.47646
1.47149
1.46566
1.45886
1.44969
1.43776
1.42951
1.42851
1.43195
1.43444
1.43346
1.43158
0.758561
0.753027
0.753291
0.757066
0.773579
0.823108
0.932597
1.08689
1.29057
1.41244
1.47065
1.54192
1.60763
1.61376
1.60207
1.58775
1.58089
1.58086
1.58185
1.57479
1.56237
1.54902
1.54408
1.54154
1.54167
1.53788
1.52975
1.5186
1.50787
1.50152
1.49703
1.49224
1.48654
1.48194
1.47809
1.47564
1.47099
1.46577
1.46393
1.46688
1.48121
1.51892
1.58149
1.68109
1.79396
1.89648
1.98789
2.0251
2.05319
2.08957
2.13608
2.19686
2.32102
2.46121
2.5395
2.61779
2.66847
2.67158
2.64935
2.6252
2.60879
2.60203
2.61244
2.62271
2.6219
2.6123
2.59696
2.58058
2.56339
2.5463
2.52912
2.51828
2.51308
2.51271
2.5199
2.52744
2.5233
2.51373
2.49827
2.47052
2.43655
2.41971
2.4124
2.40767
2.41283
2.4203
2.41693
2.41006
2.39965
2.38519
2.37387
2.3658
2.35819
2.34893
2.33657
2.32109
2.30626
2.29578
2.28908
2.28545
2.28401
2.28732
2.29606
2.30218
2.30229
2.29459
2.2811
2.26056
2.23896
2.2214
2.21096
2.2059
2.20315
2.20392
2.20792
2.20764
2.20416
2.19731
2.18541
2.17158
2.15796
2.1439
2.13106
2.12497
2.12273
2.12497
2.12463
2.12265
2.12263
2.12044
2.11608
2.1072
2.09537
2.08362
2.07452
2.0661
2.05588
2.04081
2.0249
2.01803
2.01417
2.01411
2.02196
2.03328
2.03139
2.02611
2.02141
2.01104
1.98877
1.96039
1.93996
1.92609
1.91561
1.90974
1.91001
1.92071
1.94351
1.95557
1.95579
1.95138
1.94152
1.92377
1.9009
1.88422
1.87687
1.87423
1.87451
1.88198
1.90269
1.92877
1.93751
1.93517
1.92725
1.91159
1.88282
1.85366
1.84136
1.83683
1.83296
1.83078
1.83691
1.85724
1.88498
1.89573
1.89151
1.88018
1.86045
1.82732
1.78669
1.76504
1.75739
1.75401
1.75254
1.7578
1.77044
1.77263
1.76963
1.76475
1.75719
1.74334
1.72207
1.70248
1.69175
1.68524
1.68003
1.67852
1.68454
1.68797
1.68363
1.67816
1.67024
1.65668
1.64133
1.63416
1.63147
1.63458
1.64206
1.6467
1.64292
1.6326
1.61203
1.58549
1.5666
1.55791
1.55149
1.54879
1.54884
1.55317
1.56755
1.58391
1.59021
1.58999
1.58772
1.58048
1.56209
1.53349
1.50902
1.49494
1.48748
1.48418
1.48235
1.48102
1.47872
1.47537
1.47265
1.46975
1.46607
1.46219
1.46084
1.46392
1.46568
1.46335
1.45372
1.43861
1.42821
1.42175
1.4185
1.41565
0.763007
0.764508
0.780462
0.830545
0.94548
1.10997
1.28196
1.47448
1.57411
1.57557
1.58697
1.61171
1.62238
1.62218
1.6191
1.61039
1.60105
1.59213
1.58309
1.57181
1.56386
1.56118
1.55677
1.55186
1.54736
1.54146
1.53453
1.52824
1.5217
1.51412
1.50745
1.50208
1.4973
1.49252
1.48769
1.48246
1.47545
1.46612
1.4596
1.45831
1.45689
1.45512
1.45727
1.47274
1.51658
1.58627
1.6882
1.80374
1.90453
2.02965
2.15334
2.25354
2.41525
2.54626
2.63715
2.69593
2.70984
2.7023
2.67382
2.64318
2.63081
2.62672
2.63273
2.63267
2.62853
2.61527
2.58828
2.56278
2.54233
2.52718
2.51973
2.51711
2.51963
2.52629
2.53152
2.52865
2.5208
2.50907
2.49082
2.46603
2.43994
2.4238
2.41657
2.41358
2.41798
2.41742
2.41112
2.40267
2.38932
2.37818
2.37093
2.36547
2.36364
2.35805
2.34751
2.3317
2.30991
2.29439
2.28776
2.28383
2.28219
2.28675
2.29547
2.29905
2.29495
2.28675
2.27591
2.25684
2.23008
2.21356
2.20706
2.20418
2.20491
2.21284
2.21673
2.2138
2.20848
2.19718
2.17752
2.15949
2.14562
2.13365
2.12629
2.12361
2.12799
2.13939
2.14243
2.14086
2.13641
2.12583
2.10795
2.08842
2.0751
2.06709
2.05962
2.05357
2.04941
2.04239
2.03575
2.03183
2.03236
2.03553
2.03381
2.02919
2.02223
2.01058
1.99558
1.97797
1.95803
1.94386
1.94055
1.93946
1.94006
1.94287
1.95152
1.96065
1.95895
1.95118
1.9407
1.92864
1.91107
1.89143
1.88312
1.88115
1.8811
1.88452
1.89382
1.91064
1.92851
1.93266
1.93005
1.92133
1.90522
1.87832
1.85197
1.83957
1.83446
1.8322
1.83454
1.84534
1.86998
1.90103
1.91218
1.90832
1.89804
1.87791
1.84314
1.79936
1.77035
1.76024
1.75636
1.75381
1.75488
1.76338
1.7657
1.76223
1.75805
1.75301
1.74403
1.73171
1.71808
1.71015
1.70468
1.70082
1.70073
1.70039
1.69553
1.68883
1.68072
1.66845
1.65042
1.63357
1.6262
1.62334
1.62369
1.63345
1.65128
1.65605
1.64891
1.63789
1.61972
1.58812
1.56084
1.55204
1.55034
1.54954
1.55114
1.56134
1.57901
1.58681
1.58565
1.5828
1.57707
1.5649
1.54708
1.53209
1.5227
1.51195
1.49707
1.48485
1.47981
1.4774
1.47497
1.47029
1.46383
1.46054
1.45884
1.45803
1.46311
1.47312
1.47889
1.47746
1.47107
1.45438
1.43
1.41118
1.40154
1.39899
0.793395
0.84274
0.958492
1.1429
1.31457
1.44695
1.56552
1.64598
1.64022
1.62378
1.62828
1.63384
1.63762
1.63449
1.62439
1.61209
1.60537
1.59863
1.59087
1.58445
1.57825
1.57252
1.5673
1.56114
1.55311
1.54488
1.53898
1.53287
1.52685
1.52132
1.51574
1.51143
1.50767
1.50299
1.49786
1.49131
1.48242
1.47411
1.46599
1.45988
1.45559
1.45113
1.45008
1.44614
1.44606
1.45119
1.47259
1.52922
1.6323
1.80232
2.01447
2.22556
2.4101
2.5079
2.61175
2.6718
2.68388
2.67562
2.65856
2.64172
2.63584
2.639
2.65135
2.65366
2.63949
2.61748
2.57953
2.54414
2.52569
2.51582
2.51136
2.51582
2.53007
2.53481
2.52895
2.52098
2.5097
2.49464
2.47837
2.46423
2.4514
2.43871
2.43141
2.42505
2.41876
2.41249
2.40359
2.39046
2.38045
2.37394
2.3678
2.36515
2.36707
2.36271
2.3548
2.34424
2.32611
2.30389
2.2902
2.28309
2.27856
2.27584
2.27561
2.27897
2.28079
2.27516
2.26573
2.25245
2.23316
2.21887
2.21346
2.2113
2.2145
2.21774
2.21427
2.21193
2.2046
2.18881
2.17102
2.15664
2.14382
2.13515
2.13175
2.13654
2.14943
2.15421
2.1523
2.14748
2.13575
2.11663
2.09092
2.07345
2.06473
2.05658
2.04871
2.04275
2.04119
2.04676
2.054
2.05714
2.05513
2.04901
2.03879
2.02616
2.01253
1.99362
1.96916
1.95166
1.94377
1.93965
1.93784
1.94266
1.95649
1.97434
1.98444
1.983
1.97301
1.95196
1.92583
1.89964
1.88207
1.87456
1.87206
1.87193
1.87794
1.89396
1.91675
1.93196
1.93335
1.92945
1.91843
1.89889
1.87159
1.84899
1.83911
1.8357
1.83357
1.83291
1.84062
1.8671
1.90575
1.92392
1.92084
1.91152
1.89507
1.86391
1.81548
1.78021
1.76895
1.76394
1.76002
1.75836
1.76258
1.76544
1.76099
1.75513
1.74929
1.74128
1.73154
1.72101
1.71702
1.71496
1.7165
1.72195
1.72301
1.71764
1.70767
1.69394
1.67521
1.65084
1.63322
1.62498
1.62136
1.61902
1.62065
1.63392
1.64821
1.65068
1.64292
1.633
1.62028
1.59758
1.57202
1.55933
1.55568
1.55537
1.56245
1.57355
1.57345
1.57114
1.56762
1.56259
1.55502
1.54405
1.53648
1.53531
1.53356
1.52806
1.51645
1.49836
1.48211
1.47348
1.46748
1.46074
1.45614
1.45528
1.45525
1.45699
1.46556
1.47806
1.48332
1.48059
1.47418
1.45954
1.43052
1.40228
1.38766
1.3861
0.974366
1.1508
1.35279
1.49826
1.58254
1.65696
1.65997
1.64649
1.64799
1.65413
1.6613
1.65463
1.64205
1.62992
1.62195
1.61936
1.61731
1.61201
1.60065
1.59128
1.58726
1.58282
1.57766
1.57106
1.56095
1.54967
1.54329
1.53748
1.53163
1.5273
1.52457
1.51955
1.51398
1.50982
1.50561
1.49925
1.49008
1.48161
1.47576
1.47048
1.46469
1.45833
1.45361
1.4474
1.447
1.45133
1.45691
1.47879
1.53335
1.64429
1.78617
1.9854
2.15898
2.26125
2.36743
2.47854
2.53771
2.57224
2.57375
2.58619
2.6119
2.63552
2.64805
2.65472
2.64285
2.61751
2.58143
2.54186
2.5231
2.51886
2.51882
2.52732
2.53413
2.52871
2.51888
2.50744
2.49291
2.47905
2.47115
2.46687
2.46652
2.46149
2.45346
2.44292
2.42758
2.41116
2.39516
2.38263
2.37612
2.37081
2.36661
2.36772
2.36796
2.36122
2.35454
2.34786
2.33701
2.31924
2.29929
2.2824
2.27175
2.26595
2.26236
2.25963
2.25902
2.26006
2.25587
2.24814
2.24046
2.23218
2.22822
2.22542
2.21962
2.21402
2.20905
2.19992
2.18724
2.17258
2.1638
2.15689
2.14871
2.14309
2.14713
2.15706
2.15898
2.15539
2.14911
2.13965
2.12537
2.10043
2.0797
2.0695
2.06114
2.05214
2.04445
2.04341
2.05216
2.066
2.07271
2.07002
2.06272
2.04908
2.03182
2.01413
1.99383
1.97153
1.95419
1.94271
1.93799
1.93623
1.94081
1.95693
1.98115
1.99725
1.99765
1.99164
1.97547
1.94572
1.90774
1.88372
1.87396
1.8701
1.86874
1.87305
1.89076
1.91813
1.93344
1.93374
1.92946
1.91866
1.89673
1.86625
1.84548
1.83526
1.83084
1.8314
1.83615
1.84668
1.87045
1.90693
1.92878
1.92625
1.91744
1.90553
1.88355
1.8392
1.79297
1.77496
1.76969
1.76559
1.76298
1.76475
1.76786
1.76406
1.75764
1.75099
1.7419
1.7319
1.72332
1.71967
1.7178
1.72031
1.72905
1.7336
1.73029
1.72376
1.71361
1.69556
1.66913
1.64185
1.6265
1.62276
1.62027
1.61825
1.61866
1.62096
1.62372
1.629
1.63163
1.62634
1.61743
1.60527
1.59025
1.57729
1.57066
1.57008
1.57417
1.57396
1.56967
1.56304
1.55292
1.53936
1.53188
1.5303
1.53256
1.53764
1.53778
1.53457
1.52842
1.51455
1.49121
1.47258
1.46156
1.45552
1.45391
1.4537
1.45407
1.45804
1.46913
1.47949
1.48103
1.47719
1.47053
1.45823
1.43107
1.39903
1.38028
1.37756
1.35142
1.50229
1.62317
1.69167
1.6973
1.67503
1.66812
1.6669
1.67853
1.68162
1.67346
1.65676
1.64181
1.63733
1.63821
1.63887
1.63178
1.62026
1.60741
1.60032
1.59691
1.59358
1.58824
1.58148
1.5713
1.55805
1.5503
1.54515
1.53988
1.53595
1.53374
1.52858
1.52256
1.51816
1.51384
1.50768
1.49884
1.49069
1.48514
1.48009
1.47503
1.4695
1.46508
1.46166
1.46167
1.46781
1.50503
1.57348
1.6658
1.77521
1.86305
1.91703
1.95802
1.99107
2.03886
2.12838
2.2367
2.33908
2.4394
2.5088
2.55047
2.58026
2.608
2.62498
2.62316
2.60519
2.58455
2.56029
2.54263
2.53905
2.53991
2.54192
2.53402
2.52289
2.50803
2.48798
2.47544
2.4696
2.46619
2.47069
2.47885
2.47583
2.46906
2.45968
2.44177
2.41578
2.3945
2.38273
2.37566
2.37031
2.36813
2.37068
2.36585
2.3568
2.34902
2.34217
2.33344
2.32254
2.30989
2.29391
2.27422
2.25996
2.25372
2.24959
2.24672
2.24689
2.24863
2.24867
2.24929
2.25087
2.24726
2.2393
2.22798
2.21284
2.19556
2.17984
2.16883
2.16241
2.15771
2.15302
2.15097
2.15517
2.16317
2.16172
2.15643
2.14957
2.13996
2.12552
2.10559
2.08737
2.07711
2.07087
2.06323
2.05533
2.05233
2.05955
2.07403
2.0802
2.07619
2.06857
2.05628
2.0373
2.01334
1.98986
1.97276
1.95962
1.95008
1.94559
1.94215
1.94242
1.95238
1.97635
1.99673
1.99827
1.99272
1.98349
1.96698
1.93564
1.90036
1.88201
1.87682
1.87488
1.87574
1.88764
1.91341
1.93
1.93004
1.92584
1.91678
1.89695
1.86786
1.84766
1.83792
1.83418
1.83183
1.83234
1.83971
1.86216
1.8991
1.92407
1.92412
1.91826
1.90937
1.89454
1.86457
1.81921
1.78771
1.77661
1.77123
1.76779
1.76718
1.76971
1.76659
1.76035
1.75439
1.74564
1.73487
1.72717
1.72374
1.72159
1.72332
1.73193
1.73801
1.73493
1.72952
1.72377
1.71411
1.6949
1.66483
1.63903
1.62888
1.62586
1.62395
1.6212
1.61841
1.61314
1.60756
1.60404
1.60686
1.61301
1.61402
1.61038
1.6089
1.60864
1.60124
1.58797
1.57619
1.5665
1.55653
1.54301
1.52798
1.52088
1.51936
1.52091
1.52978
1.54219
1.54425
1.5418
1.538
1.52773
1.49834
1.46755
1.45929
1.45769
1.45678
1.45639
1.45697
1.46212
1.47167
1.47406
1.47164
1.46818
1.46324
1.45298
1.4313
1.40115
1.37596
1.37143
1.61954
1.70585
1.72484
1.71036
1.69794
1.69341
1.69738
1.69943
1.69038
1.67415
1.66414
1.66005
1.65917
1.65892
1.65366
1.64524
1.63327
1.62166
1.6173
1.61304
1.6075
1.60161
1.59532
1.58852
1.58075
1.57078
1.56022
1.55331
1.54802
1.54425
1.54187
1.53651
1.53066
1.52488
1.51849
1.51104
1.50476
1.50016
1.49533
1.49109
1.48554
1.47988
1.4774
1.48077
1.48953
1.51633
1.60468
1.69785
1.78292
1.85672
1.89552
1.90817
1.90699
1.90026
1.89924
1.90614
1.93321
1.99151
2.07654
2.18823
2.31635
2.3904
2.44566
2.49529
2.53205
2.57069
2.57688
2.5699
2.56336
2.56351
2.56492
2.55927
2.54405
2.52618
2.50221
2.47721
2.46452
2.45912
2.45863
2.46985
2.47976
2.47644
2.46965
2.46086
2.44697
2.42512
2.40307
2.39093
2.38328
2.37734
2.37264
2.36892
2.36111
2.35127
2.33986
2.32871
2.32026
2.31404
2.30809
2.30036
2.2885
2.27119
2.25568
2.24708
2.24167
2.24025
2.24554
2.25307
2.26045
2.26106
2.25519
2.24758
2.23573
2.21386
2.18558
2.16634
2.15897
2.15528
2.15222
2.15343
2.16006
2.16796
2.16576
2.15927
2.15113
2.1392
2.12234
2.10263
2.08663
2.0786
2.07479
2.07106
2.06804
2.06752
2.07404
2.08538
2.08657
2.08003
2.07107
2.05942
2.04325
2.01981
1.99306
1.97311
1.96005
1.95331
1.94988
1.94858
1.95108
1.96041
1.97829
1.99071
1.98803
1.98274
1.97737
1.96771
1.9494
1.92781
1.91081
1.89912
1.89219
1.8904
1.89435
1.90755
1.91884
1.91841
1.91562
1.91005
1.89628
1.87127
1.84916
1.83858
1.83633
1.83687
1.83971
1.84625
1.86413
1.89614
1.91604
1.91421
1.91086
1.90504
1.89229
1.86887
1.8394
1.81697
1.80299
1.79176
1.78117
1.77575
1.77232
1.76612
1.76054
1.75591
1.74873
1.73868
1.732
1.72879
1.72666
1.72785
1.73499
1.742
1.73984
1.73422
1.7286
1.7217
1.71069
1.69304
1.66934
1.64889
1.63727
1.62781
1.61789
1.61213
1.60758
1.60226
1.59603
1.58983
1.58852
1.59681
1.60882
1.61886
1.62811
1.63146
1.62678
1.61078
1.58285
1.55516
1.53255
1.51716
1.51183
1.50983
1.50932
1.51473
1.53299
1.54921
1.54981
1.54643
1.54167
1.53222
1.50723
1.47153
1.45918
1.4578
1.45732
1.45735
1.45944
1.46363
1.46649
1.46611
1.46236
1.4577
1.45225
1.44332
1.42791
1.40697
1.38219
1.37314
1.75088
1.74125
1.7202
1.71509
1.72117
1.72843
1.72169
1.70187
1.6811
1.67293
1.67138
1.67825
1.67887
1.67043
1.65579
1.64342
1.63859
1.63535
1.63149
1.62558
1.61704
1.60736
1.60033
1.59498
1.58917
1.5817
1.57284
1.56531
1.55977
1.55619
1.55189
1.54654
1.54197
1.53593
1.52583
1.51717
1.51259
1.5082
1.5044
1.50177
1.49851
1.49549
1.49903
1.51634
1.54953
1.61938
1.75514
1.82644
1.87046
1.90569
1.92254
1.92425
1.91945
1.89878
1.87979
1.87562
1.87276
1.87374
1.88136
1.90151
1.94522
2.01552
2.10348
2.20293
2.30395
2.40877
2.49836
2.52882
2.5482
2.56086
2.56643
2.56352
2.54919
2.53119
2.50741
2.47931
2.46542
2.45834
2.45685
2.46532
2.46948
2.46507
2.45944
2.45256
2.44199
2.42602
2.40797
2.39946
2.39451
2.38695
2.37659
2.36624
2.35472
2.33962
2.32113
2.30937
2.30435
2.30156
2.30102
2.29956
2.29578
2.28962
2.27796
2.26362
2.25349
2.24699
2.2459
2.25663
2.2641
2.25953
2.25288
2.24548
2.23302
2.2114
2.18404
2.16813
2.16102
2.15587
2.15165
2.15275
2.16254
2.16585
2.15896
2.15105
2.14175
2.12661
2.10624
2.08818
2.08121
2.07806
2.07508
2.07341
2.0759
2.08385
2.0934
2.09278
2.0851
2.07515
2.06371
2.04915
2.02872
2.00201
1.97891
1.96459
1.95631
1.95079
1.94718
1.94795
1.95979
1.98087
1.99057
1.98756
1.98089
1.97071
1.95656
1.94051
1.92545
1.91566
1.91356
1.91182
1.91184
1.91693
1.92428
1.92294
1.91633
1.90852
1.89951
1.88624
1.86742
1.85166
1.845
1.84344
1.84225
1.84316
1.84896
1.86437
1.89035
1.90788
1.90802
1.90338
1.89391
1.88036
1.86054
1.83583
1.82183
1.81792
1.8154
1.81318
1.80784
1.79627
1.78124
1.76749
1.75621
1.74745
1.73979
1.73397
1.73079
1.72805
1.7281
1.73512
1.74343
1.742
1.73617
1.73058
1.72507
1.71781
1.70724
1.6938
1.67836
1.66225
1.64566
1.62753
1.61195
1.60238
1.5959
1.59036
1.5847
1.57977
1.5807
1.59173
1.61116
1.6357
1.64751
1.64687
1.63914
1.61809
1.58076
1.5368
1.51535
1.50856
1.50505
1.50321
1.50338
1.51372
1.53653
1.55001
1.54949
1.54543
1.53976
1.5312
1.51514
1.48996
1.46824
1.46158
1.4602
1.45997
1.46186
1.46321
1.46138
1.45881
1.4549
1.44939
1.44213
1.43187
1.42023
1.40765
1.39115
1.37779
1.76377
1.73851
1.73188
1.73876
1.74707
1.74071
1.72085
1.69613
1.68761
1.68737
1.6955
1.69664
1.68826
1.67428
1.66058
1.65468
1.65003
1.6445
1.63816
1.63091
1.62284
1.61519
1.60847
1.60219
1.59527
1.58765
1.58111
1.57581
1.57247
1.56778
1.56166
1.55573
1.54934
1.54115
1.53107
1.52362
1.51901
1.51499
1.51188
1.51065
1.51113
1.51708
1.53575
1.58697
1.66003
1.77005
1.8719
1.91103
1.93526
1.94348
1.93192
1.92072
1.913
1.90433
1.89617
1.88772
1.87362
1.86675
1.8658
1.86549
1.86851
1.86968
1.8769
1.90676
1.96931
2.06013
2.17374
2.30417
2.404
2.47095
2.50981
2.51991
2.52436
2.52254
2.50846
2.48957
2.48408
2.47527
2.4654
2.46324
2.45777
2.45085
2.44431
2.43631
2.42784
2.41943
2.41088
2.40573
2.40066
2.39222
2.38054
2.36665
2.35002
2.32886
2.30711
2.29518
2.29075
2.28874
2.29201
2.2985
2.29957
2.29801
2.29399
2.28517
2.27268
2.26267
2.25642
2.25675
2.25663
2.25009
2.24379
2.23623
2.2249
2.20784
2.19347
2.18531
2.17761
2.16936
2.16336
2.16036
2.16165
2.15717
2.14891
2.14016
2.12802
2.11135
2.09392
2.08696
2.08423
2.08205
2.08142
2.08452
2.09119
2.09737
2.09526
2.08688
2.07744
2.06698
2.05263
2.03391
2.01276
1.99486
1.98128
1.97177
1.96476
1.95975
1.95796
1.96425
1.98015
1.99111
1.98894
1.98259
1.9738
1.95902
1.93791
1.92283
1.91477
1.91151
1.91161
1.9184
1.93012
1.93846
1.93789
1.93193
1.91942
1.9001
1.87793
1.85762
1.84507
1.84009
1.84029
1.84367
1.84962
1.85811
1.87298
1.89635
1.91024
1.90856
1.90312
1.89418
1.87799
1.85191
1.82644
1.81511
1.81084
1.81143
1.82011
1.82803
1.82656
1.81982
1.80661
1.78221
1.75474
1.74043
1.73482
1.73098
1.72819
1.72712
1.73059
1.74145
1.74465
1.73972
1.7336
1.72846
1.72311
1.71713
1.71123
1.70406
1.692
1.67149
1.64473
1.61901
1.60237
1.59518
1.58983
1.58461
1.57988
1.5762
1.57786
1.59295
1.62516
1.64808
1.64904
1.64358
1.63412
1.61349
1.57274
1.53201
1.51278
1.50579
1.50203
1.49993
1.50226
1.52113
1.54381
1.54376
1.54005
1.53647
1.53126
1.52413
1.51603
1.50479
1.48902
1.47144
1.46284
1.46052
1.4596
1.45837
1.45624
1.45332
1.44937
1.44334
1.43381
1.4228
1.4148
1.40937
1.40286
1.39069
1.76452
1.7558
1.75652
1.76044
1.7541
1.73698
1.71612
1.70817
1.70591
1.70981
1.7083
1.70008
1.68823
1.67823
1.6739
1.67016
1.66427
1.65466
1.6436
1.63664
1.63197
1.6269
1.61941
1.60836
1.59981
1.59416
1.58896
1.58599
1.58377
1.57815
1.57227
1.56615
1.5576
1.54522
1.53582
1.53132
1.5273
1.52394
1.52249
1.52424
1.53424
1.55428
1.61237
1.7133
1.79445
1.88756
1.95819
1.97749
1.97502
1.96251
1.93982
1.92419
1.91964
1.91581
1.90628
1.89386
1.88501
1.8797
1.87562
1.87252
1.87103
1.86979
1.86264
1.849
1.84123
1.84502
1.87428
1.93611
2.02571
2.11965
2.22008
2.31253
2.37889
2.4416
2.46592
2.4742
2.48591
2.49016
2.4757
2.46408
2.45355
2.44444
2.43665
2.42835
2.42026
2.41455
2.41057
2.40721
2.40144
2.39038
2.37558
2.36041
2.34454
2.32625
2.30482
2.28977
2.28432
2.28277
2.28654
2.29662
2.30145
2.30137
2.29961
2.29482
2.28583
2.27342
2.26329
2.25602
2.24786
2.24026
2.23299
2.22351
2.21147
2.20061
2.19572
2.19191
2.18863
2.18265
2.17651
2.17049
2.16129
2.14967
2.13886
2.12739
2.1149
2.10117
2.09563
2.09381
2.09208
2.09063
2.0925
2.09719
2.09763
2.09152
2.08409
2.07617
2.06663
2.05435
2.03767
2.01984
2.00704
1.99841
1.99212
1.98674
1.98105
1.97717
1.97896
1.98593
1.98667
1.98036
1.97528
1.96982
1.96039
1.94395
1.92727
1.91681
1.91302
1.91131
1.91533
1.9295
1.94319
1.94431
1.94066
1.93441
1.91883
1.88893
1.85767
1.8427
1.83654
1.83586
1.83783
1.84276
1.85179
1.86877
1.8945
1.91247
1.91328
1.9091
1.89953
1.88187
1.85307
1.82244
1.80945
1.80579
1.80441
1.80897
1.82667
1.83997
1.8388
1.83355
1.82387
1.79885
1.75844
1.73918
1.73368
1.72946
1.72563
1.72446
1.73004
1.73977
1.74225
1.73788
1.73228
1.72827
1.72507
1.72204
1.71827
1.71058
1.69477
1.67193
1.64223
1.61394
1.59714
1.59023
1.58635
1.58214
1.5777
1.57688
1.58725
1.61074
1.62982
1.63223
1.62939
1.62375
1.61429
1.59674
1.57134
1.54621
1.52652
1.51416
1.50834
1.50642
1.51069
1.52327
1.5315
1.53129
1.52848
1.52597
1.52165
1.51697
1.51264
1.509
1.5036
1.49289
1.47389
1.45882
1.45353
1.45141
1.44732
1.44213
1.43755
1.43229
1.42428
1.41562
1.41401
1.41363
1.41283
1.40743
1.77669
1.77745
1.7788
1.77086
1.75368
1.73305
1.72549
1.72361
1.72651
1.72329
1.71389
1.70147
1.69364
1.68966
1.68527
1.67992
1.67242
1.6627
1.65568
1.65121
1.64599
1.63798
1.62665
1.6161
1.60934
1.60368
1.59918
1.59616
1.59086
1.58518
1.58003
1.57374
1.56448
1.55262
1.54465
1.54012
1.53672
1.53492
1.53651
1.54834
1.57769
1.63126
1.75121
1.84342
1.91249
1.97952
1.98391
1.98912
1.98793
1.98343
1.96862
1.943
1.92525
1.91442
1.90442
1.89868
1.8953
1.89363
1.89031
1.88512
1.87924
1.87183
1.86325
1.85304
1.84269
1.83294
1.82484
1.82282
1.83065
1.85584
1.90067
1.96881
2.0566
2.15284
2.25796
2.35299
2.42348
2.44956
2.45292
2.4534
2.44878
2.44265
2.43725
2.42712
2.4201
2.41554
2.41121
2.40573
2.39687
2.37977
2.36309
2.35123
2.34071
2.33084
2.31837
2.30376
2.29364
2.28899
2.28799
2.29234
2.29792
2.29876
2.29674
2.29254
2.28509
2.27577
2.26545
2.25446
2.2442
2.23528
2.22656
2.2154
2.20119
2.19463
2.19116
2.1879
2.18668
2.18792
2.18352
2.17523
2.16442
2.14916
2.13237
2.11751
2.10448
2.10153
2.10136
2.1009
2.10022
2.10183
2.10454
2.10082
2.09307
2.08466
2.07472
2.06264
2.04784
2.03298
2.02045
2.00842
2.00379
2.0015
1.9989
1.99668
1.99823
2.00435
2.00589
1.99886
1.98612
1.97278
1.96116
1.95186
1.94265
1.9321
1.92294
1.91951
1.91681
1.91636
1.92327
1.93796
1.94443
1.9419
1.93817
1.93032
1.91234
1.88009
1.85118
1.83905
1.83558
1.83423
1.83663
1.84534
1.86178
1.88669
1.90921
1.91431
1.91241
1.90442
1.88767
1.85821
1.82491
1.80809
1.80245
1.79939
1.80035
1.81493
1.83935
1.8472
1.84381
1.83845
1.83029
1.81143
1.77626
1.74575
1.73427
1.72891
1.72501
1.72205
1.72131
1.72648
1.73434
1.73421
1.73023
1.7275
1.72545
1.72284
1.71772
1.70569
1.68801
1.66662
1.64354
1.62045
1.60293
1.59361
1.58903
1.58582
1.58402
1.58984
1.60674
1.6241
1.62511
1.62089
1.61345
1.60098
1.58536
1.57112
1.56093
1.55383
1.54638
1.53562
1.52475
1.52116
1.52239
1.52451
1.52227
1.51681
1.51217
1.51146
1.51325
1.51309
1.51305
1.5118
1.5094
1.50497
1.49314
1.46984
1.45113
1.44358
1.43911
1.4332
1.42525
1.41834
1.41548
1.41454
1.4137
1.4155
1.41927
1.41917
1.79761
1.80087
1.79267
1.77335
1.75122
1.74344
1.74096
1.74362
1.74051
1.73117
1.71904
1.70993
1.70398
1.69845
1.69263
1.68571
1.67745
1.67155
1.6673
1.66248
1.6557
1.64435
1.63158
1.62514
1.61984
1.6156
1.61077
1.60412
1.59784
1.59226
1.58697
1.58077
1.57114
1.55955
1.55423
1.55101
1.54941
1.5514
1.56322
1.60107
1.66463
1.75914
1.89317
1.95715
1.97571
1.98619
2.00403
2.01377
2.01245
2.00283
1.98041
1.95244
1.93317
1.92474
1.92059
1.91682
1.91235
1.90595
1.89843
1.88991
1.88147
1.87484
1.86846
1.86172
1.85324
1.84217
1.82926
1.82304
1.81812
1.814
1.81172
1.81362
1.82842
1.86511
1.92748
2.01562
2.11477
2.21994
2.31448
2.39331
2.41446
2.41092
2.41987
2.42068
2.41901
2.41798
2.41507
2.40693
2.39193
2.36981
2.35092
2.33977
2.33366
2.33024
2.3279
2.32468
2.31924
2.31166
2.30251
2.29565
2.29172
2.2886
2.28701
2.28327
2.27673
2.27
2.26276
2.25455
2.24472
2.23336
2.22112
2.20705
2.19566
2.18966
2.18467
2.18057
2.18031
2.18434
2.18097
2.17359
2.16505
2.15168
2.13146
2.11492
2.10832
2.106
2.1054
2.105
2.10519
2.10659
2.10297
2.09518
2.08625
2.07574
2.0631
2.04837
2.03203
2.01767
2.00757
2.00325
2.00111
2.00201
2.00645
2.01105
2.01681
2.01956
2.01464
2.00648
1.99362
1.9726
1.95142
1.93523
1.9266
1.92303
1.92076
1.91874
1.91922
1.92321
1.93239
1.9425
1.94191
1.93729
1.93158
1.92222
1.90286
1.87491
1.85623
1.84916
1.84459
1.84131
1.84162
1.84898
1.87001
1.89839
1.9078
1.90694
1.90292
1.89228
1.86814
1.83546
1.81291
1.80255
1.79877
1.79633
1.80102
1.82567
1.85068
1.85046
1.84405
1.8372
1.82816
1.81387
1.79392
1.76897
1.74352
1.72911
1.72313
1.71903
1.71699
1.72025
1.72844
1.73379
1.73197
1.72834
1.72486
1.71964
1.70885
1.69154
1.67102
1.65492
1.64313
1.6317
1.61791
1.6034
1.59431
1.591
1.59317
1.60621
1.61967
1.61841
1.61362
1.60813
1.59769
1.57861
1.56126
1.55443
1.55202
1.55405
1.55869
1.56031
1.55403
1.53848
1.52474
1.51609
1.50903
1.50139
1.49732
1.49628
1.50148
1.5114
1.51533
1.51544
1.51405
1.5111
1.50466
1.48828
1.45901
1.43727
1.42781
1.4203
1.41265
1.40838
1.40659
1.40664
1.41092
1.42282
1.43294
1.4316
1.82454
1.81504
1.7935
1.76964
1.76115
1.75854
1.76037
1.75716
1.74821
1.73729
1.72836
1.722
1.71549
1.70707
1.69663
1.6897
1.68604
1.68281
1.67891
1.67282
1.66127
1.64586
1.63836
1.63352
1.62933
1.62577
1.61888
1.61175
1.60606
1.60063
1.5946
1.5878
1.57748
1.56868
1.56517
1.56326
1.56592
1.57949
1.61762
1.70028
1.79389
1.91351
1.97441
1.99597
2.01584
2.02702
2.02901
2.02198
2.01116
1.99755
1.98077
1.96486
1.95261
1.94193
1.93463
1.92992
1.92487
1.91856
1.9111
1.90348
1.89483
1.88542
1.87766
1.87096
1.86398
1.85596
1.84633
1.83466
1.82163
1.81253
1.80908
1.80706
1.80115
1.79625
1.79739
1.81089
1.84041
1.89108
1.96756
2.05887
2.15848
2.24917
2.33507
2.38282
2.39868
2.40904
2.40742
2.39798
2.38369
2.36449
2.34499
2.32981
2.32326
2.32184
2.32855
2.33756
2.33632
2.3301
2.32092
2.3044
2.28903
2.28226
2.27698
2.2725
2.2709
2.26515
2.25862
2.25274
2.24463
2.23062
2.21436
2.20212
2.19433
2.18893
2.18347
2.17837
2.17628
2.17673
2.17253
2.16702
2.16111
2.15288
2.14179
2.1314
2.12468
2.11888
2.1139
2.11129
2.10835
2.10244
2.09427
2.08457
2.07484
2.06447
2.05168
2.03749
2.0236
2.01219
2.00676
2.00343
2.00156
2.00471
2.01369
2.02082
2.02004
2.01553
2.01078
2.00546
1.99652
1.97747
1.94871
1.92763
1.91865
1.91539
1.9136
1.91467
1.91868
1.92714
1.93926
1.94109
1.93695
1.93024
1.92089
1.90675
1.88582
1.86864
1.86082
1.85701
1.85408
1.85316
1.85622
1.86701
1.88709
1.89897
1.89938
1.89714
1.89077
1.87485
1.848
1.82315
1.80914
1.80339
1.79974
1.79892
1.80838
1.8297
1.83724
1.83399
1.82859
1.82225
1.81404
1.80556
1.79683
1.78537
1.76891
1.74646
1.72827
1.72061
1.71668
1.71784
1.72038
1.71972
1.71774
1.715
1.71141
1.70472
1.69016
1.67097
1.65678
1.65076
1.6484
1.64483
1.63795
1.62756
1.61825
1.61283
1.61223
1.61601
1.61485
1.60848
1.59987
1.58733
1.56919
1.55433
1.55032
1.54936
1.5499
1.55803
1.57234
1.57721
1.57358
1.55921
1.53152
1.50644
1.49425
1.48951
1.4871
1.48576
1.48925
1.50257
1.51336
1.51885
1.51966
1.51754
1.51292
1.50057
1.46936
1.43225
1.41476
1.40837
1.40406
1.40078
1.39898
1.40082
1.41207
1.43161
1.44308
1.4407
1.8347
1.81311
1.78868
1.77917
1.77549
1.7748
1.77131
1.76393
1.7561
1.74892
1.74178
1.73369
1.72412
1.71408
1.70672
1.70096
1.69611
1.69236
1.68843
1.68207
1.66905
1.65446
1.64805
1.64324
1.63928
1.63504
1.62727
1.61935
1.61225
1.60528
1.59867
1.59171
1.5844
1.58111
1.58003
1.58404
1.60183
1.64383
1.72971
1.8509
1.92929
1.99747
2.03714
2.04137
2.04409
2.03873
2.02606
2.01882
2.01361
2.00518
1.9958
1.979
1.96037
1.95098
1.94562
1.94156
1.93699
1.93058
1.92218
1.91243
1.90183
1.8921
1.88673
1.88254
1.87845
1.87137
1.86179
1.84932
1.83416
1.82572
1.82003
1.81282
1.80401
1.79619
1.7918
1.78689
1.78203
1.78134
1.78925
1.80924
1.84858
1.90996
1.99469
2.09842
2.1928
2.2795
2.34158
2.34978
2.35091
2.34969
2.34003
2.32474
2.32163
2.32185
2.33233
2.34837
2.34612
2.3379
2.32876
2.31581
2.29443
2.2781
2.27113
2.26633
2.26555
2.26414
2.25846
2.25228
2.24296
2.22736
2.21096
2.19957
2.19246
2.18847
2.18595
2.18083
2.1748
2.16925
2.16355
2.1587
2.15507
2.15113
2.14559
2.14168
2.13945
2.13539
2.12723
2.11635
2.10451
2.0931
2.08225
2.07194
2.06153
2.05255
2.04308
2.03016
2.0218
2.01796
2.01388
2.0102
2.00933
2.01448
2.02004
2.01627
2.01034
2.00668
2.00375
1.99954
1.99211
1.97906
1.9573
1.93325
1.91809
1.91066
1.90697
1.90534
1.9107
1.93012
1.941
1.93905
1.93453
1.92737
1.91289
1.89004
1.8702
1.86227
1.86028
1.85873
1.85753
1.85956
1.86856
1.88578
1.89635
1.89648
1.8946
1.88861
1.8763
1.85593
1.8336
1.81941
1.8145
1.8103
1.80744
1.8103
1.81681
1.82143
1.82149
1.81598
1.81131
1.80707
1.80206
1.79699
1.79244
1.7875
1.78077
1.77028
1.7526
1.73426
1.72532
1.71855
1.71372
1.70987
1.70639
1.70173
1.69394
1.68066
1.66469
1.65541
1.65239
1.65096
1.65127
1.65321
1.65424
1.65202
1.64674
1.6397
1.63158
1.62171
1.60878
1.59464
1.5782
1.55997
1.5476
1.5432
1.5424
1.54526
1.55633
1.57514
1.58728
1.58681
1.58042
1.56541
1.53353
1.49969
1.48701
1.48313
1.4805
1.47904
1.48144
1.49611
1.51664
1.52419
1.52303
1.51981
1.51458
1.50362
1.47682
1.43565
1.41134
1.4016
1.39736
1.39451
1.39279
1.3948
1.41041
1.43348
1.45018
1.44836
1.83041
1.80683
1.79928
1.79557
1.79124
1.78525
1.77863
1.77232
1.76748
1.76191
1.75417
1.74292
1.72902
1.72103
1.71701
1.71278
1.70832
1.7036
1.69718
1.68675
1.67272
1.66403
1.65906
1.6547
1.65175
1.64572
1.63774
1.63028
1.62281
1.61372
1.60187
1.5958
1.59373
1.59335
1.60063
1.62521
1.67853
1.77309
1.89086
1.96489
2.02626
2.06928
2.06952
2.05487
2.0439
2.03877
2.03847
2.03921
2.0311
2.01582
1.99712
1.97808
1.968
1.96444
1.96043
1.95499
1.94883
1.94017
1.92952
1.91942
1.90923
1.89978
1.89404
1.89
1.88692
1.88263
1.87617
1.8675
1.85408
1.83882
1.82892
1.82175
1.81482
1.80785
1.80025
1.79023
1.779
1.77457
1.77032
1.76681
1.76628
1.77096
1.78615
1.81939
1.87395
1.94379
2.0328
2.12322
2.20818
2.26942
2.28877
2.29123
2.29916
2.31165
2.32471
2.33497