/*--------------------------------*- C++ -*----------------------------------*\
  =========                 |
  \\      /  F ield         | OpenFOAM: The Open Source CFD Toolbox
   \\    /   O peration     | Website:  https://openfoam.org
    \\  /    A nd           | Version:  7
     \\/     M anipulation  |
\*---------------------------------------------------------------------------*/
FoamFile
{
    version     2.0;
    format      ascii;
    class       volScalarField;
    location    "1";
    object      p;
}
// * * * * * * * * * * * * * * * * * * * * * * * * * * * * * * * * * * * * * //

dimensions      [1 -1 -2 0 0 0 0];

internalField   nonuniform List<scalar> 
16512
(
3.73756
3.68809
3.63971
3.58838
3.53698
3.4808
3.42685
3.38121
3.34148
3.31089
3.27365
3.22623
3.17582
3.11519
3.05798
3.03123
3.00318
2.97143
2.93772
2.89208
2.83037
2.7858
2.76969
2.75181
2.72989
2.70366
2.66425
2.60553
2.5413
2.49393
2.47854
2.47253
2.46267
2.44612
2.42163
2.38598
2.3467
2.31574
2.29414
2.27181
2.23495
2.18456
2.13591
2.10692
2.09888
2.09943
2.10214
2.09423
2.07979
2.04569
1.99069
1.94084
1.91858
1.91296
1.91003
1.90223
1.891
1.87222
1.83301
1.79231
1.77964
1.77466
1.76677
1.75707
1.74538
1.73127
1.71449
1.69192
1.65506
1.61712
1.60409
1.60036
1.59642
1.59071
1.58498
1.57892
1.57041
1.55012
1.51341
1.48461
1.47657
1.47009
1.46368
1.45727
1.44915
1.43589
1.41552
1.401
1.39427
1.38886
1.38327
1.37698
1.36929
1.3581
1.33607
1.30581
1.29146
1.29064
1.29205
1.29084
1.28568
1.27937
1.27255
1.26378
1.24671
1.22076
1.20357
1.20042
1.19925
1.19948
1.19535
1.18724
1.18474
1.53155
4.24838
5.35893
5.37752
5.36277
5.35938
5.36184
5.36056
5.34957
5.32604
5.29864
5.27194
5.24525
5.21488
5.17802
5.13802
5.10508
5.08468
5.07019
5.05429
5.02815
4.97807
4.89949
4.82535
4.79126
4.77033
4.74353
4.70916
4.66569
4.60358
4.51759
4.44857
4.40687
4.36776
4.32238
4.26531
4.18628
4.07924
3.98904
5.23285
5.17438
5.11335
5.04872
4.98179
4.90767
4.8393
4.7717
4.70562
4.64296
4.5781
4.51944
4.45956
4.39576
4.33448
4.27032
4.21381
4.15978
4.10157
4.04581
3.98471
3.92448
3.87283
3.8196
3.76969
3.72235
3.67097
3.61956
3.56418
3.50849
3.46069
3.41653
3.3837
3.34775
3.30094
3.25124
3.19411
3.13294
3.10173
3.07298
3.03929
3.00542
2.96137
2.9027
2.85669
2.83638
2.81665
2.79338
2.7663
2.72687
2.66822
2.60321
2.55412
2.53728
2.52972
2.51957
2.50305
2.47854
2.44242
2.40312
2.37209
2.34984
2.3265
2.2877
2.23421
2.18399
2.15647
2.14879
2.14944
2.15186
2.14327
2.12811
2.09327
2.03753
1.98563
1.96235
1.95635
1.95393
1.9468
1.9358
1.91765
1.87846
1.83398
1.8166
1.81237
1.80536
1.79571
1.78431
1.77087
1.75499
1.73389
1.69819
1.65662
1.63632
1.63211
1.62958
1.62609
1.6202
1.61372
1.60566
1.58741
1.55045
1.51569
1.5059
1.50106
1.49396
1.48689
1.47991
1.47017
1.45151
1.43012
1.42107
1.4156
1.40988
1.40356
1.39612
1.38579
1.3668
1.33637
1.31546
1.31349
1.31397
1.31532
1.31158
1.30537
1.29822
1.28907
1.2732
1.24763
1.22676
1.22254
1.22097
1.22171
1.21831
1.21178
1.20612
1.19343
1.20935
2.34224
5.03643
5.37726
5.36997
5.37348
5.37131
5.36143
5.3389
5.30599
5.2778
5.2563
5.23549
5.2097
5.17539
5.13619
5.10471
5.08432
5.0675
5.04888
5.01897
4.96304
4.88081
4.81718
4.79212
4.77477
4.74956
4.71525
4.66967
4.60086
4.50709
4.43557
4.39294
4.35314
4.30826
4.25311
4.1763
4.08137
4.02596
5.26442
5.20368
5.13814
5.07143
4.9979
4.93032
4.86416
4.79718
4.73434
4.66878
4.60936
4.54981
4.4853
4.42356
4.35933
4.30187
4.24879
4.19025
4.13369
4.07306
4.00898
3.95654
3.90215
3.8501
3.80308
3.75393
3.70195
3.64774
3.5919
3.54256
3.49471
3.45741
3.42173
3.37559
3.32552
3.27099
3.20777
3.17254
3.14493
3.10995
3.07634
3.03394
2.97579
2.92844
2.90201
2.87905
2.85438
2.82692
2.78862
2.73196
2.66808
2.61891
2.60129
2.59212
2.57966
2.56121
2.53334
2.49457
2.45507
2.42551
2.40455
2.38203
2.34279
2.28728
2.23543
2.20884
2.2013
2.20164
2.20247
2.19284
2.17626
2.13934
2.08183
2.0302
2.00689
2.00069
1.99881
1.9925
1.98171
1.96457
1.92656
1.87804
1.85441
1.84988
1.84375
1.83431
1.8229
1.80983
1.79499
1.77568
1.7412
1.69754
1.67079
1.66574
1.66324
1.66156
1.65633
1.64934
1.64071
1.62326
1.58782
1.54972
1.53538
1.53119
1.52635
1.51952
1.51216
1.50381
1.48934
1.46268
1.44684
1.44189
1.43663
1.43044
1.42313
1.41339
1.39709
1.36835
1.34195
1.3374
1.33653
1.3381
1.33685
1.33165
1.32454
1.31507
1.29996
1.2747
1.25095
1.24502
1.24341
1.24387
1.24216
1.23571
1.22851
1.22265
1.21067
1.1915
1.33925
3.6756
5.27375
5.38193
5.37671
5.36888
5.35301
5.32285
5.28613
5.25858
5.24141
5.22506
5.20096
5.16714
5.13127
5.10613
5.08954
5.07297
5.05108
5.0132
4.94741
4.86439
4.81457
4.79691
4.7812
4.75676
4.72163
4.67139
4.59294
4.49484
4.4282
4.38747
4.3484
4.30453
4.2525
4.18456
4.10781
4.06305
5.29299
5.22704
5.16122
5.08772
5.01865
4.95361
4.88636
4.82456
4.75927
4.69774
4.63849
4.57402
4.5123
4.44778
4.38815
4.33618
4.27853
4.22125
4.16242
4.09609
4.04134
3.9864
3.93281
3.88299
3.83482
3.78511
3.72945
3.67325
3.62346
3.57579
3.53427
3.49766
3.45216
3.40101
3.34697
3.28157
3.24019
3.21531
3.18084
3.14776
3.10966
3.05322
3.00349
2.97068
2.94259
2.91367
2.88279
2.84538
2.79225
2.7314
2.68435
2.66778
2.65921
2.64579
2.62564
2.5933
2.54834
2.50544
2.47596
2.45643
2.43515
2.39655
2.34056
2.28817
2.26265
2.25553
2.25591
2.25521
2.24435
2.22651
2.18749
2.12648
2.07269
2.04967
2.04452
2.04324
2.03742
2.02722
2.01195
1.97693
1.92543
1.89445
1.88831
1.88215
1.87282
1.86146
1.84864
1.83444
1.81655
1.78431
1.73936
1.70651
1.70012
1.69786
1.69732
1.69303
1.68587
1.67663
1.65893
1.62361
1.58448
1.56662
1.5625
1.55819
1.55306
1.54678
1.5389
1.52653
1.50042
1.47357
1.46655
1.46265
1.45722
1.45024
1.44108
1.42667
1.40079
1.3712
1.36267
1.36107
1.36038
1.36071
1.35765
1.35137
1.34203
1.32753
1.3023
1.2761
1.26756
1.26609
1.26634
1.2657
1.2602
1.25315
1.24537
1.23644
1.21845
1.19335
1.19516
1.90962
4.67508
5.39736
5.37498
5.37113
5.346
5.31021
5.27518
5.25273
5.23791
5.21863
5.18947
5.15607
5.1281
5.11311
5.10137
5.0844
5.05552
5.00374
4.92354
4.84943
4.81765
4.80502
4.78914
4.76462
4.72739
4.67002
4.58027
4.4851
4.43074
4.39344
4.35572
4.31355
4.2648
4.2058
4.13791
4.08584
5.3161
5.2492
5.17606
5.10548
5.04287
4.97615
4.91349
4.8486
4.78561
4.72739
4.66263
4.59953
4.53544
4.47331
4.42197
4.36538
4.30693
4.24947
4.18337
4.12697
4.07232
4.01691
3.96799
3.91523
3.86714
3.81242
3.75312
3.69924
3.65315
3.61169
3.57415
3.53058
3.48017
3.42666
3.35966
3.30765
3.28214
3.24925
3.21535
3.18192
3.13078
3.08006
3.04282
3.01038
2.97815
2.94403
2.90456
2.85159
2.79177
2.74698
2.73165
2.72442
2.71171
2.69118
2.65733
2.60841
2.56006
2.52819
2.50848
2.48736
2.4493
2.39257
2.33962
2.31519
2.30885
2.3104
2.30896
2.29728
2.27878
2.23853
2.17503
2.11736
2.09216
2.08683
2.08651
2.08149
2.07115
2.05702
2.0272
1.9761
1.93706
1.92803
1.9214
1.91171
1.89991
1.88715
1.87353
1.85693
1.8276
1.78227
1.74367
1.73478
1.73249
1.73297
1.73003
1.72325
1.71396
1.69624
1.66
1.61789
1.59726
1.59416
1.59151
1.58633
1.58018
1.57333
1.56223
1.53747
1.50501
1.49113
1.48686
1.48249
1.47678
1.46869
1.45628
1.43412
1.40306
1.38937
1.38679
1.38475
1.38379
1.38217
1.37786
1.36975
1.35608
1.33131
1.30255
1.29014
1.28859
1.28867
1.2892
1.28467
1.27793
1.27038
1.26066
1.24336
1.22044
1.20311
1.20153
1.26747
3.0217
5.2265
5.38579
5.36031
5.33388
5.29615
5.26862
5.25248
5.23343
5.20752
5.17567
5.1462
5.12934
5.12367
5.11532
5.09645
5.0573
4.98733
4.89847
4.8452
4.82623
4.81421
4.79762
4.77282
4.73158
4.6634
4.56256
4.48136
4.44172
4.40858
4.37293
4.33271
4.28603
4.22856
4.15762
4.0959
5.33625
5.26561
5.19271
5.13041
5.0654
5.00302
4.94071
4.87566
4.8167
4.75203
4.68759
4.62482
4.55991
4.5073
4.45141
4.39166
4.33408
4.26759
4.2094
4.15726
4.10121
4.05327
4.0013
3.95094
3.89623
3.83602
3.77637
3.72298
3.68357
3.64689
3.60579
3.55903
3.50888
3.44496
3.38249
3.35124
3.31878
3.28249
3.24933
3.20157
3.15059
3.11251
3.07815
3.04649
3.01316
2.97199
2.91703
2.85414
2.80843
2.79309
2.78514
2.77182
2.75066
2.7175
2.66948
2.61964
2.58535
2.56465
2.54339
2.50571
2.44646
2.39118
2.36628
2.36015
2.36278
2.36201
2.34996
2.33148
2.29125
2.22652
2.16565
2.13789
2.13104
2.12914
2.12481
2.11463
2.10063
2.07564
2.02764
1.98199
1.9691
1.96124
1.95068
1.93873
1.92611
1.91298
1.89738
1.87058
1.82581
1.78298
1.77009
1.76763
1.76827
1.76688
1.76079
1.75193
1.7346
1.69775
1.65214
1.62722
1.62367
1.62397
1.62049
1.614
1.60671
1.59637
1.57321
1.53805
1.5186
1.51277
1.50719
1.50145
1.49463
1.48453
1.46735
1.43888
1.41769
1.41312
1.40992
1.40783
1.40589
1.40283
1.39697
1.38547
1.36274
1.33106
1.31326
1.31103
1.31048
1.312
1.30914
1.30268
1.29518
1.28584
1.26949
1.24432
1.226
1.22244
1.22059
1.22561
1.6094
4.26512
5.36687
5.36971
5.33129
5.28984
5.2649
5.24985
5.23078
5.20153
5.16927
5.14576
5.13718
5.13479
5.12655
5.10132
5.047
4.95814
4.88059
4.84838
4.8339
4.82114
4.8048
4.77889
4.73106
4.64911
4.54492
4.48596
4.45604
4.42732
4.39397
4.35513
4.30804
4.24485
4.16444
4.09723
5.35461
5.28029
5.21846
5.15544
5.09163
5.03034
4.96487
4.9063
4.84336
4.77703
4.71408
4.64735
4.59377
4.53914
4.47781
4.419
4.35157
4.28767
4.23675
4.18196
4.13358
4.08548
4.03662
3.98399
3.92219
3.86248
3.79945
3.75225
3.71711
3.67647
3.63117
3.58483
3.52893
3.46464
3.42579
3.39256
3.35514
3.32079
3.27398
3.21636
3.17575
3.14053
3.10884
3.07865
3.0436
2.9945
2.92914
2.87518
2.85734
2.84565
2.82895
2.80537
2.77148
2.72522
2.6767
2.64335
2.62394
2.60379
2.56738
2.50607
2.44602
2.41897
2.41217
2.41364
2.41347
2.40163
2.38333
2.34393
2.2797
2.21633
2.18617
2.1784
2.17499
2.16853
2.15808
2.14422
2.12189
2.08072
2.02982
2.00915
2.0011
1.99015
1.97765
1.96523
1.95288
1.93836
1.91407
1.87003
1.8236
1.80587
1.80314
1.80374
1.80344
1.79794
1.78988
1.77348
1.73682
1.68859
1.65854
1.65354
1.65404
1.65462
1.64826
1.64091
1.63093
1.6092
1.57225
1.54617
1.54028
1.53461
1.52756
1.52019
1.51147
1.49844
1.47683
1.45096
1.43969
1.43502
1.43202
1.42973
1.42681
1.42247
1.41426
1.39607
1.3629
1.33746
1.33371
1.33249
1.33369
1.33322
1.3278
1.3203
1.31112
1.29573
1.27041
1.24787
1.243
1.24258
1.24459
1.24003
1.26114
2.43751
4.98857
5.3689
5.31709
5.29023
5.26624
5.24653
5.22423
5.19553
5.16817
5.15164
5.14607
5.14291
5.13102
5.09559
5.02516
4.93328
4.88108
4.85919
4.84321
4.82739
4.80863
4.77844
4.72154
4.62694
4.53427
4.49463
4.46939
4.4439
4.41195
4.37371
4.32403
4.25164
4.16286
4.09743
5.37441
5.3107
5.24826
5.18318
5.12182
5.055
4.99425
4.93234
4.86466
4.80197
4.73409
4.67718
4.62601
4.5658
4.5071
4.44214
4.37253
4.31725
4.26045
4.20806
4.16008
4.11227
4.06698
4.00912
3.95067
3.8904
3.83151
3.79279
3.75072
3.70298
3.65457
3.60117
3.54183
3.50056
3.46756
3.43131
3.39789
3.35577
3.29294
3.24047
3.19923
3.16375
3.13316
3.10394
3.06554
3.01253
2.95481
2.9282
2.91329
2.89209
2.8625
2.82379
2.77657
2.72917
2.69771
2.68109
2.66336
2.63015
2.5698
2.50563
2.47517
2.46739
2.46662
2.46504
2.453
2.43462
2.39569
2.33263
2.26827
2.23628
2.22792
2.22358
2.21589
2.20345
2.18775
2.16641
2.1326
2.08333
2.04975
2.03961
2.02897
2.01738
2.0054
1.99334
1.97974
1.95815
1.91586
1.86636
1.84253
1.83907
1.83914
1.83997
1.83483
1.82711
1.81208
1.77645
1.72607
1.69177
1.68494
1.68417
1.68783
1.68337
1.67582
1.66631
1.64704
1.60888
1.57463
1.56668
1.56242
1.55558
1.54756
1.53911
1.52866
1.51306
1.49016
1.46886
1.46029
1.45617
1.45357
1.45075
1.44691
1.44084
1.42826
1.39785
1.36429
1.35627
1.35477
1.3549
1.35632
1.35303
1.34622
1.33699
1.3219
1.2965
1.27149
1.26406
1.26323
1.26521
1.26719
1.26093
1.2554
1.42624
3.62569
5.22194
5.31389
5.29697
5.27927
5.25395
5.22148
5.1903
5.16964
5.15846
5.15048
5.14103
5.12115
5.07621
4.99848
4.92472
4.89275
4.8742
4.85525
4.83492
4.81116
4.77321
4.70459
4.6032
4.53271
4.50299
4.48136
4.45616
4.42477
4.38628
4.3322
4.24928
4.15873
4.10198
5.39884
5.33895
5.2747
5.21352
5.14671
5.08384
5.02363
4.95539
4.89045
4.82132
4.75649
4.7061
4.64875
4.5905
4.53098
4.46392
4.40701
4.3484
4.2913
4.23901
4.18261
4.13845
4.08844
4.03119
3.97791
3.91897
3.87775
3.83538
3.78528
3.73359
3.67425
3.61022
3.5687
3.53696
3.5028
3.47218
3.43858
3.38561
3.32002
3.26496
3.22311
3.18627
3.15629
3.12513
3.08391
3.03675
3.00291
2.98383
2.96
2.92689
2.88382
2.83303
2.78245
2.75024
2.73488
2.71881
2.68852
2.63148
2.56755
2.53413
2.52562
2.52374
2.51992
2.5063
2.48665
2.44691
2.38431
2.31997
2.28709
2.27882
2.27429
2.26535
2.25183
2.23384
2.21024
2.1807
2.13944
2.09529
2.07827
2.06778
2.05685
2.04604
2.03488
2.02188
2.00219
1.96233
1.91158
1.88142
1.87631
1.87529
1.87654
1.87181
1.86416
1.85001
1.81566
1.7646
1.72658
1.71753
1.71596
1.72023
1.71865
1.71188
1.70295
1.68574
1.648
1.60693
1.59277
1.58925
1.58391
1.57624
1.56766
1.55861
1.54704
1.52984
1.50564
1.4868
1.48103
1.47788
1.47489
1.47133
1.46622
1.45691
1.43377
1.39641
1.37914
1.37708
1.37644
1.37828
1.37742
1.37247
1.36421
1.34922
1.32287
1.29563
1.28507
1.2843
1.28591
1.28874
1.28578
1.27964
1.26685
1.26511
1.91544
4.52877
5.32208
5.30459
5.28577
5.25839
5.22183
5.19195
5.1777
5.16719
5.15455
5.13639
5.10557
5.05143
4.9783
4.9269
4.90631
4.891
4.87159
4.84742
4.81554
4.76522
4.68103
4.58333
4.53469
4.51117
4.49122
4.4658
4.43442
4.39429
4.33344
4.24044
4.15777
4.11184
5.42507
5.35838
5.2959
5.23098
5.16633
5.1105
5.04653
4.98215
4.91746
4.84778
4.79035
4.72955
4.66683
4.60754
4.54329
4.49193
4.44002
4.38302
4.33322
4.27324
4.21759
4.16423
4.10396
4.05054
3.99438
3.95357
3.919
3.87209
3.82283
3.76525
3.69039
3.63903
3.60377
3.5668
3.53432
3.50544
3.46742
3.40843
3.34332
3.29348
3.25211
3.21451
3.18407
3.1466
3.10554
3.07132
3.04872
3.02442
2.99116
2.94876
2.89831
2.8454
2.80789
2.78991
2.77273
2.74294
2.68809
2.62678
2.59258
2.58438
2.5829
2.57793
2.56348
2.54179
2.49983
2.43573
2.37101
2.33698
2.32909
2.32554
2.31638
2.30151
2.28096
2.25531
2.22714
2.19358
2.15051
2.1195
2.10723
2.09712
2.08714
2.07662
2.06424
2.04586
2.00829
1.95761
1.92274
1.91552
1.91322
1.91389
1.90948
1.90173
1.88799
1.85409
1.80266
1.76195
1.75066
1.74847
1.75234
1.75369
1.74791
1.7402
1.72547
1.6893
1.6431
1.62079
1.6164
1.61181
1.60603
1.59847
1.58962
1.57975
1.56662
1.546
1.51908
1.50655
1.50294
1.50015
1.49628
1.49153
1.48371
1.4663
1.43253
1.40461
1.39987
1.3986
1.39948
1.40102
1.39815
1.39164
1.37788
1.35013
1.32018
1.30654
1.3054
1.30641
1.3105
1.30865
1.30261
1.29553
1.28254
1.2589
1.30882
2.79626
5.05157
5.30995
5.28473
5.2635
5.22799
5.19866
5.18325
5.17111
5.15481
5.1282
5.08431
5.02263
4.96258
4.92804
4.91743
4.90707
4.88931
4.86217
4.82176
4.75584
4.65581
4.57513
4.54098
4.52068
4.50011
4.4748
4.44261
4.39912
4.32808
4.22855
4.16271
4.12479
5.45433
5.38611
5.3161
5.24151
5.18251
5.12537
5.06496
5.00768
4.94553
4.88922
4.82669
4.75876
4.69229
4.61749
4.56113
4.5187
4.46698
4.42098
4.37177
4.31573
4.2571
4.19102
4.12902
4.06558
4.01529
3.98842
3.95024
3.90471
3.85714
3.7895
3.72419
3.68008
3.63729
3.59812
3.56221
3.52823
3.48319
3.42388
3.36891
3.32772
3.28655
3.25306
3.21587
3.17366
3.13393
3.10404
3.07892
3.04778
3.00894
2.96396
2.91532
2.87516
2.85252
2.83182
2.79991
2.74379
2.68191
2.64776
2.64057
2.64116
2.63655
2.62178
2.59995
2.55772
2.49079
2.4229
2.38594
2.37766
2.3751
2.36678
2.35098
2.32783
2.29977
2.27264
2.24523
2.2096
2.16931
2.14953
2.13878
2.12885
2.11881
2.1069
2.08959
2.05436
2.00399
1.96528
1.95619
1.95316
1.95275
1.94821
1.9404
1.9269
1.89327
1.84128
1.79821
1.78444
1.78172
1.78473
1.78815
1.78349
1.77713
1.7648
1.73154
1.68245
1.65124
1.64496
1.64061
1.63573
1.63044
1.62391
1.61531
1.60338
1.58492
1.55614
1.53438
1.5287
1.52586
1.52253
1.51768
1.51046
1.49534
1.46634
1.43472
1.42515
1.42213
1.42178
1.42374
1.42286
1.41819
1.40663
1.37944
1.34587
1.32877
1.32688
1.32717
1.33149
1.33171
1.32678
1.31877
1.30836
1.29
1.26039
1.25849
1.54102
3.88478
5.23132
5.28568
5.27697
5.25141
5.22483
5.20127
5.18321
5.16034
5.12316
5.06847
5.00722
4.95661
4.9308
4.92587
4.91806
4.90044
4.87151
4.82423
4.74026
4.64018
4.58283
4.55323
4.53178
4.51033
4.48489
4.45092
4.40142
4.31671
4.22063
4.17251
4.13835
5.48473
5.42136
5.34501
5.27293
5.20507
5.13667
5.07569
5.01816
4.97127
4.922
4.85959
4.7981
4.72356
4.64664
4.59428
4.54059
4.49065
4.44619
4.40044
4.35182
4.28912
4.22517
4.16132
4.09124
4.05354
4.01844
3.97336
3.93144
3.87826
3.81569
3.76563
3.71815
3.67528
3.63281
3.58628
3.54356
3.49299
3.43667
3.39516
3.35982
3.32832
3.29316
3.25179
3.21013
3.16598
3.13149
3.09867
3.06119
3.02087
2.9797
2.94529
2.92164
2.89806
2.86466
2.80682
2.73884
2.70056
2.6928
2.69394
2.69195
2.67807
2.65732
2.61792
2.55206
2.48051
2.43825
2.42749
2.42286
2.41504
2.39911
2.3732
2.34315
2.31693
2.29416
2.26787
2.2287
2.19613
2.18311
2.17252
2.16163
2.14953
2.13294
2.09981
2.04979
2.0082
1.99727
1.99407
1.99332
1.98805
1.97973
1.9665
1.93391
1.88113
1.83555
1.81973
1.81662
1.81863
1.82287
1.81887
1.813
1.80261
1.77281
1.72267
1.68393
1.67451
1.66998
1.66644
1.66225
1.65735
1.65162
1.64275
1.62482
1.59306
1.5651
1.55596
1.55239
1.54922
1.54492
1.53826
1.52492
1.49687
1.46618
1.45301
1.44842
1.44625
1.44713
1.44733
1.44401
1.43385
1.40892
1.37422
1.35199
1.34919
1.34876
1.35178
1.35428
1.3509
1.34384
1.33332
1.3151
1.28993
1.27026
1.26784
1.28396
2.13655
4.66752
5.28229
5.27541
5.26278
5.24468
5.21911
5.19301
5.16174
5.1151
5.05759
5.00647
4.96749
4.94467
4.93547
4.92534
4.90615
4.87511
4.81652
4.71996
4.64025
4.59893
4.57009
4.5464
4.52387
4.49727
4.45956
4.39916
4.2997
4.22035
4.18367
4.15138
5.50461
5.44573
5.37953
5.30827
5.23472
5.16453
5.09101
5.03608
4.99547
4.94312
4.8883
4.83098
4.75959
4.69449
4.63171
4.57177
4.51467
4.46037
4.42088
4.37429
4.31606
4.26315
4.19586
4.13793
4.09563
4.04521
3.99638
3.94293
3.88763
3.84612
3.8011
3.75597
3.71665
3.66601
3.61077
3.55599
3.4984
3.45245
3.41816
3.39435
3.36879
3.33172
3.2938
3.24964
3.19834
3.15423
3.11199
3.07122
3.03314
3.00575
2.98921
2.96737
2.93444
2.87882
2.80584
2.75849
2.74738
2.74351
2.74128
2.72887
2.70925
2.67421
2.61482
2.54344
2.49672
2.48413
2.47659
2.4652
2.44653
2.41665
2.38523
2.36091
2.34217
2.32247
2.29128
2.24999
2.22908
2.21774
2.20637
2.19359
2.17682
2.14582
2.09638
2.05161
2.03812
2.03491
2.03463
2.02908
2.01997
2.00671
1.97531
1.9225
1.87416
1.85673
1.8535
1.85524
1.85915
1.85517
1.84906
1.83906
1.81141
1.76249
1.71868
1.70479
1.70015
1.69709
1.6946
1.6903
1.68508
1.67829
1.66298
1.62966
1.59741
1.58492
1.58051
1.57692
1.57281
1.56691
1.55545
1.52853
1.49624
1.48177
1.47687
1.47313
1.47248
1.47226
1.4695
1.45982
1.43623
1.40378
1.37815
1.37243
1.37157
1.37254
1.3758
1.37417
1.36865
1.35939
1.34283
1.31517
1.29366
1.29008
1.28849
1.28981
1.38695
3.05351
5.02505
5.27307
5.25655
5.25095
5.23431
5.2058
5.15925
5.09878
5.04684
5.00799
4.98121
4.96396
4.95121
4.93519
4.91077
4.87041
4.794
4.70196
4.65083
4.61907
4.5915
4.56664
4.54304
4.51405
4.46942
4.39074
4.28448
4.22854
4.1963
4.1651
5.50914
5.45767
5.40346
5.33734
5.27256
5.20104
5.12237
5.06762
5.01445
4.95721
4.9042
4.84918
4.79443
4.73318
4.66968
4.60953
4.53683
4.48319
4.44258
4.3897
4.33988
4.28977
4.23429
4.18543
4.13004
4.07491
4.01645
3.94894
3.90892
3.87421
3.83118
3.79517
3.75458
3.70058
3.63587
3.57024
3.51569
3.47057
3.44425
3.42872
3.40223
3.36844
3.33553
3.28633
3.22903
3.17597
3.12752
3.08477
3.05491
3.04253
3.02812
3.00072
2.95225
2.88072
2.82584
2.81106
2.80157
2.79183
2.77669
2.75612
2.72357
2.67021
2.60504
2.55812
2.54506
2.53764
2.52494
2.50096
2.46104
2.42636
2.40499
2.39082
2.37601
2.3506
2.30605
2.27618
2.26376
2.25195
2.23894
2.22244
2.19311
2.14371
2.0961
2.07924
2.07565
2.07568
2.07072
2.06121
2.04772
2.01696
1.96449
1.91432
1.89476
1.89167
1.89398
1.89767
1.89331
1.8866
1.87577
1.84829
1.80069
1.75441
1.7361
1.73134
1.72832
1.72695
1.72354
1.71838
1.71173
1.69817
1.66659
1.63073
1.61558
1.61045
1.60596
1.60161
1.5962
1.5863
1.56181
1.52785
1.51055
1.50594
1.50184
1.49964
1.49808
1.49486
1.48494
1.46183
1.43165
1.40654
1.39866
1.39565
1.39501
1.39666
1.3965
1.39254
1.38493
1.37068
1.3435
1.31701
1.31125
1.31123
1.31268
1.30908
1.30955
1.67249
3.96188
5.21426
5.28698
5.26759
5.24453
5.20476
5.14234
5.08316
5.04341
5.01473
4.99531
4.98271
4.96944
4.94757
4.91536
4.85911
4.76802
4.69925
4.66832
4.64161
4.61566
4.59127
4.5669
4.53334
4.47595
4.37371
4.28004
4.24193
4.21137
4.18103
5.52492
5.47889
5.42546
5.36529
5.3057
5.23386
5.16328
5.09864
5.03356
4.97048
4.91146
4.86702
4.82166
4.76417
4.71021
4.64554
4.56827
4.51427
4.45989
4.40472
4.35562
4.31084
4.27168
4.22111
4.16452
4.10814
4.03153
3.97233
3.93819
3.89606
3.85745
3.82302
3.7832
3.72838
3.65989
3.59938
3.54594
3.50142
3.48191
3.4616
3.4284
3.39729
3.36249
3.31284
3.25397
3.19924
3.15447
3.11315
3.09356
3.08048
3.05677
3.01601
2.95147
2.89381
2.87793
2.86843
2.85338
2.83265
2.80663
2.77141
2.71714
2.65652
2.61366
2.60221
2.59728
2.5849
2.56008
2.51369
2.47136
2.45154
2.43989
2.42726
2.406
2.36067
2.32034
2.30782
2.29717
2.28458
2.26892
2.24246
2.19413
2.14256
2.12103
2.11675
2.11658
2.11267
2.1032
2.08957
2.05926
2.0073
1.95558
1.93347
1.93028
1.93344
1.93783
1.9328
1.92556
1.91368
1.8851
1.83763
1.79022
1.76918
1.76419
1.76124
1.76006
1.75706
1.75201
1.74548
1.73273
1.70219
1.66492
1.64692
1.64178
1.63671
1.6315
1.62582
1.61694
1.59497
1.56122
1.54087
1.53582
1.53155
1.52805
1.52483
1.5204
1.50914
1.48604
1.45789
1.43537
1.42733
1.42272
1.41936
1.41851
1.41834
1.41553
1.40936
1.39755
1.37252
1.34305
1.3331
1.33247
1.33397
1.33484
1.33084
1.3161
1.3324
2.2393
4.63762
5.2962
5.26729
5.23052
5.17796
5.11362
5.07079
5.04579
5.02524
5.00728
4.99341
4.97834
4.95357
4.91436
4.84139
4.7526
4.7113
4.68813
4.66444
4.64058
4.61769
4.59125
4.54808
4.46836
4.35418
4.28908
4.25809
4.22961
4.20019
5.54479
5.49955
5.44364
5.38834
5.33072
5.26627
5.19611
5.12472
5.05581
4.98163
4.92779
4.89301
4.84665
4.79648
4.74615
4.67886
4.6074
4.54061
4.47822
4.42083
4.36681
4.335
4.30061
4.24933
4.19962
4.13736
4.06
4.01145
3.96455
3.9182
3.87687
3.8387
3.80211
3.74888
3.68961
3.64203
3.58689
3.55145
3.52638
3.48989
3.45193
3.41561
3.37482
3.32797
3.27492
3.2305
3.19425
3.15971
3.14004
3.11251
3.07141
3.01066
2.9511
2.93364
2.9283
2.91784
2.89569
2.86791
2.83166
2.77342
2.70634
2.66154
2.6502
2.64764
2.63674
2.61325
2.56894
2.52331
2.50338
2.4928
2.48003
2.45905
2.41364
2.36436
2.34758
2.33922
2.3285
2.31428
2.2914
2.2458
2.19166
2.16469
2.15919
2.15773
2.15495
2.14588
2.13232
2.10282
2.05135
1.9978
1.97311
1.96941
1.97246
1.97825
1.97298
1.96516
1.95231
1.92234
1.87429
1.82603
1.80365
1.79859
1.7961
1.79517
1.79209
1.78656
1.77968
1.76719
1.73727
1.69892
1.67822
1.67354
1.66874
1.66278
1.65633
1.64745
1.62679
1.5942
1.57243
1.5671
1.56243
1.55757
1.55266
1.54661
1.53333
1.50943
1.483
1.46404
1.45743
1.45233
1.44675
1.44271
1.44034
1.43768
1.4326
1.42278
1.40184
1.37112
1.35552
1.35421
1.35476
1.35595
1.35415
1.34879
1.32982
1.30795
1.41901
3.08625
5.0734
5.27433
5.20769
5.13308
5.08825
5.0691
5.05372
5.03903
5.02408
5.0085
4.98852
4.95665
4.90396
4.81835
4.75175
4.72723
4.70698
4.68556
4.66387
4.64064
4.60687
4.54657
4.44333
4.34556
4.30359
4.27652
4.25051
4.22185
5.56963
5.50244
5.44148
5.39158
5.34596
5.29342
5.22934
5.16359
5.08692
5.00125
4.94992
4.90539
4.85821
4.81661
4.77045
4.71313
4.64387
4.57366
4.51041
4.43926
4.39042
4.36077
4.31919
4.27349
4.22769
4.16364
4.1028
4.04848
3.99625
3.94892
3.89274
3.85394
3.81789
3.76658
3.72485
3.68387
3.63917
3.60711
3.56732
3.52358
3.4785
3.42374
3.37994
3.33957
3.29679
3.26729
3.23816
3.21279
3.18283
3.13827
3.07786
3.00989
2.98216
2.97366
2.96708
2.95098
2.9269
2.89705
2.8449
2.77176
2.71598
2.70024
2.69418
2.68213
2.65808
2.61622
2.57474
2.55704
2.54855
2.53649
2.51617
2.47069
2.41217
2.38744
2.37985
2.37067
2.35778
2.33806
2.29658
2.24168
2.20946
2.20279
2.20052
2.19749
2.18895
2.17623
2.14759
2.0965
2.04134
2.01418
2.0094
2.01098
2.01766
2.01309
2.00473
1.99076
1.95929
1.91081
1.86206
1.83881
1.83385
1.8322
1.83188
1.82854
1.82274
1.81546
1.80232
1.77201
1.73314
1.70968
1.70503
1.70135
1.69529
1.68807
1.67854
1.65823
1.62609
1.6036
1.59857
1.59435
1.58828
1.58182
1.57401
1.55843
1.53323
1.50771
1.49259
1.48824
1.48369
1.4772
1.4701
1.46372
1.45934
1.45496
1.44688
1.43027
1.40092
1.37947
1.37618
1.37595
1.37692
1.37546
1.37093
1.35893
1.33345
1.30953
1.31268
1.71061
4.03945
5.17084
5.1723
5.12417
5.09734
5.08208
5.06861
5.05614
5.04399
5.02857
5.00106
4.95546
4.88305
4.7981
4.76018
4.74272
4.72414
4.70392
4.68198
4.65365
4.60741
4.52507
4.41729
4.35252
4.3216
4.29809
4.27375
4.24493
5.61158
5.53289
5.45412
5.38787
5.34262
5.30429
5.25908
5.20556
5.13457
5.05676
4.98955
4.92585
4.86632
4.81878
4.78096
4.73518
4.67403
4.61577
4.55053
4.47566
4.43119
4.38619
4.3332
4.28539
4.23594
4.18653
4.13536
4.08075
4.03459
3.981
3.92258
3.88344
3.83588
3.78856
3.75226
3.71451
3.68334
3.64687
3.603
3.55846
3.49972
3.43614
3.39638
3.35683
3.32445
3.30003
3.27777
3.25251
3.2111
3.15717
3.08858
3.03916
3.02553
3.01346
2.99809
2.97492
2.94933
2.90793
2.84205
2.78022
2.75941
2.74914
2.73216
2.70289
2.65907
2.62118
2.60698
2.60226
2.59212
2.57323
2.53087
2.46717
2.4311
2.42245
2.41404
2.40171
2.38335
2.34564
2.29167
2.25425
2.24611
2.24363
2.24096
2.23246
2.22007
2.19311
2.14271
2.08634
2.05663
2.05066
2.05025
2.05552
2.05227
2.04398
2.02893
1.99617
1.94723
1.89841
1.87437
1.86953
1.86852
1.86907
1.86587
1.86001
1.85232
1.83861
1.80734
1.76675
1.74115
1.73627
1.73397
1.72843
1.72079
1.71076
1.68999
1.65713
1.63374
1.62912
1.62631
1.61998
1.61234
1.6028
1.58473
1.55814
1.53329
1.52156
1.5194
1.51656
1.50975
1.50052
1.48973
1.48174
1.47678
1.47055
1.45724
1.43166
1.40541
1.39927
1.39776
1.39809
1.3973
1.39375
1.38272
1.35957
1.33673
1.32497
1.32064
1.34842
2.30793
4.65634
5.13473
5.12348
5.10605
5.09562
5.08264
5.06783
5.0535
5.03618
5.00298
4.9449
4.85878
4.79519
4.77414
4.75801
4.73973
4.71879
4.69342
4.65666
4.59303
4.49301
4.40802
4.36861
4.34397
4.32259
4.29891
4.26814
5.6458
5.57789
5.49891
5.42604
5.36669
5.30783
5.25642
5.21362
5.16139
5.09768
5.02974
4.95934
4.88303
4.83068
4.79439
4.74923
4.69881
4.65076
4.58334
4.51796
4.46465
4.40907
4.35501
4.29655
4.25189
4.21227
4.1607
4.11274
4.06801
4.00751
3.95909
3.91442
3.86475
3.82137
3.77599
3.74478
3.71436
3.67289
3.63085
3.58458
3.51522
3.4631
3.42446
3.38795
3.35846
3.33169
3.31089
3.2786
3.22866
3.17166
3.10904
3.08179
3.06935
3.05203
3.02568
2.99625
2.9584
2.90111
2.84121
2.8184
2.80672
2.78806
2.75652
2.7085
2.66963
2.65676
2.65314
2.64459
2.6266
2.58804
2.52471
2.47882
2.46807
2.45995
2.44784
2.43017
2.39411
2.3402
2.29911
2.2892
2.28621
2.28424
2.27631
2.26419
2.23856
2.1893
2.13271
2.10041
2.09315
2.09142
2.09345
2.09024
2.08248
2.06681
2.0331
1.98401
1.93559
1.91078
1.90577
1.9049
1.90613
1.90314
1.89725
1.88956
1.87563
1.8436
1.80148
1.77302
1.76732
1.76596
1.76168
1.75405
1.74367
1.72245
1.68869
1.66341
1.65865
1.65751
1.65239
1.64427
1.6332
1.61284
1.5844
1.55997
1.55118
1.55052
1.55013
1.54396
1.53336
1.51819
1.50573
1.49916
1.49371
1.48346
1.46203
1.43434
1.42389
1.42091
1.42005
1.41931
1.41659
1.40763
1.3852
1.36022
1.35052
1.34609
1.34081
1.34381
1.47033
3.08948
4.87946
5.14836
5.11705
5.10932
5.09726
5.08283
5.06502
5.04008
4.99518
4.92337
4.8437
4.80698
4.78969
4.77364
4.755
4.73267
4.70278
4.65365
4.5663
4.46797
4.41668
4.38949
4.36822
4.34813
4.32397
4.28865
5.66079
5.60155
5.53317
5.46301
5.39518
5.3252
5.2665
5.22735
5.18412
5.12622
5.06461
4.99122
4.90683
4.85813
4.81795
4.76734
4.7208
4.67315
4.61549
4.55148
4.48637
4.42903
4.36963
4.31504
4.28357
4.24203
4.19301
4.14946
4.09318
4.03432
3.98588
3.93595
3.89543
3.84937
3.81257
3.78604
3.74579
3.69947
3.65329
3.59042
3.52766
3.48904
3.45275
3.42502
3.39383
3.37065
3.34617
3.30111
3.24503
3.18758
3.13625
3.11943
3.10568
3.08048
3.05119
3.01726
2.96154
2.90016
2.87561
2.86248
2.84265
2.81179
2.76269
2.7206
2.70796
2.70419
2.69574
2.67766
2.64199
2.58182
2.52908
2.51499
2.50779
2.49645
2.47918
2.44424
2.38908
2.34403
2.33229
2.3288
2.32721
2.31993
2.30844
2.28438
2.23573
2.17841
2.14483
2.13677
2.13421
2.13374
2.12853
2.12021
2.10383
2.06998
2.02156
1.97412
1.94854
1.94316
1.94186
1.94286
1.93992
1.93404
1.92629
1.91232
1.88094
1.83731
1.80554
1.7988
1.79754
1.79467
1.78744
1.77708
1.75605
1.72123
1.69341
1.68803
1.68776
1.6847
1.67721
1.66539
1.64247
1.612
1.58806
1.58121
1.58157
1.58334
1.57836
1.56717
1.54873
1.53132
1.52249
1.51694
1.50895
1.4915
1.4661
1.45077
1.44588
1.44335
1.44216
1.43979
1.43233
1.41139
1.38612
1.37518
1.37012
1.36614
1.36374
1.35802
1.35825
1.71864
3.76262
5.06246
5.15051
5.14203
5.12892
5.11259
5.09039
5.04729
4.97809
4.89463
4.83959
4.81934
4.80572
4.79061
4.77172
4.74711
4.71003
4.64002
4.53719
4.46693
4.43657
4.41333
4.39218
4.37179
4.34476
4.30212
5.68633
5.62775
5.56138
5.49174
5.41695
5.33233
5.27426
5.24442
5.20576
5.15628
5.103
5.03077
4.9481
4.883
4.82265
4.77164
4.73158
4.69486
4.64849
4.58613
4.52173
4.45533
4.3796
4.33783
4.30851
4.26672
4.22863
4.18548
4.13135
4.073
4.01153
3.9596
3.91444
3.86825
3.8452
3.81715
3.7741
3.73101
3.67624
3.6053
3.55448
3.51156
3.47729
3.44879
3.42339
3.40578
3.3736
3.32294
3.27113
3.21177
3.17281
3.15586
3.13241
3.10396
3.07448
3.02424
2.96143
2.93534
2.92302
2.90114
2.87086
2.82306
2.77443
2.75889
2.75348
2.74497
2.72664
2.6927
2.63717
2.58248
2.56415
2.55727
2.54667
2.53009
2.49627
2.43945
2.38984
2.37543
2.37154
2.37047
2.36365
2.35237
2.33
2.28323
2.22428
2.18806
2.1802
2.17834
2.17663
2.16917
2.15901
2.14046
2.10587
2.05955
2.01415
1.9882
1.9822
1.98003
1.9794
1.97605
1.96994
1.9619
1.94843
1.91836
1.87417
1.83942
1.831
1.82933
1.82755
1.82088
1.81079
1.78994
1.75422
1.72415
1.71756
1.71729
1.71624
1.70998
1.69874
1.67415
1.64062
1.61718
1.61176
1.61264
1.61541
1.61141
1.60025
1.57968
1.55794
1.54679
1.54063
1.53374
1.51983
1.49747
1.48064
1.47307
1.46842
1.46595
1.46323
1.45677
1.43753
1.41209
1.40088
1.39612
1.39019
1.38634
1.38397
1.37747
1.35684
1.37076
2.13768
4.37373
5.14863
5.17433
5.1582
5.12912
5.0901
5.03086
4.95195
4.87736
4.84537
4.83298
4.82196
4.80732
4.78679
4.75721
4.70507
4.61152
4.523
4.48682
4.46295
4.43963
4.41693
4.39362
4.36026
4.30609
5.72373
5.66555
5.60054
5.53238
5.45228
5.35484
5.28445
5.24058
5.20583
5.17217
5.12895
5.07013
4.99877
4.92471
4.85153
4.78134
4.73303
4.70404
4.66889
4.61829
4.56543
4.49111
4.41689
4.37168
4.32398
4.28046
4.24622
4.20934
4.16676
4.11083
4.05188
3.99819
3.93334
3.88936
3.86606
3.83319
3.79682
3.75778
3.70425
3.64551