/*--------------------------------*- C++ -*----------------------------------*\
  =========                 |
  \\      /  F ield         | OpenFOAM: The Open Source CFD Toolbox
   \\    /   O peration     | Website:  https://openfoam.org
    \\  /    A nd           | Version:  7
     \\/     M anipulation  |
\*---------------------------------------------------------------------------*/
FoamFile
{
    version     2.0;
    format      ascii;
    class       volScalarField;
    location    "1";
    object      rho;
}
// * * * * * * * * * * * * * * * * * * * * * * * * * * * * * * * * * * * * * //

dimensions      [1 -3 0 0 0 0 0];

internalField   nonuniform List<scalar> 
16512
(
2.78932
2.7607
2.73261
2.70292
2.67316
2.64083
2.60969
2.58292
2.55934
2.54088
2.51897
2.49151
2.46234
2.42747
2.39436
2.37823
2.36133
2.34232
2.32215
2.29498
2.25842
2.23158
2.22111
2.20975
2.19613
2.17994
2.1559
2.12058
2.08222
2.05356
2.0439
2.03955
2.03291
2.02241
2.00722
1.98532
1.96107
1.94169
1.92793
1.91376
1.89072
1.85951
1.82947
1.81152
1.80639
1.80652
1.80792
1.80285
1.79369
1.77235
1.738
1.70687
1.693
1.68933
1.6872
1.68193
1.67451
1.66218
1.63668
1.61032
1.6018
1.59814
1.59255
1.58573
1.57761
1.56794
1.55659
1.54138
1.51673
1.49145
1.48257
1.47989
1.47711
1.47322
1.46943
1.46546
1.45991
1.44641
1.42187
1.40279
1.39744
1.393
1.3885
1.38389
1.37808
1.36882
1.3548
1.34484
1.34022
1.33658
1.33289
1.32878
1.32369
1.31619
1.30101
1.27969
1.26924
1.26848
1.26928
1.2682
1.26406
1.25907
1.25388
1.24746
1.23528
1.21701
1.2052
1.20325
1.2026
1.20302
1.20065
1.19559
1.19456
1.40737
2.71529
3.18011
3.16736
3.14866
3.13459
3.1215
3.10764
3.09396
3.07953
3.06463
3.05053
3.03565
3.01775
2.99488
2.96842
2.94391
2.92499
2.90934
2.89368
2.87421
2.84485
2.80321
2.76398
2.74174
2.72484
2.70696
2.68649
2.66195
2.62987
2.58825
2.55265
2.52838
2.5048
2.47825
2.44638
2.40586
2.35438
2.30943
3.65281
3.61829
3.58271
3.54556
3.50737
3.46569
3.42708
3.38898
3.35167
3.31603
3.2793
3.24585
3.21184
3.1758
3.14089
3.10437
3.07165
3.04014
3.00635
2.97385
2.93845
2.90358
2.87335
2.84245
2.81343
2.78574
2.75584
2.72593
2.69394
2.66181
2.63385
2.60782
2.58807
2.56681
2.53969
2.51094
2.47803
2.4428
2.42421
2.40688
2.38676
2.36648
2.34031
2.30559
2.27798
2.26507
2.25266
2.23831
2.22163
2.19758
2.16231
2.12351
2.09389
2.08339
2.07806
2.07119
2.06066
2.04543
2.0232
1.99891
1.97951
1.96537
1.95057
1.92641
1.89344
1.86255
1.84561
1.8407
1.84084
1.84201
1.83645
1.8268
1.80502
1.77044
1.73816
1.72375
1.71988
1.71809
1.7133
1.70607
1.69423
1.66888
1.64023
1.62875
1.62556
1.6205
1.61366
1.60566
1.59636
1.58553
1.57124
1.54729
1.51963
1.50602
1.50297
1.50108
1.49857
1.49463
1.49043
1.48523
1.47315
1.44854
1.42559
1.41924
1.416
1.41116
1.40623
1.40123
1.39427
1.38134
1.36668
1.36049
1.35676
1.35296
1.34882
1.34394
1.33703
1.32405
1.30289
1.28781
1.28603
1.28619
1.28684
1.28385
1.27893
1.2735
1.26682
1.25541
1.2373
1.22287
1.2202
1.2193
1.22007
1.21813
1.21432
1.21093
1.20225
1.21309
1.83962
3.08252
3.18664
3.16803
3.15611
3.14139
3.12361
3.10387
3.08421
3.0685
3.05646
3.04427
3.02866
3.00743
2.982
2.95873
2.94046
2.92448
2.90804
2.88701
2.85478
2.81143
2.77612
2.75676
2.74051
2.72294
2.70243
2.67697
2.64239
2.59788
2.56144
2.53685
2.51311
2.48674
2.45566
2.41596
2.36944
2.33924
3.67901
3.64325
3.60524
3.56677
3.52507
3.48661
3.44904
3.41112
3.37522
3.33791
3.30385
3.26979
3.23322
3.198
3.16141
3.12827
3.09736
3.06352
3.03071
2.99569
2.95881
2.92804
2.89638
2.86603
2.83833
2.80943
2.77901
2.74746
2.71509
2.68622
2.65809
2.6358
2.61459
2.5878
2.55884
2.52741
2.49111
2.47026
2.45356
2.43275
2.41262
2.38743
2.35314
2.3249
2.30855
2.29429
2.27913
2.26229
2.23892
2.20483
2.16675
2.13715
2.1261
2.11975
2.11144
2.09972
2.0825
2.05869
2.03434
2.01584
2.00244
1.98806
1.9636
1.92946
1.89774
1.88145
1.8766
1.87653
1.87674
1.87045
1.85993
1.83689
1.80143
1.76937
1.75491
1.75095
1.74953
1.74531
1.73829
1.72719
1.70272
1.67164
1.65627
1.65289
1.64841
1.64169
1.63365
1.62453
1.61431
1.60116
1.57799
1.54883
1.53096
1.52739
1.52551
1.52415
1.52052
1.51595
1.51039
1.49888
1.47537
1.45031
1.44105
1.43829
1.43502
1.43038
1.42529
1.4194
1.40928
1.39094
1.38009
1.37671
1.37317
1.36909
1.3643
1.35784
1.34674
1.32691
1.3084
1.30461
1.30368
1.30439
1.30321
1.29901
1.29355
1.28667
1.27585
1.25788
1.24132
1.23746
1.23651
1.23703
1.2362
1.23244
1.22814
1.22447
1.21624
1.20258
1.29711
2.47889
3.16659
3.18511
3.17206
3.15673
3.13699
3.11288
3.08984
3.07362
3.06293
3.05245
3.03779
3.0173
2.99385
2.97368
2.95761
2.94239
2.92508
2.90097
2.86441
2.82079
2.79113
2.77375
2.75743
2.73952
2.71837
2.69073
2.65235
2.60629
2.57213
2.5486
2.52537
2.49948
2.46976
2.4337
2.39464
2.36886
3.704
3.66551
3.62715
3.58507
3.5455
3.50826
3.47005
3.43456
3.39721
3.36185
3.32771
3.29093
3.25552
3.21858
3.18419
3.1538
3.12043
3.08731
3.05332
3.01537
2.98338
2.95146
2.92026
2.89096
2.86244
2.83306
2.80049
2.76772
2.73839
2.71022
2.68546
2.6636
2.63707
2.60746
2.5763
2.53884
2.51452
2.49934
2.47888
2.45912
2.43638
2.40314
2.37366
2.35374
2.33659
2.31902
2.30025
2.27743
2.24554
2.20932
2.18096
2.17042
2.16432
2.15537
2.14256
2.12265
2.09521
2.06895
2.05058
2.03797
2.02428
2.00012
1.96575
1.9338
1.91821
1.91356
1.91351
1.91275
1.90571
1.89445
1.87018
1.8327
1.79932
1.78502
1.78172
1.78068
1.7768
1.77021
1.76039
1.73796
1.70509
1.68518
1.68083
1.67636
1.66972
1.66171
1.65274
1.64288
1.63061
1.60892
1.57892
1.55689
1.55236
1.55066
1.55007
1.54696
1.54215
1.53619
1.52455
1.50122
1.47552
1.46398
1.46131
1.45843
1.45497
1.45069
1.44528
1.43678
1.41887
1.40047
1.39563
1.39298
1.38936
1.38477
1.3787
1.36899
1.35114
1.33067
1.3244
1.32277
1.32186
1.3216
1.31898
1.31403
1.30717
1.29689
1.27899
1.26059
1.25487
1.254
1.25432
1.25415
1.25094
1.24677
1.24188
1.23593
1.22336
1.20529
1.20649
1.62557
2.9422
3.211
3.1894
3.17595
3.15262
3.12483
3.10035
3.08479
3.07428
3.06236
3.04557
3.02563
3.00593
2.99037
2.97695
2.96221
2.94255
2.91264
2.8706
2.83086
2.80874
2.79261
2.77561
2.75681
2.73415
2.70306
2.66003
2.61518
2.58648
2.56486
2.54244
2.51739
2.48916
2.45677
2.42135
2.39245
3.72643
3.68731
3.64509
3.6044
3.56804
3.52988
3.49381
3.45659
3.42036
3.3866
3.34949
3.31314
3.27619
3.24025
3.20996
3.17696
3.14313
3.10979
3.07197
3.0392
3.00747
2.9754
2.94662
2.91567
2.88703
2.85479
2.82014
2.78843
2.76091
2.73595
2.71334
2.68769
2.65836
2.62741
2.58903
2.55878
2.54327
2.52371
2.50355
2.48354
2.45331
2.42326
2.40084
2.38124
2.3618
2.34127
2.31753
2.28591
2.25031
2.22329
2.21345
2.20812
2.19956
2.18643
2.1655
2.13563
2.10618
2.08642
2.07366
2.06
2.03616
2.00144
1.96918
1.95422
1.95005
1.95065
1.9494
1.94183
1.93018
1.90523
1.86636
1.83068
1.81501
1.81161
1.81116
1.80777
1.80111
1.79205
1.77303
1.74053
1.71564
1.70953
1.7048
1.69798
1.68973
1.68081
1.67133
1.6599
1.64011
1.60993
1.58409
1.57776
1.57596
1.57603
1.57379
1.56905
1.56299
1.55138
1.52755
1.49993
1.48655
1.48459
1.48282
1.47935
1.47519
1.47052
1.46297
1.44615
1.42411
1.41461
1.41165
1.4087
1.40492
1.39956
1.39123
1.37607
1.3546
1.34497
1.34284
1.34087
1.33966
1.33801
1.3344
1.3283
1.31858
1.30115
1.28093
1.27243
1.2715
1.27165
1.27222
1.26953
1.26552
1.26084
1.25443
1.24241
1.22626
1.21408
1.21256
1.25632
2.18967
3.16897
3.20685
3.18921
3.16685
3.13729
3.11371
3.0989
3.08567
3.07025
3.05209
3.03407
3.01938
3.0082
2.99676
2.9818
2.95813
2.92079
2.87589
2.84537
2.82843
2.81238
2.79466
2.77486
2.74964
2.71328
2.66548
2.62617
2.60404
2.58463
2.56336
2.53938
2.51217
2.48041
2.44361
2.41078
3.74741
3.70629
3.66409
3.62753
3.58993
3.55381
3.51777
3.48039
3.44621
3.40912
3.37201
3.33558
3.29798
3.26676
3.23388
3.19911
3.16552
3.1273
3.09355
3.0631
3.03073
3.00256
2.97212
2.94232
2.91
2.87471
2.83974
2.80813
2.78415
2.76179
2.73716
2.70956
2.68029
2.64349
2.60741
2.58865
2.56923
2.54771
2.52788
2.4996
2.46937
2.4465
2.42586
2.40675
2.3867
2.36218
2.32965
2.29246
2.26502
2.2553
2.24959
2.2407
2.22718
2.2065
2.177
2.14665
2.1254
2.11196
2.09813
2.0745
2.0383
2.00468
1.98946
1.98542
1.98658
1.98568
1.9778
1.96612
1.94124
1.90176
1.86427
1.84709
1.84274
1.84125
1.83824
1.83168
1.82275
1.80686
1.77643
1.74747
1.73901
1.73355
1.72623
1.71795
1.70916
1.70002
1.68928
1.6712
1.64147
1.61293
1.60389
1.60186
1.60195
1.60067
1.59621
1.59029
1.57895
1.55484
1.525
1.50874
1.50651
1.50669
1.50435
1.49997
1.49503
1.48802
1.47234
1.44863
1.4356
1.4316
1.42778
1.4239
1.41933
1.41256
1.40091
1.38134
1.36656
1.36313
1.36053
1.35848
1.35657
1.35384
1.34923
1.34092
1.325
1.30283
1.29047
1.28906
1.28877
1.28998
1.28827
1.28434
1.27969
1.27357
1.26231
1.24467
1.23184
1.22934
1.22795
1.23156
1.46832
2.76804
3.22406
3.20959
3.18207
3.15133
3.12819
3.11227
3.09778
3.08019
3.06152
3.04623
3.03547
3.02638
3.01549
2.9982
2.9678
2.92337
2.88342
2.86251
2.84724
2.83133
2.8136
2.79266
2.76368
2.72073
2.67102
2.64054
2.62284
2.60547
2.58548
2.56244
2.53528
2.50128
2.46047
2.4253
3.76744
3.72447
3.68776
3.65081
3.61368
3.57793
3.54019
3.50612
3.4699
3.43188
3.3954
3.35685
3.32496
3.29258
3.25675
3.22225
3.18331
3.14631
3.11627
3.0844
3.05604
3.02764
2.99875
2.9676
2.93147
2.89637
2.85951
2.83101
2.80929
2.78464
2.75764
2.73034
2.69779
2.66062
2.63749
2.61745
2.59513
2.57451
2.54681
2.51289
2.48858
2.4675
2.4484
2.43014
2.40915
2.38009
2.34168
2.3098
2.2987
2.29091
2.28014
2.26525
2.24408
2.21564
2.18605
2.16523
2.15244
2.13917
2.1162
2.07867
2.04222
2.02573
2.02124
2.02168
2.02107
2.01322
2.00158
1.9772
1.93817
1.89932
1.88071
1.8758
1.87334
1.86896
1.86217
1.85332
1.83922
1.81323
1.78105
1.76777
1.76223
1.75474
1.74617
1.73759
1.729
1.71899
1.70259
1.67348
1.64277
1.63051
1.6282
1.6282
1.62755
1.62334
1.61775
1.60694
1.58305
1.55163
1.53192
1.52877
1.52903
1.52935
1.52502
1.52004
1.51332
1.49864
1.4738
1.45649
1.45261
1.44878
1.44399
1.43898
1.43305
1.42419
1.40944
1.39158
1.38352
1.38002
1.37744
1.37529
1.37268
1.36909
1.36295
1.35011
1.32706
1.30938
1.30689
1.30614
1.30707
1.3069
1.30354
1.29884
1.29285
1.28226
1.26457
1.2489
1.24552
1.24521
1.24663
1.24324
1.25757
1.91467
3.10084
3.22668
3.19368
3.16838
3.1447
3.12566
3.10852
3.09037
3.0735
3.06121
3.05245
3.04392
3.03201
3.01026
2.97282
2.9272
2.89799
2.88151
2.86597
2.84959
2.8312
2.80826
2.7745
2.72563
2.67983
2.65706
2.6411
2.62498
2.60585
2.58334
2.5555
2.51799
2.47364
2.43915
3.788
3.75033
3.71352
3.67547
3.63937
3.60066
3.56525
3.52944
3.49074
3.45448
3.41542
3.38188
3.35131
3.31598
3.28141
3.24359
3.20333
3.17065
3.13746
3.1067
3.07825
3.04989
3.02275
2.98882
2.95449
2.91909
2.88421
2.86042
2.83485
2.80636
2.77779
2.74653
2.71193
2.6871
2.66697
2.64509
2.62475
2.59956
2.56266
2.53159
2.50718
2.48601
2.46756
2.44989
2.42696
2.39573
2.36189
2.34568
2.33609
2.32285
2.30463
2.28081
2.25199
2.22301
2.20318
2.19201
2.18006
2.15888
2.12183
2.08295
2.06428
2.05903
2.05807
2.05653
2.04854
2.03683
2.01271
1.97446
1.93513
1.9154
1.91014
1.9071
1.90194
1.89387
1.88382
1.87034
1.84908
1.81813
1.7968
1.78998
1.78275
1.77484
1.76663
1.75833
1.74899
1.73436
1.70647
1.67405
1.65784
1.65495
1.65458
1.65456
1.65052
1.64494
1.63485
1.61165
1.57901
1.55653
1.55214
1.55155
1.55379
1.5507
1.5455
1.53907
1.5261
1.50055
1.47785
1.47276
1.46995
1.46539
1.45997
1.45418
1.44697
1.43624
1.42051
1.40573
1.39954
1.39634
1.39404
1.39155
1.38831
1.38357
1.3745
1.35336
1.33019
1.32472
1.32376
1.3239
1.32502
1.32295
1.31864
1.31263
1.30223
1.28449
1.26715
1.26205
1.26144
1.26284
1.26425
1.25976
1.2561
1.36536
2.49236
3.19249
3.20335
3.18529
3.1658
3.144
3.12136
3.10133
3.08716
3.07736
3.06843
3.05816
3.04321
3.01681
2.97608
2.93721
2.91649
2.90083
2.88482
2.86763
2.84805
2.82224
2.7829
2.73089
2.69325
2.67418
2.65878
2.64248
2.62359
2.60116
2.57193
2.53047
2.48541
2.45469
3.81094
3.77537
3.73765
3.70144
3.66235
3.62552
3.59029
3.55113
3.51366
3.47404
3.43647
3.40635
3.37262
3.33837
3.3033
3.26419
3.23042
3.19611
3.16265
3.13174
3.09866
3.07202
3.04228
3.00874
2.97718
2.94247
2.91725
2.8915
2.86162
2.83106
2.7965
2.75918
2.73384
2.71433
2.69337
2.67422
2.65344
2.62179
2.58326
2.55099
2.52616
2.50411
2.48599
2.46724
2.44286
2.41512
2.39481
2.38285
2.3682
2.3481
2.32198
2.29123
2.2604
2.24011
2.22967
2.21865
2.19912
2.16403
2.12537
2.10477
2.0989
2.09707
2.09402
2.08513
2.07269
2.04806
2.01012
1.97084
1.9505
1.94526
1.94207
1.93615
1.92746
1.916
1.90107
1.88248
1.85663
1.82887
1.81778
1.8107
1.80326
1.79588
1.78826
1.77942
1.76613
1.73985
1.70682
1.68675
1.68266
1.68155
1.68171
1.67793
1.67225
1.66254
1.64007
1.60714
1.58227
1.57642
1.57526
1.57784
1.5766
1.57182
1.56568
1.55406
1.52887
1.50174
1.49262
1.49036
1.48688
1.4818
1.47601
1.46974
1.46165
1.4497
1.43305
1.41994
1.41562
1.41306
1.41054
1.40755
1.40346
1.39657
1.38034
1.35462
1.3428
1.34143
1.34105
1.34241
1.34194
1.33879
1.33342
1.32311
1.30469
1.28578
1.27856
1.27799
1.27911
1.28111
1.279
1.27468
1.26563
1.26445
1.64803
2.91473
3.22973
3.20661
3.18526
3.16141
3.13574
3.11567
3.10437
3.09534
3.08525
3.07214
3.05265
3.02166
2.98199
2.95153
2.93435
2.91985
2.90459
2.88706
2.86545
2.83512
2.78949
2.73866
2.70957
2.69171
2.6759
2.65885
2.63973
2.61661
2.58492
2.5397
2.49813
2.47241
3.83495
3.79599
3.75907
3.72077
3.68274
3.64942
3.61209
3.57464
3.53714
3.49709
3.46328
3.42786
3.39138
3.35657
3.31902
3.28809
3.25705
3.22343
3.19369
3.1588
3.1259
3.09426
3.05899
3.02737
2.9943
2.96944
2.94802
2.91973
2.89035
2.8566
2.81317
2.78206
2.76046
2.73787
2.71768
2.69936
2.67571
2.64047
2.60241
2.57302
2.54825
2.52568
2.50727
2.48506
2.46089
2.44052
2.42664
2.41175
2.39155
2.36583
2.33537
2.30333
2.2801
2.26805
2.25633
2.23708
2.20332
2.16627
2.1451
2.13932
2.1376
2.1337
2.1242
2.11056
2.08462
2.04579
2.00631
1.98517
1.98007
1.97737
1.97124
1.96177
1.94883
1.93266
1.9149
1.89382
1.86685
1.84719
1.83899
1.83213
1.82532
1.81818
1.80989
1.7976
1.77287
1.73998
1.71713
1.71181
1.70975
1.70948
1.70588
1.70009
1.69051
1.66819
1.63505
1.60848
1.60117
1.59957
1.60184
1.60246
1.59826
1.59282
1.58276
1.55865
1.52816
1.51369
1.51093
1.50797
1.50423
1.49924
1.49324
1.48634
1.47709
1.46276
1.44425
1.43538
1.43253
1.43023
1.42709
1.42331
1.41745
1.4051
1.38178
1.36268
1.35946
1.35866
1.35931
1.36049
1.35866
1.35446
1.34502
1.32563
1.30478
1.29542
1.29461
1.29529
1.29813
1.29681
1.29252
1.28759
1.27847
1.26191
1.29462
2.10617
3.1468
3.22415
3.20232
3.18019
3.15347
3.13297
3.12126
3.1121
3.10118
3.08506
3.05993
3.02513
2.9896
2.96478
2.95017
2.93805
2.92453
2.90713
2.88321
2.84744
2.79625
2.75211
2.72869
2.71043
2.69304
2.67511
2.65519
2.6304
2.59464
2.54706
2.51302
2.49128
3.86063
3.82085
3.78007
3.73685
3.70148
3.66733
3.63172
3.59768
3.56111
3.52774
3.4914
3.4523
3.41386
3.37114
3.33742
3.31121
3.28039
3.25268
3.2231
3.18983
3.15533
3.11707
3.08078
3.04387
3.01385
2.99643
2.97298
2.94578
2.91737
2.87783
2.83915
2.8124
2.7864
2.76224
2.73974
2.71821
2.69063
2.65559
2.62313
2.5983
2.57356
2.5533
2.53109
2.5062
2.48283
2.46489
2.44953
2.43045
2.40686
2.37975
2.35035
2.32572
2.3109
2.29713
2.27671
2.2422
2.20475
2.18352
2.1784
2.17788
2.17411
2.16414
2.15028
2.12423
2.08372
2.04239
2.01945
2.01405
2.01186
2.00612
1.99602
1.98149
1.9639
1.94678
1.92954
1.90723
1.88192
1.86904
1.86181
1.85509
1.8483
1.84037
1.82895
1.80595
1.77335
1.74815
1.74184
1.73929
1.73835
1.73461
1.72878
1.7193
1.69702
1.66348
1.6354
1.62645
1.6245
1.62618
1.62802
1.62455
1.61986
1.61128
1.58909
1.55678
1.53635
1.53243
1.52963
1.52651
1.52309
1.51875
1.51286
1.50454
1.49163
1.47179
1.45673
1.45247
1.45017
1.44748
1.4437
1.4383
1.42751
1.40743
1.3858
1.37929
1.3772
1.377
1.37845
1.37795
1.37497
1.36706
1.34811
1.32474
1.31289
1.31156
1.31173
1.31468
1.3148
1.31127
1.30564
1.29833
1.28539
1.26447
1.26336
1.4415
2.6345
3.22314
3.21316
3.19768
3.17799
3.1596
3.14455
3.13315
3.11965
3.09937
3.06945
3.03367
3.00111
2.97775
2.96475
2.95408
2.94164
2.92442
2.89893
2.85738
2.80673
2.77296
2.75066
2.73045
2.71127
2.6922
2.67089
2.64303
2.60155
2.55567
2.52978
2.51003
3.88693
3.8496
3.80549
3.76332
3.72356
3.68356
3.64728
3.6129
3.58416
3.55427
3.51777
3.48178
3.43919
3.3948
3.36336
3.33154
3.30179
3.2748
3.24703
3.21759
3.18074
3.14333
3.10629
3.06573
3.04236
3.02067
2.99375
2.96865
2.93708
2.90012
2.86995
2.84124
2.81489
2.78871
2.76012
2.73367
2.70312
2.66953
2.6442
2.62242
2.60302
2.58182
2.55735
2.53278
2.50674
2.48599
2.466
2.44335
2.41907
2.39411
2.37287
2.3575
2.34209
2.32097
2.28556
2.2445
2.2207
2.21524
2.21505
2.21289
2.20319
2.1897
2.16523
2.12534
2.08192
2.05581
2.04889
2.04538
2.03992
2.02966
2.01341
1.99457
1.97802
1.96358
1.94697
1.92245
1.90178
1.89313
1.88604
1.87876
1.87075
1.85987
1.83838
1.80625
1.77937
1.77201
1.76941
1.76832
1.76412
1.75798
1.74865
1.72696
1.69285
1.66316
1.65285
1.65063
1.65164
1.65391
1.65084
1.64635
1.63891
1.61892
1.58605
1.56062
1.55463
1.55169
1.54943
1.54677
1.54356
1.53967
1.53354
1.52109
1.49925
1.48004
1.47346
1.47068
1.46814
1.4648
1.45984
1.45032
1.43087
1.40989
1.40098
1.39773
1.39621
1.39686
1.39709
1.39502
1.38809
1.37072
1.34664
1.33125
1.32919
1.32882
1.33084
1.33251
1.33006
1.32506
1.31769
1.30478
1.28702
1.27346
1.27164
1.28278
1.78036
3.01252
3.2328
3.21311
3.19853
3.18453
3.16874
3.15332
3.13632
3.1123
3.08033
3.04846
3.0191
2.99526
2.98021
2.96896
2.95644
2.93889
2.91014
2.86461
2.82322
2.7973
2.77455
2.75233
2.73146
2.71087
2.68717
2.65393
2.60617
2.56745
2.54694
2.52807
3.90787
3.87261
3.83346
3.79182
3.74914
3.7082
3.6657
3.63243
3.60675
3.57507
3.54232
3.50815
3.46655
3.42838
3.39175
3.35666
3.32311
3.2909
3.26633
3.23795
3.20363
3.17218
3.13295
3.09884
3.07329
3.04338
3.01441
2.9829
2.95028
2.9249
2.89748
2.86975
2.84516
2.81437
2.78088
2.74771
2.71322
2.68524
2.66378
2.64832
2.63208
2.60975
2.58721
2.56116
2.53091
2.50447
2.4791
2.4546
2.43152
2.41437
2.40322
2.38887
2.36804
2.33402
2.29019
2.26131
2.25375
2.25042
2.24792
2.2392
2.22627
2.20411
2.16795
2.12476
2.096
2.08789
2.0825
2.07481
2.06286
2.04417
2.02455
2.00925
1.99724
1.98459
1.96484
1.93895
1.92547
1.91796
1.91044
1.90203
1.89109
1.87106
1.83944
1.81074
1.80189
1.79937
1.79867
1.79437
1.78774
1.77842
1.75746
1.72331
1.69187
1.68048
1.67818
1.67897
1.68097
1.67785
1.67313
1.66582
1.64713
1.61514
1.5864
1.57743
1.57436
1.57235
1.57078
1.56801
1.56452
1.55985
1.54923
1.52638
1.5044
1.49562
1.49226
1.48947
1.4863
1.48191
1.47373
1.45509
1.43305
1.42326
1.41984
1.41715
1.41667
1.41656
1.41482
1.40824
1.39192
1.36935
1.35169
1.34769
1.34685
1.34743
1.34955
1.34833
1.34436
1.33788
1.32619
1.3066
1.29169
1.28937
1.28826
1.28906
1.35284
2.25869
3.15478
3.22693
3.21285
3.20379
3.19162
3.17491
3.15134
3.12099
3.09087
3.06401
3.03803
3.01559
2.99907
2.98573
2.97087
2.94972
2.91466
2.87163
2.84341
2.82239
2.79989
2.77665
2.75459
2.7323
2.7047
2.66296
2.61204
2.58304
2.5645
2.54594
3.92038
3.88858
3.85557
3.8169
3.7791
3.7379
3.6926
3.65923
3.62685
3.59252
3.56033
3.52708
3.49407
3.4578
3.42059
3.38535
3.34369
3.31151
3.2863
3.25473
3.22494
3.19485
3.16201
3.13278
3.10005
3.06761
3.03353
2.99442
2.9695
2.9477
2.92131
2.89853
2.87305
2.83998
2.80114
2.76214
2.7294
2.7021
2.68507
2.67441
2.65767
2.63708
2.61716
2.58798
2.55401
2.52239
2.4935
2.46788
2.44939
2.44075
2.43081
2.4132
2.38323
2.34033
2.30718
2.29754
2.29076
2.28373
2.27349
2.26004
2.23929
2.20664
2.1671
2.1381
2.12954
2.12412
2.11553
2.1003
2.07556
2.05409
2.04065
2.0314
2.0217
2.00547
1.97753
1.95858
1.95042
1.94268
1.93419
1.92347
1.90452
1.87299
1.84268
1.83181
1.82911
1.82869
1.82488
1.81805
1.80864
1.78812
1.75423
1.72166
1.70886
1.70667
1.70777
1.70961
1.70619
1.70102
1.69309
1.6744
1.64324
1.61294
1.60101
1.59786
1.59578
1.59486
1.59263
1.58924
1.58474
1.57536
1.55372
1.52938
1.51891
1.51509
1.51169
1.5084
1.50439
1.49732
1.48037
1.45725
1.44556
1.44236
1.43942
1.43779
1.43669
1.43454
1.42778
1.41187
1.39105
1.37363
1.36828
1.36596
1.36527
1.36625
1.36603
1.36311
1.35774
1.34773
1.3285
1.30999
1.3062
1.30619
1.30723
1.3047
1.30493
1.53013
2.69051
3.22752
3.2365
3.22547
3.21131
3.18982
3.15954
3.12903
3.10447
3.08109
3.0571
3.03648
3.02009
3.00441
2.98555
2.95799
2.91711
2.88392
2.86554
2.84716
2.82554
2.80272
2.78037
2.75592
2.72168
2.66957
2.62324
2.60125
2.58294
2.56444
3.93822
3.90921
3.87688
3.84167
3.80697
3.76576
3.72446
3.68587
3.6471
3.60959
3.57426
3.54637
3.51793
3.48341
3.45115
3.41334
3.36878
3.33645
3.30405
3.27132
3.24177
3.21461
3.19056
3.16023
3.1268
3.09386
3.05014
3.01445
2.99273
2.96674
2.94262
2.9206
2.89537
2.86177
2.82094
2.78471
2.75263
2.7256
2.71266
2.69936
2.6789
2.65998
2.63882
2.60914
2.57419
2.54156
2.51468
2.48987
2.47699
2.46777
2.45234
2.42686
2.38804
2.35331
2.34291
2.33612
2.32601
2.31257
2.29601
2.2739
2.24085
2.20394
2.17706
2.16925
2.16519
2.15663
2.14085
2.11219
2.08617
2.07371
2.06596
2.0575
2.04373
2.01527
1.99009
1.98187
1.97486
1.96664
1.95648
1.93939
1.90851
1.87577
1.86203
1.85891
1.8584
1.85538
1.84867
1.83928
1.81916
1.78563
1.75216
1.73771
1.73548
1.73711
1.73936
1.7355
1.72994
1.72128
1.70183
1.67066
1.63959
1.62585
1.62258
1.62047
1.61956
1.61752
1.61417
1.60979
1.60103
1.5802
1.55499
1.54267
1.53886
1.53509
1.53124
1.5271
1.52076
1.50555
1.4826
1.46887
1.46539
1.46233
1.45981
1.45752
1.45446
1.44672
1.43085
1.41156
1.39603
1.39051
1.38714
1.38457
1.38373
1.38344
1.38131
1.37692
1.36863
1.35098
1.33032
1.32356
1.32311
1.32415
1.32474
1.32188
1.31121
1.32206
1.84705
3.00434
3.25942
3.2427
3.22103
3.193
3.16155
3.13794
3.12021
3.09928
3.07546
3.05456
3.0378
3.02068
2.99821
2.96344
2.92309
2.90185
2.88754
2.87069
2.85064
2.82942
2.80699
2.77846
2.73369
2.67636
2.64096
2.62125
2.60265
2.58413
3.95835
3.93018
3.89691
3.86438
3.83066
3.79292
3.7517
3.70979
3.66922
3.62602
3.59292
3.57001
3.54097
3.51025
3.47962
3.44013
3.3984
3.35931
3.32258
3.28858
3.25638
3.23601
3.21431
3.18368
3.1542
3.11797
3.07283
3.04315
3.01461
2.98617
2.96024
2.93587
2.91237
2.8799
2.84441
2.81543
2.78241
2.76035
2.74425
2.72186
2.6989
2.67693
2.65224
2.62404
2.59242
2.56568
2.54355
2.52221
2.50905
2.49138
2.46575
2.42921
2.39338
2.38194
2.37762
2.37016
2.35599
2.33858
2.31602
2.28062
2.23977
2.21151
2.20386
2.20123
2.1934
2.17818
2.15065
2.12274
2.1102
2.10304
2.09445
2.08077
2.05219
2.02167
2.01096
2.00535
1.99826
1.98895
1.97408
1.94493
1.91065
1.89344
1.88952
1.88814
1.88584
1.87951
1.87032
1.85086
1.81774
1.78323
1.76716
1.76462
1.76618
1.7693
1.76532
1.75935
1.75001
1.72965
1.69812
1.66639
1.65168
1.64842
1.64657
1.64572
1.6435
1.63977
1.63516
1.6266
1.60629
1.5805
1.56645
1.56298
1.55938
1.55503
1.55042
1.54414
1.52985
1.50769
1.49302
1.48936
1.48602
1.48255
1.4791
1.47489
1.46574
1.44933
1.4313
1.4183
1.41378
1.41005
1.40593
1.4029
1.40105
1.39904
1.39537
1.38846
1.37374
1.35215
1.34144
1.34045
1.34081
1.34158
1.34023
1.33638
1.32269
1.30723
1.37971
2.28111
3.19291
3.25836
3.22562
3.18845
3.16457
3.1518
3.13765
3.1187
3.09641
3.07528
3.05666
3.036
3.00701
2.96666
2.93513
2.92109
2.90813
2.89242
2.87431
2.85441
2.83019
2.79396
2.73957
2.68846
2.66222
2.64251
2.62363
2.60498
3.98152
3.94252
3.90695
3.87718
3.84921
3.81714
3.77911
3.74062
3.6968
3.64741
3.61473
3.58628
3.55702
3.53089
3.50231
3.46785
3.42715
3.38608
3.3487
3.30758
3.2778
3.2585
3.23289
3.20552
3.17805
3.14034
3.10404
3.07134
3.03966
3.0105
2.97659
2.95168
2.92843
2.89712
2.87126
2.84576
2.81854
2.79853
2.7744
2.74812
2.72126
2.68898
2.66239
2.63757
2.61149
2.59294
2.57459
2.55819
2.53904
2.51152
2.47511
2.43438
2.4171
2.41109
2.40605
2.39528
2.37997
2.36119
2.3291
2.28461
2.25001
2.23972
2.23496
2.22645
2.21076
2.18466
2.15926
2.14803
2.14208
2.1339
2.12059
2.09192
2.05579
2.04033
2.03522
2.02903
2.02048
2.00751
1.98091
1.94623
1.92565
1.92094
1.91895
1.91642
1.91046
1.90189
1.88313
1.85041
1.81508
1.79746
1.79426
1.79494
1.79858
1.79509
1.78877
1.77867
1.75737
1.72563
1.69355
1.67812
1.67487
1.67356
1.67309
1.67057
1.66656
1.66164
1.65265
1.63214
1.60613
1.59037
1.58698
1.58413
1.57968
1.57457
1.56792
1.55394
1.53208
1.51694
1.51348
1.51042
1.5061
1.50158
1.49614
1.48542
1.46814
1.45079
1.4405
1.43752
1.43418
1.42943
1.42429
1.41968
1.41645
1.41327
1.40758
1.39592
1.37531
1.36039
1.3581
1.35784
1.35841
1.35725
1.3539
1.34528
1.32713
1.30997
1.3122
1.55926
2.74512
3.23662
3.22303
3.19682
3.18152
3.17079
3.15737
3.1397
3.11927
3.09884
3.0773
3.04957
3.01177
2.97126
2.95112
2.93998
2.9273
2.91232
2.89525
2.87484
2.84617
2.8011
2.74541
2.70783
2.68548
2.66534
2.64606
2.62683
4.01408
3.97021
3.92635
3.88694
3.85755
3.83284
3.80517
3.77301
3.73103
3.68512
3.64516
3.60722
3.57144
3.54195
3.51771
3.48918
3.45266
3.4178
3.37947
3.3359
3.30855
3.28111
3.2495
3.22074
3.1911
3.16124
3.13018
3.09703
3.06844
3.03582
3.00012
2.97508
2.9459
2.91697
2.8942
2.87074
2.85101
2.8285
2.80193
2.77527
2.74072
2.70285
2.67825
2.65421
2.63408
2.61833
2.6036
2.58703
2.56106
2.52796
2.48694
2.45716
2.4481
2.43986
2.42957
2.41473
2.39852
2.37288
2.33285
2.29472
2.28117
2.27382
2.26236
2.24357
2.21643
2.193
2.18382
2.1801
2.17302
2.16062
2.13381
2.09452
2.07218
2.06649
2.06075
2.05248
2.0403
2.016
1.98194
1.95804
1.95233
1.95012
1.94774
1.94168
1.93331
1.91567
1.88352
1.84774
1.8286
1.82463
1.82411
1.82687
1.82424
1.81799
1.8072
1.78511
1.75319
1.72106
1.70501
1.70171
1.70083
1.70088
1.6984
1.69421
1.68894
1.67958
1.65845
1.63134
1.61426
1.61082
1.60893
1.60481
1.5994
1.59245
1.57826
1.55597
1.54022
1.53704
1.53492
1.53038
1.52501
1.51835
1.5059
1.48773
1.47087
1.46298
1.46146
1.45932
1.45436
1.44778
1.44015
1.43443
1.43084
1.42642
1.4171
1.39919
1.38086
1.37664
1.37541
1.37548
1.37474
1.37201
1.36401
1.34746
1.33137
1.32306
1.31968
1.33866
1.8969
3.03812
3.22853
3.21185
3.19903
3.18982
3.17669
3.15844
3.13775
3.11721
3.09332
3.05928
3.01553
2.98317
2.96988
2.95856
2.94554
2.93063
2.91322
2.89033
2.85496
2.8037
2.7576
2.73156
2.71036
2.68985
2.67001
2.64942
4.04391
4.00466
3.95839
3.91496
3.87944
3.84415
3.8125
3.78569
3.75415
3.71648
3.67637
3.635
3.59077
3.5587
3.53499
3.50649
3.47552
3.44597
3.40639
3.36796
3.33583
3.30252
3.27032
3.2361
3.20885
3.18394
3.15238
3.12263
3.09467
3.05802
3.02783
2.99985
2.96932
2.94263
2.91507
2.89509
2.87556
2.85
2.82465
2.79716
2.75617
2.72443
2.7009
2.67867
2.66018
2.64288
2.62884
2.60794
2.57702
2.54253
2.50518
2.48795
2.47935
2.46788
2.45123
2.43284
2.40955
2.37486
2.33785
2.32283
2.31452
2.30208
2.28197
2.25222
2.22809
2.21974
2.21665
2.21042
2.19848
2.174
2.13503
2.10672
2.09978
2.09421
2.08605
2.0743
2.05097
2.01693
1.9907
1.98386
1.98123
1.97916
1.97327
1.96495
1.94809
1.91667
1.88101
1.86054
1.85578
1.85434
1.85518
1.85254
1.84672
1.83561
1.81294
1.781
1.74919
1.73259
1.72909
1.72825
1.72868
1.72631
1.72199
1.71663
1.70707
1.68551
1.65744
1.63843
1.63454
1.63332
1.63005
1.62462
1.61742
1.603
1.58023
1.56322
1.55998
1.559
1.55523
1.54947
1.54169
1.52762
1.50822
1.49173
1.48586
1.48534
1.48493
1.48042
1.47291
1.46232
1.45354
1.44884
1.44496
1.4378
1.42283
1.40353
1.3963
1.3941
1.39323
1.39246
1.39025
1.38364
1.36758
1.34994
1.34315
1.33999
1.33612
1.33855
1.42145
2.30512
3.14265
3.2378
3.21971
3.21105
3.19757
3.17932
3.15754
3.13423
3.10482
3.06436
3.02325
3.00182
2.98944
2.97728
2.964
2.94897
2.9303
2.90258
2.85813
2.80777
2.77709
2.75644
2.73579
2.71529
2.69481
2.67167
4.06315
4.02711
3.98573
3.94371
3.90319
3.86171
3.82665
3.80227
3.77577
3.74139
3.70495
3.66242
3.61378
3.5832
3.55744
3.526
3.49682
3.46724
3.43263
3.39479
3.3566
3.32255
3.28758
3.25481
3.23448
3.20863
3.17839
3.15095
3.11671
3.08083
3.05054
3.01976
2.99439
2.96603
2.94277
2.92539
2.90036
2.87223
2.84445
2.80738
2.77004
2.74646
2.72439
2.70683
2.68708
2.67167
2.65537
2.62724
2.59319
2.5585
2.52744
2.51601
2.50665
2.49065
2.47231
2.45135
2.41755
2.3797
2.36372
2.35462
2.34139
2.32159
2.2912
2.26518
2.25678
2.2535
2.24723
2.23512
2.21236
2.17539
2.14294
2.13403
2.129
2.1213
2.10983
2.08724
2.05238
2.02365
2.01563
2.01262
2.01065
2.00498
1.99684
1.98087
1.94977
1.91372
1.89259
1.88761
1.88563
1.8849
1.88098
1.87493
1.86344
1.84077
1.80928
1.77818
1.76115
1.75736
1.75614
1.75636
1.75399
1.74964
1.74416
1.73451
1.71337
1.68442
1.66321
1.65861
1.65745
1.65514
1.64996
1.64277
1.62848
1.60516
1.5865
1.58284
1.58247
1.58013
1.57471
1.56634
1.55045
1.52962
1.5135
1.50899
1.50916
1.51022
1.50664
1.49875
1.48591
1.47377
1.46753
1.46359
1.45802
1.44588
1.42822
1.41757
1.41406
1.41206
1.41092
1.4089
1.40324
1.38815
1.37032
1.36267
1.35904
1.35618
1.35452
1.35044
1.3511
1.57583
2.63906
3.22327
3.24523
3.23754
3.22524
3.20734
3.18436
3.15352
3.11194
3.06668
3.03572
3.02116
3.00921
2.99707
2.98377
2.96802
2.94622
2.90997
2.85902
2.82099
2.80072
2.78137
2.7608
2.74033
2.71865
2.69159
4.08743
4.05093
4.00976
3.96729
3.92288
3.87451
3.84051
3.82141
3.79746
3.76776
3.73589
3.69376
3.64558
3.60639
3.56957
3.53782
3.51207
3.48825
3.45945
3.4225
3.38482
3.34631
3.30263
3.27602
3.25674
3.23073
3.20659
3.17938
3.14601
3.11054
3.07345
3.04143
3.01326
2.98479
2.96904
2.95059
2.92396
2.8976
2.86489
2.82279
2.79224
2.76652
2.74539
2.72732
2.71092
2.69872
2.67782
2.64655
2.61479
2.579
2.55496
2.54358
2.52847
2.51055
2.49223
2.4616
2.42307
2.40601
2.39747
2.38312
2.36376
2.33413
2.30412
2.2939
2.28956
2.28323
2.27086
2.249
2.2148
2.18119
2.16974
2.16493
2.15768
2.14666
2.12481
2.089
2.05744
2.04765
2.04434
2.04257
2.03706
2.02883
2.01376
1.98375
1.94668
1.9238
1.91904
1.91762
1.9162
1.91096
1.9038
1.89102
1.86795
1.83781
1.80804
1.79089
1.78679
1.78489
1.78402
1.78132
1.77684
1.77113
1.76174
1.74143
1.71221
1.68906
1.68328
1.68181
1.68023
1.6754
1.66839
1.65421
1.63033
1.61035
1.60585
1.60549
1.60454
1.5999
1.59186
1.57481
1.55182
1.53595
1.53241
1.53292
1.53467
1.53187
1.52408
1.50983
1.49473
1.48692
1.48258
1.47779
1.46817
1.45266
1.44096
1.4356
1.43218
1.43015
1.42786
1.42283
1.40882
1.39081
1.38296
1.37954
1.37529
1.37257
1.37101
1.3666
1.35244
1.36172
1.81763
2.93635
3.26609
3.26533
3.25277
3.22938
3.19934
3.16128
3.11526
3.07383
3.05304
3.04091
3.02955
3.01745
3.00337
2.98508
2.95664
2.91038
2.86527
2.84316
2.82586
2.80642
2.78586
2.76495
2.74092
2.70793
4.11824
4.08026
4.03844
3.99643
3.95018
3.89665
3.85677
3.83002
3.80855
3.78759
3.76068
3.72487
3.68183
3.6374
3.59411
3.55271
3.52227
3.50246
3.47985
3.44943
3.41786
3.37451
3.33074
3.30314
3.274
3.24675
3.22463
3.20122
3.17454
3.14029
3.10416
3.07156
3.03321
3.0053
2.989
2.96776
2.94491
2.92043
2.88767
2.85258
2.82158
2.79503
2.77085
2.746
2.73109