/*--------------------------------*- C++ -*----------------------------------*\
  =========                 |
  \\      /  F ield         | OpenFOAM: The Open Source CFD Toolbox
   \\    /   O peration     | Website:  https://openfoam.org
    \\  /    A nd           | Version:  7
     \\/     M anipulation  |
\*---------------------------------------------------------------------------*/
FoamFile
{
    version     2.0;
    format      ascii;
    class       volVectorField;
    location    "0.9";
    object      U;
}
// * * * * * * * * * * * * * * * * * * * * * * * * * * * * * * * * * * * * * //

dimensions      [0 1 -1 0 0 0 0];

internalField   nonuniform List<vector> 
16192
(
(2.78623 -0.0005538 0)
(2.78683 -0.000642474 0)
(2.78809 1.15054e-05 0)
(2.79079 0.000735737 0)
(2.79377 0.000810711 0)
(2.79726 0.000341379 0)
(2.8011 -0.000111032 0)
(2.80531 -0.000429474 0)
(2.81026 -0.00105042 0)
(2.81559 -0.00163816 0)
(2.82102 -0.00202367 0)
(2.82659 -0.00208438 0)
(2.83162 -0.0018389 0)
(2.83521 -0.00159695 0)
(2.83707 -0.00103066 0)
(2.83827 -0.000654333 0)
(2.84172 -0.0014851 0)
(2.84689 -0.00189383 0)
(2.853 -0.00172182 0)
(2.85883 -0.00149475 0)
(2.86407 -0.00204427 0)
(2.86976 -0.00313374 0)
(2.8759 -0.00350741 0)
(2.87982 -0.00319926 0)
(2.88014 -0.00246682 0)
(2.87424 -0.000781975 0)
(2.86113 0.00162347 0)
(2.84913 0.00203837 0)
(2.82236 0.00294043 0)
(2.78272 0.00469523 0)
(2.74408 0.00481575 0)
(2.72292 0.00327125 0)
(2.70723 0.00291809 0)
(2.69672 0.00258584 0)
(2.68764 0.00213119 0)
(2.6791 0.00212055 0)
(2.66965 0.00254303 0)
(2.66361 0.00159488 0)
(2.66329 -0.000432871 0)
(2.66741 -0.0013129 0)
(2.67256 0.000589247 0)
(2.67506 0.00347923 0)
(2.67439 0.00507442 0)
(2.67174 0.00594153 0)
(2.66913 0.00441787 0)
(2.66869 0.00194876 0)
(2.67051 0.000728075 0)
(2.67274 0.00102576 0)
(2.67359 0.0025852 0)
(2.67718 0.00236254 0)
(2.68277 0.00100222 0)
(2.68652 0.000231103 0)
(2.68922 0.000187389 0)
(2.69031 0.000733755 0)
(2.68894 0.00114706 0)
(2.68676 0.00102489 0)
(2.68429 0.00133716 0)
(2.67727 0.0028586 0)
(2.67179 0.00429846 0)
(2.67399 0.00447927 0)
(2.67591 0.00438444 0)
(2.67959 0.00394787 0)
(2.68738 0.00271885 0)
(2.69619 0.000886334 0)
(2.6999 -0.00111029 0)
(2.70294 -0.00281725 0)
(2.70575 -0.00409478 0)
(2.70579 -0.00470571 0)
(2.69746 -0.00333943 0)
(2.68398 -0.000855703 0)
(2.6792 0.000563846 0)
(2.67778 0.00138843 0)
(2.67566 0.00303305 0)
(2.674 0.00418558 0)
(2.67391 0.00469158 0)
(2.67677 0.0043392 0)
(2.68266 0.00345892 0)
(2.68957 0.00269885 0)
(2.69523 0.00218805 0)
(2.69872 0.0011494 0)
(2.70054 -0.000704973 0)
(2.70163 -0.00291169 0)
(2.70233 -0.00390111 0)
(2.70331 -0.00395477 0)
(2.70442 -0.00235227 0)
(2.70653 -0.00118576 0)
(2.70911 -0.000192106 0)
(2.71609 0.00105721 0)
(2.72418 0.00148827 0)
(2.72763 0.00127783 0)
(2.72763 0.00113386 0)
(2.72706 0.00115194 0)
(2.72677 0.00118331 0)
(2.72697 0.00132198 0)
(2.72779 0.00152366 0)
(2.73002 0.0016936 0)
(2.73562 0.00129603 0)
(2.74587 -0.000808098 0)
(2.75809 -0.00459636 0)
(2.76555 -0.00759175 0)
(2.76975 -0.00844291 0)
(2.7741 -0.00845488 0)
(2.7718 -0.00724403 0)
(2.76835 -0.00471865 0)
(2.76907 -0.00231863 0)
(2.77071 -0.00150606 0)
(2.77179 -0.00137908 0)
(2.77401 -0.00120449 0)
(2.77651 -0.00129249 0)
(2.77768 -0.00161269 0)
(2.77787 -0.00161339 0)
(2.77789 -0.00141196 0)
(2.77805 -0.00103226 0)
(2.77963 -0.000707258 0)
(2.78667 -0.000584297 0)
(2.79803 -0.00082641 0)
(2.80226 -0.00085122 0)
(2.8061 -0.000546562 0)
(2.80957 -9.06057e-05 0)
(2.81163 -0.000159542 0)
(2.81284 2.37603e-05 0)
(2.81366 0.000115296 0)
(2.81309 2.6382e-05 0)
(2.80965 0.000385578 0)
(2.79934 -0.0024671 0)
(2.7794 -0.00321468 0)
(2.75366 -0.00373146 0)
(2.73619 -0.00514798 0)
(2.73412 -0.00518738 0)
(2.73249 -0.00527621 0)
(2.73411 -0.00580797 0)
(2.73952 -0.00439596 0)
(2.74673 -0.00245996 0)
(2.75604 -0.00124558 0)
(2.76806 0.000167288 0)
(2.78258 0.000465683 0)
(2.79834 -0.000567762 0)
(2.81174 -0.000282206 0)
(2.82668 0.00122721 0)
(2.83993 0.00153015 0)
(2.84754 0.0013718 0)
(2.85442 0.000943211 0)
(2.86186 0.000892919 0)
(2.86697 0.00122871 0)
(2.87139 0.000938102 0)
(2.87325 0.000681016 0)
(2.87399 0.000515326 0)
(2.87639 -0.000428942 0)
(2.88081 -0.00109072 0)
(2.88561 -0.00150073 0)
(2.89003 -0.00171218 0)
(2.89485 -0.00107433 0)
(2.89936 0.000357601 0)
(2.89988 0.00104096 0)
(2.89907 0.00143179 0)
(2.89786 0.00193166 0)
(2.89581 0.00158577 0)
(2.89479 0.000516294 0)
(2.893 -0.00078491 0)
(2.88965 -0.000813173 0)
(2.88757 0.000191931 0)
(2.88728 0.00117905 0)
(2.88716 0.00264145 0)
(2.88505 0.00582973 0)
(2.87837 0.00805904 0)
(2.87205 0.00401505 0)
(2.86772 -0.000244687 0)
(2.86656 -0.0029142 0)
(2.86754 -0.00255622 0)
(2.86667 -0.000403253 0)
(2.86483 0.00140759 0)
(2.86232 0.00320673 0)
(2.8568 0.00618495 0)
(2.84434 0.0106713 0)
(2.82435 0.0149672 0)
(2.80206 0.0170545 0)
(2.78112 0.017471 0)
(2.76381 0.0146513 0)
(2.75111 0.00686756 0)
(2.74435 -0.0019943 0)
(2.74913 -0.00453689 0)
(2.77604 0.00362682 0)
(2.76856 0.0126736 0)
(2.70911 0.0201069 0)
(2.67449 0.0235771 0)
(2.65355 0.0242645 0)
(2.62193 0.0251036 0)
(2.59579 0.0260921 0)
(2.57071 0.027385 0)
(2.54161 0.0278817 0)
(2.50679 0.0303558 0)
(2.46341 0.036088 0)
(2.40807 0.04121 0)
(2.34532 0.0413761 0)
(2.28449 0.0379745 0)
(2.23448 0.0335077 0)
(2.19517 0.0284868 0)
(2.15506 0.0233448 0)
(2.09757 0.0194572 0)
(2.02169 0.0210114 0)
(1.98065 0.0242614 0)
(1.96605 0.0248784 0)
(1.94858 0.0192493 0)
(1.93277 0.00846484 0)
(1.89791 -0.00424866 0)
(1.82997 -0.0121144 0)
(1.79336 -0.0113363 0)
(1.79424 -0.00927212 0)
(1.80145 -0.00841819 0)
(1.82153 -0.00785338 0)
(1.8614 -0.00754015 0)
(1.91553 -0.00697773 0)
(1.96833 -0.00635611 0)
(2.01017 -0.00796398 0)
(2.04691 -0.0119088 0)
(2.08322 -0.0166009 0)
(2.11628 -0.0217094 0)
(2.14378 -0.0271724 0)
(2.16869 -0.0335188 0)
(2.19609 -0.0396069 0)
(2.22823 -0.0439928 0)
(2.26718 -0.0461177 0)
(2.31324 -0.0463656 0)
(2.36881 -0.0486193 0)
(2.44036 -0.0527783 0)
(2.51876 -0.0499592 0)
(2.59361 -0.0405964 0)
(2.65888 -0.032475 0)
(2.71868 -0.0284279 0)
(2.77556 -0.0278993 0)
(2.82765 -0.0268953 0)
(2.87092 -0.0230848 0)
(2.91127 -0.0179793 0)
(2.95014 -0.0130738 0)
(2.96435 -0.0113012 0)
(2.97554 -0.00994525 0)
(2.98297 -0.0086573 0)
(2.98508 -0.00808177 0)
(2.9759 -0.00600487 0)
(2.95449 -0.00122024 0)
(2.94766 0.00270105 0)
(2.94861 0.00421931 0)
(2.94998 0.00502889 0)
(2.95734 0.00555366 0)
(2.97117 0.00497299 0)
(2.97671 0.00431466 0)
(2.9757 0.00402262 0)
(2.97242 0.00341719 0)
(2.95888 0.00249334 0)
(2.92978 0.00390082 0)
(2.91144 0.00637926 0)
(2.90904 0.00700036 0)
(2.90742 0.00726822 0)
(2.78866 0.00101531 0)
(2.7885 9.59088e-06 0)
(2.7893 -0.000280722 0)
(2.79201 0.000281983 0)
(2.79549 0.001159 0)
(2.79937 0.00210549 0)
(2.80342 0.00231164 0)
(2.80815 0.00159978 0)
(2.81328 0.000840771 0)
(2.819 0.00012634 0)
(2.82474 -0.00116898 0)
(2.82997 -0.00253662 0)
(2.83474 -0.00287852 0)
(2.83836 -0.00233387 0)
(2.84024 -0.000476913 0)
(2.8406 0.00101861 0)
(2.84473 -0.000931748 0)
(2.85026 -0.00355428 0)
(2.85577 -0.00458694 0)
(2.86181 -0.00445042 0)
(2.8682 -0.00558937 0)
(2.8748 -0.00878398 0)
(2.88053 -0.0107375 0)
(2.88361 -0.0111276 0)
(2.8833 -0.0110552 0)
(2.87844 -0.00879982 0)
(2.86446 -0.00194533 0)
(2.85295 0.000242681 0)
(2.82653 0.0037041 0)
(2.78569 0.0101004 0)
(2.74506 0.0129812 0)
(2.72267 0.0116694 0)
(2.70713 0.0109721 0)
(2.6975 0.00845219 0)
(2.68943 0.00491993 0)
(2.68166 0.00390485 0)
(2.67331 0.00344324 0)
(2.66837 0.00100139 0)
(2.66889 -0.00318413 0)
(2.67299 -0.00557927 0)
(2.67812 -0.00386503 0)
(2.68243 0.00111842 0)
(2.68457 0.00883171 0)
(2.6836 0.0148649 0)
(2.68095 0.0155105 0)
(2.67816 0.0130727 0)
(2.67679 0.0109653 0)
(2.67638 0.0102184 0)
(2.67434 0.00993437 0)
(2.67566 0.00781753 0)
(2.68249 0.00587162 0)
(2.68744 0.0038927 0)
(2.69121 0.0014498 0)
(2.69414 -0.000755394 0)
(2.69605 -0.00252104 0)
(2.6967 -0.00427938 0)
(2.69588 -0.00470803 0)
(2.68916 0.000222343 0)
(2.67903 0.00795479 0)
(2.6794 0.0103199 0)
(2.68157 0.0105145 0)
(2.68441 0.0103196 0)
(2.69097 0.00882135 0)
(2.69722 0.00573975 0)
(2.70004 0.00373345 0)
(2.70325 0.00102746 0)
(2.70463 -0.00208984 0)
(2.70265 -0.00604643 0)
(2.69597 -0.0101921 0)
(2.68699 -0.00879684 0)
(2.68335 -0.00701634 0)
(2.68216 -0.00580848 0)
(2.6805 -0.00266121 0)
(2.67958 0.0012624 0)
(2.67997 0.00488933 0)
(2.68185 0.00765711 0)
(2.68593 0.00888687 0)
(2.69165 0.00898834 0)
(2.69672 0.00850198 0)
(2.6998 0.00702447 0)
(2.70114 0.00420491 0)
(2.70145 0.000308221 0)
(2.70217 -0.00461103 0)
(2.70434 -0.00902786 0)
(2.70673 -0.0102993 0)
(2.70975 -0.00933146 0)
(2.71513 -0.00654375 0)
(2.72287 -0.00180951 0)
(2.72913 0.00199092 0)
(2.73075 0.00284456 0)
(2.73021 0.00256603 0)
(2.72958 0.00251027 0)
(2.72948 0.0029933 0)
(2.73006 0.00413957 0)
(2.73142 0.00563036 0)
(2.73395 0.00686964 0)
(2.73926 0.0073412 0)
(2.74836 0.00629848 0)
(2.75856 0.00137435 0)
(2.76502 -0.00528487 0)
(2.7684 -0.0127611 0)
(2.77289 -0.0197912 0)
(2.7768 -0.0219515 0)
(2.77965 -0.018707 0)
(2.7798 -0.0121012 0)
(2.77814 -0.00478204 0)
(2.77636 0.000547963 0)
(2.77604 0.00186441 0)
(2.77645 0.00144255 0)
(2.7773 0.000211695 0)
(2.77794 -0.00128998 0)
(2.77868 -0.00296668 0)
(2.77989 -0.00373016 0)
(2.78254 -0.00292858 0)
(2.78927 -0.0017733 0)
(2.79927 -0.00245666 0)
(2.80504 -0.00394201 0)
(2.80795 -0.00391595 0)
(2.81209 -0.00327776 0)
(2.81453 -0.00314437 0)
(2.81609 -0.0025359 0)
(2.81722 -0.00144381 0)
(2.81649 0.000394501 0)
(2.81183 0.00181622 0)
(2.79992 -9.24135e-05 0)
(2.77459 0.00167078 0)
(2.74697 -0.00019333 0)
(2.73412 -0.00738795 0)
(2.73332 -0.0110446 0)
(2.73493 -0.0131507 0)
(2.74061 -0.0144896 0)
(2.74797 -0.0118339 0)
(2.75424 -0.0061804 0)
(2.75986 -0.00102643 0)
(2.7682 0.00221894 0)
(2.7817 0.00320474 0)
(2.79793 0.000608791 0)
(2.81182 -0.00360958 0)
(2.82834 -0.00213399 0)
(2.84158 -0.00172952 0)
(2.84912 -0.00221602 0)
(2.85652 -0.00326404 0)
(2.86409 -0.00213433 0)
(2.8691 0.000158728 0)
(2.87268 0.00159767 0)
(2.87412 0.00213516 0)
(2.87495 0.00215788 0)
(2.87758 0.000849872 0)
(2.88228 -0.000144829 0)
(2.88742 -0.000174662 0)
(2.8915 -2.82621e-05 0)
(2.89581 0.000536774 0)
(2.89954 0.00281555 0)
(2.9002 0.00493175 0)
(2.89916 0.00655598 0)
(2.89667 0.00704331 0)
(2.89561 0.00549091 0)
(2.89439 0.00146268 0)
(2.89217 -0.00314234 0)
(2.89066 -0.00455262 0)
(2.88953 -0.00249876 0)
(2.88886 0.000264063 0)
(2.88874 0.00516942 0)
(2.88625 0.0122868 0)
(2.87839 0.0180593 0)
(2.87447 0.0132888 0)
(2.87312 0.00216544 0)
(2.86974 -0.00643971 0)
(2.86979 -0.00815045 0)
(2.86998 -0.00455581 0)
(2.86929 0.000988065 0)
(2.86676 0.00892373 0)
(2.85977 0.0204488 0)
(2.8446 0.0349956 0)
(2.82033 0.0451709 0)
(2.79621 0.0432123 0)
(2.78152 0.0374483 0)
(2.77787 0.0355972 0)
(2.78301 0.0316624 0)
(2.79198 0.0172658 0)
(2.79613 -0.000919538 0)
(2.80509 -0.00206411 0)
(2.79238 0.0143005 0)
(2.7273 0.0359436 0)
(2.686 0.0449716 0)
(2.66374 0.0453452 0)
(2.63326 0.0472183 0)
(2.60842 0.048955 0)
(2.58557 0.0523796 0)
(2.55906 0.0559571 0)
(2.52652 0.0617881 0)
(2.48722 0.0702715 0)
(2.4382 0.0775916 0)
(2.38261 0.0796184 0)
(2.32294 0.078846 0)
(2.2667 0.0761027 0)
(2.22011 0.067718 0)
(2.17765 0.054642 0)
(2.12573 0.0412029 0)
(2.05586 0.0444611 0)
(1.99823 0.0630713 0)
(1.96638 0.0700245 0)
(1.94607 0.0658234 0)
(1.92261 0.0493102 0)
(1.87984 0.0149383 0)
(1.827 -0.0207701 0)
(1.81131 -0.0322638 0)
(1.81479 -0.0329584 0)
(1.82617 -0.0323757 0)
(1.85041 -0.0297364 0)
(1.89061 -0.0232777 0)
(1.93995 -0.0150719 0)
(1.98747 -0.0078399 0)
(2.02863 -0.00268063 0)
(2.06514 -0.00295397 0)
(2.09832 -0.0102553 0)
(2.12754 -0.0239462 0)
(2.15189 -0.0426008 0)
(2.17302 -0.0624299 0)
(2.19417 -0.080732 0)
(2.21704 -0.097503 0)
(2.24997 -0.118569 0)
(2.30188 -0.135182 0)
(2.3638 -0.134326 0)
(2.43089 -0.1302 0)
(2.50341 -0.124913 0)
(2.57844 -0.100184 0)
(2.64471 -0.0720675 0)
(2.70372 -0.0565844 0)
(2.76035 -0.053222 0)
(2.81472 -0.0535711 0)
(2.86061 -0.04904 0)
(2.90264 -0.0398901 0)
(2.94548 -0.0243552 0)
(2.96761 -0.0135104 0)
(2.97653 -0.0102453 0)
(2.98313 -0.00692645 0)
(2.98317 -0.00743507 0)
(2.97325 -0.010361 0)
(2.95825 -0.00838782 0)
(2.95371 -0.000761331 0)
(2.95513 0.00492392 0)
(2.95713 0.00900378 0)
(2.96346 0.0137701 0)
(2.97371 0.0161788 0)
(2.97811 0.0141704 0)
(2.97798 0.0127353 0)
(2.97517 0.00944285 0)
(2.96371 0.00388809 0)
(2.93809 0.000259933 0)
(2.91842 0.00468062 0)
(2.91486 0.00871748 0)
(2.91433 0.0117075 0)
(2.78987 -0.00193232 0)
(2.7898 -0.00209061 0)
(2.79148 -0.0010227 0)
(2.79456 0.000138308 0)
(2.7981 0.000662174 0)
(2.80237 0.000151096 0)
(2.80739 -0.00111765 0)
(2.81262 -0.00239135 0)
(2.81789 -0.00298449 0)
(2.82346 -0.00367573 0)
(2.82855 -0.0044175 0)
(2.83293 -0.00482505 0)
(2.83664 -0.00408298 0)
(2.83938 -0.00215325 0)
(2.84128 -0.00057591 0)
(2.84342 -7.68298e-05 0)
(2.84728 -0.000379612 0)
(2.85259 -0.00189957 0)
(2.85792 -0.00349564 0)
(2.86371 -0.00415361 0)
(2.87067 -0.00538267 0)
(2.87773 -0.00830443 0)
(2.88287 -0.0098023 0)
(2.88492 -0.0094062 0)
(2.88352 -0.0089732 0)
(2.87897 -0.0071473 0)
(2.86767 -0.00206357 0)
(2.85797 -0.000700272 0)
(2.83276 0.00297775 0)
(2.79267 0.0108703 0)
(2.75275 0.014199 0)
(2.72416 0.0159693 0)
(2.70833 0.0160821 0)
(2.69834 0.0145472 0)
(2.68954 0.0132108 0)
(2.67918 0.0140137 0)
(2.67089 0.0143871 0)
(2.66949 0.00831316 0)
(2.67268 0.000507924 0)
(2.67745 -0.00334167 0)
(2.68349 -0.00145156 0)
(2.68928 0.00391081 0)
(2.69359 0.0104399 0)
(2.69612 0.0168508 0)
(2.69549 0.0205182 0)
(2.69145 0.017367 0)
(2.68743 0.0119286 0)
(2.68555 0.0107997 0)
(2.68105 0.0135276 0)
(2.67883 0.0158536 0)
(2.68491 0.0158824 0)
(2.68983 0.0151878 0)
(2.69362 0.0143009 0)
(2.69669 0.0128503 0)
(2.70015 0.0106748 0)
(2.70325 0.00834934 0)
(2.70316 0.00738968 0)
(2.69699 0.00858431 0)
(2.68701 0.0102914 0)
(2.68811 0.0104711 0)
(2.69048 0.0102354 0)
(2.69433 0.00892016 0)
(2.69837 0.00747188 0)
(2.70144 0.00642228 0)
(2.70436 0.00477214 0)
(2.70568 0.00302943 0)
(2.70499 0.000264684 0)
(2.70167 -0.0011364 0)
(2.69552 -0.00252907 0)
(2.69332 -0.00490278 0)
(2.6923 -0.00542693 0)
(2.69089 -0.00561974 0)
(2.6903 -0.00512493 0)
(2.69087 -0.00310966 0)
(2.69249 -0.00016421 0)
(2.69498 0.00251878 0)
(2.69821 0.00441475 0)
(2.70189 0.00587837 0)
(2.70539 0.00745227 0)
(2.70812 0.00864513 0)
(2.70828 0.00853521 0)
(2.70781 0.00744165 0)
(2.7078 0.00467079 0)
(2.70928 0.00132344 0)
(2.71326 -0.00187638 0)
(2.71933 -0.00349853 0)
(2.72708 -0.0033576 0)
(2.73505 -0.00242425 0)
(2.73964 -0.0018535 0)
(2.74028 -0.00236023 0)
(2.73956 -0.00347906 0)
(2.73914 -0.00425615 0)
(2.7395 -0.00448566 0)
(2.74071 -0.00469002 0)
(2.74307 -0.00453749 0)
(2.74729 -0.00291383 0)
(2.75443 -0.000928758 0)
(2.76 0.000780458 0)
(2.76424 0.000364564 0)
(2.76762 -0.00414753 0)
(2.77083 -0.0104722 0)
(2.77744 -0.0172877 0)
(2.78519 -0.0218671 0)
(2.78831 -0.022698 0)
(2.79124 -0.0211537 0)
(2.79333 -0.0152356 0)
(2.79183 -0.00579772 0)
(2.7854 0.00323932 0)
(2.78024 0.00719551 0)
(2.77975 0.00744568 0)
(2.7801 0.00695428 0)
(2.78133 0.00604014 0)
(2.78409 0.00494098 0)
(2.78881 0.00468319 0)
(2.7954 0.00585779 0)
(2.8025 0.00472595 0)
(2.80774 0.000684407 0)
(2.81211 -0.00242448 0)
(2.81573 -0.00372926 0)
(2.81851 -0.00553303 0)
(2.82079 -0.00785371 0)
(2.8218 -0.0082186 0)
(2.82077 -0.00651549 0)
(2.8158 -0.0069534 0)
(2.80384 -0.00883891 0)
(2.77811 -0.00409244 0)
(2.74769 6.425e-05 0)
(2.7334 -0.00697113 0)
(2.73494 -0.0147134 0)
(2.73739 -0.0184191 0)
(2.74145 -0.0205451 0)
(2.74919 -0.0205645 0)
(2.75823 -0.0165091 0)
(2.76627 -0.00954886 0)
(2.77355 -0.00394214 0)
(2.78432 0.00254919 0)
(2.79577 0.00757831 0)
(2.80923 0.00411755 0)
(2.83034 0.00242514 0)
(2.84313 0.000881667 0)
(2.8512 -0.00182368 0)
(2.85971 -0.00486025 0)
(2.86715 -0.00706094 0)
(2.87264 -0.0057999 0)
(2.87581 -0.00184081 0)
(2.87634 -0.00066135 0)
(2.87736 -0.000496552 0)
(2.87992 -0.00227122 0)
(2.88432 -0.00376282 0)
(2.88897 -0.00433038 0)
(2.89314 -0.00408159 0)
(2.89698 -0.00234518 0)
(2.89955 0.000958175 0)
(2.9008 0.00497413 0)
(2.90026 0.00995761 0)
(2.89686 0.0130647 0)
(2.89493 0.0106286 0)
(2.89358 0.00505096 0)
(2.89108 -0.000712155 0)
(2.89024 -0.00346636 0)
(2.89053 -0.00313723 0)
(2.89055 -0.000627119 0)
(2.89003 0.00753979 0)
(2.88629 0.0183066 0)
(2.87936 0.0257985 0)
(2.87643 0.0220666 0)
(2.87629 0.00943334 0)
(2.87242 -0.00305713 0)
(2.87107 -0.00740863 0)
(2.87244 -0.00445686 0)
(2.87245 0.00306856 0)
(2.87054 0.0160272 0)
(2.86382 0.0361299 0)
(2.84724 0.060495 0)
(2.82184 0.0780309 0)
(2.79969 0.0723022 0)
(2.7916 0.0519896 0)
(2.79266 0.032535 0)
(2.8026 0.0168302 0)
(2.81334 0.00831089 0)
(2.81117 0.0145025 0)
(2.80065 0.0332748 0)
(2.78599 0.0543599 0)
(2.73128 0.0720591 0)
(2.68547 0.0800229 0)
(2.66566 0.0807678 0)
(2.63331 0.0807823 0)
(2.60719 0.0831375 0)
(2.58341 0.0892286 0)
(2.55471 0.0958586 0)
(2.52064 0.105041 0)
(2.48218 0.116458 0)
(2.43617 0.12743 0)
(2.38387 0.135144 0)
(2.32994 0.137208 0)
(2.27757 0.1344 0)
(2.22738 0.125658 0)
(2.17799 0.109603 0)
(2.13024 0.0945686 0)
(2.08782 0.088536 0)
(2.04593 0.0924976 0)
(2.00855 0.0991758 0)
(1.9748 0.0956486 0)
(1.92923 0.0714587 0)
(1.87202 0.0232104 0)
(1.846 -0.0122217 0)
(1.84605 -0.0224251 0)
(1.85714 -0.0323304 0)
(1.87786 -0.0410321 0)
(1.90735 -0.0477038 0)
(1.94733 -0.0499468 0)
(1.99505 -0.0459555 0)
(2.04382 -0.0381906 0)
(2.09106 -0.0291887 0)
(2.13301 -0.0196215 0)
(2.16679 -0.0201562 0)
(2.18958 -0.0366324 0)
(2.20724 -0.0650796 0)
(2.22709 -0.0998194 0)
(2.25129 -0.13388 0)
(2.27954 -0.163568 0)
(2.3132 -0.192888 0)
(2.35928 -0.210693 0)
(2.41895 -0.202439 0)
(2.48452 -0.194291 0)
(2.55767 -0.200636 0)
(2.64108 -0.194513 0)
(2.70164 -0.151429 0)
(2.7513 -0.108615 0)
(2.79547 -0.0889694 0)
(2.84105 -0.0832864 0)
(2.87932 -0.0763224 0)
(2.92122 -0.0618981 0)
(2.96645 -0.0452103 0)
(2.98485 -0.0362317 0)
(2.99044 -0.03031 0)
(2.9944 -0.0207062 0)
(2.99102 -0.0134205 0)
(2.9771 -0.0109505 0)
(2.96823 -0.00779646 0)
(2.96887 -0.00268536 0)
(2.97083 0.00306962 0)
(2.97464 0.00949946 0)
(2.98323 0.0183466 0)
(2.98954 0.024069 0)
(2.9903 0.0241648 0)
(2.98908 0.0228181 0)
(2.98319 0.0200237 0)
(2.96798 0.0163226 0)
(2.94465 0.0120026 0)
(2.93329 0.00990536 0)
(2.93177 0.0106984 0)
(2.93105 0.0140497 0)
(2.78862 -0.00335746 0)
(2.78921 -0.0049795 0)
(2.79317 -0.00449417 0)
(2.79667 -0.00382151 0)
(2.8005 -0.00312538 0)
(2.8048 -0.00313116 0)
(2.81009 -0.0035148 0)
(2.81521 -0.00433527 0)
(2.82014 -0.00556921 0)
(2.82487 -0.00649098 0)
(2.82907 -0.00735331 0)
(2.83255 -0.00779476 0)
(2.83514 -0.00725665 0)
(2.83697 -0.00589735 0)
(2.83932 -0.00378618 0)
(2.84261 -0.0030295 0)
(2.8474 -0.00455907 0)
(2.8527 -0.00582667 0)
(2.85804 -0.00703602 0)
(2.86363 -0.00807942 0)
(2.87016 -0.00948216 0)
(2.87673 -0.0119596 0)
(2.88139 -0.0128244 0)
(2.88357 -0.0108227 0)
(2.88225 -0.0088232 0)
(2.87816 -0.00667749 0)
(2.86959 -0.00044268 0)
(2.86166 0.00180949 0)
(2.83895 0.00498398 0)
(2.80077 0.0102006 0)
(2.76105 0.0145307 0)
(2.72502 0.0187267 0)
(2.70942 0.0188675 0)
(2.69925 0.014855 0)
(2.68961 0.00992728 0)
(2.679 0.0081907 0)
(2.67295 0.00868039 0)
(2.67305 0.00570641 0)
(2.67707 -0.000548407 0)
(2.68144 -0.00567738 0)
(2.68646 -0.00589111 0)
(2.69186 -0.00242578 0)
(2.69698 0.00154977 0)
(2.70169 0.00574337 0)
(2.70383 0.00905571 0)
(2.70176 0.00742159 0)
(2.69812 0.00144895 0)
(2.69654 -0.00191441 0)
(2.69289 -0.000228439 0)
(2.68897 0.00481889 0)
(2.69475 0.00912591 0)
(2.70013 0.0115945 0)
(2.70475 0.0151094 0)
(2.70851 0.018844 0)
(2.7116 0.0213918 0)
(2.71319 0.0235121 0)
(2.71212 0.0250309 0)
(2.7066 0.0235916 0)
(2.69664 0.0184146 0)
(2.69729 0.0144287 0)
(2.69967 0.0129651 0)
(2.70326 0.008518 0)
(2.70703 0.00129577 0)
(2.70923 -0.00346867 0)
(2.71198 -0.00510231 0)
(2.71439 -0.00552246 0)
(2.71448 -0.00502281 0)
(2.71183 -0.00274176 0)
(2.7088 0.00167672 0)
(2.70728 0.00533881 0)
(2.70678 0.00616369 0)
(2.70626 0.00616984 0)
(2.70669 0.00508515 0)
(2.70853 0.00312486 0)
(2.71091 0.00139872 0)
(2.71325 -0.000436314 0)
(2.71549 -0.00306977 0)
(2.71787 -0.00614894 0)
(2.72085 -0.0090859 0)
(2.72427 -0.0106238 0)
(2.72721 -0.00967862 0)
(2.728 -0.00779521 0)
(2.72911 -0.00485535 0)
(2.7312 -0.00236976 0)
(2.73477 -8.48059e-06 0)
(2.74072 0.00263246 0)
(2.74895 0.00495517 0)
(2.75622 0.00564901 0)
(2.75933 0.00424217 0)
(2.75956 0.00195672 0)
(2.75918 -0.000656829 0)
(2.75906 -0.00353713 0)
(2.75948 -0.006672 0)
(2.76069 -0.00943728 0)
(2.76338 -0.0112711 0)
(2.7688 -0.0117869 0)
(2.77485 -0.0115985 0)
(2.7773 -0.0117742 0)
(2.78015 -0.0122981 0)
(2.78239 -0.0129789 0)
(2.78469 -0.0133731 0)
(2.78969 -0.0147371 0)
(2.79845 -0.0178806 0)
(2.80378 -0.0197075 0)
(2.80519 -0.0199474 0)
(2.80725 -0.0195186 0)
(2.80751 -0.0171575 0)
(2.80243 -0.0119916 0)
(2.79341 -0.00597425 0)
(2.79039 -0.00195666 0)
(2.79155 -0.000519722 0)
(2.79312 0.00066627 0)
(2.79645 0.00296133 0)
(2.80096 0.00454799 0)
(2.80632 0.00489936 0)
(2.81162 0.00532115 0)
(2.81598 0.00520648 0)
(2.81948 0.00371405 0)
(2.82282 0.00267568 0)
(2.82534 0.00125686 0)
(2.82654 -0.000926673 0)
(2.82663 -0.00359204 0)
(2.82489 -0.00583935 0)
(2.81894 -0.0103147 0)
(2.80576 -0.0150098 0)
(2.77959 -0.0149238 0)
(2.75094 -0.0111657 0)
(2.73984 -0.00982327 0)
(2.74113 -0.012126 0)
(2.74314 -0.0152358 0)
(2.74579 -0.0173523 0)
(2.75271 -0.0185539 0)
(2.76155 -0.0174034 0)
(2.7701 -0.0145424 0)
(2.77848 -0.0137406 0)
(2.78991 -0.00741696 0)
(2.80215 0.0024978 0)
(2.81292 0.0067443 0)
(2.83534 0.00822531 0)
(2.84729 0.00805853 0)
(2.85476 0.00552368 0)
(2.86311 0.00103862 0)
(2.87014 -0.00253498 0)
(2.87512 -0.00348996 0)
(2.87864 -0.00202142 0)
(2.87975 -0.00104066 0)
(2.88047 -0.00100297 0)
(2.88221 -0.00134358 0)
(2.88548 -0.00113839 0)
(2.88973 -0.000951725 0)
(2.89348 -0.000406846 0)
(2.89645 0.000606693 0)
(2.89835 0.00258973 0)
(2.89942 0.00601267 0)
(2.89898 0.0104167 0)
(2.89639 0.01422 0)
(2.89361 0.0120314 0)
(2.8929 0.00556164 0)
(2.89165 0.0018304 0)
(2.89132 0.000668603 0)
(2.89151 0.000295875 0)
(2.89125 0.00302683 0)
(2.89055 0.0121947 0)
(2.88667 0.0232524 0)
(2.88156 0.029665 0)
(2.88087 0.024958 0)
(2.88116 0.0122898 0)
(2.87739 -0.00159412 0)
(2.87394 -0.00804656 0)
(2.87482 -0.00600885 0)
(2.87438 0.00456619 0)
(2.87278 0.0228541 0)
(2.86914 0.051393 0)
(2.85404 0.0825298 0)
(2.83444 0.10581 0)
(2.81999 0.0949615 0)
(2.81314 0.0627077 0)
(2.80784 0.0352258 0)
(2.80801 0.0165489 0)
(2.81037 0.0106096 0)
(2.80666 0.0209496 0)
(2.79569 0.0431258 0)
(2.79363 0.0646849 0)
(2.76103 0.0892542 0)
(2.70965 0.111051 0)
(2.69142 0.114662 0)
(2.65951 0.114831 0)
(2.62973 0.117463 0)
(2.60419 0.127374 0)
(2.57523 0.138042 0)
(2.54138 0.149421 0)
(2.50545 0.162042 0)
(2.46512 0.173669 0)
(2.4198 0.179521 0)
(2.37207 0.180005 0)
(2.3215 0.18086 0)
(2.26837 0.178074 0)
(2.21862 0.165043 0)
(2.17651 0.146298 0)
(2.13997 0.130967 0)
(2.10598 0.123039 0)
(2.07255 0.119383 0)
(2.03178 0.109716 0)
(1.96863 0.0822242 0)
(1.90103 0.039061 0)
(1.88144 0.012032 0)
(1.88536 -0.00708586 0)
(1.90619 -0.027826 0)
(1.93978 -0.0396574 0)
(1.98021 -0.0480325 0)
(2.02465 -0.058542 0)
(2.07268 -0.0701487 0)
(2.12229 -0.0798228 0)
(2.172 -0.0850322 0)
(2.21536 -0.0794423 0)
(2.24807 -0.0682251 0)
(2.27709 -0.0659144 0)
(2.3061 -0.0775694 0)
(2.33474 -0.108556 0)
(2.3655 -0.147717 0)
(2.39708 -0.186501 0)
(2.42369 -0.230523 0)
(2.45618 -0.265022 0)
(2.50128 -0.269153 0)
(2.56195 -0.263706 0)
(2.63674 -0.260847 0)
(2.72669 -0.242046 0)
(2.79608 -0.205466 0)
(2.82407 -0.172731 0)
(2.8547 -0.122228 0)
(2.87441 -0.101384 0)
(2.90274 -0.0950662 0)
(2.9413 -0.0890633 0)
(2.98745 -0.0679965 0)
(3.01583 -0.0406268 0)
(3.0172 -0.0323447 0)
(3.01447 -0.0298037 0)
(3.00778 -0.0254288 0)
(2.99768 -0.0179399 0)
(2.99427 -0.00864191 0)
(2.995 -0.000992104 0)
(2.9964 0.00751013 0)
(3.00046 0.0156955 0)
(3.00685 0.0204924 0)
(3.0112 0.0222477 0)
(3.01211 0.0225788 0)
(3.01122 0.0227822 0)
(3.00465 0.022267 0)
(2.98817 0.0205241 0)
(2.96761 0.0190783 0)
(2.96132 0.0193638 0)
(2.95943 0.019831 0)
(2.95829 0.0208783 0)
(2.78669 -0.00393566 0)
(2.78954 -0.00293221 0)
(2.79358 -0.00241588 0)
(2.7973 -0.00215332 0)
(2.80108 -0.00277857 0)
(2.80538 -0.0037736 0)
(2.81026 -0.00471945 0)
(2.81494 -0.00591803 0)
(2.81924 -0.0063012 0)
(2.82364 -0.00660193 0)
(2.82751 -0.00700976 0)
(2.83036 -0.00729436 0)
(2.8318 -0.00671192 0)
(2.83275 -0.00520723 0)
(2.83541 -0.00454801 0)
(2.83941 -0.0044197 0)
(2.84439 -0.0051232 0)
(2.84996 -0.00603327 0)
(2.85557 -0.00696388 0)
(2.8611 -0.00795581 0)
(2.86706 -0.00914999 0)
(2.87284 -0.0103408 0)
(2.87736 -0.0100596 0)
(2.87987 -0.00862144 0)
(2.87856 -0.00743674 0)
(2.87358 -0.00533132 0)
(2.86954 -0.00095627 0)
(2.86218 0.000180956 0)
(2.84268 0.00356012 0)
(2.8075 0.0100208 0)
(2.7664 0.0144047 0)
(2.72281 0.0180481 0)
(2.70884 0.0182354 0)
(2.70019 0.0154394 0)
(2.68978 0.0118167 0)
(2.68034 0.00989322 0)
(2.67577 0.00981672 0)
(2.67651 0.00787087 0)
(2.6808 0.00369421 0)
(2.6851 0.00108923 0)
(2.68952 0.00271899 0)
(2.69403 0.00636102 0)
(2.69909 0.0104577 0)
(2.70468 0.0155281 0)
(2.709 0.0214166 0)
(2.71058 0.0223545 0)
(2.71029 0.0136244 0)
(2.70855 0.00292548 0)
(2.7045 -0.00100063 0)
(2.70246 0.00351863 0)
(2.70909 0.00769046 0)
(2.71417 0.0106647 0)
(2.7185 0.0140639 0)
(2.72275 0.017189 0)
(2.72624 0.0206048 0)
(2.72774 0.0249736 0)
(2.72744 0.0287139 0)
(2.7239 0.029315 0)
(2.71235 0.0271303 0)
(2.70901 0.023247 0)
(2.71373 0.0212553 0)
(2.71652 0.0172077 0)
(2.71923 0.0112046 0)
(2.72367 0.00235558 0)
(2.72725 -0.00663676 0)
(2.72823 -0.0108971 0)
(2.72999 -0.0126907 0)
(2.73229 -0.011528 0)
(2.73379 -0.00720147 0)
(2.73357 -0.000372054 0)
(2.73354 0.00611834 0)
(2.73461 0.0089991 0)
(2.73589 0.0107438 0)
(2.73739 0.0119135 0)
(2.73879 0.0113106 0)
(2.74048 0.008966 0)
(2.74272 0.00588983 0)
(2.74549 0.00206033 0)
(2.74869 -0.00217684 0)
(2.75191 -0.0057956 0)
(2.75491 -0.00874579 0)
(2.75727 -0.00973812 0)
(2.75934 -0.00822634 0)
(2.76219 -0.00617435 0)
(2.76647 -0.0039674 0)
(2.773 -0.00129886 0)
(2.78093 0.00151779 0)
(2.78638 0.00306413 0)
(2.78782 0.00320826 0)
(2.78818 0.00303979 0)
(2.78807 0.00247696 0)
(2.78761 0.00117188 0)
(2.78721 -0.000328822 0)
(2.78763 -0.00166954 0)
(2.79003 -0.00333315 0)
(2.7937 -0.00668062 0)
(2.79625 -0.0112845 0)
(2.7983 -0.0151159 0)
(2.80025 -0.0175345 0)
(2.80216 -0.0186977 0)
(2.80465 -0.019611 0)
(2.80968 -0.020562 0)
(2.818 -0.0208081 0)
(2.82223 -0.0202466 0)
(2.82323 -0.0198486 0)
(2.82469 -0.0179864 0)
(2.82456 -0.0142975 0)
(2.82109 -0.00947368 0)
(2.81358 -0.00411157 0)
(2.80711 -0.000528333 0)
(2.80679 0.00011671 0)
(2.80769 0.000472787 0)
(2.81041 0.00222495 0)
(2.81483 0.00335997 0)
(2.81939 0.00200904 0)
(2.8231 -1.65539e-06 0)
(2.82648 -0.00175843 0)
(2.82999 -0.00208848 0)
(2.83327 -0.00180222 0)
(2.83488 -0.00229928 0)
(2.83384 -0.00444198 0)
(2.83226 -0.00510086 0)
(2.82907 -0.00567791 0)
(2.82147 -0.0104983 0)
(2.8067 -0.0155703 0)
(2.78106 -0.0152914 0)
(2.75596 -0.015134 0)
(2.74952 -0.0170089 0)
(2.75118 -0.0173944 0)
(2.75207 -0.0177416 0)
(2.75474 -0.0199417 0)
(2.76001 -0.0213207 0)
(2.76701 -0.0176842 0)
(2.77476 -0.0128034 0)
(2.78454 -0.0134626 0)
(2.79718 -0.00973399 0)
(2.81165 0.00109015 0)
(2.82342 0.00437867 0)
(2.84067 0.00529419 0)
(2.85511 0.00587185 0)
(2.86284 0.00434344 0)
(2.86815 0.000127366 0)
(2.87334 -0.00228872 0)
(2.87671 -0.00305038 0)
(2.87934 -0.00358803 0)
(2.88088 -0.00389304 0)
(2.88104 -0.00409209 0)
(2.88208 -0.00527283 0)
(2.88465 -0.00664163 0)
(2.8881 -0.00741374 0)
(2.89141 -0.00758469 0)
(2.89343 -0.00672059 0)
(2.89473 -0.00253504 0)
(2.89576 0.00502205 0)
(2.89515 0.0136256 0)
(2.89323 0.0190009 0)
(2.89017 0.017386 0)
(2.89021 0.0124031 0)
(2.89163 0.00784505 0)
(2.89205 0.00595039 0)
(2.89252 0.00524988 0)
(2.89103 0.00966148 0)
(2.89003 0.0187786 0)
(2.88721 0.0276092 0)
(2.88545 0.0322649 0)
(2.88494 0.0295867 0)
(2.88439 0.0191636 0)
(2.88275 0.00410997 0)
(2.87791 -0.00544178 0)
(2.87686 -0.00547457 0)
(2.87454 0.00720974 0)
(2.87335 0.0276544 0)
(2.87443 0.0622163 0)
(2.86448 0.0933101 0)
(2.85759 0.114328 0)
(2.84986 0.110755 0)
(2.83923 0.0790967 0)
(2.8245 0.044035 0)
(2.80931 0.0214793 0)
(2.8008 0.0169273 0)
(2.79756 0.0320666 0)
(2.79313 0.0611872 0)
(2.79449 0.0835663 0)
(2.7899 0.101386 0)
(2.74944 0.130827 0)
(2.71944 0.146927 0)
(2.69661 0.148209 0)
(2.66372 0.149736 0)
(2.6382 0.160705 0)
(2.6118 0.173719 0)
(2.58147 0.185809 0)
(2.54954 0.198175 0)
(2.51385 0.208654 0)
(2.47212 0.214061 0)
(2.42668 0.215715 0)
(2.37808 0.218915 0)
(2.32491 0.222435 0)
(2.26892 0.222275 0)
(2.21928 0.212172 0)
(2.18666 0.190108 0)
(2.16558 0.164491 0)
(2.14226 0.140487 0)
(2.10263 0.119608 0)
(2.02456 0.0949718 0)
(1.95057 0.063064 0)
(1.93568 0.0410909 0)
(1.9388 0.0155023 0)
(1.96129 -0.0143412 0)
(2.00171 -0.0363178 0)
(2.05046 -0.053877 0)
(2.10012 -0.0764054 0)
(2.14935 -0.103379 0)
(2.2008 -0.12897 0)
(2.25652 -0.147201 0)
(2.31309 -0.148919 0)
(2.35239 -0.132125 0)
(2.38997 -0.122462 0)
(2.42487 -0.124922 0)
(2.46074 -0.138564 0)
(2.49626 -0.16213 0)
(2.53425 -0.188344 0)
(2.5677 -0.23033 0)
(2.58773 -0.274807 0)
(2.60966 -0.301326 0)
(2.644 -0.319887 0)
(2.69697 -0.329412 0)
(2.77534 -0.314338 0)
(2.87072 -0.260648 0)
(2.90509 -0.224383 0)
(2.92726 -0.16201 0)
(2.93537 -0.115661 0)
(2.94412 -0.108274 0)
(2.95887 -0.103288 0)
(2.98491 -0.0958896 0)
(3.02687 -0.0689972 0)
(3.03962 -0.0438795 0)
(3.03553 -0.0400996 0)
(3.02601 -0.037506 0)
(3.02339 -0.0270053 0)
(3.02602 -0.0139167 0)
(3.02752 0.000855631 0)
(3.02945 0.0175051 0)
(3.03177 0.0300477 0)
(3.0345 0.033439 0)
(3.03841 0.030452 0)
(3.03959 0.0278244 0)
(3.03809 0.0251867 0)
(3.03295 0.0213454 0)
(3.02146 0.019113 0)
(3.00655 0.0223373 0)
(3.0012 0.0255193 0)
(2.99987 0.0269836 0)
(2.99925 0.0287007 0)
(2.78501 -0.00587079 0)
(2.78896 -0.00437241 0)
(2.79281 -0.00285918 0)
(2.79688 -0.00205293 0)
(2.8012 -0.00253453 0)
(2.80506 -0.00408336 0)
(2.8094 -0.00528746 0)
(2.81374 -0.00685395 0)
(2.81733 -0.00865208 0)
(2.82093 -0.00923768 0)
(2.82446 -0.00935862 0)
(2.82658 -0.00963023 0)
(2.82646 -0.00987565 0)
(2.82707 -0.00870135 0)
(2.83044 -0.00738275 0)
(2.83502 -0.00732942 0)