/*--------------------------------*- C++ -*----------------------------------*\
  =========                 |
  \\      /  F ield         | OpenFOAM: The Open Source CFD Toolbox
   \\    /   O peration     | Website:  https://openfoam.org
    \\  /    A nd           | Version:  7
     \\/     M anipulation  |
\*---------------------------------------------------------------------------*/
FoamFile
{
    version     2.0;
    format      ascii;
    class       volVectorField;
    location    "2.1";
    object      U;
}
// * * * * * * * * * * * * * * * * * * * * * * * * * * * * * * * * * * * * * //

dimensions      [0 1 -1 0 0 0 0];

internalField   nonuniform List<vector> 
66048
(
(3 3.51389e-18 0)
(3 -2.42844e-18 0)
(3 -7.99922e-17 0)
(3 -8.82941e-17 0)
(3 -5.0106e-16 0)
(3 -8.187e-16 0)
(3 -5.80808e-16 0)
(3 -9.29069e-17 0)
(3 2.39548e-16 0)
(3 3.66728e-16 0)
(3 4.98582e-16 0)
(3 2.80878e-16 0)
(3 6.52343e-17 0)
(3 1.03815e-16 0)
(3 -5.3297e-17 0)
(3 -6.42396e-17 0)
(3 -1.76872e-16 0)
(3 6.61403e-17 0)
(3 -2.03178e-18 0)
(3 -4.56876e-16 0)
(3 -6.97317e-16 0)
(3 -3.58162e-16 0)
(3 -4.71701e-18 0)
(3 4.43883e-17 0)
(3 1.88846e-16 0)
(3 3.7458e-16 0)
(3 6.63856e-16 0)
(3 7.70426e-16 0)
(3 3.85187e-16 0)
(3 -1.03377e-16 0)
(3 -3.75451e-16 0)
(3 -1.08694e-16 0)
(3 2.79363e-16 0)
(3 3.67825e-16 0)
(3 2.86845e-16 0)
(3 9.7238e-16 0)
(3 1.40548e-15 0)
(3 1.72376e-15 0)
(3 1.83944e-15 0)
(3 2.14159e-15 0)
(3 2.47991e-15 0)
(3 1.59128e-15 0)
(3 8.10699e-16 0)
(3 6.2805e-16 0)
(3 7.61384e-16 0)
(3 2.63848e-16 0)
(3 -3.39288e-17 0)
(3 -5.01585e-16 0)
(3 -5.40449e-16 0)
(3 -6.16766e-16 0)
(3 -7.9193e-16 0)
(3 -9.37614e-16 0)
(3 -9.33673e-16 0)
(3 -4.19118e-16 0)
(3 -3.60789e-16 0)
(3 -6.10621e-17 0)
(3 -2.41943e-16 0)
(3 -7.62664e-16 0)
(3 -1.1773e-15 0)
(3 -6.22752e-16 0)
(3 -5.00576e-16 0)
(3 -9.76143e-17 0)
(3 3.71295e-16 0)
(3 1.02955e-16 0)
(3 -7.56994e-16 0)
(3 -7.16199e-16 0)
(3 6.98125e-17 0)
(3 2.49944e-16 0)
(3 1.05265e-15 0)
(3 2.16719e-15 0)
(3 1.49948e-15 0)
(3 3.30585e-15 0)
(1.50917 0.00830127 0)
(0.772738 0.0091624 0)
(0.72302 0.0111078 0)
(0.696788 0.0120239 0)
(0.666981 0.012532 0)
(0.637711 0.0130957 0)
(0.607546 0.0136415 0)
(0.576858 0.0139928 0)
(0.546031 0.014065 0)
(0.51558 0.0139155 0)
(0.485729 0.0138085 0)
(0.45602 0.0140804 0)
(0.425667 0.0146473 0)
(0.394434 0.0151347 0)
(0.362603 0.0154643 0)
(0.330231 0.0158321 0)
(0.297049 0.0163325 0)
(0.262774 0.0169512 0)
(0.227162 0.0176939 0)
(0.189934 0.0185621 0)
(0.15088 0.0195509 0)
(0.109716 0.0206649 0)
(0.0667017 0.0212695 0)
(0.0231993 0.0220091 0)
(3 -5.80898e-17 0)
(3 -1.78241e-16 0)
(3 -1.79881e-16 0)
(3 -3.34642e-17 0)
(3 -6.20684e-16 0)
(3 -1.26018e-15 0)
(3 -1.29137e-15 0)
(3 -7.74039e-16 0)
(3 -1.11171e-16 0)
(3 2.25279e-16 0)
(3 5.94495e-16 0)
(3 2.64522e-16 0)
(3 -4.39198e-16 0)
(3 -6.46006e-16 0)
(3 -8.15173e-16 0)
(3 -7.17981e-16 0)
(3 -3.11627e-16 0)
(3 3.49129e-16 0)
(3 -2.22653e-16 0)
(3 -1.67769e-15 0)
(3 -1.20175e-15 0)
(3 -3.28552e-16 0)
(3 5.28738e-17 0)
(3 1.34566e-16 0)
(3 2.42739e-16 0)
(3 4.90446e-16 0)
(3 8.27451e-16 0)
(3 1.0288e-15 0)
(3 9.81643e-16 0)
(3 3.27558e-16 0)
(3 -3.35415e-16 0)
(3 -2.43688e-16 0)
(3 9.61424e-16 0)
(3 1.82881e-15 0)
(3 1.69229e-15 0)
(3 1.26771e-15 0)
(3 1.624e-15 0)
(3 1.79866e-15 0)
(3 1.616e-15 0)
(3 1.56925e-15 0)
(3 1.896e-15 0)
(3 1.34616e-15 0)
(3 1.06685e-15 0)
(3 6.12404e-16 0)
(3 4.63645e-16 0)
(3 -2.9068e-16 0)
(3 -2.19096e-15 0)
(3 -2.70637e-15 0)
(3 -2.39458e-15 0)
(3 -2.17169e-15 0)
(3 -2.29878e-15 0)
(3 -2.10492e-15 0)
(3 -1.10353e-15 0)
(3 -3.57468e-16 0)
(3 -7.30922e-17 0)
(3 4.58435e-17 0)
(3 -1.57253e-16 0)
(3 -6.4094e-16 0)
(3 -8.32461e-16 0)
(3 -1.4068e-15 0)
(3 -1.4074e-15 0)
(3 -3.04386e-16 0)
(3 1.93738e-16 0)
(3 2.87982e-16 0)
(3 -4.07194e-16 0)
(3 -7.15182e-16 0)
(3 -8.528e-17 0)
(3 4.51265e-16 0)
(3 1.49933e-15 0)
(3 2.00738e-15 0)
(3 2.23484e-15 0)
(3 -3.71153e-16 0)
(1.52445 0.0385854 0)
(0.768546 0.0369534 0)
(0.715198 0.0328388 0)
(0.688606 0.0343358 0)
(0.658909 0.0358899 0)
(0.62972 0.0377534 0)
(0.599616 0.0395893 0)
(0.568924 0.0407888 0)
(0.538028 0.041081 0)
(0.507489 0.0406214 0)
(0.477574 0.040277 0)
(0.447869 0.0411585 0)
(0.417606 0.0430119 0)
(0.386499 0.0446357 0)
(0.354843 0.0457761 0)
(0.322754 0.0470301 0)
(0.290039 0.0486913 0)
(0.256482 0.0507164 0)
(0.221875 0.053106 0)
(0.185895 0.0558734 0)
(0.1482 0.0589993 0)
(0.108338 0.0625675 0)
(0.0662343 0.0647127 0)
(0.0232515 0.0673946 0)
(3 -1.28266e-16 0)
(3 -1.81089e-16 0)
(3 4.16985e-16 0)
(3 6.28424e-16 0)
(3 6.25975e-16 0)
(3 5.35309e-16 0)
(3 1.67726e-16 0)
(3 6.62249e-17 0)
(3 -8.29464e-17 0)
(3 -4.85359e-16 0)
(3 -7.66396e-17 0)
(3 -2.15874e-16 0)
(3 -1.73999e-16 0)
(3 -4.62399e-16 0)
(3 -9.72915e-17 0)
(3 2.6776e-17 0)
(3 3.2349e-16 0)
(3 4.31898e-16 0)
(3 -3.02013e-16 0)
(3 -7.09876e-16 0)
(3 -3.75102e-16 0)
(3 -3.37678e-16 0)
(3 2.0641e-16 0)
(3 3.55943e-16 0)
(3 -1.96857e-16 0)
(3 -1.46349e-16 0)
(3 -5.91859e-17 0)
(3 5.47323e-16 0)
(3 3.6088e-16 0)
(3 -3.74555e-16 0)
(3 -6.14999e-16 0)
(3 -5.54298e-16 0)
(3 5.08095e-16 0)
(3 1.38153e-15 0)
(3 1.66968e-15 0)
(3 1.44822e-15 0)
(3 4.23956e-16 0)
(3 -9.25914e-16 0)
(3 -1.48242e-15 0)
(3 -1.65091e-15 0)
(3 -1.28925e-15 0)
(3 8.45547e-16 0)
(3 2.43403e-15 0)
(3 2.40086e-15 0)
(3 2.06455e-15 0)
(3 1.40758e-15 0)
(3 -2.94784e-16 0)
(3 -1.60198e-15 0)
(3 -1.7403e-15 0)
(3 -1.32419e-15 0)
(3 -1.12305e-15 0)
(3 -9.64862e-16 0)
(3 -6.69952e-16 0)
(3 -5.61322e-16 0)
(3 -6.45026e-16 0)
(3 -2.47237e-16 0)
(3 3.15645e-17 0)
(3 -1.32702e-16 0)
(3 -9.17617e-17 0)
(3 -2.13502e-16 0)
(3 -4.83832e-16 0)
(3 -2.50984e-16 0)
(3 -1.54431e-16 0)
(3 1.72231e-16 0)
(3 -6.62829e-17 0)
(3 -7.74702e-16 0)
(3 -5.37921e-16 0)
(3 5.64881e-16 0)
(3 1.05442e-15 0)
(3 7.85601e-16 0)
(3 1.47673e-15 0)
(3 -1.9372e-15 0)
(1.57433 0.0684017 0)
(0.775515 0.0644551 0)
(0.717193 0.0571075 0)
(0.688802 0.0588382 0)
(0.658084 0.0610639 0)
(0.628212 0.063921 0)
(0.59769 0.0668628 0)
(0.566622 0.0688465 0)
(0.535271 0.0693775 0)
(0.504155 0.0686185 0)
(0.473579 0.0679374 0)
(0.443231 0.0692222 0)
(0.412428 0.0721381 0)
(0.380784 0.0747092 0)
(0.34856 0.0764536 0)
(0.315907 0.0782978 0)
(0.28272 0.0807138 0)
(0.248915 0.08366 0)
(0.214437 0.0872038 0)
(0.179084 0.0914894 0)
(0.142535 0.0965403 0)
(0.104313 0.10261 0)
(0.0638479 0.106555 0)
(0.0226015 0.111578 0)
(3 1.42146e-16 0)
(3 1.52038e-16 0)
(3 2.45195e-16 0)
(3 3.44425e-16 0)
(3 4.83894e-16 0)
(3 6.99736e-16 0)
(3 1.10645e-15 0)
(3 7.61591e-16 0)
(3 -3.49979e-16 0)
(3 -8.38112e-16 0)
(3 -1.1899e-15 0)
(3 -7.17526e-16 0)
(3 -1.73706e-16 0)
(3 9.54549e-16 0)
(3 1.2848e-15 0)
(3 1.77692e-15 0)
(3 1.50527e-15 0)
(3 1.05287e-15 0)
(3 1.08746e-15 0)
(3 9.26546e-16 0)
(3 4.38101e-16 0)
(3 2.07455e-16 0)
(3 3.50937e-16 0)
(3 7.75129e-17 0)
(3 -1.95726e-16 0)
(3 3.27265e-16 0)
(3 7.5809e-16 0)
(3 9.85169e-16 0)
(3 -1.52854e-16 0)
(3 -3.16935e-16 0)
(3 -7.67783e-16 0)
(3 -1.30071e-15 0)
(3 -1.31617e-15 0)
(3 -1.36706e-15 0)
(3 -7.00654e-16 0)
(3 1.07978e-16 0)
(3 1.1355e-16 0)
(3 9.752e-16 0)
(3 8.9732e-16 0)
(3 6.33145e-16 0)
(3 6.40125e-16 0)
(3 1.00258e-15 0)
(3 1.1476e-15 0)
(3 1.64472e-15 0)
(3 1.65219e-15 0)
(3 6.30976e-16 0)
(3 1.51764e-17 0)
(3 -2.94526e-16 0)
(3 -5.41711e-16 0)
(3 -4.66051e-16 0)
(3 -9.68649e-17 0)
(3 -2.77507e-16 0)
(3 -1.20648e-15 0)
(3 -1.84524e-15 0)
(3 -1.75237e-15 0)
(3 -1.74141e-15 0)
(3 -1.68799e-15 0)
(3 -1.66989e-15 0)
(3 -1.72918e-15 0)
(3 -1.27971e-15 0)
(3 -1.33336e-15 0)
(3 -1.58201e-15 0)
(3 -3.22663e-16 0)
(3 3.18855e-16 0)
(3 9.11679e-16 0)
(3 5.8582e-16 0)
(3 4.23969e-18 0)
(3 -3.86483e-18 0)
(3 -7.62022e-17 0)
(3 -1.26273e-16 0)
(3 4.37039e-17 0)
(3 1.01422e-15 0)
(1.65047 0.0949993 0)
(0.784761 0.091576 0)
(0.720604 0.0825173 0)
(0.691277 0.0836716 0)
(0.660343 0.0861795 0)
(0.630606 0.0897738 0)
(0.600507 0.0937468 0)
(0.569847 0.0966401 0)
(0.538672 0.0976949 0)
(0.507409 0.0969652 0)
(0.4764 0.0961751 0)
(0.445506 0.0979844 0)
(0.414188 0.102073 0)
(0.381932 0.105781 0)
(0.348933 0.108356 0)
(0.315353 0.110959 0)
(0.281131 0.114165 0)
(0.246267 0.117869 0)
(0.210863 0.122146 0)
(0.174924 0.127325 0)
(0.138313 0.13354 0)
(0.100821 0.141541 0)
(0.061431 0.14704 0)
(0.021824 0.154322 0)
(3 -4.53103e-18 0)
(3 1.37858e-16 0)
(3 -2.92739e-16 0)
(3 -3.23168e-16 0)
(3 -8.21132e-17 0)
(3 -8.13879e-17 0)
(3 -5.25392e-17 0)
(3 -4.43386e-16 0)
(3 -2.41761e-16 0)
(3 -4.83197e-16 0)
(3 -5.34683e-16 0)
(3 -3.81573e-16 0)
(3 -1.21954e-16 0)
(3 5.80574e-16 0)
(3 9.09177e-16 0)
(3 9.50512e-16 0)
(3 6.4143e-16 0)
(3 2.49726e-16 0)
(3 2.23434e-16 0)
(3 3.56802e-16 0)
(3 7.00329e-16 0)
(3 1.00056e-15 0)
(3 9.29177e-16 0)
(3 3.40177e-16 0)
(3 3.69565e-16 0)
(3 6.78455e-16 0)
(3 2.34912e-16 0)
(3 -7.15762e-16 0)
(3 -3.69066e-16 0)
(3 -5.17176e-16 0)
(3 -1.26953e-15 0)
(3 -1.35898e-15 0)
(3 -1.61297e-15 0)
(3 -1.62489e-15 0)
(3 -1.35298e-15 0)
(3 -9.52954e-16 0)
(3 -1.49464e-16 0)
(3 1.06284e-15 0)
(3 1.11409e-15 0)
(3 1.18418e-15 0)
(3 9.13951e-16 0)
(3 -1.05201e-16 0)
(3 -9.5576e-16 0)
(3 -1.16375e-15 0)
(3 -1.39629e-15 0)
(3 -8.264e-16 0)
(3 1.96553e-16 0)
(3 1.58247e-15 0)
(3 1.21779e-15 0)
(3 2.46455e-16 0)
(3 -2.68307e-16 0)
(3 -6.12219e-16 0)
(3 -1.09074e-15 0)
(3 -1.48436e-15 0)
(3 -1.28713e-15 0)
(3 -1.17548e-15 0)
(3 -1.37046e-15 0)
(3 -1.65579e-15 0)
(3 -2.13975e-15 0)
(3 -2.41037e-15 0)
(3 -2.17653e-15 0)
(3 -1.87527e-15 0)
(3 -7.33262e-16 0)
(3 -1.65109e-16 0)
(3 6.58702e-16 0)
(3 1.37685e-15 0)
(3 9.49011e-16 0)
(3 -4.97935e-17 0)
(3 -2.92193e-16 0)
(3 -3.97582e-16 0)
(3 5.29939e-17 0)
(3 4.26402e-17 0)
(1.75471 0.120946 0)
(0.796472 0.119019 0)
(0.723033 0.109687 0)
(0.692476 0.1093 0)
(0.661148 0.111563 0)
(0.631498 0.115447 0)
(0.601942 0.120208 0)
(0.571973 0.124036 0)
(0.541356 0.125847 0)
(0.510358 0.125434 0)
(0.479369 0.124638 0)
(0.448453 0.1269 0)
(0.417262 0.132095 0)
(0.38511 0.136991 0)
(0.352085 0.14054 0)
(0.318324 0.144082 0)
(0.283737 0.148268 0)
(0.248299 0.152906 0)
(0.212143 0.157988 0)
(0.175393 0.163967 0)
(0.138044 0.170936 0)
(0.100291 0.180343 0)
(0.0607948 0.186959 0)
(0.0216806 0.196098 0)
(3 -6.8122e-17 0)
(3 7.21342e-17 0)
(3 1.67777e-16 0)
(3 -6.25576e-17 0)
(3 5.93691e-17 0)
(3 -1.36262e-16 0)
(3 -1.32147e-15 0)
(3 -1.64782e-15 0)
(3 -8.98304e-16 0)
(3 -3.00952e-17 0)
(3 3.26598e-16 0)
(3 6.37548e-17 0)
(3 -1.13829e-16 0)
(3 1.05373e-16 0)
(3 2.81075e-16 0)
(3 -4.92385e-16 0)
(3 -6.66438e-16 0)
(3 -7.85267e-16 0)
(3 -1.04597e-15 0)
(3 -6.83671e-16 0)
(3 -6.1863e-17 0)
(3 3.97605e-16 0)
(3 5.77689e-18 0)
(3 9.79996e-19 0)
(3 5.54608e-17 0)
(3 -2.39587e-16 0)
(3 2.44706e-16 0)
(3 6.78631e-16 0)
(3 -8.31519e-17 0)
(3 -1.11329e-15 0)
(3 -1.48782e-15 0)
(3 -1.48742e-15 0)
(3 -2.02232e-15 0)
(3 -2.22903e-15 0)
(3 -2.22371e-15 0)
(3 -1.83852e-15 0)
(3 -1.01974e-15 0)
(3 -1.07171e-15 0)
(3 -1.63196e-16 0)
(3 3.76222e-16 0)
(3 1.77838e-16 0)
(3 -2.42574e-16 0)
(3 -7.43919e-16 0)
(3 -2.39858e-15 0)
(3 -3.05221e-15 0)
(3 -2.18031e-15 0)
(3 4.10538e-16 0)
(3 1.62981e-15 0)
(3 2.64445e-15 0)
(3 1.86853e-15 0)
(3 5.90112e-16 0)
(3 -1.84129e-16 0)
(3 -2.55671e-16 0)
(3 2.50531e-16 0)
(3 -3.12565e-17 0)
(3 -3.42739e-16 0)
(3 -1.07444e-15 0)
(3 -1.48843e-15 0)
(3 -9.19079e-16 0)
(3 -1.34109e-15 0)
(3 -1.70318e-15 0)
(3 -1.82163e-15 0)
(3 -1.79897e-15 0)
(3 -1.36335e-15 0)
(3 -6.95507e-16 0)
(3 -3.96807e-16 0)
(3 -4.03343e-16 0)
(3 -5.27384e-16 0)
(3 -5.35888e-16 0)
(3 -7.18223e-16 0)
(3 -6.4779e-16 0)
(3 -2.00261e-15 0)
(1.89435 0.144534 0)
(0.813832 0.147184 0)
(0.727406 0.138339 0)
(0.695989 0.135457 0)
(0.664381 0.137095 0)
(0.634781 0.140907 0)
(0.605603 0.146184 0)
(0.576177 0.150922 0)
(0.545997 0.15374 0)
(0.515105 0.154044 0)
(0.483918 0.15347 0)
(0.452741 0.156175 0)
(0.421473 0.162428 0)
(0.389263 0.168578 0)
(0.356066 0.173246 0)
(0.322007 0.177895 0)
(0.286973 0.183222 0)
(0.25092 0.188933 0)
(0.214005 0.194882 0)
(0.176455 0.201652 0)
(0.138308 0.209141 0)
(0.100168 0.219658 0)
(0.0603986 0.22711 0)
(0.0215896 0.237781 0)
(3 -3.63055e-17 0)
(3 -4.73762e-16 0)
(3 -1.95558e-16 0)
(3 -2.8629e-16 0)
(3 -5.4977e-16 0)
(3 -4.66096e-16 0)
(3 -5.13202e-16 0)
(3 -8.39398e-16 0)
(3 -1.15587e-15 0)
(3 -8.63556e-16 0)
(3 -3.45921e-16 0)
(3 -3.18912e-16 0)
(3 -6.03464e-16 0)
(3 -9.16972e-16 0)
(3 -9.08472e-16 0)
(3 -7.79589e-16 0)
(3 -6.88666e-16 0)
(3 -8.47851e-16 0)
(3 -7.6327e-16 0)
(3 -6.01661e-16 0)
(3 -8.24137e-17 0)
(3 -2.1816e-16 0)
(3 -6.41453e-16 0)
(3 -3.9338e-16 0)
(3 -2.19775e-16 0)
(3 -3.01506e-16 0)
(3 1.01103e-17 0)
(3 3.74543e-16 0)
(3 2.91586e-16 0)
(3 -5.37851e-16 0)
(3 -8.55867e-16 0)
(3 -1.50818e-15 0)
(3 -2.38497e-15 0)
(3 -2.52728e-15 0)
(3 -2.55654e-15 0)
(3 -2.37465e-15 0)
(3 -2.44423e-15 0)
(3 -2.98935e-15 0)
(3 -2.30532e-15 0)
(3 -1.70736e-15 0)
(3 -1.73988e-15 0)
(3 -1.54724e-15 0)
(3 -2.29456e-15 0)
(3 -3.029e-15 0)
(3 -3.42486e-15 0)
(3 -2.62018e-15 0)
(3 -2.42715e-15 0)
(3 -1.36359e-15 0)
(3 -3.20676e-16 0)
(3 -2.55661e-16 0)
(3 7.61236e-17 0)
(3 -1.20768e-16 0)
(3 -5.06056e-16 0)
(3 -5.88874e-16 0)
(3 -5.18299e-16 0)
(3 -1.12965e-15 0)
(3 -1.91414e-15 0)
(3 -1.86711e-15 0)
(3 -1.40306e-15 0)
(3 -9.96464e-16 0)
(3 -1.36392e-15 0)
(3 -1.31751e-15 0)
(3 -5.43523e-16 0)
(3 -2.30982e-17 0)
(3 -5.38032e-16 0)
(3 -1.15428e-15 0)
(3 -1.22729e-15 0)
(3 -8.91701e-16 0)
(3 -7.04701e-16 0)
(3 -3.78041e-16 0)
(3 -1.29911e-16 0)
(3 7.51494e-16 0)
(2.06805 0.162812 0)
(0.836704 0.176514 0)
(0.732445 0.167432 0)
(0.700868 0.161522 0)
(0.669144 0.162251 0)
(0.639741 0.165838 0)
(0.611037 0.171439 0)
(0.582413 0.176999 0)
(0.553167 0.18093 0)
(0.523019 0.182255 0)
(0.492291 0.182059 0)
(0.461468 0.185119 0)
(0.430649 0.192343 0)
(0.398764 0.199847 0)
(0.365607 0.20587 0)
(0.331356 0.211922 0)
(0.295879 0.218694 0)
(0.259086 0.22578 0)
(0.221109 0.232833 0)
(0.182264 0.240577 0)
(0.142575 0.24856 0)
(0.103069 0.260019 0)
(0.0619072 0.268098 0)
(0.0221577 0.280005 0)
(3 -8.65908e-17 0)
(3 -4.14249e-16 0)
(3 -2.47422e-16 0)
(3 -2.33329e-16 0)
(3 -4.24013e-16 0)
(3 -4.60818e-16 0)
(3 -2.73244e-16 0)
(3 1.14014e-16 0)
(3 -3.56461e-16 0)
(3 -1.1887e-15 0)
(3 -7.1843e-16 0)
(3 -6.02719e-17 0)
(3 -3.12165e-16 0)
(3 -1.14743e-15 0)
(3 -1.01384e-15 0)
(3 -3.03937e-16 0)
(3 1.35632e-16 0)
(3 4.56086e-17 0)
(3 2.22252e-16 0)
(3 1.63007e-16 0)
(3 6.10055e-16 0)
(3 -2.37321e-16 0)
(3 -4.96797e-16 0)
(3 -8.65889e-16 0)
(3 -7.63598e-16 0)
(3 -7.70226e-16 0)
(3 -1.34072e-15 0)
(3 -8.62754e-16 0)
(3 -4.99917e-16 0)
(3 -4.11272e-16 0)
(3 -7.83224e-16 0)
(3 -1.06776e-15 0)
(3 -1.3644e-15 0)
(3 -1.54947e-15 0)
(3 -1.92973e-15 0)
(3 -2.18247e-15 0)
(3 -2.97598e-15 0)
(3 -3.99752e-15 0)
(3 -3.81202e-15 0)
(3 -3.73399e-15 0)
(3 -2.23421e-15 0)
(3 -1.88974e-15 0)
(3 -2.10172e-15 0)
(3 -2.32444e-15 0)
(3 -2.85986e-15 0)
(3 -2.37103e-15 0)
(3 -1.75265e-15 0)
(3 -1.9001e-15 0)
(3 -2.49384e-15 0)
(3 -2.23171e-15 0)
(3 -1.85968e-15 0)
(3 -1.23472e-15 0)
(3 -1.17609e-15 0)
(3 -1.20086e-15 0)
(3 -1.02425e-15 0)
(3 -1.03919e-15 0)
(3 -1.22955e-15 0)
(3 -1.78264e-15 0)
(3 -2.20942e-15 0)
(3 -1.84733e-15 0)
(3 -1.79799e-15 0)
(3 -1.15379e-15 0)
(3 -1.44578e-16 0)
(3 -2.93262e-16 0)
(3 -1.26946e-15 0)
(3 -1.8835e-15 0)
(3 -1.50233e-15 0)
(3 -8.99695e-16 0)
(3 -7.28543e-16 0)
(3 -7.15592e-16 0)
(3 -2.74306e-16 0)
(3 -5.76912e-16 0)
(2.27598 0.175873 0)
(0.865252 0.209618 0)
(0.73476 0.197822 0)
(0.702814 0.189117 0)
(0.670222 0.188872 0)
(0.640594 0.191829 0)
(0.611955 0.197232 0)
(0.583738 0.203171 0)
(0.55516 0.208056 0)
(0.525684 0.210564 0)
(0.495528 0.210876 0)
(0.465429 0.214147 0)
(0.435844 0.222233 0)
(0.405392 0.231163 0)
(0.37346 0.238708 0)
(0.340126 0.246421 0)
(0.305078 0.255015 0)
(0.268077 0.263938 0)
(0.229233 0.272529 0)
(0.189087 0.281578 0)
(0.147716 0.290155 0)
(0.1066 0.302444 0)
(0.0638105 0.310977 0)
(0.0227556 0.323831 0)
(3 1.00909e-16 0)
(3 4.08511e-16 0)
(3 7.07631e-16 0)
(3 3.74061e-16 0)
(3 2.14624e-16 0)
(3 -2.62702e-16 0)
(3 -1.33056e-16 0)
(3 2.00968e-17 0)
(3 1.26318e-16 0)
(3 3.10115e-16 0)
(3 2.06835e-16 0)
(3 4.56189e-16 0)
(3 5.2375e-16 0)
(3 5.58012e-16 0)
(3 3.85877e-16 0)
(3 2.89379e-16 0)
(3 5.11743e-16 0)
(3 1.11163e-15 0)
(3 1.28637e-15 0)
(3 4.71196e-16 0)
(3 -1.13795e-15 0)
(3 -1.36907e-15 0)
(3 -7.22627e-16 0)
(3 -9.97991e-16 0)
(3 -1.71448e-15 0)
(3 -1.54208e-15 0)
(3 -9.93497e-16 0)
(3 -1.09498e-15 0)
(3 -9.97731e-16 0)
(3 -1.14005e-15 0)
(3 -1.16873e-15 0)
(3 -1.34882e-15 0)
(3 -7.26852e-16 0)
(3 -1.38554e-16 0)
(3 -5.80328e-16 0)
(3 -2.4352e-15 0)
(3 -3.26732e-15 0)
(3 -3.34145e-15 0)
(3 -2.96487e-15 0)
(3 -2.24843e-15 0)
(3 -1.49559e-15 0)
(3 -1.61268e-15 0)
(3 -1.35498e-15 0)
(3 -1.16088e-15 0)
(3 -1.30849e-15 0)
(3 -9.7667e-16 0)
(3 -1.34964e-15 0)
(3 -1.99397e-15 0)
(3 -2.09324e-15 0)
(3 -1.73847e-15 0)
(3 -2.04405e-15 0)
(3 -1.89284e-15 0)
(3 -1.20603e-15 0)
(3 -1.40581e-15 0)
(3 -1.50434e-15 0)
(3 -1.49488e-15 0)
(3 -1.46769e-15 0)
(3 -2.13697e-15 0)
(3 -2.7317e-15 0)
(3 -3.08565e-15 0)
(3 -2.65379e-15 0)
(3 -2.02379e-15 0)
(3 -2.28826e-15 0)
(3 -2.6458e-15 0)
(3 -2.5659e-15 0)
(3 -2.59059e-15 0)
(3 -2.0343e-15 0)
(3 -1.92566e-15 0)
(3 -1.75711e-15 0)
(3 -1.11494e-15 0)
(3 -2.57881e-16 0)
(3 -1.69853e-15 0)
(2.51812 0.182984 0)
(0.911609 0.247467 0)
(0.749624 0.227682 0)
(0.7204 0.218297 0)
(0.686633 0.216929 0)
(0.655626 0.219147 0)
(0.625182 0.224282 0)
(0.595233 0.230469 0)
(0.565235 0.236048 0)
(0.534623 0.239538 0)
(0.503477 0.240116 0)
(0.472711 0.242919 0)
(0.443268 0.251211 0)
(0.413667 0.261338 0)
(0.3827 0.270509 0)
(0.350354 0.280219 0)
(0.316165 0.291156 0)
(0.279644 0.302519 0)
(0.240659 0.313216 0)
(0.199749 0.324102 0)
(0.156751 0.333761 0)
(0.113477 0.347207 0)
(0.0679867 0.356392 0)
(0.024237 0.370169 0)
(3 1.32019e-16 0)
(3 5.2997e-16 0)
(3 6.56633e-16 0)
(3 4.71402e-16 0)
(3 6.08886e-16 0)
(3 3.82042e-16 0)
(3 5.12638e-16 0)
(3 1.37945e-16 0)
(3 4.34794e-16 0)
(3 8.62074e-16 0)
(3 5.01244e-16 0)
(3 3.00337e-16 0)
(3 7.81109e-16 0)
(3 9.09353e-16 0)
(3 8.86535e-16 0)
(3 5.62745e-16 0)
(3 2.70998e-16 0)
(3 2.13004e-16 0)
(3 -1.944e-16 0)
(3 -6.58334e-16 0)
(3 -1.00763e-15 0)
(3 -1.02777e-15 0)
(3 -7.07172e-16 0)
(3 -1.96978e-16 0)
(3 6.03886e-17 0)
(3 1.92845e-17 0)
(3 1.98201e-16 0)
(3 -1.88074e-16 0)
(3 -4.39761e-16 0)
(3 -8.43165e-16 0)
(3 -9.40258e-16 0)
(3 -7.25941e-16 0)
(3 -3.31574e-16 0)
(3 -1.75682e-16 0)
(3 -4.61795e-16 0)
(3 -8.1211e-16 0)
(3 -1.67274e-15 0)
(3 -1.71163e-15 0)
(3 -1.93348e-15 0)
(3 -2.11519e-15 0)
(3 -2.15793e-15 0)
(3 -1.98497e-15 0)
(3 -1.35535e-15 0)
(3 1.86932e-17 0)
(3 3.21412e-17 0)
(3 -5.9304e-16 0)
(3 -1.12134e-15 0)
(3 -1.95956e-15 0)
(3 -1.96378e-15 0)
(3 -2.09718e-15 0)
(3 -1.55758e-15 0)
(3 -1.34213e-15 0)
(3 -1.22494e-15 0)
(3 -1.46371e-15 0)
(3 -1.6202e-15 0)
(3 -1.68948e-15 0)
(3 -2.46545e-15 0)
(3 -2.24804e-15 0)
(3 -2.77722e-15 0)
(3 -3.0946e-15 0)
(3 -2.79247e-15 0)
(3 -2.69824e-15 0)
(3 -3.57492e-15 0)
(3 -3.72797e-15 0)
(3 -2.95153e-15 0)
(3 -2.46513e-15 0)
(3 -1.7741e-15 0)
(3 -1.9312e-15 0)
(3 -1.41531e-15 0)
(3 -7.1977e-16 0)
(3 2.17209e-16 0)
(3 1.12133e-16 0)
(2.78164 0.164354 0)
(0.990098 0.278036 0)
(0.784381 0.244541 0)
(0.75897 0.24097 0)
(0.721957 0.242665 0)
(0.688199 0.245788 0)
(0.65442 0.251478 0)
(0.621115 0.258431 0)
(0.587903 0.265161 0)
(0.554396 0.270057 0)
(0.520554 0.271198 0)
(0.487287 0.273171 0)
(0.455966 0.280992 0)
(0.425527 0.291855 0)
(0.394245 0.302384 0)
(0.362057 0.313924 0)
(0.3284 0.327317 0)
(0.292292 0.341631 0)
(0.253019 0.355307 0)
(0.211063 0.369049 0)
(0.166134 0.380695 0)
(0.120465 0.395756 0)
(0.0721554 0.405789 0)
(0.0254048 0.42024 0)
(3 -6.99501e-17 0)
(3 -7.90575e-17 0)
(3 -1.94603e-16 0)
(3 8.73655e-17 0)
(3 -1.79306e-19 0)
(3 7.48767e-17 0)
(3 2.60545e-16 0)
(3 4.39897e-16 0)
(3 5.75747e-16 0)
(3 1.6294e-16 0)
(3 -6.30387e-16 0)
(3 -7.31203e-16 0)
(3 -1.87188e-16 0)
(3 5.41504e-16 0)
(3 8.60826e-16 0)
(3 7.67256e-16 0)
(3 4.29997e-16 0)
(3 5.39926e-17 0)
(3 -2.95808e-16 0)
(3 -3.73191e-18 0)
(3 -3.84883e-17 0)
(3 -4.35516e-16 0)
(3 -1.52173e-16 0)
(3 7.18401e-16 0)
(3 1.17346e-15 0)
(3 1.42679e-15 0)
(3 1.33648e-15 0)
(3 7.77287e-16 0)
(3 -2.23974e-16 0)
(3 -2.98494e-16 0)
(3 -4.46812e-17 0)
(3 3.31204e-16 0)
(3 1.12185e-16 0)
(3 8.29027e-17 0)
(3 5.04824e-16 0)
(3 9.24798e-16 0)
(3 5.18802e-16 0)
(3 -2.22604e-16 0)
(3 -1.11528e-15 0)
(3 -1.79112e-15 0)
(3 -1.56169e-15 0)
(3 -1.19632e-15 0)
(3 -6.04194e-16 0)
(3 -1.04767e-18 0)
(3 5.32892e-16 0)
(3 -2.35123e-16 0)
(3 -7.24148e-16 0)
(3 -1.16708e-15 0)
(3 -1.44908e-15 0)
(3 -1.64633e-15 0)
(3 -1.61031e-15 0)
(3 -1.73774e-15 0)
(3 -1.66627e-15 0)
(3 -1.08664e-15 0)
(3 -1.17783e-15 0)
(3 -1.23753e-15 0)
(3 -1.90003e-15 0)
(3 -2.3649e-15 0)
(3 -2.25971e-15 0)
(3 -1.77606e-15 0)
(3 -1.25792e-15 0)
(3 -1.54829e-15 0)
(3 -2.26461e-15 0)
(3 -2.54167e-15 0)
(3 -2.61325e-15 0)
(3 -2.59368e-15 0)
(3 -2.27852e-15 0)
(3 -1.59576e-15 0)
(3 -1.02393e-15 0)
(3 -1.92573e-15 0)
(3 -1.70333e-15 0)
(3 -5.84922e-16 0)
(2.98273 0.0470585 0)
(1.08573 0.285715 0)
(0.807893 0.256861 0)
(0.792308 0.265751 0)
(0.758343 0.270196 0)
(0.724798 0.274309 0)
(0.689551 0.280953 0)
(0.654159 0.288984 0)
(0.618807 0.296746 0)
(0.58315 0.302757 0)
(0.546732 0.304767 0)
(0.510398 0.30597 0)
(0.475939 0.312811 0)
(0.443262 0.323875 0)
(0.410467 0.335269 0)
(0.37741 0.348094 0)
(0.343736 0.363658 0)
(0.308186 0.381087 0)
(0.269458 0.398201 0)
(0.227676 0.415382 0)
(0.181651 0.429845 0)
(0.133349 0.447707 0)
(0.0805768 0.45981 0)
(0.0284619 0.475507 0)
(3 -1.25461e-16 0)
(3 -6.88003e-16 0)
(3 -7.70707e-16 0)
(3 -8.28697e-16 0)
(3 -1.45267e-15 0)
(3 -9.29338e-16 0)
(3 -5.95392e-16 0)
(3 -6.10582e-17 0)
(3 7.40821e-16 0)
(3 5.99664e-16 0)
(3 2.945e-16 0)
(3 -4.71787e-16 0)
(3 -5.07453e-16 0)
(3 -1.01679e-16 0)
(3 2.94088e-16 0)
(3 1.79101e-16 0)
(3 -2.3563e-17 0)
(3 -1.09309e-16 0)
(3 -9.98695e-17 0)
(3 4.65748e-16 0)
(3 -4.00953e-17 0)
(3 -6.29155e-16 0)
(3 -8.23561e-16 0)
(3 -2.46939e-16 0)
(3 2.87017e-16 0)
(3 7.74315e-16 0)
(3 1.09267e-15 0)
(3 4.02745e-16 0)
(3 -4.54114e-16 0)
(3 -7.14854e-16 0)
(3 1.45099e-15 0)
(3 2.01182e-15 0)
(3 1.04255e-15 0)
(3 3.1594e-16 0)
(3 4.52747e-16 0)
(3 3.31977e-16 0)
(3 5.86031e-16 0)
(3 -4.84995e-16 0)
(3 -1.04227e-15 0)
(3 -5.14773e-16 0)
(3 -5.99341e-16 0)
(3 -4.23974e-16 0)
(3 1.24356e-16 0)
(3 4.5607e-16 0)
(3 5.32669e-16 0)
(3 -1.09162e-16 0)
(3 -9.26952e-16 0)
(3 -1.3245e-15 0)
(3 -1.33702e-15 0)
(3 -1.31208e-15 0)
(3 -1.01868e-15 0)
(3 -1.18251e-15 0)
(3 -1.04505e-15 0)
(3 -8.67053e-16 0)
(3 -5.10345e-16 0)
(3 -1.36072e-15 0)
(3 -1.71144e-15 0)
(3 -1.81375e-15 0)
(3 -1.31909e-15 0)
(3 -9.77511e-16 0)
(3 -1.06883e-15 0)
(3 -1.11628e-15 0)
(3 -1.31695e-15 0)
(3 -1.25665e-15 0)
(3 -8.13116e-16 0)
(3 -8.57448e-16 0)
(3 -7.82438e-16 0)
(3 -8.86911e-16 0)
(3 -1.15151e-15 0)
(3 -8.48416e-16 0)
(3 -3.91845e-16 0)
(3 -1.15347e-15 0)
(3.00997 0.0038374 0)
(1.17264 0.284898 0)
(0.803766 0.268326 0)
(0.793957 0.293352 0)
(0.765875 0.301375 0)
(0.738885 0.306034 0)
(0.710508 0.311963 0)
(0.680417 0.319538 0)
(0.64821 0.328557 0)
(0.614031 0.336918 0)
(0.57773 0.341008 0)
(0.539969 0.342348 0)
(0.502814 0.34808 0)
(0.467464 0.358815 0)
(0.432542 0.370505 0)
(0.397851 0.383788 0)
(0.363489 0.400757 0)
(0.328154 0.420964 0)
(0.289407 0.441987 0)
(0.246588 0.464408 0)
(0.197419 0.48416 0)
(0.145391 0.506693 0)
(0.0879911 0.52212 0)
(0.0299454 0.538468 0)
(3 6.9341e-17 0)
(3 -2.68279e-16 0)
(3 -3.13969e-16 0)
(3 -4.10807e-16 0)
(3 -7.58305e-16 0)
(3 -6.28877e-16 0)
(3 -3.68825e-16 0)
(3 -1.84318e-16 0)
(3 -4.14524e-16 0)
(3 7.06945e-17 0)
(3 8.47309e-16 0)
(3 9.8044e-16 0)
(3 -7.61995e-18 0)
(3 -3.32687e-16 0)
(3 -5.21625e-16 0)
(3 -5.16e-16 0)
(3 -8.30698e-16 0)
(3 -1.00779e-15 0)
(3 -5.83243e-16 0)
(3 -2.73326e-16 0)
(3 -2.6085e-16 0)
(3 -8.4204e-16 0)
(3 -7.70171e-16 0)
(3 -1.22997e-15 0)
(3 -1.1209e-15 0)
(3 -2.6024e-16 0)
(3 2.25519e-17 0)
(3 1.04823e-16 0)
(3 2.25031e-16 0)
(3 8.15565e-16 0)
(3 1.74515e-15 0)
(3 1.88767e-15 0)
(3 9.54865e-16 0)
(3 -2.08181e-16 0)
(3 -7.85848e-16 0)
(3 -1.58106e-15 0)
(3 -9.80233e-16 0)
(3 -4.07913e-16 0)
(3 -1.35837e-16 0)
(3 2.80967e-16 0)
(3 1.06449e-16 0)
(3 6.15188e-16 0)
(3 8.44784e-16 0)
(3 8.42919e-16 0)
(3 6.93236e-16 0)
(3 -3.01373e-16 0)
(3 -1.06323e-15 0)
(3 -1.8276e-15 0)
(3 -1.90977e-15 0)
(3 -1.54732e-15 0)
(3 -8.24965e-16 0)
(3 -2.96237e-16 0)
(3 -5.82304e-16 0)
(3 -1.05953e-15 0)
(3 -1.13448e-15 0)
(3 -1.89144e-15 0)
(3 -2.21122e-15 0)
(3 -1.42843e-15 0)
(3 -8.26334e-16 0)
(3 -9.18663e-16 0)
(3 -1.47882e-15 0)
(3 -1.90103e-15 0)
(3 -2.1797e-15 0)
(3 -1.75841e-15 0)
(3 -9.07418e-16 0)
(3 -3.23059e-16 0)
(3 1.50249e-16 0)
(3 2.92143e-16 0)
(3 -5.49747e-16 0)
(3 -4.05192e-16 0)
(3 -3.76589e-16 0)
(3 -1.16863e-15 0)
(3.00022 6.37639e-06 0)
(1.31714 0.308144 0)
(0.796705 0.276624 0)
(0.774367 0.306475 0)
(0.751051 0.322177 0)
(0.728875 0.329691 0)
(0.708112 0.337509 0)
(0.687745 0.346586 0)
(0.666059 0.356628 0)
(0.64038 0.367051 0)
(0.609274 0.374786 0)
(0.573778 0.378768 0)
(0.536307 0.384919 0)
(0.49925 0.395849 0)
(0.462359 0.407801 0)
(0.425257 0.421367 0)
(0.38937 0.439081 0)
(0.353518 0.462047 0)
(0.314531 0.487714 0)
(0.272624 0.516113 0)
(0.224045 0.541241 0)
(0.171056 0.569354 0)
(0.1067 0.591975 0)
(0.0384505 0.612643 0)
(3 4.99231e-17 0)
(3 -1.00063e-16 0)
(3 -2.0046e-16 0)
(3 -1.7746e-16 0)
(3 -6.64136e-17 0)
(3 3.44827e-17 0)
(3 -1.40229e-17 0)
(3 2.10954e-17 0)
(3 -7.62407e-16 0)
(3 -6.78598e-16 0)
(3 -2.38136e-16 0)
(3 -5.73164e-17 0)
(3 -8.8556e-17 0)
(3 -7.58982e-16 0)
(3 -1.16193e-15 0)
(3 -1.22292e-15 0)
(3 -1.08892e-15 0)
(3 -8.39202e-16 0)
(3 -1.13159e-15 0)
(3 -1.59804e-15 0)
(3 -1.17995e-15 0)
(3 -1.9489e-16 0)
(3 8.74384e-16 0)
(3 5.43789e-16 0)
(3 1.83402e-16 0)
(3 -5.43189e-16 0)
(3 -1.53468e-15 0)
(3 -3.47038e-19 0)
(3 5.32226e-16 0)
(3 1.06429e-15 0)
(3 3.10553e-16 0)
(3 -6.69351e-17 0)
(3 9.76365e-17 0)
(3 1.09644e-16 0)
(3 1.73119e-17 0)
(3 2.90534e-16 0)
(3 7.06804e-16 0)
(3 1.72998e-15 0)
(3 2.17077e-15 0)
(3 1.21595e-15 0)
(3 1.3498e-15 0)
(3 5.44667e-16 0)
(3 3.78861e-16 0)
(3 3.35872e-16 0)
(3 -1.9559e-16 0)
(3 -9.64532e-16 0)
(3 -1.3793e-15 0)
(3 -1.45955e-15 0)
(3 -1.34501e-15 0)
(3 -1.40087e-15 0)
(3 -1.08136e-15 0)
(3 -5.33132e-16 0)
(3 -8.08457e-16 0)
(3 -1.47398e-15 0)
(3 -2.04142e-15 0)
(3 -1.69038e-15 0)
(3 -2.07899e-15 0)
(3 -2.30376e-15 0)
(3 -1.41272e-15 0)
(3 -8.60802e-16 0)
(3 -5.42942e-16 0)
(3 -1.14911e-15 0)
(3 -1.85857e-15 0)
(3 -2.18374e-15 0)
(3 -2.05652e-15 0)
(3 -1.03926e-15 0)
(3 2.254e-17 0)
(3 4.68093e-16 0)
(3 5.59792e-16 0)
(3 2.49088e-16 0)
(3 -1.05635e-15 0)
(3 -7.57903e-16 0)
(3 -1.64021e-08 0)
(1.55786 0.342536 0)
(0.81017 0.315489 0)
(0.747085 0.321004 0)
(0.728725 0.331907 0)
(0.711057 0.339235 0)
(0.695759 0.348796 0)
(0.680893 0.361313 0)
(0.665314 0.375976 0)
(0.649222 0.391931 0)
(0.627677 0.405132 0)
(0.599818 0.414102 0)
(0.56723 0.422809 0)
(0.532565 0.435232 0)
(0.495868 0.448022 0)
(0.458243 0.46199 0)
(0.421189 0.479939 0)
(0.385156 0.504752 0)
(0.347074 0.533992 0)
(0.306269 0.568543 0)
(0.25519 0.603832 0)
(0.194827 0.644657 0)
(0.122876 0.683198 0)
(0.0388117 0.708722 0)
(3 -2.62603e-17 0)
(3 -5.26208e-17 0)
(3 -2.83481e-16 0)
(3 -2.27245e-16 0)
(3 4.38592e-16 0)
(3 8.81768e-16 0)
(3 6.89175e-16 0)
(3 5.70724e-16 0)
(3 4.33209e-16 0)
(3 5.88527e-16 0)
(3 9.46744e-16 0)
(3 -1.40193e-16 0)
(3 -2.43485e-16 0)
(3 -1.05399e-15 0)
(3 -1.69145e-15 0)
(3 -1.57562e-15 0)
(3 -6.45983e-16 0)
(3 -5.66545e-16 0)
(3 -9.35378e-16 0)
(3 -8.90438e-16 0)
(3 -1.03555e-15 0)
(3 2.40544e-17 0)
(3 1.03327e-15 0)
(3 1.96517e-15 0)
(3 1.54432e-15 0)
(3 -1.01828e-15 0)
(3 -1.24525e-15 0)
(3 -8.51029e-16 0)
(3 -3.95514e-16 0)
(3 -1.0733e-16 0)
(3 -5.91186e-16 0)
(3 -9.21913e-16 0)
(3 -5.36782e-16 0)
(3 3.59406e-17 0)
(3 7.79792e-16 0)
(3 1.41627e-15 0)
(3 1.92108e-15 0)
(3 2.50423e-15 0)
(3 2.32025e-15 0)
(3 1.4929e-15 0)
(3 1.26485e-15 0)
(3 6.76295e-16 0)
(3 -4.30181e-16 0)
(3 -1.29937e-15 0)
(3 -1.18317e-15 0)
(3 -9.91513e-16 0)
(3 -4.52079e-16 0)
(3 -7.3877e-16 0)
(3 -1.08442e-15 0)
(3 -1.14931e-15 0)
(3 -1.40178e-15 0)
(3 -1.60949e-15 0)
(3 -1.49597e-15 0)
(3 -1.77504e-15 0)
(3 -2.14698e-15 0)
(3 -1.4215e-15 0)
(3 -1.26052e-15 0)
(3 -2.1879e-15 0)
(3 -2.73993e-15 0)
(3 -1.54295e-15 0)
(3 -1.30409e-15 0)
(3 -1.48708e-15 0)
(3 -1.4671e-15 0)
(3 -1.57055e-15 0)
(3 -1.72041e-15 0)
(3 -1.92317e-15 0)
(3 -1.39761e-15 0)
(3 -1.3911e-15 0)
(3 -1.09441e-16 0)
(3 1.58168e-16 0)
(3 -6.19858e-16 0)
(3 1.61513e-15 0)
(3 -2.08939e-08 0)
(1.91656 0.379332 0)
(0.84519 0.379874 0)
(0.747734 0.35631 0)
(0.726234 0.350512 0)
(0.709372 0.356083 0)
(0.693373 0.364516 0)
(0.678416 0.37597 0)
(0.663857 0.390207 0)
(0.650192 0.407599 0)
(0.636636 0.426221 0)
(0.61746 0.441707 0)
(0.592714 0.455352 0)
(0.56449 0.471657 0)
(0.531496 0.487682 0)
(0.496098 0.503605 0)
(0.459479 0.522237 0)
(0.423481 0.548451 0)
(0.386182 0.581938 0)
(0.346905 0.625388 0)
(0.300784 0.674746 0)
(0.246159 0.726983 0)
(0.177808 0.780334 0)
(0.0693399 0.827523 0)
(3 5.03855e-17 0)
(3 4.76489e-16 0)
(3 3.00401e-16 0)
(3 2.36981e-16 0)
(3 6.60148e-16 0)
(3 7.49996e-16 0)
(3 1.0652e-15 0)
(3 1.45892e-15 0)
(3 1.62318e-15 0)
(3 1.35154e-15 0)
(3 1.28681e-15 0)
(3 1.18652e-15 0)
(3 6.75591e-16 0)
(3 -8.38064e-17 0)
(3 -6.94961e-16 0)
(3 3.02114e-16 0)
(3 8.71237e-16 0)
(3 8.50825e-16 0)
(3 5.18917e-16 0)
(3 6.40441e-16 0)
(3 5.9848e-16 0)
(3 2.83547e-16 0)
(3 4.25656e-16 0)
(3 5.4011e-16 0)
(3 -4.39274e-16 0)
(3 -9.60394e-16 0)
(3 -8.98838e-16 0)
(3 -4.56539e-16 0)
(3 -2.34812e-16 0)
(3 -5.79983e-16 0)
(3 -4.91951e-16 0)
(3 1.76166e-16 0)
(3 6.3775e-16 0)
(3 8.16457e-16 0)
(3 9.12269e-16 0)
(3 9.88716e-16 0)
(3 1.42994e-15 0)
(3 1.89396e-15 0)
(3 2.08649e-15 0)
(3 1.26103e-15 0)
(3 2.14688e-16 0)
(3 1.53971e-16 0)
(3 1.69437e-18 0)
(3 5.93111e-17 0)
(3 -3.91793e-16 0)
(3 -5.91021e-16 0)
(3 -8.75491e-16 0)
(3 -1.22154e-15 0)
(3 -1.77365e-15 0)
(3 -2.08683e-15 0)
(3 -2.74708e-15 0)
(3 -3.22076e-15 0)
(3 -1.68513e-15 0)
(3 -8.62823e-16 0)
(3 -6.3835e-16 0)
(3 -5.53283e-16 0)
(3 -1.0587e-16 0)
(3 -5.9521e-16 0)
(3 -1.34516e-15 0)
(3 -1.42694e-15 0)
(3 -1.86832e-15 0)
(3 -1.22988e-15 0)
(3 -1.09288e-15 0)
(3 -1.59459e-15 0)
(3 -2.05681e-15 0)
(3 -2.32829e-15 0)
(3 -2.33071e-15 0)
(3 -1.80492e-15 0)
(3 -1.28816e-15 0)
(3 -1.04771e-15 0)
(3 -7.08456e-16 0)