/*--------------------------------*- C++ -*----------------------------------*\
  =========                 |
  \\      /  F ield         | OpenFOAM: The Open Source CFD Toolbox
   \\    /   O peration     | Website:  https://openfoam.org
    \\  /    A nd           | Version:  7
     \\/     M anipulation  |
\*---------------------------------------------------------------------------*/
FoamFile
{
    version     2.0;
    format      ascii;
    class       volScalarField;
    location    "1.7";
    object      T;
}
// * * * * * * * * * * * * * * * * * * * * * * * * * * * * * * * * * * * * * //

dimensions      [0 0 0 1 0 0 0];

internalField   nonuniform List<scalar> 
16192
(
1.42603
1.42681
1.43743
1.50264
1.65488
1.81779
1.8904
1.93492
1.96128
1.9652
1.96107
1.94809
1.93248
1.92689
1.9265
1.93188
1.93542
1.93184
1.92349
1.91021
1.89957
1.895
1.8953
1.90173
1.91132
1.91353
1.91133
1.90552
1.89271
1.87568
1.86489
1.86114
1.86115
1.86799
1.87762
1.87851
1.87683
1.87193
1.8607
1.84879
1.84387
1.84163
1.84071
1.84255
1.84359
1.84183
1.83913
1.83397
1.82716
1.82025
1.816
1.81394
1.8122
1.81181
1.81228
1.81081
1.80734
1.80415
1.80109
1.79717
1.79152
1.78504
1.77964
1.77722
1.77602
1.77522
1.77544
1.77698
1.77702
1.77409
1.77057
1.76585
1.75727
1.74642
1.74106
1.74006
1.73951
1.74134
1.74826
1.753
1.75185
1.74858
1.74139
1.72849
1.71616
1.70992
1.70724
1.70625
1.70889
1.71585
1.71897
1.71836
1.71648
1.71087
1.7025
1.69564
1.69184
1.6891
1.6869
1.68657
1.68578
1.6817
1.67812
1.67461
1.66964
1.66468
1.66244
1.66144
1.65985
1.65711
1.65315
1.64841
1.64373
1.63975
1.63646
1.63367
1.63145
1.63014
1.62874
1.62608
1.62204
1.61792
1.6154
1.61352
1.61152
1.60922
1.60646
1.60303
1.59831
1.59216
1.58722
1.58509
1.58429
1.58445
1.58649
1.58706
1.58625
1.58514
1.58274
1.57691
1.56902
1.56422
1.56237
1.56075
1.55886
1.55718
1.55586
1.5547
1.55361
1.55259
1.55173
1.55111
1.5504
1.54955
1.54831
1.54648
1.54357
1.53981
1.53603
1.53152
1.52677
1.52488
1.52404
1.523
1.52233
1.52102
1.51918
1.51673
1.51335
1.51149
1.51079
1.50982
1.50849
1.50637
1.50264
1.49918
1.49736
1.49636
1.49522
1.49379
1.49298
1.49248
1.49254
1.4926
1.49175
1.49013
1.48667
1.48103
1.47668
1.47454
1.47333
1.47273
1.47267
1.47285
1.4737
1.47496
1.47535
1.47541
1.47465
1.47052
1.46551
1.46329
1.46199
1.46072
1.46012
1.4606
1.46011
1.459
1.45833
1.45751
1.45521
1.44891
1.44093
1.43866
1.43833
1.4384
1.43878
1.43925
1.43951
1.43967
1.43963
1.43914
1.438
1.43658
1.43439
1.43223
1.4305
1.4292
1.42737
1.42313
1.41675
1.41373
1.41322
1.41309
1.41277
1.41218
1.41119
1.41016
1.4087
1.4058
1.40253
1.39917
1.39513
1.39047
1.38652
1.38335
1.38046
1.37767
1.37588
1.37602
1.37805
1.37841
1.37571
1.43561
1.46748
1.59119
1.76675
1.8772
1.91857
1.94707
1.96752
1.97026
1.96524
1.9518
1.93587
1.93038
1.93044
1.93593
1.9381
1.93397
1.92568
1.91224
1.90135
1.89782
1.89849
1.90514
1.91293
1.91342
1.91075
1.90434
1.8915
1.87613
1.86876
1.86586
1.86513
1.86989
1.87856
1.87969
1.87812
1.87355
1.86441
1.85271
1.84511
1.84221
1.84112
1.84314
1.84502
1.8436
1.84096
1.83539
1.82698
1.8209
1.81802
1.81611
1.81455
1.81435
1.81446
1.81206
1.80798
1.8042
1.80068
1.7969
1.79232
1.78655
1.78086
1.77878
1.77771
1.7769
1.77695
1.77832
1.77797
1.77485
1.77112
1.76633
1.75895
1.74977
1.74213
1.73957
1.73883
1.7404
1.74743
1.75232
1.75154
1.74919
1.74268
1.73212
1.72034
1.71263
1.70931
1.70799
1.71009
1.71698
1.72021
1.7194
1.71748
1.71157
1.70151
1.69535
1.69326
1.6916
1.68963
1.68931
1.68877
1.6849
1.68092
1.67687
1.67207
1.6674
1.66585
1.66553
1.6648
1.66318
1.65987
1.65431
1.64826
1.64368
1.64025
1.63729
1.6346
1.6323
1.62987
1.62696
1.623
1.61949
1.6177
1.61627
1.61488
1.61346
1.61165
1.60911
1.60468
1.59727
1.59048
1.58718
1.58587
1.58507
1.586
1.58848
1.58835
1.58742
1.58632
1.58374
1.57723
1.56942
1.56565
1.56354
1.56136
1.55906
1.55717
1.55576
1.55448
1.55331
1.55223
1.55113
1.54994
1.5484
1.54656
1.54497
1.54329
1.54182
1.54099
1.54019
1.53889
1.53617
1.53104
1.52563
1.52234
1.52023
1.51825
1.51515
1.51169
1.51007
1.50955
1.50998
1.51013
1.50944
1.50884
1.50742
1.50326
1.49761
1.49422
1.49323
1.49272
1.49221
1.49188
1.49189
1.49234
1.49205
1.49118
1.48956
1.48501
1.47726
1.47291
1.47213
1.47195
1.47186
1.47202
1.47296
1.47432
1.47473
1.47478
1.47458
1.47265
1.46733
1.46338
1.4617
1.46044
1.45921
1.45836
1.4574
1.45657
1.45613
1.45599
1.45568
1.45324
1.44699
1.44015
1.43835
1.43814
1.43822
1.43831
1.43828
1.43813
1.43793
1.4376
1.43632
1.43473
1.43296
1.43112
1.42973
1.42869
1.42775
1.42545
1.4206
1.41499
1.41257
1.41195
1.41157
1.41081
1.40951
1.40783
1.40681
1.40554
1.4025
1.39911
1.39595
1.39237
1.388
1.38386
1.38053
1.37756
1.3747
1.37275
1.37271
1.37478
1.37557
1.5341
1.69701
1.86146
1.91346
1.93526
1.95474
1.97208
1.97444
1.96931
1.95612
1.93988
1.93391
1.93399
1.93944
1.94102
1.93581
1.92514
1.91141
1.90405
1.90151
1.90251
1.90918
1.91474
1.91398
1.9108
1.90412
1.89198
1.87869
1.86963
1.86601
1.86572
1.87079
1.8792
1.88051
1.87913
1.87493
1.86504
1.8531
1.84759
1.845
1.84346
1.84496
1.84637
1.84461
1.84144
1.83618
1.82924
1.82262
1.81876
1.8172
1.81621
1.81638
1.81656
1.81371
1.80908
1.80478
1.80054
1.79632
1.79193
1.78683
1.78182
1.77966
1.77864
1.77779
1.77737
1.77839
1.77922
1.77692
1.77313
1.76829
1.75988
1.7487
1.74273
1.7414
1.74073
1.7418
1.74777
1.75307
1.75256
1.74998
1.74348
1.73183
1.72011
1.71495
1.71243
1.71088
1.71263
1.71891
1.72192
1.72091
1.71854
1.71284
1.70406
1.69677
1.6935
1.69213
1.69094
1.69092
1.69087
1.68764
1.68322
1.67842
1.67322
1.66909
1.6679
1.66773
1.66764
1.66707
1.66546
1.66205
1.65622
1.65082
1.64684
1.64304
1.63903
1.63496
1.63079
1.62716
1.62356
1.62028
1.61877
1.61772
1.61735
1.61668
1.61514
1.61329
1.61072
1.60547
1.59682
1.59034
1.58835
1.58713
1.5868
1.58851
1.59018
1.5897
1.58862
1.58688
1.58357
1.57823
1.5728
1.56797
1.56385
1.56082
1.55881
1.55741
1.55623
1.55506
1.55388
1.55251
1.55091
1.54909
1.54679
1.54371
1.54124
1.54044
1.54034
1.54159
1.54287
1.54253
1.54162
1.53889
1.53227
1.52423
1.5184
1.51407
1.51049
1.50859
1.50781
1.5078
1.50928
1.51057
1.51022
1.50981
1.50929
1.50672
1.49907
1.49365
1.49246
1.49193
1.49148
1.4913
1.49184
1.49223
1.492
1.49133
1.49021
1.48731
1.47985
1.47325
1.47159
1.47123
1.47144
1.4725
1.47369
1.47478
1.47513
1.47514
1.47485
1.47343
1.47007
1.46519
1.46168
1.45977
1.45841
1.4572
1.45613
1.45546
1.45492
1.45434
1.45398
1.45345
1.45152
1.44719
1.44095
1.43841
1.43788
1.43776
1.4376
1.43716
1.43636
1.43633
1.43565
1.43347
1.43146
1.4298
1.42845
1.42734
1.42644
1.4256
1.42332
1.41862
1.41349
1.41116
1.4104
1.40972
1.40847
1.40663
1.40516
1.40484
1.40386
1.40054
1.39704
1.39376
1.39001
1.38559
1.38123
1.37755
1.37446
1.37147
1.36918
1.36884
1.36994
1.80794
1.91966
1.93505
1.94583
1.95937
1.9759
1.97813
1.97279
1.95991
1.94389
1.93741
1.93682
1.94116
1.94276
1.9379
1.92796
1.91394
1.90461
1.90212
1.9045
1.91202
1.91582
1.91434
1.91034
1.90298
1.89164
1.88021
1.87291
1.86984
1.86906
1.87246
1.87953
1.88065
1.87938
1.87573
1.86798
1.85699
1.84846
1.84492
1.84346
1.84528
1.84741
1.84568
1.84201
1.83543
1.82722
1.82272
1.82113
1.82006
1.81924
1.81918
1.81862
1.81472
1.80968
1.80475
1.80025
1.79641
1.79271
1.78834
1.78257
1.77955
1.77878
1.77808
1.77768
1.77888
1.7797
1.77758
1.77404
1.7698
1.76273
1.75287
1.74412
1.74037
1.7394
1.74059
1.74758
1.75327
1.75294
1.7513
1.74574
1.73473
1.72329
1.71609
1.71251
1.71058
1.7125
1.71981
1.72394
1.72289
1.72024
1.71416
1.70379
1.69726
1.69563
1.69474
1.69409
1.69426
1.6938
1.69042
1.68598
1.68054
1.67481
1.67038
1.66864
1.66841
1.66837
1.66821
1.66788
1.66655
1.66274
1.65797
1.65431
1.65096
1.6472
1.64273
1.63761
1.63171
1.62498
1.62057
1.61854
1.61739
1.61766
1.61902
1.61823
1.61654
1.61503
1.61209
1.60556
1.59737
1.59333
1.59127
1.5898
1.58965
1.59019
1.5893
1.58772
1.58609
1.58361
1.58049
1.57788
1.57581
1.57288
1.56739
1.56117
1.55823
1.5569
1.55588
1.55514
1.55425
1.55269
1.55064
1.54828
1.54439
1.54067
1.53922
1.53867
1.53876
1.54144
1.54424
1.54439
1.5442
1.54343
1.53977
1.5294
1.5168
1.51035
1.50818
1.50707
1.50621
1.50606
1.50902
1.51134
1.51087
1.51029
1.50968
1.50815
1.50306
1.49546
1.49247
1.49168
1.4912
1.49096
1.49119
1.49249
1.4924
1.49167
1.49047
1.48819
1.48383
1.47768
1.47268
1.47054
1.46968
1.46973
1.47027
1.47131
1.47184
1.47197
1.47194
1.47175
1.47105
1.46865
1.46408
1.45967
1.45712
1.45567
1.45456
1.45364
1.45283
1.4521
1.45186
1.45191
1.45202
1.4513
1.44785
1.44116
1.43786
1.43726
1.43704
1.43658
1.43574
1.43475
1.43375
1.43177
1.42997
1.42851
1.42737
1.4265
1.42566
1.42472
1.42362
1.42115
1.4164
1.41177
1.40985
1.409
1.40802
1.40629
1.40405
1.40241
1.40166
1.40029
1.39732
1.39427
1.39131
1.38785
1.38341
1.37863
1.37451
1.3712
1.36816
1.36567
1.36476
1.9506
1.94747
1.95181
1.96364
1.97914
1.98106
1.97583
1.96329
1.94722
1.94031
1.93928
1.94279
1.94439
1.93925
1.92867
1.91559
1.90808
1.90589
1.90776
1.91433
1.91649
1.91445
1.90959
1.90091
1.88993
1.88094
1.87467
1.87158
1.87099
1.87371
1.8795
1.88027
1.87911
1.87574
1.8676
1.85689
1.85083
1.8479
1.84595
1.84696
1.84802
1.84571
1.84166
1.83575
1.82837
1.82234
1.82037
1.82008
1.82018
1.82119
1.82033
1.81642
1.8111
1.80538
1.80007
1.79578
1.79254
1.78986
1.7856
1.7811
1.77961
1.77865
1.77797
1.77866
1.78047
1.77925
1.77593
1.7712
1.76346
1.75361
1.74622
1.74353
1.74243
1.74289
1.74824
1.75412
1.75397
1.75232
1.74684
1.73683
1.7258
1.71947
1.71661
1.71472
1.71569
1.72145
1.72507
1.72382
1.72101
1.71542
1.70667
1.69862
1.69566
1.6953
1.69541
1.69699
1.69712
1.69456
1.69037
1.68422
1.67736
1.67219
1.66973
1.66913
1.66909
1.66937
1.66924
1.66792
1.66472
1.66113
1.65895
1.65672
1.65415
1.65104
1.64719
1.64123
1.63252
1.62434
1.62014
1.61811
1.61645
1.61558
1.61722
1.61887
1.61721
1.61408
1.61002
1.60428
1.59949
1.59717
1.5958
1.59447
1.59225
1.59008
1.58875
1.58749
1.58466
1.58083
1.57837
1.57745
1.57652
1.57503
1.572
1.56586
1.5598
1.55732
1.55577
1.55417
1.55315
1.55237
1.55088
1.54715
1.54207
1.53939
1.53856
1.53789
1.53794
1.54098
1.54506
1.54637
1.54609
1.54554
1.54308
1.53376
1.51787
1.50988
1.50779
1.50668
1.50587
1.50553
1.5069
1.51012
1.51078
1.51037
1.50981
1.50851
1.50536
1.50037
1.49457
1.49189
1.49083
1.49012
1.48976
1.48922
1.4887
1.48804
1.48717
1.48606
1.48451
1.4818
1.47763
1.47223
1.46903
1.46814
1.46833
1.46904
1.46972
1.46982
1.46987
1.46991
1.46973
1.4688
1.4664
1.46166
1.45679
1.45429
1.45291
1.45179
1.45081
1.45053
1.45057
1.45074
1.45101
1.45123
1.45104
1.44811
1.44077
1.43664
1.43561
1.43504
1.43407
1.43285
1.43187
1.43042
1.42884
1.42759
1.42655
1.42546
1.42412
1.42308
1.42231
1.42161
1.42022
1.41612
1.41092
1.40821
1.40682
1.40502
1.40269
1.40064
1.39999
1.39989
1.39882
1.3959
1.39261
1.38961
1.38606
1.38122
1.37586
1.37129
1.36763
1.36454
1.36164
1.95549
1.95617
1.96661
1.98214
1.98384
1.97859
1.96595
1.94981
1.94263
1.941
1.94389
1.9457
1.94079
1.9307
1.91771
1.90914
1.90712
1.90954
1.91578
1.91659
1.9143
1.90898
1.89988
1.89004
1.88179
1.87604
1.87333
1.87285
1.8749
1.87917
1.87921
1.87807
1.87515
1.86891
1.85955
1.85139
1.84767
1.84596
1.84733
1.84865
1.84616
1.84128
1.83388
1.82604
1.82208
1.82143
1.82129
1.82182
1.82258
1.82151
1.81788
1.81235
1.80628
1.80102
1.79716
1.79407
1.79089
1.78596
1.78111
1.7797
1.77902
1.77844
1.77906
1.78119
1.78054
1.77794
1.77408
1.76636
1.75484
1.74667
1.74333
1.74234
1.74328
1.74912
1.75457
1.75444
1.75331
1.74854
1.73798
1.72667
1.72142
1.71879
1.71711
1.71834
1.72416
1.72795
1.72654
1.72298
1.71646
1.70603
1.6989
1.69755
1.69736
1.69764
1.69977
1.70025
1.69859
1.69533
1.68956
1.68206
1.67556
1.67213
1.67076
1.66965
1.66868
1.66805
1.66717
1.66518
1.66244
1.66093
1.6597
1.65869
1.65653
1.65351
1.65015
1.64434
1.63402
1.62488
1.62065
1.61823
1.6164
1.61547
1.61553
1.6148
1.61299
1.61016
1.60584
1.60317
1.60185
1.60109
1.60035
1.59803
1.59536
1.59245
1.58899
1.58488
1.58127
1.57883
1.57773
1.5768
1.57586
1.57485
1.57356
1.57081
1.56528
1.55941
1.5562
1.55415
1.55236
1.5508
1.54845
1.54463
1.54083
1.53926
1.53853
1.53801
1.53812
1.54131
1.54688
1.54786
1.54727
1.54633
1.54362
1.53606
1.52309
1.51241
1.50826
1.50668
1.50574
1.50542
1.5063
1.50702
1.50672
1.50633
1.506
1.50559
1.50499
1.50284
1.49946
1.49499
1.49108
1.48905
1.48801
1.4876
1.48697
1.48601
1.48477
1.48385
1.48303
1.48218
1.48087
1.47796
1.47231
1.46806
1.46674
1.4669
1.46724
1.4677
1.46817
1.46852
1.4686
1.46816
1.46679
1.46424
1.45931
1.45424
1.45154
1.45005
1.44942
1.44932
1.44935
1.44964
1.45044
1.4512
1.45142
1.45076
1.4462
1.438
1.43468
1.43367
1.43276
1.43172
1.43056
1.42877
1.42728
1.42604
1.42494
1.42385
1.42263
1.42202
1.42207
1.42222
1.4219
1.41979
1.41409
1.40854
1.4058
1.40395
1.40181
1.39959
1.3984
1.39883
1.39979
1.39832
1.39488
1.39148
1.38813
1.38398
1.37846
1.37265
1.36782
1.36373
1.35983
1.95924
1.96939
1.98445
1.9859
1.98078
1.96829
1.95192
1.94427
1.94205
1.94445
1.94646
1.94184
1.93187
1.91947
1.91141
1.90907
1.91069
1.91591
1.91617
1.9136
1.90785
1.89878
1.89007
1.88297
1.87836
1.87554
1.87475
1.87604
1.8786
1.87803
1.87696
1.87422
1.86755
1.85867
1.85288
1.85001
1.84792
1.84851
1.84896
1.84592
1.84106
1.83435
1.82641
1.82079
1.8199
1.82022
1.82177
1.82261
1.8219
1.81909
1.81345
1.80687
1.80163
1.79792
1.79515
1.79275
1.78838
1.78213
1.77879
1.77806
1.77737
1.77822
1.78155
1.78187
1.77963
1.77619
1.76933
1.7596
1.75027
1.74545
1.74412
1.74443
1.74948
1.75552
1.75546
1.75389
1.74901
1.73999
1.72992
1.72349
1.72062
1.71908
1.7203
1.72627
1.73067
1.72937
1.72611
1.7198
1.70938
1.70075
1.69734
1.69708
1.6974
1.70051
1.70207
1.70104
1.69939
1.69492
1.68729
1.68052
1.67698
1.67496
1.67318
1.6715
1.66982
1.66758
1.66463
1.66232
1.66119
1.66026
1.66012
1.66018
1.65824
1.65532
1.65162
1.6457
1.63794
1.63151
1.62666
1.62272
1.61942
1.61661
1.61426
1.61195
1.60841
1.60484
1.6031
1.60277
1.60321
1.60454
1.60414
1.60154
1.59835
1.5936
1.58694
1.58192
1.57937
1.57828
1.57754
1.57677
1.57573
1.57466
1.57363
1.57214
1.56933
1.5648
1.55964
1.5555
1.5521
1.54863
1.54523
1.54212
1.54051
1.53966
1.53907
1.53887
1.53978
1.54349
1.54447
1.54411
1.54382
1.5428
1.54018
1.53466
1.52735
1.52052
1.51366
1.50863
1.50689
1.50621
1.50546
1.50461
1.5041
1.50359
1.50295
1.50243
1.50199
1.50161
1.50074
1.49883
1.49503
1.49011
1.48698
1.48542
1.48453
1.48362
1.48294
1.48252
1.48265
1.48233
1.48148
1.48014
1.47699
1.47049
1.46611
1.46518
1.46538
1.46592
1.46735
1.46892
1.46941
1.46881
1.46751
1.46526
1.46161
1.4556
1.45101
1.44939
1.44882
1.44858
1.44861
1.44898
1.44973
1.45017
1.45026
1.45027
1.44939
1.44387
1.43572
1.43277
1.43157
1.4304
1.42898
1.42737
1.42588
1.4246
1.42347
1.42248
1.42184
1.4215
1.42132
1.42126
1.42123
1.42085
1.41836
1.41172
1.40596
1.40348
1.40173
1.3999
1.39796
1.39673
1.39691
1.39773
1.39673
1.39332
1.3897
1.38612
1.38175
1.37615
1.36985
1.36372
1.35813
1.97055
1.98582
1.98722
1.98213
1.96956
1.95317
1.94549
1.9429
1.9449
1.94702
1.94253
1.93264
1.92053
1.91227
1.90981
1.9111
1.91551
1.91537
1.91258
1.90635
1.89766
1.89004
1.88433
1.88003
1.87688
1.87625
1.87709
1.87739
1.87641
1.87542
1.87317
1.8681
1.86034
1.8531
1.84967
1.84791
1.84882
1.84931
1.84598
1.84048
1.833
1.82535
1.82097
1.82034
1.82056
1.82208
1.8225
1.82202
1.8194
1.81387
1.80786
1.8033
1.79964
1.79647
1.79361
1.78959
1.78429
1.77997
1.77871
1.77797
1.7782
1.78152
1.78282
1.78111
1.77816
1.77151
1.76069
1.75248
1.74952
1.74811
1.74811
1.75239
1.75696
1.7565
1.75495
1.75006
1.73985
1.72965
1.72568
1.72413
1.72306
1.72435
1.7301
1.73413
1.73272
1.72928
1.72286
1.71291
1.70353
1.69978
1.6993
1.69932
1.70157
1.70296
1.70242
1.70169
1.69796
1.6911
1.68456
1.68133
1.67953
1.67795
1.67647
1.67455
1.67131
1.6668
1.66313
1.66156
1.66057
1.65986
1.66075
1.6611
1.65853
1.65443
1.64993
1.64451
1.64005
1.6371
1.63431
1.63088
1.62596
1.61995
1.61401
1.6082
1.60387
1.60168
1.60077
1.60157
1.60482
1.60731
1.60609
1.60338
1.60001
1.59417
1.58617
1.5812
1.57946
1.57817
1.57705
1.57595
1.57494
1.57387
1.57257
1.57128
1.5698
1.56747
1.56393
1.55873
1.5524
1.54641
1.54244
1.5407
1.53992
1.53943
1.53919
1.53972
1.54244
1.5432
1.54246
1.54156
1.54029
1.53791
1.53394
1.52996
1.52701
1.52457
1.52126
1.51569
1.50919
1.50553
1.50368
1.50274
1.50178
1.50065
1.49992
1.4997
1.49988
1.5001
1.49975
1.499
1.49754
1.49378
1.48752
1.4833
1.4822
1.48179
1.48132
1.48096
1.48094
1.48086
1.48011
1.47946
1.47872
1.47612
1.46941
1.46472
1.46366
1.46368
1.46376
1.46396
1.46551
1.46669
1.46612
1.46461
1.46233
1.45853
1.45305
1.44947
1.44867
1.44856
1.4489
1.44952
1.45019
1.45073
1.45081
1.45079
1.45023
1.44749
1.4409
1.43346
1.4305
1.42914
1.42783
1.4262
1.42461
1.42315
1.42198
1.42112
1.4206
1.42052
1.42065
1.4209
1.42101
1.42099
1.42045
1.41737
1.40987
1.40414
1.40189
1.40015
1.39817
1.39621
1.39534
1.39587
1.3966
1.39529
1.39165
1.38771
1.38396
1.37934
1.37256
1.36369
1.35631
1.9867
1.98809
1.98294
1.97023
1.95363
1.94582
1.94311
1.94499
1.94739
1.94313
1.93331
1.92126
1.91286
1.91025
1.91109
1.91483
1.91437
1.91147
1.90525
1.897
1.89006
1.8855
1.88183
1.87924
1.87808
1.87753
1.87615
1.87504
1.87393
1.87161
1.86649
1.85968
1.85455
1.8519
1.84983
1.84999
1.84997
1.84628
1.84061
1.83314
1.82532
1.82017
1.81932
1.81978
1.82157
1.82215
1.82203
1.81949
1.81367
1.80829
1.80461
1.80167
1.79876
1.7961
1.79187
1.7849
1.78019
1.77926
1.77863
1.77881
1.78213
1.78379
1.78249
1.7799
1.77378
1.76478
1.75587
1.75059
1.74925
1.74953
1.75463
1.76006
1.75957
1.7572
1.75145
1.74173
1.73247
1.72723
1.72511
1.72396
1.72526
1.73204
1.73762
1.73681
1.73363
1.72728
1.71638
1.70646
1.70257
1.70196
1.70202
1.7039
1.70416
1.70367
1.70291
1.69939
1.6929
1.68679
1.68375
1.6822
1.68098
1.67991
1.6789
1.67696
1.67249
1.66663
1.66349
1.662
1.66072
1.65945
1.65802
1.65654
1.65415
1.65036
1.64561
1.64297
1.64155
1.64082
1.6394
1.6371
1.63332
1.62541
1.61416
1.60597
1.60241
1.60061
1.59922
1.60058
1.60723
1.60943
1.60767
1.60455
1.60061
1.59385
1.58604
1.58187
1.57985
1.57812
1.57659
1.57557
1.57454
1.57336
1.57188
1.57044
1.56903
1.56768
1.5657
1.56112
1.55302
1.54549
1.54201
1.54062
1.53959
1.53888
1.53897
1.54125
1.54209
1.54136
1.54062
1.53956
1.53732
1.53289
1.52799
1.5261
1.52554
1.52515
1.52417
1.52173
1.51633
1.50849
1.50355
1.50104
1.49939
1.49822
1.49756
1.49719
1.49771
1.49897
1.49894
1.49835
1.49761
1.49592
1.49038
1.48305
1.48068
1.48011
1.47969
1.47921
1.47894
1.47931
1.47917
1.47893
1.47877
1.47809
1.47507
1.46792
1.46302
1.46191
1.46178
1.46169
1.46213
1.46328
1.46348
1.46235
1.46073
1.45915
1.4569
1.45311
1.44933
1.44759
1.44663
1.44658
1.44704
1.44779
1.44826
1.44828
1.44806
1.44735
1.44497
1.43856
1.43102
1.42786
1.42659
1.42535
1.42359
1.42149
1.42017
1.41991
1.41989
1.41997
1.42023
1.42073
1.42129
1.42143
1.42132
1.42019
1.41525
1.40675
1.40208
1.40005
1.39828
1.39629
1.39436
1.39371
1.39479
1.39596
1.39451
1.3905
1.38609
1.38109
1.37365
1.36325
1.35558
1.9886
1.98323
1.97053
1.95375
1.94574
1.94294
1.94469
1.94752
1.94351
1.93384
1.92181
1.91325
1.91035
1.91082
1.91403
1.91333
1.91019
1.90379
1.89607
1.89036
1.88673
1.8835
1.881
1.87909
1.87729
1.87538
1.87372
1.87236
1.87038
1.86636
1.86034
1.85475
1.85217
1.8508
1.85125
1.85098
1.84697
1.8411
1.83349
1.82578
1.82113
1.82004
1.82034
1.82159
1.82221
1.82212
1.81931
1.81371
1.80896
1.80586
1.80325
1.80038
1.79816
1.795
1.78933
1.78282
1.77971
1.7788
1.77881
1.78246
1.78509
1.78391
1.78168
1.77582
1.76558
1.75782
1.755
1.75377
1.75384
1.75793
1.7622
1.76164
1.75957
1.75435
1.74352
1.73319
1.72926
1.72825
1.72764
1.72907
1.73521
1.74009
1.7392
1.73643
1.73093
1.72138
1.71087
1.70579
1.70508
1.70517
1.70722
1.70754
1.70698
1.70556
1.70118
1.69403
1.68841
1.68544
1.68373
1.68296
1.68207
1.68113
1.68037
1.67825
1.67324
1.66902
1.66687
1.66486
1.66233
1.65938
1.65661
1.65388
1.65004
1.64565
1.64288
1.64231
1.64257
1.64367
1.64275
1.64039
1.63732
1.63026
1.61646
1.60619
1.60293
1.60111
1.59979
1.60073
1.60365
1.60458
1.60367
1.60114
1.598
1.5936
1.58895
1.58513
1.58146
1.57847
1.57623
1.57411
1.57245
1.57128
1.57097
1.57088
1.56957
1.5679
1.56594
1.56161
1.55319
1.54629
1.5433
1.5415
1.54042
1.53998
1.54105
1.54213
1.54123
1.54033
1.53964
1.53723
1.53174
1.52601
1.52421
1.52381
1.52375
1.52458
1.52459
1.52359
1.52161
1.51601
1.50617
1.5002
1.49805
1.49696
1.49614
1.49545
1.49532
1.49749
1.49837
1.49776
1.49702
1.49593
1.49273
1.48551
1.48021
1.47885
1.47843
1.47818
1.4779
1.47783
1.47803
1.47776
1.4775
1.47727
1.47683
1.47423
1.46712
1.4617
1.46024
1.45989
1.4595
1.45917
1.45951
1.46009
1.45965
1.45848
1.45743
1.45564
1.45259
1.44848
1.44576
1.44486
1.44484
1.44543
1.44635
1.4469
1.44691
1.44664
1.44548
1.44225
1.43556
1.42842
1.42503
1.42336
1.42157
1.41968
1.41921
1.41924
1.41943
1.42017
1.42187
1.42271
1.42292
1.42296
1.42272
1.42158
1.41846
1.41195
1.40403
1.40019
1.39827
1.39646
1.39442
1.39265
1.39254
1.39373
1.39435
1.39286
1.38824
1.38233
1.37416
1.36373
1.35623
1.98338
1.97036
1.95334
1.9455
1.94266
1.94432
1.94752
1.94391
1.93467
1.92276
1.91386
1.91049
1.91056
1.91325
1.91235
1.90896
1.90258
1.89522
1.89014
1.88712
1.88499
1.88275
1.87977
1.87717
1.87481
1.87293
1.87133
1.86929
1.86548
1.86058
1.85639
1.85433
1.85312
1.85339
1.85271
1.84874
1.84264
1.83425
1.82659
1.82204
1.82081
1.82109
1.82187
1.82227
1.82223
1.81906
1.81378
1.80982
1.80739
1.80535
1.80277
1.80018
1.79638
1.79062
1.78533
1.78307
1.78234
1.78227
1.78532
1.78783
1.78661
1.7838
1.77752
1.76884
1.76118
1.7565
1.75532
1.75582
1.76109
1.76553
1.76463
1.76165
1.75556
1.74593
1.73698
1.73204
1.73021
1.72937
1.73063
1.73733
1.74321
1.74249
1.73928
1.73302
1.72324
1.71346
1.70934
1.7086
1.70858
1.71056
1.7115
1.71098
1.70968
1.70548
1.69751
1.69084
1.68723
1.68518
1.68385
1.68356
1.68325
1.68259
1.68067
1.67718
1.67377
1.67217
1.67073
1.66863
1.66546
1.66129
1.65627
1.65057
1.64567
1.64269
1.64088
1.64065
1.64398
1.64605
1.64462
1.64196
1.63864
1.63255
1.62284
1.61359
1.60806
1.605
1.60314
1.60231
1.60185
1.6007
1.59833
1.5957
1.59339
1.59161
1.58995
1.58797
1.58527
1.58115
1.57666
1.57361
1.57186
1.57049
1.56946
1.5689
1.56912
1.5681
1.56572
1.56096
1.55346
1.54799
1.54536
1.54338
1.54208
1.54194
1.54248
1.54201
1.54177
1.54104
1.53822
1.53236
1.52544
1.52278
1.52204
1.52151
1.52227
1.52459
1.52474
1.52401
1.52302
1.52052
1.51202
1.50117
1.49778
1.4966
1.49572
1.49496
1.49456
1.49572
1.49816
1.49775
1.49663
1.49535
1.49291
1.48862
1.48275
1.47864
1.47744
1.47705
1.47688
1.47682
1.4774
1.47754
1.47735
1.47722
1.47709
1.47626
1.47326
1.46627
1.45986
1.45737
1.45664
1.45589
1.45506
1.4549
1.45628
1.45686
1.45602
1.45522
1.45461
1.45291
1.44878
1.445
1.44362
1.44344
1.44388
1.44449
1.44488
1.44472
1.44396
1.44262
1.43931
1.43144
1.42432
1.42137
1.41975
1.41873
1.41857
1.41863
1.41892
1.41953
1.42039
1.42129
1.42152
1.4215
1.42125
1.42037
1.41883
1.41596
1.40977
1.40233
1.39875
1.39681
1.39495
1.39309
1.3923
1.39273
1.39333
1.39185
1.38741
1.38191
1.37427
1.36479
1.35811
1.97069
1.95337
1.94508
1.94224
1.94401
1.94761
1.94456
1.93577
1.92412
1.91509
1.91126
1.91093
1.91299
1.91184
1.90818
1.90167
1.89456
1.89017
1.88765
1.88601
1.88373
1.8806
1.87758
1.87482
1.87256
1.87075
1.86889
1.86539
1.86099
1.85704
1.8556
1.85506
1.85573
1.85469
1.85119
1.84547
1.83727
1.82891
1.8237
1.82235
1.82256
1.82296
1.82299
1.82281
1.81981
1.81481
1.81099
1.80915
1.80758
1.80539
1.80308
1.79925
1.7928
1.78687
1.78374
1.78312
1.78349
1.78783
1.79133
1.79038
1.78814
1.78193
1.7708
1.76271
1.7599
1.759
1.75921
1.76387
1.76876
1.76793
1.76509
1.75911
1.74745
1.73779
1.73488
1.73419
1.73386
1.7356
1.74202
1.74666
1.74554
1.74264
1.73652
1.72563
1.71513
1.71076
1.70983
1.70982
1.71232
1.71408
1.71357
1.7132
1.71061
1.70366
1.69553
1.6906
1.68815
1.68624
1.68428
1.68247
1.68127
1.67995
1.67772
1.67495
1.67428
1.67387
1.67318
1.67174
1.66909
1.66394
1.65607
1.64865
1.64421
1.64193
1.64011
1.63993
1.64175
1.64269
1.64196
1.63942
1.63612
1.63143
1.6258
1.62122
1.61702
1.61275
1.60845
1.60463
1.60117
1.59744
1.59335
1.5903
1.58907
1.58962
1.58961
1.58816
1.58672
1.58412
1.57854
1.57367
1.57187
1.57054
1.56907
1.56762
1.56631
1.56446
1.56149
1.55761
1.55362
1.55046
1.54843
1.54742
1.54642
1.54487
1.54305
1.54145
1.54009
1.53812
1.5337
1.52662
1.52255
1.52162
1.52107
1.52064
1.52138
1.52354
1.52386
1.52325
1.52258
1.52118
1.51703
1.50742
1.49925
1.49688
1.49573
1.49482
1.4941
1.49365
1.49346
1.49308
1.49207
1.49112
1.49043
1.48917
1.4863
1.48201
1.47775
1.47611
1.47563
1.47549
1.47527
1.47513
1.47523
1.47539
1.47532
1.47515
1.47461
1.47185
1.46395
1.45652
1.454
1.45331
1.45283
1.45245
1.45302
1.45616
1.45713
1.45614
1.45527
1.4543
1.45233
1.44822
1.44377
1.44185
1.44151
1.44181
1.4425
1.44391
1.44391
1.4429
1.44024
1.43405
1.42492
1.42053
1.41874
1.41804
1.41801
1.41808
1.4183
1.41872
1.41946
1.42018
1.42057
1.42067
1.42057
1.4201
1.41915
1.41736
1.41406
1.40797
1.40102
1.3977
1.39594
1.39425
1.39315
1.39291
1.39235
1.39021
1.38602
1.38054
1.37353
1.3663
1.36112
1.95335
1.94535
1.94245
1.94413
1.94806
1.94557
1.93739
1.92606
1.91682
1.9126
1.91196
1.91356
1.91224
1.90833
1.90172
1.89487
1.89078
1.88854
1.88701
1.88462
1.8819
1.87868
1.87534
1.87299
1.87135
1.86954
1.8663
1.86219
1.85862
1.85759
1.85739
1.85825
1.85718
1.85426
1.84859
1.83981
1.83185
1.8271
1.82534
1.82533
1.8253
1.82479
1.82381
1.8199
1.81545
1.81287
1.8116
1.81078
1.80902
1.8064
1.80211
1.79626
1.79061
1.78694
1.78605
1.78605
1.78973
1.79382
1.79312
1.79137
1.78632
1.77727
1.76814
1.76328
1.76209
1.76208
1.7659
1.76842
1.76699
1.76441
1.75918
1.75006
1.74136
1.73692
1.73564
1.73518
1.73736
1.74535
1.75123
1.75021
1.74695
1.74029
1.72943
1.71898
1.71337
1.71163
1.71117
1.71257
1.71526
1.71522
1.7152
1.71335
1.70808
1.7009
1.69619
1.69364
1.69116
1.68832
1.68542
1.68296
1.68003
1.67696
1.67509
1.67457
1.6744
1.67455
1.67435
1.67314
1.67101
1.66607
1.65648
1.64832
1.64484
1.64261
1.64066
1.63953
1.63902
1.6381
1.63652
1.63422
1.63051
1.62774
1.62638
1.62546
1.62427
1.62149
1.61625
1.60823
1.59996
1.59363
1.58988
1.58759
1.58608
1.58651
1.58866
1.58781
1.58631
1.58484
1.5819
1.57677
1.57264
1.57015
1.5678
1.5654
1.56304
1.56049
1.55713
1.55477
1.55397
1.55318
1.55297
1.55253
1.55091
1.54857
1.54577
1.54285
1.539
1.53354
1.52752
1.5235
1.52188
1.52109
1.52056
1.52088
1.52371
1.5249
1.52377
1.52258
1.52163
1.52043
1.51773
1.51286
1.5053
1.49842
1.49577
1.49448
1.49341
1.49218
1.49097
1.49006
1.48919
1.48796
1.48669
1.4861
1.48583
1.48469
1.48148
1.47669
1.47429
1.47357
1.47334
1.47323
1.47326
1.47367
1.47388
1.47393
1.47385
1.47312
1.46981
1.46107
1.45362
1.45142
1.45071
1.45013
1.44969
1.45015
1.45283
1.45392
1.45334
1.45303
1.45278
1.45159
1.44736
1.44227
1.44062
1.44022
1.44032
1.44056
1.44108
1.44087
1.43948
1.43518
1.42774
1.42157
1.41892
1.41759
1.41722
1.41717
1.41729
1.41774
1.41836
1.41905
1.41965
1.41992
1.4199
1.41929
1.41783
1.41657
1.41511
1.41219
1.40688
1.40083
1.39783
1.39623
1.3948
1.39371
1.39191
1.38836
1.3838
1.37814
1.37189
1.36711
1.36332
1.94565
1.94287
1.94475
1.94907
1.94708
1.93955
1.92864
1.91939
1.91488
1.91382
1.91507
1.91365
1.90957
1.90298
1.8962
1.8922
1.89034
1.88914
1.88709
1.88442
1.88023
1.87642
1.874
1.87214
1.87024
1.86735
1.86381
1.86073
1.85997
1.86
1.86077
1.85983
1.85757
1.85225
1.84402
1.83558
1.83031
1.82856
1.82851
1.82827
1.82742
1.82607
1.82212
1.81727
1.8141
1.81311
1.81263
1.81182
1.81011
1.80667
1.7998
1.79278
1.79004
1.78944
1.78943
1.79283
1.79686
1.79631
1.79436
1.78912
1.78
1.77201
1.76879
1.76798
1.76788
1.77097
1.77333
1.77163
1.76777
1.76018
1.74827
1.74038
1.73842
1.73815
1.73842
1.74162
1.74925
1.75439
1.75364
1.75119
1.74548
1.73445
1.72267
1.71645
1.71438
1.71348
1.71409
1.71514
1.71447
1.71449
1.71329
1.709
1.70282
1.69954
1.69779
1.69606
1.69365
1.69075
1.68719
1.68266
1.67814
1.6752
1.67443
1.67417
1.67477
1.67524
1.67456
1.67372
1.6717
1.66673
1.65918
1.65289
1.64855
1.6452
1.64215
1.63931
1.63715
1.63464
1.63113
1.62789
1.62625
1.62616
1.62736
1.62931
1.62936
1.62691
1.6226
1.61342
1.60058
1.5927
1.58921
1.58708
1.58527
1.58433
1.58527
1.58727
1.58705
1.58547
1.58299
1.57896
1.57451
1.5706
1.56744
1.56424
1.56025
1.5564
1.55417
1.55316
1.55274
1.55382
1.55582
1.55571
1.55433
1.55255
1.54957
1.54406
1.53556
1.52684
1.52306
1.52215
1.52163
1.52097
1.52046
1.52116
1.52227
1.52174
1.52028
1.51882
1.51741
1.51617
1.5153
1.5137
1.51069
1.50558
1.49841
1.4939
1.49196
1.49072
1.4892
1.48742
1.48633
1.48548
1.4848
1.48425
1.48418
1.48409
1.48364
1.48114
1.47563
1.47242
1.47156
1.47135
1.47115
1.47105
1.47161
1.47231
1.47231
1.47222
1.47123
1.46685
1.45701
1.45043
1.44879
1.4483
1.44786
1.4475
1.44789
1.45113
1.45239
1.45171
1.45169
1.45161
1.4503
1.4465
1.44158
1.43947
1.43875
1.43856
1.43835
1.43774
1.43634
1.43386
1.42922
1.42432
1.42022
1.41779
1.41706
1.41693
1.41693
1.41708
1.41742
1.41793
1.41843
1.41855
1.41854
1.41815
1.41687
1.41541
1.41417
1.41291
1.41087
1.40677
1.4014
1.39821
1.39626
1.39416
1.39111
1.38672
1.38077
1.37489
1.37096
1.36834
1.36545
1.94451
1.94627
1.95079
1.94922
1.94235
1.93198
1.92273
1.91795
1.91658
1.91758
1.91605
1.91184
1.90525
1.89845
1.89455
1.89288
1.89181
1.88998
1.88718
1.88229
1.87801
1.87545
1.8738
1.87218
1.86976
1.8662
1.86312
1.86249
1.8627
1.86357
1.86271
1.86076
1.85545
1.84701
1.83947
1.83517
1.83327
1.83305
1.83245
1.83105
1.82891
1.82441
1.8196
1.81683
1.81597
1.81556
1.81465
1.81278
1.80947
1.80447
1.79858
1.79362
1.79201
1.79152
1.7938
1.79904
1.79953
1.79759
1.79258
1.78337
1.77534
1.77157
1.77083
1.77128
1.77488
1.7765
1.77518
1.7717
1.76385
1.75128
1.74299
1.7395
1.73827
1.73771
1.74095
1.75056
1.75736
1.75704
1.75425
1.74843
1.73882
1.72831
1.72136
1.71831
1.71715
1.71714
1.71718
1.71627
1.71539
1.71279
1.70806
1.70269
1.69988
1.69848
1.6981
1.69752
1.69499
1.69248
1.689
1.68295
1.67748
1.67542
1.67459
1.67421
1.67392
1.67418
1.67368
1.67184
1.66859
1.66406
1.65993
1.65701
1.65412
1.65041
1.64575
1.64081
1.63566
1.63048
1.62624
1.62409
1.62328
1.62432
1.62879
1.63206
1.63104
1.6284
1.6248
1.61758
1.60501
1.5949
1.59032
1.58758
1.58525
1.58329
1.58187
1.58106
1.58105
1.58126
1.58069
1.57897
1.57632
1.57295
1.5684
1.56292
1.55815
1.55513
1.5538
1.55281
1.55237
1.55401
1.55716
1.558
1.55697
1.55528
1.55187
1.54345
1.53176
1.52469
1.52217
1.52118
1.52038
1.51981
1.5207
1.52172
1.52055
1.51901
1.51778
1.51668
1.51534
1.51355