/*--------------------------------*- C++ -*----------------------------------*\
  =========                 |
  \\      /  F ield         | OpenFOAM: The Open Source CFD Toolbox
   \\    /   O peration     | Website:  https://openfoam.org
    \\  /    A nd           | Version:  7
     \\/     M anipulation  |
\*---------------------------------------------------------------------------*/
FoamFile
{
    version     2.0;
    format      ascii;
    class       volScalarField;
    location    "3.6";
    object      p;
}
// * * * * * * * * * * * * * * * * * * * * * * * * * * * * * * * * * * * * * //

dimensions      [1 -1 -2 0 0 0 0];

internalField   nonuniform List<scalar> 
16192
(
1
1
1
1
1
1
1
1
1
1
1
1.00004
1.05155
2.82717
4.94476
5.33087
5.31003
5.25123
5.18232
5.11979
1
1
1
1
1
1
1
1
1
1
1
1
1.00261
1.58365
4.31331
5.34145
5.35129
5.29322
5.21016
5.1388
1
1
1
1
1
1
1
1
1
1
1
1
1.00008
1.08078
3.06158
4.96472
5.29329
5.27195
5.21981
5.15149
1
1
1
1
1
1
1
1
1
1
1
1
1
1.00459
1.74086
4.43361
5.31005
5.31228
5.25845
5.17759
1
1
1
1
1
1
1
1
1
1
1
1
1
1.00015
1.12109
3.26597
4.97371
5.26365
5.24391
5.18903
1
1
1
1
1
1
1
1
1
1
1
1
1
1
1.00785
1.89748
4.51622
5.28741
5.2798
5.22468
1
1
1
1
1
1
1
1
1
1
1
1
1
1
1.00029
1.16897
3.4361
5.02128
5.2364
5.21178
1
1
1
1
1
1
1
1
1
1
1
1
1
1
1.00001
1.0125
2.04985
4.57842
5.25722
5.2412
1
1
1
1
1
1
1
1
1
1
1
1
1
1
1
1.00051
1.22126
3.52909
5.12995
5.23684
1
1
1
1
1
1
1
1
1
1
1
1
1
1
1
1.00001
1.01754
2.1634
4.74074
5.21107
1
1
1
1
1
1
1
1
1
1
1
1
1
1
1
1
1.0007
1.27291
3.74967
4.93862
1
1
1
1
1
1
1
1
1
1
1
1
1
1
1
1
1.00002
1.02566
2.31599
4.60013
1
1
1
1
1
1
1
1
1
1
1
1
1
1
1
1
1
1.00112
1.33226
3.7024
1
1
1
1
1
1
1
1
1
1
1
1
1
1
1
1
1
1.00003
1.03529
2.28935
1
1
1
1
1
1
1
1
1
1
1
1
1
1
1
1
1
1
1.00175
1.33037
1
1
1
1
1
1
1
1
1
1
1
1
1
1
1
1
1
1
1.00005
1.04059
1
1
1
1
1
1
1
1
1
1
1
1
1
1
1
1
1
1
1
1.00259
1
1
1
1
1
1
1
1
1
1
1
1
1
1
1
1
1
1
1
1.00008
1
1
1
1
1
1
1
1
1
1
1
1
1
1
1
1
1
1
1
1
1
1
1
1
1
1
1
1
1
1
1
1
1
1
1
1
1
1
1
1
1
1
1
1
1
1
1
1
1
1
1
1
1
1
1
1
1
1
1
1
1
1
1
1
1
1
1
1
1
1
1
1
1
1
1
1
1
1
1
1
1
1
1
1
1
1
1
1
1
1
1
1
1
1
1
1
1
1
1
1
1
1
1
1
1
1
1
1
1
1
1
1
1
1
1
1
1
1
1
1
1
1
1
1
1
1
1
1
1
1
1
1
1
1
1
1
1
1
1
1
1
1
1
1
1
1
1
1
1
1
1
1
1
1
1
1
1
1
1
1
1
1
1
1
1
1
1
1
1
1
1
1
1
1
1
1
1
1
1
1
1
1
1
1
1
1
1
1
1
1
1
1
1
1
1
1
1
1
1
1
1
1
1
1
1
1
1
1
1
1
1
1
1
1
1
1
1
1
1
1
1
1
1
1
1
1
1
1
1
1
1
1
1
1
1
1
1
1
1
1
1
1
1
1
1
1
1
1
1
1
1
1
1
1
1
1
1
1
1
1
1
1
1
1
1
1
1
1
1
1
1
1
1
1
1
1
1
1
1
1
1
1
1
1
1
1
1
1
1
1
1
1
1
1
1
1
1
1
1
1
1
1
1
1
1
1
1
1
1
1
1
1
1
1
1
1
1
1
1
1
1
1
1
1
1
1
1
1
1
1
1
1
1
1
1
1
1
1
1
1
1
1
1
1
1
1
1
1
1
1
1
1
1
1
1
1
1
1
1
1
1
1
1
1
1
1
1
1
1
1
1
1
1
1
1
1
1
1
1
1
1
1
1
1
1
1
1
1
1
1
1
1
1
1
1
1
1
1
1
1
1
1
1
1
1
1
1
1
1
1
1
1
1
1
1
1
1
1
1
1
1
1
1
1
1
1
1
1
1
1
1
1
1
1
1
1
1
1
1
1
1
1
1
1
1
1
1
1
1
1
1
1
1
1
1
1
1
1
1
1
1
1
1
1
1
1
1
1
1
1
1
1
1
1
1
1
1
1
1
1
1
1
1
1
1
1
1
1
1
1
1
1
1
1
1
1
1
1
1
1
1
1
1
1
1
1
1
1
1
1
1
1
1
1
1
1
1
1
1
1
1
1
1
1
1
1
1
1
1
1
1
1
1
1
1
1
1
1
1
1
1
1
1
1
1
1
1
1
1
1
1
1
1
1
1
1
1
1
1
1
1
1
1
1
1
1
1
1
1
1
1
1
1
1
1
1
1
1
1
1
1
1
1
1
1
1
1
1
1
1
1
1
1
1
1
1
1
1
1
1
1
1
1
1
1
1
1
1
1
1
1
1
1
1
1
1
1
1
1
1
1
1
1
1
1
1
1
1
1
1
1
1
1
1
1
1
1
1
1
1
1
1
1
1
1
1
1
1
1
1
1
1
1
1
1
1
1
1
1
1
1
1
1
1
1
1
1
1
1
1
1
1
1
1
1
1
1
1
1
1
1
1
1
1
1
1
1
1
1
1
1
1
1
1
1
1
1
1
1
1
1
1
1
1
1
1
1
1
1
1
1
1
1
1
1
1
1
1
1
1
1
1
1
1
1
1
1
1
1
1
1
1
1
1
1
1
1
1
1
1
1
1
1
1
1
1
1
1
1
1
1
1
1
1
1
1
1
1
1
1
1
1
1
1
1
1
1
1
1
1
1
1
1
1
1
1
1
1
1
1
1
1
1
1
1
1
1
1
1
1
1
1
1
1
1
1
1
1
1
1
1
1
1
1
1
1
1
1
1
1
1
1
1
1
1
1
1
1
1
1
1
1
1
1
1
1
1
1
1
1
1
1
1
1
1
1
1
1
1
1
1
1
1
1
1
1
1
1
1
1
1
1
1
1
1
1
1
1
1
1
1
1
1
1
1
1
1
1
1
1
1
1
1
1
1
1
1
1
1
1
1
1
1
1
1
1
1
1
1
1
1
1
1
1
1
1
1
1
1
1
1
1
1
1
1
1
1
1
1
1
1
1
1
1
1
1
1
1
1
1
1
1
1
1
1
1
1
1
1
1
1
1
1
1
1
1
1
1
1
1
3.09761
3.06556
3.04282
3.01224
2.9887
2.9721
2.94647
2.92016
2.89429
2.85734
2.83501
2.82469
2.8087
2.79323
2.77712
2.75196
2.71008
2.67902
2.66577
2.65596
2.64609
2.63068
2.61413
2.60615
2.59825
2.58699
2.57139
2.54573
2.51114
2.46671
2.41877
2.38373
2.36602
2.36003
2.35731
2.35586
2.35523
2.35587
2.3553
2.35086
2.33787
2.31012
2.27938
2.25015
2.2222
2.19642
2.183
2.17975
2.17711
2.1701
2.15232
2.11933
2.08845
2.07802
2.07742
2.08903
2.09851
2.09363
2.07852
2.03926
1.98011
1.95342
1.94804
1.94239
1.93748
1.93412
1.93228
1.93321
1.93819
1.94607
1.95221
1.95029
1.94258
1.92042
1.87421
1.80188
1.75694
1.74429
1.74123
1.73977
1.74359
1.76313
1.79345
1.80771
1.80643
1.79992
1.78004
1.7496
1.72163
1.70376
1.6881
1.66761
1.63998
1.61906
1.61575
1.61466
1.61683
1.62857
1.64165
1.64204
1.63785
1.63152
1.61899
1.6029
1.58698
1.56802
1.54256
1.51672
1.50428
1.50283
1.50605
1.52354
1.54084
1.54179
1.53767
1.52658
1.50027
1.45375
1.41995
1.41043
1.40913
1.41151
1.42558
1.44191
1.44431
1.44188
1.43877
1.43391
1.42124
1.39335
1.36372
1.35467
1.3534
1.35218
5.07446
5.04513
5.01161
4.98392
4.95735
4.92857
4.89569
4.86412
4.84092
4.81042
4.78144
4.75104
4.71986
4.69639
4.66686
4.63988
4.60803
4.57812
4.55943
4.53218
4.50553
4.47295
4.44519
4.42244
4.39065
4.36366
4.33072
4.30105
4.27851
4.24904
4.22397
4.19055
4.1669
4.15033
4.12389
4.09991
4.0688
4.04617
4.02056
3.99103
3.96496
3.93671
3.90585
3.88461
3.86409
3.83971
3.81193
3.7784
3.76187
3.74527
3.72095
3.69421
3.65321
3.62392
3.60461
3.5944
3.59839
3.61948
3.68105
3.80545
3.97171
4.05893
4.0788
4.07373
4.04802
4.01302
3.98003
3.93693
3.90162
3.87826
3.8468
3.81264
3.76917
3.7366
3.71939
3.69457
3.66612
3.6385
3.60614
3.57729
3.54669
3.513
3.482
3.44695
3.4239
3.40037
3.37282
3.34272
3.3154
3.29566
3.26848
3.24013
3.2147
3.18424
3.16323
3.14038
3.10764
3.08283
3.05694
3.03088
3.01497
2.99147
2.96328
2.93865
2.90444
2.87873
2.86832
2.85183
2.83485
2.81847
2.79464
2.75563
2.7241
2.70911
2.69805
2.6877
2.67382
2.65828
2.64777
2.63788
2.62479
2.60659
2.57791
2.54186
2.497
2.45152
2.41801
2.40315
2.39887
2.3986
2.40071
2.40139
2.40185
2.39934
2.39248
2.37247
2.33846
2.30364
2.27346
2.24698
2.22437
2.21385
2.2111
2.20882
2.20183
2.18326
2.14901
2.11802
2.10824
2.10801
2.12078
2.13101
2.12622
2.11174
2.07424
2.01103
1.97486
1.96737
1.96258
1.95887
1.9576
1.96098
1.96857
1.9777
1.98569
1.9875
1.9834
1.97319
1.94678
1.89468
1.8194
1.77665
1.76446
1.76192
1.76113
1.76728
1.79145
1.828
1.84281
1.84011
1.8299
1.80432
1.76703
1.73474
1.71786
1.70475
1.68946
1.66718
1.64529
1.64063
1.63951
1.64203
1.65487
1.66846
1.6687
1.66398
1.65441
1.63666
1.61697
1.59994
1.58339
1.56332
1.54047
1.52839
1.52688
1.52954
1.54538
1.55981
1.55944
1.55516
1.54422
1.51794
1.47123
1.43776
1.4283
1.42709
1.43003
1.44511
1.46029
1.46187
1.45986
1.45737
1.45312
1.44174
1.41538
1.38254
1.36949
1.36804
1.36682
1.36682
5.09156
5.06083
5.02848
5.00182
4.97418
4.9446
4.90906
4.88309
4.85614
4.82541
4.79827
4.76475
4.74
4.71293
4.68453
4.65714
4.62174
4.59974
4.57455
4.54677
4.51888
4.48599
4.4644
4.4362
4.40656
4.37864
4.34396
4.32221
4.29514
4.2681
4.23996
4.2076
4.19132
4.16694
4.1417
4.11298
4.08581
4.0634
4.03453
4.00515
3.97965
3.95244
3.92335
3.90138
3.87831
3.85264
3.82359
3.79518
3.77925
3.75737
3.73132
3.70419
3.67054
3.65017
3.62976
3.60342
3.59217
3.60072
3.63191
3.71693
3.87034
4.00923
4.07137
4.07832
4.06636
4.04034
4.01015
3.96672
3.93148
3.90356
3.87048
3.83267
3.78742
3.76576
3.74588
3.71651
3.68862
3.65659
3.62286
3.59666
3.56326
3.5319
3.50029
3.46727
3.44778
3.42269
3.39528
3.3638
3.34051
3.3167
3.28666
3.26081
3.23053
3.20561
3.18329
3.15077
3.1226
3.09866
3.07276
3.05735
3.03691
3.00846
2.98411
2.9531
2.92431
2.91281
2.89646
2.87738
2.85991
2.83653
2.80101
2.76935
2.75296
2.74112
2.73018
2.7163
2.70117
2.68903
2.67642
2.66116
2.64088
2.61064
2.57418
2.53035
2.48811
2.4565
2.44413
2.44074
2.44241
2.44639
2.44672
2.44582
2.44191
2.43193
2.40591
2.36753
2.32761
2.29654
2.27197
2.25329
2.24552
2.24352
2.24156
2.23453
2.21498
2.17954
2.14897
2.13979
2.13982
2.15314
2.16278
2.15787
2.14379
2.10768
2.04306
1.99943
1.98885
1.98485
1.98213
1.98358
1.99308
2.00655
2.01761
2.02255
2.02081
2.0154
2.00222
1.97222
1.91434
1.8377
1.79796
1.78646
1.78421
1.78388
1.79217
1.82074
1.86151
1.87585
1.87161
1.85786
1.828
1.78335
1.74803
1.73202
1.72101
1.70921
1.69191
1.67232
1.66669
1.6654
1.66779
1.68101
1.69471
1.69463
1.68921
1.67675
1.6553
1.63258
1.61526
1.60037
1.58383
1.56359
1.55248
1.5509
1.55288
1.56663
1.57878
1.57732
1.57261
1.56167
1.53558
1.48909
1.45612
1.44695
1.44595
1.44957
1.46541
1.4794
1.47984
1.47791
1.47579
1.47225
1.46198
1.43706
1.40252
1.38548
1.38338
1.38217
1.38214
1.38512
5.10308
5.07262
5.04405
5.01575
4.98668
4.95391
4.92518
4.90124
4.87059
4.84236
4.80942
4.78354
4.76032
4.73065
4.70305
4.66775
4.64191
4.61918
4.58932
4.5624
4.52862
4.50471
4.48097
4.44964
4.42416
4.38945
4.36416
4.34198
4.31336
4.28761
4.25291
4.23158
4.21093
4.18252
4.15686
4.12451
4.10267
4.07682
4.04714
4.01893
3.99514
3.96791
3.93884
3.91663
3.8921
3.86703
3.83759
3.8143
3.79559
3.76796
3.74222
3.71509
3.69318
3.67986
3.65826
3.62035
3.59246
3.59584
3.61688
3.66029
3.77402
3.92123
4.03145
4.07505
4.07737
4.06298
4.03888
4.00062
3.96466
3.93048
3.89357
3.84832
3.80886
3.79265
3.76807
3.73849
3.70948
3.67123
3.64315
3.61413
3.57948
3.55162
3.51633
3.4919
3.47198
3.44552
3.41735
3.38643
3.36288
3.33417
3.30583
3.27724
3.25036
3.22707
3.19554
3.16366
3.13903
3.11325
3.09774
3.08145
3.0544
3.02983
3.00278
2.97143
2.95753
2.94152
2.92057
2.90225
2.88004
2.84817
2.81491
2.79546
2.78238
2.77134
2.75808
2.74227
2.72853
2.71405
2.69713
2.67492
2.64375
2.60671
2.56407
2.52429
2.49637
2.48683
2.4843
2.48876
2.49333
2.49156
2.48831
2.48222
2.46747
2.43743
2.39613
2.35164
2.32014
2.29767
2.28384
2.27836
2.27784
2.27557
2.268
2.24676
2.21014
2.18077
2.17267
2.17295
2.18646
2.19456
2.18932
2.17549
2.14039
2.07517
2.02613
2.01271
2.00927
2.00756
2.01309
2.0291
2.04641
2.0557
2.05626
2.05243
2.04544
2.02885
1.9961
1.93407
1.85761
1.82046
1.80992
1.80795
1.80806
1.81833
1.85069
1.89368
1.90713
1.90193
1.88483
1.84985
1.7981
1.76194
1.74686
1.73792
1.72937
1.71645
1.69983
1.69396
1.69261
1.69449
1.70714
1.71982
1.71921
1.71322
1.69824
1.67356
1.648
1.63069
1.61714
1.60289
1.58554
1.57627
1.57472
1.57611
1.58768
1.59744
1.59529
1.5902
1.57922
1.55352
1.5078
1.47501
1.4659
1.46518
1.46978
1.48671
1.49946
1.49849
1.49635
1.49438
1.49117
1.48208
1.45864
1.42299
1.4025
1.39942
1.39803
1.39793
1.40135
1.40166
5.1222
5.09062
5.0624
5.034
5.00386
4.96994
4.94455
4.91689
4.88887
4.85928
4.82561
4.80266
4.77552
4.74883
4.71788
4.68474
4.66254
4.63371
4.60617
4.57512
4.54491
4.52392
4.49422
4.4677
4.4383
4.40586
4.38509
4.35732
4.3315
4.30097
4.27054
4.25152
4.22338
4.19764
4.16701
4.1396
4.11735
4.08939
4.05866
4.03378
4.01159
3.98347
3.95524
3.93221
3.90721
3.88212
3.85332
3.8337
3.8113
3.78276
3.75968
3.73439
3.72057
3.70637
3.68136
3.64294
3.60363
3.60373
3.61691
3.63949
3.69472
3.81274
3.95384
4.0393
4.0729
4.07996
4.06605
4.03483
3.99765
3.95739
3.91532
3.86227
3.83194
3.81444
3.78588
3.75859
3.72481
3.69
3.66545
3.63116
3.60032
3.56883
3.53521
3.51853
3.49364
3.46745
3.43673
3.4071
3.38198
3.35325
3.32442
3.29449
3.27118
3.24274
3.20876
3.18204
3.15479
3.13729
3.12449
3.1005
3.07504
3.05146
3.01959
3.00161
2.98628
2.96431
2.94513
2.92367
2.89613
2.86458
2.83965
2.82342
2.81091
2.79676
2.78032
2.76563
2.75031
2.73233
2.70929
2.67792
2.64031
2.59852
2.56152
2.53758
2.5298
2.52881
2.53596
2.54022
2.53642
2.53057
2.52095
2.50043
2.46777
2.42341
2.37636
2.34551
2.32589
2.31651
2.31304
2.31382
2.31106
2.30253
2.27822
2.24084
2.21296
2.20597
2.20709
2.22069
2.2264
2.22063
2.20717
2.17321
2.10872
2.05549
2.03928
2.0361
2.03551
2.04585
2.06787
2.08559
2.08992
2.08728
2.08248
2.07362
2.05433
2.01936
1.95429
1.87975
1.84501
1.83493
1.83301
1.83333
1.84523
1.88123
1.92562
1.93711
1.93103
1.91169
1.87152
1.81254
1.77637
1.76306
1.75666
1.75087
1.74185
1.72863
1.72255
1.72102
1.72212
1.73329
1.74444
1.74309
1.73629
1.71916
1.69123
1.66266
1.64544
1.63332
1.6213
1.60756
1.60031
1.59886
1.59966
1.60878
1.61628
1.61355
1.60836
1.59753
1.57199
1.52701
1.49457
1.48535
1.48473
1.48981
1.50769
1.52006
1.51827
1.51539
1.51321
1.51027
1.50222
1.48019
1.44373
1.42013
1.41592
1.41447
1.41403
1.41741
1.41868
1.41573
5.13531
5.10553
5.07732
5.04731
5.0139
4.9855
4.96073
4.93132
4.90304
4.86837
4.84452
4.82066
4.79166
4.76234
4.72731
4.70529
4.67997
4.64969
4.62133
4.58719
4.56541
4.53958
4.5102
4.48399
4.44919
4.42761
4.40307
4.37411
4.34567
4.31033
4.28969
4.26499
4.23532
4.20951
4.17587
4.1547
4.12945
4.10168
4.07118
4.05138
4.02919
3.99858
3.97489
3.95161
3.92715
3.89925
3.87078
3.85282
3.82789
3.80415
3.78346
3.76172
3.74894
3.72816
3.70042
3.66433
3.62992
3.62222
3.6211
3.62699
3.6476
3.71249
3.84001
3.97265
4.03255
4.08144
4.08309
4.06019
4.0247
3.98481
3.93848
3.88199
3.85751
3.83219
3.80141
3.77328
3.73607
3.7126
3.68628
3.65237
3.62401
3.58503
3.56236
3.54203
3.51327
3.48651
3.45226
3.4264
3.40121
3.37397
3.34283
3.31361
3.28787
3.25694
3.22863
3.19928
3.17702
3.16532
3.14588
3.12081
3.09911
3.06896
3.04599
3.0298
3.00719
2.98638
2.96597
2.94224
2.916
2.88787
2.86545
2.84987
2.83463
2.81716
2.80138
2.78523
2.76644
2.74381
2.71351
2.67659
2.63593
2.60027
2.57943
2.57309
2.57358
2.58213
2.58551
2.58015
2.57205
2.55761
2.53176
2.49712
2.45006
2.40304
2.37362
2.3576
2.35107
2.34983
2.35142
2.34749
2.33745
2.30983
2.27165
2.24548
2.23933
2.24153
2.25496
2.25809
2.25179
2.23857
2.20574
2.14258
2.08687
2.06844
2.06533
2.06609
2.08119
2.10724
2.12129
2.12068
2.11652
2.11063
2.09998
2.07892
2.04255
1.97614
1.90431
1.87119
1.86173
1.8598
1.85999
1.87285
1.91172
1.95667
1.9664
1.95968
1.93794
1.89246
1.82791
1.79275
1.78131
1.77733
1.77345
1.76728
1.75774
1.75199
1.74996
1.75017
1.75944
1.76919
1.76719
1.75894
1.73983
1.70858
1.67779
1.66058
1.64994
1.64067
1.63054
1.62515
1.62366
1.62376
1.63042
1.6356
1.63227
1.62698
1.61634
1.59108
1.54663
1.51448
1.50528
1.50471
1.50994
1.52804
1.54083
1.53891
1.53539
1.53281
1.52961
1.52169
1.50096
1.46502
1.43852
1.43268
1.4315
1.43082
1.43316
1.43589
1.43324
1.43082
5.15903
5.12369
5.09368
5.06246
5.0289
5.00356
4.97699
4.95099
4.92092
4.88857
4.86432
4.83622
4.80964
4.7759
4.7467
4.72408
4.69343
4.66679
4.63403
4.60587
4.58307
4.55265
4.52761
4.49503
4.46679
4.44518
4.41603
4.38979
4.35538
4.32714
4.3052
4.27388
4.24878
4.2174
4.19135
4.17091
4.14523
4.11663
4.08731
4.07232
4.04805
4.01581
3.9959
3.9751
3.95184
3.91876
3.89228
3.87277
3.84735
3.8293
3.80999
3.79196
3.77401
3.74615
3.71766
3.6849
3.6603
3.64509
3.6275
3.62199
3.62205
3.65047
3.73322
3.8784
3.98323
4.05712
4.07923
4.07082
4.04636
4.01348
3.96413
3.91288
3.8844
3.84875
3.81819
3.78256
3.75175
3.73498
3.70528
3.67713
3.64483
3.6085
3.58984
3.56138
3.53307
3.50134
3.46824
3.44659
3.42153
3.39348
3.36276
3.33124
3.30158
3.27594
3.2509
3.22258
3.20415
3.18685
3.16498
3.14474
3.11905
3.09224
3.07251
3.04951
3.02727
3.00681
2.98501
2.96418
2.93825
2.91153
2.89069
2.87069
2.85246
2.8371
2.82018
2.80091
2.77881
2.75044
2.71464
2.67496
2.64046
2.62315
2.61773
2.61956
2.62781
2.62808
2.6214
2.61072
2.591
2.56264
2.5262
2.47733
2.43234
2.40475
2.39228
2.38788
2.38896
2.38998
2.38473
2.37236
2.34179
2.30293
2.27848
2.27288
2.27586
2.28871
2.2895
2.28277
2.26957
2.23787
2.17655
2.11953
2.09947
2.09639
2.09867
2.11807
2.14505
2.15325
2.14959
2.14447
2.13765
2.12512
2.10238
2.06512
1.99918
1.92995
1.89808
1.88966
1.88766
1.88798
1.90188
1.9428
1.98765
1.99572
1.9881
1.96465
1.91392
1.8439
1.81069
1.8014
1.79924
1.797
1.7922
1.78548
1.78074
1.77858
1.77841
1.78558
1.79329
1.79112
1.78195
1.76054
1.7256
1.69379
1.67714
1.66812
1.66124
1.65421
1.65035
1.64873
1.64836
1.65264
1.65532
1.65154
1.64627
1.63574
1.61077
1.56674
1.53457
1.52536
1.52475
1.53042
1.54897
1.56199
1.5604
1.55671
1.55367
1.54967
1.54039
1.51982
1.48542
1.4576
1.45008
1.44899
1.44846
1.44942
1.45224
1.45115
1.44836
1.44743
5.17192
5.13996
5.11051
5.07678
5.04787
5.02363
4.99522
4.96624
4.93329
4.90885
4.88197
4.85225
4.82025
4.78663
4.76573
4.73767
4.70747
4.67662
4.64371
4.62369
4.59645
4.56852
4.53875
4.50459
4.48448
4.45786
4.42995
4.40058
4.36758
4.34641
4.31715
4.28794
4.26124
4.22778
4.21104
4.18859
4.1657
4.13523
4.1099
4.09481
4.06849
4.03695
4.01691
3.99887
3.975
3.94241
3.91818
3.89378
3.87032
3.85045
3.828
3.81251
3.79057
3.76259
3.73785
3.70947
3.68844
3.66511
3.63261
3.60989
3.60899
3.62225
3.66724
3.7814
3.91244
4.01822
4.06471
4.0723
4.06166
4.03783
3.98987
3.9456
3.9092
3.87139
3.83763
3.79539
3.77692
3.75662
3.72582
3.70065
3.66258
3.63585
3.61139
3.57919
3.55136
3.51446
3.4884
3.46857
3.44126
3.41129
3.38022
3.34839
3.32158
3.30027
3.27513
3.24871
3.22675
3.20583
3.18633
3.16652
3.14176
3.11684
3.09148
3.0677
3.04646
3.02489
3.00837
2.98696
2.95908
2.9348
2.91053
2.88531
2.87072
2.85577
2.83624
2.81446
2.78856
2.75515
2.71616
2.68243
2.66791
2.66352
2.66613
2.67114
2.6683
2.65945
2.64492
2.62179
2.59286
2.55517
2.50608
2.4637
2.43862
2.42905
2.42621
2.42982
2.42934
2.42267
2.40772
2.3745
2.33495
2.31196
2.30689
2.31
2.3215
2.32051
2.31347
2.30054
2.26979
2.21037
2.1531
2.13187
2.12879
2.13219
2.15451
2.17994
2.18282
2.17771
2.17198
2.1641
2.14967
2.12566
2.08749
2.02282
1.95701
1.92584
1.91796
1.91593
1.91658
1.93196
1.97518
2.0194
2.02579
2.01749
1.9927
1.93729
1.86212
1.82902
1.82102
1.81973
1.81975
1.81657
1.81228
1.80865
1.80665
1.80666
1.81258
1.81737
1.81454
1.80484
1.78144
1.74234
1.71031
1.69562
1.68868
1.6835
1.67821
1.67506
1.67346
1.67281
1.67544
1.67574
1.67161
1.66624
1.65589
1.63139
1.58775
1.55468
1.54526
1.54486
1.55125
1.57106
1.58494
1.58354
1.57965
1.57567
1.56941
1.55732
1.537
1.50469
1.47706
1.46842
1.4671
1.46679
1.46775
1.46831
1.46811
1.46633
1.465
1.46442
5.20571
5.17373
5.13993
5.10088
5.07271
5.04524
5.01544
4.97931
4.94831
4.92567
4.89743
4.86933
4.83224
4.80487
4.78017
4.7485
4.7212
4.6851
4.65943
4.63698
4.60822
4.58334
4.54851
4.52343
4.49958
4.46922
4.44264
4.40962
4.38753
4.36454
4.33352
4.3098
4.27548
4.25097
4.23343
4.21011
4.1881
4.15829
4.13981
4.11954
4.08895
4.05762
4.03814
4.01942
3.99293
3.96537
3.94411
3.91958
3.89752
3.86736
3.8407
3.82514
3.80052
3.77904
3.75863
3.73764
3.71542
3.6831
3.64367
3.60355
3.5999
3.60753
3.63369
3.70623
3.82049
3.94835
4.04741
4.06548
4.06278
4.04865
4.01293
3.9733
3.93393
3.89959
3.85664
3.82138
3.80664
3.77818
3.75044
3.71965
3.68067
3.65741
3.6265
3.59713
3.56747
3.53259
3.51356
3.49085
3.46034
3.42968
3.39611
3.36705
3.34812
3.32558
3.29848
3.27289
3.24783
3.22495
3.20809
3.18865
3.16293
3.13474
3.10932
3.08681
3.06321
3.04842
3.03194
3.00616
2.97999
2.95563
2.92303
2.90214
2.8895
2.87152
2.84983
2.82592
2.7965
2.75968
2.72635
2.71352
2.70999
2.71199
2.71129
2.70465
2.6936
2.67528
2.65088
2.62281
2.58497
2.53642
2.49697
2.47374
2.46627
2.46503
2.47094
2.46901
2.46053
2.44294
2.40804
2.36869
2.34648
2.34165
2.34422
2.35347
2.35109
2.34392
2.33126
2.30129
2.24385
2.18712
2.16527
2.16216
2.16631
2.18987
2.21193
2.2113
2.20538
2.19919
2.19044
2.17427
2.14894
2.11018
2.04775
1.98517
1.95426
1.94676
1.9446
1.94552
1.96261
2.00829
2.05134
2.05621
2.04737
2.02162
1.96285
1.88281
1.84871
1.84081
1.83901
1.83964
1.83948
1.83752
1.83582
1.8351
1.83701
1.84161
1.84282
1.83892
1.82733
1.80036
1.75839
1.72748
1.71545
1.71106
1.70687
1.70205
1.69901
1.69732
1.69658
1.6984
1.69739
1.69295
1.68755
1.67746
1.65306
1.60949
1.57512
1.56522
1.5651
1.57237
1.59392
1.60949
1.60827
1.60378
1.5971
1.5859
1.5715
1.55276
1.52368
1.49699
1.4873
1.48572
1.48525
1.48711
1.48628
1.48499
1.48411
1.48307
1.48226
1.48092
5.21822
5.18898
5.15007
5.11067
5.08103
5.05159
5.0211
4.98692
4.96247
4.93598
4.90644
4.87263
4.83986
4.81972
4.791
4.76274
4.73031
4.69562
4.6744
4.64656
4.62073
4.59056
4.5622
4.54342
4.51419
4.48596
4.45289
4.42506
4.40903
4.38209
4.35792
4.33147
4.29912
4.28146
4.25759
4.23395
4.20539
4.18164
4.16571
4.14131
4.11185
4.08123
4.05799
4.03229
4.0008
3.98324
3.96649
3.94825
3.92494
3.88608
3.85556
3.83117
3.80556
3.79069
3.7741
3.75856
3.73531
3.702
3.66458
3.62016
3.59973
3.60052
3.61629
3.65323
3.73104
3.84694
3.9957
4.04411
4.05438
4.05284
4.03046
3.99556
3.95945
3.92429
3.87381
3.8522
3.83262
3.80124
3.77515
3.73379
3.69883
3.67276
3.63988
3.61418
3.58242
3.55611
3.53917
3.51156
3.48035
3.44856
3.41278
3.39239
3.37386
3.34632
3.31922
3.29448
3.2668
3.24755
3.23256
3.20891
3.1792
3.15221
3.1288
3.10207
3.08624
3.07317
3.05025
3.02403
3.00136
2.96963
2.93704
2.92262
2.90581
2.88513
2.86303
2.83715
2.80369
2.77225
2.76014
2.75672
2.75595
2.74987
2.73907
2.72262
2.70237
2.67973
2.65284
2.6162
2.57006
2.53198
2.51033
2.50373
2.50378
2.51117
2.5082
2.49852
2.47828
2.44186
2.4031
2.38202
2.37739
2.37927
2.38583
2.382
2.37453
2.36188
2.33237
2.27644
2.22089
2.19873
2.19552
2.20031
2.22431
2.24245
2.23945
2.23324
2.22646
2.21666
2.19876
2.17238
2.13335
2.07392
2.01494
1.98377
1.97607
1.97388
1.97516
1.99386
2.04179
2.08292
2.08603
2.07653
2.05042
1.98978
1.90529
1.86934
1.86121
1.85877
1.85808
1.85961
1.86111
1.86226
1.86465
1.86934
1.87273
1.87082
1.86572
1.8507
1.81762
1.7726
1.74578
1.73613
1.73324
1.72993
1.72523
1.72191
1.72008
1.71934
1.72125
1.72036
1.71594
1.71043
1.7002
1.67564
1.63178
1.59606
1.58564
1.58575
1.59404
1.61745
1.63445
1.63348
1.62769
1.6163
1.60022
1.58436
1.56676
1.54221
1.5175
1.50661
1.50479
1.50388
1.50609
1.50583
1.50326
1.50213
1.50164
1.50081
1.49949
1.49748
5.23568
5.21907
5.18026
5.12741
5.08914
5.06007
5.02982
5.00064
4.9782
4.94972
4.91857
4.87928
4.8529
4.83073
4.80406
4.78032
4.74777
4.72101
4.69186
4.66104
4.63173
4.59937
4.5846
4.56399
4.53606
4.50911
4.47282
4.45209
4.43044
4.40442
4.38501
4.35649
4.33499
4.31127
4.28276
4.25287
4.21752
4.20034
4.18322
4.1593
4.13362
4.10638
4.08017
4.0485
4.01396
3.98909
3.97584
3.9652
3.94435
3.91214
3.88018
3.84908
3.82278
3.79427
3.77727
3.76971
3.74809
3.72121
3.69333
3.65159
3.62476
3.61227
3.61272
3.62436
3.6621
3.74161
3.89471
3.99315
4.04014
4.05693
4.04534
4.01988
3.99041
3.94594
3.89803
3.88082
3.8535
3.82516
3.79367
3.74511
3.7168
3.687
3.65736
3.63257
3.60018
3.58188
3.56213
3.53089
3.5019
3.46758
3.43664
3.42047
3.39572
3.36486
3.33999
3.31283
3.28759
3.27438
3.25471
3.22519
3.19682
3.17358
3.1439
3.12435
3.1129
3.09198
3.06554
3.04381
3.01816
2.97838
2.95758
2.94084
2.92057
2.90016
2.87701
2.84663
2.81897
2.80803
2.80408
2.79787
2.78807
2.77276
2.75266
2.73134
2.70919
2.68378
2.64944
2.60563
2.56897
2.54801
2.54177
2.54266
2.55047
2.54676
2.53601
2.51343
2.47556
2.43706
2.41728
2.41285
2.41462
2.41919
2.41432
2.40643
2.39334
2.36382
2.30898
2.25451
2.23169
2.22834
2.23311
2.25668
2.27208
2.26779
2.26137
2.25423
2.24328
2.22342
2.19614
2.15709
2.10096
2.04585
2.01448
2.00635
2.00401
2.00541
2.02599
2.07591
2.11392
2.11486
2.10434
2.07798
2.01651
1.92841
1.89035
1.88203
1.87924
1.87771
1.87851
1.88264
1.88822
1.89509
1.90239
1.90458
1.90146
1.89543
1.87639
1.83617
1.78565
1.76239
1.75593
1.75409
1.75156
1.74767
1.74434
1.74227
1.74141
1.74361
1.74439
1.74066
1.73531
1.72464
1.69882
1.65404
1.61775
1.60686
1.60696
1.6161
1.64103
1.65867
1.6579
1.65079
1.63543
1.61511
1.59678
1.58033
1.56078
1.53852
1.52617
1.52419
1.52289
1.52421
1.52597
1.52297
1.52115
1.52084
1.52049
1.519
1.51679
1.51161
5.21108
5.20859
5.18386
5.14766
5.11029
5.07269
5.03369
5.01374
4.98994
4.96463
4.93442
4.89702
4.86808
4.83734
4.81064
4.78471
4.7635
4.74482
4.7166
4.68701
4.64282
4.61244
4.60324
4.583
4.5627
4.53767
4.50949
4.48432
4.45306
4.42576
4.39603
4.37265
4.35811
4.33285
4.30647
4.2709
4.23547
4.21374
4.18869
4.16888
4.14858
4.12847
4.10315
4.07192
4.03639
4.0051
3.98529
3.96564
3.9439
3.92392
3.9023
3.87694
3.84753
3.8068
3.78531
3.76875
3.74815
3.73441
3.71787
3.68848
3.66196
3.63586
3.61653
3.61095
3.62106
3.66065
3.77201
3.90485
4.00401
4.04724
4.0537
4.04183
4.01899
3.97274
3.9341
3.90888
3.87572
3.84541
3.79881
3.75768
3.73446
3.70312
3.67992
3.65268
3.62404
3.60857
3.58274
3.55168
3.52362
3.48704
3.46449
3.4447
3.41268
3.38493
3.36076
3.33092
3.31468
3.29943
3.27188
3.24164
3.21881
3.18967
3.16404
3.15279
3.13376
3.10713
3.08439
3.06255
3.0241
2.99447
2.97731
2.9571
2.93787
2.91719
2.88953
2.86589
2.85696
2.85071
2.83991
2.82578
2.80611
2.78339
2.76154
2.74026
2.71645
2.68444
2.64278
2.60601
2.58623
2.58018
2.58154
2.58937
2.58505
2.57377
2.54979
2.50975
2.47034
2.45125
2.44686
2.44856
2.45299
2.44773
2.43975
2.42646
2.39683
2.34269
2.28853
2.26496
2.26123
2.26512
2.28674
2.30052
2.29583
2.2894
2.28199
2.26984
2.24874
2.22086
2.18189
2.12898
2.07748
2.046
2.03747
2.03512
2.03678
2.05886
2.10971
2.14423
2.14312
2.13147
2.10469
2.04219
1.95153
1.91164
1.90285
1.89999
1.89813
1.89838
1.90379
1.91403
1.9263
1.93586
1.93691
1.93345
1.92596
1.90284
1.85639
1.80111
1.7785
1.77278
1.77205
1.77222
1.76954
1.76678
1.76492
1.76414
1.76645
1.76911
1.76678
1.76228
1.75106
1.72282
1.67578
1.6397
1.62893
1.6288
1.63859
1.66479
1.68204
1.68107
1.67281
1.65478
1.63131
1.61087
1.59512
1.57918
1.55983
1.54612
1.54382
1.54243
1.54239
1.54602
1.54418
1.54146
1.54081
1.54118
1.5397
1.53682
1.52965
1.5135
5.21924
5.21545
5.20401
5.17984
5.14201
5.09693
5.05101
5.00941
4.98984
4.97944
4.95618
4.92853
4.8957
4.86159
4.82391
4.79032
4.77939
4.76559
4.74595
4.72232
4.68412
4.64724
4.61822
4.59716
4.58328
4.56275
4.54283
4.51428
4.48228
4.44622
4.40307
4.38326
4.36774
4.34595
4.32218
4.29141
4.26405
4.23461
4.2044
4.1717
4.14997
4.13764
4.11882
4.09467
4.06572
4.03521
4.00574
3.97118
3.94385
3.92945
3.91522
3.89873
3.87387
3.8369
3.80623
3.77901
3.75841
3.7453
3.7307
3.71402
3.69019
3.66036
3.62847
3.60682
3.60384
3.6151
3.67841
3.79762
3.92686
4.02362
4.04098
4.04665
4.03911
4.00771
3.97251
3.93742
3.90042
3.85739
3.80037
3.77644
3.75255
3.72442
3.70465
3.67388
3.65342
3.6344
3.60335
3.57564
3.54386
3.50856
3.48919
3.46195
3.42933
3.40792
3.38086
3.35733
3.34446
3.32053
3.28791
3.26298
3.23609
3.20471
3.19184
3.17573
3.14994
3.1262
3.10564
3.07089
3.0336
3.01541
2.99492
2.9763
2.95937
2.93469
2.91323
2.90487
2.89526
2.88108
2.86332
2.84041
2.81536
2.79272
2.77215
2.75072
2.72141
2.68162
2.64368
2.62439
2.61866
2.62015
2.62768
2.62291
2.61162
2.58695
2.54538
2.50437
2.48472
2.48001
2.48095
2.48621
2.48148
2.4735
2.46012
2.43089
2.37773
2.32359
2.29918
2.29491
2.29772
2.31592
2.327
2.32259
2.3164
2.3084
2.29513
2.27389
2.24659
2.20852
2.15814
2.10961
2.0784
2.06932
2.06686
2.06903
2.093
2.14318
2.17266
2.17022
2.15777
2.13078
2.06705
1.97467
1.93375
1.9244
1.92128
1.91904
1.91909
1.92594
1.94087
1.95874
1.96951
1.96955
1.96615
1.95743
1.93042
1.87618
1.81716
1.79549
1.78994
1.7885
1.7895
1.79115
1.7902
1.789
1.789
1.79196
1.79504
1.79378
1.79016
1.77811
1.74713
1.69738
1.6616
1.651
1.65098
1.66157
1.68847
1.70455
1.70345
1.69441
1.6741
1.64722
1.62547
1.61055
1.59676
1.57998
1.56637
1.564
1.56258
1.56177
1.56517
1.56673
1.56354
1.56205
1.56213
1.56081
1.55656
1.54584
1.52831
1.50315
5.04418
5.18246
5.20118
5.1932
5.16203
5.12057
5.07441
5.02705
4.99465
4.97335
4.96375
4.95068
4.92905
4.90199
4.86142
4.82058
4.79184
4.77957
4.77187
4.74946
4.72237
4.69111
4.65298
4.61869
4.58427
4.56174
4.55083
4.53144
4.50693
4.47088
4.42974
4.40074
4.3692
4.3455
4.32706
4.30805
4.28518
4.25674
4.22555
4.18546
4.16324
4.14658
4.12797
4.10861
4.08676
4.06281
4.03173
3.99318
3.96106
3.9372
3.92003
3.90621
3.88592
3.85957
3.83073
3.80312
3.77924
3.7572
3.74478
3.73067
3.70651
3.67832
3.64158
3.609
3.60369
3.60846
3.63223
3.7089
3.82465
3.96572
4.00985
4.03784
4.04644
4.03179
4.0004
3.96301
3.9225
3.86375
3.81698
3.80059
3.77285
3.75155
3.72777
3.69843
3.68208
3.65688
3.62596
3.59932
3.5611
3.53142
3.50952
3.47598
3.45144
3.43124
3.40386
3.38926
3.37083
3.33803
3.30897
3.28304
3.24678
3.22887
3.21632
3.19242
3.1682
3.14889
3.11884
3.07608
3.05504
3.0359
3.01637
3.00189
2.98232
2.96129
2.94894
2.93557
2.91896
2.89992
2.87658
2.84982
2.82553
2.80538
2.78584
2.75929
2.72146
2.6826
2.66275
2.65746
2.65882
2.6653
2.65978
2.64837
2.62337
2.58213
2.53981
2.51878
2.51367
2.51369
2.51921
2.51529
2.50719
2.49302
2.46394
2.41291
2.3594
2.33415
2.32952
2.3313
2.34592
2.35318
2.34806
2.34136
2.33241
2.31879
2.29869
2.27292
2.23676
2.18857
2.14175
2.1111
2.10189
2.09939
2.10194
2.1276
2.17668
2.20011
2.196
2.18283
2.15565
2.09088
1.99786
1.95683
1.94703
1.94364
1.94113
1.94128
1.95001
1.96987
1.99238
2.00306
2.00217
1.99862
1.98827
1.9578
1.89622
1.83359
1.81247
1.80714
1.80539
1.80628
1.81104
1.81432
1.81547
1.81714
1.82088
1.82339
1.82202
1.81816
1.80384
1.77
1.71856
1.68395
1.67334
1.67292
1.68392
1.712
1.72683
1.72517
1.71571
1.69434
1.66347
1.63964
1.62538
1.6137
1.59957
1.58699
1.58465
1.58351
1.58261
1.58503
1.58977
1.58748
1.58481
1.58368
1.58116
1.57368
1.55983
1.54212
1.51891
1.49689
4.39719
4.94914
5.11801
5.1537
5.16542
5.15643
5.1245
5.08283
5.0297
4.99241
4.97418
4.96281
4.95525
4.93518
4.9058
4.86828
4.82607
4.79523
4.7674
4.75003
4.73707
4.71391
4.68429
4.64483
4.59946
4.57376
4.54879
4.52845
4.51191
4.4873
4.45984
4.42663
4.38913
4.35579
4.32879
4.31208
4.29422
4.27212
4.24527
4.20961
4.18788
4.16742
4.14303
4.11657
4.09591
4.07539
4.0471
4.01437
3.98197
3.95351
3.93265
3.91408
3.89497
3.87363
3.85045
3.82875
3.79752
3.77624
3.76423
3.7446
3.72052
3.69378
3.65136
3.61409
3.6056
3.60697
3.61799
3.65181
3.73079
3.87096
3.96281
4.02349
4.04905
4.04303
4.01974
3.98592
3.94164
3.87414
3.84606
3.82725
3.80057
3.77988
3.74852
3.72609
3.70687
3.67651
3.64902
3.61799
3.57637
3.55343
3.52689
3.49551
3.47798
3.45343
3.43317
3.41949
3.39081
3.35689
3.33056
3.29297
3.26587
3.25557
3.2349
3.20939
3.19074
3.16551
3.12133
3.09624
3.07898
3.05991
3.04703
3.02991
3.00817
2.98982
2.97192
2.95322
2.93426
2.913
2.88753
2.86165
2.84073
2.82223
2.79764
2.7608
2.72186
2.70142
2.69661
2.69805
2.70288
2.69615
2.68394
2.65783
2.61756
2.57619
2.55413
2.54864
2.54808
2.553
2.54957
2.54068
2.52455
2.49504
2.44637
2.39537
2.36981
2.36453
2.36504
2.37633
2.37986
2.37376
2.36641
2.35683
2.34315
2.32428
2.3004
2.2669
2.22005
2.1738
2.14367
2.13441
2.13205
2.13581
2.16325
2.20908
2.22683
2.22148
2.20747
2.17944
2.11323
2.02079
1.98043
1.97035
1.96694
1.96462
1.96583
1.97759
2.00247
2.02777
2.03601
2.03384
2.02989
2.01715
1.98334
1.91581
1.85136
1.83056
1.82539
1.82341
1.82402
1.83099
1.83934
1.84479
1.84869
1.85231