/*--------------------------------*- C++ -*----------------------------------*\
  =========                 |
  \\      /  F ield         | OpenFOAM: The Open Source CFD Toolbox
   \\    /   O peration     | Website:  https://openfoam.org
    \\  /    A nd           | Version:  7
     \\/     M anipulation  |
\*---------------------------------------------------------------------------*/
FoamFile
{
    version     2.0;
    format      ascii;
    class       volScalarField;
    location    "2.9";
    object      rho;
}
// * * * * * * * * * * * * * * * * * * * * * * * * * * * * * * * * * * * * * //

dimensions      [1 -3 0 0 0 0 0];

internalField   nonuniform List<scalar> 
16192
(
3.8846
3.83824
3.79023
3.74108
3.69194
3.64308
3.59517
3.54828
3.50149
3.45338
3.40435
3.35541
3.3075
3.25935
3.20977
3.15988
3.11043
3.06144
3.0142
2.96854
2.92253
3.90278
3.85265
3.80251
3.75287
3.70434
3.65649
3.60942
3.56363
3.51785
3.47032
3.42125
3.3719
3.32288
3.27421
3.22568
3.17718
3.12806
3.07864
3.03082
2.98503
2.93922
3.91422
3.86249
3.81266
3.76491
3.71855
3.67196
3.62527
3.57945
3.53316
3.48561
3.43675
3.3874
3.33815
3.28962
3.24167
3.19381
3.14549
3.09665
3.0484
3.00178
2.95594
3.92413
3.87366
3.82564
3.77984
3.73472
3.68858
3.64152
3.59465
3.54722
3.49932
3.45131
3.40279
3.35365
3.30502
3.2577
3.21071
3.16295
3.11434
3.06599
3.019
2.97313
3.93737
3.88883
3.84185
3.79633
3.75054
3.70354
3.65604
3.60849
3.56065
3.51281
3.46552
3.41779
3.36927
3.3211
3.27405
3.22703
3.17964
3.13183
3.08376
3.03624
2.99005
3.9544
3.90631
3.85896
3.81198
3.76478
3.71705
3.66972
3.62215
3.57427
3.52664
3.48008
3.43307
3.38509
3.33709
3.29013
3.24329
3.19612
3.14861
3.10091
3.05334
3.00691
3.97181
3.92258
3.87444
3.82647
3.77858
3.73062
3.68346
3.63617
3.58844
3.54114
3.49479
3.44815
3.40078
3.35351
3.30647
3.25916
3.21176
3.16472
3.11745
3.0699
3.02323
3.98649
3.93694
3.88873
3.84055
3.79238
3.74463
3.69747
3.65022
3.60255
3.5557
3.50944
3.46317
3.41655
3.36985
3.32256
3.27484
3.22725
3.18006
3.13298
3.08598
3.03942
4.00246
3.95243
3.90413
3.85587
3.80729
3.75925
3.71161
3.66434
3.61701
3.57068
3.52461
3.47852
3.43245
3.38619
3.33882
3.29049
3.24225
3.19503
3.14847
3.10206
3.05587
4.01991
3.96899
3.91949
3.87022
3.82128
3.77309
3.7251
3.67783
3.63152
3.58601
3.5401
3.49367
3.44787
3.40161
3.3538
3.30524
3.25727
3.21007
3.16371
3.11813
3.07288
4.0352
3.9861
3.93551
3.88477
3.83522
3.7867
3.73902
3.69221
3.64701
3.60201
3.55598
3.50904
3.46251
3.41567
3.36818
3.32007
3.2724
3.22556
3.17981
3.13496
3.09039
4.04973
4.00053
3.95007
3.89819
3.84912
3.80138
3.75404
3.70744
3.66284
3.61789
3.57123
3.52323
3.47601
3.42891
3.38147
3.33442
3.28818
3.24212
3.19657
3.15184
3.1075
4.05601
4.0122
3.96236
3.91323
3.86549
3.81858
3.77104
3.72421
3.67855
3.63225
3.58479
3.53682
3.48893
3.44144
3.39486
3.34962
3.30464
3.2591
3.21343
3.16846
3.12393
4.05914
4.01637
3.97292
3.9283
3.88431
3.83795
3.78909
3.74017
3.69245
3.6453
3.59735
3.5494
3.50208
3.45546
3.40969
3.3653
3.32097
3.27575
3.22979
3.18419
3.13924
4.05711
4.02315
3.98431
3.94421
3.90063
3.85501
3.80527
3.75531
3.70579
3.65689
3.60926
3.56308
3.51698
3.47087
3.42558
3.38155
3.337
3.29113
3.24477
3.1991
3.15408
4.06269
4.03095
3.99605
3.95452
3.91291
3.86724
3.81895
3.76849
3.71854
3.66974
3.62304
3.57772
3.53256
3.48721
3.4422
3.39709
3.35145
3.30543
3.25924
3.21363
3.16895
4.07371
4.03698
4.00036
3.9604
3.91802
3.87641
3.83009
3.78275
3.73367
3.68483
3.63881
3.59424
3.5491
3.50275
3.45688
3.41155
3.36571
3.31941
3.27366
3.22892
3.18513
4.0806
4.03984
4.00094
3.96201
3.92133
3.88072
3.83959
3.79631
3.75079
3.70328
3.65722
3.61112
3.56385
3.51672
3.47069
3.42474
3.37905
3.33405
3.28951
3.2453
3.20187
4.09009
4.04359
4.00306
3.96191
3.92061
3.88204
3.84736
3.80868
3.76619
3.72047
3.67387
3.62681
3.57856
3.53013
3.48348
3.43835
3.39399
3.35002
3.30605
3.26219
3.21896
4.10458
4.05077
4.00587
3.96366
3.92352
3.88776
3.85577
3.82101
3.77811
3.73389
3.68817
3.64125
3.59282
3.54482
3.49855
3.45345
3.40947
3.36668
3.32344
3.27924
3.2353
4.11674
4.05992
4.01138
3.97004
3.93097
3.89611
3.8628
3.82769
3.78827
3.74196
3.69721
3.6537
3.60802
3.56132
3.51538
3.47034
3.42668
3.38386
3.33998
3.29504
3.25052
4.13989
4.08265
4.03093
3.9869
3.94497
3.90506
3.86614
3.82949
3.79098
3.75037
3.70777
3.66632
3.62412
3.57942
3.53408
3.48845
3.4437
3.40025
3.35605
3.31053
3.26517
4.16699
4.10997
4.05522
4.00331
3.95567
3.9101
3.86772
3.83034
3.79461
3.75568
3.71621
3.67746
3.63842
3.59705
3.55271
3.50618
3.46024
3.41576
3.37112
3.32549
3.27992
4.19451
4.13506
4.07532
4.01761
3.96492
3.91597
3.8721
3.83474
3.80011
3.76282
3.72461
3.68951
3.6507
3.61086
3.56851
3.52279
3.47637
3.43157
3.3869
3.34116
3.29564
4.22493
4.16149
4.09896
4.03801
3.98201
3.93058
3.88365
3.8447
3.80836
3.77027
3.73281
3.6959
3.661
3.62287
3.58159
3.53704
3.49114
3.44652
3.40257
3.35771
3.31269
4.23441
4.17531
4.11571
4.05663
4.00063
3.94952
3.89988
3.8565
3.81743
3.77763
3.73882
3.702
3.6666
3.63036
3.59212
3.54998
3.50521
3.46173
3.419
3.3751
3.33057
4.24402
4.193
4.13865
4.0844
4.02974
3.9767
3.92432
3.87412
3.82884
3.78644
3.74566
3.7077
3.67088
3.63646
3.60139
3.56044
3.51675
3.47483
3.43486
3.39309
3.34943
4.2752
4.21898
4.16355
4.11163
4.05793
4.0018
3.94599
3.89082
3.84052
3.79511
3.75304
3.71397
3.67584
3.64025
3.60624
3.56977
3.52813
3.48672
3.44838
3.40944
3.36723
4.25717
4.23038
4.18611
4.13463
4.07977
4.02213
3.96448
3.90847
3.85545
3.80743
3.76354
3.72286
3.68339
3.64592
3.61175
3.57803
3.53913
3.49841
3.46157
3.42419
3.38347
4.29587
4.26103
4.20931
4.15429
4.09917
4.04248
3.9859
3.93073
3.87739
3.82702
3.77946
3.73446
3.69277
3.65299
3.61738
3.58446
3.54913
3.51074
3.47235
3.43476
3.39539
4.26296
4.25858
4.21325
4.16231
4.11156
4.05955
4.00593
3.95227
3.89887
3.84696
3.7958
3.74718
3.70341
3.66227
3.62495
3.59193
3.55765
3.51962
3.48185
3.44507
3.40565
4.08307
4.24566
4.22188
4.17491
4.12761
4.08077
4.03076
3.97844
3.92415
3.87025
3.81685
3.76533
3.71969
3.6769
3.63661
3.60117
3.56535
3.52644
3.48813
3.45178
3.41459
3.7891
4.26181
4.24653
4.19611
4.14472
4.09834
4.04971
3.99866
3.94577
3.89218
3.83852
3.78615
3.73813
3.69322
3.64906
3.60979
3.5725
3.53191
3.49271
3.45793
3.42314
3.08571
4.09175
4.22604
4.20188
4.15861
4.11185
4.06453
4.01625
3.96724
3.91545
3.86221
3.80995
3.75995
3.71187
3.66466
3.62049
3.58011
3.5387
3.499
3.46501
3.43196
3.94035
4.2567
4.23163
4.18144
4.12716
4.07961
4.03417
3.98802
3.93897
3.88725
3.83481
3.78256
3.73169
3.6815
3.63394
3.59014
3.54802
3.50803
3.47341
3.44095
3.39652
4.18298
4.21336
4.18217
4.13782
4.09421
4.05094
4.00556
3.95714
3.90708
3.85607
3.80343
3.75103
3.69943
3.64954
3.60355
3.56074
3.52062
3.48497
3.45118
2.55398
4.04125
4.22513
4.19938
4.15736
4.11169
4.06688
4.02084
3.97362
3.926
3.87729
3.82569
3.77327
3.72111
3.67048
3.62268
3.5786
3.53684
3.49866
3.46226
1.79212
3.64904
4.23021
4.22049
4.17391
4.12017
4.07518
4.03031
3.98527
3.94134
3.89564
3.84603
3.79417
3.74279
3.69262
3.6442
3.59815
3.55451
3.51258
3.47283
1.4495
2.88278
4.03671
4.19297
4.17394
4.12943
4.08629
4.04446
4.00145
3.95938
3.91456
3.86659
3.81662
3.76715
3.71743
3.66882
3.62126
3.57475
3.52912
3.48571
1.40224
2.04053
3.81849
4.21625
4.20006
4.15278
4.10398
4.06019
4.01615
3.97409
3.92999
3.88369
3.83606
3.78935
3.74144
3.69293
3.64377
3.59482
3.54623
3.50001
1.40007
1.52487
3.18005
4.0759
4.18168
4.1582
4.11734
4.07241
4.02861
3.98693
3.94348
3.89867
3.85483
3.81104
3.76431
3.71537
3.66527
3.6147
3.56473
3.51712
1.40001
1.40786
2.3206
3.934
4.20582
4.1846
4.13894
4.0877
4.04274
4.0016
3.95937
3.91502
3.87246
3.82933
3.78386
3.73581
3.68596
3.63488
3.58501
3.53733
1.40001
1.40025
1.65333
3.43159
4.15413
4.174
4.14411
4.09725
4.05548
4.0143
3.97111
3.92701
3.88669
3.84348
3.79796
3.75165
3.70438
3.65472
3.60574
3.55851
1.40001
1.40001
1.42355
2.60037
4.00531
4.17816
4.15885
4.11454
4.07212
4.02924
3.98482
3.94064
3.89922
3.85645
3.81242
3.76871
3.72393
3.67676
3.62936
3.58252
1.40001
1.40001
1.40092
1.82177
3.63064
4.19058
4.18038
4.13705
4.08372
4.03769
3.99257
3.95144
3.91113
3.86842
3.8247
3.78404
3.74199
3.69723
3.65091
3.60473
1.40001
1.40001
1.40003
1.45689
2.87218
3.99709
4.15173
4.13232
4.09288
4.04947
4.00453
3.9654
3.92527
3.88305
3.8402
3.80144
3.7604
3.71699
3.67195
3.62681
1.40001
1.40001
1.40001
1.40278
2.03093
3.76723
4.17641
4.15964
4.11656
4.06581
4.01932
3.98047
3.94031
3.89727
3.85477
3.81657
3.77628
3.73346
3.68948
3.64574
1.40001
1.40001
1.40001
1.40008
1.52154
3.11744
4.03461
4.14059
4.12108
4.07777
4.03192
3.99239
3.95323
3.91033
3.87018
3.83173
3.79059
3.74751
3.70534
3.66326
1.40001
1.40001
1.40001
1.40001
1.40779
2.261
3.87677
4.16366
4.14707
4.09976
4.04995
4.00862
3.96888
3.92531
3.88561
3.84614
3.8047
3.76152
3.72028
3.67904
1.40001
1.40001
1.40001
1.40001
1.40026
1.62356
3.33816
4.07941
4.13616
4.10715
4.06278
4.02042
3.97942
3.93681
3.89859
3.85847
3.81591
3.77325
3.73339
3.69266
1.40001
1.40001
1.40001
1.40001
1.40001
1.41976
2.49288
3.93622
4.15
4.12564
4.08329
4.03813
3.99343
3.95152
3.91217
3.87169
3.82908
3.78733
3.74764
3.70636
1.40001
1.40001
1.40001
1.40001
1.40001
1.40077
1.7519
3.50877
4.13755
4.1375
4.10016
4.05192
4.00326
3.96225
3.92299
3.88244
3.83932
3.79886
3.75978
3.71869
1.40001
1.40001
1.40001
1.40001
1.40001
1.40002
1.44176
2.71785
3.94762
4.11752
4.10293
4.06432
4.01508
3.97521
3.9353
3.89473
3.85207
3.81298
3.77313
3.73192
1.40001
1.40001
1.40001
1.40001
1.40001
1.40001
1.40198
1.90477
3.63774
4.14119
4.13002
4.09113
4.03267
3.98987
3.94876
3.90683
3.8645
3.8263
3.78652
3.74587
1.40001
1.40001
1.40001
1.40001
1.40001
1.40001
1.40006
1.47973
2.92054
3.96243
4.10324
4.08533
4.0443
4.00208
3.96209
3.91964
3.87962
3.84123
3.80067
3.76025
1.40001
1.40001
1.40001
1.40001
1.40001
1.40001
1.40001
1.40449
2.07735
3.74326
4.12832
4.1125
4.06937
4.02106
3.97859
3.93483
3.89565
3.85683
3.81615
3.77546
1.40001
1.40001
1.40001
1.40001
1.40001
1.40001
1.40001
1.40014
1.54081
3.11086
3.98867
4.09403
4.07386
4.03537
3.99227
3.94926
3.91072
3.87036
3.82957
3.78951
1.40001
1.40001
1.40001
1.40001
1.40001
1.40001
1.40001
1.40001
1.41005
2.25606
3.81675
4.11729
4.09995
4.05889
4.0091
3.96538
3.92689
3.88616
3.84476
3.80401
1.40001
1.40001
1.40001
1.40001
1.40001
1.40001
1.40001
1.40001
1.40036
1.6207
3.26611
4.03738
4.0853
4.06468
4.0196
3.97847
3.93998
3.89968
3.8577
3.81743
1.40001
1.40001
1.40001
1.40001
1.40001
1.40001
1.40001
1.40001
1.40001
1.41968
2.42337
3.88444
4.09775
4.08225
4.03749
3.99468
3.95546
3.91592
3.87373
3.83346
1.40001
1.40001
1.40001
1.40001
1.40001
1.40001
1.40001
1.40001
1.40001
1.40079
1.71187
3.40714
4.06163
4.08077
4.04951
4.00816
3.96868
3.92913
3.88825
3.84874
1.40001
1.40001
1.40001
1.40001
1.40001
1.40001
1.40001
1.40001
1.40001
1.40002
1.43467
2.58575
3.90998
4.08289
4.06509
4.02465
3.98403
3.94332
3.90391
3.86423
1.40001
1.40001
1.40001
1.40001
1.40001
1.40001
1.40001
1.40001
1.40001
1.40001
1.4016
1.81112
3.51158
4.09105
4.08616
4.05332
4.00019
3.95359
3.91499
3.87599
1.40001
1.40001
1.40001
1.40001
1.40001
1.40001
1.40001
1.40001
1.40001
1.40001
1.40005
1.45548
2.73722
3.88747
4.05704
4.04546
4.01156
3.96456
3.92589
3.88815
1.40001
1.40001
1.40001
1.40001
1.40001
1.40001
1.40001
1.40001
1.40001
1.40001
1.40001
1.40297
1.91798
3.58635
4.08439
4.07302
4.03737
3.98392
3.94113
3.90205
1.28531
1.28611
1.28624
1.28614
1.28518
1.28286
1.28014
1.27899
1.27847
1.27799
1.27745
1.27665
1.27591
1.27515
1.2741
1.27195
1.26843
1.26694
1.26654
1.26608
1.26559
1.265
1.26424
1.26328
1.26179
1.25923
1.25675
1.25601
1.25581
1.25577
1.2562
1.25619
1.25572
1.25524
1.25449
1.25279
1.25085
1.25036
1.25027
1.25038
1.2514
1.25313
2.88812
2.86657
2.84516
2.82333
2.79992
2.78073
2.76033
2.74075
2.71894
2.69857
2.68229
2.66303
2.64397
2.61484
2.58871
2.57823
2.59242
2.7168
2.95314
3.06918
3.06995
3.04981
3.01092
2.97073
2.93263
2.89763
2.86721
2.83694
2.80474
2.77225
2.7387
2.70702
2.6778
2.64821
2.62001
2.59155
2.56122
2.53518
2.50856
2.48276
2.45721
2.42813
2.4043
2.37693
2.34995
2.31982
2.29201
2.26852
2.24215
2.21741
2.19013
2.1698
2.14676
2.12513
2.10141
2.08215
2.0672
2.04845
2.03132
2.00748
1.98771
1.97027
1.95016
1.93413
1.91487
1.8976
1.87678
1.85495
1.83636
1.81449
1.80274
1.78963
1.77546
1.7613
1.7437
1.73052
1.71489
1.7008
1.68572
1.67095
1.66038
1.64642
1.63473
1.6211
1.61023
1.60092
1.58923
1.57721
1.56014
1.5394
1.52301
1.5123
1.50468
1.49662
1.49164
1.48412
1.47508
1.46234
1.44911
1.43826
1.42767
1.41691
1.40969
1.40281
1.39451
1.38437
1.37533
1.36413
1.34512
1.33021
1.328
1.32699
1.3233
1.31832
1.31311
1.30422
1.29443
1.29208
1.29133
1.29111
1.28994
1.28816
1.28313
1.27295
1.26718
1.26641
1.26625
1.26672
1.26806
1.26986
1.27225
1.2762
1.28083
1.28263
1.28349
1.28419
1.28394
1.28311
1.28302
1.28363
1.28493
1.28665
1.2889
1.2923
1.2949
1.29488
1.29413
1.29279
1.29057
1.28632
1.28061
1.27832
1.27773
1.27718
1.27693
1.27746
1.27716
1.27609
1.27454
1.27192
1.26809
1.26535
1.26465
1.26417
1.2637
1.26333
1.26315
1.26318
1.26336
1.26336
1.26323
1.26291
1.26165
1.25943
1.25863
1.2586
1.25923
1.26055
1.26242
1.2654
1.26736
1.26886
1.27109
1.27279
1.27438
1.27662
1.27938
1.28313
1.28582
1.28634
1.2865
1.28633
1.28529
1.28338
1.28181
1.28125
1.28091
1.28075
1.28068
1.2799
1.27901
1.27803
1.2763
1.27299
1.27016
1.26946
1.26892
1.26831
1.26763
1.26688
1.26596
1.26447
1.26166
1.25859
1.25756
1.25738
1.25734
1.25774
1.25775
1.25723
1.25672
1.25609
1.25465
1.25232
1.25141
1.25132
1.25137
1.25213
1.25395
1.25491
2.9054
2.88382
2.86258
2.83941
2.81837
2.7982
2.7773
2.75667
2.73362
2.71651
2.69747
2.67867
2.65829
2.63529
2.60891
2.58558
2.58919
2.64094
2.82584
3.0336
3.07397
3.06418
3.03381
2.99357
2.95151
2.91679
2.88703
2.85599
2.82472
2.7923
2.76117
2.73235
2.70279
2.67416
2.64571
2.61609
2.58823
2.56034
2.53262
2.50679
2.47648
2.45029
2.42321
2.39427
2.36657
2.33526
2.31299
2.28797
2.26415
2.23769
2.21496
2.19407
2.17102
2.14882
2.12579
2.11026
2.09129
2.07263
2.05011
2.02607
2.00954
1.98954
1.97246
1.95411
1.93597
1.91723
1.89422
1.8757
1.85422
1.83878
1.82686
1.81131
1.79785
1.77942
1.76405
1.74951
1.73373
1.72073
1.70395
1.69284
1.68015
1.66646
1.65416
1.64097
1.63203
1.62098
1.60855
1.59376
1.57022
1.55233
1.54044
1.53345
1.52542
1.5188
1.51214
1.50199
1.49131
1.47616
1.46462
1.45564
1.44651
1.4373
1.42985
1.42162
1.41194
1.40062
1.38839
1.37364
1.356
1.34831
1.34631
1.3442
1.33925
1.33266
1.32353
1.31185
1.30685
1.30523
1.3039
1.3017
1.2987
1.29204
1.28067
1.27252
1.27058
1.27005
1.27005
1.27058
1.27122
1.27219
1.27436
1.27804
1.28039
1.28088
1.28108
1.27926
1.27724
1.27813
1.27959
1.28184
1.28523
1.28934
1.29255
1.29472
1.29572
1.29559
1.29486
1.29334
1.29056
1.28576
1.28189
1.28105
1.28049
1.28009
1.28025
1.28026
1.27929
1.27769
1.27499
1.2709
1.26773
1.26689
1.26649
1.26615
1.26573
1.26522
1.26482
1.26462
1.26445
1.26421
1.26386
1.26268
1.26
1.2584
1.25821
1.25826
1.25907
1.26095
1.26234
1.26401
1.26542
1.26625
1.26779
1.26971
1.27133
1.2738
1.27801
1.28308
1.28536
1.28595
1.28616
1.28606
1.28505
1.28381
1.28333
1.28321
1.28339
1.28426
1.28413
1.28332
1.28218
1.28037
1.27724
1.27406
1.27276
1.2721
1.27141
1.27068
1.2699
1.26901
1.26768
1.26483
1.26099
1.2594
1.2592
1.25916
1.25954
1.25963
1.25911
1.25853
1.25791
1.25676
1.25437
1.25268
1.2525
1.25251
1.25299
1.25451
1.2559
1.25595
2.92245
2.90114
2.87913
2.85689
2.83685
2.81533
2.79482
2.77122
2.75158
2.73312
2.71254
2.69346
2.67159
2.65474
2.63019
2.60203
2.59212
2.60439
2.71273
2.942
3.06351
3.07146
3.05391
3.0178
2.97461
2.94018
2.90831
2.87717
2.84532
2.81451
2.78599
2.75666
2.72806
2.69915
2.66961
2.64073
2.61151
2.58215
2.5551
2.52487
2.4967
2.4694
2.43938
2.41251
2.38073
2.35672
2.33424
2.30972
2.28665
2.26076
2.24151
2.21838
2.19671
2.17187
2.15318
2.13457
2.11374
2.0927
2.06568
2.04812
2.02967
2.01088
1.99374
1.97403
1.95676
1.93474
1.91449
1.89538
1.87629
1.86435
1.84862
1.83374
1.81682
1.79797
1.78402
1.76777
1.75432
1.73914
1.72484
1.71387
1.69906
1.68675
1.67276
1.66274
1.65279
1.64012
1.62637
1.6041
1.58136
1.57011
1.56187
1.55534
1.54713
1.54047
1.5303
1.51848
1.50504
1.49048
1.48245
1.47492
1.46637
1.45727
1.44875
1.43894
1.42776
1.41362
1.39794
1.38418
1.37313
1.3679
1.36538
1.362
1.35629
1.34749
1.33548
1.3262
1.32261
1.31995
1.31689
1.31243
1.304
1.29131
1.28108
1.27793
1.2765
1.27541
1.27496
1.2748
1.27475
1.27521
1.27749
1.27976
1.28002
1.27956
1.27653
1.27197
1.27181
1.27369
1.27733
1.28233
1.28766
1.29128
1.29353
1.29498
1.29561
1.29553
1.29496
1.29345
1.29035
1.28617
1.2846
1.2841
1.28365
1.28354
1.28347
1.2826
1.28088
1.27812
1.27399
1.27043
1.26926
1.26882
1.26853
1.26828
1.26765
1.26696
1.26643
1.26607
1.2657
1.26526
1.26428
1.26169
1.25884
1.25819
1.25808
1.25824
1.25937
1.26138
1.26214
1.26252
1.26349
1.26397
1.26474
1.26654
1.26893
1.27215
1.27674
1.282
1.28417
1.28502
1.28526
1.28503
1.28432
1.28421
1.28439
1.28512
1.28693
1.28766
1.28715
1.28597
1.28385
1.2806
1.27741
1.27621
1.27564
1.27492
1.27414
1.27333
1.27245
1.27121
1.26857
1.26419
1.26162
1.26125
1.26115
1.26144
1.26185
1.26145
1.26082
1.26019
1.25926
1.25712
1.25457
1.25396
1.25389
1.25408
1.25509
1.25656
1.25691
1.25669
2.93965
2.91816
2.89558
2.87494
2.85376
2.83271
2.81021
2.7879
2.76961
2.74866
2.72939
2.70695
2.68834
2.67277
2.65184
2.62132
2.60016
2.60443
2.6465
2.81617
3.02271
3.07546
3.06958
3.04191
3.00128
2.96457
2.93039
2.89749
2.86681
2.83891
2.80979
2.78071
2.75119
2.72147
2.69229
2.66212
2.63151
2.60279
2.57246
2.54363
2.51567
2.48541
2.45808
2.42803
2.40121
2.38078
2.3561
2.33461
2.30857
2.28779
2.26671
2.24363
2.22033
2.19689
2.17813
2.15584
2.13454
2.10746
2.08634
2.06983
2.05014
2.03346
2.01296
1.9954
1.9756
1.95364
1.93602
1.91544
1.90185
1.88678
1.86988
1.85449
1.8336
1.81861
1.80319
1.78798
1.77503
1.75804
1.74677
1.73297
1.71877
1.70564
1.69329
1.68418
1.67183
1.65796
1.6391
1.61178
1.59952
1.59141
1.58474
1.57711
1.56929
1.55985
1.5464
1.53365
1.5181
1.50905
1.50259
1.4949
1.48567
1.4755
1.4653
1.45378
1.44088
1.42338
1.40786
1.40001
1.39317
1.38819
1.38473
1.38031
1.37382
1.36319
1.35067
1.34337
1.33887
1.33481
1.32998
1.32124
1.30534
1.29185
1.28827
1.28755
1.28602
1.28427
1.28258
1.28142
1.28081
1.28085
1.28186
1.28173
1.28019
1.27542
1.26909
1.26805
1.26906
1.27178
1.2776
1.28454
1.28816
1.2905
1.29262
1.29435
1.29498
1.29493
1.2945
1.2931
1.29036
1.28834
1.28796
1.28766
1.28747
1.28707
1.28608
1.28422
1.2813
1.27709
1.27363
1.27222
1.27156
1.27115
1.27085
1.27028
1.26947
1.26857
1.26795
1.26746
1.26695
1.26615
1.26421
1.2607
1.25873
1.25841
1.25838
1.25871
1.26002
1.26139
1.26185
1.26201
1.26225
1.26294
1.26365
1.26512
1.2677
1.27089
1.27512
1.27976
1.28171
1.28268
1.28307
1.28322
1.28365
1.28416
1.28547
1.28832
1.29006
1.28994
1.28905
1.28699
1.28372
1.2804
1.27913
1.27878
1.27846
1.27779
1.27699
1.27612
1.27494
1.27253
1.26808
1.26446
1.26374
1.26348
1.26345
1.26409
1.26421
1.26368
1.26305
1.26229
1.26068
1.25755
1.25592
1.2557
1.25562
1.256
1.25717
1.25778
1.25764
1.25731
2.95652
2.93425
2.91261
2.89207
2.87072
2.84939
2.82593
2.80684
2.78624
2.76587
2.74506
2.72298
2.7073
2.68918
2.6711
2.64345
2.61726
2.60954
2.61907
2.71289
2.92607
3.0597
3.07546
3.06083
3.02815
2.99044
2.95297
2.91879
2.89006
2.86103
2.83182
2.80205
2.77195
2.74271
2.71225
2.68101
2.6511
2.62029
2.59149
2.563
2.53265
2.50463
2.47601
2.44754
2.42746
2.40367
2.38181
2.35807
2.33396
2.31467
2.29042
2.2682
2.24214
2.22122
2.19897
2.17612
2.15134
2.12559
2.10993
2.09083
2.07311
2.05338
2.03369
2.01582
1.99368
1.97559
1.9556
1.93927
1.92486
1.90674
1.89119
1.87105
1.85361
1.83939
1.82302
1.81041
1.79412
1.77972
1.76736
1.75157
1.73872
1.72458
1.71491
1.70342
1.68895
1.67195
1.64574
1.62795
1.62166
1.61398
1.60733
1.59876
1.58967
1.576
1.56161
1.54786
1.53554
1.53037
1.52286
1.51417
1.50347
1.49157
1.47943
1.46645
1.4506
1.43208
1.42395
1.41982
1.41389
1.40877
1.40417
1.39857
1.39075
1.37954
1.36804
1.36044
1.35486
1.34918
1.3409
1.32484
1.30789
1.30242
1.30135
1.30026
1.29796
1.29474
1.29083
1.28905
1.28798
1.28737
1.28658
1.28475
1.27898
1.26977
1.26676
1.26689
1.2682
1.27247
1.28067
1.28513
1.28664
1.2885
1.29062
1.2922
1.29303
1.29321
1.29304
1.29256
1.29197
1.29186
1.29173
1.29153
1.29105
1.2898
1.28745
1.28434
1.28047
1.27703
1.27554
1.27491
1.2745
1.2739
1.27322
1.27233
1.27096
1.26991
1.2693
1.26875
1.26808
1.26671
1.26372
1.26044
1.25937
1.25912
1.25913
1.25956
1.26066
1.26137
1.26162
1.26174
1.26162
1.26204
1.2628
1.26427
1.26714
1.26989
1.2726
1.27568
1.27785
1.27912
1.28015
1.28131
1.28251
1.28436
1.28803
1.29084
1.29111
1.29082
1.28946
1.28677
1.28338
1.28183
1.28143
1.28125
1.28131
1.28074
1.2799
1.27879
1.27657
1.27221
1.26789
1.26673
1.26633
1.26609
1.26622
1.26704
1.26705
1.26654
1.26588
1.26478
1.26184
1.25859
1.25788
1.25764
1.25754
1.25801
1.25871
1.25865
1.25838
1.25802
2.9729
2.95055
2.9297
2.90841
2.8875
2.8644
2.8441
2.82455
2.80337
2.78379
2.76062
2.74306
2.72504
2.70684
2.68831
2.66539
2.64031
2.61846
2.6205
2.65533
2.80673
3.01062
3.07708
3.07307
3.05101
3.01525
2.97437
2.94153
2.91132
2.88112
2.85077
2.82057
2.79196
2.76158
2.72981
2.69931
2.66778
2.63909
2.61129
2.58143
2.55338
2.5253
2.49614
2.47486
2.45177
2.42866
2.40695
2.38075
2.36117
2.33772
2.31403
2.28899
2.26382
2.24214
2.21791
2.19519
2.1677
2.15008
2.13299
2.11373
2.09521
2.0729
2.05522
2.0343
2.01443
1.9958
1.97656
1.96217
1.9441
1.92714
1.90911
1.88924
1.8758
1.85967
1.84578
1.83182
1.81445
1.80188
1.78612
1.77159
1.75756
1.74559
1.73472
1.71984
1.70314
1.68028
1.65746
1.65118
1.64421
1.63711
1.62901
1.61933
1.60671
1.59039
1.57743
1.56423
1.55738
1.55156
1.54209
1.53166
1.5187
1.50489
1.49133
1.47746
1.45967
1.4476
1.44453
1.44045
1.43437
1.42899
1.4236
1.41682
1.40738
1.39569
1.38505
1.37735
1.37079
1.36226
1.34625
1.32774
1.32042
1.31868
1.31733
1.31496
1.3118
1.30669
1.30098
1.29855
1.29684
1.29493
1.29176
1.28428
1.27316
1.26854
1.26807
1.26821
1.27101
1.27806
1.28289
1.28413
1.28467
1.2848
1.28623
1.2875
1.28853
1.28988
1.29218
1.29418
1.29514
1.29528
1.29501
1.29415
1.29264
1.29046
1.28737
1.28361
1.28079
1.27946
1.27862
1.27828
1.27778
1.27696
1.27568
1.2737
1.27206
1.27128
1.27068
1.27005
1.26911
1.26698
1.26336
1.26114
1.26036
1.26013
1.26015
1.2606
1.26127
1.26152
1.26164
1.26156
1.26124
1.26149
1.26232
1.2641
1.26691
1.26846
1.26951
1.27156
1.2738
1.27542
1.27708
1.27899
1.28172
1.28603
1.29023
1.29101
1.29108
1.29068
1.2891
1.28611
1.28426
1.28381
1.28357
1.28405
1.28428
1.28365
1.28264
1.28063
1.27642
1.27166
1.27001
1.26959
1.26921
1.26912
1.26974
1.27048
1.27036
1.26988
1.26906
1.26671
1.26236
1.26026
1.25989
1.25962
1.2595
1.25982
1.25992
1.25964
1.25933
1.25894
2.98878
2.96716
2.94621
2.92532
2.9031
2.88128
2.86256
2.84156
2.82199
2.79967
2.77981
2.76246
2.74233
2.72482
2.70377
2.68623
2.66361
2.63546
2.62394
2.63156
2.71092
2.90646
3.05848
3.07786
3.06695
3.03743
2.9978
2.96358
2.93093
2.89919
2.86819
2.84016
2.81082
2.77939
2.74882
2.71663
2.68731
2.65986
2.63034
2.60256
2.57553
2.54713
2.52442
2.50106
2.47646
2.45476
2.42765
2.40593
2.38399
2.35862
2.33549
2.30743
2.28494
2.26072
2.23774
2.21257
2.19064
2.17575
2.15608
2.13782
2.11493
2.09469
2.07512
2.05359
2.03549
2.01416
1.99841
1.98129
1.96286
1.94651
1.92581
1.91199
1.89723
1.88177
1.86921
1.85163
1.8371
1.82203
1.80522
1.79165
1.77726
1.76594
1.75102
1.73353
1.71326
1.68933
1.68019
1.6749
1.66684
1.65956
1.6492
1.63722
1.62089
1.60618
1.59462
1.58502
1.57961
1.57082
1.55957
1.54628
1.53107
1.51592
1.50227
1.4883
1.47358
1.46892
1.46615
1.46107
1.45482
1.4489
1.44224
1.43382
1.42317
1.41172
1.40201
1.39397
1.3846
1.36832
1.3496
1.34159
1.33959
1.33765
1.33457
1.33082
1.3257
1.31853
1.31266
1.30946
1.30675
1.30282
1.29398
1.28021
1.27191
1.27052
1.27048
1.27305
1.27922
1.28344
1.28414
1.28389
1.28133
1.2795
1.28036
1.28186
1.28431
1.28859
1.29378
1.29667
1.2972
1.29726
1.29642
1.29463
1.29274
1.29011
1.28659
1.28416
1.28321
1.28288
1.28263
1.28209
1.28125
1.27977
1.27711
1.27466
1.27354
1.27286
1.27223
1.27148
1.27004
1.267
1.26355
1.26221
1.26149
1.26127
1.26133
1.26176
1.26199
1.262
1.26193
1.26145
1.26111
1.2613
1.2622
1.26431
1.26606
1.2668
1.26728
1.26849
1.27035
1.27205
1.27404
1.27731
1.2822
1.288
1.28997
1.29036
1.29048
1.28999
1.28784
1.28599
1.28551
1.28534
1.28611
1.28734
1.28708
1.28624
1.28452
1.28077
1.27572
1.27346
1.27307
1.27265
1.27243
1.27305
1.27413
1.27415
1.2738
1.27319
1.27132
1.267
1.26314
1.26228
1.26192
1.26164
1.26149
1.2615
1.26136
1.26109
1.26078
1.26027
3.00529
2.98419
2.96317
2.94186
2.919
2.89989
2.87977
2.8596
2.83872
2.81684
2.79956
2.77955
2.76089
2.74037
2.72069
2.70484
2.68403
2.65416
2.63258
2.63338
2.65861
2.79156
2.99227
3.0742
3.07476
3.05693
3.02186
2.98553
2.94998
2.91518
2.88625
2.85842
2.82804
2.79818
2.76651
2.73666
2.70951
2.68037
2.65258
2.62561
2.5983
2.57515
2.55128
2.52544
2.50267
2.47492
2.45011
2.42845
2.40265
2.37949
2.35224
2.32741
2.30442
2.28017
2.25811
2.23312
2.21819
2.20012
2.18064
2.15949
2.13563
2.116
2.09386
2.07466
2.05303
2.03407
2.01786
1.9988
1.98276
1.96321
1.94792
1.93494
1.91867
1.90596
1.88979
1.87334
1.85859
1.8406
1.82576
1.81058
1.79745
1.78262
1.76411
1.74518
1.7225
1.70972
1.7053
1.6973
1.6898
1.67995
1.66732
1.65237
1.63563
1.62471
1.61427
1.60742
1.59951
1.58766
1.57401
1.55733
1.54159
1.52664
1.51466
1.50248
1.49431
1.49146
1.4875
1.48154
1.475
1.46837
1.46023
1.44978
1.43815
1.4276
1.4186
1.40837
1.39128
1.37192
1.36373
1.3616
1.35946
1.35639
1.35251
1.34727
1.33965
1.33138
1.32585
1.32178
1.31715
1.30741
1.29184
1.28067
1.27823
1.27769
1.27915
1.28411
1.28723
1.28737
1.2862
1.28136
1.27537
1.2747
1.27585
1.27869
1.2831
1.28967
1.29579
1.2973
1.29774
1.29758
1.29622
1.29417
1.29177
1.28883
1.28689
1.28618
1.28629
1.28746
1.28698
1.28598
1.28437
1.28125
1.27827
1.27646
1.27551
1.2748
1.27409
1.27304
1.27063
1.26695
1.26447
1.2634
1.26275
1.26259
1.26275
1.26306
1.263
1.26283
1.26232
1.26153
1.26131
1.26145
1.26251
1.26432
1.26513
1.26557
1.2656
1.26595
1.26738
1.26927
1.27209
1.27654
1.28349
1.28767
1.2886
1.28906
1.2891
1.28797
1.28661
1.2862
1.28618
1.28735
1.28965
1.28994
1.28934
1.28791
1.28481
1.27996
1.27708
1.2766
1.27623
1.27598
1.27648
1.27811
1.27843
1.27788
1.27707
1.27529
1.27149
1.26675
1.26502
1.26456
1.26418
1.26393
1.26375
1.26357
1.26335
1.26306
1.26255
1.26122
3.02238
3.00137
2.98058
2.95793
2.93717
2.91785
2.89725
2.87724
2.85435
2.83605
2.81679
2.79665
2.77743
2.75511
2.73852
2.72016
2.70122
2.67415
2.64911
2.63739
2.64171
2.70607
2.88414
3.04866
3.07892
3.07038
3.0436
3.00789
2.96807
2.93343
2.9055
2.87574
2.84611
2.81537
2.78573
2.75961
2.73123
2.70352
2.67637
2.6488
2.62532
2.6013
2.57472
2.55077
2.52313
2.49568
2.47257
2.44671
2.42219
2.39678
2.36973
2.34791
2.32344
2.30246
2.27842
2.26055
2.24491
2.22411
2.20436
2.17898
2.15717
2.13523
2.11385
2.09337
2.07045
2.05406
2.03544
2.01856
2.00102
1.984
1.97237
1.95646
1.9424
1.92757
1.91015
1.89526
1.87743
1.86019
1.84498
1.82955
1.8145
1.79545
1.77643
1.7564
1.74071
1.73539
1.72851
1.71987
1.71129
1.69774
1.68359
1.66686
1.65417
1.64459
1.63586
1.62794
1.61594
1.60172
1.58458
1.56674
1.55229
1.53979
1.53075
1.52177
1.51698
1.51348
1.50807
1.50163
1.49461
1.48679
1.47696
1.46505
1.45343
1.44341
1.43225
1.41453
1.39495
1.38673
1.38479
1.38211
1.37855
1.37475
1.36998
1.3629
1.3538
1.34611
1.34039
1.33436
1.32362
1.30718
1.29317
1.2894
1.28856
1.28963
1.29325
1.29432
1.29341
1.29199
1.28626
1.27641
1.27313
1.27312
1.2742
1.27751
1.28359
1.29161
1.29568
1.29674
1.29716
1.29691
1.29482
1.29162
1.28916
1.2881
1.28777
1.28849
1.2913
1.29193
1.2909
1.28906
1.28574
1.28248
1.2806
1.27914
1.27805
1.27721
1.27629
1.27437
1.27057
1.26733
1.26577
1.26476
1.26424
1.26417
1.26445
1.26452
1.26429
1.26374
1.26259
1.26196
1.26181
1.26196
1.26306
1.26405
1.26442
1.26451
1.26407
1.26441
1.26558
1.26769
1.27096
1.2767
1.28318
1.2856
1.28639
1.28669
1.28617
1.28555
1.28568
1.28592
1.2873
1.29064
1.29195
1.29165
1.29057
1.2882
1.28399
1.28062
1.27995
1.27962
1.27943
1.28005
1.28195
1.28264
1.28212
1.28107
1.27897
1.27528
1.27054
1.2682
1.26767
1.26724
1.26693
1.26677
1.26656
1.26622
1.26586
1.2652
1.26338
1.26093
3.03995
3.01905
2.99741
2.97525
2.9557
2.93487
2.91474
2.89209
2.87188
2.8535
2.83257
2.81369
2.79106
2.77233
2.75436
2.73499
2.71694
2.69353
2.66882
2.64592
2.64435
2.66318
2.77823
2.97553
3.06983
3.0767
3.06162
3.03006
2.9884
2.95516
2.9251
2.89539
2.86522
2.83497
2.80895
2.7815
2.75414
2.72758
2.6997
2.67549
2.65093
2.62365
2.59824
2.57083
2.54241
2.51753
2.49142
2.46585
2.44138
2.41314
2.39122
2.36758
2.34583
2.32442
2.3035
2.28915
2.26859
2.24817
2.22413
2.19892
2.17704
2.15387
2.13378
2.1093
2.09032
2.07299
2.055
2.03922
2.02107
2.00958
1.9951
1.97919
1.96489
1.94689
1.9315
1.91454
1.89549
1.87967
1.86244
1.84659
1.82768
1.80768
1.79009
1.77334
1.76608
1.7601
1.75057
1.74242
1.72923
1.7144
1.69919
1.68419
1.67492
1.66516
1.65635
1.64447
1.62892
1.61259
1.59309
1.57795
1.56608
1.55755
1.55005
1.54362
1.53967
1.53434
1.52783
1.52092
1.51308
1.50375
1.49237
1.48017
1.46896
1.45695
1.43841
1.41806
1.40961
1.40796
1.40566
1.40155
1.39731
1.39267
1.3865
1.37794
1.36927
1.36235
1.35497
1.34262
1.32477
1.30941
1.30484
1.30369
1.30431
1.30642
1.30564
1.30366
1.3012
1.29401
1.28119
1.27504
1.27437
1.27422
1.27567
1.2802
1.28716
1.29267
1.29449
1.29537
1.29574
1.29399
1.28967
1.28708
1.28673
1.2871
1.28888
1.29337
1.29551
1.29501
1.29352
1.29015
1.28668
1.28499
1.28366
1.28224
1.28108
1.28007
1.27847
1.27475
1.27038
1.26854
1.26736
1.26641
1.26601
1.26606
1.26629
1.26608
1.26548
1.26412
1.26298
1.26263
1.26246
1.26271
1.26341
1.26371
1.26382
1.26321
1.26273
1.26334
1.26447
1.26684
1.27108
1.27642
1.28063
1.28222
1.28312
1.28327
1.28328
1.28389
1.28458
1.28617
1.29003
1.29263
1.29275
1.2923
1.2908
1.28759
1.28391
1.28286
1.28258
1.28244
1.28326
1.28548
1.28641
1.28598
1.28486
1.28255
1.27891
1.27437
1.27176
1.27119
1.27079
1.27051
1.2704
1.27024
1.2698
1.26927
1.26824
1.26576
1.26273
1.26131
3.05766
3.03659
3.01417
2.99353
2.97287
2.95218
2.9304
2.90805
2.88985
2.86908
2.84946
2.82791
2.80683
2.78979
2.76912
2.75124
2.73095
2.71238
2.69102
2.66314
2.64914
2.6553
2.70765
2.86569
3.03878
3.0816
3.07572
3.05166
3.01238
2.9779
2.94564
2.91491
2.88441
2.85862