/*--------------------------------*- C++ -*----------------------------------*\
  =========                 |
  \\      /  F ield         | OpenFOAM: The Open Source CFD Toolbox
   \\    /   O peration     | Website:  https://openfoam.org
    \\  /    A nd           | Version:  7
     \\/     M anipulation  |
\*---------------------------------------------------------------------------*/
FoamFile
{
    version     2.0;
    format      ascii;
    class       volScalarField;
    location    "3.4";
    object      rho;
}
// * * * * * * * * * * * * * * * * * * * * * * * * * * * * * * * * * * * * * //

dimensions      [1 -3 0 0 0 0 0];

internalField   nonuniform List<scalar> 
16192
(
1.40001
1.40001
1.40001
1.40001
1.40001
1.40001
1.40001
1.40001
1.40001
1.40001
1.40001
1.40007
1.46262
2.7764
3.87068
4.03927
4.02558
3.99208
3.95033
3.9106
1.40001
1.40001
1.40001
1.40001
1.40001
1.40001
1.40001
1.40001
1.40001
1.40001
1.40001
1.40001
1.40347
1.95639
3.59404
4.06538
4.05405
4.01949
3.9704
3.92637
1.40001
1.40001
1.40001
1.40001
1.40001
1.40001
1.40001
1.40001
1.40001
1.40001
1.40001
1.40001
1.40012
1.49809
2.9049
3.89099
4.02795
4.0136
3.98043
3.93867
1.40001
1.40001
1.40001
1.40001
1.40001
1.40001
1.40001
1.40001
1.40001
1.40001
1.40001
1.40001
1.40001
1.40633
2.06836
3.65833
4.05167
4.03971
4.00637
3.95699
1.40001
1.40001
1.40001
1.40001
1.40001
1.40001
1.40001
1.40001
1.40001
1.40001
1.40001
1.40001
1.40001
1.40022
1.53903
3.01724
3.90101
4.01839
4.0038
3.96933
1.40001
1.40001
1.40001
1.40001
1.40001
1.40001
1.40001
1.40001
1.40001
1.40001
1.40001
1.40001
1.40001
1.40001
1.41036
2.17247
3.70138
4.04107
4.02752
3.99301
1.40001
1.40001
1.40001
1.40001
1.40001
1.40001
1.40001
1.40001
1.40001
1.40001
1.40001
1.40001
1.40001
1.40001
1.4004
1.58323
3.11437
3.92314
4.00772
3.99246
1.40001
1.40001
1.40001
1.40001
1.40001
1.40001
1.40001
1.40001
1.40001
1.40001
1.40001
1.40001
1.40001
1.40001
1.40001
1.41562
2.27485
3.73102
4.02377
4.01145
1.40001
1.40001
1.40001
1.40001
1.40001
1.40001
1.40001
1.40001
1.40001
1.40001
1.40001
1.40001
1.40001
1.40001
1.40001
1.40067
1.63221
3.17147
3.97319
4.01136
1.40001
1.40001
1.40001
1.40001
1.40001
1.40001
1.40001
1.40001
1.40001
1.40001
1.40001
1.40001
1.40001
1.40001
1.40001
1.40002
1.42159
2.35068
3.81167
4.00782
1.40001
1.40001
1.40001
1.40001
1.40001
1.40001
1.40001
1.40001
1.40001
1.40001
1.40001
1.40001
1.40001
1.40001
1.40001
1.40001
1.40091
1.67975
3.2898
3.89178
1.40001
1.40001
1.40001
1.40001
1.40001
1.40001
1.40001
1.40001
1.40001
1.40001
1.40001
1.40001
1.40001
1.40001
1.40001
1.40001
1.40003
1.431
2.43793
3.74772
1.40001
1.40001
1.40001
1.40001
1.40001
1.40001
1.40001
1.40001
1.40001
1.40001
1.40001
1.40001
1.40001
1.40001
1.40001
1.40001
1.40001
1.40144
1.7251
3.30153
1.40001
1.40001
1.40001
1.40001
1.40001
1.40001
1.40001
1.40001
1.40001
1.40001
1.40001
1.40001
1.40001
1.40001
1.40001
1.40001
1.40001
1.40004
1.44107
2.44771
1.40001
1.40001
1.40001
1.40001
1.40001
1.40001
1.40001
1.40001
1.40001
1.40001
1.40001
1.40001
1.40001
1.40001
1.40001
1.40001
1.40001
1.40001
1.40221
1.72437
1.40001
1.40001
1.40001
1.40001
1.40001
1.40001
1.40001
1.40001
1.40001
1.40001
1.40001
1.40001
1.40001
1.40001
1.40001
1.40001
1.40001
1.40001
1.40007
1.44471
1.40001
1.40001
1.40001
1.40001
1.40001
1.40001
1.40001
1.40001
1.40001
1.40001
1.40001
1.40001
1.40001
1.40001
1.40001
1.40001
1.40001
1.40001
1.40001
1.40314
1.40001
1.40001
1.40001
1.40001
1.40001
1.40001
1.40001
1.40001
1.40001
1.40001
1.40001
1.40001
1.40001
1.40001
1.40001
1.40001
1.40001
1.40001
1.40001
1.40012
1.40001
1.40001
1.40001
1.40001
1.40001
1.40001
1.40001
1.40001
1.40001
1.40001
1.40001
1.40001
1.40001
1.40001
1.40001
1.40001
1.40001
1.40001
1.40001
1.40001
1.40001
1.40001
1.40001
1.40001
1.40001
1.40001
1.40001
1.40001
1.40001
1.40001
1.40001
1.40001
1.40001
1.40001
1.40001
1.40001
1.40001
1.40001
1.40001
1.40001
1.40001
1.40001
1.40001
1.40001
1.40001
1.40001
1.40001
1.40001
1.40001
1.40001
1.40001
1.40001
1.40001
1.40001
1.40001
1.40001
1.40001
1.40001
1.40001
1.40001
1.40001
1.40001
1.40001
1.40001
1.40001
1.40001
1.40001
1.40001
1.40001
1.40001
1.40001
1.40001
1.40001
1.40001
1.40001
1.40001
1.40001
1.40001
1.40001
1.40001
1.40001
1.40001
1.40001
1.40001
1.40001
1.40001
1.40001
1.40001
1.40001
1.40001
1.40001
1.40001
1.40001
1.40001
1.40001
1.40001
1.40001
1.40001
1.40001
1.40001
1.40001
1.40001
1.40001
1.40001
1.40001
1.40001
1.40001
1.40001
1.40001
1.40001
1.40001
1.40001
1.40001
1.40001
1.40001
1.40001
1.40001
1.40001
1.40001
1.40001
1.40001
1.40001
1.40001
1.40001
1.40001
1.40001
1.40001
1.40001
1.40001
1.40001
1.40001
1.40001
1.40001
1.40001
1.40001
1.40001
1.40001
1.40001
1.40001
1.40001
1.40001
1.40001
1.40001
1.40001
1.40001
1.40001
1.40001
1.40001
1.40001
1.40001
1.40001
1.40001
1.40001
1.40001
1.40001
1.40001
1.40001
1.40001
1.40001
1.40001
1.40001
1.40001
1.40001
1.40001
1.40001
1.40001
1.40001
1.40001
1.40001
1.40001
1.40001
1.40001
1.40001
1.40001
1.40001
1.40001
1.40001
1.40001
1.40001
1.40001
1.40001
1.40001
1.40001
1.40001
1.40001
1.40001
1.40001
1.40001
1.40001
1.40001
1.40001
1.40001
1.40001
1.40001
1.40001
1.40001
1.40001
1.40001
1.40001
1.40001
1.40001
1.40001
1.40001
1.40001
1.40001
1.40001
1.40001
1.40001
1.40001
1.40001
1.40001
1.40001
1.40001
1.40001
1.40001
1.40001
1.40001
1.40001
1.40001
1.40001
1.40001
1.40001
1.40001
1.40001
1.40001
1.40001
1.40001
1.40001
1.40001
1.40001
1.40001
1.40001
1.40001
1.40001
1.40001
1.40001
1.40001
1.40001
1.40001
1.40001
1.40001
1.40001
1.40001
1.40001
1.40001
1.40001
1.40001
1.40001
1.40001
1.40001
1.40001
1.40001
1.40001
1.40001
1.40001
1.40001
1.40001
1.40001
1.40001
1.40001
1.40001
1.40001
1.40001
1.40001
1.40001
1.40001
1.40001
1.40001
1.40001
1.40001
1.40001
1.40001
1.40001
1.40001
1.40001
1.40001
1.40001
1.40001
1.40001
1.40001
1.40001
1.40001
1.40001
1.40001
1.40001
1.40001
1.40001
1.40001
1.40001
1.40001
1.40001
1.40001
1.40001
1.40001
1.40001
1.40001
1.40001
1.40001
1.40001
1.40001
1.40001
1.40001
1.40001
1.40001
1.40001
1.40001
1.40001
1.40001
1.40001
1.40001
1.40001
1.40001
1.40001
1.40001
1.40001
1.40001
1.40001
1.40001
1.40001
1.40001
1.40001
1.40001
1.40001
1.40001
1.40001
1.40001
1.40001
1.40001
1.40001
1.40001
1.40001
1.40001
1.40001
1.40001
1.40001
1.40001
1.40001
1.40001
1.40001
1.40001
1.40001
1.40001
1.40001
1.40001
1.40001
1.40001
1.40001
1.40001
1.40001
1.40001
1.40001
1.40001
1.40001
1.40001
1.40001
1.40001
1.40001
1.40001
1.40001
1.40001
1.40001
1.40001
1.40001
1.40001
1.40001
1.40001
1.40001
1.40001
1.40001
1.40001
1.40001
1.40001
1.40001
1.40001
1.40001
1.40001
1.40001
1.40001
1.40001
1.40001
1.40001
1.40001
1.40001
1.40001
1.40001
1.40001
1.40001
1.40001
1.40001
1.40001
1.40001
1.40001
1.40001
1.40001
1.40001
1.40001
1.40001
1.40001
1.40001
1.40001
1.40001
1.40001
1.40001
1.40001
1.40001
1.40001
1.40001
1.40001
1.40001
1.40001
1.40001
1.40001
1.40001
1.40001
1.40001
1.40001
1.40001
1.40001
1.40001
1.40001
1.40001
1.40001
1.40001
1.40001
1.40001
1.40001
1.40001
1.40001
1.40001
1.40001
1.40001
1.40001
1.40001
1.40001
1.40001
1.40001
1.40001
1.40001
1.40001
1.40001
1.40001
1.40001
1.40001
1.40001
1.40001
1.40001
1.40001
1.40001
1.40001
1.40001
1.40001
1.40001
1.40001
1.40001
1.40001
1.40001
1.40001
1.40001
1.40001
1.40001
1.40001
1.40001
1.40001
1.40001
1.40001
1.40001
1.40001
1.40001
1.40001
1.40001
1.40001
1.40001
1.40001
1.40001
1.40001
1.40001
1.40001
1.40001
1.40001
1.40001
1.40001
1.40001
1.40001
1.40001
1.40001
1.40001
1.40001
1.40001
1.40001
1.40001
1.40001
1.40001
1.40001
1.40001
1.40001
1.40001
1.40001
1.40001
1.40001
1.40001
1.40001
1.40001
1.40001
1.40001
1.40001
1.40001
1.40001
1.40001
1.40001
1.40001
1.40001
1.40001
1.40001
1.40001
1.40001
1.40001
1.40001
1.40001
1.40001
1.40001
1.40001
1.40001
1.40001
1.40001
1.40001
1.40001
1.40001
1.40001
1.40001
1.40001
1.40001
1.40001
1.40001
1.40001
1.40001
1.40001
1.40001
1.40001
1.40001
1.40001
1.40001
1.40001
1.40001
1.40001
1.40001
1.40001
1.40001
1.40001
1.40001
1.40001
1.40001
1.40001
1.40001
1.40001
1.40001
1.40001
1.40001
1.40001
1.40001
1.40001
1.40001
1.40001
1.40001
1.40001
1.40001
1.40001
1.40001
1.40001
1.40001
1.40001
1.40001
1.40001
1.40001
1.40001
1.40001
1.40001
1.40001
1.40001
1.40001
1.40001
1.40001
1.40001
1.40001
1.40001
1.40001
1.40001
1.40001
1.40001
1.40001
1.40001
1.40001
1.40001
1.40001
1.40001
1.40001
1.40001
1.40001
1.40001
1.40001
1.40001
1.40001
1.40001
1.40001
1.40001
1.40001
1.40001
1.40001
1.40001
1.40001
1.40001
1.40001
1.40001
1.40001
1.40001
1.40001
1.40001
1.40001
1.40001
1.40001
1.40001
1.40001
1.40001
1.40001
1.40001
1.40001
1.40001
1.40001
1.40001
1.40001
1.40001
1.40001
1.40001
1.40001
1.40001
1.40001
1.40001
1.40001
1.40001
1.40001
1.40001
1.40001
1.40001
1.40001
1.40001
1.40001
1.40001
1.40001
1.40001
1.40001
1.40001
1.40001
1.40001
1.40001
1.40001
1.40001
1.40001
1.40001
1.40001
1.40001
1.40001
1.40001
1.40001
1.40001
1.40001
1.40001
1.40001
1.40001
1.40001
1.40001
1.40001
1.40001
1.40001
1.40001
1.40001
1.40001
1.40001
1.40001
1.40001
1.40001
1.40001
1.40001
1.40001
1.40001
1.40001
1.40001
1.40001
1.40001
1.40001
1.40001
1.40001
1.40001
1.40001
1.40001
1.40001
1.40001
1.40001
1.40001
1.40001
1.40001
1.40001
1.40001
1.40001
1.40001
1.40001
1.40001
1.40001
1.40001
1.40001
1.40001
1.40001
1.40001
1.40001
1.40001
1.40001
1.40001
1.40001
1.40001
1.40001
1.40001
1.40001
1.40001
1.40001
1.40001
1.40001
1.40001
1.40001
1.40001
1.40001
1.40001
1.40001
1.40001
1.40001
1.40001
1.40001
1.40001
1.40001
1.40001
1.40001
1.40001
1.40001
1.40001
1.40001
1.40001
1.40001
1.40001
1.40001
1.40001
1.40001
1.40001
1.40001
1.40001
1.40001
1.40001
1.40001
1.40001
1.40001
1.40001
1.40001
1.40001
1.40001
1.40001
1.40001
1.40001
1.40001
1.40001
1.40001
1.40001
1.40001
1.40001
1.40001
1.40001
1.40001
1.40001
1.40001
1.40001
1.40001
1.40001
1.40001
1.40001
1.40001
1.40001
1.40001
1.40001
1.40001
1.40001
1.40001
1.40001
1.40001
1.40001
1.40001
1.40001
1.40001
1.40001
1.40001
1.40001
1.40001
1.40001
1.40001
1.40001
1.40001
1.40001
1.40001
1.40001
1.40001
1.40001
1.40001
1.40001
1.40001
1.40001
1.40001
1.40001
1.40001
1.40001
1.40001
1.40001
1.40001
1.40001
1.40001
1.40001
1.40001
1.40001
1.40001
1.40001
1.40001
1.40001
1.40001
1.40001
1.40001
1.40001
1.40001
1.40001
1.40001
1.40001
1.40001
1.40001
1.40001
1.40001
1.40001
1.40001
1.40001
1.40001
1.40001
1.40001
1.40001
1.40001
1.40001
1.40001
1.40001
1.40001
1.40001
1.40001
1.40001
1.40001
1.40001
1.40001
1.40001
1.40001
1.40001
1.40001
1.40001
1.40001
1.40001
1.40001
1.40001
1.40001
1.40001
1.40001
1.40001
1.40001
1.40001
1.40001
1.40001
1.40001
1.40001
1.40001
1.40001
1.40001
1.40001
1.40001
1.40001
1.40001
1.40001
1.40001
1.40001
1.40001
1.40001
1.40001
1.40001
1.40001
1.40001
1.40001
1.40001
1.40001
1.40001
1.40001
1.40001
1.40001
1.40001
1.40001
1.40001
1.40001
1.40001
1.40001
1.40001
1.40001
1.40001
1.40001
1.40001
1.40001
1.40001
1.40001
1.40001
1.40001
1.40001
1.40001
1.40001
1.40001
1.40001
1.40001
1.40001
1.40001
1.40001
1.40001
1.40001
1.40001
1.40001
1.40001
1.40001
1.40001
1.40001
1.40001
1.40001
1.40001
1.40001
1.40001
1.40001
1.40001
1.40001
1.40001
1.40001
2.56981
2.56052
2.54685
2.53469
2.52639
2.5125
2.49994
2.48477
2.46282
2.44041
2.41989
2.39431
2.381
2.37447
2.36274
2.35339
2.34104
2.32805
2.32213
2.31506
2.30511
2.29477
2.28151
2.26113
2.23751
2.2143
2.19944
2.1948
2.19181
2.18494
2.16863
2.14609
2.12671
2.11768
2.11557
2.11759
2.11973
2.11619
2.10836
2.09138
2.06348
2.02743
2.00553
2.00031
1.99974
2.00056
1.99674
1.99076
1.98067
1.96356
1.95089
1.9474
1.94612
1.94383
1.9391
1.92921
1.9072
1.87767
1.85954
1.85537
1.85287
1.84882
1.8435
1.8343
1.82223
1.81784
1.81583
1.81384
1.81072
1.80605
1.79524
1.77415
1.75643
1.752
1.7489
1.74485
1.73911
1.72703
1.70944
1.70183
1.70075
1.70042
1.69785
1.69393
1.68852
1.67646
1.65435
1.63168
1.62309
1.62225
1.62489
1.63477
1.63899
1.63589
1.63222
1.62792
1.61896
1.60118
1.57523
1.55768
1.55391
1.55311
1.55583
1.55642
1.55374
1.55172
1.54859
1.53889
1.52294
1.51582
1.51479
1.51541
1.51587
1.51386
1.51104
1.50273
1.48252
1.45895
1.45014
1.44919
1.45115
1.45952
1.46312
1.46141
1.45895
1.45443
1.44357
1.42951
1.4183
1.40844
1.40257
1.4013
1.40004
1.39836
3.88179
3.86289
3.8443
3.82653
3.80828
3.7898
3.77057
3.75316
3.73529
3.71624
3.69855
3.6805
3.66259
3.64419
3.62519
3.60734
3.59066
3.57425
3.55689
3.53867
3.52111
3.50482
3.48724
3.46884
3.45049
3.43275
3.41549
3.39854
3.38124
3.36544
3.34619
3.33145
3.31807
3.30153
3.28708
3.26687
3.25201
3.23741
3.21821
3.20215
3.18079
3.16368
3.15054
3.13245
3.11712
3.09729
3.08245
3.06806
3.04951
3.03196
3.0096
2.99431
2.97948
2.96194
2.93934
2.92761
2.92582
2.93062
2.94394
3.01193
3.09497
3.15209
3.17226
3.16694
3.1546
3.13793
3.1122
3.08912
3.07195
3.05199
3.03005
3.01065
2.99266
2.97103
2.94952
2.9253
2.90964
2.89925
2.88375
2.86563
2.84479
2.81916
2.80754
2.79648
2.78095
2.76722
2.7545
2.73948
2.72206
2.69712
2.67438
2.65608
2.639
2.62613
2.61456
2.60285
2.5936
2.5807
2.56669
2.5564
2.54019
2.52543
2.51126
2.49115
2.4683
2.44875
2.42556
2.40909
2.4041
2.3937
2.38365
2.37451
2.36226
2.35466
2.34586
2.33401
2.32128
2.306
2.28648
2.26397
2.24184
2.22952
2.22534
2.22129
2.21209
2.19283
2.17034
2.15379
2.1479
2.14695
2.14906
2.14723
2.14174
2.1324
2.11439
2.08687
2.05142
2.0296
2.02451
2.02382
2.02457
2.02085
2.01485
2.00482
1.98801
1.97536
1.97182
1.97075
1.96887
1.96418
1.95356
1.93
1.89892
1.88097
1.8772
1.87531
1.8714
1.86652
1.85904
1.84621
1.83946
1.83705
1.83453
1.83131
1.82678
1.81727
1.79711
1.77706
1.77125
1.76826
1.76417
1.75879
1.74835
1.73028
1.72073
1.71926
1.71842
1.7158
1.71198
1.70692
1.69624
1.67536
1.65252
1.64312
1.64216
1.64474
1.65462
1.65939
1.65669
1.65271
1.64698
1.63568
1.61732
1.59201
1.57477
1.57073
1.57004
1.57279
1.57432
1.57115
1.56848
1.56519
1.55654
1.54081
1.53219
1.531
1.53138
1.53196
1.52983
1.52713
1.51985
1.50089
1.47604
1.46551
1.46428
1.46573
1.47399
1.47798
1.47614
1.47368
1.46958
1.45917
1.44289
1.43015
1.42395
1.42025
1.41787
1.41556
1.41244
1.40982
3.89612
3.87731
3.85973
3.84191
3.82296
3.80252
3.78452
3.76757
3.74974
3.73145
3.71149
3.69368
3.67658
3.65921
3.64141
3.62195
3.60482
3.58758
3.57028
3.55228
3.53467
3.5179
3.49957
3.48143
3.46304
3.44618
3.4301
3.4125
3.39673
3.37883
3.36216
3.3495
3.33256
3.31758
3.29948
3.27984
3.26641
3.2479
3.23051
3.21327
3.19149
3.17934
3.16367
3.14703
3.13087
3.11159
3.09922
3.08232
3.06477
3.04547
3.02643
3.01617
3.00243
2.98628
2.96223
2.94451
2.93396
2.93295
2.93994
2.97182
3.04757
3.12156
3.17216
3.18344
3.17907
3.16739
3.14383
3.12116
3.09943
3.07502
3.04868
3.02873
3.00727
2.98503
2.96283
2.94203
2.93141
2.91772
2.89929
2.88073
2.85734
2.83771
2.8262
2.81085
2.79324
2.77694
2.76397
2.74872
2.72756
2.70366
2.68163
2.66432
2.65129
2.64209
2.63305
2.62491
2.61372
2.59862
2.58497
2.56534
2.54815
2.53621
2.51929
2.49724
2.47848
2.45734
2.43837
2.43238
2.42404
2.41277
2.40513
2.3945
2.38561
2.37599
2.36283
2.34827
2.33134
2.31131
2.29027
2.27054
2.26014
2.25584
2.25055
2.23873
2.21717
2.19516
2.18184
2.178
2.17839
2.1792
2.17475
2.16701
2.15517
2.13689
2.11115
2.07676
2.05397
2.04878
2.04805
2.0486
2.04473
2.03875
2.02913
2.01317
2.00087
1.99723
1.99623
1.9948
1.99009
1.97828
1.95316
1.92075
1.90266
1.89901
1.89811
1.89476
1.89003
1.88372
1.87113
1.86105
1.85817
1.85537
1.85193
1.84741
1.83918
1.82047
1.79882
1.791
1.78816
1.78399
1.77873
1.76976
1.75218
1.73995
1.73796
1.73677
1.73395
1.73014
1.7253
1.7163
1.69725
1.67436
1.66361
1.66259
1.66528
1.67521
1.68006
1.67752
1.67297
1.66514
1.6517
1.63291
1.60852
1.59184
1.58772
1.58712
1.58988
1.59245
1.58921
1.58584
1.58229
1.57431
1.55882
1.54892
1.54745
1.54759
1.5481
1.54573
1.54279
1.53622
1.51879
1.49314
1.48064
1.4791
1.48002
1.48819
1.49305
1.49109
1.48843
1.48458
1.47461
1.45813
1.44408
1.43909
1.43752
1.43559
1.43255
1.42795
1.42349
1.42061
3.90847
3.89027
3.87243
3.85385
3.83436
3.81631
3.79898
3.78023
3.76186
3.74364
3.72682
3.70925
3.69026
3.67205
3.65405
3.63788
3.62026
3.60157
3.58274
3.5646
3.54899
3.53126
3.5132
3.49437
3.47633
3.46167
3.44457
3.42831
3.41122
3.39312
3.38035
3.36385
3.34679
3.33041
3.3087
3.29394
3.27756
3.25788
3.24264
3.22143
3.20565
3.1935
3.1758
3.16137
3.14239
3.12703
3.11402
3.09578
3.07975
3.05904
3.0465
3.03705
3.02346
3.00772
2.98447
2.96537
2.94828
2.93987
2.94204
2.95745
3.00268
3.07724
3.15584
3.19177
3.19482
3.18883
3.17246
3.15051
3.12557
3.096
3.06632
3.04472
3.02174
3.0006
2.97848
2.96501
2.95343
2.93522
2.91632
2.89597
2.8738
2.85839
2.84059
2.82248
2.80365
2.78609
2.7738
2.75793
2.73512
2.70869
2.6888
2.67574
2.66669
2.65928
2.65272
2.64364
2.6294
2.61339
2.59205
2.5691
2.55772
2.54462
2.52447
2.50669
2.48866
2.46941
2.4615
2.45466
2.44319
2.4349
2.42394
2.41356
2.40402
2.39126
2.37701
2.35952
2.33728
2.3161
2.29965
2.29091
2.28566
2.27892
2.26531
2.2427
2.22092
2.21015
2.20759
2.20882
2.2075
2.20126
2.19079
2.17704
2.15955
2.13594
2.10331
2.07918
2.07327
2.07205
2.07247
2.06879
2.06284
2.05372
2.03893
2.02733
2.02368
2.02265
2.02112
2.01624
2.00301
1.97622
1.94309
1.92505
1.92143
1.92138
1.91928
1.91449
1.90881
1.89672
1.88284
1.87882
1.87616
1.87258
1.868
1.8607
1.84371
1.82124
1.81106
1.80849
1.80447
1.79926
1.79142
1.77487
1.75963
1.75689
1.75556
1.75269
1.74874
1.74399
1.73627
1.71932
1.69702
1.68491
1.68375
1.68636
1.69595
1.70029
1.69761
1.6921
1.682
1.66732
1.64833
1.62526
1.60921
1.60504
1.60451
1.60712
1.61059
1.60775
1.60376
1.5997
1.59216
1.57712
1.56576
1.56398
1.56399
1.56448
1.56185
1.55856
1.55236
1.5363
1.51053
1.4956
1.49367
1.49411
1.5019
1.50843
1.5067
1.50375
1.49981
1.49029
1.47367
1.45908
1.45501
1.45421
1.45259
1.44964
1.44427
1.438
1.43408
1.43136
3.9238
3.90602
3.88864
3.86921
3.84865
3.83098
3.81382
3.79626
3.77604
3.75753
3.74062
3.7232
3.70576
3.68552
3.6683
3.65141
3.63349
3.6158
3.59541
3.57927
3.56248
3.54493
3.52774
3.50778
3.49279
3.47646
3.45967
3.44376
3.42419
3.40978
3.39386
3.37523
3.35972
3.33891
3.32109
3.30637
3.28651
3.27047
3.25259
3.23223
3.22154
3.20573
3.18971
3.17428
3.15488
3.14351
3.12765
3.11101
3.09466
3.07688
3.0685
3.05637
3.04267
3.02575
3.00534
2.98818
2.96868
2.95141
2.94905
2.95647
2.97772
3.0299
3.12069
3.17808
3.20481
3.20442
3.19426
3.17425
3.1492
3.11628
3.08531
3.06242
3.04046
3.0189
2.99949
2.98857
2.97282
2.9529
2.93395
2.9115
2.89259
2.87314
2.85139
2.83302
2.81335
2.79902
2.786
2.76768
2.74291
2.71795
2.70229
2.69122
2.68297
2.67669
2.66927
2.65726
2.64207
2.62367
2.59574
2.57741
2.56613
2.5491
2.53235
2.51755
2.49981
2.49049
2.48473
2.47382
2.46466
2.45271
2.43997
2.43017
2.41732
2.40212
2.38532
2.36386
2.3424
2.32883
2.3208
2.314
2.30564
2.29135
2.26939
2.24821
2.23913
2.23706
2.23811
2.23545
2.22731
2.21315
2.19795
2.18255
2.1616
2.13081
2.10492
2.09783
2.09645
2.09613
2.09244
2.08704
2.07892
2.06562
2.05485
2.05103
2.04968
2.04763
2.04193
2.02687
1.99882
1.96555
1.94808
1.94453
1.94477
1.94506
1.9407
1.93483
1.92248
1.90529
1.89922
1.89685
1.89349
1.88885
1.88208
1.86716
1.84444
1.83145
1.82905
1.82562
1.82057
1.81346
1.7983
1.78011
1.77577
1.77456
1.7721
1.76816
1.76344
1.75646
1.74165
1.72012
1.70709
1.70573
1.70815
1.71708
1.72022
1.71697
1.71006
1.69786
1.68256
1.66397
1.64271
1.62698
1.62279
1.6222
1.62447
1.62859
1.62641
1.62215
1.61778
1.61056
1.5957
1.5829
1.58066
1.58048
1.58108
1.57831
1.57457
1.56836
1.55336
1.52787
1.51074
1.50811
1.50822
1.51525
1.52379
1.52272
1.51972
1.51591
1.50687
1.48979
1.47457
1.4708
1.47037
1.46895
1.4662
1.46144
1.45361
1.4479
1.44489
1.4422
3.93837
3.91808
3.89932
3.88137
3.86373
3.84522
3.82611
3.8067
3.78933
3.77329
3.75491
3.73636
3.71643
3.69947
3.68369
3.66498
3.64681
3.62656
3.60974
3.5941
3.5759
3.55905
3.5391
3.52346
3.5087
3.49106
3.4749
3.45512
3.43893
3.42359
3.40394
3.38715
3.36812
3.34826
3.33453
3.31632
3.29835
3.28326
3.26136
3.24862
3.23589
3.21865
3.20515
3.18611
3.17234
3.16021
3.14257
3.12844
3.11015
3.09826
3.08862
3.07426
3.06004
3.04125
3.02579
3.01023
2.99116
2.96765
2.95771
2.96037
2.9721
3.00032
3.07408
3.14392
3.19282
3.21609
3.20903
3.1939
3.17247
3.13795
3.10768
3.08477
3.06355
3.04052
3.02394
3.01085
2.99115
2.97146
2.9503
2.92867
2.90821
2.88408
2.86321
2.84339
2.82655
2.81559
2.79989
2.77997
2.75399
2.73426
2.72212
2.70977
2.69971
2.69163
2.68128
2.66733
2.65226
2.63074
2.60229
2.58732
2.57287
2.55652
2.54385
2.52937
2.51903
2.51365
2.50367
2.49415
2.48107
2.46426
2.45406
2.44244
2.42796
2.41272
2.39238
2.36796
2.355
2.3487
2.34127
2.33236
2.31874
2.29704
2.27662
2.26871
2.2667
2.2665
2.26196
2.25068
2.23425
2.21907
2.20512
2.18737
2.16019
2.13231
2.12252
2.12018
2.11968
2.11634
2.11114
2.10442
2.09329
2.0833
2.07915
2.07689
2.0735
2.0664
2.04986
2.02123
1.98812
1.97131
1.96791
1.96838
1.97058
1.96714
1.96124
1.9479
1.92784
1.9194
1.91726
1.91456
1.91008
1.90388
1.8907
1.86806
1.85236
1.84967
1.84705
1.84243
1.83592
1.82229
1.80188
1.7946
1.79336
1.7917
1.78817
1.78371
1.7774
1.76428
1.74343
1.73
1.72836
1.73025
1.73784
1.73999
1.73615
1.7276
1.71365
1.6976
1.68009
1.66118
1.64548
1.64103
1.64032
1.642
1.64634
1.64484
1.64079
1.63619
1.62922
1.61467
1.60022
1.59728
1.59701
1.59785
1.59527
1.59106
1.58466
1.57038
1.54559
1.52643
1.52259
1.5226
1.52869
1.53896
1.53915
1.53608
1.53223
1.52389
1.50712
1.4906
1.48608
1.48597
1.48488
1.48226
1.4783
1.47123
1.46276
1.45857
1.45591
1.45312
3.9578
3.93363
3.9116
3.89455
3.87823
3.86089
3.842
3.82136
3.80459
3.78797
3.77149
3.752
3.7313
3.71447
3.69632
3.67912
3.65973
3.64012
3.62444
3.60633
3.5901
3.57106
3.5529
3.53883
3.5212
3.50517
3.48632
3.46775
3.45295
3.43369
3.4152
3.39768
3.37625
3.3623
3.34657
3.32773
3.31386
3.29405
3.27773
3.26662
3.2496
3.23523
3.21909
3.20202
3.19201
3.176
3.16083
3.14576
3.1285
3.11897
3.10528
3.0907
3.07425
3.05696
3.04498
3.02907
3.01121
2.98675
2.96886
2.96765
2.97307
2.98461
3.02771
3.09588
3.16247
3.21514
3.21936
3.21242
3.19373
3.16046
3.13385
3.11184
3.0904
3.06631
3.05025
3.03233
3.01029
2.9893
2.96631
2.94549
2.92097
2.89666
2.87696
2.85635
2.84534
2.83246
2.81521
2.79499
2.77164
2.75731
2.74396
2.7283
2.71627
2.70561
2.69178
2.67658
2.66058
2.63469
2.61086
2.59711
2.58228
2.56981
2.55828
2.54879
2.54265
2.53289
2.52202
2.50742
2.48686
2.47554
2.46597
2.45248
2.43847
2.42135
2.39652
2.38017
2.37392
2.36581
2.35639
2.34407
2.32532
2.3062
2.29866
2.29603
2.29355
2.28628
2.27123
2.25459
2.23985
2.22726
2.21289
2.18948
2.1607
2.14732
2.14456
2.14378
2.14084
2.13598
2.13091
2.12259
2.1115
2.10672
2.10293
2.09794
2.08921
2.07199
2.04371
2.01124
1.99478
1.99144
1.99207
1.99561
1.99283
1.98697
1.97276
1.95026
1.9393
1.93725
1.9358
1.93182
1.92591
1.91403
1.89207
1.87379
1.87034
1.86863
1.86475
1.85891
1.84667
1.82493
1.81359
1.81201
1.81113
1.80836
1.80429
1.79856
1.78676
1.76668
1.75308
1.75123
1.75266
1.75838
1.75896
1.75475
1.74515
1.7297
1.71274
1.69662
1.67989
1.66464
1.65983
1.65885
1.65988
1.66391
1.66311
1.65947
1.65497
1.64814
1.63374
1.61782
1.61374
1.61341
1.61441
1.61227
1.60806
1.60176
1.58787
1.56357
1.54248
1.53727
1.53728
1.54252
1.55394
1.55594
1.55295
1.54908
1.5413
1.52484
1.50708
1.50113
1.50077
1.50031
1.49823
1.4948
1.48901
1.47994
1.47308
1.46987
1.46711
1.46399
3.9697
3.94655
3.92416
3.90889
3.89248
3.87495
3.85541
3.83796
3.82056
3.80196
3.78306
3.76354
3.74725
3.72878
3.70935
3.68988
3.66981
3.65442
3.63661
3.61882
3.60072
3.58102
3.56763
3.5511
3.53384
3.51599
3.49583
3.48177
3.46429
3.44456
3.42826
3.40672
3.39089
3.37691
3.35845
3.344
3.32722
3.30915
3.29877
3.28312
3.26707
3.25262
3.2335
3.22256
3.20951
3.19265
3.1799
3.16166
3.1487
3.13603
3.11942
3.10431
3.085
3.07251
3.06033
3.04443
3.02865
3.00526
2.98747
2.97773
2.97518
2.97856
2.99708
3.04632
3.11372
3.19514
3.2166
3.21477
3.20479
3.18312
3.16187
3.14141
3.11759
3.09283
3.07551
3.05334
3.03063
3.00546
2.98253
2.96024
2.93415
2.91409
2.89235
2.87775
2.86669
2.84993
2.83367
2.81219
2.79355
2.77866
2.76326
2.74618
2.73345
2.71954
2.70321
2.68716
2.66747
2.63861
2.62122
2.60846
2.59677
2.58677
2.57897
2.57306
2.5633
2.55
2.53404
2.51002
2.49421
2.48689
2.47548
2.46205
2.44858
2.42744
2.4065
2.39869
2.39001
2.37976
2.36769
2.35128
2.33491
2.32814
2.3248
2.31988
2.30991
2.29192
2.27447
2.26052
2.24985
2.23804
2.21745
2.19005
2.17289
2.1692
2.16842
2.16844
2.16426
2.15965
2.15391
2.14215
2.13151
2.12594
2.11974
2.11013
2.09334
2.06626
2.03503
2.01866
2.01536
2.01609
2.02058
2.01832
2.01214
1.99703
1.97321
1.9595
1.95722
1.95675
1.95378
1.94858
1.93817
1.91686
1.89621
1.89149
1.89022
1.88737
1.8823
1.87138
1.84926
1.83339
1.83089
1.83009
1.82836
1.82479
1.8196
1.80921
1.78997
1.77603
1.77391
1.7748
1.77885
1.77795
1.77305
1.76239
1.74574
1.72797
1.71336
1.6987
1.68431
1.67936
1.67806
1.67826
1.6815
1.68112
1.67797
1.67403
1.66767
1.65353
1.63607
1.63011
1.62968
1.63067
1.62899
1.62508
1.6191
1.60616
1.58264
1.55954
1.55254
1.55242
1.55675
1.56874
1.57301
1.57038
1.56632
1.55893
1.54311
1.52431
1.51656
1.51556
1.51496
1.51364
1.51116
1.5067
1.49821
1.48888
1.48426
1.48138
1.47832
1.4741
3.99117
3.96763
3.94382
3.92654
3.90941
3.88922
3.87008
3.85347
3.83524
3.81641
3.79434
3.77652
3.75988
3.74166
3.72391
3.7018
3.68408
3.66626
3.64729
3.63058
3.60979
3.59549
3.58096
3.56303
3.54658
3.5254
3.50967
3.49455
3.47495
3.45947
3.44071
3.42294
3.40939
3.39161
3.37545
3.36012
3.34125
3.33024
3.31698
3.30028
3.28714
3.26834
3.25347
3.24154
3.22403
3.21047
3.19467
3.17814
3.16609
3.14931
3.13331
3.11469
3.09729
3.08691
3.0721
3.0583
3.04329
3.02421
3.00943
2.99223
2.97899
2.9766
2.98185
3.00764
3.05853
3.14978
3.20116
3.21316
3.21243
3.20331
3.18745
3.1686
3.14144
3.11641
3.09756
3.07497
3.05057
3.02184
2.99981
2.97536
2.9531
2.93343
2.91411
2.90394
2.88844
2.87231
2.853
2.83259
2.81393
2.79612
2.77675
2.76225
2.74947
2.73408
2.71774
2.70036
2.67311
2.64817
2.63543
2.62451
2.61507
2.60821
2.60309
2.59435
2.57972
2.56282
2.53777
2.51404
2.50627
2.49776
2.48496
2.47287
2.45704
2.43452
2.42313
2.4141
2.40353
2.39158
2.37602
2.36143
2.35571
2.35149
2.34477
2.3332
2.31389
2.29501
2.28143
2.27259
2.26299
2.24467
2.21888
2.19919
2.19452
2.1932
2.19653
2.19493
2.19132
2.18579
2.17123
2.15482
2.14652
2.13953
2.1301
2.11412
2.08869
2.05919
2.04298
2.0397
2.04055
2.04584
2.04389
2.03742
2.02172
1.9967
1.98061
1.97778
1.97761
1.97562
1.97092
1.96173
1.94151
1.91972
1.9132
1.91199
1.91008
1.90573
1.89603
1.8742
1.85433
1.85029
1.84915
1.84803
1.84501
1.8404
1.83108
1.81289
1.79878
1.79633
1.79649
1.7989
1.79731
1.79201
1.77986
1.76129
1.74296
1.72935
1.71646
1.70456
1.69979
1.69808
1.69767
1.69938
1.699
1.69632
1.69297
1.68746
1.67375
1.6546
1.6465
1.64591
1.6467
1.64545
1.642
1.63665
1.625
1.60255
1.5776
1.56854
1.56809
1.5715
1.58329
1.5899
1.58805
1.58422
1.57708
1.56142
1.54167
1.5322
1.53113
1.53029
1.52881
1.52692
1.52382
1.51685
1.50589
1.49903
1.49567
1.49256
1.48857
1.4812
4.00035
3.98025
3.95768
3.93638
3.91606
3.89763
3.88192
3.86386
3.84482
3.82426
3.8049
3.78851
3.76921
3.7512
3.73148
3.71399
3.69797
3.67842
3.66093
3.63942
3.62191
3.60968
3.59276
3.57729
3.55802
3.54003
3.52588
3.50687
3.48974
3.47297
3.45517
3.44341
3.42739
3.41024
3.39489
3.37431
3.36066
3.34918
3.33245
3.319
3.3031
3.28578
3.27338
3.25638
3.23985
3.22434
3.20449
3.19268
3.17838
3.16168
3.14621
3.12594
3.11366
3.09917
3.08299
3.0706
3.0551
3.04292
3.02865
3.00901
2.98972
2.97741
2.9782
2.98709
3.01467
3.08911
3.16142
3.19948
3.22262
3.21907
3.20891
3.19355
3.16607
3.13894
3.11787
3.09578
3.06834
3.0402
3.01892
2.99594
2.97746
2.95509
2.94146
2.9295
2.91395
2.89715
2.87537
2.8527
2.8314
2.80947
2.79109
2.77822
2.76395
2.74928
2.73451
2.71248
2.68393
2.66667
2.65488
2.6446
2.63612
2.63079
2.62417
2.60989
2.59275
2.57002
2.5401
2.52701
2.51987
2.50837
2.49643
2.48409
2.46554
2.44916
2.43812
2.4268
2.41501
2.40063
2.38699
2.38127
2.37639
2.36859
2.35665
2.33758
2.31708
2.30314
2.29572
2.28748
2.27057
2.24644
2.22597
2.22026
2.21861
2.22343
2.22493
2.22046
2.21276
2.19468
2.17569
2.16546
2.15829
2.14966
2.13492
2.11153
2.08373
2.0675
2.06416
2.06503
2.0709
2.06935
2.06262
2.04626
2.02072
2.00267
1.99897
1.99862
1.99744
1.99311
1.98483
1.96585
1.94373
1.93548
1.9339
1.93261
1.92894
1.92022
1.89912
1.87655
1.8702
1.86854
1.86764
1.86498
1.86089
1.85296
1.83618
1.82112
1.81813
1.81794
1.81887
1.81658
1.81136
1.7984
1.77746
1.75766
1.74446
1.73343
1.72486
1.72142
1.71933
1.71792
1.71795
1.71725
1.7147
1.71175
1.70703
1.69415
1.67377
1.66283
1.6618
1.66242
1.66161
1.65858
1.6541
1.64419
1.62322
1.59697
1.58565
1.58476
1.58698
1.59789
1.60643
1.60543
1.6021
1.59536
1.58016
1.5597
1.54813
1.54665
1.54647
1.54547
1.54336
1.54076
1.53516
1.52332
1.51397
1.51013
1.50697
1.50298
1.49609
1.48415
4.00613
3.99574
3.97719
3.9501
3.92338
3.90504
3.89049
3.87451
3.85618
3.8359
3.82027
3.80153
3.78191
3.76087
3.74123
3.72786
3.71072
3.69427
3.67635
3.65445
3.63927
3.62225
3.60591
3.59017
3.57316
3.56049
3.54315
3.52472
3.50788
3.487
3.47428
3.46149
3.44487
3.43095
3.41199
3.39426
3.38133
3.36396
3.34833
3.33373
3.31587
3.30356
3.28812
3.27022
3.25601
3.23317
3.21574
3.20436
3.18833
3.17406
3.15612
3.14209
3.12961
3.11194
3.09752
3.08059
3.06731
3.05848
3.04302
3.02557
3.00294
2.9842
2.98196
2.98237
2.99044
3.0338
3.10746
3.16734
3.21665
3.2309
3.22786
3.2168
3.19122
3.16286
3.13894
3.11483
3.08469
3.0598
3.04058
3.02261
3.00266
2.98166
2.96946
2.95582
2.94037
2.92043
2.89642
2.8716
2.84621
2.8241
2.80995
2.79526
2.78094
2.76801
2.7505
2.72515
2.70247
2.6882
2.67824
2.6659
2.65785
2.65193
2.63913
2.62183
2.60287
2.57412
2.55083
2.54354
2.53315
2.52062
2.50937
2.49533
2.47884
2.46517
2.45208
2.43922
2.42505
2.41123
2.40435
2.39898
2.391
2.37984
2.36297
2.34146
2.32626
2.3193
2.311
2.29439
2.27212
2.25232
2.24613
2.24439
2.24943
2.25214
2.24721
2.23688
2.2161
2.19428
2.18272
2.1761
2.16836
2.15574
2.13482
2.10873
2.09223
2.08877
2.08961
2.0958
2.09435
2.08711
2.07011
2.04438
2.02501
2.02056
2.01986
2.01908
2.01512
2.00761
1.98996
1.968
1.95813
1.95609
1.9548
1.95152
1.94352
1.92338
1.89936
1.89037
1.8884
1.88733
1.88483
1.88103
1.87424
1.85946
1.84407
1.84005
1.83876
1.83861
1.8362
1.83073
1.81695
1.79452
1.77329
1.76025
1.75129
1.74541
1.74319
1.74138
1.7391
1.73755
1.73609
1.73352
1.73066
1.7264
1.71458
1.69351
1.67928
1.67744