/*--------------------------------*- C++ -*----------------------------------*\
  =========                 |
  \\      /  F ield         | OpenFOAM: The Open Source CFD Toolbox
   \\    /   O peration     | Website:  https://openfoam.org
    \\  /    A nd           | Version:  7
     \\/     M anipulation  |
\*---------------------------------------------------------------------------*/
FoamFile
{
    version     2.0;
    format      ascii;
    class       volScalarField;
    location    "3.5";
    object      rho;
}
// * * * * * * * * * * * * * * * * * * * * * * * * * * * * * * * * * * * * * //

dimensions      [1 -3 0 0 0 0 0];

internalField   nonuniform List<scalar> 
16192
(
4.27357
4.30647
4.30696
4.28657
4.24399
4.17235
4.12006
4.10168
4.09672
4.11471
4.15246
4.1593
4.14365
4.11242
4.06067
4.01081
3.98572
3.97528
3.97227
3.97563
3.97037
3.95827
3.943
3.92157
3.8971
3.87918
3.86769
3.85581
3.83775
3.81366
3.7946
3.78467
3.779
3.77876
3.77197
3.76068
3.74306
3.71085
3.67113
3.64757
3.64001
3.63919
3.6517
3.65973
3.65168
3.63825
3.61466
3.57934
3.5436
3.5208
3.51113
3.50554
3.50362
3.50318
3.49829
3.49024
3.48141
3.47128
3.45823
3.43844
3.41103
3.38626
3.3765
3.37064
3.36591
3.35932
3.35128
3.34122
3.32554
3.29934
3.27078
3.25671
3.25098
3.24732
3.24713
3.24571
3.23916
3.232
3.22449
3.2142
3.19279
3.16411
3.14512
3.13916
3.13548
3.13673
3.13986
3.1344
3.12615
3.11783
3.10273
3.07492
3.04321
3.0271
3.02132
3.01823
3.01982
3.02296
3.0184
3.01103
3.00135
2.98473
2.95744
2.93233
2.91798
2.91334
2.91051
2.91037
2.90961
2.90506
2.89892
2.88966
2.87323
2.84895
2.82941
2.82191
2.81796
2.81545
2.81344
2.80935
2.80352
2.79663
2.79005
2.78
2.76218
2.73806
2.71718
2.70856
2.70467
2.70203
2.70316
2.71071
2.71066
2.70367
2.69425
2.67858
2.65121
2.61748
2.5993
2.59308
2.59085
2.59216
2.60313
2.61545
2.61461
2.60883
2.59923
2.57829
2.54595
2.5225
2.51171
2.50705
2.50405
2.50466
2.51896
2.52862
2.52808
2.52478
2.51847
2.50656
2.48964
2.47418
2.4592
2.44189
2.42457
2.41329
2.40796
2.40507
2.40287
2.39992
2.39586
2.38856
2.37902
2.37293
2.36971
2.36621
2.36093
2.35288
2.34346
2.33505
2.32754
2.32202
2.31631
2.30897
2.30137
2.29838
2.29633
2.29506
2.29285
2.28956
2.28457
2.27617
2.26205
2.24509
2.23642
2.23397
2.23258
2.23133
2.23028
2.22819
2.22479
2.21987
2.21251
2.20402
2.19771
2.19466
2.19278
2.19093
2.18889
2.18652
2.18396
2.18092
2.17646
2.17051
2.16227
2.15253
2.14485
2.13962
2.13499
2.13104
2.12809
2.12605
2.12385
2.12209
2.12202
2.12197
2.12064
2.11866
2.11495
2.10768
2.09878
2.0897
2.08251
2.0766
2.0719
2.06921
2.06696
2.06496
2.064
2.06424
2.06468
2.06668
2.06756
2.06598
2.06338
2.06029
2.05537
2.04654
2.03605
2.03162
2.03062
2.03018
2.03143
4.3427
4.33978
4.3187
4.27545
4.20197
4.14712
4.12808
4.1255
4.15024
4.1897
4.19239
4.17539
4.14251
4.08917
4.03967
4.01479
4.00523
4.00285
4.00503
3.997
3.98441
3.97009
3.95132
3.93044
3.91485
3.90214
3.88416
3.85729
3.83366
3.82025
3.81152
3.80723
3.80872
3.80303
3.79154
3.77189
3.73707
3.70099
3.68038
3.67245
3.67184
3.68342
3.68815
3.67877
3.66362
3.63784
3.60205
3.56669
3.544
3.53541
3.53107
3.53085
3.53103
3.5257
3.51763
3.50912
3.49943
3.48606
3.46422
3.4359
3.41226
3.4027
3.39672
3.39118
3.38393
3.37544
3.36512
3.34966
3.3251
3.29735
3.28219
3.27605
3.27177
3.27058
3.26859
3.26206
3.25454
3.24608
3.23417
3.21126
3.18463
3.16907
3.16351
3.15943
3.15993
3.16396
3.15981
3.15166
3.14064
3.12078
3.09178
3.06202
3.04148
3.03313
3.02902
3.03013
3.03967
3.03939
3.03312
3.02493
3.01044
2.98265
2.95275
2.93329
2.92659
2.92225
2.92057
2.91879
2.91318
2.90756
2.90309
2.8948
2.87553
2.85059
2.83929
2.83505
2.8316
2.82731
2.82181
2.81609
2.8101
2.80329
2.79254
2.77408
2.74524
2.72428
2.71791
2.71618
2.71681
2.72381
2.73457
2.73479
2.72788
2.71716
2.69669
2.66465
2.63312
2.61353
2.60426
2.60025
2.59801
2.60248
2.61897
2.62575
2.62253
2.61592
2.60187
2.57427
2.54279
2.52413
2.5169
2.51222
2.50922
2.5106
2.5132
2.51235
2.51006
2.5086
2.50512
2.49767
2.49266
2.48938
2.48488
2.47744
2.46356
2.43977
2.41706
2.40419
2.39494
2.38464
2.37399
2.3701
2.37188
2.3782
2.38179
2.38102
2.37752
2.37163
2.36042
2.34463
2.33165
2.32111
2.31227
2.30679
2.30447
2.30275
2.3022
2.30203
2.30018
2.29705
2.29197
2.28032
2.25882
2.24205
2.23677
2.2348
2.23363
2.23465
2.23496
2.23247
2.22899
2.22288
2.2126
2.20303
2.1983
2.19495
2.19181
2.18921
2.1869
2.18433
2.18126
2.17771
2.17145
2.16142
2.1524
2.14769
2.14587
2.14438
2.14344
2.14179
2.13842
2.13293
2.12544
2.11795
2.11502
2.11342
2.11155
2.11009
2.10917
2.1074
2.10279
2.09592
2.08699
2.07709
2.06979
2.06611
2.06369
2.06187
2.06105
2.06163
2.0657
2.06888
2.06808
2.06557
2.06151
2.05468
2.04376
2.03202
2.02573
2.02333
2.02224
2.02221
2.02619
4.37177
4.34894
4.30328
4.23023
4.1799
4.16367
4.1611
4.18625
4.22348
4.22354
4.20535
4.17047
4.11657
4.0707
4.05017
4.041
4.03761
4.03516
4.02442
4.01093
3.99596
3.97904
3.96251
3.9482
3.93389
3.91439
3.88816
3.85895
3.84021
3.83095
3.82736
3.83431
3.83291
3.82155
3.80291
3.76897
3.72916
3.70609
3.69935
3.70088
3.71424
3.71615
3.70565
3.68927
3.66108
3.62259
3.58965
3.57229
3.56451
3.56038
3.56001
3.55932
3.55336
3.54505
3.53618
3.52592
3.51246
3.49007
3.46096
3.43557
3.42542
3.41967
3.41517
3.4083
3.4
3.38963
3.37372
3.34744
3.32058
3.30619
3.30012
3.29583
3.29416
3.29115
3.28449
3.27676
3.26785
3.25632
3.23446
3.20702
3.18483
3.17813
3.17469
3.17793
3.18463
3.18093
3.17326
3.16415
3.14605
3.11153
3.07318
3.05343
3.04718
3.04385
3.04393
3.05328
3.05772
3.05238
3.04475
3.03379
3.00855
2.9757
2.95344
2.94634
2.94149
2.93653
2.93077
2.92439
2.91826
2.91169
2.90161
2.88699
2.8702
2.86039
2.85571
2.85124
2.84648
2.84042
2.8331
2.825
2.81524
2.80165
2.78193
2.75708
2.73683
2.72661
2.72289
2.72108
2.72648
2.74465
2.75288
2.7485
2.74116
2.72677
2.69686
2.65296
2.62429
2.61605
2.6131
2.61075
2.61258
2.62503
2.6326
2.62909
2.62229
2.61113
2.5911
2.56757
2.55274
2.54344
2.53618
2.53039
2.52501
2.51942
2.51221
2.506
2.49977
2.49223
2.48817
2.48944
2.49649
2.50153
2.50145
2.4979
2.49176
2.47816
2.44782
2.41087
2.384
2.36849
2.36199
2.35983
2.36227
2.3782
2.3914
2.39212
2.38922
2.38492
2.37684
2.35879
2.33454
2.31827
2.31097
2.30788
2.30564
2.30511
2.30825
2.30761
2.30429
2.30073
2.29569
2.28043
2.25598
2.243
2.23966
2.23778
2.23748
2.23744
2.23565
2.23309
2.23037
2.2248
2.21287
2.20366
2.19972
2.19669
2.19348
2.18962
2.18622
2.18369
2.18103
2.17565
2.16538
2.15289
2.14696
2.14507
2.14424
2.14644
2.14919
2.14795
2.14507
2.14047
2.13165
2.11891
2.10845
2.10482
2.10303
2.1016
2.10092
2.10144
2.10068
2.09775
2.09131
2.08038
2.06991
2.0654
2.06243
2.06004
2.05906
2.06132
2.06748
2.06929
2.06796
2.06481
2.05854
2.04553
2.02897
2.02137
2.01909
2.01732
2.01628
2.01708
2.02251
4.37811
4.32876
4.25676
4.21226
4.19755
4.19788
4.22683
4.25944
4.25447
4.23354
4.19605
4.14291
4.10098
4.0828
4.07494
4.07205
4.06721
4.05519
4.04111
4.02599
4.0113
3.99808
3.98524
3.96919
3.94245
3.90777
3.8826
3.87014
3.86214
3.8601
3.8671
3.86465
3.85298
3.83298
3.79871
3.76023
3.73956
3.7325
3.73306
3.74464
3.74502
3.73381
3.71587
3.68568
3.64655
3.61409
3.59816
3.5912
3.58799
3.5886
3.58697
3.57993
3.57133
3.56229
3.55183
3.53795
3.51474
3.48602
3.46099
3.45096
3.44518
3.44079
3.43367
3.4247
3.41424
3.39927
3.37474
3.34639
3.32899
3.32285
3.3189
3.3179
3.31516
3.30839
3.30061
3.29181
3.27954
3.25799
3.23128
3.20762
3.1997
3.19505
3.194
3.20006
3.19934
3.19232
3.18432
3.16761
3.13644
3.09912
3.07362
3.06285
3.05731
3.05455
3.06099
3.06902
3.06464
3.05886
3.05157
3.03125
2.9979
2.97289
2.96524
2.96051
2.95548
2.94901
2.94119
2.93282
2.92407
2.91263
2.89779
2.88166
2.87197
2.86845
2.86456
2.85972
2.85436
2.84841
2.84125
2.83274
2.82228
2.80291
2.77257
2.74622
2.7349
2.73161
2.72927
2.73047
2.74412
2.75989
2.75992
2.75401
2.74507
2.72818
2.69357
2.65445
2.63291
2.62572
2.62211
2.62233
2.63027
2.63057
2.62552
2.62039
2.61226
2.59515
2.57364
2.56552
2.56261
2.56124
2.55961
2.55452
2.54535
2.53254
2.519
2.50343
2.48803
2.47868
2.47536
2.47588
2.49047
2.50948
2.51515
2.51327
2.50896
2.50139
2.4792
2.42609
2.37936
2.36385
2.35978
2.35744
2.35753
2.37432
2.39791
2.40076
2.39833
2.39443
2.38843
2.37198
2.33951
2.32047
2.31601
2.31318
2.31072
2.30918
2.31036
2.31152
2.30876
2.30427
2.29535
2.27958
2.26178
2.25219
2.24625
2.24203
2.23937
2.23778
2.23726
2.23565
2.23201
2.22528
2.21542
2.2081
2.20374
2.20055
2.19734
2.19359
2.18913
2.18377
2.17749
2.16787
2.15515
2.14798
2.14581
2.1444
2.14436
2.14924
2.15288
2.15145
2.14889
2.14532
2.13793
2.12256
2.10657
2.09907
2.09699
2.09572
2.09452
2.09408
2.0933
2.09165
2.08957
2.084
2.07512
2.06866
2.06508
2.06224
2.06088
2.06135
2.06201
2.06152
2.06029
2.05788
2.05043
2.03281
2.0191
2.01594
2.01466
2.01384
2.0135
2.01477
2.02131
4.35097
4.28089
4.24307
4.23066
4.23563
4.26949
4.29619
4.28712
4.26445
4.22432
4.1705
4.13112
4.11407
4.10611
4.10284
4.09663
4.08451
4.07087
4.05723
4.04524
4.03335
4.01988
4.00276
3.97569
3.94052
3.90663
3.8894
3.88159
3.88224
3.89616
3.89767
3.88582
3.86437
3.82666
3.78763
3.7676
3.76084
3.7618
3.77295
3.77178
3.7605
3.74266
3.71056
3.66985
3.63993
3.62693
3.62051
3.61809
3.61901
3.61614
3.60812
3.59898
3.58906
3.5776
3.56207
3.53688
3.50796
3.48404
3.47453
3.46917
3.46607
3.46
3.4514
3.44035
3.42298
3.39507
3.36805
3.35303
3.34689
3.34256
3.34117
3.33867
3.33239
3.32518
3.31676
3.3046
3.28314
3.25313
3.22862
3.22022
3.21566
3.21474
3.21641
3.21153
3.20382
3.19748
3.18454
3.15726
3.11702
3.09216
3.08419
3.07899
3.07622
3.08102
3.08434
3.07805
3.07097
3.06275
3.04446
3.01664
2.9913
2.98219
2.97814
2.97357
2.96745
2.9601
2.95142
2.94079
2.92766
2.91225
2.89667
2.88702
2.8821
2.87709
2.87169
2.86585
2.85854
2.8511
2.84517
2.83722
2.8223
2.79826
2.76961
2.75005
2.74415
2.74074
2.73966
2.74812
2.75959
2.75641
2.75229
2.74648
2.7354
2.71381
2.68853
2.67337
2.66349
2.6543
2.65096
2.64955
2.64301
2.63483
2.62837
2.61529
2.59326
2.57262
2.56541
2.56349
2.56636
2.57525
2.57749
2.57387
2.56763
2.55567
2.53231
2.50097
2.47974
2.47186
2.46846
2.4665
2.47369
2.50661
2.52588
2.52369
2.51816
2.51047
2.49414
2.45139
2.39228
2.36746
2.36196
2.35937
2.35828
2.36384
2.38606
2.40529
2.40517
2.40061
2.39402
2.38063
2.35615
2.33228
2.32317
2.31989
2.31791
2.31669
2.31457
2.31076
2.30642
2.30024
2.2892
2.27717
2.26968
2.2646
2.25901
2.25268
2.24619
2.24018
2.23476
2.22946
2.22431
2.2187
2.21606
2.21377
2.21105
2.20774
2.20373
2.19927
2.19419
2.18719
2.175
2.15963
2.14988
2.14656
2.14463
2.1434
2.1448
2.1505
2.15395
2.15258
2.15013
2.14695
2.14117
2.12697
2.10816
2.09828
2.09366
2.09152
2.09002
2.08816
2.08597
2.08413
2.08313
2.08214
2.07856
2.07485
2.07235
2.06992
2.06744
2.06481
2.06176
2.0574
2.05318
2.04742
2.03566
2.02051
2.01442
2.01279
2.01162
2.01095
2.01131
2.01602
2.02469
4.30629
4.27334
4.26276
4.27276
4.31118
4.33206
4.32062
4.29557
4.25266
4.19941
4.16404
4.14872
4.14066
4.13543
4.12621
4.11372
4.10006
4.08768
4.07757
4.06747
4.0547
4.03595
4.00407
3.96543
3.93648
3.9231
3.91569
3.91641
3.92823
3.92807
3.91666
3.89666
3.86265
3.82128
3.79665
3.78922
3.78927
3.79998
3.79865
3.78708
3.76794
3.73569
3.69591
3.66606
3.65407
3.64804
3.64623
3.64776
3.64445
3.63626
3.62708
3.6169
3.6044
3.58632
3.56006
3.53118
3.50628
3.49622
3.49076
3.48824
3.48358
3.47547
3.46541
3.45029
3.42385
3.39361
3.37332
3.36667
3.3619
3.35986
3.35694
3.35071
3.34378
3.33638
3.32843
3.31343
3.28596
3.25491
3.24153
3.2359
3.23301
3.23286
3.22791
3.22106
3.21353
3.19802
3.17172
3.13779
3.11155
3.10079
3.09569
3.09358
3.09943
3.10495
3.09923
3.09057
3.07905
3.05657
3.02502
3.00337
2.99591
2.99259
2.98932
2.9841
2.97756
2.9699
2.9601
2.94806
2.93105
2.91213
2.90253
2.89823
2.89357
2.8883
2.88214
2.87449
2.86622
2.85709
2.84621
2.83269
2.81437
2.79283
2.7757
2.7685
2.76323
2.76003
2.76175
2.76502
2.76026
2.75171
2.74379
2.73372
2.715
2.6915
2.6833
2.68209
2.68312
2.68608
2.68664
2.68119
2.66954
2.65079
2.62393
2.59345
2.57277
2.56638
2.56411
2.56393
2.57358
2.58969
2.59246
2.58872
2.58306
2.57136
2.5421
2.50295
2.48038
2.47218
2.468
2.4654
2.46664
2.48073
2.50375
2.51684
2.51648
2.51062
2.49836
2.47437
2.43857
2.40063
2.37608
2.36748
2.36501
2.36689
2.37478
2.38467
2.39133
2.39177
2.38843
2.38305
2.37172
2.35635
2.33956
2.32842
2.32453
2.32175
2.31893
2.31447
2.30798
2.29815
2.28618
2.27961
2.27712
2.2735
2.26872
2.26254
2.25463
2.24608
2.23635
2.22727
2.22083
2.21735
2.21523
2.2148
2.2148
2.2132
2.21061
2.20648
2.19942
2.18659
2.16746
2.15383
2.14861
2.14682
2.14537
2.14451
2.14609
2.15012
2.1518
2.1511
2.14973
2.14762
2.1428
2.13152
2.11417
2.10066
2.09403
2.08947
2.08627
2.08292
2.07982
2.07801
2.07662
2.0759
2.07708
2.07807
2.07828
2.07688
2.0742
2.07025
2.06446
2.05699
2.04707
2.03345
2.01862
2.01202
2.01046
2.00941
2.00875
2.00873
2.0122
2.02012
2.02298
4.3057
4.29673
4.31052
4.3526
4.36891
4.35465
4.32655
4.28094
4.22883
4.19715
4.1841
4.17665
4.17087
4.16058
4.14793
4.1344
4.12229
4.11218
4.1014
4.08773
4.06774
4.03641
3.99577
3.9614
3.94676
3.94046
3.94442
3.95887
3.95885
3.947
3.92557
3.88908
3.85189
3.83238
3.82457
3.82356
3.8305
3.82652
3.81462
3.79404
3.75783
3.71756
3.69216
3.68216
3.67708
3.67642
3.6774
3.6731
3.66466
3.65527
3.64452
3.63136
3.61139
3.58233
3.55213
3.52941
3.51983
3.5142
3.511
3.50547
3.49718
3.48829
3.4741
3.44851
3.41942
3.39994
3.39275
3.38741
3.38322
3.37744
3.36942
3.36071
3.35226
3.34326
3.32876
3.3075
3.28284
3.26916
3.26326
3.25986
3.25634
3.24835
3.23734
3.22509
3.20978
3.18309
3.14497
3.12354
3.11673
3.11328
3.1128
3.12106
3.12903
3.12423
3.11487
3.1009
3.07442
3.04058
3.01738
3.00688
3.00219
2.99884
2.99605
2.99138
2.98553
2.9784
2.969
2.95153
2.93283
2.92305
2.9176
2.91092
2.90254
2.89228
2.88104
2.8705
2.86136
2.85379
2.84443
2.82786
2.8053
2.79081
2.78622
2.78313
2.78324
2.78636
2.7838
2.77611
2.76665
2.75634
2.73916
2.71453
2.69149
2.68355
2.68194
2.68247
2.6947
2.71058
2.71174
2.70599
2.69303
2.66097
2.61271
2.58066
2.56865
2.56421
2.56162
2.56404
2.58116
2.59929
2.60113
2.59754
2.59247
2.58072
2.55153
2.51332
2.4915
2.48058
2.47425
2.47091
2.46991
2.47247
2.47829
2.48571
2.4927
2.49378
2.48856
2.47902
2.46561
2.44918
2.42608
2.39899
2.38306
2.37867
2.37684
2.37677
2.37781
2.37777
2.37772
2.37622
2.37435
2.37075
2.36414
2.35187
2.33458
2.32138
2.31347
2.30806
2.3012
2.29225
2.28801
2.28636
2.28467
2.28189
2.27822
2.27285
2.26275
2.24647
2.23294
2.22578
2.22257
2.22
2.21791
2.21682
2.21706
2.2167
2.21414
2.21055
2.2032
2.18447
2.16374
2.15403
2.15048
2.14787
2.14634
2.14667
2.15069
2.15142
2.14959
2.14754
2.14515
2.14223
2.13858
2.13236
2.12214
2.11091
2.09929
2.09001
2.08352
2.07873
2.07555
2.07392
2.07246
2.07149
2.0732
2.07946
2.08216
2.08101
2.07918
2.0764
2.07089
2.05845
2.03766
2.01776
2.00919
2.00694
2.00576
2.00494
2.00542
2.00908
2.01786
2.02188
2.02066
4.33337
4.34755
4.38999
4.4041
4.3887
4.36057
4.31358
4.25975
4.22965
4.21744
4.21007
4.20377
4.19283
4.18044
4.16803
4.15717
4.14816
4.1376
4.12307
4.09949
4.06423
4.02424
3.99596
3.98323
3.97741
3.98116
3.99092
3.98658
3.97454
3.95413
3.92186
3.88313
3.85947
3.85225
3.85294
3.86157
3.85671
3.84366
3.82096
3.78481
3.74397
3.71587
3.70556
3.70021
3.70023
3.70338
3.69964
3.69158
3.68278
3.67228
3.65839
3.63582
3.6066
3.57664
3.5531
3.54329
3.53755
3.53367
3.52713
3.51826
3.50874
3.493
3.46923
3.44343
3.42443
3.41789
3.41221
3.40571
3.39822
3.38993
3.38082
3.37056
3.35971
3.34508
3.32224
3.2985
3.28684
3.28239
3.28088
3.28058
3.27517
3.26702
3.25485
3.23177
3.19677
3.16134
3.13828
3.12777
3.12281
3.12064
3.13021
3.14638
3.14529
3.13766
3.12605
3.10011
3.06315
3.03323
3.0201
3.01566
3.01298
3.00928
3.00301
2.99645
2.99177
2.98347
2.96808
2.95065
2.94156
2.93686
2.93075
2.92285
2.91253
2.89937
2.88569
2.87402
2.86379
2.85278
2.83776
2.8175
2.8011
2.79549
2.79289
2.79388
2.80298
2.80649
2.80166
2.79465
2.78332
2.75991
2.72346
2.69551
2.6844
2.68088
2.68017
2.69179
2.71662
2.72775
2.72446
2.71725
2.70054
2.66358
2.61253
2.5826
2.57303
2.56789
2.56496
2.56917
2.59176
2.60393
2.60358
2.60118
2.59553
2.58215
2.55765
2.53602
2.52293
2.51004
2.49616
2.48492
2.477
2.47142
2.46897
2.46648
2.46402
2.46519
2.4718
2.47562
2.47501
2.47163
2.46504
2.44999
2.42223
2.39436
2.38126
2.37385
2.36841
2.36481
2.36507
2.37316
2.37672
2.37559
2.37269
2.36781
2.35489
2.33207
2.31343
2.30276
2.29567
2.29229
2.29126
2.29298
2.29369
2.29076
2.28717
2.28201
2.2704
2.24794
2.23103
2.22709
2.22495
2.22292
2.22186
2.2228
2.22295
2.22054
2.21709
2.21232
2.2024
2.18087
2.16175
2.1575
2.15499
2.15221
2.15046
2.15083
2.15242
2.15095
2.14871
2.14621
2.14334
2.13865
2.13191
2.12701
2.12381
2.11822
2.1079
2.09345
2.08256
2.076
2.07248
2.07086
2.06959
2.0686
2.07108
2.07911
2.08425
2.08442
2.0826
2.0796
2.07301
2.05538
2.02674
2.01145
2.00698
2.0044
2.00294
2.00232
2.00349
2.01083
2.01932
2.02119
2.02009
4.3818
4.42289
4.43557
4.42006
4.39318
4.34788
4.29529
4.26601
4.25397
4.2462
4.23752
4.22556
4.21267
4.20029
4.18966
4.1806
4.16989
4.15641
4.13207
4.09573
4.05485
4.02719
4.01569
4.0115
4.01753
4.02378
4.0157
4.00142
3.97689
3.94251
3.91148
3.89438
3.88746
3.88754
3.89337
3.88693
3.87358
3.8498
3.80973
3.76799
3.74362
3.73415
3.72856
3.72725
3.72791
3.72301
3.71465
3.7059
3.69604
3.68415
3.66137
3.62853
3.59777
3.57804
3.56929
3.56358
3.55919
3.5517
3.54195
3.53085
3.51275
3.48794
3.46323
3.4474
3.44196
3.43698
3.4298
3.42092
3.41025
3.39949
3.38991
3.38012
3.36525
3.34175
3.31655
3.30106
3.29602
3.29369
3.29678
3.29439
3.28699
3.27822
3.26229
3.22775
3.17901
3.14886
3.13855
3.13473
3.13355
3.14229
3.16063
3.16219
3.1557
3.14719
3.12503
3.08866
3.05708
3.04142
3.03394
3.02844
3.02428
3.01904
3.01336
3.00675
2.99401
2.97711
2.96207
2.95551
2.95197
2.94758
2.9416
2.93318
2.9224
2.91029
2.89862
2.88655
2.87184
2.85173
2.82944
2.81264
2.8063
2.80319
2.80232
2.81054
2.82211
2.82079
2.81525
2.80825
2.7927
2.75857
2.71707
2.69436
2.68755
2.68382
2.68428
2.70476
2.7299
2.73059
2.72649
2.71856
2.69984
2.66454
2.63268
2.61138
2.59622
2.58693
2.5822
2.58322
2.58894
2.58996
2.58737
2.58357
2.57818
2.56778
2.55366
2.54814
2.54412
2.5385
2.52948
2.51379
2.4927
2.4752
2.46111
2.45093
2.44373
2.44145
2.44878
2.47273
2.48487
2.48769
2.48705
2.48307
2.4706
2.43682
2.39247
2.3694
2.36154
2.35828
2.35657
2.36331
2.3818
2.38332
2.38031
2.37628
2.36835
2.34563
2.31455
2.29954
2.2957
2.29385
2.29423
2.30122
2.30282
2.29922
2.29487
2.28864
2.27403
2.24881
2.23396
2.22934
2.2264
2.22449
2.22498
2.22746
2.22565
2.22307
2.22088
2.21529
2.20051
2.17999
2.16719
2.16175
2.15886
2.15755
2.15805
2.15689
2.15374
2.15082
2.14878
2.14661
2.14142
2.13372
2.12722
2.12393
2.1219
2.11944
2.11371
2.09929
2.08331
2.07538
2.0714
2.06908
2.06795
2.06752
2.07011
2.07975
2.08729
2.08641
2.08345
2.07954
2.0713
2.05051
2.0237
2.01028
2.00625
2.00396
2.00231
2.00185
2.00599
2.01732
2.01911
2.01721
2.01518
4.45508
4.46692
4.45141
4.42479
4.38135
4.33146
4.30361
4.29214
4.28393
4.27417
4.26197
4.24914
4.23708
4.22656
4.21598
4.20358
4.18602
4.15754
4.12182
4.08595
4.06382
4.05407
4.05199
4.05806
4.05623
4.04474
4.02811
4.00235
3.96992
3.93758
3.91911
3.91304
3.91509
3.92129
3.91386
3.90136
3.87811
3.84046
3.7979
3.77052
3.76063
3.75485
3.75329
3.75284
3.74645
3.73733
3.72777
3.71734
3.70502
3.68242
3.65195
3.62093
3.5998
3.59151
3.58656
3.58337
3.57614
3.5664
3.55429
3.53467
3.50897
3.48386
3.4679
3.4619
3.45623
3.44891
3.4409
3.43175
3.42094
3.40983
3.39777
3.38234
3.36087
3.33597
3.31803
3.31177
3.3076
3.30758
3.30705
3.29946
3.29158
3.28133
3.25843
3.2176
3.17807
3.15875
3.15082
3.14605
3.14813
3.16558
3.17317
3.16843
3.1601
3.14232
3.10958
3.07759
3.06386
3.05874
3.05387
3.04792
3.04037
3.0311
3.0198
3.00502
2.98756
2.97164
2.96446
2.96015
2.95517
2.95002
2.94592
2.94021
2.93078
2.92059
2.91112
2.8994
2.88035
2.85246
2.8258
2.81527
2.81188
2.80921
2.8103
2.82207
2.83213
2.82974
2.82307
2.81383
2.79482
2.75803
2.72161
2.7059
2.69978
2.69639
2.69928
2.71025
2.71381
2.71124
2.70517
2.69506
2.67723
2.65646
2.64554
2.638
2.62943
2.62485
2.61933
2.60879
2.59792
2.58931
2.58265
2.57221
2.55834
2.55273
2.55303
2.55578
2.558
2.55687
2.55287
2.54434
2.52376
2.48855
2.45586
2.43827
2.43163
2.42854
2.42879
2.4478
2.48764
2.50393
2.50493
2.50146
2.49472
2.47462
2.42241
2.37527
2.36142
2.3567
2.35398
2.35284
2.36275
2.38517
2.38841
2.38351
2.37482
2.35511
2.3218
2.30361
2.29945
2.29725
2.2956
2.29635
2.30302
2.30374
2.29959
2.29234
2.27785
2.25736
2.24509
2.23842
2.23344
2.23026
2.22876
2.22887
2.22732
2.22477
2.22044
2.21078
2.19329
2.18131
2.17676
2.17228
2.16825
2.16564
2.16305
2.16017
2.15751
2.1549
2.15054
2.14374
2.13535
2.12804
2.12436
2.12242
2.12146
2.12034
2.11651
2.10519
2.08701
2.07601
2.07171
2.0689
2.06734
2.06715
2.07245
2.07889
2.07952
2.07854
2.07666
2.07348
2.0655
2.04606
2.02337
2.01157
2.00725
2.00527
2.00393
2.00473
2.01154
2.01491
2.01387
2.01189
2.00955
4.49898
4.48444
4.45913
4.41692
4.36725
4.33938
4.32781
4.31944
4.30929
4.29664
4.28392
4.27305
4.26321
4.25216
4.23871
4.21684
4.18296
4.14536
4.11319
4.09546
4.08833
4.09016
4.09607
4.08925
4.07579
4.05362
4.02126
3.98961
3.96534
3.95234
3.94616
3.94762
3.94906
3.93997
3.92643
3.90067
3.86231
3.8247
3.80181
3.7925
3.78677
3.78423
3.77947
3.7705
3.7602
3.74972
3.73905
3.72621
3.70332
3.66949
3.63852
3.62103
3.61346
3.60866
3.60632
3.59998
3.59052
3.57887
3.5598
3.53273
3.50626
3.49136
3.48487
3.47745
3.46843
3.45779
3.44565
3.43518
3.42678
3.41828
3.40696
3.38679
3.35839
3.33545
3.32743
3.32197
3.31927
3.3174
3.31259
3.30649
3.29642
3.27621
3.24158
3.20695
3.19024
3.18292
3.17726
3.17713
3.18599
3.18611
3.17843
3.16831
3.15035
3.12273
3.0953
3.08083
3.07652
3.07445
3.07111
3.06479
3.05625
3.04402
3.02576
3.00481
2.98613
2.97556
2.96986
2.96466
2.95989
2.95373
2.94605
2.93779
2.9317
2.9261
2.91903
2.90867
2.8889
2.85868
2.8377
2.82909
2.82337
2.81994
2.82116
2.82647
2.82614
2.82288
2.81734
2.80684
2.78615
2.7617
2.74727
2.73646
2.72802
2.72615
2.72622
2.72045
2.71306
2.70483
2.68984
2.66515
2.64987
2.64683
2.6484
2.65343
2.6594
2.66142
2.65563
2.64238
2.62157
2.59785
2.57349
2.55416
2.54498
2.5425
2.54503
2.55842
2.57038
2.5713
2.56773
2.56181
2.54754
2.50863
2.45947
2.43524
2.42796
2.42488
2.42339
2.43159
2.46932
2.50969
2.51464
2.51008
2.50379
2.4923
2.46141
2.40649
2.36915
2.35924
2.35552
2.35319
2.35274
2.3606
2.37358
2.37582
2.37121
2.36079
2.34265
2.3211
2.30721
2.30251
2.30015
2.30049
2.30012
2.29802
2.29394
2.2859
2.2747
2.26434
2.25748
2.25221
2.24731
2.24253
2.23777
2.23293
2.22774
2.22196
2.21402
2.20324
2.19022
2.18465
2.18227
2.18076
2.17953
2.17662
2.17161
2.16497
2.15737
2.15033
2.14294
2.13578
2.13067
2.12752
2.1247
2.12188
2.11924
2.11655
2.11349
2.10751
2.09445
2.08115
2.07515
2.07214
2.06991
2.06933
2.073
2.07638
2.0748
2.07274
2.07017
2.06535
2.05499
2.04008
2.02806
2.01992
2.01329
2.0097
2.00879
2.01141
2.01376
2.01221
2.01005
2.00773
2.00343
4.51619
4.49366
4.45507
4.40628
4.37656
4.36405
4.35396
4.34318
4.33123
4.31974
4.30862
4.29709
4.28525
4.27046
4.24531
4.21161
4.17339
4.14276
4.12902
4.12377
4.12939
4.13215
4.12185
4.10517
4.07766
4.0443
4.01265
3.98896
3.97784
3.97375
3.97748
3.97572
3.96578
3.94995
3.92173
3.88339
3.84833
3.82598
3.81771
3.81356
3.81235
3.80675
3.79704
3.78564
3.77299
3.75979
3.74541
3.72318
3.69181
3.66063
3.6391
3.63081
3.62595
3.62476
3.61958
3.61084
3.60154
3.58445
3.55809
3.53119
3.51634
3.50867
3.49964
3.48947
3.47829
3.46526
3.45154
3.44004
3.43044
3.42016
3.4053
3.38462
3.36038
3.34865
3.34284
3.33862
3.33202
3.32253
3.31285
3.30461
3.28913
3.25763
3.22482
3.20846
3.20361
3.20259
3.21034
3.21779
3.21342
3.20282
3.18732
3.16138
3.12732
3.10375
3.09364
3.09112
3.09192
3.09216
3.08687
3.07904
3.0678
3.05043
3.0268
3.00455
2.9936
2.98675
2.97925
2.97157
2.96342
2.95375
2.9433
2.93619
2.93234
2.93034
2.92566
2.91438
2.89433
2.87383
2.86136
2.8534
2.84788
2.84289
2.83665
2.82874
2.8194
2.81361
2.80555
2.79005
2.76987
2.76323
2.76158
2.76297
2.76393
2.75997
2.75128
2.73853
2.72154
2.69599
2.66325
2.64118
2.63604
2.63602
2.64465
2.66575
2.68485
2.68788
2.68377
2.67451
2.65109
2.60526
2.56153
2.54459
2.53959
2.53671
2.53754
2.5593
2.58023
2.57982
2.5758
2.5705
2.56027
2.52985
2.47377
2.43934
2.43067
2.4275
2.4263
2.43103
2.44605
2.47093
2.49767
2.50883
2.50644
2.49718
2.48018
2.45459
2.41626
2.37743
2.36088
2.35616
2.35398
2.35342
2.35539
2.35897
2.35976
2.35654
2.35304
2.34669
2.33342
2.31532
2.30387
2.29818
2.29561
2.29264
2.28798
2.2795
2.27154
2.26874
2.26644
2.2632
2.25877
2.25309
2.24622
2.2395
2.23206
2.21966
2.20398
2.19582
2.19334
2.19132
2.18974
2.1889
2.18698
2.18392
2.1796
2.17267
2.16171
2.14755
2.13727
2.13195
2.12964
2.12853
2.12723
2.12449
2.12114
2.11675
2.11121
2.1057
2.09902
2.0906
2.08255
2.07807
2.07667
2.076
2.07439
2.07247
2.07003
2.06716
2.06244
2.05318
2.04141
2.03446
2.03197
2.0284
2.02401
2.02263
2.02171
2.01822
2.01383
2.01077
2.0082
2.00379
1.99428
4.52752
4.49212
4.44445
4.41254
4.39945
4.38873
4.37922
4.36866
4.35799
4.34759
4.33563
4.32107
4.2992
4.26583
4.22682
4.19549
4.17472
4.16367
4.16045
4.1679
4.16706
4.15498
4.13353
4.09843
4.06117
4.03436
4.01802
4.00923
4.00688
4.0096
4.00352
3.99193
3.97124
3.9398
3.90185
3.87054
3.85113
3.84309
3.83897
3.83697
3.8303
3.82057
3.80987
3.79799
3.78465
3.76919
3.74475
3.71177
3.68039
3.65994
3.65171
3.64646
3.64455
3.63906
3.63018
3.6206
3.6036
3.57962
3.55501
3.54226
3.53542
3.52616
3.51453
3.50047
3.48406
3.46832
3.45543
3.44428
3.43356
3.41953
3.39919
3.38008
3.37178
3.36626
3.36308
3.3579
3.34947
3.33892
3.32369
3.299
3.26988
3.24239
3.22582
3.22164
3.22177
3.23426
3.24805
3.24489
3.23462
3.21554
3.18241
3.14401
3.11904
3.10633
3.10148
3.09938
3.1034
3.10229
3.09672
3.08994
3.07588
3.0514
3.02841
3.01797
3.01111
3.00236
2.99143
2.97834
2.96465
2.95384
2.94651
2.94003
2.93312
2.92682
2.91909
2.90563
2.88904
2.88296
2.87921
2.87736
2.87424
2.86659
2.85417
2.83871
2.82358
2.80587
2.78573
2.77019
2.76553
2.7647
2.76888
2.7843
2.79209
2.78834
2.77979
2.76206
2.72551
2.67447
2.64158
2.6325
2.62948
2.62956
2.64527
2.67909
2.70111
2.70275
2.69882
2.69118
2.66891
2.61539
2.56325
2.54519
2.53968
2.53661
2.5364
2.54777
2.57335
2.58361
2.57998
2.5741
2.56505
2.54589
2.5134
2.47588
2.44965
2.44
2.4374
2.43821
2.44404
2.45085
2.4599
2.47472
2.48759
2.48725
2.482
2.47354
2.45934
2.43229
2.39162
2.36554
2.35481
2.34789
2.34228
2.33961
2.34392
2.3569
2.36029
2.35814
2.35343
2.3426
2.32261
2.30395
2.29146
2.28249
2.2764
2.27432
2.27451
2.27601
2.27591
2.27347
2.2704
2.26579
2.25705
2.24255
2.22562
2.21069
2.20045
2.19592
2.19354
2.19226
2.19436
2.19601
2.19395
2.19092
2.18651
2.17781
2.16083
2.14277
2.13534
2.13311
2.13088
2.12797
2.12428
2.12073
2.11723
2.11243
2.10638
2.1015
2.09949
2.09773
2.0949
2.08987
2.08304
2.07629
2.07107
2.06845
2.06563
2.06063
2.05061
2.03869
2.03361
2.03181
2.03174
2.03349
2.0356
2.03618
2.03278
2.02649
2.01884
2.01176
2.00474
1.99492
1.98119
4.52905
4.48272
4.44386
4.42925
4.41816
4.40957
4.40381
4.39614
4.38524
4.37209
4.35659
4.32951
4.29131
4.25114
4.21898
4.19757
4.18845
4.18993
4.20198
4.19905
4.1859
4.16032
4.12226
4.08362
4.05627
4.04163
4.03503
4.03674
4.03941
4.031
4.01734
3.99282
3.95813
3.92103
3.89232
3.8738
3.86606
3.86193
3.85867
3.8508
3.84095
3.83046
3.81901
3.80668
3.79267
3.76963
3.73585
3.70242
3.67982
3.67101
3.66569
3.66378
3.6584
3.64942
3.63938
3.62254
3.59805
3.57462
3.56338
3.55766
3.54985
3.53977
3.52684
3.50934
3.48895
3.47242
3.46098
3.4506
3.4356
3.41504
3.39496
3.38446
3.37958
3.37873
3.37896
3.37255
3.36425
3.35176
3.32473
3.28167
3.25096
3.23821
3.23483
3.23559
3.24848
3.26617
3.26499
3.25641
3.24377
3.21766
3.17369
3.13654
3.12196
3.11718
3.11498
3.11547
3.11116
3.1045
3.09802
3.08898
3.07194
3.04948
3.03865
3.03342
3.02666
3.01696
3.00304
2.98576
2.97082
2.96101
2.95313
2.94595
2.93976
2.93153
2.91779
2.90133
2.89459
2.89219
2.89323
2.89727
2.89457
2.88789
2.87734
2.85702
2.82454
2.79078
2.7725
2.76538
2.76264
2.76492
2.78363
2.8077
2.81129
2.80637
2.79664
2.77105
2.71931
2.6648
2.64027
2.63239
2.62907
2.62911
2.64755
2.68999
2.71087
2.71055
2.70511
2.69558
2.67369
2.63173
2.58597
2.55999
2.54861
2.54402
2.5427
2.54647
2.55375
2.56165
2.56385
2.56135
2.55567
2.54736
2.53474
2.51867
2.49638
2.4705
2.45529
2.44935
2.44673
2.44443
2.442
2.44263
2.45399
2.47505
2.48088
2.47893
2.47512
2.46765
2.4442
2.39432
2.35378
2.33822
2.33328
2.33054
2.33073
2.34765
2.36658
2.36836
2.36551
2.36041
2.34692
2.3157
2.28511
2.274
2.27052
2.26856
2.27129
2.28219
2.28623
2.28496
2.28243
2.27823
2.26881
2.2467
2.21886
2.20492
2.20083
2.19883
2.19729
2.19719
2.20033
2.20218
2.20001
2.19685
2.19255
2.1823
2.16094
2.14249
2.13749
2.13499
2.13188
2.12798
2.1242
2.1203
2.1158
2.11019
2.10431
2.10209
2.10109
2.10173
2.1012
2.09805
2.09193
2.08184
2.07185
2.06489
2.05792
2.04763
2.0363
2.03228
2.03133
2.03089
2.03168
2.03796
2.04406
2.04354
2.04054
2.03561
2.02698
2.01317
1.99645
1.98157
1.97211
4.52328
4.48119
4.46072
4.44837
4.43843
4.43449
4.43127
4.42106
4.40794
4.38878
4.3549
4.31349
4.27244
4.24417
4.2294
4.22146
4.22527
4.23684
4.23065
4.21449
4.18317
4.13925
4.10228
4.08041
4.06943
4.06413
4.06738
4.06682
4.05717
4.04096
4.01314
3.9772
3.944
3.91668
3.89856
3.89041
3.88517
3.87939
3.87048
3.86003
3.84887
3.83808
3.82711
3.81392
3.79338
3.7626
3.72829
3.70287
3.69331
3.68754
3.6849
3.67888
3.66961
3.65934
3.64269
3.61788
3.59387
3.58178
3.57614
3.56978
3.5609
3.55002
3.5351
3.51537
3.4964
3.48151
3.46762
3.45122
3.43196
3.41179
3.40077
3.39567
3.39363
3.3954
3.39186
3.38389
3.37448
3.35588
3.31912
3.27828
3.25517
3.24835
3.24468
3.25084
3.27239
3.27821
3.27232
3.26158
3.24234
3.20864
3.17147
3.14927
3.13848
3.13204
3.12942
3.12717
3.1214
3.11496
3.10428
3.08703
3.06747
3.0569
3.05151
3.04441
3.03668
3.02568
3.01109
2.99791
2.98802
2.97892
2.96892
2.95731
2.94241
2.92485
2.9097
2.9031
2.9005
2.90107
2.90797
2.91103
2.90697
2.90085
2.89146
2.86832
2.82627
2.78854
2.77292
2.76835
2.76511
2.76861
2.79738
2.82081
2.8191
2.81172
2.79934
2.7704
2.7165
2.6732
2.654
2.6435
2.63823
2.63914
2.65736
2.67728
2.68518
2.68867
2.68842
2.6815
2.66468
2.6394
2.61864
2.60176
2.58306
2.56545
2.55644
2.55269
2.55033
2.55087
2.54813
2.54499
2.54475
2.54404
2.54331
2.54067
2.5345
2.51964
2.49152
2.46215
2.44555
2.43632
2.42896
2.42431
2.42466
2.44365
2.4805