/*--------------------------------*- C++ -*----------------------------------*\
  =========                 |
  \\      /  F ield         | OpenFOAM: The Open Source CFD Toolbox
   \\    /   O peration     | Website:  https://openfoam.org
    \\  /    A nd           | Version:  7
     \\/     M anipulation  |
\*---------------------------------------------------------------------------*/
FoamFile
{
    version     2.0;
    format      ascii;
    class       volScalarField;
    location    "3";
    object      p;
}
// * * * * * * * * * * * * * * * * * * * * * * * * * * * * * * * * * * * * * //

dimensions      [1 -1 -2 0 0 0 0];

internalField   nonuniform List<scalar> 
16192
(
2.03954
2.03395
2.02981
2.02735
2.02688
2.02876
2.02735
2.02127
2.00984
1.99294
1.98207
1.97888
1.9778
1.97803
1.98172
1.98512
1.9837
1.97988
1.9731
1.95996
1.94514
1.93896
1.93639
1.93601
1.93964
1.94406
1.94324
1.94053
1.93637
1.92457
1.89725
1.86842
1.86101
1.85974
1.86108
1.8716
1.89543
1.91562
1.92124
1.92098
1.91625
1.89559
1.85478
1.82476
1.81707
1.81476
1.81484
1.81871
1.83626
1.86934
1.88174
1.88028
1.87638
1.86913
1.85392
1.83154
1.81433
1.80643
1.80248
1.80114
1.80023
1.7997
1.798
1.79502
1.78947
1.77736
1.76572
1.76203
1.75997
1.75847
1.75869
1.75845
1.75734
1.75616
1.75408
1.74718
1.72737
1.70958
1.70602
1.70489
1.70375
1.70307
1.70539
1.70864
1.70645
1.70229
1.69823
1.69155
1.68021
1.66941
1.66529
1.66538
1.66793
1.67878
1.6972
1.70548
1.70718
1.70735
1.70332
1.68622
1.66706
1.66333
1.66337
1.66217
1.66095
1.66068
1.66455
1.67348
1.67412
1.67195
1.66892
1.66323
1.6516
1.63235
1.61825
1.61408
1.61312
1.61408
1.61585
1.61385
1.61077
1.60666
1.59672
1.57841
1.56382
1.55922
1.55831
1.55804
1.56237
1.5825
1.60692
1.61118
1.60911
1.60548
1.59948
1.58555
1.55443
1.52344
1.51276
1.50917
1.50704
1.50604
1.50731
1.51956
1.54674
1.56042
1.56048
1.55881
1.55674
1.55331
1.54481
1.52464
1.49357
1.46954
1.45915
1.45441
1.45229
1.45116
1.45056
1.45126
1.45877
1.47963
1.50047
1.50625
1.50761
1.50784
1.50618
1.49751
1.47131
1.44195
1.43354
1.43223
1.43097
1.42957
1.42868
1.43143
1.44608
1.46682
1.47296
1.4735
1.47235
1.46947
1.46263
1.44666
1.42531
1.41198
1.40465
1.39746
1.38703
1.37673
1.37357
1.37354
1.37605
1.38028
1.38277
1.38582
1.39191
1.40168
1.40551
1.40282
1.39579
1.39067
1.38913
1.38665
1.3796
1.35995
1.33275
1.32161
1.31894
1.31744
1.31705
1.3185
1.32401
1.33764
1.3504
1.35114
1.34804
1.34202
1.33243
1.31918
1.30514
1.29653
1.29416
1.29371
1.29582
1.30232
1.30763
1.31081
1.31222
1.31117
1.30622
1.2978
1.29344
1.29362
1.29481
1.29604
1.29713
1.29852
1.29955
1.30024
1.30228
1.30446
1.30399
1.30078
1.2992
1.29938
1.29915
1.29809
1.29624
1.2934
1.29147
1.29833
1.40316
2.03467
2.02957
2.02472
2.02051
2.01778
2.01656
2.01724
2.01599
2.01112
2.00042
1.98361
1.97238
1.96941
1.96799
1.96723
1.96887
1.97237
1.97189
1.96798
1.96115
1.94973
1.93877
1.93275
1.92903
1.92843
1.92954
1.9302
1.92868
1.92584
1.9214
1.91011
1.88869
1.86748
1.86132
1.86062
1.86533
1.87913
1.8913
1.89524
1.89501
1.89154
1.88018
1.85519
1.82868
1.81448
1.8106
1.81037
1.81558
1.83371
1.85821
1.86616
1.86555
1.86352
1.86011
1.85325
1.83855
1.82075
1.80766
1.7994
1.79414
1.79267
1.79129
1.78954
1.78701
1.7831
1.77574
1.76527
1.75893
1.75645
1.7549
1.75608
1.75911
1.75802
1.75637
1.75433
1.74956
1.73585
1.71085
1.69739
1.6949
1.69358
1.6921
1.69175
1.69581
1.69951
1.69707
1.69308
1.6887
1.68073
1.66944
1.6624
1.66007
1.66051
1.66506
1.67871
1.69373
1.69893
1.69981
1.69815
1.69066
1.66774
1.64915
1.6466
1.64645
1.64574
1.64553
1.64735
1.65758
1.67
1.67058
1.66851
1.66496
1.659
1.64581
1.62383
1.60953
1.60569
1.60473
1.60581
1.60536
1.60287
1.59973
1.59372
1.58063
1.56524
1.5585
1.55672
1.55628
1.55915
1.57014
1.58882
1.60097
1.60262
1.60034
1.5956
1.58208
1.54966
1.52064
1.51148
1.50755
1.50472
1.50326
1.5049
1.51857
1.53847
1.54918
1.55154
1.55093
1.54908
1.54679
1.54117
1.5235
1.49394
1.47057
1.45846
1.45181
1.4472
1.44473
1.44379
1.44339
1.4454
1.458
1.48381
1.50119
1.50463
1.50574
1.50568
1.50237
1.48672
1.45231
1.43034
1.42601
1.42413
1.42197
1.42024
1.41981
1.4263
1.45103
1.47422
1.47731
1.47617
1.47354
1.46902
1.45903
1.43856
1.41335
1.39413
1.37916
1.36811
1.364
1.36307
1.36301
1.36603
1.37515
1.38712
1.40079
1.41375
1.41723
1.4149
1.40861
1.39844
1.38824
1.37988
1.36988
1.35093
1.32823
1.32141
1.3205
1.31936
1.31729
1.31702
1.32286
1.33869
1.35434
1.35619
1.35418
1.34984
1.34109
1.3245
1.30244
1.28842
1.28507
1.2843
1.28399
1.28664
1.29866
1.312
1.31696
1.31737
1.31591
1.31225
1.30422
1.29199
1.28489
1.28361
1.28337
1.28368
1.28454
1.28627
1.28913
1.29343
1.29825
1.30014
1.30028
1.30145
1.30197
1.30107
1.29848
1.29462
1.29039
1.28573
1.28121
1.29154
2.02984
2.02513
2.02052
2.01606
2.01203
2.00892
2.00681
2.00567
2.00413
2.00014
1.98984
1.97241
1.96078
1.95816
1.95632
1.95476
1.95499
1.95889
1.96026
1.95741
1.95325
1.94594
1.93589
1.92632
1.91973
1.91807
1.91683
1.91573
1.91406
1.91163
1.90804
1.90021
1.88713
1.87277
1.86589
1.86479
1.86632
1.86886
1.86893
1.8676
1.86321
1.85508
1.84399
1.83268
1.82306
1.81603
1.81497
1.82038
1.83661
1.85146
1.85391
1.85347
1.8518
1.84863
1.84394
1.83711
1.82641
1.81483
1.80187
1.79052
1.7859
1.78436
1.78179
1.77912
1.77633
1.77301
1.76671
1.75925
1.75515
1.75308
1.75164
1.75076
1.74984
1.74863
1.74735
1.74518
1.73818
1.71921
1.69583
1.68706
1.68511
1.68337
1.68156
1.68209
1.68771
1.69028
1.68744
1.68445
1.681
1.67432
1.66465
1.65882
1.65749
1.65873
1.66418
1.67611
1.68642
1.68896
1.6891
1.68507
1.67164
1.64357
1.63096
1.63064
1.63085
1.63089
1.63216
1.64024
1.6595
1.67043
1.66959
1.66658
1.66161
1.65341
1.63716
1.6135
1.6006
1.59748
1.5965
1.59527
1.59348
1.59156
1.58903
1.58362
1.57471
1.5645
1.55959
1.55832
1.5595
1.56553
1.57544
1.58464
1.58722
1.58562
1.58167
1.57237
1.55042
1.5248
1.51253
1.50802
1.5055
1.50457
1.50822
1.5222
1.53655
1.54249
1.54419
1.5431
1.54026
1.53657
1.53006
1.51486
1.49138
1.47348
1.46298
1.45341
1.44468
1.43984
1.43796
1.43725
1.4383
1.44744
1.46921
1.49358
1.50378
1.50489
1.50448
1.50198
1.49235
1.46568
1.43166
1.41933
1.41626
1.41417
1.41279
1.41217
1.41545
1.43318
1.46524
1.47709
1.47635
1.47482
1.47202
1.46578
1.44957
1.41813
1.38376
1.36412
1.35736
1.35524
1.35428
1.35402
1.35742
1.3707
1.39553
1.4186
1.42402
1.42237
1.41922
1.41445
1.40491
1.38859
1.36731
1.34151
1.32073
1.31526
1.31458
1.31419
1.31475
1.31795
1.32447
1.33996
1.3591
1.36307
1.36096
1.35676
1.35003
1.33607
1.31073
1.28703
1.2798
1.27822
1.27734
1.27701
1.27993
1.29455
1.31341
1.31921
1.31973
1.31896
1.31624
1.30831
1.29083
1.27601
1.27311
1.27273
1.2728
1.27342
1.27524
1.27944
1.28563
1.29128
1.29552
1.29947
1.30238
1.30276
1.30202
1.29935
1.29489
1.28936
1.28318
1.2761
1.26865
2.0242
2.0212
2.0172
2.01258
2.00824
2.00456
2.0007
1.99638
1.99398
1.99217
1.98815
1.97666
1.95843
1.94787
1.94553
1.94341
1.94137
1.94109
1.94642
1.9523
1.95258
1.94956
1.94318
1.93097
1.91536
1.90763
1.90567
1.90363
1.90188
1.90081
1.89937
1.89754
1.8953
1.88942
1.87868
1.86596
1.85639
1.85152
1.84781
1.8429
1.83531
1.82849
1.82748
1.82805
1.82746
1.82616
1.82733
1.83497
1.84207
1.84129
1.84045
1.83998
1.83872
1.83627
1.83283
1.8291
1.82544
1.81884
1.80867
1.79336
1.78193
1.77828
1.77549
1.77158
1.76887
1.76686
1.76534
1.76193
1.75695
1.75214
1.74882
1.74667
1.74484
1.74291
1.74078
1.73819
1.73374
1.72277
1.70268
1.68549
1.67938
1.6773
1.67556
1.67404
1.67516
1.68078
1.68199
1.67923
1.67792
1.67655
1.67285
1.6653
1.65728
1.65448
1.65478
1.65883
1.66839
1.67444
1.67545
1.67485
1.66736
1.64805
1.62323
1.61715
1.61758
1.61839
1.62012
1.62608
1.64209
1.65891
1.66163
1.66062
1.65892
1.65508
1.64557
1.62706
1.60362
1.59136
1.58843
1.58614
1.58349
1.58208
1.58161
1.58124
1.57877
1.57491
1.57028
1.56697
1.56555
1.56527
1.56596
1.5676
1.56781
1.56555
1.5617
1.55578
1.54569
1.53263
1.52364
1.51835
1.51513
1.51401
1.51828
1.5296
1.53459
1.53554
1.53636
1.5353
1.53203
1.52686
1.51787
1.50213
1.48422
1.47228
1.46444
1.45636
1.44601
1.4392
1.43629
1.43502
1.43554
1.44351
1.46194
1.48029
1.48983
1.4935
1.49443
1.49395
1.48952
1.47242
1.43767
1.41519
1.4108
1.40947
1.40858
1.40844
1.41159
1.42368
1.44855
1.47168
1.47664
1.47549
1.47277
1.46703
1.45244
1.41787
1.37536
1.35712
1.35265
1.35043
1.34948
1.34939
1.35324
1.3719
1.41049
1.42874
1.42857
1.426
1.42285
1.41748
1.40576
1.38088
1.34189
1.31579
1.31038
1.30949
1.30913
1.30895
1.31082
1.31734
1.33481
1.36044
1.37059
1.36957
1.3659
1.35998
1.34888
1.32493
1.29246
1.27726
1.27381
1.27236
1.27157
1.27149
1.27646
1.29303
1.31308
1.3214
1.32211
1.32106
1.31832
1.30941
1.28666
1.26789
1.26509
1.2647
1.26463
1.26504
1.26653
1.27122
1.27915
1.28643
1.29211
1.29835
1.30173
1.30223
1.3021
1.29911
1.29238
1.2854
1.27835
1.26806
1.25841
2.01668
2.01733
2.01513
2.01136
2.00698
2.00238
1.99721
1.99141
1.9853
1.98188
1.97937
1.97396
1.96017
1.94246
1.93451
1.93214
1.92985
1.92829
1.93137
1.94376
1.94942
1.94854
1.94546
1.93767
1.91972
1.90093
1.89495
1.89258
1.89014
1.88842
1.89041
1.89524
1.89686
1.89412
1.88716
1.87359
1.85385
1.83747
1.82633
1.81693
1.81146
1.80992
1.80974
1.81258
1.81996
1.83011
1.84286
1.84845
1.84507
1.83436
1.8274
1.82533
1.82411
1.82307
1.82185
1.82
1.81837
1.81655
1.81094
1.79925
1.78287
1.77229
1.76873
1.76607
1.76408
1.76271
1.76223
1.76181
1.75882
1.75425
1.7476
1.74164
1.7384
1.73551
1.73238
1.729
1.72536
1.72032
1.71005
1.69325
1.67838
1.67256
1.67058
1.66853
1.66681
1.6685
1.67624
1.67733
1.6753
1.67428
1.67331
1.6704
1.66275
1.65275
1.64783
1.64748
1.65034
1.65547
1.65751
1.65766
1.65574
1.64484
1.62574
1.60875
1.60651
1.60754
1.60993
1.61466
1.6263
1.64563
1.65476
1.65481
1.65349
1.65094
1.64608
1.63491
1.61481
1.59279
1.58203
1.57834
1.5758
1.57427
1.57342
1.57365
1.57627
1.57905
1.5794
1.57707
1.57223
1.5649
1.55803
1.55466
1.55101
1.54546
1.53958
1.53574
1.53356
1.53136
1.52885
1.52611
1.52424
1.52505
1.53267
1.53521
1.53209
1.52933
1.52843
1.52709
1.52387
1.51823
1.50696
1.48875
1.4737
1.46738
1.46368
1.4586
1.45146
1.44264
1.43704
1.43504
1.4351
1.44215
1.45942
1.47398
1.47987
1.48261
1.48377
1.48354
1.48106
1.46945
1.44271
1.41468
1.40664
1.40506
1.40431
1.40439
1.40737
1.41795
1.43938
1.45948
1.46594
1.46622
1.46513
1.46167
1.45021
1.41901
1.37527
1.35614
1.35207
1.35001
1.34868
1.34843
1.35383
1.37703
1.40682
1.4194
1.42147
1.42078
1.41881
1.41482
1.40069
1.36251
1.32213
1.30994
1.30708
1.30587
1.30532
1.30513
1.30814
1.32266
1.35334
1.37612
1.37822
1.37568
1.37161
1.36341
1.34326
1.30396
1.27572
1.2709
1.26938
1.26832
1.26776
1.26822
1.27449
1.29558
1.31847
1.32235
1.32134
1.31988
1.3171
1.30777
1.28251
1.26126
1.25813
1.25763
1.25734
1.25744
1.25874
1.26438
1.27415
1.28251
1.28994
1.29692
1.2993
1.29948
1.29784
1.29266
1.28491
1.27758
1.27044
1.26045
1.25294
2.00171
2.00783
2.01074
2.00903
2.00656
2.00271
1.99694
1.98901
1.98049
1.97324
1.96901
1.96522
1.95764
1.94224
1.92699
1.92121
1.91919
1.91773
1.91947
1.93242
1.94492
1.94602
1.94364
1.93876
1.92568
1.90125
1.88602
1.88216
1.87983
1.87798
1.88029
1.89158
1.89604
1.89438
1.8899
1.87956
1.85561
1.82373
1.80328
1.79653
1.79465
1.7936
1.79363
1.79912
1.81416
1.83723
1.85136
1.85175
1.84749
1.83358
1.81642
1.81016
1.80931
1.80906
1.80937
1.81069
1.8106
1.80923
1.80626
1.7994
1.78553
1.77012
1.76434
1.76253
1.7607
1.76016
1.76176
1.76042
1.75756
1.7537
1.74739
1.73902
1.73258
1.72843
1.72454
1.72025
1.71626
1.71338
1.70993
1.70109
1.68476
1.67102
1.66621
1.66433
1.66245
1.6616
1.66623
1.67654
1.67715
1.67519
1.67349
1.67082
1.66603
1.65757
1.64576
1.63836
1.63718
1.63703
1.63765
1.63762
1.63634
1.63287
1.6245
1.61365
1.60151
1.59885
1.6013
1.60615
1.61386
1.62773
1.64236
1.64609
1.64592
1.64475
1.6416
1.63546
1.62261
1.60033
1.57983
1.57275
1.57071
1.56931
1.56838
1.5697
1.57609
1.58179
1.58211
1.58017
1.57626
1.56765
1.55482
1.54339
1.53438
1.52646
1.522
1.52038
1.52121
1.52704
1.52922
1.52881
1.53099
1.53936
1.54257
1.539
1.53216
1.52552
1.52084
1.51818
1.51537
1.50999
1.49672
1.47553
1.46298
1.45934
1.45752
1.45577
1.45259
1.44922
1.44533
1.44281
1.4427
1.44892
1.46005
1.46627
1.46858
1.46953
1.46978
1.46891
1.4661
1.45905
1.44187
1.41882
1.40488
1.40192
1.40093
1.40107
1.40439
1.41535
1.43691
1.45396
1.45711
1.45697
1.4558
1.45262
1.44397
1.42022
1.38075
1.35886
1.35473
1.35305
1.35206
1.35296
1.36225
1.3835
1.40219
1.40871
1.41049
1.40997
1.40743
1.40147
1.38261
1.34477
1.31725
1.30913
1.30637
1.3048
1.3043
1.30424
1.3087
1.33223
1.36989
1.38237
1.38075
1.37664
1.37151
1.36181
1.33321
1.28757
1.26863
1.2665
1.2659
1.26578
1.26599
1.26727
1.2767
1.29812
1.31366
1.31523
1.31391
1.31215
1.30964
1.30154
1.27856
1.2567
1.2524
1.25163
1.2511
1.2509
1.25237
1.25949
1.2703
1.2805
1.2893
1.29436
1.29605
1.29609
1.29303
1.28307
1.27177
1.26527
1.26096
1.25454
1.24989
1.9857
1.9898
1.99833
2.00479
2.00404
2.00049
1.99536
1.98837
1.97858
1.96863
1.96098
1.95564
1.94952
1.93847
1.92275
1.91336
1.91077
1.90964
1.91116
1.92456
1.94195
1.94406
1.94148
1.93682
1.92579
1.9027
1.88148
1.87428
1.87169
1.87004
1.87131
1.88392
1.89462
1.893
1.88786
1.8774
1.85276
1.81331
1.78958
1.78315
1.78082
1.77978
1.78034
1.79
1.81644
1.84476
1.84929
1.84745
1.8424
1.83121
1.81075
1.79801
1.79474
1.79439
1.79559
1.79948
1.80158
1.80124
1.79963
1.79595
1.78698
1.77202
1.76227
1.76016
1.75902
1.75789
1.75754
1.75813
1.75625
1.75313
1.74824
1.73842
1.72777
1.72175
1.71748
1.71327
1.70899
1.70567
1.70374
1.7013
1.6927
1.67565
1.66445
1.66145
1.65966
1.6582
1.65807
1.66275
1.66892
1.66816
1.66652
1.6659
1.66473
1.66106
1.65126
1.63548
1.62469
1.62157
1.61976
1.61791
1.61608
1.6152
1.61493
1.61282
1.6086
1.60016
1.59627
1.59864
1.60469
1.61285
1.62438
1.6338
1.63571
1.63547
1.634
1.6304
1.62291
1.60665
1.58253
1.5703
1.56806
1.56675
1.56576
1.56737
1.57587
1.58276
1.58311
1.58154
1.57829
1.57112
1.55417
1.53152
1.51803
1.51324
1.51117
1.50975
1.5096
1.51338
1.52214
1.53173
1.54277
1.54804
1.5465
1.54229
1.53518
1.52536
1.51702
1.51104
1.50661
1.49975
1.48369
1.46201
1.45372
1.45168
1.45037
1.44965
1.45092
1.45148
1.45093
1.45094
1.45425
1.45978
1.45952
1.45779
1.45749
1.45691
1.45529
1.45283
1.44916
1.4436
1.43486
1.42239
1.40907
1.4012
1.39937
1.39952
1.40311
1.41563
1.43748
1.44748
1.44761
1.44662
1.44468
1.44089
1.43326
1.41693
1.39003
1.36868
1.36168
1.35968
1.35905
1.36136
1.37304
1.39122
1.39908
1.3998
1.39875
1.39645
1.39188
1.38168
1.35957
1.33191
1.31771
1.31289
1.31014
1.30857
1.30809
1.30909
1.31846
1.34477
1.37087
1.37712
1.37586
1.37254
1.36792
1.35622
1.32331
1.28231
1.26752
1.26477
1.26353
1.26311
1.26358
1.26895
1.28609
1.3064
1.31083
1.31003
1.30822
1.30603
1.30257
1.29389
1.2737
1.25372
1.24798
1.24681
1.24606
1.2457
1.24726
1.25575
1.27011
1.28112
1.28747
1.29118
1.29253
1.29191
1.28505
1.26898
1.25767
1.25406
1.25205
1.24848
1.24743
1.97539
1.97681
1.98084
1.98771
1.99328
1.9938
1.99113
1.98578
1.97766
1.96737
1.95688
1.94817
1.9407
1.93135
1.91906
1.90972
1.906
1.90496
1.90695
1.91717
1.92797
1.92991
1.92823
1.92512
1.91837
1.90108
1.88011
1.87111
1.86759
1.86555
1.86559
1.87313
1.88263
1.88263
1.87911
1.87098
1.84682
1.80595
1.78212
1.77585
1.773
1.7717
1.77283
1.78581
1.81844
1.83623
1.83813
1.8371
1.83442
1.82512
1.80801
1.79096
1.78367
1.78139
1.78193
1.78586
1.79067
1.79148
1.79108
1.78929
1.78478
1.77519
1.76341
1.75782
1.75607
1.75557
1.75599
1.75432
1.75189
1.74867
1.74397
1.73528
1.72259
1.71452
1.71058
1.70721
1.70361
1.7001
1.69778
1.69639
1.69433
1.68562
1.66861
1.65968
1.65743
1.65548
1.65402
1.65424
1.6598
1.66447
1.66324
1.66199
1.66072
1.65882
1.65398
1.63938
1.61813
1.60677
1.60244
1.60006
1.59914
1.59936
1.6023
1.60585
1.60618
1.60508
1.60029
1.59586
1.59692
1.60173
1.60794
1.61579
1.62239
1.624
1.62377
1.62209
1.61773
1.60769
1.58798
1.57063
1.56701
1.56577
1.56488
1.56732
1.57706
1.58078
1.57981
1.57797
1.57526
1.56875
1.55138
1.52426
1.5095
1.50542
1.50294
1.50115
1.50058
1.50438
1.51695
1.5397
1.54982
1.54895
1.54654
1.54314
1.53795
1.52856
1.51714
1.50825
1.49977
1.48757
1.46769
1.4508
1.44668
1.4458
1.44497
1.44431
1.44496
1.45
1.45721
1.46389
1.46708
1.46566
1.46023
1.45222
1.44678
1.44465
1.44256
1.43975
1.43519
1.42883
1.42314
1.41781
1.41166
1.40538
1.40191
1.40164
1.40549
1.41826
1.43382
1.43833
1.4379
1.43614
1.43308
1.42828
1.42054
1.4086
1.39301
1.37925
1.37215
1.36881
1.36768
1.37
1.38175
1.39286
1.39282
1.39015
1.38721
1.38342
1.37638
1.36094
1.33695
1.32145
1.31725
1.31553
1.31467
1.31453
1.31503
1.31969
1.33532
1.35716
1.36787
1.36919
1.36726
1.36385
1.35884
1.34599
1.31464
1.2803
1.26824
1.26489
1.26299
1.26214
1.26292
1.27316
1.29488
1.30405
1.30431
1.30306
1.30099
1.29838
1.29429
1.28563
1.26921
1.2528
1.24639
1.24447
1.2436
1.2432
1.2448
1.25341
1.26681
1.27666
1.28249
1.28561
1.28628
1.28488
1.27456
1.25571
1.24758
1.24604
1.2448
1.2436
1.24518
1.96865
1.96817
1.96925
1.97245
1.97743
1.98047
1.98007
1.97815
1.97443
1.96633
1.95424
1.94223
1.93355
1.92617
1.91754
1.90952
1.90457
1.90276
1.90481
1.91393
1.91755
1.91687
1.91529
1.91233
1.90592
1.89345
1.87911
1.8703
1.86629
1.86407
1.86384
1.86684
1.87003
1.86857
1.86454
1.85684
1.83644
1.80164
1.7798
1.77331
1.77051
1.7689
1.77054
1.78581
1.81092
1.82136
1.82189
1.82071
1.81844
1.81315
1.80147
1.78968
1.77966
1.77286
1.77113
1.77253
1.77671
1.77998
1.78049
1.78008
1.77844
1.77415
1.7665
1.7592
1.755
1.75309
1.75151
1.74915
1.74684
1.74413
1.74028
1.73261
1.71926
1.70886
1.70466
1.70216
1.69966
1.69688
1.69515
1.69374
1.69187
1.68811
1.67603
1.65992
1.65485
1.65312
1.6513
1.64999
1.65031
1.6558
1.66069
1.66064
1.65939
1.65741
1.65335
1.64174
1.61519
1.59333
1.589
1.58781
1.58717
1.58705
1.58916
1.5946
1.59978
1.60208
1.60334
1.60191
1.59544
1.59238
1.5943
1.59839
1.6041
1.60965
1.61122
1.61092
1.60891
1.60351
1.59148
1.57523
1.56855
1.56727
1.56658
1.56892
1.57497
1.57563
1.5738
1.57146
1.56853
1.56293
1.54846
1.52265
1.50377
1.49856
1.49651
1.49507
1.4944
1.49912
1.51885
1.53809
1.54359
1.54373
1.54302
1.54141
1.53776
1.53054
1.52071
1.50918
1.49555
1.47657
1.45522
1.44448
1.44138
1.44037
1.44015
1.44051
1.44301
1.45191
1.46523
1.47007
1.46929
1.46722
1.46273
1.45222
1.43902
1.43227
1.42875
1.42487
1.41935
1.41356
1.41156
1.41142
1.4112
1.40923
1.40698
1.40729
1.41239
1.4214
1.42675
1.42801
1.42763
1.42597
1.42286
1.4176
1.40979
1.40045
1.39179
1.38633
1.3835
1.3807
1.37869
1.38004
1.38687
1.38908
1.38659
1.38268
1.37851
1.37293
1.36233
1.34134
1.32107
1.31588
1.31558
1.31595
1.31648
1.31729
1.32125
1.33354
1.35266
1.36347
1.36366
1.36119
1.35785
1.35363
1.34667
1.33157
1.30475
1.28146
1.27269
1.2691
1.26681
1.26593
1.26855
1.28259
1.29663
1.29816
1.29727
1.29585
1.29394
1.2908
1.28499
1.27536
1.26368
1.25361
1.24675
1.2436
1.24249
1.24215
1.24494
1.25461
1.2643
1.27021
1.27376
1.27566
1.27594
1.27427
1.26371
1.24454
1.23933
1.23945
1.2393
1.2393
1.24278
1.96564
1.96228
1.96189
1.96243
1.96408
1.96714
1.96746
1.9656
1.96369
1.96014
1.951
1.93783
1.92795
1.92199
1.91794
1.91324
1.90811
1.90647
1.9081
1.90688
1.90422
1.90157
1.89889
1.89504
1.88859
1.88209
1.87825
1.8739
1.86993
1.86858
1.86758
1.86344
1.85799
1.8535
1.84832
1.83898
1.8198
1.7961
1.7832
1.77719
1.77385
1.77285
1.77759
1.79418
1.80505
1.80582
1.80459
1.80283
1.79929
1.79389
1.78877
1.78394
1.77912
1.77193
1.76345
1.76092
1.76201
1.76496
1.7677
1.76933
1.76965
1.76817
1.76559
1.76241
1.75676
1.75061
1.74733
1.74466
1.74134
1.73747
1.73288
1.7265
1.7169
1.70749
1.70157
1.69834
1.69695
1.69733
1.69657
1.69513
1.69333
1.69003
1.68148
1.66466
1.65182
1.64833
1.64652
1.64482
1.644
1.6466
1.65171
1.65295
1.65182
1.65009
1.64736
1.63941
1.61635
1.58742
1.57918
1.57808
1.5771
1.57648
1.5771
1.58218
1.5907
1.5974
1.60133
1.60233
1.60044
1.59089
1.58319
1.58376
1.58674
1.59171
1.59609
1.59748
1.59722
1.59537
1.58993
1.57916
1.57166
1.56994
1.56912
1.5714
1.57351
1.57156
1.56932
1.56705
1.56385
1.55776
1.54456
1.52085
1.50026
1.49447
1.49306
1.49194
1.49154
1.49603
1.51144
1.52963
1.53531
1.53483
1.53406
1.53327
1.53181
1.52926
1.52222
1.50909
1.49081
1.46918
1.45109
1.44205
1.43871
1.43688
1.43631
1.43697
1.44441
1.46203
1.46999
1.46922
1.468
1.46621
1.46259
1.45422
1.43858
1.42289
1.41388
1.40808
1.40518
1.40475
1.40506
1.40623
1.40793
1.40942
1.41134
1.41739
1.42285
1.42238
1.41955
1.4178
1.41684
1.41501
1.41142
1.40566
1.39916
1.39427
1.39099
1.38919
1.38833
1.38907
1.38998
1.38973
1.38789
1.38487
1.38142
1.37741
1.37192
1.36273
1.34627
1.32637
1.31643
1.31427
1.31376
1.314
1.31489
1.31866
1.33025
1.3493
1.35949
1.36011
1.35798
1.35468
1.3507
1.34455
1.33288
1.31413
1.29511
1.28393
1.27893
1.27524
1.27301
1.27301
1.27879
1.28895
1.29188
1.2914
1.2903
1.28916
1.28733
1.28284
1.27322
1.26266
1.25787
1.25531
1.25205
1.24777
1.24517
1.24449
1.24591
1.25061
1.25649
1.26025
1.26174
1.26245
1.26251
1.2614
1.25517
1.24266
1.23395
1.23371
1.2354
1.23646
1.24174
1.96935
1.9602
1.95332
1.95201
1.95192
1.95457
1.95496
1.95269
1.95074
1.94869
1.94403
1.93352
1.92392
1.9202
1.9184
1.91747
1.91585
1.91233
1.90735
1.90047
1.89369
1.88705
1.87939
1.872
1.86862
1.86777
1.86971
1.8732
1.87401
1.87228
1.86786
1.8614
1.85295
1.84289
1.83095
1.81575
1.80001
1.78941
1.78516
1.78232
1.77971
1.78032
1.79016
1.79638
1.79479
1.79268
1.79049
1.78698
1.78012
1.77483
1.77401
1.77396
1.77304
1.76961
1.76231
1.75303
1.74997
1.75056
1.75286
1.75624
1.75841
1.75951
1.76142
1.76171
1.7579
1.75061
1.74289
1.73805
1.73407
1.72965
1.72475
1.71957
1.71382
1.70695
1.70171
1.69795
1.69368
1.6905
1.68927
1.68809
1.68657
1.68411
1.67953
1.66886
1.6525
1.64413
1.64159
1.63997
1.63893
1.64078
1.64558
1.64613
1.6449
1.64313
1.64067
1.63525
1.61825
1.58915
1.57368
1.57047
1.56906
1.56796
1.56755
1.57168
1.5836
1.59541
1.59895
1.59902
1.59773
1.59354
1.58027
1.5707
1.57113
1.57393
1.57727
1.58065
1.58391
1.5851
1.58363
1.5791
1.57429
1.57224
1.57182
1.5719
1.57008
1.56767
1.56515
1.5622
1.55851
1.55292
1.54159
1.51942
1.49885
1.49304
1.49164
1.49061
1.49044
1.49494
1.50947
1.52515
1.52799
1.52699
1.52597
1.52493
1.52324
1.52088
1.51611
1.50535
1.48802
1.46808
1.45094
1.44151
1.43731
1.43551
1.43474
1.43568
1.4435
1.45838
1.46398
1.4627
1.4619
1.46117
1.45922
1.45371
1.43826
1.4135
1.40067
1.39832
1.39758
1.39723
1.39761
1.40006
1.40323
1.40725
1.41634
1.42428
1.42469
1.42192
1.41659
1.41097
1.40655
1.40232
1.39748
1.39273
1.38966
1.38903
1.38929
1.38916
1.39015
1.39535
1.39704
1.39443
1.38978
1.38367
1.37702
1.37097
1.36361
1.35065
1.33172
1.31967
1.31552
1.31393
1.31318
1.31348
1.3153
1.32397
1.34192
1.35121
1.35367
1.35429
1.35253
1.3493
1.34487
1.33593
1.31758
1.29809
1.28959
1.28648
1.28543
1.28448
1.28379
1.28589
1.28855
1.28767
1.28642
1.28538
1.28414
1.28251
1.27908
1.27125
1.2607
1.2555
1.25425
1.25406
1.25332
1.25183
1.25095
1.25004
1.24985
1.2497
1.24966
1.25044
1.251
1.25073
1.24969
1.24702
1.24297
1.23941
1.23681
1.23373
1.23299
1.23482
1.24252
1.97013
1.96047
1.94952
1.94367
1.94294
1.94341
1.94232
1.93996
1.93794
1.93591
1.9326
1.92781
1.92536
1.92462
1.92597
1.92575
1.92223
1.91648
1.90837
1.89826
1.88507
1.86991
1.85787
1.85282
1.85109
1.85106
1.85737
1.86979
1.87523
1.87321
1.86876
1.8624
1.85137
1.83316
1.80902
1.79103
1.78637
1.78526
1.78316
1.78223
1.78596
1.79637
1.8001
1.79622
1.78975
1.7834
1.77682
1.76884
1.76299
1.76136
1.7606
1.76064
1.76171
1.76153
1.75851
1.75088
1.74144
1.73839
1.73878
1.74117
1.74497
1.7504
1.7567
1.75851
1.75649
1.75014
1.73999
1.73063
1.72569
1.72147
1.71721
1.71324
1.7095
1.70572
1.70178
1.69749
1.69203
1.68717
1.68572
1.68472
1.68357
1.68184
1.67839
1.6701
1.65583
1.64346
1.63801
1.63567
1.63491
1.636
1.63809
1.6372
1.63619
1.63481
1.63253
1.62852
1.61767
1.59452
1.57332
1.5657
1.56364
1.56245
1.56188
1.5651
1.57715
1.58764
1.59131
1.59229
1.59225
1.58985
1.58231
1.56514
1.55678
1.55738
1.55977
1.56294
1.5669
1.57239
1.57534
1.57457
1.57434
1.57607
1.57503
1.57064
1.56625
1.56323
1.56012
1.55659
1.55267
1.54765
1.53859
1.52065
1.50172
1.49467
1.49279
1.49175
1.49201
1.497
1.50961
1.51945
1.52031
1.51927
1.51803
1.51632
1.51384
1.51012
1.50432
1.49534
1.48359
1.47068
1.45825
1.44567
1.43788
1.43579
1.43548
1.43746
1.44398
1.45356
1.45825
1.4568
1.45513
1.45437
1.45291
1.44917
1.43594
1.41104
1.39565
1.39261
1.39145
1.3907
1.39058
1.39368
1.40107
1.41325
1.4238
1.42557
1.4244
1.42104
1.41441
1.40441
1.39478
1.38744
1.383
1.38164
1.38149
1.38181
1.38346
1.38729
1.39495
1.40161
1.40034
1.39657
1.39128
1.38341
1.37378
1.36479
1.355
1.34111
1.32756
1.32064
1.31838
1.31644
1.31515
1.31504
1.31843
1.3308
1.34006
1.34323
1.34461
1.34585
1.34508
1.34179
1.33597
1.32349
1.30488
1.29287
1.28919
1.28865
1.28968
1.29475
1.29642
1.29467
1.29162
1.28745
1.2839
1.28129
1.27857
1.27422
1.26637
1.25743
1.25407
1.2535
1.25316
1.25289
1.25307
1.25534
1.25585
1.25422
1.25111
1.2464
1.24375
1.24311
1.24249
1.2411
1.23798
1.23357
1.23213
1.23323
1.23543
1.23644
1.23521
1.23629
1.24549
1.96673
1.96251
1.95242
1.9389
1.93277
1.9317
1.92977
1.92762
1.92548
1.92365
1.92248
1.92173
1.92257
1.92753
1.93236
1.9316
1.9282
1.92306
1.91432
1.898
1.87267
1.84959
1.84028
1.8376
1.83604
1.83589
1.8456
1.86865
1.87601
1.87362
1.8691
1.86199
1.84809
1.81965
1.78993
1.78019
1.7781
1.77701
1.77744
1.78326
1.799
1.80918
1.8074
1.80046
1.78824
1.7717
1.75875
1.75327
1.75152
1.75026
1.74937
1.74934
1.75057
1.75074
1.74985
1.74609
1.73738
1.72989
1.72817
1.72909
1.73278
1.73932
1.74612
1.74908
1.74927
1.74627
1.73748
1.72448
1.71695
1.71333
1.71012
1.70793
1.7062
1.70368
1.70074
1.69805
1.69431
1.6881
1.68149
1.67845
1.67584
1.67284
1.66936
1.6652
1.65801
1.6475
1.63838
1.63297
1.6303
1.63031
1.63036
1.62872
1.62728
1.62559
1.62323
1.61959
1.61247
1.59752
1.57717
1.56527
1.56146
1.55997
1.55943
1.56254
1.57093
1.57784
1.58171
1.5829
1.58267
1.58164
1.57804
1.56679
1.54837
1.54307
1.54444
1.5474
1.55151
1.55695
1.56337
1.56969
1.57558
1.57741
1.57516
1.5696
1.56285
1.55714
1.5532
1.54971
1.54587
1.54103
1.53368
1.52126
1.50599
1.49669
1.494
1.49329
1.49441
1.50082
1.50899
1.51239
1.51209
1.51079
1.50924
1.50728
1.50437
1.49961
1.49211
1.48255
1.47455
1.46977
1.46425
1.4565
1.44557
1.43863
1.43768
1.43937
1.44423
1.4482
1.45052
1.44941
1.44694
1.44496
1.44309
1.43997
1.43126
1.41178
1.39484
1.38892
1.3867
1.38553
1.3853
1.3892
1.40422
1.42028
1.42391
1.42363
1.42298
1.42028
1.41082
1.39359
1.37854
1.37301
1.37179
1.37159
1.37161
1.37233
1.3757
1.38534
1.39973
1.40387
1.40186
1.39831
1.39251
1.38308
1.37212
1.36056
1.34757
1.33478
1.32665
1.32492
1.32359
1.32196
1.32064
1.32069
1.32501
1.33018
1.33214
1.33299
1.3341
1.33553
1.33499
1.33124
1.32284
1.30879
1.29768
1.29423
1.29319
1.29356
1.29892
1.30313
1.30191
1.29932
1.29527
1.28929
1.283
1.27716
1.27094
1.26245
1.25416
1.25121
1.25053
1.25013
1.25036
1.25209
1.25684
1.2592
1.25845
1.25628
1.25192
1.24585
1.24128
1.23788
1.23437
1.22979
1.22586
1.22477
1.22481
1.22555
1.22854
1.23341
1.23602
1.23961
1.25013
1.96539
1.96167
1.95395
1.94
1.92702
1.92188
1.91914
1.91571
1.9137
1.91271
1.91222
1.91277
1.91687
1.92664
1.93422
1.9348
1.9326
1.92766
1.91629
1.89267
1.85789
1.83544
1.82907
1.82652
1.82481
1.82444
1.83176
1.85191
1.86329
1.86299
1.86035
1.85542
1.84056
1.80811
1.78431
1.7771
1.77399
1.7726
1.77369
1.78707
1.80862
1.8136
1.81097
1.80312
1.78472
1.75902
1.74574
1.74259
1.74145
1.74058
1.7399
1.73985
1.74036
1.74028
1.73954
1.73799
1.73315
1.7253
1.7211
1.7203
1.72223
1.7281
1.73457
1.7376
1.73824
1.73728
1.73204
1.72021
1.70905
1.70512
1.70293
1.7012
1.70051
1.70214
1.70196
1.69971
1.69614
1.68943
1.67963
1.6734
1.66989
1.66617
1.66206
1.65783
1.65432
1.64988
1.6438
1.63574
1.62821
1.62404
1.62349
1.622
1.61986
1.61736
1.61392
1.60915
1.60321
1.59592
1.58546
1.5721
1.56281
1.56015
1.55944
1.56268
1.56888
1.57189
1.57346
1.57374
1.5728
1.57153
1.56979
1.56406
1.54981
1.53449
1.53213
1.53422
1.53782
1.54224
1.54881
1.5584
1.56819
1.57178
1.5713
1.56793
1.5606
1.5513
1.54447
1.54026
1.53657
1.53266
1.52816
1.52246
1.51445
1.50399
1.49693
1.49536
1.49738
1.50192
1.50291
1.50264
1.50196
1.50093
1.49961
1.49758
1.49407
1.48823
1.4802
1.47283
1.46779
1.46482
1.4636
1.46143
1.45614
1.44717
1.44262
1.44258
1.44269
1.44269
1.44324
1.44218
1.43928
1.43619
1.43292
1.42895
1.42245
1.41023
1.39556
1.38841
1.3856
1.3839
1.38361
1.39162
1.41316
1.42355
1.42366
1.42297
1.42146
1.41659
1.40263
1.37894
1.3658
1.3633
1.36254
1.36211
1.36193
1.36269
1.36857
1.38489
1.40185
1.40399
1.40274
1.39998
1.39441
1.3849
1.3705
1.35334
1.33862
1.33025
1.32839
1.32765
1.32692
1.32627
1.32626
1.32987
1.33186
1.32976
1.32586
1.32464
1.32439
1.32447
1.32237
1.31616
1.30561
1.29838
1.2964
1.29568
1.29628
1.30202
1.30794
1.30749
1.30578
1.30338
1.29919
1.29164
1.28031
1.26873
1.2583
1.25109
1.24827
1.24714
1.24642
1.24622
1.24813
1.25558
1.26005
1.25947
1.25832
1.25674
1.25354
1.24807
1.23951
1.23045
1.22293
1.21916
1.21819
1.21795
1.21887
1.22193
1.22541
1.23015
1.23748
1.24484
1.25229
1.95979
1.95661
1.95312
1.94585
1.92901
1.91212
1.90699
1.9046
1.90287
1.90166
1.90135
1.90479
1.91427
1.9286
1.93713
1.93662
1.93331
1.92694
1.91307
1.88314
1.84662
1.82924
1.82291
1.81948
1.81758
1.81771
1.82491
1.84075
1.84937
1.8482
1.8449
1.83963
1.82635
1.80154
1.78308
1.77715
1.77395
1.77246
1.77671
1.79718
1.81369
1.81318
1.80882
1.79949
1.77741
1.7509
1.73992
1.73551
1.73305
1.73256
1.73263
1.73177
1.73115
1.73053
1.7298
1.72857
1.72654
1.72205
1.71738
1.71526
1.71509
1.71825
1.72246
1.72419
1.72461
1.72431
1.72209
1.71486
1.70377
1.69729
1.69569
1.69456
1.69619
1.69998
1.69942
1.6977
1.69481
1.68918
1.67809
1.66734
1.66279
1.65891
1.65513
1.65253
1.65005
1.64868
1.64619
1.64114
1.63226
1.62202
1.61664
1.61522
1.61292
1.60939
1.60401
1.59763
1.59255
1.58957
1.58691
1.58125
1.5726
1.56521
1.56292
1.56281
1.5643
1.56517
1.56508
1.56431
1.56304
1.56148
1.55973
1.55721
1.54899
1.53403
1.52378
1.52296
1.52504
1.52889
1.53575
1.54766
1.55983
1.56327
1.5632
1.56183
1.55653
1.54635
1.53593
1.53035
1.52728
1.52467
1.52277
1.5216
1.5192
1.51491
1.5085
1.50299
1.49947
1.49636
1.49477
1.49304
1.49108
1.4898
1.48869
1.48642
1.48226
1.47647
1.47122
1.46781
1.46589
1.46461
1.46361
1.46325
1.46256
1.45903
1.44933
1.43997
1.43813
1.43719
1.43611
1.43465
1.43225
1.42891
1.42384
1.41755
1.41169
1.40572
1.39884
1.39332
1.3894
1.38752
1.3881
1.39698
1.40926
1.41419