/*--------------------------------*- C++ -*----------------------------------*\
  =========                 |
  \\      /  F ield         | OpenFOAM: The Open Source CFD Toolbox
   \\    /   O peration     | Website:  https://openfoam.org
    \\  /    A nd           | Version:  7
     \\/     M anipulation  |
\*---------------------------------------------------------------------------*/
FoamFile
{
    version     2.0;
    format      ascii;
    class       volVectorField;
    location    "3.8";
    object      U;
}
// * * * * * * * * * * * * * * * * * * * * * * * * * * * * * * * * * * * * * //

dimensions      [0 1 -1 0 0 0 0];

internalField   nonuniform List<vector> 
16192
(
(1.72843 0.908295 0)
(1.73761 0.899462 0)
(1.74754 0.890975 0)
(1.75759 0.883515 0)
(1.76783 0.876571 0)
(1.77854 0.869201 0)
(1.78892 0.861719 0)
(1.79884 0.854183 0)
(1.80919 0.845613 0)
(1.82042 0.836076 0)
(1.83128 0.827218 0)
(1.84208 0.818846 0)
(1.85425 0.80951 0)
(1.86691 0.800365 0)
(1.87889 0.792414 0)
(1.89184 0.783838 0)
(1.90599 0.774005 0)
(1.91976 0.76455 0)
(1.93294 0.755507 0)
(1.94678 0.745536 0)
(1.96136 0.734489 0)
(1.73092 0.908815 0)
(1.74004 0.901475 0)
(1.75003 0.894353 0)
(1.76 0.887588 0)
(1.76978 0.880999 0)
(1.78015 0.873554 0)
(1.79081 0.865243 0)
(1.80102 0.856967 0)
(1.81095 0.849003 0)
(1.82191 0.840265 0)
(1.83371 0.830612 0)
(1.84489 0.822008 0)
(1.85555 0.814527 0)
(1.86742 0.80619 0)
(1.88042 0.796568 0)
(1.89329 0.78734 0)
(1.90572 0.778778 0)
(1.91891 0.769415 0)
(1.93282 0.758894 0)
(1.94669 0.748398 0)
(1.96065 0.738092 0)
(1.73448 0.911463 0)
(1.74368 0.904883 0)
(1.75326 0.898155 0)
(1.76241 0.891601 0)
(1.77202 0.884124 0)
(1.78262 0.875308 0)
(1.79294 0.866928 0)
(1.80264 0.859536 0)
(1.81352 0.851115 0)
(1.82565 0.841804 0)
(1.83638 0.834139 0)
(1.84647 0.827193 0)
(1.85823 0.818279 0)
(1.87078 0.808548 0)
(1.88221 0.800273 0)
(1.89375 0.791955 0)
(1.90676 0.781818 0)
(1.92023 0.771352 0)
(1.93304 0.761913 0)
(1.94618 0.752284 0)
(1.96017 0.742017 0)
(1.73759 0.916696 0)
(1.74634 0.909873 0)
(1.75551 0.902463 0)
(1.76453 0.894774 0)
(1.77406 0.886424 0)
(1.78415 0.877923 0)
(1.79434 0.869893 0)
(1.80492 0.861959 0)
(1.81581 0.854258 0)
(1.82672 0.846992 0)
(1.8378 0.839395 0)
(1.84932 0.83085 0)
(1.8606 0.822233 0)
(1.87166 0.813966 0)
(1.88329 0.804925 0)
(1.89568 0.794758 0)
(1.90772 0.785162 0)
(1.91984 0.776103 0)
(1.93291 0.766259 0)
(1.94652 0.755898 0)
(1.95989 0.74632 0)
(1.74078 0.920859 0)
(1.74955 0.91268 0)
(1.75838 0.904313 0)
(1.76683 0.896519 0)
(1.77624 0.888311 0)
(1.78684 0.879634 0)
(1.79693 0.872256 0)
(1.80663 0.865844 0)
(1.81774 0.85835 0)
(1.8297 0.849891 0)
(1.8406 0.842427 0)
(1.85082 0.835286 0)
(1.86226 0.826437 0)
(1.87457 0.816183 0)
(1.8859 0.807111 0)
(1.89651 0.798894 0)
(1.90853 0.789312 0)
(1.92173 0.778675 0)
(1.93441 0.769135 0)
(1.94671 0.760265 0)
(1.95939 0.751373 0)
(1.74373 0.923602 0)
(1.75249 0.914896 0)
(1.76077 0.906821 0)
(1.76923 0.898996 0)
(1.77901 0.890775 0)
(1.78878 0.883541 0)
(1.79816 0.877244 0)
(1.80883 0.869828 0)
(1.82036 0.861593 0)
(1.83092 0.854395 0)
(1.84108 0.847484 0)
(1.85272 0.838477 0)
(1.86499 0.828482 0)
(1.87569 0.820298 0)
(1.88616 0.812477 0)
(1.89841 0.80238 0)
(1.91103 0.791956 0)
(1.92252 0.783252 0)
(1.93431 0.774658 0)
(1.94708 0.765079 0)
(1.95986 0.755585 0)
(1.74718 0.924859 0)
(1.75596 0.916619 0)
(1.76421 0.909071 0)
(1.77253 0.901937 0)
(1.78192 0.894611 0)
(1.79156 0.887526 0)
(1.80107 0.880739 0)
(1.81123 0.87348 0)
(1.82192 0.865687 0)
(1.83262 0.85755 0)
(1.8434 0.849281 0)
(1.85438 0.841097 0)
(1.86565 0.83285 0)
(1.87743 0.823722 0)
(1.88926 0.814423 0)
(1.90033 0.805925 0)
(1.91161 0.79735 0)
(1.92395 0.787588 0)
(1.93637 0.777834 0)
(1.94831 0.768957 0)
(1.96029 0.760034 0)
(1.75009 0.927744 0)
(1.75889 0.920092 0)
(1.76673 0.91358 0)
(1.77544 0.90655 0)
(1.78521 0.898829 0)
(1.79406 0.892119 0)
(1.80285 0.88554 0)
(1.81331 0.877254 0)
(1.82429 0.86816 0)
(1.83407 0.860487 0)
(1.84376 0.853491 0)
(1.85558 0.844639 0)
(1.86843 0.834719 0)
(1.87925 0.827022 0)
(1.88921 0.820227 0)
(1.90132 0.811007 0)
(1.91433 0.800386 0)
(1.92578 0.79147 0)
(1.93677 0.783281 0)
(1.94882 0.774091 0)
(1.96144 0.763906 0)
(1.75355 0.93015 0)
(1.7621 0.923926 0)
(1.77014 0.917655 0)
(1.77937 0.910278 0)
(1.78839 0.903044 0)
(1.79652 0.89633 0)
(1.8058 0.888292 0)
(1.81616 0.879382 0)
(1.82564 0.871609 0)
(1.83513 0.864094 0)
(1.84638 0.855223 0)
(1.85826 0.846497 0)
(1.86874 0.83956 0)
(1.87938 0.832385 0)
(1.89173 0.822938 0)
(1.9041 0.813481 0)
(1.91489 0.805585 0)
(1.92618 0.797007 0)
(1.9386 0.786941 0)
(1.95079 0.777159 0)
(1.96275 0.767546 0)
(1.7558 0.933808 0)
(1.76508 0.928582 0)
(1.77329 0.922354 0)
(1.78245 0.914712 0)
(1.79104 0.907097 0)
(1.79914 0.899577 0)
(1.80819 0.891453 0)
(1.81801 0.882964 0)
(1.82789 0.874479 0)
(1.83764 0.866652 0)
(1.84761 0.85948 0)
(1.85878 0.851683 0)
(1.87058 0.842979 0)
(1.88179 0.834884 0)
(1.89249 0.827467 0)
(1.90412 0.819109 0)
(1.91643 0.809394 0)
(1.9282 0.800092 0)
(1.93941 0.791494 0)
(1.95122 0.782256 0)
(1.9636 0.771922 0)
(1.7558 0.936504 0)
(1.76615 0.932881 0)
(1.77627 0.925915 0)
(1.78584 0.917541 0)
(1.79371 0.910135 0)
(1.80145 0.902834 0)
(1.81127 0.893895 0)
(1.82143 0.885021 0)
(1.8299 0.878298 0)
(1.83889 0.871608 0)
(1.85026 0.86282 0)
(1.86189 0.853964 0)
(1.87155 0.84729 0)
(1.88166 0.840395 0)
(1.89411 0.830756 0)
(1.90668 0.820878 0)
(1.91716 0.813367 0)
(1.92797 0.805564 0)
(1.94057 0.795529 0)
(1.95316 0.785077 0)
(1.96487 0.775439 0)
(1.75184 0.937745 0)
(1.766 0.933119 0)
(1.77785 0.927457 0)
(1.78822 0.920194 0)
(1.79612 0.913406 0)
(1.80494 0.905304 0)
(1.81464 0.896853 0)
(1.8231 0.889943 0)
(1.83186 0.882939 0)
(1.84228 0.874554 0)
(1.85261 0.866646 0)
(1.86217 0.859615 0)
(1.87255 0.851622 0)
(1.8843 0.842263 0)
(1.89561 0.83374 0)
(1.90612 0.826273 0)
(1.91751 0.817706 0)
(1.92992 0.807912 0)
(1.94173 0.798813 0)
(1.95317 0.789949 0)
(1.96475 0.780663 0)
(1.74696 0.936572 0)
(1.76318 0.933035 0)
(1.77847 0.927333 0)
(1.78931 0.922261 0)
(1.79835 0.916498 0)
(1.8075 0.90954 0)
(1.81695 0.901772 0)
(1.82586 0.894133 0)
(1.83481 0.886705 0)
(1.84437 0.879164 0)
(1.8545 0.870896 0)
(1.86471 0.86226 0)
(1.87437 0.854679 0)
(1.88457 0.847214 0)
(1.89625 0.838107 0)
(1.90801 0.82856 0)
(1.91868 0.820567 0)
(1.92972 0.812651 0)
(1.94198 0.803148 0)
(1.95434 0.79306 0)
(1.96572 0.784015 0)
(1.74271 0.935034 0)
(1.75848 0.931941 0)
(1.77487 0.928051 0)
(1.78878 0.924112 0)
(1.79944 0.920047 0)
(1.8107 0.912936 0)
(1.8205 0.905373 0)
(1.82834 0.898785 0)
(1.83707 0.891235 0)
(1.84738 0.882221 0)
(1.85703 0.873947 0)
(1.86549 0.867063 0)
(1.87537 0.859141 0)
(1.88726 0.849331 0)
(1.89822 0.840661 0)
(1.90767 0.833643 0)
(1.91872 0.825164 0)
(1.93146 0.814823 0)
(1.94329 0.805582 0)
(1.95417 0.79748 0)
(1.96535 0.788997 0)
(1.73982 0.934659 0)
(1.75491 0.931231 0)
(1.77006 0.928486 0)
(1.78481 0.925748 0)
(1.80029 0.921582 0)
(1.81279 0.915768 0)
(1.822 0.910002 0)
(1.83028 0.903304 0)
(1.84018 0.894407 0)
(1.84986 0.885877 0)
(1.85838 0.878454 0)
(1.86771 0.870178 0)
(1.87806 0.861552 0)
(1.88811 0.853866 0)
(1.8982 0.845938 0)
(1.90919 0.836652 0)
(1.92047 0.827416 0)
(1.93148 0.819081 0)
(1.94285 0.810449 0)
(1.95473 0.801146 0)
(1.96655 0.791841 0)
(1.73739 0.935541 0)
(1.7525 0.931541 0)
(1.76637 0.929311 0)
(1.78064 0.927426 0)
(1.79652 0.923109 0)
(1.81108 0.917771 0)
(1.82238 0.91258 0)
(1.8328 0.905681 0)
(1.8429 0.897622 0)
(1.85203 0.889726 0)
(1.86055 0.882117 0)
(1.86949 0.874416 0)
(1.87952 0.86605 0)
(1.89027 0.85684 0)
(1.90025 0.848426 0)
(1.90973 0.840932 0)
(1.92076 0.832102 0)
(1.93295 0.821935 0)
(1.94424 0.813018 0)
(1.95496 0.805174 0)
(1.96656 0.796447 0)
(1.7367 0.935698 0)
(1.75048 0.932864 0)
(1.76313 0.930278 0)
(1.77665 0.927471 0)
(1.79276 0.922951 0)
(1.80853 0.917832 0)
(1.82141 0.91378 0)
(1.83315 0.908492 0)
(1.84465 0.900955 0)
(1.85417 0.893536 0)
(1.86263 0.886309 0)
(1.87212 0.877731 0)
(1.88215 0.868853 0)
(1.89129 0.861252 0)
(1.90057 0.853576 0)
(1.91156 0.84407 0)
(1.92298 0.834375 0)
(1.93331 0.826268 0)
(1.94384 0.818327 0)
(1.95553 0.80925 0)
(1.96779 0.79951 0)
(1.737 0.94035 0)
(1.74829 0.935942 0)
(1.76034 0.93173 0)
(1.77422 0.926884 0)
(1.78899 0.922066 0)
(1.80367 0.91831 0)
(1.81845 0.914842 0)
(1.83271 0.909608 0)
(1.84535 0.903204 0)
(1.85543 0.896879 0)
(1.86452 0.889899 0)
(1.87419 0.881773 0)
(1.88384 0.873392 0)
(1.89341 0.864725 0)
(1.90304 0.85608 0)
(1.91295 0.84798 0)
(1.92353 0.839421 0)
(1.93464 0.830058 0)
(1.94547 0.821235 0)
(1.95633 0.812963 0)
(1.96778 0.804163 0)
(1.74158 0.944682 0)
(1.74838 0.93729 0)
(1.75867 0.931796 0)
(1.77207 0.926364 0)
(1.78622 0.92198 0)
(1.79927 0.918777 0)
(1.81369 0.915261 0)
(1.83019 0.910249 0)
(1.84422 0.904907 0)
(1.85476 0.900116 0)
(1.86579 0.893166 0)
(1.87685 0.884561 0)
(1.8862 0.87669 0)
(1.89447 0.869571 0)
(1.90403 0.861325 0)
(1.91523 0.851465 0)
(1.92585 0.842267 0)
(1.93526 0.834613 0)
(1.94548 0.826527 0)
(1.95706 0.817134 0)
(1.96861 0.807727 0)
(1.75319 0.945971 0)
(1.75363 0.938333 0)
(1.76074 0.9315 0)
(1.77225 0.926745 0)
(1.78381 0.923381 0)
(1.7955 0.919841 0)
(1.8102 0.9152 0)
(1.82626 0.910455 0)
(1.83955 0.906566 0)
(1.85403 0.9013 0)
(1.86743 0.894423 0)
(1.87832 0.887694 0)
(1.88732 0.881301 0)
(1.89687 0.873002 0)
(1.90719 0.863609 0)
(1.91692 0.855415 0)
(1.92635 0.84767 0)
(1.93664 0.838696 0)
(1.94742 0.829301 0)
(1.9581 0.820572 0)
(1.96856 0.81235 0)
(1.75897 0.957777 0)
(1.75841 0.947798 0)
(1.76241 0.938378 0)
(1.7713 0.931144 0)
(1.78149 0.926138 0)
(1.7933 0.921099 0)
(1.80775 0.915259 0)
(1.82112 0.910542 0)
(1.83597 0.906921 0)
(1.85091 0.902529 0)
(1.86497 0.896639 0)
(1.87774 0.890608 0)
(1.88869 0.884168 0)
(1.89814 0.877197 0)
(1.90816 0.868882 0)
(1.9189 0.859365 0)
(1.9287 0.850602 0)
(1.93768 0.842889 0)
(1.94767 0.83441 0)
(1.95876 0.8249 0)
(1.96942 0.815846 0)
(1.76682 0.962167 0)
(1.76745 0.952183 0)
(1.76959 0.940519 0)
(1.77425 0.931722 0)
(1.78146 0.926121 0)
(1.7929 0.921056 0)
(1.80596 0.916069 0)
(1.81916 0.911306 0)
(1.83213 0.907579 0)
(1.84568 0.903232 0)
(1.8624 0.89728 0)
(1.87714 0.89181 0)
(1.88766 0.887841 0)
(1.8991 0.880737 0)
(1.91107 0.870946 0)
(1.92074 0.862884 0)
(1.92927 0.855835 0)
(1.93914 0.846915 0)
(1.94989 0.837003 0)
(1.96005 0.828215 0)
(1.96989 0.820014 0)
(1.77731 0.966992 0)
(1.77903 0.9572 0)
(1.77991 0.946224 0)
(1.78035 0.937228 0)
(1.78366 0.930307 0)
(1.79241 0.923965 0)
(1.80401 0.918128 0)
(1.81619 0.912791 0)
(1.82806 0.908406 0)
(1.84292 0.903463 0)
(1.85801 0.89826 0)
(1.87118 0.894178 0)
(1.88662 0.888785 0)
(1.90044 0.881962 0)
(1.91103 0.875115 0)
(1.92123 0.867422 0)
(1.93141 0.858719 0)
(1.94098 0.850282 0)
(1.95042 0.841929 0)
(1.96056 0.833031 0)
(1.97118 0.823698 0)
(1.77961 0.975479 0)
(1.78524 0.966547 0)
(1.78763 0.955903 0)
(1.78709 0.946051 0)
(1.7887 0.936034 0)
(1.79439 0.926972 0)
(1.80383 0.91956 0)
(1.81404 0.914604 0)
(1.8261 0.909267 0)
(1.83961 0.904167 0)
(1.85314 0.899395 0)
(1.8684 0.89458 0)
(1.88291 0.889995 0)
(1.89646 0.884862 0)
(1.91057 0.877203 0)
(1.92255 0.869406 0)
(1.93219 0.86263 0)
(1.94198 0.854726 0)
(1.95238 0.845327 0)
(1.96243 0.836405 0)
(1.9725 0.82769 0)
(1.78659 0.974536 0)
(1.79581 0.966764 0)
(1.79878 0.958729 0)
(1.79877 0.949526 0)
(1.79865 0.939457 0)
(1.80131 0.929253 0)
(1.80654 0.922035 0)
(1.81491 0.91585 0)
(1.82545 0.910718 0)
(1.83727 0.905685 0)
(1.85036 0.900523 0)
(1.86379 0.895513 0)
(1.87753 0.890825 0)
(1.89409 0.884546 0)
(1.90859 0.878673 0)
(1.92005 0.873156 0)
(1.93216 0.865974 0)
(1.94404 0.857379 0)
(1.95401 0.84933 0)
(1.96329 0.841271 0)
(1.97342 0.832305 0)
(1.7836 0.982153 0)
(1.79398 0.974289 0)
(1.80087 0.966943 0)
(1.8045 0.958931 0)
(1.80694 0.948161 0)
(1.80814 0.937648 0)
(1.81041 0.92874 0)
(1.8157 0.92129 0)
(1.82458 0.914153 0)
(1.83548 0.9077 0)
(1.84725 0.902056 0)
(1.85973 0.896724 0)
(1.87508 0.89054 0)
(1.88899 0.885252 0)
(1.90227 0.880716 0)
(1.9182 0.874644 0)
(1.93251 0.86777 0)
(1.94364 0.861434 0)
(1.95411 0.854246 0)
(1.96461 0.845541 0)
(1.97503 0.836301 0)
(1.78439 0.981422 0)
(1.79477 0.974463 0)
(1.80288 0.969188 0)
(1.81005 0.962229 0)
(1.81502 0.953387 0)
(1.81732 0.943176 0)
(1.81793 0.933728 0)
(1.82082 0.924258 0)
(1.82661 0.915717 0)
(1.83574 0.908411 0)
(1.84561 0.903209 0)
(1.85834 0.897401 0)
(1.87161 0.891522 0)
(1.88524 0.886173 0)
(1.89922 0.881554 0)
(1.91287 0.876776 0)
(1.92719 0.870933 0)
(1.94223 0.863736 0)
(1.95542 0.856201 0)
(1.96644 0.848377 0)
(1.97607 0.840375 0)
(1.79076 0.983529 0)
(1.801 0.97775 0)
(1.80829 0.971935 0)
(1.81595 0.965365 0)
(1.82267 0.957493 0)
(1.8259 0.949268 0)
(1.82698 0.939865 0)
(1.82783 0.930077 0)
(1.8311 0.919983 0)
(1.83706 0.911795 0)
(1.84541 0.905394 0)
(1.85595 0.899891 0)
(1.86897 0.893414 0)
(1.88184 0.887695 0)
(1.89435 0.88324 0)
(1.90862 0.878315 0)
(1.92429 0.871842 0)
(1.93931 0.86528 0)
(1.95291 0.858881 0)
(1.96446 0.852252 0)
(1.97534 0.844552 0)
(1.78925 0.990291 0)
(1.79724 0.984984 0)
(1.80796 0.977139 0)
(1.81715 0.970974 0)
(1.82483 0.96419 0)
(1.83019 0.956409 0)
(1.83338 0.947356 0)
(1.83534 0.936536 0)
(1.83715 0.926076 0)
(1.84094 0.9162 0)
(1.847 0.908613 0)
(1.85608 0.901737 0)
(1.86703 0.895806 0)
(1.87903 0.890117 0)
(1.89158 0.884892 0)
(1.90453 0.879506 0)
(1.91983 0.873052 0)
(1.93503 0.866335 0)
(1.94795 0.860915 0)
(1.96177 0.854195 0)
(1.97467 0.846541 0)
(1.79887 0.980106 0)
(1.79928 0.980719 0)
(1.80959 0.977904 0)
(1.82216 0.971372 0)
(1.82966 0.964786 0)
(1.83566 0.957859 0)
(1.8407 0.949783 0)
(1.84415 0.940561 0)
(1.84648 0.930423 0)
(1.84838 0.921155 0)
(1.85202 0.912706 0)
(1.85799 0.905669 0)
(1.86709 0.898653 0)
(1.87781 0.892355 0)
(1.88895 0.886803 0)
(1.90182 0.880389 0)
(1.9153 0.873773 0)
(1.92888 0.867708 0)
(1.9446 0.861308 0)
(1.95904 0.855223 0)
(1.97174 0.84911 0)
(1.81725 1.00211 0)
(1.79714 0.988066 0)
(1.80656 0.983614 0)
(1.81874 0.976094 0)
(1.82849 0.969099 0)
(1.83683 0.962554 0)
(1.84404 0.955478 0)
(1.84973 0.947426 0)
(1.85334 0.938644 0)
(1.85558 0.929353 0)
(1.85789 0.919995 0)
(1.86174 0.911056 0)
(1.86804 0.903048 0)
(1.87714 0.895299 0)
(1.88732 0.888343 0)
(1.89866 0.881668 0)
(1.91166 0.8748 0)
(1.92605 0.868103 0)
(1.93887 0.862966 0)
(1.95328 0.857384 0)
(1.96874 0.85064 0)
(1.92423 0.993055 0)
(1.79907 0.984166 0)
(1.80665 0.979686 0)
(1.81791 0.973574 0)
(1.82823 0.969036 0)
(1.83828 0.964225 0)
(1.84716 0.958606 0)
(1.8545 0.951989 0)
(1.86001 0.943966 0)
(1.86337 0.935236 0)
(1.86559 0.9256 0)
(1.86793 0.915511 0)
(1.87215 0.905698 0)
(1.87874 0.897215 0)
(1.88735 0.889586 0)
(1.89723 0.882833 0)
(1.90931 0.876327 0)
(1.92186 0.870442 0)
(1.93563 0.864591 0)
(1.95005 0.858683 0)
(1.96444 0.852284 0)
(2.13847 0.883585 0)
(1.81832 0.981431 0)
(1.81387 0.983214 0)
(1.82238 0.978243 0)
(1.83115 0.972944 0)
(1.83995 0.967795 0)
(1.84879 0.962226 0)
(1.85711 0.955867 0)
(1.86418 0.948585 0)
(1.86941 0.940252 0)
(1.87274 0.931003 0)
(1.87535 0.920454 0)
(1.87805 0.910355 0)
(1.88258 0.901027 0)
(1.88856 0.89315 0)
(1.89726 0.885487 0)
(1.90765 0.879095 0)
(1.91977 0.872856 0)
(1.93233 0.86678 0)
(1.94521 0.860699 0)
(1.95954 0.854171 0)
(2.45976 0.708692 0)
(1.84661 1.00244 0)
(1.81416 0.990901 0)
(1.82047 0.986036 0)
(1.83056 0.978449 0)
(1.8398 0.97217 0)
(1.8486 0.965993 0)
(1.85752 0.959284 0)
(1.86576 0.952301 0)
(1.87263 0.944805 0)
(1.87795 0.936185 0)
(1.88175 0.926505 0)
(1.88486 0.916131 0)
(1.88769 0.906936 0)
(1.89198 0.897826 0)
(1.89891 0.889234 0)
(1.90797 0.881839 0)
(1.91815 0.875903 0)
(1.92963 0.869487 0)
(1.94229 0.862558 0)
(1.95517 0.856001 0)
(2.0596 0.918314 0)
(1.82548 0.981339 0)
(1.82372 0.982342 0)
(1.83322 0.978416 0)
(1.84384 0.971807 0)
(1.85176 0.965451 0)
(1.8603 0.95888 0)
(1.86869 0.952664 0)
(1.8765 0.946237 0)
(1.88315 0.938977 0)
(1.88895 0.930001 0)
(1.89286 0.920878 0)
(1.89539 0.911866 0)
(1.89816 0.902833 0)
(1.90371 0.892977 0)
(1.91022 0.885356 0)
(1.91854 0.878644 0)
(1.9284 0.872011 0)
(1.94006 0.86473 0)
(1.95251 0.857479 0)
(2.30982 0.791975 0)
(1.84145 1.0086 0)
(1.82259 0.988602 0)
(1.83059 0.983872 0)
(1.84116 0.976704 0)
(1.85075 0.969749 0)
(1.85948 0.963233 0)
(1.86786 0.957171 0)
(1.87606 0.951231 0)
(1.88438 0.94419 0)
(1.89208 0.936076 0)
(1.89775 0.927775 0)
(1.90121 0.919485 0)
(1.90469 0.909676 0)
(1.90885 0.899714 0)
(1.9136 0.890834 0)
(1.91967 0.883082 0)
(1.92842 0.874854 0)
(1.93858 0.867189 0)
(1.94969 0.859871 0)
(2.72654 0.482699 0)
(1.99324 0.966113 0)
(1.8314 0.981526 0)
(1.83293 0.980461 0)
(1.84271 0.975102 0)
(1.85353 0.969268 0)
(1.86261 0.963404 0)
(1.87039 0.957894 0)
(1.87837 0.952143 0)
(1.88708 0.945633 0)
(1.89602 0.938255 0)
(1.90283 0.931395 0)
(1.90778 0.923865 0)
(1.91222 0.914596 0)
(1.91627 0.904419 0)
(1.91918 0.895797 0)
(1.92361 0.886737 0)
(1.9306 0.877525 0)
(1.93934 0.868797 0)
(1.94889 0.86153 0)
(3.00421 0.103059 0)
(2.20593 0.848091 0)
(1.84817 0.991544 0)
(1.83678 0.986908 0)
(1.84165 0.980998 0)
(1.8512 0.974226 0)
(1.86057 0.967693 0)
(1.86926 0.961794 0)
(1.87812 0.955865 0)
(1.88778 0.949208 0)
(1.89709 0.942567 0)
(1.90453 0.936695 0)
(1.9111 0.929753 0)
(1.91748 0.920548 0)
(1.92205 0.911102 0)
(1.92502 0.90203 0)
(1.92875 0.892186 0)
(1.9342 0.881999 0)
(1.9408 0.872993 0)
(1.9488 0.865088 0)
(3.00431 0.0111537 0)
(2.56045 0.625299 0)
(1.90687 0.992651 0)
(1.83987 0.98884 0)
(1.8434 0.98381 0)
(1.85238 0.975269 0)
(1.86092 0.96882 0)
(1.8692 0.963581 0)
(1.87857 0.957841 0)
(1.88864 0.951407 0)
(1.89754 0.945612 0)
(1.90507 0.940483 0)
(1.91323 0.933577 0)
(1.92116 0.92491 0)
(1.92701 0.916116 0)
(1.93102 0.907291 0)
(1.93507 0.897182 0)
(1.93952 0.886721 0)
(1.94449 0.877204 0)
(1.95061 0.869028 0)
(2.99991 0.000675249 0)
(2.95597 0.205002 0)
(2.12221 0.8878 0)
(1.85354 0.979501 0)
(1.84952 0.982385 0)
(1.85537 0.978956 0)
(1.86553 0.972107 0)
(1.87291 0.966213 0)
(1.88123 0.960083 0)
(1.88976 0.954032 0)
(1.89757 0.948555 0)
(1.90556 0.94282 0)
(1.91494 0.935543 0)
(1.92411 0.927368 0)
(1.93111 0.919685 0)
(1.93653 0.911606 0)
(1.94172 0.901838 0)
(1.94611 0.891715 0)
(1.94984 0.882512 0)
(1.95449 0.873858 0)
(2.99999 1.55553e-05 0)
(3.0104 0.0257966 0)
(2.42171 0.727915 0)
(1.86793 1.00178 0)
(1.84766 0.990435 0)
(1.8538 0.985995 0)
(1.86328 0.978593 0)
(1.87283 0.971717 0)
(1.88119 0.964885 0)
(1.8889 0.958222 0)
(1.89635 0.952277 0)
(1.90506 0.945873 0)
(1.91535 0.938133 0)
(1.92468 0.930728 0)
(1.93226 0.92424 0)
(1.93945 0.916629 0)
(1.94612 0.907518 0)
(1.95105 0.898433 0)
(1.95493 0.889462 0)
(1.95945 0.879926 0)
(3 1.70447e-07 0)
(3.00002 0.00207994 0)
(2.85488 0.349599 0)
(2.06642 0.922208 0)
(1.85677 0.979987 0)
(1.85639 0.981321 0)
(1.86407 0.978451 0)
(1.87657 0.971675 0)
(1.8847 0.964804 0)
(1.89117 0.958503 0)
(1.89821 0.952376 0)
(1.90749 0.945477 0)
(1.91773 0.938243 0)
(1.9266 0.932009 0)
(1.93452 0.9261 0)
(1.94259 0.918988 0)
(1.95022 0.910838 0)
(1.95639 0.902656 0)
(1.96142 0.894129 0)
(1.96627 0.884676 0)
(3 1.08978e-09 0)
(2.99998 6.70494e-05 0)
(3.01263 0.0561545 0)
(2.3096 0.793303 0)
(1.86951 1.00113 0)
(1.85557 0.987888 0)
(1.86217 0.983691 0)
(1.87311 0.976678 0)
(1.88293 0.96952 0)
(1.89042 0.963224 0)
(1.89831 0.95664 0)
(1.90751 0.949378 0)
(1.91672 0.942136 0)
(1.92481 0.936283 0)
(1.93295 0.930833 0)
(1.94227 0.923855 0)
(1.95141 0.915823 0)
(1.95903 0.908259 0)
(1.96556 0.900381 0)
(1.97113 0.891558 0)
(3 4.45101e-12 0)
(3 9.63361e-07 0)
(3.00099 0.00548856 0)
(2.70552 0.497313 0)
(2.01195 0.961179 0)
(1.86343 0.982183 0)
(1.86445 0.980076 0)
(1.87337 0.974302 0)
(1.88427 0.968537 0)
(1.89292 0.963042 0)
(1.9017 0.956687 0)
(1.91081 0.949796 0)
(1.91839 0.943629 0)
(1.92522 0.938333 0)
(1.93396 0.93229 0)
(1.9442 0.925185 0)
(1.95371 0.918059 0)
(1.96208 0.911202 0)
(1.96975 0.903854 0)
(1.97602 0.895949 0)
(3 1.3257e-14 0)
(3 7.1085e-09 0)
(2.99994 0.000254044 0)
(2.99524 0.112112 0)
(2.22298 0.840821 0)
(1.88096 0.990688 0)
(1.86736 0.985009 0)
(1.872 0.97922 0)
(1.88117 0.97301 0)
(1.8914 0.966596 0)
(1.90129 0.960061 0)
(1.90951 0.954254 0)
(1.91693 0.948406 0)
(1.92496 0.942103 0)
(1.93424 0.935539 0)
(1.94405 0.928917 0)
(1.9535 0.922206 0)
(1.96247 0.915465 0)
(1.97095 0.908409 0)
(1.97826 0.900959 0)
(3 4.70153e-16 0)
(3 3.64837e-11 0)
(3 4.6761e-06 0)
(3.00373 0.0127196 0)
(2.57456 0.612272 0)
(1.93862 0.988649 0)
(1.87142 0.987306 0)
(1.8737 0.982186 0)
(1.88211 0.973595 0)
(1.89204 0.966589 0)
(1.90124 0.961334 0)
(1.90922 0.956527 0)
(1.91663 0.951426 0)
(1.92547 0.945177 0)
(1.93557 0.937798 0)
(1.94503 0.930819 0)
(1.9535 0.924704 0)
(1.96202 0.918558 0)
(1.97094 0.911752 0)
(1.97933 0.904422 0)
(3 -2.23472e-15 0)
(3 9.66961e-14 0)
(3 4.19532e-08 0)
(2.99987 0.000816657 0)
(2.95623 0.196749 0)
(2.15067 0.877089 0)
(1.88473 0.976987 0)
(1.87961 0.980752 0)
(1.88498 0.977597 0)
(1.8968 0.970032 0)
(1.90428 0.964608 0)
(1.90986 0.960204 0)
(1.91785 0.95398 0)
(1.92791 0.946576 0)
(1.93725 0.939821 0)
(1.94496 0.933814 0)
(1.95278 0.927608 0)
(1.96161 0.920928 0)
(1.97107 0.913857 0)
(1.9804 0.906381 0)
(3 -2.88384e-15 0)
(3 1.34874e-16 0)
(3 2.55898e-10 0)
(2.99999 1.96399e-05 0)
(3.00768 0.0254907 0)
(2.46581 0.700021 0)
(1.89737 0.993241 0)
(1.87737 0.989788 0)
(1.88339 0.985252 0)
(1.89348 0.976968 0)
(1.90242 0.970672 0)
(1.90946 0.965092 0)
(1.91842 0.95767 0)
(1.92797 0.950079 0)
(1.93613 0.943543 0)
(1.94338 0.937398 0)
(1.95143 0.930943 0)
(1.96054 0.924221 0)
(1.97034 0.91704 0)
(1.98022 0.909336 0)
(3 -1.44778e-15 0)
(3 -1.61294e-15 0)
(3 8.80441e-13 0)
(3 2.24785e-07 0)
(2.99987 0.00204461 0)
(2.8817 0.313316 0)
(2.10677 0.904456 0)
(1.88639 0.978202 0)
(1.88578 0.979663 0)
(1.89328 0.97642 0)
(1.90473 0.970847 0)
(1.91278 0.964622 0)
(1.92197 0.95681 0)
(1.93052 0.950208 0)
(1.93706 0.945101 0)
(1.94377 0.939131 0)
(1.95247 0.931981 0)
(1.96211 0.924882 0)
(1.972 0.917801 0)
(1.98179 0.910366 0)
(3 -4.56794e-16 0)
(3 -1.74423e-15 0)
(3 3.33124e-16 0)
(3 1.5653e-09 0)
(2.99998 6.52341e-05 0)
(3.00962 0.0481667 0)
(2.36734 0.763961 0)
(1.89963 0.996033 0)
(1.8843 0.986046 0)
(1.8907 0.981892 0)
(1.90069 0.976055 0)
(1.91156 0.968941 0)
(1.92125 0.961066 0)
(1.92844 0.9551 0)
(1.93471 0.949995 0)
(1.94281 0.943274 0)
(1.9525 0.935596 0)
(1.96207 0.928448 0)
(1.97124 0.921481 0)
(1.98024 0.914337 0)
(3 -1.19014e-15 0)
(3 -9.62377e-16 0)
(3 -2.00794e-15 0)
(3 6.97052e-12 0)
(3 9.26246e-07 0)
(3.00027 0.00462856 0)
(2.76655 0.4367 0)
(2.06607 0.93737 0)
(1.89164 0.978298 0)
(1.89186 0.978348 0)
(1.90074 0.974583 0)
(1.9137 0.967801 0)
(1.92403 0.960855 0)
(1.93033 0.956041 0)
(1.9359 0.950907 0)
(1.94492 0.943353 0)
(1.95541 0.935394 0)
(1.96456 0.929036 0)
(1.97258 0.923034 0)
(1.98073 0.916494 0)
(3 -1.55386e-15 0)
(3 -8.10847e-16 0)
(3 -1.61939e-15 0)
(3 1.57786e-14 0)
(3 7.15199e-09 0)
(2.99994 0.000197507 0)
(2.99785 0.0874656 0)
(2.2964 0.80686 0)
(1.90541 0.994366 0)
(1.89026 0.982458 0)
(1.89674 0.978695 0)
(1.90925 0.971519 0)
(1.92001 0.964889 0)
(1.92726 0.960729 0)
(1.9356 0.954561 0)
(1.9459 0.946328 0)
(1.95537 0.939163 0)
(1.96314 0.933534 0)
(1.97077 0.927458 0)
(1.97895 0.920876 0)
(3 4.19558e-16 0)
(3 5.53867e-16 0)
(3 -8.19887e-16 0)
(3 -2.81526e-15 0)
(3 3.76198e-11 0)
(3 3.48623e-06 0)
(3.00138 0.009534 0)
(2.65306 0.544226 0)
(2.02439 0.969699 0)
(1.89425 0.98094 0)
(1.89656 0.977974 0)
(1.90744 0.97097 0)
(1.91805 0.965383 0)
(1.9262 0.961609 0)
(1.93625 0.955561 0)
(1.9478 0.947285 0)
(1.95735 0.940487 0)
(1.96391 0.935683 0)
(1.9704 0.930196 0)
(1.97863 0.923742 0)
(3 1.546e-15 0)
(3 2.51007e-16 0)
(3 -1.94828e-15 0)
(3 -3.04311e-15 0)
(3 1.06641e-13 0)
(3 3.05372e-08 0)
(2.99987 0.000564988 0)
(2.97764 0.141658 0)
(2.22543 0.850655 0)
(1.91856 0.979534 0)
(1.90615 0.981437 0)
(1.91141 0.973717 0)
(1.91788 0.968058 0)
(1.9256 0.963486 0)
(1.93799 0.955933 0)
(1.94913 0.948864 0)
(1.95591 0.944805 0)
(1.96186 0.940434 0)
(1.97033 0.933499 0)
(1.97973 0.925891 0)
(3 -7.12987e-16 0)
(3 -1.67363e-15 0)
(3 -2.18218e-15 0)
(3 -1.58921e-15 0)
(3 -6.669e-16 0)
(3 1.96529e-10 0)
(2.99999 1.23483e-05 0)
(3.0033 0.0180062 0)
(2.57677 0.622317 0)
(1.95093 0.985783 0)
(1.90745 0.98586 0)
(1.91064 0.980852 0)
(1.91718 0.973051 0)
(1.92613 0.966046 0)
(1.93748 0.958442 0)
(1.94652 0.952633 0)
(1.9532 0.948942 0)
(1.96072 0.943979 0)
(1.97052 0.936783 0)
(1.98042 0.929006 0)
(3 -6.77597e-16 0)
(3 -9.10846e-16 0)
(3 -9.58085e-16 0)
(3 -7.05111e-16 0)
(3 -8.4391e-16 0)
(3 6.83317e-13 0)
(3 1.33868e-07 0)
(2.99977 0.00128535 0)
(2.94437 0.218586 0)
(2.17811 0.872746 0)
(1.91783 0.97305 0)
(1.91432 0.976219 0)
(1.91926 0.974269 0)
(1.9312 0.966994 0)
(1.94114 0.959025 0)
(1.94748 0.954794 0)
(1.95285 0.951443 0)
(1.96185 0.945039 0)
(1.97296 0.936951 0)
(1.98285 0.929657 0)
(3 -4.07049e-17 0)
(3 -1.50332e-15 0)
(3 -1.17156e-15 0)
(3 -1.72913e-15 0)
(3 -1.55865e-15 0)
(3 -5.66596e-16 0)
(3 9.34481e-10 0)
(2.99999 3.58524e-05 0)
(3.00548 0.0300655 0)
(2.4908 0.69291 0)
(1.93334 0.985236 0)
(1.91162 0.985399 0)
(1.9172 0.981348 0)
(1.92768 0.973051 0)
(1.93828 0.964601 0)
(1.94455 0.960684 0)
(1.95155 0.956112 0)
(1.96213 0.948376 0)
(1.97276 0.940192 0)
(1.98148 0.933424 0)
(3 -1.17498e-15 0)
(3 -2.20543e-15 0)
(3 -3.22019e-15 0)
(3 -1.78302e-15 0)
(3 -1.70534e-15 0)
(3 -1.4499e-15 0)
(3 3.78873e-12 0)
(3 4.57383e-07 0)
(2.9997 0.00256226 0)
(2.88339 0.309819 0)
(2.14458 0.895338 0)
(1.92061 0.973444 0)
(1.91962 0.975322 0)
(1.92718 0.97193 0)
(1.93981 0.964812 0)
(1.94624 0.961137 0)
(1.95411 0.955404 0)
(1.96536 0.947202 0)
(1.97497 0.940192 0)
(1.98235 0.934766 0)
(3 -2.24804e-15 0)
(3 -2.69956e-15 0)
(3 -3.10612e-15 0)
(3 -1.90754e-15 0)
(3 -3.79188e-16 0)
(3 -3.91972e-16 0)
(3 8.28075e-15 0)
(3 3.5534e-09 0)
(2.99997 8.79374e-05 0)
(3.00516 0.049056 0)
(2.41399 0.744717 0)
(1.93466 0.989297 0)
(1.91818 0.981777 0)
(1.92468 0.977391 0)
(1.93449 0.97047 0)
(1.94379 0.965785 0)
(1.95406 0.959293 0)
(1.96427 0.951378 0)
(1.97216 0.944929 0)
(1.97925 0.939689 0)
(3 -1.04532e-15 0)
(3 -8.3146e-16 0)
(3 -1.60133e-15 0)
(3 -2.54848e-15 0)
(3 -2.23563e-15 0)
(3 -1.05723e-15 0)
(3 1.20908e-15 0)
(3 1.7391e-11 0)
(3 1.32117e-06 0)
(2.99981 0.00484552 0)
(2.80012 0.404749 0)
(2.11282 0.922671 0)
(1.92661 0.972765 0)
(1.92669 0.973291 0)
(1.93414 0.969651 0)
(1.94545 0.964818 0)
(1.95698 0.958121 0)
(1.96622 0.951504 0)
(1.97278 0.946256 0)
(1.97952 0.941054 0)
(3 1.11807e-16 0)
(3 1.27748e-15 0)
(3 -5.18011e-17 0)
(3 -1.69405e-15 0)
(3 -2.52621e-15 0)
(3 -7.97458e-16 0)
(3 6.46715e-16 0)
(3 4.72395e-14 0)
(3 1.11954e-08 0)
(2.99993 0.000212721 0)
(2.99809 0.0771635 0)
(2.35212 0.783612 0)
(1.94217 0.9849 0)
(1.92706 0.979793 0)
(1.93175 0.976103 0)
(1.94188 0.969731 0)
(1.95429 0.961672 0)
(1.96312 0.95551 0)
(1.97003 0.950984 0)
(1.97791 0.945598 0)
(3 -2.28139e-16 0)
(3 1.98173e-16 0)
(3 1.89559e-16 0)
(3 -2.72706e-16 0)
(3 -1.33571e-15 0)
(3 5.24042e-16 0)
(3 2.4082e-15 0)
(3 4.02095e-15 0)
(3 6.52314e-11 0)
(3 3.87844e-06 0)
(3.00032 0.00845884 0)
(2.71253 0.488851 0)
(2.0821 0.942529 0)
(1.93535 0.976442 0)
(1.93415 0.975069 0)
(1.94245 0.968234 0)
(1.95424 0.960164 0)
(1.96248 0.955496 0)
(1.97028 0.951696 0)
(1.97946 0.946059 0)
(3 -1.61729e-15 0)
(3 -1.99316e-15 0)
(3 -1.45846e-15 0)
(3 -2.56227e-16 0)
(3 -5.93419e-16 0)
(3 -1.21716e-15 0)
(3 1.36479e-15 0)
(3 2.20141e-15 0)
(3 2.10298e-13 0)
(3 3.67021e-08 0)
(2.99987 0.000470168 0)
(2.98352 0.112978 0)
(2.29635 0.812015 0)
(1.95566 0.984648 0)
(1.93475 0.977105 0)
(1.94034 0.972926 0)
(1.951 0.964687 0)
(1.96007 0.958683 0)
(1.96919 0.953859 0)
(1.97882 0.948065 0)
(3 -3.39298e-15 0)
(3 -2.806e-15 0)
(3 -1.04829e-15 0)
(3 -2.91909e-16 0)
(3 7.10058e-16 0)
(3 1.82943e-15 0)
(3 3.06017e-15 0)
(3 2.50049e-15 0)
(3 1.29122e-15 0)
(3 2.47801e-10 0)
(3 1.01449e-05 0)
(3.00129 0.0134289 0)
(2.63195 0.555917 0)
(2.05162 0.962808 0)
(1.94032 0.978618 0)
(1.94287 0.975326 0)
(1.95092 0.967854 0)
(1.95912 0.961177 0)
(1.9681 0.955056 0)
(1.97759 0.948757 0)
(3 -2.33392e-15 0)
(3 -2.61754e-15 0)
(3 -2.45378e-15 0)
(3 -9.3399e-16 0)
(3 1.0443e-15 0)
(3 4.14883e-15 0)
(3 3.92307e-15 0)
(3 2.87386e-15 0)
(3 -1.16637e-15 0)
(3 9.12114e-13 0)
(3 1.07059e-07 0)
(2.99979 0.000906781 0)
(2.96488 0.154104 0)
(2.23956 0.843971 0)
(1.96571 0.97289 0)
(1.95182 0.977329 0)
(1.95584 0.970565 0)
(1.96195 0.962938 0)
(1.96933 0.955737 0)
(1.97761 0.949453 0)
(2.58524 0.036254 0)
(2.58611 0.036556 0)
(2.58715 0.0369165 0)
(2.58925 0.0378259 0)
(2.59091 0.0385717 0)
(2.59152 0.0386115 0)
(2.5923 0.0384847 0)
(2.59272 0.0379761 0)
(2.59199 0.0360583 0)
(2.59101 0.0334751 0)
(2.59121 0.0323877 0)
(2.59186 0.0320714 0)
(2.59271 0.0318064 0)
(2.59363 0.0314763 0)
(2.59453 0.0312354 0)
(2.59537 0.031153 0)
(2.59578 0.0310978 0)
(2.59507 0.0307208 0)
(2.59443 0.0304944 0)
(2.59474 0.0307894 0)
(2.59506 0.0315266 0)
(2.5957 0.032294 0)
(2.59654 0.0332948 0)
(2.5974 0.0339947 0)
(2.59768 0.0340942 0)
(2.59791 0.0340615 0)
(2.59809 0.0340349 0)
(2.59817 0.0339991 0)
(2.59784 0.0338277 0)
(2.59649 0.0333092 0)
(2.59512 0.0330898 0)
(2.59492 0.033308 0)
(2.5949 0.0338699 0)
(2.59523 0.0349232 0)
(2.59605 0.0358937 0)
(2.59643 0.0360065 0)
(2.59621 0.0357663 0)
(2.59597 0.0355047 0)
(2.59569 0.0351731 0)
(2.59515 0.0347231 0)
(2.59449 0.0342206 0)
(2.59412 0.034133 0)
(1.97287 0.725626 0)
(1.97901 0.721565 0)
(1.98349 0.719137 0)
(1.99124 0.71298 0)
(2.00155 0.703769 0)
(2.00811 0.698168 0)
(2.01078 0.699067 0)
(2.01468 0.69665 0)
(2.02545 0.688142 0)
(2.03576 0.677106 0)
(2.04092 0.674086 0)
(2.04251 0.675754 0)
(2.04928 0.670613 0)
(2.06324 0.659132 0)
(2.07588 0.647429 0)
(2.07339 0.649575 0)
(2.06039 0.658141 0)
(1.98947 0.698514 0)
(1.89735 0.74694 0)
(1.84619 0.767844 0)
(1.84479 0.767448 0)
(1.85133 0.763319 0)
(1.86676 0.754721 0)
(1.88421 0.743563 0)
(1.89467 0.738883 0)
(1.90397 0.735379 0)
(1.91836 0.726609 0)
(1.93471 0.714837 0)
(1.94577 0.707492 0)
(1.95199 0.705091 0)
(1.96021 0.701073 0)
(1.97582 0.690293 0)
(1.99478 0.67535 0)
(2.00747 0.666376 0)
(2.01316 0.664285 0)
(2.01784 0.66251 0)
(2.03078 0.653427 0)
(2.0501 0.637348 0)
(2.06552 0.624296 0)
(2.07301 0.62019 0)
(2.07594 0.619705 0)
(2.08523 0.61321 0)
(2.10289 0.598738 0)
(2.12024 0.582696 0)
(2.13008 0.574951 0)