/*--------------------------------*- C++ -*----------------------------------*\
  =========                 |
  \\      /  F ield         | OpenFOAM: The Open Source CFD Toolbox
   \\    /   O peration     | Website:  https://openfoam.org
    \\  /    A nd           | Version:  7
     \\/     M anipulation  |
\*---------------------------------------------------------------------------*/
FoamFile
{
    version     2.0;
    format      ascii;
    class       volScalarField;
    location    "2.3";
    object      T;
}
// * * * * * * * * * * * * * * * * * * * * * * * * * * * * * * * * * * * * * //

dimensions      [0 0 0 1 0 0 0];

internalField   nonuniform List<scalar> 
4128
(
1.96314
1.94561
1.94508
1.94978
1.96772
1.99207
1.99606
1.99371
1.98151
1.97514
1.97447
1.98115
1.9939
1.99625
1.99282
1.98319
1.97633
1.97465
1.97666
1.98155
1.98085
1.97477
1.965
1.95705
1.95381
1.95371
1.95596
1.95525
1.94962
1.94178
1.93451
1.93105
1.9302
1.93144
1.9315
1.92817
1.92358
1.91838
1.91467
1.91189
1.90953
1.90665
1.90352
1.90045
1.89752
1.89503
1.89271
1.8902
1.88737
1.8837
1.8791
1.87523
1.87268
1.87198
1.87291
1.87397
1.87282
1.87075
1.86803
1.86415
1.86023
1.85764
1.85617
1.85511
1.85448
1.85421
1.85328
1.85157
1.84904
1.8457
1.8423
1.83832
1.83207
1.83415
2.26975
2.92591
3.016
2.99632
2.96715
2.9383
2.9179
2.89867
2.87381
2.84633
2.81999
2.79654
2.77742
2.76319
2.75221
2.74081
2.72845
2.7174
2.70904
2.70351
2.69805
2.68989
2.68005
2.67058
2.66196
2.6547
2.64596
2.6342
2.62168
2.60859
2.59802
2.59046
2.58537
2.58552
2.58813
2.58894
2.58266
2.57011
2.5513
2.53001
2.51597
2.50776
2.50338
2.50443
2.50982
2.51407
2.50976
2.50006
2.48595
2.46399
2.44715
2.43972
2.43567
2.43726
2.44267
1.8841
1.8895
1.89259
1.89877
1.90612
1.91789
1.93379
1.94485
1.94709
1.94555
1.94288
1.94233
1.94371
1.9501
1.9556
1.95588
1.9533
1.94859
1.94626
1.94585
1.94707
1.94763
1.94562
1.94048
1.9347
1.93046
1.92847
1.9286
1.92869
1.9262
1.92175
1.91623
1.91188
1.90958
1.90934
1.90941
1.90735
1.90448
1.9006
1.89635
1.89312
1.89059
1.88865
1.88654
1.88432
1.88211
1.87984
1.87754
1.87517
1.87271
1.87018
1.86695
1.86357
1.86097
1.85901
1.85763
1.85717
1.85629
1.85484
1.85332
1.85196
1.85015
1.84782
1.84538
1.84331
1.84203
1.84118
1.84026
1.83832
1.83567
1.83208
1.82593
1.82794
1.86031
2.1847
2.79427
2.95233
2.92676
2.89244
2.86988
2.8593
2.84924
2.83349
2.81065
2.78562
2.76209
2.74399
2.73271
2.72777
2.72255
2.71096
2.69736
2.68502
2.67474
2.66669
2.65861
2.65056
2.64269
2.63569
2.63151
2.63081
2.62693
2.61858
2.60796
2.59459
2.58262
2.57451
2.569
2.56634
2.56264
2.55763
2.55158
2.54359
2.53376
2.52077
2.50814
2.49983
2.49524
2.49337
2.49137
2.48825
2.48199
2.47286
2.46401
2.45255
2.44084
2.4336
2.43124
2.42819
1.74821
1.79221
1.81542
1.82033
1.81754
1.81206
1.81693
1.82967
1.85115
1.8658
1.86997
1.86742
1.86056
1.86125
1.86691
1.87783
1.88658
1.88827
1.88633
1.87902
1.87529
1.87594
1.87947
1.88253
1.8825
1.87969
1.87315
1.86881
1.86798
1.86894
1.86979
1.86869
1.86592
1.861
1.85726
1.85611
1.85576
1.85629
1.85578
1.85446
1.8518
1.84825
1.84579
1.84427
1.84292
1.84162
1.83998
1.8373
1.83424
1.83246
1.8317
1.83174
1.83172
1.83049
1.82815
1.82453
1.82045
1.81752
1.81639
1.81617
1.81641
1.81683
1.81669
1.81621
1.81506
1.81275
1.80975
1.80748
1.80583
1.80351
1.79931
1.80241
1.8315
1.97547
2.15663
2.4772
2.75112
2.80355
2.78697
2.76862
2.75641
2.74613
2.73934
2.72858
2.71179
2.69074
2.67378
2.66379
2.66147
2.66322
2.66107
2.65166
2.64063
2.62864
2.6162
2.60459
2.595
2.588
2.58276
2.58077
2.58347
2.58654
2.58514
2.58008
2.57324
2.56326
2.54995
2.53701
2.52698
2.51895
2.51299
2.5104
2.51187
2.51209
2.5074
2.49996
2.48893
2.47433
2.46178
2.45433
2.44957
2.447
2.44669
2.44634
2.44199
2.43591
2.42664
2.41613
2.40386
1.62114
1.66583
1.70061
1.7204
1.72703
1.72777
1.73235
1.74244
1.76096
1.77255
1.77473
1.77399
1.76996
1.7701
1.77513
1.7856
1.79556
1.79816
1.79802
1.79504
1.79348
1.79418
1.79793
1.80189
1.80254
1.80144
1.79835
1.79602
1.79528
1.79573
1.7968
1.79634
1.79485
1.79207
1.78931
1.78796
1.78773
1.78778
1.78798
1.78789
1.78701
1.78545
1.78385
1.78253
1.78194
1.78179
1.78139
1.78007
1.77776
1.77578
1.77489
1.77458
1.77434
1.77351
1.77197
1.76951
1.76702
1.76572
1.76512
1.76454
1.76401
1.76377
1.76375
1.76369
1.76326
1.76195
1.75942
1.75713
1.75561
1.75296
1.75725
1.78956
1.90382
2.10952
2.16351
2.20293
2.41341
2.6071
2.66802
2.67399
2.65885
2.64074
2.63391
2.63197
2.6243
2.61096
2.59464
2.58623
2.58246
2.58353
2.58525
2.5816
2.57497
2.56735
2.55809
2.54807
2.53859
2.53199
2.52839
2.52694
2.52795
2.53087
2.53331
2.53314
2.53037
2.52453
2.51362
2.49823
2.48376
2.47316
2.46619
2.46413
2.46955
2.47651
2.47791
2.47322
2.46467
2.44973
2.43071
2.41668
2.40993
2.4072
2.41052
2.41713
2.41911
2.41616
2.40986
2.39867
2.37743
1.53823
1.57118
1.60647
1.63334
1.65085
1.66024
1.66946
1.68167
1.69574
1.70835
1.7144
1.71609
1.71511
1.71501
1.71871
1.72519
1.72907
1.72976
1.7295
1.72967
1.73177
1.73456
1.73532
1.73535
1.73463
1.73383
1.73392
1.73501
1.73627
1.73614
1.73511
1.73283
1.73074
1.73037
1.73048
1.73044
1.73009
1.72911
1.72756
1.72666
1.72666
1.72707
1.72741
1.72743
1.72651
1.72429
1.72247
1.72186
1.72175
1.72171
1.72208
1.72198
1.72089
1.7179
1.71449
1.71254
1.7121
1.71218
1.71245
1.71246
1.71202
1.71109
1.7103
1.71004
1.70997
1.70965
1.70769
1.70494
1.70377
1.70939
1.7402
1.85534
2.04003
2.14613
2.14355
2.13298
2.17406
2.35219
2.52587
2.60322
2.59819
2.58959
2.5792
2.57777
2.57422
2.56852
2.55756
2.54615
2.53921
2.53638
2.53648
2.53326
2.52762
2.52136
2.51559
2.50975
2.50321
2.49645
2.49152
2.48918
2.48852
2.48874
2.49087
2.4927
2.49057
2.48496
2.47542
2.46157
2.44757
2.43797
2.43287
2.43222
2.43758
2.44297
2.44228
2.43759
2.43028
2.41815
2.40284
2.38966
2.38208
2.37827
2.38036
2.38763
2.39103
2.38896
2.3843
2.37566
2.35634
1.51147
1.51705
1.53363
1.5596
1.58977
1.60989
1.62493
1.63916
1.65157
1.66312
1.6711
1.6767
1.68334
1.68779
1.68876
1.689
1.68994
1.69241
1.69554
1.69978
1.70218
1.70262
1.7013
1.6998
1.69994
1.7015
1.70439
1.7058
1.70508
1.70264
1.69827
1.69538
1.69516
1.69579
1.69707
1.69685
1.69569
1.69324
1.69128
1.69113
1.6916
1.69268
1.69271
1.69196
1.68943
1.68679
1.68637
1.68659
1.68799
1.68954
1.68923
1.6874
1.6837
1.67982
1.67809
1.67782
1.67813
1.67805
1.67756
1.67668
1.67548
1.675
1.67501
1.67505
1.67477
1.67312
1.66936
1.66889
1.67376
1.70479
1.81365
1.98186
2.11651
2.136
2.13522
2.12905
2.13385
2.17556
2.32524
2.50333
2.56624
2.56696
2.56275
2.56253
2.56193
2.5583
2.55216
2.53967
2.52854
2.52185
2.51687
2.51147
2.50626
2.50173
2.49904
2.4981
2.4957
2.49019
2.48128
2.47167
2.46589
2.46228
2.46071
2.46008
2.45815
2.4531
2.44652
2.4395
2.43187
2.42463
2.4186
2.41458
2.41152
2.40922
2.40611
2.40154
2.39528
2.3883
2.38121
2.37333
2.36596
2.36164
2.36053
2.3615
2.36139
2.35928
2.35507
2.34927
2.3382
1.51647
1.50853
1.50778
1.51415
1.53146
1.55682
1.58236
1.6068
1.62322
1.63174
1.63961
1.64959
1.66266
1.67201
1.67325
1.67243
1.67202
1.67455
1.67868
1.68397
1.68674
1.68719
1.68634
1.6848
1.68526
1.68745
1.69055
1.69125
1.69087
1.68977
1.68712
1.68556
1.68527
1.68508
1.68491
1.68467
1.68325
1.68116
1.6805
1.67999
1.67943
1.67887
1.6778
1.67545
1.67338
1.67323
1.67379
1.67524
1.67534
1.67489
1.67333
1.67014
1.66696
1.66598
1.6657
1.66507
1.66411
1.66284
1.66087
1.65981
1.65967
1.65965
1.65922
1.65765
1.65495
1.65206
1.65225
1.65654
1.689
1.80588
1.94931
2.07085
2.13461
2.14516
2.1446
2.14093
2.14267
2.14488
2.17451
2.30573
2.4908
2.5533
2.56111
2.56007
2.56103
2.55679
2.55175
2.54393
2.53464
2.5246
2.5133
2.50341
2.49591
2.49081
2.4905
2.49452
2.49614
2.49046
2.48127
2.46812
2.45483
2.44609
2.44031
2.43619
2.43314
2.43205
2.43103
2.42892
2.42578
2.42096
2.41329
2.40176
2.38899
2.38123
2.37633
2.37241
2.36983
2.36894
2.36833
2.36569
2.36078
2.35347
2.34415
2.33637
2.3316
2.32877
2.32697
2.32543
2.32139
1.55559
1.53336
1.51606
1.51323
1.51687
1.52578
1.53922
1.55782
1.58138
1.60366
1.61729
1.62921
1.64515
1.66171
1.66795
1.6691
1.66802
1.66887
1.67214
1.67723
1.68106
1.68284
1.68323
1.68267
1.68282
1.68444
1.68611
1.68633
1.68637
1.68671
1.68712
1.68672
1.6852
1.68291
1.6811
1.68057
1.68057
1.68081
1.68049
1.67941
1.67774
1.67509
1.6728
1.6725
1.67259
1.673
1.67308
1.67302
1.67256
1.67079
1.66818
1.6671
1.667
1.66666
1.66572
1.66406
1.66093
1.65822
1.65741
1.65698
1.65642
1.65544
1.65389
1.65107
1.64747
1.64718
1.65113
1.68615
1.8135
1.96629
2.04823
2.11485
2.15251
2.16416
2.16301
2.15828
2.1564
2.1534
2.14974
2.16621
2.28217
2.46535
2.54913
2.56088
2.5612
2.55364
2.54861
2.54442
2.54169
2.53303
2.52073
2.50368
2.48871
2.48185
2.47948
2.48393
2.48877
2.4864
2.47882
2.46854
2.45448
2.43976
2.42824
2.42057
2.41532
2.4133
2.41582
2.41924
2.41881
2.41243
2.40472
2.39348
2.37717
2.36329
2.35605
2.3518
2.35096
2.35466
2.35745
2.35596
2.35019
2.343
2.33255
2.31824
2.30747
2.30295
2.30053
2.30107
2.3034
1.59226
1.57284
1.55505
1.54321
1.53398
1.52911
1.52682
1.52939
1.54098
1.56126
1.58765
1.61399
1.63253
1.64611
1.65693
1.6677
1.67301
1.67506
1.67688
1.67853
1.67985
1.68146
1.68408
1.68779
1.69075
1.69133
1.6903
1.6883
1.68746
1.68757
1.68941
1.6919
1.69149
1.68958
1.68574
1.68282
1.68193
1.68201
1.68294
1.68263
1.68139
1.67869
1.67584
1.67494
1.67475
1.67504
1.67499
1.67478
1.67387
1.67176
1.67037
1.66987
1.66925
1.66845
1.66736
1.66564
1.66333
1.6615
1.66009
1.6585
1.65684
1.65509
1.65245
1.64996
1.64962
1.65305
1.69019
1.81726
1.98366
2.05466
2.10219
2.1487
2.17342
2.17545
2.17281
2.16875
2.16526
2.15965
2.15148
2.1403
2.14549
2.24008
2.42163
2.52585
2.54695
2.54161
2.53066
2.52854
2.5318
2.53139
2.52159
2.50597
2.48461
2.47013
2.46336
2.46206
2.4651
2.46685
2.46374
2.45683
2.44786
2.43611
2.42136
2.40733
2.39819
2.39242
2.39186
2.39609
2.39822
2.39252
2.38501
2.3762
2.36381
2.35047
2.34208
2.33719
2.33613
2.3382
2.3389
2.33546
2.32928
2.32268
2.31447
2.30267
2.28903
2.27989
2.27569
2.27497
2.27726
1.63864
1.61477
1.60325
1.59273
1.57701
1.55694
1.54304
1.54167
1.54219
1.54645
1.55962
1.57987
1.60553
1.62664
1.64014
1.65307
1.66748
1.68172
1.68679
1.68701
1.68622
1.68594
1.68724
1.69124
1.69749
1.69986
1.6998
1.69747
1.69532
1.69503
1.69625
1.69897
1.69963
1.69882
1.69576
1.69225
1.69062
1.68993
1.6898
1.68968
1.68884
1.68724
1.68534
1.68402
1.68334
1.68289
1.68244
1.68151
1.6798
1.67845
1.67784
1.6772
1.67634
1.67509
1.6733
1.67118
1.66956
1.66817
1.66653
1.66465
1.66239
1.65918
1.65582
1.65516
1.65854
1.69613
1.83158
1.98837
2.06745
2.10698
2.15033
2.17919
2.18463
2.17895
2.17202
2.16806
2.16657
2.16108
2.14988
2.1336
2.12392
2.11645
2.18826
2.34519
2.47152
2.49928
2.49613
2.49235
2.49422
2.49883
2.49549
2.48358
2.47182
2.45783
2.4447
2.43517
2.42829
2.42525
2.42494
2.42482
2.42192
2.41483
2.40517
2.39156
2.37733
2.36746
2.36039
2.35885
2.36021
2.35776
2.35063
2.34338
2.33515
2.3263
2.31924
2.31476
2.31213
2.30965
2.30556
2.30062
2.29531
2.28921
2.28229
2.27393
2.26399
2.25431
2.24696
2.24359
2.24037
1.70678
1.6786
1.64752
1.62798
1.6141
1.59837
1.58309
1.57232
1.5634
1.56003
1.55898
1.5614
1.57274
1.58997
1.61248
1.6328
1.65125
1.66851
1.68519
1.69545
1.69659
1.6953
1.69532
1.69757
1.70097
1.70361
1.70502
1.70575
1.70588
1.70688
1.70832
1.70833
1.70787
1.70683
1.70501
1.70363
1.70297
1.70219
1.70104
1.69989
1.69865
1.69772
1.69702
1.6963
1.69542
1.69423
1.69255
1.69077
1.68972
1.68913
1.68857
1.6878
1.68666
1.68482
1.68241
1.68063
1.67923
1.67758
1.67564
1.67334
1.67024
1.6668
1.66517
1.66824
1.70479
1.83629
2.01221
2.07891
2.09645
2.13561
2.17749
2.19299
2.19066
2.17695
2.16434
2.15533
2.15294
2.14997
2.13878
2.12429
2.10684
2.09205
2.08036
2.11696
2.24176
2.37086
2.41724
2.43736
2.44147
2.44152
2.43731
2.42738
2.42341
2.41794
2.41076
2.39962
2.38746
2.37901
2.37359
2.37242
2.37355
2.37123
2.36474
2.35515
2.3414
2.32871
2.32018
2.31366
2.31067
2.30916
2.30521
2.29992
2.29492
2.29037
2.28571
2.27966
2.27206
2.26484
2.25891
2.25362
2.24903
2.24434
2.23902
2.23322
2.22697
2.21986
2.2117
2.20399
2.19564
1.75696
1.73491
1.70862
1.68449
1.65656
1.63015
1.61923
1.61224
1.60142
1.58792
1.57596
1.57316
1.57368
1.57611
1.58423
1.59895
1.62119
1.64375
1.6626
1.67757
1.69357
1.70253
1.70375
1.70444
1.70455
1.70538
1.70615
1.70814
1.71307
1.71694
1.71745
1.71601
1.71369
1.71219
1.71179
1.71218
1.71272
1.71202
1.71029
1.70834
1.70732
1.70682
1.70662
1.70578
1.70463
1.70305
1.70099
1.69958
1.69889
1.69826
1.69748
1.69646
1.69502
1.6929
1.6906
1.68893
1.68751
1.68587
1.68379
1.68119
1.67812
1.67563
1.67847
1.7215
1.84583
2.00677
2.08891
2.10893
2.13289
2.16272
2.18821
2.18947
2.18212
2.16462
2.14728
2.13325
2.12325
2.11553
2.10636
2.09457
2.07923
2.0626
2.04372
2.03304
2.04201
2.12042
2.23904
2.31448
2.35336
2.36597
2.37256
2.37115
2.36333
2.35742
2.35182
2.34356
2.33203
2.3231
2.31749
2.31403
2.31465
2.31495
2.31043
2.30365
2.29347
2.28049
2.26879
2.26034
2.25406
2.25013
2.24822
2.24741
2.24625
2.24391
2.23993
2.23368
2.22403
2.21212
2.2034
2.19807
2.19379
2.19048
2.18772
2.18454
2.18044
2.17524
2.16836
2.15993
2.14739
1.79833
1.77041
1.75147
1.73325
1.70898
1.68152
1.65258
1.6377
1.62922
1.6175
1.60514
1.59474
1.58698
1.58161
1.57965
1.58139
1.58903
1.60486
1.62819
1.64789
1.66672
1.68336
1.69952
1.70644
1.70586
1.70321
1.70386
1.7076
1.71496
1.71919
1.71945
1.71799
1.71471
1.71399
1.7144
1.71599
1.71697
1.71619
1.71431
1.71236
1.7114
1.71087
1.71069
1.70975
1.70846
1.70681
1.70473
1.70344
1.70267
1.70196
1.70119
1.70019
1.69877
1.69673
1.6945
1.69267
1.69094
1.68914
1.68714
1.68502
1.68248
1.68525
1.7225
1.87874
2.0127
2.088
2.10688
2.12227
2.15193
2.17129
2.17102
2.16813
2.1576
2.14191
2.1236
2.10493
2.08611
2.06829
2.05591
2.04751
2.03893
2.02716
2.0091
1.98999
1.98058
1.96754
2.00809
2.10621
2.20878
2.2536
2.28516
2.30338
2.31104
2.30792
2.29714
2.28821
2.27722
2.26681
2.25934
2.25523
2.25454
2.25519
2.2534
2.24835
2.24155
2.23267
2.22197
2.21034
2.20035
2.19454
2.19105
2.19012
2.19199
2.19221
2.18855
2.18365
2.17619
2.16445
2.15132
2.1428
2.13829
2.13507
2.13309
2.13234
2.13098
2.12745
2.12306
2.11747
2.10487
1.83997
1.81014
1.78157
1.76117
1.7416
1.72044
1.69644
1.67629
1.65772
1.63879
1.6264
1.61959
1.61101
1.59552
1.58257
1.58084
1.58181
1.58461
1.59205
1.60647
1.62622
1.64515
1.66413
1.68054
1.68955
1.69572
1.70184
1.70645
1.71168
1.71281
1.71287
1.71172
1.71062
1.71165
1.71298
1.71432
1.71448
1.71363
1.71199
1.71084
1.7103
1.71014
1.70992
1.70891
1.70772
1.70616
1.70463
1.70366
1.70279
1.70203
1.70136
1.70048
1.69912
1.69724
1.69513
1.69318
1.69129
1.68907
1.68649
1.68485
1.68813
1.72509
1.85893
2.03486
2.08672
2.09289
2.1028
2.12362
2.15292
2.1638
2.15893
2.14614
2.12776
2.10813
2.08796
2.06684
2.04671
2.02788
2.01178
2.00111
1.99267
1.98368
1.97264
1.95651
1.94068
1.92937
1.91359
1.92298
1.98437
2.07625
2.15782
2.20745
2.22968
2.25412
2.25396
2.24917
2.2369
2.2221
2.21111
2.20499
2.20134
2.19858
2.19729
2.19677
2.19367
2.1874
2.17957
2.16938
2.15643
2.14573
2.14112
2.13849
2.13843
2.1404
2.13914
2.13563
2.13076
2.12283
2.11081
2.09779
2.08999
2.08656
2.08415
2.08307
2.0837
2.08322
2.08033
2.077
2.06907
1.8643
1.83705
1.81076
1.78759
1.76335
1.74053
1.72378
1.71038
1.69258
1.67269
1.64849
1.63279
1.62421
1.60903
1.59262
1.58163
1.57873
1.57903
1.58165
1.58232
1.58565
1.5961
1.61233
1.63168
1.65051
1.66745
1.68498
1.69442
1.69846
1.69945
1.69848
1.69755
1.69745
1.69993
1.7039
1.70598
1.706
1.70542
1.70432
1.704
1.70418
1.70433
1.70386
1.70304
1.70217
1.70143
1.70122
1.70092
1.70025
1.69928
1.69835
1.69755
1.69653
1.69541
1.69416
1.69248
1.68989
1.68588
1.68263
1.68523
1.72796
1.85717
2.0204
2.0661
2.08003
2.0939
2.10984
2.1307
2.14358
2.13763
2.12863
2.11356
2.09133
2.0699
2.05086
2.02987
2.01032
1.9929
1.97659
1.96133
1.94868
1.93921
1.93246
1.92527
1.91231
1.89877
1.88542
1.87979
1.86585
1.88657
1.95526
2.05066
2.11795
2.16619
2.18732
2.201
2.20102
2.19233
2.18215
2.17016
2.15891
2.15228
2.14852
2.14871
2.15046
2.14854
2.14232
2.13429
2.12274
2.10821
2.0985
2.09465
2.0926
2.09312
2.09514
2.09386
2.09036
2.08517
2.07713
2.06535
2.05278
2.04628
2.04359
2.04186
2.04221
2.04436
2.0434
2.04086
2.0356
1.87587
1.84678
1.82568
1.8045
1.78215
1.75855
1.74108
1.72925
1.71403
1.69734
1.67696
1.6526
1.63149
1.61263
1.59897
1.58971
1.58589
1.582
1.5767
1.57115
1.56682
1.56491
1.56755
1.57841
1.59929
1.62223
1.64863
1.66477
1.67084
1.67675
1.67826
1.67909
1.67991
1.68255
1.68699
1.6897
1.6905
1.69123
1.69245
1.69259
1.69228
1.69212
1.6918
1.69118
1.69061
1.69053
1.69088
1.69088
1.69061
1.68991
1.68876
1.6879
1.68754
1.68719
1.68662
1.68532
1.68308
1.67879
1.68195
1.72134
1.86631
1.99549
2.06819
2.07514
2.07292
2.0861
2.10926
2.11946
2.11051
2.09555
2.0815
2.0686
2.05274
2.03408
2.01615
1.99779
1.97898
1.96103
1.94447
1.92947
1.91517
1.90292
1.89558
1.89146
1.88673
1.87564
1.86211
1.85042
1.84125
1.82812
1.82496
1.85339
1.9254
2.01377
2.08383
2.11823
2.14457
2.14837
2.14978
2.14208
2.13026
2.11943
2.11079
2.10666
2.10866
2.10982
2.10682
2.10149
2.09343
2.08105
2.0671
2.05796
2.05435
2.05262
2.05311
2.05555
2.05506
2.05122
2.04601
2.03878
2.02793
2.01598
2.01017
2.00759
2.00633
2.00732
2.00848
2.00724
2.00229
1.88028
1.85126
1.83102
1.81112
1.79169
1.77049
1.75689
1.74451
1.72684
1.70805
1.68699
1.66515
1.64481
1.62526
1.60751
1.59594
1.59223
1.58752
1.57817
1.56668
1.55344
1.54741
1.54682
1.54713
1.55342
1.56986
1.5931
1.6152
1.62721
1.64049
1.64649
1.65041
1.65654
1.66092
1.66537
1.66883
1.67026
1.67158
1.67351
1.67384
1.67332
1.67231
1.6718
1.67154
1.67182
1.67352
1.67477
1.67493
1.67442
1.67283
1.67202
1.67225
1.67277
1.67283
1.67191
1.67006
1.66748
1.67254
1.71282
1.85094
1.99054
2.05735
2.05671
2.04781
2.05027
2.07005
2.08937
2.08508
2.07348
2.05832
2.04182
2.0274
2.01397
1.99977
1.98501
1.96905
1.95294
1.9367
1.9203
1.90486
1.89098
1.87779
1.86564
1.85814
1.85557
1.85253
1.84137
1.82823
1.81684
1.80426
1.79607
1.78293
1.78629
1.81655
1.89236
1.96945
2.04362
2.07555
2.09476
2.09771
2.0971
2.08998
2.08021
2.07541
2.07276
2.0726
2.07019
2.06675
2.06226
2.05529
2.04433
2.03089
2.02183
2.01845
2.01652
2.01665
2.01895
2.01875
2.0149
2.01014
2.00374
1.99328
1.98135
1.97578
1.97298
1.97119
1.97133
1.97195
1.96739
1.87723
1.85052
1.83292
1.81415
1.79517
1.77488
1.76411
1.75192
1.73333
1.71322
1.68726
1.66493
1.65098
1.63706
1.6225
1.60698
1.59849
1.5917
1.57945
1.56395
1.54667
1.53681
1.53208
1.53005
1.53294
1.53711
1.54342
1.55711
1.57085
1.58713
1.60245
1.61288
1.62397
1.63226
1.63836
1.64477
1.64975
1.65257
1.65297
1.65202
1.6497
1.64808
1.64801
1.64832
1.65058
1.65409
1.65543
1.6556
1.65419
1.65163
1.65139
1.65223
1.65346
1.65368
1.65252
1.65114
1.65628
1.70419
1.83233
1.97854
2.02393
2.02301
2.01963
2.022
2.03476
2.05941
2.06316
2.05306
2.03949
2.02278
2.00448
1.98983
1.9785
1.96713
1.95569
1.94358
1.92882
1.91409
1.9004
1.88634
1.8718
1.85781
1.84495
1.83307
1.8244
1.82157
1.81791
1.80665
1.79452
1.78309
1.77097
1.76189
1.75549
1.74485
1.75051
1.78186
1.84896
1.92633
1.99105
2.02711
2.04288
2.04658
2.04142
2.04188
2.0397
2.04071
2.03799
2.0333
2.0285
2.02435
2.01837
2.00869
1.99596
1.98719
1.98415
1.98213
1.98218
1.98419
1.98311
1.97902
1.97472
1.96836
1.9569
1.9447
1.93936
1.93625
1.93405
1.93424
1.93193
1.86751
1.84469
1.82954
1.81305
1.79537
1.77626
1.76588
1.75255
1.73314
1.71178
1.68487
1.66645
1.65609
1.64389
1.63103
1.6181
1.60962
1.598
1.57935
1.55832
1.5394
1.53192
1.52726
1.52252
1.51801
1.51845
1.52157
1.52105
1.52354
1.52935
1.54511
1.56226
1.58034
1.59591
1.60496
1.61549
1.62572
1.62868
1.62869
1.62727
1.62413
1.62301
1.62346
1.62536
1.63006
1.63314
1.63364
1.63334
1.63082
1.629
1.62945
1.63085
1.632
1.63178
1.63232
1.63948
1.68498
1.83367
1.95937
1.98653
1.991
1.99439
1.99965
2.01594
2.03513
2.04362
2.03469
2.01887
2.00363
1.98919
1.9747
1.96124
1.94977
1.93797
1.92665
1.91683
1.90555
1.89311
1.88156
1.86943
1.85554
1.84063
1.82654
1.8139
1.80231
1.79271
1.78869
1.78387
1.77326
1.76253
1.75114
1.73947
1.7299
1.72237
1.71437
1.70699
1.71317
1.74169
1.79497
1.87078
1.93295
1.97444
1.98557
1.99384
1.99621
2.00196
2.00516
2.00461
1.99991
1.99471
1.98785
1.98074
1.97093
1.95912
1.95247
1.95002
1.94811
1.94859
1.9501
1.94751
1.94332
1.93873
1.93083
1.9173
1.90589
1.90143
1.89862
1.89707
1.8963
1.85439
1.83508
1.82258
1.80904
1.79273
1.77436
1.76345
1.74888
1.72826
1.70478
1.67883
1.66777
1.66029
1.64869
1.63546
1.62217
1.61411
1.60167
1.58186
1.55839
1.53722
1.5301
1.52613
1.5194
1.51242
1.50761
1.50554
1.50272
1.49445
1.48798
1.49074
1.5015
1.5196
1.54497
1.56435
1.57883
1.59299
1.59763
1.59855
1.5988
1.59863
1.59885
1.60118
1.60632
1.61039
1.61072
1.61038
1.60924
1.60694
1.60654
1.6077
1.60903
1.60963
1.61121
1.6227
1.68042
1.80874
1.94061
1.98311
1.97632
1.96658
1.96864
1.98085
2.01257
2.02357
2.02029
2.00722
1.99332
1.9798
1.96444
1.94982
1.93616
1.92201
1.90838
1.89604
1.88788
1.88269
1.87329
1.86194
1.85067
1.83786
1.82298
1.80815
1.79518
1.78339
1.77274
1.76493
1.76022
1.75217
1.74177
1.73126
1.71953
1.70692
1.69751
1.6897
1.68181
1.67439
1.67183
1.67534
1.69389
1.7394
1.8099
1.87351
1.91455
1.93597
1.94456
1.95444
1.96271
1.96913
1.9687
1.9617
1.95396
1.94411
1.93254
1.92159
1.91687
1.91473
1.91358
1.9151
1.91583
1.91258
1.90844
1.9031
1.89309
1.87776
1.86753
1.86412
1.86211
1.86073
1.8421
1.82513
1.81337
1.80077
1.78532
1.7674
1.75542
1.73991
1.71919
1.69544
1.67401
1.66782
1.66144
1.65037
1.63803
1.62414
1.61355
1.59922
1.57947
1.55857
1.53964
1.53276
1.52704
1.51883
1.51116
1.504
1.49828
1.49061
1.47651
1.46706
1.46716
1.47048
1.47644
1.49093
1.51434
1.53409
1.55138
1.56137
1.56364
1.5667
1.56968
1.57322
1.58135
1.58809
1.58931
1.58897
1.58742
1.58496
1.58334
1.58374
1.58498
1.58561
1.58961
1.60251
1.6754
1.81865
1.92708
1.96892
1.96022
1.95003
1.94405
1.95165
1.96889
2.0036
2.00408
1.99849
1.99003
1.9756
1.96112
1.94445
1.92705
1.9104
1.89634
1.88321
1.87033
1.86152
1.85921
1.85362
1.84073
1.82899
1.81698
1.80308
1.78867
1.77603
1.76443
1.75384
1.74514
1.73873
1.73062
1.721
1.71069
1.69925
1.68647
1.674
1.66451
1.65674
1.64861
1.64239
1.63932
1.6385
1.63599
1.64679
1.68648
1.74161
1.80616
1.84805
1.88448
1.90128
1.91237
1.92688
1.93169
1.92921
1.92195
1.91028
1.89713
1.88599
1.88118
1.87892
1.87856
1.8806
1.88145
1.8787
1.87473
1.86877
1.85732
1.84168
1.83266
1.8303
1.82762
1.8339
1.81757
1.80475
1.79312
1.77809
1.75889
1.74498
1.72924
1.71007
1.68778
1.67152
1.66766
1.66116
1.64972
1.63723
1.62321
1.61111
1.59465
1.57512
1.55715
1.54207
1.53692
1.5317
1.52186
1.51246
1.50301
1.49331
1.48163
1.46418
1.45446
1.45206
1.45242
1.45645
1.46054
1.46865
1.48278
1.4948
1.50927
1.51977
1.5276
1.53579
1.54397
1.55687
1.56447
1.56615
1.56632
1.56528
1.56212
1.5604
1.56049
1.56131
1.56732
1.58621
1.65609
1.81698
1.92026
1.94608
1.93507
1.92065
1.92289
1.93128
1.9504
1.97303
1.99353
1.98788
1.97542
1.96724
1.956
1.94192
1.92611
1.90744
1.88887
1.87405
1.86172
1.84937
1.83932
1.83531
1.82978
1.81694
1.80489
1.79316
1.78057
1.76806
1.75654
1.74543
1.73491
1.72545
1.71713
1.70905
1.70043
1.69071
1.67991
1.66812
1.65502
1.6422
1.63278
1.62513
1.61763
1.61102
1.60907
1.60756
1.60477
1.59826
1.60081
1.62462
1.66941
1.73064
1.78837
1.82552
1.86005
1.8744
1.88367
1.88963
1.88717
1.87943
1.86657
1.85361
1.84751
1.84475
1.84443
1.84639
1.84742
1.84559
1.84222
1.83668
1.82552
1.81002
1.80216
1.79771
1.82922
1.81362
1.79909
1.78674
1.77144
1.75163
1.73533
1.72018
1.70325
1.68332
1.66972
1.66628
1.65951
1.64792
1.63476
1.61932
1.60547
1.58866
1.57184
1.55651
1.54415
1.53991
1.53532
1.52579
1.51569
1.50558
1.49169
1.47548
1.45747
1.44695
1.44406
1.44333
1.44429
1.44648
1.44694
1.44511
1.4454
1.44963
1.46262
1.47701
1.49483
1.51095
1.52615
1.53668
1.53963
1.54113
1.54116
1.53891
1.53652
1.5367
1.54404
1.57502
1.65893
1.80556
1.90999
1.91371
1.91455
1.90627
1.90556
1.91582
1.93669
1.96221
1.9768
1.97236
1.95805
1.94422
1.93948
1.93512
1.9242
1.90618
1.88721
1.8681
1.85249
1.8407
1.82911
1.81947
1.81394
1.80561
1.79259
1.78044
1.76885
1.75732
1.74638
1.73613
1.7259
1.71576
1.70497
1.69482
1.68607
1.67797
1.67013
1.66106
1.65083
1.63969
1.62625
1.61196
1.60247
1.59526
1.58821
1.58235
1.58046
1.57961
1.57449
1.57021
1.56147
1.55382
1.56547
1.60344
1.66126
1.72465
1.77277
1.80978
1.83232
1.84104
1.84756
1.8451
1.83603
1.82379
1.81651
1.81443
1.81322
1.81479
1.81469
1.81286
1.81085
1.80659
1.79658
1.78286
1.77167
1.82552
1.81066
1.7952
1.7821
1.76757
1.74701
1.72922
1.71485
1.6999
1.68258
1.66984
1.66607
1.6586
1.64587
1.63182
1.61521
1.60008
1.58474
1.57102
1.55761
1.54687
1.54345
1.53845
1.52863
1.51797
1.50701
1.48958
1.47116
1.45843
1.4491
1.44478
1.44331
1.44202
1.4387
1.43493
1.42893
1.41967
1.41663
1.41912
1.42792
1.44563
1.47019
1.48984
1.5043
1.51022
1.51299
1.51482
1.51328
1.51019
1.51605
1.55327
1.67517
1.80061
1.89918
1.90982
1.90214
1.89805
1.89423
1.90018
1.91893
1.95206
1.96942
1.96378
1.95167
1.93204
1.91764
1.91586
1.9148
1.90223
1.88236
1.86518
1.84774
1.83233
1.82061
1.80973
1.80134
1.79413
1.78217
1.76961
1.75714
1.74525
1.73436
1.72445
1.71547
1.70595
1.69457
1.68253
1.67132
1.662
1.65418
1.64784
1.64276
1.63422
1.62431
1.61324
1.59822
1.58239
1.57342
1.56694
1.56046
1.55611
1.55617
1.55469
1.5483
1.54068
1.53546
1.5231
1.50833
1.51299
1.54196
1.59963
1.66356
1.72006
1.76198
1.79161
1.79868
1.80457
1.80227
1.7941
1.78827
1.78605
1.7859
1.78606
1.78502
1.78292
1.78092
1.77759
1.77023
1.75397
1.82264
1.80795
1.79096
1.77798
1.76475
1.74443
1.72516
1.71224
1.70037
1.68377
1.67034
1.66577
1.65759
1.64463
1.62957
1.6111
1.59633
1.58314
1.57161
1.55941
1.54997
1.54721
1.54205
1.53156
1.51961
1.5061
1.4862
1.4709
1.46348
1.4547
1.44863
1.44627
1.44287
1.43708
1.42963
1.41802
1.40565
1.40143
1.40181
1.40363
1.40945
1.42495
1.44466
1.46061
1.471
1.47788
1.48426
1.48304
1.4886
1.52233
1.65458
1.80403
1.87961
1.90687
1.89796
1.87863
1.87218
1.87665
1.89478
1.92653
1.96216
1.96104
1.94983
1.93201
1.90998
1.89515
1.89045
1.88875
1.87535
1.85691
1.84211
1.82755
1.81355
1.8017
1.7913
1.78231
1.77149
1.75967
1.7474
1.73508
1.72332
1.71342
1.70548
1.69619
1.68521
1.67239
1.65912
1.64767
1.6382
1.6305
1.62543
1.62363
1.61844
1.60861
1.59881
1.58689
1.56951
1.5542
1.54691
1.54123
1.53634
1.53531
1.53531
1.53059
1.52298
1.51621
1.50847
1.49794
1.48024
1.46979
1.47438
1.49558
1.54402
1.60461
1.66719
1.71211
1.74744
1.7585
1.76282
1.76025
1.75515
1.75466
1.75697
1.76239
1.76017
1.75759
1.75441
1.75043
1.73989
1.81835
1.80401
1.78691
1.7735
1.7603
1.74213
1.72319
1.71232
1.70153
1.68645
1.67204
1.66587
1.65702
1.64322
1.62696
1.60758
1.59468
1.58459
1.5748
1.5627
1.55364
1.55097
1.5451
1.53362
1.52025
1.50362
1.48448
1.47476
1.4697
1.46209
1.45439
1.45106
1.44691
1.4394
1.42795
1.41256
1.39817
1.39378
1.39224
1.39303
1.39644
1.39975
1.40581
1.41263
1.41958
1.4291
1.43956
1.45211
1.49819
1.62347
1.7966
1.86365
1.89171
1.88922
1.87296
1.85401
1.85415
1.86958
1.89951
1.93535
1.95076
1.94585
1.92794
1.90639
1.88748
1.87462
1.86802
1.8629
1.84911
1.83271
1.81929
1.8074
1.79498
1.78301
1.77205
1.75993
1.74795
1.73665
1.72501
1.71322
1.70222
1.69446
1.68759
1.67705
1.66595
1.65212
1.63728
1.62595
1.61687
1.60942
1.60512
1.60427
1.60046
1.5913
1.5824
1.57294
1.55972
1.54178
1.52974
1.52409
1.51945
1.51668
1.51558
1.5127
1.50617
1.49974
1.49312
1.48519
1.47328
1.45692
1.44747
1.44382
1.44604
1.4592
1.49456
1.54869
1.60978
1.6619
1.69861
1.7182
1.72125
1.7185
1.72004
1.72534
1.7364
1.73792
1.73572
1.73174
1.72369
1.81327
1.79895
1.78185
1.76794
1.75571
1.73871
1.72179
1.712
1.70328
1.68938
1.67305
1.66547
1.65574
1.64133
1.62382
1.60457
1.59566
1.58797
1.57861
1.5665
1.55726
1.55413
1.54711
1.53416
1.51873
1.5
1.487
1.48093
1.47526
1.46839
1.46056
1.45606
1.45118
1.44228
1.42655
1.40881
1.39949
1.39404
1.39092
1.38963
1.39011
1.39034
1.38824
1.38475
1.38069
1.38268
1.39328
1.45667
1.59826
1.75655
1.85206
1.84997
1.85235
1.84891
1.83641
1.83337
1.84482
1.87479
1.90641
1.93244
1.93056
1.91847
1.89642
1.87723
1.86466
1.85619
1.8503
1.83942
1.82304
1.80773
1.79431
1.7834
1.77338
1.76397
1.75076
1.73712
1.72391
1.71262
1.70165
1.69042
1.68043
1.67513
1.66847
1.65778
1.64767
1.63451
1.61867
1.60666
1.59803
1.59093
1.58645
1.585
1.58042
1.57235
1.56453
1.55656
1.54721
1.53409
1.51857
1.50961
1.50476
1.50025
1.49591
1.49247
1.48952
1.48459
1.47896
1.47266
1.46518
1.45397
1.43792
1.42826
1.42478
1.42203
1.42248
1.43048
1.45172
1.49481
1.54742
1.59985
1.63829
1.67174
1.67895
1.68621
1.6967
1.7081
1.71487
1.71451
1.70967
1.80604
1.79192
1.77551
1.76202
1.75022
1.73536
1.71995
1.71056
1.70293
1.68991
1.67387
1.66394
1.65371
1.63932
1.62066
1.60338
1.59784
1.59163
1.58287
1.5705
1.5606
1.55635
1.5477
1.5333
1.51603
1.49799
1.49181
1.48795
1.48102
1.47403
1.46628
1.46007
1.45434
1.44423
1.42662
1.4093
1.40426
1.39996
1.3945
1.39089
1.38832
1.38512
1.37938
1.36976
1.36761
1.37506
1.42933
1.57897
1.71396
1.79958
1.80961
1.80308
1.79374
1.79092
1.79276
1.80122
1.83159
1.87128
1.909
1.91209
1.90559
1.88899
1.86949
1.8525
1.84421
1.84169
1.83065
1.81293
1.79582
1.78042
1.76819
1.75791
1.75123
1.74514
1.73123
1.71656
1.7014
1.68881
1.67829
1.66761
1.65902
1.65594
1.65025
1.63961
1.63035
1.61837
1.603
1.59026
1.58138
1.57434
1.56887
1.56542
1.55999
1.55335
1.54666
1.53969
1.53257
1.52439
1.513
1.4997
1.49072
1.48506
1.47993
1.47467
1.47053
1.47
1.46771
1.46169
1.45562
1.44882
1.43723
1.42083
1.41152
1.40796
1.40479
1.40237
1.40301
1.40711
1.4172
1.44041
1.47907
1.52995
1.57922
1.61347
1.6418
1.66092
1.67368
1.68628
1.68859
1.79713
1.78386
1.7678
1.75687
1.74527
1.73101
1.71626
1.70908
1.70129
1.68896
1.67241
1.6617
1.65121
1.63683
1.61867
1.60381
1.60024
1.59486
1.58564
1.57332
1.56288
1.55712
1.54669
1.5311
1.51344
1.49923
1.49649
1.49336
1.48588
1.47854
1.47161
1.46401
1.45535
1.44297
1.42551
1.41312
1.40971
1.4065
1.40116
1.39596
1.39097
1.38488
1.37456
1.3616
1.36622
1.42331
1.5772
1.70327
1.7543
1.75784
1.75209
1.73728
1.73056
1.73471
1.74735
1.77255
1.81692
1.85965
1.87929
1.87608
1.86721
1.85218
1.83622
1.83042
1.82981
1.82163
1.80431
1.78549
1.76811
1.75484
1.74483
1.7385
1.73633
1.72805
1.71155
1.6945
1.67694
1.66474
1.65577
1.64644
1.64017
1.63853
1.63249
1.62193
1.61325
1.60246
1.58923
1.57725
1.56697
1.559
1.55252
1.54682
1.54101
1.53522
1.52969
1.52426
1.51867
1.51274
1.50544
1.49396
1.47898
1.46937
1.46431