/*--------------------------------*- C++ -*----------------------------------*\
  =========                 |
  \\      /  F ield         | OpenFOAM: The Open Source CFD Toolbox
   \\    /   O peration     | Website:  https://openfoam.org
    \\  /    A nd           | Version:  7
     \\/     M anipulation  |
\*---------------------------------------------------------------------------*/
FoamFile
{
    version     2.0;
    format      ascii;
    class       volScalarField;
    location    "0.6";
    object      T;
}
// * * * * * * * * * * * * * * * * * * * * * * * * * * * * * * * * * * * * * //

dimensions      [0 0 0 1 0 0 0];

internalField   nonuniform List<scalar> 
16512
(
1.32165
1.31169
1.30683
1.30567
1.30574
1.30862
1.31412
1.31557
1.31455
1.31164
1.30593
1.2995
1.29691
1.29629
1.29547
1.29443
1.29322
1.29151
1.28817
1.28332
1.27919
1.27803
1.27819
1.28044
1.28248
1.28204
1.2803
1.27691
1.2706
1.26327
1.25909
1.2578
1.25779
1.25959
1.2642
1.2673
1.26711
1.26596
1.26451
1.26195
1.25688
1.24884
1.24375
1.24275
1.24264
1.24446
1.24963
1.25197
1.2514
1.24992
1.24619
1.23728
1.22623
1.2219
1.22123
1.22138
1.22498
1.23165
1.23765
1.24832
1.26805
1.29773
1.35449
1.40359
1.42958
1.46036
1.46431
1.46323
1.46728
1.47038
1.46799
1.46295
1.45556
1.44663
1.44093
1.43768
1.4383
1.44402
1.45137
1.45631
1.45867
1.4585
1.45308
1.43952
1.42135
1.41244
1.4109
1.41136
1.41317
1.41413
1.41418
1.41371
1.41189
1.41015
1.41062
1.41517
1.42434
1.43321
1.43606
1.43401
1.42871
1.42094
1.40627
1.38051
1.36125
1.35599
1.35507
1.35548
1.36017
1.37666
1.40326
1.4157
1.41613
1.41623
1.41648
1.41372
1.39501
1.35578
1.33334
1.32811
1.32644
1.32622
1.32841
1.33941
1.36166
1.37588
1.37718
1.37578
1.36891
1.36016
1.35782
1.35814
1.35891
1.35918
1.35861
1.35663
1.35198
1.34242
1.32791
1.31744
1.3158
1.31703
1.32643
1.3473
1.35913
1.35961
1.3594
1.35861
1.35252
1.32888
1.29333
1.27873
1.27517
1.2732
1.27128
1.27095
1.27394
1.28664
1.31082
1.32621
1.32726
1.32739
1.32711
1.32227
1.30513
1.27061
1.24865
1.24434
1.24384
1.24511
1.25488
1.27882
1.29646
1.29801
1.29743
1.29109
1.26535
1.23059
1.21884
1.21616
1.21478
1.21462
1.21756
1.23122
1.25904
1.277
1.27882
1.27902
1.27877
1.27334
1.25356
1.22361
1.21212
1.21094
1.21124
1.21717
1.23289
1.24306
1.24392
1.24379
1.23874
1.22089
1.20204
1.19574
1.19395
1.1939
1.19906
1.21299
1.2209
1.2224
1.22372
1.22393
1.21956
1.21058
1.20658
1.20566
1.20513
1.20282
1.19911
1.19499
1.18915
1.1834
1.1812
1.18005
1.17969
1.18037
1.18099
1.18057
1.18068
1.18225
1.18452
1.18997
1.20149
1.21914
1.23984
1.25864
1.26922
1.27109
1.26631
1.2534
1.2461
1.24285
1.23894
1.23414
1.23031
1.22912
1.23007
1.23328
1.23293
1.22644
1.21818
1.2112
1.2016
1.18531
1.17533
1.17491
1.17579
1.17793
1.31566
1.31068
1.30937
1.30938
1.31196
1.31735
1.31894
1.31796
1.31521
1.30971
1.30281
1.29971
1.29901
1.29831
1.29731
1.29616
1.29467
1.2919
1.28746
1.28328
1.28203
1.2821
1.28398
1.28567
1.28505
1.28307
1.27956
1.27337
1.26672
1.26294
1.26186
1.26202
1.26419
1.26855
1.27084
1.27038
1.26916
1.26769
1.26535
1.26098
1.25341
1.24751
1.24595
1.24574
1.24681
1.25145
1.25463
1.25428
1.25301
1.24995
1.24245
1.23134
1.22601
1.22528
1.22548
1.22898
1.23632
1.23947
1.23919
1.23795
1.23431
1.23646
1.25297
1.29697
1.33885
1.39389
1.43598
1.44719
1.45898
1.46684
1.46472
1.45878
1.45208
1.44847
1.44625
1.44554
1.45082
1.45681
1.45799
1.46035
1.46239
1.46063
1.45089
1.43072
1.41694
1.41439
1.41439
1.41502
1.41677
1.41869
1.42016
1.41998
1.4194
1.42041
1.42569
1.43319
1.43849
1.43948
1.43823
1.4339
1.42479
1.40708
1.38158
1.36485
1.36027
1.36016
1.36214
1.36833
1.38544
1.4098
1.41886
1.418
1.4164
1.41567
1.41264
1.39569
1.35926
1.33823
1.3333
1.33166
1.33134
1.33306
1.34273
1.36494
1.38229
1.38455
1.38302
1.37573
1.36426
1.35983
1.36001
1.36034
1.36073
1.36072
1.35985
1.35693
1.35011
1.33827
1.32707
1.32424
1.3249
1.33174
1.34944
1.36006
1.36029
1.35979
1.35901
1.35463
1.33624
1.30261
1.28539
1.28133
1.27951
1.27752
1.2768
1.27906
1.29024
1.31344
1.33004
1.33168
1.33148
1.33128
1.32762
1.31402
1.28175
1.25573
1.24952
1.24851
1.24894
1.25573
1.27698
1.29789
1.30136
1.30094
1.29695
1.27642
1.24015
1.22447
1.22092
1.21912
1.21827
1.21934
1.22754
1.25116
1.27634
1.28259
1.28323
1.28365
1.28129
1.26712
1.2362
1.21753
1.21449
1.21432
1.21733
1.23064
1.24471
1.24725
1.24745
1.24499
1.23147
1.21018
1.20115
1.19872
1.19807
1.20048
1.2124
1.22364
1.22533
1.22622
1.22707
1.22496
1.21678
1.21075
1.20974
1.20918
1.20761
1.20395
1.19978
1.19449
1.1875
1.18301
1.18118
1.1804
1.1804
1.18195
1.18353
1.18458
1.18654
1.18985
1.19658
1.20823
1.22446
1.2444
1.26395
1.27535
1.27833
1.27604
1.26323
1.2495
1.244
1.23925
1.23358
1.22885
1.22703
1.22747
1.23132
1.23361
1.23092
1.2241
1.21797
1.21089
1.19728
1.18156
1.17834
1.17889
1.18046
1.1836
1.31462
1.31318
1.31317
1.31548
1.32066
1.32236
1.32138
1.31867
1.31333
1.30614
1.30258
1.30174
1.30119
1.30029
1.2992
1.29787
1.29559
1.29152
1.28734
1.28599
1.28598
1.28753
1.28894
1.28821
1.28605
1.28224
1.27606
1.27011
1.26681
1.266
1.26643
1.26916
1.27308
1.2744
1.27364
1.27223
1.27066
1.26851
1.26475
1.258
1.25148
1.24923
1.24895
1.2495
1.25337
1.25729
1.25724
1.25609
1.25349
1.24718
1.23629
1.22998
1.2289
1.22906
1.23219
1.23976
1.24369
1.24321
1.24098
1.23588
1.22754
1.22409
1.22496
1.23227
1.25288
1.29296
1.36408
1.40565
1.43077
1.4548
1.45824
1.45306
1.45123
1.45458
1.45591
1.46041
1.46598
1.46534
1.46303
1.46345
1.4632
1.45856
1.44266
1.4244
1.41806
1.41727
1.4173
1.41826
1.421
1.42472
1.42753
1.42945
1.43256
1.4381
1.44129
1.44129
1.44101
1.44006
1.43723
1.42855
1.40918
1.38395
1.36924
1.3644
1.36439
1.3675
1.37568
1.39395
1.41645
1.42307
1.42107
1.41778
1.41553
1.41139
1.39522
1.36149
1.34209
1.33796
1.33683
1.33669
1.33837
1.34725
1.369
1.38877
1.39216
1.39056
1.38311
1.3697
1.36197
1.36145
1.36155
1.36187
1.3621
1.36202
1.3609
1.35686
1.34803
1.33705
1.33267
1.33306
1.33777
1.35199
1.36133
1.36132
1.36037
1.35937
1.35594
1.34186
1.31147
1.29186
1.28739
1.28587
1.28411
1.28326
1.28514
1.29541
1.31758
1.334
1.3357
1.33516
1.33465
1.33174
1.32131
1.29261
1.26356
1.25521
1.2536
1.25344
1.25786
1.27586
1.2987
1.3044
1.30407
1.3013
1.28569
1.25006
1.2304
1.22608
1.22404
1.2225
1.22262
1.22695
1.2446
1.27295
1.28548
1.28687
1.2878
1.28722
1.27836
1.25025
1.22477
1.2189
1.21818
1.21935
1.22899
1.24544
1.25056
1.25072
1.24962
1.24034
1.21899
1.20672
1.20358
1.20257
1.20349
1.21207
1.22606
1.22942
1.22935
1.22988
1.22908
1.22283
1.21509
1.21354
1.21296
1.21199
1.20895
1.20468
1.19929
1.1916
1.18517
1.18293
1.18203
1.18172
1.18286
1.18656
1.1894
1.19197
1.19648
1.20446
1.21651
1.23151
1.24986
1.26902
1.28061
1.28442
1.28371
1.27403
1.25557
1.24537
1.2396
1.23317
1.2275
1.22488
1.22486
1.22817
1.23344
1.23345
1.22933
1.22399
1.21865
1.209
1.19117
1.18227
1.1822
1.18336
1.18539
1.19023
1.31711
1.31707
1.3192
1.32412
1.32582
1.32482
1.32205
1.31679
1.30944
1.30551
1.30453
1.3041
1.30338
1.30238
1.30117
1.29926
1.29551
1.29136
1.2899
1.28984
1.29116
1.29238
1.29162
1.28938
1.2853
1.27907
1.27367
1.2708
1.27024
1.27111
1.27448
1.2777
1.27807
1.27684
1.27517
1.27346
1.27149
1.26827
1.26251
1.25571
1.25264
1.25223
1.25244
1.25545
1.25987
1.26032
1.25924
1.25699
1.25164
1.24127
1.23377
1.23215
1.23224
1.23464
1.24191
1.24692
1.24677
1.2451
1.24097
1.23274
1.22551
1.22415
1.22381
1.22389
1.22567
1.23533
1.27088
1.32594
1.36534
1.41679
1.44098
1.44218
1.45004
1.463
1.46933
1.47338
1.47391
1.47157
1.46709
1.46414
1.46138
1.45181
1.43416
1.42407
1.42064
1.41957
1.4199
1.42314
1.42881
1.43459
1.43964
1.44459
1.44872
1.44861
1.44488
1.4419
1.44028
1.43784
1.43033
1.41175
1.38867
1.37599
1.37022
1.36928
1.37158
1.3813
1.40132
1.4224
1.42763
1.42512
1.42063
1.41671
1.41104
1.3947
1.36308
1.34535
1.34207
1.34165
1.34196
1.34421
1.35279
1.37397
1.39524
1.39958
1.39799
1.39067
1.3756
1.36454
1.3629
1.36285
1.36285
1.36343
1.36371
1.36355
1.36207
1.35673
1.34699
1.3409
1.34101
1.34423
1.35515
1.36304
1.3628
1.36132
1.35995
1.35701
1.34625
1.3197
1.29822
1.29312
1.29206
1.29077
1.29001
1.29193
1.30196
1.32309
1.33813
1.33934
1.33844
1.33758
1.33514
1.3273
1.30312
1.27222
1.26128
1.25906
1.25843
1.26114
1.2757
1.29921
1.30722
1.30701
1.30475
1.29304
1.25983
1.23616
1.23121
1.22925
1.22731
1.22683
1.22875
1.24067
1.26813
1.2875
1.29038
1.29138
1.29173
1.28675
1.26388
1.23355
1.22403
1.22261
1.22282
1.22886
1.24517
1.25405
1.25429
1.25352
1.24714
1.22775
1.21228
1.20821
1.20705
1.20727
1.21292
1.22723
1.23399
1.23368
1.23318
1.23241
1.22795
1.21986
1.21711
1.21677
1.21606
1.21374
1.20967
1.20445
1.19622
1.18703
1.18346
1.18299
1.18275
1.18374
1.18885
1.19476
1.19884
1.20437
1.21306
1.2254
1.23959
1.25623
1.27414
1.28548
1.28958
1.28972
1.28372
1.26472
1.24764
1.23994
1.23297
1.22644
1.22285
1.22235
1.22458
1.2318
1.23489
1.2334
1.22937
1.22537
1.21902
1.20346
1.18789
1.18562
1.18639
1.18797
1.19075
1.198
1.32113
1.3232
1.32783
1.32944
1.32838
1.3255
1.32024
1.31276
1.30852
1.3074
1.30704
1.30656
1.30571
1.30462
1.30295
1.2995
1.29534
1.29375
1.29366
1.29485
1.29598
1.29525
1.29304
1.28882
1.28266
1.27763
1.27511
1.27482
1.27631
1.27994
1.282
1.28155
1.27982
1.27783
1.2761
1.2743
1.27163
1.2669
1.26023
1.25622
1.25558
1.25556
1.25771
1.26228
1.26343
1.2625
1.26049
1.2559
1.24629
1.23773
1.2354
1.23536
1.23705
1.24367
1.24975
1.2501
1.24871
1.24524
1.238
1.22925
1.22589
1.22535
1.22495
1.22429
1.2246
1.22542
1.23039
1.25
1.2835
1.33763
1.39789
1.42319
1.4443
1.46573
1.47641
1.47594
1.47503
1.47242
1.46733
1.46304
1.45727
1.44366
1.43108
1.4254
1.42312
1.42302
1.42559
1.4333
1.44304
1.45057
1.45525
1.45708
1.45522
1.44963
1.4445
1.44059
1.43658
1.42939
1.41403
1.39516
1.38406
1.37823
1.3764
1.37714
1.38596
1.4069
1.42705
1.43187
1.42982
1.42506
1.4196
1.41209
1.39492
1.36453
1.34797
1.34543
1.34562
1.34692
1.35028
1.35931
1.3801
1.4017
1.40663
1.40493
1.39783
1.38216
1.36689
1.36399
1.36385
1.36421
1.36486
1.36563
1.36593
1.36563
1.36317
1.35608
1.34933
1.34893
1.35101
1.35898
1.36511
1.36467
1.36272
1.36091
1.35818
1.34989
1.32783
1.30481
1.29843
1.29784
1.29716
1.29673
1.2989
1.30908
1.3295
1.34249
1.34287
1.34143
1.34029
1.33812
1.33231
1.31289
1.28173
1.26777
1.2648
1.26384
1.26534
1.27672
1.2997
1.30997
1.30983
1.30773
1.29877
1.26894
1.24133
1.23574
1.23424
1.23248
1.2315
1.23224
1.23957
1.26309
1.28877
1.29441
1.29488
1.29557
1.29274
1.27548
1.24333
1.2296
1.22737
1.22711
1.23055
1.24471
1.25731
1.2583
1.25755
1.25263
1.23596
1.21763
1.21248
1.21127
1.21118
1.21487
1.22781
1.23813
1.23858
1.23726
1.23591
1.23232
1.22461
1.22055
1.22027
1.21982
1.21817
1.21473
1.21001
1.20262
1.19244
1.18513
1.18356
1.18349
1.18421
1.18943
1.19899
1.20629
1.21366
1.22328
1.23596
1.24896
1.26288
1.27914
1.29036
1.2944
1.29475
1.29131
1.27526
1.25233
1.24058
1.23295
1.22578
1.22117
1.22
1.22121
1.22827
1.23581
1.2362
1.23393
1.23104
1.22715
1.21618
1.19663
1.18921
1.18955
1.19079
1.19253
1.19674
1.20711
1.32753
1.33176
1.33307
1.33187
1.329
1.32388
1.31638
1.31184
1.31052
1.31019
1.30985
1.30915
1.30819
1.30671
1.30346
1.2993
1.29753
1.29742
1.29852
1.29962
1.29892
1.29678
1.29256
1.28658
1.28186
1.27978
1.27975
1.28192
1.28525
1.28588
1.28457
1.28214
1.28007
1.27849
1.27696
1.2749
1.27114
1.2651
1.26018
1.25911
1.2589
1.26025
1.26453
1.26647
1.26574
1.26396
1.26002
1.25137
1.24195
1.23875
1.23854
1.23966
1.2454
1.25234
1.25336
1.25227
1.24923
1.24265
1.23342
1.22902
1.2282
1.228
1.22794
1.22694
1.22577
1.2257
1.22616
1.22788
1.23649
1.2612
1.32117
1.37973
1.41542
1.45691
1.46805
1.47198
1.47346
1.47284
1.46752
1.46037
1.451
1.43907
1.4314
1.42832
1.42818
1.4311
1.44004
1.45194
1.46017
1.46278
1.46281
1.46
1.45427
1.44795
1.44147
1.43467
1.42643
1.41463
1.40134
1.39217
1.38704
1.38509
1.38564
1.39347
1.4124
1.42962
1.43439
1.43364
1.43021
1.42446
1.41521
1.39658
1.36679
1.35059
1.34823
1.34887
1.35119
1.35614
1.36675
1.38796
1.40888
1.41355
1.41155
1.40444
1.38872
1.36995
1.36503
1.36455
1.36463
1.36648
1.36787
1.36853
1.36875
1.36793
1.36354
1.35738
1.35674
1.35837
1.36382
1.36752
1.36663
1.36444
1.36232
1.3596
1.353
1.33533
1.31238
1.30379
1.30326
1.30319
1.3032
1.30585
1.31631
1.33585
1.34691
1.34647
1.34441
1.34291
1.34085
1.33645
1.32164
1.29217
1.27469
1.27081
1.26974
1.27037
1.27894
1.30037
1.31292
1.31288
1.31064
1.30343
1.27762
1.24612
1.23912
1.23832
1.23738
1.23629
1.23657
1.24113
1.25937
1.28832
1.29935
1.29938
1.2994
1.29732
1.28445
1.25305
1.23505
1.232
1.2316
1.23359
1.24495
1.26006
1.26292
1.26202
1.25776
1.24373
1.2231
1.21614
1.21504
1.21484
1.21741
1.22847
1.24143
1.24351
1.2421
1.23989
1.23647
1.22959
1.22412
1.2236
1.22338
1.22225
1.21952
1.21517
1.20864
1.19853
1.18885
1.18515
1.18505
1.1857
1.19017
1.20156
1.21356
1.22329
1.23394
1.24745
1.25913
1.26995
1.28424
1.29506
1.29891
1.29908
1.29713
1.28546
1.2606
1.24198
1.2332
1.22567
1.22002
1.218
1.21841
1.22386
1.23495
1.23849
1.23759
1.23574
1.23365
1.22724
1.20898
1.19414
1.19282
1.19366
1.19487
1.19714
1.20375
1.21688
1.33582
1.3366
1.33517
1.33221
1.32726
1.32002
1.31533
1.31383
1.31349
1.31321
1.31261
1.31178
1.31043
1.30737
1.30323
1.30127
1.30113
1.30219
1.30332
1.30261
1.30041
1.29616
1.29043
1.28608
1.28454
1.28486
1.28752
1.28995
1.28964
1.28743
1.28432
1.282
1.28058
1.27938
1.27783
1.27507
1.27006
1.26462
1.26283
1.26253
1.26319
1.26679
1.26939
1.26891
1.26739
1.26396
1.25637
1.24647
1.24226
1.24184
1.24248
1.2473
1.25474
1.25655
1.2557
1.25311
1.24718
1.23768
1.2324
1.23126
1.23108
1.23187
1.23206
1.23113
1.22958
1.22777
1.22691
1.22723
1.22793
1.23206
1.25275
1.30212
1.34669
1.4067
1.44457
1.45532
1.46675
1.46722
1.46291
1.45334
1.4436
1.43848
1.43648
1.43632
1.44039
1.4512
1.46168
1.46609
1.46713
1.46671
1.46318
1.45746
1.45008
1.44165
1.4326
1.42362
1.41506
1.40661
1.39878
1.39498
1.39443
1.39504
1.40273
1.41945
1.43124
1.43522
1.43565
1.43434
1.43011
1.42062
1.40048
1.37042
1.35385
1.35103
1.35168
1.35462
1.36132
1.37441
1.39701
1.41663
1.42054
1.41816
1.41073
1.39477
1.37345
1.3664
1.36543
1.36529
1.36671
1.37053
1.37168
1.37186
1.37183
1.36981
1.36509
1.36412
1.3655
1.36898
1.37022
1.3684
1.36612
1.36399
1.36134
1.35586
1.34198
1.32073
1.3099
1.30868
1.30897
1.30954
1.31271
1.32322
1.34199
1.35148
1.35027
1.34756
1.34557
1.34344
1.33988
1.32899
1.30301
1.28207
1.27688
1.27584
1.27598
1.28227
1.3015
1.3161
1.31645
1.31377
1.30743
1.28586
1.25176
1.24141
1.24104
1.24112
1.24075
1.24102
1.24441
1.25832
1.28696
1.30413
1.30499
1.30411
1.30166
1.29137
1.26213
1.23997
1.23613
1.23581
1.23715
1.24619
1.26245
1.2678
1.26694
1.263
1.25139
1.22951
1.21939
1.21821
1.21807
1.22005
1.22946
1.24393
1.24826
1.24715
1.24458
1.24103
1.23465
1.22778
1.22661
1.22656
1.2259
1.22403
1.22048
1.21498
1.20491
1.19301
1.18745
1.18721
1.18773
1.19135
1.20266
1.21925
1.23216
1.24396
1.25882
1.27026
1.27771
1.28935
1.29957
1.30326
1.30335
1.30135
1.29322
1.27117
1.24598
1.23379
1.22605
1.21966
1.21655
1.21635
1.21972
1.2316
1.24041
1.24067
1.23972
1.23892
1.23588
1.22286
1.20202
1.1961
1.19657
1.19743
1.19855
1.2022
1.21237
1.22536
1.33983
1.3382
1.33523
1.33032
1.32337
1.31875
1.31714
1.31679
1.31652
1.31596
1.31519
1.31394
1.31113
1.30717
1.30508
1.30491
1.30591
1.30712
1.30642
1.30404
1.29971
1.29421
1.29022
1.28907
1.2897
1.29267
1.29436
1.2934
1.29042
1.28666
1.28392
1.28257
1.28168
1.28054
1.27864
1.27479
1.26944
1.26671
1.26634
1.26656
1.26928
1.27222
1.27202
1.2707
1.26772
1.2612
1.25117
1.24599
1.24527
1.24556
1.24946
1.25701
1.2597
1.25905
1.25685
1.25159
1.24208
1.23568
1.23415
1.23395
1.23484
1.23677
1.23681
1.23593
1.23434
1.23115
1.22845
1.22798
1.22816
1.22873
1.2308
1.24214
1.26701
1.30916
1.37149
1.40206
1.42607
1.44817
1.44758
1.43898
1.43713
1.44245
1.44816
1.45509
1.46623
1.47292
1.4718
1.4694
1.46825
1.46624
1.46059
1.45068
1.44039
1.43225
1.42559
1.41955
1.41287
1.40506
1.40063
1.40134
1.40393
1.41178
1.42627
1.43357
1.43451
1.43581
1.43609
1.43442
1.42723
1.40725
1.3762
1.35841
1.35466
1.35494
1.3578
1.36581
1.3819
1.40668
1.42445
1.42701
1.42405
1.41657
1.4006
1.37717
1.36803
1.36673
1.36647
1.36698
1.37115
1.37605
1.37665
1.37645
1.3755
1.37263
1.37153
1.37194
1.37297
1.37268
1.37032
1.36781
1.36547
1.3629
1.35836
1.34791
1.3297
1.31695
1.31444
1.31492
1.31584
1.31936
1.32979
1.3478
1.35619
1.35456
1.35119
1.34852
1.34613
1.34293
1.33495
1.31351
1.28997
1.28287
1.28187
1.28181
1.28635
1.30307
1.31939
1.32065
1.3175
1.31142
1.29345
1.25873
1.24348
1.24273
1.24348
1.2442
1.24503
1.24829
1.25958
1.28609
1.30861
1.31135
1.30984
1.30652
1.29739
1.27065
1.24454
1.23955
1.23932
1.24053
1.24816
1.26448
1.27279
1.27231
1.26873
1.25887
1.23729
1.22279
1.22092
1.22095
1.22258
1.23059
1.2457
1.25279
1.25221
1.24954
1.24603
1.24011
1.23183
1.22926
1.2293
1.22888
1.22776
1.22538
1.22132
1.21264
1.19974
1.19074
1.18923
1.1901
1.19369
1.20494
1.22439
1.2394
1.2529
1.26918
1.28125
1.28646
1.29449
1.30341
1.30715
1.30743
1.30551
1.29885
1.2811
1.25374
1.23535
1.22685
1.22018
1.21596
1.21506
1.21669
1.22654
1.24056
1.24368
1.24326
1.24319
1.24248
1.23533
1.2142
1.20029
1.19955
1.20001
1.20049
1.20219
1.2086
1.22215
1.23082
1.34064
1.33789
1.33332
1.32673
1.32224
1.32055
1.32023
1.31989
1.31927
1.31851
1.3173
1.31472
1.31105
1.30907
1.30887
1.3098
1.311
1.31031
1.30777
1.30328
1.2979
1.29428
1.29344
1.29424
1.29724
1.29847
1.29715
1.29373
1.28923
1.28606
1.28471
1.28404
1.28319
1.28181
1.279
1.27426
1.27073
1.27018
1.27017
1.27209
1.2751
1.27517
1.27393
1.27136
1.26574
1.25605
1.24993
1.24871
1.24884
1.25191
1.25931
1.26281
1.26234
1.26043
1.25577
1.24659
1.23918
1.2371
1.23684
1.23757
1.24042
1.24172
1.24128
1.24006
1.23685
1.23235
1.23043
1.22974
1.22949
1.22976
1.23035
1.23081
1.23311
1.24248
1.26869
1.30351
1.33607
1.38935
1.41277
1.41915
1.4333
1.45289
1.46969
1.4788
1.48147
1.47879
1.47247
1.46854
1.46663
1.46262
1.45225
1.44028
1.43428
1.43039
1.42561
1.41966
1.41253
1.4071
1.4069
1.40996
1.41932
1.43291
1.43742
1.43551
1.43508
1.4357
1.43568
1.43203
1.4156
1.38487
1.36483
1.35948
1.35924
1.36139
1.37006
1.38906
1.41567
1.43129
1.43276
1.4297
1.42232
1.40636
1.38132
1.36987
1.36823
1.36786
1.36797
1.37089
1.37811
1.38272
1.38324
1.38309
1.3816
1.37855
1.37685
1.37558
1.37401
1.3721
1.36975
1.36711
1.36417
1.36016
1.35267
1.33863
1.32516
1.32074
1.32108
1.3221
1.32573
1.33586
1.35303
1.36099
1.35927
1.35548
1.35205
1.34916
1.34592
1.33983
1.32301
1.29857
1.28879
1.28772
1.28756
1.2909
1.30494
1.32254
1.32526
1.32201
1.31578
1.30065
1.26712
1.24607
1.24424
1.24502
1.24653
1.24807
1.25171
1.26195
1.28644
1.31276
1.31821
1.31644
1.31218
1.30337
1.27907
1.24932
1.24234
1.24215
1.24336
1.25022
1.26628
1.27754
1.27789
1.27465
1.26612
1.24609
1.22712
1.22355
1.22369
1.22508
1.23187
1.24686
1.25704
1.25726
1.25453
1.25107
1.24586
1.23678
1.23194
1.23186
1.23161
1.23081
1.22925
1.2264
1.21967
1.20768
1.19614
1.19266
1.19342
1.19681
1.20695
1.2267
1.24446
1.2602
1.27845
1.29192
1.29545
1.2995
1.30658
1.31011
1.31074
1.30931
1.30351
1.28931
1.26349
1.2394
1.22815
1.22147
1.21646
1.21459
1.21504
1.22154
1.2377
1.2465
1.24672
1.24702
1.24751
1.24476
1.22899
1.20712
1.20234
1.20258
1.20268
1.20313
1.2065
1.21722
1.23077
1.23401
1.34028
1.33613
1.33035
1.32583
1.32404
1.32372
1.32342
1.32268
1.32182
1.32056
1.31817
1.31489
1.31317
1.31301
1.31397
1.31499
1.31422
1.31159
1.30694
1.30159
1.29825
1.29758
1.29854
1.30141
1.30225
1.3008
1.29728
1.29225
1.28854
1.28712
1.2866
1.28592
1.28487
1.28288
1.27884
1.27476
1.27392
1.27376
1.27508
1.27799
1.2784
1.27724
1.27497
1.27006
1.26091
1.2539
1.25215
1.25218
1.25456
1.26162
1.26594
1.26564
1.26394
1.25975
1.25104
1.24285
1.24021
1.23986
1.24043
1.24359
1.24604
1.24581
1.24468
1.24158
1.23631
1.23317
1.23233
1.23178
1.23196
1.23253
1.23204
1.23138
1.23057
1.22849
1.22654
1.23183
1.2491
1.29388
1.35688
1.39138
1.42215
1.45355
1.47937
1.48294
1.48202
1.47907
1.47246
1.46695
1.46053
1.45047
1.44179
1.43758
1.4343
1.43074
1.42609
1.41995
1.41578
1.4153
1.41758
1.42557
1.43681
1.44209
1.44026
1.43627
1.43461
1.43435
1.43268
1.42194
1.39541
1.37402
1.36634
1.36497
1.36604
1.37449
1.39586
1.42349
1.43669
1.43735
1.43467
1.42769
1.41176
1.38566
1.37196
1.36994
1.36956
1.36949
1.37136
1.37839
1.38752
1.39077
1.39126
1.39081
1.38503
1.3795
1.37771
1.37603
1.37387
1.37154
1.36907
1.36608
1.36235
1.35678
1.347
1.33457
1.32777
1.32771
1.32857
1.33182
1.34124
1.35758
1.36565
1.36415
1.36034
1.35632
1.35271
1.34915
1.34405
1.3312
1.30783
1.29473
1.29305
1.29299
1.2955
1.30705
1.32522
1.33007
1.32723
1.32088
1.30774
1.27671
1.24998
1.24604
1.24652
1.24806
1.25014
1.25419
1.26437
1.28777
1.3167
1.32515
1.32359
1.31876
1.30979
1.28747
1.25483
1.24489
1.24452
1.24572
1.25205
1.26776
1.28181
1.28329
1.28068
1.27308
1.25516
1.23274
1.22637
1.22637
1.22761
1.23343
1.24767
1.26095
1.26255
1.26007
1.256
1.25112
1.24278
1.23518
1.2341
1.23384
1.23338
1.23259
1.23105
1.22645
1.21492
1.20114
1.19672
1.19759
1.20136
1.21128
1.23182
1.25248
1.26868
1.28719
1.30181
1.30435
1.30455
1.30856
1.31214
1.31295
1.31228
1.30745
1.29577
1.27353
1.24665
1.23057
1.22327
1.21804
1.21508
1.21474
1.21804
1.23225
1.24766
1.25044
1.25085
1.2519
1.25139
1.24259
1.21856
1.2057
1.20506
1.20486
1.20466
1.20591
1.21273
1.22744
1.23626
1.23642
1.33836
1.33386
1.32971
1.32768
1.3273
1.32713
1.32643
1.32542
1.324
1.32168
1.31881
1.31741
1.3173
1.31824
1.31905
1.31818
1.31541
1.31068
1.30541
1.30226
1.30164
1.30258
1.3052
1.30567
1.30414
1.30064
1.29546
1.29152
1.28994
1.28941
1.28879
1.28794
1.28651
1.28327
1.27886
1.27751
1.27726
1.27804
1.28076
1.28157
1.2806
1.27858
1.27433
1.26588
1.25807
1.25565
1.25558
1.25733
1.26385
1.26899
1.26892
1.26738
1.26357
1.25541
1.24659
1.2434
1.24298
1.2434
1.24656
1.2499
1.24998
1.24885
1.246
1.24047
1.23573
1.23451
1.23402
1.234
1.23554
1.23621
1.23538
1.23407
1.23176
1.2259
1.21978
1.21917
1.22124
1.23611
1.28776
1.34404
1.38685
1.44177
1.46959
1.47949
1.47873
1.47538
1.46742
1.45964
1.44899
1.44101
1.44013
1.43827
1.4355
1.43236
1.42807
1.42539
1.42516
1.42813
1.43576
1.44172
1.44429
1.44463
1.44164
1.43639
1.43339
1.43105
1.42392
1.40391
1.38419
1.37567
1.3729
1.373
1.38021
1.40253
1.42965
1.4403
1.4407
1.43907
1.43303
1.41692
1.38981
1.37416
1.37154
1.37115
1.37121
1.37289
1.37897
1.39046
1.39814
1.39951
1.3992
1.39293
1.38229
1.37846
1.37761
1.37612
1.37386
1.37134
1.36882
1.36597
1.36181
1.35493
1.34456
1.33561
1.33484
1.33558
1.33815
1.34608
1.3612
1.36973
1.36875
1.36547
1.36134
1.35712
1.3531
1.34823
1.33818
1.31727
1.30094
1.29783
1.29795
1.29975
1.30912
1.32704
1.33473
1.33275
1.32679
1.31518
1.28725
1.25571
1.24852
1.24853
1.24955
1.25158
1.25583
1.2663
1.28955
1.32045
1.33189
1.33079
1.32584
1.31681
1.29605
1.26161
1.24761
1.24675
1.24781
1.25356
1.26891
1.2855
1.28856
1.28655
1.27982
1.26392
1.23945
1.22944
1.2289
1.2299
1.23493
1.24819
1.26409
1.26805
1.2662
1.26182
1.25635
1.24852
1.23925
1.23636
1.23589
1.23551
1.23525
1.23492
1.23305
1.22448
1.21009
1.20226
1.20225
1.20629
1.21645
1.23628
1.25919
1.27639
1.29521
1.31038
1.31324
1.31073
1.31053
1.31299
1.31402
1.31394
1.31075
1.30057
1.28212
1.25603
1.23501
1.22567
1.22028
1.21662
1.21547
1.21679
1.22661
1.24549
1.25413
1.25495
1.25606
1.2566
1.25272
1.23346
1.21139
1.20719
1.20682
1.20626
1.20647
1.20993
1.22195
1.23637
1.23948
1.23825
1.33786
1.33362
1.33164
1.33128
1.33097
1.33027
1.32923
1.32767
1.32537
1.32295
1.32188
1.32173
1.32243
1.32292
1.32192
1.31908
1.31442
1.30927
1.30627
1.30571
1.30662
1.30885
1.30895
1.30731
1.30372
1.29851
1.29465
1.29303
1.29247
1.29183
1.29107
1.29004
1.28771
1.28329
1.28113
1.2808
1.28106
1.28332
1.2846
1.28385
1.28213
1.27845
1.2709
1.26256
1.25936
1.2591
1.26032
1.2661
1.27186
1.27219
1.27077
1.26725
1.25967
1.2504
1.24662
1.24611
1.24641
1.2494
1.25339
1.25382
1.25276
1.25015
1.24477
1.23871
1.23656
1.23609
1.23596
1.23745
1.23991
1.23992
1.23893
1.23693
1.23177
1.22323
1.21914
1.21891
1.21969
1.22432
1.24368
1.285
1.32813
1.39035
1.43097
1.44885
1.46153
1.45946
1.45147
1.44234
1.4389
1.44017
1.44102
1.44047
1.43973
1.43781
1.43556
1.43527
1.43733
1.44262
1.44661
1.4471
1.44699
1.44656
1.44227
1.43614
1.43101
1.42402
1.4087
1.39179
1.3848
1.38276
1.38257
1.38894
1.41014
1.43378
1.44221
1.44278
1.44222
1.43782
1.42209
1.39395
1.37685
1.37346
1.37288
1.37297
1.37468
1.38074
1.39352
1.40478
1.40717
1.40671
1.40074
1.38808
1.37921
1.37802
1.37761
1.3761
1.37388
1.37141
1.36885
1.36597
1.36179
1.35447
1.34479
1.34203
1.34277
1.34498
1.35121
1.3642
1.37319
1.3728
1.37027
1.36663
1.36229
1.35789
1.35292
1.3446
1.32654
1.30768
1.30251
1.30254
1.30368
1.31096
1.32785
1.33877
1.33807
1.33318
1.32321
1.29871
1.2638
1.25195
1.25128
1.2517
1.25309
1.25702
1.26768
1.29127
1.32397
1.33803
1.33765
1.33312
1.32439
1.30491
1.26946
1.25084
1.2492
1.24995
1.25493
1.26969
1.28844
1.2936
1.29212
1.28638
1.27234
1.247
1.23282
1.23127
1.23202
1.23609
1.24803
1.26583
1.27314
1.27227
1.26828
1.26239
1.25431
1.24368
1.23896
1.2384
1.23805
1.23802
1.23827
1.23793
1.23222
1.21902
1.20948
1.20902
1.21299
1.2234
1.24282
1.2679
1.28582
1.30301
1.31739
1.32144
1.31784
1.31341
1.31357
1.31412
1.31422
1.31271
1.30446
1.2889
1.26575
1.24156
1.22874
1.22302
1.21899
1.21711
1.21744
1.22322
1.24053
1.25633
1.25935
1.2603
1.26135
1.25997
1.24785
1.22133
1.20955
1.20848
1.20774
1.20744
1.20882
1.21668
1.23303
1.24187
1.24193
1.23972
1.3389
1.33621
1.33548
1.33493
1.33424
1.33322
1.33153
1.32904
1.32697
1.32617
1.32605
1.32649
1.32643
1.32528
1.32247
1.318
1.31318
1.31034
1.30981
1.31059
1.31244
1.3123
1.31055
1.30692
1.30154
1.29772
1.29624
1.29576
1.29515
1.29433
1.29346
1.29184
1.2879
1.28487
1.28445
1.2844
1.28597
1.2875
1.28695
1.28545
1.28228
1.2757
1.26721
1.26325
1.26279
1.26358
1.26852
1.27465
1.27538
1.27413
1.27084
1.26377
1.25419
1.24984
1.24919
1.24938
1.25213
1.25657
1.25744
1.25648
1.25412
1.24911
1.24216
1.23887
1.2383
1.23808
1.23928
1.24273
1.24389
1.24324
1.24153
1.2371
1.22885
1.22224
1.22073
1.22049
1.22212
1.22825
1.23554
1.24702
1.26551
1.29422
1.33202
1.35639
1.39306
1.41563
1.41695
1.42247
1.43792
1.44565
1.44644
1.44906
1.44921
1.44772
1.44577
1.44625
1.44862
1.44901
1.44885
1.44888
1.44892
1.44772
1.44245
1.43511
1.42568
1.4118
1.39737
1.39101
1.39104
1.39284
1.40024
1.41989
1.43697
1.44171
1.44342
1.44379
1.44147
1.42743
1.39896
1.38061
1.37605
1.37503
1.37503
1.37661
1.38297
1.3973
1.41161
1.41496
1.41402
1.4074
1.39346
1.38147
1.37907
1.37832
1.37787
1.37666
1.37456
1.37216
1.3696
1.36661
1.36203
1.3545
1.34988
1.34991
1.35118
1.35619
1.36703
1.37609
1.3763
1.37442
1.37156
1.36772
1.36335
1.3584
1.35106
1.33568
1.3151
1.30736
1.30706
1.3075
1.31264
1.32773
1.34174
1.34279
1.33933
1.33139
1.3109
1.27455
1.25656
1.25473
1.25487
1.25543
1.25856
1.26884
1.29268
1.32698
1.34331
1.34359
1.33994
1.33207
1.31398
1.27825
1.25502
1.25211
1.25252
1.25649
1.27022
1.29066
1.29828
1.29742
1.29279
1.28052
1.25526
1.23684
1.23383
1.23422
1.23719
1.24756
1.26616
1.27737
1.27778
1.27473
1.26896
1.2604
1.24859
1.24157
1.24052
1.24061
1.24129
1.24269
1.24352
1.24034
1.22926
1.21695
1.2155
1.21964
1.23072
1.24945
1.27567
1.29536
1.31057
1.32365
1.32833
1.32511
1.31692
1.31442
1.31384
1.31368
1.31311
1.30722
1.29388
1.27411
1.24989
1.23286
1.22601
1.22188
1.21952
1.21936
1.22248
1.23557
1.25559
1.26382
1.26482
1.26584
1.26569
1.25911
1.23531
1.21368
1.20992
1.20909
1.20841
1.20879
1.21309
1.22709
1.24226
1.24504
1.24396
1.24134
1.3425
1.34174
1.34086
1.33962
1.33798
1.33583
1.33331
1.33152
1.33067
1.3302
1.32992
1.32936
1.32803
1.32528
1.32122
1.31702
1.31447
1.31398
1.31463
1.31609
1.31576
1.31383
1.31022
1.30489
1.30089
1.29948
1.29919
1.29881
1.29796
1.29698
1.29551
1.29199
1.28853
1.28793
1.28777
1.2889
1.29049
1.29007
1.28875
1.28594
1.28012
1.27181
1.26723
1.26654
1.26704
1.27127
1.27742
1.27856
1.27742
1.27438
1.26781
1.25804
1.25309
1.25219
1.25229
1.25473
1.25948
1.26084
1.26008
1.25802
1.25341
1.24603
1.24155
1.24067
1.24041
1.24137
1.24521
1.24765
1.24728
1.24579
1.24176
1.23393
1.22656
1.2243
1.22409
1.22545
1.23122
1.23662
1.23766
1.23723
1.23505
1.22978
1.23478
1.24783
1.2792
1.33588
1.36918
1.39963
1.43574
1.44559
1.45112
1.45515
1.45611
1.45493
1.45326
1.45304
1.45352
1.45251
1.45057
1.45013
1.44978
1.44785
1.44212
1.43113
1.41642
1.4034
1.39634
1.3965
1.40104
1.41106
1.42982
1.44174
1.44172
1.44203
1.4431
1.44222
1.43088
1.40422
1.38656
1.3807
1.37851
1.37807
1.37923
1.38593
1.40223
1.41886
1.42266
1.42096
1.41361
1.39767
1.38244
1.3798
1.37926
1.37846
1.37796
1.37782
1.37646
1.37415
1.37155
1.3682
1.36274
1.35804
1.35796
1.3586
1.36113
1.36836
1.37804
1.37975
1.37805
1.37579
1.37279
1.36903
1.36452
1.35792
1.34485
1.3236
1.31259
1.31145
1.31148
1.31449
1.32706
1.34339
1.34681
1.34475
1.33888
1.32284
1.28799
1.26295
1.25882
1.25879
1.25887
1.26109
1.27051
1.29401
1.32949
1.34767
1.34848
1.34582
1.33915
1.32259
1.28729
1.26004
1.25555
1.25564
1.25861
1.27092
1.29237
1.30268
1.30247
1.29898
1.28848
1.26393
1.24162
1.23674
1.23672
1.23857
1.24709
1.26557
1.28072
1.28276
1.28088
1.27588
1.26715
1.25426
1.24464
1.24243
1.24271
1.24398
1.24617
1.24796
1.24704
1.23982
1.22619
1.22304
1.22729
1.23894
1.25622
1.28173
1.30495
1.31824
1.32912
1.33387
1.33193
1.32195
1.31508
1.3136
1.31278
1.31226
1.30854
1.29736
1.28062
1.25852
1.23812
1.22911
1.22506
1.22245
1.22206
1.22378
1.23274
1.25232
1.26736
1.26975
1.27043
1.27072
1.26736
1.24995
1.22149
1.21152
1.21028
1.20942
1.20926
1.21124
1.22103
1.23915
1.24759
1.24753
1.24583
1.24308
1.34655
1.34518
1.34448
1.34409
1.34281
1.33996
1.33698
1.33616
1.33546
1.33429
1.33278
1.33081
1.32795
1.3242
1.32053
1.31845
1.3181
1.31871
1.31972
1.31915
1.31718
1.31359
1.30839
1.30436
1.30294
1.30271
1.30261
1.30201
1.30099
1.29943
1.29585
1.29202
1.29111
1.29094
1.29183
1.29349
1.29326
1.29209
1.28957
1.28434
1.27629
1.27126
1.27028
1.27059
1.27421
1.28028
1.2817
1.28065
1.27788
1.27187
1.26204
1.2564
1.25518
1.25519
1.25727
1.26216
1.26406
1.26348
1.26178
1.25767
1.25025
1.24463
1.24321
1.24295
1.24369
1.24761
1.25118
1.25116
1.24988
1.24616
1.23859
1.23058
1.22781
1.2276
1.22875
1.23443
1.24034
1.24085
1.2396
1.23589
1.22642
1.21641
1.21494
1.21603
1.2238
1.26136
1.31421
1.3608
1.41873
1.43846
1.44627
1.45397
1.45595
1.45534
1.4564
1.45669
1.45627
1.45458
1.45215
1.45081
1.45