/*--------------------------------*- C++ -*----------------------------------*\
  =========                 |
  \\      /  F ield         | OpenFOAM: The Open Source CFD Toolbox
   \\    /   O peration     | Website:  https://openfoam.org
    \\  /    A nd           | Version:  7
     \\/     M anipulation  |
\*---------------------------------------------------------------------------*/
FoamFile
{
    version     2.0;
    format      ascii;
    class       volScalarField;
    location    "0.6";
    object      T;
}
// * * * * * * * * * * * * * * * * * * * * * * * * * * * * * * * * * * * * * //

dimensions      [0 0 0 1 0 0 0];

internalField   nonuniform List<scalar> 
4128
(
1
1
1
1
1
1
1
1
1
1
1
1
1
1
1
1
1
1
1
1
1
1.00002
1.00119
1.02919
1.1783
1.37339
1.55616
1.64299
1.63695
1.6206
1.61701
1.61775
1.61115
1.60635
1.60775
1.60731
1.60011
1.58354
1.56083
1.54829
1.54726
1.54732
1.55184
1.55496
1.55011
1.53548
1.51287
1.49956
1.49949
1.50202
1.50292
1.50158
1.49579
1.48415
1.46943
1.45919
1.45459
1.45449
1.45557
1.4561
1.4522
1.43956
1.42455
1.41176
1.40163
1.4005
1.40204
1.40549
1.40658
1.40577
1.40082
1.38952
1.3762
1.36642
1.35799
1.35462
1.35716
1.35805
1.35665
1.35124
1.34178
1.33278
1.32317
1.31605
1
1
1
1
1
1
1
1
1
1
1
1
1
1
1
1
1
1
1
1
1
1
1
1
1
1
1.00001
1.00048
1.01099
1.0866
1.28039
1.52237
1.60618
1.60866
1.61374
1.62083
1.61438
1.61083
1.61164
1.60893
1.59436
1.57702
1.55845
1.55203
1.55345
1.55617
1.56019
1.56012
1.55068
1.53015
1.5083
1.50216
1.50438
1.50769
1.5079
1.50444
1.49545
1.48058
1.46538
1.45991
1.46005
1.46106
1.46205
1.46033
1.45049
1.43475
1.42138
1.41097
1.40724
1.4082
1.4108
1.41253
1.41205
1.40842
1.39962
1.38551
1.37247
1.36439
1.35957
1.36099
1.36368
1.36347
1.3605
1.35196
1.33993
1.33053
1.32303
1.32149
1
1
1
1
1
1
1
1
1
1
1
1
1
1
1
1
1
1
1
1
1
1
1
1
1
1
1
1
1.00009
1.00286
1.03687
1.20947
1.47235
1.56402
1.59381
1.61538
1.62105
1.62088
1.61735
1.6035
1.58681
1.57531
1.5598
1.55831
1.56277
1.56667
1.56674
1.56188
1.54551
1.52169
1.50814
1.50799
1.5121
1.51343
1.51102
1.50417
1.49135
1.47557
1.46633
1.46559
1.46653
1.46684
1.46514
1.45841
1.44604
1.43202
1.41956
1.41405
1.41432
1.4166
1.41936
1.41933
1.41696
1.40913
1.395
1.38028
1.37075
1.3657
1.36583
1.36946
1.36983
1.36788
1.36117
1.35008
1.3378
1.32972
1.32728
1.32778
1
1
1
1
1
1
1
1
1
1
1
1
1
1
1
1
1
1
1
1
1
1
1
1
1
1
1
1
1
1.00001
1.00079
1.01986
1.1667
1.39248
1.50017
1.5847
1.62247
1.6219
1.61135
1.5947
1.58595
1.57606
1.56454
1.56624
1.57246
1.57348
1.57029
1.55927
1.53702
1.5183
1.51162
1.51362
1.51929
1.51901
1.51357
1.50266
1.48417
1.47172
1.47142
1.47346
1.47451
1.47337
1.46627
1.45423
1.44086
1.42938
1.42258
1.42218
1.42346
1.42517
1.42535
1.42374
1.41762
1.40573
1.38936
1.37715
1.37225
1.37097
1.37375
1.3762
1.37525
1.37003
1.35963
1.3475
1.33607
1.33196
1.33349
1.33469
1
1
1
1
1
1
1
1
1
1
1
1
1
1
1
1
1
1
1
1
1
1
1
1
1
1
1
1
1
1
1
1.00038
1.01117
1.0954
1.2541
1.43575
1.59295
1.60881
1.59869
1.58927
1.58543
1.57667
1.57126
1.57503
1.5803
1.57837
1.56971
1.55153
1.52915
1.52059
1.51947
1.52207
1.52488
1.52145
1.51287
1.49714
1.48105
1.47664
1.47769
1.47872
1.47875
1.47559
1.46578
1.45221
1.43639
1.42837
1.42848
1.43122
1.43406
1.43424
1.4322
1.42577
1.41401
1.39914
1.38503
1.37809
1.3776
1.37947
1.38264
1.38256
1.37907
1.369
1.35478
1.34316
1.33742
1.33781
1.34053
1.34068
1
1
1
1
1
1
1
1
1
1
1
1
1
1
1
1
1
1
1
1
1
1
1
1
1
1
1
1
1
1
1
1
1.00012
1.00312
1.0309
1.15185
1.38923
1.55305
1.57314
1.57406
1.58059
1.5813
1.58357
1.58765
1.58589
1.57757
1.5656
1.54343
1.52843
1.52835
1.52843
1.53018
1.53005
1.52231
1.50718
1.48871
1.483
1.48457
1.48597
1.48505
1.48081
1.47312
1.46315
1.45036
1.43789
1.43442
1.43472
1.43704
1.43991
1.43963
1.4358
1.42512
1.40854
1.39363
1.38477
1.38309
1.38509
1.38872
1.38929
1.38733
1.37985
1.36573
1.34994
1.34269
1.34206
1.34517
1.34688
1.34607
1
1
1
1
1
1
1
1
1
1
1
1
1
1
1
1
1
1
1
1
1
1
1
1
1
1
1
1
1
1
1
1
1
1.00001
1.00052
1.01024
1.09103
1.32106
1.48296
1.52833
1.56305
1.59088
1.59448
1.59081
1.58378
1.57426
1.56258
1.54036
1.53453
1.53677
1.5368
1.53652
1.53256
1.51954
1.50079
1.48804
1.48713
1.49138
1.4934
1.49085
1.48206
1.47091
1.45852
1.44696
1.44364
1.44437
1.44524
1.4448
1.44295
1.43997
1.43365
1.42047
1.4043
1.39366
1.39014
1.39053
1.39373
1.39522
1.39408
1.38846
1.37714
1.36134
1.34908
1.34722
1.34952
1.35222
1.35224
1.34982
1
1
1
1
1
1
1
1
1
1
1
1
1
1
1
1
1
1
1
1
1
1
1
1
1
1
1
1
1
1
1
1
1
1
1
1.00012
1.0041
1.05659
1.22872
1.37254
1.49237
1.58439
1.59067
1.58528
1.5788
1.57116
1.55584
1.54168
1.54299
1.54722
1.546
1.54034
1.52957
1.5125
1.49669
1.49448
1.4965
1.49764
1.49491
1.48864
1.4808
1.46948
1.45568
1.44894
1.44968
1.45285
1.45463
1.45348
1.44809
1.4394
1.42746
1.41316
1.402
1.39856
1.39896
1.40052
1.40176
1.40106
1.39658
1.38652
1.37174
1.35848
1.35333
1.35426
1.35716
1.35778
1.35664
1.35131
1
1
1
1
1
1
1
1
1
1
1
1
1
1
1
1
1
1
1
1
1
1
1
1
1
1
1
1
1
1
1
1
1
1
1
1
1.00004
1.00172
1.02325
1.1089
1.27229
1.48281
1.56759
1.5713
1.56843
1.56381
1.55245
1.54969
1.5546
1.55691
1.5536
1.5457
1.52842
1.50698
1.49969
1.50252
1.50648
1.50511
1.49692
1.48666
1.4764
1.46545
1.45794
1.45733
1.4574
1.45665
1.45561
1.45348
1.44788
1.43707
1.42272
1.41015
1.40469
1.405
1.40687
1.40767
1.40726
1.40401
1.39589
1.38212
1.36712
1.3603
1.35998
1.36138
1.36318
1.36282
1.35948
1.35051
1
1
1
1
1
1
1
1
1
1
1
1
1
1
1
1
1
1
1
1
1
1
1
1
1
1
1
1
1
1
1
1
1
1
1
1
1
1.00001
1.00032
1.0049
1.04494
1.20293
1.42603
1.51378
1.5369
1.55022
1.56138
1.56268
1.56007
1.55665
1.5513
1.54491
1.52795
1.51236
1.50732
1.5079
1.51199
1.50956
1.50055
1.48697
1.47105
1.46403
1.4647
1.46773
1.46798
1.46499
1.45699
1.44947
1.44227
1.43259
1.42207
1.41392
1.4121
1.41256
1.4127
1.41209
1.40964
1.40409
1.39261
1.37659
1.36752
1.36682
1.36714
1.36762
1.36792
1.3667
1.36072
1.34863
1
1
1
1
1
1
1
1
1
1
1
1
1
1
1
1
1
1
1
1
1
1
1
1
1
1
1
1
1
1
1
1
1
1
1
1
1
1
1
1.00003
1.00119
1.01931
1.14452
1.32726
1.42322
1.50491
1.56015
1.56802
1.56474
1.5588
1.54996
1.53999
1.52537
1.52094
1.52001
1.51678
1.51185
1.50661
1.49947
1.48668
1.47376
1.46956
1.47174
1.4757
1.47571
1.47181
1.45953
1.44459
1.43522
1.42913
1.42431
1.42234
1.42178
1.42104
1.41896
1.41518
1.40991
1.40056
1.38545
1.37535
1.37361
1.37402
1.37412
1.37382
1.37287
1.36959
1.36072
1.34468
1
1
1
1
1
1
1
1
1
1
1
1
1
1
1
1
1
1
1
1
1
1
1
1
1
1
1
1
1
1
1
1
1
1
1
1
1
1
1
1
1.00001
1.00036
1.00933
1.06445
1.18261
1.34326
1.50502
1.55671
1.55794
1.55577
1.54831
1.53596
1.52914
1.53021
1.53134
1.52686
1.5155
1.50385
1.4946
1.48484
1.48178
1.48239
1.4819
1.47941
1.47614
1.46989
1.45844
1.44457
1.4342
1.42971
1.42878
1.42885
1.42864
1.42704
1.42317
1.41729
1.40752
1.3931
1.38248
1.38043
1.38081
1.38065
1.38061
1.38015
1.3782
1.3719
1.35644
1.34124
1
1
1
1
1
1
1
1
1
1
1
1
1
1
1
1
1
1
1
1
1
1
1
1
1
1
1
1
1
1
1
1
1
1
1
1
1
1
1
1
1
1
1.00009
1.00174
1.01603
1.09496
1.28433
1.46179
1.51993
1.53558
1.53711
1.5378
1.53723
1.53765
1.53727
1.53309
1.52095
1.50535
1.49262
1.48868
1.49139
1.49393
1.49278
1.48483
1.47126
1.46138
1.45371
1.4454
1.43877
1.43629
1.43555
1.43427
1.43217
1.42895
1.42425
1.41569
1.40246
1.39108
1.3875
1.3877
1.38755
1.38712
1.38696
1.3861
1.38147
1.36818
1.35055
1.34444
1
1
1
1
1
1
1
1
1
1
1
1
1
1
1
1
1
1
1
1
1
1
1
1
1
1
1
1
1
1
1
1
1
1
1
1
1
1
1
1
1
1
1
1.00001
1.00021
1.00476
1.04654
1.21204
1.36447
1.45029
1.51132
1.53932
1.53991
1.53979
1.53725
1.53032
1.52115
1.50861
1.49968
1.49623
1.49552
1.49696
1.49529
1.48733
1.47205
1.45744
1.45073
1.44856
1.44754
1.44717
1.44541
1.44084
1.4349
1.429
1.42126
1.41071
1.40032
1.39618
1.3958
1.39549
1.39452
1.39386
1.39295
1.38859
1.37712
1.36169
1.3518
1.35126
1
1
1
1
1
1
1
1
1
1
1
1
1
1
1
1
1
1
1
1
1
1
1
1
1
1
1
1
1
1
1
1
1
1
1
1
1
1
1
1
1
1
1
1
1
1.00004
1.00137
1.02182
1.10565
1.23427
1.38692
1.5024
1.54107
1.541
1.5329
1.52201
1.52061
1.51889
1.51447
1.5095
1.50243
1.49542
1.49036
1.48404
1.47308
1.46187
1.45573
1.45483
1.45446
1.45383
1.4513
1.44573
1.43817
1.42851
1.41742
1.40805
1.40423
1.40375
1.40409
1.40304
1.40181
1.40057
1.39582
1.38376
1.36998
1.36125
1.35837
1.35847
1
1
1
1
1
1
1
1
1
1
1
1
1
1
1
1
1
1
1
1
1
1
1
1
1
1
1
1
1
1
1
1
1
1
1
1
1
1
1
1
1
1
1
1
1
1
1.00001
1.00035
1.00462
1.03368
1.13789
1.31993
1.45694
1.52507
1.5239
1.51341
1.51023
1.51408
1.52074
1.5192
1.51229
1.50155
1.48937
1.47756
1.47043
1.46742
1.46652
1.46582
1.46301
1.45799
1.45191
1.44518
1.43655
1.42642
1.41759
1.4138
1.41286
1.41245
1.41162
1.41
1.40839
1.40363
1.39186
1.37689
1.36944
1.36701
1.36558
1.36566
1
1
1
1
1
1
1
1
1
1
1
1
1
1
1
1
1
1
1
1
1
1
1
1
1
1
1
1
1
1
1
1
1
1
1
1
1
1
1
1
1
1
1
1
1
1
1
1
1.00003
1.00072
1.00905
1.0765
1.22615
1.36722
1.45965
1.50187
1.51561
1.51774
1.51697
1.51526
1.51101
1.50208
1.49115
1.48209
1.4781
1.47443
1.47193
1.47145
1.46842
1.46161
1.45325
1.44353
1.433
1.42539
1.42268
1.42195
1.42201
1.42091
1.41865
1.41649
1.41119
1.39973
1.38467
1.37614
1.37428
1.37404
1.37293
1.37284
1
1
1
1
1
1
1
1
1
1
1
1
1
1
1
1
1
1
1
1
1
1
1
1
1
1
1
1
1
1
1
1
1
1
1
1
1
1
1
1
1
1
1
1
1
1
1
1
1
1
1.00011
1.00306
1.02647
1.1192
1.26245
1.39737
1.46962
1.51603
1.52237
1.51815
1.50617
1.49796
1.49408
1.4925
1.4903
1.48586
1.4795
1.4734
1.46694
1.45983
1.45239
1.44356
1.43546
1.43238
1.43121
1.42999
1.42903
1.42713
1.42461
1.41891
1.40775
1.3926
1.38332
1.3809
1.38115
1.38102
1.3802
1.37971
1
1
1
1
1
1
1
1
1
1
1
1
1
1
1
1
1
1
1
1
1
1
1
1
1
1
1
1
1
1
1
1
1
1
1
1
1
1
1
1
1
1
1
1
1
1
1
1
1
1
1
1.00002
1.00048
1.00662
1.04327
1.16908
1.32099
1.42155
1.48447
1.50869
1.50734
1.50276
1.49719
1.49465
1.49277
1.48905
1.48381
1.47683
1.4688
1.45914
1.44957
1.44356
1.44178
1.44166
1.44037
1.43729
1.43423
1.43122
1.42554
1.41544
1.40119
1.39118
1.38814
1.38791
1.38904
1.38793
1.38707
1.38482
1
1
1
1
1
1
1
1
1
1
1
1
1
1
1
1
1
1
1
1
1
1
1
1
1
1
1
1
1
1
1
1
1
1
1
1
1
1
1
1
1
1
1
1
1
1
1
1
1
1
1
1
1
1.00005
1.00115
1.01398
1.07715
1.21538
1.34986
1.44504
1.47085
1.48822
1.50272
1.50489
1.50105
1.49303
1.48401
1.47718
1.47107
1.46224
1.45291
1.45037
1.44952
1.44723
1.44411
1.44114
1.43781
1.43206
1.42239
1.40893
1.39895
1.39566
1.39527
1.39688
1.39616
1.3949
1.39239
1.38387
1
1
1
1
1
1
1
1
1
1
1
1
1
1
1
1
1
1
1
1
1
1
1
1
1
1
1
1
1
1
1
1
1
1
1
1
1
1
1
1
1
1
1
1
1
1
1
1
1
1
1
1
1
1
1
1.00017
1.00313
1.02723
1.1036
1.25386
1.38895
1.43596
1.4743
1.49736
1.49877
1.49718
1.49025
1.48186
1.47277
1.46407
1.46008
1.45966
1.45841
1.45408
1.448
1.44259
1.43755
1.43029
1.41888
1.40803
1.40375
1.40288
1.4043
1.40443
1.4029
1.39998
1.39164
1.37702
1
1
1
1
1
1
1
1
1
1
1
1
1
1
1
1
1
1
1
1
1
1
1
1
1
1
1
1
1
1
1
1
1
1
1
1
1
1
1
1
1
1
1
1
1
1
1
1
1
1
1
1
1
1
1
1
1.00002
1.00046
1.00588
1.0421
1.15379
1.28561
1.39484
1.45514
1.46962
1.48062
1.48677
1.48667
1.48218
1.47465
1.46813
1.46481
1.46283
1.4583
1.45201
1.44505
1.43563
1.42463
1.41589
1.41237
1.41177
1.41248
1.412
1.41073
1.40765
1.39912
1.3851
1.37271
1
1
1
1
1
1
1
1
1
1
1
1
1
1
1
1
1
1
1
1
1
1
1
1
1
1
1
1
1
1
1
1
1
1
1
1
1
1
1
1
1
1
1
1
1
1
1
1
1
1
1
1
1
1
1
1
1
1
1.00005
1.00106
1.01267
1.06222
1.16525
1.30856
1.41946
1.4447
1.45994
1.47654
1.48422
1.48434
1.47804
1.46679
1.46134
1.45866
1.45482
1.4487
1.43799
1.42488
1.41944
1.41873
1.42109
1.42153
1.41988
1.41619
1.40679
1.39281
1.38107
1.3759
1
1
1
1
1
1
1
1
1
1
1
1
1
1
1
1
1
1
1
1
1
1
1
1
1
1
1
1
1
1
1
1
1
1
1
1
1
1
1
1
1
1
1
1
1
1
1
1
1
1
1
1
1
1
1
1
1
1
1
1
1.00016
1.00191
1.01559
1.079
1.21068
1.34073
1.40107
1.43819
1.47035
1.479
1.47795
1.47361
1.4645
1.45647
1.45024
1.44652
1.44075
1.43451
1.43018
1.42766
1.4279
1.42723
1.42343
1.41569
1.40236
1.38927
1.38392
1.38334
1
1
1
1
1
1
1
1
1
1
1
1
1
1
1
1
1
1
1
1
1
1
1
1
1
1
1
1
1
1
1
1
1
1
1
1
1
1
1
1
1
1
1
1
1
1
1
1
1
1
1
1
1
1
1
1
1
1
1
1
1
1.00001
1.00023
1.00363
1.02777
1.10342
1.21873
1.33428
1.4106
1.44082
1.46455
1.46981
1.46767
1.46076
1.45271
1.44743
1.4453
1.44559
1.44209
1.43844
1.43343
1.42732
1.4214
1.41228
1.39994
1.39331
1.39253
1.39334
1
1
1
1
1
1
1
1
1
1
1
1
1
1
1
1
1
1
1
1
1
1
1
1
1
1
1
1
1
1
1
1
1
1
1
1
1
1
1
1
1
1
1
1
1
1
1
1
1
1
1
1
1
1
1
1
1
1
1
1
1
1
1
1.00003
1.00052
1.00548
1.03122
1.10896
1.24669
1.35008
1.40367
1.44279
1.46097
1.46223
1.45934
1.45276
1.44816
1.44678
1.44819
1.44619
1.44001
1.42933
1.4166
1.40678
1.40252
1.40258
1.40362
1.40358
1
1
1
1
1
1
1
1
1
1
1
1
1
1
1
1
1
1
1
1
1
1
1
1
1
1
1
1
1
1
1
1
1
1
1
1
1
1
1
1
1
1
1
1
1
1
1
1
1
1
1
1
1
1
1
1
1
1
1
1
1
1
1
1
1
1.00004
1.00064
1.00709
1.04311
1.13904
1.24833
1.35042
1.40125
1.43615
1.45535
1.45539
1.4514
1.44435
1.44306
1.44375
1.44067
1.4314
1.41756
1.41027
1.40986
1.41214
1.41332
1.41129
1
1
1
1
1
1
1
1
1
1
1
1
1
1
1
1
1
1
1
1
1
1
1
1
1
1
1
1
1
1
1
1
1
1
1
1
1
1
1
1
1
1
1
1
1
1
1
1
1
1
1
1
1
1
1
1
1
1
1
1
1
1
1
1
1
1
1
1.00007
1.00117
1.01151
1.04589
1.13418
1.26541
1.3517
1.39921
1.4385
1.44934
1.4487
1.44256
1.43895
1.43737
1.43358
1.42732
1.42337
1.41908
1.41854
1.41856
1.41455
1
1
1
1
1
1
1
1
1
1
1
1
1
1
1
1
1
1
1
1
1
1
1
1
1
1
1
1
1
1
1
1
1
1
1
1
1
1
1
1
1
1
1
1
1
1
1
1
1
1
1
1
1
1
1
1
1
1
1
1
1
1
1
1
1
1
1
1
1
1.00013
1.00128
1.01081
1.05722
1.15893
1.26182
1.34202
1.41284
1.44199
1.44079
1.43387
1.43283
1.43419
1.43782
1.43652
1.43029
1.42164
1.41689
1.41283
1
1
1
1
1
1
1
1
1
1
1
1
1
1
1
1
1
1
1
1
1
1
1
1
1
1
1
1
1
1
1
1
1
1
1
1
1
1
1
1
1
1
1
1
1
1
1
1
1
1
1
1
1
1
1
1
1
1
1
1
1
1
1
1
1
1
1
1
1
1
1.00001
1.00014
1.00211
1.01508
1.06056
1.15366
1.26464
1.36127
1.41435
1.41837
1.41982
1.42681
1.43685
1.43899
1.43693
1.42725
1.41527
1.40817
1
1
1
1
1
1
1
1
1
1
1
1
1
1
1
1
1
1
1
1
1
1
1
1
1
1
1
1
1
1
1
1
1
1
1
1
1
1
1
1
1
1
1
1
1
1
1
1
1
1
1
1
1
1
1
1
1
1
1
1
1
1
1
1
1
1
1
1
1
1
1
1
1.00001
1.0002
1.00224
1.0149
1.06451
1.15727
1.26293
1.35038
1.39068
1.40477
1.42075
1.43537
1.43568
1.43075
1.41932
1.41042
1
1
1
1
1
1
1
1
1
1
1
1
1
1
1
1
1
1
1
1
1
1
1
1
1
1
1
1
1
1
1
1
1
1
1
1
1
1
1
1
1
1
1
1
1
1
1
1
1
1
1
1
1
1
1
1
1
1
1
1
1
1
1
1
1
1
1
1
1
1
1
1
1
1
1.00001
1.00022
1.00238
1.01566
1.06255
1.15067
1.25627
1.34681
1.38425
1.40495
1.42282
1.42639
1.42419
1.41718
1
1
1
1
1
1
1
1
1
1
1
1
1
1
1
1
1
1
1
1
1
1
1
1
1
1
1
1
1
1
1
1
1
1
1
1
1
1
1
1
1
1
1
1
1
1
1
1
1
1
1
1
1
1
1
1
1
1
1
1
1
1
1
1
1
1
1
1
1
1
1
1
1
1
1
1
1.00001
1.00024
1.00237
1.01543
1.06072
1.15
1.25549
1.33055
1.36748
1.39491
1.41744
1.41912
1
1
1
1
1
1
1
1
1
1
1
1
1
1
1
1
1
1
1
1
1
1
1
1
1
1
1
1
1
1
1
1
1
1
1
1
1
1
1
1
1
1
1
1
1
1
1
1
1
1
1
1
1
1
1
1
1
1
1
1
1
1
1
1
1
1
1
1
1
1
1
1
1
1
1
1
1
1
1.00001
1.00024
1.00227
1.01493
1.05563
1.13421
1.23474
1.30756
1.35805
1.40428
1
1
1
1
1
1
1
1
1
1
1
1
1
1
1
1
1
1
1
1
1
1
1
1
1
1
1
1
1
1
1
1
1
1
1
1
1
1
1
1
1
1
1
1
1
1
1
1
1
1
1
1
1
1
1
1
1
1
1
1
1
1
1
1
1
1
1
1
1
1
1
1
1
1
1
1
1
1
1
1
1.00001
1.00021
1.00187
1.0117
1.04651
1.12559
1.21951
1.29977
1
1
1.31734
1.31771
1.31659
1.31195
1.30167
1.29135
1.28342
1.27827
1.27559
1.27666
1.27999
1.30119
1.40656
1.58746
1.64953
1.6807
1.69129
1.68686
1.67321
1.66364
1.65637
1.64704
1.63895
1.6331
1.62562
1.62068
1.6189
1.61727
1.61253
1.60835
1.32337
1.32336
1.32119
1.31343
1.30007
1.2898
1.28379
1.2811
1.28009
1.28077
1.28126
1.28145
1.30197
1.42182
1.56772
1.63667
1.67567
1.67489
1.6668
1.65906
1.64837
1.63421
1.62804
1.62548
1.61938
1.61644
1.6164
1.61555
1.61109
1.60802
1.32787
1.32716
1.32291
1.31268
1.29935
1.28944
1.28533
1.28546
1.28762
1.28771
1.28647
1.27793
1.27484
1.30036
1.42305
1.54311
1.63137
1.66623
1.66446
1.65562
1.63968
1.6247
1.62387
1.62252
1.61659
1.61618
1.6163
1.61435
1.61001
1.60708
1.33395
1.33049
1.32147
1.30928
1.29827
1.291
1.2903
1.2921
1.2943
1.29394
1.29047
1.27965
1.26818
1.27
1.30059
1.39722
1.51457
1.64029
1.65592
1.64786
1.6322
1.6249
1.62677
1.62211
1.6166
1.6167
1.61641
1.61308
1.60893
1.60462
1.33888
1.33179
1.31873
1.30612
1.29792
1.29554
1.29743
1.29966
1.30021
1.2984
1.29141
1.27941
1.26848
1.26911
1.2728
1.29231
1.36288
1.52412
1.63021
1.62563
1.62331
1.62703
1.62634
1.61808
1.61722
1.61855
1.61673
1.61157
1.6061
1.59777
1.34165
1.33093
1.31659
1.30552
1.30093
1.30188
1.30518
1.30586
1.30523
1.3005
1.28971
1.27872
1.27367
1.27126
1.27162
1.27257
1.28494
1.36079
1.52947
1.58415
1.60166
1.62343
1.6223
1.61805
1.62016
1.61927
1.61491
1.60912
1.60138
1.58376
1.34151
1.32831
1.31544
1.30742
1.30687
1.30935
1.31107
1.31092
1.30809
1.29968
1.28786
1.28025
1.27813
1.27491
1.27176
1.27174
1.27218
1.28267
1.37234
1.49838
1.55653
1.59864
1.62473
1.62651
1.62293
1.61645
1.60962
1.60369
1.58845
1.57593
1.33947
1.32534
1.3158
1.31275
1.31416
1.31643
1.31641
1.31479
1.3086
1.29725
1.28747
1.28262
1.28041
1.27795
1.27531
1.27449
1.27198
1.26544
1.27999
1.36118
1.454
1.54865
1.61438
1.62428
1.62159
1.61518
1.60657
1.59289
1.57547
1.57488
1.33631
1.32389
1.3193
1.31912
1.32147
1.32257
1.32176
1.31751
1.30752
1.29569
1.2869
1.28435
1.28222
1.28164
1.28142
1.28032
1.27456
1.2614
1.25803
1.27238
1.32309
1.43908
1.56547
1.60586
1.61325
1.60888
1.60271
1.58501
1.57539
1.57725
1.33336
1.32602
1.32557
1.3262
1.32811
1.32847
1.32659
1.31906
1.30675
1.29405
1.28722
1.28553
1.28579
1.28676
1.28683
1.28419
1.27547
1.26202
1.2562
1.25754
1.26533
1.3121
1.44951
1.55401
1.58968
1.59686
1.59452
1.58709
1.58486
1.5843
1.33335
1.332
1.33262
1.33364
1.33465
1.33435
1.33014
1.31913
1.30391
1.29308
1.28896
1.2893
1.29197
1.29244
1.29062
1.28421
1.274
1.26414
1.25866
1.25923
1.26257
1.26964
1.32257
1.44112
1.52218
1.56589
1.58365
1.59248
1.59054
1.58282
1.33844
1.33882
1.33982
1.34071
1.34085
1.33887
1.33095
1.31431
1.29918
1.29421
1.2938
1.29641
1.29814
1.29737
1.29217
1.28145
1.27183
1.26659
1.26522
1.26419
1.26533
1.26755
1.27344
1.31908
1.39914
1.4969
1.55919
1.58459
1.58438
1.5797
1.34487
1.34555
1.34671
1.34699
1.3459
1.3402
1.32594
1.30785
1.29912
1.29904
1.30195
1.30343
1.30333
1.30054
1.29174
1.27832
1.27176
1.27076
1.27133
1.27124
1.27044
1.26976
1.26673
1.26945
1.29611
1.37249
1.49581
1.54901
1.57032
1.57372
1.35182
1.35252
1.35303
1.35239
1.34789
1.33527
1.31818
1.30666
1.3051
1.30722
1.30986
1.30964
1.30742
1.30085
1.2897
1.2778
1.27481
1.27605
1.27735
1.27734
1.27628
1.2736
1.26837
1.26175
1.2632
1.28064
1.36145
1.46919
1.52009
1.55157
1.35907
1.35942
1.35895
1.35522
1.34321
1.32701
1.31548
1.31253
1.31362
1.31637
1.31688
1.31548
1.30968
1.29862
1.28733
1.28072
1.28031
1.2823
1.28312
1.28278
1.2813
1.27731
1.27104
1.26396
1.25754
1.25392
1.26812
1.34107
1.42021
1.4933
1.36604
1.36575
1.36274
1.35154
1.33477
1.32378
1.32034
1.32066
1.32266
1.32419
1.32383
1.32027
1.30899
1.29482
1.2886
1.28698
1.28722
1.2886
1.2887
1.28789
1.28501
1.27978
1.2739
1.26597
1.25517
1.24982
1.25008
1.26199
1.30749
1.38792
1.3725
1.36997
1.35989
1.34293
1.33157
1.32852
1.32848
1.32934
1.33107
1.33116
1.32931
1.32009
1.30309
1.29476
1.29425
1.29427
1.2945
1.29484
1.29433
1.29204
1.28742
1.28169
1.27462
1.26442
1.25378
1.25033
1.24937
1.25018
1.25703
1.29096
1.37742
1.36808
1.35158
1.33907
1.33586
1.33591
1.33757
1.33799
1.33833
1.33717
1.32928
1.31328
1.30106
1.29976
1.30043
1.30087
1.30109
1.3008
1.29885
1.2949
1.28961
1.28213
1.27199
1.26135
1.25628
1.25489
1.25376
1.25137
1.25223
1.25639
1.37617
1.36053
1.34747
1.34335
1.34309
1.34563
1.34615
1.3457
1.34432
1.33708
1.32227
1.31096
1.30721
1.30638
1.30655
1.30699
1.30696
1.30541
1.30186
1.29739
1.29053
1.27935
1.26797
1.26271
1.26132
1.2607
1.26063
1.25709
1.25379
1.25459
1.36864
1.3557
1.35102
1.35062
1.3532
1.35504
1.35386
1.35153
1.34401
1.32977
1.31768
1.31479
1.31482
1.31389
1.3137
1.31356
1.31236
1.30908
1.30473
1.29844
1.28793
1.27499
1.26877
1.26735
1.26631
1.26673
1.26651
1.26289
1.2598
1.25804
1.36408
1.35892
1.3583
1.3605
1.36342
1.36245
1.35977
1.35168
1.33761
1.32529
1.32077
1.32054
1.32084
1.32078
1.32077
1.32012
1.31737
1.31285
1.30568
1.29553
1.2833
1.27559
1.27397
1.2727
1.2722
1.27284
1.27101
1.26791
1.26631
1.2645
1.36747
1.36679
1.36864
1.37139
1.37046
1.36783
1.36001
1.34587
1.33335
1.32846
1.32752
1.32742
1.32782
1.32828
1.3281
1.32593
1.32131
1.31316
1.30221
1.29073
1.28333
1.28126
1.28019
1.27883
1.27891
1.27825
1.27518
1.27316
1.2719
1.26968
1.37524
1.37697
1.37983
1.37883
1.37582
1.36786
1.35375
1.34105
1.33632
1.33572
1.33573
1.33615
1.33667
1.33648
1.33417
1.32854
1.31978
1.30888
1.29755
1.29071
1.28889
1.28801
1.28669
1.28553
1.28492
1.28278
1.2805
1.27868
1.27642
1.2722
1.38526
1.38799
1.38708
1.3842
1.37619
1.36222
1.34911
1.34384
1.34336
1.34475
1.34631
1.34608
1.3453
1.34247
1.33548
1.3258
1.31475
1.30428
1.29751
1.29579
1.29567
1.29459
1.29294
1.29167
1.28978
1.28779
1.28583
1.28341
1.27955
1.27161
1.39613
1.39518
1.39191
1.38402
1.37096
1.35814
1.35221
1.35138
1.35262
1.35616
1.35588
1.35407
1.35007
1.34245
1.33298
1.32225
1.31174
1.30454
1.30261
1.30251
1.30246
1.30059
1.29898
1.29695
1.29449
1.2923
1.2901
1.28686
1.28035
1.26888
1.40269
1.39938
1.39127
1.37881
1.36669
1.3609
1.36012
1.36143
1.36465
1.36439
1.36198
1.35648
1.34867
1.34007
1.33091
1.32062
1.31215
1.30983
1.30949
1.31001
1.30852
1.30631
1.3042
1.30161
1.29855
1.29614
1.29355
1.28904
1.27885
1.26684
1.40633
1.39773
1.38687
1.37612
1.36987
1.36883
1.3699
1.37342
1.37302
1.36928
1.36218
1.35345
1.34559
1.3383
1.32969
1.32077
1.31793
1.31731
1.31739
1.31667
1.31428
1.31143
1.30833
1.30531
1.30233
1.29978
1.29661
1.28933
1.27643
1.26919
1.40633
1.39491
1.38448
1.37978
1.37935
1.38035
1.38099
1.37993
1.37657
1.3696
1.35982
1.35069
1.34375
1.3372
1.32986
1.32682
1.3261
1.32555
1.32453
1.32249
1.31926
1.31514
1.31161
1.30903
1.30654
1.30349
1.29833
1.28734
1.27661
1.27447
1.40527
1.39432
1.38824
1.38777
1.38966
1.3913
1.38876
1.3827
1.37466
1.36709
1.35924
1.35092
1.34357
1.33776
1.33555
1.33484
1.3338
1.33232
1.33017
1.3269
1.32236
1.31818
1.31563
1.31363
1.31116
1.30661
1.29736
1.28547
1.28062
1.27929
1.40434
1.40096
1.39968
1.39748
1.39592
1.39407
1.38958
1.38249
1.37179
1.36318
1.35851
1.35391
1.34775
1.34369
1.34284
1.34157
1.33961
1.33712
1.33375
1.32939
1.32522
1.32265
1.32092
1.31896
1.31532
1.30638
1.29489
1.28735
1.28551
1.28402
1.40862
1.41039
1.41016
1.40681
1.39897
1.39069
1.38684
1.38184
1.37316
1.36368
1.36018
1.35872
1.35575
1.35171
1.34896
1.34677
1.34401
1.34002
1.33539
1.33194
1.32994
1.32847
1.32667
1.32366
1.3159
1.30302
1.29446
1.29186
1.29013
1.28881
1.41274
1.41174
1.41298
1.41038
1.40276
1.39263
1.38324
1.37849
1.37502
1.3708
1.36657
1.36298
1.36067
1.35799
1.35477
1.3514
1.34725
1.34189
1.33819
1.33675
1.33573
1.33424
1.33153
1.32461
1.31203
1.30111
1.29795
1.29644
1.29503
1.29452
1.41686
1.41045
1.40811
1.40813
1.40526
1.39785
1.38715
1.38016
1.37854
1.37769
1.37402
1.36704
1.36329
1.36222
1.36024
1.35622
1.35013
1.34542
1.34395
1.34276
1.34116
1.33848
1.33222
1.32078
1.30845
1.30387
1.30264
1.3015
1.30111
1.30261
1.41347
1.41113
1.40397
1.4029
1.40458
1.40391
1.39858
1.39118
1.3847
1.382
1.37893
1.37348
1.36775
1.36519
1.36397
1.36081
1.3549
1.35125
1.34954
1.34755
1.34437
1.3385
1.3287
1.31659
1.31034
1.30908
1.30812
1.30811
1.31009
1.31213
1.36494
1.39733
1.39487
1.39306
1.39883
1.40436
1.40579
1.40267
1.39401
1.38612
1.38305
1.38091
1.37658
1.37082
1.36632
1.36385
1.36082
1.35737
1.35387
1.34998
1.34437
1.33563
1.32491
1.31787
1.31637
1.31554
1.31565
1.31802
1.32037
1.31975
)
;

boundaryField
{
    inlet
    {
        type            fixedValue;
        value           nonuniform 0();
    }
    outlet
    {
        type            inletOutlet;
        inletValue      nonuniform 0();
        value           nonuniform 0();
    }
    bottom
    {
        type            zeroGradient;
    }
    top
    {
        type            zeroGradient;
    }
    obstacle
    {
        type            zeroGradient;
    }
    defaultFaces
    {
        type            empty;
    }
    procBoundary9to5
    {
        type            processor;
        value           nonuniform List<scalar> 
119
(
1
1
1
1
1
1
1
1
1
1
1
1
1
1
1
1
1
1
1
1
1.00007
1.00263
1.04577
1.26838
1.4798
1.58261
1.64923
1.65491
1.64604
1.62375
1.60984
1.60984
1.60731
1.60295
1.60452
1.60466
1.60089
1.58907
1.56665
1.5483
1.54208
1.54002
1.54326
1.54989
1.54736
1.53813
1.5197
1.49907
1.49429
1.49643
1.49892
1.49929
1.497
1.48746
1.47334
1.46081
1.45094
1.44737
1.44793
1.44972
1.45013
1.4457
1.43223
1.41588
1.40153
1.39525
1.39548
1.3972
1.39865
1.39875
1.39696
1.39126
1.38178
1.37022
1.35911
1.3514
1.35073
1.35264
1.35203
1.34939
1.34319
1.33407
1.32362
1.31394
1
1
1
1
1
1.31187
1.31312
1.31231
1.30912
1.30218
1.29268
1.28431
1.27736
1.27444
1.27554
1.29818
1.396
1.57335
1.67599
1.69751
1.70037
1.69749
1.69578
1.68547
1.67281
1.66422
1.65729
1.65195
1.64443
1.63258
1.62502
1.62195
1.61947
1.61507
1.60997
)
;
    }
    procBoundary9to6
    {
        type            processor;
        value           nonuniform List<scalar> 6(1.60617 1.6048 1.60139 1.59467 1.5842 1.57671);
    }
    procBoundary9to8
    {
        type            processor;
        value           nonuniform List<scalar> 
29
(
1
1
1
1
1
1
1
1
1
1
1
1
1
1
1
1
1
1
1
1
1
1
1
1
1
1
1
1
1
)
;
    }
    procBoundary9to10
    {
        type            processor;
        value           nonuniform List<scalar> 
29
(
1.57695
1.57839
1.57991
1.57935
1.57459
1.57292
1.56925
1.56582
1.54545
1.49793
1.39428
1.29154
1.25888
1.25793
1.26134
1.26448
1.26289
1.25923
1.25813
1.26233
1.26835
1.27413
1.27915
1.28359
1.28878
1.29573
1.30389
1.3113
1.3178
)
;
    }
    procBoundary9to12
    {
        type            processor;
        value           nonuniform List<scalar> 6(1 1 1 1 1 1);
    }
    procBoundary9to13
    {
        type            processor;
        value           nonuniform List<scalar> 
119
(
1
1
1
1
1
1
1
1
1
1
1
1
1
1
1
1
1
1
1
1
1
1
1
1
1
1
1
1
1
1
1
1
1
1
1
1
1
1
1
1
1
1
1
1
1
1
1
1
1
1
1
1
1
1
1
1
1
1
1
1
1
1
1
1
1
1
1
1
1
1
1
1
1
1
1
1
1
1
1
1
1.00001
1.00015
1.00154
1.01041
1.04252
1.11196
1
1
1
1.20056
1.28737
1.34998
1.36719
1.37916
1.39692
1.40435
1.40325
1.39775
1.3901
1.38779
1.38747
1.38605
1.38061
1.37173
1.36579
1.36436
1.36183
1.35744
1.3514
1.34327
1.33347
1.32592
1.32419
1.32374
1.32462
1.32695
1.32838
1.32751
1.32522
)
;
    }
}


// ************************************************************************* //
