/*--------------------------------*- C++ -*----------------------------------*\
  =========                 |
  \\      /  F ield         | OpenFOAM: The Open Source CFD Toolbox
   \\    /   O peration     | Website:  https://openfoam.org
    \\  /    A nd           | Version:  7
     \\/     M anipulation  |
\*---------------------------------------------------------------------------*/
FoamFile
{
    version     2.0;
    format      ascii;
    class       volScalarField;
    location    "1.5";
    object      rho;
}
// * * * * * * * * * * * * * * * * * * * * * * * * * * * * * * * * * * * * * //

dimensions      [1 -3 0 0 0 0 0];

internalField   nonuniform List<scalar> 
16192
(
0.89936
0.907328
0.918265
0.927601
0.933047
0.937365
0.94155
0.944746
0.947527
0.950178
0.952375
0.955021
0.958535
0.96224
0.966652
0.974017
0.981244
0.983668
0.983704
0.979437
0.975594
0.974174
0.972835
0.97249
0.977332
0.989803
1.0045
1.0136
1.01534
1.01327
1.00905
1.00441
1.0006
0.998859
1.00842
1.0301
1.04168
1.04032
1.03749
1.03472
1.03141
1.02747
1.02469
1.02412
1.0292
1.03436
1.0355
1.03552
1.03566
1.03595
1.03536
1.03409
1.0353
1.04188
1.04557
1.04528
1.04471
1.04497
1.04437
1.04289
1.04135
1.03947
1.03644
1.03282
1.03086
1.02961
1.02902
1.03022
1.03017
1.02891
1.02752
1.02532
1.02159
1.01805
1.01638
1.01507
1.01312
1.01068
1.00873
1.007
1.00513
1.00296
0.999092
0.991705
0.981551
0.970889
0.959981
0.946475
0.931477
0.923046
0.920694
0.918987
0.913599
0.912501
0.914393
0.915419
0.915674
0.914355
0.90892
0.900157
0.889854
0.875183
0.862715
0.858972
0.855671
0.849067
0.836237
0.823365
0.819034
0.817306
0.813025
0.808929
0.815401
0.831182
0.859005
0.898217
0.919049
0.922035
0.923545
0.924244
0.923153
0.919105
0.912912
0.906986
0.904509
0.904891
0.905568
0.903695
0.897023
0.887701
0.884579
0.887909
0.891057
0.889284
0.872723
0.862129
0.864862
0.86967
0.877304
0.889131
0.904097
0.919468
0.932792
0.942666
0.946766
0.943411
0.936089
0.92672
0.91818
0.913815
0.919365
0.935328
0.948739
0.957853
0.967274
0.974107
0.974431
0.975002
0.977563
0.980925
0.982683
0.983401
0.984305
0.994066
1.01559
1.02375
1.02229
1.01785
1.00832
0.998364
0.995005
0.993211
0.991922
0.992132
0.994572
0.995138
0.994946
0.994912
0.994932
0.994969
0.99541
0.997489
1.0015
1.00592
1.01031
1.01588
1.02048
1.02073
1.01958
1.01894
1.01903
1.02041
1.02181
1.02285
1.02435
1.02733
1.03362
1.04381
1.04769
1.04818
1.04832
1.04968
1.05269
1.05253
1.05086
1.04894
1.04663
1.04272
1.0355
1.02226
1.00622
1.00166
1.00089
1.00086
1.00191
1.00295
1.00314
1.00315
1.00275
1.00123
0.998837
0.99648
0.99466
0.993335
0.991785
0.989839
0.987729
0.985292
0.982815
0.980836
0.979138
0.976931
0.972622
0.964964
0.956351
0.951135
0.948889
0.946207
0.943228
0.941959
0.939259
0.934382
0.92809
0.921253
0.91371
0.90464
0.89316
0.877135
0.855392
0.830976
0.807665
0.786514
0.772951
0.897828
0.906991
0.918207
0.928008
0.934039
0.938625
0.943247
0.946373
0.949118
0.951874
0.954072
0.955763
0.958041
0.961238
0.964696
0.96914
0.975408
0.98052
0.981793
0.980711
0.979533
0.979062
0.978223
0.977451
0.979438
0.987433
0.998088
1.004
1.00503
1.00464
1.00451
1.00401
1.00343
1.00478
1.01098
1.024
1.03459
1.03416
1.03125
1.02845
1.02641
1.02587
1.02789
1.0323
1.03562
1.035
1.0336
1.0325
1.03181
1.03152
1.03235
1.036
1.042
1.04699
1.04691
1.0455
1.04427
1.04348
1.04339
1.04235
1.04095
1.03955
1.03795
1.03574
1.03317
1.03145
1.03052
1.03042
1.02966
1.02838
1.02707
1.02529
1.0224
1.01835
1.01558
1.01446
1.01298
1.01093
1.00912
1.00758
1.00538
1.00171
0.996868
0.990942
0.982844
0.973523
0.963585
0.951272
0.936702
0.926331
0.921859
0.917017
0.91156
0.912494
0.915045
0.916047
0.91619
0.914678
0.909313
0.901092
0.892318
0.88114
0.867052
0.862036
0.859188
0.852479
0.839488
0.825532
0.820495
0.818716
0.814262
0.810125
0.816253
0.831965
0.860721
0.897835
0.919201
0.922606
0.924074
0.925185
0.925682
0.923799
0.918623
0.913366
0.911076
0.911327
0.911808
0.909645
0.902481
0.891564
0.885451
0.887456
0.890569
0.890505
0.880265
0.867296
0.86729
0.869575
0.873524
0.881159
0.890906
0.902603
0.914407
0.923036
0.924982
0.921327
0.919078
0.921817
0.925716
0.929767
0.934615
0.939098
0.945354
0.953137
0.962523
0.970434
0.972069
0.972562
0.974873
0.978622
0.981392
0.982911
0.985817
0.997755
1.01791
1.02367
1.02172
1.01624
1.00652
0.999989
0.997722
0.996079
0.995013
0.995627
0.997436
0.997037
0.996557
0.99644
0.996338
0.996444
0.997218
0.999549
1.00335
1.0073
1.01101
1.01466
1.01779
1.01968
1.02048
1.02072
1.02132
1.02232
1.02277
1.02324
1.02457
1.02766
1.03386
1.04371
1.04834
1.04886
1.04889
1.04993
1.05265
1.0527
1.05118
1.04926
1.04656
1.04222
1.0351
1.02325
1.00779
1.00169
1.00097
1.00097
1.00212
1.00338
1.00361
1.00359
1.00326
1.00191
0.9998
0.997821
0.995464
0.994424
0.993528
0.99189
0.989799
0.987274
0.984765
0.982706
0.980739
0.97824
0.973623
0.965505
0.957038
0.952019
0.94938
0.946725
0.943244
0.942621
0.94065
0.935798
0.929923
0.923819
0.916535
0.907136
0.894503
0.878016
0.857344
0.834186
0.811438
0.790072
0.772857
0.89498
0.901205
0.910154
0.919791
0.928923
0.937412
0.94386
0.947572
0.950737
0.953524
0.955496
0.956598
0.957577
0.958982
0.96078
0.963251
0.967095
0.971376
0.975384
0.977872
0.979344
0.980379
0.981576
0.983518
0.986859
0.992159
0.996694
0.99893
1.00025
1.00165
1.00334
1.00572
1.00918
1.01419
1.02079
1.02907
1.03609
1.03605
1.03321
1.03016
1.02779
1.02787
1.03509
1.04385
1.04507
1.04337
1.04027
1.03704
1.03514
1.03383
1.03366
1.03919
1.0496
1.05366
1.05291
1.05102
1.04926
1.04776
1.04647
1.04507
1.04356
1.04193
1.04059
1.03959
1.03855
1.03792
1.03745
1.0361
1.03442
1.03247
1.02972
1.02684
1.02475
1.02201
1.01994
1.0191
1.01783
1.01573
1.01412
1.01316
1.01051
1.00481
0.99708
0.988744
0.982096
0.976555
0.970036
0.961048
0.948805
0.936092
0.926451
0.917713
0.911102
0.911852
0.913744
0.914914
0.915238
0.914486
0.910562
0.903594
0.896554
0.88864
0.876673
0.870795
0.869567
0.864805
0.853029
0.836471
0.826356
0.822658
0.817803
0.813394
0.818001
0.831232
0.857747
0.897216
0.920348
0.923747
0.924896
0.925036
0.92239
0.916916
0.910702
0.905637
0.903812
0.904379
0.90493
0.902614
0.895414
0.885437
0.879281
0.879919
0.882236
0.883652
0.882409
0.875735
0.872635
0.873386
0.875762
0.880963
0.890633
0.903458
0.917135
0.928738
0.93389
0.931605
0.928694
0.930093
0.9351
0.940721
0.947551
0.954552
0.960104
0.964128
0.965656
0.968304
0.969649
0.967954
0.967841
0.970645
0.975017
0.980016
0.987608
1.00544
1.02664
1.03052
1.02849
1.02104
1.01071
1.00625
1.00422
1.00242
1.00121
1.00208
1.00303
1.0019
1.00088
1.00007
0.999086
0.998905
0.999506
1.00168
1.00559
1.01021
1.01445
1.01758
1.01954
1.02125
1.02316
1.02441
1.02524
1.0258
1.02586
1.02587
1.02666
1.02909
1.03405
1.04221
1.04862
1.04993
1.05025
1.05164
1.05439
1.05419
1.05265
1.05077
1.04803
1.04368
1.03701
1.02667
1.01141
1.00259
1.00156
1.00144
1.00224
1.00409
1.00483
1.00495
1.00481
1.00347
1.00172
1.00046
0.998192
0.996324
0.995599
0.994445
0.992622
0.990343
0.988329
0.986718
0.985056
0.98278
0.977936
0.968863
0.959977
0.954699
0.950947
0.946098
0.941869
0.941791
0.942045
0.938499
0.933202
0.928345
0.922264
0.912877
0.898701
0.87976
0.858232
0.836232
0.814586
0.793533
0.774225
0.894313
0.898609
0.90603
0.914856
0.923048
0.930532
0.93819
0.945124
0.949416
0.95241
0.954731
0.956237
0.957236
0.957899
0.957963
0.957726
0.95827
0.960866
0.96664
0.973934
0.979303
0.981928
0.98367
0.986202
0.989475
0.99193
0.992748
0.99319
0.994894
0.998483
1.00354
1.00946
1.01571
1.02192
1.02717
1.03018
1.03102
1.03129
1.03139
1.03101
1.03128
1.03606
1.04735
1.05379
1.05325
1.05084
1.0468
1.04388
1.04257
1.04166
1.04201
1.04857
1.0577
1.05958
1.05869
1.05715
1.05601
1.05532
1.05501
1.05396
1.05259
1.05061
1.04833
1.04703
1.04618
1.04598
1.04565
1.04457
1.0436
1.04251
1.04027
1.03633
1.03312
1.0306
1.02826
1.02726
1.02657
1.02482
1.02396
1.02382
1.02144
1.01548
1.00676
0.996982
0.989175
0.983654
0.978325
0.971509
0.961651
0.94932
0.937246
0.925398
0.917475
0.917928
0.919916
0.921287
0.921903
0.921575
0.918404
0.911743
0.904198
0.896465
0.886639
0.879004
0.877692
0.875935
0.868296
0.853099
0.83789
0.830401
0.824937
0.818727
0.820453
0.829074
0.848655
0.884721
0.917849
0.92406
0.92528
0.92484
0.920756
0.913771
0.906317
0.900958
0.899334
0.900203
0.900868
0.898409
0.890715
0.879582
0.871597
0.871428
0.873622
0.876436
0.87796
0.876448
0.873878
0.873883
0.874316
0.875625
0.881031
0.890049
0.900165
0.912935
0.928565
0.940393
0.944792
0.947206
0.950628
0.956012
0.963416
0.971279
0.973802
0.971893
0.969495
0.967128
0.966591
0.967181
0.967632
0.968063
0.970826
0.977134
0.98896
1.01022
1.03275
1.03794
1.03713
1.03053
1.02234
1.01987
1.01807
1.01619
1.01541
1.01524
1.01382
1.01239
1.01088
1.00794
1.00447
1.0037
1.00388
1.00528
1.00861
1.01337
1.01857
1.02272
1.02531
1.02767
1.03073
1.03226
1.03189
1.03145
1.03131
1.03133
1.03152
1.03281
1.03586
1.04139
1.04827
1.05184
1.0529
1.05441
1.05724
1.05744
1.0561
1.05418
1.05122
1.04701
1.04125
1.03249
1.01855
1.00859
1.00719
1.00691
1.00733
1.00851
1.00888
1.00898
1.00856
1.00643
1.00457
1.00366
1.00225
1.00031
0.999361
0.998374
0.996593
0.994489
0.992592
0.990959
0.989362
0.987164
0.982752
0.97504
0.96732
0.961154
0.95566
0.950066
0.945781
0.944849
0.945394
0.943695
0.939919
0.936513
0.931372
0.921712
0.906051
0.884954
0.861022
0.838215
0.818158
0.798588
0.778551
0.90408
0.905767
0.909418
0.914752
0.920742
0.926856
0.932585
0.937676
0.942937
0.947675
0.950745
0.952765
0.954515
0.955976
0.957071
0.957193
0.956328
0.956259
0.960218
0.969428
0.979494
0.984598
0.986058
0.987181
0.989072
0.990745
0.991644
0.992573
0.994968
0.999957
1.00794
1.01759
1.0255
1.03033
1.03262
1.03218
1.03096
1.03052
1.03234
1.03604
1.04169
1.0521
1.06356
1.06618
1.06511
1.06098
1.05651
1.05518
1.05452
1.05432
1.0573
1.06498
1.06959
1.0695
1.06837
1.067
1.06629
1.06605
1.06637
1.0657
1.0646
1.06303
1.06124
1.06017
1.05933
1.05813
1.05679
1.0558
1.05495
1.05375
1.05156
1.04788
1.04455
1.04247
1.04047
1.03886
1.03779
1.03612
1.03528
1.03534
1.03319
1.02813
1.02166
1.01418
1.00645
0.999661
0.994172
0.988146
0.978942
0.966129
0.953004
0.942585
0.935808
0.933988
0.935773
0.938006
0.93936
0.939769
0.938402
0.933261
0.924122
0.912453
0.90109
0.892659
0.888805
0.888245
0.885271
0.874482
0.856402
0.840841
0.831324
0.823149
0.82165
0.825754
0.838484
0.865333
0.904389
0.922086
0.924652
0.92491
0.921768
0.914373
0.905635
0.898896
0.89564
0.895324
0.89579
0.894097
0.886988
0.875486
0.866829
0.865617
0.86637
0.868412
0.871644
0.871753
0.871524
0.87199
0.870158
0.867241
0.868194
0.876363
0.889384
0.906366
0.92775
0.948674
0.962973
0.972217
0.981258
0.990942
0.995652
0.994068
0.9902
0.984584
0.975998
0.96928
0.967886
0.967466
0.967284
0.967822
0.971166
0.979151
0.993104
1.01193
1.03362
1.04473
1.04598
1.04346
1.03747
1.03537
1.03428
1.03425
1.03631
1.0351
1.0328
1.03087
1.02807
1.02227
1.01652
1.01476
1.01446
1.01466
1.01615
1.01956
1.02474
1.03002
1.03388
1.03774
1.0418
1.04223
1.04096
1.03979
1.03893
1.0384
1.03783
1.03792
1.03916
1.04223
1.04746
1.05296
1.0564
1.05891
1.06211
1.06264
1.06129
1.05936
1.05658
1.05247
1.04696
1.03925
1.02679
1.01712
1.01565
1.01547
1.0162
1.01722
1.01739
1.01738
1.01643
1.0138
1.01172
1.01086
1.0101
1.00912
1.00859
1.0078
1.00615
1.00378
1.00117
0.998667
0.996228
0.993165
0.988322
0.981797
0.975504
0.969451
0.96349
0.958421
0.955591
0.955122
0.955733
0.954961
0.952703
0.950334
0.945602
0.935496
0.918841
0.896997
0.873228
0.851344
0.832136
0.812587
0.792325
0.91685
0.9183
0.920536
0.921451
0.923778
0.927094
0.930202
0.933165
0.936884
0.942032
0.946849
0.949856
0.951704
0.953081
0.954302
0.955171
0.955374
0.955605
0.958265
0.966595
0.979022
0.986542
0.987577
0.988234
0.99102
0.993847
0.995759
0.998195
1.00224
1.00916
1.02043
1.0332
1.03969
1.04075
1.03996
1.03815
1.03743
1.03751
1.04005
1.04604
1.05586
1.06963
1.07848
1.07951
1.07873
1.07392
1.06975
1.06888
1.06856
1.07034
1.07635
1.08134
1.08194
1.08146
1.08048
1.07998
1.07985
1.08061
1.08093
1.08022
1.07888
1.07691
1.07543
1.07459
1.07399
1.07268
1.07135
1.0704
1.06953
1.06826
1.06592
1.06211
1.05857
1.05656
1.055
1.05348
1.05211
1.05075
1.05043
1.05078
1.04956
1.04581
1.04023
1.03342
1.02594
1.01917
1.01403
1.00918
1.00212
0.991508
0.978828
0.967917
0.960978
0.957416
0.95556
0.95542
0.956814
0.957972
0.958596
0.957559
0.952021
0.941275
0.928736
0.919918
0.914777
0.912198
0.910877
0.905364
0.890778
0.868942
0.846939
0.829075
0.822682
0.824186
0.831357
0.847859
0.878533
0.912114
0.920456
0.922356
0.921844
0.916229
0.907332
0.899524
0.89471
0.892352
0.890723
0.887941
0.881937
0.872235
0.864434
0.862717
0.862025
0.862076
0.865683
0.867919
0.867467
0.867159
0.863591
0.858217
0.859353
0.870053
0.886642
0.90776
0.933396
0.959561
0.982694
1.004
1.02153
1.02664
1.02426
1.0183
1.01081
1.00226
0.990919
0.979281
0.974966
0.973699
0.972728
0.973186
0.977602
0.986998
0.999973
1.01417
1.02956
1.04486
1.05013
1.05062
1.04867
1.0474
1.04803
1.05376
1.05827
1.057
1.05453
1.05107
1.04427
1.03571
1.03101
1.02891
1.02754
1.02722
1.02753
1.02927
1.03336
1.03906
1.04394
1.04835
1.05252
1.05277
1.05146
1.05012
1.04888
1.0476
1.04612
1.04434
1.04395
1.04481
1.04762
1.05268
1.05797
1.06246
1.06691
1.06834
1.06725
1.06526
1.06258
1.0586
1.05344
1.04711
1.03717
1.02798
1.02612
1.02579
1.02622
1.02672
1.02671
1.02633
1.02473
1.0224
1.02111
1.02042
1.01985
1.01935
1.01938
1.01968
1.01866
1.01666
1.0142
1.01167
1.00883
1.00498
0.999897
0.993899
0.987362
0.980211
0.973307
0.969728
0.968486
0.968397
0.968689
0.968245
0.967157
0.965466
0.96098
0.951028
0.935021
0.914473
0.892351
0.871391
0.851366
0.829696
0.808263
0.933099
0.931034
0.93071
0.930877
0.930761
0.930533
0.932325
0.934342
0.936356
0.939873
0.94499
0.949496
0.951983
0.953102
0.953886
0.954908
0.95593
0.957264
0.961037
0.970161
0.982996
0.990269
0.991863
0.993951
0.998474
1.0033
1.00741
1.01186
1.01783
1.02749
1.04165
1.05195
1.05427
1.05448
1.05236
1.05073
1.05143
1.05298
1.0562
1.06308
1.07398
1.08635
1.09131
1.09208
1.09162
1.0879
1.0853
1.08474
1.08587
1.09087
1.09511
1.09542
1.09478
1.0938
1.09327
1.0934
1.09452
1.09578
1.09561
1.09448
1.09245
1.09056
1.08935
1.0888
1.08865
1.0875
1.08626
1.08508
1.08391
1.08233
1.07965
1.07571
1.07239
1.07053
1.06913
1.06779
1.06641
1.06538
1.06548
1.06622
1.06622
1.0648
1.06114
1.05501
1.0476
1.04051
1.03461
1.02972
1.02461
1.01839
1.0107
1.00247
0.99538
0.989511
0.98364
0.978314
0.97815
0.979678
0.980566
0.980876
0.978995
0.972613
0.96241
0.953864
0.949597
0.946778
0.944518
0.941518
0.933231
0.914883
0.88651
0.853633
0.831073
0.828426
0.830642
0.839608
0.857907
0.891263
0.913878
0.91838
0.918972
0.91521
0.906995
0.899473
0.894497
0.891042
0.88776
0.883992
0.878822
0.87074
0.863418
0.861264
0.859682
0.858863
0.863207
0.864756
0.861837
0.861815
0.85894
0.853203
0.856592
0.874646
0.896346
0.920374
0.949317
0.980507
1.01376
1.04384
1.0545
1.05383
1.04765
1.03846
1.0297
1.02024
1.0082
0.995659
0.989186
0.986854
0.985748
0.987022
0.992721
1.00089
1.00946
1.01754
1.02675
1.03976
1.04833
1.05015
1.0504
1.05173
1.05967
1.07269
1.07697
1.07596
1.07271
1.06509
1.05495
1.04892
1.04655
1.04494
1.04318
1.04143
1.04117
1.04178
1.0442
1.04887
1.05375
1.05761
1.06139
1.0625
1.06152
1.06018
1.0588
1.05714
1.05488
1.05173
1.04946
1.0493
1.05007
1.05313
1.05831
1.06444
1.07084
1.07341
1.07285
1.07106
1.06822
1.06431
1.0597
1.05449
1.04736
1.04007
1.03799
1.03739
1.03731
1.03708
1.03671
1.03575
1.03337
1.03143
1.03091
1.03051
1.03013
1.02982
1.03005
1.03162
1.03137
1.02966
1.0273
1.02489
1.02192
1.01812
1.01403
1.00874
1.00222
0.994054
0.986865
0.984412
0.983659
0.983973
0.984038
0.983444
0.982655
0.980868
0.976055
0.966491
0.952256
0.934624
0.915303
0.895676
0.875228
0.852089
0.828797
0.971099
0.960037
0.951112
0.945377
0.940276
0.936974
0.937299
0.938488
0.940583
0.943769
0.948302
0.953126
0.95588
0.956905
0.957755
0.959535
0.962166
0.965257
0.971073
0.982247
0.995623
1.00223
1.00476
1.00905
1.01579
1.02221
1.02768
1.03333
1.04094
1.05321
1.06595
1.07024
1.07142
1.07145
1.07048
1.07015
1.07084
1.07284
1.07808
1.08663
1.09512
1.10124
1.10328
1.10405
1.10373
1.10205
1.10125
1.10147
1.10421
1.10769
1.1078
1.10697
1.10625
1.10585
1.10626
1.10802
1.10941
1.10932
1.10781
1.1051
1.10301
1.10207
1.10161
1.10246
1.10215
1.10051
1.09845
1.0964
1.0946
1.09276
1.09023
1.08686
1.08385
1.08171
1.08003
1.07906
1.07853
1.07734
1.0776
1.07887
1.08023
1.08072
1.07912
1.07462
1.06913
1.06346
1.05734
1.05208
1.04834
1.04534
1.04244
1.0394
1.03497
1.02802
1.01834
1.00823
1.00578
1.00716
1.00867
1.00931
1.00906
1.00551
0.997613
0.990549
0.987084
0.985152
0.983304
0.980668
0.974727
0.960682
0.934673
0.897932
0.859101
0.839813
0.839044
0.841388
0.850362
0.872062
0.900663
0.910048
0.912555
0.910413
0.903575
0.897336
0.89273
0.8891
0.885754
0.882274
0.877894
0.87107
0.86555
0.863274
0.860112
0.859441
0.863795
0.861118
0.857165
0.859389
0.859756
0.854667
0.861844
0.890011
0.91817
0.944599
0.974588
1.00921
1.04766
1.06875
1.07145
1.07032
1.06266
1.05347
1.04608
1.03744
1.02615
1.0161
1.01088
1.00847
1.00901
1.01542
1.02097
1.02135
1.02117
1.02235
1.02571
1.03309
1.04203
1.04722
1.05026
1.05667
1.07317
1.08706
1.08854
1.08707
1.08122
1.07063
1.0643
1.06255
1.06143
1.06031
1.05884
1.05659
1.05493
1.05488
1.05564
1.05812
1.0616
1.06452
1.06768
1.06995
1.06957
1.0687
1.06776
1.06611
1.06313
1.05847
1.05498
1.05434
1.05426
1.05526
1.0589
1.06539
1.07353
1.0772
1.07711
1.0757
1.07247
1.06828
1.0641
1.05991
1.05546
1.05112
1.04929
1.04851
1.04795
1.04731
1.04649
1.04495
1.04257
1.04112
1.04076
1.04046
1.04013
1.03982
1.03996
1.04194
1.04278
1.04162
1.03986
1.03769
1.03466
1.03137
1.02777
1.02289
1.01706
1.01011
1.00415
1.00186
1.0009
1.00067
1.00013
0.999608
0.99891
0.996852
0.991971
0.983325
0.971881
0.95846
0.943076
0.926278
0.908066
0.88741
0.865119
1.01972
1.00807
0.995495
0.982273
0.966749
0.955416
0.953033
0.952602
0.953457
0.9563
0.960685
0.965148
0.968102
0.969641
0.97133
0.97464
0.979411
0.984976
0.993419
1.00632
1.0187
1.02441
1.02861
1.03457
1.0418
1.04832
1.05399
1.05985
1.06804
1.07939
1.0859
1.08775
1.08876
1.08899
1.08965
1.09102
1.09254
1.09543
1.10287
1.11098
1.11391
1.1145
1.11469
1.11509
1.11519
1.115
1.11491
1.11518
1.11592
1.11683
1.11749
1.11796
1.11894
1.1205
1.12164
1.12167
1.12002
1.11711
1.11387
1.11214
1.11146
1.11138
1.11321
1.11353
1.11168
1.10876
1.10636
1.10445
1.10265
1.10099
1.0989
1.0957
1.09224
1.08973
1.08838
1.08826
1.08823
1.08684
1.08669
1.0873
1.08817
1.08841
1.08724
1.08567
1.08342
1.0805
1.07632
1.07213
1.06967
1.06883
1.06906
1.06925
1.06723
1.06071
1.04906
1.03707
1.03415
1.03508
1.03786
1.03923
1.03986
1.038
1.03143
1.02713
1.02577
1.02427
1.02222
1.01957
1.01447
1.00281
0.981329
0.949318
0.908457
0.867905
0.851449
0.850637
0.85367
0.863897
0.884813
0.900335
0.905982
0.906022
0.899823
0.894246
0.890886
0.88766
0.884642
0.881749
0.877774
0.87173
0.867916
0.864745
0.861778
0.863621
0.865832
0.860932
0.858557
0.86579
0.868408
0.864296
0.879287
0.916579
0.947922
0.976081
1.00659
1.04187
1.0699
1.07665
1.07797
1.07626
1.06889
1.06114
1.05505
1.04824
1.04105
1.03709
1.0356
1.03855
1.04629
1.05059
1.04931
1.04406
1.0347
1.02842
1.0288
1.0319
1.03881
1.04555
1.05232
1.06658
1.0871
1.09454
1.09455
1.09186
1.08408
1.07693
1.07535
1.07476
1.07455
1.07459
1.07364
1.07145
1.06801
1.0664
1.06627
1.06663
1.06788
1.06954
1.07217
1.07534
1.07585
1.07539
1.07462
1.07271
1.06826
1.06259
1.05958
1.05892
1.05856
1.05859
1.06033
1.06594
1.07435
1.07805
1.07807
1.07686
1.07381
1.06999
1.0666
1.06368
1.06138
1.05917
1.05722
1.05615
1.0553
1.05438
1.05323
1.05163
1.04972
1.04868
1.04835
1.04808
1.04779
1.04762
1.04815
1.05065
1.0525
1.0519
1.0506
1.04888
1.04692
1.04439
1.03974
1.03502
1.03082
1.02637
1.02154
1.01883
1.01738
1.01622
1.0152
1.01441
1.01312
1.01049
1.00579
0.998778
0.990488
0.981243
0.970427
0.957656
0.942944
0.926144
0.907472
1.06646
1.05654
1.04494
1.03186
1.01524
0.996313
0.988222
0.985072
0.983687
0.984524
0.987489
0.991154
0.995192
0.997865
1.00019
1.00413
1.00995
1.01679
1.02602
1.03896
1.04897
1.05349
1.058
1.06446
1.07182
1.07723
1.08164
1.08666
1.09427
1.10162
1.10377
1.105
1.10541
1.10606
1.10802
1.11013
1.11266
1.11758
1.12497
1.12833
1.12875
1.12814
1.12585
1.12481
1.12494
1.12487
1.12441
1.12396
1.12378
1.12507
1.12815
1.13125
1.13299
1.13321
1.13161
1.12748
1.12271
1.11918
1.1178
1.11718
1.11738
1.12024
1.12191
1.1208
1.11766
1.11445
1.11295
1.11146
1.1095
1.10717
1.1042
1.10024
1.09635
1.09407
1.09332
1.0936
1.09293
1.09119
1.09036
1.08995
1.08973
1.0889
1.08842
1.08956
1.09066
1.09027
1.08859
1.08705
1.08637
1.08668
1.0879
1.08864
1.08648
1.0805
1.07162
1.06392
1.06244
1.06321
1.06613
1.06748
1.06799
1.06541
1.05952
1.05822
1.05847
1.05801
1.0564
1.05374
1.04945
1.04133
1.02628
1.00181
0.967276
0.924382
0.881842
0.865229
0.864123
0.867594
0.87675
0.887257
0.894337
0.897217
0.894721
0.891387
0.89012
0.888333
0.88607
0.882979
0.877278
0.871815
0.868683
0.865123
0.864968
0.870796
0.870232
0.866176
0.867054
0.880621
0.883742
0.882865
0.908203
0.952497
0.984474
1.01089
1.03975
1.06728
1.07639
1.07871
1.07917
1.07544
1.06913
1.06483
1.06123
1.05853
1.05758
1.0604
1.06984
1.0814
1.08445
1.08182
1.07533
1.06267
1.04637
1.03764
1.03631
1.03703
1.0405
1.0466
1.05742
1.07752
1.09343
1.096
1.09583
1.09226
1.08464
1.08167
1.08158
1.08179
1.08364
1.08563
1.08523
1.08305
1.07813
1.07426
1.0734
1.07306
1.07298
1.07348
1.0762
1.07987
1.0803
1.0796
1.07832
1.07518
1.06983
1.06481
1.0629
1.06209
1.06159
1.06148
1.06276
1.06742
1.07465
1.07769
1.0777
1.07663
1.07401
1.0709
1.068
1.06598
1.06492
1.06369
1.06213
1.0608
1.05978
1.05885
1.05795
1.05681
1.05523
1.05447
1.05435
1.05427
1.05415
1.05414
1.05537
1.05871
1.06067
1.06016
1.05905
1.05747
1.05493
1.0502
1.0447
1.0411
1.03869
1.03626
1.03331
1.03067
1.02852
1.02689
1.02587
1.02482
1.02322
1.02092
1.01762
1.01302
1.00818
1.00305
0.996539
0.988103
0.977381
0.964245
0.94895
1.1079
1.10088
1.09118
1.08114
1.06941
1.0518
1.04095
1.03693
1.03523
1.03477
1.03376
1.03402
1.03621
1.03657
1.03694
1.04001
1.04584
1.05321
1.06327
1.07624
1.08305
1.08568
1.08831
1.09411
1.09975
1.10325
1.10625
1.11015
1.11607
1.11917
1.12006
1.1203
1.11999
1.12147
1.12357
1.1259
1.12936
1.13517
1.13939
1.14024
1.14037
1.13924
1.13608
1.1334
1.13233
1.13175
1.13122
1.13092
1.13204
1.13647
1.1415
1.14263
1.14172
1.13887
1.13396
1.12768
1.1234
1.12192
1.12128
1.12141
1.12484
1.12815
1.12775
1.12573
1.12161
1.11822
1.11616
1.11419
1.11192
1.1092
1.106
1.10225
1.09869
1.09681
1.09644
1.09684
1.09551
1.09377
1.0926
1.09165
1.09053
1.08969
1.09042
1.0929
1.09752
1.1017
1.10264
1.10276
1.10302
1.10323
1.10247
1.09938
1.09521
1.09148
1.08822
1.08684
1.08689
1.08886
1.09198
1.09304
1.09267
1.0872
1.0819
1.0814
1.08178
1.08182
1.08079
1.07856
1.07545
1.07061
1.06176
1.04654
1.02249
0.987227
0.943538
0.901297
0.880487
0.87846
0.879167
0.879982
0.883686
0.887847
0.889103
0.888663
0.888509
0.890268
0.888998
0.88413
0.877456
0.873606
0.869584
0.8664
0.870208
0.8772
0.877185
0.877141
0.884267
0.904133
0.906743
0.912279
0.946941
0.992353
1.02185
1.04247
1.06423
1.07604
1.07859
1.07885
1.07801
1.07474
1.07189
1.071
1.07122
1.07408
1.08308
1.09906
1.11158
1.1128
1.10927
1.101
1.08812
1.07197
1.05808
1.05088
1.04745
1.04615
1.04669
1.0522
1.06737
1.08664
1.09355
1.09421
1.09376
1.08884
1.08246
1.08185
1.08286
1.08497
1.08965
1.09265
1.09235
1.08999
1.08398
1.07928
1.07813
1.07746
1.07697
1.07724
1.08045
1.08308
1.08263
1.08148
1.07938
1.07501
1.06922
1.06685
1.06571
1.06494
1.06461
1.06487
1.06655
1.06973
1.07382
1.07663
1.07684
1.07603
1.07385
1.0714
1.06891
1.06754
1.06709
1.06652
1.06545
1.06427
1.06342
1.06285
1.06236
1.06148
1.05961
1.05846
1.05821
1.05803
1.05781
1.05776
1.05925
1.06226
1.06302
1.0626
1.06192
1.06022
1.05627
1.04995
1.0457
1.04409
1.04313
1.04218
1.04078
1.0389
1.03696
1.0357
1.03501
1.03444
1.0338
1.03271
1.03035
1.02709
1.0243
1.02109
1.0166
1.01061
1.00297
0.993146
0.981029
1.14997
1.14739
1.1419
1.1349
1.12388
1.10647
1.09312
1.08809
1.08431
1.07973
1.07599
1.07526
1.07611
1.07559
1.07547
1.07763
1.08255
1.09014
1.10068
1.10983
1.113
1.11367
1.11336
1.11721
1.12106
1.12347
1.12572
1.12895
1.13257
1.13363
1.1342
1.13348
1.13246
1.13372
1.13544
1.13766
1.14152
1.14629
1.14804
1.14861
1.14869
1.14703
1.14287
1.1394
1.13793
1.13729
1.13703
1.13821
1.14329
1.14904
1.14965
1.14809
1.14481
1.13895
1.13092
1.12611
1.12497
1.12434
1.1245
1.12833
1.13302
1.133
1.1315
1.12774
1.12235
1.11898
1.11686
1.1148
1.11262
1.11005
1.10737
1.10438
1.10122
1.09973
1.09998
1.09975
1.09778
1.09612
1.09493
1.09357
1.09204
1.09262
1.09399
1.09658
1.10186
1.10715
1.10856
1.10891
1.10908
1.10832
1.10586
1.1022
1.10031
1.10167
1.10384
1.10653
1.10947
1.11252
1.11461
1.11473
1.10988
1.10111
1.09706
1.09645
1.09652
1.09665
1.09657
1.09636
1.09576
1.09413
1.08954
1.08091
1.06754
1.04692
1.01556
0.970523
0.922152
0.894606
0.886403
0.881051
0.879081
0.880945
0.883352
0.884794
0.886486
0.891288
0.89191
0.886439
0.881381
0.877572
0.873052
0.873036
0.881636
0.886017
0.888969
0.895357
0.912616
0.932432
0.937181
0.953063
0.990031
1.03139
1.05284
1.06499
1.07623
1.08061
1.08074
1.07999
1.07831
1.07781
1.0788
1.08137
1.0883
1.10281
1.12113
1.12901
1.12792
1.12339
1.11602
1.10616
1.09217
1.0763
1.06656
1.06126
1.05779
1.05603
1.05733
1.06701
1.08254
1.09103
1.09232
1.09245
1.08978
1.08281
1.08011
1.08107
1.08308
1.08758
1.09488
1.0977
1.09737
1.09431
1.08728
1.08294
1.08185
1.08102
1.08037
1.08083
1.08402
1.08472
1.08377
1.08233
1.07948
1.074
1.07024
1.06929
1.06866
1.0683
1.06827
1.06869
1.06949
1.07071
1.07258
1.0748
1.07561
1.0752
1.07373
1.07144
1.06945
1.06872
1.06838
1.06826
1.06762
1.06688
1.06627
1.06564
1.06466
1.06242
1.0599
1.0589
1.05851
1.05825
1.0581
1.05866
1.06098
1.06299
1.06311
1.0629
1.06253
1.06087
1.05579
1.05027
1.04871
1.04816
1.04787
1.04821
1.04793
1.04677
1.0456
1.04475
1.04416
1.04359
1.0427
1.04086
1.03681
1.03231
1.02934
1.02664
1.023
1.01826
1.01248
1.00561
0.997796
1.17825
1.17314
1.16603
1.15685
1.14273
1.128
1.12089
1.11708
1.11401
1.11193
1.1111
1.11209
1.11446
1.11529
1.11427
1.11322
1.11562
1.1219
1.12888
1.13191
1.13321
1.1332
1.13107
1.13253
1.13549
1.13775
1.14004
1.14314
1.14468
1.14525
1.14536
1.14327
1.14165
1.14241
1.14369
1.14566
1.14935
1.15254
1.15362
1.15415
1.15379
1.15068
1.14598
1.14349
1.14269
1.14247
1.14363
1.14872
1.15434
1.15457
1.15282
1.14968
1.14334
1.13352
1.12794
1.12679
1.12623
1.12661
1.13104
1.13723
1.13793
1.13645
1.13268
1.12652
1.12136
1.11851
1.11606
1.11408
1.11281
1.1111
1.10907
1.10691
1.10447
1.10362
1.10327
1.10139
1.09893
1.09693
1.09532
1.09379
1.09272
1.09335
1.09462
1.09667
1.10162
1.10686
1.10836
1.10892
1.10923
1.10848
1.10552
1.10448
1.10652
1.11079
1.11672
1.12142
1.12333
1.12389
1.12353
1.1201
1.11277
1.10729
1.10561
1.10539
1.10613
1.10869
1.11228
1.11548
1.11738
1.1179
1.11566
1.10802
1.09725
1.08422
1.06569
1.03531
0.988435
0.937366
0.905718
0.89011
0.881018
0.879784
0.880583
0.882442
0.885835
0.890414
0.894331
0.892238
0.888044
0.884075
0.882454
0.889905
0.900177
0.902157
0.909156
0.923422
0.94906
0.964523
0.974344
0.999581
1.03575
1.06064
1.07026
1.0772
1.08247
1.08403
1.08376
1.08348
1.08451
1.08692
1.09175
1.10171
1.11827
1.13289
1.1356
1.13405
1.13068
1.12533
1.11618
1.10103
1.08376
1.07609
1.07244
1.06976
1.06846
1.0709
1.08017
1.08951
1.09164
1.09099
1.09069
1.08858
1.08239
1.07814
1.07867
1.08043
1.0841
1.09221
1.10025
1.10177
1.10134
1.09696
1.08903
1.08572
1.08464
1.08367
1.08298
1.08386
1.08625
1.08585
1.08466
1.08284
1.07892
1.07397
1.0723
1.07159
1.07106
1.07064
1.07036
1.07024
1.0702
1.07047
1.07128
1.07277
1.07387
1.07378
1.07282
1.07064
1.06945
1.06909
1.06891
1.069
1.06871
1.06815
1.06748
1.06654
1.06465
1.06141
1.05937
1.05883
1.05844
1.05814
1.05809
1.05938
1.06224
1.06302
1.06277
1.06267
1.06254
1.06107
1.05643
1.05385
1.05332
1.05289
1.05265
1.0527
1.05223
1.05145
1.05069
1.04973
1.04854
1.04716
1.04518
1.04204
1.03761
1.03225
1.02947
1.02797
1.02603
1.02346
1.02028
1.01663
1.01347
1.18368
1.17793
1.16869
1.15636
1.14615
1.14137
1.13982
1.13913
1.14058
1.14446
1.14819
1.14964
1.14862
1.14381
1.13724
1.13448
1.13544
1.13956
1.14381
1.14497
1.14559
1.14591
1.14413
1.1435
1.14563
1.14813
1.15078
1.15242
1.15305
1.15339
1.15235
1.14884
1.14772
1.14837
1.14945
1.15146
1.15477
1.15668
1.15748
1.1578
1.1563
1.15151
1.14804
1.1472
1.1471
1.14829
1.15292
1.15765
1.15756
1.15605
1.15322
1.1469
1.13623
1.12996
1.12862
1.12804
1.12848
1.13319
1.14021
1.14154
1.14063
1.13766
1.13119
1.12353
1.11955
1.11727
1.11536
1.11431
1.11363
1.11226
1.11061
1.10907
1.10736
1.10581
1.10405
1.10172
1.09927
1.09715
1.09528
1.09322
1.09198
1.09247
1.09369
1.09536
1.10008
1.10473
1.10581
1.10672
1.10701
1.10641
1.10634
1.10833
1.11255
1.11827
1.12246
1.12434
1.12527
1.12546
1.12446
1.1189
1.11256
1.11111
1.11108
1.11209
1.11619
1.12348
1.12917
1.13124
1.1317
1.1288
1.12315
1.11604
1.10765
1.09848
1.08768
1.07167
1.04399
1.00194
0.955886
0.917382
0.891088
0.884356
0.884029
0.885157
0.888255
0.893437
0.898151
0.898733
0.897166
0.896157
0.899853
0.916915
0.925645
0.929101
0.941312
0.962317
0.988087
0.999472
1.01458
1.04348
1.06836
1.07757
1.08324
1.08648
1.08634
1.08642
1.08804
1.09018
1.09354
1.09995
1.11168
1.12688
1.13568
1.13669
1.13596
1.13386
1.1292
1.11975
1.10398
1.08905
1.0838
1.08134
1.08031
1.08175
1.08888
1.09914
1.10196
1.09975
1.09539
1.09197
1.08796
1.08213
1.07746
1.077
1.07791
1.08091
1.08861
1.09969
1.10442
1.10492
1.10379
1.09632
1.08839
1.08639
1.08545
1.08457
1.08426
1.0865
1.08793
1.08705
1.08563
1.08308
1.07803
1.07436
1.07337
1.07259
1.07195
1.07145
1.07104
1.0709
1.07077
1.07066
1.07065
1.0712
1.07189
1.07189
1.07123
1.06981
1.06915
1.06883
1.06883
1.06931
1.06915
1.06862
1.06789
1.06649
1.06336
1.06006
1.05917
1.05891
1.05867
1.05858
1.059
1.06092
1.06319
1.06318
1.06275
1.06262
1.06246
1.06138
1.05819
1.05542
1.0546
1.05396
1.05346
1.0533
1.05298
1.05227
1.05154
1.05057
1.04933
1.04778
1.04555
1.04141
1.03579
1.03272
1.03158
1.03115
1.03183
1.03233
1.0316
1.03085
1.03032
1.18402
1.1774
1.16966
1.16256
1.15968
1.15905
1.16052
1.16527
1.1704
1.1717
1.16995
1.16544
1.15891
1.15052
1.14382
1.14329
1.14473