/*--------------------------------*- C++ -*----------------------------------*\
  =========                 |
  \\      /  F ield         | OpenFOAM: The Open Source CFD Toolbox
   \\    /   O peration     | Website:  https://openfoam.org
    \\  /    A nd           | Version:  7
     \\/     M anipulation  |
\*---------------------------------------------------------------------------*/
FoamFile
{
    version     2.0;
    format      ascii;
    class       volScalarField;
    location    "1.5";
    object      T;
}
// * * * * * * * * * * * * * * * * * * * * * * * * * * * * * * * * * * * * * //

dimensions      [0 0 0 1 0 0 0];

internalField   nonuniform List<scalar> 
16192
(
1.98122
1.96439
1.94138
1.9133
1.88601
1.86633
1.85339
1.84303
1.83315
1.82236
1.8097
1.79669
1.7855
1.77676
1.77064
1.76763
1.76512
1.75921
1.75034
1.73883
1.72922
1.72197
1.71488
1.70918
1.70766
1.70851
1.71133
1.71183
1.70761
1.69806
1.68843
1.6787
1.66883
1.66127
1.66144
1.66703
1.67035
1.66597
1.65845
1.65288
1.64788
1.64252
1.63775
1.63474
1.63462
1.63405
1.63085
1.62552
1.62022
1.61489
1.60874
1.60277
1.59954
1.59845
1.59635
1.59152
1.58706
1.58394
1.58037
1.577
1.57428
1.57163
1.5685
1.56536
1.56347
1.56216
1.56145
1.56186
1.56161
1.56138
1.56164
1.56175
1.56128
1.56101
1.56194
1.56448
1.56792
1.57245
1.57907
1.58834
1.6004
1.61465
1.6285
1.6403
1.65138
1.66462
1.68321
1.70964
1.74487
1.78193
1.80224
1.80599
1.8041
1.80349
1.80647
1.81193
1.82148
1.83638
1.85799
1.88478
1.90476
1.90868
1.90868
1.91449
1.92971
1.95512
1.99503
2.04443
2.07655
2.08375
2.08157
2.06552
2.0427
1.99886
1.92707
1.86315
1.83699
1.83349
1.83395
1.83478
1.83399
1.82985
1.82261
1.81649
1.81475
1.81583
1.8183
1.81849
1.81551
1.80729
1.80258
1.80291
1.80134
1.79295
1.77163
1.75714
1.7551
1.75403
1.75497
1.75945
1.76725
1.77441
1.7782
1.78008
1.78048
1.77442
1.76424
1.75321
1.74351
1.73708
1.73778
1.74319
1.74559
1.74512
1.74277
1.73618
1.72028
1.69955
1.67848
1.65578
1.63263
1.61401
1.60395
1.60303
1.60932
1.61458
1.61424
1.61357
1.61098
1.60803
1.60831
1.60981
1.61132
1.61288
1.6144
1.61427
1.61244
1.60839
1.60221
1.59441
1.58505
1.57391
1.56163
1.55109
1.5464
1.54625
1.5469
1.54601
1.54341
1.54099
1.53886
1.53674
1.53357
1.52907
1.5232
1.51476
1.50189
1.48494
1.46916
1.46305
1.46215
1.46263
1.46572
1.46821
1.46973
1.47166
1.47424
1.47752
1.48207
1.48839
1.49606
1.50577
1.51066
1.51184
1.51276
1.51345
1.51362
1.51361
1.5133
1.51244
1.51167
1.51159
1.51227
1.51441
1.51736
1.52056
1.52421
1.52807
1.53161
1.53459
1.537
1.53842
1.53866
1.53769
1.53607
1.53643
1.54055
1.54716
1.55364
1.56098
1.56803
1.57509
1.58349
1.59436
1.60825
1.62572
1.64778
1.6741
1.70357
1.73672
1.77456
1.81721
1.86654
1.97975
1.96466
1.94305
1.9165
1.88991
1.8698
1.85634
1.84539
1.83531
1.82471
1.81234
1.79883
1.78692
1.77788
1.77092
1.76576
1.76232
1.75844
1.75167
1.74272
1.73465
1.72768
1.72046
1.71328
1.70903
1.70813
1.70817
1.70653
1.70058
1.69283
1.68618
1.67944
1.67197
1.66581
1.66285
1.66354
1.665
1.6606
1.65228
1.64632
1.64189
1.63859
1.63715
1.63641
1.63556
1.63148
1.62567
1.62017
1.6148
1.60938
1.60499
1.60215
1.60052
1.59911
1.59464
1.58879
1.58433
1.58068
1.57763
1.57439
1.57173
1.56946
1.56729
1.56494
1.56264
1.56109
1.56011
1.55958
1.55886
1.5588
1.55908
1.55943
1.55934
1.55892
1.55928
1.56152
1.56513
1.56982
1.57647
1.58588
1.59775
1.61097
1.62469
1.63794
1.65009
1.66356
1.68176
1.70775
1.74245
1.7794
1.80039
1.80269
1.80097
1.80201
1.80544
1.81051
1.81937
1.83335
1.85424
1.88101
1.9031
1.91023
1.90979
1.91376
1.92806
1.95214
1.99013
2.03921
2.07475
2.08329
2.08115
2.06604
2.04452
2.00262
1.93301
1.86572
1.83786
1.83403
1.8344
1.83552
1.83603
1.83369
1.82722
1.82155
1.81996
1.82094
1.82323
1.82332
1.82017
1.81113
1.80377
1.80355
1.80242
1.79669
1.78038
1.76356
1.75896
1.75665
1.75615
1.75775
1.76094
1.76395
1.76478
1.76382
1.75947
1.75046
1.74507
1.74418
1.74339
1.74308
1.74274
1.74101
1.73987
1.73886
1.73696
1.7319
1.71864
1.69915
1.67886
1.65737
1.63492
1.61546
1.60449
1.60306
1.60765
1.6102
1.60885
1.60728
1.60486
1.60406
1.60506
1.60737
1.60958
1.61173
1.61284
1.61236
1.61069
1.60703
1.60101
1.59347
1.58471
1.57405
1.56197
1.55128
1.54522
1.54328
1.54293
1.54258
1.54181
1.54036
1.53858
1.53629
1.53279
1.52815
1.52243
1.5144
1.50209
1.4855
1.46947
1.46274
1.46169
1.46206
1.46484
1.46743
1.469
1.47087
1.47313
1.47601
1.48038
1.48715
1.49537
1.50451
1.50951
1.51086
1.5119
1.51265
1.51279
1.51277
1.51251
1.51171
1.51107
1.51107
1.51155
1.51365
1.5169
1.52022
1.52383
1.52762
1.53117
1.53413
1.53637
1.5378
1.53807
1.53693
1.53541
1.53599
1.54026
1.54713
1.55321
1.56059
1.56752
1.57403
1.58237
1.59352
1.60746
1.62459
1.64564
1.67138
1.7013
1.73517
1.77372
1.8166
1.86237
1.97446
1.96009
1.94038
1.91687
1.89366
1.87531
1.86177
1.8504
1.84015
1.82972
1.81787
1.80461
1.7919
1.78143
1.77322
1.76673
1.7615
1.75697
1.75259
1.74716
1.74068
1.73388
1.72729
1.72116
1.71616
1.71267
1.7091
1.70374
1.69728
1.69106
1.68552
1.68049
1.67578
1.67169
1.66876
1.66707
1.66519
1.65842
1.64881
1.64113
1.63525
1.63237
1.63278
1.63386
1.6321
1.62595
1.61939
1.6134
1.60788
1.6023
1.59788
1.59695
1.59733
1.59621
1.59017
1.58376
1.57914
1.57513
1.57136
1.56791
1.56505
1.5626
1.56064
1.5591
1.55778
1.55687
1.55603
1.55469
1.55366
1.55309
1.55252
1.5523
1.55246
1.55258
1.55327
1.55548
1.55876
1.56302
1.56952
1.57942
1.59136
1.60388
1.61653
1.62861
1.64124
1.65575
1.67392
1.69887
1.73228
1.76893
1.79205
1.7953
1.7938
1.79505
1.79774
1.80177
1.80956
1.82258
1.84197
1.86769
1.89191
1.90422
1.90664
1.91015
1.92303
1.94448
1.9774
2.02356
2.06602
2.0799
2.07864
2.06612
2.04729
2.01052
1.94617
1.87884
1.84371
1.83549
1.83518
1.83512
1.83327
1.82869
1.82178
1.81627
1.81493
1.8162
1.81871
1.81892
1.81638
1.80887
1.80215
1.80136
1.8004
1.79762
1.79047
1.7784
1.7707
1.76816
1.76702
1.76701
1.76796
1.76878
1.76854
1.76532
1.75615
1.74172
1.73294
1.73154
1.73162
1.7325
1.73594
1.73854
1.7386
1.73734
1.73223
1.72441
1.71308
1.69554
1.67657
1.65839
1.6393
1.62089
1.60743
1.60425
1.60522
1.60276
1.59674
1.59309
1.59092
1.59097
1.59276
1.59609
1.59958
1.60313
1.6044
1.6041
1.60332
1.60057
1.59484
1.58783
1.58029
1.57109
1.56034
1.55001
1.5422
1.53779
1.53606
1.53577
1.53576
1.53553
1.53465
1.53279
1.52977
1.52552
1.52017
1.51278
1.50166
1.48637
1.47015
1.46126
1.45982
1.46015
1.46276
1.46496
1.46641
1.46816
1.47014
1.47263
1.47661
1.48337
1.49174
1.50026
1.50563
1.50713
1.50814
1.50909
1.50932
1.5093
1.50912
1.50828
1.50783
1.50795
1.50833
1.50975
1.51267
1.51608
1.51967
1.52352
1.52741
1.53075
1.53345
1.53548
1.53589
1.5346
1.53323
1.53414
1.53861
1.54437
1.54943
1.55628
1.56397
1.56952
1.57676
1.58761
1.60175
1.61861
1.63848
1.66226
1.69109
1.72552
1.76529
1.80913
1.85314
1.96695
1.95622
1.94071
1.92107
1.89951
1.87981
1.86539
1.85476
1.84466
1.83454
1.82388
1.81209
1.79995
1.7886
1.77831
1.769
1.76148
1.75622
1.75308
1.75071
1.74703
1.74073
1.73321
1.72624
1.71981
1.71303
1.70552
1.69788
1.69166
1.68682
1.68298
1.67964
1.67655
1.67343
1.66975
1.66472
1.65778
1.64979
1.64178
1.63333
1.62616
1.62311
1.62319
1.62274
1.61734
1.6106
1.60499
1.6002
1.59582
1.59127
1.5879
1.58751
1.5877
1.58473
1.57746
1.57145
1.56716
1.56342
1.55999
1.55647
1.55348
1.55064
1.54808
1.54655
1.54557
1.54499
1.54425
1.54321
1.54275
1.5426
1.5422
1.54103
1.54045
1.5404
1.54077
1.54243
1.54542
1.54931
1.55567
1.5659
1.57816
1.59124
1.60396
1.61544
1.62701
1.64021
1.65645
1.6782
1.70756
1.74212
1.76994
1.77961
1.7803
1.78287
1.7859
1.78922
1.7955
1.80635
1.82205
1.84328
1.86575
1.88093
1.88654
1.89024
1.90037
1.91873
1.94548
1.98599
2.0363
2.06859
2.07201
2.06431
2.04825
2.01967
1.9663
1.90078
1.85726
1.83909
1.83584
1.83426
1.83146
1.8269
1.82029
1.81495
1.81356
1.81496
1.81775
1.81804
1.81592
1.80884
1.80184
1.80119
1.80112
1.80039
1.79804
1.79128
1.7843
1.7803
1.77626
1.77241
1.76966
1.7655
1.75871
1.75038
1.74046
1.72714
1.71378
1.7081
1.7074
1.70903
1.71487
1.72166
1.72367
1.72185
1.71725
1.71027
1.70185
1.69131
1.67721
1.66098
1.64516
1.62964
1.61654
1.60813
1.60101
1.58868
1.57643
1.57008
1.56868
1.56931
1.57146
1.57549
1.58074
1.58504
1.58721
1.58828
1.58829
1.58637
1.58099
1.57534
1.56973
1.56285
1.55423
1.54459
1.53522
1.52805
1.52509
1.52475
1.52527
1.52594
1.52544
1.52429
1.52265
1.51998
1.51552
1.50912
1.49996
1.48717
1.47227
1.46021
1.45618
1.45614
1.45799
1.46003
1.4613
1.46274
1.46427
1.46629
1.46974
1.47594
1.48436
1.49332
1.49962
1.50138
1.50213
1.50257
1.50255
1.50241
1.50178
1.50036
1.49977
1.49986
1.50022
1.50117
1.50335
1.50634
1.50952
1.51309
1.51684
1.52039
1.52388
1.52689
1.52806
1.52798
1.52807
1.52988
1.53458
1.53977
1.54423
1.54957
1.55607
1.56063
1.56607
1.57538
1.58836
1.6041
1.62285
1.64535
1.67257
1.70637
1.74794
1.79488
1.84017
1.96043
1.95412
1.94249
1.92637
1.90715
1.8876
1.87033
1.8563
1.84569
1.83668
1.82726
1.81684
1.80597
1.79508
1.78459
1.77447
1.7647
1.75729
1.75356
1.75183
1.75031
1.7458
1.73693
1.72756
1.71897
1.70984
1.70019
1.69148
1.68462
1.67976
1.67691
1.67528
1.67296
1.66849
1.66245
1.65455
1.64638
1.63889
1.6321
1.62426
1.61654
1.61179
1.60888
1.60327
1.59516
1.58865
1.5841
1.58106
1.57804
1.57506
1.57397
1.5739
1.57253
1.56674
1.55963
1.55399
1.54952
1.54566
1.5424
1.53885
1.5358
1.53307
1.53083
1.5295
1.52852
1.52744
1.52646
1.52585
1.52545
1.52504
1.52435
1.52303
1.52228
1.52228
1.52251
1.52349
1.52565
1.52889
1.53428
1.54342
1.55463
1.56752
1.58155
1.59498
1.60713
1.61912
1.63306
1.65066
1.67304
1.70015
1.72774
1.74773
1.75744
1.7624
1.76738
1.77152
1.77672
1.78502
1.79673
1.81191
1.8283
1.84061
1.84718
1.85188
1.85952
1.87402
1.8955
1.92748
1.97513
2.02829
2.0537
2.05257
2.0422
2.02337
1.98757
1.93185
1.88089
1.84908
1.83755
1.83462
1.8317
1.82745
1.82132
1.81561
1.81337
1.81383
1.81644
1.81738
1.81597
1.80999
1.80387
1.80303
1.80325
1.80313
1.8029
1.7995
1.79375
1.78844
1.78103
1.77206
1.76547
1.75976
1.75102
1.74094
1.72906
1.71098
1.68859
1.67779
1.67751
1.68163
1.688
1.69018
1.69192
1.69271
1.6918
1.68894
1.68601
1.68114
1.67223
1.66016
1.64784
1.6365
1.62574
1.61367
1.59864
1.57773
1.5575
1.54563
1.54241
1.54269
1.54401
1.54838
1.5562
1.56077
1.56402
1.56632
1.5669
1.56528
1.561
1.5576
1.5543
1.5496
1.54314
1.53488
1.52516
1.51547
1.51045
1.51007
1.51121
1.51174
1.51147
1.51143
1.51116
1.51013
1.50732
1.50224
1.49542
1.48612
1.47412
1.4615
1.4529
1.45104
1.45182
1.45314
1.45376
1.45485
1.45618
1.45766
1.46006
1.46495
1.47246
1.48158
1.48884
1.49123
1.4923
1.49267
1.49263
1.49227
1.49105
1.48917
1.48815
1.48808
1.48825
1.48891
1.49061
1.49298
1.49544
1.49804
1.50093
1.50418
1.50788
1.51108
1.51283
1.51399
1.51592
1.51998
1.52576
1.53126
1.53586
1.54036
1.54505
1.54802
1.55159
1.55849
1.56873
1.58188
1.5988
1.62059
1.64818
1.68307
1.72646
1.77645
1.82483
1.93869
1.94223
1.94025
1.93011
1.91322
1.89396
1.87531
1.85902
1.84633
1.83695
1.82843
1.81896
1.80847
1.79753
1.78678
1.77642
1.76649
1.75814
1.75283
1.75049
1.74969
1.74663
1.73658
1.72443
1.71396
1.70276
1.69106
1.68069
1.67231
1.66662
1.66427
1.66317
1.65928
1.65088
1.64173
1.63422
1.62811
1.62222
1.61638
1.60983
1.603
1.59712
1.58998
1.57978
1.57048
1.56373
1.55996
1.55791
1.55606
1.55544
1.55567
1.5553
1.55154
1.54507
1.539
1.53388
1.5294
1.52591
1.5225
1.5189
1.51567
1.51271
1.51068
1.50946
1.50853
1.50745
1.50686
1.50656
1.50623
1.50571
1.50472
1.50308
1.50195
1.50186
1.50201
1.50271
1.50432
1.50702
1.51145
1.51875
1.52797
1.53896
1.5516
1.5648
1.57758
1.59018
1.60354
1.61828
1.63484
1.65405
1.67576
1.69745
1.71527
1.72744
1.73433
1.73899
1.74404
1.74974
1.75788
1.76835
1.77954
1.78934
1.7961
1.80208
1.80966
1.82025
1.83656
1.86111
1.90024
1.95672
2.01216
2.0292
2.02657
2.0181
1.99848
1.96111
1.91165
1.8713
1.84391
1.83522
1.83228
1.82856
1.82344
1.818
1.81525
1.815
1.81559
1.81613
1.81544
1.81133
1.80699
1.80695
1.80684
1.80603
1.80636
1.80486
1.7984
1.79081
1.77929
1.76431
1.75695
1.75313
1.74513
1.73373
1.71822
1.69372
1.66326
1.64607
1.64473
1.64555
1.64586
1.64686
1.64878
1.65206
1.65584
1.65833
1.66049
1.66064
1.65838
1.65278
1.64585
1.63875
1.63035
1.61738
1.59719
1.57111
1.54354
1.52614
1.51901
1.51752
1.51801
1.52371
1.53172
1.53534
1.53824
1.53989
1.5395
1.53704
1.53536
1.53461
1.53333
1.5308
1.52667
1.52075
1.51268
1.50281
1.49545
1.49423
1.4952
1.49579
1.49595
1.49679
1.49746
1.49739
1.49633
1.49298
1.48783
1.48181
1.47358
1.46314
1.45248
1.44588
1.4452
1.44546
1.44537
1.44587
1.44696
1.44798
1.44946
1.453
1.45918
1.46715
1.47441
1.47716
1.47821
1.47853
1.47848
1.47792
1.47627
1.47444
1.47348
1.47304
1.47298
1.47312
1.47403
1.47614
1.47788
1.47974
1.48215
1.4854
1.48912
1.49199
1.49395
1.49582
1.49874
1.50363
1.50967
1.51596
1.52095
1.52454
1.52719
1.52893
1.53148
1.53629
1.54332
1.55296
1.56698
1.58708
1.61435
1.64939
1.69252
1.74261
1.79277
1.88763
1.90563
1.91589
1.9159
1.90983
1.8951
1.8784
1.86208
1.84787
1.83676
1.8279
1.81939
1.80959
1.79841
1.78691
1.77582
1.7651
1.75556
1.74892
1.74567
1.74389
1.73872
1.72596
1.71147
1.69872
1.68563
1.67222
1.66007
1.65046
1.64478
1.64235
1.63883
1.63036
1.61991
1.61059
1.60414
1.60021
1.59658
1.59287
1.58928
1.58493
1.57869
1.56813
1.55581
1.54608
1.53951
1.53655
1.53515
1.53492
1.53579
1.53607
1.53386
1.52872
1.52317
1.51807
1.51358
1.50983
1.50656
1.50301
1.49946
1.4961
1.49331
1.49151
1.49048
1.48978
1.48888
1.48857
1.48832
1.48795
1.48729
1.48602
1.4841
1.48295
1.48286
1.48299
1.48354
1.4848
1.48693
1.49033
1.49561
1.50256
1.51096
1.5208
1.53181
1.54387
1.55667
1.56944
1.58175
1.59394
1.60736
1.62313
1.64134
1.66073
1.67824
1.69028
1.69641
1.70166
1.70649
1.71076
1.7163
1.72249
1.7291
1.73525
1.74182
1.75078
1.76096
1.77305
1.79129
1.82157
1.87049
1.93478
1.98818
2.00559
2.00494
1.99705
1.97772
1.94327
1.90364
1.86573
1.84129
1.83295
1.82765
1.82311
1.81925
1.8171
1.81643
1.81619
1.81608
1.81569
1.8131
1.80996
1.81033
1.81024
1.80851
1.8093
1.80763
1.798
1.78811
1.77345
1.7525
1.74663
1.74514
1.73655
1.72127
1.70125
1.67282
1.64165
1.62156
1.60967
1.60199
1.59974
1.59984
1.60078
1.60396
1.60976
1.6166
1.62403
1.63066
1.63439
1.63545
1.63531
1.63382
1.62819
1.61491
1.59322
1.56578
1.53571
1.51246
1.50175
1.4992
1.50067
1.50802
1.51319
1.51411
1.51448
1.51339
1.51032
1.50911
1.50954
1.51043
1.51046
1.50957
1.50739
1.50386
1.49848
1.4908
1.48301
1.48017
1.48045
1.48137
1.48168
1.48265
1.48394
1.48432
1.48408
1.48216
1.47845
1.47472
1.47007
1.4629
1.45331
1.44454
1.44042
1.43883
1.43788
1.43797
1.43856
1.43916
1.43995
1.44212
1.44668
1.45298
1.45917
1.46187
1.46277
1.46303
1.46304
1.46242
1.46037
1.45862
1.45791
1.45729
1.4567
1.45642
1.45665
1.4583
1.45956
1.4605
1.4622
1.46515
1.46845
1.47093
1.47304
1.47507
1.47808
1.48242
1.48792
1.4946
1.49959
1.50278
1.50443
1.5057
1.50785
1.511
1.51505
1.521
1.53102
1.54763
1.57224
1.60481
1.64493
1.69163
1.7394
1.81711
1.83972
1.86174
1.87722
1.87974
1.87606
1.86718
1.85587
1.84415
1.83322
1.82392
1.81521
1.80501
1.79284
1.77995
1.7675
1.75524
1.74342
1.73446
1.72893
1.72418
1.71459
1.6988
1.68332
1.66968
1.65591
1.64208
1.62961
1.62039
1.61542
1.61171
1.60418
1.59389
1.5843
1.57641
1.57085
1.56734
1.56525
1.56447
1.56421
1.56242
1.55591
1.54472
1.53348
1.52462
1.51892
1.51643
1.51575
1.51595
1.51643
1.51543
1.5122
1.50809
1.50383
1.49993
1.49657
1.49345
1.4899
1.48597
1.48218
1.47918
1.47718
1.47596
1.4758
1.47505
1.474
1.47331
1.47266
1.47204
1.47135
1.47022
1.46858
1.4676
1.46749
1.46757
1.4682
1.46947
1.47076
1.47297
1.47679
1.48192
1.48809
1.4946
1.50244
1.51278
1.52488
1.53649
1.54682
1.55628
1.56582
1.57686
1.59062
1.60682
1.62385
1.63866
1.64821
1.65555
1.66137
1.66396
1.66612
1.66887
1.67154
1.67459
1.67947
1.6881
1.69863
1.70946
1.72296
1.74381
1.7785
1.83251
1.9003
1.95714
1.98447
1.9867
1.97982
1.96229
1.93511
1.89945
1.85871
1.83663
1.8261
1.82043
1.8178
1.81665
1.81639
1.81646
1.81679
1.81679
1.81522
1.81381
1.81431
1.81352
1.81104
1.81137
1.80499
1.79154
1.78094
1.76652
1.73992
1.73182
1.72898
1.71656
1.69629
1.6721
1.64325
1.61581
1.59178
1.57293
1.56255
1.55793
1.55719
1.55756
1.55952
1.56435
1.57283
1.58407
1.59445
1.60401
1.61319
1.6176
1.61754
1.61298
1.60051
1.58142
1.55738
1.52945
1.50544
1.49366
1.49134
1.49431
1.50066
1.50126
1.49965
1.49582
1.48997
1.48723
1.48719
1.48772
1.48885
1.4897
1.48968
1.48883
1.48694
1.48382
1.47901
1.47305
1.46949
1.46923
1.47001
1.4705
1.47133
1.47275
1.47333
1.47317
1.47144
1.46855
1.4666
1.46418
1.45993
1.45294
1.44476
1.43906
1.43567
1.43319
1.43216
1.43219
1.43227
1.43247
1.43356
1.43665
1.44134
1.44588
1.44806
1.44879
1.4491
1.44914
1.44848
1.44654
1.44505
1.44441
1.44373
1.44282
1.44202
1.44183
1.44264
1.44377
1.44412
1.44522
1.44751
1.44992
1.45177
1.45313
1.45432
1.45651
1.46004
1.46482
1.47081
1.47545
1.47823
1.47983
1.48157
1.48371
1.48577
1.48797
1.49123
1.49768
1.51006
1.52975
1.55688
1.59139
1.6323
1.67458
1.73348
1.7577
1.78502
1.80877
1.82236
1.82667
1.82668
1.82388
1.81833
1.81139
1.80359
1.79455
1.78331
1.76967
1.755
1.74067
1.72668
1.71342
1.70287
1.69514
1.687
1.67369
1.65743
1.6426
1.6294
1.61663
1.60439
1.59375
1.58637
1.58192
1.57622
1.56768
1.55904
1.55123
1.54481
1.54017
1.53724
1.53624
1.53695
1.53792
1.53611
1.52985
1.52145
1.51336
1.50673
1.50236
1.50014
1.49907
1.49837
1.49769
1.49668
1.49508
1.49306
1.49052
1.48747
1.48387
1.47965
1.47534
1.47132
1.46851
1.46666
1.46571
1.46583
1.4654
1.46375
1.46236
1.46152
1.46086
1.46031
1.45988
1.45918
1.45784
1.4569
1.45678
1.45705
1.45829
1.45933
1.45968
1.46086
1.46339
1.4668
1.47023
1.47368
1.47909
1.48714
1.49714
1.50689
1.51562
1.5236
1.53133
1.53991
1.54978
1.56074
1.57296
1.58543
1.5967
1.60778
1.61626
1.61968
1.62078
1.62206
1.62255
1.62274
1.62485
1.63168
1.64064
1.64968
1.66006
1.67408
1.69535
1.73074
1.78668
1.85798
1.92206
1.96247
1.96887
1.9647
1.9516
1.92881
1.89044
1.85323
1.83159
1.81955
1.8164
1.81583
1.81578
1.81658
1.81785
1.81787
1.816
1.81577
1.81591
1.81454
1.81314
1.81074
1.79831
1.782
1.77269
1.75564
1.72165
1.7104
1.70225
1.68318
1.65858
1.63267
1.60702
1.58201
1.55662
1.53968
1.52991
1.52429
1.52217
1.52185
1.52256
1.52646
1.53587
1.54796
1.56171
1.57517
1.58479
1.58864
1.58911
1.5853
1.57431
1.56133
1.54492
1.52332
1.5021
1.49178
1.49104
1.49518
1.49711
1.49528
1.49063
1.48371
1.47689
1.47359
1.4724
1.47232
1.47285
1.4735
1.47396
1.47361
1.47251
1.4709
1.46833
1.46485
1.46221
1.46179
1.46252
1.46323
1.46374
1.46467
1.4649
1.46406
1.4617
1.45986
1.45902
1.45777
1.45514
1.45063
1.44449
1.43893
1.43428
1.43038
1.42822
1.42762
1.42754
1.42758
1.42814
1.43012
1.43315
1.4356
1.43692
1.43741
1.43758
1.43755
1.43695
1.43545
1.43433
1.43379
1.43321
1.43236
1.43152
1.4313
1.43182
1.43284
1.43284
1.43321
1.43449
1.43636
1.43748
1.43727
1.43732
1.43848
1.44113
1.44456
1.44889
1.45271
1.45518
1.45702
1.45894
1.46063
1.46192
1.46318
1.46506
1.46914
1.47758
1.49157
1.51136
1.53714
1.56845
1.60221
1.65271
1.67207
1.69549
1.72028
1.73969
1.75045
1.75897
1.76083
1.75974
1.75744
1.75373
1.74695
1.73712
1.72404
1.70886
1.6936
1.67909
1.66586
1.65522
1.64733
1.63802
1.6242
1.60958
1.59709
1.58629
1.57568
1.56593
1.55825
1.55348
1.54966
1.54368
1.53707
1.53073
1.525
1.52007
1.51581
1.51326
1.51288
1.51359
1.51336
1.51091
1.50646
1.50078
1.49548
1.49153
1.48853
1.48643
1.48504
1.48411
1.48403
1.48429
1.48439
1.48376
1.48134
1.47718
1.47215
1.46724
1.46326
1.46081
1.45918
1.45856
1.45899
1.45918
1.45795
1.45596
1.45469
1.45425
1.45377
1.45321
1.45259
1.45162
1.45027
1.44958
1.44959
1.45024
1.45179
1.45179
1.4518
1.45259
1.45414
1.456
1.45738
1.45919
1.46339
1.46967
1.47699
1.48415
1.49127
1.49815
1.50506
1.51231
1.51944
1.5256
1.53242
1.54131
1.55258
1.56574
1.57654
1.58153
1.58269
1.58322
1.58236
1.58081
1.58156
1.58568
1.59163
1.59814
1.6057
1.61528
1.62859
1.64937
1.68419
1.73991
1.81362
1.88602
1.94
1.95384
1.95174
1.94133
1.91608
1.87791
1.84503
1.8239
1.81637
1.81565
1.81586
1.81749
1.81848
1.81736
1.81521
1.81502
1.81406
1.81216
1.81214
1.80555
1.78835
1.77098
1.7586
1.73279
1.69261
1.67878
1.66537
1.64184
1.61473
1.59003
1.56771
1.54362
1.52415
1.51209
1.50342
1.49874
1.49703
1.49667
1.49784
1.50292
1.51291
1.52655
1.54082
1.54967
1.5538
1.55558
1.55458
1.54885
1.54183
1.53592
1.52751
1.51389
1.49883
1.49227
1.49303
1.49569
1.49436
1.48997
1.48408
1.47663
1.47022
1.46555
1.46234
1.46174
1.46207
1.46215
1.46225
1.46172
1.46063
1.46022
1.45951
1.45811
1.4572
1.45735
1.45858
1.45894
1.4589
1.45902
1.45842
1.45638
1.45419
1.45338
1.45284
1.45197
1.45032
1.4477
1.4437
1.43895
1.43384
1.42923
1.42636
1.42545
1.42527
1.42519
1.42538
1.4265
1.42814
1.42914
1.4296
1.42978
1.4298
1.42972
1.42919
1.42805
1.42734
1.42705
1.42673
1.4262
1.4257
1.42574
1.42663
1.42735
1.42683
1.4263
1.4264
1.42655
1.42567
1.42412
1.42384
1.42435
1.426
1.42838
1.43116
1.43371
1.43576
1.43763
1.43931
1.44067
1.44193
1.44319
1.4447
1.44772
1.45361
1.4628
1.47554
1.492
1.51209
1.53472
1.59061
1.60325
1.61829
1.63617
1.65321
1.6647
1.67527
1.68305
1.68528
1.68542
1.68388
1.67912
1.67178
1.66043
1.64665
1.63371
1.62189
1.61136
1.60347
1.59797
1.58974
1.57768
1.56568
1.55668
1.54819
1.53977
1.53281
1.52816
1.52557
1.52238
1.51793
1.51343
1.50906
1.50557
1.50178
1.49823
1.49595
1.49535
1.49478
1.49312
1.49103
1.48826
1.48473
1.48128
1.47877
1.47697
1.47567
1.47495
1.47511
1.47651
1.47812
1.478
1.47601
1.47222
1.46733
1.46207
1.45808
1.45588
1.45442
1.45393
1.45469
1.45563
1.45503
1.45351
1.45138
1.4499
1.44908
1.44839
1.44779
1.44712
1.44626
1.44549
1.44538
1.44571
1.4468
1.4479
1.4475
1.44762
1.44829
1.44935
1.45018
1.45074
1.45251
1.45618
1.46169
1.46799
1.4737
1.47903
1.48463
1.49026
1.49504
1.49852
1.50149
1.50567
1.51245
1.52253
1.53452
1.54553
1.55187
1.554
1.55439
1.55219
1.54935
1.54929
1.55066
1.55331
1.55688
1.56165
1.56802
1.5766
1.58876
1.60818
1.64122
1.69447
1.76992
1.85246
1.91773
1.94033
1.93822
1.92455
1.8982
1.86549
1.83687
1.81993
1.8158
1.81703
1.81766
1.81738
1.81554
1.81426
1.81201
1.80689
1.80561
1.80335
1.79167
1.7704
1.75251
1.73414
1.69685
1.65526
1.6376
1.62048
1.59708
1.57088
1.5489
1.52832
1.51051
1.49815
1.48978
1.48429
1.48172
1.48123
1.48226
1.48605
1.49438
1.50764
1.51901
1.5236
1.52506
1.52514
1.5229
1.51792
1.51344
1.51133
1.50965
1.50626
1.50008
1.4943
1.49316
1.49498
1.49458
1.49009
1.48471
1.4784
1.47101
1.46525
1.46037
1.45635
1.45526
1.45506
1.45434
1.45372
1.45262
1.45188
1.45216
1.45277
1.45311
1.45351
1.45499
1.45618
1.45602
1.45575
1.45517
1.45332
1.45055
1.44968
1.44931
1.44885
1.44817
1.44726
1.44585
1.44301
1.43852
1.43359
1.42907
1.42591
1.42486
1.42465
1.42444
1.42451
1.42514
1.426
1.42613
1.42613
1.42614
1.42612
1.42601
1.42551
1.42434
1.42366
1.42347
1.42323
1.42282
1.42246
1.4227
1.42358
1.4236
1.42254
1.42137
1.42028
1.41875
1.41634
1.41503
1.41499
1.41536
1.41652
1.41815
1.41991
1.42161
1.42325
1.42484
1.42639
1.42806
1.42974
1.43088
1.43193
1.43396
1.43744
1.44249
1.44923
1.45785
1.46837
1.48062
1.55526
1.56315
1.57205
1.58235
1.59076
1.59474
1.59916
1.60659
1.60925
1.60891
1.60776
1.60548
1.60204
1.5954
1.58624
1.57782
1.57077
1.56493
1.56081
1.55659
1.54916
1.53955
1.53029
1.52472
1.51859
1.51247
1.50804
1.50569
1.50429
1.50196
1.49931
1.49609
1.49289
1.49075
1.4881
1.48543
1.48365
1.48254
1.48071
1.47888
1.47742
1.47538
1.47268
1.47035
1.46902
1.46836
1.46814
1.46867
1.47099
1.47348
1.47347
1.47176
1.46849
1.46375
1.45811
1.45435
1.45264
1.45144
1.45103
1.452
1.45369
1.45344
1.45231
1.45025
1.44764
1.44602
1.44509
1.44447
1.44408
1.44363
1.44337
1.4434
1.44369
1.44451
1.44602
1.44624
1.44591
1.44617
1.44685
1.44758
1.44784
1.44887
1.45073
1.45354
1.45779
1.46264
1.46662
1.47043
1.47471
1.47861
1.48177
1.48426
1.48705
1.49235
1.49887
1.50716
1.51705
1.52646
1.53257
1.53455
1.53373
1.53005
1.52682
1.52573
1.52572
1.52607
1.52762
1.53085
1.53547
1.54112
1.54808
1.55851
1.57625
1.60743
1.65972
1.73486
1.8223
1.8954
1.92153
1.91886
1.90319
1.87829
1.85115
1.82829
1.8174
1.81721
1.81726
1.81423
1.8123
1.80984
1.80312
1.79605
1.79327
1.78387
1.76497
1.74214
1.72159
1.69498
1.65024
1.61279
1.59181
1.57538
1.55442
1.53126
1.51288
1.49795
1.48699
1.47922
1.47394
1.47153
1.47129
1.47204
1.47612
1.48575
1.4982
1.50433
1.50479
1.50439
1.50263
1.49931
1.49394
1.48798
1.48582
1.48551
1.48566
1.48621
1.48714
1.4898
1.49308
1.49361
1.49081
1.48582
1.48015
1.47297
1.46654
1.46185
1.45708
1.45372
1.45263
1.4515
1.44971
1.44819
1.44662
1.44618
1.44672
1.44806
1.44956
1.45136
1.45356
1.45398
1.45384
1.45372
1.4527
1.44985
1.44784
1.44744
1.4472
1.44694
1.44653
1.44584
1.4444
1.44177
1.43788
1.43353
1.42956
1.42646
1.42502
1.42453
1.42438
1.42451
1.42492
1.42535
1.42524
1.42511
1.42492
1.42456
1.42394
1.42269
1.42142
1.421
1.42085
1.42069
1.42052
1.4206
1.42129
1.42176
1.42126
1.41985
1.41836
1.41659
1.41398
1.4118
1.41142
1.41143
1.41165
1.41279
1.41404
1.41517
1.41648
1.4177
1.41878
1.41992
1.42115
1.4218
1.42152
1.42115
1.42152
1.42293
1.42515
1.42791
1.4314
1.43593
1.44187
1.53323
1.53574
1.53819
1.54018
1.54011
1.53885
1.54016
1.54446
1.54762
1.54906
1.54978
1.55044
1.55036
1.54889
1.54388
1.53741
1.53404
1.53168
1.5292
1.52467
1.51853
1.51163
1.50457
1.50096
1.49749
1.49371
1.49127
1.49033
1.48924
1.48775
1.48607
1.48328
1.4807
1.47924
1.47749
1.47575
1.47462
1.47334
1.47134
1.46976
1.46833
1.46621
1.46393
1.46279
1.46263
1.46281
1.46398
1.46699
1.46984
1.46993
1.46869
1.46608
1.46159
1.45553
1.45169
1.45023
1.44926
1.44895
1.45022
1.45271
1.45292
1.45191
1.44981
1.4468
1.44438
1.44303
1.44201
1.44169
1.44175
1.4418
1.44212
1.44285
1.44374
1.44511
1.44595
1.44567
1.44526
1.44533
1.44567
1.44619
1.44649
1.44748
1.449
1.45095
1.45422
1.458
1.46091
1.46381
1.46728
1.47048
1.473
1.47619
1.48128
1.48693
1.49348
1.50036
1.50684
1.51278
1.51622
1.51654
1.5154
1.51295
1.51109
1.50982
1.50959
1.51005
1.51187
1.51509
1.51885
1.52305
1.52661
1.5304
1.53729
1.55156
1.57922
1.62772
1.702
1.79468
1.87307
1.89735
1.89324
1.87837
1.85729
1.83546
1.82051
1.81473
1.81365
1.80961
1.80371
1.79571
1.78417
1.77816
1.76942
1.74922
1.72499
1.70051
1.67655
1.64157
1.59845
1.57071
1.55306
1.53581
1.51553
1.49836
1.48612
1.4773
1.47098
1.46674
1.46485
1.4646
1.4657
1.47062
1.4807
1.49019
1.49229
1.49141
1.48987
1.48779
1.48378
1.47651
1.46881
1.46678
1.46666
1.46768
1.46986
1.47438
1.48135
1.48666
1.48763
1.48633
1.48386
1.48001
1.47393
1.46757
1.4634
1.45924
1.45527
1.45351
1.45257
1.44997
1.44713
1.44478
1.4429
1.4427
1.44327
1.44485
1.44703
1.44994
1.45221
1.45239
1.45254
1.45244
1.45081
1.44791
1.44683
1.44639
1.44601
1.44563
1.44511
1.44418
1.44257
1.44025
1.43726
1.43386
1.43063
1.42773
1.42565
1.42469
1.42464
1.42476
1.42496
1.42521
1.42512
1.42484
1.42428
1.42344
1.42221
1.42058
1.41979
1.41967
1.41959
1.41956
1.41952
1.42
1.42101
1.42108
1.4201
1.41848
1.41687
1.4148
1.41215
1.41124
1.41108
1.41105
1.41116
1.41163
1.41216
1.41293
1.41388
1.41449
1.41485
1.41521
1.41532
1.41497
1.41383
1.41228
1.41213
1.41278
1.41418
1.41557
1.41709
1.41917
1.42252
1.51373
1.51371
1.51227
1.50903
1.50677
1.50664
1.50827
1.51082
1.51421
1.51796
1.52108
1.5223
1.52192
1.519
1.51354
1.50942
1.50798
1.50702
1.50567
1.50252
1.49799
1.49332
1.48829
1.48531
1.48374
1.48184
1.48071
1.47987
1.47891
1.47793
1.47617
1.47338
1.47157
1.47065
1.46952
1.46869
1.46826
1.46718
1.46547
1.46416
1.46234
1.45993
1.45859
1.4585
1.45895
1.46049
1.46368
1.46654
1.46671
1.46611
1.46444
1.46054
1.45441
1.45039
1.44898
1.44798
1.44767
1.44901
1.45199
1.45258
1.4519
1.45014
1.44701
1.44353
1.44172
1.4408
1.44038
1.4404
1.44062
1.44099
1.44183
1.44313
1.44441
1.44548
1.44553
1.44531
1.44498
1.44488
1.445
1.44516
1.44528
1.446
1.4473
1.44879
1.45169
1.45489
1.45705
1.45949
1.4623
1.46513
1.46872
1.47353
1.47916
1.48498
1.4898
1.49365
1.49751
1.50136
1.5032
1.5029
1.50182
1.50141
1.50105
1.50079
1.50132
1.50367
1.50599
1.5075
1.50887
1.50901
1.50912
1.50951
1.51141
1.51715
1.52985
1.55489
1.6014
1.67772
1.77321
1.8441
1.86026
1.85854
1.84958
1.83502
1.82076
1.81074
1.80362
1.79528
1.78296
1.76728
1.7538
1.74427
1.72688
1.69918
1.67366
1.64875
1.6216
1.58374
1.55118
1.53374
1.51944
1.5024
1.48739
1.47631
1.46816
1.46333
1.46077
1.45937
1.4593
1.46089
1.46652
1.47554
1.48096
1.48158
1.48061
1.47928
1.47712
1.47246
1.46437
1.45736
1.45578
1.45565
1.45623
1.45917
1.46571
1.47365
1.47742
1.47798
1.47786
1.47726
1.47546
1.4717
1.46709
1.46378
1.46069
1.45726
1.45559
1.45547
1.45361
1.44911
1.44515
1.44156
1.43961
1.4396
1.44028
1.44207
1.44497
1.449
1.45112
1.45152
1.45178
1.45145
1.44907
1.44669
1.44595
1.44535
1.44471
1.44409
1.44348
1.44272
1.4414
1.43941
1.43697
1.43447
1.43195
1.42942
1.42726
1.42599
1.42559
1.42537
1.42532
1.42548
1.42529
1.42473
1.4239
1.42266
1.4209
1.41951
1.41927
1.41924
1.41924
1.41935
1.41975
1.42051
1.42122
1.42098
1.4198
1.41802
1.41612
1.41405
1.41178
1.41056
1.41028
1.41005
1.41
1.41014
1.41056
1.41103
1.41156
1.41179
1.41189
1.41189
1.41156
1.41013
1.40805
1.40753
1.40762
1.40811
1.40976
1.41153
1.41258
1.41409
1.41628
1.5004
1.49886
1.49647
1.49424
1.4937
1.49397
1.49625
1.49997
1.50314
1.50427
1.50414
1.50298
1.50014
1.49575
1.49162
1.49084
1.49086
1.49104
1.49103
1.48983
1.4869
1.48338
1.47899
1.47597
1.47515
1.47428
1.47328
1.47239
1.47169
1.47066
1.4684
1.46608
1.4653
1.46474
1.4643
1.46432
1.46429
1.46338
1.46205
1.46015
1.45767
1.45611
1.45596
1.45646
1.45801
1.461
1.46375
1.46397
1.46373
1.4627
1.45946
1.45365
1.4499
1.44863
1.44761
1.44738
1.44885
1.45204
1.45267
1.45185
1.45004
1.44704
1.44311
1.44101
1.44028
1.43993
1.43988
1.44008
1.44041
1.44097
1.44218
1.44332
1.44384
1.44473
1.44506
1.44494
1.44484
1.44482
1.44473
1.44455
1.44453
1.44479
1.44592
1.44713
1.44937
1.45202
1.45389
1.45629
1.45977
1.4633
1.46742
1.47276
1.47849
1.48288
1.48588
1.48852
1.49135
1.49345
1.49369
1.49369
1.49427
1.4951
1.49573
1.49728
1.49988
1.50072
1.50027
1.49946
1.49823
1.49697
1.49553
1.49547
1.49725
1.50207
1.51047
1.52401
1.54818
1.5933
1.66539
1.74196
1.78758
1.81124
1.81474
1.81148
1.80305
1.79465
1.78316
1.76561
1.74535
1.72662
1.71031
1.69374
1.66741
1.63886
1.61587
1.59321
1.56609
1.53403
1.51454
1.50354
1.49091
1.4787
1.46908
1.46218
1.45773
1.45605
1.45523
1.45533
1.45704
1.46236
1.46913
1.47177
1.47192
1.47142
1.4704
1.46827
1.4633
1.4554
1.45007
1.44898
1.44883
1.44981
1.45421
1.46166
1.46798
1.4693
1.46926
1.46897
1.46871
1.46751
1.46493