/*--------------------------------*- C++ -*----------------------------------*\
  =========                 |
  \\      /  F ield         | OpenFOAM: The Open Source CFD Toolbox
   \\    /   O peration     | Website:  https://openfoam.org
    \\  /    A nd           | Version:  7
     \\/     M anipulation  |
\*---------------------------------------------------------------------------*/
FoamFile
{
    version     2.0;
    format      ascii;
    class       volScalarField;
    location    "4";
    object      T;
}
// * * * * * * * * * * * * * * * * * * * * * * * * * * * * * * * * * * * * * //

dimensions      [0 0 0 1 0 0 0];

internalField   nonuniform List<scalar> 
4128
(
1.86423
1.90877
1.94359
1.95432
1.95653
1.95885
1.95734
1.95241
1.94723
1.93973
1.93351
1.92916
1.9247
1.92157
1.91798
1.91312
1.90826
1.90371
1.89979
1.89691
1.89411
1.89137
1.88947
1.88791
1.88435
1.87946
1.87482
1.86995
1.86462
1.85982
1.85621
1.85336
1.85123
1.85079
1.85041
1.84779
1.84467
1.84072
1.83524
1.8307
1.8288
1.82768
1.82672
1.82647
1.82717
1.82769
1.82675
1.82288
1.81859
1.8131
1.80502
1.79807
1.79542
1.79427
1.79363
1.79415
1.79635
1.79728
1.79633
1.79431
1.7911
1.78743
1.78456
1.78247
1.78043
1.77782
1.77437
1.77027
1.76672
1.76468
1.76383
1.76306
1.76173
1.76088
1.76164
1.7631
1.76285
1.76195
1.7599
1.75517
1.74713
1.7408
1.73868
1.73758
1.73662
1.73646
1.73827
1.74113
1.742
1.7418
1.74081
1.73737
1.73092
1.72597
1.7244
1.72347
1.72268
1.72245
1.72266
1.72252
1.72215
1.72126
1.71911
1.71444
1.70895
1.70698
1.70702
1.70989
1.71464
1.71574
1.71435
1.71241
1.71014
1.70587
1.69861
1.693
1.69138
1.69126
1.69125
1.69212
1.69513
1.69825
1.69895
1.69776
1.69492
1.68971
1.68222
1.67703
1.67522
1.6642
1.73307
1.80792
1.8683
1.90172
1.92487
1.9282
1.92913
1.93057
1.92799
1.92591
1.92357
1.91828
1.91335
1.90877
1.90297
1.89624
1.89001
1.88591
1.88291
1.88025
1.87811
1.87644
1.87467
1.87149
1.86705
1.86233
1.85749
1.85277
1.84927
1.84652
1.84403
1.84221
1.84149
1.83938
1.83611
1.83278
1.82863
1.82281
1.81703
1.81431
1.81313
1.81237
1.8124
1.81412
1.81546
1.81512
1.81226
1.80825
1.8038
1.79721
1.78885
1.78329
1.78148
1.78108
1.78254
1.78469
1.78453
1.78358
1.78201
1.7787
1.77379
1.7702
1.7684
1.7673
1.76682
1.76642
1.76516
1.76217
1.75711
1.75219
1.74937
1.74749
1.74614
1.74568
1.74706
1.7496
1.74972
1.7492
1.74756
1.74278
1.73379
1.7266
1.72428
1.7233
1.72282
1.72451
1.72925
1.73215
1.73315
1.73311
1.73218
1.72878
1.72155
1.71492
1.71239
1.71073
1.70916
1.70816
1.70799
1.70802
1.70785
1.70789
1.70744
1.70496
1.70216
1.70181
1.70297
1.70312
1.70203
1.70099
1.69982
1.69832
1.69578
1.6911
1.68479
1.68149
1.68109
1.68125
1.68396
1.68962
1.69272
1.69224
1.69011
1.6872
1.68193
1.6723
1.66422
1.6626
1.59647
1.60099
1.62465
1.68035
1.74509
1.81062
1.85402
1.87976
1.89774
1.90319
1.90952
1.91289
1.91044
1.9062
1.90164
1.89479
1.88769
1.88112
1.87572
1.87149
1.86844
1.86627
1.86451
1.86157
1.85735
1.85259
1.84762
1.84239
1.83817
1.83602
1.83458
1.83338
1.83338
1.83315
1.83052
1.82746
1.82394
1.81893
1.81188
1.80445
1.79955
1.7975
1.79686
1.79683
1.79809
1.79989
1.80056
1.79953
1.79631
1.79302
1.78931
1.78385
1.77726
1.7723
1.77028
1.77023
1.77056
1.77018
1.7693
1.76794
1.76535
1.7614
1.75823
1.75653
1.7558
1.75649
1.75804
1.75797
1.75594
1.75134
1.74348
1.73676
1.73395
1.73241
1.73122
1.73118
1.73391
1.73717
1.7372
1.73684
1.73535
1.73052
1.72144
1.71445
1.71246
1.71203
1.7126
1.71575
1.72192
1.72443
1.72446
1.72421
1.72263
1.71772
1.70855
1.70074
1.69748
1.69568
1.69453
1.694
1.6946
1.69595
1.69771
1.69945
1.69994
1.69929
1.69649
1.69262
1.69051
1.68929
1.68798
1.68654
1.68514
1.68373
1.68165
1.67908
1.67621
1.67426
1.67423
1.67659
1.67924
1.68031
1.68045
1.67903
1.67632
1.67192
1.66344
1.65378
1.65087
1.59061
1.58814
1.58416
1.58186
1.59053
1.62107
1.68385
1.74828
1.80651
1.84552
1.8704
1.88452
1.88947
1.88967
1.88838
1.88368
1.8792
1.8738
1.86724
1.86224
1.85944
1.85768
1.85554
1.85181
1.84637
1.83904
1.83077
1.82459
1.82189
1.82056
1.82009
1.82053
1.822
1.82245
1.82159
1.81929
1.8165
1.81229
1.80538
1.79721
1.79008
1.78489
1.78204
1.78132
1.78142
1.7815
1.78154
1.78146
1.78158
1.78077
1.77803
1.77593
1.77327
1.7693
1.76404
1.75909
1.75632
1.7548
1.75347
1.75214
1.75057
1.74854
1.74673
1.74561
1.74568
1.74744
1.7491
1.74877
1.74713
1.74386
1.73737
1.72811
1.7218
1.71941
1.71813
1.71747
1.71864
1.72244
1.72488
1.72513
1.72511
1.72385
1.71956
1.7119
1.70562
1.70325
1.70292
1.70416
1.70687
1.71099
1.71297
1.71285
1.71201
1.70929
1.70317
1.69374
1.68648
1.68383
1.68282
1.68237
1.6837
1.68839
1.69202
1.69359
1.6938
1.69299
1.68998
1.68368
1.67828
1.67606
1.67472
1.6734
1.67199
1.6709
1.67066
1.67059
1.67038
1.66974
1.66903
1.66888
1.66868
1.66827
1.6678
1.6668
1.66468
1.66104
1.65474
1.64642
1.64103
1.58846
1.58328
1.57814
1.57386
1.56865
1.56296
1.56523
1.58217
1.62624
1.69737
1.75711
1.81079
1.83779
1.85449
1.86194
1.86238
1.86256
1.86119
1.85657
1.85344
1.85141
1.84909
1.84592
1.84274
1.83854
1.83114
1.82072
1.81277
1.80855
1.80603
1.80491
1.80575
1.80851
1.81012
1.81029
1.80877
1.80627
1.80322
1.79871
1.7928
1.78675
1.78061
1.77436
1.76912
1.76678
1.76619
1.76532
1.76384
1.76301
1.7633
1.76508
1.76607
1.76608
1.76428
1.76057
1.7541
1.74626
1.74162
1.73944
1.73761
1.73615
1.73517
1.73449
1.73445
1.73581
1.73821
1.73881
1.73801
1.73665
1.73433
1.73023
1.72332
1.71483
1.70907
1.70677
1.70601
1.70645
1.70796
1.71014
1.71272
1.71438
1.71446
1.7133
1.7098
1.70402
1.69829
1.69527
1.69455
1.69513
1.69645
1.69769
1.69835
1.69845
1.69793
1.69549
1.68991
1.68141
1.67564
1.674
1.67388
1.67626
1.68098
1.68462
1.68513
1.6842
1.68283
1.68053
1.67596
1.6692
1.66428
1.66215
1.66133
1.66098
1.66109
1.66248
1.66444
1.66532
1.6651
1.66408
1.66134
1.65821
1.65649
1.65522
1.65362
1.65143
1.64854
1.64454
1.63962
1.63414
1.58693
1.58157
1.57615
1.57004
1.56351
1.55811
1.55473
1.55088
1.54898
1.55674
1.5833
1.6347
1.69991
1.7537
1.79727
1.81695
1.83118
1.83737
1.83839
1.84148
1.84122
1.83821
1.8353
1.83253
1.82872
1.82384
1.81699
1.80906
1.80233
1.79768
1.79511
1.7942
1.79356
1.7925
1.79209
1.79216
1.7915
1.78944
1.78688
1.78408
1.78075
1.77648
1.77142
1.76519
1.75774
1.75243
1.75034
1.74899
1.74759
1.74676
1.74804
1.75319
1.75634
1.7554
1.75311
1.74923
1.74193
1.73267
1.72737
1.72532
1.72413
1.72332
1.72307
1.72447
1.72704
1.72734
1.72606
1.72509
1.7246
1.72369
1.7214
1.71759
1.71234
1.70592
1.70043
1.69764
1.697
1.69762
1.69854
1.69915
1.70006
1.70162
1.70242
1.70211
1.70026
1.69658
1.69161
1.68724
1.6851
1.68435
1.68427
1.68433
1.68465
1.68467
1.68413
1.68214
1.67875
1.6742
1.6708
1.67027
1.6716
1.67315
1.673
1.67225
1.67159
1.67076
1.66946
1.6671
1.66284
1.65679
1.65291
1.65213
1.65209
1.65386
1.65733
1.65859
1.6583
1.6576
1.65628
1.65365
1.64928
1.6453
1.6428
1.64071
1.63824
1.63552
1.6331
1.63089
1.62871
1.58501
1.5793
1.57347
1.56682
1.56075
1.55621
1.55181
1.54734
1.54308
1.53915
1.53385
1.53291
1.54411
1.57458
1.62883
1.69132
1.7437
1.78177
1.80097
1.81501
1.81736
1.82001
1.82003
1.81952
1.81807
1.8155
1.81138
1.80593
1.80058
1.79651
1.79267
1.78787
1.78302
1.7801
1.77786
1.77486
1.77257
1.77205
1.7726
1.77258
1.77165
1.7691
1.76531
1.76089
1.7543
1.74511
1.7387
1.73652
1.73543
1.73484
1.73559
1.73827
1.7424
1.74427
1.74317
1.74063
1.73587
1.7283
1.72019
1.7161
1.71447
1.71376
1.7145
1.71723
1.71803
1.71658
1.71467
1.71303
1.71167
1.71065
1.70954
1.70793
1.70575
1.70312
1.69956
1.69488
1.69097
1.68911
1.68833
1.68804
1.68809
1.68882
1.69107
1.69207
1.69203
1.69106
1.68843
1.68364
1.67741
1.6734
1.67199
1.67138
1.67097
1.67081
1.6708
1.67147
1.67213
1.67217
1.67121
1.66856
1.66519
1.66284
1.66156
1.66036
1.65919
1.65815
1.65723
1.65628
1.65492
1.65271
1.64896
1.64595
1.64546
1.64621
1.64684
1.64737
1.64761
1.64709
1.6463
1.64487
1.64164
1.63649
1.63226
1.62957
1.62764
1.62555
1.62405
1.62357
1.62417
1.58332
1.57727
1.5706
1.56378
1.55916
1.55549
1.55145
1.54684
1.54165
1.53606
1.52982
1.52323
1.51693
1.51319
1.51633
1.53337
1.57077
1.63116
1.69384
1.74232
1.77009
1.78172
1.78822
1.79091
1.79649
1.80226
1.80214
1.79972
1.79775
1.79505
1.79128
1.78617
1.77913
1.77072
1.76365
1.75976
1.75762
1.75639
1.75652
1.7588
1.76042
1.7599
1.75707
1.75353
1.74911
1.7422
1.73408
1.72894
1.7268
1.72588
1.72626
1.72798
1.72918
1.72973
1.72943
1.72846
1.72677
1.72277
1.71661
1.71132
1.7087
1.70788
1.70919
1.71033
1.70917
1.70709
1.70481
1.70216
1.69953
1.698
1.69708
1.69633
1.6966
1.69708
1.69601
1.69297
1.68837
1.68251
1.67875
1.67735
1.67668
1.67649
1.67697
1.67989
1.68243
1.68262
1.68169
1.67892
1.6727
1.66482
1.66072
1.65959
1.65908
1.65889
1.6598
1.66321
1.66749
1.66942
1.66897
1.66639
1.66049
1.65411
1.65081
1.64887
1.64714
1.64582
1.64516
1.64517
1.64587
1.64585
1.64534
1.64312
1.63894
1.63697
1.63668
1.63649
1.63648
1.63629
1.6357
1.63511
1.63374
1.63013
1.62457
1.62071
1.61899
1.6184
1.61849
1.62039
1.62122
1.58123
1.57423
1.56751
1.56224
1.55778
1.5538
1.55013
1.54623
1.5415
1.53583
1.52891
1.52053
1.51177
1.50635
1.5044
1.50232
1.50285
1.50946
1.53269
1.57286
1.62871
1.68044
1.72459
1.74518
1.75912
1.77229
1.77783
1.78605
1.79026
1.78955
1.78635
1.78138
1.77425
1.76504
1.75517
1.74824
1.74554
1.7446
1.74474
1.74695
1.74876
1.74859
1.74707
1.7446
1.74137
1.73625
1.73009
1.72573
1.72288
1.72099
1.7201
1.71964
1.71916
1.71824
1.71721
1.71609
1.71454
1.71243
1.70923
1.70599
1.70448
1.70438
1.70359
1.70169
1.69991
1.6976
1.69477
1.69144
1.6884
1.68686
1.68629
1.68623
1.68813
1.69024
1.69008
1.68803
1.6844
1.67786
1.67048
1.6669
1.66577
1.66525
1.66548
1.66875
1.67296
1.67322
1.67286
1.67148
1.66724
1.65879
1.65153
1.64931
1.64885
1.64878
1.65171
1.65882
1.66301
1.66301
1.66203
1.66011
1.65564
1.64748
1.64069
1.63772
1.63622
1.63517
1.63539
1.63819
1.64049
1.64047
1.6399
1.63818
1.63358
1.62804
1.62613
1.62569
1.62529
1.62539
1.62545
1.6248
1.62424
1.62317
1.62028
1.61559
1.61298
1.61267
1.61321
1.61446
1.61395
1.57902
1.57117
1.5648
1.55996
1.556
1.55271
1.54928
1.54536
1.54071
1.53523
1.52863
1.52006
1.51052
1.50433
1.50071
1.49764
1.49532
1.49404
1.49279
1.49188
1.49883
1.51927
1.55654
1.61239
1.66149
1.70489
1.73002
1.74985
1.76655
1.7704
1.77072
1.76984
1.76472
1.75742
1.7497
1.7424
1.73712
1.73589
1.73563
1.73654
1.73769
1.73774
1.73694
1.73463
1.73137
1.72719
1.72284
1.7204
1.71882
1.71678
1.71402
1.71134
1.70921
1.70733
1.7056
1.70418
1.70292
1.70147
1.70114
1.7013
1.70141
1.69956
1.69598
1.69239
1.68933
1.68671
1.68408
1.68139
1.67938
1.67832
1.6779
1.67845
1.68132
1.6833
1.68252
1.68055
1.67755
1.67187
1.66353
1.65788
1.6559
1.65517
1.65531
1.65743
1.66031
1.6609
1.66123
1.66123
1.65958
1.65378
1.64493
1.6408
1.64024
1.64037
1.64299
1.64854
1.65195
1.6518
1.65111
1.65011
1.64773
1.64164
1.63292
1.62846
1.62706
1.62638
1.62655
1.62833
1.63053
1.63063
1.63047
1.62973
1.62702
1.62124
1.61638
1.61516
1.61487
1.61466
1.61534
1.61608
1.61629
1.61609
1.61536
1.61316
1.60922
1.60709
1.60652
1.60581
1.60434
1.57662
1.56937
1.56341
1.55803
1.55365
1.5504
1.54718
1.54351
1.53918
1.53416
1.52808
1.52025
1.51164
1.50476
1.49983
1.49623
1.49286
1.48969
1.48663
1.484
1.48088
1.47616
1.47212
1.47966
1.50331
1.54708
1.60872
1.66019
1.70879
1.72915
1.73979
1.74627
1.74527
1.74372
1.74107
1.73642
1.73067
1.72918
1.72888
1.72805
1.72792
1.72794
1.72735
1.72544
1.72219
1.71869
1.71701
1.7162
1.71438
1.71121
1.70719
1.7028
1.69814
1.69493
1.69366
1.69288
1.69243
1.69272
1.69491
1.69701
1.69695
1.69426
1.68944
1.6829
1.67724
1.67351
1.67183
1.67159
1.67132
1.67102
1.67141
1.67377
1.67543
1.67449
1.67233
1.67022
1.66779
1.66376
1.6572
1.65063
1.64754
1.6464
1.6463
1.64785
1.64961
1.64969
1.65017
1.65066
1.65046
1.64808
1.64225
1.63627
1.63406
1.63375
1.63521
1.63855
1.64055
1.64023
1.63946
1.639
1.63807
1.63521
1.62884
1.62187
1.61909
1.61832
1.61873
1.62069
1.62108
1.62046
1.62016
1.61997
1.61884
1.61554
1.61
1.60691
1.6062
1.60605
1.60727
1.61113
1.61239
1.61202
1.61133
1.60924
1.60446
1.59928
1.59669
1.59583
1.59469
1.57465
1.56856
1.56316
1.55759
1.55215
1.5477
1.54408
1.54045
1.53635
1.53167
1.5263
1.5197
1.51227
1.50637
1.50185
1.49749
1.49282
1.488
1.48371
1.47994
1.47551
1.4706
1.46614
1.46238
1.45858
1.45952
1.47137
1.50022
1.54819
1.60751
1.65368
1.69734
1.71364
1.72088
1.72521
1.72313
1.72097
1.72099
1.72095
1.72016
1.71892
1.71772
1.717
1.71571
1.7141
1.71293
1.71296
1.7127
1.71084
1.70702
1.70096
1.69365
1.68705
1.68294
1.68159
1.68093
1.68125
1.68504
1.69017
1.69212
1.69134
1.6885
1.68417
1.67617
1.66673
1.66208
1.66045
1.65983
1.6599
1.66177
1.66516
1.66779
1.66738
1.66567
1.6634
1.66075
1.65785
1.65456
1.65053
1.64577
1.64163
1.63957
1.63873
1.63866
1.63865
1.63842
1.63874
1.63944
1.63982
1.63944
1.63749
1.63433
1.63142
1.62987
1.62961
1.62938
1.62899
1.62844
1.62754
1.62715
1.62689
1.62612
1.62372
1.61916
1.61421
1.61205
1.61184
1.61184
1.61129
1.61046
1.61005
1.60974
1.6094
1.60842
1.60604
1.60238
1.59989
1.59945
1.60076
1.60267
1.60315
1.60279
1.60236
1.6008
1.59673
1.59205
1.58869
1.58722
1.58578
1.57273
1.56786
1.56313
1.55815
1.5526
1.54664
1.54113
1.53655
1.53213
1.52743
1.52238
1.51697
1.51169
1.50716
1.50322
1.49931
1.49478
1.48903
1.48236
1.47633
1.47148
1.46756
1.46388
1.46024
1.45671
1.45416
1.44969
1.44472
1.44688
1.46201
1.4941
1.54232
1.60096
1.64649
1.68728
1.69962
1.70273
1.70458
1.70304
1.70378
1.70342
1.70143
1.70131
1.70127
1.70259
1.70638
1.708
1.70753
1.70611
1.70361
1.698
1.68832
1.67834
1.67288
1.67058
1.66974
1.6697
1.67244
1.67908
1.68312
1.6829
1.68038
1.67684
1.67089
1.66104
1.65334
1.65078
1.65001
1.65017
1.65329
1.65799
1.65839
1.65776
1.65683
1.65475
1.65126
1.64748
1.64477
1.643
1.64101
1.63827
1.63554
1.63315
1.6307
1.62827
1.62726
1.62721
1.62739
1.62815
1.62912
1.62971
1.62978
1.62959
1.62808
1.62484
1.62104
1.61831
1.61717
1.61623
1.61589
1.61595
1.61605
1.61607
1.61529
1.61259
1.60801
1.60419
1.60235
1.60147
1.60075
1.60035
1.60012
1.60002
1.60015
1.60023
1.59974
1.59787
1.59572
1.59491
1.59451
1.59404
1.59328
1.59218
1.59042
1.58804
1.58571
1.58329
1.58091
1.57868
1.57097
1.56678
1.56266
1.55821
1.55297
1.54687
1.54046
1.53432
1.52867
1.52332
1.5182
1.51378
1.51006
1.50657
1.50319
1.49969
1.496
1.49112
1.48294
1.47423
1.46991
1.46664
1.46324
1.45976
1.45621
1.45285
1.44915
1.44384
1.43676
1.43172
1.43182
1.437
1.45661
1.49353
1.54653
1.60325
1.64963
1.67965
1.68274
1.68387
1.68572
1.68292
1.68284
1.68252
1.68344
1.68999
1.69805
1.69982
1.69844
1.69634
1.69303
1.68653
1.67647
1.66748
1.66262
1.66076
1.66055
1.66229
1.6643
1.66594
1.66743
1.66808
1.667
1.66361
1.65767
1.65009
1.6452
1.64356
1.64365
1.64614
1.64707
1.64634
1.64584
1.64526
1.64363
1.64013
1.63636
1.63517
1.63483
1.63449
1.63391
1.63242
1.62916
1.62436
1.61989
1.6172
1.61657
1.61663
1.61714
1.61918
1.62248
1.62505
1.62547
1.62416
1.62061
1.61449
1.60918
1.60661
1.60574
1.6056
1.60586
1.60758
1.60956
1.60971
1.60879
1.60507
1.59859
1.59397
1.59203
1.59127
1.59108
1.59118
1.59183
1.59355
1.596
1.59678
1.59623
1.594
1.5896
1.58593
1.58433
1.58285
1.58083
1.57916
1.57863
1.57844
1.57801
1.57665
1.57416
1.56952
1.56548
1.56164
1.55764
1.55286
1.54694
1.54041
1.53371
1.52683
1.52033
1.5152
1.51098
1.50729
1.50413
1.50144
1.499
1.49609
1.49165
1.48372
1.47411
1.46907
1.46596
1.46286
1.45994
1.45645
1.45326
1.45021
1.44585
1.43785
1.42944
1.42592
1.42376
1.42177
1.42286
1.43132
1.45636
1.4972
1.5491
1.59522
1.6323
1.66016
1.66579
1.66693
1.66816
1.66888
1.67314
1.67557
1.67993
1.68527
1.68674
1.68535
1.68093
1.67451
1.66829
1.66264
1.65814
1.65568
1.65503
1.65474
1.65389
1.65274
1.65256
1.65268
1.6524
1.65082
1.6475
1.64447
1.64273
1.64172
1.63995
1.63836
1.63744
1.63637
1.63469
1.63164
1.62759
1.62604
1.62578
1.6259
1.62697
1.62742
1.62673
1.62438
1.61985
1.6137
1.60908
1.60741
1.60729
1.60758
1.60989
1.61499
1.61842
1.61839
1.61747
1.61499
1.60954
1.60183
1.59713
1.59609
1.59588
1.59625
1.599
1.60245
1.60302
1.60296
1.60116
1.59512
1.58768
1.58378
1.5827
1.58237
1.58242
1.58407
1.58857
1.59268
1.59325
1.59297
1.5912
1.58571
1.57842
1.57378
1.57117
1.56963
1.56927
1.56927
1.56954
1.57027
1.57175
1.57164
1.56792
1.56378
1.55996
1.55611
1.55163
1.54628
1.54042
1.53382
1.52636
1.51935
1.51368
1.50883
1.50467
1.50141
1.49893
1.49665
1.49409
1.49052
1.48417
1.47475
1.46844
1.46504
1.46209
1.45966
1.45688
1.45352
1.45032
1.44677
1.44147
1.4325
1.42441
1.42041
1.41776
1.41567
1.41304
1.41209
1.41495
1.42584
1.45033
1.48795
1.53821
1.58025
1.61795
1.64828
1.65426
1.65741
1.65846
1.66067
1.66521
1.66975
1.67201
1.67161
1.66891
1.66524
1.6617
1.65832
1.65534
1.65222
1.64822
1.64471
1.6428
1.64127
1.63989
1.63936
1.63984
1.64015
1.63983
1.63992
1.63815
1.63473
1.63147
1.62912
1.62696
1.62405
1.62038
1.61781
1.61692
1.61664
1.61683
1.61852
1.61977
1.61951
1.61805
1.6146
1.60838
1.60197
1.59957
1.59917
1.59931
1.60188
1.60762
1.61018
1.61009
1.6096
1.60785
1.60351
1.59592
1.58913
1.58704
1.58676
1.58747
1.59163
1.59531
1.59609
1.59638
1.5956
1.59137
1.58331
1.57728
1.57536
1.57499
1.5751
1.57807
1.58471
1.58774
1.58758
1.58725
1.58573
1.58092
1.57177
1.56358
1.56059
1.56007
1.56
1.56023
1.56169
1.56507
1.56963
1.57043
1.56702
1.56271
1.55861
1.55441
1.5497
1.54443
1.53885
1.5328
1.52604
1.51918
1.51308
1.50781
1.50356
1.50008
1.49695
1.49403
1.49123
1.48818
1.48368
1.47606
1.46846
1.46394
1.46034
1.45713
1.45438
1.45181
1.44928
1.44647
1.44255
1.43728
1.42996
1.42215
1.41698
1.41329
1.4099
1.40695
1.40412
1.40232
1.40214
1.4055
1.41715
1.44329
1.48362
1.53583
1.5765
1.61468
1.63852
1.64099
1.64511
1.64715
1.65003
1.65592
1.66015
1.66108
1.65916
1.65539
1.65181
1.6486
1.64458
1.63894
1.63358
1.63102
1.62991
1.62937
1.62959
1.63171
1.63427
1.63427
1.63192
1.62858
1.62413
1.61916
1.61546
1.6129
1.61108
1.60996
1.60947
1.60937
1.61027
1.61231
1.61235
1.6117
1.61055
1.60819
1.60309
1.59633
1.59273
1.59207
1.59218
1.59465
1.59834
1.59991
1.59999
1.59989
1.59895
1.59632
1.59112
1.58395
1.5796
1.57891
1.57924
1.58126
1.58395
1.58562
1.58685
1.58719
1.58598
1.58075
1.57334
1.56951
1.56873
1.5689
1.57118
1.57542
1.57781
1.578
1.57802
1.57745
1.57414
1.56612
1.55654
1.55238
1.55155
1.55144
1.55225
1.55677
1.56421
1.56795
1.56757
1.56572
1.56124
1.55694
1.55256
1.54786
1.54289
1.53778
1.53223
1.52574
1.51846
1.5117
1.50664
1.50274
1.49924
1.49591
1.49272
1.48968
1.48659
1.48289
1.47723
1.46998
1.46432
1.45981
1.45511
1.45049
1.44693
1.44455
1.4426
1.44058
1.43747
1.43293
1.42748
1.4207
1.41401
1.40906
1.40467
1.40063
1.39738
1.39407
1.39314
1.39307
1.39303
1.39739
1.41179
1.43804
1.47628
1.52642
1.56832
1.60207
1.61861
1.62462
1.63523
1.64251
1.64788
1.64842
1.64733
1.64481
1.64159
1.63745
1.63232
1.62674
1.62277
1.62152
1.62124
1.62187
1.62494
1.62787
1.62733
1.62503
1.62144
1.61602
1.60882
1.60368
1.60269
1.60261
1.60285
1.6035
1.60547
1.60765
1.60775
1.60669
1.6051
1.60292
1.5998
1.59585
1.59103
1.58697
1.58572
1.58603
1.58798
1.58977
1.59071
1.59109
1.59106
1.59036
1.58859
1.58551
1.58122
1.5763
1.57322
1.57278
1.57363
1.5751
1.57649
1.57781
1.5782
1.57793
1.57588
1.5714
1.56681
1.56431
1.56377
1.56491
1.56749
1.56812
1.56809
1.5682
1.56802
1.56642
1.56127
1.55292
1.54673
1.54511
1.54491
1.54677
1.5535
1.55763
1.55819
1.55812
1.5645
1.55969
1.55486
1.54997
1.54536
1.54126
1.53718
1.53239
1.52625
1.51845
1.51077
1.50514
1.501
1.49752
1.49447
1.49151
1.48845
1.48527
1.48171
1.47737
1.47215
1.46643
1.46062
1.45491
1.44938
1.44435
1.44059
1.43791
1.43547
1.43338
1.43142
1.42874
1.42436
1.41781
1.41041
1.40449
1.39962
1.39501
1.39098
1.38821
1.38573
1.38434
1.38541
1.38561
1.38477
1.38656
1.39925
1.42761
1.4672
1.517
1.55944
1.59632
1.61942
1.62799
1.63474
1.63498
1.63237
1.62932
1.62541
1.62186
1.61925
1.61666
1.61512
1.61456
1.61516
1.61839
1.62101
1.6207
1.61887
1.61551
1.60949
1.60094
1.59491
1.59298
1.59269
1.59309
1.59711
1.60201
1.603
1.60237
1.60103
1.5987
1.59564
1.5923
1.58895
1.5859
1.58294
1.58063
1.58002
1.57984
1.58034
1.58114
1.5816
1.58167
1.58148
1.5803
1.57869
1.57687
1.57459
1.57146
1.56836
1.56697
1.56692
1.56757
1.56855
1.56892
1.56877
1.56798
1.5664
1.56418
1.56178
1.55969
1.55854
1.55837
1.55848
1.5586
1.55871
1.55847
1.5572
1.55468
1.55075
1.54611
1.54274
1.54205
1.54403
1.5471
1.54757
1.54815
1.54882
1.56323
1.5579
1.55226
1.54675
1.54275
1.53967
1.5363
1.53205
1.52642
1.51924
1.51142
1.50484
1.49983
1.49567
1.49204
1.4891
1.48674
1.48385
1.48022
1.47668
1.47287
1.46857
1.46385
1.45824
1.45115
1.44355
1.43779
1.4344
1.43288
1.43167
1.4301
1.4279
1.42473
1.42045
1.41399
1.40624
1.40018
1.39482
1.38986
1.38618
1.38345
1.38112
1.38008
1.37958
1.38043
1.37983
1.37418
1.36853
1.37154
1.38816
1.42355
1.46819
1.51976
1.55964
1.59636
1.6189
1.62116
1.61895
1.61442
1.60941
1.60794
1.60614
1.60539
1.60595
1.6083
1.6117
1.61383
1.6136
1.61231
1.60984
1.60526
1.59747
1.58911
1.5857
1.5854
1.58583
1.58839
1.59113
1.59236
1.59239
1.59197
1.5908
1.58867
1.58608
1.58368
1.58181
1.58021
1.57846
1.57615
1.57401
1.57269
1.57267
1.57268
1.57249
1.57217
1.5722
1.57205
1.57212
1.57145
1.56849
1.56458
1.56081
1.55916
1.55912
1.55927
1.55954
1.5603
1.56039
1.56018
1.55988
1.5585
1.5559
1.55265
1.54985
1.54939
1.54948
1.54938
1.5487
1.5475
1.54653
1.54573
1.54431
1.54279
1.54101
1.53916
1.53796
1.53791
1.53833
1.53882
1.56229
1.55641
1.54982
1.54453
1.541
1.53778
1.53431
1.53034
1.52551
1.51945
1.51274
1.50674
1.50145
1.49645
1.49162
1.48714
1.48321
1.48075
1.47868
1.47567
1.47187
1.46816
1.46443
1.4602
1.45507
1.44794
1.43907
1.43254
1.42865
1.42653
1.42507
1.4242
1.42305
1.42032
1.41596
1.40992
1.40194
1.39476
1.38922
1.38472
1.38278
1.38216
1.38138
1.38031
1.37891
1.3768
1.37319
1.36913
1.36252
1.35488
1.35431
1.3611
1.38442
1.4209
1.46758
1.51708
1.55474
1.59105
1.60099
1.60017
1.60013
1.59674
1.5937
1.59394
1.59336
1.5941
1.59773
1.60125
1.6026
1.60213
1.59993
1.5951
1.58898
1.5833
1.58112
1.58102
1.58238
1.58361
1.58301
1.58201
1.58081
1.57983
1.57897
1.57851
1.57832
1.57724
1.5762
1.5751
1.5731
1.5693
1.56551
1.56425
1.56415
1.56401
1.56384
1.56475
1.56721
1.56838
1.56729
1.56416
1.56047
1.55597
1.55134
1.54951
1.54958
1.55061
1.55208
1.55302
1.5541
1.55474
1.55393
1.55149
1.54787
1.54369
1.54056
1.5395
1.53923
1.53922
1.5394
1.53985
1.54072
1.54164
1.54169
1.53977
1.53601
1.53208
1.52962
1.52838
1.52744
1.56064
1.55411
1.54796
1.54364
1.54003
1.53628
1.53218
1.52762
1.52263
1.51744
1.51225
1.50739
1.50305
1.49883
1.49409
1.48855
1.48271
1.47732
1.47353
1.47085
1.46813
1.46562
1.46298
1.45956
1.45567
1.45069
1.44336
1.43401
1.42719
1.42339
1.42124
1.41966
1.41804
1.4169
1.415
1.41148
1.406
1.39876
1.39123
1.38538
1.381
1.37766
1.37541
1.37385
1.37267
1.37216
1.37179
1.36994
1.36546
1.35768
1.34924
1.3432
1.3406
1.34301
1.35349
1.38
1.41729
1.46932
1.51649
1.55255
1.58084
1.58514
1.58454
1.58748
1.58608
1.58454
1.58482
1.58419
1.58536
1.58792
1.58918
1.58927
1.58687
1.58334
1.5805
1.5793
1.57894
1.57804
1.57684
1.57507
1.57261
1.57073
1.56958
1.56902
1.56964
1.57079
1.57046
1.56931
1.56761
1.5641
1.55909
1.55656
1.55632
1.55635
1.55679
1.55832
1.56019
1.56101
1.5608
1.55888
1.55548
1.55091
1.54435
1.53998
1.53974
1.54068
1.54236
1.54489
1.54813
1.54946
1.5488
1.54684
1.54392
1.53921
1.53348
1.53069
1.53036
1.53035
1.5306
1.53242
1.53592
1.53868
1.53885
1.53718
1.5339
1.5286
1.52228
1.51758
1.51602
1.55832
1.55166
1.54665
1.5429
1.53928
1.53539
1.53102
1.52594
1.52015
1.51461
1.51022
1.50652
1.50306
1.49951
1.49563
1.49073
1.48379
1.47562
1.4706
1.46799
1.46559
1.46299
1.46068
1.45785
1.45416
1.45011
1.44525
1.43853
1.42965
1.42249
1.41859
1.41629
1.41457
1.4128
1.41103
1.40884
1.40562
1.40118
1.39507
1.38762
1.38085
1.37549
1.37213
1.37065
1.36982
1.3694
1.36896
1.36804
1.36576
1.36092
1.35216
1.34238
1.33766
1.3346
1.33226
1.33259
1.33682
1.35133
1.38207
1.42456
1.47758
1.5176
1.54569
1.56968
1.57737
1.57809
1.57695
1.57512
1.5748
1.57583
1.57567
1.57731
1.57921
1.57913
1.57755
1.57634
1.57508
1.57331
1.57106
1.56846
1.56616
1.56478
1.56374
1.56301
1.56311
1.56317
1.56258
1.56127
1.56016
1.55785
1.55331
1.54997
1.54893
1.54884
1.54939
1.55157
1.55457
1.55591
1.55531
1.55273
1.54958
1.54543
1.53853
1.532
1.5304
1.5309
1.53247
1.53592
1.54124
1.54357
1.54297
1.54134
1.53879
1.53429
1.52713
1.52234
1.52176
1.52183
1.52232
1.52558
1.53192
1.53485
1.53452
1.53293
1.52995
1.52418
1.51526
1.50903
1.50793
1.55555
1.5498
1.54575
1.54207
1.53828
1.53424
1.52974
1.52441
1.51776
1.51186
1.50812
1.50494
1.50192
1.49897
1.49584
1.49181
1.48583
1.47766
1.47046
1.4662
1.46308
1.46008
1.45678
1.4536
1.45119
1.44859
1.44522
1.44081
1.43472
1.42576
1.41807
1.41432
1.41181
1.40968
1.40764
1.40608
1.40403
1.40078
1.39668
1.3908
1.38238
1.37521
1.37104
1.3689
1.36764
1.36693
1.36664
1.36638
1.36507
1.36172
1.35599
1.34766
1.3384
1.33285
1.32991
1.3286
1.32756
1.32681
1.32783
1.33476
1.35414
1.38913
1.42754
1.47316
1.50907
1.53545
1.55838
1.56561
1.56735
1.56866
1.56707
1.56857
1.57043
1.56978
1.56842
1.56753
1.5667
1.56538
1.56371
1.56221
1.56066
1.55942
1.55853
1.55802
1.55832
1.5586
1.55738
1.55497
1.55276
1.55045
1.54719
1.54409
1.54272
1.54221
1.54225
1.5437
1.54614
1.54791
1.54797
1.54611
1.54337
1.53972
1.53363
1.5263
1.52382
1.52391
1.5251
1.52838
1.53284
1.53521
1.53515
1.53419
1.53231
1.52825
1.52123
1.5157
1.51461
1.51477
1.51583
1.51939
1.52419
1.52656
1.52667
1.52599
1.52419
1.51962
1.51102
1.50354
1.50196
1.55351
1.5491
1.54542
1.54172
1.53776
1.53336
1.52836
1.52244
1.51576
1.51026
1.50659
1.50362
1.50076
1.49787
1.4949
1.49135
1.48613
1.47885
1.47158
1.46612
1.46183
1.458
1.45427
1.45056
1.44729
1.44458
1.44249
1.43985
1.43565
1.42957
1.42154
1.41451
1.41064
1.40792
1.40551
1.40322
1.40119
1.39898
1.39596
1.39178
1.38529
1.3771
1.37135
1.36877
1.36695
1.3653
1.3641
1.36296
1.36178
1.36006
1.35683
1.35098
1.34312
1.3358
1.33095
1.32784
1.32532
1.32363
1.32297
1.32201
1.3213
1.32339
1.33081
1.35068
1.38416
1.41953
1.4633
1.50028
1.52984
1.55222
1.5569
1.56138
1.56483
1.56471
1.56303
1.56076
1.55674
1.55336
1.55227
1.55236
1.55273
1.55309
1.55349
1.55382
1.55457
1.55475
1.55314
1.55022
1.5471
1.54424
1.54178
1.53962
1.5382
1.53768
1.53752
1.53756
1.53804
1.53804
1.53778
1.53711
1.53529
1.5329
1.52917
1.52369
1.51939
1.51886
1.51961
1.52236
1.52582
1.52722
1.52683
1.52588
1.52447
1.52182
1.51631
1.51027
1.5085
1.50853
1.50987
1.51445
1.5184
1.51926
1.51922
1.51898
1.51794
1.51516
1.50895
1.50163
1.4984
1.55155
1.54816
1.54487
1.54142
1.53755
1.53299
1.52726
1.52013
1.51332
1.50852
1.50534
1.50269
1.50001
1.49699
1.49368
1.48992
1.48494
1.4785
1.47204
1.46663
1.46196
1.45762
1.45342
1.44913
1.44498
1.44136
1.43829
1.43576
1.43339
1.4301
1.42503
1.41862
1.4123
1.40785
1.40462
1.40188
1.39929
1.39626
1.39274
1.3893
1.38605
1.38165
1.37574
1.37069
1.3674
1.36493
1.36284
1.36133
1.35963
1.35699
1.35346
1.34987
1.34603
1.34071
1.33425
1.32916
1.3259
1.32349
1.32131
1.31891
1.31753
1.31616
1.31494
1.31398
1.31557
1.32251
1.34231
1.37858
1.42132
1.46731
1.50306
1.53057
1.55051
1.55699
1.5585
1.55811
1.55339
1.54845
1.54624
1.54317
1.54217
1.54243
1.54373
1.54536
1.54706
1.54794
1.54768
1.54592
1.5432
1.54031
1.53832
1.53729
1.53635
1.53541
1.53422
1.53268
1.53147
1.53029
1.52895
1.52791
1.52661
1.52489
1.5233
1.5213
1.5185
1.51612
1.516
1.51736
1.51951
1.51985
1.51939
1.51859
1.51718
1.51487
1.51143
1.50708
1.50414
1.50372
1.50444
1.50719
1.51035
1.5116
1.51182
1.51178
1.51123
1.50926
1.50543
1.50071
1.49818
1.55055
1.54704
1.54385
1.54061
1.53704
1.53278
1.52694
1.51922
1.51226
1.50782
1.50452
1.50143
1.49833
1.49538
1.49226
1.48828
1.48338
1.47776
1.47234
1.46734
1.46219
1.45724
1.45308
1.4491
1.44451
1.44006
1.43627
1.43274
1.42971
1.4273
1.42478
1.4211
1.41608
1.41016
1.4054
1.40253
1.40013
1.39686
1.39308
1.38948
1.38629
1.38286
1.37902
1.37472
1.37039
1.36683
1.36411
1.36183
1.35891
1.35595
1.35334
1.35066
1.34771
1.34406
1.33976
1.33368
1.32684
1.32252
1.31978
1.31743
1.31522
1.31318
1.31163
1.30994
1.3094
1.30774
1.30323
1.30448
1.31506
1.34466
1.38807
1.43069
1.47301
1.50581
1.53542
1.54563
1.54621
1.54636
1.54532
1.54002
1.5372
1.5378
1.53742
1.53713
1.53808
1.53909
1.5387
1.53727
1.53575
1.53454
1.53374
1.53365
1.53362
1.53337
1.53252
1.52998
1.52663
1.52471
1.52326
1.52173
1.52023
1.51858
1.51726
1.51676
1.51615
1.51487
1.51283
1.51183
1.51207
1.51223
1.51225
1.51194
1.51083
1.5088
1.50625
1.50396
1.50213
1.50136
1.50155
1.50243
1.50315
1.50381
1.50434
1.50436
1.50402
1.50248
1.50001
1.49877
1.49841
1.55023
1.54636
1.5427
1.53915
1.53526
1.53056
1.52471
1.51812
1.51261
1.5086
1.50506
1.50146
1.49753
1.49332
1.48949
1.48594
1.48182
1.477
1.47264
1.46884
1.46472
1.45929
1.45302
1.44856
1.44542
1.44174
1.43676
1.43178
1.42764
1.4247
1.42266
1.42086
1.4186
1.41462
1.40736
1.40007
1.39532
1.392
1.38879
1.38569
1.38316
1.3817
1.38047
1.37849
1.37468
1.36776
1.3604
1.35644
1.35449
1.35244
1.35021
1.34778
1.34558
1.34381
1.34152
1.33798
1.33202
1.32518
1.32058
1.31736
1.31447
1.31239
1.31086
1.30945
1.30804
1.30612
1.30326
1.29734
1.29184
1.29237
1.29892
1.31687
1.35305
1.39582
1.4408
1.47997
1.50658
1.52934
1.53429
1.53316
1.53445
1.53687
1.53461
1.53349
1.53444
1.53516
1.5338
1.53127
1.529
1.52646
1.52528
1.52564
1.52721
1.52848
1.52841
1.52649
1.52201
1.51892
1.51758
1.51642
1.51524
1.5142
1.51366
1.51319
1.5127
1.51195
1.51039
1.50745
1.50477
1.50466
1.50469
1.50456
1.50442
1.5038
1.50218
1.50137
1.5012
1.50102
1.50016
1.49832
1.49654
1.49637
1.49642
1.49638
1.4962
1.49591
1.49586
1.49644
1.49715
1.55186
1.5468
1.54187
1.53709
1.53264
1.52775
1.52157
1.51581
1.51203
1.50905
1.50608
1.50275
1.49862
1.49333
1.48728
1.4813
1.47655
1.4735
1.47103
1.46841
1.46527
1.46141
1.45663
1.45051
1.44336
1.43743
1.43357
1.42998
1.42656
1.42365
1.42136
1.41963
1.41803
1.41558
1.40969
1.40022
1.39359
1.39002
1.38719
1.38452
1.38221
1.3804
1.37915
1.37809
1.37626
1.37072
1.36034
1.35419
1.35186
1.3502
1.34856
1.34697
1.34507
1.34275
1.34033
1.33824
1.33522
1.32859
1.32167
1.31877
1.31697
1.31498
1.31282
1.31062
1.30782
1.30446
1.30088
1.29682
1.29131
1.28877
1.28755
1.28662
1.28873
1.29805
1.32084
1.36286
1.40779
1.45018
1.47893
1.50022
1.51921
1.52622
1.52678
1.53029
1.53346
1.53292
1.53078
1.52884
1.52674
1.52369
1.52087
1.51983
1.51983
1.52034
1.52042
1.51954
1.51622
1.51186
1.50977
1.50915
1.50911
1.50956
1.5103
1.51085
1.51079