/*--------------------------------*- C++ -*----------------------------------*\
  =========                 |
  \\      /  F ield         | OpenFOAM: The Open Source CFD Toolbox
   \\    /   O peration     | Website:  https://openfoam.org
    \\  /    A nd           | Version:  7
     \\/     M anipulation  |
\*---------------------------------------------------------------------------*/
FoamFile
{
    version     2.0;
    format      ascii;
    class       volVectorField;
    location    "4";
    object      U;
}
// * * * * * * * * * * * * * * * * * * * * * * * * * * * * * * * * * * * * * //

dimensions      [0 1 -1 0 0 0 0];

internalField   nonuniform List<vector> 
4128
(
(2.11008 -0.411436 0)
(2.08131 -0.305976 0)
(2.08725 -0.2804 0)
(2.0803 -0.237396 0)
(2.06948 -0.213037 0)
(2.06574 -0.215509 0)
(2.07023 -0.219253 0)
(2.07859 -0.215978 0)
(2.08487 -0.217752 0)
(2.09361 -0.21776 0)
(2.09992 -0.215827 0)
(2.10441 -0.213688 0)
(2.11051 -0.209851 0)
(2.11751 -0.205308 0)
(2.12425 -0.200015 0)
(2.13055 -0.195574 0)
(2.13421 -0.192705 0)
(2.13605 -0.19356 0)
(2.13809 -0.196265 0)
(2.14216 -0.197185 0)
(2.14778 -0.19702 0)
(2.15497 -0.193984 0)
(2.16301 -0.189382 0)
(2.17071 -0.186147 0)
(2.17502 -0.185043 0)
(2.17792 -0.184904 0)
(2.18083 -0.184456 0)
(2.18275 -0.182866 0)
(2.18346 -0.17996 0)
(2.18549 -0.17587 0)
(2.18914 -0.171977 0)
(2.19316 -0.169175 0)
(2.19747 -0.166589 0)
(2.2041 -0.162374 0)
(2.21059 -0.156655 0)
(2.21428 -0.153503 0)
(2.21786 -0.150807 0)
(2.21944 -0.147167 0)
(2.21833 -0.142549 0)
(2.21805 -0.138478 0)
(2.22086 -0.136168 0)
(2.22443 -0.134678 0)
(2.22856 -0.133646 0)
(2.23392 -0.132996 0)
(2.24138 -0.13176 0)
(2.24911 -0.129216 0)
(2.25441 -0.1263 0)
(2.25712 -0.123759 0)
(2.26015 -0.119903 0)
(2.26055 -0.114343 0)
(2.25533 -0.107779 0)
(2.25095 -0.104165 0)
(2.25281 -0.103287 0)
(2.25569 -0.102609 0)
(2.25865 -0.101108 0)
(2.26375 -0.0979294 0)
(2.27081 -0.0920837 0)
(2.27568 -0.0872143 0)
(2.2785 -0.0850749 0)
(2.28121 -0.0831158 0)
(2.28209 -0.0816006 0)
(2.28252 -0.0816287 0)
(2.28367 -0.0825598 0)
(2.2855 -0.0833391 0)
(2.28716 -0.0825497 0)
(2.28859 -0.0788577 0)
(2.28962 -0.0706826 0)
(2.29022 -0.0585064 0)
(2.29148 -0.0467797 0)
(2.29418 -0.0398321 0)
(2.29813 -0.0365111 0)
(2.30122 -0.0355595 0)
(2.30314 -0.0364413 0)
(2.30646 -0.0380704 0)
(2.31195 -0.0404743 0)
(2.31928 -0.0426161 0)
(2.32339 -0.0419948 0)
(2.3265 -0.0402255 0)
(2.32869 -0.0356583 0)
(2.32762 -0.0270618 0)
(2.32198 -0.0159679 0)
(2.31837 -0.009834 0)
(2.32076 -0.00893761 0)
(2.32351 -0.0092113 0)
(2.32594 -0.0103157 0)
(2.32931 -0.0121553 0)
(2.33522 -0.0145845 0)
(2.34207 -0.0152411 0)
(2.34505 -0.0141246 0)
(2.34667 -0.012623 0)
(2.34777 -0.00849893 0)
(2.34615 0.000221166 0)
(2.34087 0.0133736 0)
(2.33786 0.0230847 0)
(2.3396 0.0261274 0)
(2.34133 0.0275006 0)
(2.34314 0.0273481 0)
(2.34682 0.0254492 0)
(2.35062 0.0227891 0)
(2.35344 0.0203344 0)
(2.35679 0.0188132 0)
(2.35983 0.0183363 0)
(2.3602 0.0209325 0)
(2.35705 0.0283134 0)
(2.35288 0.0383805 0)
(2.35297 0.0445075 0)
(2.35488 0.0479003 0)
(2.36129 0.0539459 0)
(2.37135 0.0593543 0)
(2.37753 0.060259 0)
(2.38039 0.0599061 0)
(2.38388 0.059599 0)
(2.38595 0.0601956 0)
(2.38386 0.0622124 0)
(2.37622 0.0662001 0)
(2.37095 0.0689094 0)
(2.37153 0.0695244 0)
(2.37409 0.0695752 0)
(2.37649 0.0696743 0)
(2.38146 0.070315 0)
(2.39034 0.0734537 0)
(2.39836 0.0791419 0)
(2.40231 0.0844358 0)
(2.40368 0.0878069 0)
(2.40419 0.0920998 0)
(2.39999 0.098221 0)
(2.3914 0.102816 0)
(2.38569 0.102502 0)
(2.38972 0.0997522 0)
(2.25559 -0.738448 0)
(2.21224 -0.610963 0)
(2.17732 -0.476081 0)
(2.12903 -0.331928 0)
(2.11234 -0.269736 0)
(2.11302 -0.252503 0)
(2.10237 -0.236306 0)
(2.09562 -0.220138 0)
(2.0961 -0.220006 0)
(2.10441 -0.214613 0)
(2.11571 -0.205868 0)
(2.12129 -0.207852 0)
(2.12756 -0.209014 0)
(2.1341 -0.208385 0)
(2.14058 -0.20438 0)
(2.14643 -0.196071 0)
(2.14809 -0.189298 0)
(2.14876 -0.18815 0)
(2.15186 -0.189646 0)
(2.15604 -0.190194 0)
(2.16133 -0.189685 0)
(2.16797 -0.184988 0)
(2.1766 -0.179722 0)
(2.18451 -0.178514 0)
(2.18949 -0.179949 0)
(2.19227 -0.181608 0)
(2.19421 -0.18312 0)
(2.19529 -0.184088 0)
(2.19622 -0.182914 0)
(2.19871 -0.179764 0)
(2.20251 -0.176062 0)
(2.20711 -0.172704 0)
(2.21269 -0.168729 0)
(2.21991 -0.161596 0)
(2.2247 -0.155312 0)
(2.22922 -0.151128 0)
(2.23205 -0.14721 0)
(2.23267 -0.143316 0)
(2.23076 -0.138873 0)
(2.22898 -0.134519 0)
(2.23171 -0.131854 0)
(2.23572 -0.130308 0)
(2.23985 -0.128842 0)
(2.24501 -0.127652 0)
(2.25245 -0.126757 0)
(2.26035 -0.125795 0)
(2.26687 -0.124619 0)
(2.2704 -0.123451 0)
(2.27384 -0.122473 0)
(2.27581 -0.1204 0)
(2.27369 -0.114259 0)
(2.26795 -0.104204 0)
(2.26545 -0.0971665 0)
(2.26762 -0.0948258 0)
(2.27044 -0.0934157 0)
(2.2767 -0.0904813 0)
(2.28325 -0.0871719 0)
(2.28624 -0.0854877 0)
(2.2897 -0.0845388 0)
(2.29296 -0.0835804 0)
(2.29431 -0.082147 0)
(2.29316 -0.0808134 0)
(2.2936 -0.0800465 0)
(2.29606 -0.0797146 0)
(2.29904 -0.0788547 0)
(2.30313 -0.0755853 0)
(2.30742 -0.0686517 0)
(2.31086 -0.0587224 0)
(2.31285 -0.0470988 0)
(2.31181 -0.0361789 0)
(2.31004 -0.0305131 0)
(2.31127 -0.0302275 0)
(2.31289 -0.0314813 0)
(2.31477 -0.0329499 0)
(2.31809 -0.0345023 0)
(2.32451 -0.037161 0)
(2.33291 -0.0392836 0)
(2.33709 -0.0382574 0)
(2.34022 -0.036199 0)
(2.34238 -0.0323605 0)
(2.34059 -0.024815 0)
(2.33316 -0.0137808 0)
(2.32834 -0.0070257 0)
(2.32959 -0.00573391 0)
(2.3322 -0.00548345 0)
(2.33506 -0.00512609 0)
(2.34167 -0.00536771 0)
(2.35103 -0.00735852 0)
(2.35795 -0.00648068 0)
(2.36058 -0.00372263 0)
(2.36201 -0.000484551 0)
(2.36322 0.00389403 0)
(2.36185 0.0118809 0)
(2.35566 0.02427 0)
(2.34999 0.0325736 0)
(2.35089 0.0334005 0)
(2.3531 0.0322595 0)
(2.3555 0.0303463 0)
(2.35809 0.0274999 0)
(2.36145 0.0248342 0)
(2.3648 0.0222102 0)
(2.36732 0.0210757 0)
(2.3704 0.0211274 0)
(2.37157 0.0251696 0)
(2.36958 0.0363592 0)
(2.36808 0.050614 0)
(2.37002 0.0598521 0)
(2.37456 0.0659839 0)
(2.37834 0.0670738 0)
(2.38176 0.0654949 0)
(2.38525 0.0633657 0)
(2.38793 0.0616717 0)
(2.39023 0.0601212 0)
(2.39079 0.0596204 0)
(2.38709 0.0625515 0)
(2.38121 0.0694534 0)
(2.37995 0.0753129 0)
(2.38224 0.0775835 0)
(2.38424 0.0785188 0)
(2.38999 0.0809503 0)
(2.39999 0.0856555 0)
(2.40827 0.0886911 0)
(2.41127 0.0899099 0)
(2.41407 0.0910519 0)
(2.416 0.0928259 0)
(2.41331 0.0952645 0)
(2.40188 0.0988831 0)
(2.39294 0.100883 0)
(2.39636 0.100633 0)
(2.30884 -0.830263 0)
(2.30811 -0.811029 0)
(2.29549 -0.764247 0)
(2.26222 -0.667014 0)
(2.22097 -0.535338 0)
(2.19 -0.419944 0)
(2.13822 -0.291313 0)
(2.12213 -0.251375 0)
(2.13172 -0.245559 0)
(2.12676 -0.219147 0)
(2.1266 -0.203558 0)
(2.13361 -0.202045 0)
(2.14355 -0.199619 0)
(2.15046 -0.197961 0)
(2.15438 -0.201066 0)
(2.15902 -0.202089 0)
(2.16145 -0.199733 0)
(2.16402 -0.193832 0)
(2.16726 -0.188977 0)
(2.17129 -0.186391 0)
(2.1768 -0.185349 0)
(2.18299 -0.182706 0)
(2.19126 -0.178056 0)
(2.19683 -0.174056 0)
(2.20048 -0.173042 0)
(2.20383 -0.173163 0)
(2.20623 -0.175016 0)
(2.20693 -0.179121 0)
(2.20751 -0.181066 0)
(2.21123 -0.180274 0)
(2.21594 -0.178236 0)
(2.22123 -0.174799 0)
(2.22862 -0.169786 0)
(2.2354 -0.163601 0)
(2.24016 -0.15885 0)
(2.245 -0.153783 0)
(2.24766 -0.148409 0)
(2.24762 -0.143336 0)
(2.24473 -0.138227 0)
(2.24178 -0.132479 0)
(2.24236 -0.127586 0)
(2.24584 -0.124183 0)
(2.25008 -0.12111 0)
(2.25457 -0.118092 0)
(2.26092 -0.116044 0)
(2.26808 -0.116912 0)
(2.27467 -0.119841 0)
(2.27993 -0.122519 0)
(2.28342 -0.123417 0)
(2.28704 -0.122872 0)
(2.28876 -0.120355 0)
(2.28708 -0.113633 0)
(2.28408 -0.102547 0)
(2.28289 -0.0916813 0)
(2.28447 -0.084867 0)
(2.28821 -0.0809792 0)
(2.29263 -0.0794209 0)
(2.29506 -0.0802134 0)
(2.2984 -0.0812629 0)
(2.30199 -0.0821844 0)
(2.30394 -0.0826703 0)
(2.30371 -0.0812842 0)
(2.30475 -0.0787947 0)
(2.30739 -0.0768508 0)
(2.31073 -0.0748081 0)
(2.31662 -0.0706737 0)
(2.32342 -0.0636966 0)
(2.32753 -0.0569856 0)
(2.33036 -0.0505718 0)
(2.33086 -0.0423107 0)
(2.32611 -0.0329061 0)
(2.32194 -0.0280512 0)
(2.32299 -0.0276339 0)
(2.3248 -0.0281101 0)
(2.32673 -0.0288092 0)
(2.33071 -0.030092 0)
(2.33836 -0.0328091 0)
(2.34651 -0.0346277 0)
(2.34945 -0.0341182 0)
(2.35235 -0.0325182 0)
(2.35367 -0.0293472 0)
(2.35058 -0.0222602 0)
(2.34222 -0.0104443 0)
(2.33709 -0.00136484 0)
(2.33822 0.00168595 0)
(2.34022 0.00305901 0)
(2.34442 0.00480163 0)
(2.35241 0.0058559 0)
(2.36292 0.00451225 0)
(2.36965 0.00475375 0)
(2.37178 0.00664137 0)
(2.37409 0.00920704 0)
(2.37575 0.0122991 0)
(2.37361 0.0176389 0)
(2.3657 0.0266695 0)
(2.36007 0.0324406 0)
(2.36058 0.032507 0)
(2.36234 0.0307509 0)
(2.3649 0.0292559 0)
(2.36787 0.0278608 0)
(2.37302 0.0260091 0)
(2.37847 0.0268259 0)
(2.38285 0.0308562 0)
(2.38612 0.0368193 0)
(2.38743 0.0441104 0)
(2.38818 0.0539778 0)
(2.38778 0.0644548 0)
(2.38661 0.0701069 0)
(2.38871 0.0702056 0)
(2.39121 0.0691099 0)
(2.3934 0.0672017 0)
(2.39526 0.0646282 0)
(2.39675 0.0619517 0)
(2.39754 0.0595524 0)
(2.39704 0.059124 0)
(2.396 0.0634081 0)
(2.39508 0.0720224 0)
(2.39505 0.0817338 0)
(2.39664 0.0882966 0)
(2.40069 0.0944221 0)
(2.40628 0.0971886 0)
(2.41188 0.0961782 0)
(2.41598 0.0941445 0)
(2.4184 0.093102 0)
(2.42134 0.0919996 0)
(2.42061 0.0914113 0)
(2.41093 0.0929969 0)
(2.39958 0.0978358 0)
(2.40176 0.100994 0)
(2.32087 -0.826321 0)
(2.32716 -0.823457 0)
(2.33231 -0.822313 0)
(2.33016 -0.808717 0)
(2.32592 -0.780921 0)
(2.30388 -0.719465 0)
(2.26257 -0.613891 0)
(2.22628 -0.49196 0)
(2.19312 -0.373038 0)
(2.15581 -0.259153 0)
(2.15651 -0.235878 0)
(2.17134 -0.214868 0)
(2.17029 -0.196193 0)
(2.16386 -0.195107 0)
(2.16212 -0.196709 0)
(2.16721 -0.196906 0)
(2.17325 -0.193059 0)
(2.17816 -0.193898 0)
(2.18214 -0.193182 0)
(2.187 -0.19032 0)
(2.19264 -0.188702 0)
(2.19874 -0.185566 0)
(2.20508 -0.180763 0)
(2.21061 -0.176289 0)
(2.21398 -0.171383 0)
(2.2143 -0.169166 0)
(2.21366 -0.170304 0)
(2.21479 -0.171252 0)
(2.21851 -0.171459 0)
(2.22311 -0.171402 0)
(2.2286 -0.170333 0)
(2.23504 -0.16833 0)
(2.24246 -0.165065 0)
(2.24983 -0.161913 0)
(2.25506 -0.159103 0)
(2.25923 -0.156132 0)
(2.26295 -0.153297 0)
(2.26434 -0.14999 0)
(2.26168 -0.144915 0)
(2.25828 -0.137837 0)
(2.25676 -0.129893 0)
(2.25733 -0.122224 0)
(2.26007 -0.116014 0)
(2.26471 -0.111683 0)
(2.27066 -0.108585 0)
(2.27615 -0.107904 0)
(2.28094 -0.109813 0)
(2.28541 -0.113751 0)
(2.29082 -0.118972 0)
(2.29556 -0.122512 0)
(2.29897 -0.122579 0)
(2.30152 -0.119293 0)
(2.30257 -0.110522 0)
(2.30289 -0.0981349 0)
(2.30177 -0.0860632 0)
(2.30036 -0.0780116 0)
(2.30138 -0.0754455 0)
(2.30444 -0.0755267 0)
(2.30743 -0.0767252 0)
(2.31009 -0.0782772 0)
(2.31204 -0.0795823 0)
(2.31351 -0.079774 0)
(2.31578 -0.0784299 0)
(2.31847 -0.0757976 0)
(2.32291 -0.0716155 0)
(2.3299 -0.0649524 0)
(2.33663 -0.0586293 0)
(2.34003 -0.0546245 0)
(2.34292 -0.0512209 0)
(2.34422 -0.0469941 0)
(2.34087 -0.0400873 0)
(2.33322 -0.0311728 0)
(2.32965 -0.0263 0)
(2.33117 -0.0250169 0)
(2.33349 -0.0247351 0)
(2.33639 -0.0241669 0)
(2.34301 -0.023877 0)
(2.35146 -0.0257009 0)
(2.35687 -0.0279381 0)
(2.35912 -0.0282693 0)
(2.36158 -0.027349 0)
(2.36179 -0.0248695 0)
(2.35811 -0.0184646 0)
(2.35204 -0.00696112 0)
(2.34831 0.00394213 0)
(2.34902 0.00976584 0)
(2.35133 0.0128184 0)
(2.35669 0.0157969 0)
(2.36448 0.0167467 0)
(2.37228 0.0157927 0)
(2.37678 0.0141009 0)
(2.37917 0.0133844 0)
(2.3825 0.0127709 0)
(2.38339 0.0137431 0)
(2.37934 0.0177266 0)
(2.37079 0.0257144 0)
(2.36599 0.0314538 0)
(2.36661 0.0333223 0)
(2.36867 0.0336169 0)
(2.37098 0.0338117 0)
(2.37733 0.0349489 0)
(2.38776 0.0379012 0)
(2.395 0.0436561 0)
(2.39872 0.0490879 0)
(2.40094 0.053348 0)
(2.40338 0.0563761 0)
(2.4039 0.060358 0)
(2.39961 0.0666355 0)
(2.39644 0.0705738 0)
(2.39763 0.0707791 0)
(2.39968 0.0690579 0)
(2.40144 0.0668428 0)
(2.40251 0.0653269 0)
(2.40401 0.0650174 0)
(2.40662 0.0657786 0)
(2.40875 0.0683901 0)
(2.4097 0.0743217 0)
(2.41006 0.0842426 0)
(2.41125 0.0949178 0)
(2.41406 0.101046 0)
(2.41711 0.102734 0)
(2.41929 0.102296 0)
(2.42218 0.0992812 0)
(2.42447 0.095169 0)
(2.42609 0.092173 0)
(2.42541 0.090077 0)
(2.41945 0.0899411 0)
(2.40896 0.0942633 0)
(2.40772 0.101095 0)
(2.32623 -0.810296 0)
(2.33386 -0.810919 0)
(2.33997 -0.814051 0)
(2.34607 -0.813943 0)
(2.34892 -0.812299 0)
(2.34642 -0.802522 0)
(2.34465 -0.788662 0)
(2.33577 -0.748297 0)
(2.31086 -0.671196 0)
(2.27007 -0.549182 0)
(2.24169 -0.421224 0)
(2.22571 -0.321217 0)
(2.19581 -0.221675 0)
(2.18962 -0.214553 0)
(2.1904 -0.204557 0)
(2.18845 -0.200306 0)
(2.18334 -0.195253 0)
(2.18597 -0.191622 0)
(2.19346 -0.183887 0)
(2.20174 -0.181198 0)
(2.20693 -0.183891 0)
(2.2104 -0.187395 0)
(2.21541 -0.187559 0)
(2.2231 -0.185038 0)
(2.22933 -0.178944 0)
(2.23 -0.172607 0)
(2.2254 -0.167911 0)
(2.22279 -0.16525 0)
(2.22483 -0.163696 0)
(2.22936 -0.162024 0)
(2.23488 -0.158783 0)
(2.24297 -0.153972 0)
(2.25175 -0.150818 0)
(2.2578 -0.151385 0)
(2.26339 -0.152603 0)
(2.26746 -0.153434 0)
(2.27209 -0.153634 0)
(2.27572 -0.153473 0)
(2.27652 -0.152504 0)
(2.27495 -0.148959 0)
(2.27487 -0.142215 0)
(2.2759 -0.133565 0)
(2.27725 -0.123063 0)
(2.27885 -0.112009 0)
(2.28212 -0.104986 0)
(2.28613 -0.102732 0)
(2.28903 -0.103085 0)
(2.29161 -0.105447 0)
(2.2952 -0.108918 0)
(2.29993 -0.113356 0)
(2.30692 -0.116617 0)
(2.31433 -0.114151 0)
(2.31827 -0.1088 0)
(2.31974 -0.103336 0)
(2.32079 -0.0962466 0)
(2.31861 -0.0868678 0)
(2.31409 -0.0782562 0)
(2.31345 -0.0753422 0)
(2.31521 -0.0752155 0)
(2.31714 -0.0754079 0)
(2.31959 -0.0749402 0)
(2.32182 -0.0739335 0)
(2.32384 -0.0720049 0)
(2.32779 -0.0689175 0)
(2.33412 -0.0640243 0)
(2.34089 -0.0586199 0)
(2.34462 -0.0550499 0)
(2.3468 -0.0533525 0)
(2.34939 -0.0517453 0)
(2.35096 -0.0494247 0)
(2.35002 -0.045995 0)
(2.34488 -0.0396933 0)
(2.33865 -0.0301291 0)
(2.33678 -0.0230728 0)
(2.3384 -0.02018 0)
(2.34074 -0.0188588 0)
(2.34608 -0.0172663 0)
(2.35263 -0.0165144 0)
(2.35801 -0.0168043 0)
(2.36229 -0.0179132 0)
(2.36507 -0.0188364 0)
(2.36709 -0.0188561 0)
(2.36833 -0.0175396 0)
(2.36669 -0.0124307 0)
(2.36385 -0.00256136 0)
(2.3617 0.00915947 0)
(2.36274 0.0175581 0)
(2.36573 0.0216725 0)
(2.37052 0.0243429 0)
(2.37535 0.0241921 0)
(2.37945 0.0217678 0)
(2.38211 0.0187083 0)
(2.38416 0.0162279 0)
(2.38642 0.0147692 0)
(2.3876 0.0153112 0)
(2.38428 0.0197769 0)
(2.37708 0.0292789 0)
(2.37364 0.0380688 0)
(2.37465 0.0425753 0)
(2.37695 0.0454371 0)
(2.38313 0.0504659 0)
(2.39232 0.055547 0)
(2.39995 0.0570258 0)
(2.40348 0.0570425 0)
(2.40639 0.0568579 0)
(2.40994 0.0568632 0)
(2.41161 0.0579514 0)
(2.4093 0.0611439 0)
(2.40394 0.0671266 0)
(2.4015 0.0706045 0)
(2.40248 0.071017 0)
(2.40475 0.0704326 0)
(2.40696 0.070246 0)
(2.40974 0.0711292 0)
(2.4147 0.074499 0)
(2.41885 0.0800127 0)
(2.42185 0.0855993 0)
(2.42371 0.0904941 0)
(2.42546 0.096106 0)
(2.42483 0.102102 0)
(2.42359 0.105487 0)
(2.42511 0.105357 0)
(2.42765 0.103324 0)
(2.42949 0.0999367 0)
(2.43008 0.0957239 0)
(2.42917 0.0915946 0)
(2.42625 0.0888905 0)
(2.42074 0.0900405 0)
(2.41862 0.10037 0)
(2.33187 -0.794729 0)
(2.33878 -0.795707 0)
(2.34478 -0.796038 0)
(2.34971 -0.799719 0)
(2.35277 -0.80365 0)
(2.35684 -0.801285 0)
(2.36301 -0.80043 0)
(2.36786 -0.795063 0)
(2.36961 -0.785587 0)
(2.36837 -0.761457 0)
(2.35376 -0.704209 0)
(2.32407 -0.609387 0)
(2.28764 -0.486812 0)
(2.27017 -0.390395 0)
(2.24159 -0.295955 0)
(2.20986 -0.217104 0)
(2.20658 -0.215334 0)
(2.20986 -0.200735 0)
(2.21061 -0.180209 0)
(2.212 -0.174608 0)
(2.21559 -0.176117 0)
(2.22014 -0.176455 0)
(2.22718 -0.17722 0)
(2.23393 -0.17882 0)
(2.24048 -0.179357 0)
(2.24297 -0.178615 0)
(2.24166 -0.175088 0)
(2.23843 -0.169545 0)
(2.23848 -0.163195 0)
(2.24166 -0.1565 0)
(2.24625 -0.14925 0)
(2.25187 -0.142138 0)
(2.25751 -0.138074 0)
(2.26235 -0.137093 0)
(2.26711 -0.138722 0)
(2.27311 -0.143569 0)
(2.27767 -0.14959 0)
(2.28162 -0.153363 0)
(2.28602 -0.1541 0)
(2.28891 -0.152072 0)
(2.29111 -0.148457 0)
(2.29365 -0.143388 0)
(2.29669 -0.135665 0)
(2.29802 -0.123711 0)
(2.2951 -0.109826 0)
(2.29276 -0.10261 0)
(2.29449 -0.101816 0)
(2.29729 -0.102696 0)
(2.29968 -0.103409 0)
(2.30279 -0.103652 0)
(2.30918 -0.103742 0)
(2.31998 -0.104485 0)
(2.32934 -0.103458 0)
(2.33222 -0.10149 0)
(2.33468 -0.0988574 0)
(2.33517 -0.0951036 0)
(2.33039 -0.0881182 0)
(2.32266 -0.079455 0)
(2.32041 -0.0750609 0)
(2.32186 -0.0728806 0)
(2.32412 -0.0707825 0)
(2.32703 -0.0682958 0)
(2.3311 -0.0656043 0)
(2.33791 -0.0614452 0)
(2.34488 -0.0541456 0)
(2.34767 -0.0496216 0)
(2.34908 -0.0483868 0)
(2.35111 -0.0473963 0)
(2.35315 -0.0473047 0)
(2.35497 -0.0472936 0)
(2.35576 -0.046491 0)
(2.35466 -0.0437916 0)
(2.35217 -0.0383906 0)
(2.34975 -0.0292931 0)
(2.34864 -0.0194913 0)
(2.34996 -0.0131122 0)
(2.35273 -0.0102613 0)
(2.35741 -0.00820128 0)
(2.36155 -0.00780821 0)
(2.3646 -0.00858569 0)
(2.36791 -0.00997875 0)
(2.3721 -0.0113379 0)
(2.37601 -0.0116946 0)
(2.3782 -0.0112883 0)
(2.37948 -0.00698683 0)
(2.37967 0.00227447 0)
(2.37883 0.0138555 0)
(2.37782 0.0240002 0)
(2.37877 0.0287156 0)
(2.38095 0.029466 0)
(2.38344 0.0283216 0)
(2.3861 0.0257059 0)
(2.38881 0.0221555 0)
(2.39103 0.0184942 0)
(2.39284 0.015835 0)
(2.39374 0.0148482 0)
(2.39224 0.0197686 0)
(2.38984 0.0312432 0)
(2.38974 0.0438869 0)
(2.39244 0.053095 0)
(2.39727 0.0613618 0)
(2.40171 0.0657805 0)
(2.40443 0.0652131 0)
(2.40718 0.0634388 0)
(2.4099 0.0610466 0)
(2.41215 0.0590772 0)
(2.41439 0.0578024 0)
(2.41527 0.0584605 0)
(2.41326 0.0625074 0)
(2.40863 0.0701011 0)
(2.40613 0.0765174 0)
(2.40716 0.0795558 0)
(2.4086 0.0806713 0)
(2.4129 0.0824701 0)
(2.41934 0.0859141 0)
(2.4246 0.0885506 0)
(2.42759 0.0904522 0)
(2.43097 0.092563 0)
(2.4334 0.0951854 0)
(2.43353 0.0985931 0)
(2.43111 0.102591 0)
(2.42984 0.104322 0)
(2.43025 0.103174 0)
(2.43132 0.100496 0)
(2.43191 0.0974609 0)
(2.43185 0.0943506 0)
(2.43128 0.0923159 0)
(2.43032 0.0916333 0)
(2.43095 0.101123 0)
(2.33798 -0.780965 0)
(2.34402 -0.781268 0)
(2.34894 -0.782864 0)
(2.35194 -0.784757 0)
(2.35578 -0.784645 0)
(2.36227 -0.785827 0)
(2.3697 -0.786697 0)
(2.37621 -0.787637 0)
(2.38464 -0.786497 0)
(2.39001 -0.782117 0)
(2.39171 -0.777569 0)
(2.39143 -0.761969 0)
(2.38532 -0.732339 0)
(2.36743 -0.67148 0)
(2.33527 -0.57661 0)
(2.29827 -0.459823 0)
(2.28682 -0.376308 0)
(2.25145 -0.273046 0)
(2.23113 -0.193678 0)
(2.2345 -0.190693 0)
(2.23901 -0.173141 0)
(2.23846 -0.166893 0)
(2.23745 -0.170027 0)
(2.23968 -0.171448 0)
(2.2437 -0.170599 0)
(2.24942 -0.171286 0)
(2.25383 -0.174511 0)
(2.25553 -0.174616 0)
(2.25857 -0.17046 0)
(2.2623 -0.163318 0)
(2.26492 -0.154208 0)
(2.26652 -0.143415 0)
(2.26805 -0.132874 0)
(2.27097 -0.128352 0)
(2.2751 -0.128884 0)
(2.27821 -0.1338 0)
(2.28192 -0.140819 0)
(2.28719 -0.145618 0)
(2.29391 -0.148095 0)
(2.30034 -0.147727 0)
(2.30511 -0.145121 0)
(2.30802 -0.142482 0)
(2.31077 -0.139432 0)
(2.31288 -0.13343 0)
(2.31112 -0.122022 0)
(2.3037 -0.108096 0)
(2.29948 -0.100374 0)
(2.30083 -0.0980266 0)
(2.30327 -0.097115 0)
(2.30603 -0.0959941 0)
(2.31256 -0.0939821 0)
(2.32217 -0.0921788 0)
(2.33199 -0.0927747 0)
(2.33811 -0.0946077 0)
(2.34078 -0.0951378 0)
(2.34334 -0.0951696 0)
(2.34211 -0.0932559 0)
(2.33543 -0.0871945 0)
(2.32912 -0.0778194 0)
(2.32938 -0.071547 0)
(2.3322 -0.0678659 0)
(2.33548 -0.0645621 0)
(2.34111 -0.0594198 0)
(2.34796 -0.0507084 0)
(2.3526 -0.0449024 0)
(2.35497 -0.0436477 0)
(2.3573 -0.0421727 0)
(2.3585 -0.0411802 0)
(2.35921 -0.0414593 0)
(2.3601 -0.0426974 0)
(2.36127 -0.0435414 0)
(2.36364 -0.0435096 0)
(2.36571 -0.0412996 0)
(2.36694 -0.0353187 0)
(2.36726 -0.0257605 0)
(2.36636 -0.0149732 0)
(2.36558 -0.00636823 0)
(2.3673 -0.00308003 0)
(2.36985 -0.00263215 0)
(2.37263 -0.00280307 0)
(2.37586 -0.00313804 0)
(2.37973 -0.00378033 0)
(2.38548 -0.00491884 0)
(2.39053 -0.00412823 0)
(2.39327 -0.00142579 0)
(2.39539 0.00323814 0)
(2.39645 0.0104921 0)
(2.39492 0.0204177 0)
(2.3905 0.0295877 0)
(2.38863 0.0330042 0)
(2.39015 0.0319304 0)
(2.39246 0.0297199 0)
(2.39501 0.0270653 0)
(2.3978 0.024362 0)
(2.4007 0.0224823 0)
(2.40471 0.0232143 0)
(2.40838 0.0274509 0)
(2.41034 0.0359274 0)
(2.41063 0.0487641 0)
(2.40962 0.0620265 0)
(2.40783 0.0700726 0)
(2.40889 0.0718588 0)
(2.41114 0.0713291 0)
(2.41338 0.0692585 0)
(2.41555 0.0665202 0)
(2.41777 0.0633255 0)
(2.41985 0.0602796 0)
(2.42146 0.0581413 0)
(2.42237 0.058525 0)
(2.42161 0.0637728 0)
(2.41885 0.0740159 0)
(2.41708 0.0846991 0)
(2.41818 0.0906503 0)
(2.4202 0.0940211 0)
(2.42288 0.0946226 0)
(2.42671 0.0944636 0)
(2.43026 0.0944716 0)
(2.43314 0.0948069 0)
(2.43696 0.0953614 0)
(2.43965 0.0966725 0)
(2.43875 0.0997914 0)
(2.43524 0.103671 0)
(2.43288 0.104797 0)
(2.43253 0.103343 0)
(2.43293 0.101593 0)
(2.43368 0.100876 0)
(2.43515 0.101387 0)
(2.4379 0.102366 0)
(2.44035 0.11108 0)
(2.34359 -0.767777 0)
(2.3486 -0.767808 0)
(2.35198 -0.768017 0)
(2.35425 -0.768942 0)
(2.36007 -0.769979 0)
(2.36736 -0.770463 0)
(2.37464 -0.771022 0)
(2.38233 -0.770573 0)
(2.38983 -0.771143 0)
(2.39675 -0.772145 0)
(2.40209 -0.772399 0)
(2.40275 -0.769463 0)
(2.40507 -0.765403 0)
(2.40613 -0.760812 0)
(2.40757 -0.746846 0)
(2.40085 -0.711818 0)
(2.38119 -0.63879 0)
(2.34828 -0.5366 0)
(2.31875 -0.419113 0)
(2.31856 -0.340212 0)
(2.28093 -0.23772 0)
(2.2595 -0.168495 0)
(2.24976 -0.163889 0)
(2.25154 -0.159183 0)
(2.25251 -0.16076 0)
(2.2537 -0.167469 0)
(2.26012 -0.166818 0)
(2.26956 -0.161761 0)
(2.27703 -0.158298 0)
(2.28027 -0.157597 0)
(2.28272 -0.156891 0)
(2.28375 -0.153301 0)
(2.28416 -0.143351 0)
(2.28091 -0.133502 0)
(2.27964 -0.131841 0)
(2.2827 -0.134852 0)
(2.28686 -0.137972 0)
(2.29122 -0.139489 0)
(2.29797 -0.13894 0)
(2.3077 -0.136444 0)
(2.31607 -0.135823 0)
(2.32029 -0.136299 0)
(2.32198 -0.136182 0)
(2.32371 -0.134675 0)
(2.32314 -0.129584 0)
(2.31812 -0.118818 0)
(2.31191 -0.105456 0)
(2.31045 -0.0956958 0)
(2.31257 -0.0905795 0)
(2.3151 -0.0881439 0)
(2.32012 -0.0857999 0)
(2.32783 -0.0837803 0)
(2.33486 -0.0838254 0)
(2.34012 -0.0853307 0)
(2.3425 -0.0871101 0)
(2.34497 -0.0889449 0)
(2.34724 -0.0905969 0)
(2.34668 -0.0901104 0)
(2.34284 -0.0852566 0)
(2.34183 -0.0773794 0)
(2.3447 -0.0701623 0)
(2.34854 -0.0625865 0)
(2.35504 -0.0524975 0)
(2.36122 -0.0448924 0)
(2.364 -0.0432442 0)
(2.36689 -0.0419267 0)
(2.36877 -0.0404776 0)
(2.36891 -0.0393092 0)
(2.368 -0.0389001 0)
(2.36876 -0.0388265 0)
(2.37093 -0.0384717 0)
(2.37299 -0.0375867 0)
(2.37833 -0.0344003 0)
(2.38374 -0.0279918 0)
(2.38541 -0.0225614 0)
(2.38577 -0.0162421 0)
(2.38382 -0.00825946 0)
(2.3792 -0.00155471 0)
(2.37803 0.000787796 0)
(2.38002 0.00104332 0)
(2.38265 0.00106863 0)
(2.38567 0.00110271 0)
(2.3898 0.00119273 0)
(2.3978 0.00231163 0)
(2.40517 0.00552244 0)
(2.408 0.00888134 0)
(2.41024 0.0127238 0)
(2.41072 0.018198 0)
(2.40601 0.0263083 0)
(2.39857 0.0332557 0)
(2.39637 0.0348092 0)
(2.39825 0.0335637 0)
(2.40058 0.0321322 0)
(2.40299 0.0305808 0)
(2.40805 0.029687 0)
(2.41678 0.0321141 0)
(2.42465 0.0392161 0)
(2.42887 0.0469726 0)
(2.42991 0.0525822 0)
(2.42952 0.0595107 0)
(2.4247 0.0682934 0)
(2.41894 0.0736883 0)
(2.41785 0.0734227 0)
(2.41911 0.071118 0)
(2.4208 0.0684144 0)
(2.42304 0.0659338 0)
(2.42595 0.0642647 0)
(2.43042 0.0646953 0)
(2.43402 0.0671104 0)
(2.43536 0.0700235 0)
(2.43592 0.0769219 0)
(2.43348 0.0875982 0)
(2.42902 0.0978106 0)
(2.42938 0.101484 0)
(2.43156 0.101605 0)
(2.43338 0.10094 0)
(2.43577 0.0991203 0)
(2.43838 0.0973028 0)
(2.44164 0.0971662 0)
(2.4448 0.0975183 0)
(2.44622 0.0991228 0)
(2.44415 0.103207 0)
(2.43919 0.107835 0)
(2.43618 0.109428 0)
(2.43664 0.109138 0)
(2.43801 0.10901 0)
(2.44021 0.110079 0)
(2.44517 0.115143 0)
(2.45016 0.123271 0)
(2.34941 -0.755599 0)
(2.35254 -0.756386 0)
(2.35541 -0.757689 0)
(2.36003 -0.757344 0)
(2.36539 -0.755883 0)
(2.37218 -0.754819 0)
(2.3799 -0.755197 0)
(2.38751 -0.755903 0)
(2.39493 -0.757003 0)
(2.40223 -0.757829 0)
(2.40798 -0.757738 0)
(2.40936 -0.758768 0)
(2.40852 -0.759095 0)
(2.41465 -0.754928 0)
(2.42037 -0.755077 0)
(2.42513 -0.751541 0)
(2.42999 -0.744961 0)
(2.4315 -0.723881 0)
(2.423 -0.680185 0)
(2.40165 -0.595938 0)
(2.36705 -0.487284 0)
(2.34673 -0.396254 0)
(2.33203 -0.322326 0)
(2.28191 -0.214158 0)
(2.26847 -0.169666 0)
(2.26949 -0.175702 0)
(2.27613 -0.159766 0)
(2.28464 -0.154373 0)
(2.28833 -0.150801 0)
(2.28948 -0.150554 0)
(2.29185 -0.150633 0)
(2.29593 -0.150533 0)
(2.29976 -0.146577 0)
(2.29629 -0.140317 0)
(2.28918 -0.135615 0)
(2.28867 -0.133735 0)
(2.29216 -0.133446 0)
(2.29537 -0.133554 0)
(2.30122 -0.131735 0)
(2.31301 -0.126265 0)
(2.32371 -0.123409 0)
(2.32876 -0.124881 0)
(2.33104 -0.127016 0)
(2.33197 -0.127719 0)
(2.33278 -0.126733 0)
(2.33103 -0.12196 0)
(2.32764 -0.113192 0)
(2.32737 -0.103071 0)
(2.32894 -0.0937898 0)
(2.33088 -0.0862531 0)
(2.33355 -0.0815922 0)
(2.33745 -0.0788136 0)
(2.34138 -0.0785771 0)
(2.34431 -0.0794846 0)
(2.34772 -0.0801543 0)
(2.35078 -0.0820985 0)
(2.35301 -0.0846872 0)
(2.35518 -0.0863442 0)
(2.35618 -0.084948 0)
(2.35733 -0.0779644 0)
(2.36043 -0.0679558 0)
(2.3653 -0.0556814 0)
(2.3682 -0.0466701 0)
(2.37099 -0.0435965 0)
(2.37354 -0.0425007 0)
(2.37628 -0.0418365 0)
(2.37742 -0.0411557 0)
(2.37608 -0.0400686 0)
(2.37438 -0.0381182 0)
(2.37548 -0.0358432 0)
(2.37797 -0.0339796 0)
(2.38159 -0.0313001 0)
(2.38934 -0.0263949 0)
(2.39747 -0.0197304 0)
(2.40089 -0.0153699 0)
(2.40241 -0.0125458 0)
(2.40164 -0.0085785 0)
(2.39469 -0.00271435 0)
(2.38668 0.00265194 0)
(2.38528 0.00458903 0)
(2.38707 0.00536189 0)
(2.38927 0.00625419 0)
(2.39287 0.00782952 0)
(2.40114 0.0101335 0)
(2.41033 0.0129723 0)
(2.41374 0.0147506 0)
(2.41752 0.0169799 0)
(2.42027 0.0199069 0)
(2.41873 0.0243076 0)
(2.4096 0.0315897 0)
(2.40166 0.0370128 0)
(2.40153 0.0384244 0)
(2.40352 0.0385665 0)
(2.40564 0.0387362 0)
(2.41271 0.0396908 0)
(2.42529 0.0439081 0)
(2.43534 0.0494776 0)
(2.43823 0.0525892 0)
(2.44103 0.0555082 0)
(2.44263 0.0590062 0)
(2.43997 0.0638946 0)
(2.43089 0.0705006 0)
(2.42444 0.0733501 0)
(2.42358 0.07254 0)
(2.42461 0.0714957 0)
(2.42589 0.0710526 0)
(2.42985 0.0707944 0)
(2.43723 0.0720203 0)
(2.44333 0.0755993 0)
(2.44526 0.0787365 0)
(2.44769 0.0829088 0)
(2.44833 0.0881701 0)
(2.44401 0.0952007 0)
(2.43856 0.102447 0)
(2.43875 0.105072 0)
(2.44091 0.105095 0)
(2.44312 0.104577 0)
(2.44644 0.102965 0)
(2.44907 0.101124 0)
(2.45102 0.100903 0)
(2.45339 0.100585 0)
(2.45413 0.101105 0)
(2.45147 0.105205 0)
(2.44645 0.11262 0)
(2.4446 0.118535 0)
(2.44517 0.120928 0)
(2.44681 0.123944 0)
(2.45046 0.127001 0)
(2.45474 0.130403 0)
(2.35496 -0.743548 0)
(2.35619 -0.743378 0)
(2.35935 -0.74243 0)
(2.36425 -0.741481 0)
(2.37055 -0.741244 0)
(2.3781 -0.741908 0)
(2.38563 -0.742257 0)
(2.39328 -0.742608 0)
(2.40076 -0.743586 0)
(2.40786 -0.74527 0)
(2.41312 -0.746397 0)
(2.41434 -0.74502 0)
(2.41259 -0.741916 0)
(2.41793 -0.742371 0)
(2.42582 -0.742723 0)
(2.43273 -0.741816 0)
(2.44178 -0.740754 0)
(2.44785 -0.73856 0)
(2.45371 -0.735807 0)
(2.45432 -0.72627 0)
(2.45084 -0.703705 0)
(2.43679 -0.6522 0)
(2.40895 -0.570203 0)
(2.37129 -0.468552 0)
(2.34797 -0.372335 0)
(2.33384 -0.294808 0)
(2.29926 -0.187701 0)
(2.29252 -0.149289 0)
(2.29811 -0.152217 0)
(2.30867 -0.145588 0)
(2.30742 -0.147035 0)
(2.30588 -0.150034 0)
(2.30665 -0.146879 0)
(2.30513 -0.138519 0)
(2.30218 -0.139025 0)
(2.30028 -0.137093 0)
(2.30275 -0.130841 0)
(2.3064 -0.12778 0)
(2.31004 -0.12555 0)
(2.31812 -0.121336 0)
(2.32799 -0.117561 0)
(2.33511 -0.117015 0)
(2.33814 -0.118748 0)
(2.33918 -0.119523 0)
(2.34118 -0.120261 0)
(2.34251 -0.118704 0)
(2.3428 -0.111288 0)
(2.34481 -0.100764 0)
(2.34688 -0.0903965 0)
(2.3479 -0.0815426 0)
(2.34822 -0.07648 0)
(2.34899 -0.0741516 0)
(2.35097 -0.073556 0)
(2.35363 -0.0747557 0)
(2.35553 -0.0771038 0)
(2.35825 -0.0786902 0)
(2.36126 -0.0793577 0)
(2.36361 -0.0796098 0)
(2.36786 -0.0782239 0)
(2.3728 -0.071902 0)
(2.37724 -0.061715 0)
(2.3792 -0.0519537 0)
(2.3803 -0.0435424 0)
(2.38 -0.0389502 0)
(2.3802 -0.0388735 0)
(2.38116 -0.0402755 0)
(2.38139 -0.0412718 0)
(2.38038 -0.0399251 0)
(2.38008 -0.0361432 0)
(2.38167 -0.0319295 0)
(2.38478 -0.0287654 0)
(2.38974 -0.0249885 0)
(2.39803 -0.0183398 0)
(2.40523 -0.0121408 0)
(2.40786 -0.00974239 0)
(2.41093 -0.0079441 0)
(2.41213 -0.00556607 0)
(2.40763 -0.00166388 0)
(2.3975 0.00398387 0)
(2.39253 0.00863088 0)
(2.39302 0.010908 0)
(2.39444 0.0124339 0)
(2.39755 0.0147252 0)
(2.4045 0.0178574 0)
(2.41312 0.0200612 0)
(2.41644 0.0208732 0)
(2.41991 0.0212016 0)
(2.42354 0.0215522 0)
(2.42516 0.0233397 0)
(2.41971 0.0287392 0)
(2.40907 0.0381365 0)
(2.40572 0.0443321 0)
(2.40721 0.0466983 0)
(2.40943 0.0487265 0)
(2.41617 0.051869 0)
(2.42881 0.054507 0)
(2.43847 0.056089 0)
(2.44121 0.0567868 0)
(2.44432 0.0572623 0)
(2.44773 0.0579305 0)
(2.44831 0.0602841 0)
(2.44211 0.065629 0)
(2.43191 0.0730884 0)
(2.42824 0.0768652 0)
(2.42886 0.0779486 0)
(2.42975 0.0784936 0)
(2.43305 0.0798106 0)
(2.44016 0.0819737 0)
(2.44688 0.0843282 0)
(2.44923 0.0853526 0)
(2.45232 0.0862177 0)
(2.45547 0.087869 0)
(2.4543 0.0921533 0)
(2.44795 0.0992399 0)
(2.44421 0.104822 0)
(2.44567 0.106256 0)
(2.44781 0.105983 0)
(2.45044 0.10518 0)
(2.45529 0.1044 0)
(2.46043 0.106274 0)
(2.46271 0.10884 0)
(2.46362 0.111017 0)
(2.46389 0.114246 0)
(2.46127 0.119355 0)
(2.45569 0.126232 0)
(2.45481 0.130311 0)
(2.45621 0.131378 0)
(2.45799 0.132365 0)
(2.46174 0.133434 0)
(2.36055 -0.733801 0)
(2.3623 -0.732426 0)
(2.36558 -0.730229 0)
(2.36985 -0.727849 0)
(2.3761 -0.726297 0)
(2.38354 -0.726715 0)
(2.39092 -0.728048 0)
(2.39839 -0.7298 0)
(2.40565 -0.731939 0)
(2.41281 -0.733887 0)
(2.41848 -0.735195 0)
(2.42057 -0.735124 0)
(2.42063 -0.732681 0)
(2.4241 -0.728985 0)
(2.4303 -0.72602 0)
(2.43783 -0.724129 0)
(2.44521 -0.723496 0)
(2.45232 -0.723761 0)
(2.45924 -0.725184 0)
(2.46482 -0.726225 0)
(2.46891 -0.726146 0)
(2.46797 -0.722727 0)
(2.46336 -0.705483 0)
(2.45969 -0.682391 0)
(2.44514 -0.628358 0)
(2.41914 -0.543855 0)
(2.38481 -0.432942 0)
(2.36273 -0.33334 0)
(2.36361 -0.269941 0)
(2.33222 -0.177307 0)
(2.32183 -0.145775 0)
(2.31546 -0.146163 0)
(2.31667 -0.144425 0)
(2.3142 -0.143612 0)
(2.31219 -0.136159 0)
(2.31189 -0.13232 0)
(2.31798 -0.125221 0)
(2.32202 -0.123279 0)
(2.32524 -0.120927 0)
(2.32941 -0.116695 0)