/*--------------------------------*- C++ -*----------------------------------*\
  =========                 |
  \\      /  F ield         | OpenFOAM: The Open Source CFD Toolbox
   \\    /   O peration     | Website:  https://openfoam.org
    \\  /    A nd           | Version:  7
     \\/     M anipulation  |
\*---------------------------------------------------------------------------*/
FoamFile
{
    version     2.0;
    format      ascii;
    class       volScalarField;
    location    "2.5";
    object      T;
}
// * * * * * * * * * * * * * * * * * * * * * * * * * * * * * * * * * * * * * //

dimensions      [0 0 0 1 0 0 0];

internalField   nonuniform List<scalar> 
4128
(
1
1
1
1
1
1
1
1
1
1
1.00007
1.00646
1.1552
1.54834
1.70182
1.75152
1.76163
1.75409
1.74658
1.74271
1.73857
1.73544
1.73083
1.72017
1.71273
1.70912
1.7013
1.69549
1.69287
1.689
1.684
1.67749
1.6708
1.66488
1.65823
1.65128
1.64501
1.64016
1.63851
1.63593
1.63106
1.62727
1.61895
1.60839
1.60243
1.59477
1.58957
1.58991
1.58744
1.58405
1.58048
1.57388
1.56867
1.56143
1.55416
1.54938
1.54154
1.53909
1.53747
1.53376
1.53052
1.52474
1.52033
1.51528
1.50886
1.50393
1.49681
1.49317
1.49038
1.4873
1.48323
1.47802
1.47577
1.47198
1.46728
1.4618
1.458
1.45453
1.45062
1.44363
1.43693
1.43579
1.43879
1.50383
1
1
1
1
1
1
1
1
1
1
1
1
1
1
1
1.00008
1.00903
1.18199
1.50243
1.68939
1.75586
1.75781
1.7525
1.7442
1.74055
1.73841
1.7313
1.72025
1.71279
1.70594
1.69934
1.69598
1.69323
1.69016
1.68559
1.67753
1.66893
1.66312
1.65653
1.64932
1.64357
1.64194
1.64118
1.63688
1.63384
1.62761
1.61598
1.60768
1.6011
1.59268
1.59254
1.59191
1.58904
1.58651
1.58094
1.57526
1.56849
1.5599
1.55462
1.54836
1.54189
1.54177
1.5394
1.536
1.53139
1.52545
1.52106
1.51476
1.50947
1.5044
1.4981
1.49582
1.49266
1.48925
1.48355
1.47944
1.4769
1.47248
1.46804
1.463
1.45981
1.45612
1.45189
1.44532
1.44097
1.43781
1.43452
1.44025
1
1
1
1
1
1
1
1
1
1
1
1
1
1
1
1
1.00012
1.01187
1.15753
1.45084
1.70451
1.75712
1.75251
1.7473
1.74432
1.73728
1.72616
1.71669
1.71087
1.70589
1.70208
1.69863
1.69488
1.69091
1.68515
1.67521
1.66813
1.66287
1.65567
1.64877
1.64592
1.64536
1.6417
1.63859
1.63519
1.62475
1.61327
1.60728
1.59852
1.59505
1.59566
1.59403
1.5917
1.58724
1.58176
1.57543
1.56676
1.56008
1.55542
1.54665
1.54543
1.54469
1.54134
1.53758
1.53117
1.52585
1.52055
1.51424
1.51072
1.50501
1.50133
1.49889
1.49508
1.4904
1.48354
1.48047
1.4771
1.4728
1.4688
1.46453
1.46185
1.45818
1.45348
1.44708
1.4439
1.4405
1.43362
1.43289
1
1
1
1
1
1
1
1
1
1
1
1
1
1
1
1
1
1.00014
1.00846
1.11425
1.47887
1.70578
1.73684
1.74651
1.74484
1.73433
1.7224
1.71346
1.70787
1.70567
1.70452
1.70177
1.69706
1.69127
1.68238
1.67143
1.66706
1.66186
1.65409
1.64971
1.64994
1.64798
1.64333
1.64109
1.63376
1.62012
1.61252
1.60583
1.59841
1.59877
1.59844
1.59676
1.593
1.58786
1.58199
1.57354
1.56527
1.56114
1.55432
1.54878
1.54935
1.54703
1.54325
1.53803
1.53109
1.5259
1.5194
1.51494
1.51191
1.50685
1.50492
1.50148
1.49683
1.49037
1.484
1.4812
1.4771
1.47368
1.46965
1.46656
1.46424
1.46045
1.45524
1.44901
1.44529
1.44163
1.4346
1.42986
1
1
1
1
1
1
1
1
1
1
1
1
1
1
1
1
1
1
1.00008
1.00539
1.12542
1.49461
1.66877
1.72874
1.74214
1.73316
1.72309
1.71621
1.70907
1.70744
1.70648
1.7025
1.69679
1.68982
1.67893
1.67135
1.66803
1.66189
1.65455
1.65338
1.65233
1.64784
1.64481
1.64106
1.62963
1.61893
1.61354
1.60525
1.60105
1.60119
1.60046
1.59778
1.59352
1.58825
1.58038
1.57146
1.56666
1.56177
1.55314
1.55313
1.55218
1.548
1.54379
1.53717
1.5311
1.5252
1.51918
1.51716
1.5133
1.51044
1.50809
1.50307
1.49724
1.48926
1.48451
1.48133
1.47762
1.47525
1.4712
1.46944
1.46698
1.46261
1.45625
1.4498
1.44526
1.44133
1.43683
1.42972
1
1
1
1
1
1
1
1
1
1
1
1
1
1
1
1
1
1
1
1.00006
1.00641
1.13914
1.44944
1.64671
1.73184
1.73502
1.72739
1.71713
1.71002
1.711
1.70953
1.70307
1.6954
1.68565
1.674
1.67096
1.66899
1.66279
1.65903
1.65799
1.65402
1.64815
1.64514
1.63816
1.62547
1.6189
1.61422
1.60842
1.60512
1.60328
1.60109
1.59813
1.59405
1.5868
1.5772
1.57136
1.56814
1.56031
1.55704
1.55747
1.55383
1.5489
1.54339
1.53634
1.53073
1.52406
1.52091
1.51935
1.51592
1.51432
1.51013
1.50368
1.4966
1.48834
1.48482
1.48148
1.47929
1.47665
1.47384
1.47285
1.46947
1.46404
1.45644
1.44972
1.44483
1.44136
1.43812
1.4335
1
1
1
1
1
1
1
1
1
1
1
1
1
1
1
1
1
1
1
1
1.00008
1.00715
1.11676
1.3808
1.66146
1.72692
1.72372
1.7178
1.71212
1.71194
1.70777
1.70098
1.69425
1.68461
1.6738
1.67183
1.66967
1.6645
1.66244
1.66002
1.65404
1.64861
1.64443
1.63513
1.62533
1.61958
1.61487
1.61116
1.60766
1.60438
1.60225
1.59955
1.59334
1.58365
1.57643
1.57336
1.56762
1.56079
1.56173
1.55969
1.55392
1.54898
1.54192
1.53591
1.52984
1.52485
1.52408
1.52136
1.51973
1.51709
1.51045
1.50348
1.49485
1.48799
1.48529
1.48284
1.48166
1.47851
1.47754
1.47598
1.47112
1.46451
1.45557
1.44918
1.44502
1.44262
1.43923
1.43811
1
1
1
1
1
1
1
1
1
1
1
1
1
1
1
1
1
1
1
1
1
1.00007
1.00487
1.07612
1.38526
1.67176
1.70911
1.71545
1.71382
1.7102
1.70313
1.69739
1.69193
1.6827
1.67483
1.67469
1.67238
1.66806
1.66499
1.66062
1.65328
1.64771
1.64215
1.63367
1.62609
1.62078
1.61726
1.6141
1.60886
1.60575
1.60446
1.60009
1.59062
1.5814
1.57779
1.57412
1.56641
1.56561
1.56541
1.56009
1.55426
1.5481
1.54089
1.53539
1.52963
1.52817
1.52666
1.52463
1.52314
1.51776
1.50978
1.50254
1.49264
1.48847
1.48668
1.48553
1.4837
1.48154
1.48097
1.47758
1.47142
1.46388
1.45414
1.44925
1.44672
1.44498
1.44177
1.44179
1
1
1
1
1
1
1
1
1
1
1
1
1
1
1
1
1
1
1
1
1
1
1.00004
1.00292
1.07578
1.41342
1.63921
1.69197
1.71345
1.70944
1.70281
1.69875
1.69331
1.6821
1.67707
1.67731
1.67403
1.66902
1.66524
1.66052
1.6529
1.64708
1.64162
1.63396
1.62675
1.62219
1.61925
1.61503
1.61012
1.60887
1.6068
1.59875
1.58777
1.58248
1.57938
1.57244
1.5689
1.57008
1.56676
1.55974
1.55411
1.54627
1.54033
1.53516
1.53229
1.53137
1.52925
1.52843
1.52487
1.51664
1.50895
1.50063
1.49107
1.49017
1.48934
1.4885
1.48607
1.48524
1.48335
1.4777
1.47129
1.46207
1.45304
1.45095
1.44974
1.44796
1.44556
1.44494
1
1
1
1
1
1
1
1
1
1
1
1
1
1
1
1
1
1
1
1
1
1
1
1.00003
1.00309
1.08519
1.39759
1.59307
1.67981
1.71032
1.7084
1.70419
1.69604
1.68265
1.67939
1.6789
1.67395
1.66864
1.66492
1.65975
1.65183
1.64674
1.64183
1.63418
1.62759
1.62424
1.62098
1.61555
1.61308
1.61247
1.60716
1.59573
1.58731
1.58402
1.5788
1.57303
1.57384
1.57289
1.56639
1.55988
1.5526
1.54474
1.54025
1.53702
1.53605
1.53394
1.53315
1.53118
1.52436
1.51511
1.5082
1.49766
1.49256
1.49303
1.49248
1.49105
1.48918
1.48791
1.48368
1.47699
1.47041
1.45978
1.45465
1.45424
1.45332
1.45111
1.44895
1.44676
1
1
1
1
1
1
1
1
1
1
1
1
1
1
1
1
1
1
1
1
1
1
1
1
1.00003
1.00344
1.07834
1.32273
1.54601
1.68879
1.71616
1.71224
1.69872
1.68253
1.68061
1.67942
1.67268
1.66788
1.66486
1.65953
1.65196
1.64781
1.6423
1.63376
1.62855
1.62594
1.62194
1.61776
1.61695
1.61471
1.60524
1.59349
1.5887
1.58456
1.57791
1.57725
1.57819
1.57379
1.56579
1.55948
1.55024
1.54436
1.54165
1.54052
1.53865
1.53735
1.53621
1.53132
1.52203
1.5144
1.50639
1.49614
1.49633
1.49646
1.49567
1.49386
1.49227
1.48906
1.48252
1.47615
1.46832
1.45895
1.45836
1.45802
1.45682
1.4543
1.45148
1.44726
1
1
1
1
1
1
1
1
1
1
1
1
1
1
1
1
1
1
1
1
1
1
1
1
1
1.00003
1.00242
1.04642
1.24888
1.55223
1.70474
1.7047
1.69528
1.68376
1.68368
1.67958
1.6704
1.66746
1.66525
1.66006
1.65328
1.6494
1.64193
1.63277
1.62957
1.62752
1.62361
1.62158
1.62075
1.61472
1.6016
1.59317
1.58953
1.58391
1.58097
1.58261
1.5809
1.57317
1.56587
1.55711
1.54805
1.5458
1.54499
1.54363
1.54194
1.54116
1.53775
1.52954
1.52035
1.51332
1.50256
1.49908
1.50086
1.50023
1.49902
1.49705
1.49413
1.48825
1.48089
1.47494
1.46613
1.46221
1.46262
1.46178
1.46003
1.45679
1.4525
1.44666
1
1
1
1
1
1
1
1
1
1
1
1
1
1
1
1
1
1
1
1
1
1
1
1
1
1
1.00001
1.00102
1.02865
1.23289
1.57925
1.67853
1.68513
1.68321
1.68352
1.67555
1.66789
1.66834
1.66747
1.66201
1.65477
1.64989
1.63964
1.63142
1.63055
1.62946
1.62663
1.62494
1.62227
1.61177
1.59826
1.5936
1.58982
1.58566
1.58657
1.58755
1.58243
1.57282
1.56508
1.55397
1.54833
1.5485
1.54824
1.54679
1.54585
1.54346
1.53696
1.5273
1.51986
1.51052
1.50232
1.50415
1.50505
1.50397
1.50243
1.4996
1.49423
1.48622
1.47987
1.47312
1.46689
1.4669
1.46665
1.46506
1.46255
1.45792
1.45196
1.44572
1
1
1
1
1
1
1
1
1
1
1
1
1
1
1
1
1
1
1
1
1
1
1
1
1
1
1
1.00001
1.00065
1.0255
1.24001
1.56138
1.64961
1.66837
1.68024
1.67379
1.67071
1.67315
1.67149
1.66293
1.65487
1.64864
1.6355
1.63117
1.63234
1.63265
1.63095
1.62812
1.62164
1.60642
1.59643
1.59383
1.5908
1.59033
1.59247
1.59113
1.58242
1.57275
1.56273
1.55236
1.55057
1.55161
1.55143
1.55074
1.54905
1.54386
1.53447
1.52606
1.51781
1.50732
1.50677
1.50977
1.50924
1.5079
1.50524
1.50011
1.49209
1.48458
1.47884
1.47316
1.47166
1.47149
1.47023
1.46777
1.46409
1.45744
1.45028
1.44479
1
1
1
1
1
1
1
1
1
1
1
1
1
1
1
1
1
1
1
1
1
1
1
1
1
1
1
1
1
1.00062
1.02496
1.2417
1.52171
1.6149
1.6623
1.68326
1.6817
1.67839
1.67127
1.66057
1.65466
1.64809
1.63517
1.63346
1.63486
1.63593
1.63431
1.62967
1.61901
1.60184
1.59528
1.59462
1.59407
1.59543
1.59711
1.59297
1.58174
1.57094
1.56014
1.55345
1.55319
1.55527
1.55549
1.55442
1.55044
1.54215
1.53277
1.52472
1.51389
1.51004
1.5132
1.51428
1.51337
1.51137
1.50641
1.49846
1.48958
1.48354
1.47835
1.47671
1.47655
1.47551
1.47289
1.46957
1.46421
1.45555
1.44891
1.44432
1
1
1
1
1
1
1
1
1
1
1
1
1
1
1
1
1
1
1
1
1
1
1
1
1
1
1
1
1
1
1.00059
1.02459
1.20758
1.43093
1.59841
1.68253
1.68977
1.68188
1.66801
1.65583
1.65474
1.64838
1.63789
1.63856
1.63987
1.63928
1.63513
1.628
1.61446
1.59894
1.59653
1.59757
1.59806
1.59963
1.59952
1.59245
1.57965
1.5677
1.55919
1.55621
1.55715
1.56025
1.55985
1.55684
1.54965
1.53965
1.53132
1.52101
1.51406
1.51608
1.5188
1.51845
1.51692
1.51325
1.50516
1.49534
1.48841
1.48328
1.48113
1.48172
1.48106
1.47865
1.47457
1.47056
1.46244
1.45328
1.44892
1.44513
1
1
1
1
1
1
1
1
1
1
1
1
1
1
1
1
1
1
1
1
1
1
1
1
1
1
1
1
1
1
1
1.00047
1.0154
1.12712
1.37042
1.63257
1.68341
1.67771
1.66586
1.65832
1.65723
1.64673
1.6406
1.64169
1.64281
1.64145
1.63569
1.62666
1.61004
1.59927
1.59972
1.60267
1.60307
1.60322
1.60048
1.58983
1.57556
1.56499
1.56057
1.55982
1.56248
1.56462
1.56288
1.5571
1.54722
1.53824
1.52845
1.51923
1.51954
1.52269
1.52304
1.52192
1.51919
1.51232
1.50142
1.49354
1.48907
1.48564
1.48603
1.4862
1.4845
1.4802
1.47545
1.4696
1.45853
1.45301
1.45066
1.44835
1
1
1
1
1
1
1
1
1
1
1
1
1
1
1
1
1
1
1
1
1
1
1
1
1
1
1
1
1
1
1
1
1.00018
1.00635
1.0869
1.38065
1.63785
1.6585
1.65672
1.6558
1.65596
1.64599
1.64371
1.64523
1.64482
1.6413
1.63427
1.6245
1.60805
1.60328
1.60481
1.60747
1.60711
1.60524
1.59937
1.58563
1.57115
1.56527
1.56423
1.56465
1.56852
1.56838
1.56419
1.55501
1.54508
1.53574
1.52522
1.52347
1.52596
1.52737
1.52695
1.52462
1.51971
1.50784
1.49829
1.49469
1.49254
1.49097
1.49086
1.48973
1.48619
1.48062
1.47526
1.46494
1.45673
1.45504
1.45389
1.45292
1
1
1
1
1
1
1
1
1
1
1
1
1
1
1
1
1
1
1
1
1
1
1
1
1
1
1
1
1
1
1
1
1
1.00006
1.00422
1.08049
1.38568
1.60072
1.63194
1.64934
1.65221
1.64674
1.64824
1.64974
1.64767
1.64038
1.63228
1.62076
1.60816
1.6076
1.6096
1.61146
1.61032
1.6062
1.59698
1.58048
1.56961
1.56839
1.56834
1.57046
1.57308
1.5708
1.56321
1.55242
1.54288
1.53204
1.52768
1.52946
1.53123
1.53132
1.52955
1.526
1.51637
1.50373
1.49924
1.49806
1.49733
1.4961
1.49433
1.49142
1.48615
1.48072
1.4723
1.46153
1.45883
1.45816
1.45826
1.45807
1
1
1
1
1
1
1
1
1
1
1
1
1
1
1
1
1
1
1
1
1
1
1
1
1
1
1
1
1
1
1
1
1
1
1.00005
1.00379
1.07961
1.36184
1.54151
1.61164
1.6479
1.65957
1.66008
1.65615
1.64644
1.63558
1.62997
1.61846
1.61067
1.61131
1.61328
1.61394
1.61192
1.60574
1.59357
1.57687
1.57213
1.57275
1.57292
1.57601
1.57622
1.57113
1.5603
1.54984
1.53912
1.53229
1.5333
1.53505
1.5353
1.53442
1.53143
1.52434
1.51035
1.50383
1.50285
1.50189
1.5013
1.49985
1.49671
1.49199
1.48575
1.47913
1.46857
1.46262
1.46192
1.46225
1.46337
1.46298
1
1
1
1
1
1
1
1
1
1
1
1
1
1
1
1
1
1
1
1
1
1
1
1
1
1
1
1
1
1
1
1
1
1
1
1.00005
1.00349
1.06892
1.29041
1.47123
1.61511
1.66834
1.6666
1.65639
1.64276
1.63466
1.62986
1.61691
1.61422
1.61563
1.61677
1.61613
1.61197
1.60394
1.58924
1.57694
1.57687
1.57758
1.57773
1.58026
1.57859
1.56963
1.55735
1.54631
1.53737
1.53686
1.53894
1.53927
1.5389
1.53646
1.53159
1.51864
1.50814
1.50742
1.50692
1.50587
1.50458
1.50221
1.4982
1.49185
1.4846
1.47662
1.46837
1.46549
1.46552
1.46752
1.46824
1.46741
1
1
1
1
1
1
1
1
1
1
1
1
1
1
1
1
1
1
1
1
1
1
1
1
1
1
1
1
1
1
1
1
1
1
1
1
1.00003
1.00229
1.03856
1.18893
1.44764
1.64887
1.65587
1.6526
1.64206
1.63672
1.62867
1.61704
1.61698
1.61987
1.62047
1.61856
1.61216
1.60245
1.58596
1.58019
1.5818
1.58224
1.5824
1.58353
1.57928
1.56677
1.55387
1.54385
1.53995
1.5421
1.54342
1.54295
1.54123
1.53763
1.52809
1.51359
1.51052
1.51115
1.51094
1.50978
1.50727
1.50355
1.4981
1.48971
1.48195
1.47601
1.47048
1.46948
1.47057
1.47319
1.47244
1.47037
1
1
1
1
1
1
1
1
1
1
1
1
1
1
1
1
1
1
1
1
1
1
1
1
1
1
1
1
1
1
1
1
1
1
1
1
1
1.00001
1.00074
1.01662
1.15214
1.46196
1.63259
1.63615
1.63253
1.63282
1.62751
1.6191
1.62191
1.62524
1.62396
1.61913
1.61183
1.59964
1.58484
1.58396
1.58653
1.58696
1.58693
1.58613
1.57783
1.56238
1.55052
1.54478
1.54463
1.5472
1.54732
1.54571
1.54269
1.53625
1.52233
1.51385
1.51432
1.51522
1.51489
1.51304
1.50958
1.50466
1.49616
1.48545
1.4808
1.47735
1.47454
1.4746
1.47711
1.47767
1.47561
1.47095
1
1
1
1
1
1
1
1
1
1
1
1
1
1
1
1
1
1
1
1
1
1
1
1
1
1
1
1
1
1
1
1
1
1
1
1
1
1
1
1.00029
1.01196
1.14104
1.45503
1.59214
1.61154
1.62333
1.62544
1.62613
1.63204
1.63214
1.62708
1.61722
1.6092
1.59383
1.58596
1.58756
1.59166
1.59216
1.5916
1.58734
1.57427
1.55685
1.54962
1.54859
1.54919
1.55162
1.55079
1.548
1.54267
1.53142
1.5191
1.51743
1.5188
1.51946
1.51866
1.51581
1.5114
1.5041
1.49106
1.483
1.48217
1.48057
1.47972
1.48082
1.48254
1.48092
1.47641
1.46837
1
1
1
1
1
1
1
1
1
1
1
1
1
1
1
1
1
1
1
1
1
1
1
1
1
1
1
1
1
1
1
1
1
1
1
1
1
1
1
1
1.00022
1.01046
1.13493
1.417
1.53728
1.59262
1.62963
1.64411
1.64492
1.63841
1.62354
1.61232
1.60454
1.59063
1.58918
1.59297
1.59775
1.59787
1.59507
1.58612
1.5681
1.55367
1.5519
1.55253
1.55389
1.55611
1.55403
1.54944
1.53975
1.52561
1.52069
1.52197
1.5237
1.52356
1.52175
1.51777
1.51193
1.5004
1.48669
1.48463
1.48505
1.48488
1.48537
1.48686
1.4862
1.48162
1.47409
1.463
1
1
1
1
1
1
1
1
1
1
1
1
1
1
1
1
1
1
1
1
1
1
1
1
1
1
1
1
1
1
1
1
1
1
1
1
1
1
1
1
1
1.00019
1.00868
1.10947
1.31955
1.4791
1.61342
1.65195
1.64722
1.63483
1.61747
1.61195
1.60144
1.591
1.59392
1.60123
1.60422
1.60262
1.59557
1.58167
1.56226
1.55499
1.55545
1.55642
1.55913
1.5608
1.55738
1.54883
1.53451
1.5244
1.52416
1.52653
1.52782
1.52716
1.52412
1.51919
1.50984
1.49475
1.48721
1.48796
1.48914
1.49026
1.49153
1.49129
1.48728
1.47911
1.46894
1.45816
1
1
1
1
1
1
1
1
1
1
1
1
1
1
1
1
1
1
1
1
1
1
1
1
1
1
1
1
1
1
1
1
1
1
1
1
1
1
1
1
1
1
1.00011
1.00465
1.05511
1.22107
1.48653
1.6393
1.6364
1.62845
1.6146
1.61084
1.59933
1.59582
1.60206
1.60849
1.6086
1.60327
1.59288
1.57505
1.56039
1.55909
1.56039
1.56187
1.5649
1.5646
1.55827
1.54476
1.53087
1.52707
1.52803
1.53097
1.53134
1.52998
1.52585
1.51803
1.5044
1.49215
1.49093
1.49256
1.49481
1.49652
1.49654
1.49353
1.48475
1.47404
1.4642
1.45769
1
1
1
1
1
1
1
1
1
1
1
1
1
1
1
1
1
1
1
1
1
1
1
1
1
1
1
1
1
1
1
1
1
1
1
1
1
1
1
1
1
1
1
1.00003
1.00146
1.02761
1.19632
1.49306
1.61388
1.61014
1.6059
1.60726
1.60087
1.60306
1.61166
1.61378
1.61022
1.59958
1.5874
1.56985
1.56293
1.56451
1.56731
1.56919
1.56984
1.56685
1.55535
1.5395
1.53141
1.53084
1.532
1.53507
1.53504
1.53226
1.52566
1.51329
1.49934
1.49438
1.49554
1.49843
1.50122
1.50177
1.49984
1.49179
1.47905
1.46975
1.46319
1.46145
1
1
1
1
1
1
1
1
1
1
1
1
1
1
1
1
1
1
1
1
1
1
1
1
1
1
1
1
1
1
1
1
1
1
1
1
1
1
1
1
1
1
1
1
1.00001
1.0007
1.02009
1.17802
1.4726
1.56475
1.58549
1.60298
1.61057
1.61682
1.61991
1.61614
1.60457
1.59237
1.58266
1.56908
1.56831
1.57244
1.57569
1.5757
1.57333
1.56539
1.54849
1.5362
1.5347
1.5351
1.53702
1.53973
1.53857
1.53277
1.5216
1.5069
1.49892
1.49893
1.50166
1.5054
1.50675
1.50566
1.49925
1.485
1.47402
1.46866
1.46635
1.46711
1
1
1
1
1
1
1
1
1
1
1
1
1
1
1
1
1
1
1
1
1
1
1
1
1
1
1
1
1
1
1
1
1
1
1
1
1
1
1
1
1
1
1
1
1
1
1.00047
1.01637
1.16561
1.41067
1.51216
1.58204
1.62424
1.62812
1.62315
1.61159
1.59614
1.59051
1.58162
1.57351
1.57626
1.58135
1.58222
1.57978
1.57287
1.55999
1.5427
1.53778
1.53879
1.54014
1.54389
1.54496
1.54074
1.52998
1.51454
1.50371
1.50229
1.50449
1.50924
1.51171
1.51127
1.50657
1.49317
1.47772
1.47287
1.47118
1.47157
1.47423
1
1
1
1
1
1
1
1
1
1
1
1
1
1
1
1
1
1
1
1
1
1
1
1
1
1
1
1
1
1
1
1
1
1
1
1
1
1
1
1
1
1
1
1
1
1
1
1.00036
1.01232
1.11667
1.30232
1.48553
1.61715
1.62794
1.61835
1.60455
1.59349
1.59183
1.58301
1.58125
1.58547
1.58806
1.5866
1.58011
1.56986
1.55369
1.54172
1.54152
1.5442
1.54762
1.55069
1.54905
1.53959
1.52342
1.50926
1.50532
1.50672
1.51182
1.51649
1.51673
1.51364
1.50275
1.48421
1.47601
1.4753
1.47575
1.47815
1.48197
1
1
1
1
1
1
1
1
1
1
1
1
1
1
1
1
1
1
1
1
1
1
1
1
1
1
1
1
1
1
1
1
1
1
1
1
1
1
1
1
1
1
1
1
1
1
1
1
1.00017
1.0054
1.05715
1.2352
1.50009
1.6127
1.60803
1.59905
1.59144
1.59145
1.58506
1.58708
1.59238
1.5926
1.58797
1.57794
1.56601
1.54994
1.54502
1.547
1.55169
1.55528
1.55501
1.54891
1.53419
1.51685
1.50946
1.50933
1.51315
1.52016
1.52212
1.5202
1.51168
1.49435
1.47994
1.47853
1.4795
1.48214
1.48617
1.48815
1
1
1
1
1
1
1
1
1
1
1
1
1
1
1
1
1
1
1
1
1
1
1
1
1
1
1
1
1
1
1
1
1
1
1
1
1
1
1
1
1
1
1
1
1
1
1
1
1
1.00004
1.00183
1.03223
1.20343
1.48418
1.58076
1.5822
1.5861
1.58995
1.58801
1.59398
1.59877
1.59612
1.58611
1.5746
1.56266
1.55043
1.55042
1.55434
1.55943
1.56012
1.55633
1.545
1.52677
1.51486
1.51338
1.51491
1.52227
1.52748
1.52664
1.51962
1.50447
1.48726
1.48144
1.48256
1.48583
1.49034
1.49315
1.49258
1
1
1
1
1
1
1
1
1
1
1
1
1
1
1
1
1
1
1
1
1
1
1
1
1
1
1
1
1
1
1
1
1
1
1
1
1
1
1
1
1
1
1
1
1
1
1
1
1
1
1.00001
1.00086
1.02169
1.18491
1.45355
1.53572
1.56483
1.58981
1.59976
1.60319
1.60075
1.59206
1.58031
1.57333
1.5617
1.55554
1.55788
1.56247
1.56432
1.56211
1.55394
1.53844
1.52198
1.51801
1.51906
1.524
1.53168
1.53232
1.52703
1.51346
1.49638
1.48611
1.48562
1.48877
1.49431
1.49796
1.49797
1.49249
1
1
1
1
1
1
1
1
1
1
1
1
1
1
1
1
1
1
1
1
1
1
1
1
1
1
1
1
1
1
1
1
1
1
1
1
1
1
1
1
1
1
1
1
1
1
1
1
1
1
1
1.00001
1.00058
1.01798
1.16242
1.37353
1.48813
1.57523
1.60876
1.60479
1.59728
1.5881
1.58035
1.57493
1.56367
1.56276
1.56564
1.56805
1.56743
1.5615
1.54958
1.53228
1.5229
1.52369
1.52771
1.53493
1.53735
1.53384
1.52175
1.50503
1.49236
1.48924
1.49143
1.49764
1.50262
1.50309
1.49875
1.48513
1
1
1.72391
1.87554
1.91357
1.91974
1.91721
1.91477
1.91208
1.90869
1.90568
1.90189
1.89827
1.89371
1.88769
1.88183
1.87529
1.87112
1.86636
1.86466
1.86385
1.86098
1.85784
1.85516
1.85302
1.84632
1.83413
1.82123
1.80979
1.80874
1.80849
1.80613
1.53416
1.76635
1.87405
1.91075
1.91038
1.90669
1.90298
1.90024
1.89712
1.89336
1.88898
1.88206
1.87722
1.8727
1.86883
1.86638
1.86334
1.8624
1.86
1.85646
1.85176
1.84845
1.84434
1.83495
1.82415
1.81458
1.80894
1.80871
1.80651
1.80273
1.4457
1.57702
1.78935
1.87744
1.90211
1.89897
1.89386
1.89128
1.88893
1.88584
1.87932
1.87213
1.86948
1.86559
1.86391
1.862
1.86077
1.85941
1.85599
1.85161
1.8454
1.8407
1.8335
1.82307
1.81556
1.80938
1.80835
1.80728
1.80392
1.79961
1.43122
1.45822
1.61817
1.81029
1.87752
1.8932
1.88829
1.88389
1.88149
1.87789
1.86994
1.86664
1.86387
1.86099
1.85969
1.85837
1.85783
1.85545
1.85121
1.84536
1.83827
1.83161
1.82236
1.81442
1.80871
1.80598
1.80613
1.80431
1.80097
1.7962
1.43056
1.43346
1.47705
1.65103
1.82369
1.87719
1.88169
1.87808
1.87479
1.86816
1.86317
1.86281
1.85989
1.85852
1.85673
1.85567
1.85411
1.85
1.84426
1.83622
1.82867
1.82099
1.81321
1.80902
1.80447
1.80389
1.80336
1.80073
1.79715
1.79183
1.43274
1.43199
1.43485
1.49389
1.68615
1.83772
1.86682
1.87097
1.86957
1.86147
1.85992
1.85893
1.85686
1.85545
1.85332
1.85203
1.8489
1.84326
1.8352
1.82572
1.8185
1.811
1.8075
1.80503
1.80255
1.8028
1.80124
1.79779
1.79306
1.78632
1.43735
1.43413
1.42865
1.43393
1.51569
1.7328
1.82988
1.85756
1.86135
1.85578
1.8546
1.85336
1.85306
1.8516
1.84881
1.84618
1.84154
1.83462
1.82477
1.81645
1.80952
1.80514
1.80437
1.80184
1.8016
1.80154
1.79864
1.79418
1.78761
1.77906
1.44097
1.43636
1.42675
1.42564
1.43772
1.55413
1.75217
1.82389
1.85344
1.85151
1.84831
1.84744
1.84748
1.84584
1.84282
1.839
1.83324
1.82493
1.81588
1.8087
1.80332
1.80276
1.80124
1.79983
1.80072
1.79928
1.79508
1.78926
1.7807
1.77069
1.44233
1.4372
1.42814
1.42153
1.42265
1.44657
1.59372
1.75098
1.82793
1.85005
1.84625
1.84431
1.84245
1.83904
1.83592
1.83177
1.82502
1.816
1.80825
1.80263
1.80149
1.80093
1.79849
1.79888
1.79906
1.79543
1.79028
1.7827
1.77282
1.76357
1.44214
1.43662
1.42925
1.42163
1.42223
1.42474
1.46243
1.60809
1.76237
1.83167
1.84491
1.84188
1.83663
1.83124
1.82882
1.82462
1.81696
1.80871
1.80242
1.80002
1.79977
1.79738
1.79677
1.79769
1.79492
1.7895
1.78387
1.77505
1.7656
1.75898
1.44154
1.43522
1.42875
1.42526
1.42351
1.42433
1.42696
1.47367
1.62173
1.78524
1.82619
1.83329
1.83138
1.82572
1.82236
1.81756
1.81097
1.80521
1.8013
1.79963
1.79691
1.79445
1.79507
1.7935
1.78782
1.78296
1.77669
1.76705
1.76091
1.75691
1.44081
1.43355
1.42915
1.42945
1.42815
1.42601
1.42395
1.42749
1.48213
1.6641
1.78354
1.81087
1.82514
1.82183
1.81742
1.812
1.80677
1.80336
1.80135
1.79861
1.79337
1.79187
1.79051
1.78519
1.78003
1.77658
1.77005
1.76311
1.7592
1.75528
1.43978
1.43315
1.43253
1.43322
1.43236
1.42938
1.42537
1.41951
1.42582
1.50403
1.69095
1.7689
1.80961
1.81468
1.81213
1.80824
1.80518
1.80286
1.80022
1.79448
1.78906
1.787
1.78228
1.77652
1.7743
1.77091
1.76487
1.76158
1.75759
1.75242
1.43891
1.43613
1.43713
1.43705
1.43567
1.43279
1.4263
1.41747
1.41284
1.42538
1.53402
1.69141
1.7752
1.81218
1.80995
1.80699
1.80465
1.8015
1.79646
1.78887
1.78454
1.7798
1.77345
1.77146
1.7704
1.76626
1.76372
1.76057
1.75424
1.74786
1.44022
1.44075
1.44155
1.4406
1.43829
1.4345
1.42662
1.41629
1.40876
1.40921
1.43271
1.55238
1.69451
1.79443
1.81313
1.80907
1.80419
1.7973
1.78841
1.78266
1.77797
1.7722
1.76913
1.7694
1.76683
1.76439
1.76297
1.75672
1.74847
1.7428
1.44411
1.44538
1.44536
1.44325
1.4398
1.43418
1.42355
1.4164
1.40928
1.40878
1.41116
1.44393
1.55649
1.73271
1.79365
1.80324
1.8008
1.79037
1.7797
1.7747
1.77104
1.76871
1.76922
1.76734
1.76416
1.76313
1.75878
1.74932
1.74311
1.73926
1.44873
1.4498
1.44876
1.44493
1.43995
1.43132
1.41974
1.41684
1.4145
1.41023
1.41172
1.41637
1.45019
1.5978
1.74686
1.77675
1.78886
1.7841
1.77658
1.77235
1.77023
1.76894
1.76697
1.76327
1.76123
1.75859
1.75002
1.74351
1.74077
1.73752
1.45377
1.45408
1.4513
1.44563
1.43843
1.42655
1.41997
1.41947
1.41855
1.41529
1.41478
1.41601
1.4194
1.46852
1.63511
1.72537
1.76365
1.78146
1.77739
1.77395
1.773
1.76864
1.76233
1.7582
1.75595
1.74816
1.74261
1.74233
1.74119
1.73618
1.45869
1.45784
1.45225
1.44489
1.4347
1.42414
1.4233
1.42298
1.42217
1.42111
1.419
1.41757
1.41428
1.41905
1.48994
1.6255
1.71725
1.76901
1.77995
1.7786
1.77327
1.76398
1.75725
1.75362
1.74623
1.73993
1.74087
1.74224
1.74116
1.73462
1.46288
1.45956
1.45157
1.44232
1.43057
1.42664
1.42705
1.42673
1.42632
1.42548
1.42309
1.41904
1.41311
1.40818
1.41875
1.49232
1.61964
1.73397
1.77778
1.77705
1.76872
1.75878
1.75176
1.74614
1.7385
1.73858
1.74171
1.74271
1.74003
1.73331
1.46547
1.45877
1.44934
1.4385
1.43065
1.43079
1.43118
1.43117
1.43041
1.42842
1.4247
1.41904
1.41259
1.40416
1.4041
1.41924
1.4927
1.65089
1.75651
1.76453
1.76085
1.75098
1.74556
1.73912
1.73736
1.73955
1.74257
1.74249
1.73773
1.73125
1.46522
1.45576
1.44603
1.43673
1.43454
1.43541
1.43609
1.43576
1.4335
1.4294
1.42374
1.41783
1.41271
1.40443
1.40307
1.40568
1.42358
1.51942
1.68135
1.74089
1.74686
1.74457
1.73972
1.73749
1.73829
1.74191
1.74363
1.74126
1.7348
1.72575
1.46175
1.45143
1.44381
1.43928
1.4395
1.44085
1.4411
1.4394
1.43472
1.42814
1.42127
1.41688
1.41293
1.40796
1.40607
1.40785
1.41089
1.43325
1.54901
1.67102
1.7244
1.73494
1.73984
1.74157
1.74396
1.74475
1.74346
1.73769
1.7292
1.71654
1.45627
1.44839
1.44524
1.44472
1.44531
1.4461
1.44523
1.44078
1.43329
1.42496
1.42004
1.41734
1.4136
1.41319
1.41347
1.41243
1.41017
1.41066
1.4418
1.54611
1.66214
1.71473
1.73572
1.74731
1.74747
1.74454
1.73857
1.73
1.71975
1.71012
1.45257
1.44938
1.4496
1.45078
1.45131
1.4508
1.44703
1.43909
1.42925
1.42262
1.42115
1.41933
1.41759
1.41897
1.41984
1.41631
1.40928
1.40396
1.40534
1.43981
1.54278
1.67283
1.71633
1.74115
1.74493
1.74035
1.73211
1.72287
1.71444
1.70904
1.45312
1.45323
1.4552
1.4571
1.45677
1.45351
1.44557
1.43462
1.42579
1.42398
1.42421
1.42313
1.42352
1.42497
1.42361
1.41699
1.40776
1.40016
1.39965
1.40302
1.43958
1.57283
1.6742
1.71895
1.74052
1.73668
1.72983
1.72329
1.71641
1.70862
1.45705
1.4585
1.46152
1.46238
1.46021
1.45277
1.44117
1.43047
1.42674
1.42744
1.42833
1.42888
1.43001
1.42933
1.42377
1.41434
1.40653
1.40126
1.39807
1.3991
1.40362
1.45693
1.58146
1.67033
1.72325
1.7355
1.73099
1.72417
1.71488
1.70694
1.46263
1.46552
1.46728
1.46628
1.45985
1.44842
1.43641
1.43036
1.4305
1.43214
1.43398
1.43546
1.43508
1.43046
1.41998
1.41038
1.40652
1.40465
1.40131
1.40007
1.40122
1.40791
1.46592
1.5696
1.6805
1.72739
1.72801
1.72222
1.71101
1.70615
1.46999
1.47225
1.47195
1.46679
1.45538
1.44306
1.43489
1.43387
1.43545
1.4384
1.44058
1.44073
1.43748
1.42748
1.41469
1.40903
1.40846
1.40831
1.40671
1.40374
1.40166
1.40173
1.41025
1.46017
1.58709
1.69834
1.71638
1.71487
1.70926
1.70466
1.4774
1.47758
1.47402
1.46259
1.44954
1.44047
1.43755
1.43849
1.44182
1.44543
1.44599
1.444
1.43568
1.42166
1.41226
1.41092
1.41181
1.41196
1.41033
1.40819
1.40523
1.39937
1.39797
1.40787
1.47395
1.62253
1.68753
1.70286
1.70551
1.70122
1.48299
1.48076
1.47081
1.45587
1.44663
1.44233
1.44247
1.44466
1.4492
1.45079
1.44959
1.44314
1.42983
1.41744
1.41375
1.41463
1.41623
1.41552
1.41389
1.41182
1.40792
1.3998
1.3931
1.39486
1.41224
1.50279
1.62491
1.67701
1.69296
1.69738
1.48685
1.47873
1.46248
1.45177
1.4477
1.44737
1.44877
1.45257
1.45525
1.45458
1.44954
1.43753
1.42374
1.41755
1.41755
1.41991
1.42047
1.41912
1.41721
1.41386
1.40768
1.40084
1.39437
1.39481
1.3974
1.42043
1.51451
1.60704
1.66471
1.69254
1.48597
1.46991
1.45653
1.45253
1.4523
1.45371
1.45669
1.45968
1.45957
1.45552
1.44458
1.43013
1.42198
1.42104
1.42305
1.42517
1.42453
1.42284
1.41984
1.41381
1.40667
1.4029
1.40053
1.39764
1.3966
1.39797
1.42376
1.49722
1.59997
1.67223
1.47767
1.46187
1.45689
1.45663
1.45826
1.46176
1.46424
1.46453
1.4616
1.45164
1.43635
1.4266
1.42469
1.42627
1.42963
1.42982
1.42856
1.42604
1.42071
1.41254
1.40717
1.40647
1.40585
1.40114
1.39716
1.39443
1.39581
1.41741
1.49525
1.61931
1.46834
1.46105
1.46066
1.46219
1.46617
1.4697
1.46998
1.46767
1.45888
1.44316
1.43128
1.4285
1.42965
1.43338
1.43484
1.43397
1.432
1.42761
1.42011
1.4121
1.41038
1.41052
1.40882
1.40237
1.39836
1.39551
1.39
1.39181
1.41745
1.51822
)
;

boundaryField
{
    inlet
    {
        type            fixedValue;
        value           nonuniform 0();
    }
    outlet
    {
        type            inletOutlet;
        inletValue      nonuniform 0();
        value           nonuniform 0();
    }
    bottom
    {
        type            zeroGradient;
    }
    top
    {
        type            zeroGradient;
    }
    obstacle
    {
        type            zeroGradient;
    }
    defaultFaces
    {
        type            empty;
    }
    procBoundary9to5
    {
        type            processor;
        value           nonuniform List<scalar> 
119
(
1
1
1
1
1
1
1
1
1
1.00009
1.00766
1.12561
1.53618
1.74016
1.76265
1.76576
1.76203
1.75361
1.74492
1.7397
1.73562
1.73248
1.72973
1.72266
1.71432
1.71136
1.70498
1.69493
1.69066
1.68727
1.68173
1.67628
1.67164
1.66666
1.66023
1.65283
1.64633
1.64035
1.63563
1.63398
1.63014
1.62466
1.61958
1.61084
1.60296
1.59784
1.58953
1.58738
1.58597
1.58144
1.57831
1.573
1.56686
1.56188
1.55462
1.54917
1.54323
1.53692
1.53544
1.53193
1.5284
1.52401
1.51874
1.5149
1.50885
1.50339
1.49697
1.49114
1.48828
1.48498
1.48176
1.47642
1.47388
1.47093
1.46649
1.4609
1.45644
1.4533
1.44949
1.44068
1.43541
1.43686
1.47718
1.67827
1
1
1
1
1
1.86645
1.9185
1.92763
1.92503
1.92235
1.9205
1.91844
1.91503
1.91327
1.91113
1.90758
1.90392
1.89855
1.89238
1.88406
1.87691
1.8712
1.86721
1.86738
1.86596
1.86327
1.86075
1.85874
1.85449
1.84408
1.82964
1.81506
1.80941
1.80979
1.80906
)
;
    }
    procBoundary9to6
    {
        type            processor;
        value           nonuniform List<scalar> 6(1.80264 1.79802 1.79387 1.79002 1.78497 1.77763);
    }
    procBoundary9to8
    {
        type            processor;
        value           nonuniform List<scalar> 
29
(
1
1
1
1
1
1
1
1
1
1
1
1
1
1
1
1
1
1
1
1
1
1
1
1
1
1
1
1
1
)
;
    }
    procBoundary9to10
    {
        type            processor;
        value           nonuniform List<scalar> 
29
(
1.76929
1.76188
1.75746
1.75468
1.75262
1.75
1.74586
1.74087
1.73687
1.73414
1.7315
1.72955
1.72901
1.72739
1.72123
1.7119
1.70702
1.70725
1.70717
1.70568
1.70561
1.70361
1.69744
1.69367
1.69583
1.70417
1.69827
1.67831
1.63289
)
;
    }
    procBoundary9to12
    {
        type            processor;
        value           nonuniform List<scalar> 6(1 1 1 1 1 1);
    }
    procBoundary9to13
    {
        type            processor;
        value           nonuniform List<scalar> 
119
(
1
1
1
1
1
1
1
1
1
1
1
1
1
1
1
1
1
1
1
1
1
1
1
1
1
1
1
1
1
1
1
1
1
1
1
1
1
1
1
1
1
1
1
1
1
1
1
1
1
1
1
1.0004
1.0117
1.09854
1.26865
1.47524
1.60056
1.597
1.59315
1.5864
1.58092
1.57434
1.56692
1.56856
1.57201
1.57219
1.56855
1.55889
1.54525
1.53
1.52785
1.53129
1.53836
1.54218
1.54022
1.53015
1.51393
1.4995
1.49364
1.49439
1.50013
1.50695
1.50823
1.50491
1.4929
1.47566
1
1
1
1.4659
1.46454
1.46602
1.47018
1.4747
1.47583
1.47393
1.46593
1.45073
1.43674
1.43262
1.4334
1.43692
1.43938
1.43889
1.43735
1.43367
1.42728
1.41914
1.41484
1.4145
1.41313
1.40846
1.40369
1.40162
1.39781
1.38875
1.38745
1.39264
1.42921
)
;
    }
}


// ************************************************************************* //
