/*--------------------------------*- C++ -*----------------------------------*\
  =========                 |
  \\      /  F ield         | OpenFOAM: The Open Source CFD Toolbox
   \\    /   O peration     | Website:  https://openfoam.org
    \\  /    A nd           | Version:  7
     \\/     M anipulation  |
\*---------------------------------------------------------------------------*/
FoamFile
{
    version     2.0;
    format      ascii;
    class       volScalarField;
    location    "0.5";
    object      rho;
}
// * * * * * * * * * * * * * * * * * * * * * * * * * * * * * * * * * * * * * //

dimensions      [1 -3 0 0 0 0 0];

internalField   nonuniform List<scalar> 
16512
(
0.660758
0.66492
0.668936
0.672431
0.676906
0.682076
0.684192
0.684645
0.683836
0.680763
0.677965
0.676197
0.675229
0.674934
0.67555
0.679192
0.684235
0.686922
0.68838
0.689756
0.690635
0.690698
0.690156
0.689924
0.69035
0.691797
0.694939
0.699035
0.703299
0.706096
0.706864
0.706463
0.705027
0.703973
0.703578
0.703665
0.704069
0.704927
0.706239
0.707726
0.708521
0.70862
0.70782
0.706408
0.70653
0.707468
0.709988
0.713558
0.714971
0.715518
0.716026
0.716218
0.715546
0.712254
0.70944
0.708978
0.708929
0.709383
0.710817
0.713004
0.715508
0.718464
0.722304
0.724987
0.725754
0.725959
0.725926
0.726097
0.726701
0.727904
0.729042
0.72967
0.730269
0.730718
0.730891
0.730916
0.730793
0.730073
0.728388
0.726121
0.724514
0.723921
0.723308
0.723774
0.724879
0.725779
0.726406
0.727185
0.728161
0.729349
0.730808
0.731928
0.732624
0.732507
0.732109
0.733373
0.734789
0.735891
0.736617
0.737061
0.736824
0.736889
0.738827
0.741296
0.743981
0.747936
0.755122
0.766797
0.783802
0.811579
0.847916
0.860226
0.862342
0.863088
0.867937
0.87702
0.892607
0.918853
0.953253
0.986334
1.01385
1.03724
1.05988
1.08394
1.11487
1.17115
1.27773
1.37374
1.39466
1.39908
1.40339
1.40737
1.40896
1.40889
1.40871
1.40876
1.41154
1.42139
1.4268
1.42307
1.41746
1.41092
1.3981
1.37814
1.36761
1.36474
1.36354
1.36592
1.37993
1.40296
1.41736
1.4175
1.4143
1.41108
1.40787
1.40255
1.39521
1.39166
1.38967
1.38786
1.38698
1.38711
1.38866
1.38841
1.38706
1.38603
1.3851
1.38435
1.38398
1.38419
1.38808
1.39805
1.4049
1.40529
1.40464
1.40353
1.40212
1.40114
1.40056
1.40011
1.39985
1.40048
1.40414
1.40735
1.40733
1.40685
1.4065
1.40607
1.40537
1.40372
1.40025
1.39763
1.39716
1.39704
1.39786
1.40267
1.41159
1.41567
1.41573
1.41544
1.41519
1.41493
1.41461
1.41429
1.41407
1.41389
1.41378
1.41396
1.4154
1.41771
1.41847
1.41836
1.41821
1.41813
1.41805
1.41792
1.41779
1.4176
1.41732
1.41706
1.41692
1.41682
1.41673
1.41669
1.41696
1.41781
1.41822
1.41816
1.41806
1.418
1.41795
1.41793
1.41805
1.4186
1.42002
1.42202
1.42287
1.42287
1.42281
1.42276
1.42271
1.42265
1.42255
1.42243
1.42235
1.4223
1.42224
1.4222
1.42216
1.42212
1.4221
1.42212
1.4224
1.42322
1.42406
1.42423
1.42421
1.42419
0.661574
0.665147
0.669069
0.67253
0.676109
0.680191
0.683257
0.684204
0.684328
0.68401
0.682767
0.680798
0.678526
0.677329
0.677428
0.679843
0.68285
0.684846
0.686485
0.68813
0.690307
0.693061
0.694312
0.694253
0.694012
0.694614
0.696347
0.699047
0.701345
0.703173
0.705378
0.707342
0.707887
0.707741
0.706921
0.705662
0.705248
0.705772
0.706426
0.706923
0.707653
0.708
0.707977
0.707856
0.707956
0.708893
0.711085
0.714181
0.715685
0.716211
0.716551
0.71656
0.71578
0.713088
0.710037
0.709303
0.709272
0.709723
0.711056
0.712937
0.715167
0.717899
0.720948
0.723523
0.725062
0.725959
0.726715
0.727414
0.72834
0.729568
0.730639
0.731272
0.731764
0.73211
0.732289
0.732346
0.732147
0.731214
0.729336
0.726817
0.724415
0.722746
0.722935
0.724262
0.725869
0.726901
0.72773
0.728306
0.728843
0.729647
0.73048
0.731441
0.732455
0.732976
0.733732
0.73495
0.736004
0.736868
0.737366
0.737518
0.736572
0.736631
0.738337
0.740473
0.743384
0.747723
0.754924
0.767036
0.785551
0.812818
0.846468
0.86139
0.864389
0.866826
0.872008
0.881179
0.896626
0.920663
0.951051
0.979899
1.00241
1.02099
1.03917
1.06208
1.09751
1.15675
1.24676
1.3368
1.38037
1.39331
1.40372
1.4172
1.41778
1.4126
1.40828
1.40662
1.40647
1.40927
1.41331
1.41154
1.40726
1.40163
1.39415
1.38601
1.3779
1.37369
1.37226
1.37404
1.38373
1.39536
1.40304
1.4095
1.4111
1.40845
1.40477
1.40103
1.39722
1.39294
1.38849
1.38607
1.38459
1.38407
1.3843
1.38466
1.38452
1.38415
1.38381
1.38341
1.38309
1.38358
1.38772
1.39645
1.40305
1.40379
1.40327
1.40239
1.4012
1.40045
1.39999
1.3996
1.39936
1.39974
1.40254
1.40596
1.40631
1.40591
1.40562
1.40523
1.40458
1.40309
1.4006
1.39904
1.39853
1.39838
1.399
1.40266
1.40933
1.41432
1.41509
1.41489
1.41461
1.41437
1.41413
1.41393
1.41377
1.41364
1.41356
1.41374
1.41493
1.41704
1.41809
1.41803
1.41786
1.41775
1.41767
1.41755
1.41742
1.41727
1.41703
1.41681
1.4167
1.41661
1.41654
1.41651
1.41672
1.41747
1.41799
1.41797
1.4179
1.41785
1.41783
1.41784
1.41801
1.41854
1.41975
1.4216
1.42268
1.42274
1.42268
1.42263
1.42259
1.42253
1.42244
1.42232
1.42222
1.42218
1.42214
1.42211
1.42208
1.42206
1.42205
1.4221
1.42237
1.42309
1.42392
1.42418
1.42416
1.42416
0.665507
0.667663
0.670603
0.673419
0.676484
0.680059
0.682741
0.684199
0.685682
0.686977
0.687373
0.687456
0.686934
0.684911
0.682778
0.682521
0.683123
0.684658
0.686208
0.687817
0.690239
0.694121
0.698288
0.700919
0.701993
0.702502
0.70251
0.702403
0.702597
0.703504
0.705077
0.707892
0.710784
0.71195
0.712125
0.711857
0.710819
0.709298
0.707852
0.707458
0.707817
0.708038
0.708401
0.709155
0.710269
0.711697
0.713758
0.716415
0.718522
0.719267
0.719542
0.719569
0.719062
0.717485
0.715009
0.713198
0.712406
0.712269
0.712763
0.714011
0.715891
0.718276
0.721004
0.723439
0.724824
0.725697
0.726789
0.728495
0.730145
0.731387
0.732412
0.733445
0.734463
0.735218
0.735829
0.736195
0.735955
0.73442
0.731875
0.728694
0.725229
0.722679
0.722549
0.723641
0.725644
0.728466
0.730384
0.731186
0.731664
0.731908
0.731864
0.731476
0.731264
0.73217
0.734245
0.73637
0.737978
0.739171
0.739828
0.739735
0.737546
0.736568
0.737775
0.7394
0.742311
0.747065
0.754078
0.765378
0.78377
0.810062
0.842688
0.857324
0.860446
0.862775
0.8669
0.874655
0.888256
0.908741
0.935556
0.963241
0.982622
0.994408
1.00477
1.01999
1.04675
1.08902
1.14565
1.21501
1.28745
1.34766
1.39105
1.41992
1.42526
1.42174
1.41229
1.40666
1.40542
1.40606
1.40319
1.39969
1.39618
1.3923
1.38854
1.38621
1.38333
1.38133
1.38105
1.3843
1.39006
1.39346
1.39403
1.3957
1.40203
1.40403
1.40116
1.39929
1.39836
1.39712
1.39456
1.39064
1.38812
1.38662
1.38577
1.38549
1.38531
1.38515
1.3851
1.38512
1.3852
1.38633
1.38998
1.39608
1.40198
1.40398
1.40375
1.40311
1.40239
1.40192
1.40151
1.4011
1.40081
1.40101
1.40344
1.40639
1.40653
1.406
1.40557
1.40509
1.40415
1.40207
1.40064
1.40025
1.40006
1.40008
1.40101
1.40362
1.40788
1.41228
1.41469
1.41518
1.41507
1.41482
1.41459
1.41439
1.41424
1.41413
1.41408
1.41425
1.41529
1.41715
1.41823
1.41822
1.41806
1.41794
1.41788
1.41778
1.41765
1.41749
1.41725
1.41705
1.41695
1.41686
1.4168
1.41677
1.417
1.41775
1.41816
1.41812
1.41804
1.418
1.41798
1.41799
1.41814
1.41864
1.41981
1.4217
1.42282
1.42289
1.42283
1.42278
1.42272
1.42265
1.42253
1.42239
1.4223
1.42226
1.42223
1.4222
1.42217
1.42216
1.42215
1.42222
1.42253
1.42325
1.42404
1.42425
1.42422
1.42421
0.672648
0.673529
0.675479
0.677528
0.679922
0.683118
0.686498
0.68911
0.691254
0.693363
0.694986
0.695871
0.695928
0.695049
0.692561
0.689843
0.689187
0.689408
0.690574
0.692625
0.695226
0.698806
0.703974
0.709007
0.710976
0.711395
0.711345
0.710462
0.709756
0.709688
0.710365
0.713158
0.716467
0.717891
0.718442
0.718639
0.718483
0.717014
0.714372
0.712789
0.712746
0.713102
0.713421
0.713981
0.714971
0.71618
0.717493
0.718976
0.720954
0.722891
0.723969
0.724451
0.72451
0.723998
0.722653
0.721615
0.721166
0.720686
0.720528
0.721153
0.722396
0.72394
0.725699
0.727459
0.728976
0.730453
0.732204
0.733929
0.735036
0.735666
0.736215
0.736885
0.73774
0.738593
0.739288
0.73985
0.740059
0.739369
0.73749
0.734746
0.730608
0.726091
0.725051
0.725935
0.728085
0.731233
0.733675
0.734983
0.735839
0.736462
0.7364
0.73424
0.732697
0.733531
0.734901
0.73658
0.739041
0.741348
0.742691
0.743146
0.741002
0.738141
0.738232
0.73918
0.741788
0.746614
0.753492
0.763787
0.779521
0.802069
0.832233
0.852725
0.856998
0.859021
0.862068
0.86792
0.878263
0.893851
0.914968
0.930935
0.937659
0.94276
0.949438
0.960023
0.975374
0.995489
1.02359
1.06658
1.1301
1.21806
1.3258
1.40686
1.4294
1.42861
1.42042
1.40767
1.3988
1.39107
1.38465
1.38094
1.37945
1.3818
1.38775
1.39014
1.39056
1.39104
1.39166
1.39076
1.38957
1.38762
1.38561
1.38462
1.38662
1.39569
1.40222
1.40227
1.40237
1.40155
1.39892
1.39485
1.38958
1.38702
1.38598
1.3853
1.38504
1.38499
1.38485
1.38458
1.38545
1.38825
1.39183
1.39568
1.40013
1.40315
1.40341
1.40288
1.40237
1.40199
1.40162
1.4013
1.40114
1.4015
1.40398
1.40652
1.40647
1.40582
1.40512
1.40429
1.40298
1.40199
1.40155
1.40133
1.40122
1.40147
1.40273
1.40491
1.40754
1.41045
1.41314
1.41474
1.415
1.41488
1.41464
1.41442
1.41425
1.41416
1.41413
1.41441
1.41544
1.41708
1.41815
1.41817
1.41801
1.4179
1.41786
1.41778
1.41764
1.41747
1.41724
1.41705
1.41694
1.41686
1.41679
1.41679
1.41709
1.41785
1.41818
1.41812
1.41804
1.418
1.41798
1.41799
1.41814
1.41862
1.41978
1.4217
1.42286
1.42293
1.42286
1.42281
1.42276
1.42267
1.42254
1.42238
1.4223
1.42226
1.42223
1.4222
1.42217
1.42216
1.42215
1.42222
1.42256
1.42336
1.42413
1.42428
1.42425
1.42424
0.683571
0.683111
0.683776
0.685122
0.687158
0.690212
0.694229
0.698591
0.702691
0.705991
0.707621
0.708122
0.708123
0.707353
0.70447
0.700207
0.698838
0.698932
0.700376
0.703265
0.706487
0.709975
0.714882
0.720411
0.72207
0.722341
0.722037
0.721046
0.720786
0.721092
0.722761
0.726391
0.728606
0.728704
0.728484
0.728237
0.72766
0.725469
0.722295
0.721822
0.722715
0.72343
0.723859
0.724189
0.724293
0.724415
0.724549
0.724803
0.725939
0.728134
0.730468
0.731905
0.732331
0.732236
0.731594
0.731068
0.730828
0.730645
0.730375
0.730587
0.73133
0.732511
0.734054
0.735897
0.738011
0.74052
0.743327
0.745436
0.746186
0.746452
0.746571
0.746472
0.74606
0.745528
0.745037
0.744663
0.744249
0.743512
0.74219
0.740143
0.737147
0.734266
0.733883
0.734701
0.736469
0.738097
0.739083
0.740007
0.74082
0.741363
0.741447
0.740654
0.740468
0.740722
0.740129
0.739609
0.740845
0.742497
0.743759
0.744214
0.743828
0.74298
0.742531
0.743009
0.745156
0.749322
0.755657
0.764344
0.776055
0.793601
0.816838
0.842077
0.853054
0.856054
0.858164
0.861241
0.867558
0.880446
0.896678
0.902514
0.902882
0.902479
0.90635
0.911956
0.917889
0.925902
0.941219
0.968226
1.01036
1.07461
1.1788
1.32882
1.41624
1.42335
1.42027
1.40574
1.38437
1.37216
1.36733
1.36503
1.36752
1.38145
1.39542
1.40108
1.40188
1.40066
1.3978
1.39244
1.38556
1.37934
1.37704
1.37594
1.37684
1.38688
1.40157
1.40741
1.4072
1.4054
1.40278
1.39863
1.3916
1.38631
1.38479
1.3837
1.38296
1.38281
1.38378
1.38574
1.38814
1.39116
1.39434
1.39689
1.39891
1.40109
1.40245
1.40234
1.40195
1.40158
1.40123
1.40096
1.40086
1.40178
1.40431
1.40613
1.40596
1.40533
1.40467
1.40392
1.40323
1.40275
1.40247
1.4023
1.4022
1.40237
1.40362
1.40611
1.40865
1.4103
1.4115
1.41281
1.4142
1.4146
1.4144
1.41411
1.41396
1.41386
1.41385
1.41438
1.41594
1.41767
1.41806
1.41791
1.41771
1.41759
1.41754
1.41749
1.41736
1.41721
1.41704
1.41686
1.41676
1.41668
1.41663
1.41667
1.41718
1.41792
1.41806
1.41798
1.41791
1.41788
1.41786
1.41787
1.41801
1.41847
1.4196
1.42153
1.42284
1.42297
1.42291
1.42286
1.4228
1.42272
1.42257
1.42239
1.42229
1.42225
1.42222
1.42219
1.42216
1.42213
1.42212
1.4222
1.42262
1.42352
1.42424
1.42433
1.42429
1.42427
0.698102
0.695475
0.695424
0.696021
0.69773
0.700562
0.704455
0.709952
0.716983
0.721793
0.722892
0.723053
0.723026
0.722312
0.719561
0.714859
0.712964
0.712867
0.714242
0.717239
0.720126
0.723145
0.727326
0.73269
0.73509
0.735542
0.735435
0.735161
0.735355
0.736547
0.739779
0.74317
0.743736
0.743288
0.742307
0.741046
0.739218
0.736325
0.733526
0.733617
0.734953
0.736288
0.7373
0.737614
0.737135
0.735861
0.735418
0.735385
0.736194
0.738546
0.741133
0.743083
0.744621
0.745653
0.7459
0.74588
0.745687
0.745393
0.745113
0.744812
0.744797
0.745287
0.746206
0.747548
0.749549
0.752243
0.754982
0.757211
0.758695
0.759234
0.759474
0.759599
0.759357
0.758537
0.757505
0.756413
0.75513
0.753478
0.751239
0.747953
0.744829
0.74435
0.744839
0.746486
0.748804
0.749924
0.7505
0.75068
0.750402
0.749656
0.7489
0.749165
0.750075
0.750718
0.751005
0.750503
0.748754
0.746954
0.745812
0.745456
0.746298
0.747074
0.747229
0.748058
0.750838
0.754924
0.760139
0.767712
0.777544
0.789261
0.80613
0.827158
0.845871
0.853888
0.856631
0.858194
0.861323
0.870414
0.880521
0.882828
0.881626
0.882242
0.885402
0.886544
0.88551
0.888178
0.897481
0.914238
0.940601
0.980489
1.0451
1.16358
1.33529
1.40702
1.40957
1.39492
1.36639
1.35689
1.35555
1.35678
1.37009
1.39278
1.40428
1.40523
1.40388
1.40212
1.39888
1.39044
1.37536
1.36808
1.36668
1.36606
1.36836
1.38172
1.40138
1.40962
1.40892
1.40686
1.40443
1.40037
1.39306
1.38674
1.38457
1.38324
1.38208
1.38138
1.38212
1.38635
1.39093
1.39389
1.39574
1.3972
1.39829
1.39936
1.40092
1.40155
1.40115
1.40061
1.40022
1.40009
1.40084
1.4031
1.40496
1.4053
1.40484
1.4042
1.40385
1.40372
1.40347
1.40307
1.40279
1.40264
1.40261
1.40305
1.40473
1.40762
1.40995
1.4107
1.41084
1.41109
1.41206
1.41388
1.41502
1.41492
1.41461
1.41445
1.41441
1.41488
1.41639
1.41779
1.41795
1.41776
1.41762
1.41756
1.41755
1.41763
1.41761
1.41748
1.41735
1.41718
1.41704
1.41695
1.41689
1.41692
1.41743
1.41814
1.41823
1.41816
1.4181
1.41807
1.41805
1.41805
1.41817
1.41859
1.41966
1.42153
1.42286
1.42301
1.42295
1.42289
1.42282
1.42273
1.42258
1.42237
1.42225
1.42221
1.42218
1.42214
1.42211
1.42209
1.42208
1.42219
1.42267
1.42364
1.4243
1.42437
1.42432
1.4243
0.71372
0.708827
0.708242
0.708544
0.710188
0.713335
0.717613
0.723637
0.731983
0.737053
0.737688
0.737729
0.737278
0.736366
0.73471
0.732229
0.730885
0.730584
0.731467
0.733675
0.73529
0.737203
0.740178
0.744042
0.74709
0.74834
0.748992
0.749952
0.752019
0.755653
0.759406
0.760398
0.760124
0.758983
0.756658
0.753527
0.750625
0.749132
0.748622
0.748957
0.750562
0.751798
0.752181
0.7519
0.750127
0.747992
0.747393
0.747346
0.748608
0.751729
0.754864
0.757425
0.759609
0.761658
0.763469
0.764043
0.764081
0.764049
0.764025
0.763984
0.76378
0.763564
0.763903
0.764788
0.766253
0.768029
0.769459
0.770775
0.772353
0.773533
0.773775
0.773838
0.773627
0.772931
0.772157
0.771395
0.770464
0.768943
0.766712
0.763452
0.760206
0.759512
0.759873
0.76088
0.761981
0.76299
0.763795
0.764223
0.764257
0.763751
0.762836
0.762469
0.762651
0.762955
0.763144
0.762868
0.761488
0.759561
0.758394
0.757465
0.756674
0.756378
0.756087
0.756618
0.758905
0.762448
0.766928
0.77337
0.782229
0.792073
0.802899
0.817653
0.835936
0.849954
0.855813
0.858291
0.859992
0.863641
0.871996
0.874929
0.875591
0.877447
0.877182
0.874627
0.873299
0.87659
0.883578
0.892847
0.906683
0.929164
0.967114
1.03756
1.17793
1.34221
1.37923
1.37516
1.3582
1.35453
1.35476
1.36203
1.3808
1.3964
1.40206
1.4029
1.40163
1.39922
1.39528
1.38695
1.37614
1.37009
1.36795
1.36703
1.36873
1.3801
1.39917
1.40836
1.4082
1.40656
1.40451
1.40088
1.39292
1.38489
1.38235
1.3812
1.38036
1.38034
1.38312
1.38903
1.39385
1.39594
1.39687
1.3972
1.39717
1.39747
1.39863
1.39994
1.40078
1.40121
1.40109
1.40114
1.40211
1.40357
1.40469
1.40468
1.40419
1.40359
1.4032
1.40296
1.40287
1.40298
1.40314
1.4032
1.40336
1.40426
1.40637
1.40895
1.41041
1.41057
1.41034
1.41021
1.41054
1.41238
1.41459
1.41515
1.4149
1.41468
1.41468
1.41544
1.41702
1.41758
1.41746
1.41733
1.41728
1.4173
1.4174
1.41753
1.41753
1.41746
1.41734
1.41721
1.41708
1.41699
1.41695
1.41707
1.41773
1.41825
1.41824
1.41816
1.41811
1.41809
1.41808
1.41808
1.41819
1.41861
1.41966
1.42149
1.42282
1.42298
1.42292
1.42285
1.42278
1.42267
1.4225
1.42227
1.42212
1.42207
1.42204
1.42201
1.42198
1.42196
1.42197
1.42212
1.42272
1.42378
1.42441
1.42445
1.4244
1.42436
0.728656
0.723588
0.722822
0.722797
0.723888
0.727097
0.732039
0.738179
0.745512
0.750239
0.751065
0.751152
0.750548
0.749667
0.749324
0.749067
0.748228
0.747815
0.748151
0.748861
0.749552
0.750852
0.752826
0.755369
0.75788
0.759778
0.761632
0.764827
0.769834
0.774622
0.776441
0.776443
0.77579
0.773803
0.769924
0.765208
0.762962
0.762959
0.763721
0.764517
0.766213
0.767076
0.767186
0.766537
0.764169
0.762168
0.761509
0.761595
0.763613
0.766814
0.769525
0.772117
0.774808
0.777361
0.779549
0.781223
0.782043
0.782213
0.782293
0.782519
0.782749
0.782865
0.783237
0.783976
0.784777
0.785449
0.786096
0.786924
0.788093
0.789623
0.790468
0.790528
0.79037
0.789851
0.789192
0.788356
0.787227
0.785498
0.783126
0.780651
0.7792
0.778818
0.778791
0.778693
0.778519
0.779083
0.779715
0.780102
0.780403
0.780531
0.780567
0.780452
0.77994
0.779048
0.777878
0.776733
0.775648
0.774404
0.773562
0.773329
0.772769
0.771537
0.770748
0.77074
0.771449
0.773774
0.777876
0.783032
0.789938
0.798152
0.806481
0.816279
0.82918
0.843599
0.854031
0.859003
0.861174
0.862986
0.867403
0.872057
0.875442
0.877626
0.877874
0.875321
0.874731
0.878476
0.885101
0.892927
0.903895
0.922418
0.95205
1.00002
1.07669
1.20123
1.32298
1.35573
1.35885
1.35952
1.36506
1.37787
1.38729
1.38938
1.39046
1.39338
1.39345
1.39075
1.38587
1.37794
1.37153
1.36904
1.36808
1.36813
1.37173
1.38035
1.39223
1.40289
1.40564
1.40465
1.40272
1.40005
1.39535
1.38847
1.38446
1.38316
1.38246
1.38245
1.38557
1.39111
1.39456
1.39588
1.39643
1.39671
1.39692
1.39702
1.3972
1.3979
1.39926
1.40051
1.40183
1.40331
1.40409
1.40401
1.4037
1.40336
1.40303
1.40283
1.40272
1.40278
1.40338
1.40384
1.40376
1.40362
1.40391
1.40567
1.40857
1.41012
1.41025
1.40992
1.40965
1.40951
1.40965
1.41098
1.41348
1.41506
1.41529
1.41508
1.41507
1.41598
1.41747
1.41775
1.4176
1.41746
1.41739
1.41732
1.41729
1.41737
1.41735
1.41722
1.41715
1.41706
1.417
1.41696
1.41701
1.41738
1.41801
1.41827
1.4182
1.41812
1.41809
1.41807
1.41806
1.41806
1.41818
1.41857
1.41958
1.42148
1.42301
1.42322
1.42316
1.42308
1.42299
1.42286
1.42265
1.42236
1.42218
1.42212
1.42208
1.42204
1.42202
1.422
1.42201
1.42218
1.42283
1.42393
1.4245
1.42452
1.42446
1.42441
0.738974
0.736102
0.735348
0.735174
0.736326
0.740164
0.745671
0.751071
0.755666
0.759725
0.761769
0.762312
0.762401
0.762588
0.763355
0.764339
0.76435
0.763533
0.761943
0.76047
0.760433
0.761328
0.763003
0.765382
0.768197
0.771281
0.775491
0.781562
0.787058
0.789385
0.789656
0.789191
0.787509
0.784601
0.780538
0.777085
0.776163
0.776402
0.777465
0.778186
0.779522
0.780358
0.780408
0.779679
0.778063
0.777057
0.776675
0.777554
0.78028
0.782522
0.784553
0.78705
0.789678
0.792229
0.794816
0.796997
0.798217
0.798871
0.799411
0.800006
0.800694
0.801474
0.802152
0.802342
0.801856
0.801489
0.801929
0.802725
0.803729
0.805186
0.806966
0.807849
0.808221
0.808543
0.80848
0.807709
0.806178
0.803884
0.801198
0.799373
0.798725
0.798407
0.798077
0.797444
0.797205
0.797852
0.798773
0.799376
0.799798
0.800163
0.800344
0.8002
0.799511
0.7985
0.797626
0.797301
0.797072
0.79595
0.793484
0.79205
0.791387
0.790018
0.788921
0.788328
0.788376
0.790312
0.794641
0.799372
0.803682
0.808637
0.813891
0.820079
0.828696
0.839485
0.850547
0.859346
0.864407
0.866478
0.867697
0.871374
0.876951
0.880198
0.880505
0.878067
0.879046
0.884781
0.892923
0.902938
0.916583
0.935653
0.960976
0.993
1.0409
1.10742
1.21007
1.30947
1.35813
1.37822
1.38839
1.38979
1.38692
1.38234
1.37981
1.37846
1.3789
1.37929
1.37775
1.37661
1.37326
1.37085
1.37079
1.37291
1.37739
1.38184
1.38625
1.39276
1.39978
1.40125
1.40023
1.39823
1.39481
1.38992
1.38603
1.3845
1.3839
1.38412
1.38836
1.39356
1.39456
1.39448
1.39443
1.39484
1.39535
1.3952
1.39492
1.39543
1.39769
1.40114
1.40403
1.40463
1.40436
1.40393
1.4034
1.40269
1.40223
1.40196
1.40185
1.40217
1.40333
1.40404
1.40409
1.40429
1.40543
1.40781
1.40969
1.41015
1.40982
1.40953
1.40936
1.40926
1.40929
1.41015
1.41224
1.41435
1.41527
1.41561
1.41596
1.41679
1.41762
1.41767
1.4175
1.41737
1.41729
1.41726
1.41725
1.41721
1.41715
1.41718
1.41735
1.41734
1.4172
1.41714
1.41723
1.41779
1.41816
1.4181
1.41801
1.41796
1.41795
1.41794
1.41793
1.41794
1.41807
1.41845
1.41945
1.42142
1.42305
1.42331
1.42326
1.42319
1.4231
1.42295
1.4227
1.42237
1.42216
1.42209
1.42206
1.42202
1.42199
1.42197
1.42198
1.42218
1.42291
1.42405
1.42458
1.42459
1.42453
1.42447
0.7477
0.746769
0.746338
0.746748
0.749441
0.753918
0.757882
0.76078
0.763492
0.766625
0.769537
0.771727
0.773222
0.7744
0.775499
0.775896
0.775683
0.774196
0.770968
0.768618
0.76846
0.769236
0.771444
0.774883
0.779412
0.784931
0.79108
0.7953
0.796243
0.796288
0.796216
0.795461
0.793805
0.791776
0.789789
0.788632
0.78837
0.78892
0.78949
0.789612
0.790322
0.791385
0.791711
0.79161
0.791345
0.791241
0.791748
0.793761
0.795321
0.796377
0.798222
0.800715
0.803051
0.805484
0.80821
0.810402
0.811713
0.812891
0.814414
0.815968
0.817245
0.818167
0.818585
0.818546
0.817512
0.816889
0.817252
0.817979
0.818936
0.820389
0.822622
0.824764
0.825873
0.82637
0.826478
0.825955
0.824419
0.822116
0.819847
0.818616
0.818066
0.817617
0.817086
0.816548
0.816703
0.817619
0.819302
0.820365
0.82082
0.821023
0.820397
0.818681
0.81792
0.818311
0.819347
0.820499
0.821331
0.821012
0.818784
0.815446
0.81324
0.811537
0.810102
0.809022
0.809216
0.811373
0.815802
0.820861
0.823496
0.825376
0.827056
0.828627
0.831991
0.838639
0.848494
0.859146
0.868316
0.875261
0.881017
0.887786
0.892886
0.893514
0.892967
0.890066
0.891176
0.896408
0.905017
0.918005
0.935708
0.957054
0.981224
1.00705
1.03343
1.0721
1.13373
1.23238
1.33859
1.38969
1.39534
1.39363
1.38559
1.37524
1.3682
1.36558
1.36512
1.36963
1.37747
1.37877
1.37757
1.37575
1.37555
1.37774
1.38045
1.38172
1.38238
1.385
1.39149
1.39695
1.39743
1.39636
1.39401
1.39075
1.38825
1.38703
1.38643
1.38656
1.39024
1.39538
1.39605
1.39546
1.39518
1.39517
1.39498
1.39482
1.39502
1.39624
1.39919
1.40296
1.4047
1.40465
1.40412
1.40321
1.40224
1.40176
1.40145
1.40117
1.40096
1.40106
1.40225
1.4044
1.40571
1.40661
1.40791
1.40935
1.40992
1.40962
1.40926
1.40905
1.4089
1.40881
1.40899
1.40985
1.41127
1.41296
1.4147
1.41637
1.41746
1.41756
1.41739
1.41728
1.41722
1.41718
1.41712
1.41709
1.41706
1.417
1.41697
1.41705
1.41723
1.41734
1.41732
1.41731
1.41759
1.41818
1.41835
1.41827
1.41819
1.41814
1.41811
1.4181
1.41807
1.41806
1.41808
1.41838
1.41938
1.42136
1.42307
1.42339
1.42335
1.42328
1.42319
1.42301
1.4227
1.4223
1.42205
1.42198
1.42194
1.42191
1.42189
1.42187
1.4219
1.42217
1.423
1.42418
1.42468
1.42468
1.42462
1.42453
0.755917
0.756257
0.757112
0.759358
0.762859
0.765467
0.766734
0.767896
0.769846
0.773015
0.776484
0.779086
0.781119
0.78248
0.782963
0.783017
0.782247
0.780355
0.777892
0.776405
0.776307
0.777245
0.780491
0.785889
0.792284
0.797533
0.799719
0.800327
0.800448
0.799528
0.798986
0.799035
0.799116
0.799221
0.799864
0.800337
0.800356
0.800248
0.799648
0.798853
0.799397
0.80059
0.801615
0.802655
0.803909
0.804827
0.805797
0.806797
0.806982
0.807749
0.809771
0.812141
0.81435
0.816808
0.819589
0.821898
0.823626
0.825654
0.828183
0.830278
0.831477
0.832045
0.832303
0.832184
0.83124
0.830949
0.8314
0.832364
0.833641
0.835142
0.837162
0.839717
0.841544
0.842054
0.842095
0.841573
0.840265
0.838558
0.837164
0.83642
0.836076
0.835852
0.83568
0.835794
0.836565
0.838488
0.840337
0.840907
0.84112
0.84053
0.838316
0.836943
0.837343
0.839159
0.842289
0.845395
0.847137
0.847155
0.845746
0.842209
0.838107
0.836107
0.835011
0.833598
0.833543
0.835321
0.839469
0.844083
0.845337
0.845651
0.846009
0.845221
0.844307
0.845937
0.851569
0.860485
0.872887
0.887286
0.900657
0.912466
0.920289
0.921711
0.92141
0.92041
0.923277
0.929514
0.939118
0.954583
0.976095
0.999872
1.02175
1.03959
1.05609
1.07802
1.11612
1.18089
1.29254
1.37855
1.39067
1.39027
1.38097
1.36239
1.3544
1.35304
1.35378
1.3643
1.37838
1.38244
1.38257
1.3819
1.3806
1.37954
1.37943
1.37943
1.3796
1.3807
1.38443
1.39089
1.39417
1.39397
1.39316
1.39152
1.38991
1.38921
1.38885
1.38895
1.39148
1.39558
1.39623
1.39536
1.39492
1.39473
1.39439
1.39412
1.39419
1.39648
1.40142
1.40459
1.40479
1.40431
1.40355
1.40224
1.40101
1.40059
1.40027
1.39998
1.39977
1.39971
1.40161
1.40587
1.40874
1.40946
1.40957
1.40945
1.40924
1.40901
1.4088
1.40862
1.40848
1.4084
1.40858
1.40926
1.41033
1.41199
1.41476
1.41757
1.41831
1.41818
1.41785
1.41746
1.41727
1.41715
1.41705
1.41698
1.41691
1.41686
1.41683
1.41688
1.41703
1.41715
1.41737
1.41781
1.41838
1.41846
1.41833
1.41826
1.41821
1.41817
1.41814
1.41811
1.41808
1.41806
1.41807
1.41831
1.41922
1.4212
1.42302
1.42338
1.42334
1.42328
1.42321
1.42309
1.42286
1.42247
1.42215
1.42204
1.422
1.42197
1.42194
1.42192
1.42196
1.42224
1.4231
1.42429
1.42476
1.42477
1.42471
1.42459
0.763148
0.765035
0.767348
0.769948
0.771749
0.772335
0.772731
0.77357
0.775355
0.77869
0.782239
0.784125
0.785396
0.786567
0.787165
0.787305
0.786856
0.786032
0.785335
0.785116
0.785459
0.787309
0.791542
0.796436
0.799825
0.801773
0.802799
0.803003
0.802647
0.802765
0.803157
0.803814
0.805501
0.808529
0.810898
0.811157
0.81053
0.80886
0.806734
0.80625
0.806967
0.808368
0.810381
0.81301
0.815098
0.815596
0.815738
0.81567
0.815543
0.816374
0.818718
0.821661
0.824431
0.827237
0.830335
0.83332
0.836098
0.838828
0.840919
0.84219
0.84281
0.843102
0.843234
0.842994
0.842643
0.843023
0.843869
0.845265
0.846909
0.848431
0.849985
0.851922
0.853792
0.854307
0.854456
0.854413
0.854024
0.853469
0.853014
0.852848
0.852885
0.85323
0.853898
0.854919
0.856713
0.858715
0.859359
0.8594
0.858621
0.856362
0.854748
0.855091
0.856416
0.858825
0.8631
0.868746
0.872368
0.872165
0.870928
0.868579
0.864472
0.861714
0.86124
0.860838
0.8604
0.861355
0.864129
0.867373
0.868031
0.867568
0.866967
0.867126
0.866113
0.864104
0.864738
0.870542
0.884878
0.905665
0.927508
0.94663
0.957734
0.959263
0.958947
0.959483
0.963416
0.970116
0.9805
0.998319
1.02695
1.05955
1.0797
1.08974
1.09918
1.1113
1.13063
1.17072
1.24783
1.35008
1.37964
1.38111
1.37262
1.35184
1.34509
1.34433
1.347
1.36231
1.38008
1.38436
1.38458
1.38449
1.38366
1.38087
1.377
1.37577
1.3756
1.37642
1.37922
1.38543
1.39204
1.39423
1.39419
1.39338
1.39198
1.39132
1.39106
1.39101
1.39227
1.39517
1.39507
1.39411
1.39341
1.39301
1.39277
1.3929
1.39457
1.39866
1.40309
1.40463
1.40445
1.40396
1.40306
1.4012
1.3998
1.39934
1.39899
1.39869
1.39854
1.39957
1.40344
1.40877
1.41078
1.41078
1.41048
1.40993
1.40914
1.40868
1.40849
1.40833
1.4082
1.40811
1.40809
1.40833
1.40942
1.41202
1.41593
1.41828
1.41842
1.41821
1.4179
1.41753
1.41722
1.41703
1.41691
1.41679
1.41671
1.41665
1.41663
1.41666
1.41682
1.41718
1.41787
1.41866
1.4188
1.41862
1.41836
1.41825
1.4182
1.41815
1.41811
1.41807
1.41803
1.418
1.41801
1.41827
1.41925
1.42127
1.42309
1.42347
1.42344
1.42338
1.4233
1.42317
1.42293
1.42251
1.42214
1.42202
1.42198
1.42195
1.42192
1.42191
1.42195
1.42227
1.42319
1.4244
1.42486
1.42486
1.42481
1.42467
0.769065
0.771799
0.774355
0.776076
0.776931
0.777357
0.777926
0.779129
0.781211
0.784198
0.786583
0.787137
0.787707
0.788971
0.790052
0.790827
0.791438
0.791971
0.792642
0.79373
0.795556
0.79818
0.800503
0.801528
0.802163
0.803343
0.804631
0.805473
0.806144
0.807023
0.808443
0.811073
0.81517
0.818352
0.818886
0.818187
0.81607
0.813436
0.812211
0.8124
0.813473
0.815822
0.819312
0.822268
0.82304
0.822837
0.82227
0.821788
0.821933
0.823347
0.826333
0.830382
0.834258
0.83773
0.84146
0.845459
0.84884
0.85036
0.850748
0.851119
0.851506
0.851683
0.851615
0.851688
0.852223
0.853097
0.854376
0.856042
0.857696
0.859024
0.860122
0.861457
0.863244
0.864587
0.865463
0.866326
0.86713
0.86788
0.868439
0.868867
0.869338
0.870114
0.871364
0.873094
0.874839
0.875463
0.875382
0.874581
0.87273
0.871298
0.871686
0.873121
0.874935
0.877294
0.881165
0.886829
0.892036
0.89492
0.895559
0.894776
0.892654
0.889755
0.888344
0.888418
0.888594
0.888231
0.888902
0.890445
0.891635
0.891663
0.891036
0.890405
0.890932
0.890312
0.889629
0.89276
0.905119
0.926356
0.952429
0.979527
1.00002
1.00494
1.00515
1.00629
1.0101
1.01607
1.02557
1.04257
1.0722
1.11163
1.13866
1.14761
1.15159
1.15861
1.17173
1.19339
1.23859
1.31571
1.35843
1.36295
1.35954
1.34444
1.33918
1.33936
1.34412
1.36041
1.37855
1.38377
1.3841
1.38429
1.38409
1.38283
1.38004
1.37717
1.3757
1.37499
1.37583
1.38154
1.39086
1.39552
1.39573
1.39504
1.39352
1.39224
1.39172
1.39159
1.39212
1.39347
1.39541
1.39596
1.39505
1.39412
1.39373
1.39396
1.39643
1.40091
1.40352
1.40356
1.40312
1.4027
1.40195
1.40031
1.39841
1.3977
1.39739
1.39722
1.39782
1.40132
1.40772
1.41137
1.41151
1.41113
1.4106
1.40995
1.40916
1.40846
1.40814
1.40796
1.4078
1.40766
1.40755
1.40763
1.40876
1.41228
1.4169
1.41841
1.41832
1.41808
1.41777
1.41738
1.41711
1.41694
1.4168
1.41666
1.41655
1.41645
1.41637
1.41633
1.41647
1.41729
1.41857
1.41906
1.41898
1.41875
1.41842
1.41815
1.41805
1.41799
1.41793
1.41788
1.41784
1.41781
1.41783
1.41811
1.41913
1.42125
1.42316
1.42354
1.42351
1.42344
1.42336
1.42322
1.42295
1.42248
1.42207
1.42194
1.4219
1.42187
1.42185
1.42184
1.42189
1.42228
1.42329
1.42454
1.42496
1.42496
1.4249
1.42474
0.77351
0.77639
0.778758
0.780357
0.78148
0.782561
0.783819
0.785511
0.787597
0.788831
0.789057
0.788999
0.789489
0.790902
0.792415
0.793921
0.795544
0.797325
0.799487
0.802092
0.804261
0.805127
0.805263
0.805136
0.805111
0.805576
0.806684
0.808268
0.810276
0.81293
0.816619
0.82086
0.82328
0.823598
0.823143
0.82149
0.818801
0.81726
0.817315
0.818135
0.820539
0.824874
0.828212
0.829012
0.829049
0.828514
0.827492
0.82724
0.827923
0.830332
0.834353
0.839091
0.843531
0.847994
0.852884
0.856739
0.857814
0.857993
0.857857
0.857629
0.857955
0.858278
0.858582
0.859131
0.860065
0.86139
0.862924
0.864513
0.866038
0.867349
0.868512
0.869876
0.871826
0.874111
0.87627
0.87851
0.880613
0.882103
0.883065
0.883762
0.884385
0.885146
0.886144
0.887391
0.888162
0.888133
0.88771
0.886624
0.886015
0.886769
0.888837
0.890996
0.892172
0.893439
0.896281
0.901298
0.907124
0.912916
0.918762
0.9212
0.920577
0.91898
0.9171
0.916012
0.91575
0.915386
0.914424
0.914197
0.914928
0.91548
0.915735
0.915774
0.917046
0.918677
0.919693
0.923452
0.934047
0.952063
0.976598
1.0066
1.03419
1.04526
1.04953
1.0534
1.05733
1.06202
1.06975
1.08396
1.1084
1.14311
1.17122
1.18486
1.19374
1.20547
1.22234
1.24092
1.26222