/*--------------------------------*- C++ -*----------------------------------*\
  =========                 |
  \\      /  F ield         | OpenFOAM: The Open Source CFD Toolbox
   \\    /   O peration     | Website:  https://openfoam.org
    \\  /    A nd           | Version:  7
     \\/     M anipulation  |
\*---------------------------------------------------------------------------*/
FoamFile
{
    version     2.0;
    format      ascii;
    class       volScalarField;
    location    "0.5";
    object      T;
}
// * * * * * * * * * * * * * * * * * * * * * * * * * * * * * * * * * * * * * //

dimensions      [0 0 0 1 0 0 0];

internalField   nonuniform List<scalar> 
16512
(
1.80908
1.81086
1.81087
1.80982
1.80679
1.80215
1.7961
1.79169
1.78837
1.78572
1.78526
1.78672
1.79321
1.8046
1.81659
1.82582
1.83035
1.83111
1.83078
1.82871
1.8237
1.81668
1.80956
1.80477
1.8026
1.80203
1.80279
1.80585
1.81046
1.81383
1.81557
1.81658
1.81768
1.81939
1.82126
1.82303
1.82462
1.82649
1.8289
1.83165
1.83374
1.83485
1.83488
1.83444
1.83498
1.83612
1.8384
1.84231
1.84517
1.84776
1.85165
1.85753
1.86405
1.86962
1.8751
1.87851
1.8793
1.87987
1.88045
1.88062
1.88021
1.8783
1.87509
1.87061
1.86611
1.86408
1.86373
1.864
1.86542
1.86804
1.87004
1.87096
1.87136
1.87135
1.87132
1.87143
1.8718
1.87249
1.87413
1.87805
1.88496
1.89098
1.89233
1.89325
1.89341
1.89293
1.8917
1.89077
1.89036
1.8903
1.89045
1.89016
1.88898
1.88643
1.88354
1.88175
1.87864
1.87496
1.87232
1.8709
1.86901
1.86682
1.86509
1.86074
1.85195
1.83801
1.81815
1.78821
1.74265
1.68787
1.64189
1.60566
1.58448
1.57306
1.56458
1.54945
1.52126
1.47791
1.42433
1.3744
1.33938
1.3162
1.29623
1.27078
1.23082
1.16852
1.08373
0.998289
0.953858
0.946749
0.946638
0.947846
0.95175
0.957383
0.96315
0.968716
0.974891
0.981581
0.984784
0.984908
0.985417
0.985613
0.983847
0.97849
0.975687
0.975329
0.975304
0.976548
0.981442
0.988886
0.994181
0.994734
0.994805
0.995356
0.995951
0.995851
0.995115
0.995262
0.996189
0.997436
0.998694
1.00013
1.00151
1.00158
1.0014
1.00114
1.00054
0.999623
0.998827
0.998511
0.998876
1.00077
1.00226
1.00217
1.00143
1.00063
1.00006
0.999721
0.9995
0.999337
0.99926
0.99945
1.00055
1.00159
1.00163
1.00164
1.0017
1.0017
1.00165
1.00129
1.00032
0.99958
0.999468
0.999441
0.999683
1.00105
1.00351
1.0046
1.00459
1.00444
1.0043
1.00419
1.00409
1.004
1.00393
1.00389
1.00387
1.00393
1.00436
1.00504
1.00527
1.00524
1.00521
1.0052
1.00517
1.00513
1.00509
1.00504
1.00495
1.00488
1.00483
1.0048
1.00477
1.00475
1.00482
1.00506
1.00518
1.00516
1.00513
1.00512
1.00511
1.0051
1.00514
1.0053
1.00571
1.00627
1.00651
1.00651
1.00649
1.00648
1.00647
1.00645
1.00642
1.00638
1.00636
1.00634
1.00633
1.00631
1.0063
1.00629
1.00629
1.00629
1.00637
1.0066
1.00684
1.00689
1.00688
1.00688
1.80673
1.80863
1.80867
1.80777
1.80422
1.79815
1.79194
1.78806
1.7867
1.78635
1.7865
1.78792
1.79293
1.80276
1.8142
1.82292
1.82579
1.8261
1.82585
1.82424
1.82089
1.81639
1.8107
1.80513
1.80147
1.80032
1.80031
1.80165
1.80384
1.80634
1.81004
1.81455
1.81827
1.82067
1.82193
1.8225
1.82324
1.82494
1.8265
1.82795
1.82984
1.83173
1.83316
1.83396
1.83465
1.83574
1.83778
1.84134
1.84434
1.84693
1.85062
1.85599
1.86204
1.86788
1.873
1.87606
1.87681
1.8773
1.87776
1.87779
1.87724
1.87531
1.8717
1.86718
1.86357
1.86252
1.86265
1.86326
1.86508
1.86774
1.86972
1.87067
1.87097
1.87096
1.87096
1.87115
1.87151
1.87204
1.87341
1.87693
1.88294
1.8879
1.89124
1.893
1.89317
1.89266
1.89174
1.89067
1.88975
1.88926
1.88882
1.88837
1.88768
1.88605
1.88423
1.88209
1.87884
1.87516
1.87243
1.87077
1.86802
1.86613
1.86439
1.85974
1.85101
1.83743
1.81792
1.78948
1.74715
1.69284
1.64365
1.60762
1.58695
1.57672
1.56841
1.55446
1.52839
1.48701
1.43574
1.38817
1.35366
1.32965
1.3081
1.28173
1.24279
1.18307
1.10188
1.01978
0.967971
0.951098
0.949721
0.952164
0.955976
0.958983
0.962791
0.967341
0.972344
0.977678
0.981709
0.983051
0.983942
0.984189
0.983579
0.981816
0.979728
0.978914
0.978805
0.979714
0.983242
0.987287
0.990313
0.993168
0.994429
0.99445
0.994777
0.995103
0.995303
0.99542
0.995706
0.996632
0.997799
0.999047
1.00014
1.00063
1.00064
1.00053
1.00012
0.999355
0.998608
0.998383
0.998713
1.00024
1.00167
1.00169
1.00108
1.00033
0.999795
0.999522
0.999337
0.999188
0.999118
0.999235
1.00009
1.00118
1.00136
1.00137
1.00145
1.00147
1.00143
1.00111
1.00041
0.999982
0.99986
0.999827
1.00001
1.00104
1.00287
1.0042
1.00438
1.00428
1.00414
1.00403
1.00395
1.00389
1.00385
1.00382
1.0038
1.00386
1.00423
1.00485
1.00516
1.00515
1.00511
1.00509
1.00507
1.00503
1.00499
1.00494
1.00487
1.0048
1.00477
1.00474
1.00471
1.0047
1.00476
1.00497
1.00511
1.00511
1.00508
1.00507
1.00507
1.00508
1.00513
1.00529
1.00563
1.00615
1.00646
1.00648
1.00646
1.00644
1.00643
1.00641
1.00639
1.00635
1.00632
1.00631
1.0063
1.00629
1.00628
1.00628
1.00627
1.00629
1.00636
1.00657
1.0068
1.00688
1.00687
1.00687
1.7996
1.80158
1.8016
1.80064
1.79716
1.79067
1.7824
1.77797
1.77779
1.77825
1.77943
1.78269
1.78859
1.79658
1.80568
1.81303
1.81599
1.81626
1.81585
1.81425
1.81146
1.80782
1.80331
1.79886
1.79549
1.79356
1.79214
1.79154
1.79175
1.79354
1.79762
1.80401
1.81068
1.81536
1.81819
1.81958
1.82004
1.82003
1.81958
1.81955
1.82093
1.82296
1.8251
1.82724
1.82931
1.8314
1.83409
1.83771
1.84131
1.84413
1.84742
1.85186
1.85712
1.86278
1.86775
1.87005
1.87011
1.86987
1.86985
1.86973
1.86914
1.86746
1.86419
1.85995
1.85653
1.85534
1.85532
1.85653
1.85914
1.86178
1.8639
1.86562
1.8669
1.86767
1.86832
1.86897
1.86924
1.86938
1.87017
1.87286
1.87761
1.88192
1.8853
1.88741
1.88821
1.88907
1.88923
1.88873
1.88776
1.88666
1.88533
1.88361
1.88203
1.88153
1.88107
1.88007
1.87784
1.87487
1.87241
1.87007
1.86615
1.86324
1.86136
1.85663
1.84833
1.83568
1.81706
1.79077
1.7535
1.70314
1.65216
1.61082
1.58707
1.57606
1.56779
1.55604
1.53535
1.5026
1.46365
1.42906
1.40212
1.38009
1.35806
1.33102
1.29371
1.24128
1.17368
1.10015
1.03407
0.985559
0.963123
0.961565
0.96215
0.962425
0.963241
0.966006
0.970428
0.975617
0.979078
0.981814
0.983682
0.984342
0.984362
0.984483
0.984273
0.984062
0.984096
0.985285
0.987128
0.988452
0.989033
0.990113
0.992588
0.993663
0.993507
0.99397
0.994901
0.995947
0.996707
0.99725
0.998208
0.999448
1.00046
1.00083
1.00085
1.00077
1.00043
0.999832
0.999274
0.999103
0.999234
1.00004
1.00127
1.00159
1.00128
1.00062
1.00014
0.999906
0.999739
0.9996
0.999521
0.999592
1.00035
1.00131
1.00141
1.0014
1.00146
1.00147
1.00134
1.00081
1.00042
1.00034
1.0003
1.00032
1.00059
1.0013
1.00244
1.00361
1.00424
1.00434
1.00429
1.00417
1.00408
1.00403
1.00399
1.00396
1.00395
1.00401
1.00433
1.00488
1.0052
1.00521
1.00517
1.00514
1.00512
1.00509
1.00505
1.005
1.00493
1.00487
1.00484
1.00481
1.00478
1.00477
1.00483
1.00504
1.00516
1.00515
1.00513
1.00512
1.00511
1.00512
1.00517
1.00531
1.00565
1.00618
1.0065
1.00652
1.0065
1.00648
1.00647
1.00644
1.00641
1.00637
1.00634
1.00633
1.00632
1.00631
1.00631
1.0063
1.0063
1.00632
1.00641
1.00661
1.00684
1.0069
1.00689
1.00689
1.78285
1.78653
1.78683
1.78604
1.78309
1.77717
1.76868
1.76219
1.76088
1.76125
1.76291
1.76645
1.77171
1.77856
1.78684
1.79494
1.79949
1.79982
1.79939
1.79805
1.79546
1.79121
1.78617
1.78161
1.77741
1.77463
1.77339
1.77284
1.7729
1.77413
1.77791
1.78504
1.79338
1.79971
1.80408
1.80706
1.80872
1.80888
1.80768
1.80648
1.80693
1.8086
1.81067
1.81331
1.81657
1.81998
1.82333
1.82666
1.83029
1.83392
1.83715
1.84053
1.84462
1.84892
1.85305
1.85593
1.85688
1.85684
1.85637
1.85627
1.85579
1.85428
1.85128
1.84718
1.84406
1.84312
1.84324
1.84437
1.84633
1.84825
1.85018
1.85222
1.85423
1.85592
1.85725
1.85851
1.85985
1.86099
1.86272
1.86608
1.87005
1.87233
1.87445
1.87693
1.87839
1.87981
1.88058
1.88059
1.88031
1.87981
1.87866
1.87531
1.87313
1.87335
1.87308
1.87248
1.87205
1.87127
1.86977
1.86797
1.86374
1.859
1.85586
1.85111
1.84356
1.83226
1.81542
1.7921
1.76032
1.71695
1.66779
1.62254
1.59156
1.5773
1.56914
1.56054
1.54747
1.52808
1.50634
1.48378
1.46214
1.44488
1.42885
1.40958
1.38334
1.34761
1.30131
1.24206
1.16819
1.08854
1.02408
0.986422
0.971185
0.96652
0.965782
0.966117
0.967865
0.970398
0.973646
0.977486
0.980824
0.984246
0.987412
0.989133
0.990075
0.9909
0.991392
0.991184
0.990394
0.989306
0.988689
0.988469
0.989053
0.991637
0.993959
0.994607
0.995419
0.996267
0.99686
0.997373
0.99773
0.998575
0.999812
1.00049
1.00061
1.00058
1.00029
0.999642
0.999422
0.999433
0.999566
0.99996
1.00074
1.00126
1.00118
1.00065
1.00016
0.999892
0.999737
0.999641
0.999606
0.999729
1.00051
1.00135
1.00139
1.00135
1.00134
1.00128
1.001
1.00076
1.00069
1.00066
1.00065
1.00073
1.00109
1.00166
1.00232
1.00307
1.00379
1.00421
1.00426
1.00421
1.00411
1.00404
1.004
1.00398
1.00397
1.00406
1.00438
1.00486
1.00518
1.00519
1.00515
1.00513
1.00512
1.00509
1.00505
1.005
1.00493
1.00487
1.00483
1.0048
1.00478
1.00478
1.00486
1.00507
1.00517
1.00515
1.00513
1.00512
1.00512
1.00512
1.00517
1.00531
1.00564
1.00618
1.00651
1.00653
1.00651
1.00649
1.00648
1.00645
1.00641
1.00637
1.00634
1.00633
1.00632
1.00631
1.00631
1.0063
1.0063
1.00632
1.00642
1.00665
1.00686
1.00691
1.0069
1.00689
1.75494
1.76074
1.7616
1.76115
1.75917
1.75484
1.74795
1.74051
1.73748
1.73761
1.73867
1.74056
1.7435
1.7481
1.75462
1.76211
1.76942
1.77332
1.77372
1.7734
1.77222
1.76874
1.76265
1.75583
1.74876
1.74466
1.74311
1.74274
1.74309
1.74528
1.75079
1.75959
1.76804
1.77429
1.77969
1.784
1.78609
1.78607
1.78424
1.78384
1.78519
1.78701
1.7893
1.79266
1.79671
1.80106
1.8051
1.80855
1.81188
1.81509
1.8181
1.82043
1.82231
1.82413
1.82587
1.8276
1.82879
1.82928
1.8292
1.82928
1.82927
1.82889
1.82757
1.82526
1.82358
1.82349
1.82424
1.82587
1.8272
1.82845
1.83011
1.83195
1.83366
1.83518
1.8365
1.83782
1.83925
1.84099
1.84357
1.8476
1.85249
1.85661
1.86011
1.86274
1.86382
1.86396
1.86377
1.86355
1.8633
1.86302
1.86248
1.86138
1.86135
1.86158
1.86067
1.85961
1.85994
1.85973
1.85921
1.85826
1.85623
1.85332
1.8494
1.84439
1.83766
1.8278
1.81329
1.79256
1.76485
1.72967
1.68541
1.64004
1.60225
1.58118
1.57148
1.5649
1.55835
1.55206
1.54596
1.53476
1.51947
1.5058
1.49648
1.48533
1.4699
1.44972
1.42331
1.38445
1.32503
1.24145
1.1449
1.06189
1.0047
0.97603
0.967895
0.96568
0.964934
0.965218
0.967782
0.972511
0.978754
0.986444
0.992456
0.995706
0.997031
0.997208
0.997011
0.995576
0.992806
0.99002
0.988709
0.987941
0.987857
0.990018
0.994105
0.996212
0.996613
0.996872
0.997275
0.997458
0.997179
0.997088
0.997916
0.999062
0.999573
0.999757
0.999923
0.999909
0.999899
1.00002
1.00033
1.00049
1.00051
1.00064
1.00077
1.00057
1.00013
0.999799
0.999634
0.999548
0.999527
0.999825
1.00065
1.00127
1.00127
1.00122
1.0012
1.00113
1.00103
1.00097
1.00096
1.00095
1.00095
1.001
1.00135
1.00199
1.00261
1.00302
1.00331
1.00364
1.00402
1.00412
1.00405
1.00396
1.00392
1.0039
1.0039
1.00407
1.00453
1.00504
1.00515
1.00512
1.00506
1.00504
1.00502
1.00501
1.00497
1.00492
1.00486
1.00481
1.00478
1.00475
1.00473
1.00475
1.00489
1.00509
1.00514
1.00511
1.0051
1.00509
1.00509
1.00509
1.00513
1.00527
1.00559
1.00613
1.0065
1.00654
1.00652
1.0065
1.00649
1.00646
1.00642
1.00637
1.00634
1.00633
1.00632
1.00631
1.0063
1.0063
1.00629
1.00632
1.00644
1.00669
1.00689
1.00692
1.00691
1.0069
1.7164
1.72528
1.72795
1.72793
1.72697
1.72421
1.71925
1.71333
1.70968
1.70818
1.70774
1.70794
1.70893
1.71125
1.71531
1.72127
1.73003
1.73737
1.74034
1.74066
1.74026
1.73795
1.73238
1.72435
1.71523
1.70955
1.70779
1.70753
1.7081
1.71118
1.71836
1.72727
1.73433
1.74049
1.74709
1.75261
1.75483
1.75476
1.75337
1.75365
1.75551
1.7578
1.76089
1.76507
1.76953
1.77441
1.77997
1.78453
1.78804
1.79052
1.79227
1.79329
1.79335
1.79306
1.7923
1.79212
1.79224
1.79255
1.79296
1.7931
1.79325
1.79385
1.79384
1.79328
1.79283
1.79306
1.79401
1.79531
1.79671
1.79813
1.79991
1.80228
1.80474
1.80706
1.80923
1.81114
1.81276
1.81436
1.81645
1.81947
1.82372
1.82963
1.83502
1.83851
1.84047
1.84064
1.84049
1.83989
1.83868
1.83746
1.83675
1.83722
1.83875
1.84039
1.84187
1.84247
1.84223
1.84137
1.84022
1.83929
1.83907
1.83782
1.83459
1.83039
1.82571
1.81832
1.8066
1.78999
1.76693
1.73654
1.70004
1.65819
1.61855
1.58971
1.57541
1.56882
1.56585
1.5657
1.56561
1.56259
1.55318
1.54461
1.53866
1.5306
1.51745
1.50373
1.48756
1.46379
1.42716
1.37015
1.28582
1.18271
1.08653
1.01131
0.975766
0.965066
0.961761
0.961768
0.964155
0.970079
0.979952
0.990377
0.996668
0.999218
1.00025
1.00056
1.00025
0.997698
0.99207
0.988575
0.987319
0.986572
0.986697
0.989509
0.994877
0.997457
0.99732
0.997199
0.997299
0.997239
0.996455
0.995971
0.996441
0.997683
0.998601
0.998873
0.999176
0.999908
1.00049
1.00079
1.00083
1.00076
1.00049
1.00029
1.00032
1.00032
0.999973
0.999566
0.999363
0.999312
0.999523
1.00021
1.00089
1.00105
1.00097
1.00093
1.00095
1.00104
1.00107
1.00105
1.00105
1.00106
1.00107
1.00122
1.00166
1.0024
1.00298
1.00313
1.00313
1.00316
1.00339
1.0039
1.00422
1.00419
1.00411
1.00407
1.00407
1.00422
1.00467
1.00508
1.00513
1.00508
1.00505
1.00503
1.00502
1.00504
1.00504
1.00499
1.00495
1.0049
1.00485
1.00482
1.00481
1.00481
1.00496
1.00516
1.00519
1.00517
1.00515
1.00515
1.00514
1.00514
1.00518
1.0053
1.0056
1.00613
1.00651
1.00655
1.00653
1.00651
1.00649
1.00647
1.00642
1.00636
1.00633
1.00632
1.00631
1.0063
1.00629
1.00629
1.00628
1.00631
1.00645
1.00672
1.00691
1.00693
1.00692
1.00691
1.67456
1.68323
1.68913
1.69098
1.69086
1.68969
1.68711
1.68379
1.68113
1.67801
1.67427
1.67278
1.67269
1.67321
1.67534
1.68033
1.68916
1.69853
1.7039
1.70503
1.70478
1.7033
1.69905
1.6912
1.68165
1.67494
1.67276
1.67262
1.67398
1.67896
1.68629
1.69222
1.69722
1.70302
1.70942
1.71476
1.71811
1.72011
1.72094
1.722
1.72405
1.72615
1.72888
1.73221
1.73594
1.74125
1.74803
1.75367
1.75763
1.75977
1.7609
1.76104
1.7604
1.75838
1.75538
1.75273
1.75209
1.75219
1.75258
1.75322
1.75391
1.75471
1.75603
1.757
1.75745
1.75778
1.75793
1.75811
1.75885
1.76049
1.76238
1.76458
1.76707
1.76989
1.77319
1.77661
1.77971
1.7822
1.78462
1.78736
1.79091
1.79614
1.80111
1.80403
1.8058
1.80688
1.80703
1.80696
1.80674
1.80607
1.80546
1.80546
1.80637
1.80818
1.81025
1.81225
1.81432
1.81692
1.81849
1.81825
1.81718
1.81539
1.81224
1.80835
1.80435
1.79861
1.79008
1.77857
1.76243
1.73882
1.70776
1.67249
1.63562
1.60245
1.58118
1.57276
1.56951
1.56886
1.57032
1.56994
1.56645
1.56188
1.55487
1.54431
1.53188
1.52089
1.50701
1.48742
1.4615
1.42637
1.3744
1.29672
1.19669
1.08913
1.00194
0.968354
0.962663
0.9629
0.964819
0.971513
0.982646
0.991806
0.997159
1.00019
1.00167
1.00213
1.00194
0.999642
0.994868
0.991508
0.98981
0.988682
0.988527
0.990314
0.994969
0.997689
0.997653
0.997293
0.997182
0.996972
0.995831
0.994843
0.995083
0.996108
0.997238
0.998106
0.999227
1.00039
1.00115
1.00132
1.00127
1.00094
1.00031
0.999958
0.999894
0.999869
0.999807
0.999759
0.999628
0.999617
0.999876
1.00037
1.00082
1.00086
1.00079
1.00075
1.00077
1.00082
1.0009
1.00103
1.00114
1.00121
1.0013
1.00157
1.0021
1.00274
1.00309
1.00311
1.00299
1.00291
1.00298
1.00347
1.0041
1.00426
1.0042
1.00415
1.00415
1.00439
1.00486
1.00502
1.00499
1.00496
1.00495
1.00495
1.00498
1.00501
1.00501
1.00498
1.00494
1.0049
1.00486
1.00483
1.00482
1.00485
1.00504
1.00519
1.00519
1.00517
1.00516
1.00516
1.00515
1.00515
1.00519
1.00531
1.0056
1.00612
1.00649
1.00654
1.00652
1.0065
1.00648
1.00645
1.0064
1.00633
1.00629
1.00628
1.00627
1.00626
1.00626
1.00625
1.00625
1.0063
1.00646
1.00676
1.00694
1.00695
1.00694
1.00693
1.63793
1.64485
1.65194
1.65568
1.65661
1.65633
1.65568
1.65487
1.6537
1.65042
1.6449
1.64173
1.64063
1.64052
1.64153
1.64535
1.65186
1.6604
1.66774
1.67013
1.6702
1.66969
1.66699
1.66077
1.65218
1.64547
1.64313
1.64329
1.64623
1.65186
1.65623
1.65926
1.66288
1.66771
1.67285
1.67754
1.68222
1.68678
1.68956
1.69098
1.69286
1.69458
1.69671
1.69913
1.70231
1.70789
1.71498
1.72098
1.72474
1.72613
1.72659
1.72649
1.72534
1.72205
1.71695
1.71248
1.71079
1.71071
1.71083
1.71143
1.71266
1.71438
1.71661
1.71876
1.71998
1.72032
1.72033
1.72024
1.72035
1.72145
1.72349
1.72548
1.72757
1.73019
1.73356
1.73734
1.74091
1.74369
1.746
1.74871
1.75279
1.75777
1.7616
1.7636
1.76486
1.76651
1.7674
1.7678
1.76808
1.76819
1.76824
1.76799
1.76796
1.76832
1.76892
1.76999
1.77274
1.77784
1.78375
1.78661
1.7866
1.78545
1.78286
1.77852
1.77336
1.76802
1.76195
1.75434
1.74481
1.73057
1.70849
1.67969
1.64783
1.61587
1.58975
1.57506
1.56895
1.56694
1.5672
1.56739
1.56709
1.56494
1.55896
1.54768
1.5354
1.52473
1.51111
1.49246
1.46929
1.442
1.40772
1.36035
1.28626
1.18099
1.06401
0.986845
0.969004
0.968054
0.969845
0.976583
0.984565
0.990049
0.994765
0.999579
1.00194
1.00235
1.00218
1.00033
0.997428
0.995165
0.993443
0.992208
0.991965
0.992348
0.994205
0.99687
0.997656
0.997351
0.996966
0.996755
0.996315
0.995454
0.995326
0.995819
0.996859
0.997982
0.999431
1.00063
1.00118
1.00128
1.00122
1.00093
1.00047
0.999999
0.99964
0.999508
0.999512
0.999568
0.999821
1.00023
1.00047
1.00049
1.00049
1.00049
1.00048
1.00051
1.00059
1.00076
1.00109
1.0013
1.00131
1.00131
1.00144
1.00195
1.00271
1.00307
1.00308
1.00293
1.00278
1.0027
1.00272
1.00306
1.00377
1.00424
1.00431
1.00426
1.00427
1.00455
1.00499
1.00507
1.00503
1.00501
1.00499
1.00496
1.00495
1.00497
1.00496
1.00492
1.00489
1.00485
1.00483
1.00482
1.00483
1.00494
1.00512
1.0052
1.00518
1.00516
1.00515
1.00515
1.00515
1.00515
1.00518
1.0053
1.00558
1.00611
1.00655
1.00661
1.00659
1.00656
1.00654
1.0065
1.00644
1.00636
1.00631
1.00629
1.00628
1.00627
1.00627
1.00626
1.00626
1.00631
1.0065
1.00681
1.00697
1.00697
1.00696
1.00694
1.60785
1.61329
1.61962
1.62354
1.62578
1.62712
1.62807
1.62836
1.6278
1.62547
1.62117
1.61743
1.61604
1.61597
1.61673
1.61948
1.6237
1.62893
1.63459
1.63818
1.63928
1.63915
1.63768
1.63403
1.62855
1.62383
1.6226
1.62359
1.62675
1.62929
1.63054
1.63165
1.63348
1.63663
1.64088
1.64614
1.65237
1.65814
1.66134
1.66261
1.66417
1.6655
1.6669
1.66854
1.67164
1.67739
1.68407
1.68996
1.69269
1.69334
1.69361
1.69342
1.69179
1.68769
1.68161
1.67588
1.67313
1.67271
1.67278
1.67337
1.67497
1.67744
1.68015
1.68223
1.68294
1.68326
1.68378
1.68381
1.68376
1.68423
1.68599
1.688
1.6899
1.69238
1.69536
1.69852
1.70159
1.70394
1.70575
1.70809
1.71159
1.71526
1.71801
1.7197
1.72138
1.72387
1.72589
1.72701
1.72759
1.72775
1.72767
1.72684
1.72508
1.72379
1.72365
1.72431
1.72716
1.73215
1.73852
1.7444
1.74603
1.7455
1.74365
1.73971
1.73399
1.72896
1.72426
1.71905
1.7133
1.70656
1.69558
1.67732
1.65275
1.6248
1.59828
1.57778
1.56517
1.55851
1.55607
1.5564
1.55725
1.55623
1.5511
1.53985
1.52963
1.52035
1.50715
1.48877
1.46653
1.44116
1.41117
1.37208
1.31945
1.24047
1.13458
1.03266
0.98495
0.979434
0.980645
0.983324
0.98544
0.987835
0.991527
0.995915
0.99994
1.0017
1.00177
1.00181
1.00092
0.999134
0.997514
0.996476
0.995549
0.994799
0.994745
0.995324
0.996846
0.99727
0.996957
0.996516
0.996022
0.995393
0.995164
0.995402
0.996222
0.997559
0.999573
1.00077
1.00091
1.0008
1.00059
1.00041
1.00015
0.999647
0.999157
0.999047
0.999198
0.999813
1.00058
1.00072
1.00057
1.00045
1.00037
1.00027
1.00025
1.00025
1.00029
1.00055
1.00105
1.00134
1.00141
1.00153
1.00189
1.00255
1.00302
1.00311
1.00296
1.00279
1.00268
1.00262
1.00261
1.00281
1.00339
1.00402
1.0043
1.00441
1.00453
1.00478
1.00503
1.00505
1.00501
1.00499
1.00497
1.00495
1.00495
1.00492
1.0049
1.0049
1.00494
1.00494
1.00489
1.00487
1.0049
1.00506
1.00516
1.00515
1.00513
1.00512
1.00512
1.00512
1.00511
1.00512
1.00515
1.00526
1.00554
1.0061
1.00656
1.00663
1.00662
1.00659
1.00657
1.00653
1.00646
1.00636
1.0063
1.00629
1.00628
1.00627
1.00626
1.00625
1.00626
1.00631
1.00652
1.00684
1.00699
1.00699
1.00698
1.00696
1.58695
1.59094
1.59511
1.59881
1.60219
1.60455
1.60545
1.60547
1.60502
1.6039
1.60216
1.60028
1.59912
1.59903
1.59945
1.60052
1.60209
1.60414
1.6066
1.60971
1.61292
1.6138
1.61353
1.61262
1.61128
1.61039
1.61022
1.60982
1.60849
1.60769
1.60776
1.60795
1.6088
1.61143
1.61615
1.62246
1.62916
1.63504
1.63765
1.6384
1.63955
1.64067
1.64139
1.64265
1.64572
1.65094
1.65713
1.66186
1.66274
1.663
1.6634
1.66318
1.66135
1.65709
1.65069
1.64418
1.64086
1.64035
1.64062
1.64186
1.64394
1.64635
1.64862
1.65016
1.6506
1.65094
1.65167
1.65187
1.65175
1.65181
1.65278
1.65451
1.65605
1.65756
1.65939
1.66146
1.6636
1.66537
1.66691
1.66886
1.67117
1.67329
1.67502
1.67657
1.67888
1.68193
1.68501
1.68678
1.68735
1.68741
1.68644
1.68361
1.68032
1.67773
1.67635
1.67652
1.67855
1.68257
1.68797
1.69452
1.69806
1.698
1.69685
1.69368
1.689
1.68461
1.68005
1.67559
1.67159
1.66892
1.66569
1.65873
1.64504
1.62533
1.60281
1.58012
1.5593
1.54294
1.53563
1.53515
1.53522
1.53338
1.52748
1.5169
1.50772
1.49779
1.48269
1.46179
1.43712
1.41175
1.38591
1.35508
1.3122
1.25536
1.17968
1.09098
1.02294
0.995071
0.98845
0.987091
0.986858
0.987196
0.988416
0.99152
0.995838
1.00038
1.00324
1.00376
1.00352
1.00264
1.0011
0.999766
0.99822
0.996438
0.995067
0.994874
0.995492
0.996695
0.996822
0.996461
0.995893
0.995465
0.99536
0.995513
0.996118
0.997285
0.999261
1.00073
1.00093
1.00082
1.00069
1.00051
1.00011
0.99965
0.99945
0.999452
0.999763
1.00057
1.00096
1.00085
1.00052
1.0002
1.00002
0.999999
0.999991
0.999988
1
1.00015
1.00071
1.00146
1.0019
1.00221
1.0026
1.00298
1.00311
1.00299
1.00279
1.00264
1.00254
1.00249
1.00252
1.00271
1.00309
1.0036
1.00413
1.00463
1.00495
1.00499
1.00496
1.00495
1.00494
1.00494
1.00492
1.00491
1.00489
1.00487
1.00485
1.00487
1.00491
1.00493
1.00492
1.00492
1.005
1.00517
1.00522
1.0052
1.00518
1.00517
1.00516
1.00516
1.00516
1.00515
1.00516
1.00524
1.00552
1.00608
1.00656
1.00665
1.00664
1.00662
1.00659
1.00654
1.00646
1.00634
1.00627
1.00625
1.00624
1.00624
1.00623
1.00623
1.00623
1.00631
1.00654
1.00688
1.00702
1.00702
1.007
1.00698
1.5739
1.57613
1.57888
1.58221
1.5853
1.5865
1.58652
1.58636
1.58638
1.58689
1.58731
1.58724
1.58689
1.58628
1.58553
1.58515
1.58511
1.58525
1.58598
1.58833
1.59189
1.59456
1.59632
1.5981
1.59984
1.60025
1.59861
1.59471
1.59163
1.58969
1.58913
1.58931
1.59066
1.59416
1.59987
1.60635
1.61244
1.61699
1.61841
1.61852
1.61934
1.62026
1.62076
1.62193
1.6251
1.62964
1.63399
1.63589
1.6359
1.63624
1.63665
1.63628
1.63452
1.63067
1.62452
1.61802
1.61512
1.61494
1.61573
1.6175
1.61931
1.62096
1.62257
1.62362
1.62392
1.62428
1.62497
1.62542
1.62533
1.62508
1.62505
1.62544
1.62594
1.62625
1.62677
1.62751
1.62853
1.62973
1.6311
1.63259
1.63398
1.63518
1.6363
1.63789
1.64042
1.64395
1.64702
1.64833
1.6487
1.64817
1.64566
1.64232
1.63969
1.63668
1.63266
1.63035
1.63074
1.63253
1.63581
1.64079
1.64546
1.64689
1.64661
1.64473
1.64124
1.63769
1.63347
1.62824
1.62384
1.62325
1.62377
1.62334
1.61988
1.61167
1.59734
1.5768
1.5509
1.52213
1.49975
1.4927
1.49211
1.49051
1.48559
1.47739
1.47006
1.45966
1.44244
1.41693
1.38427
1.351
1.3245
1.30287
1.27871
1.24396
1.19559
1.13258
1.07002
1.02403
0.998679
0.990387
0.987363
0.986015
0.986224
0.988306
0.992803
0.999576
1.00453
1.00583
1.00589
1.00554
1.00417
1.00167
0.999149
0.997074
0.995461
0.994549
0.994505
0.995334
0.996242
0.996173
0.99596
0.995745
0.995654
0.995731
0.99612
0.99703
0.998696
1.00011
1.00034
1.00027
1.00029
1.00025
1.00002
0.999645
0.999465
0.99975
1.00069
1.00133
1.00127
1.00084
1.00039
0.99994
0.999673
0.999634
0.999606
0.999599
0.999613
0.999702
1.00046
1.00184
1.00273
1.003
1.00306
1.00304
1.00297
1.00283
1.00267
1.00254
1.00244
1.00238
1.0024
1.00254
1.00281
1.00331
1.00414
1.00495
1.00518
1.00515
1.00509
1.005
1.00496
1.00493
1.00491
1.00488
1.00485
1.00483
1.00482
1.00482
1.00485
1.00488
1.00493
1.00506
1.00522
1.00525
1.00521
1.0052
1.00519
1.00518
1.00517
1.00516
1.00516
1.00515
1.00515
1.00522
1.00548
1.00604
1.00655
1.00665
1.00664
1.00662
1.0066
1.00657
1.0065
1.00639
1.0063
1.00627
1.00626
1.00625
1.00624
1.00624
1.00625
1.00633
1.00657
1.00691
1.00704
1.00704
1.00702
1.00699
1.56468
1.56614
1.56798
1.56988
1.57075
1.57071
1.57051
1.57056
1.57129
1.57342
1.57539
1.57573
1.57564
1.57513
1.57401
1.57293
1.57218
1.57203
1.57234
1.57409
1.57748
1.58131
1.5848
1.58717
1.58775
1.5872
1.58477
1.58107
1.578
1.57681
1.57638
1.57656
1.57867
1.58372
1.5898
1.59489
1.59916
1.60157
1.60179
1.60198
1.60292
1.60356
1.60422
1.60591
1.60872
1.61088
1.61233
1.61257
1.61244
1.61279
1.61325
1.613
1.61177
1.60878
1.60351
1.59796
1.5962
1.59644
1.59742
1.59851
1.59938
1.60028
1.60122
1.60173
1.60202
1.60264
1.60321
1.60357
1.60353
1.60317
1.60218
1.60068
1.59902
1.59745
1.59725
1.59737
1.59777
1.59871
1.59996
1.60105
1.60194
1.60285
1.60385
1.60525
1.60759
1.61041
1.61203
1.61245
1.61211
1.61031
1.60763
1.60584
1.60369
1.60009
1.59518
1.58993
1.58594
1.58446
1.58509
1.58757
1.59095
1.59399
1.5953
1.59507
1.5934
1.59101
1.58761
1.58247
1.57718
1.57503
1.57531
1.57768
1.57854
1.57709
1.57105
1.55805
1.53507
1.50037
1.46221
1.44019
1.43415
1.43072
1.42587
1.42005
1.41364
1.40299
1.38479
1.3568
1.31865
1.2764
1.24428
1.22824
1.21926
1.20772
1.1844
1.14766
1.10239
1.05892
1.01888
0.997082
0.988811
0.985998
0.986032
0.987379
0.991644
0.999716
1.006
1.00734
1.0074
1.00719
1.00595
1.00293
0.999152
0.996545
0.994885
0.994023
0.993799
0.994283
0.99581
0.99656
0.996559
0.996379
0.996227
0.996249
0.996435
0.99695
0.998136
0.999409
0.999477
0.999481
0.999592
0.999626
0.999553
0.999505
0.99976
1.00056
1.00146
1.00165
1.00139
1.00086
1.00032
0.999698
0.999341
0.999246
0.999191
0.999176
0.999182
0.999601
1.0009
1.00256
1.00325
1.0033
1.0033
1.00323
1.00298
1.00275
1.00261
1.00249
1.00238
1.00231
1.00227
1.00231
1.00256
1.0033
1.00445
1.00514
1.00519
1.00515
1.0051
1.00502
1.00495
1.0049
1.00487
1.00483
1.0048
1.00477
1.00476
1.00476
1.0048
1.00489
1.00507
1.0053
1.00534
1.0053
1.00522
1.00519
1.00518
1.00517
1.00516
1.00515
1.00514
1.00513
1.00514
1.00521
1.00549
1.00606
1.00657
1.00668
1.00667
1.00665
1.00663
1.00659
1.00652
1.0064
1.0063
1.00627
1.00626
1.00625
1.00624
1.00624
1.00625
1.00634
1.0066
1.00694
1.00707
1.00707
1.00705
1.00702
1.55691
1.55776
1.5584
1.55852
1.55825
1.55776
1.55765
1.55801
1.55955
1.56244
1.56476
1.56505
1.56509
1.56507
1.56442
1.56333
1.56263
1.56244
1.56266
1.56417
1.56756
1.5717
1.5741
1.57438
1.5741
1.5734
1.57196
1.56987
1.56808
1.56727
1.56726
1.5685
1.57248
1.5772
1.5806
1.58334
1.5857
1.58679
1.5873
1.5882
1.58922
1.59019
1.59157
1.59319
1.59366
1.59341
1.59288
1.59237
1.5923
1.59271
1.59352
1.59362
1.59311
1.59106
1.58708
1.5834
1.58213
1.58217
1.58224
1.58248
1.58282
1.58313
1.5833
1.5836
1.58415
1.58462
1.58501
1.58517
1.58506
1.5843
1.58236
1.5794
1.57588
1.5727
1.57171
1.57171
1.57206
1.57314
1.57441
1.57532
1.57596
1.57658
1.57733
1.57835
1.57951
1.58004
1.58003
1.57955
1.57822
1.57634
1.5753
1.57426
1.57216
1.56824
1.56275
1.55625
1.54857
1.5415
1.53934
1.53951
1.5408
1.54296
1.54544
1.54703
1.5471
1.54593
1.54366
1.53997
1.53518
1.53055
1.52742
1.52713
1.52866
1.52915
1.527
1.5196
1.50283
1.47078
1.42677
1.39115
1.37601
1.36887
1.36292
1.35734
1.3505
1.33917
1.32085
1.29364
1.25586
1.21006
1.17288
1.1589
1.15586
1.15468
1.15137
1.13825
1.11333
1.08094
1.04108
1.0077
0.992678
0.988012
0.98786
0.98864
0.992191
0.9999
1.00658
1.00821
1.00824
1.00794
1.00659
1.00376
1.00016
0.997124
0.995084
0.993685
0.993278
0.993751
0.99571
0.997141
0.997196
0.996963
0.996656
0.996556
0.996583
0.996761
0.997415
0.998464
0.999529
0.999866
0.999796
0.999794
0.99977
0.999831
1.00043
1.0014
1.00181
1.00166
1.00114
1.00061
1.00011
0.999501
0.998945
0.998758
0.998697
0.998681
0.998909
1.00005
1.00206
1.00325
1.00335
1.00334
1.00334
1.00325
1.003
1.00272
1.00255
1.00242
1.00231
1.00221
1.00214
1.00214
1.0024
1.00337
1.00472
1.00517
1.00516
1.00511
1.00506
1.00497
1.00491
1.00487
1.00483
1.00479
1.00476
1.00472
1.00469
1.00467
1.0047
1.00492
1.00528
1.00542
1.0054
1.00533
1.00524
1.00517
1.00514
1.00512
1.00511
1.0051
1.00509
1.00508
1.00508
1.00517
1.00545
1.00605
1.00659
1.0067
1.00669
1.00667
1.00664
1.0066
1.00653
1.0064
1.00628
1.00624
1.00623
1.00622
1.00622
1.00622
1.00623
1.00634
1.00663
1.00698
1.0071
1.0071
1.00708
1.00704
1.54929
1.5495
1.54947
1.54902
1.54825
1.54796
1.54802
1.54874
1.55053
1.55242
1.55373
1.5546
1.55557
1.55589
1.55564
1.55503
1.55457
1.55449
1.55495
1.55681
1.5595
1.56128
1.56209
1.56211
1.56196
1.56158
1.5609
1.5602
1.55997
1.56016
1.56161
1.56463
1.56719
1.56863
1.56982
1.57123
1.57242
1.57349
1.57496
1.57652
1.57822
1.58029
1.58135
1.58121
1.58021
1.57833
1.57661
1.57588
1.5759
1.57641
1.57753
1.57796
1.57769
1.57638
1.57396
1.57157
1.56969
1.56888
1.56844
1.56832
1.56849
1.56843
1.56835
1.56842
1.56871
1.5691
1.56931
1.5693
1.56889
1.56755
1.565
1.56137
1.55698
1.5527
1.55076
1.55074
1.55131
1.5524
1.55339
1.55402
1.55441
1.55466
1.5547
1.55459
1.55399
1.55257
1.55111
1.54964
1.54844
1.54796
1.54754
1.54678
1.54441
1.53986
1.53438
1.52816
1.52004
1.51002
1.50112
1.49733
1.49704
1.49771
1.49947
1.50193
1.50361
1.50365
1.50274
1.50017
1.49635
1.49087
1.48428
1.47882
1.47756
1.47712
1.47553
1.47088
1.45918
1.43411
1.39498
1.35515
1.32934
1.31415
1.30477
1.29765
1.28927
1.27726
1.26053
1.23808
1.20751
1.16713
1.12555
1.10587
1.10362
1.10497
1.10991
1.11054
1.10381
1.08485
1.05453
1.02057
1.00065
0.993258
0.992107
0.992251
0.994045
0.999953
1.00672
1.00885
1.00893
1.00846
1.00676
1.00371
1.00013
0.997095
0.995188
0.994091
0.99372
0.994023
0.995748
0.997195
0.997267
0.997024
0.996685
0.996529
0.996516
0.996551
0.996722
0.997397
0.998869
0.999635
0.999621
0.999657
0.999823
1.00045
1.00138
1.0019
1.00188
1.0014
1.00081
1.00028
0.999778
0.999142
0.998466
0.998212
0.998141
0.998198
0.998998
1.00101
1.00296
1.00337
1.00334
1.00331
1.00328
1.00315
1.00292
1.00267
1.00251
1.00239
1.00226
1.00213
1.00203
1.00201
1.00231
1.00346
1.0049
1.0053
1.00528
1.00523
1.00516
1.00504
1.00489
1.00481
1.00477
1.00474
1.00471
1.00468
1.00465
1.00465
1.00473
1.00504
1.00541
1.00548
1.00545
1.0054
1.00534
1.00525
1.00519
1.00516
1.00515
1.00513
1.00512
1.00511
1.00511
1.00519
1.00548
1.00607
1.0066
1.00671
1.0067
1.00668
1.00666
1.00662
1.00656
1.00644
1.00631
1.00627
1.00626
1.00625
1.00624
1.00624
1.00625
1.00637
1.00666
1.00701
1.00712
1.00712
1.00711
1.00706
1.54224
1.54225
1.54203
1.54157
1.54103
1.541
1.54122
1.54168
1.54214
1.54268
1.54339
1.54443
1.54614
1.54735
1.54759
1.54757
1.54756
1.54779
1.54885
1.55015
1.55062
1.55089
1.55104
1.55099
1.55106
1.5513
1.55141
1.55195
1.55354
1.55623
1.55809
1.55851
1.5586
1.55878
1.55901
1.55944
1.56037
1.56196