/*--------------------------------*- C++ -*----------------------------------*\
  =========                 |
  \\      /  F ield         | OpenFOAM: The Open Source CFD Toolbox
   \\    /   O peration     | Website:  https://openfoam.org
    \\  /    A nd           | Version:  7
     \\/     M anipulation  |
\*---------------------------------------------------------------------------*/
FoamFile
{
    version     2.0;
    format      ascii;
    class       volScalarField;
    location    "1.7";
    object      rho;
}
// * * * * * * * * * * * * * * * * * * * * * * * * * * * * * * * * * * * * * //

dimensions      [1 -3 0 0 0 0 0];

internalField   nonuniform List<scalar> 
16512
(
1.40001
1.40001
1.40001
1.40001
1.40001
1.40001
1.40001
1.40001
1.40001
1.40001
1.40001
1.40001
1.40001
1.40001
1.40001
1.40002
1.40241
1.50722
2.34231
3.33373
3.79443
3.91345
3.87074
3.84158
3.82774
3.80303
3.77044
3.7586
3.74701
3.70639
3.65632
3.61994
3.60155
3.59121
3.58442
3.58111
3.56708
3.54285
3.50481
3.45387
3.41098
3.39782
3.39427
3.38454
3.36978
3.3469
3.31048
3.26705
3.23813
3.23073
3.22561
3.22145
3.21466
3.20401
3.18244
3.14838
3.10686
3.06358
3.03161
3.01929
3.01079
3.00177
2.99026
2.97405
2.95713
2.94042
2.92334
2.90538
2.88437
2.86293
2.84357
2.81887
2.79454
2.77931
2.76485
2.75234
2.7451
2.73981
2.72745
2.70866
2.68806
2.66121
2.63276
2.61893
2.61024
2.59943
2.58616
2.57015
2.55209
2.53262
2.51978
2.51367
2.507
2.49905
2.48602
2.46333
2.44672
2.44212
2.43545
2.42229
2.40115
2.37642
2.35221
2.33661
2.33287
2.33324
2.33405
2.32868
2.31413
2.28665
2.25674
2.24105
2.23723
2.23413
2.23008
2.22477
2.21177
2.18865
2.17178
2.1674
2.16263
2.15558
2.14688
2.13278
2.10942
2.09368
2.09148
2.09139
2.08892
2.08283
2.06938
2.04498
2.02566
2.02149
2.01884
2.01483
2.00878
1.99637
1.97705
1.96773
1.96501
1.96073
1.95429
1.94505
1.93006
1.91027
1.90063
1.89872
1.89788
1.89651
1.89238
1.87826
1.86369
1.85727
1.85136
1.84416
1.83474
1.81965
1.80519
1.80745
1.40001
1.40001
1.40001
1.40001
1.40001
1.40001
1.40001
1.40001
1.40001
1.40001
1.40001
1.40001
1.40001
1.40001
1.40001
1.40001
1.40001
1.40001
1.40001
1.40001
1.40001
1.40001
1.40001
1.40001
1.40001
1.40001
1.40001
1.40001
1.40001
1.40001
1.40001
1.40001
1.40003
1.40369
1.53624
2.28142
3.22
3.85183
3.92053
3.88664
3.84787
3.80271
3.78124
3.78331
3.76512
3.71247
3.67032
3.65642
3.63845
3.62147
3.61462
3.6063
3.58372
3.54905
3.50472
3.45599
3.43493
3.43019
3.42312
3.40747
3.38392
3.34869
3.30784
3.27578
3.2668
3.26506
3.26447
3.25801
3.2452
3.21972
3.1876
3.14873
3.10566
3.07357
3.05954
3.05068
3.04217
3.03175
3.01142
2.98888
2.97187
2.95518
2.9383
2.92149
2.90463
2.88603
2.85977
2.82836
2.80846
2.79555
2.78336
2.77412
2.76789
2.76056
2.74606
2.72819
2.70715
2.67988
2.65747
2.64291
2.62903
2.61443
2.59914
2.58287
2.56652
2.55296
2.54383
2.53609
2.52768
2.51525
2.49451
2.47975
2.47477
2.46539
2.44831
2.42555
2.40213
2.37911
2.36551
2.36233
2.36318
2.36413
2.35827
2.34268
2.31474
2.28476
2.26883
2.26505
2.26229
2.25784
2.25182
2.23745
2.21354
2.1963
2.19196
2.1882
2.18172
2.17383
2.16126
2.13791
2.11791
2.1142
2.11377
2.11213
2.10671
2.09486
2.07131
2.04919
2.04329
2.04057
2.03678
2.03153
2.02128
2.00248
1.99022
1.98703
1.98296
1.97675
1.96819
1.95468
1.93479
1.92204
1.91949
1.91836
1.91695
1.91363
1.9011
1.88456
1.87736
1.87178
1.86458
1.85612
1.84576
1.82902
1.8132
1.81231
1.40001
1.40001
1.40001
1.40001
1.40001
1.40001
1.40001
1.40001
1.40001
1.40001
1.40001
1.40001
1.40001
1.40001
1.40001
1.40001
1.40001
1.40001
1.40001
1.40001
1.40001
1.40001
1.40001
1.40001
1.40001
1.40001
1.40001
1.40001
1.40001
1.40001
1.40001
1.40001
1.40001
1.40004
1.40453
1.51647
2.09407
3.20978
3.88446
3.89599
3.8499
3.8094
3.80363
3.81079
3.76886
3.71957
3.70364
3.69301
3.66507
3.64445
3.63852
3.62316
3.59151
3.55296
3.50853
3.47497
3.46518
3.4579
3.44375
3.42172
3.38982
3.35044
3.31708
3.30561
3.30395
3.3048
3.29685
3.27968
3.25246
3.222
3.18719
3.14858
3.11666
3.10321
3.09559
3.08723
3.07771
3.05386
3.02235
3.00319
2.98767
2.9714
2.95592
2.94175
2.92734
2.90527
2.86681
2.83977
2.82654
2.81352
2.80306
2.79508
2.7892
2.78004
2.76602
2.74935
2.72683
2.69948
2.67902
2.66249
2.64563
2.62966
2.61435
2.59938
2.58592
2.5753
2.56604
2.55695
2.54659
2.53052
2.5139
2.50544
2.49258
2.47239
2.44965
2.4273
2.40579
2.39468
2.39227
2.394
2.3952
2.38875
2.37167
2.34272
2.31276
2.2967
2.29299
2.29075
2.28644
2.2799
2.26405
2.2385
2.22054
2.21633
2.21373
2.20786
2.20062
2.18955
2.16717
2.14368
2.1376
2.13657
2.13569
2.13093
2.12044
2.09805
2.07389
2.06567
2.06282
2.05899
2.05398
2.04515
2.02754
2.01303
2.00923
2.00516
1.99917
1.99114
1.97905
1.95982
1.94406
1.94052
1.93921
1.93782
1.93506
1.92477
1.90678
1.89765
1.89234
1.88569
1.87751
1.8671
1.85252
1.83652
1.82972
1.82756
1.40001
1.40001
1.40001
1.40001
1.40001
1.40001
1.40001
1.40001
1.40001
1.40001
1.40001
1.40001
1.40001
1.40001
1.40001
1.40001
1.40001
1.40001
1.40001
1.40001
1.40001
1.40001
1.40001
1.40001
1.40001
1.40001
1.40001
1.40001
1.40001
1.40001
1.40001
1.40001
1.40001
1.40001
1.40004
1.40291
1.47243
2.02357
3.33219
3.78445
3.83293
3.83128
3.83618
3.81139
3.76309
3.74395
3.73953
3.7168
3.67791
3.66377
3.6582
3.63207
3.59319
3.55579
3.52505
3.50729
3.49445
3.47913
3.458
3.43037
3.39552
3.36374
3.35065
3.34722
3.34638
3.33522
3.31292
3.28339
3.25218
3.22004
3.18636
3.15754
3.14525
3.14036
3.13318
3.12326
3.09739
3.05958
3.03594
3.02186
3.0069
2.9917
2.9782
2.96585
2.94796
2.91075
2.8727
2.85944
2.84704
2.83271
2.82348
2.81639
2.80932
2.80012
2.78822
2.76958
2.74011
2.71463
2.69748
2.68042
2.66262
2.64697
2.63251
2.61886
2.60699
2.59689
2.58748
2.57797
2.56683
2.55299
2.53862
2.51962
2.49653
2.47348
2.45166
2.43251
2.42423
2.42253
2.4254
2.4267
2.4198
2.40116
2.37108
2.34092
2.32497
2.32121
2.31939
2.31536
2.30861
2.29148
2.26416
2.24462
2.2403
2.23927
2.23422
2.22736
2.21751
2.19647
2.17093
2.16161
2.16006
2.15949
2.15547
2.1462
2.12517
2.09976
2.08883
2.08573
2.08189
2.0769
2.06878
2.05198
2.03581
2.03135
2.02728
2.02144
2.01385
2.00307
1.98508
1.96673
1.96168
1.96021
1.95894
1.9566
1.94838
1.93054
1.91874
1.91328
1.90696
1.89927
1.8896
1.8751
1.85728
1.84991
1.84867
1.8482
1.40001
1.40001
1.40001
1.40001
1.40001
1.40001
1.40001
1.40001
1.40001
1.40001
1.40001
1.40001
1.40001
1.40001
1.40001
1.40001
1.40001
1.40001
1.40001
1.40001
1.40001
1.40001
1.40001
1.40001
1.40001
1.40001
1.40001
1.40001
1.40001
1.40001
1.40001
1.40001
1.40001
1.40001
1.40001
1.40002
1.40161
1.46539
2.13099
3.31708
3.71435
3.83508
3.86381
3.81791
3.78281
3.77451
3.75251
3.71221
3.6875
3.68589
3.67716
3.64012
3.60011
3.57191
3.55211
3.53291
3.51057
3.49159
3.46852
3.44018
3.41432
3.40147
3.39327
3.38613
3.3714
3.34651
3.31676
3.28523
3.25338
3.22071
3.19409
3.18292
3.18043
3.17486
3.16349
3.13732
3.10009
3.07059
3.05808
3.0452
3.03047
3.01702
3.00482
2.98952
2.95626
2.91076
2.88919
2.88251
2.86697
2.85384
2.84596
2.83873
2.82996
2.82057
2.80461
2.77545
2.74723
2.72941
2.71531
2.69819
2.68081
2.66592
2.65213
2.63926
2.62817
2.61851
2.60954
2.6006
2.59021
2.57403
2.54943
2.52247
2.49781
2.47583
2.45982
2.45418
2.45326
2.45717
2.45809
2.45037
2.43062
2.39992
2.36956
2.35373
2.34981
2.34805
2.34444
2.33735
2.31893
2.29057
2.26916
2.26412
2.26421
2.2609
2.25427
2.24511
2.22558
2.19912
2.1863
2.18427
2.18357
2.18017
2.17205
2.15255
2.12636
2.11267
2.10925
2.10546
2.10055
2.09289
2.07647
2.05869
2.05332
2.04941
2.04364
2.03642
2.02669
2.01035
1.99026
1.98284
1.98129
1.98017
1.97812
1.97176
1.95494
1.94057
1.93467
1.92859
1.92125
1.9122
1.89886
1.87971
1.86843
1.86738
1.86777
1.86673
1.40001
1.40001
1.40001
1.40001
1.40001
1.40001
1.40001
1.40001
1.40001
1.40001
1.40001
1.40001
1.40001
1.40001
1.40001
1.40001
1.40001
1.40001
1.40001
1.40001
1.40001
1.40001
1.40001
1.40001
1.40001
1.40001
1.40001
1.40001
1.40001
1.40001
1.40001
1.40001
1.40001
1.40001
1.40001
1.40001
1.40001
1.40185
1.48738
2.21239
3.21662
3.71704
3.88
3.85248
3.82997
3.80634
3.75839
3.71711
3.70346
3.71127
3.69086
3.64766
3.62087
3.60462
3.585
3.55216
3.52637
3.50831
3.48516
3.46558
3.45438
3.44362
3.42715
3.40215
3.37561
3.34735
3.31787
3.28805
3.25658
3.23187
3.22036
3.21701
3.21174
3.19875
3.17235
3.13761
3.10653
3.09354
3.08445
3.07147
3.0578
3.04527
3.03033
2.99989
2.95392
2.9205
2.91378
2.9049
2.88881
2.87845
2.87135
2.86263
2.85194
2.83529
2.80721
2.77728
2.75722
2.74601
2.73302
2.71572
2.6991
2.68495
2.67185
2.65995
2.64981
2.64103
2.63284
2.62384
2.60868
2.58186
2.55094
2.5232
2.50094
2.4886
2.48478
2.48472
2.48869
2.48857
2.48019
2.45999
2.42896
2.39878
2.3832
2.37903
2.3768
2.37326
2.36595
2.34629
2.31705
2.29449
2.28846
2.28852
2.2876
2.2814
2.2726
2.25422
2.22745
2.21157
2.20901
2.20818
2.20521
2.1979
2.17985
2.15346
2.13732
2.13334
2.12956
2.12476
2.11745
2.10139
2.08198
2.07526
2.07188
2.06608
2.05904
2.05011
2.03551
2.01468
2.00412
2.00234
2.00142
1.99965
1.99477
1.97966
1.96309
1.95616
1.95031
1.94323
1.93471
1.92244
1.90316
1.88824
1.88601
1.88599
1.88615
1.88306
1.40001
1.40001
1.40001
1.40001
1.40001
1.40001
1.40001
1.40001
1.40001
1.40001
1.40001
1.40001
1.40001
1.40001
1.40001
1.40001
1.40001
1.40001
1.40001
1.40001
1.40001
1.40001
1.40001
1.40001
1.40001
1.40001
1.40001
1.40001
1.40001
1.40001
1.40001
1.40001
1.40001
1.40001
1.40001
1.40001
1.40001
1.40002
1.40279
1.50615
2.14194
3.06899
3.78583
3.89082
3.86487
3.81113
3.76009
3.73101
3.73725
3.73813
3.70085
3.66448
3.64065
3.61488
3.58843
3.56182
3.54974
3.53971
3.5213
3.5065
3.49093
3.46752
3.43515
3.40491
3.37586
3.34872
3.32157
3.29404
3.27274
3.26121
3.25599
3.24827
3.23175
3.20449
3.17155
3.14155
3.12737
3.12098
3.11223
3.09972
3.08681
3.07129
3.04197
2.99653
2.95641
2.94484
2.94027
2.92798
2.91568
2.90698
2.89836
2.88749
2.86764
2.83778
2.80592
2.78256
2.77327
2.76404
2.74988
2.73186
2.71644
2.70349
2.69155
2.68106
2.67227
2.66435
2.65571
2.64188
2.61563
2.58105
2.55031
2.52891
2.51942
2.5164
2.51651
2.51953
2.5181
2.50849
2.48801
2.4577
2.42878
2.41363
2.40912
2.40613
2.40216
2.39405
2.37299
2.34361
2.32054
2.31358
2.31311
2.31409
2.30863
2.29995
2.28222
2.25575
2.23725
2.23392
2.23309
2.23061
2.22396
2.20719
2.18085
2.16255
2.15784
2.15405
2.14924
2.14228
2.12693
2.10599
2.09718
2.09454
2.08914
2.08214
2.07362
2.06042
2.03978
2.02588
2.02344
2.02252
2.02103
2.01736
2.00435
1.98627
1.97787
1.97217
1.96521
1.95698
1.94564
1.92677
1.90884
1.90501
1.90472
1.90517
1.90298
1.89605
1.40001
1.40001
1.40001
1.40001
1.40001
1.40001
1.40001
1.40001
1.40001
1.40001
1.40001
1.40001
1.40001
1.40001
1.40001
1.40001
1.40001
1.40001
1.40001
1.40001
1.40001
1.40001
1.40001
1.40001
1.40001
1.40001
1.40001
1.40001
1.40001
1.40001
1.40001
1.40001
1.40001
1.40001
1.40001
1.40001
1.40001
1.40001
1.40003
1.40311
1.48155
1.95121
3.01183
3.81582
3.84942
3.80935
3.77317
3.76175
3.77509
3.74539
3.70597
3.68823
3.66467
3.62805
3.59569
3.58021
3.58291
3.57797
3.55903
3.53939
3.51095
3.47017
3.43155
3.40047
3.37647
3.35461
3.33421
3.31802
3.30678
3.29864
3.28689
3.26498
3.23536
3.20325
3.17494
3.16097
3.15467
3.14953
3.13985
3.12729
3.11133
3.08258
3.03898
2.99447
2.97661
2.97343
2.96709
2.95578
2.94622
2.93632
2.92441
2.90254
2.87073
2.83612
2.80959
2.79993
2.79327
2.78249
2.76444
2.74641
2.73346
2.72206
2.7116
2.70276
2.69501
2.68676
2.6742
2.64912
2.61306
2.57946
2.55925
2.55201
2.54886
2.54824
2.54938
2.5467
2.53613
2.51525
2.48575
2.45874
2.44474
2.44008
2.43614
2.43131
2.42196
2.39965
2.36995
2.34699
2.3396
2.33861
2.34068
2.33594
2.32727
2.30984
2.28349
2.26314
2.25896
2.258
2.25607
2.2502
2.23462
2.20856
2.18839
2.18281
2.17893
2.17411
2.16739
2.15275
2.13071
2.11927
2.11695
2.1124
2.10564
2.0974
2.08535
2.0654
2.04829
2.04468
2.04367
2.0424
2.03941
2.02872
2.01008
1.99973
1.99414
1.98736
1.97927
1.96861
1.95056
1.93046
1.92424
1.92374
1.92438
1.92292
1.91747
1.90446
1.40001
1.40001
1.40001
1.40001
1.40001
1.40001
1.40001
1.40001
1.40001
1.40001
1.40001
1.40001
1.40001
1.40001
1.40001
1.40001
1.40001
1.40001
1.40001
1.40001
1.40001
1.40001
1.40001
1.40001
1.40001
1.40001
1.40001
1.40001
1.40001
1.40001
1.40001
1.40001
1.40001
1.40001
1.40001
1.40001
1.40001
1.40001
1.40001
1.40002
1.40164
1.44584
1.87767
3.1036
3.69185
3.77584
3.80689
3.81753
3.793
3.73879
3.71819
3.70501
3.67491
3.63818
3.61734
3.61774
3.61879
3.59997
3.57891
3.55325
3.51803
3.47764
3.43852
3.40846
3.38788
3.37593
3.36595
3.35532
3.34474
3.32849
3.30023
3.26714
3.23443
3.20771
3.19538
3.1895
3.18489
3.17739
3.16513
3.1481
3.1199
3.07953
3.03407
3.01126
3.00627
3.0049
2.9969
2.98697
2.97634
2.96173
2.93655
2.90463
2.86988
2.84119
2.82931
2.82385
2.81547
2.79935
2.77544
2.76148
2.75125
2.74128
2.73253
2.7248
2.71689
2.70588
2.68331
2.64667
2.61064
2.59121
2.58505
2.58164
2.57952
2.57842
2.57462
2.5632
2.5413
2.51241
2.48797
2.47605
2.47156
2.46691
2.46126
2.4502
2.42615
2.39593
2.37365
2.36634
2.36515
2.36789
2.36365
2.35477
2.33726
2.3108
2.28895
2.28389
2.2828
2.2814
2.27616
2.26192
2.23642
2.21499
2.20809
2.2041
2.19933
2.19297
2.17926
2.15638
2.14185
2.13933
2.13565
2.12935
2.12154
2.11058
2.09157
2.07179
2.06638
2.0649
2.06381
2.06118
2.0524
2.03411
2.0219
2.0163
2.00979
2.00181
1.99168
1.97459
1.95315
1.94386
1.94307
1.94378
1.94293
1.93864
1.92766
1.91061
1.40001
1.40001
1.40001
1.40001
1.40001
1.40001
1.40001
1.40001
1.40001
1.40001
1.40001
1.40001
1.40001
1.40001
1.40001
1.40001
1.40001
1.40001
1.40001
1.40001
1.40001
1.40001
1.40001
1.40001
1.40001
1.40001
1.40001
1.40001
1.40001
1.40001
1.40001
1.40001
1.40001
1.40001
1.40001
1.40001
1.40001
1.40001
1.40001
1.40001
1.40001
1.40084
1.44059
1.92401
3.07735
3.6099
3.79641
3.83996
3.80038
3.7549
3.74287
3.72072
3.68143
3.65425
3.65291
3.65942
3.6369
3.6057
3.57597
3.54856
3.51876
3.48269
3.45219
3.43284
3.42324
3.41561
3.40438
3.39108
3.36958
3.33672
3.30003
3.26605
3.24072
3.22992
3.22544
3.22139
3.21495
3.20247
3.1828
3.1538
3.11609
3.07342
3.04789
3.04149
3.04002
3.03807
3.02858
3.01715
2.99941
2.97053
2.9376
2.9039
2.87592
2.86331
2.85802
2.84987
2.83564
2.80737
2.78694
2.77873
2.77016
2.76192
2.7543
2.7465
2.73671
2.71761
2.68263
2.64365
2.62345
2.61792
2.61419
2.61041
2.60722
2.60251
2.59022
2.56707
2.53804
2.51623
2.50694
2.50295
2.49807
2.49175
2.47904
2.45294
2.42172
2.40026
2.3935
2.39246
2.39619
2.39223
2.38283
2.36492
2.33789
2.31468
2.30847
2.30744
2.30647
2.30182
2.28879
2.26391
2.24196
2.23399
2.22949
2.22456
2.21867
2.2062
2.18298
2.16537
2.16214
2.15944
2.1535
2.14615
2.13625
2.11844
2.09653
2.08861
2.08674
2.08537
2.08273
2.07535
2.05775
2.04423
2.03878
2.03261
2.02488
2.01517
1.99884
1.97648
1.96394
1.96265
1.96321
1.96309
1.9596
1.95053
1.93411
1.92009
1.40001
1.40001
1.40001
1.40001
1.40001
1.40001
1.40001
1.40001
1.40001
1.40001
1.40001
1.40001
1.40001
1.40001
1.40001
1.40001
1.40001
1.40001
1.40001
1.40001
1.40001
1.40001
1.40001
1.40001
1.40001
1.40001
1.40001
1.40001
1.40001
1.40001
1.40001
1.40001
1.40001
1.40001
1.40001
1.40001
1.40001
1.40001
1.40001
1.40001
1.40001
1.40001
1.4009
1.44773
1.96217
3.04423
3.6187
3.81327
3.82294
3.79931
3.78338
3.73991
3.68999
3.67364
3.68473
3.6763
3.64517
3.6136
3.58156
3.5493
3.51897
3.4916
3.47993
3.47638
3.46684
3.4539
3.43591
3.40804
3.37252
3.33384
3.30004
3.27597
3.26627
3.26238
3.25831
3.25193
3.24026
3.21795
3.18701
3.14996
3.11082
3.0852
3.07835
3.07631
3.07668
3.06925
3.05712
3.0363
3.00505
2.97086
2.93738
2.91127
2.89967
2.89495
2.88669
2.87149
2.84161
2.81333
2.80416
2.7979
2.791
2.78396
2.77628
2.76713
2.75131
2.71946
2.67872
2.65581
2.6505
2.64654
2.64126
2.63636
2.63078
2.61747
2.59315
2.564
2.544
2.53675
2.53375
2.52903
2.52248
2.50882
2.48069
2.44749
2.4264
2.42031
2.4199
2.42521
2.4223
2.41243
2.39354
2.36531
2.34071
2.33305
2.33201
2.33138
2.32715
2.3152
2.2908
2.26875
2.26041
2.25534
2.24991
2.24411
2.23266
2.21007
2.18971
2.18528
2.18376
2.17862
2.1714
2.16218
2.14554
2.12217
2.11106
2.10891
2.10721
2.10425
2.09745
2.08112
2.06635
2.0614
2.05592
2.04854
2.0392
2.02341
2.00019
1.98445
1.98231
1.98256
1.9832
1.9804
1.97303
1.95785
1.942
1.93419
1.40001
1.40001
1.40001
1.40001
1.40001
1.40001
1.40001
1.40001
1.40001
1.40001
1.40001
1.40001
1.40001
1.40001
1.40001
1.40001
1.40001
1.40001
1.40001
1.40001
1.40001
1.40001
1.40001
1.40001
1.40001
1.40001
1.40001
1.40001
1.40001
1.40001
1.40001
1.40001
1.40001
1.40001
1.40001
1.40001
1.40001
1.40001
1.40001
1.40001
1.40001
1.40001
1.40001
1.40117
1.45578
1.94537
2.89393
3.58487
3.832
3.84941
3.82311
3.75336
3.70079
3.69416
3.70324
3.68042
3.65325
3.63036
3.59596
3.55567
3.52428
3.51283
3.51907
3.51917
3.50508
3.4842
3.45005
3.40804
3.36635
3.3345
3.3139
3.30659
3.30301
3.29756
3.28855
3.27631
3.25236
3.21951
3.18194
3.14609
3.1222
3.11563
3.11448
3.11529
3.10828
3.09484
3.0714
3.03933
3.00437
2.97153
2.94702
2.93685
2.93286
2.92482
2.90864
2.87686
2.84328
2.8296
2.82472
2.81985
2.81392
2.80646
2.79769
2.78427
2.75579
2.71536
2.68842
2.68263
2.67898
2.6726
2.66634
2.65964
2.6454
2.61993
2.59051
2.57155
2.56553
2.56413
2.55976
2.55318
2.53946
2.50974
2.47384
2.45222
2.44654
2.44668
2.45392
2.45286
2.44325
2.42367
2.39392
2.36737
2.35786
2.35672
2.35639
2.35256
2.34124
2.31736
2.29489
2.28682
2.28187
2.27585
2.26954
2.25824
2.23645
2.21472
2.20837
2.2075
2.20439
2.19724
2.18832
2.17259
2.14818
2.13343
2.1309
2.12905
2.12579
2.11905
2.10421
2.08849
2.08382
2.07954
2.07296
2.06405
2.04838
2.0242
2.00534
2.00204
2.00184
2.00309
2.001
1.99514
1.98187
1.96462
1.95481
1.94936
1.40001
1.40001
1.40001
1.40001
1.40001
1.40001
1.40001
1.40001
1.40001
1.40001
1.40001
1.40001
1.40001
1.40001
1.40001
1.40001
1.40001
1.40001
1.40001
1.40001
1.40001
1.40001
1.40001
1.40001
1.40001
1.40001
1.40001
1.40001
1.40001
1.40001
1.40001
1.40001
1.40001
1.40001
1.40001
1.40001
1.40001
1.40001
1.40001
1.40001
1.40001
1.40001
1.40001
1.40001
1.40132
1.44451
1.80109
2.69329
3.59779
3.84107
3.82714
3.77207
3.72509
3.71527
3.70624
3.68091
3.66371
3.64094
3.60508
3.56789
3.55021
3.55351
3.55768
3.54291
3.51909
3.49061
3.45368
3.40962
3.37248
3.35318
3.34816
3.34663
3.33978
3.32863
3.31313
3.28693
3.2524
3.21261
3.17861
3.15708
3.15131
3.15176
3.15402
3.14672
3.13097
3.10454
3.07182
3.03691
3.00621
2.98451
2.97535
2.97147
2.96353
2.94695
2.91382
2.87606
2.85637
2.85188
2.84872
2.84422
2.83718
2.82853
2.81644
2.79093
2.75215
2.72147
2.71438
2.71119
2.70469
2.69726
2.68939
2.67431
2.64776
2.61795
2.59933
2.59363
2.59354
2.59045
2.58376
2.57055
2.54041
2.50148
2.47836
2.47255
2.47293
2.48169
2.48316
2.47467
2.45525
2.42379
2.39427
2.38289
2.3814
2.38122
2.37797
2.36734
2.34371
2.32102
2.31277
2.30878
2.30274
2.29573
2.28365
2.26195
2.24001
2.23151
2.2303
2.2299
2.2236
2.21458
2.19955
2.17463
2.15572
2.15228
2.15054
2.14712
2.14047
2.127
2.11153
2.10623
2.10311
2.09784
2.08989
2.07408
2.04838
2.02669
2.02161
2.02105
2.02275
2.02143
2.01678
2.0059
1.98842
1.97598
1.96989
1.96417
1.40001
1.40001
1.40001
1.40001
1.40001
1.40001
1.40001
1.40001
1.40001
1.40001
1.40001
1.40001
1.40001
1.40001
1.40001
1.40001
1.40001
1.40001
1.40001
1.40001
1.40001
1.40001
1.40001
1.40001
1.40001
1.40001
1.40001
1.40001
1.40001
1.40001
1.40001
1.40001
1.40001
1.40001
1.40001
1.40001
1.40001
1.40001
1.40001
1.40001
1.40001
1.40001
1.40001
1.40001
1.40001
1.4007
1.42321
1.70259
2.66388
3.63631
3.7583
3.7732
3.76027
3.73729
3.70966
3.69019
3.67803
3.65401
3.61716
3.59064
3.59172
3.59354
3.57376
3.54804
3.52282
3.49467
3.45991
3.41979
3.397
3.39265
3.38883
3.38104
3.3686
3.34867
3.32145
3.28769
3.24662
3.21259
3.19197
3.18651
3.18786
3.191
3.18376
3.16633
3.13719
3.102
3.06699
3.03987
3.02294
3.01541
3.01193
3.00365
2.9865
2.95228
2.91106
2.88552
2.87982
2.87798
2.87536
2.86851
2.8599
2.8485
2.82522
2.78787
2.75452
2.74524
2.74271
2.73722
2.7291
2.72023
2.70425
2.67667
2.64613
2.62734
2.62171
2.62215
2.62106
2.61425
2.60167
2.57205
2.53094
2.50556
2.49899
2.49895
2.50869
2.51268
2.50579
2.48767
2.45542
2.4223
2.40803
2.40597
2.40561
2.40281
2.39335
2.37022
2.34722
2.33863
2.33561
2.33013
2.32281
2.30968
2.28728
2.26485
2.25493
2.25336
2.25445
2.24973
2.24093
2.22688
2.20174
2.17851
2.17295
2.17105
2.1679
2.16161
2.14974
2.13543
2.12959
2.12699
2.12281
2.11603
2.10035
2.07341
2.04887
2.04136
2.04046
2.04212
2.04194
2.03816
2.02947
2.01295
1.9981
1.99096
1.98512
1.97833
1.40001
1.40001
1.40001
1.40001
1.40001
1.40001
1.40001
1.40001
1.40001
1.40001
1.40001
1.40001
1.40001
1.40001
1.40001
1.40001
1.40001
1.40001
1.40001
1.40001
1.40001
1.40001
1.40001
1.40001
1.40001
1.40001
1.40001
1.40001
1.40001
1.40001
1.40001
1.40001
1.40001
1.40001
1.40001
1.40001
1.40001
1.40001
1.40001
1.40001
1.40001
1.40001
1.40001
1.40001
1.40001
1.40001
1.4003
1.41778
1.69565
2.70945
3.56327
3.74755
3.77081
3.74032
3.71688
3.70401
3.69923
3.67849
3.64301
3.62604
3.62302
3.60487
3.57833
3.55444
3.52929
3.50143
3.46911
3.44587
3.44263
3.43669
3.42293
3.40396
3.38003
3.35271
3.32108
3.28306
3.24976
3.2303
3.22468
3.22548
3.22692
3.21869
3.20051
3.17007
3.13224
3.09595
3.07112
3.05977
3.05555
3.0536
3.04504
3.02733
2.9923
2.94791
2.91712
2.90954
2.90712
2.90775
2.90132
2.89229
2.88075
2.85868
2.82289
2.78743
2.77473
2.77287
2.76971
2.76163
2.75199
2.73523
2.70677
2.67533
2.65577
2.65008
2.65046
2.65144
2.64502
2.63291
2.60433
2.56201
2.53371
2.52612
2.52552
2.53528
2.54117
2.53609
2.52011
2.48838
2.45136
2.43331
2.43025
2.42933
2.42676
2.41881
2.39723
2.37424
2.36517
2.36245
2.35789
2.35036
2.3361
2.31282
2.28989
2.27881
2.27684
2.27873
2.27585
2.26716
2.25406
2.22975
2.20299
2.19316
2.19111
2.1879
2.18209
2.17214
2.1602
2.15439
2.1518
2.14814
2.142
2.1262
2.09869
2.07186
2.06166
2.06039
2.0617
2.06274
2.05963
2.0527
2.03754
2.02087
2.0125
2.00664
1.99993
1.99114
1.40001
1.40001
1.40001
1.40001
1.40001
1.40001
1.40001
1.40001
1.40001
1.40001
1.40001
1.40001
1.40001
1.40001
1.40001
1.40001
1.40001
1.40001
1.40001
1.40001
1.40001
1.40001
1.40001
1.40001
1.40001
1.40001
1.40001
1.40001
1.40001
1.40001
1.40001
1.40001
1.40001
1.40001
1.40001
1.40001
1.40001
1.40001
1.40001
1.40001
1.40001
1.40001
1.40001
1.40001
1.40001
1.40001
1.40001
1.40027
1.41965
1.70493
2.71142
3.48302
3.73286
3.76012
3.74722
3.74285
3.73551
3.69884
3.6533
3.6339
3.62871
3.60833
3.58742
3.56865
3.54462
3.51419
3.48934
3.48851
3.48653
3.47059
3.44475
3.41589
3.38552
3.35292
3.31894
3.28808
3.27142
3.2668
3.26666
3.26355
3.25232
3.23251
3.20218
3.16278
3.12618
3.10259
3.09433
3.09324
3.09504
3.08686
3.06855
3.03338
2.98654
2.95109
2.94087
2.93748
2.94005
2.93655
2.92668
2.91423
2.89189
2.85696
2.82048
2.80366
2.8012
2.80116
2.79438
2.78423
2.76673
2.73751
2.70529
2.6851
2.67905
2.67907
2.68162
2.67598
2.66429
2.63669
2.59432
2.56286
2.55339
2.55218
2.56187
2.5691
2.56478
2.55124
2.5215
2.4821
2.4593
2.45431
2.45218
2.44956
2.44301
2.42441
2.40257
2.3935
2.39047
2.3858
2.3775
2.36162
2.33832
2.31514
2.30283
2.3007
2.30301
2.30253
2.29424
2.28115
2.25763
2.22896
2.21315
2.21082
2.2078
2.20243
2.19421
2.18545
2.18056
2.17793
2.17435
2.16791
2.15065
2.12302
2.09549
2.08294
2.08092
2.08148
2.08383
2.0817
2.0759
2.06192
2.04393
2.03413
2.02837
2.02191
2.01352
2.00045
1.40001
1.40001
1.40001
1.40001
1.40001
1.40001
1.40001
1.40001
1.40001
1.40001
1.40001
1.40001
1.40001
1.40001
1.40001
1.40001
1.40001
1.40001
1.40001
1.40001
1.40001
1.40001
1.40001
1.40001
1.40001
1.40001
1.40001
1.40001
1.40001
1.40001
1.40001
1.40001
1.40001
1.40001
1.40001
1.40001
1.40001
1.40001
1.40001
1.40001
1.40001
1.40001
1.40001
1.40001
1.40001
1.40001
1.40001
1.40001
1.40032
1.41994
1.70049
2.6358
3.35119
3.68301
3.78551
3.80675
3.79093
3.73659
3.6721
3.63692
3.62528
3.61674
3.60461
3.58805
3.56524
3.53351
3.52111
3.52469
3.51223
3.48568
3.45592
3.42449
3.39159
3.35758
3.32726
3.3127
3.30999
3.30928
3.30189
3.28624
3.26175
3.23209
3.19389
3.15792
3.1348
3.12792
3.12853
3.13416
3.12727
3.10862
3.07405
3.02662
2.98745
2.97373
2.97007
2.97199
2.9733
2.96359
2.94982
2.92565
2.89046
2.85353
2.83327
2.8295
2.83057
2.82679
2.81657
2.79832
2.76824
2.7354
2.71481
2.70866
2.70844
2.71233
2.70728
2.69584
2.66884
2.62692
2.59293
2.58124
2.57911
2.58723
2.59691
2.59339
2.58077
2.55351
2.5134
2.48571
2.47842
2.4748
2.47167
2.46622
2.45175
2.43241
2.42388
2.42046
2.41446
2.40382
2.38562
2.36279
2.34004
2.32702
2.32481
2.32718
2.32963
2.32231
2.3089
2.2853
2.25514
2.23385
2.23026
2.22748
2.22271
2.21692
2.21144
2.20787
2.20507
2.20129
2.19424
2.17491
2.14559
2.11856
2.10561
2.10259
2.10221
2.10455
2.10356
2.09908
2.08585
2.06667
2.05572
2.05012
2.04391
2.03594
2.02378
2.00602
1.40001
1.40001
1.40001
1.40001
1.40001
1.40001
1.40001
1.40001
1.40001
1.40001
1.40001
1.40001
1.40001
1.40001
1.40001
1.40001
1.40001
1.40001
1.40001
1.40001
1.40001
1.40001
1.40001
1.40001
1.40001
1.40001
1.40001
1.40001
1.40001
1.40001
1.40001
1.40001
1.40001
1.40001
1.40001
1.40001
1.40001
1.40001
1.40001
1.40001
1.40001
1.40001
1.40001
1.40001
1.40001
1.40001
1.40001
1.40001
1.40001
1.40031
1.4172
1.64022
2.38444
3.26048
3.76563
3.79694
3.7744
3.73832
3.68469
3.65221
3.6432
3.64017
3.62649
3.61034
3.58769
3.55603
3.54531
3.5389
3.51853
3.49138
3.46383
3.43319
3.39954
3.36839
3.35547
3.35396
3.35158
3.34029
3.31863
3.2908
3.26064
3.22544
3.19184
3.16882
3.16248
3.1638
3.17087
3.16424
3.14515
3.11199
3.0659
3.02481
3.00822
3.00451
3.00583
3.01028
3.00235
2.98724
2.96046
2.92388
2.88636
2.86408
2.85922
2.85967
2.85856
2.84876
2.82965
2.79867
2.76512
2.74415
2.73812
2.73798
2.74377
2.73964
2.72839
2.70144
2.65895
2.62309
2.60976
2.60673
2.61243
2.62293
2.62084
2.61033
2.58402
2.54497
2.51357
2.50144
2.49694
2.49382
2.48993
2.47952
2.46382
2.45611
2.45239
2.44445
2.42966
2.40876
2.38593
2.36429
2.35121
2.34903
2.35158
2.35633
2.35055
2.33735
2.31313
2.28114
2.25586
2.24939
2.2473
2.2435
2.23995
2.23821
2.23652
2.23292
2.22836
2.21995
2.19899
2.16772
2.14042
2.12842
2.12556
2.1247
2.126
2.12502
2.12126
2.10903
2.08864
2.07681
2.07182
2.06602
2.05834
2.04704
2.02894
2.01557
1.40001
1.40001
1.40001
1.40001
1.40001
1.40001
1.40001
1.40001
1.40001
1.40001
1.40001
1.40001
1.40001
1.40001
1.40001
1.40001
1.40001
1.40001
1.40001
1.40001
1.40001
1.40001
1.40001
1.40001
1.40001
1.40001
1.40001
1.40001
1.40001
1.40001
1.40001
1.40001
1.40001
1.40001
1.40001
1.40001
1.40001
1.40001
1.40001
1.40001
1.40001
1.40001
1.40001
1.40001
1.40001
1.40001
1.40001
1.40001
1.40001
1.40001
1.4002
1.40945
1.55992
2.23179
3.31122
3.75049
3.76935
3.75075
3.69862
3.66308
3.66322
3.65944
3.64849
3.63223
3.60843
3.57509
3.55658
3.54308
3.52064
3.49677
3.4723
3.44364
3.41287
3.40005
3.40091
3.39622
3.37892
3.34991
3.32053
3.29147
3.2604
3.22899
3.20679
3.20064
3.20193
3.20639
3.19782
3.17719
3.1455
3.10189
3.06256
3.04376
3.04018
3.04239
3.04858
3.04177
3.02567
2.99627
2.95756
2.91886
2.89587
2.89056
2.89059
2.89097
2.88147
2.8612
2.82892
2.79413
2.77274
2.76693
2.76697
2.77512
2.77308
2.76162
2.73469
2.69145
2.65274
2.63818
2.63471
2.63859
2.64911
2.64757
2.63863
2.61497
2.57596
2.54075
2.52517
2.51914
2.51612
2.51448
2.50891
2.49667
2.48965
2.48534
2.47476
2.45571
2.43223
2.40827
2.38748
2.37518
2.37334
2.37654
2.38299
2.37852
2.3658
2.34155
2.30786
2.27847
2.26834
2.26669
2.26438
2.26312
2.26471
2.26582
2.26176
2.25601
2.24536
2.22278
2.19028
2.16234
2.15088
2.14864
2.14882
2.14938
2.14738
2.14319
2.13142
2.11053
2.09721
2.09319
2.08817
2.08094
2.07029
2.05215
2.03565
2.03252
1.40001
1.40001
1.40001
1.40001
1.40001
1.40001
1.40001
1.40001
1.40001
1.40001
1.40001
1.40001
1.40001
1.40001
1.40001
1.40001
1.40001
1.40001
1.40001
1.40001
1.40001
1.40001
1.40001
1.40001
1.40001
1.40001
1.40001
1.40001
1.40001
1.40001
1.40001
1.40001
1.40001
1.40001
1.40001
1.40001
1.40001
1.40001
1.40001
1.40001
1.40001
1.40001
1.40001
1.40001
1.40001
1.40001
1.40001
1.40001
1.40001
1.40001
1.40001
1.40008
1.40558
1.52506
2.21065
3.33367
3.68333
3.73955
3.71714
3.68378
3.67915
3.67275
3.66952
3.65069
3.62584
3.58492
3.55956
3.54548
3.52625
3.50858
3.48843
3.46238
3.44504
3.44409
3.43693
3.41461
3.38448
3.35412
3.32497
3.29595
3.26702
3.24864
3.24313
3.24397
3.24222
3.22926
3.20535
3.1746
3.13476
3.09849
3.07958
3.0762
3.08034
3.08834
3.08173
3.06378
3.03249
2.99163
2.95125
2.92799
2.92264
2.9229
2.92457
2.91551
2.89402
2.85989
2.82322
2.80084
2.79505
2.79508
2.80533
2.80655
2.79567
2.76892
2.72434
2.68209
2.6659
2.66238
2.66513
2.67604
2.67564
2.66694
2.6455
2.60767
2.56872
2.54925
2.5429
2.54057
2.54036
2.5389
2.5313
2.5239
2.51773
2.50376
2.4816
2.4558
2.4305
2.41024
2.39916
2.39786
2.40213
2.40996
2.40641
2.39398
2.36994
2.33525
2.3021
2.28807
2.28621
2.2849
2.28619
2.29132
2.29451
2.29073
2.28383
2.27061
2.24631
2.21268
2.18508
2.17371
2.17174
2.17303
2.17476
2.17136
2.16598
2.15334
2.13259
2.11792
2.11419
2.11011
2.10365
2.09378
2.07592
2.05653
2.0514
2.0511
1.40001
1.40001
1.40001
1.40001
1.40001
1.40001
1.40001
1.40001
1.40001
1.40001
1.40001
1.40001
1.40001
1.40001
1.40001
1.40001
1.40001
1.40001
1.40001
1.40001
1.40001
1.40001
1.40001
1.40001
1.40001
1.40001
1.40001
1.40001
1.40001
1.40001
1.40001
1.40001
1.40001
1.40001
1.40001
1.40001
1.40001
1.40001
1.40001
1.40001
1.40001
1.40001
1.40001
1.40001
1.40001
1.40001
1.40001
1.40001
1.40001
1.40001
1.40001
1.40001
1.40005
1.40453
1.51698
2.2238
3.24733
3.64191
3.71501
3.71735
3.70059
3.69881
3.69369
3.66563
3.62971
3.5805
3.56487
3.55518
3.54169
3.52885
3.51188
3.49302
3.48445
3.47308
3.44908
3.41906
3.38937
3.35993
3.33024
3.3044
3.29077
3.28763
3.28812
3.28039
3.25978
3.23137
3.20046
3.16535
3.13324
3.11511
3.11188
3.11777
3.12763
3.12096
3.101
3.0685
3.02584
2.98415
2.96045
2.95496
2.9555
2.95845
2.95032
2.92813
2.89213
2.85316
2.82939
2.8232
2.82295
2.83407
2.83893
2.82927
2.80342
2.75838
2.71183
2.69292
2.68956
2.69159
2.70326
2.70506
2.69687
2.67549
2.63888
2.59748
2.57546
2.56791
2.56632
2.56877
2.57076
2.56764
2.55987
2.54938
2.53079
2.50677
2.47909
2.4526
2.4331
2.42365
2.42301
2.42877
2.43781
2.43466
2.42217
2.39814
2.36287
2.32671
2.309
2.30648
2.30568
2.30939
2.31784
2.32244
2.31882
2.31097
2.29564
2.27007
2.23575
2.20854
2.19752
2.19571
2.19741
2.20045
2.19683
2.18976
2.17532
2.15443
2.13915
2.13538
2.13204
2.12637
2.11748
2.10053
2.07874
2.07034
2.06973
2.07094
1.40001
1.40001
1.40001
1.40001
1.40001
1.40001
1.40001
1.40001
1.40001
1.40001
1.40001
1.40001
1.40001
1.40001
1.40001
1.40001
1.40001
1.40001
1.40001