/*--------------------------------*- C++ -*----------------------------------*\
  =========                 |
  \\      /  F ield         | OpenFOAM: The Open Source CFD Toolbox
   \\    /   O peration     | Website:  https://openfoam.org
    \\  /    A nd           | Version:  7
     \\/     M anipulation  |
\*---------------------------------------------------------------------------*/
FoamFile
{
    version     2.0;
    format      ascii;
    class       volVectorField;
    location    "3";
    object      U;
}
// * * * * * * * * * * * * * * * * * * * * * * * * * * * * * * * * * * * * * //

dimensions      [0 1 -1 0 0 0 0];

internalField   nonuniform List<vector> 
16192
(
(2.59467 0.039773 0)
(2.59382 0.0396402 0)
(2.59304 0.0394131 0)
(2.5923 0.0390286 0)
(2.59203 0.0386778 0)
(2.59202 0.0384382 0)
(2.59264 0.0384457 0)
(2.59364 0.0389115 0)
(2.59419 0.0393267 0)
(2.59443 0.0394675 0)
(2.59477 0.039644 0)
(2.59481 0.0395873 0)
(2.59407 0.0389114 0)
(2.59309 0.0378731 0)
(2.59345 0.0374459 0)
(2.59447 0.0376059 0)
(2.59546 0.0380934 0)
(2.59668 0.0386434 0)
(2.59877 0.0397492 0)
(2.60038 0.0406975 0)
(2.60119 0.0408219 0)
(2.6022 0.0409704 0)
(2.60286 0.0409854 0)
(2.60249 0.0403445 0)
(2.60073 0.0386355 0)
(2.59967 0.0374383 0)
(2.60035 0.0373104 0)
(2.601 0.0374252 0)
(2.60181 0.0375092 0)
(2.60334 0.03786 0)
(2.60516 0.0386201 0)
(2.60596 0.0389326 0)
(2.60642 0.0390015 0)
(2.60693 0.039065 0)
(2.60677 0.0386872 0)
(2.6056 0.0377388 0)
(2.60546 0.0374094 0)
(2.606 0.0376902 0)
(2.60671 0.0381806 0)
(2.60783 0.0385632 0)
(2.60899 0.0386719 0)
(2.60965 0.0384745 0)
(2.61016 0.0382651 0)
(2.61058 0.0381051 0)
(2.61085 0.0378773 0)
(2.61034 0.0371984 0)
(2.60876 0.0360348 0)
(2.6084 0.0354612 0)
(2.60885 0.0355459 0)
(2.60928 0.035622 0)
(2.60977 0.0358145 0)
(2.61023 0.0360217 0)
(2.61063 0.0360957 0)
(2.61095 0.036094 0)
(2.6112 0.0360639 0)
(2.61128 0.035939 0)
(2.61099 0.035616 0)
(2.61026 0.0351167 0)
(2.60985 0.0349927 0)
(2.60985 0.0353927 0)
(2.61031 0.0364611 0)
(2.61154 0.0380974 0)
(2.6129 0.0394719 0)
(2.61337 0.039824 0)
(2.61349 0.0398145 0)
(2.61319 0.039644 0)
(2.61212 0.0390132 0)
(2.60999 0.0374643 0)
(2.60777 0.0361424 0)
(2.60717 0.035924 0)
(2.60696 0.036041 0)
(2.60691 0.0364498 0)
(2.60769 0.0374892 0)
(2.60917 0.0390156 0)
(2.60956 0.0396674 0)
(2.60929 0.0397018 0)
(2.60901 0.0397186 0)
(2.60821 0.039366 0)
(2.60659 0.0382357 0)
(2.60463 0.0369449 0)
(2.6039 0.036621 0)
(2.60387 0.0369848 0)
(2.60437 0.0380777 0)
(2.60583 0.0398041 0)
(2.60718 0.0409913 0)
(2.6076 0.0411349 0)
(2.60813 0.0410129 0)
(2.60841 0.0405846 0)
(2.60827 0.0397338 0)
(2.60748 0.038068 0)
(2.60607 0.0360487 0)
(2.60567 0.0349886 0)
(2.60614 0.0349224 0)
(2.60686 0.0353092 0)
(2.60882 0.0365997 0)
(2.61188 0.0388401 0)
(2.61419 0.0401048 0)
(2.6148 0.0401071 0)
(2.61537 0.0395111 0)
(2.61519 0.0383596 0)
(2.61367 0.0360782 0)
(2.61074 0.0324093 0)
(2.60935 0.0305218 0)
(2.60982 0.0303419 0)
(2.61036 0.030644 0)
(2.6116 0.0317229 0)
(2.61402 0.0342653 0)
(2.61682 0.0372816 0)
(2.61799 0.0384636 0)
(2.61831 0.0385205 0)
(2.61827 0.0379136 0)
(2.61731 0.0365641 0)
(2.61545 0.034211 0)
(2.61391 0.0324105 0)
(2.61392 0.0319044 0)
(2.61428 0.0320152 0)
(2.61549 0.0328226 0)
(2.61794 0.0351089 0)
(2.62074 0.0377697 0)
(2.6216 0.038686 0)
(2.62154 0.0386604 0)
(2.62073 0.0380577 0)
(2.61876 0.0364157 0)
(2.616 0.0333952 0)
(2.61454 0.0315275 0)
(2.61448 0.0312618 0)
(2.61469 0.0311995 0)
(2.61527 0.0315412 0)
(2.61649 0.0330645 0)
(2.6179 0.0352199 0)
(2.61783 0.0360633 0)
(2.61728 0.0362386 0)
(2.61604 0.0360627 0)
(2.61364 0.0350483 0)
(2.61104 0.0336875 0)
(2.60999 0.0334171 0)
(2.60968 0.0344188 0)
(2.60604 0.0308281 0)
(2.56914 -0.021575 0)
(2.40283 -0.225305 0)
(2.07094 -0.561763 0)
(1.99013 -0.624405 0)
(1.99365 -0.587679 0)
(2.00853 -0.588441 0)
(2.00768 -0.60094 0)
(1.99863 -0.617043 0)
(1.99231 -0.620755 0)
(1.99497 -0.618117 0)
(2.0022 -0.610596 0)
(2.00749 -0.605166 0)
(2.01169 -0.605437 0)
(2.01407 -0.607446 0)
(2.0152 -0.609037 0)
(2.01686 -0.609545 0)
(2.01958 -0.608749 0)
(2.02506 -0.60663 0)
(2.02865 -0.605875 0)
(2.03169 -0.606476 0)
(2.03361 -0.607559 0)
(2.03465 -0.609022 0)
(2.03579 -0.609943 0)
(2.0381 -0.610192 0)
(2.04062 -0.608074 0)
(2.04417 -0.604033 0)
(2.04875 -0.600205 0)
(2.05185 -0.598708 0)
(2.05391 -0.599399 0)
(2.05569 -0.600791 0)
(2.05714 -0.601923 0)
(2.0589 -0.602121 0)
(2.06065 -0.601828 0)
(2.06233 -0.601343 0)
(2.06485 -0.600309 0)
(2.06757 -0.599009 0)
(2.06938 -0.598724 0)
(2.07109 -0.598795 0)
(2.07191 -0.598376 0)
(2.07241 -0.597553 0)
(2.07379 -0.597082 0)
(2.07587 -0.596905 0)
(2.07834 -0.596648 0)
(2.08233 -0.5957 0)
(2.08743 -0.592947 0)
(2.09086 -0.590196 0)
(2.09339 -0.589375 0)
(2.09555 -0.5895 0)
(2.09854 -0.590287 0)
(2.10151 -0.591021 0)
(2.10476 -0.591484 0)
(2.10773 -0.591605 0)
(2.11018 -0.590732 0)
(2.11141 -0.58839 0)
(2.1114 -0.585274 0)
(2.11243 -0.584061 0)
(2.11491 -0.584655 0)
(2.11756 -0.585504 0)
(2.12071 -0.586575 0)
(2.12397 -0.588147 0)
(2.1275 -0.590357 0)
(2.13125 -0.591624 0)
(2.13433 -0.590831 0)
(2.13712 -0.587431 0)
(2.14008 -0.581547 0)
(2.14223 -0.575863 0)
(2.14372 -0.572515 0)
(2.14576 -0.572443 0)
(2.1479 -0.573843 0)
(2.14999 -0.576716 0)
(2.15225 -0.580277 0)
(2.15479 -0.583979 0)
(2.1566 -0.586172 0)
(2.15794 -0.586588 0)
(2.15768 -0.585239 0)
(2.15512 -0.580588 0)
(2.15379 -0.575734 0)
(2.15462 -0.573217 0)
(2.157 -0.571294 0)
(2.16259 -0.569062 0)
(2.16913 -0.567276 0)
(2.17273 -0.566404 0)
(2.17488 -0.565992 0)
(2.17734 -0.565992 0)
(2.17905 -0.565346 0)
(2.1779 -0.562382 0)
(2.17544 -0.559164 0)
(2.17655 -0.558892 0)
(2.17869 -0.559493 0)
(2.18068 -0.560267 0)
(2.18377 -0.561693 0)
(2.18915 -0.5644 0)
(2.19366 -0.564953 0)
(2.19531 -0.564615 0)
(2.19711 -0.562607 0)
(2.19768 -0.558678 0)
(2.1962 -0.553279 0)
(2.19558 -0.549761 0)
(2.19734 -0.549311 0)
(2.19956 -0.549547 0)
(2.20234 -0.549908 0)
(2.20571 -0.550819 0)
(2.21027 -0.553263 0)
(2.21533 -0.556063 0)
(2.21832 -0.55649 0)
(2.22031 -0.556694 0)
(2.2221 -0.555512 0)
(2.22277 -0.55241 0)
(2.22216 -0.54772 0)
(2.22229 -0.543865 0)
(2.22434 -0.542689 0)
(2.2269 -0.542651 0)
(2.23031 -0.542765 0)
(2.23361 -0.543217 0)
(2.23669 -0.544272 0)
(2.59606 0.0391634 0)
(2.59506 0.0391893 0)
(2.5942 0.0391653 0)
(2.59367 0.03915 0)
(2.59356 0.0392871 0)
(2.59429 0.0396473 0)
(2.59525 0.0399925 0)
(2.5956 0.040149 0)
(2.59571 0.0401636 0)
(2.59594 0.0401516 0)
(2.59603 0.0400368 0)
(2.59533 0.0395439 0)
(2.59401 0.0385489 0)
(2.59403 0.0380034 0)
(2.59498 0.0381032 0)
(2.59596 0.0385126 0)
(2.59715 0.0390658 0)
(2.5993 0.0401468 0)
(2.60118 0.041239 0)
(2.60205 0.0413941 0)
(2.6031 0.0415123 0)
(2.60385 0.0415573 0)
(2.60367 0.0410875 0)
(2.60198 0.0395753 0)
(2.60044 0.0382233 0)
(2.60095 0.0380267 0)
(2.60165 0.0382436 0)
(2.60237 0.0384661 0)
(2.60369 0.0388528 0)
(2.60567 0.0396883 0)
(2.60695 0.0401181 0)
(2.60741 0.0401174 0)
(2.60798 0.0400624 0)
(2.60807 0.0397233 0)
(2.60695 0.0386838 0)
(2.60634 0.0381935 0)
(2.6069 0.0383831 0)
(2.60758 0.0387959 0)
(2.6085 0.039056 0)
(2.60945 0.0391306 0)
(2.61028 0.0390262 0)
(2.61087 0.0388224 0)
(2.61132 0.0386375 0)
(2.61166 0.0384398 0)
(2.61155 0.0378846 0)
(2.61022 0.0366695 0)
(2.60908 0.0357818 0)
(2.60947 0.0358277 0)
(2.60993 0.0358955 0)
(2.61041 0.0360953 0)
(2.61091 0.0363953 0)
(2.61144 0.0367271 0)
(2.61182 0.0369012 0)
(2.61208 0.0369549 0)
(2.61218 0.0368841 0)
(2.61199 0.0365969 0)
(2.61156 0.0362525 0)
(2.61139 0.0362319 0)
(2.61143 0.0365747 0)
(2.6119 0.0374919 0)
(2.61298 0.0387788 0)
(2.61398 0.0395905 0)
(2.61431 0.0397068 0)
(2.61462 0.0397077 0)
(2.61456 0.0396116 0)
(2.61384 0.0391528 0)
(2.61204 0.0378611 0)
(2.60974 0.0364912 0)
(2.60892 0.0361671 0)
(2.60869 0.0362686 0)
(2.60855 0.0366817 0)
(2.60919 0.0377245 0)
(2.61072 0.0394051 0)
(2.6114 0.0403367 0)
(2.61112 0.0404152 0)
(2.61083 0.0404406 0)
(2.61009 0.0401889 0)
(2.60844 0.0391742 0)
(2.6064 0.0378052 0)
(2.60558 0.0373869 0)
(2.60545 0.0377051 0)
(2.60575 0.0386457 0)
(2.60689 0.0400238 0)
(2.60786 0.0408901 0)
(2.60816 0.0410041 0)
(2.60853 0.0410078 0)
(2.60874 0.0408016 0)
(2.60853 0.0401374 0)
(2.60774 0.0387602 0)
(2.60649 0.037096 0)
(2.60623 0.0362617 0)
(2.60675 0.0363131 0)
(2.60748 0.0367849 0)
(2.60946 0.0381094 0)
(2.61232 0.0400704 0)
(2.6143 0.040952 0)
(2.61489 0.04082 0)
(2.61542 0.0400334 0)
(2.6153 0.0387771 0)
(2.61393 0.0364264 0)
(2.61114 0.0329522 0)
(2.60974 0.0312034 0)
(2.61013 0.0310306 0)
(2.61066 0.0312905 0)
(2.61217 0.0323906 0)
(2.61492 0.0351006 0)
(2.61778 0.0379941 0)
(2.6187 0.0389413 0)
(2.61912 0.0389804 0)
(2.61893 0.0384152 0)
(2.6177 0.0369845 0)
(2.61575 0.0345198 0)
(2.6146 0.0328526 0)
(2.61489 0.0324704 0)
(2.61534 0.0326951 0)
(2.61672 0.0338125 0)
(2.61938 0.0363048 0)
(2.62206 0.0385671 0)
(2.62279 0.0390605 0)
(2.62276 0.0387198 0)
(2.62208 0.0377683 0)
(2.62016 0.0358729 0)
(2.61707 0.0328687 0)
(2.6154 0.0314016 0)
(2.61529 0.0312277 0)
(2.61548 0.031146 0)
(2.61611 0.0314485 0)
(2.6176 0.0330376 0)
(2.61953 0.0353947 0)
(2.61981 0.0364817 0)
(2.6194 0.0366586 0)
(2.61823 0.0364751 0)
(2.61583 0.0354804 0)
(2.61308 0.0340947 0)
(2.61181 0.0339006 0)
(2.61151 0.0350407 0)
(2.6071 0.0306084 0)
(2.54902 -0.0504335 0)
(2.38724 -0.252095 0)
(2.14701 -0.462951 0)
(2.00226 -0.627294 0)
(1.95624 -0.635544 0)
(1.96315 -0.619356 0)
(1.98437 -0.598021 0)
(1.99979 -0.596649 0)
(2.00413 -0.604453 0)
(2.0042 -0.61082 0)
(2.0026 -0.613267 0)
(2.00331 -0.612082 0)
(2.0079 -0.611336 0)
(2.013 -0.610156 0)
(2.01667 -0.609671 0)
(2.01934 -0.609185 0)
(2.02154 -0.607962 0)
(2.02494 -0.606789 0)
(2.02808 -0.606682 0)
(2.03114 -0.607629 0)
(2.03342 -0.60844 0)
(2.03427 -0.60949 0)
(2.03623 -0.610083 0)
(2.03872 -0.609625 0)
(2.04159 -0.607599 0)
(2.04656 -0.603978 0)
(2.051 -0.600129 0)
(2.05346 -0.599139 0)
(2.05543 -0.599414 0)
(2.05643 -0.600576 0)
(2.05772 -0.602031 0)
(2.05987 -0.602747 0)
(2.062 -0.602821 0)
(2.06405 -0.601768 0)
(2.06633 -0.600386 0)
(2.06872 -0.599452 0)
(2.07035 -0.59942 0)
(2.0723 -0.599679 0)
(2.07413 -0.599642 0)
(2.07536 -0.599514 0)
(2.07605 -0.598958 0)
(2.07732 -0.598119 0)
(2.07929 -0.597244 0)
(2.08223 -0.595162 0)
(2.08718 -0.591592 0)
(2.09161 -0.58916 0)
(2.09415 -0.589097 0)
(2.09636 -0.589288 0)
(2.0977 -0.590053 0)
(2.10047 -0.591099 0)
(2.10336 -0.591939 0)
(2.10634 -0.592794 0)
(2.11014 -0.593364 0)
(2.11332 -0.593001 0)
(2.11601 -0.592013 0)
(2.11789 -0.589536 0)
(2.11776 -0.585646 0)
(2.11791 -0.583365 0)
(2.11994 -0.583623 0)
(2.12232 -0.584433 0)
(2.12476 -0.585387 0)
(2.12783 -0.586366 0)
(2.13348 -0.587162 0)
(2.1399 -0.585984 0)
(2.14477 -0.583735 0)
(2.14768 -0.581608 0)
(2.15027 -0.579923 0)
(2.15119 -0.577041 0)
(2.14931 -0.573947 0)
(2.14946 -0.574205 0)
(2.15108 -0.57606 0)
(2.15277 -0.57817 0)
(2.1545 -0.58034 0)
(2.15777 -0.583511 0)
(2.16124 -0.586121 0)
(2.16297 -0.58626 0)
(2.16274 -0.584723 0)
(2.1617 -0.579841 0)
(2.16175 -0.573964 0)
(2.16355 -0.568885 0)
(2.16694 -0.564755 0)
(2.17129 -0.563485 0)
(2.17436 -0.564396 0)
(2.17657 -0.565619 0)
(2.17895 -0.566426 0)
(2.18138 -0.566699 0)
(2.18287 -0.566032 0)
(2.18135 -0.562819 0)
(2.17898 -0.559155 0)
(2.18017 -0.558413 0)
(2.18234 -0.558706 0)
(2.18496 -0.558852 0)
(2.18996 -0.559565 0)
(2.19622 -0.561442 0)
(2.20047 -0.561631 0)
(2.20226 -0.561359 0)
(2.20408 -0.560471 0)
(2.20492 -0.557763 0)
(2.2032 -0.552787 0)
(2.2015 -0.548468 0)
(2.20289 -0.547651 0)
(2.20507 -0.547906 0)
(2.2078 -0.548254 0)
(2.21112 -0.549004 0)
(2.21569 -0.551226 0)
(2.22101 -0.554321 0)
(2.22431 -0.554898 0)
(2.22638 -0.554989 0)
(2.22848 -0.554091 0)
(2.22992 -0.551851 0)
(2.22985 -0.547905 0)
(2.22912 -0.543639 0)
(2.23044 -0.54182 0)
(2.23285 -0.541639 0)
(2.23547 -0.541731 0)
(2.23853 -0.54189 0)
(2.59765 0.0387142 0)
(2.59662 0.0390782 0)
(2.59578 0.0393135 0)
(2.59542 0.0396877 0)
(2.59605 0.0404593 0)
(2.59712 0.0412141 0)
(2.59728 0.041178 0)
(2.59724 0.0409922 0)
(2.59721 0.0407652 0)
(2.59722 0.0405138 0)
(2.59682 0.0401324 0)
(2.59553 0.0394311 0)
(2.59494 0.0388725 0)
(2.59569 0.0389526 0)
(2.59649 0.039246 0)
(2.5975 0.0396405 0)
(2.59929 0.040385 0)
(2.60157 0.0415137 0)
(2.60257 0.0417855 0)
(2.60382 0.0419446 0)
(2.60479 0.0420469 0)
(2.605 0.0417845 0)
(2.60351 0.0406078 0)
(2.60145 0.0390298 0)
(2.6016 0.0386615 0)
(2.6023 0.038918 0)
(2.60303 0.0393624 0)
(2.60421 0.0398961 0)
(2.60609 0.0407489 0)
(2.60769 0.0412202 0)
(2.60823 0.0411709 0)
(2.60887 0.0410175 0)
(2.60923 0.0407226 0)
(2.60847 0.0397563 0)
(2.60743 0.0388265 0)
(2.60783 0.0389166 0)
(2.60842 0.0392883 0)
(2.60925 0.0394914 0)
(2.61009 0.0395293 0)
(2.61087 0.039509 0)
(2.61157 0.0394153 0)
(2.61208 0.0392838 0)
(2.61249 0.0391559 0)
(2.61263 0.0387764 0)
(2.61175 0.0377076 0)
(2.61023 0.0364326 0)
(2.61022 0.0361981 0)
(2.61066 0.0363012 0)
(2.61116 0.0365019 0)
(2.61176 0.0369453 0)
(2.61219 0.0373381 0)
(2.61277 0.0377537 0)
(2.61313 0.0379993 0)
(2.61324 0.0380128 0)
(2.61299 0.0377119 0)
(2.61272 0.0373992 0)
(2.61274 0.037385 0)
(2.61287 0.0376012 0)
(2.61337 0.0382148 0)
(2.61429 0.0391105 0)
(2.61492 0.0395458 0)
(2.61529 0.0395778 0)
(2.61568 0.0395653 0)
(2.61582 0.0395111 0)
(2.6154 0.0392103 0)
(2.614 0.0382259 0)
(2.61177 0.0369247 0)
(2.61076 0.0364923 0)
(2.61053 0.0365907 0)
(2.61033 0.0370777 0)
(2.61087 0.0382094 0)
(2.6124 0.0400266 0)
(2.61328 0.0411511 0)
(2.61305 0.0412644 0)
(2.61277 0.0412545 0)
(2.61211 0.0410231 0)
(2.61053 0.0400838 0)
(2.60844 0.0386739 0)
(2.60752 0.0381439 0)
(2.6073 0.0383273 0)
(2.60741 0.0390387 0)
(2.60824 0.0401249 0)
(2.6089 0.0407529 0)
(2.60905 0.0408437 0)
(2.60926 0.0409298 0)
(2.60939 0.0408821 0)
(2.60915 0.0404013 0)
(2.60831 0.0393504 0)
(2.60713 0.0380822 0)
(2.60698 0.037507 0)
(2.60751 0.0376466 0)
(2.6083 0.0382582 0)
(2.61023 0.0396037 0)
(2.61282 0.0413156 0)
(2.61442 0.0418904 0)
(2.61504 0.0416554 0)
(2.61557 0.0408327 0)
(2.61544 0.0395533 0)
(2.61419 0.0371591 0)
(2.61166 0.0337376 0)
(2.61039 0.0318504 0)
(2.61069 0.0315578 0)
(2.61125 0.031812 0)
(2.61287 0.0330346 0)
(2.61581 0.0358436 0)
(2.61862 0.0384647 0)
(2.6194 0.0391656 0)
(2.61992 0.0391863 0)
(2.61958 0.038548 0)
(2.61818 0.0370579 0)
(2.61615 0.0348402 0)
(2.61528 0.0337203 0)
(2.61568 0.0336137 0)
(2.6162 0.0339868 0)
(2.61777 0.0352408 0)
(2.62059 0.0377096 0)
(2.62319 0.0396095 0)
(2.62389 0.0398666 0)
(2.62401 0.0394726 0)
(2.62331 0.0384946 0)
(2.62122 0.0362136 0)
(2.61796 0.0325959 0)
(2.61636 0.0307742 0)
(2.61631 0.0304901 0)
(2.61654 0.0305283 0)
(2.61722 0.0312057 0)
(2.61888 0.0331738 0)
(2.62111 0.035772 0)
(2.62168 0.0369619 0)
(2.62141 0.037133 0)
(2.62033 0.0368861 0)
(2.618 0.0358451 0)
(2.61518 0.0342271 0)
(2.61389 0.0338141 0)
(2.61358 0.0350094 0)
(2.60931 0.0313188 0)
(2.55715 -0.0406071 0)
(2.30418 -0.343479 0)
(2.12043 -0.509565 0)
(2.04151 -0.552704 0)
(2.00655 -0.60613 0)
(1.98097 -0.630907 0)
(1.973 -0.630192 0)
(1.98011 -0.619902 0)
(1.99198 -0.60705 0)
(2.00162 -0.604759 0)
(2.00524 -0.606251 0)
(2.0077 -0.608261 0)
(2.00857 -0.611019 0)
(2.01077 -0.612499 0)
(2.01419 -0.612969 0)
(2.01797 -0.611382 0)
(2.02211 -0.608172 0)
(2.02547 -0.605767 0)
(2.02828 -0.605893 0)
(2.03113 -0.607012 0)
(2.03341 -0.608788 0)
(2.03535 -0.60995 0)
(2.03692 -0.60952 0)
(2.03901 -0.608486 0)
(2.04153 -0.606665 0)
(2.04609 -0.603421 0)
(2.05147 -0.600337 0)
(2.05449 -0.600162 0)
(2.05733 -0.601219 0)
(2.058 -0.602102 0)
(2.05847 -0.602655 0)
(2.06059 -0.60273 0)
(2.06273 -0.602532 0)
(2.06504 -0.601804 0)
(2.06805 -0.600186 0)
(2.07016 -0.598867 0)
(2.07205 -0.598961 0)
(2.07378 -0.599579 0)
(2.07521 -0.600377 0)
(2.0765 -0.600898 0)
(2.07837 -0.600927 0)
(2.08046 -0.599973 0)
(2.08257 -0.597463 0)
(2.08502 -0.594494 0)
(2.0887 -0.591157 0)
(2.09162 -0.589074 0)
(2.09403 -0.589425 0)
(2.09646 -0.589885 0)
(2.09824 -0.590322 0)
(2.09974 -0.590737 0)
(2.10257 -0.591237 0)
(2.10543 -0.591736 0)
(2.10835 -0.591877 0)
(2.11254 -0.591967 0)
(2.11746 -0.591598 0)
(2.11999 -0.591289 0)
(2.12248 -0.590872 0)
(2.12398 -0.588903 0)
(2.12275 -0.584952 0)
(2.12211 -0.582012 0)
(2.12413 -0.581471 0)
(2.12648 -0.581352 0)
(2.12948 -0.580945 0)
(2.13522 -0.580846 0)
(2.14237 -0.580897 0)
(2.14776 -0.581092 0)
(2.1505 -0.581503 0)
(2.15379 -0.58225 0)
(2.15654 -0.582589 0)
(2.15581 -0.580741 0)
(2.1523 -0.577376 0)
(2.1524 -0.576541 0)
(2.15453 -0.577071 0)
(2.15642 -0.577923 0)
(2.15845 -0.579036 0)
(2.16217 -0.581811 0)
(2.16673 -0.584789 0)
(2.16977 -0.584177 0)
(2.17093 -0.581144 0)
(2.17202 -0.575635 0)
(2.17251 -0.569114 0)
(2.17348 -0.564165 0)
(2.1746 -0.562857 0)
(2.17596 -0.56322 0)
(2.17752 -0.564149 0)
(2.18005 -0.565689 0)
(2.18281 -0.567047 0)
(2.18529 -0.567545 0)
(2.1868 -0.566652 0)
(2.18565 -0.562778 0)
(2.18406 -0.558167 0)
(2.18543 -0.556392 0)
(2.18743 -0.556046 0)
(2.19123 -0.555826 0)
(2.19694 -0.556243 0)
(2.20238 -0.558271 0)
(2.20605 -0.559022 0)
(2.20832 -0.55902 0)
(2.21023 -0.558761 0)
(2.21128 -0.556901 0)
(2.20982 -0.552497 0)
(2.20755 -0.547847 0)
(2.20856 -0.546653 0)
(2.21075 -0.546883 0)
(2.21323 -0.547213 0)
(2.21646 -0.547832 0)
(2.22136 -0.549777 0)
(2.22705 -0.552317 0)
(2.23024 -0.552548 0)
(2.23244 -0.552395 0)
(2.23462 -0.55195 0)
(2.23627 -0.550641 0)
(2.23633 -0.547593 0)
(2.23528 -0.543501 0)
(2.23613 -0.541171 0)
(2.23832 -0.540382 0)
(2.24075 -0.539985 0)
(2.59946 0.0384465 0)
(2.59859 0.0392055 0)
(2.5979 0.039853 0)
(2.59797 0.040738 0)
(2.59892 0.0417444 0)
(2.59909 0.041987 0)
(2.59894 0.041857 0)
(2.59876 0.041564 0)
(2.59856 0.0412089 0)
(2.59827 0.0408243 0)
(2.59734 0.0403275 0)
(2.59628 0.0398646 0)
(2.59674 0.0399071 0)
(2.59741 0.040082 0)
(2.59825 0.0403223 0)
(2.59944 0.0407768 0)
(2.60157 0.0417015 0)
(2.60276 0.0420975 0)
(2.60392 0.0421597 0)
(2.60516 0.0422747 0)
(2.60602 0.0422823 0)
(2.60538 0.0416313 0)
(2.60305 0.0401389 0)
(2.60247 0.0394865 0)
(2.60307 0.0396457 0)
(2.60372 0.0400376 0)
(2.60482 0.0406093 0)
(2.60654 0.0415372 0)
(2.60816 0.0420658 0)
(2.60885 0.0419523 0)
(2.60958 0.0417845 0)
(2.61012 0.0415573 0)
(2.60984 0.0407533 0)
(2.60872 0.03964 0)
(2.60888 0.0393994 0)
(2.60937 0.0396782 0)
(2.61 0.039953 0)
(2.61085 0.0399928 0)
(2.6116 0.0400026 0)
(2.6123 0.0400289 0)
(2.61291 0.0400127 0)
(2.61336 0.0399749 0)
(2.61365 0.039724 0)
(2.61311 0.038804 0)
(2.61167 0.0374392 0)
(2.61129 0.0369241 0)
(2.61161 0.0369957 0)
(2.61199 0.0372186 0)
(2.61274 0.0377122 0)
(2.61333 0.0382364 0)
(2.61374 0.0386168 0)
(2.61422 0.0390245 0)
(2.61442 0.0391684 0)
(2.61403 0.0387773 0)
(2.61372 0.0383479 0)
(2.61391 0.0383084 0)
(2.61409 0.0383734 0)
(2.6146 0.0386157 0)
(2.61543 0.0391516 0)
(2.61591 0.0394285 0)
(2.61628 0.0394787 0)
(2.61669 0.0395108 0)
(2.61697 0.0394874 0)
(2.61686 0.0392799 0)
(2.61587 0.0385967 0)
(2.61385 0.0374804 0)
(2.61269 0.0370011 0)
(2.61247 0.0370939 0)
(2.61225 0.0376358 0)
(2.61271 0.0388838 0)
(2.61421 0.0408152 0)
(2.61518 0.0420305 0)
(2.615 0.0421567 0)
(2.61474 0.0421231 0)
(2.61416 0.0418926 0)
(2.61272 0.0410135 0)
(2.61061 0.039539 0)
(2.60956 0.038871 0)
(2.60928 0.0389403 0)
(2.60928 0.0393892 0)
(2.60994 0.0402453 0)
(2.61037 0.0407797 0)
(2.6104 0.0408437 0)
(2.61042 0.0408977 0)
(2.61043 0.0409364 0)
(2.61017 0.040673 0)
(2.60924 0.0398401 0)
(2.60809 0.0387664 0)
(2.608 0.038445 0)
(2.60852 0.0387031 0)
(2.60934 0.0395087 0)
(2.61116 0.0409414 0)
(2.61342 0.042413 0)
(2.61464 0.0427139 0)
(2.61535 0.0424149 0)
(2.61589 0.0416158 0)
(2.61576 0.0403272 0)
(2.6146 0.0380538 0)
(2.61233 0.034923 0)
(2.61117 0.0331585 0)
(2.61137 0.0328327 0)
(2.61196 0.033011 0)
(2.61368 0.0341217 0)
(2.61675 0.0367271 0)
(2.61946 0.0389467 0)
(2.62012 0.0394541 0)
(2.62069 0.0393892 0)
(2.62025 0.0386563 0)
(2.61865 0.0370174 0)
(2.6166 0.0348967 0)
(2.61608 0.0341085 0)
(2.61662 0.0341948 0)
(2.6172 0.0347077 0)
(2.61889 0.0361944 0)
(2.62174 0.0386969 0)
(2.62408 0.0402946 0)
(2.62468 0.0403277 0)
(2.62506 0.039706 0)
(2.62461 0.0385336 0)
(2.62276 0.0363091 0)
(2.61936 0.0330145 0)
(2.61743 0.0314295 0)
(2.61725 0.0311781 0)
(2.61743 0.0311297 0)
(2.61824 0.0317288 0)
(2.62024 0.0337759 0)
(2.62277 0.0364124 0)
(2.62351 0.0375218 0)
(2.62331 0.0376397 0)
(2.62234 0.0372299 0)
(2.62009 0.0360984 0)
(2.61734 0.0345732 0)
(2.61602 0.0343161 0)
(2.61572 0.0355172 0)
(2.61004 0.0291928 0)
(2.5614 -0.040169 0)
(2.35027 -0.283353 0)
(2.03783 -0.602356 0)
(1.97747 -0.610749 0)
(1.99133 -0.585976 0)
(2.00291 -0.594369 0)
(2.00079 -0.609448 0)
(1.99331 -0.621709 0)
(1.99044 -0.623184 0)
(1.99354 -0.619243 0)
(2.00072 -0.612017 0)
(2.00515 -0.608365 0)
(2.00837 -0.608395 0)
(2.01182 -0.609368 0)
(2.01492 -0.610709 0)
(2.01806 -0.611436 0)
(2.0214 -0.610375 0)
(2.02517 -0.607889 0)
(2.02813 -0.606627 0)
(2.03086 -0.606587 0)
(2.03296 -0.607398 0)
(2.03558 -0.608448 0)
(2.03831 -0.609299 0)
(2.04081 -0.608859 0)
(2.04326 -0.606231 0)
(2.04698 -0.603196 0)
(2.05087 -0.600878 0)
(2.0535 -0.60111 0)
(2.05669 -0.602361 0)
(2.05952 -0.603662 0)
(2.06136 -0.604266 0)
(2.06237 -0.603836 0)
(2.06414 -0.603348 0)
(2.06605 -0.602612 0)
(2.06852 -0.601291 0)
(2.07106 -0.600067 0)
(2.07318 -0.599812 0)
(2.07503 -0.599717 0)
(2.0766 -0.59954 0)
(2.07835 -0.599773 0)
(2.0801 -0.599842 0)
(2.082 -0.599122 0)
(2.08493 -0.597125 0)
(2.08846 -0.593767 0)
(2.09171 -0.590652 0)
(2.09359 -0.589659 0)
(2.09532 -0.589734 0)
(2.09697 -0.590249 0)
(2.09863 -0.591147 0)
(2.1002 -0.591604 0)
(2.10247 -0.591024 0)
(2.10539 -0.590581 0)
(2.10832 -0.59037 0)
(2.11133 -0.589944 0)
(2.11518 -0.589686 0)
(2.11968 -0.589994 0)
(2.12321 -0.590331 0)
(2.12596 -0.590671 0)
(2.12845 -0.590681 0)
(2.12973 -0.588857 0)
(2.12924 -0.584711 0)
(2.12943 -0.580537 0)
(2.1314 -0.578444 0)
(2.13414 -0.576836 0)
(2.13915 -0.575344 0)
(2.14416 -0.576182 0)
(2.14851 -0.579224 0)
(2.15192 -0.582442 0)
(2.15487 -0.584546 0)
(2.158 -0.585816 0)
(2.16025 -0.58612 0)
(2.15914 -0.583303 0)
(2.15589 -0.578503 0)
(2.15586 -0.576631 0)
(2.15773 -0.576696 0)
(2.15955 -0.57717 0)
(2.16223 -0.577661 0)
(2.16758 -0.578662 0)
(2.17435 -0.578904 0)
(2.17892 -0.576511 0)
(2.18075 -0.573836 0)
(2.18125 -0.571663 0)
(2.18055 -0.568487 0)
(2.17847 -0.564513 0)
(2.17854 -0.563142 0)
(2.17985 -0.563421 0)
(2.18136 -0.564101 0)
(2.18398 -0.565398 0)
(2.18772 -0.567131 0)
(2.18996 -0.567487 0)
(2.19169 -0.566498 0)
(2.1917 -0.562609 0)
(2.19098 -0.55739 0)
(2.19222 -0.55429 0)
(2.19438 -0.553343 0)
(2.198 -0.553094 0)
(2.20256 -0.553543 0)
(2.20702 -0.555451 0)
(2.21084 -0.557046 0)
(2.21322 -0.557176 0)
(2.21543 -0.557067 0)
(2.21669 -0.555719 0)
(2.2154 -0.551838 0)
(2.21287 -0.547249 0)
(2.21362 -0.545894 0)
(2.21573 -0.546041 0)
(2.21806 -0.546289 0)
(2.22188 -0.546842 0)
(2.22783 -0.548214 0)
(2.23305 -0.5496 0)
(2.23545 -0.549766 0)
(2.23766 -0.549922 0)
(2.23984 -0.549856 0)
(2.24137 -0.549083 0)
(2.24129 -0.546726 0)
(2.24102 -0.543347 0)
(2.24235 -0.540902 0)
(2.24463 -0.539296 0)
(2.60163 0.0386557 0)
(2.6009 0.0398516 0)
(2.60053 0.0408117 0)
(2.60088 0.0416758 0)
(2.60106 0.0421463 0)
(2.60074 0.0421683 0)
(2.6005 0.0421031 0)
(2.60018 0.0418873 0)
(2.59981 0.041517 0)
(2.59922 0.0411337 0)
(2.59808 0.0408024 0)
(2.59791 0.0409166 0)
(2.59851 0.0410954 0)
(2.5992 0.0412842 0)
(2.60007 0.0415275 0)
(2.60176 0.0421045 0)
(2.60308 0.0425652 0)
(2.60407 0.0424969 0)
(2.60515 0.0423132 0)
(2.60608 0.0422523 0)
(2.60652 0.0421234 0)
(2.60514 0.0414301 0)
(2.60371 0.0406346 0)
(2.60414 0.0407212 0)
(2.60466 0.0409741 0)
(2.60552 0.0413465 0)
(2.607 0.0420713 0)
(2.60842 0.0425951 0)
(2.60919 0.0425525 0)
(2.61009 0.0424213 0)
(2.61079 0.0421742 0)
(2.61082 0.0414626 0)
(2.60996 0.0403988 0)
(2.60995 0.0399371 0)
(2.61045 0.0401225 0)
(2.61091 0.0404117 0)
(2.61166 0.0405965 0)
(2.61245 0.040632 0)
(2.61314 0.0407209 0)
(2.61379 0.0408346 0)
(2.61428 0.0408571 0)
(2.61463 0.0406384 0)
(2.61425 0.0397752 0)
(2.61305 0.0384828 0)
(2.61259 0.0378261 0)
(2.61283 0.0378828 0)
(2.6132 0.0381161 0)
(2.61395 0.0387064 0)
(2.61468 0.0393805 0)
(2.61503 0.0395959 0)
(2.61548 0.0399149 0)
(2.6157 0.0400592 0)
(2.61514 0.0395695 0)
(2.61454 0.0388925 0)
(2.61482 0.0387684 0)
(2.61513 0.0387691 0)
(2.61553 0.0387967 0)
(2.61637 0.0390373 0)
(2.61704 0.0393133 0)
(2.61733 0.0393938 0)
(2.61773 0.0395478 0)
(2.61806 0.0396116 0)
(2.61818 0.039531 0)
(2.61757 0.0390087 0)
(2.61592 0.0380823 0)
(2.61469 0.0375587 0)
(2.6145 0.0376546 0)
(2.61433 0.0382393 0)
(2.61472 0.0395725 0)
(2.61614 0.0415749 0)
(2.61707 0.0428047 0)
(2.61692 0.0429272 0)
(2.61671 0.0429006 0)
(2.61622 0.0427248 0)
(2.61496 0.0419676 0)
(2.61292 0.0404611 0)
(2.61161 0.0396068 0)
(2.6113 0.0395708 0)
(2.61116 0.0398192 0)
(2.61177 0.0404697 0)
(2.61223 0.0409741 0)
(2.61212 0.0410336 0)
(2.61206 0.0410563 0)
(2.61195 0.0410729 0)
(2.61162 0.0408448 0)
(2.61066 0.0401327 0)
(2.60943 0.0393469 0)
(2.60933 0.0392733 0)
(2.60976 0.0396291 0)
(2.61058 0.0405553 0)
(2.61226 0.042038 0)
(2.61409 0.0432106 0)
(2.61491 0.043341 0)
(2.61583 0.0430487 0)
(2.61638 0.0423749 0)
(2.61623 0.0411871 0)
(2.61517 0.0390545 0)
(2.61315 0.0361787 0)
(2.61215 0.0344769 0)
(2.61234 0.0341374 0)
(2.61295 0.034311 0)
(2.6147 0.0354226 0)
(2.61778 0.0378301 0)
(2.62034 0.0396247 0)
(2.62093 0.0399154 0)
(2.62146 0.0396862 0)
(2.62099 0.0388002 0)
(2.61921 0.0370064 0)
(2.61713 0.0349848 0)
(2.61687 0.0344656 0)
(2.61749 0.0346851 0)
(2.61816 0.0353601 0)
(2.61993 0.0369841 0)
(2.6227 0.0394865 0)
(2.62474 0.0408216 0)
(2.62544 0.0408272 0)
(2.626 0.0403559 0)
(2.6257 0.0393727 0)
(2.62405 0.0371188 0)
(2.62085 0.033497 0)
(2.6189 0.0313589 0)
(2.6187 0.0309485 0)
(2.61883 0.0310088 0)
(2.61959 0.0319581 0)
(2.62175 0.0343598 0)
(2.62444 0.0371676 0)
(2.62526 0.0382117 0)
(2.62513 0.0382361 0)
(2.62423 0.0376813 0)
(2.62206 0.0363416 0)
(2.61939 0.0346479 0)
(2.61824 0.0344692 0)
(2.61805 0.0358689 0)
(2.61144 0.0284955 0)
(2.53532 -0.0752179 0)
(2.36212 -0.285367 0)
(2.10155 -0.508605 0)
(1.98186 -0.640418 0)
(1.95008 -0.634725 0)
(1.96048 -0.614272 0)
(1.98243 -0.598162 0)
(1.99476 -0.601266 0)
(2.00026 -0.610137 0)
(2.00171 -0.614819 0)
(2.00161 -0.617601 0)
(2.00316 -0.617017 0)
(2.00541 -0.613642 0)
(2.00911 -0.61141 0)
(2.01322 -0.610761 0)
(2.01728 -0.6101 0)
(2.0223 -0.6091 0)
(2.02583 -0.607907 0)
(2.02851 -0.608048 0)
(2.03108 -0.608482 0)
(2.03263 -0.608506 0)
(2.03485 -0.608348 0)
(2.03796 -0.60805 0)
(2.04101 -0.60703 0)
(2.04516 -0.605144 0)
(2.04934 -0.602272 0)
(2.05184 -0.60093 0)
(2.05406 -0.601213 0)
(2.05601 -0.602389 0)
(2.05815 -0.603915 0)
(2.06088 -0.605135 0)
(2.0636 -0.605897 0)
(2.06596 -0.605601 0)
(2.06803 -0.60387 0)
(2.06995 -0.601879 0)
(2.07156 -0.600669 0)
(2.07336 -0.60031 0)
(2.07544 -0.6001 0)
(2.07758 -0.599913 0)
(2.07968 -0.599678 0)
(2.08167 -0.59906 0)
(2.0838 -0.597802 0)
(2.08632 -0.595278 0)
(2.08985 -0.592048 0)
(2.09245 -0.590363 0)
(2.09439 -0.59056 0)
(2.09639 -0.590895 0)
(2.09785 -0.591568 0)
(2.09854 -0.592336 0)
(2.10036 -0.592668 0)
(2.10314 -0.592471 0)
(2.10581 -0.591429 0)
(2.10853 -0.589587 0)
(2.11155 -0.588308 0)
(2.11476 -0.587513 0)
(2.11822 -0.587028 0)
(2.12181 -0.587286 0)
(2.12503 -0.588632 0)
(2.12831 -0.590336 0)
(2.13146 -0.5911 0)
(2.13417 -0.590854 0)
(2.13643 -0.588068 0)
(2.13779 -0.582865 0)
(2.13856 -0.576937 0)
(2.14034 -0.573645 0)
(2.14304 -0.573556 0)
(2.14576 -0.574704 0)
(2.14848 -0.577039 0)
(2.1515 -0.580271 0)
(2.15556 -0.584382 0)
(2.1589 -0.587146 0)
(2.16194 -0.588235 0)
(2.16413 -0.587981 0)
(2.16353 -0.584451 0)
(2.16049 -0.578417 0)
(2.15999 -0.574694 0)
(2.16147 -0.573461 0)
(2.16352 -0.572724 0)
(2.16837 -0.57179 0)
(2.1754 -0.571941 0)
(2.18155 -0.573321 0)
(2.1842 -0.573306 0)
(2.18521 -0.572708 0)
(2.18608 -0.571608 0)
(2.18493 -0.56895 0)
(2.18221 -0.564661 0)
(2.18235 -0.562939 0)
(2.184 -0.562916 0)
(2.18576 -0.563235 0)
(2.18907 -0.564326 0)
(2.1937 -0.565771 0)
(2.19633 -0.565637 0)
(2.19803 -0.5643 0)
(2.19894 -0.560498 0)
(2.19844 -0.555392 0)
(2.19886 -0.551883 0)
(2.20098 -0.551206 0)
(2.2037 -0.551283 0)
(2.20726 -0.551671 0)
(2.21142 -0.553198 0)
(2.21538 -0.55522 0)
(2.21773 -0.555671 0)
(2.22008 -0.555685 0)
(2.2215 -0.554568 0)
(2.22043 -0.551002 0)
(2.21827 -0.54652 0)
(2.21933 -0.544905 0)
(2.22143 -0.544715 0)
(2.2239 -0.544662 0)
(2.22888 -0.545296 0)
(2.23457 -0.545944 0)
(2.2378 -0.546336 0)
(2.23997 -0.546867 0)
(2.24214 -0.547369 0)
(2.24415 -0.547633 0)
(2.24553 -0.546994 0)
(2.24601 -0.545027 0)
(2.24737 -0.542814 0)
(2.24978 -0.540928 0)
(2.60419 0.0391615 0)
(2.60345 0.0402977 0)
(2.6031 0.0412285 0)
(2.60321 0.0419286 0)
(2.60289 0.0422466 0)
(2.60244 0.0422954 0)
(2.60208 0.0423607 0)
(2.60163 0.0422632 0)
(2.60106 0.0419843 0)
(2.60026 0.0416952 0)
(2.59932 0.0417057 0)
(2.5996 0.0419835 0)
(2.60024 0.0421066 0)
(2.601 0.0422075 0)
(2.60197 0.0423676 0)
(2.60358 0.0427592 0)
(2.60439 0.0429085 0)
(2.60543 0.0430978 0)
(2.60629 0.0429049 0)
(2.60682 0.0423057 0)
(2.60664 0.0416434 0)
(2.60536 0.0414757 0)
(2.60534 0.0419426 0)
(2.60588 0.0421636 0)
(2.60649 0.0424766 0)
(2.6076 0.042848 0)
(2.60871 0.043112 0)
(2.60948 0.0430647 0)
(2.61046 0.0428421 0)
(2.61121 0.042501 0)
(2.61138 0.0418234 0)
(2.61087 0.0409004 0)
(2.61092 0.0404276 0)
(2.61149 0.0405358 0)
(2.6121 0.0409723 0)
(2.61256 0.041253 0)
(2.61337 0.0414627 0)
(2.6141 0.0416302 0)
(2.61471 0.0418011 0)
(2.61523 0.0418374 0)
(2.61555 0.0415226 0)
(2.61512 0.0405985 0)
(2.61417 0.0393545 0)
(2.61391 0.0387238 0)
(2.61415 0.038769 0)
(2.61462 0.0390692 0)
(2.61547 0.0398039 0)
(2.61629 0.0405687 0)
(2.61658 0.0407837 0)
(2.61697 0.0409584 0)
(2.61716 0.0409749 0)
(2.61648 0.0402966 0)
(2.61533 0.039209 0)
(2.61553 0.0388738 0)
(2.61595 0.0388289 0)
(2.61636 0.0387454 0)
(2.61703 0.0387929 0)
(2.61807 0.0391914 0)
(2.61855 0.0394166 0)
(2.61885 0.0395713 0)
(2.61919 0.0398387 0)
(2.61938 0.0399119 0)
(2.61905 0.0395295 0)
(2.61779 0.0386774 0)
(2.61668 0.0381507 0)
(2.61654 0.0382921 0)
(2.6165 0.0388232 0)
(2.61685 0.0401254 0)
(2.6181 0.0420882 0)
(2.61895 0.0432881 0)
(2.61883 0.0434242 0)
(2.61864 0.0434374 0)
(2.61826 0.0433712 0)
(2.61724 0.042814 0)
(2.61537 0.0414516 0)
(2.61373 0.0404067 0)
(2.61337 0.0402618 0)
(2.61306 0.0403339 0)
(2.61348 0.0407729 0)
(2.61425 0.0413409 0)
(2.61411 0.0414205 0)