/*--------------------------------*- C++ -*----------------------------------*\
  =========                 |
  \\      /  F ield         | OpenFOAM: The Open Source CFD Toolbox
   \\    /   O peration     | Website:  https://openfoam.org
    \\  /    A nd           | Version:  7
     \\/     M anipulation  |
\*---------------------------------------------------------------------------*/
FoamFile
{
    version     2.0;
    format      ascii;
    class       volScalarField;
    location    "1.4";
    object      T;
}
// * * * * * * * * * * * * * * * * * * * * * * * * * * * * * * * * * * * * * //

dimensions      [0 0 0 1 0 0 0];

internalField   nonuniform List<scalar> 
16512
(
1.65292
1.65379
1.65405
1.65403
1.65348
1.65175
1.64965
1.64822
1.64725
1.64655
1.64628
1.64648
1.64732
1.64784
1.64827
1.64879
1.6493
1.64989
1.6505
1.65135
1.65279
1.65408
1.65462
1.65476
1.65479
1.65464
1.65384
1.6518
1.64886
1.64737
1.64715
1.64708
1.64713
1.64764
1.64876
1.64995
1.65028
1.65015
1.64986
1.64907
1.64735
1.64516
1.64411
1.64396
1.64395
1.6442
1.64528
1.64728
1.64928
1.65011
1.65051
1.65086
1.65105
1.65117
1.65126
1.65129
1.65124
1.65071
1.64896
1.64636
1.64449
1.64369
1.64307
1.64238
1.64165
1.64101
1.64072
1.64064
1.64013
1.64017
1.64117
1.64452
1.65669
1.69123
1.75785
1.84425
1.91275
1.94682
1.96758
1.98517
1.98582
1.98225
1.972
1.96476
1.96153
1.96222
1.96301
1.96039
1.95513
1.95076
1.94896
1.9486
1.95003
1.95081
1.94858
1.94441
1.93913
1.93433
1.93102
1.92868
1.92666
1.92427
1.92169
1.91904
1.91632
1.91407
1.91152
1.90816
1.91088
1.92112
1.94327
1.9755
1.99064
1.99523
2.00152
2.00935
2.01263
2.01091
2.00561
1.99646
1.98565
1.97545
1.96639
1.96078
1.95898
1.95593
1.95241
1.95024
1.94783
1.94574
1.94385
1.94118
1.93705
1.93179
1.92482
1.91608
1.90724
1.90005
1.89617
1.89563
1.89585
1.89393
1.88973
1.88592
1.88124
1.87412
1.86561
1.85972
1.85646
1.85409
1.8528
1.85424
1.85708
1.8578
1.85715
1.85484
1.85107
1.84541
1.83764
1.82921
1.82121
1.81472
1.81168
1.81177
1.81352
1.81324
1.811
1.80705
1.79978
1.79333
1.79183
1.79197
1.79444
1.79924
1.80167
1.80093
1.79864
1.79486
1.7884
1.779
1.77021
1.76279
1.75615
1.75055
1.74738
1.74562
1.74217
1.73728
1.73177
1.72428
1.71648
1.71306
1.71222
1.71234
1.7141
1.71737
1.71756
1.71473
1.71005
1.70473
1.70012
1.69725
1.69479
1.69249
1.68991
1.68695
1.68351
1.67957
1.67558
1.67262
1.67115
1.67101
1.67133
1.67305
1.67448
1.67425
1.67283
1.67104
1.6684
1.66312
1.65517
1.6485
1.64533
1.64398
1.64357
1.64253
1.64104
1.6402
1.63931
1.63527
1.62951
1.62488
1.61966
1.6128
1.60861
1.60697
1.60597
1.60572
1.60562
1.60432
1.60027
1.59456
1.5888
1.58323
1.5783
1.57529
1.57389
1.57325
1.57354
1.57513
1.57676
1.57779
1.57788
1.57748
1.57632
1.57412
1.57102
1.56623
1.6464
1.6475
1.64793
1.64795
1.64751
1.64583
1.64371
1.64232
1.64129
1.64046
1.64007
1.64022
1.6411
1.64159
1.64186
1.64229
1.64287
1.64343
1.6439
1.64431
1.64527
1.64652
1.64718
1.64731
1.64727
1.64709
1.64648
1.64501
1.64303
1.64211
1.64181
1.64171
1.64186
1.64241
1.64282
1.64283
1.64282
1.64269
1.64218
1.64096
1.63903
1.6378
1.63761
1.63759
1.6377
1.63811
1.63916
1.64094
1.64225
1.64248
1.64284
1.64335
1.64378
1.64415
1.64448
1.64463
1.64452
1.64346
1.64114
1.63935
1.63884
1.63857
1.63828
1.63791
1.63735
1.63666
1.63582
1.63477
1.63499
1.63692
1.64637
1.67633
1.73813
1.82088
1.89747
1.93628
1.95629
1.97535
1.98078
1.97933
1.97148
1.96367
1.9593
1.9588
1.95913
1.95609
1.94929
1.94348
1.94039
1.93899
1.9396
1.94018
1.93841
1.93539
1.93149
1.92803
1.92496
1.92217
1.91938
1.91692
1.91467
1.91267
1.91088
1.90945
1.90835
1.90621
1.90338
1.90585
1.91707
1.93913
1.96711
1.98469
1.99124
1.99541
2.00094
2.00134
2.00052
1.99893
1.99526
1.98787
1.9768
1.96533
1.95536
1.94807
1.94546
1.94489
1.94279
1.94159
1.94041
1.93926
1.93777
1.93523
1.93097
1.92559
1.91905
1.91034
1.90074
1.89239
1.88656
1.88347
1.882
1.88046
1.8777
1.87501
1.87205
1.86789
1.86148
1.8542
1.84904
1.84583
1.84359
1.84286
1.84443
1.84592
1.84576
1.84423
1.84114
1.83632
1.82939
1.8205
1.81131
1.80358
1.79836
1.79665
1.79763
1.8006
1.801
1.79974
1.79687
1.79059
1.78388
1.78198
1.78198
1.78387
1.78755
1.78926
1.78863
1.78647
1.78283
1.77675
1.76768
1.7587
1.751
1.74431
1.73887
1.7363
1.73547
1.73295
1.72857
1.72342
1.71619
1.70778
1.70338
1.7021
1.70205
1.70359
1.70629
1.70596
1.70247
1.69772
1.69281
1.68931
1.6869
1.68467
1.68252
1.67953
1.67607
1.67183
1.6668
1.66163
1.6576
1.65572
1.65528
1.65569
1.65742
1.65969
1.66062
1.66073
1.66042
1.6594
1.65643
1.65034
1.64384
1.64025
1.63795
1.63638
1.63382
1.63079
1.62919
1.62828
1.62461
1.61956
1.61532
1.61029
1.605
1.60256
1.60136
1.60093
1.60066
1.59944
1.59546
1.58985
1.58378
1.57771
1.57189
1.5672
1.56469
1.56343
1.56274
1.56287
1.56451
1.56718
1.56858
1.56856
1.56729
1.5651
1.56269
1.55826
1.63976
1.64105
1.64173
1.64186
1.64153
1.63988
1.63783
1.63663
1.63563
1.63479
1.63445
1.6347
1.63557
1.63577
1.63583
1.63612
1.63655
1.63674
1.63687
1.63699
1.63761
1.63879
1.63969
1.64017
1.64026
1.6402
1.63995
1.63932
1.63812
1.63704
1.63655
1.63625
1.63624
1.6363
1.63599
1.63568
1.63545
1.63516
1.6346
1.63349
1.63216
1.63183
1.63181
1.63186
1.63214
1.63263
1.63323
1.63385
1.63458
1.63501
1.63521
1.63562
1.63617
1.6368
1.6374
1.63764
1.63738
1.63573
1.63386
1.63361
1.63363
1.63356
1.63341
1.63308
1.63237
1.6316
1.63129
1.63233
1.63945
1.66545
1.72223
1.80033
1.88145
1.92428
1.94419
1.96139
1.97297
1.97306
1.96862
1.95988
1.95592
1.95471
1.95636
1.95617
1.95053
1.94221
1.93534
1.93162
1.93107
1.93197
1.93134
1.92809
1.92402
1.92021
1.91731
1.91467
1.91256
1.90953
1.9066
1.90404
1.90235
1.90132
1.90122
1.90072
1.89894
1.89805
1.90101
1.91312
1.93631
1.95957
1.97532
1.98999
1.99039
1.98932
1.98852
1.98806
1.98756
1.98697
1.98493
1.97963
1.96998
1.95707
1.94423
1.93494
1.931
1.93188
1.93279
1.93207
1.93179
1.93099
1.9297
1.92735
1.9232
1.91784
1.9121
1.90527
1.89701
1.88838
1.8799
1.8734
1.86914
1.8664
1.86454
1.86306
1.86132
1.85877
1.8551
1.84978
1.84394
1.83939
1.83622
1.83403
1.83326
1.83388
1.83401
1.8329
1.83039
1.82644
1.82036
1.81226
1.80266
1.79368
1.78722
1.78341
1.78275
1.78501
1.78897
1.78965
1.7889
1.78671
1.78081
1.7733
1.77075
1.77066
1.77184
1.77467
1.77615
1.77576
1.77394
1.77064
1.76512
1.75658
1.74764
1.73994
1.7334
1.72835
1.72612
1.72588
1.72412
1.71989
1.71471
1.70748
1.6987
1.6935
1.69185
1.69183
1.69374
1.69568
1.69451
1.69075
1.68653
1.68238
1.67963
1.67731
1.6751
1.6726
1.66913
1.66488
1.65933
1.65291
1.64686
1.64221
1.63993
1.63928
1.63957
1.64161
1.64497
1.64749
1.64914
1.65001
1.65037
1.64956
1.64478
1.63721
1.63255
1.62973
1.62685
1.62345
1.61987
1.61824
1.61746
1.61415
1.60987
1.60598
1.60155
1.59777
1.59608
1.5953
1.59506
1.59425
1.59141
1.58621
1.57999
1.57356
1.56709
1.56109
1.55677
1.55454
1.55324
1.55267
1.5533
1.55632
1.55951
1.56005
1.5594
1.55649
1.55347
1.54934
1.63318
1.6346
1.63557
1.63588
1.63556
1.63376
1.63198
1.63113
1.63029
1.62957
1.62937
1.62975
1.6303
1.63009
1.62984
1.62992
1.6299
1.62964
1.62949
1.6296
1.6304
1.63168
1.6328
1.6336
1.6341
1.63443
1.63446
1.63424
1.63309
1.63145
1.63071
1.63025
1.62986
1.62955
1.62916
1.62875
1.62838
1.62799
1.62756
1.62701
1.62637
1.6262
1.62624
1.62631
1.62653
1.62676
1.62682
1.62678
1.62697
1.62768
1.62796
1.62813
1.62856
1.62932
1.63015
1.63047
1.62994
1.6281
1.62752
1.62792
1.6282
1.62811
1.62784
1.62745
1.62749
1.62836
1.63406
1.65727
1.71
1.78649
1.86729
1.91626
1.93474
1.94759
1.962
1.96316
1.96158
1.95453
1.94966
1.94815
1.94908
1.95158
1.95057
1.94464
1.93668
1.93024
1.92619
1.92503
1.92485
1.9233
1.91962
1.91562
1.91198
1.9091
1.90663
1.90385
1.90016
1.89656
1.89386
1.89204
1.89119
1.89136
1.89091
1.88965
1.89125
1.89655
1.9109
1.93545
1.95824
1.97518
1.97943
1.97692
1.9768
1.97812
1.97879
1.97866
1.97734
1.97586
1.97344
1.96878
1.96046
1.94886
1.93587
1.92564
1.92075
1.91953
1.92126
1.92124
1.92114
1.92075
1.91981
1.9177
1.91381
1.90881
1.90359
1.89836
1.89324
1.88618
1.87676
1.86707
1.85878
1.85421
1.85148
1.84914
1.84813
1.84756
1.8458
1.8425
1.83866
1.83465
1.83101
1.82772
1.82513
1.82328
1.8224
1.82127
1.81897
1.81565
1.81082
1.80364
1.79484
1.78554
1.7779
1.77289
1.77042
1.77069
1.77447
1.77833
1.77867
1.77798
1.77584
1.76975
1.76144
1.75825
1.75808
1.75884
1.76165
1.76311
1.76285
1.76156
1.75873
1.75373
1.7458
1.7371
1.72971
1.72355
1.71889
1.71663
1.71635
1.71507
1.71094
1.70545
1.69818
1.68941
1.68404
1.68236
1.68275
1.68526
1.68604
1.68399
1.68069
1.67704
1.67331
1.67068
1.66826
1.66578
1.66275
1.65852
1.65281
1.64574
1.63826
1.63188
1.62705
1.62457
1.62398
1.62436
1.6274
1.63203
1.63576
1.63831
1.63993
1.64099
1.64086
1.63685
1.62818
1.62239
1.61922
1.61557
1.61171
1.60832
1.6071
1.60661
1.6039
1.60035
1.5972
1.59374
1.59069
1.58929
1.5887
1.58799
1.58581
1.58148
1.57572
1.56941
1.56294
1.55648
1.55055
1.54667
1.54492
1.54422
1.54478
1.54776
1.55128
1.55244
1.55204
1.54963
1.54606
1.53985
1.62714
1.6285
1.62962
1.63005
1.62945
1.62729
1.62618
1.62576
1.62515
1.62469
1.62466
1.62505
1.62506
1.62431
1.62374
1.6234
1.62286
1.6224
1.62231
1.62271
1.624
1.62545
1.62679
1.62814
1.62889
1.62938
1.62954
1.62912
1.62706
1.62501
1.62423
1.62365
1.62312
1.62279
1.62265
1.62227
1.62187
1.62155
1.62132
1.62116
1.62083
1.62026
1.62022
1.62033
1.62045
1.62044
1.62027
1.62009
1.62024
1.62104
1.62158
1.62155
1.62172
1.62229
1.62296
1.623
1.62197
1.6208
1.62095
1.62172
1.62188
1.62183
1.62221
1.62334
1.62798
1.64773
1.69599
1.77452
1.85433
1.91467
1.932
1.94098
1.95256
1.95509
1.95349
1.9476
1.94118
1.94009
1.94002
1.94349
1.94462
1.94186
1.93643
1.93054
1.9259
1.92272
1.92099
1.91895
1.91499
1.91134
1.90867
1.90623
1.90388
1.90073
1.89701
1.8929
1.88865
1.8852
1.88312
1.88211
1.8807
1.87964
1.87898
1.88176
1.88957
1.90803
1.93348
1.96003
1.97755
1.97451
1.97051
1.96709
1.96847
1.97109
1.96998
1.96791
1.96506
1.96193
1.95846
1.95364
1.94678
1.93728
1.92711
1.91845
1.91331
1.91104
1.91038
1.91042
1.91014
1.90975
1.90899
1.90717
1.90369
1.89884
1.89388
1.88973
1.88678
1.88224
1.87373
1.86402
1.85371
1.84424
1.83909
1.8362
1.8338
1.83319
1.83371
1.83318
1.83074
1.82849
1.82625
1.82354
1.81983
1.81577
1.81272
1.80985
1.80721
1.80416
1.80021
1.79455
1.78682
1.77834
1.77048
1.76465
1.76087
1.75968
1.76086
1.76467
1.76724
1.76719
1.76624
1.76387
1.75763
1.74889
1.74525
1.74508
1.74599
1.74899
1.75038
1.75032
1.74956
1.74722
1.74267
1.73529
1.72697
1.72015
1.71448
1.71012
1.70735
1.70643
1.70528
1.70129
1.69544
1.68835
1.68055
1.67589
1.67443
1.67513
1.6773
1.67697
1.67482
1.67231
1.66894
1.66508
1.66214
1.65935
1.65618
1.65239
1.64687
1.63946
1.63112
1.6233
1.61722
1.61289
1.61097
1.6107
1.61151
1.61576
1.62124
1.62519
1.62744
1.62923
1.63045
1.63035
1.62634
1.6171
1.61033
1.60662
1.60272
1.59883
1.59612
1.59592
1.59608
1.59443
1.59197
1.59004
1.58739
1.58393
1.58205
1.58077
1.57902
1.57605
1.57139
1.56557
1.55924
1.55277
1.54631
1.54127
1.53886
1.53785
1.5383
1.54153
1.54507
1.54591
1.54545
1.54312
1.53878
1.53023
1.62209
1.62321
1.62413
1.62424
1.62252
1.62049
1.62035
1.6203
1.62002
1.61994
1.62012
1.6203
1.61966
1.61836
1.61747
1.61665
1.61587
1.61554
1.61565
1.6166
1.61826
1.62003
1.62195
1.62338
1.62405
1.6245
1.62445
1.62297
1.61992
1.61832
1.61769
1.6171
1.61659
1.61644
1.6166
1.6166
1.61625
1.61588
1.6157
1.61553
1.61485
1.6137
1.6135
1.61366
1.61394
1.61405
1.61401
1.61409
1.61464
1.61574
1.61619
1.61595
1.61579
1.61589
1.61563
1.61443
1.61325
1.61311
1.61364
1.61431
1.61514
1.6167
1.62091
1.63698
1.68017
1.75635
1.8372
1.90956
1.93311
1.93953
1.947
1.95235
1.95062
1.9446
1.93502
1.9313
1.93032
1.9336
1.93704
1.9359
1.93213
1.9267
1.92259
1.91978
1.91845
1.91701
1.91326
1.90845
1.90468
1.90197
1.90031
1.89932
1.89651
1.89226
1.8874
1.88274
1.87882
1.87636
1.87426
1.87109
1.86896
1.86866
1.87178
1.88101
1.89979
1.93019
1.95731
1.96997
1.97484
1.97268
1.9672
1.96078
1.95885
1.95952
1.95848
1.95638
1.95376
1.94952
1.94449
1.93863
1.93158
1.92396
1.91605
1.90996
1.90589
1.90362
1.90222
1.90135
1.90071
1.89977
1.89849
1.89655
1.89323
1.88849
1.88394
1.88049
1.87849
1.87556
1.86908
1.8604
1.85142
1.84074
1.83006
1.82394
1.82073
1.81854
1.81836
1.82034
1.82138
1.82085
1.81965
1.81817
1.81567
1.81075
1.80475
1.8005
1.79655
1.79231
1.78836
1.78408
1.77819
1.77083
1.7637
1.7578
1.75351
1.75086
1.75039
1.75105
1.75306
1.75496
1.75479
1.75367
1.75125
1.74516
1.73649
1.73267
1.73248
1.73365
1.73669
1.73808
1.73818
1.73783
1.73585
1.73175
1.72488
1.71692
1.71076
1.70548
1.70112
1.69755
1.69551
1.69415
1.69049
1.68492
1.67879
1.67269
1.66898
1.66768
1.66811
1.66924
1.66843
1.66694
1.66508
1.66164
1.65702
1.65328
1.64981
1.64599
1.64119
1.63398
1.62483
1.61588
1.60864
1.60379
1.60094
1.6001
1.60015
1.60151
1.60614
1.61128
1.61448
1.61632
1.61792
1.61878
1.61839
1.614
1.60455
1.59675
1.59227
1.58834
1.58517
1.58429
1.58563
1.58688
1.58642
1.58509
1.58408
1.58162
1.57663
1.5733
1.57161
1.5693
1.56595
1.56133
1.5557
1.54938
1.54318
1.53819
1.53561
1.53469
1.53547
1.53837
1.53988
1.53928
1.53724
1.53426
1.53044
1.52145
1.61741
1.61824
1.61855
1.61728
1.61439
1.61382
1.61422
1.61457
1.61477
1.61519
1.61556
1.61538
1.61408
1.61247
1.61113
1.61
1.60938
1.60931
1.6097
1.61101
1.6131
1.6156
1.61759
1.61844
1.619
1.61919
1.6185
1.6157
1.61294
1.61208
1.61159
1.61107
1.61076
1.61102
1.61152
1.61159
1.61122
1.61065
1.61022
1.60947
1.60776
1.60644
1.60636
1.6067
1.60733
1.6078
1.60831
1.60917
1.61046
1.61149
1.61152
1.61087
1.61011
1.60892
1.60682
1.605
1.6046
1.60473
1.60579
1.60797
1.61223
1.62547
1.66483
1.73528
1.81995
1.89496
1.93441
1.93817
1.94232
1.94946
1.9507
1.94696
1.93739
1.92737
1.92353
1.92348
1.92801
1.92932
1.92658
1.92178
1.91665
1.9137
1.9122
1.91174
1.91079
1.90702
1.90231
1.89875
1.89631
1.89525
1.89459
1.89181
1.88759
1.88281
1.87806
1.87374
1.87055
1.86796
1.86386
1.86046
1.86055
1.86343
1.87281
1.8932
1.9229
1.9494
1.96249
1.97216
1.9724
1.96734
1.95772
1.95097
1.9483
1.94873
1.94897
1.94666
1.94322
1.93832
1.93079
1.92319
1.91577
1.90919
1.90441
1.89981
1.89708
1.89518
1.89355
1.89248
1.89164
1.89068
1.88933
1.88717
1.88388
1.87947
1.875
1.87146
1.86885
1.86675
1.86285
1.85623
1.84857
1.83989
1.82844
1.81633
1.80908
1.80584
1.80474
1.80654
1.81095
1.81219
1.81155
1.81056
1.809
1.80548
1.7989
1.79233
1.78742
1.7823
1.77688
1.77236
1.7681
1.76285
1.75669
1.75122
1.74692
1.74377
1.74148
1.74002
1.73935
1.73976
1.7418
1.7421
1.74101
1.73868
1.73307
1.72483
1.72075
1.72043
1.72163
1.72446
1.72587
1.72606
1.72583
1.72425
1.72078
1.71436
1.7066
1.70078
1.69567
1.69096
1.68645
1.68317
1.68159
1.67881
1.67438
1.66978
1.66532
1.66213
1.66108
1.66104
1.66112
1.66058
1.65977
1.65807
1.65434
1.64909
1.64446
1.64007
1.63526
1.62873
1.61958
1.60943
1.60096
1.59543
1.59273
1.59142
1.59107
1.59152
1.59327
1.59712
1.60132
1.60387
1.60535
1.60629
1.60652
1.60552
1.60047
1.59091
1.58213
1.57709
1.57411
1.57285
1.57356
1.57767
1.57908
1.57868
1.57827
1.57783
1.57488
1.5679
1.56363
1.56188
1.55933
1.5555
1.55071
1.5452
1.53947
1.53474
1.53233
1.53228
1.53443
1.53626
1.53556
1.53358
1.53067
1.52709
1.52243
1.5123
1.61227
1.61256
1.61147
1.60813
1.60654
1.60696
1.60794
1.60867
1.60951
1.61045
1.61069
1.61021
1.60869
1.60675
1.60492
1.6038
1.6036
1.60364
1.6041
1.60572
1.60854
1.61125
1.61247
1.61304
1.61341
1.61329
1.61171
1.60857
1.60698
1.60656
1.60618
1.60588
1.60608
1.60685
1.60725
1.60696
1.60606
1.60519
1.60409
1.60201
1.59979
1.59913
1.59922
1.59986
1.60089
1.60201
1.60353
1.60544
1.60688
1.60714
1.60663
1.60548
1.60359
1.60053
1.59752
1.59627
1.59647
1.59791
1.60181
1.61298
1.64752
1.71249
1.79886
1.87353
1.93108
1.93848
1.93992
1.94267
1.94771
1.94711
1.94181
1.93126
1.92311
1.91923
1.91946
1.92135
1.92047
1.91623
1.91156
1.90762
1.90528
1.90409
1.90358
1.90165
1.89819
1.89492
1.89234
1.89072
1.89027
1.88951
1.88653
1.8826
1.87833
1.87407
1.8697
1.8659
1.86196
1.85714
1.85327
1.85393
1.85746
1.86719
1.88975
1.91738
1.94148
1.95857
1.96759
1.96458
1.95924
1.95329
1.94748
1.94295
1.94103
1.94041
1.93918
1.93531
1.93077
1.92556
1.9184
1.91012
1.9029
1.8968
1.89292
1.8895
1.88694
1.88523
1.88361
1.88257
1.88205
1.88158
1.88063
1.87871
1.87557
1.87128
1.86652
1.86238
1.85892
1.8561
1.85407
1.85089
1.84538
1.83805
1.8286
1.81601
1.80372
1.79703
1.79443
1.79544
1.80064
1.80276
1.80212
1.80137
1.8002
1.79747
1.79196
1.78538
1.77977
1.77416
1.76785
1.76181
1.75732
1.75369
1.74972
1.74551
1.74109
1.73722
1.73382
1.73063
1.72795
1.72645
1.72669
1.72909
1.72978
1.72886
1.72661
1.72155
1.71375
1.70917
1.70862
1.7094
1.71179
1.71308
1.71337
1.71331
1.71233
1.70962
1.70362
1.69576
1.68974
1.68438
1.67911
1.67385
1.66988
1.66873
1.66745
1.66463
1.66083
1.65715
1.65447
1.65357
1.65332
1.65313
1.65293
1.65231
1.65064
1.64713
1.64175
1.63612
1.63041
1.6239
1.61513
1.60418
1.59449
1.58817
1.58502
1.58386
1.58299
1.58259
1.58331
1.58544
1.58824
1.59116
1.59343
1.59443
1.59457
1.5943
1.59227
1.58658
1.57715
1.56817
1.5635
1.5619
1.56217
1.56546
1.57005
1.57063
1.57067
1.57097
1.57056
1.56632
1.55838
1.55419
1.55213
1.54928
1.54509
1.53964
1.534
1.53039
1.52961
1.53065
1.53288
1.53258
1.53133
1.52893
1.5249
1.52024
1.5157
1.50609
1.60646
1.60554
1.60211
1.59919
1.59916
1.60016
1.60147
1.60277
1.60446
1.60549
1.60554
1.60502
1.60356
1.60121
1.59904
1.59829
1.59823
1.59824
1.59873
1.6006
1.6037
1.60584
1.60665
1.60718
1.60737
1.60701
1.60492
1.60255
1.60202
1.60182
1.60163
1.60176
1.60255
1.60327
1.60304
1.60179
1.60045
1.59899
1.59655
1.59364
1.59232
1.59221
1.59245
1.59336
1.59486
1.59711
1.59984
1.60193
1.60242
1.60213
1.60115
1.59929
1.59578
1.5916
1.58953
1.59004
1.59235
1.60133
1.63068
1.69237
1.77414
1.84953
1.91211
1.93513
1.93536
1.93648
1.94097
1.94437
1.94204
1.93461
1.92507
1.91946
1.91699
1.91777
1.91782
1.91324
1.90657
1.90211
1.89953
1.89791
1.89687
1.89436
1.89132
1.88815
1.88567
1.88411
1.88405
1.88429
1.883
1.88035
1.87702
1.87367
1.87008
1.86636
1.86212
1.85668
1.85108
1.84647
1.84711
1.85158
1.86315
1.88578
1.91669
1.93702
1.95664
1.95846
1.95517
1.95158
1.94757
1.94494
1.94269
1.93763
1.93348
1.93056
1.92721
1.92286
1.91802
1.91298
1.90728
1.90029
1.89305
1.88678
1.88175
1.87803
1.87547
1.87379
1.87253
1.87182
1.87158
1.87152
1.87126
1.86987
1.86722
1.86338
1.85844
1.85337
1.84925
1.84632
1.84414
1.84229
1.83967
1.83461
1.82676
1.81667
1.80468
1.79475
1.78942
1.78801
1.7907
1.79305
1.79224
1.79125
1.78996
1.78732
1.78254
1.77746
1.77298
1.76771
1.76135
1.75458
1.74891
1.7456
1.74366
1.74096
1.73626
1.73142
1.7268
1.72244
1.71862
1.71551
1.71383
1.71428
1.71712
1.71798
1.71711
1.71486
1.71024
1.70278
1.69743
1.69643
1.69675
1.69852
1.69955
1.70021
1.70042
1.70006
1.69804
1.69246
1.6845
1.67785
1.67197
1.66618
1.66065
1.6577
1.65806
1.65785
1.65501
1.65105
1.64842
1.64633
1.64484
1.64444
1.64449
1.64448
1.64407
1.64283
1.64
1.63473
1.62804
1.62062
1.61185
1.60074
1.58945
1.58231
1.57848
1.57657
1.57593
1.57507
1.57433
1.57505
1.57722
1.57937
1.58098
1.5827
1.58341
1.58327
1.58221
1.57902
1.57293
1.56409
1.55615
1.5526
1.55193
1.55329
1.55744
1.56118
1.56203
1.56254
1.56268
1.56164
1.55672
1.55018
1.54651
1.54357
1.53954
1.53441
1.52919
1.52708
1.5275
1.52928
1.52922
1.52769
1.52596
1.52337
1.51855
1.51365
1.50985
1.50144
1.59972
1.59654
1.59237
1.59152
1.59202
1.59331
1.59488
1.59716
1.59955
1.60036
1.60036
1.60004
1.59851
1.5956
1.59352
1.593
1.59286
1.59287
1.59334
1.59511
1.59794
1.59975
1.60058
1.6011
1.60126
1.60081
1.5988
1.59762
1.59763
1.59767
1.59775
1.59835
1.59922
1.5993
1.59817
1.59636
1.59449
1.59197
1.58847
1.58614
1.5858
1.58582
1.58617
1.58726
1.58968
1.59327
1.59625
1.5971
1.59701
1.59656
1.59507
1.59174
1.58686
1.58531
1.58623
1.59289
1.6165
1.67483
1.75243
1.83117
1.88962
1.92698
1.92642
1.9263
1.92956
1.93693
1.93795
1.93465
1.92623
1.91833
1.91473
1.91426
1.91586
1.91501
1.90893
1.90138
1.89586
1.89233
1.89104
1.89013
1.88692
1.8827
1.87875
1.87633
1.87531
1.87566
1.87599
1.8747
1.87262
1.87019
1.86804
1.86556
1.86262
1.85858
1.85335
1.84708
1.8413
1.84155
1.84545
1.85873
1.88161
1.9106
1.93862
1.95044
1.94935
1.94859
1.94652
1.94328
1.93837
1.93394
1.931
1.92812
1.92512
1.9218
1.91667
1.91113
1.90578
1.90067
1.89559
1.89027
1.88446
1.87835
1.87253
1.868
1.86506
1.86321
1.86221
1.86167
1.8612
1.86059
1.86015
1.85944
1.85743
1.85405
1.8499
1.84446
1.83904
1.83629
1.83427
1.83212
1.83027
1.82785
1.82298
1.81498
1.80537
1.79587
1.78854
1.7843
1.78295
1.78328
1.78241
1.7809
1.77911
1.77617
1.77204
1.76869
1.76558
1.76152
1.75625
1.75022
1.74469
1.74126
1.73935
1.73643
1.73135
1.72624
1.72089
1.71568
1.711
1.70657
1.70297
1.70164
1.70242
1.70536
1.70611
1.70512
1.70279
1.69857
1.69162
1.68553
1.68383
1.68385
1.68478
1.68581
1.68681
1.68735
1.68731
1.68589
1.68113
1.6734
1.66597
1.65968
1.65426
1.65003
1.64847
1.64922
1.64807
1.64375
1.64062
1.63885
1.63671
1.63513
1.63497
1.63524
1.63568
1.63568
1.63506
1.63275
1.6275
1.61968
1.61049
1.59953
1.58699
1.57741
1.57312
1.57037
1.56914
1.56883
1.56766
1.56633
1.56697
1.56894
1.57043
1.57105
1.57198
1.57265
1.57222
1.57048
1.5665
1.56012
1.55242
1.54588
1.54323
1.54296
1.54459
1.54748
1.55029
1.55198
1.5531
1.55326
1.55162
1.5475
1.54358
1.54056
1.53691
1.53211
1.52724
1.52493
1.52514
1.5251
1.52307
1.52108
1.51967
1.51715
1.51231
1.50796
1.50489
1.49753
1.59141
1.58628
1.58433
1.58441
1.58503
1.58633
1.58866
1.59207
1.59442
1.59516
1.59538
1.59507
1.59298
1.58974
1.58813
1.58761
1.58732
1.58729
1.58766
1.58931
1.59202
1.59389
1.59475
1.59529
1.5955
1.59505
1.59336
1.59292
1.5932
1.59358
1.59402
1.59486
1.5952
1.59472
1.59324
1.59118
1.58851
1.58484
1.58129
1.58003
1.57986
1.57988
1.58028
1.5822
1.58576
1.58922
1.59094
1.59108
1.59096
1.59013
1.58762
1.58354
1.5827
1.58711
1.60593
1.65838
1.73452
1.81195
1.86896
1.91479
1.92296
1.91721
1.91698
1.9206
1.92738
1.92749
1.92401
1.91668
1.91096
1.90913
1.90961
1.91133
1.91025
1.90463
1.89759
1.89223
1.88828
1.88598
1.88408
1.88029
1.87566
1.87182
1.86871
1.86718
1.86703
1.86627
1.86495
1.86353
1.86194
1.86082
1.85964
1.85793
1.85467
1.85007
1.84433
1.83827
1.83812
1.84174
1.8546
1.87784
1.90644
1.93305
1.93984
1.94463
1.94421
1.94253
1.93815
1.93153
1.92552
1.92117
1.91953
1.91903
1.91768
1.91294
1.90618
1.89927
1.89349
1.8886
1.88404
1.87982
1.87563
1.87077
1.86577
1.86102
1.85766
1.85528
1.85361
1.85226
1.8508
1.84898
1.84733
1.84662
1.84579
1.84304
1.8396
1.83598
1.83044
1.82514
1.82336
1.82196
1.81986
1.81778
1.81533
1.81093
1.80431
1.79692
1.78961
1.78355
1.77839
1.77432
1.77177
1.76979
1.76769
1.76466
1.76172
1.75945
1.75711
1.75451
1.7511
1.74706
1.74332
1.74014
1.73677
1.7318
1.72666
1.72159
1.71591
1.71039
1.70529
1.69987
1.69444
1.69046
1.68962
1.69056
1.69319
1.69373
1.69254
1.69028
1.68671
1.68049
1.67364
1.67086
1.67084
1.67134
1.67214
1.67306
1.67399
1.67425
1.67351
1.66994
1.66307
1.65583
1.64972
1.64492
1.64145
1.63913
1.63825
1.63547
1.63149
1.62976
1.62851
1.6266
1.62545
1.62574
1.62674
1.62757
1.62782
1.6275
1.62531
1.61969
1.61067
1.59977
1.58712
1.57477
1.5681
1.56536
1.56297
1.56256
1.56241
1.5606
1.55881
1.55945
1.56104
1.56171
1.56161
1.56206
1.56253
1.56182
1.55948
1.55536
1.54927
1.54261
1.53673
1.53377
1.53381
1.535
1.53688
1.53944
1.54133
1.54257
1.5427
1.54098
1.5389
1.53711
1.53471
1.5316
1.52783
1.52484
1.52293
1.51993
1.5162
1.51408
1.51283
1.51075
1.50668
1.5029
1.50031
1.49386
1.58158
1.57788
1.57757
1.57762
1.57806
1.57967
1.58334
1.5871
1.58887
1.58986
1.59022
1.58956
1.58664
1.58376
1.58267
1.5821
1.5817
1.5816
1.58199
1.5839
1.58681
1.58866
1.58951
1.59002
1.59015
1.58926
1.58759
1.58755
1.58827
1.58908
1.58985
1.59076
1.59086
1.59017
1.58876
1.58648
1.58288
1.57844
1.57558
1.57471
1.57438
1.57434
1.57525
1.5783
1.58181
1.58335
1.58398
1.58409
1.5838
1.58278
1.58092
1.58335
1.59748
1.64352
1.71905
1.79517
1.85352
1.8963
1.91566
1.91034
1.90813
1.90757
1.91258
1.91606
1.91442
1.91039
1.90489
1.90224
1.90184
1.90333
1.90481
1.90292
1.89808
1.89283
1.88882
1.88541
1.88283
1.87967
1.87476
1.86983
1.86562
1.86309
1.86143
1.8589
1.85662
1.85497
1.85382
1.85325
1.85292
1.85261
1.85176
1.84956
1.84559
1.84107
1.8358
1.83577
1.83974
1.85264
1.87782
1.90516
1.92339
1.93293
1.94021
1.94018
1.93809
1.93198
1.92443
1.91853
1.9144
1.91209
1.91182
1.91188
1.90972
1.9029
1.8958
1.88848
1.88179
1.87685
1.87239
1.86823
1.86472
1.86168
1.85855
1.85523
1.8525
1.85009
1.84699
1.84378
1.84071
1.83757
1.83436
1.83282
1.83236
1.83097
1.82795
1.82583
1.82293
1.81696
1.81198
1.8107
1.80948
1.80738
1.80536
1.80368
1.80145
1.79716
1.79033
1.78304
1.77633
1.76956
1.76383
1.75971
1.75651
1.7538
1.75175
1.74966
1.74774
1.74634
1.74478
1.74331
1.74231
1.74014
1.73486
1.72878
1.72298
1.71732
1.71174
1.70645
1.70108
1.69513
1.68852
1.68214
1.6783
1.67753
1.67847
1.68086
1.6812
1.67993
1.67807
1.67518
1.6696
1.66207
1.65819
1.65783
1.65781
1.65814
1.65925
1.6611
1.66204
1.66167
1.65945
1.6544
1.64803
1.64185
1.63603
1.63073
1.62611
1.62378
1.62154
1.61956
1.6191
1.61829
1.61689
1.61666
1.61757
1.61918
1.6203
1.62072
1.62032
1.61782
1.61137
1.60113
1.58875
1.57529
1.56458
1.56036
1.55772
1.55643
1.55668
1.55649
1.55415
1.5524
1.55289
1.55366
1.5535
1.55316
1.55335
1.55344
1.55277
1.55005
1.54514
1.53907
1.53374
1.5284
1.52447
1.52405
1.52501
1.5268
1.52901
1.53056
1.53127
1.53158
1.53155
1.53083
1.52975
1.52821
1.52639
1.52496
1.52221
1.51723
1.51255
1.50888
1.50616
1.50376
1.50055
1.49774
1.4957
1.49013
1.57289
1.57143
1.57116
1.57108
1.57151
1.57407
1.57855
1.58146
1.58299
1.58422
1.58445
1.58311
1.57979
1.57791
1.57721
1.57664
1.57621
1.57615
1.57692
1.57952
1.58236
1.58376
1.58442
1.58464
1.58405
1.58198
1.58098
1.58144
1.58276
1.58405
1.58535
1.58659
1.58671
1.58619
1.58491
1.58224
1.57773
1.57331
1.57088
1.56973
1.56927
1.56943
1.5712
1.57443
1.57577
1.57625
1.57622
1.57658
1.57732
1.57994
1.59052
1.62871
1.70247
1.78087
1.84353
1.88414
1.90895
1.9077
1.9008
1.89894
1.90062
1.90684
1.90657
1.90234
1.89597
1.89209
1.89186
1.89287
1.89598
1.896
1.89392
1.88992
1.88621
1.88366
1.88213
1.88059
1.87683
1.87121
1.86559
1.8605
1.85735
1.85571
1.85289
1.84897
1.84614
1.84492
1.84457
1.84495
1.84487
1.8445
1.84266
1.83891
1.83579
1.83249
1.83338
1.8381
1.85262
1.87835
1.90346
1.91971
1.93254
1.93425
1.93175
1.92743
1.92308
1.9183
1.91374
1.9098
1.90674
1.90474
1.90388
1.90305
1.89955
1.89262
1.88617
1.8794
1.87181
1.86557
1.86075
1.85643
1.85278
1.85064
1.84969
1.84953
1.84865
1.84526
1.84157
1.83732
1.83231
1.82747
1.82304
1.81951
1.81821
1.81744
1.81505
1.8134
1.81231
1.80957
1.80359
1.79959
1.79873
1.79767
1.79643
1.79567
1.7959
1.79495
1.78878
1.78
1.77305
1.76687
1.75983
1.7526
1.74735
1.74424
1.74176
1.73921
1.73738
1.73706
1.73747
1.73892
1.7394
1.73689
1.73185
1.72624
1.71947
1.71322
1.70835
1.70357
1.698
1.69162
1.68472
1.67732
1.67027
1.66639
1.66576
1.66701
1.66941
1.66934
1.66813
1.66679
1.66447
1.65906
1.65014
1.64493
1.64447
1.64449
1.64496
1.64676
1.64967
1.65133
1.65148
1.6502
1.64638
1.64003
1.63204
1.62357
1.61667
1.61223
1.61061
1.60912
1.60879
1.60898
1.6088
1.60823
1.60854
1.61041
1.6125
1.61363
1.61394
1.61342
1.61033
1.60268
1.59107
1.57751
1.56442
1.55578
1.55259
1.55086
1.55091
1.55145
1.55117
1.54891
1.54737
1.54731
1.54708
1.54655
1.54625
1.54569
1.54477
1.54337
1.53992
1.53435
1.52947
1.52582
1.52096
1.51599
1.51462
1.51529
1.51679
1.5185
1.52004
1.52135
1.52255
1.52293
1.52292
1.52256
1.52233
1.52193
1.51957
1.51474
1.51058
1.50726
1.5032
1.4981
1.49372
1.49165
1.49036
1.48585
1.56639
1.56568
1.56517
1.56503
1.56591
1.56945
1.57353
1.57534
1.57693
1.57809
1.57802
1.57572
1.57303
1.57227
1.5719
1.57146
1.57115
1.57132
1.57296
1.576
1.57775
1.57835
1.5785
1.57789
1.57573
1.57388
1.5739
1.57511
1.57697
1.57875
1.58106
1.58296
1.58315
1.58284
1.58163
1.57813
1.57288
1.56919
1.56681
1.56509
1.56459
1.56515
1.56745
1.56868
1.5684
1.56871
1.56974
1.57274
1.58272
1.61405
1.68222
1.76196
1.83137
1.87394
1.90422
1.90712
1.89939
1.89441
1.8924
1.89652
1.90052
1.8981
1.89175
1.88474
1.88093
1.88042
1.88227
1.88528
1.88511
1.88355
1.88001
1.87776
1.87685
1.877
1.87685
1.87388
1.86843
1.86262
1.85741
1.85297
1.84974
1.84637
1.84193
1.83871
1.83688
1.83662
1.83732
1.83726
1.83676
1.8348
1.83089
1.82853
1.82723
1.8291
1.83596
1.85255
1.87784
1.90405
1.92007
1.9295
1.92813
1.92366
1.91882
1.91572
1.91303
1.90924
1.9054
1.90198
1.89939
1.89719
1.89593
1.89412
1.88966
1.88322
1.87696
1.87018
1.86279
1.85569
1.84975
1.84524
1.84175
1.84023
1.84075
1.84237
1.84229
1.83911
1.83546
1.83149
1.82631
1.82009
1.81372
1.80812
1.80396
1.80213
1.8007
1.79893
1.79827
1.79763
1.79536
1.79077
1.78849
1.78806
1.78715
1.78661
1.78609
1.78546
1.78267
1.77528
1.76789
1.76201
1.75588
1.74837
1.7412
1.73636
1.73273
1.72956
1.72764
1.72775
1.73007
1.73243
1.73195
1.72897
1.72562
1.72107
1.71425
1.70866
1.70502
1.70111
1.69598
1.68945
1.68226
1.67469
1.66603
1.65856
1.65532
1.65508
1.65715
1.659
1.65852
1.65782
1.65695
1.65436
1.64709
1.63689
1.63307
1.63282
1.63282
1.6333
1.63654
1.64072
1.643
1.64358
1.64275
1.63806
1.62989
1.61934
1.60895
1.60261
1.59991
1.59957
1.59897
1.59918
1.59999
1.60035
1.60031
1.60152
1.60413
1.606
1.60693
1.60711
1.60634
1.6023
1.59312
1.58018
1.56597
1.55375
1.54722
1.54543
1.54522
1.54583
1.5466
1.54645
1.54483
1.54316
1.54212
1.54107
1.54041
1.53933
1.53658
1.53307
1.53115
1.52883
1.52454
1.52148
1.519
1.51473
1.50927
1.50627
1.50608
1.50718
1.50941
1.51115
1.51226
1.51363
1.51479
1.51561
1.51557
1.51512
1.51379
1.51065
1.5075
1.50549
1.50298
1.49741
1.48983
1.48554
1.48383
1.48002
1.56103
1.56032
1.55973
1.55974
1.56133
1.56539
1.56805
1.56924
1.57074
1.57151
1.57069
1.5678
1.56672
1.56679
1.56678
1.56668
1.56666
1.5675
1.57013
1.57204
1.57222
1.57218
1.57136
1.56924
1.56675
1.56618
1.56688
1.56882
1.57107
1.57375
1.57752
1.57981
1.58005
1.57992
1.57815
1.57316
1.56827
1.56555
1.56325
1.56133
1.56074
1.56106
1.56199
1.56181
1.56237
1.56432
1.5726
1.59978
1.6626
1.74282
1.81893
1.86316
1.89696
1.90208
1.89658
1.89354
1.89049
1.89072
1.89392
1.89411
1.89018
1.88288
1.87601
1.87174
1.87085
1.8715
1.87158
1.87135
1.87002
1.86831
1.86797
1.86816
1.86996
1.87035
1.86852
1.86478
1.85965
1.85458
1.84971
1.84497
1.84002
1.83509
1.83136
1.82987
1.83001
1.83059
1.82982
1.82848
1.82599
1.82233
1.81996
1.8203
1.82334
1.83206
1.85136
1.87821
1.90286
1.92569
1.92573
1.92153