/*--------------------------------*- C++ -*----------------------------------*\
  =========                 |
  \\      /  F ield         | OpenFOAM: The Open Source CFD Toolbox
   \\    /   O peration     | Website:  https://openfoam.org
    \\  /    A nd           | Version:  7
     \\/     M anipulation  |
\*---------------------------------------------------------------------------*/
FoamFile
{
    version     2.0;
    format      ascii;
    class       volScalarField;
    location    "3";
    object      rho;
}
// * * * * * * * * * * * * * * * * * * * * * * * * * * * * * * * * * * * * * //

dimensions      [1 -3 0 0 0 0 0];

internalField   nonuniform List<scalar> 
4128
(
0.782617
0.790663
0.798552
0.806037
0.814669
0.828393
0.849078
0.870661
0.882965
0.889235
0.894279
0.899214
0.904872
0.912832
0.924643
0.934746
0.938516
0.940969
0.943438
0.946884
0.953352
0.965462
0.97753
0.981662
0.983172
0.983394
0.980365
0.977825
0.979799
0.984346
0.993046
1.00306
1.00769
1.00924
1.01022
1.01121
1.01269
1.01394
1.01361
1.01151
1.00705
1.00496
1.00566
1.00979
1.01776
1.02263
1.02244
1.0204
1.01485
1.01026
1.00869
1.0078
1.00775
1.00656
1.00439
1.0007
0.997577
0.996919
0.997355
1.0001
1.00273
1.00261
1.00171
1.00035
0.997565
0.99298
0.989113
0.987675
0.98747
0.98876
0.992149
0.99434
0.994223
0.992562
0.988312
0.984273
0.982131
0.980961
0.980109
0.979316
0.97855
0.977994
0.977826
0.978367
0.979779
0.981346
0.981972
0.981497
0.980864
0.980282
0.979796
0.979513
0.979419
0.979142
0.97843
0.977375
0.975847
0.974675
0.97417
0.974148
0.975546
0.977301
0.977213
0.976343
0.975283
0.973933
0.972244
0.970477
0.968976
0.967998
0.967488
0.967176
0.967038
0.967116
0.967199
0.967008
0.966675
0.966295
0.966301
1.3728
2.22226
2.36823
2.40136
2.42131
2.42826
2.43046
2.43107
2.43417
2.4364
0.794273
0.802774
0.810183
0.818498
0.828602
0.842252
0.861792
0.878124
0.886585
0.89377
0.901668
0.910162
0.919413
0.930035
0.940347
0.945144
0.947749
0.950474
0.953473
0.957225
0.963812
0.972781
0.979895
0.985347
0.990302
0.993448
0.995363
0.995941
0.99459
0.995727
0.999028
1.00383
1.00993
1.01467
1.01657
1.01715
1.01756
1.01851
1.01991
1.02016
1.01956
1.01722
1.01532
1.01544
1.01701
1.0202
1.02266
1.02202
1.01956
1.01703
1.01597
1.01557
1.01619
1.01591
1.01458
1.01202
1.00769
1.00444
1.00334
1.00298
1.00343
1.00402
1.0036
1.00267
1.00085
0.998366
0.9972
0.996213
0.994927
0.994094
0.993801
0.993545
0.99299
0.991426
0.989108
0.987958
0.987444
0.987098
0.987001
0.986362
0.985145
0.983446
0.981312
0.979838
0.979499
0.979931
0.981452
0.982701
0.982456
0.981641
0.98066
0.979996
0.979686
0.979843
0.980579
0.981465
0.981556
0.9808
0.97938
0.978036
0.977321
0.977023
0.97749
0.97858
0.978351
0.97745
0.976456
0.97527
0.974078
0.97324
0.972674
0.972247
0.971847
0.971322
0.970708
0.969922
0.968984
0.968129
0.967166
1.34838
2.21318
2.37214
2.40367
2.42377
2.43499
2.44226
2.44678
2.44826
2.44926
0.825149
0.834741
0.84281
0.85205
0.865056
0.8841
0.908931
0.922659
0.927642
0.930954
0.934636
0.940574
0.950332
0.968153
0.980946
0.984108
0.984791
0.983712
0.986364
0.990592
0.999807
1.01036
1.01273
1.01326
1.01304
1.01486
1.01857
1.02477
1.02994
1.03182
1.03163
1.03176
1.0335
1.03651
1.04055
1.04257
1.04233
1.03997
1.03763
1.03791
1.03999
1.04345
1.04548
1.04473
1.04121
1.03587
1.03297
1.03228
1.03211
1.03166
1.03099
1.03064
1.03089
1.03065
1.03012
1.02942
1.02787
1.02549
1.02424
1.0232
1.02195
1.02028
1.0178
1.01385
1.00946
1.00794
1.0082
1.01033
1.01328
1.01388
1.01236
1.00839
1.00208
0.997119
0.995617
0.995251
0.995416
0.996424
0.997636
0.998427
0.998509
0.998065
0.996909
0.99424
0.990812
0.989227
0.988778
0.989659
0.991359
0.991255
0.990283
0.98853
0.986042
0.984744
0.98472
0.986467
0.989321
0.991078
0.991559
0.991231
0.989711
0.988009
0.987191
0.986976
0.986986
0.986225
0.985183
0.984018
0.982649
0.9817
0.981499
0.981602
0.982021
0.982264
0.982199
0.981878
0.981117
0.980488
0.979112
1.29826
2.20847
2.39575
2.41861
2.43693
2.45054
2.46207
2.46631
2.46417
2.46198
0.848308
0.858809
0.870385
0.882767
0.899968
0.922066
0.942428
0.954932
0.96192
0.966373
0.969054
0.973759
0.983793
1.00458
1.02074
1.02517
1.0265
1.02302
1.02179
1.02576
1.03489
1.04881
1.05429
1.05558
1.05475
1.0549
1.0573
1.06153
1.06816
1.07109
1.07211
1.07112
1.07022
1.07167
1.07407
1.07746
1.07879
1.0781
1.07502
1.07252
1.07259
1.07453
1.07689
1.07724
1.076
1.07143
1.06621
1.06437
1.06406
1.06456
1.06577
1.06569
1.06437
1.06215
1.05961
1.05719
1.05426
1.05065
1.04849
1.04764
1.0471
1.0463
1.04494
1.04251
1.03897
1.0358
1.03435
1.0343
1.03548
1.03624
1.03525
1.03169
1.02582
1.02218
1.02122
1.02075
1.02075
1.02059
1.01997
1.01917
1.01834
1.01735
1.01573
1.01304
1.01085
1.00999
1.00944
1.00946
1.01091
1.01151
1.0111
1.01029
1.00874
1.00704
1.006
1.00583
1.00654
1.00701
1.00691
1.00649
1.00608
1.00573
1.00543
1.00559
1.00594
1.00525
1.00413
1.00255
1.00002
0.99691
0.994852
0.994278
0.994235
0.994533
0.994692
0.994661
0.99425
0.994137
0.993924
1.22624
2.19947
2.44775
2.45958
2.47371
2.48543
2.49402
2.49628
2.49238
2.48888
0.866291
0.879831
0.896427
0.913068
0.928876
0.943975
0.955851
0.965186
0.97534
0.986828
0.995566
1.00516
1.02014
1.0378
1.04859
1.05342
1.05585
1.05581
1.05661
1.06115
1.06856
1.07804
1.08621
1.0894
1.09012
1.08988
1.09184
1.09534
1.10271
1.10768
1.10895
1.10845
1.10495
1.10365
1.10436
1.10596
1.11003
1.11329
1.11389
1.11354
1.1126
1.11221
1.11201
1.11116
1.10856
1.10365
1.0983
1.09622
1.09595
1.09723
1.10048
1.10161
1.10116
1.0996
1.09623
1.09139
1.0865
1.0828
1.08046
1.07845
1.07642
1.07481
1.0735
1.07247
1.07192
1.07147
1.07057
1.06856
1.06587
1.06264
1.0586
1.05405
1.05105
1.05025
1.0501
1.05081
1.0521
1.05255
1.05194
1.05094
1.04932
1.04602
1.04061
1.03569
1.03352
1.03274
1.03233
1.03244
1.03341
1.03392
1.03374
1.03329
1.03303
1.03299
1.033
1.0328
1.03233
1.03154
1.03003
1.02823
1.02751
1.02725
1.02723
1.02837
1.02994
1.03006
1.02964
1.02884
1.02707
1.02385
1.02009
1.01733
1.01589
1.01529
1.01494
1.01461
1.01413
1.01375
1.01325
1.14079
2.16498
2.524
2.52525
2.53126
2.53852
2.54231
2.54068
2.53415
2.53055
0.869892
0.884293
0.902436
0.923017
0.936498
0.947011
0.955517
0.96373
0.973713
0.987893
1.00559
1.01898
1.03055
1.04126
1.04898
1.05734
1.06968
1.07969
1.08392
1.08614
1.08871
1.09249
1.09812
1.10565
1.10898
1.10979
1.11134
1.11425
1.11942
1.12608
1.12895
1.12997
1.12859
1.12642
1.12721
1.12964
1.13428
1.13989
1.1412
1.14042
1.13749
1.13361
1.13171
1.13088
1.12997
1.12867
1.12686
1.12553
1.1254
1.12663
1.1289
1.12925
1.12829
1.12653
1.12281
1.11666
1.11188
1.11
1.1086
1.10679
1.10427
1.10156
1.09995
1.09933
1.09989
1.10093
1.10047
1.09816
1.09306
1.08714
1.08324
1.0818
1.08147
1.08114
1.0804
1.07964
1.07887
1.0781
1.07729
1.07619
1.07435
1.07044
1.06513
1.06221
1.06115
1.06045
1.06008
1.06015
1.06028
1.05994
1.05914
1.05773
1.05715
1.05698
1.05697
1.05665
1.05615
1.0553
1.05347
1.05167
1.05122
1.05096
1.05079
1.05111
1.0516
1.05131
1.05087
1.05019
1.0488
1.04619
1.04294
1.04021
1.03852
1.03775
1.03747
1.03739
1.03737
1.03745
1.03732
1.07019
2.092
2.616
2.61343
2.60304
2.605
2.60114
2.59257
2.58347
2.58012
0.862542
0.876886
0.894843
0.919133
0.93525
0.944512
0.950309
0.956502
0.966256
0.98153
1.00335
1.02148
1.02998
1.037
1.0447
1.05418
1.06787
1.08628
1.09371
1.09511
1.09425
1.09593
1.09934
1.10599
1.11679
1.12127
1.12272
1.12513
1.12938
1.13606
1.14204
1.14423
1.14546
1.14515
1.14431
1.14479
1.14559
1.14749
1.1498
1.15007
1.14944
1.14705
1.14502
1.14507
1.14625
1.14754
1.14751
1.14622
1.14421
1.14332
1.14308
1.14369
1.1432
1.14209
1.13987
1.13504
1.12935
1.12597
1.12367
1.12138
1.11962
1.11875
1.1188
1.12066
1.12275
1.12276
1.12133
1.11738
1.1108
1.10564
1.10378
1.103
1.10229
1.10136
1.10013
1.09864
1.09751
1.09687
1.09659
1.09591
1.09367
1.0889
1.08498
1.08384
1.0832
1.0827
1.08233
1.08163
1.08073
1.07911
1.07689
1.07595
1.07593
1.0767
1.07757
1.07742
1.07666
1.07463
1.07056
1.06706
1.066
1.06564
1.06567
1.06669
1.06816
1.06881
1.06871
1.06789
1.06606
1.06364
1.06147
1.05972
1.05805
1.0564
1.05516
1.05446
1.05404
1.05368
1.05366
1.05718
1.97569
2.69136
2.71194
2.6773
2.66745
2.64997
2.63228
2.62445
2.62264
0.830346
0.85346
0.875426
0.900818
0.918734
0.932171
0.945497
0.951984
0.958777
0.970954
0.990971
1.01295
1.02334
1.02898
1.03614
1.04531
1.05921
1.07887
1.09096
1.09441
1.09477
1.09415
1.09755
1.10356
1.11336
1.12389
1.12751
1.12937
1.13254
1.137
1.14301
1.14892
1.15122
1.152
1.15089
1.14792
1.14755
1.14844
1.15179
1.15609
1.15753
1.15766
1.15599
1.15322
1.15235
1.15203
1.15196
1.15142
1.15062
1.14986
1.14959
1.14986
1.14941
1.14833
1.14663
1.14285
1.13687
1.13267
1.13098
1.13026
1.13085
1.13407
1.13741
1.13797
1.13678
1.13366
1.12977
1.12592
1.12205
1.11879
1.11625
1.11443
1.11331
1.11265
1.11242
1.11226
1.1118
1.11114
1.11
1.1075
1.10373
1.09947
1.09732
1.09653
1.09611
1.09655
1.09666
1.0959
1.0948
1.09259
1.09018
1.08965
1.08964
1.09031
1.09011
1.0889
1.0868
1.08355
1.07928
1.07619
1.07541
1.0755
1.07682
1.07944
1.08141
1.08139
1.08005
1.0773
1.07443
1.07264
1.07165
1.0709
1.06978
1.06806
1.06651
1.06571
1.06545
1.06543
1.06663
1.06698
1.86486
2.7392
2.79465
2.74064
2.71791
2.68898
2.66844
2.6604
2.657
0.769098
0.799172
0.828259
0.858964
0.883729
0.902033
0.922907
0.940021
0.950221
0.960926
0.97614
0.995217
1.00992
1.01771
1.02373
1.03189
1.04421
1.06342
1.08146
1.08869
1.09178
1.09186
1.09325
1.0988
1.1076
1.11914
1.12687
1.13032
1.1324
1.13582
1.14093
1.1465
1.14976
1.15097
1.15132
1.14949
1.14827
1.14937
1.15312
1.15888
1.16103
1.16108
1.15964
1.15517
1.15168
1.15084
1.15044
1.15135
1.15356
1.15377
1.15252
1.15022
1.14899
1.14798
1.14628
1.14373
1.14023
1.13768
1.13708
1.13832
1.1425
1.14561
1.14517
1.14328
1.13954
1.13418
1.12902
1.12633
1.12488
1.12393
1.12315
1.12246
1.12233
1.12257
1.1224
1.12156
1.11987
1.11662
1.1122
1.10797
1.10509
1.10407
1.10369
1.10393
1.10579
1.1075
1.10734
1.10655
1.10462
1.10107
1.09759
1.09572
1.09461
1.09352
1.09234
1.09095
1.08938
1.08764
1.08584
1.08465
1.08442
1.08495
1.08567
1.08541
1.08466
1.0832
1.08117
1.07915
1.07814
1.0778
1.07813
1.07845
1.07802
1.07685
1.0759
1.07564
1.07563
1.07603
1.07721
1.0771
1.79033
2.76484
2.84973
2.78322
2.75101
2.71992
2.69893
2.68687
2.67852
0.73169
0.74168
0.759705
0.784479
0.816899
0.846317
0.873141
0.905681
0.934197
0.94821
0.95931
0.971064
0.985296
1.0018
1.01148
1.01645
1.0262
1.04173
1.05968
1.07522
1.08389
1.08829
1.08911
1.09096
1.09817
1.10929
1.12068
1.12717
1.13111
1.13336
1.13628
1.14037
1.14512
1.14807
1.1491
1.14961
1.14936
1.15026
1.15288
1.15702
1.1595
1.15962
1.15829
1.15418
1.14925
1.14817
1.14848
1.15161
1.15489
1.15482
1.15355
1.15014
1.14618
1.14476
1.14427
1.14395
1.14343
1.1433
1.14416
1.14596
1.14672
1.14606
1.14502
1.14311
1.13845
1.13133
1.12724
1.12583
1.12558
1.12702
1.12953
1.1305
1.13022
1.12915
1.12711
1.12427
1.12087
1.11638
1.1111
1.10744
1.1063
1.10648
1.10851
1.11245
1.11509
1.11499
1.11375
1.11087
1.10641
1.10187
1.09875
1.09688
1.09536
1.09404
1.09297
1.09224
1.09198
1.09239
1.09251
1.09199
1.09067
1.08861
1.08678
1.0855
1.08384
1.08203
1.08113
1.08084
1.08114
1.08293
1.08478
1.08503
1.08436
1.08247
1.08084
1.08011
1.07954
1.07888
1.07834
1.07752
1.74112
2.77019
2.87739
2.80979
2.7731
2.74057
2.71409
2.69556
2.68321
0.741116
0.745987
0.745761
0.749031
0.760188
0.780356
0.807904
0.841366
0.877585
0.912042
0.932018
0.940084
0.949339
0.965673
0.990888
1.01574
1.02592
1.02894
1.03586
1.04567
1.05822
1.07354
1.08589
1.09003
1.09176
1.0981
1.10591
1.11554
1.12461
1.12937
1.13097
1.13314
1.13661
1.14076
1.14465
1.14702
1.14895
1.15028
1.15144
1.15265
1.15331
1.15402
1.15379
1.1516
1.14893
1.14695
1.14708
1.14945
1.15313
1.15369
1.15266
1.14938
1.14402
1.14119
1.14093
1.14252
1.14682
1.14954
1.14952
1.14774
1.14521
1.1434
1.14199
1.13945
1.13445
1.12925
1.127
1.12671
1.12851
1.13355
1.13549
1.13487
1.13358
1.13124
1.12774
1.12384
1.11954
1.1146
1.11043
1.10871
1.10889
1.11104
1.11649
1.1204
1.12002
1.11852
1.11574
1.11093
1.10503
1.10074
1.09875
1.09754
1.0964
1.09543
1.09488
1.09537
1.09692
1.09738
1.09679
1.09522
1.09201
1.08824
1.08507
1.08257
1.08101
1.0805
1.08059
1.08209
1.0854
1.08827
1.08867
1.08805
1.08584
1.08268
1.08079
1.07996
1.07935
1.07863
1.07781
1.07616
1.71554
2.76429
2.88368
2.8241
2.79044
2.75859
2.72719
2.70317
2.68613
0.761416
0.758616
0.752449
0.751945
0.754036
0.758231
0.76556
0.780044
0.801759
0.827199
0.85537
0.883462
0.903864
0.923689
0.953374
0.992466
1.01535
1.02335
1.02186
1.02098
1.02892
1.04469
1.06894
1.08639
1.09322
1.09231
1.09314
1.09768
1.10449
1.11628
1.12616
1.1285
1.12921
1.13188
1.13531
1.13971
1.14504
1.14905
1.15049
1.14906
1.14579
1.14479
1.14537
1.14673
1.1472
1.14732
1.14727
1.14773
1.14813
1.14869
1.14872
1.14737
1.14363
1.14018
1.13909
1.1398
1.14437
1.14912
1.14899
1.14735
1.14402
1.13925
1.13542
1.1328
1.13072
1.12936
1.12903
1.12994
1.13258
1.13401
1.13467
1.13432
1.13325
1.13097
1.12643
1.12065
1.11668
1.11427
1.11288
1.11287
1.11429
1.11797
1.12115
1.1216
1.12092
1.11916
1.11562
1.10905
1.1024
1.0995
1.09839
1.09775
1.09742
1.09765
1.09929
1.10087
1.1004
1.0992
1.0972
1.09422
1.09021
1.08591
1.08272
1.08108
1.08032
1.0801
1.081
1.0855
1.08974
1.0902
1.08967
1.08803
1.08474
1.08139
1.07949
1.07854
1.07781
1.0772
1.07647
1.07488
1.7113
2.76127
2.88465
2.8331
2.80469
2.77271
2.73879
2.71118
2.68956
0.78917
0.785119
0.777019
0.767552
0.768317
0.768704
0.767849
0.768626
0.771263
0.777348
0.787439
0.805305
0.834157
0.86976
0.901745
0.933688
0.969294
0.997517
1.00758
1.00659
1.00729
1.01804
1.03974
1.06911
1.08291
1.08723
1.08567
1.08157
1.08541
1.09539
1.11269
1.1238
1.12713
1.1255
1.12544
1.12888
1.13546
1.14396
1.14636
1.14606
1.14144
1.13604
1.13563
1.13717
1.1418
1.14695
1.14846
1.14735
1.14359
1.14146
1.14152
1.14177
1.14134
1.13955
1.13816
1.13813
1.14015
1.14407
1.14565
1.14489
1.1421
1.13603
1.12962
1.12792
1.12823
1.13075
1.13328
1.13358
1.13256
1.13192
1.13155
1.13109
1.12993
1.12758
1.12347
1.11903
1.11617
1.11554
1.11677
1.11928
1.12014
1.11959
1.11894
1.11832
1.1174
1.11536
1.11152
1.10641
1.10241
1.10022
1.09916
1.09853
1.09904
1.10186
1.10222
1.10122
1.10034
1.09886
1.0959
1.09145
1.08692
1.08369
1.08201
1.08117
1.08076
1.08109
1.08393
1.08697
1.0879
1.08802
1.08747
1.08526
1.08175
1.07942
1.07817
1.07722
1.07657
1.07592
1.07525
1.07427
1.73151
2.76487
2.88045
2.83268
2.80846
2.77589
2.74183
2.71404
2.69304
0.834679
0.825563
0.81761
0.801662
0.796378
0.792745
0.784702
0.772602
0.769581
0.769881
0.772647
0.776625
0.784666
0.801796
0.826293
0.855725
0.88814
0.919899
0.953902
0.985198
0.996696
1.00091
1.01244
1.03182
1.05538
1.06935
1.07257
1.07043
1.07096
1.07822
1.09196
1.11005
1.11803
1.11986
1.11814
1.11905
1.1234
1.13053
1.13582
1.13718
1.13572
1.1296
1.12664
1.12749
1.13218
1.14192
1.14629
1.14563
1.14164
1.13495
1.13242
1.13256
1.13473
1.13741
1.13721
1.13655
1.13667
1.13703
1.1375
1.13739
1.13631
1.13323
1.12806
1.12543
1.12547
1.12755
1.13127
1.13217
1.13151
1.12988
1.12761
1.12564
1.12388
1.12193
1.1202
1.11922
1.1187
1.11906
1.11997
1.1204
1.12042
1.11972
1.11755
1.1142
1.11114
1.10826
1.1055
1.10384
1.10308
1.1023
1.10162
1.10137
1.10135
1.10091
1.10031
1.09934
1.09759
1.09455
1.09029
1.08638
1.08423
1.08325
1.08247
1.08206
1.08293
1.08514
1.08581
1.0856
1.08521
1.08405
1.08159
1.07858
1.07715
1.0767
1.07646
1.07675
1.07656
1.07576
1.07456
1.07273
1.78256
2.7678
2.86453
2.819
2.79723
2.76664
2.73545
2.7096
2.69026
0.881866
0.864718
0.856512
0.840748
0.826619
0.822295
0.815129
0.79931
0.780802
0.775931
0.775573
0.778672
0.785164
0.78583
0.787535
0.793637
0.809601
0.834231
0.866371
0.90474
0.947898
0.982085
0.992665
1.00076
1.0124
1.03052
1.05218
1.06148
1.06313
1.06514
1.07195
1.08201
1.09536
1.1071
1.11117
1.11273
1.11458
1.11686
1.11974
1.12253
1.12394
1.12351
1.12147
1.12168
1.12449
1.13078
1.13613
1.13697
1.13539
1.12929
1.12335
1.1226
1.12395
1.12888
1.13369
1.13467
1.13351
1.13021
1.12809
1.12762
1.12764
1.12741
1.12602
1.12378
1.12336
1.12438
1.12626
1.12729
1.12712
1.12578
1.1229
1.11974
1.11784
1.11711
1.11693
1.11752
1.11843
1.11875
1.11856
1.11819
1.11746
1.11574
1.11243
1.10814
1.10447
1.1021
1.10082
1.10013
1.10003
1.10071
1.10111
1.10091
1.10023
1.09896
1.09691
1.0939
1.08971
1.08514
1.08238
1.08148
1.08121
1.08189
1.08346
1.08469
1.08526
1.0851
1.08461
1.08327
1.08058
1.07645
1.07268
1.07139
1.07122
1.07187
1.07351
1.07541
1.07611
1.07562
1.07416
1.07085
1.85838
2.7654
2.83622
2.7936
2.77248
2.74475
2.71834
2.69688
2.68252
0.930083
0.910196
0.899791
0.885457
0.864732
0.856153
0.848866
0.83377
0.810431
0.796997
0.789243
0.785728
0.787118
0.788502
0.788152
0.786513
0.783785
0.786086
0.795511
0.81574
0.848627
0.889837
0.937526
0.965204
0.975555
0.989428
1.01091
1.03715
1.05244
1.05628
1.05411
1.05616
1.06445
1.07898
1.09709
1.1062
1.1084
1.10457
1.09982
1.10144
1.10522
1.11206
1.11698
1.11796
1.11888
1.12015
1.12153
1.12237
1.12227
1.12031
1.11569
1.11363
1.11417
1.11805
1.12434
1.12615
1.12565
1.12251
1.11848
1.11745
1.11743
1.11868
1.12047
1.12073
1.11991
1.11908
1.11892
1.1191
1.11934
1.1187
1.11708
1.11504
1.11377
1.11355
1.11413
1.11582
1.11682
1.11673
1.11559
1.11307
1.10986
1.10636
1.1029
1.10042
1.09906
1.09815
1.09769
1.09803
1.09886
1.09929
1.09893
1.09807
1.09668
1.09397
1.08942
1.08364
1.07869
1.07644
1.07577
1.07576
1.07721
1.07993
1.08234
1.08356
1.08349
1.08257
1.08052
1.07675
1.07127
1.06658
1.06493
1.06464
1.06531
1.06816
1.0719
1.074
1.07423
1.07351
1.07165
1.06661
1.95427
2.75537
2.79812
2.75973
2.74182
2.72157
2.70251
2.6855
2.67475
0.970043
0.951376
0.940441
0.928105
0.905215
0.883292
0.872018
0.86094
0.846305
0.831082
0.819076
0.80611
0.798244
0.796755
0.795861
0.793271
0.789961
0.7822
0.774687
0.775949
0.783949
0.803015
0.834978
0.875148
0.919492
0.945243
0.964422
0.985797
1.01314
1.03437
1.03904
1.03714
1.04126
1.05303
1.07218
1.08764
1.09201
1.09196
1.08402
1.08059
1.08424
1.09192
1.10414
1.11079
1.11133
1.10914
1.10626
1.10631
1.10695
1.10723
1.10615
1.10438
1.10477
1.1077
1.11286
1.11492
1.11484
1.11302
1.10897
1.10722
1.1073
1.10902
1.11255
1.11449
1.11436
1.11253
1.11002
1.10908
1.10903
1.10981
1.11024
1.11003
1.10949
1.10927
1.10968
1.1106
1.11103
1.11063
1.10867
1.1046
1.09988
1.09618
1.09424
1.09342
1.09315
1.09385
1.09468
1.09512
1.0951
1.09447
1.09342
1.0918
1.08878
1.08353
1.07684
1.07194
1.07018
1.06965
1.06956
1.07095
1.07434
1.07768
1.07916
1.07902
1.07821
1.07626
1.07173
1.06486
1.05942
1.05753
1.05715
1.05757
1.06041
1.06529
1.06886
1.06981
1.06962
1.06862
1.06531
1.06204
2.06482
2.73472
2.75648
2.72886
2.71957
2.70764
2.69563
2.6818
2.6711
1.00649
0.988202
0.976214
0.966926
0.948994
0.919244
0.897361
0.887759
0.87871
0.866307
0.853283
0.837458
0.823226
0.817029
0.811444
0.805615
0.799485
0.789199
0.777792
0.774152
0.773714
0.77547
0.78251
0.798264
0.823566
0.856847
0.89557
0.924134
0.949655
0.973979
1.0057
1.02516
1.02812
1.03391
1.04494
1.05772
1.06799
1.07228
1.07161
1.06693
1.06937
1.075
1.08472
1.09471
1.09683
1.09635
1.09277
1.09071
1.09166
1.09333
1.09421
1.09388
1.09421
1.0961
1.09899
1.1014
1.10201
1.10173
1.09961
1.09744
1.09753
1.09947
1.10345
1.10585
1.10599
1.10472
1.10112
1.09875
1.0985
1.09924
1.10165
1.10354
1.10399
1.10379
1.10283
1.10183
1.10099
1.09951
1.09681
1.09341
1.09055
1.08869
1.08753
1.08707
1.08736
1.08839
1.08875
1.08823
1.08732
1.08614
1.08439
1.08134
1.07633
1.07021
1.06591
1.06431
1.06377
1.06355
1.06413
1.06658
1.06996
1.07187
1.07183
1.07104
1.06913
1.06452
1.05725
1.05164
1.04981
1.04941
1.04978
1.05243
1.05714
1.06103
1.06234
1.06233
1.06181
1.06006
1.05417
1.07661
2.16581
2.70998
2.71852
2.70245
2.70267
2.70131
2.70249
2.69873
2.68437
1.03968
1.0238
1.00618
0.994056
0.979151
0.95668
0.930772
0.909306
0.897758
0.889707
0.880857
0.870665
0.857902
0.842856
0.830171
0.81815
0.807534
0.799087
0.791606
0.783233
0.776659
0.775241
0.774738
0.775344
0.778266
0.786343
0.802614
0.831124
0.868735
0.90059
0.933822
0.975089
1.01065
1.01831
1.02021
1.02657
1.03684
1.04925
1.05546
1.05531
1.05565
1.06027
1.06616
1.07501
1.08113
1.08214
1.08078
1.076
1.07551
1.07749
1.08082
1.08421
1.0862
1.08679
1.08662
1.08682
1.08741
1.08825
1.08834
1.08806
1.0886
1.09042
1.09301
1.09476
1.09511
1.09481
1.09266
1.08999
1.0893
1.08965
1.09197
1.09476
1.09559
1.09555
1.09448
1.09185
1.08886
1.08646
1.08467
1.08357
1.0831
1.08287
1.08206
1.0815
1.08128
1.08074
1.07968
1.07823
1.0765
1.07447
1.07168
1.06782
1.06335
1.06007
1.05887
1.05841
1.05825
1.05858
1.05985
1.06182
1.06321
1.06307
1.06217
1.0599
1.05508
1.04836
1.04372
1.04231
1.04197
1.04244
1.04504
1.04922
1.05263
1.05377
1.05382
1.05352
1.05211
1.04858
1.04263
1.12513
2.2428
2.68945
2.69804
2.69591
2.7014
2.7024
2.70503
2.70951
2.70399
1.07366
1.05667
1.03692
1.01769
1.00079
0.983681
0.961864
0.941438
0.923309
0.910164
0.902655
0.897142
0.889222
0.874969
0.856028
0.838437
0.824124
0.814233
0.80692
0.798548
0.7894
0.781649
0.777071
0.774974
0.773357
0.769486
0.767872
0.771744
0.785246
0.814142
0.852875
0.893141
0.936893
0.98031
0.994579
0.997597
1.00529
1.01924
1.03623
1.04162
1.04104
1.04316
1.04771
1.05555
1.06565
1.06911
1.06927
1.06494
1.06085
1.06233
1.06598
1.07278
1.07773
1.07849
1.07716
1.07418
1.07368
1.07425
1.07685
1.08024
1.08146
1.08198
1.08246
1.0831
1.08378
1.08417
1.08401
1.08291
1.08203
1.08209
1.08323
1.08439
1.0847
1.08458
1.08346
1.08087
1.07829
1.07688
1.07632
1.07625
1.07694
1.07754
1.07702
1.07588
1.07436
1.07236
1.07016
1.06779
1.065
1.06181
1.05841
1.0553
1.05382
1.05333
1.05317
1.05358
1.05428
1.05502
1.05565
1.05564
1.05506
1.05379
1.05089
1.04573
1.03975
1.03634
1.03542
1.03512
1.03569
1.03827
1.04219
1.04532
1.04651
1.04659
1.04628
1.04459
1.04046
1.03493
1.03052
1.18277
2.30385
2.70463
2.69786
2.6987
2.70369
2.70718
2.70908
2.71413
2.71986
1.10344
1.08691
1.06812
1.04673
1.02073
0.993453
0.978121
0.966284
0.95291
0.940661
0.928932
0.915121
0.903337
0.892869
0.879363
0.86396
0.847364
0.832281
0.819416
0.808757
0.801324
0.794825
0.78777
0.781668
0.776567
0.769476
0.761615
0.760476
0.76098
0.766359
0.781349
0.809337
0.8452
0.884623
0.929207
0.959567
0.970868
0.984682
1.00607
1.02361
1.02593
1.02519
1.02948
1.03801
1.04991
1.05718
1.05869
1.05766
1.05266
1.05215
1.05476
1.06044
1.06741
1.06918
1.06869
1.06516
1.06286
1.06349
1.06697
1.07253
1.07475
1.07531
1.07484
1.07412
1.07414
1.07413
1.07435
1.07476
1.07569
1.07687
1.07669
1.07591
1.07525
1.07451
1.07294
1.07118
1.07071
1.07078
1.07122
1.07243
1.07319
1.07272
1.07142
1.06884
1.06509
1.06174
1.05926
1.057
1.05455
1.05191
1.05022
1.0495
1.04928
1.05008
1.05102
1.05151
1.05177
1.05172
1.05129
1.05029
1.04809
1.04416
1.03845
1.03315
1.0309
1.0304
1.03044
1.03165
1.03396
1.03718
1.04028
1.04143
1.04139
1.04071
1.0381
1.03262
1.02672
1.02274
1.02304
1.26356
2.40819
2.71046
2.70594
2.71548
2.7227
2.71952
2.71036
2.7061
2.71175
1.12901
1.11205
1.09455
1.07725
1.0501
1.01659
0.993609
0.981608
0.972739
0.964011
0.953221
0.938769
0.923688
0.911401
0.900797
0.887294
0.869509
0.852487
0.840616
0.831062
0.820777
0.810723
0.80391
0.798294
0.790272
0.776578
0.764501
0.761063
0.76064
0.761989
0.764007
0.767578
0.778986
0.80072
0.831223
0.871366
0.915057
0.938744
0.960785
0.989715
1.00868
1.0113
1.01498
1.02198
1.03149
1.04255
1.04898
1.05095
1.0494
1.04536
1.0462
1.04885
1.05417
1.05838
1.05875
1.05806
1.05801
1.05974
1.06325
1.06722
1.06876
1.06936
1.06906
1.06674
1.06508
1.06462
1.06479
1.06771
1.07229
1.07364
1.07321
1.07175
1.06925
1.0665
1.06484
1.06472
1.06551
1.06748
1.06971
1.07007
1.06936
1.06756
1.06388
1.0588
1.05571
1.055
1.05475
1.05389
1.05264
1.05086
1.04929
1.04891
1.04877
1.04872
1.049
1.04918
1.04888
1.04828
1.04729
1.04511
1.04087
1.03492
1.03069
1.0292
1.02867
1.02856
1.02929
1.03126
1.03484
1.03796
1.03838
1.03785
1.03627
1.0323
1.02562
1.02041
1.01892
1.01848
1.02326
1.3914
2.49105
2.74273
2.72357
2.72597
2.73139
2.72209
2.70633
2.69717
2.69956
1.15583
1.14054
1.12211
1.09136
1.0545
1.02879
1.01403
1.00407
0.99382
0.98212
0.970425
0.958745
0.945959
0.932108
0.912959
0.890592
0.87764
0.869098
0.861944
0.855044
0.846604
0.837044
0.826373
0.81132
0.793608
0.780432
0.774137
0.77144
0.768487
0.765979
0.76457
0.763998
0.764004
0.76549
0.773045
0.788073
0.816128
0.856497
0.893614
0.927246
0.963504
1.00023
1.01119
1.01493
1.02253
1.02995
1.03697
1.04099
1.0422
1.04059
1.03814
1.03891
1.041
1.04643
1.05419
1.05809
1.05945
1.05978
1.06073
1.06159
1.0617
1.06197
1.0614
1.05889
1.05772
1.05807
1.06034
1.06571
1.07142
1.07266
1.07236
1.07045
1.06624
1.06286
1.06259
1.06289
1.06427
1.06665
1.06751
1.0669
1.06494
1.06074
1.05606
1.05455
1.05415
1.0541
1.05429
1.05399
1.05336
1.05256
1.05135
1.04902
1.04721
1.04646
1.04629
1.04642
1.04596
1.04518
1.04396
1.04148
1.03704
1.03271
1.03015
1.02931
1.02884
1.0288
1.0305
1.03421
1.03672
1.03659
1.03565
1.03339
1.02841
1.02176
1.01829
1.01766
1.01706
1.01794
1.07707
1.61978
2.42619
2.70567
2.71906
2.71519
2.7193
2.71573
2.70389
2.69448
2.69359
1.185
1.16939
1.1424
1.10069
1.063
1.04416
1.03528
1.02639
1.01621
1.00483
0.992976
0.981128
0.968837
0.950388
0.925499
0.905097
0.894292
0.886435
0.879586
0.873898
0.867956
0.861105
0.850988
0.83072
0.804829
0.790867
0.787259
0.786768
0.784348
0.780194
0.775414
0.769023
0.764812
0.763172
0.760316
0.759159
0.76242
0.774994
0.803384
0.846549
0.891766
0.940486
0.98467
1.01374
1.02054
1.02043
1.02406
1.02639
1.02858
1.03035
1.03025
1.03049
1.03293
1.03915
1.04986
1.05785
1.06095
1.0621
1.06093
1.05723
1.05481
1.0537
1.05323
1.05414
1.05541
1.05671
1.05954
1.06527
1.07019
1.07138
1.07114
1.06897
1.06453
1.06257
1.06225
1.06283
1.06378
1.06427
1.06398
1.06248
1.05914
1.05576
1.05474
1.05426
1.05424
1.05566
1.05721
1.05732
1.0569
1.05542
1.0516
1.04761
1.04625
1.04568
1.04566
1.04601
1.04555
1.04472
1.0434
1.04101
1.03685
1.03289
1.03168
1.03109
1.03077
1.03147
1.03424
1.03623
1.03587
1.03464
1.032
1.02727
1.02202
1.01893
1.01764
1.01724
1.01709
1.02841
1.32388
1.87306
2.20271
2.55821
2.68606
2.69153
2.69209
2.70241
2.70729
2.70352
2.69924
1.21267
1.188
1.14922
1.10511
1.07785
1.06736
1.05795
1.04854
1.03914
1.02962
1.01945
1.00687
0.984915
0.954034
0.932971
0.923413
0.917031
0.911067
0.904817
0.898172
0.890196
0.877737
0.857891
0.837667
0.824013
0.817323
0.810935
0.804997
0.800297
0.795914
0.79171
0.786393
0.778749
0.77024
0.759588
0.752841
0.752615
0.753876
0.759535
0.7761
0.810576
0.858574
0.910764
0.968019
1.00249
1.00886
1.01106
1.01314
1.01432
1.01858
1.02556
1.03111
1.034
1.03877
1.04741
1.05534
1.05863
1.05984
1.05992
1.05582
1.04936
1.04785
1.04909
1.05153
1.0545
1.05798
1.06267
1.06731
1.06871
1.0689
1.06834
1.06651
1.06605
1.06598
1.06596
1.06525
1.0642
1.06292
1.06084
1.05755
1.0554
1.05486
1.05474
1.05545
1.05791
1.06114
1.06199
1.06172
1.0603
1.05606
1.05012
1.04748
1.04655
1.04592
1.04601
1.04647
1.04603
1.04524
1.04379
1.04067
1.03678
1.03494
1.03437
1.03404
1.03432
1.03586
1.03678
1.03621
1.03506
1.03282
1.02871
1.02401
1.02081
1.01965
1.01926
1.01889
1.02206
1.12735
1.74139
2.00293
2.04394
2.31307
2.58888
2.66002
2.67134
2.68918
2.71197
2.72148
2.71852
1.23343
1.19879
1.15431
1.11668
1.10284
1.09336
1.08441
1.07569
1.06665
1.0573
1.04641
1.02796
0.993759
0.962016
0.949692
0.943836
0.938137
0.933321
0.928291
0.922038
0.912814
0.895378
0.866603
0.846944
0.843299
0.840341
0.835761
0.830665
0.824161
0.81621
0.810483
0.805997
0.799071
0.786401
0.766181
0.75495
0.752961
0.75288
0.756692
0.761555
0.768974
0.78749
0.824665
0.87096
0.92218
0.964676
0.992175
1.00079
1.00291
1.00901
1.01892
1.03296
1.04206
1.04623
1.04878
1.05095
1.05322
1.05513
1.05585
1.05616
1.0547
1.05106
1.05037
1.05237
1.05582
1.06074
1.06648
1.06917
1.06898
1.06755
1.06608
1.06614
1.0671
1.06936
1.07051
1.07019
1.06827
1.0639
1.05874
1.05626
1.05529
1.05488
1.05581
1.06004
1.06587
1.06804
1.06786
1.06649
1.06232
1.05515
1.05074
1.04966
1.04913
1.04924
1.05024
1.0501
1.04933
1.04802
1.04542
1.04106
1.03793
1.0372
1.03678
1.0371
1.03872
1.03959
1.03904
1.038
1.03602
1.0321
1.02766
1.02456
1.02332
1.02312
1.02304
1.02488
1.05096
1.43964
2.01418
2.03985
2.01006
2.08543
2.37061
2.6007
2.66692
2.69223
2.7195
2.7373
2.74184
1.25053
1.20729
1.16345
1.14289
1.13317
1.12385
1.11573
1.10745
1.09805
1.08701
1.06989
1.03541
0.997916
0.980356
0.974856
0.971355
0.965966
0.959295
0.952595
0.945119
0.934089
0.912698
0.881282
0.867752
0.862817
0.857707
0.854913
0.853766
0.849499
0.843201
0.835898
0.827814
0.81713
0.800728
0.779893
0.766617
0.76272
0.760722
0.759897
0.761619
0.768328
0.772571
0.77887
0.795387
0.823444
0.86546
0.913538
0.958718
0.981617
0.997006
1.01175
1.03371
1.04885
1.0534
1.05436
1.05011
1.04661
1.04709
1.04875
1.0517
1.05544
1.05939
1.06327
1.06484
1.06578
1.06708
1.06787
1.06875
1.06883
1.06839
1.06818
1.06931
1.07264
1.07561
1.07612
1.07552
1.07252
1.06628
1.06107
1.05952
1.05884
1.05883
1.06215
1.07013
1.07541
1.07575
1.07496
1.07178
1.06399
1.05553
1.0531
1.0526
1.05266
1.05467
1.057
1.0568
1.05591
1.05403
1.04987
1.04498
1.04328
1.04238
1.0418
1.04216
1.04317
1.04289
1.04216
1.04094
1.03824
1.0337
1.03004
1.02892
1.02875
1.0289
1.0304
1.03748
1.20834
1.83526
2.03507
2.03779
2.02408
2.0277
2.15166
2.43502
2.64135
2.70731
2.73619
2.75419
2.76196
1.26338
1.21587
1.18707
1.17697
1.16775
1.15915
1.15045
1.14089
1.12942
1.11292
1.08124
1.03927
1.01334
1.00646
1.00173
0.998724
0.994531
0.9884
0.981189
0.971651
0.954243
0.92292
0.897024
0.890372
0.886245
0.882138
0.879182
0.877485
0.874858
0.870172
0.863663
0.85308
0.83295
0.807096
0.791413
0.787274
0.785553
0.782732
0.778236
0.775039
0.774394
0.775654
0.778301
0.777786
0.781222
0.78971
0.813959
0.862786
0.919229
0.965915
0.995005
1.02524
1.04715
1.05296
1.0553
1.05337
1.04299
1.04096
1.04375
1.04862
1.05775
1.06951
1.07596
1.07729
1.07727
1.07396
1.06941
1.06821
1.06784
1.06785
1.07107
1.07788
1.08358
1.08534
1.08538
1.0827
1.07538
1.06741
1.0647
1.06421
1.06402
1.06599
1.07367
1.08238
1.0843
1.08385
1.08183
1.07597
1.06619
1.06052
1.05972
1.05941
1.06003
1.06323
1.06531
1.06485
1.06363
1.06083
1.05547
1.05196
1.05095
1.05015
1.04985
1.04992
1.04927
1.04843
1.04719
1.04475
1.04088
1.03781
1.03699
1.0369
1.0377
1.03905
1.04205
1.09367
1.59983
2.01967
2.02906
2.03226
2.04612
2.05398
2.08184
2.2252
2.48674
2.66441
2.73271
2.76212