/*--------------------------------*- C++ -*----------------------------------*\
  =========                 |
  \\      /  F ield         | OpenFOAM: The Open Source CFD Toolbox
   \\    /   O peration     | Website:  https://openfoam.org
    \\  /    A nd           | Version:  7
     \\/     M anipulation  |
\*---------------------------------------------------------------------------*/
FoamFile
{
    version     2.0;
    format      ascii;
    class       volVectorField;
    location    "1";
    object      U;
}
// * * * * * * * * * * * * * * * * * * * * * * * * * * * * * * * * * * * * * //

dimensions      [0 1 -1 0 0 0 0];

internalField   nonuniform List<vector> 
66048
(
(3 -2.14661e-17 0)
(3 -4.69917e-17 0)
(3 -2.64794e-16 0)
(3 -6.06885e-16 0)
(3 -9.1792e-16 0)
(3 -3.24313e-16 0)
(3 -5.25848e-17 0)
(3 4.25078e-16 0)
(3 9.31984e-16 0)
(3 1.22302e-15 0)
(3 9.98639e-16 0)
(3 1.69705e-16 0)
(3 4.88527e-18 0)
(3 -2.61222e-16 0)
(3 -2.89802e-16 0)
(3 3.27564e-16 0)
(3 5.25861e-16 0)
(3 4.40209e-16 0)
(3 -1.63619e-16 0)
(3 -4.82457e-16 0)
(3 -2.0071e-16 0)
(3 1.41318e-16 0)
(3 -1.4026e-16 0)
(3 -6.02888e-16 0)
(3 -2.48134e-16 0)
(3 1.18682e-16 0)
(3 -2.36322e-16 0)
(3 -3.83935e-16 0)
(3 -1.26373e-16 0)
(3 1.5427e-16 0)
(3 9.62617e-17 0)
(3 -6.48765e-16 0)
(3 -1.33196e-15 0)
(3 -2.2199e-15 0)
(3 -1.6766e-15 0)
(3 -1.83386e-16 0)
(3 2.85604e-16 0)
(3 7.16271e-16 0)
(3 7.83862e-16 0)
(3 2.03798e-16 0)
(3 1.39304e-16 0)
(3 -2.79017e-16 0)
(3 -4.98173e-16 0)
(3 -4.87261e-16 0)
(3 -4.20411e-16 0)
(3 -3.87775e-16 0)
(3 -2.59775e-16 0)
(3 -1.39427e-16 0)
(3 -6.04269e-17 0)
(3 5.17181e-16 0)
(3 9.04043e-16 0)
(3 1.07841e-15 0)
(3 8.52677e-16 0)
(3 4.82205e-16 0)
(3 -6.9504e-16 0)
(3 -1.28955e-15 0)
(3 -1.12816e-15 0)
(3 -6.75747e-16 0)
(3 -1.36731e-15 0)
(3 -1.36922e-15 0)
(3 -5.00951e-16 0)
(3 -6.56889e-16 0)
(3 -2.58687e-16 0)
(3 1.46492e-15 0)
(3 -6.0881e-16 0)
(3 -8.0532e-16 0)
(3 -1.02655e-15 0)
(3 -3.46983e-16 0)
(3 2.22788e-16 0)
(3 4.57442e-16 0)
(3 3.70285e-17 0)
(3 2.56673e-16 0)
(2.8072 0.00364215 0)
(0.954099 0.0099087 0)
(0.730389 0.00908945 0)
(0.703058 0.012809 0)
(0.668221 0.0146238 0)
(0.633646 0.0156279 0)
(0.598963 0.0151925 0)
(0.566481 0.0138659 0)
(0.536833 0.0124945 0)
(0.509602 0.0115833 0)
(0.483639 0.0115698 0)
(0.457282 0.0125015 0)
(0.429163 0.0137018 0)
(0.399363 0.0145158 0)
(0.36874 0.0150712 0)
(0.337385 0.0156457 0)
(0.304718 0.0163347 0)
(0.270166 0.0172849 0)
(0.233508 0.0182789 0)
(0.194894 0.019334 0)
(0.154611 0.0203294 0)
(0.112185 0.0213219 0)
(0.0684679 0.0218212 0)
(0.0235209 0.0225555 0)
(3 3.78719e-17 0)
(3 3.06294e-18 0)
(3 -7.14442e-16 0)
(3 -1.01786e-15 0)
(3 -1.74576e-15 0)
(3 -1.24418e-15 0)
(3 -4.90224e-16 0)
(3 -2.24157e-16 0)
(3 4.57767e-16 0)
(3 6.61479e-16 0)
(3 4.41313e-16 0)
(3 -2.30299e-16 0)
(3 -3.63888e-16 0)
(3 -6.94864e-16 0)
(3 -6.30996e-16 0)
(3 -4.5596e-16 0)
(3 -3.76491e-16 0)
(3 -4.2964e-16 0)
(3 -8.7122e-16 0)
(3 -8.15885e-16 0)
(3 -5.70378e-16 0)
(3 -4.15043e-16 0)
(3 -8.96485e-16 0)
(3 -1.63494e-15 0)
(3 -1.4753e-15 0)
(3 -1.23915e-15 0)
(3 -1.41349e-15 0)
(3 -1.26072e-15 0)
(3 -5.4439e-16 0)
(3 -8.03057e-16 0)
(3 -1.60738e-15 0)
(3 -2.74094e-15 0)
(3 -3.22138e-15 0)
(3 -2.92046e-15 0)
(3 -2.72279e-15 0)
(3 -1.39095e-15 0)
(3 -1.26353e-15 0)
(3 -9.22337e-16 0)
(3 -1.48642e-16 0)
(3 4.82303e-16 0)
(3 7.31388e-16 0)
(3 -7.91898e-16 0)
(3 -1.81453e-15 0)
(3 -1.63416e-15 0)
(3 -1.4681e-15 0)
(3 -1.4217e-15 0)
(3 -1.01369e-15 0)
(3 8.15086e-16 0)
(3 3.90542e-16 0)
(3 1.31966e-15 0)
(3 2.34997e-15 0)
(3 1.817e-15 0)
(3 1.56039e-15 0)
(3 4.97536e-16 0)
(3 -1.41504e-16 0)
(3 -3.48428e-16 0)
(3 -6.88732e-16 0)
(3 -7.26154e-16 0)
(3 -8.1243e-16 0)
(3 -4.19349e-16 0)
(3 1.26802e-15 0)
(3 1.14776e-15 0)
(3 2.249e-15 0)
(3 2.97696e-15 0)
(3 1.69292e-15 0)
(3 2.50839e-16 0)
(3 1.36324e-16 0)
(3 8.76028e-16 0)
(3 5.60763e-16 0)
(3 -5.54569e-18 0)
(3 -5.98249e-16 0)
(3 -1.08318e-15 0)
(2.82115 0.0170378 0)
(0.959264 0.0412018 0)
(0.724728 0.034698 0)
(0.692456 0.037331 0)
(0.656944 0.0405571 0)
(0.623317 0.0420808 0)
(0.591229 0.0416326 0)
(0.561405 0.0396367 0)
(0.533427 0.0373381 0)
(0.506545 0.0357397 0)
(0.479862 0.0360282 0)
(0.452363 0.0385614 0)
(0.42315 0.0416778 0)
(0.392523 0.0436692 0)
(0.361399 0.0450901 0)
(0.329821 0.0467236 0)
(0.297274 0.0487725 0)
(0.26334 0.0516925 0)
(0.227782 0.054799 0)
(0.190586 0.0582154 0)
(0.151741 0.0614016 0)
(0.110649 0.0646548 0)
(0.0678166 0.0664251 0)
(0.0235082 0.0689676 0)
(3 2.46725e-16 0)
(3 2.39989e-16 0)
(3 1.60985e-16 0)
(3 2.10233e-17 0)
(3 -3.59081e-16 0)
(3 -5.48049e-16 0)
(3 -1.47507e-16 0)
(3 2.60287e-16 0)
(3 4.59726e-16 0)
(3 5.17047e-16 0)
(3 1.72479e-16 0)
(3 6.24769e-17 0)
(3 -1.8969e-16 0)
(3 -7.13008e-16 0)
(3 -1.29101e-15 0)
(3 -1.338e-15 0)
(3 -1.36928e-15 0)
(3 -1.52845e-15 0)
(3 -1.16856e-15 0)
(3 -1.85756e-16 0)
(3 5.45621e-16 0)
(3 -9.51372e-17 0)
(3 -3.18815e-16 0)
(3 -8.30652e-16 0)
(3 -1.58217e-15 0)
(3 -1.75557e-15 0)
(3 -1.06181e-15 0)
(3 -1.93733e-17 0)
(3 2.65647e-16 0)
(3 -6.12977e-16 0)
(3 -1.88549e-15 0)
(3 -2.23126e-15 0)
(3 -2.26656e-15 0)
(3 -2.14884e-15 0)
(3 -2.34505e-15 0)
(3 -2.62602e-15 0)
(3 -2.32934e-15 0)
(3 -1.70927e-15 0)
(3 -2.20797e-16 0)
(3 1.09712e-15 0)
(3 9.99489e-16 0)
(3 5.74992e-16 0)
(3 6.74243e-17 0)
(3 1.45573e-17 0)
(3 3.54726e-18 0)
(3 1.09262e-16 0)
(3 -2.10788e-16 0)
(3 4.39177e-17 0)
(3 -3.04676e-16 0)
(3 -3.06441e-16 0)
(3 1.11556e-16 0)
(3 5.31609e-16 0)
(3 3.99615e-16 0)
(3 2.24404e-16 0)
(3 4.27935e-16 0)
(3 3.75405e-16 0)
(3 5.36753e-16 0)
(3 -9.96589e-17 0)
(3 -4.67916e-17 0)
(3 2.98676e-16 0)
(3 1.18742e-15 0)
(3 2.04338e-15 0)
(3 2.90773e-15 0)
(3 3.6563e-15 0)
(3 2.88845e-15 0)
(3 2.23034e-15 0)
(3 8.31373e-16 0)
(3 7.45944e-16 0)
(3 -2.38867e-16 0)
(3 -1.28708e-15 0)
(3 -1.54931e-15 0)
(3 -1.90222e-15 0)
(2.85657 0.027321 0)
(0.978945 0.0690825 0)
(0.728305 0.0633986 0)
(0.691151 0.0667277 0)
(0.654128 0.0696069 0)
(0.62187 0.0693475 0)
(0.593031 0.0673925 0)
(0.565918 0.0645296 0)
(0.539021 0.0619458 0)
(0.511662 0.0606402 0)
(0.483393 0.0621051 0)
(0.453792 0.06665 0)
(0.422382 0.0716059 0)
(0.389748 0.0744295 0)
(0.356918 0.0762741 0)
(0.323863 0.0784744 0)
(0.290139 0.0812852 0)
(0.255583 0.0854989 0)
(0.220062 0.0900433 0)
(0.183588 0.0953541 0)
(0.145896 0.100429 0)
(0.10648 0.105987 0)
(0.065253 0.109323 0)
(0.0228074 0.114077 0)
(3 -3.90905e-17 0)
(3 -4.18561e-17 0)
(3 2.23611e-17 0)
(3 4.15111e-16 0)
(3 8.39395e-16 0)
(3 7.54683e-16 0)
(3 6.25983e-16 0)
(3 6.03567e-16 0)
(3 5.09298e-16 0)
(3 6.60248e-16 0)
(3 6.74554e-16 0)
(3 6.18938e-16 0)
(3 5.0304e-16 0)
(3 4.54523e-16 0)
(3 3.10656e-16 0)
(3 3.9355e-16 0)
(3 1.13363e-16 0)
(3 -3.77401e-16 0)
(3 -7.17109e-17 0)
(3 2.55851e-16 0)
(3 2.26707e-16 0)
(3 7.0916e-16 0)
(3 5.90438e-16 0)
(3 3.68805e-16 0)
(3 1.74898e-16 0)
(3 -2.53369e-16 0)
(3 2.37058e-16 0)
(3 4.13495e-16 0)
(3 2.36129e-16 0)
(3 4.27779e-16 0)
(3 4.19629e-16 0)
(3 -8.0653e-17 0)
(3 -1.56901e-15 0)
(3 -2.24507e-15 0)
(3 -2.59507e-15 0)
(3 -2.40502e-15 0)
(3 -1.16995e-15 0)
(3 -3.73937e-16 0)
(3 -2.71669e-16 0)
(3 -1.86214e-16 0)
(3 3.76181e-16 0)
(3 1.66603e-15 0)
(3 2.56221e-15 0)
(3 1.06175e-15 0)
(3 5.65962e-16 0)
(3 2.28387e-16 0)
(3 -3.68528e-16 0)
(3 -8.7749e-16 0)
(3 -5.16014e-16 0)
(3 -1.21061e-16 0)
(3 -1.57497e-17 0)
(3 5.93943e-16 0)
(3 5.27285e-17 0)
(3 2.40274e-16 0)
(3 3.71709e-16 0)
(3 8.00078e-16 0)
(3 9.17441e-16 0)
(3 1.05543e-15 0)
(3 9.84978e-16 0)
(3 1.21991e-15 0)
(3 1.30768e-15 0)
(3 1.83183e-15 0)
(3 2.18764e-15 0)
(3 2.32718e-15 0)
(3 1.16908e-15 0)
(3 7.21181e-16 0)
(3 4.54609e-16 0)
(3 -8.01173e-16 0)
(3 -8.05006e-16 0)
(3 -6.20473e-16 0)
(3 -7.09597e-16 0)
(3 -6.70433e-16 0)
(2.89968 0.032835 0)
(1.00366 0.0971337 0)
(0.726611 0.0946088 0)
(0.690788 0.0959661 0)
(0.660481 0.0964627 0)
(0.633595 0.0925702 0)
(0.607666 0.0884091 0)
(0.58104 0.0860262 0)
(0.552827 0.0853421 0)
(0.523179 0.0859975 0)
(0.492516 0.0895387 0)
(0.460857 0.0965113 0)
(0.427531 0.103463 0)
(0.392998 0.107154 0)
(0.358333 0.109452 0)
(0.323468 0.112239 0)
(0.288009 0.115695 0)
(0.251986 0.120832 0)
(0.215387 0.126112 0)
(0.178444 0.132544 0)
(0.14079 0.138651 0)
(0.102375 0.145984 0)
(0.062421 0.150728 0)
(0.0219685 0.157705 0)
(3 -1.69698e-16 0)
(3 -6.1605e-16 0)
(3 -8.28225e-16 0)
(3 -5.19685e-16 0)
(3 3.71511e-16 0)
(3 3.33937e-16 0)
(3 5.03864e-16 0)
(3 5.37828e-16 0)
(3 3.43494e-16 0)
(3 5.70042e-16 0)
(3 4.62737e-16 0)
(3 2.37442e-16 0)
(3 -4.48303e-16 0)
(3 -2.88025e-16 0)
(3 3.01575e-16 0)
(3 8.93392e-16 0)
(3 1.24684e-15 0)
(3 1.05006e-15 0)
(3 5.10264e-16 0)
(3 5.94088e-16 0)
(3 -2.54033e-16 0)
(3 -1.85713e-17 0)
(3 -7.01396e-16 0)
(3 -5.80966e-16 0)
(3 -2.04184e-17 0)
(3 7.84732e-17 0)
(3 -3.08004e-16 0)
(3 -9.37344e-16 0)
(3 -5.48388e-17 0)
(3 1.10243e-15 0)
(3 1.23696e-15 0)
(3 -1.8158e-16 0)
(3 -1.54902e-15 0)
(3 -2.37553e-15 0)
(3 -2.35151e-15 0)
(3 -2.82222e-15 0)
(3 -2.95937e-15 0)
(3 -2.9398e-15 0)
(3 -2.81472e-15 0)
(3 -2.38731e-15 0)
(3 -1.19029e-15 0)
(3 2.45948e-16 0)
(3 4.99752e-16 0)
(3 1.55734e-16 0)
(3 -9.0547e-16 0)
(3 -1.23209e-15 0)
(3 -1.3741e-16 0)
(3 -1.15113e-15 0)
(3 -1.35014e-15 0)
(3 1.72309e-16 0)
(3 8.21835e-16 0)
(3 1.08777e-15 0)
(3 1.21475e-15 0)
(3 1.23258e-15 0)
(3 1.76226e-15 0)
(3 1.7493e-15 0)
(3 8.36385e-16 0)
(3 9.41325e-16 0)
(3 8.41907e-16 0)
(3 5.79563e-16 0)
(3 6.76839e-16 0)
(3 1.01619e-15 0)
(3 1.34739e-15 0)
(3 8.92352e-16 0)
(3 -6.1384e-17 0)
(3 -1.04729e-15 0)
(3 -1.7202e-15 0)
(3 -9.58622e-16 0)
(3 -8.56781e-16 0)
(3 -8.28682e-16 0)
(3 -1.44417e-16 0)
(3 5.53816e-16 0)
(2.94614 0.0357485 0)
(1.03406 0.132289 0)
(0.731817 0.124121 0)
(0.704501 0.118477 0)
(0.678861 0.11452 0)
(0.652689 0.110461 0)
(0.624988 0.108893 0)
(0.595398 0.110408 0)
(0.563507 0.113248 0)
(0.529946 0.115852 0)
(0.495996 0.120388 0)
(0.462599 0.128508 0)
(0.429164 0.136554 0)
(0.395345 0.140675 0)
(0.361412 0.14336 0)
(0.326716 0.146913 0)
(0.290718 0.151297 0)
(0.253641 0.157572 0)
(0.21566 0.163498 0)
(0.177442 0.170712 0)
(0.138707 0.177116 0)
(0.100145 0.185459 0)
(0.0605165 0.191105 0)
(0.0213751 0.199937 0)
(3 6.99036e-17 0)
(3 -1.13435e-16 0)
(3 -2.90684e-17 0)
(3 -4.21562e-16 0)
(3 -3.71312e-16 0)
(3 -3.67564e-16 0)
(3 -6.93853e-16 0)
(3 -2.13389e-16 0)
(3 8.75096e-19 0)
(3 5.71517e-17 0)
(3 -3.06016e-16 0)
(3 -7.02487e-16 0)
(3 -1.61196e-15 0)
(3 -2.00722e-15 0)
(3 -5.91176e-16 0)
(3 5.84282e-16 0)
(3 1.26458e-15 0)
(3 1.71846e-15 0)
(3 1.32006e-15 0)
(3 2.83286e-16 0)
(3 -1.54954e-16 0)
(3 -9.43018e-16 0)
(3 -8.80838e-16 0)
(3 -6.24117e-16 0)
(3 -7.04089e-16 0)
(3 -2.68138e-16 0)
(3 -5.73836e-16 0)
(3 -4.6268e-16 0)
(3 4.96581e-16 0)
(3 9.62033e-16 0)
(3 1.79789e-16 0)
(3 -2.0127e-16 0)
(3 -8.99761e-16 0)
(3 -6.10951e-16 0)
(3 4.9386e-16 0)
(3 -2.92521e-16 0)
(3 -5.62737e-16 0)
(3 -9.93168e-16 0)
(3 -7.25802e-16 0)
(3 -4.44707e-16 0)
(3 -6.04623e-16 0)
(3 -5.5562e-16 0)
(3 -2.06511e-16 0)
(3 -5.20359e-17 0)
(3 -5.71962e-17 0)
(3 -5.92163e-16 0)
(3 4.4026e-16 0)
(3 7.36997e-16 0)
(3 5.69182e-16 0)
(3 3.01933e-16 0)
(3 1.38746e-17 0)
(3 -4.30245e-16 0)
(3 6.17073e-16 0)
(3 1.79362e-15 0)
(3 2.13457e-15 0)
(3 2.02753e-15 0)
(3 1.74677e-15 0)
(3 1.33317e-15 0)
(3 2.87398e-16 0)
(3 -9.66266e-16 0)
(3 -8.02001e-16 0)
(3 -3.03326e-16 0)
(3 1.80238e-16 0)
(3 3.16166e-16 0)
(3 4.49887e-16 0)
(3 2.82441e-16 0)
(3 -1.70739e-15 0)
(3 -1.61899e-15 0)
(3 -1.34774e-15 0)
(3 -5.94416e-16 0)
(3 -3.22145e-16 0)
(3 -4.85106e-17 0)
(2.99065 0.0102659 0)
(1.07847 0.164022 0)
(0.750182 0.140861 0)
(0.722571 0.136087 0)
(0.695518 0.135413 0)
(0.665647 0.13528 0)
(0.632616 0.13699 0)
(0.597827 0.1407 0)
(0.562966 0.144697 0)
(0.529291 0.147229 0)
(0.49719 0.15124 0)
(0.466371 0.159403 0)
(0.435169 0.16807 0)
(0.402432 0.173024 0)
(0.368339 0.177045 0)
(0.332492 0.18235 0)
(0.294705 0.188346 0)
(0.25572 0.196046 0)
(0.215958 0.2025 0)
(0.176435 0.210201 0)
(0.136664 0.216305 0)
(0.0979813 0.225002 0)
(0.0586535 0.231001 0)
(0.0207775 0.241204 0)
(3 2.97247e-17 0)
(3 5.79664e-16 0)
(3 8.51942e-16 0)
(3 5.66449e-16 0)
(3 1.61554e-17 0)
(3 2.19642e-16 0)
(3 -9.22976e-16 0)
(3 -2.08387e-15 0)
(3 -1.95994e-15 0)
(3 -1.92314e-15 0)
(3 -1.00309e-15 0)
(3 -4.17333e-16 0)
(3 5.39787e-16 0)
(3 6.86374e-16 0)
(3 5.09977e-16 0)
(3 9.30743e-16 0)
(3 1.22679e-15 0)
(3 9.99097e-16 0)
(3 1.23103e-15 0)
(3 9.39069e-16 0)
(3 7.94625e-17 0)
(3 -1.4291e-16 0)
(3 4.70022e-16 0)
(3 6.64208e-16 0)
(3 5.39082e-17 0)
(3 -2.91789e-16 0)
(3 -1.19967e-16 0)
(3 4.49199e-16 0)
(3 4.67687e-16 0)
(3 5.98524e-16 0)
(3 1.48094e-16 0)
(3 1.64841e-16 0)
(3 -4.1972e-16 0)
(3 -3.27811e-16 0)
(3 8.44268e-17 0)
(3 -1.23729e-16 0)
(3 -3.19731e-16 0)
(3 -2.30652e-16 0)
(3 -1.38666e-17 0)
(3 5.53778e-16 0)
(3 3.55643e-16 0)
(3 -3.44898e-16 0)
(3 -3.8368e-16 0)
(3 6.50252e-16 0)
(3 6.09886e-16 0)
(3 8.67909e-16 0)
(3 1.4346e-15 0)
(3 1.85122e-15 0)
(3 2.61651e-15 0)
(3 1.90916e-15 0)
(3 9.75971e-16 0)
(3 6.32891e-16 0)
(3 1.02567e-15 0)
(3 1.8211e-15 0)
(3 1.67304e-15 0)
(3 1.67013e-15 0)
(3 2.04006e-15 0)
(3 1.31727e-15 0)
(3 -4.86144e-18 0)
(3 -5.88366e-16 0)
(3 -1.30555e-15 0)
(3 -1.71005e-15 0)
(3 -1.33002e-15 0)
(3 -6.90352e-16 0)
(3 -5.17076e-16 0)
(3 -2.87458e-16 0)
(3 -4.9901e-16 0)
(3 -8.11921e-16 0)
(3 -1.12505e-16 0)
(3 -2.33718e-16 0)
(3 -6.82388e-16 0)
(3 -9.2493e-16 0)
(3.00075 0.000773243 0)
(1.15855 0.1829 0)
(0.755114 0.164542 0)
(0.720472 0.161931 0)
(0.690849 0.16232 0)
(0.659899 0.163105 0)
(0.628199 0.166236 0)
(0.596129 0.170981 0)
(0.563961 0.175128 0)
(0.532133 0.176891 0)
(0.500724 0.180315 0)
(0.469794 0.189094 0)
(0.4381 0.199458 0)
(0.40453 0.206284 0)
(0.36976 0.212219 0)
(0.333634 0.219474 0)
(0.29586 0.227027 0)
(0.257165 0.236004 0)
(0.217626 0.242801 0)
(0.178254 0.250831 0)
(0.138129 0.256414 0)
(0.0990516 0.265099 0)
(0.0590799 0.271035 0)
(0.0210344 0.282238 0)
(3 -9.42517e-17 0)
(3 1.6938e-16 0)
(3 1.45735e-16 0)
(3 -2.91557e-16 0)
(3 -3.90945e-16 0)
(3 -2.98057e-16 0)
(3 -5.08322e-16 0)
(3 -9.49009e-16 0)
(3 -1.4738e-15 0)
(3 -8.74234e-16 0)
(3 -5.96643e-16 0)
(3 5.60576e-16 0)
(3 2.73502e-15 0)
(3 3.0661e-15 0)
(3 2.28861e-15 0)
(3 1.15734e-15 0)
(3 4.9919e-16 0)
(3 5.30362e-16 0)
(3 -1.64744e-16 0)
(3 -5.20734e-16 0)
(3 -7.7182e-16 0)
(3 -5.41724e-16 0)
(3 -1.91894e-16 0)
(3 4.07813e-16 0)
(3 6.99594e-16 0)
(3 -3.27559e-17 0)
(3 -1.99174e-16 0)
(3 3.06086e-17 0)
(3 6.06987e-17 0)
(3 -1.83118e-16 0)
(3 -1.8161e-16 0)
(3 5.22439e-16 0)
(3 3.56108e-16 0)
(3 3.27912e-16 0)
(3 3.51745e-17 0)
(3 -1.81105e-16 0)
(3 1.75617e-17 0)
(3 3.43331e-16 0)
(3 1.72281e-16 0)
(3 1.28286e-16 0)
(3 -4.51896e-16 0)
(3 -3.00844e-16 0)
(3 1.01515e-16 0)
(3 1.10552e-15 0)
(3 1.61769e-15 0)
(3 2.82513e-15 0)
(3 2.78999e-15 0)
(3 2.53968e-15 0)
(3 2.12743e-15 0)
(3 1.29932e-15 0)
(3 6.97932e-17 0)
(3 -1.21263e-17 0)
(3 7.50544e-19 0)
(3 4.8217e-16 0)
(3 7.13978e-16 0)
(3 6.0369e-16 0)
(3 1.88724e-16 0)
(3 -9.32515e-16 0)
(3 -1.29752e-15 0)
(3 -1.26015e-15 0)
(3 -1.97033e-15 0)
(3 -1.43655e-15 0)
(3 -1.17822e-15 0)
(3 -8.21217e-16 0)
(3 -8.72346e-16 0)
(3 -6.14748e-16 0)
(3 2.65012e-16 0)
(3 1.23671e-15 0)
(3 9.56631e-16 0)
(3 -2.66383e-16 0)
(3 -7.00128e-16 0)
(3 -6.79377e-16 0)
(3.00001 2.0712e-06 0)
(1.27959 0.212349 0)
(0.763232 0.188719 0)
(0.72137 0.186653 0)
(0.691441 0.187861 0)
(0.659816 0.189744 0)
(0.628167 0.193991 0)
(0.596468 0.199775 0)
(0.564751 0.204735 0)
(0.533256 0.206703 0)
(0.502174 0.21015 0)
(0.471984 0.219643 0)
(0.441647 0.231588 0)
(0.409424 0.24009 0)
(0.375948 0.247658 0)
(0.341127 0.256641 0)
(0.304514 0.265612 0)
(0.266884 0.275849 0)
(0.227893 0.283179 0)
(0.188469 0.291919 0)
(0.147138 0.297597 0)
(0.106122 0.306824 0)
(0.0633853 0.313049 0)
(0.022622 0.325398 0)
(3 -1.65897e-16 0)
(3 -7.45993e-16 0)
(3 -6.9902e-16 0)
(3 -4.31773e-16 0)
(3 -1.08077e-16 0)
(3 -2.05172e-16 0)
(3 4.1812e-16 0)
(3 1.06268e-15 0)
(3 4.11756e-16 0)
(3 3.88729e-16 0)
(3 2.26098e-16 0)
(3 1.50616e-15 0)
(3 1.83892e-15 0)
(3 2.18991e-15 0)
(3 2.34121e-15 0)
(3 1.5449e-15 0)
(3 -4.57922e-16 0)
(3 -5.01334e-16 0)
(3 -7.91961e-16 0)
(3 -1.07211e-15 0)
(3 -1.03192e-15 0)
(3 -8.93652e-16 0)
(3 -7.38862e-16 0)
(3 -1.69576e-16 0)
(3 1.11263e-15 0)
(3 1.40194e-15 0)
(3 1.01826e-15 0)
(3 -2.49583e-16 0)
(3 -1.65916e-15 0)
(3 -1.74852e-15 0)
(3 -1.10174e-15 0)
(3 -3.09289e-16 0)
(3 4.8384e-17 0)
(3 -1.52339e-16 0)
(3 -3.01894e-16 0)
(3 -2.96962e-16 0)
(3 7.06552e-17 0)
(3 3.10198e-16 0)
(3 7.17564e-16 0)
(3 6.03376e-16 0)
(3 6.96427e-16 0)
(3 6.08354e-16 0)
(3 8.40936e-16 0)
(3 8.14608e-16 0)
(3 1.98323e-15 0)
(3 2.20292e-15 0)
(3 1.8272e-15 0)
(3 1.48781e-15 0)
(3 9.4698e-16 0)
(3 1.00174e-15 0)
(3 7.73778e-16 0)
(3 6.11645e-16 0)
(3 3.26724e-16 0)
(3 1.93131e-16 0)
(3 5.65402e-16 0)
(3 2.20869e-16 0)
(3 -1.31048e-16 0)
(3 -2.57515e-16 0)
(3 -1.75933e-16 0)
(3 -3.02001e-16 0)
(3 4.40204e-16 0)
(3 1.4696e-15 0)
(3 7.83264e-16 0)
(3 -6.93508e-16 0)
(3 -1.39492e-15 0)
(3 -1.11093e-15 0)
(3 -5.39483e-16 0)
(3 1.35483e-17 0)
(3 1.36184e-16 0)
(3 -1.49853e-17 0)
(3 -8.15807e-17 0)
(3 -4.4452e-16 0)
(3 8.4245e-10 0)
(1.45065 0.239662 0)
(0.779329 0.216004 0)
(0.726491 0.213731 0)
(0.695484 0.214725 0)
(0.662934 0.216836 0)
(0.631713 0.221519 0)
(0.601513 0.227857 0)
(0.571857 0.233316 0)
(0.542279 0.235304 0)
(0.512723 0.238354 0)
(0.483922 0.248001 0)
(0.455258 0.261188 0)
(0.424522 0.271405 0)
(0.392339 0.280637 0)
(0.358759 0.291417 0)
(0.323022 0.302006 0)
(0.285879 0.314037 0)
(0.246383 0.322969 0)
(0.205576 0.333783 0)
(0.161307 0.341194 0)
(0.116709 0.352085 0)
(0.0696564 0.359244 0)
(0.024716 0.372877 0)
(3 -6.45724e-17 0)
(3 -2.83528e-16 0)
(3 -2.00465e-16 0)
(3 7.24507e-16 0)
(3 1.21915e-15 0)
(3 1.1408e-15 0)
(3 1.12153e-15 0)
(3 1.3249e-15 0)
(3 9.09188e-16 0)
(3 1.29628e-15 0)
(3 1.51433e-15 0)
(3 1.40418e-15 0)
(3 7.46741e-17 0)
(3 3.85981e-17 0)
(3 2.0387e-16 0)
(3 1.2582e-16 0)
(3 -3.96581e-17 0)
(3 2.34778e-16 0)
(3 9.15148e-16 0)
(3 7.12499e-16 0)
(3 6.96314e-16 0)
(3 6.00141e-16 0)
(3 4.09785e-16 0)
(3 -9.64975e-17 0)
(3 -1.29476e-16 0)
(3 -4.98947e-17 0)
(3 -2.26151e-16 0)
(3 -9.25903e-16 0)
(3 -1.82597e-15 0)
(3 -2.42786e-15 0)
(3 -2.74149e-15 0)
(3 -2.29604e-15 0)
(3 -1.45296e-15 0)
(3 -1.7221e-15 0)
(3 -1.8137e-15 0)
(3 -1.2787e-15 0)
(3 -6.44807e-16 0)
(3 -3.16e-17 0)
(3 6.65849e-16 0)
(3 6.19744e-16 0)
(3 1.16437e-15 0)
(3 1.1524e-15 0)
(3 1.469e-15 0)
(3 2.09479e-15 0)
(3 2.24408e-15 0)
(3 1.36179e-15 0)
(3 9.53525e-16 0)
(3 8.27726e-16 0)
(3 7.63089e-16 0)
(3 1.04388e-15 0)
(3 1.57642e-15 0)
(3 1.78422e-15 0)
(3 1.64528e-15 0)
(3 7.53228e-16 0)
(3 4.63157e-16 0)
(3 4.60569e-16 0)
(3 1.18916e-15 0)
(3 1.20972e-15 0)
(3 8.38876e-16 0)
(3 8.18957e-16 0)
(3 7.88522e-16 0)
(3 2.66716e-16 0)
(3 -7.98271e-16 0)
(3 -2.00107e-15 0)
(3 -2.27241e-15 0)
(3 -8.44093e-16 0)
(3 -1.72439e-16 0)
(3 -4.61534e-16 0)
(3 -2.56001e-16 0)
(3 7.15031e-16 0)
(3 6.15586e-16 0)
(3 1.70922e-16 0)
(3 -3.02565e-10 0)
(1.67518 0.260576 0)
(0.802471 0.245964 0)
(0.73448 0.242346 0)
(0.701421 0.243077 0)
(0.665906 0.245064 0)
(0.632508 0.249088 0)
(0.601608 0.254726 0)
(0.572913 0.260289 0)
(0.545002 0.262716 0)
(0.517241 0.265728 0)
(0.490342 0.275689 0)
(0.463936 0.290319 0)
(0.435145 0.302607 0)
(0.404505 0.313784 0)
(0.372373 0.326782 0)
(0.337598 0.339601 0)
(0.301066 0.354287 0)
(0.261111 0.365958 0)
(0.219084 0.379728 0)
(0.1726 0.389754 0)
(0.125123 0.402426 0)
(0.0747071 0.410476 0)
(0.0262242 0.424919 0)
(3 2.12111e-16 0)
(3 6.13197e-16 0)
(3 4.23029e-16 0)
(3 2.7525e-16 0)
(3 1.25076e-16 0)
(3 2.12908e-16 0)
(3 1.22099e-16 0)
(3 4.64799e-17 0)
(3 5.55787e-16 0)
(3 7.82401e-16 0)
(3 6.41492e-16 0)
(3 -7.92277e-16 0)
(3 -1.39565e-15 0)
(3 -1.55833e-15 0)
(3 -1.51616e-15 0)
(3 -1.40446e-15 0)
(3 -5.54058e-16 0)
(3 3.85544e-16 0)
(3 1.04004e-15 0)
(3 1.69309e-15 0)
(3 1.7881e-15 0)
(3 1.55321e-15 0)
(3 1.08638e-15 0)
(3 -1.00763e-16 0)
(3 -4.18095e-16 0)
(3 -7.49321e-16 0)
(3 -1.13024e-15 0)
(3 -1.19385e-15 0)
(3 -1.67304e-15 0)
(3 -2.24138e-15 0)
(3 -2.13422e-15 0)
(3 -1.19243e-15 0)
(3 -1.25339e-15 0)
(3 -1.25363e-15 0)
(3 -1.17087e-15 0)
(3 1.76529e-17 0)
(3 3.95553e-16 0)
(3 2.33042e-16 0)
(3 3.06624e-16 0)
(3 4.19186e-16 0)
(3 6.29773e-16 0)
(3 1.19416e-15 0)
(3 2.16315e-15 0)
(3 2.53596e-15 0)
(3 1.9996e-15 0)
(3 1.96216e-15 0)
(3 1.70927e-15 0)
(3 1.90659e-15 0)
(3 1.42182e-15 0)
(3 7.00763e-16 0)
(3 8.93943e-16 0)
(3 1.34593e-15 0)
(3 1.54976e-15 0)
(3 7.15681e-16 0)
(3 4.63061e-16 0)
(3 3.75955e-16 0)
(3 6.07611e-16 0)
(3 2.79363e-16 0)
(3 1.13112e-15 0)
(3 1.57903e-15 0)
(3 1.46648e-15 0)
(3 6.69867e-16 0)
(3 1.23482e-16 0)
(3 -1.53778e-16 0)
(3 5.22874e-16 0)
(3 3.38966e-16 0)
(3 4.29704e-16 0)
(3 4.82104e-16 0)
(3 3.23089e-16 0)
(3 4.13032e-16 0)
(3 -4.09402e-17 0)
(3 -6.87607e-16 0)
(3 -1.76989e-10 0)
(1.94626 0.276349 0)
(0.826525 0.284586 0)
(0.732376 0.27379 0)
(0.700891 0.273292 0)
(0.66791 0.275579 0)
(0.637168 0.279086 0)
(0.607721 0.283249 0)
(0.579922 0.287839 0)
(0.552406 0.290053 0)
(0.524558 0.292503 0)
(0.497449 0.302243 0)
(0.471603 0.318075 0)
(0.443834 0.332504 0)
(0.414425 0.345577 0)
(0.384183 0.360816 0)
(0.351342 0.376014 0)
(0.316868 0.393671 0)
(0.278119 0.408939 0)
(0.236053 0.426453 0)
(0.188892 0.440374 0)
(0.138366 0.456377 0)
(0.0831111 0.466734 0)
(0.0292874 0.482537 0)
(3 3.16066e-16 0)
(3 3.2604e-16 0)
(3 -1.51161e-16 0)
(3 -9.09423e-16 0)
(3 -8.09789e-16 0)
(3 -5.46396e-16 0)
(3 1.15354e-19 0)
(3 3.62953e-16 0)
(3 3.62112e-16 0)
(3 -6.61933e-16 0)
(3 -1.14842e-15 0)
(3 -1.31299e-15 0)
(3 -7.80518e-16 0)
(3 -6.40031e-16 0)
(3 -9.72419e-16 0)
(3 -1.07802e-15 0)
(3 -1.03169e-15 0)
(3 -6.98735e-16 0)
(3 -1.10416e-15 0)
(3 -3.10623e-16 0)
(3 5.87575e-16 0)
(3 7.55602e-17 0)
(3 -5.05845e-17 0)
(3 -6.47755e-16 0)
(3 -1.04637e-15 0)
(3 -1.5522e-15 0)
(3 -1.82e-15 0)
(3 -1.79871e-15 0)
(3 -1.61447e-15 0)
(3 -8.89252e-16 0)
(3 -1.46835e-16 0)
(3 4.80121e-16 0)
(3 2.3597e-16 0)
(3 -1.09182e-16 0)
(3 -1.8712e-16 0)
(3 9.49199e-17 0)
(3 -6.04878e-18 0)
(3 -2.42459e-16 0)
(3 -3.83805e-16 0)
(3 -2.19249e-16 0)
(3 -6.31572e-16 0)
(3 7.22064e-16 0)
(3 1.09916e-15 0)
(3 1.69686e-15 0)
(3 1.67672e-15 0)
(3 1.54818e-15 0)
(3 1.57247e-15 0)
(3 1.68215e-15 0)
(3 1.96895e-15 0)
(3 2.60637e-15 0)
(3 1.81847e-15 0)
(3 1.05909e-15 0)
(3 8.72883e-16 0)
(3 1.20295e-15 0)
(3 1.18938e-15 0)
(3 9.53666e-16 0)
(3 5.04186e-18 0)
(3 6.93312e-16 0)
(3 4.18603e-16 0)
(3 4.10029e-16 0)
(3 6.1033e-16 0)
(3 9.79102e-16 0)
(3 8.72339e-16 0)
(3 1.06429e-15 0)
(3 1.1389e-15 0)
(3 8.84706e-16 0)
(3 5.08195e-16 0)
(3 4.76003e-16 0)
(3 7.09707e-17 0)
(3 -1.52519e-15 0)
(3 -1.78216e-15 0)
(3 -1.93677e-15 0)
(3 -2.17576e-11 0)
(2.2787 0.286101 0)
(0.87381 0.333931 0)
(0.748497 0.305983 0)
(0.722857 0.303242 0)
(0.693348 0.304249 0)
(0.66408 0.306992 0)
(0.633725 0.310229 0)
(0.603531 0.314902 0)
(0.572838 0.318409 0)
(0.541656 0.321088 0)
(0.511486 0.330299 0)
(0.483907 0.346635 0)
(0.455725 0.362564 0)
(0.426457 0.376865 0)
(0.397438 0.393919 0)
(0.36617 0.411502 0)
(0.333309 0.432725 0)
(0.294908 0.452946 0)
(0.252169 0.476107 0)
(0.202387 0.496346 0)
(0.148449 0.517362 0)
(0.089436 0.531181 0)
(0.0302525 0.547446 0)
(3 -9.67335e-18 0)
(3 -8.82104e-17 0)
(3 -3.12957e-16 0)
(3 -5.6599e-16 0)
(3 -2.86152e-17 0)
(3 -2.65774e-16 0)
(3 -4.24235e-16 0)
(3 -5.35696e-16 0)
(3 -6.59481e-16 0)
(3 -1.2783e-15 0)
(3 -8.24392e-16 0)
(3 -3.49432e-16 0)
(3 4.58002e-16 0)
(3 -8.03018e-18 0)
(3 -5.65175e-17 0)
(3 1.98276e-16 0)
(3 -3.04154e-16 0)
(3 -9.12122e-16 0)
(3 -1.04534e-15 0)
(3 -1.1823e-15 0)
(3 -9.6166e-16 0)
(3 7.79097e-17 0)
(3 3.8245e-16 0)
(3 1.59107e-16 0)
(3 -3.49849e-16 0)
(3 -6.17762e-16 0)
(3 -2.35005e-16 0)
(3 5.02883e-16 0)
(3 9.95769e-16 0)
(3 1.53316e-15 0)
(3 1.13197e-15 0)
(3 1.84438e-16 0)
(3 1.33474e-16 0)
(3 4.60964e-16 0)
(3 6.21687e-16 0)
(3 2.63784e-16 0)
(3 -1.37907e-16 0)
(3 -8.02056e-17 0)
(3 2.896e-16 0)
(3 5.01132e-16 0)
(3 2.56549e-16 0)
(3 8.80284e-18 0)
(3 -8.31201e-16 0)
(3 3.92429e-17 0)
(3 1.11608e-15 0)
(3 6.45534e-16 0)
(3 1.17382e-15 0)
(3 1.54269e-15 0)
(3 1.9191e-15 0)
(3 2.58891e-15 0)
(3 2.32994e-15 0)
(3 2.37056e-15 0)
(3 1.91942e-15 0)
(3 1.11622e-15 0)
(3 5.49317e-16 0)
(3 4.2863e-16 0)
(3 1.25629e-16 0)
(3 3.8048e-16 0)
(3 -4.41021e-17 0)
(3 -1.15026e-15 0)
(3 -1.63623e-15 0)
(3 -1.8656e-15 0)
(3 -8.86857e-16 0)
(3 7.23571e-16 0)
(3 1.48875e-15 0)
(3 1.71708e-15 0)
(3 1.49926e-15 0)
(3 6.4308e-16 0)
(3 -1.16868e-15 0)
(3 -2.06695e-15 0)
(3 -1.80097e-15 0)
(3 -1.83433e-15 0)
(3 -3.37915e-13 0)
(2.70727 0.238835 0)
(0.976641 0.373796 0)
(0.798578 0.317966 0)
(0.774976 0.314538 0)
(0.743095 0.321651 0)
(0.711277 0.329469 0)
(0.676898 0.337437 0)
(0.641847 0.345118 0)
(0.606298 0.350696 0)
(0.570604 0.353584 0)
(0.536159 0.361161 0)
(0.50542 0.376897 0)
(0.475588 0.393704 0)
(0.445071 0.408662 0)
(0.415815 0.427183 0)
(0.384677 0.447297 0)
(0.352395 0.472475 0)
(0.315174 0.498451 0)
(0.27392 0.527999 0)
(0.225563 0.554703 0)
(0.171381 0.581627 0)
(0.106554 0.602584 0)
(0.0379984 0.622645 0)
(3 -5.16259e-16 0)
(3 -2.2224e-16 0)
(3 -6.30899e-17 0)
(3 2.40287e-16 0)
(3 1.91426e-16 0)
(3 -2.3158e-16 0)
(3 -4.44898e-16 0)
(3 -4.04993e-16 0)
(3 -5.76312e-16 0)
(3 -2.71505e-16 0)
(3 -3.16909e-16 0)
(3 -4.83671e-16 0)
(3 -5.61418e-16 0)
(3 -3.2343e-16 0)
(3 -1.54532e-16 0)
(3 3.49717e-16 0)
(3 -4.67926e-16 0)
(3 -7.63965e-16 0)
(3 -7.11556e-16 0)
(3 -8.76479e-16 0)
(3 -6.11344e-16 0)
(3 -3.49826e-17 0)
(3 2.35444e-16 0)
(3 5.16557e-16 0)
(3 1.09783e-15 0)
(3 1.17952e-15 0)
(3 1.4353e-15 0)
(3 1.32398e-15 0)
(3 1.53592e-15 0)
(3 1.39147e-15 0)
(3 7.99635e-16 0)
(3 4.43726e-16 0)
(3 5.37548e-16 0)
(3 1.2038e-15 0)
(3 1.92941e-15 0)
(3 2.4785e-15 0)
(3 2.3715e-15 0)
(3 2.25592e-15 0)
(3 1.70792e-15 0)
(3 1.667e-15 0)
(3 2.12729e-15 0)
(3 1.74726e-15 0)
(3 4.18948e-16 0)
(3 5.48508e-17 0)
(3 3.14023e-17 0)
(3 1.06699e-15 0)
(3 7.57603e-16 0)
(3 1.05824e-16 0)
(3 4.3033e-16 0)
(3 1.59668e-15 0)
(3 2.40635e-15 0)
(3 2.46406e-15 0)
(3 1.87139e-15 0)
(3 1.05069e-15 0)
(3 5.22964e-16 0)
(3 -6.50857e-16 0)
(3 -2.0735e-15 0)
(3 -2.48851e-15 0)
(3 -1.86885e-15 0)
(3 -1.51029e-15 0)
(3 -1.52774e-15 0)
(3 -2.34396e-15 0)
(3 -1.14389e-15 0)
(3 -3.59421e-16 0)
(3 6.90708e-16 0)
(3 5.58814e-16 0)
(3 2.5741e-16 0)
(3 -1.472e-15 0)
(3 -2.09247e-15 0)
(3 -2.26813e-15 0)
(3 -2.42887e-15 0)
(3 -2.26374e-15 0)
(3 -3.85549e-15 0)
(3.01721 0.0526637 0)
(1.1231 0.370576 0)
(0.834243 0.338601 0)
(0.812446 0.344444 0)
(0.781131 0.352759 0)
(0.750463 0.35977 0)
(0.718341 0.367831 0)
(0.683727 0.377421 0)
(0.647069 0.385591 0)
(0.609325 0.389577 0)
(0.571642 0.395297 0)
(0.537656 0.409483 0)
(0.505702 0.426444 0)
(0.473319 0.441693 0)
(0.442654 0.461493 0)
(0.410918 0.483771 0)
(0.37955 0.512096 0)
(0.343992 0.543208 0)
(0.304099 0.57966 0)
(0.253978 0.617331 0)
(0.193258 0.657411 0)
(0.121328 0.694297 0)
(0.0380888 0.71893 0)
(3 7.16785e-17 0)
(3 1.73796e-16 0)
(3 1.45746e-16 0)
(3 5.40961e-17 0)
(3 -1.58672e-16 0)
(3 -4.95816e-16 0)
(3 -5.25506e-16 0)
(3 -4.05101e-16 0)
(3 -2.98037e-16 0)
(3 -9.76406e-17 0)
(3 -4.0893e-16 0)
(3 -1.16238e-15 0)
(3 -1.13883e-15 0)
(3 -3.19026e-16 0)
(3 4.13397e-16 0)
(3 5.88004e-16 0)
(3 5.21658e-16 0)
(3 4.572e-16 0)
(3 -9.40451e-17 0)
(3 -4.4904e-17 0)
(3 1.43417e-16 0)
(3 4.52755e-16 0)
(3 5.74614e-16 0)
(3 5.69973e-16 0)
(3 8.52468e-16 0)
(3 1.24211e-15 0)
(3 2.74215e-16 0)
(3 -9.12352e-16 0)
(3 -1.09659e-15 0)
(3 -1.20014e-15 0)
(3 -8.76258e-16 0)
(3 -4.26635e-16 0)
(3 4.36999e-16 0)
(3 4.46784e-16 0)
(3 1.64246e-16 0)
(3 4.40083e-16 0)
(3 6.49345e-16 0)
(3 4.57837e-16 0)
(3 -2.36341e-17 0)
(3 9.84239e-17 0)
(3 1.00813e-15 0)
(3 1.13079e-15 0)
(3 1.56556e-15 0)
(3 -6.57675e-16 0)
(3 -7.1671e-16 0)
(3 1.18239e-15 0)
(3 1.53574e-15 0)
(3 1.538e-15 0)
(3 1.53575e-15 0)
(3 9.69408e-16 0)
(3 1.13837e-15 0)
(3 9.52078e-16 0)
(3 7.45706e-16 0)
(3 7.92268e-16 0)
(3 6.72338e-16 0)
(3 -2.06559e-16 0)
(3 -1.6707e-15 0)
(3 -1.80393e-15 0)
(3 -1.67167e-15 0)
(3 -7.83388e-16 0)
(3 -3.79574e-16 0)
(3 -4.68232e-16 0)
(3 -2.76237e-16 0)
(3 -5.38702e-16 0)
(3 -6.95231e-16 0)
(3 -1.30556e-15 0)
(3 -1.84638e-15 0)
(3 -1.69585e-15 0)
(3 -1.64511e-15 0)
(3 -1.94536e-15 0)
(3 -1.8389e-15 0)
(3 -1.78564e-15 0)
(3 -1.61995e-15 0)
(3.01002 0.00214272 0)
(1.24718 0.353989 0)
(0.827416 0.361871 0)
(0.804229 0.381573 0)
(0.775213 0.386141 0)
(0.749963 0.390522 0)
(0.727507 0.399244 0)
(0.705101 0.409985 0)
(0.678196 0.419944 0)
(0.646093 0.42616 0)
(0.610381 0.431346 0)
(0.576358 0.44401 0)
(0.543614 0.461234 0)
(0.509787 0.477277 0)
(0.477618 0.4982 0)
(0.445099 0.522016 0)
(0.413678 0.552909 0)
(0.379367 0.5896 0)
(0.341617 0.635508 0)
(0.297309 0.687755 0)
(0.243277 0.74015 0)
(0.175288 0.791962 0)
(0.0681978 0.83811 0)
(3 2.49589e-16 0)
(3 2.93263e-16 0)
(3 3.5442e-16 0)
(3 2.52095e-16 0)
(3 1.16753e-16 0)
(3 1.39406e-16 0)
(3 2.51885e-16 0)
(3 1.50492e-17 0)
(3 -4.77083e-16 0)
(3 -1.12491e-15 0)
(3 -1.45241e-15 0)
(3 -1.24745e-15 0)
(3 -6.7122e-16 0)
(3 -1.03392e-16 0)
(3 -2.8345e-16 0)
(3 -4.49171e-16 0)
(3 6.93167e-16 0)
(3 1.03618e-15 0)
(3 1.134e-15 0)
(3 1.61524e-15 0)
(3 1.26653e-15 0)
(3 1.16005e-15 0)
(3 1.14867e-15 0)
(3 9.95543e-16 0)
(3 3.10422e-16 0)
(3 -1.49382e-16 0)
(3 -1.78472e-15 0)
(3 -2.21093e-15 0)
(3 -2.06553e-15 0)
(3 -1.49398e-15 0)
(3 -6.1872e-16 0)
(3 -3.99055e-16 0)
(3 -6.35765e-16 0)
(3 -1.28495e-15 0)
(3 -1.41983e-15 0)
(3 -1.62595e-15 0)
(3 -1.41343e-15 0)
(3 -4.14696e-16 0)
(3 7.1236e-16 0)
(3 5.27722e-16 0)
(3 -1.46035e-16 0)
(3 -3.3877e-17 0)
(3 2.82936e-16 0)
(3 -6.7633e-16 0)
(3 -7.95348e-17 0)
(3 1.5897e-15 0)
(3 2.59734e-15 0)
(3 2.4411e-15 0)
(3 1.46011e-15 0)
(3 9.55513e-16 0)
(3 6.50013e-16 0)
(3 6.47233e-16 0)
(3 2.39493e-16 0)
(3 3.25898e-16 0)
(3 6.4817e-16 0)
(3 1.00237e-15 0)
(3 1.62964e-15 0)
(3 1.90859e-15 0)
(3 1.80204e-15 0)
(3 2.04451e-15 0)
(3 2.25797e-15 0)
(3 2.14212e-15 0)
(3 1.69031e-15 0)
(3 8.28999e-16 0)
(3 -3.48451e-16 0)
(3 -1.32457e-15 0)
(3 -2.65272e-15 0)
(3 -1.82629e-15 0)
(3 -1.44116e-15 0)
(3 -1.46471e-15 0)
(3 -9.10214e-16 0)
(3 -3.79716e-16 0)
(3 1.25414e-16 0)
(3.00011 6.72524e-08 0)
(1.47787 0.375324 0)
(0.817175 0.379358 0)
(0.776117 0.389245 0)
(0.755471 0.396375 0)
(0.736166 0.402552 0)
(0.719525 0.413984 0)
(0.703815 0.42985 0)
(0.687589 0.446574 0)
(0.666041 0.458396 0)