/*--------------------------------*- C++ -*----------------------------------*\
  =========                 |
  \\      /  F ield         | OpenFOAM: The Open Source CFD Toolbox
   \\    /   O peration     | Website:  https://openfoam.org
    \\  /    A nd           | Version:  7
     \\/     M anipulation  |
\*---------------------------------------------------------------------------*/
FoamFile
{
    version     2.0;
    format      ascii;
    class       volScalarField;
    location    "3";
    object      rho;
}
// * * * * * * * * * * * * * * * * * * * * * * * * * * * * * * * * * * * * * //

dimensions      [1 -3 0 0 0 0 0];

internalField   nonuniform List<scalar> 
4128
(
2.07781
2.0757
2.07474
2.06964
2.0629
2.05679
2.04534
2.02921
2.0264
2.0235
2.01548
2.01513
2.02015
2.03649
2.06397
2.09875
2.14014
2.18147
2.22663
2.27919
2.32276
2.3577
2.3849
2.38999
2.38788
2.38158
2.37097
2.35936
2.3482
2.33549
2.33192
2.3343
2.33994
2.33766
2.33133
2.32096
2.30903
2.30232
2.29862
2.2941
2.28834
2.28497
2.28124
2.27325
2.26076
2.24514
2.23349
2.22481
2.21855
2.21426
2.21042
2.20684
2.20008
2.18756
2.16886
2.1514
2.13869
2.1325
2.12953
2.13008
2.14367
2.14999
2.1474
2.14188
2.1333
2.1157
2.08553
2.06337
2.05582
2.05394
2.05565
2.07307
2.12993
2.24135
2.40157
2.56679
2.71747
2.82371
2.90306
2.95753
2.97671
2.98567
2.98556
2.9702
2.9597
2.95925
2.96212
2.96339
2.96543
2.97103
2.97322
2.9707
2.96529
2.95378
2.93496
2.9084
2.88222
2.868
2.86345
2.86311
2.86827
2.88891
2.91702
2.9224
2.91616
2.90578
2.88611
2.85808
2.83423
2.82268
2.81884
2.818
2.81926
2.81944
2.82332
2.8335
2.83761
2.8353
2.83116
2.82219
2.80125
2.77257
2.7563
2.75124
2.74925
2.74551
2.7386
2.72483
2.70453
2.10666
2.10483
2.09847
2.09072
2.08315
2.07338
2.05996
2.0472
2.03869
2.03207
2.02527
2.01837
2.009
1.99868
1.99365
1.99497
2.00083
2.01543
2.04225
2.08191
2.13403
2.18699
2.23491
2.26968
2.29326
2.30974
2.32385
2.33619
2.33456
2.3306
2.33501
2.34422
2.34795
2.34389
2.33521
2.31992
2.30962
2.30574
2.30473
2.30756
2.30568
2.30239
2.29627
2.28164
2.25987
2.23936
2.2253
2.21987
2.21822
2.21914
2.22142
2.21962
2.21408
2.20455
2.18541
2.15574
2.13366
2.12614
2.1228
2.12094
2.12999
2.14907
2.14951
2.14538
2.13939
2.127
2.09948
2.0689
2.05531
2.05013
2.04747
2.04632
2.05047
2.06883
2.10837
2.17543
2.28904
2.42997
2.57065
2.70064
2.80516
2.88904
2.94016
2.95216
2.9697
2.9853
2.98207
2.96965
2.95171
2.94274
2.9379
2.93733
2.93969
2.94035
2.93639
2.92721
2.91611
2.8996
2.88007
2.87042
2.87042
2.8746
2.88238
2.89653
2.90974
2.90855
2.90057
2.88732
2.86609
2.84249
2.82506
2.81531
2.81068
2.8088
2.80831
2.81184
2.82167
2.82828
2.82545
2.81961
2.80986
2.78789
2.75864
2.74089
2.7332
2.72862
2.72354
2.71534
2.70867
2.13757
2.13113
2.12306
2.11464
2.10526
2.09285
2.08088
2.0744
2.06801
2.06076
2.05212
2.04028
2.02448
2.00279
1.98942
1.98794
1.98613
1.98395
1.98335
1.9864
1.99876
2.01665
2.03993
2.06661
2.09768
2.13412
2.17246
2.21402
2.25451
2.28855
2.30765
2.32135
2.32707
2.32396
2.31269
2.31082
2.30897
2.3059
2.30415
2.31031
2.31807
2.31625
2.30921
2.29342
2.26655
2.24054
2.2276
2.22243
2.2203
2.2231
2.22722
2.2246
2.21895
2.21028
2.19446
2.16446
2.135
2.12608
2.12285
2.12093
2.12433
2.14104
2.14682
2.1431
2.13874
2.13037
2.11115
2.08347
2.06306
2.05334
2.04742
2.04379
2.04216
2.0423
2.04722
2.05674
2.07286
2.10237
2.16652
2.28805
2.43253
2.5791
2.70828
2.81907
2.9028
2.95499
2.9794
2.98201
2.96787
2.9472
2.92861
2.91179
2.90672
2.90748
2.91767
2.92876
2.93022
2.92998
2.9223
2.90166
2.87829
2.87192
2.87047
2.87049
2.87824
2.89231
2.89757
2.89331
2.88319
2.86657
2.84036
2.81564
2.80382
2.80002
2.79784
2.79661
2.79843
2.8073
2.815
2.81409
2.80946
2.79891
2.77437
2.74344
2.72763
2.7203
2.71536
2.71282
2.71459
2.16415
2.15521
2.14691
2.13763
2.12391
2.1114
2.10535
2.10076
2.09816
2.09354
2.08604
2.07526
2.05696
2.02798
2.00322
1.9934
1.98716
1.98205
1.98044
1.98145
1.98299
1.9831
1.97947
1.97443
1.97637
1.9829
1.99771
2.02596
2.06979
2.12569
2.17341
2.20223
2.22282
2.2421
2.25817
2.268
2.27232
2.27414
2.2839
2.30675
2.32078
2.32017
2.31291
2.2984
2.27806
2.25633
2.24201
2.2307
2.22638
2.22612
2.22783
2.22447
2.21863
2.21041
2.19719
2.17736
2.15247
2.13563
2.12955
2.12682
2.12665
2.13463
2.14079
2.13665
2.13094
2.12504
2.11474
2.09572
2.07625
2.06547
2.05776
2.04983
2.04223
2.03595
2.0331
2.03114
2.03308
2.04283
2.04678
2.05921
2.09848
2.18989
2.33379
2.48506
2.62921
2.75531
2.86496
2.92821
2.94957
2.95908
2.94711
2.91471
2.90411
2.90043
2.9011
2.91073
2.9325
2.93916
2.9353
2.9234
2.9005
2.87333
2.86434
2.86302
2.86327
2.87041
2.87882
2.88157
2.87959
2.87184
2.8549
2.82727
2.80071
2.78868
2.7843
2.78166
2.78057
2.78434
2.7956
2.80301
2.80346
2.79963
2.7884
2.76064
2.72937
2.71836
2.71613
2.7169
2.72801
2.18662
2.17641
2.16555
2.15267
2.13826
2.12946
2.12413
2.12076
2.12076
2.11832
2.11165
2.10325
2.08924
2.06378
2.03535
2.01889
2.01021
2.00407
1.99934
1.99304
1.98606
1.98028
1.97455
1.96504
1.95777
1.95575
1.95517
1.95853
1.96709
1.97694
1.99455
2.02247
2.04686
2.07224
2.10773
2.14117
2.17056
2.19794
2.22211
2.24643
2.26873
2.28394
2.28979
2.29071
2.2811
2.26047
2.25222
2.24459
2.23959
2.23514
2.22932
2.22242
2.21599
2.20803
2.19686
2.18296
2.16855
2.15393
2.14188
2.13597
2.13361
2.1332
2.13554
2.1325
2.12738
2.12162
2.11371
2.10203
2.08829
2.07822
2.0698
2.05992
2.0473
2.03326
2.02437
2.0204
2.01773
2.02011
2.03167
2.04167
2.04011
2.03939
2.06029
2.11167
2.22042
2.36157
2.51542
2.65522
2.77411
2.87101
2.90259
2.91474
2.92076
2.90856
2.90282
2.90705
2.9104
2.9166
2.92294
2.9201
2.908
2.88494
2.86401
2.85853
2.85836
2.86328
2.87246
2.87197
2.86847
2.86327
2.8546
2.8341
2.80325
2.78318
2.77485
2.77166
2.77035
2.77176
2.78326
2.79871
2.79949
2.79669
2.79185
2.77758
2.75061
2.72893
2.72392
2.72466
2.72799
2.21281
2.19869
2.18284
2.16439
2.1513
2.14507
2.13989
2.13695
2.13844
2.138
2.13131
2.1232
2.11221
2.09265
2.06672
2.05049
2.04206
2.03378
2.0243
2.01445
2.00504
1.99594
1.98519
1.96924
1.95784
1.95274
1.95065
1.95197
1.9554
1.96087
1.95958
1.95395
1.94622
1.93881
1.94395
1.96215
1.99394
2.03675
2.0793
2.11772
2.15603
2.18551
2.20518
2.22745
2.24281
2.24389
2.24496
2.24876
2.24921
2.24425
2.2353
2.22335
2.21091
2.20148
2.19252
2.18402
2.17353
2.16248
2.15239
2.14355
2.13697
2.13189
2.12694
2.12408
2.12282
2.12045
2.11554
2.10888
2.10051
2.09157
2.08147
2.06955
2.05387
2.03413
2.01955
2.01445
2.01153
2.00947
2.01608
2.03418
2.03406
2.03378
2.02772
2.00972
2.00388
2.02211
2.08886
2.22374
2.37542
2.54813
2.68531
2.79447
2.86341
2.8874
2.90261
2.91623
2.91079
2.90906
2.90734
2.89996
2.89125
2.88227
2.86808
2.85702
2.85577
2.8594
2.86465
2.86585
2.8633
2.85866
2.85046
2.83348
2.80518
2.78105
2.7705
2.76587
2.76409
2.76544
2.77694
2.79094
2.7948
2.79264
2.78815
2.78311
2.7731
2.75213
2.73137
2.72519
2.72086
2.24397
2.22557
2.1981
2.17729
2.16764
2.16121
2.15643
2.15375
2.1531
2.14982
2.14369
2.13705
2.12882
2.11432
2.09526
2.0831
2.07341
2.06221
2.05012
2.0384
2.02689
2.01416
1.99881
1.98345
1.9754
1.97014
1.96531
1.96148
1.95853
1.9579
1.9578
1.95501
1.95081
1.94351
1.92361
1.90408
1.89847
1.90126
1.91308
1.93611
1.97103
2.01354
2.05115
2.08667
2.12375
2.15709
2.18967
2.21789
2.22816
2.23068
2.22765
2.2131
2.19761
2.19381
2.19263
2.18439
2.17514
2.16928
2.16347
2.15606
2.14589
2.13246
2.11698
2.10905
2.10753
2.10959
2.11484
2.11141
2.10761
2.10215
2.09307
2.07987
2.06183
2.03834
2.01968
2.01286
2.00963
2.00697
2.00628
2.01695
2.0327
2.03184
2.02677
2.01721
1.99397
1.96064
1.95646
1.97052
2.01584
2.12212
2.28824
2.45856
2.60951
2.72421
2.8206
2.87599
2.89943
2.90667
2.90351
2.88909
2.88187
2.8748
2.86525
2.85792
2.85053
2.84745
2.84917
2.85392
2.85598
2.85337
2.84697
2.83344
2.80892
2.78484
2.77053
2.76343
2.76104
2.76362
2.77392
2.78474
2.79313
2.79467
2.79227
2.78851
2.78125
2.76752
2.74443
2.72563
2.71487
2.27489
2.25438
2.22337
2.20076
2.18951
2.18184
2.17618
2.17285
2.16915
2.16226
2.15566
2.14914
2.14054
2.1295
2.12006
2.11246
2.10349
2.09214
2.07835
2.06359
2.04895
2.03156
2.01111
1.99711
1.98969
1.98403
1.98045
1.9796
1.97574
1.97035
1.96567
1.96079
1.95472
1.9468
1.9374
1.92494
1.91025
1.89406
1.87959
1.87138
1.87004
1.87572
1.89174
1.91776
1.95282
1.99704
2.04386
2.09301
2.13053
2.15313
2.17115
2.17335
2.16898
2.16695
2.16713
2.1718
2.17494
2.17757
2.17629
2.16807
2.15499
2.13807
2.11788
2.09886
2.091
2.08933
2.09339
2.10651
2.10865
2.10507
2.09862
2.0877
2.07054
2.04818
2.02651
2.0146
2.0103
2.00726
2.00487
2.00454
2.01272
2.01819
2.01618
2.01392
2.00367
1.97786
1.95055
1.94356
1.94291
1.95216
1.99029
2.06656
2.20557
2.36107
2.51371
2.64452
2.7459
2.82696
2.87097
2.88314
2.88831
2.88485
2.87158
2.85938
2.84522
2.83227
2.82303
2.82184
2.82824
2.83832
2.83938
2.8334
2.82161
2.80523
2.78763
2.77348
2.7663
2.76458
2.76311
2.76291
2.76576
2.77129
2.77769
2.77923
2.77621
2.76957
2.75697
2.73669
2.71419
2.29956
2.27851
2.24945
2.22973
2.21764
2.20893
2.20141
2.19209
2.1833
2.17559
2.16752
2.15919
2.14951
2.14293
2.1386
2.13384
2.12757
2.11974
2.10869
2.09123
2.06767
2.04578
2.02896
2.0184
2.01142
2.00458
1.99857
1.99386
1.98877
1.98304
1.97675
1.97098
1.96558
1.95995
1.95322
1.94412
1.93342
1.91925
1.89712
1.87446
1.86134
1.85492
1.8535
1.85442
1.85888
1.8701
1.89129
1.92311
1.96187
1.99229
2.01489
2.04083
2.06724
2.08541
2.10374
2.13053
2.16105
2.17366
2.17427
2.16837
2.15859
2.14458
2.12376
2.10241
2.08748
2.0823
2.08064
2.09094
2.10766
2.10551
2.09991
2.09101
2.07585
2.05478
2.03553
2.02182
2.01331
2.00871
2.00558
2.00365
2.00455
2.00878
2.00676
2.00308
1.99954
1.98976
1.96846
1.94482
1.93886
1.93816
1.93863
1.94387
1.96359
2.00899
2.09088
2.22898
2.37755
2.52876
2.66334
2.76559
2.83185
2.86247
2.87568
2.87804
2.86483
2.84395
2.81841
2.80003
2.79633
2.79923
2.81065
2.82258
2.82339
2.8209
2.81486
2.80305
2.78715
2.77137
2.76058
2.75595
2.7535
2.75195
2.75374
2.76113
2.76448
2.76233
2.75717
2.74789
2.7277
2.32052
2.29998
2.27493
2.25967
2.25001
2.23973
2.22752
2.21399
2.20034
2.1895
2.17974
2.16724
2.16002
2.15503
2.1518
2.14938
2.14536
2.14041
2.13315
2.11986
2.09372
2.06059
2.04273
2.03339
2.02658
2.02241
2.01759
2.01024
2.00267
1.99625
1.98956
1.98134
1.97435
1.96829
1.96266
1.95758
1.95259
1.94554
1.93161
1.90403
1.86931
1.85211
1.84834
1.84808
1.84839
1.84947
1.85258
1.8566
1.85881
1.86385
1.87106
1.87921
1.89607
1.927
1.96342
2.00294
2.05222
2.1098
2.1403
2.14576
2.14447
2.14001
2.12654
2.10754
2.09169
2.08232
2.07974
2.08219
2.0985
2.10911
2.10462
2.09479
2.07857
2.05735
2.03848
2.02855
2.02173
2.01403
2.00756
2.00478
2.00312
2.00341
2.00155
1.9968
1.99181
1.98806
1.97956
1.96325
1.94536
1.93483
1.93207
1.93142
1.93057
1.92869
1.93255
1.95024
1.99602
2.10589
2.26384
2.4345
2.58288
2.71055
2.8148
2.84334
2.85674
2.85634
2.83592
2.80647
2.79153
2.78307
2.78307
2.79216
2.81434
2.82395
2.82146
2.81395
2.79989
2.78322
2.76468
2.74894
2.74085
2.73797
2.73639
2.73761
2.74513
2.75035
2.7491
2.74771
2.738
2.33904
2.31631
2.29905
2.29045
2.28236
2.27212
2.25829
2.24138
2.22321
2.20386
2.18697
2.17786
2.17216
2.16719
2.16353
2.16194
2.16008
2.15475
2.1478
2.13745
2.11764
2.08983
2.0679
2.05614
2.04847
2.04128
2.03312
2.02442
2.01412
2.00276
1.99598
1.99051
1.98531
1.98133
1.97798
1.97435
1.97071
1.96544
1.95787
1.9428
1.90959
1.86783
1.85236
1.84811
1.84588
1.84553
1.84643
1.84781
1.8475
1.84504
1.83979
1.82831
1.81755
1.81788
1.82718
1.8481
1.87807
1.91876
1.9646
2.00534
2.03838
2.06282
2.08006
2.0859
2.08553
2.0789
2.07625
2.07843
2.08188
2.08765
2.08866
2.08544
2.07808
2.06093
2.04255
2.03296
2.02768
2.02177
2.01438
2.00652
2.00294
2.00046
1.99597
1.99111
1.98637
1.9818
1.97809
1.97249
1.95871
1.93838
1.92465
1.92093
1.9203
1.92002
1.91873
1.91147
1.90453
1.91206
1.94485
2.02632
2.18197
2.35435
2.53602
2.64689
2.7405
2.79653
2.80416
2.80842
2.80313
2.7807
2.77987
2.79081
2.80402
2.8088
2.80697
2.80153
2.79538
2.78264
2.76412
2.74529
2.7338
2.73013
2.7284
2.72748
2.73224
2.74368
2.75023
2.75026
2.741
2.35341
2.33248
2.32389
2.3174
2.30989
2.3011
2.29049
2.27523
2.25138
2.22114
2.19903
2.19014
2.18415
2.17918
2.17619
2.17617
2.17363
2.16708
2.16002
2.1501
2.13144
2.10657
2.09149
2.0835
2.07582
2.06657
2.05523
2.04304
2.03147
2.01877
2.00433
1.99492
1.98932
1.98446
1.9814
1.98238
1.98153
1.97706
1.97176
1.96424
1.9491
1.91785
1.87907
1.86187
1.8555
1.85074
1.84699
1.84521
1.84344
1.84047
1.83686
1.83138
1.82273
1.80711
1.79544
1.79231
1.79293
1.80006
1.81532
1.83711
1.86553
1.89931
1.93524
1.97055
2.00054
2.02684
2.0492
2.05205
2.05082
2.0571
2.06304
2.0624
2.06081
2.05801
2.04756
2.03917
2.03304
2.02591
2.01904
2.01181
2.00449
1.99727
1.9904
1.98622
1.98328
1.98074
1.9771
1.97254
1.96486
1.94829
1.92571
1.9102
1.90696
1.90707
1.9104
1.9103
1.90613
1.89784
1.89022
1.8929
1.91388
1.96936
2.08601
2.25744
2.42528
2.56104
2.64264
2.71788
2.75941
2.76228
2.77458
2.79546
2.80381
2.80752
2.80659
2.80011
2.78716
2.77079
2.75205
2.73679
2.72692
2.72348
2.72262
2.72243
2.72898
2.74337
2.74556
2.74228
2.73272
2.36251
2.35093
2.34447
2.33861
2.33334
2.32718
2.31858
2.3054
2.28143
2.24493
2.21877
2.20772
2.20021
2.19454
2.19184
2.19026
2.18416
2.1773
2.17029
2.16012
2.14064
2.11861
2.11001
2.10453
2.09876
2.09189
2.08204
2.06644
2.04548
2.02559
2.01055
2.00271
1.99782
1.99364
1.98982
1.986
1.98295
1.98123
1.97795
1.97298
1.96606
1.951
1.92076
1.88962
1.87451
1.86589
1.85873
1.85255
1.84632
1.84049
1.83625
1.83351
1.82941
1.82104
1.80587
1.79213
1.7852
1.77949
1.77731
1.77748
1.78073
1.78974
1.80355
1.82203
1.84797
1.87611
1.90374
1.93036
1.95449
1.97738
1.99893
2.01139
2.02614
2.03802
2.03811
2.03003
2.02605
2.0212
2.01334
2.0099
2.00521
1.99528
1.98578
1.98268
1.98132
1.98197
1.97973
1.9746
1.96808
1.9563
1.93419
1.91145
1.89854
1.89543
1.89501
1.90146
1.9052
1.90273
1.89827
1.88724
1.87358
1.87125
1.88109
1.92155
1.99786
2.13807
2.30862
2.46681
2.56791
2.65481
2.71952
2.75818
2.79486
2.80987
2.81099
2.80586
2.79397
2.77677
2.75067
2.72944
2.71966
2.71541
2.71519
2.71876
2.72891
2.74172
2.74094
2.73716
2.72855
2.37467
2.36657
2.36047
2.35565
2.35294
2.34837
2.34026
2.32933
2.31071
2.27874
2.24647
2.23016
2.22051
2.21276
2.20753
2.2023
2.19538
2.1881
2.17995
2.16861
2.15141
2.13573
2.12816
2.12268
2.1181
2.1136
2.10723
2.09661
2.07675
2.04515
2.02109
2.01081
2.0038
1.9979
1.99304
1.99046
1.99023
1.98844
1.98505
1.98093
1.97578
1.96712
1.95258
1.92721
1.89734
1.87979
1.87056
1.86315
1.85612
1.84938
1.84394
1.84
1.8367
1.83252
1.82506
1.81281
1.79447
1.77974
1.77435
1.77171
1.76838
1.76579
1.76569
1.76755
1.76827
1.77011
1.77618
1.78662
1.80404
1.82908
1.8638
1.89733
1.92593
1.96756
2.00119
2.00671
2.01296
2.01277
2.00312
1.99484
1.98581
1.98193
1.98094
1.97868
1.9785
1.98362
1.98308
1.97934
1.97422
1.96553
1.94892
1.92263
1.90033
1.89107
1.88853
1.88818
1.89765
1.90452
1.90188
1.89512
1.88345
1.86547
1.85447
1.85466
1.86015
1.88374
1.94203
2.04558
2.21115
2.38682
2.51853
2.59964
2.68681
2.7432
2.77864
2.79029
2.79343
2.78806
2.76665
2.74137
2.72441
2.71309
2.70755
2.70581
2.7071
2.71644
2.72744
2.73322
2.72787
2.38999
2.38265
2.37629
2.37114
2.36803
2.36242
2.35461
2.34582
2.33267
2.31033
2.28121
2.26019
2.24866
2.23867
2.22804
2.21782
2.20902
2.20042
2.18966
2.17345
2.15533
2.14665
2.1412
2.13648
2.13317
2.13002
2.12419
2.11566
2.10153
2.07593
2.04583
2.02779
2.01831
2.01102
2.0045
1.99889
1.99407
1.98924
1.98451
1.98031
1.9771
1.97418
1.96831
1.95641
1.93634
1.90823
1.88614
1.87542
1.86801
1.86051
1.8527
1.84663
1.84201
1.83878
1.83598
1.83074
1.82093
1.80328
1.784
1.7738
1.76763
1.76353
1.76039
1.75769
1.75614
1.75648
1.75291
1.74084
1.72775
1.72666
1.73473
1.75473
1.78097
1.81362
1.85335
1.89628
1.93945
1.96254
1.96598
1.96653
1.96257
1.96019
1.96227
1.9639
1.96569
1.97297
1.98429
1.98501
1.98029
1.9715
1.95934
1.94025
1.91326
1.89343
1.88679
1.88478
1.88536
1.89616
1.90007
1.89664
1.89003
1.875
1.8548
1.84419
1.84178
1.84141
1.84348
1.85586
1.89892
1.97993
2.10995
2.27955
2.4507
2.54727
2.6239
2.69986
2.74632
2.75803
2.75659
2.75275
2.74209
2.72258
2.70901
2.70394
2.70304
2.69954
2.69691
2.7001
2.70632
2.40799
2.39974
2.39269
2.38674
2.38107
2.37368
2.36594
2.3577
2.34726
2.33078
2.30998
2.29409
2.28103
2.26642
2.25001
2.2348
2.22303
2.21341
2.2022
2.18503
2.16691
2.15828
2.15259
2.14777
2.14515
2.14309
2.13738
2.13013
2.11969
2.1016
2.07591
2.05197
2.0345
2.02314
2.01528
2.00848
2.00267
1.99761
1.9921
1.98537
1.97761
1.97129
1.96703
1.9632
1.95531
1.93841
1.91066
1.888
1.87771
1.87079
1.86392
1.85758
1.8526
1.84817
1.84381
1.83938
1.83417
1.82436
1.8051
1.78699
1.77763
1.77018
1.7628
1.7585
1.75527
1.7526
1.74931
1.74504
1.73365
1.71075
1.69926
1.69858
1.70138
1.7097
1.72307
1.74554
1.77663
1.81411
1.84652
1.87113
1.89259
1.90454
1.91737
1.93147
1.93843
1.94592
1.95805
1.96922
1.97086
1.96862
1.96135
1.94813
1.92968
1.90686
1.88963
1.88313
1.88209
1.88447
1.89417
1.89454
1.89076
1.87988
1.85915
1.83986
1.83179
1.82908
1.82656
1.82682
1.82947
1.83532
1.85636
1.91145
2.00309
2.15878
2.32386
2.49492
2.58295
2.64807
2.70146
2.72132
2.7232
2.72415
2.72238
2.7165
2.70845
2.69839
2.68747
2.68389
2.68335
2.42937
2.41894
2.41086
2.40294
2.39457
2.3862
2.37803
2.36926
2.35865
2.34506
2.33155
2.32125
2.31096
2.29842
2.28134
2.25889
2.23703
2.22067
2.20719
2.19454
2.18168
2.17245
2.16591
2.16062
2.1564
2.1512
2.14531
2.13922
2.13157
2.11917
2.10103
2.08204
2.06488
2.04759
2.03084
2.01791
2.00845
2.00115
1.99544
1.99034
1.98443
1.97693
1.97148
1.96713
1.96284
1.9555
1.93868
1.90969
1.88697
1.876
1.86905
1.86404
1.8599
1.85657
1.85357
1.84969
1.84498
1.83811
1.82514
1.80433
1.78857
1.78072
1.7748
1.76921
1.76396
1.7599
1.75657
1.75216
1.74164
1.72042
1.69963
1.69301
1.69066
1.68825
1.68665
1.6874
1.69147
1.70094
1.7182
1.73691
1.75706
1.7808
1.80765
1.83686
1.8646
1.88839
1.90711
1.92361
1.9307
1.93483
1.93885
1.93912
1.93191
1.91492
1.89771
1.88624
1.87977
1.87894
1.88117
1.88131
1.87799
1.87213
1.86102
1.84097
1.8272
1.82389
1.8204
1.81683
1.81477
1.81522
1.81531
1.81208
1.81641
1.84616
1.92249
2.05807
2.2391
2.41182
2.56055
2.60449
2.64687
2.68206
2.69722
2.70389
2.70823
2.70441
2.68865
2.68113
2.67953
2.4549
2.44284
2.43198
2.42098
2.41006
2.39968
2.39009
2.38027
2.36857
2.35645
2.34783
2.34045
2.33279
2.32427
2.31311
2.29578
2.26869
2.23769
2.21401
2.19902
2.19115
2.18447
2.17831
2.17284
2.16657
2.15969
2.15311
2.14637
2.13878
2.12906
2.11606
2.10229
2.08954
2.07608
2.05954
2.04083
2.02463
2.01237
2.00237
1.99409
1.98793
1.98282
1.97799
1.97327
1.96876
1.96407
1.95562
1.93753
1.91089
1.89181
1.8819
1.87407
1.86733
1.86221
1.8577
1.85384
1.85141
1.84816
1.84278
1.83109
1.81074
1.79388
1.78527
1.77911
1.77253
1.76508
1.75753
1.75139
1.74601
1.736
1.71381
1.69468
1.68881
1.68549
1.68315
1.68108
1.67807
1.67714
1.6782
1.67859
1.67791
1.68014
1.68455
1.70192
1.73291
1.76997
1.80044
1.82766
1.85715
1.87565
1.89062
1.90281
1.90292
1.89831
1.89303
1.88112
1.87487
1.87466
1.87515
1.87404
1.87058
1.8642
1.8546
1.84169
1.83056
1.82556
1.82118
1.81631
1.8134
1.8113
1.8081
1.80451
1.79746
1.7847
1.78658
1.80762
1.87485
1.98558
2.156
2.33643
2.51433
2.58558
2.6085
2.63994
2.66394
2.67286
2.6768
2.68019
2.67836
2.48175
2.46931
2.45667
2.44286
2.42856
2.41457
2.40155
2.39046
2.37808
2.36854
2.36191
2.35561
2.34966
2.34277
2.33476
2.32413
2.30464
2.26646
2.22614
2.21075
2.20384
2.19796
2.19271
2.18704
2.18023
2.17261
2.16421
2.15454
2.1439
2.13407
2.12511
2.11657
2.10804
2.09824
2.0848
2.06534
2.04264
2.02458
2.01303
2.00538
1.99877
1.99086
1.9833
1.97746
1.97217
1.96694
1.96192
1.95505
1.93767
1.90954
1.89148
1.88251
1.8768
1.87172
1.86644
1.86204
1.85812
1.85381
1.84887
1.84171
1.82733
1.80748
1.79477
1.7882
1.78264
1.77577
1.76775
1.7604
1.75382
1.74652
1.73375
1.71202
1.69604
1.68996
1.68578
1.68086
1.67575
1.67343
1.67243
1.66999
1.66824
1.66221
1.64691
1.63907
1.64098
1.65089
1.66994
1.69445
1.72552
1.76356
1.79606
1.82983
1.8409
1.84329
1.85348
1.85938
1.85953
1.86082
1.86279
1.86738
1.86736
1.8641
1.85812
1.84981
1.8392
1.83141
1.8254
1.81903
1.81532
1.81228
1.80807
1.80224
1.79448
1.78453
1.77611
1.77309
1.77509
1.78778
1.83363
1.93118
2.07795
2.24338
2.40098
2.53997
2.57265
2.59906
2.62502
2.63705
2.65301
2.5063
2.49526
2.48348
2.46931
2.45228
2.43472
2.41619
2.39622
2.38574
2.379
2.37255
2.36723
2.36327
2.35856
2.35155
2.3427
2.32895
2.30026
2.25615
2.22771
2.21675
2.20971
2.20375
2.19795
2.19168
2.18492
2.1773
2.1675
2.15352
2.14086
2.13474
2.12956
2.12422
2.11782
2.10869
2.09422
2.072
2.0458
2.02398
2.00941
2.00033
1.99374
1.98839
1.98371
1.98004
1.9779
1.97517
1.97082
1.9608
1.93724
1.90588
1.88805
1.87949
1.87418
1.87077
1.86948
1.86777
1.86419
1.85983
1.85332
1.84163
1.82207
1.80156
1.79064
1.785
1.78109
1.7775
1.77326
1.76764
1.7602
1.74937
1.73221
1.71216
1.69851
1.6907
1.68441
1.67994
1.67621
1.67245
1.66883
1.66549
1.66028
1.6487
1.63333
1.62415
1.62181
1.622
1.62506
1.6327
1.64615
1.66549
1.69069
1.72621
1.75398
1.76933
1.78822
1.80367
1.81312
1.82604
1.84381
1.8525
1.85601
1.8566
1.85421
1.84319
1.83627
1.83035
1.82348
1.8185
1.81528
1.81029
1.8031
1.79542
1.78551
1.77184
1.76406
1.76319
1.76163
1.75991
1.76809
1.79513
1.86644
1.97759
2.12918
2.28269
2.43996
2.54926
2.56193
2.5954
2.5297
2.52016
2.51004
2.4982
2.48287
2.46064
2.43061
2.40571
2.39496
2.38774
2.38071
2.37445
2.3714
2.37103
2.36576
2.35806
2.34781
2.32906
2.29396
2.25562
2.23606
2.22602
2.218
2.21068
2.2033
2.19476
2.18467
2.17354
2.16164
2.15143
2.14484
2.13929
2.13422
2.12908
2.12287
2.11334
2.09666
2.07052
2.04295
2.02384
2.01229
2.00409
1.99758
1.99245
1.98779
1.98311
1.97834
1.97385
1.96877
1.95783
1.93367
1.90875
1.89531
1.88584
1.87749
1.8721
1.86801
1.86409
1.86093
1.8575
1.85187
1.8411
1.82399
1.80715
1.7962
1.78853
1.78146
1.77481
1.76859
1.76144
1.7525
1.74214
1.72923
1.71597
1.70533
1.69718
1.69089
1.68582
1.6808
1.67484
1.66748
1.65966
1.65076
1.63648
1.62232
1.61513
1.61312
1.61225
1.61251
1.61222
1.61318
1.6158
1.62161
1.63554
1.6496
1.66223
1.68129
1.70264
1.72652
1.75698
1.7835
1.80792
1.83251
1.83584
1.82957
1.8247
1.82555
1.82361
1.81652
1.80593
1.79716
1.78973
1.78208
1.77265
1.76178
1.75477
1.75146
1.74833
1.7459
1.74659
1.74831
1.74931
1.76183
1.80191
1.88733
2.01954
2.18422
2.34618
2.51321
2.55024
2.54248
2.53472
2.52602
2.51395
2.49239
2.45495
2.42137
2.40802
2.39994
2.39225
2.38495
2.37878
2.37489
2.37172
2.36608
2.35904
2.34824
2.32827
2.29701
2.26333
2.2419
2.23105
2.22355
2.21682
2.20974
2.19966
2.18256
2.16544
2.15783
2.15278
2.14843
2.1438
2.13836
2.13247
2.12542
2.11438
2.09285
2.06056
2.03541
2.02158
2.01291
2.00677
2.00122
1.99528
1.9902
1.98589
1.98156
1.97684
1.97019
1.95561
1.92944
1.90766
1.89607
1.88721
1.87941
1.87392
1.86988
1.86558
1.85991
1.854
1.84847
1.84044
1.82738
1.81162
1.79741
1.7866
1.77841
1.77173
1.76592
1.75991
1.75127
1.73849
1.72581
1.71691
1.70994
1.7031
1.69661
1.69063
1.68437
1.67666
1.66783
1.65756
1.64377
1.62754
1.61472
1.61009
1.60832
1.60669
1.60457
1.6031
1.60136
1.59924
1.59753
1.59446
1.58873
1.58898
1.59465
1.61091
1.6375
1.66894
1.69668
1.73043
1.75882
1.76911
1.7801
1.79499
1.79819
1.79492
1.78659
1.781
1.77775
1.77363
1.76854
1.76121
1.75265
1.74783
1.74547
1.74401
1.74437
1.74468
1.74217
1.73707
1.72581
1.72899
1.74971
1.8157
1.92927
2.18334
2.56571
2.56
2.55475
2.54728
2.53721
2.52053
2.48691
2.44399
2.42263
2.41267
2.40445
2.39706
2.39124
2.38453
2.37698
2.36891
2.36092
2.35349
2.3448
2.32873
2.30359
2.27631
2.25437
2.23843
2.22595
2.21573
2.20667
2.19526
2.18099
2.16904
2.16122
2.15531
2.1502
2.14709
2.14402
2.13899
2.13135
2.11531
2.08523
2.05183
2.03196
2.02024
2.01183
2.0062
2.00356
2.00357
2.00049
1.9959
1.9907
1.98458
1.9738
1.95588
1.93036
1.90687
1.89289
1.88324
1.87623
1.87214
1.86878
1.86589
1.86266
1.8584
1.85136
1.84141
1.82974
1.81582
1.80032
1.78717
1.77695
1.7682
1.76083
1.755
1.74882
1.73881
1.72397
1.71085
1.70279
1.69671
1.69102
1.68643
1.68263
1.67851
1.67267
1.66202
1.64376
1.62372
1.61442
1.61083
1.60738
1.60418
1.60123
1.59745
1.59348
1.58909
1.58397
1.5808
1.57359
1.56012
1.55274
1.55405
1.5637
1.58381
1.60832
1.64082
1.67817
1.70368
1.72865
1.75518
1.76327
1.75813
1.75889
1.7644
1.76608
1.76528
1.76211
1.75662
1.75126
1.74896
1.74728
1.74573
1.74379
1.74028
1.73465
1.72724
1.71848
1.70129
1.69711
1.70796
1.82154
2.57735
2.57239
2.57046
2.56464
2.55623
2.54459
2.52105
2.4794
2.44478
2.42858
2.41741
2.40788
2.39981
2.39271
2.38543
2.37785
2.36988
2.36149
2.35254
2.34191
2.32685
2.30721
2.28614
2.26635
2.24745
2.22794
2.2091
2.19728
2.19082
2.18365
2.17588
2.1694
2.16338
2.15702
2.15029
2.14341
2.13544
2.1233
2.10028
2.07024
2.04968
2.03846
2.02944
2.02018
2.01081
2.00288
1.99666
1.99097
1.9844
1.97833
1.97513
1.97023
1.95785
1.93808
1.91397
1.89382
1.88202
1.87577
1.87134
1.86674
1.86137
1.85664
1.85353
1.84944
1.84188
1.8308
1.81695
1.80113
1.78723
1.77738
1.77047
1.76377
1.7554
1.74441
1.72994
1.71525
1.70689
1.70267
1.69891
1.69444
1.69003
1.68551
1.6796
1.67057
1.65624
1.63829
1.62589
1.62017
1.61622
1.61227
1.60762
1.60233
1.59606
1.58862
1.58191
1.57702
1.57172
1.56301
1.5494
1.53739
1.53404
1.53487
1.53874
1.54641
1.56204
1.58147
1.60268
1.63074
1.66439
1.69226
1.70726
1.71891
1.73406
1.7464
1.75052
1.75097
1.74929
1.74872
1.74772
1.74611
1.74422
1.74128
1.73657
1.73065
1.72267
1.70891
1.68733
1.6772
1.68764
2.59114
2.58414
2.58018
2.57561
2.56848
2.55991
2.54445
2.51479
2.4778
2.45209
2.43699
2.42478
2.41347
2.40377
2.39532
2.38715
2.3788
2.37012
2.36105
2.35117
2.33988
2.3261
2.30845
2.28763
2.2663
2.24446
2.22172
2.20566
2.19701
2.19062
2.18531
2.17995
2.17373
2.16671
2.159
2.15082
2.14103
2.12687
2.10862
2.08863
2.06881
2.05286
2.04133
2.03125
2.01958
2.00838
2.00086
1.99472
1.98848
1.98134
1.97348
1.96768
1.96311
1.95491
1.9388
1.91566
1.89629
1.88715
1.88174
1.87588
1.86851
1.85924
1.8523
1.84817
1.84448
1.84009
1.83255
1.81967
1.8003
1.78146
1.76895
1.76079
1.75309
1.74383
1.73362
1.72317
1.7139
1.70814
1.70464
1.70181
1.69826
1.69324
1.68761
1.68041
1.66954
1.65229
1.63172
1.61837
1.61254
1.60917
1.606
1.60214
1.59689
1.59122
1.58644
1.5817
1.57579
1.56659
1.55214
1.53775
1.5282
1.52551
1.52478
1.52369
1.52314
1.52501
1.53026
1.53802
1.55198
1.57687
1.59638
1.60707
1.62602
1.65115
1.67398
1.6962
1.7111
1.71935
1.72013
1.71899
1.72011
1.72379
1.72601
1.72646
1.72327
1.7074
1.68185
1.67256
1.66758
2.6109
2.60122
2.59182
2.58316
2.57536
2.56692
2.55571
2.53767
2.51214
2.48452
2.45948
2.44041
2.42738
2.41727
2.40796
2.39889
2.39012
2.38088
2.37102
2.36224
2.35442
2.34541
2.33205
2.30898
2.27701
2.25095
2.2347
2.22281
2.21499
2.20798
2.20033
2.19228
2.18435
2.17615
2.16667
2.15518
2.14248
2.13045
2.1192
2.10662
2.09334
2.07876
2.0606
2.04307
2.03214
2.02405
2.01548
2.00655
1.99711
1.98759
1.97884
1.9726
1.96789
1.96298
1.95542
1.94001
1.91225
1.88728
1.87658
1.87144
1.8663
1.86023
1.85522
1.85095
1.84653
1.84222
1.83831
1.83148
1.81542
1.79161
1.77313
1.76289
1.75636
1.75077
1.74379
1.73324
1.72129
1.71282
1.70651
1.70063
1.69487
1.68921
1.68474
1.6815
1.67682
1.66577
1.64507
1.62527
1.61581
1.6111
1.60805
1.60636
1.60403
1.60098
1.59715
1.59215
1.58616
1.57785
1.56465
1.54564
1.5299
1.52346
1.5215
1.51981
1.51768
1.5159
1.51434
1.51347
1.51308
1.51382
1.51761
1.52134
1.52717
1.54393
1.5658
1.59032
1.61867
1.63949
1.65509
1.67183
1.69332
1.70583
1.7054
1.70293
1.6985
1.6879
1.67404
1.66325
1.65205
2.64112
2.62366
2.60849
2.59608
2.58529
2.57498
2.56392
2.55147
2.53676
2.51975
2.49864
2.47071
2.4422
2.42572
2.4167
2.4092
2.40095
2.39133
2.38215
2.37594
2.3703
2.36365
2.3541
2.33675
2.2993
2.2544
2.23758
2.23206
2.22711
2.22209
2.21586
2.20902
2.20172
2.1931
2.18216
2.16771
2.15013
2.13151
2.11547
2.10703
2.1018
2.09569
2.08645
2.07206
2.05043
2.02725
2.01272
2.00511
1.99908
1.99247
1.98534
1.97839
1.97292
1.96829
1.9634
1.95389
1.93041
1.89624
1.87733
1.8709
1.86684
1.86385
1.86113
1.85808
1.85412
1.8483
1.84147
1.83424
1.82406
1.80594
1.78518
1.77223
1.76507
1.75944
1.75266
1.743
1.73041
1.71808
1.70989
1.70415
1.69911
1.69475
1.69065
1.68553
1.6791
1.67126
1.65866
1.64094
1.62915
1.62286
1.61689
1.60956
1.60389
1.60047
1.59692
1.59253
1.58773
1.58282
1.57575
1.56134
1.54212
1.53135
1.52471
1.51898
1.51519
1.51261
1.51061
1.50934
1.50815
1.50633
1.5031
1.49479
1.47888
1.47261
1.47653
1.48702
1.50559
1.53273
1.56525
1.59492
1.63364
1.6711
1.67327
1.67292
1.67589
1.67376
1.67111
1.66516
1.64816
2.6717
2.6533
2.63279
2.6131
2.59587
2.58164
2.56882
2.55804
2.54967
2.54079
2.52842
2.50938
2.48162
2.45014
2.42581
2.41118
2.4014
2.39374
2.38728
2.38189
2.37908
2.37405
2.36591
2.35344
2.32625
2.2825
2.25274
2.24041
2.23248
2.2262
2.22155
2.21756
2.21262
2.20621
2.19561
2.18014
2.15961
2.13884
2.12489
2.1159
2.10866
2.10253
2.09648
2.08726
2.06746
2.03652
2.01547
2.00707
2.00186
1.99749
1.9934
1.98851
1.98197
1.97403
1.9655
1.95616
1.94205
1.91519
1.88795
1.87719
1.87191
1.86734
1.86372
1.86272
1.8606
1.85567
1.84998
1.84439
1.83619
1.81802
1.79198
1.77611
1.76781
1.76069
1.75266
1.74261
1.73407
1.72808
1.72226
1.71708
1.71205
1.70663
1.70052
1.69485
1.68992
1.68356
1.67188
1.65168
1.63127
1.61887
1.61068
1.60575
1.60251
1.59985
1.59783
1.59589
1.59325
1.59064
1.5864
1.57592
1.55307
1.53056
1.52224
1.51787
1.51414
1.51069
1.50792
1.507
1.50579
1.50347
1.50086
1.4943
1.47741
1.4565
1.45078
1.45067
1.45243
1.45897
1.472
1.4898
1.51508
1.54956
1.57393
1.59086
1.61347
1.6459
1.65554
1.6548
1.64406
2.69513
2.68005
2.65906
2.63478
2.61119
2.59017
2.57671
2.56791
2.56038
2.55324
2.54524
2.53341
2.51232
2.477
2.43851
2.41832
2.40937
2.40266
2.39694
2.39276
2.3861
2.3777
2.36805
2.35746
2.34216
2.3152
2.28678
2.26637
2.25135
2.24056
2.23253
2.22531
2.21883
2.21295
2.2046
2.18559
2.15976
2.14471
2.1373
2.13093
2.12414
2.11645
2.10766
2.09639
2.07812
2.04918
2.02456
2.01308
2.00574
1.99975
1.99502
1.99179
1.9882
1.98271
1.97569
1.96668
1.95321
1.92867
1.89988
1.88661
1.88129
1.87692
1.87244
1.86784
1.86415
1.86331
1.86182
1.85585
1.84704
1.83002
1.8036
1.78199
1.77077
1.76374
1.75826
1.75181
1.74216
1.73025
1.71973
1.71316
1.70845
1.70404
1.70011
1.69626
1.69231
1.68802
1.68113
1.6657
1.6402
1.62067
1.6111
1.6075
1.60481
1.60231
1.60016
1.59825
1.59626
1.59346
1.59032
1.58473
1.56616
1.5352
1.5222
1.51941
1.51715
1.51428
1.51065
1.50789
1.50529