/*--------------------------------*- C++ -*----------------------------------*\
  =========                 |
  \\      /  F ield         | OpenFOAM: The Open Source CFD Toolbox
   \\    /   O peration     | Website:  https://openfoam.org
    \\  /    A nd           | Version:  7
     \\/     M anipulation  |
\*---------------------------------------------------------------------------*/
FoamFile
{
    version     2.0;
    format      ascii;
    class       volScalarField;
    location    "2.3";
    object      T;
}
// * * * * * * * * * * * * * * * * * * * * * * * * * * * * * * * * * * * * * //

dimensions      [0 0 0 1 0 0 0];

internalField   nonuniform List<scalar> 
16192
(
1.45187
1.45167
1.45141
1.45059
1.44915
1.44867
1.44868
1.44874
1.44878
1.44869
1.44865
1.4486
1.4484
1.44803
1.44738
1.44634
1.44544
1.44496
1.44461
1.44426
1.44388
1.44351
1.44305
1.44229
1.44159
1.44135
1.44119
1.44114
1.44102
1.4408
1.44074
1.44069
1.44057
1.44029
1.43954
1.43838
1.43782
1.43777
1.43782
1.43812
1.43856
1.43872
1.4388
1.43903
1.43927
1.4392
1.43876
1.43886
1.4394
1.44003
1.44125
1.44257
1.44286
1.44282
1.44255
1.44196
1.44074
1.43876
1.43753
1.43721
1.43706
1.43743
1.43857
1.43887
1.43856
1.43806
1.43715
1.43517
1.43252
1.43131
1.43097
1.4308
1.43109
1.43226
1.43306
1.43279
1.43209
1.43104
1.42949
1.42858
1.4285
1.42846
1.42836
1.4282
1.42792
1.42749
1.42687
1.42609
1.42489
1.423
1.42156
1.42129
1.42128
1.42177
1.4235
1.42535
1.42584
1.42577
1.42542
1.42464
1.42292
1.42096
1.42037
1.42039
1.42066
1.42147
1.42295
1.42426
1.42456
1.42466
1.42498
1.42561
1.42639
1.4274
1.42924
1.43213
1.43645
1.44175
1.44318
1.44345
1.44347
1.44318
1.44228
1.44073
1.43889
1.4379
1.43746
1.43705
1.43699
1.43747
1.4383
1.43866
1.43859
1.43816
1.43777
1.43745
1.43706
1.43654
1.43572
1.43444
1.43284
1.43159
1.43096
1.43052
1.43079
1.43263
1.44228
1.51154
1.71156
1.83914
1.89627
1.91187
1.9129
1.91322
1.91006
1.90526
1.90331
1.90461
1.90637
1.90628
1.9052
1.90259
1.89982
1.89675
1.89498
1.89275
1.89025
1.88846
1.88639
1.88366
1.88059
1.87824
1.8767
1.87533
1.87385
1.8721
1.86981
1.86654
1.86231
1.85845
1.85566
1.85389
1.85315
1.85283
1.85235
1.8514
1.84976
1.84729
1.8441
1.84034
1.83629
1.83241
1.82907
1.82665
1.82513
1.82483
1.82488
1.8254
1.82587
1.8257
1.82395
1.8195
1.81382
1.80838
1.80376
1.80121
1.80067
1.80206
1.80352
1.80337
1.8027
1.80128
1.79868
1.79526
1.7927
1.79155
1.7906
1.78956
1.78829
1.78726
1.78697
1.78711
1.78828
1.79031
1.79149
1.79153
1.79083
1.78845
1.78419
1.77962
1.77574
1.77338
1.77258
1.77252
1.77278
1.77278
1.77262
1.77192
1.76978
1.76671
1.76324
1.75888
1.75423
1.75169
1.75076
1.7501
1.7498
1.75029
1.75145
1.75168
1.75129
1.75068
1.74944
1.45063
1.45029
1.44968
1.44832
1.44738
1.44738
1.44745
1.44758
1.44749
1.44737
1.44726
1.44706
1.44672
1.44619
1.44531
1.44439
1.44393
1.44364
1.44337
1.4431
1.4428
1.44244
1.44186
1.44092
1.44046
1.44028
1.44008
1.43985
1.43953
1.43925
1.43916
1.4391
1.43897
1.43854
1.43764
1.43703
1.43685
1.43683
1.43687
1.43696
1.4369
1.43686
1.43694
1.43713
1.43713
1.43691
1.43696
1.43765
1.43856
1.4399
1.4411
1.44124
1.44119
1.44108
1.44066
1.43968
1.43803
1.43689
1.43664
1.43653
1.43699
1.43812
1.43823
1.43789
1.43739
1.43646
1.43446
1.43192
1.43082
1.43056
1.43046
1.43084
1.43211
1.43289
1.43259
1.43179
1.43051
1.42858
1.42746
1.42739
1.42738
1.42733
1.42721
1.42698
1.4266
1.42603
1.42532
1.42418
1.42237
1.42086
1.4205
1.42047
1.42086
1.42241
1.424
1.42435
1.42429
1.42406
1.42333
1.42152
1.41958
1.41906
1.41907
1.41932
1.42016
1.42145
1.42235
1.42254
1.42252
1.42246
1.42279
1.42344
1.42424
1.42533
1.42739
1.43065
1.43444
1.43894
1.44078
1.44137
1.44151
1.44118
1.43997
1.43845
1.43767
1.4373
1.43703
1.43721
1.43788
1.43828
1.4381
1.43747
1.4368
1.43622
1.4357
1.43518
1.43465
1.43404
1.4333
1.43232
1.43133
1.43071
1.43032
1.43068
1.43283
1.44834
1.52267
1.72041
1.86982
1.90527
1.90967
1.90671
1.90665
1.9074
1.9081
1.90636
1.90388
1.90275
1.90309
1.90284
1.90212
1.90074
1.89836
1.89502
1.8915
1.88814
1.88518
1.883
1.88159
1.88066
1.87939
1.87731
1.87462
1.87214
1.86989
1.8676
1.8653
1.86276
1.85955
1.85559
1.85246
1.85054
1.84965
1.84964
1.84989
1.84975
1.84844
1.84496
1.83992
1.83539
1.83117
1.82737
1.82433
1.82316
1.82356
1.82374
1.82298
1.82274
1.82224
1.82098
1.81905
1.81625
1.81231
1.80749
1.80264
1.79939
1.79843
1.79876
1.79893
1.79874
1.79847
1.79762
1.79569
1.79317
1.79045
1.78797
1.78705
1.78617
1.78506
1.78402
1.78306
1.78263
1.78259
1.78329
1.7849
1.78541
1.78518
1.78423
1.78204
1.77856
1.7754
1.77261
1.76992
1.7684
1.76822
1.76797
1.76708
1.76598
1.76526
1.7635
1.76052
1.75752
1.75395
1.7497
1.74706
1.74614
1.74549
1.74528
1.74577
1.7465
1.74642
1.74582
1.74497
1.44929
1.44868
1.4475
1.44613
1.44593
1.44604
1.44622
1.44625
1.44611
1.44597
1.44577
1.44542
1.44494
1.4442
1.44328
1.44282
1.44261
1.44243
1.44225
1.44208
1.44186
1.44143
1.44044
1.43948
1.4392
1.439
1.43874
1.43841
1.43807
1.43778
1.43761
1.43752
1.43732
1.4367
1.43605
1.43593
1.43581
1.43568
1.43556
1.43534
1.43508
1.43507
1.43512
1.43511
1.43502
1.43505
1.43568
1.43674
1.43819
1.4394
1.43951
1.4395
1.4395
1.43929
1.43849
1.4372
1.43619
1.43597
1.43591
1.43648
1.43751
1.43751
1.43713
1.43662
1.43569
1.43372
1.43131
1.43031
1.43014
1.43012
1.43062
1.43192
1.43271
1.43241
1.43156
1.43024
1.42808
1.42648
1.42632
1.42631
1.42632
1.42626
1.42607
1.42574
1.42522
1.42453
1.42343
1.42169
1.42015
1.41971
1.41965
1.41997
1.42132
1.42256
1.42279
1.42278
1.42263
1.42198
1.42021
1.41831
1.4178
1.41781
1.41806
1.41896
1.42019
1.42078
1.42088
1.42084
1.42049
1.42045
1.42078
1.42139
1.42233
1.42391
1.42621
1.42879
1.43158
1.43531
1.43788
1.4389
1.43911
1.43862
1.43765
1.43729
1.43715
1.43724
1.43788
1.43851
1.43841
1.43769
1.43662
1.43546
1.43453
1.43365
1.43293
1.43263
1.43251
1.4323
1.43177
1.43107
1.43058
1.43047
1.43086
1.433
1.4558
1.5637
1.72394
1.87691
1.91806
1.91577
1.91045
1.9027
1.89939
1.90219
1.90425
1.90519
1.90385
1.90151
1.90013
1.90024
1.90009
1.89906
1.89727
1.89376
1.88849
1.88412
1.88107
1.87881
1.87768
1.87734
1.87702
1.87583
1.87298
1.86924
1.86601
1.86314
1.86063
1.85841
1.85604
1.85314
1.85018
1.84839
1.84729
1.84704
1.84709
1.84678
1.84559
1.84235
1.8366
1.83133
1.82711
1.82351
1.8212
1.82119
1.82249
1.82202
1.82068
1.81948
1.81756
1.81511
1.81336
1.81175
1.8095
1.80635
1.80247
1.79918
1.79681
1.79504
1.79433
1.79394
1.79349
1.79317
1.79237
1.79039
1.78809
1.78539
1.78313
1.78225
1.78129
1.78048
1.77986
1.77911
1.77853
1.77812
1.77838
1.77931
1.77925
1.7787
1.77774
1.7765
1.77437
1.77165
1.76918
1.76613
1.76353
1.76274
1.76207
1.7607
1.75919
1.75855
1.75722
1.75464
1.75226
1.74944
1.7458
1.74321
1.74217
1.74143
1.74121
1.74122
1.74115
1.74032
1.7394
1.44782
1.44667
1.44502
1.44438
1.44445
1.44468
1.44489
1.44482
1.44469
1.44453
1.44421
1.44373
1.44304
1.44218
1.44165
1.44148
1.44137
1.44127
1.44117
1.44105
1.44075
1.43987
1.43862
1.43809
1.43789
1.43767
1.43742
1.43709
1.43673
1.43643
1.43623
1.43608
1.43576
1.43498
1.43463
1.43458
1.43443
1.43424
1.43399
1.43361
1.43335
1.43329
1.43327
1.43321
1.43322
1.43371
1.43471
1.43609
1.43736
1.43765
1.43772
1.43778
1.43771
1.43714
1.43614
1.43539
1.43521
1.43524
1.43588
1.43686
1.43676
1.43627
1.43569
1.43479
1.43293
1.43064
1.42973
1.42964
1.4297
1.43033
1.43165
1.43239
1.43212
1.43129
1.42994
1.42781
1.42579
1.42534
1.4253
1.4253
1.42537
1.42526
1.42501
1.42455
1.42388
1.42275
1.42098
1.41943
1.41895
1.41886
1.41909
1.42022
1.42115
1.42122
1.42125
1.42113
1.42053
1.41887
1.41703
1.4165
1.41649
1.41676
1.41776
1.41904
1.41949
1.41962
1.41956
1.41903
1.41864
1.41873
1.41906
1.41971
1.42098
1.42287
1.42447
1.42613
1.42824
1.43107
1.43423
1.4359
1.43646
1.43639
1.4364
1.43675
1.43754
1.43869
1.43907
1.4386
1.43759
1.43598
1.43434
1.43279
1.43141
1.43087
1.43086
1.43099
1.43114
1.43107
1.43083
1.43066
1.43077
1.43121
1.43336
1.45655
1.59476
1.76885
1.8707
1.91297
1.91333
1.91117
1.90688
1.90093
1.89775
1.89898
1.90172
1.90221
1.90184
1.90034
1.89876
1.89804
1.89777
1.8963
1.89434
1.89151
1.88704
1.8819
1.87822
1.87592
1.87528
1.87451
1.87393
1.87302
1.87098
1.86735
1.86311
1.85946
1.85632
1.85383
1.85191
1.85014
1.84824
1.84684
1.84564
1.84431
1.84339
1.84254
1.84111
1.8385
1.83417
1.82906
1.82454
1.82086
1.81922
1.81948
1.81952
1.81799
1.81669
1.81538
1.81297
1.81037
1.80897
1.80764
1.80625
1.80482
1.8024
1.79902
1.79539
1.79181
1.7899
1.78919
1.78862
1.78819
1.78808
1.78694
1.78478
1.78257
1.78027
1.77853
1.77776
1.77701
1.77657
1.77606
1.77526
1.77445
1.77349
1.7734
1.77379
1.77349
1.77312
1.77309
1.77271
1.77016
1.76741
1.76509
1.76177
1.75818
1.75659
1.75549
1.75392
1.75244
1.75203
1.75118
1.7492
1.74744
1.74541
1.7425
1.73982
1.73845
1.73745
1.73657
1.73595
1.73504
1.73378
1.44604
1.44413
1.44286
1.4428
1.44295
1.44328
1.44345
1.44337
1.44325
1.44303
1.44262
1.44197
1.44105
1.44047
1.4403
1.44018
1.44012
1.44007
1.44
1.43979
1.43908
1.43781
1.43701
1.43678
1.4366
1.43643
1.43623
1.43592
1.43557
1.43526
1.43503
1.4348
1.43407
1.43314
1.43301
1.43298
1.43284
1.43268
1.43241
1.43198
1.4317
1.43161
1.43155
1.43157
1.4319
1.43271
1.43388
1.43507
1.43557
1.43577
1.43592
1.4359
1.43551
1.43479
1.43434
1.43431
1.43443
1.43516
1.43615
1.43601
1.43538
1.43467
1.43378
1.43214
1.42998
1.42909
1.42903
1.42913
1.42987
1.43121
1.43187
1.43163
1.43088
1.42961
1.42747
1.42521
1.42455
1.4244
1.42438
1.42449
1.42453
1.42439
1.42404
1.42343
1.42226
1.42038
1.41873
1.4182
1.41809
1.41823
1.41914
1.41977
1.41973
1.41975
1.41964
1.41906
1.41752
1.41576
1.41516
1.41511
1.41537
1.4164
1.41787
1.4184
1.41855
1.41854
1.41795
1.4172
1.41712
1.41726
1.41765
1.41843
1.41981
1.42101
1.42195
1.4231
1.4247
1.42702
1.43018
1.43292
1.43424
1.43505
1.43606
1.43771
1.43921
1.4393
1.43871
1.43738
1.43553
1.43348
1.43117
1.4295
1.42921
1.42923
1.42944
1.42983
1.43026
1.43062
1.43087
1.43107
1.43123
1.43419
1.46519
1.60237
1.80529
1.88034
1.90118
1.90811
1.91042
1.90935
1.90733
1.90219
1.89849
1.89735
1.89889
1.89937
1.89901
1.89826
1.89699
1.89562
1.89421
1.8923
1.89029
1.88792
1.88476
1.88069
1.87652
1.87381
1.87227
1.87107
1.8703
1.86928
1.86768
1.86508
1.86102
1.85639
1.85262
1.84956
1.84741
1.84649
1.84623
1.84495
1.84327
1.84133
1.83898
1.83711
1.83541
1.83351
1.83108
1.82765
1.82378
1.82012
1.81809
1.81706
1.81489
1.81315
1.81197
1.81087
1.80927
1.80745
1.80595
1.80458
1.80337
1.80227
1.80008
1.79715
1.79398
1.79037
1.78684
1.78487
1.78395
1.7832
1.78269
1.78249
1.78119
1.77919
1.77743
1.77578
1.77452
1.77387
1.77309
1.77252
1.77192
1.7711
1.77013
1.76902
1.76897
1.7691
1.76886
1.76864
1.76866
1.76744
1.76477
1.7625
1.76036
1.75699
1.75269
1.75028
1.74888
1.74734
1.74619
1.74621
1.74593
1.7445
1.74319
1.7417
1.73917
1.73598
1.73397
1.73256
1.73112
1.73008
1.72896
1.44364
1.44151
1.44117
1.44123
1.44144
1.44182
1.44196
1.44192
1.4418
1.44149
1.44095
1.44009
1.43927
1.43901
1.43891
1.43883
1.43879
1.43875
1.43863
1.43803
1.43681
1.43594
1.43568
1.43551
1.43536
1.4353
1.4352
1.43491
1.43457
1.43424
1.43388
1.43314
1.43183
1.43135
1.43136
1.43134
1.43125
1.43115
1.43092
1.43048
1.43019
1.43012
1.43013
1.43032
1.43087
1.43176
1.43277
1.43339
1.43368
1.4339
1.43395
1.43362
1.43306
1.433
1.43312
1.43336
1.43415
1.43519
1.43517
1.43451
1.43366
1.43273
1.43133
1.42941
1.42844
1.42837
1.42845
1.42917
1.43049
1.43106
1.43086
1.43026
1.42915
1.42716
1.42464
1.42373
1.42355
1.4235
1.42368
1.42393
1.42382
1.42357
1.42307
1.42194
1.41993
1.41811
1.41749
1.41734
1.41741
1.41808
1.41846
1.41838
1.41839
1.41829
1.41774
1.4163
1.41461
1.41392
1.41381
1.41398
1.41493
1.41656
1.41729
1.41749
1.41754
1.41702
1.41613
1.4158
1.41581
1.41597
1.41638
1.41721
1.41802
1.41843
1.41905
1.4201
1.4215
1.42365
1.42685
1.43023
1.43258
1.43466
1.43714
1.43871
1.43884
1.43834
1.43694
1.43507
1.4328
1.42994
1.42801
1.42774
1.42776
1.42795
1.42853
1.42951
1.43041
1.43078
1.43077
1.4307
1.43567
1.48545
1.62328
1.82281
1.89601
1.90734
1.90802
1.9089
1.90592
1.90302
1.90107
1.89882
1.89819
1.89656
1.89701
1.89765
1.89669
1.89602
1.8945
1.89173
1.88977
1.88779
1.886
1.88437
1.88189
1.87916
1.87553
1.87183
1.86951
1.86791
1.86673
1.86567
1.86424
1.86205
1.85881
1.85418
1.8497
1.84635
1.84387
1.84322
1.84336
1.84204
1.84022
1.83826
1.83507
1.83164
1.83005
1.82874
1.82738
1.82561
1.82333
1.82054
1.81649
1.81294
1.81048
1.80871
1.80731
1.80634
1.80576
1.80495
1.80356
1.80191
1.80027
1.79844
1.79627
1.79387
1.79134
1.7886
1.78546
1.78214
1.78001
1.77896
1.778
1.77713
1.77694
1.77628
1.77451
1.77299
1.77161
1.77034
1.76947
1.76852
1.76793
1.76741
1.76681
1.76612
1.76539
1.76524
1.76496
1.76449
1.76383
1.76299
1.76159
1.75938
1.75727
1.75523
1.75203
1.74744
1.74437
1.74292
1.74172
1.74107
1.74147
1.74157
1.74049
1.73926
1.73778
1.73512
1.73137
1.72884
1.72716
1.7255
1.72445
1.44066
1.43961
1.43962
1.43968
1.43997
1.44041
1.44051
1.44048
1.44032
1.4399
1.43912
1.43817
1.43773
1.43756
1.43749
1.43741
1.43737
1.43729
1.43684
1.43566
1.43465
1.43447
1.43438
1.43428
1.43423
1.43434
1.43429
1.43398
1.43358
1.43312
1.43226
1.43081
1.42982
1.42979
1.42984
1.42984
1.42981
1.42975
1.42956
1.42917
1.4289
1.42888
1.42899
1.42926
1.42981
1.43055
1.43117
1.43155
1.43181
1.43186
1.43164
1.43116
1.43114
1.43153
1.43205
1.43288
1.43379
1.43392
1.43354
1.43274
1.43176
1.43051
1.42885
1.42783
1.42772
1.42775
1.42832
1.42951
1.42997
1.42981
1.42942
1.42851
1.42671
1.42417
1.423
1.42276
1.42267
1.4229
1.42342
1.42332
1.42309
1.4227
1.42167
1.41957
1.41753
1.4168
1.4166
1.41662
1.41709
1.41725
1.41719
1.41719
1.41713
1.41664
1.41534
1.41369
1.41289
1.4127
1.41278
1.41352
1.41511
1.41599
1.41621
1.41637
1.41601
1.41502
1.41466
1.41448
1.41448
1.4146
1.41494
1.41559
1.41589
1.41611
1.4166
1.41755
1.41884
1.42084
1.42399
1.42782
1.43175
1.43556
1.4372
1.4374
1.43724
1.43627
1.43453
1.4321
1.42904
1.42694
1.42645
1.42644
1.42659
1.42749
1.42888
1.43007
1.43033
1.43012
1.42974
1.43531
1.50359
1.66949
1.81611
1.90887
1.91468
1.90979
1.90595
1.90266
1.9028
1.89833
1.89616
1.89506
1.89575
1.89614
1.89578
1.89565
1.89374
1.8919
1.88996
1.88762
1.88601
1.88406
1.88211
1.88134
1.87981
1.87713
1.87452
1.87113
1.86773
1.8654
1.86376
1.86242
1.86085
1.85864
1.85574
1.85191
1.84764
1.84425
1.84182
1.84075
1.83956
1.8377
1.83604
1.83419
1.83133
1.82808
1.82644
1.82522
1.82434
1.82424
1.82317
1.81951
1.8148
1.80981
1.80645
1.80464
1.80349
1.80288
1.80275
1.8023
1.80099
1.79876
1.79624
1.79404
1.79188
1.78983
1.78785
1.78571
1.78345
1.78079
1.77758
1.77531
1.77413
1.77312
1.77278
1.77297
1.77192
1.76994
1.76836
1.7668
1.76528
1.76414
1.76338
1.76315
1.76309
1.76306
1.76293
1.76227
1.76133
1.76051
1.75971
1.75851
1.75702
1.75569
1.75416
1.75209
1.75009
1.74718
1.74281
1.73947
1.73804
1.73722
1.73692
1.73736
1.73745
1.73638
1.735
1.73324
1.73026
1.72629
1.72362
1.72184
1.72025
1.4384
1.43816
1.43815
1.43825
1.43866
1.4391
1.43912
1.43908
1.43882
1.43816
1.43707
1.43645
1.43624
1.43616
1.43606
1.43595
1.43586
1.43551
1.43444
1.43321
1.43301
1.433
1.43301
1.43308
1.43335
1.43351
1.43337
1.43299
1.43242
1.43147
1.42997
1.4286
1.4284
1.42843
1.42848
1.42851
1.42855
1.42851
1.42832
1.42804
1.42779
1.42778
1.4279
1.42814
1.42857
1.42908
1.42944
1.42969
1.42975
1.42958
1.42916
1.42918
1.42952
1.43024
1.43141
1.43222
1.43231
1.43221
1.43175
1.43092
1.42977
1.42828
1.42724
1.42707
1.42705
1.42744
1.42837
1.42867
1.42858
1.42838
1.42766
1.42607
1.42368
1.42239
1.42209
1.42198
1.42217
1.42289
1.4229
1.42264
1.42228
1.42132
1.41919
1.41695
1.41607
1.41581
1.41581
1.41613
1.41615
1.41612
1.41614
1.41612
1.41577
1.41463
1.41303
1.41214
1.41185
1.41185
1.41237
1.41371
1.41453
1.4147
1.41488
1.41474
1.41371
1.41311
1.41305
1.41287
1.41281
1.41292
1.41324
1.41366
1.41387
1.41411
1.41458
1.41549
1.41667
1.41842
1.42141
1.426
1.43198
1.435
1.43534
1.43538
1.4351
1.43383
1.43141
1.42828
1.4262
1.42554
1.42535
1.42554
1.42671
1.42842
1.42958
1.42966
1.42921
1.42904
1.43634
1.5069
1.70942
1.83624
1.89244
1.91413
1.91387
1.9103
1.90501
1.90138
1.89879
1.89868
1.89545
1.89348
1.89319
1.89357
1.89333
1.89248
1.89018
1.88759
1.88598
1.88421
1.8827
1.88105
1.87922
1.87843
1.87708
1.87423
1.87185
1.86956
1.86688
1.86369
1.86074
1.85871
1.85675
1.85451
1.85188
1.84897
1.84573
1.84262
1.84011
1.83758
1.83511
1.83304
1.83118
1.82929
1.82731
1.8254
1.82417
1.82321
1.82238
1.82184
1.8199
1.81648
1.81254
1.80796
1.80389
1.80161
1.80048
1.80015
1.79982
1.79898
1.79762
1.79552
1.79249
1.7898
1.78759
1.7856
1.78406
1.78253
1.78067
1.77868
1.77618
1.77302
1.77086
1.76977
1.76909
1.76912
1.76837
1.76638
1.76464
1.76302
1.7611
1.75944
1.75839
1.7583
1.75848
1.75898
1.75944
1.75961
1.7589
1.75721
1.75566
1.75444
1.75298
1.75116
1.74968
1.74895
1.74705
1.74508
1.74271
1.73902
1.73561
1.73405
1.73342
1.73305
1.73297
1.73277
1.73169
1.73017
1.72825
1.72525
1.72141
1.71856
1.71672
1.43706
1.43689
1.43689
1.43708
1.43768
1.43783
1.43783
1.43771
1.43721
1.43605
1.43515
1.43489
1.43479
1.4348
1.43466
1.43447
1.43411
1.43314
1.43173
1.43136
1.43138
1.43145
1.43168
1.43229
1.43259
1.43253
1.43231
1.43179
1.43069
1.42908
1.42764
1.42718
1.42718
1.42721
1.42725
1.42733
1.42742
1.42736
1.42718
1.42699
1.42672
1.42663
1.4267
1.42688
1.42721
1.42751
1.42767
1.4277
1.42753
1.42709
1.42705
1.42743
1.42806
1.42931
1.43056
1.43064
1.43061
1.4305
1.43005
1.42912
1.42776
1.42663
1.42637
1.42632
1.42657
1.42717
1.42728
1.42727
1.4272
1.42663
1.42519
1.42304
1.42182
1.42152
1.42141
1.42156
1.42236
1.42251
1.42222
1.42183
1.42086
1.41874
1.41636
1.4153
1.41495
1.41493
1.41513
1.41511
1.41511
1.41515
1.41519
1.41502
1.41411
1.41257
1.41163
1.41124
1.41114
1.41146
1.41253
1.41309
1.41308
1.41319
1.41314
1.41235
1.41121
1.41114
1.4111
1.41092
1.41087
1.41111
1.4115
1.41175
1.41199
1.4123
1.41282
1.41373
1.41496
1.41661
1.41953
1.42462
1.43057
1.43259
1.43303
1.43314
1.43264
1.43067
1.42778
1.42578
1.42501
1.42468
1.42495
1.42625
1.42797
1.4288
1.42881
1.42812
1.42857
1.4423
1.52201
1.7248
1.86503
1.89834
1.90735
1.91235
1.91008
1.90657
1.90124
1.89798
1.89668
1.89551
1.89537
1.89277
1.89112
1.89041
1.88917
1.88776
1.88556
1.8834
1.88221
1.88168
1.88072
1.87901
1.87693
1.87502
1.87314
1.87069
1.86852
1.86686
1.86523
1.86284
1.85882
1.85482
1.85227
1.84993
1.84765
1.8458
1.84419
1.84142
1.83823
1.83469
1.83114
1.82827
1.82622
1.82486
1.82397
1.82319
1.82258
1.82152
1.81976
1.81771
1.81536
1.81243
1.80914
1.80564
1.80233
1.79982
1.79807
1.79694
1.79608
1.79513
1.79384
1.79204
1.78946
1.7865
1.78409
1.78208
1.78049
1.77912
1.7775
1.77572
1.7738
1.77145
1.76868
1.7668
1.76583
1.7651
1.76425
1.76267
1.7609
1.75917
1.75725
1.75512
1.75359
1.75319
1.75336
1.75395
1.75487
1.7555
1.7558
1.75526
1.75315
1.75071
1.74893
1.74721
1.74525
1.74375
1.7436
1.74224
1.7404
1.73866
1.7359
1.73234
1.73022
1.72951
1.72891
1.72807
1.72735
1.72653
1.72512
1.72334
1.72053
1.71673
1.7139
1.43601
1.4359
1.43596
1.43649
1.43675
1.43671
1.43662
1.43625
1.43509
1.43391
1.43359
1.43347
1.43349
1.43344
1.43321
1.43281
1.43183
1.43023
1.42961
1.42961
1.42968
1.43
1.43092
1.43156
1.43152
1.43142
1.43106
1.43004
1.4282
1.42653
1.42605
1.42596
1.42596
1.42602
1.42614
1.42633
1.42637
1.4263
1.42607
1.42585
1.42555
1.4254
1.42543
1.42555
1.42577
1.42586
1.42584
1.42554
1.42502
1.42492
1.42519
1.4258
1.42683
1.42823
1.42888
1.42898
1.42897
1.4289
1.42841
1.4273
1.42609
1.42567
1.42555
1.42571
1.42602
1.42597
1.42596
1.42591
1.42541
1.42412
1.42223
1.42119
1.42096
1.42088
1.42106
1.42189
1.42211
1.42178
1.42135
1.42039
1.41828
1.41577
1.41454
1.41406
1.41397
1.41415
1.41411
1.41411
1.41419
1.41425
1.41419
1.41352
1.41211
1.41118
1.41078
1.41058
1.41074
1.41144
1.41181
1.41165
1.41156
1.41143
1.41081
1.40939
1.40908
1.40911
1.40906
1.40892
1.409
1.40957
1.40997
1.41007
1.41033
1.41079
1.41145
1.41241
1.41371
1.41546
1.41803
1.42223
1.42748
1.42978
1.43038
1.43034
1.42945
1.42741
1.42559
1.42478
1.42449
1.4249
1.42619
1.42736
1.42779
1.42776
1.42694
1.4277
1.44903
1.56235
1.73108
1.88371
1.9117
1.91013
1.90831
1.90685
1.90597
1.90086
1.89758
1.89483
1.89479
1.89393
1.89357
1.89312
1.88998
1.88757
1.88491
1.88251
1.88083
1.8791
1.87862
1.87915
1.87918
1.87746
1.8744
1.87146
1.86934
1.86736
1.86592
1.86415
1.86247
1.86051
1.85726
1.85246
1.84875
1.8462
1.8441
1.84329
1.84253
1.83967
1.83645
1.83261
1.82792
1.82459
1.82257
1.82131
1.82125
1.82145
1.82058
1.81919
1.81671
1.81307
1.81018
1.80749
1.80483
1.80257
1.80058
1.79858
1.79643
1.7941
1.79248
1.79127
1.7899
1.7883
1.78624
1.78365
1.78094
1.77869
1.77681
1.77518
1.77365
1.77213
1.77051
1.76883
1.76695
1.76449
1.76228
1.76112
1.76003
1.75882
1.75734
1.75561
1.75377
1.75169
1.74969
1.74853
1.74841
1.74876
1.74966
1.75085
1.75154
1.75182
1.75132
1.7489
1.74566
1.74334
1.7414
1.73948
1.7384
1.73884
1.73796
1.73633
1.73506
1.73295
1.72915
1.72593
1.72465
1.72374
1.72263
1.72187
1.72129
1.71992
1.71818
1.71569
1.71267
1.43526
1.43524
1.43569
1.43606
1.43593
1.43571
1.43528
1.43412
1.43274
1.43235
1.43226
1.43225
1.43226
1.43209
1.4317
1.43067
1.42882
1.42781
1.42773
1.42776
1.42806
1.42921
1.43031
1.43037
1.43036
1.43018
1.42931
1.42745
1.42544
1.42477
1.42465
1.42463
1.4247
1.42498
1.42526
1.42539
1.42539
1.42528
1.4248
1.42451
1.4243
1.42415
1.42416
1.42424
1.42429
1.42422
1.42381
1.4231
1.42285
1.42299
1.42342
1.42427
1.42565
1.42657
1.42699
1.42731
1.42742
1.42732
1.42667
1.42561
1.42504
1.42483
1.42488
1.42506
1.42488
1.42475
1.42461
1.42411
1.42295
1.42131
1.42045
1.42032
1.4203
1.42054
1.4214
1.42166
1.4213
1.42083
1.41991
1.41791
1.41524
1.41387
1.41327
1.413
1.41311
1.41318
1.41312
1.41322
1.41331
1.41327
1.41271
1.41145
1.41061
1.41026
1.41003
1.4101
1.41052
1.41067
1.41037
1.41013
1.40988
1.4093
1.40783
1.4071
1.40719
1.40724
1.40717
1.40717
1.40765
1.40855
1.40879
1.40883
1.40906
1.40957
1.41032
1.41134
1.41261
1.41403
1.41577
1.41897
1.42369
1.4261
1.42721
1.42716
1.42655
1.42532
1.42461
1.4245
1.42512
1.42647
1.42669
1.4268
1.42669
1.42571
1.42657
1.45002
1.5938
1.77167
1.87514
1.91568
1.9146
1.90962
1.90697
1.90335
1.90307
1.90068
1.89563
1.89269
1.89227
1.89243
1.89174
1.89091
1.88832
1.88516
1.88139
1.87829
1.87726
1.87619
1.87601
1.87716
1.87754
1.87573
1.8724
1.86857
1.86602
1.86405
1.86262
1.86094
1.85909
1.85704
1.85426
1.85045
1.84663
1.84378
1.84184
1.84077
1.83888
1.83626
1.83352
1.83019
1.82606
1.82263
1.82045
1.8193
1.81956
1.81928
1.81772
1.81587
1.81294
1.80878
1.80533
1.80278
1.80069
1.79948
1.79809
1.79633
1.79455
1.79223
1.78968
1.78789
1.78638
1.78487
1.78321
1.78096
1.77823
1.77528
1.77295
1.77104
1.76933
1.76798
1.76705
1.76581
1.76435
1.76258
1.75985
1.75709
1.75577
1.75457
1.75326
1.75213
1.75058
1.74878
1.7469
1.74517
1.74422
1.74417
1.74466
1.7456
1.74686
1.74746
1.7476
1.74699
1.74427
1.74051
1.73794
1.73612
1.73457
1.7341
1.7348
1.73388
1.73247
1.73135
1.72943
1.72537
1.7211
1.71891
1.71772
1.71673
1.71614
1.7156
1.71443
1.71315
1.71171
1.43489
1.43525
1.43569
1.43558
1.43522
1.43457
1.43321
1.43162
1.43114
1.4311
1.43114
1.4312
1.43113
1.43082
1.42973
1.42763
1.42612
1.42583
1.42579
1.42598
1.42717
1.42875
1.42908
1.42914
1.42911
1.42848
1.42672
1.42441
1.42347
1.42327
1.42318
1.42326
1.42372
1.42419
1.42441
1.42447
1.4244
1.42386
1.42327
1.42316
1.42303
1.42293
1.42295
1.42297
1.42289
1.42244
1.4215
1.42097
1.42097
1.42116
1.42168
1.4228
1.42414
1.42473
1.42515
1.42562
1.42581
1.42562
1.42498
1.42442
1.42415
1.42414
1.42429
1.42404
1.4237
1.42342
1.42287
1.42179
1.42035
1.41961
1.41956
1.41958
1.41993
1.42079
1.421
1.42069
1.42025
1.41942
1.41762
1.41485
1.4133
1.41265
1.41219
1.41215
1.4123
1.41219
1.41224
1.41236
1.41234
1.4118
1.41059
1.40982
1.40956
1.40936
1.40941
1.40967
1.40967
1.40919
1.40885
1.40857
1.40799
1.4065
1.40541
1.40541
1.40559
1.40564
1.40566
1.40607
1.40716
1.40778
1.40775
1.40782
1.40793
1.40828
1.40898
1.40998
1.41111
1.412
1.41314
1.4152
1.41896
1.42207
1.42386
1.4247
1.42451
1.42419
1.42422
1.42526
1.42648
1.42637
1.42602
1.42558
1.42449
1.42641
1.45311
1.59674
1.80573
1.87962
1.90989
1.91674
1.91491
1.91053
1.90464
1.90121
1.89803
1.8969
1.89474
1.89132
1.89103
1.89085
1.88905
1.88705
1.8849
1.88203
1.87871
1.87575
1.87462
1.87421
1.87426
1.87477
1.87475
1.87285
1.86982
1.86661
1.86358
1.86105
1.85884
1.85686
1.85482
1.85256
1.85004
1.84734
1.84475
1.84247
1.83976
1.83681
1.83431
1.83195
1.82953
1.82682
1.82404
1.82146
1.81936
1.81827
1.81752
1.8159
1.81403
1.81165
1.80856
1.80492
1.80135
1.79859
1.79682
1.79575
1.79442
1.79306
1.79171
1.79009
1.78791
1.78556
1.78362
1.78196
1.78028
1.77804
1.7754
1.77224
1.76922
1.76716
1.76548
1.76415
1.76344
1.76263
1.76135
1.75992
1.75792
1.75466
1.75165
1.75018
1.7489
1.74779
1.74735
1.74608
1.74437
1.74287
1.74143
1.74039
1.7403
1.74074
1.74144
1.74249
1.7431
1.74314
1.7424
1.7395
1.7356
1.73311
1.73155
1.73038
1.73007
1.73043
1.72955
1.72818
1.7269
1.72489
1.72088
1.71604
1.713
1.71163
1.71068
1.71016
1.71041
1.71051
1.71005
1.43516
1.43558
1.4355
1.43516
1.43438
1.43265
1.43067
1.43002
1.43
1.43009
1.43027
1.43027
1.43013
1.42909
1.42673
1.4247
1.42415
1.42395
1.424
1.425
1.42685
1.42758
1.42773
1.42781
1.42744
1.42593
1.42346
1.4222
1.42187
1.42172
1.42176
1.42232
1.42305
1.42332
1.42339
1.42333
1.42277
1.42201
1.42186
1.42186
1.42178
1.42176
1.4218
1.42178
1.42146
1.42042
1.41937
1.41913
1.41915
1.41934
1.41997
1.42128
1.42237
1.42288
1.4233
1.42379
1.42409
1.42392
1.42364
1.42341
1.42335
1.42352
1.4234
1.42292
1.42243
1.42181
1.4208
1.41948
1.41879
1.41873
1.41878
1.41914
1.41991
1.42006
1.41987
1.41956
1.41885
1.41723
1.41454
1.41277
1.41218
1.41163
1.41132
1.41147
1.41143
1.41136
1.41145
1.41147
1.41096
1.40968
1.40889
1.40867
1.40851
1.40854
1.40877
1.40871
1.4081
1.40765
1.40737
1.40684
1.40543
1.40404
1.40392
1.40409
1.4043
1.40445
1.40498
1.40601
1.40659
1.40655
1.40641
1.40614
1.40607
1.4064
1.40714
1.40811
1.40913
1.40964
1.4102
1.41159
1.41463
1.4181
1.4207
1.42238
1.42308
1.42371
1.42502
1.42611
1.42601
1.42542
1.42465
1.42356
1.42759
1.47108
1.60756
1.81698
1.89125
1.90812
1.9122
1.91747
1.912
1.90627
1.89893
1.89623
1.89551
1.89452
1.8953
1.89253
1.88959
1.8874
1.88435
1.88091
1.87864
1.87653
1.87549
1.87471
1.8738
1.87288
1.87183
1.87071
1.86951
1.86837
1.86655
1.86422
1.86176
1.85879
1.8554
1.8525
1.85023
1.84811
1.84606
1.84432
1.84287
1.8407
1.83775
1.83366
1.8295
1.82668
1.8245
1.82273
1.82123
1.82022
1.81888
1.81685
1.81469
1.81229
1.80981
1.80705
1.80426
1.80142
1.79832
1.79527
1.79291
1.79133
1.79023
1.78933
1.78853
1.78765
1.78629
1.78431
1.78171
1.77914
1.77695
1.77466
1.77209
1.76913
1.76592
1.76348
1.76176
1.76047
1.75965
1.75888
1.75783
1.75661
1.75516
1.75294
1.74941
1.74645
1.74489
1.74359
1.74306
1.74305
1.74206
1.74057
1.73948
1.7381
1.73653
1.73623
1.7365
1.73687
1.73764
1.73844
1.73854
1.73783
1.73503
1.73126
1.7288
1.72735
1.7263
1.72543
1.72482
1.72412
1.72311
1.72171
1.71957
1.71591
1.71113
1.70786
1.70668
1.70624
1.70664
1.70743
1.70721
1.43573
1.43566
1.43542
1.4345
1.43255
1.43026
1.42917
1.42907
1.42915
1.42944
1.42958
1.42955
1.42865
1.42612
1.42355
1.42275
1.4224
1.42233
1.42301
1.42486
1.42587
1.42612
1.42631
1.42614
1.42496
1.42249
1.42096
1.42051
1.42027
1.42026
1.42084
1.42176
1.422
1.42204
1.42195
1.42139
1.42064
1.42045
1.42053
1.42064
1.42061
1.42064
1.42071
1.42061
1.4198
1.41834
1.41752
1.4173
1.4173
1.41747
1.4183
1.41969
1.42051
1.42098
1.42135
1.42181
1.42232
1.42249
1.42243
1.42237
1.42258
1.42265
1.42228
1.42168
1.42098
1.42
1.41881
1.41812
1.41799
1.418
1.41824
1.41876
1.4189
1.41885
1.41868
1.41809
1.41664
1.41412
1.41227
1.41166
1.41126
1.41082
1.41076
1.41074
1.41061
1.41067
1.41071
1.41024
1.40889
1.40796
1.40772
1.40753
1.40753
1.40776
1.40771
1.40706
1.40649
1.40614
1.40564
1.40442
1.40295
1.40269
1.40284
1.40314
1.40346
1.40418
1.40511
1.40545
1.40527
1.40488
1.40441
1.40402
1.40395
1.40432
1.40512
1.40595
1.40683
1.40734
1.40781
1.4088
1.41115
1.41446
1.41763
1.42035
1.42244
1.42422
1.4251
1.42512
1.42473
1.424
1.42288
1.42771
1.49253
1.65742
1.81624
1.90469
1.90719
1.91253
1.91289
1.91394
1.91003
1.90102
1.89459
1.89216
1.89306
1.89341
1.89363
1.89105
1.88668
1.88265
1.87828
1.87563
1.87426
1.87322
1.87371
1.87488
1.8742
1.87191
1.86881
1.86607
1.8644
1.86331
1.8632
1.86214
1.85963
1.85686
1.85324
1.84929
1.84658
1.84438
1.8427
1.84195
1.84035
1.83771
1.8348
1.8309
1.82614
1.82286
1.82072
1.81917
1.81911
1.8193
1.81763
1.8152
1.81238
1.80854
1.80543
1.8029
1.80034
1.79796
1.79558
1.79294
1.79004
1.7875
1.78628
1.7856
1.78513
1.78488
1.78414
1.78249
1.78024
1.77708
1.77357
1.77094
1.76851
1.7659
1.76303
1.76026
1.75817
1.75664
1.7555
1.7546
1.75378
1.75284
1.7517
1.75023
1.74788
1.74451
1.74187
1.7404
1.73952
1.73954
1.73954
1.73848
1.73721
1.73607
1.73424
1.73197
1.73152
1.73173
1.73196
1.73265
1.73379
1.73406
1.73347
1.731
1.7273
1.72455
1.72296
1.72161
1.72019
1.71892
1.71827
1.71756
1.716
1.71391
1.71087
1.70702
1.70432
1.70324
1.70305
1.7031
1.70279
1.43602
1.43584
1.43471
1.43243
1.43023
1.42904
1.42853
1.42852
1.42869
1.42896
1.42903
1.42831
1.42573
1.42271
1.42164
1.42117
1.42097
1.42142
1.42309
1.4242
1.42441
1.42466
1.42461
1.42371
1.42135
1.41969
1.41919
1.41887
1.4188
1.41931
1.42035
1.42058
1.42052
1.42031
1.41975
1.41912
1.41894
1.41899
1.41929
1.41946
1.4195
1.41961
1.41964
1.41926
1.41778
1.41637
1.41572
1.41542
1.41539
1.41567
1.41682
1.41802
1.41866
1.41906
1.41924
1.41984
1.42066
1.4211
1.42118
1.42138
1.42157
1.42143
1.42096
1.42029
1.4194
1.41829
1.41763
1.41744
1.41738
1.41743
1.4176
1.41773
1.41773
1.41766
1.41713
1.41579
1.41351
1.41175
1.4111
1.41077
1.41052
1.41036
1.41014
1.40995
1.41
1.41005
1.40963
1.40826
1.40716
1.40686
1.40664
1.40653
1.40668
1.40667
1.40606
1.40539
1.40494
1.40438
1.40326
1.40188
1.40155
1.4017
1.40208
1.40262
1.4035
1.40425
1.40437
1.40402
1.4034
1.40278
1.40209
1.4017
1.40177
1.40226
1.40314
1.40389
1.40464
1.40517
1.40553
1.40634
1.40827
1.41128
1.41481
1.41872
1.42196
1.42339
1.42361
1.42352
1.42311
1.42249
1.42847
1.49309
1.70137
1.83706
1.90052
1.91638
1.91473
1.91252
1.9102
1.90714
1.90327
1.8996
1.89348
1.89133
1.89132
1.89138
1.89025
1.8874
1.88346
1.87818
1.87342
1.87153
1.87091
1.87153
1.8737
1.87448
1.8728
1.86978
1.86652
1.8627
1.86031
1.85917
1.85901
1.85862
1.85649
1.85401
1.85103
1.84729
1.84394
1.84138
1.83955
1.83799