/*--------------------------------*- C++ -*----------------------------------*\
  =========                 |
  \\      /  F ield         | OpenFOAM: The Open Source CFD Toolbox
   \\    /   O peration     | Website:  https://openfoam.org
    \\  /    A nd           | Version:  7
     \\/     M anipulation  |
\*---------------------------------------------------------------------------*/
FoamFile
{
    version     2.0;
    format      ascii;
    class       volVectorField;
    location    "0.8";
    object      U;
}
// * * * * * * * * * * * * * * * * * * * * * * * * * * * * * * * * * * * * * //

dimensions      [0 1 -1 0 0 0 0];

internalField   nonuniform List<vector> 
16512
(
(2.8402 0.0690571 0)
(2.84018 0.0678391 0)
(2.83698 0.0646451 0)
(2.83273 0.0599299 0)
(2.8325 0.0564357 0)
(2.83379 0.0539464 0)
(2.83514 0.0512708 0)
(2.83654 0.0492642 0)
(2.83885 0.0478745 0)
(2.84185 0.0472041 0)
(2.84552 0.047744 0)
(2.84945 0.0490308 0)
(2.8531 0.0509164 0)
(2.8562 0.0526682 0)
(2.85819 0.0531499 0)
(2.85901 0.052851 0)
(2.8602 0.0517653 0)
(2.86086 0.0503548 0)
(2.85976 0.0482487 0)
(2.85754 0.0447706 0)
(2.85816 0.0427134 0)
(2.85955 0.0420287 0)
(2.86119 0.0412015 0)
(2.86392 0.0402557 0)
(2.86876 0.0388178 0)
(2.87473 0.036859 0)
(2.87765 0.0352709 0)
(2.87821 0.0344836 0)
(2.87766 0.0329611 0)
(2.87602 0.0320044 0)
(2.87527 0.0323103 0)
(2.87493 0.0341046 0)
(2.87666 0.0379872 0)
(2.88141 0.0426607 0)
(2.88585 0.044392 0)
(2.88724 0.0438929 0)
(2.88735 0.0427716 0)
(2.88706 0.0396851 0)
(2.8864 0.0356672 0)
(2.88579 0.0328033 0)
(2.88535 0.0309381 0)
(2.88463 0.0289446 0)
(2.88417 0.0268792 0)
(2.88466 0.0259037 0)
(2.88539 0.0252184 0)
(2.88661 0.0246822 0)
(2.88951 0.025077 0)
(2.89655 0.0285483 0)
(2.90767 0.0343351 0)
(2.91469 0.0365717 0)
(2.91465 0.0357653 0)
(2.91302 0.034507 0)
(2.90964 0.0317767 0)
(2.90299 0.0262823 0)
(2.89726 0.0219666 0)
(2.89555 0.0213657 0)
(2.89371 0.0208471 0)
(2.89357 0.020665 0)
(2.89742 0.022563 0)
(2.90585 0.0274649 0)
(2.91153 0.029524 0)
(2.91187 0.0287674 0)
(2.91139 0.0276083 0)
(2.91022 0.0247669 0)
(2.90953 0.0209479 0)
(2.90953 0.0189752 0)
(2.90986 0.0180671 0)
(2.9107 0.0165372 0)
(2.9133 0.0154333 0)
(2.92072 0.0164716 0)
(2.92846 0.0187613 0)
(2.92859 0.0194019 0)
(2.92686 0.019257 0)
(2.9238 0.0186422 0)
(2.91602 0.015916 0)
(2.90812 0.0115715 0)
(2.90577 0.00955265 0)
(2.90467 0.00735249 0)
(2.90578 0.00470012 0)
(2.91343 0.00304004 0)
(2.9285 0.0036801 0)
(2.94075 0.00534528 0)
(2.94323 0.00568231 0)
(2.94226 0.00556611 0)
(2.94024 0.0050788 0)
(2.93516 0.00359719 0)
(2.93066 0.00193207 0)
(2.92957 0.00165027 0)
(2.92826 0.00138878 0)
(2.92896 0.00139048 0)
(2.93628 0.00235795 0)
(2.95141 0.00426675 0)
(2.96341 0.00481669 0)
(2.96633 0.00379598 0)
(2.9661 0.00282457 0)
(2.96371 -4.20581e-05 0)
(2.95909 -0.00470587 0)
(2.9559 -0.00800939 0)
(2.9553 -0.00892267 0)
(2.95498 -0.0105118 0)
(2.95518 -0.0124008 0)
(2.95613 -0.0139618 0)
(2.95838 -0.0150286 0)
(2.9623 -0.0155744 0)
(2.96731 -0.0161091 0)
(2.97259 -0.0174107 0)
(2.97885 -0.0197797 0)
(2.98798 -0.0232678 0)
(2.99865 -0.0271216 0)
(3.00401 -0.0293634 0)
(3.00415 -0.0299887 0)
(3.00326 -0.0306172 0)
(3.00152 -0.0323291 0)
(3.00093 -0.0331766 0)
(3.0004 -0.0342234 0)
(3.00132 -0.0361305 0)
(3.00759 -0.036516 0)
(3.01828 -0.0349075 0)
(3.0223 -0.0373738 0)
(3.01896 -0.0415253 0)
(3.01568 -0.0446813 0)
(3.01196 -0.0472776 0)
(3.00682 -0.0498012 0)
(3.00326 -0.0511573 0)
(3.00202 -0.0517273 0)
(3.00028 -0.0519854 0)
(2.99855 -0.052391 0)
(3.00017 -0.0530936 0)
(3.0099 -0.0515568 0)
(3.02229 -0.0482716 0)
(3.02466 -0.0478944 0)
(3.02255 -0.0485513 0)
(3.01963 -0.0508055 0)
(3.01722 -0.0520353 0)
(3.01468 -0.0529775 0)
(3.01279 -0.0547385 0)
(3.01197 -0.0575104 0)
(3.012 -0.0608348 0)
(3.01183 -0.0640065 0)
(3.01172 -0.066719 0)
(3.00978 -0.0721675 0)
(3.00288 -0.0763299 0)
(2.99688 -0.0778294 0)
(2.99149 -0.0789393 0)
(2.98688 -0.0792423 0)
(2.983 -0.0795551 0)
(2.98185 -0.0792731 0)
(2.9881 -0.0760871 0)
(3.00416 -0.068362 0)
(3.01677 -0.0628497 0)
(3.01651 -0.0631231 0)
(3.01428 -0.0641365 0)
(3.01147 -0.0656686 0)
(3.00197 -0.0692839 0)
(2.98407 -0.076136 0)
(2.9686 -0.0809807 0)
(2.96504 -0.0814832 0)
(2.96416 -0.0815561 0)
(2.96278 -0.0818569 0)
(2.9617 -0.0816833 0)
(2.96257 -0.0800704 0)
(2.96799 -0.075802 0)
(2.98083 -0.067334 0)
(2.9984 -0.0569195 0)
(3.00557 -0.053317 0)
(3.00236 -0.0544116 0)
(2.99664 -0.0558182 0)
(2.99065 -0.0583829 0)
(2.98515 -0.0616394 0)
(2.97806 -0.0651189 0)
(2.96989 -0.0713974 0)
(2.96428 -0.0767064 0)
(2.96258 -0.077759 0)
(2.96119 -0.0782655 0)
(2.95946 -0.079331 0)
(2.95837 -0.0803593 0)
(2.95857 -0.0802488 0)
(2.96043 -0.0772419 0)
(2.9624 -0.0720175 0)
(2.96258 -0.0687038 0)
(2.96232 -0.0670703 0)
(2.96054 -0.0641501 0)
(2.9558 -0.0608408 0)
(2.95006 -0.0611467 0)
(2.9478 -0.0620681 0)
(2.94667 -0.0628525 0)
(2.94507 -0.0647974 0)
(2.94452 -0.0673413 0)
(2.94736 -0.0687086 0)
(2.95666 -0.0666357 0)
(2.9676 -0.0622743 0)
(2.96938 -0.0605873 0)
(2.9685 -0.0605814 0)
(2.96739 -0.0617366 0)
(2.96499 -0.0655289 0)
(2.95952 -0.070823 0)
(2.94981 -0.0756437 0)
(2.93656 -0.0779746 0)
(2.93076 -0.0787532 0)
(2.92885 -0.0791335 0)
(2.92595 -0.0791995 0)
(2.92407 -0.0779468 0)
(2.92455 -0.0750472 0)
(2.92853 -0.0704857 0)
(2.93715 -0.0650176 0)
(2.95113 -0.0587536 0)
(2.96214 -0.0533513 0)
(2.96414 -0.0513764 0)
(2.96407 -0.0507122 0)
(2.9632 -0.0506404 0)
(2.96058 -0.0526784 0)
(2.95434 -0.0553443 0)
(2.94016 -0.0569626 0)
(2.91833 -0.0579411 0)
(2.9071 -0.0596456 0)
(2.90457 -0.0610851 0)
(2.90037 -0.0659404 0)
(2.8982 -0.0710513 0)
(2.89964 -0.0736374 0)
(2.90456 -0.0745788 0)
(2.91387 -0.0761635 0)
(2.92983 -0.0793798 0)
(2.94303 -0.0816132 0)
(2.94556 -0.0815871 0)
(2.94989 -0.0791426 0)
(2.95413 -0.0726662 0)
(2.9548 -0.0642789 0)
(2.94647 -0.0549752 0)
(2.94132 -0.0514171 0)
(2.93046 -0.0490185 0)
(2.91929 -0.0424195 0)
(2.91293 -0.0386359 0)
(2.90599 -0.0376216 0)
(2.90515 -0.0384174 0)
(2.91402 -0.0422641 0)
(2.91868 -0.0446931 0)
(2.92142 -0.0477379 0)
(2.92739 -0.0557892 0)
(2.9368 -0.0690976 0)
(2.94567 -0.081539 0)
(2.93187 -0.0869035 0)
(2.9016 -0.0908943 0)
(2.887 -0.093623 0)
(2.88693 -0.0922498 0)
(2.88754 -0.0903684 0)
(2.88935 -0.0853709 0)
(2.89183 -0.0748368 0)
(2.89485 -0.0619647 0)
(2.90093 -0.0511382 0)
(2.91607 -0.045243 0)
(2.93053 -0.0437088 0)
(2.92761 -0.0435565 0)
(2.92311 -0.043429 0)
(2.9192 -0.042158 0)
(2.91573 -0.040614 0)
(2.91137 -0.0390856 0)
(2.90662 -0.0377536 0)
(2.90071 -0.0372937 0)
(2.83938 0.0695161 0)
(2.83753 0.0670675 0)
(2.83211 0.06157 0)
(2.82891 0.0558769 0)
(2.8299 0.052873 0)
(2.83136 0.0508883 0)
(2.83279 0.0492604 0)
(2.83517 0.0481043 0)
(2.83853 0.0476182 0)
(2.84304 0.0483495 0)
(2.84835 0.0498153 0)
(2.8533 0.0520337 0)
(2.85662 0.0541086 0)
(2.85794 0.054809 0)
(2.85847 0.0545364 0)
(2.85941 0.0532449 0)
(2.86018 0.051638 0)
(2.86023 0.0498606 0)
(2.85813 0.0468707 0)
(2.85594 0.0433481 0)
(2.85699 0.0418351 0)
(2.85857 0.0407831 0)
(2.86055 0.0395927 0)
(2.86354 0.038682 0)
(2.86817 0.0373777 0)
(2.87378 0.034904 0)
(2.87806 0.0323736 0)
(2.87887 0.0314112 0)
(2.87881 0.0312002 0)
(2.87823 0.0317187 0)
(2.87785 0.0339137 0)
(2.87923 0.0384104 0)
(2.88302 0.0435692 0)
(2.88587 0.0450802 0)
(2.88649 0.044403 0)
(2.88658 0.0432752 0)
(2.88645 0.0406679 0)
(2.88631 0.0376719 0)
(2.88627 0.0354632 0)
(2.88624 0.0336517 0)
(2.88585 0.0317005 0)
(2.88503 0.0293329 0)
(2.8846 0.0273613 0)
(2.88486 0.0263142 0)
(2.88572 0.0253941 0)
(2.88794 0.0252383 0)
(2.89382 0.0280957 0)
(2.90454 0.0341896 0)
(2.91365 0.0377032 0)
(2.91574 0.0370718 0)
(2.91495 0.0357165 0)
(2.91278 0.0329718 0)
(2.90743 0.0276615 0)
(2.90123 0.023042 0)
(2.89918 0.0224249 0)
(2.89708 0.0225754 0)
(2.89629 0.0230763 0)
(2.89911 0.0246739 0)
(2.90717 0.0290116 0)
(2.91402 0.0313761 0)
(2.91491 0.0304795 0)
(2.91451 0.0293164 0)
(2.91309 0.0266552 0)
(2.91181 0.0222455 0)
(2.91202 0.0193068 0)
(2.91262 0.0183353 0)
(2.91346 0.0174045 0)
(2.91515 0.0163768 0)
(2.92061 0.0162286 0)
(2.93083 0.0177264 0)
(2.93707 0.0183592 0)
(2.9358 0.0178591 0)
(2.93373 0.017283 0)
(2.92904 0.0160721 0)
(2.9192 0.0138515 0)
(2.91143 0.0116951 0)
(2.90965 0.0107695 0)
(2.90825 0.00917984 0)
(2.90985 0.0070906 0)
(2.91933 0.00532163 0)
(2.93661 0.00477471 0)
(2.94837 0.00448295 0)
(2.95025 0.00401216 0)
(2.94944 0.00365365 0)
(2.94736 0.00272658 0)
(2.94325 0.00162239 0)
(2.94051 0.00163043 0)
(2.93979 0.00186847 0)
(2.93896 0.00230055 0)
(2.94029 0.00283689 0)
(2.94827 0.00358308 0)
(2.96286 0.0038813 0)
(2.97255 0.00269395 0)
(2.97389 0.00123513 0)
(2.9731 -0.00011451 0)
(2.96954 -0.00370889 0)
(2.96468 -0.0084883 0)
(2.96252 -0.0105617 0)
(2.96199 -0.011357 0)
(2.96161 -0.0127107 0)
(2.96184 -0.0138455 0)
(2.96333 -0.0146156 0)
(2.9669 -0.0145746 0)
(2.97206 -0.0141752 0)
(2.97688 -0.015141 0)
(2.98079 -0.0177971 0)
(2.98552 -0.0212511 0)
(2.99357 -0.0250642 0)
(3.00448 -0.0283844 0)
(3.01081 -0.0300587 0)
(3.01108 -0.0304114 0)
(3.01038 -0.0307269 0)
(3.00912 -0.031725 0)
(3.00848 -0.0323032 0)
(3.00798 -0.0329461 0)
(3.00992 -0.0344256 0)
(3.01791 -0.034197 0)
(3.02634 -0.0332386 0)
(3.02805 -0.0363935 0)
(3.02427 -0.0415237 0)
(3.01965 -0.0461764 0)
(3.01524 -0.0494028 0)
(3.01025 -0.051387 0)
(3.00688 -0.0516879 0)
(3.00562 -0.0511545 0)
(3.00466 -0.0507153 0)
(3.00469 -0.0499565 0)
(3.00954 -0.0480705 0)
(3.02178 -0.0454165 0)
(3.03223 -0.0460991 0)
(3.03293 -0.0486912 0)
(3.03065 -0.049886 0)
(3.02714 -0.0518079 0)
(3.0245 -0.052953 0)
(3.02118 -0.0540077 0)
(3.0184 -0.0555178 0)
(3.01658 -0.0571555 0)
(3.01597 -0.0597815 0)
(3.01677 -0.0633311 0)
(3.01691 -0.0668874 0)
(3.01492 -0.070239 0)
(3.01095 -0.0734892 0)
(3.00522 -0.0759548 0)
(2.99931 -0.0767723 0)
(2.99422 -0.0774003 0)
(2.99053 -0.0778176 0)
(2.99138 -0.0768042 0)
(3.00225 -0.0720633 0)
(3.01985 -0.0655505 0)
(3.02463 -0.0647135 0)
(3.02154 -0.0660722 0)
(3.01792 -0.0683122 0)
(3.01175 -0.0720912 0)
(2.99782 -0.0785313 0)
(2.97996 -0.0843899 0)
(2.97063 -0.0840195 0)
(2.96831 -0.0822687 0)
(2.96706 -0.0810246 0)
(2.96613 -0.0804144 0)
(2.96521 -0.0798827 0)
(2.96715 -0.0783712 0)
(2.97672 -0.0726211 0)
(2.99481 -0.0612439 0)
(3.00989 -0.0544426 0)
(3.01304 -0.0536857 0)
(3.01006 -0.0545841 0)
(3.00496 -0.0558163 0)
(2.9987 -0.0582466 0)
(2.99172 -0.0618404 0)
(2.98053 -0.0684655 0)
(2.97139 -0.0764726 0)
(2.96733 -0.0793385 0)
(2.96498 -0.0800115 0)
(2.96262 -0.0806556 0)
(2.96119 -0.0812941 0)
(2.96155 -0.0808036 0)
(2.96486 -0.0778499 0)
(2.97021 -0.0726167 0)
(2.97102 -0.0695167 0)
(2.96964 -0.0685743 0)
(2.96879 -0.0676967 0)
(2.96646 -0.0657 0)
(2.96081 -0.0631545 0)
(2.95401 -0.0640049 0)
(2.95067 -0.0661957 0)
(2.95016 -0.0668059 0)
(2.94944 -0.0682167 0)
(2.94894 -0.0704795 0)
(2.95063 -0.0717644 0)
(2.95819 -0.0691642 0)
(2.97003 -0.0622787 0)
(2.97295 -0.0584332 0)
(2.97201 -0.0581271 0)
(2.97092 -0.0591391 0)
(2.96874 -0.0644378 0)
(2.9633 -0.0721391 0)
(2.95551 -0.0776886 0)
(2.94508 -0.0776807 0)
(2.93656 -0.0751815 0)
(2.9346 -0.0746649 0)
(2.93198 -0.0740087 0)
(2.93042 -0.0723148 0)
(2.93057 -0.0703954 0)
(2.93278 -0.0687921 0)
(2.93923 -0.0663861 0)
(2.95265 -0.0627636 0)
(2.96498 -0.0591407 0)
(2.96777 -0.0572535 0)
(2.96789 -0.0567136 0)
(2.96724 -0.0562677 0)
(2.96416 -0.0574409 0)
(2.95697 -0.0595719 0)
(2.94345 -0.0598519 0)
(2.92373 -0.0572363 0)
(2.91096 -0.0563851 0)
(2.90874 -0.0572176 0)
(2.90523 -0.0618307 0)
(2.90361 -0.0689205 0)
(2.9051 -0.0736855 0)
(2.9092 -0.0753196 0)
(2.91652 -0.0768084 0)
(2.92995 -0.0807775 0)
(2.94436 -0.0855927 0)
(2.94869 -0.0866027 0)
(2.95046 -0.0855985 0)
(2.95461 -0.0802739 0)
(2.95591 -0.0712625 0)
(2.95055 -0.0581245 0)
(2.94493 -0.0510633 0)
(2.9381 -0.046452 0)
(2.92555 -0.0366104 0)
(2.91929 -0.0299573 0)
(2.91487 -0.0281876 0)
(2.91442 -0.0303029 0)
(2.92125 -0.0367508 0)
(2.92647 -0.0407522 0)
(2.92842 -0.0433993 0)
(2.93198 -0.0524109 0)
(2.93647 -0.0674251 0)
(2.9423 -0.0862757 0)
(2.93302 -0.0975261 0)
(2.90602 -0.100493 0)
(2.89301 -0.100961 0)
(2.89144 -0.100592 0)
(2.8912 -0.0990385 0)
(2.89206 -0.0938111 0)
(2.8944 -0.0829 0)
(2.89805 -0.0678255 0)
(2.90398 -0.0537113 0)
(2.91729 -0.0428532 0)
(2.93269 -0.0364029 0)
(2.93125 -0.0345444 0)
(2.92677 -0.0342752 0)
(2.92323 -0.0338298 0)
(2.92064 -0.0335655 0)
(2.91685 -0.0335013 0)
(2.91083 -0.033714 0)
(2.90355 -0.0371433 0)
(2.83758 0.0687209 0)
(2.83278 0.0635111 0)
(2.82681 0.0563379 0)
(2.82647 0.0525209 0)
(2.82792 0.0508366 0)
(2.82929 0.049267 0)
(2.8314 0.0479217 0)
(2.83464 0.0472261 0)
(2.83942 0.0484541 0)
(2.84572 0.0511726 0)
(2.85188 0.053925 0)
(2.85611 0.0557479 0)
(2.85773 0.0562176 0)
(2.85815 0.0559854 0)
(2.85888 0.0549562 0)
(2.85975 0.0532447 0)
(2.86035 0.0512136 0)
(2.86003 0.0487497 0)
(2.85747 0.0459916 0)
(2.85498 0.043293 0)
(2.85594 0.041586 0)
(2.8575 0.040297 0)
(2.85939 0.0385593 0)
(2.86225 0.036674 0)
(2.86705 0.0343084 0)
(2.87298 0.0320687 0)
(2.87841 0.0305927 0)
(2.88151 0.0302933 0)
(2.88231 0.031574 0)
(2.88228 0.0343711 0)
(2.88291 0.0387216 0)
(2.88492 0.0426821 0)
(2.88632 0.0439579 0)
(2.88667 0.0437353 0)
(2.88677 0.042877 0)
(2.88658 0.0410202 0)
(2.88647 0.0390359 0)
(2.88671 0.0374124 0)
(2.88705 0.0358258 0)
(2.88721 0.0341131 0)
(2.88676 0.0318788 0)
(2.8859 0.0294219 0)
(2.88578 0.0278654 0)
(2.88614 0.0271337 0)
(2.88756 0.0264433 0)
(2.89195 0.0278082 0)
(2.90137 0.0327071 0)
(2.91155 0.0367791 0)
(2.91581 0.036764 0)
(2.91608 0.035767 0)
(2.91482 0.0333871 0)
(2.91089 0.028525 0)
(2.9056 0.0238698 0)
(2.90333 0.0230898 0)
(2.90127 0.0235326 0)
(2.8997 0.0245247 0)
(2.90117 0.0264654 0)
(2.90805 0.0308369 0)
(2.91592 0.0333242 0)
(2.91818 0.0321613 0)
(2.91793 0.0308287 0)
(2.91687 0.0287925 0)
(2.91502 0.0244944 0)
(2.91411 0.0200597 0)
(2.91465 0.0183987 0)
(2.91539 0.0176433 0)
(2.91694 0.0167781 0)
(2.92087 0.0161585 0)
(2.92974 0.0168099 0)
(2.94059 0.0180235 0)
(2.94367 0.0177925 0)
(2.94136 0.0172389 0)
(2.93871 0.0162949 0)
(2.93284 0.0147864 0)
(2.92278 0.0124887 0)
(2.91666 0.0111005 0)
(2.91533 0.0108059 0)
(2.91403 0.0101166 0)
(2.9159 0.00915045 0)
(2.92607 0.00788292 0)
(2.94395 0.00599156 0)
(2.95543 0.00382514 0)
(2.95699 0.00270431 0)
(2.95609 0.00225186 0)
(2.95425 0.00126571 0)
(2.95162 0.000836303 0)
(2.95052 0.00146287 0)
(2.95024 0.00194204 0)
(2.95017 0.00270303 0)
(2.95205 0.0032508 0)
(2.95983 0.0031796 0)
(2.9733 0.00194196 0)
(2.98136 -0.000102499 0)
(2.98165 -0.00157734 0)
(2.98047 -0.00288327 0)
(2.9763 -0.00617009 0)
(2.97192 -0.0101582 0)
(2.97059 -0.0114124 0)
(2.96917 -0.0130129 0)
(2.96816 -0.0145808 0)
(2.96819 -0.0154521 0)
(2.97038 -0.0152331 0)
(2.97484 -0.014352 0)
(2.9792 -0.0148634 0)
(2.98205 -0.0173227 0)
(2.98479 -0.0206273 0)
(2.98961 -0.0240237 0)
(2.99873 -0.0268285 0)
(3.01053 -0.029075 0)
(3.01693 -0.030763 0)
(3.01669 -0.0313784 0)
(3.01542 -0.0317456 0)
(3.01428 -0.0323159 0)
(3.01323 -0.0326794 0)
(3.01293 -0.033112 0)
(3.01608 -0.03345 0)
(3.02522 -0.032595 0)
(3.03086 -0.0335259 0)
(3.03078 -0.0366974 0)
(3.02751 -0.0410862 0)
(3.02174 -0.0449625 0)
(3.01648 -0.0486128 0)
(3.01184 -0.0508684 0)
(3.00877 -0.0513857 0)
(3.00714 -0.0512456 0)
(3.00647 -0.050681 0)
(3.00871 -0.0489205 0)
(3.01725 -0.0453622 0)
(3.03098 -0.0421516 0)
(3.03904 -0.0432647 0)
(3.03903 -0.046037 0)
(3.03652 -0.0478576 0)
(3.03272 -0.050202 0)
(3.03009 -0.0520861 0)
(3.02724 -0.0536401 0)
(3.02454 -0.0559369 0)
(3.02275 -0.0580506 0)
(3.02158 -0.060116 0)
(3.02139 -0.0627464 0)
(3.02135 -0.0660859 0)
(3.02014 -0.0695017 0)
(3.01685 -0.0720216 0)
(3.01207 -0.0734696 0)
(3.00707 -0.0743004 0)
(3.00213 -0.0745164 0)
(2.99899 -0.0744254 0)
(3.00204 -0.0727654 0)
(3.01627 -0.0683915 0)
(3.03014 -0.0657499 0)
(3.02986 -0.0665556 0)
(3.02612 -0.0678438 0)
(3.02197 -0.0703683 0)
(3.01259 -0.0750469 0)
(2.99615 -0.0843954 0)
(2.98066 -0.0899382 0)
(2.97403 -0.0884174 0)
(2.97169 -0.0857794 0)
(2.97051 -0.0832646 0)
(2.9696 -0.0810902 0)
(2.96962 -0.0793481 0)
(2.97434 -0.0761081 0)
(2.98932 -0.0674902 0)
(3.00867 -0.0574709 0)
(3.01631 -0.0547406 0)
(3.01694 -0.0556535 0)
(3.01484 -0.0566182 0)
(3.01091 -0.0569274 0)
(3.00565 -0.058432 0)
(2.99464 -0.0634025 0)
(2.98243 -0.0732172 0)
(2.97575 -0.0784502 0)
(2.97108 -0.0799324 0)
(2.96705 -0.0810841 0)
(2.96446 -0.0822226 0)
(2.96378 -0.0827342 0)
(2.9671 -0.080497 0)
(2.97549 -0.0738277 0)
(2.98071 -0.0682461 0)
(2.97863 -0.0674603 0)
(2.97684 -0.0674525 0)
(2.97534 -0.0670446 0)
(2.97188 -0.0658979 0)
(2.96497 -0.065356 0)
(2.957 -0.0683071 0)
(2.95285 -0.0725214 0)
(2.95233 -0.0738743 0)
(2.95194 -0.0756325 0)
(2.95142 -0.0768354 0)
(2.95185 -0.076043 0)
(2.95743 -0.0722205 0)
(2.9697 -0.0640248 0)
(2.97692 -0.0581504 0)
(2.97717 -0.0573258 0)
(2.9767 -0.0577483 0)
(2.97548 -0.061468 0)
(2.97147 -0.0675054 0)
(2.96497 -0.0712728 0)
(2.95534 -0.0717427 0)
(2.94378 -0.0703306 0)
(2.93767 -0.0697835 0)
(2.93659 -0.0698315 0)
(2.93545 -0.0700264 0)
(2.93504 -0.0696557 0)
(2.93588 -0.0689893 0)
(2.94087 -0.0687281 0)
(2.9527 -0.0673698 0)
(2.9685 -0.0630914 0)
(2.9745 -0.0596452 0)
(2.97464 -0.059039 0)
(2.97348 -0.0580522 0)
(2.96988 -0.0574418 0)
(2.96286 -0.0577341 0)
(2.95095 -0.0571493 0)
(2.93302 -0.0541177 0)
(2.91624 -0.0529905 0)
(2.91131 -0.0548965 0)
(2.90871 -0.0598287 0)
(2.90712 -0.0692854 0)
(2.90817 -0.0771232 0)
(2.91138 -0.0798739 0)
(2.91812 -0.0807969 0)
(2.92991 -0.0835342 0)
(2.94617 -0.0876368 0)
(2.95453 -0.0889392 0)
(2.95581 -0.0883148 0)
(2.95896 -0.0838016 0)
(2.96095 -0.0744703 0)
(2.95768 -0.0620124 0)
(2.94833 -0.0471506 0)
(2.94319 -0.043115 0)
(2.93202 -0.0345492 0)
(2.92522 -0.0258848 0)
(2.92163 -0.0237026 0)
(2.92065 -0.0271696 0)
(2.92565 -0.0373924 0)
(2.93163 -0.0456221 0)
(2.93369 -0.0485543 0)
(2.93621 -0.0578201 0)
(2.93666 -0.072965 0)
(2.93602 -0.092108 0)
(2.93076 -0.106719 0)
(2.91107 -0.109001 0)
(2.89904 -0.107906 0)
(2.89767 -0.107417 0)
(2.89642 -0.105006 0)
(2.89659 -0.098568 0)
(2.89925 -0.0875659 0)
(2.90373 -0.0721837 0)
(2.90985 -0.0556342 0)
(2.9218 -0.0405021 0)
(2.93527 -0.0301775 0)
(2.93444 -0.0274297 0)
(2.93142 -0.0270873 0)
(2.92892 -0.027078 0)
(2.92559 -0.0275845 0)
(2.92034 -0.0291225 0)
(2.91229 -0.0311409 0)
(2.90451 -0.038195 0)
(2.83423 0.0658656 0)
(2.82712 0.0583092 0)
(2.82417 0.053119 0)
(2.82533 0.0513489 0)
(2.82659 0.0499613 0)
(2.82805 0.048553 0)
(2.83083 0.0474346 0)
(2.83532 0.047857 0)
(2.84222 0.0506295 0)
(2.85002 0.054689 0)
(2.85527 0.0571758 0)
(2.85738 0.0574668 0)
(2.8577 0.0571223 0)
(2.85819 0.0563428 0)
(2.8591 0.0551523 0)
(2.86009 0.0538243 0)
(2.86059 0.0521537 0)
(2.85961 0.0495864 0)
(2.85667 0.0458701 0)
(2.85476 0.0423202 0)
(2.85566 0.0400801 0)
(2.8572 0.0382294 0)
(2.85908 0.0359823 0)
(2.86155 0.0336628 0)
(2.86614 0.0315447 0)
(2.87309 0.0306452 0)
(2.88031 0.0316384 0)
(2.88499 0.0339811 0)
(2.88725 0.0368246 0)
(2.88808 0.0397174 0)
(2.88796 0.0416412 0)
(2.8875 0.0423057 0)
(2.88715 0.0424683 0)
(2.88719 0.0418981 0)
(2.88725 0.0404282 0)
(2.8872 0.039401 0)
(2.88731 0.0386256 0)
(2.88777 0.0374266 0)
(2.88823 0.0358334 0)
(2.88833 0.0339142 0)
(2.88776 0.031801 0)
(2.88742 0.0301989 0)
(2.8877 0.0295057 0)
(2.88862 0.0287956 0)
(2.89165 0.0290463 0)
(2.89909 0.0323134 0)
(2.90917 0.0362586 0)
(2.91485 0.0367942 0)
(2.91595 0.0358522 0)
(2.9157 0.0334811 0)
(2.91345 0.0287278 0)
(2.90907 0.023742 0)
(2.90676 0.0225494 0)
(2.90535 0.0229954 0)
(2.90411 0.0239432 0)
(2.90515 0.0260406 0)
(2.91043 0.0315879 0)
(2.91774 0.0360221 0)
(2.92092 0.0348833 0)
(2.92102 0.0322703 0)
(2.92034 0.0302046 0)
(2.91873 0.0270785 0)
(2.91723 0.0223422 0)
(2.91683 0.0192662 0)
(2.91733 0.0179507 0)
(2.91857 0.016868 0)
(2.92157 0.01609 0)
(2.92844 0.0164797 0)
(2.9399 0.0185598 0)
(2.94897 0.0194161 0)
(2.94919 0.0183222 0)
(2.94663 0.0174579 0)
(2.94362 0.0159846 0)
(2.93675 0.0133582 0)
(2.92829 0.0101001 0)
(2.9248 0.00927721 0)
(2.92325 0.00930796 0)
(2.92192 0.00925869 0)
(2.92405 0.0090804 0)
(2.93417 0.00864579 0)
(2.95102 0.00695206 0)
(2.96236 0.00411037 0)
(2.96393 0.00225811 0)
(2.96251 0.00156943 0)
(2.96108 0.000590108 0)
(2.95998 -6.42674e-06 0)
(2.95982 0.000183283 0)
(2.95991 0.000829978 0)
(2.96053 0.00153693 0)
(2.96288 0.00198259 0)
(2.97028 0.00171532 0)
(2.98288 0.000155511 0)
(2.98996 -0.00220435 0)
(2.98967 -0.00363899 0)
(2.98822 -0.00511803 0)
(2.98403 -0.00851988 0)
(2.98106 -0.0112216 0)
(2.97951 -0.0119525 0)
(2.97728 -0.0130466 0)
(2.97553 -0.0137365 0)
(2.97538 -0.0138353 0)
(2.97765 -0.0135752 0)
(2.98074 -0.0143926 0)
(2.98255 -0.0168207 0)
(2.98389 -0.020006 0)
(2.98654 -0.0235264 0)
(2.99291 -0.0265647 0)
(3.00466 -0.0276242 0)
(3.01692 -0.0276695 0)
(3.02176 -0.0286198 0)
(3.02081 -0.0297779 0)
(3.01915 -0.030481 0)
(3.01774 -0.0308266 0)
(3.01679 -0.0309154 0)
(3.017 -0.0309204 0)
(3.02037 -0.0316678 0)
(3.02822 -0.0330876 0)
(3.03305 -0.0365963 0)
(3.03181 -0.0394033 0)
(3.02809 -0.0410286 0)
(3.02286 -0.0434569 0)
(3.018 -0.046812 0)
(3.0139 -0.0491709 0)
(3.01065 -0.0499882 0)
(3.00862 -0.0500665 0)
(3.00815 -0.0498603 0)
(3.01151 -0.0487741 0)
(3.02147 -0.0463542 0)
(3.0353 -0.044049 0)
(3.04216 -0.0440799 0)
(3.04226 -0.0450129 0)
(3.04089 -0.0462427 0)
(3.03739 -0.048528 0)
(3.03318 -0.0520254 0)
(3.03168 -0.0538701 0)
(3.02969 -0.0568073 0)
(3.02865 -0.0599379 0)
(3.02883 -0.0623079 0)
(3.0287 -0.0636851 0)
(3.02727 -0.0652627 0)
(3.02456 -0.0675555 0)
(3.0212 -0.0698286 0)
(3.01757 -0.0709059 0)
(3.01319 -0.0706542 0)
(3.00915 -0.0701556 0)
(3.00728 -0.0697426 0)
(3.01211 -0.0689193 0)
(3.02589 -0.0677007 0)
(3.0369 -0.0674957 0)
(3.03604 -0.0688662 0)
(3.03212 -0.070456 0)
(3.02726 -0.0735338 0)
(3.0143 -0.0792615 0)
(2.99609 -0.0876905 0)
(2.98611 -0.0905357 0)
(2.9817 -0.0896249 0)
(2.97695 -0.0873616 0)
(2.97442 -0.0842487 0)
(2.9734 -0.0814698 0)
(2.975 -0.0780103 0)
(2.98423 -0.0721034 0)
(3.00374 -0.0626833 0)
(3.01799 -0.0570537 0)
(3.02012 -0.0569076 0)
(3.01979 -0.0573065 0)
(3.01877 -0.057986 0)
(3.01559 -0.0585683 0)
(3.00721 -0.0610012 0)
(2.99405 -0.0686887 0)
(2.98597 -0.0744982 0)
(2.98105 -0.0775851 0)
(2.97468 -0.0800686 0)
(2.97044 -0.0816039 0)
(2.96759 -0.0829228 0)
(2.96852 -0.0825778 0)
(2.97634 -0.0770868 0)
(2.98772 -0.0677502 0)
(2.98866 -0.0642121 0)
(2.98619 -0.0640416 0)
(2.98412 -0.0639794 0)
(2.98186 -0.0637429 0)
(2.97674 -0.0637862 0)
(2.96821 -0.0666589 0)
(2.95933 -0.0730579 0)
(2.95552 -0.0780345 0)
(2.95495 -0.0794897 0)
(2.95453 -0.0821905 0)
(2.954 -0.0834317 0)
(2.95424 -0.0815823 0)
(2.9586 -0.0765884 0)
(2.96952 -0.0659363 0)
(2.98097 -0.056299 0)
(2.98393 -0.0541333 0)
(2.9842 -0.0543596 0)
(2.98399 -0.0561733 0)
(2.98101 -0.0600428 0)
(2.97565 -0.0623249 0)
(2.96517 -0.0641163 0)
(2.94948 -0.0675145 0)
(2.94001 -0.0710707 0)
(2.93891 -0.0720563 0)
(2.93848 -0.0731246 0)
(2.93907 -0.0741997 0)
(2.94116 -0.0749075 0)
(2.94483 -0.0752457 0)
(2.95277 -0.0748244 0)
(2.96729 -0.071693 0)
(2.97979 -0.0644362 0)
(2.98178 -0.0594763 0)
(2.9806 -0.0573277 0)
(2.97735 -0.0546008 0)
(2.97152 -0.0521338 0)
(2.96113 -0.0506028 0)
(2.94335 -0.0482744 0)
(2.92359 -0.0480196 0)
(2.91465 -0.0532036 0)
(2.911 -0.0604147 0)
(2.90948 -0.0704118 0)
(2.90955 -0.0798436 0)
(2.91213 -0.0845381 0)
(2.91908 -0.0853424 0)
(2.93152 -0.0872397 0)
(2.94902 -0.0907503 0)
(2.96138 -0.0907498 0)
(2.96513 -0.0877216 0)
(2.9665 -0.0835726 0)
(2.96855 -0.0740094 0)
(2.96622 -0.0613453 0)
(2.95488 -0.0478058 0)
(2.94302 -0.0397521 0)
(2.93716 -0.036799 0)
(2.92978 -0.0293794 0)
(2.92686 -0.0250462 0)
(2.92671 -0.026458 0)
(2.92973 -0.0366082 0)
(2.93432 -0.0498432 0)
(2.93627 -0.053523 0)
(2.93924 -0.0622023 0)
(2.93902 -0.0779266 0)
(2.93339 -0.096114 0)
(2.92718 -0.109911 0)
(2.91618 -0.111364 0)
(2.90583 -0.107936 0)
(2.90425 -0.10707 0)
(2.90239 -0.104817 0)
(2.90181 -0.0981571 0)
(2.90454 -0.087174 0)
(2.90959 -0.0724321 0)
(2.91634 -0.0560997 0)
(2.92825 -0.0393377 0)
(2.93823 -0.0275126 0)
(2.93677 -0.0249927 0)
(2.93543 -0.0244554 0)
(2.93319 -0.023969 0)
(2.92904 -0.0255554 0)
(2.92253 -0.0280285 0)
(2.9124 -0.0304979 0)
(2.90459 -0.0404416 0)
(2.82949 0.0603837 0)
(2.82394 0.0542037 0)
(2.82413 0.0522395 0)
(2.82525 0.0513461 0)
(2.82624 0.0503132 0)
(2.82789 0.0492848 0)
(2.83129 0.0488485 0)
(2.83784 0.050664 0)
(2.84726 0.0545414 0)
(2.85446 0.0576444 0)
(2.85705 0.0585086 0)
(2.8574 0.0584479 0)
(2.85779 0.0577625 0)
(2.85873 0.0564473 0)
(2.85987 0.0549282 0)
(2.86079 0.0533446 0)
(2.8608 0.0512422 0)
(2.8588 0.0476872 0)
(2.85556 0.0429777 0)
(2.85464 0.0393252 0)
(2.85594 0.0372584 0)
(2.8577 0.0356561 0)
(2.85935 0.0340492 0)
(2.86205 0.0326908 0)
(2.86734 0.0317575 0)
(2.87547 0.0326596 0)
(2.88465 0.036209 0)
(2.88983 0.0393554 0)
(2.89118 0.0404375 0)
(2.89076 0.0405473 0)
(2.89005 0.0405779 0)
(2.8892 0.0407304 0)
(2.8884 0.0403027 0)
(2.88829 0.0396826 0)
(2.88839 0.0391691 0)
(2.88842 0.0388131 0)
(2.88869 0.0384139 0)
(2.88922 0.0374041 0)
(2.88962 0.0356012 0)
(2.88942 0.0332008 0)
(2.88953 0.031107 0)
(2.89033 0.0303921 0)
(2.89107 0.0302543 0)
(2.89339 0.0310879 0)
(2.89885 0.0340142 0)
(2.90708 0.0367112 0)
(2.9133 0.0359314 0)
(2.91545 0.0340034 0)
(2.91576 0.0315523 0)
(2.91467 0.0270623 0)
(2.91182 0.0228673 0)
(2.91028 0.0218524 0)
(2.90924 0.0219295 0)
(2.90849 0.0227744 0)
(2.90979 0.0256604 0)
(2.91457 0.031541 0)
(2.92074 0.0364937 0)
(2.92339 0.0364731 0)
(2.92365 0.0343151 0)
(2.92346 0.0308896 0)
(2.92225 0.028145 0)
(2.92065 0.0246483 0)
(2.91951 0.0212954 0)
(2.91965 0.0192916 0)
(2.92059 0.017986 0)
(2.92278 0.0168305 0)
(2.92763 0.0164451 0)
(2.9373 0.0179717 0)
(2.95004 0.0198767 0)
(2.95629 0.0193325 0)
(2.95508 0.0179553 0)
(2.95249 0.0166683 0)
(2.94857 0.0147241 0)
(2.94082 0.0112992 0)
(2.93491 0.00892304 0)
(2.93294 0.00878519 0)
(2.93069 0.00881379 0)
(2.92993 0.00853017 0)
(2.93297 0.00819978 0)
(2.94321 0.00841857 0)
(2.95878 0.00845062 0)
(2.96943 0.00648355 0)
(2.97117 0.00373484 0)
(2.96947 0.00173483 0)
(2.96799 0.000343001 0)
(2.96738 -0.000510144 0)
(2.96753 -0.000935432 0)
(2.96814 -0.000999166 0)
(2.96923 -0.00092169 0)
(2.97194 -0.000923451 0)
(2.97925 -0.0013467 0)
(2.99138 -0.00262497 0)
(2.99792 -0.00460055 0)
(2.99738 -0.00571221 0)
(2.9958 -0.00695677 0)
(2.99236 -0.00929765 0)
(2.99087 -0.0101129 0)
(2.98865 -0.0106693 0)
(2.98635 -0.0112871 0)
(2.98458 -0.011852 0)
(2.98392 -0.0130662 0)
(2.9837 -0.0155791 0)
(2.98326 -0.0184805 0)
(2.98305 -0.0213837 0)
(2.98394 -0.0243512 0)
(2.9877 -0.0270921 0)
(2.99739 -0.0282052 0)
(3.01223 -0.0269462 0)
(3.02314 -0.0259828 0)
(3.02545 -0.0269181 0)
(3.02389 -0.0281114 0)
(3.02203 -0.0289111 0)
(3.02067 -0.0293755 0)
(3.02015 -0.0296419 0)
(3.02075 -0.0301538 0)
(3.02332 -0.0318389 0)
(3.0292 -0.0355877 0)
(3.03363 -0.039104 0)
(3.03158 -0.0398846 0)
(3.02865 -0.0402381 0)
(3.0246 -0.0417226 0)
(3.02061 -0.0444875 0)
(3.01691 -0.0468847 0)
(3.01349 -0.0482891 0)
(3.01117 -0.0488228 0)
(3.01057 -0.048886 0)
(3.01384 -0.0483073 0)
(3.02352 -0.0468897 0)
(3.03632 -0.0454571 0)
(3.04246 -0.0452271 0)
(3.04311 -0.0454194 0)
(3.04243 -0.0461614 0)
(3.03956 -0.0482798 0)
(3.03589 -0.0513063 0)
(3.03447 -0.0530708 0)
(3.03367 -0.0550469 0)
(3.03348 -0.0584946 0)
(3.03523 -0.0623023 0)
(3.03642 -0.065173 0)
(3.0349 -0.066195 0)
(3.03172 -0.0666416 0)
(3.02812 -0.0676308 0)
(3.02456 -0.0684479 0)
(3.0209 -0.0678795 0)
(3.01745 -0.0665543 0)
(3.01572 -0.0657159 0)
(3.01959 -0.0661838 0)
(3.03194 -0.0677865 0)
(3.04236 -0.0697707 0)
(3.04101 -0.0711654 0)
(3.03733 -0.0726341 0)
(3.03125 -0.0761546 0)
(3.01631 -0.0830716 0)
(3.00109 -0.0894391 0)
(2.99659 -0.0900401 0)
(2.98932 -0.0895263 0)
(2.98312 -0.0878464 0)
(2.97931 -0.085411 0)
(2.97806 -0.0821823 0)
(2.98218 -0.0770649 0)
(2.99635 -0.0687533 0)
(3.01524 -0.0608557 0)
(3.02236 -0.0591716 0)
(3.02299 -0.0593875 0)
(3.02352 -0.0598602 0)
(3.0224 -0.060631 0)
(3.01696 -0.0623645 0)
(3.00521 -0.0674207 0)
(2.99419 -0.0726902 0)
(2.99079 -0.0738062 0)
(2.98481 -0.0764397 0)
(2.97901 -0.0791891 0)
(2.97441 -0.0806594 0)
(2.9719 -0.0811323 0)
(2.9755 -0.0790942 0)
(2.98843 -0.0714305 0)
(2.99797 -0.064064 0)
(2.99594 -0.0625327 0)
(2.9935 -0.0623557 0)
(2.99119 -0.0622046 0)
(2.98739 -0.0622235 0)
(2.97998 -0.0641953 0)
(2.96944 -0.0697811 0)
(2.96093 -0.0774049 0)
(2.9586 -0.0810691 0)
(2.95816 -0.082918 0)
(2.95749 -0.0864872 0)
(2.95669 -0.0889922 0)
(2.95722 -0.0876769 0)
(2.96194 -0.0804229 0)
(2.97353 -0.066992 0)
(2.98713 -0.0539081 0)
(2.99154 -0.049719 0)
(2.99233 -0.0492435 0)
(2.99266 -0.0500931 0)
(2.99027 -0.052805 0)
(2.98347 -0.0560179 0)
(2.97024 -0.0603876 0)
(2.95196 -0.0664943 0)
(2.94124 -0.0732507 0)
(2.94006 -0.0757887 0)
(2.94054 -0.0775915 0)
(2.94147 -0.0799536 0)
(2.94299 -0.0820765 0)
(2.9461 -0.0829016 0)
(2.95277 -0.0814212 0)
(2.96667 -0.0762888 0)
(2.9824 -0.0661728 0)
(2.98796 -0.0568912 0)
(2.98788 -0.0527737 0)
(2.98586 -0.0490564 0)
(2.98151 -0.0458479 0)
(2.97154 -0.0454076 0)
(2.95085 -0.0466148 0)
(2.92795 -0.0500919 0)
(2.91771 -0.0556091 0)
(2.91391 -0.0618559 0)
(2.91204 -0.0704399 0)
(2.91078 -0.0806503 0)
(2.91184 -0.0883035 0)
(2.91838 -0.0909722 0)
(2.93375 -0.090873 0)
(2.95487 -0.0900972 0)
(2.96875 -0.0879732 0)
(2.97268 -0.0851787 0)
(2.97379 -0.0821382 0)
(2.97565 -0.0741059 0)
(2.97394 -0.0615917 0)
(2.96152 -0.0493675 0)
(2.94394 -0.0413959 0)
(2.93874 -0.0394836 0)
(2.93266 -0.0343985 0)
(2.93039 -0.0295641 0)
(2.92951 -0.0300025 0)
(2.93103 -0.0372657 0)
(2.93591 -0.0521888 0)
(2.9379 -0.0589163 0)
(2.93998 -0.0650204 0)
(2.94074 -0.0756634 0)
(2.93512 -0.0912168 0)
(2.92748 -0.106634 0)
(2.92241 -0.108191 0)
(2.91298 -0.101814 0)
(2.90941 -0.0989685 0)
(2.9083 -0.0975528 0)
(2.90756 -0.0927644 0)
(2.90947 -0.0849833 0)
(2.91346 -0.0750499 0)
(2.91964 -0.0626712 0)
(2.93156 -0.0463492 0)
(2.94017 -0.0333344 0)
(2.939 -0.0302656 0)
(2.93823 -0.0293641 0)
(2.936 -0.027627 0)
(2.93161 -0.0273602 0)
(2.92363 -0.0279759 0)
(2.91183 -0.030372 0)
(2.90454 -0.0404023 0)
(2.82551 0.0558918 0)
(2.82401 0.0536485 0)
(2.82488 0.052968 0)
(2.82582 0.0522917 0)
(2.82671 0.0514651 0)
(2.82866 0.0507623 0)
(2.83362 0.0511729 0)
(2.84315 0.054393 0)
(2.85315 0.0583188 0)
(2.85721 0.0595857 0)
(2.85784 0.0595118 0)
(2.85796 0.0590173 0)