/*--------------------------------*- C++ -*----------------------------------*\
  =========                 |
  \\      /  F ield         | OpenFOAM: The Open Source CFD Toolbox
   \\    /   O peration     | Website:  https://openfoam.org
    \\  /    A nd           | Version:  7
     \\/     M anipulation  |
\*---------------------------------------------------------------------------*/
FoamFile
{
    version     2.0;
    format      ascii;
    class       volScalarField;
    location    "2.5";
    object      rho;
}
// * * * * * * * * * * * * * * * * * * * * * * * * * * * * * * * * * * * * * //

dimensions      [1 -3 0 0 0 0 0];

internalField   nonuniform List<scalar> 
4128
(
0.948644
0.948523
0.947723
0.945993
0.943477
0.941471
0.940165
0.939979
1.51942
2.34711
2.45789
2.46962
2.46832
2.45761
2.45644
2.45633
2.4621
2.47102
2.47641
2.47648
2.47324
2.46888
2.46397
2.45762
2.44911
2.43893
2.42985
2.42356
2.42013
2.41856
2.41797
2.41823
2.41911
2.41979
2.41891
2.41551
2.40981
2.40337
2.39819
2.39533
2.39413
2.3926
2.38881
2.38321
2.37807
2.37528
2.37701
2.38455
2.39626
2.40636
2.40882
2.40312
2.39368
2.3832
2.37186
2.36201
2.35684
2.35599
2.35481
2.3508
2.34496
2.33967
2.33674
2.3373
2.34121
2.3461
2.34926
2.34994
2.34903
2.34819
2.34988
2.35711
2.36965
2.37947
2.37672
2.36507
2.34617
2.32169
2.30007
2.28685
2.27888
2.27801
2.2861
2.29939
2.31303
2.3158
2.30817
2.29688
2.28143
2.26445
2.25065
2.24102
2.23411
2.23056
2.2307
2.23233
2.23324
2.23337
2.23301
2.23266
2.23243
2.23181
2.23079
2.22824
2.22161
2.20983
2.18964
2.16737
2.15015
2.13846
2.1311
2.1264
2.12421
2.12366
2.12418
2.12537
2.12627
2.12629
2.12478
2.12032
2.11302
2.10185
2.08745
2.07215
2.05654
2.04358
2.03546
2.03047
2.02795
0.947981
0.94927
0.94952
0.949348
0.948646
0.947432
0.946596
0.945331
1.50407
2.34514
2.46992
2.47788
2.47118
2.46516
2.46515
2.46671
2.47197
2.47702
2.47683
2.4717
2.46543
2.45991
2.45502
2.45046
2.44618
2.4417
2.43663
2.43194
2.42902
2.42826
2.42905
2.43042
2.43136
2.43146
2.43059
2.42855
2.42529
2.42138
2.41774
2.41462
2.41147
2.40726
2.40131
2.39421
2.38745
2.38279
2.38205
2.38675
2.3957
2.40252
2.40145
2.39387
2.3852
2.37812
2.37382
2.37337
2.37748
2.38366
2.38699
2.38511
2.37944
2.37271
2.36649
2.36156
2.35806
2.35549
2.3531
2.35048
2.34784
2.34626
2.34778
2.35355
2.36164
2.36537
2.36396
2.35927
2.3511
2.34114
2.32878
2.31383
2.30042
2.29208
2.28929
2.2945
2.30328
2.30699
2.30381
2.2976
2.29061
2.28318
2.27496
2.26657
2.25903
2.25281
2.24794
2.24406
2.24085
2.2377
2.23391
2.22929
2.22444
2.22
2.21566
2.21182
2.20817
2.20299
2.19659
2.18913
2.17925
2.16705
2.15409
2.14266
2.13495
2.13004
2.12587
2.12203
2.11812
2.11504
2.11331
2.11178
2.10808
2.10242
2.09642
2.08855
2.07691
2.06252
2.04834
2.0396
2.03376
0.948463
0.950214
0.951835
0.952914
0.953662
0.9542
0.95516
0.95568
1.4671
2.34703
2.49553
2.49351
2.48624
2.4909
2.49608
2.50476
2.51346
2.518
2.51694
2.51001
2.49827
2.48533
2.47432
2.46766
2.4656
2.4671
2.46918
2.46964
2.46857
2.46786
2.46932
2.47268
2.4763
2.47903
2.48081
2.48166
2.48107
2.47925
2.47752
2.47648
2.4751
2.47187
2.46603
2.4581
2.45014
2.44409
2.44118
2.44275
2.44794
2.44824
2.43673
2.42088
2.40456
2.39374
2.38939
2.39384
2.40448
2.41705
2.42702
2.43109
2.42975
2.42608
2.42233
2.41898
2.4151
2.41025
2.40466
2.39863
2.39284
2.38846
2.38664
2.38637
2.38314
2.37766
2.37349
2.37109
2.37046
2.36985
2.36663
2.35991
2.35119
2.34043
2.32932
2.32073
2.31477
2.3115
2.30937
2.30729
2.30558
2.30381
2.30145
2.29825
2.29484
2.29157
2.2881
2.28343
2.2763
2.26637
2.25386
2.24004
2.22803
2.21912
2.21234
2.20661
2.20236
2.20195
2.20527
2.20768
2.20668
2.20292
2.19661
2.18645
2.17148
2.15375
2.13814
2.12764
2.121
2.11596
2.1119
2.10936
2.10855
2.10892
2.10802
2.10435
2.0989
2.09108
2.08001
2.06862
2.05622
0.9659
0.966421
0.966741
0.966775
0.966844
0.966973
0.967637
0.968276
1.40804
2.35138
2.54064
2.53891
2.53064
2.53689
2.54169
2.54923
2.55538
2.55776
2.55747
2.55565
2.55301
2.54854
2.54157
2.53422
2.52968
2.52986
2.53501
2.54295
2.54915
2.55124
2.55014
2.54748
2.54497
2.54452
2.54674
2.5513
2.55596
2.55734
2.55498
2.55164
2.54926
2.54801
2.54625
2.54094
2.53255
2.524
2.51698
2.51279
2.51121
2.51037
2.50786
2.49959
2.489
2.47904
2.47315
2.47208
2.4741
2.47898
2.48674
2.49281
2.49208
2.48604
2.47903
2.47298
2.46853
2.46423
2.45948
2.45398
2.44767
2.44115
2.43473
2.42838
2.42223
2.41804
2.41716
2.41906
2.42066
2.41976
2.41626
2.41041
2.40272
2.39391
2.38507
2.37561
2.3661
2.3564
2.34739
2.34013
2.33528
2.3327
2.33191
2.33195
2.33207
2.33155
2.32859
2.32227
2.3142
2.30443
2.29215
2.27691
2.25987
2.24395
2.23212
2.22433
2.21935
2.21966
2.22483
2.2314
2.23614
2.23725
2.23393
2.22735
2.21606
2.19717
2.17532
2.15598
2.14109
2.13117
2.12493
2.12268
2.12491
2.12694
2.12658
2.12507
2.12249
2.11834
2.11245
2.10556
2.08924
0.988073
0.9886
0.988716
0.988696
0.988582
0.988576
0.988558
0.987559
1.32964
2.35018
2.62679
2.60834
2.59119
2.59674
2.6077
2.61714
2.61815
2.61458
2.61072
2.60946
2.61219
2.61897
2.62565
2.62696
2.62389
2.62125
2.62322
2.63164
2.64488
2.65655
2.65992
2.65342
2.64116
2.62996
2.62451
2.62663
2.63646
2.64832
2.65341
2.65022
2.64309
2.63567
2.6306
2.62736
2.62244
2.61503
2.60509
2.59255
2.58064
2.57148
2.56848
2.57019
2.56957
2.56487
2.55731
2.5489
2.54178
2.53823
2.54314
2.55522
2.56237
2.56109
2.55523
2.54474
2.53403
2.52523
2.51728
2.51064
2.50324
2.49419
2.48337
2.4716
2.46248
2.45693
2.45574
2.4579
2.46108
2.46324
2.46363
2.46129
2.45598
2.44778
2.43877
2.42929
2.41834
2.40548
2.39198
2.38157
2.37578
2.37336
2.37196
2.36941
2.36574
2.36134
2.35579
2.34811
2.33922
2.33062
2.32201
2.3118
2.29874
2.28198
2.2657
2.25566
2.24958
2.24622
2.24792
2.25542
2.26257
2.26476
2.26287
2.25743
2.24762
2.23059
2.21072
2.19283
2.17724
2.16459
2.15647
2.1523
2.15083
2.14959
2.14815
2.147
2.14633
2.1452
2.14203
2.13725
2.12208
1.01042
1.0103
1.00993
1.00924
1.00878
1.00872
1.00867
1.00902
1.22035
2.37386
2.78252
2.7113
2.68925
2.70525
2.71977
2.72895
2.72538
2.71659
2.7094
2.70624
2.70751
2.71383
2.72451
2.73327
2.73243
2.72384
2.71374
2.70962
2.71733
2.73096
2.73737
2.73245
2.72353
2.71007
2.69882
2.69286
2.69352
2.70076
2.70799
2.70661
2.69894
2.69003
2.68235
2.67739
2.67289
2.66684
2.65852
2.64786
2.63525
2.62626
2.6245
2.63038
2.63257
2.62786
2.61936
2.60703
2.59689
2.59298
2.59632
2.60652
2.61197
2.60652
2.59573
2.57746
2.55653
2.54355
2.53575
2.533
2.53474
2.53276
2.52561
2.51506
2.50291
2.49425
2.48984
2.48937
2.49341
2.49843
2.50003
2.49756
2.49153
2.48228
2.47078
2.4619
2.45375
2.44446
2.43392
2.42227
2.40969
2.39656
2.38361
2.37291
2.36479
2.35847
2.35584
2.35637
2.35794
2.35817
2.35539
2.34955
2.34019
2.32438
2.30371
2.28636
2.27544
2.26906
2.26688
2.27153
2.27767
2.27743
2.27332
2.2664
2.25588
2.24336
2.2331
2.22576
2.21823
2.2087
2.19666
2.18434
2.17498
2.16854
2.1637
2.16057
2.15921
2.15925
2.15842
2.15554
2.14395
1.03323
1.03235
1.03042
1.02832
1.02716
1.02634
1.02589
1.02988
1.14348
2.3653
2.98867
2.90028
2.82189
2.81198
2.82012
2.83222
2.8331
2.82249
2.8114
2.80485
2.80157
2.80123
2.80585
2.81323
2.81247
2.80312
2.79276
2.78642
2.78716
2.79067
2.79017
2.78365
2.77337
2.75695
2.73243
2.71577
2.70842
2.71152
2.72647
2.73838
2.73972
2.73491
2.72543
2.7147
2.7066
2.69875
2.69082
2.68256
2.6755
2.67222
2.67535
2.67902
2.67603
2.66885
2.65989
2.64837
2.63444
2.6234
2.61613
2.61183
2.61004
2.60322
2.58929
2.57043
2.55783
2.55147
2.55053
2.55754
2.56541
2.56315
2.55599
2.54694
2.5361
2.52492
2.51622
2.51079
2.5084
2.50624
2.50175
2.49613
2.49019
2.48479
2.48031
2.47848
2.47593
2.46921
2.45885
2.4433
2.42219
2.40007
2.38134
2.36655
2.35706
2.35206
2.35115
2.36029
2.37725
2.38101
2.3758
2.36856
2.35757
2.34265
2.32606
2.31134
2.29871
2.28908
2.28307
2.27917
2.27417
2.26879
2.26341
2.25913
2.25641
2.25244
2.24999
2.24972
2.2466
2.2401
2.22987
2.214
2.19642
2.18297
2.17463
2.16885
2.16345
2.15944
2.158
2.15715
2.15041
1.04709
1.04426
1.04112
1.03895
1.03723
1.03626
1.03919
1.09151
1.34724
2.16166
3.00894
3.07521
2.98652
2.9301
2.89391
2.89043
2.89125
2.88803
2.88424
2.87569
2.8629
2.84968
2.84155
2.84073
2.84313
2.84124
2.83442
2.82101
2.80267
2.79107
2.78335
2.77601
2.7661
2.75386
2.73877
2.72386
2.71748
2.72109
2.73953
2.75669
2.75614
2.74849
2.73583
2.71797
2.7053
2.69766
2.69161
2.68906
2.69114
2.69289
2.68998
2.68449
2.67723
2.66952
2.66089
2.65113
2.63931
2.62504
2.6126
2.60433
2.59705
2.58984
2.5817
2.57473
2.56947
2.56729
2.57003
2.57497
2.57379
2.56835
2.5619
2.55476
2.54707
2.53742
2.52464
2.51055
2.50006
2.49247
2.48564
2.48078
2.47962
2.48235
2.48606
2.48612
2.48132
2.47393
2.46393
2.44808
2.42516
2.39854
2.37546
2.3614
2.35325
2.34883
2.35399
2.37003
2.37618
2.37721
2.37494
2.36807
2.35665
2.34258
2.33434
2.32785
2.32092
2.31164
2.29911
2.28428
2.27116
2.25942
2.24898
2.24349
2.24333
2.25098
2.25721
2.25704
2.25349
2.24861
2.24253
2.23304
2.21814
2.20084
2.18456
2.17135
2.16141
2.153
2.14712
2.1443
2.14871
1.04797
1.04549
1.04424
1.04329
1.04264
1.04506
1.0768
1.34611
1.73751
1.94367
2.57587
2.99744
3.04307
2.9947
2.95105
2.91802
2.90819
2.90553
2.90318
2.89439
2.8784
2.86016
2.84629
2.83901
2.84052
2.83916
2.83188
2.8205
2.79802
2.77604
2.7656
2.75997
2.75816
2.75449
2.74804
2.74126
2.73603
2.73447
2.73722
2.74485
2.74784
2.74171
2.73041
2.7119
2.69375
2.68445
2.67958
2.68064
2.68819
2.69317
2.68959
2.68118
2.67097
2.66127
2.65217
2.64295
2.6331
2.62212
2.60809
2.59323
2.5839
2.57954
2.58189
2.58696
2.58762
2.5854
2.58
2.57228
2.56518
2.55962
2.55629
2.55263
2.54592
2.53778
2.52751
2.51267
2.4929
2.47501
2.46451
2.45941
2.45875
2.46687
2.48009
2.48426
2.47916
2.47139
2.46088
2.44343
2.41982
2.3993
2.38452
2.37284
2.3647
2.36255
2.36635
2.36555
2.3599
2.35399
2.34821
2.34343
2.34081
2.33962
2.33792
2.33565
2.33184
2.32514
2.31478
2.29836
2.2752
2.25538
2.24462
2.23759
2.23316
2.2335
2.23682
2.24063
2.24456
2.2456
2.24185
2.2366
2.22931
2.21845
2.20341
2.18431
2.16588
2.15416
2.14662
2.14236
2.14275
1.04824
1.04788
1.04805
1.04868
1.05132
1.07869
1.28347
1.72582
1.97271
1.95997
2.08571
2.56771
2.93515
3.00324
2.96914
2.93496
2.92046
2.91896
2.91474
2.90461
2.8861
2.86105
2.83967
2.82692
2.82482
2.82895
2.82428
2.81331
2.79402
2.76817
2.75092
2.74404
2.74336
2.74992
2.75453
2.7518
2.74782
2.74285
2.73687
2.73326
2.72814
2.72197
2.71266
2.69735
2.67831
2.66511
2.6582
2.6574
2.66747
2.67883
2.6771
2.66852
2.6559
2.64212
2.63315
2.62666
2.6218
2.61539
2.60596
2.59341
2.58207
2.57611
2.57435
2.57905
2.58718
2.58929
2.58353
2.57192
2.55586
2.54424
2.53741
2.53444
2.53428
2.53055
2.52275
2.51042
2.48953
2.46576
2.45163
2.4449
2.44146
2.44422
2.45353
2.46074
2.45957
2.45306
2.44246
2.42604
2.40875
2.3977
2.39078
2.38634
2.38405
2.38007
2.37203
2.36098
2.34824
2.33402
2.32174
2.31473
2.31349
2.31982
2.32914
2.33399
2.33142
2.32505
2.31664
2.30381
2.2873
2.26919
2.25226
2.23903
2.2298
2.22249
2.21695
2.21296
2.21233
2.21706
2.22652
2.23216
2.22968
2.22412
2.21686
2.20591
2.1893
2.16893
2.15292
2.14581
2.13809
1.05031
1.0524
1.05459
1.05724
1.07387
1.25446
1.67399
1.94536
1.99618
1.9805
1.96312
2.07974
2.51151
2.87925
2.94481
2.93338
2.91846
2.9154
2.91217
2.90078
2.88106
2.85472
2.83088
2.81345
2.80306
2.79908
2.79761
2.79354
2.78577
2.76982
2.75007
2.73792
2.73233
2.73149
2.73643
2.74412
2.74803
2.74628
2.7397
2.72572
2.70822
2.69446
2.68321
2.67215
2.66157
2.65021
2.64117
2.6374
2.6393
2.64291
2.64403
2.64078
2.63349
2.62343
2.61342
2.60657
2.60231
2.60076
2.5978
2.59141
2.58102
2.57051
2.56491
2.56324
2.5664
2.57144
2.56911
2.56021
2.54596
2.5302
2.5198
2.51346
2.51206
2.51055
2.50475
2.49624
2.48164
2.46206
2.44392
2.43312
2.42765
2.42588
2.42742
2.43019
2.43053
2.42539
2.41556
2.40502
2.39881
2.39525
2.39422
2.39338
2.39126
2.38614
2.37603
2.35952
2.33863
2.3183
2.30513
2.29889
2.2962
2.29977
2.30603
2.31075
2.31291
2.31093
2.30454
2.29661
2.29037
2.28362
2.27278
2.25534
2.23343
2.21642
2.20373
2.19411
2.18782
2.18546
2.19224
2.20907
2.22382
2.2256
2.21995
2.21329
2.20471
2.19142
2.17119
2.14999
2.13395
1.05603
1.05805
1.05931
1.06912
1.20604
1.63945
1.92281
1.98757
1.98388
1.97028
1.9526
1.95389
2.06445
2.47495
2.83347
2.90759
2.90245
2.89365
2.88698
2.87576
2.85828
2.83622
2.81606
2.79822
2.78283
2.77095
2.76253
2.75639
2.75287
2.74964
2.74368
2.73437
2.72501
2.71855
2.71546
2.71653
2.72112
2.72331
2.71753
2.70531
2.6856
2.66431
2.65075
2.64314
2.63811
2.63481
2.6314
2.6274
2.62253
2.61672
2.61079
2.60692
2.60509
2.60216
2.59691
2.5921
2.58978
2.59004
2.58922
2.58492
2.57736
2.56666
2.55645
2.54935
2.54314
2.53877
2.53661
2.53378
2.52684
2.51779
2.50831
2.50077
2.49561
2.49145
2.48578
2.47872
2.46999
2.45754
2.4433
2.4303
2.42152
2.4149
2.40808
2.40142
2.39641
2.39428
2.3933
2.39126
2.38968
2.39035
2.39295
2.39384
2.39013
2.38223
2.36952
2.35034
2.32941
2.31418
2.304
2.29766
2.29461
2.29255
2.28865
2.2841
2.28038
2.27865
2.2798
2.28396
2.28763
2.2877
2.28342
2.27352
2.25257
2.22015
2.19586
2.18461
2.17758
2.17275
2.17298
2.18236
2.19811
2.21157
2.21718
2.21461
2.20827
2.1999
2.18744
2.16884
2.13723
1.05722
1.05793
1.06303
1.1616
1.57309
1.92442
1.97393
1.96689
1.95456
1.94622
1.93902
1.93542
1.94291
2.05299
2.46186
2.77785
2.86746
2.87434
2.86437
2.84964
2.83203
2.81186
2.79114
2.77496
2.76139
2.74974
2.738
2.72686
2.71964
2.71565
2.71715
2.72011
2.71727
2.71046
2.70253
2.69605
2.69078
2.68643
2.68204
2.67425
2.6616
2.64508
2.63251
2.62586
2.62414
2.62747
2.62898
2.62378
2.61318
2.60038
2.59025
2.58356
2.58015
2.5812
2.5838
2.58548
2.58649
2.58677
2.58461
2.57881
2.57061
2.55936
2.54448
2.53025
2.52
2.51271
2.50837
2.50898
2.51247
2.51162
2.50587
2.49811
2.48943
2.48125
2.47367
2.46801
2.46346
2.45749
2.44976
2.43766
2.42009
2.40381
2.39052
2.38118
2.37564
2.37426
2.37925
2.38556
2.38796
2.38825
2.38656
2.38203
2.37455
2.3637
2.35181
2.34376
2.33787
2.33149
2.32141
2.30779
2.29464
2.28462
2.27291
2.26143
2.25393
2.25087
2.25458
2.26577
2.28034
2.28853
2.28474
2.278
2.26636
2.2434
2.21364
2.18996
2.17783
2.17217
2.17022
2.17114
2.17571
2.18406
2.19343
2.20079
2.202
2.19606
2.18665
2.17477
2.14337
1.05737
1.05855
1.13055
1.48161
1.89573
1.99011
1.98676
1.95534
1.93237
1.92634
1.92487
1.92218
1.92032
1.92661
2.03979
2.42689
2.73273
2.83341
2.83449
2.82689
2.81805
2.80128
2.77937
2.75743
2.74216
2.72985
2.71808
2.70556
2.69546
2.69033
2.69182
2.69842
2.70415
2.70211
2.69362
2.68117
2.66771
2.65653
2.64872
2.64403
2.64026
2.63421
2.62728
2.62246
2.62193
2.62515
2.62561
2.61903
2.60862
2.5958
2.58539
2.57906
2.57503
2.574
2.57666
2.5792
2.57942
2.57747
2.57385
2.56783
2.55881
2.54571
2.53087
2.51884
2.51068
2.50498
2.50053
2.49781
2.49945
2.50431
2.50515
2.49942
2.4885
2.47384
2.4659
2.46143
2.45951
2.45738
2.45092
2.44123
2.42613
2.40486
2.38792
2.37925
2.37363
2.37033
2.37337
2.38262
2.3877
2.38393
2.37652
2.36647
2.35507
2.34663
2.34113
2.3395
2.34198
2.34344
2.33929
2.32938
2.30942
2.28096
2.26118
2.25121
2.24526
2.24121
2.24333
2.2539
2.26651
2.27493
2.27877
2.2763
2.26958
2.26075
2.24518
2.22451
2.20319
2.18551
2.17558
2.17192
2.17029
2.16842
2.16775
2.16866
2.17173
2.17495
2.17373
2.16631
2.15268
1.05628
1.09771
1.41291
1.82168
1.98112
1.98447
1.97459
1.94929
1.92266
1.9104
1.90798
1.90714
1.90197
1.89541
1.89594
2.0085
2.40407
2.70359
2.78878
2.80933
2.81257
2.79535
2.77444
2.74861
2.72819
2.71276
2.70039
2.68956
2.68274
2.68092
2.68179
2.68301
2.68495
2.68781
2.6838
2.67084
2.65186
2.63667
2.62741
2.62246
2.62316
2.62962
2.63127
2.62873
2.62595
2.62556
2.62588
2.62355
2.61729
2.60811
2.59577
2.58346
2.57559
2.57207
2.57007
2.56616
2.56166
2.55754
2.55392
2.55123
2.54975
2.54757
2.54051
2.53059
2.51851
2.5072
2.49986
2.49553
2.49272
2.49119
2.49188
2.48997
2.48312
2.47467
2.46513
2.45853
2.45468
2.45204
2.44898
2.44407
2.43661
2.42469
2.40726
2.38963
2.37868
2.37404
2.37504
2.38051
2.38306
2.37934
2.37148
2.36085
2.3501
2.34191
2.3363
2.33461
2.33821
2.34191
2.34096
2.33594
2.32595
2.30533
2.27801
2.25663
2.24584
2.24147
2.24391
2.25239
2.25696
2.25741
2.25783
2.26038
2.26454
2.26535
2.26154
2.2558
2.24663
2.23239
2.21223
2.18912
2.17186
2.16208
2.15405
2.14643
2.14127
2.14028
2.14548
2.1551
2.15501
1.07916
1.33302
1.78822
1.93018
1.95793
1.95195
1.94493
1.9369
1.92512
1.90797
1.89609
1.89006
1.88415
1.87707
1.87426
1.87866
2.00609
2.40667
2.67254
2.76642
2.78067
2.78514
2.77415
2.75311
2.72128
2.70084
2.68995
2.68634
2.68586
2.68333
2.67792
2.67234
2.66805
2.66778
2.67268
2.67231
2.66147
2.6414
2.62483
2.6178
2.61459
2.61758
2.62825
2.63525
2.6349
2.63133
2.62721
2.62233
2.61747
2.61287
2.60839
2.6024
2.5926
2.57921
2.56438
2.55386
2.54718
2.54279
2.5412
2.5432
2.54755
2.55124
2.55164
2.54764
2.54039
2.5294
2.51447
2.49918
2.48857
2.48158
2.47733
2.47607
2.47794
2.47541
2.46871
2.46152
2.45526
2.4498
2.44666
2.44489
2.44256
2.43862
2.43257
2.42354
2.41145
2.39885
2.3897
2.38432
2.38112
2.37671
2.37039
2.36236
2.35334
2.34524
2.33906
2.33528
2.33439
2.33374
2.33302
2.33144
2.32744
2.32092
2.31145
2.29739
2.28276
2.27158
2.26516
2.26091
2.25692
2.25254
2.24796
2.24545
2.24689
2.25402
2.26499
2.27138
2.27173
2.26661
2.2557
2.23525
2.20301
2.16902
2.1468
2.13614
2.12883
2.12365
2.12235
2.12834
2.14523
1.24639
1.741
1.94103
1.93093
1.92401
1.92215
1.92393
1.92437
1.9194
1.90634
1.88865
1.87778
1.87212
1.86802
1.86872
1.87774
1.88318
2.02128
2.42248
2.66388
2.7407
2.7549
2.75854
2.74792
2.72994
2.70695
2.69427
2.6902
2.69716
2.6982
2.68789
2.67291
2.66339
2.6597
2.66184
2.67092
2.67419
2.66641
2.64821
2.62718
2.61733
2.61498
2.61977
2.63053
2.64005
2.64088
2.63459
2.62615
2.61931
2.61512
2.61433
2.61448
2.61126
2.60226
2.5872
2.56678
2.54863
2.53854
2.5341
2.53586
2.54463
2.55573
2.56301
2.56392
2.55954
2.55197
2.53986
2.52204
2.50218
2.48579
2.47542
2.46982
2.46923
2.47321
2.47556
2.47253
2.4663
2.45937
2.45287
2.44724
2.44407
2.44552
2.44942
2.45039
2.44655
2.43855
2.42478
2.40584
2.39078
2.38319
2.37929
2.37757
2.37359
2.36675
2.35829
2.34843
2.33923
2.33202
2.3265
2.32261
2.3234
2.32923
2.33366
2.33433
2.33171
2.32421
2.30918
2.28728
2.26668
2.2537
2.24669
2.24308
2.24342
2.24924
2.25974
2.27183
2.27942
2.2797
2.27459
2.26485
2.2448
2.21326
2.17775
2.14783
2.1303
2.12309
2.11974
2.12176
2.13672
1.62146
1.93631
1.96027
1.93614
1.91116
1.90571
1.90515
1.90684
1.90766
1.90179
1.89098
1.87733
1.87066
1.86634
1.86519
1.87195
1.88177
1.88901
2.02921
2.40393
2.65224
2.71698
2.72355
2.73107
2.73219
2.7204
2.70868
2.70302
2.70717
2.71427
2.71108
2.69957
2.67994
2.6631
2.6573
2.66153
2.67672
2.68793
2.68568
2.6743
2.65496
2.63899
2.63262
2.63311
2.64106
2.64781
2.64875
2.64433
2.6367
2.6292
2.62333
2.6203
2.62032
2.61918
2.61304
2.60213
2.58525
2.56787
2.55699
2.55326
2.55776
2.5674
2.57603
2.57941
2.57607
2.56902
2.55945
2.54746
2.53373
2.51873
2.50462
2.49378
2.48747
2.48637
2.4863
2.4845
2.4817
2.47817
2.47337
2.46774
2.46348
2.46261
2.46518
2.46839
2.4688
2.46481
2.45728
2.44377
2.42519
2.40901
2.4003
2.39566
2.39448
2.39077
2.38403
2.3753
2.36387
2.35121
2.34081
2.33435
2.33367
2.34085
2.35235
2.36249
2.36606
2.36214
2.35288
2.3339
2.30833
2.28596
2.27043
2.26072
2.25561
2.2565
2.26405
2.27194
2.27692
2.27883
2.27727
2.27149
2.26171
2.24835
2.23055
2.20742
2.18066
2.15667
2.14131
2.1364
2.13991
1.87571
1.95158
1.94378
1.93012
1.91381
1.90172
1.89552
1.89146
1.89225
1.89883
1.8987
1.88965
1.87488
1.86684
1.86353
1.86355
1.86929
1.88109
1.89313
2.02525
2.38096
2.64787
2.70066
2.7151
2.72944
2.74281
2.73851
2.73
2.7252
2.72546
2.72991
2.72832
2.71882
2.70037
2.68171
2.67411
2.67765
2.69315
2.70772
2.71194
2.70652
2.69427
2.67795
2.66451
2.65737
2.65477
2.65815
2.6625
2.66395
2.65915
2.64982
2.63999
2.63272
2.62962
2.6313
2.63194
2.6272
2.6198
2.60992
2.59951
2.59225
2.58762
2.58735
2.59065
2.59116
2.58594
2.57745
2.56846
2.56062
2.55319
2.54716
2.54279
2.53714
2.52749
2.51594
2.50671
2.50021
2.49596
2.49364
2.49234
2.49111
2.48976
2.48868
2.48686
2.48396
2.48056
2.47589
2.46945
2.46207
2.45274
2.44265
2.43561
2.4297
2.42221
2.41361
2.40401
2.39334
2.38264
2.37388
2.36768
2.36494
2.36779
2.37651
2.38441
2.38638
2.3832
2.37634
2.36428
2.34758
2.33145
2.31769
2.30577
2.29666
2.29126
2.28752
2.28308
2.27925
2.27555
2.27177
2.26939
2.26868
2.26773
2.26462
2.25834
2.24682
2.22921
2.20704
2.18605
2.16648
1.92638
1.93137
1.93232
1.93259
1.92546
1.90739
1.89134
1.88482
1.8814
1.88609
1.89947
1.90391
1.89601
1.87952
1.86672
1.86133
1.86058
1.86772
1.88289
1.90389
2.02536
2.35815
2.63837
2.72143
2.75405
2.76832
2.76533
2.75666
2.74708
2.7434
2.74301
2.74573
2.74696
2.74083
2.7301
2.71838
2.71363
2.71591
2.72295
2.73208
2.73837
2.73656
2.72869
2.7147
2.69656
2.68262
2.67568
2.67448
2.67951
2.68518
2.68418
2.67613
2.66565
2.65835
2.65604
2.66072
2.66749
2.67029
2.66652
2.65671
2.63973
2.62122
2.61059
2.60504
2.60412
2.60477
2.60211
2.59666
2.59194
2.59056
2.59327
2.5953
2.59037
2.57983
2.56369
2.54508
2.53123
2.52281
2.51694
2.51483
2.51573
2.51658
2.51436
2.50891
2.50268
2.49679
2.49214
2.48933
2.48767
2.48523
2.48133
2.4776
2.4727
2.46545
2.45653
2.44626
2.43597
2.42681
2.41879
2.41202
2.40709
2.40464
2.40421
2.4034
2.40097
2.39703
2.39098
2.38274
2.37542
2.37037
2.36599
2.36081
2.35298
2.34117
2.32528
2.30795
2.29318
2.28335
2.27755
2.27534
2.27667
2.28085
2.28638
2.29118
2.29204
2.28682
2.27541
2.25807
2.22153
1.91901
1.91397
1.91735
1.92828
1.93465
1.92593
1.9056
1.88626
1.87968
1.8796
1.88944
1.90587
1.91112
1.90319
1.88526
1.86919
1.86278
1.8631
1.87337
1.8891
1.91415
2.02557
2.3202
2.62624
2.75418
2.79683
2.7984
2.78628
2.77197
2.76475
2.76095
2.76008
2.76495
2.77093
2.7709
2.76605
2.76025
2.75414
2.74997
2.75101
2.75774
2.76519
2.76538
2.75831
2.74506
2.72581
2.70742
2.69777
2.69395
2.6978
2.70561
2.7078
2.70244
2.69702
2.6957
2.6995
2.70459
2.70621
2.70274
2.69524
2.68188
2.66196
2.64232
2.62969
2.62293
2.62102
2.62406
2.62728
2.63014
2.6347
2.63911
2.63802
2.63172
2.62262
2.60814
2.58941
2.57124
2.55728
2.54782
2.5412
2.53914
2.53942
2.53675
2.53147
2.52566
2.52008
2.51533
2.51187
2.50997
2.50951
2.51019
2.51135
2.51015
2.50589
2.50025
2.49296
2.48459
2.47682
2.46956
2.46165
2.45207
2.44076
2.42927
2.41955
2.41152
2.40502
2.40047
2.39831
2.39849
2.40135
2.40559
2.40601
2.39995
2.38901
2.37131
2.34743
2.3225
2.30294
2.29269
2.2888
2.28862
2.29356
2.30143
2.30971
2.31746
2.32175
2.31923
2.31101
2.28277
1.92534
1.91173
1.90792
1.91198
1.92635
1.93645
1.93075
1.91358
1.89384
1.88612
1.88685
1.89806
1.91338
1.91857
1.91212
1.89737
1.88225
1.87487
1.87467
1.88459
1.89645
1.92132
2.01026
2.25844
2.58602
2.75038
2.83213
2.82403
2.81657
2.79301
2.78292
2.77912
2.78612
2.79656
2.80256
2.80358
2.79936
2.79025
2.78123
2.77668
2.77717
2.78346
2.78932
2.78798
2.78101
2.76875
2.75033
2.73112
2.72013
2.71548
2.71758
2.72662
2.73476
2.73888
2.74213
2.74161
2.73513
2.72804
2.7215
2.71408
2.7048
2.69349
2.67979
2.66549
2.65517
2.64967
2.65088
2.65937
2.66795
2.67227
2.67126
2.66584
2.65849
2.64915
2.63785
2.6256
2.6122
2.59791
2.58557
2.57646
2.57008
2.56522
2.56008
2.55488
2.54982
2.54486
2.54003
2.5356
2.53227
2.53115
2.53353
2.53791
2.54008
2.53874
2.53553
2.53106
2.52489
2.51773
2.51037
2.50175
2.49045
2.47534
2.45693
2.43855
2.42469
2.41663
2.41229
2.4125
2.4174
2.42341
2.42787
2.42959
2.42732
2.4208
2.4106
2.39431
2.37283
2.34863
2.32643
2.31299
2.30799
2.30657
2.30928
2.31451
2.32115
2.32844
2.33519
2.33851
2.32658
1.93228
1.91655
1.90657
1.90478
1.91493
1.93547
1.948
1.94528
1.93162
1.91196
1.90087
1.898
1.9066
1.92116
1.92952
1.92798
1.91957
1.90801
1.89877
1.89342
1.89352
1.90232
1.92485
1.98533
2.17694
2.48108
2.73766
2.81683
2.85886
2.83394
2.82183
2.80936
2.81086
2.81655
2.81973
2.82575
2.82726
2.82103
2.81156
2.80466
2.7999
2.7992
2.80295
2.80657
2.80498
2.79856
2.78783
2.77104
2.75302
2.743
2.73881
2.74353
2.75978
2.77518
2.7783
2.77271
2.7614
2.74443
2.72931
2.71992
2.71374
2.71042
2.708
2.70316
2.69758
2.69395
2.69482
2.69979
2.70247
2.69803
2.69068
2.68165
2.67115
2.66132
2.65426
2.64867
2.64261
2.63509
2.62657
2.6181
2.60894
2.59892
2.58958
2.58235
2.57671
2.57167
2.56655
2.56151
2.55729
2.55484
2.55517
2.55791
2.55996
2.55917
2.5561
2.55196
2.54674
2.53991
2.53285
2.52564
2.51684
2.50478
2.48884
2.4706
2.45335
2.44135
2.4354
2.43352
2.43494
2.4354
2.43455
2.43456
2.4362
2.43758
2.43485
2.42905
2.42069
2.40717
2.38626
2.35868
2.33339
2.32021
2.31465
2.31104
2.31011
2.31664
2.32947
2.34577
2.35186
1.95175
1.93876
1.92338
1.9148
1.91459
1.9279
1.94807
1.96127
1.96125
1.95084
1.93268
1.91889
1.91237
1.91655
1.93183
1.94367
1.94772
1.94325
1.93281
1.9203
1.90962
1.90236
1.90819
1.93291
1.96748
2.09706
2.37731
2.65478
2.80259
2.85636
2.86576
2.85873
2.84918
2.8416
2.83572
2.83776
2.84464
2.84265
2.83743
2.83199
2.82488
2.81908
2.81725
2.81948
2.82226
2.82028
2.81417
2.80513
2.79102
2.77751
2.77045
2.76971
2.77972
2.79406
2.79731
2.79131
2.78128
2.76363
2.7418
2.72707
2.72051
2.71821
2.72315
2.73255
2.7401
2.74439
2.7451
2.73998
2.73057
2.71858
2.70456
2.69015
2.67823
2.67013
2.66458
2.66153
2.66122
2.66256
2.66253
2.6582
2.64992
2.63919
2.62697
2.61516
2.60614
2.59986
2.59475
2.5899
2.58506
2.58039
2.57584
2.5713
2.56796
2.56512
2.56112
2.55649
2.5511
2.54519
2.54065
2.537
2.53365
2.52878
2.52168
2.51187
2.49937
2.48363
2.46642
2.45317
2.44525
2.43896
2.43439
2.43231
2.4344
2.44127
2.44926
2.45498
2.45556
2.45116
2.44102
2.41844
2.3804
2.34255
2.32123
2.31238
2.30827
2.30925
2.31885
2.34181
2.3651
1.95913
1.95827
1.95051
1.94168
1.93546
1.93355
1.94192
1.95809
1.97248
1.97619
1.96909
1.95563
1.94324
1.9365
1.937
1.94599
1.95507
1.9597
1.95717
1.94818
1.93657
1.92628
1.92077
1.92574
1.94463
1.96374
2.04212
2.24599
2.52629
2.76976
2.84197
2.8984
2.88989
2.88313
2.86923
2.85724
2.85685
2.85341
2.85397
2.85466
2.85099
2.84328
2.83766
2.8361
2.83656
2.8366
2.83409
2.82951
2.82314
2.81416
2.80591
2.80096
2.80021
2.80308
2.80545
2.80219
2.79506
2.78421
2.76698
2.74814
2.73731
2.73327
2.73682
2.75129
2.769
2.77945
2.77849
2.77125
2.75883
2.74131
2.72168
2.70374
2.69044
2.68187
2.67562
2.67218
2.67354
2.67947
2.68575
2.68728
2.68244
2.67465
2.66481
2.65278
2.63995
2.62948
2.62249
2.61672
2.61036
2.6025
2.59263
2.58197
2.57305
2.56634
2.56045
2.55483
2.54978
2.54589
2.54342
2.54254
2.54438
2.54928
2.55269
2.5502
2.5433
2.53075
2.50887
2.47957
2.4554
2.44277
2.43608
2.432
2.43231
2.44156
2.45754
2.47188
2.4787
2.47744
2.47174
2.45827
2.4277
2.38454
2.34701
2.32545
2.31656
2.31349
2.32084
2.3445
2.37196
1.96826
1.97437
1.97881
1.97542
1.96595
1.95626
1.94982
1.95217
1.96687
1.98255
1.99116
1.98871
1.97968
1.96864
1.96027
1.95542
1.95493
1.95924
1.96543
1.96824
1.96473
1.95864
1.95123
1.94664
1.94503
1.94685
1.95695
1.99826
2.12625
2.39629
2.65595
2.83452
2.88887
2.91279
2.90908
2.89235
2.87946
2.86626
2.86445
2.86825
2.87256
2.86918
2.86417
2.86039
2.85706
2.85402
2.85079
2.84819
2.84603
2.84253
2.83697
2.82972
2.82251
2.81622
2.81229
2.81095
2.80809
2.80255
2.79535
2.78373
2.77058
2.76276
2.76113
2.76672
2.77768
2.78739
2.78968
2.78556
2.77738
2.76424
2.74763
2.7305
2.71522
2.70306
2.69459
2.68942
2.68849
2.69252
2.6983
2.70236
2.70315
2.69956
2.69309
2.68494
2.67421
2.66124
2.6488
2.63883
2.62991
2.62037
2.60944
2.59759
2.58607
2.57583
2.56639
2.55792
2.55208
2.54854
2.54691
2.5476
2.55259
2.56217
2.5722
2.57523
2.57088
2.56243
2.54622
2.51761
2.48308
2.45824
2.44692
2.44168
2.44038
2.44881
2.46543
2.48029
2.4886
2.48885
2.4834
2.47178
2.45104
2.42323
2.39298
2.36446
2.34487
2.3381
2.34209
2.35601
2.36204
1.9927
1.99457
1.99744
1.99894
1.99666
1.9876
1.97722
1.96926
1.96746
1.97829
1.99486
2.00647
2.00646
1.99769
1.98437
1.97087
1.9621
1.95741
1.96167
1.97487
1.98662
1.98883
1.98356
1.97187
1.95739
1.94728
1.9444
1.95145
1.97325
2.04814
2.24024
2.52355
2.77849
2.86161
2.92621
2.92349
2.90989
2.89705
2.88155
2.88216
2.88825
2.89208
2.89257
2.88887
2.88255
2.87625
2.87076
2.86612
2.86263
2.86033
2.8577
2.85239
2.84445
2.836
2.82885
2.82458
2.82348
2.82328
2.82211
2.81856
2.81182
2.80164
2.79111
2.78398
2.7796
2.77991
2.78407
2.78623
2.78402
2.77965
2.77322
2.76332
2.75118
2.7387
2.7273
2.71821
2.71229
2.70941
2.70879
2.70985
2.71199
2.71322
2.71058
2.70469
2.69729
2.6864
2.67115
2.65572
2.64382
2.63413
2.6248
2.61613
2.60841
2.59989
2.58924
2.57696
2.56594
2.55958
2.55611
2.55504
2.5576
2.56443
2.57336
2.57963
2.57978
2.57515
2.56618
2.55036
2.5257
2.49623
2.47288
2.46259
2.45986
2.46461
2.47506
2.48383
2.48662
2.48489
2.47924
2.47045
2.45955
2.4483
2.43689
2.42278
2.40581
2.38753
2.37406
2.36649
2.35773
2.02353
2.0196
2.01423
2.01137
2.01474
2.01813
2.01151
2.00194
1.99331
1.98948
1.99438
2.00636
2.01523
2.01368
2.00409
1.98903
1.97511
1.96772
1.9661
1.97865
1.99637
2.00361
2.00099
1.99209
1.97581
1.95812
1.94898
1.9467
1.95579
1.98212
2.02368
2.13241
2.37398
2.62224
2.82831
2.88963
2.91915
2.92884
2.90968
2.91561
2.90963
2.91148
2.91471
2.91133
2.9066
2.89903
2.89298
2.88654
2.87935
2.87453
2.87116
2.8685
2.86473
2.85858
2.85184
2.84726
2.84593
2.84602
2.84615
2.846
2.84308
2.83585
2.8234
2.80547
2.78874
2.77986
2.77624
2.77798
2.78307
2.78712
2.78887
2.78776
2.78447
2.7793
2.7718
2.76169
2.74878
2.73532
2.72552
2.71934
2.71664
2.71793
2.71856
2.71477
2.70834
2.69946
2.6859
2.66931
2.65661
2.64864
2.64252
2.63876
2.63817
2.63472
2.62724
2.61594
2.59921
2.58057
2.56914
2.564
2.56076
2.55989
2.56295
2.5706
2.5768
2.57909
2.5778
2.57419
2.56723
2.55284
2.5304
2.50602
2.49111
2.48503
2.48005
2.4751
2.47066
2.46815
2.46699
2.46603
2.4653
2.46671
2.47075
2.47257
2.46761
2.45154
2.42004
2.37949
2.35367
2.04603
2.03462
2.02488
2.01911
2.02367
2.03852
2.04401
2.03841
2.02793
2.01512
2.00594
2.00245
2.0086
2.01592
2.01627
2.01018
2.00075
1.99327
1.99018
1.99262
1.99832
2.00189
2.00266
1.99908
1.99113
1.97979
1.9703
1.96701
1.9681
1.97628
1.98899
2.0041
2.05262
2.19142
2.43981
2.69627
2.82746
2.91218
2.92275
2.94509
2.93903
2.93711
2.93588
2.93076
2.92637
2.91725
2.91086
2.90577
2.89857
2.89151
2.88685
2.88379
2.88165
2.87917
2.8759
2.87307
2.87098
2.86812
2.86526
2.86302
2.86044
2.85511
2.84683
2.83324
2.81446
2.79583
2.78404
2.77901
2.77974
2.78648
2.79359
2.79969
2.80545
2.80994
2.80943
2.80338
2.79232
2.77507
2.75367
2.73573
2.72582
2.71992
2.71743
2.71535
2.71032
2.7031
2.69325
2.68112
2.6718
2.66609
2.66274
2.66394
2.66871
2.66944
2.66494
2.65676