/*--------------------------------*- C++ -*----------------------------------*\
  =========                 |
  \\      /  F ield         | OpenFOAM: The Open Source CFD Toolbox
   \\    /   O peration     | Website:  https://openfoam.org
    \\  /    A nd           | Version:  7
     \\/     M anipulation  |
\*---------------------------------------------------------------------------*/
FoamFile
{
    version     2.0;
    format      ascii;
    class       volScalarField;
    location    "2.4";
    object      rho;
}
// * * * * * * * * * * * * * * * * * * * * * * * * * * * * * * * * * * * * * //

dimensions      [1 -3 0 0 0 0 0];

internalField   nonuniform List<scalar> 
4080
(
1.40001
1.40001
1.40001
1.40001
1.40001
1.40001
1.40001
1.40001
1.40001
1.40001
1.40001
1.40001
1.40001
1.40001
1.40001
1.40001
1.40001
1.8784
4.76863
5.52046
5.59917
5.71251
5.81121
5.89613
1.40001
1.40001
1.40001
1.40001
1.40001
1.40001
1.40001
1.40001
1.40001
1.40001
1.40001
1.40001
1.40001
1.40001
1.40001
1.40001
1.40001
1.80759
4.64447
5.48759
5.56588
5.66875
5.75709
5.80192
1.40001
1.40001
1.40001
1.40001
1.40001
1.40001
1.40001
1.40001
1.40001
1.40001
1.40001
1.40001
1.40001
1.40001
1.40001
1.40001
1.40001
1.65268
4.4393
5.44867
5.497
5.56538
5.60615
5.65419
1.40001
1.40001
1.40001
1.40001
1.40001
1.40001
1.40001
1.40001
1.40001
1.40001
1.40001
1.40001
1.40001
1.40001
1.40001
1.40001
1.40001
1.43893
4.0955
5.38584
5.39664
5.44266
5.43559
5.49441
1.40001
1.40001
1.40001
1.40001
1.40001
1.40001
1.40001
1.40001
1.40001
1.40001
1.40001
1.40001
1.40001
1.40001
1.40001
1.40001
1.40001
1.40051
3.51442
5.22044
5.22971
5.21784
4.9738
4.25583
1.40001
1.40001
1.40001
1.40001
1.40001
1.40001
1.40001
1.40001
1.40001
1.40001
1.40001
1.40001
1.40001
1.40001
1.40001
1.40001
1.40001
1.4
2.78542
5.02027
5.11912
5.00017
4.70791
4.01671
1.40001
1.40001
1.40001
1.40001
1.40001
1.40001
1.40001
1.40001
1.40001
1.40001
1.40001
1.40001
1.40001
1.40001
1.40001
1.40001
1.40001
1.4
1.99189
4.7015
5.07626
4.86779
4.56003
3.86827
1.40001
1.40001
1.40001
1.40001
1.40001
1.40001
1.40001
1.40001
1.40001
1.40001
1.40001
1.40001
1.40001
1.40001
1.40001
1.40001
1.40001
1.4
1.47779
3.88947
4.93052
4.70687
4.41757
3.82171
1.40001
1.40001
1.40001
1.40001
1.40001
1.40001
1.40001
1.40001
1.40001
1.40001
1.40001
1.40001
1.40001
1.40001
1.40001
1.40001
1.40001
1.40001
1.40035
2.71624
4.685
4.66196
4.34264
3.86181
1.40001
1.40001
1.40001
1.40001
1.40001
1.40001
1.40001
1.40001
1.40001
1.40001
1.40001
1.40001
1.40001
1.40001
1.40001
1.40001
1.40001
1.40001
1.4
1.67869
4.08778
4.70787
4.35475
3.92449
1.40001
1.40001
1.40001
1.40001
1.40001
1.40001
1.40001
1.40001
1.40001
1.40001
1.40001
1.40001
1.40001
1.40001
1.40001
1.40001
1.40001
1.40001
1.4
1.40981
2.86644
4.52882
4.37476
3.97695
1.40001
1.40001
1.40001
1.40001
1.40001
1.40001
1.40001
1.40001
1.40001
1.40001
1.40001
1.40001
1.40001
1.40001
1.40001
1.40001
1.40001
1.40001
1.4
1.40002
1.72116
3.84879
4.45809
4.0686
1.40001
1.40001
1.40001
1.40001
1.40001
1.40001
1.40001
1.40001
1.40001
1.40001
1.40001
1.40001
1.40001
1.40001
1.40001
1.40001
1.40001
1.40001
1.40001
1.40001
1.41288
2.49504
4.20869
4.1416
1.40001
1.40001
1.40001
1.40001
1.40001
1.40001
1.40001
1.40001
1.40001
1.40001
1.40001
1.40001
1.40001
1.40001
1.40001
1.40001
1.40001
1.40001
1.40001
1.40001
1.40009
1.575
3.28826
4.188
1.40001
1.40001
1.40001
1.40001
1.40001
1.40001
1.40001
1.40001
1.40001
1.40001
1.40001
1.40001
1.40001
1.40001
1.40001
1.40001
1.40001
1.40001
1.40001
1.40001
1.40001
1.4045
1.97219
3.68377
1.40001
1.40001
1.40001
1.40001
1.40001
1.40001
1.40001
1.40001
1.40001
1.40001
1.40001
1.40001
1.40001
1.40001
1.40001
1.40001
1.40001
1.40001
1.40001
1.40001
1.40001
1.40003
1.44487
2.41961
1.40001
1.40001
1.40001
1.40001
1.40001
1.40001
1.40001
1.40001
1.40001
1.40001
1.40001
1.40001
1.40001
1.40001
1.40001
1.40001
1.40001
1.40001
1.40001
1.40001
1.40001
1.40001
1.4007
1.54676
1.40001
1.40001
1.40001
1.40001
1.40001
1.40001
1.40001
1.40001
1.40001
1.40001
1.40001
1.40001
1.40001
1.40001
1.40001
1.40001
1.40001
1.40001
1.40001
1.40001
1.40001
1.40001
1.40001
1.40434
1.40001
1.40001
1.40001
1.40001
1.40001
1.40001
1.40001
1.40001
1.40001
1.40001
1.40001
1.40001
1.40001
1.40001
1.40001
1.40001
1.40001
1.40001
1.40001
1.40001
1.40001
1.40001
1.40001
1.40004
1.40001
1.40001
1.40001
1.40001
1.40001
1.40001
1.40001
1.40001
1.40001
1.40001
1.40001
1.40001
1.40001
1.40001
1.40001
1.40001
1.40001
1.40001
1.40001
1.40001
1.40001
1.40001
1.40001
1.40001
1.40001
1.40001
1.40001
1.40001
1.40001
1.40001
1.40001
1.40001
1.40001
1.40001
1.40001
1.40001
1.40001
1.40001
1.40001
1.40001
1.40001
1.40001
1.40001
1.40001
1.40001
1.40001
1.40001
1.40001
1.40001
1.40001
1.40001
1.40001
1.40001
1.40001
1.40001
1.40001
1.40001
1.40001
1.40001
1.40001
1.40001
1.40001
1.40001
1.40001
1.40001
1.40001
1.40001
1.40001
1.40001
1.40001
1.40001
1.40001
1.40001
1.40001
1.40001
1.40001
1.40001
1.40001
1.40001
1.40001
1.40001
1.40001
1.40001
1.40001
1.40001
1.40001
1.40001
1.40001
1.40001
1.40001
1.40001
1.40001
1.40001
1.40001
1.40001
1.40001
1.40001
1.40001
1.40001
1.40001
1.40001
1.40001
1.40001
1.40001
1.40001
1.40001
1.40001
1.40001
1.40001
1.40001
1.40001
1.40001
1.40001
1.40001
1.40001
1.40001
1.40001
1.40001
1.40001
1.40001
1.40001
1.40001
1.40001
1.40001
1.40001
1.40001
1.40001
1.40001
1.40001
1.40001
1.40001
1.40001
1.40001
1.40001
1.40001
1.40001
1.40001
1.40001
1.40001
1.40001
1.40001
1.40001
1.40001
1.40001
1.40001
1.40001
1.40001
1.40001
1.40001
1.40001
1.40001
1.40001
1.40001
1.40001
1.40001
1.40001
1.40001
1.40001
1.40001
1.40001
1.40001
1.40001
1.40001
1.40001
1.40001
1.40001
1.40001
1.40001
1.40001
1.40001
1.40001
1.40001
1.40001
1.40001
1.40001
1.40001
1.40001
1.40001
1.40001
1.40001
1.40001
1.40001
1.40001
1.40001
1.40001
1.40001
1.40001
1.40001
1.40001
1.40001
1.40001
1.40001
1.40001
1.40001
1.40001
1.40001
1.40001
1.40001
1.40001
1.40001
1.40001
1.40001
1.40001
1.40001
1.40001
1.40001
1.40001
1.40001
1.40001
1.40001
1.40001
1.40001
1.40001
1.40001
1.40001
1.40001
1.40001
1.40001
1.40001
1.40001
1.40001
1.40001
1.40001
1.40001
1.40001
1.40001
1.40001
1.40001
1.40001
1.40001
1.40001
1.40001
1.40001
1.40001
1.40001
1.40001
1.40001
1.40001
1.40001
1.40001
1.40001
1.40001
1.40001
1.40001
1.40001
1.40001
1.40001
1.40001
1.40001
1.40001
1.40001
1.40001
1.40001
1.40001
1.40001
1.40001
1.40001
1.40001
1.40001
1.40001
1.40001
1.40001
1.40001
1.40001
1.40001
1.40001
1.40001
1.40001
1.40001
1.40001
1.40001
1.40001
1.40001
1.40001
1.40001
1.40001
1.40001
1.40001
1.40001
1.40001
1.40001
1.40001
1.40001
1.40001
1.40001
1.40001
1.40001
1.40001
1.40001
1.40001
1.40001
1.40001
1.40001
1.40001
1.40001
1.40001
1.40001
1.40001
1.40001
1.40001
1.40001
1.40001
1.40001
1.40001
1.40001
1.40001
1.40001
1.40001
1.40001
1.40001
1.40001
1.40001
1.40001
1.40001
1.40001
1.40001
1.40001
1.40001
1.40001
1.40001
1.40001
1.40001
1.40001
1.40001
1.40001
1.40001
1.40001
1.40001
1.40001
1.40001
1.40001
1.40001
1.40001
1.40001
1.40001
1.40001
1.40001
1.40001
1.40001
1.40001
1.40001
1.40001
1.40001
1.40001
1.40001
1.40001
1.40001
1.40001
1.40001
1.40001
1.40001
1.40001
1.40001
1.40001
1.40001
1.40001
1.40001
1.40001
1.40001
1.40001
1.40001
1.40001
1.40001
1.40001
1.40001
1.40001
1.40001
1.40001
1.40001
1.40001
1.40001
1.40001
1.40001
1.40001
1.40001
1.40001
1.40001
1.40001
1.40001
1.40001
1.40001
1.40001
1.40001
1.40001
1.40001
1.40001
1.40001
1.40001
1.40001
1.40001
1.40001
1.40001
1.40001
1.40001
1.40001
1.40001
1.40001
1.40001
1.40001
1.40001
1.40001
1.40001
1.40001
1.40001
1.40001
1.40001
1.40001
1.40001
1.40001
1.40001
1.40001
1.40001
1.40001
1.40001
1.40001
1.40001
1.40001
1.40001
1.40001
1.40001
1.40001
1.40001
1.40001
1.40001
1.40001
1.40001
1.40001
1.40001
1.40001
1.40001
1.40001
1.40001
1.40001
1.40001
1.40001
1.40001
1.40001
1.40001
1.40001
1.40001
1.40001
1.40001
1.40001
1.40001
1.40001
1.40001
1.40001
1.40001
1.40001
1.40001
1.40001
1.40001
1.40001
1.40001
1.40001
1.40001
1.40001
1.40001
1.40001
1.40001
1.40001
1.40001
1.40001
1.40001
1.40001
1.40001
1.40001
1.40001
1.40001
1.40001
1.40001
1.40001
1.40001
1.40001
1.40001
1.40001
1.40001
1.40001
1.40001
1.40001
1.40001
1.40001
1.40001
1.40001
1.40001
1.40001
1.40001
1.40001
1.40001
1.40001
1.40001
1.40001
1.40001
1.40001
1.40001
1.40001
1.40001
1.40001
1.40001
1.40001
1.40001
1.40001
1.40001
1.40001
1.63575
0.611286
1.05436
1.83457
2.11182
2.25735
2.32609
2.34385
2.33228
2.3212
2.30872
2.31046
2.31472
1.34799
1.65561
2.25957
2.29271
2.31969
2.34852
2.35503
2.33951
2.32582
2.31355
2.31337
2.81271
1.94956
1.81819
2.27018
2.40912
2.35546
2.36405
2.3692
2.35686
2.34714
2.32728
2.32521
3.11688
2.42455
2.02788
2.27992
2.64668
2.62475
2.58912
2.52903
2.46524
2.42081
2.36971
2.37066
3.32602
2.77451
2.25128
2.28201
2.60015
2.84674
2.82508
2.69667
2.59148
2.5024
2.37283
2.04795
3.47008
3.00269
2.50866
2.32326
2.48397
2.82728
2.99576
2.89396
2.8055
2.693
2.52333
2.24443
3.57691
3.18285
2.75319
2.41878
2.44593
2.71479
3.03841
3.0259
2.96322
2.87411
2.71012
2.46067
3.70614
3.35678
2.97104
2.60679
2.48347
2.58346
2.95744
3.07382
3.04602
2.99631
2.87862
2.68928
3.83264
3.49903
3.16657
2.80667
2.55779
2.57679
2.81204
3.06164
3.09261
3.06291
2.98472
2.85313
3.99149
3.66054
3.35311
3.01109
2.71385
2.61162
2.69796
2.99285
3.12369
3.10843
3.05205
2.95253
4.04626
3.82781
3.51127
3.20533
2.88676
2.68223
2.68856
2.86146
3.09809
3.15199
3.11212
3.03255
3.79468
3.93604
3.7026
3.39644
3.08572
2.81441
2.72943
2.79951
3.03616
3.18832
3.16897
3.10675
2.79392
3.80909
3.83075
3.60337
3.30638
2.98608
2.80056
2.80921
2.92929
3.16388
3.21942
3.17733
1.70117
3.03099
3.77367
3.75427
3.52812
3.21092
2.93019
2.845
2.89315
3.08442
3.2519
3.24205
1.41496
1.85215
3.15486
3.72088
3.6877
3.46275
3.12765
2.91884
2.91429
2.98504
3.20165
3.29619
1.40017
1.43175
1.9677
3.20499
3.66591
3.63383
3.39855
3.08624
2.95719
2.99025
3.11694
3.28642
1.40001
1.40049
1.44952
2.04099
3.20706
3.61135
3.58302
3.34654
3.09087
3.01924
3.06568
3.23556
1.40001
1.40001
1.40093
1.46394
2.07284
3.17222
3.5551
3.52796
3.3173
3.11602
3.09129
3.15296
1.40001
1.40001
1.40001
1.40138
1.47183
2.0675
3.10712
3.49449
3.46913
3.30112
3.15614
3.16774
1.40001
1.40001
1.40001
1.40001
1.40167
1.47233
2.03031
3.0168
3.43359
3.41261
3.29692
3.2117
1.40001
1.40001
1.40001
1.40001
1.40001
1.40172
1.46643
1.96526
2.92675
3.36569
3.3542
3.30112
1.40001
1.40001
1.40001
1.40001
1.40001
1.40001
1.4015
1.45726
1.89072
2.81216
3.26912
3.32355
1.40001
1.40001
1.40001
1.40001
1.40001
1.40001
1.40001
1.40134
1.44241
1.81642
2.67496
3.14391
1.40001
1.40001
1.40001
1.40001
1.40001
1.40001
1.40001
1.40001
1.40087
1.43192
1.7345
2.46826
1.40001
1.40001
1.40001
1.40001
1.40001
1.40001
1.40001
1.40001
1.40001
1.4006
1.42103
1.64247
1.40001
1.40001
1.40001
1.40001
1.40001
1.40001
1.40001
1.40001
1.40001
1.40001
1.40031
1.41323
1.40001
1.40001
1.40001
1.40001
1.40001
1.40001
1.40001
1.40001
1.40001
1.40001
1.40001
1.40016
1.40001
1.40001
1.40001
1.40001
1.40001
1.40001
1.40001
1.40001
1.40001
1.40001
1.40001
1.40001
1.40001
1.40001
1.40001
1.40001
1.40001
1.40001
1.40001
1.40001
1.40001
1.40001
1.40001
1.40001
1.40001
1.40001
1.40001
1.40001
1.40001
1.40001
1.40001
1.40001
1.40001
1.40001
1.40001
1.40001
1.40001
1.40001
1.40001
1.40001
1.40001
1.40001
1.40001
1.40001
1.40001
1.40001
1.40001
1.40001
1.40001
1.40001
1.40001
1.40001
1.40001
1.40001
1.40001
1.40001
1.40001
1.40001
1.40001
1.40001
1.40001
1.40001
1.40001
1.40001
1.40001
1.40001
1.40001
1.40001
1.40001
1.40001
1.40001
1.40001
1.40001
1.40001
1.40001
1.40001
1.40001
1.40001
1.40001
1.40001
1.40001
1.40001
1.40001
1.40001
1.40001
1.40001
1.40001
1.40001
1.40001
1.40001
1.40001
1.40001
1.40001
1.40001
1.40001
1.40001
1.40001
1.40001
1.40001
1.40001
1.40001
1.40001
1.40001
1.40001
1.40001
1.40001
1.40001
1.40001
1.07602
0.771636
0.807493
0.871871
0.943344
1.0044
1.01844
1.01324
1.002
0.982602
0.977331
0.977389
0.982056
0.982383
0.978513
0.976643
0.97572
0.974198
0.971823
0.968837
0.966764
0.966881
0.969782
0.972379
0.971515
0.969051
0.965702
0.9614
0.95737
0.954746
0.953042
0.951804
0.951948
0.953031
0.952623
0.950832
0.948127
0.943658
0.937952
0.933742
0.931886
0.930957
0.930887
0.932143
0.931802
0.93016
0.927974
0.923724
0.914411
0.914741
1.45027
2.3434
2.48729
2.48083
2.4807
2.46376
2.45019
2.44399
2.4478
2.4631
2.47266
2.46272
2.4427
2.4228
2.40194
2.38096
2.36128
2.34078
2.31361
2.27932
2.24358
2.21216
2.1878
2.17669
2.18088
2.17894
2.15496
2.12519
2.08712
2.04285
2.00786
1.98445
1.96915
1.95456
1.60796
1.21014
1.08952
1.02461
0.989937
1
0.992656
0.992299
0.999866
1.00428
1.00672
1.00655
1.00367
1.00266
0.998677
0.994631
0.992734
0.991857
0.990822
0.989309
0.985929
0.98243
0.980821
0.979452
0.978534
0.978787
0.977953
0.976194
0.974437
0.972322
0.969009
0.965148
0.961447
0.959009
0.957942
0.957904
0.956576
0.954146
0.951712
0.948587
0.9445
0.940574
0.938012
0.936383
0.935568
0.93522
0.933127
0.928929
0.928504
0.957548
1.47062
2.40167
2.56128
2.52658
2.48354
2.48541
2.5058
2.50457
2.5059
2.51165
2.50323
2.47836
2.44899
2.42461
2.40498
2.38981
2.37759
2.36557
2.35039
2.32395
2.29004
2.24847
2.21282
2.18932
2.17374
2.16572
2.1601
2.14393
2.12145
2.0956
2.06114
2.01939
1.98671
1.95616
1.97988
1.57347
1.27255
1.15209
1.06237
0.998453
1.01271
1.04097
1.0734
1.09451
1.09053
1.08585
1.08165
1.07163
1.05779
1.04069
1.03266
1.03159
1.03315
1.03661
1.03716
1.03566
1.03239
1.02767
1.02179
1.01537
1.01062
1.00872
1.00827
1.00913
1.00824
1.00589
1.00158
0.994965
0.988887
0.985443
0.983428
0.981931
0.980501
0.978728
0.976484
0.973898
0.970924
0.966281
0.960786
0.955741
0.951174
0.953204
0.987912
1.16512
1.57545
2.2534
2.64137
2.70089
2.68523
2.67355
2.66484
2.64656
2.64905
2.65356
2.63837
2.61987
2.60012
2.5663
2.52419
2.48348
2.45363
2.43113
2.41671
2.4019
2.38246
2.36055
2.33407
2.29529
2.24621
2.20609
2.18163
2.16499
2.15878
2.15523
2.1424
2.11999
2.08637
2.00823
2.31586
1.95481
1.59496
1.39712
1.29313
1.15306
1.11269
1.11396
1.11074
1.11676
1.12284
1.13086
1.13669
1.13723
1.13171
1.11421
1.10029
1.09698
1.09749
1.09711
1.09556
1.09374
1.0896
1.08469
1.08099
1.07678
1.07204
1.06841
1.06613
1.0636
1.0609
1.05842
1.05425
1.0469
1.04167
1.03894
1.03665
1.03427
1.03132
1.0279
1.02423
1.02034
1.01656
1.01128
1.00429
0.998237
0.999639
1.03359
1.20772
1.59233
1.80093
1.97631
2.29581
2.59465
2.8061
2.87127
2.8919
2.8507
2.82486
2.79075
2.75281
2.74461
2.73497
2.71537
2.68061
2.63044
2.58276
2.55202
2.52815
2.50826
2.49037
2.47253
2.4524
2.42545
2.3835
2.33018
2.28472
2.25864
2.24069
2.2281
2.2188
2.20375
2.18144
2.11258
2.57788
2.25665
1.93526
1.66233
1.50625
1.35455
1.22456
1.18964
1.1587
1.13756
1.14376
1.15626
1.16865
1.18762
1.19045
1.18463
1.18119
1.17783
1.17249
1.166
1.15745
1.14809
1.13949
1.13277
1.13122
1.13042
1.1307
1.13137
1.13134
1.12906
1.12545
1.12005
1.1104
1.09919
1.09504
1.09307
1.09124
1.08968
1.08817
1.08619
1.08369
1.07926
1.07178
1.06121
1.05292
1.05442
1.08204
1.27065
1.65629
1.92684
2.01116
1.99898
2.04861
2.22248
2.51838
2.72573
2.90318
2.97048
3.00783
2.97285
2.92719
2.88691
2.84764
2.82112
2.79753
2.75823
2.70913
2.67358
2.64577
2.61873
2.59606
2.57516
2.55366
2.52889
2.49689
2.45695
2.41078
2.36772
2.34024
2.32042
2.30047
2.2772
2.24922
2.19433
2.76128
2.49851
2.20448
1.93243
1.74481
1.58969
1.41729
1.33562
1.28316
1.2191
1.18519
1.19068
1.18776
1.18554
1.18752
1.19961
1.21434
1.22816
1.23048
1.22644
1.2159
1.19735
1.17964
1.16925
1.16763
1.16736
1.16928
1.17529
1.18056
1.17989
1.1761
1.16834
1.15588
1.14422
1.1386
1.13563
1.13338
1.13227
1.13209
1.13274
1.1321
1.129
1.11963
1.10775
1.1092
1.14248
1.30968
1.73118
2.04072
2.10282
2.08585
2.06918
2.0544
2.06418
2.12753
2.30273
2.59373
2.82093
2.92755
2.9916
3.00643
2.996
2.9584
2.9155
2.87731
2.83603
2.79117
2.74581
2.7105
2.6896
2.66982
2.64832
2.625
2.60116
2.5781
2.55025
2.5129
2.46429
2.41519
2.38382
2.3606
2.33501
2.31
2.26956
2.88512
2.67535
2.43229
2.1711
1.96175
1.79514
1.62128
1.49996
1.42542
1.33295
1.24238
1.23018
1.21484
1.1936
1.19494
1.20921
1.22093
1.23305
1.23874
1.24204
1.24242
1.2364
1.22535
1.21482
1.20869
1.20359
1.19938
1.20085
1.20334
1.2025
1.19828
1.1916
1.18458
1.17888
1.17577
1.17328
1.17038
1.16786
1.1671
1.16707
1.16494
1.15779
1.14727
1.14865
1.19435
1.4043
1.79853
2.11053
2.18508
2.17137
2.13961
2.12029
2.10173
2.07573
2.07647
2.08387
2.1613
2.36245
2.60049
2.82559
2.9172
2.96696
2.99794
2.99035
2.95446
2.91228
2.86254
2.80749
2.75402
2.72236
2.70249
2.68706
2.67276
2.65301
2.63028
2.60614
2.57956
2.54098
2.48095
2.42084
2.38708
2.3644
2.34983
2.3216
2.98824
2.81647
2.60273
2.36735
2.16366
1.98696
1.80784
1.66752
1.57195
1.47456
1.36553
1.32033
1.28864
1.24754
1.22586
1.22839
1.23019
1.22816
1.22921
1.23373
1.24087
1.24668
1.25094
1.25349
1.25073
1.24474
1.23549
1.22637
1.21951
1.21237
1.20496
1.20117
1.20033
1.20022
1.20132
1.20331
1.2023
1.19876
1.19419
1.18722
1.17651
1.16716
1.16984
1.2143
1.49642
1.87446
2.17925
2.26368
2.24636
2.21447
2.17178
2.13969
2.11654
2.10643
2.09628
2.08445
2.0669
2.07713
2.14269
2.32632
2.56997
2.77435
2.91293
2.94158
2.98159
2.97229
2.93033
2.87751
2.8155
2.75911
2.72345
2.70287
2.68578
2.67405
2.65807
2.63911
2.61613
2.58549
2.53953
2.47174
2.41208
2.38452
2.37115
2.34912
3.08073
2.93376
2.75048
2.53869
2.3376
2.16291
1.98024
1.82997
1.72575
1.62032
1.4903
1.4274
1.38398
1.32976
1.26694
1.25419
1.24805
1.23032
1.22529
1.22992
1.23884
1.24454
1.2483
1.25882
1.2661
1.26596
1.26165
1.25262
1.2408
1.22749
1.21454
1.21139
1.21127
1.21298
1.21824
1.22335
1.22302
1.21948
1.21162
1.19768
1.18339
1.18581
1.22911
1.50855
1.97676
2.20772
2.32116
2.30653
2.25698
2.20277
2.15862
2.14098
2.12869
2.12615
2.13128
2.10932
2.08507
2.07089
2.03159
2.03118
2.10316
2.29132
2.56419
2.75209
2.8866
2.92753
2.93874
2.93128
2.88514
2.83517
2.78121
2.7302
2.69861
2.67945
2.66212
2.64823
2.63218
2.60989
2.57826
2.53285
2.47136
2.41317
2.38723
2.36331
3.17359
3.04541
2.88372
2.69692
2.49703
2.32268
2.15596
1.98877
1.86911
1.76163
1.6411
1.54748
1.49237
1.42753
1.3421
1.31821
1.30064
1.26795
1.24462
1.24116
1.24327
1.24261
1.24303
1.25165
1.26533
1.2685
1.26722
1.26382
1.25931
1.25014
1.23595
1.2288
1.22669
1.22684
1.22972
1.2325
1.23198
1.22823
1.21873
1.20527
1.20767
1.27933
1.54508
2.06626
2.27232
2.32715
2.31734
2.31184
2.2674
2.21271
2.16666
2.14684
2.14012
2.1373
2.13426
2.1216
2.09813
2.07228
2.0477
2.02953
1.9943
1.99932
2.09412
2.29942
2.54023
2.72615
2.83948
2.89067
2.90571
2.89915
2.85501
2.7963
2.74295
2.69886
2.66393
2.6447
2.63202
2.61862
2.5987
2.57297
2.53581
2.48014
2.42232
2.37615
3.25909
3.16042
3.01207
2.83804
2.65752
2.4834
2.3092
2.14712
2.02187
1.90867
1.77157
1.67594
1.60963
1.53884
1.44185
1.38976
1.36448
1.32215
1.27838
1.25834
1.25826
1.24907
1.24475
1.24951
1.2612
1.26644
1.26601
1.2672
1.26953
1.26743
1.25875
1.25314
1.25027
1.24673
1.24126
1.23833
1.23611
1.23145
1.22293
1.22681
1.31734
1.6611
2.08299
2.37745
2.3727
2.34903
2.33604
2.31187
2.28228
2.25715
2.22533
2.18698
2.15431
2.13569
2.12352
2.11238
2.10054
2.08776
2.06985
2.04898
2.02818
2.00087
1.96252
1.97706
2.06828
2.25705
2.47096
2.68783
2.82084
2.86297
2.87626
2.85991
2.81194
2.75397
2.69493
2.65338
2.63474
2.62027
2.61124
2.59682
2.57764
2.54586
2.49303
2.41069
3.31711
3.26228
3.14494
2.98635
2.80243
2.63306
2.47481
2.30812
2.16366
2.05308
1.92287
1.80325
1.72912
1.65624
1.55066
1.48643
1.45089
1.40883
1.33781
1.30438
1.30162
1.28104
1.26263
1.25995
1.26368
1.2638
1.26014
1.26041
1.26542
1.27149
1.27363
1.27296
1.27041
1.26619
1.25864
1.24805
1.23919
1.23433
1.24399
1.33289
1.74908
2.1743
2.39882
2.43863
2.39223
2.33514
2.30892
2.29501
2.2857
2.28635
2.27622
2.24094
2.19442
2.14375
2.11225
2.09878
2.08951
2.09242
2.0932
2.07737
2.05851
2.03381
1.9879
1.94355
1.931
1.94342
2.02387
2.20861
2.44759
2.65624
2.7889
2.81818
2.82509
2.80815
2.7539
2.68264
2.64951
2.63343
2.62545
2.61518
2.6008
2.5829
2.55377
2.46986
3.35981
3.34109
3.2583
3.11993
2.95729
2.78707
2.61678
2.45672
2.32106
2.19383
2.06303
1.93738
1.8568
1.77373
1.67451
1.58517
1.54537
1.49852
1.4268
1.37481
1.35647
1.32794
1.28992
1.2658
1.26593
1.26485
1.25777
1.25711
1.26342
1.27539
1.28353
1.28535
1.28439
1.28197
1.27575
1.2622
1.25085
1.26127
1.38094
1.76302
2.31489
2.47339
2.45875
2.42395
2.36573
2.32307
2.30759
2.29969
2.29902
2.30494
2.29723
2.27068
2.23006
2.17258
2.1224
2.10285
2.09335
2.09122
2.09873
2.08871
2.07099
2.05069
2.01821
1.97467
1.92915
1.9187
1.91007
1.92409
2.00784
2.17349
2.38488
2.57479
2.7222
2.7582
2.76246
2.73037
2.68783
2.65998
2.64689
2.63729
2.62469
2.60494
2.58358
2.5187
3.32729
3.40535
3.36447
3.25609
3.10057
2.93838
2.78024
2.61153
2.45832
2.33866
2.20774
2.07614
1.98299
1.90434
1.79326
1.70092
1.65235
1.59953
1.51625
1.45085
1.4315
1.3993
1.34964
1.30475
1.29805
1.28952
1.27087
1.26724
1.27207
1.28046
1.28261
1.28273
1.28455
1.28565
1.28363
1.27668
1.29041
1.46766
1.86274
2.35278
2.56015
2.54569
2.50578
2.45841
2.39807
2.35461
2.34255
2.34039
2.3312
2.31636
2.2979
2.27658
2.2507
2.21227
2.16036
2.12036
2.10513
2.09746
2.09274
2.08124
2.06528
2.0466
2.02636
2.00351
1.97383
1.93836
1.90705
1.88672
1.87509
1.88961
1.95397
2.08047
2.28715
2.48354
2.64191
2.6757
2.67556
2.66879
2.66458
2.66315
2.64862
2.62543
2.60177
2.54544
3.26015
3.4022
3.4241
3.36977
3.24985
3.09041
2.9302
2.7681
2.61082
2.48159
2.3489
2.21181
2.10861
2.03093
1.92706
1.81908
1.7561
1.70139
1.61915
1.54098
1.50983
1.47623
1.42018
1.36223
1.3528
1.33734
1.30901
1.28617
1.28155
1.28363
1.28103
1.2792
1.28328
1.2873
1.29098
1.3155
1.516
2.02816
2.40938
2.60705
2.59875
2.55539
2.5024
2.46757
2.42963
2.39019
2.37576
2.36596
2.34368
2.31984
2.29361
2.2772
2.26463
2.24875
2.22197
2.17844
2.12887
2.0988
2.07838
2.06119
2.04708
2.03285
2.02274
2.01754
2.00434
1.97679
1.93074
1.88523
1.85922
1.84894
1.84064
1.84517
1.89445
2.01766
2.22144
2.39921
2.52976
2.60061
2.61759
2.63243
2.63966
2.63986
2.61723
2.56694
3.23869
3.36111
3.46582
3.44872
3.37189
3.23891
3.09009
2.91823
2.75478
2.62704
2.49355
2.34632
2.2472
2.15541
2.0449
1.94003
1.87788
1.81077
1.72223
1.63455
1.60255
1.56544
1.50835
1.44181
1.41736
1.39948
1.36499
1.32473
1.3112
1.30989
1.29918
1.28779
1.28912
1.2985
1.33758
1.54213
2.10707
2.53185
2.6211
2.59177
2.57564
2.55221
2.51845
2.50206
2.48505
2.44522
2.39759
2.36717
2.34179
2.31435
2.29151
2.27723
2.26719
2.26193
2.25007
2.22329
2.17311
2.11015
2.07234
2.05252
2.03875
2.02858
2.02672
2.02687
2.01464
1.99332
1.95024
1.88122
1.84886
1.83482
1.82282
1.8184
1.81947
1.82503
1.85948
1.96501
2.10195
2.25518
2.39598
2.49132
2.55933
2.59793
2.60315
2.5868
3.26825
3.30652
3.43574
3.50641
3.47306
3.37034
3.23789
3.08409
2.91127
2.77144
2.63866
2.48694
2.37212
2.29127
2.17904
2.05965
1.98859
1.93255
1.84008
1.74296
1.70333
1.66088
1.5967
1.52
1.49891
1.47657
1.43453
1.37792
1.35412
1.34502
1.32413
1.30721
1.30949
1.35867
1.62817
2.13859
2.58202
2.66349
2.64951
2.62694
2.60119
2.57632
2.56234
2.54678
2.52555
2.49351
2.436
2.37227
2.34388
2.32455
2.30099
2.28289
2.26973
2.26141
2.25113
2.23034
2.19442
2.13365
2.07764
2.05264
2.03926
2.03583
2.03905
2.02687
2.00768
1.98596
1.95117
1.89444
1.85303
1.84051
1.83544
1.82419
1.80489
1.78987
1.78005
1.77381
1.79015
1.84739
1.95595
2.10155
2.26131
2.38045
2.48873
2.53976
3.32526
3.33378
3.38211
3.49055
3.53084
3.48193
3.37585
3.22624
3.06642
2.93499
2.79505
2.63635
2.50616
2.41681
2.3073
2.18795
2.11094
2.05072
1.95842
1.85852
1.80724
1.76256
1.6945
1.60681
1.57438
1.55142
1.5109
1.45205
1.42559
1.40298
1.36608
1.35848
1.41637
1.76462
2.30958
2.65724
2.75201
2.71816
2.66076
2.62552
2.59633
2.57234
2.56599
2.55925
2.53347
2.50804
2.47875
2.42627
2.36733
2.3387
2.31595
2.29504
2.27323
2.25113
2.23298
2.2151
2.19186
2.1509
2.09155
2.06252
2.05229
2.03732
2.01663
1.99555
1.97574
1.95838
1.9427
1.92103
1.88657
1.84747
1.81886
1.80408
1.78913
1.76838
1.75204
1.73922
1.7355
1.73207
1.73206
1.76486
1.8413
1.98606
2.14302
2.33729
3.29309
3.37508
3.40433
3.45764
3.54087
3.54217
3.49327
3.37339
3.21483
3.08408
2.95471
2.7872
2.66124
2.5624
2.43943
2.30404
2.23577
2.16775
2.07321
1.97532
1.92541
1.87003
1.79397
1.69929
1.66665
1.63867
1.59127
1.53206
1.49133
1.46707
1.45818
1.5372
1.90292
2.54188
2.84253
2.8384
2.77469
2.69671
2.63003
2.59777
2.58665
2.57711
2.56846
2.55634
2.54091
2.51916
2.49409
2.46383
2.40781
2.33771
2.31132
2.29417
2.27119
2.24362
2.22213
2.20207
2.18107
2.15801
2.12206
2.07571
2.04236
2.01496
1.99309
1.97657
1.96157
1.94691
1.93494
1.92307
1.90299
1.86227
1.80745
1.78483
1.77209
1.75279
1.73349
1.72711
1.72119
1.70538
1.69703
1.68215
1.65555
1.67042
1.72921
1.94391
3.02711
3.33898
3.40792
3.42656
3.51759
3.58666
3.5645
3.48088
3.34612
3.21333
3.09117
2.94543
2.80478
2.69917
2.5797
2.44443
2.35522
2.28659
2.18422
2.08353
2.03152
1.98525
1.90799
1.80416
1.76764
1.73046
1.68105
1.61613
1.56324
1.56963
1.70308
2.12963
2.75014
3.01292
2.96551
2.90819
2.8342
2.75563
2.70144
2.66296
2.63
2.60136
2.57469
2.54883
2.52447
2.5024
2.48189
2.45789
2.42096
2.3535
2.30335
2.28017
2.25568
2.23865
2.22072
2.20299
2.18791
2.16771
2.13306
2.08219
2.03384
1.99587
1.97416
1.96216
1.95599
1.945
1.92968
1.91774
1.90102
1.85865
1.79239
1.76348
1.75374
1.74245
1.731
1.72135
1.70771
1.68986
1.67103
1.64999
1.62551
1.5883
1.5801
1.63033
2.21349
3.02806
3.30569
3.34389
3.46801
3.59251
3.59653
3.55898
3.47756
3.36538
3.22428
3.06411
2.95051
2.83995
2.7131
2.57634
2.49236
2.4106
2.3071
2.19534
2.13746
2.09021
2.01247
1.91865
1.87176
1.83162
1.77744
1.69807
1.70576
1.90481
2.44682
2.98535
3.19898
3.15033
3.06546
2.97987
2.92198
2.88374
2.83043
2.75536
2.6751
2.61568
2.57742
2.54086
2.50985
2.49123
2.47161
2.44415
2.41105
2.36289
2.30296
2.25464
2.23079
2.21961
2.20029
2.18253
2.17162
2.15421
2.12279
2.07357
2.01981
1.97635
1.96146
1.95892
1.9614
1.94906
1.92892
1.90545
1.87578
1.83251
1.77921
1.75593
1.74637
1.73287
1.72089
1.70893
1.69408
1.67635
1.65573
1.63296
1.60312
1.56491
1.54844
1.54625
1.54147
2.0754
2.91199
3.23676
3.40026
3.55392
3.62184
3.62006
3.57677
3.49216
3.38352
3.23424
3.09774
2.97476
2.82915
2.6974
2.62392
2.54397
2.4305
2.32006
2.2634
2.19754
2.10694
2.01892
1.96354
1.93076
1.87339
1.9078
2.20818
2.86995
3.30756
3.43272
3.36893
3.25896
3.15598
3.07976
3.02489
2.97706
2.91237
2.82662
2.73023
2.64495
2.5858
2.54947
2.52433
2.5014
2.47778
2.44909
2.40761
2.35087
2.29512
2.24663
2.21036
2.19168
2.18125
2.16895
2.15279
2.12566
2.0911
2.05623
2.01796
1.96639
1.93591
1.93011
1.9247
1.90935
1.88736
1.86627
1.84325
1.80879
1.76959
1.75617
1.73926
1.72828
1.71743
1.69976
1.676
1.65531
1.6389
1.61958
1.5899
1.54951
1.53235
1.52043
1.4064
1.48957
1.98912
2.6804
3.13883
3.53805
3.6355
3.61166
3.58999
3.56932
3.51557
3.39358
3.25118
3.12141
2.9688
2.8175
2.73267
2.65419
2.55029
2.44849
2.38743
2.31611
2.21625
2.1164
2.0567
2.03207
2.14764
2.59772
3.30444
3.75582
3.72267
3.58617
3.44584
3.33047
3.23146
3.1644
3.1072
3.04666
2.97797
2.89955
2.81019
2.72046
2.64814
2.59711
2.55588
2.51768
2.48257
2.44576
2.40424
2.35657
2.29662
2.236
2.20269
2.17418
2.14787
2.13054
2.11692
2.09368
2.07098
2.05372
2.02093
1.96257
1.91124
1.90157
1.89429
1.87729
1.85597
1.83809
1.81879
1.79918
1.77564
1.73775
1.69927
1.68834
1.68181
1.66874
1.6492
1.63427
1.62414
1.61
1.58048
1.53527
1.51464
1.50067
1.40008
1.40301
1.46649
1.80644
2.36378
3.1757
3.55406
3.56006
3.63112
3.63455
3.60085
3.49525
3.36191
3.24547
3.09826
2.95921
2.87145
2.78002
2.65056
2.55286
2.49674
2.42586
2.3348
2.2159
2.21912
2.44576
3.1024
3.73764
4.08056
4.05323
3.90619
3.70693
3.53545
3.41489
3.32907
3.25684
3.19097
3.1267
3.06112
2.98753
2.89808
2.79975
2.71585
2.65214
2.59769
2.54617
2.49633
2.44407
2.395
2.35383
2.30768
2.2552
2.20955
2.16254
2.12598
2.10335
2.08429
2.06463
2.04572
2.02878
1.99993
1.94572
1.88074
1.86461
1.85747
1.84311
1.82777
1.81502
1.79849
1.77934
1.75418
1.7163
1.67579
1.66234
1.65351
1.64005
1.6293
1.62178
1.61313
1.5989
1.56897
1.51987
1.49657
1.48461
1.40001
1.40003
1.40165
1.43214
1.60621
2.21573
3.09762
3.36953
3.58175
3.70821
3.67498
3.59572
3.4973
3.37808
3.21262
3.08422
2.99342
2.90335
2.77652
2.68463
2.60405
2.52833
2.42367
2.46859
2.87624
3.65832
4.24259
4.33508
4.26715
4.12136
3.96379
3.81674
3.67895
3.55268
3.44866
3.3632
3.28517
3.20847
3.13208
3.05346
2.96497
2.86474
2.76748
2.68846
2.62715
2.57618
2.52618
2.47075
2.41099
2.34932
2.29908
2.26801
2.23076
2.17423
2.11861
2.08786
2.06087
2.03097
2.01088
1.99909
1.98075
1.93653
1.86573
1.83386
1.82604
1.81362
1.80219
1.7958
1.78712
1.77107
1.74634
1.70367
1.65538
1.6344
1.62212
1.61086
1.60343
1.59766
1.58835
1.57813
1.56249
1.519
1.48246
1.46766
1.40001
1.40001
1.40001
1.40051
1.41113
1.51857
2.13231
2.85771
3.35434
3.69438
3.7273
3.70563
3.61265
3.48078
3.35409
3.24114
3.12764
3.01689
2.8981
2.78863
2.71177
2.66184
2.81669
3.45381
4.26052
4.69804
4.68016
4.55915
4.37795
4.2068
4.06315
3.93658
3.80744
3.67554
3.55848
3.46027
3.37154
3.28498
3.19654
3.10522
3.01074
2.91333
2.8179
2.73094
2.65588
2.59642
2.54892
2.50219
2.44716
2.38666
2.32876
2.2767
2.22554
2.16192
2.10431
2.07634
2.05151
2.02194
1.99339
1.97167
1.94792
1.90955
1.85416
1.82214
1.80725
1.7904
1.77561
1.76461
1.75119
1.73348
1.70895
1.67083
1.63299
1.61073
1.59609
1.58958
1.58634
1.57903
1.56733
1.55411
1.53657
1.50149
1.46797
1.45202
1.40001
1.40001
1.40001
1.40001
1.40014
1.40467
1.50605
1.95634
2.5821
3.44226
3.68012
3.66016
3.61417
3.56556
3.4824
3.35425
3.23034
3.12697
3.01401
2.87434
2.89585
3.2594
4.19608
4.9715
5.03799
4.95945
4.79076
4.63095
4.47061
4.31832
4.18162
4.04942
3.90986
3.76645
3.63506
3.52316
3.42407
3.33152
3.24181
3.15331
3.06248
2.96321
2.86069
2.77083
2.69639
2.6293
2.56346
2.50214
2.45611
2.41932
2.37466
2.31401
2.24995
2.17403
2.09649
2.0584
2.03708
2.01307
1.98627
1.96436
1.93953
1.90125
1.84286
1.8017
1.77911
1.75746
1.74212
1.73183
1.72086
1.70547
1.68304
1.65407
1.61844
1.58872
1.57118
1.56233
1.55621
1.54892
1.54172
1.53354
1.51975
1.49307
1.46398
1.44191
1.40001
1.40001
1.40001
1.40001
1.40001
1.40006
1.40383
1.46176
1.68097
2.5306
3.34257
3.53151
3.62211
3.64765
3.56052
3.44231
3.34363
3.23977
3.09554
3.17698
3.87872
4.95334
5.6057
5.56712
5.32487
5.04409
4.83484
4.67971
4.5423
4.40645
4.26805
4.12652