/*--------------------------------*- C++ -*----------------------------------*\
  =========                 |
  \\      /  F ield         | OpenFOAM: The Open Source CFD Toolbox
   \\    /   O peration     | Website:  https://openfoam.org
    \\  /    A nd           | Version:  7
     \\/     M anipulation  |
\*---------------------------------------------------------------------------*/
FoamFile
{
    version     2.0;
    format      ascii;
    class       volVectorField;
    location    "2.4";
    object      U;
}
// * * * * * * * * * * * * * * * * * * * * * * * * * * * * * * * * * * * * * //

dimensions      [0 1 -1 0 0 0 0];

internalField   nonuniform List<vector> 
4080
(
(3 -1.12644e-16 0)
(3 -1.81184e-16 0)
(3 -2.08263e-16 0)
(3 -1.2277e-16 0)
(3 1.73436e-16 0)
(3 2.68722e-17 0)
(3 1.36941e-16 0)
(3 3.90567e-16 0)
(3 -3.55757e-16 0)
(3 -3.33998e-16 0)
(3 -1.00211e-15 0)
(3 -8.98463e-16 0)
(3 -6.24454e-16 0)
(3 -3.4273e-16 0)
(3 -4.98447e-17 0)
(3 -1.77418e-16 0)
(3 2.11326e-16 0)
(2.6293 0.0131296 0)
(0.870992 0.0296641 0)
(0.629346 0.0409936 0)
(0.52579 0.0501154 0)
(0.399313 0.0593452 0)
(0.256882 0.0662283 0)
(0.107442 0.0856426 0)
(3 -3.25695e-17 0)
(3 -4.25293e-16 0)
(3 -1.13605e-15 0)
(3 -1.07969e-15 0)
(3 -3.71981e-16 0)
(3 1.24272e-17 0)
(3 2.28079e-16 0)
(3 5.48543e-16 0)
(3 1.00756e-16 0)
(3 -3.92508e-16 0)
(3 -7.61331e-16 0)
(3 -4.69057e-16 0)
(3 2.97904e-16 0)
(3 4.49737e-16 0)
(3 8.85774e-17 0)
(3 8.24191e-16 0)
(3 5.17767e-16 0)
(2.67772 0.0700225 0)
(0.875995 0.142418 0)
(0.604035 0.139884 0)
(0.496845 0.158166 0)
(0.373439 0.189761 0)
(0.236242 0.217766 0)
(0.0913599 0.272093 0)
(3 9.75662e-17 0)
(3 -3.49092e-17 0)
(3 -2.1873e-16 0)
(3 9.13448e-17 0)
(3 3.96667e-16 0)
(3 9.40701e-16 0)
(3 1.06843e-15 0)
(3 1.66925e-15 0)
(3 1.69138e-15 0)
(3 8.5726e-16 0)
(3 5.04703e-16 0)
(3 4.97391e-16 0)
(3 1.12209e-15 0)
(3 5.45029e-16 0)
(3 1.89679e-16 0)
(3 5.17144e-16 0)
(3 2.83148e-16 0)
(2.84765 0.130302 0)
(0.968312 0.2662 0)
(0.651759 0.246112 0)
(0.545654 0.273077 0)
(0.433876 0.321135 0)
(0.296567 0.358059 0)
(0.149456 0.453887 0)
(3 -6.54646e-17 0)
(3 2.99575e-16 0)
(3 3.86345e-16 0)
(3 9.52482e-16 0)
(3 1.28394e-15 0)
(3 8.8462e-16 0)
(3 7.78062e-16 0)
(3 1.16381e-15 0)
(3 1.25463e-15 0)
(3 1.24509e-15 0)
(3 8.71137e-16 0)
(3 4.46327e-16 0)
(3 2.43788e-16 0)
(3 1.92046e-16 0)
(3 4.02448e-16 0)
(3 6.33399e-17 0)
(3 3.51437e-16 0)
(3.03195 0.0179138 0)
(1.15629 0.34969 0)
(0.754536 0.325899 0)
(0.652194 0.360518 0)
(0.546135 0.432298 0)
(0.361964 0.542268 0)
(0.197 0.757478 0)
(3 -1.54233e-16 0)
(3 2.27103e-17 0)
(3 2.33625e-16 0)
(3 -4.73515e-17 0)
(3 8.11102e-17 0)
(3 -5.49959e-18 0)
(3 1.16373e-16 0)
(3 1.21631e-17 0)
(3 -5.687e-17 0)
(3 -2.68604e-16 0)
(3 -7.56116e-17 0)
(3 2.83553e-16 0)
(3 3.20504e-16 0)
(3 5.85323e-16 0)
(3 6.89536e-16 0)
(3 9.64388e-16 0)
(3 9.74563e-16 0)
(3.00292 8.39211e-06 0)
(1.43101 0.400586 0)
(0.807238 0.429044 0)
(0.694647 0.471429 0)
(0.614822 0.579298 0)
(0.557859 0.758962 0)
(0.658667 1.03903 0)
(3 -4.46976e-17 0)
(3 -1.86966e-16 0)
(3 5.14043e-17 0)
(3 -1.17987e-16 0)
(3 -1.91689e-16 0)
(3 4.57836e-16 0)
(3 3.7437e-16 0)
(3 -5.34047e-16 0)
(3 -8.48558e-16 0)
(3 -6.7994e-16 0)
(3 -5.50867e-16 0)
(3 -5.73992e-16 0)
(3 -4.51991e-16 0)
(3 2.92622e-16 0)
(3 1.17568e-15 0)
(3 1.19989e-15 0)
(3 1.10689e-15 0)
(3.00002 -8.44005e-07 0)
(1.93419 0.453489 0)
(0.889839 0.540553 0)
(0.761764 0.556488 0)
(0.735349 0.656032 0)
(0.775444 0.786475 0)
(0.991169 0.920983 0)
(3 -2.11757e-16 0)
(3 -5.04741e-16 0)
(3 -4.04686e-16 0)
(3 -3.58158e-17 0)
(3 2.17452e-16 0)
(3 1.95344e-16 0)
(3 1.60771e-16 0)
(3 2.84563e-16 0)
(3 3.97462e-16 0)
(3 -1.74178e-16 0)
(3 -9.02856e-16 0)
(3 -4.92067e-16 0)
(3 -6.1522e-16 0)
(3 4.05509e-16 0)
(3 7.34985e-16 0)
(3 7.24968e-16 0)
(3 9.34439e-16 0)
(3 -1.00812e-06 0)
(2.73469 0.305699 0)
(1.09548 0.641341 0)
(0.888241 0.607416 0)
(0.877768 0.697709 0)
(0.956837 0.806113 0)
(1.20338 0.892857 0)
(3 -2.0136e-16 0)
(3 -5.57271e-16 0)
(3 -3.72882e-16 0)
(3 5.08307e-17 0)
(3 -8.64482e-18 0)
(3 -1.16277e-15 0)
(3 -1.25342e-15 0)
(3 -7.16065e-16 0)
(3 -2.73593e-16 0)
(3 -6.52481e-16 0)
(3 4.18654e-17 0)
(3 9.49823e-16 0)
(3 5.64726e-16 0)
(3 -7.0361e-17 0)
(3 -3.631e-16 0)
(3 -2.2455e-17 0)
(3 -9.65795e-17 0)
(3 -2.1296e-07 0)
(3.07283 0.025275 0)
(1.4954 0.662298 0)
(1.01844 0.707422 0)
(1.01759 0.723905 0)
(1.08446 0.785903 0)
(1.29151 0.837713 0)
(3 -4.80657e-17 0)
(3 -2.09936e-16 0)
(3 -6.52982e-16 0)
(3 -7.92326e-16 0)
(3 -1.31205e-15 0)
(3 -1.36695e-15 0)
(3 -1.62086e-15 0)
(3 -2.51397e-15 0)
(3 -2.6849e-15 0)
(3 -1.59533e-15 0)
(3 -5.20511e-16 0)
(3 -1.85824e-16 0)
(3 7.84996e-17 0)
(3 -1.08162e-16 0)
(3 -4.32093e-16 0)
(3 -3.0694e-16 0)
(3 -5.59332e-17 0)
(3 -2.20078e-08 0)
(3.00397 0.000152948 0)
(2.19447 0.588291 0)
(1.15162 0.806268 0)
(1.10499 0.798091 0)
(1.19126 0.814426 0)
(1.35517 0.827121 0)
(3 2.47554e-16 0)
(3 -1.85691e-16 0)
(3 -1.02184e-15 0)
(3 -2.36644e-15 0)
(3 -2.51413e-15 0)
(3 -1.55662e-15 0)
(3 -8.04193e-16 0)
(3 -1.0395e-15 0)
(3 -1.27586e-15 0)
(3 -1.45587e-15 0)
(3 -1.69254e-15 0)
(3 -2.09143e-15 0)
(3 -8.30845e-16 0)
(3 -3.64127e-16 0)
(3 -1.00862e-16 0)
(3 3.81068e-17 0)
(3 1.25752e-16 0)
(3 -7.09471e-10 0)
(3.00001 -3.03388e-08 0)
(3.03786 0.135002 0)
(1.53119 0.819178 0)
(1.20694 0.789047 0)
(1.29777 0.801193 0)
(1.42139 0.807814 0)
(3 -6.63809e-17 0)
(3 -1.4195e-16 0)
(3 -2.5363e-16 0)
(3 -4.86083e-16 0)
(3 -6.84217e-16 0)
(3 -5.15273e-16 0)
(3 -2.19486e-16 0)
(3 1.66728e-17 0)
(3 2.13723e-17 0)
(3 -4.7723e-16 0)
(3 -1.11543e-15 0)
(3 -1.23274e-15 0)
(3 -1.46341e-15 0)
(3 -1.20942e-15 0)
(3 -7.59842e-16 0)
(3 -7.95273e-16 0)
(3 -4.97751e-17 0)
(3 -1.7401e-12 0)
(3 -6.50319e-07 0)
(3.0166 0.00329848 0)
(2.20899 0.665521 0)
(1.32274 0.869417 0)
(1.33874 0.860497 0)
(1.45163 0.848751 0)
(3 1.17265e-16 0)
(3 6.05968e-16 0)
(3 8.44335e-16 0)
(3 7.8459e-16 0)
(3 8.55678e-16 0)
(3 4.84461e-17 0)
(3 -4.67145e-16 0)
(3 -2.70858e-16 0)
(3 -3.1167e-16 0)
(3 -5.878e-16 0)
(3 2.87972e-16 0)
(3 1.7366e-16 0)
(3 -4.79668e-16 0)
(3 -1.22643e-15 0)
(3 -1.69074e-15 0)
(3 -2.1706e-15 0)
(3 -2.75833e-16 0)
(3 -2.1895e-15 0)
(3 -1.37895e-07 0)
(3.00011 4.53471e-05 0)
(3.00236 0.151504 0)
(1.7255 0.864432 0)
(1.39049 0.86403 0)
(1.50486 0.849878 0)
(3 3.03086e-16 0)
(3 3.26565e-16 0)
(3 4.19037e-16 0)
(3 6.46171e-16 0)
(3 9.97032e-16 0)
(3 7.04531e-16 0)
(3 -6.57847e-17 0)
(3 -1.96639e-16 0)
(3 8.70359e-17 0)
(3 7.48633e-16 0)
(3 1.57967e-15 0)
(3 1.20333e-15 0)
(3 5.7353e-16 0)
(3 -1.29504e-15 0)
(3 -2.05558e-15 0)
(3 -1.42281e-15 0)
(3 -2.25983e-17 0)
(3 3.70008e-16 0)
(3 -1.40047e-08 0)
(3 6.30456e-09 0)
(3.01018 0.00672292 0)
(2.54186 0.580512 0)
(1.54939 0.914073 0)
(1.53841 0.906048 0)
(3 -1.20184e-16 0)
(3 -1.189e-16 0)
(3 -1.3433e-16 0)
(3 3.74087e-16 0)
(3 6.20547e-16 0)
(3 6.16948e-16 0)
(3 2.76687e-16 0)
(3 4.21306e-16 0)
(3 9.12444e-16 0)
(3 1.29424e-15 0)
(3 5.73537e-16 0)
(3 -2.79609e-17 0)
(3 1.3448e-16 0)
(3 -3.58962e-16 0)
(3 -2.80478e-16 0)
(3 1.49962e-15 0)
(3 1.96362e-15 0)
(3 1.48565e-15 0)
(3 -1.67822e-10 0)
(3 -1.74193e-09 0)
(3.00005 0.000101075 0)
(3.02415 0.075117 0)
(2.06573 0.78027 0)
(1.61655 0.91414 0)
(3 -1.26664e-16 0)
(3 -1.12739e-17 0)
(3 -2.91024e-16 0)
(3 -1.48247e-16 0)
(3 -8.81346e-17 0)
(3 -3.02385e-16 0)
(3 1.89617e-16 0)
(3 4.03983e-16 0)
(3 3.83635e-16 0)
(3 5.25669e-16 0)
(3 3.58791e-17 0)
(3 -2.92348e-16 0)
(3 -1.82084e-16 0)
(3 6.71762e-16 0)
(3 1.85889e-15 0)
(3 2.70221e-15 0)
(3 2.55069e-15 0)
(3 9.47746e-16 0)
(3 -8.72783e-13 0)
(3 -3.74636e-10 0)
(3 9.86392e-08 0)
(3.00191 0.0036747 0)
(2.8231 0.301517 0)
(1.91801 0.870188 0)
(3 -3.16726e-16 0)
(3 -5.63184e-16 0)
(3 -4.01606e-16 0)
(3 -3.05654e-16 0)
(3 -7.73027e-16 0)
(3 -8.83508e-16 0)
(3 -6.51085e-16 0)
(3 -6.77672e-16 0)
(3 -2.21446e-16 0)
(3 1.44808e-16 0)
(3 1.29473e-16 0)
(3 -6.28938e-17 0)
(3 1.08895e-16 0)
(3 1.37481e-15 0)
(3 1.22395e-15 0)
(3 4.06928e-16 0)
(3 -1.22559e-16 0)
(3 -7.84304e-16 0)
(3 -2.18636e-15 0)
(3 -3.6676e-11 0)
(3 -1.28083e-11 0)
(3 2.29916e-05 0)
(3.0007 0.0244486 0)
(2.58224 0.515359 0)
(3 2.38427e-16 0)
(3 -4.0844e-17 0)
(3 -8.51043e-18 0)
(3 -6.24538e-17 0)
(3 -4.12693e-16 0)
(3 -7.11747e-16 0)
(3 -6.36209e-16 0)
(3 -5.47104e-16 0)
(3 2.43846e-16 0)
(3 3.60916e-16 0)
(3 4.64372e-16 0)
(3 3.81324e-16 0)
(3 9.15926e-16 0)
(3 1.13923e-15 0)
(3 8.08205e-16 0)
(3 4.48615e-17 0)
(3 -4.09324e-16 0)
(3 -8.04691e-16 0)
(3 -4.59395e-16 0)
(3 -9.30452e-13 0)
(3 -2.7576e-12 0)
(3 1.89918e-08 0)
(2.99994 0.000588586 0)
(2.97574 0.0766882 0)
(3 1.72881e-16 0)
(3 4.92804e-16 0)
(3 5.04784e-16 0)
(3 1.24464e-16 0)
(3 -3.57273e-18 0)
(3 6.73717e-16 0)
(3 1.09401e-15 0)
(3 1.90002e-15 0)
(3 1.45075e-15 0)
(3 9.56417e-16 0)
(3 6.0306e-16 0)
(3 5.55911e-16 0)
(3 -2.81133e-16 0)
(3 -2.16641e-16 0)
(3 4.05813e-16 0)
(3 4.49086e-16 0)
(3 -5.31863e-17 0)
(3 -4.96239e-16 0)
(3 -7.5517e-16 0)
(3 -5.84122e-15 0)
(3 -6.79295e-13 0)
(3 6.06612e-12 0)
(3 1.48033e-06 0)
(2.99947 0.00329511 0)
(3 -2.20569e-17 0)
(3 5.04277e-16 0)
(3 7.57709e-16 0)
(3 8.01857e-16 0)
(3 1.15655e-15 0)
(3 1.54737e-15 0)
(3 1.43033e-15 0)
(3 1.37541e-15 0)
(3 7.56573e-16 0)
(3 3.14432e-16 0)
(3 -2.81045e-16 0)
(3 -9.06134e-16 0)
(3 -1.20341e-15 0)
(3 -1.33756e-15 0)
(3 -5.12323e-16 0)
(3 1.30256e-16 0)
(3 -2.28782e-16 0)
(3 -6.89913e-16 0)
(3 -1.70955e-15 0)
(3 -2.23027e-15 0)
(3 -7.46929e-14 0)
(3 -7.46056e-14 0)
(3 1.26246e-09 0)
(2.99999 1.93689e-05 0)
(3 -5.98771e-17 0)
(3 -2.73005e-16 0)
(3 -2.37135e-16 0)
(3 -1.5658e-16 0)
(3 -4.0155e-17 0)
(3 -8.83446e-17 0)
(3 -1.07969e-16 0)
(3 -1.18358e-16 0)
(3 -3.85935e-16 0)
(3 -9.75598e-16 0)
(3 -7.29084e-16 0)
(3 -1.4418e-15 0)
(3 -1.21617e-15 0)
(3 -7.9984e-16 0)
(3 -8.46784e-16 0)
(3 -7.1342e-16 0)
(3 1.24295e-16 0)
(3 2.38707e-16 0)
(3 -4.1716e-16 0)
(3 -4.53353e-16 0)
(3 -1.50809e-15 0)
(3 -2.56102e-14 0)
(3 1.8496e-13 0)
(3 2.59843e-08 0)
(3 -1.73222e-16 0)
(3 -3.25071e-16 0)
(3 -9.30119e-16 0)
(3 -9.27527e-16 0)
(3 -8.06266e-16 0)
(3 -9.5042e-16 0)
(3 -8.34801e-16 0)
(3 -5.35955e-16 0)
(3 -5.5476e-16 0)
(3 -5.49677e-16 0)
(3 -2.88991e-16 0)
(3 -1.96399e-16 0)
(3 -5.24397e-16 0)
(3 -4.4868e-16 0)
(3 -8.07635e-16 0)
(3 -1.25049e-15 0)
(3 -1.95605e-15 0)
(3 -1.17339e-15 0)
(3 -3.92884e-16 0)
(3 -5.30885e-16 0)
(3 -4.39512e-16 0)
(3 -5.09119e-15 0)
(3 -4.66621e-15 0)
(3 9.57653e-12 0)
(3 4.55677e-17 0)
(3 -1.43114e-16 0)
(3 -5.46318e-16 0)
(3 -6.52712e-16 0)
(3 -7.99905e-16 0)
(3 -7.56464e-16 0)
(3 -2.6155e-16 0)
(3 -3.48079e-16 0)
(3 -2.37617e-16 0)
(3 1.54604e-16 0)
(3 1.62769e-16 0)
(3 -2.84463e-17 0)
(3 -4.85216e-16 0)
(3 -9.48207e-16 0)
(3 -9.08721e-16 0)
(3 -7.59942e-16 0)
(3 -6.64798e-16 0)
(3 -7.06262e-16 0)
(3 -6.28519e-16 0)
(3 -1.44339e-15 0)
(3 -1.61093e-15 0)
(3 -7.29801e-16 0)
(3 -2.19263e-15 0)
(3 -1.35016e-15 0)
(3 2.37532e-16 0)
(3 6.60666e-18 0)
(3 -2.78512e-16 0)
(3 -3.76184e-16 0)
(3 -7.29316e-16 0)
(3 -5.51149e-16 0)
(3 -2.08052e-16 0)
(3 -6.1871e-16 0)
(3 -6.32009e-16 0)
(3 -3.74995e-16 0)
(3 -2.78196e-16 0)
(3 -6.08084e-17 0)
(3 2.20093e-16 0)
(3 -4.88761e-16 0)
(3 -9.51114e-16 0)
(3 -3.76009e-16 0)
(3 -3.96332e-17 0)
(3 -3.69727e-16 0)
(3 -1.2828e-15 0)
(3 -1.48885e-15 0)
(3 -3.50772e-16 0)
(3 -2.62545e-16 0)
(3 -7.94268e-16 0)
(3 -1.58525e-15 0)
(3 9.54534e-17 0)
(3 3.02077e-16 0)
(3 3.4306e-17 0)
(3 -1.29576e-16 0)
(3 -3.02544e-16 0)
(3 -2.89353e-16 0)
(3 -5.82376e-16 0)
(3 -4.98746e-16 0)
(3 -3.46868e-16 0)
(3 -1.06712e-15 0)
(3 -6.6905e-16 0)
(3 1.0027e-15 0)
(3 8.25012e-16 0)
(3 1.9664e-16 0)
(3 -5.7219e-16 0)
(3 -6.20503e-16 0)
(3 -1.39538e-15 0)
(3 -1.79955e-15 0)
(3 -1.94285e-15 0)
(3 -1.12406e-15 0)
(3 -6.34589e-16 0)
(3 -9.23962e-16 0)
(3 -1.14062e-15 0)
(3 -1.27796e-15 0)
(3 -5.63076e-17 0)
(3 3.07461e-16 0)
(3 4.71665e-16 0)
(3 2.86373e-16 0)
(3 1.17324e-17 0)
(3 1.19645e-16 0)
(3 5.85852e-17 0)
(3 3.10229e-16 0)
(3 1.04621e-16 0)
(3 -2.5356e-16 0)
(3 3.5386e-16 0)
(3 7.54814e-16 0)
(3 4.5085e-16 0)
(3 -4.14684e-17 0)
(3 -3.19242e-16 0)
(3 -1.07547e-15 0)
(3 -2.28504e-15 0)
(3 -2.53653e-15 0)
(3 -1.37423e-15 0)
(3 -2.44653e-16 0)
(3 -7.73682e-16 0)
(3 -7.44686e-16 0)
(3 -7.21824e-16 0)
(3 -5.14355e-16 0)
(3 -4.30533e-17 0)
(3 1.09803e-16 0)
(3 5.30705e-16 0)
(3 7.93305e-16 0)
(3 8.87807e-16 0)
(3 4.5527e-16 0)
(3 2.22657e-16 0)
(3 5.19054e-17 0)
(3 2.91647e-16 0)
(3 1.33054e-15 0)
(3 1.33554e-15 0)
(3 1.48853e-15 0)
(3 1.70052e-15 0)
(3 1.30354e-15 0)
(3 5.32387e-17 0)
(3 -1.48298e-15 0)
(3 -1.1036e-15 0)
(3 -4.00492e-16 0)
(3 -2.99214e-16 0)
(3 7.72324e-17 0)
(3 2.9639e-16 0)
(3 -1.11723e-15 0)
(3 -9.07822e-16 0)
(3 -3.80633e-16 0)
(3 -4.32702e-17 0)
(3 -1.36686e-16 0)
(3 -2.89416e-16 0)
(3 -5.06404e-17 0)
(3 -3.40822e-17 0)
(3 3.05424e-16 0)
(3 3.30259e-16 0)
(3 1.95996e-16 0)
(3 8.43901e-16 0)
(3 1.73055e-15 0)
(3 1.45485e-15 0)
(3 9.97067e-16 0)
(3 1.19658e-15 0)
(3 1.30844e-15 0)
(3 -4.26173e-17 0)
(3 1.45895e-16 0)
(3 1.71368e-15 0)
(3 1.90226e-15 0)
(3 1.2349e-15 0)
(3 7.36952e-16 0)
(3 -2.39483e-17 0)
(3 -4.12358e-16 0)
(3 -9.3305e-16 0)
(3 -1.51483e-15 0)
(3 6.02758e-17 0)
(3 -2.17143e-17 0)
(3 -1.67013e-16 0)
(3 -1.65701e-16 0)
(3 -2.88037e-16 0)
(3 2.81393e-16 0)
(3 4.39595e-16 0)
(3 1.01012e-15 0)
(3 8.78475e-16 0)
(3 1.42279e-16 0)
(3 8.81081e-18 0)
(3 -1.82357e-16 0)
(3 -3.68902e-16 0)
(3 2.28706e-16 0)
(3 1.00934e-15 0)
(3 1.91484e-15 0)
(3 1.81184e-15 0)
(3 1.51986e-15 0)
(3 2.13478e-15 0)
(3 1.71805e-15 0)
(3 1.10864e-15 0)
(3 1.10358e-15 0)
(3 5.32922e-16 0)
(3 -1.06008e-15 0)
(3 2.07775e-16 0)
(3 3.26092e-16 0)
(3 3.03131e-16 0)
(3 2.73357e-16 0)
(3 -1.21909e-17 0)
(3 -3.10202e-16 0)
(3 2.58604e-17 0)
(3 3.47019e-16 0)
(3 -4.28919e-19 0)
(3 -6.24484e-16 0)
(3 -8.07868e-16 0)
(3 -2.78179e-16 0)
(3 -3.46999e-16 0)
(3 -2.2781e-16 0)
(3 3.25082e-16 0)
(3 4.21643e-16 0)
(3 7.89815e-16 0)
(3 4.94488e-16 0)
(3 8.17576e-16 0)
(3 9.21097e-16 0)
(3 1.01286e-15 0)
(3 6.86864e-16 0)
(3 -1.87866e-16 0)
(3 -6.59729e-16 0)
(3 -7.02516e-17 0)
(3 -2.31312e-16 0)
(3 -8.38183e-17 0)
(3 -2.51679e-16 0)
(3 -7.10125e-16 0)
(3 -1.1904e-15 0)
(3 -4.29769e-16 0)
(3 -4.09848e-16 0)
(3 -7.84167e-17 0)
(3 5.77213e-17 0)
(3 -1.78381e-16 0)
(3 -2.91514e-16 0)
(3 -1.33711e-16 0)
(3 -1.05042e-16 0)
(3 1.4784e-16 0)
(3 2.91948e-17 0)
(3 5.7735e-16 0)
(3 8.2835e-16 0)
(3 4.93305e-17 0)
(3 9.35169e-17 0)
(3 2.40932e-16 0)
(3 8.50608e-16 0)
(3 5.72742e-16 0)
(3 6.67134e-16 0)
(3 -3.3077e-16 0)
(3 -7.96471e-17 0)
(3 1.66289e-16 0)
(3 -1.11498e-16 0)
(3 -1.73535e-16 0)
(3 2.44543e-16 0)
(3 1.55071e-16 0)
(3 -2.44621e-17 0)
(3 -6.53617e-16 0)
(3 -1.13708e-15 0)
(3 -8.27919e-16 0)
(3 -7.4935e-16 0)
(3 -3.59102e-16 0)
(3 -1.75124e-16 0)
(3 4.35642e-16 0)
(3 3.43793e-17 0)
(3 1.49053e-18 0)
(3 5.93141e-16 0)
(3 -2.10397e-16 0)
(3 -4.32563e-16 0)
(3 -1.87751e-16 0)
(3 1.10142e-15 0)
(3 2.76924e-15 0)
(3 3.16812e-15 0)
(3 3.90767e-17 0)
(3 -3.29181e-17 0)
(3 -2.04732e-16 0)
(3 3.06318e-17 0)
(3 6.87884e-16 0)
(3 7.9125e-16 0)
(3 3.93509e-16 0)
(3 -3.44166e-16 0)
(3 -8.50717e-16 0)
(3 -1.35754e-15 0)
(3 -1.41997e-15 0)
(3 -1.46247e-15 0)
(3 -1.37638e-15 0)
(3 -7.69048e-16 0)
(3 -1.52054e-16 0)
(3 1.08223e-15 0)
(3 7.43333e-16 0)
(3 -8.93146e-17 0)
(3 -7.09487e-17 0)
(3 1.15948e-16 0)
(3 4.21532e-16 0)
(3 6.5894e-16 0)
(3 1.71997e-15 0)
(3 1.90647e-15 0)
(3 7.62905e-17 0)
(3 -4.03199e-16 0)
(3 -3.62278e-16 0)
(3 -2.42516e-17 0)
(3 5.10993e-16 0)
(3 3.16994e-16 0)
(3 4.7219e-16 0)
(3 5.11219e-16 0)
(3 -7.24766e-17 0)
(3 -1.27868e-16 0)
(3 -3.89234e-16 0)
(3 -1.05117e-15 0)
(3 -1.22494e-15 0)
(3 -1.01392e-15 0)
(3 -7.8623e-16 0)
(3 3.73778e-16 0)
(3 7.20476e-16 0)
(3 4.6467e-16 0)
(3 6.94228e-16 0)
(3 1.64918e-15 0)
(3 1.38366e-15 0)
(3 8.79115e-16 0)
(3 3.73225e-16 0)
(3 7.28489e-16 0)
(3 -6.73841e-17 0)
(3 1.60458e-17 0)
(3 4.08118e-16 0)
(3 4.49949e-16 0)
(3 4.16756e-16 0)
(3 4.11622e-16 0)
(3 4.92687e-16 0)
(3 6.75931e-16 0)
(3 6.93128e-16 0)
(3 5.44001e-16 0)
(3 5.64669e-16 0)
(3 1.05804e-15 0)
(3 1.17221e-15 0)
(3 8.87004e-16 0)
(3 5.90818e-16 0)
(3 -2.18863e-17 0)
(3 -1.54909e-16 0)
(3 4.05771e-16 0)
(3 6.53216e-16 0)
(3 6.66112e-16 0)
(3 4.32733e-16 0)
(3 -5.01143e-16 0)
(3 -4.61784e-16 0)
(3 2.96503e-16 0)
(3 1.90052e-17 0)
(3 2.45709e-16 0)
(3 2.05287e-16 0)
(3 1.14481e-16 0)
(3 4.14946e-17 0)
(3 5.23292e-16 0)
(3 6.46042e-16 0)
(3 4.05222e-16 0)
(3 1.03492e-15 0)
(3 1.19046e-15 0)
(3 1.24885e-15 0)
(3 1.45839e-15 0)
(3 1.91117e-15 0)
(3 1.69132e-15 0)
(3 9.58253e-16 0)
(3 2.30215e-16 0)
(3 -8.22988e-16 0)
(3 -7.51762e-16 0)
(3 -6.93887e-16 0)
(3 -1.33869e-15 0)
(3 -1.85971e-15 0)
(3 -2.3287e-15 0)
(3 -8.68431e-16 0)
(3 -4.0672e-16 0)
(3 -9.65164e-18 0)
(3 -8.95329e-17 0)
(3 -3.5532e-16 0)
(3 -5.10036e-16 0)
(3 1.15788e-16 0)
(3 8.01872e-16 0)
(3 1.01762e-15 0)
(3 8.73094e-16 0)
(3 1.1054e-15 0)
(3 8.66691e-16 0)
(3 1.79704e-16 0)
(3 -6.66015e-17 0)
(3 -3.57988e-16 0)
(3 -2.43246e-16 0)
(3 -1.0627e-15 0)
(3 -1.64147e-15 0)
(3 -1.71817e-15 0)
(3 -1.85926e-15 0)
(3 -2.09216e-15 0)
(3 -2.63903e-15 0)
(3 -2.62374e-15 0)
(3 -1.10849e-15 0)
(3 -8.68989e-16 0)
(3 -5.86475e-16 0)
(3 -3.4595e-18 0)
(3 -1.97627e-16 0)
(3 -3.68733e-16 0)
(3 -2.27231e-17 0)
(3 7.80757e-17 0)
(3 3.56135e-16 0)
(3 4.18606e-16 0)
(3 3.71713e-16 0)
(3 3.0444e-16 0)
(3 7.60105e-18 0)
(3 -1.30475e-16 0)
(3 -8.39209e-16 0)
(3 -1.10948e-15 0)
(3 -8.20157e-16 0)
(3 -3.40533e-16 0)
(3 -6.32126e-16 0)
(3 -7.74405e-16 0)
(3 -1.30629e-15 0)
(3 -2.05794e-15 0)
(3 -1.47757e-15 0)
(3 -3.52998e-16 0)
(3 3.28401e-16 0)
(3 4.64915e-16 0)
(3 4.69646e-16 0)
(3 1.74006e-16 0)
(3 -5.8256e-17 0)
(3 1.07146e-16 0)
(3 2.72745e-16 0)
(3 3.77726e-16 0)
(3 -1.07335e-16 0)
(3 -7.39079e-16 0)
(3 -4.54322e-16 0)
(3 -2.12644e-16 0)
(3 3.10521e-16 0)
(3 7.7003e-16 0)
(3 6.5071e-16 0)
(3 2.47992e-16 0)
(3 1.72367e-16 0)
(3 6.50751e-16 0)
(3 6.5016e-16 0)
(3 2.53925e-16 0)
(3 3.65976e-16 0)
(3 -3.05509e-16 0)
(3 -7.36676e-17 0)
(3 1.00705e-15 0)
(3 1.00096e-15 0)
(3 7.10372e-16 0)
(3 -2.78236e-16 0)
(3 2.03295e-16 0)
(3 4.62179e-16 0)
(3 8.17417e-16 0)
(3 1.01372e-15 0)
(3 1.24139e-15 0)
(3 -4.16849e-17 0)
(3 -4.65827e-16 0)
(3 -3.95524e-16 0)
(3 -3.86853e-16 0)
(3 5.35019e-16 0)
(3 8.23065e-16 0)
(3 1.00898e-15 0)
(3 7.15866e-16 0)
(3 5.11195e-16 0)
(3 7.51133e-16 0)
(3 9.085e-16 0)
(3 3.60617e-16 0)
(3 -9.51688e-17 0)
(3 1.37171e-16 0)
(3 -4.85926e-17 0)
(3 3.34541e-16 0)
(3 1.82336e-15 0)
(3 1.74321e-15 0)
(3 4.88543e-16 0)
(3 1.5242e-16 0)
(3 6.08243e-16 0)
(3 1.03407e-15 0)
(3 1.0859e-15 0)
(3 7.91558e-16 0)
(3 1.50937e-16 0)
(3 1.10625e-16 0)
(3 -3.48648e-17 0)
(3 -1.3459e-16 0)
(3 9.69504e-17 0)
(3 2.46872e-16 0)
(3 2.59235e-16 0)
(3 1.54586e-16 0)
(3 2.40546e-16 0)
(3 7.16013e-16 0)
(3 6.52848e-16 0)
(3 -6.55133e-17 0)
(3 -7.50056e-16 0)
(3 -4.52281e-16 0)
(3 -2.91232e-16 0)
(3 1.61656e-17 0)
(3 9.07046e-16 0)
(3 1.27375e-15 0)
(3 1.16043e-15 0)
(1.58626 1.0401 0)
(2.39125 1.11578 0)
(1.31468 0.77682 0)
(0.420521 0.367661 0)
(0.283072 0.129205 0)
(0.216708 0.0424318 0)
(0.165776 0.0480374 0)
(0.106661 0.0517049 0)
(0.049432 0.0414528 0)
(0.0150651 0.0194827 0)
(-0.00189593 0.00564651 0)
(-0.00141057 -0.00118185 0)
(1.70207 0.84361 0)
(2.42585 0.524019 0)
(1.81818 0.349143 0)
(0.970868 0.270751 0)
(0.716576 0.101172 0)
(0.507842 0.056136 0)
(0.350454 0.0750448 0)
(0.235487 0.0872796 0)
(0.148251 0.0793937 0)
(0.0856341 0.0479003 0)
(0.0420271 0.0263014 0)
(0.0177553 0.0110062 0)
(1.61584 0.866563 0)
(2.16698 0.627734 0)
(2.07008 0.544671 0)
(1.53861 0.652951 0)
(1.20294 0.540112 0)
(0.940728 0.432192 0)
(0.669011 0.365514 0)
(0.490837 0.286388 0)
(0.361304 0.225276 0)
(0.265954 0.145587 0)
(0.183378 0.0730477 0)
(0.101221 0.0837851 0)
(1.57972 0.814008 0)
(1.92992 0.681553 0)
(2.11741 0.544317 0)
(1.94816 0.622955 0)
(1.56113 0.679978 0)
(1.42061 0.594006 0)
(1.20442 0.4688 0)
(1.00212 0.345849 0)
(0.812135 0.272829 0)
(0.648455 0.201616 0)
(0.447174 0.190614 0)
(0.250192 0.370241 0)
(1.55983 0.806092 0)
(1.80859 0.719599 0)
(2.04862 0.585495 0)
(2.02549 0.591917 0)
(1.85505 0.679207 0)
(1.61473 0.718205 0)
(1.5007 0.679453 0)
(1.38998 0.609153 0)
(1.22402 0.546684 0)
(1.04613 0.468589 0)
(0.874528 0.438566 0)
(0.853007 0.60215 0)
(1.57711 0.790859 0)
(1.76581 0.738498 0)
(1.98086 0.632623 0)
(2.05821 0.582338 0)
(1.95868 0.623936 0)
(1.78944 0.722971 0)
(1.62731 0.724502 0)
(1.61176 0.692181 0)
(1.54024 0.650298 0)
(1.43456 0.60152 0)
(1.34986 0.531812 0)
(1.33345 0.501404 0)
(1.57382 0.827967 0)
(1.7161 0.784539 0)
(1.8965 0.699955 0)
(2.03158 0.617883 0)
(2.01259 0.623481 0)
(1.89001 0.681577 0)
(1.69897 0.743436 0)
(1.68121 0.740524 0)
(1.66749 0.721181 0)
(1.62967 0.704024 0)
(1.61382 0.660743 0)
(1.60409 0.625968 0)
(1.59978 0.828865 0)
(1.7146 0.788309 0)
(1.85228 0.732115 0)
(2.00724 0.64048 0)
(2.03871 0.612914 0)
(1.98026 0.642589 0)
(1.8099 0.721751 0)
(1.70833 0.747634 0)
(1.70602 0.744043 0)
(1.6973 0.740008 0)
(1.7147 0.717607 0)
(1.73661 0.689591 0)
(1.61717 0.869559 0)
(1.71313 0.827619 0)
(1.81233 0.781128 0)
(1.95722 0.69731 0)
(2.03549 0.644292 0)
(2.01236 0.650961 0)
(1.8994 0.701902 0)
(1.76569 0.761598 0)
(1.73215 0.757765 0)
(1.72687 0.753264 0)
(1.74405 0.741065 0)
(1.77487 0.723613 0)
(1.65597 0.893612 0)
(1.73433 0.855103 0)
(1.82542 0.800273 0)
(1.9217 0.748622 0)
(2.0433 0.662146 0)
(2.04951 0.647152 0)
(1.99698 0.674485 0)
(1.87008 0.741139 0)
(1.76784 0.768214 0)
(1.753 0.767392 0)
(1.76085 0.757121 0)
(1.78715 0.741445 0)
(1.69322 0.927274 0)
(1.74615 0.898913 0)
(1.82901 0.851392 0)
(1.9117 0.796597 0)
(2.02122 0.723073 0)
(2.07679 0.676367 0)
(2.03544 0.690699 0)
(1.94852 0.724966 0)
(1.83426 0.783989 0)
(1.78011 0.781018 0)
(1.77969 0.77121 0)
(1.7951 0.758276 0)
(1.8799 0.926552 0)
(1.76151 0.925688 0)
(1.81952 0.896094 0)
(1.91269 0.836068 0)
(1.98968 0.785081 0)
(2.0963 0.703119 0)
(2.08471 0.690337 0)
(2.03756 0.708398 0)
(1.94517 0.767291 0)
(1.82106 0.79367 0)
(1.81068 0.788678 0)
(1.81321 0.775928 0)
(2.42811 0.654272 0)
(1.87029 0.931107 0)
(1.83925 0.92885 0)
(1.89342 0.889419 0)
(1.98011 0.824061 0)
(2.07027 0.764117 0)
(2.12554 0.707288 0)
(2.08666 0.718106 0)
(2.02228 0.746753 0)
(1.90892 0.807428 0)
(1.84843 0.807195 0)
(1.84174 0.795609 0)
(2.9211 0.16629 0)
(2.32044 0.720787 0)
(1.92103 0.927025 0)
(1.90594 0.926937 0)
(1.96697 0.877402 0)
(2.03817 0.821787 0)
(2.14401 0.736715 0)
(2.1324 0.728892 0)
(2.09471 0.742184 0)
(2.02203 0.789054 0)
(1.90081 0.824649 0)
(1.88432 0.819474 0)
(2.99752 0.00999715 0)
(2.84662 0.253534 0)
(2.28142 0.756481 0)
(1.97465 0.924599 0)
(1.96648 0.923572 0)
(2.02652 0.87073 0)
(2.10272 0.811372 0)
(2.17877 0.745607 0)
(2.13816 0.749671 0)
(2.09867 0.769667 0)
(2.01262 0.823082 0)
(1.92141 0.838703 0)
(2.99996 0.00011595 0)
(2.99341 0.0193139 0)
(2.78687 0.317135 0)
(2.27725 0.772738 0)
(2.02585 0.918984 0)
(2.02144 0.916907 0)
(2.07623 0.86799 0)
(2.17055 0.798913 0)
(2.18161 0.760223 0)
(2.14934 0.765963 0)
(2.08647 0.797663 0)
(1.98982 0.851347 0)
(3 2.26141e-07 0)
(2.99988 0.000355039 0)
(2.98811 0.0284832 0)
(2.74888 0.357119 0)
(2.29145 0.775116 0)
(2.07284 0.910695 0)
(2.07049 0.907661 0)
(2.12414 0.864968 0)
(2.21072 0.785281 0)
(2.19122 0.78139 0)
(2.15771 0.79451 0)
(2.09756 0.834179 0)
(3 1.46635e-10 0)
(3 9.2082e-07 0)
(2.99976 0.000689863 0)
(2.98297 0.036101 0)
(2.73356 0.373612 0)
(2.31609 0.769284 0)
(2.11755 0.899091 0)
(2.11817 0.895154 0)
(2.1635 0.859064 0)
(2.2316 0.794896 0)
(2.1997 0.797629 0)
(2.16569 0.814521 0)
(3 1.38399e-14 0)
(3 8.54858e-10 0)
(3 2.20813e-06 0)
(2.99963 0.00101603 0)
(2.97954 0.0406694 0)
(2.73674 0.370866 0)
(2.34974 0.754937 0)
(2.16033 0.884631 0)
(2.16169 0.8821 0)
(2.20185 0.853184 0)
(2.23737 0.807153 0)
(2.20365 0.816882 0)
(3 -1.69584e-15 0)
(3 1.09379e-13 0)
(3 2.51563e-09 0)
(3 3.81223e-06 0)
(2.99954 0.00121834 0)
(2.97865 0.0412779 0)
(2.75322 0.353978 0)
(2.39168 0.72971 0)
(2.2005 0.869544 0)
(2.2008 0.869747 0)
(2.23102 0.847196 0)
(2.23291 0.825957 0)
(3 -8.91432e-16 0)
(3 -9.49495e-16 0)
(3 4.09453e-13 0)
(3 4.94135e-09 0)
(3 4.9871e-06 0)
(2.99951 0.0012606 0)
(2.98077 0.0373109 0)
(2.77299 0.331364 0)
(2.44667 0.68925 0)
(2.23723 0.855817 0)
(2.23497 0.860041 0)
(2.24445 0.848367 0)
(3 -2.46031e-16 0)
(3 -1.54857e-15 0)
(3 -1.23341e-15 0)
(3 9.85074e-13 0)
(3 6.45465e-09 0)
(3 5.95799e-06 0)
(2.99962 0.000970236 0)
(2.97998 0.0372512 0)
(2.83394 0.269433 0)
(2.46816 0.667784 0)
(2.28588 0.835749 0)
(2.25828 0.857983 0)
(3 -1.46844e-15 0)
(3 -7.81871e-16 0)
(3 -5.12429e-16 0)
(3 5.62034e-16 0)
(3 1.45656e-12 0)
(3 7.30227e-09 0)
(3 4.91637e-06 0)
(2.99963 0.000793512 0)
(2.98669 0.0298776 0)
(2.85561 0.228316 0)
(2.54549 0.603338 0)
(2.29881 0.850739 0)
(3 -1.74597e-15 0)
(3 -9.73414e-16 0)
(3 -3.24076e-16 0)
(3 -4.33685e-16 0)
(3 -7.65927e-16 0)
(3 1.83838e-12 0)
(3 5.23519e-09 0)
(3 4.37026e-06 0)
(2.99978 0.000504158 0)
(2.98976 0.0238108 0)
(2.89993 0.174776 0)
(2.58177 0.56403 0)
(3 -4.56428e-16 0)
(3 4.5712e-16 0)
(3 4.84341e-16 0)
(3 -2.08394e-16 0)
(3 -1.00594e-15 0)
(3 -1.6382e-15 0)
(3 1.2362e-12 0)
(3 4.65615e-09 0)
(3 2.294e-06 0)
(2.99983 0.000394086 0)
(2.99467 0.0136615 0)
(2.91095 0.144523 0)
(3 1.05356e-15 0)
(3 1.35326e-15 0)
(3 1.18723e-15 0)
(3 5.41411e-16 0)
(3 4.34894e-17 0)
(3 -8.87225e-16 0)
(3 -1.14464e-15 0)
(3 1.13553e-12 0)
(3 2.115e-09 0)
(3 1.48316e-06 0)
(2.99991 0.000208004 0)
(2.99611 0.00813428 0)
(3 2.19992e-15 0)
(3 1.51131e-15 0)
(3 1.10359e-15 0)
(3 9.41494e-16 0)
(3 7.60492e-16 0)
(3 5.50184e-16 0)
(3 1.29415e-15 0)
(3 5.94697e-16 0)
(3 4.47067e-13 0)
(3 1.18576e-09 0)
(3 6.93723e-07 0)
(2.99996 9.19914e-05 0)
(3 1.80451e-15 0)
(3 9.93541e-16 0)
(3 1.30688e-15 0)
(3 1.70182e-15 0)
(3 4.72793e-16 0)
(3 1.28942e-16 0)
(3 4.60721e-16 0)
(3 3.77432e-16 0)
(3 9.08485e-16 0)
(3 2.27961e-13 0)
(3 4.95218e-10 0)
(3 2.59401e-07 0)
(3 1.67191e-15 0)
(3 1.19028e-15 0)
(3 2.82877e-16 0)
(3 2.96007e-16 0)
(3 -8.67026e-16 0)
(3 -1.30457e-15 0)
(3 -1.53768e-15 0)
(3 -1.21521e-15 0)
(3 -1.66762e-15 0)
(3 -1.1972e-15 0)
(3 9.3072e-14 0)
(3 1.43122e-10 0)
(3 7.75411e-16 0)
(3 4.01201e-16 0)
(3 -1.9152e-16 0)
(3 -6.81134e-16 0)
(3 -2.99975e-16 0)
(3 -4.44678e-16 0)
(3 -9.90531e-16 0)
(3 -2.10229e-15 0)
(3 -2.19538e-15 0)
(3 -2.53726e-15 0)
(3 -3.91882e-15 0)
(3 1.61178e-14 0)
(3 -3.95369e-16 0)
(3 -6.62861e-16 0)
(3 -5.90662e-16 0)
(3 -4.56283e-16 0)
(3 -2.74063e-16 0)
(3 -2.64943e-16 0)
(3 -1.06218e-15 0)
(3 -1.9342e-15 0)
(3 -2.29369e-15 0)
(3 -2.06783e-15 0)
(3 -3.00794e-15 0)
(3 -2.67975e-15 0)
(3 -2.69709e-16 0)
(3 2.42676e-16 0)
(3 -2.26128e-16 0)
(3 -2.95333e-17 0)
(3 -1.4822e-17 0)
(3 -1.60962e-15 0)
(3 -1.4178e-15 0)
(3 -9.02719e-16 0)
(3 -1.14762e-15 0)
(3 -1.16906e-15 0)
(3 -1.14049e-15 0)
(3 -1.46686e-15 0)
(3 6.8263e-16 0)
(3 8.40069e-16 0)
(3 8.49544e-16 0)
(3 -5.55041e-16 0)
(3 -7.48204e-16 0)
(3 -8.79215e-16 0)
(3 1.07427e-16 0)
(3 8.63062e-16 0)
(3 8.83492e-16 0)
(3 2.77743e-16 0)
(3 -4.53766e-17 0)
(3 1.14766e-16 0)
(3 -3.27655e-16 0)
(3 1.75115e-16 0)
(3 2.61376e-16 0)
(3 -2.09607e-16 0)
(3 -6.87259e-16 0)
(3 -3.55171e-16 0)
(3 -2.76814e-16 0)
(3 9.88835e-18 0)
(3 6.01413e-16 0)
(3 8.06729e-16 0)
(3 1.15402e-15 0)
(3 8.75877e-16 0)
(3 -1.27524e-16 0)
(3 -1.59063e-16 0)
(3 2.36939e-16 0)
(3 7.08799e-16 0)
(3 1.55886e-16 0)
(3 2.50606e-16 0)
(3 8.03924e-17 0)
(3 2.13655e-16 0)
(3 7.32912e-16 0)
(3 8.76618e-16 0)
(3 1.11992e-15 0)
(3 8.04761e-16 0)
(3 7.06772e-16 0)
(3 -1.39046e-17 0)
(3 4.88778e-16 0)
(3 5.95739e-16 0)
(3 2.66542e-16 0)
(3 5.14515e-16 0)
(3 9.12139e-16 0)
(3 1.09305e-15 0)
(3 1.28044e-15 0)
(3 1.32733e-15 0)
(3 1.10642e-15 0)
(3 8.99586e-16 0)
(1.64342 0.564995 0)
(1.97522 0.394035 0)
(2.01822 0.16734 0)
(2.04863 -0.0113956 0)
(2.09259 -0.0619511 0)
(2.05766 -0.0471351 0)
(2.03322 -0.0438655 0)
(2.05624 -0.0385535 0)
(2.07873 -0.0317122 0)
(2.10152 -0.00495793 0)
(2.1144 0.0133896 0)
(2.12505 0.0142979 0)
(2.14081 0.00643587 0)
(2.15182 -0.0011683 0)
(2.16046 -0.00154902 0)
(2.16572 -0.00166373 0)
(2.16774 -0.00315359 0)
(2.1692 -0.00470603 0)
(2.17219 -0.00422458 0)
(2.1773 -0.00174418 0)
(2.18323 0.00198938 0)
(2.19035 0.00404987 0)
(2.19955 0.00364399 0)
(2.20784 0.00101969 0)
(2.21164 -0.0014306 0)
(2.2166 -0.00289291 0)
(2.22207 -0.00278272 0)
(2.22582 -0.00119811 0)
(2.22795 0.00134669 0)
(2.23015 0.00297171 0)
(2.23356 0.00330154 0)
(2.2378 0.00309478 0)
(2.24438 0.00250115 0)
(2.25175 0.00123844 0)
(2.25639 -0.000388572 0)
(2.26073 -0.00127548 0)
(2.26565 -0.00169016 0)
(2.26952 -0.00116843 0)
(2.27136 0.000964905 0)
(2.27297 0.0034034 0)
(2.27547 0.00438914 0)
(2.27787 0.00432325 0)
(2.28184 0.0033212 0)
(2.2891 0.00157442 0)
(2.2943 0.00029549 0)
(2.2987 -0.000180517 0)
(2.30328 -0.00031567 0)
(2.30717 0.000179526 0)
(2.30961 0.00444133 0)
(2.30602 0.00204055 0)
(1.56778 -0.023725 0)
(0.858476 -0.0387232 0)
(0.850296 -0.0513561 0)
(0.922124 -0.0638707 0)
(1.00657 -0.0717503 0)
(1.0944 -0.0650445 0)
(1.15559 -0.0487124 0)
(1.20155 -0.0364636 0)
(1.2404 -0.0290682 0)
(1.27483 -0.0271971 0)
(1.31403 -0.0291079 0)
(1.3631 -0.028136 0)
(1.41442 -0.0247734 0)
(1.46185 -0.0225939 0)
(1.50276 -0.0201005 0)
(1.53526 -0.0192555 0)
(1.56215 -0.0200209 0)
(1.59043 -0.0201473 0)
(1.61681 -0.0172847 0)
(1.64008 -0.013882 0)
(1.6622 -0.0076784 0)
(1.68466 -0.00202513 0)
(1.70867 0.000764799 0)
(1.73914 0.00234714 0)
(1.77901 -0.000387566 0)
(1.81113 -0.00870832 0)
(1.8358 -0.0105366 0)
(1.85996 -0.00990205 0)
(1.87846 -0.0060301 0)
(1.89002 0.00138072 0)
(1.90311 0.00808986 0)
(1.92195 0.0104841 0)
(1.94141 0.0104685 0)
(1.9804 0.00599835 0)
(1.74916 0.267681 0)
(2.00321 0.0603905 0)
(2.12065 -0.135962 0)
(2.14994 -0.209437 0)
(2.21952 -0.177465 0)
(2.19922 -0.0893481 0)
(2.14867 -0.0104817 0)
(2.14715 0.00446653 0)
(2.14964 0.00599435 0)
(2.1512 0.0179484 0)
(2.16006 0.0277418 0)
(2.16947 0.029039 0)
(2.17883 0.0243845 0)
(2.18985 0.00766546 0)
(2.19384 -0.00363093 0)
(2.19902 -0.0098142 0)
(2.20472 -0.0149808 0)
(2.21018 -0.0176181 0)
(2.215 -0.0165851 0)
(2.22012 -0.0111823 0)
(2.22453 -0.000548221 0)
(2.22997 0.0118437 0)
(2.23473 0.017231 0)
(2.23722 0.0169889 0)
(2.23877 0.0104223 0)
(2.2433 -0.00128557 0)
(2.24719 -0.0084453 0)
(2.25175 -0.00985163 0)
(2.25632 -0.00819841 0)
(2.26052 -0.00232201 0)
(2.26379 0.00384419 0)
(2.26717 0.00808331 0)