/*--------------------------------*- C++ -*----------------------------------*\
  =========                 |
  \\      /  F ield         | OpenFOAM: The Open Source CFD Toolbox
   \\    /   O peration     | Website:  https://openfoam.org
    \\  /    A nd           | Version:  7
     \\/     M anipulation  |
\*---------------------------------------------------------------------------*/
FoamFile
{
    version     2.0;
    format      ascii;
    class       volVectorField;
    location    "0.2";
    object      U;
}
// * * * * * * * * * * * * * * * * * * * * * * * * * * * * * * * * * * * * * //

dimensions      [0 1 -1 0 0 0 0];

internalField   nonuniform List<vector> 
3328
(
(3 -2.9091e-17 0)
(3 -1.28443e-16 0)
(3 -9.9937e-17 0)
(3 -2.15877e-16 0)
(3 -2.13484e-16 0)
(3 -7.78867e-17 0)
(3 -1.1039e-16 0)
(3 -7.64124e-16 0)
(3 1.0723e-16 0)
(3 7.28797e-16 0)
(3 1.52352e-15 0)
(3 5.95045e-16 0)
(3 2.25251e-16 0)
(3 -8.41513e-16 0)
(3 -1.6205e-15 0)
(3 -1.09738e-15 0)
(2.97619 0.000567053 0)
(0.911077 0.0373175 0)
(0.385763 0.0555645 0)
(0.313603 0.0501192 0)
(0.207614 0.0414459 0)
(0.126067 0.0366583 0)
(0.0901581 0.0332765 0)
(0.0304839 0.0342913 0)
(3 -2.34893e-16 0)
(3 -5.90575e-16 0)
(3 -5.16455e-16 0)
(3 -5.72537e-16 0)
(3 -7.43037e-16 0)
(3 -8.08973e-16 0)
(3 -8.35545e-16 0)
(3 -1.41808e-15 0)
(3 -8.03585e-16 0)
(3 5.70075e-16 0)
(3 1.10103e-15 0)
(3 9.9832e-16 0)
(3 5.56497e-16 0)
(3 -6.6367e-16 0)
(3 -1.02702e-15 0)
(3 -6.77456e-16 0)
(2.99782 0.000493888 0)
(0.978332 0.172515 0)
(0.38424 0.201373 0)
(0.291052 0.158596 0)
(0.193167 0.121042 0)
(0.118273 0.106939 0)
(0.0847819 0.0994829 0)
(0.0281939 0.103924 0)
(3 4.1046e-17 0)
(3 -8.70358e-17 0)
(3 -1.13241e-17 0)
(3 2.42992e-16 0)
(3 -1.86286e-17 0)
(3 -4.20803e-16 0)
(3 -3.79215e-16 0)
(3 -2.72436e-16 0)
(3 -3.03639e-16 0)
(3 4.79785e-17 0)
(3 6.47935e-16 0)
(3 8.57371e-16 0)
(3 1.20835e-15 0)
(3 3.31739e-16 0)
(3 8.00599e-17 0)
(3 1.03068e-17 0)
(3 4.10972e-07 0)
(1.16326 0.294293 0)
(0.431289 0.334302 0)
(0.311828 0.274368 0)
(0.222198 0.210183 0)
(0.13982 0.189458 0)
(0.0985746 0.178217 0)
(0.0307035 0.18726 0)
(3 -2.36878e-18 0)
(3 3.13404e-16 0)
(3 5.4476e-16 0)
(3 5.98165e-16 0)
(3 6.2829e-16 0)
(3 1.05019e-15 0)
(3 6.1467e-16 0)
(3 4.94834e-16 0)
(3 -6.20029e-17 0)
(3 -1.76088e-16 0)
(3 9.36299e-17 0)
(3 1.26242e-16 0)
(3 -1.69393e-16 0)
(3 1.03184e-16 0)
(3 -1.32308e-16 0)
(3 -4.11276e-16 0)
(3 3.29943e-12 0)
(1.49308 0.388321 0)
(0.498794 0.45937 0)
(0.322216 0.400211 0)
(0.254997 0.317068 0)
(0.16402 0.294529 0)
(0.109245 0.274673 0)
(0.0289334 0.282835 0)
(3 -1.63337e-16 0)
(3 -1.69945e-16 0)
(3 -6.42701e-16 0)
(3 -7.52114e-16 0)
(3 -7.06937e-16 0)
(3 -5.70231e-16 0)
(3 -7.33454e-16 0)
(3 -9.39507e-16 0)
(3 -4.42231e-16 0)
(3 3.17913e-16 0)
(3 1.01235e-16 0)
(3 -6.66192e-16 0)
(3 -1.60204e-15 0)
(3 -7.12301e-16 0)
(3 8.09885e-16 0)
(3 1.11427e-15 0)
(3 1.18778e-15 0)
(2.03175 0.402141 0)
(0.614013 0.570081 0)
(0.352397 0.522489 0)
(0.319415 0.435911 0)
(0.227158 0.408716 0)
(0.139199 0.388184 0)
(0.0383802 0.394306 0)
(3 2.94867e-16 0)
(3 -6.72046e-17 0)
(3 1.25111e-16 0)
(3 -4.14653e-16 0)
(3 -5.90963e-16 0)
(3 -9.7377e-16 0)
(3 -5.93696e-16 0)
(3 2.56634e-17 0)
(3 4.75736e-16 0)
(3 8.15909e-16 0)
(3 9.18234e-17 0)
(3 -8.45889e-16 0)
(3 -1.67674e-15 0)
(3 -8.60815e-16 0)
(3 4.42865e-17 0)
(3 8.99182e-16 0)
(3 1.64096e-15 0)
(2.73348 0.219096 0)
(0.832152 0.660063 0)
(0.434879 0.646937 0)
(0.396018 0.576065 0)
(0.275863 0.547273 0)
(0.150188 0.525714 0)
(0.0355991 0.52821 0)
(3 1.6121e-17 0)
(3 2.607e-16 0)
(3 5.99099e-16 0)
(3 5.35138e-16 0)
(3 2.14152e-16 0)
(3 6.05269e-16 0)
(3 7.62832e-16 0)
(3 6.65549e-16 0)
(3 1.41056e-16 0)
(3 -2.75825e-16 0)
(3 7.58887e-17 0)
(3 1.25295e-16 0)
(3 -9.2012e-16 0)
(3 -1.47463e-15 0)
(3 -1.14777e-15 0)
(3 -4.58621e-16 0)
(3 8.38407e-16 0)
(3.00835 0.0154472 0)
(1.32306 0.711391 0)
(0.571337 0.785129 0)
(0.473596 0.741737 0)
(0.34587 0.689591 0)
(0.210266 0.653466 0)
(0.0804769 0.669941 0)
(3 -5.97047e-17 0)
(3 -9.08693e-17 0)
(3 -4.6598e-18 0)
(3 2.54735e-16 0)
(3 3.72997e-16 0)
(3 1.27519e-16 0)
(3 -3.37583e-16 0)
(3 -6.00961e-16 0)
(3 -5.10129e-16 0)
(3 7.32015e-17 0)
(3 7.43676e-16 0)
(3 4.91822e-16 0)
(3 -6.04409e-16 0)
(3 -2.10081e-15 0)
(3 -1.9103e-15 0)
(3 -5.69138e-16 0)
(3 2.02276e-16 0)
(3.00008 5.15437e-05 0)
(2.23355 0.54967 0)
(0.801817 0.899054 0)
(0.550231 0.898237 0)
(0.456147 0.80243 0)
(0.282633 0.812694 0)
(0.0924541 0.867132 0)
(3 -1.25177e-17 0)
(3 5.14231e-16 0)
(3 6.22928e-16 0)
(3 7.48149e-16 0)
(3 1.1694e-15 0)
(3 3.61064e-16 0)
(3 4.03015e-18 0)
(3 -8.09746e-17 0)
(3 5.56112e-16 0)
(3 5.85807e-16 0)
(3 4.60137e-16 0)
(3 4.19533e-17 0)
(3 4.6796e-16 0)
(3 -1.83016e-17 0)
(3 -4.04345e-16 0)
(3 -1.1797e-16 0)
(3 5.93709e-16 0)
(3 6.58587e-09 0)
(3.0335 0.0971776 0)
(1.24794 0.935873 0)
(0.697323 1.00316 0)
(0.621307 0.945876 0)
(0.444459 1.04087 0)
(0.213104 1.03337 0)
(3 5.5858e-19 0)
(3 1.8985e-16 0)
(3 -1.98173e-16 0)
(3 1.20638e-16 0)
(3 -2.65537e-17 0)
(3 1.18171e-16 0)
(3 -8.51179e-17 0)
(3 -4.33885e-16 0)
(3 -3.31041e-16 0)
(3 1.10873e-16 0)
(3 1.31966e-16 0)
(3 1.87362e-16 0)
(3 2.0502e-15 0)
(3 2.41058e-15 0)
(3 2.26009e-15 0)
(3 7.50614e-16 0)
(3 5.26914e-16 0)
(3 8.39407e-14 0)
(3.00302 0.00146627 0)
(2.26862 0.653477 0)
(1.00459 1.07186 0)
(0.78348 1.14837 0)
(0.669417 1.16163 0)
(0.429871 1.21155 0)
(3 -2.31111e-16 0)
(3 -7.88803e-16 0)
(3 -1.23193e-15 0)
(3 -1.04309e-15 0)
(3 -1.35849e-15 0)
(3 -7.78109e-16 0)
(3 -1.03572e-15 0)
(3 -8.23564e-16 0)
(3 -9.26377e-16 0)
(3 -1.04557e-15 0)
(3 -1.89843e-15 0)
(3 -1.53104e-15 0)
(3 1.67959e-15 0)
(3 3.04072e-15 0)
(3 2.47106e-15 0)
(3 1.5474e-15 0)
(3 1.3072e-15 0)
(3 5.00382e-16 0)
(3 2.05471e-06 0)
(3.02291 0.0899838 0)
(1.62065 1.01056 0)
(1.01707 1.24788 0)
(0.969823 1.24552 0)
(0.77637 1.35953 0)
(3 -1.03834e-16 0)
(3 -8.60001e-16 0)
(3 -6.81545e-16 0)
(3 -8.22834e-16 0)
(3 -7.96053e-16 0)
(3 -9.08432e-16 0)
(3 -6.42685e-16 0)
(3 -6.75321e-16 0)
(3 -8.62822e-16 0)
(3 -1.63675e-15 0)
(3 -2.03834e-15 0)
(3 -1.67961e-15 0)
(3 -1.47734e-15 0)
(3 6.36352e-16 0)
(3 1.66938e-15 0)
(3 2.25795e-15 0)
(3 2.5724e-15 0)
(3 1.48681e-15 0)
(3 8.31135e-11 0)
(3.00153 0.00137765 0)
(2.7947 0.398612 0)
(1.49714 1.15129 0)
(1.22709 1.3473 0)
(1.13217 1.41987 0)
(3 1.99561e-16 0)
(3 1.30828e-16 0)
(3 -1.05775e-16 0)
(3 -1.06012e-15 0)
(3 -1.33601e-15 0)
(3 -1.34763e-15 0)
(3 -9.79847e-16 0)
(3 -2.70006e-16 0)
(3 -1.84985e-16 0)
(3 -8.99725e-16 0)
(3 -1.3196e-15 0)
(3 -1.67652e-15 0)
(3 -2.67602e-15 0)
(3 -5.56144e-16 0)
(3 2.22135e-15 0)
(3 2.68454e-15 0)
(3 1.95889e-15 0)
(3 1.26834e-15 0)
(3 2.07213e-15 0)
(3 1.20861e-06 0)
(3.00893 0.0218499 0)
(2.49737 0.649616 0)
(1.56417 1.2027 0)
(1.45696 1.38593 0)
(3 1.08777e-17 0)
(3 3.80432e-16 0)
(3 5.13332e-16 0)
(3 2.17154e-16 0)
(3 -4.6958e-16 0)
(3 -5.14084e-16 0)
(3 2.32977e-17 0)
(3 3.42725e-16 0)
(3 2.89963e-16 0)
(3 9.48432e-17 0)
(3 2.77121e-17 0)
(3 -6.73123e-16 0)
(3 -8.92432e-16 0)
(3 -5.40641e-16 0)
(3 8.60458e-16 0)
(3 1.91095e-15 0)
(3 1.58253e-15 0)
(3 1.48716e-15 0)
(3 2.30458e-16 0)
(3 4.31152e-11 0)
(3.00006 0.000119952 0)
(2.99279 0.0695091 0)
(2.414 0.755616 0)
(1.65367 1.22721 0)
(3 -2.48859e-16 0)
(3 -1.99619e-16 0)
(3 2.98123e-16 0)
(3 1.73771e-15 0)
(3 1.74762e-15 0)
(3 9.53348e-16 0)
(3 9.59158e-16 0)
(3 1.386e-18 0)
(3 -3.67824e-16 0)
(3 -5.3218e-17 0)
(3 6.82623e-16 0)
(3 9.47578e-16 0)
(3 1.35474e-15 0)
(3 1.30809e-15 0)
(3 1.17433e-15 0)
(3 1.71723e-15 0)
(3 2.02381e-15 0)
(3 1.70706e-15 0)
(3 3.41942e-16 0)
(3 2.45837e-15 0)
(3 3.49175e-08 0)
(3.00014 0.000836423 0)
(2.99115 0.104332 0)
(2.32085 0.754663 0)
(3 -1.79098e-16 0)
(3 1.29241e-16 0)
(3 2.61082e-16 0)
(3 4.3194e-16 0)
(3 3.31219e-16 0)
(3 5.76039e-16 0)
(3 2.644e-16 0)
(3 8.74038e-17 0)
(3 -2.45193e-16 0)
(3 -2.16825e-16 0)
(3 5.86857e-17 0)
(3 1.17043e-15 0)
(3 2.5721e-15 0)
(3 2.59345e-15 0)
(3 2.04442e-15 0)
(3 1.43639e-15 0)
(3 1.11467e-15 0)
(3 -8.61605e-16 0)
(3 5.84455e-16 0)
(3 1.31459e-15 0)
(3 1.07077e-12 0)
(3 6.0321e-07 0)
(3.00053 0.00174206 0)
(2.93036 0.120619 0)
(3 5.98806e-17 0)
(3 6.37008e-16 0)
(3 6.59337e-16 0)
(3 -2.56966e-16 0)
(3 -2.03415e-16 0)
(3 1.51547e-16 0)
(3 -1.6874e-16 0)
(3 -5.54591e-16 0)
(3 3.95307e-16 0)
(3 1.0695e-15 0)
(3 1.13612e-15 0)
(3 1.63837e-15 0)
(3 2.27109e-15 0)
(3 1.87065e-15 0)
(3 1.0024e-15 0)
(3 7.1849e-16 0)
(3 7.90914e-16 0)
(3 -1.20425e-15 0)
(3 -7.11976e-16 0)
(3 8.08262e-17 0)
(3 9.87636e-16 0)
(3 2.56853e-11 0)
(3 1.97633e-06 0)
(2.99953 0.00222731 0)
(3 3.06487e-16 0)
(3 8.73846e-16 0)
(3 8.59189e-16 0)
(3 7.24006e-16 0)
(3 2.66568e-16 0)
(3 -2.96621e-16 0)
(3 -3.55407e-16 0)
(3 -7.29251e-16 0)
(3 -6.49451e-16 0)
(3 3.27316e-17 0)
(3 4.82329e-17 0)
(3 1.60095e-16 0)
(3 3.25943e-16 0)
(3 6.97979e-16 0)
(3 4.50005e-16 0)
(3 3.22943e-16 0)
(3 -7.48771e-18 0)
(3 -3.01928e-16 0)
(3 -7.08935e-16 0)
(3 -5.4048e-16 0)
(3 -1.17696e-15 0)
(3 -1.31556e-15 0)
(3 1.33009e-10 0)
(3 3.57924e-06 0)
(3 1.05866e-16 0)
(3 -3.77345e-17 0)
(3 5.32119e-17 0)
(3 4.99596e-16 0)
(3 3.00019e-16 0)
(3 -2.11297e-16 0)
(3 7.15804e-16 0)
(3 7.10416e-16 0)
(3 4.97745e-16 0)
(3 8.14134e-17 0)
(3 -7.50406e-16 0)
(3 -1.09213e-15 0)
(3 -1.21263e-15 0)
(3 -6.30181e-16 0)
(3 1.50579e-16 0)
(3 -6.84332e-16 0)
(3 -4.80498e-16 0)
(3 2.79755e-16 0)
(3 2.40808e-16 0)
(3 2.48577e-16 0)
(3 -8.81017e-16 0)
(3 -1.06962e-15 0)
(3 3.43884e-15 0)
(3 3.62421e-10 0)
(3 -6.20332e-17 0)
(3 -8.11074e-16 0)
(3 -1.15199e-15 0)
(3 -9.67543e-16 0)
(3 -2.28709e-17 0)
(3 5.43898e-16 0)
(3 1.52863e-15 0)
(3 2.18403e-15 0)
(3 2.52717e-15 0)
(3 1.62121e-15 0)
(3 -3.99198e-16 0)
(3 -1.31946e-15 0)
(3 -1.27548e-15 0)
(3 -1.20194e-15 0)
(3 -8.64047e-16 0)
(3 -5.54423e-16 0)
(3 2.73703e-16 0)
(3 9.55253e-16 0)
(3 7.86193e-16 0)
(3 1.684e-16 0)
(3 1.0305e-17 0)
(3 -2.98218e-16 0)
(3 -4.71871e-16 0)
(3 9.65953e-15 0)
(3 -1.05393e-16 0)
(3 -1.96894e-16 0)
(3 -8.20331e-16 0)
(3 -7.29113e-16 0)
(3 -3.66413e-16 0)
(3 3.3055e-16 0)
(3 2.55668e-16 0)
(3 6.26408e-16 0)
(3 1.41915e-15 0)
(3 1.17207e-15 0)
(3 1.44269e-15 0)
(3 6.04669e-16 0)
(3 -1.59818e-15 0)
(3 -1.78099e-15 0)
(3 -1.71377e-15 0)
(3 -9.67712e-16 0)
(3 -5.387e-16 0)
(3 9.86835e-18 0)
(3 3.68653e-16 0)
(3 -5.42527e-17 0)
(3 -2.32887e-16 0)
(3 -1.3174e-16 0)
(3 -8.91113e-16 0)
(3 -1.27896e-15 0)
(3 -7.00335e-17 0)
(3 3.79574e-17 0)
(3 2.96631e-16 0)
(3 3.72004e-16 0)
(3 2.3089e-16 0)
(3 -5.02958e-17 0)
(3 -7.72372e-16 0)
(3 -8.82393e-16 0)
(3 -7.10787e-16 0)
(3 7.36431e-16 0)
(3 2.0439e-15 0)
(3 1.62507e-15 0)
(3 -2.5988e-16 0)
(3 -1.72939e-15 0)
(3 -1.59016e-15 0)
(3 -1.83098e-15 0)
(3 -1.68802e-15 0)
(3 -1.8889e-15 0)
(3 -8.33261e-16 0)
(3 5.81966e-16 0)
(3 8.04486e-16 0)
(3 8.31012e-16 0)
(3 -2.12828e-16 0)
(3 -2.24611e-16 0)
(3 -6.49167e-17 0)
(3 -4.82604e-16 0)
(3 -2.68391e-16 0)
(3 2.70864e-16 0)
(3 3.34115e-16 0)
(3 -7.44028e-17 0)
(3 -1.05138e-15 0)
(3 -1.42124e-15 0)
(3 -4.28483e-16 0)
(3 1.06178e-15 0)
(3 1.80873e-15 0)
(3 9.37072e-16 0)
(3 5.12639e-16 0)
(3 -5.18397e-16 0)
(3 -1.10013e-15 0)
(3 -2.43575e-15 0)
(3 -2.32109e-15 0)
(3 -1.79714e-15 0)
(3 -9.89403e-16 0)
(3 -1.33213e-16 0)
(3 7.03211e-16 0)
(3 5.00181e-16 0)
(3 7.36292e-16 0)
(3 7.13862e-16 0)
(3 -5.64105e-17 0)
(3 -1.64059e-17 0)
(3 4.05737e-17 0)
(3 5.37675e-16 0)
(3 6.12967e-16 0)
(3 -3.70781e-16 0)
(3 -6.42638e-16 0)
(3 -8.15739e-16 0)
(3 -1.29739e-16 0)
(3 8.14123e-16 0)
(3 1.4755e-15 0)
(3 1.29158e-15 0)
(3 -1.17334e-16 0)
(3 -4.03684e-16 0)
(3 -1.08152e-15 0)
(3 -1.35299e-15 0)
(3 -1.81761e-15 0)
(3 -1.51718e-15 0)
(3 -1.18469e-15 0)
(3 -6.76747e-16 0)
(3 -1.42775e-16 0)
(3 8.58034e-17 0)
(3 7.3485e-16 0)
(3 7.69352e-16 0)
(3 9.35633e-18 0)
(3 1.11992e-15 0)
(3 1.54533e-15 0)
(3 9.26269e-16 0)
(3 1.62865e-16 0)
(3 -2.34463e-16 0)
(3 -2.31214e-16 0)
(3 9.94363e-16 0)
(3 9.7672e-16 0)
(3 1.00002e-15 0)
(3 5.62158e-16 0)
(3 4.807e-16 0)
(3 -7.84648e-17 0)
(3 -3.02416e-16 0)
(3 -7.76812e-16 0)
(3 -4.30079e-16 0)
(3 8.54871e-17 0)
(3 7.22587e-17 0)
(3 9.51475e-17 0)
(3 1.61968e-16 0)
(3 3.85185e-16 0)
(3 7.36976e-16 0)
(3 7.48952e-16 0)
(3 8.77209e-16 0)
(3 -2.01009e-17 0)
(3 1.32177e-16 0)
(3 3.24694e-16 0)
(3 8.15257e-18 0)
(3 6.56961e-18 0)
(3 7.59388e-16 0)
(3 1.25837e-15 0)
(3 1.13612e-15 0)
(3 1.00924e-15 0)
(3 1.17447e-16 0)
(3 -9.25269e-16 0)
(3 1.25005e-15 0)
(3 1.40782e-15 0)
(3 1.01201e-15 0)
(3 1.43938e-16 0)
(3 -4.21279e-16 0)
(3 -1.96008e-16 0)
(3 -1.78278e-16 0)
(3 3.2616e-16 0)
(3 2.25774e-16 0)
(3 -3.73997e-16 0)
(3 2.26565e-17 0)
(3 6.42647e-16 0)
(3 6.08593e-16 0)
(3 -2.00527e-16 0)
(3 -4.57596e-16 0)
(3 -5.34403e-16 0)
(3 -3.55456e-16 0)
(3 -3.62037e-17 0)
(3 -1.18544e-16 0)
(3 -2.3385e-17 0)
(3 -5.921e-17 0)
(3 6.92043e-17 0)
(3 3.44959e-17 0)
(3 -1.31325e-16 0)
(3 3.78816e-16 0)
(3 1.28628e-15 0)
(3 1.0862e-15 0)
(3 2.22291e-16 0)
(3 -9.13069e-16 0)
(3 -9.11557e-16 0)
(3 -6.05187e-16 0)
(3 -2.1711e-16 0)
(3 -2.23673e-16 0)
(3 -5.69156e-16 0)
(3 -3.23257e-16 0)
(3 3.74701e-16 0)
(3 3.60564e-16 0)
(3 -7.98012e-18 0)
(3 -1.00413e-16 0)
(3 -1.50037e-16 0)
(3 4.24398e-16 0)
(3 8.73553e-16 0)
(3 -1.463e-16 0)
(3 -7.76809e-16 0)
(3 -6.94879e-16 0)
(3 -7.84142e-16 0)
(3 -5.74959e-17 0)
(3 6.22853e-16 0)
(3 8.17731e-17 0)
(3 4.20717e-17 0)
(3 7.03892e-17 0)
(3 -4.65732e-16 0)
(3 -5.73962e-16 0)
(3 -5.90554e-16 0)
(3 1.1611e-16 0)
(3 4.35348e-16 0)
(3 4.55863e-16 0)
(3 7.65866e-16 0)
(3 1.14515e-15 0)
(3 8.21768e-16 0)
(3 7.59344e-16 0)
(3 8.0459e-17 0)
(3 -2.95815e-16 0)
(3 -3.35543e-16 0)
(3 3.80139e-17 0)
(3 4.02684e-16 0)
(3 8.37505e-16 0)
(3 6.43966e-16 0)
(3 6.30574e-17 0)
(3 -1.18993e-15 0)
(3 -1.20337e-15 0)
(3 -1.56245e-16 0)
(3 -4.63176e-16 0)
(3 -8.48367e-16 0)
(3 -1.26623e-15 0)
(3 -1.68956e-15 0)
(3 -1.33106e-15 0)
(3 -1.09243e-15 0)
(3 2.0839e-16 0)
(3 3.33334e-16 0)
(3 5.14826e-16 0)
(3 1.07473e-15 0)
(3 1.96746e-15 0)
(3 1.90531e-15 0)
(3 2.42821e-15 0)
(3 1.33741e-17 0)
(3 2.59902e-17 0)
(3 1.64965e-16 0)
(3 1.0733e-16 0)
(3 -3.98875e-17 0)
(3 8.33396e-16 0)
(3 8.13962e-16 0)
(3 3.08674e-17 0)
(3 -5.51025e-16 0)
(3 -1.00591e-15 0)
(3 -6.58301e-16 0)
(3 -5.55465e-16 0)
(3 -1.46432e-15 0)
(3 -1.83429e-15 0)
(3 -2.12059e-15 0)
(3 -2.14257e-15 0)
(3 -8.52364e-16 0)
(3 -5.16133e-17 0)
(3 2.337e-16 0)
(3 5.89018e-17 0)
(3 8.97845e-16 0)
(3 1.67253e-15 0)
(3 1.66408e-15 0)
(3 1.08757e-15 0)
(3 -4.27178e-17 0)
(3 2.50198e-16 0)
(3 4.33842e-16 0)
(3 4.37191e-16 0)
(3 7.16149e-16 0)
(3 6.90564e-16 0)
(3 2.41548e-16 0)
(3 -2.8297e-16 0)
(3 -4.70798e-16 0)
(3 -3.27772e-16 0)
(3 -6.32721e-16 0)
(3 -1.16504e-15 0)
(3 -1.52117e-15 0)
(3 -1.27835e-15 0)
(3 -1.76166e-15 0)
(3 -2.61733e-15 0)
(3 -3.62655e-17 0)
(3 1.45535e-16 0)
(3 2.54051e-16 0)
(3 5.70659e-16 0)
(3 7.08841e-16 0)
(3 7.35914e-16 0)
(3 -8.7928e-17 0)
(3 -6.35224e-16 0)
(3 -1.02984e-16 0)
(3 -2.3833e-16 0)
(3 -3.31351e-16 0)
(3 8.68142e-17 0)
(3 1.9373e-16 0)
(3 -4.89703e-16 0)
(3 -1.22696e-15 0)
(3 -7.11366e-16 0)
(3 3.33923e-17 0)
(3 8.6171e-16 0)
(3 -5.4941e-17 0)
(3 -1.28564e-15 0)
(3 -2.17657e-15 0)
(3 -1.80405e-15 0)
(3 -1.667e-15 0)
(3 -1.46714e-15 0)
(3 -7.04715e-16 0)
(3 -1.14704e-15 0)
(3 -2.07346e-15 0)
(3 -2.09348e-15 0)
(3 -1.50855e-15 0)
(3 -1.32179e-15 0)
(3 -1.06949e-15 0)
(3 -8.20736e-16 0)
(3 1.71589e-17 0)
(3 -1.49642e-16 0)
(3 -1.25e-17 0)
(3 -8.50364e-17 0)
(3 -6.90333e-16 0)
(3 -1.53465e-15 0)
(3 -1.69747e-15 0)
(3 -5.91784e-16 0)
(3 4.98745e-16 0)
(3 7.73517e-16 0)
(3 1.18664e-16 0)
(3 -6.26661e-16 0)
(3 -1.04578e-15 0)
(3 -1.1431e-15 0)
(3 -3.04184e-16 0)
(3 4.56737e-16 0)
(3 -1.0588e-15 0)
(3 -1.74106e-15 0)
(3 -1.2577e-15 0)
(3 -2.05678e-15 0)
(3 -2.74874e-15 0)
(3 -3.16021e-15 0)
(3 -2.55355e-15 0)
(3 -1.03881e-15 0)
(3 8.85029e-17 0)
(3 1.14152e-16 0)
(3 -6.2972e-17 0)
(3 -1.17447e-15 0)
(3 -1.8286e-15 0)
(3 -1.12808e-15 0)
(3 -7.17303e-16 0)
(3 -4.38157e-16 0)
(3 1.78134e-16 0)
(3 4.81565e-16 0)
(3 1.0478e-15 0)
(3 8.95181e-16 0)
(3 -2.85369e-16 0)
(3 -2.23694e-16 0)
(3 5.35585e-16 0)
(3 1.8215e-15 0)
(3 2.593e-16 0)
(3 4.48077e-17 0)
(3 1.02439e-16 0)
(3 -3.4739e-16 0)
(3 -8.39147e-16 0)
(3 -2.08127e-15 0)
(3 -2.05491e-15 0)
(3 -1.61632e-15 0)
(3 -5.46496e-18 0)
(3 -1.31592e-17 0)
(3 -6.80479e-16 0)
(3 -1.10065e-15 0)
(3 -1.05431e-15 0)
(3 -2.78614e-16 0)
(3 7.3382e-17 0)
(3 1.1642e-16 0)
(3 2.4858e-16 0)
(3 4.05298e-16 0)
(3 7.03712e-16 0)
(3 9.20398e-16 0)
(3 1.57691e-15 0)
(3 1.12818e-15 0)
(3 4.63346e-16 0)
(3 5.65141e-16 0)
(3 9.35335e-16 0)
(3 7.68913e-16 0)
(3 5.36835e-16 0)
(3 2.01618e-16 0)
(3 -4.95087e-16 0)
(3 -5.59343e-16 0)
(3 -2.52601e-16 0)
(3 2.12533e-16 0)
(3 2.37996e-17 0)
(3 -3.77954e-16 0)
(3 -7.33447e-16 0)
(3 -7.58204e-16 0)
(3 -7.10814e-17 0)
(3 2.02845e-16 0)
(3 5.31342e-16 0)
(3 6.22849e-16 0)
(3 -3.79902e-16 0)
(3 1.09607e-16 0)
(3 -3.34078e-17 0)
(3 -1.39817e-16 0)
(3 9.02419e-16 0)
(3 1.32761e-15 0)
(3 8.2059e-16 0)
(3 -3.01046e-16 0)
(3 -1.25218e-16 0)
(3 -2.46203e-16 0)
(3 -5.51763e-16 0)
(3 -7.97791e-17 0)
(3 7.18756e-16 0)
(3 1.00741e-15 0)
(3 1.36923e-15 0)
(3 1.45946e-15 0)
(3 3.53293e-17 0)
(3 -1.16596e-16 0)
(3 6.19996e-17 0)
(3 1.06423e-16 0)
(3 -4.30301e-17 0)
(3 5.55197e-16 0)
(3 7.32984e-16 0)
(3 5.08673e-16 0)
(3 2.74764e-16 0)
(3 2.71658e-16 0)
(3 -3.61985e-16 0)
(3 -5.52383e-16 0)
(3 -8.15115e-16 0)
(3 -8.36403e-16 0)
(3 -1.06614e-15 0)
(3 -1.32695e-15 0)
(3 -1.4341e-15 0)
(3 -6.69038e-16 0)
(3 -6.92474e-16 0)
(3 -1.39506e-16 0)
(3 4.76389e-16 0)
(3 4.77289e-16 0)
(3 3.06808e-16 0)
(3 -5.62659e-16 0)
(3 1.45852e-17 0)
(3 2.46938e-16 0)
(3 7.66846e-16 0)
(3 8.04819e-16 0)
(3 7.10252e-18 0)
(3 2.26678e-16 0)
(3 3.89477e-16 0)
(3 1.75293e-16 0)
(3 1.42064e-16 0)
(3 -1.09595e-15 0)
(3 -1.51977e-15 0)
(3 -9.26482e-16 0)
(3 -7.04854e-16 0)
(3 -1.43839e-15 0)
(3 -1.07593e-15 0)
(3 -7.34613e-16 0)
(3 -5.6001e-16 0)
(3 4.12015e-17 0)
(3 1.2279e-15 0)
(3 1.41123e-15 0)
(3 3.67796e-16 0)
(3 -4.32709e-16 0)
(3 -1.30341e-15 0)
(3 -1.86937e-15 0)
(3 -4.29212e-17 0)
(3 -8.52347e-17 0)
(3 -2.2624e-17 0)
(3 -4.16005e-16 0)
(3 -6.40168e-16 0)
(3 -3.93547e-16 0)
(3 5.06688e-16 0)
(3 3.38723e-16 0)
(3 -1.25771e-15 0)
(3 -2.37294e-15 0)
(3 -2.37194e-15 0)
(3 -2.86832e-15 0)
(3 -2.27779e-15 0)
(3 -1.65607e-15 0)
(3 -2.31348e-16 0)
(3 1.76772e-16 0)
(3 -1.40504e-16 0)
(3 -1.09705e-16 0)
(3 4.90565e-16 0)
(3 1.38028e-15 0)
(3 9.23125e-16 0)
(3 5.43626e-16 0)
(3 -5.2664e-16 0)
(3 -9.99515e-16 0)
(3 -7.77629e-17 0)
(3 -1.96797e-16 0)
(3 -7.51785e-17 0)
(3 -3.1384e-16 0)
(3 -5.84222e-16 0)
(3 -5.16953e-16 0)
(3 3.08593e-16 0)
(3 2.52173e-16 0)
(3 -2.01314e-16 0)
(3 -1.13727e-15 0)
(3 -1.1053e-15 0)
(3 -1.96083e-15 0)
(3 -2.04197e-15 0)
(3 -1.43937e-15 0)
(3 -6.47246e-16 0)
(3 -5.25267e-16 0)
(3 -1.7073e-17 0)
(3 -1.93379e-16 0)
(3 -4.22055e-16 0)
(3 1.55846e-16 0)
(3 1.09534e-15 0)
(3 1.06366e-15 0)
(3 3.47831e-16 0)
(3 -5.87588e-16 0)
(-0.12622 0.521975 0)
(-0.758156 0.133532 0)
(-0.869605 -0.0425462 0)
(-0.97868 -0.0641975 0)
(-0.943098 -0.104219 0)
(-0.733999 -0.141597 0)
(-0.473256 -0.131501 0)
(-0.149191 -0.135231 0)
(0.316827 0.862469 0)
(-0.231333 0.383764 0)
(-0.647896 0.14872 0)
(-0.878698 -0.00338268 0)
(-0.826795 -0.197379 0)
(-0.634049 -0.340179 0)
(-0.38672 -0.341454 0)
(-0.113304 -0.322255 0)
(0.637362 1.33066 0)
(0.394443 0.994961 0)
(-0.101843 0.489771 0)
(-0.44778 0.055722 0)
(-0.540247 -0.2748 0)
(-0.431936 -0.47097 0)
(-0.272478 -0.513045 0)
(-0.069621 -0.479829 0)
(0.964771 1.52495 0)
(0.986958 1.37391 0)
(0.782887 0.975495 0)
(0.284497 0.505438 0)
(-0.0270254 -0.0158878 0)
(-0.0942035 -0.37616 0)
(-0.0843306 -0.497247 0)
(-0.00774985 -0.503844 0)
(1.37426 1.58148 0)
(1.22726 1.6373 0)
(1.28867 1.40344 0)
(1.02882 0.939702 0)
(0.702179 0.274901 0)
(0.404455 -0.161759 0)
(0.208786 -0.3352 0)
(0.092444 -0.32942 0)
(1.70444 1.43901 0)
(1.63561 1.62892 0)
(1.36862 1.60312 0)
(1.31371 1.24016 0)
(1.11358 0.665643 0)
(0.855587 0.178689 0)
(0.474484 -0.00108368 0)
(0.180338 -0.0147721 0)
(2.11355 1.11145 0)
(1.999 1.36747 0)
(1.62237 1.63417 0)
(1.18298 1.34754 0)
(1.15855 0.961992 0)
(1.08149 0.526478 0)
(0.693945 0.387959 0)
(0.295455 0.40054 0)
(2.72675 0.472367 0)
(2.43381 0.895002 0)
(2.01812 1.42303 0)
(1.08111 1.29224 0)
(0.968599 1.12618 0)
(1.03845 0.872452 0)
(0.637803 0.798464 0)
(0.227562 0.930189 0)
(2.98947 0.038874 0)
(2.89599 0.206939 0)
(2.59882 0.830966 0)
(1.0765 1.17996 0)
(0.827664 1.17121 0)
(0.878563 1.11535 0)
(0.770755 1.26176 0)
(0.717767 1.48779 0)
(2.99997 0.000298579 0)
(2.99726 0.00724335 0)
(3.03024 0.11425 0)
(1.18005 1.10622 0)
(0.727463 1.21455 0)
(0.779452 1.26537 0)
(0.823431 1.42494 0)
(1.0901 1.63546 0)
(3 1.79115e-07 0)
(2.99999 3.20074e-05 0)
(3.0008 0.000970025 0)
(2.10878 0.772139 0)
(0.889568 1.25069 0)
(0.788131 1.37762 0)
(0.927393 1.45943 0)
(1.2893 1.54747 0)
(3 7.0494e-12 0)
(3 1.68445e-08 0)
(3 4.99643e-07 0)
(2.99199 0.113109 0)
(1.50588 1.18247 0)
(0.971613 1.43104 0)
(1.06622 1.47235 0)
(1.38581 1.51263 0)
(3 3.84043e-17 0)
(3 9.09635e-13 0)
(3 1.39401e-11 0)
(3.0007 0.00117925 0)
(2.76036 0.460522 0)
(1.46934 1.33938 0)
(1.26627 1.52197 0)
(1.44562 1.50752 0)
(3 -6.25827e-16 0)
(3 -9.3919e-16 0)
(3 -2.70103e-15 0)
(3 6.06614e-07 0)
(3.00457 0.0201058 0)
(2.54457 0.674459 0)
(1.63398 1.35553 0)
(1.6125 1.51012 0)
(3 -3.50607e-16 0)
(3 -3.02656e-15 0)
(3 -3.4044e-15 0)
(3 1.27581e-11 0)
(3.00003 6.30128e-05 0)
(2.99468 0.0479922 0)
(2.52537 0.673198 0)
(1.90668 1.26734 0)
(3 -1.40372e-16 0)
(3 -1.21773e-15 0)
(3 -9.38421e-16 0)
(3 -2.12103e-16 0)
(3 8.20136e-09 0)
(3.00004 0.000235997 0)
(2.9879 0.04821 0)
(2.62733 0.557711 0)
(3 9.09102e-16 0)
(3 5.39334e-16 0)
(3 -2.57571e-16 0)
(3 5.83405e-16 0)
(3 1.62991e-13 0)
(3 5.23606e-08 0)
(3.00002 0.00024066 0)
(2.98937 0.0318962 0)
(3 8.69984e-16 0)
(3 1.30127e-15 0)
(3 5.93531e-16 0)
(3 1.82591e-15 0)
(3 1.4657e-15 0)
(3 1.12983e-12 0)
(3 5.82732e-08 0)
(2.99999 0.000122519 0)
(3 5.26039e-16 0)
(3 6.66509e-16 0)
(3 1.25159e-15 0)
(3 1.6337e-15 0)
(3 1.08627e-15 0)
(3 3.51094e-16 0)
(3 1.33603e-12 0)
(3 2.26037e-08 0)
(3 8.36079e-16 0)
(3 7.796e-16 0)
(3 1.02424e-15 0)
(3 7.08494e-16 0)
(3 -3.29323e-17 0)
(3 -2.9535e-16 0)
(3 7.75167e-16 0)
(3 4.6236e-13 0)
(3 2.67431e-15 0)
(3 2.34935e-15 0)
(3 1.60947e-15 0)
(3 -3.42219e-16 0)
(3 -6.21333e-16 0)
(3 -3.22812e-16 0)
(3 -2.45945e-16 0)
(3 -3.62613e-16 0)
(3 1.11098e-15 0)
(3 9.82198e-16 0)
(3 7.28239e-16 0)
(3 -9.73293e-16 0)
(3 -1.32728e-15 0)
(3 -1.14567e-15 0)
(3 -1.27639e-15 0)
(3 -7.88938e-16 0)
(3 -5.6368e-16 0)
(3 1.38886e-16 0)
(3 4.89225e-16 0)
(3 -2.66089e-16 0)
(3 -1.25652e-16 0)
(3 -1.01423e-15 0)
(3 -1.12824e-15 0)
(3 -9.16441e-16 0)
(3 -9.76434e-16 0)
(3 1.46299e-16 0)
(3 4.3994e-16 0)
(3 5.64416e-16 0)
(3 1.11164e-15 0)
(3 1.13174e-15 0)
(3 -1.03141e-16 0)
(3 -5.40358e-17 0)
(3 -3.6248e-16 0)
(3 9.59375e-16 0)
(3 1.12884e-15 0)
(3 9.93441e-16 0)
(3 7.16056e-16 0)
(3 6.6533e-16 0)
(3 1.06885e-16 0)
(3 -4.48765e-16 0)
(3 3.01924e-16 0)
(3 6.43674e-16 0)
(3 5.21264e-16 0)
(3 2.80436e-16 0)
(3 -5.21012e-16 0)
(3 -1.06327e-15 0)
(3 -1.23915e-15 0)
(3 -1.64185e-15 0)
(3 -7.15669e-17 0)
(3 -9.1094e-16 0)
(3 -3.41152e-16 0)
(3 5.39345e-17 0)
(3 -7.2654e-17 0)
(3 5.09663e-17 0)
(3 -1.18434e-17 0)
(3 -4.59639e-16 0)
(3 2.89168e-16 0)
(3 -9.72737e-16 0)
(3 -1.00782e-15 0)
(3 -3.57729e-16 0)
(3 4.16911e-17 0)
(3 6.18832e-16 0)
(3 4.56419e-16 0)
(3 2.73569e-16 0)
(3 -1.18468e-15 0)
(3 -1.2215e-15 0)
(3 -1.45736e-15 0)
(3 -1.02558e-15 0)
(3 -7.3893e-16 0)
(3 -9.45551e-16 0)
(3 -8.38515e-16 0)
(3 -4.10855e-16 0)
(3 -1.7491e-15 0)
(3 -1.98497e-15 0)
(3 -1.6298e-15 0)
(3 -1.29414e-15 0)
(3 -1.4199e-15 0)
(3 -1.82157e-15 0)
(3 -1.56281e-15 0)
(3 -1.39197e-16 0)
(3 -1.73337e-15 0)
(3 -1.87543e-15 0)
(3 -2.06031e-15 0)
(3 -1.8914e-15 0)
(3 -1.24704e-15 0)
(3 -7.28818e-16 0)
(3 -1.01259e-15 0)
(3 -7.79876e-16 0)
(3 -1.40863e-15 0)
(3 -1.33677e-15 0)
(3 -1.42365e-15 0)
(3 -1.29133e-15 0)
(3 -6.61997e-16 0)
(3 -4.39443e-17 0)
(3 -1.15378e-16 0)
(3 -9.17754e-16 0)
(1.81599 1.39842 0)
(1.82155 1.94406 0)
(2.1112 1.18613 0)
(2.37802 0.599174 0)
(2.62871 0.226684 0)
(2.77254 0.0407319 0)
(2.76069 -0.119806 0)
(2.7813 -0.158178 0)
(2.88093 -0.145195 0)
(2.93168 -0.0955949 0)
(2.91334 -0.0711131 0)
(2.8893 -0.0693528 0)
(2.88128 -0.0739655 0)
(2.88721 -0.0804174 0)
(2.9009 -0.0766566 0)
(2.90825 -0.0585298 0)
(2.90395 -0.0396511 0)
(2.8971 -0.0274414 0)
(2.90604 -0.019426 0)
(2.93565 -0.0170819 0)
(2.9631 -0.022983 0)
(2.97924 -0.0245936 0)
(2.99459 -0.0191481 0)
(3.00771 -0.0138187 0)
(3.02337 -0.0069944 0)
(3.03291 -0.00138104 0)
(3.03373 -9.27655e-05 0)
(3.03229 0.000581417 0)
(3.02629 0.00103021 0)
(3.01355 0.000666125 0)
(3.00247 0.000123478 0)
(3.00007 3.18309e-06 0)
(3 -1.56641e-07 0)
(3 -1.39846e-07 0)
(3 -1.09507e-07 0)
(3 -5.7254e-08 0)
(3 -1.12462e-08 0)
(3 -3.5084e-10 0)
(3 7.83442e-12 0)
(3 6.7137e-12 0)
(3 3.47605e-12 0)
(3 5.27972e-13 0)
(3 1.03463e-14 0)
(3 9.64412e-16 0)
(3 9.31801e-16 0)
(3 6.3323e-16 0)
(3 1.51718e-15 0)
(3 2.00288e-15 0)
(3 1.27539e-15 0)
(3 9.35064e-16 0)
(3 1.01293e-15 0)
(3 1.18892e-15 0)
(3 8.11789e-16 0)
(3 4.85788e-16 0)
(3 4.51213e-16 0)
(3 4.24883e-16 0)
(3 3.90873e-16 0)
(3 3.98059e-16 0)
(3 3.84011e-16 0)
(3 1.92529e-16 0)
(3 -7.77971e-16 0)
(3 -1.1113e-15 0)
(3 -4.20655e-16 0)
(3 -4.03008e-17 0)
(3 2.35293e-16 0)
(3 2.27731e-16 0)
(3 2.3756e-16 0)
(3 4.29993e-16 0)
(3 -4.17798e-16 0)
(3 -6.36515e-16 0)
(3 -2.95721e-16 0)
(3 3.04184e-16 0)
(3 5.44584e-16 0)
(3 1.12041e-15 0)
(3 8.61219e-16 0)
(3 8.55403e-16 0)
(3 8.43902e-16 0)
(3 5.94642e-16 0)
(3 -5.60181e-16 0)
(3 -6.55013e-16 0)
(3 -3.26294e-16 0)
(3 4.41986e-16 0)
(3 1.16221e-15 0)
(3 9.63173e-16 0)
(3 4.84987e-16 0)
(3 5.18746e-18 0)
(3 -4.78749e-16 0)
(3 -6.47648e-16 0)
(2.15379 1.46364 0)
(2.7295 1.50337 0)
(2.719 0.706284 0)
(2.86727 -0.0773587 0)
(2.88784 -0.266374 0)
(2.99871 -0.37698 0)
(2.95423 -0.435754 0)
(2.99093 -0.390194 0)
(2.99766 -0.244887 0)
(2.98689 -0.0904917 0)
(2.96821 -0.0142544 0)
(2.94055 -0.0108462 0)
(2.92535 -0.0294904 0)
(2.92182 -0.0638733 0)
(2.92199 -0.086255 0)
(2.91376 -0.0731008 0)
(2.89272 -0.041603 0)
(2.87203 -0.0129261 0)
(2.86962 0.00533913 0)
(2.89185 0.00516983 0)
(2.92625 -0.0141508 0)
(2.96094 -0.0338724 0)
(2.99225 -0.03825 0)
(3.02063 -0.0277731 0)
(3.03756 -0.0133176 0)
(3.04177 -0.0062967 0)
(3.04125 -0.00383431 0)
(3.03685 0.00107349 0)
(3.02606 0.00400949 0)
(3.01042 0.00245697 0)
(3.00126 0.000331523 0)
(3.00002 5.19146e-06 0)
(3 -3.05892e-07 0)
(3 -2.87624e-07 0)
(3 -2.41266e-07 0)
(3 -1.21781e-07 0)
(3 -1.80017e-08 0)
(3 -3.20736e-10 0)
(3 2.4418e-11 0)
(3 2.03788e-11 0)
(3 9.33935e-12 0)
(3 1.17576e-12 0)
(3 1.75685e-14 0)
(3 2.12082e-15 0)
(3 1.78095e-15 0)
(3 1.81858e-15 0)
(3 2.69958e-15 0)
(3 1.55774e-15 0)
(3 4.27908e-16 0)
(3 4.38112e-16 0)
(3 1.74369e-15 0)
(3 2.41534e-15 0)
(3 1.2904e-15 0)
(3 -4.05858e-16 0)
(3 -2.14473e-15 0)
(3 -2.38655e-15 0)
(3 -1.46677e-15 0)
(3 -1.65186e-16 0)
(3 2.03216e-16 0)
(3 -1.18304e-16 0)
(3 -5.78771e-16 0)
(3 -1.09837e-15 0)
(3 -6.61883e-16 0)
(3 2.94324e-16 0)
(3 8.67068e-17 0)
(3 6.4013e-16 0)
(3 1.58216e-15 0)
(3 1.12795e-15 0)
(3 -2.28086e-16 0)
(3 -1.57174e-15 0)
(3 -1.08028e-15 0)
(3 -3.25155e-17 0)
(3 9.39594e-16 0)
(3 2.03057e-15 0)
(3 1.2658e-15 0)
(3 3.25082e-16 0)
(3 -1.74411e-16 0)
(3 -1.57194e-15 0)
(3 -2.28842e-15 0)
(3 -1.67317e-15 0)
(3 -7.82261e-16 0)
(3 5.69909e-16 0)
(3 1.69293e-15 0)
(3 9.76809e-16 0)
(3 2.42546e-16 0)
(3 -3.1956e-16 0)
(3 -1.35934e-15 0)
(3 -1.91857e-15 0)
(1.94035 1.45625 0)
(2.3002 1.36194 0)
(2.54114 0.998959 0)
(2.82762 0.449245 0)
(2.94158 0.205649 0)
(3.00925 0.213977 0)
(3.02874 0.0482289 0)
(3.0172 -0.0916975 0)
(3.00843 -0.111175 0)
(2.99069 -0.114892 0)
(2.98672 -0.119542 0)
(2.99308 -0.14823 0)
(3.01502 -0.191573 0)
(3.03604 -0.236508 0)
(3.04179 -0.240981 0)
(3.02804 -0.213509 0)
(3.00663 -0.1758 0)
(2.98987 -0.145835 0)
(2.9865 -0.123575 0)
(2.98867 -0.101715 0)
(2.98821 -0.0765472 0)
(2.99816 -0.0553531 0)
(3.02167 -0.0358822 0)
(3.04934 -0.0172382 0)
(3.05776 -0.00525548 0)
(3.05522 -0.00133097 0)
(3.05016 0.00359549 0)
(3.03807 0.0083365 0)
(3.02079 0.00731869 0)
(3.00492 0.00194342 0)
(3.00024 8.93808e-05 0)
(3 -2.43248e-07 0)
(3 -5.44795e-07 0)
(3 -4.87943e-07 0)
(3 -3.2855e-07 0)
(3 -1.01075e-07 0)
(3 -6.60971e-09 0)
(3 -4.02971e-12 0)
(3 2.91849e-11 0)
(3 2.13471e-11 0)
(3 6.74093e-12 0)
(3 4.27758e-13 0)
(3 3.47122e-15 0)
(3 1.07814e-15 0)
(3 6.19525e-16 0)
(3 1.278e-15 0)
(3 1.5137e-15 0)
(3 1.24491e-15 0)
(3 1.17817e-15 0)
(3 1.0622e-15 0)
(3 1.21846e-15 0)
(3 8.54993e-16 0)
(3 9.49851e-16 0)
(3 -3.64846e-16 0)
(3 -1.22163e-15 0)
(3 -1.71808e-15 0)
(3 -1.49172e-15 0)
(3 -6.59352e-17 0)
(3 -2.18004e-16 0)
(3 -9.85072e-16 0)
(3 -1.90694e-15 0)
(3 -2.31726e-15 0)
(3 -2.55626e-15 0)
(3 -1.7349e-15 0)
(3 -1.08531e-15 0)
(3 -6.57611e-16 0)
(3 -4.87649e-16 0)
(3 -5.91404e-16 0)
(3 -5.84246e-16 0)
(3 -6.69476e-16 0)
(3 -1.5873e-16 0)
(3 6.33666e-16 0)
(3 1.21781e-15 0)
(3 1.67128e-15 0)
(3 1.45836e-15 0)
(3 7.12375e-16 0)
(3 -3.28669e-16 0)
(3 -4.77815e-16 0)
(3 5.09117e-16 0)
(3 1.17569e-15 0)
(3 1.57615e-15 0)
(3 3.13379e-15 0)
(3 3.61293e-15 0)
(3 3.19315e-15 0)
(3 2.37878e-15 0)
(3 1.62983e-15 0)
(3 6.31597e-16 0)
(3 -1.08156e-15 0)
(1.83506 1.41629 0)
(2.16496 1.23538 0)
(2.44563 1.01939 0)
(2.69358 0.712868 0)
(2.80748 0.567468 0)
(2.89328 0.513332 0)
(3.02854 0.227912 0)
(3.0195 -0.0824579 0)
(3.00082 -0.143414 0)
(3.00575 -0.163178 0)
(3.02805 -0.241569 0)
(3.03697 -0.304656 0)
(3.06545 -0.334742 0)
(3.09163 -0.333785 0)
(3.09493 -0.319448 0)
(3.08119 -0.29186 0)
(3.06761 -0.268582 0)
(3.06233 -0.254267 0)
(3.05955 -0.23549 0)
(3.05333 -0.202143 0)
(3.05019 -0.156364 0)
(3.06065 -0.100694 0)
(3.08103 -0.0452 0)
(3.08602 -0.00803984 0)
(3.07902 0.00438113 0)
(3.07073 0.0119135 0)
(3.05589 0.0179881 0)
(3.03411 0.0163912 0)
(3.01112 0.00598838 0)
(3.00094 0.000468161 0)
(3.00001 3.15521e-06 0)
(3 -7.25646e-07 0)
(3 -6.70723e-07 0)
(3 -4.97907e-07 0)
(3 -2.22861e-07 0)
(3 -3.20523e-08 0)
(3 -6.06018e-10 0)
(3 3.28881e-11 0)
(3 2.87437e-11 0)
(3 1.39737e-11 0)
(3 2.02108e-12 0)
(3 3.60499e-14 0)
(3 -8.75544e-16 0)
(3 -1.17566e-15 0)
(3 -7.82996e-16 0)
(3 -8.80164e-16 0)
(3 -8.61566e-16 0)
(3 1.18057e-15 0)
(3 1.45901e-15 0)
(3 1.13729e-15 0)
(3 -6.36054e-17 0)