/*--------------------------------*- C++ -*----------------------------------*\
  =========                 |
  \\      /  F ield         | OpenFOAM: The Open Source CFD Toolbox
   \\    /   O peration     | Website:  https://openfoam.org
    \\  /    A nd           | Version:  7
     \\/     M anipulation  |
\*---------------------------------------------------------------------------*/
FoamFile
{
    version     2.0;
    format      ascii;
    class       volVectorField;
    location    "3";
    object      U;
}
// * * * * * * * * * * * * * * * * * * * * * * * * * * * * * * * * * * * * * //

dimensions      [0 1 -1 0 0 0 0];

internalField   nonuniform List<vector> 
16512
(
(2.33058 -0.0196993 0)
(2.31892 -0.0170823 0)
(2.30797 -0.015827 0)
(2.30518 -0.0161654 0)
(2.31639 -0.0179037 0)
(2.31792 -0.0178153 0)
(2.30602 -0.0166429 0)
(2.29344 -0.0154187 0)
(2.28124 -0.0146926 0)
(2.27275 -0.0147569 0)
(2.26767 -0.014476 0)
(2.26886 -0.0129019 0)
(2.27392 -0.0109084 0)
(2.27048 -0.0102876 0)
(2.26128 -0.0101199 0)
(2.2523 -0.00959339 0)
(2.24455 -0.00888107 0)
(2.23914 -0.00841051 0)
(2.24015 -0.00870942 0)
(2.2477 -0.00953086 0)
(2.24675 -0.00970527 0)
(2.2405 -0.00938277 0)
(2.23359 -0.00829328 0)
(2.22591 -0.00611848 0)
(2.21958 -0.00473508 0)
(2.21351 -0.00432374 0)
(2.21076 -0.00480119 0)
(2.21627 -0.00656771 0)
(2.22392 -0.00895037 0)
(2.22262 -0.00983611 0)
(2.21959 -0.00981754 0)
(2.21683 -0.00936321 0)
(2.2117 -0.00772457 0)
(2.20756 -0.00578277 0)
(2.20505 -0.00520505 0)
(2.20286 -0.00472838 0)
(2.20407 -0.00495849 0)
(2.20989 -0.00438117 0)
(2.21197 -0.00323979 0)
(2.20966 -0.00285459 0)
(2.20736 -0.00221261 0)
(2.20438 -0.000816725 0)
(2.20188 4.65346e-05 0)
(2.19917 0.000373758 0)
(2.19791 0.000584196 0)
(2.19992 0.000417702 0)
(2.20345 -0.000243686 0)
(2.20474 -0.00141469 0)
(2.20393 -0.00311236 0)
(2.20239 -0.00494904 0)
(2.20091 -0.00586905 0)
(2.19995 -0.00599687 0)
(2.19859 -0.00569885 0)
(2.19654 -0.0049032 0)
(2.1955 -0.00451197 0)
(2.1946 -0.00365953 0)
(2.19442 -0.00267494 0)
(2.19443 -0.00233506 0)
(2.19409 -0.00244813 0)
(2.19322 -0.00233569 0)
(2.1922 -0.00199922 0)
(2.19166 -0.00155938 0)
(2.19166 -0.000869194 0)
(2.19145 -0.000345797 0)
(2.19113 -0.000280232 0)
(2.19088 -0.000251827 0)
(2.19007 4.71995e-06 0)
(2.18882 0.000612222 0)
(2.18726 0.00090222 0)
(2.18549 0.00108443 0)
(2.18421 0.00106537 0)
(2.18412 0.000678986 0)
(2.18592 -0.000149621 0)
(2.18871 -0.00156208 0)
(2.19064 -0.00312939 0)
(2.19146 -0.00383928 0)
(2.19179 -0.0039503 0)
(2.192 -0.00375487 0)
(2.19142 -0.00306353 0)
(2.19076 -0.00223062 0)
(2.19042 -0.00178151 0)
(2.19018 -0.00135812 0)
(2.1902 -0.00130656 0)
(2.19028 -0.00135558 0)
(2.19059 -0.00133577 0)
(2.19094 -0.00121159 0)
(2.19204 -0.00126095 0)
(2.19349 -0.00127121 0)
(2.1955 -0.000968304 0)
(2.19831 8.3366e-05 0)
(2.20094 0.00121928 0)
(2.20278 0.00168706 0)
(2.20427 0.00165501 0)
(2.20515 0.00138755 0)
(2.20475 0.00139027 0)
(2.20443 0.00140796 0)
(2.20405 0.00126672 0)
(2.20359 0.00112221 0)
(2.20297 0.000837796 0)
(2.20228 -0.000138056 0)
(2.20285 -0.000941949 0)
(2.20394 -0.00127061 0)
(2.20542 -0.00145883 0)
(2.20694 -0.00151559 0)
(2.20833 -0.00138176 0)
(2.20934 -0.00119584 0)
(2.21005 -0.0010534 0)
(2.21077 -0.000921785 0)
(2.21175 -0.00097179 0)
(2.21346 -0.0012614 0)
(2.21591 -0.0016381 0)
(2.21808 -0.00174559 0)
(2.21971 -0.00156942 0)
(2.22104 -0.00118418 0)
(2.22172 -0.00034066 0)
(2.22184 0.000682644 0)
(2.22226 0.00160962 0)
(2.22326 0.00217355 0)
(2.22436 0.00243583 0)
(2.2263 0.0025335 0)
(2.22928 0.00233422 0)
(2.23229 0.00201885 0)
(2.23456 0.00166871 0)
(2.23618 0.000965821 0)
(2.23705 -0.000156141 0)
(2.23741 -0.001016 0)
(2.23679 -0.00180273 0)
(2.23362 -0.001628 0)
(2.23074 -0.000475074 0)
(2.23041 0.00105854 0)
(2.23098 0.00221059 0)
(2.23149 0.00274601 0)
(2.23308 0.00304339 0)
(2.23608 0.00279768 0)
(2.23875 0.0022946 0)
(2.24013 0.00145535 0)
(2.24086 0.000689304 0)
(2.24197 6.55398e-05 0)
(2.24232 -0.000347849 0)
(2.24212 -0.000689825 0)
(2.24221 -0.000965884 0)
(2.24228 -0.00103717 0)
(2.24281 -0.000910133 0)
(2.24348 -0.000920776 0)
(2.24409 -0.00104553 0)
(2.24506 -0.00129361 0)
(2.24642 -0.00147007 0)
(2.24769 -0.00102438 0)
(2.24851 -0.000387811 0)
(2.24981 3.03236e-05 0)
(2.25219 0.00054176 0)
(2.254 0.0010345 0)
(2.25496 0.00121158 0)
(2.25581 0.00148674 0)
(2.25614 0.00167753 0)
(2.25609 0.0017961 0)
(2.2559 0.0014471 0)
(2.25568 0.00120855 0)
(2.25556 0.000693484 0)
(2.25626 0.000310165 0)
(2.25671 5.83466e-05 0)
(2.25745 -0.000373352 0)
(2.25829 -0.000812097 0)
(2.25925 -0.00095685 0)
(2.26086 -0.00100508 0)
(2.26315 -0.00118485 0)
(2.26444 -0.00133516 0)
(2.26546 -0.00135571 0)
(2.26641 -0.00133651 0)
(2.26648 -0.00101683 0)
(2.26558 -0.000137908 0)
(2.2652 0.000812248 0)
(2.26567 0.00120317 0)
(2.26604 0.00129513 0)
(2.26702 0.00125434 0)
(2.26914 0.000909876 0)
(2.27197 7.39099e-05 0)
(2.27367 -0.000889416 0)
(2.27444 -0.00107969 0)
(2.27522 -0.000985134 0)
(2.27563 -0.000702162 0)
(2.27602 -0.000172676 0)
(2.27669 0.000492967 0)
(2.27765 0.000974381 0)
(2.27883 0.00121439 0)
(2.28001 0.00130567 0)
(2.28114 0.00139637 0)
(2.28262 0.00144559 0)
(2.28419 0.00134614 0)
(2.28623 0.00077525 0)
(2.28821 -0.00041386 0)
(2.28897 -0.0011267 0)
(2.28979 -0.00168569 0)
(2.29015 -0.00202978 0)
(2.28917 -0.00179476 0)
(2.28857 -0.00123944 0)
(2.28968 -0.00073327 0)
(2.29123 -0.000296363 0)
(2.29272 0.000137547 0)
(2.29413 0.000610143 0)
(2.29567 0.00105017 0)
(2.29692 0.00131766 0)
(2.29761 0.00137829 0)
(2.29796 0.00132357 0)
(2.29811 0.00123504 0)
(2.29814 0.0011126 0)
(2.29814 0.000803102 0)
(2.29819 0.000143033 0)
(2.29835 -0.000521734 0)
(2.29867 -0.000766047 0)
(2.2992 -0.000429876 0)
(2.29992 0.000213101 0)
(2.30084 0.000510988 0)
(2.30233 0.0007187 0)
(2.30376 0.000829643 0)
(2.30482 0.000754787 0)
(2.30573 0.000589732 0)
(2.30632 0.000451139 0)
(2.30655 0.000211851 0)
(2.30649 -0.000144659 0)
(2.30635 -0.000468233 0)
(2.30604 -0.000731498 0)
(2.30573 -0.000660078 0)
(2.30506 -1.96552e-05 0)
(2.30506 0.000517414 0)
(2.30557 0.000728483 0)
(2.30698 0.000849739 0)
(2.30934 0.000779471 0)
(2.3116 0.000654656 0)
(2.31319 0.000562316 0)
(2.3146 0.000552074 0)
(2.31623 0.000457299 0)
(2.31736 -0.000142634 0)
(1.38892 0.00787695 0)
(0.841232 0.0102089 0)
(0.770922 0.0135101 0)
(0.740233 0.00802338 0)
(0.718762 0.00786412 0)
(0.700887 0.00906761 0)
(0.685211 0.00752566 0)
(0.675353 0.00410593 0)
(0.668747 0.00267508 0)
(0.664802 0.00157554 0)
(0.660174 0.00132888 0)
(0.656812 0.00125092 0)
(0.656109 0.000976601 0)
(0.656604 0.000462703 0)
(0.659317 -0.000361311 0)
(0.664222 -0.000940708 0)
(0.669169 -0.00104587 0)
(0.672545 -0.000998696 0)
(0.674104 -0.00108107 0)
(0.674722 -0.00132908 0)
(0.673914 -0.00176589 0)
(0.671176 -0.00241641 0)
(0.669833 -0.0033041 0)
(0.671437 -0.00393546 0)
(0.674623 -0.00461704 0)
(2.3655 -0.0328139 0)
(2.35313 -0.0254422 0)
(2.34503 -0.0179227 0)
(2.34216 -0.0130636 0)
(2.3454 -0.0164063 0)
(2.34644 -0.0220168 0)
(2.33425 -0.0219439 0)
(2.32181 -0.02042 0)
(2.30973 -0.0191249 0)
(2.29961 -0.0196304 0)
(2.29238 -0.0197324 0)
(2.29179 -0.0185181 0)
(2.29652 -0.0163257 0)
(2.29421 -0.0147658 0)
(2.28541 -0.0131362 0)
(2.27638 -0.0111403 0)
(2.26896 -0.0076634 0)
(2.26377 -0.00383381 0)
(2.26221 -0.00237714 0)
(2.26608 -0.00632121 0)
(2.26636 -0.0115402 0)
(2.26007 -0.0129229 0)
(2.25314 -0.0127244 0)
(2.24646 -0.010141 0)
(2.24051 -0.00425767 0)
(2.23692 0.000516857 0)
(2.23465 0.00414474 0)
(2.23493 0.00430013 0)
(2.23798 -0.00183488 0)
(2.23967 -0.010008 0)
(2.23657 -0.0150319 0)
(2.232 -0.0176379 0)
(2.22758 -0.0184469 0)
(2.22405 -0.0173373 0)
(2.22185 -0.0150856 0)
(2.22113 -0.0119545 0)
(2.22187 -0.00778691 0)
(2.22325 -0.0046462 0)
(2.22352 -0.00352315 0)
(2.22164 -0.0030156 0)
(2.21917 -0.00268337 0)
(2.21676 -0.00127294 0)
(2.21455 0.00110061 0)
(2.21312 0.00320798 0)
(2.21274 0.00597177 0)
(2.21371 0.00901122 0)
(2.21473 0.0101591 0)
(2.21416 0.00883464 0)
(2.21242 0.00642363 0)
(2.21072 0.00251427 0)
(2.21013 -0.00348158 0)
(2.20979 -0.00885206 0)
(2.20814 -0.011388 0)
(2.20645 -0.0119838 0)
(2.20515 -0.0118442 0)
(2.20454 -0.0102702 0)
(2.20449 -0.00734985 0)
(2.20435 -0.0053139 0)
(2.20357 -0.00484642 0)
(2.20217 -0.00512519 0)
(2.20077 -0.00530431 0)
(2.19997 -0.00503585 0)
(2.20017 -0.00440304 0)
(2.20058 -0.00382468 0)
(2.2005 -0.003435 0)
(2.20034 -0.00302986 0)
(2.19969 -0.00192997 0)
(2.19817 0.000543365 0)
(2.19576 0.00361693 0)
(2.19439 0.00565602 0)
(2.1933 0.00701676 0)
(2.19245 0.0077579 0)
(2.19266 0.00721883 0)
(2.19417 0.00499238 0)
(2.19604 0.00121074 0)
(2.19794 -0.00333989 0)
(2.19919 -0.00673589 0)
(2.19935 -0.00819238 0)
(2.19904 -0.00828898 0)
(2.19877 -0.0070851 0)
(2.19837 -0.00459049 0)
(2.19767 -0.0030004 0)
(2.19698 -0.00263445 0)
(2.19674 -0.00291494 0)
(2.19676 -0.00362069 0)
(2.19706 -0.00461166 0)
(2.19795 -0.00560541 0)
(2.19975 -0.00645114 0)
(2.20247 -0.00645671 0)
(2.20543 -0.00450053 0)
(2.2079 -0.00190849 0)
(2.20981 -0.00028201 0)
(2.21094 0.00191532 0)
(2.21091 0.00337177 0)
(2.21058 0.00393401 0)
(2.21018 0.0049903 0)
(2.20956 0.00631181 0)
(2.20837 0.00718681 0)
(2.20663 0.00671338 0)
(2.20558 0.00498415 0)
(2.20588 0.0033086 0)
(2.20714 0.00072572 0)
(2.20901 -0.00201762 0)
(2.21122 -0.00416819 0)
(2.21354 -0.00500064 0)
(2.21543 -0.00411745 0)
(2.21625 -0.00277399 0)
(2.21656 -0.00142021 0)
(2.217 0.000107088 0)
(2.2179 0.000557946 0)
(2.21892 -0.000266414 0)
(2.22089 -0.00237898 0)
(2.22266 -0.00406396 0)
(2.22402 -0.00480495 0)
(2.22514 -0.00464924 0)
(2.22586 -0.00393387 0)
(2.22699 -0.00234058 0)
(2.22827 1.73701e-06 0)
(2.22987 0.00274185 0)
(2.23184 0.00545558 0)
(2.23393 0.00749014 0)
(2.23581 0.00836349 0)
(2.237 0.00800175 0)
(2.23789 0.00658135 0)
(2.23828 0.00432081 0)
(2.23803 0.0012826 0)
(2.237 -0.00280223 0)
(2.23515 -0.00624237 0)
(2.23406 -0.00621615 0)
(2.23459 -0.00430582 0)
(2.23552 -0.00138554 0)
(2.23658 0.00234087 0)
(2.23824 0.00576953 0)
(2.24028 0.00839773 0)
(2.24112 0.00924007 0)
(2.24153 0.00835669 0)
(2.24248 0.00544598 0)
(2.24349 0.00207695 0)
(2.24431 -0.000755061 0)
(2.24503 -0.00276644 0)
(2.24589 -0.00375602 0)
(2.24648 -0.00395237 0)
(2.24682 -0.00350658 0)
(2.24743 -0.00317921 0)
(2.24794 -0.00315491 0)
(2.2485 -0.00321217 0)
(2.24934 -0.00354631 0)
(2.2501 -0.0037033 0)
(2.25078 -0.00333141 0)
(2.25229 -0.00273133 0)
(2.25501 -0.00184813 0)
(2.2572 -0.00110949 0)
(2.25829 -0.000624228 0)
(2.25936 0.000487515 0)
(2.26002 0.00174743 0)
(2.26032 0.00302457 0)
(2.26 0.00423187 0)
(2.25862 0.00479624 0)
(2.25712 0.00404876 0)
(2.25722 0.00321814 0)
(2.25784 0.00276651 0)
(2.25857 0.00200981 0)
(2.25964 0.000887818 0)
(2.26097 -0.000159725 0)
(2.26282 -0.000988602 0)
(2.26533 -0.00243548 0)
(2.2674 -0.00418204 0)
(2.2683 -0.00513638 0)
(2.26924 -0.00584573 0)
(2.2698 -0.00590805 0)
(2.26961 -0.00447636 0)
(2.26905 -0.00189991 0)
(2.26895 0.00057149 0)
(2.26944 0.0024943 0)
(2.26996 0.00381255 0)
(2.27068 0.0041812 0)
(2.27223 0.00277731 0)
(2.27433 0.000285325 0)
(2.27586 -0.00237534 0)
(2.27655 -0.0042093 0)
(2.27772 -0.00494263 0)
(2.27909 -0.00465487 0)
(2.28019 -0.00331913 0)
(2.28119 -0.0016472 0)
(2.2821 4.72455e-06 0)
(2.28298 0.00165142 0)
(2.28397 0.00322075 0)
(2.28483 0.00453456 0)
(2.2858 0.00513563 0)
(2.2872 0.00431159 0)
(2.28862 0.00251459 0)
(2.28899 0.00106474 0)
(2.28951 -0.000957073 0)
(2.28986 -0.00359766 0)
(2.29001 -0.00557624 0)
(2.29049 -0.00568151 0)
(2.29184 -0.00536374 0)
(2.29337 -0.00466031 0)
(2.29507 -0.00343899 0)
(2.29681 -0.00184173 0)
(2.29825 -0.000150306 0)
(2.29932 0.001431 0)
(2.29994 0.00292297 0)
(2.29996 0.00420728 0)
(2.29944 0.00498848 0)
(2.29875 0.00491978 0)
(2.29821 0.00403399 0)
(2.29795 0.00260247 0)
(2.29818 0.000982067 0)
(2.29888 -0.00101911 0)
(2.29995 -0.00282202 0)
(2.30161 -0.00293231 0)
(2.3037 -0.00173818 0)
(2.30492 -0.000490856 0)
(2.30623 0.000353984 0)
(2.30746 0.00122227 0)
(2.30808 0.0021126 0)
(2.30777 0.00267212 0)
(2.30685 0.00242726 0)
(2.30629 0.00175801 0)
(2.30609 0.00111611 0)
(2.30585 -0.000308911 0)
(2.30574 -0.001942 0)
(2.30583 -0.00248592 0)
(2.30662 -0.00230246 0)
(2.30798 -0.00168177 0)
(2.30998 -0.000243202 0)
(2.31124 0.00111209 0)
(2.31286 0.00186207 0)
(2.31449 0.00229136 0)
(2.3159 0.00262081 0)
(2.31701 0.00267123 0)
(2.31773 0.00191641 0)
(1.40732 0.0394608 0)
(0.834602 0.0423381 0)
(0.761956 0.0368852 0)
(0.735072 0.0218083 0)
(0.713025 0.018329 0)
(0.696461 0.0204217 0)
(0.683018 0.0183189 0)
(0.676258 0.0109066 0)
(0.670602 0.00295516 0)
(0.667112 -0.00134672 0)
(0.664043 -0.00245758 0)
(0.661409 -0.00229635 0)
(0.661053 -0.0019829 0)
(0.661729 -0.00162582 0)
(0.664105 -0.00103553 0)
(0.668227 -0.000757985 0)
(0.672724 -0.000694726 0)
(0.675998 -0.000526389 0)
(0.677341 -0.00040098 0)
(0.677649 -0.000425701 0)
(0.67587 -0.00120728 0)
(0.672215 -0.00313398 0)
(0.67088 -0.00539632 0)
(0.672481 -0.00734269 0)
(0.675449 -0.0094286 0)
(2.41713 -0.0470629 0)
(2.40519 -0.0508356 0)
(2.3981 -0.0563856 0)
(2.39799 -0.0589458 0)
(2.40073 -0.0522648 0)
(2.39181 -0.0449025 0)
(2.38102 -0.0411509 0)
(2.36908 -0.0326238 0)
(2.35881 -0.0286698 0)
(2.34711 -0.0292974 0)
(2.33934 -0.030842 0)
(2.33968 -0.0299107 0)
(2.34443 -0.0273675 0)
(2.33928 -0.0279057 0)
(2.33029 -0.030058 0)
(2.32224 -0.0325809 0)
(2.3155 -0.0340347 0)
(2.31075 -0.0333575 0)
(2.30988 -0.0296684 0)
(2.31152 -0.0230449 0)
(2.30653 -0.0193073 0)
(2.29954 -0.017258 0)
(2.29285 -0.0164501 0)
(2.28633 -0.0174306 0)
(2.2813 -0.0194641 0)
(2.27837 -0.0213553 0)
(2.27787 -0.022532 0)
(2.27912 -0.0208547 0)
(2.27989 -0.0171562 0)
(2.27572 -0.0151289 0)
(2.27048 -0.0151006 0)
(2.26506 -0.0156555 0)
(2.26038 -0.0161701 0)
(2.25711 -0.0175445 0)
(2.25592 -0.0193907 0)
(2.2573 -0.0199894 0)
(2.25759 -0.0181724 0)
(2.2554 -0.0155764 0)
(2.25308 -0.013403 0)
(2.25014 -0.013034 0)
(2.24708 -0.0132421 0)
(2.24428 -0.013368 0)
(2.24245 -0.0131044 0)
(2.24174 -0.0125875 0)
(2.24247 -0.0117195 0)
(2.24449 -0.0100006 0)
(2.24452 -0.00802775 0)
(2.2432 -0.00696735 0)
(2.24162 -0.00583558 0)
(2.23925 -0.00455447 0)
(2.23591 -0.00375734 0)
(2.23302 -0.00419222 0)
(2.2304 -0.00511922 0)
(2.2286 -0.00628153 0)
(2.22828 -0.00707132 0)
(2.22947 -0.00669525 0)
(2.23031 -0.00519424 0)
(2.22973 -0.00418845 0)
(2.22835 -0.00398476 0)
(2.22635 -0.00415137 0)
(2.22423 -0.00444044 0)
(2.22275 -0.00493058 0)
(2.22286 -0.00570013 0)
(2.22366 -0.00662144 0)
(2.22338 -0.00750819 0)
(2.22255 -0.00829036 0)
(2.22134 -0.00877376 0)
(2.21928 -0.00863566 0)
(2.21714 -0.00733222 0)
(2.21643 -0.006676 0)
(2.21574 -0.00555817 0)
(2.21551 -0.00423683 0)
(2.21584 -0.00289109 0)
(2.21675 -0.00158753 0)
(2.21723 -0.000721386 0)
(2.21729 -0.000335043 0)
(2.217 -0.000717359 0)
(2.21691 -0.00183129 0)
(2.21712 -0.00271302 0)
(2.2176 -0.00302209 0)
(2.21796 -0.00299245 0)
(2.21769 -0.002801 0)
(2.21708 -0.00214523 0)
(2.21595 -0.00134737 0)
(2.21529 -0.00134479 0)
(2.21534 -0.00196844 0)
(2.21586 -0.00306121 0)
(2.21737 -0.00465698 0)
(2.22006 -0.00585994 0)
(2.22283 -0.00596857 0)
(2.22442 -0.00558501 0)
(2.22547 -0.00529584 0)
(2.22593 -0.00534114 0)
(2.22546 -0.0053946 0)
(2.22506 -0.00513003 0)
(2.2246 -0.00419184 0)
(2.22414 -0.00238494 0)
(2.22327 -8.91248e-05 0)
(2.22148 0.00208321 0)
(2.22001 0.0035226 0)
(2.22027 0.00400553 0)
(2.22118 0.00394889 0)
(2.22233 0.00283497 0)
(2.22492 0.000819901 0)
(2.22813 -0.000605135 0)
(2.23089 -0.0013044 0)
(2.23199 -0.00149665 0)
(2.23221 -0.00124121 0)
(2.2323 0.000263402 0)
(2.23154 0.00278423 0)
(2.23046 0.00496502 0)
(2.23042 0.00595104 0)
(2.23078 0.00587162 0)
(2.23203 0.00450214 0)
(2.23426 0.00206937 0)
(2.23654 -0.000129522 0)
(2.23848 -0.00140249 0)
(2.24024 -0.00159357 0)
(2.24209 -0.000793417 0)
(2.24391 0.00080963 0)
(2.24568 0.00284245 0)
(2.24724 0.00487677 0)
(2.24823 0.00687691 0)
(2.24833 0.00859271 0)
(2.24729 0.00927121 0)
(2.24501 0.0081588 0)
(2.24266 0.00555053 0)
(2.24207 0.00342334 0)
(2.24283 0.00177541 0)
(2.24406 0.000160402 0)
(2.24536 -0.000148286 0)
(2.24718 0.00131433 0)
(2.24955 0.00453393 0)
(2.25068 0.00725036 0)
(2.25125 0.00896765 0)
(2.2511 0.009859 0)
(2.25058 0.00948334 0)
(2.25068 0.00769862 0)
(2.25109 0.00650008 0)
(2.25236 0.00587094 0)
(2.254 0.00538464 0)
(2.25522 0.0051794 0)
(2.25601 0.00537222 0)
(2.25637 0.00560603 0)
(2.25679 0.0054437 0)
(2.25708 0.00517583 0)
(2.25737 0.00493556 0)
(2.25757 0.00436898 0)
(2.25818 0.00351339 0)
(2.25993 0.00265236 0)
(2.26279 0.00174774 0)
(2.26526 0.00102734 0)
(2.26654 0.000665781 0)
(2.26725 0.000398366 0)
(2.26789 0.000196894 0)
(2.26865 0.000202651 0)
(2.26906 0.000451701 0)
(2.26793 0.00122512 0)
(2.26539 0.00253972 0)
(2.26419 0.00408035 0)
(2.26456 0.00537763 0)
(2.26534 0.00638128 0)
(2.266 0.00697901 0)
(2.26694 0.00723206 0)
(2.26887 0.00685319 0)
(2.27124 0.00542287 0)
(2.27335 0.00310783 0)
(2.27492 0.000676887 0)
(2.27585 -0.00131957 0)
(2.27613 -0.00289775 0)
(2.27622 -0.00392504 0)
(2.2762 -0.00390321 0)
(2.27685 -0.0029015 0)
(2.27782 -0.00120951 0)
(2.27862 0.000988096 0)
(2.27885 0.00346814 0)
(2.27861 0.00548605 0)
(2.27897 0.00568257 0)
(2.27946 0.00450805 0)
(2.28125 0.00171221 0)
(2.28383 -0.000806766 0)
(2.28591 -0.00227271 0)
(2.28721 -0.00313968 0)
(2.2881 -0.00339502 0)
(2.28911 -0.0032031 0)
(2.29002 -0.00230162 0)
(2.29067 -0.000813128 0)
(2.29145 0.00103889 0)
(2.29234 0.00291337 0)
(2.2929 0.0043543 0)
(2.29295 0.00483882 0)
(2.29274 0.00432975 0)
(2.29273 0.00311848 0)
(2.29302 0.00169796 0)
(2.29367 0.000612008 0)
(2.29534 -0.00068402 0)
(2.29706 -0.00161724 0)
(2.29867 -0.00230368 0)
(2.30032 -0.00269355 0)
(2.30189 -0.00264222 0)
(2.30324 -0.00220263 0)
(2.30435 -0.00137102 0)
(2.30515 -0.000247399 0)
(2.30562 0.00119208 0)
(2.30539 0.00310515 0)
(2.30409 0.00522422 0)
(2.30214 0.00661818 0)
(2.30096 0.00678854 0)
(2.30075 0.00629519 0)
(2.30083 0.00547081 0)
(2.30194 0.00322103 0)
(2.30523 -6.3158e-05 0)
(2.30878 -0.00209359 0)
(2.31055 -0.00271746 0)
(2.31128 -0.00271885 0)
(2.31232 -0.00243429 0)
(2.31304 -0.00166917 0)
(2.31262 -0.000314917 0)
(2.31092 0.00156036 0)
(2.30927 0.00336033 0)
(2.30833 0.00425875 0)
(2.3079 0.00423805 0)
(2.3073 0.00324883 0)
(2.30836 0.00120947 0)
(2.31083 0.000182709 0)
(2.31303 -1.8411e-05 0)
(2.31458 -0.000613293 0)
(2.31526 -0.00109331 0)
(2.31628 -0.00119266 0)
(2.31775 -0.000967716 0)
(2.31927 -0.000207279 0)
(2.32041 0.000996259 0)
(2.32071 0.00221867 0)
(1.46048 0.0690998 0)
(0.838462 0.0750939 0)
(0.765201 0.0593241 0)
(0.740475 0.0382357 0)
(0.716973 0.032552 0)
(0.700123 0.0326365 0)
(0.688896 0.0276044 0)
(0.682576 0.0191833 0)
(0.677355 0.0104216 0)
(0.675822 0.00319864 0)
(0.675156 0.000254751 0)
(0.674388 0.000138438 0)
(0.674568 0.000657066 0)
(0.675236 0.000847986 0)
(0.676923 0.000812955 0)
(0.679781 0.000678563 0)
(0.683437 0.000312801 0)
(0.68644 -7.6276e-05 0)
(0.687676 -0.000522574 0)
(0.687698 -0.00138008 0)
(0.685384 -0.00271107 0)
(0.68157 -0.00459162 0)
(0.680306 -0.00686039 0)
(0.681862 -0.0090244 0)
(0.684734 -0.011134 0)
(2.4619 -0.0698779 0)
(2.45198 -0.0743341 0)
(2.44609 -0.0742193 0)
(2.44547 -0.0656491 0)
(2.44472 -0.0545612 0)
(2.43348 -0.0494925 0)
(2.42306 -0.0453834 0)
(2.41385 -0.0389559 0)
(2.40547 -0.0364116 0)
(2.39552 -0.0390437 0)
(2.38841 -0.0454301 0)
(2.38797 -0.045817 0)
(2.38905 -0.0395232 0)
(2.38336 -0.0365454 0)
(2.37556 -0.0363901 0)
(2.36797 -0.0371072 0)
(2.36239 -0.0381889 0)
(2.35979 -0.0361415 0)
(2.35988 -0.0272906 0)
(2.35713 -0.0187563 0)
(2.35092 -0.0162489 0)
(2.34498 -0.0147191 0)
(2.33841 -0.0154985 0)
(2.33293 -0.0176306 0)
(2.32748 -0.0196612 0)
(2.32323 -0.0231135 0)
(2.32292 -0.0262795 0)
(2.32558 -0.0250812 0)
(2.323 -0.0220971 0)
(2.31767 -0.0200859 0)
(2.31224 -0.0167191 0)
(2.3072 -0.0138072 0)
(2.30295 -0.0123576 0)
(2.2996 -0.0119342 0)
(2.29755 -0.0120454 0)
(2.29872 -0.013073 0)
(2.29897 -0.0143406 0)
(2.29619 -0.0142821 0)
(2.293 -0.013122 0)
(2.28972 -0.010738 0)
(2.28607 -0.00739145 0)
(2.28294 -0.00526742 0)
(2.28106 -0.00498924 0)
(2.27967 -0.00555713 0)
(2.27953 -0.00723634 0)
(2.28158 -0.0100359 0)
(2.28332 -0.0127683 0)
(2.28179 -0.0139638 0)
(2.27946 -0.0140678 0)
(2.27667 -0.0131654 0)
(2.27222 -0.010487 0)
(2.26736 -0.00663239 0)
(2.26484 -0.00421501 0)
(2.26303 -0.00333395 0)
(2.26258 -0.00327775 0)
(2.26465 -0.00412947 0)
(2.2659 -0.00500938 0)
(2.26474 -0.00515135 0)
(2.26325 -0.00485613 0)
(2.26127 -0.00378203 0)
(2.25921 -0.0021937 0)
(2.25751 -0.000448626 0)
(2.25697 0.000991628 0)
(2.25715 0.00189801 0)
(2.25667 0.00211117 0)
(2.25621 0.00194279 0)
(2.25495 0.0012144 0)
(2.25241 -0.000699821 0)
(2.2502 -0.00283997 0)
(2.24942 -0.00362766 0)
(2.2487 -0.00469578 0)
(2.2485 -0.00618089 0)
(2.24893 -0.00760313 0)
(2.24953 -0.00888283 0)
(2.24935 -0.00952183 0)
(2.24892 -0.0093294 0)
(2.2482 -0.00790189 0)
(2.24801 -0.00614201 0)
(2.24803 -0.00484294 0)
(2.24817 -0.00421964 0)
(2.24801 -0.00442518 0)
(2.24752 -0.00466558 0)
(2.24697 -0.00471509 0)
(2.24608 -0.00422896 0)
(2.24534 -0.00306041 0)
(2.24507 -0.00166846 0)
(2.24532 -0.000221254 0)
(2.2461 0.00112094 0)
(2.24794 0.00256083 0)
(2.24988 0.00358015 0)
(2.25071 0.00387281 0)
(2.25114 0.00359331 0)
(2.25134 0.0027148 0)
(2.25087 0.00187895 0)
(2.25018 0.00134435 0)
(2.24916 0.000587323 0)
(2.24799 -0.000513977 0)
(2.24644 -0.00193037 0)
(2.24468 -0.00333637 0)
(2.24392 -0.00386958 0)
(2.24469 -0.00379152 0)
(2.24584 -0.00365535 0)
(2.2476 -0.00320625 0)
(2.25067 -0.00217349 0)
(2.25372 -0.00111263 0)
(2.25585 -0.000776672 0)
(2.25642 -0.000903674 0)
(2.25627 -0.00100908 0)
(2.25553 -0.00121404 0)
(2.25372 -0.00122158 0)
(2.25189 -0.000403885 0)
(2.25143 0.00117488 0)
(2.25206 0.00304786 0)
(2.25324 0.00488729 0)
(2.25472 0.00614695 0)
(2.25646 0.00664949 0)
(2.25822 0.00656558 0)
(2.25986 0.00594804 0)
(2.26136 0.00472629 0)
(2.26271 0.00303191 0)
(2.26376 0.00128527 0)
(2.26474 -0.000430604 0)
(2.26544 -0.00217474 0)
(2.26582 -0.00372022 0)
(2.26565 -0.0045959 0)
(2.26477 -0.00400962 0)
(2.26391 -0.00146533 0)
(2.26318 0.00207287 0)
(2.26239 0.00554573 0)
(2.26218 0.00796611 0)
(2.26248 0.00893223 0)
(2.26344 0.00893265 0)
(2.26508 0.00719426 0)
(2.26597 0.0050697 0)
(2.26647 0.00330285 0)
(2.26695 0.00167378 0)
(2.26733 0.000759839 0)
(2.268 0.00134808 0)
(2.26874 0.00267447 0)
(2.26987 0.00401405 0)
(2.27124 0.00498053 0)
(2.27235 0.00525377 0)
(2.27295 0.00486543 0)
(2.27336 0.00376186 0)
(2.27393 0.00259109 0)
(2.27441 0.00153941 0)
(2.27502 0.00105961 0)
(2.27545 0.00143707 0)
(2.27603 0.0028042 0)
(2.27728 0.00461815 0)
(2.27923 0.00608783 0)
(2.28075 0.007096 0)
(2.28132 0.0072524 0)
(2.28206 0.00678875 0)
(2.28264 0.00530549 0)
(2.28272 0.00275318 0)
(2.282 -0.000948378 0)
(2.28022 -0.00468588 0)
(2.27854 -0.00660073 0)
(2.2784 -0.00648866 0)
(2.27924 -0.00549811 0)
(2.28028 -0.0041413 0)
(2.28148 -0.00261587 0)
(2.28345 -0.000738591 0)
(2.28565 0.000954845 0)
(2.2875 0.00149982 0)
(2.28899 0.00141519 0)
(2.28965 0.00173661 0)
(2.29 0.00196654 0)
(2.29023 0.00219897 0)
(2.29009 0.00227446 0)
(2.28967 0.0017217 0)
(2.28994 0.000634348 0)
(2.29055 -0.000655324 0)
(2.29095 -0.00203488 0)
(2.29123 -0.00276687 0)
(2.29166 -0.0023 0)
(2.29273 -0.00093818 0)
(2.29434 0.000784215 0)
(2.29599 0.00271359 0)
(2.29755 0.00373906 0)
(2.29888 0.00359863 0)
(2.29998 0.00268541 0)
(2.30065 0.00163961 0)
(2.30114 0.000707042 0)
(2.30122 -0.000411551 0)
(2.30102 -0.00203449 0)
(2.30133 -0.00360212 0)
(2.30187 -0.00465735 0)
(2.30241 -0.00534669 0)
(2.30282 -0.00562286 0)
(2.30332 -0.00520541 0)
(2.30419 -0.004072 0)
(2.30516 -0.0023807 0)
(2.30624 -0.000576647 0)
(2.30739 0.000710427 0)
(2.30848 0.0015645 0)
(2.30959 0.00219936 0)
(2.31066 0.0024479 0)
(2.3116 0.00218732 0)
(2.31247 0.00147932 0)
(2.31314 0.000501782 0)
(2.31353 -0.0005356 0)
(2.31348 -0.00163525 0)
(2.31291 -0.00263551 0)
(2.312 -0.00307542 0)
(2.31107 -0.0025228 0)
(2.3107 -0.00108317 0)
(2.31105 0.000613515 0)
(2.31181 0.00226471 0)
(2.31341 0.00419473 0)
(2.31562 0.00538567 0)
(2.31798 0.00456718 0)
(2.31962 0.0026226 0)
(2.32027 0.000891636 0)
(2.32028 -0.000595761 0)
(2.31985 -0.00253392 0)
(2.31843 -0.00461083 0)
(2.31679 -0.00565813 0)
(2.31622 -0.00503018 0)
(2.3164 -0.0034595 0)
(2.31666 -0.00153821 0)
(2.31726 0.000166594 0)
(2.31835 0.00164471 0)
(2.32022 0.00259045 0)
(2.32211 0.00341716 0)
(2.32268 0.00373198 0)
(2.32293 0.00326357 0)
(2.32351 0.00166862 0)
(2.32409 -0.000213945 0)
(2.32471 -0.00178763 0)
(2.3252 -0.00320623 0)
(2.32597 -0.00325189 0)
(1.55344 0.0901582 0)
(0.853549 0.103837 0)
(0.77453 0.0780734 0)
(0.756222 0.0514361 0)
(0.734312 0.0424645 0)
(0.718652 0.0370346 0)
(0.707643 0.0300698 0)
(0.702275 0.0212757 0)
(0.697841 0.013749 0)
(0.696782 0.00803436 0)
(0.697097 0.00536982 0)
(0.697636 0.00431712 0)
(0.698555 0.00387796 0)
(0.699398 0.00261568 0)
(0.700598 0.000479544 0)
(0.702573 -0.00169471 0)
(0.705417 -0.0032395 0)
(0.708235 -0.00457455 0)
(0.709588 -0.00556963 0)
(0.709822 -0.00677473 0)
(0.708069 -0.00855399 0)
(0.705311 -0.0103098 0)
(0.704593 -0.011429 0)
(0.70592 -0.0120696 0)
(0.708282 -0.0126184 0)
(2.48476 -0.0976262 0)
(2.47966 -0.0907641 0)
(2.4767 -0.0793791 0)
(2.47534 -0.0667708 0)
(2.47001 -0.057365 0)
(2.46012 -0.0541051 0)
(2.449 -0.0545252 0)
(2.43828 -0.0567607 0)
(2.43006 -0.0594298 0)
(2.42425 -0.0640426 0)
(2.42287 -0.0648957 0)
(2.42232 -0.0528112 0)
(2.41848 -0.039232 0)
(2.41246 -0.034728 0)
(2.40486 -0.0351182 0)
(2.3972 -0.0383782 0)
(2.39183 -0.0406284 0)
(2.39141 -0.0379548 0)
(2.39257 -0.0342362 0)
(2.38688 -0.0341596 0)
(2.38128 -0.0345156 0)
(2.37537 -0.0349379 0)
(2.36911 -0.0360016 0)
(2.36413 -0.0364717 0)
(2.3583 -0.0359515 0)
(2.3544 -0.0341263 0)
(2.35504 -0.0296224 0)
(2.35685 -0.0236044 0)
(2.35322 -0.0216395 0)
(2.34877 -0.0219246 0)
(2.34354 -0.0239216 0)
(2.33771 -0.0268701 0)
(2.33383 -0.02788 0)
(2.33039 -0.0267572 0)
(2.32981 -0.0224501 0)
(2.33145 -0.0173006 0)
(2.33115 -0.0141396 0)
(2.32842 -0.0124275 0)
(2.32542 -0.0117435 0)
(2.32289 -0.0122821 0)
(2.3201 -0.0140127 0)
(2.31589 -0.0158002 0)
(2.3135 -0.0162972 0)
(2.31207 -0.0154661 0)
(2.31141 -0.0125519 0)
(2.31273 -0.00897469 0)
(2.31435 -0.00747471 0)
(2.31335 -0.00740825 0)
(2.31097 -0.00722793 0)
(2.30857 -0.00753155 0)
(2.30473 -0.00874599 0)
(2.29981 -0.0101365 0)
(2.29666 -0.0113204 0)
(2.29535 -0.0120132 0)
(2.29509 -0.0127567 0)
(2.29721 -0.0125697 0)
(2.29896 -0.011029 0)
(2.29809 -0.00947408 0)
(2.29626 -0.00776714 0)
(2.29428 -0.00532096 0)
(2.29275 -0.00400438 0)
(2.29131 -0.00373765 0)
(2.2903 -0.0044521 0)
(2.29012 -0.00650891 0)
(2.28995 -0.00834104 0)
(2.28952 -0.00902166 0)
(2.28858 -0.00937235 0)
(2.28675 -0.00839268 0)
(2.28448 -0.00547506 0)
(2.28313 -0.00252819 0)
(2.28274 -0.000617754 0)
(2.28249 0.000142728 0)
(2.28246 -0.000682158 0)
(2.28239 -0.00303256 0)
(2.28229 -0.00561106 0)
(2.28209 -0.00711899 0)
(2.28164 -0.00719674 0)
(2.28136 -0.00621993 0)
(2.28135 -0.00466758 0)
(2.28111 -0.00353483 0)
(2.28047 -0.00288457 0)
(2.27947 -0.00251116 0)
(2.27818 -0.00299813 0)
(2.27676 -0.00420974 0)
(2.27599 -0.00500647 0)
(2.2757 -0.0051583 0)
(2.2756 -0.00491101 0)
(2.27651 -0.00378059 0)
(2.27861 -0.00163089 0)
(2.28014 0.000408276 0)
(2.28048 0.00170442 0)
(2.28043 0.00245682 0)
(2.28041 0.00263656 0)
(2.28004 0.00239498 0)
(2.27914 0.00199265 0)
(2.27795 0.00161779 0)
(2.27645 0.00129695 0)
(2.2743 0.000780253 0)
(2.27256 0.000133749 0)
(2.27268 -2.5642e-05 0)
(2.2734 5.53037e-05 0)
(2.27422 0.000236466 0)
(2.27635 0.00059707 0)
(2.27984 0.000908474 0)
(2.28265 0.000518016 0)
(2.28368 -0.000560661 0)
(2.28369 -0.00156527 0)
(2.28321 -0.00226187 0)
(2.28201 -0.00218469 0)
(2.27968 -0.00129404 0)
(2.27784 -0.000124841 0)
(2.2778 0.000722313 0)
(2.27837 0.00152307 0)
(2.2795 0.00256431 0)
(2.28076 0.00352161 0)
(2.28214 0.00437854 0)
(2.28366 0.00524221 0)
(2.28505 0.00589521 0)
(2.28616 0.00628015 0)
(2.28699 0.00681193 0)
(2.28779 0.00754555 0)
(2.28864 0.0079923 0)
(2.28961 0.00769459 0)
(2.29043 0.00635837 0)
(2.29071 0.0041092 0)
(2.2905 0.00230486 0)
(2.29013 0.00185579 0)
(2.28945 0.00268235 0)
(2.28847 0.00494332 0)
(2.28767 0.00788765 0)
(2.28723 0.0104234 0)
(2.28705 0.0119393 0)
(2.28705 0.0118441 0)
(2.28733 0.0104222 0)
(2.28814 0.00883174 0)
(2.28911 0.00717966 0)
(2.29023 0.00550126 0)
(2.29104 0.00412618 0)
(2.2915 0.00362419 0)
(2.29257 0.00363225 0)
(2.29384 0.00402964 0)
(2.29489 0.00444414 0)
(2.29519 0.0045353 0)
(2.29498 0.00415322 0)
(2.29565 0.00370297 0)
(2.29647 0.00347927 0)
(2.29699 0.00305994 0)
(2.29767 0.00257157 0)
(2.29866 0.00242735 0)
(2.30031 0.00338668 0)
(2.30195 0.0050947 0)
(2.30251 0.006162 0)
(2.3032 0.00722424 0)
(2.30383 0.00806274 0)
(2.30393 0.00808094 0)
(2.30288 0.00675613 0)
(2.30088 0.00420144 0)
(2.29949 0.00184245 0)
(2.29952 0.000824631 0)
(2.30019 0.000711324 0)
(2.30087 0.000888404 0)
(2.30178 0.00149619 0)
(2.30355 0.00253869 0)
(2.30579 0.00341537 0)
(2.30758 0.00343398 0)
(2.30883 0.00288351 0)
(2.30972 0.00200691 0)
(2.31026 0.000970034 0)
(2.31048 0.000427481 0)
(2.31074 0.000138667 0)
(2.31075 0.000112826 0)
(2.31021 0.000719997 0)
(2.30933 0.00166354 0)
(2.30874 0.00218898 0)
(2.30878 0.00202948 0)
(2.30937 0.0014032 0)
(2.31013 0.000801352 0)
(2.31137 0.000402673 0)
(2.31369 0.000688402 0)
(2.31584 0.00152467 0)
(2.31698 0.00210423 0)
(2.31796 0.00235904 0)
(2.31894 0.00248849 0)
(2.31952 0.00264755 0)
(2.31922 0.00268474 0)
(2.31802 0.00242465 0)
(2.31694 0.00196246 0)
(2.31696 0.00142281 0)
(2.31751 0.000795861 0)
(2.3181 9.90539e-05 0)
(2.31876 -0.000376997 0)
(2.31958 -0.000521323 0)
(2.3209 -0.000405275 0)
(2.32225 -0.000238718 0)
(2.32326 -5.7797e-05 0)
(2.32418 0.000215092 0)
(2.32511 0.000584742 0)
(2.32601 0.000965986 0)
(2.32674 0.0014073 0)
(2.32719 0.00197286 0)
(2.32739 0.00249017 0)
(2.32741 0.00311131 0)
(2.32724 0.00397975 0)
(2.32666 0.00451108 0)
(2.32588 0.00397278 0)
(2.32563 0.00267112 0)
(2.32585 0.00168125 0)
(2.32619 0.00139825 0)
(2.32689 0.00167118 0)
(2.32828 0.00248501 0)
(2.33021 0.00342758 0)
(2.33217 0.00400599 0)
(2.33342 0.00409126 0)
(2.33374 0.0038423 0)
(2.33371 0.0029417 0)
(2.333 0.00179742 0)
(2.33142 0.00058423 0)
(2.32952 -0.00048157 0)
(2.32885 -0.00087871 0)