/*--------------------------------*- C++ -*----------------------------------*\
  =========                 |
  \\      /  F ield         | OpenFOAM: The Open Source CFD Toolbox
   \\    /   O peration     | Website:  https://openfoam.org
    \\  /    A nd           | Version:  7
     \\/     M anipulation  |
\*---------------------------------------------------------------------------*/
FoamFile
{
    version     2.0;
    format      ascii;
    class       volScalarField;
    location    "4";
    object      p;
}
// * * * * * * * * * * * * * * * * * * * * * * * * * * * * * * * * * * * * * //

dimensions      [1 -1 -2 0 0 0 0];

internalField   nonuniform List<scalar> 
4080
(
1
1
1
1
1
1
1
1
1
1
1
1
1
1
1
1
1
1.87415
8.63958
10.8034
11.0703
11.404
11.6599
11.8743
1
1
1
1
1
1
1
1
1
1
1
1
1
1
1
1
1
1.74557
8.32381
10.7158
10.9821
11.2836
11.4982
11.5931
1
1
1
1
1
1
1
1
1
1
1
1
1
1
1
1
1
1.44097
7.7169
10.5794
10.7873
10.9977
11.0864
11.2093
1
1
1
1
1
1
1
1
1
1
1
1
1
1
1
1
1
1.04858
6.71836
10.3239
10.48
10.6591
10.7008
10.9659
1
1
1
1
1
1
1
1
1
1
1
1
1
1
1
1
1
1.00052
5.29244
9.77577
9.99469
10.0321
9.46269
7.87185
1
1
1
1
1
1
1
1
1
1
1
1
1
1
1
1
1
0.999993
3.60087
9.05428
9.62261
9.36595
8.69917
7.11405
1
1
1
1
1
1
1
1
1
1
1
1
1
1
1
1
1
0.999998
1.93678
7.88472
9.34255
8.87951
8.1997
6.60597
1
1
1
1
1
1
1
1
1
1
1
1
1
1
1
1
1
1
1.09455
5.93012
8.80059
8.32102
7.71059
6.37233
1
1
1
1
1
1
1
1
1
1
1
1
1
1
1
1
1
1
1.00045
3.3069
7.86614
8.1084
7.40632
6.35159
1
1
1
1
1
1
1
1
1
1
1
1
1
1
1
1
1
1
0.999995
1.37048
6.15995
8.04637
7.27084
6.35948
1
1
1
1
1
1
1
1
1
1
1
1
1
1
1
1
1
1
0.999999
1.01155
3.48951
7.37595
7.1036
6.31262
1
1
1
1
1
1
1
1
1
1
1
1
1
1
1
1
1
1
1
1.00002
1.42461
5.56304
7.16607
6.35741
1
1
1
1
1
1
1
1
1
1
1
1
1
1
1
1
1
1
1
1
1.0148
2.71261
6.30822
6.36835
1
1
1
1
1
1
1
1
1
1
1
1
1
1
1
1
1
1
1
1
1.00008
1.21734
4.22621
6.31966
1
1
1
1
1
1
1
1
1
1
1
1
1
1
1
1
1
1
1
1
1
1.00494
1.79513
4.96996
1
1
1
1
1
1
1
1
1
1
1
1
1
1
1
1
1
1
1
1
1
1.00003
1.05165
2.50758
1
1
1
1
1
1
1
1
1
1
1
1
1
1
1
1
1
1
1
1
1
1
1.00072
1.17755
1
1
1
1
1
1
1
1
1
1
1
1
1
1
1
1
1
1
1
1
1
1
1
1.00466
1
1
1
1
1
1
1
1
1
1
1
1
1
1
1
1
1
1
1
1
1
1
1
1.00003
1
1
1
1
1
1
1
1
1
1
1
1
1
1
1
1
1
1
1
1
1
1
1
1
1
1
1
1
1
1
1
1
1
1
1
1
1
1
1
1
1
1
1
1
1
1
1
1
1
1
1
1
1
1
1
1
1
1
1
1
1
1
1
1
1
1
1
1
1
1
1
1
1
1
1
1
1
1
1
1
1
1
1
1
1
1
1
1
1
1
1
1
1
1
1
1
1
1
1
1
1
1
1
1
1
1
1
1
1
1
1
1
1
1
1
1
1
1
1
1
1
1
1
1
1
1
1
1
1
1
1
1
1
1
1
1
1
1
1
1
1
1
1
1
1
1
1
1
1
1
1
1
1
1
1
1
1
1
1
1
1
1
1
1
1
1
1
1
1
1
1
1
1
1
1
1
1
1
1
1
1
1
1
1
1
1
1
1
1
1
1
1
1
1
1
1
1
1
1
1
1
1
1
1
1
1
1
1
1
1
1
1
1
1
1
1
1
1
1
1
1
1
1
1
1
1
1
1
1
1
1
1
1
1
1
1
1
1
1
1
1
1
1
1
1
1
1
1
1
1
1
1
1
1
1
1
1
1
1
1
1
1
1
1
1
1
1
1
1
1
1
1
1
1
1
1
1
1
1
1
1
1
1
1
1
1
1
1
1
1
1
1
1
1
1
1
1
1
1
1
1
1
1
1
1
1
1
1
1
1
1
1
1
1
1
1
1
1
1
1
1
1
1
1
1
1
1
1
1
1
1
1
1
1
1
1
1
1
1
1
1
1
1
1
1
1
1
1
1
1
1
1
1
1
1
1
1
1
1
1
1
1
1
1
1
1
1
1
1
1
1
1
1
1
1
1
1
1
1
1
1
1
1
1
1
1
1
1
1
1
1
1
1
1
1
1
1
1
1
1
1
1
1
1
1
1
1
1
1
1
1
1
1
1
1
1
1
1
1
1
1
1
1
1
1
1
1
1
1
1
1
1
1
1
1
1
1
1
1
1
1
1
1
1
1
1
1
1
1
1
1
1
1
1
1
1
1
1
1
1
1
1
1
1
1
1
1
1
1
1
1
1
1
1
1
1
1
1
1
1
1
1
1
1
1
1
1
1
1
1
1
1
1
1
1
1
1
1
1
1
1
1
1
1
2.10546
0.608419
1.56858
3.36651
4.0208
4.35931
4.52503
4.59707
4.62158
4.64688
4.66
4.67923
3.32824
1.68382
2.47022
4.13361
4.40157
4.49021
4.5659
4.61792
4.63575
4.66412
4.67524
4.69825
4.27326
2.59219
2.49065
3.69174
4.28926
4.34447
4.47658
4.5717
4.6151
4.66029
4.6665
4.70254
4.83826
3.40647
2.73956
3.32451
4.25592
4.49573
4.66927
4.71405
4.69672
4.68905
4.67724
4.82605
5.20312
4.05226
3.07364
3.15885
3.87169
4.49028
4.71074
4.64791
4.61464
4.57298
4.42469
3.8143
5.41043
4.45089
3.48318
3.17788
3.52122
4.25029
4.72047
4.64982
4.64587
4.58675
4.42936
3.89536
5.51937
4.73438
3.88826
3.29311
3.36118
3.93662
4.62402
4.67857
4.64487
4.5795
4.41666
3.98701
5.65336
4.97969
4.23643
3.54816
3.38167
3.60122
4.3834
4.64543
4.638
4.59318
4.44823
4.15188
5.78021
5.1505
4.52482
3.84256
3.4385
3.49542
4.01231
4.53697
4.63673
4.61442
4.48401
4.2686
5.95779
5.34022
4.78241
4.14636
3.6165
3.49617
3.69261
4.3209
4.58648
4.61752
4.52472
4.35271
5.94493
5.54106
4.97262
4.41761
3.82926
3.52417
3.59056
3.97779
4.43226
4.61186
4.55891
4.42999
5.1384
5.6416
5.21241
4.67481
4.10643
3.64829
3.56799
3.73991
4.24866
4.56285
4.5814
4.48604
3.1302
5.13604
5.35454
4.95083
4.42217
3.86079
3.60059
3.64984
3.94716
4.40393
4.56532
4.52369
1.38179
3.51268
5.02471
5.1238
4.73261
4.17543
3.70988
3.62373
3.74704
4.16421
4.49189
4.54461
1.01647
1.58788
3.68771
4.87249
4.91593
4.53441
3.95927
3.66667
3.68544
3.86913
4.30835
4.5235
1.00017
1.03563
1.74362
3.73953
4.71127
4.73522
4.33901
3.83067
3.68834
3.76559
4.06165
4.40293
1
1.0005
1.05594
1.84132
3.70961
4.55288
4.56735
4.17065
3.78821
3.72811
3.84883
4.20712
1
1
1.00097
1.0726
1.88048
3.61578
4.41098
4.39196
4.05915
3.78218
3.79117
3.95593
1
1
1
1.00144
1.08184
1.86394
3.49621
4.24609
4.23097
3.98164
3.81006
3.86829
1
1
1
1.00001
1.00176
1.08195
1.81163
3.32713
4.08573
4.08639
3.94162
3.86089
1
1
1
1
1.00001
1.00183
1.07494
1.72252
3.15053
3.9173
3.97481
3.91236
1
1
1
1
1
1.00001
1.00157
1.06444
1.61697
2.90745
3.80678
3.88252
1
1
1
1
1
1
1.00001
1.00137
1.04811
1.50112
2.71
3.66014
1
1
1
1
1
1
1
1.00001
1.00086
1.03693
1.37861
2.49771
1
1
1
1
1
1
1
1
1
1.00064
1.0229
1.29404
1
1
1
1
1
1
1
1
1
1
1.00033
1.01433
1
1
1
1
1
1
1
1
1
1
1
1.00017
1
1
1
1
1
1
1
1
1
1
1
1
1
1
1
1
1
1
1
1
1
1
1
1
1
1
1
1
1
1
1
1
1
1
1
1
1
1
1
1
1
1
1
1
1
1
1
1
1
1
1
1
1
1
1
1
1
1
1
1
1
1
1
1
1
1
1
1
1
1
1
1
1
1
1
1
1
1
1
1
1
1
1
1
1
1
1
1
1
1
1
1
1
1
1
1
1
1
1
1
1
1
1
1
1
1
1
1
1.63366
1.05608
1.08064
1.1935
1.30434
1.44645
1.48302
1.45976
1.43403
1.39603
1.36008
1.34709
1.34234
1.34785
1.34709
1.3428
1.34083
1.33587
1.32591
1.3158
1.30887
1.30471
1.30682
1.3112
1.30751
1.30051
1.29281
1.28247
1.27256
1.26705
1.26384
1.26343
1.26799
1.2714
1.26876
1.2637
1.25722
1.2477
1.23624
1.2287
1.22457
1.26922
3.19149
4.38062
4.55636
4.63586
4.65165
4.69481
4.72709
4.73995
4.72392
4.68997
4.64701
4.60395
4.56374
4.52204
4.47395
4.4222
4.37521
4.33926
4.31664
4.29977
4.27481
4.23208
4.16884
4.08853
3.99938
3.92011
3.86143
3.82505
3.81344
3.82509
3.83389
3.79015
3.69976
3.58818
3.47107
3.38852
3.33439
3.31082
3.31442
3.32844
3.3371
3.24913
2.53635
1.8115
1.50711
1.39211
1.32517
1.34644
1.36938
1.34903
1.34925
1.36061
1.36418
1.35982
1.3566
1.35202
1.34661
1.33994
1.33489
1.33148
1.3264
1.32113
1.31624
1.30956
1.30389
1.29892
1.2945
1.29241
1.29004
1.28678
1.28332
1.27885
1.27292
1.26679
1.26135
1.25798
1.25632
1.25624
1.25455
1.25171
1.24787
1.24119
1.23091
1.23068
3.01279
4.36205
4.58762
4.67858
4.72649
4.74848
4.74323
4.72468
4.69098
4.65155
4.61358
4.58241
4.55586
4.52509
4.47948
4.41608
4.3469
4.28656
4.24243
4.213
4.19026
4.16535
4.13658
4.107
4.06518
3.99107
3.90021
3.81779
3.75323
3.71318
3.69991
3.69079
3.67751
3.63783
3.57104
3.47978
3.38436
3.31253
3.26047
3.22708
3.2136
3.17497
2.98913
2.27876
1.73229
1.45829
1.34429
1.25743
1.26542
1.3107
1.35266
1.39553
1.40981
1.39695
1.39167
1.38211
1.36577
1.34528
1.32278
1.31469
1.31259
1.3141
1.32127
1.32487
1.32218
1.31494
1.30122
1.2865
1.28016
1.27901
1.27997
1.28258
1.28228
1.27895
1.27191
1.25945
1.24881
1.24447
1.24266
1.24323
1.24714
1.24771
1.24582
1.23819
2.61671
4.36676
4.66945
4.75763
4.78311
4.77971
4.74263
4.69162
4.63623
4.58932
4.55789
4.54213
4.53816
4.53608
4.52427
4.49083
4.43069
4.3551
4.27745
4.20506
4.14081
4.08899
4.05539
4.04322
4.05097
4.05528
4.01607
3.94464
3.84487
3.71763
3.60886
3.54699
3.53888
3.5646
3.58369
3.56314
3.50952
3.42666
3.30861
3.18031
3.09791
3.04055
3.41846
2.75418
2.19873
1.74958
1.5886
1.44134
1.31269
1.30468
1.30524
1.31294
1.33311
1.35738
1.37675
1.37814
1.36784
1.35028
1.32641
1.31354
1.31197
1.31193
1.31255
1.31452
1.31546
1.30993
1.29843
1.28864
1.28351
1.28084
1.28087
1.27998
1.27827
1.27658
1.272
1.26059
1.25147
1.2479
1.24568
1.24389
1.24204
1.24
1.23943
1.23295
2.04755
4.28983
4.94394
4.93753
4.90768
4.87056
4.80814
4.73948
4.67459
4.61957
4.57553
4.53744
4.503
4.47511
4.45578
4.44197
4.42126
4.38055
4.31847
4.24532
4.17055
4.0977
4.0326
3.9835
3.95972
3.97238
3.98193
3.9463
3.888
3.80492
3.68556
3.57758
3.51997
3.4927
3.49678
3.50561
3.48059
3.43332
3.37022
3.2765
3.16687
3.06613
3.75999
3.14135
2.61872
2.13121
1.83736
1.63478
1.42228
1.32515
1.29806
1.27063
1.27755
1.31405
1.34173
1.36116
1.37258
1.37229
1.35738
1.33966
1.33231
1.32424
1.31719
1.3119
1.30792
1.29832
1.2875
1.28481
1.28488
1.28604
1.28771
1.28644
1.28346
1.27896
1.26965
1.25371
1.24699
1.2461
1.24625
1.2463
1.24562
1.24438
1.24163
1.22998
1.43358
3.97371
5.38434
5.25165
5.10289
4.97936
4.86331
4.77195
4.70212
4.64601
4.60079
4.55653
4.50457
4.44928
4.39997
4.36372
4.34161
4.3224
4.29147
4.24555
4.19172
4.12905
4.05625
3.98658
3.93892
3.92257
3.92335
3.88311
3.83693
3.78698
3.71921
3.63012
3.54871
3.49804
3.46601
3.43833
3.40005
3.3607
3.32053
3.27307
3.21986
3.12768
3.98851
3.4964
2.99005
2.49453
2.14672
1.91798
1.67686
1.48542
1.42581
1.35574
1.29905
1.29545
1.30477
1.30393
1.30619
1.31616
1.33529
1.3539
1.36209
1.35783
1.34762
1.3305
1.31008
1.28791
1.27712
1.27552
1.27607
1.28193
1.29144
1.29394
1.2911
1.28405
1.26965
1.25144
1.24423
1.2426
1.24186
1.24256
1.24428
1.24446
1.2411
1.22802
1.23907
3.303
5.85213
5.65339
5.26542
5.05589
4.92798
4.82228
4.73287
4.66087
4.60388
4.55725
4.50469
4.4411
4.3777
4.32429
4.28687
4.26498
4.25063
4.22924
4.18696
4.13119
4.06562
3.98422
3.91622
3.87368
3.85221
3.83015
3.79558
3.75856
3.71417
3.65431
3.57425
3.49023
3.431
3.39114
3.35854
3.32848
3.29773
3.26566
3.23528
3.15837
4.15617
3.75074
3.31612
2.85634
2.46148
2.18966
1.93068
1.70131
1.58991
1.48943
1.36431
1.29893
1.29946
1.27806
1.26957
1.28062
1.30624
1.32531
1.33471
1.34726
1.34897
1.34446
1.32862
1.30541
1.29105
1.28202
1.27644
1.27778
1.28335
1.28581
1.2835
1.27521
1.26257
1.25251
1.24936
1.24795
1.24733
1.24753
1.24767
1.24558
1.23771
1.22758
1.25862
2.61171
6.17502
6.32608
5.551
5.08327
4.89858
4.79856
4.71686
4.65492
4.60024
4.55345
4.49493
4.42317
4.35147
4.29025
4.24927
4.22606
4.21535
4.2007
4.16896
4.12517
4.07567
4.00894
3.92509
3.85324
3.80964
3.77896
3.75266
3.72345
3.69179
3.65251
3.59813
3.5207
3.42811
3.36106
3.32508
3.29658
3.27303
3.24604
3.21875
3.15188
4.2784
3.95947
3.57599
3.13465
2.76455
2.48951
2.20261
1.92775
1.78215
1.66093
1.51502
1.40466
1.37823
1.32887
1.28488
1.27974
1.28901
1.29211
1.29377
1.30554
1.3171
1.32673
1.33232
1.33079
1.3242
1.31311
1.30003
1.2874
1.28084
1.27553
1.26805
1.25763
1.25203
1.25211
1.25363
1.25691
1.25926
1.25692
1.25261
1.24523
1.23189
1.25714
1.51231
2.29046
5.28115
6.64983
5.98336
5.3899
4.99673
4.80098
4.665
4.59665
4.54694
4.50554
4.45348
4.39624
4.33409
4.26416
4.20642
4.16359
4.13114
4.10724
4.08673
4.06149
4.02812
3.98735
3.93122
3.85664
3.77727
3.72402
3.69522
3.67307
3.64716
3.61498
3.57822
3.52849
3.45501
3.36311
3.2946
3.25914
3.23114
3.20477
3.17746
3.12112
4.3691
4.10591
3.78511
3.41195
3.02833
2.73667
2.4543
2.18367
2.00868
1.86237
1.67192
1.52624
1.47735
1.41653
1.34065
1.29013
1.28924
1.28175
1.27351
1.277
1.29182
1.30384
1.30819
1.31302
1.32225
1.32263
1.31765
1.30731
1.29331
1.27914
1.26578
1.25277
1.24835
1.24877
1.25179
1.25792
1.26309
1.26041
1.25406
1.24373
1.25506
1.50418
2.38993
2.75236
3.70028
5.61958
5.85998
5.59193
5.24307
4.95928
4.70965
4.56154
4.47386
4.42526
4.38127
4.34182
4.30655
4.2631
4.20428
4.1295
4.05573
4.00708
3.97776
3.95753
3.94697
3.93595
3.90815
3.86342
3.78962
3.69244
3.62941
3.60115
3.57827
3.55622
3.52823
3.49595
3.45264
3.3852
3.29472
3.2224
3.18532
3.15762
3.13132
3.08356
4.44008
4.23754
3.9583
3.61196
3.27372
2.99183
2.7001
2.40576
2.21461
2.0574
1.87925
1.70264
1.61391
1.53398
1.4303
1.35247
1.34729
1.32431
1.28986
1.27682
1.27841
1.27972
1.27995
1.28393
1.29628
1.30657
1.31061
1.30932
1.30329
1.29149
1.27731
1.26547
1.25761
1.25242
1.25189
1.25302
1.25309
1.24974
1.24783
1.26986
1.47761
2.2694
3.1548
3.20971
3.22917
3.85638
4.84464
5.32896
5.30148
5.13355
4.91124
4.67295
4.472
4.35579
4.29597
4.25703
4.23367
4.22594
4.19284
4.12889
4.04048
3.94227
3.88633
3.86084
3.85007
3.85888
3.86229
3.83475
3.789
3.71018
3.60059
3.53261
3.50445
3.48185
3.46381
3.44189
3.41388
3.37606
3.31303
3.22253
3.15141
3.11341
3.0907
3.04998
4.49837
4.34005
4.10901
3.8132
3.48292
3.19947
2.92174
2.63867
2.43068
2.25962
2.05329
1.87039
1.77289
1.68991
1.56857
1.44171
1.41244
1.37292
1.31794
1.27992
1.27587
1.27435
1.26716
1.26924
1.27931
1.29121
1.2931
1.29151
1.2935
1.2947
1.29201
1.28702
1.27911
1.27019
1.26194
1.25297
1.24132
1.24041
1.26673
1.52884
2.27463
3.10719
3.3174
3.2835
3.1962
3.16629
3.49498
4.29278
4.85767
5.05725
5.0193
4.8359
4.60386
4.35988
4.22844
4.17091
4.14701
4.14482
4.14548
4.10845
4.03996
3.93776
3.83692
3.78861
3.76907
3.77101
3.78868
3.78088
3.75216
3.70607
3.62108
3.51111
3.45108
3.42581
3.40628
3.38858
3.36667
3.34084
3.30556
3.24445
3.15644
3.08282
3.05481
3.01484
4.5068
4.42458
4.23879
3.97613
3.68424
3.40601
3.13105
2.84813
2.62543
2.4454
2.25397
2.0583
1.92843
1.83082
1.70564
1.57798
1.5239
1.4706
1.38927
1.31049
1.30645
1.30109
1.27789
1.27161
1.27292
1.27668
1.27457
1.27039
1.27258
1.28116
1.29185
1.29518
1.29161
1.28407
1.27275
1.25551
1.24458
1.26659
1.57627
2.3587
3.12189
3.39055
3.35283
3.28083
3.15969
3.0996
3.05159
3.2264
3.79831
4.45668
4.73379
4.76631
4.67872
4.44562
4.26214
4.15871
4.09097
4.06681
4.06279
4.04418
4.00445
3.93169
3.82715
3.74294
3.70803
3.69864
3.7058
3.70303
3.68312
3.65588
3.60944
3.5249
3.42806
3.38251
3.36161
3.34354
3.32192
3.29864
3.27307
3.23787
3.17669
3.09034
3.0291
2.97429
4.45312
4.4759
4.35
4.12812
3.85892
3.59452
3.32584
3.04984
2.82317
2.63714
2.42837
2.22534
2.10226
1.99431
1.85702
1.70331
1.63927
1.57801
1.49072
1.39366
1.36349
1.34144
1.29792
1.2667
1.26195
1.26673
1.26226
1.25629
1.25866
1.27077
1.2804
1.28663
1.29098
1.2887
1.28158
1.26564
1.28077
1.54738
2.50085
3.14669
3.46386
3.445
3.3267
3.19887
3.08599
3.01974
2.99025
2.96324
3.0613
3.42313
3.93139
4.2992
4.43598
4.40079
4.30769
4.1987
4.11948
4.05462
3.98971
3.94417
3.91236
3.86696
3.8028
3.7291
3.66559
3.64073
3.63104
3.61621
3.59623
3.57387
3.54726
3.50537
3.43224
3.35557
3.31906
3.29717
3.27497
3.25282
3.22951
3.20302
3.16405
3.10243
3.02582
2.93796
4.29451
4.47324
4.43426
4.26757
4.02904
3.76681
3.50867
3.25034
3.00806
2.81216
2.61408
2.41288
2.25751
2.14292
2.00241
1.85133
1.77174
1.69994
1.59813
1.47711
1.44353
1.41687
1.36834
1.30626
1.2848
1.28528
1.26832
1.25153
1.25112
1.25951
1.26301
1.26437
1.267
1.27188
1.27995
1.3149
1.57747
2.52129
3.30285
3.45383
3.44298
3.39975
3.27487
3.14016
3.03943
2.98446
2.94795
2.92099
2.90264
2.91201
3.03566
3.3214
3.72465
4.03511
4.11885
4.12588
4.13553
4.07562
3.98567
3.8959
3.8251
3.76685
3.73112
3.6963
3.64277
3.58957
3.55042
3.52932
3.51031
3.49014
3.4698
3.44593
3.40854
3.34499
3.27508
3.23697
3.2149
3.19517
3.17496
3.15314
3.12486
3.08566
3.02563
2.91541
4.08715
4.36047
4.44362
4.35907
4.17322
3.94194
3.69163
3.41886
3.19361
2.99442
2.77832
2.57332
2.43655
2.29784
2.14633
1.9872
1.90668
1.82706
1.72246
1.60072
1.53122
1.49686
1.44098
1.36659
1.33549
1.32655
1.29825
1.26381
1.24567
1.24408
1.24224
1.24123
1.24246
1.25201
1.30807
1.68675
2.49675
3.43248
3.52242
3.47704
3.41719
3.35022
3.2655
3.17041
3.08406
3.00825
2.9498
2.89074
2.83009
2.78428
2.75567
2.77287
2.89933
3.2121
3.56819
3.82863
3.89416
3.93146
3.91769
3.85005
3.78411
3.72275
3.68317
3.64167
3.59998
3.5395
3.46523
3.4311
3.41448
3.40095
3.39142
3.37741
3.35365
3.31443
3.23981
3.16735
3.14405
3.12672
3.10804
3.08999
3.06948
3.04541
3.0083
2.90451
3.93473
4.19222
4.39451
4.41674
4.29254
4.08216
3.85851
3.61559
3.37524
3.16759
2.94431
2.73429
2.58502
2.46468
2.29806
2.13365
2.04472
1.96279
1.85469
1.70803
1.64708
1.60238
1.5403
1.44348
1.3875
1.38104
1.35059
1.30263
1.26948
1.26284
1.25176
1.23915
1.24345
1.29403
1.70271
2.65489
3.42315
3.59214
3.49565
3.3781
3.31507
3.26885
3.24303
3.20626
3.12933
3.03578
2.94771
2.86091
2.7747
2.71444
2.67479
2.65851
2.64864
2.68155
2.81616
3.08202
3.34315
3.56194
3.67413
3.67115
3.68089
3.7045
3.6704
3.62004
3.57106
3.49625
3.39099
3.32827
3.31129
3.30297
3.30439
3.30533
3.28882
3.26285
3.20972
3.11704
3.0653
3.05024
3.03902
3.02486
3.00963
2.99144
2.96759
2.88853
3.89238
4.00226
4.25947
4.41965
4.38854
4.23405
4.01943
3.76767
3.55253
3.3562
3.13354
2.90145
2.73561
2.60476
2.44569
2.28465
2.18024
2.09585
1.98128
1.84494
1.75884
1.70556
1.63603
1.53534
1.471
1.45064
1.41309
1.34714
1.30039
1.28668
1.27166
1.26166
1.31696
1.70142
2.81206
3.4647
3.61716
3.52465
3.37393
3.27672
3.23514
3.21469
3.2154
3.1832
3.10725
3.01219
2.92124
2.83382
2.75425
2.70895
2.66614
2.62366
2.57028
2.54013
2.51498
2.53328
2.62667
2.80777
3.0651
3.28527
3.43506
3.50767
3.56786
3.57565
3.53952
3.45573
3.3468
3.24951
3.21609
3.20497
3.21051
3.22564
3.21802
3.199
3.16464
3.08918
3.00795
2.99159
2.98058
2.96118
2.94604
2.93281
2.91843
2.86787
3.88313
3.94922
4.11401
4.32792
4.40286
4.33375
4.16889
3.92553
3.70636
3.51109
3.29974
3.08629
2.92438
2.76499
2.57534
2.40555
2.32428
2.22841
2.10409
1.95678
1.89136
1.82891
1.74556
1.62898
1.55894
1.53651
1.49023
1.42458
1.36696
1.32867
1.31333
1.38211
1.83521
2.83821
3.70448
3.67935
3.58347
3.43732
3.3001
3.23911
3.21142
3.20321
3.16084
3.09528
3.02263
2.94418
2.88749
2.82836
2.76673
2.71127
2.64883
2.58313
2.51492
2.46981
2.43116
2.41249
2.38581
2.37886
2.44617
2.61772
2.85922
3.07533
3.26905
3.3829
3.40073
3.38471
3.32046
3.22288
3.14277
3.11997
3.11796
3.1323
3.14926
3.13679
3.11167
3.06508
2.9728
2.88946
2.87237
2.86975
2.89809
2.90115
2.88543
2.83766
3.74888
3.83878
3.97715
4.19093
4.37013
4.39419
4.30137
4.09108
3.86002
3.67139
3.45468
3.24834
3.08907
2.93315
2.73319
2.5526
2.44959
2.35309
2.22594
2.08112
2.00895
1.94659
1.86349
1.73041
1.6651
1.62892
1.58011
1.50122
1.43132
1.41312
1.48956
2.035
3.05744
3.80319
3.78666
3.64871
3.50318
3.37488
3.28807
3.22884
3.18395
3.13738
3.06767
3.00075
2.93493
2.88579
2.86195
2.82587
2.76666
2.69425
2.60634
2.51422
2.46359
2.43468
2.40451
2.37369
2.32888
2.29962
2.24461
2.22055
2.27185
2.42201
2.64672
2.88729
3.10445
3.20021
3.19103
3.16005
3.10277
3.07525
3.06775
3.05918
3.05466
3.04563
3.02931
2.99694
2.93081
2.83072
2.78956
2.78593
2.78705
2.79903
2.79286
2.76613
3.38898
3.68293
3.9124
4.09903
4.2561
4.37685
4.38671
4.26476
4.04763
3.84423
3.61741
3.39908
3.25
3.08944
2.88528
2.69355
2.59935
2.49149
2.35468
2.20352
2.13107
2.06756
1.97325
1.84214
1.76631
1.72942
1.66939
1.58858
1.54781
1.66569
2.3109
3.40534
3.94219
3.99122
3.85963
3.67323
3.53469
3.44277
3.34782
3.23942
3.1475
3.06616
2.9823
2.90772
2.8606
2.83347
2.80834
2.76463
2.71115
2.63518
2.52633
2.45441
2.42015
2.40185
2.39148
2.36099
2.31966
2.26307
2.18991
2.10925
2.05974
2.06903
2.12846
2.26423
2.49661
2.74036
2.899
2.97989
2.99323
2.95329
2.94465
2.9644
2.98178
2.97399
2.96326
2.93716
2.88633
2.80838
2.73098
2.71142
2.70792
2.7108
2.73486
2.7279
2.165
3.06238
3.80039
4.00349
4.06457
4.26782
4.35709
4.31542
4.17144
3.98606
3.76856
3.5547
3.40835
3.26483
3.03477
2.83472
2.73268
2.61848
2.48329
2.33791
2.27288
2.19024
2.08617
1.94121
1.86597
1.82368
1.74898
1.73297
1.94031
2.77554
3.91716
4.31643
4.20573
4.0511
3.87913
3.72181
3.6175
3.51839
3.39914
3.26957
3.14644
3.03897
2.94418
2.86694
2.81416
2.77922
2.73659
2.68527
2.62998
2.55049
2.45418
2.39931
2.38258
2.36797
2.33824
2.29938
2.26214
2.21881
2.14996
2.0617
2.00194
1.99131
1.9859
1.99087
2.0319
2.15641
2.34686
2.52398
2.67782
2.74542
2.77782
2.80708
2.84143
2.86825
2.86336
2.85595
2.8391
2.78317
2.69828
2.64209
2.63498
2.63359
2.65009
2.64084
1.19696
1.77078
2.99385
3.69804
3.87164
4.15471
4.33472
4.34356
4.26262
4.13029
3.94143
3.70101
3.53413
3.40731
3.2092
3.01391
2.88386
2.7612
2.59154
2.45056
2.39112
2.31595
2.20874
2.0626
1.97565
1.90324
1.92868
2.27133
3.3969
4.49247
4.73301
4.59306
4.35205
4.12995
3.95229
3.80835
3.68915
3.57345
3.45077
3.3225
3.19253
3.06958
2.96568
2.88016
2.81017
2.75191
2.69315
2.63167
2.56876
2.49257
2.41304
2.37194
2.33957
2.30779
2.27444
2.24957
2.22436
2.18755
2.13142
2.05109
1.98355
1.94733
1.92813
1.91652
1.90588
1.89844
1.9306
2.01575
2.13353
2.27793
2.43287
2.54455
2.63886
2.72214
2.76843
2.77304
2.76582
2.74134
2.67516
2.58807
2.56135
2.56408
2.57732
2.57391
1.0078
1.09102
1.59019
2.81574
3.48389
3.90779
4.23311
4.35519
4.39078
4.28003
4.09944
3.88762
3.7224
3.5634
3.34084
3.14909
3.03807
2.9189
2.73429
2.5857
2.51108
2.42873
2.30997
2.1869
2.08988
2.16494
2.71923
3.97202
5.14505
5.20304
4.99611
4.70402
4.44668
4.23656
4.06257
3.90983
3.77399
3.64835
3.52547
3.39768
3.25884
3.11449
2.98331
2.88065
2.80634
2.74243
2.67804
2.60709
2.53443
2.46956
2.41109
2.34262
2.26585
2.22045
2.19376
2.17079
2.14297
2.11148
2.08332
2.04533
1.97814
1.90653
1.87672
1.85859
1.8378
1.81422
1.8038
1.80675
1.82289
1.86181
1.9387
2.0922
2.26912
2.42237
2.56341
2.64809
2.66026
2.65586
2.61957
2.54171
2.49268
2.48817
2.4968
2.50761
1.00006
1.00286
1.05145
1.50969
2.43382
3.29095
4.09567
4.30055
4.29535
4.26614
4.2188
4.08399
3.88636
3.70034
3.49916
3.2892
3.17397
3.04961
2.85632
2.71591
2.64609
2.54711
2.43026
2.33019
2.49274
3.38328
4.69092
5.65502
5.71354
5.50156
5.1642
4.83148
4.55717
4.34122
4.16127
4.00778
3.86982
3.73978
3.6132
3.48372
3.34213
3.18805
3.0386
2.91644
2.82359
2.74343
2.66593
2.59076
2.52838
2.46976
2.3998
2.32069
2.2272
2.16482
2.13235
2.1033
2.07889
2.06124
2.04087
2.00787
1.95133
1.87384
1.82767
1.80342
1.77926
1.76163
1.752
1.74543
1.73778
1.71663
1.69026
1.70296
1.79289
1.9458
2.1409
2.34105
2.4792
2.54127
2.5433
2.50678
2.45022
2.42421
2.41974
2.42793
1
1.00002
1.00124
1.03956
1.3289
1.96271
3.33421
4.03882
4.16229
4.2663
4.27208
4.1634
3.98445
3.82214
3.65069
3.43602
3.31685
3.18491
2.99704
2.8467
2.75156
2.65132
2.64638
3.02109
4.3102
5.66517
6.12558
6.06499
5.80523
5.51193
5.23546
4.97684
4.71497
4.47238
4.27732
4.11951
3.97448
3.83008
3.68385
3.53681
3.38959
3.23978
3.09044
2.96052
2.86412
2.78586
2.70688
2.62649
2.55524
2.47975
2.38983
2.29238
2.19948
2.14234
2.09933
2.05971
2.0363
2.02078
2.00059
1.97255
1.92166
1.84149
1.78051
1.75246
1.73532
1.71722
1.70377
1.69655
1.68793
1.67113
1.6313
1.56435
1.55247
1.58702
1.682
1.85459
2.06279
2.23731
2.38655
2.42635
2.41523
2.37675
2.35266
2.3455
1
1
1.00001
1.00071
1.01831
1.13045
1.82853
3.17801
3.8092
4.20051
4.34221
4.2885
4.16979
4.00938
3.80005
3.61264
3.47063
3.32196
3.11058
2.98205
2.8817
2.9885
3.74848
5.37883
6.70653
6.78233
6.57135
6.21415
5.8628
5.55892
5.31275
5.08898
4.85241
4.61362
4.40463
4.22969
4.07279
3.92037
3.76263
3.5981
3.43495
3.28062
3.13589
3.00164
2.88484
2.79911
2.73454
2.67332
2.60627
2.52281
2.41764
2.29491
2.18144
2.12105
2.08521
2.0514
2.02439
1.99928
1.97002
1.93128
1.87066
1.79915
1.75013
1.7146
1.68856
1.66455
1.64745
1.642
1.63557
1.61796
1.58462
1.53512
1.48573
1.47688
1.48389
1.51921
1.62222
1.78272
1.99612
2.12422
2.23053
2.31653
2.29879
2.28785
1
1
1
1
1.0002
1.00449
1.08702
1.78421
2.8063
3.77824
4.29522
4.31188
4.23242
4.12029
3.96982
3.8064
3.61499
3.42483
3.24569
3.15302
3.4398
4.7885
6.69401
7.45089
7.34605
6.97445
6.6339
6.31555
5.99923
5.70469
5.44578
5.20101
4.95531
4.71883
4.50543
4.3142
4.13688
3.96945
3.80765
3.64669
3.48774
3.33815
3.19978
3.06547
2.93949
2.83251
2.74124
2.65702
2.57859
2.50926
2.44163
2.34899
2.21844
2.11478
2.08139
2.06488
2.03757
1.99349
1.94795
1.90154
1.8373
1.7691
1.72606
1.68885
1.65628
1.62465
1.59952
1.59267
1.58418
1.56614
1.54155
1.51047
1.46994
1.44316
1.42812
1.42286
1.43236
1.46835
1.55996
1.70983
1.8491
2.00131
2.12697
2.22105
1
1
1
1
1
1.00004
1.00263
1.09018
1.49767
2.41887
3.89464
4.18585
4.2163
4.17433
4.09627
3.90725
3.69272
3.52369
3.48408
4.13442
6.09803
7.94434
8.33251
8.19212
7.67397
7.11474
6.71362
6.41351
6.13136
5.84791
5.56595
5.2896
5.0263
4.78469
4.568
4.37163
4.18624
4.00942
3.8453
3.69897
3.55907
3.40283
3.23965
3.10773
2.99697
2.87812
2.76701
2.68195
2.60763
2.53275
2.45093
2.34991
2.23802
2.1558
2.09095
2.02909
1.9768
1.9344
1.89851
1.86158
1.81144
1.76575
1.73167
1.68727
1.63711
1.58655
1.55579
1.54812
1.53781
1.52007
1.50285
1.48498
1.46043
1.42459
1.38734
1.36676
1.3621
1.36337
1.37241
1.41293
1.49669
1.61205
1.75911
1.99137
1
1
1
1
1
1
1.00003
1.00242
1.034
1.24537
2.50251
3.61988
4.08596
4.26341
4.18614
4.05263
3.82535
3.87724
4.94971
7.80951
8.99986
8.91681
8.62087
8.21686
7.75908
7.27087
6.83074
6.47983
6.18613
5.91859
5.6552
5.38971
5.12791
4.87092
4.61982
4.39178
4.2064
4.05664
3.92281
3.79183
3.6543
3.50304
3.33556
3.15564
3.00532
2.91968
2.85084
2.77182
2.69124
2.60121
2.49887
2.39687
2.29589
2.19305
2.09606
2.01854
1.96013
1.91235
1.86908
1.83062
1.79836
1.77425
1.74216
1.68733
1.62034
1.55308
1.52094
1.51131
1.49864
1.48158
1.4651
1.44559
1.42583
1.39682
1.35181
1.33462
1.33096
1.33038
1.33093
1.3315
1.34316
1.37701
1.43258
1.6294
1
1
1
1
1
1
1
1.00001
1.00046
1.01122
1.27787
2.34803
3.33877
4.1408
4.18854
4.11594
4.20079
5.97697
9.0695
10.3622
10.093
9.31431
8.63318
8.16821
7.7935
7.3826
6.94265
6.55147
6.22658
5.94725
5.69221
5.44834
5.20683
4.95733
4.69637
4.4464
4.2395
4.06894
3.91614
3.76847
3.62648
3.50121
3.3737
3.21906
3.06741
2.92424
2.80628
2.71093
2.61969
2.54474
2.46655
2.3857
2.31443
2.23726
2.14417
2.04849
1.96902
1.91411
1.87256
1.83597
1.80212
1.77082
1.73218
1.6748
1.60503
1.53697
1.50687
1.49655
1.48161
1.46345
1.44574
1.42712
1.41278
1.38508
1.33184
1.30864
1.30464
1.3025
1.29803
1.29202
1.29273
1.29672
1.29816
1.34993
1
1
1
1
1
1
1
1
1
1.00017
1.01498
1.2464
1.85684
3.18943
3.9051
4.57736
6.81445
10.5014
10.9736
10.237
9.86285
9.39335
8.81741
8.28111
7.84192
7.4268
7.01423
6.62383
6.2863
5.99936
5.74649
5.50984
5.26841
5.01082
4.75911
4.5295
4.2992
4.08769
3.9187
3.78258
3.65875
3.52716
3.40699
3.30567
3.16286
2.98504
2.82073
2.70609
2.60114
2.52675
2.4902
2.45415
2.4052
2.33439
2.23202
2.11116
2.01616
1.96159
1.91967
1.87889
1.84017
1.80364
1.75872
1.69784
1.62263
1.55326
1.52749
1.51328
1.49423
1.47277
1.45312
1.43771
1.421
1.38272
1.32176
1.29626
1.29295
1.29031
1.28569
1.28142
1.27913
1.27602
1.26995
1.27103
1
1
1
1
1
1
1
1
1
1
1.00022
1.01057
1.08673
1.78788
4.1385
7.31428
12.4267
15.7226
12.8094
10.4629
9.60484
9.30048
8.88569
8.38213
7.8879
7.42948
6.99704
6.6142
6.29376
6.01063
5.7512
5.51334
5.29108
5.0654
4.80519
4.50842
4.2448
4.04295
3.88395
3.75207
3.63897
3.53508
3.42141
3.27013
3.09469
2.92249
2.78115
2.6674
2.58807
2.53319
2.47589
2.41576
2.35504
2.27649
2.16616
2.04187
1.95401
1.90678
1.86702
1.82369
1.78361
1.74983
1.70787
1.64286
1.55784
1.49566
1.48246
1.47242
1.45508
1.4332
1.41474
1.40472
1.38986
1.34662
1.28795
1.27111
1.269
1.26746
1.2657
1.26461
1.2629
1.25963
1.2537
1.2399
)
;

boundaryField
{
    inlet
    {
        type            fixedValue;
        value           uniform 1;
    }
    outlet
    {
        type            zeroGradient;
    }
    bottom
    {
        type            zeroGradient;
    }
    top
    {
        type            zeroGradient;
    }
    obstacle
    {
        type            zeroGradient;
    }
    defaultFaces
    {
        type            empty;
    }
}


// ************************************************************************* //
