/*--------------------------------*- C++ -*----------------------------------*\
  =========                 |
  \\      /  F ield         | OpenFOAM: The Open Source CFD Toolbox
   \\    /   O peration     | Website:  https://openfoam.org
    \\  /    A nd           | Version:  7
     \\/     M anipulation  |
\*---------------------------------------------------------------------------*/
FoamFile
{
    version     2.0;
    format      ascii;
    class       volScalarField;
    location    "3.2";
    object      rho;
}
// * * * * * * * * * * * * * * * * * * * * * * * * * * * * * * * * * * * * * //

dimensions      [1 -3 0 0 0 0 0];

internalField   nonuniform List<scalar> 
16512
(
2.8816
2.87699
2.8665
2.85232
2.84311
2.83917
2.84005
2.8494
2.86547
2.88215
2.89114
2.8915
2.88812
2.87974
2.86425
2.84708
2.83645
2.83214
2.83365
2.84697
2.86802
2.87921
2.87946
2.87785
2.87488
2.87009
2.86608
2.86312
2.85978
2.85705
2.85368
2.84836
2.84325
2.84002
2.83844
2.8411
2.85037
2.863
2.87037
2.86951
2.86582
2.85966
2.85376
2.85016
2.84746
2.84882
2.85891
2.86856
2.86723
2.8624
2.8552
2.84765
2.84186
2.83729
2.8336
2.83134
2.83116
2.83242
2.83362
2.83418
2.83434
2.83464
2.83592
2.83859
2.84174
2.84386
2.84387
2.84143
2.83794
2.83458
2.83189
2.83011
2.83016
2.82966
2.82519
2.81927
2.81193
2.80505
2.80075
2.7985
2.80109
2.8101
2.82043
2.82723
2.83039
2.83142
2.83093
2.82916
2.82579
2.82074
2.81494
2.80966
2.80555
2.80068
2.79612
2.79108
2.78585
2.78185
2.7789
2.77664
2.77548
2.77601
2.77899
2.78342
2.78717
2.78928
2.78981
2.78857
2.78623
2.78333
2.78071
2.77959
2.78013
2.77944
2.77641
2.77378
2.77228
2.76998
2.76609
2.75885
2.74836
2.74002
2.73606
2.73408
2.73518
2.74226
2.75155
2.75467
2.75202
2.74693
2.73729
2.72242
2.7068
2.69639
2.69281
2.69463
2.70271
2.71281
2.72069
2.72548
2.72798
2.72919
2.72889
2.72702
2.72378
2.72008
2.7144
2.70496
2.69059
2.67212
2.65519
2.64597
2.64262
2.64249
2.64624
2.65253
2.66152
2.67373
2.68612
2.69382
2.69539
2.69371
2.68887
2.67634
2.65344
2.62775
2.6099
2.60144
2.59797
2.59655
2.59819
2.60369
2.61291
2.62476
2.63536
2.64444
2.65359
2.65986
2.65987
2.65517
2.64468
2.62784
2.60874
2.59118
2.57824
2.57038
2.56803
2.56833
2.57327
2.58188
2.58753
2.58907
2.58797
2.58484
2.5768
2.56295
2.54901
2.53937
2.53521
2.5371
2.54687
2.55623
2.56001
2.56473
2.56794
2.56578
2.55817
2.54734
2.53202
2.51043
2.48551
2.46805
2.46269
2.46303
2.47077
2.48593
2.50421
2.52246
2.53545
2.5404
2.54068
2.53895
2.53398
2.51732
2.48245
2.4464
2.4274
2.41913
2.41331
2.41
2.41082
2.42104
2.4437
2.46839
2.48918
2.5007
2.50155
2.49651
2.47999
2.44854
2.42021
2.40828
2.40391
2.40338
2.40938
2.42523
2.43414
2.43351
2.42958
2.42294
2.40905
2.38756
2.36724
2.35618
2.35326
2.35548
2.36641
2.38866
2.89183
2.88958
2.88289
2.86877
2.85333
2.84518
2.84306
2.84832
2.86303
2.87888
2.88817
2.8909
2.8901
2.88681
2.8791
2.86733
2.85603
2.84908
2.84758
2.85503
2.86995
2.87841
2.87788
2.87566
2.87271
2.87138
2.8723
2.87623
2.88169
2.88322
2.87924
2.87113
2.86075
2.85354
2.8501
2.85027
2.85973
2.87547
2.88268
2.88055
2.87634
2.86942
2.86258
2.85845
2.85547
2.85626
2.8662
2.87869
2.87989
2.8756
2.86914
2.86206
2.85658
2.85214
2.84888
2.84742
2.84759
2.84799
2.84747
2.84633
2.84573
2.84708
2.85147
2.85821
2.86372
2.86357
2.85954
2.85403
2.84908
2.84519
2.84208
2.84016
2.84102
2.84448
2.84322
2.83852
2.8316
2.82363
2.81773
2.81473
2.81496
2.81967
2.82689
2.83319
2.83706
2.83924
2.84101
2.84333
2.84606
2.84774
2.84605
2.84109
2.83331
2.8231
2.81144
2.7998
2.79009
2.78347
2.77915
2.77615
2.77431
2.77472
2.77857
2.784
2.78862
2.79218
2.79511
2.79784
2.80087
2.80484
2.8105
2.81471
2.81247
2.80455
2.79256
2.7814
2.77492
2.77014
2.76423
2.75564
2.74603
2.73913
2.73541
2.73313
2.73301
2.7394
2.75079
2.75817
2.75896
2.75692
2.75356
2.7475
2.73871
2.72879
2.71988
2.71465
2.71357
2.71425
2.71526
2.71536
2.71519
2.71504
2.71567
2.71715
2.71866
2.71836
2.71763
2.71554
2.7103
2.69979
2.68417
2.66715
2.65518
2.65087
2.65118
2.65698
2.66777
2.68094
2.6909
2.69472
2.6946
2.6923
2.68747
2.67916
2.66608
2.64921
2.63252
2.61821
2.60756
2.60191
2.59968
2.60116
2.60849
2.62077
2.63604
2.65056
2.66127
2.66608
2.66621
2.6639
2.65808
2.64664
2.62977
2.60941
2.58923
2.57623
2.57163
2.57033
2.57134
2.57394
2.57656
2.57919
2.58044
2.57911
2.57708
2.57389
2.57053
2.56838
2.56752
2.56545
2.56188
2.55896
2.55649
2.55283
2.55011
2.54926
2.5485
2.54487
2.54045
2.53371
2.5215
2.50346
2.48784
2.48154
2.48015
2.48414
2.49435
2.50819
2.52448
2.53866
2.54513
2.54663
2.54539
2.5381
2.51793
2.48317
2.44709
2.42201
2.41087
2.40788
2.40818
2.41639
2.44056
2.47759
2.50088
2.50633
2.50511
2.50227
2.49423
2.47225
2.43994
2.41437
2.40542
2.40424
2.40662
2.41105
2.4177
2.42313
2.4233
2.41912
2.4148
2.40657
2.39306
2.37857
2.36966
2.36814
2.37541
2.38777
2.89392
2.89489
2.8936
2.88792
2.87646
2.86461
2.85864
2.85921
2.8655
2.87384
2.88008
2.88432
2.88662
2.88641
2.88412
2.88048
2.87681
2.87421
2.87376
2.87698
2.88189
2.88376
2.88116
2.87793
2.87511
2.87394
2.87532
2.88212
2.89249
2.89834
2.89589
2.89014
2.88059
2.87218
2.86769
2.86639
2.87199
2.88435
2.89204
2.89043
2.8865
2.88048
2.87378
2.86924
2.86603
2.8653
2.87155
2.88341
2.88877
2.88572
2.88078
2.87546
2.87129
2.86823
2.86687
2.86697
2.86678
2.8649
2.86187
2.85888
2.85762
2.86088
2.8695
2.87899
2.88246
2.87977
2.87517
2.86814
2.86058
2.85542
2.85156
2.84879
2.84894
2.85438
2.85881
2.85714
2.85327
2.84817
2.8431
2.83886
2.83602
2.83499
2.8358
2.83761
2.83923
2.84063
2.84276
2.84623
2.85128
2.85742
2.86208
2.86129
2.85663
2.84854
2.83586
2.81906
2.80258
2.79074
2.78337
2.77878
2.77578
2.77581
2.78062
2.78665
2.79067
2.79342
2.79621
2.80014
2.80632
2.81547
2.82646
2.83303
2.83189
2.82708
2.81768
2.80186
2.78386
2.77028
2.76034
2.75173
2.74506
2.74101
2.73842
2.73629
2.73574
2.74008
2.74886
2.75618
2.75967
2.76108
2.76218
2.76331
2.76397
2.76281
2.75809
2.74803
2.73323
2.72008
2.71358
2.71109
2.70927
2.70748
2.70585
2.705
2.70622
2.71067
2.71504
2.71722
2.71743
2.71466
2.70901
2.69894
2.68589
2.67449
2.67015
2.67189
2.67727
2.6823
2.68524
2.68572
2.68464
2.68293
2.68032
2.6754
2.66787
2.65952
2.65071
2.64112
2.63051
2.62012
2.61273
2.60983
2.61189
2.62301
2.64049
2.65449
2.66111
2.6637
2.66393
2.66176
2.65749
2.65099
2.64211
2.63179
2.61964
2.60451
2.58809
2.57662
2.57192
2.5695
2.56789
2.56644
2.56716
2.57075
2.57637
2.58437
2.59473
2.60464
2.60716
2.60095
2.58479
2.56477
2.55101
2.54125
2.5346
2.53175
2.53253
2.53822
2.54212
2.54248
2.54089
2.5346
2.52162
2.50666
2.49683
2.49291
2.49545
2.50751
2.52095
2.53098
2.54004
2.54442
2.54287
2.53562
2.52341
2.5065
2.48318
2.45475
2.4291
2.41737
2.4159
2.42314
2.44328
2.46524
2.48374
2.49576
2.49987
2.4976
2.49253
2.48534
2.47328
2.45501
2.43224
2.41479
2.40978
2.40852
2.4055
2.40283
2.40368
2.40806
2.41115
2.41188
2.41093
2.41089
2.40953
2.404
2.39618
2.39236
2.89076
2.89391
2.89769
2.89972
2.89749
2.89254
2.88731
2.883
2.87913
2.87622
2.87472
2.87654
2.88001
2.88284
2.88461
2.88625
2.88861
2.89289
2.89929
2.90549
2.90715
2.90279
2.89617
2.88901
2.88443
2.88223
2.88189
2.88566
2.89396
2.90237
2.90468
2.90163
2.8965
2.89135
2.88816
2.88724
2.88977
2.8957
2.90128
2.90057
2.8968
2.89192
2.88638
2.8821
2.87878
2.87714
2.87979
2.8877
2.89463
2.89437
2.89088
2.88749
2.88512
2.88441
2.8855
2.88664
2.88535
2.88193
2.87792
2.87458
2.87434
2.8808
2.89126
2.89755
2.89685
2.89377
2.88922
2.88131
2.87165
2.86468
2.86023
2.85691
2.85664
2.86335
2.87117
2.87318
2.87196
2.86997
2.86772
2.86462
2.86015
2.85513
2.85019
2.84559
2.84207
2.84012
2.84054
2.84326
2.84837
2.85552
2.86294
2.86687
2.86548
2.86141
2.85387
2.84116
2.82512
2.81042
2.79935
2.79133
2.78641
2.78525
2.78851
2.79252
2.7946
2.79588
2.79765
2.80151
2.80895
2.82
2.83099
2.83665
2.83742
2.83546
2.83157
2.82242
2.80402
2.78031
2.76122
2.75098
2.74637
2.74372
2.74178
2.74115
2.74293
2.74714
2.75178
2.75535
2.75835
2.76186
2.76653
2.77247
2.77832
2.78114
2.77987
2.77501
2.76412
2.74703
2.72912
2.71571
2.70817
2.70371
2.70019
2.69809
2.69745
2.69891
2.70388
2.71163
2.71816
2.72328
2.72613
2.72576
2.72197
2.71361
2.70164
2.69156
2.68644
2.68336
2.68204
2.68146
2.67898
2.67563
2.67187
2.66814
2.66511
2.66204
2.65867
2.65492
2.65014
2.64401
2.63712
2.63201
2.63127
2.63748
2.64651
2.65088
2.65148
2.65182
2.65272
2.65326
2.65207
2.64939
2.64691
2.64395
2.63958
2.63178
2.61801
2.59888
2.58074
2.5694
2.56372
2.56097
2.56071
2.56702
2.58208
2.60196
2.61951
2.62769
2.62709
2.62229
2.60724
2.57817
2.55022
2.53596
2.52964
2.5261
2.52516
2.52806
2.53595
2.5434
2.54685
2.5474
2.54411
2.53567
2.52632
2.51938
2.51695
2.52089
2.52714
2.52839
2.52726
2.52674
2.52467
2.52131
2.51644
2.51081
2.5056
2.49503
2.47673
2.4562
2.44531
2.44491
2.45207
2.46179
2.46749
2.47283
2.47979
2.48601
2.48954
2.49117
2.49041
2.48721
2.47621
2.45198
2.42236
2.40453
2.39399
2.387
2.38488
2.38838
2.39932
2.41362
2.42914
2.44572
2.45259
2.44824
2.43267
2.40286
2.88703
2.88915
2.89458
2.90232
2.91004
2.91497
2.91638
2.91314
2.90408
2.89147
2.88277
2.87898
2.87777
2.87998
2.88366
2.88814
2.89399
2.90189
2.91199
2.92289
2.92906
2.92612
2.91987
2.91091
2.90205
2.89683
2.89392
2.89274
2.89508
2.90211
2.90908
2.91115
2.90979
2.90803
2.90743
2.90824
2.90985
2.91159
2.9134
2.91226
2.90835
2.90383
2.89922
2.89546
2.89262
2.89126
2.89242
2.89654
2.90154
2.90351
2.90213
2.90034
2.89956
2.9004
2.90211
2.90231
2.90034
2.89743
2.89468
2.89372
2.89793
2.90766
2.91443
2.91286
2.90942
2.90539
2.89892
2.88911
2.87984
2.87396
2.86982
2.86692
2.86812
2.87561
2.88213
2.88376
2.88312
2.88196
2.88115
2.88065
2.87917
2.87569
2.87044
2.86308
2.85368
2.84524
2.84126
2.84002
2.84251
2.84878
2.85623
2.8619
2.86373
2.86224
2.85849
2.85162
2.84186
2.83177
2.82301
2.81623
2.81185
2.81011
2.80758
2.80355
2.80067
2.79919
2.79957
2.80334
2.81093
2.8209
2.82899
2.83335
2.83519
2.83491
2.83243
2.82741
2.8164
2.79843
2.77904
2.76321
2.75315
2.74819
2.74574
2.74587
2.7502
2.75556
2.75884
2.76096
2.76349
2.76736
2.77276
2.77897
2.78401
2.78662
2.78699
2.7857
2.78228
2.77397
2.76039
2.74263
2.72317
2.7073
2.69865
2.69461
2.69229
2.69166
2.69426
2.70181
2.71419
2.7277
2.73856
2.74512
2.74671
2.7438
2.7342
2.71697
2.70071
2.69154
2.68627
2.68205
2.67728
2.67168
2.66718
2.66454
2.66227
2.66064
2.66016
2.66034
2.66063
2.65997
2.65869
2.65815
2.66038
2.65989
2.65447
2.64954
2.64724
2.64582
2.64369
2.64166
2.64198
2.64517
2.64804
2.64885
2.64742
2.64445
2.63725
2.62242
2.60217
2.58383
2.57262
2.56723
2.56562
2.57415
2.59599
2.61898
2.63063
2.63204
2.62971
2.62374
2.61245
2.59236
2.56815
2.54696
2.53255
2.52641
2.52467
2.5264
2.53191
2.538
2.54426
2.54908
2.55179
2.5525
2.55321
2.55523
2.55362
2.54652
2.53674
2.52934
2.52366
2.5159
2.50687
2.50144
2.50169
2.5072
2.51147
2.51398
2.51214
2.50347
2.48837
2.47163
2.46102
2.45668
2.45455
2.4548
2.45996
2.47052
2.48437
2.49642
2.50376
2.50484
2.50165
2.48701
2.44972
2.40515
2.38363
2.37762
2.37547
2.37687
2.38819
2.4142
2.44935
2.47293
2.47806
2.47559
2.46673
2.4237
2.8879
2.88638
2.88903
2.89751
2.91109
2.92495
2.93373
2.93365
2.92795
2.91649
2.90365
2.89592
2.89136
2.88887
2.89035
2.89502
2.90082
2.90759
2.91638
2.92788
2.93911
2.94313
2.94011
2.93396
2.92427
2.91522
2.90958
2.90556
2.90359
2.90686
2.91489
2.9213
2.92368
2.92422
2.92473
2.92563
2.92642
2.92691
2.92738
2.92538
2.92127
2.91691
2.91295
2.90983
2.90782
2.90721
2.90817
2.91046
2.91392
2.91681
2.9166
2.91505
2.91425
2.91447
2.91442
2.91309
2.91113
2.90958
2.90976
2.91481
2.92604
2.9355
2.9347
2.92974
2.9222
2.9128
2.90205
2.89176
2.88606
2.88288
2.88046
2.88075
2.88643
2.89356
2.89496
2.89276
2.89029
2.88784
2.88621
2.88598
2.88789
2.88964
2.88752
2.88321
2.8761
2.865
2.85299
2.84605
2.84327
2.84307
2.84566
2.84968
2.85508
2.85744
2.85596
2.85294
2.84928
2.8464
2.84454
2.8455
2.84813
2.8467
2.83974
2.8283
2.81586
2.80835
2.80603
2.80646
2.81047
2.81601
2.82071
2.82342
2.82513
2.82635
2.82545
2.8214
2.8156
2.80886
2.79999
2.78857
2.77496
2.7633
2.75742
2.75595
2.75841
2.76339
2.76758
2.77074
2.77384
2.77742
2.78118
2.78412
2.78551
2.78616
2.78677
2.78701
2.78614
2.7836
2.77846
2.76923
2.75298
2.72958
2.70758
2.69528
2.69054
2.68849
2.68934
2.69702
2.7131
2.7325
2.74773
2.7558
2.75815
2.75715
2.75261
2.73979
2.72237
2.70866
2.69867
2.69032
2.6828
2.67575
2.66985
2.66524
2.66149
2.65934
2.65866
2.65985
2.66271
2.66681
2.67319
2.68166
2.68635
2.68288
2.67391
2.66082
2.64898
2.64225
2.63804
2.63577
2.63532
2.63818
2.64451
2.64927
2.64965
2.64748
2.64234
2.63263
2.61949
2.60651
2.59607
2.59001
2.58971
2.59978
2.61677
2.6268
2.62874
2.62832
2.62471
2.61747
2.60583
2.59411
2.58401
2.57375
2.56111
2.547
2.53752
2.53462
2.53345
2.53263
2.53331
2.53901
2.54993
2.5619
2.57548
2.58548
2.5853
2.57853
2.56325
2.54034
2.51959
2.50433
2.49484
2.49052
2.48984
2.49413
2.50845
2.52417
2.53267
2.53226
2.52453
2.50739
2.48141
2.45966
2.45184
2.45091
2.45356
2.46347
2.48232
2.50194
2.51002
2.50908
2.50402
2.49284
2.46814
2.42616
2.38952
2.37473
2.37176
2.37241
2.38466
2.41984
2.46217
2.483
2.48696
2.4859
2.48099
2.44641
2.9
2.89177
2.88983
2.89307
2.90488
2.92304
2.93771
2.9426
2.94049
2.93444
2.92492
2.91821
2.91396
2.9111
2.91134
2.91405
2.91683
2.91938
2.92293
2.92978
2.94077
2.95083
2.95361
2.95035
2.94376
2.93382
2.92551
2.92029
2.91727
2.91889
2.92697
2.93585
2.94039
2.94121
2.94051
2.9392
2.93793
2.93773
2.93937
2.93849
2.93484
2.93088
2.9276
2.92531
2.92411
2.92386
2.92473
2.9272
2.93151
2.9358
2.93547
2.93197
2.92816
2.92539
2.92283
2.92046
2.91856
2.91808
2.92209
2.93391
2.94878
2.95328
2.94974
2.94366
2.93209
2.91523
2.90058
2.89362
2.89049
2.88875
2.89071
2.8991
2.90902
2.91096
2.90734
2.90034
2.89262
2.88823
2.88533
2.88429
2.88803
2.89466
2.89707
2.89528
2.89206
2.88636
2.87643
2.86385
2.85289
2.84622
2.84278
2.84285
2.84349
2.84404
2.84612
2.84812
2.8502
2.85318
2.85922
2.86923
2.87639
2.87524
2.87022
2.86142
2.84785
2.8328
2.82149
2.81566
2.81291
2.81221
2.81432
2.81582
2.81477
2.81239
2.81042
2.8103
2.81128
2.81122
2.80988
2.80662
2.80052
2.79186
2.7832
2.77776
2.77586
2.77657
2.77922
2.78264
2.78648
2.78994
2.79081
2.78909
2.7869
2.78447
2.78216
2.78104
2.78157
2.78223
2.78113
2.77802
2.771
2.7561
2.7341
2.71312
2.70029
2.69484
2.69332
2.70068
2.71992
2.74134
2.75472
2.76062
2.7624
2.76188
2.75935
2.75216
2.74005
2.72705
2.71521
2.70447
2.69483
2.68636
2.67835
2.67011
2.66335
2.65962
2.65763
2.65741
2.66063
2.66892
2.68303
2.69809
2.70261
2.70011
2.69473
2.68351
2.66419
2.64538
2.63762
2.63526
2.63421
2.63605
2.64161
2.6466
2.6473
2.64502
2.6409
2.63524
2.62888
2.62474
2.62262
2.62434
2.63253
2.63856
2.63511
2.62963
2.62536
2.6205
2.61372
2.60446
2.59604
2.59334
2.59271
2.59132
2.58755
2.57833
2.56196
2.54428
2.53474
2.53156
2.53074
2.53355
2.54438
2.56596
2.58916
2.60068
2.6014
2.59852
2.58985
2.56551
2.52755
2.50043
2.48973
2.48661
2.48631
2.48885
2.4968
2.51307
2.53045
2.53858
2.53768
2.5317
2.51734
2.49356
2.46983
2.46007
2.46018
2.46723
2.47607
2.483
2.49165
2.49757
2.49608
2.48635
2.46942
2.44662
2.41844
2.39595
2.38668
2.38581
2.40035
2.4368
2.46843
2.48099
2.48492
2.48353
2.47768
2.45677
2.92704
2.91094
2.90149
2.89872
2.90238
2.9166
2.93324
2.94305
2.94563
2.94336
2.93948
2.93613
2.93396
2.93396
2.93698
2.9403
2.94045
2.93874
2.93724
2.93784
2.94331
2.95268
2.95986
2.96035
2.95632
2.94941
2.94133
2.93579
2.93313
2.93551
2.94482
2.95456
2.95829
2.95692
2.95353
2.94976
2.94668
2.9456
2.94837
2.9505
2.94847
2.9455
2.94312
2.94147
2.94027
2.93941
2.93975
2.94367
2.95106
2.95615
2.95452
2.95001
2.94264
2.93424
2.92925
2.92636
2.92411
2.92401
2.93079
2.94607
2.95936
2.95996
2.95609
2.94984
2.93688
2.91702
2.90224
2.89723
2.89469
2.8948
2.90293
2.91772
2.92535
2.92362
2.91878
2.90908
2.89685
2.88905
2.88527
2.88341
2.88745
2.89667
2.90126
2.9009
2.89925
2.89673
2.8919
2.8837
2.87365
2.86268
2.85266
2.84543
2.84182
2.84088
2.84163
2.84338
2.84745
2.85519
2.86713
2.88064
2.88759
2.88746
2.88505
2.88124
2.87456
2.86404
2.85019
2.83545
2.82318
2.81589
2.81205
2.80954
2.80675
2.80305
2.79939
2.79793
2.80041
2.80665
2.81225
2.81562
2.81708
2.81671
2.81391
2.80887
2.80414
2.80085
2.79946
2.79994
2.80148
2.80155
2.79938
2.79595
2.79019
2.7823
2.77603
2.77265
2.77159
2.77478
2.77801
2.77733
2.77416
2.76738
2.75578
2.74118
2.72765
2.7187
2.71585
2.72147
2.73571
2.7495
2.75625
2.75951
2.76125
2.7607
2.75762
2.75311
2.74713
2.73961
2.73117
2.72155
2.7106
2.69911
2.68766
2.67685
2.66881
2.66409
2.66112
2.6593
2.6614
2.67269
2.69208
2.70798
2.7126
2.71193
2.70964
2.70409
2.68917
2.66417
2.6471
2.64212
2.63999
2.63962
2.64133
2.64181
2.64004
2.63763
2.63563
2.63491
2.63485
2.6375
2.64616
2.66064
2.67035
2.66831
2.65968
2.6442
2.62614
2.61225
2.60269
2.59488
2.59184
2.59279
2.59748
2.60122
2.60063
2.59685
2.58571
2.56461
2.54434
2.53548
2.53291
2.53393
2.54667
2.57199
2.59488
2.60593
2.60824
2.60655
2.6015
2.58717
2.55372
2.51174
2.49193
2.48843
2.48709
2.48745
2.49018
2.49749
2.51265
2.53129
2.54334
2.54627
2.54406
2.53673
2.52019
2.49619
2.47984
2.47641
2.47632
2.47716
2.47522
2.47269
2.47017
2.46685
2.46145
2.45568
2.44712
2.43374
2.42554
2.42598
2.43882
2.45741
2.46393
2.4632
2.46438
2.46733
2.46799
2.45941
2.95061
2.93938
2.92624
2.91844
2.91573
2.91958
2.93055
2.94017
2.94551
2.94847
2.9501
2.9506
2.95122
2.95403
2.95981
2.96518
2.96454
2.96031
2.95626
2.95369
2.95361
2.95718
2.96226
2.96541
2.96492
2.96161
2.95713
2.95309
2.95154
2.95516
2.96464
2.97177
2.97157
2.96818
2.96414
2.96001
2.95654
2.95568
2.95927
2.96248
2.96182
2.95991
2.95774
2.95566
2.95356
2.95187
2.95191
2.95728
2.96706
2.9717
2.96936
2.96492
2.95677
2.94445
2.93496
2.93107
2.9288
2.92852
2.9352
2.94967
2.95964
2.9588
2.95508
2.94873
2.93698
2.92065
2.90896
2.90438
2.90231
2.90491
2.91714
2.93089
2.93329
2.93078
2.92679
2.91879
2.90774
2.89918
2.89415
2.89176
2.89457
2.9013
2.90365
2.90235
2.90055
2.89818
2.89476
2.89101
2.88792
2.88416
2.87855
2.87083
2.86172
2.85288
2.84787
2.84642
2.84913
2.85707
2.86846
2.88069
2.88829
2.89028
2.8897
2.88821
2.88591
2.88221
2.87505
2.86327
2.84797
2.83153
2.81765
2.80818
2.80188
2.79682
2.79385
2.79314
2.7955
2.80122
2.80931
2.81817
2.82551
2.83113
2.83468
2.83535
2.8347
2.83365
2.83109
2.82612
2.81949
2.81299
2.8076
2.80202
2.79357
2.78171
2.77286
2.76894
2.76697
2.76778
2.77104
2.77253
2.77116
2.7687
2.76556
2.76234
2.7596
2.75856
2.75988
2.76269
2.76194
2.75859
2.75633
2.75461
2.75316
2.75143
2.74997
2.74871
2.748
2.74646
2.74327
2.73725
2.72708
2.71267
2.69675
2.6834
2.67491
2.67015
2.66704
2.66558
2.67014
2.68543
2.70514
2.71731
2.72155
2.72218
2.72097
2.71791
2.70828
2.68774
2.66659
2.6545
2.64829
2.64439
2.64113
2.63787
2.63491
2.63272
2.63159
2.63222
2.63751
2.64922
2.66699
2.68072
2.6825
2.67952
2.67439
2.66227
2.64011
2.61478
2.5975
2.59178
2.59054
2.59213
2.59699
2.60077
2.60144
2.60002
2.59525
2.58365
2.56611
2.55175
2.54637
2.54806
2.56154
2.58215
2.59749
2.60577
2.60813
2.60585
2.60073
2.59175
2.57455
2.54492
2.51175
2.49314
2.48721
2.48413
2.48281
2.48526
2.49753
2.51999
2.5437
2.5586
2.56618
2.56808
2.56463
2.55095
2.52243
2.49227
2.47801
2.47042
2.46128
2.45081
2.44412
2.4434
2.4492
2.45841
2.46332
2.46584
2.47108
2.47968
2.47969
2.47126
2.46267
2.45625
2.45121
2.45009
2.45735
2.46484
2.96028
2.95832
2.95276
2.94718
2.94286
2.94096
2.94222
2.94414
2.94665
2.95048
2.95558
2.96096
2.96608
2.97174
2.97814
2.98336
2.98363
2.98001
2.97558
2.97204
2.96959
2.96812
2.96768
2.9681
2.96952
2.97149
2.97198
2.97138
2.97232
2.97637
2.9816
2.98237
2.97928
2.9759
2.97275
2.96999
2.96903
2.97192
2.97582
2.97614
2.97469
2.97248
2.96918
2.96583
2.96289
2.96067
2.96069
2.96712
2.97729
2.98065
2.97813
2.97434
2.96766
2.95571
2.94283
2.93632
2.93355
2.93241
2.937
2.94874
2.95574
2.95424
2.9506
2.94472
2.93585
2.92601
2.9192
2.91572
2.9148
2.91968
2.93148
2.93882
2.9374
2.9345
2.93051
2.92458
2.91799
2.91309
2.90979
2.90856
2.91071
2.91126
2.90826
2.90471
2.90032
2.89566
2.89283
2.89213
2.89367
2.89771
2.90082
2.89964
2.89463
2.8849
2.87175
2.8622
2.85913
2.85934
2.86522
2.87524
2.88355
2.88686
2.88738
2.88703
2.88666
2.88596
2.88382
2.87943
2.87049
2.85662
2.83831
2.81919
2.80526
2.79848
2.79565
2.79451
2.79689
2.80348
2.81245
2.82155
2.82895
2.83519
2.84139
2.84821
2.8548
2.85827
2.85681
2.85169
2.84256
2.8301
2.81814
2.8077
2.79624
2.7836
2.77475
2.77007
2.76661
2.76431
2.76362
2.76408
2.76584
2.76818
2.77168
2.7774
2.78641
2.79756
2.80521
2.80426
2.79545
2.7794
2.76271
2.75297
2.74709
2.74194
2.73918
2.73978
2.7434
2.74619
2.74594
2.74287
2.73635
2.72399
2.70766
2.69322
2.68357
2.67789
2.67504
2.67626
2.68692
2.70561
2.72091
2.72774
2.7301
2.73018
2.72866
2.72505
2.71564
2.69987
2.68321
2.66974
2.65903
2.65018
2.64281
2.63668
2.63263
2.63064
2.63106
2.63663
2.64916
2.66773
2.68321
2.68743
2.68622
2.68389
2.67962
2.67052
2.65391
2.63216
2.61213
2.60024
2.59596
2.59451
2.594
2.59473
2.5967
2.59726
2.59573
2.59296
2.58758
2.58052
2.57666
2.57855
2.58491
2.59011
2.59159
2.59255
2.59596
2.59732
2.59413
2.58711
2.5773
2.56257
2.5383
2.50846
2.48949
2.48247
2.47951
2.48027
2.49073
2.51526
2.54579
2.56897
2.5824
2.58759
2.58752
2.58353
2.56746
2.52985
2.48676
2.46074
2.4462
2.43626
2.43154
2.4306
2.43463
2.44577
2.46617
2.49161
2.51141
2.51574
2.51013
2.49655
2.47527
2.45645
2.44839
2.44506
2.4457
2.45109
2.95685
2.9635
2.96763
2.97069
2.97368
2.97366
2.96817
2.96075
2.95645
2.95511
2.95804
2.96543
2.97512
2.98496
2.99233
2.99621
2.99687
2.99519
2.99242
2.98916
2.98564
2.98207
2.97889
2.97653
2.97568
2.97866
2.9844
2.9893
2.99349
2.99524
2.99231
2.98859
2.98473
2.98163
2.97975
2.98077
2.98717
2.99477
2.99559
2.99218
2.98725
2.98151
2.9761
2.97226
2.96914
2.96696
2.96785
2.97537
2.98408
2.98538
2.98279
2.97944
2.97418
2.96483
2.95263
2.944
2.94007
2.93836
2.94106
2.94934
2.95324
2.95121
2.94771
2.94252
2.93659
2.93252
2.9301
2.92895
2.93054
2.93722
2.94574
2.94633
2.94296
2.93903
2.93436
2.93042
2.92799
2.92667
2.92745
2.9306
2.93133
2.92717
2.92042
2.9116
2.90204
2.89534
2.89242
2.89132
2.89453
2.90278
2.91112
2.91538
2.9156
2.91285
2.90507
2.89215
2.87879
2.87098
2.86859
2.87097
2.87521
2.87712
2.87857
2.88016
2.88135
2.88184
2.88214
2.8822
2.87984
2.87413
2.86362
2.84762
2.8291
2.81471
2.80758
2.80525
2.80658
2.81197
2.81903
2.82576
2.83153
2.83696
2.84364
2.85307
2.86352
2.86882
2.86822
2.86552
2.86062
2.85115
2.83583
2.81795
2.80144
2.78837
2.77967
2.77362
2.76858
2.76439
2.76155
2.76207
2.76565
2.77021
2.77723
2.78918
2.80629
2.82229
2.8286
2.82714
2.82175
2.80973
2.78826
2.76193
2.74315
2.73548
2.73216
2.73062
2.73147
2.73736
2.74163
2.74027
2.73676
2.72957
2.71893
2.70822
2.70033
2.69576
2.69508
2.70175
2.71628
2.73
2.73607
2.73711
2.73607
2.73406
2.73056
2.72378
2.71302
2.70104
2.6899
2.67944
2.66894
2.65866
2.64944
2.64239
2.63792
2.63554
2.63775
2.64899
2.66673
2.68217
2.68742
2.68691
2.68489
2.68118
2.67532
2.66736
2.6583
2.64885
2.63807
2.62401
2.60888
2.59884
2.59435
2.59156
2.58918
2.58859
2.59326
2.6005
2.60837
2.61625
2.62076
2.61756
2.60653
2.5937
2.58821
2.58566
2.58329
2.58232
2.58087
2.5775
2.57137
2.56222
2.54848
2.52581
2.5026
2.48921
2.48414
2.48342
2.49503
2.5243
2.55821
2.58171
2.59375
2.59741
2.59528
2.59076
2.58162
2.55882
2.51583
2.4692
2.44184
2.43136
2.42721
2.4266
2.42998
2.4448
2.47445
2.50445
2.52374
2.52897
2.52643
2.51996
2.50587
2.48203
2.45796
2.44573
2.44104
2.44054
2.9486
2.95864
2.9715
2.98608
2.99837
3.0013
2.99653
2.98602
2.9737
2.96716
2.96468
2.9677
2.97827
2.99145
3.00096
3.00484
3.0055
3.00531
3.00548
3.00412
3.00045
2.99545
2.99103
2.98802
2.98629
2.98786
2.9954
3.00456
3.00827
3.00614
3.00096
2.99408
2.98981
2.98746
2.98752
2.99479
3.00771
3.01438
3.01239
3.00711
2.99806
2.98767
2.98106
2.97752
2.97466
2.97309
2.9758
2.98404
2.98935
2.98822
2.98551
2.98201
2.97709
2.96992
2.96098
2.95343
2.94927
2.94745
2.94923
2.95513
2.95675
2.95431
2.95029
2.94536
2.94264
2.94105
2.94049
2.94179
2.94609
2.95378
2.95941
2.9573
2.95311
2.94759
2.9425
2.93969
2.93814
2.93858
2.9421
2.94587
2.94467
2.9408
2.9345
2.92388
2.91122
2.90266
2.89854
2.89653
2.89836
2.90574
2.91415
2.92006
2.92332
2.92415
2.92221
2.91724
2.90801
2.897
2.88664
2.87913
2.87557
2.8743
2.87361
2.87189
2.86971
2.86934
2.87226
2.87706
2.88068
2.88131
2.87858
2.87343
2.86363
2.84971
2.83656
2.82896
2.82626
2.82606
2.82693
2.8284
2.83152
2.83723
2.8455
2.85507
2.8629
2.86732
2.86863
2.86744
2.86489
2.8602
2.84891
2.82978
2.81063
2.79736
2.78818
2.781
2.77524
2.77104
2.76903
2.77061
2.77499
2.78081
2.78943
2.8021
2.81685
2.82847
2.83363
2.83363
2.83131
2.82606
2.81404
2.79009
2.75839
2.73618
2.72868
2.72571
2.72453
2.72542
2.73025
2.73431
2.73296
2.73001
2.72692
2.72391
2.72224
2.72361
2.7301
2.74132
2.75043
2.75097
2.74793
2.74479
2.74089
2.73529
2.72751
2.71738
2.70674
2.69761
2.68995
2.68235
2.67444
2.66689
2.65982
2.65379
2.65
2.64956
2.65687
2.67188
2.68507
2.68783
2.68608
2.6834
2.67956
2.67444
2.66849
2.66327
2.65992
2.65697
2.65274
2.64417
2.62874
2.61089
2.59821
2.59108
2.58749
2.58632
2.59055
2.60535
2.62667
2.64296
2.64697
2.64377
2.63289
2.61073
2.58992
2.58039
2.57527
2.57
2.56592
2.56307
2.55982
2.55415
2.54409
2.53264
2.5203
2.51027
2.50549
2.5078
2.52483
2.55239
2.57017
2.57512
2.57888
2.58642
2.59028
2.58684
2.57707
2.56228
2.53797
2.5018
2.4636
2.4398
2.43309
2.43241
2.43615
2.44731
2.46368
2.48771
2.51535
2.53277
2.53578
2.53368
2.52929
2.51851
2.49594
2.46619
2.44438
2.43179
2.94551
2.95344
2.97247
2.99519
3.01025
3.01493
3.0137
3.00773
2.99616
2.98374
2.97734
2.97652
2.98308
2.99443
3.00369
3.00914
3.01186
3.01402
3.01656
3.01575
3.01177
3.00552
3.00012
2.99751
2.99603
2.99714
3.00445
3.0134
3.01474
3.01208
3.00692
3.00011
2.99665
2.99519
2.99823
3.01022
3.02331
3.02565
3.0226
3.01677
3.00595
2.99406
2.98772
2.98406
2.98143
2.9813
2.98667
2.99369
2.99416
2.99138
2.98795
2.98377
2.97901
2.97402
2.96923
2.96464
2.96106
2.95947
2.96122
2.96533
2.96503
2.96234
2.95845
2.95494
2.95305
2.95179
2.95149
2.95349
2.95895
2.96733
2.9723
2.97018
2.96639
2.96135
2.95638
2.95317
2.95139
2.95109
2.95239
2.95253
2.94978
2.9465
2.94204
2.9345
2.92526
2.91821
2.91346
2.91059
2.91022
2.91222
2.91449
2.91623
2.91812
2.9205
2.92303
2.9251
2.9262
2.92551
2.92115
2.91147
2.89691
2.88236
2.87258
2.86588
2.86116
2.85867
2.85852
2.86305
2.87281
2.88265
2.88861
2.89076
2.88999
2.88639
2.8783
2.86642
2.85453
2.84518
2.83901
2.83595
2.83588
2.84023
2.84591
2.84965
2.85274
2.85793
2.86376
2.86453
2.86211
2.85728
2.84898
2.83473
2.81972
2.80925
2.80124
2.7945
2.78979
2.78735
2.78702
2.78848
2.79156
2.79648
2.80306
2.81038
2.81758
2.8243
2.82957
2.83215
2.83194
2.82944
2.82392
2.81206
2.78893
2.75903
2.73656
2.72589
2.72157
2.71985
2.71986
2.72182
2.7258
2.73026
2.73472
2.74029
2.74863
2.76056
2.77305
2.77809
2.77454
2.7673
2.75894
2.75099
2.74302
2.73389
2.72289
2.71078
2.70023
2.69231
2.68602
2.68043
2.67558
2.67204
2.66922
2.66721
2.66832
2.67578
2.68801
2.69523
2.6941
2.69082
2.68579
2.67988
2.6742
2.6686
2.66419
2.66234
2.66143
2.66019
2.658
2.65296
2.64148
2.62452
2.60957
2.60037
2.59563
2.59353
2.59835
2.61844
2.64345
2.65498
2.65559
2.65346
2.6483
2.63306
2.60673
2.58348
2.56993
2.56227
2.55601
2.54976
2.5443
2.54027
2.53838
2.53727
2.53559
2.53471
2.53859
2.55108
2.56952
2.5784
2.57666
2.57464
2.57394
2.57285
2.57251
2.5706
2.56504
2.5548
2.5423
2.52786
2.50644
2.47829
2.45562
2.44788
2.4472
2.44965
2.45852
2.47874
2.50854
2.53169
2.54035
2.54368
2.54395
2.54147
2.53177
2.50314
2.45894
2.42308
2.95505
2.96196
2.98125
3.00235
3.01284
3.01709
3.01927
3.01766
3.01281
3.00448
2.99569
2.99223
2.99401
2.99836
3.003
3.00926
3.01709
3.02434
3.02844
3.02694
3.02178
3.01344
3.00651
3.00382
3.00216
3.00298
3.00982
3.01702
3.01713
3.01479
3.0106
3.00616
3.0042
3.00425
3.01033
3.02286
3.03117
3.03015
3.02655
3.02027
3.01025
3.00145
2.99684
2.99362
2.99205
2.99456
3.0012
3.00249
2.99913
2.99485
2.99004
2.98484
2.98102
2.97872
2.97714
2.97607
2.97535
2.9761
2.97929
2.97994
2.97686
2.973
2.96926
2.96689
2.96505
2.96353
2.96269
2.96384
2.96934
2.97812
2.98326
2.98199
2.97927
2.97602
2.97187
2.96761
2.96447
2.96169
2.95911
2.95559
2.95183
2.94799
2.94381
2.93894
2.9346
2.93225
2.93092
2.92914
2.92526
2.91955
2.91416
2.91065
2.90928
2.91176
2.91756
2.92556
2.93611
2.94559
2.94786
2.9441
2.93281
2.90973
2.8817
2.86315
2.85611
2.85328
2.85233
2.85668
2.86814
2.88235
2.89292
2.89927
2.90366
2.9057
2.90406
2.89739
2.88505
2.87128
2.85973
2.85181
2.84812
2.84753
2.84764
2.84734
2.84853
2.85224
2.85589
2.8572
2.8545
2.84928
2.84108
2.83153
2.82396
2.81917
2.81617
2.81459
2.81621
2.82101
2.82196
2.81839
2.81469
2.81319
2.81249
2.81173
2.81179
2.81414
2.8199
2.82543
2.82665
2.82496
2.82169
2.8164
2.80526
2.78568
2.76201
2.74141
2.72682
2.719
2.71616
2.71702
2.72361
2.73338
2.74456
2.75869
2.77595
2.7911
2.79701
2.79533
2.79027
2.78102
2.76908
2.75693
2.74511
2.73315
2.72052
2.70737
2.69499
2.68574
2.68008
2.67705
2.67561
2.67527
2.67708
2.68307
2.69528
2.70971
2.7145
2.71079
2.70298
2.6939
2.68602
2.67882
2.67184
2.66632
2.66349
2.66187
2.66099
2.65964
2.65713
2.65191
2.64174
2.62968
2.62076
2.61444
2.61024
2.60955
2.61824
2.63798
2.6533
2.65732
2.65729
2.65573
2.65157
2.6418
2.62338
2.5991
2.57682
2.56044
2.54962
2.54127
2.5348
2.53179
2.53394
2.54137
2.55031
2.56232
2.58084
2.5997
2.60378
2.5977
2.58644
2.57556
2.56713
2.55924
2.55181
2.54626
2.54394
2.54353
2.54253
2.5412
2.53671
2.52333
2.49919
2.47316
2.45996
2.45739
2.46026
2.47284
2.49196
2.51499
2.53852
2.55152
2.55506
2.55364
2.5465
2.52626
2.47588
2.41982
2.9772
2.98662
3.00029
3.00931
3.0104
3.01058
3.01264
3.01679
3.02008
3.02164
3.01973
3.01347
3.00752
3.00493
3.00357
3.00792
3.02081
3.0343
3.03877
3.03664
3.03076
3.02023
3.01194
3.00889
3.00715
3.00843
3.01526
3.01997
3.01869
3.01618
3.01301
3.01104
3.01022
3.01227
3.02017
3.03033
3.03348
3.03117
3.02729
3.02101
3.01371
3.00943
3.00678
3.00579
3.00798
3.01431
3.01723
3.01312
3.00592
2.99778
2.99104
2.98652
2.98404
2.98266
2.98319
2.98637
2.99108
2.997
3.0006
2.99804
2.99272
2.98604
2.9806
2.97784
2.97569
2.97377
2.97246
2.97337
2.97954
2.98843
2.99224
2.99066
2.98822
2.98518
2.98126
2.97663
2.97286
2.96924
2.96542
2.9611
2.9564
2.95147
2.94653
2.94309
2.94179
2.94211
2.94264
2.94066
2.93655
2.92964
2.92073
2.91357
2.90951
2.90859
2.91441
2.92712
2.94234
2.95394
2.95842