/*--------------------------------*- C++ -*----------------------------------*\
  =========                 |
  \\      /  F ield         | OpenFOAM: The Open Source CFD Toolbox
   \\    /   O peration     | Website:  https://openfoam.org
    \\  /    A nd           | Version:  7
     \\/     M anipulation  |
\*---------------------------------------------------------------------------*/
FoamFile
{
    version     2.0;
    format      ascii;
    class       volVectorField;
    location    "2.3";
    object      U;
}
// * * * * * * * * * * * * * * * * * * * * * * * * * * * * * * * * * * * * * //

dimensions      [0 1 -1 0 0 0 0];

internalField   nonuniform List<vector> 
16192
(
(1.72024 0.916272 0)
(1.73116 0.905305 0)
(1.74238 0.89423 0)
(1.75279 0.885817 0)
(1.76322 0.879596 0)
(1.77382 0.874065 0)
(1.78493 0.867482 0)
(1.79683 0.85893 0)
(1.80926 0.848837 0)
(1.82148 0.838666 0)
(1.83276 0.829668 0)
(1.8442 0.820757 0)
(1.85719 0.810664 0)
(1.87079 0.800622 0)
(1.88349 0.791748 0)
(1.89661 0.782531 0)
(1.91128 0.771937 0)
(1.9261 0.761134 0)
(1.93988 0.751149 0)
(1.95383 0.740991 0)
(1.96826 0.730557 0)
(1.72356 0.915998 0)
(1.73338 0.907895 0)
(1.74317 0.899915 0)
(1.75451 0.891436 0)
(1.7663 0.883245 0)
(1.77744 0.876234 0)
(1.78816 0.869608 0)
(1.79906 0.861938 0)
(1.81071 0.852771 0)
(1.82279 0.842918 0)
(1.83457 0.833296 0)
(1.84658 0.8236 0)
(1.8592 0.814032 0)
(1.87175 0.805052 0)
(1.88425 0.795828 0)
(1.89771 0.785643 0)
(1.91171 0.775423 0)
(1.92543 0.765518 0)
(1.93916 0.75521 0)
(1.95347 0.744417 0)
(1.96759 0.734164 0)
(1.72669 0.915955 0)
(1.73557 0.91167 0)
(1.74609 0.905085 0)
(1.7579 0.896665 0)
(1.76936 0.887926 0)
(1.78024 0.879848 0)
(1.79058 0.872288 0)
(1.80105 0.864215 0)
(1.8126 0.85519 0)
(1.82437 0.846222 0)
(1.83554 0.83779 0)
(1.84769 0.828513 0)
(1.86103 0.818279 0)
(1.87366 0.808741 0)
(1.88531 0.799916 0)
(1.89805 0.790221 0)
(1.91201 0.779578 0)
(1.92567 0.769088 0)
(1.93881 0.759051 0)
(1.95253 0.748929 0)
(1.96641 0.738818 0)
(1.72987 0.917816 0)
(1.73939 0.913423 0)
(1.74932 0.908611 0)
(1.76002 0.901697 0)
(1.77132 0.892768 0)
(1.78245 0.883417 0)
(1.79251 0.874962 0)
(1.80274 0.866635 0)
(1.81412 0.858045 0)
(1.82545 0.849944 0)
(1.83701 0.841468 0)
(1.85019 0.831467 0)
(1.86317 0.821878 0)
(1.87437 0.813829 0)
(1.88605 0.804687 0)
(1.89967 0.79355 0)
(1.9129 0.783168 0)
(1.92508 0.773938 0)
(1.93826 0.763732 0)
(1.95256 0.752709 0)
(1.96644 0.742241 0)
(1.73383 0.920791 0)
(1.74288 0.915554 0)
(1.75225 0.910298 0)
(1.76274 0.903323 0)
(1.7738 0.894981 0)
(1.78419 0.886602 0)
(1.79394 0.878364 0)
(1.80471 0.869399 0)
(1.81618 0.860717 0)
(1.82715 0.853137 0)
(1.83887 0.844908 0)
(1.85204 0.835439 0)
(1.86456 0.826455 0)
(1.87599 0.817859 0)
(1.88802 0.808076 0)
(1.90074 0.797809 0)
(1.9131 0.788067 0)
(1.92567 0.777969 0)
(1.93904 0.767268 0)
(1.95258 0.756919 0)
(1.96595 0.746845 0)
(1.7366 0.924957 0)
(1.74523 0.918488 0)
(1.75412 0.912641 0)
(1.76441 0.905687 0)
(1.7754 0.897709 0)
(1.7858 0.889539 0)
(1.79582 0.881215 0)
(1.80664 0.872598 0)
(1.81759 0.864764 0)
(1.82832 0.857527 0)
(1.84059 0.848879 0)
(1.85423 0.838979 0)
(1.86631 0.830422 0)
(1.87686 0.822683 0)
(1.8889 0.812967 0)
(1.90218 0.80181 0)
(1.91424 0.791958 0)
(1.92585 0.782749 0)
(1.93901 0.772358 0)
(1.95285 0.761393 0)
(1.96635 0.750784 0)
(1.74048 0.92695 0)
(1.748 0.921081 0)
(1.75616 0.915032 0)
(1.76641 0.907636 0)
(1.7774 0.899737 0)
(1.78753 0.892247 0)
(1.79787 0.884234 0)
(1.80936 0.875444 0)
(1.82012 0.867978 0)
(1.83038 0.861165 0)
(1.84284 0.852437 0)
(1.85592 0.843122 0)
(1.86693 0.835485 0)
(1.87813 0.826816 0)
(1.89126 0.815775 0)
(1.90356 0.805691 0)
(1.91449 0.797112 0)
(1.92694 0.786952 0)
(1.94075 0.775667 0)
(1.95376 0.765468 0)
(1.9664 0.755667 0)
(1.74355 0.931207 0)
(1.75054 0.925012 0)
(1.75855 0.9178 0)
(1.76846 0.909906 0)
(1.77865 0.902712 0)
(1.78892 0.895589 0)
(1.80041 0.887292 0)
(1.81191 0.879168 0)
(1.82178 0.872786 0)
(1.83217 0.865642 0)
(1.84487 0.856324 0)
(1.85721 0.847247 0)
(1.86789 0.839525 0)
(1.87932 0.830637 0)
(1.89209 0.82032 0)
(1.90429 0.810441 0)
(1.91586 0.801144 0)
(1.92819 0.791265 0)
(1.94114 0.781092 0)
(1.95394 0.771015 0)
(1.96678 0.760698 0)
(1.74694 0.934709 0)
(1.75405 0.928116 0)
(1.76201 0.919904 0)
(1.77128 0.911713 0)
(1.78073 0.905033 0)
(1.7909 0.898649 0)
(1.80258 0.891188 0)
(1.81401 0.883663 0)
(1.82387 0.877092 0)
(1.83451 0.869252 0)
(1.84689 0.859702 0)
(1.85822 0.851127 0)
(1.86839 0.843623 0)
(1.88066 0.833946 0)
(1.89417 0.822939 0)
(1.90562 0.814311 0)
(1.91637 0.806414 0)
(1.92946 0.7961 0)
(1.94308 0.785051 0)
(1.95532 0.775358 0)
(1.96727 0.765886 0)
(1.74972 0.937524 0)
(1.75809 0.930993 0)
(1.76638 0.922486 0)
(1.77471 0.914675 0)
(1.78283 0.908962 0)
(1.79294 0.902761 0)
(1.80498 0.895118 0)
(1.81573 0.888124 0)
(1.82521 0.881621 0)
(1.83647 0.872848 0)
(1.84857 0.862941 0)
(1.8589 0.854934 0)
(1.86941 0.846968 0)
(1.88223 0.837033 0)
(1.89466 0.827692 0)
(1.90583 0.819877 0)
(1.91811 0.810642 0)
(1.93138 0.800133 0)
(1.94351 0.790635 0)
(1.95523 0.781439 0)
(1.96747 0.771504 0)
(1.75164 0.938217 0)
(1.76202 0.933075 0)
(1.77093 0.926091 0)
(1.77807 0.919564 0)
(1.78548 0.913766 0)
(1.79556 0.906934 0)
(1.80664 0.89954 0)
(1.81657 0.892651 0)
(1.82677 0.8848 0)
(1.8386 0.875127 0)
(1.84983 0.866031 0)
(1.85954 0.858859 0)
(1.87042 0.85095 0)
(1.88366 0.84097 0)
(1.89639 0.831499 0)
(1.90743 0.823954 0)
(1.91899 0.815665 0)
(1.93198 0.805465 0)
(1.94452 0.795192 0)
(1.95635 0.785568 0)
(1.96811 0.776053 0)
(1.75021 0.938631 0)
(1.76456 0.934816 0)
(1.77498 0.930062 0)
(1.7817 0.924815 0)
(1.78869 0.918626 0)
(1.79847 0.910896 0)
(1.80855 0.903062 0)
(1.81789 0.895703 0)
(1.82838 0.887305 0)
(1.84028 0.877716 0)
(1.85104 0.869474 0)
(1.86074 0.86288 0)
(1.87237 0.854685 0)
(1.88533 0.845003 0)
(1.89659 0.837077 0)
(1.90751 0.829691 0)
(1.92044 0.819655 0)
(1.93346 0.808869 0)
(1.94469 0.79989 0)
(1.95616 0.790875 0)
(1.9683 0.780947 0)
(1.74647 0.938076 0)
(1.76292 0.935987 0)
(1.77483 0.934324 0)
(1.78302 0.930211 0)
(1.79185 0.922559 0)
(1.80172 0.913743 0)
(1.81061 0.906111 0)
(1.81946 0.89872 0)
(1.83045 0.889735 0)
(1.84211 0.880574 0)
(1.85205 0.873779 0)
(1.8619 0.86767 0)
(1.87371 0.859576 0)
(1.88621 0.850132 0)
(1.89772 0.841458 0)
(1.90913 0.832922 0)
(1.92124 0.823442 0)
(1.93317 0.813706 0)
(1.94484 0.804174 0)
(1.95706 0.794343 0)
(1.96923 0.78445 0)
(1.74365 0.938339 0)
(1.7593 0.936718 0)
(1.77289 0.935781 0)
(1.78357 0.932224 0)
(1.79455 0.924659 0)
(1.80509 0.915735 0)
(1.81361 0.90846 0)
(1.82245 0.901137 0)
(1.83302 0.892802 0)
(1.84346 0.884986 0)
(1.85304 0.878795 0)
(1.86358 0.872199 0)
(1.87573 0.863493 0)
(1.88757 0.854113 0)
(1.89813 0.846083 0)
(1.90941 0.837497 0)
(1.92212 0.826777 0)
(1.93417 0.816475 0)
(1.94509 0.807971 0)
(1.95692 0.799079 0)
(1.9696 0.788962 0)
(1.74068 0.939162 0)
(1.75523 0.936999 0)
(1.76857 0.935873 0)
(1.78264 0.931805 0)
(1.79668 0.924022 0)
(1.80751 0.917377 0)
(1.81621 0.911952 0)
(1.82545 0.905353 0)
(1.83563 0.897327 0)
(1.84501 0.890002 0)
(1.85442 0.883625 0)
(1.86528 0.876387 0)
(1.87677 0.867722 0)
(1.88789 0.858614 0)
(1.89915 0.849492 0)
(1.91119 0.83972 0)
(1.92272 0.83014 0)
(1.93342 0.821619 0)
(1.94508 0.812741 0)
(1.95802 0.802689 0)
(1.97094 0.792324 0)
(1.73881 0.938403 0)
(1.7513 0.935539 0)
(1.76397 0.933583 0)
(1.77887 0.930301 0)
(1.79401 0.92553 0)
(1.8075 0.92024 0)
(1.8183 0.915647 0)
(1.8291 0.909255 0)
(1.83847 0.902168 0)
(1.84686 0.89514 0)
(1.85634 0.88779 0)
(1.86703 0.87974 0)
(1.8781 0.87057 0)
(1.88925 0.861107 0)
(1.90004 0.852831 0)
(1.91112 0.844521 0)
(1.92297 0.834799 0)
(1.93479 0.825143 0)
(1.94634 0.816469 0)
(1.9583 0.807442 0)
(1.97086 0.797346 0)
(1.73622 0.937362 0)
(1.74832 0.93447 0)
(1.7607 0.932088 0)
(1.77545 0.92918 0)
(1.79032 0.925544 0)
(1.80495 0.922766 0)
(1.81899 0.918946 0)
(1.83116 0.913713 0)
(1.84088 0.907008 0)
(1.84931 0.899349 0)
(1.85878 0.891021 0)
(1.86894 0.88245 0)
(1.87911 0.873637 0)
(1.88962 0.865211 0)
(1.90103 0.856874 0)
(1.91311 0.847692 0)
(1.92426 0.838745 0)
(1.9348 0.830674 0)
(1.94648 0.821882 0)
(1.95902 0.81168 0)
(1.97136 0.801279 0)
(1.73573 0.939136 0)
(1.74662 0.935235 0)
(1.75893 0.932245 0)
(1.77327 0.929206 0)
(1.78707 0.926663 0)
(1.80132 0.923946 0)
(1.81757 0.920017 0)
(1.83206 0.915085 0)
(1.84235 0.909832 0)
(1.85169 0.902327 0)
(1.86153 0.893612 0)
(1.87077 0.885596 0)
(1.88058 0.877097 0)
(1.892 0.868059 0)
(1.90312 0.860452 0)
(1.91323 0.853253 0)
(1.92417 0.84447 0)
(1.93616 0.834617 0)
(1.94805 0.825118 0)
(1.95947 0.815771 0)
(1.97081 0.806247 0)
(1.738 0.943653 0)
(1.74647 0.938042 0)
(1.75838 0.93332 0)
(1.77108 0.929807 0)
(1.78369 0.927522 0)
(1.79744 0.924418 0)
(1.81369 0.920142 0)
(1.8286 0.916061 0)
(1.84128 0.911641 0)
(1.8531 0.904746 0)
(1.86372 0.897007 0)
(1.87296 0.889539 0)
(1.883 0.880976 0)
(1.89364 0.872901 0)
(1.90369 0.866068 0)
(1.91419 0.85771 0)
(1.92555 0.847903 0)
(1.93692 0.838776 0)
(1.9483 0.82979 0)
(1.95979 0.819906 0)
(1.97088 0.810291 0)
(1.74511 0.947713 0)
(1.75039 0.940063 0)
(1.76029 0.933531 0)
(1.76997 0.931094 0)
(1.78001 0.928634 0)
(1.79385 0.924736 0)
(1.80958 0.91955 0)
(1.82478 0.914994 0)
(1.83921 0.911149 0)
(1.85396 0.905641 0)
(1.86639 0.899692 0)
(1.8758 0.893558 0)
(1.88554 0.885484 0)
(1.8961 0.876969 0)
(1.90553 0.869905 0)
(1.91486 0.86203 0)
(1.92601 0.852254 0)
(1.93818 0.842015 0)
(1.94971 0.832571 0)
(1.96031 0.823643 0)
(1.97067 0.81486 0)
(1.75181 0.956006 0)
(1.75503 0.946591 0)
(1.7613 0.938341 0)
(1.76857 0.933821 0)
(1.77812 0.929292 0)
(1.79129 0.9239 0)
(1.80636 0.918624 0)
(1.82042 0.914971 0)
(1.8362 0.911631 0)
(1.85252 0.907037 0)
(1.86482 0.903555 0)
(1.87529 0.898766 0)
(1.88744 0.889718 0)
(1.89823 0.880973 0)
(1.90641 0.874615 0)
(1.916 0.865719 0)
(1.92803 0.854519 0)
(1.93941 0.845205 0)
(1.94967 0.83733 0)
(1.96025 0.828535 0)
(1.97119 0.819026 0)
(1.75991 0.962839 0)
(1.7624 0.951043 0)
(1.76548 0.939963 0)
(1.76923 0.932881 0)
(1.77676 0.927459 0)
(1.78996 0.922657 0)
(1.80375 0.919065 0)
(1.81776 0.916102 0)
(1.83345 0.912241 0)
(1.84871 0.908598 0)
(1.86149 0.905872 0)
(1.87551 0.899876 0)
(1.88876 0.891392 0)
(1.89929 0.884315 0)
(1.90812 0.877794 0)
(1.91838 0.868427 0)
(1.92957 0.858248 0)
(1.94031 0.849534 0)
(1.95072 0.841316 0)
(1.96114 0.832614 0)
(1.97203 0.82325 0)
(1.77359 0.963535 0)
(1.77447 0.951941 0)
(1.77392 0.942331 0)
(1.77419 0.935027 0)
(1.77937 0.928215 0)
(1.79043 0.923877 0)
(1.80186 0.921173 0)
(1.81496 0.917858 0)
(1.83021 0.913002 0)
(1.84381 0.909268 0)
(1.85791 0.906359 0)
(1.87186 0.901216 0)
(1.8868 0.893182 0)
(1.89913 0.8867 0)
(1.90905 0.881207 0)
(1.91999 0.872668 0)
(1.93177 0.862283 0)
(1.94198 0.853919 0)
(1.95111 0.84659 0)
(1.96134 0.837821 0)
(1.97283 0.827742 0)
(1.77572 0.971273 0)
(1.78049 0.960953 0)
(1.78057 0.951994 0)
(1.77946 0.943765 0)
(1.78291 0.934375 0)
(1.79065 0.928282 0)
(1.80054 0.924253 0)
(1.8134 0.919622 0)
(1.82749 0.913994 0)
(1.84074 0.909558 0)
(1.85246 0.906459 0)
(1.86739 0.901098 0)
(1.88426 0.89386 0)
(1.89694 0.889165 0)
(1.9087 0.884559 0)
(1.92253 0.875389 0)
(1.93437 0.866116 0)
(1.94293 0.859536 0)
(1.95199 0.851691 0)
(1.96284 0.841737 0)
(1.97423 0.831531 0)
(1.77793 0.969959 0)
(1.78686 0.96317 0)
(1.78892 0.957419 0)
(1.78958 0.948216 0)
(1.79132 0.937573 0)
(1.79485 0.930298 0)
(1.80152 0.925327 0)
(1.81309 0.919537 0)
(1.82637 0.913706 0)
(1.83807 0.910108 0)
(1.84895 0.906622 0)
(1.86404 0.901034 0)
(1.87865 0.895269 0)
(1.89316 0.891423 0)
(1.90947 0.885795 0)
(1.9239 0.877629 0)
(1.93456 0.871117 0)
(1.94389 0.864549 0)
(1.95353 0.855977 0)
(1.9641 0.846022 0)
(1.97493 0.836241 0)
(1.78518 0.976569 0)
(1.79119 0.970218 0)
(1.79519 0.963849 0)
(1.79824 0.955033 0)
(1.80012 0.944334 0)
(1.80079 0.935755 0)
(1.80399 0.92915 0)
(1.81296 0.921984 0)
(1.82482 0.915316 0)
(1.83515 0.911611 0)
(1.846 0.907404 0)
(1.86005 0.901614 0)
(1.87489 0.896763 0)
(1.88907 0.893652 0)
(1.90431 0.888404 0)
(1.92065 0.880781 0)
(1.93484 0.873229 0)
(1.94446 0.868052 0)
(1.95432 0.860256 0)
(1.96573 0.849713 0)
(1.97647 0.839889 0)
(1.78437 0.983626 0)
(1.79304 0.975835 0)
(1.79918 0.969394 0)
(1.80502 0.960006 0)
(1.80813 0.949981 0)
(1.80873 0.940842 0)
(1.80963 0.932682 0)
(1.81586 0.923649 0)
(1.82536 0.916416 0)
(1.83409 0.912727 0)
(1.84433 0.908553 0)
(1.85842 0.902647 0)
(1.87155 0.898629 0)
(1.88435 0.895305 0)
(1.90084 0.889153 0)
(1.91872 0.880973 0)
(1.9309 0.87648 0)
(1.94237 0.871664 0)
(1.95551 0.862419 0)
(1.96735 0.852436 0)
(1.97735 0.844084 0)
(1.7882 0.980565 0)
(1.79827 0.976544 0)
(1.80733 0.968578 0)
(1.81373 0.959588 0)
(1.81736 0.951469 0)
(1.81809 0.945214 0)
(1.81941 0.936562 0)
(1.82313 0.927166 0)
(1.82841 0.920655 0)
(1.83414 0.916424 0)
(1.84376 0.910493 0)
(1.85629 0.90441 0)
(1.8679 0.900626 0)
(1.88095 0.896306 0)
(1.89782 0.88916 0)
(1.91222 0.882335 0)
(1.92638 0.877794 0)
(1.94081 0.872483 0)
(1.95393 0.86502 0)
(1.9667 0.856189 0)
(1.978 0.847534 0)
(1.78488 0.986057 0)
(1.79409 0.980127 0)
(1.80529 0.972741 0)
(1.8148 0.965096 0)
(1.82086 0.958893 0)
(1.82482 0.952792 0)
(1.8278 0.944746 0)
(1.83098 0.934712 0)
(1.83275 0.92772 0)
(1.83606 0.921316 0)
(1.84435 0.912818 0)
(1.85492 0.906012 0)
(1.86544 0.901883 0)
(1.87852 0.896494 0)
(1.89333 0.889795 0)
(1.9087 0.882798 0)
(1.92215 0.878852 0)
(1.93497 0.874521 0)
(1.95151 0.866242 0)
(1.96676 0.857478 0)
(1.97803 0.850382 0)
(1.79155 0.978905 0)
(1.79434 0.975683 0)
(1.80529 0.97044 0)
(1.81727 0.965322 0)
(1.82614 0.961468 0)
(1.83188 0.957066 0)
(1.83691 0.949238 0)
(1.84015 0.939781 0)
(1.84039 0.932136 0)
(1.84155 0.92395 0)
(1.8475 0.913833 0)
(1.8554 0.906632 0)
(1.86448 0.902327 0)
(1.87614 0.897274 0)
(1.89131 0.890098 0)
(1.90482 0.884351 0)
(1.91691 0.880691 0)
(1.93208 0.874716 0)
(1.9474 0.867268 0)
(1.96057 0.860818 0)
(1.97451 0.853926 0)
(1.80812 0.984113 0)
(1.80272 0.983716 0)
(1.80944 0.976475 0)
(1.81785 0.97049 0)
(1.8256 0.967129 0)
(1.83421 0.961989 0)
(1.84222 0.953738 0)
(1.84697 0.944932 0)
(1.8478 0.937677 0)
(1.8493 0.927805 0)
(1.85299 0.917021 0)
(1.85789 0.909681 0)
(1.8644 0.90485 0)
(1.87535 0.898448 0)
(1.88872 0.891869 0)
(1.90155 0.886517 0)
(1.91392 0.882056 0)
(1.92718 0.876051 0)
(1.94183 0.868907 0)
(1.95717 0.862204 0)
(1.97168 0.855831 0)
(1.84837 0.991636 0)
(1.80569 0.989234 0)
(1.81065 0.983723 0)
(1.81962 0.975302 0)
(1.82693 0.96997 0)
(1.83567 0.963986 0)
(1.8451 0.955948 0)
(1.8512 0.948884 0)
(1.85404 0.942532 0)
(1.85712 0.933004 0)
(1.86047 0.921606 0)
(1.86264 0.914269 0)
(1.86652 0.908199 0)
(1.87566 0.900733 0)
(1.88802 0.893151 0)
(1.89939 0.888503 0)
(1.91052 0.8841 0)
(1.92424 0.877175 0)
(1.93854 0.870049 0)
(1.95179 0.86408 0)
(1.96615 0.858166 0)
(2.07238 0.897905 0)
(1.81683 0.981129 0)
(1.81533 0.982331 0)
(1.8249 0.977084 0)
(1.8325 0.970848 0)
(1.84032 0.963507 0)
(1.84959 0.955697 0)
(1.85598 0.950649 0)
(1.86085 0.945198 0)
(1.86615 0.935702 0)
(1.86929 0.925941 0)
(1.8701 0.918955 0)
(1.87203 0.911779 0)
(1.87939 0.902458 0)
(1.88888 0.895545 0)
(1.89829 0.891105 0)
(1.90872 0.885859 0)
(1.92207 0.878377 0)
(1.93483 0.871791 0)
(1.9476 0.865996 0)
(1.96119 0.860185 0)
(2.34593 0.764305 0)
(1.83258 1.01054 0)
(1.81301 0.988254 0)
(1.82104 0.983466 0)
(1.83142 0.975945 0)
(1.84128 0.967999 0)
(1.84966 0.960914 0)
(1.85616 0.956211 0)
(1.86271 0.950812 0)
(1.87014 0.942013 0)
(1.87524 0.932634 0)
(1.87689 0.925784 0)
(1.87859 0.917909 0)
(1.88426 0.907802 0)
(1.89116 0.899999 0)
(1.89784 0.895158 0)
(1.9078 0.888101 0)
(1.92009 0.880173 0)
(1.93189 0.873718 0)
(1.94341 0.868202 0)
(1.95665 0.862104 0)
(2.00603 0.951625 0)
(1.82174 0.97895 0)
(1.82269 0.979019 0)
(1.83283 0.975546 0)
(1.84558 0.968489 0)
(1.85382 0.961808 0)
(1.85918 0.95762 0)
(1.86618 0.951623 0)
(1.87523 0.942715 0)
(1.88168 0.935326 0)
(1.88408 0.930312 0)
(1.8873 0.922013 0)
(1.89274 0.910961 0)
(1.89654 0.903901 0)
(1.90054 0.898199 0)
(1.90905 0.88965 0)
(1.92027 0.880591 0)
(1.93005 0.8753 0)
(1.94066 0.870047 0)
(1.953 0.863849 0)
(2.22541 0.831822 0)
(1.83877 0.994106 0)
(1.82379 0.985831 0)
(1.83148 0.981554 0)
(1.84304 0.973725 0)
(1.85222 0.966465 0)
(1.85921 0.96143 0)
(1.86789 0.954572 0)
(1.87714 0.946636 0)
(1.88379 0.941423 0)
(1.88886 0.936123 0)
(1.8947 0.9273 0)
(1.9001 0.917204 0)
(1.90235 0.910305 0)
(1.90481 0.90327 0)
(1.91183 0.893053 0)
(1.92052 0.883944 0)
(1.92891 0.877758 0)
(1.93833 0.872288 0)
(1.95049 0.865252 0)
(2.59388 0.589263 0)
(1.92822 0.988961 0)
(1.82662 0.985182 0)
(1.83199 0.980643 0)
(1.8431 0.972524 0)
(1.85216 0.966883 0)
(1.85975 0.962891 0)
(1.86942 0.956619 0)
(1.8799 0.948744 0)
(1.88709 0.944138 0)
(1.89253 0.939873 0)
(1.90038 0.93111 0)
(1.90695 0.921324 0)
(1.90895 0.915293 0)
(1.91132 0.907273 0)
(1.91716 0.895999 0)
(1.92354 0.88653 0)
(1.92955 0.880472 0)
(1.93806 0.873664 0)
(1.94958 0.866214 0)
(2.97057 0.172321 0)
(2.13757 0.882215 0)
(1.84341 0.977627 0)
(1.83863 0.979905 0)
(1.84534 0.97606 0)
(1.85527 0.970859 0)
(1.86262 0.966055 0)
(1.8729 0.958156 0)
(1.88222 0.951158 0)
(1.8878 0.948007 0)
(1.89466 0.942449 0)
(1.90465 0.932686 0)
(1.91162 0.924898 0)
(1.91477 0.919915 0)
(1.9189 0.911183 0)
(1.92429 0.899749 0)
(1.92832 0.89122 0)
(1.93232 0.88463 0)
(1.9395 0.876681 0)
(1.94923 0.868835 0)
(3.00887 0.0206861 0)
(2.44924 0.711927 0)
(1.86197 0.997714 0)
(1.83719 0.988096 0)
(1.84389 0.982852 0)
(1.85353 0.976614 0)
(1.86348 0.970242 0)
(1.87399 0.961566 0)
(1.88195 0.954804 0)
(1.88721 0.951127 0)
(1.89544 0.944838 0)
(1.90607 0.935882 0)
(1.91372 0.929368 0)
(1.91872 0.924663 0)
(1.925 0.916061 0)
(1.93103 0.905083 0)
(1.93419 0.89691 0)
(1.93682 0.88983 0)
(1.94239 0.881052 0)
(1.95034 0.872397 0)
(2.99997 0.00156445 0)
(2.88042 0.321171 0)
(2.06882 0.913971 0)
(1.84653 0.977496 0)
(1.84608 0.978412 0)
(1.85499 0.975577 0)
(1.86753 0.968608 0)
(1.87793 0.959932 0)
(1.88458 0.955025 0)
(1.88888 0.95188 0)
(1.89806 0.944849 0)
(1.90973 0.935957 0)
(1.91739 0.931522 0)
(1.92318 0.927359 0)
(1.93158 0.918046 0)
(1.93829 0.908086 0)
(1.94092 0.901651 0)
(1.94327 0.894403 0)
(1.94799 0.884812 0)
(1.95445 0.875556 0)
(2.99998 4.76939e-05 0)
(3.01414 0.048567 0)
(2.31703 0.784726 0)
(1.86011 1.00018 0)
(1.84447 0.984614 0)
(1.85186 0.979884 0)
(1.86397 0.97237 0)
(1.87544 0.963985 0)
(1.88195 0.960363 0)
(1.88824 0.956337 0)
(1.89968 0.947879 0)
(1.9103 0.939947 0)
(1.9171 0.936749 0)
(1.92469 0.931578 0)
(1.93434 0.922261 0)
(1.94141 0.91392 0)
(1.9452 0.908086 0)
(1.94903 0.900355 0)
(1.95396 0.890514 0)
(1.95946 0.881088 0)
(3 6.80355e-07 0)
(3.00079 0.00461871 0)
(2.72266 0.481039 0)
(2.00748 0.957459 0)
(1.85201 0.978482 0)
(1.85239 0.97632 0)
(1.86335 0.970058 0)
(1.87601 0.963621 0)
(1.88324 0.961375 0)
(1.89046 0.956829 0)
(1.90287 0.948114 0)
(1.91339 0.94109 0)
(1.91965 0.938781 0)
(1.92679 0.933463 0)
(1.9372 0.923881 0)
(1.94502 0.91665 0)
(1.94953 0.912134 0)
(1.95481 0.904682 0)
(1.96092 0.894716 0)
(1.9662 0.885401 0)
(3 5.1673e-09 0)
(2.99995 0.000206632 0)
(3.00048 0.104165 0)
(2.21834 0.838184 0)
(1.86879 0.985412 0)
(1.85812 0.982393 0)
(1.86371 0.9754 0)
(1.87296 0.968537 0)
(1.87992 0.965898 0)
(1.89121 0.959451 0)
(1.9048 0.949696 0)
(1.91275 0.945416 0)
(1.91758 0.943834 0)
(1.92732 0.93662 0)
(1.93843 0.926599 0)
(1.94565 0.921364 0)
(1.95136 0.917199 0)
(1.95911 0.909014 0)
(1.96668 0.899259 0)
(1.97191 0.891097 0)
(3 2.84934e-11 0)
(3 3.81497e-06 0)
(3.0037 0.0117923 0)
(2.58026 0.608949 0)
(1.92166 0.982554 0)
(1.86213 0.986139 0)
(1.86553 0.980197 0)
(1.87337 0.971612 0)
(1.88021 0.967226 0)
(1.89268 0.959933 0)
(1.905 0.951671 0)
(1.91186 0.949051 0)
(1.91698 0.946589 0)
(1.92797 0.938708 0)
(1.93923 0.929209 0)
(1.94642 0.924533 0)
(1.95292 0.920143 0)
(1.96211 0.912136 0)
(1.9708 0.903169 0)
(1.97668 0.89581 0)
(3 8.13377e-14 0)
(3 3.55527e-08 0)
(2.99988 0.000749046 0)
(2.9608 0.196065 0)
(2.1387 0.874226 0)
(1.87278 0.975206 0)
(1.87049 0.977967 0)
(1.87583 0.975688 0)
(1.88568 0.969838 0)
(1.89767 0.960837 0)
(1.90664 0.954218 0)
(1.91029 0.953278 0)
(1.91667 0.948629 0)
(1.92991 0.938496 0)
(1.94112 0.929964 0)
(1.94718 0.927262 0)
(1.95437 0.922173 0)
(1.96498 0.91324 0)
(1.97424 0.905159 0)
(1.98079 0.898893 0)
(3 -3.5193e-15 0)
(3 2.24183e-10 0)
(2.99999 1.87546e-05 0)
(3.00897 0.0250089 0)
(2.44843 0.707358 0)
(1.88654 0.992702 0)
(1.86752 0.987015 0)
(1.87349 0.983017 0)
(1.88397 0.97588 0)
(1.8969 0.965846 0)
(1.90399 0.959971 0)
(1.90788 0.95798 0)
(1.91724 0.950774 0)
(1.93114 0.939742 0)
(1.94028 0.933164 0)
(1.94568 0.930793 0)
(1.95452 0.92465 0)
(1.96577 0.915789 0)
(1.97491 0.908774 0)
(1.98212 0.903038 0)
(3 -3.65643e-15 0)
(3 8.0704e-13 0)
(3 2.25366e-07 0)
(2.99992 0.00205178 0)
(2.87101 0.326297 0)
(2.09116 0.90824 0)
(1.87582 0.97597 0)
(1.87544 0.977723 0)
(1.8846 0.97475 0)
(1.89963 0.965526 0)
(1.90573 0.961498 0)
(1.90917 0.958086 0)
(1.92065 0.94882 0)
(1.93428 0.938187 0)
(1.94164 0.934661 0)
(1.94585 0.932388 0)
(1.95585 0.92483 0)
(1.9678 0.915766 0)
(1.9768 0.91012 0)
(1.98424 0.905116 0)
(3 -2.39886e-15 0)
(3 -9.40117e-16 0)
(3 1.63651e-09 0)
(2.99998 6.81809e-05 0)
(3.01065 0.0512819 0)
(2.34391 0.773397 0)
(1.88851 0.9953 0)
(1.87447 0.983742 0)
(1.88257 0.979122 0)
(1.89492 0.970363 0)
(1.90229 0.967231 0)
(1.90962 0.962263 0)
(1.92274 0.951436 0)
(1.93303 0.941721 0)
(1.93753 0.93974 0)
(1.94376 0.93587 0)
(1.95624 0.926788 0)
(1.96735 0.918767 0)
(1.97544 0.914504 0)
(1.98363 0.909582 0)
(3 -2.98805e-17 0)
(3 1.11059e-16 0)
(3 7.61769e-12 0)
(3 1.02392e-06 0)
(3.00052 0.00505833 0)
(2.7416 0.461487 0)
(2.0425 0.945789 0)
(1.88309 0.977023 0)
(1.88449 0.975711 0)
(1.89492 0.969217 0)
(1.90332 0.966913 0)
(1.91331 0.960518 0)
(1.92678 0.949536 0)
(1.93493 0.942745 0)
(1.93737 0.941638 0)
(1.94432 0.935988 0)
(1.95829 0.926125 0)
(1.96936 0.919606 0)
(1.97702 0.916426 0)
(1.98518 0.91151 0)
(3 2.09532e-15 0)
(3 6.00655e-16 0)
(3 1.79331e-14 0)
(3 8.20189e-09 0)
(2.99994 0.000232338 0)
(2.99841 0.0968088 0)
(2.25785 0.820839 0)
(1.90127 0.98643 0)
(1.88615 0.979611 0)
(1.89135 0.974767 0)
(1.89976 0.970626 0)
(1.91322 0.962464 0)
(1.92556 0.951867 0)
(1.93084 0.94818 0)
(1.9341 0.946637 0)
(1.9456 0.938292 0)
(1.95912 0.92812 0)
(1.96756 0.924066 0)
(1.97473 0.921319 0)
(1.98421 0.915575 0)
(3 2.03801e-15 0)
(3 6.44415e-16 0)
(3 6.04751e-16 0)
(3 4.67094e-11 0)
(3 4.38343e-06 0)
(3.00242 0.0108989 0)
(2.61311 0.569889 0)
(1.98952 0.974706 0)
(1.88934 0.981627 0)
(1.89092 0.977831 0)
(1.89881 0.970266 0)
(1.9132 0.960289 0)
(1.92432 0.952324 0)
(1.9288 0.951751 0)
(1.93402 0.948951 0)
(1.9479 0.939905 0)
(1.96063 0.930384 0)
(1.96792 0.927104 0)
(1.97476 0.923556 0)
(1.98412 0.917379 0)
(3 2.23783e-15 0)
(3 1.39915e-15 0)
(3 -9.30388e-16 0)
(3 1.44734e-13 0)
(3 4.1388e-08 0)
(2.99986 0.000680133 0)
(2.96561 0.163621 0)
(2.19512 0.860722 0)
(1.90594 0.973123 0)
(1.8966 0.977133 0)
(1.90177 0.972316 0)
(1.9163 0.962342 0)
(1.9243 0.956733 0)
(1.92679 0.956838 0)
(1.93596 0.950782 0)
(1.95162 0.939708 0)
(1.96193 0.932946 0)
(1.96648 0.931615 0)
(1.97367 0.92685 0)
(1.9837 0.919187 0)
(3 -3.48726e-16 0)
(3 3.44888e-17 0)
(3 -2.36739e-15 0)
(3 -1.44392e-15 0)
(3 2.82347e-10 0)
(2.99999 1.60937e-05 0)
(3.00448 0.0211037 0)
(2.53532 0.657209 0)
(1.92236 0.982494 0)
(1.89518 0.985175 0)
(1.90062 0.980302 0)
(1.91245 0.969047 0)
(1.92029 0.963707 0)
(1.92571 0.9616 0)
(1.93841 0.953173 0)
(1.95231 0.942029 0)
(1.95957 0.937496 0)
(1.96415 0.935558 0)
(1.97283 0.929185 0)
(1.98318 0.920876 0)
(3 -1.63416e-15 0)
(3 -1.00273e-15 0)
(3 -8.88196e-16 0)
(3 5.8326e-16 0)
(3 1.067e-12 0)
(3 1.8744e-07 0)
(2.99977 0.0016269 0)
(2.92213 0.259641 0)
(2.14628 0.88332 0)
(1.90482 0.973323 0)
(1.90367 0.974823 0)
(1.91222 0.969742 0)
(1.92198 0.965151 0)
(1.92907 0.960846 0)
(1.9433 0.951271 0)
(1.95492 0.942622 0)
(1.95955 0.940932 0)
(1.96362 0.937903 0)
(1.97356 0.929659 0)
(1.98454 0.920612 0)
(3 -1.49301e-15 0)
(3 -4.65194e-16 0)
(3 1.15683e-16 0)
(3 -3.6865e-17 0)
(3 8.47553e-16 0)
(3 1.39184e-09 0)
(2.99998 5.04564e-05 0)
(3.00764 0.0374676 0)
(2.43135 0.727495 0)
(1.92058 0.989363 0)
(1.90216 0.981714 0)
(1.90889 0.976718 0)
(1.91747 0.971771 0)
(1.9289 0.96543 0)
(1.94262 0.955191 0)
(1.9509 0.948043 0)
(1.95463 0.946934 0)
(1.9621 0.941761 0)
(1.97387 0.932108 0)
(1.98457 0.923274 0)
(3 -5.94695e-16 0)
(3 -2.82529e-16 0)
(3 -5.13438e-16 0)
(3 -6.21287e-16 0)
(3 -2.73657e-15 0)
(3 6.24424e-12 0)
(3 7.13188e-07 0)
(2.99982 0.00350018 0)
(2.83134 0.370014 0)
(2.11179 0.914867 0)
(1.91058 0.971786 0)
(1.91057 0.972853 0)
(1.91794 0.970893 0)
(1.93238 0.964017 0)
(1.94524 0.954451 0)
(1.95101 0.950489 0)
(1.95388 0.948632 0)
(1.96348 0.941127 0)
(1.97656 0.930925 0)
(1.98713 0.923405 0)
(3 -2.72932e-16 0)
(3 -1.21005e-15 0)
(3 -4.85701e-16 0)
(3 -6.24154e-16 0)
(3 -2.72572e-15 0)
(3 1.25883e-14 0)
(3 5.89948e-09 0)
(2.99995 0.000139001 0)
(3.00322 0.065308 0)
(2.35883 0.775768 0)
(1.92544 0.986406 0)
(1.9101 0.980581 0)
(1.91561 0.977024 0)
(1.9287 0.968895 0)
(1.94112 0.958681 0)
(1.94624 0.956219 0)
(1.95216 0.952766 0)
(1.96461 0.943562 0)
(1.97658 0.933917 0)
(1.98522 0.927875 0)
(3 1.69837e-16 0)
(3 -1.90442e-15 0)
(3 -1.13626e-15 0)
(3 -1.10305e-15 0)
(3 -6.32143e-16 0)
(3 -1.20069e-15 0)
(3 3.20359e-11 0)
(3 2.34436e-06 0)
(3.00029 0.00691389 0)
(2.73366 0.470311 0)
(2.07338 0.940842 0)
(1.91854 0.976162 0)
(1.91753 0.975137 0)
(1.92912 0.967173 0)
(1.94049 0.958531 0)
(1.94529 0.957267 0)
(1.95362 0.9524 0)
(1.96788 0.942596 0)
(1.97911 0.934312 0)
(1.98626 0.929812 0)
(3 4.66478e-16 0)
(3 5.55157e-16 0)
(3 1.23411e-16 0)
(3 -4.98328e-16 0)
(3 -1.89893e-16 0)
(3 -1.17808e-15 0)
(3 9.15495e-14 0)
(3 2.04705e-08 0)
(2.9999 0.000356772 0)
(2.99096 0.103174 0)
(2.28999 0.811736 0)
(1.93939 0.984654 0)
(1.9184 0.977396 0)
(1.92568 0.972165 0)
(1.93538 0.964404 0)
(1.94245 0.961265 0)
(1.95465 0.953874 0)
(1.96788 0.944492 0)
(1.97649 0.938535 0)
(1.98265 0.934945 0)
(3 2.03062e-16 0)
(3 5.8011e-16 0)
(3 4.58412e-16 0)
(3 -7.98577e-17 0)
(3 -1.46668e-15 0)
(3 -1.74778e-15 0)
(3 -5.66851e-16 0)
(3 1.23214e-10 0)
(3 7.39824e-06 0)
(3.00166 0.0119104 0)
(2.63052 0.554789 0)
(2.03805 0.963313 0)
(1.92354 0.978053 0)
(1.92758 0.974224 0)
(1.93476 0.968203 0)
(1.94233 0.96305 0)
(1.95514 0.954327 0)
(1.96711 0.945417 0)
(1.97481 0.940894 0)
(1.98089 0.937471 0)
(3 9.86845e-16 0)
(3 1.10575e-15 0)
(3 1.0321e-15 0)
(3 6.81103e-16 0)
(3 -9.06801e-16 0)
(3 -1.63385e-15 0)
(3 -6.22549e-16 0)
(3 4.07211e-13 0)
(3 7.6342e-08 0)
(2.99983 0.000771117 0)
(2.96639 0.152566 0)
(2.22683 0.847991 0)
(1.94761 0.973561 0)
(1.93628 0.977593 0)
(1.93943 0.971074 0)
(1.94528 0.963962 0)
(1.95703 0.953528 0)
(1.96626 0.946699 0)
(1.97186 0.944694 0)
(1.97925 0.940829 0)
(3 1.29294e-15 0)
(3 2.42246e-15 0)
(3 2.62116e-15 0)
(3 1.81005e-15 0)
(3 1.31576e-15 0)
(3 2.51973e-15 0)
(3 2.0791e-15 0)
(3 2.69027e-15 0)
(3 5.67569e-10 0)
(2.99999 1.80791e-05 0)
(3.00237 0.0204231 0)
(2.58057 0.617097 0)
(1.96914 0.980694 0)
(1.93501 0.982082 0)
(1.93801 0.977798 0)
(1.94703 0.967903 0)
(1.95773 0.956608 0)
(1.96375 0.951301 0)
(1.96887 0.949325 0)
(1.97771 0.944484 0)
(3 2.43807e-15 0)
(3 2.8561e-15 0)
(3 2.59069e-15 0)
(3 1.95048e-15 0)
(3 2.89053e-15 0)
(3 3.45144e-15 0)
(3 2.52899e-15 0)
(3 7.92272e-16 0)
(3 2.22985e-12 0)
(3 2.07846e-07 0)
(2.9997 0.00155025 0)
(2.94038 0.2202 0)
(2.20018 0.860909 0)
(1.94497 0.968201 0)
(1.94056 0.97278 0)
(1.94854 0.970199 0)
(1.96259 0.960398 0)
(1.9674 0.955008 0)
(1.97085 0.951692 0)
(1.97943 0.945279 0)
(3 3.00072e-15 0)
(3 1.92527e-15 0)
(3 2.25131e-15 0)
(3 3.05568e-15 0)
(3 2.0135e-15 0)
(3 9.73615e-17 0)
(3 -4.73072e-16 0)
(3 -1.19612e-15 0)
(3 1.65606e-15 0)
(3 1.55449e-09 0)
(2.99998 4.59093e-05 0)
(3.00362 0.0310039 0)
(2.51579 0.674064 0)
(1.95537 0.97858 0)
(1.93774 0.981746 0)
(1.94519 0.977453 0)
(1.95634 0.968098 0)
(1.96429 0.962726 0)
(1.97083 0.958007 0)
(1.97973 0.950093 0)
(3 2.65568e-15 0)
(3 9.72419e-16 0)
(3 1.56248e-15 0)
(3 9.78269e-16 0)
(3 -7.22025e-17 0)
(3 -7.61901e-16 0)
(3 -1.90959e-15 0)
(3 -3.16309e-15 0)
(3 -3.69248e-15 0)
(3 6.71436e-12 0)
(3 6.19797e-07 0)
(2.99961 0.00264113 0)
(2.89394 0.292986 0)
(2.16999 0.883337 0)
(1.94665 0.96875 0)
(1.94669 0.970803 0)
(1.95394 0.967966 0)
(1.96613 0.963333 0)
(1.97546 0.957568 0)
(1.98412 0.949425 0)
(2.60851 0.0239712 0)
(2.60924 0.0245035 0)
(2.61096 0.0260628 0)
(2.61257 0.0277578 0)
(2.61314 0.0282764 0)
(2.61329 0.0289506 0)
(2.61302 0.0292673 0)
(2.6129 0.0292701 0)
(2.61256 0.02921 0)
(2.61185 0.0296709 0)
(2.61096 0.0302005 0)
(2.60943 0.0306484 0)
(2.60606 0.0341365 0)
(2.60128 0.037789 0)
(2.59403 0.0385835 0)
(2.58674 0.0430839 0)
(2.58148 0.0465318 0)
(2.57818 0.0480751 0)
(2.57533 0.0475827 0)
(2.57458 0.0460771 0)
(2.57526 0.0450664 0)
(2.57678 0.0438602 0)
(2.57789 0.0435704 0)
(2.57955 0.0432335 0)
(2.58097 0.0432087 0)
(2.58176 0.0431433 0)
(2.58131 0.0423969 0)
(2.58057 0.0412762 0)
(2.58146 0.0411171 0)
(2.58249 0.0414612 0)
(2.58395 0.0420378 0)
(2.58561 0.0423388 0)
(2.58714 0.0424364 0)
(2.58829 0.042405 0)
(2.58912 0.0423499 0)
(2.58972 0.0420825 0)
(2.58912 0.0412071 0)
(2.58747 0.0397653 0)
(2.58732 0.0391677 0)
(2.58819 0.0393352 0)
(2.58906 0.039855 0)
(2.59009 0.0403868 0)
(1.97823 0.723439 0)
(1.98563 0.717374 0)
(1.99498 0.708951 0)
(2.0017 0.703428 0)
(2.00547 0.703061 0)
(2.0108 0.698969 0)
(2.02143 0.689522 0)
(2.03007 0.679648 0)
(2.03456 0.67818 0)
(2.03666 0.679104 0)
(2.04371 0.673221 0)
(2.05452 0.662178 0)
(2.0624 0.653968 0)
(2.06679 0.653229 0)
(2.07729 0.64807 0)
(2.08307 0.640082 0)
(2.08181 0.640634 0)
(2.05448 0.657912 0)
(1.95217 0.715764 0)
(1.87172 0.75655 0)
(1.84414 0.764961 0)
(1.8472 0.763089 0)
(1.85858 0.757332 0)
(1.87652 0.746927 0)
(1.89261 0.736476 0)
(1.90237 0.732377 0)
(1.91181 0.728004 0)
(1.92613 0.718659 0)
(1.94337 0.706152 0)
(1.95635 0.697906 0)
(1.96381 0.695126 0)
(1.9709 0.692205 0)
(1.98455 0.682966 0)
(2.00308 0.66796 0)
(2.01742 0.656636 0)
(2.02479 0.652981 0)
(2.02897 0.652501 0)
(2.03991 0.646048 0)
(2.05943 0.631469 0)
(2.07713 0.615529 0)
(2.08574 0.609751 0)
(2.08762 0.610179 0)
(2.09586 0.603018 0)
(2.11409 0.586756 0)
(2.12974 0.570646 0)