/*--------------------------------*- C++ -*----------------------------------*\
  =========                 |
  \\      /  F ield         | OpenFOAM: The Open Source CFD Toolbox
   \\    /   O peration     | Website:  https://openfoam.org
    \\  /    A nd           | Version:  7
     \\/     M anipulation  |
\*---------------------------------------------------------------------------*/
FoamFile
{
    version     2.0;
    format      ascii;
    class       volScalarField;
    location    "2.7";
    object      p;
}
// * * * * * * * * * * * * * * * * * * * * * * * * * * * * * * * * * * * * * //

dimensions      [1 -1 -2 0 0 0 0];

internalField   nonuniform List<scalar> 
16512
(
0.27086
0.2994
0.333272
0.365305
0.38883
0.403934
0.425246
0.471105
0.548765
0.588741
0.611907
0.633685
0.650661
0.669611
0.679722
0.693867
0.717785
0.752633
0.792373
0.819192
0.836491
0.85436
0.868913
0.875738
0.880073
0.894341
0.933299
0.982172
0.997666
0.997365
0.997708
0.993269
0.99306
1.00631
1.02099
1.04609
1.0856
1.10589
1.11233
1.11494
1.11105
1.11443
1.12252
1.13445
1.15292
1.17858
1.19796
1.20357
1.2017
1.19607
1.19318
1.19528
1.2047
1.22462
1.24141
1.2453
1.24587
1.24382
1.24197
1.24314
1.24796
1.26243
1.27444
1.27746
1.2791
1.2806
1.28171
1.28422
1.28783
1.29411
1.30144
1.30375
1.30446
1.30498
1.30527
1.30502
1.30474
1.3059
1.30979
1.31628
1.32153
1.32361
1.32452
1.32507
1.32527
1.32567
1.32749
1.33221
1.33981
1.34484
1.34437
1.34243
1.33982
1.33824
1.33888
1.34077
1.34463
1.34967
1.35123
1.35152
1.35153
1.35069
1.34931
1.34862
1.34835
2.27619
5.24968
5.82388
5.96024
6.07666
6.15882
6.216
6.2612
6.30594
6.35614
6.4124
6.46379
6.50036
6.52863
6.55157
6.57506
6.60047
6.62564
6.65113
6.68017
6.70857
6.73019
6.74304
6.74998
6.75907
6.77542
6.7995
6.82501
6.84528
6.8591
6.86951
6.87889
6.88724
6.89355
6.89845
6.90386
6.91173
6.92231
6.93428
6.94534
6.95294
6.95638
6.95761
6.95952
6.96252
6.9655
6.96736
6.9661
6.96204
6.95933
6.96084
6.96654
6.97485
6.98123
6.98338
6.98052
6.97249
6.96131
6.95024
6.94269
6.94198
6.94803
6.96
6.97027
6.97023
6.95812
6.94622
6.94027
6.94457
6.95465
6.96437
0.157254
0.187194
0.219654
0.252539
0.292203
0.33087
0.363964
0.400681
0.456872
0.509363
0.540912
0.562281
0.58326
0.617427
0.64421
0.659637
0.686858
0.731314
0.77941
0.804228
0.818186
0.831284
0.839436
0.848356
0.858758
0.880292
0.918889
0.95269
0.976721
0.989362
0.992624
0.994979
0.995392
1.00405
1.01099
1.02652
1.06328
1.08898
1.09779
1.1055
1.11351
1.12168
1.12858
1.13699
1.15295
1.17699
1.18662
1.18813
1.1864
1.18303
1.18318
1.18741
1.19703
1.21368
1.23242
1.23973
1.24167
1.24236
1.24235
1.24555
1.25426
1.26577
1.27143
1.27456
1.2768
1.27644
1.2772
1.27998
1.2842
1.29149
1.29833
1.29996
1.30068
1.30131
1.30206
1.30262
1.30415
1.30756
1.31351
1.31997
1.32233
1.3228
1.32242
1.32318
1.32434
1.32536
1.32722
1.33152
1.3375
1.34035
1.33959
1.33897
1.33808
1.33738
1.33822
1.34017
1.34334
1.34757
1.34902
1.34941
1.34965
1.34976
1.35032
1.35105
1.35135
2.18129
5.17715
5.84808
5.9732
6.08447
6.16692
6.22916
6.27887
6.32423
6.37283
6.4251
6.47241
6.50683
6.53462
6.55785
6.5821
6.60861
6.63419
6.6582
6.684
6.71023
6.7311
6.74537
6.75501
6.76583
6.78184
6.80388
6.82733
6.84649
6.86003
6.87085
6.88121
6.89074
6.89774
6.9023
6.90664
6.91347
6.92361
6.93591
6.94778
6.95606
6.95933
6.95949
6.95962
6.96191
6.96536
6.96843
6.96918
6.96712
6.96416
6.96391
6.967
6.97275
6.97796
6.9798
6.97754
6.97113
6.96266
6.95461
6.94925
6.94835
6.95122
6.95777
6.96387
6.96294
6.95486
6.94745
6.94395
6.94833
6.95526
6.96407
0.159032
0.173267
0.172738
0.184675
0.214401
0.253244
0.289082
0.317176
0.342192
0.382674
0.424138
0.46687
0.50709
0.543123
0.584673
0.623241
0.664788
0.715006
0.765484
0.797033
0.808996
0.820462
0.828149
0.839286
0.859623
0.893445
0.93442
0.963305
0.982361
0.988204
0.988658
0.988383
0.986967
0.993925
1.00458
1.0253
1.06822
1.09652
1.10455
1.11077
1.11631
1.12152
1.12318
1.1251
1.13951
1.1711
1.18959
1.19437
1.1987
1.20229
1.20326
1.20449
1.20688
1.21263
1.22308
1.22745
1.23034
1.23501
1.24242
1.25339
1.27022
1.28413
1.28696
1.28709
1.28473
1.27734
1.27144
1.27194
1.27684
1.28756
1.29931
1.30276
1.30385
1.30394
1.30197
1.30027
1.3
1.30299
1.31172
1.32083
1.32395
1.32552
1.32542
1.32442
1.32519
1.32648
1.32932
1.33537
1.34099
1.34182
1.34112
1.34046
1.33913
1.33808
1.33887
1.34092
1.34388
1.34691
1.34764
1.34777
1.34684
1.34666
1.3479
1.34992
1.3519
1.97079
5.03165
5.89381
5.99676
6.10384
6.18057
6.24001
6.28733
6.33057
6.37287
6.41634
6.45989
6.4952
6.52272
6.54691
6.57377
6.60432
6.63441
6.66219
6.68441
6.70331
6.71978
6.7343
6.74832
6.76441
6.78382
6.806
6.82717
6.8437
6.85538
6.86502
6.87538
6.88686
6.89761
6.905
6.90916
6.91311
6.92039
6.93166
6.94496
6.95637
6.96212
6.96221
6.95958
6.95843
6.95998
6.9632
6.96715
6.97007
6.97053
6.96951
6.969
6.96989
6.9717
6.97211
6.97084
6.96712
6.96234
6.95843
6.9562
6.9557
6.95556
6.95592
6.95693
6.95453
6.95045
6.94845
6.94851
6.95246
6.95569
6.96281
0.208139
0.199561
0.19963
0.209144
0.224274
0.227018
0.231688
0.235143
0.238787
0.250488
0.277427
0.327071
0.387369
0.435816
0.485289
0.543703
0.592552
0.638394
0.688033
0.727477
0.748473
0.766181
0.794609
0.820476
0.850057
0.884859
0.909824
0.929316
0.955683
0.970311
0.975742
0.981105
0.987827
0.996008
1.00864
1.03572
1.07652
1.09861
1.10288
1.10428
1.10184
1.10376
1.10876
1.11359
1.12604
1.15089
1.17573
1.18545
1.19064
1.19561
1.19871
1.20114
1.20634
1.21289
1.21763
1.22025
1.22316
1.22792
1.23648
1.24879
1.26201
1.27381
1.27823
1.27864
1.27764
1.27433
1.27096
1.27171
1.27646
1.28627
1.29724
1.30183
1.30338
1.30338
1.30072
1.29982
1.30094
1.3046
1.31283
1.31918
1.32142
1.32318
1.3238
1.32351
1.3249
1.32691
1.33048
1.33673
1.33974
1.34007
1.3397
1.33813
1.33608
1.33511
1.33599
1.33821
1.34184
1.3456
1.34692
1.3474
1.34676
1.34693
1.34827
1.3503
1.35247
1.6662
4.74399
6.00573
6.06282
6.14552
6.20066
6.25231
6.30004
6.34531
6.39011
6.43434
6.47342
6.50494
6.52755
6.54813
6.5733
6.60537
6.63905
6.66955
6.69204
6.70647
6.71841
6.73025
6.7447
6.76253
6.7834
6.80634
6.82803
6.84495
6.856
6.86355
6.8718
6.88315
6.89636
6.90739
6.91364
6.91641
6.92042
6.92902
6.94211
6.95545
6.96393
6.96607
6.96313
6.95895
6.95712
6.95904
6.96437
6.97113
6.97523
6.97528
6.9722
6.96818
6.96598
6.96443
6.96434
6.96413
6.96347
6.96278
6.96199
6.961
6.95864
6.95464
6.95152
6.94787
6.94658
6.94839
6.95122
6.9552
6.95629
6.96275
0.27649
0.268798
0.275064
0.283359
0.282751
0.279118
0.272437
0.264865
0.262751
0.268221
0.280823
0.290171
0.299531
0.309558
0.322585
0.351916
0.382009
0.413393
0.464581
0.537826
0.618829
0.679696
0.735084
0.781041
0.814858
0.849872
0.872735
0.887392
0.914405
0.93187
0.943521
0.961124
0.977065
0.994847
1.01572
1.04268
1.0678
1.08686
1.09617
1.09664
1.09396
1.09414
1.10163
1.11089
1.12076
1.13988
1.17134
1.18825
1.19295
1.19498
1.19631
1.1967
1.1984
1.20381
1.21052
1.21764
1.22632
1.23553
1.24663
1.25707
1.26214
1.26405
1.26488
1.26398
1.26263
1.26477
1.26995
1.27885
1.29004
1.29924
1.30304
1.30287
1.29976
1.29416
1.29115
1.29277
1.29809
1.30743
1.31723
1.32123
1.32289
1.32376
1.32225
1.32053
1.32201
1.32498
1.3302
1.33618
1.33778
1.33819
1.33784
1.3359
1.33442
1.33453
1.33633
1.33945
1.34498
1.34996
1.35177
1.35239
1.35127
1.34801
1.34638
1.34653
1.34722
1.40903
4.38791
6.09569
6.12478
6.18885
6.2332
6.27881
6.31644
6.35301
6.39147
6.43052
6.46567
6.49469
6.51846
6.53945
6.56339
6.59322
6.6251
6.65455
6.6796
6.69891
6.71508
6.72918
6.74205
6.75559
6.77172
6.79236
6.81677
6.84029
6.85734
6.86652
6.87185
6.8789
6.88982
6.90267
6.91374
6.92084
6.92518
6.9304
6.93937
6.95112
6.96149
6.96761
6.96873
6.96497
6.95957
6.95697
6.95959
6.96668
6.97528
6.97918
6.97737
6.97013
6.96323
6.95837
6.95831
6.96083
6.96364
6.96499
6.96422
6.96222
6.95909
6.95422
6.95016
6.9455
6.94417
6.94732
6.95126
6.95544
6.95605
6.96282
0.362106
0.361238
0.363096
0.360536
0.356571
0.346752
0.33321
0.322456
0.320177
0.320354
0.322004
0.32175
0.323456
0.331551
0.334222
0.329374
0.328429
0.331062
0.34058
0.364323
0.409823
0.46853
0.528367
0.60569
0.671313
0.720392
0.767732
0.801779
0.845895
0.879915
0.911839
0.939028
0.95861
0.9827
1.0102
1.03043
1.04827
1.0674
1.07935
1.08104
1.07735
1.07877
1.09174
1.11027
1.12391
1.13941
1.16202
1.17478
1.17845
1.18028
1.1809
1.18152
1.18384
1.18981
1.20072
1.21666
1.23275
1.24358
1.24844
1.24972
1.24947
1.24926
1.25034
1.25382
1.25848
1.26593
1.27884
1.29222
1.2967
1.29688
1.29561
1.2933
1.29071
1.28839
1.28952
1.29472
1.30565
1.31665
1.32027
1.32129
1.32154
1.31969
1.31613
1.31537
1.31775
1.32176
1.32822
1.33235
1.33294
1.33298
1.33168
1.32984
1.33035
1.33243
1.33606
1.34217
1.34888
1.35159
1.35187
1.35012
1.3452
1.34045
1.33927
1.33996
1.34216
1.35033
3.86186
6.13019
6.23262
6.25647
6.27582
6.30127
6.32914
6.36176
6.39913
6.43791
6.47392
6.50264
6.52432
6.54456
6.56643
6.59357
6.62313
6.65128
6.67697
6.69829
6.71801
6.73515
6.74828
6.7577
6.76768
6.78293
6.80572
6.83242
6.85548
6.86961
6.87596
6.88037
6.88731
6.89793
6.91017
6.92081
6.92863
6.93476
6.94094
6.94835
6.95661
6.96433
6.96999
6.97095
6.96619
6.95921
6.95624
6.95945
6.96893
6.97816
6.98112
6.97529
6.96514
6.9562
6.95408
6.95756
6.96224
6.96455
6.96315
6.95996
6.957
6.95362
6.95161
6.94779
6.94462
6.94589
6.94942
6.95374
6.9548
6.96211
0.452837
0.457761
0.45324
0.436994
0.430723
0.425453
0.409094
0.389023
0.381671
0.381582
0.387459
0.392432
0.389602
0.385396
0.381476
0.372278
0.36221
0.359422
0.359915
0.366708
0.375811
0.383533
0.392207
0.409039
0.438201
0.472983
0.52627
0.59438
0.670857
0.760707
0.827095
0.87985
0.917342
0.947909
0.986207
0.998126
1.00583
1.02177
1.03987
1.05183
1.05776
1.06808
1.08688
1.1107
1.13285
1.14723
1.15784
1.1586
1.15656
1.15712
1.16117
1.16724
1.17383
1.18264
1.19583
1.21556
1.23018
1.23893
1.24093
1.24041
1.23935
1.23965
1.24387
1.25166
1.2607
1.27142
1.28273
1.28807
1.28864
1.28841
1.28683
1.28516
1.28551
1.28803
1.29388
1.30317
1.31012
1.31293
1.31415
1.31483
1.315
1.31421
1.31422
1.31712
1.32073
1.32641
1.33237
1.33345
1.33349
1.33305
1.33159
1.33089
1.33181
1.33377
1.33739
1.34296
1.34613
1.34679
1.34659
1.34447
1.34136
1.34066
1.34155
1.34422
1.34957
1.35386
3.34465
6.09461
6.29729
6.29376
6.30553
6.32049
6.34171
6.37037
6.40679
6.44511
6.47846
6.50186
6.51874
6.5346
6.55427
6.57908
6.60652
6.6331
6.65747
6.67977
6.70176
6.72341
6.74111
6.75237
6.76138
6.77348
6.79295
6.81863
6.8432
6.86079
6.87095
6.87756
6.88461
6.89421
6.90542
6.91616
6.92594
6.93514
6.9432
6.94984
6.95548
6.96097
6.96738
6.9718
6.97061
6.96437
6.95694
6.95482
6.96083
6.97242
6.98087
6.98046
6.97108
6.95981
6.95359
6.95454
6.95835
6.9606
6.95932
6.95645
6.95472
6.95385
6.95408
6.95175
6.94701
6.94517
6.94688
6.95128
6.95323
6.96067
0.56677
0.570941
0.568542
0.5426
0.511963
0.500842
0.485956
0.459105
0.445056
0.442823
0.444978
0.450665
0.447791
0.439379
0.435182
0.431811
0.423306
0.414116
0.412007
0.410944
0.411478
0.409494
0.408546
0.412913
0.412856
0.413698
0.417965
0.431274
0.459408
0.513818
0.58233
0.650334
0.730331
0.789085
0.848199
0.896605
0.932009
0.965372
0.993638
1.01888
1.04102
1.06242
1.08183
1.10503
1.12912
1.14458
1.1509
1.14694
1.13744
1.13694
1.14526
1.15645
1.16793
1.17904
1.19365
1.21412
1.22182
1.22405
1.22394
1.22406
1.22695
1.23228
1.24035
1.24995
1.26225
1.2743
1.28027
1.28018
1.27772
1.27557
1.27633
1.27916
1.28302
1.28852
1.29804
1.30605
1.30848
1.30901
1.30943
1.31018
1.31079
1.31183
1.3141
1.31789
1.32195
1.32706
1.33051
1.331
1.33093
1.33057
1.32997
1.33011
1.33115
1.33266
1.33567
1.34029
1.34231
1.34308
1.34341
1.34288
1.34323
1.34439
1.34605
1.34849
1.35126
1.35252
2.86699
5.97962
6.33514
6.32183
6.32906
6.3399
6.36151
6.39096
6.42245
6.45131
6.47441
6.49233
6.50835
6.52672
6.54921
6.57544
6.60257
6.62768
6.65069
6.6735
6.69565
6.71659
6.73396
6.74692
6.75658
6.76878
6.78694
6.81097
6.8354
6.85392
6.86606
6.87477
6.88378
6.8943
6.90494
6.91411
6.9223
6.93123
6.94104
6.95007
6.95696
6.96117
6.96506
6.96873
6.96945
6.96607
6.96022
6.95508
6.95651
6.96544
6.97615
6.98124
6.97652
6.96641
6.95684
6.9529
6.9529
6.9537
6.95321
6.95256
6.95343
6.95544
6.95684
6.95514
6.94875
6.9449
6.94513
6.94876
6.95215
6.95824
0.681083
0.67687
0.678552
0.661721
0.620899
0.578108
0.559123
0.540002
0.517356
0.512663
0.514635
0.521081
0.519734
0.506871
0.488814
0.483022
0.47919
0.470233
0.462295
0.460723
0.462555
0.462667
0.456226
0.449383
0.446573
0.440676
0.438405
0.441323
0.445008
0.448285
0.454776
0.467088
0.493067
0.53202
0.583333
0.662684
0.74692
0.833611
0.915987
0.980182
1.00891
1.03037
1.0504
1.07653
1.11008
1.12436
1.12841
1.13431
1.13436
1.12798
1.1355
1.14542
1.15528
1.16817
1.18969
1.20557
1.2075
1.20956
1.21096
1.21724
1.22549
1.23292
1.24017
1.24979
1.26325
1.26936
1.26925
1.26734
1.2649
1.26555
1.26949
1.27488
1.2814
1.29102
1.30009
1.30358
1.30352
1.30245
1.30301
1.30575
1.30885
1.31141
1.31356
1.3161
1.3208
1.32546
1.32731
1.32849
1.32908
1.32936
1.32936
1.32936
1.33004
1.33135
1.33396
1.33817
1.34025
1.34111
1.34149
1.3414
1.34223
1.34331
1.34469
1.3469
1.34974
1.34999
2.45714
5.80746
6.37232
6.35502
6.36222
6.37046
6.38579
6.4055
6.42731
6.44801
6.46652
6.48298
6.49895
6.51703
6.53862
6.56341
6.58905
6.61288
6.63387
6.65324
6.67412
6.69635
6.71633
6.73124
6.74268
6.7566
6.7748
6.79685
6.81889
6.83678
6.8507
6.86234
6.87429
6.88727
6.89942
6.90891
6.91613
6.92319
6.93246
6.94394
6.95509
6.96289
6.96588
6.96578
6.96451
6.96263
6.96063
6.95866
6.95802
6.96204
6.97019
6.97724
6.97778
6.97174
6.96212
6.95387
6.94875
6.94672
6.94678
6.94897
6.953
6.9573
6.9589
6.95599
6.94849
6.94456
6.94467
6.94763
6.95089
6.95472
0.840941
0.78971
0.772497
0.761359
0.731148
0.675079
0.634888
0.626813
0.614165
0.591351
0.584746
0.588336
0.589868
0.579088
0.552974
0.530494
0.52869
0.526626
0.516146
0.509633
0.510062
0.512706
0.509636
0.499579
0.49619
0.490989
0.48072
0.477213
0.476306
0.473958
0.469267
0.470674
0.471077
0.472157
0.47594
0.489249
0.516761
0.562204
0.633115
0.716688
0.805794
0.870963
0.932236
0.981551
1.0283
1.07022
1.09675
1.12
1.13121
1.13301
1.13065
1.13433
1.14227
1.15546
1.17927
1.1947
1.1994
1.20231
1.20336
1.21101
1.21764
1.22249
1.23036
1.24653
1.25681
1.25915
1.26009
1.25806
1.25811
1.26102
1.26465
1.26913
1.27796
1.29012
1.29656
1.29754
1.29771
1.29686
1.29921
1.30265
1.30605
1.30903
1.31189
1.31493
1.3189
1.32155
1.32323
1.32551
1.3276
1.32839
1.32829
1.32781
1.32772
1.329
1.33245
1.33745
1.33966
1.34048
1.34084
1.34019
1.34033
1.34114
1.34208
1.34351
1.34605
1.34751
2.11397
5.61866
6.3972
6.38194
6.38735
6.39636
6.40793
6.41891
6.4305
6.44467
6.46334
6.48287
6.5018
6.52039
6.53933
6.55915
6.58003
6.60085
6.62087
6.64138
6.66224
6.68143
6.69705
6.71219
6.72667
6.74325
6.76286
6.78508
6.80647
6.82455
6.8381
6.85042
6.86456
6.88045
6.89555
6.90703
6.91371
6.91812
6.92434
6.93488
6.9481
6.95979
6.96584
6.96512
6.96066
6.95731
6.9572
6.95939
6.96141
6.96301
6.966
6.97103
6.9738
6.97164
6.96469
6.9557
6.94749
6.94286
6.94276
6.94668
6.95283
6.95786
6.9587
6.9541
6.94649
6.9438
6.94498
6.94757
6.94959
6.95061
1.00757
0.939992
0.87875
0.856912
0.834626
0.784105
0.720104
0.704125
0.701778
0.687997
0.66198
0.65592
0.65676
0.647206
0.622813
0.593662
0.583388
0.584076
0.579527
0.565484
0.559347
0.561216
0.561241
0.551286
0.539915
0.536156
0.528398
0.519725
0.519646
0.519399
0.513654
0.505083
0.499813
0.494067
0.492732
0.494272
0.495301
0.497258
0.503847
0.518102
0.550675
0.603704
0.680218
0.782869
0.876064
0.967146
1.02467
1.05838
1.09521
1.1071
1.10267
1.10209
1.11356
1.14028
1.16687
1.18507
1.19415
1.19737
1.19391
1.19149
1.19403
1.19733
1.21087
1.23578
1.24966
1.25586
1.26132
1.2612
1.2599
1.25969
1.25995
1.26281
1.27388
1.28563
1.29004
1.29263
1.29363
1.29369
1.29581
1.29767
1.29977
1.30322
1.30864
1.31442
1.31737
1.31826
1.32021
1.32227
1.32401
1.32528
1.32526
1.32466
1.32472
1.32648
1.33076
1.33657
1.33904
1.33962
1.33997
1.33947
1.33758
1.33738
1.33775
1.33829
1.34033
1.34342
1.83391
5.39184
6.43245
6.41642
6.41181
6.4123
6.41863
6.42369
6.43084
6.44343
6.46101
6.48028
6.49868
6.51415
6.52771
6.54211
6.55903
6.57784
6.59778
6.62031
6.64489
6.66556
6.6814
6.69373
6.70504
6.72029
6.74025
6.76304
6.78541
6.80462
6.82056
6.83411
6.84747
6.86251
6.87851
6.89237
6.90233
6.90878
6.91435
6.92272
6.9355
6.94979
6.96007
6.9626
6.95874
6.95387
6.95315
6.95689
6.96215
6.96516
6.96566
6.966
6.96688
6.96628
6.96223
6.95546
6.94812
6.94326
6.94303
6.94697
6.95257
6.95619
6.95532
6.94975
6.94356
6.94264
6.94553
6.94791
6.94818
6.94683
1.15384
1.10103
1.01099
0.94798
0.928608
0.893041
0.838794
0.792368
0.782282
0.781094
0.760292
0.731229
0.722065
0.713514
0.693074
0.661236
0.641197
0.638605
0.638676
0.631212
0.614742
0.609371
0.60961
0.603678
0.585906
0.577753
0.573756
0.564579
0.559934
0.560816
0.559123
0.551365
0.545188
0.539162
0.532748
0.527404
0.521393
0.51426
0.5097
0.511068
0.515764
0.523602
0.535518
0.561261
0.605114
0.666751
0.753164
0.827357
0.909577
0.978282
1.02457
1.04996
1.07902
1.13688
1.17396
1.18698
1.18878
1.1834
1.17132
1.16168
1.16285
1.17619
1.19895
1.22955
1.24814
1.25483
1.25734
1.25656
1.25191
1.24884
1.24719
1.25391
1.27182
1.28268
1.28732
1.29111
1.29106
1.29014
1.28929
1.28912
1.29097
1.29782
1.30754
1.31551
1.31803
1.31883
1.31936
1.31858
1.3187
1.31943
1.31986
1.31997
1.32065
1.32334
1.32877
1.33501
1.33707
1.33733
1.33745
1.33691
1.3352
1.33375
1.33378
1.33415
1.33671
1.341
1.60553
5.10776
6.4564
6.4348
6.4243
6.41979
6.41909
6.41973
6.42824
6.44408
6.46209
6.47944
6.49317
6.5032
6.51223
6.52238
6.53506
6.55073
6.57067
6.59601
6.62281
6.64522
6.66136
6.67202
6.68218
6.69698
6.71796
6.74239
6.76604
6.78683
6.80337
6.81627
6.82971
6.84562
6.86249
6.8786
6.8915
6.9006
6.90708
6.91416
6.92436
6.93746
6.94985
6.95659
6.95615
6.95225
6.95049
6.95362
6.95953
6.96425
6.96548
6.96372
6.96108
6.95837
6.95524
6.95127
6.94739
6.9453
6.94628
6.94946
6.95243
6.95276
6.94937
6.94418
6.94062
6.9416
6.94539
6.94756
6.9467
6.94376
1.2812
1.23974
1.17278
1.06472
1.0109
0.988698
0.951924
0.899043
0.871324
0.868231
0.857663
0.827127
0.792049
0.770079
0.752893
0.730655
0.706742
0.695981
0.694729
0.694895
0.685259
0.666156
0.656986
0.650442
0.635364
0.620219
0.617494
0.613823
0.604636
0.602391
0.602312
0.597514
0.587732
0.578704
0.570276
0.567174
0.563699
0.556229
0.546412
0.539094
0.538643
0.540271
0.543014
0.543249
0.543601
0.545744
0.554947
0.580595
0.62982
0.722914
0.831901
0.944098
1.03272
1.11193
1.15367
1.16311
1.1628
1.15013
1.13019
1.12823
1.14136
1.17442
1.20825
1.23247
1.24277
1.24507
1.24268
1.23333
1.22704
1.22718
1.23066
1.25084
1.27568
1.28607
1.28914
1.28862
1.28361
1.27984
1.27817
1.27846
1.28399
1.29717
1.30985
1.31586
1.31648
1.31636
1.31523
1.31319
1.31214
1.31298
1.31464
1.31663
1.32026
1.32458
1.32956
1.33298
1.33342
1.33343
1.33348
1.33333
1.33196
1.3307
1.33121
1.33241
1.33577
1.34033
1.42689
4.80642
6.46768
6.44464
6.42764
6.4192
6.41746
6.41863
6.4268
6.43736
6.44918
6.4621
6.47425
6.48538
6.49553
6.50489
6.51441
6.52677
6.54613
6.57345
6.60271
6.62743
6.64349
6.6516
6.65878
6.67072
6.69002
6.71479
6.74171
6.76632
6.78562
6.80021
6.81238
6.82468
6.83824
6.85366
6.86925
6.88238
6.89248
6.90083
6.91072
6.92279
6.93473
6.94363
6.94752
6.94736
6.94711
6.94966
6.95465
6.95973
6.96236
6.96188
6.95846
6.95319
6.94765
6.94446
6.94384
6.94554
6.94924
6.95257
6.95297
6.94938
6.94351
6.93863
6.93779
6.94068
6.94457
6.94619
6.94456
6.94102
1.41744
1.35397
1.306
1.2118
1.1166
1.08493
1.05871
1.01577
0.969723
0.94938
0.939989
0.920552
0.887409
0.842286
0.806123
0.790877
0.780317
0.763878
0.751389
0.750828
0.749979
0.735415
0.710576
0.695137
0.679837
0.662022
0.658415
0.658718
0.655594
0.647724
0.645117
0.64235
0.634462
0.619503
0.604749
0.600993
0.598805
0.593357
0.584919
0.579848
0.579555
0.578267
0.573357
0.566864
0.561563
0.553932
0.548608
0.548704
0.552355
0.567773
0.603572
0.670973
0.766511
0.851849
0.92369
0.975657
1.02702
1.05199
1.07112
1.0993
1.14168
1.20462
1.23934
1.24492
1.24415
1.23098
1.20775
1.19621
1.20085
1.21083
1.23304
1.2665
1.28488
1.28573
1.28495
1.27673
1.26473
1.26285
1.26414
1.26868
1.28515
1.30397
1.3112
1.31239
1.31159
1.31017
1.30827
1.30558
1.30557
1.3077
1.3108
1.31539
1.32113
1.32679
1.32898
1.32927
1.32885
1.32817
1.32788
1.32823
1.32872
1.32992
1.33159
1.33342
1.33725
1.34115
1.35065
4.43915
6.42061
6.43599
6.42514
6.41788
6.41668
6.41991
6.42664
6.43286
6.43869
6.44609
6.45589
6.46767
6.47992
6.49129
6.50143
6.51268
6.52924
6.55257
6.57979
6.60528
6.62316
6.63353
6.64171
6.65198
6.66688
6.68758
6.71304
6.73804
6.75895
6.77545
6.78907
6.802
6.81673
6.83195
6.84621
6.86057
6.87506
6.88767
6.89873
6.90974
6.92126
6.93052
6.93567
6.9379
6.94001
6.94386
6.94919
6.9542
6.95746
6.95827
6.95617
6.95092
6.94299
6.93735
6.93789
6.94223
6.94856
6.95341
6.95317
6.94738
6.93963
6.93488
6.93545
6.93939
6.94297
6.94365
6.9416
6.93793
1.57002
1.47836
1.41916
1.34599
1.25523
1.18749
1.16086
1.1309
1.0888
1.0454
1.01436
0.997513
0.973466
0.931789
0.874288
0.848573
0.847263
0.840383
0.822849
0.805877
0.802946
0.797815
0.776051
0.745832
0.727219
0.710694
0.70038
0.699736
0.702194
0.699309
0.691443
0.683575
0.675428
0.663116
0.645366
0.634326
0.632326
0.630355
0.624793
0.617386
0.614893
0.613688
0.609926
0.602113
0.593219
0.584631
0.574379
0.56673
0.566115
0.568968
0.574325
0.580567
0.592385
0.61078
0.641792
0.691952
0.770203
0.869637
0.962137
1.05415
1.11734
1.18722
1.21461
1.21796
1.21492
1.19096
1.1685
1.17088
1.18663
1.21789
1.2564
1.28505
1.28868
1.2823
1.26738
1.25112
1.24543
1.24779
1.25325
1.26966
1.29478
1.30559
1.30644
1.30567
1.30123
1.29935
1.29953
1.29934
1.3002
1.30454
1.31035
1.31602
1.32143
1.32404
1.32456
1.32489
1.3253
1.32426
1.32373
1.32425
1.32481
1.32594
1.32942
1.33507
1.34089
1.34265
1.3424
4.04917
6.35039
6.41924
6.41621
6.41473
6.41668
6.42173
6.42733
6.42899
6.42883
6.43202
6.44022
6.45271
6.46702
6.48012
6.49085
6.50141
6.51483
6.53247
6.55318
6.57421
6.59265
6.60824
6.62174
6.63472
6.64899
6.66611
6.68588
6.70687
6.72764
6.7463
6.76216
6.77715
6.79247
6.80799
6.82265
6.83635
6.84827
6.86277
6.87846
6.89355
6.9058
6.91457
6.92007
6.92322
6.92646
6.93189
6.93904
6.94571
6.95023
6.95237
6.95215
6.94872
6.94141
6.93307
6.93114
6.93566
6.94324
6.95023
6.95189
6.94689
6.93878
6.93333
6.9334
6.93704
6.94006
6.94003
6.93775
6.934
1.70945
1.62509
1.53796
1.46171
1.39692
1.32392
1.26201
1.23119
1.20231
1.15689
1.09796
1.06639
1.04607
1.01271
0.962322
0.921051
0.91088
0.910376
0.902296
0.883377
0.861431
0.84851
0.829344
0.793871
0.773526
0.766776
0.756218
0.746206
0.745755
0.746566
0.741616
0.729584
0.711509
0.695842
0.681866
0.672013
0.669281
0.66877
0.665852
0.659983
0.653746
0.647598
0.640471
0.631926
0.620643
0.6145
0.611266
0.606155
0.598856
0.595844
0.594707
0.591296
0.590541
0.588748
0.585588
0.587486
0.599677
0.640983
0.714946
0.81621
0.921514
1.0105
1.08518
1.10736
1.12552
1.13307
1.14117
1.15806
1.19253
1.23541
1.26571
1.27713
1.27569
1.26183
1.24176
1.23008
1.23359
1.2434
1.258
1.27976
1.29688
1.29869
1.29675
1.29161
1.28777
1.2904
1.29376
1.29622
1.29988
1.30515
1.31116
1.31616
1.31864
1.31903
1.31889
1.31954
1.32039
1.31928
1.31914
1.31947
1.31954
1.32125
1.32745
1.33748
1.3431
1.344
1.34282
3.6485
6.2757
6.41175
6.41153
6.41262
6.41503
6.41848
6.42082
6.42027
6.42029
6.42267
6.42766
6.4377
6.45095
6.46445
6.47634
6.48677
6.49699
6.50832
6.52204
6.53953
6.5606
6.58298
6.60369
6.62123
6.63572
6.64873
6.66244
6.67866
6.69765
6.71704
6.73542
6.75319
6.76957
6.7842
6.79798
6.81081
6.82351
6.83755
6.85408
6.87219
6.88868
6.90007
6.90524
6.90682
6.90917
6.9155
6.92501
6.9347
6.94182
6.94561
6.94683
6.94543
6.94033
6.93198
6.92611
6.92761
6.93468
6.94318
6.94809
6.94637
6.93982
6.93364
6.93181
6.93384
6.93599
6.93572
6.93347
6.92943
1.85424
1.76322
1.67399
1.58282
1.5265
1.46457
1.38047
1.31977
1.30072
1.2704
1.21147
1.1395
1.1038
1.07916
1.04897
1.01664
0.987199
0.971296
0.966113
0.956375
0.934801
0.904364
0.873488
0.840079
0.824935
0.822306
0.815827
0.804158
0.791757
0.787853
0.784284
0.774378
0.754439
0.730961
0.720016
0.712487
0.707653
0.705652
0.702982
0.698807
0.693172
0.684059
0.670967
0.656909
0.646663
0.644123
0.644888
0.643949
0.639132
0.633009
0.627552
0.620885
0.610669
0.602722
0.597866
0.59644
0.598051
0.600422
0.607965
0.627012
0.669209
0.724554
0.798405
0.881849
0.962554
1.04573
1.09781
1.13689
1.17288
1.22184
1.23921
1.2404
1.23763
1.2279
1.21681
1.21986
1.23117
1.24471
1.26293
1.28311
1.28966
1.28645
1.28219
1.27697
1.27682
1.2833
1.28901
1.29308
1.30008
1.30766
1.31176
1.31326
1.31356
1.31353
1.31418
1.31492
1.31525
1.31402
1.31405
1.31452
1.31492
1.31802
1.32747
1.33796
1.34149
1.34247
1.34072
3.25779
6.17949
6.41565
6.41562
6.41596
6.41535
6.4146
6.41353
6.41182
6.41005
6.41006
6.41216
6.41782
6.42788
6.44116
6.45506
6.46719
6.47673
6.484
6.4923
6.50656
6.5293
6.55718
6.58491
6.60714
6.62053
6.62707
6.63338
6.64559
6.66475
6.68637
6.70721
6.72602
6.74272
6.75851
6.77262
6.78426
6.79603
6.80974
6.82704
6.84636
6.86504
6.87943
6.88711
6.88902
6.89001
6.89532
6.90594
6.91858
6.92885
6.93499
6.93773
6.93823
6.93594
6.93014
6.92312
6.92039
6.92474
6.93346
6.94136
6.94405
6.94061
6.9344
6.93002
6.92942
6.93037
6.93
6.92824
6.92362
1.99568
1.90222
1.81166
1.70822
1.64789
1.58777
1.50597
1.42371
1.39162
1.36092
1.3122
1.24348
1.17347
1.14472
1.12752
1.10629
1.08044
1.05119
1.02953
1.01864
1.00001
0.96553
0.922792
0.888921
0.879889
0.878433
0.874161
0.864457
0.850654
0.83344
0.818132
0.806245
0.792051
0.773633
0.759706
0.754077
0.751173
0.746933
0.740196
0.73492
0.729976
0.721082
0.703373
0.681298
0.673777
0.672972
0.674552
0.676901
0.675062
0.669805
0.662898
0.652902
0.636794
0.625086
0.621743
0.622247
0.621212
0.619809
0.619932
0.619926
0.617262
0.615938
0.622023
0.644852
0.688592
0.771134
0.875693
0.97667
1.0661
1.12368
1.16503
1.18156
1.19612
1.21207
1.21556
1.22053
1.22696
1.24083
1.26022
1.26799
1.26833
1.27026
1.2705
1.27013
1.27516
1.27877
1.28168
1.28576
1.29395
1.30432
1.30834
1.30991
1.31215
1.31412
1.3139
1.31272
1.31052
1.30853
1.30889
1.31046
1.31269
1.31825
1.32907
1.33604
1.33804
1.33898
1.33626
2.88668
6.0659
6.43122
6.42247
6.41669
6.40805
6.40012
6.39578
6.39638
6.39852
6.39852
6.39601
6.39486
6.39959
6.4112
6.42701
6.44249
6.45397
6.46044
6.4659
6.47814
6.50183
6.53325
6.56436
6.58669
6.59693
6.59897
6.60246
6.61533
6.63706
6.66136
6.68371
6.70199
6.71717
6.73164
6.74542
6.75859
6.7705
6.78276
6.79784
6.81662
6.83704
6.85447
6.86527
6.86926
6.87079
6.87589
6.88578
6.89943
6.9125
6.92132
6.92573
6.92787
6.92848
6.9263
6.92093
6.91576
6.91622
6.9233
6.93257
6.93888
6.93896
6.93375
6.92761
6.92452
6.92429
6.92422
6.92345
6.91866
2.1325
2.0377
1.94744
1.83562
1.75891
1.70401
1.62082
1.54056
1.49186
1.43807
1.38952
1.33844
1.27257
1.22207
1.19986
1.18744
1.16844
1.13489
1.09777
1.0739
1.05428
1.02591
0.986594
0.948735
0.935327
0.932037
0.929888
0.92318
0.91245
0.894682
0.861956
0.831775
0.821273
0.815336
0.80794
0.798744
0.791986
0.787591
0.780385
0.770652
0.763345
0.754868
0.739214
0.716761
0.706255
0.704385
0.704116
0.706049
0.706644
0.704324
0.699356
0.687559
0.665445
0.65162
0.648882
0.648592
0.65023
0.648046
0.645462
0.642091
0.63603
0.625322
0.616632
0.61537
0.617713
0.629468
0.663823
0.723643
0.817792
0.914213
1.01269
1.08677
1.14758
1.18674
1.18815
1.19438
1.21082
1.22102
1.23567
1.2457
1.25082
1.25435
1.25907
1.26448
1.26717
1.26618
1.26757
1.27381
1.28496
1.2987
1.30587
1.30917
1.31079
1.31082
1.30941
1.30608
1.30253
1.30132
1.30319
1.30771
1.31473
1.32532
1.33236
1.33307
1.33261
1.33155
1.32723
2.54222
5.92526
6.46404
6.44303
6.42683
6.40536
6.38673
6.37631
6.37805
6.38368
6.38452
6.37882
6.37108
6.36876
6.37703
6.3944
6.41406
6.42952
6.43794
6.443
6.45483
6.47912
6.51105
6.54038
6.55876
6.5654
6.56552
6.57062
6.58782
6.61364
6.64065
6.66253
6.67611
6.68517
6.69695
6.71268
6.72948
6.74413
6.75743
6.77139
6.78713
6.80417
6.82116
6.83595
6.8458
6.85056
6.85464
6.86448
6.87881
6.89263
6.90282
6.90893
6.91258
6.91514
6.91643
6.91503
6.91104
6.90905
6.91327
6.92207
6.93041
6.9335
6.93006
6.92344
6.91847
6.91704
6.91718
6.91728
6.91333
2.26651
2.16151
2.07447
1.96805
1.86697
1.80575
1.72708
1.65502
1.59929
1.52772
1.46075
1.42379
1.38089
1.32076
1.27359
1.26147
1.24994
1.22442
1.18279
1.12996
1.09264
1.07039
1.04955
1.02621
1.0018
0.987202
0.981736
0.975949
0.964618
0.945483
0.911733
0.87107
0.85719
0.855363
0.853681
0.848043
0.839639
0.83004
0.818191
0.80243
0.789815
0.780796
0.770521
0.756833
0.744715
0.741417
0.739665
0.735148
0.730949
0.72901
0.724525
0.71305
0.693227
0.682691
0.68052
0.67903
0.679755
0.680023
0.676356
0.670841
0.66303
0.649564
0.634313
0.629525
0.629197
0.631234
0.634242
0.639561
0.652909
0.681347
0.726244
0.799577
0.882348
0.98073
1.04935
1.10739
1.15544
1.18713
1.2233
1.25286
1.26327
1.2652
1.26174
1.2566
1.25006
1.24611
1.25132
1.26391
1.28056
1.29778
1.30402
1.30528
1.30527
1.30342
1.2993
1.29347
1.29178
1.29289
1.29641
1.30597
1.31991
1.33015
1.33195
1.33098
1.32805
1.32246
1.31803
2.22713
5.75623
6.49403
6.45896
6.43222
6.39938
6.37069
6.35437
6.35811
6.36716
6.36709
6.35781
6.3445
6.33818
6.34492
6.36366
6.38601
6.40399
6.4141
6.42058
6.43427
6.4588
6.48785
6.51234
6.52623
6.52969
6.5293
6.53871
6.56207
6.59213
6.62042
6.63964
6.64755
6.65201
6.66279
6.68097
6.70109
6.7181
6.73163
6.74335
6.75607
6.7706
6.78563
6.80015
6.81363
6.82596
6.8356
6.8452
6.85669
6.87073
6.88174
6.88813
6.89251
6.89725
6.9021
6.90518
6.90497
6.90335
6.90502
6.9116
6.91982
6.92456
6.92303
6.91717
6.91166
6.90961
6.91012
6.91123
6.90861
2.38812
2.28937
2.18676
2.08383
1.987
1.91344
1.82418
1.74963
1.70271
1.63482
1.53958
1.49951
1.47354
1.42997
1.3736
1.33056
1.31203
1.29616
1.26451
1.21116
1.14559
1.1123
1.10434
1.09487
1.07792
1.05702
1.03759
1.0227
1.00763
0.986319
0.955837
0.923064
0.903474
0.896225
0.893836
0.89349
0.888334
0.879061
0.864902
0.839092
0.81116
0.802133
0.798819
0.794033
0.786962
0.781997
0.777434
0.769822
0.760363
0.754736
0.748512
0.736812
0.721918
0.71369
0.709208
0.706374
0.705358
0.706775
0.705444
0.700692
0.691456
0.67429
0.658788
0.655447
0.654137
0.651791
0.650639
0.649565
0.650884
0.650325
0.64827
0.65211
0.67083
0.720051
0.811274
0.912304
1.02743
1.11873
1.19148
1.22925
1.23765
1.24378