/*--------------------------------*- C++ -*----------------------------------*\
  =========                 |
  \\      /  F ield         | OpenFOAM: The Open Source CFD Toolbox
   \\    /   O peration     | Website:  https://openfoam.org
    \\  /    A nd           | Version:  7
     \\/     M anipulation  |
\*---------------------------------------------------------------------------*/
FoamFile
{
    version     2.0;
    format      ascii;
    class       volScalarField;
    location    "0.9";
    object      T;
}
// * * * * * * * * * * * * * * * * * * * * * * * * * * * * * * * * * * * * * //

dimensions      [0 0 0 1 0 0 0];

internalField   nonuniform List<scalar> 
16192
(
1
1
1
1
1
1
1
1
1
1
1
1
1
1
1
1
1
1.00004
1.02662
1.36325
1
1
1
1
1
1
1
1
1
1
1
1
1
1
1
1
1
1
1.0012
1.10825
1
1
1
1
1
1
1
1
1
1
1
1
1
1
1
1
1
1
1.00002
1.01208
1
1
1
1
1
1
1
1
1
1
1
1
1
1
1
1
1
1
1
1.00064
1
1
1
1
1
1
1
1
1
1
1
1
1
1
1
1
1
1
1
1.00002
1
1
1
1
1
1
1
1
1
1
1
1
1
1
1
1
1
1
1
1
1
1
1
1
1
1
1
1
1
1
1
1
1
1
1
1
1
1
1
1
1
1
1
1
1
1
1
1
1
1
1
1
1
1
1
1
1
1
1
1
1
1
1
1
1
1
1
1
1
1
1
1
1
1
1
1
1
1
1
1
1
1
1
1
1
1
1
1
1
1
1
1
1
1
1
1
1
1
1
1
1
1
1
1
1
1
1
1
1
1
1
1
1
1
1
1
1
1
1
1
1
1
1
1
1
1
1
1
1
1
1
1
1
1
1
1
1
1
1
1
1
1
1
1
1
1
1
1
1
1
1
1
1
1
1
1
1
1
1
1
1
1
1
1
1
1
1
1
1
1
1
1
1
1
1
1
1
1
1
1
1
1
1
1
1
1
1
1
1
1
1
1
1
1
1
1
1
1
1
1
1
1
1
1
1
1
1
1
1
1
1
1
1
1
1
1
1
1
1
1
1
1
1
1
1
1
1
1
1
1
1
1
1
1
1
1
1
1
1
1
1
1
1
1
1
1
1
1
1
1
1
1
1
1
1
1
1
1
1
1
1
1
1
1
1
1
1
1
1
1
1
1
1
1
1
1
1
1
1
1
1
1
1
1
1
1
1
1
1
1
1
1
1
1
1
1
1
1
1
1
1
1
1
1
1
1
1
1
1
1
1
1
1
1
1
1
1
1
1
1
1
1
1
1
1
1
1
1
1
1
1
1
1
1
1
1
1
1
1
1
1
1
1
1
1
1
1
1
1
1
1
1
1
1
1
1
1
1
1
1
1
1
1
1
1
1
1
1
1
1
1
1
1
1
1
1
1
1
1
1
1
1
1
1
1
1
1
1
1
1
1
1
1
1
1
1
1
1
1
1
1
1
1
1
1
1
1
1
1
1
1
1
1
1
1
1
1
1
1
1
1
1
1
1
1
1
1
1
1
1
1
1
1
1
1
1
1
1
1
1
1
1
1
1
1
1
1
1
1
1
1
1
1
1
1
1
1
1
1
1
1
1
1
1
1
1
1
1
1
1
1
1
1
1
1
1
1
1
1
1
1
1
1
1
1
1
1
1
1
1
1
1
1
1
1
1
1
1
1
1
1
1
1
1
1
1
1
1
1
1
1
1
1
1
1
1
1
1
1
1
1
1
1
1
1
1
1
1
1
1
1
1
1
1
1
1
1
1
1
1
1
1
1
1
1
1
1
1
1
1
1
1
1
1
1
1
1
1
1
1
1
1
1
1
1
1
1
1
1
1
1
1
1
1
1
1
1
1
1
1
1
1
1
1
1
1
1
1
1
1
1
1
1
1
1
1
1
1
1
1
1
1
1
1
1
1
1
1
1
1
1
1
1
1
1
1
1
1
1
1
1
1
1
1
1
1
1
1
1
1
1
1
1
1
1
1
1
1
1
1
1
1
1
1
1
1
1
1
1
1
1
1
1
1
1
1
1
1
1
1
1
1
1
1
1
1
1
1
1
1
1
1
1
1
1
1
1
1
1
1
1
1
1
1
1
1
1
1
1
1
1
1
1
1
1
1
1
1
1
1
1
1
1
1
1
1
1
1
1
1
1
1
1
1
1
1
1
1
1
1
1
1
1
1
1
1
1
1
1
1
1
1
1
1
1
1
1
1
1
1
1
1
1
1
1
1
1
1
1
1
1
1
1
1
1
1
1
1
1
1
1
1
1
1
1
1
1
1
1
1
1
1
1
1
1
1
1
1
1
1
1
1
1
1
1
1
1
1
1
1
1
1
1
1
1
1
1
1
1
1
1
1
1
1
1
1
1
1
1
1
1
1
1
1
1
1
1
1
1
1
1
1
1
1
1
1
1
1
1
1
1
1
1
1
1
1
1
1
1
1
1
1
1
1
1
1
1
1
1
1
1
1
1
1
1
1
1
1
1
1
1
1
1
1
1
1
1
1
1
1
1
1
1
1
1
1
1
1
1
1
1
1
1
1
1
1
1
1
1
1
1
1
1
1
1
1
1
1
1
1
1
1
1
1
1
1
1
1
1
1
1
1
1
1
1
1
1
1
1
1
1
1
1
1
1
1
1
1
1
1
1
1
1
1
1
1
1
1
1
1
1
1
1
1
1
1
1
1
1
1
1
1
1
1
1
1
1
1
1
1
1
1
1
1
1
1
1
1
1
1
1
1
1
1
1
1
1
1
1
1
1
1
1
1
1
1
1
1
1
1
1
1
1
1
1
1
1
1
1
1
1
1
1
1
1
1
1
1
1
1
1
1
1
1
1
1
1
1
1
1
1
1
1
1
1
1
1
1
1
1
1
1
1
1
1
1
1
1
1
1
1
1
1
1
1
1
1
1
1
1
1
1
1
1
1
1
1
1
1
1
1
1
1
1
1
1
1
1
1
1
1
1
1
1
1
1
1
1
1
1
1
1
1
1
1
1
1
1
1
1
1
1
1
1
1
1
1
1
1
1
1
1
1
1
1
1
1
1
1
1
1
1
1
1
1
1
1
1
1
1
1
1
1
1
1
1
1
1
1
1
1
1
1
1
1
1
1
1
1
1
1
1
1
1
1
1
1
1
1
1
1
1
1
1
1
1
1
1
1
1
1
1
1
1
1
1
1
1
1
1
1
1
1
1
1
1
1
1
1
1
1
1
1
1
1
1
1
1
1
1
1
1
1
1
1
1
1
1
1
1
1.6189
1.61765
1.61478
1.61031
1.60448
1.59694
1.58837
1.58108
1.57496
1.57133
1.57109
1.57249
1.57386
1.57306
1.57382
1.57395
1.57246
1.57045
1.5667
1.56063
1.55429
1.54893
1.54421
1.53923
1.5361
1.53396
1.53142
1.53014
1.52955
1.52845
1.5273
1.52622
1.52482
1.52244
1.51929
1.51535
1.5105
1.50541
1.50052
1.49549
1.49091
1.48949
1.48947
1.48937
1.48861
1.48736
1.48577
1.48376
1.48123
1.47776
1.4716
1.46349
1.45714
1.45584
1.45592
1.45621
1.45623
1.45597
1.45519
1.45319
1.44919
1.44552
1.44415
1.44301
1.44134
1.43912
1.43546
1.42883
1.42452
1.42352
1.42225
1.42086
1.4193
1.41673
1.41203
1.40729
1.40602
1.40592
1.40691
1.40926
1.4093
1.40849
1.4075
1.4055
1.40004
1.38985
1.38024
1.37685
1.37669
1.3779
1.38218
1.38443
1.3842
1.3842
1.38376
1.38177
1.37595
1.36741
1.36221
1.36111
1.36097
1.36138
1.36118
1.36099
1.36067
1.35966
1.35701
1.35089
1.34323
1.34097
1.34044
1.33996
1.33956
1.33896
1.33827
1.33732
1.33524
1.33078
1.32578
1.32436
1.32424
1.32438
1.32456
1.32436
1.32382
1.32222
1.31735
1.308
1.29823
1.29401
1.29302
1.29327
1.2958
1.30093
1.66534
1.72893
1.76213
1.77608
1.78729
1.7926
1.79346
1.79119
1.78473
1.7779
1.77637
1.77685
1.77973
1.78192
1.78118
1.77968
1.7772
1.77349
1.76951
1.76649
1.76397
1.76144
1.75913
1.75732
1.7558
1.75477
1.75394
1.75301
1.7519
1.75003
1.74694
1.74223
1.7366
1.73291
1.73249
1.73246
1.73234
1.73265
1.73239
1.73164
1.73075
1.72943
1.72744
1.72506
1.722
1.7186
1.71658
1.71486
1.71255
1.71251
1.71468
1.71867
1.72227
1.72771
1.73458
1.73814
1.73954
1.73925
1.73858
1.73649
1.73289
1.72969
1.72577
1.72285
1.72055
1.71694
1.71496
1.71315
1.71096
1.70815
1.70388
1.70298
1.70184
1.69837
1.69338
1.68895
1.6843
1.67909
1.67451
1.67045
1.66804
1.66582
1.66278
1.65981
1.65778
1.65461
1.65009
1.64358
1.63815
1.63485
1.6311
1.62751
1.62469
1.62269
1.62188
1.62137
1.62065
1.61916
1.61593
1.61018
1.60123
1.59045
1.58219
1.57582
1.57193
1.57159
1.57233
1.5752
1.57592
1.57653
1.57747
1.57679
1.57511
1.57204
1.56607
1.55859
1.55197
1.54695
1.54261
1.53818
1.53615
1.53507
1.53408
1.53355
1.53238
1.53105
1.53011
1.52892
1.52664
1.52344
1.51965
1.51525
1.51009
1.50529
1.50125
1.49716
1.49555
1.49557
1.49532
1.49437
1.49282
1.49101
1.48891
1.48631
1.48291
1.47709
1.46895
1.46238
1.46091
1.4611
1.46132
1.46135
1.46126
1.46064
1.45872
1.45467
1.4509
1.44951
1.44851
1.44692
1.44479
1.44167
1.43558
1.42976
1.42837
1.42712
1.42562
1.42392
1.42129
1.41671
1.41236
1.41134
1.41128
1.41255
1.41451
1.41435
1.41356
1.41256
1.4105
1.40488
1.39453
1.38486
1.38136
1.38115
1.3823
1.38672
1.3892
1.38907
1.38924
1.38895
1.38697
1.38102
1.37225
1.36644
1.3649
1.36448
1.36484
1.36469
1.364
1.36338
1.36256
1.36103
1.35732
1.35001
1.34582
1.34526
1.34455
1.34384
1.34311
1.34229
1.34116
1.33903
1.33488
1.33007
1.32855
1.32844
1.32909
1.32929
1.32886
1.32826
1.32629
1.32073
1.31051
1.30106
1.29728
1.29649
1.29671
1.2993
1.30438
1.30908
1.41503
1.63058
1.73103
1.77474
1.78204
1.78386
1.78431
1.78504
1.78338
1.78022
1.77768
1.77728
1.77745
1.77843
1.77958
1.77798
1.77545
1.77155
1.76699
1.76364
1.76156
1.75995
1.75844
1.75705
1.75537
1.75388
1.75328
1.75239
1.75102
1.74928
1.74666
1.74266
1.73693
1.73262
1.73135
1.73009
1.72991
1.73044
1.7304
1.73021
1.72995
1.72936
1.72808
1.72623
1.72367
1.72044
1.71822
1.71635
1.71295
1.71196
1.7131
1.71631
1.71963
1.7239
1.73108
1.73497
1.73685
1.7376
1.73724
1.73561
1.73246
1.7294
1.72656
1.72541
1.72398
1.72159
1.71853
1.71505
1.71177
1.7071
1.70376
1.70291
1.70061
1.69645
1.69124
1.68762
1.68365
1.67979
1.6773
1.67469
1.67203
1.66899
1.66446
1.66053
1.65708
1.65239
1.64685
1.64
1.63611
1.63348
1.63013
1.6272
1.62551
1.62453
1.62369
1.62288
1.62169
1.61981
1.61572
1.60701
1.59462
1.58374
1.57732
1.57371
1.57252
1.5728
1.57418
1.5767
1.57822
1.5792
1.5791
1.57796
1.57585
1.57107
1.56312
1.55552
1.5498
1.54517
1.54121
1.53808
1.53759
1.53747
1.53728
1.53656
1.53464
1.53343
1.53246
1.53036
1.52704
1.52317
1.51874
1.51376
1.50897
1.50543
1.50314
1.50152
1.50126
1.50087
1.49978
1.49797
1.4959
1.49366
1.49099
1.48765
1.48227
1.47419
1.46722
1.46543
1.4658
1.46625
1.46627
1.46628
1.4659
1.46414
1.46005
1.45611
1.45469
1.45377
1.45233
1.45035
1.44763
1.44237
1.43528
1.43299
1.43185
1.43035
1.42856
1.42585
1.42141
1.41741
1.41661
1.41658
1.41811
1.41989
1.4195
1.41867
1.41767
1.41566
1.41
1.39946
1.38958
1.38599
1.38574
1.38675
1.39128
1.39416
1.39399
1.39419
1.39408
1.39251
1.38656
1.37715
1.37085
1.36904
1.36831
1.36829
1.36813
1.36735
1.36662
1.3656
1.36409
1.3617
1.35748
1.3523
1.35014
1.34916
1.34823
1.34725
1.34617
1.34481
1.34266
1.33886
1.33441
1.33286
1.33272
1.33346
1.33412
1.33361
1.33283
1.33033
1.32402
1.31308
1.30414
1.30093
1.30031
1.30052
1.30331
1.30841
1.31227
1.31505
1.11147
1.36922
1.60642
1.74275
1.77562
1.77275
1.76936
1.76944
1.77431
1.7766
1.77553
1.77406
1.7731
1.77331
1.77386
1.77402
1.77264
1.76958
1.76633
1.76345
1.76105
1.75933
1.75802
1.75641
1.75443
1.75334
1.7526
1.75149
1.74991
1.74817
1.74596
1.74238
1.73671
1.73191
1.73035
1.7289
1.72869
1.72875
1.72873
1.72897
1.72904
1.72881
1.7277
1.72593
1.72404
1.72191
1.71981
1.71751
1.71418
1.71179
1.7122
1.71409
1.71707
1.72042
1.72618
1.73131
1.7343
1.73579
1.73631
1.7355
1.7332
1.73042
1.72848
1.72743
1.72633
1.72422
1.72061
1.71647
1.71182
1.70635
1.70435
1.70247
1.69923
1.69459
1.69016
1.68767
1.68429
1.68233
1.68096
1.67895
1.67607
1.67211
1.66596
1.66047
1.65573
1.65045
1.64422
1.63825
1.6357
1.63304
1.62997
1.62784
1.6269
1.62612
1.62506
1.62376
1.62211
1.61942
1.61262
1.60052
1.58747
1.5792
1.57657
1.57483
1.57421
1.57468
1.57598
1.57861
1.58018
1.58024
1.57939
1.57763
1.57425
1.56715
1.55841
1.5521
1.5476
1.54382
1.54119
1.53987
1.53993
1.54015
1.54
1.53869
1.53656
1.53531
1.53338
1.53015
1.52599
1.52126
1.51633
1.51179
1.50858
1.50701
1.50651
1.50632
1.50595
1.50479
1.50268
1.50032
1.49796
1.49525
1.49195
1.48704
1.47909
1.47161
1.46932
1.46971
1.47056
1.47083
1.4709
1.47067
1.46922
1.46518
1.46106
1.4596
1.45869
1.45738
1.4555
1.45309
1.44876
1.44128
1.43739
1.43637
1.43494
1.43306
1.43029
1.42606
1.42241
1.42177
1.42173
1.42325
1.42509
1.42461
1.42372
1.42268
1.42072
1.4152
1.40462
1.39441
1.39067
1.39039
1.39129
1.39579
1.39908
1.39898
1.39915
1.39906
1.39778
1.39238
1.38245
1.37535
1.37332
1.37255
1.372
1.37161
1.37086
1.37005
1.36908
1.36775
1.36579
1.36291
1.35945
1.35673
1.35435
1.35243
1.35112
1.3499
1.34843
1.34626
1.34276
1.33877
1.33738
1.33722
1.33796
1.33884
1.33835
1.33741
1.33429
1.32715
1.31565
1.3075
1.30485
1.3044
1.30468
1.30778
1.31299
1.31613
1.31777
1.31979
1.00743
1.07281
1.31124
1.63348
1.73359
1.74465
1.75388
1.75728
1.76115
1.76283
1.76455
1.76586
1.76691
1.76702
1.76712
1.76807
1.76793
1.76674
1.76536
1.76415
1.76254
1.76043
1.75833
1.7562
1.75361
1.75114
1.75044
1.74965
1.74844
1.74714
1.74527
1.74189
1.73578
1.73096
1.72943
1.72768
1.7273
1.72745
1.72762
1.72786
1.72782
1.72741
1.72641
1.72513
1.72404
1.72274
1.72107
1.71874
1.71498
1.71224
1.71152
1.71242
1.71431
1.71673
1.72108
1.72686
1.73111
1.73413
1.73623
1.73594
1.73495
1.733
1.7305
1.72841
1.72692
1.7245
1.72109
1.71703
1.71127
1.70694
1.70456
1.7015
1.69803
1.69313
1.69063
1.68881
1.68666
1.6855
1.68438
1.68259
1.67916
1.67447
1.66755
1.66018
1.65461
1.64936
1.64313
1.63883
1.63649
1.6336
1.63036
1.62834
1.62749
1.627
1.62573
1.62381
1.62156
1.61654
1.60667
1.59359
1.58372
1.58
1.57854
1.5771
1.57654
1.57666
1.57759
1.58032
1.58099
1.58022
1.57782
1.57465
1.56936
1.56112
1.55381
1.54917
1.54553
1.54285
1.54208
1.54208
1.5425
1.54251
1.54195
1.54009
1.53815
1.53609
1.53291
1.52841
1.52316
1.51802
1.51378
1.51096
1.50987
1.50985
1.51
1.50997
1.50916
1.50706
1.50435
1.50176
1.49902
1.49579
1.49132
1.48355
1.47568
1.47273
1.47305
1.47404
1.47479
1.47496
1.47485
1.47361
1.46971
1.46552
1.46406
1.46319
1.46203
1.46023
1.45804
1.45457
1.44748
1.44167
1.44056
1.4393
1.43739
1.43451
1.43044
1.42729
1.42676
1.4267
1.42796
1.42984
1.42947
1.42855
1.42745
1.42553
1.42018
1.40976
1.3993
1.39534
1.395
1.39578
1.40027
1.40388
1.40387
1.4041
1.40404
1.40279
1.39767
1.38812
1.38014
1.37755
1.37671
1.3763
1.37535
1.37434
1.37361
1.37274
1.37162
1.37018
1.36837
1.36626
1.36403
1.36078
1.35686
1.35467
1.35329
1.35183
1.34984
1.34683
1.34338
1.34218
1.34199
1.3427
1.34354
1.34304
1.34185
1.33809
1.33002
1.3182
1.31109
1.30892
1.30862
1.3091
1.31265
1.31796
1.3205
1.32125
1.32241
1.32399
1.00017
1.0027
1.04506
1.32352
1.61962
1.70334
1.74288
1.75644
1.75322
1.75153
1.75105
1.75313
1.75822
1.75967
1.761
1.76288
1.76358
1.76353
1.76345
1.76323
1.7628
1.76161
1.75925
1.75635
1.75261
1.7491
1.7481
1.74756
1.74692
1.74627
1.74472
1.74131
1.735
1.73084
1.72873
1.72615
1.72569
1.72606
1.72648
1.72658
1.72641
1.72578
1.72492
1.72405
1.72354
1.72294
1.72177
1.71953
1.71621
1.71291
1.71018
1.71078
1.71213
1.71344
1.71667
1.72166
1.72826
1.73239
1.73557
1.73686
1.7366
1.73518
1.732
1.72913
1.72695
1.72405
1.7209
1.71678
1.71144
1.70791
1.70448
1.70103
1.69689
1.69298
1.69233
1.69091
1.68958
1.68819
1.68706
1.68507
1.68157
1.67648
1.66856
1.6604
1.65455
1.64935
1.64368
1.64039
1.63809
1.63552
1.63216
1.62944
1.6283
1.62743
1.6257
1.62307
1.6189
1.61144
1.6001
1.58963
1.58556
1.58378
1.58173
1.57993
1.57888
1.57841
1.57988
1.58183
1.5812
1.57746
1.57314
1.5691
1.563
1.55558
1.55053
1.54685
1.54411
1.54376
1.544
1.54442
1.54463
1.54413
1.54252
1.54062
1.53854
1.53536
1.53057
1.52487
1.51935
1.51499
1.51256
1.51182
1.51204
1.51257
1.51282
1.51252
1.51094
1.50819
1.5053
1.50242
1.4992
1.495
1.48748
1.47928
1.47572
1.47596
1.47696
1.47811
1.47853
1.4785
1.47735
1.47347
1.46923
1.46782
1.46706
1.46611
1.46443
1.46244
1.45966
1.45343
1.44616
1.44434
1.44324
1.44148
1.43855
1.43452
1.43185
1.43148
1.43141
1.43236
1.43412
1.4339
1.43299
1.43186
1.43001
1.42483
1.4146
1.40398
1.39986
1.39948
1.40017
1.40456
1.40848
1.40862
1.40895
1.40899
1.40796
1.40288
1.39299
1.38481
1.38207
1.38105
1.38016
1.37954
1.37828
1.3772
1.37639
1.37554
1.37453
1.37344
1.3723
1.37078
1.36681
1.36091
1.35773
1.35629
1.35498
1.3533
1.35093
1.34834
1.3473
1.34709
1.34779
1.34834
1.34777
1.34624
1.34168
1.33236
1.32061
1.31467
1.31303
1.31285
1.31362
1.31788
1.32322
1.32516
1.3253
1.32569
1.32685
1.32765
1
1.00003
1.00117
1.04453
1.32558
1.56352
1.69541
1.75203
1.75531
1.75105
1.74078
1.74004
1.74286
1.7456
1.74915
1.75429
1.75895
1.76053
1.76091
1.76147
1.76156
1.76088
1.75892
1.75588
1.75168
1.74791
1.74714
1.7464
1.74561
1.74532
1.744
1.74042
1.73503
1.73112
1.72791
1.72462
1.72409
1.72444
1.72479
1.72497
1.72492
1.72466
1.72443
1.72393
1.7234
1.72299
1.72218
1.72021
1.7169
1.71361
1.70936
1.70885
1.70946
1.71042
1.71308
1.71758
1.72529
1.73104
1.73498
1.73728
1.73724
1.73602
1.73271
1.72948
1.72651
1.7233
1.72026
1.71615
1.7121
1.7082
1.70448
1.70096
1.69626
1.69507
1.69455
1.69335
1.69155
1.69016
1.68918
1.68682
1.68306
1.6777
1.66989
1.66165
1.65554
1.65013
1.646
1.64306
1.64033
1.63793
1.63448
1.631
1.62949
1.62806
1.62525
1.62097
1.61482
1.60602
1.59613
1.59163
1.59029
1.58806
1.58508
1.58343
1.58167
1.58148
1.58269
1.58206
1.57745
1.57126
1.56733
1.56321
1.55719
1.55191
1.54843
1.5453
1.54477
1.54563
1.54563
1.54618
1.54617
1.54475
1.54245
1.54034
1.53736
1.53252
1.52645
1.52058
1.51636
1.51399
1.51272
1.51289
1.51385
1.51447
1.51455
1.51394
1.51193
1.50903
1.50591
1.50253
1.49827
1.49088
1.48235
1.47823
1.47837
1.47942
1.48083
1.48158
1.48165
1.48051
1.47649
1.47215
1.47078
1.47015
1.46949
1.46799
1.46613
1.46391
1.45896
1.45093
1.44758
1.44658
1.44511
1.44239
1.43837
1.43598
1.43584
1.43581
1.43655
1.43806
1.43789
1.43697
1.43582
1.43404
1.42903
1.41899
1.40824
1.40399
1.40358
1.40427
1.4087
1.41269
1.41304
1.41357
1.41371
1.41298
1.40821
1.39792
1.38871
1.38579
1.38512
1.38458
1.38349
1.38228
1.38107
1.38011
1.37937
1.37874
1.37819
1.37763
1.37651
1.37227
1.36526
1.36039
1.35874
1.35769
1.35648
1.35494
1.35339
1.35258
1.35257
1.35332
1.35332
1.35262
1.35053
1.34486
1.3341
1.32286
1.31817
1.31703
1.31696
1.3182
1.32323
1.3287
1.33002
1.32968
1.32962
1.33018
1.33066
1.33033
1
1
1.00001
1.00111
1.04256
1.24274
1.5097
1.72404
1.73865
1.73858
1.73805
1.73906
1.73653
1.73819
1.74247
1.74717
1.75145
1.75332
1.75451
1.75622
1.75783
1.75796
1.75709
1.75453
1.75014
1.74687
1.74631
1.74517
1.74425
1.74394
1.74255
1.73904
1.73458
1.73065
1.72725
1.7247
1.72424
1.72396
1.72374
1.72357
1.72339
1.72344
1.72378
1.72378
1.72356
1.72322
1.72244
1.72069
1.71732
1.71343
1.70981
1.70691
1.70688
1.7076
1.7098
1.71399
1.72107
1.72919
1.7336
1.73687
1.73709
1.73598
1.7328
1.72973
1.72635
1.72293
1.71955
1.71631
1.71251
1.70842
1.7051
1.70094
1.69778
1.69748
1.69625
1.69451
1.69229
1.69176
1.69062
1.6879
1.68387
1.67831
1.67125
1.66413
1.65828
1.65308
1.64927
1.64602
1.64281
1.64012
1.6365
1.63295
1.63082
1.62799
1.62377
1.61785
1.61088
1.60286
1.59802
1.59703
1.59529
1.59233
1.58924
1.58801
1.58614
1.58426
1.58244
1.57814
1.57096
1.56619
1.56272
1.55843
1.55349
1.55012
1.54713
1.54554
1.54671
1.5476
1.54738
1.54782
1.5472
1.54472
1.54169
1.53848
1.53397
1.52795
1.52158
1.51689
1.51527
1.51428
1.51335
1.51384
1.51499
1.51524
1.5152
1.51446
1.51257
1.50973
1.50619
1.50168
1.49423
1.48499
1.48018
1.48018
1.48134
1.48297
1.48396
1.48411
1.48288
1.47871
1.47438
1.47308
1.47258
1.47221
1.47099
1.46914
1.46724
1.46349
1.45553
1.45034
1.44918
1.44795
1.44572
1.44202
1.43969
1.43966
1.43977
1.44042
1.44175
1.44155
1.44059
1.43942
1.43762
1.43278
1.42286
1.41198
1.40762
1.40716
1.40786
1.41245
1.41663
1.41699
1.41768
1.41808
1.41758
1.41328
1.40296
1.39264
1.38907
1.38807
1.38793
1.38794
1.38641
1.385
1.38399
1.38328
1.38285
1.38262
1.38239
1.38149
1.37712
1.36914
1.36276
1.36084
1.36008
1.35927
1.3585
1.358
1.35813
1.35868
1.35905
1.35857
1.3576
1.35461
1.34748
1.33528
1.32505
1.32151
1.32078
1.32082
1.32281
1.32862
1.33412
1.33494
1.33435
1.33393
1.33402
1.33403
1.33297
1.32836
1
1
1
1.00001
1.00082
1.02038
1.15372
1.51712
1.69798
1.72655
1.74151
1.74057
1.73982
1.74147
1.74171
1.74128
1.74234
1.74368
1.74442
1.74628
1.74923
1.75223
1.75273
1.7518
1.74799
1.7451
1.74396
1.74245
1.74197
1.74173
1.74012
1.7369
1.7328
1.72895
1.7261
1.72477
1.72433
1.7239
1.72357
1.72316
1.72313
1.72332
1.72364
1.72368
1.72351
1.7232
1.72254
1.72089
1.71746
1.71305
1.70969
1.70522
1.70484
1.70561
1.70731
1.71113
1.71677
1.72576
1.73094
1.73506
1.73621
1.73528
1.7327
1.72988
1.72647
1.72241
1.7193
1.71659
1.71275
1.70948
1.70612
1.70198
1.7007
1.69916
1.69738
1.6946
1.69314
1.69271
1.69093
1.68774
1.68377
1.67903
1.67333
1.66756
1.66203
1.6567
1.65227
1.64869
1.64529
1.64209
1.63841
1.63502
1.63168
1.62722
1.62164
1.61519
1.60883
1.6048
1.60383
1.60268
1.60013
1.59701
1.5947
1.59322
1.5888
1.58318
1.57892
1.57304
1.56686
1.56293
1.55951
1.55571
1.55249
1.54998
1.54742
1.54763
1.54916
1.54916
1.54933
1.54929
1.54743
1.54363
1.53933
1.53481
1.52937
1.52301
1.51748
1.51576
1.51539
1.51458
1.51395
1.51439
1.51531
1.5154
1.5152
1.51432
1.51246
1.5096
1.50546
1.49835
1.48809
1.4819
1.48165
1.48273
1.48457
1.48576
1.48585
1.48429
1.47995
1.47593
1.47476
1.47443
1.4744
1.47364
1.47173
1.4699
1.46701
1.45968
1.45275
1.45103
1.44999
1.44826
1.44514
1.44291
1.44293
1.4432
1.44377
1.44506
1.4449
1.44393
1.44273
1.44092
1.43618
1.42619
1.41517
1.4107
1.41018
1.41085
1.4156
1.42022
1.42054
1.42124
1.42187
1.42162
1.41789
1.4077
1.39628
1.39209
1.3909
1.39025
1.39093
1.39094
1.38923
1.38797
1.38725
1.38691
1.38685
1.3868
1.38593
1.38128
1.37227
1.36489
1.36275
1.36208
1.36154
1.36146
1.36236
1.36384
1.36489
1.36481
1.36389
1.36251
1.35839
1.34955
1.33602
1.32714
1.32453
1.32418
1.32441
1.32732
1.33397
1.3393
1.33976
1.33905
1.33854
1.33816
1.33765
1.33583
1.33018
1.31914
1
1
1
1
1
1.00023
1.00816
1.14007
1.48912
1.64474
1.73304
1.75524
1.75324
1.74531
1.73614
1.73268
1.73307
1.73499
1.73432
1.73698
1.74293
1.74636
1.74707
1.74582
1.7429
1.74161
1.74018
1.7388
1.73858
1.73818
1.73703
1.73482
1.73137
1.72773
1.725
1.72422
1.72382
1.72345
1.72324
1.72306
1.72321
1.72333
1.72355
1.72361
1.72342
1.7231
1.72246
1.72086
1.71712
1.71238
1.70965
1.70561
1.7032
1.70365
1.70475
1.70814
1.71319
1.72082
1.72784
1.73278
1.73476
1.73394
1.73217
1.73006
1.72676
1.72228
1.71965
1.71653
1.71327
1.71102
1.70748
1.70475
1.70248
1.70014
1.69773
1.69484
1.69416
1.69312
1.6907
1.68731
1.68393
1.68001
1.67561
1.67105
1.66596
1.66041
1.65527
1.65108
1.64729
1.64372
1.64032
1.63682
1.63224
1.62617
1.61962
1.6138
1.61056
1.61018
1.61037
1.60834
1.6051
1.60238
1.60026
1.5963
1.58743
1.58002
1.57525
1.56991
1.56562
1.56216
1.55852
1.55492
1.55275
1.55061
1.54974
1.55032
1.55091
1.55133
1.55145
1.55025
1.5467
1.54144
1.53586
1.5304
1.52466
1.51885
1.51616
1.51586
1.51544
1.51486
1.51447
1.51487
1.5157
1.51555
1.51492
1.51366
1.51148
1.50815
1.50253
1.49249
1.48423
1.48335
1.48414
1.48575
1.4871
1.48711
1.48499
1.48017
1.47666
1.47585
1.47575
1.47601
1.47577
1.47406
1.47215
1.46969
1.46315
1.45507
1.45233
1.45136
1.45006
1.44761
1.44559
1.44559
1.44598
1.44655
1.44777
1.44787
1.44695
1.44576
1.44392
1.43913
1.42903
1.41784
1.41322
1.41263
1.41324
1.41805
1.42327
1.4237
1.42433
1.42509
1.42503
1.42184
1.412
1.39955
1.39463
1.39337
1.39257
1.39271
1.39429
1.39376
1.39212
1.39125
1.3909
1.39088
1.39092
1.39005
1.38501
1.3748
1.36658
1.36438
1.3638
1.36342
1.36388
1.36636
1.36947
1.37083
1.37034
1.36912
1.36711
1.36184
1.35104
1.33661
1.32919
1.32734
1.32722
1.32778
1.33162
1.3391
1.34419
1.34435
1.34367
1.34314
1.34245
1.34151
1.33883
1.33198
1.31989
1.31305
1
1
1
1
1
1
1.00008
1.00663
1.12158
1.37375
1.62278
1.76178
1.76165
1.75044
1.73747
1.72964
1.73125
1.73289
1.73309
1.73737
1.7395
1.73977
1.73945
1.73882
1.73778
1.73554
1.73424
1.73418
1.73446
1.7342
1.73344
1.73186
1.72926
1.72672
1.72504
1.72441
1.72386
1.7233
1.72273
1.72274
1.72295
1.72305
1.72321
1.72334
1.72317
1.72291
1.72232
1.72042
1.71646
1.71221
1.70969
1.70656
1.70242
1.70235
1.70291
1.7052
1.70994
1.71585
1.72438
1.72989
1.7331
1.73256
1.73146
1.7302
1.72697
1.72307
1.72028
1.71666
1.71471
1.71244
1.70958
1.70637
1.70315
1.70048
1.69709
1.69546
1.69475
1.69292
1.69
1.68725
1.68464
1.68143
1.6782
1.67447
1.66946
1.6635
1.65768
1.65296
1.64892
1.64528
1.64187
1.63759
1.63193
1.62506
1.61914
1.6161
1.61555
1.61619
1.61635
1.61369
1.61043
1.60781
1.60384
1.59464
1.58315
1.57748
1.57271
1.56838
1.56524
1.56221
1.5589
1.55579
1.5545
1.55345
1.5529
1.55278
1.55317
1.55374
1.55293
1.54991
1.54485
1.53872
1.53239
1.52644
1.52107
1.51733
1.51629
1.51575
1.51547
1.51506
1.51489
1.51554
1.51618
1.51557
1.51428
1.51226
1.50939
1.50499
1.4969
1.48789
1.48556
1.48611
1.4872
1.48822
1.48812
1.4855
1.47997
1.47685
1.4764
1.47641
1.47708
1.47728
1.47607
1.47412
1.47182
1.46601
1.45738
1.45332
1.45236
1.45135
1.44947
1.44778
1.44776
1.44819
1.4488
1.44985
1.45034
1.4496
1.44848
1.44664
1.44172
1.43136
1.41991
1.41519
1.41454
1.41506
1.41984
1.42567
1.42637
1.427
1.42778
1.42782
1.42515
1.41581
1.40244
1.39666
1.39535
1.39456
1.3944
1.39612
1.39761
1.39643
1.39511
1.39471
1.39466
1.39475
1.39383
1.38847
1.37712
1.36803
1.36579
1.36531
1.36506
1.36597
1.36993
1.37465
1.37626
1.37545
1.37399
1.37125
1.36478
1.35197
1.33725
1.33115
1.32991
1.32993
1.33094
1.33573
1.34388
1.34868
1.34864
1.34806
1.34757
1.34674
1.34546
1.34199
1.33386
1.32067
1.3137
1.31348
1
1
1
1
1
1
1
1.00006
1.00416
1.05851
1.28577
1.6572
1.75507
1.74724
1.73476
1.73041
1.73346
1.7336
1.73541
1.7359
1.73443
1.73264
1.73125
1.73077
1.72802
1.72662
1.72762
1.72974
1.73031
1.7299
1.72915
1.72765
1.72602
1.725
1.72453
1.72422
1.72373
1.72305
1.72208
1.72191
1.72206
1.72224
1.7225
1.72285
1.72273
1.72252
1.72195
1.71964
1.71607
1.71255
1.71011
1.70736
1.70327
1.70123
1.70167
1.70344
1.70683
1.71096
1.71965
1.72688
1.73038
1.73124
1.73087
1.73016
1.72711
1.72421
1.72083
1.71773
1.71551
1.7134
1.7105
1.70692
1.70355
1.69934
1.69679
1.69624
1.69464
1.69202
1.68944
1.68796
1.6858
1.6834
1.68076
1.6769
1.67141
1.66512
1.65925
1.65449
1.65048
1.64698
1.64294
1.63745
1.63111
1.62533
1.62261
1.62164
1.62187
1.62226
1.62164
1.61872
1.61559
1.61143
1.60332
1.58932
1.58089
1.57665
1.57234
1.56857
1.56574
1.56319
1.56034
1.55782
1.55747
1.5572
1.55615
1.55558
1.55615
1.55578
1.55325
1.54874
1.54278
1.53608
1.52939
1.5236
1.51945
1.51738
1.51639
1.51588
1.51568
1.51527
1.51554
1.51662
1.51651
1.51532
1.51326
1.51046
1.50671
1.50058
1.49214
1.48842
1.48862
1.48916
1.48963
1.48918
1.48618
1.48022
1.47695
1.47665
1.47683
1.47774
1.47816
1.47755
1.47588
1.47358
1.46814
1.45943
1.45422
1.45319
1.4524
1.45098
1.44958
1.44959
1.45004
1.45069
1.45155
1.45231
1.45182
1.45087
1.44908
1.444
1.43328
1.42147
1.41666
1.41594
1.41637
1.42111
1.42736
1.42844
1.42913
1.42999
1.43012
1.42796
1.41927
1.40509
1.3983
1.39687
1.39614
1.39586
1.39729
1.40031
1.40031
1.39882
1.39818
1.39804
1.39809
1.39709
1.39154
1.37935
1.36938
1.36707
1.36673
1.36661
1.36792
1.37312
1.37925
1.38104
1.38005
1.37829
1.37479
1.36706
1.35239
1.33795
1.33302
1.33219
1.33235
1.33393
1.33967
1.34832
1.35269
1.35253
1.3521
1.35171
1.3508
1.34928
1.34524
1.33592
1.32159
1.31427
1.31393
1.31551
1
1
1
1
1
1
1
1
1.00002
1.00126
1.03155
1.2953
1.65233
1.71678
1.73496
1.74273
1.74061
1.73934
1.73948
1.7374
1.73272
1.72848
1.72618
1.7238
1.7234
1.72472
1.72612
1.72608
1.72567
1.72525
1.72411
1.72276
1.72258
1.72287
1.72327
1.72322
1.72273
1.72186
1.72073
1.72036
1.72052
1.72088
1.72134
1.72204
1.72218
1.72205
1.72148
1.71941
1.7164
1.71345
1.71075
1.70822
1.70454
1.70099
1.70098
1.70208
1.70409
1.70733
1.71447
1.72316
1.72719
1.72971
1.73055
1.7299
1.72774
1.72519
1.72175
1.71855
1.71602
1.71367
1.7105
1.70718
1.70329
1.69852
1.69721
1.69618
1.69419
1.69129
1.69026
1.68922
1.68734
1.68524
1.68239
1.6781
1.67216
1.66561
1.65999
1.65567
1.6522
1.64842
1.64305
1.63698
1.63188
1.6295
1.62855
1.62871
1.62857
1.62751
1.62565
1.62277
1.61842
1.61122
1.599
1.58637
1.58108
1.5774
1.57324
1.56978
1.56754
1.56563
1.56331
1.56126
1.56119
1.56099
1.55953
1.55875
1.55842
1.55655
1.55274
1.54739
1.54111
1.53442
1.52796
1.52256
1.51939
1.51789
1.51688
1.51625
1.51591
1.51607
1.51712
1.51765
1.51692
1.51508
1.51231
1.50875
1.5036
1.49628
1.49138
1.49121
1.49145
1.49155
1.49067
1.48724
1.48166
1.47775
1.47721
1.47739
1.47829
1.47884
1.47845
1.4773
1.47515
1.46976
1.46099
1.45506
1.45393
1.45338
1.45244
1.45125
1.45129
1.45177
1.45242
1.45314
1.45394
1.45371
1.45291
1.45118
1.44592
1.43483
1.42265
1.41772
1.41694
1.41729
1.42199
1.42852
1.42986
1.43067
1.43166
1.43189
1.43022
1.42233
1.4077
1.39962
1.39797
1.3973
1.39697
1.39826
1.40199
1.4034
1.40218
1.4012
1.40096
1.40089
1.39975
1.39406
1.38129
1.37067
1.36824
1.36805
1.36809
1.36988
1.37603
1.38326
1.38517
1.38407
1.38202
1.37777
1.36862
1.35236
1.33864
1.3347
1.33418
1.33449
1.33674
1.34344
1.3524
1.35628
1.35601
1.35573
1.35546
1.35453
1.35289
1.34836
1.33801
1.32269
1.31495
1.31436
1.31578
1.31966
1
1
1
1
1
1
1
1
1
1.00001
1.00066
1.03221
1.30863
1.56738
1.6892
1.74605
1.74948
1.74687
1.74406
1.73726
1.73058
1.7252
1.7216
1.72267
1.72398
1.72372
1.72365
1.72373
1.72367
1.72267
1.71971
1.7191
1.71942
1.72012
1.72046
1.72024
1.71949
1.7186
1.71799
1.71791
1.71831
1.71908
1.7198
1.72067
1.72142
1.72144
1.72105
1.71969
1.71713
1.71437
1.71148
1.70886
1.70587
1.702
1.70034
1.7011
1.70211
1.70456
1.7102
1.71841
1.72441
1.72772
1.72995
1.72946
1.72825
1.72619
1.72274
1.71847
1.71576
1.71338
1.71047
1.70726
1.70244
1.69889
1.69792
1.69634
1.69354
1.69143
1.69129
1.69026
1.68872
1.68665
1.68353
1.67875
1.67229
1.66567
1.66066
1.65672
1.65325
1.6491
1.64319
1.63827
1.63645
1.63534
1.63513
1.63544
1.63335
1.63068
1.6283
1.62444
1.61795
1.60796
1.59469
1.58719
1.58338
1.57988
1.57623
1.57253
1.57019
1.56862
1.56654
1.5652
1.56511
1.56445
1.56288
1.56152
1.55983
1.5567
1.55196
1.54621
1.54001
1.53398
1.528
1.52255
1.52014
1.51916
1.51802
1.51703
1.51705
1.51789
1.51901
1.51867
1.51736
1.51495
1.51168
1.50685
1.49996
1.49435
1.49345
1.49363
1.49371
1.49286
1.48909
1.48372
1.47997
1.47864
1.47868
1.47916
1.47964
1.4793
1.47837
1.47656
1.47143
1.46238
1.45575
1.45456
1.45428
1.45388
1.45303
1.45305
1.45358
1.4542
1.45484
1.45551
1.45548
1.45481
1.45305
1.44751
1.43604
1.42354
1.41848
1.41765
1.41795
1.42264
1.42936
1.43078
1.43163
1.43281
1.43317
1.43194
1.42501
1.41023
1.4007
1.39873
1.3981
1.39778
1.399
1.4031
1.40574
1.40487
1.40376
1.40335
1.40316
1.40184
1.39607
1.38289
1.37178
1.36924
1.36913
1.36937
1.37178
1.37875
1.38671
1.38869
1.38754
1.38522
1.38014
1.36946
1.35191
1.33926
1.33609
1.33582
1.33629
1.33934
1.347
1.35616
1.35943
1.3591
1.35896
1.35876
1.35786
1.35611
1.35119
1.34005
1.32388
1.31582
1.31492
1.316
1.31974
1.32855
1
1
1
1
1
1
1
1
1
1
1
1.00069
1.03277
1.21875
1.45668
1.69308
1.75126
1.74914
1.74102
1.73238
1.72492
1.72216
1.72406
1.72574
1.72451
1.72374
1.72326
1.72245
1.7225
1.72152
1.71888
1.71746
1.71706
1.7167
1.71599
1.71471
1.7136
1.71341
1.71372
1.71453
1.71582
1.71698
1.71787
1.719
1.7203
1.72097
1.72085
1.72006
1.71771
1.71446
1.71166
1.70909
1.70679
1.7034
1.7004
1.70048
1.70108
1.70271
1.70666
1.71337
1.72062
1.72519
1.72853
1.72879
1.72818
1.72649
1.72307
1.71869
1.71582
1.71308
1.71015
1.70672
1.70199
1.70014
1.6987
1.69663
1.6933
1.69272
1.69248
1.6911
1.68933
1.6871
1.68387
1.67867
1.67203
1.66578
1.66122
1.65702
1.65379
1.64981
1.6449
1.64309
1.64231
1.64147
1.6412
1.63939
1.63625
1.63318
1.62962
1.62412
1.61569
1.60422
1.59457
1.58959
1.58619
1.58325
1.58
1.57633
1.57371
1.57208
1.57031
1.56927
1.56869
1.56746
1.56559
1.5634
1.56054
1.55653
1.55136
1.54574
1.53997
1.53458
1.52902
1.52361
1.52186
1.5211
1.51965
1.5191
1.51957
1.52061
1.52071
1.52011
1.51844
1.51539
1.51029
1.50333
1.4973
1.49555
1.49569
1.49583
1.49544
1.49234
1.48635
1.48308
1.48128
1.48082
1.48088
1.48104
1.48057
1.47961
1.47785
1.47269
1.46411
1.45717
1.45526
1.4551
1.45512
1.45499
1.45508
1.45563
1.45622
1.45678
1.45728
1.45734
1.45674
1.4548
1.44887
1.43698
1.42428
1.41913
1.41821
1.41847
1.42315
1.43006
1.43146
1.4322
1.4335
1.43402
1.43316
1.42721
1.41281
1.40175
1.39928
1.39866
1.39835
1.39957
1.40394
1.40742
1.40687
1.40572
1.40521
1.40492
1.40351
1.39763
1.38418
1.3727
1.37008
1.37001
1.37043
1.37346
1.3812
1.38964
1.39163
1.39048
1.38793
1.38208
1.36982
1.35124
1.33975
1.33724
1.3371
1.33775
1.34168
1.35033
1.35952
1.36224
1.36186
1.36183
1.36164
1.36081
1.35896
1.3537
1.34179
1.32503
1.3168
1.31554
1.31628
1.31972
1.3286
1.34316
1
1
1
1
1
1
1
1
1
1
1
1
1.0005
1.01403
1.11103
1.43474
1.70059
1.73399
1.73734
1.73125
1.72588
1.72869
1.7304
1.73055
1.72841
1.72495
1.72295
1.72329
1.72368
1.72139
1.7196
1.7184
1.71613
1.71335
1.71049
1.70762
1.70672
1.70705
1.7085
1.71044
1.71245
1.71391
1.71495
1.71638
1.71828
1.71997
1.7204
1.71988
1.71728
1.71368
1.71103
1.70888
1.70695
1.70454
1.70131
1.69975
1.69994
1.7011
1.70406
1.70923
1.71678
1.72294
1.7264
1.72779
1.72743
1.7262
1.72333
1.71937
1.71642
1.71335
1.71037
1.70632
1.70298