/*--------------------------------*- C++ -*----------------------------------*\
  =========                 |
  \\      /  F ield         | OpenFOAM: The Open Source CFD Toolbox
   \\    /   O peration     | Website:  https://openfoam.org
    \\  /    A nd           | Version:  7
     \\/     M anipulation  |
\*---------------------------------------------------------------------------*/
FoamFile
{
    version     2.0;
    format      ascii;
    class       volScalarField;
    location    "3.1";
    object      T;
}
// * * * * * * * * * * * * * * * * * * * * * * * * * * * * * * * * * * * * * //

dimensions      [0 0 0 1 0 0 0];

internalField   nonuniform List<scalar> 
16192
(
2.73795
2.74291
2.74898
2.75646
2.76274
2.76635
2.76769
2.76765
2.76659
2.76334
2.75697
2.74776
2.7358
2.7225
2.70831
2.69491
2.6834
2.67214
2.65909
2.6468
2.63514
2.6243
2.61451
2.60644
2.59955
2.5931
2.58703
2.58124
2.57529
2.56925
2.56355
2.55816
2.55302
2.54814
2.5437
2.54002
2.5372
2.53522
2.53378
2.53209
2.52915
2.52357
2.51512
2.5106
2.50956
2.51
2.51237
2.51721
2.52415
2.53182
2.53857
2.54346
2.54591
2.54688
2.54651
2.54575
2.54633
2.55031
2.55895
2.57244
2.58931
2.60226
2.60549
2.60794
2.60835
2.60983
2.61366
2.61953
2.62848
2.63905
2.64673
2.65025
2.65147
2.65144
2.65074
2.64985
2.64847
2.64561
2.64075
2.63279
2.62241
2.61047
2.59878
2.58841
2.58049
2.57541
2.57119
2.56601
2.55966
2.55294
2.54602
2.53818
2.52832
2.51576
2.50099
2.4853
2.47089
2.46015
2.45057
2.44303
2.43579
2.42914
2.42058
2.40585
2.38657
2.36804
2.35519
2.34851
2.34263
2.33518
2.33477
2.3355
2.33633
2.33449
2.32613
2.3165
2.3091
2.30295
2.30017
2.30016
2.30204
2.30478
2.30763
2.31403
2.32723
2.34114
2.34541
2.34
2.33121
2.31976
2.31496
2.31442
2.31949
2.33249
2.34516
2.35222
2.35473
2.35569
2.35322
2.35017
2.35077
2.35253
2.35429
2.35539
2.35649
2.35829
2.361
2.36546
2.36911
2.36987
2.36937
2.36496
2.3605
2.35924
2.36051
2.36392
2.36897
2.37503
2.38026
2.38478
2.38757
2.38778
2.38684
2.38882
2.39482
2.40278
2.41133
2.42065
2.43072
2.43974
2.44649
2.45042
2.45057
2.44686
2.44433
2.44471
2.44663
2.44902
2.45304
2.45766
2.46037
2.46039
2.45629
2.44749
2.43261
2.4139
2.39779
2.38513
2.37237
2.36111
2.35286
2.3471
2.34218
2.33676
2.33074
2.32415
2.31691
2.31061
2.306
2.30153
2.29426
2.28564
2.2765
2.2669
2.25631
2.24792
2.24096
2.23481
2.23073
2.22863
2.22537
2.21976
2.21403
2.20744
2.19632
2.17853
2.15863
2.14654
2.1434
2.14146
2.13996
2.13958
2.14028
2.14126
2.1418
2.14146
2.14006
2.13873
2.13803
2.13827
2.13918
2.13434
2.12467
2.11376
2.10358
2.09618
2.09309
2.0971
2.10863
2.12093
2.12661
2.1263
2.12284
2.11862
2.11116
2.09758
2.08373
2.07551
2.0711
2.06902
2.06838
2.06974
2.07581
2.7334
2.73986
2.74807
2.75625
2.7616
2.76421
2.76454
2.76389
2.76189
2.75819
2.7527
2.74512
2.73565
2.72385
2.71057
2.69702
2.68439
2.67256
2.65995
2.648
2.63684
2.62633
2.61652
2.60761
2.59995
2.59318
2.58698
2.58136
2.57591
2.57018
2.56476
2.55957
2.5544
2.54922
2.54434
2.54031
2.53739
2.53521
2.53329
2.53093
2.52737
2.52136
2.51249
2.50658
2.50386
2.50246
2.50311
2.50592
2.51107
2.51743
2.52316
2.52712
2.52932
2.53131
2.5335
2.5354
2.537
2.53962
2.54472
2.55345
2.56713
2.58192
2.59095
2.59604
2.59982
2.6016
2.60375
2.60809
2.61439
2.62203
2.62904
2.63397
2.63751
2.64044
2.64284
2.64346
2.64225
2.63839
2.63229
2.6258
2.61805
2.60928
2.59974
2.59008
2.58178
2.57562
2.57017
2.56278
2.55456
2.54717
2.54083
2.53469
2.52764
2.51907
2.50801
2.4943
2.47918
2.46558
2.45412
2.44344
2.43395
2.42581
2.41853
2.40889
2.39431
2.37862
2.36342
2.35117
2.34198
2.33369
2.33218
2.33285
2.33345
2.33167
2.32384
2.31643
2.31058
2.30647
2.30493
2.30517
2.30714
2.31016
2.31191
2.31227
2.31356
2.318
2.32277
2.32614
2.32387
2.32017
2.31503
2.31294
2.31418
2.32046
2.32794
2.33206
2.33581
2.33985
2.34442
2.34832
2.35181
2.35328
2.35339
2.35247
2.3508
2.35047
2.35167
2.35408
2.35727
2.36036
2.36195
2.36289
2.36283
2.36128
2.36
2.36041
2.36334
2.36743
2.37143
2.37535
2.37902
2.38182
2.38568
2.39043
2.39554
2.40119
2.40803
2.41605
2.42433
2.43162
2.43771
2.44277
2.44549
2.44632
2.44606
2.44503
2.44501
2.44647
2.44897
2.45078
2.45102
2.45039
2.44759
2.44066
2.43048
2.41822
2.40283
2.38655
2.37293
2.36076
2.35061
2.34195
2.33518
2.33044
2.32651
2.32277
2.31887
2.31488
2.31122
2.30562
2.29749
2.28843
2.27827
2.26665
2.25519
2.24721
2.24017
2.23383
2.22892
2.22557
2.22242
2.2177
2.21236
2.20651
2.19738
2.18383
2.16793
2.15494
2.14794
2.14551
2.14343
2.14165
2.14067
2.1407
2.14087
2.14091
2.1399
2.13634
2.132
2.12905
2.12581
2.1205
2.11601
2.11123
2.1059
2.1013
2.09957
2.10132
2.10719
2.11338
2.11555
2.11451
2.11129
2.10697
2.09979
2.09224
2.08691
2.08179
2.07669
2.0727
2.0706
2.07035
2.07366
2.72186
2.72922
2.73882
2.7473
2.75302
2.75662
2.75777
2.75707
2.75423
2.75019
2.7455
2.73936
2.73217
2.72266
2.71138
2.69909
2.68657
2.67376
2.66125
2.64972
2.63952
2.63017
2.621
2.61176
2.60279
2.59496
2.58812
2.58171
2.57593
2.57066
2.56586
2.56136
2.55657
2.5511
2.54534
2.54038
2.53697
2.53482
2.53264
2.52969
2.52511
2.51786
2.50834
2.50159
2.49656
2.49275
2.49041
2.48984
2.49063
2.49231
2.49323
2.49291
2.49191
2.49149
2.49266
2.49608
2.50055
2.50458
2.50829
2.51291
2.51963
2.53021
2.5423
2.55077
2.55828
2.56455
2.56991
2.57493
2.57966
2.5843
2.58875
2.59349
2.59903
2.60554
2.61255
2.61654
2.61789
2.61702
2.61244
2.60659
2.60142
2.59589
2.59055
2.5852
2.58026
2.5746
2.56644
2.5573
2.54831
2.54048
2.53437
2.52882
2.52377
2.51881
2.51317
2.50486
2.49205
2.47641
2.46142
2.44878
2.43695
2.4251
2.41338
2.40386
2.39834
2.39241
2.37991
2.36231
2.34635
2.33623
2.33409
2.33411
2.3337
2.33077
2.32495
2.32025
2.31652
2.31406
2.31247
2.31204
2.31302
2.31461
2.31513
2.31403
2.3088
2.30117
2.29815
2.29925
2.3026
2.303
2.30183
2.30067
2.29965
2.29911
2.29889
2.29937
2.30159
2.30661
2.31549
2.32561
2.33284
2.33683
2.33998
2.34109
2.33977
2.33532
2.3315
2.33112
2.33267
2.33522
2.33998
2.34616
2.34964
2.35201
2.35322
2.3529
2.35143
2.35072
2.35145
2.35356
2.35632
2.36184
2.36941
2.37691
2.38424
2.39112
2.39748
2.40316
2.40801
2.41241
2.41689
2.42104
2.42607
2.43194
2.43617
2.43848
2.43854
2.43743
2.4363
2.43548
2.43457
2.43235
2.42842
2.42418
2.42002
2.41314
2.40309
2.3892
2.37274
2.35721
2.3447
2.33456
2.32692
2.32151
2.31804
2.31597
2.31524
2.31537
2.31505
2.31092
2.30296
2.2927
2.28024
2.26665
2.25536
2.24797
2.24097
2.23455
2.22921
2.22478
2.22042
2.2151
2.20921
2.20277
2.19444
2.18601
2.1771
2.16784
2.16026
2.15518
2.15188
2.14882
2.14597
2.14403
2.14297
2.1424
2.14164
2.13988
2.13663
2.13149
2.12325
2.11526
2.10941
2.10562
2.10237
2.10107
2.10186
2.10541
2.10784
2.10472
2.09928
2.09514
2.09084
2.08653
2.08316
2.08113
2.0793
2.07725
2.07528
2.0735
2.07138
2.07043
2.06908
2.70115
2.70924
2.71784
2.72417
2.72951
2.73381
2.7369
2.73863
2.7387
2.73753
2.73447
2.73022
2.72456
2.7175
2.7085
2.69829
2.68726
2.67491
2.66237
2.65113
2.64134
2.63253
2.62408
2.61559
2.60692
2.59868
2.59147
2.58493
2.5789
2.57305
2.56775
2.56299
2.55813
2.55244
2.54616
2.54038
2.53582
2.53267
2.52956
2.52575
2.51949
2.50997
2.49993
2.49155
2.48396
2.47728
2.47146
2.46685
2.46332
2.46024
2.45671
2.45224
2.44694
2.44153
2.4376
2.43684
2.43826
2.44146
2.44394
2.4468
2.45098
2.45829
2.46893
2.47676
2.48432
2.49166
2.4983
2.50394
2.50846
2.51268
2.51795
2.52484
2.53265
2.54186
2.55222
2.56045
2.56741
2.573
2.57491
2.57425
2.57209
2.56991
2.56816
2.5672
2.56662
2.56408
2.55801
2.55098
2.5431
2.53534
2.52924
2.52492
2.52195
2.51959
2.5161
2.5101
2.50054
2.487
2.47104
2.45457
2.43926
2.42538
2.41396
2.40654
2.40219
2.39849
2.39154
2.37601
2.35668
2.34466
2.3424
2.34266
2.34175
2.33775
2.33402
2.33102
2.3287
2.32628
2.32326
2.32015
2.31807
2.31643
2.31392
2.30911
2.29884
2.2845
2.27517
2.27303
2.27473
2.27725
2.27647
2.27246
2.26752
2.26193
2.25882
2.25849
2.25977
2.26486
2.27556
2.28496
2.2904
2.29568
2.30076
2.30444
2.30535
2.3042
2.3018
2.30015
2.30014
2.30186
2.30585
2.31186
2.31728
2.32142
2.32466
2.32622
2.32536
2.3227
2.32117
2.32144
2.32464
2.3305
2.33752
2.34474
2.35217
2.35964
2.36628
2.37153
2.37577
2.37932
2.38264
2.38739
2.39389
2.40104
2.40823
2.41364
2.4167
2.41671
2.41449
2.41126
2.40758
2.40362
2.40055
2.39901
2.39828
2.39731
2.39289
2.38321
2.36929
2.35244
2.33656
2.32388
2.31473
2.30911
2.30664
2.30699
2.31083
2.3148
2.31522
2.31218
2.30579
2.29613
2.28243
2.26681
2.25569
2.24894
2.24256
2.23647
2.23077
2.22525
2.21964
2.21377
2.20761
2.20109
2.19469
2.18945
2.18423
2.17807
2.17185
2.16661
2.16218
2.15771
2.1532
2.14944
2.14713
2.14486
2.14215
2.13827
2.13282
2.12571
2.11736
2.10962
2.10367
2.09957
2.09775
2.09796
2.10002
2.10108
2.09674
2.08955
2.08301
2.07658
2.07108
2.06737
2.06546
2.06476
2.06475
2.06489
2.06538
2.06591
2.06584
2.06473
2.06031
2.67144
2.68003
2.68644
2.69123
2.69511
2.698
2.70071
2.7041
2.70797
2.71134
2.71303
2.7129
2.71115
2.70677
2.70062
2.69303
2.68394
2.67354
2.66221
2.65172
2.64226
2.63341
2.6249
2.6168
2.60905
2.60158
2.59493
2.589
2.58326
2.57707
2.57082
2.56482
2.55899
2.55289
2.54639
2.54067
2.53594
2.53107
2.52629
2.52083
2.51267
2.50259
2.49243
2.48279
2.4736
2.46464
2.45624
2.44855
2.44139
2.43433
2.42688
2.41875
2.41
2.40099
2.39257
2.38585
2.38178
2.38023
2.37968
2.37955
2.38084
2.38505
2.39358
2.39993
2.40525
2.41069
2.41523
2.41863
2.42098
2.42378
2.42942
2.4377
2.44721
2.45761
2.46767
2.47772
2.48779
2.49757
2.50654
2.51461
2.5221
2.52822
2.53178
2.53316
2.53435
2.53549
2.53563
2.53521
2.53419
2.53251
2.52989
2.52674
2.52286
2.51802
2.51249
2.5069
2.49923
2.48908
2.47683
2.46329
2.44934
2.43694
2.42628
2.41625
2.40738
2.40073
2.39355
2.38174
2.36649
2.35723
2.35531
2.35431
2.35138
2.34726
2.34658
2.34622
2.34448
2.34092
2.33566
2.32935
2.32303
2.31767
2.3128
2.30632
2.29444
2.2771
2.26259
2.25545
2.25443
2.25452
2.24881
2.23965
2.22963
2.21926
2.21369
2.21208
2.21333
2.22224
2.2325
2.23647
2.24008
2.24418
2.24758
2.24935
2.25012
2.25107
2.2525
2.25425
2.2565
2.25975
2.26377
2.26812
2.27211
2.27547
2.27824
2.27931
2.27846
2.27559
2.27391
2.27525
2.28015
2.28648
2.29299
2.29914
2.3052
2.31079
2.31496
2.31758
2.31986
2.32325
2.32926
2.33751
2.34614
2.35481
2.36262
2.36922
2.37395
2.37511
2.3734
2.37019
2.3683
2.36746
2.36669
2.36632
2.36709
2.36795
2.36622
2.36015
2.35027
2.336
2.32146
2.31019
2.30212
2.29691
2.29482
2.29648
2.3028
2.30747
2.3078
2.30576
2.30147
2.29424
2.28297
2.26898
2.25726
2.24966
2.24393
2.23854
2.2328
2.22639
2.21963
2.2131
2.20691
2.20127
2.19685
2.19314
2.18871
2.18319
2.1777
2.17291
2.16815
2.16285
2.15759
2.15412
2.1521
2.1489
2.14397
2.13728
2.12925
2.12083
2.11245
2.10418
2.09717
2.09294
2.09228
2.09296
2.09189
2.08477
2.07635
2.06869
2.06208
2.0571
2.05357
2.05119
2.04901
2.04744
2.04694
2.04713
2.04818
2.04956
2.04948
2.04843
2.04493
2.63354
2.63968
2.64379
2.64744
2.65063
2.65309
2.65534
2.65825
2.66223
2.66687
2.67155
2.67615
2.67984
2.68166
2.68145
2.67887
2.67348
2.66601
2.65703
2.64781
2.6394
2.63155
2.62379
2.61629
2.60924
2.60287
2.59699
2.59145
2.58588
2.57963
2.57283
2.56589
2.55883
2.55172
2.54532
2.53938
2.53382
2.52837
2.52287
2.51632
2.50778
2.49821
2.48784
2.47708
2.46585
2.45454
2.44377
2.43383
2.42449
2.41518
2.40525
2.39442
2.38296
2.37135
2.36002
2.34964
2.34119
2.33524
2.33115
2.32798
2.32669
2.32765
2.33192
2.33639
2.33804
2.34013
2.34147
2.3416
2.34136
2.34243
2.34776
2.35606
2.36497
2.37355
2.38188
2.39037
2.39934
2.40885
2.41929
2.43139
2.44525
2.45935
2.47137
2.47936
2.48351
2.48621
2.49063
2.49812
2.50668
2.51522
2.52138
2.52366
2.52253
2.51665
2.50606
2.49542
2.48863
2.48291
2.47574
2.46851
2.46251
2.45679
2.4485
2.43556
2.42183
2.40948
2.39792
2.38511
2.37401
2.36963
2.36775
2.36452
2.35838
2.35362
2.35444
2.35679
2.35642
2.35194
2.34438
2.33532
2.3256
2.31661
2.30905
2.30145
2.28955
2.27122
2.2534
2.24162
2.23538
2.23042
2.22016
2.20819
2.19592
2.18509
2.17887
2.1765
2.17997
2.18921
2.19368
2.19403
2.19519
2.19596
2.1959
2.19559
2.1962
2.19912
2.20339
2.20717
2.21013
2.21246
2.21462
2.21719
2.21987
2.22226
2.22398
2.22476
2.22478
2.22461
2.2248
2.2263
2.22975
2.23433
2.23911
2.24388
2.24846
2.25168
2.2532
2.25424
2.25629
2.26071
2.26774
2.27615
2.28511
2.29392
2.3022
2.30966
2.31463
2.3157
2.31445
2.31253
2.31258
2.31458
2.31665
2.31942
2.3225
2.32379
2.32323
2.3203
2.31354
2.30243
2.29114
2.28411
2.28021
2.27806
2.27833
2.28245
2.28852
2.29027
2.28994
2.2889
2.28643
2.28174
2.27478
2.26685
2.258
2.24889
2.24263
2.2377
2.23248
2.22649
2.21997
2.21352
2.20776
2.2034
2.2001
2.1967
2.19143
2.1848
2.17866
2.17336
2.16855
2.16268
2.15723
2.15573
2.15439
2.1508
2.14423
2.13564
2.12585
2.11579
2.10608
2.09647
2.08836
2.08407
2.08251
2.07937
2.07099
2.06175
2.05348
2.04664
2.04126
2.03793
2.03751
2.03678
2.03335
2.03017
2.02887
2.02826
2.02848
2.02878
2.02804
2.02679
2.02434
2.59157
2.59419
2.59594
2.59784
2.59985
2.60209
2.60453
2.60703
2.60949
2.61206
2.61543
2.62061
2.62697
2.63354
2.63987
2.64472
2.64598
2.64488
2.64069
2.63389
2.62704
2.6212
2.61546
2.60972
2.60418
2.59928
2.59481
2.59019
2.58482
2.57844
2.57152
2.56422
2.55667
2.54928
2.54237
2.53574
2.52916
2.52252
2.51556
2.50767
2.4993
2.49065
2.48123
2.47052
2.45825
2.44495
2.43162
2.41909
2.40766
2.39693
2.38601
2.37419
2.36167
2.34911
2.33678
2.32498
2.31448
2.306
2.29964
2.29459
2.29081
2.28972
2.29085
2.29314
2.29253
2.29088
2.28867
2.28488
2.28196
2.28249
2.28662
2.29321
2.29959
2.3054
2.31094
2.31621
2.32167
2.3281
2.33644
2.34735
2.36068
2.3755
2.39024
2.40281
2.41215
2.42016
2.43026
2.44358
2.45896
2.47421
2.48824
2.49931
2.50592
2.50622
2.49881
2.48496
2.47669
2.47288
2.46947
2.46658
2.46617
2.46584
2.46039
2.44883
2.43521
2.42014
2.40539
2.39282
2.38471
2.37976
2.37514
2.36777
2.35936
2.35593
2.35814
2.36279
2.36313
2.35717
2.34756
2.33703
2.32494
2.31249
2.30158
2.29199
2.2798
2.26118
2.24117
2.2252
2.21377
2.20526
2.19434
2.18216
2.17091
2.16301
2.15941
2.16014
2.16636
2.17117
2.16981
2.16673
2.16163
2.15538
2.15175
2.15139
2.1535
2.15801
2.16352
2.16729
2.17011
2.17124
2.17095
2.17053
2.17064
2.1712
2.17197
2.17281
2.17425
2.17669
2.17939
2.18153
2.18333
2.18501
2.18665
2.18823
2.1892
2.18935
2.1896
2.19153
2.19625
2.20232
2.20853
2.21485
2.22128
2.22783
2.23432
2.23974
2.24308
2.24509
2.2474
2.25064
2.25398
2.25699
2.26003
2.26337
2.26603
2.26747
2.26766
2.26626
2.26203
2.25557
2.24942
2.24613
2.24513
2.24554
2.2488
2.25528
2.25928
2.2601
2.2608
2.2607
2.25913
2.25671
2.25508
2.25377
2.25034
2.24325
2.23634
2.2322
2.22816
2.22352
2.21847
2.21333
2.20889
2.20547
2.20272
2.19819
2.19091
2.18355
2.17646
2.16984
2.16329
2.15595
2.1516
2.15157
2.15186
2.14901
2.14072
2.13036
2.11871
2.10637
2.09455
2.0837
2.07503
2.0698
2.06437
2.0554
2.04564
2.03729
2.03109
2.02638
2.02488
2.02587
2.02746
2.02587
2.02099
2.01517
2.01132
2.00952
2.00814
2.00719
2.00624
2.00515
2.00403
2.54499
2.54592
2.54643
2.54694
2.54769
2.54882
2.55024
2.55165
2.5526
2.5531
2.55408
2.55696
2.56216
2.56918
2.57764
2.58589
2.59274
2.59812
2.60008
2.59895
2.5958
2.59335
2.59124
2.58865
2.58599
2.58381
2.58163
2.5786
2.57402
2.56839
2.56202
2.55515
2.54807
2.54096
2.53377
2.52641
2.51863
2.51022
2.50097
2.49112
2.482
2.47319
2.46424
2.45405
2.44161
2.42723
2.41219
2.3977
2.38452
2.37274
2.36161
2.35019
2.33839
2.32675
2.31548
2.30454
2.2943
2.28543
2.27831
2.27259
2.26797
2.26514
2.26483
2.26547
2.26415
2.26038
2.25632
2.25068
2.24634
2.24612
2.24773
2.25143
2.25506
2.25816
2.26086
2.26285
2.26434
2.26664
2.27128
2.27855
2.2878
2.29852
2.31001
2.32097
2.33069
2.34137
2.35626
2.37472
2.39374
2.41166
2.42855
2.44445
2.45786
2.46598
2.46701
2.46515
2.46243
2.46138
2.46202
2.46376
2.46442
2.46419
2.45941
2.45001
2.43848
2.42497
2.41331
2.4037
2.39578
2.38875
2.38037
2.36973
2.35989
2.3566
2.35908
2.36344
2.36252
2.35356
2.34114
2.3283
2.31342
2.29766
2.28391
2.27268
2.25931
2.24042
2.22069
2.20422
2.1922
2.18327
2.17463
2.16462
2.15661
2.15281
2.15287
2.15617
2.15809
2.15498
2.14942
2.14356
2.13578
2.12866
2.1263
2.12637
2.12981
2.13654
2.14168
2.14334
2.14396
2.14224
2.13749
2.13402
2.1324
2.1316
2.13171
2.1331
2.13543
2.13919
2.14275
2.14521
2.14641
2.14627
2.14459
2.14202
2.13971
2.13869
2.13926
2.14229
2.1468
2.15237
2.15727
2.16191
2.16621
2.16998
2.17271
2.17414
2.1753
2.17819
2.18358
2.18997
2.19567
2.20007
2.20305
2.20489
2.20566
2.20554
2.20414
2.20177
2.20003
2.19942
2.19958
2.20054
2.20222
2.20571
2.21092
2.2149
2.21605
2.21726
2.21799
2.21815
2.21836
2.22015
2.22396
2.22685
2.22714
2.22422
2.21871
2.21673
2.21544
2.21324
2.21035
2.2079
2.20616
2.20499
2.20254
2.19523
2.18697
2.17857
2.17018
2.16155
2.15232
2.14367
2.14003
2.1401
2.14123
2.13785
2.12707
2.11424
2.10185
2.08928
2.07656
2.0654
2.05665
2.04945
2.04065
2.03128
2.02334
2.01753
2.01385
2.01328
2.01593
2.02044
2.02036
2.01591
2.00918
2.00167
1.99658
1.99393
1.99214
1.99076
1.9898
1.98925
1.98915
2.49486
2.49599
2.4966
2.4967
2.49657
2.49623
2.49588
2.4955
2.49479
2.49376
2.49351
2.49427
2.49675
2.50137
2.50767
2.51423
2.52112
2.52801
2.5337
2.53691
2.53777
2.53886
2.54097
2.54269
2.54425
2.54558
2.54573
2.54457
2.54168
2.53765
2.53286
2.52753
2.52177
2.5156
2.50891
2.50152
2.49319
2.48373
2.47311
2.46187
2.45135
2.44119
2.43133
2.42076
2.40844
2.3945
2.37984
2.36555
2.35247
2.34079
2.33016
2.31999
2.31007
2.30064
2.29191
2.28366
2.27571
2.26831
2.2618
2.25626
2.25169
2.24841
2.24696
2.24671
2.24529
2.24119
2.23698
2.23215
2.22748
2.22548
2.22541
2.22645
2.22767
2.22835
2.22891
2.22893
2.22822
2.22814
2.22963
2.23293
2.23758
2.24357
2.25047
2.25707
2.26336
2.27235
2.28642
2.30369
2.32159
2.3391
2.35587
2.37155
2.38518
2.39591
2.40511
2.41425
2.42317
2.43214
2.44165
2.44918
2.45001
2.44945
2.44682
2.44097
2.43279
2.42436
2.41689
2.40958
2.40159
2.3931
2.38323
2.37116
2.35986
2.35598
2.35651
2.35702
2.35219
2.33646
2.31838
2.30187
2.2839
2.26679
2.25352
2.24278
2.22819
2.21069
2.19422
2.1808
2.17093
2.16426
2.15939
2.15473
2.15146
2.15048
2.1503
2.14834
2.14257
2.1371
2.13171
2.12477
2.11971
2.11739
2.11665
2.1189
2.12417
2.12747
2.12709
2.12534
2.12139
2.11638
2.11141
2.10815
2.10681
2.1069
2.10791
2.11126
2.11578
2.12023
2.12263
2.12276
2.12139
2.11674
2.11102
2.1066
2.1039
2.10337
2.10447
2.10723
2.11183
2.1167
2.12094
2.12402
2.12595
2.12573
2.12381
2.12253
2.1232
2.12717
2.13308
2.13945
2.14555
2.15019
2.15307
2.15354
2.15169
2.14784
2.14438
2.14295
2.14354
2.14641
2.14981
2.15361
2.15807
2.16284
2.16586
2.16686
2.16752
2.16752
2.16737
2.16778
2.1702
2.17521
2.18105
2.18633
2.18928
2.18873
2.18573
2.18576
2.18769
2.18866
2.18878
2.18958
2.19133
2.19231
2.18968
2.18223
2.17422
2.16599
2.15685
2.14615
2.13488
2.12559
2.12099
2.12026
2.12074
2.11595
2.10351
2.0894
2.07715
2.06586
2.05452
2.04445
2.03601
2.02783
2.0192
2.01227
2.00763
2.00533
2.0053
2.00852
2.01238
2.01161
2.00732
2.00226
1.99653
1.99135
1.98783
1.98507
1.98279
1.98122
1.97997
1.9791
1.97805
2.44451
2.44588
2.44653
2.44642
2.44561
2.44422
2.44255
2.44077
2.43891
2.43725
2.43642
2.4363
2.43689
2.43897
2.44165
2.44429
2.44763
2.45194
2.45674
2.46104
2.46447
2.46789
2.47188
2.47578
2.47957
2.48294
2.48495
2.48531
2.48491
2.48362
2.48147
2.47847
2.47457
2.46971
2.46383
2.4568
2.4485
2.43887
2.42807
2.41668
2.40551
2.39433
2.38346
2.37257
2.36098
2.3485
2.33581
2.32385
2.3133
2.30362
2.29469
2.28649
2.27903
2.27234
2.2665
2.26144
2.25677
2.25215
2.24743
2.24268
2.2385
2.23534
2.23347
2.23267
2.23151
2.22804
2.22448
2.22102
2.21727
2.21386
2.21157
2.2101
2.20892
2.20811
2.20767
2.20727
2.20719
2.20734
2.20746
2.2076
2.2081
2.20936
2.21135
2.21331
2.21622
2.22334
2.23432
2.24621
2.25825
2.27017
2.28159
2.29262
2.30367
2.31547
2.32872
2.34344
2.35917
2.37546
2.39212
2.40575
2.41357
2.4148
2.41419
2.4136
2.41163
2.40891
2.40561
2.40107
2.39479
2.38695
2.37654
2.3632
2.35095
2.34558
2.342
2.33641
2.32263
2.29983
2.27889
2.26058
2.24275
2.22821
2.21811
2.20713
2.19341
2.17936
2.16711
2.15801
2.15167
2.14862
2.14848
2.1494
2.14909
2.14492
2.13869
2.13296
2.12737
2.12146
2.1164
2.11402
2.11259
2.11356
2.11672
2.11961
2.11901
2.11659
2.11279
2.10841
2.10273
2.09679
2.09445
2.0939
2.09392
2.0963
2.1011
2.10582
2.1074
2.10679
2.10414
2.10044
2.09671
2.09197
2.08747
2.08509
2.08461
2.08476
2.08645
2.09035
2.09476
2.09741
2.09798
2.09797
2.09634
2.09235
2.08868
2.0879
2.08971
2.09346
2.09911
2.10542
2.1106
2.11364
2.11514
2.11364
2.10754
2.10097
2.09804
2.09793
2.09982
2.10329
2.1081
2.11324
2.1176
2.11965
2.12063
2.12085
2.12053
2.12028
2.12054
2.1223
2.126
2.13049
2.13526
2.13988
2.14196
2.14087
2.13958
2.14203
2.14678
2.1506
2.15397
2.15856
2.16182
2.16213
2.15949
2.15373
2.1466
2.13905
2.12985
2.11864
2.10771
2.09957
2.0946
2.09335
2.09191
2.08416
2.07221
2.05956
2.04939
2.04048
2.03254
2.02538
2.01843
2.01073
2.00426
2.00032
1.99903
1.9994
2.00228
2.00403
2.00193
1.99817
1.99403
1.98978
1.987
1.98518
1.98327
1.98077
1.97737
1.97409
1.97197
1.97106
1.96994
2.39803
2.39864
2.39819
2.39699
2.39536
2.39351
2.39146
2.3893
2.3874
2.38607
2.3854
2.38537
2.38607
2.38708
2.38697
2.38643
2.38588
2.38572
2.38618
2.38752
2.38981
2.39337
2.39742
2.40162
2.4056
2.40882
2.41089
2.41208
2.41284
2.41293
2.4127
2.41186
2.41005
2.40697
2.40245
2.39639
2.38889
2.38015
2.37056
2.36102
2.35129
2.3415
2.33175
2.32173
2.31105
2.3001
2.29015
2.28186
2.27482
2.26832
2.26196
2.25621
2.25101
2.24686
2.24345
2.24086
2.23894
2.23713
2.23469
2.23121
2.22745
2.22447
2.22246
2.22114
2.21997
2.21779
2.21527
2.21283
2.20985
2.20606
2.20211
2.19876
2.1963
2.19482
2.19449
2.19591
2.19807
2.19906
2.19863
2.19742
2.19532
2.19326
2.19192
2.19193
2.19355
2.19697
2.20163
2.20723
2.2131
2.21862
2.22337
2.228
2.23414
2.24389
2.25757
2.27324
2.28971
2.30635
2.32278
2.33775
2.34911
2.35508
2.3599
2.36612
2.3698
2.37046
2.36981
2.3674
2.36278
2.35621
2.34639
2.3333
2.32361
2.31714
2.30904
2.29515
2.27421
2.25001
2.23173
2.21533
2.20157
2.19268
2.18481
2.17455
2.16388
2.1526
2.14506
2.14009
2.13784
2.13841
2.14203
2.14372
2.14033
2.1327
2.12456
2.11771
2.11296
2.11015
2.10857
2.10892
2.11241
2.11749
2.11907
2.11695
2.11265
2.10724
2.10121
2.09399
2.08824
2.08644
2.08579
2.08671
2.09132
2.09789
2.10146
2.10092
2.09839
2.09351
2.08809
2.08242
2.07827
2.07667
2.07619
2.07615
2.07784
2.08042
2.08221
2.08243
2.08205
2.08077
2.07897
2.0762
2.07301
2.0709
2.07067
2.07159
2.07465
2.07968
2.0849
2.08789
2.08872
2.08847
2.08617
2.08164
2.07614
2.07189
2.07014
2.07016
2.07142
2.07461
2.07857
2.08185
2.08331
2.08403
2.08407
2.08361
2.083
2.08286
2.08361
2.08552
2.08825
2.09125
2.0944
2.09666
2.09602
2.09311
2.09351
2.09776
2.10286
2.10747
2.11257
2.11835
2.11979
2.11964
2.11837
2.11402
2.10765
2.10081
2.09251
2.08293
2.07513
2.06977
2.06645
2.06461
2.05959
2.05088
2.03935
2.03059
2.02393
2.01844
2.01397
2.00987
2.00529
2.0004
1.99719
1.99628
1.99663
1.99773
1.99718
1.99407
1.9905
1.9869
1.98397
1.98218
1.98169
1.9819
1.98074
1.97828
1.97356
1.96898
1.96699
1.96636
1.96602
2.35628
2.3559
2.35459
2.35238
2.35015
2.34841
2.34696
2.34568
2.34463
2.34384
2.34344
2.34343
2.34378
2.34373
2.34232
2.34033
2.3377
2.33427
2.33138
2.3307
2.33114
2.33321
2.3367
2.34018
2.34248
2.34374
2.34409
2.34384
2.34351
2.34309
2.34291
2.3428
2.34249
2.34132
2.33869
2.33444
2.32892
2.32251
2.31551
2.30843
2.30118
2.29378
2.28566
2.27653
2.26695
2.25878
2.25282
2.24876
2.24524
2.24138
2.23796
2.23433
2.23018
2.22776
2.22602
2.22495
2.22462
2.22443
2.22353
2.22135
2.21858
2.21618
2.21401
2.21217
2.21048
2.20879
2.20708
2.20513
2.2026
2.19913
2.19558
2.19276
2.19066
2.18946
2.19016
2.1939
2.19799
2.19901
2.19783
2.19522
2.19091
2.18559
2.18149
2.18007
2.17988
2.18007
2.18134
2.18334
2.18604
2.18911
2.19205
2.19512
2.19952
2.20621
2.21488
2.22441
2.23424
2.24416
2.25366
2.26255
2.27061
2.27761
2.28578
2.29555
2.30323
2.30788
2.3088
2.30807
2.30553
2.30088
2.29211
2.28212
2.27624
2.26996
2.25851
2.24062
2.21744
2.19932
2.18667
2.17579
2.16935
2.16538
2.15905
2.15225
2.1432
2.13386
2.12972
2.12781
2.1279
2.13092
2.13416
2.13305
2.12832
2.12048
2.11156
2.10738
2.1056
2.10442
2.10567
2.11102
2.117
2.11745
2.11519
2.11133
2.10638
2.09974
2.09103
2.08459
2.08234
2.08132
2.08272
2.08871
2.09679
2.0994
2.09793
2.09484
2.09005
2.08324
2.07606
2.07212
2.07075
2.07051
2.0727
2.07662
2.07892
2.07867
2.07744
2.07505
2.07188
2.06823
2.06503
2.06306
2.06212
2.06212
2.06424
2.06809
2.07117
2.07205
2.07203
2.07078
2.06912
2.06708
2.0631
2.05928
2.05816
2.05814
2.0581
2.05848
2.05967
2.06089
2.06125
2.06098
2.05987
2.05884
2.05772
2.05695
2.05693
2.05739
2.05859
2.06122
2.06334
2.06441
2.06523
2.06396
2.05961
2.05795
2.05912
2.06166
2.06454
2.06799
2.07281
2.07675
2.07792
2.0782
2.07733
2.07326
2.06736
2.06142
2.055
2.04933
2.04565
2.04304
2.04119
2.03713
2.02949
2.0171
2.01032
2.00738
2.00455
2.00216
2.00041
1.99868
1.99663
1.99573
1.99588
1.99669
1.9962
1.99336
1.98925
1.98493
1.98124
1.97921
1.97805
1.978
1.97897
1.97844
1.97682
1.97379
1.96956
1.96639
1.96494
1.96418
1.96492
2.32395
2.32346
2.32198
2.31937
2.31655
2.31445
2.31286
2.31163
2.31071
2.3097
2.30874
2.30792
2.30727
2.30684
2.30624
2.30491
2.30298
2.30041
2.29768
2.29564
2.2947
2.29474
2.29498
2.29483
2.29432
2.29348
2.2924
2.2915
2.29077
2.2902
2.29007
2.29028
2.29038
2.28987
2.28802
2.28496
2.2813
2.27716
2.27246
2.26726
2.2622
2.25696
2.2506
2.24327
2.23599
2.23176
2.22932
2.22824
2.22695
2.22526
2.2237
2.22068
2.21702
2.21533
2.21468
2.21445
2.2147
2.21499
2.21462
2.21311
2.2113
2.20992
2.2085
2.2067
2.20446
2.2023
2.20048
2.19856
2.19614
2.1933
2.19097
2.18946
2.18873
2.1895
2.19278
2.19724
2.19837
2.19714
2.19488
2.19153
2.18655
2.18017
2.17461
2.17127
2.16928
2.16789
2.16764
2.1698
2.17336
2.17644
2.17928
2.18197
2.18384
2.18437
2.18463
2.18589
2.18817
2.1908
2.1938
2.19781
2.20356
2.21128
2.21994
2.2292
2.23799
2.24299
2.24356
2.24186
2.23892
2.23413
2.2267
2.22198
2.21955
2.21494
2.20495
2.18908
2.16874
2.15866
2.15175
2.1477
2.14751
2.14597
2.14212
2.13816
2.12978
2.1216
2.11948
2.11899
2.12004
2.12367
2.12474
2.12275
2.11784
2.11075
2.10526
2.10286
2.10184
2.10325
2.10866
2.11427
2.11428
2.11223
2.10943
2.10519
2.09844
2.09007
2.0848
2.08228
2.08061
2.08131
2.08657
2.09445
2.09651
2.0951
2.09283
2.08941
2.08256
2.07415
2.0702
2.06886
2.06851
2.0707
2.0746
2.07588
2.07506
2.07368
2.07191
2.0687
2.06462
2.06176
2.0597
2.05865
2.05911
2.06194
2.06497
2.06549
2.06484
2.06273
2.06015
2.05727
2.05362
2.05006
2.0489
2.04879
2.04968
2.05313
2.05547
2.05554
2.05433
2.05112
2.04692
2.04411
2.04192
2.04004
2.03925
2.03921
2.04011
2.04285
2.04645
2.04857
2.04842
2.04773
2.04425
2.03865
2.03504
2.03477
2.03492
2.03606
2.03847
2.0429
2.04728
2.04882
2.04898
2.04823
2.04476
2.03911
2.03406
2.03015
2.02703
2.02561
2.02482
2.02415
2.02158
2.01589
2.00597
1.99572
1.99201
1.9898
1.98936
1.9909
1.99212
1.9924
1.9931
1.99493
1.9964
1.99639
1.99422
1.98945
1.98289
1.97831
1.97614
1.97479
1.97468
1.97556
1.97518
1.97353
1.97098
1.96725
1.96439
1.96356
1.96318
1.96417
1.96724
2.30207
2.30034
2.29778
2.29472
2.29176
2.28949
2.28788
2.28683
2.28608
2.28516
2.28424
2.2835
2.28302
2.28286
2.28283
2.28251
2.28146
2.2799
2.27781
2.2749
2.27142
2.26822
2.26554
2.2633
2.26179
2.26131
2.26163
2.26207
2.26217
2.26191
2.26077
2.25891
2.25687
2.25445
2.25171
2.24913
2.24694
2.24476
2.2422
2.23949
2.23685
2.2338
2.22991
2.2247
2.21988
2.21834
2.21773
2.21768
2.21713
2.21638
2.2152
2.21202
2.20922
2.20835
2.20809
2.20809
2.20847
2.20847
2.20778
2.20641
2.20557
2.20517
2.20458
2.20352
2.20179
2.19891
2.19537
2.1924
2.19009
2.18858
2.18746
2.18716
2.18848
2.19275
2.19739
2.19729
2.19524
2.19262
2.19019
2.18705
2.18244
2.17613
2.17009
2.16611
2.16385
2.16254
2.16251
2.16559
2.17053
2.17358
2.17365
2.17332
2.1722
2.16867
2.16366
2.16112
2.16045
2.16054
2.16179
2.16489
2.17034
2.1771
2.18301
2.18736
2.18947
2.18942
2.18593
2.18166
2.1788
2.17551
2.17317
2.17348
2.1733
2.17064
2.16309
2.14929
2.13689
2.13371
2.13157
2.13232
2.13419
2.13364
2.13236
2.1293
2.12006
2.11358
2.11278
2.11291
2.11481
2.11767
2.11781
2.11596
2.11133
2.10521
2.10238
2.10143
2.10245
2.10698
2.11125
2.11075
2.10855
2.10593
2.10206
2.09575
2.08876
2.08494
2.08269
2.08139
2.0824
2.08683
2.09251
2.09344
2.09198
2.09027
2.08788
2.08297
2.07529
2.07029
2.06834
2.0677
2.06894
2.07163
2.0721
2.07077
2.06939
2.06781
2.06554
2.06301
2.06129
2.05987
2.05904
2.05961
2.06163
2.06272
2.06217
2.06057
2.05779
2.05423
2.05009
2.04584
2.04323
2.0425
2.04239
2.04513
2.05103
2.05598
2.05655
2.05535
2.05067
2.04253
2.03605
2.03198
2.02981
2.02879
2.02844
2.02955
2.03312
2.03837
2.04115
2.04066
2.03905
2.03474
2.02761
2.02196
2.02068
2.02034
2.02065
2.02337
2.02873
2.03297
2.03323
2.03239
2.03001
2.02584
2.02001
2.01556
2.01314
2.01187
2.01191
2.01258
2.01306
2.01215
2.00832
2.00135
1.99131
1.98442
1.98292
1.98204
1.98211
1.98368
1.98694
1.99059
1.99339
1.99448
1.9944
1.99338
1.99136
1.9873
1.98076
1.97639
1.97441
1.97373
1.97366
1.97235
1.97022
1.9677
1.96438
1.96157
1.96078
1.96076
1.9632
1.96775
1.96845
2.28476
2.2819
2.27967
2.27813
2.27705
2.27637
2.27592
2.27548
2.27481
2.27362
2.27216
2.27068
2.26923
2.2679
2.26699
2.26652
2.26597
2.26484
2.26314
2.2608
2.25757
2.25374
2.25066
2.24864
2.24748
2.24761
2.24875
2.24893
2.24772
2.24551
2.24239
2.2386
2.23481
2.23144
2.2288
2.22715
2.22662
2.22664
2.22633
2.22566
2.22476
2.2232
2.22016
2.21561
2.21282
2.21241
2.21221
2.21195
2.21155
2.21097
2.20892
2.20602
2.20469
2.20478
2.20496
2.2052
2.2052
2.20442
2.20269
2.20111
2.20081
2.20085
2.20104
2.20093
2.19993
2.19762
2.19306
2.18839
2.1864
2.18553
2.18524
2.1863
2.19027
2.19587
2.19682
2.19491
2.19186
2.18794
2.18414
2.18031
2.17628
2.17281
2.16912
2.16521
2.16258
2.16143
2.16252
2.1665
2.16969
2.16942
2.16814
2.16645
2.16402
2.16001
2.15588
2.15304
2.15124
2.15074
2.15176
2.15472
2.15613
2.15647
2.15648
2.15647
2.15488
2.14976
2.14654
2.14541
2.14445
2.14369
2.14443
2.14509
2.14442
2.14068
2.13344
2.12433
2.12193
2.12152
2.1221
2.12492
2.12593
2.12611
2.12571
2.11882
2.11107
2.10884
2.10909
2.11028
2.11302
2.11438
2.11367
2.11141
2.10714
2.10387
2.10283
2.10325
2.10632
2.10916
2.10826
2.10598
2.10309
2.09836
2.09135
2.08613
2.08401
2.08245
2.08243
2.08491
2.08984
2.09281
2.09197
2.0899
2.08754
2.08483
2.08046
2.07477
2.07156
2.06996
2.06916
2.06972
2.07004
2.06886
2.06678
2.06477
2.06259
2.0607
2.05967
2.05935
2.05926
2.06049
2.06265
2.06413