/*--------------------------------*- C++ -*----------------------------------*\
  =========                 |
  \\      /  F ield         | OpenFOAM: The Open Source CFD Toolbox
   \\    /   O peration     | Website:  https://openfoam.org
    \\  /    A nd           | Version:  7
     \\/     M anipulation  |
\*---------------------------------------------------------------------------*/
FoamFile
{
    version     2.0;
    format      ascii;
    class       volScalarField;
    location    "3.8";
    object      p;
}
// * * * * * * * * * * * * * * * * * * * * * * * * * * * * * * * * * * * * * //

dimensions      [1 -1 -2 0 0 0 0];

internalField   nonuniform List<scalar> 
4128
(
3.17807
3.09591
3.01847
2.92634
2.8222
2.71799
2.6521
2.58107
2.49682
2.409
2.35842
2.30633
2.23627
2.14035
2.07451
2.04542
2.0034
1.9516
1.88741
1.83914
1.80063
1.75253
1.70745
1.66037
1.63514
1.61225
1.57277
1.52104
1.46455
1.44775
1.44086
1.41994
1.39117
1.35968
1.32382
1.28609
1.25632
1.24411
1.27177
1.47392
2.03863
2.53639
2.69014
2.65708
2.58617
2.5461
2.57879
2.69697
2.96256
3.14857
3.12801
3.04867
2.92874
2.84889
2.80231
2.77832
2.76475
2.72481
2.68287
2.6516
2.62758
2.61616
2.63059
2.65013
2.64661
2.64262
2.65778
2.71134
2.85433
3.1098
3.46117
3.76386
4.06114
4.23864
4.37002
4.42296
4.41403
4.38796
4.31452
4.19274
4.12621
4.09617
4.08656
4.10217
4.08779
4.05321
4.01862
3.95584
3.88242
3.84033
3.81702
3.80805
3.82066
3.83515
3.82725
3.81048
3.78886
3.74154
3.65841
3.59552
3.57559
3.57169
3.58861
3.60733
3.60678
3.59932
3.59046
3.57632
3.54552
3.4855
3.40942
3.37149
3.36191
3.35954
3.35641
3.35665
3.36016
3.35192
3.33924
3.316
3.25742
3.17048
3.12744
3.11742
3.11559
3.12769
3.16203
3.16589
3.14682
3.25239
3.18162
3.09467
3.00073
2.89153
2.79377
2.72702
2.65115
2.56636
2.48052
2.42881
2.37233
2.29798
2.19973
2.14239
2.11368
2.06881
2.01225
1.94085
1.89293
1.85495
1.80727
1.7616
1.71422
1.68799
1.66076
1.61789
1.56649
1.51402
1.50106
1.49177
1.4672
1.43374
1.39439
1.35214
1.31882
1.31247
1.35594
1.62622
2.18873
2.76333
2.8782
2.83277
2.74713
2.66233
2.66137
2.74185
2.93702
3.20204
3.2461
3.20903
3.11947
3.01427
2.94823
2.90142
2.85662
2.80361
2.74003
2.67122
2.63157
2.60306
2.581
2.58551
2.60011
2.58374
2.55055
2.50694
2.45857
2.44259
2.46172
2.58344
2.83131
3.19322
3.5601
3.85692
4.08261
4.18483
4.23848
4.21815
4.17059
4.14375
4.11531
4.10864
4.08971
4.05018
4.01025
3.96488
3.91103
3.86535
3.83307
3.8029
3.78614
3.78675
3.79105
3.78021
3.76212
3.74477
3.71951
3.67528
3.61251
3.55902
3.54045
3.53878
3.54064
3.53772
3.53613
3.53659
3.52559
3.50855
3.4795
3.42063
3.34666
3.31317
3.30586
3.30225
3.30681
3.31767
3.31237
3.30484
3.29292
3.26571
3.19825
3.1154
3.08613
3.07969
3.0767
3.0832
3.11754
3.11003
3.33621
3.2622
3.16632
3.07117
2.95503
2.8723
2.80345
2.7226
2.63629
2.55169
2.49916
2.43779
2.36045
2.26409
2.21124
2.18051
2.13286
2.07127
1.99421
1.94753
1.90946
1.86257
1.81545
1.76698
1.74033
1.7089
1.66434
1.6143
1.56662
1.55525
1.54263
1.51281
1.47282
1.42548
1.37881
1.37887
1.44808
1.80492
2.41666
2.92055
3.07123
3.01938
2.9009
2.77877
2.74384
2.79726
2.95879
3.22114
3.37352
3.35351
3.27934
3.17724
3.09069
3.03502
2.99507
2.93989
2.8761
2.79516
2.70322
2.65156
2.61724
2.59328
2.58349
2.56832
2.54076
2.51233
2.47683
2.43633
2.41927
2.40616
2.37266
2.36842
2.42318
2.57819
2.80885
3.12372
3.43486
3.72681
3.9418
4.02261
4.07426
4.08103
4.07312
4.05266
4.00405
3.94048
3.89309
3.87122
3.85277
3.83582
3.82254
3.79113
3.74634
3.71595
3.69799
3.68373
3.67336
3.66361
3.64782
3.61867
3.56973
3.51378
3.48987
3.48143
3.47764
3.47967
3.48731
3.48413
3.47353
3.45668
3.42295
3.35115
3.26756
3.23047
3.22314
3.21904
3.22852
3.26347
3.27399
3.26929
3.25593
3.22245
3.14172
3.05681
3.02776
3.02197
3.01918
3.03501
3.0643
3.42111
3.33615
3.23814
3.13634
3.02087
2.95433
2.87832
2.79524
2.70579
2.62364
2.57009
2.50261
2.42341
2.33105
2.28332
2.24925
2.19653
2.12778
2.04568
2.00313
1.96658
1.92082
1.87185
1.82141
1.79271
1.75698
1.71183
1.66304
1.62119
1.61038
1.59245
1.55632
1.51084
1.45505
1.45054
1.54214
1.99337
2.69018
3.14284
3.17616
3.10348
2.99342
2.89905
2.8515
2.88942
3.02104
3.25594
3.49477
3.49723
3.41041
3.30003
3.22022
3.1621
3.12495
3.0872
3.03058
2.96227
2.86549
2.77116
2.72008
2.68246
2.65275
2.62455
2.58724
2.55056
2.51184
2.46361
2.4247
2.40347
2.38724
2.37039
2.34934
2.29358
2.24467
2.24995
2.30489
2.46008
2.72123
3.10292
3.43802
3.77104
3.91302
3.95071
3.94046
3.88962
3.85747
3.84407
3.81741
3.81629
3.83864
3.82834
3.79091
3.72895
3.66242
3.63588
3.62214
3.61359
3.61513
3.61678
3.60076
3.57018
3.51007
3.43109
3.39367
3.38516
3.38421
3.40815
3.44476
3.45115
3.44145
3.4187
3.36559
3.26243
3.18153
3.15597
3.15042
3.15075
3.18636
3.24549
3.25612
3.24466
3.2195
3.16859
3.06822
2.99335
2.97513
2.96814
2.96609
2.99512
3.5026
3.40522
3.30892
3.193
3.0956
3.03643
2.95229
2.8699
2.77288
2.69644
2.64086
2.56714
2.48803
2.40074
2.35574
2.31611
2.25744
2.18127
2.09814
2.06196
2.0265
1.98077
1.92881
1.8765
1.84598
1.80607
1.76045
1.71124
1.67587
1.66367
1.63612
1.59987
1.54843
1.54613
1.68922
2.1788
2.99393
3.25408
3.28186
3.21193
3.10462
3.03101
2.99228
3.0105
3.12447
3.33803
3.59319
3.62641
3.54583
3.41431
3.32814
3.271
3.23945
3.22487
3.18128
3.12406
3.04443
2.92582
2.83678
2.78956
2.75425
2.72096
2.67899
2.63489
2.58796
2.53191
2.47853
2.44803
2.42515
2.4056
2.3823
2.35195
2.30673
2.23973
2.19738
2.17352
2.16068
2.17925
2.28741
2.49144
2.7924
3.12091
3.39301
3.65646
3.74081
3.71405
3.71315
3.73956
3.78505
3.81573
3.80667
3.76905
3.71309
3.63169
3.57895
3.56512
3.5624
3.5848
3.60215
3.58922
3.56297
3.50697
3.4042
3.32534
3.29926
3.29357
3.30575
3.37215
3.42424
3.41984
3.40069
3.36622
3.28446
3.1646
3.11266
3.10114
3.0981
3.10793
3.1438
3.17967
3.18837
3.18084
3.15766
3.10041
3.0005
2.94284
2.93212
2.92894
2.93922
3.57637
3.47364
3.37611
3.2488
3.17608
3.11454
3.02873
2.94426
2.83806
2.77191
2.71047
2.63171
2.5539
2.47148
2.42886
2.38201
2.31664
2.23277
2.15305
2.1237
2.08865
2.04216
1.98682
1.93357
1.90042
1.85629
1.81028
1.75961
1.73169
1.70846
1.6827
1.64642
1.66749
1.91256
2.51261
3.19169
3.44565
3.39637
3.33909
3.26388
3.18818
3.14801
3.15316
3.23379
3.43445
3.70128
3.75739
3.69325
3.56886
3.451
3.38224
3.34155
3.32321
3.29326
3.24045
3.18003
3.09042
2.9817
2.91885
2.8815
2.8441
2.79883
2.74781
2.69082
2.62051
2.55376
2.52096
2.4951
2.47042
2.44286
2.41188
2.3769
2.32955
2.26316
2.20131
2.15954
2.13811
2.12793
2.11911
2.11341
2.13963
2.2309
2.39517
2.65542
2.99454
3.28862
3.48567
3.55355
3.61787
3.6673
3.6888
3.68754
3.6699
3.60455
3.52977
3.51277
3.51633
3.55647
3.58111
3.57099
3.5469
3.49691
3.39554
3.28922
3.24948
3.23633
3.23534
3.25986
3.31565
3.35102
3.35073
3.33357
3.28974
3.20006
3.10508
3.06951
3.06185
3.06473
3.07905
3.09709
3.11272
3.11208
3.10548
3.0881
3.03848
2.96124
2.91652
2.90822
2.90722
3.64274
3.54793
3.44185
3.3169
3.2611
3.19122
3.10591
3.01233
2.90495
2.84681
2.77762
2.69968
2.62008
2.54272
2.50096
2.44437
2.37314
2.28511
2.21391
2.18908
2.15271
2.1038
2.04296
1.9905
1.95392
1.90779
1.86104
1.8121
1.77894
1.75612
1.74602
1.81173
2.1581
2.91511
3.44806
3.69372
3.65409
3.53753
3.4201
3.30782
3.2534
3.25774
3.33269
3.51055
3.78778
3.92007
3.88147
3.77214
3.62582
3.52424
3.46231
3.4225
3.3839
3.33328
3.27805
3.20838
3.11422
3.04541
3.00569
2.96706
2.92425
2.87671
2.82023
2.74489
2.65427
2.59259
2.55906
2.53205
2.50834
2.48121
2.45081
2.41427
2.3624
2.29954
2.24389
2.20182
2.1654
2.12877
2.09869
2.0796
2.05561
2.04099
2.04084
2.07192
2.17454
2.38917
2.67978
2.98788
3.22836
3.3975
3.46785
3.54679
3.55857
3.5247
3.50039
3.47461
3.47563
3.51426
3.5374
3.52455
3.49893
3.45656
3.3885
3.30462
3.2378
3.20566
3.19579
3.19779
3.20701
3.22595
3.24601
3.25167
3.24238
3.20822
3.15523
3.09951
3.05893
3.04346
3.03824
3.03587
3.0386
3.0399
3.03344
3.02613
3.0186
2.99393
2.94335
2.89906
2.88333
3.71596
3.63002
3.50697
3.40351
3.34896
3.26576
3.17897
3.07349
2.97518
2.92047
2.84534
2.76972
2.68417
2.61343
2.56905
2.50318
2.42989
2.34043
2.28179
2.25848
2.21811
2.16479
2.09812
2.0452
2.00659
1.95795
1.91116
1.86606
1.83056
1.8507
2.00207
2.44511
3.24819
3.85497
3.8583
3.78814
3.65985
3.51348
3.40096
3.34751
3.33551
3.40526
3.58349
3.83898
4.06855
4.06957
3.99523
3.84076
3.68806
3.60091
3.54259
3.49289
3.43733
3.38186
3.31972
3.23384
3.15056
3.10768
3.07104
3.03253
2.99051
2.94269
2.87949
2.79107
2.70377
2.65346
2.61983
2.58781
2.55442
2.52032
2.48476
2.44486
2.39802
2.34977
2.30538
2.26272
2.21607
2.16277
2.10704
2.06867
2.04063
2.02063
2.00838
2.00475
2.01083
2.01667
2.05495
2.15871
2.30987
2.53126
2.78588
3.04257
3.28325
3.33059
3.38664
3.41839
3.41304
3.4222
3.418
3.41182
3.39865
3.3835
3.35622
3.31829
3.28245
3.2439
3.20141
3.16791
3.15087
3.14155
3.13597
3.13865
3.14899
3.15154
3.14452
3.1298
3.0949
3.04233
3.00491
2.99201
2.98542
2.98078
2.97736
2.97942
2.98098
2.97838
2.9599
2.91435
2.8554
3.80999
3.71435
3.57772
3.50118
3.43438
3.33983
3.24781
3.12828
3.04783
2.9936
2.9149
2.83905
2.74719
2.68343
2.63352
2.56148
2.4892
2.4014
2.35498
2.32931
2.28308
2.22408
2.15308
2.09754
2.05798
2.0071
1.96452
1.93333
1.97338
2.27442
2.90862
3.53589
4.08057
4.11895
4.01272
3.82817
3.67031
3.5357
3.4617
3.44017
3.48749
3.67493
3.93146
4.18823
4.22952
4.17652
4.05554
3.88249
3.75215
3.68875
3.63661
3.57445
3.51065
3.4443
3.36484
3.26753
3.19558
3.15316
3.11713
3.08144
3.04242
2.99543
2.92756
2.83605
2.7607
2.71149
2.66949
2.62938
2.59072
2.55237
2.51208
2.46614
2.42251
2.3901
2.35964
2.32468
2.28023
2.22306
2.15159
2.08546
2.05505
2.0352
2.01548
2.00037
1.99085
1.98271
1.97533
1.95695
1.91727
1.92658
2.00727
2.18297
2.47752
2.77812
3.05
3.28268
3.32531
3.33222
3.31078
3.28478
3.28634
3.28813
3.30697
3.30784
3.28658
3.25499
3.22335
3.17525
3.10616
3.06838
3.06021
3.05656
3.06544
3.0995
3.12349
3.11894
3.09402
3.04257
2.97315
2.93966
2.93429
2.93159
2.93227
2.95014
2.9761
2.97106
2.95181
2.91204
2.83335
3.91352
3.79958
3.66637
3.59457
3.50795
3.40869
3.30766
3.18107
3.12024
3.06362
2.98411
2.90515
2.81028
2.75463
2.69817
2.62389
2.55241
2.46755
2.42961
2.39842
2.34397
2.28101
2.20258
2.15018
2.10798
2.05965
2.05704
2.15314
2.59077
3.4726
3.97814
4.19672
4.20544
4.10876
3.99311
3.84491
3.73257
3.63918
3.60995
3.64571
3.78285
4.03523
4.31513
4.37304
4.3161
4.2102
4.06635
3.91721
3.83
3.77836
3.73053
3.66893
3.60041
3.5149
3.40276
3.30247
3.24649
3.20388
3.16235
3.11992
3.07631
3.02635
2.96134
2.88892
2.82916
2.77759
2.72692
2.67641
2.62704
2.58026
2.53176
2.48634
2.45568
2.43038
2.40578
2.37879
2.34016
2.27123
2.17227
2.1064
2.08156
2.06434
2.04757
2.02931
2.00965
1.99085
1.97262
1.94908
1.91802
1.86099
1.82471
1.82552
1.87525
2.01302
2.22557
2.5197
2.76498
3.00013
3.1431
3.1435
3.17492
3.18234
3.20635
3.22216
3.22179
3.22036
3.20441
3.16522
3.0895
3.02811
3.01468
3.01286
3.02499
3.06088
3.07558
3.0687
3.05453
3.01541
2.94014
2.88366
2.87211
2.87288
2.89757
2.9393
2.94655
2.93924
2.92328
2.88988
2.81025
4.00797
3.90973
3.76876
3.66844
3.56411
3.4689
3.3573
3.23969
3.19492
3.13471
3.05622
2.96899
2.87583
2.82725
2.76356
2.69132
2.61806
2.53885
2.50539
2.46444
2.40018
2.33443
2.2474
2.19987
2.1668
2.19847
2.46345
3.05692
3.95625
4.36987
4.48484
4.45937
4.31308
4.12821
3.99054
3.891
3.80953
3.7742
3.80594
3.9294
4.14288
4.43849
4.52884
4.46593
4.35547
4.21846
4.08509
3.98579
3.92553
3.87812
3.82401
3.76022
3.68041
3.56892
3.44622
3.36874
3.31529
3.26347
3.21242
3.16103
3.10632
3.04368
2.9774
2.92777
2.88641
2.8414
2.78808
2.727
2.66196
2.59274
2.53974
2.51089
2.4868
2.46564
2.44515
2.41996
2.38607
2.32443
2.21946
2.13981
2.10951
2.08903
2.0693
2.04933
2.02952
2.01041
1.99035
1.96599
1.92859
1.87627
1.82309
1.80175
1.78805
1.77794
1.7962
1.85884
1.97366
2.15362
2.41593
2.65952
2.90099
3.02988
3.0721
3.13779
3.14462
3.13766
3.12813
3.10928
3.06619
2.99878
2.9791
2.97974
2.99422
3.03279
3.04019
3.02966
3.01227
2.97572
2.90891
2.85091
2.82346
2.81644
2.82728
2.86925
2.90007
2.90088
2.88967
2.86501
2.79267
4.02321
3.98496
3.85958
3.73389
3.62525
3.53198
3.40481
3.30893
3.27108
3.20639
3.1273
3.02944
2.94634
2.90037
2.83224
2.76339
2.68022
2.6116
2.5783
2.52008
2.45385
2.38201
2.30426
2.28263
2.3697
2.83477
3.76335
4.41273
4.68419
4.59763
4.54883
4.49239
4.3749
4.20458
4.04851
3.97263
3.92855
3.95321
4.06926
4.27723
4.53462
4.68175
4.63327
4.53526
4.3959
4.24913
4.1425
4.07577
4.01563
3.95417
3.88649
3.80635
3.70729
3.59859
3.5169
3.45673
3.39677
3.33302
3.26687
3.20414
3.13431
3.05335
3.00403
2.9697
2.93497
2.89687
2.8483
2.77763
2.68155
2.59631
2.56126
2.53901
2.51832
2.50358
2.48565
2.45854
2.42369
2.36521
2.25863
2.1714
2.14178
2.12203
2.10128
2.07916
2.05662
2.03367
2.00912
1.98211
1.94959
1.9105
1.86475
1.81868
1.7809
1.75592
1.74519
1.73743
1.72647
1.73827
1.79667
1.9371
2.14995
2.43053
2.668
2.9073
3.03474
3.05286
3.0461
3.02688
2.98676
2.94919
2.93515
2.94319
2.96976
2.98927
2.99436
2.98742
2.97424
2.94735
2.89794
2.83748
2.80125
2.78643
2.77992
2.7804
2.7963
2.81903
2.82715
2.82028
2.77805
3.91962
4.01451
3.93761
3.81566
3.71323
3.60828
3.45506
3.38129
3.34486
3.27507
3.19326
3.09473
3.02346
2.97536
2.90755
2.83338
2.73772
2.68293
2.63931
2.56497
2.50891
2.43673
2.44977
2.69276
3.35042
4.37585
4.8775
5.04788
4.99276
4.79019
4.59998
4.47811
4.36694
4.24114
4.13313
4.09156
4.10535
4.21467
4.46551
4.67241
4.84305
4.82934
4.74747
4.61087
4.44881
4.321
4.22825
4.15072
4.07916
4.00664
3.92636
3.82406
3.71468
3.64916
3.59994
3.54719
3.48703
3.41538
3.32872
3.22438
3.12691
3.07682
3.04401
3.01476
2.9893
2.95781
2.91409
2.83393
2.69446
2.6007
2.57134
2.54965
2.53341
2.52674
2.5103
2.48505
2.45569
2.41285
2.32783
2.20833
2.14913
2.12535
2.10809
2.09508
2.07909
2.06009
2.03575
2.00308
1.97054
1.94504
1.91856
1.87912
1.82211
1.76776
1.73095
1.70893
1.69795
1.69607
1.69563
1.69248
1.71046
1.79837
1.94847
2.16732
2.41578
2.62674
2.85443
2.92495
2.90163
2.91691
2.90266
2.87648
2.86118
2.85709
2.87634
2.90415
2.91515
2.91231
2.88987
2.85775
2.82366
2.78768
2.75296
2.7257
2.71641
2.71593
2.72512
2.73577
2.73463
3.63874
3.95294
3.98934
3.91916
3.82116
3.68678
3.5075
3.45393
3.41645
3.34111
3.26045
3.16692
3.1008
3.05082
2.98227
2.89425
2.79844
2.74647
2.68557
2.6242
2.59822
2.68777
3.20007
4.09759
4.9606
5.21515
5.11226
5.08113
5.00713
4.8794
4.70433
4.53338
4.3829
4.26142
4.21739
4.24386
4.3634
4.64462
4.87242
5.00741
5.01433
4.93882
4.81541
4.65954
4.51047
4.40483
4.31436
4.22824
4.14414
4.05361
3.94489
3.83254
3.76453
3.7167
3.67294
3.62671
3.57133
3.49381
3.36963
3.21944
3.14006
3.10663
3.07746
3.05786
3.0387
3.0031
2.95952
2.88643
2.74849
2.63341
2.59254
2.56732
2.54442
2.52397
2.51003
2.49484
2.47427
2.44482
2.39009
2.30124
2.20822
2.15368
2.12321
2.10142
2.08087
2.05958
2.03721
2.01421
1.98992
1.9696
1.9513
1.92508
1.87923
1.81218
1.75231
1.71522
1.69264
1.68077
1.67255
1.66514
1.66377
1.65258
1.63434
1.65392
1.73779
1.88809
2.14147
2.3906
2.63096
2.81637
2.85282
2.83336
2.81866
2.79025
2.77973
2.7792
2.8009
2.83906
2.85775
2.84973
2.83173
2.80947
2.77056
2.71321
2.66899
2.65482
2.64876
2.64657
2.66217
3.05418
3.70204
3.9675
3.97754
3.90342
3.7651
3.59242
3.5386
3.48725
3.40844
3.33237
3.24091
3.17468
3.12116
3.04566
2.95191
2.85299
2.80268
2.74832
2.79446
3.09203
3.85841
4.92299
5.48995
5.64781
5.56332
5.29702
5.07611
4.96061
4.89158
4.78765
4.62969
4.45748
4.35303
4.36517
4.46789
4.75977
5.06177
5.20298
5.20961
5.1288
5.00044
4.85633
4.70508
4.58321
4.49157
4.40322
4.31216
4.21335
4.09382
3.95591
3.86711
3.81642
3.77198
3.73462
3.69051
3.63633
3.55327
3.39847
3.23595
3.17807
3.14669
3.11799
3.09794
3.07212
3.03551
2.99349
2.92927
2.81313
2.67994
2.62483
2.59827
2.57213
2.5431
2.51451
2.48938
2.46453
2.43674
2.40611
2.35821
2.27955
2.19283
2.14389
2.11781
2.09698
2.07637
2.05233
2.02457
1.99893
1.97737
1.9569
1.93407
1.89995
1.83762
1.77606
1.74543
1.72443
1.70309
1.68169
1.66816
1.65771
1.64467
1.62563
1.57737
1.54947
1.55795
1.60828
1.73183
1.9481
2.24728
2.454
2.63237
2.73909
2.75777
2.72644
2.70564
2.70493
2.72401
2.7575
2.79247
2.80259
2.79361
2.769
2.72016
2.65524
2.61807
2.60709
2.60276
2.60908
2.5347
3.10593
3.7929
3.91218
3.8997
3.84352
3.72866
3.63637
3.55486
3.47557
3.40153
3.30736
3.24541
3.18741
3.09623
3.00611
2.91764
2.90983
3.06135
3.7211
4.71276
5.63141
5.81638
5.74264
5.64871
5.53954
5.36997
5.19054
5.04764
4.94245
4.81738
4.66915
4.56692
4.5454
4.63344
4.91109
5.25021
5.39937
5.39334
5.31023
5.18029
5.03016
4.88562
4.75852
4.66449
4.5842
4.49898
4.40206
4.2803
4.11791
3.98069
3.91942
3.87005
3.82583
3.78394
3.73502
3.67914
3.59557
3.44464
3.27938
3.20995
3.17677
3.14716
3.11984
3.08836
3.05463
3.01706
2.96436
2.8854
2.77176
2.66672
2.6156
2.58472
2.55683
2.52796
2.4985
2.46931
2.44045
2.41307
2.38508
2.34392
2.2699
2.17189
2.12285
2.1014
2.08206
2.05968
2.03774
2.02095
2.0053
1.98706
1.95949
1.90831
1.83395
1.78588
1.76603
1.75151
1.73615
1.71991
1.70398
1.68414
1.65658
1.61961
1.57358
1.53617
1.52989
1.52274
1.52327
1.55003
1.64722
1.79766
1.99444
2.20105
2.3662
2.55633
2.61435
2.6194
2.65546
2.6964
2.72183
2.72142
2.7158
2.70596
2.68645
2.64377
2.59504
2.57894
2.57552
2.58286
2.34437
2.5893
3.27858
3.73614
3.83163
3.86638
3.82201
3.71777
3.61976
3.54642
3.46171
3.36192
3.31352
3.24441
3.16088
3.07651
3.13953
3.55285
4.53798
5.59449
6.24699
6.34918
6.18726
5.86932
5.56845
5.46442
5.39934
5.31513
5.19519
5.03496
4.85829
4.72453
4.70263
4.78996
5.07134
5.43298
5.63683
5.60578
5.51069
5.36894
5.20853
5.05108
4.91625
4.8203
4.74685
4.67461
4.59512
4.49621
4.34816
4.14648
4.02287
3.96608
3.91451
3.86579
3.8178
3.76855
3.71416
3.64103
3.52699
3.37125
3.2536
3.19943
3.16313
3.12747
3.08898
3.04929
3.01165
2.97707
2.93415
2.8702
2.77453
2.6678
2.60514
2.57003
2.53914
2.50475
2.46605
2.43329
2.41096
2.3908
2.36832
2.32911
2.25039
2.15324
2.0983
2.07117
2.05269
2.04097
2.03795
2.02871
2.01411
1.99014
1.93753
1.84431
1.78613
1.77158
1.76259
1.75467
1.74439
1.73235
1.71534
1.68663
1.63722
1.57357
1.53628
1.52213
1.5097
1.50388
1.49975
1.49698
1.50366
1.53687
1.62437
1.73713
1.93764
2.15153
2.33073
2.52557
2.62693
2.65824
2.66824
2.66526
2.65056
2.62266
2.58248
2.55085
2.54447
2.54803
2.5627
2.32321
2.38384
2.67778
3.31604
3.66236
3.82653
3.84259
3.78091
3.69961
3.62556
3.5249
3.41338
3.37466
3.30307
3.31853
3.56777
4.38306
5.48469
6.37988
6.47347
6.45715
6.37204
6.18752
5.94052
5.6632
5.52529
5.45346
5.3816
5.27843
5.12291
4.9672
4.88073
4.95457
5.24989
5.63104
5.86093
5.85509
5.75403
5.60544
5.43071
5.24186
5.06668
4.95887
4.88454
4.81438
4.74221
4.66482
4.5679
4.41514
4.20108
4.06628
4.00485
3.9513
3.89886
3.84773
3.79598
3.73957
3.67439
3.59326
3.48087
3.33731
3.2312
3.18047
3.14529
3.10715
3.06106
3.00971
2.9656
2.93444
2.90457
2.85352
2.75589
2.64468
2.58184
2.54513
2.51201
2.47907
2.44934
2.42486
2.4028
2.37889
2.34935
2.29476
2.18907
2.11018
2.08464
2.06844
2.05406
2.03925
2.02131
2.00171
1.98393
1.95644
1.88805
1.80995
1.77758
1.76156
1.74708
1.73357
1.7208
1.7074
1.68983
1.65585
1.60011
1.55789
1.53664
1.52181
1.50732
1.49215
1.48143
1.47374
1.46915
1.45995
1.45436
1.48436
1.59289
1.75318
1.98176
2.19889
2.3859
2.55362
2.60817
2.61465
2.58304
2.53688
2.49788
2.48585
2.48207
2.49937
2.34329
2.32507
2.38707
2.71766
3.26349
3.62652
3.82487
3.82458
3.78609
3.71574
3.59244
3.50287
3.47896
3.67026
4.33085
5.48666
6.51628
7.13052
7.15774
6.88502
6.5329
6.27977
6.10172
5.9656
5.82322
5.65713
5.5229
5.40712
5.301
5.20864
5.11576
5.14286
5.40526
5.79802
6.06745
6.0993
6.00903
5.86327
5.69055
5.49875
5.2705
5.09234
5.00556
4.93293
4.86316
4.79088
4.71602
4.6283
4.49406
4.28935
4.11817
4.03407
3.97537
3.92066
3.86785
3.81471
3.75716
3.6958
3.63467
3.56478
3.46046
3.31493
3.19601
3.13681
3.09895
3.06127
3.01872
2.97863
2.94667
2.9174
2.884
2.82512
2.71315
2.60585
2.55363
2.52152
2.49156
2.46371
2.44355
2.42504
2.40457
2.37735
2.32629
2.22444
2.12759
2.095
2.07835
2.0634
2.04889
2.03258
2.01058
1.98609
1.95572
1.91103
1.8465
1.79847
1.77355
1.75495
1.73926
1.72682
1.71475
1.69532
1.6613
1.61171
1.57515
1.5565
1.54381
1.52795
1.50608
1.48463
1.46894
1.45663
1.44008
1.42732
1.40254
1.3915
1.40688
1.47871
1.61905
1.80637
2.03867
2.23992
2.41331
2.50132
2.50469
2.48791
2.47749
2.45527
2.42084
2.38459
2.35083
2.32942
2.39167
2.7029
3.16807
3.66569
3.84314
3.83626
3.80009
3.70605
3.78339
4.31554
5.48066
6.55788
7.13678
7.27881
7.28185
7.19294
6.9634
6.61771
6.2806
6.06132
5.96777
5.88379
5.75894
5.61391
5.47065
5.36738
5.34092
5.37557
5.61344
6.00022
6.24855
6.30109
6.2292
6.10433
5.94719
5.77028
5.55296
5.29329
5.13167
5.05128
4.97722
4.90781
4.83644
4.76298
4.68284
4.57461
4.40539
4.20136
4.06893
3.99528
3.93745
3.87904
3.81914
3.76253
3.71174
3.66506
3.61375
3.54003
3.41809
3.26219
3.15326
3.09211
3.04931
3.01664
2.98806
2.96052
2.93382
2.9077
2.87059
2.78694
2.65085
2.56002
2.5183
2.48779
2.46287
2.4445
2.42764
2.40769
2.3843
2.34574
2.26883
2.17593
2.1216
2.09125
2.06854
2.05262
2.04218
2.03205
2.01268
1.98057
1.93068
1.87023
1.82365
1.79683
1.77654
1.75662
1.73633
1.72126
1.70854
1.68408
1.6409
1.59391
1.5642
1.54827
1.53654
1.52695
1.51738
1.5037
1.48434
1.45718
1.42664
1.39629
1.38149
1.37203
1.35319
1.35316
1.38154
1.48752
1.64939
1.87114
2.09187
2.26026
2.39927
2.46099
2.45383
2.40465
2.43493
2.38732
2.35283
2.33751
2.40458
2.65872
3.25803
3.66795
3.7766
3.9713
4.45696
5.41451
6.73035
7.65709
7.85546
7.80965
7.51664
7.22891
7.09318
6.95487
6.72562
6.4007
6.1163
5.97145
5.89048
5.799
5.68364
5.57126
5.52743
5.59211
5.83594
6.23277
6.45974
6.48188
6.4315
6.31484
6.17179
6.01763
5.84665
5.61091
5.33165
5.17664
5.09257
5.01531
4.94298
4.87191
4.80014
4.72472
4.63634
4.51287
4.32957
4.13499
4.00877
3.93422
3.8781
3.82091
3.76478
3.7195
3.67732
3.63356
3.58592
3.50894
3.35067
3.17699
3.09957
3.0615
3.02963
3.00126
2.9738
2.94433
2.91139
2.87431
2.81553
2.69142
2.57713
2.53694
2.51119
2.48353
2.45696
2.43328
2.41084
2.3837
2.34184
2.27504
2.19811
2.14705
2.11777
2.09481
2.0727
2.04873
2.02026
1.98998
1.95937
1.9229
1.8819
1.84561
1.81508
1.79061
1.76999
1.74974
1.72669
1.69951
1.66828
1.63393
1.60572
1.58849
1.57566
1.56087
1.542
1.51871
1.4904
1.46053
1.43177
1.40638
1.39695
1.39197
1.37949
1.3581
1.33566
1.30495
1.29552
1.3111
1.39125
1.53892
1.73712
1.96868
2.16273
2.32637
2.37418
2.49163
2.4399
2.39091
2.34384
2.34263
2.39401
2.78647
3.31288
4.1502
5.59885
6.87061
7.79843
7.95762
8.0163
7.94533
7.82391
7.60273
7.25238
7.01349
6.89826
6.74775
6.51371
6.26009
6.06168
5.93788
5.8396
5.76853
5.75874
5.85533
6.12681
6.51175
6.70956
6.67817
6.59745
6.50657
6.37884
6.2353
6.09001
5.92133
5.67479
5.39064
5.22774
5.13568
5.05301
4.97422
4.89969
4.82987
4.76196
4.68575
4.58357
4.43937
4.25213
4.06815
3.94352
3.8664
3.81201
3.76809
3.73237
3.70529
3.67596
3.63629
3.56764
3.42957
3.23897
3.12666
3.07581
3.03864
3.00742
2.983
2.96245
2.93834
2.90779
2.85288
2.74923
2.61937
2.5502
2.52418
2.50538
2.48699
2.46515
2.43957
2.41003
2.36955
2.31004
2.2331
2.17023
2.13346
2.10671
2.08089
2.05191
2.01874
1.98317
1.95051
1.9262
1.90459
1.87838
1.84946
1.82096
1.79152
1.76002
1.72517
1.69008
1.66239
1.63933
1.62081
1.60741
1.5954
1.58059
1.55974
1.53112
1.4947
1.45215
1.42198
1.40727
1.39588
1.38301
1.37118
1.35754
1.33743
1.31059
1.28228
1.26012
1.25966
1.27118
1.32386
1.45354
1.63008
1.82749
2.08595
2.53319
2.49322
2.43869
2.37272
2.35642
2.40038
2.63365
3.70323
5.6778
7.52279
8.53473
8.89061
8.6094
8.14577
7.85587
7.75113
7.61893
7.36931
7.08988
6.89036
6.72366
6.54871
6.35332
6.16309
6.00578
5.90625
5.92825
6.0726
6.41357
6.86401
7.03007
6.94085
6.79981
6.65979
6.5307
6.40299
6.27336
6.13627
5.96636
5.73734
5.49549
5.31312
5.18821
5.09078
5.00368
4.92252
4.84404
4.76508
4.68399
4.59591
4.49197
4.35463
4.17042
3.99274
3.8919
3.83352
3.78512
3.73994
3.69619
3.65601
3.61501
3.56244
3.47406
3.3228
3.18539
3.11756
3.07105
3.0283
2.99095
2.95805
2.92256
2.87992
2.83068
2.77432
2.69746
2.61478
2.55612
2.51555
2.47895
2.44089
2.40251
2.36813
2.33392
2.29394
2.25528
2.21465
2.17093
2.13107
2.09265
2.05305
2.01678
1.98677
1.95837
1.92797
1.89929
1.88033
1.86424
1.84246
1.81288
1.7781
1.7355
1.68133
1.64572
1.63467
1.62575
1.61225
1.59785
1.58423
1.56954
1.54859
1.51116
1.45699
1.41895
1.40286
1.39097
1.38106
1.37342
1.36628
1.35411
1.32822
1.28779
1.25798
1.24774
1.24777
1.24851
1.25606
1.28702
1.35866
1.58568
2.56931
2.54098
2.47901
2.45054
2.51968
2.96324
3.93844
5.26163
6.36753
7.3765
8.45615
8.84962
8.70425
8.34467
7.97754
7.79622
7.6442
7.4536
7.21296
6.95106
6.72808
6.55061
6.37098
6.22459
6.10902
6.09309
6.25602
6.64887
7.16125
7.38853
7.27255
7.07291
6.89033
6.71738
6.55438
6.41801
6.29011
6.15414
5.98374
5.78021
5.59146
5.42896
5.27897
5.14533
5.0335
4.93866
4.85357
4.77337
4.69221
4.608
4.51841
4.41323
4.27101
4.08234
3.92974
3.85348
3.80442
3.76331
3.72272
3.67679
3.62505
3.56908
3.49563
3.3837
3.25561
3.16096
3.10924
3.07125
3.03428
2.99413
2.95001
2.89839
2.84783
2.79834
2.73702
2.66784
2.59704
2.53601
2.48749
2.44339
2.39788
2.35701
2.33064
2.3125
2.2877
2.24866
2.19888
2.14891
2.10628
2.07118
2.04363
2.01793
1.98728
1.95262
1.92013
1.89262
1.86666
1.84335
1.82003
1.79035
1.74315
1.68144
1.64666
1.63741
1.63309
1.63264
1.62288
1.61048
1.59637
1.57323
1.52624
1.46007
1.42015
1.40535
1.39578
1.3869
1.37863
1.37023
1.35901
1.3394
1.30413
1.27362
1.25749
1.24584
1.23608
1.23237
1.231
1.23061
1.26541
2.61135
2.57916
2.61095
2.86536
3.68372
4.90004
5.75375
5.88943
6.02178
6.53669
7.48069
8.10397
8.40013
8.34809
8.13372
7.9024
7.68174
7.48489
7.27362
7.00843
6.7545
6.54108
6.36744
6.29644
6.30607
6.46817
6.88737
7.45101
7.68485
7.57002
7.36106
7.15824
6.95845
6.77469
6.60286
6.44693
6.29551
6.13751
5.97221
5.81059
5.66763
5.53217
5.38551
5.22747
5.08219
4.96051
4.84996
4.74812
4.65987
4.5811
4.50652
4.42994
4.33521
4.19974
4.03778
3.90872
3.82233
3.75407
3.69812
3.644
3.58079
3.51553
3.46353
3.41835
3.34641
3.24681
3.15019
3.07576
3.0147
2.96014
2.90767
2.8541
2.7981
2.76079
2.73919
2.70748
2.64961
2.57315
2.49986
2.44557
2.40646
2.37323
2.3361
2.29392
2.25646
2.22717
2.20349
2.17679
2.14015
2.08667
2.02098
1.97983
1.95807
1.93583
1.91183
1.88905
1.87062
1.8545
1.83537
1.80708
1.76296
1.70729
1.6721
1.65373
1.63764
1.62008
1.60491
1.59241
1.57881
1.55881
1.52438
1.47974
1.44829
1.4282
1.41189
1.39931
1.38932
1.37905
1.3627
1.34059
1.31604
1.28775
1.2622
1.24269
1.22709
1.22036
1.21676
1.21292
1.20181
2.69272
2.84783
3.54468
4.66962
5.85046
6.39734
6.35359
6.14698
5.90583
5.95052
6.35827
7.17284
7.95152
8.32931
8.25356
8.02951
7.73037
7.46941
7.25431
7.01686
6.77647
6.55641
6.43174
6.47456
6.7009
7.18948
7.72844
7.99103
7.90877
7.66943
7.43235
7.21722
7.02484
6.84161
6.65902
6.48226
6.30228
6.11902
5.9577
5.83597
5.73206
5.62324
5.49285
5.3284
5.14112
4.97469
4.84156
4.73084
4.64331
4.57083
4.49995
4.42481
4.34937
4.26396
4.13791
3.98489
3.85963
3.76502
3.68875
3.63164
3.57484
3.51205
3.45478
3.40515
3.36027
3.29733
3.20315
3.10399
3.02749
2.96457
2.90361
2.84626
2.79799
2.76004
2.72802
2.69816
2.66527
2.61168
2.54038
2.47384
2.419
2.37231
2.33038
2.29022
2.258
2.2342
2.21132
2.18431
2.15162
2.1031
2.02776
1.96529
1.94806
1.93784
1.92367
1.90567
1.88817
1.87193
1.85364
1.82475
1.77
1.69835
1.65731
1.64105
1.62651
1.6118
1.59875
1.5853
1.57027
1.5532
1.53228
1.50045
1.4543
1.4199
1.40508
1.39512
1.38503
1.3749
1.36821
1.35704
1.33749
1.30774
1.27587
1.25048
1.23034
1.21619
1.21068
1.20595
1.18824
3.33412
4.48282
5.76922
6.4376
6.57148
6.49478
6.32884
6.11031
5.9005
5.77269
5.818
6.18667
6.96195
7.8696
8.1036
8.00723
7.7391
7.43238
7.20649
7.00046
6.80747
6.63622
6.65173
6.89085
7.42997
8.01791
8.27578
8.20905
7.98858
7.72728
7.4902
7.27955
7.09706
6.90116
6.68969
6.48552
6.29329
6.11279
5.96076
5.85215
5.76258
5.67142
5.56476
5.41909
5.22014
5.00953
4.84603
4.72623
4.63025
4.5573
4.50122
4.45155
4.39709
4.31968
4.19954
4.05147
3.92154
3.81468
3.70756
3.61846
3.57717
3.5405
3.48762
3.42743
3.3693
3.30925
3.23627
3.15206
3.06109
2.98575
2.93322
2.88699
2.83955
2.78907
2.74016
2.69942
2.65505
2.60857
2.5621
2.50508
2.44601
2.39885
2.36004
2.32601
2.29427
2.26619
2.23942
2.20926
2.17171
2.11631
2.03335
1.97119
1.9489
1.93164
1.91632
1.90246
1.88724
1.87098
1.85225
1.82531
1.77654
1.7073
1.66113
1.64157
1.62846
1.61583
1.60276
1.58826
1.5719
1.55478
1.53706
1.51232
1.46843
1.42482
1.4108
1.40527
1.39701
1.38411
1.36335
1.33741
1.31404
1.29903
1.28708
1.27084
1.25068
1.23292
1.21962
1.20616
1.17868
5.56429
6.71103
7.01996
6.98525
6.79
6.46773
6.20987
6.04898
5.89516
5.72899
5.69838
5.73977
6.05557
6.84459
7.67083
7.80857
7.69413
7.38108
7.15007
6.98842
6.89753
6.93778
7.21141
7.74212
8.28283
8.57732
8.51344
8.29537
8.0151
7.7573
7.52864
7.33224
7.14788
6.9406
6.70591
6.46943
6.27163
6.11557
5.98559
5.87571
5.78012
5.68894
5.58643
5.45759
5.27955
5.06405
4.88006
4.75327
4.65787
4.57483
4.49756
4.428
4.36079
4.28251
4.19777
4.09797
3.98224
3.86612
3.75373
3.65403
3.56806
3.50046
3.45033
3.40124
3.346
3.29673
3.25416
3.19814
3.12251
3.03436
2.94045
2.85714
2.79931
2.75557
2.71491
2.68537
2.6658
2.64694
2.61271
2.55204
2.46442
2.37792
2.32596
2.29348
2.26463
2.23858
2.21975
2.20514
2.18591
2.14453
2.0732
1.99836
1.94545
1.92364
1.91574
1.91362
1.90234
1.8855
1.86513
1.83506
1.78844
1.73205
1.69019
1.66643
1.65096
1.6373
1.62317
1.60822
1.59233
1.57527
1.55554
1.53015
1.49606
1.456
1.41443
1.38561
1.37428
1.36599
1.35383
1.33329
1.3137
1.3016
1.29149
1.27984
1.26148
1.23362
1.2072
1.19024
1.16937
7.17531
7.15942
7.01414
6.85649
6.70863
6.48948
6.23742
6.05863
5.91456
5.7563
5.68095
5.64063
5.68502
5.97361
6.68535
7.30181
7.4367
7.31604
7.12758
7.08397
7.19218
7.55426
8.16654
8.66878
8.7998
8.69103
8.47464
8.24791
8.01571
7.78515
7.56667
7.37454
7.18528
6.97591
6.73539
6.46802
6.25434
6.13057
6.03874
5.95806
5.87728
5.77998
5.66028
5.51026
5.32482
5.12883
4.94443
4.79217
4.68102
4.59734
4.52457
4.44902
4.36956
4.28523
4.18111
4.08461
4.00403
3.91901
3.81733
3.69812
3.57694
3.48847
3.43787
3.40047
3.35376
3.2932
3.23309
3.17934
3.12854
3.06233
2.96632
2.86809
2.79431
2.74788
2.71764
2.6936
2.6653
2.62707
2.58625
2.54012
2.47231
2.38591
2.32254
2.28754
2.25975
2.23898
2.22289
2.20485
2.1741
2.13189
2.08088
2.01453
1.96026
1.93555
1.91783
1.89802
1.87827
1.85941
1.83968
1.81661
1.78698
1.7493
1.70083