/*--------------------------------*- C++ -*----------------------------------*\
  =========                 |
  \\      /  F ield         | OpenFOAM: The Open Source CFD Toolbox
   \\    /   O peration     | Website:  https://openfoam.org
    \\  /    A nd           | Version:  7
     \\/     M anipulation  |
\*---------------------------------------------------------------------------*/
FoamFile
{
    version     2.0;
    format      ascii;
    class       volScalarField;
    location    "3.9";
    object      T;
}
// * * * * * * * * * * * * * * * * * * * * * * * * * * * * * * * * * * * * * //

dimensions      [0 0 0 1 0 0 0];

internalField   nonuniform List<scalar> 
16192
(
1.99677
1.99663
2.00134
2.00326
2.00018
1.99334
1.97974
1.96614
1.96041
1.95922
1.96413
1.9739
1.97549
1.97147
1.96334
1.94821
1.93519
1.93013
1.92749
1.92748
1.93141
1.93369
1.9316
1.92707
1.92055
1.91277
1.90602
1.90064
1.89773
1.89597
1.89501
1.89355
1.89132
1.88835
1.8844
1.87979
1.8752
1.8709
1.86692
1.86299
1.8578
1.85319
1.85051
1.84843
1.84689
1.84585
1.84336
1.84082
1.83754
1.8311
1.82329
1.8175
1.81471
1.81276
1.81125
1.8093
1.80703
1.80448
1.80141
1.79778
1.79417
1.79075
1.78708
1.78242
1.77665
1.77145
1.76859
1.76632
1.76545
1.76597
1.76474
1.76212
1.75928
1.75378
1.74555
1.73933
1.73674
1.73491
1.73451
1.73626
1.73693
1.73496
1.73246
1.72806
1.7202
1.71026
1.70474
1.70251
1.70104
1.70069
1.70207
1.70396
1.70313
1.70058
1.69795
1.69512
1.6903
1.6839
1.67648
1.67146
1.66968
1.66871
1.66893
1.67125
1.67282
1.6716
1.66927
1.6654
1.65804
1.64937
1.64428
1.64196
1.64075
1.64007
1.64098
1.6436
1.64406
1.64319
1.64217
1.63934
1.63299
1.62626
1.62312
1.62104
1.61889
1.61677
1.61489
1.61315
1.612
1.6105
1.60828
1.60537
1.60275
1.60158
1.60062
1.59956
1.59804
1.59559
1.59211
1.58868
1.58569
1.5829
1.57972
1.57736
1.57643
1.57639
1.57738
1.57733
1.5763
1.57469
1.5713
1.56451
1.55851
1.55621
1.55496
1.55392
1.55304
1.5523
1.55214
1.55258
1.55268
1.55181
1.55043
1.54826
1.54535
1.54169
1.53683
1.53195
1.52892
1.52714
1.52604
1.52443
1.52167
1.51862
1.51767
1.5176
1.51792
1.51818
1.51788
1.51663
1.51424
1.51073
1.50727
1.50437
1.50222
1.50048
1.49916
1.49817
1.49674
1.495
1.49262
1.48859
1.48394
1.48086
1.47947
1.47846
1.4775
1.47703
1.47749
1.47945
1.48039
1.47951
1.47762
1.475
1.47104
1.46662
1.463
1.46004
1.45827
1.45755
1.45703
1.4567
1.45663
1.45623
1.45538
1.45447
1.45323
1.45088
1.4471
1.44409
1.44265
1.4416
1.44059
1.43983
1.43967
1.44088
1.44474
1.44618
1.44548
1.44415
1.4421
1.43743
1.4303
1.42608
1.42466
1.42401
1.42363
1.4236
1.42491
1.42761
1.42828
1.42752
1.42661
1.42609
1.42547
1.42353
1.41998
1.41673
1.41525
1.41495
1.41505
1.41537
1.41478
1.99902
2.00264
2.00536
2.00267
1.99646
1.98403
1.97037
1.96391
1.96269
1.96713
1.97586
1.97731
1.9737
1.96633
1.95255
1.93856
1.93169
1.92966
1.93123
1.93615
1.93721
1.93407
1.92812
1.91985
1.91314
1.90838
1.90453
1.90183
1.90037
1.8992
1.89754
1.89454
1.89018
1.88557
1.88117
1.87678
1.87273
1.86935
1.86607
1.86144
1.85596
1.85215
1.84958
1.84775
1.84755
1.84631
1.84334
1.84003
1.83387
1.82574
1.81934
1.81618
1.8139
1.81253
1.81078
1.80857
1.8062
1.80342
1.79991
1.79602
1.79234
1.78863
1.78423
1.77867
1.77308
1.76982
1.76761
1.76677
1.76702
1.76538
1.76268
1.76007
1.75549
1.74892
1.74194
1.73823
1.7366
1.73628
1.73777
1.73806
1.73571
1.7326
1.72746
1.72061
1.71284
1.70645
1.70382
1.70279
1.70314
1.70563
1.70757
1.70661
1.70424
1.70139
1.69809
1.69313
1.68562
1.67682
1.67182
1.66982
1.66924
1.66968
1.6726
1.6757
1.67507
1.67328
1.67074
1.66529
1.65597
1.64757
1.64409
1.6427
1.64161
1.64131
1.64303
1.64482
1.64477
1.64332
1.64071
1.63661
1.63136
1.62823
1.62682
1.62523
1.62286
1.61942
1.61573
1.61285
1.61034
1.6077
1.6044
1.60236
1.60176
1.60176
1.6026
1.60258
1.60139
1.59946
1.59617
1.5909
1.58447
1.57915
1.5763
1.57514
1.57455
1.57494
1.57723
1.57816
1.57742
1.57639
1.5748
1.57062
1.56302
1.55748
1.55515
1.55352
1.55203
1.55094
1.55007
1.54903
1.54798
1.54761
1.54778
1.54755
1.54673
1.54539
1.54262
1.53751
1.53142
1.5269
1.52334
1.51993
1.51671
1.5151
1.51469
1.51482
1.51673
1.51839
1.51835
1.5174
1.5157
1.51265
1.5078
1.50304
1.49977
1.49777
1.49655
1.49579
1.49549
1.49484
1.49335
1.48972
1.48341
1.4792
1.47755
1.4764
1.47535
1.47492
1.47687
1.4799
1.48028
1.47936
1.47802
1.47626
1.47245
1.46502
1.45841
1.45634
1.45581
1.45534
1.4549
1.45499
1.45574
1.45586
1.4549
1.45375
1.45232
1.44961
1.44532
1.44221
1.44085
1.43987
1.43891
1.43816
1.43806
1.43921
1.44143
1.44199
1.44122
1.44023
1.43904
1.43563
1.4295
1.42528
1.42365
1.42273
1.42218
1.42236
1.42454
1.42615
1.42575
1.42464
1.42379
1.42315
1.42251
1.42168
1.41977
1.4169
1.41392
1.4122
1.41176
1.41167
1.41129
2.00412
2.00729
2.00516
1.99955
1.98822
1.97485
1.96856
1.96702
1.9706
1.97832
1.97908
1.97496
1.96679
1.95257
1.94146
1.93711
1.93502
1.9364
1.94033
1.94
1.93644
1.93035
1.92197
1.91444
1.90964
1.90705
1.90556
1.90459
1.90266
1.90004
1.89556
1.89045
1.88582
1.88202
1.87882
1.87592
1.87283
1.86879
1.86235
1.85605
1.85295
1.85082
1.84915
1.84923
1.84833
1.84554
1.84223
1.8361
1.82786
1.82138
1.8184
1.81608
1.8145
1.81242
1.81001
1.80749
1.80452
1.80092
1.797
1.7934
1.79003
1.78617
1.78103
1.77579
1.7726
1.77028
1.76888
1.76851
1.76659
1.76402
1.7615
1.75673
1.74942
1.74373
1.74121
1.73953
1.7391
1.74046
1.74067
1.73836
1.73531
1.73001
1.72116
1.71206
1.70772
1.70616
1.70535
1.70581
1.70856
1.71073
1.70993
1.70807
1.70573
1.70208
1.69626
1.68874
1.68097
1.67508
1.67185
1.6705
1.66992
1.67178
1.67602
1.67701
1.67593
1.674
1.67019
1.66286
1.65468
1.6504
1.64791
1.64607
1.64523
1.6455
1.64512
1.64363
1.64172
1.63984
1.63679
1.63217
1.62994
1.62934
1.62876
1.62777
1.62617
1.62357
1.61942
1.61392
1.60806
1.60416
1.60226
1.60139
1.601
1.6018
1.60411
1.60457
1.60342
1.60178
1.59901
1.59285
1.58398
1.57801
1.57569
1.57455
1.57373
1.57435
1.57743
1.57873
1.57837
1.5776
1.57619
1.57304
1.56815
1.56213
1.55711
1.55394
1.55168
1.54959
1.54794
1.54642
1.54521
1.54465
1.54563
1.54715
1.54681
1.54585
1.54451
1.54202
1.53624
1.5272
1.51989
1.5164
1.51453
1.51358
1.51297
1.51316
1.51564
1.51785
1.51805
1.51724
1.51584
1.51372
1.5095
1.50286
1.49839
1.4966
1.49557
1.49471
1.49414
1.49351
1.49247
1.49018
1.48483
1.47929
1.47705
1.47578
1.47472
1.47424
1.47512
1.47808
1.4798
1.47926
1.47802
1.47629
1.47204
1.46343
1.45646
1.45443
1.45384
1.45349
1.45323
1.45376
1.45559
1.45573
1.45441
1.45294
1.45129
1.44843
1.44392
1.44077
1.43956
1.43881
1.43806
1.43741
1.43748
1.43854
1.43903
1.43846
1.43713
1.43596
1.43479
1.43245
1.42874
1.42585
1.42403
1.42259
1.42176
1.42192
1.42275
1.42317
1.42265
1.42162
1.42085
1.42022
1.41952
1.41882
1.41819
1.41679
1.41434
1.4109
1.40849
1.40778
1.40726
2.00934
2.00746
2.00213
1.99143
1.97876
1.97237
1.97063
1.97384
1.98097
1.98131
1.97717
1.969
1.95511
1.94369
1.93853
1.93719
1.93976
1.94369
1.94266
1.93845
1.93095
1.92195
1.91622
1.913
1.91062
1.90984
1.90867
1.9061
1.9016
1.89529
1.88975
1.88584
1.88268
1.87985
1.87724
1.87491
1.87205
1.8662
1.85848
1.85332
1.85058
1.84891
1.84975
1.85045
1.84806
1.84443
1.83799
1.82912
1.82244
1.81957
1.81752
1.81662
1.81502
1.81219
1.80954
1.80661
1.80239
1.79755
1.79367
1.79039
1.78686
1.78248
1.77796
1.77508
1.77288
1.77151
1.7705
1.76838
1.76577
1.76304
1.75865
1.75257
1.74612
1.74205
1.74051
1.74022
1.74218
1.74289
1.74089
1.73817
1.73344
1.72559
1.71693
1.71023
1.70723
1.70591
1.70573
1.70842
1.71163
1.71187
1.71077
1.70953
1.70714
1.70201
1.69382
1.68512
1.67864
1.67553
1.67401
1.67298
1.6733
1.6762
1.67675
1.67545
1.67365
1.67061
1.66521
1.65853
1.6547
1.65346
1.65268
1.65245
1.65197
1.65028
1.64769
1.64491
1.64125
1.63623
1.63167
1.62988
1.62931
1.62966
1.62982
1.62914
1.62801
1.62625
1.62258
1.6153
1.60756
1.60364
1.60225
1.60127
1.6007
1.60235
1.6053
1.60529
1.60414
1.60269
1.60017
1.59402
1.58422
1.57849
1.57639
1.57507
1.57428
1.57425
1.57532
1.57634
1.57603
1.57522
1.5742
1.5726
1.56944
1.56641
1.56304
1.5581
1.55271
1.54869
1.54614
1.54474
1.54372
1.54295
1.54297
1.54512
1.54626
1.54565
1.54448
1.54284
1.53874
1.52914
1.51951
1.51562
1.51418
1.51312
1.51237
1.51261
1.5155
1.51766
1.51747
1.51666
1.5155
1.51374
1.51013
1.50358
1.49833
1.49632
1.4952
1.49462
1.49413
1.49334
1.49212
1.49007
1.48623
1.48161
1.47807
1.47638
1.47526
1.47453
1.47496
1.47767
1.47926
1.47859
1.47703
1.47506
1.47098
1.4629
1.45604
1.45374
1.45277
1.45234
1.45224
1.45267
1.45334
1.45336
1.45237
1.45105
1.44956
1.4467
1.44268
1.43999
1.43861
1.43784
1.43735
1.4373
1.43804
1.43782
1.43631
1.43479
1.43328
1.43162
1.42965
1.4276
1.42599
1.42486
1.42411
1.4233
1.42287
1.42273
1.42157
1.42001
1.41911
1.41838
1.41768
1.41705
1.41645
1.41585
1.41538
1.41492
1.41364
1.41101
1.40703
1.40414
1.40299
2.00989
2.00502
1.99507
1.98239
1.97545
1.97352
1.97615
1.98251
1.98291
1.97902
1.97133
1.95791
1.94691
1.94265
1.94113
1.94338
1.94648
1.94473
1.94011
1.93243
1.92339
1.91707
1.91377
1.91235
1.91277
1.91182
1.90889
1.90377
1.89643
1.88988
1.88643
1.88397
1.88226
1.87991
1.87718
1.87345
1.86673
1.85944
1.85494
1.85258
1.85082
1.85131
1.85196
1.84985
1.84658
1.84044
1.83166
1.82408
1.82058
1.81851
1.81813
1.81788
1.81521
1.81239
1.80926
1.8045
1.79911
1.79475
1.79142
1.7882
1.78421
1.77974
1.7769
1.77492
1.77364
1.77284
1.77091
1.76854
1.76585
1.76129
1.75437
1.74833
1.74514
1.74359
1.74294
1.74425
1.74508
1.74326
1.74106
1.73719
1.7299
1.72096
1.71445
1.71193
1.71057
1.71004
1.7114
1.7137
1.71318
1.71192
1.71075
1.70859
1.70534
1.69932
1.69056
1.68366
1.68015
1.67844
1.67742
1.67764
1.67895
1.67825
1.67628
1.67411
1.67079
1.66486
1.65824
1.65561
1.65495
1.65495
1.65646
1.65785
1.65717
1.65543
1.6525
1.64717
1.63904
1.63226
1.62965
1.62857
1.62773
1.62793
1.63018
1.62995
1.62876
1.62726
1.62427
1.61706
1.60845
1.60481
1.60324
1.6022
1.60164
1.60204
1.60445
1.60592
1.60487
1.60295
1.60015
1.59453
1.58722
1.58252
1.57958
1.57719
1.57565
1.57501
1.5747
1.57366
1.57256
1.57136
1.56996
1.56873
1.56816
1.56735
1.56592
1.56313
1.55679
1.54927
1.54567
1.54408
1.54304
1.54217
1.54169
1.54296
1.54597
1.54599
1.54454
1.54254
1.53883
1.53171
1.52275
1.51698
1.51468
1.51355
1.51288
1.5128
1.5136
1.51531
1.51649
1.51579
1.51453
1.51279
1.50982
1.50531
1.50111
1.49734
1.49442
1.49206
1.49046
1.48936
1.48827
1.48705
1.48569
1.4833
1.4804
1.47828
1.47698
1.47587
1.47532
1.47541
1.47534
1.47425
1.47282
1.47102
1.46805
1.46296
1.45757
1.45411
1.45253
1.45166
1.45124
1.4515
1.45205
1.45122
1.44983
1.44842
1.4465
1.4436
1.4408
1.43914
1.43787
1.43688
1.43653
1.43697
1.43699
1.43559
1.43384
1.43216
1.42999
1.42694
1.42392
1.42286
1.42276
1.42287
1.42337
1.42409
1.42401
1.42297
1.42063
1.4177
1.41561
1.41472
1.41406
1.4135
1.41311
1.41279
1.41232
1.4119
1.41145
1.41006
1.40665
1.40158
1.39873
2.0075
1.99847
1.9861
1.9792
1.97692
1.97875
1.98428
1.98434
1.98006
1.97184
1.95883
1.94946
1.94539
1.94399
1.94646
1.94913
1.94697
1.94171
1.93317
1.9242
1.91914
1.91636
1.91541
1.91594
1.91458
1.91087
1.90417
1.896
1.89032
1.88711
1.88463
1.88407
1.88306
1.88011
1.87582
1.86816
1.85977
1.85455
1.85205
1.85095
1.85259
1.85386
1.85193
1.8483
1.84178
1.83307
1.82588
1.8225
1.82042
1.81998
1.82023
1.81826
1.81551
1.81219
1.80666
1.80074
1.79631
1.79319
1.79008
1.78621
1.78215
1.77947
1.7775
1.77611
1.7751
1.77322
1.77103
1.76874
1.76495
1.75851
1.75166
1.74709
1.7456
1.74491
1.74598
1.74678
1.74512
1.74318
1.74002
1.73416
1.72584
1.71897
1.71643
1.71558
1.71577
1.71652
1.71602
1.7146
1.71273
1.71015
1.70743
1.70428
1.69988
1.69406
1.68836
1.68567
1.68446
1.68368
1.68393
1.68441
1.68294
1.68056
1.67773
1.67282
1.6654
1.65822
1.65561
1.65494
1.65468
1.65661
1.66068
1.66158
1.66065
1.65907
1.65565
1.6476
1.63741
1.63162
1.62951
1.62815
1.62707
1.62685
1.62832
1.62955
1.62894
1.62764
1.62497
1.61912
1.61297
1.60918
1.6065
1.60456
1.60344
1.60306
1.60254
1.60165
1.60051
1.59856
1.59554
1.59157
1.58784
1.58561
1.58378
1.58174
1.57914
1.57626
1.57396
1.57219
1.57027
1.56811
1.56687
1.56634
1.56657
1.56658
1.56582
1.56433
1.56098
1.55432
1.5471
1.54407
1.54271
1.54171
1.54089
1.54056
1.54079
1.54075
1.53977
1.5381
1.53559
1.53194
1.52765
1.52272
1.51755
1.51446
1.5133
1.5128
1.5131
1.51314
1.51271
1.5118
1.51032
1.50852
1.50657
1.5047
1.50229
1.49927
1.49507
1.49093
1.48854
1.4871
1.48576
1.48438
1.48333
1.48249
1.48117
1.47954
1.47843
1.47722
1.47542
1.47359
1.4721
1.47068
1.46893
1.46636
1.46322
1.46058
1.45802
1.45551
1.45315
1.4517
1.45047
1.4496
1.44911
1.44817
1.44682
1.44526
1.44342
1.44121
1.43956
1.43847
1.43783
1.43749
1.43707
1.43621
1.43497
1.43371
1.43226
1.42993
1.4263
1.42213
1.42039
1.42004
1.41993
1.42066
1.4228
1.42372
1.42347
1.42248
1.4203
1.41647
1.41294
1.41127
1.41056
1.40999
1.40962
1.40957
1.4094
1.40893
1.40838
1.4076
1.40527
1.40038
1.39604
2.00079
1.98909
1.98227
1.97981
1.98127
1.98612
1.9858
1.98146
1.97347
1.96086
1.95103
1.94699
1.94611
1.94889
1.95099
1.94856
1.94325
1.93495
1.92575
1.92038
1.91777
1.91755
1.91869
1.91707
1.91297
1.90573
1.89675
1.89022
1.88672
1.88475
1.8852
1.88485
1.88205
1.87776
1.8708
1.86231
1.85629
1.85354
1.85232
1.85387
1.85572
1.85404
1.8506
1.84383
1.83421
1.82709
1.82361
1.82164
1.82149
1.82226
1.82074
1.81826
1.81481
1.80894
1.80288
1.79838
1.79535
1.79246
1.78907
1.78483
1.78178
1.77994
1.77855
1.77742
1.77568
1.77354
1.77126
1.7679
1.76242
1.75612
1.75138
1.74958
1.74864
1.74894
1.74898
1.74705
1.74489
1.74183
1.73667
1.72974
1.72386
1.72167
1.7209
1.72133
1.72148
1.72015
1.71818
1.71574
1.71321
1.71051
1.70616
1.70002
1.69319
1.68946
1.68797
1.68731
1.68733
1.68848
1.68976
1.68878
1.68662
1.68347
1.67775
1.66843
1.66015
1.65633
1.65488
1.65419
1.65496
1.65923
1.66323
1.66347
1.66264
1.66113
1.65696
1.64771
1.63739
1.6327
1.63063
1.629
1.6277
1.62693
1.6269
1.62683
1.62596
1.62428
1.62167
1.61817
1.61498
1.61312
1.61139
1.60945
1.60708
1.60429
1.60162
1.59936
1.5972
1.59434
1.59055
1.5881
1.58724
1.58696
1.5865
1.58506
1.5829
1.57946
1.57474
1.57004
1.5671
1.5657
1.56495
1.56441
1.56442
1.56453
1.56379
1.56263
1.56114
1.55832
1.55272
1.54599
1.54259
1.54106
1.53995
1.53884
1.53761
1.53622
1.53475
1.53292
1.53093
1.52963
1.52843
1.52652
1.52342
1.51899
1.51496
1.51291
1.51146
1.51032
1.50942
1.50825
1.50648
1.50466
1.50331
1.50199
1.50078
1.49938
1.49705
1.49256
1.48755
1.48494
1.48344
1.48235
1.48149
1.4806
1.48041
1.4804
1.4794
1.47763
1.47538
1.4725
1.46988
1.46734
1.4644
1.46102
1.4584
1.45735
1.45687
1.45621
1.4551
1.45319
1.45025
1.44748
1.44612
1.44534
1.44411
1.44205
1.44019
1.43948
1.43903
1.43859
1.43812
1.4374
1.43639
1.43501
1.43372
1.43236
1.4302
1.42702
1.42275
1.41998
1.41885
1.41842
1.41828
1.41905
1.42131
1.42237
1.42213
1.42127
1.4194
1.41588
1.41157
1.40897
1.40765
1.40701
1.40664
1.40651
1.40633
1.4059
1.40533
1.40461
1.40323
1.39979
1.39523
1.99174
1.9845
1.98196
1.98316
1.98762
1.9871
1.98264
1.97441
1.96196
1.95335
1.94982
1.94878
1.95144
1.95327
1.9504
1.94409
1.93469
1.92649
1.92215
1.91969
1.91973
1.92063
1.9187
1.91445
1.90711
1.89781
1.89164
1.88848
1.88664
1.88741
1.88763
1.88482
1.87948
1.87062
1.86218
1.85796
1.85557
1.85439
1.85617
1.85767
1.85593
1.85246
1.84619
1.83761
1.8296
1.82541
1.82343
1.8231
1.82411
1.82295
1.8206
1.81694
1.81095
1.80498
1.80065
1.79806
1.79561
1.79249
1.78826
1.78497
1.78309
1.78162
1.78022
1.77833
1.77617
1.77409
1.77121
1.76574
1.75928
1.75509
1.75357
1.75278
1.75282
1.75216
1.75026
1.74804
1.7449
1.73917
1.73215
1.72709
1.72515
1.72459
1.72521
1.72562
1.72436
1.72265
1.72056
1.71786
1.71443
1.70948
1.70254
1.69541
1.69108
1.68914
1.68795
1.68738
1.68891
1.69229
1.69253
1.69098
1.68884
1.6846
1.67611
1.66588
1.6595
1.65725
1.65597
1.65532
1.65708
1.6628
1.66504
1.66428
1.66264
1.66011
1.65492
1.64682
1.64065
1.63711
1.63442
1.63214
1.63005
1.62804
1.62585
1.62417
1.62274
1.62057
1.61728
1.61561
1.61499
1.61479
1.61427
1.61288
1.61065
1.60701
1.6024
1.59777
1.59307
1.58929
1.58736
1.58655
1.58643
1.58738
1.58776
1.58646
1.58474
1.58193
1.57598
1.56913
1.56548
1.56411
1.56334
1.56289
1.56323
1.56388
1.56336
1.56188
1.5602
1.5582
1.5554
1.55129
1.54546
1.54066
1.53818
1.53654
1.53453
1.53186
1.52949
1.52822
1.52761
1.52771
1.52801
1.52756
1.52627
1.52406
1.5197
1.51375
1.51009
1.50816
1.50612
1.50393
1.50235
1.50124
1.50073
1.50033
1.49944
1.49831
1.49699
1.49395
1.48746
1.48312
1.48175
1.4809
1.48004
1.47945
1.47987
1.48058
1.47959
1.47783
1.47586
1.47282
1.46799
1.46294
1.45914
1.45681
1.45585
1.45544
1.45562
1.45607
1.45551
1.45429
1.45204
1.44789
1.44394
1.44196
1.44047
1.43903
1.43824
1.43775
1.43818
1.43904
1.43856
1.4375
1.43616
1.43425
1.43183
1.42948
1.42691
1.42359
1.42061
1.4191
1.41843
1.4179
1.41777
1.41876
1.41954
1.41902
1.41866
1.41843
1.41745
1.41472
1.41057
1.40748
1.40573
1.40453
1.40404
1.40372
1.40329
1.4028
1.40225
1.40152
1.40052
1.39872
1.39552
1.98697
1.9842
1.98495
1.98893
1.98824
1.9836
1.97517
1.96311
1.95467
1.95102
1.95031
1.95318
1.95476
1.95189
1.94592
1.93683
1.92762
1.9227
1.92069
1.92145
1.92271
1.92064
1.91558
1.90692
1.89763
1.8921
1.88896
1.88759
1.88907
1.88963
1.88707
1.88218
1.87417
1.86469
1.85837
1.85574
1.85502
1.85781
1.86035
1.85876
1.8551
1.848
1.83815
1.83176
1.82865
1.82648
1.82609
1.82692
1.82559
1.82314
1.81917
1.8127
1.80654
1.80269
1.80061
1.79853
1.7961
1.79258
1.789
1.78705
1.78544
1.78372
1.78172
1.77947
1.77699
1.77392
1.76933
1.76385
1.75858
1.75656
1.75559
1.7558
1.75575
1.75401
1.75178
1.74862
1.74297
1.73636
1.73094
1.72836
1.72738
1.72763
1.72834
1.72749
1.72608
1.72462
1.72263
1.71893
1.71361
1.70689
1.70005
1.6941
1.69095
1.68959
1.68872
1.68921
1.69302
1.69525
1.69424
1.69226
1.68918
1.68324
1.67373
1.66587
1.66213
1.66026
1.65904
1.65881
1.66109
1.66174
1.6606
1.65938
1.65772
1.65445
1.64891
1.6439
1.64198
1.64054
1.63898
1.63686
1.6337
1.62965
1.62583
1.62229
1.6187
1.61564
1.61424
1.61375
1.61416
1.61546
1.61556
1.61432
1.61268
1.61
1.60446
1.59664
1.59062
1.5876
1.58622
1.58532
1.58588
1.5879
1.58768
1.58631
1.58482
1.58253
1.57736
1.5701
1.56568
1.5634
1.56162
1.56048
1.55953
1.5586
1.5579
1.55758
1.55691
1.5558
1.55455
1.55298
1.55
1.54448
1.53825
1.53356
1.52994
1.52706
1.52556
1.52484
1.52484
1.52633
1.52798
1.52804
1.52703
1.52573
1.52345
1.51844
1.51114
1.50533
1.50228
1.50062
1.49964
1.49879
1.49852
1.49915
1.49891
1.49761
1.49631
1.49419
1.48889
1.48297
1.48091
1.47993
1.4791
1.47867
1.47964
1.48056
1.47952
1.47778
1.47596
1.47253
1.46535
1.4588
1.45621
1.45521
1.45459
1.45428
1.45496
1.45571
1.45515
1.45415
1.45262
1.44889
1.44295
1.43911
1.43765
1.43688
1.43648
1.43708
1.43848
1.43902
1.43854
1.43772
1.43672
1.43492
1.43161
1.42686
1.42261
1.42007
1.41923
1.41872
1.41823
1.41804
1.41863
1.41906
1.41827
1.41718
1.41581
1.41467
1.41362
1.41202
1.40951
1.40684
1.40473
1.40315
1.40191
1.40125
1.40064
1.39989
1.39902
1.39811
1.39727
1.39647
1.3953
1.98607
1.98657
1.99005
1.9891
1.98443
1.97613
1.96432
1.95623
1.95287
1.95235
1.95508
1.95595
1.95274
1.94653
1.93734
1.92931
1.92527
1.923
1.92357
1.92444
1.92215
1.91726
1.90925
1.89938
1.89267
1.88961
1.88905
1.89124
1.89183
1.88909
1.88394
1.87592
1.86695
1.86176
1.85928
1.85827
1.86049
1.86264
1.86111
1.85772
1.85135
1.84231
1.83431
1.83017
1.82845
1.8285
1.83023
1.82924
1.82665
1.82227
1.81534
1.80887
1.8045
1.80244
1.80058
1.79861
1.79629
1.79312
1.79091
1.78937
1.78769
1.78575
1.78354
1.78104
1.77796
1.77282
1.76667
1.76226
1.76056
1.75956
1.7594
1.75901
1.7573
1.75527
1.75261
1.74724
1.7404
1.73481
1.73242
1.73139
1.73101
1.73066
1.72949
1.72831
1.72735
1.72561
1.72242
1.71785
1.71205
1.70558
1.69937
1.69568
1.69365
1.69224
1.69164
1.69299
1.69383
1.69249
1.6909
1.68871
1.68447
1.6775
1.67116
1.66819
1.6664
1.66478
1.66433
1.66485
1.66365
1.66139
1.65941
1.65663
1.65201
1.646
1.64291
1.64208
1.64204
1.64239
1.64186
1.64033
1.63809
1.63406
1.6274
1.61995
1.61538
1.61352
1.61251
1.61178
1.61319
1.61622
1.61597
1.61471
1.61328
1.61107
1.60571
1.59654
1.59014
1.58768
1.58612
1.5852
1.58548
1.58749
1.58829
1.58699
1.58496
1.58227
1.57774
1.57272
1.56837
1.56422
1.56076
1.5583
1.55686
1.55579
1.55487
1.55446
1.55501
1.55484
1.55383
1.5527
1.55115
1.54772
1.54007
1.53141
1.52689
1.52485
1.52362
1.52266
1.52249
1.52491
1.52813
1.52851
1.52771
1.52659
1.52502
1.52135
1.5127
1.50401
1.5003
1.49893
1.49814
1.4977
1.49855
1.49979
1.49924
1.49781
1.49629
1.49428
1.49064
1.4854
1.48124
1.47971
1.47885
1.47836
1.47857
1.47927
1.47944
1.47825
1.47587
1.47132
1.46362
1.45757
1.45567
1.4547
1.45395
1.45395
1.45521
1.45566
1.455
1.45402
1.45256
1.44931
1.44279
1.43827
1.43686
1.43603
1.43533
1.43513
1.43672
1.43864
1.43873
1.43808
1.43711
1.43539
1.43083
1.42322
1.41888
1.41773
1.41718
1.41691
1.4172
1.41838
1.41918
1.4186
1.41768
1.41648
1.41453
1.41166
1.40955
1.40844
1.40763
1.40647
1.40473
1.40251
1.40019
1.39855
1.39769
1.39677
1.39561
1.39451
1.39391
1.39341
1.39316
1.98807
1.99117
1.98998
1.98506
1.97644
1.96513
1.9578
1.95462
1.95429
1.95727
1.95779
1.95418
1.94721
1.93751
1.92988
1.92587
1.92427
1.92559
1.92637
1.92392
1.91865
1.90973
1.90037
1.8954
1.89251
1.89178
1.89426
1.89519
1.89253
1.88682
1.87722
1.8681
1.86314
1.86097
1.86062
1.86366
1.86602
1.86441
1.86055
1.85332
1.84363
1.83733
1.83437
1.83259
1.83247
1.83406
1.83317
1.83073
1.8264
1.81925
1.81215
1.80744
1.80527
1.80331
1.80135
1.79906
1.79602
1.79409
1.79266
1.79121
1.78954
1.7876
1.78534
1.78233
1.77765
1.7718
1.76626
1.76373
1.76257
1.76227
1.76224
1.76064
1.75859
1.75623
1.75148
1.74501
1.73921
1.7366
1.73557
1.73516
1.73419
1.73258
1.73064
1.72835
1.72516
1.72195
1.71873
1.71461
1.70965
1.70482
1.70146
1.69948
1.69797
1.69728
1.69747
1.69636
1.69393
1.69173
1.68885
1.6838
1.67625
1.67093
1.66911
1.66852
1.66879
1.67027
1.67086
1.66936
1.6667
1.66335
1.6583
1.65122
1.644
1.64061
1.63968
1.63957
1.64115
1.64341
1.64326
1.64191
1.64021
1.63695
1.62931
1.61963
1.61472
1.61318
1.61208
1.61131
1.61183
1.615
1.61655
1.61544
1.61353
1.61082
1.60556
1.5985
1.59369
1.59055
1.58813
1.58668
1.58613
1.58518
1.58366
1.58231
1.58043
1.57803
1.57561
1.57293
1.57041
1.56737
1.56274
1.55806
1.55552
1.55438
1.55349
1.55271
1.55274
1.55401
1.55348
1.55217
1.55073
1.54822
1.54166
1.53126
1.52605
1.52442
1.52319
1.52211
1.52187
1.52389
1.52693
1.52827
1.52793
1.52683
1.52544
1.5222
1.51396
1.50397
1.50002
1.4984
1.49721
1.49651
1.49611
1.49579
1.49506
1.49407
1.49295
1.49195
1.49092
1.48845
1.48479
1.48139
1.47977
1.47909
1.47914
1.47886
1.47743
1.47576
1.47345
1.46915
1.46243
1.45784
1.45617
1.45518
1.45447
1.45423
1.45453
1.45457
1.45408
1.45339
1.45234
1.44958
1.44409
1.43895
1.43695
1.4359
1.43514
1.43488
1.4358
1.43735
1.4379
1.4377
1.43678
1.4347
1.42914
1.42115
1.41759
1.41682
1.41632
1.41597
1.41653
1.4184
1.41853
1.4181
1.41757
1.41641
1.41361
1.4092
1.40624
1.40523
1.40474
1.40435
1.40354
1.4019
1.39941
1.39688
1.39491
1.39353
1.39221
1.39133
1.39084
1.3906
1.39072
1.99244
1.99096
1.98595
1.97722
1.96617
1.95895
1.95595
1.95593
1.95892
1.95896
1.95562
1.94946
1.94013
1.93164
1.92767
1.92618
1.92762
1.92843
1.92592
1.92047
1.91157
1.90206
1.89617
1.8936
1.89355
1.89686
1.89788
1.89562
1.89043
1.88204
1.8721
1.86569
1.8635
1.86314
1.86652
1.86907
1.86758
1.86409
1.85718
1.84746
1.84015
1.8365
1.83509
1.83556
1.83784
1.83711
1.83487
1.83056
1.82359
1.81632
1.81157
1.80933
1.80725
1.80483
1.80224
1.79946
1.79691
1.79531
1.79389
1.7925
1.79089
1.78897
1.78665
1.78272
1.77649
1.77074
1.76818
1.76688
1.76623
1.76562
1.76396
1.76192
1.75967
1.75516
1.74882
1.74322
1.74066
1.73952
1.73914
1.73812
1.73642
1.73441
1.73198
1.7281
1.7234
1.71885
1.71482
1.71072
1.70648
1.70432
1.70326
1.70262
1.70272
1.70263
1.70106
1.6987
1.69556
1.6908
1.68373
1.67525
1.67022
1.66872
1.6679
1.66771
1.67072
1.67469
1.67465
1.67298
1.67027
1.66469
1.65466
1.64477
1.6407
1.63898
1.63791
1.63768
1.64046
1.64323
1.64332
1.64212
1.64075
1.63779
1.63073
1.62196
1.61695
1.61457
1.6131
1.61206
1.61189
1.61228
1.61176
1.61056
1.6087
1.60582
1.60188
1.5982
1.59613
1.59441
1.59231
1.58964
1.58659
1.58379
1.58153
1.5792
1.57643
1.5736
1.57203
1.57114
1.57017
1.5688
1.56613
1.56078
1.55546
1.55333
1.55235
1.55154
1.55097
1.55124
1.5524
1.55176
1.55015
1.54765
1.54238
1.53384
1.52727
1.52506
1.5239
1.52296
1.52269
1.52456
1.52869
1.52924
1.52841
1.527
1.52491
1.5212
1.51447
1.50683
1.50157
1.49856
1.49658
1.49513
1.49417
1.49344
1.49254
1.49173
1.49083
1.48978
1.48862
1.48773
1.48669
1.48503
1.48228
1.47925
1.4774
1.47615
1.47477
1.47284
1.46978
1.46552
1.46171
1.45916
1.45735
1.45611
1.45531
1.45496
1.455
1.45419
1.45316
1.45209
1.45081
1.44883
1.44499
1.44104
1.43833
1.43686
1.43601
1.43559
1.43606
1.43779
1.43734
1.43592
1.43452
1.43246
1.42749
1.42025
1.41732
1.41651
1.41605
1.41609
1.41756
1.41855
1.41819
1.41755
1.41673
1.41539
1.41242
1.40781
1.4047
1.40313
1.40208
1.40154
1.40117
1.40066
1.39931
1.39615
1.39237
1.39045
1.38958
1.3889
1.38837
1.3881
1.38904
1.99197
1.98711
1.97858
1.96783
1.96099
1.9582
1.95834
1.96128
1.96082
1.95702
1.94968
1.94018
1.93409
1.93078
1.92916
1.93061
1.93093
1.92824
1.92272
1.91396
1.90445
1.89915
1.89687
1.89692
1.90045
1.90143
1.8987
1.89292
1.88352
1.87424
1.87018
1.86816
1.86771
1.87091
1.87327
1.8715
1.86748
1.86047
1.85143
1.8443
1.84104
1.83953
1.83974
1.84183
1.84112
1.83888
1.83438
1.82731
1.82019
1.81575
1.81376
1.81205
1.80998
1.80747
1.80397
1.80002
1.79779
1.79618
1.79469
1.79311
1.79142
1.78979
1.78695
1.78177
1.77562
1.77229
1.77096
1.77016
1.76918
1.76744
1.76539
1.76286
1.7585
1.7529
1.7473
1.74438
1.74316
1.74258
1.74144
1.73958
1.73782
1.73536
1.73132
1.72682
1.72225
1.71709
1.71148
1.70734
1.70527
1.70417
1.7037
1.70477
1.70648
1.7059
1.70393
1.70119
1.69609
1.68697
1.67643
1.67094
1.66856
1.66728
1.66691
1.6694
1.6751
1.67756
1.67662
1.67502
1.67178
1.66406
1.65178
1.64313
1.64018
1.63882
1.63774
1.63756
1.6402
1.64329
1.64312
1.64178
1.63975
1.63614
1.62981
1.62426
1.62105
1.6184
1.61617
1.61417
1.61222
1.61006
1.60809
1.60613
1.60348
1.59971
1.59732
1.59649
1.59622
1.59581
1.5945
1.59223
1.58855
1.58379
1.57894
1.57507
1.57251
1.57109
1.57022
1.56975
1.56925
1.56831
1.56701
1.56424
1.55841
1.55319
1.55114
1.55012
1.54946
1.54902
1.54818
1.54709
1.5457
1.5437
1.54064
1.5359
1.53065
1.5266
1.52483
1.52397
1.52393
1.52532
1.52589
1.52517
1.52387
1.52233
1.51999
1.51621
1.51179
1.50766
1.50416
1.5007
1.49749
1.49479
1.49276
1.49172
1.49087
1.4897
1.48848
1.48764
1.48698
1.48666
1.48664
1.48598
1.48445
1.48124
1.47708
1.4743
1.47216
1.46929
1.46517
1.4618
1.46045
1.45963
1.45875
1.45791
1.45693
1.45571
1.45426
1.45247
1.45062
1.44882
1.44709
1.4455
1.44411
1.44248
1.44043
1.43827
1.43693
1.43638
1.43631
1.43556
1.43435
1.43288
1.43129
1.42905
1.42534
1.42077
1.41832
1.41726
1.41654
1.41617
1.41597
1.41574
1.41535
1.41488
1.41415
1.41309
1.4109
1.40712
1.40408
1.4023
1.40085
1.39961
1.39902
1.3984
1.39726
1.39469
1.39081
1.38854
1.38776
1.38719
1.38674
1.38664
1.38745
1.98817
1.97959
1.96954
1.96338
1.96085
1.96129
1.96417
1.96328
1.95954
1.9525
1.94285
1.93541
1.93199
1.93107
1.9333
1.93394
1.93127
1.92548
1.91568
1.90681
1.90225
1.90014
1.9006
1.90461
1.90558
1.90289
1.89736
1.88786
1.87814
1.87247
1.87037
1.8702
1.87417
1.87715
1.87584
1.87216
1.86462
1.85429
1.84809
1.84532
1.84399
1.84432
1.84611
1.84513
1.84274
1.83801
1.83081
1.82385
1.81947
1.81756
1.81622
1.81444
1.81231
1.80952
1.80555
1.80178
1.79939
1.79737
1.79541
1.7935
1.79163
1.78911
1.78484
1.77952
1.7763
1.77498
1.77426
1.77324
1.77136
1.76902
1.76615
1.76155
1.75596
1.75091
1.74816
1.74687
1.7462
1.7449
1.74299
1.74111
1.73789
1.73355
1.7295
1.72573
1.7215
1.71629
1.71056
1.70702
1.70543
1.70423
1.70426
1.70681
1.70813
1.70682
1.7052
1.70193
1.69443
1.68289
1.67411
1.67025
1.66858
1.66733
1.66769
1.67294
1.67894
1.67914
1.6774
1.67496
1.67049
1.66138
1.6509
1.64463
1.64167
1.63995
1.63874
1.63852
1.63925
1.63892
1.63753
1.63575
1.63338
1.62992
1.6256
1.62382
1.62278
1.6216
1.61968
1.61662
1.61255
1.60869
1.60516
1.60139
1.59762
1.59553
1.59479
1.59469
1.59566
1.59607
1.59504
1.59339
1.59031
1.58397
1.57685
1.57266
1.57086
1.56978
1.56888
1.56891
1.56881
1.56765
1.56636
1.56455
1.56125
1.55581
1.5508
1.54855
1.54748
1.54642
1.54488
1.54307
1.54114
1.53912
1.53703
1.53526
1.53301
1.52986
1.52692
1.52536
1.52501
1.52485
1.52354
1.52218
1.52097
1.51908
1.51567
1.51154
1.50856
1.50712
1.5057
1.50354
1.49987
1.49564
1.49291
1.49078
1.48859
1.48699
1.48613
1.48559
1.48553
1.48631
1.48658
1.48587
1.48487
1.48309
1.47916
1.4731
1.46799
1.4645
1.46182
1.46048
1.45968
1.45942
1.45958
1.45901
1.45805
1.4565
1.45397
1.45136
1.44873
1.44594
1.44378
1.44277
1.4422
1.44199
1.44128
1.44029
1.43882
1.43699
1.43528
1.43371
1.43251
1.43099
1.4285
1.42502
1.42235
1.42054
1.41951
1.41866
1.41753
1.41624
1.41511
1.41423
1.41352
1.41285
1.41206
1.41076
1.40881
1.40648
1.40441
1.40257
1.40064
1.39879
1.39711
1.39618
1.39513
1.39317
1.39004
1.38771
1.38664
1.38595
1.38544
1.38575
1.38728
1.98078
1.97135
1.96552
1.96334
1.96412
1.96701
1.96614
1.96245
1.95532
1.94567
1.93916
1.93626
1.93515
1.93713
1.93737
1.93452
1.92885
1.91997
1.91063
1.90523
1.90326
1.90378
1.90802
1.90928
1.90689
1.9014
1.89241
1.8826
1.8773
1.87542
1.87516
1.87864
1.88093
1.87923
1.87524
1.86863
1.85984
1.85276
1.8493
1.84799
1.84847
1.85061
1.84954
1.84681
1.84163
1.83386
1.82703
1.82289
1.82098
1.81987
1.81868
1.81674
1.81435
1.81092
1.80652
1.80357
1.80131
1.79901
1.79658
1.79402
1.79109
1.78694
1.7822
1.77876
1.77737
1.77665
1.77603
1.77452
1.77261
1.77021
1.76577
1.76002
1.75449
1.7515
1.75011
1.74918
1.7476
1.74562
1.74348
1.73981
1.73537
1.73134
1.72791
1.72469
1.72073
1.71554
1.71136
1.70894
1.70723
1.70625
1.70657
1.70844
1.70858
1.70706
1.7042
1.69935
1.69034
1.68044
1.67486
1.67231
1.6707
1.66998
1.67212
1.67567
1.67542
1.67406
1.67231
1.66938
1.66367
1.65585
1.65057
1.6477
1.64507
1.64341
1.64223
1.64031
1.63773
1.63552
1.63369
1.63078
1.6266
1.62388
1.62289
1.62273
1.62321
1.62287
1.62147
1.61932
1.61555
1.60927
1.60212
1.59743
1.59489
1.59364
1.59288
1.59363
1.59566
1.59569
1.59468
1.59353
1.59093
1.58412
1.57571
1.57204
1.57046
1.56916
1.56813
1.56724
1.56665
1.56555
1.56429
1.56305
1.56122
1.55817
1.55348
1.54822
1.5451
1.54336
1.54176
1.53965
1.53718
1.53559
1.53462
1.53401
1.53345
1.53263
1.5311
1.52877
1.52582
1.52313
1.52166