/*--------------------------------*- C++ -*----------------------------------*\
  =========                 |
  \\      /  F ield         | OpenFOAM: The Open Source CFD Toolbox
   \\    /   O peration     | Website:  https://openfoam.org
    \\  /    A nd           | Version:  7
     \\/     M anipulation  |
\*---------------------------------------------------------------------------*/
FoamFile
{
    version     2.0;
    format      ascii;
    class       volScalarField;
    location    "0.7";
    object      p;
}
// * * * * * * * * * * * * * * * * * * * * * * * * * * * * * * * * * * * * * //

dimensions      [1 -1 -2 0 0 0 0];

internalField   nonuniform List<scalar> 
16192
(
0.774924
0.77837
0.784013
0.791468
0.805613
0.835858
0.881636
0.913582
0.919736
0.918998
0.916376
0.911465
0.895885
0.85436
0.806836
0.792994
0.79216
0.795644
0.807794
0.83749
0.871824
0.884027
0.885865
0.885904
0.883155
0.870524
0.838679
0.803326
0.792784
0.793697
0.797282
0.803148
0.814943
0.843
0.890929
0.92865
0.937878
0.939264
0.939428
0.936405
0.922082
0.88781
0.848899
0.835534
0.835742
0.840221
0.854787
0.887752
0.931651
0.956715
0.9608
0.958973
0.955134
0.946018
0.916637
0.863336
0.824454
0.817298
0.818516
0.823682
0.8319
0.851203
0.896221
0.958279
0.992093
0.997219
0.997215
0.99633
0.994594
0.988116
0.966506
0.928086
0.904059
0.89963
0.899689
0.903394
0.91277
0.930136
0.952027
0.964833
0.967415
0.964862
0.957777
0.942273
0.922867
0.914104
0.912693
0.913873
0.91922
0.935564
0.968812
0.994528
0.999118
0.999542
0.998433
0.993956
0.978865
0.951582
0.937191
0.935002
0.936982
0.942888
0.948979
0.949813
0.946668
0.943537
0.942869
0.946321
0.958102
0.978655
0.989457
0.99008
0.989324
0.988078
0.985051
0.972539
0.948828
0.934485
0.933142
0.93347
0.936035
0.946011
0.972745
1.00703
1.01843
1.01903
1.01891
1.01778
1.01237
0.993899
0.959222
0.938566
0.936565
0.936698
0.936931
0.937663
0.939353
0.943054
0.950245
0.965257
0.995439
1.02604
1.03287
1.03285
1.03315
1.03335
1.02861
1.01133
0.989013
0.982005
0.983026
0.984958
0.987177
0.991632
0.996881
1.00133
1.00489
1.00487
0.998456
0.994334
0.995349
0.999219
1.00375
1.00683
1.00994
1.01272
1.01491
1.01513
1.01031
1.00476
1.00397
1.00406
1.00453
1.00652
1.01346
1.02224
1.0187
1.01077
1.00472
0.996885
0.985428
0.979679
0.978826
0.980132
0.984422
0.991561
1.00612
1.03502
1.05356
1.05539
1.05521
1.05286
1.04055
1.0088
0.979455
0.972702
0.972663
0.974927
0.982656
1.00472
1.0378
1.05241
1.05464
1.05551
1.05428
1.04575
1.02159
0.991923
0.983641
0.983633
0.984949
0.988635
0.998003
1.01672
1.03275
1.03481
1.03443
1.03357
1.03162
1.02505
1.01394
1.01054
1.01114
1.01295
1.01646
1.02387
1.03391
1.03831
1.03852
1.03804
1.03605
1.03044
1.02258
1.01959
1.01941
1.01981
1.02073
1.02252
1.0275
1.03405
1.03568
1.03581
1.03573
1.03506
1.03114
1.01988
1.00831
1.00571
1.00563
1.00566
1.00615
1.0069
1.0122
0.753577
0.769714
0.784588
0.804749
0.8402
0.891161
0.921358
0.924008
0.921756
0.916432
0.908774
0.889998
0.846101
0.802049
0.79221
0.791968
0.795702
0.8086
0.836024
0.865214
0.877864
0.88178
0.881731
0.877241
0.860624
0.827781
0.801007
0.792563
0.789814
0.789881
0.79576
0.814256
0.854672
0.907023
0.935765
0.939831
0.938509
0.934355
0.927102
0.907627
0.867968
0.835337
0.83064
0.833919
0.841309
0.859243
0.897433
0.941361
0.957619
0.958952
0.956854
0.953098
0.941328
0.905961
0.852346
0.823762
0.818278
0.816329
0.816998
0.824808
0.8515
0.90824
0.970052
0.991876
0.994106
0.994446
0.993931
0.991702
0.984776
0.964505
0.929496
0.909337
0.905445
0.904598
0.907073
0.91446
0.927039
0.942891
0.954475
0.957487
0.955499
0.949546
0.938673
0.927567
0.921403
0.91941
0.919693
0.923793
0.936536
0.965313
0.99237
0.998503
0.998962
0.998539
0.996031
0.985723
0.961174
0.941773
0.939214
0.940978
0.944839
0.947569
0.944957
0.939597
0.935782
0.934394
0.936185
0.944972
0.966303
0.989711
0.994647
0.994476
0.993523
0.992061
0.984763
0.96383
0.941595
0.936453
0.93635
0.937429
0.942889
0.960858
0.993736
1.01451
1.01734
1.01753
1.01723
1.01436
1.0009
0.969489
0.94172
0.936129
0.936331
0.937265
0.938428
0.94067
0.944679
0.951085
0.961652
0.980706
1.00941
1.029
1.03232
1.03121
1.02992
1.02734
1.01698
0.997582
0.983621
0.981379
0.984219
0.988033
0.99212
0.996421
0.999696
1.0016
1.00256
1.00339
1.00131
0.998265
0.999481
1.00391
1.00813
1.01032
1.01272
1.01504
1.01656
1.01574
1.00934
1.00259
1.00246
1.00297
1.00407
1.00604
1.00936
1.0157
1.01468
1.00677
0.999692
0.993307
0.984304
0.98063
0.980946
0.98228
0.985764
0.995441
1.01923
1.04726
1.05568
1.05598
1.05512
1.04974
1.02876
0.995369
0.980154
0.978065
0.9784
0.981965
0.993753
1.02014
1.04441
1.05051
1.05156
1.05143
1.04727
1.03371
1.00667
0.98704
0.985037
0.985971
0.988001
0.992303
1.00229
1.02075
1.03381
1.03529
1.03451
1.03342
1.03153
1.02592
1.01774
1.01483
1.0151
1.01644
1.01997
1.02781
1.03528
1.03669
1.03655
1.0358
1.03298
1.02611
1.02004
1.01914
1.01908
1.01926
1.01993
1.02203
1.02818
1.03492
1.03644
1.03667
1.03675
1.03492
1.0268
1.01234
1.00449
1.00354
1.00332
1.00347
1.00491
1.00776
1.01775
0.735065
0.759514
0.787611
0.829282
0.886489
0.920436
0.924154
0.922887
0.91872
0.911133
0.88989
0.842788
0.798369
0.789087
0.788864
0.793473
0.808571
0.839754
0.867058
0.872946
0.873415
0.872716
0.86737
0.848923
0.814823
0.793216
0.788968
0.79043
0.794815
0.803468
0.823265
0.866143
0.918048
0.939516
0.941323
0.94036
0.937429
0.926837
0.896312
0.849042
0.82363
0.821442
0.824066
0.833109
0.858334
0.906136
0.948728
0.959157
0.959154
0.956554
0.95153
0.934684
0.890869
0.838297
0.821182
0.820351
0.82218
0.825521
0.833868
0.858524
0.913226
0.971624
0.989726
0.991173
0.990764
0.990695
0.990039
0.984456
0.965722
0.932929
0.91277
0.910268
0.911119
0.91335
0.917642
0.923333
0.9318
0.943019
0.947144
0.946325
0.943655
0.938442
0.932151
0.927087
0.924614
0.923973
0.927181
0.937695
0.961176
0.987973
0.995645
0.996009
0.996224
0.99544
0.988984
0.970125
0.947881
0.942729
0.944206
0.946582
0.946923
0.943103
0.935358
0.92864
0.925853
0.926288
0.933391
0.952291
0.984482
1.00072
1.00191
1.00108
0.999907
0.996202
0.979625
0.950473
0.937155
0.93643
0.93703
0.940435
0.952863
0.982021
1.0098
1.01574
1.01563
1.01466
1.01227
1.00266
0.976462
0.947359
0.939025
0.938814
0.940112
0.94164
0.943787
0.947709
0.953706
0.962039
0.97461
0.994946
1.01863
1.02957
1.03008
1.0275
1.02447
1.01749
1.00357
0.989786
0.983407
0.984129
0.988032
0.992204
0.996507
1.00029
1.00232
1.00331
1.00369
1.00412
1.00404
1.00122
1.00144
1.0065
1.0113
1.01325
1.01503
1.01716
1.01832
1.01646
1.00766
0.998137
0.998535
1.00053
1.00159
1.00406
1.00748
1.01139
1.01205
1.00561
0.998054
0.991881
0.985451
0.982631
0.982826
0.983895
0.988697
1.00545
1.03562
1.05381
1.0572
1.05769
1.05533
1.04439
1.01523
0.990172
0.985132
0.98363
0.984112
0.989602
1.00483
1.03048
1.04541
1.04736
1.04729
1.0455
1.03868
1.02222
0.997698
0.986434
0.986257
0.987706
0.989952
0.994847
1.00602
1.0248
1.0357
1.0366
1.03545
1.03428
1.03292
1.02645
1.01697
1.01451
1.01479
1.01625
1.02072
1.02922
1.03469
1.03504
1.0349
1.03392
1.03047
1.02341
1.0185
1.01798
1.01792
1.01789
1.01871
1.0229
1.03154
1.03766
1.03875
1.03884
1.03757
1.03192
1.01774
1.00451
1.00176
1.00151
1.00144
1.00209
1.00438
1.01139
1.02914
0.724492
0.75544
0.799801
0.864045
0.910869
0.919182
0.919564
0.918687
0.912411
0.890718
0.843848
0.80026
0.790197
0.788938
0.79261
0.80715
0.835652
0.859951
0.867758
0.870381
0.870536
0.863214
0.841266
0.808813
0.793966
0.789947
0.786971
0.787389
0.798088
0.826353
0.877882
0.923605
0.936337
0.938134
0.938674
0.935848
0.922432
0.886486
0.838876
0.819684
0.818587
0.821071
0.830192
0.857475
0.908732
0.94729
0.954525
0.955089
0.953784
0.95043
0.933461
0.887655
0.838404
0.822492
0.819839
0.819398
0.821563
0.832942
0.864914
0.922805
0.97353
0.987603
0.989389
0.988287
0.986583
0.984943
0.980389
0.966922
0.940818
0.919373
0.915623
0.916794
0.918724
0.920345
0.921631
0.92394
0.929192
0.937441
0.939974
0.939601
0.938434
0.937293
0.935904
0.93433
0.933723
0.935996
0.942838
0.957003
0.978785
0.991427
0.992748
0.992629
0.992301
0.988715
0.976827
0.957048
0.945811
0.945834
0.947123
0.947167
0.943755
0.933533
0.923212
0.918355
0.916699
0.921302
0.937341
0.972205
1.00396
1.00972
1.00918
1.00777
1.00583
0.994372
0.964635
0.939782
0.93596
0.936164
0.938217
0.946605
0.969221
0.999555
1.01284
1.01472
1.01452
1.01295
1.00596
0.984882
0.95508
0.941635
0.941092
0.942875
0.945389
0.94876
0.95358
0.959652
0.965937
0.972897
0.984048
1.00329
1.0224
1.0283
1.02641
1.0225
1.01758
1.0074
0.994876
0.988274
0.987627
0.989282
0.992551
0.996199
0.999622
1.0031
1.00504
1.00565
1.00575
1.00555
1.00518
1.00349
1.00194
1.00607
1.0121
1.01401
1.01498
1.01668
1.0177
1.0149
1.00444
0.993856
0.995131
0.999177
1.00146
1.00515
1.00916
1.01073
1.01007
1.00553
0.998529
0.991803
0.985585
0.983619
0.983728
0.985502
0.99473
1.02072
1.04777
1.05603
1.05862
1.05911
1.05399
1.03604
1.00447
0.988682
0.986666
0.987292
0.989172
0.996689
1.0136
1.03544
1.04342
1.04353
1.04278
1.04003
1.03173
1.01394
0.99277
0.9863
0.986997
0.989014
0.991438
0.997369
1.01122
1.03035
1.03831
1.03862
1.03707
1.03551
1.03289
1.02406
1.01454
1.01307
1.01341
1.01526
1.02125
1.0301
1.03341
1.03361
1.0335
1.03223
1.02771
1.02043
1.01714
1.01688
1.01687
1.01731
1.01978
1.02715
1.03636
1.03919
1.03942
1.03885
1.03576
1.02454
1.00726
1.00044
1.00004
1.00032
1.00132
1.00367
1.0105
1.02696
1.0433
0.722388
0.761737
0.822894
0.886854
0.908467
0.912091
0.913293
0.910957
0.891687
0.845841
0.804146
0.793011
0.790883
0.793263
0.806387
0.835915
0.859617
0.863325
0.863515
0.862796
0.855452
0.833665
0.801815
0.78907
0.787209
0.789429
0.794619
0.80684
0.83511
0.886707
0.928441
0.937204
0.93764
0.935524
0.930799
0.914601
0.872539
0.827317
0.816352
0.817236
0.820852
0.830558
0.857487
0.909076
0.945942
0.951062
0.95023
0.947449
0.942095
0.923109
0.875555
0.832333
0.825098
0.825861
0.827609
0.831513
0.843046
0.874842
0.930368
0.974237
0.985732
0.987483
0.986245
0.983931
0.980599
0.973655
0.961093
0.944141
0.928532
0.91951
0.918279
0.918487
0.918827
0.919081
0.919592
0.921534
0.928147
0.936922
0.938831
0.938533
0.938143
0.9384
0.939831
0.942234
0.945157
0.949458
0.956823
0.968908
0.983864
0.989412
0.989443
0.98877
0.986403
0.979686
0.967664
0.954792
0.949856
0.948891
0.946976
0.942014
0.930203
0.916892
0.911673
0.910066
0.913299
0.92628
0.957509
1.00146
1.01743
1.01767
1.0156
1.0138
1.00641
0.980358
0.945555
0.93565
0.935696
0.937063
0.942567
0.960133
0.990428
1.00757
1.01001
1.00973
1.0083
1.00373
0.991001
0.96843
0.950118
0.947357
0.948845
0.951138
0.95401
0.957465
0.961231
0.965004
0.969419
0.976028
0.988072
1.00765
1.0221
1.02375
1.0205
1.01595
1.01093
1.00184
0.99244
0.991313
0.993108
0.995087
0.995811
0.998594
1.00221
1.00582
1.00768
1.00791
1.0075
1.00641
1.00479
1.00274
1.00144
1.00529
1.01185
1.0135
1.01369
1.01447
1.01467
1.0109
1.00004
0.989886
0.992066
0.998057
1.00191
1.00683
1.01117
1.0119
1.01014
1.0054
0.998421
0.991126
0.985884
0.983467
0.98335
0.987978
1.00565
1.03707
1.05407
1.05819
1.06016
1.05899
1.04922
1.02445
0.996572
0.988663
0.987914
0.988753
0.991766
1.00085
1.01857
1.03653
1.0401
1.0394
1.03826
1.03499
1.02559
1.00695
0.989924
0.986277
0.988078
0.990829
0.993919
1.00205
1.01971
1.03728
1.04193
1.04164
1.03975
1.0375
1.03165
1.01825
1.01048
1.0101
1.01069
1.01414
1.02304
1.0316
1.03343
1.03346
1.0329
1.03041
1.02385
1.01706
1.01569
1.01581
1.0165
1.0183
1.02366
1.03359
1.03884
1.03914
1.03853
1.03658
1.02949
1.01362
1.00181
1.00023
1.00028
1.00065
1.00242
1.00925
1.02613
1.04429
1.04776
0.734008
0.781149
0.843514
0.88378
0.893267
0.89712
0.89834
0.886939
0.846774
0.808176
0.797197
0.794632
0.795724
0.806171
0.832118
0.854103
0.858985
0.860209
0.860139
0.852461
0.830545
0.800821
0.789535
0.787248
0.785501
0.786716
0.800922
0.836616
0.893493
0.928518
0.933349
0.933939
0.934486
0.930681
0.91174
0.867292
0.824898
0.814711
0.813561
0.814871
0.824389
0.853124
0.90529
0.940826
0.946592
0.946632
0.945227
0.941983
0.924183
0.879129
0.835567
0.824259
0.8234
0.824614
0.830243
0.847575
0.886103
0.939569
0.973934
0.9822
0.983932
0.98281
0.980226
0.975588
0.966465
0.952908
0.939881
0.931293
0.924788
0.918439
0.915088
0.914571
0.914484
0.914725
0.915987
0.920445
0.930465
0.939418
0.941445
0.941932
0.942675
0.944157
0.94643
0.948909
0.950803
0.95407
0.961326
0.973649
0.985544
0.9878
0.986399
0.984224
0.980661
0.974576
0.966736
0.961568
0.95767
0.951676
0.942429
0.92613
0.908898
0.902709
0.901544
0.905452
0.917873
0.946579
0.995872
1.02446
1.02672
1.02365
1.02077
1.01545
0.995316
0.956466
0.935771
0.934272
0.934916
0.938423
0.951043
0.978702
1.00232
1.0075
1.00687
1.00486
1.00047
0.992079
0.979972
0.96517
0.955853
0.954644
0.955075
0.955919
0.957214
0.958915
0.961072
0.964338
0.96909
0.976594
0.990875
1.01021
1.0201
1.02046
1.01696
1.01235
1.008
1.00047
0.99471
0.995207
0.996735
0.997912
0.997645
1.00036
1.00476
1.00868
1.01009
1.01026
1.00869
1.00579
1.00275
1.00014
0.999111
1.00386
1.01273
1.01367
1.01244
1.01219
1.01079
1.00592
0.995114
0.986984
0.990329
0.997573
1.00321
1.00911
1.01201
1.01217
1.01116
1.00614
0.995843
0.989035
0.984842
0.982296
0.983786
0.994283
1.02147
1.04955
1.05768
1.05996
1.06069
1.05668
1.04156
1.01215
0.991385
0.988299
0.987853
0.988667
0.993013
1.00417
1.02297
1.03692
1.03825
1.03604
1.0341
1.02979
1.01847
1.00059
0.988934
0.987295
0.98992
0.993335
0.997835
1.00984
1.03021
1.04123
1.04267
1.04187
1.03974
1.0362
1.02522
1.00991
1.00616
1.00645
1.0084
1.015
1.02634
1.03232
1.03304
1.03309
1.03228
1.02842
1.02029
1.01543
1.01521
1.01555
1.01643
1.01979
1.02883
1.03769
1.03931
1.03913
1.03797
1.03326
1.01986
1.00402
1.00011
1.00027
1.00102
1.00273
1.00847
1.02409
1.04342
1.04936
1.04851
0.761649
0.805988
0.844056
0.85836
0.863661
0.867667
0.864857
0.837886
0.807504
0.799873
0.797789
0.798641
0.808413
0.833424
0.854715
0.857134
0.855792
0.853535
0.846563
0.826423
0.796847
0.786623
0.786775
0.789498
0.794335
0.807655
0.840416
0.894685
0.92653
0.929625
0.929131
0.928839
0.923801
0.903349
0.857871
0.821807
0.817193
0.817759
0.819744
0.827389
0.850536
0.895851
0.932069
0.940739
0.94115
0.939123
0.934375
0.916695
0.874781
0.83878
0.83165
0.831921
0.834158
0.840187
0.858091
0.897698
0.946347
0.971769
0.978152
0.979692
0.978139
0.974539
0.967602
0.956359
0.943906
0.935682
0.931773
0.92853
0.922284
0.914218
0.911193
0.911068
0.911449
0.912479
0.916003
0.925407
0.93787
0.944359
0.946259
0.946918
0.947389
0.948002
0.948784
0.949645
0.95059
0.953395
0.961768
0.976033
0.986433
0.987395
0.98571
0.983163
0.978416
0.971624
0.967031
0.964182
0.958169
0.945543
0.922379
0.901844
0.896966
0.896125
0.898226
0.907676
0.934296
0.987218
1.02925
1.03569
1.0318
1.02706
1.02212
1.00707
0.969707
0.938252
0.933737
0.934197
0.936312
0.944096
0.965839
0.99345
1.00295
1.00291
1.00117
0.997719
0.992782
0.98682
0.978722
0.97026
0.963257
0.957749
0.955373
0.954944
0.955489
0.957038
0.959292
0.962129
0.966583
0.977332
0.996004
1.01333
1.01958
1.01982
1.01658
1.01193
1.00755
1.00128
0.996986
0.997199
0.998199
0.999022
0.999498
1.00279
1.00754
1.01145
1.01326
1.01287
1.0079
1.00255
0.999545
0.99721
0.997077
1.0035
1.01429
1.015
1.01174
1.00939
1.00502
0.99771
0.990116
0.986752
0.990942
0.998296
1.00465
1.0106
1.01355
1.01377
1.01218
1.0034
0.992151
0.986797
0.983525
0.982187
0.987229
1.00533
1.03695
1.05512
1.0582
1.05941
1.05873
1.05209
1.03237
1.00181
0.988177
0.987648
0.987686
0.988746
0.99414
1.00761
1.02746
1.03761
1.03684
1.03306
1.03006
1.02385
1.01043
0.996021
0.989943
0.989774
0.992803
0.996825
1.00395
1.02082
1.03878
1.04329
1.04362
1.04286
1.0404
1.032
1.01379
1.00331
1.00274
1.00387
1.00798
1.01812
1.02909
1.03212
1.03244
1.03237
1.03096
1.02605
1.01847
1.0153
1.01526
1.01571
1.01752
1.02323
1.03287
1.03817
1.03874
1.03852
1.03624
1.02743
1.01139
1.0015
1.00011
1.00031
1.00154
1.00651
1.02041
1.04018
1.04861
1.04947
1.0482
0.792444
0.813273
0.823127
0.826689
0.830727
0.829516
0.811149
0.795384
0.794757
0.794905
0.797126
0.80916
0.834113
0.853162
0.85543
0.854297
0.85276
0.84586
0.82772
0.800086
0.786378
0.784965
0.785162
0.787862
0.802157
0.838476
0.896082
0.927124
0.929204
0.926609
0.924935
0.918661
0.896597
0.851936
0.818274
0.813807
0.81483
0.818234
0.827098
0.850386
0.894327
0.927842
0.933981
0.933531
0.931535
0.927558
0.91212
0.876243
0.842275
0.83258
0.833223
0.836717
0.845227
0.867063
0.907672
0.949407
0.967304
0.972084
0.972974
0.971209
0.966496
0.957385
0.945588
0.937647
0.934743
0.932664
0.929947
0.926217
0.918873
0.911414
0.90993
0.910073
0.911191
0.914823
0.925068
0.939397
0.946108
0.947455
0.94716
0.946343
0.946332
0.946706
0.947638
0.949063
0.950646
0.953949
0.964447
0.981051
0.989326
0.988564
0.986662
0.985529
0.982893
0.977577
0.96873
0.957735
0.94151
0.914254
0.891258
0.88715
0.888524
0.894459
0.904882
0.928332
0.977096
1.02602
1.0384
1.03568
1.02984
1.02492
1.01538
0.984211
0.944277
0.932598
0.932321
0.933667
0.938371
0.953329
0.981365
0.997814
0.999114
0.998586
0.99736
0.995134
0.99163
0.986494
0.981268
0.974965
0.964434
0.955341
0.952811
0.952639
0.952963
0.954055
0.955987
0.958833
0.966334
0.982337
1.0048
1.01737
1.02001
1.01981
1.01706
1.01254
1.00761
1.00154
0.997972
0.99807
0.999154
1.00034
1.00236
1.00594
1.01045
1.01445
1.01603
1.01217
1.00347
0.998437
0.996821
0.995797
0.996764
1.00441
1.01572
1.01479
1.00927
1.00498
0.998144
0.990741
0.988003
0.989224
0.993576
1.00022
1.00698
1.01289
1.01593
1.0161
1.01176
0.998512
0.988292
0.984744
0.983125
0.984281
0.993677
1.01807
1.04781
1.05621
1.05674
1.05713
1.05581
1.04615
1.02195
0.993632
0.98631
0.987594
0.989447
0.990937
0.997117
1.01222
1.03026
1.0365
1.0338
1.02897
1.02488
1.01721
1.00468
0.995566
0.993336
0.994254
0.997397
1.00228
1.01319
1.03206
1.04258
1.04339
1.04335
1.04246
1.03701
1.02075
1.00407
1.00058
1.0008
1.00292
1.00929
1.02198
1.03013
1.03138
1.03159
1.03131
1.02925
1.02356
1.01743
1.016
1.01614
1.01703
1.02046
1.02863
1.03563
1.03696
1.03687
1.03582
1.03061
1.01742
1.00536
1.00264
1.00277
1.00367
1.00705
1.01769
1.03653
1.04709
1.04822
1.04817
1.04607
0.802119
0.804311
0.804344
0.804955
0.800229
0.779777
0.76916
0.775399
0.782251
0.789466
0.80512
0.833691
0.852906
0.854732
0.853246
0.849937
0.843049
0.825904
0.79801
0.784608
0.785336
0.787978
0.792994
0.805108
0.835683
0.888103
0.921951
0.926486
0.923947
0.922103
0.915789
0.892307
0.848957
0.819644
0.815912
0.816392
0.819219
0.827555
0.848214
0.885526
0.917989
0.928059
0.929321
0.927214
0.922342
0.906455
0.875072
0.849195
0.842623
0.84304
0.84662
0.855452
0.876933
0.914235
0.94755
0.960514
0.964454
0.964499
0.961814
0.955157
0.945902
0.938867
0.936279
0.935123
0.933429
0.930765
0.92713
0.920718
0.912965
0.910513
0.910515
0.9115
0.915133
0.925396
0.939977
0.947325
0.948724
0.948613
0.946714
0.944361
0.943977
0.94371
0.943734
0.945114
0.949303
0.958221
0.975677
0.992602
0.995392
0.991989
0.988822
0.985203
0.981173
0.975705
0.965568
0.941899
0.904823
0.881284
0.878509
0.880204
0.884381
0.89428
0.919823
0.96981
1.02225
1.03986
1.04026
1.0349
1.02844
1.02034
0.995519
0.952378
0.932446
0.931064
0.931636
0.934221
0.942785
0.965503
0.991557
0.998496
0.998596
0.998113
0.996987
0.994849
0.991771
0.988676
0.984346
0.974278
0.959565
0.950296
0.948808
0.948701
0.94875
0.949785
0.952395
0.957983
0.969883
0.99312
1.01458
1.01969
1.02008
1.01958
1.01707
1.01297
1.00787
1.00238
0.999644
0.999456
1.00053
1.00324
1.00614
1.0094
1.01324
1.0163
1.01525
1.007
0.996816
0.994586
0.994641
0.995601
0.998592
1.00501
1.01438
1.01327
1.00575
0.999845
0.993272
0.989212
0.989371
0.991368
0.996563
1.00409
1.01058
1.016
1.01937
1.01855
1.00915
0.993047
0.986135
0.984313
0.984295
0.987982
1.00138
1.02829
1.05263
1.05662
1.05513
1.05465
1.05131
1.03805
1.01127
0.98859
0.984724
0.987594
0.991233
0.995545
1.00416
1.01729
1.02955
1.03357
1.03036
1.02491
1.01998
1.01196
1.00233
0.998306
0.997962
0.999268
1.00266
1.00993
1.02454
1.03905
1.04298
1.04331
1.04287
1.03971
1.02725
1.00811
1.00047
0.999623
1.00015
1.003
1.01168
1.02485
1.02988
1.03032
1.03056
1.0303
1.02809
1.02232
1.01712
1.0166
1.01707
1.01872
1.02335
1.03123
1.03581
1.03607
1.03556
1.03274
1.02379
1.01051
1.0042
1.00381
1.00442
1.00698
1.0149
1.03145
1.04501
1.04771
1.04781
1.04763
1.04404
0.801753
0.799415
0.79624
0.788069
0.764546
0.743355
0.746263
0.75764
0.770985
0.789851
0.822019
0.847252
0.851034
0.850781
0.849602
0.844664
0.830703
0.805883
0.786071
0.782237
0.783228
0.787444
0.800529
0.832073
0.885295
0.920214
0.923133
0.917615
0.913492
0.906807
0.884328
0.844057
0.820137
0.817847
0.818844
0.821575
0.829293
0.848493
0.882416
0.910774
0.919008
0.919001
0.916464
0.912102
0.898832
0.874731
0.855267
0.849687
0.850724
0.855139
0.865188
0.886134
0.917341
0.941876
0.951812
0.954662
0.954178
0.950198
0.94267
0.937441
0.936324
0.936543
0.936077
0.934543
0.932382
0.92919
0.922989
0.914852
0.910866
0.910258
0.911042
0.915068
0.92621
0.939258
0.943673
0.944818
0.94576
0.945718
0.94392
0.941837
0.940783
0.940116
0.939173
0.941013
0.948572
0.966419
0.991203
1.00318
1.00151
0.996902
0.993385
0.986716
0.975415
0.960136
0.932328
0.894234
0.875637
0.874657
0.877089
0.881618
0.890519
0.913397
0.963132
1.01853
1.03787
1.04038
1.0387
1.03327
1.02554
1.00554
0.962257
0.933539
0.929913
0.929768
0.93099
0.935703
0.950394
0.979169
0.997324
0.999128
0.99903
0.998544
0.997566
0.996257
0.994831
0.992084
0.983824
0.96724
0.94987
0.944157
0.943751
0.943842
0.944455
0.946362
0.950619
0.959592
0.979526
1.00716
1.01989
1.02128
1.02115
1.02009
1.01756
1.01262
1.00789
1.00379
1.00124
1.00102
1.00326
1.00721
1.00959
1.01197
1.01469
1.01553
1.01098
0.999805
0.991788
0.992052
0.993956
0.996989
1.0011
1.00527
1.01011
1.01148
1.004
0.996906
0.991736
0.990181
0.99068
0.993276
1.00074
1.00939
1.01546
1.02012
1.02268
1.01861
1.00413
0.98952
0.986241
0.985692
0.986678
0.99251
1.00897
1.03595
1.05415
1.05547
1.0519
1.04906
1.04304
1.02825
1.00502
0.988013
0.985795
0.98963
0.9943
0.999332
1.00828
1.0193
1.02604
1.02819
1.02606
1.02097
1.01597
1.01007
1.00317
1.00215
1.00282
1.00451
1.00884
1.019
1.03318
1.04016
1.04172
1.04205
1.04029
1.03216
1.01386
1.0018
0.999948
0.999725
1.0006
1.00441
1.01411
1.02608
1.02942
1.02963
1.02983
1.0298
1.02768
1.02195
1.01811
1.01815
1.01914
1.02152
1.02629
1.03169
1.03334
1.03313
1.03178
1.02688
1.01688
1.00928
1.00782
1.00804
1.00951
1.0144
1.02644
1.04109
1.04614
1.04643
1.04638
1.04592
1.04071
0.802243
0.797669
0.788777
0.766657
0.735752
0.728459
0.733026
0.74457
0.763144
0.794025
0.830948
0.843362
0.844554
0.844747
0.842654
0.831956
0.810763
0.791143
0.78617
0.787659
0.790877
0.800657
0.826307
0.871708
0.909867
0.920293
0.91705
0.911655
0.903949
0.881373
0.84375
0.820683
0.817712
0.819513
0.823483
0.831507
0.848892
0.877445
0.902286
0.912069
0.912292
0.908751
0.902832
0.890231
0.873375
0.862056
0.859162
0.86083
0.866217
0.876984
0.894761
0.916413
0.932996
0.941665
0.943564
0.942245
0.937189
0.932182
0.931693
0.933991
0.936123
0.936217
0.935099
0.933193
0.930161
0.923781
0.918281
0.915504
0.913296
0.912861
0.916028
0.924662
0.935859
0.940282
0.940936
0.941251
0.941168
0.939103
0.934873
0.932412
0.933075
0.935296
0.940214
0.949125
0.966336
0.989405
1.00262
1.00315
0.998936
0.99554
0.992494
0.986109
0.966084
0.924175
0.880291
0.86536
0.865009
0.867548
0.872975
0.883188
0.906878
0.957836
1.01735
1.0383
1.0408
1.0406
1.03715
1.03039
1.01232
0.970836
0.935888
0.929335
0.92867
0.929034
0.931651
0.939875
0.961735
0.990848
1.00075
1.00123
1.00123
1.00103
1.00075
1.00028
0.998689
0.991789
0.974783
0.951227
0.940254
0.939013
0.93909
0.939594
0.940869
0.943905
0.950663
0.966293
0.994878
1.01737
1.0219
1.02213
1.02201
1.02124
1.01865
1.01292
1.00771
1.00438
1.00161
1.00132
1.00527
1.00897
1.0101
1.01143
1.01268
1.01171
1.00549
0.994159
0.988281
0.990394
0.994163
0.99907
1.0039
1.00669
1.00753
1.00762
1.00485
0.997448
0.991916
0.98989
0.990528
0.995666
1.00671
1.01517
1.02005
1.02363
1.02435
1.01639
0.998688
0.987237
0.986572
0.987251
0.989786
0.997148
1.01416
1.0401
1.05385
1.05275
1.04727
1.04292
1.03637
1.0236
1.00506
0.991391
0.988562
0.992112
0.997383
1.00183
1.00903
1.01808
1.02173
1.02259
1.02302
1.02051
1.01577
1.01129
1.00769
1.00743
1.00835
1.01057
1.01619
1.02631
1.03461
1.03785
1.0393
1.03912
1.03474
1.02143
1.00533
1.00095
1.00054
1.00068
1.0018
1.00599
1.01493
1.02598
1.02925
1.02932
1.02932
1.0293
1.02759
1.02285
1.01957
1.01951
1.02038
1.02236
1.02675
1.03088
1.03104
1.03022
1.02771
1.02152
1.01351
1.01057
1.01088
1.01201
1.01523
1.02376
1.03751
1.04464
1.04542
1.04536
1.04505
1.04351
1.03593
0.802059
0.794588
0.775925
0.742928
0.725036
0.725007
0.728536
0.738255
0.758821
0.7966
0.825942
0.830839
0.831674
0.832411
0.829872
0.817069
0.79781
0.787128
0.787626
0.791127
0.799487
0.822271
0.864245
0.901497
0.912443
0.9086
0.901611
0.894124
0.874582
0.842836
0.824612
0.822207
0.823878
0.828203
0.836731
0.852362
0.874192
0.892425
0.9016
0.901732
0.897891
0.892183
0.882526
0.873095
0.868271
0.868184
0.871393
0.878437
0.889534
0.902242
0.913102
0.922149
0.929686
0.930792
0.928536
0.923773
0.922409
0.92539
0.931591
0.935037
0.935739
0.935312
0.933873
0.931016
0.923925
0.91811
0.916254
0.915099
0.914688
0.917829
0.925807
0.934522
0.937087
0.937601
0.937987
0.938042
0.935459
0.929059
0.924159
0.924693
0.927492
0.934071
0.948134
0.969619
0.991232
1.00357
1.00638
1.00213
0.995555
0.989599
0.980941
0.957857
0.911671
0.872266
0.864021
0.863977
0.864307
0.865347
0.872193
0.894415
0.945687
1.01222
1.03932
1.04149
1.04206
1.0423
1.03835
1.02105
0.978724
0.938671
0.929324
0.928078
0.927717
0.928758
0.933803
0.947997
0.97692
1.00002
1.00425
1.00476
1.00512
1.00539
1.00536
1.00447
0.999211
0.983123
0.954699
0.937415
0.935066
0.934884
0.935214
0.936148
0.938001
0.942567
0.954171
0.979846
1.01038
1.02169
1.02306
1.02337
1.02337
1.02262
1.01938
1.01246
1.00644
1.00318
1.00105
1.00121
1.00549
1.00837
1.00854
1.00893
1.00929
1.00698
0.998935
0.988324
0.985094
0.989281
0.995146
1.00242
1.00682
1.00809
1.0077
1.00621
1.00405
0.998974
0.992866
0.989715
0.991364
1.00042
1.0137
1.02015
1.02346
1.02577
1.02417
1.01259
0.993403
0.984512
0.986077
0.988428
0.99171
0.999585
1.01539
1.03893
1.05167
1.05024
1.04374
1.0388
1.03379
1.02324
1.00858
0.995689
0.990796
0.992321
0.997303
1.00203
1.00695
1.01499
1.02034
1.02149
1.02111
1.0211
1.01904
1.01472
1.01195
1.01199
1.01333
1.01648
1.02301
1.02967
1.03244
1.03436
1.03565
1.03417
1.02702
1.01278
1.00269
1.00151
1.00159
1.00196
1.00315
1.00698
1.01523
1.02605
1.02968
1.02957
1.0291
1.02895
1.02789
1.02456
1.02107
1.02027
1.02061
1.02173
1.0246
1.0273
1.02741
1.0265
1.02412
1.01924
1.01447
1.01408
1.01484
1.01705
1.02281
1.0338
1.0427
1.04466
1.04479
1.04465
1.04391
1.04085
1.03228
0.800609
0.787737
0.758269
0.729912
0.724086
0.724231
0.726671
0.735769
0.759833
0.795043
0.808411
0.809725
0.811128
0.812396
0.81164
0.803346
0.792413
0.790947
0.795404
0.802246
0.819001
0.853054
0.889614
0.905085
0.903926
0.895902
0.887706
0.870653
0.843849
0.827534
0.824918
0.827139
0.832412
0.841715
0.856229
0.871656
0.882933
0.890578
0.89018
0.885538
0.879306
0.874741
0.874005
0.874
0.875754
0.88145
0.889965
0.898081
0.903254
0.906582
0.911543
0.917305
0.917476
0.914429
0.911267
0.911888
0.91869
0.928829
0.934122
0.935147
0.935303
0.934564
0.932228
0.925043
0.917978
0.916025
0.915149
0.914693
0.916337
0.921543
0.928477
0.933183
0.934309
0.93394
0.932719
0.927962
0.921098
0.919387
0.92238
0.927403
0.935963
0.953026
0.977311
0.994294
0.99957
1.00135
1.00219
1.00112
0.996574
0.986862
0.955925
0.900724
0.864486
0.858406
0.858336
0.859539
0.863736
0.872431
0.891995
0.938467
1.00628
1.04021
1.04444
1.04548
1.04573
1.04198
1.02634
0.985245
0.942314
0.930828
0.929047
0.928294
0.927927
0.930376
0.9393
0.962189
0.994299
1.00765
1.00911
1.00959
1.00992
1.01001
1.00944
1.00538
0.9916
0.961369
0.936095
0.931358
0.931022
0.931096
0.931783
0.933151
0.935946
0.943446
0.963327
0.997892
1.02005
1.02376
1.02474
1.0255
1.02577
1.02463
1.01917
1.00982
1.00403
1.00126
0.999626
1.0008
1.00594
1.00828
1.00703
1.00656
1.00514
1.00059
0.992246
0.98475
0.985427
0.991174
0.99784
1.00522
1.00805
1.00825
1.00751
1.00542
1.0023
0.998317
0.99316
0.990305
0.994431
1.00786
1.02058
1.02381
1.02542
1.02629
1.02209
1.00763
0.988144
0.981245
0.984793
0.989178
0.993189
1.00118
1.01648
1.03781
1.0504
1.05032
1.04409
1.03824
1.03374
1.02432
1.00662
0.993358
0.990437
0.991409
0.995142
1.00015
1.00595
1.01619
1.02213
1.02265
1.02267
1.02278
1.02232
1.01996
1.01715
1.01632
1.01754
1.02022
1.02475
1.0287
1.03019
1.03091
1.03063
1.02718
1.01899
1.00791
1.00225
1.00206
1.00247
1.00322
1.00462
1.00825
1.0156
1.02613
1.03057
1.03041
1.02938
1.0289
1.02831
1.02588
1.0214
1.01978
1.02001
1.02065
1.02167
1.02336
1.02384
1.02344
1.02208
1.01937
1.01807
1.01849
1.02016
1.02439
1.03281
1.0409
1.04321
1.04343
1.04337
1.04277
1.04091
1.03619
1.03016
0.796517
0.775555
0.742717
0.727856
0.726504
0.726437
0.728983
0.739895
0.765189
0.786539
0.788618
0.788579
0.790135
0.792391
0.794333
0.79388
0.792412
0.796793
0.803796
0.817658
0.846533
0.879613
0.895018
0.895332
0.887434
0.879051
0.865364
0.84548
0.833432
0.831318
0.833095
0.83858
0.848305
0.860099
0.868642
0.874648
0.879536
0.877551
0.872609
0.869015
0.868333
0.871021
0.87599
0.883703
0.892246
0.897978
0.900542
0.901479
0.901848
0.903573
0.904938
0.903254
0.899668
0.89838
0.901524
0.912768
0.927084
0.933386
0.934392
0.93485
0.934586
0.932307
0.924541
0.917069
0.915679
0.915513
0.91513
0.915605
0.918768
0.923384
0.926941
0.927164
0.926229
0.924441
0.919158
0.913223
0.912151
0.914556
0.921799
0.936671
0.959493
0.983683
0.996546
0.999569
1.00054
0.999646
0.996008
0.990652
0.979276
0.946629
0.893718
0.865691
0.861647
0.860375
0.858474
0.858051
0.86209
0.881548
0.931453
1.00427
1.04349
1.04934
1.05107
1.0524
1.04986
1.03518
0.993548
0.945882
0.932349
0.930383
0.929556
0.928875
0.929836
0.935558
0.951258
0.983184
1.00875
1.01324
1.01364
1.01371
1.01381
1.01347
1.01046
0.999562
0.971042
0.937797
0.928095
0.927457
0.92725
0.927575
0.928531
0.930384
0.935187
0.948812
0.980038
1.01411
1.02459
1.02636
1.02771
1.02887
1.02923
1.02636
1.01638
1.00562
1.00169
0.999669
0.99851
1.0007
1.00666
1.00851
1.00617
1.00361
0.999327
0.993955
0.989014
0.98583