/*--------------------------------*- C++ -*----------------------------------*\
  =========                 |
  \\      /  F ield         | OpenFOAM: The Open Source CFD Toolbox
   \\    /   O peration     | Website:  https://openfoam.org
    \\  /    A nd           | Version:  7
     \\/     M anipulation  |
\*---------------------------------------------------------------------------*/
FoamFile
{
    version     2.0;
    format      ascii;
    class       volScalarField;
    location    "1.5";
    object      p;
}
// * * * * * * * * * * * * * * * * * * * * * * * * * * * * * * * * * * * * * //

dimensions      [1 -1 -2 0 0 0 0];

internalField   nonuniform List<scalar> 
259072
(
1
1
1
1
1
1
1
1
1
1
1
1
1
1
1
1
1
1
1
1
1
1
1
1
1
1
1
1
1
1
1
1
1
1
1
1
1
1
1
1
1
1
1
1
1
1
1
1
1
1
1
1
1
1
1
1
1
1
1
1
1
1
1
1
1
1
1
1
1
1
1
1
1
1
1
1
1
1
1
1
1
1
1
1
1
1
1
1
1
1
1
1
1
1
1
1
1
1
1
1
1
1
1
1
1
1
1
1
1
1
1
1
1
1
1
1
1
1
1
1
1
1
1
1
1
1
1
1
1
1
1
1
1
1
1
1
1
1
1
1
1
1
1
1
4.49538
10.1147
10.4803
10.5256
10.6011
10.663
10.724
10.7813
10.836
10.8895
10.9439
10.9978
11.0503
11.1019
11.153
11.2045
11.257
11.3098
11.3607
11.4057
11.4437
11.4767
11.5093
11.5429
11.5777
11.6135
11.6495
11.6849
11.719
11.7508
11.7798
11.8064
11.8322
11.8578
11.8835
11.9089
11.9334
11.9565
11.9769
11.9953
12.013
12.0293
12.0438
12.054
12.0582
12.0596
12.0587
12.0576
1
1
1
1
1
1
1
1
1
1
1
1
1
1
1
1
1
1
1
1
1
1
1
1
1
1
1
1
1
1
1
1
1
1
1
1
1
1
1
1
1
1
1
1
1
1
1
1
1
1
1
1
1
1
1
1
1
1
1
1
1
1
1
1
1
1
1
1
1
1
1
1
1
1
1
1
1
1
1
1
1
1
1
1
1
1
1
1
1
1
1
1
1
1
1
1
1
1
1
1
1
1
1
1
1
1
1
1
1
1
1
1
1
1
1
1
1
1
1
1
1
1
1
1
1
1
1
1
1
1
1
1
1
1
1
1
1
1
1
1
1
1
1
1
4.45638
10.105
10.4787
10.528
10.5999
10.6604
10.721
10.7785
10.8336
10.887
10.9412
10.996
11.0494
11.1015
11.1528
11.2043
11.2566
11.3086
11.3586
11.4033
11.4412
11.4745
11.5075
11.5414
11.5762
11.6118
11.6478
11.683
11.7166
11.748
11.7771
11.8044
11.8308
11.8568
11.8822
11.9068
11.9304
11.9529
11.9734
11.9922
12.0103
12.0266
12.041
12.0509
12.0548
12.0562
12.0552
12.0542
1
1
1
1
1
1
1
1
1
1
1
1
1
1
1
1
1
1
1
1
1
1
1
1
1
1
1
1
1
1
1
1
1
1
1
1
1
1
1
1
1
1
1
1
1
1
1
1
1
1
1
1
1
1
1
1
1
1
1
1
1
1
1
1
1
1
1
1
1
1
1
1
1
1
1
1
1
1
1
1
1
1
1
1
1
1
1
1
1
1
1
1
1
1
1
1
1
1
1
1
1
1
1
1
1
1
1
1
1
1
1
1
1
1
1
1
1
1
1
1
1
1
1
1
1
1
1
1
1
1
1
1
1
1
1
1
1
1
1
1
1
1
1
1
4.36883
10.0995
10.4706
10.5245
10.5928
10.6538
10.7147
10.7727
10.8281
10.882
10.9366
10.9922
11.0468
11.0995
11.1511
11.2028
11.2545
11.3056
11.355
11.3994
11.4371
11.4709
11.5042
11.5382
11.5731
11.6087
11.6448
11.6797
11.7128
11.7438
11.7729
11.8008
11.8281
11.8547
11.8799
11.9035
11.9259
11.9476
11.9679
11.9873
12.0058
12.0223
12.0364
12.0459
12.0495
12.0508
12.0499
12.0489
1
1
1
1
1
1
1
1
1
1
1
1
1
1
1
1
1
1
1
1
1
1
1
1
1
1
1
1
1
1
1
1
1
1
1
1
1
1
1
1
1
1
1
1
1
1
1
1
1
1
1
1
1
1
1
1
1
1
1
1
1
1
1
1
1
1
1
1
1
1
1
1
1
1
1
1
1
1
1
1
1
1
1
1
1
1
1
1
1
1
1
1
1
1
1
1
1
1
1
1
1
1
1
1
1
1
1
1
1
1
1
1
1
1
1
1
1
1
1
1
1
1
1
1
1
1
1
1
1
1
1
1
1
1
1
1
1
1
1
1
1
1
1
1
4.25167
10.0806
10.466
10.5198
10.5855
10.647
10.7072
10.7651
10.8206
10.8749
10.9302
10.9869
11.0426
11.0959
11.1477
11.1991
11.2502
11.3003
11.3494
11.3938
11.4315
11.4659
11.4994
11.5334
11.5682
11.6038
11.6399
11.6747
11.7074
11.7379
11.7671
11.7957
11.8239
11.8509
11.8757
11.8981
11.9192
11.94
11.9601
11.98
11.999
12.0155
12.0293
12.0383
12.0414
12.0426
12.0417
12.0408
1
1
1
1
1
1
1
1
1
1
1
1
1
1
1
1
1
1
1
1
1
1
1
1
1
1
1
1
1
1
1
1
1
1
1
1
1
1
1
1
1
1
1
1
1
1
1
1
1
1
1
1
1
1
1
1
1
1
1
1
1
1
1
1
1
1
1
1
1
1
1
1
1
1
1
1
1
1
1
1
1
1
1
1
1
1
1
1
1
1
1
1
1
1
1
1
1
1
1
1
1
1
1
1
1
1
1
1
1
1
1
1
1
1
1
1
1
1
1
1
1
1
1
1
1
1
1
1
1
1
1
1
1
1
1
1
1
1
1
1
1
1
1
1
4.10315
10.0482
10.4574
10.512
10.5786
10.6404
10.7001
10.7575
10.8128
10.8672
10.9227
10.9802
11.0372
11.0911
11.1426
11.1935
11.2437
11.2929
11.3418
11.3868
11.4249
11.4599
11.4933
11.5268
11.5614
11.5969
11.6331
11.6678
11.7003
11.7306
11.7599
11.7889
11.8176
11.8448
11.8691
11.8905
11.9106
11.9307
11.9508
11.9709
11.9902
12.0066
12.02
12.0285
12.0312
12.0322
12.0314
12.0306
1
1
1
1
1
1
1
1
1
1
1
1
1
1
1
1
1
1
1
1
1
1
1
1
1
1
1
1
1
1
1
1
1
1
1
1
1
1
1
1
1
1
1
1
1
1
1
1
1
1
1
1
1
1
1
1
1
1
1
1
1
1
1
1
1
1
1
1
1
1
1
1
1
1
1
1
1
1
1
1
1
1
1
1
1
1
1
1
1
1
1
1
1
1
1
1
1
1
1
1
1
1
1
1
1
1
1
1
1
1
1
1
1
1
1
1
1
1
1
1
1
1
1
1
1
1
1
1
1
1
1
1
1
1
1
1
1
1
1
1
1
1
1
1
3.91669
9.99649
10.4468
10.5032
10.5736
10.6357
10.6949
10.7508
10.8054
10.859
10.9137
10.971
11.0288
11.0834
11.1352
11.1858
11.2354
11.284
11.3326
11.3782
11.4168
11.4524
11.4856
11.5184
11.5527
11.5879
11.6239
11.6585
11.6911
11.7215
11.7509
11.7801
11.8089
11.8358
11.8595
11.8803
11.8998
11.9197
11.9398
11.96
11.9793
11.9955
12.0085
12.0165
12.019
12.02
12.0193
12.0187
1
1
1
1
1
1
1
1
1
1
1
1
1
1
1
1
1
1
1
1
1
1
1
1
1
1
1
1
1
1
1
1
1
1
1
1
1
1
1
1
1
1
1
1
1
1
1
1
1
1
1
1
1
1
1
1
1
1
1
1
1
1
1
1
1
1
1
1
1
1
1
1
1
1
1
1
1
1
1
1
1
1
1
1
1
1
1
1
1
1
1
1
1
1
1
1
1
1
1
1
1
1
1
1
1
1
1
1
1
1
1
1
1
1
1
1
1
1
1
1
1
1
1
1
1
1
1
1
1
1
1
1
1
1
1
1
1
1
1
1
1
1
1
1
3.69437
9.91174
10.4379
10.4953
10.5691
10.6318
10.6905
10.7457
10.7991
10.8514
10.9043
10.9605
11.0184
11.0738
11.126
11.1766
11.2258
11.2737
11.3216
11.3674
11.4064
11.4427
11.476
11.5086
11.5426
11.5772
11.6129
11.6474
11.68
11.7105
11.7402
11.7694
11.7977
11.824
11.8472
11.8677
11.8872
11.9071
11.9272
11.9471
11.966
11.9818
11.9942
12.0018
12.0044
12.0055
12.0051
12.0048
1
1
1
1
1
1
1
1
1
1
1
1
1
1
1
1
1
1
1
1
1
1
1
1
1
1
1
1
1
1
1
1
1
1
1
1
1
1
1
1
1
1
1
1
1
1
1
1
1
1
1
1
1
1
1
1
1
1
1
1
1
1
1
1
1
1
1
1
1
1
1
1
1
1
1
1
1
1
1
1
1
1
1
1
1
1
1
1
1
1
1
1
1
1
1
1
1
1
1
1
1
1
1
1
1
1
1
1
1
1
1
1
1
1
1
1
1
1
1
1
1
1
1
1
1
1
1
1
1
1
1
1
1
1
1
1
1
1
1
1
1
1
1
1
3.44195
9.78682
10.4308
10.4883
10.5637
10.627
10.6856
10.7407
10.7931
10.8444
10.8956
10.9491
11.0062
11.0621
11.1152
11.1663
11.2157
11.2633
11.3101
11.3559
11.395
11.4318
11.4656
11.498
11.5316
11.5653
11.6002
11.6342
11.6668
11.6976
11.7274
11.7564
11.7839
11.8093
11.8319
11.8524
11.8721
11.8923
11.9124
11.9318
11.9501
11.9652
11.9773
11.9846
11.9875
11.9891
11.9894
11.9898
1
1
1
1
1
1
1
1
1
1
1
1
1
1
1
1
1
1
1
1
1
1
1
1
1
1
1
1
1
1
1
1
1
1
1
1
1
1
1
1
1
1
1
1
1
1
1
1
1
1
1
1
1
1
1
1
1
1
1
1
1
1
1
1
1
1
1
1
1
1
1
1
1
1
1
1
1
1
1
1
1
1
1
1
1
1
1
1
1
1
1
1
1
1
1
1
1
1
1
1
1
1
1
1
1
1
1
1
1
1
1
1
1
1
1
1
1
1
1
1
1
1
1
1
1
1
1
1
1
1
1
1
1
1
1
1
1
1
1
1
1
1
1
1
3.16457
9.6253
10.4235
10.4818
10.557
10.6202
10.679
10.7333
10.7853
10.8358
10.8858
10.9368
10.9921
11.0478
11.1015
11.1533
11.2034
11.2511
11.2971
11.3425
11.3819
11.4192
11.4534
11.4857
11.5191
11.5518
11.5858
11.6191
11.6517
11.6826
11.7123
11.7408
11.7674
11.7918
11.814
11.8346
11.8547
11.8753
11.8953
11.9142
11.9318
11.9462
11.9579
11.9653
11.9685
11.9709
11.972
11.973
1
1
1
1
1
1
1
1
1
1
1
1
1
1
1
1
1
1
1
1
1
1
1
1
1
1
1
1
1
1
1
1
1
1
1
1
1
1
1
1
1
1
1
1
1
1
1
1
1
1
1
1
1
1
1
1
1
1
1
1
1
1
1
1
1
1
1
1
1
1
1
1
1
1
1
1
1
1
1
1
1
1
1
1
1
1
1
1
1
1
1
1
1
1
1
1
1
1
1
1
1
1
1
1
1
1
1
1
1
1
1
1
1
1
1
1
1
1
1
1
1
1
1
1
1
1
1
1
1
1
1
1
1
1
1
1
1
1
1
1
1
1
1
1
2.86403
9.4322
10.4209
10.4766
10.5488
10.611
10.6695
10.7237
10.7759
10.8264
10.8756
10.9251
10.9777
11.0322
11.0857
11.1377
11.1882
11.2364
11.282
11.3273
11.3672
11.4046
11.4393
11.4713
11.5044
11.5362
11.5693
11.6021
11.6345
11.6652
11.6946
11.7223
11.748
11.7716
11.7936
11.8145
11.8351
11.8561
11.8761
11.8943
11.9111
11.9246
11.936
11.9433
11.9469
11.95
11.952
11.9535
1
1
1
1
1
1
1
1
1
1
1
1
1
1
1
1
1
1
1
1
1
1
1
1
1
1
1
1
1
1
1
1
1
1
1
1
1
1
1
1
1
1
1
1
1
1
1
1
1
1
1
1
1
1
1
1
1
1
1
1
1
1
1
1
1
1
1
1
1
1
1
1
1
1
1
1
1
1
1
1
1
1
1
1
1
1
1
1
1
1
1
1
1
1
1
1
1
1
1
1
1
1
1
1
1
1
1
1
1
1
1
1
1
1
1
1
1
1
1
1
1
1
1
1
1
1
1
1
1
1
1
1
1
1
1
1
1
1
1
1
1
1
1
1
2.5447
9.19828
10.4234
10.4742
10.541
10.6005
10.6587
10.7128
10.7651
10.8158
10.8649
10.9135
10.9638
11.0168
11.0696
11.121
11.1712
11.2196
11.2652
11.3106
11.3513
11.3888
11.4237
11.4552
11.4878
11.5187
11.5511
11.5834
11.6154
11.6456
11.6744
11.7013
11.7261
11.749
11.7709
11.7921
11.8132
11.8343
11.8542
11.8718
11.8876
11.9003
11.9113
11.9188
11.923
11.9269
11.9296
11.9315
1
1
1
1
1
1
1
1
1
1
1
1
1
1
1
1
1
1
1
1
1
1
1
1
1
1
1
1
1
1
1
1
1
1
1
1
1
1
1
1
1
1
1
1
1
1
1
1
1
1
1
1
1
1
1
1
1
1
1
1
1
1
1
1
1
1
1
1
1
1
1
1
1
1
1
1
1
1
1
1
1
1
1
1
1
1
1
1
1
1
1
1
1
1
1
1
1
1
1
1
1
1
1
1
1
1
1
1
1
1
1
1
1
1
1
1
1
1
1
1
1
1
1
1
1
1
1
1
1
1
1
1
1
1
1
1
1
1
1
1
1
1
1
1
2.22082
8.91408
10.4257
10.4716
10.5335
10.5894
10.6462
10.6998
10.7519
10.8027
10.8526
10.9013
10.9503
11.0015
11.053
11.1032
11.1525
11.2007
11.2465
11.2919
11.3337
11.3712
11.4061
11.4369
11.4689
11.4991
11.5309
11.5626
11.5939
11.6234
11.6514
11.6775
11.7018
11.7244
11.7463
11.7677
11.789
11.8101
11.8296
11.8462
11.8611
11.8729
11.8837
11.8914
11.8964
11.9011
11.9042
11.9063
1
1
1
1
1
1
1
1
1
1
1
1
1
1
1
1
1
1
1
1
1
1
1
1
1
1
1
1
1
1
1
1
1
1
1
1
1
1
1
1
1
1
1
1
1
1
1
1
1
1
1
1
1
1
1
1
1
1
1
1
1
1
1
1
1
1
1
1
1
1
1
1
1
1
1
1
1
1
1
1
1
1
1
1
1
1
1
1
1
1
1
1
1
1
1
1
1
1
1
1
1
1
1
1
1
1
1
1
1
1
1
1
1
1
1
1
1
1
1
1
1
1
1
1
1
1
1
1
1
1
1
1
1
1
1
1
1
1
1
1
1
1
1
1
1.91678
8.57431
10.4302
10.4621
10.5232
10.5763
10.6324
10.6856
10.7376
10.7889
10.8389
10.888
10.9365
10.986
11.0361
11.0849
11.133
11.1806
11.2262
11.2711
11.3137
11.3512
11.3863
11.4169
11.4483
11.4779
11.5088
11.5395
11.5697
11.5984
11.6257
11.6515
11.6755
11.6981
11.7198
11.7411
11.7621
11.7828
11.8016
11.8172
11.8312
11.8424
11.853
11.8614
11.8674
11.8727
11.8761
11.8781
1
1
1
1
1
1
1
1
1
1
1
1
1
1
1
1
1
1
1
1
1
1
1
1
1
1
1
1
1
1
1
1
1
1
1
1
1
1
1
1
1
1
1
1
1
1
1
1
1
1
1
1
1
1
1
1
1
1
1
1
1
1
1
1
1
1
1
1
1
1
1
1
1
1
1
1
1
1
1
1
1
1
1
1
1
1
1
1
1
1
1
1
1
1
1
1
1
1
1
1
1
1
1
1
1
1
1
1
1
1
1
1
1
1
1
1
1
1
1
1
1
1
1
1
1
1
1
1
1
1
1
1
1
1
1
1
1
1
1
1
1
1
1
1
1.63337
8.15748
10.4349
10.4555
10.5136
10.5638
10.6184
10.6708
10.7224
10.7732
10.8233
10.8722
10.9205
10.969
11.0179
11.0658
11.1126
11.1594
11.2045
11.2482
11.2912
11.3289
11.3643
11.395
11.4257
11.4546
11.4844
11.5137
11.5428
11.5706
11.5976
11.6234
11.6475
11.6698
11.6912
11.7119
11.7323
11.7523
11.7702
11.7849
11.7981
11.8089
11.8196
11.8287
11.8355
11.8411
11.8443
11.8459
1
1
1
1
1
1
1
1
1
1
1
1
1
1
1
1
1
1
1
1
1
1
1
1
1
1
1
1
1
1
1
1
1
1
1
1
1
1
1
1
1
1
1
1
1
1
1
1
1
1
1
1
1
1
1
1
1
1
1
1
1
1
1
1
1
1
1
1
1
1
1
1
1
1
1
1
1
1
1
1
1
1
1
1
1
1
1
1
1
1
1
1
1
1
1
1
1
1
1
1
1
1
1
1
1
1
1
1
1
1
1
1
1
1
1
1
1
1
1
1
1
1
1
1
1
1
1
1
1
1
1
1
1
1
1
1
1
1
1
1
1
1
1
1
1.3872
7.69485
10.429
10.4328
10.4955
10.545
10.5999
10.653
10.7051
10.7562
10.8067
10.8553
10.9025
10.9499
10.9979
11.0453
11.0913
11.1373
11.1816
11.2238
11.2663
11.3041
11.3397
11.3707
11.4008
11.4292
11.4578
11.4859
11.5136
11.5406
11.5672
11.593
11.6171
11.6394
11.6602
11.6801
11.6993
11.7183
11.7352
11.749
11.7614
11.772
11.7829
11.7928
11.8003
11.806
11.8088
11.81
1
1
1
1
1
1
1
1
1
1
1
1
1
1
1
1
1
1
1
1
1
1
1
1
1
1
1
1
1
1
1
1
1
1
1
1
1
1
1
1
1
1
1
1
1
1
1
1
1
1
1
1
1
1
1
1
1
1
1
1
1
1
1
1
1
1
1
1
1
1
1
1
1
1
1
1
1
1
1
1
1
1
1
1
1
1
1
1
1
1
1
1
1
1
1
1
1
1
1
1
1
1
1
1
1
1
1
1
1
1
1
1
1
1
1
1
1
1
1
1
1
1
1
1
1
1
1
1
1
1
1
1
1
1
1
1
1
1
1
1
1
1
1
1
1.1579
7.167
10.4037
10.4149
10.4772
10.5266
10.5809
10.6333
10.6848
10.7357
10.7859
10.8344
10.8814
10.9282
10.9752
11.0222
11.0678
11.1132
11.1569
11.1976
11.2388
11.2764
11.3121
11.3438
11.3736
11.4016
11.4291
11.4557
11.482
11.5081
11.5344
11.5602
11.5845
11.6065
11.6266
11.6453
11.6632
11.6808
11.6965
11.7095
11.7215
11.7319
11.743
11.7533
11.761
11.7666
11.7689
11.7696
1
1
1
1
1
1
1
1
1
1
1
1
1
1
1
1
1
1
1
1
1
1
1
1
1
1
1
1
1
1
1
1
1
1
1
1
1
1
1
1
1
1
1
1
1
1
1
1
1
1
1
1
1
1
1
1
1
1
1
1
1
1
1
1
1
1
1
1
1
1
1
1
1
1
1
1
1
1
1
1
1
1
1
1
1
1
1
1
1
1
1
1
1
1
1
1
1
1
1
1
1
1
1
1
1
1
1
1
1
1
1
1
1
1
1
1
1
1
1
1
1
1
1
1
1
1
1
1
1
1
1
1
1
1
1
1
1
1
1
1
1
1
1
1
1.00766
6.571
10.3284
10.3828
10.4477
10.5036
10.5583
10.6107
10.6633
10.7163
10.7675
10.8151
10.8601
10.9046
10.9499
10.996
11.0413
11.0859
11.1291
11.1689
11.2087
11.2462
11.2819
11.3142
11.3436
11.371
11.3973
11.4227
11.4481
11.4737
11.4997
11.5254
11.5493
11.5707
11.5898
11.6073
11.6235
11.6395
11.6538
11.6659
11.6774
11.6877
11.6988
11.7093
11.7172
11.7227
11.7246
11.7252
1
1
1
1
1
1
1
1
1
1
1
1
1
1
1
1
1
1
1
1
1
1
1
1
1
1
1
1
1
1
1
1
1
1
1
1
1
1
1
1
1
1
1
1
1
1
1
1
1
1
1
1
1
1
1
1
1
1
1
1
1
1
1
1
1
1
1
1
1
1
1
1
1
1
1
1
1
1
1
1
1
1
1
1
1
1
1
1
1
1
1
1
1
1
1
1
1
1
1
1
1
1
1
1
1
1
1
1
1
1
1
1
1
1
1
1
1
1
1
1
1
1
1
1
1
1
1
1
1
1
1
1
1
1
1
1
1
1
1
1
1
1
1
1
1.00005
5.88412
10.2073
10.3429
10.4164
10.481
10.5385
10.591
10.6413
10.6918
10.7414
10.7886
10.8334
10.8772
10.9211
10.966
11.0108
11.0548
11.0978
11.1376
11.1761
11.2134
11.2487
11.2814
11.3103
11.3372
11.3626
11.3873
11.4121
11.4373
11.4629
11.4879
11.5111
11.5316
11.5497
11.5657
11.5802
11.5944
11.6072
11.6184
11.6293
11.6394
11.6504
11.6607
11.6682
11.6735
11.6751
11.6757
1
1
1
1
1
1
1
1
1
1
1
1
1
1
1
1
1
1
1
1
1
1
1
1
1
1
1
1
1
1
1
1
1
1
1
1
1
1
1
1
1
1
1
1
1
1
1
1
1
1
1
1
1
1
1
1
1
1
1
1
1
1
1
1
1
1
1
1
1
1
1
1
1
1
1
1
1
1
1
1
1
1
1
1
1
1
1
1
1
1
1
1
1
1
1
1
1
1
1
1
1
1
1
1
1
1
1
1
1
1
1
1
1
1
1
1
1
1
1
1
1
1
1
1
1
1
1
1
1
1
1
1
1
1
1
1
1
1
1
1
1
1
1
1
1
5.11105
10.0724
10.3195
10.3912
10.4575
10.5156
10.5695
10.6216
10.6727
10.7223
10.7686
10.8116
10.853
10.8943
10.9363
10.9791
11.0211
11.063
11.1029
11.1403
11.1775
11.2122
11.2453
11.2739
11.3003
11.3249
11.3491
11.3734
11.3983
11.4235
11.4477
11.4698
11.489
11.5059
11.5203
11.5327
11.5446
11.556
11.5662
11.5764
11.586
11.5965
11.6064
11.6134
11.6186
11.6204
11.6214
1
1
1
1
1
1
1
1
1
1
1
1
1
1
1
1
1
1
1
1
1
1
1
1
1
1
1
1
1
1
1
1
1
1
1
1
1
1
1
1
1
1
1
1
1
1
1
1
1
1
1
1
1
1
1
1
1
1
1
1
1
1
1
1
1
1
1
1
1
1
1
1
1
1
1
1
1
1
1
1
1
1
1
1
1
1
1
1
1
1
1
1
1
1
1
1
1
1
1
1
1
1
1
1
1
1
1
1
1
1
1
1
1
1
1
1
1
1
1
1
1
1
1
1
1
1
1
1
1
1
1
1
1
1
1
1
1
1
1
1
1
1
1
1
1
4.30662
9.8915
10.2979
10.3727
10.4403
10.4965
10.5487
10.5973
10.6472
10.6973
10.7446
10.7882
10.829
10.8686
10.908
10.9477
10.9869
11.0272
11.0663
11.103
11.1396
11.1732
11.2059
11.2343
11.2603
11.2843
11.3081
11.3321
11.3568
11.3813
11.4044
11.4249
11.4426
11.4579
11.4703
11.4807
11.4903
11.5004
11.5096
11.519
11.5279
11.5374
11.5461
11.5522
11.5571
11.5588
11.5603
1
1
1
1
1
1
1
1
1
1
1
1
1
1
1
1
1
1
1
1
1
1
1
1
1
1
1
1
1
1
1
1
1
1
1
1
1
1
1
1
1
1
1
1
1
1
1
1
1
1
1
1
1
1
1
1
1
1
1
1
1
1
1
1
1
1
1
1
1
1
1
1
1
1
1
1
1
1
1
1
1
1
1
1
1
1
1
1
1
1
1
1
1
1
1
1
1
1
1
1
1
1
1
1
1
1
1
1
1
1
1
1
1
1
1
1
1
1
1
1
1
1
1
1
1
1
1
1
1
1
1
1
1
1
1
1
1
1
1
1
1
1
1
1
1
3.50427
9.60293
10.2958
10.3663
10.4294
10.4814
10.5311
10.5797
10.6285
10.6761
10.7211
10.7622
10.8012
10.8396
10.878
10.9166
10.9543
10.9915
11.0297
11.0639
11.099
11.1314
11.1635
11.1919
11.2175
11.241
11.2643
11.2878
11.3119
11.3355
11.3572
11.376
11.392
11.4055
11.4156
11.4239
11.4314
11.4393
11.4473
11.4553
11.463
11.471
11.4785
11.4837
11.4884
11.4904
11.4927
1
1
1
1
1
1
1
1
1
1
1
1
1
1
1
1
1
1
1
1
1
1
1
1
1
1
1
1
1
1
1
1
1
1
1
1
1
1
1
1
1
1
1
1
1
1
1
1
1
1
1
1
1
1
1
1
1
1
1
1
1
1
1
1
1
1
1
1
1
1
1
1
1
1
1
1
1
1
1
1
1
1
1
1
1
1
1
1
1
1
1
1
1
1
1
1
1
1
1
1
1
1
1
1
1
1
1
1
1
1
1
1
1
1
1
1
1
1
1
1
1
1
1
1
1
1
1
1
1
1
1
1
1
1
1
1
1
1
1
1
1
1
1
1
1
2.76389
9.19515
10.3239
10.3606
10.4151
10.4611
10.5083
10.5568
10.6066
10.6549
10.6996
10.7399
10.7763
10.8111
10.8468
10.8832
10.9195
10.9547
10.9902
11.0255
11.0575
11.0881
11.1184
11.1469
11.1722
11.1951
11.2175
11.2402
11.2633
11.2857
11.306
11.323
11.3371
11.3481
11.3559
11.362
11.3674
11.373
11.3797
11.3862
11.3924
11.3984
11.4037
11.407
11.4106
11.4123
11.4146
1
1
1
1
1
1
1
1
1
1
1
1
1
1
1
1
1
1
1
1
1
1
1
1
1
1
1
1
1
1
1
1
1
1
1
1
1
1
1
1
1
1
1
1
1
1
1
1
1
1
1
1
1
1
1
1
1
1
1
1
1
1
1
1
1
1
1
1
1
1
1
1
1
1
1
1
1
1
1
1
1
1
1
1
1
1
1
1
1
1
1
1
1
1
1
1
1
1
1
1
1
1
1
1
1
1
1
1
1
1
1
1
1
1
1
1
1
1
1
1
1
1
1
1
1
1
1
1
1
1
1
1
1
1
1
1
1
1
1
1
1
1
1
1
1
2.0734
8.62572
10.3679
10.372
10.4198
10.4576
10.4964
10.5405
10.5869
10.6321
10.6747
10.7141
10.7502
10.7843
10.8179
10.8523
10.886
10.9186
10.9504
10.9836
11.0152
11.0439
11.0723
11.0994
11.1242
11.1464
11.1677
11.1891
11.2108
11.2316
11.2501
11.2651
11.2771
11.2855
11.291
11.2951
11.2977
11.3007
11.3053
11.3093
11.3127
11.3161
11.319
11.3206
11.3234
11.3249
11.3275
1
1
1
1
1
1
1
1
1
1
1
1
1
1
1
1
1
1
1
1
1
1
1
1
1
1
1
1
1
1
1
1
1
1
1
1
1
1
1
1
1
1
1
1
1
1
1
1
1
1
1
1
1
1
1
1
1
1
1
1
1
1
1
1
1
1
1
1
1
1
1
1
1
1
1
1
1
1
1
1
1
1
1
1
1
1
1
1
1
1
1
1
1
1
1
1
1
1
1
1
1
1
1
1
1
1
1
1
1
1
1
1
1
1
1
1
1
1
1
1
1
1
1
1
1
1
1
1
1
1
1
1
1
1
1
1
1
1
1
1
1
1
1
1
1
1.47184
7.95133
10.441
10.3555
10.3879
10.4232
10.4651
10.5113
10.5586
10.6055
10.6497
10.6885
10.7229
10.7551
10.7869
10.8199
10.8529
10.8841
10.9136
10.9433
10.9727
10.9994
11.024
11.0502
11.074
11.0948
11.1146
11.1343
11.1539
11.1728
11.1894
11.2024
11.2122
11.2179
11.2209
11.2224
11.2221
11.2226
11.2241
11.2254
11.2259
11.2261
11.2249
11.2236
11.2234
11.2231
11.2245
1
1
1
1
1
1
1
1
1
1
1
1
1
1
1
1
1
1
1
1
1
1
1
1
1
1
1
1
1
1
1
1
1
1
1
1
1
1
1
1
1
1
1
1
1
1
1
1
1
1
1
1
1
1
1
1
1
1
1
1
1
1
1
1
1
1
1
1
1
1
1
1
1
1
1
1
1
1
1
1
1
1
1
1
1
1
1
1
1
1
1
1
1
1
1
1
1
1
1
1
1
1
1
1
1
1
1
1
1
1
1
1
1
1
1
1
1
1
1
1
1
1
1
1
1
1
1
1
1
1
1
1
1
1
1
1
1
1
1
1
1
1
1
1
1
1.08394
7.17727
10.3495
10.3091
10.353
10.3944
10.4354
10.477
10.5239
10.5741
10.6203
10.6594
10.6935
10.7248
10.7552
10.7861
10.8178
10.8483
10.8765
10.9044
10.9317
10.956
10.9779
10.9992
11.0215
11.041
11.0583
11.0755
11.0926
11.109
11.1235
11.1343
11.1419
11.1448
11.1451
11.1437
11.1404
11.1375
11.1347
11.1316
11.1273
11.1221
11.1164
11.112
11.1095
11.108
11.1092
1
1
1
1
1
1
1
1
1
1
1
1
1
1
1
1
1
1
1
1
1
1
1
1
1
1
1
1
1
1
1
1
1
1
1
1
1
1
1
1
1
1
1
1
1
1
1
1
1
1
1
1
1
1
1
1
1
1
1
1
1
1
1
1
1
1
1
1
1
1
1
1
1
1
1
1
1
1
1
1
1
1
1
1
1
1
1
1
1
1
1
1
1
1
1
1
1
1
1
1
1
1
1
1
1
1
1
1
1
1
1
1
1
1
1
1
1
1
1
1
1
1
1
1
1
1
1
1
1
1
1
1
1
1
1
1
1
1
1
1
1
1
1
1
1
1.00169
6.16335
10.1368
10.2198
10.2923
10.3504
10.4022
10.4494
10.4929
10.5365
10.5806
10.6232
10.66
10.6917
10.7213
10.751
10.7814
10.8114
10.8389
10.8648
10.8899
10.9124
10.932
10.9505
10.9687
10.9852
10.9997
11.0136
11.0275
11.0409
11.0528
11.0611
11.0664
11.0663
11.0636
11.0589
11.052
11.0449
11.037
11.0286
11.0189
11.0081
10.997
10.9862
10.9774
10.9708
10.9681
1
1
1
1
1
1
1
1
1
1
1
1
1
1
1
1
1
1
1
1
1
1
1
1
1
1
1
1
1
1
1
1
1
1
1
1
1
1
1
1
1
1
1
1
1
1
1
1
1
1
1
1
1
1
1
1
1
1
1
1
1
1
1
1
1
1
1
1
1
1
1
1
1
1
1
1
1
1
1
1
1
1
1
1
1
1
1
1
1
1
1
1
1
1
1
1
1
1
1
1
1
1
1
1
1
1
1
1
1
1
1
1
1
1
1
1
1
1
1
1
1
1
1
1
1
1
1
1
1
1
1
1
1
1
1
1
1
1
1
1
1
1
1
1
1
1
5.1322
9.98077
10.1544
10.2521
10.3254
10.3805
10.4257
10.4671
10.5101
10.553
10.5888
10.624
10.6562
10.6854
10.7139
10.7429
10.7721
10.7992
10.8241
10.8471
10.8674
10.885
10.9008
10.916
10.9294
10.94
10.9495
10.9594
10.9691
10.9776
10.9832
10.9856
10.9821
10.9759
10.9672
10.9561
10.9438
10.9296
10.914
10.8956
10.8752
10.8544
10.8354
10.8212
10.8115
10.8085
1
1
1
1
1
1
1
1
1
1
1
1
1
1
1
1
1
1
1
1
1
1
1
1
1
1
1
1
1
1
1
1
1
1
1
1
1
1
1
1
1
1
1
1
1
1
1
1
1
1
1
1
1
1
1
1
1
1
1
1
1
1
1
1
1
1
1
1
1
1
1
1
1
1
1
1
1
1
1
1
1
1
1
1
1
1
1
1
1
1
1
1
1
1
1
1
1
1
1
1
1
1
1
1
1
1
1
1
1
1
1
1
1
1
1
1
1
1
1
1
1
1
1
1
1
1
1
1
1
1
1
1
1
1
1
1
1
1
1
1
1
1
1
1
1
1
4.0659
9.61429
10.1217
10.225
10.2996
10.3503
10.395
10.4348
10.4738
10.5154
10.5551
10.5881
10.6174
10.6441
10.6731
10.7015
10.73
10.7568
10.781
10.8021
10.8206
10.8364
10.8498
10.8618
10.8722
10.8794
10.8845
10.8897
10.8949
10.8993
10.9017
10.9001
10.8926
10.8822
10.8689
10.8525
10.8338
10.8117
10.7868
10.7586
10.7284
10.698
10.6681
10.6392
10.615
10.5992
1
1
1
1
1
1
1
1
1
1
1
1
1
1
1
1
1
1
1
1
1
1
1
1
1
1
1
1
1
1
1
1
1
1
1
1
1
1
1
1
1
1
1
1
1
1
1
1
1
1
1
1
1
1
1
1
1
1
1
1
1
1
1
1
1
1
1
1
1
1
1
1
1
1
1
1
1
1
1
1
1
1
1
1
1
1
1
1
1
1
1
1
1
1
1
1
1
1
1
1
1
1
1
1
1
1
1
1
1
1
1
1
1
1
1
1
1
1
1
1
1
1
1
1
1
1
1
1
1
1
1
1
1
1
1
1
1
1
1
1
1
1
1
1
1
1
3.06088
9.12479
10.0926
10.1985
10.2871
10.3444
10.3819
10.4125
10.4438
10.4806
10.518
10.5503
10.5783
10.6056
10.6297
10.6567
10.6846
10.711
10.7346
10.7543
10.771
10.7853
10.7967
10.8059
10.813
10.817
10.8184
10.8187
10.819
10.8186
10.8168
10.81
10.7982
10.7827
10.7636
10.7408
10.7141
10.6826
10.6467
10.6054
10.5586
10.5072
10.4541
10.4059
10.3683
10.3545
1
1
1
1
1
1
1
1
1
1
1
1
1
1
1
1
1
1
1
1
1
1
1
1
1
1
1
1
1
1
1
1
1
1
1
1
1
1
1
1
1
1
1
1
1
1
1
1
1
1
1
1
1
1
1
1
1
1
1
1
1
1
1
1
1
1
1
1
1
1
1
1
1
1
1
1
1
1
1
1
1
1
1
1
1
1
1
1
1
1
1
1
1
1
1
1
1
1
1
1
1
1
1
1
1
1
1
1
1
1
1
1
1
1
1
1
1
1
1
1
1
1
1
1
1
1
1
1
1
1
1
1
1
1
1
1
1
1
1
1
1
1
1
1
1
1
2.05407
8.39711
10.2511
10.2265
10.2779
10.3103
10.3432
10.3788
10.4139
10.4496
10.4845
10.516
10.5409
10.5628
10.5868
10.6118
10.6363
10.6612
10.6838
10.7025
10.7181
10.7311
10.7409
10.7476
10.7519
10.7527
10.7506
10.7466
10.7419
10.7363
10.7288
10.717
10.6997
10.6781
10.6521
10.6215
10.585
10.5422
10.492
10.4336
10.3669
10.2948
10.2194
10.1438
10.0615
9.9907
1
1
1
1
1
1
1
1
1
1
1
1
1
1
1
1
1
1
1
1
1
1
1
1
1
1
1
1
1
1
1
1
1
1
1
1
1
1
1
1
1
1
1
1
1
1
1
1
1
1
1
1
1
1
1
1
1
1
1
1
1
1
1
1
1
1
1
1
1
1
1
1
1
1
1
1
1
1
1
1
1
1
1
1
1
1
1
1
1
1
1
1
1
1
1
1
1
1
1
1
1
1
1
1
1
1
1
1
1
1
1
1
1
1
1
1
1
1
1
1
1
1
1
1
1
1
1
1
1
1
1
1
1
1
1
1
1
1
1
1
1
1
1
1
1
1
1.23471
7.54791
10.3521
10.2328
10.2256
10.2624
10.3057
10.3463
10.3808
10.4145
10.4482
10.4795
10.5051
10.5253
10.5442
10.5649
10.5876
10.6095
10.6299
10.6474
10.662
10.6739
10.6821
10.6868
10.6884
10.6865
10.6811
10.673
10.663
10.6518
10.638
10.6208
10.5973
10.5687
10.5346
10.4945
10.4468
10.3904
10.3238
10.2458
10.154
10.0459
9.91375
9.75787
9.60581
9.49978
1
1
1
1
1
1
1
1
1
1
1
1
1
1
1
1
1
1
1
1
1
1
1
1
1
1
1
1
1
1
1
1
1
1
1
1
1
1
1
1
1
1
1
1
1
1
1
1
1
1
1
1
1
1
1
1
1
1
1
1
1
1
1
1
1
1
1
1
1
1
1
1
1
1
1
1
1
1
1
1
1
1
1
1
1
1
1
1
1
1
1
1
1
1
1
1
1
1
1
1
1
1
1
1
1
1
1
1
1
1
1
1
1
1
1
1
1
1
1
1
1
1
1
1
1
1
1
1
1
1
1
1
1
1
1
1
1
1
1
1
1
1
1
1
1
1
1.00667
6.46783
10.12
10.0951
10.1837
10.2332
10.2715
10.3126
10.3461
10.3785
10.4106
10.4401
10.466
10.4869
10.5043
10.5216
10.5396
10.5579
10.5753
10.5907
10.6035
10.6139
10.6201
10.6231
10.6223
10.6178
10.6098
10.5977
10.5827
10.5657
10.5455
10.5219
10.4918
10.4556
10.4123
10.3614
10.3008
10.229
10.1434
10.0409
9.9153
9.76091
9.57289
9.34699
9.10474
8.96971
1
1
1
1
1
1
1
1
1
1
1
1
1
1
1
1
1
1
1
1
1
1
1
1
1
1
1
1
1
1
1
1
1
1
1
1
1
1
1
1
1
1
1
1
1
1
1
1
1
1
1
1
1
1
1
1
1
1
1
1
1
1
1
1
1
1
1
1
1
1
1
1
1
1
1
1
1
1
1
1
1
1
1
1
1
1
1
1
1
1
1
1
1
1
1
1
1
1
1
1
1
1
1
1
1
1
1
1
1
1
1
1
1
1
1
1
1
1
1
1
1
1
1
1
1
1
1
1
1
1
1
1
1
1
1
1
1
1
1
1
1
1
1
1
1
1
0.999988
5.11306
9.77238
10.044
10.1511
10.1979
10.2354
10.2712
10.304
10.3369
10.3688
10.398
10.4244
10.4461
10.4628
10.4777
10.4933
10.5082
10.5213
10.5336
10.544
10.5524
10.5558
10.5566
10.5535
10.5465
10.5359
10.5203
10.5007
10.4778
10.451
10.4203
10.3829
10.3386
10.2856
10.2231
10.1486
10.0598
9.95308
9.82356
9.66296
9.46121
9.19039
8.79343
8.03288
6.77503
1
1
1
1
1
1
1
1
1
1
1
1
1
1
1
1
1
1
1
1
1
1
1
1
1
1
1
1
1
1
1
1
1
1
1
1
1
1
1
1
1
1
1
1
1
1
1
1
1
1
1
1
1
1
1
1
1
1
1
1
1
1
1
1
1
1
1
1
1
1
1
1
1
1
1
1
1
1
1
1
1
1
1
1
1
1
1
1
1
1
1
1
1
1
1
1
1
1
1
1
1
1
1
1
1
1
1
1
1
1
1
1
1
1
1
1
1
1
1
1
1
1
1
1
1
1
1
1
1
1
1
1
1
1
1
1
1
1
1
1
1
1
1
1
1
1
0.999997
3.86996
9.41417
10.0326
10.1133
10.172
10.2153
10.2362
10.2618
10.2927
10.3241
10.3537
10.3805
10.403
10.42
10.4332
10.4463
10.4588
10.4684
10.4764
10.4841
10.4897
10.4903
10.4882
10.4824
10.4726
10.4591
10.4406
10.417
10.3885
10.3551
10.3168
10.2718
10.2189
10.1559
10.0814
9.99244
9.88602
9.75721
9.59993
9.40135
9.14462
8.78718
8.27042
7.52457
6.42146
1
1
1
1
1
1
1
1
1
1
1
1
1
1
1
1
1
1
1
1
1
1
1
1
1
1
1
1
1
1
1
1
1
1
1
1
1
1
1
1
1
1
1
1
1
1
1
1
1
1
1
1
1
1
1
1
1
1
1
1
1
1
1
1
1
1
1
1
1
1
1
1
1
1
1
1
1
1
1
1
1
1
1
1
1
1
1
1
1
1
1
1
1
1
1
1
1
1
1
1
1
1
1
1
1
1
1
1
1
1
1
1
1
1
1
1
1
1
1
1
1
1
1
1
1
1
1
1
1
1
1
1
1
1
1
1
1
1
1
1
1
1
1
1
1
1
0.999999
2.62844
8.72592
10.0826
10.1115
10.1475
10.1781
10.2038
10.2285
10.2539
10.2817
10.3098
10.3363
10.3588
10.3759
10.3881
10.3988
10.4086
10.4155
10.42
10.4239
10.4265
10.4247
10.419
10.4099
10.3969
10.38
10.3584
10.331
10.2976
10.2579
10.212
10.1587
10.0967
10.0236
9.93754
9.83442
9.71093
9.5607
9.37688
9.14461
8.843
8.43781
7.86306
7.14387
6.07757
1
1
1
1
1
1
1
1
1
1
1
1
1
1
1
1
1
1
1
1
1
1
1
1
1
1
1
1
1
1
1
1
1
1
1
1
1
1
1
1
1
1
1
1
1
1
1
1
1
1
1
1
1
1
1
1
1
1
1
1
1
1
1
1
1
1
1
1
1
1
1
1
1
1
1
1
1
1
1
1
1
1
1
1
1
1
1
1
1
1
1
1
1
1
1
1
1
1
1
1
1
1
1
1
1
1
1
1
1
1
1
1
1
1
1
1
1
1
1
1
1
1
1
1
1
1
1
1
1
1
1
1
1
1
1
1
1
1
1
1
1
1
1
1
1
1
1
1.54975
7.97544
10.2009
10.0839
10.0922
10.1294
10.1655
10.1938
10.2184
10.2425
10.2672
10.2915
10.3129
10.3299
10.3417
10.3506
10.3571
10.3615
10.363
10.3636
10.3631
10.3587
10.3496
10.337
10.3203
10.2994
10.2741
10.243
10.2052
10.1597
10.1064
10.0448
9.97366
9.89062
9.79339
9.67719
9.53803
9.36882
9.16182
8.90395
8.57302
8.14562
7.57787
6.87545
6.01247
1
1
1
1
1
1
1
1
1
1
1
1
1
1
1
1
1
1
1
1
1
1
1
1
1
1
1
1
1
1
1
1
1
1
1
1
1
1
1
1
1
1
1
1
1
1
1
1
1
1
1
1
1
1
1
1
1
1
1
1
1
1
1
1
1
1
1
1
1
1
1
1
1
1
1
1
1
1
1
1
1
1
1
1
1
1
1
1
1
1
1
1
1
1
1
1
1
1
1
1
1
1
1
1
1
1
1
1
1
1
1
1
1
1
1
1
1
1
1
1
1
1
1
1
1
1
1
1
1
1
1
1
1
1
1
1
1
1
1
1
1
1
1
1
1
1
1
1.03631
6.77978
10.0619
10.0128
10.0469
10.0861
10.1277
10.1576
10.1819
10.2046
10.2271
10.2489
10.2686
10.2845
10.2953
10.3021
10.3053
10.3066
10.3056
10.3031
10.2993
10.2921
10.2798
10.2635
10.243
10.2179
10.1884
10.1532
10.1111
10.0604
10.0006
9.93087
9.85094
9.75829
9.65032
9.52261
9.37006
9.18584
8.96114
8.68607
8.34113
7.90972
7.37058
6.73693
6.09555
1
1
1
1
1
1
1
1
1
1
1
1
1
1
1
1
1
1
1
1
1
1
1
1
1
1
1
1
1
1
1
1
1
1
1
1
1
1
1
1
1
1
1
1
1
1
1
1
1
1
1
1
1
1
1
1
1
1
1
1
1
1
1
1
1
1
1
1
1
1
1
1
1
1
1
1
1
1
1
1
1
1
1
1
1
1
1
1
1
1
1
1
1
1
1
1
1
1
1
1
1
1
1
1
1
1
1
1
1
1
1
1
1
1
1
1
1
1
1
1
1
1
1
1
1
1
1
1
1
1
1
1
1
1
1
1
1
1
1
1
1
1
1
1
1
1
1
1.00007
5.21443
9.65137
9.91844
10.0044
10.0546
10.0886
10.1178
10.1418
10.1633
10.1842
10.2045
10.2227
10.2372
10.2476
10.2527
10.2532
10.2511
10.2474
10.2422
10.2351
10.2249
10.21
10.1899
10.1658
10.1368
10.1028
10.0629
10.0162
9.96053
9.89476
9.81779
9.72957
9.62813
9.51045
9.37275
9.2093
9.01426
8.77822
8.49388
8.14784
7.7299
7.23895
6.70162
6.20584
1
1
1
1
1
1
1
1
1
1
1
1
1
1
1
1
1
1
1
1
1
1
1
1
1
1
1
1
1
1
1
1
1
1
1
1
1
1
1
1
1
1
1
1
1
1
1
1
1
1
1
1
1
1
1
1
1
1
1
1
1
1
1
1
1
1
1
1
1
1
1
1
1
1
1
1
1
1
1
1
1
1
1
1
1
1
1
1
1
1
1
1
1
1
1
1
1
1
1
1
1
1
1
1
1
1
1
1
1
1
1
1
1
1
1
1
1
1
1
1
1
1
1
1
1
1
1
1
1
1
1
1
1
1
1
1
1
1
1
1
1
1
1
1
1
1
1
0.999999
3.75366
9.27489
9.91397
9.98004
10.0339
10.061
10.0799
10.0996
10.1195
10.1391
10.1581
10.1752
10.1886
10.1982
10.2022
10.2004
10.1951
10.1883
10.1804
10.1703
10.1572
10.1393
10.1158
10.0876
10.0549
10.0169
9.97259
9.92101
9.86048
9.78945
9.70635
9.61085
9.50158
9.37558
9.22947
9.05769
8.85549
8.61447
8.32866
7.99035
7.59702
7.15873
6.70712
6.29215
1
1
1
1
1
1
1
1
1
1
1
1
1
1
1
1
1
1
1
1
1
1
1
1
1
1
1
1
1
1
1
1
1
1
1
1
1
1
1
1
1
1
1
1
1
1
1
1
1
1
1
1
1
1
1
1
1
1
1
1
1
1
1
1
1
1
1
1
1
1
1
1
1
1
1
1
1
1
1
1
1
1
1
1
1
1
1
1
1
1
1
1
1
1
1
1
1
1
1
1
1
1
1
1
1
1
1
1
1
1
1
1
1
1
1
1
1
1
1
1
1
1
1
1
1
1
1
1
1
1
1
1
1
1
1
1
1
1
1
1
1
1
1
1
1
1
1
1
2.32667
8.50263
9.98955
9.97015
9.99559
10.0218
10.0452
10.0639
10.0808
10.0974
10.1136
10.1287
10.1407
10.1491
10.1522
10.1483
10.1401
10.13
10.1188
10.1058
10.0896
10.0688
10.0421
10.0102
9.9735
9.9319
9.88342
9.82712
9.76152
9.68539
9.59694
9.49522
9.3791
9.24624
9.09362
8.91632
8.71013
8.46873
8.18753
7.864
7.49853
7.10629
6.71772
6.34577
1
1
1
1
1
1
1
1
1
1
1
1
1
1
1
1
1
1
1
1
1
1
1
1
1
1
1
1
1
1
1
1
1
1
1
1
1
1
1
1
1
1
1
1
1
1
1
1
1
1
1
1
1
1
1
1
1
1
1
1
1
1
1
1
1
1
1
1
1
1
1
1
1
1
1
1
1
1
1
1
1
1
1
1
1
1
1
1
1
1
1
1
1
1
1
1
1
1
1
1
1
1
1
1
1
1
1
1
1
1
1
1
1
1
1
1
1
1
1
1
1
1
1
1
1
1
1
1
1
1
1
1
1
1
1
1
1
1
1
1
1
1
1
1
1
1
1
1
1.21676
7.46322
10.1032
9.98368
9.95701
9.9787
10.0061
10.0246
10.0401
10.0544
10.0681
10.0809
10.0911
10.0984
10.1005
10.0952
10.0847
10.0713
10.0566
10.0403
10.0214
9.998
9.96858
9.93322
9.89243
9.84662
9.79426
9.73391
9.66392
9.58323
9.49034
9.38371
9.26209
9.12373
8.96628
8.78579
8.57853
8.34005
8.0675
7.7607
7.42442
7.07055
6.72353
6.3894
1
1
1
1
1
1
1
1
1
1
1
1
1
1
1
1
1
1
1
1
1
1
1
1
1
1
1
1
1
1
1
1
1
1
1
1
1
1
1
1
1
1
1
1
1
1
1
1
1
1
1
1
1
1
1
1
1
1
1
1
1
1
1
1
1
1
1
1
1
1
1
1
1
1
1
1
1
1
1
1
1
1
1
1
1
1
1
1
1
1
1
1
1
1
1
1
1
1
1
1
1
1
1
1
1
1
1
1
1
1
1
1
1
1
1
1
1
1
1
1
1
1
1
1
1
1
1
1
1
1
1
1
1
1
1
1
1
1
1
1
1
1
1
1
1
1
1
1
1.00484
5.99612
9.71867
9.80496
9.88088
9.92449
9.95821
9.97965
9.99633
10.0101
10.0222
10.033
10.0417
10.048
10.049
10.0431
10.031
10.0144
9.99577
9.9757
9.95358
9.9277
9.89592
9.85747
9.81286
9.76276
9.70632
9.6421
9.56858
9.48409
9.38718
9.27651
9.15056
9.00793
8.84713
8.66534
8.45952
8.22639
7.96471
7.67566
7.3652
7.04892
6.73124
6.44686
1
1
1
1
1
1
1
1
1
1
1
1
1
1
1
1
1
1
1
1
1
1
1
1
1
1
1
1
1
1
1
1
1
1
1
1
1
1
1
1
1
1
1
1
1
1
1
1
1
1
1
1
1
1
1
1
1
1
1
1
1
1
1
1
1
1
1
1
1
1
1
1
1
1
1
1
1
1
1
1
1
1
1
1
1
1
1
1
1
1
1
1
1
1
1
1
1
1
1
1
1
1
1
1
1
1
1
1
1
1
1
1
1
1
1
1
1
1
1
1
1
1
1
1
1
1
1
1
1
1
1
1
1
1
1
1
1
1
1
1
1
1
1
1
1
1
1
1
0.999964
4.28632
9.30685
9.77748
9.86386
9.90696
9.92661
9.94157
9.95547
9.9671
9.97701
9.98523
9.9919
9.99632
9.99626
9.98968
9.97664
9.95745
9.93505
9.91098
9.88547
9.85711
9.82352
9.78285
9.73508
9.68081
9.61989
9.55142
9.47437
9.38728
9.28788
9.17422
9.04539
8.89993
8.73704
8.55514
8.35228
8.12591
7.87637
7.60491
7.31832
7.0341
6.75105
6.51033
1
1
1
1
1
1
1
1
1
1
1
1
1
1
1
1
1
1
1
1
1
1
1
1
1
1
1
1
1
1
1
1
1
1
1
1
1
1
1
1
1
1
1
1
1
1
1
1
1
1
1
1
1
1
1
1
1
1
1
1
1
1
1
1
1
1
1
1
1
1
1
1
1
1
1
1
1
1
1
1
1
1
1
1
1
1
1
1
1
1
1
1
1
1
1
1
1
1
1
1
1
1
1
1
1
1
1
1
1
1
1
1
1
1
1
1
1
1
1
1
1
1
1
1
1
1
1
1
1
1
1
1
1
1
1
1
1
1
1
1
1
1
1
1
1
1
1
1
0.999991
2.60768
8.64494
9.85616
9.86254
9.87495
9.88819
9.90379
9.91535
9.92465
9.93247
9.93849
9.94288
9.94518
9.94383
9.93674
9.92309
9.90224
9.87641
9.84825
9.81878
9.78752
9.75174
9.70913
9.65875
9.60083
9.53571
9.4633
9.38291
9.29301
9.19211
9.07696
8.94617
8.79911
8.63544
8.4544
8.25549
8.03677
7.79993
7.54672
7.28259
7.02489
6.77632
6.56111
1
1
1
1
1
1
1
1
1
1
1
1
1
1
1
1
1
1
1
1
1
1
1
1
1
1
1
1
1
1
1
1
1
1
1
1
1
1
1
1
1
1
1
1
1
1
1
1
1
1
1
1
1
1
1
1
1
1
1
1
1
1
1
1
1
1
1
1
1
1
1
1
1
1
1
1
1
1
1
1
1
1
1
1
1
1
1
1
1
1
1
1
1
1
1
1
1
1
1
1
1
1
1
1
1
1
1
1
1
1
1
1
1
1
1
1
1
1
1
1
1
1
1
1
1
1
1
1
1
1
1
1
1
1
1
1
1
1
1
1
1
1
1
1
1
1
1
1
0.999999
1.30465