/*--------------------------------*- C++ -*----------------------------------*\
  =========                 |
  \\      /  F ield         | OpenFOAM: The Open Source CFD Toolbox
   \\    /   O peration     | Website:  https://openfoam.org
    \\  /    A nd           | Version:  7
     \\/     M anipulation  |
\*---------------------------------------------------------------------------*/
FoamFile
{
    version     2.0;
    format      ascii;
    class       volScalarField;
    location    "1.9";
    object      p;
}
// * * * * * * * * * * * * * * * * * * * * * * * * * * * * * * * * * * * * * //

dimensions      [1 -1 -2 0 0 0 0];

internalField   nonuniform List<scalar> 
16512
(
2.18509
2.17534
2.17403
2.1796
2.20201
2.37689
2.91659
3.59276
4.1285
4.19872
4.17763
4.09694
4.03296
4.0242
4.03466
4.04342
4.03788
4.02981
3.9992
3.93611
3.87752
3.8496
3.83912
3.83875
3.84102
3.8391
3.82704
3.78379
3.69611
3.62397
3.60368
3.59596
3.59228
3.59843
3.60714
3.60549
3.6001
3.59204
3.57066
3.5218
3.47276
3.44485
3.42658
3.40792
3.38272
3.34432
3.29468
3.25898
3.25131
3.24931
3.2588
3.27658
3.27794
3.27165
3.25426
3.20828
3.14488
3.10642
3.09533
3.0885
3.0817
3.07621
3.06952
3.05855
3.03439
2.98147
2.92038
2.89767
2.89466
2.90315
2.92992
2.93433
2.92568
2.91531
2.89923
2.86357
2.79184
2.71035
2.68293
2.69416
2.80937
3.28048
4.21151
5.236
6.00186
6.14516
6.03967
5.82216
5.70837
5.70662
5.79433
5.93324
5.97098
5.94933
5.90208
5.79529
5.65699
5.55574
5.49104
5.4569
5.42976
5.40273
5.37946
5.35966
5.34891
5.35273
5.34758
5.32534
5.2893
5.21341
5.09428
4.99321
4.95152
4.93647
4.94302
4.99648
5.04026
5.02778
4.9967
4.92563
4.79698
4.67644
4.63138
4.6154
4.61164
4.64762
4.70984
4.71694
4.69612
4.6561
4.57229
4.45437
4.37667
4.35417
4.34337
4.35144
4.3841
4.38725
4.36957
4.34364
4.28475
4.20002
4.14038
4.12446
4.11665
4.12371
4.14616
4.14343
4.12801
4.10993
4.07537
4.03154
4.07819
4.296
4.65762
4.94714
5.15967
5.26468
5.27305
5.25431
5.21428
5.15802
5.09001
5.02903
5.00543
4.99148
4.98379
4.97172
4.95002
4.92659
4.897
4.84922
4.79127
4.74941
4.72703
4.70918
4.69238
4.67316
4.65298
4.63083
4.60315
4.56555
4.53021
4.51006
4.49341
4.47602
4.45657
4.43557
4.40975
4.36619
4.30343
4.25016
4.23098
4.21843
4.21301
4.21751
4.20895
4.19102
4.17018
4.13719
4.08472
4.03624
4.0177
4.00604
3.99873
3.98815
3.97311
3.95636
3.93246
3.89092
3.83889
3.81063
3.79866
3.78831
3.78278
3.77618
3.76325
3.74947
3.73547
3.71759
3.6838
3.63981
3.61516
3.60231
3.58795
3.57206
3.55496
3.53699
3.51778
3.49548
3.46851
3.44835
3.43803
3.42926
3.42037
3.41009
3.39698
3.37819
3.34998
3.31611
3.29029
3.27223
3.25501
3.23661
3.21725
3.19798
3.17993
3.16116
3.14039
3.12737
3.12011
3.11407
3.10866
3.10165
3.09232
3.08153
3.06698
3.04877
2.1919
2.18762
2.18485
2.18698
2.20304
2.23554
2.4269
2.92346
3.7288
4.13448
4.12373
4.06695
4.04818
4.04302
4.05705
4.05506
4.0546
4.03731
3.98767
3.92425
3.89404
3.88667
3.8914
3.89756
3.89037
3.87414
3.83116
3.74253
3.65775
3.63103
3.62301
3.61868
3.62551
3.64754
3.66008
3.65718
3.64755
3.62081
3.56457
3.50212
3.46785
3.44962
3.43277
3.41223
3.38271
3.34069
3.3038
3.29379
3.29139
3.30152
3.32235
3.32486
3.31724
3.29661
3.24744
3.1767
3.13369
3.12054
3.11501
3.11015
3.1052
3.10042
3.09206
3.0745
3.03058
2.96801
2.9354
2.93104
2.93532
2.95635
2.96175
2.95262
2.94269
2.92769
2.89704
2.83295
2.75112
2.73121
2.78855
3.10765
3.92567
5.03983
5.97141
6.2396
6.19638
6.06183
5.90258
5.80449
5.79228
5.88822
6.0346
6.0522
5.99917
5.92463
5.82337
5.70978
5.62668
5.57063
5.53109
5.49429
5.45678
5.42808
5.40714
5.39854
5.4078
5.40457
5.38198
5.34415
5.26869
5.15188
5.04254
4.99147
4.97621
4.98392
5.03957
5.08727
5.07636
5.04851
4.98551
4.86982
4.73489
4.66438
4.64389
4.63833
4.67602
4.75134
4.77307
4.75489
4.7172
4.63162
4.49963
4.41446
4.38919
4.37828
4.3825
4.4167
4.43101
4.415
4.38977
4.33445
4.24967
4.18051
4.15877
4.14993
4.15433
4.18078
4.18608
4.1725
4.1568
4.12738
4.09197
4.16375
4.38728
4.75153
5.05969
5.23137
5.32781
5.33221
5.31306
5.2779
5.22561
5.15368
5.08665
5.05975
5.04543
5.03761
5.02624
5.00406
4.97926
4.94655
4.89598
4.83214
4.78213
4.76054
4.74372
4.73214
4.71611
4.69748
4.67787
4.65367
4.61996
4.57891
4.55091
4.53212
4.51312
4.49238
4.46938
4.44224
4.40492
4.35222
4.29434
4.26464
4.25092
4.24426
4.24983
4.24656
4.22971
4.21018
4.18148
4.13007
4.07541
4.0505
4.03736
4.0287
4.02079
4.0062
3.98992
3.9704
3.93831
3.88541
3.84215
3.82737
3.81649
3.80907
3.80264
3.7905
3.77708
3.76223
3.74245
3.71203
3.67114
3.6441
3.63415
3.62316
3.60981
3.59442
3.57647
3.55437
3.52732
3.49743
3.47271
3.45832
3.44695
3.43591
3.42505
3.41412
3.40101
3.38108
3.35175
3.32368
3.30636
3.29296
3.27854
3.26134
3.24095
3.2185
3.1933
3.16379
3.14048
3.13074
3.12347
3.11686
3.11288
3.10487
3.09476
3.08554
3.07311
3.05203
2.20501
2.20235
2.20289
2.21339
2.22382
2.23527
2.27254
2.44946
3.01536
3.78426
3.95713
4.03384
4.06555
4.077
4.07253
4.07136
4.05802
4.0194
3.9709
3.94014
3.93596
3.94403
3.95097
3.94308
3.92128
3.87372
3.78385
3.69132
3.65908
3.65127
3.64809
3.65887
3.69334
3.71841
3.71489
3.70187
3.66672
3.60238
3.52587
3.48715
3.47077
3.45684
3.44041
3.41705
3.38301
3.35037
3.33929
3.33696
3.34831
3.36887
3.3706
3.36198
3.33841
3.28663
3.20897
3.15978
3.14525
3.14134
3.1395
3.13539
3.13148
3.12562
3.11268
3.07716
3.01675
2.97389
2.96647
2.96689
2.98271
2.98915
2.98052
2.9707
2.95787
2.93044
2.87541
2.79897
2.81004
3.02441
3.70454
4.72531
5.72336
6.30944
6.40092
6.33586
6.14493
5.98446
5.93877
5.94439
6.01488
6.08811
6.08571
6.04929
5.97976
5.87007
5.7519
5.66998
5.62046
5.58596
5.55336
5.52048
5.49413
5.47295
5.46261
5.46772
5.46242
5.43945
5.3998
5.3193
5.19565
5.0923
5.0462
5.02952
5.0339
5.0851
5.13653
5.12688
5.09635
5.03236
4.91143
4.77734
4.71888
4.69976
4.69249
4.72347
4.79813
4.8265
4.80927
4.77192
4.69226
4.56657
4.45941
4.41939
4.40608
4.40764
4.44506
4.47334
4.46059
4.43651
4.38303
4.29536
4.22061
4.19429
4.18521
4.18764
4.21504
4.22781
4.21618
4.20278
4.1759
4.16026
4.24097
4.50973
4.84548
5.17792
5.29682
5.35555
5.37014
5.36437
5.33682
5.29515
5.2322
5.15121
5.10973
5.09157
5.07979
5.06949
5.04944
5.02709
4.99953
4.95724
4.89032
4.82418
4.79772
4.77949
4.76597
4.75804
4.74132
4.72249
4.70185
4.67346
4.63334
4.59414
4.56985
4.54971
4.52874
4.50619
4.48042
4.44578
4.39259
4.33566
4.30566
4.29221
4.28364
4.28725
4.28812
4.27166
4.25162
4.22348
4.17262
4.11559
4.08529
4.07132
4.06085
4.0525
4.0384
4.02276
4.00491
3.97663
3.92605
3.87838
3.86045
3.84862
3.83929
3.83102
3.81797
3.80359
3.78934
3.77259
3.74801
3.70892
3.67006
3.65507
3.64445
3.63424
3.62308
3.61044
3.59536
3.57419
3.54202
3.50729
3.48661
3.47289
3.45993
3.44668
3.43248
3.41704
3.39874
3.37385
3.34625
3.32988
3.31899
3.30761
3.29543
3.28207
3.2657
3.24363
3.21289
3.17518
3.1487
3.13697
3.12845
3.12109
3.11509
3.10655
3.09591
3.08474
3.07172
3.04871
2.21878
2.22015
2.23492
2.25459
2.25442
2.25047
2.25633
2.29295
2.46434
3.06933
3.60512
3.90793
4.07137
4.10672
4.11213
4.09941
4.06165
4.02265
3.9938
3.98759
3.9946
4.00032
3.99484
3.96821
3.91326
3.81657
3.72205
3.68823
3.68064
3.67913
3.6944
3.7398
3.77777
3.77384
3.75631
3.71281
3.64135
3.55219
3.50376
3.48818
3.47792
3.46497
3.44715
3.42155
3.39653
3.38645
3.38507
3.3982
3.41732
3.41689
3.4067
3.38025
3.32585
3.24247
3.18655
3.16987
3.16579
3.16994
3.16754
3.16331
3.15907
3.14943
3.12173
3.06547
3.01386
3.00148
2.99921
3.00874
3.01583
3.00743
2.99895
2.9867
2.96826
2.91257
2.88316
3.00073
3.50197
4.54405
5.52018
6.15593
6.44075
6.46046
6.42646
6.28927
6.10966
6.04104
6.04016
6.09303
6.13692
6.10759
6.06597
6.01206
5.91499
5.80621
5.72939
5.67793
5.64403
5.60963
5.57346
5.54574
5.52571
5.51913
5.52745
5.5187
5.49459
5.45404
5.37632
5.25758
5.14574
5.09133
5.07466
5.07919
5.12994
5.18226
5.17327
5.1447
5.08652
4.97716
4.83592
4.7532
4.72923
4.72401
4.76137
4.84681
4.8861
4.86902
4.82791
4.74226
4.60009
4.49463
4.46187
4.4487
4.44689
4.47939
4.51619
4.50725
4.48307
4.4322
4.34857
4.26471
4.22889
4.21883
4.21965
4.24868
4.2699
4.26144
4.24926
4.2258
4.22888
4.32125
4.60262
4.99326
5.22286
5.34872
5.39889
5.41429
5.40974
5.39185
5.35948
5.30413
5.22603
5.16081
5.13424
5.11559
5.10671
5.09616
5.07571
5.05349
5.02095
4.96034
4.88258
4.83995
4.82042
4.80379
4.79349
4.78378
4.76584
4.74685
4.72371
4.68833
4.64099
4.60802
4.58675
4.56598
4.54369
4.51838
4.48566
4.43757
4.37977
4.33814
4.3228
4.31315
4.31551
4.32255
4.3099
4.29094
4.26691
4.22223
4.16107
4.11966
4.10453
4.09361
4.08562
4.07154
4.05446
4.03546
4.01139
3.96778
3.91621
3.88914
3.87727
3.86781
3.8591
3.84633
3.83129
3.81492
3.79676
3.77484
3.74311
3.70573
3.68578
3.6741
3.66235
3.65011
3.63663
3.62172
3.60468
3.58281
3.5525
3.52444
3.50744
3.49321
3.47839
3.46214
3.44379
3.4224
3.3963
3.36669
3.34788
3.33856
3.32882
3.31875
3.30866
3.29781
3.28443
3.26516
3.23557
3.19736
3.16648
3.14953
3.13742
3.12648
3.11672
3.1091
3.1029
3.09254
3.07425
3.04546
2.23711
2.25348
2.27962
2.28677
2.28275
2.27695
2.26873
2.25441
2.26618
2.45747
2.99076
3.53332
4.02287
4.12468
4.10696
4.08874
4.06947
4.05377
4.04919
4.04543
4.04453
4.04187
4.01646
3.9588
3.85272
3.75375
3.71905
3.7104
3.7109
3.73264
3.78725
3.83461
3.83249
3.81089
3.76005
3.67879
3.58185
3.52638
3.50767
3.49884
3.48793
3.4731
3.45521
3.43991
3.4324
3.43319
3.44917
3.46637
3.4642
3.45309
3.42446
3.36669
3.27701
3.2156
3.19622
3.19095
3.19684
3.20302
3.19706
3.19251
3.18477
3.16339
3.11352
3.05571
3.03539
3.03193
3.03639
3.0418
3.03506
3.02544
3.01759
2.99911
2.96712
3.0283
3.43071
4.29596
5.38308
6.05987
6.35145
6.51794
6.50975
6.44741
6.35485
6.20694
6.11655
6.09355
6.10511
6.15619
6.14744
6.10509
6.04899
5.96612
5.85386
5.7724
5.72497
5.69439
5.66563
5.6378
5.6139
5.59454
5.58718
5.59156
5.57999
5.5538
5.50771
5.42113
5.29696
5.1976
5.15135
5.13359
5.1343
5.17757
5.22891
5.22092
5.19044
5.13117
5.02045
4.88073
4.80818
4.78554
4.7782
4.80818
4.88971
4.93303
4.91862
4.88294
4.80501
4.66957
4.54097
4.48568
4.47003
4.46986
4.50985
4.55898
4.55548
4.53178
4.48004
4.38951
4.30502
4.26886
4.25781
4.25694
4.2833
4.31085
4.30696
4.2974
4.27512
4.29482
4.42717
4.71554
5.06699
5.29143
5.40963
5.4733
5.49265
5.47762
5.45149
5.41478
5.35538
5.27948
5.21351
5.18453
5.16627
5.15576
5.14639
5.12724
5.10582
5.07802
5.02577
4.94652
4.88501
4.86117
4.84383
4.83419
4.82889
4.81206
4.79233
4.77151
4.743
4.69549
4.65081
4.62601
4.6059
4.58451
4.56051
4.53098
4.48926
4.43084
4.38145
4.36327
4.35121
4.34829
4.35456
4.3441
4.32564
4.30491
4.26741
4.21016
4.16236
4.1453
4.13373
4.12524
4.11128
4.09362
4.07413
4.04925
4.00476
3.95194
3.91996
3.90787
3.89779
3.89032
3.87941
3.86584
3.85098
3.83315
3.80988
3.77742
3.73431
3.70741
3.69739
3.68748
3.67717
3.66577
3.65271
3.63703
3.61611
3.58698
3.55574
3.53583
3.52237
3.50934
3.49547
3.4795
3.45905
3.43048
3.39298
3.36334
3.35135
3.34241
3.33448
3.3277
3.31923
3.30952
3.29793
3.28179
3.25534
3.21852
3.18578
3.16529
3.15038
3.13681
3.12413
3.11158
3.09717
3.07944
3.05953
3.03891
2.27344
2.30239
2.31167
2.30904
2.30599
2.29985
2.28341
2.24389
2.19668
2.22088
2.44223
2.91583
3.72158
4.047
4.0712
4.10427
4.10398
4.10971
4.098
4.08667
4.08119
4.05739
4.00216
3.89205
3.78587
3.75191
3.7409
3.7416
3.76892
3.83454
3.89114
3.88959
3.86497
3.81269
3.72083
3.61157
3.55495
3.5329
3.52408
3.51452
3.50133
3.48761
3.4788
3.47477
3.47931
3.49775
3.51211
3.50857
3.49809
3.47014
3.41139
3.31549
3.24787
3.22606
3.21983
3.22327
3.23731
3.2327
3.22665
3.21958
3.20309
3.16032
3.09886
3.06837
3.06352
3.06459
3.06867
3.06198
3.05211
3.0476
3.03428
3.08666
3.38249
4.10554
5.22784
5.98417
6.47261
6.64594
6.65894
6.64731
6.55931
6.42094
6.27539
6.16778
6.13714
6.12782
6.16657
6.18695
6.16284
6.11554
6.02874
5.92225
5.83297
5.78134
5.75061
5.71885
5.68913
5.66563
5.65169
5.65177
5.65426
5.63853
5.61261
5.56414
5.47988
5.35901
5.24939
5.19496
5.17842
5.18089
5.22423
5.27323
5.26548
5.23599
5.18221
5.08203
4.94195
4.84855
4.82024
4.81458
4.84868
4.93544
4.98457
4.9697
4.92932
4.84707
4.7042
4.57946
4.53525
4.51977
4.51667
4.55046
4.60201
4.60207
4.57913
4.52992
4.44635
4.35257
4.30267
4.28973
4.28841
4.31749
4.35124
4.35216
4.34656
4.32898
4.366
4.51628
4.86035
5.16243
5.34743
5.44733
5.52518
5.55059
5.53471
5.49664
5.45051
5.39376
5.32405
5.25663
5.22526
5.20891
5.2036
5.19972
5.17972
5.15636
5.12866
5.08268
5.00989
4.94029
4.91091
4.89224
4.8803
4.87798
4.86493
4.84334
4.82018
4.78716
4.73248
4.68262
4.65735
4.64014
4.62183
4.60121
4.57578
4.53946
4.48428
4.43002
4.40735
4.39329
4.38661
4.38872
4.37862
4.36008
4.33957
4.30443
4.24873
4.19943
4.18136
4.17033
4.16409
4.15341
4.13678
4.11713
4.09097
4.04612
3.98724
3.94484
3.93072
3.92018
3.9127
3.90542
3.89396
3.8815
3.868
3.85106
3.82572
3.78434
3.73763
3.71451
3.70171
3.69021
3.67988
3.67083
3.66034
3.64768
3.62806
3.59848
3.56973
3.55168
3.53786
3.52412
3.50912
3.49132
3.46745
3.43325
3.39648
3.37467
3.36048
3.34847
3.33833
3.32934
3.3227
3.3154
3.30678
3.29381
3.26956
3.2374
3.20722
3.18339
3.16342
3.1457
3.12955
3.11389
3.09683
3.07442
3.05116
3.04119
2.32487
2.33445
2.33079
2.32774
2.32312
2.31196
2.28251
2.22064
2.17916
2.17788
2.21409
2.40839
3.0343
3.76884
3.96699
4.09783
4.1509
4.15667
4.13536
4.12612
4.09872
4.04448
3.9409
3.81863
3.78193
3.76906
3.76862
3.79893
3.87523
3.94245
3.94271
3.91617
3.86492
3.76938
3.64543
3.58631
3.5651
3.55443
3.54417
3.53319
3.52334
3.5176
3.51582
3.52275
3.54124
3.55154
3.54616
3.53675
3.51183
3.4568
3.35807
3.28302
3.2588
3.2521
3.25347
3.26963
3.26921
3.26175
3.25456
3.24138
3.20656
3.14511
3.10182
3.09405
3.09186
3.09597
3.08793
3.08318
3.07837
3.12052
3.33408
4.03155
5.07936
5.95667
6.31565
6.52222
6.67654
6.7106
6.6712
6.61278
6.50738
6.34396
6.22919
6.19084
6.18145
6.21819
6.2521
6.22949
6.19331
6.11386
5.98675
5.87176
5.81853
5.79874
5.78132
5.76137
5.74408
5.7341
5.73035
5.72215
5.70222
5.67087
5.61151
5.51889
5.40058
5.30737
5.26039
5.24157
5.23979
5.27403
5.31755
5.30994
5.28017
5.22706
5.12814
4.99285
4.90732
4.87883
4.87037
4.89666
4.97732
5.02762
5.01477
4.98064
4.90548
4.76542
4.62531
4.56243
4.54605
4.54703
4.58969
4.6475
4.65039
4.62707
4.57488
4.48243
4.39175
4.3486
4.33434
4.33032
4.3548
4.39152
4.39775
4.3951
4.38243
4.45202
4.61845
4.97151
5.26215
5.42229
5.52627
5.5738
5.58622
5.57125
5.5414
5.49769
5.44273
5.37678
5.30691
5.26762
5.25101
5.24272
5.24358
5.22785
5.20414
5.17773
5.1353
5.06368
4.99249
4.95947
4.94171
4.93021
4.92853
4.91762
4.8957
4.87134
4.8377
4.77967
4.71967
4.68673
4.66902
4.65123
4.63268
4.61205
4.58504
4.53976
4.48205
4.45379
4.43939
4.43141
4.42972
4.41771
4.39818
4.37593
4.34215
4.28924
4.23584
4.21204
4.20066
4.1958
4.19087
4.17731
4.16031
4.13745
4.09749
4.0351
3.97913
3.9572
3.94477
3.93483
3.92904
3.92005
3.90694
3.89319
3.87875
3.86077
3.83281
3.7919
3.75568
3.7349
3.71919
3.70408
3.68883
3.6736
3.65892
3.64464
3.62896
3.60779
3.58561
3.57022
3.55712
3.5429
3.52578
3.50303
3.47077
3.43259
3.40602
3.39072
3.3771
3.36328
3.34994
3.33797
3.3265
3.3143
3.30133
3.28844
3.27389
3.25106
3.22744
3.20769
3.18737
3.16393
3.14066
3.11979
3.098
3.07257
3.05424
3.04589
2.35541
2.35139
2.3475
2.34244
2.33339
2.31138
2.26215
2.19774
2.17845
2.17757
2.18132
2.2161
2.44897
3.16397
3.71438
4.02282
4.18438
4.18517
4.17893
4.14536
4.08285
3.99026
3.8605
3.81643
3.80109
3.79746
3.82523
3.90603
3.97847
3.98155
3.95822
3.91297
3.8221
3.68715
3.61684
3.5982
3.58974
3.57979
3.5709
3.56414
3.56041
3.55966
3.56572
3.58122
3.58616
3.57861
3.56848
3.54556
3.49584
3.40006
3.31883
3.29192
3.28541
3.28612
3.3021
3.30554
3.29712
3.28969
3.2783
3.25107
3.1943
3.13884
3.12393
3.11958
3.12076
3.11817
3.11332
3.14295
3.33144
3.90405
4.86415
5.98095
6.49518
6.71545
6.78381
6.78041
6.75795
6.71802
6.64591
6.54258
6.40379
6.29041
6.24083
6.22809
6.27029
6.32565
6.30771
6.26149
6.17521
6.05419
5.93558
5.86444
5.83057
5.80616
5.79621
5.80555
5.81588
5.81292
5.79458
5.76807
5.72388
5.65665
5.56818
5.45673
5.36011
5.30917
5.2924
5.29221
5.32518
5.3612
5.35138
5.32358
5.27539
5.18699
5.05612
4.95791
4.92378
4.91648
4.94401
5.0239
5.0725
5.0583
5.02126
4.94638
4.81123
4.67358
4.61564
4.5987
4.59767
4.63603
4.69312
4.69604
4.67383
4.62389
4.53913
4.44031
4.38147
4.36488
4.36102
4.3901
4.43203
4.43921
4.44309
4.44326
4.53265
4.75845
5.07171
5.38222
5.50675
5.58025
5.63374
5.64273
5.61658
5.58072
5.54177
5.49495
5.43189
5.35837
5.31358
5.29503
5.28249
5.27897
5.267
5.24417
5.21942
5.18561
5.12375
5.04579
5.00062
4.98317
4.97287
4.9765
4.97173
4.94908
4.92341
4.88819
4.82773
4.76223
4.72334
4.70542
4.68684
4.66726
4.6464
4.62091
4.58274
4.53094
4.49908
4.48433
4.47542
4.47317
4.46186
4.44264
4.41964
4.38493
4.32835
4.27249
4.24673
4.2351
4.22876
4.22506
4.21376
4.19889
4.17977
4.14632
4.08347
4.02009
3.9904
3.97619
3.96281
3.95276
3.9456
3.93525
3.92234
3.90771
3.89001
3.86611
3.82936
3.79138
3.7691
3.75385
3.73883
3.72251
3.70473
3.68619
3.66723
3.64698
3.62417
3.60275
3.59025
3.57996
3.56881
3.55586
3.53925
3.51419
3.47535
3.43705
3.41676
3.40283
3.38944
3.37585
3.3618
3.34732
3.33274
3.31851
3.304
3.28557
3.26356
3.24696
3.2341
3.22169
3.20717
3.18761
3.1611
3.1313
3.10233
3.07709
3.06176
3.05238
2.37081
2.3667
2.36143
2.35296
2.33418
2.29313
2.22984
2.19538
2.18853
2.18602
2.18627
2.20298
2.26232
2.59289
3.22769
3.76532
4.14707
4.19817
4.18877
4.1318
4.03237
3.90419
3.84714
3.83619
3.83597
3.86134
3.93702
4.00476
4.00718
3.98786
3.9494
3.86915
3.73525
3.65336
3.63358
3.62654
3.62043
3.61555
3.61105
3.60867
3.60838
3.61119
3.62096
3.62156
3.61239
3.60029
3.57657
3.52903
3.43677
3.35241
3.32277
3.31631
3.31706
3.33384
3.34137
3.33258
3.32468
3.3146
3.29428
3.24586
3.18094
3.15393
3.14738
3.14604
3.14868
3.16659
3.28601
3.78107
4.8209
5.89562
6.51583
6.61033
6.71132
6.77287
6.81399
6.84046
6.79726
6.7182
6.59575
6.45133
6.35422
6.31531
6.30805
6.34832
6.39862
6.38069
6.32635
6.22265
6.06874
5.94973
5.9104
5.88568
5.86548
5.86276
5.88454
5.90163
5.89188
5.86903
5.83145
5.7683
5.69024
5.59777
5.49925
5.42085
5.3765
5.35841
5.35506
5.38036
5.40741
5.39428
5.36631
5.31921
5.23209
5.1079
5.01864
4.98461
4.97483
4.99612
5.07
5.11782
5.10327
5.0672
4.99287
4.85389
4.71567
4.65276
4.63731
4.63926
4.68214
4.74127
4.74442
4.72043
4.66599
4.57146
4.47601
4.42961
4.41287
4.4065
4.42949
4.47486
4.48423
4.48699
4.51141
4.61307
4.8701
5.23123
5.48335
5.57731
5.62406
5.6614
5.68314
5.6699
5.63684
5.59772
5.55525
5.49943
5.42212
5.35634
5.3317
5.31421
5.30873
5.30574
5.28412
5.2608
5.23328
5.18317
5.10927
5.05211
5.03168
5.01764
5.01717
5.0222
5.00413
4.97911
4.94471
4.88213
4.80754
4.75976
4.74126
4.72306
4.70326
4.68245
4.65856
4.62594
4.57719
4.53903
4.5233
4.51292
4.51016
4.50208
4.48403
4.46275
4.43169
4.37848
4.31566
4.27892
4.26557
4.25763
4.25556
4.24604
4.23134
4.21504
4.19016
4.13619
4.06734
4.02334
4.00863
3.99615
3.98601
3.97576
3.96179
3.94649
3.93329
3.92149
3.90526
3.87394
3.83082
3.79865
3.78179
3.76773
3.75317
3.73727
3.71939
3.69924
3.67667
3.6513
3.62613
3.61017
3.59939
3.5887
3.57718
3.56314
3.54416
3.51586
3.47896
3.4522
3.43738
3.42351
3.40851
3.39237
3.37598
3.36005
3.34373
3.32522
3.30394
3.28104
3.25901
3.24577
3.23701
3.22854
3.21916
3.20622
3.18539
3.15265
3.11472
3.08617
3.06824
3.05601
2.38542
2.38035
2.37258
2.35659
2.32113
2.25849
2.21791
2.2082
2.20582
2.20341
2.20507
2.22249
2.26508
2.36706
2.69794
3.20956
3.89344
4.14821
4.14251
4.06967
3.94516
3.87175
3.86282
3.87091
3.90107
3.97639
4.04045
4.04027
4.01867
3.98002
3.90633
3.7775
3.68573
3.66482
3.66016
3.66171
3.66682
3.66424
3.66125
3.65963
3.65857
3.66092
3.65906
3.64979
3.6365
3.61097
3.56278
3.47263
3.38546
3.35252
3.34533
3.34481
3.36101
3.37476
3.36723
3.35927
3.35014
3.33489
3.29663
3.23033
3.18555
3.17686
3.17578
3.1878
3.28317
3.70309
4.60424
5.77535
6.61614
6.92814
6.99427
6.899
6.81026
6.798
6.82104
6.82577
6.78501
6.69742
6.55256
6.42655
6.38525
6.38437
6.43089
6.46467
6.43953
6.38507
6.28819
6.13413
5.99223
5.92551
5.89712
5.88756
5.91637
5.97022
5.99216
5.97553
5.94374
5.88409
5.80593
5.72511
5.63853
5.5507
5.47265
5.42935
5.41384
5.41164
5.43434
5.45369
5.43738
5.41029
5.36752
5.28863
5.17099
5.07191
5.03332
5.02405
5.04459
5.11421
5.15764
5.14307
5.10891
5.04064
4.91438
4.77089
4.69925
4.68231
4.68391
4.72745
4.78676
4.78967
4.76762
4.71662
4.62783
4.52373
4.46134
4.44223
4.43739
4.4655
4.5154
4.53009
4.53423
4.58597
4.73486
4.99056
5.35691
5.55435
5.66387
5.70369
5.72802
5.7368
5.71881
5.69219
5.65741
5.61268
5.55547
5.48271
5.411
5.3768
5.35597
5.34315
5.34369
5.32979
5.30608
5.2804
5.23553
5.1574
5.09355
5.07163
5.05729
5.05448
5.06367
5.05194
5.02866
5.00053
4.94612
4.86563
4.80252
4.77965
4.76227
4.74277
4.72165
4.69829
4.66713
4.62053
4.57939
4.56254
4.55029
4.54412
4.53738
4.52142
4.50325
4.4789
4.43323
4.37026
4.32545
4.30879
4.29826
4.29112
4.27845
4.26203
4.24468
4.22219
4.17426
4.10971
4.06207
4.04456
4.03081
4.01967
4.01013
3.99734
3.98193
3.96454
3.94448
3.92242
3.89643
3.86275
3.82987
3.81259
3.79981
3.78638
3.77177
3.75538
3.73599
3.71205
3.68291
3.65258
3.63161
3.61932
3.60792
3.59627
3.58493
3.57182
3.5502
3.51408
3.47863
3.46298
3.45141
3.43901
3.42533
3.41012
3.39317
3.37487
3.35554
3.33241
3.30046
3.27127
3.2584
3.25046
3.24281
3.23527
3.22705
3.21773
3.2046
3.18108
3.14072
3.10091
3.07955
3.06613
2.39952
2.39248
2.37898
2.34877
2.28918
2.23977
2.22664
2.22517
2.22448
2.22961
2.25126
2.28582
2.30531
2.32299
2.40508
2.62729
3.20971
3.86337
3.95764
3.97112
3.91295
3.89816
3.90702
3.94434
4.02181
4.08323
4.08517
4.06019
4.01846
3.95018
3.82639
3.72041
3.69105
3.68641
3.69127
3.71251
3.71887
3.71389
3.71032
3.70714
3.70455
3.69969
3.69002
3.67576
3.64819
3.59911
3.51016
3.42002
3.38366
3.37504
3.37279
3.38429
3.40365
3.40016
3.39263
3.38466
3.37266
3.34452
3.2839
3.22284
3.211
3.21407
3.2794
3.58673
4.44383
5.6411
6.66734
6.95675
6.89464
6.93856
6.95652
6.97188
6.966
6.91747
6.87662
6.82514
6.74345
6.63509
6.53426
6.48679
6.47348
6.50327
6.52399
6.49311
6.42834
6.31559
6.15571
6.04301
5.99267
5.96544
5.95772
5.99591
6.05914
6.07446
6.05273
6.01379
5.93952
5.84425
5.74926
5.66876
5.59951
5.53392
5.49493
5.4782
5.47376
5.48922
5.50095
5.48282
5.45584
5.41372
5.33512
5.22302
5.13307
5.09481
5.08335
5.09741
5.15897
5.20005
5.18422
5.14858
5.07979
4.95092
4.81703
4.75496
4.73663
4.73552
4.77477
4.83347
4.83626
4.81238
4.75822
4.66274
4.56184
4.51016
4.49142
4.48449
4.50563
4.55559
4.57832
4.58193
4.66418
4.84663
5.15964
5.4648
5.66561
5.72774
5.77498
5.81454
5.81541
5.78529
5.74684
5.70785
5.66581
5.61297
5.53948
5.46434
5.42133
5.3996
5.38501
5.38599
5.38005
5.35637
5.33062
5.29101
5.22028
5.14348
5.10537
5.08855
5.08357
5.09846
5.0964
5.07456
5.04858
4.99914
4.92386
4.85598
4.82794
4.81015
4.79128
4.76948
4.74433
4.71287
4.66889
4.62
4.59672
4.58274
4.57364
4.56767
4.55214
4.53272
4.51057
4.47235
4.41683
4.37256
4.35613
4.34581
4.33769
4.32343
4.30493
4.28345
4.25469
4.20551
4.14393
4.09288
4.07454
4.06396
4.056
4.04776
4.03483
4.01886
4.00148
3.98295
3.96116
3.92993
3.88883
3.85462
3.838
3.82608
3.81415
3.80241
3.78998
3.77571
3.7577
3.73188
3.69523
3.65916
3.63857
3.62593
3.6145
3.60207
3.5872
3.56951
3.54372
3.51139
3.49042
3.47749
3.4653
3.45298
3.44002
3.42632
3.41079
3.39105
3.36475
3.33093
3.2965
3.27446
3.26391
3.25573
3.24789
3.24069
3.2337
3.2248
3.21471
3.19929
3.16753
3.12151
3.08975
3.07322
2.41291
2.40177
2.37586
2.32143
2.26461
2.24569
2.24362
2.2433
2.25054
2.27874
2.3229
2.34414
2.34031
2.32769
2.3058
2.31893
2.50633
3.13265
3.58738
3.82918
3.9541
3.96397
4.00863
4.08353
4.12697
4.132
4.10892
4.0629
3.99937
3.88537
3.76437
3.72178
3.71501
3.71524
3.74313
3.76551
3.75971
3.75357
3.75003
3.74834
3.7429
3.73287
3.71785
3.68832
3.63751
3.54822
3.45544
3.41632
3.40597
3.40223
3.40812
3.42818
3.4317
3.4247
3.41806
3.40817
3.38866
3.33746
3.26885
3.25294
3.28716
3.53143
4.29096
5.41773
6.58268
7.14419
7.27682
7.2297
7.02491
6.93248
6.93635
6.98851
7.01955
6.97736
6.90191
6.80391
6.69057
6.60041
6.56282
6.54993
6.56535
6.56745
6.53725
6.48274
6.37802
6.21687
6.08763
6.02918
6.01042
6.02388
6.08916
6.15417
6.15491
6.12525
6.07343
5.98708
5.88317
5.78648
5.71267
5.64783
5.58639
5.55302
5.53691
5.53239
5.54364
5.5478
5.52859
5.50315
5.46359
5.39105
5.28512
5.18857
5.14536
5.13411
5.14597
5.20044
5.23625
5.22063
5.18919
5.12864
5.0144
4.87594
4.7972
4.77701
4.77678
4.81881
4.87817
4.88072
4.85882
4.80831
4.71758
4.61003
4.54471
4.52378
4.51968
4.54502
4.5919
4.62335
4.63992
4.75038
4.95945
5.30006
5.62335
5.7638
5.79645
5.81313
5.84369
5.86461
5.84701
5.81152
5.76864
5.7211
5.66776
5.5982
5.5218
5.46848
5.4451
5.42928
5.43046
5.43289
5.41052
5.38338
5.34308
5.26878
5.18986
5.14915
5.13233
5.12352
5.13387
5.13722
5.11684
5.09264
5.04625
4.96813
4.89871
4.86896
4.85271
4.83919
4.82134
4.79986
4.77175
4.72684
4.66989
4.63789
4.62169
4.60829
4.59717
4.58249
4.56534
4.54617
4.51301
4.46177
4.41139
4.39309
4.38333
4.38012
4.36994
4.35311
4.33216
4.30145
4.24624
4.17368
4.12004
4.0982
4.08792
4.08039
4.0768
4.06954
4.05698
4.04213
4.02389
3.99982
3.96594
3.91996
3.87578
3.85534
3.84523
3.8348
3.82435
3.81411
3.80303
3.78998
3.77251
3.74552
3.70893
3.67782
3.65625
3.63823
3.62308
3.60992
3.59541
3.57146
3.53733
3.51241
3.50087
3.49051
3.48016
3.4695
3.45791
3.44474
3.42907
3.40757
3.3732
3.32812
3.29653
3.28192
3.27104
3.26219
3.25479
3.24844
3.24091
3.23163
3.22073
3.20756
3.18569
3.15004
3.11311
3.0873
2.42503
2.40304
2.35447
2.29283
2.26716
2.26405
2.2634
2.27121
2.3026
2.35008
2.37188
2.3691
2.35621
2.32639
2.26149
2.19638
2.22007
2.49034
2.99794
3.55975
3.85081
4.00484
4.13637
4.18144
4.18185
4.16153
4.10869
4.0492
3.95433
3.82496
3.76051
3.74852
3.74368
3.76124
3.80127
3.80103
3.79237
3.78717
3.78515
3.78199
3.77208
3.75762
3.72909
3.67926
3.59009
3.4934
3.4514
3.43901
3.43392
3.43479
3.4511
3.46249
3.45717
3.45074
3.44357
3.42923
3.38948
3.32033
3.32081
3.49751
4.12566
5.26275
6.43321
7.16019
7.28515
7.23885
7.22263
7.18302
7.11144
7.0719
7.05231
7.05553
7.0346
6.97198
6.86958
6.76013
6.67677
6.63847
6.62324
6.62984
6.62086
6.58417
6.52403
6.4196
6.27192
6.1591
6.10693
6.08686
6.1011
6.17167
6.23049
6.22101
6.18989
6.13636
6.04253
5.91704
5.81189
5.74858
5.69582
5.64843
5.62004
5.6035
5.59833
5.60273
5.59839
5.57792
5.55259
5.51122
5.43739
5.33723
5.25029
5.20802
5.19475
5.20088
5.24495
5.27533
5.25823
5.2253
5.16447
5.05127
4.92356
4.85814
4.83711
4.83349
4.86789
4.92417
4.92633
4.90249
4.85057
4.75696
4.65208
4.59443
4.57383
4.56736
4.58962
4.63182
4.66304
4.6946
4.83782
5.10623
5.42928
5.75961
5.83768
5.89065
5.88106
5.88964
5.90688
5.89247
5.86684
5.83236
5.78502
5.72567
5.65214
5.57676
5.52071
5.49643
5.47904
5.47663
5.48322
5.46428
5.43639
5.39928
5.32961
5.24414
5.18673
5.16722
5.15783
5.16826
5.17453
5.15513
5.13075
5.08744
5.01698
4.94286
4.90354
4.88724
4.87764
4.86703
4.84831
4.82602
4.79142
4.73583
4.68832
4.66725
4.65115
4.63478
4.61599
4.59468
4.5714
4.53771
4.48911
4.4458
4.42867
4.41908
4.41651
4.41094
4.3967
4.3787
4.35186
4.30041
4.22632
4.1594
4.12556
4.11321
4.10359
4.09802
4.09346
4.08403
4.07132
4.0568
4.03946
4.01401
3.97091
3.91783
3.88343
3.86731
3.85425
3.84267
3.83251
3.82194
3.80997
3.79824
3.78202
3.7534
3.71821
3.69197
3.6729
3.65508
3.63683
3.617
3.59173
3.56028
3.53208
3.518
3.50752
3.49757
3.48831
3.47893
3.4689
3.45671
3.43985
3.41595
3.37838
3.33497
3.30791
3.29169
3.27881
3.26781
3.25832
3.24985
3.24314
3.23685
3.22916
3.2161
3.19403
3.1657
3.13994
3.11567
2.43046
2.38776
2.32383
2.29116
2.28618
2.28542
2.29387
2.32741
2.37464
2.39319
2.39006
2.37837
2.35447
2.29921
2.20888
2.17326
2.17322
2.23194
2.48336
3.02036
3.69575
3.98177
4.15
4.21404
4.2129
4.15781
4.08704
4.00938
3.89665
3.812
3.79114
3.78124
3.78016
3.8132
3.83517
3.82602
3.82121
3.81988
3.81756
3.80696
3.79157
3.76438
3.71766
3.63173
3.53367
3.48855
3.47452
3.4686
3.46645
3.47648
3.4943
3.49145
3.48595
3.47814
3.47127
3.43375
3.3997
3.49569
4.00535
5.08629
6.26637
7.13826
7.54579
7.56736
7.47234
7.23791
7.14407
7.12686
7.13794
7.17888
7.14968
7.09575
7.0252
6.92527
6.81877
6.74213
6.70592
6.68674
6.6853
6.67393
6.6413
6.58289
6.47946
6.33459
6.2207
6.16974
6.15452
6.17493
6.24613
6.29103
6.27433
6.24274
6.18893
6.0969
5.97101
5.85925
5.78812
5.73489
5.69888
5.67662
5.66413
5.66335
5.66555
5.65344
5.63164
5.60589
5.56097
5.48761
5.39296
5.30604
5.26177
5.24876
5.25265
5.28865
5.31195
5.29444
5.26549
5.21169
5.11178
4.98259
4.90071
4.87762
4.87582
4.91335
4.96983
4.97156
4.94846
4.89969
4.80898
4.69987
4.63302
4.61157
4.60644
4.63114
4.67475
4.70214
4.76337
4.93324
5.24599
5.58604
5.86835
5.92743
5.92994
5.94945
5.97122
5.98416
5.95893
5.92168
5.88429
5.84147
5.7837
5.71102
5.63445
5.57108
5.54407
5.52612
5.52105
5.52863
5.514
5.48668
5.45339
5.38951
5.30379
5.23983
5.21796
5.20624
5.21202
5.21821
5.19909
5.17301
5.12884
5.05179
4.9755
4.93886
4.92477
4.91728
4.91105
4.89363
4.87338
4.84608
4.79852
4.74577
4.72039
4.70236
4.68254
4.66005
4.63568
4.60983
4.57548
4.52929
4.48047
4.45586
4.44417
4.44072
4.44191
4.43061
4.41477
4.39621
4.3558
4.28339
4.20619
4.16549
4.14984
4.13673
4.12687
4.11905
4.11016
4.09884
4.08567
4.06977
4.04703
4.01071
3.96145
3.92361
3.90429
3.88709
3.87018
3.85691
3.84561
3.8329
3.81752
3.80093
3.78279
3.75822
3.73134
3.70981
3.69095
3.6711
3.64908
3.62383
3.59157
3.55513
3.53617
3.52653
3.518
3.51015
3.50098
3.49076
3.47978
3.46793
3.45148
3.42119
3.38196
3.35023
3.32943
3.31287
3.29866
3.28583
3.27302
3.26009
3.24771
3.23459
3.21819
3.19804
3.17995
3.16718
3.15565
3.14139
2.42057
2.35659
2.31709
2.30934
2.30853
2.3171
2.35252
2.39836
2.4126
2.40834
2.39669
2.374
2.32368
2.23947
2.18575
2.17548
2.1741
2.1832
2.25837
2.53988
3.28695
3.8072
4.09366
4.21129
4.20386
4.14262
4.06775
3.96827
3.86923
3.83678
3.82497
3.81749
3.83095
3.8619
3.85642
3.84783
3.84677
3.84862
3.83936
3.82305
3.79699
3.75307
3.67062
3.57276
3.52642
3.51055
3.50413
3.50099
3.5071
3.52611
3.53067
3.52262
3.51807
3.51134
3.48627
3.55028
3.97044
4.95161
6.18658
6.9211
7.39046
7.57929
7.6024
7.58915
7.45778
7.26727
7.18588
7.16853
7.19622
7.21747
7.17543
7.09381
6.9856
6.88316
6.81689
6.78354
6.76282
6.74872
6.72632
6.69397
6.63881
6.53918
6.39932
6.29087
6.24336
6.22703
6.2428
6.31002
6.35026
6.32939
6.29569
6.24323
6.14865
6.00793
5.89274
5.83154
5.78939
5.76176
5.74266