/*--------------------------------*- C++ -*----------------------------------*\
  =========                 |
  \\      /  F ield         | OpenFOAM: The Open Source CFD Toolbox
   \\    /   O peration     | Website:  https://openfoam.org
    \\  /    A nd           | Version:  7
     \\/     M anipulation  |
\*---------------------------------------------------------------------------*/
FoamFile
{
    version     2.0;
    format      ascii;
    class       volScalarField;
    location    "0.6";
    object      T;
}
// * * * * * * * * * * * * * * * * * * * * * * * * * * * * * * * * * * * * * //

dimensions      [0 0 0 1 0 0 0];

internalField   nonuniform List<scalar> 
4080
(
1
1
1
1
1
1
1
1
1
1
1
1
1
1
1
1
1
1
2.07593
2.81084
2.83287
2.85218
2.88722
2.91776
1
1
1
1
1
1
1
1
1
1
1
1
1
1
1
1
1
1
2.0331
2.79195
2.82471
2.84381
2.8747
2.89464
1
1
1
1
1
1
1
1
1
1
1
1
1
1
1
1
1
1
1.91875
2.74674
2.79969
2.81805
2.84445
2.86861
1
1
1
1
1
1
1
1
1
1
1
1
1
1
1
1
1
1
1.70979
2.65083
2.76243
2.79052
2.82501
2.88246
1
1
1
1
1
1
1
1
1
1
1
1
1
1
1
1
1
1
1.37368
2.48462
2.71032
2.72501
2.71327
2.65708
1
1
1
1
1
1
1
1
1
1
1
1
1
1
1
1
1
1
1.03856
2.25096
2.63866
2.63452
2.60637
2.50475
1
1
1
1
1
1
1
1
1
1
1
1
1
1
1
1
1
1
1.00033
1.87928
2.51882
2.56765
2.52994
2.40933
1
1
1
1
1
1
1
1
1
1
1
1
1
1
1
1
1
1
0.999999
1.25172
2.28023
2.51814
2.44963
2.34375
1
1
1
1
1
1
1
1
1
1
1
1
1
1
1
1
1
1
1
1.01384
1.986
2.42296
2.36938
2.28605
1
1
1
1
1
1
1
1
1
1
1
1
1
1
1
1
1
1
1
1.00002
1.33721
2.17569
2.34327
2.26084
1
1
1
1
1
1
1
1
1
1
1
1
1
1
1
1
1
1
1
0.999999
1.02686
1.79669
2.26253
2.21609
1
1
1
1
1
1
1
1
1
1
1
1
1
1
1
1
1
1
1
1
1.0002
1.21846
1.99217
2.18615
1
1
1
1
1
1
1
1
1
1
1
1
1
1
1
1
1
1
1
1
1
1.00982
1.47656
1.99588
1
1
1
1
1
1
1
1
1
1
1
1
1
1
1
1
1
1
1
1
1
1.00006
1.06049
1.62162
1
1
1
1
1
1
1
1
1
1
1
1
1
1
1
1
1
1
1
1
1
1
1.00107
1.14354
1
1
1
1
1
1
1
1
1
1
1
1
1
1
1
1
1
1
1
1
1
1
1
1.00513
1
1
1
1
1
1
1
1
1
1
1
1
1
1
1
1
1
1
1
1
1
1
1
1.00003
1
1
1
1
1
1
1
1
1
1
1
1
1
1
1
1
1
1
1
1
1
1
1
1
1
1
1
1
1
1
1
1
1
1
1
1
1
1
1
1
1
1
1
1
1
1
1
1
1
1
1
1
1
1
1
1
1
1
1
1
1
1
1
1
1
1
1
1
1
1
1
1
1
1
1
1
1
1
1
1
1
1
1
1
1
1
1
1
1
1
1
1
1
1
1
1
1
1
1
1
1
1
1
1
1
1
1
1
1
1
1
1
1
1
1
1
1
1
1
1
1
1
1
1
1
1
1
1
1
1
1
1
1
1
1
1
1
1
1
1
1
1
1
1
1
1
1
1
1
1
1
1
1
1
1
1
1
1
1
1
1
1
1
1
1
1
1
1
1
1
1
1
1
1
1
1
1
1
1
1
1
1
1
1
1
1
1
1
1
1
1
1
1
1
1
1
1
1
1
1
1
1
1
1
1
1
1
1
1
1
1
1
1
1
1
1
1
1
1
1
1
1
1
1
1
1
1
1
1
1
1
1
1
1
1
1
1
1
1
1
1
1
1
1
1
1
1
1
1
1
1
1
1
1
1
1
1
1
1
1
1
1
1
1
1
1
1
1
1
1
1
1
1
1
1
1
1
1
1
1
1
1
1
1
1
1
1
1
1
1
1
1
1
1
1
1
1
1
1
1
1
1
1
1
1
1
1
1
1
1
1
1
1
1
1
1
1
1
1
1
1
1
1
1
1
1
1
1
1
1
1
1
1
1
1
1
1
1
1
1
1
1
1
1
1
1
1
1
1
1
1
1
1
1
1
1
1
1
1
1
1
1
1
1
1
1
1
1
1
1
1
1
1
1
1
1
1
1
1
1
1
1
1
1
1
1
1
1
1
1
1
1
1
1
1
1
1
1
1
1
1
1
1
1
1
1
1
1
1
1
1
1
1
1
1
1
1
1
1
1
1
1
1
1
1
1
1
1
1
1
1
1
1
1
1
1
1
1
1
1
1
1
1
1
1
1
1
1
1
1
1
1
1
1
1
1
1
1
1
1
1
1
1
1
1
1
1
1
1
1
1
1
1
1
1
1
1
1
1
1
1
1
1
1
1
1
1
1
1
1
1
1
1
1
1
1
1
1
1
1
1
1
1
1
1
1
1
1
1
1
1
1
1
1
1
1
1
1
1
1
1
1
1
1
1
1
1
1
1
1
1
1
1
1
1
1
1
1
1
1
1
1
1
1
1
1
1
1
1
1
1
1
1.8649
1.37136
1.70823
2.4666
2.77082
2.98795
3.15341
3.23798
3.22874
3.11393
2.94084
2.87972
2.06594
1.76334
1.81599
2.41272
2.72991
2.91963
3.08159
3.19383
3.21908
3.13695
2.99276
2.93945
2.15013
1.92521
1.81962
2.03322
2.38369
2.62384
2.83596
3.01404
3.11343
3.1187
3.05366
3.04008
2.1802
2.00389
1.8501
1.8696
2.07872
2.29762
2.52376
2.7211
2.88926
3.01639
3.06939
3.15766
2.17684
2.05449
1.90393
1.84705
1.90952
2.07193
2.22997
2.39267
2.55332
2.72837
2.87854
2.87418
2.17441
2.07227
1.9532
1.85351
1.85897
1.94338
2.07605
2.17772
2.29491
2.41592
2.56873
2.62089
2.14901
2.06792
1.97939
1.86617
1.83765
1.8678
1.98774
2.08205
2.14854
2.22447
2.30213
2.36073
2.12555
2.0562
1.98364
1.89092
1.83175
1.84151
1.90443
2.01756
2.07344
2.11857
2.15449
2.18719
2.10052
2.04455
1.97088
1.90608
1.81911
1.81904
1.8452
1.93564
2.00908
2.04662
2.07171
2.08718
1.96252
2.01948
1.97007
1.90907
1.82965
1.79623
1.80466
1.85462
1.93725
1.98795
2.01632
2.0201
1.65767
1.90951
1.95086
1.90989
1.84829
1.77296
1.77394
1.79455
1.85462
1.92181
1.96568
1.96924
1.20054
1.64472
1.84812
1.8894
1.85685
1.78903
1.74549
1.75132
1.78108
1.84864
1.8993
1.92359
1.01083
1.21951
1.60979
1.78149
1.83076
1.80227
1.74853
1.72333
1.72927
1.77172
1.83106
1.86978
1.0001
1.01413
1.21273
1.55424
1.71625
1.77204
1.75078
1.71497
1.69985
1.71517
1.75581
1.79712
1
1.00015
1.01428
1.18516
1.49302
1.65649
1.71464
1.71032
1.68865
1.68253
1.69719
1.72797
1
1
1.00015
1.01159
1.14502
1.42392
1.58458
1.65741
1.67846
1.66262
1.66376
1.68029
1
1
1
1.00012
1.00731
1.10447
1.33365
1.51508
1.62102
1.64316
1.64585
1.65123
1
1
1
1
1.00006
1.00401
1.06314
1.23489
1.46611
1.57072
1.59646
1.61723
1
1
1
1
1
1.00003
1.00182
1.02678
1.17048
1.3993
1.50447
1.56288
1
1
1
1
1
1
1.00001
1.00051
1.01303
1.12919
1.29656
1.43129
1
1
1
1
1
1
1
1
1.00019
1.00783
1.05661
1.16995
1
1
1
1
1
1
1
1
1
1.00007
1.00154
1.01381
1
1
1
1
1
1
1
1
1
1
1.00001
1.00018
1
1
1
1
1
1
1
1
1
1
1
1
1
1
1
1
1
1
1
1
1
1
1
1
1
1
1
1
1
1
1
1
1
1
1
1
1
1
1
1
1
1
1
1
1
1
1
1
1
1
1
1
1
1
1
1
1
1
1
1
1
1
1
1
1
1
1
1
1
1
1
1
1
1
1
1
1
1
1
1
1
1
1
1
1
1
1
1
1
1
1
1
1
1
1
1
1
1
1
1
1
1
1
1
1
1
1
1
1
1
1
1
1
1
1
1
1
1
1
1
1
1
1
1
1
1
1
1
1
1
1
1
1
1
1
1
1
1
1
1
1
1
1
1
1
1
1
1
1
1
1
1
1
1
1
1
2.2871
2.03135
2.0404
2.10376
2.15226
2.23628
2.25257
2.23719
2.20322
2.16981
2.15015
2.14079
2.13574
2.13003
2.12386
2.11612
2.10201
2.08354
2.06622
2.05229
2.04107
2.03079
2.01595
1.99548
1.96682
1.93442
1.9015
1.86741
1.8326
1.79936
1.76797
1.73836
1.71032
1.68472
1.66327
1.64514
1.62617
1.60414
1.57845
1.55085
1.52877
1.51737
1.51601
1.51659
1.51826
1.52184
1.53106
1.55002
1.56758
1.58124
1.60099
1.63149
1.677
1.72633
1.73836
1.73279
1.72862
1.72419
1.70911
1.67577
1.62179
1.55081
1.46723
1.36848
1.2499
1.12129
1.02386
0.987305
0.981646
0.982342
0.992297
1.00928
1.01463
1.01609
1.01792
1.01847
1.01702
1.00939
1.00101
0.999662
0.999686
0.999771
0.999904
1.00146
2.40637
2.22774
2.14342
2.09798
2.06557
2.08379
2.10983
2.10448
2.09126
2.09096
2.09957
2.10106
2.09875
2.09702
2.09368
2.08842
2.0806
2.06906
2.05573
2.03967
2.02322
2.01298
2.00181
1.98475
1.96157
1.9319
1.89997
1.86756
1.83567
1.80521
1.7772
1.7505
1.72473
1.70094
1.67778
1.65436
1.63172
1.60764
1.58081
1.5516
1.52352
1.49806
1.48385
1.4831
1.48457
1.48774
1.49539
1.51328
1.53353
1.54811
1.56766
1.60012
1.65147
1.71041
1.73421
1.73247
1.72405
1.71733
1.70146
1.66727
1.61228
1.53887
1.45151
1.35098
1.23412
1.10848
1.01555
0.983797
0.980466
0.981234
0.990055
1.0068
1.01336
1.01505
1.01704
1.01775
1.01632
1.00859
1.00037
0.999145
0.999195
0.999306
0.99947
1.00147
2.26713
2.15285
2.03719
1.95064
1.90057
1.87886
1.8912
1.92086
1.94439
1.9682
1.99578
2.01063
2.01068
2.00602
1.99711
1.99108
1.99079
1.99305
1.99389
1.99199
1.98539
1.9738
1.96006
1.94725
1.93398
1.91664
1.89393
1.86707
1.83828
1.80988
1.78578
1.76496
1.7451
1.72482
1.70264
1.68085
1.65921
1.63412
1.60521
1.57292
1.5371
1.49723
1.45137
1.42416
1.419
1.41845
1.42068
1.43418
1.45388
1.46993
1.4926
1.53261
1.59551
1.66271
1.69172
1.69333
1.68998
1.68305
1.66869
1.63805
1.58548
1.51211
1.42312
1.32282
1.21079
1.09616
1.01453
0.985173
0.980289
0.981135
0.990815
1.00816
1.01507
1.01676
1.0185
1.01895
1.01689
1.0079
1.00031
0.99953
0.999554
0.99961
0.999751
1.00174
2.13155
2.05866
1.97559
1.8734
1.83063
1.79861
1.77126
1.76525
1.76725
1.77275
1.79251
1.82774
1.84577
1.84591
1.84457
1.8472
1.85653
1.8725
1.88673
1.8939
1.8978
1.89922
1.89772
1.89331
1.8891
1.88393
1.87387
1.8597
1.83944
1.8134
1.79062
1.77261
1.75525
1.73472
1.71233
1.69227
1.67498
1.65429
1.62583
1.58988
1.54664
1.49493
1.42963
1.36282
1.33339
1.32824
1.32994
1.34223
1.36024
1.37903
1.40825
1.46182
1.53847
1.59518
1.613
1.61563
1.61383
1.60644
1.59233
1.56475
1.51662
1.44701
1.36044
1.26271
1.16084
1.06944
1.00938
0.986748
0.981977
0.982231
0.990391
1.00703
1.01486
1.01706
1.01888
1.01941
1.01693
1.00698
1.00011
0.999608
0.999586
0.99952
0.999645
1.00209
2.05095
1.98478
1.91885
1.83442
1.76407
1.71614
1.67119
1.63644
1.62864
1.61282
1.62034
1.65126
1.6796
1.69236
1.70049
1.71007
1.72331
1.7422
1.75922
1.768
1.77145
1.7751
1.78095
1.78901
1.80462
1.81413
1.8132
1.81231
1.80629
1.78742
1.76801
1.75432
1.74203
1.72905
1.71054
1.69057
1.67489
1.6576
1.6315
1.59582
1.55104
1.49294
1.41165
1.31384
1.26417
1.25919
1.26463
1.27725
1.29293
1.31575
1.3544
1.41845
1.49178
1.52544
1.52977
1.52948
1.5252
1.51411
1.49536
1.4659
1.42157
1.36009
1.28202
1.19286
1.10603
1.03939
1.0024
0.988922
0.985789
0.985833
0.991218
1.00537
1.015
1.01803
1.01962
1.01995
1.01705
1.00647
0.999944
0.999408
0.999268
0.999132
0.999402
1.00259
1.99832
1.94763
1.88315
1.807
1.73786
1.69357
1.64871
1.5907
1.56954
1.54642
1.53026
1.5363
1.54708
1.55787
1.56066
1.56801
1.58622
1.61226
1.63448
1.64655
1.65043
1.65308
1.65915
1.67394
1.7027
1.72291
1.7276
1.73187
1.72826
1.71238
1.69562
1.69212
1.69018
1.68727
1.67784
1.66094
1.64265
1.62649
1.60692
1.57666
1.53224
1.46943
1.37768
1.26777
1.21708
1.21556
1.22266
1.23173
1.2477
1.27936
1.325
1.38241
1.43293
1.44789
1.4492
1.44755
1.43974
1.42247
1.39484
1.35805
1.31297
1.25832
1.19332
1.12297
1.06015
1.01799
0.997337
0.990284
0.988989
0.98922
0.993228
1.00487
1.01538
1.01924
1.02071
1.02084
1.01723
1.00601
0.999592
0.998858
0.998592
0.998488
0.999048
1.00343
1.95562
1.91878
1.86685
1.80313
1.73371
1.68441
1.63937
1.58607
1.54497
1.51836
1.48261
1.45672
1.4569
1.46281
1.45943
1.4635
1.48197
1.51057
1.53465
1.54663
1.55044
1.55282
1.55946
1.57538
1.60166
1.62449
1.63577
1.63774
1.63413
1.61749
1.60359
1.60549
1.60835
1.60876
1.60568
1.593
1.57604
1.56142
1.54484
1.51833
1.47617
1.4121
1.31797
1.2173
1.18263
1.18363
1.1872
1.1946
1.21411
1.25366
1.30194
1.34735
1.37858
1.38665
1.38649
1.38171
1.36856
1.34439
1.30833
1.26388
1.21524
1.16397
1.11267
1.06697
1.03232
1.01051
0.998392
0.992137
0.989979
0.990076
0.994258
1.00627
1.01723
1.02126
1.0225
1.02227
1.01686
1.00445
0.998699
0.99801
0.997784
0.997809
0.998965
1.005
1.91709
1.89367
1.85492
1.80094
1.74139
1.6954
1.65168
1.58756
1.54418
1.51659
1.48519
1.43868
1.41857
1.42075
1.40644
1.40026
1.41155
1.43507
1.45597
1.46027
1.46173
1.46567
1.47635
1.49513
1.51825
1.53714
1.54843
1.54936
1.54443
1.5256
1.51663
1.51938
1.51954
1.51832
1.51439
1.50079
1.47879
1.45742
1.43755
1.4134
1.37763
1.32269
1.24614
1.17603
1.15587
1.15575
1.15762
1.16652
1.19118
1.23131
1.27473
1.31746
1.33968
1.34084
1.33886
1.33057
1.31339
1.28541
1.24497
1.19351
1.13783
1.08922
1.05525
1.03482
1.02213
1.01141
1.00086
0.992887
0.988944
0.988671
0.993594
1.00816
1.0197
1.0237
1.02488
1.02398
1.01542
1.00185
0.997488
0.996964
0.996784
0.997011
0.99934
1.00742
1.87752
1.86615
1.84099
1.80327
1.74985
1.70387
1.66502
1.60935
1.54984
1.52009
1.49133
1.44346
1.40624
1.39973
1.38227
1.36359
1.36751
1.38001
1.39347
1.39316
1.39404
1.40069
1.4159
1.43667
1.45348
1.46541
1.47387
1.47405
1.46697
1.44943
1.44674
1.44855
1.44582
1.44134
1.43239
1.4121
1.38466
1.3582
1.33265
1.30472
1.26851
1.22199
1.17548
1.14482
1.13435
1.13403
1.1371
1.14896
1.17434
1.21286
1.25574
1.29249
1.30283
1.3028
1.29917
1.28698
1.2646
1.23219
1.18929
1.13613
1.08078
1.04242
1.0261
1.01897
1.01262
1.00545
0.998207
0.992138
0.989348
0.989457
0.996404
1.01224
1.0221
1.02541
1.02624
1.02378
1.01156
0.999025
0.996539
0.996205
0.996145
0.996751
1.00074
1.01051
1.82987
1.83274
1.82037
1.79517
1.75672
1.71408
1.67384
1.62411
1.56529
1.53095
1.50291
1.4621
1.41236
1.39687
1.38132
1.35268
1.34485
1.34783
1.3546
1.35272
1.35165
1.35704
1.3724
1.39443
1.40423
1.40605
1.40905
1.40779
1.39868
1.38888
1.38743
1.39017
1.38835
1.37635
1.35709
1.32886
1.29717
1.26943
1.24283
1.2108
1.16805
1.13072
1.11624
1.11259
1.11129
1.11266
1.12073
1.13754
1.16352
1.19873
1.23773
1.26397
1.26818
1.26672
1.25973
1.24315
1.21534
1.17732
1.13164
1.08239
1.04027
1.01809
1.00994
1.00427
0.999166
0.994658
0.990855
0.98922
0.989534
0.99412
1.0081
1.02145
1.0261
1.02758
1.02713
1.02065
1.00472
0.996175
0.995407
0.995334
0.995453
0.996951
1.00332
1.01386
1.76449
1.79577
1.79278
1.77941
1.75392
1.7156
1.67943
1.64104
1.58863
1.54321
1.51422
1.47705
1.42585
1.40249
1.3873
1.36277
1.32869
1.32135
1.32549
1.32202
1.32094
1.32572
1.34078
1.36073
1.36229
1.35927
1.35697
1.35155
1.34319
1.33897
1.33571
1.33626
1.33385
1.3162
1.28968
1.25788
1.22501
1.19926
1.17475
1.13923
1.09234
1.07406
1.07462
1.07793
1.08236
1.09127
1.10665
1.12738
1.15497
1.18706
1.2175
1.23341
1.23398
1.22958
1.21706
1.19568
1.16477
1.125
1.08102
1.04197
1.01757
1.00695
1.00007
0.995018
0.992382
0.990127
0.987797
0.987243
0.990225
1.00488
1.02305
1.02899
1.03012
1.03021
1.02688
1.01301
0.998068
0.995203
0.995168
0.995225
0.995674
0.998359
1.00711
1.01716
1.70762
1.73752
1.75746
1.75399
1.74154
1.71515
1.67901
1.64592
1.60454
1.55832
1.52734
1.49649
1.44396
1.40186
1.39241
1.37263
1.33897
1.31558
1.31565
1.31074
1.3033
1.30573
1.3168
1.33245
1.3323
1.3237
1.31588
1.30862
1.30263
1.29607
1.28928
1.28509
1.2773
1.25869
1.23068
1.19927
1.16663
1.14187
1.11895
1.08394
1.04599
1.04115
1.04386
1.04955
1.05838
1.07553
1.0972
1.11913
1.14571
1.17244
1.19259
1.19897
1.19829
1.19225
1.17709
1.15243
1.12004
1.08315
1.04824
1.02343
1.0119
1.0046
0.99654
0.991422
0.990234
0.990096
0.990179
0.992935
1.00514
1.02372
1.03008
1.03045
1.03059
1.0296
1.02119
1.00295
0.994516
0.994264
0.994536
0.995055
0.996389
1.0009
1.01183
1.02027
1.66288
1.67913
1.69674
1.7121
1.71229
1.70202
1.67461
1.64692
1.61442
1.56744
1.5317
1.50724
1.46614
1.41927
1.40048
1.3811
1.34174
1.31163
1.31196
1.30911
1.29841
1.29688
1.30139
1.30886
1.30584
1.29157
1.27977
1.27385
1.268
1.25698
1.24514
1.23477
1.22334
1.20761
1.18107
1.15247
1.12294
1.09851
1.07668
1.0468
1.0196
1.01837
1.01954
1.02532
1.04025
1.06193
1.08388
1.10802
1.13121
1.15164
1.16314
1.1643
1.16324
1.1574
1.14277
1.11856
1.08897
1.0602
1.03791
1.02424
1.01466
1.00512
0.997035
0.991768
0.990283
0.990406
0.993751
1.00688
1.02653
1.03381
1.03401
1.03334
1.03115
1.02457
1.00874
0.995625
0.993906
0.99401
0.994547
0.99544
0.997684
1.00433
1.01699
1.02317
1.62899
1.63617
1.64558
1.66877
1.68352
1.67891
1.66293
1.64058
1.61412
1.57606
1.53706
1.51002
1.47656
1.43081
1.40766
1.39246
1.36113
1.31684
1.30627
1.3037
1.29458
1.29098
1.29508
1.29663
1.29011
1.26547
1.25037
1.24629
1.23885
1.22299
1.20673
1.19418
1.18302
1.16959
1.14444
1.11745
1.09056
1.06873
1.05018
1.02568
1.00186
1.00081
1.00558
1.01845
1.03641
1.05246
1.06828
1.0868
1.10604
1.12197
1.13134
1.13278
1.13081
1.12303
1.10645
1.08136
1.05395
1.03451
1.0242
1.01759
1.00958
1.00173
0.997303
0.995598
0.995212
0.996503
1.00456
1.0216
1.03351
1.03515
1.03514
1.03457
1.02889
1.01274
0.996982
0.99362
0.993578
0.994086
0.995158
0.996654
1.00015
1.0095
1.0227
1.02621
1.58913
1.60285
1.61443
1.6371
1.64878
1.64518
1.63671
1.62378
1.60721
1.57709
1.5402
1.51255
1.48371
1.44306
1.41392
1.3975
1.36965
1.32398
1.31041
1.30714
1.29844
1.28646
1.28646
1.28621
1.27676
1.25234
1.23293
1.22501
1.21307
1.19048
1.17193
1.1602
1.1522
1.14139
1.11932
1.09311
1.06672
1.04714
1.03378
1.0164
0.99369
0.991637
0.999503
1.01999
1.04067
1.04971
1.06315
1.08266
1.0985
1.10605
1.10685
1.1056
1.09936
1.08452
1.06191
1.03642
1.01644
1.00822
1.00708
1.0067
1.00395
0.999211
0.996298
0.995605
0.996829
1.00349
1.01781
1.02926
1.03195
1.03194
1.03158
1.02823
1.01573
0.998291
0.993237
0.993434
0.993949
0.994895
0.996179
0.998292
1.0038
1.0164
1.02815
1.02948
1.52484
1.55008
1.57786
1.60427
1.615
1.61422
1.61391
1.60802
1.59418
1.57045
1.53833
1.51256
1.48866
1.45119
1.41942
1.40074
1.37424
1.32876
1.30882
1.31054
1.30525
1.29143
1.28649
1.28027
1.26712
1.24105
1.21953
1.20981
1.1953
1.16951
1.15055
1.14042
1.13526
1.12519
1.10385
1.07762
1.05112
1.03639
1.0289
1.0192
1.00381
0.999476
1.00585
1.02816
1.05308
1.05778
1.0655
1.07749
1.08318
1.08369
1.08224
1.07649
1.06364
1.043
1.01815
0.994922
0.989081
0.990046
0.994018
0.996388
0.995462
0.992849
0.99125
0.991586
0.995584
1.00803
1.02322
1.02942
1.0294
1.02814
1.02324
1.013
1.00102
0.994942
0.993393
0.993553
0.994474
0.995821
0.997603
1.00118
1.01056
1.02602
1.03337
1.0334
1.36282
1.46429
1.53356
1.57718
1.58884
1.59986
1.60096
1.59193
1.57504
1.55582
1.5296
1.50924
1.49113
1.45703
1.4233
1.40115
1.37665
1.33291
1.31491
1.31722
1.31322
1.29651
1.2856
1.27806
1.26559
1.23901
1.21379
1.19966
1.1826
1.15717
1.13963
1.13129
1.12791
1.11881
1.09661
1.06756
1.04119
1.03351
1.03193
1.02827
1.02116
1.02094
1.0271
1.04524
1.06721
1.06778
1.06849
1.07369
1.07458
1.07223
1.06546
1.05414
1.03684
1.01381
0.991824
0.977206
0.975932
0.977546
0.979759
0.982142
0.983765
0.98324
0.982929
0.985099
0.995728
1.01129
1.01929
1.01972
1.0188
1.01454
1.00699
0.999873
0.996265
0.995565
0.995835
0.996099
0.996348
0.997033
0.999105
1.0054
1.02062
1.03539
1.03819
1.03794
1.10233
1.27796
1.41028
1.52362
1.55055
1.56961
1.58512
1.58085
1.56644
1.55293
1.53249
1.50955
1.49331
1.46248
1.42469
1.40196
1.38214
1.34433
1.32336
1.32586
1.3223
1.30358
1.2875
1.27901
1.26667
1.23867
1.21231
1.19647
1.17888
1.15605
1.13854
1.12992
1.12671
1.11777
1.09355
1.06158
1.04163
1.04102
1.04632
1.04822
1.04815
1.04985
1.0546
1.06534
1.08364
1.08665
1.08366
1.0824
1.07737
1.06844
1.05748
1.04286
1.02273
1.00003
0.98256
0.975615
0.971423
0.968651
0.968634
0.969699
0.972201
0.974765
0.977737
0.985149
0.999398
1.00776
1.00782
1.00707
1.00555
1.00366
1.0015
0.998875
0.996419
0.995379
0.995821
0.997085
0.99865
1.00068
1.00512
1.01707
1.03556
1.04313
1.04361
1.04246
1.00534
1.05333
1.1551
1.3474
1.46977
1.53432
1.56746
1.5778
1.57379
1.5632
1.54584
1.51592
1.49408
1.46647
1.42828
1.4055
1.39019
1.36033
1.3376
1.33715
1.33273
1.31109
1.29106
1.28318
1.27209
1.24483
1.21416
1.19767
1.18082
1.16001
1.14134
1.13273
1.129
1.11906
1.09532
1.0642
1.0543
1.05831
1.07101
1.07531
1.07796
1.0809
1.08268
1.08716
1.09862
1.10159
1.09738
1.08854
1.07553
1.06156
1.04791
1.03209
1.01254
0.993455
0.98264
0.976625
0.969718
0.967047
0.967231
0.968258
0.971005
0.97383
0.977548
0.987521
1.0007
1.00227
1.00207
1.00189
1.00157
1.00114
1.00091
1.00075
1.00094
1.00089
0.999802
0.998703
0.999147
1.00238
1.01314
1.03443
1.04839
1.04997
1.05007
1.04306
1.00005
1.00147
1.01142
1.0835
1.26705
1.40483
1.52365
1.55554
1.56499
1.56613
1.55921
1.53126
1.50114
1.47481
1.44058
1.41524
1.39988
1.38042
1.35843
1.35022
1.34274
1.32307
1.30045
1.29211
1.28201
1.2573
1.22253
1.20375
1.18953
1.17159
1.14817
1.13758
1.13449
1.12601
1.10772
1.08331
1.07864
1.08657
1.10369
1.1075
1.10814
1.1095
1.10877
1.11071
1.11419
1.11346
1.10639
1.09319
1.07741
1.06334
1.04983
1.03369
1.01497
1.00019
0.992257
0.985049
0.978805
0.976025
0.974607
0.974706
0.976212
0.978316
0.982368
0.990833
0.999539
1.00084
1.00071
1.00058
1.00043
1.00012
0.999714
1.00066
1.00217
1.00369
1.00497
1.00589
1.00821
1.01621
1.03517
1.05374
1.05757
1.05751
1.05175
1.03084
1
1.00001
1.00013
1.00341
1.04211
1.13647
1.33586
1.48169
1.53912
1.56897
1.56513
1.55289
1.52534
1.49762
1.46731
1.44101
1.41905
1.39835
1.38145
1.3674
1.35667
1.34103
1.31987
1.30675
1.29529
1.27451
1.23998
1.21622
1.20434
1.18948
1.16358
1.14802
1.14658
1.14215
1.13314
1.11736
1.11243
1.12178
1.13744
1.13925
1.13746
1.13517
1.13334
1.13023
1.12519
1.11798
1.10664
1.0926
1.07779
1.06449
1.05094
1.03544
1.02091
1.0114
1.00473
0.998774
0.99398
0.989415
0.984817
0.983756
0.984861
0.988084
0.994063
0.998536
1.00107
1.00286
1.0028
1.00286
1.00327
1.00409
1.00483
1.0047
1.00427
1.00448
1.00573
1.00998
1.02087
1.04114
1.06068
1.06573
1.0652
1.05785
1.03649
1.00842
1
1
1
1.00003
1.00089
1.00815
1.06996
1.26724
1.4092
1.53272
1.56264
1.55394
1.53865
1.52727
1.50486
1.47604
1.44922
1.42174
1.40636
1.39235
1.3748
1.36283
1.3484
1.32908
1.31216
1.29339
1.26443
1.23755
1.22451
1.21161
1.18859
1.16777
1.16719
1.16723
1.16596
1.15803
1.15182
1.15887
1.16824
1.16813
1.16296
1.15646
1.15171
1.14296
1.13116
1.11967
1.10754
1.09437
1.08119
1.06905
1.05588
1.0424
1.03199
1.02514
1.01966
1.01559
1.01194
1.00689
1.00038
0.998064
0.998487
1.00079
1.00451
1.00605
1.00689
1.00795
1.0084
1.00881
1.0098
1.01139
1.01296
1.01416
1.01537
1.01744
1.02219
1.03309
1.05262
1.07017
1.07428
1.07253
1.06257
1.03732
1.00806
1.00025
1
1
1
1
1
1.00007
1.00246
1.03799
1.14681
1.32378
1.50203
1.53283
1.53927
1.53901
1.53033
1.50943
1.48712
1.45754
1.43536
1.42329
1.40408
1.38721
1.37635
1.35757
1.33341
1.31393
1.29105
1.26478
1.24974
1.23888
1.22133
1.19858
1.19469
1.19859
1.20095
1.19695
1.18882
1.19116
1.19438
1.19303
1.1841
1.17299
1.16322
1.14903
1.13358
1.12129
1.10997
1.09822
1.08685
1.07476
1.06278
1.0525
1.04474
1.03944
1.03632
1.0339
1.03039
1.02482
1.01719
1.01458
1.01481
1.0152
1.01447
1.01322
1.01318
1.01327
1.01327
1.01332
1.01385
1.0152
1.01759
1.02146
1.02727
1.0362
1.0504
1.06916
1.08132
1.08264
1.07857
1.06446
1.03419
1.00595
1.00014
1
1
1
1
1
1
1
1.00002
1.00075
1.00907
1.06293
1.2494
1.42119
1.49553
1.53348
1.52898
1.51929
1.51176
1.49905
1.47665
1.45767
1.43773
1.41368
1.40064
1.38485
1.35942
1.33785
1.3197
1.29529
1.27506
1.26647
1.25621
1.23868
1.22745
1.23062
1.23404
1.23071
1.21976
1.21518
1.21489
1.21196
1.19998
1.18436
1.16937
1.1517
1.13692
1.12598
1.11554
1.10551
1.09377
1.08199
1.07284
1.06545
1.05934
1.05625
1.0545
1.05192
1.04758
1.04047
1.03285
1.02999
1.02919
1.02867
1.02869
1.02889
1.02908
1.02922
1.02945
1.03006
1.03144
1.034
1.03839
1.04571
1.05727
1.0732
1.08759
1.09257
1.09105
1.08232
1.06152
1.02638
1.00322
1.00005
1
1
1
1
1
1
1
1
1
1
1.00008
1.00203
1.02996
1.15034
1.29543
1.43055
1.50702
1.50741
1.50711
1.5073
1.50436
1.4916
1.47512
1.44973
1.42577
1.4083
1.3844
1.36151
1.34732
1.32887
1.30355
1.29245
1.28712
1.27771
1.26308
1.25996
1.26115
1.25663
1.24175
1.23262
1.22973
1.2248
1.21079
1.19213
1.17318
1.15512
1.14308
1.13397
1.12525
1.11439
1.10089
1.09185
1.08682
1.08092
1.0755
1.07346
1.07207
1.06896
1.06353
1.05492
1.04795
1.04513
1.0433
1.04231
1.04237
1.04291
1.0434
1.04382
1.04458
1.04638
1.05011
1.05689
1.0678
1.08278
1.09727
1.10403
1.10384
1.09689
1.08123
1.05123
1.01555
1.00114
1.00001
1
1
1
1
1
1
1
1
1
1
1
1
1.00001
1.00057
1.00862
1.05419
1.16814
1.33862
1.43532
1.48425
1.50355
1.50203
1.50165
1.49738
1.48306
1.45915
1.43703
1.4146
1.38746
1.37076
1.35679
1.33332
1.31799
1.31487
1.30954
1.29759
1.28439
1.27959
1.27304
1.25766
1.24639
1.24071
1.23334
1.21755
1.19728
1.17703
1.16114
1.15225
1.1459
1.1362
1.12255
1.11062
1.10595
1.1024
1.09683
1.0929
1.09093
1.08835
1.08415
1.07654
1.06717
1.06218
1.06008
1.05922
1.05931
1.06039
1.06213
1.06358
1.06506
1.06752
1.07238
1.08134
1.09514
1.10979
1.11749
1.11793
1.11187
1.09793
1.07218
1.03365
1.00606
1.00023
1
1
1
1
1
1
1
1
1
1
1
1
1
1
1
1
1.00006
1.00137
1.01255
1.08282
1.2216
1.3357
1.41972
1.48054
1.49359
1.49546
1.49967
1.4915
1.47125
1.4478
1.42176
1.39755
1.38142
1.36203
1.34073
1.33686
1.33302
1.32208
1.30338
1.291
1.28393
1.27147
1.25704
1.24773
1.23829
1.22186
1.20126
1.1829
1.1704
1.16411
1.15827
1.14587
1.13158
1.12346
1.12108
1.11833
1.11341
1.11002
1.10706
1.10327
1.09703
1.08745
1.08016
1.07742
1.0762
1.07603
1.07696
1.07973
1.08309
1.08657
1.0912
1.09877
1.11046
1.1239
1.13184
1.13254
1.12715
1.11436
1.09079
1.05182
1.01487
1.00135
1.00002
1
1
1
1
1
1
1
1
1
1
1
1
1
1
1
1
1
1
1
1.00013
1.00335
1.02434
1.09329
1.20052
1.3395
1.4238
1.46524
1.4951
1.49919
1.49371
1.47928
1.45808
1.43257
1.40942
1.38991
1.36768
1.35439
1.34862
1.33683
1.31439
1.29922
1.29242
1.28146
1.26496
1.25168
1.24103
1.22549
1.20652
1.19161
1.18243
1.1778
1.17075
1.15695
1.14326
1.138
1.13655
1.13434
1.13064
1.12683
1.12256
1.1167
1.1078
1.09922
1.09568
1.09452
1.09444
1.09589
1.10011
1.10583
1.11215
1.11982
1.12975
1.14038
1.14654
1.14673
1.14137
1.12999
1.10844
1.06949
1.02568
1.0037
1.00015
1
1
1
1
1
1
1
1
1
1
1
1
1
1
1
1
1
1
1
1
1
1
1.00002
1.00034
1.00361
1.02246
1.08965
1.21962
1.32904
1.4344
1.47331
1.48803
1.48412
1.47505
1.46149
1.44399
1.42271
1.39981
1.377
1.36273
1.34928
1.32645
1.31
1.30315
1.29377
1.2775
1.26064
1.2501
1.23885
1.22433
1.21267
1.207
1.20391
1.19587
1.18044
1.16908
1.16557
1.1631
1.1606
1.15707
1.15176
1.14418
1.13414
1.12412
1.11897
1.11719
1.11695
1.11895
1.12524
1.13393
1.14294
1.15145
1.15837
1.16106
1.15977
1.15379
1.14377
1.12399
1.08577
1.03736
1.00714
1.00045
1.00001
1
1
1
1
1
1
1
1
1
1
1
1
1
1
1
1
1
1
1
1
1
1
1
1
1
1.00002
1.00032
1.00364
1.0256
1.09592
1.22589
1.34934
1.44072
1.46307
1.46356
1.45974
1.45227
1.44215
1.4285
1.41319
1.39656
1.38851
1.37922
1.36906
1.36381
1.36113
1.35087
1.34063
1.3355
1.33514
1.33089
1.32217
1.31717
1.31291
1.3035
1.28749
1.27471
1.26722
1.26074
1.25376
1.24509
1.23253
1.21544
1.19844
1.18674
1.17867
1.17214
1.16808
1.16774
1.16978
1.17274
1.17458
1.17416
1.17063
1.16452
1.15526
1.1357
1.09817
1.0479
1.01121
1.00094
1.00002
1
1
1
1
1
1
1
1
1
1
1
1
1
1
1
1
1
1
1
1
1
1
1
1
1
1
1
1
1
1.00002
1.00038
1.00431
1.02857
1.11315
1.24286
1.34942
1.40731
1.43282
1.44232
1.46248
1.48084
1.49377
1.50273
1.51339
1.52042
1.51897
1.51685
1.51079
1.5019
1.4959
1.48757
1.48097
1.47598
1.46552
1.4534
1.44274
1.43131
1.41685
1.40323
1.39233
1.38188
1.37045
1.35688
1.34017
1.32199
1.3068
1.29513
1.28429
1.2729
1.26045
1.24594
1.22833
1.20753
1.18594
1.17214
1.16173
1.14169
1.10391
1.05363
1.01443
1.00152
1.00005
1
1
1
1
1
1
1
1
1
1
1
1
1
1
1
1
1
1
1
1
1
1
1
1
1
1
1
1
1
1
1
1
1
1.00003
1.0005
1.00626
1.03906
1.1306
1.26454
1.39271
1.50048
1.57106
1.62173
1.66066
1.69031
1.70995
1.72019
1.72181
1.71867
1.71401
1.70611
1.69841
1.68639
1.67179
1.66055
1.64749
1.6314
1.61533
1.60037
1.58553
1.5703
1.55448
1.53767
1.51957
1.50001
1.47971
1.46108
1.44571
1.43201
1.41774
1.40092
1.37955
1.35205
1.31818
1.27876
1.23392
1.1784
1.11411
1.05426
1.01496
1.00186
1.00008
1
1
1
1
1
1
1
1
1
1
1
1
1
1
1
)
;

boundaryField
{
    inlet
    {
        type            fixedValue;
        value           uniform 1;
    }
    outlet
    {
        type            inletOutlet;
        inletValue      uniform 1;
        value           nonuniform List<scalar> 
32
(
1.00193
1.00202
1.00235
1.00282
1.00349
1.00458
1.00642
1.00905
1.01217
1.01529
1.01823
1.02095
1.02355
1.02644
1.0297
1.03363
1.03814
1.04205
1.04071
1.02545
1.00499
1.00008
1
1
1
1
1
1
1
1
1
1
)
;
    }
    bottom
    {
        type            zeroGradient;
    }
    top
    {
        type            zeroGradient;
    }
    obstacle
    {
        type            zeroGradient;
    }
    defaultFaces
    {
        type            empty;
    }
}


// ************************************************************************* //
