/*--------------------------------*- C++ -*----------------------------------*\
  =========                 |
  \\      /  F ield         | OpenFOAM: The Open Source CFD Toolbox
   \\    /   O peration     | Website:  https://openfoam.org
    \\  /    A nd           | Version:  7
     \\/     M anipulation  |
\*---------------------------------------------------------------------------*/
FoamFile
{
    version     2.0;
    format      ascii;
    class       volScalarField;
    location    "5.2";
    object      p;
}
// * * * * * * * * * * * * * * * * * * * * * * * * * * * * * * * * * * * * * //

dimensions      [1 -1 -2 0 0 0 0];

internalField   nonuniform List<scalar> 
3328
(
81.0069
18.0113
12.6575
12.6985
12.7342
12.79
12.8521
12.9209
12.9996
13.0903
13.1829
13.2662
13.3363
13.402
13.4747
13.5554
13.6359
13.7093
13.756
13.786
13.8268
13.8743
13.9222
13.9509
81.02
18.0135
12.679
12.7309
12.7728
12.8294
12.8873
12.949
13.018
13.0964
13.1786
13.2551
13.3222
13.3855
13.4539
13.5284
13.6016
13.6685
13.7114
13.7463
13.7902
13.8386
13.8847
13.9135
81.0219
18.0022
12.7098
12.7772
12.8215
12.8736
12.9229
12.973
13.0262
13.0872
13.1559
13.2247
13.2883
13.3488
13.413
13.4812
13.5478
13.6082
13.6513
13.6935
13.7398
13.7852
13.8247
13.8502
80.9887
17.9729
12.7431
12.8286
12.8772
12.927
12.9678
13.0033
13.0368
13.0766
13.1269
13.183
13.2395
13.2965
13.3573
13.4183
13.4784
13.5327
13.5795
13.6293
13.6752
13.7073
13.7278
13.7399
80.9203
17.9357
12.769
12.8684
12.9216
12.9708
13.0044
13.0268
13.044
13.0642
13.0926
13.1309
13.1781
13.2316
13.2898
13.3451
13.3978
13.4433
13.4901
13.5346
13.5709
13.5931
13.6022
13.6161
80.8257
17.902
12.7798
12.8822
12.937
12.9857
13.015
13.0298
13.0365
13.0427
13.0547
13.079
13.1183
13.1667
13.219
13.2664
13.3096
13.3468
13.3928
13.4423
13.483
13.4988
13.4873
13.4495
80.7115
17.8832
12.7724
12.8647
12.9136
12.9579
12.9868
13.0041
13.0105
13.0137
13.0214
13.0394
13.0728
13.1137
13.1559
13.192
13.2231
13.2503
13.2864
13.3228
13.3355
13.2962
13.2718
13.2839
80.5784
17.8728
12.7478
12.8196
12.8576
12.8957
12.9286
12.9562
12.9744
12.9864
12.9971
13.0146
13.0423
13.0762
13.1078
13.1317
13.1475
13.1561
13.1693
13.1857
13.1796
13.1497
13.0969
13.3501
80.4232
17.8667
12.7136
12.7614
12.7876
12.8207
12.8579
12.8992
12.9333
12.9584
12.9769
12.996
13.0194
13.0478
13.072
13.0879
13.0871
13.0726
13.0564
13.05
13.0085
12.9483
12.5581
12.0789
80.2465
17.8508
12.6811
12.7095
12.7255
12.754
12.7919
12.8415
12.8887
12.9275
12.955
12.9773
12.9979
13.0217
13.041
13.0519
13.0394
13.0059
12.9601
12.9158
12.838
12.7111
12.5006
12.0986
80.0542
17.8135
12.6576
12.6746
12.6835
12.7077
12.7416
12.7918
12.8457
12.8951
12.9299
12.9544
12.9722
12.9907
13.0064
13.0136
12.9961
12.9514
12.8842
12.7984
12.6942
12.5212
12.3686
12.0426
79.8597
17.7523
12.6428
12.6565
12.6641
12.6864
12.716
12.7601
12.8111
12.8625
12.9004
12.9254
12.9393
12.9497
12.9585
12.9596
12.9436
12.8979
12.824
12.7141
12.5879
12.4171
12.2728
12.0283
79.6732
17.6705
12.6393
12.6525
12.6625
12.6836
12.7095
12.7451
12.7872
12.8323
12.867
12.8887
12.8969
12.8983
12.8948
12.8839
12.8691
12.8299
12.7629
12.6551
12.5193
12.3611
12.194
12.0122
79.502
17.5721
12.6356
12.651
12.6696
12.6896
12.7119
12.7382
12.7678
12.7997
12.8252
12.841
12.8446
12.8383
12.8204
12.7944
12.7729
12.7394
12.6822
12.5919
12.4697
12.3334
12.1677
12.0069
79.3424
17.4597
12.6429
12.6393
12.6693
12.6879
12.7084
12.7282
12.7468
12.7633
12.7758
12.7824
12.7827
12.7722
12.7447
12.7047
12.6683
12.6319
12.5808
12.5062
12.4069
12.2908
12.1535
12.0004
79.1722
17.3677
12.6205
12.6267
12.6564
12.6708
12.6877
12.7029
12.7137
12.7179
12.718
12.7153
12.7139
12.7044
12.6746
12.6258
12.5723
12.5232
12.4693
12.4021
12.3186
12.2238
12.1103
11.9776
78.9895
17.3528
12.5514
12.6003
12.627
12.6332
12.6426
12.6556
12.6638
12.6612
12.6517
12.6406
12.6374
12.6323
12.6073
12.558
12.4933
12.4282
12.3633
12.2936
12.213
12.1289
12.033
11.9204
78.8039
17.3957
12.4771
12.5558
12.5673
12.5707
12.5755
12.5876
12.5981
12.5966
12.5811
12.5623
12.5546
12.5529
12.5363
12.4939
12.4273
12.3508
12.2736
12.1947
12.1089
12.0202
11.93
11.8263
78.6469
17.4325
12.4421
12.4934
12.4952
12.4927
12.4948
12.5099
12.5269
12.5297
12.5106
12.4849
12.4705
12.4671
12.4569
12.4231
12.3618
12.282
12.1971
12.1089
12.0143
11.9149
11.8162
11.7085
78.5242
17.4578
12.4087
12.4199
12.4145
12.4127
12.4168
12.4332
12.4568
12.464
12.4446
12.414
12.3906
12.3798
12.3692
12.3411
12.287
12.2096
12.1221
12.0286
11.9273
11.8173
11.7062
11.5888
78.4303
17.4602
12.3649
12.3602
12.3451
12.3442
12.3481
12.3644
12.3863
12.3957
12.3801
12.3507
12.3212
12.301
12.2822
12.2524
12.2011
12.1267
12.0395
11.9444
11.8403
11.7237
11.6018
11.4748
78.3657
17.4263
12.3256
12.3088
12.2988
12.3011
12.3023
12.3099
12.3173
12.322
12.3111
12.2878
12.2588
12.2332
12.206
12.1687
12.1134
12.0374
11.9485
11.8527
11.7483
11.6297
11.5002
11.3652
78.3197
17.3539
12.3021
12.2754
12.27
12.2812
12.2801
12.2692
12.2531
12.2446
12.2352
12.2195
12.1966
12.1723
12.1429
12.0986
12.0366
11.9552
11.8608
11.7614
11.6561
11.538
11.4043
11.2616
78.2807
17.2608
12.2813
12.2657
12.2726
12.2828
12.2708
12.2401
12.2019
12.175
12.1587
12.1448
12.1284
12.1107
12.0881
12.0437
11.9781
11.8913
11.7902
11.6854
11.5777
11.4605
11.3245
11.174
78.2299
17.1718
12.2524
12.2748
12.2864
12.2877
12.2658
12.225
12.1729
12.1268
12.0933
12.0703
12.0539
12.0419
12.0301
11.9946
11.9329
11.8472
11.744
11.6362
11.5257
11.4081
11.2716
11.1157
78.1463
17.1164
12.2099
12.2586
12.2802
12.2838
12.2643
12.2229
12.1637
12.1016
12.0478
12.0081
11.9821
11.9685
11.9625
11.9411
11.8899
11.8135
11.7157
11.6096
11.4995
11.3837
11.25
11.0917
78.0502
17.1053
12.1684
12.2183
12.2515
12.2641
12.2551
12.2224
12.165
12.0949
12.0243
11.9665
11.9262
11.9037
11.8945
11.8818
11.8423
11.7774
11.6898
11.5913
11.4863
11.3762
11.2496
11.0963
77.9688
17.101
12.1237
12.1684
12.2067
12.2254
12.2246
12.2042
12.1588
12.0927
12.0182
11.95
11.8975
11.8644
11.8454
11.8295
11.7947
11.7358
11.6562
11.5646
11.4657
11.3638
11.2486
11.1091
77.9142
17.0881
12.0741
12.1336
12.1646
12.1747
12.1734
12.162
12.1305
12.0776
12.0105
11.9456
11.8905
11.8537
11.8274
11.7996
11.7547
11.6922
11.6129
11.5232
11.4277
11.3316
11.2283
11.1078
77.8771
17.0365
12.0743
12.1342
12.1392
12.1219
12.1046
12.0915
12.0698
12.0328
11.9834
11.9345
11.8925
11.8613
11.833
11.7925
11.7314
11.6545
11.5661
11.4713
11.375
11.2809
11.1857
11.0815
77.8376
16.9458
12.1127
12.16
12.1317
12.0788
12.0344
12.0079
11.9852
11.9601
11.9323
11.9095
11.8926
11.8727
11.8435
11.7921
11.7169
11.6253
11.5252
11.4221
11.3227
11.2269
11.1342
11.0375
77.7869
16.8776
12.1729
12.1824
12.1192
12.0386
11.9667
11.9194
11.8911
11.8792
11.8803
11.8867
11.8855
11.8682
11.8337
11.7777
11.6977
11.5995
11.4948
11.3901
11.2886
11.1891
11.0945
10.9946
77.7717
16.8799
12.2124
12.1771
12.0883
11.9897
11.8973
11.8373
11.8153
11.8292
11.8575
11.8778
11.8719
11.8434
11.7961
11.7338
11.6546
11.5599
11.4602
11.3638
11.2733
11.181
11.0839
10.9709
77.7666
16.9515
12.2045
12.1459
12.0419
11.9338
11.8477
11.8071
11.8073
11.8373
11.8677
11.8748
11.8508
11.8009
11.7357
11.6637
11.5858
11.5028
11.4191
11.3415
11.2708
11.1916
11.095
10.9697
77.7793
17.0575
12.1713
12.0992
11.9899
11.8883
11.8219
11.8051
11.8314
11.8699
11.8913
11.8792
11.8325
11.7604
11.6766
11.5935
11.5148
11.4417
11.3792
11.3249
11.2718
11.2025
11.1066
10.9757
77.7825
17.1479
12.125
12.0466
11.941
11.8618
11.8189
11.8306
11.8676
11.9002
11.9052
11.8767
11.8163
11.7311
11.6325
11.5387
11.4607
11.4021
11.3603
11.3222
11.272
11.2003
11.102
10.9715
77.735
17.1907
12.0699
11.9932
11.9152
11.8725
11.8651
11.8876
11.9123
11.9109
11.8846
11.8401
11.779
11.6974
11.6029
11.5137
11.4482
11.405
11.372
11.3304
11.2679
11.1828
11.0771
10.9498
77.6524
17.184
11.9949
11.9451
11.9209
11.9361
11.9567
11.9653
11.952
11.9036
11.8359
11.7673
11.707
11.6506
11.5957
11.5412
11.496
11.4536
11.4071
11.3431
11.2594
11.1577
11.0431
10.9185
77.5751
17.1431
11.88
11.9198
11.9553
12.0344
12.0717
12.0503
11.983
11.8774
11.7685
11.6796
11.6189
11.5878
11.5828
11.5808
11.5645
11.5237
11.4569
11.3655
11.2564
11.1355
11.0102
10.884
77.5124
17.1011
11.7651
11.9214
12.0155
12.1196
12.1554
12.1155
12.0009
11.8556
11.7203
11.6248
11.5807
11.583
11.6086
11.6315
11.6244
11.574
11.4887
11.3773
11.2521
11.1232
10.9987
10.877
10.0276
11.1016
11.5541
11.7778
11.8444
11.87
11.8755
11.8748
11.837
12.0674
11.8889
11.8919
11.8717
11.8804
11.8656
11.8836
11.8292
11.8563
11.7708
11.8343
11.8405
11.8933
11.9235
11.941
11.8858
11.8815
11.8585
11.9045
11.8916
11.918
11.9578
11.9848
11.8984
11.8543
11.8103
11.8037
11.7802
11.8207
11.9057
11.9825
11.8743
11.8251
11.7883
11.7493
11.7285
11.7764
11.9005
11.9758
11.8629
11.7805
11.7203
11.6337
11.5568
11.548
11.6139
11.7438
11.8397
11.7325
11.6522
11.5397
11.4001
11.3235
11.3379
11.6827
11.7892
11.6658
11.5514
11.4149
11.208
10.9258
10.2793
8.36543
11.7027
11.5653
11.4212
11.2374
10.9485
10.4591
9.59911
7.64813
11.5807
11.4279
11.2583
11.0378
10.7134
10.1352
9.26523
7.48852
11.4523
11.2819
11.0811
10.8281
10.4786
9.9166
9.05384
7.65838
11.3318
11.1518
10.9256
10.6444
10.2749
9.75025
8.98911
7.91916
11.2191
11.0408
10.8073
10.5119
10.1335
9.64747
8.9944
8.16011
11.1111
10.9393
10.7164
10.4296
10.0605
9.6095
9.04112
8.36139
11.0137
10.8429
10.6363
10.3745
10.0333
9.61579
9.11696
8.53885
10.9428
10.7628
10.5615
10.3231
10.0187
9.64253
9.2101
8.70981
10.9076
10.7122
10.5027
10.2731
10.0021
9.67198
9.29887
8.86654
10.9086
10.699
10.4748
10.2396
9.98614
9.68909
9.36211
8.98939
10.9314
10.7205
10.4862
10.2401
9.98705
9.70566
9.40823
9.07968
10.952
10.7556
10.526
10.2745
10.0159
9.73928
9.45536
9.15233
10.9505
10.7801
10.5693
10.326
10.0691
9.79754
9.51774
9.22506
10.9228
10.7771
10.5927
10.3698
10.1265
9.86587
9.59369
9.30868
10.8818
10.7469
10.5849
10.388
10.168
9.92691
9.66958
9.39715
10.8454
10.706
10.554
10.3801
10.1861
9.96956
9.73332
9.47726
10.8264
10.6733
10.5196
10.3594
10.1865
9.99297
9.77836
9.54064
10.8233
10.6599
10.5002
10.3428
10.181
10.0036
9.80517
9.58292
10.8214
10.6597
10.4987
10.3392
10.1786
10.0069
9.81764
9.60736
10.8097
10.6594
10.5049
10.3458
10.1822
10.0092
9.8221
9.61822
10.7886
10.6512
10.507
10.3519
10.1866
10.0105
9.82277
9.62207
10.7595
10.6319
10.4981
10.3507
10.1886
10.0122
9.82332
9.62368
10.7566
10.6313
10.4965
10.3477
10.1845
10.0067
9.81699
9.61789
2.41933
1.00032
0.661937
0.705152
0.944842
1.41218
2.13142
2.79709
3.34333
3.99613
4.52451
4.6675
5.08138
5.76219
5.99601
6.24374
6.36907
6.3795
6.28869
6.21012
6.15633
6.17193
6.16921
6.06403
5.94577
5.8381
5.76717
5.73701
5.65734
5.54664
5.42156
5.30072
5.19775
5.10007
4.99862
4.88892
4.76029
4.62952
4.52681
4.43965
4.35835
4.28159
4.20633
4.12554
4.03227
3.92589
3.81271
3.70631
3.61017
3.57661
3.61362
3.75391
4.09657
4.5932
5.0359
5.24665
5.25681
5.19724
5.12474
5.08919
5.07356
5.08073
5.11565
5.12573
5.09923
5.06077
5.00365
4.93915
4.88964
4.84718
4.79957
4.74149
4.66943
4.59957
4.5506
4.5137
4.48507
4.46757
4.45017
4.42656
4.39414
4.35539
4.29913
4.2254
4.16481
4.11919
4.08157
4.01381
3.82633
2.55433
1.9776
1.62265
1.57297
1.6643
1.84003
2.14022
2.61301
3.24502
3.89516
4.27801
4.87546
5.70633
6.04449
6.2508
6.39566
6.43076
6.4058
6.34451
6.26887
6.22473
6.17498
6.0751
5.95994
5.84784
5.75615
5.68321
5.58715
5.47631
5.35294
5.235
5.13411
5.03964
4.94591
4.84912
4.74295
4.62976
4.52739
4.43609
4.35106
4.27169
4.19548
4.11505
4.02472
3.92236
3.81624
3.72047
3.63255
3.62513
3.6886
3.85259
4.13776
4.52831
4.90059
5.1529
5.19992
5.17047
5.1286
5.09424
5.07419
5.0709
5.08713
5.09106
5.06724
5.03399
4.99058
4.93022
4.8684
4.82642
4.78712
4.74
4.68502
4.62452
4.56788
4.52542
4.49429
4.47104
4.44457
4.41213
4.37684
4.33547
4.28312
4.22259
4.16413
4.11585
4.07781
4.0131
5.08238
3.75215
3.11464
2.50996
2.15454
2.05439
1.97541
2.08922
2.3684
2.72369
3.27233
3.90501
4.57029
5.61696
6.16884
6.41014
6.37915
6.3596
6.39614
6.41308
6.3712
6.29165
6.19333
6.08691
5.99482
5.90859
5.82133
5.71588
5.59829
5.47088
5.34518
5.23425
5.13021
5.02322
4.91183
4.8001
4.69686
4.6039
4.51679
4.43129
4.3454
4.25876
4.17077
4.0786
3.98553
3.89065
3.80595
3.74246
3.70815
3.73839
3.83195
4.00421
4.181
4.40251
4.70649
5.04607
5.17129
5.1899
5.16778
5.13279
5.10138
5.08044
5.06605
5.05121
5.03722
5.01453
4.98526
4.94349
4.87928
4.80265
4.74563
4.7069
4.67056
4.63234
4.59357
4.55573
4.5199
4.48321
4.44402
4.40228
4.35612
4.30791
4.25966
4.21177
4.16062
4.10538
4.06101
4.00127
6.12511
4.87652
4.13903
3.56726
2.98361
2.7517
2.54145
2.4093
2.38694
2.44292
2.66495
3.2025
3.87448
4.84874
5.93844
6.47638
6.52115
6.39047
6.41599
6.48071
6.43958
6.34571
6.2059
6.05519
5.95381
5.87625
5.79446
5.69488
5.56705
5.42469
5.30159
5.19982
5.10544
5.0105
4.91092
4.80618
4.70345
4.6091
4.52246
4.43976
4.35816
4.27288
4.17928
4.07619
3.96891
3.86541
3.7882
3.76559
3.79806
3.88803
4.03688
4.1723
4.23749
4.31951
4.49823
4.83302
5.09124
5.167
5.16253
5.14473
5.12454
5.09415
5.05303
5.0248
5.00426
4.98252
4.95679
4.92576
4.88083
4.81303
4.74847
4.70346
4.66505
4.62995
4.59651
4.56113
4.52002
4.47353
4.42821
4.38549
4.34129
4.29725
4.25691
4.21812
4.17467
4.12018
4.06385
3.99354
6.84952
5.82349
5.02704
4.46014
3.89185
3.4675
3.16014
2.90706
2.76082
2.67699
2.73081
2.83439
3.15258
3.84949
5.07669
6.17416
6.63259
6.61703
6.54857
6.49868
6.40964
6.30926
6.19015
6.06633
5.95981
5.86574
5.76911
5.65446
5.51391
5.37012
5.25283
5.15543
5.06404
4.97533
4.88736
4.79622
4.69845
4.59874
4.50741
4.42632
4.35255
4.27481
4.18292
4.07478
3.95161
3.84654
3.80941
3.83326
3.92871
4.0928
4.21142
4.28376
4.28061
4.29019
4.3638
4.58803
4.9218
5.14526
5.19251
5.17996
5.15513
5.11839
5.05852
5.00651
4.97875
4.95487
4.92909
4.89755
4.85427
4.79634
4.74484
4.70896
4.67625
4.64469
4.61012
4.56976
4.51817
4.45485
4.39175
4.33999
4.30121
4.27008
4.2401
4.20914
4.17403
4.1324
4.08398
4.01212
7.32906
6.49829
5.77698
5.19887
4.65845
4.19204
3.85329
3.53906
3.30126
3.16856
3.05559
2.99502
2.97507
3.11269
3.74801
5.19066
6.44319
6.66127
6.64029
6.49808
6.35275
6.25271
6.16769
6.07208
5.95762
5.82987
5.70117
5.57591
5.44851
5.3294
5.22891
5.13925
5.05365
4.9687
4.88072
4.78709
4.68709
4.58957
4.50523
4.43247
4.36397
4.28765
4.18625
4.05159
3.92016
3.85002
3.86427
3.94786
4.15046
4.30934
4.33926
4.353
4.34199
4.31132
4.31974
4.41549
4.6825
5.00102
5.19447
5.20643
5.17675
5.13046
5.06982
5.00219
4.96216
4.93492
4.90657
4.8735
4.83339
4.78684
4.74438
4.7097
4.67685
4.64284
4.60649
4.56398
4.5087
4.44463
4.38395
4.3328
4.29173
4.25712
4.22448
4.19231
4.15916
4.12427
4.08725
4.0324
7.67685
6.96773
6.3491
5.81479
5.29567
4.81691
4.46458
4.17492
3.88053
3.61589
3.44443
3.31397
3.18339
3.12129
3.17525
3.77358
5.4352
6.55559
6.67813
6.46913
6.31397
6.22178
6.14953
6.05701
5.94032
5.80036
5.66138
5.53309
5.42118
5.32697
5.24249
5.1599
5.07447
4.98651
4.88823
4.77794
4.676
4.59879
4.53647
4.46996
4.38376
4.26251
4.11045
3.98047
3.91528
3.90463
3.97253
4.16827
4.39942
4.45669
4.44766
4.42377
4.40246
4.36149
4.32627
4.35143
4.48564
4.7845
5.07697
5.19863
5.1867
5.14358
5.0827
5.01529
4.95816
4.92033
4.88831
4.85362
4.81764
4.78332
4.74925
4.71469
4.67815
4.63844
4.59437
4.54372
4.48715
4.4339
4.38664
4.34038
4.29288
4.24645
4.2064
4.17361
4.14484
4.11498
4.08929
4.05494
7.9459
7.3329
6.76916
6.29199
5.82919
5.36002
4.96928
4.69008
4.433
4.15322
3.86673
3.68681
3.53615
3.36159
3.24943
3.28919
3.91909
5.65975
6.49816
6.41372
6.33857
6.23891
6.11801
6.0114
5.90302
5.78271
5.65814
5.54428
5.44611
5.36052
5.2792
5.19608
5.09985
4.98861
4.87714
4.77324
4.68167
4.59806
4.51367
4.42411
4.31757
4.17841
4.0464
3.96988
3.94129
3.99911
4.19937
4.44598
4.56267
4.58247
4.55664
4.51127
4.46354
4.41394
4.36561
4.35174
4.39425
4.56642
4.87597
5.11749
5.17534
5.152
5.10249
5.04164
4.97543
4.91845
4.87995
4.8469
4.81648
4.7885
4.75488
4.71799
4.67923
4.63513
4.58429
4.52905
4.47678
4.43268
4.3911
4.34728
4.29884
4.24749
4.19986
4.1655
4.1387
4.10935
4.08547
4.09042
8.18271
7.63581
7.12692
6.6731
6.24633
5.82264
5.42021
5.09688
4.857
4.62551
4.35625
4.0576
3.84279
3.67725
3.5185
3.37629
3.41013
4.09115
5.55688
6.29699
6.39981
6.28896
6.11226
5.9716
5.86032
5.7613
5.67047
5.58123
5.48953
5.39014
5.28085
5.16434
5.05144
4.94522
4.84516
4.75268
4.6626
4.57015
4.47248
4.36252
4.22688
4.09554
4.01843
3.98679
4.02552
4.22877
4.48952
4.63452
4.69513
4.69106
4.65316
4.59182
4.51841
4.46158
4.41722
4.3859
4.38232
4.43235
4.62735
4.92697
5.12487
5.15789
5.12874
5.07785
5.01585
4.94799
4.89056
4.85027
4.81474
4.78453
4.75004
4.71201
4.67294
4.62938
4.57947
4.52568
4.47717
4.43594
4.39652
4.35678
4.31453
4.2692
4.22101
4.1699
4.12084
4.09723
4.09777
4.17376
8.40211
7.9121
7.44302
6.99967
6.5899
6.18611
5.82074
5.48482
5.19384
4.97192
4.75273
4.48171
4.18829
3.98343
3.83914
3.6568
3.48876
3.51248
4.16052
5.54556
6.29439
6.28478
6.0916
5.93901
5.83667
5.7425
5.6668
5.5885
5.49638
5.38554
5.25384
5.11793
4.9981
4.89448
4.80084
4.71044
4.6186
4.51997
4.40646
4.27366
4.1402
4.05263
4.02734
4.05882
4.25001
4.55358
4.72589
4.79263
4.81003
4.77909
4.72331
4.64316
4.56952
4.52432
4.4856
4.43807
4.39792
4.38628
4.44249
4.66364
4.96325
5.13585
5.1484
5.11259
5.05339
4.98651
4.92184
4.86572
4.8236
4.78495
4.74863
4.71088
4.67226
4.63057
4.58547
4.53773
4.49179
4.45166
4.41258
4.37293
4.33258
4.28831
4.23306
4.1651
4.12409
4.13265
4.18488
4.33699
8.58482
8.156
7.72989
7.31063
6.89003
6.50188
6.14376
5.83535
5.53314
5.24655
5.02564
4.81236
4.56298
4.30915
4.09677
3.92996
3.72661
3.55961
3.61248
4.31014
5.62765
6.11892
6.03449
5.92417
5.83365
5.73747
5.65535
5.56695
5.46844
5.34895
5.20738
5.06721
4.94733
4.84503
4.75088
4.65971
4.56537
4.45811
4.33048
4.19591
4.09022
4.05309
4.07578
4.26374
4.62982
4.84815
4.91285
4.9196
4.89038
4.83315
4.75986
4.68315
4.63294
4.59468
4.55344
4.49277
4.41478
4.36935
4.37103
4.46302
4.72287
5.03738
5.14213
5.12919
5.08011
5.01712
4.95336
4.89244
4.83796
4.79626
4.75644
4.71803
4.67747
4.63831
4.59866
4.55727
4.51372
4.47012
4.42742
4.38402
4.3392
4.29309
4.23307
4.18474
4.19224
4.26766
4.37278
4.50716
8.72438
8.3489
7.96948
7.58148
7.18601
6.79688
6.44044
6.12131
5.83481
5.54143
5.25681
5.03754
4.84365
4.62798
4.39694
4.1717
3.98056
3.7704
3.63828
3.71037
4.41338
5.56678
5.92013
5.90414
5.82159
5.73558
5.6384
5.53091
5.40447
5.2675
5.1348
5.01111
4.90086
4.80127
4.70513
4.6111
4.50975
4.38904
4.2543
4.1348
4.0823
4.09302
4.25723
4.66925
4.98316
5.07514
5.04797
4.99255
4.92339
4.85189
4.78247
4.73382
4.69652
4.65432
4.60216
4.52925
4.43567
4.37519
4.35784
4.38342
4.51845
4.8307
5.06326
5.11176
5.08448
5.04032
4.9832
4.92105
4.85459
4.79636
4.75381
4.71542
4.684
4.64966
4.61179
4.57132
4.52822
4.47687
4.42097
4.36985
4.33003
4.29167
4.26928
4.28353
4.35829
4.47344
4.55548
4.61406
8.8317
8.49763
8.15465
7.79814
7.43349
7.07237
6.72378
6.39621
6.08654
5.80114
5.51462
5.25119
5.04136
4.86009
4.66335
4.44454
4.22016
3.98896
3.7757
3.691
3.77012
4.46113
5.41821
5.72471
5.79413
5.71191
5.60653
5.48133
5.33798
5.19479
5.06335
4.95398
4.85999
4.76755
4.67596
4.57179
4.44675
4.3124
4.18712
4.11575
4.11425
4.25625
4.66426
5.07804
5.22612
5.19321
5.11354
5.02219
4.93958
4.86985
4.81771
4.78342
4.74401
4.69038
4.62434
4.54896
4.4628
4.40052
4.36301
4.36111
4.40408
4.57193
4.84114
5.01993
5.06366
5.03159
4.98146
4.92309
4.85902
4.79571
4.74988
4.71017
4.67437
4.64184
4.60712
4.56682
4.51739
4.46367
4.41103
4.36895
4.33336
4.33316
4.36637
4.44795
4.567
4.64521
4.67186
4.67201
8.92329
8.614
8.29642
7.96752
7.63026
7.30002
6.97811
6.65431
6.33278
6.02738
5.74849
5.48501
5.24738
5.03601
4.84677
4.66006
4.45294
4.2386
3.98756
3.77578
3.72253
3.80841
4.44221
5.27625
5.66316
5.655
5.52339
5.39138
5.26396
5.13327
5.01985
4.92421
4.83869
4.75105
4.6407
4.50069
4.36568
4.24385
4.16125
4.1461
4.2515
4.64751
5.13581
5.33175
5.30071
5.22039
5.12428
5.03313
4.95904
4.90424
4.86272
4.81675
4.75752
4.6945
4.62927
4.56252
4.50219
4.44958
4.40006
4.35812
4.33287
4.37332
4.54218
4.78423
4.98404
5.00727
4.97734
4.91988
4.85002
4.78618
4.73729
4.6976
4.66622
4.63559
4.59531
4.5476
4.49613
4.44822
4.40969
4.37454
4.38213
4.43088
4.53034
4.63098
4.72788
4.74049
4.72684
4.69816
9.0155
8.71565
8.41245
8.10329
7.79111
7.48568
7.18518
6.87781
6.56292
6.25564
5.96454
5.69764
5.45391
5.22816
5.01041
4.80614
4.6226
4.43472
4.23371
3.98281
3.76466
3.70893
3.80285
4.37579
5.22889
5.4819
5.40967
5.2915
5.18902
5.09312
5.00125
4.91013
4.81312
4.70035
4.56733
4.42861
4.30646
4.20014
4.16634
4.22744
4.58406
5.15716
5.43307
5.40729
5.30547
5.20009
5.11793
5.05114
4.99676
4.94778
4.89224
4.82116
4.75071
4.68817
4.63098
4.58493
4.5424
4.49353
4.42864
4.34837
4.27755
4.26389
4.32262
4.50647
4.79527
4.95326
4.94833
4.89641
4.83071
4.77796
4.72836
4.68623
4.65091
4.61148
4.56451
4.51621
4.47458
4.44549
4.41905
4.43237
4.48689
4.60181
4.69711
4.75908
4.79411
4.79005
4.76059
4.69088
9.11271
8.81825
8.52073
8.22201
7.92768
7.63833
7.35208
7.0607
6.7595
6.46671
6.17946
5.89948
5.64019
5.40532
5.18064
4.96231
4.75514
4.5689
4.39483
4.19961
3.95425
3.74491
3.67202
3.75884
4.31003
5.05992
5.26272
5.24236
5.14054
5.05555
4.98274
4.89466
4.77945
4.63985
4.49183
4.37131
4.25966
4.19246
4.22101
4.50833
5.12401
5.51608
5.52611
5.41059
5.27548
5.18443
5.12413
5.07834
5.03497
4.98222
4.90206
4.81672
4.74694
4.69076
4.64765
4.61139
4.57108
4.51306
4.4265
4.33764
4.26525
4.23107
4.23623
4.31369
4.53687
4.81635
4.87804
4.85723
4.8145
4.77352
4.7297
4.68303
4.63303
4.57804
4.52344
4.48389
4.46265
4.45826
4.48471
4.5544
4.66445
4.7769
4.80088
4.81627
4.82484
4.80545
4.75937
4.67519
9.20504
8.92032
8.62928
8.33611
8.04797
7.76609
7.48903
7.20734
6.9229
6.64128
6.36653
6.08998
5.81753
5.56323
5.32979
5.10961
4.89774
4.69666
4.5064
4.32541
4.12878
3.89473
3.70179
3.62131
3.70216
4.2145
4.83902
5.09604
5.10814
5.01949
4.91839
4.80983
4.69514
4.56461
4.42962
4.29432
4.21527
4.19904
4.40606
5.01969
5.55004
5.63046
5.52623
5.37678
5.26699
5.20002
5.15175
5.10993
5.06378
4.99182
4.89872
4.81597
4.75859
4.7155
4.67692
4.63639
4.58552
4.50838
4.42206
4.34233
4.27498
4.23263
4.21024
4.22718
4.32578
4.56677
4.73655
4.80214
4.80364
4.7878
4.73784
4.67996
4.61045
4.53939
4.4961
4.47257
4.47901
4.52081
4.62033
4.73744
4.85241
4.88297
4.86349
4.84136
4.81189
4.77402
4.73123
4.65459
9.28288
9.0106
8.72876
8.44217
8.15677
7.87584
7.60077
7.32658
7.05498
6.78298
6.51459
6.24672
5.97699
5.71232
5.46143
5.23036
5.01691
4.81388
4.61886
4.42907
4.23273
4.02181
3.80088
3.63712
3.56148
3.64321
4.09623
4.67686
4.9607
4.94537
4.84078
4.71307
4.59468
4.47381
4.34132
4.23967
4.2026
4.3285
4.88646
5.52531
5.7023
5.641
5.50677
5.38226
5.30165
5.24154
5.18909
5.13664
5.06804
4.98057
4.89695
4.84119
4.79821
4.75539
4.70969
4.65397
4.57478
4.49248
4.42417
4.3661
4.31346
4.26732
4.2283
4.20084
4.21079
4.32329
4.52529
4.69374
4.79712
4.79355
4.74276
4.66465
4.57898
4.52042
4.49588
4.50035
4.5404
4.65717
4.79053
4.89937
4.95711
4.94084
4.89713
4.84055
4.78123
4.73259
4.68969
4.62994
9.33889
9.07898
8.80797
8.53059
8.25089
7.97177
7.69504
7.42364
7.15387
6.89191
6.62954
6.36531
6.10077
5.83799
5.58311
5.34174
5.11455
4.90162
4.70097
4.51038
4.32423
4.12949
3.90857
3.69229
3.54692
3.47853
3.56512
3.97442
4.53446
4.79065
4.74392
4.61845
4.49338
4.34988
4.24996
4.21654
4.29308
4.76171
5.49155
5.75531
5.72185
5.61126
5.49166
5.41135
5.35059
5.29184
5.22741
5.14818
5.05364
4.97295
4.92268
4.88257
4.84128
4.79415
4.73514
4.64982
4.55706
4.48672
4.44333
4.40583
4.36466
4.31923
4.26698
4.20356
4.17482
4.19388
4.32409
4.5288
4.72466
4.76102
4.72269
4.63005
4.55994
4.52837
4.52977
4.57339
4.68946
4.83622
4.92624
4.98544
4.99673
4.96747
4.9178
4.85522
4.77564
4.69932
4.65765
4.61588
9.37595
9.12725
8.86585
8.59657
8.32326
8.04818
7.77345
7.50479
7.23551
6.97745
6.7178
6.45477
6.19207
5.93217
5.67811
5.43384
5.2018
4.98103
4.76945
4.56726
4.37826
4.19791
4.01204
3.80073
3.59026
3.44223
3.37681
3.46068
3.83964
4.36687
4.56975
4.52381
4.39909
4.2498
4.20878
4.26305
4.62479
5.40083
5.8179
5.83148
5.72303
5.59471
5.50237
5.44627
5.39242
5.33304
5.25393
5.1464
5.04467
4.98828
4.95039
4.91548
4.87157
4.82013
4.74612
4.64299
4.55257
4.50645
4.47438
4.44778
4.40876
4.36103
4.29756
4.21477
4.16509
4.16046
4.20355
4.33919
4.56053
4.67057
4.65451
4.58965
4.56369
4.56411
4.61769
4.73549
4.88975
4.9801
5.00019
5.00616
5.00823
4.9802
4.93642
4.87833
4.79059
4.70093
4.65889
4.62168
9.39697
9.159
8.90696
8.64582
8.37864
8.10642
7.83708
7.57197
7.30273
7.04557
6.78973
6.52645
6.26403
6.00551
5.75223
5.506
5.2693
5.04279
4.82657
4.61969
4.42328
4.23849
4.06343
3.88285
3.68182
3.48511
3.34226
3.27487
3.34837
3.70335
4.11958
4.34297
4.2786
4.20858
4.2351
4.51116
5.23951
5.81581
5.87837
5.82414
5.70784
5.60149
5.5315
5.47374
5.41751
5.34848
5.25958
5.14315
5.05483
5.00828
4.96698
4.93116
4.8889
4.83134
4.74579
4.64143
4.57718
4.5377
4.50416
4.47292
4.43681
4.38482
4.31005
4.23447
4.18457
4.15846
4.15557
4.19727
4.3178
4.48041
4.54302
4.55415
4.58359
4.66149
4.78582
4.95194
5.05095
5.04096
5.03348
5.01753
5.01081
4.9829
4.94069
4.88677
4.80247
4.72678
4.68827
4.64825
9.40739
9.17854
8.93538
8.68192
8.41964
8.15267
7.88901
7.62385
7.36422
7.10644
6.84755
6.58302
6.32068
6.06199
5.80819
5.56046
5.32097
5.09061
4.87057
4.66021
4.46075
4.273
4.096
3.92395
3.74422
3.55367
3.37257
3.24151
3.16113
3.21367
3.50119
3.94279
4.08442
4.18437
4.45877
5.06074
5.73328
5.96749
5.91795
5.82243
5.71997
5.63212
5.55387
5.48226
5.41291
5.33836
5.24944
5.15604
5.08564
5.02693
4.97224
4.92527
4.87573
4.81294
4.73325
4.66254
4.61254
4.56387
4.51864
4.47873
4.42898
4.36597
4.30592
4.25811
4.21279
4.17197
4.13868
4.11076
4.12441
4.2399
4.39154
4.50578
4.64244
4.82175
4.98851
5.1054
5.1313
5.0943
5.06389
5.03916
5.01901
4.97664
4.93004
4.87256
4.80579
4.75464
4.72545
4.68398
9.41223
9.18867
8.95276
8.70488
8.44785
8.18531
7.92149
7.64887
7.38852
7.13886
6.88071
6.6206
6.35994
6.09965
5.84392
5.59549
5.35633
5.12616
4.90538
4.6928
4.48937
4.29556
4.11391
3.94466
3.78181
3.61156
3.42967
3.25416
3.11164
3.0055
3.07265
3.37633
3.80321
4.28959
4.93887
5.61153
5.90588
5.94409
5.89685
5.81555
5.73909
5.65705
5.57071
5.48119
5.39072
5.30608
5.22977
5.16782
5.11721
5.06301
4.99966
4.92383
4.84338
4.7711
4.71975
4.67929
4.63618
4.58846
4.53564
4.47334
4.40529
4.34955
4.30999
4.27121
4.22781
4.18049
4.13009
4.06644
4.03602
4.08244
4.22869
4.45638
4.71032
4.97699
5.13881
5.18324
5.14857
5.12103
5.08942
5.06613
5.02745
4.97308
4.9085
4.84675
4.81093
4.7846
4.76965
4.71475
9.41031
9.19304
8.96458
8.72268
8.4707
8.21276
7.94758
7.68545
7.43008
7.17181
6.90872
6.64765
6.38312
6.12069
5.86418
5.61653
5.37919
5.15036
4.92954
4.715
4.50824
4.30944
4.12346
3.95041
3.79371
3.64095
3.47642
3.28718
3.11068
2.93608
2.89642
2.99602
3.48542
4.3786
5.30652
6.07871
6.1083
5.98896
5.89533
5.81728
5.74065
5.65818
5.56985
5.47174
5.36504
5.27757
5.22485
5.18523
5.14088
5.08724
5.01171
4.9095
4.81174
4.7543
4.71239
4.68107
4.64649
4.60062
4.5401
4.4524
4.38033
4.34209
4.31057
4.27768
4.23743
4.18964
4.13387
4.0543
3.98718
4.00033
4.11186
4.39612
4.76875
5.0737
5.2248
5.26599
5.20159
5.15391
5.12005
5.08017
5.02865
4.95943
4.88165
4.83948
4.81519
4.80893
4.7951
4.72997
)
;

boundaryField
{
    inlet
    {
        type            fixedValue;
        value           uniform 1;
    }
    outlet
    {
        type            zeroGradient;
    }
    bottom
    {
        type            zeroGradient;
    }
    top
    {
        type            zeroGradient;
    }
    obstacle
    {
        type            zeroGradient;
    }
    defaultFaces
    {
        type            empty;
    }
}


// ************************************************************************* //
