/*--------------------------------*- C++ -*----------------------------------*\
  =========                 |
  \\      /  F ield         | OpenFOAM: The Open Source CFD Toolbox
   \\    /   O peration     | Website:  https://openfoam.org
    \\  /    A nd           | Version:  7
     \\/     M anipulation  |
\*---------------------------------------------------------------------------*/
FoamFile
{
    version     2.0;
    format      ascii;
    class       volScalarField;
    location    "5.2";
    object      rho;
}
// * * * * * * * * * * * * * * * * * * * * * * * * * * * * * * * * * * * * * //

dimensions      [1 -3 0 0 0 0 0];

internalField   nonuniform List<scalar> 
3328
(
30.2412
9.06264
6.82377
6.83503
6.84057
6.85287
6.86796
6.88648
6.91002
6.93915
6.9699
6.99799
7.02191
7.04469
7.06978
7.09595
7.11616
7.12221
7.09712
7.02231
6.88451
6.7044
6.56297
6.51238
30.2401
9.06262
6.83182
6.8472
6.85503
6.86755
6.88098
6.89685
6.91664
6.94114
6.96796
6.99353
7.01632
7.03823
7.06179
7.0857
7.10316
7.10712
7.08145
7.00886
6.8725
6.6929
6.55093
6.50039
30.2284
9.05573
6.84251
6.8638
6.87244
6.88333
6.8935
6.90493
6.91875
6.93655
6.95829
6.98095
7.00253
7.02353
7.04571
7.0675
7.08274
7.08517
7.06144
6.99336
6.85916
6.67843
6.53321
6.481
30.2008
9.04028
6.85287
6.88099
6.89139
6.90168
6.9087
6.9146
6.92079
6.93054
6.94528
6.96324
6.98233
7.00225
7.02348
7.04301
7.0565
7.05811
7.03853
6.9768
6.84542
6.66004
6.50606
6.44797
30.1602
9.02102
6.85938
6.89261
6.90488
6.91541
6.92003
6.92103
6.92128
6.92373
6.93022
6.94142
6.957
6.97578
6.99633
7.01414
7.02601
7.02646
7.0104
6.95273
6.82398
6.63565
6.47314
6.41271
30.1106
9.00286
6.85996
6.8945
6.90799
6.91889
6.92225
6.92054
6.91686
6.91399
6.91424
6.91993
6.93236
6.94919
6.9677
6.98285
6.99233
6.99226
6.98029
6.93268
6.81474
6.62472
6.44671
6.36206
30.0545
8.98996
6.85349
6.88449
6.89613
6.90585
6.90958
6.90915
6.90527
6.90095
6.89947
6.90277
6.91282
6.92685
6.94168
6.95287
6.95881
6.95749
6.9469
6.90495
6.79117
6.58592
6.3882
6.30447
29.9921
8.97981
6.83972
6.86285
6.87017
6.87778
6.88359
6.88768
6.88851
6.88756
6.88708
6.89013
6.89813
6.90963
6.92074
6.92759
6.92862
6.92279
6.90878
6.87116
6.76956
6.57666
6.34421
6.3086
29.9217
8.97084
6.82181
6.83596
6.83879
6.84459
6.85242
6.862
6.86912
6.87315
6.87552
6.87916
6.88552
6.89494
6.90331
6.90758
6.90342
6.89092
6.87055
6.8354
6.74245
6.56757
6.21727
5.85694
29.8423
8.95774
6.80439
6.81123
6.81061
6.81491
6.82318
6.83608
6.84827
6.85751
6.86306
6.86768
6.87291
6.88042
6.88679
6.88959
6.88219
6.86426
6.83646
6.79646
6.71196
6.55164
6.30101
5.96043
29.7544
8.93598
6.79019
6.79277
6.78999
6.79291
6.79952
6.81278
6.82775
6.84107
6.84913
6.85426
6.85819
6.86359
6.86845
6.87006
6.862
6.84127
6.80799
6.75916
6.68312
6.54225
6.35849
6.06927
29.6607
8.90396
6.77894
6.78071
6.77807
6.78062
6.7858
6.79661
6.81025
6.8241
6.83322
6.8383
6.84045
6.84254
6.84463
6.84423
6.83738
6.81753
6.78414
6.73083
6.65841
6.54631
6.40814
6.19054
29.5668
8.8633
6.77161
6.77355
6.77231
6.77501
6.77936
6.78704
6.79697
6.80796
6.81551
6.81906
6.81865
6.81703
6.81458
6.80992
6.80367
6.78724
6.7583
6.70951
6.64113
6.55046
6.43494
6.28171
29.4819
8.81735
6.76443
6.76727
6.76933
6.77146
6.77458
6.77911
6.78454
6.79065
6.79448
6.79529
6.79272
6.78803
6.78007
6.76966
6.76108
6.74743
6.72359
6.68454
6.62685
6.55326
6.45721
6.34243
29.4114
8.76923
6.7635
6.75817
6.76433
6.76547
6.76768
6.76974
6.77127
6.77181
6.77055
6.76735
6.763
6.75648
6.74458
6.72874
6.71468
6.70042
6.67979
6.6486
6.60391
6.54521
6.4692
6.37578
29.3457
8.7306
6.7521
6.75011
6.75536
6.75425
6.7548
6.75515
6.75383
6.74959
6.74324
6.73601
6.73069
6.72421
6.71116
6.69165
6.67113
6.65232
6.63116
6.60393
6.56818
6.52297
6.46246
6.38692
29.2749
8.72092
6.72216
6.73689
6.74017
6.73532
6.73251
6.73192
6.72971
6.72291
6.71253
6.70183
6.69563
6.69051
6.67904
6.65883
6.63377
6.60896
6.58391
6.55635
6.52336
6.48603
6.43845
6.37631
29.1927
8.7299
6.68868
6.7157
6.71312
6.70733
6.70246
6.70138
6.70004
6.69361
6.68062
6.66659
6.65843
6.65431
6.64578
6.62752
6.60123
6.57189
6.54221
6.51153
6.47746
6.44059
6.39945
6.34694
29.1092
8.73317
6.66834
6.68603
6.68119
6.67382
6.66825
6.66829
6.66912
6.66398
6.64938
6.63232
6.6211
6.6158
6.60911
6.59374
6.56887
6.53789
6.50512
6.47099
6.43409
6.39424
6.35238
6.30309
29.0343
8.73177
6.64794
6.65062
6.64482
6.63909
6.6353
6.63609
6.63891
6.63496
6.62026
6.60113
6.58576
6.57685
6.56934
6.55572
6.53282
6.50222
6.46833
6.43215
6.3929
6.34971
6.30456
6.25436
28.9742
8.72387
6.62369
6.6199
6.61163
6.60795
6.6053
6.60647
6.6083
6.60481
6.59182
6.57333
6.55484
6.54127
6.53013
6.51515
6.49254
6.46243
6.42829
6.39148
6.35123
6.30591
6.25757
6.20543
28.9314
8.70456
6.60301
6.59363
6.58788
6.58629
6.58336
6.58151
6.57799
6.57277
6.56178
6.54578
6.52683
6.51016
6.49524
6.47659
6.45177
6.4204
6.38512
6.34775
6.30736
6.26142
6.2107
6.15648
28.9008
8.67228
6.59029
6.57663
6.57241
6.57365
6.57
6.56118
6.54931
6.53969
6.5293
6.516
6.49897
6.48196
6.46547
6.4434
6.41528
6.38126
6.34342
6.30428
6.26331
6.21752
6.16524
6.10848
28.8761
8.6335
6.57981
6.57037
6.56922
6.56906
6.56151
6.54547
6.52569
6.5096
6.49661
6.48366
6.46885
6.45377
6.43892
6.41634
6.38584
6.34893
6.30796
6.26634
6.22411
6.17842
6.12525
6.06565
28.8477
8.59617
6.56635
6.57153
6.57022
6.56629
6.55502
6.53574
6.51107
6.48717
6.46752
6.4511
6.43637
6.42307
6.41131
6.39198
6.36199
6.32454
6.28215
6.23879
6.19496
6.14879
6.09543
6.03396
28.804
8.57022
6.5465
6.5621
6.56419
6.56102
6.55054
6.53111
6.50407
6.47383
6.4454
6.42259
6.40485
6.39101
6.38044
6.36569
6.33956
6.30475
6.26387
6.22079
6.17657
6.13069
6.07813
6.0158
28.7501
8.55891
6.52528
6.54217
6.54963
6.54994
6.54357
6.52735
6.50039
6.46719
6.43205
6.40156
6.3786
6.36222
6.34996
6.3372
6.31564
6.28436
6.24629
6.20561
6.16315
6.11912
6.0688
6.00799
28.6993
8.54931
6.50222
6.51793
6.52858
6.53171
6.5283
6.51672
6.49409
6.46181
6.42533
6.39092
6.36267
6.34263
6.32666
6.31189
6.29159
6.26247
6.22651
6.18735
6.14642
6.10508
6.05883
6.00298
28.6611
8.53843
6.47924
6.50057
6.50884
6.5092
6.50501
6.49621
6.47899
6.45181
6.41831
6.38552
6.35669
6.33474
6.31546
6.29567
6.27089
6.24002
6.20389
6.16459
6.12369
6.08339
6.04111
5.99239
28.6349
8.51489
6.47604
6.49716
6.49609
6.48644
6.47553
6.46539
6.45127
6.43061
6.40446
6.37806
6.35441
6.33425
6.31375
6.2888
6.25719
6.22031
6.18015
6.13849
6.09666
6.05585
6.01544
5.97234
28.6137
8.47819
6.48739
6.50341
6.49088
6.46763
6.4458
6.43046
6.41628
6.40015
6.38195
6.36566
6.35128
6.33492
6.31436
6.2853
6.24753
6.20453
6.15927
6.11372
6.07005
6.02805
5.98762
5.94632
28.5915
8.45145
6.50803
6.50965
6.48403
6.45045
6.41802
6.39463
6.37902
6.36831
6.36043
6.3546
6.34637
6.33121
6.30853
6.27724
6.23694
6.19089
6.1431
6.09593
6.05079
6.00688
5.96511
5.92169
28.5765
8.44993
6.5208
6.50597
6.47082
6.43033
6.39022
6.36224
6.34971
6.34892
6.35068
6.34936
6.33953
6.32025
6.29268
6.25863
6.21828
6.17317
6.12651
6.08136
6.03941
5.99738
5.95393
5.90487
28.5593
8.47214
6.51463
6.49159
6.45112
6.40716
6.36997
6.35023
6.34672
6.35112
6.3538
6.3475
6.32983
6.30224
6.26793
6.23034
6.19074
6.14975
6.10858
6.06977
6.03415
5.99563
5.95122
5.8968
28.5421
8.50529
6.49703
6.47041
6.42831
6.38703
6.35874
6.34928
6.35487
6.3622
6.36192
6.34882
6.32206
6.28533
6.2437
6.20216
6.16252
6.12496
6.09137
6.06116
6.0313
5.9954
5.95012
5.89248
28.5206
8.53162
6.47429
6.44648
6.40597
6.37435
6.35588
6.35788
6.36689
6.37233
6.36652
6.34718
6.31517
6.27294
6.22548
6.17989
6.14061
6.10871
6.08268
6.0579
6.02872
5.99159
5.94489
5.88629
28.4879
8.54144
6.449
6.4226
6.39328
6.37627
6.37174
6.37748
6.38228
6.37568
6.35782
6.33206
6.29965
6.25907
6.21334
6.16955
6.135
6.1089
6.08578
6.05936
6.02521
5.98246
5.93264
5.87475
28.45
8.53366
6.41723
6.40132
6.39317
6.39852
6.40486
6.40551
6.39653
6.37174
6.3378
6.30286
6.27082
6.24029
6.21002
6.17953
6.15237
6.12599
6.09788
6.06296
6.02003
5.97058
5.91691
5.85956
28.4212
8.51497
6.37165
6.38906
6.40428
6.43472
6.44753
6.43728
6.40703
6.36021
6.31077
6.26806
6.23616
6.21587
6.20434
6.1936
6.17746
6.15201
6.11604
6.06996
6.0174
5.96062
5.9023
5.84385
28.4028
8.49856
6.32691
6.38891
6.4267
6.46677
6.47916
6.46163
6.41316
6.35128
6.29166
6.24642
6.22156
6.21384
6.21362
6.2124
6.20019
6.17126
6.12746
6.07382
6.01529
5.95546
5.8972
5.8403
5.00291
5.34012
5.43384
5.45741
5.44141
5.42471
5.41363
5.40962
5.69229
5.68099
5.55722
5.50239
5.45417
5.43107
5.4132
5.41507
5.80747
5.67201
5.54762
5.50191
5.45593
5.44456
5.43994
5.44124
5.97714
5.80574
5.65942
5.5743
5.50027
5.46823
5.46216
5.4655
6.11726
5.94739
5.77316
5.63318
5.52036
5.46614
5.45906
5.47294
6.20865
6.07227
5.9134
5.74707
5.60151
5.50747
5.47768
5.4768
6.26902
6.15558
6.01946
5.84909
5.67196
5.52048
5.416
5.39636
6.2976
6.20189
6.09095
5.93947
5.75265
5.56113
5.37272
5.33137
6.29939
6.21465
6.11593
5.98514
5.79885
5.5471
5.13298
4.20523
6.27971
6.19958
6.10578
5.98033
5.79119
5.49922
5.04528
4.14294
6.24063
6.16223
6.06919
5.94642
5.7677
5.47197
5.04728
4.24389
6.19298
6.11371
6.01647
5.89156
5.71939
5.45129
5.05205
4.4232
6.14429
6.0653
5.96385
5.83531
5.66559
5.4264
5.08259
4.60261
6.0959
6.02019
5.91975
5.79113
5.62495
5.41022
5.12114
4.74903
6.04714
5.97559
5.88185
5.76027
5.60257
5.40796
5.16039
4.86123
6.00102
5.93084
5.8448
5.7349
5.59103
5.41385
5.19977
4.94986
5.96489
5.89159
5.80831
5.70866
5.58134
5.4236
5.24071
5.02665
5.94252
5.8634
5.77753
5.68256
5.57002
5.43236
5.27541
5.09183
5.9333
5.84918
5.75813
5.66166
5.55699
5.43364
5.29668
5.13945
5.93192
5.8474
5.75294
5.65282
5.54885
5.43253
5.30866
5.17092
5.92959
5.85051
5.75808
5.65635
5.55076
5.43696
5.31946
5.19315
5.91895
5.84979
5.76436
5.66592
5.56141
5.4504
5.33532
5.21406
5.89865
5.83894
5.76354
5.67284
5.57397
5.46761
5.35599
5.2385
5.87389
5.81784
5.75113
5.67023
5.58028
5.48189
5.37648
5.2645
5.85153
5.79298
5.72963
5.65774
5.57764
5.48885
5.39217
5.28716
5.83616
5.77181
5.70728
5.64032
5.56848
5.48847
5.40051
5.30332
5.82748
5.7587
5.69154
5.62535
5.55757
5.48387
5.40217
5.31143
5.82076
5.75164
5.68352
5.61638
5.54908
5.47764
5.39948
5.31333
5.81205
5.74615
5.67972
5.61248
5.54418
5.47242
5.39526
5.31154
5.80047
5.73909
5.67615
5.61008
5.54098
5.46818
5.39099
5.30876
5.78664
5.72914
5.67012
5.60686
5.53873
5.46563
5.38811
5.30659
5.78457
5.72792
5.66857
5.60475
5.53607
5.46229
5.38438
5.30319
1.65582
0.853747
0.588711
0.613829
0.759859
1.02879
1.40468
1.71473
1.9643
2.27109
2.51805
2.58677
2.75913
3.02108
3.12571
3.23529
3.29445
3.30298
3.2766
3.25275
3.23729
3.24735
3.25062
3.21666
3.17499
3.13687
3.11389
3.10687
3.08075
3.04142
2.99489
2.94848
2.90858
2.87107
2.83267
2.79129
2.74193
2.69072
2.64982
2.61418
2.57997
2.54706
2.51466
2.48012
2.44045
2.39506
2.34625
2.29987
2.25716
2.24229
2.25878
2.32081
2.47077
2.68203
2.86398
2.95328
2.95312
2.92767
2.89534
2.87908
2.87238
2.87519
2.88881
2.89231
2.88034
2.86281
2.8378
2.81041
2.78977
2.7729
2.75471
2.73241
2.70367
2.67467
2.65339
2.63631
2.62197
2.61212
2.60246
2.59075
2.57632
2.56001
2.53656
2.50512
2.4784
2.45746
2.43975
2.40864
2.41737
1.75774
1.43535
1.23908
1.21902
1.27354
1.3682
1.51881
1.75167
2.06066
2.36546
2.52876
2.77223
3.09282
3.21985
3.30535
3.36718
3.38101
3.37126
3.3485
3.32108
3.30616
3.2899
3.2541
3.21077
3.16852
3.13508
3.10968
3.07539
3.03439
2.98694
2.94035
2.90017
2.86285
2.82643
2.78913
2.74783
2.70303
2.66175
2.62393
2.5877
2.55321
2.51985
2.48479
2.44569
2.40142
2.35516
2.31314
2.27345
2.2707
2.29911
2.37199
2.49703
2.66401
2.81937
2.92486
2.94113
2.92749
2.90738
2.89053
2.8812
2.87965
2.88574
2.88669
2.87548
2.85965
2.83975
2.81353
2.78767
2.77087
2.75559
2.73726
2.71553
2.69082
2.66657
2.64706
2.63155
2.61916
2.60555
2.59012
2.57434
2.5565
2.53411
2.50798
2.48219
2.46015
2.44226
2.41233
3.13826
2.4754
2.13841
1.81466
1.62958
1.58708
1.54743
1.60859
1.76334
1.95971
2.23904
2.53959
2.82698
3.24724
3.43584
3.52909
3.50782
3.49048
3.49317
3.49245
3.47313
3.43678
3.39387
3.34795
3.3072
3.26934
3.23243
3.18973
3.14261
3.09078
3.03858
2.99166
2.9473
2.90184
2.85497
2.80851
2.76597
2.72766
2.69123
2.65452
2.61663
2.57769
2.53781
2.496
2.45386
2.41109
2.37306
2.34457
2.32856
2.34225
2.38403
2.46115
2.53975
2.63771
2.76817
2.90872
2.96233
2.96402
2.95302
2.93526
2.91967
2.90965
2.90288
2.89564
2.88801
2.87603
2.86108
2.84129
2.81328
2.78102
2.75747
2.74199
2.72774
2.71241
2.69575
2.67822
2.66071
2.64241
2.62306
2.60305
2.58174
2.56003
2.53856
2.51735
2.49451
2.46944
2.4488
2.42072
3.71919
3.11891
2.74475
2.44844
2.14766
2.03607
1.92987
1.85582
1.85014
1.88144
2.00613
2.29601
2.62966
3.07004
3.51907
3.72542
3.72028
3.65009
3.64942
3.66348
3.64039
3.59069
3.52228
3.45076
3.39972
3.35981
3.31991
3.27404
3.21677
3.15318
3.09723
3.05003
3.00586
2.96154
2.91573
2.86858
2.82314
2.78159
2.74312
2.7058
2.66822
2.6283
2.58436
2.53609
2.48553
2.43693
2.40094
2.38981
2.40378
2.44303
2.50871
2.56891
2.60022
2.63942
2.71939
2.8625
2.97268
3.0004
2.99557
2.98552
2.97391
2.95818
2.93889
2.92554
2.91514
2.90346
2.88947
2.87319
2.85163
2.82129
2.79337
2.77445
2.75864
2.74404
2.72946
2.71317
2.69354
2.67095
2.64852
2.62715
2.60537
2.58425
2.56527
2.54719
2.52709
2.50204
2.47612
2.44263
4.11398
3.63328
3.24603
2.96177
2.6755
2.46134
2.30451
2.17304
2.0949
2.05013
2.08096
2.13651
2.30853
2.6605
3.23611
3.70591
3.87622
3.84394
3.80632
3.77737
3.7301
3.67502
3.61184
3.5474
3.49098
3.44108
3.39152
3.33529
3.26841
3.20004
3.14303
3.09477
3.04912
3.00473
2.9612
2.91716
2.8711
2.82478
2.78227
2.7441
2.7089
2.67138
2.62675
2.57492
2.51664
2.46716
2.4476
2.4569
2.49819
2.57039
2.62279
2.65636
2.65648
2.66295
2.69801
2.79805
2.94338
3.03868
3.05345
3.04705
3.03445
3.0159
2.98789
2.96401
2.95042
2.93806
2.92434
2.9079
2.88655
2.85951
2.83587
2.81953
2.8051
2.79147
2.77636
2.75815
2.73425
2.70449
2.67426
2.64866
2.62867
2.61221
2.59646
2.58061
2.56336
2.5435
2.52093
2.4859
4.37241
3.98952
3.64829
3.36762
3.10179
2.86947
2.69787
2.53663
2.4125
2.34424
2.28451
2.24993
2.23547
2.30948
2.63471
3.31716
3.85344
3.92396
3.89949
3.83001
3.75963
3.70466
3.65651
3.60341
3.54241
3.4769
3.41185
3.3487
3.28482
3.22473
3.17304
3.12641
3.08179
3.03771
2.99271
2.94605
2.89754
2.85081
2.81022
2.77485
2.74129
2.70427
2.65562
2.59087
2.5294
2.49443
2.4996
2.53517
2.62461
2.69619
2.70976
2.717
2.71256
2.69983
2.70506
2.74981
2.86985
3.00981
3.09076
3.09373
3.08052
3.05917
3.03153
3.00097
2.98229
2.96898
2.95489
2.93855
2.91908
2.89686
2.87666
2.86033
2.84534
2.83026
2.81426
2.79531
2.7702
2.74049
2.71165
2.68655
2.66555
2.64719
2.62971
2.61274
2.59588
2.5786
2.56116
2.53345
4.55464
4.23241
3.94457
3.69075
3.44088
3.20712
3.0315
2.88481
2.73418
2.59765
2.50738
2.43841
2.36656
2.33029
2.3566
2.66011
3.43127
3.92645
3.94209
3.84548
3.76975
3.71993
3.67809
3.62638
3.56434
3.49277
3.42166
3.35529
3.29652
3.24613
3.2005
3.15568
3.10967
3.06314
3.01278
2.95792
2.90752
2.86883
2.83757
2.80483
2.76324
2.70567
2.63408
2.57143
2.54013
2.53173
2.56195
2.65074
2.75426
2.78024
2.77619
2.76539
2.75569
2.73736
2.72261
2.73513
2.79734
2.93207
3.06114
3.11196
3.10636
3.08759
3.06067
3.03071
3.00546
2.98841
2.97349
2.95745
2.94077
2.92459
2.9085
2.89242
2.87582
2.85818
2.83887
2.8166
2.79132
2.76693
2.74468
2.72235
2.69895
2.67566
2.6551
2.63796
2.62316
2.60814
2.59582
2.57698
4.6883
4.41353
4.1557
3.93273
3.71361
3.48888
3.29826
3.15891
3.02909
2.88684
2.73993
2.64601
2.5667
2.47283
2.40987
2.42836
2.74048
3.54786
3.9022
3.841
3.79942
3.74898
3.68552
3.62747
3.5697
3.50632
3.44007
3.3782
3.32381
3.27581
3.23027
3.18416
3.1325
3.07463
3.01726
2.96389
2.91691
2.87449
2.83267
2.78906
2.73777
2.67116
2.60728
2.57036
2.554
2.57997
2.67088
2.7819
2.8345
2.84223
2.83063
2.81008
2.78864
2.76712
2.74561
2.74121
2.76113
2.84008
2.97925
3.0864
3.11072
3.1008
3.07967
3.05344
3.02437
2.99913
2.98254
2.96838
2.95513
2.94261
2.92741
2.9108
2.89352
2.87416
2.85211
2.82818
2.80526
2.78553
2.76648
2.74588
2.72276
2.69806
2.67485
2.65771
2.64427
2.63001
2.6176
2.61546
4.79736
4.55588
4.32705
4.11896
3.9202
3.7203
3.52762
3.36972
3.25006
3.13363
2.99786
2.84619
2.73514
2.64789
2.56404
2.48524
2.49991
2.83367
3.50948
3.82319
3.84646
3.79409
3.70419
3.62999
3.57213
3.51878
3.46642
3.41358
3.36001
3.30432
3.24513
3.18312
3.12291
3.06572
3.01152
2.96133
2.9133
2.86542
2.81614
2.762
2.69625
2.63265
2.59398
2.57609
2.59272
2.68389
2.8
2.86414
2.89017
2.88797
2.87066
2.84334
2.81129
2.78679
2.76793
2.75458
2.75521
2.77847
2.86709
3.0013
3.08872
3.10468
3.09271
3.07165
3.0452
3.01604
2.9917
2.97458
2.95929
2.94635
2.93153
2.91507
2.89813
2.87925
2.85768
2.8345
2.81367
2.79579
2.77826
2.76024
2.74085
2.71993
2.69737
2.67376
2.65017
2.63673
2.636
2.66798
4.89218
4.67882
4.47119
4.27159
4.08387
3.89633
3.72381
3.56281
3.42118
3.31108
3.20172
3.06625
2.91813
2.81257
2.73686
2.6414
2.54943
2.55865
2.87544
3.51504
3.82841
3.81841
3.71898
3.63699
3.58335
3.53392
3.48768
3.43882
3.38365
3.32201
3.2522
3.17983
3.11405
3.05579
3.00257
2.95141
2.90039
2.84741
2.78904
2.72271
2.65692
2.613
2.59562
2.608
2.69225
2.82554
2.89918
2.9267
2.93358
2.91971
2.89468
2.85942
2.82733
2.80776
2.79141
2.77133
2.75503
2.75314
2.77877
2.87851
3.01188
3.08959
3.09706
3.08208
3.05825
3.03171
3.00502
2.98116
2.96331
2.94716
2.93215
2.91642
2.90015
2.88248
2.86332
2.843
2.82338
2.80608
2.78886
2.77133
2.75345
2.73383
2.70895
2.67813
2.65668
2.65955
2.68321
2.75285
4.96707
4.78227
4.59603
4.41011
4.22083
4.04319
3.87675
3.73102
3.5867
3.44826
3.33961
3.23388
3.10968
2.98186
2.87311
2.78631
2.68034
2.5895
2.61389
2.95311
3.5579
3.76872
3.71712
3.65169
3.60279
3.55406
3.50599
3.45243
3.39464
3.329
3.25356
3.1773
3.10974
3.05064
2.99558
2.9421
2.88767
2.82832
2.76109
2.69164
2.63774
2.61189
2.6186
2.69948
2.85827
2.949
2.97278
2.97389
2.96067
2.93499
2.90242
2.86872
2.84683
2.83034
2.81283
2.78714
2.75349
2.73728
2.73936
2.78168
2.89854
3.03689
3.08674
3.08187
3.06226
3.03745
3.01235
2.98786
2.96595
2.94946
2.93356
2.91803
2.90138
2.88543
2.86921
2.85202
2.8335
2.81476
2.79635
2.77739
2.75757
2.7371
2.71075
2.68802
2.69103
2.7258
2.77439
2.83578
5.02057
4.85995
4.69566
4.52567
4.3502
4.17501
4.01198
3.86383
3.72904
3.58978
3.45312
3.34588
3.24987
3.14247
3.02636
2.91178
2.81314
2.70411
2.63115
2.66556
3.0055
3.53727
3.68897
3.65963
3.61583
3.57288
3.51915
3.45755
3.38825
3.31567
3.24362
3.17378
3.10959
3.0508
2.99373
2.93741
2.87787
2.81008
2.73697
2.67316
2.63729
2.63594
2.70353
2.88066
3.00965
3.04045
3.02651
3.00019
2.96847
2.9359
2.90464
2.88294
2.86662
2.84849
2.82629
2.79527
2.75506
2.72933
2.72577
2.73813
2.79977
2.93821
3.04053
3.06663
3.05576
3.03831
3.01562
2.99108
2.96494
2.94218
2.92587
2.91118
2.89945
2.88626
2.87121
2.85484
2.83726
2.81581
2.79194
2.76982
2.75258
2.73576
2.72674
2.73357
2.76826
2.82089
2.85884
2.886
5.05826
4.91623
4.76888
4.6142
4.45424
4.29382
4.13684
3.98732
3.8442
3.71063
3.57512
3.44879
3.34637
3.25667
3.15876
3.04907
2.93534
2.81679
2.70621
2.65748
2.69521
3.02913
3.47297
3.59847
3.61755
3.57803
3.52151
3.45236
3.3765
3.30262
3.23196
3.16861
3.11184
3.05585
3.00029
2.93853
2.86684
2.79128
2.72112
2.6736
2.66324
2.7191
2.89215
3.06303
3.113
3.09432
3.05464
3.01123
2.97219
2.93927
2.91492
2.89899
2.88121
2.85788
2.8297
2.79757
2.76061
2.73402
2.71899
2.72113
2.74151
2.8172
2.936
3.01312
3.03849
3.02559
3.0052
2.98188
2.9567
2.93171
2.91427
2.89968
2.8868
2.87497
2.86194
2.8465
2.82712
2.8054
2.78345
2.76615
2.75107
2.75303
2.76878
2.80676
2.86151
2.89726
2.91021
2.91095
5.08789
4.95729
4.82188
4.68035
4.53382
4.38872
4.24559
4.09999
3.95368
3.81292
3.68264
3.55798
3.44396
3.34111
3.24783
3.1549
3.05106
2.94246
2.81398
2.70417
2.67164
2.71271
3.01894
3.40454
3.57042
3.56355
3.49561
3.42377
3.35685
3.2903
3.22911
3.173
3.12096
3.06783
3.00352
2.92441
2.84741
2.77791
2.72369
2.70311
2.74065
2.90692
3.10962
3.17504
3.15457
3.11132
3.06276
3.01758
2.98068
2.95355
2.93331
2.91153
2.88445
2.8565
2.82817
2.79962
2.77416
2.75206
2.73139
2.7141
2.70473
2.72346
2.79912
2.9042
2.99184
3.0061
2.99415
2.97124
2.94324
2.91735
2.89817
2.88359
2.87272
2.86193
2.84681
2.82862
2.80887
2.79037
2.77651
2.7635
2.76864
2.79243
2.83855
2.88515
2.92955
2.93683
2.93102
2.91952
5.11676
4.99115
4.86292
4.73097
4.59648
4.46355
4.33141
4.19486
4.0534
3.91361
3.77943
3.65474
3.53932
3.43101
3.32531
3.22489
3.13344
3.03893
2.9369
2.80841
2.69645
2.66185
2.70702
2.98446
3.37922
3.49249
3.45168
3.38579
3.33283
3.28383
3.23338
3.18082
3.12464
3.06082
2.98622
2.90723
2.83686
2.77291
2.74192
2.7587
2.9067
3.14778
3.24588
3.22129
3.16498
3.10936
3.06619
3.03005
3.0004
2.97478
2.94746
2.91422
2.88183
2.85331
2.82796
2.80837
2.79073
2.77029
2.74262
2.70765
2.67671
2.67157
2.69796
2.77945
2.90425
2.97393
2.97268
2.95283
2.92668
2.90495
2.88476
2.86868
2.85579
2.84084
2.82242
2.80367
2.78827
2.77932
2.77281
2.781
2.80803
2.86144
2.90612
2.93539
2.95266
2.95136
2.93948
2.91124
5.14703
5.02463
4.89991
4.77352
4.64778
4.52298
4.39832
4.27018
4.13633
4.00457
3.87371
3.74457
3.62335
3.512
3.40419
3.29818
3.1963
3.10343
3.0156
2.91635
2.79079
2.68339
2.64039
2.68212
2.94958
3.30187
3.39119
3.36897
3.31755
3.27485
3.23437
3.1845
3.12083
3.04489
2.96357
2.89465
2.82983
2.78071
2.78386
2.90223
3.16376
3.31575
3.29785
3.23352
3.16123
3.11162
3.07629
3.04812
3.02206
2.99309
2.95462
2.91484
2.88194
2.85587
2.83656
2.82106
2.80398
2.77914
2.74162
2.70243
2.67036
2.65557
2.65795
2.69239
2.79027
2.91001
2.93677
2.9294
2.91302
2.89596
2.87765
2.85895
2.83917
2.81677
2.79419
2.77885
2.77252
2.77535
2.79058
2.82542
2.87664
2.92873
2.94297
2.95101
2.95664
2.94898
2.93057
2.89669
5.17518
5.05754
4.93648
4.81352
4.69151
4.57099
4.45137
4.32859
4.20332
4.07784
3.95392
3.82772
3.70183
3.58272
3.47189
3.36604
3.26295
3.16388
3.06901
2.97773
2.87758
2.75777
2.6581
2.61181
2.65068
2.90111
3.19773
3.30915
3.30665
3.26293
3.21047
3.15212
3.08943
3.01819
2.94384
2.8705
2.81719
2.79656
2.88116
3.14579
3.3648
3.36783
3.30988
3.22798
3.16604
3.12591
3.09504
3.06737
3.03932
3.00179
2.95765
2.91813
2.89015
2.86957
2.85196
2.83418
2.81212
2.77868
2.74082
2.70541
2.67534
2.65648
2.64634
2.65368
2.69701
2.80186
2.87424
2.90208
2.90384
2.897
2.87563
2.85154
2.82241
2.79217
2.77411
2.7662
2.7706
2.79195
2.83964
2.89445
2.94668
2.96486
2.95828
2.95053
2.93931
2.92472
2.90776
2.87769
5.19772
5.08576
4.96925
4.84993
4.73007
4.61095
4.49314
4.37456
4.25586
4.1357
4.01574
3.8946
3.77115
3.64849
3.53067
3.4207
3.31778
3.21868
3.12239
3.02764
2.92866
2.82115
2.70727
2.62185
2.57895
2.61831
2.84097
3.11747
3.24157
3.23121
3.17677
3.11051
3.04721
2.98134
2.90959
2.8495
2.81786
2.86654
3.10919
3.38344
3.42561
3.38575
3.30972
3.23769
3.18861
3.15046
3.11645
3.08391
3.04585
3.00238
2.96146
2.93312
2.91129
2.89047
2.86954
2.84489
2.81043
2.77431
2.74397
2.71819
2.69453
2.67344
2.65563
2.64294
2.64685
2.69596
2.78375
2.85513
2.89846
2.89656
2.87425
2.84045
2.80355
2.77864
2.76873
2.77122
2.78954
2.84252
2.90299
2.95244
2.98148
2.97597
2.95927
2.93734
2.91313
2.89348
2.87655
2.85519
5.21191
5.10554
4.99408
4.87928
4.7626
4.6451
4.52747
4.4109
4.29381
4.17886
4.06249
3.94398
3.8239
3.70312
3.58448
3.47068
3.36218
3.2592
3.16094
3.06649
2.97322
2.87465
2.76158
2.64936
2.57291
2.53343
2.57549
2.77772
3.04574
3.15888
3.13326
3.06849
3.00224
2.92689
2.87017
2.84085
2.86697
3.07159
3.39032
3.47885
3.44323
3.37834
3.30761
3.25657
3.21569
3.17696
3.13746
3.09285
3.04457
3.00355
2.9767
2.95509
2.93371
2.91096
2.88411
2.8466
2.80578
2.77459
2.75545
2.7387
2.71997
2.69902
2.67496
2.64601
2.63245
2.64035
2.69711
2.78507
2.86837
2.88138
2.86412
2.82285
2.79232
2.7783
2.77858
2.79715
2.84766
2.91189
2.95053
2.97848
2.98545
2.97396
2.95441
2.92968
2.89705
2.86555
2.84945
2.83686
5.21913
5.11781
5.01086
4.90001
4.78665
4.67159
4.55557
4.44089
4.32471
4.2121
4.09768
3.98053
3.86211
3.74347
3.62604
3.5117
3.40172
3.29577
3.19298
3.09353
2.99937
2.90842
2.81368
2.70471
2.59445
2.51616
2.47767
2.51869
2.70734
2.96258
3.05046
3.02477
2.95899
2.88177
2.84957
2.8673
3.02559
3.3657
3.53658
3.51089
3.44726
3.37286
3.31604
3.27578
3.23691
3.19769
3.15134
3.09519
3.04389
3.01333
2.99198
2.97249
2.94998
2.92531
2.89183
2.84643
2.8066
2.78629
2.77197
2.75993
2.74229
2.72052
2.69145
2.65342
2.63047
2.62777
2.64574
2.70388
2.79916
2.84483
2.83619
2.8055
2.79216
2.7914
2.81322
2.86279
2.92821
2.96568
2.9729
2.97643
2.97804
2.96677
2.9494
2.92663
2.89112
2.85482
2.83883
2.82774
5.22123
5.12449
5.02181
4.91484
4.80461
4.69138
4.57829
4.46577
4.35019
4.23852
4.12634
4.00971
3.89206
3.77469
3.65827
3.5437
3.4322
3.32415
3.21971
3.1185
3.02119
2.92843
2.83942
2.74654
2.64184
2.53773
2.46145
2.42135
2.45736
2.63574
2.83801
2.93699
2.903
2.85937
2.86642
2.98825
3.30928
3.55779
3.55645
3.5111
3.44173
3.37761
3.33122
3.28928
3.24893
3.20564
3.15492
3.09568
3.05034
3.02415
3.00105
2.98101
2.95927
2.93229
2.8942
2.84828
2.82005
2.80247
2.78725
2.77295
2.7566
2.73339
2.69986
2.66557
2.64192
2.62974
2.6264
2.64291
2.69462
2.76507
2.79035
2.79182
2.80133
2.83271
2.8842
2.95304
2.99241
2.98501
2.97962
2.97231
2.96949
2.9581
2.94116
2.91992
2.88604
2.85603
2.84163
2.82857
5.22109
5.128
5.02912
4.92565
4.8179
4.70733
4.5971
4.4851
4.37412
4.2627
4.14963
4.03285
3.91565
3.7987
3.68258
3.56785
3.45556
3.34617
3.24033
3.13783
3.03937
2.94545
2.85573
2.76739
2.67402
2.57361
2.4766
2.40554
2.35823
2.38325
2.52854
2.74511
2.80887
2.85083
2.97532
3.24434
3.53695
3.61628
3.57726
3.51434
3.449
3.39289
3.34177
3.29352
3.2476
3.20187
3.15171
3.10274
3.06519
3.03355
3.00454
2.97988
2.95543
2.92654
2.89103
2.85964
2.83727
2.81544
2.79513
2.77708
2.75491
2.72708
2.70042
2.6787
2.65747
2.63766
2.62159
2.60539
2.61007
2.66012
2.72569
2.77265
2.82864
2.90292
2.97105
3.01783
3.0226
3.00368
2.98757
2.97585
2.96681
2.94894
2.92973
2.90634
2.87954
2.85964
2.84917
2.83488
5.22053
5.12964
5.03375
4.93274
4.82741
4.71893
4.60885
4.49395
4.38302
4.27544
4.16294
4.04827
3.93208
3.81476
3.69813
3.58342
3.4716
3.36261
3.2567
3.15341
3.05326
2.95658
2.8647
2.77788
2.69323
2.60368
2.50666
2.41178
2.33303
2.27189
2.305
2.46001
2.67117
2.9034
3.20046
3.49711
3.61358
3.60535
3.56787
3.51274
3.45907
3.40466
3.34935
3.29331
3.23874
3.18856
3.14457
3.10887
3.07943
3.04965
3.0173
2.98087
2.94341
2.91015
2.88645
2.86789
2.84843
2.82715
2.80373
2.77626
2.74629
2.7216
2.70388
2.68614
2.66577
2.64308
2.61865
2.58783
2.57021
2.59028
2.65403
2.75191
2.85951
2.97054
3.03598
3.0492
3.02933
3.01275
2.99616
2.98432
2.96655
2.94298
2.91595
2.89076
2.87692
2.86741
2.86296
2.84229
5.2188
5.13054
5.03773
4.93924
4.83608
4.72961
4.61907
4.50868
4.4001
4.28912
4.17466
4.05971
3.94198
3.82389
3.70708
3.5929
3.48208
3.37387
3.26811
3.16404
3.06242
2.96341
2.86947
2.78081
2.6993
2.61882
2.53116
2.42934
2.33178
2.23854
2.2081
2.25948
2.51053
2.94659
3.36628
3.71231
3.69184
3.62599
3.56742
3.51424
3.46039
3.40506
3.34879
3.28941
3.22754
3.17653
3.143
3.11668
3.0899
3.06013
3.02282
2.97532
2.93026
2.90324
2.88355
2.86891
2.85319
2.83285
2.80625
2.7677
2.73581
2.71885
2.7047
2.68956
2.67058
2.64776
2.6205
2.58332
2.54837
2.55308
2.60146
2.72543
2.88526
3.01175
3.07342
3.08213
3.05157
3.0266
3.00861
2.98904
2.96548
2.93529
2.90282
2.88616
2.87718
2.87626
2.87228
2.84657
)
;

boundaryField
{
    inlet
    {
        type            calculated;
        value           uniform 1.40001;
    }
    outlet
    {
        type            calculated;
        value           nonuniform List<scalar> 
24
(
2.40849
2.41201
2.42011
2.44231
2.48603
2.53386
2.57777
2.61626
2.66851
2.75305
2.8355
2.88547
2.91049
2.91943
2.9116
2.8975
2.87835
2.85515
2.83639
2.82716
2.82813
2.83493
2.84283
2.84739
)
;
    }
    bottom
    {
        type            calculated;
        value           nonuniform List<scalar> 
24
(
30.2412
9.06264
6.82377
6.83503
6.84057
6.85287
6.86796
6.88648
6.91002
6.93915
6.9699
6.99799
7.02191
7.04469
7.06978
7.09595
7.11616
7.12221
7.09712
7.02231
6.88451
6.7044
6.56297
6.51238
)
;
    }
    top
    {
        type            calculated;
        value           nonuniform List<scalar> 
120
(
28.4028
8.49856
6.32691
6.38891
6.4267
6.46677
6.47916
6.46163
6.41316
6.35128
6.29166
6.24642
6.22156
6.21384
6.21362
6.2124
6.20019
6.17126
6.12746
6.07382
6.01529
5.95546
5.8972
5.8403
5.78457
5.72792
5.66857
5.60475
5.53607
5.46229
5.38438
5.30319
5.2188
5.13054
5.03773
4.93924
4.83608
4.72961
4.61907
4.50868
4.4001
4.28912
4.17466
4.05971
3.94198
3.82389
3.70708
3.5929
3.48208
3.37387
3.26811
3.16404
3.06242
2.96341
2.86947
2.78081
2.6993
2.61882
2.53116
2.42934
2.33178
2.23854
2.2081
2.25948
2.51053
2.94659
3.36628
3.71231
3.69184
3.62599
3.56742
3.51424
3.46039
3.40506
3.34879
3.28941
3.22754
3.17653
3.143
3.11668
3.0899
3.06013
3.02282
2.97532
2.93026
2.90324
2.88355
2.86891
2.85319
2.83285
2.80625
2.7677
2.73581
2.71885
2.7047
2.68956
2.67058
2.64776
2.6205
2.58332
2.54837
2.55308
2.60146
2.72543
2.88526
3.01175
3.07342
3.08213
3.05157
3.0266
3.00861
2.98904
2.96548
2.93529
2.90282
2.88616
2.87718
2.87626
2.87228
2.84657
)
;
    }
    obstacle
    {
        type            calculated;
        value           nonuniform List<scalar> 
112
(
6.51238
6.50039
6.481
6.44797
6.41271
6.36206
6.30447
6.3086
5.00291
5.34012
5.43384
5.45741
5.44141
5.42471
5.41363
5.40962
5.40962
5.41507
5.44124
5.4655
5.47294
5.4768
5.39636
5.33137
1.65582
0.853747
0.588711
0.613829
0.759859
1.02879
1.40468
1.71473
1.9643
2.27109
2.51805
2.58677
2.75913
3.02108
3.12571
3.23529
3.29445
3.30298
3.2766
3.25275
3.23729
3.24735
3.25062
3.21666
3.17499
3.13687
3.11389
3.10687
3.08075
3.04142
2.99489
2.94848
2.90858
2.87107
2.83267
2.79129
2.74193
2.69072
2.64982
2.61418
2.57997
2.54706
2.51466
2.48012
2.44045
2.39506
2.34625
2.29987
2.25716
2.24229
2.25878
2.32081
2.47077
2.68203
2.86398
2.95328
2.95312
2.92767
2.89534
2.87908
2.87238
2.87519
2.88881
2.89231
2.88034
2.86281
2.8378
2.81041
2.78977
2.7729
2.75471
2.73241
2.70367
2.67467
2.65339
2.63631
2.62197
2.61212
2.60246
2.59075
2.57632
2.56001
2.53656
2.50512
2.4784
2.45746
2.43975
2.40864
)
;
    }
    defaultFaces
    {
        type            empty;
    }
}


// ************************************************************************* //
