/*--------------------------------*- C++ -*----------------------------------*\
  =========                 |
  \\      /  F ield         | OpenFOAM: The Open Source CFD Toolbox
   \\    /   O peration     | Website:  https://openfoam.org
    \\  /    A nd           | Version:  7
     \\/     M anipulation  |
\*---------------------------------------------------------------------------*/
FoamFile
{
    version     2.0;
    format      ascii;
    class       volScalarField;
    location    "3";
    object      T;
}
// * * * * * * * * * * * * * * * * * * * * * * * * * * * * * * * * * * * * * //

dimensions      [0 0 0 1 0 0 0];

internalField   nonuniform List<scalar> 
16192
(
2.60196
2.60171
2.60287
2.60549
2.60882
2.61237
2.61568
2.61818
2.61984
2.62098
2.62249
2.62578
2.63225
2.64297
2.6574
2.67334
2.6838
2.68953
2.69454
2.69901
2.70482
2.7128
2.72513
2.74309
2.75969
2.76617
2.76672
2.7655
2.76261
2.75956
2.75704
2.75445
2.75123
2.74554
2.73696
2.72571
2.71177
2.69559
2.67958
2.66591
2.65641
2.64992
2.64188
2.63307
2.62371
2.61218
2.59899
2.58755
2.57877
2.57185
2.565
2.55794
2.5503
2.54151
2.52992
2.5163
2.50197
2.48877
2.47698
2.46646
2.45756
2.45141
2.44912
2.44773
2.44613
2.4426
2.43824
2.43403
2.43013
2.42682
2.42487
2.4246
2.4255
2.4282
2.43096
2.43275
2.43654
2.44557
2.45865
2.47202
2.47935
2.47799
2.47145
2.45509
2.44379
2.44187
2.44414
2.45725
2.47528
2.48913
2.49557
2.49668
2.49578
2.49134
2.47753
2.46106
2.45362
2.45199
2.45203
2.45462
2.46152
2.47038
2.4792
2.4865
2.49203
2.49733
2.50216
2.50565
2.50685
2.5062
2.50435
2.50461
2.50865
2.51505
2.52237
2.52995
2.53759
2.54557
2.5535
2.56124
2.5666
2.56773
2.56704
2.56104
2.54808
2.53694
2.53058
2.52598
2.5217
2.51771
2.51391
2.50807
2.49657
2.48041
2.46366
2.44815
2.43543
2.42601
2.41946
2.41494
2.4105
2.40485
2.39784
2.38952
2.37978
2.36982
2.36062
2.35232
2.345
2.33902
2.33338
2.32721
2.31879
2.30534
2.29038
2.27968
2.27394
2.26929
2.26565
2.26367
2.26163
2.25874
2.2539
2.2417
2.22613
2.21741
2.21165
2.20608
2.20126
2.19913
2.20095
2.20962
2.22339
2.23508
2.23565
2.22621
2.21457
2.19879
2.18462
2.17598
2.17061
2.16723
2.1652
2.16448
2.16685
2.17551
2.18685
2.19053
2.18928
2.18719
2.18496
2.18194
2.17683
2.16887
2.15964
2.15417
2.15186
2.15095
2.15137
2.15673
2.16413
2.16657
2.16727
2.16866
2.17018
2.17121
2.17142
2.17155
2.17274
2.17543
2.1787
2.18221
2.18569
2.18958
2.19691
2.20777
2.22108
2.23698
2.2555
2.27632
2.29707
2.31328
2.31968
2.31723
2.30833
2.30588
2.30938
2.31707
2.32728
2.33969
2.35306
2.36815
2.38107
2.38768
2.38868
2.38708
2.37854
2.35825
2.33344
2.31178
2.28464
2.25461
2.22865
2.21037
2.19984
2.19389
2.18663
2.1756
2.17031
2.16839
2.16787
2.15917
2.13972
2.60193
2.60051
2.59994
2.60071
2.60249
2.60426
2.60549
2.60671
2.60842
2.61126
2.61569
2.622
2.63022
2.63994
2.64986
2.6582
2.66639
2.67526
2.68279
2.68918
2.69639
2.7055
2.71728
2.73102
2.74368
2.75319
2.75856
2.75971
2.75921
2.75736
2.75473
2.75116
2.74603
2.73948
2.73146
2.721
2.70832
2.69368
2.67852
2.66535
2.65586
2.64861
2.64019
2.63177
2.62331
2.61349
2.60214
2.59132
2.58214
2.57414
2.56636
2.55822
2.5498
2.54085
2.53016
2.51804
2.50557
2.49393
2.48277
2.47159
2.46058
2.45086
2.44509
2.44103
2.43697
2.43379
2.43128
2.42826
2.42448
2.42086
2.41817
2.41679
2.41694
2.41905
2.42349
2.42879
2.43194
2.43483
2.43913
2.44361
2.44619
2.44795
2.4486
2.44849
2.44655
2.44435
2.44505
2.45206
2.46355
2.47284
2.47626
2.47718
2.477
2.47357
2.46812
2.4633
2.45774
2.45402
2.45323
2.45416
2.45817
2.46519
2.4729
2.4778
2.4816
2.48538
2.48863
2.49108
2.4924
2.49336
2.49697
2.50383
2.51139
2.51837
2.52455
2.53026
2.53603
2.54168
2.5464
2.54989
2.55229
2.55451
2.55488
2.5525
2.54822
2.54224
2.5342
2.52668
2.52051
2.51464
2.50828
2.50018
2.49112
2.47953
2.46429
2.44926
2.43596
2.42549
2.41754
2.411
2.40534
2.4004
2.39578
2.39001
2.38271
2.3745
2.36538
2.35621
2.3475
2.33943
2.33173
2.32419
2.31616
2.30658
2.2958
2.286
2.27847
2.27308
2.2686
2.26462
2.26041
2.25613
2.25061
2.24049
2.22811
2.22124
2.21671
2.21337
2.21103
2.20936
2.20857
2.20859
2.21234
2.21819
2.21964
2.21267
2.20387
2.19632
2.18827
2.17943
2.17183
2.16652
2.16279
2.16089
2.16305
2.17195
2.18241
2.18472
2.18267
2.18029
2.17765
2.17392
2.16864
2.16253
2.15875
2.15629
2.1539
2.15233
2.15216
2.15529
2.16087
2.16329
2.16402
2.16521
2.16644
2.16721
2.16719
2.16674
2.16684
2.16814
2.17096
2.17507
2.18087
2.18879
2.19814
2.20885
2.22081
2.23512
2.25181
2.27044
2.28871
2.30204
2.30676
2.30484
2.30131
2.30362
2.31089
2.31931
2.32805
2.33844
2.35053
2.36356
2.37467
2.37881
2.37948
2.37851
2.3707
2.35376
2.33417
2.3141
2.28875
2.26006
2.23436
2.21662
2.20654
2.19919
2.18782
2.17508
2.16749
2.16335
2.16163
2.15652
2.14346
2.60136
2.59874
2.59624
2.59391
2.59187
2.58991
2.58809
2.58681
2.58651
2.58782
2.59189
2.59842
2.60647
2.61456
2.62027
2.62451
2.62957
2.63689
2.6456
2.65438
2.66384
2.67436
2.68538
2.69568
2.70525
2.71529
2.72492
2.7318
2.73626
2.73825
2.73833
2.73735
2.73468
2.73007
2.7232
2.71437
2.70374
2.69125
2.67777
2.66526
2.65527
2.64692
2.63798
2.62945
2.62098
2.61304
2.60535
2.5972
2.58872
2.5802
2.57165
2.5627
2.55272
2.54114
2.52852
2.51698
2.50784
2.50003
2.49167
2.48154
2.46938
2.45618
2.4451
2.43695
2.43112
2.42698
2.42367
2.42042
2.41663
2.41196
2.40673
2.40168
2.39819
2.39753
2.39946
2.40543
2.41146
2.41208
2.40931
2.40436
2.40139
2.40145
2.40594
2.41458
2.42028
2.42493
2.43025
2.43594
2.43876
2.43967
2.44049
2.44047
2.43955
2.43944
2.44164
2.44295
2.44276
2.44095
2.44041
2.4412
2.444
2.44935
2.4544
2.45764
2.46089
2.46334
2.46431
2.46422
2.46387
2.46591
2.47333
2.48294
2.49329
2.50413
2.51439
2.52262
2.52773
2.52906
2.52842
2.52794
2.52858
2.52876
2.52893
2.53096
2.53382
2.5337
2.53156
2.52618
2.51735
2.50674
2.49613
2.48642
2.47692
2.46769
2.45831
2.44691
2.43538
2.42399
2.41352
2.40486
2.39862
2.39368
2.38905
2.38516
2.38208
2.37776
2.37128
2.36295
2.35245
2.34135
2.33131
2.32188
2.31223
2.30425
2.29885
2.29337
2.28748
2.28163
2.27576
2.26959
2.26285
2.25539
2.24631
2.23505
2.22631
2.22216
2.21959
2.21858
2.2188
2.21914
2.21857
2.21679
2.21323
2.20828
2.20414
2.1999
2.19274
2.18638
2.18027
2.17366
2.16636
2.15993
2.15537
2.15297
2.15479
2.16294
2.17111
2.1719
2.16998
2.16795
2.16526
2.16074
2.1542
2.15029
2.1495
2.14876
2.1484
2.14848
2.14937
2.15143
2.15302
2.15367
2.15462
2.15559
2.15659
2.15744
2.15761
2.15675
2.155
2.15452
2.15563
2.15981
2.16651
2.17499
2.18764
2.20111
2.2129
2.22668
2.24134
2.25582
2.26891
2.27848
2.28094
2.2797
2.28087
2.28842
2.2972
2.30643
2.317
2.32884
2.34045
2.34998
2.35646
2.36049
2.36191
2.36013
2.35306
2.34217
2.32975
2.31276
2.29125
2.26562
2.2421
2.22695
2.21834
2.20728
2.19214
2.17793
2.16695
2.15743
2.15011
2.14451
2.1386
2.59488
2.59032
2.58591
2.58144
2.57645
2.5711
2.5661
2.562
2.55901
2.5573
2.55704
2.5579
2.56014
2.56303
2.56526
2.56732
2.57035
2.57573
2.58393
2.5934
2.60284
2.61176
2.62014
2.62885
2.63829
2.64891
2.66035
2.67015
2.67818
2.68462
2.68936
2.69324
2.69717
2.69978
2.70013
2.69865
2.69345
2.68531
2.67561
2.66512
2.65434
2.64377
2.6341
2.6257
2.61854
2.61258
2.60702
2.60129
2.59457
2.58664
2.57786
2.5682
2.55713
2.54475
2.53228
2.52116
2.51196
2.50406
2.49627
2.48737
2.47651
2.46363
2.45156
2.44258
2.43497
2.42873
2.42309
2.41832
2.41354
2.40752
2.39997
2.39155
2.38347
2.37645
2.37111
2.36976
2.3714
2.36839
2.3602
2.35284
2.34853
2.34732
2.35114
2.36143
2.37177
2.38109
2.38824
2.39124
2.39183
2.39056
2.38906
2.38868
2.38998
2.39336
2.39854
2.40314
2.40621
2.40742
2.40706
2.4066
2.40732
2.4093
2.41199
2.41545
2.41909
2.42229
2.42484
2.42669
2.42866
2.43205
2.43715
2.44449
2.45412
2.46523
2.4773
2.48735
2.49514
2.49939
2.49984
2.49795
2.4942
2.49153
2.49167
2.49438
2.4987
2.50293
2.50459
2.5034
2.4989
2.49171
2.48116
2.46862
2.45728
2.44824
2.44081
2.434
2.4261
2.41787
2.40886
2.39899
2.39104
2.38568
2.38198
2.38037
2.37986
2.37791
2.37316
2.36646
2.3578
2.34646
2.33286
2.31971
2.31055
2.30471
2.30009
2.29589
2.2909
2.28552
2.28017
2.27481
2.26845
2.26059
2.25036
2.23987
2.23255
2.22705
2.22319
2.22173
2.22147
2.22094
2.21917
2.21497
2.20695
2.19675
2.18851
2.18313
2.17804
2.17039
2.16308
2.15633
2.14981
2.14454
2.14085
2.13966
2.14185
2.147
2.14982
2.14883
2.14726
2.14571
2.14361
2.14046
2.13632
2.13394
2.13345
2.13342
2.13383
2.13575
2.13825
2.13853
2.13775
2.13681
2.13637
2.13642
2.13678
2.13743
2.1377
2.13683
2.13485
2.13422
2.1356
2.13998
2.14577
2.15408
2.16719
2.17984
2.19047
2.20323
2.21693
2.22946
2.23751
2.23929
2.23921
2.2418
2.25051
2.25959
2.26796
2.27705
2.28807
2.29997
2.31131
2.3212
2.32781
2.33016
2.32992
2.32759
2.32477
2.32321
2.31945
2.30992
2.29394
2.27415
2.25537
2.24324
2.23279
2.21752
2.20028
2.18274
2.16653
2.1539
2.14324
2.13848
2.13607
2.58648
2.57976
2.57288
2.56535
2.5569
2.54793
2.53949
2.53243
2.52696
2.52258
2.51832
2.51362
2.50892
2.50518
2.50331
2.50303
2.50369
2.50656
2.51284
2.52023
2.52586
2.53111
2.53594
2.54228
2.55149
2.56259
2.57374
2.58432
2.59423
2.60337
2.61205
2.62089
2.63014
2.63952
2.648
2.65472
2.65917
2.66032
2.65953
2.6559
2.64788
2.63738
2.62704
2.61946
2.61437
2.61039
2.60687
2.60294
2.5973
2.58999
2.58119
2.57167
2.56178
2.55109
2.54043
2.53032
2.52024
2.50988
2.49965
2.48941
2.47834
2.46719
2.45785
2.45015
2.44305
2.43599
2.42917
2.4225
2.41534
2.40742
2.39801
2.38695
2.37443
2.3612
2.34857
2.33839
2.33231
2.3257
2.31459
2.30491
2.29909
2.29759
2.30057
2.30921
2.31952
2.32635
2.32918
2.33068
2.32962
2.326
2.32424
2.32572
2.32997
2.33596
2.34234
2.34751
2.35203
2.35534
2.35658
2.35631
2.35516
2.35382
2.35307
2.35337
2.3551
2.35802
2.36202
2.36741
2.37439
2.38159
2.3879
2.39374
2.39999
2.40743
2.41583
2.42434
2.43191
2.43778
2.44185
2.44447
2.44643
2.44822
2.44932
2.4498
2.45061
2.45151
2.45164
2.45177
2.45144
2.44974
2.44585
2.44033
2.43312
2.42384
2.41428
2.407
2.40148
2.39642
2.39152
2.38667
2.3827
2.37943
2.37694
2.3754
2.37335
2.37031
2.36693
2.36265
2.35661
2.34844
2.33698
2.32502
2.31589
2.30939
2.30354
2.29766
2.29149
2.28508
2.27929
2.27439
2.26961
2.26288
2.25511
2.24755
2.24065
2.23362
2.22605
2.2216
2.21842
2.21525
2.21201
2.2073
2.19891
2.18729
2.17614
2.16787
2.16045
2.15059
2.14124
2.13348
2.12783
2.12385
2.12238
2.12365
2.12744
2.12826
2.12533
2.12246
2.1198
2.11728
2.11515
2.11365
2.11271
2.1122
2.11235
2.11291
2.11411
2.11635
2.11723
2.11675
2.11602
2.11487
2.11356
2.11267
2.11223
2.11186
2.11071
2.10799
2.10549
2.10531
2.10757
2.11193
2.11775
2.12756
2.13958
2.14823
2.15675
2.16715
2.178
2.18672
2.1899
2.18895
2.18751
2.19373
2.2056
2.21542
2.22422
2.23384
2.24334
2.25243
2.26227
2.27171
2.27883
2.28246
2.28315
2.28313
2.28714
2.29484
2.29783
2.2969
2.29045
2.27887
2.26781
2.25735
2.24278
2.2252
2.20586
2.18731
2.16899
2.15555
2.14171
2.13681
2.13374
2.5783
2.56969
2.56143
2.55261
2.54217
2.52975
2.51644
2.50389
2.49319
2.48445
2.47669
2.46867
2.46021
2.45281
2.44823
2.44615
2.44577
2.44641
2.44903
2.45089
2.45136
2.45251
2.45383
2.45709
2.46386
2.47253
2.48162
2.49105
2.5007
2.51081
2.52168
2.53332
2.54529
2.55742
2.56976
2.58233
2.59483
2.60683
2.61717
2.6229
2.62349
2.62065
2.61392
2.60762
2.60473
2.60325
2.60164
2.59847
2.59351
2.58633
2.5783
2.57117
2.56447
2.55776
2.55035
2.54124
2.53065
2.51899
2.50677
2.49421
2.48206
2.47179
2.46428
2.45812
2.45117
2.44267
2.43371
2.42502
2.41628
2.40705
2.39657
2.38383
2.3682
2.35033
2.33245
2.31668
2.30466
2.29512
2.28511
2.27501
2.2681
2.26642
2.26744
2.2717
2.27517
2.27456
2.27393
2.27303
2.2711
2.26897
2.26816
2.26924
2.27263
2.27747
2.28233
2.28653
2.29062
2.29343
2.29414
2.29408
2.29383
2.29346
2.29267
2.29147
2.29097
2.29216
2.29613
2.30192
2.30884
2.31601
2.32287
2.32882
2.33372
2.33836
2.34354
2.34913
2.35438
2.35924
2.36425
2.36994
2.376
2.38133
2.38509
2.38712
2.38748
2.38715
2.38668
2.3867
2.38687
2.38748
2.3881
2.3882
2.3868
2.3832
2.37733
2.36954
2.36191
2.35711
2.35581
2.35631
2.35798
2.36127
2.36388
2.36372
2.36109
2.35617
2.35213
2.34928
2.34615
2.34144
2.3358
2.32929
2.32149
2.31379
2.30653
2.29888
2.29112
2.28343
2.27651
2.27143
2.26733
2.26321
2.25788
2.25095
2.24383
2.23627
2.22592
2.21705
2.2106
2.20394
2.1981
2.19317
2.18633
2.17508
2.16269
2.15182
2.14036
2.12848
2.11822
2.1105
2.10534
2.10337
2.1041
2.10768
2.10938
2.10639
2.10203
2.09741
2.09321
2.09024
2.08878
2.08851
2.0887
2.08878
2.08918
2.09021
2.09169
2.09288
2.09283
2.09247
2.09162
2.0902
2.08837
2.08664
2.08521
2.08366
2.08137
2.07892
2.07822
2.07885
2.08086
2.08404
2.0893
2.09791
2.10601
2.1112
2.11737
2.1247
2.13111
2.13297
2.13148
2.13
2.13378
2.14361
2.15356
2.16258
2.17116
2.1803
2.18811
2.19528
2.20301
2.20983
2.21416
2.21651
2.21988
2.22834
2.2422
2.25592
2.26742
2.27606
2.27869
2.27696
2.27261
2.26214
2.24728
2.23091
2.21103
2.19265
2.1759
2.16292
2.14994
2.14312
2.1354
2.56771
2.55575
2.54509
2.53527
2.52442
2.51075
2.49436
2.47711
2.46104
2.44749
2.43668
2.4276
2.41895
2.41088
2.40497
2.40183
2.40031
2.39925
2.39817
2.39493
2.39157
2.3888
2.38708
2.38749
2.39039
2.3955
2.40156
2.40847
2.41613
2.42464
2.43411
2.44428
2.45469
2.46543
2.47759
2.49221
2.50907
2.52723
2.54459
2.55898
2.56977
2.57634
2.57887
2.58008
2.58231
2.5851
2.58604
2.58503
2.58107
2.5737
2.56823
2.56432
2.56091
2.55835
2.55432
2.54565
2.53512
2.52278
2.50972
2.49708
2.48527
2.47545
2.46888
2.46305
2.45543
2.44493
2.43414
2.42452
2.415
2.40478
2.39296
2.37826
2.36012
2.33971
2.31952
2.30166
2.28748
2.27714
2.2684
2.25978
2.2526
2.24759
2.24405
2.24023
2.23513
2.2305
2.22684
2.22515
2.22531
2.22778
2.23086
2.23339
2.23632
2.23942
2.2417
2.24265
2.2413
2.23746
2.23432
2.23336
2.23365
2.23482
2.23629
2.23703
2.23715
2.23813
2.24113
2.24579
2.25085
2.25578
2.26051
2.26433
2.26676
2.26846
2.27046
2.27356
2.27791
2.28326
2.28969
2.29678
2.30336
2.30854
2.31196
2.31349
2.31362
2.31359
2.31468
2.31682
2.31866
2.32087
2.32312
2.32426
2.3246
2.32439
2.32226
2.31776
2.31262
2.30961
2.30958
2.31212
2.3169
2.32301
2.32785
2.3315
2.33236
2.33141
2.32925
2.32758
2.32624
2.32461
2.32359
2.32157
2.31706
2.31089
2.30362
2.29575
2.28722
2.27871
2.271
2.26559
2.26189
2.25781
2.25249
2.24551
2.2387
2.23111
2.21785
2.20465
2.19562
2.18615
2.17796
2.17252
2.16693
2.15724
2.14544
2.13332
2.12009
2.10787
2.09801
2.09127
2.08791
2.08781
2.09108
2.09342
2.09071
2.0859
2.08114
2.07627
2.07268
2.07108
2.07019
2.06977
2.06987
2.06989
2.06944
2.06975
2.07009
2.07013
2.07011
2.06992
2.06932
2.06839
2.06692
2.0647
2.06166
2.05818
2.0554
2.0546
2.05478
2.05555
2.05715
2.05994
2.06495
2.07054
2.07489
2.07865
2.08289
2.08577
2.08561
2.08234
2.0793
2.08063
2.08803
2.09706
2.10426
2.111
2.11811
2.12484
2.13074
2.13631
2.14167
2.14541
2.14688
2.14811
2.15328
2.1656
2.18287
2.20217
2.22189
2.24016
2.25577
2.26337
2.2629
2.25696
2.24642
2.23461
2.21994
2.20236
2.18691
2.17656
2.16502
2.15508
2.14177
2.5513
2.53626
2.52223
2.50954
2.49675
2.4821
2.4649
2.4461
2.42767
2.41155
2.39896
2.38994
2.38306
2.37676
2.37114
2.36707
2.3643
2.36156
2.35765
2.35236
2.34759
2.34306
2.33927
2.33756
2.33786
2.34023
2.34314
2.34694
2.35172
2.35714
2.36283
2.3685
2.37419
2.38093
2.39049
2.40339
2.41887
2.43622
2.45455
2.47273
2.48926
2.50272
2.51334
2.52284
2.53235
2.5414
2.54913
2.55329
2.55271
2.54801
2.54616
2.54637
2.54674
2.54771
2.54695
2.54133
2.53235
2.52159
2.50997
2.49814
2.48686
2.47688
2.46909
2.46145
2.45131
2.43857
2.42644
2.41504
2.40398
2.39224
2.37858
2.36192
2.34237
2.32169
2.30208
2.28496
2.27131
2.26143
2.25346
2.24533
2.23633
2.22757
2.2196
2.21207
2.20595
2.20162
2.19939
2.19987
2.20343
2.21053
2.21751
2.22054
2.21979
2.21635
2.20959
2.20244
2.19511
2.18872
2.18654
2.18696
2.1896
2.19437
2.19849
2.20174
2.20403
2.20516
2.2057
2.20631
2.20745
2.20846
2.20921
2.20962
2.20981
2.20993
2.21033
2.21195
2.21591
2.22172
2.22857
2.23518
2.24068
2.24446
2.24617
2.24643
2.24633
2.24645
2.2474
2.24941
2.25179
2.25438
2.25714
2.25891
2.26004
2.26007
2.25882
2.25669
2.25496
2.25447
2.25553
2.25928
2.26423
2.26905
2.27365
2.27767
2.2813
2.28533
2.28926
2.29242
2.2949
2.29651
2.29714
2.29698
2.29532
2.29147
2.28643
2.28072
2.27424
2.26716
2.25999
2.25411
2.24864
2.24182
2.23411
2.2267
2.22007
2.21136
2.19585
2.18148
2.1712
2.1607
2.15243
2.14755
2.14231
2.13329
2.12318
2.11265
2.10118
2.09064
2.08247
2.07795
2.07679
2.07766
2.07879
2.07652
2.07188
2.0671
2.0636
2.06183
2.06162
2.06226
2.06168
2.06018
2.05806
2.05503
2.05264
2.05187
2.05165
2.0517
2.05204
2.05252
2.05269
2.05243
2.0514
2.04872
2.04402
2.03913
2.03668
2.0362
2.03618
2.0369
2.03965
2.04439
2.04946
2.05186
2.05304
2.05377
2.05308
2.05037
2.04566
2.04212
2.04221
2.04634
2.05241
2.05816
2.0632
2.06766
2.07229
2.07703
2.08133
2.08507
2.0876
2.08846
2.08891
2.09157
2.09882
2.10984
2.12413
2.14234
2.16433
2.1892
2.21421
2.23312
2.23912
2.23793
2.23606
2.23229
2.22502
2.21366
2.20145
2.1922
2.18026
2.16724
2.15143
2.51739
2.50289
2.48788
2.47279
2.45749
2.44174
2.42525
2.40805
2.39106
2.37576
2.36359
2.35534
2.35024
2.34626
2.3421
2.33806
2.33437
2.3299
2.32447
2.31976
2.31565
2.31171
2.30784
2.30463
2.3031
2.3032
2.30439
2.3063
2.30878
2.31175
2.3143
2.31554
2.31631
2.31887
2.32493
2.33338
2.3433
2.35462
2.36748
2.38165
2.3964
2.41092
2.42519
2.4397
2.45433
2.46833
2.48073
2.49015
2.49499
2.49642
2.50037
2.50666
2.51212
2.51688
2.5177
2.51614
2.51178
2.50518
2.49692
2.48751
2.47771
2.4679
2.4583
2.44732
2.43272
2.41624
2.4008
2.38633
2.37361
2.36161
2.34819
2.33163
2.31279
2.29381
2.27673
2.26232
2.25066
2.24195
2.23404
2.22518
2.21542
2.20627
2.19852
2.19284
2.18947
2.18869
2.19016
2.19558
2.20381
2.20936
2.21037
2.20806
2.20385
2.19598
2.18301
2.1695
2.16362
2.1621
2.16189
2.16471
2.17235
2.18087
2.18602
2.18753
2.18713
2.18491
2.17983
2.1745
2.17159
2.17039
2.16998
2.17006
2.17068
2.17191
2.17374
2.17658
2.18043
2.18429
2.18739
2.18967
2.19045
2.19036
2.19024
2.19081
2.19212
2.19369
2.19524
2.19663
2.19825
2.20012
2.20161
2.2023
2.20231
2.20179
2.20134
2.20169
2.20297
2.20418
2.20551
2.20732
2.20975
2.21272
2.21578
2.21904
2.22341
2.22898
2.23489
2.24065
2.24582
2.25021
2.25273
2.25318
2.25244
2.25084
2.24881
2.24601
2.24231
2.23772
2.23265
2.22742
2.22016
2.21097
2.20111
2.19402
2.18779
2.17834
2.16334
2.15128
2.1412
2.13184
2.12529
2.12118
2.11522
2.10739
2.10001
2.09212
2.08402
2.07714
2.07182
2.06923
2.06828
2.06708
2.06346
2.05925
2.05591
2.05383
2.05337
2.05511
2.05901
2.05992
2.05803
2.05338
2.04624
2.04066
2.03895
2.03869
2.03886
2.03965
2.04136
2.04235
2.0423
2.04163
2.03958
2.03601
2.03148
2.0276
2.02599
2.02548
2.02588
2.02861
2.03381
2.03815
2.03877
2.03862
2.03769
2.03479
2.02965
2.02365
2.02039
2.0203
2.02256
2.02675
2.02972
2.03241
2.03497
2.03729
2.03996
2.04289
2.04527
2.04619
2.04596
2.04528
2.04585
2.0498
2.05642
2.06441
2.0746
2.08854
2.10699
2.1297
2.1551
2.17974
2.19717
2.20607
2.21421
2.21915
2.219
2.21735
2.211
2.2002
2.18751
2.17564
2.1602
2.45984
2.45045
2.43911
2.42502
2.40981
2.39469
2.38022
2.36649
2.35353
2.34159
2.33198
2.32573
2.32217
2.31939
2.31627
2.31284
2.30843
2.30328
2.29852
2.29491
2.29226
2.29016
2.28761
2.28479
2.28311
2.28295
2.28382
2.28493
2.28485
2.28441
2.28289
2.27996
2.27738
2.27745
2.28075
2.28554
2.29059
2.29636
2.30334
2.31171
2.32123
2.33163
2.34332
2.35656
2.37078
2.38518
2.39867
2.40959
2.41638
2.42082
2.42937
2.44002
2.44931
2.45622
2.45937
2.45991
2.45927
2.45747
2.45439
2.44979
2.44305
2.43397
2.42284
2.40817
2.38963
2.36992
2.353
2.33815
2.32639
2.31786
2.30696
2.29154
2.27559
2.26015
2.24584
2.23509
2.22653
2.21956
2.2125
2.20472
2.19701
2.19038
2.18557
2.18268
2.18225
2.18465
2.19142
2.19854
2.20075
2.19903
2.19599
2.19281
2.18815
2.17898
2.16539
2.15674
2.15342
2.15277
2.156
2.16366
2.17045
2.17253
2.17185
2.17048
2.16856
2.16461
2.15921
2.1548
2.15196
2.15121
2.15139
2.15278
2.15535
2.15783
2.1594
2.16001
2.15976
2.15823
2.15628
2.15429
2.15328
2.15393
2.15563
2.15837
2.16145
2.16333
2.16423
2.1641
2.16271
2.16079
2.15901
2.1574
2.15668
2.15728
2.15891
2.16215
2.16578
2.16783
2.16841
2.16726
2.16506
2.16427
2.16448
2.16589
2.16973
2.17541
2.18132
2.18699
2.19205
2.19621
2.19826
2.19813
2.19807
2.19834
2.19815
2.19786
2.19711
2.1952
2.19197
2.18623
2.17829
2.16871
2.15921
2.15353
2.14839
2.13975
2.12849
2.11992
2.11236
2.10605
2.1018
2.09722
2.09123
2.0854
2.07986
2.07381
2.06903
2.06616
2.06462
2.06312
2.05963
2.05551
2.05158
2.0488
2.04713
2.04709
2.05062
2.05676
2.05835
2.0565
2.05289
2.04646
2.03696
2.03205
2.03108
2.03101
2.03198
2.03435
2.03497
2.03491
2.03412
2.0323
2.02983
2.02722
2.02496
2.02318
2.02209
2.02206
2.02331
2.02567
2.02759
2.02787
2.02752
2.02685
2.02523
2.02098
2.01564
2.01219
2.01118
2.01198
2.01542
2.01822
2.01926
2.01939
2.0187
2.01882
2.0195
2.01988
2.01977
2.01904
2.01792
2.01765
2.01968
2.02442
2.03045
2.03704
2.04465
2.05357
2.06443
2.07776
2.09384
2.11307
2.13477
2.15596
2.17574
2.19363
2.20664
2.21088
2.20941
2.20102
2.18832
2.17839
2.16536
2.39608
2.39223
2.38483
2.37259
2.35976
2.34814
2.33747
2.32833
2.32062
2.3133
2.30713
2.30306
2.29997
2.29646
2.29324
2.29038
2.28706
2.28336
2.27991
2.2776
2.27671
2.2764
2.27579
2.27467
2.2738
2.27283
2.2708
2.26862
2.26627
2.26325
2.25952
2.25686
2.25662
2.25739
2.26045
2.26389
2.26617
2.26818
2.26996
2.27182
2.27439
2.27806
2.28355
2.29143
2.30097
2.31115
2.32124
2.32954
2.33471
2.33835
2.3462
2.35688
2.36654
2.37392
2.37928
2.38288
2.38539
2.38693
2.38709
2.38558
2.38039
2.372
2.36061
2.34572
2.32766
2.30905
2.29492
2.28342
2.27644
2.2719
2.26276
2.25113
2.23965
2.22752
2.21613
2.20917
2.204
2.19962
2.19498
2.18953
2.18502
2.18173
2.18013
2.18034
2.18312
2.18916
2.19283
2.19178
2.18865
2.18579
2.18253
2.17783
2.17058
2.16242
2.1576
2.15465
2.15361
2.15513
2.15949
2.16262
2.16173
2.15987
2.15805
2.1556
2.15282
2.15113
2.15005
2.14891
2.14726
2.14637
2.14649
2.14693
2.14703
2.14662
2.14575
2.14465
2.14243
2.13892
2.13683
2.13637
2.13655
2.1393
2.14434
2.14802
2.14862
2.14801
2.14473
2.14033
2.13641
2.1329
2.13019
2.12945
2.1301
2.13286
2.13823
2.14357
2.14535
2.14477
2.14155
2.1356
2.13042
2.12753
2.12679
2.12799
2.13105
2.1364
2.1418
2.14553
2.14854
2.14958
2.14837
2.14621
2.14583
2.14589
2.1463
2.14807
2.14995
2.15029
2.14795
2.14235
2.13433
2.12586
2.11935
2.11546
2.11096
2.10421
2.09874
2.09422
2.08988
2.0865
2.08322
2.07921
2.07481
2.06976
2.06425
2.05997
2.05812
2.05775
2.05809
2.05668
2.05315
2.04834
2.0448
2.04348
2.04324
2.0458
2.05198
2.05446
2.05287
2.05025
2.04644
2.03951
2.03287
2.02955
2.02835
2.02834
2.02933
2.02966
2.02966
2.02894
2.02718
2.02531
2.02401
2.02294
2.02255
2.02263
2.02156
2.0204
2.01989
2.01917
2.01856
2.01813
2.01755
2.01638
2.01394
2.01165
2.01033
2.00973
2.0107
2.01229
2.01238
2.01221
2.01107
2.00741
2.00417
2.00338
2.00327
2.00309
2.00253
2.00221
2.003
2.00478
2.00884
2.01493
2.0206
2.02432
2.02698
2.02876
2.03021
2.03384
2.04139
2.05411
2.07263
2.09543
2.12144
2.14878
2.17339
2.1898
2.19555
2.1915
2.18199
2.17602
2.16663
2.3409
2.33802
2.33257
2.32413
2.31576
2.30944
2.30407
2.29988
2.29681
2.29355
2.28972
2.28578
2.28184
2.27768
2.27478
2.27322
2.27226
2.27101
2.26949
2.26883
2.26883
2.26919
2.26934
2.26874
2.26648
2.26338
2.2596
2.2554
2.25158
2.24883
2.24757
2.24751
2.25011
2.25467
2.25718
2.25681
2.25527
2.25268
2.24942
2.24593
2.24389
2.24397
2.24585
2.25006
2.2551
2.25998
2.26523
2.2701
2.27383
2.27691
2.28184
2.28865
2.29513
2.30025
2.30418
2.30723
2.30979
2.31109
2.3108
2.30909
2.30549
2.30058
2.29301
2.28187
2.26722
2.25337
2.24498
2.23858
2.23598
2.23248
2.22596
2.21894
2.21085
2.20095
2.19374
2.19033
2.18833
2.18676
2.18458
2.18127
2.1798
2.17948
2.18028
2.18372
2.18811
2.18849
2.1854
2.18126
2.17755
2.17329
2.16781
2.16199
2.15807
2.15596
2.15567
2.15791
2.161
2.16134
2.15914
2.15606
2.15333
2.15047
2.1481
2.1471
2.14656
2.1478
2.14997
2.14979
2.14828
2.14507
2.14114
2.13861
2.1372
2.13588
2.13408
2.13172
2.13052
2.12993
2.12947
2.13087
2.13452
2.13826
2.13907
2.13831
2.13553
2.13146
2.12693
2.12185
2.11832
2.117
2.11656
2.1169
2.12022
2.1252
2.1279
2.12766
2.12567
2.12216
2.11689
2.11143
2.10853
2.10792
2.10801
2.10993
2.11469
2.11921
2.12037
2.12043
2.11885
2.1147
2.11032
2.10858
2.10829
2.1084
2.11
2.11297
2.11465
2.11412
2.11087
2.10513
2.09853
2.094
2.09078
2.08708
2.08239
2.07915
2.07774
2.07631
2.07465
2.07293
2.07091
2.06847
2.06481
2.05922
2.05359
2.05095
2.05045
2.05074
2.05135
2.0505
2.04858
2.04521
2.04227
2.04163
2.04299
2.04681
2.0489
2.04749
2.04522
2.0423
2.03709
2.03169
2.03008
2.02982
2.02978
2.02907
2.0276
2.02599
2.0247
2.0234
2.02238
2.02166
2.02128
2.02229
2.02371
2.02364
2.02164
2.0182
2.01401
2.01157
2.00997
2.00837
2.00697
2.00633
2.00658
2.00688
2.00855
2.01213
2.01488
2.01468
2.01243
2.0071
2.00051
1.9952
1.9925
1.99168
1.99147
1.99166
1.99246
1.9936
1.99654
2.00217
2.00917
2.01311
2.01365
2.01316
2.00986
2.0057
2.00282
2.00171
2.00327
2.01099
2.02572
2.04465
2.06733
2.09363
2.12105
2.14524
2.16092
2.16193
2.161
2.16254
2.15978
2.3008
2.29837
2.29525
2.29148
2.28784
2.2857
2.28394
2.28273
2.28153
2.27952
2.27692
2.27316
2.26888
2.26562
2.26411
2.2639
2.26449
2.26524
2.26546
2.2655
2.26505
2.26406
2.26291
2.26118
2.25876
2.2557
2.25189
2.24802
2.24497
2.24344
2.24352
2.24607
2.24978
2.25139
2.25049
2.24859
2.24572
2.24107
2.23573
2.2318
2.22965
2.22899
2.23051
2.2346
2.23737
2.23885
2.2404
2.24191
2.24292
2.24361
2.2442
2.24492
2.24601
2.24674
2.2468
2.24701
2.24764
2.24839
2.2483
2.24785
2.24689
2.2449
2.23969
2.23072
2.21999
2.21324
2.20989
2.20792
2.20722
2.20464
2.20121
2.19738
2.19056
2.18394
2.18107
2.18017
2.18037
2.18112
2.18087
2.17993
2.18017
2.181
2.18263
2.18461
2.18496
2.18212
2.17798
2.17274
2.16603
2.16008
2.1567
2.15488
2.15372
2.15504
2.15987
2.16405
2.16388
2.16183
2.15777
2.15095
2.14627
2.14428
2.14323
2.14301
2.14579
2.14925
2.14915
2.14782
2.14563
2.14175
2.13639
2.13204
2.12906
2.12687
2.12569
2.12517
2.12507
2.12707
2.13031
2.13429
2.13596
2.13499
2.13244
2.12834
2.12299
2.11659
2.11178
2.11039
2.10984
2.10977
2.11214
2.11604
2.11863
2.11844
2.11692
2.11372
2.10913
2.10381
2.10082
2.10004
2.09971
2.10078
2.10392
2.10684
2.10733
2.10621
2.10389
2.10108
2.09651
2.09132
2.08916
2.08853
2.08832
2.08935
2.09151
2.09143
2.08948
2.08687
2.08357
2.07979
2.07695
2.07515
2.07314
2.07011
2.06605
2.06437
2.06433
2.06476
2.0653
2.06515
2.0645
2.06326
2.05909
2.05207
2.0472
2.04551
2.04505
2.04511
2.04581
2.04591
2.04542
2.04454
2.04395
2.04409
2.04506
2.04482
2.04318
2.04112
2.03789
2.03294
2.02893
2.02767
2.02798
2.03033
2.03095
2.03029
2.02768
2.02341
2.02093
2.02009
2.0197
2.01974
2.02183
2.02472
2.02504
2.02312
2.01961
2.01444
2.00927
2.00493
2.00151
1.99958
1.99907
1.9996
2.00201
2.00669
2.01337
2.01837
2.01872
2.01743
2.0122
2.00259
1.9919
1.98584
1.98398
1.98335
1.98328
1.98388
1.98657
1.99169
1.9992
2.00678
2.00941
2.00909
2.00772
2.00342
1.99642
1.98842
1.9836
1.983
1.98484
1.99064
2.00313
2.01898
2.03417
2.05088
2.07058
2.08993
2.10394
2.11279
2.12323
2.13334
2.13913
2.28338
2.28184
2.27985
2.27765
2.27565
2.27416
2.27317
2.27248
2.2717
2.2705
2.26842
2.26522
2.26193
2.26014
2.25966
2.25989
2.26109
2.26217
2.26266
2.26235
2.26083
2.25868
2.25647
2.25433
2.25229
2.25037
2.24815
2.24548
2.24351
2.24297
2.24378
2.24521
2.24534
2.24391
2.24184
2.23954
2.2364
2.23284
2.23033
2.22807
2.2267
2.22655
2.22755
2.22785
2.22716
2.22589
2.22446
2.22291
2.2217
2.22111
2.22027
2.21873
2.21694
2.21532
2.21419
2.21363
2.21377
2.21472
2.21486
2.2138
2.21064
2.20603
2.20098
2.19571
2.19265
2.19264
2.1925
2.19274
2.19227
2.19101
2.18927
2.18374
2.17787
2.17591
2.17593
2.17626
2.17811
2.18012
2.18061
2.17982
2.17862
2.17885
2.17902
2.17968
2.17882
2.17577
2.17114
2.16393
2.15758
2.15424
2.15247
2.15191
2.15379
2.15877
2.16218
2.16195
2.16032
2.15814
2.15515
2.15043
2.14521
2.14259
2.1418
2.14313
2.14574
2.14581
2.14489
2.14359
2.1415
2.13784
2.13249
2.12712
2.12429
2.12287
2.12191
2.12227
2.12567
2.13097
2.13467
2.13459
2.13313
2.13057
2.12654
2.11965
2.11108
2.10643
2.10531
2.10486
2.10669
2.11122
2.11614
2.11759
2.11641
2.11351
2.10892
2.10301
2.09771
2.09529
2.09478
2.09586
2.09944
2.10253
2.10281
2.10134
2.09887
2.09568
2.09136
2.0858
2.08292
2.08159
2.08075
2.08128
2.0822
2.08171
2.07977
2.0768
2.07331
2.07034
2.06801
2.06673
2.06605
2.0651
2.0637
2.06157
2.05903
2.05817
2.05839
2.05894
2.06021
2.06108
2.06137
2.05912
2.05285
2.04715
2.04432
2.04296
2.04234
2.04227
2.04284
2.04404
2.04533
2.04678
2.04733
2.04684
2.04489
2.04188
2.03864
2.03472
2.03002
2.02653
2.02505
2.02505
2.02776
2.03049
2.03033
2.02979
2.02722
2.02263
2.01998
2.01932
2.01926
2.02098
2.02396
2.02446
2.02299
2.0203
2.0165
2.01075
2.0035
1.99859
1.99681
1.99619
1.99596
1.99675
2.00256
2.01279
2.01806
2.01816
2.01782
2.01599
2.01
1.99733
1.98644
1.98243
1.98056
1.97953
1.97909
1.98032
1.98637
1.99617
2.00304
2.00397
2.00357
2.00284
2.00108
1.99571
1.98544
1.97828
1.97634
1.97612
1.97849
1.98693
1.99791
2.0049
2.01
2.01667
2.0244
2.03364
2.04301
2.05596
2.07344
2.08744
2.10059
2.27788
2.27452
2.27077
2.2684
2.26735
2.26679
2.26653
2.26635
2.26599
2.26517
2.26344
2.26085
2.25895
2.25831
2.25814
2.25834
2.25867
2.25902
2.25889
2.25781
2.25621
2.25406
2.2518
2.24998
2.24862
2.24762
2.24695
2.24627
2.24547
2.24457
2.24319
2.24118
2.2391
2.23673
2.23378
2.2309
2.22895
2.22809
2.22837
2.229
2.22924
2.22804
2.22544
2.2223
2.21952
2.21705
2.21428
2.21105
2.20839
2.2066
2.20615
2.20649
2.20625
2.20531
2.20412
2.2032
2.20265
2.20161
2.19921
2.19501
2.18989
2.18482
2.18141
2.181
2.18318
2.18592
2.18743
2.18762
2.18713
2.18464
2.1791
2.17396
2.1725
2.17316
2.17404
2.17621
2.17908
2.18049
2.18024
2.17716
2.17368
2.17253
2.17226
2.17238
2.171
2.16915
2.16651
2.16177
2.15638
2.1535
2.15251
2.15352
2.15677
2.15836
2.15749
2.15588
2.154
2.15177
2.14986
2.1483
2.14689
2.14585
2.14521
2.1444
2.14271
2.14099
2.13917
2.13685
2.13388
2.13079
2.12869
2.12675
2.12403
2.12242
2.1222
2.12446
2.12919
2.13255
2.13269
2.13144
2.12964
2.12674
2.12011
2.11032
2.1049
2.10325
2.10255
2.10441
2.11047
2.11659
2.11718
2.11594
2.11376
2.10968
2.10225
2.09585
2.09347
2.09278
2.0937
2.0972
2.09958
2.09917
2.09742
2.09509
2.09177
2.08645
2.08174
2.07956
2.07803
2.07815
2.08016
2.0812
2.07976
2.07703
2.07292
2.0681
2.06456
2.06229
2.06125
2.0609
2.06047
2.05953
2.05844
2.05721
2.05646
2.05649
2.057
2.05763
2.0583
2.05859
2.05623
2.05156
2.04704
2.04448
2.0432