/*--------------------------------*- C++ -*----------------------------------*\
  =========                 |
  \\      /  F ield         | OpenFOAM: The Open Source CFD Toolbox
   \\    /   O peration     | Website:  https://openfoam.org
    \\  /    A nd           | Version:  7
     \\/     M anipulation  |
\*---------------------------------------------------------------------------*/
FoamFile
{
    version     2.0;
    format      ascii;
    class       volScalarField;
    location    "1.4";
    object      p;
}
// * * * * * * * * * * * * * * * * * * * * * * * * * * * * * * * * * * * * * //

dimensions      [1 -1 -2 0 0 0 0];

internalField   nonuniform List<scalar> 
16192
(
2.07232
2.07767
2.10455
2.15238
2.17373
2.16983
2.15966
2.14194
2.1062
2.03877
1.9885
1.97442
1.97259
1.97909
2.0294
2.26044
2.90845
3.9857
4.89571
5.45545
5.56216
5.48642
5.36395
5.31749
5.31968
5.38366
5.41511
5.39002
5.31946
5.19437
5.06214
5.00065
4.97464
4.97244
5.02379
5.11895
5.16315
5.14203
5.08937
4.99639
4.86213
4.76481
4.72827
4.71712
4.71851
4.74384
4.74562
4.71949
4.68056
4.62191
4.55924
4.51426
4.49951
4.49588
4.48926
4.4747
4.44998
4.40701
4.34622
4.29823
4.27458
4.25859
4.24653
4.25137
4.27152
4.26879
4.24709
4.21503
4.15677
4.0649
3.99087
3.96701
3.96115
3.95913
3.9678
3.99303
4.00501
3.98785
3.95861
3.91705
3.84546
3.76559
3.7175
3.70546
3.7002
3.70448
3.72829
3.7475
3.74366
3.7376
3.7269
3.69252
3.63678
3.58737
3.56238
3.5484
3.54384
3.56144
3.57234
3.56087
3.54523
3.52382
3.48628
3.43762
3.39915
3.38767
3.37984
3.37255
3.36712
3.3639
3.36401
3.35482
3.34122
3.32552
3.29468
3.24728
3.2166
3.20962
3.20609
3.2083
3.21384
3.20709
3.19889
3.19161
3.18165
3.15809
3.12439
3.09398
3.073
3.05313
3.03373
3.01893
3.00891
3.00289
2.99886
2.99463
2.99464
3.0065
3.01897
3.01649
3.00957
2.99609
2.96287
2.90775
2.86082
2.83293
2.81458
2.80341
2.7947
2.78514
2.77636
2.76767
2.75492
2.72727
2.69376
2.67747
2.6676
2.65873
2.65365
2.65352
2.65173
2.64765
2.64592
2.63909
2.62925
2.62392
2.62586
2.6291
2.63172
2.62651
2.61428
2.58521
2.52529
2.47379
2.45631
2.45212
2.45189
2.45494
2.46925
2.49504
2.51669
2.52939
2.53569
2.53202
2.51464
2.48051
2.44449
2.4132
2.38733
2.37678
2.37044
2.36078
2.35153
2.34443
2.33319
2.31853
2.3106
2.30994
2.32406
2.34232
2.34526
2.34198
2.3359
2.32261
2.28158
2.20657
2.16676
2.15606
2.15073
2.14623
2.1428
2.14522
2.17497
2.22584
2.235
2.23088
2.22647
2.21804
2.18949
2.1282
2.08688
2.07625
2.07208
2.06917
2.06851
2.08162
2.09858
2.09729
2.09129
2.08467
2.07331
2.0507
2.02705
2.01865
2.01618
2.0144
2.01446
2.02645
2.04236
2.0446
2.04321
2.04028
2.03305
2.00511
1.94006
1.89643
1.88654
1.88323
1.88057
1.87934
1.88916
1.92678
1.95796
2.09948
2.12596
2.17305
2.19477
2.19097
2.18131
2.1649
2.13388
2.0704
2.0123
1.99395
1.99361
2.00928
2.14232
2.6572
3.67879
4.69023
5.4009
5.66238
5.6593
5.5367
5.39254
5.33874
5.35029
5.43743
5.4786
5.44957
5.36842
5.22873
5.09536
5.03603
5.01554
5.03086
5.10538
5.18978
5.19991
5.16835
5.11347
5.02226
4.9037
4.816
4.78249
4.77268
4.7735
4.7824
4.77292
4.74688
4.71031
4.65578
4.59686
4.5606
4.54615
4.532
4.51296
4.4891
4.46194
4.42572
4.37611
4.32561
4.29374
4.2774
4.2661
4.2774
4.30588
4.30723
4.28332
4.24481
4.18328
4.10739
4.03679
3.99577
3.98392
3.98056
3.99032
4.02219
4.03751
4.02262
3.9968
3.95868
3.89386
3.8183
3.76482
3.74743
3.7401
3.74043
3.75775
3.77177
3.76649
3.75957
3.74576
3.70842
3.65291
3.60653
3.58579
3.57421
3.56891
3.58279
3.59525
3.58469
3.5693
3.54674
3.51209
3.4726
3.4363
3.42462
3.41906
3.41117
3.4032
3.39689
3.39038
3.37885
3.36188
3.34149
3.31439
3.27996
3.2443
3.22639
3.21912
3.21634
3.22739
3.23228
3.2248
3.21582
3.20189
3.17102
3.13819
3.11669
3.10897
3.10106
3.08944
3.07166
3.04822
3.02595
3.0112
3.00176
2.9942
2.98774
2.98594
2.99032
2.98685
2.97634
2.96166
2.93981
2.9159
2.89842
2.88211
2.85888
2.82772
2.80218
2.78715
2.7742
2.75712
2.73704
2.71658
2.70347
2.69793
2.6934
2.69009
2.68462
2.67386
2.65946
2.64498
2.63028
2.61345
2.60148
2.59713
2.60747
2.63481
2.64536
2.63915
2.62765
2.60629
2.55519
2.4855
2.45844
2.45502
2.45494
2.45797
2.47156
2.49208
2.50074
2.5032
2.504
2.50138
2.48934
2.47235
2.46493
2.45841
2.44615
2.42546
2.3992
2.37603
2.35883
2.33972
2.31707
2.30034
2.29455
2.29263
2.30413
2.33985
2.35278
2.34983
2.34446
2.3366
2.31573
2.25662
2.18301
2.15835
2.15187
2.14746
2.1439
2.1432
2.15256
2.18481
2.22772
2.23748
2.23221
2.22277
2.20418
2.16917
2.11431
2.08027
2.07166
2.06771
2.06501
2.06538
2.07934
2.0904
2.08664
2.08002
2.07292
2.05593
2.02862
2.01345
2.00877
2.00641
2.00514
2.00879
2.02915
2.04315
2.04177
2.03914
2.0342
2.01897
1.97612
1.91173
1.88573
1.87946
1.87603
1.87369
1.87502
1.89225
1.92631
2.14531
2.19181
2.21487
2.21167
2.20207
2.1874
2.15999
2.10338
2.03705
2.01623
2.01965
2.07847
2.43162
3.31548
4.49227
5.21185
5.67589
5.75692
5.72307
5.5731
5.4329
5.38992
5.4077
5.49904
5.53296
5.49625
5.40334
5.24699
5.13201
5.09566
5.08098
5.10363
5.17867
5.23954
5.23368
5.19659
5.13913
5.04471
4.93359
4.86299
4.83703
4.82837
4.8292
4.83045
4.81729
4.79067
4.75204
4.69477
4.63333
4.59553
4.5795
4.56616
4.54922
4.52592
4.49585
4.45335
4.40222
4.35457
4.32894
4.31283
4.30022
4.30453
4.33086
4.34115
4.32292
4.2883
4.22721
4.13246
4.0576
4.03171
4.02503
4.0233
4.03244
4.06032
4.07417
4.06207
4.03799
3.99712
3.92894
3.85039
3.80189
3.78764
3.78056
3.77955
3.79867
3.81446
3.80757
3.79571
3.77483
3.72985
3.6658
3.62028
3.59894
3.589
3.58259
3.59406
3.6138
3.60858
3.59365
3.57187
3.53437
3.48981
3.46025
3.45035
3.44545
3.44162
3.43651
3.43152
3.42698
3.41849
3.40276
3.37915
3.34317
3.29898
3.26486
3.25053
3.24315
3.23899
3.24578
3.25491
3.24836
3.23883
3.22681
3.19733
3.16074
3.13391
3.12738
3.12509
3.12426
3.11708
3.10389
3.0823
3.05106
3.02396
3.00784
2.99593
2.98383
2.97329
2.96486
2.95657
2.94188
2.9262
2.92075
2.91869
2.91796
2.91204
2.899
2.87358
2.83253
2.79408
2.76559
2.74385
2.72597
2.71667
2.71387
2.71485
2.71766
2.71515
2.70886
2.69677
2.67378
2.64144
2.61386
2.59888
2.59078
2.58565
2.59124
2.62306
2.6466
2.64277
2.63037
2.6113
2.57851
2.53383
2.49323
2.47265
2.46783
2.46922
2.47833
2.48747
2.48939
2.48523
2.47378
2.46428
2.46322
2.47087
2.48187
2.48977
2.48676
2.47335
2.44791
2.40629
2.35955
2.32309
2.30372
2.29445
2.29005
2.2875
2.29309
2.32292
2.35494
2.35797
2.35227
2.34391
2.32873
2.29785
2.23967
2.17947
2.15846
2.15283
2.14896
2.14683
2.14977
2.16107
2.18264
2.20762
2.21472
2.2106
2.20384
2.18881
2.16101
2.11626
2.07996
2.0696
2.06569
2.06366
2.06611
2.07865
2.0844
2.07906
2.07162
2.06057
2.03774
2.01593
2.00733
2.00322
2.00111
2.00105
2.00795
2.02207
2.02691
2.02545
2.02274
2.01744
1.99915
1.95409
1.89877
1.87957
1.87568
1.8736
1.87408
1.88018
1.89634
2.20788
2.23354
2.23186
2.22262
2.20921
2.18546
2.13528
2.06497
2.04219
2.06312
2.25707
2.93783
4.13976
5.07493
5.62549
5.82537
5.8284
5.76272
5.59863
5.4655
5.42578
5.4539
5.55506
5.58149
5.53865
5.43865
5.28132
5.17145
5.1379
5.13091
5.16842
5.24362
5.27663
5.25304
5.2173
5.17058
5.08842
4.97651
4.90048
4.875
4.86669
4.86795
4.86825
4.85674
4.83463
4.80141
4.74458
4.67511
4.63683
4.61852
4.60044
4.58126
4.5599
4.53364
4.49191
4.43174
4.37882
4.35435
4.34096
4.33028
4.33224
4.35288
4.36172
4.34158
4.3052
4.25355
4.17856
4.1051
4.0591
4.04529
4.04378
4.06136
4.09869
4.10771
4.09541
4.0768
4.03722
3.96453
3.88304
3.83277
3.81027
3.803
3.80497
3.83223
3.8578
3.85284
3.83894
3.81289
3.76171
3.69447
3.64505
3.61947
3.60796
3.59892
3.60422
3.62406
3.62308
3.60901
3.59201
3.56317
3.51993
3.48306
3.4689
3.46277
3.45907
3.45885
3.45707
3.45272
3.44667
3.43661
3.42011
3.38849
3.33733
3.29026
3.26563
3.25677
3.25207
3.25763
3.27247
3.26917
3.26146
3.25133
3.22277
3.18431
3.15681
3.14919
3.14582
3.14702
3.14385
3.13327
3.12077
3.10326
3.07723
3.04978
3.02593
3.00527
2.98619
2.96569
2.94325
2.92209
2.90966
2.9059
2.91081
2.92297
2.9304
2.92757
2.91789
2.90215
2.86622
2.80585
2.76073
2.73873
2.72934
2.72515
2.72441
2.73394
2.73675
2.73071
2.72365
2.71133
2.6834
2.64215
2.61113
2.59854
2.59149
2.58546
2.58356
2.59193
2.60454
2.60856
2.60288
2.59224
2.57836
2.56109
2.54258
2.52075
2.49846
2.48535
2.48112
2.48006
2.4755
2.45989
2.44351
2.4395
2.44624
2.46397
2.49197
2.51196
2.51037
2.50055
2.48131
2.43276
2.36031
2.31697
2.30171
2.29624
2.29222
2.28983
2.29428
2.31051
2.326
2.33368
2.3344
2.32948
2.32211
2.30967
2.28435
2.24079
2.18886
2.16432
2.1581
2.15478
2.15418
2.15757
2.16279
2.17436
2.19226
2.19637
2.19105
2.18559
2.17774
2.16081
2.12509
2.08504
2.07067
2.06569
2.06264
2.06214
2.07265
2.08047
2.07548
2.06555
2.05028
2.02928
2.01176
2.00389
2.00056
1.99937
2.00117
2.00881
2.01259
2.0119
2.00981
2.0056
1.99834
1.98176
1.94804
1.90286
1.88237
1.87835
1.87677
1.87663
1.87911
2.25076
2.2517
2.24328
2.23078
2.20894
2.16668
2.09411
2.08172
2.17292
2.6481
3.69084
4.8441
5.46088
5.82046
5.91016
5.89654
5.78883
5.61684
5.50459
5.46981
5.50312
5.6043
5.62782
5.58272
5.47242
5.30994
5.2154
5.1912
5.18776
5.22725
5.29206
5.30889
5.27782
5.23817
5.19036
5.12156
5.02989
4.95316
4.92305
4.91026
4.90358
4.90104
4.89049
4.87109
4.84366
4.79273
4.72319
4.6728
4.6511
4.6362
4.62034
4.6023
4.57673
4.53516
4.47914
4.42186
4.39023
4.37374
4.36018
4.35909
4.38123
4.39495
4.37423
4.33033
4.26643
4.18987
4.13245
4.10647
4.09757
4.09657
4.11379
4.14705
4.15143
4.13827
4.11684
4.07191
3.99743
3.91983
3.86827
3.84632
3.8395
3.84018
3.86475
3.89785
3.8957
3.88238
3.85661
3.80437
3.73079
3.67486
3.6498
3.6382
3.62804
3.62505
3.63708
3.63659
3.62125
3.60426
3.5817
3.54761
3.50957
3.49343
3.48678
3.48095
3.4778
3.47751
3.47602
3.47021
3.46129
3.44802
3.42626
3.38564
3.33621
3.30291
3.28839
3.27859
3.2752
3.28724
3.29685
3.28909
3.27354
3.24637
3.21043
3.17828
3.17002
3.16649
3.16267
3.159
3.15499
3.14791
3.13259
3.1116
3.08981
3.07151
3.05302
3.02828
2.99431
2.95353
2.91977
2.9048
2.8987
2.89488
2.9005
2.92839
2.94061
2.93701
2.92739
2.91463
2.88785
2.824
2.76365
2.74566
2.73829
2.73372
2.73741
2.74898
2.74534
2.73775
2.7304
2.71828
2.68981
2.6506
2.6254
2.61086
2.60001
2.59158
2.58494
2.58159
2.58071
2.57263
2.56639
2.56814
2.57048
2.57253
2.57207
2.5671
2.55129
2.52198
2.49468
2.47425
2.45383
2.43331
2.42416
2.42223
2.43119
2.46216
2.50963
2.52993
2.52514
2.51548
2.49941
2.4548
2.36797
2.32008
2.31077
2.30526
2.30065
2.2981
2.30079
2.31121
2.31568
2.31653
2.31645
2.314
2.30834
2.30174
2.29439
2.27888
2.24755
2.2014
2.17106
2.16164
2.15772
2.15427
2.1516
2.15096
2.15765
2.17548
2.18409
2.18259
2.18089
2.17702
2.16557
2.13425
2.0881
2.06552
2.05786
2.05427
2.05232
2.05726
2.06156
2.05753
2.05197
2.04409
2.03152
2.0157
2.00382
1.99823
1.99748
1.9979
1.99744
1.99711
1.99716
1.99522
1.99079
1.98579
1.97443
1.94847
1.90787
1.88321
1.87631
1.87395
1.87241
2.27109
2.2645
2.25317
2.23262
2.19813
2.1288
2.15426
2.45209
3.29625
4.57178
5.34746
5.73787
5.94628
5.97744
5.94199
5.81968
5.64375
5.53956
5.50963
5.55238
5.65503
5.67127
5.6214
5.51359
5.35907
5.26331
5.23792
5.23634
5.27469
5.32742
5.33505
5.30217
5.26368
5.22162
5.16245
5.07072
4.98867
4.96181
4.95053
4.94511
4.9431
4.93086
4.91209
4.88225
4.82499
4.75347
4.7036
4.68155
4.66983
4.65678
4.63845
4.61867
4.58277
4.52024
4.45925
4.43487
4.42124
4.40834
4.40427
4.41503
4.42079
4.40299
4.36118
4.29542
4.20409
4.14582
4.1211
4.11459
4.11833
4.15147
4.19096
4.19051
4.17777
4.15954
4.11544
4.03559
3.9479
3.8958
3.87568
3.86821
3.86774
3.89052
3.92758
3.92704
3.91611
3.89675
3.85244
3.77714
3.71176
3.68556
3.67448
3.66425
3.65912
3.662
3.65444
3.63842
3.62295
3.60363
3.57034
3.53014
3.51216
3.50536
3.4996
3.4958
3.49493
3.49496
3.49124
3.48453
3.4761
3.46265
3.42892
3.37824
3.34144
3.32863
3.31877
3.3155
3.31696
3.30756
3.29312
3.27871
3.25844
3.23138
3.20587
3.19605
3.19124
3.18718
3.18165
3.17277
3.1593
3.14014
3.12083
3.10609
3.09523
3.084
3.06979
3.0436
2.99651
2.94446
2.91497
2.90443
2.8989
2.89389
2.89196
2.90509
2.93628
2.94596
2.93778
2.9234
2.89944
2.85389
2.79938
2.76923
2.75567
2.74765
2.744
2.74301
2.74334
2.73893
2.73082
2.71593
2.69369
2.67337
2.65952
2.64419
2.62476
2.6047
2.58765
2.57139
2.55323
2.53829
2.53465
2.54468
2.56926
2.58499
2.59112
2.59273
2.58853
2.56756
2.51719
2.46255
2.43289
2.42136
2.41657
2.41406
2.42115
2.46077
2.52572
2.54175
2.53428
2.52231
2.50478
2.46699
2.40288
2.34698
2.32628
2.31771
2.31204
2.3086
2.30885
2.3111
2.30771
2.30115
2.29572
2.29341
2.29602
2.29795
2.29569
2.29126
2.28293
2.26035
2.21369
2.17063
2.15334
2.14723
2.14166
2.13675
2.13458
2.14213
2.17062
2.1848
2.18456
2.18215
2.17785
2.1668
2.13477
2.08298
2.05712
2.05013
2.04693
2.0446
2.0486
2.05463
2.05258
2.05016
2.04632
2.03723
2.01921
2.00008
1.99081
1.98858
1.98507
1.98287
1.98205
1.98434
1.98698
1.98584
1.98212
1.97437
1.9537
1.91206
1.87995
1.86998
1.86755
2.28558
2.27489
2.26017
2.21503
2.19088
2.33894
2.96731
4.14345
5.15192
5.71564
6.00086
6.06327
6.04964
5.96513
5.82685
5.66237
5.5869
5.56243
5.61389
5.71386
5.72044
5.66225
5.54241
5.39326
5.31875
5.29859
5.29605
5.32402
5.3585
5.35952
5.32791
5.29132
5.24965
5.19101
5.11731
5.04065
4.99156
4.97711
4.97281
4.9825
4.97807
4.95962
4.92856
4.86726
4.78732
4.72886
4.70234
4.6907
4.69365
4.68018
4.65837
4.61875
4.56861
4.51433
4.47706
4.46139
4.45147
4.4539
4.46991
4.46654
4.43618
4.38185
4.30757
4.23368
4.18208
4.15152
4.14271
4.145
4.17788
4.22523
4.22863
4.21559
4.19795
4.1542
4.07801
3.99816
3.94282
3.91237
3.89888
3.89351
3.90698
3.94612
3.95456
3.94346
3.92291
3.88368
3.81998
3.75853
3.7296
3.71896
3.71062
3.70502
3.69837
3.68407
3.66515
3.64611
3.62688
3.60084
3.56072
3.52831
3.51861
3.51207
3.50705
3.50554
3.50749
3.5044
3.4978
3.4904
3.48102
3.45945
3.42282
3.3818
3.36458
3.35454
3.35001
3.3508
3.34137
3.32527
3.30486
3.27459
3.242
3.22164
3.21571
3.2142
3.21281
3.20762
3.19897
3.18457
3.15897
3.13188
3.11657
3.10708
3.09974
3.09136
3.0778
3.05025
2.99912
2.94495
2.92123
2.91153
2.90429
2.89885
2.89676
2.90365
2.91086
2.9154
2.9119
2.90076
2.88625
2.86494
2.83628
2.81248
2.79318
2.77368
2.75605
2.7459
2.7386
2.72812
2.7144
2.69817
2.68839
2.68436
2.67988
2.67261
2.65901
2.63369
2.59419
2.55214
2.52592
2.51669
2.51366
2.52325
2.56384
2.59835
2.60859
2.6094
2.60676
2.59076
2.53332
2.46145
2.4299
2.42092
2.41691
2.41469
2.42334
2.45642
2.50134
2.51785
2.51329
2.50272
2.48797
2.46427
2.42613
2.3861
2.35548
2.33683
2.3255
2.31683
2.31027
2.30557
2.29746
2.2864
2.27921
2.27628
2.28087
2.29544
2.30486
2.30645
2.30234
2.293
2.26801
2.21174
2.15921
2.13763
2.12935
2.12388
2.12086
2.12075
2.13934
2.17815
2.18767
2.18597
2.18302
2.17816
2.16638
2.13154
2.07582
2.04897
2.04212
2.03892
2.03743
2.04279
2.04919
2.04959
2.04878
2.04538
2.03556
2.01417
1.99077
1.97855
1.97418
1.97106
1.96907
1.97001
1.98043
1.98865
1.98862
1.98466
1.97697
1.9569
1.91226
1.87345
1.86032
2.29839
2.28206
2.24919
2.32254
2.75426
3.77138
4.89922
5.57836
5.9749
6.15356
6.15829
6.10957
6.00018
5.82883
5.68557
5.63
5.61479
5.68084
5.77438
5.77161
5.7082
5.5845
5.43818
5.365
5.34546
5.34483
5.36892
5.39195
5.38603
5.35493
5.32152
5.28727
5.23267
5.14595
5.06595
5.03431
5.02187
5.01844
5.0321
5.02733
5.00953
4.9791
4.91565
4.83006
4.76691
4.7377
4.72275
4.72325
4.71592
4.69619
4.65466
4.5916
4.54419
4.52774
4.51822
4.51446
4.52783
4.53873
4.52433
4.49013
4.43084
4.3381
4.24221
4.19378
4.18092
4.17659
4.17949
4.2104
4.25466
4.2568
4.24532
4.23131
4.19401
4.12065
4.03318
3.98105
3.9616
3.95047
3.94285
3.94975
3.97477
3.97253
3.95862
3.93909
3.90338
3.84403
3.79047
3.76851
3.76195
3.75756
3.75517
3.74947
3.73525
3.71316
3.68727
3.66118
3.63289
3.5976
3.56111
3.54036
3.5313
3.52459
3.52157
3.52322
3.51818
3.51068
3.50253
3.49327
3.47609
3.44554
3.41495
3.40448
3.39831
3.39922
3.39868
3.38494
3.36494
3.33768
3.29931
3.26166
3.23656
3.22923
3.22588
3.22328
3.22122
3.21651
3.21026
3.19084
3.15667
3.13243
3.12041
3.10861
3.09529
3.08091
3.06668
3.0448
3.00454
2.96477
2.94605
2.93415
2.9248
2.91852
2.91433
2.91016
2.90445
2.89867
2.88936
2.87387
2.86268
2.85772
2.85328
2.84634
2.83456
2.81347
2.78232
2.75274
2.73095
2.71526
2.70127
2.69383
2.69068
2.6919
2.69475
2.6889
2.67653
2.64911
2.59285
2.53846
2.51691
2.51028
2.50656
2.5121
2.55437
2.60969
2.6214
2.61979
2.6152
2.59913
2.54826
2.47337
2.44102
2.43309
2.42886
2.42951
2.44209
2.46828
2.48891
2.49617
2.49399
2.48281
2.46631
2.44701
2.43018
2.41473
2.39915
2.3764
2.34766
2.32801
2.31624
2.30246
2.28647
2.2742
2.26834
2.26515
2.26932
2.2928
2.31783
2.32109
2.31624
2.30878
2.29495
2.25446
2.18093
2.13517
2.12079
2.1154
2.11213
2.11006
2.11379
2.1487
2.18878
2.19139
2.18817
2.18459
2.17902
2.16418
2.11736
2.0589
2.03854
2.03422
2.03202
2.03281
2.04603
2.05235
2.05011
2.04668
2.04185
2.02871
1.99923
1.9731
1.96523
1.96228
1.95996
1.95895
1.9685
1.98666
1.99344
1.99157
1.98686
1.97863
1.95294
1.89792
1.86037
2.30286
2.34757
2.6113
3.41465
4.69789
5.48895
5.8447
6.07187
6.19944
6.20347
6.14848
6.03338
5.86012
5.74415
5.70065
5.69188
5.75414
5.83059
5.81491
5.75008
5.62924
5.48639
5.41819
5.40023
5.39681
5.40954
5.42216
5.4151
5.3867
5.35428
5.31881
5.26311
5.19087
5.11639
5.06402
5.04674
5.04319
5.06843
5.07577
5.05769
5.02377
4.95529
4.86778
4.81004
4.7851
4.77378
4.77654
4.76132
4.7259
4.6779
4.63287
4.58464
4.55352
4.5431
4.54392
4.57576
4.60009
4.58688
4.55132
4.48492
4.3866
4.29755
4.238
4.20585
4.19413
4.19304
4.2286
4.27935
4.28338
4.27228
4.25634
4.21712
4.1526
4.08104
4.02781
4.00175
3.99046
3.98586
3.99594
4.01414
4.00744
3.9895
3.96445
3.92245
3.86232
3.81344
3.79123
3.78564
3.78342
3.78641
3.78616
3.77913
3.76696
3.7489
3.72233
3.68444
3.6347
3.58911
3.56413
3.55358
3.54442
3.5377
3.53585
3.54121
3.53576
3.5285
3.51884
3.49832
3.46447
3.43442
3.42252
3.41767
3.42303
3.43291
3.42544
3.40868
3.38469
3.34754
3.30048
3.26097
3.24731
3.24185
3.23915
3.23825
3.23338
3.22395
3.2065
3.18124
3.15667
3.14361
3.13061
3.11563
3.09937
3.07984
3.05294
3.02165
2.9953
2.97759
2.96604
2.95767
2.95098
2.94204
2.92909
2.91506
2.90271
2.88612
2.86668
2.85358
2.8483
2.85575
2.86628
2.86279
2.85345
2.8398
2.81124
2.76381
2.72695
2.70828
2.70066
2.69616
2.69279
2.69817
2.70493
2.69859
2.68422
2.65379
2.59402
2.53799
2.51847
2.51274
2.50936
2.51487
2.54406
2.57762
2.59322
2.59849
2.59829
2.58929
2.55805
2.50846
2.47363
2.45895
2.45241
2.45342
2.46729
2.48341
2.48032
2.47419
2.4696
2.46
2.44766
2.43744
2.43071
2.42603
2.42043
2.40932
2.3859
2.35107
2.31704
2.29123
2.27657
2.269
2.26422
2.26069
2.26513
2.29198
2.31886
2.32459
2.32046
2.31431
2.30509
2.27973
2.21401
2.14385
2.1196
2.11252
2.10907
2.10647
2.1052
2.11705
2.16721
2.20254
2.20052
2.19459
2.18853
2.17839
2.15272
2.09401
2.04507
2.03344
2.03041
2.02833
2.0303
2.04846
2.05792
2.05418
2.04777
2.03546
2.00833
1.97615
1.96256
1.95904
1.9569
1.95543
1.9605
1.98822
2.00514
2.00223
1.99566
1.98808
1.973
1.93421
1.8762
2.52568
3.18519
4.33613
5.32333
5.78171
6.02049
6.18142
6.2596
6.23697
6.17267
6.06167
5.90789
5.80943
5.77193
5.77136
5.82617
5.87299
5.8459
5.78607
5.68025
5.54434
5.46995
5.45046
5.44446
5.45166
5.45708
5.44703
5.4225
5.39302
5.35893
5.30185
5.21478
5.13796
5.10846
5.09484
5.09141
5.11708
5.12335
5.10422
5.06757
4.99419
4.90434
4.84664
4.82259
4.814
4.81799
4.80682
4.77941
4.7243
4.65054
4.61128
4.60056
4.59435
4.60155
4.63489
4.64806
4.63439
4.60276
4.53937
4.44325
4.34797
4.288
4.26243
4.24937
4.24468
4.26456
4.30913
4.31596
4.30478
4.28692
4.25068
4.18029
4.09988
4.06175
4.0484
4.03986
4.03693
4.04886
4.0624
4.05235
4.03058
4.00049
3.95169
3.88589
3.83613
3.81266
3.80679
3.80427
3.80657
3.80862
3.80668
3.80141
3.79208
3.77715
3.75055
3.70129
3.6358
3.58861
3.57345
3.56423
3.55842
3.55752
3.55372
3.54605
3.53689
3.52479
3.50864
3.48786
3.46
3.44574
3.43983
3.44139
3.45459
3.45178
3.43791
3.42326
3.39367
3.34857
3.31116
3.29184
3.27656
3.25989
3.24461
3.23104
3.21951
3.20611
3.18681
3.17075
3.16258
3.15334
3.14111
3.12617
3.10804
3.07937
3.04004
3.00903
2.99273
2.9878
2.98292
2.97807
2.97243
2.96393
2.9503
2.92932
2.89837
2.8694
2.85292
2.84509
2.84143
2.85193
2.86803
2.86474
2.85668
2.84788
2.82795
2.78098
2.73207
2.71275
2.70577
2.7019
2.70146
2.70413
2.70078
2.69138
2.67765
2.64959
2.60312
2.56598
2.54493
2.53567
2.53244
2.53625
2.55136
2.56339
2.56802
2.56794
2.56524
2.55802
2.54562
2.52776
2.50819
2.49356
2.48474
2.48234
2.48531
2.48095
2.47298
2.45963
2.44197
2.4309
2.42868
2.4339
2.43691
2.43537
2.43159
2.42531
2.40947
2.36919
2.31712
2.28666
2.27429
2.26928
2.26545
2.26295
2.26922
2.30034
2.3288
2.32879
2.32378
2.31717
2.30805
2.28838
2.24524
2.17486
2.12628
2.11413
2.10985
2.1073
2.1058
2.10727
2.12738
2.17315
2.19503
2.19178
2.18523
2.17865
2.16838
2.13968
2.0799
2.03885
2.02912
2.02589
2.02391
2.0259
2.04051
2.04718
2.04304
2.03564
2.02095
1.9923
1.96843
1.96123
1.9584
1.95655
1.95606
1.96461
1.98779
1.99575
1.99143
1.98502
1.97761
1.95993
1.91299
4.01167
5.11127
5.77215
6.11003
6.2645
6.32372
6.32094
6.27688
6.2084
6.10183
5.96037
5.8745
5.84387
5.83816
5.87566
5.90634
5.87805
5.82489
5.73508
5.60828
5.52863
5.5055
5.49206
5.48941
5.49241
5.48641
5.46596
5.43848
5.40351
5.34307
5.25771
5.18086
5.13429
5.11675
5.11525
5.15193
5.16722
5.14869
5.10966
5.03588
4.94744
4.88979
4.86573
4.85441
4.85569
4.84474
4.81255
4.76707
4.71332
4.65676
4.62799
4.61858
4.62788
4.67706
4.69936
4.68432
4.64289
4.56748
4.47093
4.40014
4.35314
4.32291
4.30904
4.30815
4.32942
4.34613
4.33396
4.31336
4.28997
4.2588
4.20749
4.14399
4.09493
4.07538
4.06583
4.06418
4.08497
4.1062
4.09852
4.07994
4.05095
3.99778
3.92443
3.86729
3.83771
3.82818
3.8221
3.82099
3.82769
3.82967
3.82668
3.82183
3.81196
3.79638
3.76839
3.71066
3.64227
3.60701
3.59351
3.58531
3.58289
3.57876
3.56849
3.55844
3.5474
3.53029
3.50313
3.47799
3.46781
3.46272
3.46221
3.46988
3.47083
3.46059
3.44596
3.41848
3.38374
3.35261
3.33613
3.32333
3.30779
3.28767
3.26424
3.23873
3.20895
3.18539
3.17206
3.16442
3.16077
3.15444
3.14355
3.13235
3.11177
3.0749
3.03504
3.01175
3.00509
3.00176
3.00048
2.99656
2.99027
2.98046
2.96353
2.92947
2.89007
2.8638
2.85212
2.8446
2.84076
2.85387
2.87339
2.87103
2.86201
2.85072
2.83145
2.79856
2.76723
2.74439
2.7241
2.70883
2.69883
2.69014
2.68303
2.67198
2.65348
2.62792
2.60332
2.5895
2.57774
2.56605
2.56344
2.5628
2.55707
2.5533
2.55038
2.54329
2.53017
2.52556
2.53131
2.53706
2.5362
2.53808
2.53656
2.52313
2.50445
2.48671
2.46637
2.44119
2.42065
2.41306
2.41124
2.42498
2.44485
2.44842
2.44371
2.43681
2.42259
2.37979
2.31626
2.28733
2.27952
2.27432
2.27097
2.2712
2.28282
2.30417
2.31383
2.31172
2.30583
2.29883
2.28981
2.27722
2.25568
2.21956
2.16907
2.128
2.11532
2.11176
2.10992
2.10959
2.11369
2.13558
2.17708
2.1961
2.19196
2.1842
2.17549
2.15961
2.12744
2.07097
2.03365
2.02501
2.02247
2.02079
2.02307
2.03574
2.03961
2.03639
2.0287
2.01217
1.98905
1.97046
1.96314
1.95999
1.95854
1.96069
1.97092
1.98626
1.99056
1.98647
1.98051
1.96916
1.94489
5.7351
6.09473
6.29391
6.35445
6.35804
6.32334
6.28018
6.22991
6.14089
6.02245
5.93949
5.90737
5.89245
5.90994
5.93564
5.91125
5.86772
5.80157
5.68517
5.58289
5.55099
5.53509
5.52754
5.52936
5.52343
5.5048
5.48085
5.44882
5.38839
5.29385
5.21452
5.17838
5.16299
5.16193
5.19766
5.21311
5.1919
5.14643
5.0714
4.98556
4.9338
4.91559
4.90833
4.90368
4.88312
4.84722
4.79233
4.73016
4.70057
4.68844
4.67984
4.68915
4.72696
4.74104
4.72697
4.68433
4.60416
4.49522
4.42525
4.39231
4.37786
4.36773
4.37064
4.39713
4.41185
4.39722
4.3699
4.33449
4.28104
4.21481
4.15258
4.11875
4.10648
4.10041
4.10052
4.11848
4.1429
4.13888
4.12346
4.10203
4.06159
3.98951
3.90937
3.86707
3.85579
3.84679
3.84032
3.83828
3.84315
3.8464
3.84164
3.83486
3.8259
3.81047
3.77015
3.71067
3.66552
3.64105
3.62534
3.61893
3.61339
3.60165
3.58951
3.57681
3.55948
3.53268
3.50235
3.48824
3.48078
3.47573
3.47951
3.48604
3.4789
3.46256
3.43551
3.40094
3.37481
3.36559
3.35794
3.34789
3.335
3.31533
3.28104
3.23346
3.19641
3.179
3.1708
3.16312
3.15794
3.15477
3.1437
3.12772
3.10158
3.06633
3.04155
3.03012
3.02299
3.01981
3.01555
3.00852
3.00047
2.99147
2.9676
2.92604
2.88735
2.87111
2.86205
2.85445
2.84925
2.84983
2.85193
2.84619
2.83727
2.82726
2.81398
2.80243
2.79293
2.78079
2.76073
2.73163
2.70659
2.69152
2.67392
2.65057
2.62307
2.60691
2.60067
2.60033
2.60476
2.60293
2.59469
2.58156
2.56487
2.54839
2.53122
2.51218
2.50254
2.5042
2.51532
2.53679
2.55858
2.57231
2.57362
2.5631
2.53525
2.49279
2.44962
2.42259
2.41111
2.40513
2.40203
2.41353
2.44853
2.45905
2.45363
2.44458
2.42822
2.38668
2.32472
2.29532
2.28785
2.28327
2.2804
2.28289
2.30028
2.31181
2.30903
2.30318
2.29669
2.2884
2.27634
2.26125
2.24847
2.23459
2.21298
2.1759
2.13482
2.11945
2.11594
2.11432
2.11413
2.11718
2.13244
2.16276
2.17774
2.17353
2.16618
2.16093
2.15026
2.12267
2.06812
2.03001
2.02044
2.01802
2.01665
2.01876
2.02334
2.02226
2.01895
2.01585
2.008
1.99412
1.97859
1.96992
1.96635
1.9642
1.96271
1.96476
1.97034
1.9717
1.96687
1.96003
1.95201
6.27937
6.35633
6.41494
6.3961
6.36235
6.32088
6.27238
6.20793
6.11473
6.01025
5.96665
5.94341
5.9356
5.95778
5.95184
5.91679
5.86818
5.77629
5.65781
5.59899
5.57769
5.56292
5.56536
5.57075
5.55306
5.52884
5.49036
5.42128
5.32984
5.25476
5.21499
5.19907
5.20225
5.24722
5.2661
5.24276
5.19302
5.10533
5.01553
4.97017
4.95366
4.94703
4.94635
4.9291
4.8936
4.83588
4.77815
4.73376
4.7134
4.70818
4.73874
4.78952
4.79181
4.7664
4.7105
4.62041
4.51791
4.45964
4.43373
4.41767
4.4071
4.41462
4.45498
4.48373
4.47124
4.44265
4.39608
4.32432
4.23714
4.17336
4.13939
4.12409
4.11609
4.11391
4.13554
4.16872
4.16758
4.15238
4.13784
4.11332
4.05694
3.98005
3.92409
3.89715
3.88247
3.87218
3.86476
3.85999
3.85721
3.85416
3.84853
3.83974
3.8264
3.79933
3.75337
3.7075
3.69073
3.68054
3.67256
3.662
3.64633
3.62915
3.61208
3.59252
3.56471
3.5338
3.51909
3.51093
3.5057
3.50255
3.49481
3.48266
3.46745
3.44663
3.41977
3.3938
3.38373
3.37936
3.37495
3.36707
3.35651
3.33608
3.29236
3.23361
3.19549
3.18198
3.17279
3.16556
3.15696
3.14611
3.13296
3.11376
3.08638
3.06512
3.05909
3.05467
3.04887
3.04083
3.03139
3.02017
3.0054
2.98202
2.95013
2.9167
2.89964
2.8899
2.88028
2.87315
2.86509
2.85502
2.84653
2.83537
2.82116
2.81109
2.80619
2.80377
2.80188
2.79672
2.78731
2.76743
2.73121
2.68543
2.64797
2.62344
2.61143
2.60572
2.60336
2.61191
2.62885
2.63072
2.62394
2.61094
2.58322
2.53894
2.50186
2.48869
2.48753
2.49141
2.50875
2.54489
2.58296
2.59581
2.59371
2.58356
2.55379
2.4947
2.44059
2.41821
2.41061
2.40488
2.40183
2.41192
2.42988
2.43665
2.4349
2.42788
2.41598
2.39141
2.34936
2.31288
2.29778
2.29344
2.29343
2.30327
2.30791
2.30576
2.30161
2.29553
2.28746
2.27677
2.26361
2.25049
2.24179
2.23667
2.23043
2.2169
2.18563
2.14188
2.12216
2.11784
2.11593
2.11381
2.11354
2.12601
2.15655
2.16934
2.16461
2.15896
2.15471
2.14493
2.11636
2.0594
2.02388
2.01688
2.01456
2.01112
2.00919
2.01063
2.01342
2.01315
2.01277
2.01017
2.0037
1.98935
1.97224
1.96211
1.95832
1.95548
1.95412
1.95682
1.95878
1.95531
1.95229
6.44093
6.44464
6.43742
6.41026
6.36659
6.32514
6.28035
6.20508
6.09047
6.02191
5.99622
5.97862
5.98653
5.99285
5.96554
5.92902
5.85488
5.72998
5.64815
5.62314
5.60611
5.60542
5.62258
5.60959
5.58621
5.54793
5.46714
5.34903
5.27949
5.25298
5.23939
5.24525
5.29392
5.31739
5.29558
5.24655
5.16119
5.06729
5.01101
4.98918
4.97865
4.9711
4.95355
4.92146
4.87689
4.82557
4.78328
4.7679
4.76433
4.79477
4.84457
4.84397
4.81815
4.7623
4.65104
4.52962
4.47485
4.45237
4.4433
4.4473
4.46313
4.50521
4.55248
4.54996
4.52712
4.47991
4.39383
4.28801
4.2136
4.17085
4.15375
4.14438
4.13972
4.15096
4.17358
4.18165
4.17676
4.16528
4.14467
4.10385
4.03473
3.98217
3.96098
3.94336
3.92887
3.91661
3.90335
3.89022
3.87764
3.86468
3.85137
3.83669
3.81225
3.77377
3.73674
3.72398
3.71828
3.71851
3.71368
3.70176
3.68597
3.66376
3.63329
3.59695
3.56631
3.55283
3.54447
3.53772
3.53176
3.52202
3.50906
3.48841
3.45262
3.42106
3.40518
3.39847
3.39753
3.39448
3.3863
3.37755
3.3674
3.34234
3.29643
3.25123
3.22429
3.20352
3.1844
3.16911
3.15538
3.13944
3.11638
3.0903
3.07637
3.07295
3.07519
3.07996
3.07568
3.06829
3.05813
3.04088
3.00853
2.96281
2.929
2.91503
2.90841
2.90202
2.89717
2.89037
2.8802
2.86571
2.8422
2.81978
2.80833
2.80268
2.80201
2.81019
2.81307
2.80988
2.80327
2.7877
2.74331
2.67204
2.6292
2.61544
2.60884
2.60405
2.60785
2.63208
2.64988
2.64669
2.63871
2.6251
2.5884
2.5263
2.49016
2.48336
2.48291
2.48604
2.50536
2.55577
2.60153
2.60663
2.60219
2.59142
2.56298
2.49887
2.43943
2.42231
2.41559
2.4098
2.40752
2.42016
2.42691
2.42257
2.41798
2.41001
2.39614
2.38181
2.36556
2.34746
2.32962
2.31648
2.3137
2.31239
2.30663
2.30052
2.29443
2.2861
2.27264
2.25659
2.24897
2.24575
2.24316
2.24159
2.2397
2.23573
2.2254
2.19523
2.14493
2.11812
2.1113
2.10918
2.10732
2.10752
2.11894
2.14976
2.16363
2.15972
2.15441
2.1499
2.14018
2.10948
2.05222
2.01722
2.00735
2.00327
2.00061
2.00004
2.00694
2.01546
2.01956
2.01861
2.01544
2.00848
1.99179
1.96819
1.95263
1.94759
1.94365
1.9416
1.94545
1.95317
1.9514
6.47525
6.4474
6.435
6.42885
6.39256
6.34996
6.28285
6.17178
6.06497
6.02553
6.00405
6.00687
6.03599
6.02308
5.99058
5.92415
5.80722
5.70095
5.65971
5.6404
5.63805
5.67002
5.67251
5.64768
5.60102
5.51419
5.40091
5.32428
5.28796
5.27162
5.27889
5.33485
5.36426
5.34343
5.29525
5.21306
5.11845
5.06267
5.04235
5.02984
5.01406
4.98961
4.94919
4.89479
4.84815
4.82488
4.81215
4.81287
4.85172
4.89356
4.88539
4.858
4.8023
4.69882
4.58132
4.5161
4.48524
4.46804
4.45607
4.46349
4.51857
4.58829
4.59608
4.5788
4.54858
4.48916
4.38159
4.26802
4.20946
4.19109
4.18079
4.17437
4.17889
4.20305
4.20109
4.18583
4.17161
4.15359
4.12512
4.07552
4.01942
3.99709
3.98713
3.97918
3.97343
3.96365
3.94788
3.92664
3.90259
3.88148
3.86093
3.82806
3.78507
3.75212
3.73883
3.73458
3.74187
3.75116
3.74413
3.73289
3.7178
3.68994
3.64635
3.6061
3.58699
3.57745
3.56944
3.56064
3.54926
3.53616
3.5135
3.47644
3.44019
3.41739
3.40769
3.40127
3.40065
3.39818
3.39172
3.38353
3.36373
3.32966
3.29389
3.27221
3.25653
3.2374
3.21254
3.18505
3.15644
3.12524
3.09882
3.08323
3.07704
3.07591
3.08915
3.09787
3.09307
3.08622
3.07605
3.05391
3.00726
2.95271
2.92655
2.91955
2.91434
2.91231
2.90749
2.89823
2.88641
2.86505
2.83406
2.81501
2.80769
2.80202
2.80014
2.81174
2.82704
2.82342
2.8138
2.79479
2.74604
2.6712
2.62853
2.61644
2.60984
2.60589
2.61427
2.64415
2.65857
2.65438
2.64649
2.63057
2.58994
2.52513
2.49062
2.48634