/*--------------------------------*- C++ -*----------------------------------*\
  =========                 |
  \\      /  F ield         | OpenFOAM: The Open Source CFD Toolbox
   \\    /   O peration     | Website:  https://openfoam.org
    \\  /    A nd           | Version:  7
     \\/     M anipulation  |
\*---------------------------------------------------------------------------*/
FoamFile
{
    version     2.0;
    format      ascii;
    class       volVectorField;
    location    "3.8";
    object      U;
}
// * * * * * * * * * * * * * * * * * * * * * * * * * * * * * * * * * * * * * //

dimensions      [0 1 -1 0 0 0 0];

internalField   nonuniform List<vector> 
16192
(
(2.66232 0.105825 0)
(2.66545 0.10515 0)
(2.67187 0.105548 0)
(2.67711 0.107034 0)
(2.67995 0.107282 0)
(2.68306 0.106975 0)
(2.68538 0.106269 0)
(2.68687 0.103984 0)
(2.68689 0.0998254 0)
(2.68864 0.0967175 0)
(2.69105 0.0951789 0)
(2.69339 0.0937884 0)
(2.6955 0.0919268 0)
(2.6964 0.0885964 0)
(2.69389 0.082354 0)
(2.68929 0.0756632 0)
(2.68892 0.0731819 0)
(2.69009 0.0731958 0)
(2.69391 0.0738791 0)
(2.69946 0.0761262 0)
(2.70225 0.0768827 0)
(2.70322 0.0760504 0)
(2.70294 0.0730413 0)
(2.69637 0.0657984 0)
(2.68614 0.0563112 0)
(2.68385 0.0531765 0)
(2.68468 0.0531573 0)
(2.68711 0.053858 0)
(2.69371 0.058301 0)
(2.7056 0.0682342 0)
(2.71459 0.0743738 0)
(2.71634 0.0749547 0)
(2.71746 0.0745269 0)
(2.71864 0.0738718 0)
(2.71891 0.0724476 0)
(2.71584 0.0685336 0)
(2.70504 0.0580407 0)
(2.69223 0.0473932 0)
(2.68942 0.0449139 0)
(2.68962 0.0448499 0)
(2.691 0.0457308 0)
(2.69598 0.0500041 0)
(2.70675 0.0592133 0)
(2.7153 0.0652631 0)
(2.71677 0.0660172 0)
(2.71696 0.0658446 0)
(2.71709 0.0655603 0)
(2.71655 0.0649661 0)
(2.71378 0.0628395 0)
(2.70565 0.0571484 0)
(2.69723 0.052293 0)
(2.69544 0.0516435 0)
(2.69501 0.0519121 0)
(2.69502 0.0537176 0)
(2.699 0.0588299 0)
(2.70701 0.0660627 0)
(2.70956 0.0685817 0)
(2.70918 0.0687765 0)
(2.70878 0.0689523 0)
(2.70775 0.0686288 0)
(2.70417 0.0656368 0)
(2.69742 0.0610305 0)
(2.69445 0.0597933 0)
(2.6947 0.0597493 0)
(2.69478 0.0623027 0)
(2.68694 0.0489938 0)
(2.61089 -0.0713308 0)
(2.40778 -0.322894 0)
(2.1504 -0.511271 0)
(2.05264 -0.671525 0)
(2.02934 -0.689936 0)
(2.03241 -0.677631 0)
(2.05545 -0.641333 0)
(2.08165 -0.625154 0)
(2.08381 -0.626216 0)
(2.07888 -0.634612 0)
(2.07683 -0.646259 0)
(2.08053 -0.647052 0)
(2.08701 -0.643084 0)
(2.09484 -0.637946 0)
(2.097 -0.637022 0)
(2.09055 -0.642252 0)
(2.08716 -0.646719 0)
(2.08791 -0.648454 0)
(2.09269 -0.646083 0)
(2.10324 -0.639042 0)
(2.11256 -0.633728 0)
(2.116 -0.63273 0)
(2.11751 -0.632763 0)
(2.1157 -0.634116 0)
(2.11237 -0.635126 0)
(2.11349 -0.634848 0)
(2.11589 -0.633509 0)
(2.12058 -0.630731 0)
(2.1277 -0.625956 0)
(2.1319 -0.622632 0)
(2.13295 -0.621807 0)
(2.13307 -0.620745 0)
(2.1326 -0.619667 0)
(2.13376 -0.618736 0)
(2.13577 -0.617529 0)
(2.13906 -0.614911 0)
(2.14309 -0.611267 0)
(2.145 -0.610597 0)
(2.14705 -0.611153 0)
(2.14886 -0.611759 0)
(2.14919 -0.612836 0)
(2.1501 -0.612802 0)
(2.15277 -0.612087 0)
(2.15581 -0.609984 0)
(2.15871 -0.608147 0)
(2.16145 -0.607382 0)
(2.16388 -0.606782 0)
(2.16561 -0.60657 0)
(2.16728 -0.606815 0)
(2.17001 -0.606846 0)
(2.17296 -0.606608 0)
(2.17592 -0.605576 0)
(2.17888 -0.603947 0)
(2.18159 -0.602359 0)
(2.18384 -0.600917 0)
(2.18538 -0.59971 0)
(2.18683 -0.598943 0)
(2.18886 -0.599109 0)
(2.191 -0.599684 0)
(2.19338 -0.600009 0)
(2.19579 -0.599958 0)
(2.19772 -0.598281 0)
(2.19877 -0.595235 0)
(2.2005 -0.592486 0)
(2.20312 -0.590815 0)
(2.20616 -0.58981 0)
(2.20953 -0.588533 0)
(2.21295 -0.587467 0)
(2.2159 -0.587565 0)
(2.21845 -0.588211 0)
(2.22103 -0.589003 0)
(2.22233 -0.589917 0)
(2.22022 -0.590224 0)
(2.21766 -0.588704 0)
(2.21915 -0.586481 0)
(2.22166 -0.584679 0)
(2.2245 -0.583101 0)
(2.22862 -0.580741 0)
(2.2346 -0.576608 0)
(2.23922 -0.573619 0)
(2.24158 -0.573032 0)
(2.24416 -0.572946 0)
(2.24601 -0.57237 0)
(2.24732 -0.570622 0)
(2.24868 -0.568642 0)
(2.25011 -0.567165 0)
(2.25155 -0.566198 0)
(2.25307 -0.565714 0)
(2.25435 -0.565227 0)
(2.25508 -0.564314 0)
(2.25694 -0.56339 0)
(2.25954 -0.562194 0)
(2.26263 -0.560128 0)
(2.266 -0.557492 0)
(2.26905 -0.555102 0)
(2.27177 -0.553704 0)
(2.27424 -0.55275 0)
(2.27617 -0.551896 0)
(2.27681 -0.550964 0)
(2.27727 -0.550028 0)
(2.27961 -0.549628 0)
(2.28232 -0.549392 0)
(2.28503 -0.548893 0)
(2.28796 -0.5481 0)
(2.29286 -0.546595 0)
(2.2982 -0.543596 0)
(2.30088 -0.542008 0)
(2.30421 -0.541425 0)
(2.30727 -0.540698 0)
(2.3096 -0.540066 0)
(2.31077 -0.540506 0)
(2.3105 -0.542158 0)
(2.31084 -0.543005 0)
(2.31296 -0.542093 0)
(2.31561 -0.540393 0)
(2.31833 -0.5385 0)
(2.32124 -0.536541 0)
(2.32422 -0.53467 0)
(2.32777 -0.533258 0)
(2.33124 -0.53266 0)
(2.33386 -0.532909 0)
(2.33637 -0.533348 0)
(2.33919 -0.533432 0)
(2.34211 -0.532945 0)
(2.34496 -0.532212 0)
(2.34809 -0.531462 0)
(2.3511 -0.530715 0)
(2.35387 -0.52977 0)
(2.35596 -0.528059 0)
(2.35655 -0.524982 0)
(2.35562 -0.520782 0)
(2.35511 -0.517263 0)
(2.35618 -0.515515 0)
(2.35798 -0.514701 0)
(2.36019 -0.513945 0)
(2.36285 -0.513565 0)
(2.36549 -0.514429 0)
(2.36803 -0.516189 0)
(2.36991 -0.517403 0)
(2.37199 -0.518097 0)
(2.37416 -0.518487 0)
(2.37587 -0.518729 0)
(2.37722 -0.517491 0)
(2.379 -0.514372 0)
(2.37981 -0.510636 0)
(2.38154 -0.505124 0)
(2.38391 -0.498373 0)
(2.38483 -0.493011 0)
(2.38573 -0.490122 0)
(2.387 -0.489092 0)
(2.3885 -0.489385 0)
(2.39011 -0.49094 0)
(2.39214 -0.493163 0)
(2.39494 -0.495606 0)
(2.39833 -0.49847 0)
(2.40111 -0.500101 0)
(2.40408 -0.500146 0)
(2.40625 -0.498658 0)
(2.40812 -0.495274 0)
(2.40947 -0.490769 0)
(2.40959 -0.48539 0)
(2.40897 -0.480405 0)
(2.40942 -0.477755 0)
(2.41114 -0.476616 0)
(2.41319 -0.476789 0)
(2.4149 -0.477802 0)
(2.41772 -0.479756 0)
(2.421 -0.482927 0)
(2.42327 -0.485673 0)
(2.42503 -0.486457 0)
(2.42609 -0.485683 0)
(2.42656 -0.483283 0)
(2.4288 -0.480467 0)
(2.43182 -0.476967 0)
(2.43441 -0.471939 0)
(2.43655 -0.467691 0)
(2.43881 -0.464793 0)
(2.44054 -0.46301 0)
(2.44167 -0.461619 0)
(2.44277 -0.461747 0)
(2.44433 -0.463404 0)
(2.44762 -0.467326 0)
(2.45073 -0.471828 0)
(2.45234 -0.474219 0)
(2.45408 -0.475286 0)
(2.45377 -0.474581 0)
(2.45227 -0.47125 0)
(2.66224 0.115079 0)
(2.66858 0.115302 0)
(2.67511 0.116765 0)
(2.67759 0.117139 0)
(2.68069 0.116983 0)
(2.68361 0.116239 0)
(2.68486 0.112938 0)
(2.68391 0.107278 0)
(2.68546 0.103347 0)
(2.68814 0.101694 0)
(2.69064 0.100303 0)
(2.69304 0.0984919 0)
(2.69442 0.0954532 0)
(2.6929 0.0894036 0)
(2.68836 0.0820934 0)
(2.68767 0.0788424 0)
(2.68892 0.0787345 0)
(2.69269 0.0791858 0)
(2.69849 0.0811488 0)
(2.70176 0.0818918 0)
(2.70299 0.0811424 0)
(2.70338 0.0783013 0)
(2.69788 0.0712848 0)
(2.68712 0.0606438 0)
(2.68347 0.0558874 0)
(2.68428 0.055568 0)
(2.68644 0.0561384 0)
(2.69294 0.0603786 0)
(2.70476 0.0700588 0)
(2.71392 0.0761485 0)
(2.71577 0.0767652 0)
(2.71703 0.0762858 0)
(2.71833 0.0757233 0)
(2.71897 0.0746036 0)
(2.71669 0.0711779 0)
(2.70716 0.0613619 0)
(2.69412 0.049812 0)
(2.6906 0.0465761 0)
(2.69078 0.046482 0)
(2.69217 0.0473769 0)
(2.69682 0.0512955 0)
(2.7071 0.0599967 0)
(2.71597 0.0661107 0)
(2.71771 0.0668805 0)
(2.71799 0.0665745 0)
(2.71829 0.0660509 0)
(2.71814 0.0653769 0)
(2.71641 0.0637067 0)
(2.71003 0.0588941 0)
(2.70094 0.0531918 0)
(2.69802 0.0519441 0)
(2.69782 0.0521065 0)
(2.69791 0.0532946 0)
(2.70082 0.0572765 0)
(2.70837 0.0644186 0)
(2.71244 0.0679379 0)
(2.71209 0.0681672 0)
(2.7115 0.0683861 0)
(2.71 0.0684403 0)
(2.70637 0.0659187 0)
(2.69948 0.0607696 0)
(2.69622 0.0589383 0)
(2.69635 0.0596128 0)
(2.69671 0.06274 0)
(2.68072 0.0389366 0)
(2.56729 -0.129217 0)
(2.35125 -0.430829 0)
(2.18222 -0.540967 0)
(2.0778 -0.582968 0)
(2.04277 -0.665596 0)
(2.03216 -0.695399 0)
(2.03137 -0.690849 0)
(2.04352 -0.668139 0)
(2.0732 -0.63799 0)
(2.09333 -0.620708 0)
(2.09668 -0.621246 0)
(2.09613 -0.631273 0)
(2.0902 -0.644156 0)
(2.08673 -0.649546 0)
(2.08745 -0.649221 0)
(2.09158 -0.645644 0)
(2.09529 -0.643144 0)
(2.09711 -0.643478 0)
(2.09989 -0.643013 0)
(2.10523 -0.640149 0)
(2.11104 -0.637675 0)
(2.11439 -0.637222 0)
(2.11776 -0.636483 0)
(2.11901 -0.635809 0)
(2.118 -0.635459 0)
(2.11848 -0.635291 0)
(2.12014 -0.635221 0)
(2.12252 -0.633714 0)
(2.12714 -0.629856 0)
(2.13261 -0.625366 0)
(2.13494 -0.623519 0)
(2.13634 -0.622684 0)
(2.13729 -0.621699 0)
(2.13777 -0.62012 0)
(2.1389 -0.618467 0)
(2.14061 -0.61666 0)
(2.14378 -0.6134 0)
(2.1458 -0.610912 0)
(2.14772 -0.610445 0)
(2.14908 -0.610958 0)
(2.14999 -0.611162 0)
(2.15121 -0.610513 0)
(2.15307 -0.609732 0)
(2.15551 -0.608203 0)
(2.15849 -0.606461 0)
(2.16125 -0.605906 0)
(2.16376 -0.60589 0)
(2.16546 -0.606013 0)
(2.16638 -0.60576 0)
(2.1683 -0.605034 0)
(2.17124 -0.604331 0)
(2.17442 -0.603253 0)
(2.17793 -0.601987 0)
(2.1812 -0.601107 0)
(2.18417 -0.600578 0)
(2.18669 -0.59985 0)
(2.1879 -0.598568 0)
(2.18776 -0.597048 0)
(2.18891 -0.596123 0)
(2.19129 -0.596143 0)
(2.19374 -0.59636 0)
(2.19673 -0.596392 0)
(2.19965 -0.596193 0)
(2.20239 -0.595217 0)
(2.20452 -0.593158 0)
(2.20664 -0.590761 0)
(2.20969 -0.588879 0)
(2.21276 -0.587149 0)
(2.21543 -0.586131 0)
(2.21788 -0.586048 0)
(2.21998 -0.586765 0)
(2.22203 -0.587449 0)
(2.22282 -0.588519 0)
(2.22157 -0.58973 0)
(2.22138 -0.589246 0)
(2.2238 -0.587856 0)
(2.22674 -0.585786 0)
(2.23 -0.582506 0)
(2.2348 -0.578165 0)
(2.23925 -0.57394 0)
(2.2422 -0.572749 0)
(2.2453 -0.572598 0)
(2.24769 -0.572092 0)
(2.24983 -0.571132 0)
(2.25168 -0.569597 0)
(2.25314 -0.567549 0)
(2.25431 -0.566016 0)
(2.25553 -0.565358 0)
(2.2567 -0.565434 0)
(2.258 -0.565395 0)
(2.25972 -0.564518 0)
(2.26205 -0.563223 0)
(2.2649 -0.561946 0)
(2.26856 -0.559583 0)
(2.27189 -0.556043 0)
(2.27452 -0.553506 0)
(2.27717 -0.552064 0)
(2.27934 -0.551392 0)
(2.28088 -0.551273 0)
(2.28188 -0.551392 0)
(2.28329 -0.550903 0)
(2.28572 -0.549714 0)
(2.28828 -0.548095 0)
(2.29097 -0.546595 0)
(2.29401 -0.545471 0)
(2.29924 -0.543712 0)
(2.30425 -0.541282 0)
(2.30681 -0.540335 0)
(2.30976 -0.540214 0)
(2.31183 -0.540597 0)
(2.31317 -0.541282 0)
(2.3132 -0.542284 0)
(2.31398 -0.542955 0)
(2.31642 -0.542594 0)
(2.31892 -0.541195 0)
(2.32163 -0.539037 0)
(2.32448 -0.536573 0)
(2.32741 -0.533922 0)
(2.33044 -0.531737 0)
(2.3333 -0.530583 0)
(2.33583 -0.530336 0)
(2.33808 -0.53049 0)
(2.34026 -0.530719 0)
(2.34289 -0.531069 0)
(2.3467 -0.531071 0)
(2.34953 -0.530375 0)
(2.35228 -0.530099 0)
(2.35512 -0.529772 0)
(2.3578 -0.529225 0)
(2.36021 -0.528455 0)
(2.36216 -0.52715 0)
(2.36329 -0.524737 0)
(2.36339 -0.520871 0)
(2.36277 -0.516176 0)
(2.36264 -0.512345 0)
(2.36388 -0.510485 0)
(2.36583 -0.509546 0)
(2.36754 -0.509178 0)
(2.36909 -0.509936 0)
(2.37124 -0.512096 0)
(2.37372 -0.514617 0)
(2.37635 -0.516682 0)
(2.37903 -0.517503 0)
(2.38196 -0.517493 0)
(2.38437 -0.516418 0)
(2.38752 -0.512764 0)
(2.38992 -0.507075 0)
(2.39153 -0.501329 0)
(2.39244 -0.49573 0)
(2.39143 -0.490411 0)
(2.38995 -0.487356 0)
(2.38991 -0.486393 0)
(2.39112 -0.486922 0)
(2.39294 -0.488239 0)
(2.39479 -0.490142 0)
(2.39718 -0.492414 0)
(2.40155 -0.49604 0)
(2.40684 -0.498361 0)
(2.41013 -0.49766 0)
(2.41228 -0.496404 0)
(2.41478 -0.493927 0)
(2.4166 -0.490423 0)
(2.41637 -0.485096 0)
(2.41395 -0.478784 0)
(2.41291 -0.47501 0)
(2.41409 -0.473672 0)
(2.41613 -0.473678 0)
(2.41783 -0.474639 0)
(2.41992 -0.476091 0)
(2.42328 -0.478461 0)
(2.42669 -0.481505 0)
(2.42972 -0.482392 0)
(2.43251 -0.481645 0)
(2.43494 -0.479215 0)
(2.43754 -0.475338 0)
(2.43999 -0.472075 0)
(2.44259 -0.469472 0)
(2.44452 -0.466301 0)
(2.445 -0.462704 0)
(2.44472 -0.460088 0)
(2.44487 -0.458512 0)
(2.44575 -0.458812 0)
(2.44701 -0.460548 0)
(2.44902 -0.464175 0)
(2.45185 -0.468897 0)
(2.45449 -0.472866 0)
(2.45636 -0.4739 0)
(2.45827 -0.47333 0)
(2.66557 0.125843 0)
(2.6728 0.127622 0)
(2.67623 0.128091 0)
(2.6787 0.127495 0)
(2.68144 0.125793 0)
(2.68166 0.121502 0)
(2.68001 0.114939 0)
(2.68205 0.11058 0)
(2.68493 0.108973 0)
(2.68767 0.107597 0)
(2.69035 0.105776 0)
(2.69217 0.102925 0)
(2.69145 0.0973293 0)
(2.68704 0.089491 0)
(2.68594 0.0853197 0)
(2.6873 0.0851083 0)
(2.69094 0.085303 0)
(2.69691 0.0868655 0)
(2.70071 0.0875539 0)
(2.70221 0.0868168 0)
(2.70332 0.084086 0)
(2.69904 0.0774707 0)
(2.68825 0.0665096 0)
(2.68302 0.0605633 0)
(2.68364 0.059842 0)
(2.68574 0.0601897 0)
(2.69211 0.0637196 0)
(2.70375 0.0725592 0)
(2.71295 0.0783877 0)
(2.71492 0.0789059 0)
(2.71644 0.0783079 0)
(2.71781 0.0776676 0)
(2.71863 0.0766301 0)
(2.71692 0.0735181 0)
(2.70849 0.0644569 0)
(2.69552 0.0525001 0)
(2.69132 0.0487376 0)
(2.69167 0.048562 0)
(2.69301 0.0493778 0)
(2.69758 0.0529809 0)
(2.70742 0.0612738 0)
(2.7165 0.0674002 0)
(2.71853 0.0681948 0)
(2.71887 0.0677969 0)
(2.71928 0.06709 0)
(2.7194 0.0664076 0)
(2.71839 0.0650376 0)
(2.71364 0.0610565 0)
(2.70465 0.0546574 0)
(2.70039 0.0522159 0)
(2.70021 0.0521404 0)
(2.70048 0.0528225 0)
(2.70283 0.0557527 0)
(2.70965 0.0621823 0)
(2.71496 0.066705 0)
(2.71465 0.0672081 0)
(2.71396 0.0672362 0)
(2.71269 0.066939 0)
(2.70925 0.0649019 0)
(2.70231 0.060102 0)
(2.69774 0.0579411 0)
(2.69773 0.0594792 0)
(2.69796 0.062134 0)
(2.68077 0.037418 0)
(2.55286 -0.127255 0)
(2.2528 -0.501453 0)
(2.14225 -0.633793 0)
(2.09331 -0.599199 0)
(2.08574 -0.601482 0)
(2.06437 -0.644413 0)
(2.05244 -0.680461 0)
(2.04687 -0.686605 0)
(2.04981 -0.675433 0)
(2.07343 -0.646607 0)
(2.09367 -0.619082 0)
(2.0993 -0.615689 0)
(2.10307 -0.622464 0)
(2.10044 -0.636637 0)
(2.09168 -0.650734 0)
(2.08637 -0.655066 0)
(2.08985 -0.652367 0)
(2.09574 -0.646809 0)
(2.10427 -0.642565 0)
(2.1117 -0.63867 0)
(2.11564 -0.637033 0)
(2.11716 -0.637481 0)
(2.11828 -0.638711 0)
(2.11797 -0.639152 0)
(2.11884 -0.638353 0)
(2.12141 -0.636916 0)
(2.12418 -0.635868 0)
(2.12753 -0.634373 0)
(2.13123 -0.631209 0)
(2.13501 -0.627578 0)
(2.13641 -0.626171 0)
(2.13771 -0.625432 0)
(2.13914 -0.624571 0)
(2.14058 -0.62321 0)
(2.14198 -0.621427 0)
(2.14329 -0.619141 0)
(2.14509 -0.616011 0)
(2.14673 -0.612805 0)
(2.1479 -0.611729 0)
(2.14927 -0.611203 0)
(2.15097 -0.61032 0)
(2.15286 -0.609626 0)
(2.15478 -0.607993 0)
(2.15664 -0.605601 0)
(2.15838 -0.604117 0)
(2.16009 -0.603851 0)
(2.16241 -0.604277 0)
(2.16463 -0.60514 0)
(2.16613 -0.606012 0)
(2.16766 -0.605729 0)
(2.1702 -0.604125 0)
(2.17335 -0.602267 0)
(2.17689 -0.600092 0)
(2.18022 -0.598289 0)
(2.18339 -0.597798 0)
(2.18644 -0.597768 0)
(2.189 -0.597645 0)
(2.19036 -0.596895 0)
(2.18994 -0.595245 0)
(2.19004 -0.593615 0)
(2.19256 -0.592954 0)
(2.19539 -0.592937 0)
(2.19832 -0.592907 0)
(2.20186 -0.593183 0)
(2.20517 -0.59346 0)
(2.2085 -0.592932 0)
(2.21158 -0.591392 0)
(2.21456 -0.589425 0)
(2.21709 -0.587502 0)
(2.21892 -0.585794 0)
(2.22047 -0.584759 0)
(2.22192 -0.584748 0)
(2.22287 -0.586162 0)
(2.2231 -0.58811 0)
(2.22354 -0.588923 0)
(2.22573 -0.588352 0)
(2.22849 -0.58678 0)
(2.23184 -0.584171 0)
(2.23645 -0.579776 0)
(2.24009 -0.575239 0)
(2.2429 -0.573712 0)
(2.24586 -0.573285 0)
(2.24867 -0.572674 0)
(2.2515 -0.571711 0)
(2.25401 -0.570687 0)
(2.25616 -0.569766 0)
(2.25782 -0.568316 0)
(2.25872 -0.566698 0)
(2.25926 -0.565874 0)
(2.26043 -0.565204 0)
(2.26258 -0.564896 0)
(2.26457 -0.564406 0)
(2.26685 -0.563267 0)
(2.27035 -0.56125 0)
(2.27495 -0.557789 0)
(2.27818 -0.554599 0)
(2.28057 -0.552723 0)
(2.28286 -0.551456 0)
(2.28412 -0.550982 0)
(2.28474 -0.551487 0)
(2.28631 -0.551565 0)
(2.28893 -0.551356 0)
(2.29163 -0.550688 0)
(2.2946 -0.54959 0)
(2.29781 -0.547982 0)
(2.30189 -0.545296 0)
(2.30661 -0.541052 0)
(2.30898 -0.539438 0)
(2.31154 -0.539416 0)
(2.31359 -0.53961 0)
(2.31535 -0.540346 0)
(2.31563 -0.542415 0)
(2.31624 -0.543211 0)
(2.31902 -0.542992 0)
(2.32193 -0.541429 0)
(2.32508 -0.538693 0)
(2.32806 -0.536003 0)
(2.3306 -0.533754 0)
(2.33295 -0.531965 0)
(2.33538 -0.530633 0)
(2.3378 -0.529647 0)
(2.34016 -0.52899 0)
(2.3425 -0.528655 0)
(2.34481 -0.528507 0)
(2.34708 -0.528449 0)
(2.35057 -0.528713 0)
(2.35369 -0.528652 0)
(2.35582 -0.528583 0)
(2.35844 -0.528506 0)
(2.36106 -0.528071 0)
(2.36372 -0.527489 0)
(2.36614 -0.526865 0)
(2.36838 -0.525818 0)
(2.37033 -0.523814 0)
(2.37161 -0.520386 0)
(2.3716 -0.515405 0)
(2.37029 -0.510105 0)
(2.36973 -0.507186 0)
(2.37067 -0.506416 0)
(2.37186 -0.506528 0)
(2.37309 -0.507404 0)
(2.37441 -0.508817 0)
(2.37679 -0.510834 0)
(2.38015 -0.513738 0)
(2.38478 -0.515748 0)
(2.38989 -0.514399 0)
(2.39444 -0.510637 0)
(2.39762 -0.506817 0)
(2.39917 -0.50426 0)
(2.40067 -0.500974 0)
(2.39984 -0.495783 0)
(2.39592 -0.489254 0)
(2.39301 -0.48534 0)
(2.39282 -0.484324 0)
(2.39389 -0.484977 0)
(2.39575 -0.486331 0)
(2.39753 -0.487654 0)
(2.39999 -0.489174 0)
(2.40585 -0.492468 0)
(2.41341 -0.494686 0)
(2.41713 -0.493857 0)
(2.41919 -0.493152 0)
(2.42158 -0.49188 0)
(2.42334 -0.489417 0)
(2.42281 -0.484401 0)
(2.41913 -0.477009 0)
(2.4167 -0.472029 0)
(2.41754 -0.470363 0)
(2.41955 -0.470064 0)
(2.42125 -0.470725 0)
(2.42304 -0.472035 0)
(2.4259 -0.473818 0)
(2.43008 -0.476516 0)
(2.4353 -0.477738 0)
(2.44 -0.476303 0)
(2.44229 -0.474621 0)
(2.44488 -0.473269 0)
(2.44774 -0.47173 0)
(2.45023 -0.469567 0)
(2.45149 -0.466203 0)
(2.45049 -0.461733 0)
(2.44847 -0.458157 0)
(2.44773 -0.456632 0)
(2.44826 -0.45702 0)
(2.44954 -0.458704 0)
(2.45075 -0.461158 0)
(2.45364 -0.464881 0)
(2.4585 -0.469188 0)
(2.46318 -0.469644 0)
(2.67035 0.138471 0)
(2.67434 0.139056 0)
(2.67681 0.138142 0)
(2.67959 0.135432 0)
(2.67913 0.129353 0)
(2.67635 0.121733 0)
(2.67809 0.11798 0)
(2.68127 0.117124 0)
(2.68438 0.115496 0)
(2.68743 0.113655 0)
(2.68974 0.11109 0)
(2.68966 0.105974 0)
(2.68564 0.0977831 0)
(2.6838 0.0926151 0)
(2.68529 0.0921895 0)
(2.68878 0.0922042 0)
(2.69491 0.0934149 0)
(2.69908 0.0940187 0)
(2.70082 0.0932611 0)
(2.70248 0.0905596 0)
(2.69946 0.084226 0)
(2.68921 0.0731218 0)
(2.68267 0.0657922 0)
(2.68316 0.0645469 0)
(2.68508 0.0649451 0)
(2.69126 0.0680272 0)
(2.70262 0.0760458 0)
(2.71178 0.081398 0)
(2.71384 0.0817329 0)
(2.71562 0.0809504 0)
(2.71715 0.0802406 0)
(2.71814 0.0792788 0)
(2.71677 0.0761875 0)
(2.70897 0.0675691 0)
(2.69626 0.0551529 0)
(2.69178 0.0506655 0)
(2.69223 0.0504376 0)
(2.69362 0.0512823 0)
(2.69814 0.0546984 0)
(2.70764 0.0627711 0)
(2.71682 0.0690304 0)
(2.71915 0.0698692 0)
(2.7196 0.0694001 0)
(2.72016 0.068583 0)
(2.72047 0.0678928 0)
(2.72 0.0666469 0)
(2.71656 0.0633479 0)
(2.70821 0.0568206 0)
(2.70255 0.0531926 0)
(2.7021 0.0528755 0)
(2.70248 0.0532966 0)
(2.7045 0.0554507 0)
(2.71051 0.0610694 0)
(2.71688 0.0663346 0)
(2.71747 0.0673248 0)
(2.71688 0.0673145 0)
(2.71546 0.0673542 0)
(2.71197 0.065421 0)
(2.70474 0.0598351 0)
(2.69988 0.0568226 0)
(2.69929 0.0576989 0)
(2.69886 0.0582501 0)
(2.67287 0.0201847 0)
(2.55628 -0.14676 0)
(2.25716 -0.434434 0)
(2.07074 -0.684261 0)
(2.0474 -0.66862 0)
(2.06676 -0.636789 0)
(2.08283 -0.622436 0)
(2.08021 -0.635814 0)
(2.06474 -0.655362 0)
(2.05994 -0.665165 0)
(2.06232 -0.662219 0)
(2.07707 -0.645929 0)
(2.09444 -0.627153 0)
(2.10174 -0.621131 0)
(2.10607 -0.623996 0)
(2.10303 -0.635555 0)
(2.09336 -0.649079 0)
(2.09103 -0.653877 0)
(2.0935 -0.653448 0)
(2.09918 -0.648814 0)
(2.11021 -0.641392 0)
(2.11857 -0.636063 0)
(2.12076 -0.635736 0)
(2.122 -0.637184 0)
(2.12139 -0.639651 0)
(2.11879 -0.6414 0)
(2.12019 -0.640868 0)
(2.12308 -0.639929 0)
(2.12823 -0.637459 0)
(2.13483 -0.632732 0)
(2.13915 -0.628639 0)
(2.14048 -0.627791 0)
(2.14069 -0.627292 0)
(2.14035 -0.626807 0)
(2.14135 -0.626146 0)
(2.1429 -0.625104 0)
(2.14509 -0.622956 0)
(2.14749 -0.619081 0)
(2.14861 -0.615407 0)
(2.14929 -0.613423 0)
(2.15029 -0.612408 0)
(2.15192 -0.611366 0)
(2.15412 -0.609482 0)
(2.15682 -0.606323 0)
(2.15845 -0.603961 0)
(2.16016 -0.602646 0)
(2.16124 -0.60162 0)
(2.16202 -0.601263 0)
(2.16318 -0.602434 0)
(2.16491 -0.604289 0)
(2.1669 -0.605346 0)
(2.1696 -0.605183 0)
(2.17278 -0.603621 0)
(2.17632 -0.600142 0)
(2.17953 -0.596781 0)
(2.18258 -0.595343 0)
(2.18557 -0.594889 0)
(2.18819 -0.594992 0)
(2.19062 -0.59529 0)
(2.19245 -0.595143 0)
(2.19314 -0.594006 0)
(2.1932 -0.591989 0)
(2.19473 -0.590628 0)
(2.19776 -0.590292 0)
(2.20078 -0.590254 0)
(2.204 -0.590405 0)
(2.20773 -0.590677 0)
(2.21216 -0.590704 0)
(2.21604 -0.589731 0)
(2.2192 -0.58889 0)
(2.22213 -0.587934 0)
(2.22406 -0.586235 0)
(2.22428 -0.584556 0)
(2.22389 -0.584407 0)
(2.22385 -0.58568 0)
(2.22447 -0.586458 0)
(2.22678 -0.586349 0)
(2.22937 -0.585728 0)
(2.233 -0.584205 0)
(2.23827 -0.580606 0)
(2.24276 -0.57671 0)
(2.24521 -0.575742 0)
(2.24772 -0.574688 0)
(2.25016 -0.573481 0)
(2.25294 -0.572749 0)
(2.25562 -0.571701 0)
(2.25796 -0.570719 0)
(2.26003 -0.570327 0)
(2.26165 -0.570018 0)
(2.26239 -0.569174 0)
(2.26331 -0.567727 0)
(2.26503 -0.566179 0)
(2.26692 -0.564276 0)
(2.26908 -0.562382 0)
(2.27194 -0.560689 0)
(2.27631 -0.557874 0)
(2.28111 -0.554125 0)
(2.28372 -0.552495 0)
(2.28623 -0.552252 0)
(2.28805 -0.55206 0)
(2.28804 -0.551541 0)
(2.28856 -0.550966 0)
(2.29111 -0.5508 0)
(2.29378 -0.550831 0)
(2.29656 -0.550733 0)
(2.29973 -0.549895 0)
(2.30457 -0.547648 0)
(2.30987 -0.543384 0)
(2.31249 -0.541065 0)
(2.31475 -0.539717 0)
(2.31619 -0.538492 0)
(2.31702 -0.539119 0)
(2.31721 -0.540544 0)
(2.31844 -0.540762 0)
(2.32097 -0.540814 0)
(2.32354 -0.539563 0)
(2.32742 -0.537388 0)
(2.33112 -0.534893 0)
(2.33391 -0.533551 0)
(2.33643 -0.532899 0)
(2.33793 -0.531966 0)
(2.33948 -0.530843 0)
(2.34197 -0.52977 0)
(2.34466 -0.528794 0)
(2.34715 -0.527849 0)
(2.34965 -0.526937 0)
(2.35228 -0.526359 0)
(2.35507 -0.525869 0)
(2.35773 -0.525429 0)
(2.35983 -0.525658 0)
(2.36202 -0.526044 0)
(2.36424 -0.526147 0)
(2.36684 -0.525856 0)
(2.3699 -0.525056 0)
(2.3729 -0.523961 0)
(2.37548 -0.522644 0)
(2.37766 -0.521049 0)
(2.37932 -0.518709 0)
(2.37937 -0.514826 0)
(2.37681 -0.509667 0)
(2.37463 -0.506008 0)
(2.37489 -0.504946 0)
(2.37593 -0.504781 0)
(2.37709 -0.505295 0)
(2.37806 -0.505862 0)
(2.37971 -0.506691 0)
(2.38394 -0.508627 0)
(2.39229 -0.510093 0)
(2.39973 -0.5082 0)
(2.40303 -0.506076 0)
(2.40464 -0.504592 0)
(2.40641 -0.50301 0)
(2.40695 -0.500557 0)
(2.40413 -0.495608 0)
(2.39826 -0.489206 0)
(2.39454 -0.485473 0)
(2.3946 -0.484087 0)
(2.39642 -0.483531 0)
(2.39858 -0.483692 0)
(2.40056 -0.483721 0)
(2.40444 -0.48429 0)
(2.41227 -0.487548 0)
(2.42017 -0.490639 0)
(2.42372 -0.490425 0)
(2.42613 -0.490152 0)
(2.42828 -0.489584 0)
(2.42993 -0.487804 0)
(2.42933 -0.483383 0)
(2.42507 -0.475452 0)
(2.42138 -0.468915 0)
(2.42173 -0.466825 0)
(2.42367 -0.466368 0)
(2.42548 -0.466923 0)
(2.4269 -0.467737 0)
(2.42903 -0.468223 0)
(2.4336 -0.469985 0)
(2.4409 -0.473253 0)
(2.44605 -0.473857 0)
(2.44892 -0.473014 0)
(2.45173 -0.472074 0)
(2.45441 -0.470936 0)
(2.45662 -0.469287 0)
(2.45716 -0.466322 0)
(2.45444 -0.461887 0)
(2.45057 -0.458046 0)
(2.44914 -0.456128 0)
(2.44975 -0.45557 0)
(2.45101 -0.45609 0)
(2.45194 -0.456664 0)
(2.45513 -0.458246 0)
(2.46223 -0.461746 0)
(2.67159 0.149162 0)
(2.67436 0.148015 0)
(2.67731 0.144707 0)
(2.67659 0.137763 0)
(2.67319 0.129494 0)
(2.67433 0.125558 0)
(2.67746 0.125044 0)
(2.68096 0.12359 0)
(2.68424 0.121904 0)
(2.68699 0.119689 0)
(2.68771 0.115104 0)
(2.68407 0.10689 0)
(2.68147 0.100662 0)
(2.68309 0.0999685 0)
(2.68626 0.0997414 0)
(2.69253 0.100575 0)
(2.69707 0.101172 0)
(2.69902 0.100398 0)
(2.70098 0.097696 0)
(2.69896 0.0915932 0)
(2.68945 0.0805088 0)
(2.68205 0.072054 0)
(2.68231 0.070256 0)
(2.68419 0.0707038 0)
(2.69032 0.0734154 0)
(2.70139 0.0806732 0)
(2.71045 0.0854771 0)
(2.7126 0.0855933 0)
(2.71459 0.0844372 0)
(2.71627 0.0834357 0)
(2.71739 0.0823413 0)
(2.71645 0.0791735 0)
(2.70916 0.070749 0)
(2.69645 0.0581451 0)
(2.6916 0.0531109 0)
(2.69222 0.0528027 0)
(2.69366 0.0535824 0)
(2.69824 0.056681 0)
(2.70762 0.0644909 0)
(2.71692 0.0708417 0)
(2.71948 0.0717645 0)
(2.72011 0.0712695 0)
(2.72089 0.0704186 0)
(2.7214 0.069807 0)
(2.72136 0.0687172 0)
(2.71891 0.0658778 0)
(2.71145 0.0594357 0)
(2.70461 0.0544774 0)
(2.70376 0.05369 0)
(2.70416 0.0539467 0)
(2.70597 0.0555014 0)
(2.71136 0.0601298 0)
(2.71843 0.0656727 0)
(2.71994 0.0671454 0)
(2.71935 0.0671167 0)
(2.71829 0.0666183 0)
(2.71516 0.0651639 0)
(2.70829 0.0599069 0)
(2.70148 0.055268 0)
(2.70135 0.0570884 0)
(2.69845 0.0537807 0)
(2.65797 -0.0075472 0)
(2.49677 -0.243059 0)
(2.29318 -0.44914 0)
(2.10401 -0.584591 0)
(2.04308 -0.67653 0)
(2.02992 -0.684675 0)
(2.038 -0.674484 0)
(2.06084 -0.647432 0)
(2.07815 -0.634482 0)
(2.08243 -0.637127 0)
(2.08204 -0.644284 0)
(2.08205 -0.647674 0)
(2.08568 -0.644116 0)
(2.09089 -0.638882 0)
(2.09817 -0.635142 0)
(2.10345 -0.635672 0)
(2.10196 -0.640653 0)
(2.09701 -0.645423 0)
(2.09685 -0.646752 0)
(2.09896 -0.646606 0)
(2.1056 -0.64407 0)
(2.1159 -0.63841 0)
(2.12191 -0.635781 0)
(2.12424 -0.636035 0)
(2.12482 -0.637415 0)
(2.12266 -0.640145 0)
(2.12146 -0.641366 0)
(2.12397 -0.64131 0)
(2.12715 -0.639724 0)
(2.13375 -0.635689 0)
(2.14083 -0.630355 0)
(2.1434 -0.629086 0)
(2.14471 -0.628988 0)
(2.14385 -0.628717 0)
(2.14317 -0.627937 0)
(2.14412 -0.627016 0)
(2.14534 -0.625754 0)
(2.14811 -0.622857 0)
(2.15065 -0.618848 0)
(2.15154 -0.616459 0)
(2.15213 -0.614402 0)
(2.15307 -0.612321 0)
(2.15493 -0.610194 0)
(2.15808 -0.606676 0)
(2.15999 -0.604018 0)
(2.1615 -0.602979 0)
(2.16304 -0.602012 0)
(2.16387 -0.601114 0)
(2.16378 -0.600839 0)
(2.16407 -0.601536 0)
(2.16609 -0.602291 0)
(2.16879 -0.602762 0)
(2.17174 -0.602185 0)
(2.1761 -0.599738 0)
(2.17969 -0.59658 0)
(2.18266 -0.595114 0)
(2.18539 -0.593812 0)
(2.18722 -0.592551 0)
(2.18889 -0.592315 0)
(2.19108 -0.592842 0)
(2.19362 -0.593229 0)
(2.19578 -0.592861 0)
(2.19696 -0.591385 0)
(2.19768 -0.589394 0)
(2.19971 -0.588248 0)
(2.20274 -0.587957 0)
(2.20592 -0.587929 0)
(2.20951 -0.587858 0)
(2.21427 -0.587705 0)
(2.21963 -0.587516 0)
(2.22296 -0.587139 0)
(2.2261 -0.58705 0)
(2.22874 -0.586563 0)
(2.22884 -0.585463 0)
(2.22617 -0.584962 0)
(2.22559 -0.584675 0)
(2.22805 -0.584357 0)
(2.23073 -0.583574 0)
(2.23411 -0.582315 0)
(2.23956 -0.580262 0)
(2.24529 -0.577259 0)
(2.24825 -0.576135 0)
(2.25126 -0.575703 0)
(2.25367 -0.57467 0)
(2.25584 -0.573041 0)
(2.25813 -0.571505 0)
(2.26053 -0.570526 0)
(2.26248 -0.570197 0)
(2.26431 -0.570351 0)
(2.26581 -0.570546 0)
(2.26727 -0.569872 0)
(2.26907 -0.56828 0)
(2.27098 -0.566271 0)
(2.27312 -0.56443 0)
(2.2755 -0.56258 0)
(2.27908 -0.559658 0)
(2.28357 -0.55542 0)
(2.28654 -0.553223 0)
(2.28864 -0.552828 0)
(2.29061 -0.55248 0)
(2.29199 -0.552613 0)
(2.29245 -0.552904 0)
(2.29379 -0.552248 0)
(2.29619 -0.551186 0)
(2.29866 -0.549909 0)
(2.30121 -0.548693 0)
(2.30503 -0.547294 0)
(2.31095 -0.5442 0)
(2.31602 -0.541547 0)
(2.31813 -0.541172 0)
(2.32 -0.540682 0)
(2.32014 -0.539921 0)
(2.319 -0.539434 0)
(2.32016 -0.539033 0)
(2.32261 -0.5384 0)
(2.3251 -0.536846 0)
(2.3284 -0.535019 0)
(2.33267 -0.53303 0)
(2.33587 -0.53188 0)
(2.33892 -0.531816 0)
(2.34145 -0.531926 0)
(2.34239 -0.532135 0)
(2.34342 -0.53183 0)
(2.34583 -0.530772 0)
(2.34903 -0.529438 0)
(2.35194 -0.527957 0)
(2.35442 -0.526181 0)
(2.35719 -0.524727 0)
(2.35991 -0.523507 0)
(2.36217 -0.522656 0)
(2.3643 -0.522232 0)
(2.36617 -0.522173 0)
(2.36774 -0.522408 0)
(2.36952 -0.522487 0)
(2.37283 -0.522346 0)
(2.37676 -0.521235 0)
(2.3797 -0.520061 0)
(2.38196 -0.519164 0)
(2.38412 -0.518576 0)
(2.38556 -0.517626 0)
(2.38476 -0.515045 0)
(2.38125 -0.510142 0)
(2.37834 -0.505997 0)
(2.37805 -0.504278 0)
(2.37898 -0.503118 0)
(2.38017 -0.502101 0)
(2.38122 -0.501337 0)
(2.38416 -0.500361 0)
(2.39124 -0.50082 0)
(2.40079 -0.503228 0)
(2.40496 -0.504271 0)
(2.40669 -0.504266 0)
(2.40873 -0.503634 0)
(2.41005 -0.502749 0)
(2.40973 -0.501251 0)
(2.40552 -0.496894 0)
(2.39932 -0.489593 0)
(2.39645 -0.484073 0)
(2.3974 -0.481353 0)
(2.39982 -0.479846 0)
(2.40256 -0.478989 0)
(2.40588 -0.478186 0)
(2.41121 -0.478458 0)
(2.41824 -0.481759 0)
(2.42544 -0.486265 0)
(2.42914 -0.487504 0)
(2.43185 -0.487275 0)
(2.43426 -0.487036 0)
(2.43592 -0.485775 0)
(2.43524 -0.481976 0)
(2.43091 -0.474242 0)
(2.42621 -0.46707 0)
(2.42583 -0.464478 0)
(2.42759 -0.463423 0)
(2.42945 -0.463124 0)
(2.43092 -0.463039 0)
(2.43323 -0.46306 0)
(2.43829 -0.465008 0)
(2.4459 -0.469504 0)
(2.45123 -0.471694 0)
(2.45363 -0.471661 0)
(2.45679 -0.471044 0)
(2.45957 -0.470415 0)
(2.4614 -0.469453 0)
(2.46086 -0.46676 0)
(2.45672 -0.461239 0)
(2.45205 -0.455449 0)
(2.45084 -0.452202 0)
(2.45178 -0.450064 0)
(2.45309 -0.449057 0)
(2.45457 -0.448543 0)
(2.45885 -0.449145 0)
(2.67112 0.15695 0)
(2.67413 0.153391 0)
(2.67335 0.146106 0)
(2.6698 0.137607 0)
(2.67066 0.133551 0)
(2.67369 0.133189 0)
(2.67746 0.131882 0)
(2.68096 0.130394 0)
(2.68406 0.128464 0)
(2.68534 0.124475 0)
(2.68244 0.116491 0)
(2.67915 0.109403 0)
(2.6807 0.108157 0)
(2.68357 0.107945 0)
(2.68984 0.108419 0)
(2.69475 0.108721 0)
(2.69693 0.108038 0)
(2.69924 0.105478 0)
(2.6979 0.0996251 0)
(2.68892 0.0886079 0)
(2.68091 0.0791008 0)
(2.68097 0.076667 0)
(2.68283 0.0770977 0)
(2.68899 0.0794904 0)
(2.69994 0.0861936 0)
(2.70896 0.0906471 0)
(2.71117 0.0906127 0)
(2.71343 0.0890516 0)
(2.71523 0.0877358 0)
(2.71648 0.0864483 0)
(2.71588 0.0830806 0)
(2.70902 0.0746597 0)
(2.69636 0.0613884 0)
(2.69104 0.0556326 0)
(2.69183 0.0551628 0)
(2.69327 0.0558727 0)
(2.69789 0.0587297 0)
(2.70713 0.0663736 0)
(2.71664 0.072942 0)
(2.71948 0.073909 0)
(2.72029 0.0733955 0)
(2.72136 0.0725864 0)
(2.72212 0.0720658 0)
(2.72246 0.0711362 0)
(2.7208 0.0685449 0)
(2.71422 0.0623337 0)
(2.70658 0.0561462 0)
(2.70516 0.0547828 0)
(2.70552 0.0549371 0)
(2.70717 0.0560662 0)
(2.71196 0.0600267 0)
(2.71932 0.0657998 0)
(2.72208 0.0678585 0)
(2.72185 0.0678853 0)
(2.721 0.0676792 0)
(2.7182 0.0661444 0)
(2.71126 0.0609758 0)
(2.70385 0.0549825 0)
(2.70281 0.0551771 0)
(2.69947 0.0513577 0)
(2.64474 -0.0222213 0)
(2.4145 -0.328642 0)
(2.24099 -0.554584 0)
(2.13662 -0.57536 0)
(2.10466 -0.595361 0)
(2.06888 -0.651583 0)
(2.03574 -0.686543 0)
(2.03399 -0.687836 0)
(2.04411 -0.673131 0)
(2.06635 -0.645943 0)
(2.09029 -0.631277 0)
(2.10032 -0.629598 0)
(2.0997 -0.634452 0)
(2.09667 -0.640955 0)
(2.09391 -0.644041 0)
(2.09304 -0.645072 0)
(2.09584 -0.644708 0)
(2.09953 -0.642878 0)
(2.10221 -0.64304 0)
(2.10409 -0.643228 0)
(2.10789 -0.642379 0)
(2.11416 -0.639672 0)
(2.12029 -0.637783 0)
(2.12359 -0.637777 0)