/*--------------------------------*- C++ -*----------------------------------*\
  =========                 |
  \\      /  F ield         | OpenFOAM: The Open Source CFD Toolbox
   \\    /   O peration     | Website:  https://openfoam.org
    \\  /    A nd           | Version:  7
     \\/     M anipulation  |
\*---------------------------------------------------------------------------*/
FoamFile
{
    version     2.0;
    format      ascii;
    class       volScalarField;
    location    "4";
    object      rho;
}
// * * * * * * * * * * * * * * * * * * * * * * * * * * * * * * * * * * * * * //

dimensions      [1 -3 0 0 0 0 0];

internalField   nonuniform List<scalar> 
4128
(
2.52987
2.46089
2.41675
2.36294
2.30309
2.23025
2.1747
2.13236
2.08198
2.02947
1.97135
1.93695
1.90272
1.85914
1.80864
1.75939
1.73747
1.71221
1.67887
1.63694
1.61083
1.59102
1.56109
1.52352
1.48162
1.46027
1.44481
1.42425
1.39486
1.37801
1.37153
1.35652
1.33257
1.3001
1.27247
1.25607
1.24242
1.23238
1.24712
1.38039
1.7336
1.99371
2.10016
2.09451
2.08039
2.07861
2.09397
2.15025
2.24117
2.32063
2.37104
2.37712
2.36326
2.34005
2.31098
2.29154
2.27505
2.25468
2.23534
2.2237
2.2146
2.2128
2.23434
2.33327
2.54014
2.82508
3.07562
3.28633
3.33864
3.37783
3.39531
3.38193
3.35842
3.31928
3.27608
3.24776
3.22198
3.20144
3.19254
3.18587
3.1745
3.15812
3.13396
3.11116
3.09569
3.08904
3.08657
3.08153
3.07264
3.05829
3.03733
3.00964
2.98002
2.96251
2.95551
2.95521
2.96218
2.96532
2.96344
2.95998
2.95269
2.93782
2.90879
2.86511
2.83244
2.82236
2.81947
2.81838
2.82624
2.83956
2.83885
2.83387
2.82551
2.80575
2.76697
2.72233
2.70387
2.69882
2.69445
2.69329
2.70271
2.70182
2.697
2.68672
2.66104
2.61933
2.59189
2.58531
2.58156
2.60307
2.53688
2.489
2.43121
2.36761
2.2938
2.24506
2.19974
2.14747
2.09106
2.03239
1.99955
1.96216
1.91779
1.86683
1.82172
1.79889
1.77084
1.73523
1.68991
1.66167
1.63895
1.60728
1.56602
1.52445
1.50984
1.49524
1.47371
1.44327
1.42378
1.41482
1.39695
1.36935
1.33509
1.3075
1.29166
1.28749
1.31745
1.46631
1.85646
2.12531
2.21194
2.22024
2.19627
2.16653
2.16487
2.19381
2.29568
2.37872
2.43248
2.45212
2.44715
2.42252
2.39596
2.36398
2.33841
2.32075
2.3034
2.28181
2.25653
2.2288
2.20936
2.20846
2.2036
2.21236
2.2754
2.43264
2.69714
2.94815
3.14905
3.30652
3.32813
3.34476
3.34955
3.32505
3.29257
3.26457
3.23696
3.21656
3.19736
3.17891
3.16451
3.14708
3.12935
3.11447
3.10201
3.09404
3.08697
3.07843
3.06664
3.0488
3.02624
2.99988
2.97292
2.95524
2.947
2.94314
2.94284
2.95174
2.95716
2.95342
2.94874
2.9373
2.91175
2.868
2.82529
2.80986
2.80578
2.80244
2.8041
2.82112
2.83081
2.82873
2.82203
2.80438
2.76195
2.7104
2.6903
2.68508
2.68096
2.67868
2.68791
2.69389
2.68978
2.67968
2.65501
2.61166
2.58364
2.5749
2.6767
2.61469
2.56152
2.49968
2.43095
2.35895
2.31536
2.26752
2.21459
2.15342
2.09663
2.06477
2.02377
1.9783
1.92519
1.88483
1.86145
1.82915
1.79029
1.7426
1.71011
1.68536
1.65312
1.61375
1.57592
1.56188
1.54643
1.52263
1.4894
1.46814
1.45659
1.43564
1.40704
1.37217
1.34281
1.34433
1.39541
1.59764
1.94659
2.28006
2.33491
2.30697
2.28076
2.24901
2.24189
2.2624
2.33674
2.47253
2.54103
2.54745
2.53708
2.51035
2.47225
2.43746
2.41173
2.39465
2.38024
2.3658
2.34452
2.31764
2.28601
2.25207
2.22491
2.20685
2.19933
2.19844
2.20421
2.23456
2.33852
2.51623
2.77062
2.98749
3.16251
3.28662
3.28181
3.28938
3.291
3.26935
3.24794
3.22007
3.19277
3.17448
3.15747
3.14467
3.13003
3.10769
3.0893
3.08149
3.07618
3.07214
3.06322
3.04885
3.032
3.00891
2.97456
2.94049
2.92451
2.9186
2.91541
2.92501
2.94494
2.94981
2.94817
2.93796
2.91264
2.86059
2.80875
2.79248
2.78829
2.78482
2.78824
2.81306
2.82752
2.82509
2.81675
2.79552
2.74316
2.68994
2.67455
2.66979
2.66606
2.66769
2.68068
2.68656
2.68221
2.67169
2.64193
2.59309
2.5677
2.74777
2.69066
2.63194
2.5674
2.49506
2.42742
2.38598
2.33613
2.28198
2.21544
2.16414
2.13145
2.08692
2.04077
1.98596
1.9502
1.92308
1.88539
1.84285
1.79111
1.76038
1.73531
1.70343
1.665
1.63025
1.61683
1.5982
1.57123
1.53643
1.51374
1.49715
1.47289
1.44521
1.40912
1.40873
1.47098
1.75451
2.10651
2.39047
2.42048
2.37305
2.32334
2.3064
2.30969
2.34451
2.41522
2.53992
2.67399
2.67586
2.63633
2.59461
2.55854
2.51806
2.48936
2.46975
2.45527
2.44431
2.42884
2.40887
2.38597
2.35501
2.31877
2.28432
2.25724
2.23709
2.21842
2.20067
2.19101
2.18446
2.18898
2.23793
2.37135
2.56999
2.83338
3.02361
3.16396
3.24676
3.23827
3.23218
3.22031
3.21219
3.20042
3.18611
3.16975
3.14681
3.11028
3.07527
3.06699
3.06551
3.06703
3.06942
3.06899
3.0619
3.04569
3.0137
2.95748
2.91561
2.9037
2.89815
2.8952
2.90577
2.93736
2.94648
2.94152
2.92914
2.89946
2.83556
2.78519
2.77404
2.77051
2.76859
2.78056
2.80989
2.81719
2.81201
2.8022
2.77356
2.70989
2.6673
2.6572
2.65284
2.65663
2.68098
2.69088
2.68489
2.67531
2.65859
2.61954
2.56838
2.81827
2.76376
2.69961
2.63464
2.55961
2.49845
2.45716
2.4046
2.34779
2.2784
2.2327
2.19753
2.15162
2.10367
2.04808
2.01614
1.98352
1.94083
1.8947
1.83987
1.8105
1.78694
1.75655
1.72054
1.68822
1.67146
1.64964
1.61947
1.58231
1.55967
1.53581
1.51185
1.48101
1.48813
1.5807
1.89695
2.34574
2.4796
2.49993
2.45881
2.39962
2.37271
2.37864
2.40945
2.49851
2.61174
2.75294
2.78396
2.75827
2.71254
2.65701
2.61227
2.58066
2.55722
2.53777
2.51934
2.50014
2.47962
2.45795
2.43532
2.41048
2.38239
2.35186
2.32368
2.29661
2.26941
2.24196
2.21706
2.19278
2.1721
2.16844
2.17233
2.18995
2.26572
2.4296
2.62599
2.85058
3.00263
3.1195
3.17174
3.18064
3.20564
3.21683
3.19958
3.17194
3.12727
3.07535
3.04327
3.03155
3.03112
3.05605
3.07504
3.07359
3.06172
3.04191
2.99988
2.9321
2.8931
2.88269
2.87718
2.87857
2.90387
2.93502
2.93595
2.92843
2.91374
2.87205
2.79927
2.76123
2.75425
2.75165
2.75805
2.79148
2.81354
2.80874
2.79859
2.78041
2.73679
2.67444
2.6479
2.64258
2.64174
2.65462
2.67244
2.67022
2.66463
2.65819
2.63866
2.58094
2.88897
2.83276
2.76682
2.70255
2.62507
2.57212
2.52764
2.47122
2.41201
2.34297
2.30167
2.26338
2.21679
2.16471
2.11134
2.08091
2.04202
1.99618
1.9454
1.89034
1.86777
1.84399
1.81255
1.77521
1.74346
1.72524
1.70046
1.66747
1.63145
1.60157
1.57762
1.55447
1.57466
1.75321
2.07915
2.5203
2.65797
2.60655
2.5647
2.50999
2.47135
2.46734
2.48544
2.54513
2.67865
2.79562
2.8772
2.86507
2.8293
2.78667
2.74171
2.68909
2.65155
2.62271
2.5965
2.57376
2.55147
2.52818
2.50569
2.48466
2.46379
2.44088
2.41503
2.38708
2.3577
2.32722
2.29434
2.26172
2.23164
2.20574
2.18782
2.16999
2.16475
2.15937
2.16302
2.1864
2.26692
2.41768
2.60892
2.81808
2.97245
3.10564
3.16155
3.17839
3.17763
3.15116
3.09934
3.04642
3.01903
3.01481
3.03172
3.06791
3.07044
3.06196
3.04999
3.02176
2.95627
2.89215
2.87481
2.86831
2.8682
2.88756
2.92017
2.92758
2.92226
2.91075
2.88575
2.82745
2.76118
2.73822
2.73412
2.73505
2.75463
2.78404
2.78791
2.78038
2.76914
2.75002
2.70396
2.65142
2.636
2.63337
2.63735
2.65298
2.66055
2.65496
2.64795
2.63922
2.60175
2.96071
2.89918
2.83465
2.76798
2.69213
2.64664
2.5961
2.53816
2.47705
2.41008
2.37147
2.32861
2.28021
2.22324
2.17447
2.14323
2.09931
2.05227
1.99577
1.94717
1.9294
1.90279
1.86981
1.83094
1.79831
1.77824
1.749
1.7145
1.67635
1.64571
1.63532
1.67326
1.91663
2.34339
2.6438
2.81238
2.78645
2.70715
2.623
2.57472
2.55537
2.56694
2.60669
2.71692
2.85846
2.93924
2.96463
2.95055
2.90794
2.86204
2.82151
2.77506
2.72537
2.68696
2.6572
2.63063
2.60495
2.58016
2.55627
2.53228
2.5093
2.48639
2.46263
2.43841
2.41303
2.3837
2.35032
2.31568
2.28362
2.25575
2.23095
2.20586
2.18654
2.1671
2.14686
2.14137
2.13108
2.12912
2.15538
2.25937
2.43216
2.6413
2.84274
2.98476
3.09272
3.1017
3.09121
3.06184
3.03377
3.0151
3.02408
3.05464
3.06573
3.05633
3.04106
3.01651
2.96859
2.90556
2.87404
2.86423
2.86232
2.87852
2.90601
2.91
2.90333
2.8955
2.88124
2.8479
2.78579
2.73455
2.72004
2.71722
2.72314
2.74305
2.76445
2.76997
2.76402
2.75172
2.72663
2.67871
2.63835
2.62956
2.6284
2.62987
2.63752
2.64724
2.64444
2.63782
2.6118
3.0296
2.9637
2.90168
2.82943
2.76417
2.72137
2.66418
2.6079
2.54242
2.4805
2.44128
2.39184
2.34095
2.28038
2.23654
2.20324
2.15693
2.10901
2.04745
2.01087
1.99351
1.96192
1.92715
1.88439
1.85188
1.82971
1.79628
1.76279
1.72267
1.7219
1.81039
2.08431
2.57205
2.84405
2.91249
2.88704
2.81906
2.7423
2.67673
2.64738
2.65104
2.6819
2.77365
2.91072
3.02932
3.05406
3.04294
3.01155
2.96801
2.92334
2.88223
2.84012
2.79737
2.75978
2.72688
2.69646
2.66736
2.6392
2.61126
2.58223
2.5528
2.52522
2.50124
2.48035
2.45991
2.43629
2.40666
2.37102
2.33386
2.30249
2.27596
2.2515
2.22695
2.20242
2.18004
2.15918
2.13618
2.11751
2.09638
2.09121
2.10095
2.15309
2.28051
2.4501
2.66203
2.81988
2.91574
2.99605
3.00579
3.00156
3.02395
3.05055
3.0656
3.05648
3.03846
3.00861
2.96741
2.92116
2.88455
2.86493
2.85337
2.85291
2.86164
2.87344
2.87931
2.87467
2.86474
2.84592
2.81295
2.76438
2.72288
2.70862
2.70558
2.70647
2.71472
2.72887
2.73735
2.7336
2.72461
2.70648
2.66982
2.63351
2.62228
2.61876
2.61566
2.61501
2.61746
2.61453
2.60466
3.10191
3.03254
2.96781
2.88973
2.83991
2.79368
2.73435
2.68003
2.60837
2.55439
2.50835
2.45239
2.3998
2.3376
2.29838
2.26296
2.21634
2.16669
2.1046
2.07747
2.05574
2.02005
1.98314
1.93478
1.90738
1.87633
1.84649
1.81441
1.83099
1.99693
2.36964
2.74506
3.03455
3.04616
3.00569
2.93723
2.86682
2.80684
2.76323
2.75684
2.77258
2.85811
2.991
3.11664
3.16335
3.13767
3.10028
3.05819
3.01565
2.97517
2.93613
2.89939
2.86663
2.83454
2.80008
2.76453
2.7295
2.69528
2.66148
2.6278
2.59596
2.56769
2.54316
2.52191
2.50201
2.48058
2.45434
2.42085
2.38119
2.34413
2.31536
2.29267
2.27018
2.24609
2.22264
2.19884
2.17475
2.14855
2.11733
2.08523
2.07462
2.07258
2.076
2.10266
2.16737
2.30325
2.45823
2.61296
2.76017
2.87149
2.93903
2.99045
3.02587
3.03984
3.03583
3.01103
2.97941
2.9511
2.91633
2.87315
2.83766
2.81789
2.81036
2.80956
2.82156
2.84141
2.84125
2.83322
2.82148
2.803
2.77175
2.72643
2.69569
2.68604
2.68129
2.67901
2.6874
2.70596
2.7093
2.70488
2.69388
2.66453
2.62568
2.61071
2.60541
2.60102
2.59826
2.59862
2.5913
3.18601
3.11285
3.03316
2.95263
2.91164
2.86108
2.8076
2.74937
2.67784
2.62777
2.56939
2.5118
2.45754
2.39545
2.36126
2.32353
2.27692
2.22582
2.16784
2.14398
2.1156
2.07759
2.03484
1.98574
1.95616
1.92632
1.91675
1.97695
2.21081
2.70698
3.00409
3.1484
3.14435
3.0807
3.01903
2.96219
2.91886
2.88883
2.87679
2.89929
2.9596
3.10296
3.22299
3.27702
3.25055
3.20352
3.1536
3.10691
3.06595
3.02946
2.99537
2.96375
2.933
2.90009
2.86359
2.82507
2.78645
2.74812
2.70995
2.67291
2.63954
2.61125
2.58665
2.56402
2.54208
2.51967
2.49456
2.46418
2.42781
2.39047
2.35882
2.33318
2.30934
2.28518
2.2606
2.23546
2.21156
2.18498
2.1517
2.11688
2.08772
2.07432
2.06597
2.06831
2.07429
2.07638
2.09232
2.14325
2.24438
2.39781
2.56463
2.69625
2.80973
2.89698
2.95858
2.97984
2.9846
2.98161
2.95504
2.91589
2.86634
2.81422
2.77854
2.76201
2.75996
2.77196
2.80767
2.82269
2.81942
2.81454
2.79872
2.76104
2.6998
2.66298
2.65367
2.64982
2.65031
2.6671
2.6978
2.70688
2.7008
2.68027
2.64278
2.60187
2.58601
2.58185
2.57845
2.57929
2.58199
3.26486
3.19724
3.10739
3.02416
2.97963
2.92923
2.88045
2.81429
2.75167
2.6935
2.62575
2.57348
2.51337
2.45684
2.42742
2.3856
2.3392
2.28764
2.23456
2.2098
2.17241
2.13277
2.08045
2.03855
2.00719
2.02667
2.18364
2.52755
2.9906
3.29238
3.33361
3.31039
3.23062
3.13038
3.04635
2.98992
2.97331
2.97362
3.00663
3.06987
3.20443
3.35452
3.40268
3.3797
3.32893
3.26849
3.21344
3.16588
3.12533
3.08967
3.05672
3.02499
2.99245
2.95653
2.91704
2.87737
2.84007
2.80455
2.76779
2.72776
2.68836
2.65533
2.6282
2.60393
2.58029
2.55568
2.52878
2.49855
2.46485
2.43023
2.3999
2.374
2.34955
2.32438
2.29717
2.26974
2.24404
2.21672
2.18052
2.14328
2.12271
2.10778
2.09119
2.0782
2.06947
2.06222
2.06127
2.04222
2.00001
2.00357
2.06146
2.20055
2.37478
2.5505
2.68423
2.80845
2.90919
2.93258
2.9392
2.93231
2.90213
2.85087
2.79365
2.74855
2.73344
2.73259
2.74655
2.7851
2.80858
2.80488
2.79096
2.76477
2.70912
2.65435
2.63921
2.63577
2.6373
2.65248
2.67265
2.6819
2.67877
2.66961
2.64419
2.59728
2.56327
2.55663
2.55534
2.56211
2.57047
3.31718
3.27692
3.19718
3.10369
3.04619
2.99953
2.94693
2.88013
2.81795
2.74778
2.68513
2.6361
2.56623
2.52634
2.49665
2.448
2.40371
2.35136
2.30374
2.27003
2.22704
2.18179
2.13171
2.10817
2.15847
2.42821
2.9387
3.2743
3.46947
3.45616
3.4147
3.35819
3.28607
3.20338
3.11621
3.07034
3.06335
3.08736
3.15945
3.2908
3.466
3.53634
3.51637
3.46494
3.39663
3.33397
3.28085
3.23312
3.18881
3.14812
3.11111
3.07609
3.04093
3.00419
2.96619
2.92959
2.89616
2.86381
2.82774
2.78397
2.73666
2.69661
2.66638
2.6418
2.61929
2.59626
2.57049
2.54002
2.50462
2.46829
2.43689
2.41009
2.38459
2.35793
2.32989
2.30233
2.27493
2.24506
2.20745
2.16997
2.15312
2.14031
2.12545
2.10893
2.09211
2.07697
2.06326
2.04849
2.01934
1.96012
1.92676
1.93222
1.96805
2.06819
2.22759
2.39939
2.58233
2.71336
2.83151
2.86812
2.85967
2.84899
2.81495
2.75907
2.72361
2.72521
2.73952
2.76298
2.77709
2.77106
2.75817
2.74057
2.70668
2.65475
2.62996
2.62521
2.6258
2.64225
2.66624
2.66817
2.66162
2.64916
2.62549
2.5861
2.55096
2.53537
2.53225
2.54084
2.56011
3.33111
3.3252
3.27094
3.18493
3.11946
3.06599
3.00213
2.9384
2.87232
2.80241
2.75238
2.68964
2.62736
2.60212
2.56164
2.5096
2.46993
2.41422
2.37258
2.32333
2.27839
2.22955
2.23811
2.3833
2.74438
3.29388
3.56932
3.69275
3.68503
3.59171
3.47301
3.392
3.33084
3.25788
3.19872
3.17553
3.18284
3.23586
3.37888
3.55123
3.65912
3.64468
3.60104
3.53608
3.46652
3.40469
3.35241
3.30397
3.25599
3.20938
3.16586
3.12498
3.08517
3.04673
3.01187
2.98095
2.95225
2.9224
2.8859
2.83627
2.7778
2.7308
2.70091
2.67861
2.65817
2.63674
2.61191
2.5812
2.54347
2.50314
2.46833
2.44057
2.41579
2.39123
2.3661
2.33938
2.30889
2.26947
2.21622
2.18342
2.17248
2.16293
2.15211
2.13929
2.12458
2.10754
2.08876
2.06961
2.04082
1.98489
1.92288
1.90931
1.90271
1.9022
1.91983
1.97303
2.09392
2.26261
2.44452
2.61184
2.68003
2.73896
2.75541
2.73677
2.72306
2.73577
2.74634
2.75324
2.76395
2.75831
2.74392
2.72186
2.68757
2.6456
2.6224
2.61437
2.61705
2.63096
2.64333
2.64201
2.6359
2.62492
2.60577
2.57814
2.54773
2.52721
2.51916
2.51751
2.52443
3.24522
3.31104
3.29507
3.26199
3.20285
3.12644
3.05138
2.98936
2.92313
2.86869
2.81727
2.74152
2.70588
2.67465
2.61957
2.57482
2.53409
2.47458
2.42846
2.37667
2.34591
2.39817
2.69548
3.21341
3.60915
3.78375
3.77808
3.77401
3.73764
3.66167
3.55477
3.45798
3.38497
3.31589
3.27718
3.28438
3.32707
3.46872
3.6513
3.76995
3.76226
3.72204
3.66041
3.59343
3.52947
3.47235
3.42176
3.37385
3.32561
3.27613
3.22595
3.17608
3.12888
3.08909
3.05786
3.03083
3.00468
2.97653
2.94067
2.88735
2.81775
2.76312
2.73423
2.71376
2.69414
2.67301
2.64805
2.61648
2.5767
2.53335
2.49614
2.46821
2.44561
2.42574
2.40702
2.38609
2.35805
2.3131
2.24534
2.19478
2.17645
2.16419
2.153
2.14585
2.14089
2.13028
2.11862
2.10384
2.07978
2.0331
1.96316
1.91657
1.89855
1.89028
1.8865
1.87825
1.8787
1.90311
1.96815
2.09586
2.27786
2.44841
2.54853
2.60158
2.65536
2.68434
2.70361
2.73175
2.75041
2.75053
2.73727
2.71058
2.67391
2.6409
2.61657
2.59934
2.59038
2.58748
2.58744
2.58962
2.59053
2.58858
2.58342
2.57163
2.55633
2.53974
2.52124
2.50788
2.4988
2.90283
3.21922
3.27423
3.29112
3.26087
3.18568
3.10927
3.04531
2.9864
2.93927
2.86749
2.81226
2.78514
2.73554
2.67592
2.64302
2.58806
2.53311
2.47424
2.49195
2.66258
3.07749
3.69112
3.94498
4.05376
4.01992
3.90904
3.80149
3.73795
3.68932
3.62598
3.54529
3.46785
3.4084
3.39883
3.43767
3.56495
3.76488
3.90182
3.89576
3.84826
3.78125
3.70989
3.64406
3.58644
3.53542
3.48883
3.44447
3.39944
3.35054
3.29464
3.23071
3.16943
3.12913
3.10141
3.07591
3.05038
3.02335
2.98995
2.93952
2.86655
2.80332
2.77019
2.74735
2.72592
2.70346
2.6773
2.64378
2.6017
2.55713
2.51882
2.48956
2.46906
2.45352
2.43782
2.41885
2.39347
2.35268
2.28388
2.21936
2.19343
2.17991
2.16903
2.15924
2.14725
2.13456
2.12271
2.10914
2.09122
2.06227
2.00824
1.95403
1.92476
1.9069
1.89255
1.87866
1.86688
1.85904
1.85233
1.85755
1.89774
1.98633
2.12353
2.28859
2.43535
2.49122
2.55152
2.60602
2.64181
2.68245
2.69693
2.69446
2.67427
2.65458
2.6366
2.61134
2.58415
2.56055
2.54084
2.5344
2.53361
2.5377
2.54931
2.55736
2.55458
2.54606
2.53329
2.5123
2.48079
2.50787
2.93068
3.16495
3.27348
3.28823
3.24914
3.18276
3.11877
3.06585
2.99858
2.92069
2.89124
2.84998
2.78775
2.73978
2.70027
2.64079
2.60672
2.68618
3.06474
3.59024
4.0386
4.19717
4.16538
4.12754
4.0723
3.98715
3.87925
3.78565
3.72303
3.66394
3.60419
3.55982
3.54795
3.58338
3.701
3.89413
4.04984
4.04607
3.98419
3.90649
3.8307
3.75929
3.69613
3.64139
3.59363
3.55189
3.51312
3.47308
3.42691
3.36598
3.28291
3.20649
3.16614
3.13842
3.11289
3.08779
3.06191
3.03184
2.98947
2.92652
2.85684
2.80935
2.77895
2.75306
2.72742
2.69913
2.66488
2.62408
2.58139
2.5402
2.50629
2.48982
2.47679
2.46326
2.44717
2.42637
2.39219
2.32528
2.24513
2.20908
2.19376
2.18162
2.16949
2.15676
2.14462
2.13432
2.12491
2.11295
2.08934
2.04054
1.97878
1.94606
1.93235
1.91989
1.90401
1.88363
1.85858
1.83772
1.82785
1.82815
1.83341
1.85485
1.90397
1.99101
2.1101
2.25274
2.39117
2.46298
2.53124
2.57764
2.60423
2.64201
2.65839
2.65384
2.63313
2.6066
2.57129
2.52731
2.50371
2.4997
2.49865
2.50301
2.51677
2.52953
2.53161
2.52597
2.50937
2.46682
2.33926
2.53189
2.88111
3.14853
3.30122
3.30219
3.26789
3.21579
3.15396
3.04843
2.98852
2.95859
2.90109
2.84107
2.81008
2.75739
2.79149
3.03377
3.54836
4.11233
4.42088
4.51316
4.44162
4.29358
4.15542
4.07462
4.01509
3.95042
3.86846
3.78674
3.70976
3.66003
3.66612
3.70747
3.83376
4.01217
4.1803
4.19107
4.13944
4.05308
3.96694
3.88852
3.81653
3.75259
3.69646
3.64875
3.60978
3.574
3.53659
3.4924
3.43088
3.34126
3.25243
3.20121
3.16961
3.14332
3.11786
3.09202
3.06417
3.02945
2.98126
2.9195
2.85774
2.81084
2.77627
2.74643
2.71703
2.68533
2.65116
2.61224
2.56194
2.52249
2.50581
2.4915
2.47709
2.46221
2.44508
2.41922
2.3702
2.29078
2.23106
2.20908
2.19521
2.18219
2.16929
2.15545
2.13973
2.1241
2.10915
2.09295
2.06846
2.02787
1.98462
1.95528
1.93446
1.91446
1.8914
1.86556
1.84294
1.82691
1.8157
1.80653
1.80246
1.80292
1.80371
1.82126
1.85679
1.94297
2.08876
2.25168
2.37568
2.44306
2.5364
2.59942
2.60763
2.61018
2.60905
2.5841
2.52886
2.4934
2.48725
2.48599
2.48779
2.49739
2.5013
2.49417
2.48537
2.473
2.44299
2.31382
2.33802
2.52343
2.84197
3.21538
3.33724
3.33016
3.30013
3.2304
3.11284
3.06341
3.00927
2.95528
2.90715
2.92839
3.07348
3.5482
4.10846
4.49191
4.5718
4.58139
4.5696
4.50334
4.38779
4.25043
4.13394
4.05685
3.9881
3.91902
3.85491
3.79623
3.78577
3.83509
3.96725
4.14023
4.2911
4.31876
4.27376
4.20006
4.11809
4.04213
3.96793
3.88924
3.81072
3.74527
3.69768
3.65917
3.62227
3.58408
3.54059
3.4841
3.40464
3.31154
3.24288
3.20242
3.17233
3.1443
3.11577
3.08622
3.05458
3.01737
2.97082
2.91442
2.8545
2.80291
2.76244
2.72958
2.70234
2.67745
2.64625
2.59705
2.54224
2.51413
2.49736
2.48084
2.46317
2.44427
2.42439
2.39725
2.34395
2.27307
2.23099
2.21118
2.19576
2.18089
2.16541
2.14821
2.13041
2.11409
2.09506
2.07021
2.0429
2.01056
1.97817
1.95228
1.9295
1.90407
1.87586
1.84873
1.82834
1.81445
1.80248
1.79445
1.7888
1.78283
1.77954
1.76276
1.74104
1.75879
1.82488
1.97105
2.14125
2.30933
2.43003
2.48158
2.53359
2.54088
2.53252
2.5107
2.49645
2.48716
2.48114
2.47964
2.48945
2.48743
2.47664
2.46173
2.44312
2.41356
2.33137
2.31387
2.34597
2.52413
2.92816
3.30077
3.33277
3.31495
3.27154
3.18184
3.12503
3.06265
3.0516
3.16027
3.53953
4.1416
4.64596
4.90535
4.90455
4.79909
4.64924
4.55951
4.51695
4.46668
4.36978
4.23111
4.10964
4.01961
3.96476
3.93299
3.92307
3.97372
4.1121
4.288
4.40612
4.44117
4.3937
4.3227
4.24946
4.18355
4.12358
4.05781
3.97408
3.86556
3.77727
3.73316
3.69572
3.6578
3.61937
3.57849
3.53096
3.46889
3.38624
3.30058
3.23979
3.20045
3.16851
3.13677
3.10315
3.06957
3.0376
3.00352
2.9599
2.90075
2.83554
2.78558
2.75227
2.72606
2.69992
2.66777
2.62256
2.56674
2.52725
2.50627
2.48964
2.47306
2.45568
2.43569
2.40914
2.36942
2.31036
2.26014
2.23424
2.21636
2.19884
2.1795
2.15755
2.13265
2.10824
2.09149
2.0792
2.05976
2.03017
1.99934
1.97004
1.94437
1.91987
1.8923
1.86222
1.83938
1.82483
1.8131
1.80301
1.79346
1.78435
1.77569
1.76149
1.73642
1.69996
1.68731
1.70235
1.76768
1.87684
2.03792
2.1916
2.35693
2.43141
2.43541
2.44887
2.44863
2.44332
2.44693
2.47249
2.48587
2.48198
2.47067
2.45317
2.43138
2.39841
2.36491
2.32015
2.32182
2.37411
2.59695
3.08112
3.27022
3.31423
3.28939
3.23508
3.18637
3.25427
3.58487
4.19859
4.77343
5.0035
5.00807
5.00441
4.96653
4.8936
4.76732
4.63066
4.55672
4.50774
4.42674
4.30019
4.17379
4.08159
4.03954
4.04872
4.12232
4.27945
4.49798
4.58198
4.57272
4.5155
4.42875
4.35507
4.29439
4.24555
4.20011
4.1436
4.05641
3.92207
3.81028
3.76216
3.72487
3.68746
3.64973
3.61174
3.57128
3.52149
3.45487
3.3733
3.29225
3.23107
3.18833
3.15181
3.11576
3.08272
3.05512
3.02921
2.99571
2.94216
2.87164
2.81295
2.77701
2.74996
2.72357
2.69243
2.64908
2.59498
2.54925
2.52002
2.49895
2.48042
2.46293
2.44675
2.42894
2.39784
2.33947
2.27833
2.24752
2.22999
2.21377
2.19534
2.17339
2.14902
2.12399
2.098
2.0753
2.06268
2.0465
2.02162
1.99402
1.96706
1.9382
1.90789
1.88496
1.86967
1.85532
1.84217
1.82989
1.81742
1.80401
1.78784
1.7699
1.74559
1.711
1.67866
1.66232
1.65884
1.66808
1.70784
1.78542
1.90841
2.05728
2.21111
2.35075
2.36317
2.36745
2.39191
2.41157
2.42603
2.43852
2.44226
2.4361
2.41948
2.38898
2.40464
2.35452
2.34088
2.35662
2.42613
2.70663
3.04465
3.23655
3.2816
3.33981
3.60268
4.21401
4.90966
5.35845
5.46948
5.39316
5.19233
4.99627
4.94467
4.90749
4.8472
4.74432
4.63416
4.53791
4.43877
4.32623
4.22552
4.16515
4.14664
4.21989
4.42003
4.66662
4.7994
4.7811
4.67816
4.55289
4.45175
4.38578
4.33546
4.29582
4.25493
4.20437
4.12525
3.99648
3.8616
3.7899
3.74717
3.70876
3.67007
3.62992
3.59119
3.55182
3.50387
3.44121
3.36479
3.2807
3.21173
3.16754
3.13399
3.10059
3.06587
3.0327
3.00186
2.96504
2.91269
2.85946
2.81552
2.7763
2.73892
2.70235
2.66264
2.61567
2.57428
2.5452
2.52217
2.50098
2.47958
2.4566
2.43085
2.40034
2.36235
2.31632
2.27225
2.24113
2.2185
2.20158
2.18803
2.17248
2.14986
2.12016
2.08623
2.0522
2.02968
2.01225
1.99825
1.98405
1.96679
1.94352
1.91006
1.87356
1.84897
1.83206
1.81738
1.80439
1.79288
1.78135
1.76813
1.75619
1.73805
1.70433
1.66824
1.6502
1.64432
1.64103
1.6441
1.66064
1.7126
1.81219
1.96603
2.09992
2.23822
2.34014
2.3498
2.36755
2.38256
2.37818
2.37572
2.37293
2.3743
2.43901
2.4063
2.3939
2.38896
2.39716
2.46752
2.72035
3.03952
3.44316
4.09949
4.9072
5.44261
5.58144
5.59653
5.57312
5.47834
5.30961
5.09278
4.96957
4.92386
4.89113
4.83258
4.72787
4.5951
4.4661
4.34228
4.27637
4.27256
4.33315
4.5339
4.8174
4.96089
4.95689
4.88875
4.74538
4.58769
4.48049
4.41948
4.37187
4.33335
4.2931
4.2434
4.17193
4.06826
3.94419
3.83847
3.77275
3.72944
3.69493
3.66221
3.62599
3.5842
3.53769
3.48502
3.42534
3.35079
3.25988
3.18665
3.14821
3.12322
3.09932
3.06943
3.02612
2.97531
2.93225
2.89524
2.86003
2.8211
2.77319
2.716
2.65982
2.62052
2.59321
2.56951
2.54586
2.52156
2.49558
2.4683
2.4425
2.41673
2.38256
2.3398
2.29947
2.26936
2.24571
2.22252
2.20143
2.18463
2.16691
2.14032
2.09962
2.05123
2.0276
2.01832
2.01002
1.99985
1.98622
1.966
1.93237
1.88716
1.85533
1.83549
1.81858
1.80439
1.79342
1.7845
1.77711
1.76971
1.7592
1.7365
1.68957
1.65402
1.63905
1.62998
1.62555
1.62489
1.6241
1.63134
1.66316
1.7426
1.86185
2.00066
2.1209
2.25571
2.31869
2.31845
2.32577
2.33272
2.33068
2.47884
2.46674
2.45765
2.44192
2.41758
2.43178
2.56007
3.21716
4.29594
5.18552
5.81136
6.0259
5.89163
5.66666
5.53649
5.46088
5.35172
5.1838
5.02882
4.94567
4.90712
4.86395
4.78552
4.66117
4.52058
4.39269
4.371
4.43454
4.63759
4.92651
5.10836
5.09874
5.04573
4.93263
4.78229
4.6332
4.52371
4.45176
4.39897
4.35286
4.30879
4.25787
4.19311
4.11315
4.02301
3.92859
3.83865
3.7658
3.70691
3.65386
3.60359
3.55949
3.5253
3.49429
3.45813
3.40611
3.33093
3.24829
3.18729
3.14429
3.10265
3.05592
3.00815
2.96368
2.93276
2.91094
2.88836
2.86007
2.81639
2.74898
2.67563
2.63014
2.60731
2.58886
2.5682
2.54362
2.51691
2.48843
2.45504
2.41564
2.37405
2.33463
2.30716
2.28839
2.27125
2.25013
2.22472
2.20094
2.18174
2.16245
2.12403
2.07318
2.0405
2.0251
2.01489
2.00722
1.9996
1.98767
1.9571
1.90215
1.86303
1.84706
1.83438
1.82247
1.81534
1.80994
1.80352
1.79472
1.782
1.76043
1.72389
1.67988
1.64609
1.63021
1.62251
1.6157
1.60942
1.6031
1.60094
1.60406
1.62269
1.67336
1.75008
1.87642
2.02201
2.13914
2.23957
2.31128
2.30655
2.53399
2.52548
2.52234
2.50445
2.54916
2.78615
3.35928
4.04119
4.76626
5.33468
5.73954
6.01323
5.96953
5.79393
5.57986
5.4497
5.34389
5.21545
5.08256
4.97499
4.90351
4.85619
4.79429
4.70346
4.59788
4.51033
4.55909
4.7607
5.0192
5.22898
5.2456
5.19442
5.09891
4.96942
4.82453
4.68441
4.5754
4.49866
4.43368
4.37446
4.3217
4.26597
4.20223
4.13565
4.07184
4.00359
3.91873
3.82015
3.7331
3.66405
3.60528
3.56116
3.52946
3.49995
3.46769
3.42929
3.37854
3.31067
3.23452
3.17316
3.1218
3.06442
3.0035
2.96978
2.95058
2.93096
2.90741
2.87611
2.83613
2.77764
2.71002
2.65938
2.62308
2.59863
2.58197
2.56379
2.53726
2.50512
2.46432
2.41853
2.3816
2.35773
2.33453
2.30293
2.27654
2.26346
2.25191
2.23416
2.20327
2.15501
2.11157
2.08147
2.0607
2.04458
2.03104
2.01827
2.0034
1.98526
1.95883
1.92065
1.88458
1.85806
1.83533
1.81496
1.80089
1.79328
1.78657
1.77846
1.76727
1.75228
1.73361
1.70164
1.66008
1.63537
1.62338
1.6138
1.60382
1.59359
1.58845
1.58591
1.58432
1.57595
1.5667
1.58481
1.65959
1.78654
1.93121
2.07501
2.22515
2.59718
2.59341
2.62109
2.79489
3.27373
3.89019
4.32975
4.44828
4.62489
4.95658
5.28482
5.68353
5.81536
5.75658
5.61655
5.45952
5.33842
5.23149
5.12741
5.01922
4.92735
4.85447
4.79189
4.74876
4.70001
4.71887
4.90947
5.15116
5.31799
5.35467
5.30007
5.22168
5.12091
5.00133
4.87105
4.74467
4.63686
4.55156
4.47806
4.40668
4.33876
4.2743
4.21082
4.15601
4.10929
4.05867
3.98838
3.88471
3.77293
3.69206
3.63284
3.58053
3.53896
3.50787
3.47891
3.45083
3.41708
3.36248
3.28379
3.20233
3.13674
3.08128
3.03709
3.00264
2.97073
2.9443
2.92261
2.90043
2.86186
2.79846
2.73846
2.7002
2.66635
2.62573
2.58958
2.57185
2.55787
2.53318
2.49023
2.4342
2.39632
2.37464
2.35374
2.3294
2.30558
2.28181
2.25467
2.22557
2.19294
2.14818
2.10681
2.09342
2.08597
2.07626
2.06
2.0402
2.01921
1.99427
1.96757
1.93672
1.90428
1.87478
1.84741
1.82225
1.80328
1.79179
1.78352
1.7755
1.76686
1.75775
1.74511
1.71994
1.67364
1.63291
1.61935
1.61106
1.6027
1.59376
1.58729
1.58228
1.57595
1.56544
1.54243
1.50722
1.50811
1.53292
1.60969
1.71486
1.94094
2.68692
2.80037
3.18346
3.87944
4.37214
4.65247
4.72423
4.65627
4.58258
4.62387
4.79953
5.17844
5.63678
5.72408
5.64009
5.48899
5.35994
5.26197
5.17334
5.06706
4.96975
4.87978
4.83856
4.85416
4.91875
5.12825
5.3628
5.47502
5.47256
5.39958
5.306
5.21572
5.11734
5.01504
4.91423
4.81563
4.7187
4.62154
4.52772
4.43772
4.354
4.28701
4.23173
4.18392
4.13944
4.09134
4.03076
3.93843
3.8201
3.72957
3.66895
3.61718
3.57129
3.53213
3.49502
3.45474
3.40903
3.36072
3.30741
3.23499
3.15382
3.10208
3.07154
3.04139
3.00843
2.97487
2.93698
2.89065
2.84019
2.79454
2.75778
2.72743
2.69625
2.65854
2.61907
2.58366
2.54952
2.51506
2.47595
2.43979
2.40908
2.3814
2.35679
2.34189
2.32941
2.30943
2.27772
2.23386
2.18586
2.14626
2.12663
2.11391
2.09796
2.07753
2.05232
2.02617
2.00546
1.98606
1.9625
1.93949
1.91762
1.89499
1.86942
1.83949
1.81129
1.79422
1.78562
1.77924
1.77307
1.7659
1.75823
1.73935
1.68758
1.63627
1.62242
1.61651
1.60998
1.60276
1.59671
1.59107
1.58378
1.57117
1.54023
1.50017
1.49155
1.48832
1.4901
1.50453
1.61885
3.14009
3.76927
4.47024
4.7579
4.74605
4.73976
4.72826
4.67622
4.58944
4.5376
4.55652
4.69914
5.12404
5.5114
5.55381
5.50208
5.39995
5.30812
5.22055
5.11997
5.0187
4.95996
4.95919
5.05629
5.30176
5.60872
5.68482
5.64299
5.55103
5.43096
5.31371
5.21199
5.12101
5.03859
4.96211
4.88494
4.80135
4.702
4.58444
4.46913
4.37862
4.31321
4.25858
4.21011
4.16713
4.12421
4.06572
3.97518
3.86479
3.7782
3.71683
3.66314
3.6083
3.55232
3.50348
3.46597
3.4334
3.39223
3.3345
3.26657
3.19465
3.13201
3.09188
3.07015
3.05093
3.02113
2.97231
2.90493
2.84217
2.80388
2.78056
2.75554
2.72221
2.68443
2.65055
2.61344
2.56493
2.51532
2.47457
2.44613
2.42469
2.40511
2.38676
2.36435
2.33388
2.29919
2.26387
2.2197
2.1748
2.1564
2.14732
2.1346
2.11577
2.09145
2.06239
2.02951
2.00358
1.98951
1.97745
1.96153
1.94296
1.91713
1.88375
1.8497
1.82547
1.81308
1.80557
1.7998
1.79343
1.78395
1.76533
1.73157
1.68112
1.65059
1.6436
1.63883
1.63359
1.62754
1.62113
1.61432
1.60502
1.58748
1.55091
1.50888
1.48861
1.47843
1.4736
1.47354
1.48525
4.51248
4.90393
5.10153
5.07076
4.92961
4.77487
4.69277
4.65451
4.5976
4.54093
4.49944
4.49037
4.61476
5.01126
5.3475
5.46928
5.44314
5.36855
5.28179
5.18248
5.11254
5.1102
5.21676
5.44562
5.74344
5.89903
5.879
5.76903
5.61536
5.46687
5.33771
5.23009
5.14191
5.06769
4.99833
4.93086
4.85609
4.76294
4.63982
4.51576
4.42407
4.35737
4.29988
4.24284
4.18029
4.1161
4.04424
3.96305
3.89308
3.83426
3.77828
3.71773
3.6531
3.58891
3.5303
3.47952
3.43048
3.37462
3.30409
3.24727
3.21405
3.17991
3.14327
3.10256
3.05878
3.00854
2.94552
2.88288
2.84496
2.82477
2.80413
2.78164
2.75435
2.71651
2.66669
2.60426
2.53871
2.49404
2.47317
2.45837
2.44273
2.42682
2.41005
2.38913
2.35933
2.31495
2.25822
2.20874
2.18451
2.17387
2.15968
2.13983
2.1168
2.09342
2.06874
2.04384
2.01826
1.98875
1.96015
1.93761
1.92119
1.91011
1.89647
1.87627
1.84795
1.81429
1.79165
1.77995
1.77115
1.76238
1.75001
1.72547
1.69178
1.66275
1.63934
1.62854
1.62227
1.61569
1.60856
1.60101
1.59139
1.57499
1.5419
1.50136
1.48398
1.47752
1.4718
1.46812
1.4628
5.28119
5.20967
5.14612
5.07452
4.98305
4.87726
4.76912
4.69174
4.63314
4.58354
4.52489
4.43184
4.40567
4.53457
4.88565
5.23052
5.40597
5.41003
5.35872
5.27416
5.2693
5.39694
5.64594
5.89638
6.01134
6.01041
5.95569
5.83615
5.67714
5.51833
5.37309
5.24909
5.17025
5.12213
5.07089
5.00593
4.92184
4.80974
4.68263
4.57144
4.48236
4.40513
4.33626
4.27137
4.20057
4.12272
4.05023
3.97072
3.90468
3.86203
3.82064
3.76784
3.69813
3.63139
3.57634
3.51644
3.4503
3.38398
3.31992
3.26387
3.22441
3.20043
3.17815
3.14772
3.09452
3.01849
2.93691
2.88888
2.86524
2.84082
2.81305
2.78906
2.76948
2.74766
2.70062
2.60874
2.52842
2.49793
2.48175
2.46557
2.44976
2.43359
2.41499
2.39052
2.35186
2.28928
2.22783
2.20658
2.19751
2.18532
2.16924
2.14863
2.12418
2.10473
2.09282
2.07839
2.04837
2.00014
1.9583
1.93424
1.91762
1.90522