/*--------------------------------*- C++ -*----------------------------------*\
  =========                 |
  \\      /  F ield         | OpenFOAM: The Open Source CFD Toolbox
   \\    /   O peration     | Website:  https://openfoam.org
    \\  /    A nd           | Version:  7
     \\/     M anipulation  |
\*---------------------------------------------------------------------------*/
FoamFile
{
    version     2.0;
    format      ascii;
    class       volScalarField;
    location    "4";
    object      T;
}
// * * * * * * * * * * * * * * * * * * * * * * * * * * * * * * * * * * * * * //

dimensions      [0 0 0 1 0 0 0];

internalField   nonuniform List<scalar> 
4128
(
1.75934
1.74887
1.7442
1.7359
1.72562
1.71101
1.70085
1.69356
1.68301
1.67166
1.65795
1.65141
1.64395
1.63279
1.61894
1.60508
1.60068
1.59432
1.58488
1.57194
1.56446
1.55875
1.54879
1.53541
1.52013
1.51326
1.50818
1.50091
1.48977
1.48365
1.48156
1.47571
1.46595
1.45242
1.44055
1.43352
1.42761
1.42392
1.43151
1.50144
1.66725
1.76535
1.78451
1.77684
1.76516
1.75682
1.75153
1.76338
1.78572
1.80082
1.79709
1.79262
1.78084
1.76327
1.74208
1.72407
1.7096
1.69651
1.68439
1.6733
1.66075
1.6462
1.64848
1.67309
1.73007
1.80515
1.86425
1.91123
1.9218
1.92834
1.93095
1.92612
1.9175
1.90453
1.891
1.8808
1.87211
1.86549
1.86122
1.85667
1.85012
1.84235
1.83419
1.82804
1.82369
1.82008
1.81645
1.81157
1.80655
1.80198
1.79697
1.78996
1.78064
1.77318
1.76946
1.76866
1.76951
1.76997
1.76904
1.76683
1.76272
1.75676
1.74867
1.73829
1.73031
1.72737
1.72567
1.72433
1.72536
1.72785
1.72743
1.72571
1.72314
1.71791
1.70789
1.69623
1.69165
1.69049
1.68929
1.68911
1.69175
1.6916
1.69033
1.68762
1.68127
1.67048
1.66276
1.66097
1.6588
1.75025
1.74139
1.73627
1.72765
1.71714
1.70297
1.69541
1.68776
1.67744
1.66575
1.65271
1.64718
1.63925
1.62854
1.61534
1.60387
1.59962
1.5929
1.58332
1.56981
1.56202
1.55567
1.54571
1.53179
1.51753
1.51383
1.50955
1.50237
1.49143
1.48471
1.48194
1.47533
1.46448
1.45059
1.43984
1.43305
1.43279
1.44744
1.51945
1.69594
1.79435
1.79852
1.79532
1.7827
1.76632
1.75636
1.7619
1.78784
1.80127
1.79943
1.79422
1.78654
1.77143
1.7542
1.73405
1.71509
1.69956
1.68603
1.67267
1.65866
1.64372
1.6311
1.6214
1.60998
1.60525
1.62031
1.66271
1.73387
1.79661
1.84229
1.87678
1.87737
1.87835
1.87866
1.87172
1.86261
1.85417
1.84648
1.83995
1.83302
1.82555
1.81846
1.81171
1.80659
1.80285
1.79918
1.7951
1.78999
1.78453
1.77965
1.77516
1.77027
1.76371
1.75515
1.7478
1.74418
1.7426
1.74246
1.74456
1.74543
1.74326
1.73969
1.73513
1.72894
1.71911
1.70845
1.70369
1.70152
1.69965
1.69961
1.70352
1.70609
1.70539
1.70305
1.69795
1.68739
1.67464
1.66984
1.66851
1.66746
1.66699
1.66977
1.67162
1.67067
1.66817
1.66195
1.65056
1.64355
1.6404
1.74192
1.73475
1.72868
1.71955
1.70815
1.69506
1.68944
1.68167
1.67206
1.6598
1.64818
1.64332
1.63475
1.62437
1.61125
1.60221
1.59814
1.59055
1.58043
1.56671
1.55797
1.55144
1.54192
1.52966
1.51765
1.51445
1.51023
1.50268
1.4912
1.48423
1.48076
1.47327
1.46245
1.44936
1.43895
1.43999
1.4646
1.55924
1.70222
1.82378
1.82299
1.80429
1.78409
1.7681
1.75906
1.76231
1.78117
1.81731
1.81591
1.80697
1.79318
1.77492
1.75567
1.73888
1.72372
1.70943
1.6952
1.68167
1.66755
1.65323
1.63832
1.62248
1.60814
1.59642
1.5874
1.57929
1.57124
1.5768
1.6055
1.65446
1.72032
1.77055
1.80826
1.83388
1.83151
1.83187
1.83144
1.82578
1.82043
1.81332
1.80456
1.79694
1.79039
1.78599
1.78231
1.77741
1.77208
1.76751
1.76299
1.7593
1.75563
1.75225
1.74884
1.74314
1.7328
1.72219
1.71777
1.71607
1.71523
1.7175
1.72142
1.72151
1.71953
1.71577
1.70994
1.69833
1.68514
1.68004
1.67809
1.67678
1.67738
1.68338
1.68701
1.68626
1.68364
1.67779
1.66513
1.65229
1.64871
1.64755
1.64684
1.64761
1.65146
1.65322
1.65229
1.64959
1.6419
1.63024
1.62312
1.73488
1.72911
1.72166
1.71189
1.69953
1.68811
1.68352
1.67589
1.66678
1.65364
1.6443
1.63942
1.63025
1.62042
1.6076
1.60076
1.59592
1.58712
1.57629
1.56165
1.5542
1.54817
1.53949
1.52819
1.518
1.51536
1.51033
1.502
1.4904
1.48326
1.47824
1.46991
1.46045
1.44854
1.44923
1.47865
1.60501
1.74196
1.82883
1.82622
1.80377
1.78128
1.76723
1.7573
1.76375
1.77971
1.81317
1.83482
1.82866
1.80634
1.78172
1.76061
1.74168
1.72756
1.71555
1.70404
1.69266
1.67952
1.66568
1.65192
1.63646
1.62007
1.60467
1.59144
1.58004
1.56888
1.55851
1.54995
1.54142
1.5374
1.54974
1.58689
1.64001
1.70588
1.74886
1.77864
1.79332
1.79085
1.79012
1.78794
1.78517
1.78075
1.77504
1.76912
1.7628
1.75491
1.74731
1.74391
1.74087
1.73847
1.73678
1.7354
1.7335
1.73012
1.72251
1.70795
1.69689
1.69369
1.69225
1.69142
1.69361
1.70017
1.70145
1.69936
1.69557
1.68873
1.67415
1.66128
1.65774
1.65633
1.65565
1.65837
1.66577
1.66771
1.66636
1.66338
1.65575
1.64044
1.63045
1.62835
1.62738
1.6285
1.63503
1.63785
1.63666
1.6347
1.63054
1.62154
1.60871
1.72942
1.72413
1.71498
1.70481
1.69157
1.68259
1.67849
1.67077
1.6615
1.64789
1.64045
1.63504
1.626
1.61643
1.60425
1.59912
1.593
1.58309
1.57151
1.55634
1.55011
1.54515
1.53757
1.52784
1.51909
1.51545
1.50956
1.50045
1.48846
1.48189
1.47456
1.46734
1.45856
1.46288
1.50569
1.6401
1.79335
1.82959
1.82281
1.80273
1.78067
1.77012
1.76184
1.76472
1.78204
1.80912
1.83629
1.834
1.82118
1.7997
1.77334
1.75053
1.73396
1.72121
1.70971
1.69794
1.68544
1.6724
1.65922
1.64598
1.63226
1.61803
1.60384
1.5909
1.57853
1.56621
1.55393
1.54223
1.53069
1.52131
1.5154
1.51013
1.51306
1.53391
1.57911
1.63012
1.68338
1.7169
1.74119
1.7522
1.75427
1.75958
1.76023
1.75464
1.7463
1.73569
1.72533
1.71816
1.71396
1.71252
1.71565
1.71817
1.71729
1.71419
1.70957
1.69945
1.68268
1.67319
1.6708
1.6695
1.66974
1.6751
1.6814
1.68112
1.6785
1.67458
1.66518
1.64826
1.63864
1.63645
1.6355
1.63679
1.64472
1.65022
1.64918
1.64682
1.64203
1.63112
1.61619
1.61038
1.60942
1.60923
1.61258
1.61749
1.61729
1.6167
1.61572
1.61142
1.59828
1.72412
1.7182
1.70819
1.69807
1.68457
1.67878
1.67442
1.66619
1.65646
1.64295
1.63676
1.63071
1.62213
1.61215
1.60143
1.59699
1.58929
1.57882
1.56604
1.55165
1.54844
1.54392
1.53646
1.52689
1.51872
1.51469
1.50799
1.49839
1.48751
1.47902
1.47214
1.46748
1.4773
1.55421
1.6855
1.8292
1.84656
1.82823
1.81012
1.78711
1.77239
1.76641
1.76739
1.77645
1.80563
1.83134
1.83377
1.82606
1.81042
1.79164
1.7708
1.74772
1.72945
1.71478
1.70147
1.68907
1.67684
1.66456
1.65263
1.64095
1.62905
1.61655
1.60362
1.5908
1.57831
1.56596
1.553
1.53998
1.52759
1.51645
1.50731
1.49918
1.49411
1.4891
1.48473
1.49003
1.51298
1.55429
1.60189
1.65141
1.6861
1.72071
1.72683
1.72659
1.72555
1.71966
1.71023
1.69958
1.69304
1.69097
1.69317
1.69955
1.69947
1.69691
1.69401
1.68711
1.67109
1.6556
1.65178
1.65062
1.65067
1.65516
1.6617
1.6626
1.66055
1.65743
1.65193
1.63901
1.62309
1.61732
1.61624
1.61621
1.62038
1.62765
1.62898
1.62757
1.62505
1.61987
1.60829
1.59586
1.5931
1.59288
1.59414
1.59841
1.60078
1.60004
1.59913
1.59769
1.59079
1.71759
1.71008
1.70064
1.6906
1.67888
1.67582
1.67064
1.66232
1.65202
1.63897
1.6336
1.62673
1.61845
1.60781
1.59895
1.59428
1.58523
1.57473
1.56046
1.54953
1.548
1.54304
1.53553
1.52574
1.51756
1.51312
1.50545
1.49583
1.48543
1.47673
1.47745
1.49427
1.59151
1.74439
1.84025
1.867
1.85439
1.82646
1.79742
1.77767
1.76473
1.7659
1.77242
1.79643
1.8292
1.83441
1.83024
1.82101
1.80395
1.78504
1.76686
1.74704
1.72664
1.70965
1.69531
1.68213
1.66962
1.65789
1.6467
1.63533
1.62377
1.61189
1.59991
1.5884
1.57734
1.56579
1.55349
1.54065
1.52813
1.5166
1.50604
1.49595
1.48748
1.47915
1.47109
1.46592
1.46007
1.45458
1.46145
1.49055
1.53785
1.59217
1.63827
1.66745
1.68771
1.69042
1.68874
1.68381
1.6781
1.67295
1.67393
1.6794
1.68151
1.67922
1.67601
1.67042
1.65852
1.6432
1.63603
1.63458
1.63437
1.63813
1.6437
1.64408
1.6414
1.63886
1.63588
1.62905
1.61493
1.60212
1.59881
1.5985
1.59975
1.60443
1.60984
1.61139
1.61012
1.60702
1.60066
1.58931
1.58026
1.57891
1.57897
1.57961
1.58178
1.58463
1.58449
1.584
1.5808
1.70881
1.70054
1.69309
1.68304
1.67555
1.67328
1.66678
1.65889
1.64724
1.63585
1.63077
1.62293
1.61483
1.60382
1.59651
1.59112
1.58144
1.57101
1.55582
1.54969
1.54831
1.54224
1.53446
1.52358
1.51568
1.51098
1.50264
1.49418
1.48529
1.48725
1.52532
1.62898
1.78497
1.86325
1.86148
1.85104
1.82983
1.80571
1.78636
1.77304
1.76387
1.76806
1.78756
1.82167
1.84044
1.83524
1.82545
1.8104
1.7922
1.77384
1.75688
1.74004
1.72298
1.70705
1.69239
1.67866
1.66576
1.65368
1.64211
1.63032
1.6181
1.60597
1.59466
1.58443
1.57489
1.56512
1.55413
1.54172
1.52868
1.51676
1.50599
1.49582
1.48589
1.47639
1.46773
1.45953
1.45085
1.44324
1.43511
1.42789
1.42988
1.44416
1.48064
1.52522
1.57608
1.61118
1.6323
1.65151
1.65392
1.65256
1.65646
1.66193
1.66584
1.66411
1.66073
1.65434
1.64448
1.63314
1.62403
1.61984
1.61884
1.61918
1.62138
1.6234
1.62376
1.6214
1.61851
1.61492
1.60849
1.5979
1.58825
1.58473
1.58388
1.58391
1.58567
1.58917
1.59136
1.59077
1.58918
1.58551
1.57723
1.5686
1.56597
1.56511
1.56429
1.5642
1.56573
1.56659
1.56717
1.70232
1.69459
1.68758
1.67703
1.67375
1.67037
1.66282
1.65507
1.6418
1.6336
1.62768
1.61908
1.61126
1.60015
1.59401
1.58792
1.57833
1.56788
1.55361
1.55072
1.54831
1.54118
1.53288
1.52042
1.51457
1.50774
1.50126
1.49586
1.50418
1.56965
1.70168
1.81152
1.87919
1.877
1.85978
1.83458
1.81101
1.79325
1.78391
1.7732
1.77317
1.78785
1.81756
1.84303
1.84093
1.82977
1.8141
1.79617
1.77831
1.76186
1.74659
1.73221
1.71873
1.70523
1.69112
1.67697
1.66325
1.65002
1.63728
1.62487
1.61286
1.60146
1.59078
1.58096
1.57182
1.56274
1.55281
1.54131
1.52824
1.51546
1.50438
1.49481
1.48551
1.47615
1.46739
1.45879
1.45006
1.44075
1.4301
1.41935
1.41385
1.40942
1.40931
1.41527
1.43307
1.47085
1.51112
1.54872
1.58375
1.60935
1.62358
1.63422
1.64213
1.64643
1.64605
1.64157
1.6345
1.62677
1.61778
1.6077
1.60092
1.59895
1.59841
1.59801
1.59977
1.60269
1.60194
1.59995
1.59839
1.59589
1.58972
1.57874
1.57106
1.56839
1.56715
1.56666
1.56883
1.57392
1.57558
1.57534
1.57338
1.56652
1.5566
1.55251
1.5511
1.55076
1.55093
1.55263
1.55255
1.70202
1.69406
1.68377
1.67331
1.67143
1.6662
1.65898
1.64989
1.63744
1.63159
1.62364
1.61531
1.6074
1.59626
1.59133
1.58471
1.57558
1.56556
1.55365
1.55167
1.54763
1.53987
1.53001
1.51772
1.5124
1.50576
1.50768
1.5325
1.61804
1.77393
1.85479
1.87522
1.87077
1.85231
1.83381
1.81386
1.79632
1.78657
1.78376
1.7853
1.79409
1.82333
1.84801
1.84604
1.83543
1.81914
1.80106
1.78328
1.76722
1.75289
1.73953
1.72686
1.71444
1.70163
1.68814
1.67427
1.66043
1.64674
1.63323
1.62019
1.60818
1.59737
1.58733
1.57767
1.56831
1.55918
1.54984
1.53952
1.52769
1.51521
1.5038
1.49379
1.48435
1.47516
1.46632
1.4576
1.44936
1.44049
1.42974
1.41834
1.40844
1.40294
1.39909
1.39734
1.39676
1.39621
1.40089
1.41559
1.44437
1.48601
1.52573
1.5543
1.57952
1.60136
1.61576
1.62219
1.62369
1.62274
1.61638
1.60654
1.59473
1.58497
1.57895
1.57618
1.57541
1.5774
1.58428
1.58748
1.58764
1.58794
1.5855
1.577
1.56215
1.55312
1.55073
1.54983
1.55007
1.55455
1.56283
1.5659
1.5652
1.56103
1.55178
1.54096
1.53703
1.53656
1.53647
1.53753
1.53974
1.70276
1.69475
1.68323
1.67232
1.66845
1.66202
1.65531
1.64445
1.63571
1.62867
1.61882
1.61212
1.60268
1.59278
1.58904
1.58167
1.57334
1.56421
1.55463
1.5523
1.5459
1.53774
1.52543
1.5161
1.51319
1.52136
1.57829
1.69186
1.82211
1.895
1.89042
1.88184
1.86106
1.83569
1.8142
1.79732
1.78494
1.78181
1.78868
1.80046
1.82833
1.85717
1.85431
1.84514
1.82906
1.80945
1.79069
1.77401
1.75951
1.74653
1.73417
1.7219
1.70941
1.69644
1.68306
1.66982
1.65704
1.64451
1.63164
1.61814
1.60505
1.59357
1.58343
1.57387
1.56448
1.55511
1.54557
1.53556
1.52478
1.51352
1.50295
1.49328
1.48401
1.47485
1.46567
1.45678
1.44839
1.43952
1.42823
1.41649
1.40899
1.40332
1.39739
1.39251
1.38861
1.38522
1.38426
1.37961
1.3674
1.36749
1.38366
1.42309
1.46749
1.50988
1.54082
1.57214
1.59888
1.60323
1.60386
1.60126
1.59379
1.58285
1.57094
1.56235
1.55914
1.55867
1.56134
1.56995
1.57622
1.57625
1.57449
1.56869
1.55505
1.54168
1.538
1.53717
1.53753
1.54129
1.54679
1.55017
1.55014
1.54928
1.54371
1.5317
1.52309
1.52179
1.52173
1.52408
1.52725
1.7003
1.69538
1.68515
1.67228
1.66515
1.65906
1.65143
1.64138
1.63366
1.62384
1.61523
1.60931
1.59723
1.59159
1.58758
1.57862
1.57175
1.56343
1.55589
1.55136
1.54324
1.53425
1.52243
1.52234
1.54128
1.6316
1.77853
1.86569
1.90089
1.89286
1.87859
1.86315
1.84451
1.82444
1.80374
1.79176
1.78262
1.78581
1.79867
1.82483
1.86266
1.86293
1.85562
1.84027
1.82022
1.80067
1.78331
1.76774
1.75347
1.74017
1.72751
1.71503
1.70247
1.68986
1.6774
1.66546
1.65415
1.64285
1.63055
1.61658
1.6021
1.58942
1.579
1.56983
1.56114
1.55248
1.54348
1.53374
1.52306
1.51202
1.5018
1.49238
1.48319
1.47402
1.46497
1.45642
1.44803
1.4389
1.42786
1.41629
1.40956
1.40428
1.39872
1.39304
1.38738
1.38249
1.37871
1.37479
1.36723
1.35047
1.33768
1.33872
1.34846
1.37672
1.42054
1.46605
1.51361
1.54558
1.57357
1.57961
1.57749
1.5748
1.56762
1.55578
1.548
1.54816
1.55142
1.55711
1.56088
1.56013
1.55844
1.55518
1.54685
1.53372
1.52794
1.52702
1.5272
1.53105
1.53706
1.5379
1.53715
1.53548
1.53109
1.52204
1.513
1.50913
1.50852
1.51079
1.5161
1.67719
1.691
1.68508
1.67324
1.66401
1.65632
1.64665
1.63821
1.62968
1.62
1.61442
1.60509
1.59473
1.592
1.58517
1.57586
1.5711
1.56273
1.55688
1.54847
1.53966
1.53259
1.53748
1.58787
1.69773
1.83804
1.89784
1.92114
1.91803
1.89626
1.86772
1.8455
1.82844
1.8103
1.79521
1.79002
1.78821
1.79665
1.82377
1.85689
1.87031
1.86415
1.85095
1.83264
1.81274
1.79418
1.77799
1.76318
1.74877
1.73466
1.72112
1.708
1.69507
1.68263
1.6713
1.66105
1.65128
1.64107
1.62917
1.61429
1.59768
1.58393
1.57414
1.56601
1.55823
1.55031
1.54189
1.53249
1.52175
1.51036
1.49993
1.49087
1.4823
1.47369
1.46526
1.45712
1.44862
1.43815
1.42374
1.41363
1.40962
1.40569
1.40101
1.3956
1.38996
1.38446
1.37923
1.37437
1.36719
1.35185
1.33466
1.32801
1.32382
1.32237
1.32782
1.3441
1.38044
1.4286
1.4764
1.51497
1.52954
1.54325
1.54775
1.5436
1.54055
1.54321
1.54578
1.54825
1.55136
1.55063
1.54879
1.54477
1.536
1.525
1.51965
1.51825
1.51898
1.52224
1.5252
1.52509
1.52431
1.52286
1.51973
1.51411
1.50677
1.50128
1.49903
1.49871
1.50013
1.63108
1.66419
1.67713
1.67385
1.6657
1.65381
1.64211
1.6339
1.62513
1.61928
1.61363
1.60147
1.59661
1.592
1.58153
1.5754
1.57101
1.56202
1.55562
1.54477
1.54396
1.56189
1.65357
1.79272
1.88576
1.91365
1.90802
1.90503
1.89726
1.88267
1.85958
1.83623
1.8176
1.80141
1.78986
1.79051
1.79784
1.82527
1.85945
1.87431
1.86926
1.85697
1.84027
1.82215
1.80433
1.78791
1.77306
1.75894
1.74483
1.7305
1.7161
1.70179
1.68797
1.67573
1.66556
1.65655
1.64782
1.63861
1.62759
1.61274
1.59423
1.57889
1.56972
1.56258
1.55549
1.54808
1.54002
1.5308
1.51998
1.50839
1.49796
1.48936
1.48179
1.47477
1.46828
1.46178
1.45414
1.44278
1.42534
1.41129
1.40547
1.40116
1.39663
1.39304
1.39047
1.38667
1.38291
1.37892
1.37285
1.36048
1.34059
1.32588
1.31968
1.31695
1.3152
1.31169
1.31185
1.32003
1.34052
1.37839
1.4278
1.46957
1.49254
1.50549
1.51864
1.52561
1.53005
1.53677
1.54177
1.54244
1.54112
1.53672
1.52798
1.51955
1.51333
1.50894
1.50736
1.50728
1.50745
1.50812
1.50861
1.50866
1.50859
1.50716
1.50439
1.50023
1.49505
1.49167
1.48938
1.5433
1.62075
1.65287
1.66907
1.66516
1.6528
1.63995
1.63047
1.62362
1.6196
1.61041
1.60242
1.59891
1.58989
1.57921
1.57653
1.56973
1.56201
1.55421
1.56123
1.61307
1.72713
1.87163
1.92483
1.94328
1.9351
1.91169
1.88828
1.87281
1.86171
1.84822
1.83068
1.81352
1.80014
1.79392
1.80048
1.82492
1.86417
1.88359
1.87909
1.865
1.84679
1.82809
1.81077
1.79525
1.7812
1.76797
1.755
1.74187
1.72819
1.71327
1.69668
1.68061
1.66884
1.65992
1.65169
1.64362
1.63531
1.62563
1.61224
1.59378
1.57715
1.5671
1.55975
1.55283
1.54562
1.53769
1.52834
1.51732
1.50586
1.49566
1.48718
1.48046
1.47493
1.46957
1.46372
1.45675
1.44653
1.42952
1.41254
1.40463
1.40002
1.39589
1.39197
1.38783
1.38385
1.38016
1.37622
1.37162
1.3645
1.3495
1.33341
1.32433
1.31838
1.31336
1.30881
1.30556
1.30382
1.30248
1.30424
1.31627
1.34194
1.38004
1.42487
1.46194
1.47499
1.48823
1.50058
1.50866
1.51913
1.5264
1.52687
1.52373
1.51936
1.51397
1.50697
1.50108
1.49649
1.49242
1.49095
1.49081
1.49198
1.49556
1.49888
1.49914
1.49823
1.49523
1.489
1.48121
1.44348
1.54946
1.61658
1.65122
1.65931
1.65206
1.63998
1.63029
1.62525
1.61879
1.60852
1.60538
1.59862
1.58672
1.58015
1.57649
1.56853
1.56933
1.59443
1.69649
1.82055
1.92118
1.94405
1.93512
1.92659
1.9166
1.90187
1.88087
1.8607
1.84615
1.83257
1.81997
1.81193
1.80682
1.81221
1.83288
1.8681
1.89243
1.88953
1.87441
1.85481
1.835
1.8167
1.80059
1.78655
1.77401
1.76238
1.75099
1.73937
1.72695
1.71197
1.69236
1.67348
1.6622
1.65391
1.64623
1.63882
1.63138
1.62301
1.61192
1.59638
1.57911
1.5666
1.55774
1.55007
1.54261
1.53464
1.52558
1.51535
1.50464
1.49399
1.48478
1.4794
1.47484
1.47008
1.46479
1.45893
1.45057
1.43438
1.41423
1.40434
1.39943
1.39508
1.39054
1.38599
1.38222
1.37967
1.3775
1.3746
1.36838
1.35546
1.33823
1.32795
1.32295
1.31848
1.31354
1.30805
1.30144
1.29563
1.29258
1.2914
1.29223
1.29769
1.31252
1.33885
1.37328
1.41151
1.44479
1.46042
1.47601
1.48951
1.49929
1.51125
1.51482
1.51333
1.50829
1.50201
1.49379
1.48431
1.47907
1.4782
1.47803
1.47959
1.48421
1.48891
1.49032
1.48906
1.48408
1.47375
1.39736
1.45452
1.55001
1.61537
1.64348
1.64757
1.64176
1.63522
1.63017
1.61767
1.61032
1.60636
1.59569
1.58528
1.58292
1.57987
1.59361
1.66408
1.78656
1.90066
1.96536
1.98074
1.96685
1.93789
1.90962
1.89355
1.88305
1.87113
1.85492
1.83727
1.82009
1.81159
1.81261
1.81938
1.84186
1.87311
1.89684
1.89589
1.88439
1.86544
1.84528
1.82585
1.80788
1.79233
1.77891
1.76717
1.75668
1.74649
1.73612
1.72493
1.71088
1.69123
1.67051
1.65686
1.648
1.64067
1.63373
1.6269
1.61968
1.61084
1.59906
1.58426
1.56915
1.55722
1.54784
1.53955
1.53163
1.52349
1.51498
1.50542
1.49318
1.48317
1.4785
1.47422
1.46952
1.46455
1.45928
1.4524
1.44061
1.42137
1.40598
1.39965
1.39514
1.39054
1.38594
1.38154
1.37745
1.37382
1.37036
1.3663
1.3598
1.34877
1.3363
1.32712
1.32034
1.31394
1.30703
1.29949
1.29281
1.28781
1.28395
1.28059
1.27871
1.2784
1.27832
1.28397
1.29531
1.32127
1.36271
1.40367
1.43442
1.45309
1.4783
1.49532
1.49806
1.49864
1.4982
1.49249
1.48002
1.47155
1.47
1.46976
1.47082
1.47475
1.47658
1.47544
1.47363
1.47023
1.46289
1.39171
1.40459
1.46047
1.54099
1.61122
1.63346
1.64091
1.63991
1.63486
1.62011
1.61428
1.60501
1.59457
1.58937
1.59757
1.64257
1.76632
1.88254
1.9491
1.96203
1.96472
1.96394
1.95329
1.9315
1.90469
1.88364
1.87019
1.85758
1.84348
1.82899
1.81633
1.81644
1.82524
1.84869
1.87944
1.90036
1.89859
1.88867
1.87372
1.85662
1.83948
1.82182
1.80326
1.78585
1.7718
1.76078
1.75085
1.74096
1.73114
1.72092
1.70867
1.69181
1.67145
1.65525
1.64449
1.63632
1.62911
1.62214
1.61522
1.60786
1.59906
1.58816
1.57488
1.56053
1.54782
1.53751
1.52893
1.52167
1.51516
1.50759
1.4962
1.48313
1.47576
1.47103
1.46619
1.46084
1.45505
1.44932
1.44281
1.43049
1.41312
1.40181
1.39585
1.39096
1.38622
1.38154
1.37677
1.37214
1.36819
1.36352
1.35663
1.34894
1.33966
1.33002
1.32205
1.31492
1.30714
1.29874
1.29079
1.2847
1.28044
1.27667
1.27377
1.27145
1.26917
1.26802
1.2633
1.25606
1.26154
1.28195
1.32514
1.37304
1.41826
1.44964
1.46208
1.47441
1.47741
1.47569
1.47079
1.46704
1.46433
1.46361
1.46402
1.46764
1.46762
1.46595
1.46264
1.45767
1.45016
1.39527
1.39887
1.41069
1.4562
1.53955
1.60195
1.62486
1.63581
1.63412
1.62386
1.61611
1.60391
1.60429
1.63365
1.72917
1.86291
1.96236
1.9997
1.99712
1.97926
1.95597
1.94123
1.93204
1.92141
1.90327
1.8795
1.85919
1.84281
1.83099
1.82303
1.82202
1.83169
1.85665
1.88657
1.90558
1.90281
1.89154
1.87751
1.86346
1.84999
1.83636
1.82107
1.80302
1.78156
1.76395
1.75405
1.74462
1.73471
1.72529
1.7163
1.70664
1.69429
1.67708
1.65833
1.644
1.63381
1.6256
1.61803
1.61052
1.6033
1.59612
1.58834
1.57879
1.56536
1.54997
1.53769
1.52892
1.52184
1.51504
1.50739
1.49734
1.48458
1.47486
1.46907
1.46414
1.45915
1.45389
1.44798
1.44115
1.43233
1.41855
1.40545
1.39791
1.39248
1.38741
1.38234
1.37684
1.37056
1.3641
1.35952
1.35599
1.34942
1.34002
1.33085
1.32252
1.31512
1.30802
1.29994
1.29088
1.28364
1.27911
1.27552
1.27242
1.26947
1.26663
1.26402
1.26012
1.25295
1.24089
1.23637
1.24135
1.26238
1.29608
1.3434
1.38634
1.42972
1.44652
1.44648
1.44942
1.44951
1.44816
1.44953
1.45704
1.46132
1.46091
1.45916
1.4552
1.44921
1.44122
1.4021
1.40169
1.39879
1.40747
1.45195
1.54394
1.59012
1.6257
1.62921
1.62496
1.61884
1.63362
1.70801
1.8392
1.95276
1.99623
1.9907
1.9856
1.98017
1.97101
1.95299
1.93188
1.91723
1.90726
1.89354
1.87256
1.85104
1.83321
1.82501
1.82648
1.83993
1.86853
1.90483
1.91678
1.91161
1.89677
1.87968
1.86652
1.85551
1.84539
1.83479
1.82203
1.80512
1.78106
1.75984
1.74885
1.73953
1.72967
1.72035
1.71238
1.70492
1.69582
1.68292
1.66588
1.64793
1.63368
1.62322
1.61459
1.60657
1.59945
1.59355
1.58798
1.58066
1.56872
1.55282
1.53879
1.52975
1.52281
1.51602
1.50842
1.49847
1.48665
1.47629
1.46896
1.46309
1.45759
1.45232
1.44753
1.44237
1.43458
1.42089
1.40584
1.39735
1.392
1.38731
1.38247
1.37674
1.3706
1.36434
1.35753
1.35097
1.34669
1.34109
1.33276
1.32425
1.31664
1.3088
1.30054
1.29396
1.28939
1.28502
1.28101
1.27748
1.27401
1.27018
1.2653
1.25969
1.2525
1.24224
1.23256
1.22649
1.22452
1.22746
1.24076
1.26658
1.30548
1.34746
1.38769
1.42134
1.42382
1.42417
1.4299
1.43564
1.44066
1.44536
1.44699
1.4457
1.4413
1.4341
1.41133
1.40737
1.39682
1.38803
1.39835
1.45826
1.53558
1.59831
1.62097
1.6385
1.69624
1.81195
1.93431
2.0206
2.04162
2.02944
1.99489
1.96332
1.95683
1.95334
1.94496
1.92852
1.91003
1.89392
1.87849
1.86038
1.84321
1.82892
1.82701
1.84004
1.87577
1.91805
1.93623
1.93117
1.91103
1.8875
1.8698
1.85912
1.85036
1.84196
1.83246
1.82151
1.80703
1.78514
1.76098
1.7464
1.73613
1.72635
1.7167
1.70803
1.70074
1.69365
1.68506
1.67312
1.65704
1.63846
1.62301
1.61295
1.60554
1.5982
1.59056
1.58331
1.57618
1.56785
1.55617
1.54434
1.53402
1.52443
1.51539
1.50655
1.49752
1.48697
1.4773
1.47022
1.46423
1.45828
1.4521
1.44572
1.4386
1.43014
1.42065
1.40971
1.39885
1.39038
1.38379
1.37867
1.3749
1.37087
1.36505
1.35732
1.34772
1.33781
1.33107
1.3255
1.32066
1.31636
1.3117
1.30575
1.297
1.28682
1.27916
1.27366
1.26913
1.26539
1.26223
1.25907
1.2551
1.25128
1.24599
1.23663
1.22582
1.21971
1.21772
1.21727
1.21839
1.22388
1.24064
1.27155
1.31557
1.3518
1.38925
1.41441
1.41637
1.42028
1.42538
1.42539
1.42571
1.42551
1.42577
1.41925
1.41263
1.39828
1.38029
1.38017
1.39978
1.46714
1.55116
1.65447
1.78714
1.91469
1.99342
2.028
2.03689
2.03402
2.02007
1.99317
1.96254
1.94713
1.94175
1.93642
1.92605
1.90862
1.8885
1.87057
1.85194
1.83948
1.83474
1.84456
1.87878
1.9286
1.95039
1.94838
1.93468
1.9088
1.88205
1.86492
1.85561
1.84756
1.8395
1.83032
1.8199
1.80693
1.78977
1.76861
1.74885
1.73508
1.7252
1.71718
1.71014
1.70307
1.69515
1.68613
1.67535
1.66282
1.64721
1.6279
1.61232
1.60427
1.59908
1.59399
1.58731
1.57712
1.56512
1.55503
1.54647
1.53827
1.5294
1.5187
1.50575
1.49263
1.4831
1.47634
1.47023
1.46402
1.45742
1.45026
1.44304
1.43676
1.43048
1.42165
1.41048
1.39987
1.39117
1.38413
1.37771
1.3723
1.36799
1.36327
1.35622
1.34578
1.3329
1.32563
1.32248
1.31971
1.31642
1.31225
1.30695
1.29854
1.28633
1.27707
1.27113
1.26608
1.26196
1.25858
1.25555
1.25276
1.25002
1.2468
1.24074
1.22831
1.21848
1.21434
1.21185
1.21022
1.20923
1.20791
1.20995
1.21985
1.24483
1.28161
1.32161
1.35467
1.38957
1.40492
1.40565
1.40841
1.41148
1.41039
1.42485
1.41524
1.39692
1.37847
1.37928
1.38913
1.43559
1.60913
1.82851
1.96446
2.03693
2.07954
2.06638
2.03938
2.02058
2.0063
1.98895
1.9653
1.94635
1.93566
1.92838
1.92006
1.90668
1.88847
1.87051
1.85264
1.84431
1.85357
1.88523
1.93307
1.964
1.96207
1.95218
1.93221
1.90629
1.88192
1.86493
1.85384
1.84472
1.83538
1.82569
1.81527
1.8037
1.79058
1.77585
1.75907
1.7415
1.72619
1.7135
1.70211
1.69205
1.68395
1.67738
1.67066
1.66255
1.65115
1.6355
1.61872
1.60617
1.59726
1.58834
1.57741
1.56623
1.55643
1.5491
1.54342
1.53794
1.53159
1.52233
1.50791
1.49151
1.48045
1.47421
1.46895
1.46295
1.45592
1.44854
1.44111
1.43333
1.42474
1.41495
1.40466
1.39656
1.39056
1.38503
1.37876
1.37187
1.36642
1.36255
1.35834
1.3486
1.33486
1.32549
1.32092
1.31774
1.31508
1.31274
1.30972
1.30176
1.28694
1.27616
1.27182
1.26853
1.26541
1.26313
1.26079
1.25792
1.25444
1.24999
1.24326
1.23327
1.2219
1.21283
1.20826
1.20568
1.20304
1.2004
1.19774
1.19628
1.19677
1.2024
1.21938
1.24534
1.2842
1.3244
1.35577
1.38333
1.40219
1.40125
1.428
1.41319
1.39456
1.38876
1.40769
1.48724
1.63679
1.77651
1.89373
1.97489
2.03036
2.07685
2.07355
2.05182
2.02054
1.99805
1.98261
1.96571
1.94808
1.93237
1.91923
1.90966
1.8999
1.88832
1.87661
1.86248
1.86845
1.89853
1.93856
1.97386
1.97619
1.96835
1.9525
1.93046
1.90629
1.88388
1.86711
1.85491
1.84334
1.83166
1.82067
1.80965
1.79831
1.78724
1.77669
1.7649
1.74894
1.72907
1.71103
1.69691
1.68541
1.67702
1.67099
1.66488
1.65716
1.64738
1.63626
1.62301
1.60799
1.59532
1.58463
1.57259
1.55947
1.55145
1.5464
1.54137
1.53537
1.52789
1.51949
1.50758
1.49308
1.48161
1.47276
1.46591
1.4605
1.45468
1.44695
1.43863
1.42913
1.41904
1.41046
1.40429
1.39805
1.38992
1.38244
1.37833
1.37522
1.37143
1.36417
1.35194
1.34052
1.33234
1.32646
1.32184
1.31818
1.3148
1.31093
1.30591
1.29823
1.2878
1.27825
1.27127
1.26505
1.25907
1.25488
1.25249
1.25
1.24675
1.2425
1.23742
1.23177
1.2234
1.21258
1.20595
1.20251
1.19949
1.19608
1.19233
1.18978
1.18825
1.18744
1.18486
1.18377
1.19032
1.21542
1.25423
1.29648
1.3358
1.37774
1.42796
1.40938
1.41085
1.45983
1.59806
1.74427
1.82128
1.82947
1.85617
1.91219
1.9672
2.02747
2.04528
2.0381
2.01753
1.99425
1.97834
1.96459
1.94957
1.93193
1.91528
1.90208
1.8938
1.89153
1.88797
1.89048
1.91824
1.95295
1.97921
1.98567
1.97795
1.96611
1.94931
1.92837
1.90654
1.88683
1.87008
1.85591
1.84252
1.82872
1.81541
1.80324
1.79194
1.7826
1.77461
1.76551
1.75214
1.73213
1.71058
1.69499
1.68386
1.67408
1.66611
1.65959
1.65276
1.64538
1.63687
1.6254
1.60994
1.59374
1.58068
1.56972
1.5601
1.55187
1.54429
1.53788
1.53279
1.52796
1.51908
1.505
1.49209
1.48385
1.47635
1.46677
1.45739
1.4521
1.44831
1.44187
1.431
1.41743
1.40851
1.40335
1.3983
1.39219
1.38578
1.37967
1.37306
1.36577
1.35721
1.34579
1.33532
1.33179
1.32991
1.32754
1.32362
1.31854
1.31239
1.30435
1.29632
1.28803
1.27951
1.27171
1.26431
1.25721
1.25176
1.24838
1.2458
1.24297
1.23967
1.23608
1.23178
1.22499
1.21317
1.20249
1.19918
1.19699
1.19415
1.19049
1.18742
1.18523
1.18315
1.18017
1.17377
1.16292
1.16326
1.17167
1.19745
1.22985
1.30171
1.42897
1.44859
1.54708
1.71407
1.82376
1.86639
1.86424
1.85092
1.84367
1.85435
1.88539
1.94396
2.00264
2.01962
2.01026
1.99175
1.97611
1.96269
1.94861
1.93065
1.91418
1.89985
1.89875
1.90364
1.91615
1.94845
1.98042
1.99519
1.99433
1.98394
1.97099
1.9567
1.93955
1.92138
1.90437
1.88898
1.87389
1.85751
1.8405
1.82352
1.80796
1.7959
1.78627
1.77801
1.76997
1.76085
1.74913
1.73178
1.70991
1.69298
1.6818
1.67242
1.66389
1.65623
1.64872
1.63997
1.62917
1.61799
1.60668
1.5927
1.57732
1.56655
1.55952
1.55228
1.54428
1.53674
1.52889
1.51879
1.50678
1.49643
1.48886
1.48277
1.47631
1.46786
1.45821
1.4498
1.442
1.43321
1.42315
1.41439
1.40759
1.40146
1.3955
1.39168
1.3886
1.38393
1.37567
1.36347
1.35122
1.34204
1.33722
1.33394
1.33039
1.32599
1.31956
1.31181
1.30536
1.29906
1.29187
1.28526
1.27958
1.27413
1.26784
1.25992
1.25198
1.24689
1.24413
1.24175
1.23915
1.2363
1.23392
1.22903
1.21539
1.20151
1.19792
1.1963
1.1941
1.19118
1.18848
1.18612
1.18369
1.18019
1.17161
1.15962
1.15666
1.15551
1.15617
1.16093
1.20168
1.52424
1.66413
1.81808
1.87915
1.86966
1.85673
1.85063
1.84281
1.83417
1.83404
1.83373
1.85244
1.91302
1.9669
1.98768
1.9844
1.97265
1.95885
1.9439
1.92732
1.91252
1.9059
1.90953
1.92806
1.9659
2.00987
2.01617
2.009
1.99493
1.97776
1.96024
1.94339
1.92709
1.91244
1.9002
1.88864
1.87551
1.85861
1.83775
1.81684
1.8006
1.78933
1.78034
1.77245
1.76512
1.75719
1.74567
1.72809
1.70742
1.69189
1.68107
1.67133
1.66111
1.65056
1.64157
1.63486
1.62841
1.61895
1.60604
1.5922
1.57781
1.56507
1.55654
1.5514
1.54686
1.54054
1.52941
1.51365
1.50001
1.49188
1.48686
1.48188
1.47535
1.46746
1.45992
1.45161
1.43971
1.42766
1.41837
1.41199
1.40734
1.4031
1.39878
1.39343
1.38656
1.37821
1.36854
1.35647
1.34548
1.34124
1.3392
1.33641
1.33207
1.32611
1.31856
1.30965
1.30222
1.29808
1.29429
1.28943
1.28454
1.27821
1.26997
1.26112
1.25444
1.25085
1.24853
1.24637
1.24376
1.24033
1.23471
1.22555
1.21217
1.20429
1.20268
1.20144
1.19975
1.1975
1.19492
1.19227
1.18918
1.18424
1.1741
1.16163
1.1551
1.15154
1.14995
1.14926
1.15322
1.79345
1.87663
1.91756
1.91206
1.88405
1.85011
1.83369
1.83117
1.82654
1.82033
1.81022
1.80029
1.8191
1.88032
1.93775
1.96536
1.96328
1.95244
1.93738
1.92104
1.91582
1.918
1.9374
1.973
2.01467
2.03239
2.02835
2.01203
1.99058
1.96873
1.94861
1.93113
1.91616
1.90299
1.89186
1.88157
1.86981
1.85453
1.83373
1.81229
1.79639
1.78529
1.77641
1.76777
1.75774
1.7462
1.73166
1.71509
1.70213
1.69211
1.68259
1.67206
1.66029
1.64811
1.63727
1.62891
1.62023
1.60854
1.59358
1.58144
1.57416
1.56715
1.55943
1.55106
1.54253
1.53163
1.51708
1.50385
1.49606
1.49158
1.48688
1.48199
1.47613
1.46817
1.45807
1.44449
1.42913
1.41933
1.41503
1.41172
1.40815
1.40464
1.4009
1.3961
1.38916
1.37767
1.36302
1.35076
1.34485
1.34228
1.33928
1.33499
1.32928
1.32278
1.31583
1.3093
1.30247
1.29461
1.28677
1.28079
1.27675
1.27435
1.27148
1.26675
1.25941
1.24991
1.24283
1.23887
1.23583
1.23275
1.22882
1.22213
1.21375
1.20673
1.20048
1.1971
1.19493
1.1925
1.18972
1.18694
1.18392
1.17934
1.16999
1.15778
1.15215
1.1499
1.14791
1.14653
1.14439
1.91935
1.90945
1.9
1.88529
1.86732
1.84993
1.83567
1.82687
1.819
1.80963
1.79544
1.77429
1.77151
1.79379
1.85291
1.9089
1.93816
1.93878
1.92981
1.91935
1.92281
1.94632
1.98444
2.01828
2.03019
2.02884
2.02064
2.00458
1.98248
1.95921
1.9373
1.91852
1.90658
1.89944
1.89159
1.88074
1.86688
1.84873
1.82793
1.80964
1.79519
1.78311
1.77252
1.76245
1.75098
1.73702
1.72302
1.70761
1.69547
1.68781
1.68063
1.67195
1.66023
1.64828
1.63815
1.62717
1.61457
1.60185
1.58956
1.57841
1.57041
1.56545
1.56088
1.55484
1.54403
1.52727
1.51012
1.50095
1.49648
1.49144
1.48547
1.48003
1.47554
1.47083
1.46094
1.44063
1.42333
1.41738
1.41416
1.41077
1.40728
1.4037
1.39956
1.39377
1.38374
1.36763
1.35272
1.34765
1.34527
1.34236
1.33885
1.33424
1.32807
1.32274
1.31912
1.31493
1.30661
1.29346
1.2826
1.27714
1.2738
1.27138
1.26984