/*--------------------------------*- C++ -*----------------------------------*\
  =========                 |
  \\      /  F ield         | OpenFOAM: The Open Source CFD Toolbox
   \\    /   O peration     | Website:  https://openfoam.org
    \\  /    A nd           | Version:  7
     \\/     M anipulation  |
\*---------------------------------------------------------------------------*/
FoamFile
{
    version     2.0;
    format      ascii;
    class       volVectorField;
    location    "3.4";
    object      U;
}
// * * * * * * * * * * * * * * * * * * * * * * * * * * * * * * * * * * * * * //

dimensions      [0 1 -1 0 0 0 0];

internalField   nonuniform List<vector> 
4128
(
(2.59821 0.518 0)
(2.55129 0.567376 0)
(2.43831 0.673638 0)
(2.29308 0.810047 0)
(2.20986 0.888565 0)
(2.20023 0.884887 0)
(2.20668 0.877646 0)
(2.21629 0.863976 0)
(2.21866 0.844867 0)
(2.22007 0.83376 0)
(2.22801 0.836168 0)
(2.23505 0.836934 0)
(2.24245 0.833927 0)
(2.25354 0.828741 0)
(2.26474 0.823987 0)
(2.27793 0.818839 0)
(2.28965 0.809567 0)
(2.29177 0.796963 0)
(2.28408 0.778993 0)
(2.27964 0.76601 0)
(2.28319 0.761635 0)
(2.29053 0.758226 0)
(2.30013 0.750314 0)
(2.3124 0.73966 0)
(2.32607 0.73155 0)
(2.33666 0.727503 0)
(2.34522 0.729456 0)
(2.35156 0.731814 0)
(2.35295 0.728737 0)
(2.35141 0.715478 0)
(2.35906 0.700286 0)
(2.36917 0.692558 0)
(2.38288 0.686104 0)
(2.39483 0.684576 0)
(2.39931 0.676488 0)
(2.3832 0.627949 0)
(2.32014 0.49802 0)
(2.18166 0.264295 0)
(2.08309 0.0701756 0)
(2.00808 -0.0567082 0)
(2.01872 -0.112604 0)
(2.01519 -0.0964525 0)
(2.03377 -0.0706807 0)
(2.04296 -0.0509643 0)
(2.05692 -0.0501768 0)
(2.07233 -0.0568208 0)
(2.07666 -0.0703398 0)
(2.07086 -0.0852385 0)
(2.07197 -0.0979321 0)
(2.08049 -0.105996 0)
(2.09429 -0.107816 0)
(2.10963 -0.105801 0)
(2.12529 -0.100227 0)
(2.13693 -0.0954052 0)
(2.1466 -0.0936981 0)
(2.15355 -0.0955266 0)
(2.15728 -0.103002 0)
(2.16142 -0.11345 0)
(2.16811 -0.12322 0)
(2.17642 -0.130798 0)
(2.18523 -0.136858 0)
(2.19458 -0.142785 0)
(2.20129 -0.142179 0)
(2.20879 -0.149 0)
(2.20803 -0.157047 0)
(2.19532 -0.175668 0)
(2.15191 -0.224825 0)
(2.09029 -0.294736 0)
(2.05628 -0.330436 0)
(2.0456 -0.354319 0)
(2.04083 -0.36794 0)
(2.04197 -0.385468 0)
(2.05096 -0.393834 0)
(2.06291 -0.392476 0)
(2.07754 -0.3863 0)
(2.09892 -0.379644 0)
(2.1144 -0.377055 0)
(2.12692 -0.378898 0)
(2.13643 -0.380771 0)
(2.13887 -0.386864 0)
(2.13216 -0.399972 0)
(2.13029 -0.409907 0)
(2.13985 -0.412074 0)
(2.15062 -0.410755 0)
(2.16731 -0.407181 0)
(2.18656 -0.401662 0)
(2.19772 -0.400624 0)
(2.20961 -0.402124 0)
(2.21964 -0.40336 0)
(2.22411 -0.407098 0)
(2.21837 -0.416523 0)
(2.21185 -0.425855 0)
(2.21904 -0.428332 0)
(2.22875 -0.428099 0)
(2.24022 -0.426314 0)
(2.25564 -0.422374 0)
(2.26791 -0.418063 0)
(2.27874 -0.417354 0)
(2.28909 -0.417735 0)
(2.29764 -0.418357 0)
(2.30055 -0.421788 0)
(2.29401 -0.429679 0)
(2.28822 -0.436559 0)
(2.29546 -0.438414 0)
(2.30425 -0.43807 0)
(2.31412 -0.43647 0)
(2.32592 -0.433937 0)
(2.33803 -0.431036 0)
(2.34772 -0.429966 0)
(2.35737 -0.430632 0)
(2.36595 -0.4314 0)
(2.36996 -0.432941 0)
(2.36404 -0.435736 0)
(2.35762 -0.437089 0)
(2.36346 -0.43507 0)
(2.37194 -0.433095 0)
(2.3816 -0.431458 0)
(2.39178 -0.43067 0)
(2.40163 -0.431113 0)
(2.41021 -0.432709 0)
(2.4197 -0.435796 0)
(2.4273 -0.440898 0)
(2.43014 -0.446493 0)
(2.42762 -0.448281 0)
(2.42987 -0.444378 0)
(2.4361 -0.439615 0)
(2.44264 -0.434627 0)
(2.44873 -0.429672 0)
(2.45429 -0.426482 0)
(2.60279 0.514291 0)
(2.59455 0.523798 0)
(2.55468 0.569346 0)
(2.40056 0.721575 0)
(2.27682 0.849711 0)
(2.21893 0.87089 0)
(2.21754 0.867013 0)
(2.21756 0.86243 0)
(2.21134 0.853843 0)
(2.21366 0.850026 0)
(2.22066 0.849749 0)
(2.23082 0.848355 0)
(2.24328 0.843513 0)
(2.25619 0.836738 0)
(2.26868 0.829765 0)
(2.28026 0.822191 0)
(2.28611 0.813709 0)
(2.28109 0.801782 0)
(2.27328 0.784498 0)
(2.27359 0.774051 0)
(2.27945 0.770477 0)
(2.28869 0.764871 0)
(2.30156 0.756467 0)
(2.31547 0.750304 0)
(2.32951 0.744026 0)
(2.33895 0.740854 0)
(2.34722 0.741718 0)
(2.35217 0.742585 0)
(2.34772 0.738102 0)
(2.34547 0.721345 0)
(2.35211 0.708845 0)
(2.36751 0.697956 0)
(2.37971 0.693425 0)
(2.37674 0.668812 0)
(2.34041 0.585613 0)
(2.24046 0.386403 0)
(2.13318 0.192236 0)
(2.02976 0.00558762 0)
(2.00965 -0.00438835 0)
(2.00973 -0.0263367 0)
(2.01898 -0.0440858 0)
(2.03211 -0.0536145 0)
(2.04922 -0.0496566 0)
(2.05834 -0.0453351 0)
(2.06381 -0.0440196 0)
(2.06884 -0.0521059 0)
(2.06982 -0.0697545 0)
(2.06712 -0.0825557 0)
(2.07306 -0.0859175 0)
(2.08351 -0.0847283 0)
(2.10134 -0.0823214 0)
(2.11949 -0.0803825 0)
(2.13469 -0.079801 0)
(2.14822 -0.0796692 0)
(2.15641 -0.0803839 0)
(2.15675 -0.0856303 0)
(2.15372 -0.0957112 0)
(2.157 -0.10503 0)
(2.1657 -0.111849 0)
(2.17582 -0.11619 0)
(2.18604 -0.120263 0)
(2.19463 -0.122689 0)
(2.2052 -0.126418 0)
(2.20597 -0.135148 0)
(2.19626 -0.155428 0)
(2.15573 -0.205552 0)
(2.09396 -0.276893 0)
(2.05652 -0.313505 0)
(2.04247 -0.337838 0)
(2.03668 -0.352077 0)
(2.03745 -0.369481 0)
(2.04564 -0.378549 0)
(2.0577 -0.377606 0)
(2.07226 -0.372331 0)
(2.09414 -0.366906 0)
(2.11156 -0.364267 0)
(2.12401 -0.366083 0)
(2.1349 -0.368148 0)
(2.13966 -0.372876 0)
(2.13371 -0.384198 0)
(2.12705 -0.394432 0)
(2.13462 -0.396748 0)
(2.14508 -0.395402 0)
(2.15921 -0.392176 0)
(2.18 -0.387038 0)
(2.1935 -0.384777 0)
(2.20525 -0.387046 0)
(2.21647 -0.389379 0)
(2.22422 -0.393342 0)
(2.22253 -0.401717 0)
(2.21285 -0.412416 0)
(2.21552 -0.416174 0)
(2.22534 -0.415319 0)
(2.23613 -0.412437 0)
(2.24964 -0.408396 0)
(2.2655 -0.403227 0)
(2.27536 -0.401523 0)
(2.2861 -0.402536 0)
(2.29574 -0.403864 0)
(2.30164 -0.408003 0)
(2.29867 -0.416582 0)
(2.28955 -0.425898 0)
(2.29244 -0.427007 0)
(2.30139 -0.424472 0)
(2.31105 -0.421847 0)
(2.32139 -0.418559 0)
(2.33341 -0.414774 0)
(2.34337 -0.413174 0)
(2.35285 -0.414354 0)
(2.36218 -0.415789 0)
(2.3694 -0.418786 0)
(2.37072 -0.42416 0)
(2.36409 -0.429457 0)
(2.36339 -0.427084 0)
(2.37097 -0.423233 0)
(2.3803 -0.419697 0)
(2.38875 -0.415469 0)
(2.39692 -0.412158 0)
(2.4057 -0.413008 0)
(2.4141 -0.415441 0)
(2.42251 -0.41828 0)
(2.42833 -0.423273 0)
(2.42773 -0.431624 0)
(2.43002 -0.434598 0)
(2.43806 -0.433032 0)
(2.44564 -0.429842 0)
(2.45274 -0.425614 0)
(2.45847 -0.420697 0)
(2.46221 -0.415774 0)
(2.60186 0.517251 0)
(2.59944 0.521527 0)
(2.58981 0.536636 0)
(2.53797 0.597327 0)
(2.38693 0.758833 0)
(2.28888 0.836493 0)
(2.22628 0.851126 0)
(2.21582 0.862779 0)
(2.20855 0.866313 0)
(2.21018 0.86507 0)
(2.21618 0.862675 0)
(2.23123 0.858243 0)
(2.24713 0.851414 0)
(2.26172 0.843094 0)
(2.27257 0.835363 0)
(2.27956 0.828178 0)
(2.28014 0.819491 0)
(2.27053 0.806252 0)
(2.26634 0.790692 0)
(2.27141 0.784008 0)
(2.2796 0.778859 0)
(2.29177 0.770571 0)
(2.30498 0.766363 0)
(2.31843 0.762597 0)
(2.33111 0.757074 0)
(2.34078 0.753324 0)
(2.34798 0.753689 0)
(2.34935 0.753446 0)
(2.33808 0.744965 0)
(2.34286 0.723414 0)
(2.35267 0.716532 0)
(2.35507 0.697186 0)
(2.34483 0.647397 0)
(2.27238 0.502325 0)
(2.12845 0.244671 0)
(2.05647 0.0672983 0)
(1.98728 -0.0364272 0)
(1.98983 -0.0690246 0)
(1.98298 -0.0533493 0)
(1.99762 -0.0314309 0)
(2.02087 -0.0186633 0)
(2.03918 -0.0229012 0)
(2.06142 -0.0319972 0)
(2.07089 -0.0378819 0)
(2.06979 -0.0420757 0)
(2.06426 -0.052836 0)
(2.0625 -0.0694686 0)
(2.07151 -0.0790329 0)
(2.08301 -0.0795112 0)
(2.09677 -0.0755945 0)
(2.11738 -0.0673476 0)
(2.13059 -0.0643156 0)
(2.14512 -0.064607 0)
(2.15698 -0.0657675 0)
(2.16076 -0.0710023 0)
(2.15442 -0.0829719 0)
(2.15213 -0.0948743 0)
(2.15952 -0.101458 0)
(2.17047 -0.104929 0)
(2.18258 -0.108021 0)
(2.19309 -0.109486 0)
(2.20389 -0.114028 0)
(2.20522 -0.120825 0)
(2.19557 -0.139231 0)
(2.15791 -0.186903 0)
(2.09851 -0.258404 0)
(2.05749 -0.300365 0)
(2.03963 -0.324156 0)
(2.0336 -0.336726 0)
(2.0336 -0.354309 0)
(2.04069 -0.36434 0)
(2.05277 -0.363743 0)
(2.06684 -0.358157 0)
(2.0888 -0.352744 0)
(2.10812 -0.350124 0)
(2.12035 -0.351825 0)
(2.132 -0.354469 0)
(2.13917 -0.358973 0)
(2.13655 -0.369394 0)
(2.12768 -0.381341 0)
(2.13178 -0.384786 0)
(2.14228 -0.383476 0)
(2.15456 -0.379425 0)
(2.17239 -0.373354 0)
(2.18869 -0.368852 0)
(2.20004 -0.370549 0)
(2.21162 -0.373385 0)
(2.22065 -0.377594 0)
(2.22339 -0.38571 0)
(2.21534 -0.398708 0)
(2.21331 -0.404867 0)
(2.22309 -0.403851 0)
(2.23386 -0.400977 0)
(2.24621 -0.395992 0)
(2.26135 -0.388177 0)
(2.27172 -0.384359 0)
(2.28276 -0.385502 0)
(2.29258 -0.387019 0)
(2.29971 -0.39082 0)
(2.29997 -0.399403 0)
(2.29132 -0.412904 0)
(2.29132 -0.417907 0)
(2.30054 -0.416358 0)
(2.31021 -0.413286 0)
(2.32075 -0.407979 0)
(2.33125 -0.400741 0)
(2.34047 -0.397105 0)
(2.34962 -0.397169 0)
(2.35783 -0.398448 0)
(2.36531 -0.400878 0)
(2.37008 -0.405631 0)
(2.36562 -0.415463 0)
(2.36452 -0.420295 0)
(2.37266 -0.418942 0)
(2.38157 -0.414626 0)
(2.38993 -0.408644 0)
(2.39767 -0.403742 0)
(2.40458 -0.399185 0)
(2.4096 -0.396571 0)
(2.41359 -0.398637 0)
(2.41756 -0.403612 0)
(2.41931 -0.410333 0)
(2.42555 -0.415768 0)
(2.43419 -0.41786 0)
(2.44284 -0.417358 0)
(2.45148 -0.415198 0)
(2.45925 -0.413321 0)
(2.46616 -0.410468 0)
(2.47027 -0.405534 0)
(2.59616 0.526802 0)
(2.59826 0.528611 0)
(2.59866 0.533326 0)
(2.58799 0.548502 0)
(2.52718 0.616255 0)
(2.40072 0.743343 0)
(2.29601 0.800829 0)
(2.21571 0.858437 0)
(2.20236 0.888583 0)
(2.20712 0.881828 0)
(2.21931 0.873676 0)
(2.23604 0.863574 0)
(2.25327 0.853961 0)
(2.26423 0.849181 0)
(2.26982 0.84409 0)
(2.27096 0.836349 0)
(2.26601 0.82464 0)
(2.26239 0.805778 0)
(2.26581 0.795453 0)
(2.27315 0.792633 0)
(2.28183 0.787229 0)
(2.29372 0.782229 0)
(2.30526 0.780767 0)
(2.31918 0.774823 0)
(2.33205 0.767163 0)
(2.34052 0.763825 0)
(2.34627 0.76403 0)
(2.34293 0.760843 0)
(2.3325 0.748865 0)
(2.33691 0.726862 0)
(2.33226 0.69758 0)
(2.28648 0.592635 0)
(2.18591 0.383685 0)
(2.07611 0.166405 0)
(2.0084 0.0426735 0)
(1.98777 0.0107073 0)
(1.98596 0.000838328 0)
(1.98861 -0.023953 0)
(2.00402 -0.025888 0)
(2.01361 -0.0189124 0)
(2.03069 -0.010224 0)
(2.04171 -0.0102499 0)
(2.05895 -0.0165583 0)
(2.06951 -0.0293394 0)
(2.06693 -0.0420087 0)
(2.06056 -0.0506217 0)
(2.06406 -0.0548768 0)
(2.07565 -0.054756 0)
(2.09011 -0.0537565 0)
(2.1102 -0.0510007 0)
(2.12833 -0.0495981 0)
(2.14118 -0.0500953 0)
(2.15347 -0.0508768 0)
(2.16093 -0.0553218 0)
(2.15711 -0.0674831 0)
(2.14879 -0.0797032 0)
(2.15204 -0.0854546 0)
(2.162 -0.0872947 0)
(2.17363 -0.0881274 0)
(2.18541 -0.0898801 0)
(2.19838 -0.0926746 0)
(2.20126 -0.0998158 0)
(2.19439 -0.118437 0)
(2.15902 -0.165987 0)
(2.09761 -0.243895 0)
(2.06066 -0.288166 0)
(2.03995 -0.308293 0)
(2.03302 -0.320412 0)
(2.03195 -0.338437 0)
(2.03647 -0.350043 0)
(2.04807 -0.349779 0)
(2.06117 -0.343877 0)
(2.08218 -0.33768 0)
(2.10375 -0.334579 0)
(2.11616 -0.335892 0)
(2.12815 -0.338827 0)
(2.13679 -0.343487 0)
(2.1377 -0.353292 0)
(2.12949 -0.367346 0)
(2.13038 -0.373705 0)
(2.14085 -0.373243 0)
(2.15262 -0.368634 0)
(2.16805 -0.361365 0)
(2.18366 -0.35453 0)
(2.19551 -0.355081 0)
(2.2074 -0.35722 0)
(2.21643 -0.360293 0)
(2.22084 -0.367277 0)
(2.21513 -0.380989 0)
(2.2114 -0.391582 0)
(2.22064 -0.393796 0)
(2.2313 -0.391719 0)
(2.24418 -0.385701 0)
(2.25915 -0.376633 0)
(2.27017 -0.371526 0)
(2.2814 -0.371335 0)
(2.29087 -0.371266 0)
(2.29758 -0.373179 0)
(2.29873 -0.380338 0)
(2.29086 -0.394602 0)
(2.28946 -0.403213 0)
(2.29836 -0.404383 0)
(2.30786 -0.40147 0)
(2.31949 -0.395971 0)
(2.33098 -0.389756 0)
(2.34061 -0.386847 0)
(2.35006 -0.385002 0)
(2.35747 -0.383084 0)
(2.36304 -0.383384 0)
(2.36634 -0.387304 0)
(2.36308 -0.39687 0)
(2.36201 -0.405112 0)
(2.37057 -0.407331 0)
(2.37959 -0.405012 0)
(2.38936 -0.400421 0)
(2.39826 -0.397601 0)
(2.40645 -0.394492 0)
(2.41261 -0.389767 0)
(2.41627 -0.38517 0)
(2.41733 -0.384693 0)
(2.41541 -0.39128 0)
(2.41985 -0.397301 0)
(2.42786 -0.399127 0)
(2.43499 -0.399344 0)
(2.44411 -0.399013 0)
(2.454 -0.397702 0)
(2.46251 -0.396934 0)
(2.4707 -0.396562 0)
(2.4769 -0.394617 0)
(2.58846 0.541641 0)
(2.59245 0.541525 0)
(2.5981 0.540542 0)
(2.59901 0.535142 0)
(2.58637 0.545532 0)
(2.52397 0.606864 0)
(2.4027 0.706924 0)
(2.26409 0.818841 0)
(2.21469 0.894035 0)
(2.21335 0.890051 0)
(2.2289 0.876215 0)
(2.24183 0.862486 0)
(2.25671 0.853948 0)
(2.26473 0.85461 0)
(2.26588 0.853961 0)
(2.26089 0.845873 0)
(2.25721 0.825951 0)
(2.26049 0.808228 0)
(2.2682 0.802976 0)
(2.2763 0.801331 0)
(2.28313 0.796327 0)
(2.29366 0.794771 0)
(2.30425 0.792773 0)
(2.31882 0.785175 0)
(2.33096 0.776044 0)
(2.33957 0.773727 0)
(2.34144 0.770942 0)
(2.33449 0.76869 0)
(2.32113 0.725937 0)
(2.29282 0.663527 0)
(2.20946 0.495369 0)
(2.07064 0.222569 0)
(2.00684 0.0672668 0)
(1.98025 -0.0239439 0)
(1.96914 -0.0270453 0)
(1.96512 -0.0120201 0)
(1.97548 0.00917532 0)
(1.99163 0.00637239 0)
(2.01233 -0.00105972 0)
(2.03311 -0.0036307 0)
(2.04394 -0.00522712 0)
(2.05143 -0.00592002 0)
(2.05884 -0.0109978 0)
(2.06176 -0.024701 0)
(2.05998 -0.0414807 0)
(2.06553 -0.0484256 0)
(2.07585 -0.0463566 0)
(2.08794 -0.0412895 0)
(2.1055 -0.0363135 0)
(2.12303 -0.0345129 0)
(2.13841 -0.0365266 0)
(2.15115 -0.0386765 0)
(2.15936 -0.0419389 0)
(2.15828 -0.0509926 0)
(2.14925 -0.065089 0)
(2.1492 -0.0750636 0)
(2.15889 -0.0773064 0)
(2.17054 -0.0776005 0)
(2.18246 -0.0781237 0)
(2.19553 -0.0804892 0)
(2.19862 -0.0870752 0)
(2.1924 -0.10432 0)
(2.15796 -0.150205 0)
(2.09986 -0.223865 0)
(2.06022 -0.274995 0)
(2.03835 -0.299508 0)
(2.03132 -0.308664 0)
(2.03026 -0.323387 0)
(2.03366 -0.336423 0)
(2.04475 -0.337332 0)
(2.05695 -0.33201 0)
(2.07599 -0.325026 0)
(2.09858 -0.320189 0)
(2.1118 -0.320159 0)
(2.12405 -0.322826 0)
(2.13345 -0.326781 0)
(2.13676 -0.335681 0)
(2.1301 -0.351008 0)
(2.12873 -0.360535 0)
(2.13879 -0.361339 0)
(2.15021 -0.35811 0)
(2.16567 -0.351339 0)
(2.18128 -0.343968 0)
(2.19317 -0.343283 0)
(2.20508 -0.343871 0)
(2.21393 -0.344585 0)
(2.21802 -0.349476 0)
(2.2129 -0.362103 0)
(2.20801 -0.374753 0)
(2.21592 -0.37852 0)
(2.22622 -0.377574 0)
(2.23925 -0.37393 0)
(2.25689 -0.366996 0)
(2.26933 -0.361163 0)
(2.28083 -0.359917 0)
(2.29101 -0.35862 0)
(2.29764 -0.358307 0)
(2.29812 -0.363353 0)
(2.28976 -0.376311 0)
(2.28617 -0.385897 0)
(2.29432 -0.387911 0)
(2.3033 -0.386776 0)
(2.31532 -0.383746 0)
(2.32892 -0.378186 0)
(2.33929 -0.374582 0)
(2.34967 -0.372993 0)
(2.35847 -0.370734 0)
(2.36447 -0.368727 0)
(2.36617 -0.37026 0)
(2.36138 -0.378728 0)
(2.35754 -0.388038 0)
(2.36494 -0.391082 0)
(2.37323 -0.390951 0)
(2.38387 -0.389688 0)
(2.39478 -0.386448 0)
(2.40418 -0.38376 0)
(2.413 -0.380994 0)
(2.41979 -0.377644 0)
(2.42088 -0.374842 0)
(2.41468 -0.375802 0)
(2.41388 -0.379145 0)
(2.42189 -0.380947 0)
(2.4293 -0.381342 0)
(2.43767 -0.381683 0)
(2.44746 -0.381607 0)
(2.45621 -0.381039 0)
(2.46541 -0.381856 0)
(2.47458 -0.383355 0)
(2.4818 -0.385031 0)
(2.58405 0.556143 0)
(2.58809 0.555347 0)
(2.59681 0.550332 0)
(2.60213 0.535088 0)
(2.5944 0.525071 0)
(2.5806 0.537481 0)
(2.52059 0.596816 0)
(2.37454 0.729293 0)
(2.2561 0.877377 0)
(2.23432 0.885048 0)
(2.24016 0.867934 0)
(2.24855 0.860494 0)
(2.25696 0.858281 0)
(2.25923 0.865429 0)
(2.25398 0.867229 0)
(2.25042 0.85108 0)
(2.2553 0.825744 0)
(2.26282 0.812304 0)
(2.27149 0.81085 0)
(2.27718 0.811433 0)
(2.2822 0.808035 0)
(2.29232 0.80779 0)
(2.30331 0.803073 0)
(2.31987 0.792483 0)
(2.32997 0.781957 0)
(2.33526 0.784895 0)
(2.32639 0.766345 0)
(2.30315 0.711409 0)
(2.23349 0.581701 0)
(2.12445 0.365519 0)
(2.01644 0.131922 0)
(1.97805 0.0685486 0)
(1.97342 0.0484525 0)
(1.97763 0.0328022 0)
(1.98629 0.00449362 0)
(1.98491 0.00830605 0)
(1.98957 0.0168582 0)
(1.99879 0.0199312 0)
(2.01238 0.0176863 0)
(2.03427 0.0120687 0)
(2.05064 0.00369277 0)
(2.05806 -0.00165838 0)
(2.05935 -0.00796241 0)
(2.0566 -0.0190977 0)
(2.05854 -0.0281754 0)
(2.07076 -0.0282068 0)
(2.08406 -0.025265 0)
(2.10012 -0.0215724 0)
(2.1183 -0.0200498 0)
(2.13291 -0.0215675 0)
(2.14739 -0.0246051 0)
(2.15789 -0.0285105 0)
(2.16028 -0.0357116 0)
(2.15145 -0.0477996 0)
(2.14591 -0.056943 0)
(2.1532 -0.0591244 0)
(2.16422 -0.0590528 0)
(2.17648 -0.0598366 0)
(2.19032 -0.0617792 0)
(2.19459 -0.0675656 0)
(2.1899 -0.0850498 0)
(2.15697 -0.131367 0)
(2.09827 -0.206771 0)
(2.06108 -0.25706 0)
(2.0382 -0.285594 0)
(2.02936 -0.297999 0)
(2.02801 -0.311528 0)
(2.03116 -0.324685 0)
(2.04192 -0.326015 0)
(2.054 -0.320587 0)
(2.07122 -0.31313 0)
(2.09363 -0.307199 0)
(2.10761 -0.305821 0)
(2.12009 -0.30788 0)
(2.12988 -0.310591 0)
(2.13433 -0.31809 0)
(2.12899 -0.332789 0)
(2.12556 -0.344374 0)
(2.13477 -0.346637 0)
(2.14569 -0.344824 0)
(2.16092 -0.340226 0)
(2.17937 -0.333593 0)
(2.19099 -0.331533 0)
(2.20336 -0.331923 0)
(2.21327 -0.331947 0)
(2.21777 -0.33477 0)
(2.21251 -0.344568 0)
(2.20464 -0.357009 0)
(2.20987 -0.361941 0)
(2.21979 -0.361679 0)
(2.23173 -0.359605 0)
(2.24996 -0.355168 0)
(2.26646 -0.349228 0)
(2.27756 -0.347657 0)
(2.28945 -0.347601 0)
(2.29865 -0.347311 0)
(2.30098 -0.349852 0)
(2.29168 -0.359175 0)
(2.28363 -0.368732 0)
(2.28986 -0.37143 0)
(2.2984 -0.370376 0)
(2.30865 -0.368167 0)
(2.32327 -0.364898 0)
(2.33572 -0.360732 0)
(2.34636 -0.359072 0)
(2.35678 -0.358309 0)
(2.36564 -0.357429 0)
(2.37042 -0.35719 0)
(2.36516 -0.361302 0)
(2.35561 -0.370335 0)
(2.35985 -0.374564 0)
(2.36777 -0.374656 0)
(2.37653 -0.373845 0)
(2.38717 -0.373046 0)
(2.3983 -0.371055 0)
(2.40803 -0.369486 0)
(2.41809 -0.369164 0)
(2.42641 -0.368951 0)
(2.42692 -0.368222 0)
(2.41652 -0.366582 0)
(2.41536 -0.364758 0)
(2.42313 -0.363965 0)
(2.43147 -0.364011 0)
(2.44046 -0.363602 0)
(2.45137 -0.362958 0)
(2.46249 -0.364304 0)
(2.47035 -0.367558 0)
(2.47849 -0.371239 0)
(2.48506 -0.376044 0)
(2.58091 0.568782 0)
(2.58732 0.566064 0)
(2.59511 0.554543 0)
(2.59603 0.534019 0)
(2.5932 0.524381 0)
(2.59264 0.525347 0)
(2.57831 0.54401 0)
(2.51284 0.619243 0)
(2.35455 0.80025 0)
(2.28027 0.866322 0)
(2.25599 0.858916 0)
(2.25667 0.860346 0)
(2.25149 0.872765 0)
(2.24402 0.8813 0)
(2.24019 0.874064 0)
(2.24639 0.849797 0)
(2.2566 0.828593 0)
(2.265 0.818732 0)
(2.27124 0.821764 0)
(2.27441 0.822719 0)
(2.28236 0.820262 0)
(2.29053 0.81999 0)
(2.30556 0.81043 0)
(2.3206 0.795123 0)
(2.32613 0.79396 0)
(2.31073 0.756225 0)
(2.25499 0.650642 0)
(2.1407 0.444252 0)
(2.01663 0.19693 0)
(1.95591 0.0510113 0)
(1.96301 -0.00781591 0)
(1.94938 0.00547625 0)
(1.9597 0.0327742 0)
(1.96891 0.0441191 0)
(1.99109 0.0349553 0)
(2.0036 0.0198777 0)
(2.00748 0.0221855 0)
(2.01232 0.0244157 0)
(2.02069 0.0239634 0)
(2.03636 0.0202695 0)
(2.05242 0.013174 0)
(2.06027 0.00355843 0)
(2.05944 -0.00641764 0)
(2.05888 -0.0138428 0)
(2.06768 -0.0136813 0)
(2.0796 -0.0121779 0)
(2.09553 -0.00997066 0)
(2.11333 -0.00816709 0)
(2.12861 -0.009182 0)
(2.14259 -0.0115335 0)
(2.15471 -0.0149222 0)
(2.16072 -0.0210598 0)
(2.15549 -0.0321905 0)
(2.14753 -0.0442699 0)
(2.15189 -0.0482255 0)
(2.16223 -0.0479698 0)
(2.17363 -0.047895 0)
(2.1874 -0.0497772 0)
(2.1913 -0.0551427 0)
(2.18664 -0.0712364 0)
(2.15534 -0.115057 0)
(2.09597 -0.19062 0)
(2.05822 -0.24168 0)
(2.03642 -0.27078 0)
(2.02798 -0.284377 0)
(2.02549 -0.298897 0)
(2.02781 -0.313253 0)
(2.03842 -0.315969 0)
(2.05081 -0.310725 0)
(2.06756 -0.302366 0)
(2.0894 -0.295409 0)
(2.10416 -0.293058 0)
(2.11675 -0.294583 0)
(2.12677 -0.296198 0)
(2.13169 -0.301831 0)
(2.1271 -0.31517 0)
(2.12216 -0.328196 0)
(2.12986 -0.331955 0)
(2.14032 -0.330695 0)
(2.15409 -0.326986 0)
(2.17389 -0.321055 0)
(2.18751 -0.317921 0)
(2.19972 -0.319325 0)
(2.21128 -0.320643 0)
(2.21903 -0.322728 0)
(2.21673 -0.329961 0)
(2.20507 -0.34122 0)
(2.20472 -0.346435 0)
(2.21461 -0.346029 0)
(2.22532 -0.343498 0)
(2.24043 -0.339674 0)
(2.25994 -0.334853 0)
(2.27211 -0.333856 0)
(2.28362 -0.335473 0)
(2.29517 -0.336704 0)
(2.30258 -0.3393 0)
(2.29846 -0.345921 0)
(2.28547 -0.354508 0)
(2.28609 -0.356555 0)
(2.29506 -0.354656 0)
(2.30485 -0.35174 0)
(2.31647 -0.348689 0)
(2.3316 -0.345774 0)
(2.34188 -0.344266 0)
(2.35167 -0.344881 0)
(2.36239 -0.345608 0)
(2.3714 -0.346997 0)
(2.37308 -0.350394 0)
(2.36282 -0.355241 0)
(2.3571 -0.357463 0)
(2.3646 -0.357155 0)
(2.37259 -0.356626 0)
(2.3819 -0.355571 0)
(2.39372 -0.35458 0)
(2.40279 -0.354531 0)
(2.4118 -0.356043 0)
(2.42218 -0.358045 0)
(2.43025 -0.361156 0)
(2.43021 -0.364647 0)
(2.42287 -0.362142 0)
(2.42146 -0.354895 0)
(2.42764 -0.350846 0)
(2.4357 -0.3491 0)
(2.44438 -0.347634 0)
(2.45249 -0.345849 0)
(2.46185 -0.346788 0)
(2.47062 -0.349936 0)
(2.47747 -0.355374 0)
(2.48287 -0.360507 0)
(2.58035 0.579039 0)
(2.58754 0.569517 0)
(2.58838 0.552032 0)
(2.5856 0.533421 0)
(2.59053 0.529177 0)
(2.59239 0.529075 0)
(2.59501 0.533028 0)
(2.58181 0.559389 0)
(2.49672 0.667726 0)
(2.37619 0.800224 0)
(2.30454 0.827424 0)
(2.26423 0.863251 0)
(2.24055 0.889434 0)
(2.22915 0.890667 0)
(2.2324 0.875549 0)
(2.24714 0.853428 0)
(2.25876 0.831033 0)
(2.26689 0.825097 0)
(2.26972 0.831242 0)
(2.27191 0.832456 0)
(2.2822 0.833999 0)
(2.29179 0.827756 0)
(2.30751 0.818797 0)
(2.30852 0.788685 0)
(2.2763 0.713305 0)
(2.1816 0.53547 0)
(2.07041 0.326811 0)
(1.97037 0.135372 0)
(1.94463 0.083882 0)
(1.94375 0.0618503 0)
(1.95551 0.0505575 0)
(1.97045 0.0393365 0)
(1.97663 0.0423129 0)
(1.98252 0.0490912 0)
(1.98865 0.0511632 0)
(1.99875 0.0430186 0)
(2.01148 0.0346402 0)
(2.0232 0.0301633 0)
(2.03085 0.0288447 0)
(2.04103 0.0272016 0)
(2.05338 0.0220076 0)
(2.05976 0.0116463 0)
(2.05879 0.00310867 0)
(2.06581 0.00323073 0)
(2.07531 0.00626569 0)
(2.08863 0.00785138 0)
(2.10496 0.00738676 0)
(2.12119 0.00531864 0)
(2.13659 0.00182736 0)
(2.14934 -0.00174875 0)
(2.15854 -0.00621856 0)
(2.15956 -0.0143258 0)
(2.15013 -0.0253859 0)
(2.14868 -0.0312879 0)
(2.15741 -0.0307033 0)
(2.16837 -0.0305149 0)
(2.18208 -0.032056 0)
(2.18649 -0.0369641 0)
(2.18251 -0.0533687 0)
(2.15148 -0.098958 0)
(2.09401 -0.173718 0)
(2.05639 -0.224978 0)
(2.03337 -0.255271 0)
(2.02478 -0.270563 0)
(2.02287 -0.285393 0)
(2.02396 -0.298958 0)
(2.03298 -0.301769 0)
(2.04515 -0.297654 0)
(2.06186 -0.290813 0)
(2.08459 -0.284204 0)
(2.10066 -0.281233 0)
(2.11369 -0.282363 0)
(2.12435 -0.283291 0)
(2.12977 -0.287668 0)
(2.12593 -0.299261 0)
(2.11924 -0.311772 0)
(2.12444 -0.316242 0)
(2.13486 -0.315177 0)
(2.14751 -0.31183 0)
(2.16593 -0.307017 0)
(2.18281 -0.303141 0)
(2.19437 -0.304479 0)
(2.20638 -0.306555 0)
(2.21642 -0.30955 0)
(2.22022 -0.316245 0)
(2.21101 -0.327476 0)
(2.20339 -0.334626 0)
(2.21163 -0.333262 0)
(2.22248 -0.329949 0)
(2.23488 -0.325415 0)
(2.25167 -0.319835 0)
(2.26628 -0.316525 0)
(2.27757 -0.318366 0)
(2.28811 -0.321207 0)
(2.29737 -0.325261 0)
(2.30103 -0.332115 0)
(2.2911 -0.342384 0)
(2.28533 -0.346355 0)
(2.29294 -0.342737 0)
(2.30232 -0.338454 0)
(2.313 -0.334115 0)
(2.32468 -0.329801 0)
(2.33707 -0.326883 0)
(2.34778 -0.327197 0)
(2.35704 -0.328884 0)
(2.36586 -0.331411 0)
(2.37362 -0.335998 0)
(2.3725 -0.342617 0)
(2.36151 -0.346952 0)
(2.36147 -0.34339 0)
(2.36878 -0.339247 0)
(2.3779 -0.337152 0)
(2.38729 -0.335772 0)
(2.3982 -0.334575 0)
(2.40875 -0.335985 0)
(2.4171 -0.339057 0)
(2.42468 -0.342406 0)
(2.43047 -0.347411 0)
(2.43063 -0.353259 0)
(2.42844 -0.354499 0)
(2.43152 -0.349295 0)
(2.43751 -0.342383 0)
(2.44365 -0.336612 0)
(2.45064 -0.333627 0)
(2.4583 -0.333182 0)
(2.46582 -0.334049 0)
(2.47369 -0.335522 0)
(2.47886 -0.337848 0)
(2.47803 -0.34449 0)
(2.58128 0.582589 0)
(2.58222 0.566652 0)
(2.57676 0.548792 0)
(2.57824 0.540107 0)
(2.58459 0.540701 0)
(2.59082 0.539951 0)
(2.59847 0.538705 0)
(2.60164 0.545361 0)
(2.58287 0.578167 0)
(2.50258 0.675563 0)
(2.40022 0.761642 0)
(2.28638 0.844587 0)
(2.24352 0.897814 0)
(2.22628 0.889751 0)
(2.23692 0.874443 0)
(2.24966 0.84939 0)
(2.26138 0.829919 0)
(2.26585 0.834791 0)
(2.26483 0.842538 0)
(2.27216 0.844564 0)
(2.28041 0.845358 0)
(2.28786 0.829339 0)
(2.27864 0.766187 0)
(2.21388 0.615704 0)
(2.06226 0.357359 0)
(1.98178 0.172574 0)
(1.92298 0.055478 0)
(1.9298 0.0242625 0)
(1.91678 0.0376743 0)
(1.93124 0.0648475 0)
(1.94723 0.0746896 0)
(1.97708 0.0681454 0)
(1.99551 0.0552262 0)
(1.99715 0.053508 0)
(1.99588 0.057754 0)
(2.00112 0.0516323 0)
(2.01407 0.0430338 0)
(2.02924 0.0380051 0)
(2.04019 0.0322412 0)
(2.04832 0.0304183 0)
(2.05661 0.0281415 0)
(2.06045 0.0210585 0)
(2.06299 0.0153156 0)
(2.07461 0.0167294 0)
(2.08573 0.019552 0)
(2.09879 0.0214649 0)
(2.11211 0.0204944 0)
(2.1268 0.0177589 0)
(2.1409 0.0139699 0)
(2.15244 0.00932498 0)
(2.15841 0.00176716 0)
(2.15397 -0.00932343 0)
(2.14928 -0.0182979 0)
(2.15635 -0.019317 0)
(2.1661 -0.018621 0)
(2.17933 -0.0202189 0)
(2.18302 -0.0249092 0)
(2.17836 -0.0405191 0)
(2.14652 -0.0859707 0)
(2.0899 -0.160714 0)
(2.05343 -0.211365 0)
(2.02976 -0.241111 0)
(2.02173 -0.255558 0)
(2.01942 -0.271332 0)
(2.02012 -0.286157 0)
(2.02863 -0.289784 0)
(2.04021 -0.285701 0)
(2.05588 -0.278606 0)
(2.07841 -0.272424 0)
(2.09603 -0.269422 0)
(2.10929 -0.270524 0)
(2.12126 -0.271736 0)
(2.1285 -0.275398 0)
(2.12609 -0.285232 0)
(2.11819 -0.298098 0)
(2.12092 -0.303441 0)
(2.13144 -0.302596 0)
(2.14341 -0.2987 0)
(2.15918 -0.293147 0)
(2.17637 -0.287323 0)
(2.18842 -0.287523 0)
(2.20081 -0.289697 0)
(2.21139 -0.29287 0)
(2.21832 -0.299225 0)
(2.21406 -0.312069 0)
(2.20548 -0.324371 0)
(2.21095 -0.325554 0)
(2.22187 -0.322456 0)
(2.2338 -0.316738 0)
(2.2475 -0.30736 0)
(2.25917 -0.300448 0)
(2.27073 -0.300463 0)
(2.28152 -0.301953 0)
(2.29108 -0.305138 0)
(2.29602 -0.31185 0)
(2.29106 -0.325474 0)
(2.2849 -0.335787 0)
(2.2923 -0.335942 0)
(2.30214 -0.332372 0)
(2.31257 -0.326243 0)
(2.32288 -0.319101 0)
(2.33233 -0.313776 0)
(2.3413 -0.311136 0)
(2.35002 -0.310488 0)
(2.35868 -0.311959 0)
(2.36623 -0.316374 0)
(2.36917 -0.323379 0)
(2.36463 -0.334904 0)
(2.36372 -0.339417 0)
(2.37095 -0.336136 0)
(2.37899 -0.330951 0)
(2.38644 -0.324261 0)
(2.39332 -0.319165 0)
(2.40079 -0.317351 0)
(2.40862 -0.318007 0)
(2.4164 -0.320891 0)
(2.42307 -0.324924 0)
(2.42523 -0.331387 0)
(2.42504 -0.337841 0)
(2.43073 -0.339439 0)
(2.43929 -0.337762 0)
(2.44768 -0.332774 0)
(2.45437 -0.325204 0)
(2.45776 -0.318584 0)
(2.4589 -0.316788 0)
(2.46117 -0.319237 0)
(2.46482 -0.322547 0)
(2.46715 -0.32728 0)
(2.47181 -0.330922 0)
(2.57635 0.579789 0)
(2.5707 0.561902 0)
(2.56984 0.552803 0)
(2.57386 0.553621 0)
(2.57965 0.555033 0)
(2.59067 0.554115 0)
(2.60039 0.553199 0)
(2.60608 0.551146 0)
(2.60538 0.555555 0)
(2.58411 0.581257 0)
(2.51407 0.649767 0)
(2.36254 0.769846 0)
(2.26106 0.890175 0)
(2.24101 0.879547 0)
(2.25058 0.858042 0)
(2.25608 0.845049 0)
(2.26139 0.839272 0)
(2.25762 0.850405 0)
(2.26212 0.856869 0)
(2.26605 0.854519 0)
(2.26062 0.821095 0)
(2.20915 0.67994 0)
(2.12165 0.466661 0)
(2.02862 0.27141 0)
(1.93677 0.14852 0)
(1.92578 0.105469 0)
(1.92565 0.085254 0)
(1.93412 0.0579492 0)
(1.94174 0.0664496 0)
(1.9459 0.0759477 0)
(1.95447 0.0865753 0)
(1.97286 0.0843175 0)
(1.99337 0.074724 0)
(2.00173 0.0666433 0)
(2.00314 0.0613305 0)
(2.00675 0.0584331 0)
(2.01746 0.0528707 0)
(2.03304 0.0476436 0)
(2.04622 0.042611 0)
(2.05351 0.0399216 0)
(2.05758 0.0396895 0)
(2.06008 0.0368446 0)
(2.06673 0.0336898 0)
(2.07891 0.0330997 0)
(2.09261 0.0338112 0)
(2.10545 0.0338425 0)
(2.11788 0.0321611 0)
(2.13058 0.029004 0)
(2.14301 0.0248706 0)
(2.15326 0.019148 0)
(2.15549 0.00994239 0)
(2.14876 0.000499592 0)
(2.15088 -0.00156892 0)
(2.16079 -0.00119746 0)
(2.17383 -0.00271009 0)
(2.17805 -0.0078507 0)
(2.1738 -0.0247075 0)
(2.14128 -0.0720243 0)
(2.08473 -0.14812 0)
(2.0491 -0.200132 0)
(2.02596 -0.229091 0)
(2.01923 -0.2411 0)
(2.01721 -0.256647 0)
(2.01677 -0.272314 0)
(2.0235 -0.27576 0)
(2.03489 -0.271493 0)
(2.04985 -0.264138 0)
(2.07155 -0.258454 0)
(2.0904 -0.255755 0)
(2.1037 -0.256993 0)
(2.11621 -0.258916 0)
(2.1252 -0.26326 0)
(2.126 -0.27275 0)
(2.1189 -0.285366 0)
(2.1187 -0.291413 0)
(2.12905 -0.290506 0)
(2.14058 -0.286392 0)
(2.15484 -0.280135 0)
(2.17086 -0.273676 0)
(2.18336 -0.272823 0)
(2.19595 -0.27426 0)
(2.20685 -0.276025 0)
(2.2147 -0.28048 0)
(2.21296 -0.292065 0)
(2.20534 -0.307264 0)
(2.20944 -0.313223 0)
(2.21962 -0.312199 0)
(2.2318 -0.306979 0)
(2.24641 -0.299193 0)
(2.25859 -0.293744 0)
(2.26998 -0.291619 0)
(2.27934 -0.289204 0)
(2.28607 -0.288523 0)
(2.28971 -0.292493 0)
(2.28646 -0.304197 0)
(2.28186 -0.316167 0)
(2.28878 -0.319962 0)
(2.29779 -0.318311 0)
(2.30923 -0.313753 0)
(2.32103 -0.30912 0)
(2.33168 -0.306557 0)
(2.34163 -0.304562 0)
(2.3497 -0.302285 0)
(2.3564 -0.300788 0)
(2.36214 -0.301209 0)
(2.36432 -0.305797 0)
(2.35999 -0.316066 0)
(2.36048 -0.321752 0)
(2.36988 -0.322724 0)
(2.37868 -0.319977 0)
(2.38739 -0.315927 0)
(2.39569 -0.312435 0)
(2.40275 -0.308857 0)
(2.40786 -0.305803 0)
(2.41228 -0.304496 0)
(2.41595 -0.305657 0)
(2.41745 -0.31189 0)
(2.41819 -0.317963 0)
(2.42548 -0.320853 0)
(2.43455 -0.321606 0)
(2.44382 -0.320345 0)
(2.45308 -0.318126 0)
(2.46155 -0.315604 0)
(2.46704 -0.311404 0)
(2.46695 -0.306493 0)
(2.46267 -0.305239 0)
(2.45926 -0.310655 0)
(2.46321 -0.314738 0)
(2.47097 -0.315719 0)
(2.56441 0.57435 0)
(2.56315 0.564096 0)
(2.56635 0.564614 0)
(2.57078 0.566765 0)
(2.58024 0.569071 0)
(2.59172 0.569542 0)
(2.59777 0.567523 0)
(2.60808 0.560641 0)
(2.61336 0.54813 0)
(2.5996 0.54855 0)
(2.57987 0.566113 0)
(2.47534 0.658368 0)
(2.33517 0.814751 0)
(2.2884 0.853582 0)
(2.26066 0.846897 0)
(2.25892 0.847097 0)
(2.25025 0.861436 0)
(2.25068 0.868142 0)
(2.24839 0.852336 0)
(2.21362 0.762334 0)
(2.10989 0.536277 0)
(2.02146 0.298907 0)
(1.93117 0.138577 0)
(1.90986 0.0728762 0)
(1.90281 0.0663491 0)
(1.90098 0.0768833 0)
(1.91567 0.0948047 0)
(1.93425 0.0920977 0)
(1.95921 0.0864062 0)
(1.9675 0.0866469 0)
(1.97194 0.092975 0)
(1.97795 0.0963192 0)
(1.9917 0.0873674 0)
(2.00229 0.0764655 0)
(2.00756 0.0689735 0)
(2.01549 0.0632594 0)
(2.02463 0.0614546 0)
(2.03761 0.0591627 0)
(2.05146 0.0557184 0)
(2.06052 0.0508945 0)
(2.06351 0.0466797 0)
(2.06523 0.0453958 0)
(2.0731 0.0450971 0)
(2.0853 0.0444006 0)
(2.0988 0.0441036 0)
(2.11174 0.0433914 0)
(2.12338 0.041925 0)
(2.1341 0.0394259 0)
(2.1439 0.0355195 0)
(2.15048 0.0286034 0)
(2.14953 0.0187588 0)
(2.14923 0.0113052 0)
(2.15716 0.0112542 0)
(2.17005 0.00996223 0)
(2.1739 0.00499988 0)
(2.16877 -0.0116401 0)
(2.13601 -0.0582938 0)
(2.07628 -0.138057 0)
(2.04299 -0.191252 0)
(2.02088 -0.218982 0)
(2.01651 -0.227309 0)