/*--------------------------------*- C++ -*----------------------------------*\
  =========                 |
  \\      /  F ield         | OpenFOAM: The Open Source CFD Toolbox
   \\    /   O peration     | Website:  https://openfoam.org
    \\  /    A nd           | Version:  7
     \\/     M anipulation  |
\*---------------------------------------------------------------------------*/
FoamFile
{
    version     2.0;
    format      ascii;
    class       volScalarField;
    location    "1.9";
    object      p;
}
// * * * * * * * * * * * * * * * * * * * * * * * * * * * * * * * * * * * * * //

dimensions      [1 -1 -2 0 0 0 0];

internalField   nonuniform List<scalar> 
4128
(
1
1
1
1
1
1
1
1
1
1
1
1
1
1
1
1
1
1
1
1
1
1
1
1
1
1
1
1
1
1
1
1
1
1
1
1
1
1
1
1
1
1
1
1
1
1
1
1
1
1
1
1
1
1
1
1
1
1
1
1
1
1
1
1
1
1
1
1
1
1
1
1
4.52611
10.1797
10.5384
10.6235
10.743
10.8494
10.9536
11.053
11.148
11.2387
11.3244
11.4045
11.4799
11.5515
11.6196
11.684
11.7445
11.8012
11.8536
11.9007
11.9415
11.9739
11.9975
12.014
1
1
1
1
1
1
1
1
1
1
1
1
1
1
1
1
1
1
1
1
1
1
1
1
1
1
1
1
1
1
1
1
1
1
1
1
1
1
1
1
1
1
1
1
1
1
1
1
1
1
1
1
1
1
1
1
1
1
1
1
1
1
1
1
1
1
1
1
1
1
1
1
4.45299
10.1373
10.5314
10.6192
10.7383
10.8447
10.9485
11.0475
11.142
11.2322
11.3175
11.3973
11.4724
11.5435
11.6109
11.6744
11.7339
11.7895
11.8411
11.8873
11.9276
11.9595
11.983
11.9995
1
1
1
1
1
1
1
1
1
1
1
1
1
1
1
1
1
1
1
1
1
1
1
1
1
1
1
1
1
1
1
1
1
1
1
1
1
1
1
1
1
1
1
1
1
1
1
1
1
1
1
1
1
1
1
1
1
1
1
1
1
1
1
1
1
1
1
1
1
1
1
1
4.28857
10.0839
10.515
10.6058
10.7253
10.8326
10.9367
11.0357
11.1299
11.2198
11.3048
11.3847
11.4598
11.5307
11.5977
11.6603
11.7187
11.773
11.8229
11.8674
11.9059
11.9365
11.959
11.975
1
1
1
1
1
1
1
1
1
1
1
1
1
1
1
1
1
1
1
1
1
1
1
1
1
1
1
1
1
1
1
1
1
1
1
1
1
1
1
1
1
1
1
1
1
1
1
1
1
1
1
1
1
1
1
1
1
1
1
1
1
1
1
1
1
1
1
1
1
1
1
1
4.05123
9.99785
10.4969
10.5893
10.7086
10.8158
10.9194
11.0177
11.111
11.2001
11.2844
11.3638
11.4384
11.5088
11.575
11.6367
11.694
11.747
11.7957
11.8386
11.8753
11.9043
11.9251
11.9401
1
1
1
1
1
1
1
1
1
1
1
1
1
1
1
1
1
1
1
1
1
1
1
1
1
1
1
1
1
1
1
1
1
1
1
1
1
1
1
1
1
1
1
1
1
1
1
1
1
1
1
1
1
1
1
1
1
1
1
1
1
1
1
1
1
1
1
1
1
1
1
1
3.74738
9.86906
10.4762
10.569
10.6881
10.7949
10.8977
10.9952
11.0876
11.1758
11.2589
11.3374
11.4109
11.48
11.5449
11.6053
11.6611
11.7125
11.7594
11.8004
11.8353
11.8629
11.8823
11.8967
1
1
1
1
1
1
1
1
1
1
1
1
1
1
1
1
1
1
1
1
1
1
1
1
1
1
1
1
1
1
1
1
1
1
1
1
1
1
1
1
1
1
1
1
1
1
1
1
1
1
1
1
1
1
1
1
1
1
1
1
1
1
1
1
1
1
1
1
1
1
1
1
3.38061
9.68557
10.4535
10.5453
10.664
10.7694
10.8712
10.9675
11.0586
11.1452
11.2269
11.304
11.3762
11.4438
11.5071
11.566
11.6203
11.6698
11.7146
11.7533
11.7857
11.8113
11.8287
11.842
1
1
1
1
1
1
1
1
1
1
1
1
1
1
1
1
1
1
1
1
1
1
1
1
1
1
1
1
1
1
1
1
1
1
1
1
1
1
1
1
1
1
1
1
1
1
1
1
1
1
1
1
1
1
1
1
1
1
1
1
1
1
1
1
1
1
1
1
1
1
1
1
2.95874
9.42675
10.4293
10.5181
10.6352
10.7381
10.8379
10.9325
11.0219
11.1067
11.1867
11.2618
11.3319
11.3973
11.4584
11.5153
11.5676
11.6151
11.6578
11.6945
11.725
11.7491
11.7648
11.7775
1
1
1
1
1
1
1
1
1
1
1
1
1
1
1
1
1
1
1
1
1
1
1
1
1
1
1
1
1
1
1
1
1
1
1
1
1
1
1
1
1
1
1
1
1
1
1
1
1
1
1
1
1
1
1
1
1
1
1
1
1
1
1
1
1
1
1
1
1
1
1
1
2.50771
9.07823
10.4208
10.4934
10.6096
10.7085
10.8054
10.8968
10.983
11.0642
11.1408
11.2125
11.2796
11.3418
11.4
11.4542
11.5042
11.5495
11.5899
11.6239
11.6514
11.6727
11.6858
11.6969
1
1
1
1
1
1
1
1
1
1
1
1
1
1
1
1
1
1
1
1
1
1
1
1
1
1
1
1
1
1
1
1
1
1
1
1
1
1
1
1
1
1
1
1
1
1
1
1
1
1
1
1
1
1
1
1
1
1
1
1
1
1
1
1
1
1
1
1
1
1
1
1
2.03916
8.60483
10.4223
10.4703
10.5819
10.6747
10.7686
10.8573
10.9408
11.0185
11.0917
11.1597
11.223
11.2807
11.3341
11.3834
11.4287
11.4693
11.5054
11.5361
11.5609
11.5805
11.5924
11.6035
1
1
1
1
1
1
1
1
1
1
1
1
1
1
1
1
1
1
1
1
1
1
1
1
1
1
1
1
1
1
1
1
1
1
1
1
1
1
1
1
1
1
1
1
1
1
1
1
1
1
1
1
1
1
1
1
1
1
1
1
1
1
1
1
1
1
1
1
1
1
1
1
1.58155
8.03019
10.4454
10.4311
10.5432
10.6321
10.7242
10.8098
10.8904
10.9654
11.0356
11.1001
11.1596
11.2123
11.2598
11.303
11.3424
11.3779
11.4092
11.4354
11.455
11.4686
11.4755
11.4826
1
1
1
1
1
1
1
1
1
1
1
1
1
1
1
1
1
1
1
1
1
1
1
1
1
1
1
1
1
1
1
1
1
1
1
1
1
1
1
1
1
1
1
1
1
1
1
1
1
1
1
1
1
1
1
1
1
1
1
1
1
1
1
1
1
1
1
1
1
1
1
1
1.1754
7.30134
10.4421
10.4016
10.4963
10.5746
10.6615
10.7468
10.8267
10.8997
10.9671
11.0288
11.0849
11.133
11.1747
11.2112
11.2431
11.2699
11.2917
11.3083
11.3203
11.3289
11.3337
11.3418
1
1
1
1
1
1
1
1
1
1
1
1
1
1
1
1
1
1
1
1
1
1
1
1
1
1
1
1
1
1
1
1
1
1
1
1
1
1
1
1
1
1
1
1
1
1
1
1
1
1
1
1
1
1
1
1
1
1
1
1
1
1
1
1
1
1
1
1
1
1
1
1
1.0065
6.45209
10.2401
10.2892
10.4026
10.4958
10.587
10.6694
10.7465
10.8217
10.8883
10.9473
10.9995
11.043
11.0782
11.1063
11.1288
11.1459
11.1578
11.1659
11.169
11.1635
11.1529
11.1455
1
1
1
1
1
1
1
1
1
1
1
1
1
1
1
1
1
1
1
1
1
1
1
1
1
1
1
1
1
1
1
1
1
1
1
1
1
1
1
1
1
1
1
1
1
1
1
1
1
1
1
1
1
1
1
1
1
1
1
1
1
1
1
1
1
1
1
1
1
1
1
1
1.00002
5.45437
10.047
10.2197
10.3325
10.4306
10.5204
10.6013
10.6761
10.7374
10.7973
10.8518
10.8989
10.9371
10.9655
10.9859
10.9989
11.0026
10.9988
10.9857
10.9626
10.9376
10.9118
10.9116
1
1
1
1
1
1
1
1
1
1
1
1
1
1
1
1
1
1
1
1
1
1
1
1
1
1
1
1
1
1
1
1
1
1
1
1
1
1
1
1
1
1
1
1
1
1
1
1
1
1
1
1
1
1
1
1
1
1
1
1
1
1
1
1
1
1
1
1
1
1
1
1
1
4.38377
9.70272
10.148
10.269
10.3718
10.4529
10.5204
10.5796
10.6384
10.6924
10.7397
10.7807
10.8134
10.8356
10.8472
10.8472
10.8342
10.8099
10.7762
10.7329
10.6869
10.6182
10.5408
1
1
1
1
1
1
1
1
1
1
1
1
1
1
1
1
1
1
1
1
1
1
1
1
1
1
1
1
1
1
1
1
1
1
1
1
1
1
1
1
1
1
1
1
1
1
1
1
1
1
1
1
1
1
1
1
1
1
1
1
1
1
1
1
1
1
1
1
1
1
1
1
1
3.31603
9.23409
10.0919
10.2204
10.3241
10.398
10.4549
10.5022
10.5455
10.5861
10.6243
10.6552
10.6784
10.6915
10.6911
10.6757
10.6446
10.5964
10.5288
10.4286
10.2876
10.1409
10.0322
1
1
1
1
1
1
1
1
1
1
1
1
1
1
1
1
1
1
1
1
1
1
1
1
1
1
1
1
1
1
1
1
1
1
1
1
1
1
1
1
1
1
1
1
1
1
1
1
1
1
1
1
1
1
1
1
1
1
1
1
1
1
1
1
1
1
1
1
1
1
1
1
1
2.216
8.45861
10.1697
10.2055
10.2715
10.3264
10.3754
10.4181
10.4541
10.4852
10.5085
10.5247
10.5345
10.5347
10.5177
10.4848
10.4296
10.3461
10.2275
10.0645
9.86047
9.64474
9.54777
1
1
1
1
1
1
1
1
1
1
1
1
1
1
1
1
1
1
1
1
1
1
1
1
1
1
1
1
1
1
1
1
1
1
1
1
1
1
1
1
1
1
1
1
1
1
1
1
1
1
1
1
1
1
1
1
1
1
1
1
1
1
1
1
1
1
1
1
1
1
1
1
1
1.28513
7.59073
10.2792
10.1358
10.1761
10.2396
10.2899
10.3299
10.3583
10.3795
10.3925
10.3962
10.3898
10.3719
10.3371
10.2812
10.1968
10.0755
9.90975
9.66678
9.27983
8.4207
6.48025
1
1
1
1
1
1
1
1
1
1
1
1
1
1
1
1
1
1
1
1
1
1
1
1
1
1
1
1
1
1
1
1
1
1
1
1
1
1
1
1
1
1
1
1
1
1
1
1
1
1
1
1
1
1
1
1
1
1
1
1
1
1
1
1
1
1
1
1
1
1
1
1
1
1.00974
6.35187
9.96905
9.97622
10.0665
10.1323
10.188
10.2288
10.2538
10.2678
10.2719
10.2625
10.2397
10.2029
10.149
10.0676
9.95217
9.78933
9.55753
9.21236
8.61434
7.67863
5.50622
1
1
1
1
1
1
1
1
1
1
1
1
1
1
1
1
1
1
1
1
1
1
1
1
1
1
1
1
1
1
1
1
1
1
1
1
1
1
1
1
1
1
1
1
1
1
1
1
1
1
1
1
1
1
1
1
1
1
1
1
1
1
1
1
1
1
1
1
1
1
1
1
1
0.999962
4.7872
9.55119
9.88435
9.98857
10.038
10.084
10.123
10.1438
10.151
10.147
10.1253
10.088
10.0327
9.95786
9.85249
9.70504
9.50176
9.21026
8.7881
8.12257
7.06281
5.12724
1
1
1
1
1
1
1
1
1
1
1
1
1
1
1
1
1
1
1
1
1
1
1
1
1
1
1
1
1
1
1
1
1
1
1
1
1
1
1
1
1
1
1
1
1
1
1
1
1
1
1
1
1
1
1
1
1
1
1
1
1
1
1
1
1
1
1
1
1
1
1
1
1
0.99999
3.26497
8.98619
9.86127
9.92326
9.97411
9.99931
10.0225
10.0324
10.0309
10.0178
9.98544
9.93464
9.86128
9.76449
9.63615
9.46063
9.22159
8.88809
8.4088
7.74239
6.62469
5.1105
1
1
1
1
1
1
1
1
1
1
1
1
1
1
1
1
1
1
1
1
1
1
1
1
1
1
1
1
1
1
1
1
1
1
1
1
1
1
1
1
1
1
1
1
1
1
1
1
1
1
1
1
1
1
1
1
1
1
1
1
1
1
1
1
1
1
1
1
1
1
1
1
1
0.999998
1.89181
8.15424
9.88259
9.85006
9.89335
9.91927
9.93288
9.93096
9.91646
9.89053
9.84582
9.78156
9.69184
9.5756
9.42512
9.22684
8.96081
8.6007
8.10172
7.43525
6.39568
5.19722
1
1
1
1
1
1
1
1
1
1
1
1
1
1
1
1
1
1
1
1
1
1
1
1
1
1
1
1
1
1
1
1
1
1
1
1
1
1
1
1
1
1
1
1
1
1
1
1
1
1
1
1
1
1
1
1
1
1
1
1
1
1
1
1
1
1
1
1
1
1
1
1
1
1
1.09097
6.73585
9.86452
9.79388
9.79248
9.82189
9.83017
9.82106
9.79718
9.76062
9.70526
9.62948
9.52654
9.39375
9.22417
9.00682
8.72285
8.34889
7.85207
7.20334
6.29401
5.32179
1
1
1
1
1
1
1
1
1
1
1
1
1
1
1
1
1
1
1
1
1
1
1
1
1
1
1
1
1
1
1
1
1
1
1
1
1
1
1
1
1
1
1
1
1
1
1
1
1
1
1
1
1
1
1
1
1
1
1
1
1
1
1
1
1
1
1
1
1
1
1
1
1
1
1.00054
4.94942
9.31934
9.62355
9.69879
9.7247
9.72283
9.70808
9.67707
9.63141
9.56666
9.47955
9.36537
9.21933
9.03529
8.80457
8.51161
8.13507
7.6497
7.04047
6.25724
5.45106
1
1
1
1
1
1
1
1
1
1
1
1
1
1
1
1
1
1
1
1
1
1
1
1
1
1
1
1
1
1
1
1
1
1
1
1
1
1
1
1
1
1
1
1
1
1
1
1
1
1
1
1
1
1
1
1
1
1
1
1
1
1
1
1
1
1
1
1
1
1
1
1
1
1
0.999993
2.98004
8.69021
9.61084
9.61802
9.64091
9.63615
9.61139
9.56908
9.51116
9.43533
9.3371
9.21255
9.05626
8.86162
8.62184
8.32527
7.9546
7.49276
6.92621
6.24582
5.56406
1
1
1
1
1
1
1
1
1
1
1
1
1
1
1
1
1
1
1
1
1
1
1
1
1
1
1
1
1
1
1
1
1
1
1
1
1
1
1
1
1
1
1
1
1
1
1
1
1
1
1
1
1
1
1
1
1
1
1
1
1
1
1
1
1
1
1
1
1
1
1
1
1
1
0.999998
1.41356
7.66157
9.72442
9.58007
9.53376
9.52373
9.49583
9.44984
9.38568
9.30249
9.19734
9.06528
8.9015
8.70088
8.45737
8.16249
7.8009
7.36654
6.84263
6.24854
5.65901
1
1
1
1
1
1
1
1
1
1
1
1
1
1
1
1
1
1
1
1
1
1
1
1
1
1
1
1
1
1
1
1
1
1
1
1
1
1
1
1
1
1
1
1
1
1
1
1
1
1
1
1
1
1
1
1
1
1
1
1
1
1
1
1
1
1
1
1
1
1
1
1
1
1
1
1.01731
5.91736
9.26216
9.37229
9.42066
9.41467
9.38026
9.33128
9.26332
9.17512
9.06384
8.92642
8.75799
8.55373
8.31036
8.02125
7.66911
7.2612
6.781
6.25669
5.73624
1
1
1
1
1
1
1
1
1
1
1
1
1
1
1
1
1
1
1
1
1
1
1
1
1
1
1
1
1
1
1
1
1
1
1
1
1
1
1
1
1
1
1
1
1
1
1
1
1
1
1
1
1
1
1
1
1
1
1
1
1
1
1
1
1
1
1
1
1
1
1
1
1
1
1
0.999904
3.58573
8.71588
9.31457
9.33537
9.33079
9.2951
9.23767
9.15887
9.06042
8.94068
8.79658
8.62546
8.42041
8.18074
7.89603
7.55678
7.1748
6.73437
6.27179
5.79888
1
1
1
1
1
1
1
1
1
1
1
1
1
1
1
1
1
1
1
1
1
1
1
1
1
1
1
1
1
1
1
1
1
1
1
1
1
1
1
1
1
1
1
1
1
1
1
1
1
1
1
1
1
1
1
1
1
1
1
1
1
1
1
1
1
1
1
1
1
1
1
1
1
1
1
0.999975
1.63224
7.85025
9.45607
9.30126
9.2319
9.18628
9.12461
9.04302
8.94198
8.81942
8.67239
8.50103
8.29617
8.06393
7.78037
7.45981
7.10368
6.69853
6.28537
5.84445
1
1
1
1
1
1
1
1
1
1
1
1
1
1
1
1
1
1
1
1
1
1
1
1
1
1
1
1
1
1
1
1
1
1
1
1
1
1
1
1
1
1
1
1
1
1
1
1
1
1
1
1
1
1
1
1
1
1
1
1
1
1
1
1
1
1
1
1
1
1
1
1
1
1
1
0.999996
1.0377
6.03501
9.04126
9.09599
9.11118
9.07842
9.01624
8.93398
8.8308
8.70672
8.55898
8.38769
8.19048
7.95633
7.68055
7.37988
7.04646
6.67563
6.3
5.89041
1
1
1
1
1
1
1
1
1
1
1
1
1
1
1
1
1
1
1
1
1
1
1
1
1
1
1
1
1
1
1
1
1
1
1
1
1
1
1
1
1
1
1
1
1
1
1
1
1
1
1
1
1
1
1
1
1
1
1
1
1
1
1
1
1
1
1
1
1
1
1
1
1
1
1
1
0.999945
3.41044
8.4428
9.05668
9.03821
8.99875
8.93695
8.84802
8.73709
8.60677
8.45662
8.28396
8.08828
7.85904
7.59607
7.31225
6.99571
6.6558
6.30732
5.92762
1
1
1
1
1
1
1
1
1
1
1
1
1
1
1
1
1
1
1
1
1
1
1
1
1
1
1
1
1
1
1
1
1
1
1
1
1
1
1
1
1
1
1
1
1
1
1
1
1
1
1
1
1
1
1
1
1
1
1
1
1
1
1
1
1
1
1
1
1
1
1
1
1
1
1
1
0.999981
1.39504
7.38844
9.20102
9.01199
8.9121
8.83696
8.74398
8.63402
8.50699
8.35964
8.18972
7.99479
7.77485
7.52637
7.25731
6.95615
6.64141
6.31265
5.96339
1
1
1
1
1
1
1
1
1
1
1
1
1
1
1
1
1
1
1
1
1
1
1
1
1
1
1
1
1
1
1
1
1
1
1
1
1
1
1
1
1
1
1
1
1
1
1
1
1
1
1
1
1
1
1
1
1
1
1
1
1
1
1
1
1
1
1
1
1
1
1
1
1
1
1
1
0.999997
1.01408
5.31537
8.70004
8.78055
8.78893
8.72974
8.64062
8.53626
8.41445
8.27125
8.1053
7.91418
7.69897
7.46284
7.20657
6.92281
6.62754
6.31471
5.99242
1
1
1
1
1
1
1
1
1
1
1
1
1
1
1
1
1
1
1
1
1
1
1
1
1
1
1
1
1
1
1
1
1
1
1
1
1
1
1
1
1
1
1
1
1
1
1
1
1
1
1
1
1
1
1
1
1
1
1
1
1
1
1
1
1
1
1
1
1
1
1
1
1
1
1
1
1
0.999922
2.5934
8.02468
8.77622
8.7385
8.66269
8.572
8.46728
8.34499
8.20097
8.03464
7.84549
7.63423
7.40681
7.16133
6.8946
6.61453
6.3198
6.01959
1
1
1
1
1
1
1
1
1
1
1
1
1
1
1
1
1
1
1
1
1
1
1
1
1
1
1
1
1
1
1
1
1
1
1
1
1
1
1
1
1
1
1
1
1
1
1
1
1
1
1
1
1
1
1
1
1
1
1
1
1
1
1
1
1
1
1
1
1
1
1
1
1
1
1
1
1
0.99998
1.18901
6.34868
8.75901
8.66406
8.58189
8.49059
8.38894
8.2689
8.12582
7.96187
7.77781
7.57493
7.35699
7.1218
6.86826
6.60098
6.32445
6.04106
1
1
1
1
1
1
1
1
1
1
1
1
1
1
1
1
1
1
1
1
1
1
1
1
1
1
1
1
1
1
1
1
1
1
1
1
1
1
1
1
1
1
1
1
1
1
1
1
1
1
1
1
1
1
1
1
1
1
1
1
1
1
1
1
1
1
1
1
1
1
1
1
1
1
1
1
1
0.999997
1.0026
3.61237
8.12478
8.51991
8.47987
8.41728
8.325
8.20583
8.06205
7.90002
7.72101
7.5258
7.31538
7.08804
6.84486
6.59056
6.3293
6.05993
1
1
1
1
1
1
1
1
1
1
1
1
1
1
1
1
1
1
1
1
1
1
1
1
1
1
1
1
1
1
1
1
1
1
1
1
1
1
1
1
1
1
1
1
1
1
1
1
1
1
1
1
1
1
1
1
1
1
1
1
1
1
1
1
1
1
1
1
1
1
1
1
1
1
1
1
1
1
0.999992
1.4398
6.85276
8.62603
8.475
8.38479
8.27711
8.14748
8.00079
7.84037
7.66618
7.47808
7.27525
7.05619
6.82279
6.58058
6.33184
6.07601
1
1
1
1
1
1
1
1
1
1
1
1
1
1
1
1
1
1
1
1
1
1
1
1
1
1
1
1
1
1
1
1
1
1
1
1
1
1
1
1
1
1
1
1
1
1
1
1
1
1
1
1
1
1
1
1
1
1
1
1
1
1
1
1
1
1
1
1
1
1
1
1
1
1
1
1
1
1
0.999998
1.01578
4.35539
8.15053
8.32128
8.28706
8.19679
8.07556
7.93609
7.78182
7.61424
7.43328
7.23753
7.02694
6.80357
6.57219
6.33468
6.09139
1
1
1
1
1
1
1
1
1
1
1
1
1
1
1
1
1
1
1
1
1
1
1
1
1
1
1
1
1
1
1
1
1
1
1
1
1
1
1
1
1
1
1
1
1
1
1
1
1
1
1
1
1
1
1
1
1
1
1
1
1
1
1
1
1
1
1
1
1
1
1
1
1
1
1
1
1
1
1
1.00001
1.69583
7.0777
8.44289
8.28541
8.16471
8.03544
7.89388
7.7402
7.57433
7.3946
7.20152
6.99726
6.78361
6.56287
6.33667
6.10566
1
1
1
1
1
1
1
1
1
1
1
1
1
1
1
1
1
1
1
1
1
1
1
1
1
1
1
1
1
1
1
1
1
1
1
1
1
1
1
1
1
1
1
1
1
1
1
1
1
1
1
1
1
1
1
1
1
1
1
1
1
1
1
1
1
1
1
1
1
1
1
1
1
1
1
1
1
1
1
1
1.03827
4.76123
8.07731
8.15474
8.07606
7.96636
7.83675
7.69004
7.52783
7.35185
7.16398
6.96749
6.76435
6.55496
6.33983
6.11952
1
1
1
1
1
1
1
1
1
1
1
1
1
1
1
1
1
1
1
1
1
1
1
1
1
1
1
1
1
1
1
1
1
1
1
1
1
1
1
1
1
1
1
1
1
1
1
1
1
1
1
1
1
1
1
1
1
1
1
1
1
1
1
1
1
1
1
1
1
1
1
1
1
1
1
1
1
1
1
1
1.00011
1.87773
7.08061
8.23522
8.06618
7.93794
7.80381
7.65603
7.49559
7.32351
7.14136
6.95148
6.75497
6.55271
6.34542
6.13343
1
1
1
1
1
1
1
1
1
1
1
1
1
1
1
1
1
1
1
1
1
1
1
1
1
1
1
1
1
1
1
1
1
1
1
1
1
1
1
1
1
1
1
1
1
1
1
1
1
1
1
1
1
1
1
1
1
1
1
1
1
1
1
1
1
1
1
1
1
1
1
1
1
1
1
1
1
1
1
1
1
1.05837
4.84807
7.93427
7.96513
7.87416
7.75302
7.61207
7.45623
7.28803
7.11063
6.92682
6.73761
6.5434
6.34631
6.14609
1.23803
0.188297
0.0598372
0.081526
0.0721936
0.0725584
0.096067
0.140166
2.2032
0.835716
0.423171
0.394027
0.317705
0.224513
0.201689
0.208464
2.91056
1.77101
1.11398
0.830892
0.626808
0.440988
0.388127
0.37669
3.55873
2.46978
1.74127
1.3699
1.08195
0.783651
0.678542
0.63272
4.03488
3.09483
2.34545
1.86872
1.54033
1.23191
1.03945
0.925871
4.37234
3.53036
2.87086
2.37133
1.94973
1.62597
1.42347
1.23469
4.64421
3.89102
3.29039
2.7945
2.33424
2.0113
1.78109
1.54967
4.85075
4.18429
3.64436
3.15281
2.68352
2.36772
2.10651
1.86482
5.03181
4.44412
3.93924
3.45376
3.02315
2.69586
2.41189
2.13143
5.16658
4.65224
4.18041
3.71273
3.32487
2.98903
2.69148
2.40697
5.28777
4.83585
4.38088
3.94436
3.58949
3.25333
2.93019
2.65995
5.38744
4.97426
4.54165
4.15116
3.81035
3.46658
3.14976
2.90551
5.48274
5.08999
4.68619
4.32925
3.99812
3.65633
3.36175
3.10605
5.5576
5.18381
4.81372
4.48273
4.15327
3.82436
3.55985
3.30419
5.61858
5.2637
4.92708
4.60986
4.2865
3.9928
3.72534
3.46778
5.66652
5.33451
5.02362
4.71437
4.41
4.13992
3.87351
3.60774
5.70993
5.40218
5.10518
4.80616
4.52758
4.26306
3.99858
3.74469
5.74846
5.46161
5.17466
4.89224
4.63102
4.37066
4.10806
3.87954
5.78497
5.51191
5.23832
4.97512
4.71973
4.46356
4.22171
3.99884
5.81694
5.55464
5.29662
5.04766
4.79728
4.55203
4.32768
4.10633
5.84418
5.59475
5.35084
5.10955
4.86928
4.64182
4.4205
4.20135
5.86902
5.63297
5.40031
5.16565
4.93859
4.7221
4.5043
4.28821
5.89491
5.66972
5.44463
5.22188
5.00635
4.79277
4.58017
4.37985
5.91946
5.70408
5.48735
5.27538
5.06728
4.85757
4.65442
4.46318
)
;

boundaryField
{
    inlet
    {
        type            fixedValue;
        value           uniform 1;
    }
    outlet
    {
        type            zeroGradient;
    }
    bottom
    {
        type            zeroGradient;
    }
    top
    {
        type            zeroGradient;
    }
    obstacle
    {
        type            zeroGradient;
    }
    defaultFaces
    {
        type            empty;
    }
    procBoundary0to1
    {
        type            processor;
        value           nonuniform List<scalar> 
24
(
0.19876
0.209643
0.340761
0.563534
0.819077
1.09219
1.3319
1.62268
1.90655
2.17755
2.43435
2.65871
2.86562
3.04503
3.21019
3.37595
3.52895
3.66191
3.78046
3.8858
3.98903
4.09386
4.18797
4.27289
)
;
    }
    procBoundary0to4
    {
        type            processor;
        value           nonuniform List<scalar> 
105
(
1
1
1
1
1
1
1
1
1
1
1
1
1
1
1
1
1
1
1
1
1
1
1
1
1
1
1
1
1
1
1
1
1
1
1
1
1
1
1
1
1
1
1
1
1
1
1
1
1
1
1
1
1
1
1
1
1
1
1
1
1
1
1
1
1
1
1
1
1
1
1
1
1
1
1
1
1
1
1
1
1
1.0003
1.93696
6.88239
7.99679
7.85308
7.72342
7.58
7.42401
7.25929
7.08858
6.91311
6.73338
6.54797
6.35877
6.16694
5.9413
5.9413
5.7357
5.53123
5.32559
5.12065
4.92145
4.72767
4.53544
)
;
    }
}


// ************************************************************************* //
