/*--------------------------------*- C++ -*----------------------------------*\
  =========                 |
  \\      /  F ield         | OpenFOAM: The Open Source CFD Toolbox
   \\    /   O peration     | Website:  https://openfoam.org
    \\  /    A nd           | Version:  7
     \\/     M anipulation  |
\*---------------------------------------------------------------------------*/
FoamFile
{
    version     2.0;
    format      ascii;
    class       volVectorField;
    location    "2.5";
    object      U;
}
// * * * * * * * * * * * * * * * * * * * * * * * * * * * * * * * * * * * * * //

dimensions      [0 1 -1 0 0 0 0];

internalField   nonuniform List<vector> 
16192
(
(3 3.6867e-16 0)
(3 1.28969e-16 0)
(3 4.72805e-16 0)
(3 5.26209e-16 0)
(3 9.40812e-16 0)
(3 4.98171e-16 0)
(3 -9.69113e-17 0)
(3 9.62082e-16 0)
(3 2.61963e-15 0)
(3 2.30678e-14 0)
(3 4.77677e-09 0)
(2.99997 8.5593e-05 0)
(3.00303 0.0435289 0)
(2.46149 0.713283 0)
(1.96143 0.978352 0)
(1.94351 0.975047 0)
(1.94921 0.971197 0)
(1.95932 0.964914 0)
(1.9717 0.957992 0)
(1.98157 0.951314 0)
(3 -3.88049e-16 0)
(3 -8.4004e-17 0)
(3 -3.41379e-16 0)
(3 -2.64518e-16 0)
(3 3.31992e-16 0)
(3 4.58634e-16 0)
(3 1.12174e-15 0)
(3 2.3137e-15 0)
(3 2.66115e-15 0)
(3 1.59807e-16 0)
(3 2.63825e-11 0)
(3 1.36686e-06 0)
(2.99953 0.00429472 0)
(2.83966 0.357935 0)
(2.1553 0.900486 0)
(1.95228 0.964307 0)
(1.95149 0.966204 0)
(1.95789 0.964133 0)
(1.97182 0.957952 0)
(1.98237 0.951713 0)
(3 1.03833e-15 0)
(3 1.18246e-15 0)
(3 2.18733e-16 0)
(3 1.41629e-15 0)
(3 1.49842e-15 0)
(3 1.59422e-15 0)
(3 2.86767e-15 0)
(3 2.2572e-15 0)
(3 1.49932e-15 0)
(3 -9.17133e-16 0)
(3 7.71594e-14 0)
(3 1.30006e-08 0)
(2.99994 0.000184845 0)
(2.99896 0.0637235 0)
(2.41023 0.750324 0)
(1.96886 0.974853 0)
(1.95169 0.974091 0)
(1.95684 0.970228 0)
(1.96732 0.963202 0)
(1.97845 0.955826 0)
(3 3.29186e-15 0)
(3 3.31184e-15 0)
(3 3.14253e-15 0)
(3 1.48668e-15 0)
(3 1.44477e-15 0)
(3 2.50233e-15 0)
(3 2.37067e-15 0)
(3 3.08976e-16 0)
(3 -8.65609e-16 0)
(3 -2.16346e-15 0)
(3 -2.29494e-15 0)
(3 7.96149e-11 0)
(3 3.35533e-06 0)
(2.99961 0.00693057 0)
(2.77563 0.42638 0)
(2.13101 0.916716 0)
(1.96238 0.96866 0)
(1.96061 0.967775 0)
(1.96784 0.960868 0)
(1.9782 0.954098 0)
(3 2.70498e-15 0)
(3 2.64176e-15 0)
(3 2.47058e-15 0)
(3 1.67625e-15 0)
(3 1.06521e-15 0)
(3 7.0731e-16 0)
(3 1.02783e-16 0)
(3 -1.24364e-15 0)
(3 -3.70112e-15 0)
(3 -4.50702e-15 0)
(3 -5.07367e-15 0)
(3 2.43518e-13 0)
(3 3.31319e-08 0)
(2.99989 0.000365131 0)
(2.99462 0.0850652 0)
(2.3462 0.782253 0)
(1.99146 0.975635 0)
(1.96195 0.970177 0)
(1.96593 0.966007 0)
(1.97468 0.959278 0)
(3 8.67527e-16 0)
(3 7.62766e-16 0)
(3 -2.3399e-16 0)
(3 -6.61673e-16 0)
(3 -2.97056e-16 0)
(3 -8.00101e-16 0)
(3 -1.57323e-15 0)
(3 -2.33817e-15 0)
(3 -3.24827e-15 0)
(3 -4.54957e-15 0)
(3 -5.0418e-15 0)
(3 -3.54628e-15 0)
(3 2.34329e-10 0)
(3 7.62022e-06 0)
(3.00035 0.0100455 0)
(2.7017 0.479327 0)
(2.11082 0.934807 0)
(1.96884 0.970076 0)
(1.96914 0.967363 0)
(1.97632 0.960478 0)
(3 4.13759e-16 0)
(3 -1.69461e-15 0)
(3 -2.48353e-15 0)
(3 -2.03801e-15 0)
(3 -1.34157e-15 0)
(3 -4.44448e-16 0)
(3 -1.29199e-15 0)
(3 -1.63031e-15 0)
(3 -1.12954e-15 0)
(3 -1.66972e-15 0)
(3 -3.4277e-15 0)
(3 -2.87872e-15 0)
(3 8.97813e-13 0)
(3 8.40289e-08 0)
(2.99984 0.000601349 0)
(2.9781 0.111644 0)
(2.31297 0.802674 0)
(1.99719 0.972576 0)
(1.97356 0.971108 0)
(1.97623 0.965096 0)
(3 -8.64374e-16 0)
(3 -3.45243e-15 0)
(3 -3.43567e-15 0)
(3 -1.54076e-15 0)
(3 -1.75152e-15 0)
(3 -1.08392e-15 0)
(3 -7.21903e-16 0)
(3 -3.12764e-16 0)
(3 -6.23965e-16 0)
(3 -3.29808e-16 0)
(3 -1.64363e-15 0)
(3 -1.60977e-15 0)
(3 1.43357e-15 0)
(3 6.62167e-10 0)
(2.99999 1.39399e-05 0)
(3.00068 0.0137245 0)
(2.64698 0.52862 0)
(2.09381 0.942352 0)
(1.97827 0.973031 0)
(1.97715 0.969651 0)
(3 -2.16808e-15 0)
(3 -3.4288e-15 0)
(3 -3.29117e-15 0)
(3 -3.47687e-15 0)
(3 -2.3613e-15 0)
(3 -2.83855e-15 0)
(3 -2.27869e-15 0)
(3 -8.05505e-16 0)
(3 -8.1491e-16 0)
(3 -1.17793e-15 0)
(3 2.71274e-16 0)
(3 7.75092e-16 0)
(3 -7.51429e-16 0)
(3 2.91186e-12 0)
(3 1.59057e-07 0)
(2.99977 0.0009676 0)
(2.96325 0.139338 0)
(2.29036 0.813795 0)
(1.99565 0.974228 0)
(1.98021 0.968511 0)
(3 -1.01141e-15 0)
(3 -2.77441e-15 0)
(3 -4.38418e-15 0)
(3 -5.22284e-15 0)
(3 -5.01144e-15 0)
(3 -3.33955e-15 0)
(3 -1.7215e-15 0)
(3 -1.14488e-15 0)
(3 -4.54673e-16 0)
(3 2.25762e-16 0)
(3 2.09918e-15 0)
(3 2.85333e-15 0)
(3 3.65466e-16 0)
(3 7.42692e-15 0)
(3 1.31328e-09 0)
(2.99999 2.60182e-05 0)
(3.00228 0.0167923 0)
(2.5792 0.581039 0)
(2.07927 0.94233 0)
(1.98266 0.972165 0)
(3 -1.78785e-15 0)
(3 -1.60633e-15 0)
(3 -3.72952e-15 0)
(3 -4.33429e-15 0)
(3 -5.16061e-15 0)
(3 -3.88207e-15 0)
(3 -1.35268e-15 0)
(3 -5.32411e-16 0)
(3 -7.74499e-17 0)
(3 2.19298e-15 0)
(3 2.48926e-15 0)
(3 9.35423e-16 0)
(3 -1.17961e-15 0)
(3 -1.11738e-15 0)
(3 6.2383e-12 0)
(3 3.23817e-07 0)
(2.99977 0.00130574 0)
(2.92765 0.178773 0)
(2.26913 0.81169 0)
(2.00474 0.985016 0)
(3 -1.54225e-15 0)
(3 -2.31919e-15 0)
(3 -2.50521e-15 0)
(3 -2.73159e-15 0)
(3 -2.43634e-15 0)
(3 -3.33145e-15 0)
(3 -2.00419e-15 0)
(3 5.19923e-16 0)
(3 1.6774e-15 0)
(3 1.07009e-15 0)
(3 8.43097e-16 0)
(3 -4.8286e-16 0)
(3 -1.99593e-15 0)
(3 -3.00176e-15 0)
(3 1.03775e-14 0)
(3 2.82824e-09 0)
(2.99999 3.7318e-05 0)
(3.00041 0.023086 0)
(2.54121 0.610354 0)
(2.09501 0.986168 0)
(3 -9.03223e-16 0)
(3 -1.25537e-15 0)
(3 -1.80783e-15 0)
(3 -2.08847e-15 0)
(3 -1.71859e-15 0)
(3 -2.34285e-15 0)
(3 -1.41662e-15 0)
(3 -4.77848e-16 0)
(3 8.03017e-16 0)
(3 5.39285e-16 0)
(3 -6.08813e-17 0)
(3 -1.44773e-15 0)
(3 -1.96737e-15 0)
(3 -2.32791e-15 0)
(3 -8.46284e-16 0)
(3 1.4558e-11 0)
(3 4.986e-07 0)
(2.99967 0.00196564 0)
(2.89344 0.220568 0)
(2.32906 0.84667 0)
(3 -5.93027e-17 0)
(3 3.69645e-16 0)
(3 3.85514e-16 0)
(3 -4.91648e-16 0)
(3 -1.72674e-15 0)
(3 -6.48172e-16 0)
(3 -7.89803e-16 0)
(3 3.85846e-16 0)
(3 1.34298e-15 0)
(3 1.1104e-15 0)
(3 -4.85034e-16 0)
(3 -1.91099e-15 0)
(3 -2.70243e-15 0)
(3 -2.07577e-15 0)
(3 -1.49252e-15 0)
(3 3.80976e-14 0)
(3 4.44697e-09 0)
(2.99998 6.2339e-05 0)
(2.99568 0.0312845 0)
(2.58701 0.624809 0)
(3 -2.50442e-16 0)
(3 9.93884e-17 0)
(3 2.11556e-15 0)
(3 1.18614e-15 0)
(3 -2.41126e-16 0)
(3 -8.21805e-16 0)
(3 -1.39139e-15 0)
(3 6.39398e-16 0)
(3 1.1153e-15 0)
(3 -1.80126e-16 0)
(3 -2.01013e-15 0)
(3 -3.06911e-15 0)
(3 -3.51646e-15 0)
(3 -2.8666e-15 0)
(3 -3.75303e-15 0)
(3 -3.79298e-15 0)
(3 2.41422e-11 0)
(3 8.2955e-07 0)
(2.99933 0.00300967 0)
(2.90475 0.22326 0)
(3 4.13469e-16 0)
(3 5.30887e-16 0)
(3 3.95541e-15 0)
(3 2.58047e-15 0)
(3 7.85179e-16 0)
(3 -1.3717e-16 0)
(3 1.08001e-17 0)
(3 -1.65433e-16 0)
(3 7.52586e-16 0)
(3 -6.83346e-16 0)
(3 -3.52541e-15 0)
(3 -3.15102e-15 0)
(3 -3.51105e-15 0)
(3 -3.50076e-15 0)
(3 -3.70302e-15 0)
(3 -3.50313e-15 0)
(3 5.302e-14 0)
(3 8.7804e-09 0)
(2.99997 8.71095e-05 0)
(2.98656 0.0461754 0)
(3 1.4003e-15 0)
(3 2.4425e-15 0)
(3 4.01502e-15 0)
(3 3.58601e-15 0)
(3 2.45864e-15 0)
(3 2.29228e-15 0)
(3 2.18621e-15 0)
(3 1.05189e-15 0)
(3 8.08163e-16 0)
(3 1.56405e-16 0)
(3 -2.98106e-15 0)
(3 -2.78168e-15 0)
(3 -2.7044e-15 0)
(3 -2.37367e-15 0)
(3 -2.37272e-15 0)
(3 -1.61231e-15 0)
(3 -3.0741e-16 0)
(3 4.21848e-11 0)
(3 1.63183e-06 0)
(2.99874 0.00366312 0)
(3 1.96978e-15 0)
(3 3.02478e-15 0)
(3 2.91949e-15 0)
(3 4.38236e-15 0)
(3 5.07836e-15 0)
(3 4.766e-15 0)
(3 3.64249e-15 0)
(3 1.57675e-15 0)
(3 7.99453e-16 0)
(3 -9.65758e-17 0)
(3 -2.06739e-15 0)
(3 -2.60588e-15 0)
(3 -2.47235e-15 0)
(3 -2.80786e-15 0)
(3 -1.59147e-15 0)
(3 -1.17666e-15 0)
(3 -1.50846e-15 0)
(3 1.45373e-13 0)
(3 1.50302e-08 0)
(2.99993 0.000162355 0)
(3 2.58449e-15 0)
(3 3.68127e-15 0)
(3 4.43305e-15 0)
(3 4.20794e-15 0)
(3 4.22357e-15 0)
(3 4.59498e-15 0)
(3 4.92863e-15 0)
(3 3.82196e-15 0)
(3 2.13113e-15 0)
(3 5.9715e-16 0)
(3 -1.06678e-15 0)
(3 -1.57075e-15 0)
(3 -2.04492e-15 0)
(3 -2.11715e-15 0)
(3 -8.92912e-16 0)
(3 -6.99103e-16 0)
(3 -7.45237e-16 0)
(3 1.00644e-15 0)
(3 9.1154e-11 0)
(3 3.7203e-06 0)
(3 1.99844e-15 0)
(3 3.68348e-15 0)
(3 4.9952e-15 0)
(3 4.13379e-15 0)
(3 2.81445e-15 0)
(3 2.58902e-15 0)
(3 3.54424e-15 0)
(3 3.44286e-15 0)
(3 2.43327e-15 0)
(3 1.63372e-15 0)
(3 8.7084e-16 0)
(3 -3.87855e-16 0)
(3 -1.15706e-15 0)
(3 -9.88806e-16 0)
(3 -1.52967e-15 0)
(3 -1.26452e-15 0)
(3 -4.00779e-16 0)
(3 1.27597e-15 0)
(3 2.82854e-13 0)
(3 6.5318e-08 0)
(3 1.93518e-15 0)
(3 3.73459e-15 0)
(3 3.37903e-15 0)
(3 3.67733e-15 0)
(3 3.93585e-15 0)
(3 3.86359e-15 0)
(3 3.30283e-15 0)
(3 3.11154e-15 0)
(3 2.41603e-15 0)
(3 2.18926e-15 0)
(3 1.23581e-15 0)
(3 5.19863e-16 0)
(3 7.62964e-17 0)
(3 -1.05259e-15 0)
(3 -1.61176e-15 0)
(3 -1.33925e-15 0)
(3 -9.14617e-17 0)
(3 1.59319e-15 0)
(3 3.05841e-15 0)
(3 7.0701e-10 0)
(3 3.02331e-15 0)
(3 2.62041e-15 0)
(3 1.18744e-15 0)
(3 1.65635e-15 0)
(3 3.80453e-15 0)
(3 4.68397e-15 0)
(3 2.42067e-15 0)
(3 6.207e-16 0)
(3 1.64838e-15 0)
(3 1.3928e-15 0)
(3 -7.11248e-16 0)
(3 -7.56119e-16 0)
(3 1.75673e-16 0)
(3 -5.69642e-16 0)
(3 -8.8491e-16 0)
(3 -1.06049e-15 0)
(3 -4.18767e-16 0)
(3 -4.11507e-16 0)
(3 6.97746e-16 0)
(3 5.95257e-12 0)
(3 -9.89537e-16 0)
(3 -6.73884e-16 0)
(3 7.32784e-16 0)
(3 1.91372e-15 0)
(3 3.14466e-15 0)
(3 2.20433e-15 0)
(3 3.20192e-16 0)
(3 -1.43128e-15 0)
(3 1.66706e-16 0)
(3 3.4589e-16 0)
(3 3.3484e-16 0)
(3 6.12282e-16 0)
(3 -1.241e-16 0)
(3 -6.25794e-17 0)
(3 -2.52524e-16 0)
(3 -4.20645e-16 0)
(3 -1.26644e-15 0)
(3 -1.49337e-15 0)
(3 -1.68558e-15 0)
(3 2.61147e-14 0)
(3 -1.26307e-15 0)
(3 -1.39789e-15 0)
(3 1.49403e-15 0)
(3 3.55837e-15 0)
(3 1.70754e-15 0)
(3 2.7552e-16 0)
(3 5.42501e-16 0)
(3 1.26987e-15 0)
(3 1.30914e-15 0)
(3 2.92037e-16 0)
(3 1.18095e-15 0)
(3 6.69886e-16 0)
(3 1.27413e-15 0)
(3 1.63521e-15 0)
(3 1.29729e-15 0)
(3 5.85111e-16 0)
(3 -2.62552e-16 0)
(3 -6.99914e-16 0)
(3 -2.45907e-15 0)
(3 -1.24315e-15 0)
(3 3.74612e-16 0)
(3 -2.28426e-16 0)
(3 1.55076e-16 0)
(3 6.56701e-16 0)
(3 -8.01778e-16 0)
(3 -1.25623e-15 0)
(3 -1.26158e-15 0)
(3 1.26484e-15 0)
(3 8.39842e-16 0)
(3 7.68865e-16 0)
(3 1.15135e-15 0)
(3 9.40421e-16 0)
(3 1.01142e-15 0)
(3 1.17004e-15 0)
(3 1.70525e-15 0)
(3 8.53667e-16 0)
(3 4.89723e-16 0)
(3 6.55076e-17 0)
(3 1.56836e-16 0)
(3 -1.10245e-15 0)
(3 1.61355e-15 0)
(3 8.0416e-16 0)
(3 -1.20255e-15 0)
(3 -1.27897e-15 0)
(3 -7.53309e-16 0)
(3 -1.62898e-15 0)
(3 -1.63114e-15 0)
(3 -4.70589e-16 0)
(3 -7.90217e-17 0)
(3 9.586e-16 0)
(3 5.72674e-16 0)
(3 8.71167e-16 0)
(3 1.18035e-15 0)
(3 1.592e-15 0)
(3 8.91158e-16 0)
(3 -3.67157e-16 0)
(3 -1.28743e-15 0)
(3 -1.38536e-15 0)
(3 1.24118e-15 0)
(3 7.7835e-16 0)
(3 1.39369e-15 0)
(3 7.29702e-16 0)
(3 -7.78315e-16 0)
(3 -1.85176e-15 0)
(3 -2.26349e-15 0)
(3 -3.27054e-15 0)
(3 -7.6459e-16 0)
(3 -5.23629e-16 0)
(3 2.79391e-17 0)
(3 4.5166e-16 0)
(3 1.04776e-16 0)
(3 1.0551e-16 0)
(3 -9.93865e-16 0)
(3 -4.7682e-16 0)
(3 -7.62736e-16 0)
(3 -1.59344e-15 0)
(3 -2.32407e-15 0)
(3 -1.72206e-15 0)
(3 5.04511e-16 0)
(3 2.87753e-15 0)
(3 3.15466e-15 0)
(3 1.98985e-15 0)
(3 9.2169e-16 0)
(3 -1.47635e-15 0)
(3 -3.4428e-15 0)
(3 -3.35227e-15 0)
(3 -3.30801e-15 0)
(3 -3.45098e-15 0)
(3 -1.87955e-15 0)
(3 -2.75105e-17 0)
(3 4.6284e-16 0)
(3 3.64349e-16 0)
(3 -1.29762e-15 0)
(3 -2.61472e-15 0)
(3 -2.11916e-15 0)
(3 -1.67252e-15 0)
(3 -2.21961e-15 0)
(3 -3.23117e-16 0)
(3 -7.16379e-18 0)
(3 1.92867e-15 0)
(3 3.86748e-15 0)
(3 6.08307e-16 0)
(3 -1.13569e-17 0)
(3 -3.78294e-16 0)
(3 -1.88074e-15 0)
(3 -2.20175e-15 0)
(3 -2.98041e-15 0)
(3 -3.27731e-15 0)
(3 -2.60881e-15 0)
(3 -1.07684e-15 0)
(3 -1.15573e-16 0)
(3 -1.23316e-15 0)
(3 -1.62455e-15 0)
(3 -3.03804e-15 0)
(3 -2.86562e-15 0)
(3 -2.10457e-15 0)
(3 -1.00591e-15 0)
(3 7.61383e-16 0)
(3 1.39754e-15 0)
(3 2.12467e-15 0)
(3 1.12622e-15 0)
(3 -1.10461e-15 0)
(3 -1.09463e-15 0)
(3 -1.10739e-15 0)
(3 -2.70668e-15 0)
(3 -2.75542e-15 0)
(3 -2.84046e-15 0)
(3 -2.40945e-15 0)
(3 -3.53719e-15 0)
(3 -3.45353e-15 0)
(3 -3.02995e-15 0)
(3 -3.4073e-15 0)
(3 -3.06394e-15 0)
(3 -3.02677e-15 0)
(3 -3.92671e-15 0)
(3 -3.81671e-15 0)
(3 -1.11686e-15 0)
(3 9.45828e-16 0)
(3 2.43901e-15 0)
(3 3.42035e-15 0)
(3 2.60753e-16 0)
(3 -1.60749e-15 0)
(3 -1.65252e-15 0)
(3 -4.67178e-16 0)
(3 -8.70753e-16 0)
(3 -2.22858e-15 0)
(3 -2.97514e-15 0)
(3 -3.97174e-15 0)
(3 -5.46678e-15 0)
(3 -5.95497e-15 0)
(3 -4.20166e-15 0)
(3 -4.28738e-15 0)
(3 -2.68089e-15 0)
(3 -2.50147e-15 0)
(3 -2.96882e-15 0)
(3 -2.33672e-15 0)
(3 -1.95014e-15 0)
(3 -1.5401e-15 0)
(3 1.38584e-15 0)
(3 3.12114e-15 0)
(3 1.48026e-15 0)
(3 -1.05965e-16 0)
(3 2.72998e-16 0)
(3 1.51561e-15 0)
(3 5.67768e-16 0)
(3 -2.63001e-15 0)
(3 -2.67482e-15 0)
(3 -2.98029e-15 0)
(3 -2.75126e-15 0)
(3 -3.38661e-15 0)
(3 -3.74127e-15 0)
(3 -3.85117e-15 0)
(3 -3.49753e-15 0)
(3 -2.25419e-15 0)
(3 4.84773e-17 0)
(3 5.1265e-17 0)
(3 -4.76334e-16 0)
(3 -9.32244e-16 0)
(3 9.76743e-16 0)
(3 2.92861e-15 0)
(3 1.66637e-15 0)
(3 1.36517e-15 0)
(3 2.66539e-15 0)
(3 5.22094e-16 0)
(3 -1.88279e-16 0)
(3 -8.1323e-16 0)
(3 -1.9747e-15 0)
(3 -2.53998e-15 0)
(3 -3.59826e-15 0)
(3 -5.38068e-15 0)
(3 -5.64505e-15 0)
(3 -5.38164e-15 0)
(3 -3.86954e-15 0)
(3 -1.71255e-15 0)
(3 -1.31652e-15 0)
(3 -1.32325e-15 0)
(3 -1.05953e-15 0)
(3 -2.78653e-16 0)
(3 2.18815e-15 0)
(3 4.28847e-15 0)
(3 1.06055e-16 0)
(3 1.35894e-15 0)
(3 2.26444e-15 0)
(3 -4.15634e-16 0)
(3 5.28872e-16 0)
(3 8.24868e-16 0)
(3 1.01311e-16 0)
(3 -2.55437e-15 0)
(3 -5.28664e-15 0)
(3 -5.76573e-15 0)
(3 -3.96573e-15 0)
(3 -2.29908e-15 0)
(3 -1.18346e-15 0)
(3 -1.58416e-16 0)
(3 -1.1301e-15 0)
(3 -2.00905e-15 0)
(3 -1.79351e-15 0)
(3 -4.29446e-17 0)
(3 2.76448e-15 0)
(3 4.87358e-15 0)
(3 3.60262e-16 0)
(3 2.35328e-15 0)
(3 2.44957e-15 0)
(3 6.00547e-16 0)
(3 7.77963e-16 0)
(3 8.34233e-16 0)
(3 -9.30513e-16 0)
(3 -2.91538e-15 0)
(3 -5.49707e-15 0)
(3 -6.17759e-15 0)
(3 -3.72095e-15 0)
(3 -4.52546e-16 0)
(3 -3.68287e-16 0)
(3 -9.83745e-16 0)
(3 -1.97218e-15 0)
(3 -1.30799e-15 0)
(3 4.83842e-16 0)
(3 2.34201e-15 0)
(3 2.75774e-15 0)
(3 2.17461e-15 0)
(3 2.81257e-15 0)
(3 3.93898e-15 0)
(3 3.10879e-15 0)
(3 9.81745e-16 0)
(3 -5.48852e-16 0)
(3 1.92205e-16 0)
(3 -1.4405e-15 0)
(3 -3.75537e-15 0)
(3 -3.5556e-15 0)
(3 -3.49067e-15 0)
(3 -4.0689e-15 0)
(3 -3.26464e-15 0)
(3 -2.88308e-15 0)
(3 -2.33171e-15 0)
(3 -1.77349e-15 0)
(3 -1.3197e-15 0)
(3 2.82983e-15 0)
(3 4.08568e-15 0)
(3 3.05255e-15 0)
(3 1.34493e-15 0)
(3 4.71038e-15 0)
(3 4.7584e-15 0)
(3 3.9956e-15 0)
(3 3.73102e-15 0)
(3 1.22388e-15 0)
(3 -1.35457e-16 0)
(3 -1.02958e-15 0)
(3 -1.45193e-15 0)
(3 -1.85095e-15 0)
(3 -7.49082e-16 0)
(3 -1.12116e-15 0)
(3 -5.1887e-16 0)
(3 -3.09484e-16 0)
(3 1.81225e-16 0)
(3 4.01639e-16 0)
(3 4.87294e-16 0)
(3 2.64924e-15 0)
(3 4.17529e-15 0)
(3 3.70683e-15 0)
(3 5.34273e-16 0)
(3 5.63944e-15 0)
(3 6.66827e-15 0)
(3 6.77516e-15 0)
(3 5.34333e-15 0)
(3 4.36125e-15 0)
(3 1.26624e-15 0)
(3 -2.07585e-17 0)
(3 2.47237e-18 0)
(3 4.39831e-16 0)
(3 4.78225e-16 0)
(3 7.13637e-16 0)
(3 6.33918e-16 0)
(3 1.03156e-15 0)
(3 6.34184e-16 0)
(3 1.73025e-15 0)
(3 3.98437e-15 0)
(3 2.36136e-15 0)
(3 2.30915e-15 0)
(3 2.48333e-15 0)
(3 -5.87225e-16 0)
(3 5.74265e-15 0)
(3 6.71616e-15 0)
(3 5.96728e-15 0)
(3 4.65256e-15 0)
(3 3.55988e-15 0)
(3 1.48985e-15 0)
(3 7.87995e-17 0)
(3 3.42649e-16 0)
(3 1.22978e-15 0)
(3 1.15435e-15 0)
(3 -1.84872e-16 0)
(3 -2.28297e-15 0)
(3 -1.63204e-15 0)
(3 9.41102e-16 0)
(3 2.9209e-15 0)
(3 3.8158e-15 0)
(3 3.13578e-15 0)
(3 8.88061e-16 0)
(3 -2.95994e-16 0)
(3 -2.66952e-15 0)
(3 4.68627e-15 0)
(3 4.60996e-15 0)
(3 3.34687e-15 0)
(3 2.0976e-15 0)
(3 5.27636e-16 0)
(3 5.55461e-17 0)
(3 7.909e-17 0)
(3 4.10629e-16 0)
(3 7.87499e-16 0)
(3 -8.39443e-17 0)
(3 4.18546e-16 0)
(3 -4.22661e-16 0)
(3 -7.10471e-16 0)
(3 2.03223e-15 0)
(3 4.71445e-15 0)
(3 3.06718e-15 0)
(3 3.30382e-15 0)
(3 2.0309e-15 0)
(3 -2.26407e-16 0)
(3 -1.24333e-15 0)
(3 2.45436e-15 0)
(3 2.29128e-15 0)
(3 1.30721e-15 0)
(3 6.75712e-16 0)
(3 6.64729e-16 0)
(3 6.87957e-17 0)
(3 -7.42176e-16 0)
(3 -7.29885e-16 0)
(3 -3.5114e-16 0)
(3 3.06301e-16 0)
(3 1.83116e-15 0)
(3 2.23771e-15 0)
(3 2.33513e-15 0)
(3 3.68202e-15 0)
(3 4.30045e-15 0)
(3 4.59582e-15 0)
(3 3.17408e-15 0)
(3 1.23554e-15 0)
(3 -1.16526e-15 0)
(3 -1.38585e-15 0)
(3 7.97553e-16 0)
(3 1.81689e-15 0)
(3 1.5228e-15 0)
(3 1.18659e-15 0)
(3 1.66344e-15 0)
(3 1.32529e-15 0)
(3 2.22358e-16 0)
(3 7.71629e-16 0)
(3 1.68059e-16 0)
(3 1.39058e-15 0)
(3 1.68891e-15 0)
(3 2.79314e-15 0)
(3 2.88316e-15 0)
(3 2.64947e-15 0)
(3 2.2336e-15 0)
(3 2.0675e-15 0)
(3 8.55539e-16 0)
(3 -3.85368e-16 0)
(3 -3.16847e-16 0)
(3 -1.24798e-16 0)
(3 1.37474e-15 0)
(3 1.30193e-15 0)
(3 2.24592e-15 0)
(3 1.74798e-15 0)
(3 1.08958e-15 0)
(3 1.13483e-15 0)
(3 2.02995e-15 0)
(3 2.55691e-15 0)
(3 3.64697e-15 0)
(3 3.77885e-15 0)
(3 3.72416e-15 0)
(3 2.98181e-15 0)
(3 2.40683e-15 0)
(3 9.76129e-16 0)
(3 6.85002e-17 0)
(3 -1.14189e-15 0)
(3 -2.37905e-15 0)
(3 -2.79548e-15 0)
(3 -2.19626e-15 0)
(3 -2.09774e-15 0)
(3 2.20986e-15 0)
(3 1.91606e-15 0)
(3 2.70044e-15 0)
(3 2.35502e-15 0)
(3 1.97698e-15 0)
(3 1.19125e-15 0)
(3 1.4991e-15 0)
(3 2.85359e-15 0)
(3 4.74627e-15 0)
(3 4.96177e-15 0)
(3 4.17339e-15 0)
(3 3.84142e-15 0)
(3 3.26331e-15 0)
(3 2.13387e-15 0)
(3 7.71262e-16 0)
(3 -1.95628e-15 0)
(3 -4.35241e-15 0)
(3 -3.99727e-15 0)
(3 -3.50091e-15 0)
(3 -4.21619e-15 0)
(3 1.37499e-15 0)
(3 1.50209e-15 0)
(3 1.04847e-15 0)
(3 1.96319e-15 0)
(3 2.80131e-15 0)
(3 2.5407e-15 0)
(3 1.89744e-15 0)
(3 3.9112e-15 0)
(3 3.55247e-15 0)
(3 3.50002e-15 0)
(3 3.10951e-15 0)
(3 3.58815e-15 0)
(3 3.62087e-15 0)
(3 2.70212e-15 0)
(3 1.56523e-15 0)
(3 1.41333e-16 0)
(3 -1.89631e-15 0)
(3 -2.53617e-15 0)
(3 -2.92215e-15 0)
(3 -2.3383e-15 0)
(3 -3.51363e-16 0)
(3 -1.52673e-17 0)
(3 -5.45414e-16 0)
(3 7.75291e-16 0)
(3 2.30306e-16 0)
(3 2.10204e-15 0)
(3 2.14749e-15 0)
(3 2.89683e-15 0)
(3 2.93457e-15 0)
(3 2.80534e-15 0)
(3 3.63265e-15 0)
(3 4.08167e-15 0)
(3 2.50506e-15 0)
(3 2.34221e-15 0)
(3 1.14577e-15 0)
(3 6.05384e-16 0)
(3 1.60198e-15 0)
(3 -1.2585e-15 0)
(3 -2.15344e-15 0)
(3 -2.06798e-15 0)
(3 -2.6784e-15 0)
(3 -1.68614e-15 0)
(3 -3.44192e-16 0)
(3 -4.33911e-16 0)
(3 1.90842e-16 0)
(3 1.66122e-15 0)
(3 2.56203e-15 0)
(3 1.96288e-15 0)
(3 1.64818e-15 0)
(3 1.90542e-15 0)
(3 3.02036e-15 0)
(3 3.30994e-15 0)
(3 1.23544e-15 0)
(3 9.39025e-16 0)
(3 7.58909e-16 0)
(3 2.99597e-15 0)
(3 2.69907e-15 0)
(3 1.45502e-15 0)
(3 -1.46515e-15 0)
(3 -1.4468e-15 0)
(3 -3.4411e-15 0)
(3 -2.60597e-15 0)
(3 -7.76698e-16 0)
(3 1.43653e-16 0)
(3 8.44444e-16 0)
(3 1.4616e-15 0)
(3 2.54174e-15 0)
(3 1.78747e-15 0)
(3 1.20449e-15 0)
(3 2.19032e-15 0)
(3 1.72425e-15 0)
(3 5.59398e-16 0)
(3 -1.13381e-17 0)
(3 3.22975e-16 0)
(3 1.32763e-15 0)
(3 2.73094e-15 0)
(3 2.10862e-15 0)
(3 1.95806e-15 0)
(3 -3.44786e-16 0)
(3 -7.08447e-16 0)
(3 -1.80382e-15 0)
(3 -1.07295e-15 0)
(3 -2.77052e-16 0)
(3 5.15308e-16 0)
(3 1.07206e-15 0)
(3 2.07814e-15 0)
(3 3.11737e-15 0)
(3 3.04144e-15 0)
(3 2.40586e-15 0)
(3 2.06812e-15 0)
(3 2.098e-15 0)
(3 4.18585e-16 0)
(3 2.01272e-16 0)
(3 1.25261e-15 0)
(3 2.026e-15 0)
(3 2.1494e-15 0)
(3 2.50055e-15 0)
(3 2.40299e-15 0)
(3 5.81074e-17 0)
(3 -5.90937e-16 0)
(3 4.15517e-16 0)
(3 -3.95166e-17 0)
(3 -8.79051e-16 0)
(3 -3.37502e-16 0)
(3 1.53909e-15 0)
(3 3.02678e-15 0)
(3 2.60093e-15 0)
(3 3.20175e-15 0)
(3 3.49621e-15 0)
(3 3.29431e-15 0)
(3 2.3848e-15 0)
(3 2.02022e-15 0)
(3 2.37704e-15 0)
(3 2.50102e-15 0)
(3 2.84875e-15 0)
(3 2.56896e-15 0)
(3 3.25254e-15 0)
(3 2.31797e-15 0)
(3 1.65249e-15 0)
(3 1.44429e-16 0)
(3 -1.33958e-15 0)
(3 -1.78316e-15 0)
(3 -2.28406e-15 0)
(3 -1.05956e-15 0)
(3 1.04692e-15 0)
(3 1.4808e-15 0)
(3 2.13176e-15 0)
(3 1.58869e-15 0)
(3 1.81475e-15 0)
(3 2.14283e-15 0)
(3 1.76403e-15 0)
(3 2.38605e-15 0)
(3 3.12506e-15 0)
(3 2.53696e-15 0)
(3 2.19327e-15 0)
(3 1.05743e-15 0)
(3 7.45885e-16 0)
(3 4.07078e-16 0)
(3 1.33582e-15 0)
(3 1.14225e-15 0)
(3 -3.86313e-15 0)
(3 -3.44575e-15 0)
(3 -2.44018e-15 0)
(3 -7.38984e-16 0)
(3 1.41597e-15 0)
(3 1.9426e-15 0)
(3 2.90078e-15 0)
(3 1.96941e-15 0)
(3 -1.56693e-16 0)
(3 -8.74602e-16 0)
(3 4.00701e-16 0)
(3 1.44894e-15 0)
(3 2.57036e-15 0)
(3 2.57262e-15 0)
(3 1.18659e-15 0)
(3 6.48952e-16 0)
(3 -8.39076e-16 0)
(3 -7.92761e-16 0)
(3 7.50891e-16 0)
(3 6.16979e-16 0)
(3 -3.88038e-15 0)
(3 -3.51801e-15 0)
(3 -1.6055e-15 0)
(3 7.76465e-16 0)
(3 1.66413e-15 0)
(3 2.29509e-15 0)
(3 1.22046e-15 0)
(3 3.68125e-16 0)
(3 -4.42556e-16 0)
(3 -9.86219e-16 0)
(3 -7.80013e-16 0)
(3 4.88256e-16 0)
(3 1.51969e-15 0)
(3 5.64198e-16 0)
(3 8.11789e-18 0)
(3 -6.56205e-16 0)
(3 -3.61955e-16 0)
(3 -3.44401e-16 0)
(3 -3.22757e-16 0)
(3 -6.8888e-17 0)
(3 -3.314e-15 0)
(3 -2.97241e-15 0)
(3 -1.40299e-15 0)
(3 1.2967e-16 0)
(3 -1.6902e-16 0)
(3 -2.31635e-16 0)
(3 -7.18871e-16 0)
(3 -8.6562e-16 0)
(3 -6.72474e-16 0)
(3 -3.28745e-18 0)
(3 -1.15118e-15 0)
(3 -1.41023e-15 0)
(3 -2.09143e-15 0)
(3 -2.23541e-15 0)
(3 -9.43248e-16 0)
(3 -5.40335e-16 0)
(3 -1.56753e-15 0)
(3 -1.73247e-15 0)
(3 -2.00818e-15 0)
(3 -1.13921e-15 0)
(3 -2.30538e-15 0)
(3 -1.67363e-15 0)
(3 -1.21271e-15 0)
(3 -1.9228e-15 0)
(3 -1.69738e-15 0)
(3 -1.82519e-15 0)
(3 -1.67153e-15 0)
(3 -1.66031e-15 0)
(3 -8.39609e-16 0)
(3 1.23735e-16 0)
(3 -1.11929e-15 0)
(3 -2.52849e-15 0)
(3 -3.44456e-15 0)
(3 -3.22536e-15 0)
(3 -1.52956e-15 0)
(3 -1.40734e-15 0)
(3 -2.86677e-15 0)
(3 -3.30568e-15 0)
(3 -1.97792e-15 0)
(3 -2.22213e-15 0)
(3 -1.9434e-15 0)
(3 -1.08179e-15 0)
(3 -1.41296e-15 0)
(3 -1.63513e-15 0)
(3 -1.9698e-15 0)
(3 -2.6594e-15 0)
(3 -2.80674e-15 0)
(3 -2.42361e-15 0)
(3 -1.43211e-15 0)
(3 -1.53367e-15 0)
(3 -1.53801e-15 0)
(3 -3.11187e-15 0)
(3 -3.65559e-15 0)
(3 -2.7091e-15 0)
(3 -2.30568e-15 0)
(3 -2.06618e-15 0)
(3 -1.8542e-15 0)
(3 -2.26376e-15 0)
(3 -2.70888e-15 0)
(3 -2.84958e-15 0)
(3 -2.75455e-15 0)
(3 -2.35528e-15 0)
(3 -3.01563e-15 0)
(3 -2.95276e-15 0)
(3 -3.6819e-15 0)
(3 -4.14413e-15 0)
(3 -3.7889e-15 0)
(3 -2.06823e-15 0)
(3 -1.51444e-15 0)
(3 -2.27065e-15 0)
(3 -1.74896e-15 0)
(3 -1.96258e-15 0)
(3 -2.27346e-15 0)
(3 -1.36497e-15 0)
(3 -1.57346e-15 0)
(3 -1.74657e-15 0)
(3 -1.5861e-15 0)
(3 -2.03409e-15 0)
(3 -3.76729e-15 0)
(3 -4.29275e-15 0)
(3 -2.0684e-15 0)
(3 -2.88125e-15 0)
(3 -3.60522e-15 0)
(3 -4.71384e-15 0)
(3 -4.39514e-15 0)
(3 -3.28997e-15 0)
(3 -1.90449e-15 0)
(3 -1.26629e-15 0)
(3 -4.70917e-16 0)
(3 2.64856e-16 0)
(3 -6.65074e-16 0)
(3 -3.28273e-16 0)
(3 -3.43501e-16 0)
(3 -9.76411e-16 0)
(3 -1.79183e-15 0)
(3 -3.34409e-15 0)
(3 -2.712e-15 0)
(3 -2.05121e-15 0)
(3 -2.64586e-15 0)
(3 -2.81804e-15 0)
(3 5.69067e-16 0)
(3 -2.23169e-15 0)
(3 -2.06606e-15 0)
(3 -2.04791e-15 0)
(3 -1.80475e-15 0)
(3 -1.93532e-15 0)
(3 -2.01997e-15 0)
(3 -2.10961e-15 0)
(3 -1.07383e-15 0)
(3 -5.35211e-16 0)
(3 -1.01126e-15 0)
(3 -1.21226e-15 0)
(3 -7.85537e-16 0)
(3 -9.46822e-16 0)
(3 -3.3613e-15 0)
(3 -4.02171e-15 0)
(3 -3.31471e-15 0)
(3 -4.11762e-15 0)
(3 -2.34891e-15 0)
(3 -2.33562e-15 0)
(3 -2.13613e-16 0)
(3 -7.19349e-16 0)
(3 -3.86315e-16 0)
(3 4.62434e-16 0)
(3 7.5697e-16 0)
(3 -9.25999e-17 0)
(3 -1.39071e-15 0)
(3 -1.06304e-15 0)
(3 9.47864e-17 0)
(3 -4.86855e-16 0)
(3 -1.24714e-17 0)
(3 -8.20526e-16 0)
(3 -2.45154e-15 0)
(3 -4.16466e-15 0)
(3 -4.68482e-15 0)
(3 -4.53592e-15 0)
(3 -4.6895e-15 0)
(3 -5.14253e-15 0)
(3 -4.47191e-15 0)
(3 -2.87818e-15 0)
(3 -1.93164e-15 0)
(3 -1.73277e-15 0)
(3 5.40802e-16 0)
(3 1.95329e-16 0)
(3 -3.68981e-16 0)
(3 -8.00156e-16 0)
(3 -4.30049e-16 0)
(3 1.82637e-16 0)
(3 -1.8917e-16 0)
(3 -2.56133e-16 0)
(3 1.2216e-16 0)
(3 -5.26635e-16 0)
(3 -2.02152e-15 0)
(3 -4.78488e-15 0)
(3 -4.48651e-15 0)
(3 -4.94143e-15 0)
(3 -5.88505e-15 0)
(3 -6.1359e-15 0)
(3 -6.43198e-15 0)
(3 -6.49743e-15 0)
(3 4.99314e-17 0)
(3 1.12369e-16 0)
(3 -1.18361e-16 0)
(3 -3.53038e-16 0)
(3 -1.37706e-15 0)
(3 -1.25313e-15 0)
(3 1.49001e-15 0)
(3 2.0902e-15 0)
(3 3.10203e-16 0)
(3 -1.03132e-15 0)
(3 -2.17507e-15 0)
(3 -2.44787e-15 0)
(3 -2.20228e-15 0)
(3 -2.55439e-15 0)
(3 -3.88946e-15 0)
(3 -5.47716e-15 0)
(3 -5.95651e-15 0)
(3 -5.45619e-15 0)
(3 -6.40509e-15 0)
(3 -7.58869e-15 0)
(3 5.9711e-16 0)
(3 5.71476e-16 0)
(3 4.29904e-16 0)
(3 6.31119e-16 0)
(3 -5.0055e-16 0)
(3 1.54445e-16 0)
(3 2.19395e-15 0)
(3 1.87807e-15 0)
(3 1.76519e-15 0)
(3 7.10735e-16 0)
(3 -1.77269e-15 0)
(3 -3.32696e-15 0)
(3 -3.42439e-15 0)
(3 -2.77027e-15 0)
(3 -3.37753e-15 0)
(3 -4.19529e-15 0)
(3 -4.2663e-15 0)
(3 -5.27326e-15 0)
(3 -6.21631e-15 0)
(3 -8.25865e-15 0)
(3 6.99174e-17 0)
(3 1.8937e-16 0)
(3 1.50416e-15 0)
(3 2.25414e-15 0)
(3 1.3971e-15 0)
(3 1.99357e-15 0)
(3 1.81219e-15 0)
(3 1.22977e-15 0)
(3 1.50557e-15 0)
(3 1.78253e-16 0)
(3 -2.36869e-16 0)
(3 -4.76613e-16 0)
(3 -1.73366e-15 0)
(3 -1.66998e-15 0)
(3 -2.36108e-15 0)
(3 -2.57192e-15 0)
(3 -3.35557e-15 0)
(3 -5.65675e-15 0)
(3 -7.46745e-15 0)
(3 -6.089e-15 0)
(3 1.72343e-16 0)
(3 1.11066e-15 0)
(3 1.35308e-15 0)
(3 1.57443e-15 0)
(3 2.23648e-15 0)
(3 3.06604e-15 0)
(3 2.09773e-15 0)
(3 1.74973e-15 0)
(3 7.8208e-16 0)
(3 -5.76474e-16 0)
(3 -1.24619e-15 0)
(3 4.14868e-16 0)
(3 1.22261e-15 0)
(3 4.44513e-16 0)
(3 -7.62596e-16 0)
(3 -3.82322e-15 0)
(3 -4.53431e-15 0)
(3 -5.05446e-15 0)
(3 -3.9272e-15 0)
(3 -2.15402e-15 0)
(2.2715 0.656253 0)
(2.276 0.658113 0)
(2.28501 0.653607 0)
(2.29365 0.640607 0)
(2.29904 0.629567 0)
(2.29959 0.624152 0)
(2.29892 0.619089 0)
(2.30257 0.614322 0)
(2.31038 0.613284 0)
(2.32248 0.605676 0)
(2.33078 0.601307 0)
(2.33493 0.604813 0)
(2.33455 0.607657 0)
(2.33808 0.601066 0)
(2.34534 0.589725 0)
(2.35191 0.582172 0)
(2.35735 0.577636 0)
(2.36127 0.573501 0)
(2.3641 0.568004 0)
(2.36766 0.560556 0)
(2.37225 0.553663 0)
(2.37688 0.547324 0)
(2.3787 0.539716 0)
(2.37659 0.530541 0)
(2.37948 0.526869 0)
(2.3847 0.526232 0)
(2.39035 0.524321 0)
(2.39655 0.521997 0)
(2.40299 0.520609 0)
(2.4098 0.519959 0)
(2.41644 0.52009 0)
(2.42307 0.520524 0)
(2.42952 0.519071 0)
(2.43318 0.513426 0)
(2.43409 0.504288 0)
(2.4319 0.491805 0)
(2.42661 0.47642 0)
(2.42407 0.464944 0)
(2.42741 0.460327 0)
(2.43329 0.460665 0)
(2.44116 0.460313 0)
(2.4497 0.458831 0)
(2.45485 0.456519 0)
(2.45966 0.453724 0)
(2.46212 0.448187 0)
(2.45942 0.437654 0)
(2.46046 0.431023 0)
(2.46624 0.43107 0)
(2.47324 0.429579 0)
(2.4792 0.427563 0)
(2.48392 0.425395 0)
(2.48609 0.420008 0)
(2.48328 0.409803 0)
(2.48555 0.404263 0)
(2.49118 0.403697 0)
(2.49737 0.401364 0)
(2.50315 0.398921 0)
(2.50787 0.396052 0)
(2.50951 0.389952 0)
(2.50542 0.378586 0)
(2.50589 0.371761 0)
(2.51091 0.370096 0)
(2.51569 0.367226 0)
(2.52034 0.363865 0)
(2.52362 0.359433 0)
(2.52317 0.351195 0)
(2.52074 0.342103 0)
(2.52365 0.339648 0)
(2.52791 0.340466 0)
(2.53788 0.343019 0)
(2.54721 0.345035 0)
(2.55159 0.344046 0)
(2.55614 0.338903 0)
(2.55414 0.328219 0)
(2.54572 0.313103 0)
(2.54468 0.304308 0)
(2.54852 0.303391 0)
(2.55351 0.301633 0)
(2.55838 0.298636 0)
(2.56246 0.295015 0)
(2.56482 0.290095 0)
(2.56375 0.282273 0)
(2.56358 0.275355 0)
(2.56694 0.274998 0)
(2.57175 0.275266 0)
(2.57795 0.274824 0)
(2.58277 0.273609 0)
(2.58786 0.271452 0)
(2.59205 0.268474 0)
(2.59542 0.26495 0)
(2.59739 0.260045 0)
(2.59593 0.251577 0)
(2.58982 0.240827 0)
(2.58776 0.233825 0)
(2.58995 0.233564 0)
(2.59511 0.234769 0)
(2.60673 0.239617 0)
(2.61967 0.24518 0)
(2.62441 0.245424 0)
(2.62852 0.24217 0)
(2.62926 0.233693 0)
(2.61827 0.216561 0)
(2.59655 0.189724 0)
(2.58855 0.176089 0)
(2.59109 0.173571 0)
(2.59443 0.173503 0)
(2.60393 0.175556 0)
(2.6227 0.186977 0)
(2.64524 0.202232 0)
(2.65353 0.206481 0)
(2.65617 0.20559 0)
(2.65812 0.20091 0)
(2.65106 0.189208 0)
(2.63707 0.171539 0)
(2.63433 0.162368 0)
(2.63766 0.161328 0)
(2.64181 0.159351 0)
(2.6459 0.156497 0)
(2.64901 0.153323 0)
(2.64944 0.148145 0)
(2.64512 0.139382 0)
(2.64291 0.133165 0)
(2.6454 0.13285 0)
(2.64997 0.133086 0)
(2.66055 0.136748 0)
(2.67361 0.14277 0)
(2.67893 0.143619 0)
(2.68191 0.141707 0)
(2.68318 0.135719 0)
(2.67494 0.12309 0)
(2.6616 0.106753 0)
(2.65939 0.100363 0)
(2.66164 0.100338 0)
(2.66606 0.101209 0)
(1.98803 0.946413 0)
(1.99224 0.942904 0)
(1.99512 0.940915 0)
(1.99735 0.939938 0)
(2.00169 0.936652 0)
(2.00732 0.931324 0)
(2.01113 0.928217 0)
(2.01298 0.928034 0)
(2.01589 0.926606 0)
(2.02208 0.921078 0)
(2.02974 0.9132 0)
(2.03427 0.909628 0)
(2.03578 0.909448 0)
(2.03804 0.908342 0)
(2.04363 0.903329 0)
(2.05105 0.895821 0)
(2.05588 0.891703 0)
(2.05689 0.891254 0)
(2.05636 0.892439 0)
(2.05976 0.890284 0)
(2.06707 0.88325 0)
(2.07413 0.876255 0)
(2.07715 0.873869 0)
(2.07755 0.875266 0)
(2.07991 0.874416 0)
(2.08747 0.868216 0)
(2.09736 0.858617 0)
(2.10212 0.854334 0)
(2.10245 0.856545 0)
(2.10285 0.857423 0)
(2.10987 0.852605 0)
(2.11973 0.843152 0)
(2.1245 0.837998 0)
(2.12434 0.840437 0)
(2.12512 0.840867 0)
(2.13345 0.834956 0)
(2.141 0.827099 0)
(2.14359 0.823321 0)
(2.14458 0.821521 0)
(2.14736 0.821196 0)
(2.15186 0.818947 0)
(2.15806 0.812275 0)
(2.162 0.803219 0)
(2.16324 0.80024 0)
(2.16363 0.803251 0)
(2.16629 0.801191 0)
(2.17513 0.796414 0)
(2.18409 0.786005 0)
(2.18811 0.779754 0)
(2.18813 0.783985 0)
(2.18688 0.78589 0)
(2.19296 0.779487 0)
(2.20204 0.766955 0)
(2.20665 0.758077 0)
(2.2089 0.762841 0)
(2.20364 0.764171 0)
(2.19975 0.764889 0)
(2.1943 0.767084 0)
(2.17679 0.778815 0)
(2.15138 0.796246 0)
(2.11409 0.816402 0)
(2.09818 0.826296 0)
(2.09073 0.822003 0)
(2.09148 0.818264 0)
(2.09543 0.813062 0)
(2.09983 0.809136 0)
(2.10408 0.806583 0)
(2.1122 0.799558 0)
(2.11888 0.789201 0)
(2.12206 0.785609 0)
(2.12318 0.786624 0)
(2.12324 0.781076 0)
(2.13071 0.770195 0)
(2.13821 0.759402 0)
(2.14278 0.756196 0)
(2.14505 0.757768 0)
(2.15013 0.754411 0)
(2.16025 0.745486 0)
(2.16729 0.736979 0)
(2.17078 0.73678 0)
(2.17344 0.735739 0)
(2.18026 0.729417 0)
(2.18729 0.721581 0)
(2.19204 0.716613 0)
(2.19495 0.715577 0)
(2.19885 0.71174 0)
(2.20602 0.700231 0)
(2.21485 0.690747 0)
(2.22018 0.687572 0)
(2.22342 0.688112 0)
(2.22631 0.689421 0)
(2.23244 0.686527 0)
(2.24359 0.677491 0)
(2.2534 0.667227 0)
(2.25842 0.661961 0)
(2.26176 0.663947 0)
(2.26498 0.666826 0)
(2.27259 0.66305 0)
(2.28082 0.650448 0)
(2.28711 0.637312 0)
(2.28853 0.631635 0)
(2.28835 0.627864 0)
(2.29209 0.623059 0)
(2.29961 0.623135 0)
(2.31156 0.61746 0)
(2.32092 0.610432 0)
(2.32663 0.611735 0)
(2.32722 0.61574 0)
(2.32896 0.611899 0)
(2.33648 0.600168 0)
(2.34366 0.590915 0)
(2.34925 0.586266 0)