/*--------------------------------*- C++ -*----------------------------------*\
  =========                 |
  \\      /  F ield         | OpenFOAM: The Open Source CFD Toolbox
   \\    /   O peration     | Website:  https://openfoam.org
    \\  /    A nd           | Version:  7
     \\/     M anipulation  |
\*---------------------------------------------------------------------------*/
FoamFile
{
    version     2.0;
    format      ascii;
    class       volVectorField;
    location    "3.3";
    object      U;
}
// * * * * * * * * * * * * * * * * * * * * * * * * * * * * * * * * * * * * * //

dimensions      [0 1 -1 0 0 0 0];

internalField   nonuniform List<vector> 
16192
(
(2.33525 0.00223198 0)
(2.33653 0.00213137 0)
(2.33847 0.00178051 0)
(2.34069 0.000648322 0)
(2.34246 -0.00071654 0)
(2.34317 -0.00108993 0)
(2.34399 -0.00111225 0)
(2.34362 -0.00082047 0)
(2.34222 -0.000330338 0)
(2.33974 0.000462644 0)
(2.33641 0.0014479 0)
(2.33428 0.00202029 0)
(2.33381 0.00207715 0)
(2.3341 0.00199655 0)
(2.33563 0.00152753 0)
(2.33795 0.000737102 0)
(2.33853 0.000116604 0)
(2.33841 -0.00049716 0)
(2.3372 -0.00112802 0)
(2.3357 -0.00132345 0)
(2.33615 -0.0013304 0)
(2.33687 -0.00138585 0)
(2.3388 -0.00135139 0)
(2.34098 -0.00104476 0)
(2.34161 -0.000897535 0)
(2.3421 -0.000633967 0)
(2.34137 -0.000141557 0)
(2.33832 0.000820771 0)
(2.33463 0.00198655 0)
(2.33352 0.00254783 0)
(2.33352 0.00268554 0)
(2.33379 0.00282464 0)
(2.33501 0.00275633 0)
(2.33814 0.00241839 0)
(2.34151 0.00208269 0)
(2.3425 0.00173657 0)
(2.34215 0.00158735 0)
(2.34142 0.00153296 0)
(2.34031 0.000804674 0)
(2.33959 0.0001187 0)
(2.33926 -0.000751564 0)
(2.33974 -0.00171493 0)
(2.34011 -0.00218513 0)
(2.33994 -0.00212143 0)
(2.33901 -0.00152029 0)
(2.33755 -0.000640811 0)
(2.33594 0.000584937 0)
(2.33494 0.00162997 0)
(2.3347 0.00205001 0)
(2.33482 0.00231754 0)
(2.33652 0.00239839 0)
(2.34051 0.00219365 0)
(2.34593 0.00159097 0)
(2.3494 2.21326e-05 0)
(2.35041 -0.0014473 0)
(2.35044 -0.00199444 0)
(2.34916 -0.00211828 0)
(2.34424 -0.00163693 0)
(2.34097 -0.00100195 0)
(2.34084 -0.000793997 0)
(2.3412 -0.000696783 0)
(2.34247 -0.000618046 0)
(2.34585 -0.000554096 0)
(2.35164 -0.000326007 0)
(2.35657 9.26404e-05 0)
(2.35797 0.000340634 0)
(2.35831 0.000598906 0)
(2.35833 0.00108303 0)
(2.35853 0.0013224 0)
(2.35895 0.00136639 0)
(2.36056 0.00125155 0)
(2.36371 0.000781697 0)
(2.36684 -0.000368363 0)
(2.36834 -0.00141272 0)
(2.36872 -0.00196697 0)
(2.36905 -0.00235147 0)
(2.36822 -0.00228061 0)
(2.3686 -0.00174563 0)
(2.37023 -0.00129686 0)
(2.37185 -0.000746127 0)
(2.37498 8.46981e-05 0)
(2.37962 0.000704306 0)
(2.38184 0.000831233 0)
(2.38242 0.00081363 0)
(2.38283 0.000837613 0)
(2.38285 0.00036653 0)
(2.38339 -0.000510449 0)
(2.38433 -0.00110541 0)
(2.38601 -0.00169549 0)
(2.38731 -0.00191521 0)
(2.38868 -0.00145292 0)
(2.38955 -0.000325006 0)
(2.39031 0.000558847 0)
(2.39088 0.00106459 0)
(2.39138 0.00124538 0)
(2.39182 0.00126255 0)
(2.39266 0.0012019 0)
(2.39412 0.000989197 0)
(2.39537 0.000337068 0)
(2.39592 -0.000282598 0)
(2.39649 -0.000585141 0)
(2.39639 -0.000646646 0)
(2.39394 -0.000307373 0)
(2.39052 0.000540125 0)
(2.38861 0.00155396 0)
(2.38889 0.00203417 0)
(2.38976 0.00211175 0)
(2.39045 0.00215224 0)
(2.39197 0.00205693 0)
(2.39431 0.00163522 0)
(2.3958 0.000692993 0)
(2.39577 0.000143673 0)
(2.39507 -8.93385e-05 0)
(2.39173 2.42041e-05 0)
(2.38624 0.000621836 0)
(2.38399 0.00104118 0)
(2.38422 0.00107264 0)
(2.38525 0.000982112 0)
(2.38767 0.000795441 0)
(2.38882 0.000764723 0)
(2.39007 0.000543055 0)
(2.39098 -4.59851e-05 0)
(2.39078 -0.000561233 0)
(2.38843 -0.000651446 0)
(2.38558 -0.000390021 0)
(2.38419 0.000143649 0)
(2.38346 0.000760472 0)
(2.38263 0.00132984 0)
(2.38147 0.0015942 0)
(2.37994 0.0016656 0)
(2.37782 0.00179334 0)
(2.37533 0.00189616 0)
(2.37407 0.00191183 0)
(2.37421 0.00195496 0)
(2.37471 0.00201222 0)
(2.37604 0.00195912 0)
(2.37772 0.00108042 0)
(2.37879 -0.000191653 0)
(2.37901 -0.000778149 0)
(2.37897 -0.000969887 0)
(2.37727 -0.00069898 0)
(2.37247 0.000336496 0)
(2.36728 0.00174116 0)
(2.36547 0.0023303 0)
(2.36499 0.00242562 0)
(2.36463 0.00247267 0)
(2.36533 0.00226551 0)
(2.36754 0.00200263 0)
(2.36912 0.00162082 0)
(2.36921 0.00124188 0)
(2.36912 0.000859673 0)
(2.36934 0.000264587 0)
(2.37021 -0.000599311 0)
(2.37194 -0.00143663 0)
(2.37325 -0.00171373 0)
(2.37388 -0.00152386 0)
(2.37395 -0.000942873 0)
(2.37271 -0.000262795 0)
(2.36945 0.000914938 0)
(2.3659 0.00208691 0)
(2.36447 0.0023245 0)
(2.36275 0.00254372 0)
(2.36178 0.00262702 0)
(2.36337 0.002312 0)
(2.36901 0.0012945 0)
(2.37588 -0.000324076 0)
(2.37865 -0.00179593 0)
(2.3792 -0.00238808 0)
(2.37963 -0.0030273 0)
(2.37842 -0.0029784 0)
(2.37578 -0.0023529 0)
(2.37578 -0.00116639 0)
(2.37675 -7.86953e-05 0)
(2.37751 0.000712571 0)
(2.38003 0.00155813 0)
(2.38457 0.00184103 0)
(2.38778 0.00143963 0)
(2.38812 0.000599829 0)
(2.38754 -0.000532243 0)
(2.38713 -0.00159392 0)
(2.38723 -0.00222252 0)
(2.38828 -0.00217309 0)
(2.38974 -0.00173505 0)
(2.39144 -0.00109456 0)
(2.39618 0.000149905 0)
(2.39964 0.000327545 0)
(1.65614 0.0114913 0)
(0.904755 0.0130448 0)
(0.812534 0.0216203 0)
(0.768482 0.0183069 0)
(0.734447 0.0143493 0)
(0.710307 0.0110014 0)
(0.688571 0.00990263 0)
(0.667473 0.00839464 0)
(0.654576 0.00453396 0)
(0.653342 0.00226193 0)
(0.655666 -0.000692287 0)
(0.656004 -0.0017517 0)
(0.655686 -0.00212857 0)
(0.655959 -0.00203206 0)
(0.659014 -0.00171041 0)
(0.665587 -0.0015789 0)
(0.676256 -0.00225353 0)
(0.68411 -0.00311706 0)
(0.688102 -0.00346394 0)
(0.690129 -0.00358657 0)
(0.690897 -0.00325491 0)
(0.691309 -0.00249746 0)
(0.692002 -0.00158342 0)
(0.693029 -0.000831385 0)
(0.694355 -0.000400083 0)
(0.696126 -0.000389209 0)
(0.699403 -0.000629094 0)
(0.705037 -0.000776352 0)
(0.71112 -0.000976021 0)
(0.714388 -0.00114674 0)
(0.715759 -0.00126653 0)
(0.714898 -0.0013546 0)
(0.713184 -0.00144006 0)
(0.713811 -0.0015495 0)
(0.715202 -0.00168518 0)
(0.718608 -0.00179921 0)
(0.724316 -0.00188181 0)
(0.728431 -0.00174167 0)
(0.72855 -0.00130083 0)
(0.727542 -0.000274007 0)
(0.725228 0.000875705 0)
(0.722761 0.0016711 0)
(0.721221 0.00198171 0)
(0.720691 0.00200515 0)
(0.72118 0.00180716 0)
(0.72358 0.000904908 0)
(0.728284 -0.000875058 0)
(0.734359 -0.00252143 0)
(0.739257 -0.00373955 0)
(0.743038 -0.00497034 0)
(0.746288 -0.00590117 0)
(0.750212 -0.00654548 0)
(0.755522 -0.00708517 0)
(0.763425 -0.00751622 0)
(0.775474 -0.00781863 0)
(0.790331 -0.00786361 0)
(0.8067 -0.00746607 0)
(0.824039 -0.0063508 0)
(0.84239 -0.00512367 0)
(0.858796 -0.0053797 0)
(0.869044 -0.0069028 0)
(0.874765 -0.0077276 0)
(0.879249 -0.00802462 0)
(0.883456 -0.00730311 0)
(0.888878 -0.00603024 0)
(0.896609 -0.00451747 0)
(0.909213 -0.00321143 0)
(2.33845 0.00806524 0)
(2.33857 0.00819356 0)
(2.33964 0.00719413 0)
(2.34171 0.0052221 0)
(2.34381 0.00277213 0)
(2.34534 -0.0002475 0)
(2.34581 -0.00279675 0)
(2.34625 -0.00444502 0)
(2.34624 -0.00497719 0)
(2.34519 -0.00406127 0)
(2.34263 -0.00131929 0)
(2.33965 0.00228922 0)
(2.33827 0.00499439 0)
(2.33815 0.00623802 0)
(2.33847 0.00648681 0)
(2.33918 0.00491608 0)
(2.33934 0.00293769 0)
(2.33886 0.00069714 0)
(2.33848 -0.00250861 0)
(2.33839 -0.0043358 0)
(2.33878 -0.00503089 0)
(2.33964 -0.00548054 0)
(2.34163 -0.0055424 0)
(2.34397 -0.00574261 0)
(2.34471 -0.0060306 0)
(2.34522 -0.00623019 0)
(2.34522 -0.00612056 0)
(2.34331 -0.00449031 0)
(2.33952 -0.00120497 0)
(2.33747 0.00139802 0)
(2.33747 0.00287202 0)
(2.33796 0.00420807 0)
(2.33907 0.00568623 0)
(2.34116 0.00685972 0)
(2.34359 0.00711611 0)
(2.34424 0.00686238 0)
(2.34406 0.00669499 0)
(2.34315 0.00600883 0)
(2.34165 0.00471866 0)
(2.34113 0.00386118 0)
(2.34102 0.00266257 0)
(2.34147 0.000325154 0)
(2.34226 -0.0030211 0)
(2.3425 -0.00591747 0)
(2.34202 -0.00700502 0)
(2.34145 -0.00681133 0)
(2.3404 -0.00538454 0)
(2.33942 -0.00278598 0)
(2.33933 3.25516e-05 0)
(2.33995 0.00267525 0)
(2.34149 0.00509291 0)
(2.34402 0.00678441 0)
(2.34802 0.00633511 0)
(2.35131 0.00428169 0)
(2.35239 0.00176321 0)
(2.35211 -0.0012335 0)
(2.35022 -0.00484847 0)
(2.34764 -0.00649814 0)
(2.34548 -0.00571071 0)
(2.34512 -0.00494293 0)
(2.34533 -0.00450364 0)
(2.34619 -0.00386744 0)
(2.34872 -0.00328137 0)
(2.35383 -0.00302953 0)
(2.35921 -0.00281674 0)
(2.36133 -0.00238502 0)
(2.36185 -0.00175806 0)
(2.36201 -0.000174563 0)
(2.3622 0.00171424 0)
(2.36293 0.00320789 0)
(2.36382 0.00409669 0)
(2.36572 0.00399088 0)
(2.36819 0.00258353 0)
(2.36929 0.000965922 0)
(2.36959 -0.000826406 0)
(2.36988 -0.00354932 0)
(2.37063 -0.00572687 0)
(2.37154 -0.00648441 0)
(2.37279 -0.00657842 0)
(2.37537 -0.00559469 0)
(2.37989 -0.00250594 0)
(2.38383 0.000916619 0)
(2.38494 0.0020026 0)
(2.38584 0.00277504 0)
(2.38594 0.00340968 0)
(2.38476 0.00307167 0)
(2.38398 0.00175807 0)
(2.38456 0.000411252 0)
(2.38566 -0.00138395 0)
(2.38803 -0.00363437 0)
(2.39102 -0.00469506 0)
(2.39284 -0.00373852 0)
(2.39375 -0.00222358 0)
(2.39452 6.5978e-05 0)
(2.39473 0.00219904 0)
(2.39483 0.00378055 0)
(2.39511 0.00447648 0)
(2.39547 0.00433271 0)
(2.39632 0.0031981 0)
(2.3971 0.00182871 0)
(2.3976 -3.26947e-05 0)
(2.39741 -0.00249122 0)
(2.39663 -0.0038872 0)
(2.39494 -0.00297944 0)
(2.39311 -0.000433294 0)
(2.39246 0.00244087 0)
(2.3931 0.00438202 0)
(2.39382 0.00565544 0)
(2.3945 0.00652565 0)
(2.39547 0.00619093 0)
(2.39649 0.00418163 0)
(2.3969 0.00181474 0)
(2.39609 -0.000782137 0)
(2.3943 -0.00277482 0)
(2.39109 -0.0019071 0)
(2.38824 0.000431455 0)
(2.3875 0.00225102 0)
(2.38818 0.00313388 0)
(2.38913 0.00378866 0)
(2.3903 0.00386969 0)
(2.39138 0.00327962 0)
(2.39192 0.00244199 0)
(2.39124 0.00128881 0)
(2.38904 -0.000795293 0)
(2.38692 -0.00213536 0)
(2.38622 -0.00265338 0)
(2.38554 -0.00257547 0)
(2.38523 -0.00202048 0)
(2.38478 -0.00112925 0)
(2.38413 -5.46021e-07 0)
(2.3825 0.00181128 0)
(2.37931 0.00417752 0)
(2.37623 0.00615194 0)
(2.37536 0.0069085 0)
(2.37561 0.00700375 0)
(2.37667 0.0066863 0)
(2.37835 0.0055096 0)
(2.37971 0.00348181 0)
(2.38028 0.00103231 0)
(2.38006 -0.00162571 0)
(2.37896 -0.00354478 0)
(2.37649 -0.0033989 0)
(2.37194 -0.000863101 0)
(2.36851 0.00172734 0)
(2.36774 0.00284802 0)
(2.36768 0.00375815 0)
(2.36813 0.00475826 0)
(2.3696 0.00530016 0)
(2.37052 0.00517746 0)
(2.37038 0.0049006 0)
(2.37019 0.0039709 0)
(2.3706 0.00310264 0)
(2.37167 0.00195276 0)
(2.37315 5.13977e-05 0)
(2.37481 -0.00246115 0)
(2.37593 -0.00414687 0)
(2.37607 -0.00453498 0)
(2.37558 -0.00409244 0)
(2.37349 -0.00214689 0)
(2.36986 0.00129763 0)
(2.36742 0.00376134 0)
(2.36656 0.00486133 0)
(2.36579 0.00610647 0)
(2.3666 0.00652455 0)
(2.3714 0.00533727 0)
(2.37788 0.00304285 0)
(2.38064 0.00105018 0)
(2.38095 -0.000301262 0)
(2.3801 -0.00294032 0)
(2.37839 -0.00601868 0)
(2.37848 -0.00715346 0)
(2.37912 -0.00677252 0)
(2.38023 -0.00528834 0)
(2.38204 -0.00281321 0)
(2.38515 0.000696546 0)
(2.3884 0.00355833 0)
(2.38995 0.00418883 0)
(2.38989 0.00392908 0)
(2.38913 0.00277112 0)
(2.3886 0.000315228 0)
(2.38867 -0.00240434 0)
(2.38961 -0.0050607 0)
(2.39131 -0.00675027 0)
(2.39524 -0.00602839 0)
(2.40136 -0.00187774 0)
(2.40404 0.000926407 0)
(1.69043 0.0558845 0)
(0.900509 0.0599492 0)
(0.79279 0.0603317 0)
(0.750078 0.0466211 0)
(0.719162 0.0351078 0)
(0.701537 0.0257305 0)
(0.687886 0.0217979 0)
(0.67313 0.0174392 0)
(0.660871 0.0105791 0)
(0.657673 0.0025346 0)
(0.659637 -0.00387074 0)
(0.659681 -0.00718422 0)
(0.659377 -0.00831736 0)
(0.65995 -0.00819455 0)
(0.662615 -0.0071046 0)
(0.668563 -0.00601263 0)
(0.677352 -0.00678214 0)
(0.685069 -0.00893272 0)
(0.689826 -0.0103788 0)
(0.692154 -0.0111045 0)
(0.69371 -0.0109456 0)
(0.695073 -0.00953172 0)
(0.696343 -0.00745094 0)
(0.697535 -0.00518503 0)
(0.699082 -0.00311161 0)
(0.701272 -0.00134665 0)
(0.704491 -0.000446999 0)
(0.709481 -6.48126e-05 0)
(0.715048 -0.000227288 0)
(0.718176 -0.000814897 0)
(0.719596 -0.00110504 0)
(0.718571 -0.000853795 0)
(0.716482 -0.000355768 0)
(0.716882 -0.000147408 0)
(0.718058 -0.000267862 0)
(0.721093 -0.000975259 0)
(0.726217 -0.00273196 0)
(0.731271 -0.00487257 0)
(0.733059 -0.00509448 0)
(0.732537 -0.00427623 0)
(0.731266 -0.00228886 0)
(0.729355 0.000506451 0)
(0.727645 0.00320816 0)
(0.727005 0.00473 0)
(0.727276 0.0052429 0)
(0.728831 0.0047104 0)
(0.73344 0.00280056 0)
(0.740901 -0.00121488 0)
(0.748479 -0.00596354 0)
(0.754666 -0.00953819 0)
(0.760125 -0.0122957 0)
(0.765426 -0.0144401 0)
(0.771034 -0.0158908 0)
(0.777666 -0.0172888 0)
(0.78738 -0.0188536 0)
(0.800301 -0.02024 0)
(0.816428 -0.0204797 0)
(0.83495 -0.018939 0)
(0.851264 -0.0165477 0)
(0.862466 -0.016148 0)
(0.869851 -0.0180575 0)
(0.876597 -0.0206552 0)
(0.883592 -0.0227272 0)
(0.890544 -0.0224011 0)
(0.898304 -0.019099 0)
(0.907796 -0.0132744 0)
(0.919434 -0.00684251 0)
(2.35093 0.00697808 0)
(2.34895 0.00928522 0)
(2.34864 0.00989447 0)
(2.34967 0.0097356 0)
(2.35076 0.00909666 0)
(2.3515 0.00790014 0)
(2.3526 0.0060202 0)
(2.35384 0.00351345 0)
(2.35422 0.00143904 0)
(2.35365 -0.000156887 0)
(2.3523 -0.00104142 0)
(2.35069 -0.000163078 0)
(2.35019 0.00197041 0)
(2.35038 0.00420931 0)
(2.3505 0.00626876 0)
(2.34989 0.00762304 0)
(2.34842 0.00768048 0)
(2.34687 0.00686545 0)
(2.34626 0.00613054 0)
(2.34639 0.00552277 0)
(2.34729 0.00426826 0)
(2.34889 0.00335377 0)
(2.35104 0.00247247 0)
(2.35277 0.00111104 0)
(2.35338 -0.000269918 0)
(2.35348 -0.00138104 0)
(2.35304 -0.00253679 0)
(2.35164 -0.00355857 0)
(2.34931 -0.0031951 0)
(2.34826 -0.00181616 0)
(2.34843 -0.00118227 0)
(2.34933 -4.38988e-05 0)
(2.35088 0.00199981 0)
(2.3524 0.00419966 0)
(2.35307 0.00531966 0)
(2.35359 0.00593332 0)
(2.35362 0.00672454 0)
(2.35238 0.00786481 0)
(2.35001 0.00891885 0)
(2.34844 0.00897445 0)
(2.34791 0.0084343 0)
(2.34755 0.00722693 0)
(2.34757 0.00516382 0)
(2.34869 0.00214615 0)
(2.3503 -0.00149844 0)
(2.35086 -0.00377755 0)
(2.35054 -0.00483374 0)
(2.35041 -0.00514322 0)
(2.35094 -0.00449742 0)
(2.35252 -0.00276914 0)
(2.35516 0.000203111 0)
(2.35725 0.00396462 0)
(2.35813 0.00666076 0)
(2.35895 0.00744571 0)
(2.35892 0.00665295 0)
(2.35777 0.00453937 0)
(2.35689 0.00190479 0)
(2.35691 -0.00113663 0)
(2.35695 -0.00274513 0)
(2.35707 -0.00293613 0)
(2.35739 -0.00280446 0)
(2.35807 -0.00243132 0)
(2.35976 -0.00190709 0)
(2.36357 -0.00180234 0)
(2.36858 -0.00248623 0)
(2.37136 -0.00303816 0)
(2.37192 -0.00311843 0)
(2.37225 -0.0029699 0)
(2.37303 -0.00233993 0)
(2.37417 -0.00114857 0)
(2.37551 0.000429936 0)
(2.37678 0.00210066 0)
(2.37773 0.00319447 0)
(2.37803 0.00343285 0)
(2.37791 0.00291743 0)
(2.37788 0.00228936 0)
(2.37832 0.00146847 0)
(2.37965 -0.000417938 0)
(2.38157 -0.00216137 0)
(2.38471 -0.0032959 0)
(2.38971 -0.00357068 0)
(2.39365 -0.00305274 0)
(2.39491 -0.00242526 0)
(2.39589 -0.00169518 0)
(2.39648 -0.000608312 0)
(2.39525 0.00101334 0)
(2.39266 0.00277276 0)
(2.39165 0.00325503 0)
(2.39218 0.00298129 0)
(2.39296 0.00213438 0)
(2.39626 -0.000361384 0)
(2.40066 -0.00252116 0)
(2.40252 -0.00271466 0)
(2.40299 -0.00231183 0)
(2.40364 -0.00111 0)
(2.40424 0.000844328 0)
(2.40438 0.00300857 0)
(2.40378 0.00496268 0)
(2.40306 0.00604291 0)
(2.40251 0.00593062 0)
(2.40193 0.00493338 0)
(2.4017 0.00328758 0)
(2.40159 0.00116807 0)
(2.40115 -0.000535354 0)
(2.4006 -0.00091192 0)
(2.40082 0.000304402 0)
(2.40185 0.00212161 0)
(2.40288 0.004122 0)
(2.40358 0.00615145 0)
(2.4035 0.00797762 0)
(2.40245 0.00858589 0)
(2.40099 0.00714355 0)
(2.39972 0.00436339 0)
(2.39867 0.000929306 0)
(2.39726 -0.00141067 0)
(2.39652 -0.0019214 0)
(2.39666 -0.00089956 0)
(2.39689 0.000516872 0)
(2.3973 0.00213783 0)
(2.39769 0.00397243 0)
(2.39743 0.00518771 0)
(2.39636 0.00567938 0)
(2.39431 0.00581267 0)
(2.39196 0.00594845 0)
(2.39108 0.00545985 0)
(2.39066 0.00366646 0)
(2.39078 0.00178717 0)
(2.39101 0.000497459 0)
(2.39088 -0.000366337 0)
(2.39056 -0.000588944 0)
(2.38969 -0.000304883 0)
(2.38752 0.000976345 0)
(2.38446 0.00364426 0)
(2.38223 0.00679788 0)
(2.3814 0.00887751 0)
(2.38182 0.00955697 0)
(2.38257 0.00940219 0)
(2.38338 0.00815221 0)
(2.38345 0.00619002 0)
(2.38285 0.00465437 0)
(2.38214 0.00261852 0)
(2.38099 0.000656476 0)
(2.37903 0.000205313 0)
(2.37625 0.00115358 0)
(2.37544 0.00157693 0)
(2.37526 0.00209902 0)
(2.3762 0.00331651 0)
(2.37722 0.00452403 0)
(2.37743 0.00493655 0)
(2.37712 0.00549757 0)
(2.37623 0.00594306 0)
(2.37617 0.00575283 0)
(2.37666 0.00528217 0)
(2.37728 0.0045368 0)
(2.37854 0.00343586 0)
(2.3801 0.00173547 0)
(2.38102 -0.000105261 0)
(2.3805 -0.00131087 0)
(2.37918 -0.0017999 0)
(2.37766 -0.00126367 0)
(2.37622 0.000592754 0)
(2.3759 0.00147142 0)
(2.37595 0.00286323 0)
(2.37704 0.00412783 0)
(2.37995 0.00390446 0)
(2.38439 0.00253005 0)
(2.38579 0.00207678 0)
(2.38606 0.00153433 0)
(2.38501 -0.000107576 0)
(2.38432 -0.00173303 0)
(2.38497 -0.00297842 0)
(2.38637 -0.00488187 0)
(2.38821 -0.00552449 0)
(2.39135 -0.00423555 0)
(2.39552 -0.00114221 0)
(2.39776 0.00125272 0)
(2.39841 0.00227454 0)
(2.39829 0.00332599 0)
(2.3966 0.00359023 0)
(2.39438 0.00250744 0)
(2.39362 0.00135659 0)
(2.39379 -8.66243e-05 0)
(2.39645 -0.00263027 0)
(2.40287 -0.00480983 0)
(2.4104 -0.0044682 0)
(2.41323 -0.00380021 0)
(1.80029 0.0937817 0)
(0.922612 0.109709 0)
(0.794932 0.0993578 0)
(0.751812 0.0781672 0)
(0.719457 0.0610205 0)
(0.705284 0.0453527 0)
(0.69692 0.0340681 0)
(0.686834 0.0248103 0)
(0.676421 0.016799 0)
(0.670489 0.00826013 0)
(0.670718 -0.00108455 0)
(0.670773 -0.00842463 0)
(0.670559 -0.0111817 0)
(0.67163 -0.0117943 0)
(0.674303 -0.0111561 0)
(0.679469 -0.00979806 0)
(0.686783 -0.0093796 0)
(0.694059 -0.0102012 0)
(0.699396 -0.0109929 0)
(0.702078 -0.0112237 0)
(0.704273 -0.0110753 0)
(0.706606 -0.0101566 0)
(0.709201 -0.00837375 0)
(0.71131 -0.00583709 0)
(0.713322 -0.00329576 0)
(0.715938 -0.00139247 0)
(0.718994 0.00031661 0)
(0.722974 0.000691697 0)
(0.727419 -0.000423594 0)
(0.73036 -0.00184012 0)
(0.731786 -0.00258938 0)
(0.731217 -0.00287955 0)
(0.729195 -0.00206849 0)
(0.728891 -0.00129819 0)
(0.729746 -0.0007119 0)
(0.731871 -0.000128509 0)
(0.736378 6.0132e-05 0)
(0.742658 -0.00128482 0)
(0.747242 -0.00304357 0)
(0.748466 -0.00320195 0)
(0.748128 -0.0027899 0)
(0.74736 -0.00201119 0)
(0.746484 -0.000983856 0)
(0.746529 4.82471e-05 0)
(0.747568 0.000479111 0)
(0.750268 0.000429684 0)
(0.755783 -0.000936771 0)
(0.763994 -0.00368279 0)
(0.772612 -0.00849376 0)
(0.780516 -0.0148937 0)
(0.788038 -0.0209814 0)
(0.795635 -0.0257274 0)
(0.802923 -0.0282774 0)
(0.809475 -0.0280495 0)
(0.816497 -0.0267526 0)
(0.8266 -0.0258488 0)
(0.840129 -0.0260726 0)
(0.856817 -0.027605 0)
(0.871327 -0.0301452 0)
(0.881859 -0.0315918 0)
(0.889045 -0.0313749 0)
(0.894946 -0.0306141 0)
(0.900688 -0.0296588 0)
(0.907261 -0.028436 0)
(0.915395 -0.0266836 0)
(0.925274 -0.02449 0)
(0.936795 -0.022026 0)
(2.36959 0.000209406 0)
(2.36782 -0.00122244 0)
(2.3681 -0.00217953 0)
(2.36934 -0.00248158 0)
(2.37067 -0.0023133 0)
(2.37307 -0.00073034 0)
(2.37495 0.00205093 0)
(2.37534 0.00435167 0)
(2.3753 0.00653534 0)
(2.3744 0.00815382 0)
(2.37253 0.00835236 0)
(2.37043 0.00645779 0)
(2.36955 0.00365338 0)
(2.36939 0.000825572 0)
(2.36916 -0.00182894 0)
(2.36906 -0.00395872 0)
(2.36946 -0.00477715 0)
(2.37025 -0.00405767 0)
(2.37064 -0.00151978 0)
(2.37089 0.00196621 0)
(2.37146 0.00487278 0)
(2.3724 0.00689477 0)
(2.37272 0.0082572 0)
(2.37281 0.00897594 0)
(2.37264 0.00890535 0)
(2.37203 0.00872346 0)
(2.37106 0.0086608 0)
(2.36977 0.0072241 0)
(2.36847 0.00455875 0)
(2.36825 0.00335425 0)
(2.36846 0.00268011 0)
(2.36887 0.00154146 0)
(2.36968 -0.00020289 0)
(2.37068 -0.00217997 0)
(2.37146 -0.0037989 0)
(2.37171 -0.00476545 0)
(2.37167 -0.00538024 0)
(2.37118 -0.00542006 0)
(2.37008 -0.0042321 0)
(2.36898 -0.00214567 0)
(2.36845 0.000118121 0)
(2.36853 0.00233523 0)
(2.36934 0.00433601 0)
(2.37043 0.00621194 0)
(2.37068 0.00687513 0)
(2.37074 0.00593584 0)
(2.37094 0.00400636 0)
(2.37124 0.00176673 0)
(2.37178 -0.00071612 0)
(2.37284 -0.00312289 0)
(2.37449 -0.00460357 0)
(2.37655 -0.00503716 0)
(2.37831 -0.00476412 0)
(2.37905 -0.00410893 0)
(2.37933 -0.0019929 0)
(2.37903 0.000298514 0)
(2.37898 0.00233002 0)
(2.37892 0.00335748 0)
(2.37889 0.00326126 0)
(2.37921 0.00224261 0)
(2.38003 0.0012399 0)
(2.38127 0.000910846 0)
(2.38334 0.00119649 0)
(2.3868 0.00188524 0)
(2.39081 0.00221281 0)
(2.3928 0.00191813 0)
(2.39296 0.00168889 0)
(2.393 0.000544312 0)
(2.39331 -0.00158367 0)
(2.39394 -0.00416777 0)
(2.39485 -0.00656454 0)
(2.39618 -0.0081549 0)
(2.3975 -0.00887118 0)
(2.39857 -0.00877949 0)
(2.39962 -0.00729928 0)
(2.40042 -0.00488139 0)
(2.40118 -0.00258658 0)
(2.40195 -0.000762014 0)
(2.40307 0.000503087 0)
(2.40547 0.00177086 0)
(2.40939 0.00184453 0)
(2.41265 2.00521e-05 0)
(2.41386 -0.00203128 0)
(2.41391 -0.00394774 0)
(2.4134 -0.00639293 0)
(2.41221 -0.00856848 0)
(2.41094 -0.00885954 0)
(2.41081 -0.00714971 0)
(2.41165 -0.00458836 0)
(2.41307 -0.00155537 0)
(2.41563 0.0016184 0)
(2.41811 0.00303585 0)
(2.41913 0.00256065 0)
(2.41929 0.00170718 0)
(2.41923 0.000248408 0)
(2.41898 -0.00161112 0)
(2.41871 -0.00320849 0)
(2.4186 -0.00382956 0)
(2.41867 -0.0032182 0)
(2.41856 -0.00139126 0)
(2.41846 0.0013869 0)
(2.41815 0.00441118 0)
(2.41704 0.00672943 0)
(2.41574 0.00758484 0)
(2.41491 0.00683902 0)
(2.41499 0.00541566 0)
(2.41544 0.00378617 0)
(2.4162 0.00188987 0)
(2.41678 0.000261648 0)
(2.41714 -0.000391168 0)
(2.41752 0.000149826 0)
(2.41669 0.00249836 0)
(2.41507 0.00488685 0)
(2.41318 0.00548656 0)
(2.41176 0.00458269 0)
(2.41093 0.00253167 0)
(2.41082 -0.000774159 0)
(2.41014 -0.00384671 0)
(2.40987 -0.00546052 0)
(2.41018 -0.00550526 0)
(2.41035 -0.00448911 0)
(2.40994 -0.00209616 0)
(2.40877 0.00214207 0)
(2.40696 0.00712888 0)
(2.4044 0.0110686 0)
(2.40277 0.0125001 0)
(2.40183 0.0121343 0)
(2.40173 0.00977466 0)
(2.4021 0.00669128 0)
(2.40153 0.00432436 0)
(2.40036 0.00209759 0)
(2.39814 -0.000440863 0)
(2.39569 -0.00194297 0)
(2.39427 -0.00143282 0)
(2.3942 0.000337535 0)
(2.39456 0.00246927 0)
(2.39493 0.00467119 0)
(2.39539 0.00652984 0)
(2.39553 0.00805319 0)
(2.3953 0.00950695 0)
(2.39444 0.0105294 0)
(2.39318 0.0105646 0)
(2.39142 0.00923077 0)
(2.38958 0.00697471 0)
(2.38904 0.00605219 0)
(2.38875 0.00475049 0)
(2.38932 0.00241601 0)
(2.39007 -0.000273724 0)
(2.39029 -0.00210501 0)
(2.39022 -0.00288391 0)
(2.39023 -0.00311087 0)
(2.3906 -0.00249356 0)
(2.39137 -0.00163353 0)
(2.39251 -0.000576733 0)
(2.39436 0.00160827 0)
(2.3952 0.00404827 0)
(2.39474 0.00556449 0)
(2.39361 0.00616097 0)
(2.39277 0.00582712 0)
(2.39196 0.004332 0)
(2.39165 0.00276938 0)
(2.39172 0.00195974 0)
(2.39217 0.000755358 0)
(2.39332 -0.000979632 0)
(2.39562 -0.00294562 0)
(2.39899 -0.00524716 0)
(2.40106 -0.00660409 0)
(2.40155 -0.00663198 0)
(2.40221 -0.00523927 0)
(2.40246 -0.00234181 0)
(2.40234 0.000304573 0)
(2.40258 0.00121712 0)
(2.40343 0.00124855 0)
(2.40627 0.000153557 0)
(2.41038 -0.0019417 0)
(2.41284 -0.00394491 0)
(2.41352 -0.00489363 0)
(2.41394 -0.00537698 0)
(2.41306 -0.00510437 0)
(2.41111 -0.00325401 0)
(2.41089 -0.00133458 0)
(2.41151 -0.000256044 0)
(2.41369 0.0011739 0)
(2.41905 0.00189279 0)
(2.42585 -0.00112267 0)
(2.4288 -0.00417611 0)
(1.97428 0.125125 0)
(0.964861 0.165074 0)
(0.813826 0.135081 0)
(0.777764 0.102473 0)
(0.745492 0.0791193 0)
(0.731785 0.0575992 0)
(0.724325 0.0395942 0)
(0.715508 0.0259432 0)
(0.705431 0.0151643 0)
(0.698612 0.00597255 0)
(0.697366 -0.00115479 0)
(0.696568 -0.00670958 0)
(0.695897 -0.0102909 0)
(0.696763 -0.0126305 0)
(0.699703 -0.0134441 0)
(0.704631 -0.0131496 0)
(0.71144 -0.0121165 0)
(0.718684 -0.0109473 0)
(0.724171 -0.00957859 0)
(0.727046 -0.00859179 0)
(0.729131 -0.00707681 0)
(0.731724 -0.00562245 0)
(0.735543 -0.00457591 0)
(0.739371 -0.00323123 0)
(0.742504 -0.00174712 0)
(0.745314 -0.00091921 0)
(0.747725 -0.00103397 0)
(0.750367 -0.00240712 0)
(0.753636 -0.00507102 0)
(0.756777 -0.00812263 0)
(0.758448 -0.0101972 0)
(0.759236 -0.0109923 0)
(0.759197 -0.0100225 0)
(0.759297 -0.00727144 0)
(0.760393 -0.00443656 0)
(0.762408 -0.00219993 0)
(0.766378 -0.00102855 0)
(0.772692 -0.000601195 0)
(0.778875 -0.000765717 0)
(0.782203 -0.00136084 0)
(0.783173 -0.00199917 0)
(0.783558 -0.0028672 0)
(0.784281 -0.00391978 0)
(0.785938 -0.00491497 0)
(0.789245 -0.00618506 0)
(0.794789 -0.00734895 0)
(0.802681 -0.0074855 0)
(0.811565 -0.00814439 0)
(0.819499 -0.0108267 0)
(0.826756 -0.0154672 0)
(0.834418 -0.0220765 0)
(0.84272 -0.0293877 0)
(0.850902 -0.0351849 0)
(0.858536 -0.0379371 0)
(0.865385 -0.0370382 0)
(0.873079 -0.0342116 0)
(0.883002 -0.0320612 0)
(0.894811 -0.0327252 0)
(0.90684 -0.0359909 0)
(0.91725 -0.0392594 0)
(0.925536 -0.0401161 0)
(0.931474 -0.0379522 0)
(0.93686 -0.0333643 0)
(0.942477 -0.0282489 0)
(0.948984 -0.0250258 0)
(0.956708 -0.0243823 0)
(0.966013 -0.026069 0)
(2.4005 0.00785143 0)
(2.40002 0.00614877 0)
(2.40052 0.00534975 0)
(2.40129 0.00462621 0)
(2.4034 0.00381317 0)
(2.40662 0.00372969 0)
(2.40845 0.00415422 0)
(2.40891 0.0047161 0)
(2.40919 0.00568884 0)
(2.40913 0.00733556 0)
(2.40763 0.00942263 0)
(2.40422 0.0112614 0)
(2.40124 0.0115939 0)
(2.40023 0.0101357 0)
(2.40021 0.0077069 0)
(2.40072 0.00509541 0)
(2.40223 0.00226339 0)
(2.40414 0.000223093 0)
(2.40564 -7.84615e-05 0)
(2.40634 0.000909067 0)
(2.40674 0.00233553 0)
(2.40682 0.00371325 0)
(2.40677 0.00504468 0)
(2.40644 0.00616115 0)
(2.40581 0.00707788 0)
(2.40485 0.00741638 0)
(2.40373 0.00722262 0)
(2.40234 0.00747818 0)
(2.40072 0.00824732 0)
(2.39992 0.00885797 0)
(2.4001 0.00924619 0)
(2.40048 0.00942741 0)
(2.40093 0.00926347 0)
(2.40164 0.00828189 0)
(2.40264 0.00656175 0)
(2.40297 0.00509077 0)
(2.40279 0.00407791 0)
(2.40259 0.00297227 0)
(2.40242 0.00163302 0)
(2.40233 0.000550868 0)
(2.40252 -5.02719e-05 0)
(2.40325 -0.000178718 0)
(2.40442 0.000227118 0)
(2.40543 0.00103819 0)
(2.40601 0.00203651 0)
(2.40619 0.0029899 0)
(2.40612 0.00383848 0)
(2.40576 0.00448219 0)
(2.40522 0.00485108 0)
(2.40509 0.00494362 0)
(2.40543 0.00446924 0)
(2.40717 0.00265796 0)
(2.41023 3.34869e-05 0)
(2.41283 -0.00204662 0)
(2.41407 -0.00315652 0)
(2.41441 -0.00337594 0)
(2.41439 -0.00304724 0)
(2.41384 -0.00265196 0)
(2.4135 -0.00276428 0)
(2.41381 -0.00276349 0)
(2.41412 -0.0028924 0)
(2.41519 -0.00326029 0)
(2.41791 -0.00313925 0)
(2.42243 -0.00165601 0)
(2.42591 0.00015181 0)
(2.42669 0.000789227 0)
(2.42681 0.00119156 0)
(2.42646 0.00186795 0)
(2.42546 0.00204808 0)
(2.42519 0.0014475 0)
(2.42568 0.000658567 0)
(2.42633 -0.000376485 0)
(2.42808 -0.00241516 0)
(2.43032 -0.00413885 0)
(2.43196 -0.00463351 0)
(2.43284 -0.00447797 0)
(2.43341 -0.00377107 0)
(2.43428 -0.00227125 0)
(2.43592 -0.00106581 0)
(2.43831 0.000231934 0)
(2.4405 0.0018588 0)
(2.44153 0.00242069 0)
(2.4425 0.00269618 0)
(2.44255 0.00236629 0)
(2.44112 0.000859967 0)
(2.43965 -0.00162034 0)
(2.43946 -0.00312345 0)
(2.43973 -0.00372505 0)
(2.44065 -0.0035645 0)
(2.4428 -0.00183813 0)
(2.44485 0.000785506 0)
(2.4456 0.00261084 0)
(2.44627 0.0043064 0)
(2.4461 0.00573895 0)
(2.44464 0.00631356 0)
(2.4428 0.00536505 0)
(2.44222 0.00371673 0)
(2.44243 0.00240274 0)
(2.44312 0.00104586 0)
(2.44365 0.000187548 0)
(2.44386 0.000181346 0)
(2.44388 0.00111599 0)
(2.44341 0.00355481 0)
(2.44225 0.00654677 0)
(2.44053 0.00916102 0)
(2.43871 0.010788 0)
(2.43776 0.0109825 0)
(2.43803 0.0102415 0)
(2.43845 0.00904385 0)
(2.4397 0.00623871 0)
(2.44076 0.00282972 0)
(2.44092 0.00122602 0)
(2.44084 0.00124527 0)
(2.44027 0.00297774 0)
(2.43853 0.00531109 0)
(2.43561 0.00645228 0)
(2.43343 0.00555027 0)
(2.43233 0.00378599 0)
(2.43156 0.00215001 0)
(2.43106 0.00122726 0)
(2.43084 0.000619761 0)
(2.43069 0.000274194 0)
(2.43076 0.00103006 0)
(2.43048 0.00316107 0)
(2.42872 0.00637786 0)
(2.42626 0.00941147 0)
(2.42445 0.0113224 0)
(2.42348 0.0124241 0)
(2.42263 0.0128016 0)
(2.42148 0.0123748 0)
(2.41975 0.0106833 0)
(2.41755 0.00745682 0)
(2.41561 0.00396677 0)
(2.41484 0.00157945 0)
(2.41496 0.00053089 0)
(2.41585 0.000378116 0)
(2.41703 0.0011938 0)
(2.41831 0.00351641 0)
(2.4192 0.0059115 0)
(2.41923 0.00749152 0)
(2.41891 0.00903707 0)
(2.41802 0.0107318 0)
(2.41566 0.011504 0)
(2.41285 0.0111358 0)
(2.41218 0.0111229 0)
(2.41227 0.0112034 0)
(2.41252 0.0106063 0)
(2.41292 0.00834809 0)
(2.41353 0.00495312 0)
(2.41411 0.00183297 0)
(2.41467 -0.00029474 0)
(2.41552 -0.00137667 0)
(2.41702 -0.00146425 0)
(2.4192 -0.000361986 0)
(2.42073 0.00124415 0)
(2.42102 0.00233792 0)
(2.42094 0.00363342 0)
(2.42053 0.00531306 0)
(2.41924 0.00706011 0)
(2.4176 0.00735312 0)
(2.41724 0.00677426 0)
(2.41747 0.0059051 0)
(2.41833 0.00404378 0)
(2.41989 0.00156862 0)
(2.42231 -0.00126941 0)
(2.42582 -0.00440817 0)
(2.42957 -0.00710381 0)
(2.43101 -0.00798127 0)
(2.43087 -0.00792187 0)
(2.4306 -0.00727301 0)
(2.43039 -0.00466756 0)
(2.43103 -0.00127508 0)
(2.4322 0.00167028 0)
(2.43413 0.00369056 0)
(2.43592 0.00362258 0)
(2.43764 0.00160423 0)
(2.43881 -0.00126744 0)
(2.43902 -0.00375061 0)
(2.43905 -0.00570081 0)
(2.43917 -0.00625981 0)
(2.43969 -0.00557751 0)
(2.44126 -0.00331976 0)
(2.44395 -0.00107445 0)
(2.44805 0.000493373 0)
(2.45197 0.00018682 0)
(2.45268 -0.000388232 0)
(2.20514 0.13632 0)
(1.03398 0.216863 0)
(0.850033 0.163559 0)
(0.823939 0.120743 0)
(0.793556 0.0929056 0)
(0.778281 0.0716647 0)
(0.767659 0.0543289 0)
(0.758226 0.0379107 0)
(0.748985 0.022977 0)
(0.74339 0.0107278 0)
(0.743142 0.00198467 0)
(0.743673 -0.0044862 0)
(0.743066 -0.00885846 0)
(0.742909 -0.0124039 0)
(0.745245 -0.0153212 0)
(0.749859 -0.0173225 0)
(0.756745 -0.0181821 0)
(0.764572 -0.0178687 0)
(0.770529 -0.0167638 0)
(0.773538 -0.0157398 0)
(0.775474 -0.0140511 0)
(0.777571 -0.01209 0)
(0.781155 -0.0109093 0)
(0.785883 -0.0100513 0)
(0.791069 -0.00879743 0)
(0.795305 -0.00693711 0)
(0.798092 -0.00503543 0)
(0.800036 -0.00375473 0)
(0.801859 -0.00379616 0)
(0.804011 -0.00570023 0)
(0.806173 -0.00883636 0)
(0.807694 -0.011386 0)
(0.809663 -0.0129133 0)
(0.811907 -0.012678 0)
(0.814434 -0.00993772 0)
(0.817488 -0.00588775 0)
(0.821321 -0.00275495 0)
(0.826324 -0.0017318 0)
(0.83211 -0.00259903 0)
(0.836665 -0.00376308 0)
(0.839298 -0.00452741 0)
(0.841162 -0.00515823 0)
(0.843112 -0.00602746 0)
(0.846186 -0.00768901 0)
(0.851194 -0.0102509 0)