/*--------------------------------*- C++ -*----------------------------------*\
  =========                 |
  \\      /  F ield         | OpenFOAM: The Open Source CFD Toolbox
   \\    /   O peration     | Website:  https://openfoam.org
    \\  /    A nd           | Version:  7
     \\/     M anipulation  |
\*---------------------------------------------------------------------------*/
FoamFile
{
    version     2.0;
    format      ascii;
    class       volScalarField;
    location    "4.1";
    object      T;
}
// * * * * * * * * * * * * * * * * * * * * * * * * * * * * * * * * * * * * * //

dimensions      [0 0 0 1 0 0 0];

internalField   nonuniform List<scalar> 
3328
(
3.41819
2.72336
2.6712
2.68914
2.71258
2.73839
2.76452
2.78757
2.81057
2.83815
2.87328
2.91103
2.94289
2.96607
2.9862
2.99976
3.01022
3.02026
3.03235
3.04578
3.05779
3.0652
3.06793
3.06845
3.41787
2.72367
2.67132
2.68917
2.71238
2.73794
2.76408
2.78733
2.81046
2.83811
2.87323
2.91097
2.94273
2.9657
2.98522
2.99835
3.00864
3.01867
3.03083
3.04441
3.05646
3.06386
3.06662
3.06731
3.41797
2.72423
2.67171
2.68927
2.71194
2.737
2.76317
2.78672
2.80983
2.8374
2.87259
2.91042
2.94212
2.96475
2.98326
2.99583
3.00591
3.01584
3.028
3.04177
3.05395
3.06144
3.06425
3.06519
3.41803
2.7253
2.67246
2.68957
2.71133
2.73554
2.76161
2.78545
2.80842
2.83597
2.87127
2.90937
2.94118
2.96344
2.98069
2.99248
3.00218
3.01193
3.02413
3.0382
3.05038
3.05775
3.06015
3.06088
3.41815
2.72682
2.67355
2.69005
2.71052
2.73355
2.75935
2.78343
2.8062
2.83369
2.86912
2.90775
2.93995
2.96194
2.97776
2.9885
2.99746
3.00669
3.01831
3.03186
3.04364
3.05133
3.05414
3.05598
3.41836
2.72884
2.67494
2.69065
2.70951
2.73108
2.75645
2.7807
2.80334
2.83068
2.86618
2.90555
2.93853
2.96049
2.97479
2.98417
2.99205
3.00051
3.01152
3.02494
3.0368
3.04543
3.04819
3.04858
3.41872
2.73131
2.67657
2.6913
2.70828
2.72832
2.7531
2.77739
2.79999
2.82715
2.8626
2.90271
2.93677
2.95896
2.97189
2.97979
2.98635
2.99379
3.0037
3.01524
3.02441
3.03148
3.03645
3.04443
3.41931
2.73414
2.6784
2.69194
2.70685
2.72555
2.74953
2.77375
2.79634
2.82322
2.85849
2.89921
2.93444
2.95709
2.96896
2.97549
2.98052
2.98657
2.99478
3.00404
3.01171
3.02236
3.03528
3.06587
3.42012
2.7372
2.68041
2.69269
2.70536
2.72305
2.74603
2.77009
2.79265
2.81906
2.85395
2.89501
2.93132
2.95465
2.96592
2.97129
2.97452
2.97899
2.98544
2.99286
2.99738
3.0024
2.99536
2.9967
3.42098
2.74023
2.68254
2.69368
2.7043
2.72094
2.74292
2.76661
2.78907
2.81479
2.84905
2.89003
2.92731
2.95157
2.96288
2.96715
2.96826
2.97101
2.97576
2.98148
2.98332
2.98149
2.98136
2.97666
3.42165
2.743
2.68475
2.69496
2.70394
2.71954
2.74046
2.76342
2.78556
2.81046
2.8438
2.88432
2.92246
2.94787
2.9596
2.96272
2.96207
2.96277
2.96577
2.96981
2.97048
2.96433
2.96111
2.95287
3.42195
2.74537
2.68698
2.6965
2.70431
2.71897
2.73864
2.76045
2.78203
2.80606
2.83829
2.87805
2.91686
2.94365
2.95611
2.95824
2.95638
2.95462
2.95617
2.95908
2.95974
2.95315
2.9451
2.93799
3.42196
2.7474
2.68914
2.69814
2.70535
2.71901
2.73719
2.75746
2.77829
2.80158
2.8327
2.87159
2.91079
2.939
2.9525
2.95412
2.95154
2.94778
2.94733
2.9496
2.95097
2.94479
2.9335
2.92577
3.42191
2.74933
2.69117
2.6997
2.70674
2.71941
2.73577
2.75413
2.77404
2.79693
2.82722
2.86545
2.90489
2.93435
2.94891
2.95067
2.94773
2.94264
2.94012
2.94191
2.94356
2.93918
2.92725
2.91585
3.42201
2.75135
2.69297
2.701
2.70812
2.71973
2.73401
2.75027
2.76913
2.79195
2.82192
2.85999
2.89981
2.93037
2.94581
2.94795
2.94488
2.93911
2.935
2.93599
2.93728
2.93466
2.92393
2.9103
3.42247
2.75349
2.69438
2.70206
2.70926
2.71971
2.73179
2.74595
2.76369
2.78661
2.81675
2.8552
2.89572
2.92745
2.94359
2.94584
2.9428
2.93655
2.93117
2.93134
2.93177
2.93066
2.9222
2.90738
3.42331
2.75559
2.69521
2.7029
2.71006
2.71933
2.72928
2.74152
2.75809
2.78098
2.81152
2.85059
2.89211
2.92524
2.94227
2.94452
2.94134
2.93453
2.92789
2.92668
2.92672
2.92628
2.92023
2.90504
3.42426
2.75745
2.69551
2.70334
2.71065
2.71874
2.727
2.73762
2.753
2.77544
2.8061
2.84547
2.88814
2.92307
2.94153
2.94413
2.94056
2.93294
2.92486
2.92147
2.92114
2.92077
2.91698
2.90325
3.42511
2.7589
2.69541
2.70346
2.71112
2.71847
2.72579
2.73495
2.74884
2.77006
2.80008
2.83923
2.88293
2.92013
2.94084
2.94467
2.94077
2.93237
2.92292
2.91615
2.91447
2.91436
2.91202
2.9018
3.42557
2.75967
2.69503
2.70332
2.71154
2.71885
2.72594
2.73423
2.74619
2.76511
2.7933
2.83144
2.87583
2.91565
2.93969
2.94615
2.94254
2.93369
2.92275
2.91265
2.90771
2.90705
2.90518
2.89917
3.42555
2.75981
2.69438
2.70266
2.71189
2.71994
2.7272
2.735
2.74521
2.76101
2.78612
2.82222
2.86659
2.90917
2.93778
2.94803
2.94562
2.93753
2.92476
2.9123
2.90268
2.89877
2.89727
2.8939
3.42491
2.75931
2.69341
2.70138
2.71163
2.72118
2.7296
2.7368
2.74486
2.75727
2.77867
2.81198
2.85561
2.90088
2.9349
2.94998
2.94962
2.94316
2.92989
2.91432
2.90099
2.8918
2.88835
2.88533
3.42347
2.75791
2.69195
2.69952
2.71022
2.72179
2.7315
2.73897
2.74495
2.75425
2.77163
2.80161
2.8438
2.89117
2.93039
2.9511
2.9546
2.94922
2.93686
2.91926
2.90217
2.8885
2.87998
2.87572
3.42131
2.75572
2.6899
2.69673
2.70765
2.72074
2.73202
2.73993
2.74515
2.75215
2.76615
2.79205
2.83203
2.88037
2.92399
2.95072
2.95878
2.95481
2.94381
2.92626
2.90636
2.88876
2.87566
2.86752
3.41845
2.75293
2.68705
2.69275
2.70376
2.7176
2.73044
2.73941
2.74515
2.75092
2.76289
2.78476
2.82161
2.86918
2.91557
2.94761
2.9601
2.95827
2.94915
2.93323
2.91289
2.89264
2.87595
2.8639
3.41523
2.75052
2.6825
2.68817
2.69877
2.71217
2.7254
2.73665
2.74419
2.7508
2.76179
2.7812
2.81402
2.8585
2.90479
2.93999
2.95725
2.95853
2.95197
2.93877
2.92006
2.89974
2.88067
2.86541
3.41234
2.74803
2.6787
2.68437
2.69278
2.70417
2.71759
2.73107
2.74234
2.75176
2.76281
2.78068
2.80905
2.84891
2.89223
2.928
2.94929
2.95594
2.95258
2.9431
2.92773
2.90897
2.88976
2.872
3.41015
2.74737
2.67666
2.68045
2.68607
2.69514
2.70831
2.72363
2.7389
2.75214
2.76436
2.78099
2.80534
2.84008
2.87905
2.91334
2.93671
2.94817
2.95014
2.94577
2.93566
2.92002
2.90214
2.88366
3.40861
2.74904
2.67539
2.67796
2.68086
2.68781
2.69926
2.71533
2.7326
2.74973
2.765
2.78017
2.80267
2.83314
2.86736
2.89873
2.92198
2.93667
2.9445
2.9458
2.94158
2.93071
2.91537
2.89784
3.40746
2.7518
2.67419
2.67744
2.6784
2.68363
2.69288
2.7069
2.72405
2.7427
2.76066
2.7769
2.79923
2.82769
2.85872
2.88722
2.90893
2.92453
2.9356
2.94247
2.94321
2.93725
2.92541
2.90979
3.40652
2.75359
2.67433
2.67839
2.67947
2.68384
2.69098
2.70069
2.71408
2.73123
2.75106
2.77033
2.79467
2.82362
2.85452
2.88157
2.90088
2.9143
2.92518
2.93397
2.9392
2.93721
2.92972
2.91685
3.40576
2.75508
2.67602
2.68051
2.68272
2.68706
2.6918
2.69744
2.70536
2.71821
2.7375
2.76103
2.78972
2.82183
2.85496
2.88174
2.89911
2.90908
2.91598
2.92204
2.9275
2.93011
2.927
2.91843
3.40501
2.75705
2.67873
2.68288
2.68659
2.69094
2.69314
2.695
2.69845
2.70671
2.72358
2.74987
2.78379
2.82142
2.85797
2.88558
2.90133
2.90745
2.90882
2.91001
2.91214
2.91536
2.91714
2.9144
3.40411
2.75922
2.68106
2.68521
2.69011
2.69439
2.69458
2.69337
2.69361
2.69834
2.71247
2.73919
2.77729
2.8209
2.86134
2.89099
2.90469
2.90552
2.90329
2.90001
2.89802
2.89909
2.90181
2.90367
3.40358
2.76207
2.68309
2.68692
2.69164
2.69523
2.69465
2.69238
2.69102
2.69449
2.70713
2.73237
2.77144
2.81872
2.86194
2.89359
2.90648
2.90522
2.90028
2.89407
2.88901
2.88686
2.88779
2.89002
3.40339
2.76505
2.68561
2.68743
2.69038
2.693
2.69287
2.69122
2.69077
2.6948
2.70772
2.73115
2.76767
2.81353
2.85769
2.89074
2.90544
2.90475
2.89939
2.8922
2.88601
2.88215
2.88077
2.88104
3.40244
2.76607
2.68665
2.68748
2.68803
2.68925
2.68993
2.69054
2.69285
2.69927
2.71238
2.73409
2.76592
2.80652
2.84886
2.88306
2.90131
2.9039
2.89976
2.89341
2.8875
2.88306
2.87998
2.87738
3.40138
2.76425
2.6853
2.68615
2.68508
2.68556
2.68761
2.69189
2.69753
2.706
2.71878
2.73762
2.76383
2.7995
2.83894
2.8732
2.89516
2.90338
2.90207
2.89735
2.89174
2.88604
2.88042
2.875
3.4005
2.76084
2.68363
2.68465
2.68251
2.68305
2.68637
2.69372
2.70269
2.71281
2.72411
2.73902
2.76176
2.79379
2.83069
2.86397
2.8879
2.90118
2.90536
2.90313
2.89786
2.89027
2.88152
2.87305
3.40027
2.75863
2.68389
2.68428
2.68086
2.68121
2.6852
2.69385
2.70557
2.71766
2.72817
2.74176
2.76324
2.79299
2.82694
2.8577
2.88136
2.89686
2.90562
2.90705
2.90275
2.89426
2.884
2.87416
2.87965
2.96569
2.99634
3.01909
3.0413
3.07032
3.09934
3.11421
2.99524
3.03001
3.01952
3.02464
3.04279
3.07039
3.09922
3.11189
2.96887
2.99775
3.00411
3.01729
3.03617
3.06507
3.09026
3.10378
2.94721
2.97188
2.99257
3.01353
3.03269
3.05763
3.07771
3.08887
2.92819
2.94487
2.96707
2.99067
3.01366
3.03943
3.06121
3.07392
2.91383
2.92333
2.94188
2.9652
2.99145
3.02097
3.04679
3.05836
2.90355
2.9067
2.91849
2.93729
2.96074
2.98825
3.01863
3.0438
2.89655
2.89434
2.89903
2.90982
2.92514
2.9506
2.99325
3.06931
2.8907
2.8821
2.88196
2.88568
2.89131
2.89796
2.88285
2.81604
2.88583
2.87235
2.86572
2.862
2.85607
2.83988
2.79677
2.66894
2.8836
2.86556
2.85268
2.84115
2.82632
2.79552
2.74017
2.59516
2.88321
2.86063
2.84212
2.8247
2.80288
2.7668
2.70433
2.58603
2.88243
2.8579
2.83469
2.81237
2.78559
2.74707
2.68607
2.59219
2.87845
2.85727
2.82986
2.80299
2.77311
2.73489
2.68081
2.60616
2.87064
2.85614
2.82695
2.797
2.76543
2.72901
2.68126
2.62066
2.86164
2.85246
2.82658
2.79523
2.76271
2.72774
2.68474
2.63394
2.85521
2.84731
2.82802
2.79751
2.76455
2.72997
2.6915
2.64723
2.85366
2.84402
2.82993
2.80394
2.77117
2.73642
2.70126
2.66155
2.85703
2.84481
2.83179
2.81152
2.78166
2.74697
2.7137
2.67721
2.86597
2.85026
2.8352
2.81774
2.79274
2.75975
2.72788
2.69392
2.87903
2.86064
2.84253
2.82432
2.8025
2.77323
2.7428
2.71102
2.89186
2.87274
2.85288
2.83294
2.81191
2.78658
2.75799
2.72824
2.90113
2.88292
2.86332
2.84293
2.82173
2.79898
2.77264
2.74502
2.9059
2.89031
2.87244
2.85297
2.83214
2.81074
2.78632
2.76044
2.90653
2.89449
2.87955
2.86191
2.84247
2.82173
2.79899
2.77435
2.90142
2.89409
2.88272
2.86766
2.8505
2.83098
2.80979
2.78656
2.89107
2.88846
2.88115
2.86923
2.85441
2.83716
2.8181
2.79701
2.88115
2.87956
2.87481
2.86617
2.85429
2.84013
2.82404
2.80579
2.87476
2.87148
2.86684
2.8603
2.85183
2.841
2.82812
2.81295
2.86988
2.86507
2.8603
2.85507
2.84897
2.84112
2.83094
2.81825
2.86548
2.85944
2.85477
2.8507
2.8461
2.84017
2.83204
2.82117
2.86609
2.85988
2.855
2.85074
2.84608
2.84031
2.83261
2.82209
2.04204
1.61377
1.54985
1.56889
1.65253
1.82856
2.03427
2.20945
2.2898
2.364
2.58787
2.6851
2.73086
2.73217
2.72245
2.70488
2.70405
2.70851
2.7089
2.69095
2.66138
2.63701
2.62366
2.62039
2.62284
2.62047
2.60655
2.58989
2.57849
2.56221
2.53762
2.51168
2.47908
2.44796
2.42579
2.40651
2.38719
2.3676
2.34783
2.32962
2.31727
2.30363
2.28589
2.26897
2.24965
2.22646
2.20421
2.18927
2.17839
2.16851
2.15944
2.14869
2.13837
2.13423
2.14636
2.20852
2.33432
2.46244
2.53883
2.54025
2.52385
2.50468
2.48193
2.46161
2.44357
2.42749
2.41454
2.40159
2.39014
2.37395
2.34606
2.32306
2.31006
2.29862
2.28931
2.2867
2.28635
2.28568
2.2821
2.27844
2.27408
2.26757
2.25452
2.2268
2.19307
2.17411
2.16779
2.16049
2.25678
2.01179
1.90362
1.80712
1.77484
1.7893
1.83329
1.9226
2.02099
2.13553
2.39103
2.60236
2.67818
2.6858
2.68592
2.68038
2.68038
2.68458
2.68547
2.67404
2.65145
2.62612
2.6106
2.60188
2.60104
2.59918
2.58904
2.57375
2.55904
2.54206
2.5205
2.49744
2.47034
2.43796
2.40937
2.38729
2.36684
2.34646
2.32669
2.30927
2.29799
2.29367
2.28331
2.2691
2.25381
2.23424
2.21011
2.18754
2.17248
2.16175
2.15169
2.14206
2.13588
2.14328
2.18108
2.251
2.32602
2.41907
2.49182
2.50698
2.49598
2.48203
2.4651
2.44792
2.43035
2.41306
2.39718
2.38337
2.37091
2.35579
2.3388
2.32456
2.31352
2.30317
2.29397
2.28872
2.2856
2.2801
2.27302
2.26736
2.26176
2.25441
2.24128
2.22214
2.20358
2.18738
2.17707
2.16737
2.35351
2.16283
2.05005
1.9589
1.88094
1.81757
1.7757
1.79744
1.86429
1.93575
2.11505
2.4432
2.58527
2.61007
2.61613
2.62095
2.62613
2.63105
2.62918
2.62333
2.61117
2.59276
2.57715
2.56672
2.55958
2.55519
2.55205
2.54432
2.52926
2.5101
2.49005
2.4697
2.4474
2.41943
2.38723
2.35976
2.33825
2.31842
2.29974
2.28249
2.27001
2.26761
2.26441
2.25176
2.23945
2.22733
2.21204
2.18898
2.16158
2.14383
2.13351
2.1274
2.13347
2.16528
2.22894
2.27529
2.29856
2.3401
2.40904
2.45844
2.45908
2.45072
2.44195
2.42915
2.41299
2.39537
2.3772
2.36032
2.34581
2.33316
2.32257
2.31239
2.30373
2.29601
2.28985
2.28646
2.27867
2.26846
2.26008
2.25157
2.24196
2.23008
2.21712
2.20591
2.19699
2.18825
2.18054
2.1717
2.42999
2.28629
2.17555
2.08713
2.01313
1.9559
1.88303
1.84422
1.84925
1.87219
1.92395
2.16378
2.4103
2.52698
2.55095
2.551
2.55518
2.55753
2.55596
2.55211
2.54622
2.53625
2.52205
2.50995
2.50043
2.49431
2.4945
2.49241
2.48048
2.46487
2.4466
2.42684
2.40582
2.38128
2.35209
2.32457
2.30449
2.28848
2.27387
2.26011
2.24945
2.24626
2.24191
2.2289
2.21746
2.20714
2.19537
2.17933
2.15414
2.12565
2.11578
2.1177
2.14501
2.2025
2.2605
2.277
2.26886
2.26865
2.29774
2.359
2.39075
2.40276
2.4054
2.39734
2.38481
2.36923
2.35165
2.33568
2.32332
2.31398
2.30601
2.29814
2.2909
2.28543
2.28201
2.27681
2.26613
2.2552
2.24337
2.23061
2.21636
2.20358
2.19444
2.18901
2.18531
2.18245
2.17977
2.17327
2.48596
2.37583
2.28551
2.19908
2.11527
2.06841
2.01809
1.94908
1.91897
1.90418
1.9152
1.96077
2.17647
2.4134
2.51399
2.51642
2.51025
2.50455
2.50107
2.49965
2.49763
2.49252
2.48105
2.46632
2.4562
2.44863
2.44728
2.44394
2.43427
2.42144
2.40451
2.38487
2.36488
2.34397
2.31943
2.29414
2.27614
2.26317
2.25126
2.2404
2.23208
2.22912
2.22523
2.21308
2.19998
2.1873
2.17471
2.16037
2.14291
2.121
2.11502
2.13416
2.18913
2.24539
2.26743
2.2638
2.24363
2.2178
2.21682
2.24762
2.30535
2.34314
2.36536
2.3633
2.35362
2.34067
2.32745
2.31712
2.30896
2.30259
2.29634
2.29048
2.28414
2.27642
2.26988
2.26148
2.2507
2.23822
2.22432
2.20892
2.19553
2.18626
2.18088
2.17762
2.17767
2.18009
2.17938
2.17075
2.5284
2.43938
2.36193
2.29552
2.21478
2.15295
2.11929
2.06801
2.01916
1.99404
1.96541
1.95995
2.00089
2.21491
2.44102
2.49219
2.4858
2.47686
2.47137
2.47022
2.46725
2.46101
2.4479
2.43086
2.42036
2.41217
2.40906
2.40511
2.39597
2.38491
2.37117
2.35478
2.33759
2.31985
2.29905
2.27736
2.26282
2.25222
2.24236
2.23306
2.22542
2.21996
2.21355
2.20092
2.18666
2.17208
2.15776
2.14321
2.1349
2.12998
2.14898
2.19956
2.2489
2.26801
2.26336
2.24633
2.21645
2.18843
2.17952
2.18386
2.22175
2.2774
2.31834
2.33206
2.32775
2.31994
2.31219
2.30623
2.30275
2.30032
2.29608
2.2899
2.28119
2.26829
2.25322
2.24264
2.23364
2.22263
2.20884
2.19498
2.18557
2.17973
2.17581
2.17516
2.17749
2.1771
2.17315
2.16237
2.55744
2.48629
2.4188
2.36062
2.30142
2.23426
2.18784
2.15636
2.11055
2.07319
2.04015
1.99588
1.99676
2.04799
2.26799
2.44526
2.46808
2.4638
2.45968
2.45814
2.45158
2.44256
2.42665
2.40757
2.39727
2.38921
2.3853
2.38326
2.37644
2.36718
2.35563
2.34149
2.32432
2.30388
2.28162
2.26535
2.25603
2.24726
2.2394
2.23403
2.22924
2.2188
2.20454
2.18888
2.17401
2.16019
2.14686
2.13777
2.14174
2.16632
2.22221
2.26858
2.28033
2.27314
2.25566
2.23005
2.19903
2.17717
2.16579
2.16367
2.17554
2.21232
2.25974
2.29342
2.30424
2.30747
2.30631
2.30671
2.30752
2.30378
2.29866
2.29152
2.27935
2.26024
2.23965
2.22654
2.21795
2.20855
2.19838
2.1904
2.18453
2.17974
2.17705
2.17591
2.17125
2.16436
2.15969
2.15113
2.57972
2.52036
2.46415
2.40966
2.35945
2.3083
2.25123
2.21714
2.18475
2.14531
2.11092
2.06724
2.03473
2.04208
2.09594
2.30119
2.43236
2.45143
2.45467
2.4525
2.44276
2.43221
2.41668
2.39692
2.3865
2.37919
2.37472
2.37299
2.36822
2.36068
2.35125
2.33996
2.32566
2.30502
2.27759
2.25983
2.2517
2.24521
2.24176
2.24043
2.23179
2.2177
2.20167
2.18528
2.16909
2.15528
2.14356
2.14422
2.17067
2.23293
2.28501
2.29152
2.28403
2.2673
2.2425
2.21797
2.19867
2.18287
2.16992
2.15945
2.1595
2.16713
2.1972
2.24306
2.27401
2.28857
2.29957
2.31001
2.31174
2.30502
2.29784
2.28896
2.27635
2.25721
2.23496
2.21762
2.20689
2.19862
2.19336
2.19025
2.18596
2.18168
2.17925
2.17445
2.16735
2.15924
2.15048
2.13806
2.59955
2.54817
2.49941
2.45254
2.40236
2.35971
2.31329
2.26792
2.23853
2.20293
2.17048
2.13406
2.08875
2.05979
2.06845
2.13439
2.32481
2.42212
2.44436
2.4463
2.43819
2.42593
2.41096
2.39216
2.38112
2.37412
2.36937
2.36767
2.3645
2.3585
2.35058
2.34091
2.32911
2.31167
2.28577
2.26212
2.25087
2.24308
2.23542
2.22835
2.22253
2.21404
2.19975
2.18431
2.16868
2.15772
2.15193
2.17749
2.23624
2.29398
2.30212
2.29384
2.27428
2.25249
2.23301
2.21863
2.2085
2.19731
2.18209
2.16591
2.15407
2.15418
2.16024
2.18912
2.23361
2.26359
2.28223
2.29518
2.30279
2.29973
2.29256
2.28358
2.2717
2.25667
2.23671
2.21595
2.20146
2.19439
2.18975
2.18633
2.18389
2.18239
2.18018
2.17462
2.16734
2.15895
2.15
2.13277
2.61871
2.57362
2.52934
2.48788
2.44221
2.39778
2.36129
2.31933
2.28333
2.24935
2.21551
2.18718
2.14781
2.10984
2.08488
2.091
2.17107
2.34274
2.41678
2.4369
2.43307
2.42095
2.40663
2.38997
2.37997
2.37294
2.36834
2.36737
2.36561
2.36139
2.35529
2.34692
2.33555
2.31918
2.294
2.26616
2.25286
2.244
2.23427
2.2239
2.21311
2.20192
2.18859
2.17606
2.16623
2.16455
2.18686
2.24572
2.29997
2.31386
2.30417
2.28138
2.25731
2.2421
2.23216
2.22529
2.21893
2.20959
2.19524
2.17657
2.16125
2.15102
2.15095
2.15969
2.18844
2.22975
2.25743
2.27432
2.28257
2.28663
2.28305
2.27528
2.26571
2.25431
2.23892
2.21795
2.19917
2.19023
2.18532
2.18161
2.17952
2.1801
2.18105
2.17723
2.17096
2.16332
2.15425
2.13535
2.63833
2.59791
2.55764
2.51819
2.47772
2.43587
2.39879
2.36375
2.32711
2.29094
2.25407
2.22589
2.19659
2.16153
2.12733
2.09704
2.10921
2.20322
2.34829
2.41538
2.4242
2.41355
2.39724
2.38318
2.37552
2.36928
2.36635
2.3666
2.36592
2.364
2.35935
2.35181
2.34101
2.32451
2.29887
2.26829
2.24673
2.2343
2.22364
2.21208
2.19925
2.18572
2.17427
2.16489
2.16851
2.19562
2.25382
2.30841
2.32322
2.31663
2.29623
2.26747
2.24698
2.2358
2.23016
2.22926
2.22295
2.21499
2.20535
2.19229
2.17723
2.16226
2.15451
2.15307
2.16021
2.18465
2.21974
2.24353
2.25665
2.26361
2.26827
2.26434
2.25698
2.24925
2.23788
2.21947
2.19697
2.18382
2.17842
2.17461
2.17271
2.17501
2.18
2.17973
2.17523
2.16931
2.16153
2.13904
2.65821
2.62148
2.58451
2.5473
2.50906
2.47203
2.43703
2.40177
2.36689
2.33049
2.29272
2.26131
2.23641
2.20444
2.17349
2.13256
2.10931
2.12859
2.22674
2.35606
2.40583
2.40315
2.38654
2.37012
2.36514
2.36026
2.35968
2.36067
2.35994
2.358
2.3534
2.34642
2.33667
2.32115
2.29612
2.26354
2.23715
2.22112
2.20795
2.19445
2.18109
2.16908
2.15832
2.16078
2.19258
2.25558
2.31528
2.32906
2.32631
2.31205
2.2891
2.26193
2.2434
2.23361
2.22866
2.22914
2.22549
2.21951
2.21469
2.20914
2.20005
2.18489
2.16845
2.15357
2.14184
2.14452
2.16355
2.19494
2.21906
2.2343
2.24642
2.25281
2.24881
2.24257
2.23384
2.21709
2.1923
2.17605
2.17048
2.16705
2.16553
2.17005
2.17867
2.18027
2.17636
2.17102
2.16438
2.14282
2.67804
2.64428
2.60996
2.57505
2.53925
2.50437
2.47253
2.43943
2.40273
2.36646
2.33101
2.29846
2.27184
2.24288
2.20983
2.17696
2.13063
2.12496
2.14869
2.24671
2.35574
2.3851
2.37413
2.35687
2.35238
2.3502
2.35103
2.35054
2.3487
2.3464
2.34176
2.33525
2.32632
2.31155
2.28709
2.25432
2.22357
2.20335
2.18718
2.17331
2.1622
2.15251
2.15432
2.18382
2.25196
2.312
2.33435
2.33065
2.31887
2.30376
2.28479
2.26179
2.24404
2.23502
2.22823
2.22552
2.22851
2.22864
2.22674
2.22475
2.21924
2.20597
2.18118
2.15217
2.12762
2.11757
2.12086
2.13945
2.17114
2.19827
2.22064
2.23831
2.23954
2.23469
2.22651
2.21072
2.18488
2.16701
2.16221
2.15977
2.15888
2.16507
2.17862
2.17981
2.17513
2.16977
2.16386
2.14744
2.69749
2.66609
2.6339
2.60087
2.56757
2.53448
2.50296
2.47203
2.43736
2.39969
2.36537
2.33446
2.30617
2.27741
2.24262
2.20973
2.17231
2.13817
2.14043
2.16556
2.25413
2.341
2.35738
2.34263
2.33878
2.33896
2.34169
2.33996
2.33696
2.33297
2.32632
2.31845
2.30908
2.29475
2.27149
2.23952
2.20783
2.18466
2.16732
2.15585
2.148
2.14929
2.17803
2.24133
2.30926
2.33572
2.33278
2.32374
2.3112
2.29804
2.28343
2.26567
2.2481
2.23797
2.23109
2.22744
2.23347
2.24084
2.2408
2.23717
2.22984
2.21572
2.18615
2.14815
2.12224
2.11151
2.10682
2.10898
2.1268
2.15844
2.19015
2.21722
2.22856
2.22665
2.22012
2.20523
2.17954
2.15964
2.15442
2.15222
2.15193
2.15809
2.16714
2.17117
2.1681
2.16318
2.15793
2.14678
2.71614
2.68649
2.65588
2.62437
2.59286
2.56144
2.53073
2.49955
2.46673
2.43093
2.39689
2.36588
2.3365
2.30737
2.27444
2.23955
2.20727
2.17051
2.14507
2.14717
2.16941
2.24833
2.31982
2.32908
2.32682
2.33017
2.33393
2.3303
2.32598
2.32007
2.31115
2.30031
2.28802
2.27304
2.25343
2.22664
2.19637
2.17097
2.1549
2.14625
2.14919
2.17962
2.23779
2.30007
2.3363
2.33442
2.32959
2.31894
2.30673
2.29538
2.28361
2.27007
2.25406
2.24338
2.23683
2.23267
2.23515
2.244
2.24256
2.23647
2.22861
2.21502
2.18679
2.14777
2.12201
2.1107
2.10424
2.10104
2.10301
2.12148
2.15337
2.18809
2.21284
2.21662
2.21359
2.20218
2.18039
2.15882
2.1505
2.14723
2.14627
2.1482
2.15138
2.15473
2.1567
2.15428
2.14902
2.1432
2.73333
2.70495
2.67544
2.64522
2.61498
2.58434
2.55378
2.52293
2.49035
2.45754
2.424
2.39296
2.36169
2.33102
2.30027
2.26831
2.23813
2.20567
2.17074
2.14985
2.14589
2.16765
2.24006
2.30213
2.31581
2.32251
2.32723
2.32259
2.31712
2.30985
2.29914
2.28548
2.26962
2.25155
2.2308
2.20682
2.18261
2.16133
2.15049
2.15658
2.19118
2.25327
2.30366
2.33665
2.33853
2.33534
2.32886
2.31785
2.30654
2.29645
2.2873
2.27632
2.26046
2.24913
2.24241
2.23738
2.23651
2.23898
2.23519
2.22802
2.22009
2.20827
2.18466
2.14859
2.12179
2.11092
2.10382
2.09872
2.09773
2.10089
2.11979
2.15085
2.18492
2.20455
2.20696
2.20094
2.18509
2.16387
2.1515
2.14661
2.14255
2.13951
2.13726
2.13566
2.13641
2.14253
2.14304
2.14416
2.74861
2.72159
2.69316
2.66394
2.63436
2.60398
2.57345
2.54275
2.5115
2.47905
2.44628
2.4138
2.38282
2.35192
2.32195
2.29303
2.26496
2.23651
2.20292
2.1707
2.14778
2.1394
2.16415
2.23687
2.29191
2.30938
2.31868
2.31685
2.30999
2.30138
2.28962
2.27435
2.25579
2.23283
2.20739
2.18314
2.16576
2.15745
2.16653
2.20538
2.27271
2.32295
2.34754
2.35038
2.34793
2.34101
2.33349
2.32375
2.31183
2.29979
2.2876
2.27314
2.25827
2.24875
2.24125
2.23465
2.2316
2.23177
2.22597
2.21748
2.2081
2.19609
2.1779
2.14907
2.12287
2.11157
2.10421
2.09842
2.09521
2.09493
2.10149
2.12068
2.15002
2.18169
2.19828
2.19964
2.19096
2.17303
2.15695
2.14607
2.13678
2.12974
2.12582
2.12272
2.12092
2.12501
2.13558
2.14974
2.76188
2.73596
2.70893
2.68112
2.65238
2.62225
2.59198
2.56153
2.53116
2.49996
2.4672
2.4341
2.40259
2.37272
2.34396
2.31668
2.28977
2.26217
2.23161
2.19676
2.16305
2.13641
2.13296
2.16266
2.23444
2.283
2.30214
2.31086
2.30345
2.29373
2.28074
2.26443
2.24287
2.21424
2.18609
2.16829
2.1615
2.17156
2.21505
2.28339
2.33353
2.3594
2.36794
2.36947
2.36337
2.35502
2.34575
2.33404
2.31892
2.30149
2.28384
2.26706
2.25373
2.24508
2.23687
2.22954
2.22486
2.2231
2.21729
2.20855
2.19877
2.1869
2.1716
2.14966
2.12284
2.1069
2.09912
2.0925
2.08776
2.08697
2.09369
2.10759
2.12426
2.15055
2.18064
2.19222
2.19081
2.17733
2.15942
2.14585
2.13314
2.12119
2.11601
2.11404
2.11267
2.11536
2.12793
2.15274
2.77404
2.74929
2.72326
2.69653
2.6685
2.6394
2.61039
2.58077
2.55026
2.51939
2.48732
2.45444
2.42308
2.39378
2.36545
2.33804
2.31129
2.28422
2.25588
2.22218
2.18616
2.15121
2.12737
2.12713
2.15801
2.22438
2.26857
2.28995
2.29591
2.2852
2.27171
2.25392
2.22856
2.20082
2.17752
2.16798
2.17783
2.22337
2.29436
2.34195
2.35663
2.36468
2.37486
2.37989
2.37669
2.37002
2.35905
2.34242
2.32044
2.29686
2.27546
2.25745
2.24625
2.2382
2.23012
2.22289
2.21789
2.2179
2.21465
2.20598
2.19595
2.18405
2.16953
2.14882
2.12116
2.10342
2.09574
2.08971
2.08482
2.08412
2.09426
2.1042
2.11181
2.12431
2.1499
2.17441
2.18061
2.17368
2.15601
2.14129
2.12842
2.11516
2.10753
2.10668
2.10655
2.11171
2.12754
2.15885
2.78524
2.7625
2.73792
2.7119
2.68422
2.65582
2.62787
2.59941
2.56902
2.53804
2.50673
2.47489
2.44415
2.41482
2.38608
2.35798
2.33051
2.30298
2.27499
2.2443
2.20854
2.17128
2.13693
2.11963
2.11802
2.14615
2.20441
2.2476
2.27095
2.27298
2.26088
2.24117
2.21694
2.19489
2.17617
2.18737
2.23387
2.29699
2.34595
2.36061
2.36638
2.36994
2.37937
2.38556
2.38499
2.3796
2.36866
2.34938
2.32148
2.29058
2.26376
2.24626
2.23683
2.22884
2.2216
2.21625
2.21369
2.21647
2.21652
2.20852
2.19891
2.18825
2.17479
2.15323
2.12232
2.10374
2.09727
2.0921
2.08764
2.08557
2.08623
2.0907
2.09512
2.10226
2.11507
2.13557
2.15221
2.15643
2.14514
2.12988
2.12024
2.10939
2.10203
2.1021
2.10572
2.11826
2.14008
2.17285
2.79519
2.77476
2.75186
2.72686
2.70017
2.67265
2.64477
2.6159
2.58582
2.55503
2.52415
2.49318
2.46289
2.43313
2.40361
2.37467
2.34633
2.31817
2.28964
2.26037
2.22752
2.19038
2.1531
2.12376
2.1081
2.10217
2.12651
2.17571
2.22046
2.24438
2.2443
2.22892
2.2127
2.19609
2.20269
2.24475
2.29926
2.34246
2.35289
2.35745
2.35864
2.3618
2.37416
2.38581
2.38611
2.38155
2.3725
2.35463
2.32241
2.2801
2.24923
2.23563
2.22708
2.21952
2.21397
2.21071
2.21167
2.21797
2.22276
2.21666
2.20778
2.19811
2.18522
2.16292
2.12935
2.10971
2.10422
2.10026
2.09689
2.09288
2.08867
2.08591
2.08352
2.08361
2.08612
2.0923
2.10346
2.11525
2.11653
2.11273
2.10993
2.1056
2.10577
2.10961
2.12296
2.14294
2.1668
2.19179
2.80275
2.78424
2.76283
2.73888
2.71314
2.68644
2.65882
2.63018
2.60069
2.5704
2.53978
2.50872
2.47767
2.4469
2.41663
2.38699
2.35784
2.32893
2.30005
2.27089
2.24045
2.20622
2.16881
2.1339
2.1073
2.08949
2.08076
2.09882
2.13954
2.18895
2.2144
2.21437
2.21882
2.23097
2.26681
2.30856
2.33704
2.35155
2.34753
2.34273
2.34312
2.34734
2.3615
2.3796
2.38398
2.38018
2.37313
2.35735
2.31986
2.26631
2.2371
2.22621
2.21751
2.21053
2.20721
2.20743
2.21011
2.2204
2.23085
2.22752
2.21961
2.21114
2.19931
2.17728
2.14201
2.11689
2.10872
2.1029
2.09699
2.09105
2.08531
2.07955
2.07398
2.06885
2.06483
2.06259
2.06432
2.06961
2.0769
2.08741
2.09597
2.10463
2.11405
2.12899
2.15058
2.17337
2.19444
2.20861
2.8071
2.78965
2.76902
2.74571
2.72067
2.69456
2.66747
2.63979
2.61028
2.58052
2.55023
2.51899
2.48752
2.45584
2.42509
2.39496
2.36518
2.33555
2.30595
2.27634
2.24651
2.21527
2.18135
2.1452
2.11245
2.08576
2.0654
2.05189
2.06679
2.10783
2.16374
2.21037
2.25345
2.29929
2.33285
2.34289
2.34322
2.34001
2.33261
2.32978
2.33115
2.336
2.34981
2.37205
2.3822
2.37902
2.37296
2.35775
2.31596
2.25664
2.22892
2.21793
2.20844
2.20076
2.19801
2.2028
2.21537
2.2333
2.24423
2.24086
2.23352
2.22587
2.21491
2.19124
2.15134
2.1228
2.11214
2.10426
2.09665
2.0901
2.08424
2.07804
2.07121
2.06348
2.05503
2.0466
2.04063
2.04153
2.04756
2.06007
2.08116
2.10528
2.12941
2.15345
2.17608
2.19756
2.21271
2.21715
2.80827
2.79099
2.77051
2.74751
2.72283
2.69704
2.67062
2.64365
2.61572
2.58806
2.55698
2.52481
2.49137
2.45967
2.42909
2.39897
2.36903
2.33915
2.30914
2.27914
2.24931
2.21966
2.18891
2.15533
2.12022
2.08806
2.0601
2.0381
2.02642
2.0432
2.10231
2.19747
2.28249
2.34845
2.38514
2.3829
2.35477
2.33316
2.32513
2.32307
2.32415
2.32985
2.34541
2.36892
2.38079
2.37808
2.37227
2.35719
2.31309
2.25093
2.22404
2.21225
2.20173
2.19329
2.18941
2.19534
2.2201
2.25292
2.26208
2.25547
2.24687
2.23844
2.2257
2.1982
2.15499
2.12619
2.11487
2.10624
2.09725
2.08862
2.08082
2.07323
2.06508
2.05612
2.0463
2.03567
2.02552
2.02455
2.02854
2.04123
2.06737
2.10277
2.13924
2.17072
2.19656
2.21653
2.22743
2.2267
)
;

boundaryField
{
    inlet
    {
        type            fixedValue;
        value           uniform 1;
    }
    outlet
    {
        type            inletOutlet;
        inletValue      uniform 1;
        value           nonuniform List<scalar> 
24
(
2.16183
2.16786
2.17232
2.17379
2.17072
2.16182
2.15142
2.13832
2.13165
2.13298
2.13527
2.13866
2.14442
2.14559
2.14323
2.14505
2.15107
2.15509
2.16161
2.17504
2.1929
2.2087
2.21684
2.22628
)
;
    }
    bottom
    {
        type            zeroGradient;
    }
    top
    {
        type            zeroGradient;
    }
    obstacle
    {
        type            zeroGradient;
    }
    defaultFaces
    {
        type            empty;
    }
}


// ************************************************************************* //
