/*--------------------------------*- C++ -*----------------------------------*\
  =========                 |
  \\      /  F ield         | OpenFOAM: The Open Source CFD Toolbox
   \\    /   O peration     | Website:  https://openfoam.org
    \\  /    A nd           | Version:  7
     \\/     M anipulation  |
\*---------------------------------------------------------------------------*/
FoamFile
{
    version     2.0;
    format      ascii;
    class       volVectorField;
    location    "4.1";
    object      U;
}
// * * * * * * * * * * * * * * * * * * * * * * * * * * * * * * * * * * * * * //

dimensions      [0 1 -1 0 0 0 0];

internalField   nonuniform List<vector> 
3328
(
(-0.781701 0.00308386 0)
(0.347858 0.00307536 0)
(0.56268 0.00324035 0)
(0.552616 0.00331079 0)
(0.534962 0.00322127 0)
(0.508768 0.00333452 0)
(0.485312 0.00371957 0)
(0.476153 0.00423416 0)
(0.476895 0.00483159 0)
(0.477354 0.00555437 0)
(0.471837 0.00598981 0)
(0.460454 0.00672905 0)
(0.443679 0.00758139 0)
(0.424202 0.00901318 0)
(0.395342 0.0102165 0)
(0.364183 0.0116914 0)
(0.331918 0.0134271 0)
(0.29941 0.0153785 0)
(0.264726 0.0173092 0)
(0.227363 0.0190365 0)
(0.186147 0.0210901 0)
(0.138415 0.0233967 0)
(0.0862957 0.024656 0)
(0.0302569 0.0269659 0)
(-0.780232 0.00941267 0)
(0.34855 0.00956653 0)
(0.562347 0.00979506 0)
(0.552277 0.010091 0)
(0.53467 0.00996016 0)
(0.508673 0.0105656 0)
(0.485221 0.0118893 0)
(0.475652 0.0133021 0)
(0.476059 0.0146985 0)
(0.476509 0.0166263 0)
(0.470957 0.0181723 0)
(0.459522 0.0205157 0)
(0.442788 0.023262 0)
(0.42358 0.0278503 0)
(0.395271 0.0321493 0)
(0.36434 0.0373651 0)
(0.331739 0.0430635 0)
(0.298589 0.0489421 0)
(0.263357 0.0546016 0)
(0.225317 0.0595115 0)
(0.183772 0.0653015 0)
(0.136098 0.0719231 0)
(0.0842451 0.0754045 0)
(0.029438 0.0813145 0)
(-0.778637 0.0154203 0)
(0.349152 0.0161164 0)
(0.56282 0.0162307 0)
(0.553095 0.016835 0)
(0.535969 0.0167082 0)
(0.510532 0.0177096 0)
(0.487283 0.0198939 0)
(0.477136 0.022293 0)
(0.477327 0.0247216 0)
(0.478078 0.0280535 0)
(0.472762 0.0308479 0)
(0.461695 0.0349685 0)
(0.445421 0.0397307 0)
(0.427059 0.0473742 0)
(0.40016 0.0547507 0)
(0.370171 0.0633869 0)
(0.337848 0.0727444 0)
(0.304597 0.0824088 0)
(0.269231 0.0919532 0)
(0.230357 0.100422 0)
(0.187903 0.11034 0)
(0.139247 0.12182 0)
(0.0858808 0.127994 0)
(0.0300865 0.137051 0)
(-0.776264 0.0212268 0)
(0.350262 0.0221441 0)
(0.563279 0.0225107 0)
(0.554051 0.0234148 0)
(0.537673 0.0233003 0)
(0.513164 0.024755 0)
(0.490269 0.0278869 0)
(0.479339 0.0314272 0)
(0.479142 0.0347987 0)
(0.4803 0.0394784 0)
(0.475406 0.0436428 0)
(0.464992 0.0496252 0)
(0.449521 0.0564772 0)
(0.432553 0.0669793 0)
(0.407826 0.0775472 0)
(0.37931 0.0896123 0)
(0.3475 0.102811 0)
(0.313821 0.116613 0)
(0.277691 0.130766 0)
(0.236825 0.143643 0)
(0.192986 0.158075 0)
(0.143878 0.175072 0)
(0.0885861 0.184965 0)
(0.0310225 0.196728 0)
(-0.773187 0.0267615 0)
(0.351764 0.0279389 0)
(0.563791 0.0286932 0)
(0.55522 0.0298541 0)
(0.539837 0.0297038 0)
(0.516649 0.0316215 0)
(0.494313 0.0357328 0)
(0.482518 0.0404902 0)
(0.481828 0.0448952 0)
(0.483319 0.0506246 0)
(0.479012 0.0563419 0)
(0.469445 0.0641819 0)
(0.455043 0.0732271 0)
(0.439723 0.0863631 0)
(0.417781 0.100251 0)
(0.391392 0.115788 0)
(0.360999 0.132932 0)
(0.328137 0.150926 0)
(0.2931 0.169677 0)
(0.253156 0.186753 0)
(0.209943 0.205356 0)
(0.160749 0.229051 0)
(0.100877 0.246439 0)
(0.0364217 0.263146 0)
(-0.76948 0.0320779 0)
(0.353699 0.0335412 0)
(0.564343 0.0348348 0)
(0.55658 0.036167 0)
(0.542464 0.0359097 0)
(0.521071 0.0382177 0)
(0.499613 0.0432228 0)
(0.487068 0.0491033 0)
(0.485803 0.0545161 0)
(0.487412 0.0609936 0)
(0.483874 0.0682511 0)
(0.475337 0.0778686 0)
(0.462331 0.0892746 0)
(0.44867 0.104819 0)
(0.430113 0.121941 0)
(0.406707 0.140677 0)
(0.378961 0.161392 0)
(0.347797 0.183095 0)
(0.314176 0.206381 0)
(0.27306 0.229458 0)
(0.227313 0.256149 0)
(0.174953 0.290742 0)
(0.110378 0.32035 0)
(0.0359759 0.341029 0)
(-0.76511 0.0371566 0)
(0.35601 0.0389721 0)
(0.564909 0.0410139 0)
(0.558098 0.0423804 0)
(0.545581 0.0419174 0)
(0.526358 0.044471 0)
(0.506113 0.0501661 0)
(0.493063 0.0568507 0)
(0.491182 0.0630811 0)
(0.492592 0.0701563 0)
(0.489879 0.0787691 0)
(0.482377 0.0901058 0)
(0.471032 0.104057 0)
(0.458863 0.121817 0)
(0.444033 0.141864 0)
(0.424156 0.163411 0)
(0.399952 0.187356 0)
(0.370988 0.212975 0)
(0.339277 0.241224 0)
(0.300998 0.270851 0)
(0.26188 0.304215 0)
(0.217719 0.347493 0)
(0.153071 0.391537 0)
(0.066632 0.428865 0)
(-0.760061 0.0420465 0)
(0.358603 0.0442252 0)
(0.565418 0.0472954 0)
(0.55965 0.0485319 0)
(0.549208 0.0476984 0)
(0.532208 0.0504132 0)
(0.513473 0.0564795 0)
(0.50027 0.0634905 0)
(0.497751 0.0701836 0)
(0.498671 0.0775648 0)
(0.496785 0.0874566 0)
(0.490252 0.100513 0)
(0.480685 0.117085 0)
(0.46985 0.136956 0)
(0.458826 0.159478 0)
(0.442922 0.183488 0)
(0.423054 0.2102 0)
(0.397872 0.239421 0)
(0.369494 0.270429 0)
(0.337569 0.303521 0)
(0.302098 0.343286 0)
(0.260904 0.411124 0)
(0.172431 0.490917 0)
(0.119151 0.584058 0)
(-0.754225 0.0466359 0)
(0.361483 0.049186 0)
(0.565858 0.0536666 0)
(0.560982 0.0546783 0)
(0.553272 0.0532647 0)
(0.538094 0.0561375 0)
(0.521254 0.0622852 0)
(0.508262 0.0691783 0)
(0.505022 0.0759036 0)
(0.505407 0.0832228 0)
(0.504441 0.0941277 0)
(0.498888 0.10883 0)
(0.491042 0.12788 0)
(0.481747 0.149859 0)
(0.474127 0.174386 0)
(0.462721 0.200389 0)
(0.447601 0.229174 0)
(0.427684 0.260654 0)
(0.402359 0.292628 0)
(0.376373 0.329976 0)
(0.345924 0.381513 0)
(0.326334 0.468261 0)
(0.300834 0.55601 0)
(0.36559 0.627578 0)
(-0.74758 0.0508817 0)
(0.36457 0.0537771 0)
(0.566419 0.0599816 0)
(0.562181 0.0607607 0)
(0.557207 0.0588151 0)
(0.544122 0.0616592 0)
(0.529359 0.06759 0)
(0.516871 0.0739616 0)
(0.512814 0.080388 0)
(0.512675 0.087345 0)
(0.51259 0.098858 0)
(0.50814 0.115005 0)
(0.502095 0.136222 0)
(0.494454 0.160315 0)
(0.489945 0.186671 0)
(0.482684 0.214208 0)
(0.472691 0.244309 0)
(0.457912 0.27667 0)
(0.436422 0.309808 0)
(0.415314 0.349909 0)
(0.398819 0.406152 0)
(0.394179 0.48243 0)
(0.410497 0.53049 0)
(0.473689 0.527952 0)
(-0.740117 0.0547216 0)
(0.367903 0.0578198 0)
(0.567334 0.0660018 0)
(0.563507 0.066563 0)
(0.560832 0.0644937 0)
(0.550242 0.0671258 0)
(0.537568 0.0725897 0)
(0.525736 0.0782925 0)
(0.520795 0.0843151 0)
(0.520128 0.0906956 0)
(0.520828 0.102256 0)
(0.517968 0.119332 0)
(0.513909 0.142129 0)
(0.507884 0.16813 0)
(0.506901 0.196177 0)
(0.501884 0.225198 0)
(0.497501 0.255872 0)
(0.486863 0.2882 0)
(0.471157 0.322165 0)
(0.454167 0.360897 0)
(0.44993 0.412738 0)
(0.457457 0.478 0)
(0.493535 0.523072 0)
(0.543194 0.518532 0)
(-0.731827 0.0579753 0)
(0.371482 0.0611529 0)
(0.56873 0.0714822 0)
(0.565104 0.071842 0)
(0.564267 0.0700166 0)
(0.556245 0.0725145 0)
(0.545744 0.0773579 0)
(0.534849 0.0824791 0)
(0.528979 0.0881318 0)
(0.527817 0.093791 0)
(0.529124 0.104788 0)
(0.528497 0.122143 0)
(0.526141 0.145852 0)
(0.521965 0.17356 0)
(0.523915 0.203229 0)
(0.520711 0.233628 0)
(0.521363 0.264527 0)
(0.51345 0.296332 0)
(0.504772 0.329918 0)
(0.491637 0.365563 0)
(0.492025 0.409952 0)
(0.507428 0.462038 0)
(0.545895 0.50213 0)
(0.585872 0.501267 0)
(-0.722812 0.0607294 0)
(0.375334 0.0637318 0)
(0.570623 0.0762416 0)
(0.566944 0.0764227 0)
(0.567496 0.0752925 0)
(0.562129 0.0775155 0)
(0.553949 0.0818927 0)
(0.544207 0.0866805 0)
(0.537536 0.0920392 0)
(0.535835 0.0972005 0)
(0.537357 0.107406 0)
(0.539283 0.124459 0)
(0.538265 0.148246 0)
(0.536545 0.176998 0)
(0.54025 0.207739 0)
(0.53948 0.238929 0)
(0.543263 0.269814 0)
(0.539005 0.301054 0)
(0.535638 0.333457 0)
(0.526849 0.366233 0)
(0.526633 0.403225 0)
(0.543545 0.445271 0)
(0.579944 0.483044 0)
(0.617451 0.493321 0)
(-0.713169 0.0629342 0)
(0.379527 0.065533 0)
(0.572892 0.0802717 0)
(0.568956 0.0802923 0)
(0.570648 0.0801395 0)
(0.567903 0.0821264 0)
(0.56213 0.0861297 0)
(0.553804 0.0907515 0)
(0.546665 0.0959256 0)
(0.544286 0.101203 0)
(0.54552 0.110627 0)
(0.549636 0.126758 0)
(0.549941 0.149637 0)
(0.550996 0.178168 0)
(0.555723 0.209096 0)
(0.557831 0.240665 0)
(0.563263 0.27167 0)
(0.563872 0.302241 0)
(0.56376 0.333517 0)
(0.558321 0.364995 0)
(0.558884 0.39719 0)
(0.56947 0.430718 0)
(0.601617 0.462011 0)
(0.639143 0.482222 0)
(-0.702971 0.064609 0)
(0.384089 0.0665365 0)
(0.575472 0.0836749 0)
(0.571165 0.0836111 0)
(0.57394 0.0843709 0)
(0.57353 0.0862881 0)
(0.5701 0.0899334 0)
(0.563488 0.0945298 0)
(0.55639 0.0996927 0)
(0.553287 0.105672 0)
(0.5538 0.114354 0)
(0.558998 0.129175 0)
(0.56079 0.15027 0)
(0.564507 0.177054 0)
(0.570163 0.206963 0)
(0.575074 0.238163 0)
(0.581783 0.269162 0)
(0.587382 0.299337 0)
(0.589461 0.330141 0)
(0.587258 0.361295 0)
(0.589259 0.391927 0)
(0.59378 0.421226 0)
(0.619242 0.446343 0)
(0.653794 0.466385 0)
(-0.692311 0.0656852 0)
(0.389009 0.0668482 0)
(0.578435 0.086572 0)
(0.573708 0.0866865 0)
(0.577388 0.0879129 0)
(0.578764 0.0898675 0)
(0.57756 0.0932427 0)
(0.573041 0.0978287 0)
(0.566654 0.103079 0)
(0.562987 0.109951 0)
(0.56249 0.118049 0)
(0.56734 0.131427 0)
(0.570529 0.149933 0)
(0.576275 0.173816 0)
(0.583175 0.201644 0)
(0.590352 0.231666 0)
(0.598966 0.262309 0)
(0.608735 0.292241 0)
(0.613411 0.323248 0)
(0.614735 0.354776 0)
(0.616249 0.385494 0)
(0.61965 0.413989 0)
(0.637175 0.437985 0)
(0.667399 0.455251 0)
(-0.681201 0.0662132 0)
(0.394176 0.0664359 0)
(0.581984 0.0889608 0)
(0.576825 0.0895347 0)
(0.580787 0.0910709 0)
(0.58339 0.0930963 0)
(0.584354 0.0958824 0)
(0.582313 0.100172 0)
(0.577317 0.105616 0)
(0.573351 0.113177 0)
(0.571757 0.120995 0)
(0.575122 0.132974 0)
(0.579172 0.148765 0)
(0.585772 0.16961 0)
(0.594537 0.194647 0)
(0.603366 0.222724 0)
(0.615003 0.252553 0)
(0.628097 0.28248 0)
(0.636683 0.313738 0)
(0.640903 0.345763 0)
(0.640983 0.377394 0)
(0.646805 0.406909 0)
(0.655376 0.432333 0)
(0.682065 0.44921 0)
(-0.669544 0.0664257 0)
(0.399408 0.0656057 0)
(0.586158 0.0909286 0)
(0.580549 0.0920163 0)
(0.584222 0.0941522 0)
(0.587574 0.0957154 0)
(0.590387 0.0976512 0)
(0.590831 0.101634 0)
(0.587791 0.107487 0)
(0.5839 0.115241 0)
(0.581421 0.123142 0)
(0.582966 0.133696 0)
(0.587122 0.147177 0)
(0.593153 0.165297 0)
(0.603837 0.187127 0)
(0.613393 0.212814 0)
(0.628357 0.240958 0)
(0.644948 0.270558 0)
(0.658247 0.301819 0)
(0.666222 0.334717 0)
(0.666663 0.36764 0)
(0.672332 0.398025 0)
(0.675635 0.425701 0)
(0.698139 0.446415 0)
(-0.657247 0.066251 0)
(0.404543 0.0643809 0)
(0.591022 0.0926021 0)
(0.585137 0.0940811 0)
(0.587735 0.0969125 0)
(0.591235 0.0980625 0)
(0.595269 0.0993797 0)
(0.597993 0.10219 0)
(0.597456 0.107756 0)
(0.594335 0.115209 0)
(0.591375 0.123529 0)
(0.5913 0.133501 0)
(0.595038 0.14601 0)
(0.60046 0.162126 0)
(0.61223 0.180814 0)
(0.621765 0.203626 0)
(0.638891 0.229183 0)
(0.658347 0.257608 0)
(0.676602 0.287508 0)
(0.689191 0.320251 0)
(0.692594 0.353916 0)
(0.696186 0.38576 0)
(0.699822 0.416252 0)
(0.71545 0.441325 0)
(-0.644218 0.0654002 0)
(0.40953 0.0625311 0)
(0.596441 0.0936905 0)
(0.59062 0.09579 0)
(0.591368 0.0990946 0)
(0.594402 0.100479 0)
(0.598888 0.101658 0)
(0.60335 0.103944 0)
(0.605377 0.107851 0)
(0.604275 0.114624 0)
(0.601769 0.123192 0)
(0.600668 0.132904 0)
(0.603482 0.144824 0)
(0.608197 0.159344 0)
(0.619323 0.175943 0)
(0.629586 0.196178 0)
(0.647296 0.218688 0)
(0.668502 0.244554 0)
(0.69123 0.272202 0)
(0.708141 0.302822 0)
(0.717534 0.335566 0)
(0.72047 0.369156 0)
(0.724949 0.40151 0)
(0.735727 0.430952 0)
(-0.630547 0.0636975 0)
(0.414713 0.0601045 0)
(0.602463 0.0934094 0)
(0.596958 0.0961728 0)
(0.595644 0.100208 0)
(0.597352 0.102247 0)
(0.601801 0.102982 0)
(0.60721 0.104425 0)
(0.611642 0.108322 0)
(0.613525 0.114609 0)
(0.61273 0.122737 0)
(0.611654 0.132731 0)
(0.613554 0.144842 0)
(0.61726 0.157748 0)
(0.626048 0.172823 0)
(0.637038 0.190131 0)
(0.653132 0.209665 0)
(0.674817 0.2321 0)
(0.700956 0.256133 0)
(0.722125 0.284285 0)
(0.738848 0.313802 0)
(0.744702 0.347611 0)
(0.749987 0.381405 0)
(0.760647 0.414299 0)
(-0.616595 0.0610735 0)
(0.420151 0.0572369 0)
(0.609064 0.0911526 0)
(0.603778 0.0942685 0)
(0.601209 0.0995209 0)
(0.600383 0.102654 0)
(0.603756 0.104863 0)
(0.609532 0.10608 0)
(0.616731 0.10882 0)
(0.62196 0.114205 0)
(0.624044 0.122654 0)
(0.623849 0.132797 0)
(0.625069 0.144766 0)
(0.627771 0.156923 0)
(0.633437 0.171247 0)
(0.644886 0.185765 0)
(0.657656 0.202253 0)
(0.678805 0.220656 0)
(0.705538 0.241137 0)
(0.731982 0.265036 0)
(0.753526 0.29201 0)
(0.767396 0.323169 0)
(0.775921 0.357305 0)
(0.786895 0.39232 0)
(-0.602765 0.0573838 0)
(0.42549 0.0534322 0)
(0.616097 0.0865059 0)
(0.611216 0.0902652 0)
(0.608046 0.0967344 0)
(0.604328 0.10135 0)
(0.606237 0.105321 0)
(0.611659 0.108685 0)
(0.620125 0.111665 0)
(0.629084 0.116517 0)
(0.634881 0.123941 0)
(0.636592 0.133366 0)
(0.637504 0.144637 0)
(0.639234 0.156228 0)
(0.64198 0.168417 0)
(0.651438 0.181323 0)
(0.661512 0.195358 0)
(0.681002 0.210075 0)
(0.70659 0.227764 0)
(0.736479 0.247559 0)
(0.763782 0.271325 0)
(0.784076 0.299896 0)
(0.800503 0.331701 0)
(0.813248 0.367217 0)
(-0.589546 0.0525417 0)
(0.430625 0.0485083 0)
(0.623071 0.0794499 0)
(0.619449 0.0841202 0)
(0.615096 0.0917569 0)
(0.610879 0.0989319 0)
(0.610275 0.105086 0)
(0.615011 0.110094 0)
(0.623892 0.114468 0)
(0.635059 0.118964 0)
(0.643929 0.125037 0)
(0.648483 0.132772 0)
(0.64961 0.142126 0)
(0.650635 0.15349 0)
(0.652026 0.164851 0)
(0.657678 0.176978 0)
(0.667456 0.188987 0)
(0.683312 0.201457 0)
(0.706804 0.216344 0)
(0.736765 0.233395 0)
(0.768357 0.253621 0)
(0.795742 0.279127 0)
(0.818848 0.307862 0)
(0.838105 0.341129 0)
(-0.57763 0.0468782 0)
(0.435877 0.0429237 0)
(0.629787 0.0704661 0)
(0.627323 0.0763344 0)
(0.623806 0.0855519 0)
(0.619649 0.094698 0)
(0.617283 0.103756 0)
(0.619907 0.111704 0)
(0.627504 0.117865 0)
(0.638581 0.122845 0)
(0.649513 0.126853 0)
(0.657394 0.131876 0)
(0.660324 0.138031 0)
(0.660887 0.147096 0)
(0.661718 0.158364 0)
(0.66504 0.171057 0)
(0.675314 0.182404 0)
(0.687474 0.195066 0)
(0.709511 0.20758 0)
(0.737922 0.222526 0)
(0.771198 0.23981 0)
(0.803515 0.261423 0)
(0.833011 0.286905 0)
(0.858236 0.3165 0)
(-0.567627 0.0416251 0)
(0.442001 0.0388635 0)
(0.635268 0.058852 0)
(0.634769 0.0691187 0)
(0.634431 0.0784311 0)
(0.630478 0.0887203 0)
(0.627697 0.100289 0)
(0.627243 0.111219 0)
(0.632224 0.119332 0)
(0.641656 0.123742 0)
(0.652692 0.125572 0)
(0.662419 0.127369 0)
(0.668763 0.132074 0)
(0.671833 0.140338 0)
(0.672852 0.151455 0)
(0.675388 0.164249 0)
(0.684001 0.176274 0)
(0.693772 0.188814 0)
(0.712724 0.201179 0)
(0.738602 0.214492 0)
(0.771221 0.229005 0)
(0.806312 0.246362 0)
(0.840547 0.26723 0)
(0.871853 0.292595 0)
(-0.559503 0.0380092 0)
(0.446575 0.0353417 0)
(0.642181 0.0515128 0)
(0.643149 0.0610961 0)
(0.644791 0.0696717 0)
(0.642884 0.080589 0)
(0.639627 0.0933824 0)
(0.637071 0.106334 0)
(0.637815 0.11613 0)
(0.643744 0.120728 0)
(0.653196 0.120882 0)
(0.664501 0.120958 0)
(0.674321 0.124464 0)
(0.681426 0.132108 0)
(0.685706 0.144176 0)
(0.689706 0.158438 0)
(0.696207 0.172327 0)
(0.7056 0.185224 0)
(0.719138 0.196951 0)
(0.740612 0.208137 0)
(0.76951 0.220331 0)
(0.804544 0.23307 0)
(0.841067 0.248597 0)
(0.876933 0.268382 0)
(-0.552452 0.0364446 0)
(0.450988 0.0336893 0)
(0.647812 0.0478893 0)
(0.649639 0.0535124 0)
(0.654044 0.060617 0)
(0.654974 0.0702609 0)
(0.652902 0.0827205 0)
(0.647349 0.095888 0)
(0.64606 0.107734 0)
(0.645469 0.113082 0)
(0.653379 0.114661 0)
(0.665708 0.115316 0)
(0.678846 0.118204 0)
(0.69047 0.125147 0)
(0.69875 0.136871 0)
(0.705163 0.151586 0)
(0.711365 0.166617 0)
(0.719486 0.180319 0)
(0.728879 0.192514 0)
(0.745057 0.201816 0)
(0.768697 0.210857 0)
(0.800995 0.219346 0)
(0.836896 0.231194 0)
(0.874997 0.245695 0)
(-0.545675 0.0358952 0)
(0.4564 0.0338402 0)
(0.649602 0.0427564 0)
(0.653497 0.0500911 0)
(0.661329 0.0531003 0)
(0.664677 0.0590519 0)
(0.664677 0.0685855 0)
(0.659687 0.080983 0)
(0.653022 0.0933808 0)
(0.652709 0.102939 0)
(0.655212 0.106206 0)
(0.667506 0.109015 0)
(0.683499 0.114047 0)
(0.698462 0.121305 0)
(0.711266 0.132209 0)
(0.721364 0.145474 0)
(0.728615 0.159185 0)
(0.734774 0.171795 0)
(0.7419 0.18299 0)
(0.753006 0.191921 0)
(0.77074 0.200075 0)
(0.798202 0.205147 0)
(0.832333 0.212988 0)
(0.870671 0.223302 0)
(-0.538794 0.035624 0)
(0.462206 0.0352721 0)
(0.649873 0.0393476 0)
(0.655096 0.0469558 0)
(0.664356 0.0469794 0)
(0.670214 0.0485319 0)
(0.671917 0.0538037 0)
(0.669261 0.0632359 0)
(0.662097 0.0753584 0)
(0.6601 0.0884352 0)
(0.658384 0.0974938 0)
(0.66986 0.104043 0)
(0.68648 0.110846 0)
(0.703159 0.118569 0)
(0.718938 0.127131 0)
(0.732345 0.136145 0)
(0.74188 0.146086 0)
(0.748595 0.156412 0)
(0.754813 0.166553 0)
(0.763387 0.175775 0)
(0.776676 0.183808 0)
(0.799096 0.191088 0)
(0.830153 0.196783 0)
(0.866936 0.203668 0)
(-0.531639 0.034804 0)
(0.466493 0.0349092 0)
(0.651403 0.0369624 0)
(0.656634 0.0443546 0)
(0.66495 0.043233 0)
(0.670702 0.0420548 0)
(0.674943 0.043311 0)
(0.676603 0.0484472 0)
(0.674624 0.058697 0)
(0.672447 0.0730778 0)
(0.668876 0.0871901 0)
(0.676821 0.0990114 0)
(0.691439 0.108702 0)
(0.707062 0.11644 0)
(0.723434 0.121967 0)
(0.738701 0.125862 0)
(0.75002 0.130137 0)
(0.758463 0.135716 0)
(0.765477 0.143841 0)
(0.773518 0.153105 0)
(0.784491 0.163174 0)
(0.801764 0.171606 0)
(0.828551 0.179123 0)
(0.8626 0.186183 0)
(-0.52414 0.0333244 0)
(0.46965 0.0323279 0)
(0.653428 0.0354037 0)
(0.65702 0.0411977 0)
(0.663287 0.039131 0)
(0.668545 0.0358039 0)
(0.675084 0.0356041 0)
(0.681096 0.0387852 0)
(0.685426 0.04646 0)
(0.686947 0.0594941 0)
(0.685769 0.07608 0)
(0.688446 0.0913818 0)
(0.697999 0.103537 0)
(0.709517 0.110631 0)
(0.725415 0.114284 0)
(0.741001 0.114794 0)
(0.754877 0.115244 0)
(0.76677 0.116617 0)
(0.777586 0.121068 0)
(0.787818 0.129332 0)
(0.798536 0.140478 0)
(0.812861 0.151954 0)
(0.832927 0.161327 0)
(0.861371 0.167321 0)
(-0.516616 0.0307227 0)
(0.473066 0.0285092 0)
(0.655299 0.0330864 0)
(0.65645 0.0373807 0)
(0.660583 0.0352508 0)
(0.665533 0.0319972 0)
(0.673653 0.0315272 0)
(0.68311 0.0337878 0)
(0.692919 0.0391636 0)
(0.70007 0.0492543 0)
(0.702445 0.0639092 0)
(0.702118 0.0794149 0)
(0.704962 0.0924782 0)
(0.711684 0.0999187 0)
(0.723492 0.10257 0)
(0.738556 0.100772 0)
(0.755075 0.0987017 0)
(0.771312 0.0986222 0)
(0.786669 0.101939 0)
(0.801311 0.108419 0)
(0.815135 0.118139 0)
(0.829109 0.129666 0)
(0.845662 0.140793 0)
(0.867543 0.148354 0)
(-0.509588 0.0267745 0)
(0.476319 0.0223521 0)
(0.657247 0.0298949 0)
(0.656325 0.0321979 0)
(0.658405 0.0319197 0)
(0.662924 0.0314746 0)
(0.671988 0.031541 0)
(0.684403 0.0323934 0)
(0.698021 0.0353648 0)
(0.709381 0.0416299 0)
(0.715863 0.0516815 0)
(0.716686 0.0643569 0)
(0.714513 0.0758775 0)
(0.716187 0.0843892 0)
(0.72322 0.0886092 0)
(0.737211 0.0877301 0)
(0.755722 0.0868215 0)
(0.773817 0.0867274 0)
(0.792954 0.088747 0)
(0.811036 0.0926856 0)
(0.827622 0.0987679 0)
(0.843425 0.106449 0)
(0.85894 0.115319 0)
(0.876903 0.12324 0)
(-0.503053 0.0219296 0)
(0.480066 0.0147297 0)
(0.658146 0.02466 0)
(0.656296 0.0263427 0)
(0.657499 0.028568 0)
(0.662173 0.030763 0)
(0.671451 0.0317079 0)
(0.684886 0.0327829 0)
(0.699961 0.0338354 0)
(0.713317 0.0361654 0)
(0.722249 0.0400061 0)
(0.724138 0.0458979 0)
(0.720439 0.0541819 0)
(0.718959 0.0638728 0)
(0.721891 0.0696304 0)
(0.734623 0.0744914 0)
(0.754164 0.0769711 0)
(0.775138 0.0792635 0)
(0.797606 0.0809528 0)
(0.818551 0.0829669 0)
(0.837548 0.0851116 0)
(0.854528 0.0870824 0)
(0.870561 0.0898931 0)
(0.887031 0.0938324 0)
(-0.49784 0.0159095 0)
(0.482967 0.00883149 0)
(0.656304 0.0178642 0)
(0.656138 0.0213129 0)
(0.659385 0.0251871 0)
(0.66351 0.0305964 0)
(0.672429 0.03329 0)
(0.68518 0.0341223 0)
(0.699868 0.0340852 0)
(0.712984 0.0334104 0)
(0.722311 0.0321409 0)
(0.726542 0.0322758 0)
(0.72632 0.0345896 0)
(0.725736 0.0427188 0)
(0.727935 0.0524196 0)
(0.737329 0.062082 0)
(0.755198 0.0673787 0)
(0.774428 0.0718735 0)
(0.797304 0.0741749 0)
(0.819502 0.0748694 0)
(0.840041 0.0740109 0)
(0.858748 0.0715872 0)
(0.876399 0.0688198 0)
(0.894097 0.0667708 0)
(-0.494914 0.00981266 0)
(0.484069 0.00744867 0)
(0.656812 0.00938719 0)
(0.659811 0.0150246 0)
(0.664993 0.0207642 0)
(0.668434 0.0282769 0)
(0.675858 0.033075 0)
(0.686068 0.0340834 0)
(0.697936 0.0320255 0)
(0.709085 0.0273617 0)
(0.718984 0.0216561 0)
(0.726107 0.0168702 0)
(0.73082 0.0182395 0)
(0.735132 0.0251287 0)
(0.739902 0.0366638 0)
(0.74789 0.049519 0)
(0.76187 0.0593799 0)
(0.778124 0.0659756 0)
(0.798772 0.0675479 0)
(0.819583 0.0656292 0)
(0.839465 0.0612316 0)
(0.858918 0.0553778 0)
(0.878555 0.0496308 0)
(0.898586 0.0450126 0)
(-0.494593 0.00543546 0)
(0.483587 0.00738605 0)
(0.661071 0.00196215 0)
(0.664294 0.0080068 0)
(0.671101 0.0144905 0)
(0.675097 0.0229006 0)
(0.680221 0.0285345 0)
(0.686467 0.0302059 0)
(0.69444 0.0270182 0)
(0.703227 0.0205976 0)
(0.712405 0.0131386 0)
(0.722656 0.00779407 0)
(0.733183 0.00773223 0)
(0.743651 0.0130638 0)
(0.752586 0.0231384 0)
(0.761231 0.0355203 0)
(0.770832 0.0470091 0)
(0.783505 0.0547739 0)
(0.799325 0.0562916 0)
(0.817591 0.052149 0)
(0.836648 0.0455728 0)
(0.856759 0.0381129 0)
(0.878342 0.0317594 0)
(0.900944 0.0269717 0)
(-0.495414 0.00225315 0)
(0.480932 0.00530456 0)
(0.666052 -0.000709047 0)
(0.67014 0.00315084 0)
(0.678077 0.00836578 0)
(0.68266 0.0153451 0)
(0.685297 0.0201061 0)
(0.687103 0.0218799 0)
(0.690077 0.0195483 0)
(0.695942 0.0134765 0)
(0.705861 0.00666576 0)
(0.71946 0.00260439 0)
(0.734499 0.00173333 0)
(0.747757 0.00395314 0)
(0.759096 0.0101772 0)
(0.76904 0.0193304 0)
(0.776761 0.0291909 0)
(0.784992 0.0367793 0)
(0.796468 0.0390794 0)
(0.811199 0.0352796 0)
(0.829194 0.0289401 0)
(0.850149 0.0223396 0)
(0.873482 0.0172136 0)
(0.897751 0.0135722 0)
(-0.49644 0.00100135 0)
(0.477971 0.00149389 0)
(0.668078 0.000624069 0)
(0.674276 0.00147289 0)
(0.682487 0.00226268 0)
(0.686712 0.00427854 0)
(0.686976 0.00598224 0)
(0.685918 0.00734122 0)
(0.686049 0.0076143 0)
(0.688941 0.00651523 0)
(0.699336 0.00510791 0)
(0.716412 0.00380236 0)
(0.734374 0.0019557 0)
(0.750898 0.00228763 0)
(0.765986 0.00274311 0)
(0.777247 0.00426168 0)
(0.782874 0.00704512 0)
(0.787566 0.010317 0)
(0.794668 0.0129851 0)
(0.806222 0.0132678 0)
(0.823797 0.0120083 0)
(0.84646 0.0097578 0)
(0.872256 0.00771497 0)
(0.899349 0.00630332 0)
(0.449809 0.397302 0)
(0.135474 0.202264 0)
(0.0572156 0.0551669 0)
(0.0235182 0.0143843 0)
(0.0047037 0.00736855 0)
(-0.00237737 0.00216945 0)
(-3.64063e-05 -0.00108082 0)
(0.00207274 -0.00311146 0)
(0.473125 0.338177 0)
(0.295262 0.197461 0)
(0.19241 0.0808613 0)
(0.0945818 0.0444525 0)
(0.0383563 0.0215949 0)
(0.00823762 0.00835063 0)
(0.00316088 -0.00444112 0)
(0.00276449 -0.0104049 0)
(0.519454 0.435007 0)
(0.404603 0.354791 0)
(0.29472 0.2346 0)
(0.173276 0.152615 0)
(0.0931713 0.0832341 0)
(0.0438552 0.0333934 0)
(0.0143757 0.00825499 0)
(0.00603752 -0.00744114 0)
(0.585191 0.473236 0)
(0.531796 0.419126 0)
(0.448183 0.321198 0)
(0.32746 0.229422 0)
(0.216342 0.147419 0)
(0.122995 0.0860569 0)
(0.0503944 0.0462525 0)
(0.0165819 0.0128635 0)
(0.631185 0.485014 0)
(0.609367 0.470741 0)
(0.556257 0.421511 0)
(0.457963 0.355673 0)
(0.338527 0.274607 0)
(0.217273 0.193073 0)
(0.11286 0.119939 0)
(0.038262 0.0645209 0)
(0.660796 0.485552 0)
(0.658084 0.488944 0)
(0.631826 0.47625 0)
(0.569107 0.445712 0)
(0.472223 0.386945 0)
(0.345294 0.314467 0)
(0.201151 0.246799 0)
(0.0761716 0.170935 0)
(0.679398 0.48566 0)
(0.689606 0.493251 0)
(0.680647 0.501756 0)
(0.646496 0.504132 0)
(0.581062 0.484787 0)
(0.471221 0.453152 0)
(0.341617 0.380277 0)
(0.16033 0.356188 0)
(0.692205 0.477598 0)
(0.712842 0.496029 0)
(0.716253 0.517474 0)
(0.702951 0.540234 0)
(0.66545 0.556979 0)
(0.589112 0.564179 0)
(0.426037 0.573326 0)
(0.216654 0.705547 0)
(0.708137 0.470269 0)
(0.731813 0.494012 0)
(0.747618 0.52297 0)
(0.751609 0.558437 0)
(0.738304 0.600524 0)
(0.703859 0.668604 0)
(0.652081 0.774979 0)
(0.738171 1.01241 0)
(0.726417 0.466939 0)
(0.754247 0.49081 0)
(0.778099 0.522366 0)
(0.795954 0.564771 0)
(0.810647 0.623973 0)
(0.826357 0.71668 0)
(0.88329 0.822694 0)
(1.1229 0.930456 0)
(0.744999 0.462559 0)
(0.779625 0.484085 0)
(0.810027 0.514953 0)
(0.837706 0.557537 0)
(0.875259 0.61489 0)
(0.925593 0.700923 0)
(1.04803 0.797684 0)
(1.30451 0.855752 0)
(0.763932 0.455898 0)
(0.804825 0.474343 0)
(0.842055 0.502948 0)
(0.879421 0.542364 0)
(0.92886 0.591579 0)
(0.999673 0.658552 0)
(1.13767 0.733792 0)
(1.37 0.764476 0)
(0.782621 0.443816 0)
(0.826688 0.462659 0)
(0.872512 0.487985 0)
(0.918946 0.522236 0)
(0.974471 0.562954 0)
(1.05247 0.610811 0)
(1.18319 0.662473 0)
(1.37604 0.674604 0)
(0.804536 0.425845 0)
(0.845666 0.45027 0)
(0.898511 0.470793 0)
(0.952086 0.499025 0)
(1.01205 0.532724 0)
(1.09035 0.566288 0)
(1.20701 0.596644 0)
(1.36225 0.597781 0)
(0.831773 0.403233 0)
(0.86288 0.435407 0)
(0.918594 0.452619 0)
(0.977525 0.475122 0)
(1.04076 0.502502 0)
(1.11626 0.525311 0)
(1.21785 0.541895 0)
(1.34206 0.537923 0)
(0.858172 0.377463 0)
(0.882392 0.413978 0)
(0.934652 0.43373 0)
(0.995343 0.451663 0)
(1.06007 0.47274 0)
(1.13194 0.486931 0)
(1.22081 0.49652 0)
(1.32415 0.490803 0)
(0.881378 0.349834 0)
(0.906039 0.384762 0)
(0.948082 0.410802 0)
(1.00655 0.427235 0)
(1.07155 0.443039 0)
(1.14032 0.450237 0)
(1.21886 0.456195 0)
(1.3082 0.45045 0)
(0.899349 0.322028 0)
(0.928126 0.351299 0)
(0.9624 0.380448 0)
(1.01384 0.399818 0)
(1.07697 0.411772 0)
(1.14301 0.413313 0)
(1.21387 0.417514 0)
(1.29281 0.412128 0)
(0.910107 0.292637 0)
(0.943346 0.316946 0)
(0.976949 0.344321 0)
(1.0199 0.367659 0)
(1.07875 0.378366 0)
(1.14192 0.377026 0)
(1.20698 0.379739 0)
(1.27771 0.374677 0)
(0.912911 0.263351 0)
(0.950516 0.282407 0)
(0.986687 0.306365 0)
(1.02599 0.330116 0)
(1.07831 0.341868 0)
(1.13837 0.34187 0)
(1.199 0.343765 0)
(1.26339 0.339158 0)
(0.910148 0.237039 0)
(0.951026 0.250596 0)
(0.990085 0.270329 0)
(1.02994 0.290888 0)
(1.07674 0.303613 0)
(1.1323 0.307337 0)
(1.18954 0.309685 0)
(1.24917 0.305737 0)
(0.907177 0.213179 0)
(0.949235 0.222512 0)
(0.990026 0.23794 0)
(1.03139 0.253555 0)
(1.07581 0.2643 0)
(1.12515 0.271935 0)
(1.17947 0.275922 0)
(1.23528 0.273231 0)
(0.900911 0.19267 0)
(0.942072 0.198548 0)
(0.983487 0.20956 0)
(1.02637 0.219538 0)
(1.07037 0.22693 0)
(1.11579 0.236389 0)
(1.16779 0.239591 0)
(1.22121 0.240114 0)
(0.895264 0.172922 0)
(0.933155 0.17651 0)
(0.973246 0.183385 0)
(1.0159 0.188211 0)
(1.05948 0.192654 0)
(1.1042 0.199647 0)
(1.15319 0.203686 0)
(1.20508 0.205359 0)
(0.895855 0.151843 0)
(0.928908 0.153549 0)
(0.965492 0.157094 0)
(1.00552 0.158407 0)
(1.04717 0.160758 0)
(1.09098 0.164438 0)
(1.13788 0.168125 0)
(1.188 0.170278 0)
(0.899709 0.127489 0)
(0.927671 0.128337 0)
(0.960173 0.129671 0)
(0.996892 0.129497 0)
(1.03623 0.130571 0)
(1.07864 0.131923 0)
(1.1237 0.134428 0)
(1.17184 0.136908 0)
(0.906368 0.0972315 0)
(0.930312 0.099113 0)
(0.959151 0.100101 0)
(0.992307 0.0998562 0)
(1.02868 0.101325 0)
(1.06857 0.102006 0)
(1.11112 0.103947 0)
(1.15665 0.10648 0)
(0.913105 0.0663288 0)
(0.935172 0.0677133 0)
(0.961078 0.0695805 0)
(0.990865 0.0710685 0)
(1.02407 0.0729091 0)
(1.06053 0.0748029 0)
(1.09969 0.0772088 0)
(1.14166 0.080168 0)
(0.919371 0.042057 0)
(0.941577 0.0413133 0)
(0.965952 0.0425819 0)
(0.992991 0.0450233 0)
(1.02262 0.0479913 0)
(1.0552 0.0509428 0)
(1.09044 0.0541106 0)
(1.12832 0.0574835 0)
(0.923981 0.024084 0)
(0.947537 0.0233375 0)
(0.97202 0.024149 0)
(0.997599 0.0261116 0)
(1.02458 0.0285176 0)
(1.05348 0.0313965 0)
(1.08459 0.0346754 0)
(1.11815 0.0380453 0)
(0.922481 0.011093 0)
(0.947264 0.010207 0)
(0.971816 0.0104626 0)
(0.996623 0.0117773 0)
(1.02259 0.0135082 0)
(1.04996 0.0160843 0)
(1.07911 0.0190343 0)
(1.11032 0.0217819 0)
(0.926407 0.00577996 0)
(0.952636 0.00559656 0)
(0.978021 0.00527788 0)
(1.00285 0.00471019 0)
(1.02769 0.00439149 0)
(1.05308 0.00467811 0)
(1.0798 0.0053951 0)
(1.10825 0.00625456 0)
(1.67074 1.06458 0)
(2.26443 1.01213 0)
(2.59607 0.812346 0)
(2.51979 0.338786 0)
(2.50858 0.0981044 0)
(2.38493 -0.128373 0)
(2.23484 -0.253418 0)
(2.212 -0.247249 0)
(2.12507 -0.155309 0)
(1.98488 -0.128622 0)
(1.49105 -0.0613896 0)
(1.36471 0.00233461 0)
(1.34452 0.010778 0)
(1.34138 0.00924844 0)
(1.31927 0.00809372 0)
(1.29341 0.00843885 0)
(1.29091 0.00926192 0)
(1.30466 0.00927442 0)
(1.32488 0.00725739 0)
(1.33402 0.00588395 0)
(1.33415 0.00570685 0)
(1.33614 0.00773409 0)
(1.35054 0.00930356 0)
(1.37796 0.0100917 0)
(1.41596 0.00918448 0)
(1.44833 0.00770016 0)
(1.47175 0.0069786 0)
(1.49535 0.00571787 0)
(1.52774 0.00185998 0)
(1.55758 -0.00447227 0)
(1.57644 -0.0070222 0)
(1.59151 -0.00794853 0)
(1.59598 -0.00499918 0)
(1.60021 -0.000643326 0)
(1.61649 0.000909997 0)
(1.63609 -3.66159e-05 0)
(1.65666 -0.00316751 0)
(1.6788 -0.00677188 0)
(1.70241 -0.0100957 0)
(1.7295 -0.0125439 0)
(1.76609 -0.0132292 0)
(1.80064 -0.0122599 0)
(1.82857 -0.0104577 0)
(1.85419 -0.00648574 0)
(1.87333 -0.000974051 0)
(1.8836 0.00530105 0)
(1.8922 0.00966479 0)
(1.90946 0.010669 0)
(1.93111 0.010979 0)
(1.95446 0.0111698 0)
(1.9817 0.0115093 0)
(2.00773 0.0117324 0)
(2.03392 0.0118315 0)
(2.04905 0.0110623 0)
(2.04077 0.00098004 0)
(1.96817 -0.0225261 0)
(1.81779 -0.0533666 0)
(1.66854 -0.0518313 0)
(1.60706 -0.0337147 0)
(1.63589 -0.0206287 0)
(1.67369 -0.0178047 0)
(1.70085 -0.0150585 0)
(1.72009 -0.00928969 0)
(1.73674 -0.00708663 0)
(1.75302 -0.00735722 0)
(1.77069 -0.00855107 0)
(1.79094 -0.0115941 0)
(1.80717 -0.0146254 0)
(1.82306 -0.0163378 0)
(1.83095 -0.0164728 0)
(1.82148 -0.0133775 0)
(1.8207 -0.00831064 0)
(1.83414 -0.00373174 0)
(1.84863 0.000460076 0)
(1.86533 0.00459521 0)
(1.89067 0.00665995 0)
(1.91824 0.005964 0)
(1.94115 0.00379126 0)
(1.95712 0.000603445 0)
(1.97251 -0.00402608 0)
(1.9878 -0.00850482 0)
(2.00229 -0.0110679 0)
(2.00801 -0.0126308 0)
(1.99421 -0.00881765 0)
(1.96999 -8.85058e-05 0)
(1.9674 0.00924274 0)
(1.97677 0.0148283 0)
(1.99134 0.0152735 0)
(1.80316 0.846693 0)
(2.21526 0.490445 0)
(2.4679 0.0792136 0)
(2.5364 -0.202052 0)
(2.4725 -0.418032 0)
(2.46847 -0.520894 0)
(2.44363 -0.483068 0)
(2.33617 -0.376539 0)
(2.20486 -0.31829 0)