/*--------------------------------*- C++ -*----------------------------------*\
  =========                 |
  \\      /  F ield         | OpenFOAM: The Open Source CFD Toolbox
   \\    /   O peration     | Website:  https://openfoam.org
    \\  /    A nd           | Version:  7
     \\/     M anipulation  |
\*---------------------------------------------------------------------------*/
FoamFile
{
    version     2.0;
    format      ascii;
    class       volScalarField;
    location    "2.1";
    object      p;
}
// * * * * * * * * * * * * * * * * * * * * * * * * * * * * * * * * * * * * * //

dimensions      [1 -1 -2 0 0 0 0];

internalField   nonuniform List<scalar> 
4128
(
1
1
1
1
1
1
1
1
1
1
1
1
1
1
1
1
1
1
1
1
1
1
1
1
1
1
1
1
1
1
1
1
1
1
1
1
1
1
1
1
1
1
1
1
1
1
1
1
1
1
1.00001
1.00071
1.01581
1.13918
1.80102
3.17774
3.59889
3.75381
3.87889
3.88183
3.79015
3.74469
3.76219
3.71466
3.63714
3.60449
3.59775
3.54561
3.47655
3.43238
3.37703
3.31674
3.3068
3.28436
3.25075
3.23179
3.20708
3.15671
3.1093
3.05941
3.01233
2.97872
2.95983
2.94581
2.93047
2.91434
1
1
1
1
1
1
1
1
1
1
1
1
1
1
1
1
1
1
1
1
1
1
1
1
1
1
1
1
1
1
1
1
1
1
1
1
1
1
1
1
1
1
1
1
1
1
1
1
1
1
1
1
1
1
1.00014
1.00502
1.08782
1.75113
2.88958
3.46471
3.8032
3.88823
3.86557
3.82783
3.76403
3.70619
3.67782
3.67753
3.63592
3.55515
3.50382
3.46363
3.39988
3.36903
3.36201
3.32548
3.29222
3.26806
3.21923
3.16754
3.12419
3.07861
3.03909
3.02157
3.00761
2.98835
2.97164
2.95733
1
1
1
1
1
1
1
1
1
1
1
1
1
1
1
1
1
1
1
1
1
1
1
1
1
1
1
1
1
1
1
1
1
1
1
1
1
1
1
1
1
1
1
1
1
1
1
1
1
1
1
1
1
1
1
1.00005
1.00293
1.08224
1.64942
2.46436
3.30736
3.84238
3.88026
3.81546
3.75311
3.73164
3.74159
3.70957
3.62197
3.56383
3.54115
3.50257
3.44234
3.428
3.40839
3.35931
3.32268
3.28254
3.22306
3.18502
3.14966
3.10821
3.08451
3.07268
3.04917
3.02923
3.01674
2.99535
1
1
1
1
1
1
1
1
1
1
1
1
1
1
1
1
1
1
1
1
1
1
1
1
1
1
1
1
1
1
1
1
1
1
1
1
1
1
1
1
1
1
1
1
1
1
1
1
1
1
1
1
1
1
1
1
1.00003
1.00261
1.05975
1.3343
2.00622
3.33131
3.7684
3.74657
3.75979
3.7787
3.76933
3.68191
3.62835
3.63058
3.61184
3.54074
3.50356
3.48932
3.4394
3.38408
3.34375
3.28843
3.24034
3.21822
3.18657
3.15162
3.13778
3.11386
3.08892
3.07502
3.05386
3.01899
1
1
1
1
1
1
1
1
1
1
1
1
1
1
1
1
1
1
1
1
1
1
1
1
1
1
1
1
1
1
1
1
1
1
1
1
1
1
1
1
1
1
1
1
1
1
1
1
1
1
1
1
1
1
1
1
1
1.00002
1.00105
1.01733
1.14639
1.93384
3.15242
3.52596
3.72854
3.83522
3.78569
3.73244
3.72174
3.68294
3.62321
3.5881
3.58044
3.53506
3.45977
3.40724
3.35789
3.2997
3.27675
3.26424
3.22721
3.20344
3.18116
3.14814
3.1312
3.11054
3.07635
3.03183
1
1
1
1
1
1
1
1
1
1
1
1
1
1
1
1
1
1
1
1
1
1
1
1
1
1
1
1
1
1
1
1
1
1
1
1
1
1
1
1
1
1
1
1
1
1
1
1
1
1
1
1
1
1
1
1
1
1
1
1.00018
1.00616
1.11795
1.84984
2.78881
3.38839
3.76929
3.835
3.7952
3.72263
3.66476
3.64445
3.64841
3.61747
3.5362
3.47661
3.43414
3.37795
3.33178
3.32885
3.30924
3.26944
3.24565
3.21012
3.18371
3.16522
3.13371
3.08977
3.04396
1
1
1
1
1
1
1
1
1
1
1
1
1
1
1
1
1
1
1
1
1
1
1
1
1
1
1
1
1
1
1
1
1
1
1
1
1
1
1
1
1
1
1
1
1
1
1
1
1
1
1
1
1
1
1
1
1
1
1
1
1.00008
1.00453
1.10556
1.59469
2.29252
3.31809
3.79317
3.77752
3.70858
3.68792
3.69588
3.68035
3.59244
3.53556
3.51112
3.47594
3.40984
3.3878
3.3826
3.34482
3.3107
3.27941
3.23641
3.21433
3.18987
3.15121
3.10162
3.05857
1
1
1
1
1
1
1
1
1
1
1
1
1
1
1
1
1
1
1
1
1
1
1
1
1
1
1
1
1
1
1
1
1
1
1
1
1
1
1
1
1
1
1
1
1
1
1
1
1
1
1
1
1
1
1
1
1
1
1
1
1
1.00005
1.00324
1.04935
1.2591
2.01519
3.33394
3.59531
3.66159
3.71441
3.74045
3.6649
3.60321
3.60255
3.58546
3.51333
3.46579
3.46116
3.43145
3.37885
3.34881
3.30671
3.2637
3.24294
3.21249
3.16411
3.11648
3.07692
1
1
1
1
1
1
1
1
1
1
1
1
1
1
1
1
1
1
1
1
1
1
1
1
1
1
1
1
1
1
1
1
1
1
1
1
1
1
1
1
1
1
1
1
1
1
1
1
1
1
1
1
1
1
1
1
1
1
1
1
1
1
1.00002
1.00073
1.01312
1.15187
1.97032
3.0115
3.43473
3.68059
3.76468
3.72156
3.69394
3.65372
3.58955
3.54815
3.5416
3.52441
3.45726
3.40867
3.38053
3.33317
3.29477
3.2725
3.2323
3.17916
3.13924
3.10552
1
1
1
1
1
1
1
1
1
1
1
1
1
1
1
1
1
1
1
1
1
1
1
1
1
1
1
1
1
1
1
1
1
1
1
1
1
1
1
1
1
1
1
1
1
1
1
1
1
1
1
1
1
1
1
1
1
1
1
1
1
1
1
1
1.00017
1.0069
1.13006
1.80635
2.62029
3.28786
3.71629
3.77429
3.71535
3.63689
3.60499
3.60274
3.60239
3.52895
3.46206
3.43857
3.41572
3.36068
3.32736
3.30076
3.25103
3.20387
3.17326
3.13944
1
1
1
1
1
1
1
1
1
1
1
1
1
1
1
1
1
1
1
1
1
1
1
1
1
1
1
1
1
1
1
1
1
1
1
1
1
1
1
1
1
1
1
1
1
1
1
1
1
1
1
1
1
1
1
1
1
1
1
1
1
1
1
1
1
1.0001
1.00525
1.09565
1.46839
2.14157
3.26383
3.71918
3.65722
3.62901
3.63654
3.65969
3.5946
3.51136
3.48832
3.48743
3.44625
3.38462
3.36276
3.32825
3.27447
3.24077
3.21217
3.1727
1
1
1
1
1
1
1
1
1
1
1
1
1
1
1
1
1
1
1
1
1
1
1
1
1
1
1
1
1
1
1
1
1
1
1
1
1
1
1
1
1
1
1
1
1
1
1
1
1
1
1
1
1
1
1
1
1
1
1
1
1
1
1
1
1
1
1.00006
1.00243
1.03202
1.20541
1.95852
3.18526
3.45807
3.5808
3.68323
3.67639
3.59136
3.55302
3.55831
3.52014
3.45696
3.42446
3.4093
3.35854
3.31048
3.28329
3.24815
3.20861
1
1
1
1
1
1
1
1
1
1
1
1
1
1
1
1
1
1
1
1
1
1
1
1
1
1
1
1
1
1
1
1
1
1
1
1
1
1
1
1
1
1
1
1
1
1
1
1
1
1
1
1
1
1
1
1
1
1
1
1
1
1
1
1
1
1
1
1.00001
1.00042
1.01004
1.13539
1.84642
2.85702
3.32267
3.59834
3.6805
3.66125
3.63249
3.57922
3.52193
3.48797
3.49089
3.45716
3.3885
3.354
3.32633
3.28097
3.2549
1
1
1
1
1
1
1
1
1
1
1
1
1
1
1
1
1
1
1
1
1
1
1
1
1
1
1
1
1
1
1
1
1
1
1
1
1
1
1
1
1
1
1
1
1
1
1
1
1
1
1
1
1
1
1
1
1
1
1
1
1
1
1
1
1
1
1
1
1
1.00013
1.00576
1.10698
1.67088
2.44086
3.13078
3.62891
3.70767
3.64553
3.56971
3.54496
3.55714
3.54396
3.46255
3.41624
3.39947
3.36273
3.31526
3.30473
1
1
1
1
1
1
1
1
1
1
1
1
1
1
1
1
1
1
1
1
1
1
1
1
1
1
1
1
1
1
1
1
1
1
1
1
1
1
1
1
1
1
1
1
1
1
1
1
1
1
1
1
1
1
1
1
1
1
1
1
1
1
1
1
1
1
1
1
1
1
1.00007
1.00399
1.0661
1.35448
1.96948
3.07705
3.63262
3.5544
3.55672
3.58905
3.61394
3.54107
3.46632
3.46017
3.45029
3.39336
3.35581
3.34952
1
1
1
1
1
1
1
1
1
1
1
1
1
1
1
1
1
1
1
1
1
1
1
1
1
1
1
1
1
1
1
1
1
1
1
1
1
1
1
1
1
1
1
1
1
1
1
1
1
1
1
1
1
1
1
1
1
1
1
1
1
1
1
1
1
1
1
1
1
1
1
1.00003
1.00133
1.01969
1.15252
1.77412
2.94011
3.35263
3.49795
3.61361
3.61779
3.54408
3.51199
3.52072
3.47587
3.41531
3.39497
3.38625
1
1
1
1
1
1
1
1
1
1
1
1
1
1
1
1
1
1
1
1
1
1
1
1
1
1
1
1
1
1
1
1
1
1
1
1
1
1
1
1
1
1
1
1
1
1
1
1
1
1
1
1
1
1
1
1
1
1
1
1
1
1
1
1
1
1
1
1
1
1
1
1
1
1.00022
1.00637
1.09349
1.63003
2.65668
3.1929
3.49541
3.59576
3.60358
3.58997
3.5368
3.47431
3.44176
3.44464
3.4118
1
1
1
1
1
1
1
1
1
1
1
1
1
1
1
1
1
1
1
1
1
1
1
1
1
1
1
1
1
1
1
1
1
1
1
1
1
1
1
1
1
1
1
1
1
1
1
1
1
1
1
1
1
1
1
1
1
1
1
1
1
1
1
1
1
1
1
1
1
1
1
1
1
1
1.00007
1.0033
1.06605
1.48996
2.26562
2.92061
3.49202
3.64163
3.60298
3.51475
3.4892
3.49621
3.49599
3.42151
1
1
1
1
1
1
1
1
1
1
1
1
1
1
1
1
1
1
1
1
1
1
1
1
1
1
1
1
1
1
1
1
1
1
1
1
1
1
1
1
1
1
1
1
1
1
1
1
1
1
1
1
1
1
1
1
1
1
1
1
1
1
1
1
1
1
1
1
1
1
1
1
1
1
1
1.00003
1.00202
1.038
1.25554
1.77616
2.73188
3.54155
3.50329
3.48214
3.52309
3.55752
3.50824
3.4229
1
1
1
1
1
1
1
1
1
1
1
1
1
1
1
1
1
1
1
1
1
1
1
1
1
1
1
1
1
1
1
1
1
1
1
1
1
1
1
1
1
1
1
1
1
1
1
1
1
1
1
1
1
1
1
1
1
1
1
1
1
1
1
1
1
1
1
1
1
1
1
1
1
1
1
1
1.00001
1.00062
1.01094
1.09889
1.53134
2.59583
3.25033
3.40274
3.51752
3.55744
3.51056
3.44303
1
1
1
1
1
1
1
1
1
1
1
1
1
1
1
1
1
1
1
1
1
1
1
1
1
1
1
1
1
1
1
1
1
1
1
1
1
1
1
1
1
1
1
1
1
1
1
1
1
1
1
1
1
1
1
1
1
1
1
1
1
1
1
1
1
1
1
1
1
1
1
1
1
1
1
1
1
1
1.0001
1.00306
1.05106
1.39137
2.34266
3.03722
3.35932
3.51164
3.53373
3.53343
1
1
1
1
1
1
1
1
1
1
1
1
1
1
1
1
1
1
1
1
1
1
1
1
1
1
1
1
1
1
1
1
1
1
1
1
1
1
1
1
1
1
1
1
1
1
1
1
1
1
1
1
1
1
1
1
1
1
1
1
1
1
1
1
1
1
1
1
1
1
1
1
1
1
1
1
1
1
1
1.00003
1.00134
1.03107
1.30132
2.0418
2.69794
3.28792
3.54948
3.55876
1
1
1
1
1
1
1
1
1
1
1
1
1
1
1
1
1
1
1
1
1
1
1
1
1
1
1
1
1
1
1
1
1
1
1
1
1
1
1
1
1
1
1
1
1
1
1
1
1
1
1
1
1
1
1
1
1
1
1
1
1
1
1
1
1
1
1
1
1
1
1
1
1
1
1
1
1
1
1
1
1.00001
1.00072
1.01851
1.16501
1.58972
2.3437
3.31517
3.49123
1
1
1
1
1
1
1
1
1
1
1
1
1
1
1
1
1
1
1
1
1
1
1
1
1
1
1
1
1
1
1
1
1
1
1
1
1
1
1
1
1
1
1
1
1
1
1
1
1
1
1
1
1
1
1
1
1
1
1
1
1
1
1
1
1
1
1
1
1
1
1
1
1
1
1
1
1
1
1
1
1
1
1.00025
1.00539
1.05554
1.32555
2.16146
3.09361
1
1
1
1
1
1
1
1
1
1
1
1
1
1
1
1
1
1
1
1
1
1
1
1
1
1
1
1
1
1
1
1
1
1
1
1
1
1
1
1
1
1
1
1
1
1
1
1
1
1
1
1
1
1
1
1
1
1
1
1
1
1
1
1
1
1
1
1
1
1
1
1
1
1
1
1
1
1
1
1
1
1
1
1.00003
1.00117
1.02271
1.20643
1.92668
1
1
1
1
1
1
1
1
1
1
1
1
1
1
1
1
1
1
1
1
1
1
1
1
1
1
1
1
1
1
1
1
1
1
1
1
1
1
1
1
1
1
1
1
1
1
1
1
1
1
1
1
1
1
1
1
1
1
1
1
1
1
1
1
1
1
1
1
1
1
1
1
1
1
1
1
1
1
1
1
1
1
1
1
1.00001
1.0004
1.01121
1.14348
1
1
1
1
1
1
1
1
1
1
1
1
1
1
1
1
1
1
1
1
1
1
1
1
1
1
1
1
1
1
1
1
1
1
1
1
1
1
1
1
1
1
1
1
1
1
1
1
1
1
1
1
1
1
1
1
1
1
1
1
1
1
1
1
1
1
1
1
1
1
1
1
1
1
1
1
1
1
1
1
1
1
1
1
1
1
1.00018
1.00656
1
1
1
1
1
1
1
1
1
1
1
1
1
1
1
1
1
1
1
1
1
1
1
1
1
1
1
1
1
1
1
1
1
1
1
1
1
1
1
1
1
1
1
1
1
1
1
1
1
1
1
1
1
1
1
1
1
1
1
1
1
1
1
1
1
1
1
1
1
1
1
1
1
1
1
1
1
1
1
1
1
1
1
1
1
1
1
1.00007
1
1
1
1
1
1
1
1
1
1
1
1
1
1
1
1
1
1
1
1
1
1
1
1
1
1
1
1
1
1
1
1
1
1
1
1
1
1
1
1
1
1
1
1
1
1
1
1
1
1
1
1
1
1
1
1
1
1
1
1
1
1
1
1
1
1
1
1
1
1
1
1
1
1
1
1
1
1
1
1
1
1
1
1
1
1
1
1
1
1
1
1
1
1
1
1
1
1
1
1
1
1
1
1
1
1
1
1
1
1
1
1
1
1
1
1
1
1
1
1
1
1
1
1
1
1
1
1
1
1
1
1
1
1
1
1
1
1
1
1
1
1
1
1
1
1
1
1
1
1
1
1
1
1
1
1
1
1
1
1
1
1
1
1
1
1
1
1
1
1
1
1
1
1
1
1
1
1
1
1
1
1
1
1
1
1
1
1
1
1
1
1
1
1
1
1
1
1
1
1
1
1
1
1
1
1
1
1
1
1
1
1
1
1
1
1
1
1
1
1
1
1
1
1
1
1
1
1
1
1
1
1
1
1
1
1
1
1
1
1
1
1
1
1
1
1
1
1
1
1
1
1
1
1
1
1
1
1
1
1
1
1
1
1
1
1
1
1
1
1
1
1
1
1
1
1
1
1
1
1
1
1
1
1
1
1
1
1
1
1
1
1
1
1
1
1
1
1
1
1
1
1
1
1
1
1
1
1
1
1
1
1
1
1
1
1
1
1
1
1
1
1
1
1
1
1
1
1
1
1
1
1
1
1
1
1
1
1
1
1
1
1
1
1
1
1
1
1
1
1
1
1
1
1
1
1
1
1
1
1
1
1
1
1
1
1
1
1
1
1
1
1
1
1
1
1
1
1
1
1
1
1
1
1
1
1
1
1
1
1
1
1
1
1
1
1
1
1
1
1
1
1
1
1
1
1
1
1
1
1
1
1
1
1
1
1
1
1
1
1
1
1
1
1
1
1
1
1
1
1
1
1
1
1
1
1
1
1
1
1
1
1
1
1
1
1
1
1
1
1
1
1
1
1
1
1
1
1
1
1
1
1
1
1
1
1
1
1
1
1
1
1
1
1
1
1
1
1
1
1
1
1
1
1
1
1
1
1
1
1
1
1
1
1
1
1
1
1
1
1
1
1
1
1
1
1
1
1
1
1
1
1
1
1
1
1
1
1
1
1
1
1
1
1
1
1
1
1
1
1
1
1
1
1
1
1
1
1
1
1
1
1
1
1
1
1
1
1
1
1
1
1
1
1
1
1
1
1
1
1
1
1
1
1
1
1
1
1
1
1
1
1
1
1
1
1
1
1
1
1
1
1
1
1
1
1
1
1
1
1
1
1
1
1
1
1
1
1
1
1
1
1
1
1
1
1
1
1
1
1
1
1
1
1
1
1
2.89703
2.87675
2.85129
2.80923
2.75701
2.69682
2.65432
2.63774
2.62517
2.61434
2.59605
2.57539
2.55587
2.53898
2.52698
2.51291
2.4937
2.45759
2.40111
2.35697
2.33487
2.32774
2.32251
2.31707
2.30365
2.28174
2.24322
2.19511
2.19164
2.21505
2.93438
2.90458
2.86461
2.81758
2.76045
2.71462
2.69545
2.67821
2.66246
2.64227
2.62141
2.60443
2.59037
2.58083
2.56994
2.55119
2.51121
2.45341
2.40059
2.37482
2.37091
2.36879
2.36502
2.35672
2.34091
2.30779
2.25669
2.20824
2.19808
2.2115
2.96092
2.91782
2.87409
2.82289
2.77669
2.75551
2.73586
2.71589
2.68962
2.66556
2.65075
2.64001
2.63322
2.62489
2.60941
2.57029
2.50371
2.44826
2.41717
2.41206
2.41363
2.41178
2.4082
2.3944
2.36434
2.30823
2.26289
2.23684
2.22429
2.22553
2.97424
2.92886
2.88092
2.83781
2.81758
2.79704
2.77354
2.7441
2.71177
2.69605
2.69039
2.68457
2.67752
2.6646
2.63023
2.55948
2.49653
2.46449
2.45512
2.45744
2.45846
2.45537
2.44509
2.41952
2.3588
2.30594
2.28081
2.27237
2.26392
2.25737
2.98668
2.93792
2.89453
2.87625
2.85877
2.83348
2.80283
2.76648
2.74432
2.74129
2.73769
2.73081
2.71735
2.68555
2.61695
2.54674
2.51476
2.50293
2.5032
2.50452
2.50259
2.49405
2.47022
2.41598
2.34716
2.31958
2.31066
2.30765
2.30735
2.29884
2.99799
2.95133
2.93197
2.91784
2.89344
2.86292
2.82718
2.79951
2.79391
2.79212
2.78588
2.77127
2.73689
2.67236
2.5981
2.56498
2.55418
2.55087
2.55262
2.55017
2.54272
2.52152
2.46617
2.39774
2.35989
2.3497
2.34372
2.34596
2.34885
2.34276
3.01394
2.98841
2.97448
2.95227
2.92264
2.88984
2.86036
2.84984
2.84675
2.84069
2.82636
2.78893
2.72367
2.65259
2.61438
2.60578
2.60032
2.60052
2.59849
2.59177
2.5728
2.51885
2.44582
2.40419
2.39406
2.38568
2.38297
2.38934
2.38798
2.38212
3.04836
3.0316
3.01012
2.98309
2.95342
2.92497
2.90994
2.90375
2.8955
2.87928
2.8407
2.77495
2.70469
2.66677
2.6582
2.65245
2.6498
2.64708
2.63982
2.62306
2.57285
2.49576
2.44832
2.43912
2.43251
2.42565
2.42878
2.43161
2.42515
2.41434
3.08453
3.06735
3.04335
3.01763
2.99328
2.97421
2.96271
2.95012
2.92948
2.88907
2.82637
2.75686
2.71852
2.71094
2.70825
2.70262
2.69757
2.68935
2.67097
2.62388
2.54969
2.49415
2.4828
2.48145
2.4742
2.47224
2.47424
2.46838
2.45677
2.43597
3.11629
3.10107
3.07967
3.05857
3.04082
3.02457
3.00774
2.9825
2.93792
2.875
2.80848
2.76975
2.76146
2.76323
2.76127
2.75227
2.74182
2.71998
2.67243
2.60177
2.54388
2.52721
2.5271
2.52755
2.52144
2.51983
2.51308
2.49954
2.47731
2.44081
3.15351
3.1403
3.11921
3.09958
3.08253
3.06521
3.03955
2.99239
2.92757
2.86104
2.82117
2.81167
2.81233
2.81948
2.81104
2.7981
2.77255
2.72248
2.65368
2.59555
2.57421
2.5722
2.57936
2.57482
2.5692
2.55981
2.54327
2.51881
2.48528
2.43625
3.19798
3.18198
3.15591
3.13496
3.11864
3.09604
3.0498
2.9841
2.91613
2.87521
2.86387
2.86395
2.8727
2.8674
2.85485
2.82685
2.77426
2.70547
2.64796
2.62397
2.62075
2.63062
2.63032
2.6219
2.60886
2.58723
2.55889
2.52657
2.48696
2.4354
3.24623
3.21768
3.18491
3.16427
3.14475
3.1062
3.04514
2.97505
2.93262
2.91962
2.91831
2.9257
2.92068
2.90905
2.88111
2.82842
2.75847
2.70002
2.67514
2.67137
2.68175
2.68682
2.67795
2.6609
2.63255
2.59861
2.56537
2.53222
2.4925
2.4428
3.28891
3.24507
3.20753
3.18291
3.153
3.10619
3.04082
2.99518
2.97999
2.97593
2.97876
2.97233
2.96124
2.93451
2.88414
2.8138
2.75376
2.72765
2.72301
2.73318
2.7387
2.73065
2.71189
2.679
2.6409
2.60572
2.57549
2.54649
2.50591
2.45899
3.31642
3.26046
3.22482
3.1963
3.15972
3.10839
3.06359
3.04629
3.03806
3.03157
3.02279
3.01148
2.9847
2.93709
2.87022
2.81146
2.78439
2.77775
2.78635
2.78859
2.7776
2.75463
2.72133
2.68405
2.64865
2.62111
2.59914
2.5681
2.51838
2.47751
3.32997
3.27659
3.24089
3.20867
3.16762
3.12917
3.11247
3.10354
3.08868
3.07599
3.06139
3.03242
2.98559
2.92265
2.86918
2.84474
2.83493
2.84203
2.83991
2.82504
2.79689
2.76142
2.72503
2.69194
2.66799
2.65103
2.62793
2.5809
2.52884
2.5086
3.34283
3.29695
3.26104
3.2234
3.19053
3.17626
3.1689
3.15008
3.13076
3.11289
3.08014
3.03379
2.97429
2.92595
2.90416
2.89471
2.89556
2.89032
2.8741
2.84156
2.80371
2.76525
2.73515
2.71684
2.70223
2.68333
2.64037
2.58262
2.55374
2.55026
3.36123
3.32161
3.28462
3.25032
3.24021
3.23656
3.21999
3.18659
3.16082
3.12533
3.08072
3.02659
2.98261
2.96287
2.95487
2.94808
2.93839
2.92255
2.88948
2.84805
2.80874
2.78291
2.76846
2.75516
2.73677
2.69497
2.63514
2.59949
2.59545
2.59233
3.38714
3.36393
3.32407
3.30359
3.29917
3.29019
3.25095
3.2111
3.17082
3.12947
3.08176
3.04135
3.02215
3.0131
3.00242
2.9858
2.96774
2.93853
2.89546
2.85541
2.83414
2.82288
2.8109
2.79083
2.74842
2.68579
2.64611
2.64074
2.63847
2.6353
3.44486
3.42106
3.37134
3.35308
3.35073
3.31359
3.26721
3.22612
3.18529
3.13875
3.09916
3.08086
3.07074
3.05883
3.03783
3.01173
2.98493
2.94623
2.90535
2.8875
2.87814
2.86726
2.84402
2.8013
2.7373
2.69381
2.6866
2.68552
2.68287
2.68274
3.49958
3.43784
3.40441
3.39963
3.3872
3.32714
3.28296
3.24477
3.20281
3.15863
3.13861
3.1283
3.11752
3.09267
3.06474
3.02699
2.99703
2.96064
2.94335
2.93392
2.92113
2.89598
2.85173
2.79123
2.74268
2.7327
2.73309
2.73034
2.72829
2.72371
3.47794
3.44565
3.44829
3.4604
3.4058
3.33959
3.30201
3.26848
3.22575
3.20126
3.1901
3.17996
3.14971
3.11976
3.08047
3.038
3.01272
3.00207
2.99159
2.97309
2.94671
2.90026
2.84265
2.79365
2.77862
2.78094
2.77893
2.77456
2.76715
2.75105
3.43219
3.46266
3.50001
3.48968
3.40863
3.35189
3.33046
3.29989
3.26754
3.2554
3.24789
3.21363
3.17477
3.1396
3.09211
3.05848
3.05302
3.04675
3.02516
2.9962
2.95116
2.89251
2.84668
2.82617
2.82754
2.82699
2.82177
2.81097
2.79292
2.77254
3.30706
3.425
3.49758
3.48544
3.41347
3.3901
3.38745
3.34464
3.31399
3.30314
3.28248
3.23158
3.19627
3.1639
3.11432
3.1001
3.09802
3.07717
3.04199
2.99806
2.94381
2.89803
2.87976
2.87692
2.87498
2.86889
2.85622
2.83651
2.814
2.78579
2.83503
3.21143
3.42317
3.47131
3.47175
3.45405
3.40526
3.36579
3.35209
3.35346
3.30304
3.24872
3.22048
3.19097
3.15046
3.1438
3.13204
3.09425
3.04813
2.99699
2.945
2.92905
2.93159
2.9263
2.91906
2.90366
2.87642
2.85534
2.81946
2.78497
1.72002
2.46471
3.02791
3.42419
3.50334
3.44912
3.39873
3.40188
3.41553
3.39437
3.32211
3.27232
3.24863
3.2125
3.18304
3.17574
3.15402
3.11084
3.06209
3.00317
2.96551
2.97419
2.97509
2.96923
2.95619
2.92988
2.89796
2.85315
2.88372
3.14609
1.08063
1.40102
2.00018
2.91023
3.44254
3.37591
3.38415
3.42648
3.4473
3.40301
3.33114
3.30104
3.28428
3.24521
3.21638
3.20141
3.16551
3.1236
3.08353
3.03082
3.02339
3.02614
3.01572
3.00013
2.98497
2.9492
2.9543
3.12501
3.83223
5.07277
1.00197
1.02569
1.17763
1.72816
2.72952
3.21903
3.32568
3.41438
3.44067
3.39909
3.34298
3.35278
3.32967
3.28053
3.25596
3.23281
3.18051
3.13954
3.10706
3.07945
3.08281
3.07894
3.05582
3.02744
3.01142
3.10627
3.65516
4.8289
6.22396
6.96802
1.00001
1.00035
1.00783
1.09167
1.52739
2.48467
3.03511
3.29762
3.40901
3.41846
3.40035
3.36255
3.3232
3.30996
3.31705
3.28231
3.22066
3.18616
3.15633
3.1215
3.11148
3.10598
3.08416
3.13211
3.49875
4.57399
5.97096
7.04233
7.44225
7.46658
1
1
1.00009
1.00319
1.05367
1.39749
2.15649
2.75855
3.25422
3.43613
3.42187
3.34595
3.33082
3.34161
3.35436
3.30331
3.25432
3.23692
3.20841
3.16565
3.14053
3.15046
3.38126
4.31639
5.78364
7.12443
7.37794
7.42943
7.42271
7.36473
1
1
1
1.00003
1.0016
1.02974
1.22648
1.70299
2.43984
3.26465
3.37248
3.32626
3.36606
3.39077
3.36757
3.29456
3.26383
3.26061
3.23958
3.22942
3.33824
4.02772
5.51476
6.95858
7.87454
8.02408
7.87699
7.58064
7.32733
7.27126
1
1
1
1
1.00001
1.00052
1.00952
1.08448
1.40063
2.25774
3.0293
3.18841
3.32076
3.40512
3.38896
3.31097
3.29868
3.29849
3.3526
3.78659
5.04932
6.77844
7.90311
7.95987
7.95248
7.91947
7.81488
7.64223
7.43828
7.30602
1
1
1
1
1
1
1.00008
1.00231
1.03328
1.24766
2.02073
2.74379
3.13753
3.34956
3.37378
3.37254
3.4298
3.7177
4.60916
6.25215
7.73457
8.49
8.57219
8.41185
8.00971
7.76096
7.69648
7.62324
7.51082
7.37658
1
1
1
1
1
1
1
1.00002
1.00073
1.01499
1.184
1.77199
2.38013
2.97408
3.46048
4.02671
4.70738
5.88999
7.2116
7.93948
8.4152
8.33097
8.30376
8.23367
8.07706
7.88208
7.73935
7.61197
7.51914
7.44492
1
1
1
1
1
1
1
1
1
1.00029
1.00951
1.11234
1.44203
2.27517
4.00685
5.86373
7.70759
9.42106
10.2524
9.76612
8.94704
8.18182
8.03055
7.97356
7.95718
7.86871
7.72018
7.54858
7.45939
7.40516
)
;

boundaryField
{
    inlet
    {
        type            fixedValue;
        value           nonuniform 0();
    }
    outlet
    {
        type            zeroGradient;
    }
    bottom
    {
        type            zeroGradient;
    }
    top
    {
        type            zeroGradient;
    }
    obstacle
    {
        type            zeroGradient;
    }
    defaultFaces
    {
        type            empty;
    }
    procBoundary13to9
    {
        type            processor;
        value           nonuniform List<scalar> 
119
(
1
1
1
1
1
1
1
1
1
1
1
1
1
1
1
1
1
1
1
1
1
1
1
1
1
1
1
1
1
1
1
1
1
1
1
1
1
1
1
1
1
1
1
1
1
1
1
1
1
1.00002
1.00154
1.04421
1.33343
1.99583
3.24363
3.89843
3.81876
3.82276
3.83172
3.85387
3.79027
3.69593
3.65645
3.6526
3.60826
3.54842
3.52794
3.50965
3.44998
3.39904
3.35539
3.2868
3.25585
3.2398
3.20555
3.18627
3.16945
3.13974
3.09619
3.04776
2.99823
2.95401
2.919
2.90011
2.88658
2.87224
1
1
1
2.85642
2.83945
2.82081
2.79552
2.75136
2.69631
2.63378
2.59639
2.58463
2.57757
2.56653
2.54796
2.526
2.50513
2.48734
2.4721
2.45698
2.43769
2.40353
2.35242
2.31336
2.29235
2.2856
2.27924
2.26578
2.24496
2.21134
2.19192
2.20935
2.37003
)
;
    }
    procBoundary13to10
    {
        type            processor;
        value           nonuniform List<scalar> 3(2.405 2.24427 2.23872);
    }
    procBoundary13to12
    {
        type            processor;
        value           nonuniform List<scalar> 
34
(
1
1
1
1
1
1
1
1
1
1
1
1
1
1
1
1
1
1
1
1
1
1
1
1
1
1
1
1
1
1
1
1
1
1
)
;
    }
    procBoundary13to14
    {
        type            processor;
        value           nonuniform List<scalar> 
32
(
2.2533
2.2886
2.33128
2.36844
2.39374
2.39721
2.38664
2.37914
2.38667
2.40647
2.43062
2.46414
2.50503
2.54637
2.58818
2.63615
2.67904
2.70873
2.73157
2.74217
2.73347
2.84797
4.01529
6.31997
7.0495
7.33071
7.33548
7.28198
7.27196
7.28532
7.35837
7.33978
)
;
    }
}


// ************************************************************************* //
