/*--------------------------------*- C++ -*----------------------------------*\
  =========                 |
  \\      /  F ield         | OpenFOAM: The Open Source CFD Toolbox
   \\    /   O peration     | Website:  https://openfoam.org
    \\  /    A nd           | Version:  7
     \\/     M anipulation  |
\*---------------------------------------------------------------------------*/
FoamFile
{
    version     2.0;
    format      ascii;
    class       volVectorField;
    location    "1.4";
    object      U;
}
// * * * * * * * * * * * * * * * * * * * * * * * * * * * * * * * * * * * * * //

dimensions      [0 1 -1 0 0 0 0];

internalField   nonuniform List<vector> 
4040
(
(3 2.56188e-17 0)
(3 1.52351e-16 0)
(3 9.89295e-17 0)
(3 -6.38134e-17 0)
(3 -2.3468e-16 0)
(3 9.21173e-17 0)
(3 6.4377e-16 0)
(3 7.82343e-16 0)
(3 6.89038e-16 0)
(3 5.64128e-16 0)
(3 6.31654e-16 0)
(3 2.59919e-16 0)
(3 -4.46109e-16 0)
(3 -5.59533e-16 0)
(2.19954 0.0135457 0)
(0.798374 0.0188448 0)
(0.653313 0.0265832 0)
(0.58932 0.0307753 0)
(0.515198 0.0340674 0)
(0.438228 0.0368472 0)
(0.355951 0.0385169 0)
(0.267737 0.0418858 0)
(0.171401 0.0468673 0)
(0.0668909 0.0574508 0)
(3 2.14846e-16 0)
(3 5.42007e-16 0)
(3 -6.83577e-17 0)
(3 -4.71953e-16 0)
(3 -3.19077e-16 0)
(3 1.24822e-16 0)
(3 1.66162e-15 0)
(3 2.47203e-15 0)
(3 2.43394e-15 0)
(3 2.15216e-15 0)
(3 1.38612e-15 0)
(3 6.41875e-16 0)
(3 1.07243e-16 0)
(3 -5.62063e-16 0)
(2.23719 0.0649509 0)
(0.79315 0.0850824 0)
(0.633741 0.0842377 0)
(0.567188 0.0901157 0)
(0.494246 0.100031 0)
(0.419457 0.110452 0)
(0.340128 0.117416 0)
(0.256401 0.129232 0)
(0.165036 0.149842 0)
(0.0647897 0.182187 0)
(3 2.26662e-16 0)
(3 1.33674e-16 0)
(3 -4.10699e-16 0)
(3 -6.74089e-16 0)
(3 -1.96175e-16 0)
(3 5.43761e-16 0)
(3 1.49694e-15 0)
(3 1.31276e-15 0)
(3 1.6005e-15 0)
(3 1.27449e-15 0)
(3 4.15801e-16 0)
(3 -1.37639e-16 0)
(3 -1.79345e-16 0)
(3 -4.67083e-16 0)
(2.38052 0.115176 0)
(0.830233 0.155691 0)
(0.646323 0.148647 0)
(0.574379 0.157712 0)
(0.500149 0.170456 0)
(0.430181 0.184802 0)
(0.360774 0.192835 0)
(0.284768 0.20846 0)
(0.196682 0.24392 0)
(0.0971712 0.306279 0)
(3 -1.81453e-17 0)
(3 -1.39811e-16 0)
(3 1.71643e-16 0)
(3 2.04012e-16 0)
(3 8.80708e-16 0)
(3 7.64042e-16 0)
(3 5.29158e-16 0)
(3 2.43052e-16 0)
(3 -1.76062e-16 0)
(3 -1.81464e-16 0)
(3 -2.87426e-16 0)
(3 -3.62935e-16 0)
(3 -3.4395e-16 0)
(3 1.72448e-16 0)
(2.57029 0.147617 0)
(0.880287 0.228115 0)
(0.671143 0.216066 0)
(0.606221 0.226255 0)
(0.537628 0.237324 0)
(0.474396 0.250921 0)
(0.406295 0.258165 0)
(0.322272 0.296185 0)
(0.197626 0.363418 0)
(0.117007 0.477126 0)
(3 -7.33878e-17 0)
(3 5.68379e-16 0)
(3 9.02418e-16 0)
(3 9.66043e-16 0)
(3 1.19011e-15 0)
(3 6.54037e-16 0)
(3 -6.88764e-16 0)
(3 -9.11144e-16 0)
(3 -1.05128e-15 0)
(3 -5.70533e-16 0)
(3 -6.03282e-16 0)
(3 -1.66342e-16 0)
(3 4.39323e-17 0)
(3 6.75059e-16 0)
(2.81784 0.149936 0)
(0.974223 0.292302 0)
(0.724709 0.267053 0)
(0.669429 0.279457 0)
(0.602163 0.290356 0)
(0.540727 0.30649 0)
(0.467406 0.327493 0)
(0.391307 0.398233 0)
(0.306986 0.48756 0)
(0.292613 0.55887 0)
(3 1.6328e-17 0)
(3 1.13643e-16 0)
(3 1.76725e-16 0)
(3 -3.63402e-17 0)
(3 -8.6054e-16 0)
(3 -1.17383e-15 0)
(3 -1.99499e-15 0)
(3 -2.15687e-15 0)
(3 -2.29786e-15 0)
(3 -1.52404e-15 0)
(3 -1.07455e-15 0)
(3 -2.40349e-16 0)
(3 -6.3183e-18 0)
(3 2.29107e-16 0)
(3.00996 0.0295408 0)
(1.10778 0.330152 0)
(0.772578 0.301307 0)
(0.724514 0.335778 0)
(0.658 0.351108 0)
(0.596133 0.372419 0)
(0.522021 0.400918 0)
(0.467502 0.47417 0)
(0.423885 0.540489 0)
(0.383526 0.548131 0)
(3 -5.03868e-17 0)
(3 -5.20095e-16 0)
(3 -9.43924e-16 0)
(3 -1.24871e-15 0)
(3 -1.73598e-15 0)
(3 -1.69958e-15 0)
(3 -1.60618e-15 0)
(3 -1.75084e-15 0)
(3 -1.6825e-15 0)
(3 -1.70065e-15 0)
(3 -5.62072e-16 0)
(3 1.25184e-16 0)
(3 1.04028e-16 0)
(3 -8.07019e-16 0)
(3.00361 0.000984298 0)
(1.29244 0.352469 0)
(0.777513 0.357338 0)
(0.714586 0.397497 0)
(0.653269 0.415554 0)
(0.601536 0.439832 0)
(0.54805 0.467859 0)
(0.51562 0.527694 0)
(0.498195 0.590266 0)
(0.450794 0.610965 0)
(3 -3.09374e-17 0)
(3 2.09953e-17 0)
(3 -1.32191e-16 0)
(3 -2.66843e-16 0)
(3 -1.93834e-16 0)
(3 -1.78245e-16 0)
(3 3.99455e-19 0)
(3 1.0219e-16 0)
(3 -5.27305e-17 0)
(3 -4.95357e-16 0)
(3 -6.40432e-16 0)
(3 -1.1644e-16 0)
(3 -1.02908e-16 0)
(3 -6.44202e-16 0)
(3.00002 1.27689e-06 0)
(1.62994 0.417674 0)
(0.801443 0.430032 0)
(0.718816 0.460015 0)
(0.671181 0.474862 0)
(0.629065 0.495315 0)
(0.590587 0.516972 0)
(0.563826 0.563826 0)
(0.558773 0.625529 0)
(0.518412 0.670999 0)
(3 -7.49351e-17 0)
(3 -1.62793e-16 0)
(3 -2.94554e-17 0)
(3 -6.01202e-17 0)
(3 -1.8588e-16 0)
(3 -1.97116e-16 0)
(3 1.3345e-16 0)
(3 7.0022e-16 0)
(3 8.40944e-16 0)
(3 -8.50822e-17 0)
(3 -8.27411e-16 0)
(3 -8.30793e-16 0)
(3 -6.83883e-17 0)
(3 4.90419e-16 0)
(3 -3.36822e-08 0)
(2.20854 0.427933 0)
(0.90762 0.530415 0)
(0.784549 0.499224 0)
(0.742168 0.516796 0)
(0.698498 0.538905 0)
(0.66243 0.558599 0)
(0.632639 0.595388 0)
(0.625895 0.66095 0)
(0.610224 0.757606 0)
(3 -1.79415e-16 0)
(3 -2.41799e-16 0)
(3 -2.88986e-16 0)
(3 -3.99878e-16 0)
(3 -2.21926e-16 0)
(3 -1.2819e-16 0)
(3 -1.7278e-16 0)
(3 -4.14461e-16 0)
(3 -3.71593e-16 0)
(3 -3.92389e-16 0)
(3 -5.07389e-17 0)
(3 -6.11625e-16 0)
(3 -1.02542e-15 0)
(3 3.73196e-16 0)
(3 -2.64583e-08 0)
(2.93584 0.183477 0)
(1.13567 0.558701 0)
(0.889447 0.535578 0)
(0.846167 0.558028 0)
(0.798878 0.579337 0)
(0.759726 0.601736 0)
(0.725046 0.634101 0)
(0.715477 0.703174 0)
(0.7283 0.816377 0)
(3 -5.50559e-17 0)
(3 -2.68018e-16 0)
(3 -2.7204e-16 0)
(3 2.21913e-17 0)
(3 3.18524e-16 0)
(3 2.51295e-16 0)
(3 -2.96821e-16 0)
(3 -1.29021e-15 0)
(3 -1.10588e-15 0)
(3 7.21401e-18 0)
(3 3.76526e-16 0)
(3 2.80933e-16 0)
(3 -9.03373e-16 0)
(3 -2.41329e-16 0)
(3 -3.44759e-09 0)
(3.04314 0.00923692 0)
(1.37571 0.549919 0)
(0.912822 0.615196 0)
(0.861649 0.619492 0)
(0.837584 0.63695 0)
(0.822906 0.658753 0)
(0.808288 0.684229 0)
(0.811121 0.741724 0)
(0.847495 0.832323 0)
(3 1.24817e-16 0)
(3 -6.57493e-17 0)
(3 -5.76375e-16 0)
(3 -5.6288e-16 0)
(3 -7.95862e-16 0)
(3 -1.12895e-15 0)
(3 -1.54385e-15 0)
(3 -2.35873e-15 0)
(3 -1.75541e-15 0)
(3 -7.79193e-16 0)
(3 -8.07131e-16 0)
(3 -7.57906e-16 0)
(3 -4.57139e-16 0)
(3 -9.06134e-17 0)
(3 -6.80989e-11 0)
(3.00096 1.56742e-06 0)
(1.94302 0.577229 0)
(0.964616 0.683734 0)
(0.90568 0.648544 0)
(0.892738 0.657513 0)
(0.890827 0.679827 0)
(0.891295 0.710899 0)
(0.902829 0.764339 0)
(0.957898 0.837045 0)
(3 8.63177e-17 0)
(3 -9.44579e-17 0)
(3 -2.923e-16 0)
(3 -5.17845e-16 0)
(3 -7.4413e-16 0)
(3 -1.09373e-15 0)
(3 -1.4248e-15 0)
(3 -1.23268e-15 0)
(3 -2.08647e-15 0)
(3 -2.05705e-15 0)
(3 -1.9148e-15 0)
(3 -1.56192e-15 0)
(3 -7.40757e-16 0)
(3 7.90482e-16 0)
(3 -1.32816e-13 0)
(3 -5.52886e-08 0)
(2.87138 0.27135 0)
(1.18208 0.686612 0)
(0.991459 0.659106 0)
(0.975704 0.675307 0)
(0.968994 0.705453 0)
(0.970287 0.742232 0)
(0.986836 0.789832 0)
(1.04833 0.84258 0)
(3 -1.34245e-17 0)
(3 8.26573e-17 0)
(3 2.10978e-16 0)
(3 2.60375e-16 0)
(3 3.25925e-16 0)
(3 -1.86437e-16 0)
(3 -3.38966e-16 0)
(3 -4.29726e-16 0)
(3 -9.75823e-16 0)
(3 -1.07477e-15 0)
(3 -8.06932e-16 0)
(3 -4.70034e-16 0)
(3 -1.47256e-16 0)
(3 9.55471e-16 0)
(3 1.00398e-15 0)
(3 -6.77162e-08 0)
(3.05556 0.0139006 0)
(1.47857 0.649353 0)
(1.02502 0.726543 0)
(1.01041 0.729683 0)
(1.00359 0.753833 0)
(1.01694 0.785986 0)
(1.0499 0.813248 0)
(1.11783 0.850267 0)
(3 5.33252e-18 0)
(3 9.03585e-16 0)
(3 9.01998e-16 0)
(3 9.13696e-16 0)
(3 7.97618e-16 0)
(3 4.43469e-16 0)
(3 -1.40502e-16 0)
(3 -4.16688e-16 0)
(3 -3.25493e-16 0)
(3 -6.65951e-16 0)
(3 -4.4684e-16 0)
(3 1.27002e-16 0)
(3 1.19086e-16 0)
(3 4.88357e-16 0)
(3 1.40155e-15 0)
(3 -1.92523e-08 0)
(3.00136 7.55594e-05 0)
(2.20496 0.562052 0)
(1.12149 0.77608 0)
(1.04912 0.774646 0)
(1.0511 0.779406 0)
(1.06757 0.800911 0)
(1.10657 0.824691 0)
(1.17467 0.851339 0)
(3 8.48352e-17 0)
(3 1.3557e-16 0)
(3 7.8875e-17 0)
(3 -1.26358e-16 0)
(3 -6.39523e-17 0)
(3 -3.00447e-16 0)
(3 -6.22414e-16 0)
(3 -6.50606e-16 0)
(3 -6.92151e-17 0)
(3 -2.6697e-16 0)
(3 -7.01288e-16 0)
(3 -9.02981e-16 0)
(3 -8.56864e-16 0)
(3 -4.39928e-16 0)
(3 1.1279e-15 0)
(3 -1.55889e-09 0)
(3 -3.16628e-07 0)
(3.04314 0.116313 0)
(1.43235 0.769279 0)
(1.12075 0.783948 0)
(1.12711 0.788995 0)
(1.13435 0.813549 0)
(1.1683 0.830703 0)
(1.22934 0.84614 0)
(3 -6.91209e-17 0)
(3 -6.65578e-16 0)
(3 -4.34665e-16 0)
(3 -3.10083e-16 0)
(3 -5.59648e-16 0)
(3 -4.97559e-16 0)
(3 -2.53e-16 0)
(3 7.23963e-16 0)
(3 8.8344e-16 0)
(3 7.32411e-16 0)
(3 2.75338e-16 0)
(3 1.58322e-16 0)
(3 -9.73758e-17 0)
(3 -2.43959e-16 0)
(3 -8.46722e-17 0)
(3 -1.11409e-11 0)
(3 -5.70138e-07 0)
(3.01487 0.0019168 0)
(1.99494 0.698405 0)
(1.17385 0.848741 0)
(1.16136 0.844756 0)
(1.18972 0.846995 0)
(1.2237 0.853673 0)
(1.27834 0.860598 0)
(3 -4.31478e-17 0)
(3 1.59937e-17 0)
(3 3.57683e-16 0)
(3 2.83439e-16 0)
(3 4.56937e-16 0)
(3 8.87076e-16 0)
(3 1.34029e-15 0)
(3 1.97721e-15 0)
(3 2.18292e-15 0)
(3 1.39596e-15 0)
(3 1.03302e-15 0)
(3 1.19989e-16 0)
(3 -2.08098e-16 0)
(3 -6.28726e-16 0)
(3 -6.2461e-16 0)
(3 -2.62888e-14 0)
(3 -1.39594e-07 0)
(3.00009 1.56633e-05 0)
(2.96617 0.221665 0)
(1.46314 0.846202 0)
(1.2161 0.834557 0)
(1.25427 0.843189 0)
(1.28413 0.85358 0)
(1.33315 0.858857 0)
(3 2.30891e-16 0)
(3 4.2059e-16 0)
(3 3.52615e-16 0)
(3 -2.66372e-16 0)
(3 9.9267e-17 0)
(3 2.93788e-16 0)
(3 2.89198e-16 0)
(3 4.86773e-16 0)
(3 2.77047e-16 0)
(3 1.84767e-16 0)
(3 -2.38276e-16 0)
(3 -2.45836e-16 0)
(3 -3.675e-16 0)
(3 -3.25409e-16 0)
(3 -4.05491e-18 0)
(3 -2.3565e-16 0)
(3 -4.97778e-09 0)
(3 -6.30662e-07 0)
(3.02479 0.00672819 0)
(2.02902 0.737886 0)
(1.27479 0.89024 0)
(1.27278 0.884926 0)
(1.31375 0.884753 0)
(1.36124 0.885328 0)
(3 -1.79412e-16 0)
(3 -1.41145e-16 0)
(3 -6.4202e-16 0)
(3 -5.99088e-16 0)
(3 -6.61379e-16 0)
(3 -1.48061e-16 0)
(3 5.76357e-17 0)
(3 -2.17514e-16 0)
(3 -5.92259e-16 0)
(3 -6.39708e-16 0)
(3 -6.72166e-16 0)
(3 5.42294e-16 0)
(3 5.1504e-16 0)
(3 3.43708e-16 0)
(3 -7.72252e-17 0)
(3 -3.40611e-16 0)
(3 -2.11033e-11 0)
(3 -1.34301e-07 0)
(3.00024 0.000120376 0)
(2.94712 0.228439 0)
(1.58975 0.890488 0)
(1.30909 0.878513 0)
(1.35681 0.879417 0)
(1.39613 0.881654 0)
(3 -6.53221e-17 0)
(3 -2.9687e-16 0)
(3 -9.51655e-17 0)
(3 1.80172e-16 0)
(3 3.89056e-16 0)
(3 5.08498e-16 0)
(3 4.00123e-16 0)
(3 3.20369e-16 0)
(3 1.39149e-17 0)
(3 6.55764e-17 0)
(3 8.48202e-17 0)
(3 -3.39085e-16 0)
(3 -6.9552e-16 0)
(3 -8.84033e-16 0)
(3 -1.26446e-15 0)
(3 -1.40707e-15 0)
(3 -9.80802e-15 0)
(3 -9.59121e-09 0)
(3 9.22516e-08 0)
(3.01678 0.00971133 0)
(2.30885 0.698722 0)
(1.39707 0.929513 0)
(1.37947 0.920487 0)
(1.4217 0.909102 0)
(3 3.76622e-17 0)
(3 9.84737e-17 0)
(3 5.48359e-16 0)
(3 4.53238e-16 0)
(3 2.78102e-16 0)
(3 -3.03318e-16 0)
(3 -2.08522e-16 0)
(3 -1.2292e-17 0)
(3 -5.97733e-16 0)
(3 -5.14273e-16 0)
(3 -6.34605e-16 0)
(3 -1.10014e-15 0)
(3 -1.43529e-15 0)
(3 -1.51338e-15 0)
(3 -1.63121e-15 0)
(3 -2.01737e-15 0)
(3 -1.58135e-15 0)
(3 -2.04655e-10 0)
(3 -1.74308e-10 0)
(3.00013 0.000182592 0)
(3.00937 0.135706 0)
(1.81081 0.862136 0)
(1.41844 0.927515 0)
(1.4668 0.914079 0)
(3 4.54137e-17 0)
(3 5.81337e-16 0)
(3 3.66814e-16 0)
(3 2.07282e-16 0)
(3 -6.97763e-17 0)
(3 -4.32588e-16 0)
(3 -2.45245e-16 0)
(3 -2.17087e-16 0)
(3 -2.17701e-16 0)
(3 -3.80587e-16 0)
(3 -2.87611e-16 0)
(3 -2.26048e-16 0)
(3 4.03321e-17 0)
(3 1.23222e-16 0)
(3 2.26552e-16 0)
(3 4.06772e-16 0)
(3 2.4183e-16 0)
(3 -7.58496e-13 0)
(3 -4.20035e-11 0)
(3 2.09745e-07 0)
(3.00538 0.00633214 0)
(2.64489 0.493768 0)
(1.60783 0.961073 0)
(1.47958 0.940301 0)
(3 -4.33185e-17 0)
(3 8.2238e-17 0)
(3 -9.28296e-17 0)
(3 -1.68514e-17 0)
(3 1.12474e-16 0)
(3 7.14659e-17 0)
(3 2.00516e-16 0)
(3 7.55427e-16 0)
(3 8.95223e-16 0)
(3 6.82945e-16 0)
(3 6.95663e-16 0)
(3 8.1752e-16 0)
(3 7.57644e-16 0)
(3 6.44993e-16 0)
(3 8.46176e-16 0)
(3 1.02968e-15 0)
(3 8.23706e-16 0)
(3 -7.07852e-16 0)
(3 -3.2643e-12 0)
(3 3.83742e-11 0)
(3.00001 6.06277e-05 0)
(3.01562 0.0481551 0)
(2.18798 0.775686 0)
(1.55571 0.964176 0)
(3 7.10865e-17 0)
(3 -2.89056e-16 0)
(3 -5.206e-16 0)
(3 -1.646e-16 0)
(3 -2.08579e-16 0)
(3 -1.7323e-16 0)
(3 9.77409e-17 0)
(3 3.37663e-17 0)
(3 1.44509e-16 0)
(3 9.55185e-17 0)
(3 -1.23876e-16 0)
(3 -1.52346e-16 0)
(3 -6.04803e-16 0)
(3 -4.24039e-16 0)
(3 -3.35408e-16 0)
(3 -1.28126e-16 0)
(3 3.62129e-16 0)
(3 3.27634e-16 0)
(3 -7.98205e-14 0)
(3 -9.77522e-14 0)
(3 4.48612e-08 0)
(3.00055 0.00184429 0)
(2.91681 0.225247 0)
(1.91452 0.883688 0)
(3 1.78154e-18 0)
(3 -1.64889e-16 0)
(3 -2.17481e-16 0)
(3 -2.02462e-16 0)
(3 -3.52361e-16 0)
(3 -1.96714e-16 0)
(3 -3.40485e-16 0)
(3 -8.53231e-16 0)
(3 -5.09607e-16 0)
(3 -5.48903e-16 0)
(3 -6.78433e-16 0)
(3 -4.11235e-16 0)
(3 -2.89456e-16 0)
(3 -2.66318e-16 0)
(3 2.01042e-16 0)
(3 1.72014e-16 0)
(3 -1.15309e-16 0)
(3 5.75375e-16 0)
(3 -6.54201e-16 0)
(3 -5.40362e-14 0)
(3 9.74937e-12 0)
(3 6.59458e-06 0)
(3.00289 0.0142969 0)
(2.63962 0.476499 0)
(3 1.10055e-16 0)
(3 4.87134e-16 0)
(3 1.14645e-15 0)
(3 9.18749e-16 0)
(3 6.90031e-16 0)
(3 3.93927e-16 0)
(3 4.65707e-17 0)
(3 1.84836e-16 0)
(3 7.63322e-16 0)
(3 5.34935e-16 0)
(3 3.1297e-16 0)
(3 4.77997e-16 0)
(3 8.65895e-16 0)
(3 9.2194e-16 0)
(3 6.1881e-16 0)
(3 5.07328e-17 0)
(3 -4.86113e-16 0)
(3 -7.12833e-16 0)
(3 3.97806e-16 0)
(3 -7.58859e-15 0)
(3 -3.00338e-14 0)
(3 3.70228e-09 0)
(2.99998 0.000215193 0)
(2.99394 0.0509809 0)
(3 -1.1998e-17 0)
(3 1.98545e-16 0)
(3 4.08277e-16 0)
(3 3.53241e-16 0)
(3 3.6888e-16 0)
(3 5.43563e-16 0)
(3 6.40994e-16 0)
(3 7.9001e-16 0)
(3 4.24523e-16 0)
(3 2.31997e-16 0)
(3 5.70261e-16 0)
(3 1.3178e-15 0)
(3 1.4224e-15 0)
(3 7.10819e-16 0)
(3 4.50603e-16 0)
(3 1.2716e-16 0)
(3 -3.01873e-16 0)
(3 -3.44061e-16 0)
(3 4.8776e-16 0)
(3 3.20853e-16 0)
(3 -2.05681e-14 0)
(3 6.62798e-13 0)
(3 2.95727e-07 0)
(2.99995 0.00182323 0)
(3 -2.53666e-16 0)
(3 -4.46509e-16 0)
(3 -7.15444e-16 0)
(3 -5.87359e-16 0)
(3 -9.98662e-17 0)
(3 2.21979e-16 0)
(3 3.44808e-16 0)
(3 1.41572e-16 0)
(3 -3.58161e-16 0)
(3 -3.47797e-16 0)
(3 1.81154e-16 0)
(3 9.59751e-16 0)
(3 3.80193e-16 0)
(3 -3.12122e-16 0)
(3 -3.69827e-16 0)
(3 2.12061e-16 0)
(3 2.08963e-16 0)
(3 7.68137e-16 0)
(3 1.44892e-15 0)
(3 7.96983e-16 0)
(3 -4.03019e-15 0)
(3 -1.17166e-14 0)
(3 1.3879e-10 0)
(3 6.16923e-06 0)
(3 -9.73337e-18 0)
(3 -2.43715e-16 0)
(3 -1.66174e-16 0)
(3 2.38967e-16 0)
(3 2.15753e-16 0)
(3 -1.16703e-16 0)
(3 -2.48484e-16 0)
(3 -5.16382e-16 0)
(3 -2.69032e-16 0)
(3 -1.00793e-16 0)
(3 -4.11703e-16 0)
(3 -4.5918e-16 0)
(3 -2.49278e-16 0)
(3 3.90078e-16 0)
(3 4.29891e-16 0)
(3 -2.07023e-16 0)
(3 -1.4912e-16 0)
(3 2.15002e-16 0)
(3 -1.4207e-16 0)
(3 -4.95602e-16 0)
(3 -1.21367e-15 0)
(3 -5.6405e-15 0)
(3 6.09215e-15 0)
(3 4.97449e-09 0)
(3 -1.09581e-16 0)
(3 -7.46553e-17 0)
(3 1.09572e-16 0)
(3 1.09851e-16 0)
(3 -9.74448e-17 0)
(3 -1.58907e-16 0)
(3 -2.94923e-16 0)
(3 -4.72579e-16 0)
(3 -4.90844e-16 0)
(3 -3.54635e-16 0)
(3 -4.11083e-16 0)
(3 -2.49569e-16 0)
(3 7.09118e-16 0)
(3 1.23111e-15 0)
(3 1.0901e-15 0)
(3 2.40769e-16 0)
(3 -7.62485e-16 0)
(3 -1.93314e-15 0)
(3 -2.13141e-15 0)
(3 -1.7343e-15 0)
(3 -1.39001e-15 0)
(3 -2.29271e-15 0)
(3 -2.80823e-15 0)
(3 8.30713e-13 0)
(3 4.36149e-17 0)
(3 6.57626e-17 0)
(3 7.04566e-17 0)
(3 -2.51897e-16 0)
(3 -2.69857e-18 0)
(3 2.27697e-16 0)
(3 3.87055e-16 0)
(3 4.11989e-16 0)
(3 4.31405e-16 0)
(3 3.48274e-16 0)
(3 4.91128e-16 0)
(3 -3.42123e-17 0)
(3 -8.63244e-17 0)
(3 -6.92962e-16 0)
(3 -1.08586e-15 0)
(3 -9.81342e-16 0)
(3 -1.29901e-15 0)
(3 -1.60647e-15 0)
(3 -1.76183e-15 0)
(3 -1.31729e-15 0)
(3 -1.43084e-15 0)
(3 -1.88934e-15 0)
(3 -2.26496e-15 0)
(3 -2.26773e-16 0)
(3 1.37506e-17 0)
(3 -1.3203e-16 0)
(3 -2.76373e-16 0)
(3 -2.62101e-16 0)
(3 -1.46383e-16 0)
(3 -1.50397e-16 0)
(3 -4.29671e-16 0)
(3 -4.26252e-16 0)
(3 -2.02503e-16 0)
(3 -1.34664e-16 0)
(3 -2.3177e-16 0)
(3 -1.04331e-15 0)
(3 -1.53988e-15 0)
(3 -1.3594e-15 0)
(3 -1.23584e-15 0)
(3 -9.55081e-16 0)
(3 -1.2554e-15 0)
(3 -1.20332e-15 0)
(3 -6.39247e-16 0)
(3 -5.20414e-16 0)
(3 -1.89388e-15 0)
(3 -2.0713e-15 0)
(3 -1.48216e-15 0)
(3 -4.87259e-16 0)
(3 -4.9143e-17 0)
(3 -1.01906e-16 0)
(3 -3.60824e-16 0)
(3 -6.34537e-16 0)
(3 -7.38063e-16 0)
(3 -7.4675e-16 0)
(3 -1.64868e-15 0)
(3 -1.79913e-15 0)
(3 -2.05197e-15 0)
(3 -1.77203e-15 0)
(3 -1.21345e-15 0)
(3 -8.11282e-16 0)
(3 -1.10962e-15 0)
(3 -1.01043e-15 0)
(3 -1.03789e-15 0)
(3 -1.16585e-15 0)
(3 -1.41217e-15 0)
(3 -8.88261e-16 0)
(3 -7.75392e-17 0)
(3 -9.51911e-16 0)
(3 -1.32865e-15 0)
(3 -9.60956e-16 0)
(3 -4.84283e-16 0)
(3 -9.8295e-16 0)
(3 5.97023e-17 0)
(3 -3.10492e-17 0)
(3 -1.03288e-16 0)
(3 -7.71462e-17 0)
(3 -6.86239e-16 0)
(3 -1.02386e-15 0)
(3 -7.8615e-16 0)
(3 -5.20733e-16 0)
(3 -3.17934e-16 0)
(3 1.29619e-17 0)
(3 8.32699e-17 0)
(3 1.20745e-16 0)
(3 -2.00855e-16 0)
(3 -9.39331e-16 0)
(3 -1.65756e-15 0)
(3 -1.74468e-15 0)
(3 -1.0832e-15 0)
(3 -6.57304e-16 0)
(3 -9.24895e-16 0)
(3 -1.01401e-16 0)
(3 5.93011e-16 0)
(3 7.09885e-16 0)
(3 -8.10839e-16 0)
(3 -1.31006e-15 0)
(3 7.54217e-17 0)
(3 1.48431e-16 0)
(3 9.45097e-17 0)
(3 1.74273e-16 0)
(3 2.12556e-16 0)
(3 1.27279e-16 0)
(3 3.82191e-16 0)
(3 4.98645e-16 0)
(3 1.16667e-15 0)
(3 1.06039e-15 0)
(3 9.23209e-16 0)
(3 9.82805e-16 0)
(3 1.32208e-15 0)
(3 4.40796e-16 0)
(3 2.9263e-16 0)
(3 3.55937e-16 0)
(3 1.13204e-17 0)
(3 -5.27605e-16 0)
(3 -1.38221e-15 0)
(3 -4.16197e-16 0)
(3 4.07795e-16 0)
(3 4.00369e-16 0)
(3 2.60731e-16 0)
(3 -3.60974e-16 0)
(3 6.09993e-17 0)
(3 6.2609e-16 0)
(3 5.45746e-16 0)
(3 5.45018e-16 0)
(3 1.76964e-15 0)
(3 1.81446e-15 0)
(3 1.60091e-15 0)
(3 1.49788e-15 0)
(3 1.56478e-15 0)
(3 9.44924e-16 0)
(3 6.9858e-16 0)
(3 5.42932e-16 0)
(3 8.59854e-16 0)
(3 2.75079e-16 0)
(3 -1.71451e-16 0)
(3 -4.60473e-16 0)
(3 -1.02322e-15 0)
(3 -1.81794e-15 0)
(3 -1.76637e-15 0)
(3 -1.00827e-15 0)
(3 -6.92058e-16 0)
(3 1.19466e-16 0)
(3 1.26747e-15 0)
(3 9.26613e-16 0)
(3 3.19367e-17 0)
(3 4.29692e-16 0)
(3 4.58813e-16 0)
(3 4.91921e-16 0)
(3 7.07104e-16 0)
(3 9.09631e-16 0)
(3 9.91059e-16 0)
(3 4.9513e-16 0)
(3 2.57275e-16 0)
(3 3.5781e-16 0)
(3 3.06165e-16 0)
(3 -9.46994e-18 0)
(3 8.52169e-17 0)
(3 -3.63896e-17 0)
(3 -6.0609e-16 0)
(3 -1.09696e-15 0)
(3 -1.5076e-15 0)
(3 -1.68431e-15 0)
(3 -1.14134e-15 0)
(3 -7.51022e-16 0)
(3 3.96561e-16 0)
(3 1.12122e-15 0)
(3 1.27957e-15 0)
(3 1.35156e-15 0)
(3 -5.99423e-18 0)
(3 -3.23946e-16 0)
(3 3.15671e-17 0)
(3 5.14103e-16 0)
(3 2.71127e-16 0)
(3 1.93489e-16 0)
(3 -6.13829e-16 0)
(3 -1.01986e-15 0)
(3 -1.72159e-15 0)
(3 -1.10896e-15 0)
(3 -7.06585e-17 0)
(3 2.94779e-16 0)
(3 -1.62971e-16 0)
(3 2.7124e-16 0)
(3 3.36228e-16 0)
(3 -3.95492e-16 0)
(3 -1.1228e-15 0)
(3 -1.274e-15 0)
(3 -1.07621e-15 0)
(3 -6.34077e-16 0)
(3 7.03748e-17 0)
(3 3.54045e-16 0)
(3 -1.54304e-16 0)
(3 3.16108e-16 0)
(3 7.25863e-17 0)
(3 -1.35562e-16 0)
(3 5.4775e-17 0)
(3 2.71529e-16 0)
(3 9.48592e-17 0)
(3 -2.82238e-16 0)
(3 -7.59109e-16 0)
(3 -7.07938e-16 0)
(3 -1.13542e-15 0)
(3 -9.3556e-16 0)
(3 -3.52956e-16 0)
(3 -3.33267e-16 0)
(3 -3.91986e-16 0)
(3 5.03581e-16 0)
(3 -1.95089e-16 0)
(3 -6.06027e-16 0)
(3 -7.80592e-16 0)
(3 -1.19332e-15 0)
(3 -1.05051e-15 0)
(3 -7.17093e-16 0)
(3 -4.67552e-16 0)
(3 -4.36383e-16 0)
(3 -4.82542e-16 0)
(3 -2.89534e-16 0)
(0.233711 0.300211 0)
(0.0396662 0.0684176 0)
(0.328662 0.376549 0)
(0.150683 0.16981 0)
(0.374543 0.528246 0)
(0.201035 0.414835 0)
(0.396041 0.67359 0)
(0.214066 0.753378 0)
(0.583121 0.882712 0)
(0.674364 1.10555 0)
(0.799175 0.941828 0)
(1.05995 1.07819 0)
(0.967141 0.934119 0)
(1.24485 1.02107 0)
(1.0907 0.91816 0)
(1.32795 0.971555 0)
(1.17352 0.899423 0)
(1.36612 0.930195 0)
(1.22859 0.881578 0)
(1.38438 0.895688 0)
(1.27364 0.870756 0)
(1.40366 0.876191 0)
(1.31574 0.856946 0)
(1.42592 0.857639 0)
(1.35517 0.863617 0)
(1.44733 0.859313 0)
(1.39843 0.859448 0)
(1.47489 0.85451 0)
(1.42075 0.881627 0)
(1.48787 0.873132 0)
(1.44936 0.878416 0)
(1.50953 0.870843 0)
(1.4664 0.900446 0)
(1.51975 0.890676 0)
(1.50145 0.906214 0)
(1.54696 0.894359 0)
(1.53249 0.931996 0)
(1.57108 0.92006 0)
(1.5567 0.957913 0)
(1.59619 0.937908 0)
(1.59998 0.966917 0)
(1.6241 0.953948 0)
(1.80738 0.943015 0)
(1.64387 0.977789 0)
(2.37404 0.670853 0)
(1.76164 0.982147 0)
(2.93695 0.139848 0)
(2.21064 0.787905 0)
(2.99904 0.00755272 0)
(2.8363 0.276943 0)
(2.99999 6.08907e-05 0)
(2.99517 0.0209291 0)
(3 7.63175e-08 0)
(2.99991 0.000345502 0)
(3 2.58086e-11 0)
(3 6.66373e-07 0)
(3 2.15849e-15 0)
(3 3.91941e-10 0)
(3 -1.27639e-15 0)
(3 3.02599e-14 0)
(3 -7.92221e-16 0)
(3 7.787e-16 0)
(3 6.73598e-16 0)
(3 8.53956e-16 0)
(3 7.0386e-16 0)
(3 6.48434e-16 0)
(3 9.28277e-16 0)
(3 5.1573e-16 0)
(3 4.26373e-16 0)
(3 -1.28758e-15 0)
(3 9.31128e-17 0)
(3 3.98541e-17 0)
(1.57337 1.19637 0)
(2.13053 1.09901 0)
(2.51923 1.10807 0)
(2.60845 0.712152 0)
(2.62018 0.339304 0)
(2.59471 0.0137608 0)
(2.53687 -0.195868 0)
(2.53743 -0.223522 0)
(2.51094 -0.193404 0)
(2.48816 -0.241439 0)
(2.50573 -0.224634 0)
(2.50817 -0.139363 0)
(2.50604 -0.108185 0)
(2.48899 -0.0875245 0)
(2.48558 -0.0675761 0)
(2.48773 -0.0542919 0)
(2.48519 -0.0476575 0)
(2.48982 -0.0434994 0)
(2.51623 -0.0282162 0)
(2.52663 -0.0148276 0)
(2.51828 -0.0143686 0)
(2.5127 -0.0152606 0)
(2.51095 -0.0137358 0)
(2.50791 -0.00794432 0)
(2.50049 0.00109217 0)
(2.49815 0.00390118 0)
(2.50195 0.00283398 0)
(2.51267 0.00184796 0)
(2.52644 0.000980991 0)
(2.5348 -0.00271392 0)
(2.53885 -0.00593673 0)
(2.54056 -0.0070526 0)
(2.54144 -0.00802558 0)
(2.53748 -0.0063991 0)
(2.53725 -0.00317998 0)
(2.54307 -0.00103544 0)
(2.54934 0.000369159 0)
(2.55699 0.00114533 0)
(2.56373 0.000968062 0)
(2.57312 0.000364929 0)
(2.57989 2.0179e-05 0)
(2.58095 -0.000868821 0)
(2.58132 -0.00164891 0)
(2.58805 -0.00071265 0)
(2.59636 0.000517041 0)
(2.60425 0.00153055 0)
(2.61072 0.00161488 0)
(2.62068 0.00039128 0)
(2.62695 -0.000138028 0)
(2.63334 -2.65201e-05 0)
(2.64057 0.00141735 0)
(2.64243 0.0023646 0)
(2.6468 0.00441908 0)
(2.64623 0.000386198 0)
(2.63103 -0.023621 0)
(2.57681 -0.0893618 0)
(2.48973 -0.181314 0)
(2.37776 -0.283124 0)
(2.29399 -0.335727 0)
(2.26328 -0.335679 0)
(2.23923 -0.307466 0)
(2.20327 -0.272967 0)
(2.18303 -0.239506 0)
(2.19114 -0.189097 0)
(2.21078 -0.118399 0)
(2.22116 -0.0726032 0)
(2.23863 -0.0474414 0)
(2.2689 -0.0116568 0)
(2.29798 0.0118645 0)
(2.33493 0.0161275 0)
(2.37032 0.0168398 0)
(2.39561 0.0241059 0)
(2.40835 0.0282413 0)
(2.42273 0.0280398 0)
(2.44478 0.0294618 0)
(2.46632 0.0300404 0)
(2.48582 0.0260599 0)
(2.51025 0.0215714 0)
(2.53463 0.0177481 0)
(2.56024 0.0182861 0)
(2.58238 0.0180053 0)
(2.60109 0.0152481 0)
(2.6178 0.0130257 0)
(2.62516 0.0127585 0)
(2.61698 0.0139716 0)
(2.62857 0.0152368 0)
(2.64543 0.0148441 0)
(2.66105 0.0133363 0)
(2.68335 0.0099803 0)
(2.70131 0.00786694 0)
(2.72307 0.00767395 0)
(2.74531 0.00820485 0)
(2.75735 0.0125739 0)
(2.748 0.0175255 0)
(1.80338 1.02878 0)
(2.29478 0.687504 0)
(2.53361 0.279076 0)
(2.66362 0.0969378 0)
(2.71518 -0.185956 0)
(2.69064 -0.480993 0)
(2.64963 -0.54861 0)
(2.69949 -0.502951 0)
(2.66988 -0.373005 0)
(2.62339 -0.299851 0)
(2.57736 -0.232936 0)
(2.54764 -0.152256 0)
(2.52307 -0.122455 0)
(2.50327 -0.122201 0)
(2.49781 -0.0914887 0)
(2.50563 -0.0535356 0)
(2.51142 -0.0343895 0)
(2.51933 -0.0237281 0)
(2.53423 -0.00405199 0)
(2.53033 0.0119029 0)
(2.51969 0.0107825 0)
(2.50774 -0.000361649 0)
(2.51071 -0.00505632 0)
(2.5103 -0.00193325 0)
(2.50546 0.00543467 0)
(2.50088 0.00593032 0)
(2.50407 0.00173843 0)
(2.51834 0.00125266 0)
(2.53617 0.0035701 0)
(2.54722 0.000380282 0)
(2.55081 -0.00351541 0)
(2.55536 -0.00708399 0)
(2.55903 -0.009079 0)
(2.55592 -0.00668166 0)
(2.55317 -0.00165634 0)
(2.5591 0.00190098 0)
(2.56585 0.00812549 0)
(2.57239 0.0145423 0)
(2.5802 0.015679 0)
(2.58787 0.0140916 0)
(2.59296 0.0102162 0)
(2.59199 0.00233531 0)
(2.59163 -0.00686652 0)
(2.59891 -0.00891958 0)
(2.60741 -0.00815014 0)
(2.61724 -0.0038873 0)
(2.62741 0.0025872 0)
(2.63631 0.00719495 0)
(2.64419 0.0108329 0)
(2.64995 0.0150935 0)
(2.65046 0.0229802 0)
(2.65191 0.0144572 0)
(2.64245 -0.00837638 0)
(2.60764 -0.0914462 0)
(2.54859 -0.239672 0)
(2.47647 -0.443182 0)
(2.42114 -0.610264 0)
(2.41351 -0.652574 0)
(2.43728 -0.654142 0)
(2.37187 -0.585496 0)
(2.31696 -0.482237 0)
(2.29323 -0.35197 0)
(2.28364 -0.219535 0)
(2.27948 -0.0980387 0)
(2.28607 -0.00763682 0)
(2.28304 0.0445002 0)
(2.28662 0.0544014 0)
(2.29811 0.0631212 0)
(2.32505 0.0716746 0)
(2.36181 0.0633364 0)
(2.38829 0.0602308 0)
(2.41152 0.0610881 0)
(2.43177 0.057417 0)
(2.44855 0.0498394 0)
(2.46713 0.0459505 0)
(2.48691 0.0395622 0)
(2.50342 0.0305047 0)
(2.52421 0.0161099 0)
(2.54616 0.00410214 0)
(2.56959 0.00289385 0)
(2.59359 0.0014992 0)
(2.61559 -0.00261267 0)
(2.6357 -0.00751432 0)
(2.64956 -0.00989732 0)
(2.64464 -0.00320205 0)
(2.64316 0.0105075 0)
(2.66111 0.0175483 0)
(2.67958 0.0229794 0)
(2.69915 0.0304143 0)
(2.719 0.0307875 0)
(2.73986 0.0255551 0)
(2.75896 0.0174129 0)
(2.77208 0.0120914 0)
(2.77482 0.0303721 0)
(1.73459 0.959545 0)
(2.01602 0.864975 0)
(2.31326 0.582611 0)
(2.54656 0.262572 0)
(2.60378 0.165522 0)
(2.64109 -0.0304514 0)
(2.66819 -0.14623 0)
(2.70485 -0.13472 0)
(2.71601 -0.250655 0)
(2.70766 -0.310047 0)
(2.70785 -0.336335 0)
(2.68843 -0.313442 0)
(2.65365 -0.289958 0)
(2.6326 -0.267676 0)
(2.60378 -0.20815 0)
(2.59028 -0.134015 0)
(2.58788 -0.0939064 0)
(2.58984 -0.0815659 0)
(2.58179 -0.0466549 0)
(2.57125 -0.00920288 0)
(2.56414 -0.00420379 0)
(2.56174 -0.00610746 0)
(2.55605 -0.0110033 0)
(2.55116 -0.00537779 0)
(2.53908 0.000558579 0)
(2.53288 -0.00368689 0)
(2.53859 -0.0185994 0)
(2.54717 -0.0270566 0)
(2.56322 -0.0242668 0)
(2.57378 -0.0154231 0)
(2.57837 -0.0105461 0)
(2.58126 -0.0101472 0)
(2.58234 -0.00787625 0)
(2.58117 -0.00131831 0)
(2.58385 0.00263909 0)
(2.58778 0.00223067 0)
(2.59326 -0.00146243 0)
(2.59878 -0.00603076 0)
(2.60742 -0.00672829 0)
(2.61607 -0.00412006 0)
(2.62096 -0.000624589 0)
(2.61802 0.000229976 0)
(2.61552 -0.00203233 0)
(2.62305 -0.00326138 0)
(2.63188 -0.00422793 0)
(2.64302 -0.00376044 0)
(2.65498 -0.00159155 0)
(2.66591 0.00128083 0)
(2.67495 0.00945163 0)
(2.67765 0.0119731 0)
(2.66693 -0.00700144 0)
(2.63963 -0.0632108 0)
(2.56903 -0.201386 0)
(2.50766 -0.364655 0)
(2.39945 -0.585949 0)
(2.39637 -0.63643 0)
(2.40313 -0.650806 0)
(2.40303 -0.689431 0)
(2.41341 -0.704195 0)
(2.41938 -0.6972 0)
(2.43203 -0.671442 0)
(2.44304 -0.618818 0)
(2.45435 -0.549563 0)
(2.46207 -0.457835 0)
(2.46242 -0.348467 0)
(2.46518 -0.250415 0)
(2.45521 -0.169046 0)
(2.43559 -0.0958738 0)
(2.42595 -0.0347556 0)
(2.42654 0.00224728 0)
(2.4323 0.0246879 0)
(2.44274 0.0447981 0)
(2.47217 0.0643257 0)
(2.49123 0.0812532 0)
(2.50548 0.0891609 0)
(2.51826 0.0896069 0)
(2.5303 0.0867769 0)
(2.54177 0.0826756 0)
(2.55918 0.0691708 0)
(2.58226 0.0579507 0)
(2.60657 0.0510571 0)
(2.63122 0.0457321 0)
(2.65333 0.0427569 0)
(2.66787 0.0424569 0)
(2.67212 0.0418233 0)
(2.67053 0.0541887 0)
(2.67447 0.0690171 0)
(2.68906 0.0751317 0)
(2.71061 0.0753453 0)
(2.73048 0.0718097 0)
(2.74866 0.0630998 0)
(2.7623 0.055833 0)
(2.77384 0.0521822 0)
(2.7894 0.0578606 0)
(1.63487 0.959147 0)
(1.9213 0.83053 0)
(2.18164 0.602298 0)
(2.30949 0.515572 0)
(2.40294 0.411335 0)
(2.55962 0.157967 0)
(2.64156 -0.064563 0)
(2.67494 -0.104019 0)
(2.69359 -0.202461 0)
(2.72153 -0.347786 0)
(2.7571 -0.383408 0)
(2.77236 -0.376356 0)
(2.75814 -0.368003 0)
(2.73619 -0.359176 0)
(2.69194 -0.305035 0)
(2.67633 -0.24328 0)
(2.67306 -0.21426 0)
(2.66908 -0.192768 0)
(2.65452 -0.143641 0)
(2.64654 -0.0933076 0)
(2.64222 -0.0804036 0)
(2.63904 -0.0871115 0)
(2.61768 -0.0646527 0)
(2.58963 -0.023748 0)
(2.57914 0.0126668 0)
(2.57825 0.0270262 0)
(2.5847 0.0210492 0)
(2.58813 0.017585 0)
(2.59416 0.0135736 0)
(2.59952 0.00820939 0)
(2.60645 -0.00431159 0)
(2.61047 -0.0210359 0)
(2.60956 -0.0280589 0)
(2.61112 -0.0230264 0)
(2.61572 -0.0152939 0)
(2.6195 -0.00507683 0)
(2.62537 0.000716645 0)
(2.63133 0.0019748 0)
(2.63471 0.00227788 0)
(2.64089 0.00399604 0)
(2.64616 0.00536914 0)
(2.64644 0.00379106 0)
(2.64462 0.00306098 0)
(2.65271 0.000749151 0)
(2.66187 4.19306e-05 0)
(2.67266 0.00164618 0)
(2.68522 0.00641439 0)
(2.69293 0.00774612 0)
(2.69091 -0.00646195 0)
(2.67652 -0.0541695 0)
(2.62511 -0.160041 0)
(2.55804 -0.304416 0)
(2.41887 -0.560071 0)
(2.40144 -0.602269 0)
(2.4035 -0.626864 0)
(2.38412 -0.669078 0)
(2.38084 -0.689062 0)
(2.39804 -0.688468 0)
(2.4189 -0.677973 0)
(2.44437 -0.66402 0)
(2.46396 -0.658591 0)
(2.48356 -0.663474 0)
(2.49433 -0.657726 0)
(2.50153 -0.630031 0)
(2.51029 -0.585236 0)
(2.51724 -0.528141 0)
(2.51253 -0.443256 0)
(2.50078 -0.347351 0)
(2.49206 -0.253058 0)
(2.48927 -0.17238 0)
(2.49004 -0.111545 0)
(2.50057 -0.0754821 0)
(2.51833 -0.0359602 0)
(2.53392 0.0114132 0)
(2.5427 0.0497676 0)
(2.54501 0.0719615 0)
(2.54674 0.0869407 0)
(2.55272 0.101376 0)
(2.56714 0.101567 0)
(2.58622 0.0990407 0)
(2.60955 0.0970337 0)
(2.63484 0.0914603 0)
(2.66023 0.0852574 0)
(2.68198 0.0765853 0)
(2.69498 0.0615549 0)
(2.70294 0.0582411 0)
(2.709 0.0687895 0)
(2.71382 0.0755212 0)
(2.72788 0.0687155 0)
(2.74593 0.0606023 0)
(2.76101 0.0485992 0)
(2.77252 0.0371724 0)
(2.78436 0.0337539 0)
(2.80244 0.0408207 0)
(1.59435 0.915165 0)
(1.82664 0.831787 0)
(2.0447 0.680699 0)
(2.17396 0.599266 0)
(2.30791 0.479534 0)
(2.4522 0.27474 0)
(2.52192 0.177195 0)
(2.54788 0.145141 0)
(2.61946 0.00671763 0)
(2.65778 -0.149451 0)
(2.68944 -0.187627 0)
(2.70255 -0.19061 0)
(2.72791 -0.241541 0)
(2.74325 -0.281471 0)
(2.75122 -0.291395 0)
(2.75107 -0.293518 0)
(2.74051 -0.30066 0)
(2.7217 -0.290503 0)
(2.70841 -0.244654 0)
(2.70699 -0.196106 0)
(2.70631 -0.172322 0)
(2.69587 -0.169195 0)
(2.67391 -0.139948 0)
(2.63518 -0.0756325 0)
(2.62698 -0.037014 0)
(2.62765 -0.0227158 0)
(2.62172 -0.00800253 0)
(2.61454 -0.00292525 0)
(2.61174 0.00751399 0)
(2.61124 0.0145308 0)
(2.61879 0.010912 0)
(2.6269 0.00174682 0)
(2.63019 -0.00445596 0)
(2.63191 -0.00506634 0)
(2.63727 -0.00652398 0)
(2.64424 -0.00725499 0)
(2.65238 -0.00853534 0)
(2.65458 -0.0101916 0)
(2.65583 -0.0110814 0)
(2.65822 -0.00970352 0)
(2.66157 -0.00611823 0)
(2.66441 -0.00353809 0)
(2.66778 -0.000640269 0)
(2.67543 0.00419364 0)
(2.68385 0.00905501 0)
(2.69088 0.0129423 0)
(2.69844 0.00636666 0)