/*--------------------------------*- C++ -*----------------------------------*\
  =========                 |
  \\      /  F ield         | OpenFOAM: The Open Source CFD Toolbox
   \\    /   O peration     | Website:  https://openfoam.org
    \\  /    A nd           | Version:  7
     \\/     M anipulation  |
\*---------------------------------------------------------------------------*/
FoamFile
{
    version     2.0;
    format      ascii;
    class       volVectorField;
    location    "0.7";
    object      U;
}
// * * * * * * * * * * * * * * * * * * * * * * * * * * * * * * * * * * * * * //

dimensions      [0 1 -1 0 0 0 0];

internalField   nonuniform List<vector> 
4128
(
(3 7.52975e-17 0)
(3 2.74599e-16 0)
(3 4.27258e-16 0)
(3 7.10369e-16 0)
(3 3.67497e-16 0)
(3 -2.22905e-16 0)
(3 -6.81131e-16 0)
(3 -1.46356e-15 0)
(3 -2.17208e-16 0)
(3 4.16815e-16 0)
(3 6.40683e-16 0)
(3 1.21342e-15 0)
(3 1.67024e-15 0)
(3 1.08994e-15 0)
(3 9.85614e-16 0)
(3 4.60145e-16 0)
(3 -7.23634e-17 0)
(3 6.06438e-16 0)
(1.23647 0.0294512 0)
(0.667002 0.0304085 0)
(0.562907 0.0479377 0)
(0.434595 0.061865 0)
(0.280296 0.0718685 0)
(0.117062 0.0923051 0)
(3 -7.95414e-17 0)
(3 5.80509e-16 0)
(3 5.6426e-16 0)
(3 1.76168e-16 0)
(3 -1.57536e-16 0)
(3 -6.25215e-16 0)
(3 -8.94135e-16 0)
(3 -1.81339e-15 0)
(3 -1.50668e-15 0)
(3 5.5332e-16 0)
(3 1.49862e-15 0)
(3 1.76243e-15 0)
(3 1.93541e-15 0)
(3 1.4427e-15 0)
(3 1.20808e-15 0)
(3 1.38247e-15 0)
(3 1.3753e-15 0)
(3 1.36924e-15 0)
(1.29896 0.141348 0)
(0.658262 0.131502 0)
(0.535612 0.157713 0)
(0.409692 0.198371 0)
(0.260842 0.238155 0)
(0.101176 0.295638 0)
(3 -7.23825e-17 0)
(3 -4.49142e-17 0)
(3 -3.34235e-16 0)
(3 -1.01491e-15 0)
(3 -7.59749e-16 0)
(3 -7.5821e-16 0)
(3 -8.89379e-16 0)
(3 -9.06794e-16 0)
(3 -5.96622e-16 0)
(3 2.52378e-16 0)
(3 1.28526e-15 0)
(3 2.32504e-15 0)
(3 2.14857e-15 0)
(3 2.12866e-15 0)
(3 2.1465e-15 0)
(3 2.10642e-15 0)
(3 1.72769e-15 0)
(3 1.47119e-15 0)
(1.49608 0.253096 0)
(0.69707 0.24168 0)
(0.559636 0.268331 0)
(0.451716 0.324896 0)
(0.3145 0.388733 0)
(0.152512 0.490271 0)
(3 9.56366e-17 0)
(3 -4.69336e-16 0)
(3 -5.56898e-16 0)
(3 -4.48368e-16 0)
(3 -4.09521e-16 0)
(3 -5.97725e-16 0)
(3 -8.89087e-16 0)
(3 -2.35367e-16 0)
(3 -2.38412e-17 0)
(3 -6.86468e-17 0)
(3 5.89865e-16 0)
(3 1.40645e-15 0)
(3 2.25826e-15 0)
(3 2.88824e-15 0)
(3 3.44471e-15 0)
(3 3.41548e-15 0)
(3 2.53968e-15 0)
(3 1.89686e-15 0)
(1.85337 0.347356 0)
(0.775559 0.365865 0)
(0.601811 0.372472 0)
(0.498347 0.450271 0)
(0.332311 0.575907 0)
(0.201155 0.794281 0)
(3 9.29924e-17 0)
(3 -1.21547e-16 0)
(3 1.22593e-16 0)
(3 3.77439e-16 0)
(3 -6.52183e-17 0)
(3 -4.34395e-16 0)
(3 -6.66553e-16 0)
(3 -7.40404e-16 0)
(3 -8.27294e-16 0)
(3 -8.21165e-16 0)
(3 8.12585e-17 0)
(3 9.11354e-16 0)
(3 1.57865e-15 0)
(3 1.49672e-15 0)
(3 2.26487e-15 0)
(3 2.84659e-15 0)
(3 3.50675e-15 0)
(3 -3.46907e-16 0)
(2.41702 0.356816 0)
(0.898017 0.519708 0)
(0.684599 0.485242 0)
(0.614492 0.580981 0)
(0.544713 0.758827 0)
(0.661067 1.06033 0)
(3 -7.88994e-18 0)
(3 3.48658e-16 0)
(3 5.63887e-16 0)
(3 1.19335e-16 0)
(3 -5.00754e-16 0)
(3 -5.34999e-16 0)
(3 -8.87058e-16 0)
(3 -1.17055e-15 0)
(3 -1.83394e-15 0)
(3 -1.12856e-15 0)
(3 -2.57744e-16 0)
(3 -4.0399e-16 0)
(3 -2.05409e-16 0)
(3 2.63616e-16 0)
(3 5.73413e-16 0)
(3 9.37933e-16 0)
(3 1.19905e-15 0)
(3 1.69098e-16 0)
(3.08087 0.0933523 0)
(1.19783 0.607475 0)
(0.864912 0.541858 0)
(0.798705 0.651752 0)
(0.797651 0.792712 0)
(1.02606 0.941292 0)
(3 5.4617e-17 0)
(3 1.75089e-16 0)
(3 2.64875e-16 0)
(3 -1.22886e-16 0)
(3 -1.20463e-15 0)
(3 -1.23997e-15 0)
(3 -1.2276e-15 0)
(3 -1.33009e-15 0)
(3 -1.2872e-15 0)
(3 -7.89674e-16 0)
(3 -8.03231e-16 0)
(3 -1.36446e-15 0)
(3 -1.41006e-15 0)
(3 -8.69618e-16 0)
(3 6.2341e-17 0)
(3 2.90455e-16 0)
(3 2.71768e-18 0)
(3 -2.8419e-16 0)
(3.01964 0.000609566 0)
(1.61082 0.599285 0)
(0.962161 0.697388 0)
(0.907963 0.757932 0)
(0.978184 0.838332 0)
(1.23028 0.914708 0)
(3 1.2443e-16 0)
(3 3.61658e-16 0)
(3 4.00345e-16 0)
(3 3.03384e-16 0)
(3 2.8103e-16 0)
(3 -1.89176e-16 0)
(3 -4.35597e-17 0)
(3 -2.70056e-16 0)
(3 4.93611e-17 0)
(3 -6.80002e-16 0)
(3 -7.43804e-16 0)
(3 -2.11886e-15 0)
(3 -3.22753e-15 0)
(3 -3.23837e-15 0)
(3 -2.68869e-15 0)
(3 -1.82717e-15 0)
(3 -9.83095e-16 0)
(3 -6.05457e-16 0)
(3.00021 -5.74127e-06 0)
(2.50794 0.443952 0)
(1.15927 0.785673 0)
(1.02355 0.780926 0)
(1.12812 0.825429 0)
(1.33463 0.863562 0)
(3 -9.10115e-17 0)
(3 -1.40574e-16 0)
(3 -3.51105e-16 0)
(3 -5.5211e-16 0)
(3 -6.07402e-16 0)
(3 -3.31779e-16 0)
(3 6.554e-17 0)
(3 3.79839e-18 0)
(3 6.42632e-17 0)
(3 -4.15784e-16 0)
(3 -1.45912e-15 0)
(3 -2.21001e-15 0)
(3 -2.01642e-15 0)
(3 -2.09443e-15 0)
(3 -2.52812e-15 0)
(3 -2.38687e-15 0)
(3 -2.06769e-15 0)
(3 -8.06573e-16 0)
(3.00002 -7.91556e-06 0)
(3.06732 0.0512227 0)
(1.58939 0.77573 0)
(1.1376 0.828718 0)
(1.25216 0.848043 0)
(1.39798 0.862757 0)
(3 -1.05348e-16 0)
(3 -5.15865e-16 0)
(3 -8.05445e-16 0)
(3 -1.04723e-15 0)
(3 -1.19677e-15 0)
(3 -1.15846e-15 0)
(3 -1.4703e-15 0)
(3 -1.38745e-15 0)
(3 -1.70951e-15 0)
(3 -2.41193e-15 0)
(3 -2.9177e-15 0)
(3 -1.93767e-15 0)
(3 -9.82943e-16 0)
(3 -4.53715e-16 0)
(3 -5.31429e-16 0)
(3 -1.17845e-15 0)
(3 -7.82171e-16 0)
(3 -4.13009e-16 0)
(3 -1.45133e-06 0)
(3.00531 0.00104288 0)
(2.44872 0.569251 0)
(1.3195 0.895372 0)
(1.32228 0.886735 0)
(1.45241 0.86968 0)
(3 -7.57742e-17 0)
(3 -1.84587e-16 0)
(3 -1.05008e-16 0)
(3 6.24275e-17 0)
(3 7.54495e-17 0)
(3 -6.10125e-16 0)
(3 -1.87043e-15 0)
(3 -2.10146e-15 0)
(3 -2.36906e-15 0)
(3 -3.25352e-15 0)
(3 -2.88936e-15 0)
(3 -1.36072e-15 0)
(3 -4.78354e-16 0)
(3 3.75382e-16 0)
(3 6.49295e-16 0)
(3 6.7753e-16 0)
(3 2.19681e-16 0)
(3 1.60733e-16 0)
(3 -1.1404e-07 0)
(3.00001 3.80928e-06 0)
(3.04452 0.0743803 0)
(1.81663 0.825223 0)
(1.38682 0.906718 0)
(1.50246 0.884079 0)
(3 -7.31895e-17 0)
(3 -2.76434e-16 0)
(3 -4.5744e-16 0)
(3 -3.78547e-16 0)
(3 -3.48637e-16 0)
(3 -4.69293e-16 0)
(3 -1.79845e-15 0)
(3 -2.41222e-15 0)
(3 -1.89959e-15 0)
(3 -1.50789e-15 0)
(3 -1.63069e-15 0)
(3 -1.8113e-15 0)
(3 -1.47403e-15 0)
(3 -7.54009e-16 0)
(3 -6.75454e-17 0)
(3 5.44525e-16 0)
(3 -1.34757e-16 0)
(3 1.09606e-16 0)
(3 -2.52546e-09 0)
(3 -1.68542e-09 0)
(3.00403 0.00293898 0)
(2.74123 0.433235 0)
(1.59733 0.941844 0)
(1.5293 0.918813 0)
(3 1.25028e-16 0)
(3 1.06747e-16 0)
(3 -3.1844e-17 0)
(3 8.29822e-17 0)
(3 -2.20619e-16 0)
(3 -3.49713e-16 0)
(3 -8.38216e-16 0)
(3 -1.80868e-15 0)
(3 -2.12734e-15 0)
(3 -1.58875e-15 0)
(3 -9.77177e-16 0)
(3 -7.46885e-16 0)
(3 -6.42049e-16 0)
(3 -7.35141e-16 0)
(3 -9.83858e-16 0)
(3 -9.1037e-16 0)
(3 -8.31146e-16 0)
(3 3.9603e-16 0)
(3 -8.23893e-12 0)
(3 -5.84517e-10 0)
(3.00001 1.60773e-05 0)
(3.0224 0.0367751 0)
(2.26223 0.714538 0)
(1.64248 0.944645 0)
(3 -4.07234e-17 0)
(3 1.84185e-16 0)
(3 1.22661e-17 0)
(3 -1.64879e-16 0)
(3 -3.5422e-16 0)
(3 -4.98271e-16 0)
(3 -5.66312e-16 0)
(3 -8.35321e-16 0)
(3 -9.07005e-16 0)
(3 -5.6599e-16 0)
(3 2.17465e-16 0)
(3 1.14973e-15 0)
(3 9.48631e-16 0)
(3 -4.95289e-16 0)
(3 -1.32033e-15 0)
(3 -1.38957e-15 0)
(3 -8.4753e-16 0)
(3 -1.39207e-16 0)
(3 -5.0788e-15 0)
(3 -1.32299e-10 0)
(3 6.72907e-09 0)
(3.00046 0.00120738 0)
(2.93651 0.179499 0)
(2.0726 0.822946 0)
(3 6.97751e-17 0)
(3 7.39037e-17 0)
(3 -5.25755e-17 0)
(3 -3.45399e-16 0)
(3 -4.15124e-16 0)
(3 -6.66916e-16 0)
(3 -7.38576e-16 0)
(3 -6.45044e-16 0)
(3 -6.48599e-17 0)
(3 3.32707e-16 0)
(3 1.09143e-16 0)
(3 1.06642e-16 0)
(3 -4.55737e-16 0)
(3 -6.61797e-16 0)
(3 -1.00066e-15 0)
(3 -6.75994e-16 0)
(3 -6.39908e-16 0)
(3 -1.10616e-15 0)
(3 -6.12247e-16 0)
(3 -1.81806e-11 0)
(3 -5.92625e-11 0)
(3 3.16245e-06 0)
(3.00119 0.0111445 0)
(2.75925 0.358408 0)
(3 1.10361e-16 0)
(3 -2.62834e-17 0)
(3 1.1479e-16 0)
(3 -4.291e-17 0)
(3 -1.07205e-16 0)
(3 -2.73312e-16 0)
(3 -2.76487e-16 0)
(3 -7.21579e-17 0)
(3 -9.7377e-18 0)
(3 -2.07315e-16 0)
(3 -9.29808e-16 0)
(3 -1.44254e-15 0)
(3 -8.22984e-16 0)
(3 2.61132e-16 0)
(3 2.42001e-16 0)
(3 -2.15542e-16 0)
(3 -2.51186e-16 0)
(3 2.59852e-16 0)
(3 5.33971e-16 0)
(3 -6.53789e-13 0)
(3 -3.68034e-11 0)
(3 1.58664e-09 0)
(2.99999 0.000120317 0)
(2.99302 0.0334732 0)
(3 -1.07148e-16 0)
(3 -4.25474e-17 0)
(3 2.85215e-17 0)
(3 -3.98824e-16 0)
(3 -5.15328e-16 0)
(3 -8.05508e-17 0)
(3 1.77563e-16 0)
(3 4.29262e-16 0)
(3 9.58568e-17 0)
(3 -2.17802e-16 0)
(3 -7.13474e-16 0)
(3 -1.01039e-15 0)
(3 -9.10952e-16 0)
(3 5.48325e-16 0)
(3 4.02009e-16 0)
(3 -1.58858e-16 0)
(3 9.13732e-17 0)
(3 2.64852e-16 0)
(3 1.60779e-16 0)
(3 -1.02675e-14 0)
(3 -6.20047e-12 0)
(3 -2.0856e-11 0)
(3 1.62174e-07 0)
(2.99986 0.000795438 0)
(3 5.88641e-18 0)
(3 -2.76649e-17 0)
(3 1.27025e-18 0)
(3 9.45991e-17 0)
(3 1.88316e-16 0)
(3 8.56201e-16 0)
(3 8.6579e-16 0)
(3 6.25767e-16 0)
(3 4.02729e-17 0)
(3 -6.32309e-17 0)
(3 -1.74065e-16 0)
(3 -8.66065e-17 0)
(3 2.84104e-16 0)
(3 6.93458e-16 0)
(3 1.22896e-15 0)
(3 1.23855e-15 0)
(3 6.69858e-16 0)
(3 -9.31404e-16 0)
(3 -1.39592e-15 0)
(3 -9.77188e-16 0)
(3 -5.12495e-13 0)
(3 -1.03678e-11 0)
(3 4.78284e-11 0)
(3 2.04388e-06 0)
(3 -1.63156e-17 0)
(3 4.23375e-18 0)
(3 9.39634e-17 0)
(3 5.85061e-16 0)
(3 6.34556e-16 0)
(3 4.65321e-16 0)
(3 5.99042e-16 0)
(3 3.62167e-16 0)
(3 9.92551e-16 0)
(3 1.06948e-15 0)
(3 9.75705e-16 0)
(3 8.1756e-16 0)
(3 1.00769e-15 0)
(3 1.04971e-15 0)
(3 1.60335e-15 0)
(3 2.33043e-15 0)
(3 3.46446e-16 0)
(3 -2.28966e-16 0)
(3 -7.50138e-16 0)
(3 -1.71232e-16 0)
(3 -1.26505e-14 0)
(3 -2.06472e-12 0)
(3 -2.08346e-12 0)
(3 1.56068e-09 0)
(3 -1.17282e-16 0)
(3 2.34436e-16 0)
(3 2.03182e-16 0)
(3 2.89883e-16 0)
(3 7.37558e-16 0)
(3 8.42292e-16 0)
(3 1.33205e-15 0)
(3 1.17043e-15 0)
(3 1.7762e-15 0)
(3 1.54798e-15 0)
(3 1.18735e-15 0)
(3 6.32563e-16 0)
(3 4.83807e-16 0)
(3 5.01983e-16 0)
(3 3.28079e-16 0)
(3 1.75652e-16 0)
(3 -1.24813e-15 0)
(3 -1.6283e-15 0)
(3 -1.81132e-15 0)
(3 -1.405e-15 0)
(3 -7.80158e-16 0)
(3 -7.11242e-14 0)
(3 -6.19461e-13 0)
(3 -4.10748e-13 0)
(3 -2.23548e-17 0)
(3 -2.25159e-17 0)
(3 3.3686e-16 0)
(3 -4.88271e-17 0)
(3 -6.50955e-17 0)
(3 1.14872e-15 0)
(3 2.06418e-15 0)
(3 2.14716e-15 0)
(3 1.24742e-15 0)
(3 9.35755e-16 0)
(3 8.60229e-16 0)
(3 7.61421e-16 0)
(3 4.13736e-16 0)
(3 -4.54764e-16 0)
(3 -1.26447e-15 0)
(3 -1.60577e-15 0)
(3 -2.00645e-15 0)
(3 -3.24714e-15 0)
(3 -3.5959e-15 0)
(3 -3.21418e-15 0)
(3 -3.07892e-15 0)
(3 -3.07453e-15 0)
(3 -3.44087e-14 0)
(3 -1.06552e-13 0)
(3 1.67702e-16 0)
(3 -1.74559e-16 0)
(3 1.26223e-17 0)
(3 2.48255e-16 0)
(3 1.2337e-16 0)
(3 4.3805e-16 0)
(3 8.42804e-16 0)
(3 1.55195e-15 0)
(3 6.85152e-16 0)
(3 9.09791e-16 0)
(3 1.25615e-15 0)
(3 1.387e-15 0)
(3 9.31963e-16 0)
(3 4.63613e-16 0)
(3 -7.89859e-16 0)
(3 -1.76405e-15 0)
(3 -2.01895e-15 0)
(3 -2.46652e-15 0)
(3 -3.06624e-15 0)
(3 -5.41172e-15 0)
(3 -4.875e-15 0)
(3 -3.1783e-15 0)
(3 -2.03293e-15 0)
(3 -6.36993e-15 0)
(3 -8.95701e-18 0)
(3 1.90651e-17 0)
(3 -3.3256e-16 0)
(3 -2.33529e-16 0)
(3 -2.66192e-17 0)
(3 -2.02793e-16 0)
(3 -6.5259e-16 0)
(3 -7.94296e-17 0)
(3 2.40153e-16 0)
(3 -2.69314e-16 0)
(3 -2.92291e-16 0)
(3 -3.76258e-16 0)
(3 -3.68392e-16 0)
(3 -3.27294e-16 0)
(3 -9.41954e-16 0)
(3 -1.85327e-15 0)
(3 -1.85131e-15 0)
(3 -1.8939e-15 0)
(3 -2.69218e-15 0)
(3 -4.34408e-15 0)
(3 -3.34056e-15 0)
(3 -1.57028e-15 0)
(3 -1.30488e-15 0)
(3 -9.19111e-16 0)
(3 -1.5864e-16 0)
(3 -1.10232e-16 0)
(3 2.6998e-16 0)
(3 -3.58002e-17 0)
(3 -7.04584e-17 0)
(3 -2.61889e-16 0)
(3 -9.87282e-16 0)
(3 -1.68292e-15 0)
(3 -1.42726e-15 0)
(3 -1.6899e-15 0)
(3 -1.5591e-15 0)
(3 -1.49952e-15 0)
(3 -1.09211e-15 0)
(3 -9.44368e-16 0)
(3 -6.65365e-16 0)
(3 -9.22515e-16 0)
(3 -1.09856e-15 0)
(3 -1.48992e-15 0)
(3 -2.19428e-15 0)
(3 -1.7329e-15 0)
(3 -8.07349e-16 0)
(3 -1.01474e-15 0)
(3 -9.7376e-16 0)
(3 -1.06133e-15 0)
(3 1.2898e-16 0)
(3 1.48128e-19 0)
(3 2.04372e-16 0)
(3 -3.29882e-17 0)
(3 3.9135e-17 0)
(3 -2.11087e-16 0)
(3 -4.78756e-16 0)
(3 -8.66048e-16 0)
(3 -1.2273e-15 0)
(3 -1.63918e-15 0)
(3 -1.55505e-15 0)
(3 -5.24262e-16 0)
(3 -5.16634e-16 0)
(3 -3.70529e-16 0)
(3 4.59428e-16 0)
(3 8.55512e-16 0)
(3 -6.36001e-16 0)
(3 -1.50399e-15 0)
(3 -1.63045e-15 0)
(3 3.74113e-16 0)
(3 1.80956e-15 0)
(3 4.72214e-17 0)
(3 -9.2617e-16 0)
(3 -9.68585e-16 0)
(3 2.01535e-16 0)
(3 3.04102e-16 0)
(3 -4.62983e-16 0)
(3 -4.72776e-16 0)
(3 -2.40194e-16 0)
(3 5.70438e-17 0)
(3 4.69961e-16 0)
(3 6.4696e-16 0)
(3 1.01658e-16 0)
(3 9.04908e-18 0)
(3 7.16165e-17 0)
(3 8.96581e-16 0)
(3 9.29959e-16 0)
(3 6.74201e-16 0)
(3 4.9175e-16 0)
(3 -3.12521e-16 0)
(3 -1.22045e-15 0)
(3 -1.3196e-15 0)
(3 -1.09666e-15 0)
(3 1.16313e-15 0)
(3 2.55447e-15 0)
(3 1.46247e-15 0)
(3 -2.7433e-16 0)
(3 -1.01915e-15 0)
(3 -3.20869e-17 0)
(3 3.18285e-16 0)
(3 1.75083e-16 0)
(3 3.13767e-16 0)
(3 1.09644e-16 0)
(3 5.38232e-17 0)
(3 1.07241e-16 0)
(3 1.79262e-16 0)
(3 4.27414e-17 0)
(3 5.48799e-16 0)
(3 8.17763e-16 0)
(3 1.22941e-15 0)
(3 1.25593e-15 0)
(3 7.80317e-16 0)
(3 -6.12511e-16 0)
(3 -1.45019e-15 0)
(3 -9.92313e-16 0)
(3 -7.5674e-17 0)
(3 1.47765e-16 0)
(3 6.28675e-16 0)
(3 9.21722e-16 0)
(3 7.25036e-16 0)
(3 -9.01379e-16 0)
(3 -2.46011e-15 0)
(3 2.31223e-18 0)
(3 -5.26834e-17 0)
(3 7.97667e-17 0)
(3 4.89735e-17 0)
(3 -4.66174e-16 0)
(3 -6.23254e-16 0)
(3 -4.19213e-16 0)
(3 -7.46361e-16 0)
(3 -5.05911e-16 0)
(3 6.99353e-17 0)
(3 7.7563e-16 0)
(3 -4.47508e-16 0)
(3 -1.17542e-15 0)
(3 -1.81327e-15 0)
(3 -1.45519e-15 0)
(3 3.45101e-18 0)
(3 3.87329e-16 0)
(3 9.03155e-16 0)
(3 2.34773e-15 0)
(3 2.77025e-15 0)
(3 6.51907e-16 0)
(3 -1.53721e-15 0)
(3 -2.70096e-15 0)
(3 -3.26277e-15 0)
(3 1.80481e-17 0)
(3 -4.22874e-16 0)
(3 -3.35387e-16 0)
(3 -2.67653e-16 0)
(3 -2.60334e-16 0)
(3 -4.12466e-16 0)
(3 -5.27665e-16 0)
(3 -1.62624e-15 0)
(3 -1.54267e-15 0)
(3 -1.63263e-15 0)
(3 -1.40498e-15 0)
(3 -1.9605e-15 0)
(3 -2.07531e-15 0)
(3 -1.28518e-15 0)
(3 -9.47301e-16 0)
(3 4.97352e-16 0)
(3 1.28123e-15 0)
(3 1.59239e-15 0)
(3 2.70773e-15 0)
(3 2.34558e-15 0)
(3 1.51162e-15 0)
(3 -3.45968e-16 0)
(3 -1.52835e-15 0)
(3 -1.90695e-15 0)
(3 -1.95879e-16 0)
(3 -3.21646e-16 0)
(3 -4.30883e-17 0)
(3 6.23602e-17 0)
(3 1.86573e-16 0)
(3 2.22223e-17 0)
(3 -7.78281e-16 0)
(3 -1.49229e-15 0)
(3 -1.95962e-15 0)
(3 -2.32672e-15 0)
(3 -2.44784e-15 0)
(3 -1.53523e-15 0)
(3 -1.23186e-15 0)
(3 -8.05428e-16 0)
(3 -8.94852e-16 0)
(3 -5.2884e-16 0)
(3 1.17363e-16 0)
(3 1.14755e-15 0)
(3 1.07583e-15 0)
(3 6.31637e-16 0)
(3 -5.15797e-16 0)
(3 -5.74098e-16 0)
(3 -6.20097e-16 0)
(3 -4.244e-16 0)
(3 -2.24791e-17 0)
(3 3.89189e-17 0)
(3 2.16034e-17 0)
(3 7.34307e-18 0)
(3 -3.26109e-16 0)
(3 -2.85497e-16 0)
(3 -4.68334e-16 0)
(3 -4.76534e-16 0)
(3 -4.80669e-16 0)
(3 -1.03703e-15 0)
(3 -1.07611e-15 0)
(3 -1.24516e-15 0)
(3 -1.59024e-15 0)
(3 -1.6603e-15 0)
(3 -1.62586e-15 0)
(3 -7.26347e-16 0)
(3 4.00829e-17 0)
(3 8.45858e-16 0)
(3 4.15861e-16 0)
(3 1.08351e-15 0)
(3 8.05734e-16 0)
(3 9.24746e-16 0)
(3 1.30152e-15 0)
(3 1.54998e-15 0)
(3 1.79174e-16 0)
(3 1.68077e-16 0)
(3 1.297e-16 0)
(3 1.9755e-16 0)
(3 -2.84581e-16 0)
(3 -5.21944e-16 0)
(3 -3.43067e-16 0)
(3 1.87926e-16 0)
(3 5.30526e-16 0)
(3 -1.62874e-16 0)
(3 -6.33353e-16 0)
(3 -1.34923e-15 0)
(3 -1.22508e-15 0)
(3 -1.08379e-15 0)
(3 -1.00082e-15 0)
(3 -4.17265e-16 0)
(3 2.9768e-16 0)
(3 2.03791e-16 0)
(3 5.01041e-16 0)
(3 6.36575e-16 0)
(3 1.53344e-15 0)
(3 2.46555e-15 0)
(3 2.61941e-15 0)
(3 2.77083e-15 0)
(3 -2.28898e-17 0)
(3 5.87876e-17 0)
(3 8.00371e-17 0)
(3 1.72367e-17 0)
(3 3.61425e-16 0)
(3 -7.99199e-17 0)
(3 -1.95352e-16 0)
(3 -1.21245e-16 0)
(3 2.07014e-16 0)
(3 3.59296e-16 0)
(3 -4.23212e-16 0)
(3 -6.4305e-16 0)
(3 -7.25153e-16 0)
(3 -5.48115e-16 0)
(3 -6.40276e-18 0)
(3 3.08824e-17 0)
(3 4.50304e-16 0)
(3 5.41675e-16 0)
(3 7.70917e-16 0)
(3 2.06545e-16 0)
(3 1.78731e-16 0)
(3 1.08193e-15 0)
(3 1.66331e-15 0)
(3 1.72851e-15 0)
(3 -4.60823e-17 0)
(3 9.13441e-17 0)
(3 2.66911e-16 0)
(3 3.40785e-16 0)
(3 4.33064e-16 0)
(3 4.36042e-16 0)
(3 3.72943e-16 0)
(3 -2.55248e-16 0)
(3 -4.9621e-16 0)
(3 6.28898e-16 0)
(3 4.28169e-16 0)
(3 6.14686e-16 0)
(3 7.95022e-16 0)
(3 9.6049e-16 0)
(3 1.04102e-15 0)
(3 9.82318e-16 0)
(3 6.81319e-16 0)
(3 9.4387e-16 0)
(3 1.51364e-15 0)
(3 1.55052e-15 0)
(3 2.31426e-16 0)
(3 -3.21831e-16 0)
(3 1.71191e-16 0)
(3 9.15318e-16 0)
(3 -1.6493e-16 0)
(3 2.49481e-16 0)
(3 2.50504e-17 0)
(3 -2.82116e-16 0)
(3 -5.15172e-16 0)
(3 -4.19831e-16 0)
(3 1.40565e-16 0)
(3 4.06589e-16 0)
(3 2.81661e-16 0)
(3 5.97851e-16 0)
(3 1.22936e-15 0)
(3 1.26599e-15 0)
(3 1.2573e-15 0)
(3 1.55118e-15 0)
(3 1.59097e-15 0)
(3 5.15537e-16 0)
(3 -2.2428e-16 0)
(3 2.15176e-17 0)
(3 1.03165e-15 0)
(3 1.99636e-15 0)
(3 1.06497e-15 0)
(3 -3.28378e-17 0)
(3 -7.57911e-16 0)
(3 -8.35152e-17 0)
(3 -2.2029e-17 0)
(3 1.1831e-17 0)
(3 -1.65847e-16 0)
(3 -2.72565e-16 0)
(3 -2.71416e-16 0)
(3 -1.58495e-16 0)
(3 2.56542e-16 0)
(3 7.88406e-16 0)
(3 1.41173e-15 0)
(3 1.08724e-15 0)
(3 1.51062e-15 0)
(3 1.78659e-15 0)
(3 1.98931e-15 0)
(3 1.27018e-15 0)
(3 4.81896e-16 0)
(3 -1.63741e-16 0)
(3 -2.24927e-16 0)
(3 -3.18668e-16 0)
(3 -9.26945e-18 0)
(3 -7.74264e-18 0)
(3 -1.346e-16 0)
(3 -2.70123e-16 0)
(3 -8.46793e-16 0)
(3 -5.48618e-16 0)
(3 1.20236e-16 0)
(3 2.21764e-17 0)
(3 2.62869e-16 0)
(3 7.75666e-16 0)
(3 1.20995e-15 0)
(3 1.40848e-15 0)
(3 1.41787e-15 0)
(3 1.91023e-15 0)
(3 2.37273e-15 0)
(3 2.131e-15 0)
(3 1.86914e-15 0)
(3 1.96546e-15 0)
(3 1.69583e-15 0)
(3 5.5029e-16 0)
(3 -2.15413e-16 0)
(3 -5.46082e-16 0)
(3 -1.29831e-16 0)
(3 -2.36203e-16 0)
(3 -1.29571e-15 0)
(3 -1.83419e-15 0)
(3 -1.15706e-15 0)
(3 -1.09889e-15 0)
(3 -9.84143e-16 0)
(3 -1.42035e-15 0)
(3 -5.91673e-17 0)
(3 -8.35994e-18 0)
(3 5.3302e-16 0)
(3 8.47918e-16 0)
(3 1.43965e-15 0)
(3 1.88119e-15 0)
(3 2.0329e-15 0)
(3 2.14538e-15 0)
(3 2.81591e-15 0)
(3 2.77728e-15 0)
(3 1.96941e-15 0)
(3 1.53421e-15 0)
(3 6.76245e-16 0)
(3 6.74218e-16 0)
(3 6.6693e-16 0)
(3 1.06038e-15 0)
(3 8.00018e-16 0)
(3 3.74327e-16 0)
(3 6.3173e-17 0)
(3 -5.1983e-16 0)
(3 -1.10603e-15 0)
(3 -1.60983e-15 0)
(3 -1.67978e-15 0)
(3 -2.43549e-15 0)
(3 1.70907e-16 0)
(3 2.37078e-16 0)
(3 1.85444e-17 0)
(3 -4.33e-16 0)
(3 -2.27688e-16 0)
(3 2.18454e-17 0)
(3 1.49282e-16 0)
(3 1.34733e-17 0)
(3 8.77411e-16 0)
(3 1.44651e-15 0)
(3 1.34254e-15 0)
(3 1.17991e-15 0)
(3 7.55474e-16 0)
(3 1.20349e-15 0)
(3 2.30766e-15 0)
(3 2.90017e-15 0)
(3 1.94318e-15 0)
(3 1.71751e-15 0)
(3 1.84844e-15 0)
(3 1.45293e-15 0)
(3 6.27648e-16 0)
(3 -5.88107e-16 0)
(3 -1.3859e-15 0)
(3 -1.0294e-15 0)
(3 2.41215e-16 0)
(3 4.64698e-16 0)
(3 -2.13391e-16 0)
(3 -5.96242e-16 0)
(3 -7.97734e-16 0)
(3 -8.11574e-16 0)
(3 -8.19863e-16 0)
(3 -4.18287e-16 0)
(3 3.01569e-17 0)
(3 2.31952e-16 0)
(3 7.43072e-16 0)
(3 1.04702e-15 0)
(3 1.07361e-15 0)
(3 9.0804e-16 0)
(3 1.19875e-15 0)
(3 1.66494e-15 0)
(3 1.09895e-15 0)
(3 8.88616e-16 0)
(3 7.03386e-16 0)
(3 3.71354e-16 0)
(3 2.61197e-16 0)
(3 -5.72539e-16 0)
(3 -1.0296e-15 0)
(3 -5.28372e-16 0)
(1.6115 1.08743 0)
(2.24251 1.12782 0)
(2.5458 1.08549 0)
(2.48105 0.555948 0)
(2.556 0.247626 0)
(2.59579 -0.0476118 0)
(2.63405 -0.162986 0)
(2.55319 -0.184501 0)
(2.48702 -0.193036 0)
(2.47344 -0.158727 0)
(2.46143 -0.111269 0)
(2.46392 -0.0541943 0)
(2.47525 -0.0322085 0)
(2.51422 -0.0272647 0)
(2.53477 -0.0248929 0)
(2.54011 -0.0254172 0)
(1.29649 0.0351334 0)
(0.838091 0.045083 0)
(0.690763 0.0508736 0)
(0.558627 0.0506594 0)
(0.454297 0.0443768 0)
(0.348308 0.0452141 0)
(0.212284 0.0516618 0)
(0.0851475 0.0701608 0)
(1.75125 0.886297 0)
(2.20947 0.5261 0)
(2.45231 0.25905 0)
(2.53216 -0.00394129 0)
(2.58409 -0.266443 0)
(2.58534 -0.405746 0)
(2.67828 -0.393102 0)
(2.6419 -0.311135 0)
(2.59892 -0.286572 0)
(2.54213 -0.241049 0)
(2.50121 -0.14401 0)
(2.49367 -0.0539321 0)
(2.50616 -0.0218718 0)
(2.54068 -0.0105701 0)
(2.55346 0.00218149 0)
(2.54922 0.00699361 0)
(1.38123 0.193036 0)
(0.848895 0.182052 0)
(0.706481 0.170311 0)
(0.579837 0.168297 0)
(0.475482 0.157163 0)
(0.359384 0.158588 0)
(0.220077 0.182056 0)
(0.0838573 0.231249 0)
(1.65699 0.892101 0)
(2.00639 0.700893 0)
(2.26728 0.430528 0)
(2.39584 0.351456 0)
(2.48412 0.161519 0)
(2.52929 -0.0513881 0)
(2.56774 -0.0573201 0)
(2.64081 -0.12485 0)
(2.65226 -0.193445 0)
(2.67268 -0.275513 0)
(2.64591 -0.24482 0)
(2.61718 -0.171663 0)
(2.6153 -0.128479 0)
(2.61539 -0.0875239 0)
(2.60126 -0.0516182 0)
(2.59431 -0.0281185 0)
(1.70384 0.283565 0)
(0.971242 0.285312 0)
(0.815522 0.257332 0)
(0.684024 0.26121 0)
(0.574687 0.253631 0)
(0.458318 0.268014 0)
(0.312844 0.297834 0)
(0.168367 0.408718 0)
(1.62976 0.842868 0)
(1.8946 0.745693 0)
(2.13772 0.55402 0)
(2.29408 0.447131 0)
(2.41415 0.316296 0)
(2.51406 0.0573599 0)
(2.55934 -0.0174028 0)
(2.62147 -0.0696952 0)
(2.69434 -0.209703 0)
(2.701 -0.288692 0)
(2.73554 -0.273453 0)
(2.71898 -0.229406 0)
(2.69862 -0.214459 0)
(2.68515 -0.1809 0)
(2.66662 -0.12924 0)
(2.66929 -0.114384 0)
(2.25394 0.216312 0)
(1.1153 0.388351 0)
(0.93443 0.360798 0)
(0.821355 0.364491 0)
(0.714978 0.351716 0)
(0.597248 0.371444 0)
(0.397643 0.481299 0)
(0.250381 0.73302 0)
(1.61411 0.835488 0)
(1.80788 0.77389 0)
(1.99639 0.66755 0)
(2.16894 0.556067 0)
(2.30377 0.444271 0)
(2.40898 0.265038 0)
(2.47872 0.162279 0)
(2.52849 0.155259 0)
(2.59219 0.055834 0)
(2.62789 -0.0727662 0)
(2.66539 -0.067139 0)
(2.68901 -0.0977333 0)
(2.70922 -0.173857 0)
(2.71584 -0.187494 0)
(2.71902 -0.180166 0)
(2.71931 -0.173103 0)
(2.75569 -0.0841312 0)
(1.40685 0.4002 0)
(1.06562 0.411545 0)
(0.967179 0.430228 0)
(0.860843 0.440309 0)
(0.758295 0.483805 0)
(0.681032 0.649826 0)
(0.772589 0.963713 0)
(1.61571 0.835787 0)
(1.77055 0.785344 0)
(1.94133 0.695593 0)
(2.08449 0.622622 0)
(2.21424 0.539402 0)
(2.33434 0.384244 0)
(2.40568 0.291981 0)
(2.46637 0.264911 0)
(2.55874 0.151015 0)
(2.60763 0.00791459 0)
(2.63934 -0.0197041 0)
(2.67092 -0.0469709 0)
(2.70738 -0.174136 0)
(2.7163 -0.201086 0)
(2.73459 -0.200912 0)
(2.73342 -0.18558 0)
(2.75446 -0.17239 0)
(1.83817 0.352704 0)
(1.12654 0.491986 0)
(1.02685 0.518623 0)
(0.953158 0.548096 0)
(0.907143 0.589555 0)
(0.944356 0.719925 0)
(1.12618 0.848693 0)
(1.62848 0.857301 0)
(1.75809 0.817235 0)
(1.89691 0.747459 0)
(2.02095 0.682795 0)
(2.12309 0.634399 0)
(2.2343 0.521235 0)
(2.32319 0.408223 0)
(2.3957 0.371985 0)
(2.4719 0.298596 0)
(2.52508 0.177836 0)
(2.56029 0.136871 0)
(2.60293 0.109202 0)
(2.64289 0.00870666 0)
(2.65562 -0.0402319 0)
(2.67844 -0.0522851 0)
(2.69802 -0.0702903 0)
(2.74115 -0.12662 0)
(2.60596 0.081432 0)
(1.33029 0.521562 0)
(1.12622 0.534356 0)
(1.0739 0.570626 0)
(1.06042 0.616814 0)
(1.12967 0.695288 0)
(1.31548 0.773813 0)
(1.65461 0.883086 0)
(1.76902 0.845358 0)
(1.87691 0.793412 0)
(1.98735 0.73375 0)
(2.08732 0.681249 0)
(2.1832 0.597782 0)
(2.26693 0.498282 0)
(2.33146 0.462241 0)
(2.41267 0.397621 0)
(2.48476 0.272045 0)
(2.52309 0.219836 0)
(2.56099 0.196982 0)
(2.61723 0.105638 0)
(2.64362 0.0297114 0)
(2.6679 -0.00165205 0)
(2.70938 -0.052384 0)
(2.74831 -0.122517 0)
(2.7567 -0.106597 0)
(1.82504 0.464567 0)
(1.24499 0.607772 0)
(1.18572 0.62284 0)
(1.1841 0.655259 0)
(1.25419 0.689576 0)
(1.40854 0.720976 0)
(1.66254 0.941041 0)
(1.75742 0.898149 0)
(1.8633 0.84194 0)
(1.97013 0.775544 0)
(2.05032 0.736389 0)
(2.12632 0.684923 0)
(2.21405 0.598778 0)
(2.29815 0.524687 0)
(2.37433 0.466491 0)
(2.43158 0.376533 0)
(2.46411 0.336648 0)
(2.50694 0.312778 0)
(2.56865 0.232145 0)
(2.5969 0.169156 0)
(2.63779 0.101555 0)
(2.67414 0.0537983 0)
(2.70811 0.019473 0)
(2.73896 -0.0184998 0)
(2.58818 0.172803 0)
(1.53253 0.635939 0)
(1.30668 0.667553 0)
(1.30857 0.66675 0)
(1.3631 0.68057 0)
(1.47755 0.692883 0)
(1.75189 0.949569 0)
(1.77351 0.936365 0)
(1.87117 0.875007 0)
(1.9529 0.829444 0)
(2.03279 0.785023 0)
(2.1278 0.706535 0)
(2.20307 0.630767 0)
(2.25957 0.593924 0)
(2.31294 0.567558 0)
(2.38986 0.479202 0)
(2.44877 0.390088 0)
(2.4945 0.349469 0)
(2.54196 0.29801 0)
(2.57058 0.25451 0)
(2.58638 0.230737 0)
(2.64734 0.144719 0)
(2.69217 0.0757086 0)
(2.73429 0.00926325 0)
(2.72629 0.0299504 0)
(2.12115 0.487418 0)
(1.45242 0.706734 0)
(1.42959 0.711123 0)
(1.47404 0.702133 0)
(1.54828 0.698006 0)
(2.03903 0.863898 0)
(1.85073 0.957935 0)
(1.87243 0.940571 0)
(1.95365 0.880726 0)
(2.04461 0.812142 0)
(2.09996 0.77842 0)
(2.16276 0.726059 0)
(2.24884 0.644911 0)
(2.31492 0.582441 0)
(2.3678 0.530334 0)
(2.40657 0.494847 0)
(2.45254 0.458507 0)
(2.51017 0.391411 0)
(2.5601 0.312295 0)
(2.58823 0.265381 0)
(2.61937 0.223135 0)
(2.64243 0.206189 0)
(2.68493 0.160207 0)
(2.72421 0.0865903 0)
(2.64462 0.191542 0)
(1.8367 0.669465 0)
(1.52755 0.764116 0)
(1.56076 0.746906 0)
(1.61749 0.723803 0)
(2.62961 0.472177 0)
(2.07179 0.877242 0)
(1.93509 0.958794 0)
(1.95651 0.942336 0)
(2.02168 0.893084 0)
(2.11355 0.806674 0)
(2.18578 0.728554 0)
(2.22007 0.717397 0)
(2.25987 0.692661 0)
(2.33608 0.61752 0)
(2.40795 0.527794 0)
(2.45707 0.475827 0)
(2.49199 0.443541 0)
(2.5144 0.426781 0)
(2.53453 0.395467 0)
(2.60278 0.307733 0)
(2.6401 0.220428 0)
(2.66176 0.205065 0)
(2.71306 0.156826 0)
(2.70273 0.177867 0)
(2.42489 0.435969 0)
(1.78731 0.773524 0)
(1.65461 0.79146 0)
(1.69003 0.760289 0)
(2.97639 0.0599227 0)
(2.5697 0.529144 0)
(2.12208 0.878972 0)
(2.01591 0.95347 0)
(2.02865 0.940576 0)
(2.09966 0.876149 0)
(2.155 0.824127 0)
(2.21882 0.762378 0)
(2.28325 0.688273 0)
(2.33096 0.641245 0)
(2.3678 0.623452 0)
(2.40085 0.599121 0)
(2.46712 0.522937 0)
(2.51507 0.429928 0)
(2.54418 0.394186 0)
(2.55792 0.403998 0)
(2.58807 0.35996 0)
(2.63607 0.289473 0)
(2.68202 0.228967 0)
(2.71423 0.18714 0)
(2.68015 0.234185 0)
(2.24168 0.587398 0)
(1.8095 0.804854 0)
(1.78394 0.802506 0)
(2.99953 0.00205428 0)
(2.95935 0.0817642 0)
(2.56406 0.545255 0)
(2.18516 0.865949 0)
(2.08795 0.944791 0)
(2.09088 0.935946 0)
(2.14963 0.878185 0)
(2.21522 0.817476 0)
(2.25035 0.783749 0)
(2.32057 0.709797 0)
(2.38212 0.631582 0)
(2.4175 0.600795 0)
(2.43984 0.591811 0)
(2.47536 0.544311 0)
(2.51477 0.492901 0)
(2.56246 0.432546 0)
(2.60642 0.372269 0)
(2.62406 0.339959 0)
(2.63825 0.335942 0)
(2.69101 0.289894 0)
(2.70127 0.241624 0)
(2.60779 0.344047 0)
(2.14258 0.674277 0)
(1.8819 0.826505 0)
(3 7.56175e-06 0)
(2.99904 0.00341184 0)
(2.95383 0.0887366 0)
(2.58593 0.533318 0)
(2.25201 0.84406 0)
(2.14809 0.932237 0)
(2.15042 0.928646 0)
(2.19278 0.891789 0)
(2.26701 0.812754 0)
(2.32701 0.739916 0)
(2.34252 0.730094 0)
(2.37353 0.704861 0)
(2.44438 0.631528 0)
(2.49182 0.546985 0)
(2.5152 0.504753 0)
(2.54276 0.509921 0)
(2.55467 0.502989 0)
(2.60538 0.437912 0)
(2.6474 0.36472 0)
(2.67594 0.326094 0)
(2.71076 0.285284 0)
(2.70335 0.299214 0)
(2.54492 0.453257 0)
(2.13914 0.741616 0)
(3 8.08868e-09 0)
(2.99999 1.57013e-05 0)
(2.99884 0.00393613 0)
(2.95689 0.0817153 0)
(2.61709 0.507598 0)
(2.34904 0.797913 0)
(2.1951 0.911969 0)
(2.19591 0.918256 0)
(2.23078 0.889531 0)
(2.27324 0.844434 0)
(2.3449 0.756595 0)
(2.39263 0.699189 0)
(2.42062 0.704908 0)
(2.44516 0.66048 0)
(2.50577 0.573915 0)
(2.53832 0.523694 0)
(2.56801 0.492238 0)
(2.59076 0.484043 0)
(2.60146 0.477804 0)
(2.63871 0.433506 0)
(2.70133 0.347536 0)
(2.71524 0.30144 0)
(2.69403 0.329067 0)
(2.50315 0.525434 0)
(3 1.05272e-12 0)
(3 1.92835e-08 0)
(2.99999 2.0341e-05 0)
(2.999 0.00323595 0)
(2.95344 0.0793418 0)
(2.73233 0.412656 0)
(2.39786 0.766315 0)
(2.22512 0.918647 0)
(2.23971 0.910781 0)
(2.26615 0.885685 0)
(2.31285 0.845553 0)
(2.39153 0.762859 0)
(2.43604 0.704765 0)
(2.45366 0.683614 0)
(2.47696 0.643215 0)
(2.49261 0.622284 0)
(2.53135 0.587203 0)
(2.58648 0.516347 0)
(2.61263 0.450666 0)
(2.63642 0.445872 0)
(2.63022 0.462962 0)
(2.66665 0.404778 0)
(2.69964 0.345726 0)
(2.67848 0.377195 0)
(3 -2.2655e-15 0)
(3 3.31227e-12 0)
(3 2.39983e-08 0)
(2.99999 1.74955e-05 0)
(2.99893 0.00264257 0)
(2.97324 0.0571447 0)
(2.78967 0.342625 0)
(2.41488 0.762542 0)
(2.30892 0.847215 0)
(2.31334 0.884602 0)
(2.32516 0.875085 0)
(2.36118 0.840684 0)
(2.39057 0.798817 0)
(2.42136 0.756213 0)
(2.47289 0.675838 0)
(2.49964 0.639874 0)
(2.53816 0.62595 0)
(2.58087 0.582154 0)
(2.59853 0.527859 0)
(2.6102 0.507124 0)
(2.62267 0.493197 0)
(2.65471 0.446829 0)
(2.69003 0.394155 0)
(2.70586 0.382545 0)
(3 -8.93005e-16 0)
(3 -1.00235e-15 0)
(3 4.27741e-12 0)
(3 2.06709e-08 0)
(2.99999 1.40608e-05 0)
(2.99945 0.0014547 0)
(2.98121 0.0410127 0)
(2.8204 0.283628 0)
(2.54248 0.63159 0)
(2.40152 0.803417 0)
(2.33389 0.882859 0)
(2.33816 0.886242 0)
(2.36021 0.863114 0)
(2.3986 0.815166 0)
(2.45021 0.750662 0)
(2.51089 0.663061 0)
(2.53946 0.654482 0)
(2.55867 0.650196 0)
(2.58769 0.591888 0)
(2.60235 0.553888 0)
(2.62098 0.538971 0)
(2.65815 0.494946 0)
(2.68218 0.458843 0)
(2.72343 0.407192 0)
(3 -1.83215e-15 0)
(3 -3.0982e-15 0)
(3 -3.08775e-15 0)
(3 4.08892e-12 0)
(3 1.43158e-08 0)
(3 6.15249e-06 0)
(2.99964 0.000880511 0)
(2.98809 0.0265568 0)
(2.90772 0.167416 0)
(2.62158 0.552899 0)
(2.46667 0.75266 0)
(2.36762 0.863932 0)
(2.3719 0.868155 0)
(2.38591 0.855272 0)
(2.42451 0.814324 0)
(2.4646 0.765536 0)
(2.5227 0.695413 0)
(2.54743 0.671286 0)
(2.56598 0.646835 0)
(2.59879 0.602045 0)
(2.62529 0.569012 0)
(2.65445 0.535788 0)
(2.67805 0.513735 0)
(2.70442 0.493723 0)
(3 -1.31327e-15 0)
(3 -1.81066e-15 0)
(3 -1.47904e-15 0)
(3 3.19096e-16 0)
(3 2.34551e-12 0)
(3 4.72365e-09 0)
(3 3.48304e-06 0)
(2.99986 0.000381239 0)
(2.99618 0.00984127 0)
(2.92676 0.123504 0)
(2.77988 0.382115 0)
(2.49182 0.742614 0)
(2.40803 0.839325 0)
(2.41997 0.840589 0)
(2.42757 0.831246 0)
(2.45463 0.8037 0)
(2.47795 0.778354 0)
(2.51313 0.737609 0)
(2.55818 0.672681 0)
(2.57089 0.664137 0)
(2.59583 0.639915 0)
(2.65847 0.572242 0)
(2.68233 0.529833 0)
(2.69876 0.524294 0)
(3 -1.04113e-15 0)
(3 -1.68336e-15 0)
(3 -1.02538e-15 0)
(3 2.80125e-16 0)
(3 2.53425e-15 0)
(3 6.24434e-13 0)
(3 2.39222e-09 0)
(3 8.6026e-07 0)
(2.99996 9.98546e-05 0)
(2.99741 0.00559398 0)
(2.97731 0.0547167 0)
(2.81126 0.314736 0)
(2.60785 0.605729 0)
(2.53123 0.73201 0)
(2.4365 0.827509 0)
(2.42877 0.839334 0)
(2.44702 0.834061 0)
(2.48153 0.804289 0)
(2.51931 0.754991 0)
(2.57254 0.676968 0)
(2.60704 0.635053 0)
(2.62022 0.637929 0)
(2.65174 0.602587 0)
(2.67812 0.568817 0)
(3 -2.46155e-15 0)
(3 -2.54622e-15 0)
(3 -1.99729e-15 0)
(3 1.51099e-16 0)
(3 2.37161e-15 0)
(3 3.9563e-15 0)
(3 2.6188e-13 0)
(3 2.79118e-10 0)
(3 2.09479e-07 0)
(2.99998 4.2897e-05 0)
(2.99953 0.00137552 0)
(2.98287 0.0349732 0)
(2.92517 0.150686 0)