/*--------------------------------*- C++ -*----------------------------------*\
  =========                 |
  \\      /  F ield         | OpenFOAM: The Open Source CFD Toolbox
   \\    /   O peration     | Website:  https://openfoam.org
    \\  /    A nd           | Version:  7
     \\/     M anipulation  |
\*---------------------------------------------------------------------------*/
FoamFile
{
    version     2.0;
    format      ascii;
    class       volScalarField;
    location    "3.4";
    object      T;
}
// * * * * * * * * * * * * * * * * * * * * * * * * * * * * * * * * * * * * * //

dimensions      [0 0 0 1 0 0 0];

internalField   nonuniform List<scalar> 
4128
(
1.93287
1.92034
1.90801
1.90792
1.91675
1.94559
1.958
1.9576
1.94862
1.93793
1.93721
1.94069
1.95436
1.95938
1.9576
1.9499
1.94195
1.93929
1.93933
1.94393
1.94653
1.94399
1.93761
1.93026
1.92581
1.92384
1.9241
1.92432
1.92162
1.91815
1.91466
1.91172
1.90877
1.90571
1.90255
1.89903
1.89578
1.89341
1.89178
1.89178
1.89056
1.88774
1.88437
1.87951
1.87438
1.87111
1.86864
1.86674
1.86621
1.86564
1.86367
1.86143
1.85943
1.85719
1.85323
2.31091
2.81528
2.85021
2.86149
2.87334
2.88004
2.88112
2.87858
2.87482
2.87226
2.87101
2.87103
2.87139
2.87107
2.86943
2.86672
2.86362
2.8605
2.8576
2.85472
2.85144
2.84763
2.84349
2.83943
2.83577
2.83264
2.82983
2.82666
2.82218
2.81557
2.80667
2.79682
2.78774
2.78044
2.77519
2.77143
2.76897
2.76822
2.76923
2.77159
2.77261
2.77151
2.76755
2.76079
2.75172
2.74198
2.73375
2.72737
2.72299
2.72048
2.71887
2.71836
2.71801
2.71665
2.71229
2.70387
2.68954
2.672
2.65916
2.6509
2.64608
2.6462
2.64954
2.65581
2.66208
2.66411
2.65981
2.64873
2.63285
2.60854
2.58734
2.57334
2.56469
2.56126
1.85943
1.86479
1.86614
1.86688
1.87359
1.88395
1.89562
1.90629
1.91027
1.91057
1.90901
1.90959
1.9123
1.91863
1.9224
1.92239
1.92074
1.91668
1.91477
1.91392
1.91471
1.91723
1.91749
1.91512
1.91024
1.90487
1.9016
1.90026
1.90047
1.90037
1.89847
1.89613
1.89338
1.89048
1.88787
1.88564
1.88347
1.88102
1.87837
1.87602
1.87417
1.87261
1.87079
1.86884
1.86699
1.86418
1.86061
1.8573
1.85439
1.85201
1.85052
1.84933
1.84788
1.8465
1.84436
2.27684
2.79835
2.84691
2.85947
2.87307
2.87974
2.8796
2.87621
2.87247
2.86947
2.86737
2.8659
2.86432
2.86216
2.85919
2.85595
2.85321
2.85137
2.85019
2.84904
2.84683
2.84282
2.83724
2.83122
2.82574
2.82122
2.81762
2.81446
2.8108
2.80571
2.79905
2.79137
2.78374
2.77698
2.77136
2.76664
2.76255
2.75982
2.75869
2.75819
2.75688
2.75448
2.75139
2.74853
2.74617
2.74313
2.73827
2.73151
2.72427
2.71757
2.71148
2.70541
2.70026
2.69592
2.69078
2.68579
2.68132
2.67557
2.66842
2.65981
2.65216
2.64697
2.644
2.64176
2.63859
2.63448
2.62773
2.61962
2.61072
2.60227
2.59389
2.58522
2.57618
2.56789
1.72838
1.76885
1.79781
1.80347
1.80521
1.79797
1.79619
1.80204
1.81542
1.83421
1.84393
1.84563
1.84299
1.84253
1.8453
1.852
1.86011
1.86348
1.86336
1.85882
1.85433
1.85416
1.85677
1.86012
1.86054
1.85941
1.85517
1.85052
1.84954
1.84966
1.85057
1.85007
1.8491
1.84648
1.84296
1.84163
1.84123
1.84165
1.84146
1.84023
1.83715
1.83256
1.8302
1.82974
1.83018
1.83035
1.82934
1.82751
1.82457
1.82068
1.81736
1.81536
1.81404
1.81303
1.81233
2.18929
2.75184
2.82222
2.83995
2.85425
2.85867
2.85666
2.85289
2.84947
2.84786
2.84761
2.84645
2.84434
2.84056
2.83481
2.82846
2.82367
2.82167
2.82175
2.82287
2.82366
2.82259
2.81894
2.81322
2.80691
2.80107
2.79584
2.7909
2.78579
2.78047
2.77518
2.77
2.76497
2.76031
2.75615
2.75263
2.74965
2.74657
2.74318
2.73922
2.73424
2.72933
2.72572
2.72415
2.72442
2.72558
2.72596
2.7241
2.71893
2.71093
2.70031
2.68798
2.67598
2.6653
2.65771
2.65358
2.65428
2.65575
2.65587
2.6543
2.65042
2.64337
2.63198
2.61755
2.60263
2.58922
2.57936
2.57248
2.56942
2.57024
2.57038
2.56902
2.56814
2.56533
1.6145
1.65478
1.69254
1.7144
1.72103
1.72161
1.72203
1.72715
1.73762
1.75569
1.76246
1.76313
1.76196
1.76127
1.7649
1.77258
1.78093
1.78438
1.78515
1.78362
1.78204
1.78224
1.7847
1.78892
1.79066
1.79055
1.78869
1.78615
1.7854
1.78577
1.7873
1.78794
1.78796
1.78691
1.78433
1.78278
1.78276
1.7833
1.78377
1.78366
1.78214
1.77934
1.77764
1.7768
1.77659
1.77663
1.77657
1.77606
1.77457
1.77239
1.77028
1.76873
1.76764
1.7671
1.76653
2.05152
2.66922
2.78164
2.79528
2.81302
2.82092
2.81865
2.81374
2.80807
2.8046
2.8039
2.8041
2.80331
2.80011
2.79382
2.78597
2.77942
2.77616
2.77571
2.77661
2.7778
2.77749
2.77514
2.77112
2.76628
2.76145
2.75672
2.75194
2.74707
2.7422
2.73763
2.73345
2.72947
2.72563
2.72227
2.71958
2.71725
2.71475
2.71205
2.70955
2.70663
2.70278
2.69884
2.69569
2.69364
2.69301
2.69439
2.69525
2.69086
2.68324
2.67347
2.6611
2.64756
2.63529
2.62574
2.61954
2.61941
2.62195
2.62546
2.62667
2.62336
2.61382
2.6021
2.5875
2.56927
2.551
2.53751
2.52851
2.52714
2.52878
2.53072
2.53246
2.53389
2.53111
1.54758
1.57289
1.60704
1.63294
1.64979
1.6583
1.66614
1.67642
1.68874
1.70013
1.70672
1.71089
1.71249
1.71356
1.7172
1.72378
1.72756
1.72814
1.72772
1.72787
1.73027
1.73414
1.73546
1.73509
1.73362
1.73174
1.73161
1.73242
1.73362
1.73413
1.73416
1.73356
1.73284
1.73304
1.73389
1.73461
1.73468
1.73414
1.73183
1.72898
1.72803
1.72824
1.72899
1.72989
1.72999
1.72966
1.72824
1.72638
1.72472
1.72358
1.72298
1.72236
1.72113
1.7202
1.7201
1.88242
2.56275
2.7434
2.74553
2.75998
2.76605
2.76398
2.76073
2.75657
2.7541
2.75407
2.75487
2.75476
2.75246
2.74686
2.73943
2.73285
2.72895
2.72742
2.72736
2.72769
2.72717
2.72533
2.72284
2.72026
2.71701
2.71346
2.7093
2.70528
2.70117
2.6975
2.69441
2.69156
2.68826
2.68469
2.68137
2.67786
2.67386
2.6701
2.66776
2.66737
2.6672
2.66569
2.66301
2.65967
2.65614
2.65354
2.65171
2.64656
2.6384
2.62862
2.61783
2.60825
2.59999
2.5926
2.58729
2.58511
2.58418
2.58314
2.57842
2.56866
2.55791
2.54665
2.53501
2.52424
2.51423
2.50526
2.49858
2.49458
2.49111
2.48674
2.4791
2.47114
2.46305
1.52244
1.52833
1.54341
1.56354
1.58991
1.61122
1.62443
1.63888
1.65289
1.66134
1.66813
1.67491
1.68031
1.68564
1.69032
1.69283
1.6943
1.6961
1.69835
1.70256
1.70698
1.70825
1.7075
1.70475
1.70357
1.7042
1.70692
1.71026
1.71058
1.70967
1.70635
1.70357
1.70353
1.70457
1.70672
1.70702
1.70653
1.70388
1.69968
1.69794
1.698
1.69935
1.70153
1.7017
1.70076
1.69837
1.6959
1.69506
1.69504
1.69508
1.69475
1.69338
1.69123
1.69027
1.69028
1.75001
2.46723
2.72449
2.72207
2.72533
2.72548
2.72227
2.71934
2.71681
2.71573
2.71587
2.71578
2.71531
2.71291
2.70826
2.7026
2.69787
2.69502
2.69356
2.69299
2.69279
2.69209
2.69027
2.68753
2.68467
2.68196
2.67924
2.67608
2.6727
2.66934
2.66611
2.66331
2.66101
2.65853
2.6553
2.65164
2.64747
2.64269
2.63787
2.63408
2.63217
2.63096
2.6285
2.62442
2.6193
2.61365
2.60809
2.60367
2.60023
2.593
2.58325
2.57316
2.5648
2.55782
2.55213
2.54739
2.54325
2.53845
2.53138
2.52055
2.50788
2.4953
2.48412
2.47514
2.46886
2.46629
2.46601
2.46583
2.46064
2.44956
2.43579
2.41879
2.40104
2.38867
1.5294
1.5236
1.51916
1.52251
1.53458
1.55809
1.58382
1.6089
1.63047
1.63926
1.64448
1.65162
1.66064
1.6711
1.67855
1.67979
1.68013
1.68209
1.68568
1.69094
1.69564
1.69685
1.69661
1.69449
1.69361
1.69473
1.69826
1.70158
1.70192
1.70139
1.69856
1.69625
1.69597
1.696
1.69603
1.69589
1.69519
1.69229
1.68976
1.68947
1.68959
1.68972
1.68951
1.68881
1.68678
1.68463
1.6844
1.68442
1.68426
1.68392
1.68254
1.68023
1.67949
1.67949
1.67957
1.68458
2.41394
2.7228
2.71968
2.7135
2.70867
2.70243
2.69746
2.69371
2.6924
2.69225
2.69377
2.69404
2.69254
2.68904
2.6849
2.68241
2.68145
2.68082
2.67959
2.67691
2.67258
2.66747
2.66287
2.65986
2.65899
2.65861
2.65722
2.65482
2.65144
2.64757
2.6438
2.64051
2.63749
2.63418
2.63056
2.62655
2.62202
2.61701
2.61148
2.60529
2.59867
2.59171
2.58445
2.57716
2.56996
2.56333
2.55833
2.55608
2.5543
2.54835
2.53915
2.52987
2.52114
2.51288
2.50453
2.49555
2.48613
2.47647
2.46641
2.45567
2.4448
2.43514
2.42793
2.42545
2.42589
2.42799
2.42772
2.41932
2.40689
2.38988
2.36905
2.34842
2.33418
1.56413
1.54684
1.53096
1.52387
1.52502
1.53175
1.54811
1.56803
1.59028
1.61448
1.62809
1.63619
1.64546
1.66013
1.67438
1.67702
1.67712
1.67836
1.68201
1.68772
1.6923
1.69411
1.69459
1.69374
1.69343
1.69438
1.69706
1.69946
1.70016
1.70003
1.69879
1.69744
1.69608
1.69452
1.69315
1.69224
1.69197
1.69202
1.69167
1.69093
1.6896
1.68756
1.68569
1.68459
1.6845
1.68459
1.68448
1.68402
1.68274
1.68059
1.67988
1.67985
1.67972
1.67945
1.67885
1.67695
2.38989
2.72624
2.72739
2.71363
2.70438
2.69634
2.69015
2.68609
2.68526
2.6863
2.68823
2.6881
2.68601
2.68202
2.67829
2.6768
2.67693
2.67739
2.67684
2.67227
2.66475
2.65672
2.64983
2.64627
2.64615
2.64682
2.64671
2.64499
2.64129
2.63621
2.63067
2.62541
2.62067
2.6163
2.6121
2.60787
2.60352
2.5988
2.59308
2.58498
2.57411
2.56255
2.55178
2.54198
2.53312
2.52538
2.51938
2.51646
2.51568
2.51528
2.50969
2.49853
2.48658
2.47381
2.46101
2.44868
2.4373
2.42796
2.42086
2.41467
2.4082
2.4019
2.39701
2.39345
2.39015
2.38516
2.37865
2.37048
2.36008
2.34721
2.33247
2.31763
2.30341
1.59537
1.57777
1.56326
1.55185
1.54293
1.54212
1.54189
1.54356
1.55187
1.57004
1.59321
1.61834
1.63506
1.64922
1.66184
1.67225
1.67945
1.68514
1.69098
1.69451
1.69562
1.69638
1.69752
1.69869
1.70101
1.70397
1.70503
1.70429
1.70267
1.70199
1.7022
1.70314
1.70304
1.70188
1.69901
1.69586
1.6947
1.69446
1.69534
1.69539
1.69413
1.69204
1.689
1.68731
1.68683
1.68679
1.68658
1.686
1.68469
1.68307
1.68251
1.68216
1.68194
1.68146
1.68079
1.67813
2.38654
2.73239
2.73388
2.7203
2.71195
2.70365
2.69624
2.69137
2.68999
2.69028
2.69123
2.69025
2.68685
2.68186
2.67747
2.6754
2.67485
2.67464
2.67422
2.67188
2.66526
2.65705
2.64908
2.64324
2.64047
2.63951
2.63892
2.63737
2.63363
2.62743
2.61956
2.61123
2.60329
2.59614
2.58983
2.58443
2.57975
2.57542
2.571
2.5655
2.55642
2.54367
2.53008
2.5172
2.50538
2.49476
2.48547
2.47834
2.47519
2.47463
2.47341
2.46463
2.45132
2.4374
2.42312
2.41024
2.39935
2.39073
2.38634
2.38433
2.38155
2.37605
2.36787
2.35806
2.34699
2.33481
2.32445
2.31701
2.31247
2.30878
2.30377
2.29865
2.29116
1.64996
1.61952
1.60577
1.59544
1.58399
1.57288
1.5611
1.5553
1.55488
1.55731
1.56773
1.58385
1.60437
1.62867
1.64472
1.65752
1.67045
1.68778
1.70063
1.70385
1.70355
1.70034
1.70075
1.70302
1.70893
1.7153
1.71625
1.71498
1.71116
1.70894
1.70867
1.70967
1.71108
1.71092
1.70914
1.7061
1.70457
1.70389
1.70344
1.70292
1.70185
1.70024
1.69817
1.69655
1.6954
1.69454
1.69371
1.69256
1.69117
1.69053
1.69012
1.68985
1.68944
1.68878
1.68762
1.68365
2.39809
2.7402
2.74251
2.7318
2.72512
2.71744
2.71018
2.70548
2.70382
2.70329
2.70222
2.69834
2.69108
2.6831
2.67659
2.67247
2.67063
2.66975
2.66916
2.66768
2.66472
2.65948
2.65223
2.64516
2.63908
2.63428
2.6304
2.62695
2.62341
2.61789
2.60903
2.59774
2.58536
2.5733
2.56264
2.55368
2.54639
2.54057
2.53673
2.53384
2.53063
2.52347
2.51059
2.49612
2.48103
2.46582
2.45156
2.43895
2.42914
2.42532
2.42437
2.42224
2.41304
2.4009
2.38894
2.37722
2.36732
2.35965
2.35567
2.35465
2.3514
2.34258
2.33236
2.32003
2.30486
2.29005
2.27913
2.27221
2.26973
2.27201
2.27687
2.28205
2.28067
1.7138
1.68695
1.66157
1.63123
1.61241
1.6054
1.59519
1.5848
1.57535
1.57297
1.56957
1.5696
1.57429
1.58824
1.61075
1.63748
1.65627
1.67449
1.69354
1.706
1.7083
1.70639
1.70617
1.70971
1.71592
1.72131
1.72252
1.72261
1.72086
1.71884
1.71821
1.71862
1.71887
1.71854
1.71766
1.71643
1.71579
1.71509
1.71394
1.71268
1.71137
1.70985
1.70856
1.7075
1.70634
1.70492
1.70306
1.70131
1.7005
1.70002
1.69975
1.69936
1.6986
1.69721
1.69498
1.69473
2.42123
2.74842
2.75357
2.74407
2.73795
2.73106
2.72533
2.72105
2.71886
2.71748
2.71555
2.71098
2.7008
2.68855
2.67756
2.6693
2.66401
2.66029
2.65787
2.65708
2.65635
2.654
2.64954
2.6423
2.63312
2.62328
2.61407
2.60684
2.602
2.59849
2.59295
2.58259
2.56805
2.55125
2.53444
2.51923
2.5064
2.49635
2.48963
2.48656
2.48574
2.48485
2.4801
2.46696
2.45125
2.43401
2.4161
2.39979
2.38577
2.37485
2.37158
2.37135
2.36986
2.36304
2.3535
2.3443
2.33545
2.32798
2.32228
2.3181
2.31187
2.30353
2.29441
2.28313
2.26878
2.25445
2.24477
2.23898
2.23711
2.24136
2.25169
2.26176
2.25878
1.75425
1.73767
1.71684
1.68954
1.65894
1.63781
1.62594
1.61586
1.60698
1.59868
1.58748
1.57842
1.5766
1.57755
1.58473
1.60135
1.62458
1.64794
1.66813
1.68304
1.69528
1.70592
1.71251
1.71682
1.71966
1.72122
1.72226
1.72281
1.7229
1.72372
1.72569
1.7261
1.72523
1.72375
1.72283
1.72265
1.72286
1.72287
1.72185
1.72014
1.7184
1.71733
1.71636
1.71518
1.7139
1.71238
1.71023
1.70847
1.70765
1.70704
1.70651
1.70589
1.70478
1.70295
1.70122
1.71094
2.44642
2.75637
2.76323
2.75493
2.74854
2.74137
2.73557
2.72988
2.7258
2.72339
2.72084
2.71629
2.70745
2.69534
2.68274
2.67112
2.66012
2.65031
2.64226
2.6364
2.63289
2.63033
2.62674
2.62001
2.60946
2.59605
2.58178
2.56911
2.55996
2.55513
2.55188
2.54664
2.53538
2.51929
2.50054
2.48143
2.46363
2.44843
2.4368
2.4292
2.42616
2.42592
2.42565
2.42045
2.40712
2.3924
2.37611
2.35944
2.34446
2.33212
2.32351
2.32163
2.32169
2.31969
2.31246
2.30466
2.29667
2.28857
2.28106
2.27409
2.26784
2.26139
2.25455
2.24622
2.23532
2.22304
2.2134
2.20788
2.20657
2.20885
2.21484
2.22058
2.2169
1.79723
1.76979
1.75122
1.73218
1.70946
1.68944
1.66962
1.6448
1.62604
1.61925
1.61056
1.59885
1.5881
1.58342
1.58459
1.5861
1.59127
1.6023
1.6213
1.64346
1.66264
1.68241
1.70407
1.71645
1.71688
1.71595
1.71755
1.71818
1.71966
1.72416
1.72745
1.72774
1.72586
1.72341
1.72325
1.72386
1.72502
1.72519
1.7243
1.72263
1.72088
1.71984
1.71894
1.71776
1.71642
1.7149
1.7128
1.71114
1.71027
1.70954
1.70878
1.70799
1.70699
1.70535
1.70393
1.72385
2.46515
2.76218
2.7694
2.76209
2.75448
2.74431
2.73616
2.73034
2.72567
2.72049
2.71367
2.70573
2.69681
2.68736
2.6767
2.6643
2.65015
2.6357
2.62164
2.60875
2.59835
2.59035
2.58343
2.57502
2.56305
2.54788
2.53134
2.51543
2.50201
2.49265
2.48739
2.48366
2.47819
2.46754
2.45207
2.43421
2.41592
2.39839
2.38313
2.37129
2.36289
2.35848
2.3571
2.35597
2.35114
2.34054
2.32866
2.31595
2.30347
2.29222
2.2832
2.2779
2.27573
2.27264
2.26555
2.25833
2.25103
2.24294
2.23501
2.22836
2.22305
2.21932
2.21513
2.21021
2.2041
2.19618
2.18691
2.17876
2.17318
2.16877
2.16519
2.16474
2.16193
1.83335
1.8064
1.78399
1.76018
1.7395
1.72622
1.70909
1.6861
1.65641
1.63395
1.62584
1.61647
1.60567
1.59644
1.58968
1.58569
1.58217
1.5814
1.58554
1.59803
1.61902
1.64288
1.66555
1.6887
1.70008
1.70297
1.70622
1.70782
1.71195
1.71789
1.71979
1.72014
1.71987
1.71974
1.72021
1.72162
1.72204
1.72184
1.72088
1.71939
1.71813
1.71745
1.71707
1.71617
1.71504
1.71372
1.71205
1.71064
1.70964
1.70877
1.70781
1.70667
1.70536
1.70418
1.70305
1.72974
2.4727
2.76711
2.77499
2.76814
2.75864
2.74378
2.7309
2.71915
2.71009
2.70124
2.68938
2.67633
2.66359
2.65128
2.63826
2.62302
2.60617
2.58935
2.57446
2.56061
2.54716
2.5358
2.52589
2.51492
2.50165
2.48577
2.46848
2.45141
2.43584
2.42314
2.41366
2.40755
2.40315
2.39835
2.38995
2.37728
2.36278
2.34733
2.33147
2.31681
2.30517
2.29637
2.29057
2.28921
2.28862
2.28602
2.27897
2.27067
2.26244
2.25409
2.24596
2.23895
2.23301
2.22588
2.21877
2.21156
2.2039
2.19606
2.18933
2.18381
2.17953
2.17714
2.17581
2.17367
2.17043
2.16593
2.15929
2.14962
2.13737
2.12585
2.11807
2.11306
2.10848
1.85397
1.82956
1.81058
1.79006
1.76479
1.74711
1.73018
1.71022
1.6858
1.66193
1.64712
1.63149
1.61675
1.60619
1.60058
1.59239
1.58048
1.57282
1.57325
1.57384
1.57769
1.59044
1.60946
1.63264
1.65611
1.66857
1.68011
1.69016
1.69772
1.70313
1.70377
1.70445
1.70623
1.70815
1.71099
1.71237
1.71249
1.71181
1.71125
1.71089
1.71075
1.71094
1.71056
1.70949
1.70795
1.70676
1.70629
1.70603
1.70559
1.70493
1.70391
1.70221
1.70004
1.6988
1.6972
1.7229
2.47201
2.77296
2.7806
2.76829
2.74934
2.72516
2.70227
2.68199
2.66645
2.6544
2.64045
2.62446
2.60756
2.58965
2.57085
2.55122
2.53078
2.51167
2.49616
2.48511
2.4758
2.46414
2.45326
2.44232
2.43013
2.41596
2.40104
2.38573
2.37119
2.35828
2.34658
2.33748
2.33076
2.32667
2.32344
2.31739
2.30787
2.29708
2.28478
2.27099
2.25716
2.24611
2.23807
2.23268
2.23209
2.23229
2.23107
2.22707
2.22168
2.21584
2.20895
2.20148
2.19338
2.18535
2.17775
2.17008
2.16163
2.15339
2.14752
2.14292
2.13924
2.13687
2.13601
2.13594
2.13458
2.13116
2.12605
2.1183
2.10624
2.09138
2.07948
2.0728
2.06708
1.86803
1.84097
1.82292
1.8078
1.78537
1.7651
1.74505
1.72274
1.69762
1.68092
1.66917
1.65277
1.63441
1.61491
1.60586
1.59744
1.58487
1.57442
1.5662
1.56001
1.55877
1.55913
1.56279
1.5733
1.59567
1.61804
1.63758
1.65833
1.66919
1.67788
1.68154
1.68397
1.68797
1.69174
1.69421
1.69451
1.6943
1.69417
1.69457
1.69532
1.69728
1.69819
1.69781
1.6958
1.69262
1.69175
1.69179
1.69264
1.69349
1.69326
1.69285
1.6916
1.68977
1.68814
1.68615
1.69807
2.44421
2.76333
2.75986
2.73698
2.70912
2.67658
2.64294
2.61257
2.58828
2.5714
2.55938
2.54579
2.53111
2.514
2.49383
2.47185
2.45082
2.4317
2.41673
2.40702
2.40062
2.39278
2.38185
2.3717
2.36161
2.35058
2.33837
2.32579
2.3139
2.30246
2.29097
2.28074
2.27215
2.26572
2.26273
2.26099
2.25673
2.24972
2.24155
2.23163
2.2198
2.20774
2.19828
2.19153
2.18752
2.18748
2.18754
2.18576
2.18114
2.1756
2.16963
2.16324
2.15658
2.14981
2.14318
2.13635
2.12834
2.11883
2.11063
2.10574
2.10206
2.09906
2.09692
2.09643
2.09648
2.09422
2.08998
2.08483
2.07728
2.06606
2.0523
2.04311
2.03741
1.87376
1.84987
1.82779
1.8144
1.79428
1.77228
1.75318
1.73288
1.70587
1.68887
1.67939
1.66608
1.6504
1.63087
1.6139
1.60138
1.58651
1.57309
1.56224
1.55412
1.54906
1.5434
1.54345
1.54454
1.54883
1.56173
1.57932
1.6041
1.62205
1.63853
1.6484
1.65622
1.66524
1.67066
1.67177
1.67128
1.67028
1.67092
1.67234
1.67519
1.67885
1.67936
1.67878
1.67609
1.67314
1.67287
1.67308
1.67462
1.67587
1.67589
1.67556
1.6739
1.67119
1.66917
1.67124
1.69354
2.37442
2.72154
2.69417
2.65234
2.61837
2.59117
2.55921
2.52828
2.50092
2.47976
2.46778
2.45876
2.4479
2.434
2.41666
2.39741
2.37773
2.36063
2.3478
2.33901
2.33359
2.32917
2.32267
2.31341
2.30427
2.29538
2.28628
2.2768
2.26717
2.2574
2.24724
2.23716
2.22792
2.22012
2.21455
2.21265
2.21138
2.207
2.20124
2.19469
2.1866
2.17737
2.16857
2.16144
2.15603
2.15285
2.15071
2.14631
2.14077
2.13505
2.12952
2.12455
2.12047
2.11652
2.11202
2.10727
2.10146
2.09318
2.08217
2.07286
2.06788
2.06422
2.06104
2.05892
2.05876
2.05881
2.05638
2.05248
2.04823
2.04258
2.03403
2.02412
2.0153
1.8719
1.85199
1.82942
1.81647
1.7974
1.77175
1.75399
1.7368
1.71196
1.69589
1.6865
1.67333
1.65773
1.64061
1.62596
1.61079
1.59194
1.57215
1.55625
1.55071
1.54575
1.53813
1.53277
1.52966
1.52588
1.522
1.52387
1.53541
1.55638
1.58096
1.60598
1.61974
1.63313
1.64044
1.64244
1.64306
1.64452
1.64677
1.65035
1.65505
1.65714
1.65696
1.65561
1.65256
1.65079
1.65087
1.65157
1.65347
1.65451
1.65452
1.65396
1.6517
1.6482
1.6497
1.66624
1.76124
2.24614
2.61751
2.60894
2.55676
2.51765
2.49389
2.47022
2.44779
2.42496
2.40414
2.38958
2.3804
2.3741
2.36583
2.35305
2.33722
2.32081
2.30621
2.29442
2.28552
2.27913
2.2746
2.27098
2.26655
2.25931
2.25187
2.24488
2.23732
2.22907
2.22032
2.21131
2.20219
2.19313
2.18483
2.17792
2.17326
2.17155
2.16832
2.16339
2.15842
2.1529
2.14722
2.14147
2.13589
2.13121
2.1264
2.11936
2.11112
2.103
2.09638
2.09109
2.08683
2.08451
2.08406
2.08253
2.0793
2.07542
2.06991
2.06083
2.0482
2.03771
2.03214
2.02851
2.02546
2.02392
2.02435
2.02441
2.02262
2.0198
2.01675
2.01258
2.00764
1.99652
1.86614
1.84803
1.82709
1.81386
1.79637
1.76965
1.74994
1.73536
1.71437
1.69895
1.69007
1.67773
1.66222
1.64349
1.62908
1.61434
1.5964
1.5765
1.55763
1.55018
1.54447
1.53617
1.5289
1.52214
1.51222
1.50154
1.49896
1.49921
1.50585
1.52146
1.55003
1.57259
1.59058
1.60319
1.60774
1.61057
1.61425
1.62102
1.63024
1.63435
1.63486
1.63425
1.63195
1.62876
1.62771
1.628
1.62893
1.63072
1.632
1.63197
1.63093
1.62827
1.63037
1.64305
1.73595
1.9157
2.11157
2.41253
2.49434
2.4816
2.44979
2.42207
2.40011
2.38054
2.36098
2.34412
2.33123
2.32155
2.3162
2.3114
2.30395
2.29319
2.28061
2.26746
2.25467
2.2442
2.23635
2.22983
2.22663
2.22523
2.22319
2.21704
2.21015
2.20353
2.19617
2.18798
2.17941
2.17124
2.1633
2.15544
2.14829
2.1423
2.13809
2.13317
2.12759
2.12292
2.1186
2.11449
2.11096
2.10885
2.10715
2.10158
2.09403
2.08438
2.07243
2.06206
2.0559
2.05167
2.04982
2.05088
2.05204
2.0508
2.04748
2.04361
2.03793
2.02819
2.01517
2.00447
1.99846
1.99489
1.99234
1.99175
1.99226
1.99217
1.99087
1.98893
1.98634
1.98338
1.975
1.85638
1.83893
1.81941
1.80539
1.78843
1.76452
1.74282
1.73124
1.71434
1.69862
1.68979
1.67892
1.66471
1.64572
1.62802
1.61212
1.59558
1.5787
1.56262
1.55586
1.54906
1.53857
1.52741
1.51684
1.5021
1.48881
1.4836
1.48101
1.48444
1.48961
1.49829
1.51476
1.52998
1.54765
1.56194
1.57143
1.57832
1.5891
1.60448
1.60983
1.61141
1.61178
1.6101
1.60628
1.60415
1.6042
1.60507
1.60711
1.60952
1.60926
1.60798
1.61029
1.62869
1.7031
1.88252
2.0371
2.07832
2.18659
2.32228
2.38008
2.38198
2.3749
2.35849
2.33622
2.31635
2.30142
2.28693
2.27531
2.26872
2.26476
2.26229
2.26018
2.25222
2.23952
2.22645
2.21231
2.20237
2.19505
2.18969
2.18944
2.19016
2.18632
2.17803
2.17125
2.16459
2.15707
2.14875
2.14104
2.13434
2.12789
2.1216
2.11589
2.11045
2.10323
2.09559
2.08908
2.0841
2.07971
2.07653
2.0766
2.07757
2.07467
2.0683
2.06061
2.04972
2.03627
2.0257
2.02008
2.017
2.01734
2.01946
2.01948
2.01671
2.01337
2.00949
2.00358
1.99429
1.98297
1.97308
1.96666
1.96306
1.96093
1.96036
1.96006
1.95937
1.95858
1.95705
1.95451
1.94869
1.84633
1.82803
1.80902
1.79467
1.77764
1.75559
1.73488
1.72621
1.7134
1.69712
1.68739
1.67702
1.6628
1.64348
1.62487
1.60912
1.59439
1.57961
1.56677
1.56168
1.55478
1.54291
1.52868
1.51171
1.49254
1.48035
1.47545
1.4716
1.47122
1.47339
1.4751
1.47326
1.47527
1.48237
1.49772
1.51767
1.53493
1.55187
1.57096
1.57842
1.58316
1.58589
1.5859
1.58384
1.5812
1.58146
1.5827
1.58535
1.58761
1.58721
1.59053
1.60682
1.7028
1.84879
1.9818
2.0725
2.06749
2.07707
2.12899
2.21649
2.2806
2.30856
2.31287
2.30804
2.29213
2.27495
2.25442
2.23946
2.2285
2.22302
2.22476
2.22943
2.22819
2.21606
2.20287
2.18785
2.17434
2.16625
2.15961
2.15706
2.157
2.15461
2.14637
2.13952
2.13305
2.12574
2.11756
2.10979
2.10343
2.09784
2.09309
2.08955
2.08441
2.07696
2.06844
2.05894
2.05049
2.04498
2.04137
2.04045
2.04157
2.04231
2.03894
2.03324
2.0262
2.01615
2.00348
1.99284
1.98709
1.98429
1.98433
1.98436
1.98238
1.97964
1.97644
1.97247
1.96713
1.96005
1.95187
1.9436
1.9366
1.93233
1.9298
1.92802
1.92662
1.92604
1.92622
1.92534
1.92078
1.83791
1.81857
1.79958
1.78453
1.76769
1.74751
1.72881
1.72138
1.71038
1.69397
1.68302
1.67267
1.65801
1.63707
1.61863
1.60603
1.59467
1.58165
1.56987
1.56492
1.55784
1.54557
1.52994
1.50947
1.48985
1.48085
1.47573
1.47028
1.46709
1.46502
1.4622
1.45703
1.44783
1.44466
1.44769
1.45889
1.48054
1.50452
1.5312
1.54308
1.54994
1.55534
1.55806
1.55777
1.55742
1.55967
1.56426
1.56886
1.56931
1.57223
1.58902
1.6732
1.85045
1.93624
1.99209
2.0565
2.06927
2.06346
2.05402
2.06487
2.12536
2.19617
2.23958
2.26299
2.2634
2.25307
2.23429
2.2147
2.19785
2.18803
2.18882
2.19571
2.19853
2.19069
2.17738
2.16366
2.14949
2.13939
2.13234
2.12655
2.12311
2.12002
2.11461
2.10745
2.10093
2.09378
2.08564
2.07727
2.07014
2.06445
2.06042
2.05887
2.05572
2.0493
2.04185
2.03263
2.02161
2.01226
2.00693
2.00331
2.00284
2.00429
2.00475
2.00169
1.99671
1.9911
1.98319
1.97239
1.96146
1.95421
1.95005
1.94725
1.94539
1.94339
1.94086
1.93782
1.93453
1.93117
1.92733
1.92249
1.91606
1.90786
1.90094
1.89754
1.89519
1.89356
1.89363
1.89539
1.89348
1.83213
1.81117
1.79261
1.77777
1.7618
1.74246
1.72628
1.71913
1.70864
1.69182
1.67892
1.66754
1.65207
1.63044
1.61385
1.60515
1.59579
1.58401
1.57327
1.5681
1.55973
1.54596
1.52763
1.50528
1.49285
1.48547
1.47944
1.47278
1.46692
1.46258
1.45651
1.44568
1.4319
1.42732
1.42813
1.42931
1.43588
1.45219
1.47726
1.49726
1.50951
1.52032
1.52629
1.52936
1.53149
1.53768
1.54705
1.55067
1.55462
1.57889
1.66558
1.8293
1.91978
1.95507
1.99913
2.0492
2.0576
2.0483
2.02823
2.01115
2.00935
2.04591
2.11348
2.17467
2.20219
2.21052
2.20772
2.19328
2.17582
2.16169
2.15726
2.15968
2.16298
2.15787
2.14542
2.13434
2.12283
2.11163
2.10356
2.09666
2.08982
2.08477
2.08105
2.0745
2.06763
2.06077
2.05278
2.04412
2.03575
2.02924
2.02479
2.02308
2.02161
2.01767
2.01202
2.005
1.99598
1.98513
1.97553
1.96956
1.96595
1.96551
1.96636
1.96632
1.96346
1.95955
1.95549
1.9496
1.94082
1.92984
1.91961
1.91323
1.90993
1.90731
1.90477
1.90235
1.90041
1.89988
1.89951
1.8974
1.89414
1.88833
1.87834
1.86891
1.86508
1.86294
1.86146
1.86274
1.86432
1.82703
1.80586
1.78823
1.7737
1.75832
1.74139
1.72706
1.71895
1.7075
1.69016
1.67571
1.66407
1.64824
1.62546
1.61202
1.60547
1.59742
1.58624
1.57632
1.57077
1.56105
1.5455
1.52472
1.50389
1.49782
1.49266
1.48593
1.47891
1.47104
1.46432
1.45514
1.43853
1.42182
1.41768
1.41661
1.41694
1.42019
1.42426
1.43234
1.44474
1.45523
1.46853
1.48232
1.49429
1.50199
1.51189
1.5226
1.5329
1.55817
1.67173
1.81286
1.91719
1.93533
1.9571
2.00016
2.03292
2.034
2.02417
2.00613
1.98673
1.97542
1.97157
1.98939
2.03652
2.08999
2.12774
2.15148
2.15078
2.14763
2.13658
2.13082
2.12742
2.12676
2.11994
2.10874
2.09857
2.08874
2.07945
2.07146
2.06412
2.05704
2.05057
2.04552
2.04014
2.03318
2.02682
2.01942
2.01061
2.00178
1.99421
1.98879
1.98565
1.98408
1.98188
1.97821
1.97348
1.9674
1.95962
1.95013
1.94084
1.93442
1.93054
1.92908
1.92858
1.92749
1.92501
1.92223
1.91923
1.91479
1.90758
1.8973
1.88591
1.87777
1.87382
1.87116
1.86869
1.86729
1.86815
1.87052
1.871
1.86885
1.86563
1.85924
1.84718
1.83665
1.83308
1.83096
1.8303
1.83169
1.82178
1.80067
1.78603
1.77232
1.75752
1.74059
1.72877
1.71989
1.70699
1.68988
1.67423
1.66164
1.64585
1.62529
1.61338
1.60823
1.60072
1.58921
1.57888
1.57211
1.56106
1.5442
1.52262
1.50743
1.50409
1.49925
1.49164
1.48525
1.47747
1.46851
1.45595
1.43593
1.42011
1.41657
1.41495
1.41323
1.41255
1.41387
1.41321
1.41103
1.40938
1.41377
1.42655
1.44487
1.46367
1.48193
1.50014
1.5373
1.64631
1.81612
1.88408
1.90713
1.92952
1.96341
2.01035
2.0246
2.0177
1.99966
1.98144
1.96484
1.95306
1.94678
1.94197
1.94029
1.95634
1.99137
2.03645
2.06833
2.09058
2.09003
2.0937
2.09196
2.08854
2.08289
2.07406
2.0625
2.0518
2.04406
2.03711
2.02966
2.02233
2.01602
2.00987
2.00433
1.9984
1.99223
1.98625
1.97873
1.97006
1.96139
1.95403
1.94906
1.94645
1.94463
1.94236
1.93987
1.93615
1.93089
1.9248
1.91741
1.90898
1.90152
1.89661
1.89328
1.89101
1.88944
1.88808
1.88643
1.88416
1.88068
1.87493
1.86574
1.85368
1.84455
1.84082
1.83856
1.83701
1.83769
1.84132
1.84307
1.84145
1.83918
1.83596
1.82843
1.81488
1.80519
1.80211
1.80054
1.79953
1.81537
1.79664
1.78485
1.77147
1.75749
1.74107
1.73027
1.71998
1.70646
1.68838
1.67322
1.6607
1.64567
1.62679
1.61757
1.61247
1.60443
1.59271
1.58145
1.57293
1.55961
1.54176
1.52216
1.51342
1.51107
1.50631
1.49801
1.49084
1.48313
1.47215
1.4566
1.43576
1.42372
1.42061
1.41885
1.41528
1.41166
1.40938
1.40557
1.39659
1.38708
1.38603
1.38844
1.39703
1.41673
1.44535
1.49496
1.62817
1.79075
1.86527
1.8821
1.90604
1.94152
1.98355
2.01675
2.0151
2.00033
1.97471
1.95467
1.94226
1.9327
1.92445
1.91366
1.8967
1.88332
1.88654
1.90319
1.93501
1.97903
2.01326
2.0294
2.03851
2.03809
2.03775
2.03318
2.02613
2.02072
2.01398
2.0045
1.99635
1.98827
1.98058
1.97404
1.96718
1.96179
1.95882
1.95372
1.94808
1.94118
1.93314
1.92396
1.91617
1.91138
1.90861
1.9068
1.90482
1.90327
1.9015
1.8972
1.89238
1.88665
1.87876
1.86916
1.86217
1.85841
1.85555
1.85394
1.85384
1.85335
1.85141
1.84855
1.84379
1.83523
1.82283
1.81436
1.81143
1.80969
1.80957
1.81247
1.81489
1.81354
1.8114
1.80931
1.80553
1.79651
1.78301
1.77579
1.77402
1.77151
1.80761
1.79278
1.78315
1.77063
1.7568
1.74096
1.73093
1.71895
1.70438
1.68643
1.67129
1.66002
1.64693
1.63154
1.62284
1.61696
1.60841
1.59533
1.58212
1.57182
1.55793
1.54125
1.52492
1.51992
1.51792
1.51255
1.5041
1.49646
1.48805
1.47327
1.45549
1.43998
1.43145
1.42816
1.42616
1.42187
1.41558
1.40994
1.40208
1.3868
1.37636
1.37476
1.37544
1.37851
1.38849
1.42536
1.56074
1.74118
1.83147
1.8421
1.85439
1.88541
1.93908
1.98686
1.99428
1.98845
1.9726
1.94962
1.93115
1.92146
1.91517
1.90441
1.88444
1.86419
1.84855
1.83672
1.83664
1.84079
1.85478
1.89005
1.9262
1.95569
1.97022
1.9784
1.97746
1.98084
1.98359
1.9826
1.97954
1.97057
1.96051
1.9491
1.93949
1.93245
1.92583
1.92231
1.92145
1.91823
1.9133
1.90728
1.89919
1.88976
1.88139
1.87694
1.87424
1.87174
1.86982
1.86952
1.86909
1.86629
1.86194
1.85659
1.84831
1.83693
1.82886
1.82541
1.82319
1.82231
1.823
1.8233
1.82148
1.81866
1.8141
1.80525
1.79309
1.78681
1.78473
1.7837
1.78494
1.78758
1.78658
1.78441
1.78245
1.78006
1.7753
1.76508
1.75349
1.75018
1.74757
1.799
1.78871
1.77987
1.76799
1.7542
1.73982
1.7299
1.71644
1.70115
1.68245
1.671
1.66078
1.64899
1.63525
1.62759
1.62091
1.61044
1.597
1.58219
1.5695
1.55619
1.54253
1.5295
1.52567
1.52388
1.51795
1.50929
1.50046
1.49037
1.47224
1.45488
1.44643
1.43957
1.43574
1.43307
1.42884
1.42155
1.41308
1.40143
1.38331
1.37422
1.37153
1.37156
1.37706
1.41773
1.53575
1.69979
1.77091
1.79168
1.79299
1.80639
1.85257
1.91464
1.94712
1.94651
1.93925
1.92696
1.91245
1.91052
1.91025
1.8984
1.87934
1.85699
1.83576
1.81926
1.8069
1.8031
1.80817
1.8116
1.80252
1.80851
1.82578
1.8519
1.88014
1.90291
1.91959
1.92898
1.93897
1.94438
1.94277
1.93468
1.92207
1.9109
1.90349
1.8959
1.88842
1.88776
1.88811
1.88561
1.88107
1.87541
1.86799
1.85797
1.84898
1.8449
1.84214
1.83913
1.83782
1.83879
1.83901
1.83614
1.8321
1.82664
1.8172
1.80534
1.79869
1.79602
1.79427
1.79421
1.7956
1.79497
1.79277
1.78989
1.78492
1.77531
1.76495
1.76122
1.75973
1.75955
1.76169
1.76171
1.75975
1.7578
1.7557
1.75279
1.74682
1.73579
1.72873
1.72582
1.79076
1.78359
1.77454
1.76336
1.74908
1.7369
1.72643
1.71254
1.69705
1.67936
1.6705
1.66154
1.65054
1.6374
1.6303
1.62265
1.61138
1.59662
1.58033
1.56796
1.5568
1.54601
1.53443
1.53081
1.5288
1.52195
1.51218
1.50211
1.48895
1.47088
1.45907
1.4535
1.44733
1.44284
1.4394
1.43464
1.42727
1.41567
1.39989
1.38367
1.37652
1.37362
1.37777
1.4151
1.55097
1.70119
1.76253
1.74509
1.74321
1.75513
1.78785
1.8401
1.8786
1.87787
1.87495
1.87077
1.86882
1.86954
1.87428
1.87661
1.86643
1.84708
1.82642
1.81114
1.79675
1.78387
1.78252
1.78727
1.78511
1.77241
1.7594
1.74428
1.73976
1.75093
1.77932
1.81655
1.85034
1.87597
1.8929
1.89613
1.89503
1.89026
1.88344
1.87479
1.86819
1.86243
1.85941
1.86012
1.8589
1.85529
1.851
1.84588
1.83784
1.82629
1.81729
1.81378
1.811
1.80864
1.80917
1.81123
1.81024
1.80705
1.80328
1.7969