/*--------------------------------*- C++ -*----------------------------------*\
  =========                 |
  \\      /  F ield         | OpenFOAM: The Open Source CFD Toolbox
   \\    /   O peration     | Website:  https://openfoam.org
    \\  /    A nd           | Version:  7
     \\/     M anipulation  |
\*---------------------------------------------------------------------------*/
FoamFile
{
    version     2.0;
    format      ascii;
    class       volVectorField;
    location    "2.1";
    object      U;
}
// * * * * * * * * * * * * * * * * * * * * * * * * * * * * * * * * * * * * * //

dimensions      [0 1 -1 0 0 0 0];

internalField   nonuniform List<vector> 
16512
(
(2.60889 0.513105 0)
(2.6051 0.510579 0)
(2.5998 0.514074 0)
(2.56015 0.5537 0)
(2.46111 0.642055 0)
(2.26652 0.815609 0)
(2.20136 0.931523 0)
(2.19856 0.904701 0)
(2.20963 0.882274 0)
(2.21343 0.879328 0)
(2.21191 0.88231 0)
(2.19822 0.881741 0)
(2.19052 0.875699 0)
(2.19269 0.873663 0)
(2.20143 0.87106 0)
(2.21879 0.866908 0)
(2.23006 0.865684 0)
(2.23656 0.86714 0)
(2.24114 0.867677 0)
(2.24388 0.865574 0)
(2.2453 0.8603 0)
(2.2444 0.848937 0)
(2.24055 0.834437 0)
(2.24029 0.82582 0)
(2.24371 0.824963 0)
(2.24781 0.826296 0)
(2.25394 0.827804 0)
(2.26235 0.828975 0)
(2.2692 0.828011 0)
(2.27398 0.826001 0)
(2.27939 0.824122 0)
(2.28415 0.82166 0)
(2.28621 0.815955 0)
(2.28202 0.805637 0)
(2.27764 0.79357 0)
(2.27985 0.788085 0)
(2.28397 0.787728 0)
(2.29127 0.786312 0)
(2.29951 0.786108 0)
(2.30646 0.785762 0)
(2.31112 0.78494 0)
(2.31636 0.783841 0)
(2.32082 0.780339 0)
(2.32108 0.772012 0)
(2.31506 0.758872 0)
(2.31283 0.749177 0)
(2.31623 0.74704 0)
(2.32067 0.748034 0)
(2.32874 0.749411 0)
(2.33797 0.750337 0)
(2.34327 0.749085 0)
(2.34933 0.746772 0)
(2.35456 0.743531 0)
(2.3578 0.737705 0)
(2.35606 0.727752 0)
(2.34778 0.713139 0)
(2.34253 0.701995 0)
(2.34375 0.698167 0)
(2.34697 0.699307 0)
(2.3566 0.703519 0)
(2.37233 0.711379 0)
(2.38451 0.715208 0)
(2.3903 0.71406 0)
(2.39632 0.709445 0)
(2.39872 0.703078 0)
(2.39451 0.692377 0)
(2.38336 0.67407 0)
(2.37568 0.658829 0)
(2.37685 0.651524 0)
(2.38105 0.648285 0)
(2.38585 0.647667 0)
(2.39244 0.648192 0)
(2.40326 0.651819 0)
(2.41404 0.660518 0)
(2.42063 0.664099 0)
(2.42463 0.665455 0)
(2.41575 0.642612 0)
(2.39477 0.591565 0)
(2.3139 0.451281 0)
(2.22499 0.264824 0)
(2.0871 0.0460831 0)
(2.04604 -0.0386788 0)
(2.03683 -0.0605335 0)
(2.03787 -0.0632585 0)
(2.0399 -0.072123 0)
(2.03847 -0.0798512 0)
(2.04248 -0.0823094 0)
(2.0488 -0.0812596 0)
(2.05844 -0.0768593 0)
(2.07383 -0.0689524 0)
(2.08668 -0.0634157 0)
(2.09293 -0.0629237 0)
(2.09867 -0.0645386 0)
(2.09994 -0.0709586 0)
(2.09328 -0.0846978 0)
(2.08436 -0.100222 0)
(2.08608 -0.105549 0)
(2.0923 -0.104927 0)
(2.10213 -0.10139 0)
(2.11812 -0.0920732 0)
(2.13199 -0.0840177 0)
(2.1378 -0.0832053 0)
(2.14314 -0.0861358 0)
(2.14185 -0.094637 0)
(2.13308 -0.109589 0)
(2.12721 -0.120392 0)
(2.13177 -0.122724 0)
(2.13791 -0.120588 0)
(2.15083 -0.113689 0)
(2.1698 -0.101031 0)
(2.18284 -0.094431 0)
(2.18861 -0.0946408 0)
(2.19269 -0.0986266 0)
(2.18735 -0.108576 0)
(2.17374 -0.127084 0)
(2.16805 -0.141699 0)
(2.17239 -0.146506 0)
(2.17802 -0.145848 0)
(2.18914 -0.140627 0)
(2.20716 -0.127958 0)
(2.22376 -0.117214 0)
(2.22961 -0.115731 0)
(2.23475 -0.1176 0)
(2.23541 -0.123416 0)
(2.22646 -0.135767 0)
(2.21311 -0.151006 0)
(2.21011 -0.157131 0)
(2.21498 -0.157537 0)
(2.22062 -0.156946 0)
(2.22926 -0.155436 0)
(2.24219 -0.150053 0)
(2.255 -0.143739 0)
(2.2607 -0.142615 0)
(2.26665 -0.143477 0)
(2.27078 -0.145629 0)
(2.26986 -0.151617 0)
(2.26211 -0.161653 0)
(2.25855 -0.168034 0)
(2.26346 -0.168443 0)
(2.2684 -0.166863 0)
(2.27494 -0.165558 0)
(2.27879 -0.170721 0)
(2.26863 -0.193336 0)
(2.24071 -0.233842 0)
(2.17879 -0.309525 0)
(2.14033 -0.355995 0)
(2.11772 -0.378607 0)
(2.10838 -0.396279 0)
(2.10724 -0.406621 0)
(2.11292 -0.407055 0)
(2.11948 -0.403728 0)
(2.12719 -0.399398 0)
(2.13427 -0.399535 0)
(2.14045 -0.401199 0)
(2.14476 -0.403279 0)
(2.14511 -0.407222 0)
(2.14136 -0.413391 0)
(2.14309 -0.417211 0)
(2.1489 -0.417954 0)
(2.15612 -0.417215 0)
(2.16702 -0.414016 0)
(2.17473 -0.411065 0)
(2.18065 -0.41151 0)
(2.18534 -0.412604 0)
(2.18654 -0.416158 0)
(2.18276 -0.422707 0)
(2.18075 -0.426641 0)
(2.18569 -0.427137 0)
(2.19152 -0.426671 0)
(2.19975 -0.424854 0)
(2.21042 -0.420584 0)
(2.21642 -0.41849 0)
(2.22198 -0.418695 0)
(2.22573 -0.419486 0)
(2.22602 -0.422922 0)
(2.22295 -0.42896 0)
(2.22495 -0.432076 0)
(2.23049 -0.43253 0)
(2.23616 -0.431919 0)
(2.24253 -0.430345 0)
(2.24879 -0.428481 0)
(2.25411 -0.428236 0)
(2.25937 -0.428518 0)
(2.2637 -0.429267 0)
(2.26601 -0.431655 0)
(2.26442 -0.436288 0)
(2.26191 -0.440548 0)
(2.26521 -0.440868 0)
(2.27011 -0.440109 0)
(2.27542 -0.439292 0)
(2.28096 -0.43825 0)
(2.28657 -0.436631 0)
(2.29153 -0.436016 0)
(2.2964 -0.436589 0)
(2.30088 -0.437541 0)
(2.30486 -0.43915 0)
(2.30772 -0.441816 0)
(2.30865 -0.445556 0)
(2.3107 -0.447341 0)
(2.31482 -0.447285 0)
(2.31928 -0.446641 0)
(2.32357 -0.445695 0)
(2.32719 -0.444814 0)
(2.32976 -0.444555 0)
(2.33153 -0.445241 0)
(2.33385 -0.446303 0)
(2.33767 -0.446784 0)
(2.34222 -0.446896 0)
(2.34685 -0.447074 0)
(2.35136 -0.447483 0)
(2.35555 -0.448219 0)
(2.35909 -0.449292 0)
(2.36138 -0.450468 0)
(2.3626 -0.450945 0)
(2.36487 -0.450488 0)
(2.36864 -0.450086 0)
(2.37291 -0.449947 0)
(2.37723 -0.449854 0)
(2.38132 -0.449618 0)
(2.38486 -0.449406 0)
(2.38753 -0.449784 0)
(2.38872 -0.451115 0)
(2.38815 -0.453446 0)
(2.39026 -0.455338 0)
(2.39436 -0.455669 0)
(2.3987 -0.455651 0)
(2.40379 -0.455325 0)
(2.40892 -0.454784 0)
(2.4138 -0.45504 0)
(2.41843 -0.455656 0)
(2.4216 -0.4571 0)
(2.42192 -0.459603 0)
(2.41876 -0.462213 0)
(2.41804 -0.462067 0)
(2.42135 -0.460229 0)
(2.42528 -0.457683 0)
(2.429 -0.454672 0)
(2.43249 -0.452179 0)
(2.43595 -0.450546 0)
(2.43938 -0.449474 0)
(2.44262 -0.448942 0)
(2.44571 -0.449558 0)
(2.4487 -0.451846 0)
(2.45114 -0.454682 0)
(2.453 -0.457398 0)
(2.45722 -0.459248 0)
(2.46116 -0.459847 0)
(2.46501 -0.459684 0)
(2.46876 -0.459368 0)
(2.47233 -0.458943 0)
(2.4753 -0.458171 0)
(2.4767 -0.457263 0)
(2.47591 -0.45655 0)
(2.4752 -0.45588 0)
(2.47742 -0.45497 0)
(2.4812 -0.454151 0)
(2.48528 -0.453527 0)
(2.48914 -0.452904 0)
(2.60543 0.516522 0)
(2.6031 0.51081 0)
(2.60189 0.510276 0)
(2.59511 0.51758 0)
(2.56471 0.555064 0)
(2.39222 0.724731 0)
(2.30257 0.866018 0)
(2.24287 0.887045 0)
(2.21852 0.878563 0)
(2.21347 0.885571 0)
(2.19743 0.894127 0)
(2.18436 0.890147 0)
(2.18549 0.885427 0)
(2.19488 0.882202 0)
(2.21323 0.874384 0)
(2.22361 0.869442 0)
(2.23035 0.869651 0)
(2.2345 0.870024 0)
(2.23686 0.86879 0)
(2.23839 0.864752 0)
(2.23877 0.855341 0)
(2.23661 0.842338 0)
(2.23675 0.833376 0)
(2.24019 0.831893 0)
(2.2446 0.83318 0)
(2.2508 0.834615 0)
(2.25869 0.83601 0)
(2.26557 0.835259 0)
(2.27056 0.833113 0)
(2.27547 0.831145 0)
(2.27963 0.828522 0)
(2.28164 0.822707 0)
(2.27806 0.812684 0)
(2.27347 0.800687 0)
(2.27603 0.794831 0)
(2.27994 0.79485 0)
(2.28642 0.79363 0)
(2.29435 0.792602 0)
(2.30164 0.792356 0)
(2.30671 0.791326 0)
(2.31121 0.790321 0)
(2.31556 0.78742 0)
(2.3167 0.779528 0)
(2.31124 0.766552 0)
(2.30861 0.75648 0)
(2.31237 0.754246 0)
(2.31695 0.755367 0)
(2.32432 0.756513 0)
(2.33309 0.757205 0)
(2.33847 0.755921 0)
(2.34447 0.753927 0)
(2.34964 0.75117 0)
(2.35312 0.745963 0)
(2.35221 0.736407 0)
(2.34478 0.722341 0)
(2.3397 0.711358 0)
(2.34095 0.707573 0)
(2.34424 0.708817 0)
(2.35356 0.712902 0)
(2.36809 0.719732 0)
(2.37877 0.722411 0)
(2.3844 0.72073 0)
(2.39025 0.715417 0)
(2.39265 0.708409 0)
(2.38842 0.697042 0)
(2.37774 0.678674 0)
(2.37118 0.664523 0)
(2.3728 0.658167 0)
(2.37702 0.656491 0)
(2.38182 0.656682 0)
(2.3904 0.65779 0)
(2.40259 0.664658 0)
(2.41357 0.671406 0)
(2.41879 0.676137 0)
(2.41771 0.665657 0)
(2.40419 0.629188 0)
(2.33956 0.510045 0)
(2.24924 0.341063 0)
(2.11593 0.117793 0)
(2.04744 -0.0157942 0)
(2.0359 -0.0384153 0)
(2.03813 -0.0461134 0)
(2.03988 -0.0516345 0)
(2.04035 -0.0619728 0)
(2.0375 -0.0706621 0)
(2.03983 -0.0725841 0)
(2.04591 -0.0709332 0)
(2.05527 -0.0672793 0)
(2.07127 -0.0600963 0)
(2.08613 -0.0542946 0)
(2.09277 -0.0538288 0)
(2.09904 -0.0558629 0)
(2.1004 -0.0623223 0)
(2.09351 -0.0755197 0)
(2.08369 -0.0920247 0)
(2.08467 -0.0991113 0)
(2.09106 -0.0991304 0)
(2.10031 -0.0955927 0)
(2.11608 -0.0860749 0)
(2.13071 -0.0773942 0)
(2.13675 -0.0760029 0)
(2.14212 -0.0782958 0)
(2.14063 -0.0860498 0)
(2.13136 -0.101523 0)
(2.12561 -0.113972 0)
(2.13024 -0.116592 0)
(2.13626 -0.114381 0)
(2.14889 -0.107578 0)
(2.16768 -0.0941572 0)
(2.18102 -0.086431 0)
(2.18646 -0.0866694 0)
(2.19062 -0.0913261 0)
(2.18695 -0.102468 0)
(2.17544 -0.120208 0)
(2.16629 -0.130378 0)
(2.16817 -0.13133 0)
(2.1735 -0.130174 0)
(2.18465 -0.128031 0)
(2.20393 -0.118782 0)
(2.22246 -0.108349 0)
(2.2292 -0.106285 0)
(2.23458 -0.107539 0)
(2.23544 -0.112513 0)
(2.22698 -0.124758 0)
(2.21364 -0.141956 0)
(2.20949 -0.150882 0)
(2.2142 -0.152319 0)
(2.2196 -0.151312 0)
(2.22753 -0.148799 0)
(2.24003 -0.142532 0)
(2.25349 -0.135081 0)
(2.26003 -0.133264 0)
(2.2659 -0.134148 0)
(2.27058 -0.136142 0)
(2.27076 -0.141514 0)
(2.26328 -0.152131 0)
(2.25789 -0.161098 0)
(2.26213 -0.16289 0)
(2.26673 -0.161444 0)
(2.27233 -0.159865 0)
(2.27578 -0.165079 0)
(2.26349 -0.190161 0)
(2.23558 -0.232466 0)
(2.1728 -0.306068 0)
(2.13532 -0.354767 0)
(2.11476 -0.373928 0)
(2.10947 -0.387436 0)
(2.10817 -0.399726 0)
(2.11172 -0.400525 0)
(2.11653 -0.398341 0)
(2.12418 -0.394064 0)
(2.132 -0.392398 0)
(2.13883 -0.393622 0)
(2.14409 -0.395311 0)
(2.14584 -0.398871 0)
(2.14242 -0.405651 0)
(2.1412 -0.410976 0)
(2.14646 -0.411899 0)
(2.15265 -0.410986 0)
(2.16316 -0.407974 0)
(2.17338 -0.404081 0)
(2.17898 -0.403981 0)
(2.1847 -0.405047 0)
(2.1872 -0.407761 0)
(2.18351 -0.414442 0)
(2.17994 -0.42196 0)
(2.18414 -0.424449 0)
(2.18973 -0.424116 0)
(2.19732 -0.421316 0)
(2.20837 -0.415658 0)
(2.21577 -0.411707 0)
(2.22126 -0.411714 0)
(2.22592 -0.412236 0)
(2.22702 -0.415074 0)
(2.22331 -0.42126 0)
(2.22298 -0.425446 0)
(2.22831 -0.42623 0)
(2.23386 -0.425851 0)
(2.24059 -0.424117 0)
(2.24752 -0.421473 0)
(2.25289 -0.420605 0)
(2.25828 -0.420881 0)
(2.26291 -0.421334 0)
(2.26573 -0.423105 0)
(2.26477 -0.4276 0)
(2.26146 -0.433149 0)
(2.2636 -0.434827 0)
(2.26883 -0.434572 0)
(2.27428 -0.433949 0)
(2.28007 -0.432577 0)
(2.28576 -0.430774 0)
(2.29087 -0.429983 0)
(2.2957 -0.429734 0)
(2.29984 -0.42967 0)
(2.30314 -0.430477 0)
(2.30496 -0.432706 0)
(2.30546 -0.435831 0)
(2.30845 -0.437899 0)
(2.31333 -0.438648 0)
(2.31799 -0.438753 0)
(2.32266 -0.438679 0)
(2.32711 -0.438643 0)
(2.3307 -0.438813 0)
(2.33254 -0.439519 0)
(2.3334 -0.440672 0)
(2.33617 -0.441412 0)
(2.34062 -0.441505 0)
(2.34528 -0.44137 0)
(2.34973 -0.441102 0)
(2.35379 -0.440827 0)
(2.35731 -0.440734 0)
(2.36002 -0.44099 0)
(2.36184 -0.441684 0)
(2.36388 -0.44254 0)
(2.36731 -0.443067 0)
(2.37159 -0.44332 0)
(2.37604 -0.443557 0)
(2.38042 -0.443776 0)
(2.38454 -0.443825 0)
(2.38807 -0.443719 0)
(2.39032 -0.443971 0)
(2.39016 -0.445196 0)
(2.38953 -0.446231 0)
(2.39249 -0.445893 0)
(2.39672 -0.445974 0)
(2.40119 -0.446256 0)
(2.40584 -0.446402 0)
(2.41061 -0.446937 0)
(2.41543 -0.447759 0)
(2.41976 -0.448716 0)
(2.42244 -0.45 0)
(2.4206 -0.452861 0)
(2.41806 -0.454932 0)
(2.4215 -0.454753 0)
(2.42563 -0.453438 0)
(2.42971 -0.451361 0)
(2.43369 -0.449055 0)
(2.43719 -0.446657 0)
(2.43988 -0.444508 0)
(2.44217 -0.443158 0)
(2.44479 -0.442762 0)
(2.44774 -0.443215 0)
(2.45001 -0.444861 0)
(2.45071 -0.447794 0)
(2.45329 -0.449553 0)
(2.45704 -0.449786 0)
(2.46099 -0.449631 0)
(2.4654 -0.449489 0)
(2.4696 -0.449751 0)
(2.47375 -0.450268 0)
(2.47739 -0.450578 0)
(2.47929 -0.45043 0)
(2.47852 -0.449956 0)
(2.47774 -0.449368 0)
(2.47982 -0.448802 0)
(2.4833 -0.448396 0)
(2.48724 -0.448087 0)
(2.49122 -0.447752 0)
(2.59977 0.518413 0)
(2.59979 0.512228 0)
(2.60207 0.512132 0)
(2.60368 0.513358 0)
(2.59786 0.525553 0)
(2.55026 0.586994 0)
(2.41554 0.760925 0)
(2.31931 0.850625 0)
(2.23757 0.865012 0)
(2.21457 0.87472 0)
(2.18627 0.895007 0)
(2.18258 0.89664 0)
(2.19015 0.895055 0)
(2.20548 0.885886 0)
(2.21654 0.875748 0)
(2.22272 0.87299 0)
(2.22743 0.872879 0)
(2.23078 0.871928 0)
(2.23305 0.868755 0)
(2.23396 0.861881 0)
(2.23224 0.851066 0)
(2.23187 0.84187 0)
(2.23528 0.839599 0)
(2.24008 0.840578 0)
(2.24655 0.841341 0)
(2.25418 0.842494 0)
(2.26122 0.842126 0)
(2.26682 0.839981 0)
(2.27189 0.837648 0)
(2.27572 0.835307 0)
(2.27734 0.830041 0)
(2.27409 0.820186 0)
(2.2691 0.807824 0)
(2.27146 0.801472 0)
(2.27574 0.801379 0)
(2.28215 0.80118 0)
(2.28914 0.799249 0)
(2.2966 0.798936 0)
(2.3025 0.798005 0)
(2.30659 0.796917 0)
(2.31044 0.794452 0)
(2.31189 0.787189 0)
(2.30727 0.774679 0)
(2.30409 0.763596 0)
(2.30788 0.760724 0)
(2.3129 0.762095 0)
(2.31974 0.763139 0)
(2.32809 0.763876 0)
(2.33374 0.762742 0)
(2.33964 0.761072 0)
(2.34484 0.758759 0)
(2.34859 0.75418 0)
(2.34842 0.745209 0)
(2.3418 0.731791 0)
(2.33685 0.720656 0)
(2.3382 0.716821 0)
(2.3416 0.717935 0)
(2.35053 0.721893 0)
(2.36392 0.727699 0)
(2.37321 0.729664 0)
(2.37877 0.727607 0)
(2.3843 0.721948 0)
(2.38648 0.714374 0)
(2.3821 0.702185 0)
(2.37188 0.683945 0)
(2.36655 0.6708 0)
(2.36877 0.665236 0)
(2.37284 0.664529 0)
(2.37829 0.665271 0)
(2.38878 0.66813 0)
(2.40146 0.676537 0)
(2.41287 0.682969 0)
(2.41635 0.684222 0)
(2.40627 0.659682 0)
(2.36448 0.568727 0)
(2.26774 0.395492 0)
(2.16112 0.201128 0)
(2.05456 0.0280759 0)
(2.02306 -0.0472664 0)
(2.02651 -0.0489369 0)
(2.03458 -0.0432194 0)
(2.03955 -0.0441894 0)
(2.04167 -0.0501724 0)
(2.03786 -0.0605106 0)
(2.03816 -0.0671295 0)
(2.04413 -0.0668821 0)
(2.05302 -0.063372 0)
(2.06884 -0.0546871 0)
(2.08476 -0.0462921 0)
(2.09157 -0.0450445 0)
(2.09779 -0.0470982 0)
(2.09963 -0.0537247 0)
(2.09332 -0.0674773 0)
(2.08328 -0.0847214 0)
(2.08345 -0.0920187 0)
(2.08962 -0.0920303 0)
(2.09859 -0.0884112 0)
(2.1144 -0.0787148 0)
(2.12926 -0.0694657 0)
(2.13526 -0.0681162 0)
(2.14048 -0.0709524 0)
(2.13931 -0.079023 0)
(2.13061 -0.0935611 0)
(2.12304 -0.104411 0)
(2.12662 -0.106665 0)
(2.13291 -0.105146 0)
(2.14576 -0.0997962 0)
(2.16495 -0.0872917 0)
(2.17946 -0.0793225 0)
(2.18524 -0.0789465 0)
(2.18961 -0.0823408 0)
(2.18513 -0.0918957 0)
(2.17188 -0.110827 0)
(2.16519 -0.126539 0)
(2.16931 -0.132322 0)
(2.17478 -0.131972 0)
(2.18487 -0.12657 0)
(2.20244 -0.113319 0)
(2.22102 -0.100393 0)
(2.22855 -0.0976945 0)
(2.23401 -0.0993208 0)
(2.23567 -0.104695 0)
(2.22783 -0.116544 0)
(2.21397 -0.133352 0)
(2.2084 -0.141905 0)
(2.21242 -0.143242 0)
(2.21764 -0.14185 0)
(2.22551 -0.13955 0)
(2.23798 -0.133836 0)
(2.25192 -0.12633 0)
(2.25932 -0.124075 0)
(2.26508 -0.124923 0)
(2.27015 -0.126892 0)
(2.27145 -0.131722 0)
(2.26495 -0.141811 0)
(2.25744 -0.151949 0)
(2.25998 -0.154762 0)
(2.2644 -0.153698 0)
(2.2693 -0.15284 0)
(2.27177 -0.159501 0)
(2.25993 -0.186519 0)
(2.22343 -0.236251 0)
(2.17485 -0.298862 0)
(2.13372 -0.348682 0)
(2.11162 -0.372012 0)
(2.10594 -0.383752 0)
(2.10645 -0.39116 0)
(2.1108 -0.393109 0)
(2.116 -0.392263 0)
(2.12207 -0.388661 0)
(2.13065 -0.386063 0)
(2.13724 -0.386435 0)
(2.14289 -0.387586 0)
(2.14582 -0.389983 0)
(2.14331 -0.396317 0)
(2.1403 -0.403076 0)
(2.14468 -0.404983 0)
(2.15032 -0.404258 0)
(2.15948 -0.401651 0)
(2.17106 -0.39698 0)
(2.17722 -0.395685 0)
(2.1831 -0.396916 0)
(2.18666 -0.399836 0)
(2.18466 -0.406105 0)
(2.17953 -0.412949 0)
(2.18134 -0.414882 0)
(2.1868 -0.41453 0)
(2.19371 -0.412957 0)
(2.20506 -0.409088 0)
(2.21475 -0.404809 0)
(2.22004 -0.404623 0)
(2.22524 -0.405413 0)
(2.22744 -0.408043 0)
(2.2244 -0.413631 0)
(2.22128 -0.418211 0)
(2.22552 -0.418993 0)
(2.2311 -0.418756 0)
(2.23766 -0.417493 0)
(2.246 -0.415017 0)
(2.25179 -0.413146 0)
(2.25736 -0.413299 0)
(2.26232 -0.413652 0)
(2.2656 -0.414951 0)
(2.26541 -0.418685 0)
(2.26132 -0.424657 0)
(2.26203 -0.427921 0)
(2.26714 -0.428338 0)
(2.27244 -0.427515 0)
(2.2785 -0.42613 0)
(2.28455 -0.424504 0)
(2.28985 -0.423677 0)
(2.29486 -0.423321 0)
(2.29915 -0.423048 0)
(2.30229 -0.423439 0)
(2.30373 -0.425187 0)
(2.30408 -0.428181 0)
(2.30703 -0.430383 0)
(2.31163 -0.430513 0)
(2.31614 -0.429575 0)
(2.3209 -0.429384 0)
(2.32567 -0.429911 0)
(2.33 -0.430869 0)
(2.33311 -0.43244 0)
(2.33415 -0.434605 0)
(2.33537 -0.43599 0)
(2.33919 -0.436091 0)
(2.34379 -0.435863 0)
(2.34835 -0.435594 0)
(2.35263 -0.435335 0)
(2.3565 -0.435183 0)
(2.35978 -0.435211 0)
(2.3622 -0.435357 0)
(2.36372 -0.435406 0)
(2.36534 -0.435204 0)
(2.36841 -0.43487 0)
(2.37256 -0.434603 0)
(2.37702 -0.434549 0)
(2.38154 -0.434703 0)
(2.386 -0.435131 0)
(2.39003 -0.436062 0)
(2.39249 -0.437557 0)
(2.39229 -0.438634 0)
(2.39232 -0.437999 0)
(2.39515 -0.437188 0)
(2.39915 -0.436967 0)
(2.40346 -0.437171 0)
(2.40771 -0.437748 0)
(2.41182 -0.438337 0)
(2.41563 -0.439115 0)
(2.41863 -0.441207 0)
(2.41976 -0.444119 0)
(2.41861 -0.447094 0)
(2.42082 -0.448369 0)
(2.42501 -0.447815 0)
(2.42918 -0.446156 0)
(2.43347 -0.444491 0)
(2.43766 -0.443 0)
(2.44139 -0.441306 0)
(2.44416 -0.439251 0)
(2.44576 -0.437174 0)
(2.44643 -0.436178 0)
(2.44676 -0.437051 0)
(2.44741 -0.439007 0)
(2.4504 -0.440793 0)
(2.45451 -0.441497 0)
(2.45845 -0.441755 0)
(2.46294 -0.441845 0)
(2.46732 -0.441696 0)
(2.47137 -0.441871 0)
(2.47526 -0.442003 0)
(2.47858 -0.442064 0)
(2.48029 -0.441941 0)
(2.47974 -0.441473 0)
(2.47986 -0.44081 0)
(2.48247 -0.440553 0)
(2.48591 -0.440759 0)
(2.48948 -0.441333 0)
(2.49286 -0.442106 0)
(2.59525 0.519999 0)
(2.59781 0.518226 0)
(2.60124 0.517161 0)
(2.60572 0.516437 0)
(2.6078 0.518675 0)
(2.60109 0.532713 0)
(2.54417 0.607081 0)
(2.45763 0.709159 0)
(2.30519 0.811738 0)
(2.19029 0.888222 0)
(2.1751 0.898529 0)
(2.18684 0.895041 0)
(2.20466 0.890045 0)
(2.21179 0.885152 0)
(2.21885 0.879435 0)
(2.223 0.876331 0)
(2.22506 0.875684 0)
(2.22779 0.874131 0)
(2.22975 0.870134 0)
(2.22922 0.860475 0)
(2.22887 0.848127 0)
(2.23221 0.843671 0)
(2.23673 0.84493 0)
(2.24244 0.84642 0)
(2.24922 0.848137 0)
(2.25592 0.848654 0)
(2.26215 0.847275 0)
(2.26774 0.844513 0)
(2.27185 0.84156 0)
(2.2736 0.83685 0)
(2.2708 0.827678 0)
(2.26496 0.814873 0)
(2.26664 0.807763 0)
(2.27145 0.807384 0)
(2.27718 0.807606 0)
(2.28472 0.806635 0)
(2.29136 0.80542 0)
(2.29796 0.804768 0)
(2.30243 0.803541 0)
(2.30599 0.801489 0)
(2.30719 0.794937 0)
(2.30298 0.782914 0)
(2.29922 0.770909 0)
(2.30286 0.767019 0)
(2.30808 0.76823 0)
(2.31498 0.76921 0)
(2.32311 0.7701 0)
(2.32905 0.769387 0)
(2.33486 0.76809 0)
(2.3401 0.766172 0)
(2.34412 0.762319 0)
(2.34458 0.754147 0)
(2.33867 0.7413 0)
(2.33391 0.729819 0)
(2.3354 0.725669 0)
(2.3388 0.726781 0)
(2.34749 0.730254 0)
(2.35977 0.735444 0)
(2.36787 0.736619 0)
(2.37344 0.73458 0)
(2.37874 0.729024 0)
(2.38056 0.721122 0)
(2.37591 0.708125 0)
(2.36595 0.689851 0)
(2.36171 0.677802 0)
(2.36438 0.672817 0)
(2.36843 0.672891 0)
(2.3751 0.67338 0)
(2.38656 0.679918 0)
(2.40039 0.686882 0)
(2.41123 0.69607 0)
(2.4058 0.681904 0)
(2.38142 0.624011 0)
(2.2936 0.455104 0)
(2.19468 0.272566 0)
(2.08652 0.0861829 0)
(2.02117 -0.0228484 0)
(2.01725 -0.0420098 0)
(2.02672 -0.0372963 0)
(2.03343 -0.0346936 0)
(2.04007 -0.036711 0)
(2.04259 -0.0429883 0)
(2.0383 -0.0527199 0)
(2.03629 -0.0591172 0)
(2.04186 -0.0591188 0)
(2.04987 -0.0560558 0)
(2.06577 -0.0476752 0)
(2.0828 -0.0384018 0)
(2.0904 -0.0366464 0)
(2.09672 -0.038479 0)
(2.09817 -0.0448954 0)
(2.0916 -0.059055 0)
(2.08175 -0.0770201 0)
(2.08198 -0.0846995 0)
(2.08804 -0.0848406 0)
(2.09693 -0.0811274 0)
(2.11269 -0.0712069 0)
(2.12793 -0.0617219 0)
(2.13425 -0.0600297 0)
(2.13978 -0.0621173 0)
(2.1377 -0.069717 0)
(2.12792 -0.0854672 0)
(2.12176 -0.0991521 0)
(2.12587 -0.103269 0)
(2.13192 -0.101422 0)
(2.14415 -0.0944067 0)
(2.16309 -0.0807131 0)
(2.17752 -0.0722561 0)
(2.18296 -0.072331 0)
(2.18723 -0.0770163 0)
(2.18406 -0.0878538 0)
(2.17276 -0.105493 0)
(2.16313 -0.116137 0)
(2.16467 -0.117076 0)
(2.16996 -0.115778 0)
(2.18096 -0.113203 0)
(2.2002 -0.103322 0)
(2.21977 -0.0913498 0)
(2.22754 -0.0885602 0)
(2.23291 -0.0900985 0)
(2.23456 -0.0955392 0)
(2.2274 -0.107631 0)
(2.21422 -0.124768 0)
(2.20739 -0.133618 0)
(2.21102 -0.13513 0)
(2.21626 -0.133966 0)
(2.22381 -0.13171 0)
(2.23615 -0.125832 0)
(2.25026 -0.117822 0)
(2.25831 -0.115068 0)
(2.26406 -0.115796 0)
(2.2695 -0.117625 0)
(2.27178 -0.121875 0)
(2.26664 -0.13113 0)
(2.25789 -0.142757 0)
(2.2585 -0.147483 0)
(2.2627 -0.14704 0)
(2.26652 -0.146607 0)
(2.26764 -0.15429 0)
(2.25277 -0.185283 0)
(2.22235 -0.230835 0)
(2.1594 -0.307054 0)
(2.13088 -0.343499 0)
(2.11369 -0.36059 0)
(2.10851 -0.373089 0)
(2.1052 -0.384281 0)
(2.1081 -0.38809 0)
(2.11399 -0.387341 0)
(2.12049 -0.382555 0)
(2.12917 -0.379129 0)
(2.13632 -0.379247 0)
(2.14219 -0.380466 0)
(2.1456 -0.382563 0)
(2.14409 -0.387557 0)
(2.13974 -0.393867 0)
(2.14236 -0.396228 0)
(2.14784 -0.39595 0)
(2.15613 -0.39419 0)
(2.16814 -0.38966 0)
(2.17566 -0.387328 0)
(2.18142 -0.3885 0)
(2.18576 -0.391154 0)
(2.18489 -0.396802 0)
(2.17953 -0.405772 0)
(2.18014 -0.410676 0)
(2.18546 -0.411033 0)
(2.19179 -0.408917 0)
(2.20237 -0.40421 0)
(2.21314 -0.398243 0)
(2.21864 -0.39709 0)
(2.22433 -0.397959 0)
(2.22742 -0.400128 0)
(2.22505 -0.405624 0)
(2.22079 -0.41264 0)
(2.22385 -0.415333 0)
(2.22955 -0.415336 0)
(2.2359 -0.413462 0)
(2.24416 -0.409703 0)
(2.25112 -0.405724 0)
(2.2564 -0.405276 0)
(2.26158 -0.405611 0)
(2.26531 -0.406643 0)
(2.26607 -0.410027 0)
(2.26194 -0.41634 0)
(2.26023 -0.420243 0)
(2.26482 -0.420383 0)
(2.27005 -0.419711 0)
(2.27605 -0.418781 0)
(2.28259 -0.417348 0)
(2.2882 -0.416459 0)
(2.29346 -0.416467 0)
(2.29821 -0.416565 0)
(2.30179 -0.417115 0)
(2.30349 -0.418736 0)
(2.30324 -0.421463 0)
(2.30549 -0.423137 0)
(2.31009 -0.422547 0)
(2.31463 -0.421705 0)
(2.31953 -0.421633 0)
(2.32442 -0.421891 0)
(2.32882 -0.422336 0)
(2.33198 -0.423425 0)
(2.33306 -0.425387 0)
(2.33363 -0.427699 0)
(2.33722 -0.428804 0)
(2.34187 -0.42886 0)
(2.34654 -0.428607 0)
(2.35102 -0.428155 0)
(2.35517 -0.427724 0)
(2.35889 -0.427501 0)
(2.36187 -0.427705 0)
(2.36381 -0.42856 0)
(2.3653 -0.429867 0)
(2.36784 -0.430705 0)
(2.37178 -0.430685 0)
(2.37627 -0.430181 0)
(2.38075 -0.429517 0)
(2.385 -0.429073 0)
(2.38891 -0.428971 0)
(2.39206 -0.429192 0)
(2.39364 -0.42994 0)
(2.39392 -0.430723 0)
(2.39556 -0.43067 0)
(2.39892 -0.43024 0)
(2.40273 -0.42978 0)
(2.40645 -0.4293 0)
(2.41009 -0.429427 0)
(2.4139 -0.430207 0)
(2.41764 -0.431221 0)
(2.42029 -0.433452 0)
(2.41953 -0.437845 0)
(2.41945 -0.439936 0)
(2.42324 -0.439367 0)
(2.42729 -0.438405 0)
(2.43174 -0.437392 0)
(2.43621 -0.436485 0)
(2.44062 -0.435453 0)
(2.44465 -0.434088 0)
(2.44765 -0.432581 0)
(2.44893 -0.431479 0)
(2.44816 -0.431386 0)
(2.44646 -0.432631 0)
(2.44789 -0.433694 0)
(2.45167 -0.433302 0)
(2.45566 -0.433026 0)
(2.45991 -0.433184 0)
(2.46442 -0.433354 0)
(2.46888 -0.433603 0)
(2.47323 -0.434222 0)
(2.47745 -0.435006 0)
(2.48105 -0.435908 0)
(2.48299 -0.436303 0)
(2.48278 -0.435297 0)
(2.48291 -0.433325 0)
(2.48495 -0.431939 0)
(2.48789 -0.431413 0)
(2.49106 -0.431667 0)
(2.49408 -0.432755 0)
(2.59378 0.525425 0)
(2.597 0.525327 0)
(2.60122 0.523758 0)
(2.60545 0.522657 0)
(2.60974 0.521073 0)
(2.60951 0.521204 0)
(2.59896 0.533062 0)
(2.56468 0.573281 0)
(2.38468 0.724018 0)
(2.26033 0.828283 0)
(2.21184 0.869607 0)
(2.20784 0.895029 0)
(2.20853 0.894946 0)
(2.20925 0.892264 0)
(2.21157 0.886816 0)
(2.21514 0.882568 0)
(2.22124 0.879077 0)
(2.22636 0.875375 0)
(2.22853 0.869028 0)
(2.22692 0.857968 0)
(2.22626 0.851551 0)
(2.23057 0.852933 0)
(2.2358 0.853899 0)
(2.2427 0.854211 0)
(2.25034 0.853881 0)
(2.25692 0.85287 0)
(2.26267 0.851367 0)
(2.2676 0.848849 0)
(2.27008 0.844387 0)
(2.26756 0.836002 0)
(2.26099 0.822657 0)
(2.26151 0.813917 0)
(2.26675 0.812991 0)
(2.27229 0.813226 0)
(2.28027 0.8136 0)
(2.28608 0.81222 0)
(2.29277 0.811835 0)
(2.29795 0.810535 0)
(2.30182 0.808579 0)
(2.30303 0.802977 0)
(2.29897 0.791512 0)
(2.29418 0.778387 0)
(2.2973 0.773375 0)
(2.30267 0.774341 0)
(2.30964 0.774993 0)
(2.31774 0.775809 0)
(2.32444 0.775634 0)
(2.33008 0.774806 0)
(2.33544 0.773366 0)
(2.33972 0.770334 0)
(2.34069 0.76299 0)
(2.33551 0.750722 0)
(2.33071 0.738926 0)
(2.33225 0.734292 0)
(2.33579 0.735155 0)
(2.34409 0.738128 0)
(2.35572 0.742297 0)
(2.36269 0.743185 0)
(2.36852 0.741264 0)
(2.37358 0.736212 0)
(2.37525 0.728151 0)
(2.37023 0.714904 0)
(2.36031 0.696715 0)
(2.35675 0.685203 0)
(2.35968 0.681011 0)
(2.36387 0.681051 0)
(2.37126 0.683283 0)
(2.38436 0.68864 0)
(2.3991 0.700618 0)
(2.40347 0.698471 0)
(2.39126 0.66554 0)
(2.32199 0.52866 0)
(2.21231 0.328098 0)
(2.12546 0.155137 0)
(2.02385 0.0114532 0)
(2.00874 -0.0509414 0)
(2.00828 -0.0458749 0)
(2.02404 -0.0294186 0)
(2.03338 -0.0247611 0)
(2.04021 -0.0260736 0)
(2.0426 -0.0330924 0)
(2.03824 -0.0464298 0)
(2.03653 -0.0553002 0)
(2.04185 -0.0558549 0)
(2.04912 -0.0515386 0)
(2.06389 -0.0414026 0)
(2.08097 -0.0304532 0)
(2.0889 -0.0282314 0)
(2.09539 -0.0304297 0)
(2.09688 -0.0374992 0)
(2.09007 -0.0515754 0)
(2.07973 -0.0683949 0)
(2.07957 -0.0757592 0)
(2.08577 -0.0762708 0)
(2.09517 -0.0731033 0)
(2.11152 -0.0634637 0)
(2.12687 -0.0539624 0)
(2.1328 -0.0525577 0)
(2.13806 -0.0554969 0)
(2.13658 -0.0638957 0)
(2.12722 -0.0783747 0)
(2.119 -0.0885223 0)
(2.12162 -0.0904996 0)
(2.12745 -0.0889041 0)
(2.14036 -0.0838322 0)
(2.16009 -0.0718722 0)
(2.1754 -0.0641274 0)
(2.1816 -0.0640162 0)
(2.18615 -0.0677674 0)
(2.18149 -0.0776144 0)
(2.16831 -0.0968725 0)
(2.16152 -0.112735 0)
(2.16563 -0.118541 0)
(2.17123 -0.117932 0)
(2.1815 -0.111709 0)
(2.19939 -0.0972896 0)
(2.2185 -0.0831263 0)
(2.22645 -0.0799538 0)
(2.23204 -0.081588 0)
(2.23384 -0.0870253 0)
(2.22646 -0.0990432 0)
(2.21296 -0.117327 0)
(2.20717 -0.128107 0)
(2.21092 -0.130611 0)
(2.21593 -0.129046 0)
(2.223 -0.125443 0)
(2.23476 -0.118636 0)
(2.24855 -0.109917 0)
(2.25708 -0.106665 0)
(2.26282 -0.107219 0)
(2.26864 -0.10875 0)
(2.27175 -0.112277 0)
(2.26817 -0.120495 0)
(2.25895 -0.132751 0)
(2.25699 -0.139154 0)
(2.2609 -0.139431 0)
(2.26361 -0.139485 0)
(2.2634 -0.14851 0)
(2.24568 -0.18229 0)
(2.21453 -0.22942 0)
(2.15337 -0.302826 0)
(2.12608 -0.340785 0)
(2.11018 -0.355211 0)
(2.10769 -0.362583 0)
(2.10595 -0.37473 0)
(2.10626 -0.381096 0)
(2.11139 -0.381061 0)
(2.11768 -0.377235 0)
(2.12695 -0.372213 0)
(2.13455 -0.371213 0)
(2.14128 -0.372412 0)
(2.14531 -0.374291 0)
(2.14463 -0.379066 0)
(2.13988 -0.386406 0)
(2.14096 -0.390237 0)
(2.14622 -0.390177 0)
(2.15341 -0.388038 0)
(2.16529 -0.383204 0)
(2.1745 -0.379727 0)
(2.18006 -0.380366 0)
(2.18484 -0.382814 0)
(2.18487 -0.388299 0)
(2.17962 -0.396888 0)
(2.17785 -0.401337 0)
(2.18278 -0.401557 0)
(2.1887 -0.40002 0)
(2.19883 -0.396774 0)
(2.21087 -0.391165 0)
(2.21712 -0.389288 0)
(2.22299 -0.390284 0)
(2.22691 -0.392751 0)
(2.2258 -0.398122 0)
(2.22066 -0.405494 0)
(2.2215 -0.408623 0)
(2.22693 -0.408671 0)
(2.23298 -0.407026 0)
(2.24165 -0.403925 0)
(2.25049 -0.399179 0)
(2.25567 -0.397767 0)
(2.26117 -0.397765 0)
(2.26512 -0.398321 0)
(2.26632 -0.401082 0)
(2.26256 -0.407195 0)
(2.2593 -0.412633 0)
(2.26312 -0.414006 0)
(2.26817 -0.413537 0)
(2.27396 -0.412241 0)
(2.28045 -0.410487 0)
(2.28629 -0.409262 0)
(2.29175 -0.409211 0)
(2.29679 -0.409384 0)
(2.30088 -0.409932 0)
(2.30322 -0.411653 0)
(2.30297 -0.415133 0)
(2.30483 -0.417766 0)
(2.30966 -0.417685 0)
(2.31423 -0.416235 0)
(2.31883 -0.415131 0)
(2.32335 -0.414568 0)
(2.3275 -0.414457 0)
(2.33104 -0.415135 0)
(2.3333 -0.417112 0)
(2.3336 -0.420289 0)
(2.33574 -0.42176 0)
(2.34012 -0.421577 0)
(2.34468 -0.42119 0)
(2.3493 -0.420735 0)
(2.35378 -0.420462 0)
(2.35796 -0.420527 0)
(2.36152 -0.42095 0)
(2.36395 -0.421744 0)
(2.36505 -0.42269 0)
(2.36653 -0.423385 0)
(2.37015 -0.423521 0)
(2.37465 -0.423389 0)
(2.3793 -0.423188 0)
(2.38386 -0.422959 0)
(2.38803 -0.422742 0)
(2.39142 -0.422612 0)
(2.39355 -0.422655 0)
(2.39423 -0.423071 0)
(2.39517 -0.423411 0)
(2.39807 -0.423156 0)
(2.40179 -0.42269 0)
(2.40552 -0.422221 0)
(2.409 -0.421614 0)
(2.41208 -0.421125 0)
(2.41466 -0.421495 0)
(2.41629 -0.423263 0)
(2.41614 -0.426374 0)
(2.41814 -0.429871 0)
(2.42224 -0.431157 0)
(2.42604 -0.431292 0)
(2.43042 -0.430944 0)
(2.43478 -0.430405 0)
(2.43906 -0.429878 0)
(2.4434 -0.429178 0)
(2.44767 -0.428195 0)
(2.45104 -0.427188 0)
(2.45171 -0.426819 0)
(2.44899 -0.427691 0)
(2.44747 -0.428211 0)
(2.45006 -0.427055 0)
(2.45395 -0.425989 0)
(2.45802 -0.425163 0)
(2.46202 -0.424677 0)
(2.46604 -0.424867 0)
(2.47018 -0.425433 0)
(2.47442 -0.425951 0)
(2.47853 -0.42664 0)
(2.48198 -0.428001 0)
(2.48414 -0.42966 0)
(2.48515 -0.430099 0)
(2.48676 -0.428698 0)
(2.48924 -0.426619 0)
(2.49163 -0.424582 0)
(2.49345 -0.423168 0)
(2.4949 -0.423048 0)
(2.59258 0.531729 0)
(2.59731 0.531132 0)
(2.60086 0.529659 0)
(2.605 0.528088 0)
(2.60919 0.526088 0)
(2.6105 0.521817 0)
(2.60481 0.517944 0)
(2.59427 0.527124 0)
(2.53572 0.580753 0)
(2.36714 0.748366 0)
(2.25466 0.866759 0)
(2.23653 0.880167 0)
(2.21483 0.884416 0)
(2.20869 0.888738 0)
(2.20834 0.889039 0)
(2.21278 0.887507 0)
(2.21999 0.885296 0)
(2.22583 0.881687 0)
(2.2257 0.872684 0)
(2.2232 0.859783 0)
(2.22678 0.856839 0)
(2.23122 0.857108 0)
(2.23742 0.857515 0)
(2.24468 0.858197 0)
(2.25149 0.858051 0)
(2.2574 0.85706 0)
(2.26269 0.85504 0)
(2.26638 0.851053 0)
(2.26521 0.843358 0)
(2.25796 0.830877 0)
(2.25646 0.820609 0)
(2.26179 0.818406 0)
(2.26762 0.818568 0)
(2.27528 0.81897 0)
(2.28205 0.818753 0)
(2.28774 0.818139 0)
(2.29339 0.817552 0)
(2.29772 0.815692 0)
(2.29953 0.810592 0)
(2.29558 0.80044 0)
(2.28949 0.786648 0)
(2.29152 0.779767 0)
(2.29696 0.780331 0)
(2.30383 0.780756 0)
(2.31207 0.781308 0)
(2.31939 0.781446 0)
(2.32527 0.781017 0)
(2.33077 0.780175 0)
(2.33542 0.777953 0)
(2.33694 0.771432 0)
(2.33241 0.759983 0)
(2.32736 0.747964 0)
(2.32885 0.742688 0)
(2.33237 0.743152 0)
(2.3404 0.745329 0)
(2.35131 0.748624 0)
(2.35761 0.749224 0)
(2.36368 0.747533 0)
(2.36867 0.743136 0)
(2.37038 0.735484 0)
(2.3652 0.722373 0)
(2.35538 0.704326 0)
(2.35181 0.693075 0)
(2.35519 0.689444 0)
(2.35924 0.689403 0)
(2.36731 0.693125 0)
(2.38081 0.698594 0)
(2.39444 0.710209 0)
(2.39216 0.690924 0)
(2.34732 0.597366 0)
(2.23787 0.389661 0)