/*--------------------------------*- C++ -*----------------------------------*\
  =========                 |
  \\      /  F ield         | OpenFOAM: The Open Source CFD Toolbox
   \\    /   O peration     | Website:  https://openfoam.org
    \\  /    A nd           | Version:  7
     \\/     M anipulation  |
\*---------------------------------------------------------------------------*/
FoamFile
{
    version     2.0;
    format      ascii;
    class       volScalarField;
    location    "3.3";
    object      rho;
}
// * * * * * * * * * * * * * * * * * * * * * * * * * * * * * * * * * * * * * //

dimensions      [1 -3 0 0 0 0 0];

internalField   nonuniform List<scalar> 
16192
(
2.04546
2.04365
2.03976
2.03191
2.01647
2.0056
2.00171
1.99999
1.9994
2.00328
2.00925
2.00881
2.00648
2.003
1.99535
1.98154
1.97081
1.96801
1.96697
1.96676
1.96975
1.97415
1.97464
1.97273
1.96847
1.95962
1.94621
1.93449
1.92865
1.92695
1.92653
1.92686
1.93096
1.94122
1.9529
1.95534
1.95338
1.9453
1.9355
1.93296
1.93215
1.93092
1.92905
1.92522
1.92097
1.91783
1.91606
1.91462
1.91324
1.91171
1.90952
1.90682
1.90366
1.89887
1.88841
1.86929
1.85502
1.85179
1.85084
1.85025
1.85037
1.8537
1.86213
1.86645
1.86509
1.8635
1.86214
1.85979
1.85135
1.8325
1.81738
1.81362
1.8119
1.81034
1.80897
1.80812
1.80783
1.80807
1.81045
1.81261
1.81333
1.81342
1.81349
1.81261
1.80741
1.79806
1.79126
1.78852
1.78658
1.78534
1.78551
1.78811
1.79313
1.80015
1.80625
1.80754
1.80648
1.8048
1.80022
1.78901
1.76964
1.75657
1.75285
1.75154
1.75076
1.75254
1.75701
1.75676
1.75562
1.75497
1.7536
1.74841
1.73699
1.72819
1.72604
1.72563
1.72677
1.72999
1.72961
1.72829
1.72687
1.72437
1.7159
1.69593
1.6801
1.67673
1.67573
1.67492
1.67518
1.68128
1.69125
1.69406
1.69366
1.6932
1.69256
1.69164
1.69055
1.68918
1.68592
1.67606
1.65916
1.64772
1.64444
1.64359
1.64293
1.6425
1.64319
1.64956
1.66217
1.66757
1.66755
1.66764
1.66749
1.66623
1.66248
1.64932
1.62777
1.61834
1.61744
1.61696
1.61648
1.61607
1.6158
1.61669
1.62195
1.63388
1.64297
1.64359
1.64275
1.64155
1.63931
1.63542
1.62824
1.61469
1.59396
1.57639
1.57151
1.5703
1.56975
1.5715
1.57793
1.5819
1.58228
1.58215
1.58383
1.58676
1.58622
1.58493
1.58428
1.5843
1.58383
1.58295
1.58117
1.57608
1.56591
1.55698
1.55342
1.55144
1.54937
1.54506
1.53866
1.53359
1.5312
1.52999
1.52885
1.52758
1.52617
1.5255
1.52538
1.52557
1.52596
1.52705
1.52939
1.53249
1.53663
1.53941
1.53889
1.53546
1.53275
1.53135
1.52942
1.52559
1.51963
1.51512
1.51403
1.51403
1.51683
1.5251
1.53872
1.54584
1.54505
1.54512
1.56437
1.62058
1.73516
1.90503
2.11149
2.24065
2.32299
2.36779
2.36956
2.37385
2.38977
2.40802
2.42978
2.4466
2.45018
2.44995
2.44598
2.43379
2.41267
2.39063
2.38214
2.04059
2.03983
2.03829
2.03371
2.02219
2.00752
2.00122
1.99884
1.99779
1.99994
2.0035
2.00231
2.00009
1.99673
1.98749
1.96999
1.96129
1.95999
1.95939
1.96065
1.96816
1.97715
1.97838
1.97636
1.97218
1.962
1.9417
1.92267
1.91664
1.91551
1.9152
1.91648
1.92433
1.94167
1.95303
1.95377
1.95209
1.94629
1.93421
1.92638
1.92541
1.92477
1.92414
1.92318
1.92067
1.91685
1.91287
1.90997
1.90788
1.9061
1.90442
1.90233
1.89981
1.89703
1.89327
1.88442
1.86639
1.85299
1.85016
1.84926
1.84841
1.84792
1.84984
1.85743
1.86067
1.85913
1.85763
1.85608
1.85212
1.83914
1.81838
1.80979
1.80863
1.80735
1.8061
1.80536
1.80564
1.80815
1.80906
1.80854
1.80753
1.80615
1.80447
1.8034
1.80182
1.79695
1.79148
1.78843
1.78648
1.78534
1.78539
1.7862
1.78753
1.79027
1.79478
1.79931
1.80026
1.7992
1.79724
1.79218
1.78015
1.76166
1.75083
1.74776
1.74671
1.74614
1.74887
1.7543
1.75428
1.75306
1.75159
1.7499
1.74478
1.73294
1.72575
1.72446
1.72416
1.72483
1.72409
1.72256
1.72105
1.71909
1.71476
1.70268
1.68405
1.67597
1.67463
1.67395
1.67405
1.6798
1.68956
1.69109
1.69015
1.68933
1.68841
1.68708
1.68539
1.68368
1.68168
1.67725
1.66686
1.65232
1.64351
1.64053
1.63959
1.63899
1.63864
1.64045
1.64948
1.66189
1.66739
1.66776
1.66702
1.66571
1.66303
1.6549
1.63376
1.61627
1.61291
1.61255
1.61216
1.61196
1.61245
1.6149
1.62192
1.63307
1.63673
1.63599
1.63442
1.63233
1.62935
1.62518
1.62004
1.61403
1.60499
1.5904
1.57605
1.57197
1.5717
1.57535
1.57848
1.57819
1.57747
1.57701
1.57715
1.58019
1.58302
1.58229
1.58125
1.58073
1.58012
1.5791
1.57799
1.5762
1.57084
1.5614
1.55388
1.55015
1.54727
1.54365
1.53813
1.53289
1.52975
1.52722
1.52461
1.52194
1.52038
1.51974
1.51934
1.51946
1.52175
1.52471
1.52849
1.53422
1.53862
1.53983
1.53918
1.53474
1.52859
1.52394
1.51988
1.5152
1.51084
1.50879
1.50835
1.50888
1.51452
1.53194
1.54667
1.54758
1.54558
1.54296
1.5373
1.52615
1.53376
1.57221
1.70259
1.89196
2.0862
2.21097
2.28845
2.33836
2.37231
2.39967
2.43643
2.46102
2.46348
2.46114
2.45496
2.44471
2.42868
2.39795
2.36871
2.03279
2.03204
2.03086
2.029
2.02434
2.01477
2.00574
2.00128
1.9992
1.99847
1.99864
1.99725
1.99503
1.99102
1.97987
1.9624
1.95485
1.95337
1.95273
1.95471
1.96737
1.97816
1.97759
1.97476
1.97043
1.96029
1.93679
1.91677
1.9103
1.90829
1.90782
1.90951
1.91996
1.9379
1.9463
1.94731
1.94724
1.94442
1.93566
1.92312
1.91815
1.91754
1.91795
1.91777
1.91611
1.91334
1.90971
1.90582
1.90288
1.90091
1.89963
1.8995
1.89856
1.89704
1.89567
1.89264
1.88293
1.8627
1.84904
1.84625
1.84476
1.8434
1.84272
1.84528
1.85341
1.85506
1.85328
1.85164
1.84956
1.84269
1.82449
1.80845
1.80506
1.80427
1.8033
1.8029
1.80451
1.80594
1.80553
1.80443
1.80308
1.80128
1.79811
1.79404
1.79187
1.7908
1.78954
1.78873
1.78841
1.78776
1.7864
1.78476
1.78379
1.7835
1.78446
1.78709
1.79052
1.79139
1.79039
1.78828
1.7829
1.77055
1.75414
1.74638
1.74408
1.74325
1.74307
1.74762
1.75387
1.7536
1.75254
1.75122
1.74835
1.74152
1.72938
1.72195
1.72073
1.72039
1.71914
1.71727
1.7152
1.71275
1.70953
1.70344
1.69129
1.67823
1.67461
1.67408
1.67448
1.67907
1.68616
1.68706
1.68585
1.68483
1.68382
1.68258
1.68089
1.67855
1.676
1.67331
1.66823
1.65803
1.64598
1.63921
1.63649
1.63535
1.63461
1.63471
1.64052
1.65401
1.6614
1.66211
1.66193
1.66148
1.66053
1.65656
1.64238
1.61961
1.60997
1.60876
1.60846
1.60835
1.60984
1.61527
1.62618
1.63061
1.63012
1.62866
1.62647
1.62322
1.61904
1.61477
1.61131
1.60882
1.60649
1.60217
1.59274
1.58
1.57548
1.57494
1.57494
1.57447
1.57383
1.57344
1.5732
1.57406
1.57757
1.57843
1.5772
1.57621
1.57575
1.57516
1.57418
1.57305
1.57115
1.56565
1.55664
1.54995
1.54623
1.54279
1.53873
1.53397
1.52861
1.52383
1.51982
1.51707
1.51564
1.51479
1.51413
1.51396
1.51719
1.5243
1.53047
1.53554
1.53818
1.539
1.53858
1.53412
1.52526
1.51653
1.51101
1.50731
1.50475
1.50392
1.50397
1.5063
1.51492
1.53287
1.54312
1.54313
1.54177
1.54001
1.53472
1.52203
1.49889
1.49111
1.50774
1.56639
1.70657
1.9104
2.14753
2.25276
2.29455
2.34559
2.39471
2.43643
2.45249
2.45607
2.45467
2.45185
2.44313
2.41868
2.37205
2.025
2.02392
2.02321
2.02189
2.01976
2.01663
2.01303
2.00906
2.004
1.99806
1.99283
1.99025
1.9877
1.98295
1.97249
1.95873
1.95222
1.95036
1.94941
1.95067
1.95958
1.96971
1.97093
1.96907
1.96576
1.95666
1.9361
1.91624
1.9092
1.90648
1.90546
1.90684
1.91538
1.92998
1.93724
1.93829
1.93846
1.93807
1.9337
1.92327
1.91306
1.91026
1.91016
1.91094
1.91027
1.90836
1.90562
1.90215
1.89909
1.89739
1.89623
1.89631
1.89857
1.89916
1.89771
1.89562
1.89092
1.87596
1.85323
1.84329
1.84101
1.83921
1.83774
1.83728
1.84199
1.84895
1.84834
1.84659
1.84498
1.84209
1.83198
1.81265
1.80231
1.80089
1.80025
1.79984
1.80111
1.80279
1.80206
1.80089
1.7997
1.79812
1.7948
1.78832
1.78346
1.78261
1.78317
1.78539
1.78716
1.78766
1.78739
1.78561
1.78186
1.77858
1.77714
1.77711
1.77858
1.78077
1.7813
1.78031
1.77817
1.77322
1.76257
1.74914
1.74298
1.74123
1.74061
1.7408
1.74484
1.74875
1.74852
1.74744
1.74607
1.74365
1.73633
1.72362
1.71745
1.71582
1.71384
1.71138
1.70893
1.70639
1.70377
1.70105
1.69569
1.68499
1.67686
1.67553
1.67562
1.6774
1.68133
1.68298
1.68205
1.68106
1.68025
1.67936
1.67807
1.67548
1.67108
1.66671
1.66303
1.65783
1.64955
1.64061
1.63598
1.6341
1.63319
1.63313
1.63685
1.64766
1.65692
1.65804
1.65722
1.65645
1.65564
1.65376
1.64644
1.62821
1.61065
1.6062
1.60583
1.60603
1.60831
1.61709
1.62456
1.62498
1.62372
1.62168
1.61813
1.61234
1.60704
1.60501
1.60454
1.60484
1.60588
1.60644
1.60504
1.59856
1.58489
1.57566
1.57346
1.57215
1.57087
1.57
1.56937
1.569
1.57012
1.57322
1.57285
1.57167
1.57093
1.57048
1.56977
1.56882
1.56779
1.56586
1.56054
1.55297
1.54737
1.54367
1.53951
1.53278
1.52479
1.51907
1.51614
1.51421
1.51265
1.51165
1.51109
1.51141
1.51526
1.52424
1.53275
1.53596
1.53709
1.53742
1.53662
1.53156
1.51939
1.50797
1.50347
1.50128
1.49968
1.49925
1.50028
1.5048
1.5185
1.5342
1.53864
1.53828
1.53689
1.53506
1.53064
1.51712
1.4957
1.48721
1.4852
1.48771
1.51206
1.59556
1.76927
1.96957
2.14762
2.31166
2.35608
2.39377
2.41799
2.43507
2.445
2.44553
2.44026
2.42379
2.38194
2.01746
2.01588
2.01468
2.01382
2.01383
2.01488
2.01489
2.01257
2.00804
2.00029
1.99107
1.98384
1.97864
1.97332
1.96636
1.95717
1.95171
1.94988
1.9489
1.94953
1.95405
1.95836
1.95864
1.95683
1.95397
1.94819
1.93562
1.92122
1.9119
1.90733
1.90591
1.90731
1.91403
1.92175
1.9259
1.92705
1.92726
1.92724
1.9266
1.92143
1.91177
1.90457
1.90262
1.9029
1.9033
1.90227
1.9001
1.89755
1.89562
1.89455
1.89394
1.89544
1.90206
1.90324
1.90147
1.89907
1.89468
1.8843
1.86147
1.84214
1.83723
1.83512
1.83323
1.83188
1.83264
1.84
1.8436
1.84223
1.84075
1.8392
1.83465
1.82072
1.80357
1.79766
1.79669
1.79612
1.79645
1.7985
1.7985
1.79763
1.79663
1.79524
1.79227
1.78575
1.77948
1.77699
1.77621
1.77681
1.78035
1.78402
1.78455
1.78371
1.7816
1.77669
1.77187
1.76979
1.76938
1.76951
1.77028
1.77078
1.77018
1.76886
1.76557
1.75775
1.74681
1.74064
1.73894
1.73847
1.73922
1.74395
1.74669
1.74613
1.74525
1.74368
1.7395
1.72905
1.71467
1.70822
1.70635
1.70493
1.7036
1.70217
1.70054
1.69892
1.69686
1.6917
1.68248
1.67747
1.67671
1.67658
1.67737
1.67889
1.67864
1.67767
1.67674
1.67576
1.6744
1.67195
1.66728
1.66038
1.6555
1.65339
1.65062
1.64513
1.63803
1.63446
1.63348
1.63342
1.63615
1.64206
1.64818
1.65179
1.65212
1.65125
1.6502
1.6488
1.64547
1.63605
1.61803
1.60599
1.60429
1.60476
1.60948
1.61701
1.61915
1.61831
1.61674
1.61403
1.60851
1.60186
1.59903
1.59834
1.59854
1.60206
1.60787
1.61118
1.6113
1.60912
1.60056
1.58339
1.57133
1.56839
1.56694
1.56577
1.56485
1.56418
1.56418
1.56723
1.5691
1.56802
1.56696
1.56616
1.56519
1.56424
1.56333
1.56242
1.56071
1.55709
1.55292
1.54796
1.54121
1.53147
1.52077
1.51582
1.51417
1.51292
1.51163
1.51053
1.50985
1.51024
1.51593
1.52522
1.52991
1.53179
1.53265
1.53284
1.53195
1.52497
1.50829
1.49846
1.49693
1.49622
1.49596
1.49658
1.4985
1.50653
1.52233
1.53014
1.53163
1.53159
1.53019
1.5277
1.52313
1.51104
1.49327
1.48549
1.48519
1.48637
1.48631
1.49294
1.5274
1.6396
1.80603
2.02949
2.19491
2.31228
2.38586
2.42784
2.43535
2.43614
2.42977
2.4179
2.38927
2.01044
2.00839
2.0071
2.00627
2.00783
2.01337
2.01433
2.01262
2.00976
2.00391
1.99286
1.98032
1.97081
1.96459
1.96098
1.95758
1.95392
1.95242
1.95189
1.94982
1.94758
1.94623
1.94551
1.94367
1.94051
1.93624
1.93068
1.92477
1.92068
1.91694
1.91456
1.91583
1.9169
1.91475
1.91387
1.91429
1.91502
1.91504
1.91494
1.91409
1.9094
1.90221
1.8966
1.89492
1.89529
1.89517
1.89401
1.89278
1.89192
1.8916
1.89251
1.89654
1.90065
1.89997
1.89814
1.89606
1.89334
1.88665
1.86845
1.8438
1.83448
1.83207
1.83011
1.82851
1.82787
1.8317
1.83821
1.8384
1.83686
1.83534
1.83333
1.82609
1.80986
1.79742
1.79362
1.79244
1.79218
1.79353
1.79456
1.79402
1.79299
1.79166
1.78939
1.78373
1.77748
1.77492
1.77329
1.77203
1.77211
1.77454
1.77788
1.77912
1.77841
1.77574
1.77024
1.76467
1.76188
1.76086
1.76045
1.76044
1.76147
1.76255
1.76205
1.75988
1.75422
1.74549
1.73891
1.73675
1.73638
1.73726
1.74114
1.74236
1.74115
1.73963
1.73719
1.7305
1.71568
1.70385
1.70123
1.70031
1.69939
1.69908
1.69919
1.69839
1.6975
1.69546
1.69015
1.68063
1.67623
1.67509
1.67428
1.67372
1.67371
1.67368
1.67274
1.67169
1.6705
1.66865
1.66484
1.65728
1.64948
1.64734
1.64707
1.6461
1.64251
1.63845
1.63633
1.63588
1.63727
1.63909
1.64023
1.64199
1.64458
1.64554
1.6448
1.64337
1.6414
1.63752
1.62853
1.61335
1.60465
1.60414
1.60662
1.61128
1.61182
1.61091
1.6093
1.6057
1.59912
1.59441
1.59314
1.59273
1.59414
1.60062
1.61079
1.61551
1.61556
1.61434
1.60968
1.59451
1.57297
1.56416
1.56277
1.56174
1.56077
1.56
1.55964
1.56149
1.56469
1.56411
1.56274
1.56178
1.5608
1.55952
1.55869
1.55824
1.55814
1.55783
1.55588
1.55223
1.54501
1.53231
1.51953
1.5137
1.51246
1.51181
1.51111
1.51036
1.50983
1.51091
1.51632
1.52274
1.52665
1.52803
1.52805
1.52757
1.52562
1.51584
1.49822
1.49258
1.49307
1.49353
1.49386
1.49515
1.49971
1.51243
1.52464
1.52611
1.52579
1.52519
1.52303
1.51892
1.51332
1.50372
1.49168
1.48706
1.48664
1.48639
1.48699
1.48706
1.48743
1.50021
1.54117
1.65346
1.83995
2.04055
2.18771
2.31126
2.38809
2.41796
2.42208
2.42032
2.40343
2.00312
2.00154
2.00045
1.99973
2.00139
2.0101
2.01463
2.01318
2.01041
2.0053
1.99419
1.97707
1.96582
1.96065
1.95778
1.95708
1.95673
1.95543
1.95278
1.94854
1.94268
1.93714
1.93358
1.93065
1.92618
1.9235
1.92257
1.92239
1.92319
1.92573
1.92591
1.92342
1.91851
1.91156
1.90524
1.90341
1.90313
1.90272
1.90246
1.90234
1.90178
1.89902
1.89384
1.8887
1.88743
1.88755
1.8876
1.88765
1.88791
1.88887
1.89191
1.89786
1.90047
1.89949
1.89758
1.89507
1.89158
1.88581
1.87231
1.84804
1.83334
1.82989
1.82798
1.82628
1.82527
1.82649
1.83119
1.83338
1.83271
1.83106
1.82915
1.82621
1.81802
1.80377
1.79393
1.79014
1.78892
1.78851
1.78969
1.79027
1.78916
1.78792
1.78584
1.78074
1.77583
1.77381
1.77225
1.77032
1.76782
1.76692
1.76774
1.77014
1.77158
1.77134
1.76851
1.76287
1.75737
1.75437
1.75297
1.75254
1.75287
1.75458
1.75656
1.75688
1.7555
1.75067
1.74299
1.73616
1.73349
1.73301
1.73353
1.736
1.73627
1.73487
1.73307
1.7295
1.71992
1.70521
1.6977
1.6962
1.69547
1.69541
1.69711
1.69945
1.69921
1.69802
1.69511
1.68579
1.67373
1.67076
1.66981
1.66894
1.66865
1.66965
1.66952
1.66835
1.66698
1.66498
1.66124
1.65474
1.64745
1.64356
1.64264
1.64246
1.64301
1.64288
1.64134
1.63873
1.63654
1.63547
1.63485
1.63452
1.63498
1.63678
1.6383
1.63784
1.63657
1.63518
1.63232
1.62534
1.61281
1.60457
1.60355
1.60381
1.60353
1.60253
1.6002
1.59537
1.59048
1.58885
1.58839
1.58875
1.59208
1.60342
1.61657
1.61872
1.61805
1.61661
1.61303
1.60293
1.58086
1.56274
1.55865
1.55787
1.55705
1.55626
1.55579
1.55656
1.55954
1.56017
1.55882
1.55765
1.55693
1.55585
1.55502
1.55454
1.55444
1.55454
1.55415
1.55257
1.54799
1.53709
1.52168
1.51338
1.51128
1.51054
1.51007
1.50986
1.51085
1.51488
1.51906
1.52101
1.52209
1.52225
1.52172
1.52078
1.51804
1.50861
1.49421
1.48869
1.48894
1.49009
1.49182
1.49482
1.50329
1.51697
1.5218
1.52173
1.52094
1.51934
1.51649
1.51132
1.50389
1.49622
1.49015
1.48897
1.48869
1.48871
1.48946
1.48884
1.48866
1.48704
1.48583
1.49758
1.54192
1.65214
1.84193
2.06233
2.21661
2.29479
2.36299
2.39946
2.39574
1.99672
1.99576
1.99472
1.99418
1.99592
2.0032
2.00851
2.00812
2.00648
2.00344
1.99379
1.97604
1.96436
1.96061
1.95913
1.95889
1.95772
1.95548
1.95241
1.94788
1.94115
1.93129
1.92188
1.91627
1.91375
1.91304
1.91401
1.91877
1.92742
1.93262
1.93191
1.9292
1.92397
1.91484
1.90311
1.89373
1.89108
1.89073
1.89063
1.89099
1.89141
1.8912
1.88949
1.88525
1.88128
1.88073
1.88113
1.88176
1.88286
1.8848
1.8888
1.89481
1.8969
1.89607
1.89441
1.89196
1.88849
1.88355
1.8739
1.85426
1.83434
1.82819
1.82652
1.8251
1.82414
1.82443
1.82559
1.82619
1.82682
1.8266
1.82489
1.82301
1.82051
1.81394
1.80194
1.79137
1.78682
1.78567
1.78561
1.78566
1.78441
1.78293
1.78071
1.77697
1.77488
1.77358
1.77204
1.76984
1.76653
1.76202
1.75996
1.76035
1.76184
1.76291
1.76284
1.76006
1.75482
1.75083
1.74875
1.74733
1.74678
1.7473
1.74932
1.75141
1.75139
1.75021
1.74617
1.73891
1.73162
1.72861
1.72789
1.72781
1.72913
1.72916
1.72783
1.72578
1.72112
1.71002
1.69826
1.69377
1.69268
1.69307
1.69939
1.70318
1.70221
1.70043
1.6974
1.68984
1.67536
1.66678
1.66539
1.66446
1.66385
1.66398
1.66436
1.66355
1.66204
1.66001
1.65728
1.65292
1.64701
1.64299
1.64136
1.64127
1.64408
1.64582
1.64456
1.6415
1.63696
1.63195
1.62969
1.62847
1.62749
1.62703
1.62832
1.63293
1.63445
1.63381
1.63282
1.63051
1.62403
1.61066
1.59931
1.59632
1.59506
1.5929
1.58891
1.58531
1.58441
1.58417
1.58449
1.5867
1.594
1.60726
1.61359
1.61374
1.61322
1.61243
1.61073
1.60517
1.5899
1.56699
1.55617
1.55392
1.55327
1.55267
1.55245
1.55333
1.55516
1.55566
1.5545
1.55318
1.55279
1.55302
1.55235
1.55151
1.55123
1.55115
1.55055
1.54974
1.54787
1.54177
1.52989
1.51758
1.51189
1.50991
1.50898
1.50851
1.50941
1.51337
1.51609
1.51634
1.51609
1.51559
1.51474
1.51346
1.51059
1.50367
1.49307
1.4871
1.48658
1.48748
1.4895
1.49508
1.50728
1.51563
1.51647
1.51639
1.51574
1.51405
1.51116
1.50595
1.49793
1.49205
1.49165
1.49111
1.49069
1.49071
1.49084
1.49023
1.4895
1.48816
1.48702
1.4809
1.47592
1.48686
1.54124
1.65625
1.85512
2.04641
2.24109
2.3534
2.35467
1.9918
1.99035
1.98961
1.98918
1.99165
1.99885
2.00196
2.00093
1.9993
1.99694
1.99064
1.97682
1.96711
1.96404
1.96237
1.96076
1.95842
1.95593
1.95327
1.94873
1.93931
1.92349
1.91019
1.90601
1.9047
1.9041
1.90631
1.91753
1.93151
1.93527
1.93434
1.93236
1.9284
1.91927
1.90311
1.88882
1.88235
1.88044
1.8802
1.8805
1.88152
1.88204
1.88197
1.88075
1.87724
1.87517
1.87529
1.87591
1.87729
1.88022
1.88556
1.89085
1.89173
1.89103
1.88972
1.8876
1.88423
1.87952
1.87265
1.86001
1.84067
1.82826
1.82492
1.82416
1.82335
1.82199
1.82071
1.81973
1.81919
1.8201
1.82206
1.82136
1.81998
1.81797
1.81286
1.80141
1.78867
1.78241
1.78106
1.78002
1.77836
1.77575
1.77416
1.77328
1.77264
1.77215
1.77119
1.7695
1.76676
1.76145
1.75474
1.75225
1.75239
1.75313
1.75386
1.75394
1.75211
1.74884
1.74658
1.74505
1.74347
1.74238
1.74254
1.74425
1.7459
1.74548
1.74407
1.74046
1.73347
1.72599
1.72299
1.72216
1.72169
1.7221
1.72217
1.72111
1.71912
1.71397
1.70314
1.69455
1.69243
1.69216
1.69437
1.69858
1.69855
1.69703
1.6947
1.6906
1.67989
1.66537
1.66095
1.65975
1.65867
1.6578
1.65748
1.6578
1.65721
1.65596
1.65445
1.65191
1.64876
1.64554
1.64298
1.64163
1.64135
1.64147
1.64166
1.64059
1.63711
1.63031
1.62444
1.62215
1.62101
1.62029
1.62021
1.62365
1.63139
1.6343
1.63437
1.63324
1.62998
1.61989
1.60111
1.58833
1.58394
1.58101
1.57889
1.57825
1.57802
1.57814
1.58056
1.58764
1.6019
1.61097
1.61118
1.61072
1.61006
1.609
1.60706
1.60294
1.59327
1.57512
1.55809
1.55219
1.55043
1.54992
1.54979
1.55048
1.5515
1.55127
1.54998
1.54894
1.54847
1.549
1.54953
1.54879
1.54815
1.54807
1.5479
1.54734
1.546
1.54274
1.53614
1.52582
1.51571
1.51097
1.50966
1.50944
1.5093
1.51017
1.51112
1.51085
1.51026
1.50964
1.50874
1.50688
1.50304
1.49811
1.49272
1.48715
1.48525
1.48586
1.48871
1.49675
1.50672
1.50986
1.51012
1.51016
1.50988
1.50853
1.5057
1.50167
1.49674
1.49139
1.48782
1.48722
1.48698
1.48847
1.49105
1.49103
1.48991
1.48858
1.48694
1.48371
1.47659
1.46722
1.46856
1.48282
1.54773
1.67616
1.87801
2.08785
2.2795
1.99092
1.98598
1.98509
1.98489
1.98728
1.99296
1.99383
1.99236
1.99083
1.98862
1.98474
1.97808
1.97264
1.96904
1.96591
1.96253
1.95936
1.95632
1.95227
1.94567
1.93353
1.91462
1.90275
1.89992
1.89883
1.89837
1.90168
1.91688
1.93403
1.93704
1.93559
1.93299
1.92853
1.91904
1.90334
1.88821
1.87968
1.87444
1.87187
1.87171
1.87215
1.87323
1.87396
1.87382
1.87258
1.87032
1.86994
1.8706
1.8723
1.87574
1.88104
1.88437
1.8843
1.88361
1.88253
1.88084
1.87809
1.87397
1.86868
1.86144
1.85042
1.83618
1.82564
1.8206
1.81887
1.81715
1.81534
1.81386
1.81291
1.81275
1.81604
1.82076
1.82137
1.82006
1.81744
1.8105
1.79577
1.78352
1.77808
1.77448
1.77122
1.76949
1.76866
1.76854
1.76937
1.77004
1.76975
1.76852
1.76655
1.76267
1.75499
1.74671
1.74465
1.74455
1.74486
1.74571
1.74625
1.74579
1.74427
1.74298
1.74159
1.73974
1.73809
1.73785
1.73898
1.73995
1.73933
1.73789
1.73434
1.72701
1.71944
1.71683
1.71572
1.71479
1.71462
1.71549
1.71555
1.7143
1.71034
1.7027
1.69587
1.69375
1.6936
1.69515
1.69657
1.69579
1.69444
1.69159
1.68242
1.66554
1.65606
1.65438
1.65328
1.65218
1.6512
1.65068
1.65221
1.65401
1.65304
1.65227
1.65177
1.6506
1.64803
1.64308
1.63859
1.6377
1.63688
1.63542
1.63293
1.62789
1.6208
1.61656
1.61503
1.61419
1.61364
1.6148
1.62372
1.63546
1.63741
1.6363
1.63324
1.62564
1.6049
1.58049
1.57321
1.57225
1.5718
1.5715
1.57133
1.57247
1.57803
1.59192
1.60517
1.60706
1.6068
1.60631
1.60558
1.60436
1.60222
1.59855
1.59222
1.58155
1.56644
1.55428
1.54986
1.54826
1.54773
1.54752
1.54784
1.54709
1.54569
1.54457
1.54371
1.5435
1.54478
1.54565
1.54575
1.54581
1.54623
1.54607
1.54562
1.54479
1.53982
1.53103
1.52314
1.51629
1.51011
1.50657
1.50584
1.50549
1.50576
1.50572
1.50497
1.50409
1.50272
1.49991
1.49602
1.49352
1.4918
1.48961
1.4869
1.48679
1.48999
1.49566
1.50057
1.50246
1.503
1.50322
1.50324
1.50246
1.50043
1.49838
1.49573
1.49134
1.48719
1.4856
1.48556
1.48529
1.48523
1.48618
1.48712
1.48636
1.48513
1.48395
1.48077
1.47309
1.46235
1.45977
1.46363
1.48345
1.55967
1.69678
2.00274
1.99368
1.98478
1.98176
1.9811
1.9834
1.98643
1.98547
1.98376
1.98182
1.97879
1.97597
1.9757
1.97486
1.97263
1.97013
1.96653
1.96187
1.95644
1.94987
1.94065
1.92527
1.90823
1.90051
1.89792
1.89663
1.89627
1.90072
1.91385
1.92515
1.92842
1.92806
1.92647
1.92351
1.91643
1.90353
1.8912
1.88172
1.87397
1.86786
1.86462
1.86432
1.8644
1.86546
1.86616
1.8658
1.86481
1.86449
1.86543
1.86754
1.87097
1.87512
1.87604
1.87533
1.87417
1.87295
1.87154
1.86979
1.86743
1.86432
1.86094
1.85609
1.84645
1.83156
1.82016
1.81514
1.81227
1.80993
1.80823
1.80709
1.80665
1.80991
1.81959
1.82343
1.82261
1.82108
1.81784
1.80859
1.78982
1.77324
1.76739
1.76523
1.76403
1.76324
1.76345
1.767
1.76834
1.76715
1.7656
1.76399
1.76191
1.75757
1.74749
1.73903
1.73794
1.73775
1.73777
1.73843
1.7398
1.74041
1.7402
1.73949
1.73815
1.73594
1.73376
1.73314
1.73364
1.73376
1.73285
1.73118
1.72727
1.71945
1.71225
1.71002
1.70896
1.70813
1.70804
1.71024
1.71181
1.71108
1.70953
1.70685
1.70159
1.69627
1.69297
1.69184
1.69131
1.68995
1.6875
1.68085
1.66457
1.65117
1.64814
1.64687
1.64579
1.64498
1.64468
1.6479
1.65291
1.65513
1.6553
1.6547
1.65336
1.6507
1.6453
1.63825
1.63349
1.63185
1.63031
1.62796
1.62359
1.61691
1.61212
1.61025
1.60933
1.60887
1.60991
1.61746
1.62975
1.63394
1.63341
1.63121
1.62517
1.60831
1.58044
1.56776
1.56632
1.56602
1.5658
1.566
1.56881
1.57904
1.59583
1.60156
1.60157
1.60114
1.60062
1.59996
1.59895
1.597
1.59318
1.58785
1.58228
1.57553
1.56543
1.55379
1.54793
1.54608
1.5449
1.54336
1.54188
1.54059
1.53944
1.53887
1.53993
1.54161
1.54249
1.54331
1.54535
1.54716
1.54731
1.54676
1.54389
1.5375
1.53133
1.52706
1.52208
1.51422
1.50635
1.50289
1.50213
1.50136
1.50025
1.4989
1.49746
1.49575
1.49386
1.49259
1.4919
1.4922
1.4926
1.49128
1.48952
1.48946
1.49062
1.4924
1.49354
1.49435
1.49518
1.4958
1.49606
1.49617
1.49604
1.49541
1.4939
1.49027
1.48529
1.48312
1.48265
1.482
1.48162
1.48242
1.48442
1.48391
1.48275
1.48143
1.47753
1.46778
1.45937
1.45789
1.45802
1.46276
1.48732
1.6683
1.998
1.9892
1.98224
1.97915
1.97859
1.97887
1.97772
1.97599
1.97386
1.97139
1.96997
1.96919
1.97014
1.97235
1.97113
1.96834
1.96387
1.95739
1.94782
1.93451
1.91841
1.90563
1.89989
1.89767
1.8965
1.89663
1.90272
1.91678
1.92157
1.9208
1.9196
1.91779
1.91436
1.90817
1.90046
1.89382
1.88795
1.87954
1.86886
1.8608
1.85714
1.85676
1.85689
1.85795
1.85904
1.8592
1.85914
1.85982
1.86174
1.86485
1.86659
1.86607
1.86496
1.86361
1.86227
1.86139
1.86083
1.86084
1.86115
1.86008
1.85762
1.85239
1.84058
1.82338
1.81159
1.80703
1.80435
1.80239
1.80104
1.80056
1.80458
1.81591
1.82423
1.82519
1.82413
1.82198
1.81549
1.79541
1.77057
1.76272
1.76101
1.75966
1.75864
1.75843
1.762
1.76711
1.76676
1.76557
1.76422
1.76236
1.75887
1.75073
1.73819
1.73263
1.73199
1.73166
1.73155
1.73208
1.73371
1.73532
1.73604
1.73585
1.73455
1.73186
1.72895
1.7281
1.72781
1.72705
1.7257
1.72364
1.71906
1.71085
1.70504
1.70352
1.70272
1.7023
1.70389
1.70825
1.71119
1.7131
1.71264
1.70955
1.70264
1.69403
1.68929
1.68804
1.68664
1.68344
1.67599
1.66047
1.64691
1.64345
1.64231
1.64154
1.64115
1.64194
1.64709
1.65561
1.65821
1.6572
1.65542
1.65312
1.65022
1.64604
1.63898
1.63113
1.62687
1.62435
1.6213
1.61697
1.61228
1.60927
1.60781
1.60682
1.60643
1.60804
1.61539
1.62441
1.62681
1.6263
1.62479
1.62097
1.60989
1.58734
1.56793
1.56293
1.5623
1.56215
1.56277
1.56748
1.58027
1.59216
1.59508
1.59501
1.59472
1.59435
1.59375
1.59262
1.59059
1.58731
1.58358
1.58092
1.57872
1.57477
1.56564
1.55195
1.54297
1.53996
1.53809
1.53663
1.53554
1.53489
1.53535
1.53882
1.54085
1.54064
1.54035
1.54064
1.54189
1.54207
1.54159
1.53968
1.53534
1.53159
1.52889
1.52556
1.5199
1.5109
1.50262
1.49846
1.49621
1.49392
1.49191
1.49076
1.49015
1.48991
1.49054
1.49237
1.49535
1.49614
1.49562
1.49388
1.48921
1.48394
1.48292
1.48294
1.48333
1.48463
1.48683
1.48969
1.49281
1.49478
1.49564
1.49565
1.49351
1.48725
1.48053
1.47869
1.47802
1.47747
1.4773
1.4795
1.48226
1.48173
1.48066
1.47917
1.47464
1.46464
1.45795
1.45685
1.45713
1.45788
1.50025
1.99885
1.99528
1.98843
1.9794
1.97345
1.97177
1.97026
1.96859
1.96682
1.96558
1.96461
1.96387
1.96402
1.96544
1.96617
1.9652
1.96293
1.95715
1.94564
1.92987
1.91475
1.90551
1.90174
1.89951
1.89845
1.90005
1.90948
1.91537
1.91484
1.91323
1.91139
1.90872
1.90433
1.89867
1.89513
1.89326
1.89042
1.8858
1.87625
1.86312
1.85414
1.8503
1.84996
1.85028
1.85169
1.85272
1.85279
1.85315
1.85517
1.85711
1.85662
1.85534
1.85414
1.85304
1.85228
1.85202
1.85215
1.85371
1.85727
1.85859
1.85791
1.85501
1.84689
1.82829
1.80868
1.80129
1.79868
1.79692
1.79573
1.79548
1.80094
1.81709
1.82793
1.82769
1.82586
1.82342
1.81767
1.80065
1.77328
1.76017
1.75774
1.75625
1.75489
1.75407
1.7551
1.75906
1.76169
1.76129
1.76004
1.75851
1.75614
1.75165
1.74049
1.72933
1.72732
1.72674
1.72638
1.72623
1.7266
1.72823
1.73032
1.73151
1.73169
1.73013
1.72651
1.72366
1.72218
1.72101
1.71963
1.71782
1.71492
1.70912
1.70119
1.69754
1.69684
1.69653
1.69883
1.70586
1.71338
1.71536
1.71455
1.71271
1.70875
1.70027
1.69013
1.68351
1.68009
1.67641
1.66959
1.65691
1.6451
1.64128
1.64003
1.63923
1.63885
1.64104
1.65094
1.66006
1.66008
1.65815
1.65576
1.65318
1.65031
1.6465
1.64031
1.63121
1.62207
1.61631
1.61247
1.60996
1.60876
1.60762
1.60661
1.60596
1.60551
1.60768
1.61523
1.61922
1.61891
1.61784
1.61618
1.61328
1.60724
1.59372
1.5733
1.56254
1.56087
1.56067
1.56163
1.56706
1.57857
1.58723
1.58849
1.58834
1.58795
1.58734
1.58639
1.58463
1.58239
1.58151
1.58093
1.58072
1.58014
1.57831
1.57352
1.56011
1.54251
1.53534
1.53389
1.53274
1.53179
1.53142
1.53518
1.53956
1.5396
1.53947
1.53969
1.53941
1.53894
1.53817
1.53634
1.53423
1.53342
1.5323
1.5302
1.52758
1.52389
1.51669
1.50465
1.49384
1.48978
1.48808
1.48705
1.48645
1.48626
1.48694
1.48964
1.49592
1.49966
1.49908
1.49751
1.49464
1.48833
1.47816
1.4736
1.4733
1.47341
1.4745
1.47748
1.48291
1.48991
1.49426
1.49585
1.49621
1.49517
1.48994
1.48076
1.47507
1.47423
1.47362
1.47313
1.47363
1.47752
1.47979
1.47915
1.47831
1.47704
1.47274
1.46439
1.45885
1.45839
1.45783
1.46467
1.99658
1.99563
1.99214
1.98384
1.97208
1.96535
1.96339
1.96212
1.96118
1.96044
1.95992
1.95974
1.9606
1.96168
1.96062
1.95875
1.95653
1.95221
1.94171
1.92589
1.91445
1.9091
1.9052
1.90243
1.9016
1.90397
1.90807
1.90869
1.90722
1.90518
1.90218
1.89778
1.89431
1.89229
1.89021
1.88913
1.88904
1.88759
1.88314
1.87279
1.85784
1.84793
1.84364
1.84323
1.84357
1.84486
1.84618
1.84753
1.84884
1.84847
1.8469
1.84491
1.84354
1.84311
1.84299
1.84314
1.84412
1.84707
1.85311
1.85743
1.85722
1.85485
1.84803
1.83179
1.80859
1.79703
1.79455
1.79322
1.79236
1.79301
1.80051
1.81485
1.82072
1.82033
1.81918
1.81756
1.81421
1.8037
1.78016
1.76073
1.75527
1.75357
1.75221
1.75123
1.75175
1.75489
1.75809
1.75884
1.75772
1.75638
1.75498
1.75208
1.74236
1.72797
1.72335
1.7225
1.72198
1.72178
1.72169
1.72207
1.72356
1.72544
1.72642
1.72612
1.72418
1.72069
1.71729
1.71544
1.71421
1.7127
1.71
1.70473
1.69783
1.6939
1.69306
1.69299
1.69612
1.70801
1.71677
1.71681
1.71543
1.71371
1.71065
1.70447
1.69404
1.6827
1.67456
1.66876
1.6626
1.65379
1.6442
1.64009
1.63882
1.63818
1.63806
1.63995
1.64677
1.65567
1.65776
1.65642
1.65448
1.65245
1.65022
1.64749
1.64237
1.63035
1.61421
1.60741
1.60607
1.60546
1.60519
1.60596
1.60634
1.60579
1.606
1.61062
1.61413
1.61356
1.61221
1.61044
1.60806
1.6049
1.60073
1.59413
1.5826
1.56802
1.56132
1.56061
1.5613
1.56662
1.57683
1.58187
1.58211
1.58189
1.58138
1.5802
1.57832
1.57683
1.57639
1.57671
1.57962
1.58167
1.581
1.57921
1.5758
1.56726
1.54858
1.53443
1.531
1.52998
1.52915
1.52893
1.53203
1.53615
1.53673
1.53674
1.53652
1.53575
1.53482
1.53314
1.53065
1.52975
1.52951
1.52953
1.52919
1.52764
1.52458
1.5188
1.50708
1.4923
1.48612
1.48501
1.48435
1.48388
1.4837
1.4855
1.49257
1.49796
1.49768
1.49666
1.49531
1.49291
1.48708
1.47548
1.46708
1.46627
1.46632
1.46697
1.46929
1.47484
1.48481
1.49297
1.49494
1.49531
1.49495
1.4919
1.48329
1.47359
1.47042
1.46992
1.46931
1.46894
1.47069
1.47578
1.47798
1.47757
1.47666
1.47545
1.47208
1.46521
1.4616
1.46076
1.46224
1.99639
1.99481
1.99243
1.98723
1.97431
1.96127
1.95875
1.95758
1.95649
1.95554
1.95487
1.95575
1.9577
1.95686
1.95513
1.95313
1.95007
1.94412
1.934
1.92415
1.91863
1.91483
1.91229
1.91081
1.90953
1.90773
1.90503
1.90271
1.90012
1.89602
1.89011
1.88661
1.88563
1.88619
1.8873
1.88699
1.88676
1.88607
1.88459
1.8804
1.86887
1.85234
1.84181
1.83697
1.83646
1.8371
1.83967
1.84126
1.84071
1.83926
1.83691
1.83464
1.83364
1.83328
1.83341
1.83449
1.83696
1.84163
1.84804
1.8513
1.85153
1.8506
1.84591
1.83357
1.81117
1.79533
1.79135
1.79004
1.78919
1.79186
1.80554
1.81602
1.81626
1.81503
1.81367
1.81185
1.80888
1.80259
1.78738
1.76577
1.75493
1.75201
1.75065
1.74997
1.75042
1.7525
1.75434
1.75435
1.75303
1.75155
1.75001
1.7477
1.74157
1.72793
1.71991
1.71878
1.71801
1.71759
1.71744
1.71739
1.71792
1.71937
1.72027
1.72018
1.71965
1.71748
1.71321
1.71008
1.70876
1.70758
1.70535
1.70083
1.6954
1.6925
1.69162
1.69183
1.69515
1.70301
1.7092
1.71035
1.71012
1.70919
1.70774
1.70464
1.69664
1.68321
1.67067
1.66283
1.65701
1.65097
1.64419
1.63983
1.63819
1.63742
1.63741
1.63998
1.6446
1.65037
1.65575
1.65595
1.65455
1.65275
1.65057
1.64754
1.64187
1.62838
1.60893
1.60246
1.60183
1.60121
1.60068
1.60061
1.60218
1.60538
1.61068
1.61239
1.61125
1.60929
1.60689
1.6039
1.60041
1.59681
1.59315
1.58959
1.58519
1.57792
1.56853