/*--------------------------------*- C++ -*----------------------------------*\
  =========                 |
  \\      /  F ield         | OpenFOAM: The Open Source CFD Toolbox
   \\    /   O peration     | Website:  https://openfoam.org
    \\  /    A nd           | Version:  7
     \\/     M anipulation  |
\*---------------------------------------------------------------------------*/
FoamFile
{
    version     2.0;
    format      ascii;
    class       volScalarField;
    location    "1";
    object      rho;
}
// * * * * * * * * * * * * * * * * * * * * * * * * * * * * * * * * * * * * * //

dimensions      [1 -3 0 0 0 0 0];

internalField   nonuniform List<scalar> 
4128
(
2.29785
2.28987
2.27716
2.26089
2.23804
2.20755
2.19431
2.19315
2.18929
2.17814
2.16451
2.14991
2.1302
2.09979
2.07623
2.0725
2.07113
2.06559
2.06313
2.08248
2.15901
2.35572
2.71921
2.91009
3.00665
3.05106
3.04658
3.03163
3.01137
2.99357
2.97479
2.94374
2.89155
2.82427
2.79389
2.78671
2.7803
2.78375
2.7746
2.7607
2.74708
2.709
2.62822
2.55625
2.53141
2.51964
2.51296
2.51395
2.51037
2.50077
2.48476
2.44115
2.37654
2.34781
2.34303
2.34303
2.34178
2.33188
2.31896
2.29874
2.25404
2.1851
2.13993
2.13329
2.12957
2.13118
2.14809
2.14819
2.13749
2.12809
2.1188
2.10428
2.06865
2.00766
1.95128
1.93638
1.93407
1.93906
1.9427
1.93581
1.93148
1.9268
1.92186
1.91888
1.91083
1.88752
1.88611
1.92567
2.03231
2.18306
2.36417
2.55973
2.75265
2.84931
2.90425
2.90982
2.88938
2.87075
2.85102
2.81383
2.80088
2.81587
2.85267
2.84968
2.82607
2.78367
2.74024
2.69945
2.63885
2.575
2.55349
2.55194
2.55025
2.55234
2.56266
2.57492
2.59694
2.63757
2.67735
2.72477
2.81582
2.88199
2.89442
2.90886
2.93331
2.96625
2.9815
2.97277
2.95531
2.32593
2.31461
2.29787
2.27613
2.24604
2.22497
2.22293
2.22081
2.21279
2.19915
2.184
2.16629
2.13981
2.11369
2.10849
2.10803
2.10519
2.09533
2.07986
2.07171
2.076
2.11506
2.28558
2.5726
2.78377
2.9994
3.03699
3.03569
3.03748
3.03309
3.00978
2.96531
2.89869
2.85309
2.84599
2.83824
2.8379
2.83362
2.81703
2.80095
2.76686
2.69289
2.61086
2.58431
2.57477
2.56475
2.56319
2.5628
2.55493
2.5424
2.50613
2.43924
2.39531
2.38821
2.38534
2.38522
2.37761
2.36715
2.35148
2.31522
2.24757
2.18704
2.17327
2.16952
2.16832
2.18275
2.20023
2.19401
2.18302
2.17139
2.15269
2.11369
2.05211
1.99209
1.97099
1.9689
1.97181
1.98213
1.97721
1.97093
1.96791
1.97068
1.98157
2.0133
2.06789
2.15964
2.30213
2.4782
2.6375
2.78798
2.91372
2.99337
3.0158
3.00571
2.98113
2.93781
2.87855
2.86151
2.85857
2.85363
2.86441
2.87016
2.85758
2.84173
2.81651
2.77761
2.73467
2.6948
2.6511
2.61034
2.59974
2.59568
2.60041
2.61552
2.63005
2.65908
2.71576
2.77102
2.83015
2.91449
2.95815
2.96112
2.96584
2.98449
3.01241
3.0248
3.01459
2.98948
2.95273
2.35103
2.33532
2.31401
2.28592
2.25894
2.25311
2.25147
2.24611
2.23459
2.21982
2.20225
2.17696
2.14807
2.13878
2.13853
2.1394
2.13309
2.12177
2.10512
2.08469
2.07259
2.07071
2.09549
2.22503
2.44093
2.76509
2.96429
2.99746
3.04341
3.05697
3.03259
2.98346
2.93211
2.91121
2.89921
2.8911
2.88939
2.87498
2.85485
2.82058
2.7587
2.67152
2.63422
2.62801
2.61907
2.61503
2.61625
2.61075
2.60019
2.57117
2.50446
2.44529
2.4337
2.42926
2.42779
2.42251
2.41383
2.40167
2.37444
2.3133
2.24079
2.21444
2.21073
2.20851
2.21798
2.24571
2.25131
2.24142
2.22784
2.20403
2.1592
2.09319
2.03148
2.00686
2.00432
2.00639
2.02248
2.02659
2.02478
2.03626
2.08053
2.17202
2.31378
2.48188
2.65361
2.77783
2.85765
2.9471
3.02666
3.10257
3.15177
3.14777
3.13101
3.09675
3.04734
2.97522
2.89589
2.86019
2.85606
2.86042
2.88331
2.88404
2.86799
2.84599
2.81714
2.78128
2.73387
2.6865
2.65557
2.64535
2.63904
2.64058
2.65696
2.67879
2.72114
2.79185
2.85918
2.93291
3.00203
3.03353
3.0264
3.02321
3.02886
3.04926
3.06464
3.05551
3.03481
3.00798
2.96435
2.37228
2.35212
2.32574
2.29642
2.28501
2.2837
2.27985
2.27012
2.25629
2.23847
2.21286
2.18218
2.16724
2.16633
2.16796
2.16611
2.15635
2.14294
2.12778
2.10383
2.08132
2.07362
2.07518
2.09283
2.1761
2.38758
2.71881
2.88946
3.01413
3.06181
3.04599
3.00946
2.99992
2.99131
2.96994
2.94591
2.92249
2.89891
2.86743
2.81727
2.73772
2.68973
2.68143
2.67512
2.6688
2.66792
2.6666
2.65879
2.63551
2.57176
2.4991
2.47695
2.47294
2.47068
2.46659
2.45917
2.44938
2.43
2.37874
2.3012
2.25926
2.25412
2.25146
2.25773
2.28604
2.30499
2.29854
2.28442
2.25655
2.20656
2.13423
2.07004
2.04464
2.04385
2.05329
2.07683
2.10849
2.15302
2.24967
2.40574
2.62407
2.8205
2.9925
3.09709
3.12814
3.14595
3.17474
3.2296
3.25329
3.24487
3.22421
3.18651
3.14275
3.09697
3.03862
2.97694
2.93679
2.92176
2.91592
2.92405
2.93392
2.92433
2.90763
2.88143
2.83854
2.78564
2.73538
2.69108
2.68018
2.67586
2.67778
2.69317
2.72293
2.78761
2.88548
2.95706
3.03391
3.0996
3.09969
3.07805
3.06852
3.06594
3.083
3.10576
3.09971
3.08039
3.05741
3.01976
2.95619
2.38925
2.36681
2.33763
2.31933
2.31732
2.31496
2.30747
2.29396
2.27519
2.24831
2.21657
2.19618
2.19415
2.19557
2.1973
2.19067
2.17917
2.16465
2.14599
2.11986
2.09616
2.0886
2.08484
2.08205
2.09003
2.1418
2.3467
2.60957
2.84473
3.02408
3.02824
3.02765
3.03827
3.04036
3.01844
2.98132
2.95215
2.9204
2.86813
2.79319
2.74324
2.73157
2.72899
2.72844
2.7242
2.7211
2.71506
2.69607
2.6375
2.55628
2.52109
2.51659
2.51452
2.51121
2.50451
2.49569
2.48101
2.43979
2.36501
2.30916
2.29992
2.29677
2.30192
2.32936
2.35471
2.35194
2.33862
2.30767
2.25449
2.17478
2.11091
2.09594
2.10653
2.14915
2.23147
2.3588
2.52531
2.71573
2.93984
3.11548
3.26221
3.31682
3.29474
3.22277
3.19919
3.20707
3.24276
3.2862
3.2913
3.26856
3.22499
3.17527
3.11946
3.06271
3.01552
2.98625
2.97715
2.97123
2.97848
2.99515
2.9862
2.96924
2.94787
2.90106
2.83017
2.77205
2.73642
2.72724
2.72566
2.73274
2.75662
2.80202
2.88521
2.9991
3.07962
3.14035
3.1813
3.17344
3.13481
3.11211
3.10566
3.11578
3.14706
3.14724
3.12969
3.10788
3.06923
3.00248
2.9364
2.40517
2.38173
2.35845
2.35341
2.35149
2.34659
2.33476
2.31354
2.28361
2.25128
2.22722
2.22316
2.22281
2.22765
2.2254
2.21557
2.20162
2.18025
2.15259
2.13102
2.11918
2.11452
2.1083
2.0952
2.08275
2.08141
2.12235
2.27088
2.48782
2.8221
2.95111
3.01787
3.06218
3.06518
3.04246
3.0065
2.97293
2.92739
2.85826
2.80194
2.78346
2.77817
2.78305
2.78635
2.7824
2.77494
2.75569
2.69897
2.61354
2.56834
2.56131
2.55987
2.55882
2.55256
2.54422
2.53194
2.49785
2.42859
2.36342
2.34697
2.34344
2.34734
2.37419
2.40382
2.40437
2.39097
2.36241
2.30062
2.21539
2.18352
2.19973
2.27645
2.43873
2.68687
2.91598
3.10039
3.24285
3.38047
3.50728
3.52036
3.50159
3.46243
3.40664
3.33006
3.2932
3.2883
3.29108
3.2955
3.29012
3.27582
3.24661
3.19969
3.12013
3.03955
3.00365
3.00029
3.00131
3.01478
3.0426
3.04445
3.02824
3.0032
2.95132
2.88236
2.81577
2.77498
2.76741
2.76688
2.77645
2.80913
2.87319
2.98733
3.11065
3.19545
3.25156
3.25908
3.22442
3.17604
3.15538
3.1486
3.15466
3.1866
3.19857
3.1828
3.1582
3.11949
3.05164
2.97948
2.93783
2.42255
2.40188
2.39273
2.39024
2.38644
2.3772
2.35427
2.31964
2.28565
2.26044
2.25448
2.2533
2.25719
2.25823
2.25151
2.23855
2.21462
2.18244
2.15755
2.14905
2.1467
2.14299
2.13521
2.11752
2.0906
2.07967
2.0807
2.10391
2.19479
2.45214
2.77244
2.92725
3.03592
3.06435
3.05699
3.03572
2.98917
2.92148
2.86535
2.84504
2.83875
2.8409
2.84456
2.84323
2.83632
2.81532
2.7606
2.67213
2.61752
2.60673
2.60345
2.60666
2.60316
2.59544
2.58516
2.55647
2.49111
2.42038
2.3955
2.39141
2.39284
2.41933
2.45125
2.45471
2.44737
2.41618
2.35733
2.34463
2.38981
2.51902
2.74192
3.00382
3.26544
3.50007
3.5759
3.56953
3.56973
3.58229
3.58377
3.56753
3.50292
3.4351
3.39384
3.37213
3.37037
3.39418
3.38281
3.35624
3.33366
3.31399
3.27237
3.20156
3.12152
3.05877
3.03944
3.0314
3.03496
3.06639
3.08395
3.07417
3.05399
3.00539
2.9317
2.858
2.82115
2.81555
2.81929
2.83897
2.88372
2.96688
3.09581
3.2238
3.29863
3.33233
3.329
3.29436
3.23428
3.19974
3.19181
3.19375
3.22148
3.23387
3.2203
3.20303
3.17334
3.10864
3.02731
2.9785
2.96837
2.44401
2.43491
2.43166
2.42766
2.41982
2.39694
2.35794
2.32018
2.29487
2.28835
2.28692
2.29028
2.29259
2.28664
2.2742
2.24916
2.21498
2.18637
2.1768
2.17563
2.17399
2.16918
2.15921
2.13794
2.10342
2.08769
2.08699
2.09238
2.11205
2.20068
2.4456
2.67944
2.89621
3.04451
3.0452
3.01925
2.97814
2.93071
2.90643
2.90289
2.91048
2.90739
2.90158
2.8941
2.87075
2.81869
2.73279
2.67024
2.6544
2.64919
2.65108
2.65421
2.64775
2.63905
2.61557
2.55409
2.47938
2.44608
2.44058
2.44223
2.46646
2.50355
2.51958
2.51886
2.54021
2.60583
2.72575
2.88025
3.08178
3.31892
3.54688
3.66287
3.66703
3.66241
3.6754
3.70256
3.70522
3.67982
3.628
3.56039
3.47598
3.40718
3.38449
3.37874
3.39628
3.434
3.42949
3.40774
3.37837
3.32265
3.24165
3.1646
3.12361
3.10785
3.0986
3.10193
3.12695
3.13384
3.12337
3.10754
3.05859
2.97964
2.90726
2.86897
2.8651
2.87265
2.90099
2.9584
3.06294
3.20396
3.32214
3.39303
3.40594
3.39619
3.35984
3.29814
3.25772
3.24649
3.24381
3.26445
3.27807
3.26298
3.23995
3.21168
3.16113
3.08781
3.02686
3.01057
3.00255
2.47686
2.4742
2.4705
2.46285
2.44019
2.39782
2.35542
2.33049
2.32441
2.32293
2.32641
2.32914
2.32365
2.31154
2.28467
2.24728
2.21753
2.20723
2.20645
2.20563
2.20084
2.19327
2.17978
2.15117
2.11971
2.11105
2.10887
2.109
2.11653
2.12979
2.19305
2.33279
2.5366
2.85776
2.96882
2.96464
2.97342
2.96799
2.96839
2.98614
2.98491
2.9696
2.95211
2.92216
2.87119
2.78871
2.72298
2.70206
2.69682
2.69729
2.70473
2.69933
2.69158
2.67261
2.61593
2.53827
2.50051
2.49632
2.50111
2.53646
2.60025
2.68737
2.80484
2.96298
3.16281
3.33501
3.47993
3.62388
3.78938
3.92807
3.93556
3.91973
3.85334
3.76436
3.75501
3.78013
3.77696
3.74417
3.67115
3.56393
3.46957
3.44309
3.43633
3.43632
3.45113
3.46245
3.45215
3.4335
3.3829
3.29034
3.20019
3.15192
3.1362
3.12932
3.14093
3.18242
3.19535
3.17993
3.15322
3.10103
3.02859
2.95723
2.92739
2.92689
2.94233
2.98482
3.06467
3.18131
3.32362
3.42542
3.47287
3.47557
3.46079
3.41543
3.35163
3.30558
3.29201
3.28689
3.30225
3.32445
3.31425
3.29477
3.2721
3.21956
3.13231
3.06886
3.05164
3.04345
3.04156
2.51548
2.51234
2.50522
2.4832
2.43896
2.39141
2.3662
2.36098
2.35986
2.36423
2.36668
2.36104
2.34951
2.32243
2.28173
2.24933
2.23846
2.2376
2.23931
2.23573
2.22774
2.21587
2.19197
2.15872
2.14426
2.14124
2.14129
2.13985
2.1335
2.12661
2.1116
2.12651
2.19798
2.43397
2.72696
2.84849
2.93184
3.01295
3.05201
3.05892
3.04444
3.00973
2.97014
2.92491
2.84975
2.7778
2.74989
2.74318
2.7414
2.75545
2.75603
2.74673
2.72923
2.67306
2.5989
2.56892
2.57628
2.62068
2.72922
2.92426
3.19817
3.49415
3.69397
3.75362
3.76391
3.79862
3.84303
3.91959
3.98738
3.996
3.97562
3.93754
3.88849
3.83436
3.79664
3.7738
3.75212
3.71452
3.65129
3.57785
3.53794
3.52414
3.52004
3.52523
3.51311
3.49629
3.47463
3.42433
3.34405
3.25101
3.19257
3.17791
3.1728
3.18528
3.22806
3.24662
3.23535
3.20872
3.14496
3.05439
2.99256
2.97721
2.98242
3.01149
3.07373
3.17567
3.30517
3.43621
3.53283
3.5534
3.54578
3.52028
3.46823
3.40227
3.34963
3.33522
3.32944
3.341
3.36666
3.36018
3.3426
3.32248
3.27629
3.19206
3.11173
3.07899
3.07
3.06584
3.07958
2.55284
2.54559
2.52427
2.48018
2.42923
2.40203
2.39703
2.39632
2.40186
2.40437
2.39853
2.38727
2.36044
2.31758
2.28178
2.26984
2.26864
2.27205
2.27228
2.26514
2.25363
2.23076
2.19445
2.17348
2.17038
2.16989
2.17275
2.16857
2.15754
2.13766
2.10141
2.07576
2.08094
2.14835
2.37732
2.63564
2.82549
2.99236
3.08148
3.08742
3.07363
3.02568
2.96671
2.89912
2.83678
2.80472
2.79547
2.7898
2.8014
2.81171
2.80591
2.78739
2.73636
2.69819
2.71734
2.80981
3.00044
3.30008
3.61172
3.89614
4.1022
4.17039
4.15956
4.16426
4.13388
4.11143
4.10845
4.09793
4.06232
4.00373
3.94277
3.89527
3.8695
3.84432
3.81298
3.77967
3.73539
3.67261
3.62114
3.59734
3.58463
3.5812
3.59799
3.59298
3.57187
3.54613
3.48867
3.38426
3.2895
3.24244
3.22903
3.2253
3.24093
3.28859
3.30426
3.28859
3.25751
3.19488
3.1061
3.03336
3.01398
3.02516
3.06971
3.16581
3.29279
3.43492
3.55568
3.62176
3.62435
3.61091
3.57772
3.52032
3.45125
3.39513
3.37787
3.3709
3.37877
3.40987
3.41174
3.39512
3.37401
3.3301
3.24697
3.15874
3.11751
3.10709
3.10089
3.10883
3.12697
2.58478
2.56497
2.52222
2.469
2.43903
2.43323
2.43224
2.43833
2.44186
2.43594
2.4252
2.39923
2.35431
2.3147
2.30094
2.29946
2.30348
2.3082
2.30278
2.29224
2.27088
2.23197
2.20139
2.19641
2.19506
2.19881
2.19879
2.19181
2.1777
2.14557
2.09645
2.07579
2.07633
2.08562
2.16623
2.36191
2.63411
2.88497
3.01828
3.08263
3.07915
3.04178
2.96796
2.88855
2.85134
2.84427
2.84511
2.85752
2.87339
2.87397
2.87239
2.90518
2.99507
3.18143
3.45406
3.73217
3.99134
4.24313
4.34893
4.34546
4.26367
4.18795
4.16998
4.1854
4.22245
4.24548
4.23161
4.19733
4.12891
4.03616
3.95374
3.90274
3.87629
3.85693
3.83009
3.79049
3.73627
3.66697
3.62857
3.61785
3.61422
3.62776
3.63821
3.62465
3.6044
3.55734
3.471
3.36197
3.28988
3.27087
3.26569
3.28572
3.34363
3.36484
3.34973
3.31102
3.23886
3.14096
3.08453
3.08059
3.10649
3.17737
3.29743
3.43249
3.55855
3.66744
3.70712
3.70254
3.68103
3.64194
3.5811
3.50745
3.44403
3.41924
3.4109
3.41431
3.44598
3.45873
3.44443
3.42678
3.39684
3.31421
3.20244
3.14994
3.1391
3.13297
3.13919
3.1674
3.16854
2.60381
2.56373
2.51068
2.47857
2.47174
2.46959
2.4738
2.47842
2.47302
2.46278
2.43823
2.39272
2.34817
2.33181
2.32989
2.33363
2.34203
2.33884
2.32987
2.31081
2.2721
2.2332
2.22256
2.2207
2.22286
2.226
2.22141
2.21127
2.18895
2.14439
2.10031
2.08964
2.08818
2.09328
2.1215
2.19983
2.36032
2.63759
2.84806
2.98771
3.04123
3.01703
2.95067
2.90155
2.90121
2.92327
2.96173
3.00314
3.08093
3.24615
3.47478
3.69471
3.90091
4.1074
4.28994
4.46647
4.59624
4.59968
4.56457
4.47476
4.31587
4.19889
4.17528
4.17356
4.20979
4.23682
4.21836
4.17829
4.12628
4.06685
4.00174
3.94408
3.91016
3.88617
3.85428
3.80502
3.74744
3.71388
3.69914
3.68818
3.68385
3.68261
3.66881
3.65078
3.60687
3.52188
3.42247
3.3596
3.33912
3.32977
3.33635
3.38068
3.40435
3.39414
3.35864
3.29504
3.19851
3.13794
3.13849
3.18504
3.28864
3.43773
3.58251
3.69474
3.77141
3.77839
3.76502
3.73714
3.69968
3.64909
3.57565
3.49945
3.46514
3.45502
3.45207
3.47491
3.4946
3.48199
3.46687
3.4479
3.39095
3.28672
3.20031
3.17525
3.16627
3.16577
3.19412
3.21262
3.20089
2.60214
2.55012
2.51783
2.51126
2.50931
2.51207
2.51504
2.50983
2.5
2.47629
2.43087
2.38284
2.36321
2.36065
2.36344
2.37391
2.373
2.36537
2.3492
2.31263
2.26783
2.2499
2.2477
2.24839
2.25331
2.25051
2.24275
2.22717
2.19031
2.14258
2.12231
2.11843
2.11747
2.12739
2.14445
2.15881
2.19811
2.31481
2.49359
2.69047
2.89075
2.94145
2.92251
2.9675
3.08188
3.26715
3.49827
3.74941
4.01271
4.27799
4.4645
4.57286
4.66033
4.71069
4.73439
4.74381
4.72408
4.65865
4.56117
4.45998
4.37758
4.3348
4.31409
4.28378
4.26092
4.2439
4.20732
4.15324
4.11004
4.07585
4.04436
4.00605
3.96598
3.92715
3.87824
3.82359
3.79584
3.78215
3.77116
3.75726
3.74073
3.72208
3.69925
3.65321
3.58032
3.48729
3.41603
3.39376
3.38655
3.39781
3.4366
3.44599
3.43002
3.39219
3.32097
3.23259
3.20587
3.22388
3.30062
3.44214
3.59912
3.73477
3.82017
3.85242
3.84445
3.81924
3.78606
3.74813
3.70631
3.64424
3.57053
3.5232
3.50719
3.49809
3.50651
3.52322
3.51028
3.49582
3.47821
3.43267
3.34457
3.26174
3.2333
3.22184
3.21474
3.22843
3.24538
3.23403
3.21859
2.58865
2.55412
2.54735
2.54654
2.55283
2.55438
2.54831
2.53856
2.51514
2.46878
2.41767
2.39522
2.39216
2.3944
2.40556
2.40681
2.40032
2.38694
2.35314
2.30425
2.27848
2.27513
2.27481
2.28082
2.28023
2.27422
2.26296
2.23383
2.18628
2.1574
2.15362
2.15224
2.16051
2.17409
2.17366
2.16669
2.15859
2.15554
2.18197
2.29538
2.52905
2.82455
3.16829
3.56204
3.95608
4.30022
4.53996
4.63331
4.68669
4.67888
4.6881
4.72598
4.79519
4.84266
4.82193
4.7619
4.69066
4.58179
4.47149
4.43388
4.41974
4.42655
4.43169
4.39959
4.34066
4.26415
4.196
4.13653
4.0987
4.07943
4.06142
4.03339
3.99478
3.94685
3.88864
3.85473
3.83864
3.826
3.81331
3.79607
3.77748
3.75243
3.69853
3.61444
3.53221
3.48221
3.46496
3.4593
3.4729
3.50764
3.50693
3.48559
3.44012
3.36445
3.26816
3.24445
3.2802
3.39284
3.57329
3.73849
3.85969
3.92543
3.9242
3.90349
3.86989
3.83601
3.80121
3.76434
3.70485
3.63264
3.58258
3.5697
3.56258
3.57039
3.57811
3.56129
3.53817
3.50488
3.45094
3.37897
3.30751
3.27269
3.26488
3.26399
3.28123
3.285
3.2694
3.25185
3.23434
2.59445
2.58545
2.58356
2.58973
2.595
2.58876
2.5786
2.55545
2.50892
2.45386
2.42786
2.42405
2.42596
2.43818
2.44126
2.43545
2.42428
2.39352
2.34248
2.30868
2.30306
2.30158
2.30764
2.31043
2.30538
2.29689
2.2755
2.2302
2.19182
2.18545
2.18359
2.18898
2.20426
2.20578
2.19774
2.18463
2.15445
2.1363
2.18651
2.36196
2.73753
3.34368
3.93628
4.40603
4.76632
4.98812
5.06195
5.06316
5.03349
4.92497
4.81374
4.78499
4.7922
4.82401
4.8009
4.73264
4.63056
4.51138
4.43802
4.42536
4.43107
4.45934
4.45588
4.42352
4.36098
4.28163
4.21027
4.14989
4.11365
4.09306
4.07242
4.0415
3.99913
3.95018
3.9098
3.89024
3.87305
3.85838
3.84184
3.82427
3.79842
3.74704
3.6711
3.5881
3.52862
3.51127
3.50811
3.53226
3.56972
3.56789
3.54527
3.49907
3.41516
3.32164
3.3213
3.38268
3.52112
3.70691
3.86464
3.94906
3.98506
3.98136
3.95764
3.9247
3.89191
3.85769
3.819
3.75728
3.68531
3.63113
3.61596
3.60867
3.61785
3.63925
3.62794
3.60391
3.56849
3.49429
3.38542
3.32298
3.3046
3.30098
3.30611
3.33454
3.34883
3.33468
3.3097
3.27556
3.21848
2.623
2.62111
2.62655
2.63399
2.62816
2.61771
2.59422
2.54895
2.49266
2.46319
2.45827
2.45868
2.47082
2.47672
2.47133
2.46112
2.43281
2.38217
2.34117
2.33118
2.32886
2.33347
2.34064
2.33701
2.32985
2.31376
2.2738
2.22834
2.21551
2.21268
2.21457
2.22965
2.23608
2.2342
2.22522
2.23631
2.29993
2.44135
2.73761
3.0864
3.43526
3.78096
4.11945
4.40519
4.71205
4.97875
5.05859
5.06942
5.05783
5.03295
4.99218
4.95172
4.90062
4.85158
4.78479
4.69999
4.60289
4.51124
4.47302
4.45433
4.45852
4.46547
4.44393
4.40167
4.3455
4.2858
4.24078
4.20043
4.15753
4.1219
4.09034
4.05217
4.00204
3.96284
3.94751
3.93221
3.9146
3.89613
3.87825
3.84289
3.78056
3.70043
3.63274
3.58642
3.57123
3.56631
3.58503
3.61843
3.61717
3.59664
3.5622
3.47179
3.40977
3.43386
3.5309
3.68502
3.87096
4.00769
4.0348
4.03526
4.02429
3.994
3.96816
3.94311
3.91544
3.88274
3.81987
3.73148
3.66897
3.65154
3.64413
3.65055
3.6819
3.68062
3.6588
3.63147
3.56763
3.45735
3.36849
3.33053
3.31988
3.31623
3.347
3.39283
3.38971
3.37172
3.34172
3.27327
3.17934
2.65521
2.65925
2.67102
2.6674
2.6556
2.63094
2.5868
2.53053
2.49908
2.49329
2.49322
2.50556
2.51371
2.50862
2.49827
2.47089
2.42027
2.37441
2.3604
2.35768
2.36039
2.37054
2.36932
2.36324
2.35016
2.31487
2.26598
2.24402
2.24093
2.24118
2.25506
2.27436
2.28901
2.34182
2.48427
2.70412
2.9899
3.26956
3.57432
3.70232
3.78936
3.85774
3.97675
4.12812
4.33022
4.59717
4.78161
4.86174
4.91627
4.9577
4.97969
4.95661
4.89997
4.83742
4.77573
4.6951
4.6236
4.59766
4.57221
4.54053
4.50661
4.46769
4.41794
4.3681
4.32618
4.28825
4.26001
4.23713
4.2073
4.16829
4.12504
4.07752
4.02812
4.00355
3.99222
3.97844
3.96086
3.93391
3.88328
3.82092
3.74925
3.6819
3.63064
3.61549
3.61078
3.63042
3.66173
3.66008
3.64206
3.61128
3.53504
3.53231
3.59907
3.74001
3.91129
4.07639
4.1714
4.17241
4.12242
4.05713
4.01975
3.99502
3.97336
3.95461
3.93012
3.88243
3.80427
3.72229
3.68672
3.67557
3.67292
3.70039
3.71502
3.70071
3.68124
3.63565
3.54085
3.43034
3.3768
3.36316
3.35651
3.37065
3.42155
3.43771
3.42213
3.39303
3.33714
3.24567
3.16259
2.69868
2.70535
2.70379
2.69204
2.66869
2.62846
2.57231
2.53717
2.52968
2.52846
2.54047
2.55257
2.54788
2.53683
2.50936
2.45804
2.40787
2.39038
2.38751
2.38969
2.40217
2.4036
2.39802
2.38692
2.35466
2.30326
2.27358
2.27041
2.27296
2.29439
2.3528
2.48473
2.69428
3.00298
3.30999
3.60268
3.69909
3.77687
3.83685
3.85619
3.87267
3.87415
3.86799
3.88626
3.93892
4.07912
4.29486
4.52758
4.68859
4.87733
4.96642
4.9632
4.9385
4.88453
4.80494
4.72356
4.67836
4.66145
4.6369
4.59093
4.52826
4.46497
4.40501
4.35178
4.31585
4.29688
4.27967
4.25647
4.22225
4.17825
4.1316
4.09331
4.07206
4.06062
4.04577
4.0202
3.97907
3.92388
3.8581
3.78794
3.72855
3.68685
3.67302
3.6694
3.68562
3.70941
3.70242
3.68426
3.64077
3.59817
3.63553
3.75205
3.91617
4.0923
4.25202
4.31353
4.30239
4.23885
4.13411
4.06342
4.03244
4.00362
3.97133
3.94223
3.91011
3.85746
3.78672
3.73962
3.72372
3.71422
3.72543
3.73799
3.72096
3.7018
3.66467
3.59401
3.50187
3.44052
3.42187
3.41259
3.41747
3.43543
3.42695
3.41083
3.39455
3.3653
3.30094
3.21959
3.17149
2.74904
2.74154
2.72692
2.70087
2.66507
2.61669
2.57996
2.57008
2.5675
2.57532
2.5899
2.58661
2.57542
2.54806
2.49731
2.44273
2.42135
2.41798
2.41961
2.43502
2.44043
2.43526
2.42427
2.39307
2.33999
2.30676
2.30738
2.32981
2.41347
2.62709
2.96372
3.33205
3.59456
3.83106
3.93355
3.96532
3.972
3.97662
3.98437
3.97119
3.9444
3.90645
3.85012
3.78968
3.75953
3.77438
3.85269
4.07012
4.34501
4.61437
4.86881
4.93648
4.92811
4.88879
4.82334
4.75625
4.70112
4.66599
4.63197
4.58909
4.53529
4.47687
4.42461
4.37629
4.34217
4.31426
4.29122
4.26517
4.22496
4.18063
4.14699
4.12089
4.09475
4.06437
4.03414
4.00167
3.9584
3.90172
3.83905
3.77735
3.73496
3.72219
3.72049
3.74143
3.76193
3.75455
3.73958
3.68399
3.67252
3.73972
3.88467
4.04147
4.21086
4.35546
4.39285
4.38376
4.3275
4.22888
4.14332
4.09865
4.06262
4.02548
3.99034
3.94786
3.88728
3.82427
3.78559
3.77454
3.77165
3.78552
3.78406
3.76289
3.73819
3.68993
3.60932
3.52562
3.48692
3.47903
3.47918
3.49093
3.48918
3.47152
3.44772
3.41278
3.36715
3.31603
3.26224
3.21342
3.1988
2.78818
2.76758
2.73463
2.694
2.65202
2.62028
2.61043
2.60857
2.61645
2.62769
2.62338
2.61137
2.58412
2.53538
2.47917
2.45438
2.45023
2.45069
2.46638
2.4784
2.47335
2.46241
2.43093
2.3755
2.3578
2.38844
2.53242
2.8154
3.20423
3.58314
3.89612
4.046
4.02993
4.00054
3.97431
3.96996
4.00037
4.02882
4.02543
4.00157
3.97047
3.91628
3.83425
3.75765
3.72778
3.72162
3.72609
3.78263
3.96908
4.19721
4.48522
4.72098
4.75779
4.76763
4.76408
4.75052
4.71817
4.67742
4.63296
4.57926
4.53285
4.49859
4.46819
4.43801
4.40761
4.36866
4.3261
4.27615
4.22105
4.18568
4.16322
4.14108
4.11571
4.0825
4.03838
3.98898
3.93462
3.87906
3.82555
3.79068
3.77846
3.77647
3.79825
3.81184
3.81024
3.78424
3.7555
3.79362
3.89975
4.04691
4.19399
4.31902
4.40659
4.43093
4.41224
4.36
4.28821
4.21704
4.18628
4.16
4.12395
4.07616
4.00862
3.92373
3.85685
3.81836
3.80691
3.80552
3.831
3.84282
3.82384
3.79291
3.7318
3.63585
3.55203
3.51186
3.50191
3.50571
3.5401
3.55398
3.53844
3.50856
3.45529
3.37939
3.30985
3.26851
3.2443
3.23646
3.2345
2.80218
2.77588
2.73877
2.69526
2.65909
2.6477
2.64604
2.65578
2.66839
2.66328
2.64906
2.6204
2.57145
2.51534
2.48875
2.48375
2.4833
2.49917
2.51488
2.5121
2.50079
2.46476
2.45031
2.49324
2.68114
3.01672
3.47332
3.83135
4.11579
4.24065
4.23915
4.19686
4.14413
4.086
4.03744
4.02502
4.02668
4.02697
4.01191
3.98702
3.94135
3.88249
3.81959
3.76012
3.73781
3.72922
3.72654
3.74197
3.78476
3.85311
3.97657
4.20217
4.42339
4.56453
4.70076
4.73578
4.72325
4.68874
4.62594
4.57051
4.53937
4.52183
4.50689
4.48634
4.46097
4.42123
4.35426
4.27963
4.23036
4.20542
4.18376
4.15834
4.12387
4.07816
4.02479
3.96917
3.91781
3.86717
3.83753
3.82706
3.82734
3.84946
3.86705
3.86459
3.85066
3.88134
3.96076
4.08811
4.21997
4.33966
4.44335
4.48694
4.47193
4.41497
4.35162
4.28972
4.2488
4.23399
4.22545
4.20404
4.17144
4.1173
4.01915
3.91211
3.85586
3.84047
3.8343
3.85544
3.88381
3.87134
3.84587
3.79288
3.6896
3.58877
3.53976
3.52675
3.52372
3.55397
3.59608
3.5905
3.56891
3.52497
3.43462
3.34735
3.29749
3.26886
3.25696
3.25154
3.2577
2.79147
2.76857
2.73918
2.70542
2.69222
2.68924
2.69275
2.70251
2.69803
2.68417
2.65736
2.61106
2.55472
2.52456
2.5184
2.51736
2.53038
2.55388
2.55579
2.54095
2.56797
2.66646
2.91572
3.27511
3.67153
3.99326
4.26209
4.31852
4.32478
4.30303
4.21977
4.14167
4.10998
4.09869
4.1191
4.14062
4.1197
4.08273
4.03867
3.96531
3.8804
3.83376
3.80473
3.78811
3.78002
3.78356
3.77443
3.75928
3.74128
3.70357
3.70537
3.76256
3.94279
4.16939
4.42738
4.63388
4.65032
4.63737
4.61583
4.59215
4.58343
4.56477
4.54131
4.52518
4.49594
4.44247
4.36718
4.29858
4.25872
4.23165
4.20543
4.17555
4.1349
4.07771
4.01494
3.95928
3.91328
3.89082
3.88135
3.8853
3.90613
3.9265
3.92349
3.9574
4.02032
4.13921
4.26687
4.37151
4.46562
4.55181
4.57455
4.5528
4.48321
4.37051
4.29383
4.2635
4.24753
4.24307
4.24252
4.22904
4.20361
4.14151
4.0231
3.92704
3.8965
3.88197
3.8814
3.91283
3.91777
3.89772
3.85614
3.77329
3.65843
3.58286
3.56409
3.55652
3.56881
3.61731
3.6279
3.61132
3.58137
3.52104
3.41925
3.33402
3.30234
3.29071
3.2847
3.28251
3.27371
2.79596
2.76409
2.73876
2.72964
2.73037
2.74041
2.74498
2.73567
2.71574
2.68611
2.64329
2.59323
2.56179
2.55481
2.55228
2.56804
2.59846
2.61932
2.68602
2.878
3.20739
3.59112
3.92876
4.20573
4.41309
4.46817
4.46531
4.44542
4.39079
4.29329
4.18507
4.11003
4.09005
4.08995
4.11584
4.14183
4.12652
4.09167
4.02987
3.93865
3.86107
3.82473
3.81041
3.80685
3.82092
3.81712
3.79618
3.76315
3.71344
3.66545
3.64215
3.63985
3.6713
3.78389
3.99192
4.27997
4.50076
4.56237
4.59224
4.63209
4.63299
4.60915
4.56355
4.51168
4.46747
4.41658
4.36417
4.32201
4.29052
4.25991
4.22631
4.18713
4.13458
4.06735
4.00401
3.96337
3.94563
3.94106
3.94859
3.97689
3.99332
4.01953
4.08953
4.20241
4.32115
4.42302
4.50294
4.58217
4.65574
4.66492
4.63371
4.56449
4.44998
4.34078
4.28476
4.26211
4.25157
4.26299
4.25363
4.22793
4.18555
4.11465
4.0266
3.98482
3.96753
3.96025
3.95434
3.93588
3.91091
3.87653
3.82021
3.7343
3.65392
3.62404
3.61235
3.61269
3.62527
3.6135
3.59284
3.57222
3.54051
3.48584
3.41849
3.37074
3.34221
3.32047
3.30704
3.29656
3.28792
2.8149
2.7873
2.77583
2.77303
2.77738
2.7828
2.77392
2.75233
2.72076
2.67631
2.62832
2.59571
2.58979
2.59555
2.62029
2.68918
2.84347
3.13748
3.54416
3.9259
4.13867
4.32488
4.43134
4.51052
4.52301
4.5014
4.45103
4.39383
4.33437
4.26436
4.19483
4.16177
4.14261
4.12833
4.1292
4.13341
4.11963
4.08014
4.00572
3.92054
3.87137
3.85347
3.84438
3.85179
3.85623
3.84149
3.8146
3.75735
3.68655
3.64535
3.62788
3.62158
3.61049
3.61562
3.67018
3.82285
4.07675
4.30569
4.45503
4.57546
4.62536
4.6218
4.58926
4.51987
4.45443
4.40592
4.36378
4.33259
4.30922
4.28138
4.24368
4.19286
4.13173
4.06342
4.01538
4.00274
3.99826
4.01004
4.04274
4.07344
4.14456
4.27207
4.42237
4.52006
4.57637
4.6245
4.67285
4.72229
4.72629
4.6978
4.62493
4.51998
4.41084
4.33558
4.3085
4.29406
4.27783
4.25438
4.23173
4.19482
4.13248
4.06968
4.04775
4.0407
4.04306
4.03186
4.00569
3.96984
3.91871
3.84
3.75484
3.70475
3.68866
3.68277
3.68438
3.67749
3.65722
3.63083
3.59839
3.54424
3.47674
3.4348
3.42135
3.41092
3.39701
3.37715
3.35274
3.32663
3.3007
2.83385
2.83317
2.83378
2.82638
2.81506
2.79904
2.77697
2.74917
2.71342
2.6683
2.63754
2.63658
2.66117
2.76931
3.00989
3.41814
3.89515
4.26012
4.45473
4.56638
4.6166
4.66139
4.6704
4.64449
4.56002
4.47697
4.38787
4.3167
4.28612
4.2573
4.23922
4.23772
4.22511
4.19617
4.16268
4.12719
4.08611
4.03437
3.97347
3.929
3.91557
3.9094
3.89901
3.88277
3.86248
3.83751
3.80185
3.74626
3.67926
3.64256
3.62723
3.61769
3.60335
3.59003
3.58441
3.60048
3.69171
3.9012
4.14947
4.35924
4.54855
4.59391
4.57905
4.52003
4.44554
4.40439
4.37696
4.35084
4.32558
4.30105
4.25064
4.18346
4.12358
4.0854
4.06971
4.06805
4.08117
4.10963
4.16593
4.28997
4.44714
4.59534
4.67618
4.73106
4.76523
4.79832
4.81502
4.79399
4.75024
4.67035
4.5678
4.46543
4.40611
4.38777
4.37889
4.35743
4.3222
4.27303
4.20558
4.13646
4.09106
4.07329
4.07045
4.09439
4.10509
4.08472
4.05065
3.98814
3.88759
3.79343
3.73843
3.71802
3.71213
3.72994
3.74441
3.73041
3.70302
3.65351
3.56891
3.48436
3.44345
3.42864
3.42055
3.42189
3.42798
3.41754
3.40062
3.37503
3.33479
2.86611
2.86565
2.87549
2.86679
2.84447
2.8116
2.77267
2.73355
2.70407
2.69598
2.72756
2.87073
3.22529
3.73154
4.22983
4.55097
4.62202
4.63342
4.6354
4.66096
4.66784
4.67808
4.66611
4.62486
4.563
4.46625
4.36002
4.28412
4.2608
4.25426
4.25859
4.27882
4.27107
4.24299
4.19417
4.11901
4.04845
3.99844
3.96746
3.95628
3.95417
3.95085
3.93251
3.90742
3.87976
3.84197
3.79378
3.73786
3.69186
3.66476
3.6419
3.61822
3.59502
3.58097
3.56843
3.56814
3.57806
3.63239
3.77246
3.96466
4.19644
4.41224
4.44613
4.43773
4.43238
4.41285
4.39863
4.37943
4.35075
4.30406
4.24002
4.17476
4.14764
4.14019
4.14836
4.17634
4.23371
4.31928
4.46422
4.64482
4.72373
4.74866
4.78725
4.84059
4.88639
4.89765
4.8709
4.8171
4.72766
4.61322
4.51261
4.45533
4.4401
4.44204
4.43392
4.40566
4.35657
4.26135
4.15753
4.10681
4.08793
4.07905
4.10184
4.1475
4.13879
4.11677
4.07807
3.98182
3.84528
3.77095
3.75221
3.74708
3.76681
3.79952
3.78896
3.76677
3.73116
3.64773
3.52591
3.46
3.44157
3.43143
3.42805
3.45096
3.45798
3.44706
3.43475
3.40247
3.33297
2.91677
2.8922
2.87329
2.86286
2.84978
2.81779
2.77661
2.77458
2.834
3.04074
3.45442
3.98316
4.53909
4.78087
4.93071
4.95812
4.91787
4.84317
4.77036
4.70447
4.6525
4.63578
4.60944
4.5749
4.53463
4.46986
4.3737
4.31175
4.29244
4.28248
4.28618
4.29722
4.28467
4.25739
4.19356
4.10615
4.03863
4.00197
3.98966
3.98429
3.98114
3.96792
3.95205
3.92899
3.8877
3.8384
3.78985
3.7518
3.72292
3.69109
3.6547
3.62045
3.59702
3.58384
3.5759
3.57112
3.56747
3.55515
3.55293
3.58904
3.70409
3.93865
4.15842
4.29272
4.39294
4.42982
4.42363
4.38677
4.3283
4.27561
4.22844
4.21065
4.21404
4.24066
4.31776
4.44548
4.56985
4.70658
4.85696
4.88323
4.886
4.88934
4.89913
4.94426
4.97217
4.94544
4.88652
4.79856
4.6865
4.58032
4.51018
4.49032
4.48452
4.48557
4.46556
4.43712
4.38034
4.26569
4.15324
4.11393
4.10067
4.10839
4.15922
4.17034
4.15063
4.12024
4.07147
3.96786
3.8416
3.79126
3.7785
3.7731
3.78406
3.78781
3.7726
3.75365
3.72193
3.64154
3.52264
3.46712
3.45399
3.44804
3.46775
3.49549
3.48821
3.46929
3.43843
3.38591
3.31247
2.95345
2.9366
2.90215
2.8688
2.85395
2.87707
2.99289
3.27878
3.7727
4.29049
4.73956
4.99242
4.99263
4.93112
4.93292
4.9304
4.8996
4.87257
4.84956
4.79677
4.72222
4.64112
4.57595
4.53439
4.49783
4.45957
4.41099
4.38268
4.36663
4.3593
4.3517
4.33214
4.30767
4.26304
4.17996
4.09567
4.05625
4.04344
4.04172
4.04377
4.02853
4.00449
3.9672
3.91177
3.86477
3.83718
3.81573
3.79234
3.75755
3.70698
3.65883
3.63556
3.62751
3.6261
3.62156
3.60658
3.58474
3.54104
3.48359
3.45919
3.47096
3.54688
3.74653
3.96969
4.20606
4.37123
4.39884
4.37901
4.31547
4.2764
4.27583
4.30418
4.35641
4.47599
4.6645
4.86226
4.95714
5.01193
5.01077
4.9975
4.99702
5.00235
5.02674
5.00661
4.95918
4.90858
4.841
4.74376
4.64728
4.5743
4.55254
4.55036
4.55263
4.53201
4.50174
4.45481
4.37888
4.28283
4.20884
4.16548
4.14108
4.1283
4.12209
4.11964