/*--------------------------------*- C++ -*----------------------------------*\
  =========                 |
  \\      /  F ield         | OpenFOAM: The Open Source CFD Toolbox
   \\    /   O peration     | Website:  https://openfoam.org
    \\  /    A nd           | Version:  7
     \\/     M anipulation  |
\*---------------------------------------------------------------------------*/
FoamFile
{
    version     2.0;
    format      ascii;
    class       volScalarField;
    location    "3.1";
    object      p;
}
// * * * * * * * * * * * * * * * * * * * * * * * * * * * * * * * * * * * * * //

dimensions      [1 -1 -2 0 0 0 0];

internalField   nonuniform List<scalar> 
4128
(
3.22671
3.19396
3.15512
3.10746
3.04853
2.95555
2.84873
2.8213
2.80098
2.77439
2.75612
2.7387
2.71548
2.68533
2.64452
2.56324
2.44436
2.39243
2.36761
2.34623
2.33644
2.32919
2.31088
2.29093
2.27315
2.24531
2.17826
2.0831
2.05097
2.03413
2.01861
2.01147
2.00217
1.98791
1.97224
1.95315
1.92307
1.86493
1.78834
1.76085
1.75583
1.75259
1.74387
1.73289
1.72442
1.71414
1.69932
1.6799
1.64789
1.59367
1.53964
1.52601
1.52112
1.51991
1.52132
1.51511
1.50962
1.50367
1.49331
1.474
1.42975
1.37229
1.35706
1.35446
1.35424
1.35026
1.34453
1.34007
1.33391
1.32666
1.31791
1.30263
1.27231
1.24015
1.21941
1.20911
1.20507
1.20277
1.2089
1.2964
1.67117
2.2191
2.66553
2.7649
2.73173
2.67655
2.64276
2.60539
2.58223
2.57949
2.58405
2.59727
2.64821
2.82679
3.02923
3.14865
3.17605
3.18321
3.16479
3.13035
3.08576
3.0298
2.98633
2.96028
2.93971
2.93108
2.92926
2.90512
2.87583
2.84467
2.80476
2.75895
2.72856
2.70752
2.69046
2.68406
2.68031
2.66115
2.63862
2.60866
2.56466
2.53117
2.51315
2.49692
2.48382
2.46935
2.45057
2.43105
2.41048
3.28173
3.24457
3.19914
3.1456
3.06982
2.95151
2.88892
2.87206
2.84575
2.81949
2.8039
2.78687
2.76166
2.72707
2.66861
2.55034
2.45652
2.43496
2.4114
2.39125
2.38218
2.37267
2.35271
2.33006
2.30812
2.26924
2.17998
2.10715
2.09048
2.07186
2.05628
2.04954
2.03952
2.02347
2.0052
1.97931
1.93036
1.86169
1.81746
1.80384
1.79636
1.79062
1.77996
1.76546
1.75206
1.73676
1.71579
1.6903
1.65382
1.60756
1.57423
1.56127
1.5559
1.55523
1.54984
1.54088
1.53494
1.52706
1.5129
1.48418
1.42918
1.39083
1.38543
1.38393
1.38256
1.37524
1.36944
1.3645
1.35776
1.34914
1.33761
1.31516
1.27927
1.25394
1.23859
1.23057
1.22827
1.24014
1.33759
1.77766
2.3826
2.76088
2.84193
2.80414
2.70976
2.65125
2.63717
2.62965
2.63575
2.64287
2.65531
2.69004
2.82089
3.05345
3.18427
3.22477
3.22767
3.22163
3.19458
3.15814
3.10995
3.05234
3.01574
2.99053
2.97445
2.97556
2.96343
2.93563
2.90663
2.87049
2.82185
2.78032
2.75713
2.73759
2.7235
2.72131
2.71344
2.69067
2.66564
2.63177
2.58748
2.5564
2.5379
2.52247
2.5116
2.50102
2.48327
2.46457
2.44334
3.33181
3.28862
3.23964
3.1762
3.0722
2.96945
2.94567
2.92188
2.88941
2.86408
2.84995
2.83208
2.8027
2.75778
2.66794
2.53979
2.49696
2.48117
2.45672
2.43899
2.42924
2.41673
2.39581
2.37113
2.34186
2.28537
2.18283
2.13932
2.12671
2.10784
2.0938
2.08546
2.07399
2.05683
2.03477
1.99866
1.93002
1.87622
1.86406
1.85118
1.83879
1.82726
1.81278
1.79377
1.77299
1.75189
1.72542
1.69556
1.66522
1.64082
1.61661
1.59646
1.59009
1.58626
1.57631
1.56453
1.55664
1.54631
1.52699
1.48982
1.43766
1.41859
1.41458
1.41304
1.40936
1.40139
1.39478
1.38843
1.38065
1.37024
1.35402
1.32195
1.28755
1.27049
1.25922
1.2574
1.27374
1.41557
1.85005
2.55985
2.88365
2.88448
2.84007
2.75776
2.68172
2.65392
2.65269
2.67697
2.70495
2.71009
2.73555
2.82619
3.04498
3.20981
3.27139
3.29356
3.30326
3.27499
3.2347
3.19066
3.13049
3.07299
3.04351
3.0217
3.0165
3.02069
2.99839
2.97023
2.93804
2.89276
2.83943
2.80526
2.78424
2.76747
2.75955
2.75962
2.74157
2.71684
2.68917
2.65007
2.6087
2.58434
2.56677
2.55216
2.54076
2.52546
2.50651
2.48639
2.46306
3.37263
3.32555
3.27127
3.19006
3.07338
3.02291
2.99884
2.96794
2.9328
2.90818
2.89458
2.87394
2.83752
2.77098
2.65482
2.56179
2.5457
2.52926
2.50425
2.48839
2.47703
2.46157
2.43999
2.41228
2.37135
2.28831
2.19631
2.17674
2.16382
2.14408
2.13127
2.11919
2.10517
2.0871
2.05895
2.01144
1.94178
1.91321
1.90672
1.89628
1.88181
1.86408
1.84346
1.81831
1.78668
1.75997
1.73424
1.70746
1.69093
1.67932
1.65901
1.63079
1.62154
1.61448
1.60129
1.58645
1.57563
1.56155
1.53762
1.49799
1.45833
1.44794
1.44401
1.44118
1.43603
1.42814
1.42017
1.41211
1.40268
1.38953
1.36534
1.32455
1.29955
1.28917
1.28911
1.31603
1.51614
2.00879
2.61835
2.97949
2.99596
2.96345
2.87128
2.7777
2.73143
2.71378
2.71594
2.73854
2.75749
2.77929
2.84193
3.02231
3.22271
3.31037
3.351
3.37662
3.36294
3.31637
3.26523
3.2088
3.14453
3.10368
3.07895
3.062
3.06581
3.06328
3.03659
3.00834
2.97084
2.91327
2.86224
2.8363
2.81663
2.80306
2.80093
2.7904
2.76648
2.74146
2.7091
2.66589
2.63179
2.61116
2.59531
2.583
2.56689
2.5472
2.52645
2.50329
2.47785
3.40647
3.35573
3.29062
3.18895
3.11023
3.07921
3.04671
3.01327
2.97576
2.95304
2.93845
2.91287
2.85962
2.76479
2.65344
2.61025
2.59734
2.57954
2.55419
2.53854
2.52492
2.50631
2.48337
2.4468
2.37894
2.28265
2.22687
2.21601
2.20246
2.18205
2.16779
2.15267
2.13554
2.11472
2.07977
2.02399
1.97432
1.95351
1.94496
1.93644
1.92273
1.90239
1.8718
1.83526
1.79505
1.76754
1.75149
1.73623
1.72704
1.71763
1.69749
1.66358
1.64825
1.63883
1.62452
1.60767
1.59331
1.57556
1.54966
1.51171
1.48398
1.4779
1.47313
1.4677
1.46258
1.45538
1.44636
1.43633
1.42422
1.40564
1.36883
1.32886
1.31715
1.31906
1.36194
1.6213
2.22098
2.74506
3.05914
3.07723
3.04007
2.95128
2.85878
2.80638
2.77491
2.77097
2.78224
2.79106
2.80963
2.85638
3.01241
3.23008
3.36163
3.4004
3.43032
3.43257
3.39985
3.35246
3.29551
3.22283
3.16626
3.13919
3.11723
3.10838
3.11764
3.10307
3.07432
3.0439
2.99871
2.93675
2.89327
2.86983
2.85202
2.84302
2.83836
2.8177
2.79378
2.76598
2.72651
2.68675
2.66258
2.64466
2.63047
2.6134
2.59247
2.56932
2.54192
2.51337
2.49277
3.43202
3.37481
3.29612
3.21274
3.16561
3.12908
3.09453
3.05918
3.0205
3.00153
2.98292
2.94367
2.85879
2.75237
2.68599
2.66423
2.65042
2.63143
2.60594
2.58902
2.5726
2.55088
2.52146
2.45768
2.36577
2.29268
2.26984
2.25937
2.24371
2.22278
2.20572
2.18743
2.16669
2.14217
2.09942
2.04208
2.01013
1.99313
1.98293
1.97324
1.95812
1.93431
1.8912
1.84301
1.80802
1.78904
1.78268
1.775
1.76596
1.75401
1.73029
1.69243
1.67108
1.66033
1.64647
1.62914
1.61189
1.59227
1.56585
1.52901
1.51154
1.50725
1.50079
1.49385
1.48921
1.48269
1.47327
1.46118
1.4448
1.41547
1.36758
1.34528
1.35058
1.41241
1.7206
2.40894
2.93967
3.11108
3.10115
3.0494
2.99155
2.91576
2.86381
2.84563
2.83511
2.84347
2.84867
2.85421
2.88898
3.00831
3.24643
3.39843
3.45472
3.4728
3.48496
3.4666
3.42969
3.3842
3.31901
3.24104
3.19804
3.17366
3.15545
3.15698
3.1618
3.13603
3.10527
3.06904
3.01502
2.95823
2.92733
2.9066
2.892
2.88543
2.86861
2.84526
2.82058
2.78693
2.74527
2.71606
2.69569
2.67992
2.66614
2.6477
2.62536
2.59686
2.55886
2.52564
2.50645
3.45134
3.38357
3.31086
3.2595
3.22023
3.18239
3.14664
3.10591
3.07202
3.0518
3.01937
2.94996
2.8443
2.76505
2.73973
2.7197
2.70313
2.68258
2.65835
2.63934
2.62009
2.59321
2.54018
2.44095
2.35755
2.32972
2.31609
2.30334
2.28598
2.26477
2.24604
2.22603
2.20101
2.16891
2.11486
2.05958
2.04508
2.034
2.02264
2.00981
1.99038
1.9562
1.89734
1.85333
1.83628
1.82565
1.82109
1.81478
1.80373
1.78697
1.75638
1.71572
1.69261
1.6814
1.66862
1.65175
1.63302
1.61298
1.58384
1.54951
1.54003
1.53535
1.52728
1.52003
1.51581
1.50991
1.50027
1.48549
1.46176
1.41648
1.37807
1.38342
1.49162
1.87175
2.52079
3.03872
3.20681
3.20494
3.16111
3.07098
2.98114
2.92116
2.90128
2.8899
2.89571
2.90844
2.90868
2.93449
3.01925
3.24656
3.43593
3.50951
3.52688
3.53811
3.52602
3.49373
3.45581
3.40717
3.33186
3.26542
3.23412
3.21036
3.19861
3.20549
3.19322
3.16274
3.12894
3.0831
3.02435
2.98381
2.96146
2.9446
2.93537
2.92062
2.89659
2.87064
2.83911
2.79899
2.7665
2.74596
2.72885
2.71643
2.70159
2.68209
2.65869
2.62628
2.58145
2.54525
2.52548
3.46528
3.39742
3.34876
3.3141
3.27836
3.24144
3.2019
3.15927
3.12709
3.09264
3.02962
2.93531
2.8457
2.81409
2.79619
2.77504
2.75422
2.73286
2.71039
2.68966
2.66648
2.6208
2.52715
2.42338
2.38628
2.37497
2.36227
2.34726
2.32847
2.30778
2.28841
2.2681
2.23777
2.19117
2.12363
2.08527
2.07874
2.07252
2.05965
2.0436
2.01833
1.96924
1.90473
1.88172
1.87594
1.86658
1.85965
1.8514
1.83741
1.81442
1.7756
1.73515
1.71559
1.70462
1.69265
1.67652
1.65771
1.63601
1.60114
1.57368
1.56821
1.56301
1.55373
1.54687
1.54265
1.53676
1.52605
1.50674
1.46935
1.41956
1.42672
1.5629
2.08541
2.6878
3.13514
3.29087
3.28479
3.25012
3.17413
3.07697
2.99627
2.95943
2.93708
2.92739
2.94577
2.96373
2.9907
3.05744
3.25062
3.48206
3.56689
3.59396
3.61049
3.6031
3.56505
3.52403
3.48092
3.42207
3.35108
3.30853
3.28124
3.26142
3.25599
3.24601
3.21651
3.18395
3.14432
3.09194
3.04492
3.01913
3.00042
2.98833
2.9749
2.9516
2.92526
2.8928
2.84831
2.80989
2.78951
2.77229
2.76017
2.75017
2.73421
2.71493
2.69091
2.65532
2.60996
2.57368
2.55188
3.48803
3.43685
3.40495
3.375
3.33971
3.29919
3.25655
3.21381
3.1695
3.10496
3.01561
2.92637
2.88794
2.87182
2.85107
2.82843
2.80543
2.78356
2.76192
2.73908
2.70102
2.61465
2.50106
2.44418
2.43328
2.4225
2.40929
2.39218
2.37209
2.3522
2.33273
2.30977
2.2677
2.19793
2.13691
2.11789
2.11366
2.10812
2.09262
2.07304
2.04245
1.98287
1.93009
1.92018
1.91602
1.90579
1.89506
1.88372
1.86548
1.83436
1.78972
1.75543
1.74173
1.7314
1.7194
1.70367
1.68466
1.65769
1.61797
1.59995
1.59625
1.59056
1.58119
1.57509
1.57005
1.56263
1.5489
1.52122
1.47097
1.48354
1.6682
2.25866
2.92854
3.21594
3.32697
3.3116
3.27259
3.23243
3.16082
3.071
3.02624
3.00078
2.985
2.99138
3.00521
3.03302
3.0946
3.25599
3.50393
3.63481
3.6644
3.67885
3.68155
3.64659
3.59951
3.55403
3.50187
3.43648
3.3857
3.35634
3.332
3.31888
3.30728
3.27801
3.24644
3.21054
3.1609
3.10962
3.08093
3.05947
3.04407
3.03128
3.01034
2.98587
2.95636
2.91235
2.85773
2.82656
2.80851
2.79445
2.78811
2.7785
2.76018
2.74078
2.71665
2.6785
2.63741
2.60812
2.58754
3.52796
3.49241
3.46751
3.43941
3.40073
3.35501
3.30949
3.2553
3.18131
3.09204
3.00331
2.95969
2.94664
2.92742
2.90474
2.88106
2.85795
2.83597
2.81315
2.77955
2.70111
2.58317
2.50711
2.49196
2.48148
2.47237
2.45763
2.43848
2.41781
2.39809
2.37681
2.34279
2.26866
2.19784
2.16676
2.1531
2.14821
2.14145
2.1233
2.09939
2.06614
2.00965
1.96688
1.95778
1.9533
1.94217
1.92745
1.91213
1.88774
1.84803
1.80339
1.78058
1.77141
1.76155
1.74885
1.73271
1.71107
1.67471
1.63667
1.62674
1.62375
1.61808
1.61027
1.60389
1.5971
1.58648
1.57027
1.52937
1.55908
1.84107
2.44002
3.0752
3.34407
3.43202
3.42207
3.36513
3.29965
3.23395
3.15217
3.08068
3.05295
3.0342
3.03826
3.05837
3.07966
3.12872
3.26176
3.51648
3.67505
3.72465
3.73882
3.75135
3.73206
3.68745
3.63389
3.57669
3.51354
3.45821
3.42587
3.3996
3.38116
3.36927
3.34313
3.3114
3.27755
3.23524
3.18232
3.14103
3.11636
3.09646
3.08287
3.0673
3.04529
3.02051
2.98734
2.93467
2.87729
2.84823
2.83017
2.8166
2.8115
2.80115
2.78182
2.76205
2.7368
2.6968
2.66256
2.64396
2.62714
3.58105
3.55422
3.53158
3.50272
3.45958
3.40742
3.34966
3.26611
3.16401
3.07525
3.0297
3.01879
3.00408
2.98368
2.96028
2.93612
2.91298
2.8894
2.85689
2.7842
2.66778
2.57652
2.55366
2.54065
2.5295
2.52181
2.50657
2.48585
2.46453
2.44371
2.41599
2.35174
2.25507
2.21591
2.20347
2.18755
2.18162
2.1733
2.15425
2.12626
2.09178
2.04591
2.00525
1.9929
1.98668
1.97466
1.95634
1.93525
1.90344
1.85994
1.82405
1.81161
1.80419
1.79443
1.78088
1.76255
1.73336
1.68702
1.65923
1.65361
1.65054
1.64593
1.63919
1.6315
1.6217
1.61261
1.59743
1.65677
2.03162
2.71072
3.22922
3.49903
3.51108
3.4938
3.45117
3.38735
3.31482
3.2347
3.15608
3.11956
3.09694
3.08935
3.11101
3.13724
3.17772
3.28364
3.53053
3.70227
3.77951
3.79613
3.81189
3.80268
3.76436
3.71821
3.6585
3.58534
3.52571
3.49043
3.46148
3.439
3.42577
3.40474
3.37445
3.34364
3.3069
3.25582
3.20289
3.17206
3.14895
3.1305
3.11867
3.10163
3.07879
3.0524
3.01341
2.95481
2.90363
2.8767
2.85825
2.84464
2.83449
2.81823
2.79908
2.77758
2.74896
2.71456
2.69253
2.6774
2.66189
3.63994
3.61486
3.59276
3.56032
3.51069
3.44671
3.36107
3.24919
3.14523
3.09523
3.08541
3.07593
3.0629
3.04099
3.0167
2.99342
2.96969
2.93829
2.86948
2.75087
2.64885
2.61807
2.6056
2.58778
2.5776
2.57102
2.55537
2.53363
2.51105
2.48612
2.43865
2.33781
2.25942
2.25039
2.24134
2.22245
2.21437
2.20472
2.18636
2.15655
2.11986
2.08077
2.04479
2.02758
2.01689
2.00361
1.98215
1.95264
1.91416
1.87564
1.85384
1.84626
1.83956
1.82958
1.81473
1.79124
1.74909
1.70029
1.6851
1.68068
1.67797
1.67321
1.6649
1.65624
1.65044
1.66688
1.79094
2.26137
3.02066
3.34551
3.4887
3.54106
3.53133
3.50342
3.46996
3.41279
3.32685
3.23445
3.18068
3.15499
3.13773
3.14612
3.17796
3.22573
3.31801
3.53766
3.75995
3.85061
3.88051
3.8906
3.87326
3.83457
3.79166
3.73904
3.67008
3.6014
3.56143
3.53176
3.50561
3.48705
3.46797
3.43878
3.4086
3.37537
3.33143
3.27513
3.23101
3.20426
3.18264
3.16762
3.15472
3.13311
3.10912
3.07977
3.0328
2.9728
2.93442
2.91058
2.89337
2.87765
2.85653
2.83466
2.81352
2.78904
2.75722
2.73549
2.71961
2.70611
2.69118
3.69208
3.6696
3.6443
3.60236
3.54174
3.45819
3.34423
3.22955
3.16709
3.15537
3.14558
3.13735
3.11939
3.09463
3.07146
3.04958
3.02167
2.96012
2.84247
2.72267
2.67987
2.66992
2.65389
2.63581
2.62717
2.62126
2.60406
2.58078
2.55578
2.51809
2.43312
2.32601
2.29394
2.29079
2.28025
2.26006
2.2494
2.23713
2.21828
2.18845
2.14761
2.10956
2.08036
2.06123
2.04586
2.0297
2.00503
1.9649
1.92701
1.9023
1.88916
1.88239
1.87537
1.86492
1.84778
1.81546
1.75965
1.72034
1.71198
1.70844
1.70651
1.69698
1.6898
1.68866
1.73776
1.96833
2.55676
3.21563
3.56901
3.66081
3.66582
3.62152
3.57975
3.5471
3.50787
3.44043
3.33717
3.25902
3.22569
3.20147
3.19597
3.21902
3.265
3.35145
3.54405
3.78608
3.91715
3.9656
3.97814
3.95638
3.90941
3.85722
3.80492
3.74983
3.69341
3.64323
3.60672
3.57716
3.55036
3.52793
3.50079
3.47053
3.43924
3.40165
3.34942
3.29449
3.26278
3.23893
3.21985
3.20716
3.18791
3.1639
3.13756
3.10081
3.04371
2.99265
2.96837
2.95045
2.93237
2.90888
2.88371
2.85745
2.82484
2.79043
2.76962
2.75319
2.73912
2.72844
2.71648
3.73686
3.71656
3.68194
3.62495
3.54847
3.44015
3.32105
3.24419
3.23075
3.22217
3.21517
3.19636
3.1702
3.14614
3.12412
3.10069
3.04954
2.94007
2.80416
2.7442
2.73289
2.72123
2.70286
2.68582
2.6794
2.67159
2.65182
2.62626
2.593
2.52243
2.4134
2.34631
2.33755
2.33425
2.32066
2.30027
2.28656
2.27195
2.2504
2.21858
2.17272
2.13451
2.11109
2.09248
2.07533
2.0554
2.02306
1.97581
1.95198
1.93817
1.92639
1.91825
1.90988
1.89832
1.87647
1.83163
1.77164
1.74652
1.73944
1.73718
1.73237
1.72325
1.73209
1.81665
2.20346
2.84897
3.51831
3.70695
3.72781
3.7165
3.68761
3.63874
3.59585
3.56334
3.52172
3.44852
3.35629
3.30665
3.27845
3.26556
3.27936
3.31767
3.38698
3.56362
3.80604
3.95414
4.02873
4.05765
4.0493
4.00693
3.94736
3.87802
3.81422
3.76731
3.73049
3.69364
3.65257
3.61839
3.59015
3.56119
3.53009
3.4985
3.46416
3.42113
3.36751
3.32652
3.30063
3.2793
3.26353
3.24284
3.21787
3.19226
3.16081
3.11426
3.0588
3.02656
3.00674
2.99013
2.96904
2.94403
2.91482
2.87813
2.83506
2.80254
2.78469
2.76865
2.75501
2.74507
2.73509
3.77602
3.75166
3.70394
3.63057
3.53285
3.41805
3.32394
3.30552
3.30026
3.29944
3.27968
3.24799
3.22103
3.19599
3.17148
3.1283
3.03577
2.89631
2.81178
2.7965
2.78702
2.77335
2.75256
2.7395
2.73485
2.72026
2.69768
2.66746
2.60741
2.50376
2.41487
2.39331
2.38707
2.37827
2.36197
2.3418
2.32521
2.30789
2.28245
2.24299
2.19215
2.15788
2.13944
2.12277
2.10499
2.07994
2.03536
1.99723
1.98725
1.97592
1.96411
1.95389
1.94358
1.92881
1.89765
1.83941
1.79068
1.77475
1.76731
1.76456
1.76145
1.78138
1.93602
2.44972
3.28508
3.62884
3.74047
3.7595
3.75214
3.72853
3.70383
3.67561
3.63423
3.59007
3.53407
3.45065
3.37807
3.34695
3.32875
3.335
3.37362
3.43718
3.59621
3.84989
4.00951
4.09547
4.12709
4.13669
4.10177
4.04442
3.96759
3.89386
3.84731
3.81219
3.7776
3.73979
3.69552
3.6535
3.62054
3.58909
3.5574
3.52455
3.48714
3.43952
3.39147
3.3616
3.33754
3.31812
3.29839
3.27319
3.24693
3.21713
3.17652
3.12226
3.08471
3.06387
3.04637
3.02918
3.00823
2.98339
2.94978
2.89909
2.84745
2.82201
2.80465
2.78816
2.77359
2.76144
2.74954
3.81383
3.77912
3.71352
3.62285
3.52063
3.41847
3.38436
3.37871
3.3803
3.36551
3.32926
3.29786
3.27091
3.24267
3.20082
3.11957
2.9972
2.89204
2.86014
2.85137
2.83981
2.82096
2.80406
2.79851
2.78841
2.76602
2.74013
2.69141
2.59287
2.49116
2.45609
2.44613
2.43617
2.42146
2.40362
2.38259
2.36348
2.3427
2.31034
2.25848
2.20938
2.1847
2.17003
2.15508
2.13564
2.10033
2.04904
2.03237
2.02441
2.01169
2.00002
1.98915
1.97716
1.95645
1.90919
1.84611
1.81681
1.8035
1.79661
1.80023
1.84873
2.10419
2.77607
3.53373
3.90873
3.95533
3.91135
3.85111
3.81704
3.79053
3.7687
3.73355
3.68708
3.62537
3.5363
3.45815
3.42318
3.40137
3.39586
3.42246
3.48167
3.61959
3.89094
4.07265
4.16172
4.19616
4.21466
4.18622
4.13184
4.05658
3.97257
3.92386
3.89213
3.86076
3.82557
3.78619
3.73874
3.69176
3.65418
3.62067
3.58764
3.55266
3.51091
3.46132
3.42453
3.39895
3.37688
3.35542
3.32933
3.30218
3.2733
3.23718
3.18642
3.13822
3.11408
3.09564
3.08043
3.06325
3.04207
3.01685
2.98179
2.93008
2.87713
2.84611
2.82652
2.80878
2.79214
2.77637
2.76105
3.85353
3.8001
3.71315
3.61645
3.52957
3.47245
3.46153
3.46077
3.45095
3.41349
3.37497
3.34578
3.31443
3.27116
3.19442
3.08617
2.98887
2.93045
2.91851
2.9074
2.8874
2.86958
2.86239
2.85946
2.83512
2.80864
2.76935
2.68246
2.56979
2.51985
2.51023
2.49839
2.4811
2.46432
2.44529
2.42373
2.40277
2.37641
2.32769
2.26789
2.23262
2.21637
2.20412
2.18976
2.16525
2.11574
2.07616
2.07016
2.06108
2.04616
2.03355
2.02223
2.00732
1.9772
1.91333
1.86285
1.845
1.83505
1.84471
1.93584
2.38383
3.0881
3.84047
4.09446
4.04978
3.97713
3.92634
3.87083
3.8469
3.82317
3.79613
3.76146
3.71051
3.63496
3.54058
3.4882
3.46392
3.45179
3.46668
3.52116
3.64217
3.91043
4.14004
4.23463
4.26566
4.28594
4.26528
4.21204
4.14184
4.0551
3.99859
3.96678
3.94043
3.90921
3.8721
3.82844
3.77596
3.72848
3.6913
3.65736
3.62292
3.58492
3.5388
3.49105
3.45908
3.43411
3.41161
3.38657
3.35943
3.33061
3.29652
3.25013
3.19443
3.16119
3.14064
3.12323
3.10926
3.09089
3.06918
3.04375
3.00864
2.95988
2.91138
2.8765
2.85333
2.83414
2.81474
2.79516
2.77598
3.8869
3.81123
3.71565
3.63907
3.579
3.55014
3.54359
3.53603
3.50016
3.45452
3.42105
3.3874
3.34162
3.26277
3.16653
3.08099
3.01474
2.99044
2.98101
2.95929
2.93632
2.92787
2.92971
2.90743
2.87502
2.83889
2.76394
2.65563
2.58408
2.57279
2.56347
2.54519
2.5262
2.50806
2.48776
2.46694
2.44173
2.39561
2.33041
2.28669
2.26699
2.25287
2.24128
2.22538
2.19063
2.13262
2.11067
2.10645
2.09605
2.07952
2.06619
2.05309
2.03484
1.98863
1.91978
1.88617
1.88076
1.90115
2.06465
2.65409
3.59542
3.97829
4.13065
4.11155
4.05672
3.98158
3.93689
3.9095
3.88666
3.85798
3.82008
3.78139
3.72518
3.63609
3.56613
3.53517
3.51593
3.51905
3.56322
3.67174
3.92791
4.20547
4.32196
4.35369
4.3644
4.34516
4.2942
4.22692
4.13785
4.07036
4.03726
4.01116
3.98566
3.95069
3.91103
3.86183
3.80804
3.76581
3.73151
3.69804
3.66219
3.61973
3.56799
3.52452
3.49634
3.47171
3.44731
3.42052
3.39178
3.3592
3.31673
3.25827
3.2108
3.18747
3.16782
3.15148
3.13392
3.11265
3.09106
3.06668
3.0339
2.98938
2.94413
2.91068
2.88527
2.86252
2.83997
2.81696
2.79398
3.90754
3.81536
3.74521
3.69624
3.64891
3.62888
3.61986
3.58646
3.53592
3.49586
3.46175
3.41498
3.33225
3.2396
3.16755
3.10481
3.06859
3.0606
3.04112
3.00778
2.9955
2.996
2.97982
2.9404
2.89984
2.8339
2.73772
2.65351
2.63436
2.62745
2.61113
2.59122
2.57286
2.55284
2.53262
2.50837
2.4618
2.39164
2.34012
2.32175
2.30803
2.29337
2.28006
2.25941
2.21232
2.15698
2.14436
2.13955
2.12874
2.11152
2.09664
2.08251
2.05497
1.99512
1.93341
1.93137
1.98542
2.29204
2.96764
3.90337
4.22341
4.275
4.2471
4.16012
4.09117
4.03903
4.00466
3.9815
3.94871
3.90724
3.86184
3.80572
3.72956
3.64849
3.60803
3.58452
3.57783
3.61187
3.71149
3.95315
4.26041
4.40548
4.44666
4.45175
4.43394
4.3838
4.31929
4.23507
4.14893
4.10647
4.07673
4.05256
4.02195
3.98495
3.94152
3.88834
3.83999
3.80424
3.77199
3.73887
3.70174
3.65534
3.6009
3.56079
3.53373
3.50887
3.48317
3.45551
3.42444
3.3854
3.33041
3.2681
3.2334
3.21189
3.19248
3.17603
3.15585
3.13405
3.11172
3.08668
3.0555
3.01525
2.97108
2.93792
2.91499
2.89358
2.87061
2.84558
2.81904
3.92171
3.84407
3.80476
3.75335
3.71194
3.70127
3.67433
3.62262
3.57259
3.53267
3.48452
3.40685
3.3068
3.24527
3.1934
3.15126
3.14233
3.13193
3.0908
3.06604
3.06176
3.04737
3.00663
2.95804
2.89872
2.81471
2.7276
2.69771
2.69142
2.67604
2.6573
2.63948
2.62024
2.59968
2.57463
2.52851
2.45724
2.39468
2.37426
2.36396
2.35091
2.33526
2.31851
2.28984
2.23277
2.18603
2.17658
2.17111
2.15967
2.14264
2.12556
2.1045
2.06941
2.00152
1.99421
2.10478
2.61763
3.41263
4.10459
4.47704
4.48422
4.40871
4.28291
4.19298
4.1241
4.08239
4.05547
4.03348
3.99915
3.95895
3.91
3.83755
3.73922
3.67374
3.64647
3.63295
3.6566
3.74785
3.97141
4.3113
4.4921
4.53584
4.53706
4.52195
4.47683
4.41844
4.34316
4.24846
4.18688
4.15199
4.12165
4.09187
4.05653
4.01682
3.96775
3.91533
3.87495
3.84229
3.81067
3.77713
3.73766
3.68652
3.63298
3.59785
3.57032
3.54393
3.51823
3.49158
3.45995
3.41452
3.34684
3.28982
3.26294
3.24183
3.2221
3.20017
3.17652
3.15345
3.13059
3.10648
3.07825
3.04039
2.99429
2.96178
2.94049
2.91968
2.89763
2.87378
2.84761
3.95293
3.91115
3.86407
3.79756
3.77219
3.75509
3.70751
3.65096
3.6073
3.55999
3.4881
3.38307
3.31529
3.27782
3.23615
3.21775
3.21862
3.18973
3.14358
3.12845
3.11083
3.07059
3.01685
2.96034
2.88857
2.80218
2.76319
2.75782
2.74203
2.72171
2.70575
2.68778
2.6676
2.64142
2.59198
2.52257
2.45767
2.42856
2.4188
2.40861
2.39589
2.37958
2.356
2.31259
2.25296
2.2181
2.20983
2.20142
2.18944
2.17315
2.14954
2.12627
2.07882
2.09165
2.29935
2.97353
3.9065
4.37865
4.54484
4.51465
4.44694
4.35932
4.24971
4.19071
4.14915
4.11808
4.09633
4.06418
4.03206
3.99494
3.93772
3.84436
3.7523
3.71387
3.69594
3.70863
3.78688
3.98483
4.34678
4.57936
4.62047
4.61412
4.60374
4.56519
4.51188
4.44983
4.3637
4.28157
4.23723
4.20197
4.16959
4.13383
4.09525
4.0488
3.99323
3.94606
3.911
3.87904
3.84691
3.81215
3.77016
3.71648
3.66565
3.63173
3.60333
3.57574
3.54796
3.51901
3.48581
3.44035
3.37744
3.32546
3.29748
3.27424
3.25034
3.22519
3.1996
3.17401
3.14867
3.12321
3.0948
3.05693
3.01313
2.98561
2.9658
2.94556
2.9241
2.90123
2.87594
4.00845
3.97664
3.90736
3.84239
3.82583
3.78822
3.72686
3.67732
3.63411
3.57467
3.47758
3.38931
3.3604
3.3249
3.29409
3.29366
3.28186
3.23762
3.20071
3.17373
3.13274
3.07766
3.0221
2.96212
2.87929
2.83095
2.82528
2.81126
2.78794
2.771
2.75428
2.73443
2.70724
2.65583
2.58344
2.52061
2.49014
2.47767
2.46645
2.45639
2.44402
2.42413
2.38293
2.32393
2.27699
2.25331
2.24421
2.23219
2.21762
2.19926
2.176
2.15851
2.22942
2.63441
3.39629
4.25227
4.60255
4.70834
4.68456
4.57763
4.44477
4.32962
4.24228
4.20814
4.18234
4.16871
4.14461
4.111
4.07758
4.03346
3.95596
3.84445
3.78104
3.7573
3.76206
3.83114
4.01544
4.37249
4.66698
4.71405
4.69679
4.67926
4.65119
4.59889
4.54391
4.47432
4.38646
4.32894
4.29148
4.25738
4.22068
4.1814
4.1356
4.07609
4.0186
3.97972
3.94731
3.91576
3.88302
3.84648
3.80087
3.74426
3.696
3.66303
3.63373
3.60481
3.57534
3.54406
3.50835
3.46337
3.40931
3.36449
3.33484
3.30849
3.28146
3.25399
3.22641
3.19892
3.17121
3.14116
3.1064
3.06491
3.03012
3.01059
2.99316
2.97541
2.95614
2.93474
2.90996
4.0724
4.01119
3.91737
3.8853
3.86506
3.80645
3.74839
3.70459
3.65369
3.57363
3.47703
3.4395
3.41695
3.37788
3.36679
3.36215
3.32824
3.28104
3.24201
3.19667
3.13939
3.0819
3.03247
2.9602
2.90248
2.89326
2.88255
2.85674
2.83794
2.82079
2.80021
2.77043
2.71727
2.6462
2.5796
2.54963
2.53952
2.52883
2.51693
2.50647
2.49203
2.45344
2.38595
2.33707
2.30843
2.28981
2.27859
2.26077
2.24585
2.22877
2.25658
2.41531
3.06727
3.92688
4.50591
4.76831
4.7673
4.7561
4.71477
4.61589
4.47492
4.354
4.30015
4.27193
4.25498
4.24398
4.21062
4.17416
4.12894
4.05135
3.93522
3.84955
3.8195
3.81967
3.87963
4.05891
4.40368
4.75551
4.82559
4.7906
4.75174
4.7237
4.67912
4.6265
4.56805
4.49044
4.42306
4.38455
4.35118
4.31521
4.27451
4.227
4.16469
4.09561
4.04971
4.01735
3.98678
3.95582
3.92221
3.88252
3.82995
3.76836
3.72312
3.69167
3.66222
3.63259
3.60237
3.57084
3.53539
3.4912
3.43972
3.39858
3.36935
3.34203
3.3141
3.28533
3.25581
3.22577
3.19531
3.16048
3.11126
3.06438
3.04429
3.02846
3.01377
3.0006
2.98517
2.96636
2.94285
4.10738
3.99899
3.93731
3.93113
3.88917
3.82112
3.77761
3.73273
3.66665
3.57285
3.52124
3.50698
3.46973
3.44222
3.43651
3.41157
3.36266
3.31736
3.26809
3.20686
3.14419
3.09858
3.03969
2.97823
2.96333
2.95586
2.92779
2.90578
2.88842
2.86575
2.83329
2.77649
2.70814
2.64379
2.60798
2.59794
2.58999
2.5808
2.56873
2.55451
2.52436
2.45308
2.38605
2.36367
2.34463
2.32623
2.30932
2.29342
2.29292
2.37877
2.762
3.50443
4.42732
4.752
4.90884
4.95205
4.89296
4.8054
4.72153
4.60893
4.47843
4.40152
4.36536
4.33892
4.32402
4.29926
4.26505
4.22418
4.15756
4.03957
3.92284
3.88195
3.87259
3.9205
4.09572
4.44331
4.84381
4.95506
4.89977
4.83836
4.79488
4.75223
4.70287
4.65242
4.58928
4.51759
4.47411
4.44103
4.40684
4.36716
4.31973
4.25551
4.1783
4.12236
4.08829
4.05908
4.03098
3.99998
3.96451
3.91864
3.85388
3.78931
3.75025
3.72012
3.69065
3.66095
3.63058
3.59847
3.56144
3.51366
3.46091
3.42664
3.40153
3.37628
3.34996
3.32181
3.29124
3.25753
3.21851
3.17003
3.11362
3.07658
3.05908
3.04412
3.03086
3.02117
3.00925
2.99114
2.96915
4.10487
4.00722
3.98879
3.97687
3.90243
3.8521
3.8133
3.75476
3.67066
3.61016
3.59727
3.56678
3.5248
3.51041
3.49083
3.44265
3.39313
3.34545
3.28281
3.21459
3.16646
3.11663
3.05595
3.03496
3.02963
3.00068
2.97292
2.95614
2.93311
2.89833
2.83747
2.76862
2.70952
2.67337
2.6591
2.65005
2.64235
2.63188
2.61774
2.58704
2.52409
2.4461
2.4073
2.39687
2.38087
2.35965
2.34881
2.38226
2.56554
3.23971
4.12046
4.76694
4.91831
4.96134
4.98756
4.97423
4.91
4.82765
4.71199
4.57136
4.48137
4.44633
4.42237
4.41142
4.38753
4.35238
4.31295
4.24849
4.12998
4.00543
3.95441
3.94409
3.98432
4.15514
4.4859
4.92168
5.09645
5.04413
4.93712
4.87746
4.83045
4.78297
4.735
4.68317
4.62028
4.56608
4.52872
4.49173
4.45107
4.40343
4.34069
4.26107
4.19768
4.1614
4.13181
4.1066
4.078
4.04467
4.00374
3.94535
3.87064
3.81629
3.78331
3.75325
3.72293
3.692
3.65986
3.62436
3.58144
3.52716
3.48007
3.45405
3.43109
3.40772
3.38363
3.35795
3.32843
3.29137
3.24033
3.17526
3.12395
3.09741
3.07853
3.06296
3.04971
3.0384
3.02308
3.00384
2.98094
4.10273
4.06179
4.06081
4.00221
3.92175
3.88434
3.84027
3.77231
3.70311
3.68366
3.66516
3.61245
3.58087
3.56376
3.52547
3.4716
3.42562
3.36618
3.29254
3.23809
3.19265
3.13244
3.1048
3.10211
3.07477
3.04003
3.0219
3.00046
2.96627
2.90321
2.83258
2.77515
2.74144
2.72604
2.71401
2.70417
2.69426
2.67959
2.65061
2.58682
2.50911
2.45996
2.4454
2.43015
2.41635
2.42033
2.51058
2.93639
3.74879
4.70615
5.04332
5.16982
5.1556
5.10939
5.04074
4.97706
4.91378
4.82123
4.69166
4.58082
4.53729
4.51065
4.5022
4.4869
4.45054
4.41064
4.35121
4.23562
4.09084
4.01674
4.00393
4.03305
4.19558
4.52862
4.96928
5.21498
5.19747
5.06914
4.96893
4.91471
4.86957
4.82424
4.77738
4.72492
4.66856
4.62043
4.57811
4.53481
4.48653
4.42512
4.34341
4.27258
4.23413
4.20357
4.17891
4.15256
4.12054
4.0834
4.03221
3.95724
3.8886
3.85144
3.8212
3.79056
3.75905
3.72615
3.69072
3.649
3.59261
3.53338
3.50172
3.4796
3.45836
3.43703
3.41415
3.38944
3.36018
3.31774
3.25311
3.18772
3.15189
3.12866
3.10744
3.08754
3.06855
3.04967
3.02982
3.00708
2.97796
4.11621
4.11726
4.09731
4.01116
3.9568
3.92639
3.87227
3.794
3.76139
3.75475
3.70675
3.65495
3.63014
3.60305
3.55245
3.50593
3.45441
3.37991
3.31454
3.26827
3.20856
3.17071
3.16932
3.14971
3.11072
3.08739
3.06728
3.03384
2.9723
2.90146
2.84455
2.81151
2.79427
2.78156
2.76753
2.75542
2.73964
2.71188
2.65108
2.56965
2.5158
2.49692
2.48261
2.47743
2.51204
2.7202
3.42971
4.44721
5.14835
5.15129
5.16955
5.19621
5.21695
5.19142
5.12412
5.03796
4.92283
4.78316
4.67547
4.62763
4.60179
4.59721
4.58806
4.55418
4.51413
4.45766
4.34709
4.19165
4.09254
4.07469
4.09667
4.23834
4.56979
5.01536
5.31185
5.31989
5.21067
5.06887
5.00228
4.95596
4.91911
4.87645
4.82888
4.77455
4.71825
4.66773
4.62047
4.57098
4.51223
4.43455
4.35397
4.30898
4.27717
4.25058
4.22502
4.19318
4.15742
4.11171
4.04315
3.96423
3.92007
3.89058
3.86086
3.83005
3.79761
3.76184
3.71884
3.6626
3.59603
3.55101
3.52641
3.50449
3.48434
3.46434
3.44152
3.41566
3.38242
3.33156
3.26216
3.21149
3.18568
3.1637
3.14055
3.11568
3.09015
3.06562
3.04108
3.01322
2.97778
4.06994
4.13843
4.10521
4.03422
4.0137
3.97666
3.901
3.8348
3.82209
3.79606
3.73175
3.69464
3.67355
3.63762
3.58985
3.54468
3.47663
3.4005
3.347
3.28701
3.2351
3.22633
3.22098
3.18367
3.15357
3.13673
3.10402
3.04367
2.97546
2.92062
2.88572
2.86456
2.84908
2.83147
2.81437
2.79741
2.76811
2.71396
2.63314
2.57299
2.54874
2.54091
2.55043
2.65001
3.12247
4.03571
5.03255
5.4108
5.50638
5.40602
5.28258
5.23504
5.23127
5.21634
5.16858
5.06977
4.907
4.75669
4.69743
4.66766
4.66443
4.67546
4.64734
4.60802
4.56031
4.47086
4.31504
4.18024
4.14993
4.16322
4.28245
4.6003
5.05488
5.402
5.43017
5.34816
5.18195
5.08933
5.04117
5.00999
4.97757
4.93357
4.88232
4.8201
4.75824
4.70605
4.65703
4.603
4.53287
4.44606
4.38738
4.35273
4.32236
4.29506
4.26324
4.2284
4.18722
4.12748
4.04404
3.98713
3.95769
3.92957
3.90041
3.86958
3.83584
3.79591
3.74211
3.66755
3.60466
3.576
3.55374
3.5328
3.51156
3.48758
3.46135
3.43206
3.39336
3.33445
3.27361
3.24221
3.22081
3.19899
3.17509
3.14777
3.11599
3.08121
3.04593
3.00464
2.96657
3.88316
4.10903
4.12135
4.10855
4.08678
4.01819
3.91936
3.88119
3.87134
3.81447
3.76008
3.73673
3.7141
3.67348
3.63272
3.57616
3.49621
3.43225
3.37271
3.3054
3.28203
3.28437
3.25625
3.21783
3.20319
3.1765
3.11859
3.0515
2.99978
2.96313
2.93817
2.91917
2.8968
2.87196
2.85069
2.82099
2.76867
2.6987
2.63098
2.6051
2.60695
2.65145
2.89789
3.64998
4.77208
5.56552
5.55768
5.44224
5.45035
5.41616
5.4178
5.38041
5.31627
5.26004
5.17337
5.02274
4.8702
4.79582
4.76154
4.74532
4.75202
4.73385
4.69461
4.65049
4.57715
4.43412
4.28193
4.23389
4.24454
4.3483
4.6521
5.09521
5.48255
5.53928
5.4799
5.31385
5.18196
5.12885
5.09639
5.07712
5.03718
4.98904
4.92781
4.85373
4.79067
4.74052
4.69083
4.63133
4.55161
4.47525
4.4328
4.39925
4.36783
4.3341
4.29828
4.25869
4.2067
4.12879
4.05433
4.02024
3.99353
3.96707