/*--------------------------------*- C++ -*----------------------------------*\
  =========                 |
  \\      /  F ield         | OpenFOAM: The Open Source CFD Toolbox
   \\    /   O peration     | Website:  https://openfoam.org
    \\  /    A nd           | Version:  7
     \\/     M anipulation  |
\*---------------------------------------------------------------------------*/
FoamFile
{
    version     2.0;
    format      ascii;
    class       volScalarField;
    location    "2";
    object      rho;
}
// * * * * * * * * * * * * * * * * * * * * * * * * * * * * * * * * * * * * * //

dimensions      [1 -3 0 0 0 0 0];

internalField   nonuniform List<scalar> 
4128
(
3.15851
3.091
3.02708
2.96623
2.90397
2.84455
2.78316
2.72697
2.67412
2.61877
2.56739
2.51201
2.46483
2.41822
2.37124
2.32034
2.27936
2.245
2.19325
2.15228
2.12105
2.08637
2.03969
2.00842
1.97724
1.94076
1.9069
1.87288
1.84728
1.81665
1.78831
1.76467
1.73861
1.71323
1.68465
1.66159
1.63833
1.61428
1.59126
1.57022
1.54812
1.52816
1.51298
1.49401
1.47351
1.45565
1.43898
1.41822
1.40258
1.39072
1.37685
1.36023
1.34607
1.33454
1.31996
1.30245
1.27588
1.2579
1.3089
2.39855
3.1987
3.22536
3.2163
3.19506
3.15914
3.1163
3.0789
3.05216
3.03323
3.01854
3.00267
2.98112
2.94909
2.9038
2.84318
2.77544
2.71681
2.66773
2.62085
2.57075
2.51586
2.45602
3.62719
3.55103
3.47842
3.40802
3.33701
3.26744
3.19835
3.13334
3.0712
3.00776
2.94672
2.88468
2.8261
2.77237
2.71585
2.66325
2.60698
2.55598
2.5091
2.45922
2.41313
2.36264
2.32281
2.28336
2.23647
2.19084
2.16186
2.1253
2.07628
2.04651
2.01502
1.98128
1.94057
1.91341
1.88644
1.85467
1.82751
1.79943
1.77511
1.74575
1.71796
1.69513
1.67031
1.64684
1.6214
1.60183
1.58069
1.56135
1.54318
1.52291
1.50309
1.48565
1.46852
1.44611
1.4318
1.41879
1.40435
1.387
1.37331
1.36026
1.34337
1.32048
1.30179
1.28789
1.29208
1.64922
2.95915
3.24928
3.23452
3.20609
3.16388
3.12496
3.09732
3.07701
3.0589
3.04238
3.02477
3.00079
2.96448
2.9132
2.84682
2.78076
2.73032
2.68751
2.64408
2.59699
2.54534
2.48875
3.66782
3.59341
3.52227
3.45043
3.37977
3.30887
3.24169
3.17755
3.1128
3.0504
2.98754
2.92688
2.87107
2.81331
2.75873
2.70305
2.64852
2.60099
2.54938
2.50245
2.45132
2.40625
2.36545
2.3217
2.27786
2.23243
2.2015
2.16343
2.11564
2.08336
2.05587
2.0185
1.97725
1.95392
1.9245
1.89488
1.86146
1.83614
1.80965
1.77857
1.75316
1.72676
1.70433
1.6782
1.65451
1.6339
1.61403
1.59417
1.57398
1.55286
1.53192
1.51457
1.4975
1.47687
1.46202
1.44727
1.43096
1.41266
1.39989
1.3856
1.36741
1.34181
1.32979
1.32351
1.31007
1.34663
2.26968
3.19496
3.24083
3.21106
3.17237
3.14076
3.12018
3.10311
3.08516
3.06695
3.04681
3.01912
2.97744
2.9193
2.84843
2.78842
2.74724
2.70935
2.66891
2.62488
2.57631
2.52254
3.7093
3.6378
3.5652
3.49356
3.42157
3.35336
3.28767
3.22061
3.15571
3.09128
3.02947
2.97156
2.9122
2.85532
2.79899
2.74234
2.69339
2.64128
2.59203
2.54234
2.49159
2.45073
2.40486
2.3627
2.31613
2.27619
2.24069
2.20129
2.15638
2.1221
2.09588
2.05506
2.01604
1.99167
1.96435
1.93059
1.89542
1.87265
1.84304
1.81475
1.78489
1.76124
1.73791
1.7107
1.68887
1.66664
1.64794
1.62507
1.60413
1.58222
1.56336
1.54532
1.52661
1.50606
1.4908
1.47552
1.45836
1.44008
1.42611
1.4097
1.39017
1.36692
1.36013
1.35594
1.3407
1.33684
1.58636
2.85469
3.25467
3.21657
3.18361
3.16219
3.14676
3.13101
3.11268
3.09269
3.06839
3.0348
2.98748
2.92513
2.85543
2.80476
2.76984
2.73489
2.69688
2.6554
2.60932
2.55722
3.75368
3.6814
3.60883
3.53531
3.46558
3.39997
3.33173
3.26483
3.1976
3.13399
3.07472
3.01339
2.95415
2.89627
2.8379
2.78712
2.73452
2.68258
2.63394
2.58007
2.53727
2.49115
2.44624
2.40188
2.35549
2.31941
2.27905
2.23997
2.19641
2.16317
2.13329
2.09332
2.0542
2.02894
2.00316
1.96303
1.93108
1.90744
1.87919
1.84897
1.81738
1.79727
1.77103
1.74647
1.72129
1.70124
1.68023
1.65616
1.63409
1.61256
1.59482
1.57592
1.55634
1.53571
1.51958
1.50368
1.48576
1.46805
1.45255
1.43466
1.41437
1.39607
1.39094
1.38544
1.37237
1.35065
1.3671
2.0802
3.14932
3.23245
3.20394
3.18772
3.17601
3.16173
3.143
3.12027
3.09013
3.04844
2.99485
2.93104
2.86818
2.82677
2.79518
2.7619
2.72545
2.68568
2.64101
2.58868
3.79642
3.7249
3.65167
3.57829
3.51154
3.44335
3.3762
3.30799
3.24104
3.18043
3.11769
3.0566
2.99727
2.93697
2.88354
2.8294
2.77529
2.726
2.67139
2.62549
2.57964
2.53144
2.48881
2.43818
2.39975
2.35923
2.31856
2.27788
2.23639
2.20446
2.16964
2.1313
2.09277
2.06673
2.03875
1.99715
1.96611
1.94242
1.9166
1.88013
1.85323
1.83245
1.80656
1.78099
1.75403
1.73568
1.7113
1.68803
1.66305
1.6449
1.62621
1.6063
1.58433
1.56507
1.54936
1.53318
1.51429
1.49562
1.47806
1.46026
1.44108
1.42733
1.42207
1.41278
1.39908
1.37707
1.36429
1.50679
2.66143
3.24737
3.23241
3.21481
3.20334
3.18819
3.16759
3.14182
3.10694
3.06007
3.00375
2.94326
2.88975
2.85457
2.82464
2.79185
2.75524
2.71511
2.66951
2.61447
3.83785
3.76486
3.69052
3.62326
3.55526
3.48646
3.41776
3.34874
3.288
3.22493
3.16188
3.10073
3.03838
2.9838
2.92832
2.87174
2.82002
2.76415
2.71538
2.66938
2.61899
2.5755
2.52522
2.48146
2.44208
2.3978
2.35941
2.31353
2.27859
2.24317
2.20675
2.16804
2.13199
2.10421
2.07271
2.0329
2.00156
1.97884
1.95198
1.91288
1.88906
1.86739
1.84352
1.81239
1.78854
1.76852
1.74352
1.71893
1.69397
1.67768
1.6569
1.6361
1.61182
1.59539
1.57967
1.56306
1.54245
1.5229
1.50452
1.488
1.47042
1.45906
1.45137
1.43932
1.42145
1.40161
1.37727
1.38192
1.87128
3.05498
3.25611
3.24183
3.22945
3.21098
3.18805
3.15834
3.11853
3.06886
3.01419
2.9606
2.91598
2.88479
2.85539
2.82219
2.78451
2.74252
2.69378
2.63433
3.87857
3.80271
3.73339
3.66624
3.59693
3.52891
3.4578
3.39573
3.33325
3.26907
3.20772
3.1427
3.08631
3.03034
2.97171
2.91813
2.86083
2.80843
2.76105
2.70895
2.66263
2.61381
2.56527
2.52611
2.48031
2.4402
2.39588
2.35392
2.31997
2.28044
2.24495
2.2037
2.17208
2.14085
2.10737
2.0691
2.03896
2.01536
1.98589
1.94792
1.92432
1.90331
1.87835
1.84372
1.82243
1.80066
1.77712
1.74862
1.72738
1.70978
1.68782
1.66436
1.64073
1.62697
1.61042
1.59246
1.56873
1.54966
1.53272
1.51778
1.50115
1.49005
1.4788
1.46309
1.44094
1.42273
1.40645
1.38896
1.45611
2.40623
3.22038
3.27823
3.259
3.23374
3.20738
3.17419
3.13143
3.08244
3.03331
2.98728
2.9491
2.91899
2.88863
2.85425
2.81469
2.76934
2.7158
2.65209
3.91505
3.84299
3.77685
3.70755
3.63962
3.56793
3.50357
3.442
3.37682
3.31524
3.24884
3.18964
3.13395
3.07377
3.0183
2.96002
2.90435
2.85574
2.80218
2.7525
2.70388
2.65146
2.61094
2.56518
2.52112
2.48019
2.43231
2.39795
2.3579
2.32027
2.28107
2.24207
2.21181
2.17695
2.14331
2.10545
2.07793
2.05126
2.01991
1.98379
1.96012
1.93892
1.9108
1.87612
1.85529
1.83373
1.81
1.77932
1.7608
1.74112
1.71913
1.69207
1.67273
1.65883
1.64093
1.61988
1.59394
1.57787
1.56282
1.54815
1.53135
1.51893
1.50397
1.4851
1.46068
1.44589
1.43578
1.4108
1.41081
1.70215
2.8972
3.3146
3.27658
3.24835
3.21954
3.18491
3.14207
3.09675
3.05477
3.01675
2.98387
2.95403
2.92227
2.8855
2.84274
2.79313
2.73499
2.66943
3.95479
3.88817
3.81933
3.75089
3.67977
3.61271
3.55164
3.48582
3.4227
3.35592
3.29327
3.23812
3.17737
3.1199
3.06111
3.00169
2.95231
2.89816
2.8454
2.79678
2.74146
2.69799
2.6525
2.6047
2.56445
2.51445
2.47639
2.43829
2.39644
2.36074
2.31608
2.28419
2.24956
2.21473
2.17891
2.14366
2.11689
2.08678
2.05454
2.02023
1.99693
1.97338
1.94261
1.90916
1.88831
1.86752
1.84154
1.81129
1.79325
1.7727
1.75017
1.72174
1.70596
1.69012
1.67075
1.64471
1.62099
1.60817
1.5938
1.57776
1.55978
1.54518
1.52682
1.50688
1.4848
1.47205
1.4629
1.44404
1.4206
1.44658
2.15786
3.1927
3.28554
3.26667
3.24203
3.20396
3.15902
3.11666
3.08039
3.04872
3.01962
2.98988
2.95584
2.91574
2.86935
2.81527
2.75368
2.68983
3.99808
3.9321
3.86345
3.79217
3.72119
3.65963
3.59495
3.53097
3.46514
3.39782
3.34107
3.28051
3.22121
3.16364
3.10099
3.05011
2.99624
2.94061
2.89123
2.83446
2.78746
2.74248
2.69204
2.65001
2.60062
2.55656
2.52004
2.47571
2.43908
2.39575
2.35711
2.32513
2.28681
2.25395
2.21385
2.18421
2.1543
2.12285
2.08904
2.05761
2.03367
2.00694
1.97468
1.94309
1.92243
1.90106
1.87263
1.84357
1.82507
1.80471
1.78059
1.75352
1.73853
1.72055
1.69919
1.66913
1.6514
1.63939
1.62448
1.60575
1.586
1.5694
1.54997
1.53077
1.51188
1.50101
1.48885
1.47282
1.44558
1.44655
1.60262
2.68554
3.27502
3.28725
3.26278
3.22231
3.1789
3.14143
3.11047
3.08245
3.0539
3.02241
2.9854
2.94219
2.89201
2.83416
2.77248
2.71412
4.04223
3.9744
3.90459
3.83134
3.76708
3.70261
3.63667
3.57204
3.50353
3.44547
3.38555
3.32339
3.26531
3.20085
3.14779
3.09542
3.03804
2.98757
2.93013
2.87856
2.83408
2.78234
2.73725
2.69018
2.6402
2.60343
2.55892
2.51807
2.47846
2.43246
2.40119
2.36268
2.32723
2.29039
2.25232
2.22453
2.19065
2.15975
2.1234
2.09601
2.06935
2.04057
2.00713
1.97856
1.95754
1.93421
1.90391
1.8761
1.85722
1.83689
1.81099
1.78585
1.76983
1.75026
1.72638
1.69658
1.68343
1.67042
1.65412
1.63151
1.61081
1.59376
1.57587
1.55815
1.54117
1.52934
1.51459
1.498
1.4775
1.46459
1.47605
1.92695
3.04772
3.30805
3.2734
3.23158
3.19505
3.16621
3.14127
3.11535
3.08607
3.05176
3.01089
2.9635
2.90932
2.85039
2.79295
2.74191
4.08708
4.01582
3.94232
3.87441
3.81092
3.74399
3.67836
3.60852
3.5488
3.49055
3.42726
3.36888
3.30363
3.24607
3.1944
3.13608
3.08385
3.02797
2.97185
2.92739
2.87569
2.82658
2.78103
2.72703
2.6878
2.64462
2.59942
2.56226
2.51305
2.47778
2.44176
2.40146
2.36812
2.3246
2.29441
2.26207
2.22824
2.19545
2.15972
2.13429
2.1042
2.07481
2.0403
2.01548
1.99257
1.96715
1.93532
1.90944
1.89018
1.86905
1.84164
1.81769
1.80014
1.77959
1.75354
1.72733
1.71545
1.70063
1.68197
1.65532
1.63611
1.62064
1.60499
1.58703
1.57019
1.55669
1.54077
1.52313
1.50775
1.49706
1.48755
1.55012
2.36564
3.22463
3.28201
3.25319
3.22764
3.20272
3.17663
3.14873
3.11708
3.07908
3.03404
2.98241
2.92563
2.86906
2.81823
2.77298
4.13483
4.05374
3.97935
3.91702
3.85185
3.78707
3.71749
3.65316
3.5951
3.53152
3.47187
3.40805
3.3464
3.29469
3.23624
3.18071
3.12606
3.06626
3.02065
2.97042
2.91821
2.87331
2.81765
2.77385
2.73212
2.68367
2.64514
2.59769
2.55561
2.52211
2.4794
2.44479
2.40336
2.36488
2.33555
2.29846
2.26739
2.22896
2.19887
2.17101
2.13959
2.10901
2.07563
2.05299
2.02717
2.0001
1.96706
1.94396
1.92365
1.90113
1.87233
1.84923
1.83034
1.80916
1.78211
1.75967
1.74685
1.73011
1.70815
1.67946
1.66411
1.65045
1.63544
1.6154
1.5978
1.58329
1.56813
1.55013
1.53743
1.53034
1.51187
1.50027
1.71599
2.78697
3.28545
3.28143
3.26115
3.23642
3.20709
3.1752
3.14008
3.09954
3.05248
2.99917
2.94383
2.89291
2.84789
2.80572
4.15998
4.09718
4.02135
3.95699
3.89274
3.82621
3.75927
3.70112
3.63829
3.57621
3.5126
3.44722
3.3949
3.33772
3.27954
3.22557
3.16331
3.1145
3.0658
3.01142
2.96563
2.91137
2.86216
2.82122
2.77156
2.72903
2.68462
2.63548
2.60234
2.56053
2.5212
2.48496
2.43893
2.40918
2.37299
2.33782
2.30407
2.26471
2.23864
2.20628
2.17648
2.14238
2.11354
2.08965
2.06158
2.0328
2.00037
1.97951
1.95728
1.93307
1.90282
1.88092
1.86105
1.83945
1.81233
1.79233
1.77764
1.75897
1.73348
1.70672
1.6948
1.68152
1.6652
1.64185
1.62461
1.61065
1.59654
1.57942
1.56662
1.55855
1.53963
1.50765
1.51896
2.02818
3.09299
3.31496
3.28815
3.25823
3.22884
3.19695
3.16073
3.11846
3.06959
3.01662
2.96619
2.92184
2.88092
2.84054
4.14323
4.13499
4.07099
3.99931
3.93046
3.86241
3.80441
3.7443
3.68063
3.61794
3.54974
3.4948
3.43958
3.38015
3.32637
3.26385
3.20999
3.16148
3.10582
3.05735
3.00535
2.95164
2.91099
2.86214
2.81516
2.77327
2.71957
2.68279
2.64323
2.59901
2.5648
2.51775
2.48259
2.44991
2.41029
2.37921
2.33716
2.30576
2.27652
2.24258
2.21303
2.17648
2.15217
2.12464
2.09649
2.06492
2.03618
2.01537
1.99093
1.96466
1.9338
1.91341
1.89265
1.87059
1.84343
1.82482
1.808
1.78767
1.75996
1.73779
1.72674
1.71232
1.6932
1.66717
1.65225
1.63956
1.62579
1.60847
1.59523
1.58236
1.56303
1.52727
1.52006
1.60457
2.45373
3.25214
3.31008
3.28469
3.25642
3.22534
3.18706
3.14108
3.09004
3.03965
2.99555
2.95584
2.91708
2.87744
3.8376
4.14445
4.12361
4.0522
3.9693
3.90246
3.84667
3.78535
3.72357
3.65486
3.59545
3.5407
3.48063
3.42612
3.36623
3.30856
3.25904
3.20278
3.15059
3.09942
3.04146
2.99979
2.95322
2.9028
2.8617
2.80852
2.76561
2.7277
2.68078
2.64371
2.59968
2.5564
2.52641
2.48609
2.45194
2.41529
2.37461
2.34763
2.3123
2.28161
2.24681
2.21394
2.18968
2.15903
2.13145
2.09746
2.07361
2.05039
2.02466
1.99558
1.96637
1.94701
1.92526
1.90229
1.87507
1.85706
1.83819
1.81678
1.78882
1.77071
1.75839
1.74199
1.71928
1.69336
1.68155
1.66946
1.65486
1.63628
1.62102
1.60367
1.58337
1.55621
1.53892
1.54603
1.8071
2.85254
3.31928
3.31617
3.28546
3.24792
3.20485
3.15735
3.10926
3.06605
3.0282
2.99204
2.95482
2.91542
2.6935
3.94191
4.12755
4.09933
4.01972
3.94772
3.88718
3.8284
3.76329
3.69822
3.64071
3.58029
3.52472
3.46665
3.40737
3.35815
3.30228
3.24639
3.1955
3.13477
3.08876
3.04379
2.99128
2.94865
2.89871
2.84998
2.813
2.76613
2.72413
2.68409
2.63375
2.60238
2.56464
2.52497
2.49296
2.44784
2.41793
2.38562
2.34973
2.32001
2.27986
2.25387
2.22513
2.19487
2.16522
2.13238
2.1109
2.08432
2.05828
2.02621
2.00114
1.98124
1.9587
1.93387
1.90715
1.88932
1.86877
1.84681
1.8198
1.80369
1.78902
1.7705
1.74442
1.72206
1.71211
1.69941
1.68295
1.6621
1.64446
1.62504
1.60635
1.58665
1.57315
1.5629
1.58643
2.12032
3.1261
3.33804
3.30907
3.2635
3.2158
3.17062
3.13076
3.09582
3.06307
3.02935
2.9927
2.9526
1.64641
2.90843
4.00247
4.08648
4.06273
3.99877
3.93103
3.86864
3.80712
3.74745
3.68426
3.62336
3.5632
3.50042
3.45317
3.40142
3.34441
3.29379
3.23315
3.18139
3.13633
3.08249
3.03559
2.98792
2.93443
2.89729
2.85281
2.80649
2.7689
2.71698
2.67957
2.6445
2.60109
2.56839
2.52556
2.48807
2.45951
2.421
2.39063
2.35343
2.31827
2.29298
2.25976
2.23203
2.19736
2.17024
2.14681
2.1183
2.09142
2.05826
2.03739
2.01541
1.99237
1.96478
1.93995
1.92164
1.90014
1.87754
1.85169
1.83604
1.81868
1.79833
1.77065
1.75302
1.74281
1.72856
1.70928
1.68541
1.66746
1.64983
1.63409
1.61669
1.60772
1.59183
1.58613
1.68226
2.50087
3.26611
3.32916
3.28855
3.24038
3.20031
3.16556
3.13307
3.1
3.06469
3.02671
2.98563
1.41069
1.74237
3.14883
3.9563
4.06875
4.04271
3.97488
3.90305
3.8483
3.79005
3.72839
3.66817
3.59771
3.54628
3.49863
3.44083
3.38885
3.3317
3.2753
3.22939
3.17614
3.12578
3.07986
3.02202
2.98138
2.9396
2.89043
2.85177
2.80328
2.75896
2.72496
2.68075
2.64373
2.60589
2.5601
2.53254
2.49612
2.46032
2.4291
2.38649
2.36014
2.32879
2.29663
2.26754
2.23115
2.20869
2.18082
2.15333
2.1232
2.09353
2.07389
2.04935
2.0256
1.9953
1.97361
1.95403
1.93226
1.90825
1.88382
1.86757
1.84792
1.82644
1.79942
1.78518
1.77304
1.75655
1.73332
1.70806
1.69293
1.67868
1.66453
1.64649
1.63773
1.62416
1.59915
1.60272
1.85861
2.85168
3.3008
3.30557
3.27435
3.23904
3.20569
3.17139
3.13483
3.09623
3.05561
3.01255
1.40011
1.41912
1.88149
3.27028
3.96038
4.0738
4.0262
3.94888
3.89067
3.83031
3.7723
3.70442
3.63972
3.59402
3.53873
3.48407
3.42846
3.36984
3.32273
3.27112
3.21737
3.17175
3.11413
3.06735
3.02661
2.97649
2.93449
2.88963
2.84056
2.80622
2.76318
2.72071
2.68603
2.63643
2.60454
2.57246
2.53222
2.50254
2.46117
2.42754
2.39975
2.36362
2.33578
2.29911
2.26943
2.24568
2.21485
2.18886
2.15498
2.13145
2.10915
2.08339
2.0576
2.02687
2.008
1.98652
1.96466
1.93832
1.91596
1.89842
1.87754
1.85545
1.83075
1.81759
1.80246
1.78334
1.75584
1.73363
1.72211
1.70935
1.69422
1.67534
1.66415
1.65239
1.62862
1.61158
1.63698
2.117
3.07948
3.32673
3.30814
3.27296
3.24001
3.20462
3.16613
3.1255
3.08327
3.03901
1.40001
1.40026
1.43343
2.00227
3.32394
4.00728
4.05341
3.99602
3.93048
3.8732
3.81638
3.74795
3.6945
3.6392
3.57919
3.52249
3.4622
3.41324
3.36502
3.31127
3.26493
3.20923
3.1572
3.11534
3.06459
3.01814
2.97533
2.92292
2.88706
2.84701
2.80088
2.76605
2.71805
2.67726
2.64821
2.60725
2.57372
2.53825
2.49682
2.47057
2.43521
2.4027
2.3721
2.3326
2.30961
2.28004
2.251
2.22232
2.18973
2.16944
2.14293
2.11783
2.08804
2.06104
2.04237
2.01901
1.99644
1.96794
1.94819
1.92904
1.90823
1.88531
1.86346
1.84934
1.83089
1.80932
1.77994
1.76371
1.75319
1.73983
1.72188
1.70226
1.68979
1.67744
1.65897
1.63619
1.6291
1.70793
2.42154
3.21853
3.34192
3.31315
3.27431
3.23598
3.1966
3.15574
3.11323
3.06878
1.40001
1.40001
1.40053
1.44948
2.07608
3.39657
4.02986
4.03048
3.98109
3.92008
3.85321
3.7966
3.74413
3.68142
3.61992
3.55654
3.50343
3.45666
3.40393
3.3561
3.30409
3.24969
3.20586
3.15422
3.10355
3.06185
3.00707
2.96717
2.93101
2.88394
2.84615
2.80336
2.7539
2.72381
2.68449
2.64509
2.61376
2.56895
2.54017
2.50918
2.4718
2.44404
2.40329
2.37304
2.34729
2.31397
2.28812
2.25344
2.22823
2.20558
2.17699
2.15202
2.11872
2.09709
2.07558
2.0514
2.02656
1.99813
1.98062
1.96005
1.93995
1.9157
1.89629
1.87974
1.85867
1.83554
1.80824
1.79629
1.7844
1.76932
1.74766
1.72859
1.71627
1.70271
1.68547
1.66502
1.64169
1.64218
1.83719
2.73073
3.30417
3.34624
3.31565
3.27356
3.2316
3.19064
3.1482
3.10324
1.40001
1.40001
1.40001
1.40087
1.46403
2.14345
3.51427
4.00919
4.00501
3.96549
3.89554
3.84234
3.78517
3.71968
3.65104
3.58948
3.54441
3.4969
3.44954
3.39902
3.34451
3.30036
3.24856
3.1931
3.14891
3.09412
3.04628
3.01282
2.96764
2.92618
2.88874
2.83676
2.80142
2.76372
2.71966
2.68757
2.64366
2.60783
2.5818
2.54386
2.51356
2.47946
2.43961
2.41482
2.38124
2.35125
2.32174
2.28686
2.26678
2.23909
2.21252
2.18432
2.15343
2.13354
2.10777
2.08387
2.05478
2.02999
2.01289
1.99157
1.97131
1.94592
1.92807
1.90864
1.88679
1.86298
1.84019
1.82931
1.81495
1.79767
1.77295
1.7563
1.74377
1.72851
1.71025
1.68847
1.66845
1.64955
1.66508
2.05191
3.00509
3.35363
3.34841
3.31045
3.26565
3.22295
3.17992
3.13479
1.40001
1.40001
1.40001
1.40001
1.40127
1.4812
2.26728
3.62328
3.96392
3.99007
3.94631
3.88247
3.81856
3.75282
3.68543
3.62819
3.58023
3.53548
3.49029
3.4375
3.39356
3.34407
3.28621
3.23958
3.18776
3.12911
3.09424
3.05195
3.00642
2.97008
2.92142
2.88137
2.84465
2.79858
2.76261
2.72255
2.6767
2.65236
2.61782
2.58202
2.55333
2.51082
2.48233
2.45163
2.41601
2.38981
2.35137
2.32529
2.30264
2.27234
2.2479
2.21486
2.19094
2.16798
2.14033
2.11613
2.08375
2.06413
2.04503
2.02364
2.00101
1.97589
1.95872
1.93698
1.91616
1.89183
1.87353
1.86134
1.84444
1.82478
1.79975
1.78561
1.77178
1.75485
1.73311
1.71002
1.69639
1.67646
1.67121
1.73177
2.33447
3.19162
3.36274
3.34096
3.29546
3.25032
3.20619
3.162
1.40001
1.40001
1.40001
1.40001
1.40001
1.402
1.51399
2.44111
3.62991
3.96619
3.98186
3.9277
3.85163
3.78341
3.72349
3.67154
3.62361
3.57694
3.5274
3.48656
3.44085
3.38201
3.32967
3.28113
3.21651
3.17545
3.13621
3.08861
3.05062
3.00559
2.96352
2.92699
2.88044
2.83908
2.80364
2.7512
2.72191
2.69217
2.65278
2.62404
2.58459
2.54992
2.52254
2.48484
2.45587
2.42355
2.38593
2.36529
2.33564
2.30782
2.27966
2.24806
2.22775
2.20004
2.17477
2.14725
2.11743
2.10005
2.07735
2.05563
2.02871
2.0061
1.98826
1.96597
1.94634
1.92157
1.90643
1.89163
1.8729
1.85089
1.8285
1.81541
1.7995
1.78126
1.7555
1.73468
1.72687
1.7139
1.69226
1.697
1.84118
2.61292
3.27942
3.36109
3.32883
3.28127
3.23509
3.1926
1.40001
1.40001
1.40001
1.40001
1.40001
1.40002
1.40362
1.55951
2.53966
3.60761
3.96994
3.97256
3.90769
3.83486
3.77196
3.71506
3.6612
3.60998
3.57398
3.53601
3.47894
3.42167
3.37515
3.30976
3.25747
3.22152
3.1735
3.13038
3.08624
3.04356
3.00971
2.96642
2.92109
2.88571
2.83247
2.79225
2.76519
2.72526
2.69266
2.65867
2.61806
2.59224
2.55714
2.52228
2.49559
2.45354
2.42784
2.40217
2.36941
2.34382
2.30836
2.28426
2.2612
2.23186
2.20908
2.17708
2.15497
2.13509
2.11019
2.08719
2.05715
2.03803
2.0181
1.99701
1.97628
1.95234
1.93849
1.92047
1.9007
1.87661
1.85788
1.84415
1.82644
1.80717
1.77997
1.76603
1.75901
1.74792
1.72697
1.70925
1.71755
1.98254
2.8527
3.31431
3.35067
3.31681
3.26934
3.22734
1.40001
1.40001
1.40001
1.40001
1.40001
1.40001
1.40003
1.40559
1.58977
2.52222
3.60685
3.97022
3.96347
3.89676
3.82366
3.75563
3.69207
3.65548
3.62897
3.5767
3.51394
3.46572
3.40687
3.33709
3.30372
3.26331
3.2169
3.17091
3.1215
3.08605
3.0482
3.00319
2.96877
2.92207
2.87122
2.84148
2.80159
2.76273
2.73137
2.68745
2.65952
2.62946
2.59082
2.56417
2.52669
2.49109
2.46846
2.43492
2.40674
2.37597
2.34173
2.32161
2.29295
2.26719
2.24073
2.21016
2.1923
2.16746
2.14325
2.11669
2.0885
2.07117
2.04896
2.02947
2.00538
1.98488
1.96972
1.94888
1.92834
1.90288
1.88672
1.87125
1.85299
1.83249
1.80869
1.80043
1.79078
1.77798
1.75831
1.73552
1.72126
1.74705
2.1663
3.03796
3.34577
3.3419
3.30773
3.26636
1.40001
1.40001
1.40001
1.40001
1.40001
1.40001
1.40001
1.40005
1.40657
1.5858
2.48398
3.68429
3.95321
3.91926
3.86615
3.79424
3.72955
3.70862
3.6717
3.60759
3.55257
3.50348
3.43022
3.3748
3.34579
3.30551
3.26293
3.21264
3.167
3.12691
3.0818
3.04484
3.00548
2.95317
2.91928
2.88022
2.83656
2.80505
2.76085
2.72548
2.70014
2.6623
2.63143
2.60043
2.55743
2.53326
2.50224
2.46793
2.44265
2.40437
2.37996
2.35653
2.32666
2.30362
2.27029
2.24753
2.22649
2.19814
2.17525
2.1444
2.1224
2.10374
2.08136
2.06164
2.0352
2.0184
1.9999
1.97787
1.95603
1.93044
1.91553
1.89806
1.88018
1.85801
1.84108
1.83349
1.82049
1.80507
1.78332
1.76391
1.73764
1.73386
1.80582
2.39222
3.1887
3.36071
3.34275
3.30382
1.40001
1.40001
1.40001
1.40001
1.40001
1.40001
1.40001
1.40001
1.40005
1.40632
1.58391
2.58419
3.72709
3.8897
3.89763
3.8498
3.78236
3.75502
3.70311
3.63932
3.59106
3.53274
3.45803
3.42015
3.38986
3.3482
3.30095
3.25325
3.21088
3.16693
3.12495
3.0834
3.03279
2.9976
2.96005
2.91326
2.87958
2.84094
2.79505
2.76981
2.73511
2.69904
2.672
2.62979
2.60005
2.57178
2.53327
2.50559
2.47163
2.43564
2.41647
2.38787
2.36304
2.33627
2.3051
2.28589
2.25811
2.23131
2.20493
2.17286
2.15597
2.13449
2.11381
2.09113
2.06734
2.05135
2.02893
2.00765
1.98317
1.95965
1.9447
1.92601
1.90837
1.88563
1.87374
1.86349
1.84748
1.82924
1.80428
1.78864
1.76978
1.74468
1.74724
1.89839
2.63187
3.27884
3.372
3.34814
1.40001
1.40001
1.40001
1.40001
1.40001
1.40001
1.40001
1.40001
1.40001
1.40005
1.40736
1.62508
2.72162
3.6655
3.88162
3.88921
3.84586
3.79564
3.7272
3.67235
3.62598
3.5628
3.50028
3.474
3.44007
3.39116
3.33832
3.28945
3.24373
3.20285
3.1629
3.11277
3.07937
3.04452
2.99482
2.95275
2.91843
2.86829
2.83819
2.8079
2.76882
2.74012
2.70204
2.66808
2.64261
2.60472
2.571
2.54313
2.49824
2.47457
2.45049
2.42056
2.39786
2.3654
2.34317
2.3203
2.28965
2.26637
2.23278
2.2072
2.1894
2.16565
2.14539
2.11863
2.1001
2.08186
2.05768
2.03746
2.00987
1.99083
1.97463
1.95582
1.93706
1.91572
1.90513
1.89062
1.87261
1.85103
1.82675
1.81395
1.80001
1.77525
1.75575
1.76758
2.03054
2.85007
3.31801
3.3735
1.40001
1.40001
1.40001
1.40001
1.40001
1.40001
1.40001
1.40001
1.40001
1.40001
1.40008
1.411
1.67879
2.76222
3.63213
3.88776
3.88701
3.8336
3.76036
3.71288
3.65994
3.59417
3.55183
3.53031
3.48973
3.43492
3.37895
3.32547
3.27765
3.23524
3.18565
3.15404
3.12863
3.08215
3.03433
3.00014
2.94691
2.90533
2.87981
2.84127
2.80805
2.77297
2.73482
2.70993
2.67683
2.63917
2.61387
2.57177
2.53553
2.51437
2.48276
2.45707
2.42776
2.39801
2.37894
2.35015
2.32401
2.29866
2.26253
2.24413
2.22165
2.19798
2.17454
2.14804
2.13227
2.11031
2.08816
2.0661
2.03859
2.02337
2.00466
1.98613
1.96515
1.94631
1.93377
1.91533
1.8964
1.8718
1.85305
1.84152
1.82779
1.809
1.77951
1.7747
1.80481
2.20074
3.01293
3.35137
1.40001
1.40001
1.40001
1.40001
1.40001
1.40001
1.40001
1.40001
1.40001
1.40001
1.40001
1.40014
1.41499
1.70277
2.72418
3.62942
3.88197
3.87222
3.81731
3.7581
3.69643
3.63391
3.60176
3.5744
3.52654
3.4705
3.41632
3.36603
3.31694
3.25933
3.22101
3.20585
3.16887
3.11655
3.0805
3.03594
2.97537
2.94724
2.9152
2.87893
2.84627
2.80608
2.77703
2.74704
2.70783
2.67902
2.6457
2.59958
2.5771
2.54839
2.51825
2.49381
2.45846
2.43705
2.41221
2.38076
2.35895
2.32561
2.29869
2.28
2.25334
2.23132
2.20275
2.18072
2.1633
2.13903
2.11933
2.09226
2.07112
2.05597
2.03502
2.01666
1.99303
1.97609
1.95992
1.93942
1.9197
1.89541
1.88315
1.87087
1.85611
1.83757
1.81311
1.79407
1.79434
1.86298
2.38742
3.13956
1.40001
1.40001
1.40001
1.40001
1.40001
1.40001
1.40001
1.40001
1.40001
1.40001
1.40001
1.40001
1.40019
1.41593
1.67896
2.65524
3.59978
3.86463
3.8556
3.80494
3.74258
3.67931
3.64777
3.61475
3.55923
3.49709
3.44382
3.39931
3.34578
3.2934
3.27701
3.25307
3.20144
3.15715
3.12123
3.05944
3.01531
2.98769
2.9497
2.91493
2.87881
2.84688
2.81856
2.78289
2.74977
2.71833
2.66946
2.64067
2.61345
2.57831
2.55386
2.52217
2.49449
2.47458
2.44343
2.41792
2.39058
2.35385
2.33594
2.31188
2.28563
2.26284
2.23224
2.21479
2.19359
2.17107
2.14977
2.12152
2.10628
2.08743
2.06582
2.04586
2.02061
2.00404
1.98434
1.96427
1.94274
1.92348
1.9143
1.89989
1.88383
1.86298
1.84331
1.82857
1.80817
1.8099
1.9364
2.56027
1.40001
1.40001
1.40001
1.40001
1.40001
1.40001
1.40001
1.40001
1.40001
1.40001
1.40001
1.40001
1.40001
1.40018
1.41245
1.6485
2.5845
3.62018
3.84443
3.82159
3.78268
3.72706
3.69352
3.65508
3.59092
3.5277
3.47894
3.42994
3.37095
3.34271
3.33313
3.29193
3.23871
3.20222
3.14999
3.08343
3.05457
3.02706
2.99137
2.95339
2.91604
2.88405
2.85089
2.81878
2.79267
2.74688
2.71013
2.68302
2.6455
2.61504
2.58641
2.5484
2.53026
2.50526
2.47548
2.45409
2.41825
2.39307
2.3722
2.34197
2.31957
2.29157
2.26446
2.24728
2.22343
2.2035
2.17701
2.15548
2.14031
2.11688
2.09642
2.07261
2.04777
2.03034
2.0091
1.99051
1.96824
1.95524
1.9451
1.92809
1.91113
1.88813
1.87262
1.86145
1.83925
1.81593
1.82222
2.02792
1.40001
1.40001
1.40001
1.40001
2.38957
2.31649
2.24806
2.19394
2.14642
2.1002
2.05187
1.99812
1.93795
1.876
1.81619
1.76663
1.72726
1.6936
1.66429
1.63365
1.59727
1.55426
1.50426
1.44814
1.40119
1.37069
1.34808
1.32817
1.31039
1.29392
1.27591
1.25608
1.23041
1.1899
2.42561
2.35661
2.28991
2.23288
2.18009
2.12789
2.0762
2.02123
1.96066
1.89847
1.84247
1.79904
1.76271
1.73038
1.69809
1.66255
1.62129
1.57347
1.5199
1.46543
1.42328
1.397
1.37793
1.35883
1.34097
1.32367
1.30337
1.27772
1.24305
1.19746
2.46182
2.39551
2.32991
2.27122
2.21615
2.16123
2.1069
2.05148
1.99065
1.92711
1.87623
1.83824
1.80311
1.76861
1.73245
1.69209
1.64745
1.59687
1.54092
1.48945
1.45221
1.42888
1.41071
1.39144
1.3719
1.35147
1.32773
1.2974
1.25694
1.20728
2.49674
2.42981
2.3638
2.30546
2.25141
2.19764
2.14353
2.08796
2.02897
1.96924
1.92147
1.88212
1.84307
1.80473
1.76473
1.71957
1.67278
1.62203
1.56767
1.52174
1.48873
1.46612
1.44612
1.42508
1.40357
1.38046
1.35315
1.31912
1.27409
1.22316
2.52583
2.45623
2.39045
2.33467
2.28387
2.23334
2.18204
2.12928
2.07443
2.02069
1.97395
1.93018
1.88502
1.84052
1.79587
1.74752
1.69843
1.64937
1.60067
1.55991
1.53028
1.50642
1.48265
1.45865
1.43527
1.41035
1.38012
1.34322
1.29332
1.24954
2.54804
2.47742
2.41487
2.36308
2.31571
2.26862
2.22078
2.17198
2.12209
2.0728
2.02507
1.97596
1.92406
1.87414
1.82628
1.77739
1.72774
1.68211
1.63989
1.60186
1.57385
1.54816
1.52046
1.49268
1.46711
1.44028
1.4082
1.36981
1.31847
1.284
2.56533
2.49731
2.44039
2.39278
2.34812
2.30365
2.25868
2.21293
2.16629
2.11826
2.06742
2.01272
1.95598
1.90438
1.85763
1.81055
1.76452
1.72429
1.68654
1.64971
1.62017
1.59105
1.55965
1.52831
1.49962
1.4706
1.43769
1.39918
1.35056
1.32196
2.58338
2.52097
2.4699
2.42552
2.38272
2.34002
2.297
2.25246
2.20601
2.15636
2.10099
2.04067
1.98258
1.93352
1.89065
1.8477
1.80744
1.77248
1.73767
1.70199
1.66942
1.6357
1.59962
1.56451
1.53307
1.50267
1.46974
1.43188
1.38707
1.36172
2.6049
2.54948
2.50254
2.46002
2.41863
2.37724
2.33523
2.29051
2.24233
2.18918
2.12837
2.06438
2.00953
1.96528
1.92652
1.88936
1.85519
1.82371
1.79047
1.7544
1.71728
1.67757
1.63672
1.59933
1.56708
1.53701
1.50548
1.46895
1.42731
1.40264
2.63216
2.58259
2.53781
2.49608
2.45542
2.41458
2.37278
2.32728
2.27643
2.21854
2.15288
2.08925
2.04079
2.00161
1.96644
1.93451
1.90367
1.8733
1.84043
1.80213
1.75731
1.70968
1.66793
1.63201
1.60098
1.57275
1.543
1.50797
1.46929
1.44439
2.66349
2.61796
2.57433
2.53273
2.49208
2.45106
2.40862
2.36153
2.30701
2.24414
2.17685
2.11964
2.07884
2.04292
2.01028
1.98067
1.95038
1.91917
1.88298
1.83769
1.78465
1.73498
1.69723
1.66489
1.63629
1.60982
1.58135
1.54762
1.5117
1.48637
2.69662
2.65339
2.61059
2.56913
2.52835
2.487
2.44321
2.39347
2.33393
2.26665
2.20312
2.1565
2.12124
2.08728
2.05623
2.02612
1.99408
1.95943
1.91662
1.86209
1.80301
1.75953
1.72846
1.69945
1.67247
1.6471
1.61961
1.58689
1.55319
1.52652
2.73028
2.68804
2.64624
2.60523
2.5643
2.5223
2.4766
2.42304
2.35805
2.29044
2.2359
2.19817
2.16552
2.13288
2.10198
2.06993
2.03541
1.99544
1.94344
1.87811
1.82251
1.7901
1.76247
1.73516
1.71084
1.68628
1.6588
1.62698
1.5939
1.56434
2.76405
2.7226
2.6821
2.64126
2.59927
2.55561
2.50715
2.44889
2.38124
2.31981
2.2752
2.24214
2.21031
2.17798
2.14608
2.11207
2.07345
2.02521
1.96354
1.89411
1.85067
1.82557
1.79908
1.7731
1.75103
1.72653
1.69901
1.66685
1.6322
1.5983
2.7996
2.75923
2.71936
2.67775
2.63372
2.58668
2.53391
2.47162
2.40733
2.3562
2.31786
2.28663
2.25504
2.22232
2.18912
2.1517
2.10639
2.04862
1.97954
1.91771
1.88895
1.86629
1.8389
1.81307
1.79181
1.76736
1.73871
1.7047
1.66613
1.62836
2.8369
2.79659
2.75577
2.71298
2.66677
2.61543
2.55767
2.49465
2.43897
2.39571
2.3601
2.32952
2.29797
2.26509
2.23079
2.1899
2.13532
2.06683
1.99794
1.95353
1.93166
1.90888
1.88091
1.85605
1.83418
1.80794
1.7764
1.73815
1.69434
1.65511
2.87415
2.83212
2.78919
2.74432
2.6954
2.64067
2.581
2.52322
2.47648
2.43656
2.40117
2.3696
2.33755
2.30458
2.26894
2.2236
2.15986
2.08548
2.02643
1.99561
1.97429
1.95142
1.92491
1.90127
1.87748
1.84944
1.81249
1.76518
1.71722
1.68078
2.90988
2.86556
2.81936
2.77073
2.71906
2.66358
2.60669
2.55784
2.51708
2.47835
2.44256
2.40848
2.37434
2.3397
2.30047
2.24954
2.18105
2.11094
2.06612
2.04043
2.01766
1.9927
1.96837
1.94604
1.92058
1.8896
1.8455
1.78684
1.73849
1.70815
2.94136
2.89462
2.84574
2.79496
2.74244
2.68852
2.63807
2.5959
2.5571
2.51904
2.48301
2.44656
2.40978
2.37173
2.32702
2.26953
2.20228
2.1453
2.1113
2.08662
2.06071
2.03374
2.0107
1.9883
1.96073
1.92592
1.87318
1.80751
1.76522
1.73906
2.96682
2.91926
2.87023
2.8199
2.76929
2.72017
2.67628
2.63648
2.59624
2.55663
2.51943
2.48164
2.44327
2.40244
2.35266
2.28967
2.22773
2.18489
2.15642
2.13159
2.10477
2.07741
2.05292
2.02731
1.99704
1.95614
1.89347
1.83384
1.79928
1.77343
2.99277
2.94511
2.89656
2.84791
2.80038
2.75662
2.71773
2.67853
2.636
2.59322
2.55217
2.51179
2.4719
2.42947
2.37836
2.31625
2.2617
2.22654
2.19982
2.17509
2.14916
2.12199
2.09441
2.06459
2.02865
1.97637
1.91085
1.86552
1.83705
1.81206
3.02272
2.97546
2.92756
2.87976
2.834
2.79353
2.75656
2.71738
2.67454