/*--------------------------------*- C++ -*----------------------------------*\
  =========                 |
  \\      /  F ield         | OpenFOAM: The Open Source CFD Toolbox
   \\    /   O peration     | Website:  https://openfoam.org
    \\  /    A nd           | Version:  7
     \\/     M anipulation  |
\*---------------------------------------------------------------------------*/
FoamFile
{
    version     2.0;
    format      ascii;
    class       volScalarField;
    location    "2";
    object      T;
}
// * * * * * * * * * * * * * * * * * * * * * * * * * * * * * * * * * * * * * //

dimensions      [0 0 0 1 0 0 0];

internalField   nonuniform List<scalar> 
4128
(
1.95247
1.94059
1.92896
1.91752
1.90533
1.89372
1.88121
1.86967
1.85848
1.84623
1.83492
1.82212
1.81136
1.80026
1.78869
1.77572
1.7655
1.75703
1.74283
1.73166
1.72337
1.71384
1.70008
1.69127
1.68221
1.67115
1.66085
1.65025
1.64245
1.63265
1.62354
1.61599
1.60738
1.59887
1.58894
1.58097
1.57279
1.56417
1.5558
1.54799
1.53964
1.53208
1.52633
1.51894
1.51083
1.50373
1.49705
1.48859
1.48225
1.47747
1.47177
1.46483
1.4589
1.45407
1.44785
1.4403
1.42841
1.42105
1.44919
2.02349
2.32101
2.35612
2.36119
2.36702
2.37161
2.37312
2.3746
2.37921
2.38694
2.39445
2.39908
2.40098
2.40072
2.39691
2.38796
2.37791
2.3724
2.37051
2.36992
2.36914
2.36723
2.36288
2.01008
2.0007
1.99139
1.98181
1.97149
1.96098
1.94996
1.93914
1.92839
1.91686
1.90554
1.89358
1.88206
1.87129
1.85931
1.84835
1.83603
1.8248
1.81424
1.80244
1.79157
1.77913
1.76957
1.75975
1.74736
1.73507
1.72783
1.718
1.70383
1.69575
1.68686
1.67709
1.66471
1.65683
1.64879
1.6389
1.63051
1.62159
1.61387
1.60412
1.59479
1.58717
1.57862
1.57045
1.56131
1.55431
1.54659
1.5395
1.53271
1.52495
1.51732
1.51059
1.50392
1.49497
1.48933
1.48417
1.47836
1.47126
1.46568
1.46031
1.45321
1.44344
1.4353
1.42944
1.43122
1.63404
2.20156
2.33366
2.3406
2.34576
2.34849
2.35063
2.35444
2.36145
2.37008
2.37787
2.38298
2.38496
2.38416
2.37828
2.36658
2.35579
2.35087
2.3487
2.34724
2.34542
2.34221
2.33695
2.00318
1.99444
1.98582
1.97653
1.96709
1.95705
1.94707
1.93709
1.92641
1.91585
1.9048
1.89352
1.88284
1.8712
1.86038
1.84892
1.83748
1.82743
1.81572
1.8052
1.79321
1.78271
1.77307
1.76217
1.75104
1.73919
1.7316
1.72154
1.70807
1.69944
1.69212
1.68143
1.6692
1.66285
1.6542
1.64538
1.63502
1.62735
1.61909
1.609
1.60084
1.59211
1.58469
1.57572
1.5675
1.56034
1.55334
1.54623
1.53884
1.53096
1.52309
1.51657
1.51009
1.50207
1.49637
1.49062
1.48418
1.47682
1.47176
1.46598
1.45846
1.44767
1.44266
1.44004
1.43476
1.45373
1.935
2.27636
2.32412
2.32358
2.32629
2.33033
2.33616
2.34413
2.35269
2.36016
2.36523
2.36713
2.36577
2.35826
2.34538
2.33657
2.33351
2.33164
2.32984
2.32723
2.32282
2.31639
1.99654
1.98845
1.97973
1.97098
1.96176
1.95276
1.94365
1.93367
1.92378
1.91356
1.90321
1.89313
1.88213
1.87136
1.86047
1.84913
1.83937
1.82814
1.81766
1.80679
1.79527
1.7862
1.77525
1.7652
1.7536
1.74378
1.73499
1.72472
1.71247
1.70346
1.69679
1.68525
1.67403
1.66751
1.65982
1.64982
1.63914
1.6326
1.62346
1.61466
1.60511
1.59762
1.5901
1.58097
1.57371
1.56614
1.55979
1.55171
1.54424
1.53629
1.52947
1.52285
1.51588
1.50808
1.50237
1.49656
1.48992
1.48275
1.4773
1.47075
1.46282
1.4532
1.45057
1.4489
1.44268
1.44068
1.57789
2.13729
2.30028
2.29996
2.30517
2.31216
2.31944
2.3274
2.33525
2.34187
2.346
2.34708
2.34501
2.337
2.32566
2.32041
2.31896
2.31767
2.31604
2.31315
2.3081
2.30076
1.99078
1.98253
1.97405
1.96511
1.95654
1.94832
1.93903
1.92976
1.92005
1.91049
1.90128
1.89106
1.88087
1.87074
1.85979
1.85015
1.83945
1.82887
1.81905
1.80745
1.7985
1.78806
1.77779
1.76748
1.75631
1.7479
1.73783
1.72793
1.71644
1.70803
1.70039
1.68936
1.67836
1.67175
1.66478
1.65288
1.64357
1.6369
1.62847
1.61922
1.60929
1.60329
1.59493
1.58704
1.57875
1.5722
1.56519
1.55687
1.5492
1.54162
1.53541
1.52863
1.52151
1.51389
1.50799
1.50208
1.49529
1.48851
1.48258
1.47556
1.46747
1.4601
1.45822
1.45608
1.45064
1.44213
1.45028
1.81955
2.22321
2.2798
2.28729
2.29625
2.30442
2.31187
2.31853
2.3237
2.32601
2.32564
2.32191
2.31423
2.30647
2.30494
2.30487
2.30432
2.30313
2.30038
2.2951
2.28697
1.98501
1.97706
1.9686
1.95971
1.95174
1.94302
1.93434
1.92525
1.91592
1.90741
1.89785
1.88832
1.87899
1.86883
1.85963
1.84963
1.83916
1.82979
1.81876
1.80971
1.80002
1.7894
1.7803
1.76858
1.76011
1.75056
1.74071
1.73066
1.72017
1.71239
1.70342
1.69314
1.6826
1.67593
1.66844
1.6563
1.64752
1.641
1.63362
1.62242
1.61439
1.60833
1.60031
1.59227
1.58355
1.57783
1.56977
1.56199
1.55343
1.54734
1.54095
1.53398
1.52611
1.51923
1.51365
1.50779
1.50078
1.49377
1.48715
1.48032
1.47284
1.46751
1.46562
1.462
1.45643
1.44759
1.44191
1.51715
2.04913
2.24928
2.27298
2.28218
2.28978
2.29573
2.30075
2.3044
2.30513
2.30328
2.2984
2.29266
2.28904
2.28979
2.29117
2.29103
2.29014
2.2874
2.28173
2.27255
1.97925
1.97128
1.96262
1.95496
1.94668
1.93802
1.92929
1.9201
1.91227
1.90337
1.89419
1.8853
1.87567
1.86728
1.85815
1.84817
1.8392
1.82877
1.8196
1.81049
1.79995
1.79127
1.78041
1.77116
1.76262
1.75228
1.74354
1.73232
1.72419
1.71555
1.70636
1.69624
1.68679
1.67976
1.67135
1.66005
1.6514
1.64537
1.63783
1.62597
1.61923
1.61302
1.60591
1.5961
1.58873
1.58259
1.57451
1.56646
1.55813
1.55292
1.54591
1.5388
1.53026
1.52464
1.5192
1.51332
1.50581
1.49864
1.49183
1.48567
1.479
1.47476
1.47195
1.4673
1.4602
1.45215
1.44285
1.44509
1.69971
2.15299
2.25007
2.26536
2.27426
2.27863
2.28254
2.28479
2.28422
2.28049
2.27569
2.27253
2.27189
2.27435
2.27657
2.27667
2.27601
2.27311
2.26668
2.25627
1.97316
1.96494
1.95746
1.94988
1.94154
1.93335
1.92417
1.91652
1.90823
1.89928
1.89093
1.88143
1.87343
1.86495
1.85538
1.84694
1.8374
1.82828
1.81976
1.80958
1.80068
1.79099
1.78108
1.77326
1.76306
1.75445
1.7444
1.73489
1.72732
1.71773
1.70916
1.69859
1.69084
1.68296
1.67417
1.66366
1.65563
1.64949
1.6413
1.63008
1.6236
1.61778
1.6105
1.5997
1.59344
1.58685
1.5795
1.57025
1.56349
1.55796
1.55071
1.54279
1.5347
1.53025
1.52464
1.5184
1.50985
1.50305
1.49695
1.49156
1.48542
1.4814
1.47725
1.47124
1.46256
1.45539
1.44899
1.44239
1.47637
1.9234
2.20212
2.2572
2.25892
2.26116
2.26485
2.2663
2.26483
2.26055
2.25713
2.25583
2.25652
2.25962
2.26166
2.26194
2.26122
2.25771
2.25015
2.2388
1.96598
1.9587
1.95208
1.94441
1.93681
1.92806
1.92043
1.91282
1.90406
1.89606
1.88675
1.87868
1.87086
1.86153
1.85324
1.84419
1.83524
1.82751
1.81798
1.80902
1.80028
1.79013
1.78254
1.77296
1.76374
1.7553
1.74478
1.73783
1.72866
1.72001
1.71068
1.70123
1.6942
1.68548
1.67696
1.66688
1.65994
1.65303
1.64446
1.63414
1.62785
1.62214
1.61399
1.60342
1.59752
1.59118
1.58398
1.57417
1.5686
1.56247
1.5554
1.54635
1.54006
1.53568
1.52971
1.52248
1.51328
1.50779
1.50256
1.49741
1.49134
1.48692
1.48143
1.47431
1.46487
1.45929
1.45546
1.44588
1.44595
1.59346
2.07116
2.24053
2.23875
2.24184
2.24594
2.24674
2.24498
2.24171
2.24031
2.24049
2.24237
2.24518
2.24662
2.24668
2.24532
2.24059
2.23197
2.22062
1.96022
1.95372
1.94657
1.93941
1.93145
1.92386
1.91697
1.90862
1.90075
1.89188
1.8835
1.87627
1.86731
1.85899
1.85031
1.84108
1.83379
1.82488
1.81593
1.8081
1.79816
1.79064
1.78204
1.77239
1.76471
1.75433
1.74686
1.7388
1.72942
1.72173
1.71125
1.70438
1.69632
1.68795
1.67906
1.67013
1.66367
1.65594
1.64739
1.63798
1.63202
1.62573
1.61692
1.60704
1.60133
1.59544
1.58768
1.57826
1.57304
1.56677
1.5597
1.55037
1.54557
1.54062
1.53427
1.52535
1.5172
1.51307
1.50823
1.50269
1.49631
1.49117
1.48451
1.47713
1.46879
1.46415
1.46086
1.45348
1.44511
1.45739
1.79038
2.16065
2.22449
2.2263
2.23
2.22981
2.22769
2.22551
2.2254
2.2268
2.22948
2.23166
2.23217
2.23166
2.22888
2.2226
2.21332
2.20311
1.95558
1.94907
1.94201
1.93434
1.92639
1.91993
1.91239
1.90483
1.89679
1.88797
1.88094
1.87251
1.86415
1.85619
1.84675
1.83962
1.83123
1.82208
1.81453
1.80498
1.79745
1.78988
1.78032
1.77281
1.76339
1.75493
1.7479
1.73837
1.73089
1.72139
1.71317
1.70651
1.6976
1.69015
1.68027
1.67346
1.66631
1.65849
1.64976
1.64159
1.63561
1.62852
1.6195
1.61054
1.60511
1.59923
1.59085
1.5821
1.57689
1.57087
1.56346
1.55486
1.55049
1.54492
1.53803
1.52782
1.52212
1.51839
1.51349
1.50708
1.50019
1.49444
1.4875
1.48058
1.47368
1.46988
1.46551
1.45946
1.44925
1.44955
1.52395
1.98398
2.1839
2.2185
2.21662
2.21439
2.21211
2.21132
2.21198
2.21424
2.21688
2.21808
2.21797
2.21631
2.21164
2.20397
2.19495
2.18689
1.9502
1.94388
1.937
1.92906
1.92242
1.91532
1.90774
1.9004
1.89189
1.88514
1.87746
1.86897
1.86136
1.85201
1.84489
1.83736
1.82823
1.82076
1.81147
1.80337
1.79655
1.78734
1.77966
1.77155
1.76234
1.75595
1.74706
1.73887
1.73106
1.72133
1.71539
1.7069
1.69911
1.69075
1.68198
1.67608
1.66803
1.66072
1.65148
1.64486
1.63824
1.63079
1.62171
1.61408
1.60871
1.60239
1.59362
1.58556
1.58042
1.57462
1.56681
1.55913
1.55455
1.54858
1.54099
1.5311
1.52725
1.52327
1.51801
1.51032
1.50326
1.4975
1.49131
1.48512
1.47911
1.47505
1.46978
1.46373
1.45594
1.45202
1.45686
1.67062
2.0785
2.1985
2.19711
2.19625
2.19608
2.19696
2.19901
2.20189
2.2041
2.20451
2.2037
2.20018
2.19359
2.1854
2.17785
2.17227
1.94511
1.93809
1.93075
1.92415
1.91789
1.91057
1.90338
1.89505
1.88844
1.88164
1.87341
1.86621
1.85728
1.84969
1.84285
1.834
1.8265
1.81809
1.80934
1.80291
1.79421
1.78597
1.77864
1.76896
1.76272
1.75495
1.74617
1.73949
1.72966
1.72315
1.71586
1.70712
1.70024
1.6904
1.68435
1.67729
1.66952
1.66188
1.65315
1.64743
1.64004
1.63275
1.62365
1.61748
1.61169
1.60492
1.59591
1.5888
1.58373
1.57788
1.56978
1.56274
1.5578
1.55168
1.54354
1.53521
1.53192
1.52743
1.52148
1.51249
1.50621
1.50118
1.496
1.48986
1.48406
1.47948
1.4739
1.4676
1.46205
1.45846
1.45533
1.48417
1.83951
2.13102
2.18408
2.18254
2.18406
2.18578
2.18772
2.19009
2.19128
2.19116
2.18912
2.18373
2.17606
2.16865
2.16321
2.15942
1.94332
1.93265
1.92458
1.91907
1.91268
1.90614
1.89839
1.89132
1.88504
1.87724
1.8702
1.86215
1.85418
1.84787
1.83957
1.83178
1.82412
1.81495
1.80879
1.80098
1.7923
1.78543
1.77577
1.769
1.76215
1.75303
1.74647
1.7377
1.72996
1.72391
1.71507
1.70828
1.69963
1.69162
1.68591
1.67759
1.67084
1.66179
1.65519
1.64902
1.64155
1.63418
1.6257
1.62042
1.61391
1.6069
1.59782
1.59191
1.58668
1.58057
1.57223
1.56572
1.56052
1.5544
1.54615
1.53938
1.53588
1.53087
1.52392
1.51442
1.50975
1.50554
1.50073
1.49398
1.48807
1.48325
1.47809
1.47179
1.46747
1.46517
1.45872
1.45453
1.55528
1.97839
2.14528
2.17598
2.17467
2.17507
2.17592
2.17699
2.1772
2.17642
2.17306
2.16683
2.1598
2.15427
2.15059
2.14777
1.93973
1.93121
1.92154
1.91472
1.90814
1.90108
1.89375
1.8879
1.88082
1.87378
1.86631
1.85806
1.85214
1.84467
1.83673
1.82971
1.82054
1.81413
1.80721
1.79847
1.79177
1.78292
1.77522
1.76903
1.76012
1.75291
1.74533
1.73631
1.73086
1.72281
1.71511
1.70837
1.69895
1.69357
1.68593
1.67834
1.67109
1.66215
1.65706
1.64977
1.64302
1.63477
1.62797
1.62251
1.61558
1.60835
1.59979
1.5948
1.58912
1.58267
1.5741
1.56826
1.56292
1.55689
1.54884
1.54313
1.53912
1.53362
1.52563
1.51708
1.5138
1.50985
1.50473
1.49694
1.49137
1.48689
1.48226
1.47645
1.47219
1.4696
1.46284
1.45155
1.45696
1.68731
2.05079
2.15934
2.15977
2.16059
2.16217
2.16315
2.16304
2.16122
2.15668
2.15056
2.14526
2.1418
2.13943
2.13723
1.9133
1.92821
1.92012
1.91152
1.90377
1.89611
1.89033
1.88395
1.87691
1.87004
1.86168
1.85566
1.84908
1.84129
1.83474
1.82609
1.81909
1.81273
1.80422
1.7973
1.78956
1.78111
1.77543
1.76735
1.75935
1.75267
1.74293
1.73712
1.73013
1.72154
1.71562
1.70647
1.70015
1.69396
1.68557
1.67943
1.67023
1.66397
1.65804
1.65041
1.64387
1.63513
1.63001
1.6237
1.61707
1.60924
1.60209
1.59724
1.59104
1.58418
1.57571
1.5706
1.56516
1.55917
1.55132
1.54628
1.54171
1.53585
1.52732
1.52065
1.51776
1.51355
1.5076
1.49906
1.49453
1.49064
1.48628
1.48053
1.4762
1.47196
1.46523
1.45239
1.45048
1.48812
1.83704
2.10008
2.14916
2.14808
2.1497
2.15125
2.15069
2.14759
2.1421
2.13668
2.13325
2.13118
2.12952
2.1275
1.81414
1.91623
1.91622
1.90884
1.8991
1.89242
1.88736
1.88087
1.87412
1.86575
1.85899
1.85274
1.84515
1.8388
1.83124
1.82388
1.81782
1.80979
1.80249
1.7954
1.78641
1.78098
1.774
1.76552
1.75933
1.75018
1.74335
1.7372
1.72842
1.72209
1.71411
1.70612
1.70102
1.6929
1.68621
1.67899
1.67053
1.66566
1.65805
1.6515
1.64368
1.63636
1.63148
1.62447
1.61825
1.60985
1.60441
1.59895
1.59259
1.58512
1.57749
1.57288
1.56728
1.56117
1.55351
1.54888
1.54382
1.53781
1.52942
1.52436
1.52112
1.51638
1.50937
1.50111
1.49784
1.49429
1.48976
1.48368
1.47874
1.47304
1.46621
1.45649
1.45141
1.45406
1.56894
1.95953
2.11395
2.14089
2.13899
2.13831
2.13633
2.13237
2.1276
2.12431
2.1227
2.12166
2.12035
2.11814
1.50359
1.84289
1.90867
1.90595
1.89597
1.88904
1.88397
1.87835
1.87083
1.86283
1.85607
1.84856
1.84222
1.83545
1.82822
1.82266
1.8152
1.80751
1.80093
1.7918
1.78586
1.77969
1.77118
1.76493
1.75705
1.74926
1.74381
1.7356
1.72838
1.72173
1.71239
1.70735
1.70029
1.69245
1.6867
1.6776
1.67234
1.66596
1.65827
1.65221
1.64317
1.63819
1.63216
1.62543
1.61871
1.61085
1.6063
1.60004
1.59388
1.58573
1.57964
1.57496
1.56925
1.56272
1.55549
1.55112
1.5457
1.5397
1.53184
1.5276
1.5237
1.51842
1.51044
1.50369
1.50116
1.4975
1.49245
1.4857
1.48011
1.47382
1.46775
1.46118
1.45675
1.45436
1.46416
1.69247
2.02477
2.11878
2.12323
2.12199
2.11951
2.11637
2.11422
2.11338
2.11314
2.11277
2.11143
2.10867
1.10875
1.5703
1.85693
1.89595
1.89329
1.88611
1.87958
1.87369
1.86708
1.86023
1.85252
1.84559
1.83889
1.83125
1.82654
1.82034
1.81259
1.80625
1.79767
1.79086
1.78498
1.77667
1.76989
1.76294
1.75437
1.74948
1.74248
1.73453
1.7287
1.71939
1.71335
1.70733
1.69891
1.69324
1.68515
1.67828
1.67331
1.66534
1.65935
1.65153
1.64421
1.63959
1.63238
1.6265
1.61844
1.61255
1.60761
1.60102
1.59485
1.58655
1.58189
1.57666
1.57098
1.56379
1.55745
1.55309
1.54752
1.54147
1.53419
1.53025
1.52561
1.51991
1.51158
1.50667
1.50411
1.50004
1.49413
1.48652
1.48104
1.47555
1.47068
1.46512
1.46242
1.4576
1.45534
1.49686
1.82072
2.05727
2.11031
2.10702
2.10484
2.10421
2.10406
2.10413
2.10397
2.10329
2.10146
2.09827
1.00395
1.15231
1.63934
1.84538
1.88473
1.88217
1.87422
1.8668
1.86232
1.85633
1.84958
1.84347
1.83516
1.83012
1.82501
1.8173
1.81067
1.80298
1.79537
1.78979
1.78212
1.77499
1.76881
1.75969
1.75453
1.74862
1.74038
1.73457
1.72646
1.71915
1.7138
1.70568
1.69923
1.69275
1.68421
1.67985
1.67282
1.66563
1.65971
1.65078
1.64617
1.63986
1.63301
1.62689
1.61857
1.61431
1.60828
1.6022
1.5952
1.5881
1.5839
1.57804
1.57238
1.5646
1.55948
1.55483
1.54929
1.54293
1.53631
1.53234
1.52714
1.52125
1.51334
1.5097
1.50657
1.50187
1.49476
1.48691
1.48259
1.47842
1.47422
1.46851
1.46607
1.46183
1.4542
1.45565
1.56478
1.91926
2.06346
2.0964
2.09393
2.09378
2.09431
2.09428
2.09376
2.09241
2.08996
2.08643
1.00003
1.00735
1.21251
1.66464
1.83524
1.87782
1.87343
1.86566
1.86046
1.85386
1.84772
1.83979
1.83256
1.82853
1.82188
1.81478
1.8075
1.79965
1.7942
1.7874
1.77999
1.77441
1.76575
1.7595
1.75413
1.74611
1.73972
1.73277
1.72469
1.71976
1.71247
1.70508
1.69963
1.69054
1.6855
1.6799
1.67192
1.66664
1.65845
1.65222
1.64727
1.63969
1.63417
1.62613
1.62006
1.61559
1.60884
1.60332
1.59529
1.59021
1.58535
1.57935
1.57332
1.56564
1.5615
1.55633
1.5509
1.54395
1.53825
1.53403
1.5286
1.52267
1.51571
1.5125
1.5085
1.50309
1.49471
1.48814
1.48516
1.48159
1.47713
1.47127
1.46815
1.46468
1.45707
1.45195
1.46242
1.65997
1.97427
2.06772
2.08335
2.08222
2.08277
2.08274
2.08203
2.08037
2.07781
2.07438
1
1.00008
1.01341
1.25981
1.6656
1.83866
1.87367
1.86698
1.85978
1.85319
1.84611
1.83699
1.83131
1.82525
1.81788
1.81088
1.80296
1.79766
1.79225
1.78539
1.78001
1.77234
1.76507
1.75951
1.75167
1.74451
1.73825
1.7297
1.72502
1.71895
1.71109
1.70588
1.6976
1.69077
1.68617
1.67835
1.67232
1.66604
1.65822
1.65405
1.64711
1.64054
1.63447
1.62593
1.62197
1.61594
1.6098
1.6036
1.59612
1.59219
1.58628
1.58074
1.57369
1.5673
1.56326
1.55761
1.55215
1.54474
1.5401
1.53551
1.53023
1.52416
1.51829
1.51486
1.50992
1.5039
1.49505
1.49073
1.48811
1.48442
1.4791
1.47318
1.46976
1.46624
1.46044
1.4535
1.45111
1.48409
1.76137
2.00295
2.07018
2.0699
2.06955
2.06961
2.06913
2.06785
2.06576
2.06285
1
1
1.00017
1.02029
1.28293
1.67835
1.84934
1.86941
1.86214
1.85332
1.84251
1.83427
1.82825
1.82099
1.81412
1.80664
1.80107
1.79631
1.79002
1.78474
1.77837
1.77072
1.76491
1.75708
1.74917
1.74341
1.73474
1.72972
1.72497
1.71734
1.71172
1.70495
1.69639
1.69185
1.68476
1.67747
1.67244
1.66423
1.65987
1.65447
1.64703
1.64193
1.63339
1.62768
1.62299
1.61597
1.61084
1.60311
1.59806
1.59362
1.5873
1.58196
1.57395
1.56928
1.56446
1.55873
1.5528
1.54567
1.54189
1.53697
1.53203
1.52564
1.5207
1.51663
1.51102
1.50466
1.49673
1.49392
1.4909
1.48675
1.48031
1.47477
1.47149
1.46766
1.46245
1.45587
1.44923
1.44964
1.53024
1.84879
2.02385
2.06209
2.0602
2.0582
2.05705
2.05602
2.05444
2.05198
1
1
1
1.00028
1.0261
1.30426
1.71649
1.85147
1.85917
1.85217
1.83857
1.83054
1.82425
1.81764
1.81028
1.80387
1.7999
1.79477
1.78935
1.78332
1.77599
1.77027
1.76265
1.75405
1.7483
1.74014
1.73388
1.7302
1.72348
1.71721
1.71176
1.70289
1.69747
1.69105
1.68288
1.67792
1.67031
1.66462
1.66082
1.65369
1.64816
1.6417
1.63369
1.62957
1.62284
1.6168
1.61084
1.60329
1.59995
1.59426
1.58866
1.58244
1.57521
1.57114
1.56522
1.55982
1.55283
1.54706
1.54348
1.53842
1.53355
1.5269
1.52263
1.51779
1.51211
1.5057
1.49948
1.49704
1.49333
1.48858
1.48125
1.47669
1.4734
1.46909
1.46365
1.45684
1.45093
1.44577
1.45209
1.60618
1.91792
2.03109
2.05264
2.04912
2.04618
2.04439
2.04255
2.04013
1
1
1
1
1.00041
1.03293
1.35235
1.75335
1.83164
1.84352
1.83571
1.82691
1.82124
1.81594
1.80976
1.80381
1.79838
1.79298
1.78725
1.77981
1.77431
1.76764
1.75903
1.75337
1.74659
1.73846
1.735
1.72944
1.72254
1.71747
1.70948
1.7032
1.69725
1.68895
1.68334
1.67701
1.66931
1.66626
1.66031
1.65358
1.64861
1.64032
1.63556
1.62992
1.62275
1.61793
1.60976
1.60501
1.60103
1.59467
1.5897
1.58214
1.57716
1.57233
1.56606
1.56084
1.55303
1.54898
1.54486
1.53987
1.53438
1.528
1.52409
1.51868
1.51349
1.50708
1.50249
1.4997
1.49527
1.48987
1.48259
1.47895
1.47532
1.47058
1.46408
1.45716
1.45339
1.44762
1.44686
1.47055
1.69874
1.95735
2.02983
2.03696
2.03425
2.03207
2.02997
2.02753
1
1
1
1
1
1.00065
1.04737
1.41975
1.74247
1.81243
1.83311
1.8273
1.81959
1.81383
1.80896
1.80395
1.79803
1.79105
1.78309
1.77773
1.77198
1.76399
1.75812
1.75283
1.74375
1.73939
1.73474
1.72773
1.72247
1.71557
1.7091
1.70349
1.69545
1.68885
1.68379
1.67492
1.6711
1.66651
1.65915
1.65429
1.64698
1.64094
1.63651
1.62927
1.624
1.61786
1.61017
1.60701
1.60116
1.59545
1.5895
1.58249
1.57876
1.5728
1.56748
1.56148
1.55457
1.55123
1.5461
1.5411
1.53443
1.52907
1.5251
1.51967
1.51503
1.50866
1.5052
1.50166
1.49675
1.49068
1.48443
1.48121
1.47701
1.472
1.46428
1.45839
1.45674
1.45313
1.44721
1.44875
1.50525
1.78031
1.97273
2.02329
2.02163
2.01887
2.01686
2.01527
1
1
1
1
1
1
1.00122
1.06928
1.44553
1.71173
1.81075
1.83111
1.82227
1.81461
1.80925
1.80344
1.7956
1.78613
1.78069
1.77613
1.76893
1.76301
1.75901
1.75073
1.74413
1.73994
1.73285
1.72646
1.71992
1.71361
1.70917
1.70263
1.69554
1.69073
1.682
1.67589
1.67206
1.66479
1.65904
1.65321
1.64597
1.64229
1.63613
1.6297
1.62527
1.61687
1.61258
1.608
1.60123
1.59618
1.58838
1.58376
1.57937
1.57318
1.56881
1.56161
1.55713
1.55307
1.54734
1.54209
1.53464
1.53056
1.52613
1.52124
1.51644
1.51048
1.50746
1.50299
1.49783
1.49121
1.48631
1.48299
1.47838
1.47322
1.46518
1.46184
1.46043
1.4575
1.45105
1.44641
1.4497
1.55327
1.84044
1.97791
2.01145
2.00857
2.00474
2.00358
1
1
1
1
1
1
1.00001
1.00198
1.08307
1.42287
1.709
1.82148
1.82576
1.81775
1.80971
1.8005
1.78919
1.78357
1.78081
1.7743
1.76754
1.7642
1.75864
1.74905
1.74495
1.73886
1.73129
1.72391
1.71628
1.71255
1.70816
1.70179
1.69756
1.6907
1.68248
1.6781
1.67089
1.66376
1.65869
1.6508
1.64702
1.64249
1.6356
1.6314
1.6245
1.61787
1.61426
1.60756
1.60203
1.59583
1.58865
1.58537
1.57966
1.57463
1.5693
1.56256
1.55936
1.55393
1.54848
1.5423
1.53566
1.53232
1.5274
1.52318
1.51749
1.51266
1.50926
1.50397
1.4987
1.4918
1.48792
1.48423
1.47961
1.47421
1.46756
1.466
1.4637
1.46022
1.4543
1.44786
1.44411
1.45447
1.61285
1.88444
1.97862
2.00081
1.99764
1.99483
1
1
1
1
1
1
1
1.00001
1.00239
1.07866
1.4065
1.74562
1.82014
1.81537
1.80758
1.79478
1.78357
1.78321
1.78014
1.77234
1.76797
1.76488
1.75666
1.74851
1.744
1.73679
1.72942
1.72161
1.71636
1.7123
1.70689
1.70249
1.69741
1.68912
1.68387
1.6769
1.66868
1.66384
1.65626
1.65117
1.64816
1.64192
1.63689
1.63178
1.62365
1.61976
1.61388
1.60698
1.60235
1.59447
1.59045
1.58653
1.58058
1.57636
1.5691
1.56459
1.56038
1.55402
1.54914
1.54194
1.53748
1.53392
1.52912
1.52495
1.51855
1.51485
1.51049
1.50496
1.49947
1.4928
1.48952
1.48537
1.48099
1.47513
1.47084
1.46932
1.46595
1.46169
1.45539
1.44988
1.44351
1.44226
1.46966
1.68161
1.91146
1.97748
1.9893
1.98703
1
1
1
1
1
1
1
1
1.00001
1.00225
1.07586
1.45104
1.76806
1.79834
1.8019
1.79357
1.78339
1.78284
1.77808
1.77164
1.76872
1.76401
1.75411
1.74787
1.74217
1.73413
1.72616
1.72034
1.71685
1.71293
1.70853
1.7032
1.69506
1.68934
1.6825
1.67352
1.6685
1.66286
1.6558
1.65333
1.64832
1.6423
1.63813
1.63039
1.62534
1.62028
1.6126
1.60765
1.60122
1.59437
1.59194
1.58675
1.58217
1.57685
1.57012
1.56662
1.56062
1.55485
1.54925
1.54201
1.53925
1.53501
1.53074
1.52567
1.52003
1.51658
1.51116
1.5061
1.50009
1.49436
1.49123
1.4868
1.48255
1.47652
1.47376
1.47135
1.46709
1.46215
1.45515
1.45127
1.4464
1.43978
1.44078
1.49747
1.74642
1.92473
1.97748
1.97799
1
1
1
1
1
1
1
1
1
1.00001
1.00256
1.09522
1.50371
1.74203
1.78092
1.79199
1.78673
1.78249
1.77555
1.77153
1.76843
1.76173
1.75212
1.74733
1.74068
1.73158
1.72419
1.71982
1.71648
1.71341
1.70935
1.70177
1.69601
1.68893
1.6784
1.67177
1.66799
1.66082
1.65793
1.65448
1.6482
1.64352
1.63658
1.63061
1.62639
1.61924
1.61316
1.60865
1.59994
1.5966
1.59282
1.5871
1.58289
1.57605
1.5719
1.56744
1.5608
1.55633
1.54902
1.54395
1.54099
1.53609
1.53182
1.52546
1.52142
1.51743
1.51174
1.50734
1.5007
1.49657
1.49312
1.48866
1.48403
1.47838
1.47599
1.47234
1.46771
1.46207
1.45557
1.45282
1.44939
1.4424
1.43737
1.4418
1.53901
1.79734
1.93307
1.96893
1
1
1
1
1
1
1
1
1
1
1.00002
1.00392
1.12103
1.50789
1.71018
1.77478
1.78916
1.78333
1.77585
1.77263
1.76727
1.75744
1.75004
1.74655
1.7398
1.73162
1.7253
1.72075
1.71701
1.71339
1.70681
1.70126
1.69572
1.68511
1.67654
1.67317
1.66629
1.66197
1.66033
1.65484
1.64909
1.64242
1.63498
1.63091
1.62525
1.61869
1.61537
1.60814
1.60182
1.59884
1.59283
1.58797
1.58212
1.5761
1.57291
1.56712
1.56203
1.5573
1.54948
1.54658
1.54223
1.53715
1.53187
1.52563
1.52254
1.51773
1.513
1.50844
1.50207
1.49912
1.49487
1.49039
1.48495
1.48009
1.47722
1.47265
1.4681
1.46181
1.4573
1.45488
1.45146
1.44612
1.43722
1.43714
1.44825
1.58977
1.8357
1.93408
1
1
1
1
1
1
1
1
1
1
1
1.00004
1.00551
1.13219
1.47906
1.69628
1.77697
1.78659
1.7811
1.77468
1.7651
1.75271
1.74773
1.74454
1.73816
1.7315
1.72668
1.72279
1.71841
1.71099
1.7047
1.70134
1.69238
1.68126
1.67777
1.67377
1.66624
1.66482
1.66143
1.65539
1.64892
1.64026
1.63501
1.63014
1.62369
1.62014
1.61583
1.60789
1.60449
1.59893
1.59292
1.5884
1.58127
1.57778
1.57348
1.56733
1.56374
1.55704
1.55186
1.54862
1.54285
1.5381
1.53144
1.52676
1.52351
1.5184
1.51475
1.50897
1.50454
1.50148
1.49642
1.49182
1.48549
1.48145
1.47783
1.47302
1.46857
1.46255
1.46006
1.45723
1.45331
1.448
1.44049
1.43606
1.4365
1.46216
1.64426
1.85861
1
1
1
1
1
1
1
1
1
1
1
1
1.00005
1.006
1.11997
1.44647
1.69844
1.78254
1.78381
1.77633
1.76338
1.74951
1.74645
1.74383
1.73761
1.73086
1.72608
1.72253
1.71686
1.709
1.70556
1.69958
1.68727
1.68146
1.67974
1.67342
1.6694
1.66721
1.66145
1.65467
1.64644
1.63954
1.63485
1.62964
1.62566
1.62263
1.61528
1.61046
1.60492
1.59725
1.59256
1.58646
1.58175
1.57925
1.57386
1.56964
1.56492
1.55729
1.55408
1.54888
1.54309
1.53826
1.53137
1.52849
1.52462
1.52037
1.51651
1.51032
1.5074
1.5031
1.49767
1.49251
1.4859
1.48242
1.4782
1.47391
1.46915
1.46467
1.46279
1.45904
1.45456
1.4485
1.44311
1.43952
1.4353
1.43646
1.48259
1.6894
1
1
1
1
1
1
1
1
1
1
1
1
1
1.00005
1.00469
1.10268
1.43018
1.72712
1.7779
1.77188
1.7606
1.7485
1.74637
1.74415
1.73791
1.73154
1.72702
1.72165
1.71289
1.70789
1.70546
1.69581
1.68639
1.68444
1.68084
1.67367
1.67181
1.66839
1.66163
1.65289
1.64397
1.63815
1.63347
1.6301
1.62904
1.62378
1.61796
1.61223
1.60326
1.59668
1.59117
1.58409
1.58289
1.57995
1.5752
1.57217
1.56509
1.55988
1.55523
1.54817
1.54363
1.53781
1.53256
1.5303
1.52612
1.52273
1.51724
1.51262
1.50935
1.50353
1.49852
1.49249
1.48657
1.48334
1.47904
1.47542
1.4704
1.46746
1.46495
1.46019
1.45549
1.44896
1.44546
1.44337
1.43834
1.43302
1.43564
1.5086
1
1
1
1
2.35476
2.34238
2.32993
2.32074
2.31137
2.29947
2.28423
2.26452
2.24014
2.21365
2.18704
2.164
2.14499
2.12824
2.11303
2.09636
2.07572
2.05066
2.02148
1.98907
1.96086
1.94141
1.92646
1.91296
1.90072
1.88953
1.87781
1.86519
1.84908
1.82401
2.32911
2.31892
2.30914
2.30188
2.29428
2.28445
2.27213
2.2558
2.23445
2.21009
2.18786
2.17108
2.15651
2.14286
2.12855
2.112
2.09192
2.06768
2.03922
2.00902
1.98466
1.96898
1.95725
1.9452
1.93369
1.92258
1.90982
1.89382
1.87238
1.8444
2.30771
2.29727
2.28697
2.27871
2.27088
2.26193
2.25166
2.23912
2.22221
2.20172
2.18467
2.17222
2.1604
2.1479
2.13368
2.11661
2.09704
2.07409
2.04732
2.02106
2.00121
1.98874
1.97903
1.96849
1.95751
1.94578
1.93188
1.91382
1.88947
1.85915
2.29079
2.27863
2.26647
2.25665
2.24803
2.23921
2.22985
2.21923
2.20607
2.19084
2.17882
2.16895
2.15787
2.1458
2.13181
2.11441
2.09523
2.07315
2.04858
2.02729
2.01173
2.00113
1.99166
1.98148
1.97085
1.95896
1.94425
1.92528
1.89934
1.86907
2.27543
2.26135
2.24799
2.23764
2.22877
2.21993
2.21086
2.20111
2.19008
2.17858
2.16891
2.15933
2.14786
2.13528
2.1214
2.10481
2.08666
2.06704
2.04622
2.02896
2.01696
2.00718
1.99683
1.98603
1.97531
1.96341
1.94824
1.92898
1.90168
1.87694
2.25958
2.24476
2.23199
2.22229
2.21371
2.20508
2.19617
2.18683
2.17682
2.16652
2.15618
2.14457
2.13091
2.11715
2.10353
2.08876
2.0725
2.05679
2.04173
2.02774
2.01797
2.00878
1.99793
1.98634
1.97523
1.96297
1.94745
1.92801
1.90086
1.88282
2.24258
2.22874
2.21789
2.20946
2.2015
2.19331
2.18478
2.17576
2.16607
2.15531
2.14287
2.12829
2.11224
2.09783
2.08509
2.07174
2.05819
2.0466
2.0357
2.02448
2.01577
2.0064
1.99512
1.98292
1.9712
1.95859
1.94329
1.92447
1.89951
1.88562
2.22564
2.21405
2.20543
2.19827
2.19106
2.18349
2.17556
2.16676
2.15677
2.14494
2.13024
2.1129
2.09585
2.08207
2.07046
2.05844
2.04726
2.0382
2.02911
2.01925
2.01001
1.99937
1.98677
1.97382
1.96194
1.94988
1.93595
1.91901
1.89751
1.88617
2.20937
2.20051
2.19364
2.18743
2.18098
2.17413
2.16677
2.1581
2.14761
2.13458
2.11786
2.0991
2.08339
2.07134
2.06098
2.0509
2.04172
2.03348
2.02447
2.01401
2.00255
1.98924
1.97479
1.96152
1.95018
1.93934
1.92734
1.91245
1.89415
1.88427
2.19457
2.18805
2.18228
2.17666
2.17075
2.16439
2.15742
2.14881
2.13774
2.12337
2.1053
2.08725
2.07454
2.06475
2.05592
2.04781
2.03963
2.03135
2.0219
2.00991
1.99459
1.97739
1.96249
1.95001
1.93944
1.92976
1.91903
1.90543
1.88943
1.87999
2.18096
2.17609
2.17103
2.16572
2.16007
2.15393
2.14704
2.13819
2.12617
2.11046
2.09244
2.07771
2.06865
2.06073
2.05337
2.04648
2.03871
2.03013
2.01922
2.00409
1.98491
1.96666
1.95347
1.94237
1.93264
1.92359
1.9133
1.90031
1.88578
1.87613
2.16821
2.16427
2.15967
2.1546
2.14915
2.14318
2.13609
2.12655
2.113
2.0961
2.08013
2.07012
2.06378
2.05734
2.05129
2.04486
2.03699
2.02752
2.01426
1.99544
1.97391
1.95872
1.94852
1.93882
1.92971
1.92096
1.91089
1.89812
1.88452
1.87407
2.1562
2.15261
2.14834
2.14355
2.1383
2.1324
2.12492
2.11426
2.09899
2.08236
2.07014
2.06375
2.0588
2.05343
2.04805
2.04153
2.03339
2.02258
2.00634
1.98368
1.96448
1.95461
1.94615
1.93749
1.92971
1.92123
1.91108
1.89867
1.88539
1.87365
2.14488
2.14143
2.13748
2.13286
2.12754
2.12139
2.11326
2.10122
2.08529
2.07116
2.06261
2.05793
2.05345
2.04844
2.04301
2.03624
2.02726
2.01413
1.99496
1.97165
1.95859
1.95228
1.94493
1.93725
1.93058
1.92237
1.91248
1.90026
1.88665
1.87316
2.13451
2.13124
2.12747
2.12278
2.1171
2.11016
2.10089
2.08774
2.07326
2.06283
2.05644
2.05234
2.0479
2.04272
2.03692
2.02923
2.01833
2.00233
1.9812
1.96214
1.9559
1.95125
1.94434
1.93731
1.93147
1.92378
1.91388
1.90133
1.88646
1.8715
2.12475
2.12143
2.11751
2.11273
2.10668
2.09868
2.08801
2.07483
2.0635
2.05582
2.05041
2.04646
2.04189
2.03652
2.03028
2.0215
2.00759
1.9882
1.96792
1.95667
1.95362
1.94976
1.94347
1.93756
1.93207
1.92424
1.91385
1.90013
1.88325
1.86794
2.11497
2.11122
2.10696
2.10189
2.09532
2.08648
2.07536
2.06412
2.0559
2.04946
2.04422
2.0399
2.03507
2.02955
2.02281
2.01259
1.99567
1.9745
1.95844
1.95287
1.9504
1.94712
1.94198
1.93724
1.93177
1.92399
1.91199
1.89473
1.87651
1.86315
2.10492
2.10067
2.09577
2.08992
2.08272
2.07378
2.06367
2.05546
2.04932
2.04347
2.03824
2.03318
2.02768
2.0216
2.01371
2.00169
1.98328
1.96383
1.95329
1.94969
1.94692
1.94318
1.93921
1.93549
1.93
1.92161
1.90706
1.88559
1.86825
1.85828
2.09411
2.08932
2.08385
2.07752
2.0702
2.06183
2.05386
2.04788
2.04255
2.03715
2.03202
2.02636
2.02014
2.01305
2.00346
1.98927
1.97141
1.95677
1.95027
1.947
1.94322
1.93882
1.93553
1.93207
1.92613
1.9166
1.89908
1.87573
1.86181
1.85397
2.08205
2.07713
2.07167
2.06554
2.05885
2.05202
2.04615
2.04108
2.03559
2.02995
2.02469
2.01882
2.0123
2.00452
1.99341
1.97738
1.96149
1.95205
1.94747
1.94411
1.94001
1.9355
1.93175
1.92726
1.92046
1.90894
1.88819
1.86826
1.85775
1.85025
2.0702
2.06543
2.06015
2.05449
2.04871
2.04351
2.03928
2.03468
2.02886
2.0226
2.01644
2.01002
2.00324
1.99519
1.9839
1.96842
1.95522
1.94853
1.94447
1.94103
1.93711
1.93263
1.92777
1.92175
1.91301
1.89752
1.87629
1.86254
1.8547
1.84798
2.05919
2.05479
2.04979
2.0444
2.03918
2.03505
2.03158
2.02731
2.02179
2.01551
2.00862
2.00108
1.99321
1.98469
1.97428
1.96226
1.9526
1.94637
1.94172
1.93773
1.93378
1.92923
1.92367
1.91638
1.90412
1.88405
1.8663
1.85846
1.85236
1.8472
2.04853
2.04422
2.03952
2.03489
2.03036
2.02644
2.02257
2.01822
2.0134
2.00811
2.00158
1.99348
1.98433
1.97458
1.96526
1.95703
1.95032
1.94455
1.93956
1.935
1.92995
1.9246
1.91864
1.90947
1.89313
1.87272
1.86049
1.85492
1.85023
1.84663
2.03673
2.03266
2.02869
2.025
2.02144
2.01778
2.01332
2.00837
2.0037
1.99941
1.99376
1.9865
1.97744
1.96716
1.95821
1.9518
1.94684
1.94207
1.93745
1.93215
1.92604
1.91979
1.91243
1.90001