/*--------------------------------*- C++ -*----------------------------------*\
  =========                 |
  \\      /  F ield         | OpenFOAM: The Open Source CFD Toolbox
   \\    /   O peration     | Website:  https://openfoam.org
    \\  /    A nd           | Version:  7
     \\/     M anipulation  |
\*---------------------------------------------------------------------------*/
FoamFile
{
    version     2.0;
    format      ascii;
    class       volScalarField;
    location    "3.2";
    object      T;
}
// * * * * * * * * * * * * * * * * * * * * * * * * * * * * * * * * * * * * * //

dimensions      [0 0 0 1 0 0 0];

internalField   nonuniform List<scalar> 
16512
(
1.88103
1.86877
1.85512
1.84586
1.84148
1.83878
1.83637
1.83367
1.83043
1.82613
1.8182
1.80357
1.79237
1.78948
1.78842
1.788
1.78671
1.78474
1.7822
1.77846
1.77051
1.75624
1.74301
1.73816
1.73679
1.73731
1.73848
1.73693
1.73416
1.73072
1.7242
1.71224
1.69897
1.69086
1.68842
1.68792
1.68809
1.68716
1.68548
1.68339
1.67989
1.67272
1.66248
1.65227
1.64655
1.64495
1.64487
1.64446
1.64298
1.64103
1.63814
1.63458
1.62968
1.62137
1.61116
1.60596
1.60438
1.60323
1.6025
1.60155
1.59947
1.59664
1.59321
1.58802
1.57921
1.57134
1.56837
1.56634
1.56441
1.56315
1.56163
1.55926
1.55687
1.55419
1.55015
1.54362
1.53708
1.53305
1.53134
1.53026
1.52894
1.5273
1.52559
1.5235
1.52093
1.51691
1.51175
1.50719
1.50371
1.50181
1.50061
1.49912
1.49684
1.49457
1.49221
1.48821
1.48231
1.47803
1.47551
1.47399
1.47302
1.47208
1.47048
1.46893
1.46743
1.46532
1.46209
1.45766
1.45267
1.45012
1.44882
1.44743
1.44565
1.44403
1.44216
1.43943
1.4367
1.43387
1.43049
1.42602
1.42283
1.42183
1.42259
1.4268
1.44295
1.47989
1.52261
1.56946
1.60642
1.63242
1.64211
1.65017
1.65418
1.65481
1.65513
1.655
1.65333
1.65279
1.65349
1.65554
1.66018
1.66373
1.6641
1.66407
1.66334
1.6614
1.65982
1.65983
1.66074
1.66253
1.66575
1.66921
1.66987
1.66954
1.66849
1.66563
1.66142
1.6594
1.65922
1.65927
1.66008
1.66301
1.66797
1.67091
1.67137
1.67136
1.67041
1.66779
1.66576
1.6656
1.66607
1.66753
1.67012
1.67243
1.67289
1.67266
1.67101
1.66738
1.66329
1.66165
1.66131
1.66176
1.66457
1.66958
1.67179
1.67166
1.67043
1.66728
1.66227
1.66032
1.66025
1.66066
1.66263
1.66713
1.67242
1.67434
1.67446
1.67388
1.67104
1.66659
1.66434
1.66384
1.66361
1.66361
1.66406
1.6655
1.66702
1.66767
1.66797
1.66801
1.66755
1.6652
1.66225
1.6615
1.66073
1.66078
1.67585
1.91382
2.23945
2.29048
2.27941
2.29058
2.36624
2.46024
2.49632
2.50535
2.5048
2.5035
2.50105
2.49747
2.49343
2.49054
2.48818
2.48638
2.48443
2.48241
2.48139
2.48059
2.47944
2.4785
2.47719
2.47483
2.47178
2.46873
2.4662
2.46418
2.46282
2.4624
2.46129
2.4576
2.453
2.44859
2.44559
2.44362
2.44359
2.44624
2.4504
2.45201
1.87353
1.85842
1.849
1.84505
1.8432
1.84188
1.83965
1.83672
1.83284
1.82601
1.81168
1.79764
1.79337
1.79194
1.7918
1.79102
1.78914
1.78681
1.7835
1.7768
1.76313
1.74879
1.74296
1.7415
1.74179
1.74341
1.74228
1.73964
1.73624
1.72985
1.7178
1.70416
1.69597
1.69361
1.69327
1.69381
1.69293
1.6911
1.68891
1.6847
1.67641
1.66584
1.6562
1.65123
1.64954
1.64903
1.64899
1.64762
1.64558
1.64298
1.63921
1.63368
1.62566
1.61622
1.61046
1.60851
1.60704
1.60586
1.60487
1.60372
1.6018
1.59886
1.5945
1.58661
1.57645
1.57206
1.57029
1.56855
1.56657
1.56497
1.56343
1.56115
1.55836
1.55496
1.54964
1.54166
1.53734
1.53524
1.53329
1.53197
1.53087
1.52933
1.52754
1.52527
1.5219
1.51654
1.51076
1.50811
1.50556
1.5033
1.50196
1.50065
1.49849
1.49585
1.49295
1.48836
1.48215
1.47936
1.47792
1.47623
1.47492
1.47403
1.47256
1.47063
1.46878
1.46654
1.46309
1.4584
1.45425
1.45168
1.45009
1.44884
1.44718
1.44543
1.4437
1.44149
1.43865
1.43546
1.43151
1.42606
1.42175
1.42046
1.42048
1.42158
1.42271
1.42737
1.4411
1.47411
1.52211
1.56647
1.59704
1.62113
1.63625
1.64123
1.64433
1.64588
1.64533
1.64564
1.64702
1.65086
1.65531
1.65698
1.65711
1.65698
1.65595
1.65409
1.65337
1.65389
1.65513
1.65729
1.66083
1.66322
1.66336
1.66289
1.66137
1.65805
1.65479
1.65429
1.65437
1.65465
1.65631
1.66056
1.66444
1.66544
1.66563
1.66524
1.66333
1.66126
1.66096
1.66137
1.66267
1.66496
1.66714
1.66769
1.66758
1.66642
1.66343
1.65929
1.65743
1.65712
1.65737
1.6596
1.66437
1.66694
1.66683
1.6658
1.66319
1.65816
1.65514
1.65491
1.65515
1.65663
1.66065
1.66649
1.66938
1.6696
1.66929
1.66724
1.66296
1.65969
1.6588
1.65848
1.65838
1.65865
1.66001
1.66242
1.66416
1.6648
1.66507
1.66483
1.66254
1.65852
1.65668
1.65606
1.65519
1.65867
1.78529
2.15294
2.29148
2.28873
2.27394
2.25593
2.27018
2.34693
2.43431
2.48002
2.49663
2.49637
2.49084
2.48503
2.47826
2.47582
2.47541
2.47536
2.47465
2.47273
2.47055
2.46916
2.46751
2.46677
2.46623
2.46467
2.46184
2.45857
2.45577
2.45374
2.45257
2.45261
2.45196
2.44831
2.44321
2.43751
2.43295
2.43044
2.43005
2.43297
2.43878
2.44178
1.86147
1.85215
1.84838
1.84695
1.84685
1.84569
1.84307
1.83955
1.83365
1.82031
1.80414
1.79748
1.79557
1.79519
1.79502
1.79337
1.79114
1.78819
1.78282
1.77052
1.75528
1.74787
1.7462
1.74612
1.74777
1.74705
1.74466
1.74144
1.73547
1.72373
1.70985
1.70138
1.69901
1.69872
1.69961
1.69882
1.69692
1.69458
1.68967
1.68031
1.66937
1.6605
1.65626
1.65466
1.65425
1.65359
1.65217
1.65031
1.64732
1.64316
1.63764
1.63022
1.62108
1.61513
1.61313
1.61139
1.60981
1.6085
1.60707
1.60561
1.60363
1.60025
1.59411
1.58364
1.57613
1.57391
1.57228
1.57098
1.56906
1.567
1.56517
1.56297
1.55983
1.55509
1.54752
1.54091
1.53871
1.53734
1.53541
1.53374
1.5326
1.53117
1.52929
1.52664
1.52226
1.51567
1.51119
1.50965
1.50775
1.50521
1.50344
1.50202
1.50012
1.49707
1.49296
1.48778
1.48293
1.48102
1.48009
1.47876
1.47722
1.47617
1.47476
1.4727
1.47038
1.46772
1.46404
1.45912
1.45586
1.45381
1.45181
1.45004
1.44844
1.44673
1.44504
1.44322
1.44072
1.4366
1.43119
1.42604
1.42356
1.42254
1.42154
1.42074
1.42102
1.42081
1.42013
1.42315
1.43646
1.46364
1.51084
1.55669
1.59825
1.61286
1.62535
1.6324
1.63326
1.63613
1.64068
1.64518
1.64799
1.64916
1.64936
1.64929
1.64813
1.64624
1.64611
1.64716
1.64881
1.65162
1.65509
1.6563
1.65629
1.65574
1.65389
1.65076
1.649
1.64917
1.64953
1.65048
1.65354
1.65785
1.65923
1.65943
1.65935
1.65821
1.65629
1.65588
1.65626
1.65734
1.65929
1.66131
1.66201
1.66204
1.66142
1.65919
1.65527
1.65318
1.65296
1.65322
1.65505
1.65937
1.66225
1.66222
1.66121
1.65882
1.65408
1.64999
1.6495
1.64975
1.65103
1.65462
1.66052
1.66422
1.66459
1.66438
1.66286
1.6592
1.65518
1.65383
1.65351
1.65334
1.65348
1.6547
1.65764
1.66057
1.66171
1.6621
1.66199
1.65993
1.65534
1.65183
1.65115
1.65027
1.65096
1.70023
2.03518
2.26742
2.28573
2.27811
2.26173
2.24318
2.24053
2.25884
2.33318
2.42201
2.46948
2.4823
2.47768
2.47296
2.46653
2.4634
2.46283
2.46303
2.4625
2.46115
2.45868
2.45689
2.45554
2.45529
2.45505
2.45366
2.45078
2.44765
2.44519
2.44379
2.44369
2.44442
2.44377
2.43996
2.43475
2.42856
2.42268
2.41925
2.41839
2.42059
2.4256
2.42858
1.85549
1.85191
1.85066
1.85109
1.85101
1.84922
1.8461
1.84104
1.82902
1.81157
1.80193
1.79946
1.79865
1.79865
1.79738
1.79524
1.79257
1.78826
1.77803
1.76257
1.75305
1.75098
1.75057
1.75174
1.75126
1.74908
1.74613
1.74082
1.7298
1.71592
1.70702
1.70459
1.70426
1.70521
1.70451
1.70252
1.70005
1.69468
1.68447
1.67304
1.66491
1.66159
1.66024
1.65988
1.65898
1.65722
1.65511
1.65248
1.64754
1.64033
1.6337
1.6268
1.62007
1.61761
1.61606
1.6142
1.61248
1.61089
1.60915
1.60724
1.6048
1.60037
1.5912
1.58123
1.5777
1.57597
1.57453
1.57336
1.57155
1.56934
1.56711
1.56464
1.56084
1.55389
1.54554
1.54201
1.54056
1.53928
1.53767
1.53591
1.53448
1.53304
1.53082
1.52724
1.52128
1.51521
1.51285
1.51157
1.50997
1.50756
1.50547
1.50362
1.5012
1.49747
1.49199
1.48754
1.48494
1.48312
1.4821
1.48108
1.47943
1.47792
1.47653
1.47452
1.472
1.469
1.46483
1.45959
1.45663
1.45516
1.45354
1.45174
1.44998
1.44824
1.44627
1.44377
1.4404
1.43553
1.43073
1.42821
1.42689
1.42588
1.42485
1.42347
1.42212
1.42039
1.41788
1.4162
1.41617
1.41812
1.43031
1.45756
1.50116
1.54982
1.58602
1.61183
1.6183
1.62714
1.63433
1.63756
1.64079
1.64248
1.64281
1.64284
1.64191
1.63981
1.6396
1.64076
1.64297
1.64647
1.64912
1.64944
1.6494
1.64875
1.64716
1.6451
1.64441
1.6448
1.64568
1.64764
1.65128
1.65331
1.65324
1.65304
1.65246
1.65099
1.65027
1.65065
1.65162
1.65327
1.65517
1.65597
1.65606
1.6558
1.65428
1.65094
1.64872
1.64846
1.64883
1.65059
1.65446
1.6575
1.65766
1.65682
1.6547
1.65056
1.64552
1.64426
1.64444
1.64561
1.64885
1.65464
1.65902
1.65955
1.65937
1.6582
1.65516
1.65073
1.64887
1.64854
1.64841
1.64852
1.6496
1.65269
1.6567
1.65856
1.65899
1.65895
1.65709
1.65235
1.64717
1.64599
1.64525
1.64536
1.66078
1.89339
2.22358
2.27791
2.27581
2.26219
2.24574
2.2368
2.23218
2.23655
2.25931
2.32576
2.40451
2.44832
2.45748
2.45929
2.45636
2.45381
2.45129
2.45065
2.44886
2.44801
2.44647
2.44538
2.44483
2.4447
2.44366
2.44118
2.43804
2.43583
2.43446
2.43428
2.43543
2.43658
2.43527
2.43122
2.42616
2.42053
2.41499
2.41091
2.40948
2.41031
2.41285
2.41434
1.85569
1.85466
1.85545
1.85595
1.85492
1.85238
1.84792
1.83696
1.81922
1.80684
1.80353
1.80231
1.80234
1.80133
1.79922
1.79677
1.79321
1.78517
1.77039
1.75847
1.75587
1.75522
1.75578
1.75536
1.75325
1.75038
1.74566
1.73561
1.72214
1.71285
1.71027
1.70984
1.71063
1.70986
1.70782
1.70522
1.69972
1.68907
1.67701
1.66931
1.66667
1.66589
1.66603
1.66502
1.66294
1.66055
1.65753
1.65179
1.64366
1.63629
1.63071
1.62641
1.62322
1.62105
1.61886
1.61672
1.61483
1.61299
1.61098
1.6085
1.60493
1.59776
1.58742
1.58188
1.57992
1.57825
1.57695
1.57569
1.57386
1.57173
1.5693
1.56605
1.5604
1.55161
1.54596
1.54419
1.54277
1.54143
1.53996
1.53834
1.53665
1.53482
1.53203
1.52672
1.52041
1.51688
1.51518
1.5137
1.51221
1.51007
1.50769
1.50544
1.50233
1.49678
1.49077
1.48873
1.48761
1.4859
1.48434
1.48308
1.48144
1.4796
1.47803
1.47616
1.47355
1.4702
1.46567
1.46058
1.45781
1.45632
1.45487
1.45327
1.45166
1.45001
1.44802
1.4448
1.43913
1.43404
1.43208
1.43092
1.42972
1.42858
1.4276
1.42637
1.42436
1.4214
1.41779
1.41486
1.41359
1.41398
1.41414
1.41637
1.4265
1.45525
1.49328
1.53914
1.57752
1.60477
1.62005
1.62716
1.6343
1.63713
1.63792
1.63869
1.63813
1.63595
1.63556
1.63638
1.63847
1.64189
1.64368
1.64377
1.64374
1.64306
1.64173
1.6407
1.64054
1.6412
1.64271
1.64526
1.64758
1.64781
1.64732
1.64662
1.64566
1.64472
1.64481
1.64571
1.6471
1.64898
1.65014
1.6503
1.65021
1.64903
1.64621
1.64419
1.64389
1.64423
1.64586
1.64945
1.65245
1.65276
1.65222
1.65046
1.64698
1.64179
1.6395
1.63946
1.64035
1.64313
1.64859
1.65364
1.65454
1.65436
1.65346
1.65096
1.64644
1.6439
1.64347
1.64338
1.64351
1.64462
1.64778
1.65256
1.65522
1.65567
1.65562
1.65394
1.64932
1.64295
1.64055
1.64007
1.63961
1.64376
1.77231
2.13782
2.27865
2.27539
2.2629
2.24683
2.23702
2.2314
2.22968
2.2318
2.23519
2.24802
2.29699
2.37131
2.41856
2.439
2.44465
2.4442
2.44214
2.43872
2.43538
2.43486
2.43482
2.43569
2.43614
2.43507
2.43145
2.4275
2.4245
2.42328
2.42353
2.4251
2.42695
2.42671
2.42385
2.4199
2.41566
2.41158
2.40776
2.40494
2.40392
2.40306
2.40217
2.40045
1.85877
1.86029
1.86149
1.86056
1.85843
1.85445
1.84415
1.82635
1.81206
1.80769
1.80608
1.80607
1.80552
1.80341
1.80098
1.79787
1.79172
1.77842
1.76466
1.76065
1.75974
1.7599
1.75958
1.7575
1.75459
1.75024
1.74115
1.72819
1.71857
1.71586
1.71535
1.71589
1.71497
1.71288
1.71021
1.70482
1.69405
1.68166
1.67418
1.67183
1.67135
1.67204
1.67131
1.66911
1.66654
1.66312
1.65608
1.64642
1.63874
1.63413
1.63108
1.62886
1.62693
1.6246
1.62173
1.61901
1.61688
1.61483
1.61245
1.60914
1.60316
1.5932
1.58618
1.58406
1.58231
1.58073
1.57944
1.57798
1.57618
1.57408
1.57127
1.5666
1.55809
1.55057
1.54827
1.54682
1.54541
1.54404
1.54253
1.54088
1.53893
1.5361
1.53141
1.52496
1.52126
1.51974
1.51809
1.51626
1.5145
1.51239
1.5095
1.50609
1.50175
1.49594
1.49203
1.49102
1.49013
1.48857
1.48633
1.48455
1.48298
1.4813
1.47951
1.47743
1.4745
1.47017
1.4655
1.46169
1.45947
1.45801
1.45663
1.45501
1.45319
1.45106
1.44831
1.44411
1.43867
1.43607
1.43489
1.43358
1.43227
1.43097
1.42968
1.42808
1.42536
1.42185
1.41909
1.41698
1.41498
1.41317
1.41218
1.4127
1.41271
1.4148
1.42346
1.44637
1.48728
1.5291
1.5681
1.59616
1.61725
1.62336
1.6267
1.63126
1.63203
1.631
1.6311
1.63174
1.63357
1.63658
1.63807
1.63832
1.63837
1.63794
1.63683
1.63595
1.636
1.63704
1.63916
1.6413
1.64207
1.64195
1.64128
1.64034
1.63941
1.63915
1.63983
1.64114
1.64283
1.64448
1.64489
1.64495
1.64439
1.64212
1.64
1.63969
1.64001
1.6414
1.64461
1.64755
1.64785
1.64743
1.64606
1.64326
1.63844
1.63528
1.63493
1.63555
1.63788
1.64278
1.648
1.6494
1.64927
1.64861
1.64667
1.64245
1.63898
1.63829
1.63823
1.63835
1.63944
1.64267
1.64806
1.65162
1.65209
1.65196
1.65041
1.64617
1.63907
1.63511
1.63475
1.63417
1.63535
1.69136
2.02549
2.25885
2.27298
2.26366
2.24513
2.23326
2.22904
2.22856
2.23093
2.23201
2.22641
2.21839
2.22449
2.26523
2.33432
2.39357
2.42182
2.43157
2.43155
2.42668
2.42316
2.42227
2.42357
2.42731
2.42826
2.42511
2.41942
2.41452
2.41162
2.41112
2.413
2.41632
2.41696
2.41465
2.41081
2.40688
2.40327
2.40034
2.39873
2.39895
2.39991
2.39863
2.39417
2.38922
1.8654
1.86762
1.86667
1.86467
1.86076
1.85065
1.83291
1.81736
1.81179
1.80994
1.80972
1.80979
1.80807
1.80561
1.80262
1.7977
1.7861
1.77174
1.76572
1.76446
1.76412
1.76369
1.76178
1.75895
1.75487
1.74663
1.7342
1.72426
1.72133
1.72066
1.72102
1.71994
1.7178
1.7151
1.71003
1.69946
1.6867
1.67908
1.67699
1.67669
1.67771
1.6773
1.67519
1.67254
1.66882
1.66114
1.64993
1.64112
1.63741
1.63539
1.63378
1.63218
1.6302
1.62751
1.62407
1.62102
1.61871
1.61642
1.61347
1.60863
1.59952
1.59035
1.58765
1.58628
1.58498
1.58359
1.5821
1.58043
1.57855
1.57627
1.57265
1.56512
1.5557
1.5522
1.55097
1.54982
1.54838
1.54688
1.54537
1.54365
1.54118
1.53664
1.52965
1.5252
1.52359
1.52223
1.52077
1.51896
1.51701
1.51465
1.51112
1.50533
1.49957
1.49628
1.49489
1.49384
1.49275
1.49089
1.48764
1.48583
1.4846
1.48314
1.48136
1.47897
1.47534
1.46967
1.46517
1.46311
1.46115
1.45949
1.45823
1.45685
1.45513
1.45268
1.44837
1.4424
1.43957
1.43855
1.43738
1.43591
1.43457
1.43322
1.43164
1.42921
1.42534
1.42241
1.42097
1.41955
1.41769
1.41554
1.4136
1.41211
1.41118
1.4103
1.40821
1.40907
1.417
1.43728
1.4776
1.52275
1.5656
1.58732
1.60335
1.61699
1.62045
1.62234
1.6239
1.62477
1.62636
1.6295
1.63135
1.63181
1.63191
1.63178
1.63116
1.63051
1.63069
1.63219
1.63446
1.63534
1.63543
1.63522
1.63451
1.63363
1.63314
1.63335
1.63467
1.63666
1.6387
1.63957
1.63958
1.63936
1.63797
1.63595
1.63559
1.63594
1.6369
1.63923
1.64233
1.64306
1.64269
1.64167
1.63946
1.63536
1.63193
1.63125
1.63164
1.63336
1.63753
1.64235
1.64396
1.64392
1.64349
1.64207
1.63857
1.63446
1.63325
1.63319
1.6333
1.63433
1.63746
1.6432
1.64762
1.64824
1.64796
1.64645
1.64275
1.63557
1.62989
1.62931
1.62892
1.62933
1.6502
1.89727
2.21771
2.26843
2.26233
2.24527
2.23098
2.22528
2.22469
2.2291
2.23325
2.22893
2.21933
2.20756
2.20068
2.20438
2.23759
2.30507
2.36904
2.40273
2.41516
2.41266
2.41131
2.41096
2.414
2.41833
2.41832
2.41439
2.40832
2.40316
2.40028
2.40026
2.40363
2.40676
2.40594
2.40271
2.39767
2.39343
2.39034
2.38848
2.38845
2.39076
2.39353
2.39254
2.38811
2.38229
1.87396
1.87299
1.87102
1.86705
1.85674
1.83888
1.82244
1.81585
1.81379
1.81349
1.81391
1.81289
1.81073
1.8079
1.8035
1.79326
1.77884
1.77095
1.7694
1.7687
1.76794
1.7661
1.76342
1.75961
1.75226
1.74021
1.72982
1.7266
1.72576
1.72598
1.72488
1.72266
1.71996
1.71537
1.70525
1.69218
1.68408
1.68206
1.68183
1.68304
1.68285
1.68091
1.67833
1.67451
1.66658
1.65475
1.64486
1.64096
1.63941
1.63837
1.63694
1.63515
1.63283
1.62945
1.62558
1.62268
1.62038
1.61779
1.61389
1.60636
1.59601
1.59147
1.59002
1.58892
1.58804
1.5866
1.58487
1.58297
1.58083
1.57787
1.57182
1.56191
1.55629
1.55488
1.55395
1.55307
1.55157
1.54994
1.54817
1.54582
1.54184
1.53523
1.52983
1.52795
1.5265
1.52505
1.52348
1.52161
1.51921
1.51588
1.51034
1.50372
1.50025
1.49909
1.49793
1.49656
1.49466
1.49195
1.48849
1.48696
1.48613
1.48486
1.483
1.48011
1.47529
1.46934
1.46637
1.46501
1.46335
1.46137
1.45973
1.45818
1.45616
1.45307
1.44821
1.44372
1.44228
1.44132
1.43994
1.43829
1.43669
1.43503
1.4328
1.42927
1.42515
1.42368
1.42275
1.42142
1.41989
1.4182
1.41625
1.41431
1.41222
1.40953
1.40621
1.40532
1.40475
1.40577
1.4129
1.43368
1.46794
1.51523
1.55412
1.58958
1.59868
1.60877
1.61561
1.61542
1.61797
1.62289
1.62456
1.62499
1.62555
1.62552
1.62542
1.62549
1.62583
1.62732
1.62876
1.6288
1.62884
1.62825
1.62716
1.62701
1.62696
1.62772
1.63013
1.63282
1.63429
1.63458
1.63438
1.63328
1.63137
1.6309
1.63142
1.63233
1.63379
1.63633
1.63792
1.63781
1.63715
1.63574
1.6326
1.62897
1.62795
1.62829
1.62966
1.63306
1.63708
1.63846
1.6385
1.63827
1.63717
1.63433
1.63019
1.62849
1.62832
1.62848
1.6295
1.63252
1.63831
1.64324
1.64399
1.64357
1.64209
1.639
1.63237
1.62522
1.62373
1.62365
1.62391
1.63098
1.78015
2.14481
2.26965
2.26506
2.24751
2.22903
2.22332
2.22179
2.22584
2.23229
2.23118
2.22309
2.21114
2.19947
2.19268
2.19191
2.19696
2.2204
2.27418
2.33559
2.37789
2.39054
2.39774
2.40036
2.40462
2.40638
2.40537
2.40153
2.39687
2.39281
2.39003
2.39072
2.39465
2.3967
2.39539
2.3924
2.38722
2.3823
2.37881
2.37685
2.37667
2.37903
2.38206
2.38225
2.37954
2.37518
1.87928
1.87727
1.87298
1.86243
1.84444
1.82743
1.82016
1.81782
1.81746
1.81831
1.81764
1.81594
1.81348
1.80958
1.8002
1.78567
1.77609
1.77408
1.7733
1.77244
1.77059
1.768
1.76445
1.75809
1.74648
1.73554
1.73185
1.73084
1.73091
1.72988
1.72758
1.72486
1.72065
1.71132
1.69812
1.68911
1.6869
1.68659
1.68786
1.68793
1.68615
1.68374
1.68013
1.67244
1.66023
1.64953
1.64531
1.64381
1.643
1.64159
1.63981
1.63765
1.6345
1.6302
1.62649
1.62406
1.62177
1.61867
1.61303
1.60316
1.59619
1.59439
1.5931
1.59227
1.59132
1.58961
1.58765
1.58543
1.58261
1.57758
1.56816
1.56066
1.55882
1.55778
1.5572
1.55621
1.55472
1.55301
1.55075
1.54702
1.54035
1.53437
1.53239
1.53089
1.52931
1.52783
1.52619
1.52412
1.5206
1.51426
1.50756
1.50426
1.50306
1.50217
1.50095
1.49904
1.49579
1.49209
1.48978
1.48862
1.48776
1.48641
1.4842
1.48046
1.47445
1.46973
1.46795
1.46669
1.46536
1.46349
1.46165
1.45985
1.45718
1.45253
1.44774
1.44571
1.44462
1.44358
1.44218
1.44056
1.43887
1.43687
1.43358
1.42871
1.42605
1.42536
1.42441
1.42302
1.42159
1.42014
1.41852
1.4166
1.41407
1.41015
1.40637
1.40483
1.40349
1.40307
1.40311
1.40438
1.41021
1.42956
1.46088
1.50319
1.54725
1.57803
1.60003
1.60556
1.61271
1.6195
1.61932
1.61955
1.62124
1.62152
1.62165
1.62199
1.62231
1.62296
1.62324
1.62323
1.62308
1.62253
1.62222
1.62218
1.62244
1.62432
1.6275
1.62925
1.62989
1.62997
1.62895
1.6269
1.62605
1.62625
1.62689
1.62785
1.62947
1.63156
1.63205
1.63168
1.63088
1.62933
1.62654
1.62486
1.62507
1.62598
1.62835
1.63156
1.63266
1.63263
1.63255
1.63207
1.63017
1.62633
1.62412
1.62371
1.62378
1.62472
1.62765
1.63333
1.63846
1.63931
1.6388
1.63746
1.63501
1.62935
1.62143
1.61859
1.61849
1.61863
1.62162
1.69458
2.04166
2.25634
2.26325
2.25152
2.23016
2.22085
2.21821
2.22125
2.22874
2.22916
2.22248
2.21284
2.20127
2.19369
2.18816
2.1874
2.18843
2.18702
2.19673
2.23481
2.29529
2.34565
2.3729
2.38755
2.3931
2.39299
2.39065
2.38706
2.38353
2.38111
2.37978
2.38153
2.38478
2.38545
2.38429
2.38229
2.37876
2.37418
2.36969
2.36665
2.36473
2.36495
2.36707
2.36813
2.36739
2.36465
1.88316
1.87847
1.86762
1.84935
1.8321
1.82443
1.82188
1.82151
1.82317
1.82297
1.82134
1.81913
1.81565
1.80675
1.79209
1.78106
1.7784
1.77752
1.77677
1.77509
1.77264
1.76929
1.76382
1.75286
1.74116
1.73691
1.73582
1.73582
1.73495
1.73266
1.72993
1.72604
1.7177
1.70451
1.69431
1.69172
1.69115
1.69215
1.69253
1.69096
1.68875
1.68551
1.67847
1.66628
1.655
1.65037
1.64869
1.64777
1.64648
1.64466
1.64252
1.63946
1.63483
1.63019
1.6274
1.62529
1.62279
1.61871
1.61065
1.60174
1.59902
1.59768
1.59662
1.59598
1.59454
1.59257
1.59033
1.58746
1.58292
1.57409
1.56523
1.5627
1.56165
1.56099
1.56044
1.55923
1.55764
1.55552
1.55209
1.54583
1.53926
1.53701
1.53586
1.53422
1.53241
1.53062
1.52859
1.52486
1.51848
1.51182
1.50869
1.5074
1.50625
1.50492
1.50315
1.50009
1.49567
1.49262
1.49152
1.49049
1.48938
1.48787
1.4849
1.47986
1.47428
1.47158
1.47004
1.46868
1.46726
1.46548
1.46343
1.461
1.45741
1.45259
1.44954
1.4482
1.447
1.44573
1.44426
1.44258
1.44059
1.43785
1.43349
1.42904
1.42767
1.42718
1.42624
1.42474
1.42321
1.42165
1.41991
1.41776
1.4147
1.41063
1.40791
1.40688
1.40557
1.40363
1.40186
1.40201
1.40158
1.40203
1.40627
1.41943
1.45285
1.49229
1.53524
1.56909
1.59389
1.60596
1.60843
1.61201
1.61719
1.61764
1.61771
1.61784
1.61793
1.61835
1.61835
1.61799
1.61745
1.61753
1.6179
1.61824
1.61952
1.62277
1.62493
1.62546
1.62561
1.62508
1.62311
1.62128
1.62103
1.6212
1.6217
1.62274
1.62475
1.62651
1.62659
1.62613
1.62527
1.62352
1.62185
1.62199
1.6226
1.62376
1.62564
1.62669
1.6267
1.62667
1.62644
1.6253
1.62249
1.62012
1.61941
1.6194
1.62009
1.6227
1.62814
1.63329
1.63426
1.63377
1.63266
1.63075
1.62619
1.61844
1.6141
1.61375
1.61378
1.61551
1.64776
1.92004
2.22088
2.25731
2.24849
2.22893
2.21894
2.21547
2.21768
2.22441
2.22555
2.21913
2.20967
2.19892
2.19269
2.1882
2.18716
2.18742
2.1835
2.17702
2.17099
2.17403
2.20141
2.25771
2.31651
2.3604
2.3752
2.3785
2.37565
2.37294
2.36885
2.36796
2.36893
2.37235
2.37383
2.37288
2.37141
2.36975
2.36797
2.3656
2.36202
2.35818
2.35464
2.35223
2.35167
2.35148
2.35074
2.34933
1.88341
1.87234
1.85386
1.83639
1.82855
1.82587
1.82549
1.82811
1.82892
1.8273
1.82512
1.82178
1.81304
1.79787
1.78573
1.78232
1.78133
1.78069
1.77924
1.77707
1.77407
1.76932
1.75949
1.74696
1.74147
1.74041
1.74049
1.73989
1.73771
1.73506
1.73146
1.72431
1.71148
1.6999
1.69658
1.69575
1.69622
1.69682
1.69546
1.69339
1.69046
1.68438
1.6727
1.66064
1.65547
1.65381
1.65284
1.6515
1.64971
1.64771
1.64479
1.63986
1.63411
1.63066
1.62864
1.62651
1.62341
1.61748
1.60816
1.60348
1.6021
1.60094
1.60031
1.59935
1.59752
1.59537
1.59266
1.58852
1.58027
1.57017
1.56641
1.56542
1.56477
1.5643
1.56335
1.56197
1.56007
1.55698
1.55096
1.5438
1.54116
1.54027
1.53915
1.53731
1.53524
1.5329
1.52875
1.52201
1.51567
1.51302
1.51178
1.51069
1.50919
1.5074
1.5046
1.49993
1.49551
1.49406
1.49329
1.4923
1.49092
1.48876
1.4846
1.47902
1.4757
1.47399
1.47241
1.47082
1.46923
1.46755
1.46544
1.46193
1.45655
1.4527
1.45122
1.45013
1.44906
1.44774
1.4462
1.44448
1.44225
1.43841
1.43287
1.43
1.42913
1.42877
1.42806
1.42654
1.42489
1.42316
1.42116
1.4184
1.41438
1.41115
1.40999
1.4092
1.4083
1.4065
1.40431
1.40261
1.40069
1.39943
1.39679
1.39542
1.39916
1.41249
1.44262
1.4878
1.53022
1.56181
1.58047
1.59709
1.60558
1.60897
1.61042
1.61039
1.61083
1.61165
1.61171
1.61114
1.61078
1.61124
1.61221
1.61357
1.61681
1.62043
1.62092
1.62079
1.62023
1.6187
1.61644
1.61552
1.61563
1.61588
1.61644
1.618
1.62063
1.62217
1.62219
1.62191
1.62116
1.61972
1.61884
1.61897
1.61933
1.61994
1.62074
1.62098
1.62089
1.62078
1.62026
1.61864
1.61641
1.61552
1.61556
1.61609
1.61817
1.62289
1.62754
1.62855
1.62827
1.62755
1.62615
1.62267
1.6158
1.6104
1.60954
1.60955
1.61059
1.62457
1.80596
2.16054
2.25624
2.24915
2.2276
2.21548
2.21165
2.21312
2.2203
2.22289
2.21672
2.20688
2.19512
2.18844
2.18511
2.18548
2.18721
2.1855
2.17784
2.16899
2.1612
2.15899
2.16002
2.1793
2.22738
2.28896
2.33406
2.35701
2.35805
2.3579
2.35457
2.35603
2.35902
2.36181
2.36112
2.35811
2.35586
2.35403
2.35346
2.35288
2.35123
2.3486
2.34582
2.34233
2.33829
2.33436
2.33129
2.32919
1.87666
1.85845
1.84081
1.83252
1.82973
1.82928
1.83257
1.83515
1.83356
1.83142
1.82822
1.81948
1.80348
1.78986
1.78557
1.78461
1.78432
1.78311
1.78115
1.77858
1.77459
1.76644
1.75353
1.74576
1.74437
1.74431
1.74426
1.74247
1.73991
1.73659
1.73082
1.71903
1.70608
1.70146
1.70052
1.70047
1.70092
1.69979
1.69786
1.69516
1.68987
1.67898
1.66659
1.66051
1.65879
1.65801
1.657
1.65506
1.65298
1.65038
1.64528
1.6385
1.6342
1.63215
1.63026
1.62774
1.62337
1.61511
1.60797
1.60614
1.60492
1.60415
1.60362
1.60211
1.60016
1.59776
1.59419
1.58708
1.57626
1.57037
1.5692
1.56861
1.56819
1.56728
1.56598
1.56427
1.56158
1.5561
1.54857
1.54517
1.54425
1.54358
1.54223
1.54014
1.53734
1.53256
1.52543
1.51948
1.51731
1.51617
1.51494
1.51353
1.51177
1.5089
1.5045
1.49978
1.49702
1.49582
1.49491
1.49376
1.49207
1.48899
1.4836
1.47937
1.4778
1.47636
1.47468
1.47291
1.47109
1.46915
1.46656
1.46209
1.45704
1.45474
1.45327
1.45203
1.45096
1.4496
1.4479
1.44589
1.44311
1.43853
1.43346
1.4317
1.43093
1.4305
1.42978
1.42826
1.42647
1.4244
1.42176
1.41806
1.41395
1.41225
1.4116
1.41088
1.41009
1.409
1.40718
1.40524
1.4029
1.39976
1.39531
1.39246
1.3919
1.3924
1.39608
1.41033
1.43656
1.47983
1.52188
1.5603
1.57942
1.59074
1.59859
1.59908
1.60119
1.6043
1.60441
1.60336
1.60353
1.60453
1.60627
1.60926
1.61299
1.61486
1.6148
1.61444
1.61364
1.61169
1.60965
1.6094
1.6096
1.60992
1.61086
1.6134
1.6165
1.61782
1.61805
1.61797
1.61719
1.61563
1.61448
1.61435
1.61443
1.61472
1.61536
1.61576
1.61572
1.61554
1.61485
1.61327
1.61227
1.61242
1.61289
1.61443
1.61809
1.62175
1.62247
1.62233
1.62193
1.62103
1.61859
1.61306
1.60747
1.60597
1.60594
1.60654
1.61366
1.71224
2.07108
2.24989
2.25009
2.23198
2.21427
2.20885
2.20865
2.21476
2.2198
2.21577
2.20644
2.19359
2.18523
2.18099
2.18073
2.18363
2.18421
2.17869
2.16984
2.16019
2.15312
2.14923
2.14983
2.15381
2.16458
2.19331
2.24215
2.29346
2.32665
2.33631
2.34148
2.3463
2.34903
2.349
2.34579
2.34078
2.33713
2.33457
2.3342
2.33413
2.33502
2.33608
2.33625
2.3337
2.32652
2.31923
2.31344
2.30871
1.86327
1.8457
1.8368
1.83388
1.83328
1.83668
1.8409
1.83981
1.83762
1.83454
1.82599
1.80949
1.79384
1.78839
1.78718
1.78729
1.78677
1.78508
1.78283
1.77961
1.77338
1.76105
1.75092
1.74838
1.74761
1.74762
1.74639
1.7441
1.74112
1.7364
1.72666
1.71333
1.70653
1.70528
1.70494
1.70515
1.70415
1.70219
1.69959
1.69495
1.685
1.6726
1.66555
1.66375
1.66303
1.66247
1.66089
1.65884
1.65614
1.65066
1.64303
1.63804
1.63595
1.63426
1.63214
1.62877
1.62217
1.61325
1.60983
1.60856
1.60762
1.6072
1.60615
1.60439
1.6023
1.59939
1.59377
1.58319
1.57495
1.57319
1.57247
1.57218
1.57124
1.56991
1.56829
1.56583
1.56087
1.5534
1.54926
1.54815
1.54743
1.54648
1.54482
1.54222
1.53707
1.52905
1.52291
1.52109
1.52047
1.51932
1.5177
1.516
1.51355
1.50875
1.50352
1.5009
1.49918
1.49771
1.49649
1.49517
1.49274
1.48868
1.48365
1.48117
1.4799
1.47862
1.47695
1.47507
1.4731
1.47066
1.46672
1.46103
1.45793
1.45679
1.45529
1.45391
1.45278
1.4514
1.44965
1.44713
1.44326
1.43797
1.43461
1.43347
1.43267
1.43209
1.43132
1.42988
1.42799
1.42559
1.42217
1.41727
1.41425
1.41351
1.413
1.41244
1.41172
1.41076
1.40945
1.40779
1.40546
1.40193
1.39628
1.39153
1.39058
1.39066
1.39091
1.39175
1.39452
1.4065
1.43335
1.47036
1.51461
1.55029
1.58007
1.5873
1.59252
1.59757
1.59743
1.5964
1.59772
1.60004
1.60341
1.60683
1.60838
1.60861
1.60833
1.60773
1.60674
1.6044
1.60285
1.60298
1.60337
1.6041
1.6061
1.60974
1.61248
1.61335
1.61357
1.61331
1.61188
1.60989
1.60881
1.60846
1.60845
1.60879
1.60965
1.61048
1.6107
1.61058
1.60988
1.60919
1.60951
1.61022
1.61146
1.6138
1.61629
1.61665
1.61633
1.61608
1.6156
1.61403
1.6099
1.6049
1.60303
1.60299
1.60349
1.60814
1.65582
1.95268
2.22196
2.24177
2.22898
2.2134
2.2071
2.20612
2.21026
2.21501
2.21193
2.20435
2.19461
2.18544
2.18014
2.17772
2.17884
2.17954
2.1758
2.16822
2.15913
2.15145
2.14565
2.14244
2.14343
2.14472
2.14377
2.14374
2.15579
2.19204
2.2458
2.28835
2.31596
2.32973
2.33684
2.33445
2.33034
2.32352
2.31767
2.31401
2.31275
2.31322
2.31755
2.32322
2.32454
2.32129
2.31428
2.3061
2.29794
2.29181
1.85102
1.8415
1.83855
1.83785
1.84098
1.84623
1.8458
1.8435
1.84036
1.83198
1.81532
1.79798
1.79124
1.78954
1.78959
1.78984
1.78887
1.78705
1.78441
1.77979
1.76898
1.75677
1.75305
1.75157
1.75054
1.74934
1.7475
1.74484
1.74092
1.7336
1.72125
1.71214
1.71032
1.70955
1.70936
1.7084
1.70643
1.70385
1.69964
1.69078
1.6788
1.67082
1.66882
1.66819
1.66792
1.66653
1.66455
1.66197
1.65589
1.64715
1.64191
1.63988
1.6383
1.63649
1.63389
1.62905
1.62011
1.61369
1.61212
1.61101
1.61044
1.60974
1.60817
1.60622
1.60374
1.5995
1.59019
1.58017
1.57729
1.57635
1.57602
1.57532
1.57394
1.5723
1.56995
1.56531
1.55804
1.55344
1.55218
1.55132
1.55029
1.5488
1.54661
1.54197
1.53361
1.52662
1.52456
1.52398
1.5236
1.52214
1.52036
1.51799
1.51373
1.50734
1.50412
1.50295
1.50134
1.49956
1.49791
1.49611
1.49281
1.48817
1.48515
1.48327
1.48184
1.48059
1.47899
1.47703
1.47474
1.47157
1.46644
1.46155
1.45983
1.45879
1.45737
1.45591
1.45457
1.45301
1.45093
1.44763
1.44287
1.43855
1.4365
1.43543
1.43463
1.43391
1.43279
1.4312
1.42903
1.42608
1.42206
1.41741
1.41548
1.4148
1.41437
1.41386
1.41316
1.4123
1.41109
1.40955
1.40734
1.40372
1.39796
1.39309
1.39188
1.39118
1.39017
1.38996
1.3906
1.39091
1.39326
1.40233
1.42665
1.45993
1.50124
1.53787
1.56412
1.58087
1.58593
1.58997
1.59372
1.59825
1.60309
1.60477
1.60518
1.60525
1.60412
1.60199
1.59966
1.59764
1.59706
1.5975
1.59835
1.60002
1.60355
1.60717
1.60846
1.6089
1.60888
1.60814
1.60619
1.60392
1.60281
1.60246
1.60243
1.60284
1.6041
1.60534
1.606
1.60616
1.60606
1.60644
1.60733
1.60831
1.60949
1.61077
1.61115
1.61075
1.6102
1.60985
1.60895
1.6062
1.60229
1.60037
1.60032
1.6009
1.60458
1.62738
1.84214
2.16898
2.23521
2.22255
2.20843
2.20321
2.20301
2.20777
2.21253
2.20889
2.20032
2.19006
2.18199
2.17777
2.17618
2.17696
2.17723
2.17221
2.16461
2.15572
2.14822
2.1427
2.13888
2.13806
2.13853
2.13681
2.13098
2.12469
2.12066
2.12476
2.14887
2.19592
2.24924
2.28955
2.3106
2.3144
2.31331
2.30662
2.29993
2.29546
2.29288
2.29425
2.30123
2.30876
2.30946
2.30622
2.30041
2.29291
2.28511
2.27879
1.84648
1.84352
1.84289
1.84569
1.85118
1.8514
1.84909
1.84571
1.8374
1.82091
1.802
1.79383
1.7918
1.79161
1.79271
1.79226
1.7912
1.78925
1.78578
1.77738
1.76345
1.75728
1.7556
1.7542
1.75226
1.74995
1.74758
1.74451
1.7393
1.72935
1.71833
1.71545
1.71428
1.7135
1.71238
1.71042
1.70784
1.70393
1.69617
1.68486
1.67629
1.67399
1.67337
1.67341
1.67224
1.67016
1.66732
1.66063
1.65114
1.6454
1.64363
1.64228
1.6406
1.63851
1.63509
1.62785
1.61879
1.61581
1.61459
1.6138
1.61323
1.61182
1.60991
1.60758
1.60408
1.59633
1.58589
1.58142
1.58027
1.57964
1.57915
1.57788
1.57627
1.57402
1.56969
1.56256
1.55755
1.55619
1.55536
1.55422
1.55265
1.55056
1.54653
1.53859
1.53088
1.52833
1.52738
1.52713
1.5261
1.52456
1.52239
1.51866
1.51218
1.50715
1.50594
1.50492
1.50328
1.50134
1.49933
1.49667
1.49225
1.48836
1.48713