/*--------------------------------*- C++ -*----------------------------------*\
  =========                 |
  \\      /  F ield         | OpenFOAM: The Open Source CFD Toolbox
   \\    /   O peration     | Website:  https://openfoam.org
    \\  /    A nd           | Version:  7
     \\/     M anipulation  |
\*---------------------------------------------------------------------------*/
FoamFile
{
    version     2.0;
    format      ascii;
    class       volScalarField;
    location    "3.9";
    object      rho;
}
// * * * * * * * * * * * * * * * * * * * * * * * * * * * * * * * * * * * * * //

dimensions      [1 -3 0 0 0 0 0];

internalField   nonuniform List<scalar> 
16512
(
2.75088
2.71782
2.68666
2.67764
2.67372
2.66959
2.66569
2.66357
2.66377
2.66422
2.66077
2.65542
2.64435
2.62315
2.59644
2.58521
2.58155
2.579
2.57817
2.57861
2.57692
2.57302
2.56813
2.55923
2.53732
2.50399
2.48405
2.47678
2.47207
2.46823
2.46483
2.46085
2.45647
2.45278
2.45004
2.44639
2.43914
2.42545
2.4126
2.40583
2.4012
2.39671
2.39174
2.38657
2.38139
2.37613
2.37095
2.36667
2.36351
2.36039
2.35413
2.33989
2.31829
2.30176
2.29319
2.28757
2.28401
2.28201
2.2817
2.28004
2.27672
2.27293
2.26794
2.25728
2.23565
2.21385
2.20462
2.20044
2.19733
2.1948
2.19336
2.19343
2.19308
2.19088
2.18776
2.18376
2.17832
2.16987
2.15562
2.13601
2.11917
2.11148
2.10763
2.10474
2.1022
2.10029
2.09831
2.09615
2.09377
2.09079
2.08686
2.08191
2.07669
2.07223
2.06621
2.05502
2.04009
2.02783
2.02167
2.01799
2.01464
2.01063
2.0054
1.99962
1.99396
1.98794
1.98158
1.97692
1.97406
1.97206
1.97087
1.96903
1.9643
1.95566
1.94419
1.93503
1.92999
1.9263
1.92206
1.91696
1.91161
1.90642
1.90117
1.89591
1.89008
1.88391
1.87821
1.8736
1.86949
1.86489
1.85966
1.85487
1.85137
1.84843
1.84491
1.84007
1.8339
1.82787
1.82406
1.82206
1.8203
1.81761
1.81226
1.80206
1.78842
1.77904
1.77428
1.77121
1.76869
1.76593
1.76249
1.75895
1.75636
1.75476
1.7536
1.75187
1.7483
1.74169
1.73207
1.72448
1.71913
1.7126
1.70899
1.70742
1.70509
1.70124
1.69831
1.69696
1.69568
1.69419
1.69296
1.69143
1.68944
1.68074
1.67123
1.67794
1.71254
1.79075
1.92755
2.11192
2.27328
2.38858
2.451
2.52132
2.58539
2.60218
2.60825
2.61112
2.60965
2.59825
2.58793
2.58209
2.57652
2.57355
2.57177
2.56904
2.56566
2.56242
2.5597
2.5583
2.55911
2.5634
2.57129
2.58127
2.58863
2.59066
2.58973
2.58616
2.57895
2.56865
2.55604
2.54203
2.53134
2.52648
2.52592
2.52617
2.52746
2.52867
2.52868
2.52708
2.52329
2.51946
2.51681
2.51486
2.51271
2.51159
2.51293
2.51735
2.5221
2.52429
2.52402
2.52205
2.51799
2.50976
2.49531
2.48088
2.47348
2.47205
2.47217
2.47372
2.478
2.48393
2.48497
2.48362
2.48257
2.48127
2.47953
2.47671
2.47447
2.47468
2.47707
2.48103
2.48295
2.48282
2.4803
2.47137
2.45478
2.43693
2.75551
2.72831
2.70334
2.69012
2.68423
2.68164
2.67971
2.67595
2.67115
2.666
2.66023
2.65242
2.63899
2.61908
2.604
2.59911
2.59495
2.59158
2.58916
2.58625
2.58313
2.58015
2.57553
2.56524
2.54516
2.52062
2.5008
2.48721
2.48024
2.47681
2.47382
2.46975
2.4646
2.45902
2.45301
2.4457
2.43653
2.426
2.41602
2.4088
2.40278
2.39825
2.39499
2.39212
2.38902
2.38532
2.38046
2.37451
2.36785
2.35908
2.34542
2.32891
2.31766
2.31175
2.3067
2.30113
2.2954
2.29115
2.28842
2.28626
2.28335
2.27901
2.27237
2.26143
2.24461
2.22671
2.21426
2.20792
2.20392
2.20054
2.19786
2.19551
2.19307
2.18992
2.18576
2.17966
2.17204
2.1654
2.1596
2.15013
2.13297
2.11686
2.11211
2.11086
2.1106
2.10854
2.10562
2.1026
2.09936
2.09559
2.0907
2.08399
2.07625
2.06997
2.06573
2.0611
2.05326
2.04168
2.03074
2.02373
2.01846
2.0133
2.00764
2.00146
1.99503
1.98917
1.98515
1.98227
1.97902
1.97521
1.97115
1.96616
1.96042
1.95276
1.94436
1.93637
1.93149
1.92872
1.92617
1.92334
1.91981
1.91494
1.90822
1.9006
1.8933
1.88567
1.87871
1.87335
1.86921
1.86554
1.86214
1.85867
1.8546
1.85018
1.84576
1.84122
1.83669
1.83254
1.82894
1.82557
1.82235
1.819
1.81469
1.80644
1.79196
1.78034
1.77478
1.77157
1.76968
1.76773
1.76543
1.7633
1.76114
1.75839
1.75505
1.7509
1.74459
1.73591
1.72884
1.7255
1.72298
1.7184
1.71476
1.71332
1.71091
1.70734
1.70319
1.70013
1.69811
1.69642
1.69505
1.69346
1.69021
1.68183
1.67108
1.66173
1.65817
1.6612
1.68003
1.7397
1.84162
1.99802
2.17702
2.33368
2.44605
2.4884
2.53642
2.57553
2.58236
2.58145
2.58157
2.58271
2.57892
2.57561
2.57446
2.5718
2.56785
2.56284
2.558
2.5551
2.55354
2.55336
2.55505
2.56018
2.56766
2.57489
2.57797
2.57702
2.57336
2.56662
2.55722
2.54571
2.53284
2.52242
2.5175
2.51642
2.51637
2.51825
2.52106
2.52187
2.52117
2.5171
2.51372
2.512
2.51009
2.50736
2.50593
2.5057
2.50748
2.51172
2.51399
2.51398
2.51288
2.50867
2.49917
2.48353
2.47111
2.46632
2.46592
2.46604
2.4683
2.47355
2.47662
2.47752
2.47855
2.47932
2.47827
2.4755
2.47105
2.46838
2.46814
2.46864
2.46953
2.46929
2.46631
2.45819
2.44698
2.43438
2.74814
2.73262
2.72118
2.71198
2.70238
2.694
2.68845
2.68364
2.67865
2.67329
2.66585
2.65198
2.63238
2.61756
2.61315
2.61017
2.60863
2.60601
2.60118
2.59453
2.58682
2.57892
2.57049
2.55898
2.5464
2.53429
2.52396
2.51254
2.49791
2.48453
2.47749
2.47391
2.47154
2.46731
2.46028
2.44912
2.43585
2.4266
2.42174
2.41739
2.413
2.40878
2.40415
2.39925
2.3949
2.39107
2.3873
2.38278
2.37507
2.3605
2.3408
2.3255
2.31893
2.31586
2.31331
2.31083
2.30758
2.30312
2.29748
2.29098
2.28396
2.27616
2.2661
2.25635
2.24896
2.24187
2.23285
2.22066
2.2116
2.20768
2.2046
2.20131
2.19798
2.19409
2.18832
2.1801
2.17151
2.16527
2.16127
2.15735
2.14992
2.13552
2.11998
2.11198
2.10822
2.10533
2.10225
2.09883
2.09533
2.09185
2.08782
2.08262
2.07554
2.06938
2.06648
2.06426
2.0605
2.05207
2.03883
2.02778
2.02158
2.01683
2.01186
2.0065
2.00081
1.995
1.9892
1.98494
1.98261
1.98025
1.97583
1.96827
1.95878
1.9511
1.94549
1.94169
1.9387
1.93607
1.93349
1.93046
1.92623
1.91931
1.90828
1.8955
1.88786
1.8838
1.87958
1.87503
1.87077
1.86729
1.86447
1.86143
1.85727
1.8525
1.84902
1.84703
1.84512
1.84245
1.83882
1.83427
1.82904
1.82356
1.81681
1.80821
1.79744
1.78745
1.77948
1.77337
1.77
1.76804
1.76661
1.76585
1.76432
1.76192
1.75836
1.75331
1.74538
1.73437
1.72905
1.727
1.72474
1.72189
1.71905
1.71686
1.71447
1.71176
1.70875
1.70543
1.70196
1.69848
1.69425
1.68963
1.68483
1.67931
1.67265
1.66538
1.65945
1.65503
1.65036
1.65052
1.65974
1.69438
1.77854
1.89951
2.06691
2.2325
2.39141
2.47415
2.49791
2.52239
2.53948
2.54643
2.55326
2.5593
2.56634
2.57021
2.57052
2.56756
2.56425
2.56087
2.55659
2.55337
2.5509
2.54871
2.54804
2.54812
2.5498
2.5526
2.55501
2.55533
2.5529
2.54695
2.53742
2.52574
2.51511
2.51082
2.50982
2.50973
2.51171
2.51332
2.51389
2.51397
2.51192
2.50947
2.50744
2.50377
2.49938
2.49759
2.49709
2.49936
2.50295
2.50333
2.50299
2.50221
2.49848
2.48917
2.47405
2.46457
2.46244
2.46199
2.46197
2.46445
2.46861
2.47075
2.47164
2.47229
2.47227
2.47124
2.46862
2.46369
2.45899
2.45778
2.45706
2.45556
2.45163
2.4455
2.4402
2.43355
2.74438
2.73449
2.73034
2.72674
2.72233
2.71519
2.70482
2.69277
2.68132
2.67084
2.65935
2.64494
2.6298
2.62445
2.62224
2.62201
2.62013
2.61586
2.61093
2.60522
2.5975
2.58586
2.56966
2.55496
2.54506
2.54039
2.53583
2.52974
2.52056
2.50685
2.49149
2.4802
2.47219
2.46572
2.45854
2.44715
2.43418
2.42899
2.4261
2.42299
2.41995
2.41725
2.41434
2.41097
2.40696
2.40165
2.39423
2.38328
2.36885
2.35205
2.33575
2.32811
2.32567
2.32378
2.32161
2.31858
2.31485
2.31029
2.30463
2.298
2.28917
2.27703
2.26479
2.25582
2.25201
2.24913
2.24522
2.23863
2.22808
2.21514
2.20437
2.19764
2.19352
2.18957
2.18443
2.17739
2.17138
2.16825
2.16522
2.16182
2.15761
2.14928
2.13265
2.11684
2.10945
2.1056
2.10234
2.09884
2.09501
2.09117
2.08713
2.08209
2.07638
2.07198
2.0685
2.06517
2.06173
2.05676
2.04679
2.03301
2.02407
2.01953
2.01536
2.01032
2.005
2.00098
1.99747
1.99296
1.98681
1.97954
1.97217
1.96253
1.95358
1.94926
1.94749
1.94671
1.94568
1.94401
1.94175
1.93835
1.93316
1.92466
1.91128
1.89503
1.88547
1.88274
1.88117
1.87925
1.87647
1.87251
1.86777
1.86345
1.86058
1.85812
1.85479
1.8501
1.84523
1.84111
1.83737
1.83286
1.82648
1.81843
1.81042
1.80319
1.79809
1.7936
1.78737
1.77929
1.7736
1.77104
1.76902
1.76687
1.76494
1.7635
1.76151
1.75782
1.74856
1.736
1.73184
1.73046
1.7285
1.72655
1.72441
1.72106
1.71697
1.71334
1.71062
1.70846
1.70611
1.70262
1.6975
1.68986
1.68255
1.67763
1.67439
1.671
1.66591
1.65863
1.65115
1.64629
1.64303
1.64203
1.64632
1.66385
1.71377
1.81077
1.94714
2.11542
2.26975
2.43033
2.47829
2.49006
2.51134
2.51957
2.5289
2.5397
2.5495
2.56028
2.56398
2.56487
2.56362
2.56089
2.5566
2.54858
2.54165
2.53882
2.53649
2.53494
2.53423
2.53475
2.53609
2.53561
2.53302
2.5265
2.51624
2.50879
2.50704
2.50681
2.50794
2.50938
2.50958
2.50854
2.50517
2.5012
2.49941
2.49739
2.49362
2.49194
2.49151
2.49229
2.49487
2.4953
2.49469
2.49412
2.49348
2.49046
2.48056
2.4669
2.45985
2.45828
2.45796
2.45855
2.46174
2.46416
2.46419
2.46384
2.46348
2.46283
2.46122
2.45675
2.45009
2.44656
2.44496
2.44308
2.43978
2.43619
2.43382
2.43066
2.74409
2.74093
2.7386
2.73723
2.73335
2.7275
2.71892
2.70553
2.68971
2.67271
2.6555
2.64119
2.6356
2.63317
2.63279
2.63417
2.63151
2.62691
2.62039
2.61025
2.59668
2.57992
2.56375
2.55296
2.54907
2.54634
2.54381
2.54008
2.53463
2.52557
2.50974
2.49087
2.47737
2.46762
2.4586
2.44853
2.44061
2.43562
2.4311
2.42729
2.42401
2.42146
2.4194
2.41693
2.41388
2.41013
2.40308
2.38824
2.3644
2.346
2.3386
2.33565
2.33309
2.33139
2.32908
2.32601
2.32247
2.31782
2.31019
2.29842
2.28559
2.27377
2.26427
2.26056
2.25782
2.25546
2.25275
2.24852
2.24049
2.22559
2.20979
2.20008
2.19368
2.18832
2.18201
2.17666
2.17384
2.17121
2.16968
2.16793
2.16486
2.15955
2.14641
2.12523
2.11179
2.10621
2.1028
2.09949
2.09554
2.09093
2.08634
2.08272
2.07956
2.0759
2.07219
2.06881
2.0653
2.06091
2.05385
2.04181
2.02974
2.02333
2.01928
2.01525
2.01072
2.00663
2.00333
1.99972
1.9942
1.98479
1.97182
1.9605
1.95444
1.95229
1.95033
1.94869
1.94787
1.9475
1.94552
1.94255
1.93822
1.92965
1.91358
1.89567
1.88737
1.88401
1.88116
1.87888
1.87732
1.87552
1.87301
1.87001
1.86682
1.86307
1.85828
1.85277
1.84739
1.84259
1.83842
1.83382
1.82703
1.81768
1.80937
1.80396
1.80036
1.79665
1.79166
1.78394
1.77644
1.77352
1.77175
1.77015
1.7686
1.76669
1.76366
1.75808
1.74869
1.73991
1.7369
1.73506
1.73258
1.72926
1.72592
1.72347
1.72111
1.71838
1.71512
1.7107
1.70525
1.6999
1.69378
1.68584
1.67998
1.67798
1.67692
1.67518
1.67169
1.6656
1.65681
1.64804
1.64218
1.63927
1.63815
1.63701
1.63804
1.64585
1.67079
1.73807
1.84834
2.01021
2.17404
2.3148
2.45195
2.48677
2.49311
2.51282
2.51768
2.52745
2.53657
2.54372
2.55349
2.55566
2.55382
2.54881
2.54148
2.53522
2.53131
2.52929
2.52799
2.52646
2.52372
2.52003
2.51734
2.51508
2.51176
2.50711
2.50495
2.50455
2.50469
2.50611
2.50696
2.50607
2.5027
2.49854
2.49435
2.48946
2.48466
2.48278
2.48236
2.48261
2.48514
2.48809
2.4887
2.48848
2.48816
2.48715
2.48248
2.47162
2.4599
2.45449
2.45383
2.45386
2.45467
2.45646
2.45681
2.45624
2.4556
2.45452
2.45237
2.44782
2.44046
2.4353
2.43376
2.43345
2.4331
2.43215
2.43177
2.43052
2.74641
2.74441
2.74604
2.74672
2.7428
2.73754
2.73003
2.71636
2.69359
2.67022
2.65391
2.64751
2.6448
2.64312
2.64269
2.6424
2.64032
2.63643
2.63094
2.61956
2.59778
2.57498
2.56206
2.55805
2.55518
2.55333
2.55265
2.54987
2.54551
2.53917
2.52739
2.50674
2.4835
2.46617
2.45479
2.44985
2.44715
2.44386
2.43969
2.43607
2.4332
2.43089
2.42793
2.42378
2.41803
2.41085
2.40116
2.38414
2.36081
2.34638
2.34329
2.34141
2.34069
2.33899
2.33598
2.33271
2.32902
2.32376
2.3165
2.30228
2.2827
2.27149
2.26849
2.26647
2.2654
2.26498
2.26264
2.25857
2.25142
2.23646
2.21522
2.2
2.19146
2.18519
2.18144
2.17972
2.17963
2.18139
2.18037
2.17739
2.17374
2.16824
2.15646
2.13588
2.11655
2.10971
2.1071
2.10401
2.1
2.09472
2.08751
2.08218
2.08
2.07859
2.07699
2.07457
2.0717
2.06797
2.0613
2.04848
2.03402
2.0258
2.02191
2.01961
2.01742
2.01473
2.01084
2.00521
1.99672
1.98337
1.96717
1.95876
1.95684
1.95518
1.95359
1.95267
1.95241
1.95151
1.94932
1.94634
1.94178
1.93243
1.91467
1.89789
1.89137
1.88811
1.88494
1.88159
1.87896
1.87688
1.87542
1.87446
1.87257
1.86917
1.86237
1.85425
1.84884
1.84485
1.84118
1.83639
1.82859
1.81824
1.81001
1.80668
1.80443
1.80173
1.79752
1.79101
1.78306
1.77723
1.77434
1.77233
1.77037
1.76839
1.76573
1.76074
1.75101
1.74306
1.74057
1.73858
1.73629
1.73369
1.7305
1.7266
1.72268
1.719
1.71514
1.71091
1.7061
1.69953
1.69051
1.6827
1.68022
1.67933
1.67899
1.67781
1.67537
1.67164
1.66466
1.65387
1.64485
1.64019
1.63661
1.63325
1.63201
1.63067
1.62868
1.63125
1.64498
1.68358
1.77712
1.90756
2.08544
2.23454
2.36075
2.46809
2.49543
2.50048
2.51741
2.52576
2.52898
2.52893
2.52522
2.525
2.52642
2.52911
2.53141
2.5316
2.53011
2.52715
2.52169
2.51583
2.51061
2.5061
2.50138
2.49726
2.49616
2.49637
2.49786
2.50193
2.50558
2.50547
2.50302
2.49824
2.49284
2.4863
2.47783
2.47095
2.46839
2.46787
2.46934
2.47459
2.47987
2.48268
2.4839
2.48407
2.4826
2.4763
2.46475
2.45372
2.44711
2.44538
2.44484
2.44519
2.44727
2.44896
2.44879
2.44782
2.44578
2.44153
2.43512
2.42869
2.42598
2.42616
2.42799
2.43169
2.4341
2.43286
2.75108
2.74862
2.74891
2.75019
2.74789
2.74309
2.73711
2.72473
2.69703
2.6681
2.65925
2.65602
2.65362
2.65391
2.65491
2.65226
2.64801
2.64329
2.63544
2.61818
2.59098
2.57148
2.5659
2.56291
2.56081
2.55995
2.55896
2.55623
2.55235
2.54763
2.53953
2.5208
2.49026
2.46744
2.45779
2.45297
2.44901
2.44649
2.44634
2.44458
2.44113
2.4372
2.43335
2.42954
2.4248
2.41678
2.40203
2.38173
2.3646
2.35671
2.35117
2.34738
2.34461
2.34263
2.33962
2.33593
2.33276
2.32982
2.31965
2.29951
2.28104
2.2753
2.27333
2.27177
2.27072
2.26956
2.26745
2.2643
2.25943
2.24724
2.22323
2.20283
2.19358
2.18893
2.18599
2.18391
2.18196
2.17971
2.17699
2.1736
2.16954
2.16462
2.1588
2.14879
2.13216
2.1134
2.10253
2.09862
2.09564
2.09226
2.0878
2.08419
2.08154
2.07897
2.07678
2.07497
2.07253
2.06877
2.06366
2.05475
2.04162
2.03155
2.02613
2.02299
2.02067
2.01817
2.01503
2.01026
2.0007
1.98501
1.96945
1.96315
1.96052
1.95864
1.95716
1.95605
1.95468
1.95307
1.95108
1.94819
1.94365
1.93484
1.91837
1.90176
1.89458
1.89107
1.88784
1.8849
1.88295
1.88131
1.8794
1.8767
1.87331
1.86922
1.86399
1.85817
1.85213
1.84479
1.83592
1.82939
1.82441
1.81922
1.81564
1.812
1.80718
1.80268
1.79898
1.79556
1.79108
1.78576
1.78145
1.77818
1.77539
1.77281
1.76984
1.76471
1.75639
1.74781
1.74299
1.74014
1.73739
1.73443
1.73134
1.72833
1.72528
1.72193
1.71796
1.71325
1.70711
1.69785
1.68699
1.68196
1.68073
1.68005
1.6807
1.68072
1.67876
1.67618
1.67202
1.66397
1.65246
1.64353
1.63789
1.6332
1.62955
1.62615
1.62335
1.6231
1.62331
1.62427
1.63192
1.65744
1.71864
1.8354
1.9774
2.14677
2.27801
2.38625
2.47421
2.51431
2.51632
2.51685
2.5065
2.49783
2.49703
2.49763
2.50589
2.51794
2.52523
2.52587
2.5229
2.51673
2.51012
2.50366
2.49845
2.49375
2.48946
2.48651
2.48597
2.48877
2.49609
2.50204
2.50259
2.50054
2.49493
2.4865
2.47604
2.46588
2.45854
2.45573
2.45532
2.45708
2.46202
2.46954
2.47794
2.48216
2.48218
2.47908
2.47101
2.45809
2.44514
2.43693
2.43418
2.43354
2.43416
2.43722
2.44015
2.44046
2.43965
2.43751
2.43301
2.42703
2.42251
2.42162
2.42193
2.42381
2.42671
2.42684
2.75587
2.7539
2.75604
2.75827
2.7554
2.75053
2.74337
2.72932
2.70252
2.6792
2.67034
2.66555
2.66179
2.6595
2.6596
2.65915
2.65586
2.65066
2.64007
2.61845
2.59146
2.57891
2.57359
2.5692
2.56614
2.5645
2.56366
2.56161
2.55798
2.5538
2.5475
2.53137
2.50011
2.47652
2.4684
2.46306
2.45821
2.45412
2.45037
2.44711
2.44542
2.44268
2.43819
2.43226
2.42472
2.41368
2.39585
2.37747
2.37057
2.36703
2.36189
2.35633
2.35262
2.34929
2.34546
2.34164
2.33673
2.32665
2.31193
2.29624
2.28681
2.28256
2.27954
2.27806
2.27874
2.27761
2.27391
2.26915
2.26225
2.25109
2.23362
2.21533
2.20428
2.19905
2.1951
2.19111
2.18705
2.18276
2.17838
2.174
2.16953
2.16481
2.16006
2.15435
2.14357
2.1221
2.10381
2.09766
2.09467
2.09178
2.0892
2.08658
2.08375
2.08123
2.07933
2.07745
2.07583
2.07356
2.06754
2.05682
2.04581
2.03836
2.03349
2.02964
2.02643
2.0233
2.01913
2.01216
2.00084
1.98635
1.97689
1.97218
1.96907
1.96678
1.96477
1.96256
1.96032
1.95818
1.95575
1.95237
1.94732
1.93855
1.92666
1.91314
1.90182
1.89562
1.89143
1.8873
1.88429
1.88225
1.88005
1.87746
1.87433
1.87056
1.86637
1.8615
1.85535
1.84727
1.83649
1.82658
1.82343
1.82228
1.82045
1.81716
1.81274
1.80847
1.80489
1.80119
1.79631
1.78919
1.78091
1.77537
1.77187
1.76829
1.76431
1.7586
1.75127
1.74774
1.74601
1.74403
1.74159
1.73862
1.73482
1.73009
1.72529
1.72157
1.71855
1.71478
1.70832
1.69783
1.68735
1.68409
1.68294
1.68212
1.68317
1.6837
1.68163
1.67907
1.67602
1.67086
1.66099
1.6493
1.64206
1.63613
1.62813
1.62275
1.62119
1.62029
1.61984
1.62013
1.62089
1.62254
1.62666
1.64001
1.67475
1.75446
1.87857
2.02673
2.18738
2.31739
2.42646
2.48497
2.50068
2.49933
2.49386
2.48412
2.48463
2.48776
2.49209
2.5001
2.50631
2.50758
2.50659
2.50449
2.50089
2.49696
2.49126
2.48464
2.48086
2.48016
2.48164
2.48685
2.49234
2.49369
2.49233
2.48672
2.47631
2.46525
2.45725
2.45182
2.44869
2.44774
2.44784
2.45163
2.4611
2.47145
2.47585
2.476
2.47285
2.46349
2.44922
2.43501
2.42696
2.42428
2.42357
2.42373
2.42647
2.43082
2.43287
2.433
2.43208
2.42756
2.42139
2.41882
2.41845
2.41986
2.42262
2.42169
2.76277
2.76276
2.76219
2.75747
2.75203
2.74565
2.73638
2.7219
2.70718
2.69588
2.68817
2.68255
2.6775
2.67218
2.66666
2.66055
2.65317
2.64464
2.63132
2.61298
2.59762
2.59017
2.58389
2.57818
2.57398
2.57111
2.56962
2.56821
2.56512
2.56006
2.55182
2.53681
2.51356
2.49077
2.47662
2.47023
2.46647
2.46281
2.45877
2.45465
2.45042
2.44664
2.44318
2.43864
2.4298
2.41263
2.39337
2.3814
2.37633
2.37297
2.37051
2.36783
2.36424
2.35921
2.35282
2.34499
2.33513
2.3199
2.30347
2.29681
2.29527
2.29298
2.28947
2.28475
2.27966
2.27468
2.26968
2.26387
2.25642
2.24835
2.24207
2.23387
2.22007
2.20506
2.19534
2.1891
2.18451
2.18076
2.17691
2.17227
2.16859
2.16618
2.16389
2.1605
2.15289
2.13453
2.11008
2.09881
2.09483
2.09223
2.09033
2.09
2.09061
2.08881
2.08625
2.08339
2.07915
2.07175
2.0625
2.05399
2.04895
2.04549
2.04118
2.03574
2.02986
2.02447
2.01938
2.01293
2.00401
1.9944
1.98541
1.97709
1.96987
1.96438
1.96083
1.95843
1.95635
1.95402
1.9512
1.94767
1.94309
1.93839
1.93225
1.92291
1.9123
1.90289
1.89683
1.89283
1.88955
1.88695
1.88457
1.88173
1.8778
1.87293
1.86796
1.86303
1.85739
1.84954
1.83816
1.82798
1.82313
1.82024
1.81784
1.81609
1.81543
1.81423
1.81205
1.80859
1.80295
1.79409
1.78342
1.77583
1.772
1.76845
1.76292
1.7567
1.75067
1.74856
1.74734
1.74595
1.74401
1.74168
1.73864
1.73446
1.72956
1.72477
1.72036
1.71558
1.70845
1.69716
1.6896
1.68808
1.68734
1.68706
1.6875
1.68688
1.68527
1.68334
1.68069
1.67665
1.6692
1.65679
1.6435
1.63275
1.62514
1.6218
1.62043
1.61951
1.61885
1.61928
1.61987
1.61993
1.61949
1.61887
1.61752
1.62146
1.63706
1.68072
1.78646
1.91966
2.08522
2.23394
2.34479
2.43011
2.47759
2.48424
2.48884
2.4868
2.48177
2.47843
2.47464
2.47415
2.48038
2.49061
2.49662
2.4973
2.49492
2.49093
2.48594
2.48035
2.47786
2.47827
2.4808
2.48086
2.48008
2.47738
2.47225
2.46457
2.45651
2.44993
2.44532
2.44347
2.44327
2.4442
2.44765
2.45497
2.46389
2.467
2.46651
2.46189
2.45173
2.43776
2.42502
2.41812
2.41603
2.41568
2.41665
2.42043
2.42426
2.42513
2.4253
2.42455
2.4203
2.41708
2.41637
2.41679
2.41745
2.41548
2.77185
2.77274
2.76988
2.76375
2.75759
2.74892
2.7359
2.72036
2.70966
2.70463
2.70017
2.69545
2.68971
2.68271
2.67449
2.66635
2.6576
2.64264
2.62566
2.61199
2.60669
2.60201
2.59682
2.59129
2.58559
2.57984
2.57386
2.56775
2.56085
2.55154
2.54114
2.53219
2.52369
2.51232
2.49495
2.47806
2.47025
2.46654
2.46448
2.46195
2.45763
2.45168
2.44515
2.437
2.42457
2.40573
2.39262
2.38889
2.38487
2.38125
2.37876
2.37602
2.37233
2.36719
2.36042
2.34927
2.33124
2.31543
2.3048
2.30082
2.29842
2.29681
2.29403
2.28981
2.28381
2.27697
2.27018
2.26383
2.25854
2.25408
2.2498
2.24374
2.23377
2.21877
2.20192
2.19177
2.1859
2.18124
2.17686
2.17336
2.17099
2.16888
2.16645
2.16335
2.15842
2.1466
2.12346
2.10476
2.09825
2.09511
2.09276
2.09103
2.08942
2.08672
2.08325
2.07932
2.07505
2.06973
2.06175
2.05779
2.05574
2.05286
2.04869
2.04277
2.03591
2.02916
2.02222
2.01543
2.00903
2.00194
1.99409
1.98491
1.97488
1.96665
1.96108
1.958
1.95633
1.95481
1.95238
1.949
1.9431
1.93463
1.92763
1.92383
1.9202
1.91443
1.90572
1.89616
1.88843
1.88356
1.88089
1.8787
1.87635
1.8734
1.86951
1.8655
1.86044
1.85168
1.83875
1.82855
1.8247
1.8227
1.82106
1.82008
1.81903
1.81687
1.81415
1.81092
1.80644
1.79907
1.78927
1.78113
1.77525
1.76842
1.75988
1.75393
1.75192
1.7512
1.75088
1.74935
1.74674
1.74379
1.74084
1.73774
1.73413
1.72961
1.72453
1.71871
1.71068
1.69995
1.69208
1.68922
1.68768
1.6864
1.68548
1.68578
1.68671
1.68559
1.68353
1.68096
1.67569
1.66399
1.64671
1.6318
1.62402
1.62192
1.62055
1.61945
1.61885
1.61977
1.62097
1.61982
1.61846
1.61725
1.61535
1.6135
1.60597
1.5978
1.60401
1.63044
1.70242
1.83322
1.98049
2.14417
2.27682
2.37633
2.44487
2.47772
2.48485
2.4838
2.46978
2.46271
2.46176
2.46178
2.46851
2.48055
2.48891
2.49097
2.49076
2.48745
2.4814
2.47758
2.47694
2.47599
2.47349
2.46955
2.46357
2.45497
2.44695
2.44316
2.44128
2.43975
2.43942
2.43966
2.44096
2.44477
2.45173
2.45658
2.4567
2.45476
2.44797
2.43709
2.42516
2.41586
2.41192
2.41156
2.41185
2.41343
2.41613
2.41737
2.41753
2.41691
2.41396
2.41175
2.4112
2.41154
2.41209
2.41041
2.78314
2.77456
2.7673
2.76059
2.75312
2.74367
2.73064
2.72194
2.71864
2.71531
2.71117
2.70565
2.69882
2.69135
2.68384
2.67343
2.65609
2.63645
2.62208
2.61786
2.61503
2.61177
2.60772
2.60261
2.59631
2.58937
2.58243
2.57322
2.56087
2.547
2.53559
2.53006
2.52749
2.5236
2.51527
2.50127
2.48618
2.47594
2.46945
2.46495
2.46169
2.45813
2.45174
2.43993
2.42158
2.40453
2.3993
2.39687
2.39401
2.39044
2.38629
2.382
2.37782
2.37306
2.36389
2.34586
2.32551
2.31435
2.31157
2.30949
2.30705
2.3035
2.29908
2.29347
2.28558
2.27535
2.26616
2.25897
2.25279
2.24755
2.24332
2.24002
2.23702
2.23055
2.21752
2.20124
2.19127
2.18665
2.18384
2.18135
2.17886
2.17613
2.17291
2.16875
2.16269
2.15255
2.13684
2.11821
2.1065
2.10202
2.09884
2.09567
2.09294
2.09015
2.08651
2.08026
2.07196
2.06746
2.06582
2.06438
2.06241
2.05967
2.05587
2.0497
2.03917
2.02588
2.01497
2.00833
2.00419
2.00115
1.99731
1.99153
1.9845
1.97685
1.96871
1.96083
1.95544
1.95269
1.94959
1.94515
1.93996
1.93353
1.92908
1.92697
1.92464
1.92093
1.91352
1.90229
1.89148
1.88396
1.88042
1.87812
1.87598
1.87437
1.873
1.87038
1.86506
1.85483
1.84004
1.83103
1.82899
1.82773
1.82663
1.82566
1.82396
1.82179
1.81915
1.81548
1.81066
1.80424
1.79471
1.78214
1.77127
1.76453
1.75892
1.75579
1.75425
1.75315
1.75297
1.75305
1.75153
1.74973
1.74728
1.74337
1.73775
1.7309
1.72298
1.7135
1.704
1.69693
1.6935
1.69151
1.68974
1.68834
1.68739
1.68769
1.68835
1.68786
1.68705
1.68515
1.68022
1.66903
1.65007
1.63251
1.62754
1.62625
1.62505
1.6241
1.62367
1.62495
1.62645
1.62501
1.62327
1.62151
1.61935
1.61595
1.60805
1.59646
1.5878
1.58468
1.58755
1.60481
1.64939
1.75605
1.90226
2.05675
2.19698
2.31111
2.39663
2.44836
2.46233
2.46945
2.46918
2.45788
2.45857
2.46266
2.46579
2.47021
2.4754
2.47896
2.4795
2.47849
2.47721
2.47537
2.47258
2.46718
2.45911
2.4492
2.43979
2.43259
2.42877
2.42824
2.42946
2.43219
2.43487
2.43812
2.44365
2.44888
2.44908
2.44679
2.44134
2.4329
2.42326
2.4145
2.40855
2.40747
2.40818
2.41042
2.41201
2.41231
2.41236
2.41101
2.40708
2.40421
2.40318
2.40311
2.40449
2.40462
2.80168
2.7827
2.76994
2.76195
2.75311
2.7407
2.73069
2.72645
2.7238
2.72327
2.72084
2.71664
2.71057
2.70148
2.68632
2.66767
2.65135
2.6366
2.63067
2.62757
2.62508
2.62226
2.61803
2.61268
2.60546
2.59461
2.57974
2.56476
2.55301
2.54307
2.53657
2.53239
2.52824
2.52458
2.52093
2.51437
2.50245
2.48988
2.48085
2.4733
2.46512
2.45621
2.44715
2.43334
2.41629
2.4082
2.40538
2.40375
2.40254
2.39947
2.3954
2.39037
2.38423
2.37509
2.3595
2.33963
2.32498
2.32048
2.31793
2.31569
2.31236
2.30829
2.30379
2.29812
2.28958
2.277
2.26409
2.25665
2.25201
2.24795
2.24431
2.24116
2.23798
2.23499
2.2301
2.21717
2.19858
2.18761
2.1821
2.17825
2.17487
2.17144
2.16751
2.16265
2.15705
2.15184
2.14616
2.13627
2.11929
2.10355
2.09545
2.09113
2.08738
2.08387
2.08062
2.07623
2.07034
2.06768
2.06655
2.06678
2.0666
2.06445
2.06144
2.05604
2.04421
2.02576
2.01311
2.00789
2.0046
2.0013
1.99785
1.9946
1.9908
1.98529
1.9769
1.96669
1.95791
1.9522
1.94834
1.94336
1.93801
1.93548
1.93414
1.93288
1.93073
1.9273
1.9208
1.90851
1.89347
1.88465
1.88184
1.87983
1.87764
1.87517
1.87234
1.86869
1.86384
1.85723
1.84786
1.83719
1.83241
1.83068
1.82905
1.82708
1.8249
1.82293
1.82119
1.8188
1.81558
1.8102
1.80036
1.78498
1.7701
1.76255
1.75988
1.75802
1.75668
1.75625
1.75723
1.75674
1.75535
1.75374
1.75149
1.74816
1.74311
1.73568
1.72492
1.71113
1.69992
1.69618
1.69504
1.69382
1.69275
1.692
1.69207
1.69276
1.6915
1.68877
1.6852
1.68136
1.67737
1.67104
1.65845
1.64207
1.62977
1.62482
1.62318
1.62203
1.62119
1.62118
1.62308
1.62274
1.62089
1.61878
1.61635
1.6129
1.60771
1.59919
1.58939
1.58245
1.57893
1.57873
1.58025
1.59056
1.6206
1.68479
1.81378
1.95866
2.10787
2.23358
2.33487
2.40547
2.44378
2.45346
2.46472
2.46723
2.46299
2.46281
2.462
2.45972
2.45844
2.46019
2.46546
2.46933
2.46928
2.46694
2.46167
2.45398
2.44319
2.43101
2.42235
2.41745
2.41619
2.41716
2.42036
2.4255
2.43324
2.44105
2.44241
2.4406
2.43614
2.42895
2.42056
2.41309
2.40691
2.4027
2.40266
2.40456
2.40655
2.40726
2.40731
2.40618
2.40248
2.39913
2.39723
2.39578
2.39543
2.39595
2.82166
2.80071
2.77829
2.76279
2.75186
2.74256
2.73819
2.7344
2.73045
2.72683
2.72478
2.72315
2.71948
2.7109
2.68992
2.66242
2.64724
2.64289
2.63969
2.63732
2.636
2.63319
2.62898
2.62328
2.61542
2.59972
2.57683
2.55929
2.54862
2.54355
2.54022
2.53707
2.53381
2.53028
2.52606
2.52107
2.51405
2.50335
2.49156
2.48203
2.47292
2.46121
2.44564
2.43024
2.41945
2.41562
2.41193
2.4084
2.40549
2.40385
2.40156
2.39786
2.39166
2.37833
2.35503
2.33515
2.32977
2.32787
2.32615
2.32301
2.31889
2.31423
2.30886
2.30243
2.29303
2.27833
2.26208
2.25465
2.25242
2.25178
2.25114
2.24898
2.24666
2.24374
2.23912
2.22889
2.21151
2.19442
2.18534
2.17999
2.17568
2.17172
2.16745
2.16246
2.15718
2.15387
2.15096
2.14563
2.13327
2.11221
2.09741
2.09136
2.08722
2.08261
2.07773
2.07467
2.07272
2.07102
2.07009
2.0713
2.07093
2.06856
2.06559
2.05968
2.04422
2.02307
2.01263
2.00926
2.00671
2.00447
2.00311
2.00144
1.99836
1.99345
1.98448
1.96982
1.95601
1.94862
1.94438
1.94176
1.94038
1.93931
1.93836
1.93773
1.93588
1.93335
1.92814
1.9138
1.89493
1.88853
1.88639
1.88402
1.88138
1.8782
1.87416
1.86984
1.86552
1.86042
1.85312
1.84322
1.8361
1.83319
1.83143
1.82991
1.82836
1.82657
1.82444
1.82147
1.8173
1.81106
1.80071
1.78431
1.77007
1.76533
1.76292
1.76062
1.75895
1.75795
1.75799
1.76003
1.76002
1.75827
1.75576
1.75172
1.7444
1.7326
1.71884
1.70835
1.70174
1.69836
1.69657
1.69531
1.69443
1.69521
1.69933
1.69914
1.69668
1.69311
1.68843
1.68157
1.67371
1.66729
1.66126
1.65124
1.63741
1.627
1.6236
1.62227
1.62142
1.62108
1.622
1.62284
1.62119
1.6189
1.61636
1.613
1.60868
1.60314
1.59482
1.58548
1.57906
1.5753
1.57319
1.57242
1.57272
1.57655
1.59433
1.63336
1.72015
1.86926
2.02927
2.16185
2.27521
2.36198
2.41898
2.45313
2.46404
2.46944
2.4679
2.4609
2.45054
2.44267
2.44204
2.44321
2.44781
2.45349
2.45552
2.45421
2.4493
2.44073
2.42929
2.4177
2.41043
2.40749
2.40715
2.40886
2.41443
2.4234
2.43128
2.43354
2.43209
2.42794
2.42217
2.41503
2.40748
2.40043
2.3955
2.39516
2.39683
2.39953
2.40031
2.40003
2.39777
2.39589
2.39409
2.39149
2.38978
2.38904
2.83672
2.82095
2.79247
2.76483
2.75174
2.74701
2.74361
2.74124
2.73864
2.73522
2.73076
2.72545
2.71844
2.70663
2.68571
2.66306
2.65432
2.65061
2.64751
2.64596
2.64344
2.63873
2.63413
2.62964
2.61743
2.59552
2.57317
2.55926
2.55314
2.54862
2.54433
2.54042
2.53664
2.53391
2.53217
2.52921
2.52496
2.51792
2.50654
2.49183
2.47615
2.4583
2.43859
2.42702
2.42394
2.42143
2.41875
2.41633
2.414
2.41043
2.40558
2.39848
2.38779
2.37042
2.3516
2.34092
2.33708
2.33383
2.33127
2.32882
2.32586
2.32241
2.31774
2.31005
2.29693
2.27731
2.26262
2.25769
2.25481
2.25112
2.24735
2.24457
2.24169
2.23837
2.23453
2.23038
2.22289
2.20998
2.19633
2.18789
2.18208
2.17685
2.17146
2.1655
2.16051
2.15686
2.15347
2.1493
2.14184
2.1281
2.10861
2.09392
2.08605
2.08114
2.07793
2.0756
2.07408
2.07495
2.08027
2.08092
2.07825
2.07542
2.07203
2.06432
2.04445
2.0215
2.01421
2.01216
2.01062
2.00921
2.00803
2.00653
2.00386
1.99979
1.9911
1.97354
1.95615
1.94847
1.9457
1.94396
1.94251
1.94218
1.94497
1.94475
1.94237
1.93891
1.9326
1.92031
1.90403
1.89147
1.88442
1.88063
1.87845
1.87643
1.87414
1.87084
1.86707
1.86274
1.85702
1.85038
1.84326
1.83715
1.83336
1.83061
1.82834
1.82627
1.8244
1.8226
1.82012
1.81516
1.80451
1.78537
1.77071
1.76724
1.76543
1.76374
1.76238
1.76152
1.76164
1.76421
1.7638
1.76153
1.75889
1.75534
1.74797
1.73151
1.71391
1.70674
1.70446
1.70189
1.69998
1.69906
1.69888
1.70022
1.69966
1.69756
1.6951
1.69163
1.68634
1.67882
1.66979
1.66267
1.65872
1.65519
1.64816
1.63755
1.62819
1.6248
1.62346
1.62266
1.62212
1.6225
1.62417
1.62293
1.62041
1.61728
1.61355
1.60865
1.60103
1.59105
1.58086
1.57496
1.57221
1.57001
1.56694
1.5647
1.56436
1.56576
1.57371
1.60264
1.66315
1.7866
1.94804
2.10676
2.21646
2.31759
2.39239
2.4396
2.46074
2.46465
2.46184
2.45105
2.43912
2.43
2.42626
2.42622
2.43145
2.43959
2.44336
2.44211
2.43608
2.42592
2.4148
2.40616
2.40309
2.40315
2.40415
2.40646
2.4112
2.41829
2.42402
2.42571
2.42362
2.41827
2.41162
2.40268
2.39402
2.38929
2.38857
2.38952
2.39056
2.39042
2.39029
2.39057
2.39049
2.38864
2.38701
2.38572
2.8476
2.83608
2.80923
2.77589
2.76078
2.75374
2.74819
2.7438
2.74181
2.74264
2.73926
2.73274
2.72188
2.70266
2.68152
2.67035
2.66549
2.66171
2.65971
2.65786
2.65397
2.64924
2.6417
2.62803
2.61019
2.59104
2.57502
2.56625
2.55914
2.55379
2.55049
2.54743
2.54392
2.53937
2.53483
2.53094
2.52725
2.52296
2.51603
2.50266
2.48217
2.45853
2.43916
2.43153
2.42735
2.42346
2.421
2.42197
2.42126
2.41725
2.41184
2.4028
2.38629
2.36428
2.3512
2.34849
2.34601
2.34359
2.34094
2.33726
2.33246
2.32655
2.31821
2.3065
2.29243
2.27905
2.26951
2.26202
2.25589
2.25129
2.24767
2.24448
2.24137
2.23817
2.23505
2.23232
2.22922
2.22286
2.20933
2.1927
2.18102
2.17334
2.16745
2.16257
2.15874
2.15538
2.15193
2.14845
2.14507
2.13902
2.12343
2.09898
2.08584
2.08236
2.08026
2.0782
2.07653
2.07627
2.07791
2.07677
2.074
2.07102
2.06712
2.05961
2.04452
2.02757