/*--------------------------------*- C++ -*----------------------------------*\
  =========                 |
  \\      /  F ield         | OpenFOAM: The Open Source CFD Toolbox
   \\    /   O peration     | Website:  https://openfoam.org
    \\  /    A nd           | Version:  7
     \\/     M anipulation  |
\*---------------------------------------------------------------------------*/
FoamFile
{
    version     2.0;
    format      ascii;
    class       volVectorField;
    location    "2.2";
    object      U;
}
// * * * * * * * * * * * * * * * * * * * * * * * * * * * * * * * * * * * * * //

dimensions      [0 1 -1 0 0 0 0];

internalField   nonuniform List<vector> 
16192
(
(3 2.16113e-15 0)
(3 3.26406e-15 0)
(3 3.05105e-15 0)
(3 2.7707e-15 0)
(3 2.44037e-15 0)
(3 2.87524e-15 0)
(3 3.95581e-15 0)
(3 3.84681e-15 0)
(3 1.87618e-15 0)
(3 1.37057e-15 0)
(3 1.22321e-15 0)
(3 9.37729e-16 0)
(3 4.25085e-16 0)
(3 1.08897e-16 0)
(3 -6.10465e-16 0)
(3 -1.34086e-15 0)
(3 -1.22152e-15 0)
(3 -1.09187e-15 0)
(3 -7.78628e-16 0)
(3 1.18224e-15 0)
(3 2.57435e-15 0)
(3 2.7941e-15 0)
(3 2.57781e-15 0)
(3 2.45252e-15 0)
(3 2.40504e-15 0)
(3 2.159e-15 0)
(3 1.90315e-15 0)
(3 6.82303e-16 0)
(3 -6.94827e-16 0)
(3 -2.08863e-15 0)
(3 -4.04517e-15 0)
(3 -4.66174e-15 0)
(3 -4.96492e-15 0)
(3 -3.28324e-15 0)
(3 9.22912e-16 0)
(3 1.85315e-15 0)
(3 1.4459e-15 0)
(3 1.99276e-16 0)
(3 -5.05195e-16 0)
(3 -6.41474e-16 0)
(3 -4.03528e-16 0)
(3 2.10363e-16 0)
(3 8.1351e-16 0)
(3 9.48401e-16 0)
(3 9.72061e-16 0)
(3 1.13616e-15 0)
(3 1.11577e-15 0)
(3 3.84009e-16 0)
(3 -8.33918e-16 0)
(3 -1.25857e-15 0)
(3 -2.3213e-15 0)
(3 -2.39632e-15 0)
(3 -1.28212e-16 0)
(3 6.36198e-16 0)
(3 7.57347e-16 0)
(3 7.68587e-17 0)
(3 -1.6051e-16 0)
(3 1.28893e-17 0)
(3 -2.52627e-16 0)
(3 -1.27424e-15 0)
(3 -1.62973e-15 0)
(3 -1.75746e-15 0)
(3 -2.69926e-15 0)
(3 -2.88036e-15 0)
(3 -3.70178e-18 0)
(3 2.23366e-16 0)
(3 4.96352e-16 0)
(3 5.27812e-16 0)
(3 2.47332e-16 0)
(3 -1.89428e-16 0)
(3 -1.82753e-16 0)
(3 4.60566e-16 0)
(3 9.27948e-16 0)
(3 3.84019e-16 0)
(3 -1.14963e-16 0)
(3 -2.00645e-16 0)
(3 -7.60253e-16 0)
(3 -7.07173e-16 0)
(3 -8.97187e-16 0)
(3 -6.82156e-16 0)
(3 -8.44103e-16 0)
(3 -1.02154e-15 0)
(3 -8.62074e-16 0)
(3 -1.67539e-15 0)
(3 -8.99756e-16 0)
(3 -3.12366e-16 0)
(3 -1.03904e-15 0)
(3 -1.18784e-15 0)
(3 -7.71968e-16 0)
(3 -3.6536e-16 0)
(3 2.57525e-16 0)
(3 1.22513e-16 0)
(3 -5.01919e-16 0)
(3 -9.98654e-16 0)
(3 -5.79089e-16 0)
(3 -2.01519e-16 0)
(3 -6.99667e-17 0)
(3 -7.78988e-17 0)
(3 4.08786e-16 0)
(3 7.1023e-16 0)
(3 1.15414e-15 0)
(3 1.24013e-15 0)
(3 1.17341e-15 0)
(3 9.48712e-16 0)
(3 1.16302e-15 0)
(3 1.1683e-15 0)
(3 9.98297e-16 0)
(3 8.67585e-16 0)
(3 9.73612e-16 0)
(3 9.87023e-16 0)
(3 6.94048e-16 0)
(3 -5.3647e-17 0)
(3 2.02431e-17 0)
(3 8.31858e-17 0)
(3 3.63453e-16 0)
(3 8.42318e-16 0)
(3 7.05468e-16 0)
(3 -5.20959e-16 0)
(3 -5.15526e-16 0)
(3 5.21444e-16 0)
(3 1.13748e-15 0)
(3 1.5318e-15 0)
(3 5.45192e-16 0)
(3 4.50755e-16 0)
(3 1.03992e-15 0)
(3 7.26263e-16 0)
(3 5.76921e-16 0)
(3 -1.14689e-15 0)
(3 -2.20133e-15 0)
(3 -3.45153e-15 0)
(3 -3.59128e-15 0)
(3 -3.46316e-15 0)
(3 -2.37647e-15 0)
(3 -1.09795e-15 0)
(3 2.19808e-16 0)
(3 1.12835e-15 0)
(3 1.68544e-15 0)
(3 1.22987e-15 0)
(3 7.02493e-17 0)
(3 -2.17521e-15 0)
(3 -2.15437e-15 0)
(3 -2.40688e-15 0)
(3 -2.4324e-15 0)
(3 -2.52341e-15 0)
(3 -2.73961e-15 0)
(3 -2.75073e-15 0)
(3 -1.20806e-15 0)
(3 -1.34071e-17 0)
(3 8.05024e-16 0)
(3 9.9582e-16 0)
(3 1.08337e-15 0)
(3 4.91995e-16 0)
(3 2.94478e-16 0)
(3 2.12961e-16 0)
(3 3.76057e-16 0)
(3 9.17245e-16 0)
(3 1.58867e-15 0)
(3 1.83854e-15 0)
(3 1.84587e-15 0)
(3 1.12095e-15 0)
(3 -6.65533e-16 0)
(3 -8.35844e-16 0)
(3 -2.55206e-16 0)
(3 4.60436e-16 0)
(3 -4.58541e-16 0)
(3 -1.35421e-15 0)
(3 -1.01707e-15 0)
(3 -6.63233e-16 0)
(3 -7.36078e-16 0)
(3 7.0134e-17 0)
(3 6.32788e-17 0)
(3 -7.05088e-16 0)
(3 -1.38815e-15 0)
(3 -2.13779e-15 0)
(3 -1.88994e-15 0)
(3 -5.78952e-16 0)
(3 -2.79368e-16 0)
(3 -3.46861e-17 0)
(3 -9.52657e-17 0)
(3 -4.65313e-17 0)
(3 -1.5457e-16 0)
(3 -1.83863e-16 0)
(3 -4.78515e-16 0)
(3 -1.59459e-15 0)
(3 -1.85549e-15 0)
(3 -1.06106e-15 0)
(3 -3.50293e-16 0)
(3 -3.31315e-16 0)
(3 -6.58835e-16 0)
(3 1.89121e-15 0)
(3 1.75949e-15 0)
(3 2.14707e-15 0)
(3 2.00016e-15 0)
(3 2.14364e-15 0)
(3 2.59861e-15 0)
(3 3.28889e-15 0)
(3 3.04328e-15 0)
(3 3.62899e-15 0)
(3 4.4823e-15 0)
(3 3.50733e-15 0)
(3 2.31387e-15 0)
(3 1.32048e-15 0)
(3 9.25603e-16 0)
(3 8.51956e-16 0)
(3 -2.1228e-16 0)
(3 -5.39665e-16 0)
(3 -8.02402e-16 0)
(3 -1.00219e-15 0)
(3 -7.14259e-16 0)
(3 3.56802e-17 0)
(3 4.59098e-16 0)
(3 2.57925e-15 0)
(3 3.0685e-15 0)
(3 3.04241e-15 0)
(3 2.29232e-15 0)
(3 1.55566e-15 0)
(3 1.4393e-15 0)
(3 2.20507e-15 0)
(3 3.0893e-15 0)
(3 1.74535e-15 0)
(3 2.53166e-16 0)
(3 -2.74405e-15 0)
(3 -4.17431e-15 0)
(3 -5.28596e-15 0)
(3 -3.06863e-15 0)
(3 -1.03837e-15 0)
(3 6.12716e-16 0)
(3 6.71151e-16 0)
(3 4.79343e-16 0)
(3 5.88986e-17 0)
(3 5.12177e-16 0)
(3 4.33629e-16 0)
(3 1.64174e-15 0)
(3 1.92681e-15 0)
(3 2.32745e-15 0)
(3 1.01192e-15 0)
(3 7.96231e-16 0)
(3 5.16433e-16 0)
(3 -1.51874e-16 0)
(3 -8.08368e-16 0)
(3 -1.27445e-15 0)
(3 -2.44331e-15 0)
(3 -2.36151e-15 0)
(3 -2.11259e-15 0)
(3 -1.3618e-15 0)
(3 -2.72041e-16 0)
(3 3.16619e-17 0)
(3 -8.53388e-16 0)
(3 -9.84797e-16 0)
(3 -5.2996e-16 0)
(3 -6.00247e-16 0)
(3 -6.09122e-16 0)
(3 7.14148e-17 0)
(3 -4.1479e-16 0)
(3 -1.57435e-15 0)
(3 -2.35159e-15 0)
(3 2.56615e-16 0)
(3 6.87092e-16 0)
(3 2.61384e-16 0)
(3 1.01089e-16 0)
(3 -1.48738e-17 0)
(3 2.61159e-16 0)
(3 6.67566e-16 0)
(3 5.20852e-16 0)
(3 7.54037e-16 0)
(3 1.09153e-15 0)
(3 1.01286e-15 0)
(3 -6.14097e-17 0)
(3 -1.6786e-16 0)
(3 -1.65029e-16 0)
(3 1.71881e-17 0)
(3 -7.96639e-16 0)
(3 -1.49947e-15 0)
(3 -1.47e-15 0)
(3 -1.58549e-15 0)
(3 -1.33859e-15 0)
(3 -2.08883e-16 0)
(3 -2.57716e-16 0)
(3 -8.74876e-16 0)
(3 -6.289e-16 0)
(3 -4.47826e-16 0)
(3 1.93921e-16 0)
(3 1.00428e-15 0)
(3 1.95206e-15 0)
(3 4.52754e-16 0)
(3 -4.7895e-16 0)
(3 -8.35928e-16 0)
(3 -9.30472e-16 0)
(3 -2.78163e-16 0)
(3 4.79908e-16 0)
(3 8.62771e-16 0)
(3 6.35435e-16 0)
(3 4.90836e-16 0)
(3 3.92901e-16 0)
(3 5.64188e-16 0)
(3 8.1728e-16 0)
(3 5.7632e-16 0)
(3 1.02588e-15 0)
(3 1.5869e-15 0)
(3 1.76884e-15 0)
(3 1.57359e-15 0)
(3 1.35671e-15 0)
(3 1.08548e-15 0)
(3 1.31374e-15 0)
(3 1.67481e-15 0)
(3 1.40544e-15 0)
(3 5.01172e-16 0)
(3 -6.61013e-17 0)
(3 -1.02937e-15 0)
(3 -8.47421e-16 0)
(3 -2.05244e-16 0)
(3 1.13065e-16 0)
(3 2.65641e-16 0)
(3 -2.05992e-16 0)
(3 1.38561e-15 0)
(3 1.5801e-15 0)
(3 5.35155e-16 0)
(3 1.66854e-16 0)
(3 2.56618e-17 0)
(3 -1.972e-15 0)
(3 -2.65134e-15 0)
(3 -3.25904e-15 0)
(3 -3.21979e-15 0)
(3 -3.2125e-15 0)
(3 -3.32258e-15 0)
(3 -1.53888e-15 0)
(3 -8.89115e-16 0)
(3 1.19312e-17 0)
(3 -1.64144e-16 0)
(3 -1.06928e-15 0)
(3 -1.02177e-15 0)
(3 -1.48564e-15 0)
(3 -2.68619e-15 0)
(3 -4.25257e-15 0)
(3 -5.25224e-15 0)
(3 -5.47914e-15 0)
(3 -4.31233e-15 0)
(3 -3.81535e-15 0)
(3 -1.39094e-15 0)
(3 -2.52889e-16 0)
(3 -3.00324e-16 0)
(3 -7.12864e-16 0)
(3 -6.14547e-16 0)
(3 -5.86582e-16 0)
(3 -2.80444e-16 0)
(3 3.54767e-16 0)
(3 9.54034e-16 0)
(3 1.24241e-15 0)
(3 1.67422e-15 0)
(3 1.72035e-15 0)
(3 1.85373e-15 0)
(3 1.18671e-15 0)
(3 4.13833e-16 0)
(3 2.79989e-16 0)
(3 1.34668e-15 0)
(3 2.55942e-15 0)
(3 1.16091e-15 0)
(3 -3.63827e-16 0)
(3 -1.17844e-15 0)
(3 -2.45883e-16 0)
(3 2.77296e-16 0)
(3 6.0696e-16 0)
(3 7.55225e-16 0)
(3 7.15175e-16 0)
(3 -1.22926e-16 0)
(3 -4.84397e-16 0)
(3 -1.63265e-15 0)
(3 -1.51857e-15 0)
(3 -1.39108e-15 0)
(3 -1.46409e-15 0)
(3 -1.40006e-15 0)
(3 -1.93341e-16 0)
(3 7.44661e-16 0)
(3 8.05595e-16 0)
(3 7.40184e-16 0)
(3 4.67571e-16 0)
(3 -2.95515e-16 0)
(3 -9.4251e-16 0)
(3 -1.02456e-15 0)
(3 -1.15306e-15 0)
(3 -9.12109e-16 0)
(3 1.55913e-15 0)
(3 2.83362e-15 0)
(3 3.67385e-15 0)
(3 3.29359e-15 0)
(3 2.88242e-15 0)
(3 3.09897e-15 0)
(3 3.27976e-15 0)
(3 3.65268e-15 0)
(3 4.09286e-15 0)
(3 3.96001e-15 0)
(3 3.62038e-15 0)
(3 2.12338e-15 0)
(3 1.09949e-15 0)
(3 9.44103e-16 0)
(3 6.10631e-16 0)
(3 5.34336e-16 0)
(3 2.21548e-16 0)
(3 4.2436e-16 0)
(3 2.67113e-16 0)
(3 3.64654e-16 0)
(3 7.85372e-16 0)
(3 1.69589e-15 0)
(3 2.25196e-15 0)
(3 2.55245e-15 0)
(3 2.92407e-15 0)
(3 2.95698e-15 0)
(3 2.3768e-15 0)
(3 1.79501e-15 0)
(3 2.23105e-15 0)
(3 2.81817e-15 0)
(3 1.83498e-15 0)
(3 -1.00175e-15 0)
(3 -2.38677e-15 0)
(3 -2.50532e-15 0)
(3 -2.19344e-15 0)
(3 4.08611e-16 0)
(3 1.99422e-15 0)
(3 1.21346e-15 0)
(3 6.44459e-16 0)
(3 -2.80106e-19 0)
(3 1.52675e-16 0)
(3 8.08335e-16 0)
(3 1.19292e-15 0)
(3 2.92882e-15 0)
(3 3.64923e-15 0)
(3 3.64066e-15 0)
(3 1.554e-15 0)
(3 -1.83527e-16 0)
(3 -5.35324e-16 0)
(3 -5.75692e-16 0)
(3 -6.06783e-16 0)
(3 -1.58892e-15 0)
(3 -2.37316e-15 0)
(3 -2.3753e-15 0)
(3 -2.6949e-15 0)
(3 -3.12334e-15 0)
(3 -2.38999e-15 0)
(3 -2.13233e-15 0)
(3 -1.9658e-15 0)
(3 -2.05404e-15 0)
(3 -1.70168e-15 0)
(3 -1.05863e-15 0)
(3 -4.47206e-16 0)
(3 3.34462e-16 0)
(3 -2.59248e-16 0)
(3 -9.94054e-16 0)
(3 -1.99947e-15 0)
(3 -1.39449e-16 0)
(3 -1.99963e-16 0)
(3 -2.69742e-16 0)
(3 -4.45138e-16 0)
(3 -3.08684e-16 0)
(3 -7.0011e-17 0)
(3 -4.06989e-17 0)
(3 -5.12519e-16 0)
(3 -3.07711e-16 0)
(3 1.65902e-16 0)
(3 8.83708e-16 0)
(3 1.03955e-15 0)
(3 1.19595e-15 0)
(3 1.1336e-15 0)
(3 2.7908e-17 0)
(3 -7.17415e-16 0)
(3 -1.06825e-15 0)
(3 -7.15985e-16 0)
(3 -3.43954e-16 0)
(3 -5.87995e-16 0)
(3 -1.94725e-16 0)
(3 -4.87651e-16 0)
(3 -8.1225e-16 0)
(3 -3.56623e-16 0)
(3 1.59303e-15 0)
(3 1.86393e-15 0)
(3 2.09222e-15 0)
(3 1.90084e-15 0)
(3 1.85069e-15 0)
(3 1.07726e-15 0)
(3 2.36643e-16 0)
(3 -1.008e-15 0)
(3 -9.60432e-16 0)
(3 -5.32626e-16 0)
(3 5.88063e-17 0)
(3 6.58469e-16 0)
(3 4.86177e-16 0)
(3 7.69182e-17 0)
(3 9.01033e-17 0)
(3 -2.24014e-16 0)
(3 -2.22382e-16 0)
(3 1.108e-15 0)
(3 1.33903e-15 0)
(3 1.34364e-15 0)
(3 1.05425e-15 0)
(3 8.60348e-16 0)
(3 8.33283e-16 0)
(3 1.18807e-15 0)
(3 9.61435e-16 0)
(3 7.04186e-16 0)
(3 4.62331e-16 0)
(3 3.00273e-17 0)
(3 -3.08181e-16 0)
(3 -9.56484e-16 0)
(3 -1.43751e-16 0)
(3 8.10883e-16 0)
(3 5.36599e-16 0)
(3 3.77479e-16 0)
(3 8.38343e-16 0)
(3 1.14951e-15 0)
(3 9.61323e-16 0)
(3 1.61394e-15 0)
(3 7.31369e-16 0)
(3 -7.17047e-16 0)
(3 -1.60511e-15 0)
(3 -2.24677e-15 0)
(3 -2.29319e-15 0)
(3 -2.64203e-15 0)
(3 -2.15689e-15 0)
(3 -6.90735e-16 0)
(3 6.17849e-16 0)
(3 1.13803e-16 0)
(3 -1.23969e-15 0)
(3 -2.43197e-15 0)
(3 -2.36306e-15 0)
(3 -2.33521e-15 0)
(3 -3.25149e-15 0)
(3 -3.90114e-15 0)
(3 -4.5982e-15 0)
(3 -5.24976e-15 0)
(3 -4.86955e-15 0)
(3 -3.59879e-15 0)
(3 -2.14587e-15 0)
(3 -1.80036e-15 0)
(3 -2.00151e-15 0)
(3 -2.73021e-15 0)
(3 -3.17443e-15 0)
(3 -2.94407e-15 0)
(3 -1.48259e-15 0)
(3 -7.71981e-16 0)
(3 -3.14532e-16 0)
(3 2.85365e-16 0)
(3 1.84253e-15 0)
(3 2.40979e-15 0)
(3 1.92849e-15 0)
(3 1.27484e-15 0)
(3 9.31722e-16 0)
(3 2.88435e-16 0)
(3 6.21745e-16 0)
(3 1.04765e-15 0)
(3 4.86649e-16 0)
(3 -4.72488e-17 0)
(3 -1.60424e-15 0)
(3 -1.02965e-15 0)
(3 -2.36526e-16 0)
(3 -1.57131e-16 0)
(3 -6.91702e-17 0)
(3 -6.02939e-16 0)
(3 -1.08799e-15 0)
(3 -9.11557e-16 0)
(3 -6.7665e-16 0)
(3 -1.0938e-15 0)
(3 -1.744e-15 0)
(3 -2.30519e-15 0)
(3 -2.38111e-15 0)
(3 -7.63049e-16 0)
(3 -3.0131e-16 0)
(3 3.75076e-16 0)
(3 1.09092e-15 0)
(3 9.39968e-16 0)
(3 5.35904e-16 0)
(3 -6.55571e-16 0)
(3 -3.08177e-15 0)
(3 -3.18914e-15 0)
(3 -1.63916e-15 0)
(3 1.05401e-15 0)
(3 3.16967e-15 0)
(3 3.81777e-15 0)
(3 3.68258e-15 0)
(3 3.86465e-15 0)
(3 3.63418e-15 0)
(3 3.60596e-15 0)
(3 3.78473e-15 0)
(3 3.58314e-15 0)
(3 3.06844e-15 0)
(3 2.43264e-15 0)
(3 1.8108e-15 0)
(3 1.70023e-15 0)
(3 1.37341e-15 0)
(3 1.1037e-15 0)
(3 1.33101e-15 0)
(3 1.2282e-15 0)
(3 9.67085e-16 0)
(3 1.12157e-15 0)
(3 1.57261e-15 0)
(3 1.51346e-15 0)
(3 1.09612e-15 0)
(3 9.91442e-16 0)
(3 1.70787e-15 0)
(3 1.53852e-15 0)
(3 2.5671e-15 0)
(3 3.08086e-15 0)
(3 2.97154e-15 0)
(3 3.01539e-15 0)
(3 1.98051e-15 0)
(3 4.54896e-17 0)
(3 -5.00741e-16 0)
(3 -4.36253e-16 0)
(3 -7.48295e-17 0)
(3 2.44218e-15 0)
(3 2.01632e-15 0)
(3 6.5211e-16 0)
(3 3.61261e-16 0)
(3 5.31133e-16 0)
(3 5.57527e-16 0)
(3 4.60584e-16 0)
(3 1.8105e-15 0)
(3 2.22843e-15 0)
(3 2.25815e-15 0)
(3 2.61219e-15 0)
(3 2.40824e-15 0)
(3 2.35174e-15 0)
(3 1.50993e-15 0)
(3 3.63853e-16 0)
(3 -6.01391e-16 0)
(3 -1.10066e-15 0)
(3 -2.16539e-15 0)
(3 -1.65646e-15 0)
(3 -2.56716e-15 0)
(3 -3.30428e-15 0)
(3 -4.07303e-15 0)
(3 -3.73564e-15 0)
(3 -3.37448e-15 0)
(3 -2.70022e-15 0)
(3 -2.63337e-15 0)
(3 -2.72567e-15 0)
(3 -2.5868e-15 0)
(3 -1.3691e-15 0)
(3 -1.3234e-15 0)
(3 -1.2702e-15 0)
(3 -1.27256e-15 0)
(3 -1.19785e-15 0)
(3 -6.52529e-18 0)
(3 -9.67558e-17 0)
(3 -7.93118e-17 0)
(3 -8.42728e-17 0)
(3 -3.15951e-16 0)
(3 1.89642e-16 0)
(3 8.28329e-17 0)
(3 1.39354e-16 0)
(3 -4.09495e-16 0)
(3 -3.32993e-16 0)
(3 4.05029e-16 0)
(3 7.72396e-16 0)
(3 5.85506e-16 0)
(3 1.99344e-16 0)
(3 -6.11578e-17 0)
(3 -6.32817e-16 0)
(3 -8.30084e-16 0)
(3 -4.22223e-16 0)
(3 -1.22868e-18 0)
(3 -3.66013e-16 0)
(3 -2.53458e-16 0)
(3 6.63674e-16 0)
(3 3.03139e-16 0)
(3 9.71196e-16 0)
(3 1.74813e-15 0)
(3 1.6495e-15 0)
(3 1.26936e-15 0)
(3 6.95305e-16 0)
(3 2.00332e-15 0)
(3 1.09124e-15 0)
(3 -6.27021e-16 0)
(3 -1.1086e-15 0)
(3 -1.57993e-15 0)
(3 -9.22133e-16 0)
(3 1.02463e-15 0)
(3 1.48136e-15 0)
(3 1.21262e-15 0)
(3 8.8905e-16 0)
(3 2.50342e-16 0)
(3 5.02417e-16 0)
(3 3.18616e-16 0)
(3 4.80635e-16 0)
(3 2.56492e-16 0)
(3 3.86219e-16 0)
(3 4.50772e-16 0)
(3 3.77684e-16 0)
(3 1.19549e-15 0)
(3 1.38234e-15 0)
(3 1.20493e-15 0)
(3 6.40954e-16 0)
(3 -1.26932e-16 0)
(3 -3.40427e-16 0)
(3 -3.39395e-16 0)
(3 -5.15817e-16 0)
(3 -1.11375e-16 0)
(3 1.04474e-15 0)
(3 1.0218e-15 0)
(3 6.15556e-17 0)
(3 -5.60139e-16 0)
(3 5.88579e-16 0)
(3 1.37507e-15 0)
(3 1.99304e-15 0)
(3 1.39522e-15 0)
(3 3.27606e-16 0)
(3 -7.82768e-16 0)
(3 -7.63434e-16 0)
(3 -4.77029e-16 0)
(3 -2.21792e-16 0)
(3 2.02827e-16 0)
(3 2.40574e-16 0)
(3 1.20184e-15 0)
(3 4.60085e-16 0)
(3 -6.57267e-16 0)
(3 -4.7399e-16 0)
(3 -1.9769e-15 0)
(3 -3.24064e-15 0)
(3 -3.64787e-15 0)
(3 -2.90449e-15 0)
(3 -2.83383e-15 0)
(3 -2.90897e-15 0)
(3 -3.79992e-15 0)
(3 -3.86768e-15 0)
(3 -2.72568e-15 0)
(3 -2.35654e-15 0)
(3 -2.33641e-15 0)
(3 -2.24909e-15 0)
(3 -2.49182e-15 0)
(3 -1.87456e-15 0)
(3 -1.46357e-15 0)
(3 -9.92602e-16 0)
(3 -6.50841e-16 0)
(3 8.22161e-17 0)
(3 8.17586e-16 0)
(3 1.30583e-15 0)
(3 1.32908e-15 0)
(3 1.33358e-15 0)
(3 1.32547e-15 0)
(3 1.44336e-15 0)
(3 1.65161e-15 0)
(3 1.75501e-15 0)
(3 2.24352e-15 0)
(3 2.16316e-15 0)
(3 1.42411e-15 0)
(3 -2.33105e-16 0)
(3 -1.81236e-16 0)
(3 -6.99927e-16 0)
(3 -3.34506e-16 0)
(3 -8.66601e-16 0)
(3 -1.64029e-15 0)
(3 -1.34117e-15 0)
(3 -6.98656e-16 0)
(3 -2.24275e-15 0)
(3 -2.71596e-15 0)
(3 -2.83435e-15 0)
(3 -2.39301e-15 0)
(3 -1.52028e-15 0)
(3 -9.30574e-16 0)
(3 -2.06102e-16 0)
(3 9.99719e-16 0)
(3 6.58363e-16 0)
(3 -1.88141e-17 0)
(3 -7.24817e-16 0)
(3 -3.24616e-15 0)
(3 -3.65707e-15 0)
(3 -2.11461e-15 0)
(3 -5.59369e-16 0)
(3 -2.73177e-16 0)
(3 2.05514e-16 0)
(3 1.17417e-15 0)
(3 3.13344e-15 0)
(3 3.73914e-15 0)
(3 3.65548e-15 0)
(3 3.27571e-15 0)
(3 2.60175e-15 0)
(3 2.1368e-15 0)
(3 1.84773e-15 0)
(3 2.12021e-15 0)
(3 2.53052e-15 0)
(3 1.96435e-15 0)
(3 2.13288e-15 0)
(3 2.00584e-15 0)
(3 1.7028e-15 0)
(3 6.98617e-16 0)
(3 1.05708e-15 0)
(3 1.25351e-15 0)
(3 8.84031e-16 0)
(3 -2.13537e-16 0)
(3 2.12685e-16 0)
(3 6.44801e-16 0)
(3 7.74832e-16 0)
(3 1.14011e-15 0)
(3 1.19279e-15 0)
(3 1.24571e-15 0)
(3 8.16625e-16 0)
(3 5.80677e-16 0)
(3 4.33719e-16 0)
(3 1.27206e-16 0)
(3 4.96962e-16 0)
(3 2.45763e-15 0)
(3 5.70632e-15 0)
(3 3.36431e-15 0)
(3 1.31759e-15 0)
(3 1.41723e-15 0)
(3 1.67773e-15 0)
(3 1.18837e-15 0)
(3 1.30785e-15 0)
(3 2.19517e-15 0)
(3 1.55045e-15 0)
(3 9.5102e-16 0)
(3 1.01753e-15 0)
(3 1.6924e-15 0)
(3 2.18835e-15 0)
(3 2.10433e-15 0)
(3 6.63184e-16 0)
(3 -1.64952e-15 0)
(3 -2.06093e-15 0)
(3 -1.74838e-15 0)
(3 -9.09072e-16 0)
(3 -1.49282e-15 0)
(3 -4.23475e-15 0)
(3 -4.34827e-15 0)
(3 -4.26165e-15 0)
(3 -3.72558e-15 0)
(3 -3.29606e-15 0)
(3 -3.41012e-15 0)
(3 -3.86201e-15 0)
(3 -4.39961e-15 0)
(3 -4.11168e-15 0)
(3 -2.3466e-15 0)
(3 -1.68203e-15 0)
(3 -9.86467e-16 0)
(3 -9.59739e-16 0)
(3 -9.5007e-17 0)
(3 -1.58778e-16 0)
(3 -1.6396e-16 0)
(3 -3.2718e-16 0)
(3 -3.88499e-17 0)
(3 3.81048e-16 0)
(3 7.04768e-16 0)
(3 7.84971e-16 0)
(3 3.66717e-16 0)
(3 -1.7424e-16 0)
(3 -9.42442e-16 0)
(3 1.04347e-16 0)
(3 6.28879e-16 0)
(3 4.15982e-16 0)
(3 1.64299e-16 0)
(3 5.60954e-16 0)
(3 4.73132e-16 0)
(3 1.11512e-16 0)
(3 2.19305e-16 0)
(3 1.01836e-15 0)
(3 8.00342e-16 0)
(3 2.10723e-15 0)
(3 2.39675e-15 0)
(3 2.43086e-15 0)
(3 2.07661e-15 0)
(3 2.30924e-15 0)
(3 2.06277e-15 0)
(3 1.11516e-15 0)
(3 1.05122e-15 0)
(3 5.97483e-16 0)
(3 -6.10664e-16 0)
(3 -4.74482e-16 0)
(3 -5.12693e-16 0)
(3 1.04647e-15 0)
(3 1.48685e-15 0)
(3 1.05938e-15 0)
(3 9.50044e-16 0)
(3 1.30849e-15 0)
(3 1.42338e-15 0)
(3 2.34775e-15 0)
(3 2.72913e-15 0)
(3 1.18899e-15 0)
(3 1.45686e-15 0)
(3 1.76701e-15 0)
(3 1.54695e-15 0)
(3 1.31299e-15 0)
(3 8.25451e-16 0)
(3 2.5594e-16 0)
(3 1.53564e-16 0)
(3 -3.8592e-16 0)
(3 -1.26209e-15 0)
(3 -1.66558e-15 0)
(3 -7.1365e-16 0)
(3 8.79064e-17 0)
(3 -1.42642e-16 0)
(3 -5.97588e-16 0)
(3 -3.33093e-16 0)
(3 -8.60336e-16 0)
(3 -1.10666e-15 0)
(3 3.82488e-16 0)
(3 1.83537e-15 0)
(3 2.14478e-15 0)
(3 1.23528e-15 0)
(3 -6.22219e-16 0)
(3 -5.4439e-16 0)
(3 -2.93965e-16 0)
(3 9.09923e-16 0)
(3 2.07624e-15 0)
(3 2.38907e-15 0)
(3 1.626e-15 0)
(3 8.45652e-16 0)
(3 -3.51982e-16 0)
(3 -1.0705e-15 0)
(3 -8.93135e-16 0)
(3 -1.15948e-15 0)
(3 -1.26017e-15 0)
(3 -1.61826e-15 0)
(3 -1.52603e-15 0)
(3 -1.30876e-15 0)
(3 -9.38983e-16 0)
(3 -2.14091e-15 0)
(3 -2.36533e-15 0)
(3 -1.81762e-15 0)
(3 -2.44638e-15 0)
(3 -2.19572e-15 0)
(3 -2.09068e-15 0)
(3 -2.54049e-15 0)
(3 -2.78639e-15 0)
(3 -2.94285e-15 0)
(3 -1.9399e-15 0)
(3 -1.45456e-15 0)
(3 -1.3007e-15 0)
(3 2.65777e-16 0)
(3 5.38316e-16 0)
(3 8.10103e-16 0)
(3 2.01055e-15 0)
(3 2.64248e-15 0)
(3 4.06434e-15 0)
(3 3.93408e-15 0)
(3 3.89908e-15 0)
(3 4.08914e-15 0)
(3 3.53428e-15 0)
(3 2.43185e-15 0)
(3 2.02421e-15 0)
(3 2.6641e-15 0)
(3 2.45095e-15 0)
(3 8.90699e-16 0)
(3 1.45749e-15 0)
(3 9.28388e-16 0)
(3 -4.64301e-16 0)
(3 -7.74156e-16 0)
(3 -1.88097e-15 0)
(3 -1.64739e-15 0)
(3 -1.50229e-15 0)
(3 -1.86698e-15 0)
(3 -1.94796e-15 0)
(3 -1.6384e-15 0)
(3 -9.70125e-16 0)
(3 -5.85196e-16 0)
(3 -1.22656e-15 0)
(3 -1.15073e-15 0)
(3 -1.64768e-15 0)
(3 -1.88748e-15 0)
(3 -2.86288e-15 0)
(3 -2.26083e-15 0)
(3 -1.39456e-15 0)
(3 -1.12737e-15 0)
(3 -6.69966e-16 0)
(3 1.03929e-15 0)
(3 1.52105e-15 0)
(3 2.22702e-15 0)
(3 2.67549e-15 0)
(3 2.74565e-15 0)
(3 2.38267e-15 0)
(3 2.3528e-15 0)
(3 2.24148e-15 0)
(3 2.34982e-15 0)
(3 2.65749e-15 0)
(3 2.7145e-15 0)
(3 2.69329e-15 0)
(3 2.22549e-15 0)
(3 1.63423e-15 0)
(3 1.14704e-15 0)
(3 1.15023e-15 0)
(3 7.37991e-16 0)
(3 -8.29755e-16 0)
(3 -1.35035e-15 0)
(3 -1.40405e-16 0)
(3 7.49769e-16 0)
(3 1.12215e-15 0)
(3 1.1672e-15 0)
(3 1.32797e-15 0)
(3 4.74271e-16 0)
(3 -5.97013e-16 0)
(3 -2.77904e-16 0)
(3 5.93958e-16 0)
(3 1.24352e-15 0)
(3 2.03052e-15 0)
(3 5.30549e-15 0)
(3 7.55755e-15 0)
(3 5.39169e-15 0)
(3 3.74387e-15 0)
(3 3.32024e-15 0)
(3 3.38957e-15 0)
(3 3.21784e-15 0)
(3 3.0536e-15 0)
(3 2.47032e-15 0)
(3 1.74786e-15 0)
(3 1.82934e-15 0)
(3 1.6822e-15 0)
(3 2.24531e-15 0)
(3 2.63326e-15 0)
(3 1.39822e-15 0)
(3 -1.10248e-15 0)
(3 -3.62285e-15 0)
(3 -3.89708e-15 0)
(3 -2.61891e-15 0)
(3 -1.68569e-15 0)
(3 -1.85312e-15 0)
(3 -2.38333e-15 0)
(3 -2.88957e-15 0)
(3 -3.45748e-15 0)
(3 -3.46091e-15 0)
(3 -3.4713e-15 0)
(3 -3.6678e-15 0)
(3 -4.55755e-15 0)
(3 -5.14887e-15 0)
(3 -5.78837e-15 0)
(3 -4.41216e-15 0)
(3 -2.20593e-15 0)
(3 -1.33044e-15 0)
(3 -1.7258e-15 0)
(3 -1.87195e-16 0)
(3 -2.03004e-16 0)
(3 -2.03624e-16 0)
(3 -4.35408e-16 0)
(3 -1.9282e-16 0)
(3 -3.69642e-16 0)
(3 -4.00532e-16 0)
(3 -2.56998e-16 0)
(3 -4.61231e-17 0)
(3 -6.16588e-16 0)
(3 -5.55567e-16 0)
(3 -1.67646e-16 0)
(3 2.39424e-16 0)
(3 6.00099e-16 0)
(3 5.23744e-17 0)
(3 3.74417e-16 0)
(3 9.55252e-16 0)
(3 9.3536e-16 0)
(3 9.56736e-16 0)
(3 1.24779e-15 0)
(3 1.16526e-15 0)
(3 2.03884e-15 0)
(3 4.02179e-15 0)
(3 2.96902e-15 0)
(3 1.0569e-15 0)
(3 1.04203e-15 0)
(3 3.24772e-16 0)
(3 4.15792e-16 0)
(3 3.50251e-16 0)
(3 9.37194e-16 0)
(3 6.95648e-16 0)
(3 6.25108e-16 0)
(3 1.66543e-15 0)
(3 2.60971e-15 0)
(3 1.57237e-15 0)
(3 1.23322e-15 0)
(3 1.63253e-15 0)
(3 2.12038e-15 0)
(3 3.16148e-15 0)
(3 2.81022e-15 0)
(3 3.66838e-15 0)
(3 3.31073e-15 0)
(3 1.56123e-15 0)
(3 1.22741e-15 0)
(3 7.82355e-16 0)
(3 1.13091e-15 0)
(3 6.72628e-16 0)
(3 -8.37509e-16 0)
(3 -1.83946e-15 0)
(3 -2.09927e-15 0)
(3 -1.82982e-15 0)
(3 -1.38134e-15 0)
(3 -6.41377e-16 0)
(3 2.57886e-16 0)
(3 3.75675e-16 0)
(3 -6.57643e-16 0)
(3 -7.60301e-16 0)
(3 -1.39341e-15 0)
(3 -1.26202e-15 0)
(3 6.34732e-16 0)
(3 1.91222e-15 0)
(3 1.01802e-15 0)
(3 5.53606e-16 0)
(3 3.06692e-17 0)
(3 3.41541e-16 0)
(3 7.56523e-16 0)
(3 2.02749e-15 0)
(3 2.36294e-15 0)
(3 2.33394e-15 0)
(3 1.77279e-15 0)
(3 5.61683e-16 0)
(3 -2.47466e-16 0)
(3 -1.14618e-16 0)
(3 -3.7602e-16 0)
(3 1.73613e-16 0)
(3 5.82343e-16 0)
(3 1.03697e-15 0)
(3 6.20732e-16 0)
(3 6.97352e-16 0)
(3 4.17366e-16 0)
(3 -3.8902e-16 0)
(3 -1.61746e-15 0)
(3 -2.33774e-15 0)
(3 -2.51293e-15 0)
(3 -1.54654e-15 0)
(3 -1.92809e-15 0)
(3 -2.6992e-15 0)
(3 -2.56138e-15 0)
(3 -2.43152e-15 0)
(3 -2.47474e-15 0)
(3 -2.5837e-15 0)
(3 -1.72542e-15 0)
(3 -4.786e-16 0)
(3 7.71158e-16 0)
(3 1.81308e-15 0)
(3 2.29618e-15 0)
(3 2.71644e-15 0)
(3 4.20334e-15 0)
(3 4.84098e-15 0)
(3 4.55088e-15 0)
(3 3.61311e-15 0)
(3 2.93789e-15 0)
(3 3.04161e-15 0)
(3 2.74344e-15 0)
(3 3.59682e-15 0)
(3 3.58e-15 0)
(3 2.56176e-15 0)
(3 2.69228e-15 0)
(3 2.67053e-15 0)
(3 1.19787e-15 0)
(3 3.85245e-16 0)
(3 6.79415e-16 0)
(3 4.14861e-16 0)
(3 -1.28707e-16 0)
(3 -4.14236e-16 0)
(3 -1.39168e-15 0)
(3 -1.1025e-15 0)
(3 -9.58646e-16 0)
(3 -1.49001e-15 0)
(3 -1.93332e-15 0)
(3 -1.60928e-15 0)
(3 -1.36986e-15 0)
(3 -1.21435e-15 0)
(3 -1.23226e-15 0)
(3 -1.48058e-15 0)
(3 -1.13518e-15 0)
(3 -1.48007e-16 0)
(3 1.23028e-15 0)
(3 1.67974e-15 0)
(3 1.52971e-15 0)
(3 1.21478e-15 0)
(3 5.55835e-16 0)
(3 8.9458e-16 0)
(3 1.89957e-15 0)
(3 1.61298e-15 0)
(3 1.55152e-15 0)
(3 1.65645e-15 0)
(3 2.25013e-15 0)
(3 2.66579e-15 0)
(3 2.06871e-15 0)
(3 2.1249e-15 0)
(3 2.3306e-15 0)
(3 2.358e-15 0)
(3 1.16585e-15 0)
(3 -3.23513e-17 0)
(3 -1.09931e-15 0)
(3 -9.80824e-16 0)
(3 -8.50998e-16 0)
(3 -1.46302e-16 0)
(3 1.35417e-16 0)
(3 5.78674e-16 0)
(3 9.9682e-16 0)
(3 3.10547e-16 0)
(3 -6.95618e-16 0)
(3 -6.90389e-16 0)
(3 2.7705e-16 0)
(3 2.21795e-15 0)
(3 3.45327e-15 0)
(3 5.67796e-15 0)
(3 5.71858e-15 0)
(3 5.33364e-15 0)
(3 5.23075e-15 0)
(3 5.29115e-15 0)
(3 5.55726e-15 0)
(3 4.82483e-15 0)
(3 4.00647e-15 0)
(3 3.17663e-15 0)
(3 3.49526e-15 0)
(3 3.91803e-15 0)
(3 3.04051e-15 0)
(3 1.39555e-15 0)
(3 6.25314e-16 0)
(3 -3.64363e-16 0)
(3 -1.13328e-15 0)
(3 -1.66894e-15 0)
(3 -1.92506e-15 0)
(3 -1.71839e-15 0)
(3 -1.50389e-15 0)
(3 -1.81786e-15 0)
(3 -1.39047e-15 0)
(3 -1.6034e-15 0)
(3 -2.30239e-15 0)
(3 -2.65096e-15 0)
(3 -3.56905e-15 0)
(3 -4.2598e-15 0)
(3 -5.33616e-15 0)
(3 -6.28976e-15 0)
(3 -6.64114e-15 0)
(3 -5.5178e-15 0)
(3 -5.14181e-15 0)
(3 -4.2655e-15 0)
(3 -4.28794e-15 0)
(3 -1.46522e-17 0)
(3 -1.78344e-16 0)
(3 -2.10871e-16 0)
(3 8.11519e-17 0)
(3 -1.35721e-16 0)
(3 -4.77452e-16 0)
(3 -6.08261e-16 0)
(3 -3.16555e-16 0)
(3 2.80124e-17 0)
(3 1.83561e-16 0)
(3 6.55186e-16 0)
(3 4.96763e-16 0)
(3 6.44312e-17 0)
(3 -4.74639e-16 0)
(3 -3.1177e-16 0)
(3 -2.24681e-16 0)
(3 -7.53637e-17 0)
(3 1.01231e-15 0)
(3 1.25112e-15 0)
(3 1.60331e-15 0)
(3 2.29398e-15 0)
(3 2.90978e-15 0)
(3 1.35193e-15 0)
(3 6.09406e-16 0)
(3 6.22469e-17 0)
(3 -9.51593e-16 0)
(3 -1.37676e-15 0)
(3 -7.06658e-16 0)
(3 -6.03389e-17 0)
(3 6.69215e-16 0)
(3 1.79181e-15 0)
(3 1.59399e-15 0)
(3 1.45668e-15 0)
(3 1.56001e-15 0)
(3 1.62758e-15 0)
(3 2.23332e-15 0)
(3 2.92548e-15 0)
(3 3.02197e-15 0)
(3 3.31572e-15 0)
(3 2.61483e-15 0)
(3 2.73213e-15 0)
(3 3.42932e-15 0)
(3 1.89078e-15 0)
(3 3.79426e-16 0)
(3 1.3271e-16 0)
(3 -2.52208e-16 0)
(3 -1.38299e-15 0)
(3 -2.1021e-15 0)
(3 -2.258e-15 0)
(3 -2.17739e-15 0)
(3 -1.31389e-15 0)
(3 -7.19025e-16 0)
(3 -5.71268e-16 0)
(3 6.61744e-16 0)
(3 7.40757e-16 0)
(3 4.06734e-16 0)
(3 -8.29003e-16 0)
(3 -1.17604e-15 0)
(3 -9.4053e-16 0)
(3 -6.3979e-16 0)
(3 -1.98337e-17 0)
(3 2.75225e-16 0)
(3 5.25686e-16 0)
(3 8.60579e-16 0)
(3 1.51777e-15 0)
(3 2.66277e-15 0)
(3 2.57386e-15 0)
(3 1.83413e-15 0)
(3 1.48034e-15 0)
(3 1.00004e-15 0)
(3 2.33364e-16 0)
(3 1.10615e-16 0)
(3 4.06822e-16 0)
(3 1.39824e-16 0)
(3 -1.24406e-16 0)
(3 3.51794e-16 0)
(3 1.79954e-15 0)
(3 2.4052e-15 0)
(3 2.21445e-15 0)
(3 1.6957e-15 0)
(3 5.39792e-16 0)
(3 -1.95834e-15 0)
(3 -2.73387e-15 0)
(3 -2.46084e-15 0)
(3 -2.62177e-15 0)
(3 -2.11976e-15 0)
(3 -1.79964e-15 0)
(3 -1.11644e-15 0)
(3 -3.96484e-16 0)
(3 -5.1301e-16 0)
(3 -6.82839e-16 0)
(3 -7.38169e-16 0)
(3 -1.31778e-15 0)
(3 -4.80156e-16 0)
(3 7.25189e-16 0)
(3 1.66476e-15 0)
(3 1.53612e-15 0)
(3 2.43382e-15 0)
(3 3.08354e-15 0)
(3 3.84081e-15 0)
(3 3.90304e-15 0)
(3 3.36127e-15 0)
(3 2.96796e-15 0)
(3 2.65483e-15 0)
(3 1.92995e-15 0)
(3 1.38848e-15 0)
(3 1.55045e-15 0)
(3 1.79711e-15 0)
(3 2.23182e-15 0)
(3 1.91302e-15 0)
(3 1.67878e-15 0)
(3 1.91304e-15 0)
(3 1.93888e-15 0)
(3 1.69337e-15 0)
(3 1.25536e-15 0)
(3 -4.35586e-16 0)
(3 -2.96023e-16 0)
(3 -3.06098e-16 0)
(3 -8.67688e-16 0)
(3 -8.93603e-16 0)
(3 -6.6184e-16 0)
(3 -2.57167e-16 0)
(3 -3.77224e-16 0)
(3 1.954e-16 0)
(3 3.61287e-16 0)
(3 5.38399e-16 0)
(3 1.20961e-15 0)
(3 1.24167e-15 0)
(3 1.88102e-15 0)
(3 1.53068e-15 0)
(3 6.44652e-16 0)
(3 -3.90165e-16 0)
(3 -3.35549e-16 0)
(3 1.29445e-16 0)
(3 1.07623e-15 0)
(3 1.28075e-15 0)
(3 1.13417e-15 0)
(3 1.31319e-15 0)
(3 1.24372e-15 0)
(3 7.99036e-16 0)
(3 7.45703e-16 0)
(3 1.03688e-15 0)
(3 8.35991e-16 0)
(3 -3.17934e-16 0)
(3 -1.94534e-15 0)
(3 -2.41265e-15 0)
(3 -2.95153e-15 0)
(3 -2.40872e-15 0)
(3 -5.86931e-16 0)
(3 1.36305e-17 0)
(3 -4.20972e-16 0)
(3 -6.13576e-16 0)
(3 -7.36638e-16 0)
(3 -8.23374e-16 0)
(3 -5.38982e-16 0)
(3 3.04416e-16 0)
(3 2.99686e-15 0)
(3 4.39084e-15 0)
(3 4.41373e-15 0)
(3 4.50579e-15 0)
(3 5.06847e-15 0)
(3 5.97481e-15 0)
(3 6.04607e-15 0)
(3 4.26728e-15 0)
(3 3.42054e-15 0)
(3 3.28743e-15 0)
(3 4.08826e-15 0)
(3 5.19316e-15 0)
(3 4.42298e-15 0)
(3 3.35843e-15 0)
(3 1.44047e-15 0)
(3 7.92349e-16 0)
(3 1.48839e-15 0)
(3 1.22606e-15 0)
(3 1.51256e-15 0)
(3 9.01299e-16 0)
(3 -3.13655e-16 0)
(3 -1.09875e-15 0)
(3 -1.44745e-15 0)
(3 -1.94247e-15 0)
(3 -1.5828e-15 0)
(3 -2.91895e-15 0)
(3 -3.43694e-15 0)
(3 -3.35244e-15 0)
(3 -3.46934e-15 0)
(3 -4.35519e-15 0)
(3 -5.1553e-15 0)
(3 -6.08337e-15 0)
(3 -6.28014e-15 0)
(3 -5.91777e-15 0)
(3 -6.31098e-15 0)
(3 -7.02344e-15 0)
(3 -2.00697e-17 0)
(3 -3.47156e-17 0)
(3 -3.47872e-17 0)
(3 6.52814e-17 0)
(3 1.17194e-16 0)
(3 -3.09093e-17 0)
(3 1.10728e-16 0)
(3 3.11071e-16 0)
(3 5.52538e-16 0)
(3 1.08421e-15 0)
(3 8.67278e-16 0)
(3 6.71084e-16 0)
(3 3.01552e-16 0)
(3 -2.18816e-17 0)
(3 2.16436e-17 0)
(3 -3.39738e-17 0)
(3 2.22981e-17 0)
(3 -1.93116e-16 0)
(3 9.79198e-17 0)
(3 1.83041e-15 0)
(3 2.78717e-15 0)
(3 2.87278e-15 0)
(3 1.14086e-15 0)
(3 4.42313e-17 0)
(3 2.65533e-16 0)
(3 -4.57988e-16 0)
(3 -8.38607e-16 0)
(3 -7.66743e-17 0)
(3 -4.25194e-17 0)
(3 4.96499e-16 0)
(3 8.90067e-16 0)
(3 9.95497e-16 0)
(3 3.31792e-16 0)
(3 -2.06044e-16 0)
(3 5.88413e-17 0)
(3 8.9702e-16 0)
(3 2.94102e-15 0)
(3 3.3165e-15 0)
(3 2.54834e-15 0)
(3 1.83549e-15 0)
(3 1.1942e-15 0)
(3 1.83619e-15 0)
(3 1.44012e-15 0)
(3 1.49658e-16 0)
(3 -1.26137e-15 0)
(3 -2.22417e-15 0)
(3 -2.66852e-15 0)
(3 -2.94775e-15 0)
(3 -2.79954e-15 0)
(3 -1.67733e-15 0)
(3 -4.82304e-16 0)
(3 -3.24765e-16 0)
(3 -5.46214e-17 0)
(3 2.54916e-16 0)
(3 -5.32862e-16 0)
(3 -1.47359e-15 0)
(3 -2.01064e-15 0)
(3 -1.38288e-15 0)
(3 -9.51796e-16 0)
(3 -6.46136e-16 0)
(3 -1.03326e-15 0)
(3 -8.57586e-16 0)
(3 -4.2539e-16 0)
(3 1.82533e-16 0)
(3 8.14404e-16 0)
(3 1.3036e-15 0)
(3 1.08554e-15 0)
(3 4.84441e-16 0)
(3 8.06492e-17 0)
(3 4.56491e-16 0)
(3 -5.26335e-16 0)
(3 2.22261e-16 0)
(3 2.30866e-16 0)
(3 1.41929e-17 0)
(3 -5.73191e-16 0)
(3 8.11107e-16 0)
(3 2.6306e-15 0)
(3 3.213e-15 0)
(3 3.1373e-15 0)
(3 2.64992e-15 0)
(3 1.64439e-15 0)
(3 -4.1122e-16 0)
(3 -8.90967e-16 0)
(3 -9.73242e-16 0)
(3 -2.09507e-15 0)
(3 -1.88806e-15 0)
(3 -1.08037e-15 0)
(3 -9.02748e-16 0)
(3 -8.96001e-16 0)
(3 -6.50485e-16 0)
(3 3.89648e-16 0)
(3 3.16573e-16 0)
(3 -2.96594e-16 0)
(3 -8.07699e-17 0)
(3 2.08442e-16 0)
(3 1.52217e-15 0)
(3 1.63084e-15 0)
(3 1.28553e-15 0)
(3 2.49614e-15 0)
(3 3.55681e-15 0)
(3 4.314e-15 0)
(3 4.27724e-15 0)
(3 3.35023e-15 0)
(3 2.58861e-15 0)
(3 1.65487e-15 0)
(3 1.44562e-15 0)
(3 2.14621e-15 0)
(3 2.27666e-15 0)
(3 1.75271e-15 0)
(3 1.44135e-15 0)
(3 2.18031e-15 0)
(3 2.43337e-15 0)
(3 3.02356e-15 0)
(3 1.31139e-15 0)
(3 5.48773e-16 0)
(3 1.28734e-15 0)
(3 1.53746e-15 0)
(3 1.63372e-15 0)
(3 1.35606e-15 0)
(3 7.61714e-16 0)
(3 2.22791e-16 0)
(3 4.4805e-16 0)
(3 1.01165e-15 0)
(3 1.20649e-15 0)
(3 1.16855e-15 0)
(3 9.18539e-16 0)
(3 1.46945e-15 0)
(3 1.84719e-15 0)
(3 1.63899e-15 0)
(3 9.1013e-16 0)
(3 3.06635e-16 0)
(3 3.90523e-16 0)
(3 9.29045e-17 0)
(3 -3.71575e-16 0)
(3 5.26383e-16 0)
(3 -2.3601e-16 0)
(3 -9.36919e-16 0)
(3 -4.52821e-16 0)
(3 -1.83841e-16 0)
(3 -2.1434e-16 0)
(3 -2.20433e-16 0)
(3 8.55362e-17 0)
(3 5.22206e-16 0)
(3 4.02882e-16 0)
(3 -4.28354e-16 0)
(3 -1.12589e-15 0)
(3 -8.68829e-16 0)
(3 3.70959e-17 0)
(3 4.18512e-16 0)
(3 7.08584e-16 0)
(3 -4.71274e-16 0)
(3 -1.60312e-15 0)
(3 -1.54412e-15 0)
(3 -1.36962e-15 0)
(3 -4.23663e-17 0)
(3 2.01436e-15 0)
(3 2.11144e-15 0)
(3 2.10398e-15 0)
(3 2.63108e-15 0)
(3 4.49046e-15 0)
(3 5.02824e-15 0)
(3 5.02119e-15 0)
(3 4.54689e-15 0)
(3 3.60106e-15 0)
(3 4.24323e-15 0)
(3 5.04032e-15 0)
(3 4.86592e-15 0)
(3 3.72951e-15 0)
(3 2.59604e-15 0)
(3 1.52125e-15 0)
(3 1.23098e-15 0)
(3 1.17356e-15 0)
(3 1.5297e-15 0)
(3 1.52654e-15 0)
(3 1.75181e-15 0)
(3 1.57311e-15 0)
(3 3.72634e-16 0)
(3 -3.08516e-16 0)
(3 2.95037e-17 0)
(3 -1.02977e-16 0)
(3 -2.11736e-16 0)
(3 -8.05556e-16 0)
(3 -1.17053e-15 0)
(3 -2.10851e-15 0)
(3 -3.17907e-15 0)
(3 -4.60868e-15 0)
(3 -4.20331e-15 0)
(3 -4.30089e-15 0)
(3 -6.07718e-15 0)
(3 -6.26538e-15 0)