/*--------------------------------*- C++ -*----------------------------------*\
  =========                 |
  \\      /  F ield         | OpenFOAM: The Open Source CFD Toolbox
   \\    /   O peration     | Website:  https://openfoam.org
    \\  /    A nd           | Version:  7
     \\/     M anipulation  |
\*---------------------------------------------------------------------------*/
FoamFile
{
    version     2.0;
    format      ascii;
    class       volScalarField;
    location    "1.2";
    object      rho;
}
// * * * * * * * * * * * * * * * * * * * * * * * * * * * * * * * * * * * * * //

dimensions      [1 -3 0 0 0 0 0];

internalField   nonuniform List<scalar> 
16192
(
1.40001
1.40001
1.40001
1.40001
1.40001
1.40001
1.40001
1.40001
1.40001
1.40001
1.40001
1.40001
1.40001
1.40001
1.40001
1.40001
1.40001
1.40001
1.40001
1.40001
1.40001
1.40001
1.40001
1.40001
1.40001
1.40001
1.40001
1.40001
1.40001
1.40001
1.40001
1.40001
1.40001
1.40001
1.40001
1.40001
1.40001
1.40001
1.40001
1.40001
1.40001
1.40001
1.40001
1.40001
1.40001
1.40001
1.40001
1.40001
1.40001
1.40001
1.40001
1.40001
1.40001
1.40001
1.40001
1.40001
1.40001
1.40001
1.40001
1.40001
1.40001
1.40001
1.40001
1.40001
1.40001
1.40001
1.40001
1.40001
1.40001
1.40001
1.40001
1.40001
1.40001
1.40001
1.40001
1.40001
1.40001
1.40001
1.40001
1.40001
1.40001
1.40001
1.40001
1.40001
1.40001
1.40001
1.40001
1.40001
1.40001
1.40001
1.40001
1.40001
1.40001
1.40001
1.40001
1.40001
1.40001
1.40001
1.40001
1.40001
1.40001
1.40001
1.40001
1.40001
1.40001
1.40001
1.40001
1.40001
1.40001
1.40001
1.40001
1.40001
1.40001
1.40001
1.40001
1.40001
1.40001
1.40001
1.40001
1.40001
1.40001
1.40001
1.40001
1.40001
1.40001
1.40001
1.40001
1.40001
1.40001
1.40001
1.40001
1.40001
1.40001
1.40001
1.40001
1.40001
1.40001
1.40001
1.40001
1.40001
1.40001
1.40001
1.40001
1.40001
1.40001
1.40001
1.40001
1.40001
1.40001
1.40001
1.40001
1.40001
1.40001
1.40001
1.40001
1.40001
1.40001
1.40001
1.40001
1.40001
1.40001
1.40001
1.40001
1.40001
1.40001
1.40001
1.40001
1.40001
1.40001
1.40001
1.40001
1.40001
1.40001
1.40001
1.40001
1.40001
1.40001
1.40001
1.40001
1.40001
1.40001
1.40001
1.40001
1.40001
1.40001
1.40001
1.40001
1.40001
1.40001
1.40001
1.40001
1.40001
1.40001
1.40001
1.40001
1.40001
1.40001
1.40001
1.40001
1.40001
1.40001
1.40001
1.40001
1.40001
1.40001
1.40001
1.40001
1.40001
1.40001
1.40001
1.40001
1.40001
1.40001
1.40001
1.40001
1.40001
1.40001
1.40001
1.40001
1.40001
1.40001
1.40001
1.40001
1.40001
1.40001
1.40001
1.40001
1.40001
1.40001
1.40001
1.40001
1.40001
1.40001
1.40001
1.40001
1.40001
1.40001
1.40001
1.40001
1.40001
1.40001
1.40001
1.40001
1.40001
1.40001
1.40001
1.40001
1.40001
1.40001
1.40001
1.40001
1.40001
1.40001
1.40001
1.40001
1.40001
1.40001
1.40001
1.40001
1.40001
1.40001
1.40001
1.40001
1.40001
1.40001
1.40001
1.40001
1.40001
1.40001
1.40001
1.40001
1.40001
1.40001
1.40001
1.40001
1.40001
1.40001
1.40001
1.40001
1.40001
1.40001
1.40001
1.40001
1.40001
1.40001
1.40001
1.40001
1.40001
1.40001
1.40001
1.40001
1.40001
1.40001
1.40001
1.40001
1.40001
1.40001
1.40001
1.40001
1.40001
1.40001
1.40001
1.40001
1.40001
1.40001
1.40001
1.40001
1.40001
1.40001
1.40001
1.40001
1.40001
1.40001
1.40001
1.40001
1.40001
1.40001
1.40001
1.40001
1.40001
1.40001
1.40001
1.40001
1.40001
1.40001
1.40001
1.40001
1.40001
1.40001
1.40001
1.40001
1.40001
1.40001
1.40001
1.40001
1.40001
1.40001
1.40001
1.40001
1.40001
1.40001
1.40001
1.40001
1.40001
1.40001
1.40001
1.40001
1.40001
1.40001
1.40001
1.40001
1.40001
1.40001
1.40001
1.40001
1.40001
1.40001
1.40001
1.40001
1.40001
1.40001
1.40001
1.40001
1.40001
1.40001
1.40001
1.40001
1.40001
1.40001
1.40001
1.40001
1.40001
1.40001
1.40001
1.40001
1.40001
1.40001
1.40001
1.40001
1.40001
1.40001
1.40001
1.40001
1.40001
1.40001
1.40001
1.40001
1.40001
1.40001
1.40001
1.40001
1.40001
1.40001
1.40001
1.40001
1.40001
1.40001
1.40001
1.40001
1.40001
1.40001
1.40001
1.40001
1.40001
1.40001
1.40001
1.40001
1.40001
1.40001
1.40001
1.40001
1.40001
1.40001
1.40001
1.40001
1.40001
1.40001
1.40001
1.40001
1.40001
1.40001
1.40001
1.40001
1.40001
1.40001
1.40001
1.40001
1.40001
1.40001
1.40001
1.40001
1.40001
1.40001
1.40001
1.40001
1.40001
1.40001
1.40001
1.40001
1.40001
1.40001
1.40001
1.40001
1.40001
1.40001
1.40001
1.40001
1.40001
1.40001
1.40001
1.40001
1.40001
1.40001
1.40001
1.40001
1.40001
1.40001
1.40001
1.40001
1.40001
1.40001
1.40001
1.40001
1.40001
1.40001
1.40001
1.40001
1.40001
1.40001
1.40001
1.40001
1.40001
1.40001
1.40001
1.40001
1.40001
1.40001
1.40001
1.40001
1.40001
1.40001
1.40001
1.40001
1.40001
1.40001
1.40001
1.40001
1.40001
1.40001
1.40001
1.40001
1.40001
1.40001
1.40001
1.40001
1.40001
1.40001
1.40001
1.40001
1.40001
1.40001
1.40001
1.40001
1.40001
1.40001
1.40001
1.40001
1.40001
1.40001
1.40001
1.40001
1.40001
1.40001
1.40001
1.40001
1.40001
1.40001
1.40001
1.40001
1.40001
1.40001
1.40001
1.40001
1.40001
1.40001
1.40001
1.40001
1.40001
1.40001
1.40001
1.40001
1.40001
1.40001
1.40001
1.40001
1.40001
1.40001
1.40001
1.40001
1.40001
1.40001
1.40001
1.40001
1.40001
1.40001
1.40001
1.40001
1.40001
1.40001
1.40001
1.40001
1.40001
1.40001
1.40001
1.40001
1.40001
1.40001
1.40001
1.40001
1.40001
1.40001
1.40001
1.40001
1.40001
1.40001
1.40001
1.40001
1.40001
1.40001
1.40001
1.40001
1.40001
1.40001
1.40001
1.40001
1.40001
1.40001
1.40001
1.40001
1.40001
1.40001
1.40001
1.40001
1.40001
1.40001
1.40001
1.40001
1.40001
1.40001
1.40001
1.40001
1.40001
1.40001
1.40001
1.40001
1.40001
1.40001
1.40001
1.40001
1.40001
1.40001
1.40001
1.40001
1.40001
1.40001
1.40001
1.40001
1.40001
1.40001
1.40001
1.40001
1.40001
1.40001
1.40001
1.40001
1.40001
1.40001
1.40001
1.40001
1.40001
1.40001
1.40001
1.40001
1.40001
1.40001
1.40001
1.40001
1.40001
1.40001
1.40001
1.40001
1.40001
1.40001
1.40001
1.40001
1.40001
1.40001
1.40001
1.40001
1.40001
1.40001
1.40001
1.40001
1.40001
1.40001
1.40001
1.40001
1.40001
1.40001
1.40001
1.40001
1.40001
1.40001
1.40001
1.40001
1.40001
1.40001
1.40001
1.40001
1.40001
1.40001
1.40001
1.40001
1.40001
1.40001
1.40001
1.40001
1.40001
1.40001
1.40001
1.40001
1.40001
1.40001
1.40001
1.40001
1.40001
1.40001
1.40001
1.40001
1.40001
1.40001
1.40001
1.40001
1.40001
1.40001
1.40001
1.40001
1.40001
1.40001
1.40001
1.40001
1.40001
1.40001
1.40001
1.40001
1.40001
1.40001
1.40001
1.40001
1.40001
1.40001
1.40001
1.40001
1.40001
1.40001
1.40001
1.40001
1.40001
1.40001
1.40001
1.40001
1.40001
1.40001
1.40001
1.40001
1.40001
1.40001
1.40001
1.40001
1.40001
1.40001
1.40001
1.40001
1.40001
1.40001
1.40001
1.40001
1.40001
1.40001
1.40001
1.40001
1.40001
1.40001
1.40001
1.40001
1.40001
1.40001
1.40001
1.40001
1.40001
1.40001
1.40001
1.40001
1.40001
1.40001
1.40001
1.40001
1.40001
1.40001
1.40001
1.40001
1.40001
1.40001
1.40001
1.40001
1.40001
1.40001
1.40001
1.40001
1.40001
1.40001
1.40001
1.40001
1.40001
1.40001
1.40001
1.40001
1.40001
1.40001
1.40001
1.40001
1.40001
1.40001
1.40001
1.40001
1.40001
1.40001
1.40001
1.40001
1.40001
1.40001
1.40001
1.40001
1.40001
1.40001
1.40001
1.40001
1.40001
1.40001
1.40001
1.40001
1.40001
1.40001
1.40001
1.40001
1.40001
1.40001
1.40001
1.40001
1.40001
1.40001
1.40001
1.40001
1.40001
1.40001
1.40001
1.40001
1.40001
1.40001
1.40001
1.40001
1.40001
1.40001
1.40001
1.40001
1.40001
1.40001
1.40001
1.40001
1.40001
1.40001
1.40001
1.40001
1.40001
1.40001
1.40001
1.40001
1.40001
1.40001
1.40001
1.40001
1.40001
1.40001
1.40001
1.40001
1.40001
1.40001
1.40001
1.40001
1.40001
1.40001
1.40001
1.40001
1.40001
1.40001
1.40001
1.40001
1.40001
1.40001
1.40001
1.40001
1.40001
1.40001
1.40001
1.40001
1.40001
1.40001
1.40001
1.40001
1.40001
1.40001
1.40001
1.40001
1.40001
1.40001
1.40001
1.40001
1.40001
1.40001
1.40001
1.40001
1.40001
1.40001
1.40001
1.40001
1.40001
1.40001
1.40001
1.40001
1.40001
1.40001
1.40001
1.40001
1.40001
1.40001
1.40001
1.40001
1.40001
1.40001
1.40001
1.40001
1.40001
1.40001
1.40001
1.40001
1.40001
1.40001
1.40001
1.40001
1.40001
1.40001
1.40001
1.40001
1.40001
1.40001
1.40001
1.40001
1.40001
1.40001
1.40001
1.40001
1.40001
1.40001
1.40001
1.40001
1.40001
1.40001
1.40001
1.40001
1.40001
1.40001
1.40001
1.40001
1.40001
1.40001
1.40001
1.40001
1.40001
1.40001
1.40001
1.40001
1.40001
1.40001
1.40001
1.40001
1.40001
1.40001
1.40001
1.40001
1.40001
1.40001
1.40001
1.40001
1.40001
1.40001
1.40001
1.40001
1.40001
1.40001
1.40001
1.40001
1.40001
1.40001
1.40001
1.40001
1.40001
1.40001
1.40001
1.40001
1.40001
1.40001
1.40001
1.40001
1.40001
1.40001
1.40001
1.40001
1.40001
1.40001
1.40001
1.40001
1.40001
1.40001
1.40001
1.40001
1.40001
1.40001
1.40001
1.40001
1.40001
1.40001
1.40001
1.40001
1.40001
1.40001
1.40001
1.40001
1.40001
1.40001
1.40001
1.40001
1.40001
1.40001
1.40001
1.40001
1.40001
1.40001
1.40001
1.40001
1.40001
1.40001
1.40001
1.40001
1.40001
1.40001
1.40001
1.40001
1.40001
1.40001
1.40001
1.40001
1.40001
1.40001
1.40001
1.40001
1.40001
1.40001
1.40001
1.40001
1.40001
1.40001
1.40001
1.40001
1.40001
1.40001
1.40001
1.40001
1.40001
1.40001
1.40001
1.40001
1.40001
1.40001
1.40001
1.40001
1.40001
1.40001
1.40001
1.40001
1.40001
1.40001
1.40001
1.40001
1.40001
1.40001
1.40001
1.40001
1.40001
1.40001
1.40001
1.40001
1.40001
1.40001
1.40001
1.40001
1.40001
1.40001
1.40001
1.40001
1.40001
1.40001
1.40001
1.40001
1.40001
1.40001
1.40001
1.40001
1.40001
1.40001
1.40001
1.40001
1.40001
1.40001
1.40001
1.40001
1.40001
1.40001
1.40001
1.40001
1.40001
1.40001
1.40001
1.40001
1.40001
1.40001
1.40001
1.40001
1.40001
1.40001
1.40001
1.40001
1.40001
1.40001
1.40001
1.40001
1.40001
1.40001
1.40001
1.40001
1.40001
1.40001
1.40001
1.40001
1.40001
1.40001
1.40001
1.40001
1.40001
1.40001
1.40001
1.40001
1.40001
1.40001
1.40001
1.40001
1.40001
1.40001
1.40001
1.40001
1.40001
1.40001
1.40001
1.40001
1.40001
1.40001
1.40001
1.40001
1.40001
1.40001
1.40001
1.40001
1.40001
1.40001
1.40001
1.40001
1.40001
1.40001
1.40001
1.40001
1.40001
1.40001
1.40001
1.40001
1.40001
1.40001
1.40001
1.40001
1.40001
1.40001
1.40001
1.40001
1.40001
1.40001
1.40001
1.40001
1.40001
1.40001
1.40001
1.40001
1.40001
1.40001
1.40001
1.40001
1.40001
1.40001
1.40001
1.40001
1.40001
1.40001
1.40001
1.40001
1.40001
1.40001
1.40001
1.40001
1.40001
1.40001
1.40001
1.40001
1.40001
1.40001
1.40001
1.40001
1.40001
1.40001
1.40001
1.40001
1.40001
1.40001
1.40001
1.40001
1.40001
1.40001
1.40001
1.40001
1.40001
1.40001
1.40001
1.40001
1.40001
1.40001
1.40001
1.40001
1.40001
1.40001
1.40001
1.40001
1.40001
1.40001
1.40001
1.40001
1.40001
1.40001
1.40001
1.40001
1.40001
1.40001
1.40001
1.40001
1.40001
1.40001
1.40001
1.40001
1.40001
1.40001
1.40001
1.40001
1.40001
1.40001
1.40001
1.40001
1.40001
1.40001
1.40001
1.40001
1.40001
1.40001
1.40001
1.40001
1.40001
1.40001
1.40001
1.40001
1.40001
1.40001
1.40001
1.40001
1.40001
1.40001
1.40001
1.40001
1.40001
1.40001
1.40001
1.40001
1.40001
1.40001
1.40001
1.40001
1.40001
1.40001
1.40001
1.40001
1.40001
1.40001
1.40001
1.40001
1.40001
1.40001
1.40001
1.40001
1.40001
1.40001
1.40001
1.40001
1.40001
1.40001
1.40001
1.40001
1.40001
1.40001
1.40001
1.40001
1.40001
1.40001
1.40001
1.40001
1.40001
1.40001
1.40001
1.40001
1.40001
1.40001
1.40001
1.40001
1.40001
1.40001
1.40001
1.40001
1.40001
1.40001
1.40001
1.40001
1.40001
1.40027
1.41537
1.60808
2.14545
2.97561
3.75787
3.79764
3.73761
3.71116
3.71282
3.71402
3.691
3.67703
3.67229
3.65813
3.61759
3.58834
3.58783
3.59112
3.58038
3.5657
3.5505
3.53346
3.5248
3.52312
3.53852
3.56379
3.58263
3.58993
3.58572
3.57826
3.56929
3.55708
3.54266
3.52461
3.50716
3.48874
3.46656
3.45719
3.44584
3.42796
3.40939
3.39354
3.37772
3.35881
3.34896
3.34237
3.33353
3.32627
3.32084
3.31763
3.31497
3.30684
3.29116
3.27163
3.25086
3.23641
3.22969
3.22241
3.21168
3.20075
3.19091
3.18083
3.16885
3.15201
3.13304
3.11845
3.10511
3.08953
3.07036
3.04931
3.0368
3.03448
3.03388
3.03381
3.03313
3.03212
3.03099
3.02895
3.0231
3.00812
2.98271
2.95935
2.95079
2.94428
2.9351
2.92568
2.91882
2.91314
2.90549
2.89465
2.87549
2.84845
2.8212
2.79329
2.77107
2.76215
2.756
2.74956
2.74395
2.74307
2.74953
2.75577
2.75384
2.74649
2.7267
2.69311
2.6511
2.62507
2.61154
2.6015
2.59382
2.58926
2.58678
2.58207
2.57303
2.55313
2.52503
2.50006
2.49018
2.49075
2.50309
2.52779
2.53765
2.53276
2.51565
2.48269
2.43515
2.39031
2.36636
2.36003
2.35902
2.36135
2.36678
2.36512
2.36108
2.35959
2.3612
2.36053
2.35614
2.35161
2.34702
2.34205
2.33644
2.32898
2.31393
2.2846
2.24447
2.21736
2.21
2.20806
2.20897
2.21998
2.23231
2.23361
2.2301
2.22036
2.19993
2.17613
2.16569
2.16383
2.16122
2.15727
2.15352
2.14896
2.14151
2.12775
2.11008
1.40001
1.40001
1.40001
1.40001
1.40001
1.40001
1.40001
1.40001
1.40001
1.40001
1.40001
1.40001
1.40001
1.40001
1.40001
1.40001
1.40001
1.40001
1.40001
1.40001
1.40001
1.40001
1.40001
1.40001
1.40001
1.40001
1.40001
1.40001
1.40001
1.40001
1.40001
1.40001
1.40001
1.40001
1.40001
1.40001
1.40001
1.40001
1.40001
1.40001
1.40001
1.40001
1.40001
1.40001
1.40001
1.40001
1.40001
1.40001
1.40001
1.40001
1.40001
1.40001
1.40001
1.40001
1.40001
1.40001
1.40001
1.40001
1.40001
1.40001
1.40001
1.40001
1.40001
1.40017
1.40705
1.48122
1.85918
2.91893
3.56378
3.64299
3.7236
3.76478
3.73447
3.70867
3.70519
3.68978
3.64802
3.61097
3.60007
3.60578
3.59873
3.58543
3.57483
3.55571
3.54482
3.54103
3.55069
3.57633
3.59202
3.59786
3.59298
3.58316
3.57908
3.57318
3.56347
3.55154
3.53961
3.5297
3.51165
3.49381
3.48083
3.46237
3.44121
3.42264
3.40651
3.38762
3.3722
3.36662
3.35952
3.35066
3.34395
3.33924
3.33567
3.32768
3.31055
3.2892
3.2678
3.25126
3.24412
3.23946
3.23103
3.2203
3.21159
3.20331
3.19282
3.17932
3.16444
3.15032
3.13599
3.11975
3.10041
3.07892
3.06378
3.05988
3.05937
3.05914
3.05633
3.05306
3.05019
3.04701
3.04133
3.02785
3.00546
2.9811
2.96813
2.96317
2.95587
2.94899
2.94173
2.93584
2.92955
2.91942
2.9029
2.88069
2.85534
2.83151
2.80862
2.795
2.78842
2.78277
2.77708
2.77411
2.77602
2.78014
2.77745
2.76865
2.75072
2.72264
2.6811
2.65033
2.63952
2.63336
2.62831
2.6246
2.62096
2.61493
2.60423
2.58175
2.55065
2.52305
2.51134
2.51121
2.52207
2.5473
2.56193
2.55926
2.54403
2.51176
2.46333
2.41632
2.39029
2.38286
2.38131
2.38413
2.39003
2.39005
2.38515
2.37851
2.37481
2.37425
2.37446
2.37141
2.36758
2.36361
2.35901
2.3528
2.34006
2.31283
2.27221
2.24056
2.23049
2.22844
2.22846
2.23821
2.25179
2.25469
2.25189
2.24324
2.22421
2.19902
2.18601
2.18364
2.18356
2.18029
2.17589
2.17118
2.16393
2.14957
2.13018
2.11751
1.40001
1.40001
1.40001
1.40001
1.40001
1.40001
1.40001
1.40001
1.40001
1.40001
1.40001
1.40001
1.40001
1.40001
1.40001
1.40001
1.40001
1.40001
1.40001
1.40001
1.40001
1.40001
1.40001
1.40001
1.40001
1.40001
1.40001
1.40001
1.40001
1.40001
1.40001
1.40001
1.40001
1.40001
1.40001
1.40001
1.40001
1.40001
1.40001
1.40001
1.40001
1.40001
1.40001
1.40001
1.40001
1.40001
1.40001
1.40001
1.40001
1.40001
1.40001
1.40001
1.40001
1.40001
1.40001
1.40001
1.40001
1.40001
1.40001
1.40001
1.40001
1.40001
1.40001
1.40001
1.40004
1.40145
1.43403
1.76311
2.69008
3.31184
3.64834
3.79477
3.78137
3.76072
3.72252
3.67119
3.6421
3.62308
3.62277
3.62196
3.61033
3.60048
3.58093
3.56581
3.56323
3.56966
3.59168
3.60389
3.60686
3.59936
3.58568
3.58169
3.58178
3.57847
3.57086
3.56532
3.56222
3.54976
3.52928
3.51335
3.49707
3.47669
3.45664
3.44
3.42269
3.40252
3.39417
3.38943
3.38069
3.37154
3.36452
3.35831
3.34927
3.33178
3.30835
3.28605
3.26737
3.25824
3.25472
3.24941
3.23985
3.23082
3.22351
3.21407
3.20146
3.18894
3.17738
3.16394
3.1471
3.12735
3.1066
3.0908
3.0855
3.08394
3.08346
3.07966
3.07483
3.07052
3.0664
3.06071
3.04887
3.02855
3.00473
2.9883
2.98444
2.97908
2.97297
2.96765
2.96044
2.95283
2.94299
2.92852
2.90917
2.88663
2.86351
2.84581
2.8323
2.82388
2.81726
2.81085
2.80583
2.80395
2.80407
2.79986
2.78932
2.77213
2.74782
2.71146
2.67891
2.6664
2.6621
2.66167
2.66234
2.65675
2.64903
2.63632
2.61129
2.57771
2.54859
2.53553
2.53425
2.54251
2.56585
2.58354
2.58308
2.57103
2.5408
2.49237
2.44389
2.41641
2.40806
2.40579
2.40853
2.41501
2.41485
2.41049
2.40185
2.39234
2.38848
2.38806
2.39002
2.38829
2.38516
2.38155
2.37644
2.36554
2.34061
2.3015
2.26631
2.25267
2.25028
2.24963
2.25801
2.27233
2.27604
2.27291
2.26425
2.24673
2.22195
2.20674
2.20374
2.20468
2.2052
2.20078
2.19534
2.18738
2.17266
2.15292
2.13994
2.13727
1.40001
1.40001
1.40001
1.40001
1.40001
1.40001
1.40001
1.40001
1.40001
1.40001
1.40001
1.40001
1.40001
1.40001
1.40001
1.40001
1.40001
1.40001
1.40001
1.40001
1.40001
1.40001
1.40001
1.40001
1.40001
1.40001
1.40001
1.40001
1.40001
1.40001
1.40001
1.40001
1.40001
1.40001
1.40001
1.40001
1.40001
1.40001
1.40001
1.40001
1.40001
1.40001
1.40001
1.40001
1.40001
1.40001
1.40001
1.40001
1.40001
1.40001
1.40001
1.40001
1.40001
1.40001
1.40001
1.40001
1.40001
1.40001
1.40001
1.40001
1.40001
1.40001
1.40001
1.40001
1.40001
1.40001
1.40051
1.42118
1.67782
2.3989
3.10665
3.70829
3.8063
3.77121
3.70191
3.67164
3.65449
3.64026
3.64744
3.64084
3.63333
3.61397
3.59149
3.58677
3.59316
3.60978
3.61687
3.61928
3.61289
3.5935
3.58581
3.58879
3.58934
3.58593
3.58313
3.58328
3.57622
3.55792
3.54152
3.52862
3.51222
3.49356
3.47658
3.46207
3.44315
3.42766
3.42288
3.41566
3.40389
3.39334
3.38303
3.37122
3.35389
3.3299
3.30655
3.2864
3.27427
3.27028
3.26728
3.25983
3.25037
3.2424
3.23352
3.22156
3.21009
3.20046
3.18885
3.17221
3.15153
3.1312
3.11485
3.10831
3.10569
3.10499
3.10125
3.0959
3.09091
3.08633
3.08078
3.07052
3.0521
3.02983
3.01225
3.00763
3.00528
3.00059
2.99502
2.98866
2.97892
2.96736
2.95336
2.93614
2.91579
2.89395
2.87835
2.86944
2.86223
2.85486
2.84446
2.83652
2.83168
2.82744
2.82043
2.80794
2.79152
2.76969
2.73887
2.70848
2.69386
2.6901
2.69076
2.69828
2.69414
2.68471
2.66904
2.64146
2.60508
2.5754
2.56229
2.56008
2.56527
2.5852
2.60385
2.60544
2.59622
2.5689
2.52161
2.47191
2.44365
2.4349
2.43235
2.43546
2.44237
2.44147
2.43686
2.42793
2.41345
2.40553
2.40343
2.40528
2.40843
2.40683
2.40396
2.39982
2.39055
2.36776
2.33082
2.29396
2.27696
2.27384
2.27271
2.27987
2.29415
2.29795
2.29393
2.28393
2.26656
2.243
2.22752
2.2244
2.22572
2.23057
2.22752
2.22157
2.21276
2.19639
2.17632
2.16415
2.16124
2.16012
1.40001
1.40001
1.40001
1.40001
1.40001
1.40001
1.40001
1.40001
1.40001
1.40001
1.40001
1.40001
1.40001
1.40001
1.40001
1.40001
1.40001
1.40001
1.40001
1.40001
1.40001
1.40001
1.40001
1.40001
1.40001
1.40001
1.40001
1.40001
1.40001
1.40001
1.40001
1.40001
1.40001
1.40001
1.40001
1.40001
1.40001
1.40001
1.40001
1.40001
1.40001
1.40001
1.40001
1.40001
1.40001
1.40001
1.40001
1.40001
1.40001
1.40001
1.40001
1.40001
1.40001
1.40001
1.40001
1.40001
1.40001
1.40001
1.40001
1.40001
1.40001
1.40001
1.40001
1.40001
1.40001
1.40001
1.40001
1.40028
1.41326
1.55577
2.02789
2.95537
3.70649
3.6789
3.69132
3.69543
3.67205
3.67184
3.67396
3.66955
3.66358
3.6348
3.61851
3.62083
3.63447
3.63043
3.62749
3.62219
3.60549
3.59163
3.59599
3.60104
3.59926
3.59503
3.59625
3.59173
3.57875
3.56275
3.55418
3.54473
3.53086
3.51652
3.50285
3.48848
3.46995
3.45977
3.45248
3.43958
3.4247
3.41109
3.3961
3.37777
3.35437
3.3296
3.30836
3.29359
3.28821
3.28617
3.28083
3.27177
3.26216
3.2527
3.24102
3.22997
3.22168
3.21196
3.19683
3.17542
3.15321
3.1364
3.12831
3.12403
3.12238
3.12034
3.11509
3.10996
3.10542
3.10044
3.09175
3.07511
3.0545
3.03802
3.0334
3.03146
3.02935
3.02453
3.01773
3.00817
2.99432
2.97911
2.96317
2.94463
2.92511
2.91306
2.90676
2.90116
2.89361
2.87903
2.86419
2.85646
2.84954
2.83969
2.82544
2.80882
2.78831
2.76257
2.73601
2.72044
2.71713
2.71795
2.72931
2.73014
2.72068
2.70271
2.67232
2.63271
2.60277
2.59009
2.58738
2.59015
2.60641
2.62415
2.62687
2.61954
2.59567
2.55118
2.50028
2.47127
2.46254
2.45987
2.46417
2.47208
2.47023
2.46501
2.45564
2.43766
2.42471
2.42145
2.42176
2.42695
2.42817
2.42601
2.42257
2.41434
2.39347
2.35976
2.32356
2.30366
2.29969
2.29805
2.304
2.31713
2.32022
2.31522
2.30312
2.28444
2.26195
2.24765
2.24469
2.24709
2.25608
2.25539
2.24948
2.24015
2.22186
2.20028
2.18846
2.18531
2.18328
2.18032
1.40001
1.40001
1.40001
1.40001
1.40001
1.40001
1.40001
1.40001
1.40001
1.40001
1.40001
1.40001
1.40001
1.40001
1.40001
1.40001
1.40001
1.40001
1.40001
1.40001
1.40001
1.40001
1.40001
1.40001
1.40001
1.40001
1.40001
1.40001
1.40001
1.40001
1.40001
1.40001
1.40001
1.40001
1.40001
1.40001
1.40001
1.40001
1.40001
1.40001
1.40001
1.40001
1.40001
1.40001
1.40001
1.40001
1.40001
1.40001
1.40001
1.40001
1.40001
1.40001
1.40001
1.40001
1.40001
1.40001
1.40001
1.40001
1.40001
1.40001
1.40001
1.40001
1.40001
1.40001
1.40001
1.40001
1.40001
1.40001
1.40011
1.40407
1.45955
1.82752
2.82158
3.41772
3.61164
3.72038
3.74077
3.72402
3.71108
3.70781
3.68158
3.64839
3.64006
3.65196
3.64916
3.63648
3.62881
3.61531
3.59938
3.59929
3.61182
3.61197
3.60662
3.60588
3.602
3.59151
3.5806
3.57294
3.57067
3.56395
3.55396
3.54475
3.53206
3.51682
3.50158
3.49002
3.4758
3.45822
3.44051
3.42326
3.40379
3.38202
3.35674
3.33337
3.31738
3.31025
3.30754
3.30345
3.29533
3.2847
3.27382
3.26178
3.25019
3.24211
3.23345
3.22025
3.19993
3.17445
3.15524
3.14646
3.14111
3.13709
3.13617
3.13284
3.12763
3.12309
3.11881
3.11187
3.09712
3.0776
3.06234
3.05856
3.05719
3.05553
3.05211
3.04564
3.03594
3.02344
3.0075
2.99085
2.97454
2.95825
2.94899
2.94466
2.93987
2.93045
2.90973
2.89022
2.87859
2.86921
2.85799
2.84314
2.82583
2.80606
2.7844
2.76156
2.74589
2.74288
2.74403
2.75699
2.76293
2.75476
2.73589
2.70348
2.66088
2.63064
2.61818
2.61495
2.61599
2.62918
2.64523
2.64775
2.64152
2.62101
2.58072
2.52923
2.49891
2.49012
2.4875
2.49291
2.50256
2.50039
2.49469
2.48485
2.46423
2.44618
2.44134
2.44064
2.44526
2.44905
2.44757
2.44442
2.43641
2.4172
2.38716
2.35329
2.33252
2.32804
2.32615
2.33111
2.34137
2.3424
2.3362
2.32201
2.30117
2.27895
2.26643
2.26419
2.26808
2.28072
2.28419
2.27899
2.26825
2.24754
2.22512
2.2128
2.20908
2.2055
2.20084
2.19012
1.40001
1.40001
1.40001
1.40001
1.40001
1.40001
1.40001
1.40001
1.40001
1.40001
1.40001
1.40001
1.40001
1.40001
1.40001
1.40001
1.40001
1.40001
1.40001
1.40001
1.40001
1.40001
1.40001
1.40001
1.40001
1.40001
1.40001
1.40001
1.40001
1.40001
1.40001
1.40001
1.40001
1.40001
1.40001
1.40001
1.40001
1.40001
1.40001
1.40001
1.40001
1.40001
1.40001
1.40001
1.40001
1.40001
1.40001
1.40001
1.40001
1.40001
1.40001
1.40001
1.40001
1.40001
1.40001
1.40001
1.40001
1.40001
1.40001
1.40001
1.40001
1.40001
1.40001
1.40001
1.40001
1.40001
1.40001
1.40001
1.40001
1.40002
1.40103
1.42931
1.71756
2.57485
3.23268
3.60872
3.78425
3.79583
3.78463
3.7394
3.67965
3.65639
3.66185
3.66504
3.65058
3.64362
3.63185
3.60879
3.60006
3.61527
3.62193
3.61637
3.61354
3.61039
3.60078
3.59392
3.58946
3.59068
3.59149
3.58702
3.58285
3.57306
3.55793
3.54273
3.52712
3.51093
3.49249
3.47289
3.45358
3.43264
3.40992
3.3868
3.36308
3.3462
3.33742
3.33307
3.32869
3.3208
3.31001
3.29786
3.2853
3.27259
3.26402
3.25533
3.24302
3.2238
3.19713
3.1725
3.16248
3.15759
3.15253
3.14986
3.14925
3.14503
3.14022
3.13602
3.13041
3.11762
3.09864
3.08355
3.0801
3.07922
3.07809
3.07549
3.07046
3.06128
3.04991
3.03671
3.02067
3.0049
2.99245
2.98507
2.98074
2.97425
2.96158
2.93754
2.915
2.89995
2.88863
2.87644
2.86136
2.84444
2.82608
2.80658
2.7859
2.77087
2.76789
2.76928
2.78272
2.79241
2.78622
2.76757
2.73421
2.68902
2.65843
2.64608
2.64235
2.64219
2.65281
2.66716
2.66849
2.66223
2.64452
2.61011
2.56039
2.52726
2.51735
2.51486
2.52073
2.5325
2.531
2.52514
2.51472
2.49251
2.47057
2.46356
2.4621
2.46478
2.46939
2.46864
2.4652
2.45634
2.43854
2.41236
2.38204
2.36225
2.35793
2.35654
2.36167
2.36778
2.36538
2.35689
2.34013
2.31649
2.2944
2.28384
2.2825
2.28807
2.30336
2.31056
2.30635
2.29374
2.2718
2.25011
2.23692
2.23225
2.22734
2.22065
2.2075
2.18739
1.40001
1.40001
1.40001
1.40001
1.40001
1.40001
1.40001
1.40001
1.40001
1.40001
1.40001
1.40001
1.40001
1.40001
1.40001
1.40001
1.40001
1.40001
1.40001
1.40001
1.40001
1.40001
1.40001
1.40001
1.40001
1.40001
1.40001
1.40001
1.40001
1.40001
1.40001
1.40001
1.40001
1.40001
1.40001
1.40001
1.40001
1.40001
1.40001
1.40001
1.40001
1.40001
1.40001
1.40001
1.40001
1.40001
1.40001
1.40001
1.40001
1.40001
1.40001
1.40001
1.40001
1.40001
1.40001
1.40001
1.40001
1.40001
1.40001
1.40001
1.40001
1.40001
1.40001
1.40001
1.40001
1.40001
1.40001
1.40001
1.40001
1.40001
1.40001
1.4004
1.4178
1.63824
2.268
2.97878
3.67159
3.78844
3.76437
3.72516
3.69325
3.67636
3.6805
3.67182
3.6638
3.65837
3.62906
3.60669
3.61152
3.63093
3.62707
3.62056
3.61622
3.60828
3.60403
3.60323
3.6067
3.61466
3.61465
3.61502
3.6113
3.59619
3.57794
3.56084
3.54379
3.52564
3.50645
3.48718
3.46636
3.44079
3.41705
3.39712
3.38082
3.37011
3.36332
3.35735
3.34841
3.33677
3.3241
3.31152
3.29797
3.28837
3.27994
3.26748
3.24817
3.22116
3.19198
3.17758
3.17347
3.16884
3.16493
3.16454
3.16276
3.15826
3.15366
3.14847
3.13705
3.11789
3.1013
3.09721
3.09669
3.09629
3.09454
3.09161
3.08394
3.07299
3.0626
3.05058
3.03593
3.02497
3.01891
3.01362
3.00538
2.99092
2.96637
2.94093
2.92184
2.90824
2.89562
2.88133
2.86488
2.8475
2.82918
2.81032
2.79696
2.79375
2.79521
2.8081
2.81907
2.81434
2.79631
2.76328
2.71684
2.68548
2.67315
2.66933
2.66858
2.67751
2.69002
2.68968
2.6826
2.66632
2.63665
2.59062
2.55603
2.5446
2.54227
2.54807
2.56152
2.56151
2.55597
2.54485
2.52143
2.49756
2.4888
2.48672
2.48765
2.49056
2.48902
2.48404
2.47339
2.4573
2.4351
2.40904
2.39138
2.38781
2.38785
2.39395
2.39633
2.39085
2.37819
2.35736
2.33025
2.30848
2.29973
2.29917
2.30659
2.32402
2.33366
2.3303
2.31664
2.29457
2.27402
2.26059
2.25466
2.24865
2.24051
2.22593
2.20418
2.18291
1.40001
1.40001
1.40001
1.40001
1.40001
1.40001
1.40001
1.40001
1.40001
1.40001
1.40001
1.40001
1.40001
1.40001
1.40001
1.40001
1.40001
1.40001
1.40001
1.40001
1.40001
1.40001
1.40001
1.40001
1.40001
1.40001
1.40001
1.40001
1.40001
1.40001
1.40001
1.40001
1.40001
1.40001
1.40001
1.40001
1.40001
1.40001
1.40001
1.40001
1.40001
1.40001
1.40001
1.40001
1.40001
1.40001
1.40001
1.40001
1.40001
1.40001
1.40001
1.40001
1.40001
1.40001
1.40001
1.40001
1.40001
1.40001
1.40001
1.40001
1.40001
1.40001
1.40001
1.40001
1.40001
1.40001
1.40001
1.40001
1.40001
1.40001
1.40001
1.40001
1.40022
1.41002
1.51074
1.90484
2.80704
3.59654
3.65419
3.72135
3.73489
3.71662
3.69896
3.68547
3.68261
3.66203
3.63027
3.62033
3.64074
3.64439
3.63269
3.62387
3.6163
3.61296
3.61651
3.62303
3.63338
3.63725
3.63997
3.64122
3.62706
3.6043
3.58904
3.57388
3.55698
3.5382
3.52018
3.50237
3.47877
3.45039
3.43343
3.41933
3.40647
3.39668
3.38886
3.37894
3.36568
3.35161
3.33862
3.32572
3.31481
3.30669
3.29509
3.27543
3.24728
3.21559
3.19492
3.18999
3.18579
3.18173
3.18026
3.18126
3.17768
3.17325
3.16769
3.15666
3.13719
3.11747
3.11096
3.11041
3.11074
3.11064
3.10901
3.10428
3.09258
3.08308
3.07605
3.06594
3.05523
3.049
3.04328
3.0344
3.01955
2.99539
2.96789
2.94542
2.92922
2.91576
2.90214
2.8867
2.86997
2.85262
2.83585
2.82494
2.82157
2.82305
2.83465
2.844
2.83978
2.82266
2.79024
2.74337
2.71144
2.69907
2.69545
2.69474
2.70296
2.71391
2.7124
2.70429
2.68791
2.66042
2.61864
2.58449
2.57143
2.56944
2.57511
2.58967
2.59154
2.5865
2.57489
2.55086
2.52658
2.51691
2.5142
2.51382
2.51332
2.50888
2.49991
2.48779
2.47384
2.45563
2.43416
2.41896
2.41622
2.41838
2.42606
2.42589
2.41803
2.40088
2.37483
2.34324
2.3221
2.3146
2.31463
2.32294
2.34177
2.35345
2.35142
2.33808
2.31574
2.29555
2.28268
2.27617
2.26952
2.2608
2.24603
2.22316
2.19931
2.18948
1.40001
1.40001
1.40001
1.40001
1.40001
1.40001
1.40001
1.40001
1.40001
1.40001
1.40001
1.40001
1.40001
1.40001
1.40001
1.40001
1.40001
1.40001
1.40001
1.40001
1.40001
1.40001
1.40001
1.40001
1.40001
1.40001
1.40001
1.40001
1.40001
1.40001
1.40001
1.40001
1.40001
1.40001
1.40001
1.40001
1.40001
1.40001
1.40001
1.40001
1.40001
1.40001
1.40001
1.40001
1.40001
1.40001
1.40001
1.40001
1.40001
1.40001
1.40001
1.40001
1.40001
1.40001
1.40001
1.40001
1.40001
1.40001
1.40001
1.40001
1.40001
1.40001
1.40001
1.40001
1.40001
1.40001
1.40001
1.40001
1.40001
1.40001
1.40001
1.40001
1.40001
1.40007
1.40224
1.43851
1.73036
2.60111
3.32576
3.614
3.74332
3.77253
3.74559
3.72379
3.69919
3.66536
3.65141
3.66651
3.67645
3.65634
3.63999
3.63019
3.62439
3.62819
3.6398
3.65284
3.65703
3.65959
3.66071
3.64663
3.62296
3.60856
3.60015
3.58737
3.57039
3.55195
3.53646
3.51819
3.48993
3.47103
3.46072
3.44626
3.43157
3.41992
3.40933
3.39639
3.38138
3.36756
3.35547
3.34349
3.33459
3.32399
3.30534
3.27688
3.24416
3.21755
3.20916
3.20465
3.20014
3.19801
3.19957
3.19896
3.19449
3.18906
3.1779
3.1577
3.13438
3.12405
3.12292
3.1229
3.12401
3.12362
3.12033
3.11058
3.09947
3.09453
3.09027
3.08268
3.07616
3.07064
3.06226
3.04796
3.02439
2.99527
2.9695
2.95117
2.93715
2.92394
2.90961
2.89359
2.87728
2.86329
2.85524
2.85188
2.85348
2.86262
2.868
2.86329
2.84728
2.81613
2.76922
2.73642
2.72387
2.72068
2.72041
2.72871
2.73817
2.73602
2.72761
2.71079
2.6835
2.64406
2.61116
2.59693
2.59526
2.60115
2.6159
2.61975
2.61566
2.6038
2.58
2.55634
2.54649
2.54311
2.54036
2.53547
2.52622
2.51407
2.50186
2.48906
2.47447
2.45705
2.4446
2.44252
2.44696
2.45634
2.45482
2.44479
2.42436
2.39387
2.35754
2.33624
2.3293
2.32991
2.3389
2.35796
2.37013
2.36912
2.35743
2.33568
2.31459
2.30187
2.29589
2.28944
2.28099
2.26734
2.24476
2.21804
2.20525
2.20309
1.40001
1.40001
1.40001
1.40001
1.40001
1.40001
1.40001
1.40001
1.40001
1.40001
1.40001
1.40001
1.40001
1.40001
1.40001
1.40001
1.40001
1.40001
1.40001
1.40001
1.40001
1.40001
1.40001
1.40001
1.40001
1.40001
1.40001
1.40001
1.40001
1.40001
1.40001
1.40001
1.40001
1.40001
1.40001
1.40001
1.40001
1.40001
1.40001
1.40001
1.40001
1.40001
1.40001
1.40001
1.40001
1.40001
1.40001
1.40001
1.40001
1.40001
1.40001
1.40001
1.40001
1.40001
1.40001
1.40001
1.40001
1.40001
1.40001
1.40001
1.40001
1.40001
1.40001
1.40001
1.40001
1.40001
1.40001
1.40001
1.40001
1.40001
1.40001
1.40001
1.40001
1.40001
1.40001
1.40053
1.41797
1.62212
2.34776
3.09556
3.56467
3.78063
3.77748
3.74171
3.71585
3.69341
3.69531
3.71038
3.69021
3.66517
3.65627
3.64488
3.64309
3.65532
3.67487
3.67836
3.67599
3.67308
3.65935
3.63697
3.61972
3.61602
3.61209
3.60014
3.58375
3.56945
3.55632
3.53405
3.50926
3.50038
3.48788
3.47114
3.45506
3.4394
3.42486
3.41096
3.39706
3.38581
3.37533
3.36404
3.35335
3.33674
3.30866
3.27532
3.24694
3.23319
3.22761
3.22204
3.2186
3.21876
3.22039
3.21679
3.21147
3.20105
3.18014
3.15373
3.13889
3.13637
3.13554
3.13612
3.13603
3.13309