/*--------------------------------*- C++ -*----------------------------------*\
  =========                 |
  \\      /  F ield         | OpenFOAM: The Open Source CFD Toolbox
   \\    /   O peration     | Website:  https://openfoam.org
    \\  /    A nd           | Version:  7
     \\/     M anipulation  |
\*---------------------------------------------------------------------------*/
FoamFile
{
    version     2.0;
    format      ascii;
    class       volScalarField;
    location    "3";
    object      p;
}
// * * * * * * * * * * * * * * * * * * * * * * * * * * * * * * * * * * * * * //

dimensions      [1 -1 -2 0 0 0 0];

internalField   nonuniform List<scalar> 
4128
(
1
1
1
1
1
1
1
1
1
1
1
1
1
1
1
1
1
1
1
1
1
1
1
1
1
1
1
1
1
1
1
1
1
1
1
1
1
1
1
1
1
1
1
1
1
1
1
1
1
1
1.00002
1.00194
1.05127
1.30437
1.98971
3.37521
3.82774
3.81976
3.82916
3.8349
3.81393
3.72767
3.68455
3.69628
3.67391
3.59986
3.54105
3.51241
3.4741
3.44067
3.41549
3.36787
3.29996
3.23272
3.20898
3.20609
3.19837
3.17531
3.13836
3.07901
3.01585
2.97537
2.96979
2.96779
2.95624
2.9407
1
1
1
1
1
1
1
1
1
1
1
1
1
1
1
1
1
1
1
1
1
1
1
1
1
1
1
1
1
1
1
1
1
1
1
1
1
1
1
1
1
1
1
1
1
1
1
1
1
1
1
1
1
1.00001
1.00081
1.01448
1.13706
1.95933
3.17629
3.59381
3.81267
3.90632
3.84488
3.78146
3.76196
3.71898
3.67456
3.64371
3.62444
3.57216
3.51098
3.46385
3.41844
3.36732
3.31262
3.28574
3.27666
3.26631
3.24038
3.19674
3.13678
3.07519
3.03102
3.02529
3.03347
3.0278
3.01187
2.97905
1
1
1
1
1
1
1
1
1
1
1
1
1
1
1
1
1
1
1
1
1
1
1
1
1
1
1
1
1
1
1
1
1
1
1
1
1
1
1
1
1
1
1
1
1
1
1
1
1
1
1
1
1
1
1
1.00014
1.00552
1.12118
1.87391
2.81322
3.46958
3.8565
3.91717
3.88109
3.79333
3.71905
3.69458
3.69333
3.65251
3.59538
3.54582
3.49541
3.4404
3.38542
3.35503
3.34853
3.33537
3.30951
3.26542
3.20732
3.14239
3.09121
3.08199
3.09331
3.09798
3.08343
3.04891
2.97151
1
1
1
1
1
1
1
1
1
1
1
1
1
1
1
1
1
1
1
1
1
1
1
1
1
1
1
1
1
1
1
1
1
1
1
1
1
1
1
1
1
1
1
1
1
1
1
1
1
1
1
1
1
1
1
1
1.00007
1.00453
1.10855
1.5865
2.34346
3.45139
3.87874
3.85997
3.78237
3.74573
3.74675
3.70283
3.63945
3.6009
3.57372
3.53284
3.46497
3.42692
3.40893
3.38917
3.36586
3.32856
3.2788
3.22183
3.16312
3.14484
3.15205
3.15941
3.14857
3.11278
3.04163
2.95326
1
1
1
1
1
1
1
1
1
1
1
1
1
1
1
1
1
1
1
1
1
1
1
1
1
1
1
1
1
1
1
1
1
1
1
1
1
1
1
1
1
1
1
1
1
1
1
1
1
1
1
1
1
1
1
1
1
1.00005
1.00315
1.04761
1.27392
2.1512
3.42411
3.65753
3.73738
3.79867
3.78459
3.70106
3.66783
3.66169
3.62818
3.55373
3.50082
3.47589
3.44772
3.41731
3.37902
3.33643
3.29656
3.25476
3.22151
3.21375
3.20926
3.19557
3.16435
3.107
3.0332
2.95629
1
1
1
1
1
1
1
1
1
1
1
1
1
1
1
1
1
1
1
1
1
1
1
1
1
1
1
1
1
1
1
1
1
1
1
1
1
1
1
1
1
1
1
1
1
1
1
1
1
1
1
1
1
1
1
1
1
1
1.00002
1.00073
1.0146
1.18316
2.07701
3.06291
3.5217
3.77693
3.81823
3.77958
3.74389
3.68671
3.63196
3.59663
3.57657
3.52954
3.48317
3.44144
3.38906
3.35141
3.33449
3.31325
3.29134
3.26937
3.24234
3.20631
3.15929
3.10304
3.04068
2.99343
1
1
1
1
1
1
1
1
1
1
1
1
1
1
1
1
1
1
1
1
1
1
1
1
1
1
1
1
1
1
1
1
1
1
1
1
1
1
1
1
1
1
1
1
1
1
1
1
1
1
1
1
1
1
1
1
1
1
1
1
1.0002
1.00856
1.15549
1.85198
2.64726
3.42951
3.80728
3.8162
3.75052
3.675
3.6532
3.64963
3.59435
3.54639
3.51986
3.48283
3.42539
3.40788
3.3974
3.36999
3.33151
3.29225
3.25084
3.20517
3.15715
3.11357
3.07779
3.05361
1
1
1
1
1
1
1
1
1
1
1
1
1
1
1
1
1
1
1
1
1
1
1
1
1
1
1
1
1
1
1
1
1
1
1
1
1
1
1
1
1
1
1
1
1
1
1
1
1
1
1
1
1
1
1
1
1
1
1
1
1
1.00012
1.00627
1.10178
1.46567
2.25585
3.47315
3.73531
3.69905
3.6955
3.71374
3.68201
3.59905
3.56855
3.54188
3.49313
3.47429
3.47267
3.44913
3.40187
3.34895
3.29922
3.25195
3.20434
3.17135
3.1524
3.13699
3.12109
1
1
1
1
1
1
1
1
1
1
1
1
1
1
1
1
1
1
1
1
1
1
1
1
1
1
1
1
1
1
1
1
1
1
1
1
1
1
1
1
1
1
1
1
1
1
1
1
1
1
1
1
1
1
1
1
1
1
1
1
1
1
1.00006
1.00244
1.03283
1.24153
2.18894
3.25884
3.53554
3.67873
3.74266
3.71626
3.68618
3.6574
3.59296
3.54182
3.53744
3.51257
3.45901
3.40121
3.35079
3.30432
3.25984
3.23229
3.22087
3.21821
3.19983
3.17627
1
1
1
1
1
1
1
1
1
1
1
1
1
1
1
1
1
1
1
1
1
1
1
1
1
1
1
1
1
1
1
1
1
1
1
1
1
1
1
1
1
1
1
1
1
1
1
1
1
1
1
1
1
1
1
1
1
1
1
1
1
1
1
1.00001
1.0005
1.01356
1.19211
2.00803
2.90979
3.46828
3.72615
3.72926
3.68483
3.66351
3.63056
3.5952
3.58151
3.53413
3.46552
3.40718
3.35333
3.31029
3.28956
3.28577
3.29663
3.28096
3.24258
3.1909
1
1
1
1
1
1
1
1
1
1
1
1
1
1
1
1
1
1
1
1
1
1
1
1
1
1
1
1
1
1
1
1
1
1
1
1
1
1
1
1
1
1
1
1
1
1
1
1
1
1
1
1
1
1
1
1
1
1
1
1
1
1
1
1
1
1.00021
1.0091
1.15472
1.7003
2.49401
3.33885
3.73352
3.77321
3.72835
3.64102
3.58916
3.57746
3.53578
3.47061
3.42341
3.38055
3.36146
3.3609
3.36855
3.35035
3.3
3.24287
3.1935
1
1
1
1
1
1
1
1
1
1
1
1
1
1
1
1
1
1
1
1
1
1
1
1
1
1
1
1
1
1
1
1
1
1
1
1
1
1
1
1
1
1
1
1
1
1
1
1
1
1
1
1
1
1
1
1
1
1
1
1
1
1
1
1
1
1
1.00013
1.00594
1.0675
1.3844
2.18959
3.24778
3.59574
3.68724
3.66876
3.65013
3.61427
3.5488
3.48662
3.46156
3.4382
3.42916
3.43084
3.41401
3.36313
3.30183
3.24558
3.19639
1
1
1
1
1
1
1
1
1
1
1
1
1
1
1
1
1
1
1
1
1
1
1
1
1
1
1
1
1
1
1
1
1
1
1
1
1
1
1
1
1
1
1
1
1
1
1
1
1
1
1
1
1
1
1
1
1
1
1
1
1
1
1
1
1
1
1
1.00004
1.00142
1.02399
1.22059
1.97746
3.17548
3.56573
3.57329
3.57185
3.57674
3.5679
3.55713
3.55411
3.5277
3.48619
3.45779
3.41975
3.36449
3.31158
3.25556
3.2057
1
1
1
1
1
1
1
1
1
1
1
1
1
1
1
1
1
1
1
1
1
1
1
1
1
1
1
1
1
1
1
1
1
1
1
1
1
1
1
1
1
1
1
1
1
1
1
1
1
1
1
1
1
1
1
1
1
1
1
1
1
1
1
1
1
1
1
1
1.00001
1.00033
1.01198
1.15604
1.81892
2.87041
3.33651
3.5289
3.61796
3.6477
3.64962
3.6379
3.59171
3.5073
3.45916
3.41605
3.36419
3.31827
3.27025
3.24219
1
1
1
1
1
1
1
1
1
1
1
1
1
1
1
1
1
1
1
1
1
1
1
1
1
1
1
1
1
1
1
1
1
1
1
1
1
1
1
1
1
1
1
1
1
1
1
1
1
1
1
1
1
1
1
1
1
1
1
1
1
1
1
1
1
1
1
1
1
1
1.00017
1.00686
1.09499
1.56172
2.44671
3.10267
3.52575
3.68168
3.69046
3.67968
3.62835
3.51475
3.44698
3.41631
3.37498
3.34062
3.31836
3.31091
1
1
1
1
1
1
1
1
1
1
1
1
1
1
1
1
1
1
1
1
1
1
1
1
1
1
1
1
1
1
1
1
1
1
1
1
1
1
1
1
1
1
1
1
1
1
1
1
1
1
1
1
1
1
1
1
1
1
1
1
1
1
1
1
1
1
1
1
1
1
1
1.00007
1.00276
1.04518
1.32023
2.05619
2.93312
3.558
3.69306
3.69656
3.65997
3.53567
3.43395
3.40194
3.39091
3.39357
3.39315
3.38604
1
1
1
1
1
1
1
1
1
1
1
1
1
1
1
1
1
1
1
1
1
1
1
1
1
1
1
1
1
1
1
1
1
1
1
1
1
1
1
1
1
1
1
1
1
1
1
1
1
1
1
1
1
1
1
1
1
1
1
1
1
1
1
1
1
1
1
1
1
1
1
1
1.00002
1.00087
1.01798
1.18169
1.81383
2.76343
3.38184
3.69262
3.69106
3.59732
3.45909
3.42797
3.44013
3.47483
3.46887
3.4531
1
1
1
1
1
1
1
1
1
1
1
1
1
1
1
1
1
1
1
1
1
1
1
1
1
1
1
1
1
1
1
1
1
1
1
1
1
1
1
1
1
1
1
1
1
1
1
1
1
1
1
1
1
1
1
1
1
1
1
1
1
1
1
1
1
1
1
1
1
1
1
1
1
1
1.00028
1.00818
1.10351
1.62176
2.48208
3.36642
3.60131
3.53097
3.45612
3.46976
3.49582
3.53475
3.52274
3.50212
1
1
1
1
1
1
1
1
1
1
1
1
1
1
1
1
1
1
1
1
1
1
1
1
1
1
1
1
1
1
1
1
1
1
1
1
1
1
1
1
1
1
1
1
1
1
1
1
1
1
1
1
1
1
1
1
1
1
1
1
1
1
1
1
1
1
1
1
1
1
1
1
1
1
1
1.00009
1.00339
1.06461
1.38802
2.15384
3.15053
3.45479
3.47093
3.49266
3.51198
3.55741
3.5493
3.51534
1
1
1
1
1
1
1
1
1
1
1
1
1
1
1
1
1
1
1
1
1
1
1
1
1
1
1
1
1
1
1
1
1
1
1
1
1
1
1
1
1
1
1
1
1
1
1
1
1
1
1
1
1
1
1
1
1
1
1
1
1
1
1
1
1
1
1
1
1
1
1
1
1
1
1
1
1.00003
1.00149
1.02638
1.20342
1.88249
2.93351
3.28523
3.43462
3.56475
3.60963
3.588
3.5422
1
1
1
1
1
1
1
1
1
1
1
1
1
1
1
1
1
1
1
1
1
1
1
1
1
1
1
1
1
1
1
1
1
1
1
1
1
1
1
1
1
1
1
1
1
1
1
1
1
1
1
1
1
1
1
1
1
1
1
1
1
1
1
1
1
1
1
1
1
1
1
1
1
1
1
1
1
1.00001
1.00039
1.00964
1.1206
1.72502
2.59369
3.10474
3.51749
3.62324
3.61348
3.55119
1
1
1
1
1
1
1
1
1
1
1
1
1
1
1
1
1
1
1
1
1
1
1
1
1
1
1
1
1
1
1
1
1
1
1
1
1
1
1
1
1
1
1
1
1
1
1
1
1
1
1
1
1
1
1
1
1
1
1
1
1
1
1
1
1
1
1
1
1
1
1
1
1
1
1
1
1
1
1
1.00012
1.00485
1.07746
1.47065
2.15341
3.02214
3.58045
3.57918
3.51332
1
1
1
1
1
1
1
1
1
1
1
1
1
1
1
1
1
1
1
1
1
1
1
1
1
1
1
1
1
1
1
1
1
1
1
1
1
1
1
1
1
1
1
1
1
1
1
1
1
1
1
1
1
1
1
1
1
1
1
1
1
1
1
1
1
1
1
1
1
1
1
1
1
1
1
1
1
1
1
1
1.00005
1.00202
1.03437
1.23799
1.821
2.93995
3.35966
3.42067
1
1
1
1
1
1
1
1
1
1
1
1
1
1
1
1
1
1
1
1
1
1
1
1
1
1
1
1
1
1
1
1
1
1
1
1
1
1
1
1
1
1
1
1
1
1
1
1
1
1
1
1
1
1
1
1
1
1
1
1
1
1
1
1
1
1
1
1
1
1
1
1
1
1
1
1
1
1
1
1
1
1.00001
1.00053
1.01169
1.11063
1.6102
2.63817
3.13283
1
1
1
1
1
1
1
1
1
1
1
1
1
1
1
1
1
1
1
1
1
1
1
1
1
1
1
1
1
1
1
1
1
1
1
1
1
1
1
1
1
1
1
1
1
1
1
1
1
1
1
1
1
1
1
1
1
1
1
1
1
1
1
1
1
1
1
1
1
1
1
1
1
1
1
1
1
1
1
1
1
1
1
1.00012
1.00396
1.06109
1.48232
2.33101
1
1
1
1
1
1
1
1
1
1
1
1
1
1
1
1
1
1
1
1
1
1
1
1
1
1
1
1
1
1
1
1
1
1
1
1
1
1
1
1
1
1
1
1
1
1
1
1
1
1
1
1
1
1
1
1
1
1
1
1
1
1
1
1
1
1
1
1
1
1
1
1
1
1
1
1
1
1
1
1
1
1
1
1
1.00004
1.00202
1.04166
1.31443
1
1
1
1
1
1
1
1
1
1
1
1
1
1
1
1
1
1
1
1
1
1
1
1
1
1
1
1
1
1
1
1
1
1
1
1
1
1
1
1
1
1
1
1
1
1
1
1
1
1
1
1
1
1
1
1
1
1
1
1
1
1
1
1
1
1
1
1
1
1
1
1
1
1
1
1
1
1
1
1
1
1
1
1
1
1.00002
1.00089
1.01718
1
1
1
1
1
1
1
1
1
1
1
1
1
1
1
1
1
1
1
1
1
1
1
1
1
1
1
1
1
1
1
1
1
1
1
1
1
1
1
1
1
1
1
1
1
1
1
1
1
1
1
1
1
1
1
1
1
1
1
1
1
1
1
1
1
1
1
1
1
1
1
1
1
1
1
1
1
1
1
1
1
1
1
1
1
1
1
1.00018
1
1
1
1
1
1
1
1
1
1
1
1
1
1
1
1
1
1
1
1
1
1
1
1
1
1
1
1
1
1
1
1
1
1
1
1
1
1
1
1
1
1
1
1
1
1
1
1
1
1
1
1
1
1
1
1
1
1
1
1
1
1
1
1
1
1
1
1
1
1
1
1
1
1
1
1
1
1
1
1
1
1
1
1
1
1
1
1
1
1
1
1
1
1
1
1
1
1
1
1
1
1
1
1
1
1
1
1
1
1
1
1
1
1
1
1
1
1
1
1
1
1
1
1
1
1
1
1
1
1
1
1
1
1
1
1
1
1
1
1
1
1
1
1
1
1
1
1
1
1
1
1
1
1
1
1
1
1
1
1
1
1
1
1
1
1
1
1
1
1
1
1
1
1
1
1
1
1
1
1
1
1
1
1
1
1
1
1
1
1
1
1
1
1
1
1
1
1
1
1
1
1
1
1
1
1
1
1
1
1
1
1
1
1
1
1
1
1
1
1
1
1
1
1
1
1
1
1
1
1
1
1
1
1
1
1
1
1
1
1
1
1
1
1
1
1
1
1
1
1
1
1
1
1
1
1
1
1
1
1
1
1
1
1
1
1
1
1
1
1
1
1
1
1
1
1
1
1
1
1
1
1
1
1
1
1
1
1
1
1
1
1
1
1
1
1
1
1
1
1
1
1
1
1
1
1
1
1
1
1
1
1
1
1
1
1
1
1
1
1
1
1
1
1
1
1
1
1
1
1
1
1
1
1
1
1
1
1
1
1
1
1
1
1
1
1
1
1
1
1
1
1
1
1
1
1
1
1
1
1
1
1
1
1
1
1
1
1
1
1
1
1
1
1
1
1
1
1
1
1
1
1
1
1
1
1
1
1
1
1
1
1
1
1
1
1
1
1
1
1
1
1
1
1
1
1
1
1
1
1
1
1
1
1
1
1
1
1
1
1
1
1
1
1
1
1
1
1
1
1
1
1
1
1
1
1
1
1
1
1
1
1
1
1
1
1
1
1
1
1
1
1
1
1
1
1
1
1
1
1
1
1
1
1
1
1
1
1
1
1
1
1
1
1
1
1
1
1
1
1
1
1
1
1
1
1
1
1
1
1
1
1
1
1
1
1
1
1
1
1
1
1
1
1
1
1
1
1
1
1
1
1
1
1
1
1
1
1
1
1
1
1
1
1
1
1
1
1
1
1
1
1
1
1
1
1
1
1
1
1
1
1
1
1
1
1
1
1
1
1
1
1
1
1
1
1
1
1
1
1
1
1
1
1
1
1
1
1
1
1
1
1
1
1
1
1
1
1
1
1
1
1
1
1
1
1
1
1
1
1
1
1
1
1
1
1
1
1
1
1
1
1
1
1
1
1
1
1
1
1
1
1
1
1
1
1
2.90899
2.83745
2.77236
2.75646
2.74863
2.73411
2.71836
2.7038
2.68259
2.63457
2.56593
2.52635
2.51564
2.5081
2.50312
2.49727
2.49041
2.48031
2.45787
2.39972
2.33965
2.31471
2.30342
2.28935
2.27013
2.24132
2.21982
2.22573
2.30613
2.74422
2.90287
2.82484
2.79703
2.79627
2.79054
2.77567
2.76009
2.73867
2.69182
2.62048
2.57449
2.56274
2.5558
2.55277
2.54916
2.54276
2.5338
2.51396
2.4584
2.3877
2.35474
2.34727
2.33923
2.32347
2.30087
2.27453
2.24505
2.23247
2.24443
2.35216
2.8831
2.84014
2.83748
2.8431
2.83446
2.81854
2.79739
2.75202
2.67621
2.62324
2.61111
2.60318
2.60202
2.60107
2.59497
2.58686
2.56867
2.51675
2.44017
2.39922
2.39104
2.38586
2.37331
2.35044
2.32643
2.30608
2.28392
2.26363
2.25824
2.26846
2.89033
2.88048
2.88751
2.89191
2.87811
2.85803
2.81644
2.738
2.67358
2.6597
2.65246
2.65
2.6513
2.6443
2.63552
2.61961
2.57349
2.49642
2.44465
2.43592
2.43335
2.42281
2.40017
2.3727
2.35558
2.33911
2.32332
2.3092
2.29227
2.26926
2.92982
2.93211
2.9429
2.93872
2.92016
2.88129
2.80621
2.72978
2.70605
2.70184
2.69751
2.70033
2.69397
2.68265
2.66695
2.62697
2.55423
2.49267
2.47905
2.47865
2.47086
2.44887
2.41981
2.4028
2.39
2.37372
2.36268
2.35203
2.32467
2.27105
2.98528
2.99304
2.99613
2.97784
2.93939
2.87604
2.79573
2.75613
2.75158
2.74803
2.74946
2.7458
2.7331
2.7158
2.67814
2.61283
2.54859
2.52642
2.52565
2.51932
2.49634
2.46595
2.44886
2.4379
2.42788
2.41229
2.40176
2.38171
2.33329
2.26815
3.0489
3.05373
3.03587
2.99146
2.93559
2.86927
2.81404
2.80322
2.79956
2.80161
2.79802
2.78216
2.7583
2.72097
2.66583
2.60504
2.57684
2.57603
2.57092
2.54537
2.51105
2.49334
2.48354
2.47857
2.46883
2.4531
2.43278
2.38941
2.32406
2.27865
3.11373
3.09229
3.04803
2.99059
2.93333
2.88568
2.85788
2.84881
2.85084
2.85249
2.83719
2.80606
2.76501
2.7158
2.66001
2.62754
2.62492
2.62147
2.59591
2.55685
2.53645
2.52786
2.52455
2.5249
2.50909
2.48626
2.44292
2.37571
2.3246
2.31224
3.14089
3.09984
3.04865
2.991
2.95428
2.92679
2.90548
2.89604
2.90125
2.89184
2.8582
2.81299
2.76625
2.71641
2.67998
2.67329
2.66851
2.64439
2.60308
2.57857
2.57091
2.56819
2.57584
2.56497
2.54195
2.49928
2.42936
2.36994
2.35406
2.34908
3.14374
3.09815
3.04659
3.01512
2.99562
2.97586
2.95665
2.94827
2.94231
2.91044
2.86272
2.81543
2.77456
2.73963
2.72497
2.71573
2.69304
2.64987
2.61949
2.61248
2.60985
2.62045
2.61707
2.59609
2.55673
2.48856
2.41882
2.39577
2.39202
2.39062
3.14948
3.10256
3.0725
3.05682
3.04662
3.02916
3.01073
2.9954
2.96197
2.91321
2.86301
2.82797
2.79969
2.77745
2.76502
2.74426
2.70108
2.66282
2.65509
2.65162
2.66093
2.66333
2.64467
2.61024
2.54797
2.47181
2.44083
2.43716
2.43548
2.44667
3.15246
3.1264
3.11527
3.11517
3.10554
3.08448
3.05672
3.01486
2.96476
2.91363
2.88087
2.85803
2.83034
2.81377
2.79565
2.7552
2.71116
2.70033
2.6968
2.70228
2.70632
2.68874
2.65836
2.60358
2.52715
2.48825
2.48468
2.48307
2.49318
2.50246
3.18075
3.17438
3.17577
3.18311
3.15885
3.1218
3.06934
3.01324
2.96299
2.93289
2.91653
2.891
2.86215
2.84366
2.80938
2.76382
2.7476
2.74582
2.74761
2.74891
2.73138
2.70285
2.65355
2.58178
2.53701
2.53294
2.53294
2.5419
2.5528
2.54037
3.23903
3.23979
3.25113
3.23268
3.1863
3.12874
3.06662
3.01
2.9783
2.96865
2.9556
2.92421
2.89385
2.86345
2.81893
2.79629
2.79683
2.7956
2.79169
2.77392
2.74648
2.69984
2.63339
2.58627
2.58004
2.58306
2.59241
2.60352
2.59259
2.56646
3.30552
3.30915
3.29959
3.25057
3.1896
3.12842
3.0662
3.02208
3.01228
3.00959
2.98985
2.95494
2.92236
2.87736
2.84432
2.84633
2.84482
2.83577
2.81695
2.79021
2.74525
2.68388
2.63502
2.62515
2.63131
2.64281
2.65367
2.64357
2.61859
2.56928
3.3749
3.3579
3.31158
3.24579
3.18732
3.13414
3.08138
3.0621
3.05795
3.05298
3.02689
2.99156
2.95087
2.89804
2.88857
2.89045
2.88083
2.8618
2.83202
2.79029
2.73592
2.686
2.67076
2.67844
2.69227
2.70233
2.69241
2.66792
2.62042
2.54642
3.43118
3.37349
3.29162
3.22587
3.18843
3.14635
3.12095
3.11688
3.11322
3.10388
3.0773
3.04047
2.97829
2.93168
2.92785
2.92105
2.90609
2.87929
2.84045
2.79094
2.74077
2.72053
2.72826
2.74122
2.746
2.73601
2.71287
2.66655
2.59919
2.53621
3.46632
3.36764
3.26429
3.21994
3.19556
3.18012
3.17887
3.18024
3.18298
3.16593
3.12514
3.06235
2.99602
2.96572
2.95759
2.94485
2.92354
2.88957
2.84533
2.79673
2.77395
2.78067
2.79255
2.78863
2.77557
2.75178
2.70819
2.649
2.59053
2.56485
3.46063
3.35338
3.26938
3.24279
3.23461
3.24181
3.25017
3.25006
3.24513
3.20815
3.13699
3.06922
3.01924
2.9965
2.98351
2.96579
2.93819
2.90032
2.85605
2.82724
2.83196
2.84141
2.83278
2.81457
2.78911
2.74961
2.6976
2.64439
2.61713
2.61954
3.45166
3.33216
3.28835
3.28163
3.29507
3.32395
3.31839
3.30486
3.27523
3.2091
3.12866
3.07547
3.04447
3.02431
3.00835
2.9895
2.96255
2.92958
2.89993
2.88699
2.8849
2.87285
2.85188
2.82607
2.79205
2.74659
2.6973
2.67042
2.67192
2.67598
3.43627
3.35019
3.33755
3.34739
3.37254
3.36902
3.35893
3.33486
3.27331
3.18629
3.12437
3.09182
3.07182
3.05504
3.04194
3.02877
3.00965
2.98996
2.96656
2.93257
2.90805
2.88642
2.86126
2.83212
2.79467
2.75078
2.72498
2.72434
2.72186
2.6996
3.43476
3.39276
3.39287
3.4142
3.41156
3.39467
3.37721
3.33239
3.2358
3.16393
3.13689
3.12078
3.11023
3.10202
3.09697
3.09287
3.07368
3.03977
2.98887
2.94651
2.91961
2.89544
2.86999
2.84322
2.81122
2.78662
2.77914
2.76442
2.73388
2.69942
3.43971
3.43923
3.45465
3.45104
3.44429
3.42753
3.38501
3.29415
3.2046
3.17885
3.17153
3.16807
3.16671
3.16619
3.16988
3.15289
3.10438
3.04518
2.99425
2.95681
2.92921
2.90784
2.89194
2.87437
2.85469
2.84007
2.81129
2.76891
2.73107
2.69925
3.34404
3.46346
3.51542
3.5124
3.50109
3.44362
3.35549
3.26043
3.22741
3.2247
3.22822
3.2321
3.23248
3.23264
3.21829
3.16921
3.1002
3.04052
2.99955
2.96846
2.95043
2.94151
2.93667
2.92544
2.90362
2.8623
2.80756
2.76374
2.73249
2.72124
2.88004
3.3582
3.55182
3.55675
3.50105
3.41719
3.3354
3.28802
3.28583
3.28726
3.29505
3.29393
3.28141
3.26491
3.22317
3.15446
3.09048
3.04583
3.01389
3.00073
2.99604
2.99877
2.99391
2.96718
2.91488
2.85328
2.79741
2.77388
2.77272
2.84048
1.85982
2.68755
3.47109
3.4991
3.43241
3.40423
3.3594
3.33895
3.34194
3.34399
3.36161
3.33101
3.29016
3.26161
3.20363
3.13929
3.09986
3.06714
3.056
3.05533
3.06013
3.05639
3.0244
2.97012
2.89831
2.84227
2.82441
2.85435
3.091
3.94788
1.13021
1.54935
2.64045
3.20757
3.32623
3.40263
3.40725
3.39999
3.39485
3.42295
3.39778
3.32333
3.29011
3.2518
3.19414
3.14959
3.13142
3.12075
3.11524
3.11561
3.11037
3.07606
3.01854
2.94798
2.89447
2.89529
3.0391
3.71837
4.94732
6.3707
1.00456
1.05632
1.41225
2.32857
2.91835
3.23842
3.42318
3.4769
3.48029
3.44255
3.36539
3.32751
3.30942
3.2546
3.20469
3.18988
3.19379
3.18048
3.16883
3.15427
3.12002
3.0648
2.9976
2.96431
3.02693
3.45962
4.65165
6.26196
7.11719
7.11653
1.00004
1.00157
1.03087
1.31176
1.96534
2.56603
3.26418
3.47941
3.47122
3.41348
3.36894
3.36546
3.31503
3.26044
3.24919
3.26546
3.25442
3.22741
3.20237
3.1621
3.10867
3.05034
3.06424
3.35297
4.35608
5.78474
7.13849
7.55165
7.53582
7.36404
1
1.00001
1.00073
1.01969
1.16258
1.51964
2.4155
3.2627
3.34185
3.38327
3.4065
3.39003
3.32395
3.31453
3.34369
3.32301
3.27477
3.25235
3.21587
3.15293
3.13586
3.25978
3.98657
5.53462
7.11121
7.66499
7.57481
7.47097
7.43219
7.37422
1
1
1
1.00028
1.00591
1.05305
1.34522
2.2825
2.91171
3.22187
3.3987
3.42144
3.41413
3.39986
3.34942
3.30528
3.2896
3.26591
3.21555
3.2585
3.7102
4.99786
6.73555
7.82497
8.0714
8.03263
7.77346
7.44981
7.33025
7.33527
1
1
1
1
1.00004
1.00139
1.02487
1.26579
1.95967
2.5429
3.13427
3.39684
3.41162
3.38135
3.33459
3.31312
3.30825
3.32086
3.56685
4.53304
6.28952
7.83906
8.11901
7.99305
7.91961
7.87322
7.76862
7.5734
7.42361
7.37447
1
1
1
1
1
1.00001
1.00053
1.01559
1.16314
1.50177
2.20783
3.11482
3.31494
3.29612
3.31107
3.39611
3.60887
4.24253
5.75245
7.51371
8.55682
8.6509
8.45022
7.97905
7.72588
7.70332
7.70793
7.64597
7.52464
7.40066
1
1
1
1
1
1
1
1.00024
1.00591
1.04693
1.25894
2.08685
2.82502
3.14468
3.68487
4.43125
5.29362
6.75543
7.85351
8.54906
8.62005
8.37809
8.111
7.96361
7.84622
7.76461
7.72828
7.69543
7.61957
7.45426
1
1
1
1
1
1
1
1
1.00004
1.00107
1.01653
1.23279
2.02678
3.25431
4.80654
6.79314
8.6811
10.236
10.1223
9.51143
8.61913
8.06847
7.86061
7.86027
7.82732
7.79808
7.70966
7.66175
7.597
7.43499
)
;

boundaryField
{
    inlet
    {
        type            fixedValue;
        value           nonuniform 0();
    }
    outlet
    {
        type            zeroGradient;
    }
    bottom
    {
        type            zeroGradient;
    }
    top
    {
        type            zeroGradient;
    }
    obstacle
    {
        type            zeroGradient;
    }
    defaultFaces
    {
        type            empty;
    }
    procBoundary13to9
    {
        type            processor;
        value           nonuniform List<scalar> 
119
(
1
1
1
1
1
1
1
1
1
1
1
1
1
1
1
1
1
1
1
1
1
1
1
1
1
1
1
1
1
1
1
1
1
1
1
1
1
1
1
1
1
1
1
1
1
1
1
1
1
1.00003
1.00208
1.06844
1.60591
2.43643
3.35063
3.90906
3.93904
3.87023
3.80757
3.77962
3.78861
3.75711
3.67507
3.63839
3.62366
3.56779
3.48244
3.45666
3.44619
3.41676
3.38567
3.34605
3.28676
3.2151
3.16516
3.14684
3.14057
3.1273
3.1064
3.07567
3.01928
2.95821
2.92432
2.91131
2.8965
2.88442
1
1
1
2.86791
2.83834
2.77219
2.72887
2.71319
2.6964
2.67831
2.66236
2.6481
2.62755
2.5798
2.51707
2.48146
2.47004
2.46186
2.45455
2.44558
2.43644
2.42464
2.39946
2.34574
2.29683
2.26881
2.25242
2.23292
2.21436
2.21583
2.27448
2.61504
3.46876
)
;
    }
    procBoundary13to10
    {
        type            processor;
        value           nonuniform List<scalar> 3(3.53481 2.81937 2.37214);
    }
    procBoundary13to12
    {
        type            processor;
        value           nonuniform List<scalar> 
34
(
1
1
1
1
1
1
1
1
1
1
1
1
1
1
1
1
1
1
1
1
1
1
1
1
1
1
1
1
1
1
1
1
1
1
)
;
    }
    procBoundary13to14
    {
        type            processor;
        value           nonuniform List<scalar> 
32
(
2.25673
2.23922
2.24365
2.26762
2.30499
2.34863
2.40307
2.45257
2.48815
2.51261
2.51534
2.49248
2.48389
2.51441
2.56849
2.62724
2.66396
2.66929
2.66865
2.6777
2.73294
3.24373
5.39591
7.00552
7.02507
7.10323
7.2716
7.31369
7.32391
7.27943
7.25019
7.23233
)
;
    }
}


// ************************************************************************* //
