/*--------------------------------*- C++ -*----------------------------------*\
  =========                 |
  \\      /  F ield         | OpenFOAM: The Open Source CFD Toolbox
   \\    /   O peration     | Website:  https://openfoam.org
    \\  /    A nd           | Version:  7
     \\/     M anipulation  |
\*---------------------------------------------------------------------------*/
FoamFile
{
    version     2.0;
    format      ascii;
    class       volScalarField;
    location    "1.1";
    object      T;
}
// * * * * * * * * * * * * * * * * * * * * * * * * * * * * * * * * * * * * * //

dimensions      [0 0 0 1 0 0 0];

internalField   nonuniform List<scalar> 
4040
(
1
1
1
1
1
1
1
1
1
1
1
1
1
1
1.04552
2.31932
2.72682
2.79008
2.8296
2.84669
2.85267
2.86615
2.8935
2.91518
1
1
1
1
1
1
1
1
1
1
1
1
1
1
1.01224
2.29436
2.72362
2.78917
2.82694
2.84284
2.84775
2.86069
2.88708
2.90756
1
1
1
1
1
1
1
1
1
1
1
1
1
1
1.00012
2.2415
2.71942
2.78752
2.82181
2.83499
2.83754
2.84882
2.8774
2.90458
1
1
1
1
1
1
1
1
1
1
1
1
1
1
1
2.1571
2.71017
2.78248
2.81143
2.82399
2.82808
2.84298
2.87512
2.9246
1
1
1
1
1
1
1
1
1
1
1
1
1
1
1
2.03517
2.68947
2.77074
2.796
2.80813
2.81236
2.82309
2.83065
2.86022
1
1
1
1
1
1
1
1
1
1
1
1
1
1
1
1.87105
2.64833
2.74947
2.77723
2.78917
2.79172
2.7951
2.79401
2.82856
1
1
1
1
1
1
1
1
1
1
1
1
1
1
1
1.63589
2.56241
2.71319
2.74973
2.76602
2.76798
2.76581
2.76287
2.78651
1
1
1
1
1
1
1
1
1
1
1
1
1
1
1
1.29397
2.42536
2.67705
2.71136
2.73174
2.73435
2.72974
2.72535
2.74519
1
1
1
1
1
1
1
1
1
1
1
1
1
1
1
1.02277
2.28158
2.64038
2.66766
2.68806
2.69422
2.69054
2.68392
2.68294
1
1
1
1
1
1
1
1
1
1
1
1
1
1
1
1.00011
2.05528
2.59586
2.64149
2.65442
2.65959
2.65539
2.64195
2.61576
1
1
1
1
1
1
1
1
1
1
1
1
1
1
1
1
1.64627
2.48536
2.61267
2.62526
2.62794
2.6209
2.60216
2.56479
1
1
1
1
1
1
1
1
1
1
1
1
1
1
1
1
1.1128
2.29871
2.58211
2.59448
2.59456
2.58585
2.56391
2.52674
1
1
1
1
1
1
1
1
1
1
1
1
1
1
1
1
1.00313
2.04653
2.50725
2.5631
2.5592
2.54843
2.52656
2.48982
1
1
1
1
1
1
1
1
1
1
1
1
1
1
1
1
0.999989
1.51629
2.37175
2.53191
2.52117
2.51115
2.48888
2.45194
1
1
1
1
1
1
1
1
1
1
1
1
1
1
1
1
0.999997
1.06271
2.17423
2.48471
2.47229
2.46955
2.45052
2.4175
1
1
1
1
1
1
1
1
1
1
1
1
1
1
1
1
1
1.0007
1.73265
2.37275
2.4517
2.43862
2.41773
2.38633
1
1
1
1
1
1
1
1
1
1
1
1
1
1
1
1
1
1
1.14394
2.16551
2.42318
2.4048
2.38603
2.35644
1
1
1
1
1
1
1
1
1
1
1
1
1
1
1
1
1
1
1.00398
1.74908
2.30358
2.37641
2.35453
2.32734
1
1
1
1
1
1
1
1
1
1
1
1
1
1
1
1
1
1
1.00001
1.1652
2.09297
2.3485
2.32304
2.30029
1
1
1
1
1
1
1
1
1
1
1
1
1
1
1
1
1
1
1
1.00527
1.60176
2.19826
2.29771
2.27071
1
1
1
1
1
1
1
1
1
1
1
1
1
1
1
1
1
1
1
1.00002
1.10146
1.95075
2.26813
2.24642
1
1
1
1
1
1
1
1
1
1
1
1
1
1
1
1
1
1
1
1
1.00205
1.39544
2.08365
2.22547
1
1
1
1
1
1
1
1
1
1
1
1
1
1
1
1
1
1
1
1
1.00001
1.03685
1.69897
2.12435
1
1
1
1
1
1
1
1
1
1
1
1
1
1
1
1
1
1
1
1
1
1.00044
1.16734
1.86777
1
1
1
1
1
1
1
1
1
1
1
1
1
1
1
1
1
1
1
1
1
1
1.00591
1.35572
1
1
1
1
1
1
1
1
1
1
1
1
1
1
1
1
1
1
1
1
1
1
1.00004
1.0312
1
1
1
1
1
1
1
1
1
1
1
1
1
1
1
1
1
1
1
1
1
1
1
1.00039
1
1
1
1
1
1
1
1
1
1
1
1
1
1
1
1
1
1
1
1
1
1
1
1
1
1
1
1
1
1
1
1
1
1
1
1
1
1
1
1
1
1
1
1
1
1
1
1
1
1
1
1
1
1
1
1
1
1
1
1
1
1
1
1
1
1
1
1
1
1
1
1
1
1
1
1
1
1
1
1
1
1
1
1
1
1
1
1
1
1
1
1
1
1
1
1
1
1
1
1
1
1
1
1
1
1
1
1
1
1
1
1
1
1
1
1
1
1
1
1
1
1
1
1
1
1
1
1
1
1
1
1
1
1
1
1
1
1
1
1
1
1
1
1
1
1
1
1
1
1
1
1
1
1
1
1
1
1
1
1
1
1
1
1
1
1
1
1
1
1
1
1
1
1
1
1
1
1
1
1
1
1
1
1
1
1
1
1
1
1
1
1
1
1
1
1
1
1
1
1
1
1
1
1
1
1
1
1
1
1
1
1
1
1
1
1
1
1
1
1
1
1
1
1
1
1
1
1
1
1
1
1
1
1
1
1
1
1
1
1
1
1
1
1
1
1
1
1
1
1
1
1
1
1
1
1
1
1
1
1
1
1
1
1
1
1
1
1
1
1
1
1
1
1
1
1
1
1
1
1
1
1
1
1
1
1
1
1
1
1
1
1
1
1
1
1
1
1
1
1
1
1
1
1
1
1
1
1
1
1
1
1
2.81707
2.87817
2.87945
2.94328
2.8469
2.90938
2.81834
2.93279
2.67943
2.63682
2.5734
2.45459
2.50158
2.35746
2.44827
2.31471
2.41228
2.30878
2.38555
2.30228
2.36315
2.29499
2.34075
2.28466
2.31645
2.26989
2.29307
2.25415
2.27005
2.23567
2.24507
2.21643
2.22394
2.19708
2.19482
2.17234
2.17775
2.15349
2.14355
2.13416
1.95404
2.10612
1.52331
1.97546
1.0849
1.63713
1.00194
1.15923
1.00001
1.00614
1
1.00004
1
1
1
1
1
1
1
1
1
1
1
1
1
1
1
1
1
1
1
1
1.87125
1.42598
1.29819
1.24868
1.26367
1.37925
1.48369
1.57937
1.72952
1.83486
1.8344
1.81644
1.81252
1.81821
1.82695
1.82455
1.8175
1.82195
1.83208
1.83157
1.82581
1.80754
1.78049
1.76802
1.76789
1.77308
1.78061
1.78056
1.77044
1.75573
1.74883
1.7476
1.74898
1.75403
1.76148
1.76937
1.77101
1.77019
1.7685
1.76241
1.74995
1.74183
1.74161
1.74191
1.74244
1.74247
1.73911
1.73027
1.72021
1.71316
1.70949
1.7093
1.70987
1.70994
1.71007
1.70997
1.70872
1.70516
1.69688
1.68581
1.67789
1.6706
1.6627
1.65487
1.64709
1.64132
1.63425
1.62331
1.61438
1.6124
1.61357
1.61478
1.61825
1.62409
1.63111
1.6376
1.64281
1.64729
1.65175
1.6564
1.66556
1.68236
1.70756
1.74139
1.78314
1.82839
1.87048
1.90663
1.93828
1.96422
1.9826
1.99827
2.01273
2.06205
2.04334
1.77495
1.69615
1.58137
1.44178
1.44121
1.43225
1.43939
1.47689
1.53354
1.56928
1.59522
1.62569
1.66296
1.69508
1.7083
1.71667
1.73033
1.74315
1.74801
1.74718
1.74109
1.72599
1.71894
1.72114
1.73253
1.73965
1.73932
1.73197
1.72091
1.71763
1.71752
1.71904
1.72336
1.73053
1.73436
1.73464
1.73574
1.73701
1.73627
1.73038
1.72392
1.72205
1.72118
1.72026
1.71876
1.71462
1.70558
1.69567
1.69063
1.68782
1.68553
1.68601
1.68618
1.68592
1.68565
1.6849
1.68231
1.67546
1.66515
1.65855
1.65296
1.64671
1.64084
1.63579
1.63026
1.62312
1.61309
1.60299
1.59503
1.5924
1.59315
1.59732
1.60568
1.61633
1.63082
1.65012
1.6739
1.701
1.72943
1.76042
1.79392
1.82885
1.86487
1.89964
1.92971
1.95567
1.97472
1.993
2.00842
2.01884
2.02529
2.03052
2.0434
2.10802
1.89725
1.78073
1.67872
1.57284
1.51532
1.46714
1.40564
1.37831
1.39092
1.41174
1.43574
1.46577
1.50451
1.53407
1.55217
1.57058
1.59245
1.61422
1.62956
1.64316
1.64874
1.64539
1.64194
1.6462
1.65613
1.65619
1.65115
1.64278
1.63615
1.63428
1.63494
1.63885
1.64592
1.65644
1.66394
1.66746
1.66969
1.6705
1.67023
1.66838
1.66612
1.66453
1.6632
1.6617
1.65914
1.65442
1.64603
1.63703
1.63449
1.63475
1.63539
1.63615
1.63616
1.63554
1.63431
1.63252
1.62921
1.62132
1.61217
1.60737
1.6024
1.59691
1.59043
1.58448
1.57875
1.57127
1.56116
1.55135
1.54955
1.5536
1.565
1.58364
1.61235
1.65132
1.69619
1.73946
1.77686
1.80553
1.82873
1.85183
1.8714
1.88902
1.90215
1.91163
1.92135
1.93063
1.94076
1.95267
1.96452
1.97149
1.97606
1.97947
1.98175
2.13488
1.97879
1.86789
1.76848
1.66437
1.60782
1.55811
1.4903
1.43285
1.42504
1.40309
1.38081
1.38635
1.40167
1.41065
1.42431
1.4462
1.47088
1.49126
1.50746
1.52249
1.53807
1.55144
1.55734
1.56664
1.57677
1.57655
1.57241
1.56497
1.55676
1.55111
1.55079
1.55282
1.55838
1.56702
1.57621
1.58292
1.58562
1.58637
1.58697
1.58789
1.58779
1.5868
1.58512
1.5829
1.57947
1.57471
1.56828
1.56231
1.56128
1.56175
1.56301
1.56424
1.56415
1.56343
1.56247
1.56153
1.55946
1.55356
1.54756
1.54408
1.5394
1.53267
1.52322
1.51542
1.51019
1.50747
1.50487
1.50885
1.52173
1.54817
1.58797
1.63314
1.67881
1.71943
1.75258
1.77578
1.79196
1.80207
1.80973
1.81767
1.82537
1.83102
1.83436
1.83423
1.83432
1.83614
1.84018
1.84722
1.85582
1.86441
1.87293
1.88127
1.88896
2.17415
2.04126
1.93696
1.85009
1.75729
1.68874
1.62903
1.55566
1.49741
1.47597
1.44583
1.40313
1.38276
1.38042
1.37558
1.37473
1.38074
1.39319
1.40722
1.42512
1.44167
1.45748
1.47498
1.48431
1.49328
1.50338
1.51099
1.511
1.51
1.50974
1.5091
1.50839
1.5085
1.51021
1.51239
1.51429
1.51585
1.51543
1.51515
1.51669
1.52151
1.52614
1.52663
1.52622
1.52426
1.51886
1.51081
1.5036
1.49811
1.49587
1.49608
1.49671
1.49746
1.49801
1.49799
1.49762
1.4964
1.49291
1.48772
1.48401
1.48133
1.47814
1.47426
1.47161
1.47407
1.48321
1.50383
1.53527
1.57411
1.61184
1.64753
1.67723
1.69729
1.71378
1.72547
1.73188
1.73927
1.73944
1.7377
1.73788
1.74145
1.74535
1.74824
1.74868
1.74699
1.74241
1.73867
1.73885
1.74231
1.74973
1.75988
1.77029
1.78137
1.79557
2.19785
2.09094
1.99846
1.90948
1.81959
1.75681
1.70527
1.63439
1.56757
1.53662
1.50484
1.46271
1.43536
1.4204
1.39601
1.37304
1.36871
1.36692
1.36189
1.36373
1.37458
1.39338
1.41424
1.42937
1.43956
1.45175
1.46412
1.46817
1.46795
1.47009
1.4735
1.47601
1.47768
1.48168
1.48557
1.48496
1.48218
1.47801
1.47665
1.47726
1.47954
1.48277
1.48553
1.48554
1.48433
1.47858
1.46966
1.46329
1.45891
1.45711
1.45703
1.45678
1.45687
1.45734
1.4574
1.45561
1.45004
1.44453
1.44272
1.44369
1.44504
1.44851
1.45946
1.48351
1.52242
1.56722
1.6108
1.64497
1.67118
1.6875
1.69798
1.69939
1.69972
1.69703
1.69565
1.69403
1.69046
1.68484
1.68048
1.68108
1.68423
1.68115
1.68045
1.6816
1.68056
1.67303
1.66202
1.65802
1.65872
1.66494
1.67775
1.69045
1.70264
1.71837
2.21255
2.12373
2.0421
1.96517
1.88419
1.8143
1.75805
1.69458
1.63803
1.60253
1.56581
1.5133
1.47891
1.45729
1.42907
1.39029
1.37017
1.36291
1.35009
1.34837
1.35425
1.36111
1.36745
1.37131
1.3784
1.39215
1.40965
1.42515
1.43485
1.44133
1.44742
1.45082
1.45351
1.45774
1.46367
1.46747
1.46678
1.46404
1.46201
1.46118
1.4599
1.45927
1.4589
1.45815
1.45648
1.45091
1.44368
1.44142
1.44095
1.44149
1.44141
1.44076
1.44019
1.4389
1.43549
1.42853
1.42191
1.42285
1.42836
1.44393
1.47492
1.51965
1.57353
1.61933
1.658
1.68094
1.68716
1.69418
1.69427
1.69391
1.69267
1.68836
1.68263
1.67669
1.6684
1.65839
1.64839
1.63989
1.63682
1.63752
1.63672
1.63035
1.62444
1.62082
1.61659
1.60631
1.59334
1.59106
1.59333
1.60145
1.61558
1.63036
1.64086
1.65453
2.21499
2.14136
2.0735
2.0009
1.92495
1.86788
1.81356
1.7452
1.68731
1.65191
1.61483
1.57041
1.53536
1.50817
1.47548
1.43274
1.40928
1.39631
1.37783
1.35908
1.35915
1.35874
1.34797
1.33634
1.33602
1.34037
1.35259
1.37084
1.39306
1.40875
1.42134
1.42693
1.4301
1.43454
1.44169
1.44978
1.4547
1.45474
1.454
1.45275
1.45066
1.44744
1.44371
1.44073
1.43836
1.43426
1.42822
1.42697
1.4276
1.42939
1.42985
1.4292
1.42782
1.42656
1.42211
1.41975
1.4279
1.45814
1.51262
1.57924
1.64125
1.68358
1.70398
1.71696
1.71133
1.70358
1.69492
1.68743
1.6821
1.68286
1.68161
1.67399
1.66301
1.64941
1.63079
1.61172
1.59786
1.58945
1.58569
1.5835
1.57817
1.57006
1.56369
1.5599
1.55738
1.55191
1.54271
1.54044
1.54327
1.55135
1.5673
1.57951
1.58691
1.59781
2.21269
2.15031
2.09072
2.02971
1.96296
1.90373
1.85134
1.79047
1.73881
1.70049
1.65844
1.60763
1.57704
1.55149
1.52157
1.47947
1.45211
1.43104
1.40693
1.37895
1.36875
1.35973
1.34414
1.33032
1.32852
1.32964
1.33077
1.33352
1.3437
1.35877
1.37157
1.38386
1.39386
1.40307
1.41371
1.42829
1.43824
1.44477
1.44704
1.44565
1.44202
1.43833
1.43442
1.4307
1.42692
1.4236
1.41916
1.41655
1.41509
1.41539
1.41659
1.41912
1.41993
1.42685
1.45029
1.49479
1.55925
1.63484
1.68752
1.72865
1.74568
1.74307
1.73336
1.72087
1.70609
1.69252
1.68231
1.67543
1.66873
1.65813
1.64723
1.63474
1.62097
1.6052
1.58675
1.56979
1.55691
1.54768
1.54331
1.54015
1.5317
1.52229
1.51511
1.51077
1.5077
1.50499
1.50178
1.50133
1.50488
1.51473
1.52419
1.52672
1.5314
1.54039
2.20577
2.15213
2.10064
2.0434
1.98438
1.9354
1.88471
1.82479
1.77449
1.73565
1.6964
1.65286
1.61784
1.58742
1.55368
1.51534
1.49244
1.47226
1.4494
1.41951
1.40238
1.38796
1.36887
1.34545
1.33698
1.33661
1.33095
1.3248
1.32484
1.32571
1.32435
1.32776
1.33861
1.35636
1.37746
1.39607
1.41358
1.42795
1.43261
1.43225
1.42801
1.42636
1.42646
1.42518
1.42194
1.41765
1.41312
1.40905
1.40552
1.40524
1.40848
1.42577
1.46655
1.53642
1.61561
1.68181
1.73636
1.74925
1.7572
1.75639
1.75082
1.73872
1.72199
1.7057
1.69226
1.68005
1.6666
1.65025
1.63507
1.62184
1.60825
1.594
1.58017
1.56592
1.54914
1.53618
1.5239
1.51139
1.50488
1.49893
1.4912
1.48216
1.47375
1.46928
1.46824
1.46764
1.46579
1.46596
1.46965
1.47047
1.47031
1.47101
1.47351
1.47898
2.19469
2.14886
2.10282
2.05427
2.00208
1.95446
1.90677
1.85391
1.81015
1.77048
1.72463
1.6799
1.6519
1.6234
1.59062
1.5507
1.52565
1.50303
1.47987
1.45533
1.43917
1.42249
1.40138
1.36729
1.35052
1.34658
1.33563
1.32244
1.3203
1.32156
1.31624
1.30753
1.30727
1.31307
1.32785
1.34979
1.3706
1.39176
1.40903
1.41291
1.41108
1.41035
1.41242
1.4157
1.41453
1.4106
1.40741
1.40333
1.40757
1.42597
1.47951
1.56872
1.65794
1.71642
1.75968
1.77757
1.77187
1.76134
1.75228
1.74343
1.72897
1.71231
1.6987
1.68464
1.66795
1.65207
1.63645
1.62009
1.60371
1.58826
1.57362
1.5588
1.5448
1.53072
1.52044
1.51031
1.49644
1.47909
1.4667
1.46014
1.45411
1.44659
1.43865
1.43588
1.43646
1.4365
1.43385
1.42904
1.42355
1.41823
1.41532
1.41546
1.41619
1.41834
2.18139
2.14265
2.10227
2.05727
2.01175
1.97008
1.92428
1.87536
1.83438
1.79557
1.75316
1.71163
1.67943
1.64873
1.61586
1.58353
1.56058
1.53813
1.51211
1.48345
1.46874
1.4537
1.43401
1.40238
1.38468
1.37603
1.36175
1.34213
1.33467
1.33089
1.32007
1.30548
1.29952
1.29976
1.30155
1.30592
1.31777
1.33571
1.35893
1.37741
1.38415
1.38915
1.39525
1.39942
1.39772
1.39858
1.4037
1.42815
1.49514
1.58157
1.68095
1.74551
1.7684
1.78557
1.78466
1.77484
1.75901
1.74323
1.7265
1.70652
1.68789
1.6737
1.6619
1.64946
1.63615
1.62241
1.60724
1.58989
1.5714
1.5544
1.53962
1.52552
1.51128
1.50196
1.49307
1.48094
1.46576
1.44647
1.43034
1.42278
1.4179
1.41225
1.40731
1.40683
1.40763
1.40455
1.39563
1.38548
1.37609
1.36832
1.36447
1.36441
1.36566
1.36888
2.16565
2.13131
2.09536
2.05586
2.01582
1.97578
1.93311
1.89139
1.85595
1.81764
1.77167
1.73273
1.7048
1.67593
1.64245
1.60961
1.5853
1.56243
1.53951
1.51579
1.50012
1.4822
1.46001
1.4281
1.41273
1.40169
1.38653
1.36497
1.35079
1.34201
1.32764
1.30912
1.29551
1.29493
1.29613
1.29487
1.29463
1.29765
1.30727
1.32126
1.33598
1.34634
1.36112
1.37473
1.38299
1.40976
1.49016
1.6009
1.69338
1.75761
1.77931
1.78282
1.78153
1.78007
1.76702
1.74653
1.72954
1.71127
1.68937
1.66518
1.64769
1.63773
1.62782
1.6145
1.60041
1.58686
1.57188
1.55535
1.53668
1.5208
1.50566
1.49119
1.48052
1.46827
1.45457
1.44284
1.42922
1.41139
1.39599
1.3875
1.3814
1.37635
1.37582
1.3775
1.37556
1.36582
1.35373
1.34153
1.3296
1.32309
1.32124
1.32113
1.32258
1.32775
2.146
2.117
2.08427
2.04866
2.01437
1.97838
1.93638
1.89922
1.86721
1.83241
1.79241
1.75633
1.72339
1.69253
1.66271
1.63771
1.61468
1.59077
1.55812
1.53525
1.523
1.50672
1.48711
1.4603
1.44252
1.42704
1.409
1.38466
1.36971
1.36225
1.34937
1.33119
1.31087
1.30781
1.30621
1.29786
1.28898
1.28881
1.28932
1.28658
1.28757
1.29394
1.31195
1.34862
1.43731
1.56598
1.68421
1.76572
1.78078
1.79583
1.79104
1.78039
1.77355
1.76434
1.7444
1.71826
1.694
1.67449
1.65265
1.62868
1.61313
1.6031
1.59088
1.57714
1.56336
1.5494
1.53398
1.51829
1.50379
1.48787
1.47204
1.45775
1.44105
1.42552
1.41403
1.40422
1.39202
1.37757
1.36534
1.35567
1.34813
1.34187
1.33953
1.33828
1.3312
1.32237
1.31399
1.30304
1.29056
1.28474
1.28411
1.28406
1.28803
1.29512
2.12497
2.09705
2.0681
2.03763
2.00721
1.97454
1.93763
1.906
1.87615
1.84072
1.80083
1.77101
1.74264
1.71296
1.67978
1.6556
1.63313
1.61101
1.58365
1.5603
1.54385
1.52458
1.50395
1.48377
1.4706
1.45448
1.43462
1.40501
1.38703
1.3784
1.36499
1.3479
1.32857
1.32356
1.3183
1.3062
1.29032
1.28413
1.28315
1.27749
1.27761
1.29421
1.35918
1.49221
1.6178
1.70901
1.74832
1.77079
1.76601
1.75694
1.74424
1.72826
1.71446
1.69996
1.67807
1.65699
1.64455
1.63023
1.61118
1.59195
1.57813
1.56502
1.55186
1.5398
1.52668
1.51123
1.49723
1.48416
1.46987
1.4528
1.43556
1.41886
1.40308
1.38866
1.3759
1.36543
1.35486
1.34377
1.33347
1.32436
1.3183
1.31201
1.30447
1.29812
1.29033
1.28256
1.27605
1.26912
1.26159
1.25573
1.25337
1.25398
1.26017
1.26109
2.10813
2.08122
2.05369
2.02666
2.00079
1.9724
1.93982
1.90987
1.88013
1.84781
1.81493
1.78576
1.75634
1.72545
1.69719
1.67626
1.65437
1.62875
1.59654
1.57774
1.56171
1.54461
1.5233
1.50349
1.49043
1.47322
1.45266
1.42458
1.40813
1.39846
1.38459
1.36692
1.34743
1.34235
1.33552
1.32203
1.30394
1.29554
1.29172
1.2986
1.33573
1.42551
1.55924
1.66319
1.69023
1.71314
1.71515
1.71345
1.70056
1.68486
1.66709
1.64593
1.6313
1.62161
1.6053
1.59044
1.5842
1.57994
1.56813
1.55424
1.5406
1.52706
1.5135
1.50315
1.49061
1.47682
1.46593
1.45468
1.43861
1.42068
1.40219
1.38356
1.36633
1.35056
1.33658
1.32729
1.32033
1.31158
1.30198
1.29388
1.28788
1.27922
1.2697
1.26168
1.25435
1.24801
1.24249
1.23689
1.23311
1.23094
1.2273
1.22414
1.22449
1.22209
2.08888
2.06204
2.0382
2.0155
1.99201
1.96491
1.93778
1.9123
1.88429
1.84941
1.81965
1.79549
1.76904
1.73895
1.71079
1.68978
1.667
1.64293
1.61672
1.59554
1.57584
1.55644
1.5355
1.52048
1.50847
1.49152
1.46901
1.43798
1.42398
1.41493
1.40217
1.38584
1.36811
1.36035
1.34944
1.33526
1.31771
1.31442
1.34285
1.42044
1.53713
1.64459
1.68983
1.69929
1.69727
1.68984
1.67122
1.64802
1.62796
1.61632
1.59937
1.57388
1.55566
1.54546
1.53649
1.52689
1.52605
1.52608
1.52249
1.50941
1.49278
1.47702
1.46257
1.45113
1.44427
1.43629
1.42893
1.41803
1.4036
1.38789
1.37129
1.35346
1.33305
1.31706
1.30523
1.29753
1.29096
1.28486
1.27878
1.26929
1.25796
1.24654
1.2368
1.22992
1.22529
1.22099
1.21552
1.21175
1.2098
1.20735
1.20239
1.19464
1.18789
1.18066
2.06856
2.04766
2.02124
1.99996
1.9798
1.95621
1.93051
1.90658
1.88099
1.85122
1.82581
1.80233
1.77508
1.74353
1.72188
1.70284
1.68021
1.65167
1.62572
1.6093
1.58968
1.57075
1.54742
1.53209
1.51975
1.50131
1.48007
1.45455
1.44096
1.43049
1.41619
1.39752
1.38329
1.37412
1.36602
1.35694
1.37307
1.4453
1.56927
1.67161
1.7216
1.72617
1.715
1.70272
1.68406
1.65244
1.61991
1.59772
1.58706
1.57554
1.55646
1.52936
1.5043
1.48935
1.47906
1.47106
1.46635
1.46676
1.46666
1.46165
1.44591
1.42527
1.40656
1.39503
1.38821
1.38258
1.38039
1.37636
1.36459
1.3482
1.32987
1.31127
1.29941
1.29089
1.28208
1.27402
1.26697
1.26224
1.2542
1.24483
1.23519
1.22554
1.21644
1.20899
1.2045
1.20167
1.19526
1.18729
1.18357
1.18031
1.17613
1.17097
1.16365
1.15251
1.96839
2.03496
2.01197
1.9864
1.96538
1.94278
1.92091
1.90037
1.87612
1.84735
1.82376
1.80256
1.77828
1.75075
1.72831
1.70796
1.6856
1.66037
1.63835
1.6206
1.60103
1.58026
1.55697
1.54451
1.53035
1.5111
1.4877
1.46279
1.45393
1.44435
1.43049
1.41144
1.39816
1.38837
1.39652
1.44801
1.5628
1.7058
1.76709
1.77368
1.76184
1.73942
1.71557
1.68278
1.64678
1.61737
1.59466
1.57956
1.56613
1.55003
1.53154
1.51113
1.48846
1.46577
1.44773
1.43633
1.42912
1.42589
1.42084
1.40976
1.39377
1.37167
1.35015
1.33722
1.33095
1.32694
1.32233
1.3167
1.30851
1.29611
1.2798
1.26548
1.25916
1.25529
1.24568
1.23582
1.22783
1.22445
1.22612
1.2252
1.21996
1.21251
1.20398
1.19665
1.18783
1.17976
1.17263
1.16581
1.16065
1.15661
1.15325
1.14943
1.14435
1.13495
1.7047
1.94914
2.00129
1.97852
1.95167
1.92789
1.90782
1.88876
1.86732
1.84225
1.82317
1.8035
1.77776
1.74922
1.73281
1.71334
1.68975
1.66107
1.6447
1.62911
1.60929
1.58923
1.56622
1.55305
1.53725
1.51775
1.49744
1.47586
1.46475
1.45301
1.43921
1.42419
1.42541
1.45981
1.55907
1.68492
1.78153
1.81454
1.80164
1.78227
1.76021
1.73137
1.69547
1.65741
1.62171
1.60099
1.58766
1.57233
1.55356
1.53319
1.5134
1.49919
1.48221
1.45749
1.42851
1.40687
1.39315
1.385
1.37896
1.37134
1.35902
1.34251
1.32584
1.3099
1.29554
1.28373
1.27231
1.26377
1.25587
1.24478
1.23018
1.21473
1.20381
1.20328
1.20359
1.1999
1.19253
1.18683
1.18737
1.18824
1.18584
1.18178
1.17623
1.17182
1.16896
1.16386
1.15603
1.14745
1.13918
1.13334
1.12934
1.12704
1.12494
1.11749
1.23511
1.73524
1.93001
1.96508
1.94536
1.91632
1.89503
1.87683
1.85672
1.83483
1.81652
1.79949
1.77735
1.75179
1.73308
1.71427
1.68921
1.66257
1.65031
1.63491
1.61621
1.59145
1.57238
1.5609
1.54252
1.52366
1.50191
1.48585
1.47576
1.46519
1.45746
1.48297
1.56888
1.70836
1.81462
1.83559
1.82708
1.81517
1.79853
1.77556
1.7404
1.70388
1.66956
1.64142
1.61955
1.59767
1.57739
1.5589
1.53977
1.5185
1.50076
1.48519
1.46716
1.44529
1.41952
1.39272
1.37324
1.36055
1.35029
1.34075
1.32785
1.31228
1.30035
1.28982
1.27669
1.26335
1.24991
1.23427
1.22264
1.21175
1.19843
1.18392
1.17138
1.16329
1.15764
1.15372
1.15019
1.14398
1.13722
1.1379
1.1389
1.13867
1.14073
1.14462
1.14457
1.14125
1.13701
1.13084
1.12233
1.11485
1.11068
1.10795
1.10612
1.09999
1.01383
1.29432
1.74284
1.90581
1.93241
1.91108
1.8861
1.86671
1.84521
1.82556
1.80985
1.79218
1.77104
1.74841
1.73254
1.71381
1.6894
1.66383
1.65138
1.63723
1.61972
1.59505
1.57945
1.56564
1.54628
1.52876
1.50462
1.49489
1.48801
1.50303
1.57838
1.72397
1.84618
1.89497
1.8882
1.86638
1.84304
1.80904
1.77269
1.73615
1.6998
1.67345
1.65478
1.63851
1.6233
1.60243
1.57086
1.54138
1.52075
1.50541
1.49051
1.47377
1.45528
1.43583
1.41403
1.38925
1.36742
1.35062
1.33508
1.32251
1.30974
1.29505
1.28236
1.27232
1.26214
1.25091
1.23616
1.21675
1.20284
1.19113
1.17822
1.16507
1.15385
1.14345
1.1338
1.12632
1.11974
1.11206
1.10278
1.09351
1.08968
1.08931
1.09066
1.09724
1.1017
1.10319
1.10555
1.10563
1.10379
1.09734
1.09176
1.08921
1.0879
1.08323
1.00013
1.0237
1.32955
1.73694
1.87859
1.89956
1.88154
1.8597
1.83537
1.8168
1.80074
1.78405
1.76321
1.74376
1.72797
1.70991
1.6865
1.66394
1.65386
1.64124
1.62208
1.59508
1.58284
1.56744
1.54933
1.53434
1.51364
1.51796
1.57616
1.7062
1.85218
1.92662
1.94366
1.9281
1.89965
1.85787
1.80972
1.76694
1.73208
1.70088
1.67521
1.65888
1.65031
1.64048
1.62301
1.59426
1.5575
1.53049
1.51142
1.49199
1.47511
1.45855
1.4407
1.42377
1.40628
1.38608
1.365
1.34453
1.32463
1.30855
1.29608
1.28373
1.27161
1.25968
1.24674
1.23443
1.22086
1.20317
1.18757
1.17604
1.16454
1.15281
1.14158
1.13046
1.11928
1.10799
1.09941
1.09365
1.08693
1.07678
1.06566
1.05842
1.05373
1.05393
1.0581
1.0634
1.06364
1.06418
1.06863
1.06779
1.06366
1.0635
1.06538
1.06324
1
1.00029
1.0328
1.34636
1.72395
1.853
1.86932
1.85527
1.82958
1.80844
1.79318
1.77537
1.75367
1.73749
1.72167
1.70493
1.68389
1.66348
1.65235
1.64027
1.62147
1.59786
1.58501
1.56964
1.55324
1.54907
1.58486
1.69662
1.84425
1.93652
1.98408
1.97555
1.95161
1.90661
1.85935
1.81817
1.77892
1.7423
1.7102
1.68538
1.66919
1.65387
1.63701
1.62082
1.60037
1.57375
1.54621
1.52258
1.50296
1.48557
1.46749
1.44646
1.42266
1.40195
1.38798
1.3779
1.36488
1.34456
1.32086
1.30012
1.2842
1.27063
1.25885
1.24901
1.23877
1.22535
1.20797
1.18928
1.17655
1.168
1.15924
1.14855
1.13716
1.12605
1.11381
1.10044
1.08768
1.07934
1.07412
1.06737
1.05869
1.04717
1.03964
1.03552
1.03413
1.03378
1.03313
1.02954
1.02707
1.02913
1.02826
1.02808
1.03511
1.03839
1
1
1.00049
1.03924
1.3453
1.7146
1.81592
1.84005
1.82773
1.80272
1.78532
1.76697
1.74666
1.73016
1.71464
1.70026
1.6803
1.66355
1.65191
1.63575
1.61878
1.59513
1.58566
1.58101
1.60685
1.70393
1.86331
1.97572
2.00672
1.99162
1.96764
1.92981
1.88939
1.85397
1.82261
1.79299
1.76579
1.73972
1.71145
1.68163
1.65508
1.63245
1.61176
1.59226
1.57399
1.55725
1.53924
1.51882
1.49532
1.47167
1.45156
1.43281
1.41346
1.39328
1.37566
1.3612
1.34783
1.33231
1.31541
1.2985
1.28128
1.26633
1.25381
1.24154
1.23
1.21945
1.20551
1.18724
1.17195
1.16233
1.1549
1.14672
1.13687
1.12606
1.11289
1.09822
1.08427
1.07374
1.0687
1.06542
1.0582
1.04283
1.03185
1.02764
1.02494
1.02171
1.01739
1.01154
1.0025
0.996614
0.994902
0.9935
0.99535
1.00654
1
1
1
1.00067
1.0402
1.3502
1.67737
1.77958
1.81731
1.80371
1.783
1.76039
1.7415
1.72815
1.71362
1.69637
1.67367
1.66005
1.64696
1.62879
1.61459
1.60206
1.61557
1.70091
1.86307
2.00375
2.05909
2.04857
2.01922
1.97705
1.93505
1.89336
1.85511
1.82546
1.80427
1.78187
1.75346
1.72407
1.69558
1.66701
1.63944
1.61374
1.59005
1.57048
1.55523
1.54175
1.52677
1.50658
1.48115
1.45688
1.43545
1.41862
1.40819
1.39771
1.38136
1.35945
1.33692
1.317
1.30211
1.29232
1.28373
1.27056
1.2543
1.24004
1.22559
1.21157
1.20162
1.19145
1.17875
1.16739
1.15484
1.14138
1.12923
1.12079
1.11486
1.10703
1.09426
1.07955
1.06632
1.05469
1.04296
1.03257
1.02719
1.0238
1.02016
1.0154
1.00874
1.0004
0.989577
0.979936
0.976425
0.973783
0.972867
0.978891
1
1
1
1
1.00073
1.04206
1.33335
1.62471
1.75684
1.79709
1.78587
1.76402
1.74106
1.72432
1.70944
1.69144
1.67042
1.65279
1.63908
1.62534
1.63107
1.69926
1.85723
2.01155
2.08807
2.07857
2.05068
2.01561
1.97627
1.9368
1.90042
1.86811
1.83958
1.81201
1.78425
1.75748
1.72833
1.69889
1.67256
1.64682
1.621
1.59812
1.57751
1.55872
1.54129
1.52334
1.5031
1.48168
1.46067
1.44136
1.42617
1.41312
1.39946
1.38095
1.36043
1.34312
1.32485
1.31068
1.30127
1.29028
1.27486
1.25859
1.24621
1.23233
1.21839
1.20758
1.1976
1.18232
1.17015
1.16163
1.15122
1.13916
1.12956
1.12193
1.11319
1.10024
1.08467
1.07324
1.06262
1.05055
1.03663
1.02792
1.02473
1.02213
1.01882
1.01354
1.00527
0.993551
0.981518
0.974401
0.97122
0.968521
0.966644
0.967562
1
1
1
1
1
1.00077
1.03877
1.27985
1.5846
1.74491
1.77703
1.76729
1.74653
1.72528
1.70303
1.68395
1.66309
1.64727
1.64857
1.68987
1.83708
2.02264
2.10424
2.14113
2.1259
2.0888
2.0367
1.98072
1.93319
1.89845
1.86819
1.84013
1.81346
1.78738
1.76079
1.73344
1.70551
1.67941
1.65626
1.63441
1.61401
1.59138
1.56763
1.54673
1.52814
1.5091
1.4875
1.46893
1.46143
1.45372
1.43867
1.41864
1.39608
1.37243
1.34999
1.3364
1.33121
1.32591
1.31465
1.29711
1.27164
1.25149
1.24405
1.23826
1.22824
1.21523
1.19797
1.17744
1.16736
1.162
1.15758
1.15112
1.14038
1.12832
1.11461
1.09839
1.0829
1.07231
1.06596
1.05738
1.04651
1.04123
1.0378
1.03414
1.02943
1.02233
1.00889
0.988071
0.978666
0.976043
0.97302
0.970052
0.967831
0.962345
1
1
1
1
1
1
1.00065
1.0275
1.23063
1.57861
1.71549
1.74951
1.74518
1.72796
1.6968
1.67849
1.66567
1.68327
1.80401
2.00365
2.14886
2.15682
2.11966
2.09804
2.07003
2.03262
1.99072
1.94735
1.9086
1.87523
1.8438
1.81414
1.7854
1.75956
1.73694
1.71662
1.69715
1.67808
1.65644
1.62827
1.59613
1.56823
1.54791
1.53259
1.52006
1.50816
1.49441
1.47835
1.4595
1.43802
1.41674
1.39541
1.37628
1.36326
1.35331
1.34397
1.3331
1.31784
1.29933
1.27989
1.2647
1.25403
1.24333
1.23049
1.21572
1.19931
1.18433
1.17709
1.17258
1.16754
1.15949
1.14685
1.13238
1.11838
1.10791
1.10099
1.0917
1.07988
1.06572
1.05018
1.03987
1.03488
1.03074
1.02645
1.02154
1.01465
1.00211
0.982124
0.970532
0.96663
0.962988
0.959554
0.957464
0.953782
1
1
1
1
1
1
1
1.0004
1.01954
1.21691
1.53438
1.67049
1.72225
1.72002
1.7056
1.70729
1.77379
1.95217
2.12933
2.21987
2.21349
2.17969
2.12038
2.05495
2.01173
1.97899
1.94994
1.92143
1.89147
1.85922
1.8254
1.79193
1.7632
1.7413
1.72208
1.7041
1.68654
1.66707
1.64303
1.61403
1.5846
1.562
1.54475
1.52976
1.51581
1.50163
1.48616
1.46915
1.44942
1.42828
1.40744
1.38786
1.37379
1.36299
1.35243
1.34206
1.32989
1.31386
1.2946
1.27718
1.2644
1.25293
1.24086
1.22751
1.21211
1.19602
1.18537
1.1798
1.17485
1.16829
1.15826
1.14476
1.13028
1.11789
1.10831
1.09908
1.08954
1.07855
1.06366
1.04783
1.03869
1.03332
1.02862
1.02408
1.01909
1.01217
0.999637
0.979753
0.968184
0.963977
0.960041
0.956268
0.954091
0.950003
1
1
1
1
1
1
1
1
1.00029
1.01581
1.18526
1.46247
1.61831
1.69511
1.80087
1.93081
2.07463
2.14993
2.18922
2.18451
2.1562
2.11645
2.07282
2.03439
1.99985
1.97177
1.94787
1.92496
1.89879
1.86834
1.83616
1.80528
1.77951
1.7584
1.73828
1.7182
1.69755
1.67464
1.64827
1.61988
1.59481
1.57544
1.55927
1.54402
1.5281
1.51104
1.49311
1.47395
1.45356
1.43364
1.41559
1.40108
1.38898
1.37654
1.3637
1.35116
1.33792
1.32221
1.30528
1.29003
1.27607
1.2626
1.24927
1.23491
1.21854
1.20425
1.19615
1.19076
1.18505
1.17721
1.16651
1.15351
1.1399
1.12717
1.11546
1.10524
1.09581
1.0849
1.07108
1.05732
1.04831
1.04255
1.03782
1.03308
1.02725
1.0191
1.00614
0.988189
0.977029
0.972161
0.967817
0.963668
0.960676
0.955244
1
1
1
1
1
1
1
1
1
1.0002
1.0123
1.13822
1.42818
1.77091
2.05983
2.2988
2.3992
2.3706
2.29364
2.19825
2.11997
2.07057
2.03469
2.0033
1.97386
1.94753
1.92462
1.90399
1.88013
1.85071
1.8187
1.78929
1.76631
1.74675
1.7263
1.70396
1.68032
1.65564
1.62989
1.60384
1.57996
1.56014
1.54414
1.52983
1.51445
1.49695
1.47782
1.45748
1.43627
1.41589
1.39918
1.38724
1.37672
1.365
1.35185
1.33774
1.32238
1.30618
1.29149
1.27798
1.26405
1.24985
1.23573
1.22058
1.20436
1.19111
1.18308
1.17798
1.17299
1.16603
1.15587
1.14296
1.12892
1.11518
1.10336
1.09381
1.08438
1.0726
1.05806
1.0456
1.03758
1.03242
1.02841
1.0244
1.01899
1.00966
0.993
0.974621
0.966053
0.96161
0.957637
0.953992
0.951243
0.945646
)
;

boundaryField
{
    inlet
    {
        type            fixedValue;
        value           uniform 1;
    }
    outlet
    {
        type            inletOutlet;
        inletValue      uniform 1;
        value           nonuniform List<scalar> 
32
(
2.04615
2.03934
1.98458
1.89427
1.80111
1.72361
1.65918
1.60183
1.54382
1.48175
1.42046
1.37105
1.33055
1.29797
1.2622
1.22284
1.1812
1.15185
1.13394
1.11708
1.09974
1.08303
1.06323
1.03842
1.008
0.980468
0.968604
0.962819
0.954406
0.950598
0.955824
0.946228
)
;
    }
    bottom
    {
        type            zeroGradient;
    }
    top
    {
        type            zeroGradient;
    }
    obstacle
    {
        type            zeroGradient;
    }
    defaultFaces
    {
        type            empty;
    }
}


// ************************************************************************* //
