/*--------------------------------*- C++ -*----------------------------------*\
  =========                 |
  \\      /  F ield         | OpenFOAM: The Open Source CFD Toolbox
   \\    /   O peration     | Website:  https://openfoam.org
    \\  /    A nd           | Version:  7
     \\/     M anipulation  |
\*---------------------------------------------------------------------------*/
FoamFile
{
    version     2.0;
    format      ascii;
    class       volScalarField;
    location    "1.7";
    object      rho;
}
// * * * * * * * * * * * * * * * * * * * * * * * * * * * * * * * * * * * * * //

dimensions      [1 -3 0 0 0 0 0];

internalField   nonuniform List<scalar> 
16192
(
1.22114
1.23868
1.25773
1.27136
1.27319
1.27272
1.27056
1.26744
1.26579
1.26474
1.26373
1.26278
1.26193
1.26081
1.25969
1.25839
1.25669
1.25452
1.25186
1.24824
1.24322
1.23858
1.23506
1.2333
1.23212
1.23113
1.23044
1.23014
1.22982
1.22924
1.22794
1.22431
1.22025
1.21955
1.21951
1.2198
1.22132
1.22373
1.22688
1.22969
1.23099
1.2321
1.23268
1.23242
1.23244
1.23289
1.23431
1.23724
1.2402
1.24249
1.24392
1.24605
1.25039
1.25597
1.25971
1.26109
1.26119
1.26174
1.26356
1.26676
1.26679
1.26473
1.26172
1.25742
1.25125
1.24209
1.23493
1.23298
1.23247
1.23224
1.23269
1.23497
1.23868
1.24046
1.23997
1.23842
1.23551
1.23118
1.22535
1.22014
1.21777
1.21698
1.21681
1.21739
1.21947
1.22154
1.22155
1.22037
1.21789
1.21456
1.21108
1.20788
1.20533
1.20411
1.20328
1.20268
1.20201
1.20055
1.1982
1.19628
1.19554
1.19529
1.19467
1.19375
1.19291
1.19184
1.18973
1.18581
1.18063
1.17792
1.17696
1.17643
1.17656
1.17809
1.17911
1.17902
1.1788
1.17842
1.17744
1.17662
1.17621
1.176
1.17589
1.17571
1.17548
1.17512
1.1747
1.17413
1.1731
1.17057
1.1665
1.16367
1.16223
1.16159
1.16119
1.16135
1.16254
1.16338
1.16341
1.16322
1.16322
1.16357
1.16387
1.16393
1.16325
1.1615
1.15967
1.15894
1.15849
1.15798
1.15758
1.15709
1.15646
1.15614
1.15736
1.15702
1.15572
1.1547
1.15357
1.15223
1.15043
1.14698
1.14243
1.14022
1.13895
1.13736
1.13511
1.13339
1.1322
1.13108
1.13018
1.13002
1.1302
1.1319
1.13514
1.1361
1.13844
1.16134
1.25941
1.50092
1.81139
2.01082
2.06249
2.08984
2.11257
2.12527
2.13052
2.12823
2.12132
2.11067
2.10075
2.09722
2.09554
2.09637
2.09784
2.09788
2.09723
2.09601
2.09944
2.11388
2.14803
2.19479
2.22072
2.22665
2.22683
2.22033
2.20858
2.19603
2.18487
2.17443
2.1633
2.15283
2.14699
2.14313
2.14045
2.14032
2.14101
2.13741
2.13191
2.1229
2.11012
2.09964
2.09426
2.09062
2.08868
2.08915
2.08958
2.08735
2.08348
2.07671
2.06863
2.0648
2.06271
2.06182
2.0618
2.0591
2.05518
2.05087
2.04539
2.04058
2.03719
2.03454
2.03347
2.03263
2.03004
2.02604
2.01905
2.00969
2.00275
1.99843
1.99556
1.99355
1.99367
1.21881
1.23175
1.2465
1.2641
1.27097
1.27101
1.26868
1.26703
1.26647
1.26688
1.26787
1.26715
1.26597
1.26442
1.2621
1.25936
1.25684
1.25453
1.25154
1.24708
1.24283
1.24019
1.23859
1.23724
1.23598
1.23503
1.23455
1.23401
1.2331
1.2316
1.22772
1.2218
1.21987
1.2196
1.21953
1.21971
1.22139
1.22432
1.22655
1.22885
1.23047
1.23182
1.23309
1.23404
1.23487
1.23599
1.2377
1.23893
1.23982
1.24065
1.24113
1.24255
1.24673
1.25275
1.2583
1.2613
1.26356
1.26692
1.27103
1.27168
1.26994
1.26669
1.26239
1.25639
1.24689
1.23864
1.23608
1.23542
1.23511
1.23547
1.23782
1.24171
1.24389
1.24366
1.24224
1.2393
1.23459
1.22808
1.22299
1.22079
1.22002
1.2198
1.22057
1.22284
1.22455
1.22443
1.22317
1.2206
1.21718
1.21409
1.21165
1.20957
1.20807
1.20689
1.20588
1.20478
1.20283
1.2003
1.19878
1.19825
1.19813
1.1978
1.19681
1.19579
1.19442
1.19208
1.18794
1.18296
1.18045
1.17953
1.17898
1.17916
1.18077
1.18144
1.18109
1.18072
1.18011
1.17901
1.17826
1.17787
1.17764
1.17735
1.17671
1.17618
1.17575
1.17532
1.17491
1.17423
1.17236
1.16936
1.16706
1.16594
1.16547
1.16537
1.16573
1.16579
1.16535
1.16459
1.16358
1.16288
1.16277
1.1631
1.16342
1.16351
1.16312
1.16188
1.1609
1.16025
1.15954
1.15911
1.15886
1.15848
1.15818
1.15919
1.16003
1.1587
1.15703
1.15554
1.15388
1.1519
1.14892
1.14487
1.1427
1.14182
1.14086
1.13918
1.13714
1.13583
1.13502
1.13469
1.13383
1.13358
1.13402
1.13603
1.13674
1.14277
1.18547
1.36126
1.65498
1.91851
2.03133
2.103
2.14092
2.14424
2.14183
2.13424
2.1287
2.12206
2.11431
2.1069
2.1018
2.09918
2.0992
2.10146
2.10132
2.09986
2.09803
2.09499
2.09535
2.10454
2.13282
2.17966
2.21985
2.23373
2.2334
2.2274
2.21583
2.20216
2.189
2.17693
2.1661
2.15751
2.15188
2.14794
2.14568
2.14562
2.1431
2.13827
2.13222
2.12211
2.10768
2.09941
2.09565
2.09305
2.0931
2.09599
2.09551
2.09247
2.08896
2.08363
2.07556
2.07004
2.06751
2.06631
2.06399
2.06008
2.05542
2.05032
2.04552
2.0415
2.03835
2.03646
2.03624
2.0351
2.03213
2.02873
2.02318
2.01399
2.00474
1.99869
1.99523
1.99315
1.99235
1.21585
1.22372
1.23437
1.25019
1.26484
1.26761
1.26729
1.26754
1.26953
1.27213
1.27193
1.27056
1.26866
1.26583
1.26239
1.25941
1.25695
1.25432
1.25072
1.24701
1.24484
1.24362
1.24228
1.24094
1.23977
1.23899
1.23842
1.23738
1.23572
1.23197
1.22514
1.22123
1.22053
1.22022
1.22011
1.22038
1.22228
1.22524
1.22667
1.22832
1.23014
1.23182
1.2336
1.2354
1.23698
1.23827
1.23882
1.23889
1.23905
1.23926
1.23851
1.23981
1.24418
1.25057
1.25733
1.26295
1.26863
1.27373
1.27498
1.27417
1.27146
1.26711
1.2612
1.25258
1.24388
1.24035
1.23938
1.2389
1.23901
1.24102
1.24465
1.24667
1.24655
1.24534
1.24254
1.23751
1.23099
1.22663
1.22466
1.22384
1.22356
1.22443
1.22643
1.22737
1.22705
1.22566
1.22292
1.21909
1.2165
1.21506
1.21382
1.21241
1.21106
1.20978
1.20837
1.20592
1.20279
1.20131
1.2009
1.20074
1.20041
1.19951
1.19847
1.19698
1.19454
1.19029
1.18547
1.18316
1.18236
1.18186
1.18212
1.18374
1.18399
1.18334
1.18263
1.18158
1.18038
1.17967
1.17927
1.17905
1.17859
1.1777
1.17688
1.17626
1.17568
1.17515
1.17447
1.17317
1.17154
1.1703
1.16975
1.16967
1.17038
1.17054
1.16973
1.16842
1.16652
1.16439
1.16273
1.16234
1.16239
1.16299
1.16333
1.1634
1.16328
1.16267
1.16173
1.16082
1.16041
1.16038
1.16033
1.16036
1.16151
1.16325
1.16257
1.16087
1.15874
1.15595
1.15303
1.14932
1.1451
1.14347
1.14328
1.14321
1.1428
1.14198
1.14114
1.14082
1.14101
1.13979
1.13807
1.13739
1.13664
1.13807
1.15177
1.24222
1.47287
1.78453
1.99172
2.10705
2.14298
2.14648
2.14564
2.14137
2.13509
2.12799
2.12389
2.12142
2.11841
2.11487
2.11144
2.10801
2.10507
2.10256
2.10037
2.09793
2.09527
2.09313
2.09347
2.09957
2.12137
2.16519
2.21664
2.23704
2.23776
2.23392
2.2239
2.20962
2.19358
2.17887
2.16897
2.16385
2.16042
2.15765
2.15345
2.148
2.14278
2.13728
2.13045
2.12176
2.1119
2.10507
2.10137
2.09965
2.10066
2.10108
2.09827
2.09507
2.09121
2.0863
2.08088
2.07716
2.0743
2.07088
2.0667
2.06229
2.05735
2.05198
2.04736
2.04351
2.04075
2.03906
2.03743
2.03491
2.0318
2.02839
2.02423
2.01917
2.01367
2.00798
2.00226
1.99676
1.99247
1.21283
1.21687
1.22434
1.23624
1.25347
1.2639
1.26794
1.27166
1.27529
1.27567
1.27458
1.27241
1.26929
1.26557
1.26195
1.25913
1.2567
1.2539
1.25088
1.24914
1.24813
1.24699
1.24573
1.24451
1.24345
1.24259
1.24153
1.23995
1.23659
1.22991
1.224
1.22255
1.22203
1.22166
1.22153
1.22208
1.22415
1.22596
1.22676
1.22788
1.22944
1.23113
1.23318
1.23575
1.23808
1.23887
1.23883
1.23867
1.23844
1.23758
1.23669
1.23848
1.24287
1.24911
1.25744
1.26728
1.27476
1.27648
1.27651
1.2752
1.2717
1.26602
1.25779
1.25
1.24609
1.24459
1.24379
1.24358
1.24479
1.2476
1.24903
1.24884
1.24776
1.24499
1.23974
1.23378
1.23033
1.22885
1.22818
1.22807
1.22907
1.23017
1.23014
1.22947
1.22789
1.22482
1.22096
1.21879
1.21785
1.21741
1.21662
1.21534
1.214
1.21248
1.20987
1.20599
1.20403
1.20357
1.20324
1.20283
1.20203
1.20101
1.19947
1.19706
1.19288
1.18825
1.18613
1.18546
1.18506
1.18548
1.18691
1.18673
1.18579
1.18463
1.18312
1.18177
1.18109
1.18068
1.18048
1.18016
1.17916
1.178
1.17702
1.17609
1.17514
1.17413
1.17323
1.1728
1.1726
1.17268
1.17367
1.17525
1.17529
1.17417
1.17197
1.16911
1.16582
1.16347
1.16292
1.16271
1.16278
1.16348
1.16375
1.16379
1.1637
1.16314
1.16222
1.1617
1.16182
1.16197
1.1623
1.16361
1.16577
1.16568
1.16436
1.16236
1.15959
1.15608
1.15109
1.14574
1.14365
1.14324
1.14319
1.14367
1.14439
1.14514
1.14638
1.14747
1.14659
1.14413
1.1419
1.1389
1.14176
1.18083
1.32691
1.62086
1.89843
2.07587
2.11325
2.13392
2.14112
2.14472
2.14881
2.14657
2.13999
2.13265
2.12786
2.12478
2.12251
2.12061
2.11817
2.1147
2.10912
2.10305
2.09918
2.09574
2.09304
2.09248
2.09302
2.09728
2.11323
2.15069
2.20484
2.23674
2.24003
2.23804
2.23015
2.21646
2.19821
2.18181
2.17443
2.17074
2.16975
2.16703
2.16061
2.15002
2.14033
2.13367
2.12744
2.12263
2.11867
2.11454
2.11096
2.10855
2.1066
2.10343
2.0997
2.09563
2.09096
2.08747
2.08495
2.08291
2.07992
2.07537
2.0703
2.06582
2.06148
2.05713
2.053
2.04878
2.04467
2.04085
2.03665
2.03257
2.02914
2.02591
2.02351
2.02165
2.02042
2.0184
2.01473
2.0077
1.99687
1.20949
1.21123
1.21664
1.22573
1.24225
1.26065
1.27188
1.27687
1.27767
1.27744
1.27588
1.27277
1.26878
1.26459
1.26142
1.25891
1.2565
1.25431
1.25315
1.25239
1.2514
1.25034
1.24915
1.24783
1.24656
1.24523
1.24362
1.24094
1.23561
1.22844
1.22568
1.22494
1.22428
1.2239
1.2239
1.22468
1.22567
1.22619
1.22657
1.22708
1.2284
1.22996
1.2321
1.2354
1.23819
1.2387
1.23868
1.23837
1.2374
1.23608
1.23651
1.23831
1.24237
1.24892
1.25935
1.27251
1.27661
1.27711
1.27694
1.27517
1.27078
1.26335
1.25569
1.25223
1.25102
1.2499
1.24927
1.24949
1.25082
1.25139
1.25091
1.24975
1.24669
1.24121
1.23633
1.23387
1.23286
1.23242
1.23296
1.23402
1.23392
1.23317
1.23208
1.22991
1.22629
1.22285
1.22123
1.2205
1.2202
1.22049
1.21974
1.21839
1.21676
1.21413
1.20976
1.2068
1.20614
1.20569
1.20518
1.20444
1.20348
1.20193
1.19961
1.19565
1.1914
1.18947
1.1889
1.18866
1.18937
1.19037
1.18978
1.18856
1.18682
1.18468
1.18317
1.18256
1.18221
1.18201
1.1821
1.18129
1.17991
1.17851
1.17701
1.17538
1.17388
1.17311
1.17313
1.17352
1.17452
1.17682
1.17936
1.17944
1.17818
1.17569
1.17216
1.16785
1.16509
1.16422
1.16381
1.16367
1.16409
1.16467
1.16473
1.16458
1.16407
1.16326
1.16276
1.163
1.16339
1.16398
1.16548
1.16792
1.16843
1.1675
1.16574
1.16306
1.15946
1.15416
1.14768
1.14452
1.14383
1.14364
1.14395
1.14546
1.14793
1.1508
1.15239
1.15185
1.14972
1.14655
1.14282
1.15351
1.22149
1.44731
1.76904
2.03026
2.08896
2.11391
2.13375
2.15517
2.16249
2.16212
2.15848
2.1511
2.14055
2.13215
2.12827
2.12549
2.12487
2.12533
2.12294
2.11909
2.1135
2.10535
2.09911
2.09509
2.09252
2.09235
2.09319
2.09662
2.10757
2.1367
2.1883
2.23326
2.23984
2.23864
2.23222
2.2203
2.20443
2.1909
2.18302
2.17918
2.17764
2.1737
2.16662
2.15252
2.13747
2.13088
2.12707
2.12488
2.12572
2.12632
2.1234
2.11826
2.11099
2.10499
2.09988
2.09513
2.09199
2.08971
2.08856
2.08639
2.08275
2.078
2.07319
2.06989
2.06716
2.06453
2.06119
2.05629
2.04952
2.0422
2.03549
2.03042
2.02674
2.02401
2.02229
2.02288
2.02454
2.0239
2.02141
2.01728
2.007
1.20558
1.2068
1.21145
1.21854
1.23312
1.25749
1.27525
1.27822
1.27854
1.27826
1.27587
1.27172
1.2669
1.26361
1.26167
1.25953
1.25754
1.25671
1.25635
1.25572
1.25472
1.25348
1.252
1.25042
1.2488
1.24697
1.24458
1.24102
1.2349
1.22971
1.22865
1.22786
1.22719
1.22685
1.22685
1.22669
1.22639
1.22602
1.22536
1.22574
1.22682
1.22833
1.231
1.2351
1.23805
1.23854
1.2386
1.23817
1.23669
1.23625
1.2373
1.23927
1.24322
1.25023
1.26139
1.27365
1.27653
1.27695
1.27668
1.2743
1.26873
1.26179
1.25815
1.25707
1.25669
1.25618
1.25522
1.25484
1.25432
1.25333
1.25152
1.24772
1.24231
1.23871
1.23709
1.23649
1.23645
1.23776
1.23871
1.23792
1.23662
1.23477
1.23174
1.22753
1.22465
1.22361
1.22317
1.22307
1.22403
1.22394
1.22282
1.22112
1.21834
1.21386
1.20969
1.20859
1.20802
1.20742
1.20672
1.2058
1.20432
1.20213
1.19853
1.19486
1.19318
1.1927
1.19276
1.19389
1.19432
1.19343
1.19185
1.18932
1.18624
1.18439
1.18392
1.18366
1.18356
1.1842
1.18386
1.18257
1.18093
1.1789
1.17652
1.17429
1.17322
1.17319
1.17381
1.17542
1.17866
1.18219
1.18259
1.18149
1.17901
1.17514
1.16983
1.1666
1.16576
1.1653
1.16509
1.16536
1.16618
1.16633
1.16613
1.1654
1.1644
1.16368
1.16382
1.16431
1.1651
1.16678
1.16934
1.1704
1.17001
1.16872
1.16637
1.16302
1.15767
1.15059
1.14644
1.14531
1.14495
1.14494
1.14627
1.14961
1.15363
1.15473
1.15423
1.15306
1.14928
1.15211
1.17664
1.31125
1.58892
1.89033
2.04519
2.13324
2.16967
2.169
2.16779
2.16708
2.16512
2.16125
2.15524
2.14722
2.13911
2.13404
2.13139
2.13083
2.13216
2.13047
2.12665
2.12228
2.11666
2.10791
2.09926
2.09591
2.09293
2.09189
2.09303
2.09738
2.10534
2.12579
2.16805
2.21992
2.23701
2.23664
2.23176
2.22332
2.21257
2.20078
2.19197
2.18629
2.18139
2.1757
2.16843
2.15581
2.14078
2.13308
2.12987
2.12866
2.13201
2.13333
2.13007
2.12579
2.11784
2.10672
2.10057
2.09729
2.09467
2.09315
2.09152
2.08802
2.08401
2.07966
2.07641
2.07408
2.07278
2.07132
2.06856
2.06383
2.05504
2.04342
2.03472
2.02966
2.02634
2.02401
2.02338
2.02551
2.02755
2.02602
2.02315
2.01936
2.01199
1.20326
1.20451
1.20869
1.21532
1.22698
1.25124
1.27376
1.27763
1.2781
1.27757
1.27413
1.26887
1.26561
1.26414
1.26316
1.26194
1.26073
1.25994
1.25915
1.25777
1.25632
1.25515
1.25387
1.25236
1.2506
1.24842
1.24547
1.24134
1.23622
1.23329
1.23196
1.23104
1.23034
1.22978
1.229
1.2278
1.22615
1.22422
1.22349
1.2241
1.2254
1.22742
1.23058
1.23509
1.23783
1.23846
1.23862
1.23804
1.23703
1.23761
1.23924
1.24145
1.24527
1.25192
1.26111
1.27179
1.27579
1.27614
1.27555
1.27267
1.26745
1.26395
1.26297
1.26278
1.26327
1.2619
1.2602
1.25857
1.2563
1.25329
1.24863
1.24353
1.24101
1.24
1.23971
1.24023
1.24228
1.24315
1.24214
1.24045
1.23782
1.23378
1.22894
1.22653
1.2258
1.22563
1.22605
1.2277
1.22816
1.22716
1.22539
1.22237
1.21785
1.21305
1.21106
1.21035
1.20965
1.20887
1.2079
1.20651
1.20448
1.20145
1.19842
1.19702
1.19664
1.19701
1.19859
1.19877
1.19768
1.19564
1.19243
1.18822
1.18573
1.18518
1.18501
1.18497
1.18601
1.18653
1.18553
1.18393
1.18173
1.17874
1.17554
1.17407
1.17386
1.17431
1.17597
1.17954
1.18382
1.18481
1.18406
1.18187
1.17802
1.17206
1.16806
1.16713
1.1667
1.16649
1.16671
1.16777
1.16826
1.16808
1.16729
1.16602
1.16498
1.16479
1.16511
1.16582
1.16751
1.17024
1.17157
1.17158
1.17098
1.16923
1.16635
1.16151
1.15457
1.14963
1.14794
1.14727
1.14697
1.14778
1.15123
1.15542
1.15659
1.15568
1.15498
1.15276
1.15877
1.22134
1.41885
1.75329
1.99006
2.12292
2.16796
2.16917
2.17188
2.17085
2.16647
2.16312
2.16121
2.16036
2.15619
2.1508
2.14433
2.1392
2.13713
2.13714
2.13712
2.13354
2.12916
2.12459
2.11906
2.11123
2.10236
2.09824
2.09531
2.09337
2.0936
2.09906
2.10625
2.1184
2.1495
2.19755
2.23064
2.23334
2.23049
2.22735
2.22165
2.21071
2.19967
2.19073
2.183
2.17506
2.1675
2.16037
2.15259
2.14508
2.14025
2.13779
2.13742
2.13583
2.13252
2.12874
2.12298
2.11358
2.10555
2.10151
2.09878
2.09641
2.09303
2.08917
2.08551
2.08243
2.08002
2.0787
2.07768
2.07535
2.07219
2.06734
2.05873
2.04743
2.0385
2.03318
2.02939
2.02709
2.02687
2.02767
2.02596
2.02393
2.02137
2.01768
2.01159
1.20272
1.20372
1.2073
1.21465
1.2244
1.24325
1.2676
1.2747
1.27551
1.27455
1.27045
1.26755
1.26651
1.266
1.26665
1.26618
1.26473
1.26296
1.26006
1.25762
1.25682
1.25599
1.25499
1.2538
1.25223
1.25006
1.24703
1.24335
1.24032
1.23798
1.23585
1.23412
1.23287
1.23166
1.22991
1.22741
1.22429
1.22258
1.22266
1.22333
1.22468
1.22721
1.23121
1.23536
1.23708
1.23789
1.23833
1.23808
1.2384
1.23943
1.24109
1.24371
1.24737
1.25242
1.25933
1.26792
1.27326
1.27456
1.2741
1.27166
1.26882
1.2681
1.26835
1.26971
1.26869
1.26668
1.26411
1.26045
1.25593
1.25004
1.24532
1.24342
1.2428
1.24273
1.24378
1.24638
1.24738
1.24639
1.24453
1.24141
1.23646
1.23097
1.22866
1.22804
1.22797
1.22896
1.23124
1.23235
1.23165
1.22967
1.22622
1.22121
1.21629
1.21386
1.2127
1.21177
1.21086
1.20983
1.20845
1.20659
1.20413
1.20177
1.20077
1.20047
1.20107
1.20283
1.20299
1.2019
1.19971
1.19622
1.19106
1.18778
1.18696
1.18672
1.18663
1.18747
1.18895
1.18847
1.18704
1.18497
1.18183
1.17787
1.1759
1.17553
1.17567
1.17698
1.18034
1.18474
1.18629
1.18588
1.18416
1.18069
1.17474
1.16976
1.16844
1.16798
1.16776
1.16789
1.16892
1.16987
1.16983
1.1693
1.16805
1.16682
1.16629
1.16632
1.1667
1.16792
1.17054
1.17241
1.17272
1.17262
1.1715
1.16899
1.16454
1.15844
1.15395
1.15211
1.15121
1.15056
1.15084
1.15379
1.15758
1.15839
1.15774
1.15593
1.15518
1.17529
1.27602
1.54974
1.87227
2.10996
2.15208
2.15769
2.1629
2.17066
2.18009
2.18104
2.17799
2.17132
2.16535
2.16121
2.15655
2.15261
2.14904
2.14456
2.14157
2.14097
2.14048
2.13699
2.13295
2.12855
2.12263
2.11411
2.10571
2.10154
2.09882
2.09666
2.09636
2.10102
2.10816
2.11502
2.13402
2.17551
2.21742
2.23014
2.23112
2.23211
2.22894
2.21889
2.2066
2.19431
2.18254
2.17293
2.16737
2.16437
2.16283
2.16086
2.15677
2.14985
2.14199
2.1369
2.13303
2.12928
2.12509
2.12024
2.1145
2.10832
2.10303
2.09865
2.09451
2.09089
2.08772
2.08541
2.08429
2.0833
2.08075
2.0776
2.07364
2.06762
2.06043
2.05376
2.04727
2.04152
2.03747
2.0348
2.03154
2.02788
2.02422
2.02029
2.01659
2.01287
2.00903
1.20287
1.20427
1.20877
1.21651
1.22334
1.23364
1.254
1.26628
1.26958
1.26962
1.26856
1.26813
1.26834
1.27061
1.2717
1.27039
1.2679
1.26383
1.25936
1.25769
1.25706
1.25647
1.25608
1.25538
1.25422
1.25249
1.25031
1.24807
1.24545
1.24224
1.23889
1.23629
1.23436
1.23232
1.22962
1.22567
1.2229
1.22248
1.22257
1.2232
1.22494
1.22845
1.2327
1.23501
1.23586
1.23661
1.23738
1.23805
1.23897
1.24027
1.24235
1.24549
1.24841
1.25166
1.25644
1.263
1.26986
1.27308
1.27326
1.27223
1.27188
1.27295
1.27544
1.27497
1.27296
1.27011
1.26587
1.26008
1.25277
1.24797
1.24628
1.24584
1.24583
1.24718
1.25005
1.25125
1.25046
1.24859
1.24529
1.23994
1.23396
1.23131
1.23057
1.23048
1.23184
1.23452
1.2358
1.23552
1.23395
1.23028
1.22441
1.2188
1.21638
1.2151
1.21394
1.21283
1.2117
1.2104
1.20873
1.20663
1.20489
1.20423
1.20402
1.20486
1.20652
1.20649
1.20546
1.20347
1.19998
1.19444
1.19072
1.18963
1.18916
1.18896
1.1894
1.19113
1.19125
1.19016
1.18832
1.18532
1.181
1.17834
1.17781
1.17775
1.17862
1.18167
1.18594
1.18765
1.18745
1.18607
1.18299
1.17746
1.17188
1.16994
1.1694
1.16911
1.1691
1.16989
1.17106
1.17115
1.17084
1.17001
1.16881
1.16822
1.16809
1.16816
1.1688
1.17073
1.17273
1.17334
1.17353
1.17313
1.17127
1.16722
1.16185
1.15809
1.15642
1.1556
1.15498
1.15525
1.15782
1.16023
1.1604
1.1598
1.15752
1.16209
1.20026
1.3799
1.69421
2.00228
2.106
2.15571
2.19042
2.19303
2.18923
2.18822
2.18733
2.18519
2.18214
2.17669
2.1669
2.16021
2.1562
2.15351
2.15196
2.1495
2.14675
2.14534
2.14386
2.14016
2.13579
2.13107
2.12502
2.11628
2.10886
2.10517
2.10269
2.10123
2.10134
2.10392
2.10901
2.11413
2.12506
2.15519
2.20053
2.22705
2.23378
2.23705
2.23389
2.22423
2.21136
2.19603
2.18084
2.1726
2.16851
2.16707
2.16957
2.17199
2.16914
2.16318
2.15128
2.13814
2.1324
2.12886
2.1264
2.12408
2.12075
2.11597
2.10879
2.102
2.0976
2.09442
2.09205
2.09081
2.0897
2.08688
2.08335
2.07883
2.07256
2.06613
2.06114
2.05782
2.05508
2.0523
2.04867
2.04377
2.03776
2.03122
2.02463
2.01763
2.01173
2.00873
2.0071
1.20462
1.20768
1.21341
1.21813
1.22101
1.22553
1.23751
1.25296
1.26166
1.26588
1.26807
1.27001
1.27359
1.27608
1.27537
1.27303
1.2688
1.2627
1.25885
1.25804
1.25756
1.25735
1.25766
1.25811
1.25749
1.25628
1.25481
1.2526
1.24885
1.24419
1.24042
1.23774
1.23535
1.23251
1.2285
1.22459
1.22331
1.22314
1.22331
1.2244
1.22719
1.231
1.2332
1.23393
1.2345
1.23505
1.236
1.23718
1.23853
1.24067
1.24379
1.2465
1.24825
1.25027
1.25374
1.25923
1.26617
1.27123
1.27318
1.27412
1.27607
1.27963
1.28007
1.27849
1.27568
1.27159
1.26576
1.25743
1.25171
1.24994
1.24944
1.24935
1.25062
1.25338
1.25462
1.25405
1.25244
1.24926
1.24386
1.23785
1.23489
1.23388
1.23352
1.2347
1.23762
1.23874
1.23843
1.23736
1.23435
1.22792
1.22113
1.21855
1.21727
1.21609
1.21489
1.21372
1.21248
1.21099
1.20922
1.20798
1.20749
1.20736
1.2083
1.20971
1.20949
1.20847
1.20662
1.20315
1.19746
1.19368
1.19268
1.19216
1.19187
1.19219
1.19382
1.19423
1.19334
1.19173
1.18906
1.18473
1.18124
1.18038
1.18015
1.18048
1.18282
1.18715
1.18937
1.18936
1.18833
1.18555
1.18037
1.17438
1.17171
1.17107
1.17072
1.17059
1.17094
1.17208
1.17239
1.17202
1.17148
1.17063
1.17003
1.16989
1.16987
1.17014
1.17138
1.17318
1.17394
1.17428
1.17403
1.1723
1.16863
1.16458
1.16198
1.16075
1.16015
1.15986
1.16106
1.16347
1.1641
1.16283
1.16241
1.16094
1.17009
1.25479
1.49236
1.84221
2.05795
2.18039
2.20834
2.20606
2.20091
2.19432
2.189
2.18616
2.18413
2.18424
2.18331
2.17977
2.17309
2.16297
2.15769
2.15456
2.15283
2.15235
2.15268
2.15173
2.14771
2.1424
2.13707
2.13157
2.12575
2.11902
2.11295
2.10936
2.10729
2.10646
2.10597
2.10616
2.10781
2.11254
2.12059
2.14062
2.1814
2.22165
2.23664
2.24006
2.23693
2.22832
2.21563
2.19788
2.18208
2.17507
2.17154
2.17102
2.17466
2.17609
2.17293
2.16876
2.16107
2.14734
2.13636
2.13158
2.1286
2.12644
2.12343
2.11973
2.11429
2.10808
2.10386
2.10078
2.09877
2.09699
2.09364
2.08989
2.08502
2.07773
2.07021
2.06619
2.0635
2.06236
2.06284
2.06082
2.0568
2.0517
2.04458
2.03417
2.02331
2.01487
2.01077
2.00864
2.00747
1.2091
1.21322
1.21595
1.21715
1.218
1.21913
1.22557
1.23891
1.25251
1.26258
1.26954
1.27538
1.27873
1.2788
1.27744
1.27376
1.26755
1.26131
1.25958
1.25901
1.25873
1.25909
1.26091
1.26204
1.26145
1.26022
1.25802
1.2542
1.2493
1.24485
1.24177
1.23931
1.2365
1.2326
1.228
1.2256
1.22514
1.22503
1.22561
1.22782
1.23099
1.23249
1.2326
1.23269
1.23292
1.23283
1.23381
1.23544
1.23772
1.24177
1.24515
1.2466
1.24774
1.24923
1.25187
1.25638
1.26266
1.26904
1.27359
1.27728
1.28158
1.28319
1.28256
1.28047
1.27685
1.27162
1.26385
1.25688
1.25453
1.25385
1.25356
1.25428
1.25651
1.25755
1.25713
1.25583
1.25304
1.24785
1.24214
1.23932
1.23822
1.23762
1.23818
1.24041
1.24128
1.24089
1.23986
1.23719
1.23103
1.22339
1.22044
1.2193
1.21826
1.21713
1.21602
1.21493
1.21371
1.21233
1.21139
1.21094
1.21088
1.21176
1.21261
1.21211
1.21109
1.20928
1.20576
1.19998
1.19629
1.19535
1.19491
1.19471
1.19529
1.19719
1.19769
1.19686
1.19544
1.19312
1.18906
1.18479
1.18341
1.18295
1.18287
1.18396
1.18764
1.19087
1.19123
1.19067
1.18862
1.18422
1.1777
1.17392
1.17306
1.17264
1.17245
1.17244
1.17307
1.17361
1.17332
1.17272
1.17218
1.17184
1.17157
1.17151
1.17162
1.17231
1.17359
1.17434
1.17475
1.17469
1.173
1.16947
1.16644
1.16478
1.16409
1.1637
1.16409
1.16685
1.16956
1.16896
1.16751
1.16449
1.16555
1.19696
1.32915
1.63581
1.94478
2.15355
2.19506
2.20004
2.20219
2.20043
2.19984
2.19734
2.19339
2.19022
2.18849
2.18803
2.18543
2.18154
2.17656
2.16754
2.15903
2.15525
2.15322
2.15398
2.15738
2.15585
2.15097
2.14343
2.13618
2.13059
2.12639
2.12287
2.11969
2.11664
2.11479
2.11274
2.10929
2.10666
2.10666
2.10939
2.11588
2.13014
2.16239
2.20889
2.23787
2.24079
2.23815
2.2311
2.22038
2.20604
2.19142
2.18245
2.17803
2.17682
2.17815
2.17681
2.17331
2.16942
2.16442
2.15779
2.1496
2.14048
2.13277
2.12813
2.12465
2.12124
2.11753
2.11407
2.11164
2.10939
2.10598
2.1019
2.09738
2.09153
2.08366
2.07586
2.07148
2.06865
2.06701
2.06866
2.07016
2.06685
2.06237
2.05647
2.04729
2.03451
2.02198
2.01573
2.01231
2.0103
2.00984
1.21514
1.21663
1.21667
1.21633
1.21455
1.21364
1.21775
1.22797
1.2429
1.25938
1.2734
1.2795
1.28023
1.28014
1.27816
1.2728
1.26515
1.26181
1.26097
1.26056
1.26086
1.26301
1.26556
1.26568
1.26462
1.26234
1.2587
1.254
1.24933
1.24582
1.24332
1.24104
1.23797
1.23326
1.22941
1.22865
1.22833
1.22839
1.22994
1.23269
1.23321
1.23257
1.23186
1.23123
1.23013
1.22987
1.23103
1.23351
1.23788
1.24346
1.24549
1.24644
1.2472
1.24822
1.25027
1.25384
1.25935
1.2666
1.27447
1.28145
1.28443
1.28456
1.28392
1.28149
1.27712
1.27032
1.26323
1.26024
1.25916
1.25848
1.25847
1.25966
1.26025
1.25979
1.25877
1.25632
1.25148
1.24642
1.24401
1.24307
1.24261
1.24295
1.24368
1.24374
1.24312
1.2421
1.23948
1.23318
1.22578
1.22239
1.22107
1.22017
1.21933
1.21868
1.21796
1.21713
1.21629
1.21557
1.21518
1.21523
1.21571
1.21559
1.21477
1.21355
1.2115
1.2079
1.20229
1.19857
1.19761
1.19727
1.19709
1.19785
1.20025
1.2011
1.20031
1.19905
1.19734
1.19413
1.18916
1.1868
1.18626
1.18593
1.18607
1.18803
1.19143
1.19251
1.19228
1.1912
1.18829
1.18243
1.17714
1.17557
1.17504
1.17463
1.17444
1.1745
1.1749
1.1747
1.1742
1.17365
1.17329
1.17316
1.17315
1.17327
1.17354
1.17422
1.17475
1.17505
1.17479
1.17249
1.16932
1.16784
1.16718
1.16692
1.16685
1.16793
1.17178
1.17519
1.17425
1.17253
1.16906
1.17802
1.23623
1.45633
1.78695
2.08047
2.15365
2.18848
2.2097
2.22089
2.21824
2.21363
2.20886
2.20346
2.19819
2.19407
2.19145
2.18939
2.18565
2.18164
2.17749
2.17193
2.1648
2.16004
2.15792
2.15893
2.16001
2.15678
2.15119
2.14199
2.13417
2.13026
2.12744
2.12673
2.12802
2.12697
2.12344
2.11782
2.11099
2.1068
2.1057
2.10633
2.11115
2.12165
2.14503
2.18688
2.23001
2.24006
2.23818
2.23226
2.22551
2.21835
2.2086
2.1972
2.18875
2.18303
2.17809
2.17399
2.1705
2.16765
2.16523
2.16234
2.15832
2.15196
2.14146
2.13153
2.12651
2.12341
2.12131
2.12075
2.11995
2.11693
2.11275
2.10706
2.0994
2.09064
2.08208
2.07733
2.07447
2.07248
2.07289
2.07697
2.07612
2.07188
2.06635
2.05794
2.04597
2.03365
2.02641
2.02282
2.01966
2.01701
2.01601
1.21894
1.21854
1.21742
1.21478
1.21057
1.21031
1.2136
1.22111
1.23422
1.25443
1.27513
1.28005
1.28066
1.28051
1.2774
1.26982
1.26498
1.26377
1.26316
1.26342
1.26573
1.26831
1.26872
1.26796
1.26593
1.26264
1.25816
1.25374
1.2502
1.24749
1.24528
1.24307
1.23983
1.23502
1.23292
1.23253
1.23235
1.233
1.23523
1.23533
1.23406
1.23245
1.23072
1.22847
1.22711
1.22758
1.2293
1.2329
1.23929
1.24387
1.24519
1.246
1.24638
1.24696
1.24864
1.25143
1.25601
1.26407
1.27572
1.28392
1.28518
1.28534
1.28468
1.28197
1.27659
1.26963
1.2662
1.26525
1.2642
1.26344
1.26331
1.26312
1.26244
1.26141
1.25903
1.25455
1.25032
1.24852
1.24782
1.24772
1.24847
1.24797
1.24685
1.24573
1.24427
1.24135
1.23472
1.22737
1.22449
1.22323
1.22226
1.22144
1.22104
1.22133
1.22155
1.22127
1.22103
1.22087
1.22049
1.21984
1.21889
1.21749
1.21562
1.21346
1.21
1.20461
1.20093
1.1999
1.19956
1.19932
1.19974
1.20221
1.20394
1.20332
1.20211
1.20071
1.19873
1.19508
1.1908
1.1897
1.18929
1.18911
1.1896
1.19184
1.19333
1.19328
1.19257
1.19105
1.18799
1.18268
1.17883
1.17798
1.17733
1.17681
1.17653
1.17653
1.17635
1.17591
1.17536
1.17494
1.17463
1.17474
1.1751
1.17504
1.17511
1.17529
1.17541
1.175
1.17248
1.16867
1.16798
1.16823
1.16852
1.16901
1.17105
1.17568
1.17963
1.17929
1.17692
1.17678
1.1955
1.31703
1.59206
1.92152
2.11065
2.22008
2.2419
2.23657
2.22636
2.22249
2.21798
2.21239
2.20824
2.20485
2.20165
2.19798
2.19334
2.18907
2.18516
2.18162
2.17874
2.17613
2.17288
2.16904
2.16671
2.16508
2.16101
2.15573
2.14904
2.14028
2.13447
2.13151
2.13003
2.13192
2.13522
2.13344
2.1297
2.1237
2.11393
2.10756
2.10551
2.10539
2.10802
2.11579
2.1309
2.16219
2.20932
2.23625
2.23671
2.23349
2.23186
2.2306
2.22346
2.21438
2.20328
2.18934
2.17862
2.17314
2.16957
2.16688
2.16585
2.16456
2.16094
2.15637
2.14942
2.13993
2.13289
2.12924
2.12763
2.12793
2.12622
2.12264
2.11812
2.11056
2.09903
2.08941
2.08492
2.08184
2.07944
2.07883
2.08229
2.0839
2.08052
2.07568
2.06802
2.056
2.04173
2.03359
2.03027
2.02837
2.02785
2.02629
2.02264
1.22139
1.21984
1.21672
1.21139
1.20884
1.2095
1.21237
1.21889
1.22961
1.24816
1.27149
1.27871
1.27986
1.27945
1.27435
1.26857
1.26704
1.26646
1.26702
1.26949
1.27156
1.27172
1.27078
1.26869
1.2655
1.26141
1.2577
1.25456
1.25206
1.25001
1.24812
1.24596
1.24251
1.23814
1.23679
1.23647
1.2365
1.23785
1.23816
1.23668
1.23451
1.23201
1.22862
1.22647
1.22645
1.22699
1.22892
1.23381
1.24054
1.24321
1.24434
1.2451
1.24525
1.24556
1.24686
1.2491
1.25337
1.26175
1.27576
1.28421
1.28545
1.28566
1.285
1.28198
1.27619
1.272
1.2711
1.27038
1.26933
1.26812
1.26696
1.26574
1.26414
1.26129
1.25703
1.25365
1.2524
1.25202
1.25244
1.25362
1.2527
1.25099
1.2492
1.24689
1.24342
1.23639
1.22868
1.22613
1.22523
1.22456
1.22388
1.22352
1.22459
1.2265
1.22682
1.22671
1.22647
1.22566
1.224
1.2217
1.21961
1.21777
1.21565
1.21237
1.20721
1.2036
1.2025
1.20214
1.20184
1.20175
1.20316
1.20594
1.20602
1.20493
1.20365
1.20218
1.20022
1.19697
1.19354
1.19253
1.19217
1.1921
1.19296
1.19425
1.19428
1.19378
1.19247
1.19027
1.18726
1.1837
1.18148
1.18028
1.17949
1.179
1.17873
1.17846
1.17801
1.17738
1.1769
1.17655
1.17641
1.17697
1.17696
1.17656
1.17632
1.17606
1.17517
1.17238
1.16834
1.16778
1.16854
1.16945
1.17066
1.1734
1.17884
1.18283
1.18301
1.18104
1.18646
1.24112
1.42186
1.75004
2.0242
2.18997
2.23393
2.23709
2.23837
2.23319
2.22407
2.22022
2.21821
2.21583
2.2131
2.21079
2.20711
2.20177
2.19453
2.18792
2.18387
2.18065
2.17906
2.17973
2.1812
2.17989
2.17585
2.16932
2.1622
2.15483
2.14662
2.14048
2.13726
2.13533
2.13535
2.13903
2.13932
2.13624
2.1329
2.12837
2.12001
2.11072
2.10678
2.10591
2.10678
2.11141
2.12091
2.14207
2.18129
2.22377
2.23607
2.23674
2.23823
2.23912
2.23371
2.22536
2.21462
2.20047
2.18527
2.17564
2.17125
2.16855
2.16723
2.1649
2.16098
2.15653
2.15201
2.14739
2.1428
2.13995
2.1377
2.13437
2.13057
2.12635
2.12008
2.11028
2.09931
2.09293
2.08949
2.087
2.08592
2.08771
2.08985
2.08702
2.08259
2.07662
2.06744
2.05324
2.04233
2.03781
2.03501
2.03396
2.03376
2.03126
2.02697
1.22279
1.21948
1.21366
1.20956
1.20908
1.20958
1.21235
1.21891
1.22799
1.24104
1.26176
1.27335
1.27627
1.27543
1.27187
1.27035
1.27002
1.2716
1.27484
1.27568
1.27517
1.27412
1.27136
1.26695
1.26361
1.26124
1.25872
1.2565
1.25475
1.25328
1.25179
1.2496
1.24526
1.24111
1.24018
1.2399
1.24023
1.24071
1.23961
1.23756
1.23483
1.23077
1.22751
1.22678
1.22674
1.22737
1.23016
1.23614
1.24062
1.24211
1.24319
1.24388
1.24379
1.24411
1.24519
1.2472
1.25175
1.2602
1.27308
1.28284
1.28536
1.28565
1.28506
1.28196
1.27784
1.27669
1.27615
1.27563
1.27409
1.27236
1.27043
1.26785
1.26399
1.25936
1.25645
1.25563
1.25548
1.25638
1.2579
1.25712
1.25533
1.25317
1.25027
1.24626
1.23891
1.23064
1.22789
1.22724
1.22682
1.22643
1.2265
1.22826
1.23154
1.23248
1.23185
1.23119
1.23001
1.22748
1.22441
1.22191
1.22004
1.21807
1.21521
1.2104
1.20676
1.2056
1.20522
1.20489
1.20464
1.20475
1.2067
1.20838
1.20774
1.20658
1.20539
1.20402
1.20221
1.19898
1.19571
1.19478
1.19448
1.19456
1.19532
1.19541
1.19493
1.194
1.19256
1.19034
1.18762
1.18543
1.18364
1.18214
1.18149
1.18111
1.18079
1.18037
1.17979
1.17923
1.17884
1.17862
1.17894
1.17918
1.1786
1.17799
1.17733
1.17607
1.1731
1.16856
1.16714
1.16794
1.16942
1.17135
1.17482
1.1808
1.18544
1.18579
1.18579
1.20295
1.29737
1.56482
1.90343
2.14833
2.19156
2.21772
2.23598
2.25015
2.25028
2.24512
2.23552
2.2267
2.22207
2.21848
2.21697