/*--------------------------------*- C++ -*----------------------------------*\
  =========                 |
  \\      /  F ield         | OpenFOAM: The Open Source CFD Toolbox
   \\    /   O peration     | Website:  https://openfoam.org
    \\  /    A nd           | Version:  7
     \\/     M anipulation  |
\*---------------------------------------------------------------------------*/
FoamFile
{
    version     2.0;
    format      ascii;
    class       volScalarField;
    location    "3.5";
    object      T;
}
// * * * * * * * * * * * * * * * * * * * * * * * * * * * * * * * * * * * * * //

dimensions      [0 0 0 1 0 0 0];

internalField   nonuniform List<scalar> 
4128
(
1
1
1
1
1
1
1
1
1
1
1
1
1
1
1
1
1
1
1
1
1
1
1
1
1
1
1
1
1
1
1
1
1
1
1
1
1
1
1
1
1
1
1
1
1
1
1
1
1
1
1
1
1
1
1
1
1
1
1
1
1
1
1
1
1
1
1
1
1
1
1
1
1
1
1
1
1
1
1
1
1
1
1
1
1
1
1
1
1
1
1
1
1
1
1
1
1
1
1
1
1
1
1
1
1
1
1
1
1
1
1
1
1
1
1
1
1
1
1
1
1
1
1
1
1
1
1
1
1
1
1
1
1
1
1
1
1
1
1
1
1
1
1
1
1
1
1
1
1
1
1
1
1
1
1
1
1
1
1
1
1
1
1
1
1
1
1
1
1
1
1
1
1
1
1
1
1
1
1
1
1
1
1
1
1
1
1
1
1
1
1
1
1
1
1
1
1
1
1
1
1
1
1
1
1
1
1
1
1
1
1
1
1
1
1
1
1
1
1
1
1
1
1
1
1
1
1
1
1
1
1
1
1
1
1
1
1
1
1
1
1
1
1
1
1
1
1
1
1
1
1
1
1
1
1
1
1
1
1
1
1
1
1
1
1
1
1
1
1
1
1
1
1
1
1
1
1
1
1
1
1
1
1
1
1
1
1
1
1
1
1
1
1
1
1
1
1
1
1
1
1
1
1
1
1
1
1
1
1
1
1
1
1
1
1
1
1
1
1
1
1
1
1
1
1
1
1
1
1
1
1
1
1
1
1
1
1
1
1
1
1
1
1
1
1
1
1
1
1
1
1
1
1
1
1
1
1
1
1
1
1
1
1
1
1
1
1
1
1
1
1
1
1
1
1
1
1
1
1
1
1
1
1
1
1
1
1
1
1
1
1
1
1
1
1
1
1
1
1
1
1
1
1
1
1
1
1
1
1
1
1
1
1
1
1
1
1
1
1
1
1
1
1
1
1
1
1
1
1
1
1
1
1
1
1
1
1
1
1
1
1
1
1
1
1
1
1
1
1
1
1
1
1
1
1
1
1
1
1
1
1
1
1
1
1
1
1
1
1
1
1
1
1
1
1
1
1
1
1
1
1
1
1
1
1
1
1
1
1
1
1
1
1
1
1
1
1
1
1
1
1
1
1
1
1
1
1
1
1
1
1
1
1
1
1
1
1
1
1
1
1
1
1
1
1
1
1
1
1
1
1
1
1
1
1
1
1
1
1
1
1
1
1
1
1
1
1
1
1
1
1
1
1
1
1
1
1
1
1
1
1
1
1
1
1
1
1
1
1
1
1
1
1
1
1
1
1
1
1
1
1
1
1
1
1
1
1
1
1
1
1
1
1
1
1
1
1
1
1
1
1
1
1
1
1
1
1
1
1
1
1
1
1
1
1
1
1
1
1
1
1
1
1
1
1
1
1
1
1
1
1
1
1
1
1
1
1
1
1
1
1
1
1
1
1
1
1
1
1
1
1
1
1
1
1
1
1
1
1
1
1
1
1
1
1
1
1
1
1
1
1
1
1
1
1
1
1
1
1
1
1
1
1
1
1
1
1
1
1
1
1
1
1
1
1
1
1
1
1
1
1
1
1
1
1
1
1
1
1
1
1
1
1
1
1
1
1
1
1
1
1
1
1
1
1
1
1
1
1
1
1
1
1
1
1
1
1
1
1
1
1
1
1
1
1
1
1
1
1
1
1
1
1
1
1
1
1
1
1
1
1
1
1
1
1
1
1
1
1
1
1
1
1
1
1
1
1
1
1
1
1
1
1
1
1
1
1
1
1
1
1
1
1
1
1
1
1
1
1
1
1
1
1
1
1
1
1
1
1
1
1
1
1
1
1
1
1
1
1
1
1
1
1
1
1
1
1
1
1
1
1
1
1
1
1
1
1
1
1
1
1
1
1
1
1
1
1
1
1
1
1
1
1
1
1
1
1
1
1
1
1
1
1
1
1
1
1
1
1
1
1
1
1
1
1
1
1
1
1
1
1
1
1
1
1
1
1
1
1
1
1
1
1
1
1
1
1
1
1
1
1
1
1
1
1
1
1
1
1
1
1
1
1
1
1
1
1
1
1
1
1
1
1
1
1
1
1
1
1
1
1
1
1
1
1
1
1
1
1
1
1
1
1
1
1
1
1
1
1
1
1
1
1
1
1
1
1
1
1
1
1
1
1
1
1
1
1
1
1
1
1
1
1
1
1
1
1
1
1
1
1
1
1
1
1
1
1
1
1
1
1
1
1
1
1
1
1
1
1
1
1
1
1
1
1
1
1
1
1
1
1
1
1
1
1
1
1
1
1
1
1
1
1
1
1
1
1
1
1
1
1
1
1
1
1
1
1
1
1
1
1
1
1
1
1
1
1
1
1
1
1
1
1
1
1
1
1
1
1
1
1
1
1
1
1
1
1
1
1
1
1
1
1
1
1
1
1
1
1
1
1
1
1
1
1
1
1
1
1
1
1
1
1
1
1
1
1
1
1
1
1
1
1
1
1
1
1
1
1
1
1
1
1
1
1
1
1
1
1
1
1
1
1
1
1
1
1
1
1
1
1
1
1
1
1
1
1
1
1
1
1
1
1
1
1
1
1
1
1
1
1
1
1
1
1
1
1
1
1
1
1
1
1
1
1
1
1
1
1
1
1
1
1
1
1
1
1
1
1
1
1
1
1
1
1
1
1
1
1
1
1
1
1
1
1
1
1
1
1
1
1
1
1
1
1
1
1
1
1
1
1
1
1
1
1
1
1
1
1
1
1
1
1
1
1
1
1
1
1
1
1
1
1
1
1
1
1
1
1
1
1
1
1
1
1
1
1
1
1
1
1
1
1
1
1
1
1
1
1
1
1
1
1
1
1
1
1
1
1
1
1
1
1
1
1
1
1
1
1
1
1
1
1
1
1
1
1
1
1
1
1
1
1
1
1
1
1
1
1
1
1
1
1
1
1
1
1
1
1
1
1
1
1
1
1
1
1
1
1
1
1
1
1
1
1
1
1
1
1
1
1
1
1
1
1
1
1
1
1
1
1
1
1
1
1
1
1
1
1
1
1
1
1
1
1
1
1
1
1
1
1
1
1
1
1
1
1
1
1
1
1
1
1
1
1
1
1
1
1
1
1
1
1
1
1
1
1
1
1
1
1
1
1
1
1
1
1
1
1
1
1
1
1
1
1
1
1
1
1
1
1
1
1
1
1
1
1
1
1
1
1
1
1
1
1
1
1
1
1
1
1
1
1
1
1
1
1
1
1
1
1
1
1
1
1
1
1
1
1
1
1
1
1
1
1
1
1
1
1
1
1
1
1
1
1
1
1
1
1
1
1
1
1
1
1
1
1
1
1
1
1
1
1
1
1
1
1
1
1
1
1
1
1
1
1
1
1
1
1
1
1
1
1
1
1
1
1
1
1
1
1
1
1
1
1
1
1
1
1
1
1
1
1
1
1
1
1
1
1
1
1
1
1
1
1
1
1
1
1
1
1
1
1
1
1
1
1
1
1
1
1
1
1
1
1
1
1
1
1
1
1
1
1
1
1
1
1
1
1
1
1
1
1
1
1
1
1
1
1
1
1
1
1
1
1
1
1
1
1
1
1
1
1
1
1
1
1
1
1
1
1
1
1
1
1
1
1
1
1
1
1
1
1
1
1
1
1
1
1
1
1
1
1
1
1
1
1
1
1
1
1
1
1
1
1
1
1
1
1
1
1
1
1
1
1
1
1
1
1
1
1
1
1
1
1
1
1
1
1
1
1
1
1
1
1
1
1
1
1
1
1
1
1
1
1
1
1
1
1
1
1
1
1
1
1
1
1
1
1
1
1
1
1
1
1
1
1
1
1
1
1
1
1
1
1
1
1
1
1
1
1
1
1
1
1
1
1
1
1
1
1
1
1
1
1
1
1
1
1
1
1
1
1
1
1
1
1
1
1
1
1
1
1
1
1
1
1
1
1
1
1
1
1
1
1
1
1
1
1
1
1
1
1
1
1
1
1
1
1
1
1
1
1
1
1
1
1.46243
1.45403
1.45611
1.5277
1.77478
1.92021
1
1
1
1
1
1
1
1
1.00107
1.05272
1.35388
1.65847
1.7686
1.77331
1.76007
1.74777
1.7345
1.72003
1.7139
1.7024
1.68923
1.67574
1.66002
1.65527
1.64614
1.63444
1.6232
1.60753
1.60139
1.59257
1.5811
1.57035
1.55608
1.55098
1.54348
1.53318
1.52274
1.50956
1.50473
1.49736
1.48773
1.47845
1.46613
1.4586
1.45054
1.4559
1.57075
1.80828
1
1
1
1
1
1
1
1
1.00001
1.0013
1.05437
1.34431
1.66153
1.74626
1.75602
1.74991
1.73515
1.72025
1.71204
1.69881
1.68708
1.67038
1.66136
1.65695
1.64586
1.63566
1.62132
1.60888
1.60316
1.59216
1.58219
1.56992
1.55852
1.55392
1.54453
1.53483
1.52223
1.51213
1.50787
1.49898
1.49002
1.47887
1.46927
1.46394
1.45313
1.44472
1.46045
1.6163
1
1
1
1
1
1
1
1
1
1.00001
1.00139
1.05276
1.34504
1.64943
1.72408
1.74593
1.73836
1.72143
1.70865
1.69691
1.68379
1.66805
1.66421
1.65765
1.64667
1.63614
1.61929
1.61168
1.60391
1.59239
1.5838
1.57
1.56245
1.55642
1.54572
1.53589
1.52177
1.51539
1.51025
1.5007
1.49209
1.47907
1.47253
1.46786
1.45781
1.44251
1.44356
1.47779
1
1
1
1
1
1
1
1
1
1
1.00001
1.00146
1.05293
1.346
1.62524
1.7118
1.734
1.72409
1.70881
1.69671
1.67966
1.66943
1.66682
1.65838
1.64847
1.63371
1.6196
1.61348
1.6028
1.59343
1.58476
1.57153
1.56649
1.55792
1.54697
1.53619
1.52274
1.51864
1.51211
1.5029
1.49309
1.48052
1.47588
1.46984
1.46157
1.44593
1.43891
1.44212
1
1
1
1
1
1
1
1
1
1
1
1.00001
1.00153
1.05209
1.33452
1.59183
1.70004
1.72264
1.71301
1.69981
1.68154
1.67193
1.66712
1.65844
1.64771
1.63102
1.62239
1.61367
1.60244
1.59577
1.58381
1.57483
1.56948
1.55792
1.54798
1.53605
1.52557
1.52195
1.51393
1.50508
1.49326
1.48326
1.47914
1.47134
1.46372
1.45182
1.44071
1.43779
1
1
1
1
1
1
1
1
1
1
1
1
1.00001
1.0014
1.04886
1.29687
1.56023
1.69388
1.71407
1.70798
1.69007
1.67517
1.66729
1.65845
1.64412
1.63077
1.62287
1.61226
1.6047
1.59722
1.58385
1.57929
1.5706
1.55791
1.54925
1.5359
1.52945
1.52497
1.5158
1.50686
1.49374
1.48669
1.48192
1.47336
1.46573
1.45468
1.44606
1.43994
1
1
1
1
1
1
1
1
1
1
1
1
1
1.00001
1.00118
1.03893
1.24717
1.55745
1.68579
1.70123
1.69441
1.67975
1.66807
1.65592
1.64139
1.63216
1.62319
1.61368
1.6075
1.59456
1.58676
1.5816
1.56894
1.55897
1.55045
1.53743
1.53381
1.52726
1.51761
1.50782
1.49485
1.48997
1.48409
1.47575
1.46769
1.45638
1.4514
1.4448
1
1
1
1
1
1
1
1
1
1
1
1
1
1
1.00001
1.00087
1.02747
1.23182
1.56292
1.66238
1.68275
1.67893
1.6686
1.65389
1.6411
1.63303
1.62444
1.61851
1.60781
1.59489
1.5907
1.58095
1.56802
1.56151
1.54999
1.54123
1.53768
1.52846
1.51941
1.50819
1.49734
1.49325
1.48594
1.47837
1.46941
1.45913
1.45535
1.4491
1
1
1
1
1
1
1
1
1
1
1
1
1
1
1
1
1.00061
1.02393
1.24101
1.5345
1.63045
1.66871
1.66801
1.65768
1.6452
1.63621
1.62963
1.6207
1.60563
1.59928
1.59187
1.5789
1.57105
1.56435
1.55043
1.54634
1.53969
1.52875
1.52044
1.50771
1.50094
1.49641
1.48815
1.48148
1.47109
1.46315
1.45834
1.45056
1
1
1
1
1
1
1
1
1
1
1
1
1
1
1
1
1
1.00054
1.02464
1.22548
1.46256
1.6047
1.66335
1.66749
1.65808
1.64605
1.63417
1.61759
1.60871
1.60211
1.59028
1.58034
1.57624
1.56468
1.55527
1.55057
1.53914
1.5294
1.52029
1.50823
1.50517
1.49934
1.49127
1.4844
1.47289
1.46709
1.46056
1.45109
1
1
1
1
1
1
1
1
1
1
1
1
1
1
1
1
1
1
1.00051
1.0197
1.15776
1.39239
1.60788
1.66691
1.66265
1.65112
1.63585
1.62007
1.6129
1.60097
1.58882
1.58494
1.57951
1.56669
1.56166
1.55163
1.53792
1.53032
1.51821
1.51193
1.51019
1.50279
1.49536
1.48581
1.47501
1.47026
1.46164
1.4525
1
1
1
1
1
1
1
1
1
1
1
1
1
1
1
1
1
1
1
1.00029
1.00976
1.10393
1.37961
1.62196
1.64599
1.64413
1.63825
1.62671
1.613
1.59787
1.59196
1.59052
1.58162
1.57317
1.56534
1.54868
1.53791
1.53032
1.51842
1.51819
1.51604
1.5076
1.49889
1.48521
1.47722
1.47223
1.46267
1.4556
1
1
1
1
1
1
1
1
1
1
1
1
1
1
1
1
1
1
1
1
1.00011
1.00557
1.08919
1.38968
1.58313
1.6158
1.6312
1.62706
1.61344
1.60055
1.60021
1.59674
1.58526
1.57876
1.56368
1.54524
1.53936
1.53051
1.52442
1.52594
1.52188
1.51241
1.49982
1.48373
1.4786
1.47339
1.4655
1.46012
1
1
1
1
1
1
1
1
1
1
1
1
1
1
1
1
1
1
1
1
1
1.00007
1.00461
1.08528
1.36403
1.52061
1.59024
1.62592
1.62283
1.61931
1.61184
1.59688
1.58745
1.57995
1.5572
1.54547
1.54317
1.53554
1.53416
1.53405
1.52649
1.51385
1.49757
1.48296
1.48
1.47553
1.4707
1.46463
1
1
1
1
1
1
1
1
1
1
1
1
1
1
1
1
1
1
1
1
1
1
1.00006
1.00391
1.07668
1.27846
1.4482
1.59444
1.63331
1.62787
1.61208
1.59665
1.59137
1.57751
1.55335
1.55099
1.55049
1.54573
1.5441
1.54047
1.52724
1.51194
1.49455
1.48342
1.48275
1.48055
1.47732
1.46887
1
1
1
1
1
1
1
1
1
1
1
1
1
1
1
1
1
1
1
1
1
1
1
1.00004
1.00273
1.03857
1.17361
1.4387
1.60998
1.61227
1.60825
1.59989
1.5934
1.57126
1.55662
1.55865
1.55915
1.55612
1.55256
1.54289
1.52366
1.50827
1.49458
1.48692
1.48785
1.48768
1.48291
1.47407
1
1
1
1
1
1
1
1
1
1
1
1
1
1
1
1
1
1
1
1
1
1
1
1
1.00002
1.0008
1.01595
1.14795
1.44577
1.57378
1.58759
1.59512
1.59006
1.57038
1.5665
1.56909
1.5685
1.56267
1.55567
1.53992
1.51689
1.50639
1.49999
1.4948
1.49552
1.49499
1.48768
1.47723
1
1
1
1
1
1
1
1
1
1
1
1
1
1
1
1
1
1
1
1
1
1
1
1
1
1
1.00033
1.01196
1.14232
1.41885
1.5259
1.56332
1.58583
1.58362
1.58414
1.58148
1.57257
1.56261
1.55515
1.53378
1.51311
1.50955
1.50902
1.50665
1.50443
1.50141
1.49105
1.47483
1
1
1
1
1
1
1
1
1
1
1
1
1
1
1
1
1
1
1
1
1
1
1
1
1
1
1
1.00025
1.011
1.1302
1.33537
1.46051
1.55768
1.59891
1.59755
1.58623
1.57224
1.56272
1.55323
1.52822
1.51699
1.51761
1.5185
1.51668
1.51239
1.50592
1.489
1.46822
1
1
1
1
1
1
1
1
1
1
1
1
1
1
1
1
1
1
1
1
1
1
1
1
1
1
1
1
1.00021
1.00761
1.07082
1.22011
1.43274
1.58402
1.58712
1.58317
1.57383
1.56438
1.54766
1.52783
1.52621
1.52779
1.52806
1.52477
1.51761
1.50627
1.482
1.46747
1
1
1
1
1
1
1
1
1
1
1
1
1
1
1
1
1
1
1
1
1
1
1
1
1
1
1
1
1
1.00008
1.00225
1.02793
1.17328
1.4345
1.56751
1.56956
1.56651
1.5605
1.54556
1.53498
1.53551
1.53595
1.53494
1.52868
1.52
1.50246
1.47861
1.47521
1
1
1
1
1
1
1
1
1
1
1
1
1
1
1
1
1
1
1
1
1
1
1
1
1
1
1
1
1
1
1.00001
1.00068
1.01813
1.14997
1.41046
1.52435
1.53963
1.54678
1.55018
1.5491
1.54802
1.54543
1.53909
1.52848
1.51847
1.49702
1.48205
1.48382
1
1
1
1
1
1
1
1
1
1
1
1
1
1
1
1
1
1
1
1
1
1
1
1
1
1
1
1
1
1
1
1.00001
1.00042
1.01324
1.1238
1.34673
1.46057
1.513
1.55213
1.56592
1.56198
1.55366
1.53966
1.52725
1.51735
1.49658
1.48984
1.49222
1
1
1
1
1
1
1
1
1
1
1
1
1
1
1
1
1
1
1
1
1
1
1
1
1
1
1
1
1
1
1
1
1
1.00027
1.00807
1.07826
1.2524
1.39884
1.52244
1.56888
1.56726
1.5544
1.5379
1.52807
1.51859
1.50021
1.49824
1.50099
1
1
1
1
1
1
1
1
1
1
1
1
1
1
1
1
1
1
1
1
1
1
1
1
1
1
1
1
1
1
1
1
1
1
1.0001
1.00309
1.03754
1.16735
1.36554
1.5428
1.55571
1.54926
1.53919
1.53243
1.52144
1.50682
1.50612
1.50811
1
1
1
1
1
1
1
1
1
1
1
1
1
1
1
1
1
1
1
1
1
1
1
1
1
1
1
1
1
1
1
1
1
1
1
1.00002
1.00093
1.01686
1.11569
1.34457
1.51211
1.52857
1.52645
1.5287
1.52439
1.51509
1.51487
1.51579
1
1
1
1
1
1
1
1
1
1
1
1
1
1
1
1
1
1
1
1
1
1
1
1
1
1
1
1
1
1
1
1
1
1
1
1
1.00001
1.00034
1.0084
1.08195
1.30988
1.46647
1.49738
1.51476
1.52869
1.52682
1.52651
1.52429
1
1
1
1
1
1
1
1
1
1
1
1
1
1
1
1
1
1
1
1
1
1
1
1
1
1
1
1
1
1
1
1
1
1
1
1
1
1
1.00014
1.00482
1.06614
1.25922
1.39444
1.46693
1.52116
1.53972
1.53624
1.52532
1
1
1
1
1
1
1
1
1
1
1
1
1
1
1
1
1
1
1
1
1
1
1
1
1
1
1
1
1
1
1
1
1
1
1
1
1
1
1
1.00008
1.00315
1.0406
1.16249
1.30754
1.46534
1.5375
1.53192
1.523
1
1
1
1
1
1
1
1
1
1
1
1
1
1
1
1
1
1
1
1
1
1
1
1
1
1
1
1
1
1
1
1
1
1
1
1
1
1
1
1
1.00003
1.00106
1.01367
1.08375
1.26352
1.46502
1.51529
1.51266
1
1
1
1
1
1
1
1
1
1
1
1
1
1
1
1
1
1
1
1
1
1
1
1
1
1
1
1
1
1
1
1
1
1
1
1
1
1
1
1
1
1
1.0002
1.00482
1.05093
1.22413
1.43425
1.48114
1
1
1
1
1
1
1
1
1
1
1
1
1
1
1
1
1
1
1
1
1
1
1
1
1
1
1
1
1
1
1
1
1
1
1
1
1
1
1
1
1
1
1
1.00007
1.00225
1.03372
1.19341
1.37143
1
1
1
1
1
1
1
1
1
1
1
1
1
1
1
1
1
1
1
1
1
1
1
1
1
1
1
1
1
1
1
1
1
1
1
1
1
1
1
1
1
1
1
1
1.00003
1.00132
1.02262
1.13105
1
1
1
1
1
1
1
1
1
1
1
1
1
1
1
1
1
1
1
1
1
1
1
1
1
1
1
1
1
1
1
1
1
1
1
1
1
1
1
1
1
1
1
1
1
1.00001
1.00054
1.00865
1
1
1
1
1
1
1
1
1
1
1
1
1
1
1
1
1
1
1
1
1
1
1
1
1
1
1
1
1
1
1
1
1
1
1
1
1
1
1
1
1
1
1
1
1
1
1
1.00009
1
1
1
1
1
1
1
1
1
1
1
1
1
1
1
1
1
1
1
1
1
1
1
1
1
1
1
1
1
1
1
1
1
1
1
1
1
1
1
1
1
1
1
1
1
1
1
1
1
1
1
1
1
1
1
1
1
1
1
1
1
1
1
1
1
1
1
1
1
1
1
1
1
1
1
1
1
1
1
1
1
1
1
1
1
1
1
1
1
1
1
1
1
1
1
1
1.96551
1.95892
1.94994
1.94119
1.93421
1.92699
1.91799
1.90723
1.89882
1.88951
1.87784
1.86388
1.85315
1.84127
1.82748
1.91454
1.9467
1.94019
1.92829
1.91973
1.91212
1.9029
1.89317
1.88592
1.8769
1.86532
1.85272
1.84326
1.83129
1.81788
1.82499
1.90825
1.92491
1.91612
1.90652
1.89867
1.88894
1.88025
1.87292
1.86392
1.85207
1.84106
1.832
1.82055
1.80728
1.65605
1.82935
1.90045
1.89953
1.89257
1.88487
1.87512
1.86798
1.86051
1.85155
1.83945
1.83009
1.82097
1.80983
1.79649
1.49803
1.68531
1.83145
1.88256
1.8796
1.87121
1.86027
1.85414
1.84743
1.83859
1.82691
1.81934
1.81011
1.79967
1.78577
1.44207
1.51855
1.70998
1.82562
1.86588
1.86101
1.84817
1.83968
1.83336
1.82474
1.81519
1.80856
1.79976
1.78989
1.77597
1.43286
1.44147
1.54273
1.72787
1.81952
1.8499
1.84191
1.83028
1.82171
1.81115
1.80375
1.79787
1.7899
1.77993
1.76709
1.43259
1.42945
1.44685
1.56731
1.73783
1.81005
1.8318
1.82551
1.81561
1.80144
1.79374
1.7877
1.78043
1.76945
1.75902
1.43647
1.42491
1.42646
1.45624
1.5896
1.74135
1.7968
1.81523
1.80953
1.79511
1.7849
1.77832
1.77128
1.76027
1.75213
1.44123
1.42513
1.42478
1.42794
1.46701
1.61003
1.73642
1.7881
1.79883
1.78994
1.77897
1.77157
1.76347
1.75228
1.74597
1.44359
1.43123
1.42569
1.42494
1.42759
1.47885
1.62033
1.73543
1.77778
1.7799
1.77382
1.76656
1.75612
1.74584
1.73992
1.44544
1.43609
1.43155
1.42796
1.42129
1.42577
1.48808
1.63347
1.72899
1.76272
1.76604
1.76119
1.74857
1.73851
1.73138
1.44749
1.44042
1.43892
1.43359
1.4229
1.41537
1.42312
1.4963
1.63943
1.71803
1.75592
1.75485
1.74375
1.73182
1.72323
1.45072
1.44643
1.44441
1.43734
1.42568
1.41212
1.41181
1.42431
1.51177
1.63559
1.71707
1.74665
1.74108
1.73038
1.72146
1.45576
1.45224
1.44638
1.43736
1.42925
1.41459
1.40898
1.41032
1.43035
1.51801
1.638
1.71163
1.73579
1.7312
1.72282
1.46201
1.45545
1.44514
1.43738
1.4322
1.42067
1.41307
1.4106
1.41106
1.43297
1.51855
1.64519
1.70369
1.72315
1.71988
1.46576
1.45432
1.44362
1.44
1.43442
1.42677
1.42161
1.41515
1.40587
1.40697
1.43241
1.53413
1.64885
1.69008
1.70857
1.46404
1.45113
1.44647
1.44469
1.43683
1.43382
1.42925
1.41938
1.40704
1.39825
1.40182
1.43778
1.55188
1.63768
1.68204
1.459
1.45271
1.45297
1.44898
1.44405
1.44099
1.43169
1.41969
1.4101
1.39607
1.39624
1.40294
1.45095
1.54681
1.63344
1.45994
1.46046
1.4596
1.45478
1.45261
1.44461
1.42918
1.41969
1.41421
1.39947
1.398
1.40353
1.41175
1.45322
1.53849
1.46785
1.46902
1.46573
1.46402
1.45914
1.44312
1.42733
1.42275
1.41386
1.40713
1.40783
1.40841
1.40912
1.41307
1.44669
1.47713
1.47589
1.47377
1.47195
1.45981
1.43819
1.42986
1.42387
1.41536
1.41866
1.41966
1.41653
1.41241
1.40046
1.4021
1.48556
1.48396
1.48249
1.47643
1.45528
1.4376
1.4317
1.42347
1.42423
1.43028
1.42957
1.42512
1.41447
1.39339
1.38808
1.4934
1.49173
1.48845
1.47597
1.45176
1.44019
1.43208
1.4299
1.43642
1.43977
1.43762
1.43052
1.41511
1.38834
1.38336
1.502
1.49887
1.49107
1.47198
1.45104
1.44215
1.43676
1.43917
1.44762
1.44825
1.44292
1.43086
1.41039
1.38907
1.38554
1.50819
1.50307
1.49158
1.47009
1.45065
1.44709
1.44703
1.4499
1.45638
1.4552
1.44442
1.42618
1.40275
1.39481
1.39447
1.51324
1.50319
1.48978
1.46837
1.45352
1.45434
1.45924
1.46251
1.46413
1.4591
1.44204
1.41768
1.40061
1.40018
1.40573
1.51378
1.50098
1.48953
1.46861
1.46167
1.4647
1.47144
1.47223
1.46984
1.45814
1.43531
1.41243
1.40501
1.4072
1.41624
1.51103
1.5018
1.49156
1.47287
1.47198
1.47642
1.48115
1.47934
1.47106
1.4536
1.42838
1.41386
1.41277
1.41759
1.42654
1.51307
1.50717
1.49302
1.48054
1.48189
1.48614
1.48703
1.48185
1.46925
1.44743
1.4262
1.42205
1.42246
1.42927
1.43552
1.50722
1.50516
1.49487
1.48862
1.49043
1.49297
1.49117
1.48104
1.4655
1.44182
1.43153
1.43227
1.43329
1.44011
1.44219
1.48784
1.4966
1.49935
1.49978
1.50179
1.50061
1.4908
1.47734
1.46163
1.44201
1.44081
1.44407
1.44517
1.44846
1.44712
1.43263
1.47379
1.50793
1.513
1.50925
1.50056
1.4882
1.47921
1.4617
1.44873
1.45089
1.45577
1.45684
1.45615
1.46587
1.26616
1.3876
1.4956
1.51386
1.50759
1.49977
1.49207
1.48398
1.46362
1.45764
1.46104
1.46644
1.47478
1.52211
1.64384
1.05669
1.17779
1.38487
1.48833
1.49243
1.49158
1.48925
1.48144
1.46748
1.46918
1.47778
1.51248
1.61406
1.76996
1.87229
1.00219
1.02344
1.13774
1.35264
1.44783
1.4712
1.47285
1.47628
1.48625
1.51399
1.5879
1.73355
1.87167
1.91993
1.93848
1.00002
1.00071
1.01237
1.11595
1.29836
1.39169
1.43679
1.51319
1.60572
1.69692
1.82459
1.88606
1.91167
1.92812
1.91897
1
1.00001
1.00033
1.01009
1.08677
1.2141
1.40954
1.62956
1.81327
1.95765
2.05297
2.04515
1.9988
1.94034
1.9029
)
;

boundaryField
{
    inlet
    {
        type            fixedValue;
        value           uniform 1;
    }
    outlet
    {
        type            inletOutlet;
        inletValue      nonuniform 0();
        value           nonuniform 0();
    }
    bottom
    {
        type            zeroGradient;
    }
    top
    {
        type            zeroGradient;
    }
    obstacle
    {
        type            zeroGradient;
    }
    defaultFaces
    {
        type            empty;
    }
    procBoundary2to0
    {
        type            processor;
        value           nonuniform List<scalar> 
112
(
1
1
1
1
1
1
1
1
1
1
1
1
1
1
1
1
1
1
1
1
1
1
1
1
1
1
1
1
1
1
1
1
1
1
1
1
1
1
1
1
1
1
1
1
1
1
1
1
1.45675
1.45743
1.49506
1.72178
1.92279
1.9856
1
1
1
1
1
1
1
1.00085
1.04589
1.35952
1.66229
1.77328
1.79263
1.77767
1.75913
1.74656
1.73696
1.72239
1.71319
1.70455
1.69058
1.67894
1.66219
1.65305
1.64615
1.63383
1.62351
1.60819
1.59902
1.59239
1.58062
1.57033
1.55584
1.548
1.54206
1.53141
1.52183
1.50837
1.50089
1.49501
1.48598
1.47648
1.47648
1.98153
1.97262
1.96584
1.95902
1.95112
1.94298
1.93304
1.9212
1.91062
1.90036
1.88804
1.87319
1.86133
1.84967
1.83547
)
;
    }
    procBoundary2to1
    {
        type            processor;
        value           nonuniform List<scalar> 6(1.81044 1.80092 1.79129 1.78251 1.77488 1.76824);
    }
    procBoundary2to3
    {
        type            processor;
        value           nonuniform List<scalar> 
32
(
1.76122
1.75359
1.74565
1.73838
1.73109
1.72315
1.71683
1.7129
1.7089
1.7053
1.70189
1.69793
1.67765
1.63466
1.54467
1.44267
1.39503
1.38602
1.38757
1.39459
1.40558
1.41724
1.42682
1.43332
1.43657
1.43845
1.53462
1.79617
1.91055
1.93346
1.90742
1.89072
)
;
    }
}


// ************************************************************************* //
