/*--------------------------------*- C++ -*----------------------------------*\
  =========                 |
  \\      /  F ield         | OpenFOAM: The Open Source CFD Toolbox
   \\    /   O peration     | Website:  https://openfoam.org
    \\  /    A nd           | Version:  7
     \\/     M anipulation  |
\*---------------------------------------------------------------------------*/
FoamFile
{
    version     2.0;
    format      ascii;
    class       volScalarField;
    location    "2";
    object      p;
}
// * * * * * * * * * * * * * * * * * * * * * * * * * * * * * * * * * * * * * //

dimensions      [1 -1 -2 0 0 0 0];

internalField   nonuniform List<scalar> 
16512
(
3.00978
3.00372
2.99994
2.99621
2.99139
2.98703
2.97868
2.95657
2.92059
2.88621
2.86971
2.85671
2.83936
2.81781
2.80051
2.79022
2.7823
2.77442
2.76167
2.74361
2.72599
2.71262
2.70107
2.68769
2.66951
2.65147
2.64204
2.63612
2.63072
2.6264
2.62493
2.62504
2.62139
2.61434
2.60375
2.58454
2.55258
2.51359
2.48804
2.47737
2.47136
2.46683
2.464
2.46285
2.45992
2.45484
2.44819
2.43898
2.42321
2.39293
2.35376
2.33277
2.32511
2.32
2.31563
2.31167
2.30999
2.31291
2.31093
2.30565
2.30115
2.29667
2.29217
2.28749
2.27923
2.26045
2.22563
2.18931
2.17048
2.16049
2.15378
2.14892
2.14467
2.14123
2.13939
2.13887
2.13532
2.13043
2.12481
2.11713
2.10385
2.08252
2.06329
2.05386
2.04815
2.04328
2.03894
2.0342
2.02925
2.02331
2.01435
2.00046
1.98356
1.96921
1.9586
1.94986
1.94332
1.93765
1.93095
1.92389
1.91925
1.9157
1.91238
1.90861
1.90391
1.8966
1.88219
1.85819
1.8374
1.82948
1.8264
1.82459
1.8234
1.82269
1.82123
1.81806
1.8146
1.81018
1.80518
1.79941
1.78942
1.7684
1.74767
1.73886
1.7335
1.72893
1.72506
1.72133
1.71764
1.71459
1.71178
1.70927
1.708
1.70657
1.70344
1.69642
1.68087
1.65633
1.63806
1.63011
1.62614
1.62233
1.61872
1.61512
1.61131
1.6077
1.6038
1.59847
1.59052
1.58073
1.57343
1.56713
1.56145
1.55657
1.55219
1.54865
1.54585
1.54275
1.53676
1.52436
1.51128
1.50504
1.50216
1.49881
1.49452
1.4898
1.48481
1.47998
1.47675
1.47432
1.47177
1.46955
1.46825
1.46683
1.46438
1.46016
1.453
1.43972
1.42365
1.41502
1.41178
1.40967
1.40761
1.40512
1.40177
1.39679
1.39024
1.38452
1.37957
1.37552
1.37144
1.36551
1.35506
1.34031
1.33048
1.32643
1.32353
1.32126
1.31813
1.31591
1.31498
1.31426
1.31343
1.31111
1.30748
1.30326
1.29784
1.29038
1.28338
1.27917
1.27572
1.27047
1.26159
1.25293
1.25016
1.24874
1.24712
1.24549
1.24398
1.24281
1.2415
1.23915
1.23424
1.22484
1.2113
1.20116
1.19562
1.19063
1.18744
1.18671
1.18604
1.18521
1.18378
1.18278
1.18376
1.18178
1.17879
1.17532
1.17113
1.16573
1.15623
1.14367
1.13691
1.13565
1.1348
1.13362
1.13154
1.13026
1.13144
1.12906
1.12655
1.12309
1.1187
1.11381
1.10687
1.09887
1.09303
1.08725
3.02198
3.01839
3.01114
3.00081
2.98957
2.97842
2.96338
2.93716
2.90721
2.89692
2.89156
2.88456
2.87344
2.85662
2.83194
2.80433
2.78056
2.76105
2.74853
2.73609
2.72612
2.71829
2.70969
2.69895
2.68427
2.66592
2.64999
2.64051
2.6341
2.62854
2.62366
2.61763
2.60997
2.60144
2.5923
2.58331
2.57009
2.54714
2.51592
2.49151
2.48182
2.47777
2.47705
2.47454
2.46847
2.46181
2.45406
2.44372
2.42921
2.40791
2.38057
2.35204
2.33406
2.32611
2.32115
2.31708
2.31395
2.31112
2.30666
2.30139
2.29707
2.2937
2.28955
2.28457
2.27883
2.27092
2.25246
2.21104
2.17232
2.16163
2.15781
2.15328
2.14827
2.1444
2.14158
2.1402
2.13913
2.13538
2.13046
2.12327
2.11016
2.08793
2.0672
2.05946
2.0544
2.04787
2.04118
2.03522
2.02927
2.02273
2.01588
2.00831
1.99654
1.98035
1.96507
1.95223
1.94331
1.9392
1.93691
1.93359
1.92816
1.92373
1.92035
1.91678
1.91235
1.90487
1.888
1.86078
1.84236
1.83537
1.82979
1.82599
1.82357
1.82146
1.81913
1.81783
1.81869
1.81649
1.81271
1.80761
1.79787
1.77953
1.7561
1.74152
1.73412
1.72901
1.72516
1.72141
1.7179
1.71536
1.71307
1.71064
1.70775
1.7043
1.7007
1.69693
1.68924
1.67034
1.64424
1.62962
1.62468
1.62188
1.61937
1.61665
1.61403
1.61155
1.60866
1.60402
1.59544
1.58223
1.57205
1.56944
1.56683
1.56331
1.56026
1.55752
1.55457
1.55074
1.54415
1.53205
1.51606
1.50582
1.50176
1.49867
1.49394
1.48822
1.48325
1.47954
1.47686
1.47432
1.47191
1.46977
1.46781
1.46611
1.46434
1.46226
1.45857
1.45025
1.43454
1.41818
1.40949
1.40558
1.40299
1.40041
1.39717
1.39354
1.38879
1.38426
1.38139
1.37908
1.37617
1.37116
1.36032
1.34201
1.32968
1.32687
1.32501
1.32185
1.31837
1.31643
1.31537
1.31449
1.31346
1.31212
1.30986
1.30641
1.3013
1.29304
1.28274
1.27516
1.27047
1.26607
1.26059
1.2555
1.25196
1.24891
1.24653
1.24439
1.24231
1.24058
1.23907
1.23713
1.23412
1.228
1.21701
1.20644
1.20007
1.19488
1.19185
1.19129
1.19063
1.18982
1.18843
1.18717
1.18839
1.18731
1.18459
1.18135
1.17694
1.17106
1.16189
1.14922
1.13861
1.1358
1.13485
1.13368
1.13181
1.13182
1.13401
1.1312
1.12853
1.12544
1.12193
1.11745
1.11046
1.10181
1.0945
1.08762
3.03638
3.02738
3.01864
3.01066
3.00073
2.98229
2.95129
2.92057
2.90767
2.90303
2.90127
2.89889
2.89175
2.88182
2.86483
2.8328
2.79088
2.75726
2.74143
2.73512
2.73015
2.72425
2.71704
2.70796
2.6959
2.67821
2.6594
2.64872
2.64204
2.63536
2.62694
2.61825
2.60938
2.59982
2.59065
2.5829
2.57427
2.56144
2.54598
2.52685
2.50436
2.48791
2.47808
2.46899
2.45983
2.45035
2.43974
2.42823
2.41722
2.40771
2.39693
2.38049
2.35678
2.33751
2.32831
2.32214
2.31525
2.30794
2.30136
2.29607
2.29272
2.29071
2.28947
2.28671
2.28304
2.27801
2.26675
2.2342
2.18654
2.16651
2.16096
2.15704
2.15324
2.14974
2.14713
2.14493
2.14135
2.1369
2.13205
2.12674
2.11803
2.1011
2.07848
2.06368
2.05843
2.05446
2.04884
2.04213
2.03571
2.02953
2.02317
2.01594
2.00618
1.99212
1.97393
1.95844
1.94992
1.94396
1.93726
1.92992
1.92347
1.91789
1.91337
1.90969
1.90585
1.90095
1.89117
1.87181
1.84999
1.83858
1.83341
1.82965
1.82647
1.82412
1.82284
1.82207
1.81888
1.81444
1.80929
1.80327
1.79697
1.78633
1.76823
1.75048
1.73827
1.73104
1.72683
1.7233
1.71999
1.71725
1.71458
1.71158
1.70827
1.705
1.70198
1.69895
1.6945
1.68341
1.65726
1.63456
1.62856
1.62581
1.62319
1.62083
1.61839
1.61515
1.61113
1.60568
1.59774
1.58679
1.57514
1.567
1.56281
1.55983
1.55703
1.55395
1.55033
1.54639
1.54233
1.53708
1.52759
1.5141
1.50382
1.49888
1.49494
1.48995
1.48538
1.48201
1.47909
1.47629
1.47399
1.47177
1.46921
1.46729
1.46573
1.46398
1.4614
1.45651
1.44415
1.4247
1.41075
1.40478
1.40161
1.39891
1.39531
1.39159
1.38927
1.38743
1.38556
1.38238
1.37811
1.37299
1.36465
1.34898
1.33284
1.32692
1.32555
1.32484
1.32361
1.32236
1.32126
1.32048
1.32011
1.31948
1.31649
1.3121
1.30603
1.2965
1.28455
1.27491
1.26847
1.26403
1.26094
1.25828
1.25501
1.25131
1.24862
1.24664
1.24473
1.24299
1.24101
1.23835
1.23453
1.22947
1.22276
1.21289
1.20288
1.19447
1.18878
1.18761
1.18704
1.18623
1.18492
1.18323
1.18426
1.1837
1.18088
1.17743
1.17281
1.16775
1.16176
1.15363
1.14333
1.13782
1.13644
1.13519
1.13312
1.13092
1.13152
1.13108
1.12889
1.12597
1.12189
1.11685
1.11119
1.10527
1.09987
1.09251
3.05877
3.04675
3.03181
3.0141
2.99259
2.96404
2.9334
2.91688
2.91175
2.9084
2.9098
2.9122
2.90714
2.89856
2.88711
2.86275
2.81205
2.76351
2.74561
2.73727
2.7301
2.72381
2.71981
2.71436
2.70689
2.69588
2.67931
2.65873
2.64077
2.62768
2.61834
2.6099
2.60165
2.59306
2.58367
2.57485
2.56862
2.56556
2.56118
2.5526
2.53553
2.50874
2.48443
2.46992
2.4589
2.44818
2.43655
2.42396
2.4154
2.41111
2.40681
2.39961
2.38604
2.36228
2.33615
2.32144
2.31308
2.30509
2.29844
2.29379
2.29183
2.29665
2.30089
2.29746
2.29275
2.28722
2.27661
2.25195
2.21297
2.18009
2.16783
2.16247
2.15829
2.15483
2.15177
2.14813
2.14425
2.14015
2.13486
2.12634
2.11388
2.09949
2.08617
2.07446
2.06418
2.05389
2.04411
2.03569
2.02892
2.02304
2.01725
2.01126
2.00578
1.9992
1.98843
1.97353
1.95824
1.94626
1.93709
1.92983
1.92387
1.9182
1.91291
1.90799
1.90243
1.89666
1.89184
1.88216
1.86548
1.84829
1.83734
1.83274
1.83053
1.83049
1.83042
1.82718
1.82281
1.81794
1.81192
1.80369
1.79252
1.78176
1.77241
1.76094
1.74748
1.73887
1.73481
1.73161
1.7285
1.72558
1.72269
1.71963
1.71647
1.7133
1.71007
1.70654
1.70161
1.69155
1.67055
1.645
1.63418
1.63083
1.62818
1.62572
1.62283
1.61924
1.615
1.60981
1.60249
1.5914
1.57696
1.56658
1.56241
1.55965
1.55695
1.55404
1.55051
1.54699
1.54439
1.54125
1.53505
1.52127
1.50415
1.49654
1.49449
1.49399
1.49203
1.48856
1.4855
1.48296
1.48067
1.47822
1.47564
1.47392
1.47247
1.47036
1.4669
1.46059
1.44836
1.43102
1.41668
1.40721
1.40036
1.39614
1.39347
1.39145
1.38969
1.38904
1.38963
1.38724
1.38352
1.37875
1.37001
1.35392
1.3382
1.33146
1.32714
1.32225
1.31992
1.31897
1.31798
1.3172
1.31677
1.31679
1.31492
1.31118
1.30676
1.30034
1.28874
1.27664
1.26892
1.26517
1.26242
1.25925
1.25675
1.25623
1.25551
1.25348
1.25091
1.24834
1.24569
1.24249
1.23855
1.23393
1.22765
1.21845
1.20801
1.19706
1.18899
1.18687
1.18632
1.1856
1.18448
1.18279
1.18341
1.1831
1.18006
1.1764
1.17146
1.16716
1.16377
1.15788
1.14806
1.14035
1.13805
1.13639
1.13401
1.13106
1.13108
1.13092
1.12866
1.12589
1.12244
1.11887
1.11489
1.10907
1.10171
1.09144
3.07102
3.06052
3.04549
3.02377
2.99097
2.9539
2.92979
2.92224
2.91631
2.91211
2.9154
2.92162
2.91782
2.91006
2.89938
2.87909
2.83982
2.791
2.76155
2.74779
2.73798
2.72913
2.72101
2.71348
2.70695
2.70078
2.69106
2.672
2.64699
2.62721
2.6148
2.60589
2.59714
2.58864
2.58159
2.57601
2.57117
2.56732
2.56465
2.55949
2.55107
2.53398
2.50508
2.47921
2.46326
2.45008
2.43756
2.42694
2.41978
2.41371
2.40797
2.40306
2.39733
2.38433
2.35529
2.32522
2.31106
2.30426
2.29916
2.29494
2.29296
2.29413
2.29169
2.28639
2.28073
2.27413
2.26672
2.25621
2.23513
2.20673
2.18205
2.16958
2.16309
2.15795
2.15334
2.14909
2.14498
2.1405
2.13447
2.12537
2.1143
2.10463
2.095
2.08308
2.0689
2.05509
2.04413
2.03475
2.02731
2.02199
2.01767
2.01362
2.00922
2.00422
1.9976
1.98595
1.96814
1.95298
1.94481
1.93919
1.93346
1.92721
1.92053
1.91316
1.90505
1.89523
1.88578
1.87985
1.87265
1.86298
1.85332
1.84413
1.83704
1.83247
1.8286
1.8251
1.82204
1.81809
1.81206
1.80307
1.79148
1.78157
1.77575
1.76987
1.75905
1.7432
1.73225
1.72756
1.72442
1.72133
1.71816
1.71491
1.71154
1.70792
1.70371
1.69861
1.69294
1.68665
1.67776
1.66282
1.64368
1.63324
1.62918
1.62596
1.62239
1.61837
1.6142
1.6106
1.60691
1.59913
1.58329
1.56902
1.56343
1.56
1.55684
1.55414
1.55255
1.5518
1.55051
1.54821
1.54232
1.52747
1.50742
1.49788
1.49503
1.49239
1.48869
1.48478
1.48137
1.47872
1.47642
1.47404
1.47161
1.46943
1.4675
1.46524
1.46196
1.45714
1.44994
1.438
1.4213
1.40711
1.39975
1.39707
1.39533
1.39377
1.39247
1.39197
1.39116
1.38829
1.38512
1.3819
1.37671
1.36404
1.3443
1.33156
1.32554
1.32128
1.31919
1.31822
1.31738
1.31662
1.31619
1.31599
1.31564
1.3134
1.30883
1.29911
1.2862
1.27682
1.27305
1.27051
1.26762
1.26404
1.26012
1.25666
1.25367
1.25084
1.24784
1.24426
1.24053
1.23737
1.2337
1.22939
1.22454
1.21952
1.21333
1.20475
1.19399
1.18845
1.18737
1.18669
1.18574
1.18404
1.18381
1.18387
1.18078
1.17731
1.1728
1.16874
1.16519
1.15986
1.15172
1.14438
1.14197
1.14034
1.13789
1.13457
1.13343
1.13137
1.12871
1.12592
1.12252
1.12023
1.11785
1.11292
1.10533
1.09316
3.08347
3.07217
3.05489
3.025
2.98362
2.94972
2.93703
2.92913
2.9228
2.918
2.914
2.9104
2.90807
2.90377
2.8966
2.88268
2.85612
2.82419
2.79276
2.76652
2.74846
2.73596
2.72598
2.71751
2.70938
2.70116
2.69188
2.67855
2.65917
2.63712
2.61709
2.60294
2.59429
2.58788
2.58231
2.57772
2.57481
2.57281
2.56961
2.56475
2.55867
2.54886
2.52823
2.49532
2.46834
2.45077
2.43716
2.43021
2.42524
2.42015
2.41531
2.41018
2.40391
2.39425
2.37088
2.33274
2.31167
2.30497
2.30051
2.29771
2.29965
2.29736
2.29156
2.28597
2.27983
2.27118
2.26092
2.25268
2.24266
2.22769
2.20774
2.18608
2.17107
2.16269
2.15709
2.15264
2.14828
2.14353
2.13745
2.12874
2.11779
2.10843
2.09966
2.08844
2.07356
2.05924
2.0487
2.03805
2.02814
2.02278
2.02001
2.01847
2.017
2.0141
2.00814
1.99547
1.97356
1.95367
1.94311
1.9361
1.92991
1.92393
1.91795
1.91145
1.90298
1.89159
1.88041
1.87454
1.87225
1.87001
1.86484
1.85604
1.84509
1.83557
1.8294
1.82533
1.82282
1.82061
1.81605
1.80737
1.79742
1.78968
1.78377
1.77741
1.76729
1.75083
1.73542
1.72862
1.725
1.72184
1.71853
1.71508
1.71156
1.70779
1.70326
1.69743
1.69099
1.68506
1.68027
1.67154
1.65671
1.64019
1.63199
1.62814
1.62493
1.62188
1.61847
1.61391
1.60844
1.60036
1.58759
1.57423
1.567
1.56285
1.55967
1.557
1.55445
1.55204
1.54972
1.54699
1.5424
1.53293
1.51699
1.50304
1.49629
1.49213
1.48824
1.4843
1.48069
1.47792
1.47574
1.47337
1.4708
1.46825
1.46586
1.46356
1.46091
1.45725
1.45221
1.44294
1.42396
1.40899
1.40621
1.40442
1.40248
1.40087
1.39975
1.40001
1.39811
1.39452
1.39109
1.38758
1.38248
1.372
1.35346
1.33515
1.32698
1.32346
1.32088
1.31949
1.31861
1.31773
1.31706
1.31663
1.31479
1.31146
1.30625
1.29623
1.28589
1.2815
1.278
1.2736
1.26908
1.26568
1.26266
1.25892
1.25457
1.251
1.24803
1.24428
1.23926
1.23567
1.23238
1.22845
1.2242
1.21997
1.21535
1.20957
1.20089
1.19361
1.19203
1.19132
1.19025
1.18827
1.18692
1.18751
1.18477
1.1815
1.17678
1.1714
1.16644
1.16172
1.15577
1.14765
1.14137
1.13876
1.13612
1.13271
1.13075
1.13062
1.12873
1.12661
1.12409
1.12171
1.11798
1.11281
1.10763
1.09851
3.09178
3.08067
3.06241
3.02679
2.98105
2.96025
2.95072
2.94061
2.93161
2.92448
2.91724
2.90962
2.89977
2.88747
2.87722
2.86806
2.85833
2.84395
2.82621
2.80256
2.77344
2.74832
2.73303
2.72269
2.7133
2.7037
2.69535
2.68697
2.67308
2.64807
2.61973
2.60279
2.59525
2.58971
2.58403
2.57844
2.57445
2.57321
2.57227
2.56863
2.56286
2.5555
2.54274
2.51391
2.47375
2.45086
2.44177
2.43508
2.42956
2.42587
2.42272
2.41806
2.41246
2.40361
2.38427
2.34879
2.31943
2.30948
2.30491
2.30073
2.29671
2.29352
2.28922
2.284
2.27746
2.26776
2.25489
2.24721
2.24313
2.23786
2.2274
2.20925
2.18793
2.17503
2.16847
2.16317
2.15785
2.1518
2.14376
2.13374
2.1241
2.11614
2.10812
2.09716
2.07938
2.05785
2.04424
2.03861
2.03423
2.02982
2.02564
2.02274
2.02021
2.01735
2.01325
2.0029
1.98054
1.95757
1.94551
1.93784
1.93116
1.92516
1.91903
1.91163
1.90177
1.88977
1.88061
1.87712
1.87487
1.87228
1.86907
1.86438
1.85596
1.84474
1.83569
1.82913
1.82314
1.81665
1.80949
1.80091
1.79197
1.78431
1.77757
1.77131
1.76579
1.75864
1.74673
1.73711
1.73297
1.72968
1.72621
1.72256
1.71871
1.71449
1.70924
1.70165
1.69118
1.68144
1.67404
1.66889
1.66338
1.65387
1.64162
1.6321
1.62661
1.62357
1.62195
1.6201
1.6145
1.6052
1.59219
1.57966
1.57309
1.57008
1.56727
1.56393
1.56067
1.55761
1.5546
1.55131
1.54674
1.53919
1.52634
1.50861
1.49685
1.4915
1.48783
1.48455
1.48149
1.47812
1.47531
1.4738
1.47203
1.46919
1.4654
1.46223
1.45999
1.45786
1.45516
1.44876
1.43253
1.41139
1.4033
1.40124
1.39939
1.39775
1.39647
1.39671
1.39517
1.39113
1.38731
1.38366
1.37941
1.37361
1.36267
1.34562
1.33385
1.32958
1.3267
1.32469
1.3235
1.32223
1.32081
1.31913
1.31646
1.31234
1.3048
1.29358
1.28839
1.28587
1.28253
1.27866
1.27447
1.26907
1.26344
1.26052
1.259
1.25639
1.25217
1.2457
1.23854
1.23502
1.2323
1.2293
1.22531
1.22242
1.21973
1.21597
1.20918
1.19798
1.18977
1.18797
1.18683
1.18494
1.18265
1.18279
1.18131
1.17837
1.17429
1.16955
1.16515
1.16222
1.15862
1.15147
1.14318
1.13936
1.1366
1.13318
1.13084
1.13072
1.12912
1.12695
1.12414
1.12197
1.11965
1.11657
1.11221
1.1011
3.09646
3.08393
3.06411
3.02803
2.98707
2.97003
2.96174
2.95381
2.94454
2.9334
2.92183
2.91055
2.8984
2.88333
2.86816
2.85983
2.85479
2.85027
2.84212
2.82859
2.80837
2.77972
2.74866
2.72881
2.72026
2.7154
2.70956
2.69999
2.68354
2.65659
2.62551
2.6059
2.5974
2.59196
2.58661
2.58097
2.57611
2.5739
2.57392
2.57268
2.56903
2.56344
2.5533
2.53031
2.48675
2.45726
2.44935
2.44322
2.43609
2.42946
2.42352
2.41783
2.41148
2.40347
2.39189
2.36893
2.33444
2.31585
2.30877
2.30244
2.29629
2.29142
2.28732
2.28266
2.27585
2.265
2.25354
2.2467
2.24176
2.23761
2.23339
2.22595
2.20954
2.18411
2.16585
2.15688
2.15055
2.14398
2.13589
2.12749
2.1228
2.11897
2.11394
2.10539
2.08934
2.06659
2.04859
2.03979
2.03542
2.03299
2.03167
2.02909
2.02613
2.0222
2.01521
2.00286
1.98447
1.96611
1.95413
1.94647
1.94013
1.93354
1.92614
1.91697
1.90389
1.89049
1.88532
1.88269
1.88032
1.87703
1.87313
1.86854
1.86185
1.85284
1.8443
1.83605
1.82689
1.81694
1.8068
1.79841
1.79065
1.78351
1.77725
1.7721
1.76794
1.76358
1.75629
1.74306
1.73129
1.72552
1.7214
1.71739
1.71323
1.70851
1.70269
1.69476
1.68623
1.67977
1.6749
1.67039
1.66587
1.66075
1.65269
1.64244
1.63537
1.63103
1.62596
1.61815
1.60819
1.59874
1.59265
1.58851
1.58337
1.57555
1.56676
1.56015
1.55601
1.55285
1.54985
1.54684
1.54446
1.54187
1.53414
1.5171
1.50043
1.49336
1.48966
1.48644
1.48326
1.48001
1.47581
1.47196
1.47017
1.46879
1.46683
1.46381
1.46066
1.45777
1.45436
1.44966
1.43872
1.41731
1.4045
1.40148
1.39978
1.39822
1.39692
1.39664
1.39557
1.39159
1.38758
1.38396
1.38037
1.3765
1.37069
1.35887
1.34134
1.32971
1.32381
1.3203
1.31867
1.31718
1.31548
1.31343
1.31088
1.30721
1.30069
1.2923
1.28875
1.2864
1.28386
1.281
1.27796
1.27417
1.26947
1.26455
1.25938
1.25307
1.2447
1.24048
1.23913
1.23779
1.23609
1.23469
1.23049
1.22731
1.2247
1.22113
1.21479
1.2028
1.19086
1.18757
1.1864
1.18468
1.18261
1.18203
1.18024
1.17751
1.17419
1.17064
1.1669
1.16307
1.15877
1.153
1.14723
1.1443
1.14155
1.13787
1.13444
1.13322
1.13133
1.12906
1.12547
1.12194
1.11961
1.11835
1.11576
1.10474
3.10225
3.08819
3.06811
3.03897
3.00438
2.98063
2.96934
2.95974
2.94919
2.93776
2.92576
2.91283
2.89824
2.88246
2.86775
2.85789
2.85154
2.84596
2.84194
2.83623
2.82704
2.81045
2.78301
2.75153
2.72896
2.7141
2.70306
2.69278
2.68004
2.66266
2.63749
2.61354
2.60162
2.59554
2.59065
2.58628
2.5821
2.57755
2.57345
2.57013
2.56679
2.56261
2.5565
2.54227
2.51398
2.47819
2.4578
2.45023
2.44524
2.44039
2.43436
2.42805
2.42122
2.41295
2.40187
2.38495
2.36054
2.3323
2.31422
2.3054
2.29915
2.29335
2.28729
2.28136
2.27243
2.26078
2.25316
2.24904
2.24489
2.24191
2.23796
2.23239
2.22207
2.19866
2.17108
2.15707
2.14977
2.14281
2.13508
2.12976
2.12549
2.12076
2.1149
2.10613
2.09338
2.07648
2.06015
2.04954
2.04287
2.03819
2.03397
2.02989
2.02587
2.02087
2.01309
2.00217
1.99084
1.9784
1.96358
1.94995
1.93928
1.93026
1.92155
1.91186
1.90285
1.89721
1.89276
1.88845
1.88441
1.87982
1.87457
1.8692
1.86365
1.856
1.84493
1.83267
1.82077
1.80977
1.80127
1.79446
1.78916
1.7843
1.78026
1.77753
1.77496
1.77144
1.76437
1.7499
1.73428
1.72639
1.72162
1.71708
1.71252
1.70758
1.70108
1.69288
1.6845
1.68033
1.67796
1.67587
1.67359
1.66979
1.66293
1.65167
1.63768
1.62729
1.62084
1.61474
1.60672
1.59852
1.59547
1.59292
1.58909
1.58181
1.57082
1.5615
1.55618
1.55285
1.54981
1.54677
1.54378
1.54001
1.53402
1.52374
1.51019
1.5014
1.49693
1.49322
1.48942
1.4853
1.48038
1.47406
1.46851
1.46611
1.46456
1.46368
1.46245
1.46054
1.45722
1.45145
1.44129
1.4238
1.41022
1.40677
1.4052
1.4036
1.40203
1.40097
1.40089
1.3976
1.39361
1.39048
1.38775
1.38453
1.37923
1.36877
1.35161
1.33444
1.32479
1.31967
1.31778
1.31625
1.31424
1.31176
1.30865
1.30473
1.29875
1.29285
1.28996
1.28786
1.28559
1.2826
1.27923
1.27597
1.27251
1.26792
1.26125
1.2529
1.24384
1.23873
1.23705
1.23528
1.23282
1.23114
1.23108
1.22836
1.22516
1.221
1.21555
1.20735
1.19689
1.19202
1.19064
1.18895
1.18666
1.18433
1.18094
1.17835
1.17535
1.17182
1.16824
1.1649
1.16149
1.15666
1.14921
1.14306
1.1399
1.13638
1.13249
1.13011
1.12959
1.12824
1.12615
1.12437
1.12363
1.1218
1.1175
1.10664
3.09466
3.08354
3.07031
3.04885
3.01992
2.99954
2.98757
2.97566
2.96129
2.94497
2.92803
2.91115
2.8942
2.87689
2.86473
2.8577
2.85195
2.84723
2.84441
2.84072
2.83435
2.82588
2.81074
2.78326
2.74783
2.72154
2.7052
2.69356
2.6834
2.67125
2.65454
2.63425
2.6132
2.60038
2.59306
2.58725
2.58355
2.58415
2.58292
2.57731
2.57078
2.56277
2.55334
2.54357
2.52648
2.5045
2.48322
2.46459
2.45061
2.43911
2.42992
2.42217
2.4142
2.4054
2.39579
2.38668
2.37566
2.35603
2.32985
2.31469
2.30783
2.30102
2.29202
2.27979
2.26645
2.25906
2.25543
2.25278
2.2523
2.24933
2.24365
2.23712
2.22849
2.2123
2.18558
2.16432
2.15471
2.14863
2.14387
2.13903
2.13337
2.127
2.11994
2.11167
2.10053
2.08662
2.07305
2.063
2.05534
2.04834
2.04217
2.03695
2.03207
2.02681
2.02026
2.01155
1.99997
1.98656
1.97217
1.95743
1.94324
1.9315
1.92212
1.91372
1.90609
1.89961
1.89508
1.89142
1.88752
1.88313
1.87814
1.8728
1.86758
1.86104
1.84875
1.83138
1.81796
1.80809
1.80162
1.79762
1.79341
1.78874
1.785
1.7816
1.77789
1.77312
1.76581
1.75389
1.73913
1.72992
1.7249
1.71957
1.71284
1.7057
1.69873
1.69171
1.68808
1.68598
1.68384
1.68118
1.67768
1.67332
1.66756
1.65796
1.64354
1.62812
1.61755
1.61095
1.6066
1.60421
1.60137
1.59726
1.59196
1.58567
1.57797
1.56986
1.56387
1.55965
1.55596
1.55198
1.54705
1.54169
1.53676
1.5299
1.51975
1.50605
1.49598
1.49044
1.48615
1.4817
1.47691
1.47221
1.46858
1.46646
1.46485
1.46328
1.46175
1.46023
1.45791
1.45461
1.44764
1.43358
1.41586
1.40495
1.40086
1.39908
1.39745
1.39584
1.39536
1.39406
1.39009
1.38668
1.38391
1.3807
1.37616
1.37012
1.36054
1.34686
1.33292
1.32422
1.32133
1.31965
1.31722
1.31299
1.30755
1.30256
1.29794
1.29502
1.29216
1.28997
1.28861
1.28645
1.2839
1.28077
1.27613
1.27012
1.26389
1.2558
1.24435
1.23762
1.23603
1.23465
1.2326
1.23064
1.23064
1.2285
1.22624
1.22368
1.22013
1.21333
1.20169
1.19085
1.18764
1.18591
1.18325
1.18067
1.17963
1.17753
1.17539
1.17251
1.1697
1.16779
1.16546
1.16026
1.15123
1.14347
1.14004
1.13664
1.13272
1.13089
1.13028
1.12844
1.12553
1.12361
1.1244
1.12472
1.12177
1.11044
3.09805
3.08466
3.06624
3.04291
3.02031
3.00745
2.99835
2.98792
2.97403
2.95559
2.93426
2.91274
2.89227
2.87653
2.86786
2.86175
2.85591
2.85051
2.84592
2.84261
2.83961
2.83371
2.82526
2.80902
2.7746
2.73228
2.70283
2.68368
2.67088
2.66382
2.65905
2.6504
2.63351
2.61281
2.59995
2.59252
2.58677
2.5811
2.57513
2.56921
2.56195
2.55287
2.54137
2.52916
2.52171
2.51456
2.50201
2.48468
2.46298
2.44383
2.43106
2.42255
2.41483
2.40653
2.39863
2.3919
2.38483
2.37375
2.3518
2.32186
2.3001
2.28874
2.27948
2.27007
2.26423
2.26071
2.25867
2.25919
2.26049
2.25671
2.25156
2.24598
2.23902
2.22732
2.20247
2.16753
2.14695
2.14143
2.13749
2.13276
2.12734
2.12152
2.11585
2.11142
2.10741
2.10156
2.08988
2.07213
2.0563
2.04557
2.03758
2.0309
2.02496
2.01901
2.01234
2.00375
1.9926
1.98117
1.97293
1.96527
1.9546
1.93862
1.92431
1.91706
1.91257
1.90781
1.90147
1.89444
1.88869
1.8842
1.87996
1.87519
1.86867
1.85866
1.84307
1.82559
1.81435
1.80935
1.80577
1.80329
1.80177
1.79799
1.79375
1.78956
1.78486
1.77931
1.77186
1.75979
1.74313
1.72956
1.72312
1.71782
1.71118
1.70337
1.69791
1.695
1.69324
1.69219
1.69041
1.68791
1.68465
1.67938
1.67108
1.65855
1.64181
1.62607
1.61529
1.61025
1.60814
1.60632
1.60441
1.60217
1.59898
1.59428
1.58676
1.57501
1.56311
1.5555
1.55069
1.54659
1.54241
1.53757
1.53456
1.53299
1.52681
1.51325
1.49888
1.49136
1.48687
1.4826
1.47796
1.47272
1.46941
1.46778
1.46631
1.46503
1.46363
1.46138
1.45797
1.45287
1.44594
1.43646
1.42211
1.40773
1.40118
1.3986
1.39688
1.39532
1.3941
1.3929
1.3894
1.3858
1.38297
1.38023
1.37654
1.37216
1.36726
1.35909
1.34396
1.32696
1.3174
1.31455
1.31313
1.31114
1.30672
1.3019
1.29952
1.29862
1.29951
1.29894
1.29608
1.29283
1.2895
1.28537
1.28028
1.27385
1.26496
1.2531
1.24217
1.23809
1.2369
1.23551
1.23354
1.23135
1.23075
1.22849
1.22629
1.22467
1.22335
1.21866
1.20722
1.1927
1.18757
1.18574
1.18333
1.1806
1.17963
1.178
1.17627
1.17355
1.17075
1.16833
1.16474
1.15881
1.15103
1.14499
1.14185
1.13841
1.13429
1.1325
1.1319
1.13007
1.12749
1.12587
1.12565
1.12472
1.12186
1.11192
3.09875
3.0864
3.07098
3.04988
3.02867
3.01385
3.00373
2.99425
2.98293
2.96698
2.94497
2.91946
2.89464
2.879
2.87149
2.86514
2.8588
2.85248
2.84766
2.84647
2.8475
2.84341
2.83607
2.8226
2.79529
2.74936
2.70732
2.68423
2.67232
2.66512
2.65852
2.65175
2.6439
2.63106
2.61406
2.60145
2.59275
2.58333
2.5738
2.56718
2.56025
2.54985
2.53781
2.52594
2.51695
2.51022
2.50507
2.49818
2.48374
2.45862
2.43553
2.42378
2.41748
2.41198
2.40644
2.40066
2.39409
2.38466
2.36593
2.33258
2.30079
2.28357
2.275
2.26996
2.26616
2.2625
2.25937
2.25758
2.2583
2.26
2.25735
2.25262
2.24749
2.23987
2.21954
2.17692
2.14664
2.13927
2.13573
2.13205
2.12762
2.12268
2.11849
2.11415
2.10975
2.10503
2.09765
2.08281
2.06329
2.04847
2.03851
2.03061
2.0239
2.01766
2.01044
2.00134
1.99159
1.98431
1.97835
1.97178
1.96318
1.95101
1.93652
1.92323
1.9144
1.90941
1.90594
1.90233
1.89794
1.8932
1.88863
1.88291
1.87422
1.85947
1.8399
1.82393
1.81824
1.81543
1.81385
1.81199
1.80775
1.80275
1.79787
1.79288
1.78736
1.78089
1.77346
1.76459
1.75141
1.73517
1.7225
1.71503
1.70944
1.70556
1.7025
1.69875
1.69572
1.69312
1.69
1.68712
1.68517
1.68287
1.67766
1.66353
1.63944
1.6228
1.61782
1.61519
1.61188
1.60856
1.60597
1.6037
1.60166
1.59903
1.59401
1.58268
1.56696
1.55611
1.55014
1.54602
1.54224
1.53808
1.53305
1.52801
1.52381
1.51783
1.50726
1.49596
1.48923
1.48489
1.48151
1.47907
1.47702
1.47522
1.47347
1.47156
1.46915
1.46594
1.46153
1.45542
1.44767
1.43886
1.428
1.41466
1.4058
1.40286
1.40074
1.39806
1.3951
1.39246
1.38982
1.38656
1.38322
1.38026
1.37796
1.37638
1.37428
1.369
1.35626
1.33451
1.31876
1.31358
1.3119
1.31137
1.31068
1.30834
1.3062
1.30351
1.29972
1.29642
1.29334
1.29012
1.28699
1.28373
1.28028
1.27559
1.26686
1.25265
1.244
1.24256
1.24135
1.23967
1.23733
1.23449
1.23309
1.23056
1.22895
1.22711
1.22496
1.22082
1.21181
1.19827
1.19155
1.1895
1.18717
1.18428
1.18355
1.18259
1.18089
1.17809
1.17489
1.17172
1.16714
1.16002
1.15166
1.14806
1.14564
1.14257
1.13961
1.13886
1.13771
1.13542
1.13247
1.13011
1.12895
1.12779
1.12484
1.11432
3.10469
3.08407
3.06035
3.03809
3.02626
3.01787
3.00936
3.00049
2.99079
2.97813
2.95886
2.92993
2.89974
2.88301
2.87442
2.86814
2.86273
2.85724
2.85154
2.84651
2.84234
2.83822
2.83247
2.82433
2.80493
2.77009
2.73138
2.70118
2.68171
2.67083
2.66449
2.65969
2.65487
2.64766
2.63418
2.61198
2.59177
2.58143
2.57257
2.5637
2.55506
2.5417
2.52919
2.52322
2.51977
2.51648
2.51144
2.50615
2.49656
2.47612
2.4465
2.42947
2.42213
2.41678
2.41179
2.40647
2.40021
2.39183
2.37569
2.34246
2.30244
2.28198
2.27544
2.27131
2.26721
2.26351
2.26156
2.26388
2.27098
2.27396
2.26965
2.26343
2.25697
2.24795
2.23
2.19671
2.15953
2.14242
2.13656
2.13291
2.13161
2.13231
2.12769
2.12241
2.11753
2.11129
2.10165
2.08861
2.07376
2.05969
2.04736
2.03647
2.0268
2.01862
2.00901
1.99817
1.98941
1.98267
1.97603
1.9682
1.96026
1.95401
1.94637
1.93601
1.92586
1.91757
1.91047
1.90342
1.89601
1.88899
1.88291
1.87678
1.8686
1.85552
1.83665
1.82749
1.82473
1.82348
1.82245
1.8186
1.81399
1.80916
1.8035
1.79725
1.79098
1.78472
1.77744
1.76684
1.75017
1.73141
1.71891
1.71291
1.70963
1.70686
1.70398
1.70057
1.69743
1.69561
1.69406
1.69132
1.68717
1.68262
1.67582
1.66117
1.6366
1.62277
1.61976
1.61709
1.61456
1.61267
1.61099
1.60904
1.60631
1.60185
1.59562
1.58691
1.57456
1.56263
1.55534
1.55088
1.54709
1.54252
1.53556
1.52705
1.52199
1.51866
1.51349
1.50651
1.49807
1.48925
1.48252
1.47756
1.47396
1.47139
1.46921
1.46694
1.46406
1.46024
1.45549
1.44939
1.44256
1.43592
1.43009
1.42384
1.41451
1.40322
1.39714
1.3949
1.39285
1.39082
1.39187
1.39131
1.38811
1.38548
1.38323
1.38031
1.37648
1.3716
1.36306
1.34758
1.32929
1.32004
1.31638
1.31242
1.30719
1.30394
1.30208
1.30024
1.29848
1.29688
1.29362
1.29012
1.28731
1.28516
1.28215
1.27687
1.26782
1.25488
1.24366
1.23956
1.23815
1.23657
1.23446
1.23195
1.23266
1.23602
1.23492
1.23248
1.22926
1.22478
1.21701
1.20314
1.19052
1.18658
1.18414
1.18091
1.17934
1.17872
1.17695
1.17419
1.1712
1.1684
1.16494
1.15975
1.15347
1.1497
1.14723
1.14387
1.13975
1.13758
1.13531
1.13256
1.12939
1.12697
1.12581
1.12485
1.12339
1.1159
3.11953
3.08972
3.05973
3.04033
3.02966
3.0205
3.01152
3.00221
2.99223
2.98148
2.96735
2.94391
2.91613
2.89666
2.88376
2.87392
2.86653
2.86078
2.85848
2.8553
2.84796
2.83942
2.82921
2.81702
2.80179
2.77831
2.75285
2.729
2.70523
2.68587
2.67521
2.66928
2.66405
2.65772
2.64715
2.62574
2.59716
2.58115
2.57587
2.56674
2.5507
2.53648
2.52832
2.52339
2.51807
2.51199
2.50587
2.50021
2.49534
2.48757
2.4688
2.44229
2.42813
2.42207
2.41696
2.41194
2.40609
2.39753
2.38242
2.35417
2.31151
2.28532
2.27799
2.27404
2.2705
2.26747
2.26536
2.26429
2.26395
2.26281
2.26029
2.25547
2.24925
2.24137
2.22942
2.21012
2.17896
2.15256
2.14227
2.13674
2.13188
2.12648
2.12078
2.11493
2.10929
2.10387
2.09738
2.08939
2.08114
2.07151
2.0596
2.04649
2.03354
2.02044
2.0069
1.99428
1.98621
1.9813
1.97684
1.97167
1.96521
1.95737
1.95055
1.94524
1.93888
1.9299
1.91885
1.90799
1.8982
1.88913
1.88112
1.87395
1.86575
1.85484
1.84372
1.83522
1.82966
1.82584
1.82211
1.81857
1.81573
1.81267
1.80963
1.80608
1.80092
1.79361
1.78435
1.77107
1.75194
1.73124
1.71989
1.71541
1.71207
1.70868
1.70533
1.70212
1.69923
1.69712
1.69589
1.69478
1.69196
1.68648
1.67701
1.66074
1.63985
1.62772
1.62279
1.61932
1.61622
1.61322
1.61044
1.60797
1.60601
1.60387
1.60072
1.59461
1.58253
1.56588
1.55281
1.54555
1.54119
1.53728
1.53231
1.52545
1.51975
1.51677
1.51477
1.51179
1.5061
1.49708
1.48705
1.47939
1.47418
1.47068
1.46818
1.46577
1.4629
1.45893
1.45359
1.44793
1.44201
1.43757
1.43405
1.4291
1.42001
1.40683
1.39749
1.39432
1.39234
1.39024
1.38842
1.3861
1.38294
1.38086
1.37941
1.3778
1.37498
1.3711
1.36708
1.3598
1.34327
1.32373
1.31447
1.31007
1.30525
1.30253
1.30092
1.29945
1.29787
1.29794
1.29927
1.2967
1.29328
1.29012
1.28572
1.27953
1.27119
1.2589
1.24581
1.23998
1.23819
1.23674
1.23488
1.23278
1.2338
1.23429
1.23211
1.22954
1.22723
1.22456
1.21853
1.20656
1.19216
1.18666
1.18416
1.1809
1.17884
1.17824
1.17648
1.17376
1.17082
1.16826
1.16517
1.15989
1.15384
1.15125
1.14918
1.14606
1.14173
1.13853
1.13541
1.13247
1.12929
1.12676
1.12566
1.12503
1.12344
1.11585
3.11526
3.07984
3.05457
3.04194
3.03286
3.02433
3.01624
3.00853
2.99982
2.98777
2.97276
2.95375
2.9301
2.90974
2.89609
2.88575
2.87682
2.86825
2.85926
2.84982
2.83936
2.82744
2.81255
2.79649
2.78416
2.77588
2.76539
2.75057
2.73185
2.71084
2.69361
2.68147
2.67164
2.66274
2.65324
2.64012
2.6193
2.59285
2.56894
2.55388
2.54041
2.5314
2.52618
2.52205
2.51783
2.51278
2.50742
2.50164
2.49569
2.48969
2.48252
2.46724
2.44399
2.42778
2.41788
2.40888
2.40122
2.39496
2.38651
2.36647
2.3311
2.29686
2.28257
2.27747
2.27366
2.26998
2.2671
2.26626
2.26476
2.26014
2.25591
2.25183
2.24656
2.24093
2.23457
2.22146
2.1989
2.17076
2.14971
2.13879
2.13099
2.12462
2.11923
2.11355
2.10717
2.10214
2.09847
2.09532
2.09125
2.08445
2.07294
2.05481
2.03218
2.0129
2.00204
1.99344
1.98654
1.98162
1.97792
1.97549
1.97234
1.96793