/*--------------------------------*- C++ -*----------------------------------*\
  =========                 |
  \\      /  F ield         | OpenFOAM: The Open Source CFD Toolbox
   \\    /   O peration     | Website:  https://openfoam.org
    \\  /    A nd           | Version:  7
     \\/     M anipulation  |
\*---------------------------------------------------------------------------*/
FoamFile
{
    version     2.0;
    format      ascii;
    class       volScalarField;
    location    "2";
    object      rho;
}
// * * * * * * * * * * * * * * * * * * * * * * * * * * * * * * * * * * * * * //

dimensions      [1 -3 0 0 0 0 0];

internalField   nonuniform List<scalar> 
16512
(
2.72454
2.72077
2.71833
2.71589
2.71254
2.7096
2.70476
2.69159
2.66937
2.6481
2.63859
2.63117
2.6207
2.6071
2.59588
2.58916
2.58392
2.57863
2.57042
2.55886
2.54752
2.53907
2.53192
2.52348
2.51169
2.49982
2.49373
2.48993
2.48645
2.48377
2.48306
2.48344
2.4816
2.47774
2.47152
2.45916
2.43755
2.41113
2.39398
2.38683
2.38287
2.37997
2.37831
2.37766
2.37597
2.37316
2.3694
2.36382
2.35345
2.33238
2.30513
2.29076
2.28585
2.28284
2.28032
2.27815
2.27759
2.28019
2.27919
2.27606
2.27324
2.27014
2.26697
2.26373
2.25799
2.24471
2.21997
2.19422
2.18106
2.17399
2.16925
2.16588
2.16288
2.16044
2.15928
2.15915
2.15695
2.15384
2.15026
2.14519
2.136
2.121
2.10781
2.10176
2.0983
2.09538
2.0928
2.08974
2.08621
2.08161
2.07452
2.06368
2.0507
2.03972
2.03161
2.0251
2.02037
2.01642
2.01209
2.00769
2.00506
2.00312
2.00122
1.99882
1.99544
1.98977
1.97852
1.95998
1.94411
1.93814
1.93572
1.93411
1.93298
1.93231
1.93112
1.92873
1.92631
1.92329
1.91994
1.91614
1.9092
1.89387
1.87861
1.87231
1.86846
1.86501
1.86194
1.85892
1.85599
1.85366
1.85162
1.8499
1.84912
1.84821
1.84588
1.8403
1.82784
1.80847
1.79431
1.78839
1.78549
1.78267
1.78005
1.77741
1.7745
1.77168
1.76862
1.7644
1.75814
1.75061
1.74514
1.7404
1.73609
1.73238
1.72895
1.72606
1.72369
1.721
1.71603
1.70621
1.69622
1.692
1.69034
1.68829
1.68557
1.68246
1.67894
1.67504
1.6719
1.66926
1.66645
1.66402
1.66254
1.66111
1.65914
1.65627
1.65136
1.64124
1.62826
1.62097
1.61792
1.61577
1.61375
1.61151
1.60885
1.60519
1.60063
1.59691
1.59396
1.59184
1.58962
1.58561
1.57714
1.56413
1.55488
1.55069
1.54749
1.54478
1.5413
1.53885
1.53781
1.53724
1.53697
1.53599
1.53438
1.53222
1.52854
1.5225
1.5165
1.51291
1.51008
1.50579
1.49839
1.49116
1.48895
1.48776
1.4862
1.48448
1.48286
1.48166
1.48063
1.47922
1.47634
1.4698
1.45841
1.44859
1.44268
1.43724
1.43351
1.4324
1.43159
1.43099
1.43083
1.43227
1.43664
1.43784
1.43636
1.43221
1.42637
1.41868
1.40714
1.39356
1.3867
1.38526
1.38441
1.38382
1.38376
1.38629
1.39292
1.39492
1.39363
1.38933
1.38316
1.37597
1.36724
1.35787
1.35157
1.34576
2.73505
2.73291
2.72837
2.72188
2.71463
2.70755
2.6986
2.68276
2.66415
2.65839
2.65571
2.65196
2.64551
2.63513
2.61913
2.60084
2.58514
2.5724
2.56419
2.5561
2.54994
2.54528
2.54014
2.53354
2.52413
2.5119
2.5012
2.49487
2.49057
2.48678
2.48361
2.48004
2.47575
2.47105
2.46589
2.46065
2.45207
2.43631
2.41503
2.39847
2.39187
2.38913
2.38863
2.38693
2.38316
2.37943
2.37515
2.36897
2.3596
2.34523
2.32632
2.30658
2.29434
2.28924
2.28632
2.28402
2.28239
2.28107
2.27847
2.2752
2.27253
2.2702
2.26698
2.26316
2.259
2.25329
2.24006
2.2106
2.18325
2.17608
2.17362
2.1705
2.16693
2.16408
2.16199
2.16109
2.16054
2.15821
2.15521
2.15068
2.14183
2.12618
2.11172
2.1068
2.10376
2.09969
2.09526
2.09114
2.08689
2.08202
2.07667
2.0705
2.06116
2.04879
2.03727
2.02776
2.02142
2.01874
2.01744
2.01556
2.01227
2.00966
2.00766
2.00535
2.00224
1.99664
1.98371
1.96274
1.94857
1.94324
1.9389
1.93574
1.93362
1.93182
1.93004
1.92922
1.93
1.92858
1.92619
1.923
1.91658
1.90347
1.88607
1.87521
1.8697
1.86582
1.86275
1.85971
1.85693
1.85503
1.85343
1.85177
1.84974
1.84721
1.84446
1.84144
1.83517
1.82008
1.79969
1.78851
1.78497
1.7831
1.78146
1.77957
1.7776
1.77561
1.77325
1.76947
1.76263
1.75227
1.74444
1.74254
1.74066
1.73807
1.73581
1.73367
1.73123
1.72804
1.72273
1.71312
1.7006
1.69303
1.69049
1.68868
1.68555
1.68158
1.67812
1.67534
1.67294
1.67033
1.66765
1.66525
1.66314
1.66144
1.65995
1.65864
1.65641
1.65042
1.6379
1.62434
1.61698
1.61337
1.61082
1.60838
1.60562
1.60292
1.59964
1.59693
1.59586
1.59529
1.59419
1.59111
1.58246
1.5664
1.55482
1.55163
1.54941
1.54592
1.54223
1.53999
1.53876
1.53793
1.53741
1.53723
1.53678
1.53549
1.53235
1.52578
1.51702
1.51053
1.5065
1.50279
1.49815
1.49387
1.49088
1.48817
1.48588
1.48373
1.48164
1.48001
1.47893
1.47811
1.47702
1.47338
1.46434
1.45407
1.44717
1.44132
1.43767
1.43662
1.43579
1.43515
1.43494
1.43613
1.44078
1.44289
1.44174
1.43789
1.43186
1.42384
1.41278
1.39891
1.38849
1.38575
1.38492
1.38441
1.38448
1.388
1.39549
1.3972
1.39587
1.39198
1.38663
1.37982
1.37108
1.3611
1.35341
1.34662
2.74716
2.74144
2.73601
2.73109
2.7252
2.71427
2.69492
2.67548
2.66794
2.66572
2.66532
2.66443
2.66028
2.65417
2.64331
2.62231
2.59448
2.57208
2.56159
2.55754
2.5545
2.55114
2.54718
2.54197
2.53445
2.5227
2.5098
2.50227
2.49743
2.49271
2.48735
2.48236
2.47746
2.47206
2.4668
2.46229
2.45693
2.44844
2.43783
2.42474
2.40949
2.39828
2.39165
2.38564
2.37977
2.37392
2.3674
2.36023
2.35318
2.34705
2.33975
2.32837
2.31201
2.29885
2.29291
2.28918
2.28501
2.28055
2.27646
2.27308
2.27092
2.2696
2.2687
2.26656
2.26364
2.25971
2.25143
2.22825
2.19476
2.18093
2.17719
2.17451
2.17182
2.16921
2.16716
2.16545
2.16289
2.15998
2.15699
2.15373
2.14819
2.13666
2.12086
2.11079
2.10754
2.10508
2.1013
2.0966
2.09197
2.08739
2.08251
2.07679
2.06911
2.05834
2.04474
2.03335
2.02732
2.02337
2.01893
2.01405
2.0099
2.00638
2.00349
2.00094
1.99812
1.9945
1.98716
1.97219
1.95526
1.94632
1.94221
1.93924
1.93677
1.93493
1.93383
1.93312
1.93062
1.92755
1.92432
1.92059
1.91662
1.90936
1.89618
1.88296
1.87379
1.86827
1.86495
1.86211
1.85949
1.85742
1.85551
1.85341
1.85109
1.84873
1.84642
1.84398
1.84025
1.83123
1.8106
1.79309
1.78879
1.78699
1.78531
1.7838
1.78209
1.77954
1.77614
1.77154
1.76509
1.75642
1.74737
1.74124
1.7382
1.73609
1.73409
1.73178
1.72892
1.7256
1.72219
1.7179
1.71036
1.69992
1.69245
1.68927
1.68683
1.6836
1.68061
1.6782
1.67568
1.67292
1.67038
1.6679
1.66518
1.66324
1.6619
1.66075
1.65927
1.65609
1.64654
1.63055
1.61886
1.61363
1.61062
1.60804
1.60483
1.60192
1.60058
1.59994
1.59956
1.59843
1.59643
1.59328
1.58667
1.57293
1.5582
1.55224
1.55036
1.5488
1.54694
1.54528
1.54397
1.54316
1.54318
1.54349
1.54251
1.54058
1.53694
1.52968
1.51959
1.51123
1.50567
1.50182
1.49919
1.49689
1.49397
1.49066
1.48808
1.48601
1.48405
1.48244
1.48107
1.47978
1.47813
1.47539
1.47023
1.46089
1.45068
1.44191
1.43579
1.43415
1.43331
1.43255
1.43214
1.4328
1.4374
1.44036
1.43929
1.43526
1.42909
1.42162
1.41346
1.40367
1.39284
1.38784
1.3868
1.38627
1.38621
1.3878
1.39379
1.39766
1.39678
1.39315
1.38733
1.3799
1.37227
1.36494
1.35859
1.35109
2.76517
2.75753
2.74816
2.73718
2.72398
2.7063
2.68677
2.67653
2.67389
2.67251
2.67412
2.67624
2.6734
2.66807
2.66058
2.64432
2.61044
2.57802
2.56624
2.56095
2.55655
2.55292
2.55098
2.54814
2.54393
2.53709
2.52584
2.51163
2.49949
2.49085
2.48484
2.47965
2.47477
2.46978
2.46421
2.45892
2.45525
2.45353
2.4507
2.44492
2.43337
2.4152
2.39861
2.38893
2.38169
2.37466
2.367
2.35869
2.35325
2.35071
2.34804
2.34324
2.33396
2.31763
2.29979
2.29013
2.28487
2.27974
2.2755
2.27257
2.27129
2.27467
2.27756
2.27496
2.2713
2.26715
2.25968
2.24251
2.21511
2.192
2.18344
2.17972
2.17675
2.17411
2.17164
2.16875
2.16582
2.16301
2.15964
2.15415
2.14584
2.13619
2.12737
2.11964
2.11279
2.10573
2.0989
2.09287
2.08784
2.08331
2.07868
2.07384
2.06948
2.0643
2.05616
2.04521
2.03428
2.02602
2.01991
2.01522
2.01143
2.00769
2.00403
2.00047
1.99637
1.99208
1.98841
1.98094
1.96788
1.95447
1.94594
1.94222
1.9404
1.94029
1.94014
1.93752
1.93428
1.93106
1.92733
1.92207
1.91434
1.90669
1.90005
1.89164
1.88147
1.87481
1.87155
1.86894
1.86645
1.86425
1.8622
1.86012
1.85797
1.85569
1.8532
1.85034
1.84637
1.83844
1.82201
1.80209
1.79388
1.79154
1.78981
1.78828
1.78635
1.78367
1.78018
1.77576
1.76965
1.76066
1.74929
1.74136
1.73845
1.73665
1.73486
1.73282
1.73014
1.72729
1.72501
1.72219
1.71692
1.70607
1.69306
1.6879
1.68696
1.68716
1.68629
1.68391
1.6813
1.67879
1.67634
1.67369
1.67093
1.66905
1.66767
1.66613
1.66394
1.65974
1.6505
1.63641
1.62441
1.61642
1.6104
1.60646
1.60403
1.60249
1.60163
1.60193
1.60349
1.60293
1.60142
1.59863
1.5918
1.57773
1.56331
1.55669
1.5524
1.54748
1.5447
1.54321
1.54189
1.54102
1.54085
1.54154
1.54127
1.53992
1.53776
1.53331
1.52377
1.51343
1.50683
1.50366
1.5013
1.49848
1.49596
1.49517
1.49421
1.49203
1.48944
1.48714
1.48527
1.4836
1.48195
1.47967
1.47518
1.46685
1.45637
1.44519
1.43662
1.43399
1.43311
1.43236
1.43193
1.43242
1.43667
1.44012
1.43923
1.43517
1.4288
1.4221
1.41595
1.40831
1.39751
1.39049
1.38879
1.38791
1.38753
1.3884
1.39372
1.39797
1.39719
1.39378
1.38866
1.38253
1.37635
1.36903
1.36053
1.3504
2.77657
2.77009
2.76069
2.74713
2.72658
2.70291
2.68759
2.68329
2.67988
2.67743
2.67983
2.68428
2.68222
2.67766
2.67101
2.65773
2.6314
2.59888
2.57941
2.5705
2.56447
2.55923
2.55446
2.55019
2.54652
2.54277
2.53635
2.52343
2.50649
2.49336
2.48537
2.47974
2.47423
2.46902
2.46494
2.46185
2.45913
2.45686
2.45527
2.45192
2.44629
2.43486
2.41533
2.39778
2.38704
2.37809
2.36954
2.36224
2.35749
2.35359
2.34999
2.34687
2.34308
2.33425
2.31438
2.29394
2.28457
2.28014
2.27688
2.27428
2.27307
2.2739
2.27222
2.26844
2.26425
2.25942
2.25423
2.24704
2.23233
2.21238
2.1951
2.18633
2.18163
2.1778
2.17419
2.17076
2.16754
2.16425
2.16015
2.1542
2.14703
2.14094
2.13481
2.12695
2.1173
2.1077
2.09986
2.09299
2.08747
2.08332
2.07978
2.07639
2.07276
2.06871
2.0636
2.05498
2.04217
2.0316
2.02628
2.02284
2.01925
2.0151
2.01044
2.00516
1.99924
1.99189
1.98468
1.97999
1.97417
1.96641
1.95874
1.95149
1.94591
1.94234
1.93939
1.93679
1.9347
1.93218
1.9283
1.92232
1.91434
1.90749
1.90352
1.89928
1.89099
1.87864
1.87008
1.86642
1.86396
1.86164
1.85945
1.85735
1.85516
1.85263
1.84942
1.84525
1.84054
1.83553
1.82861
1.81688
1.80194
1.79402
1.79121
1.78911
1.78671
1.78382
1.78058
1.77751
1.7742
1.76761
1.75486
1.74372
1.73963
1.73729
1.73525
1.73356
1.73257
1.73202
1.73082
1.72864
1.72357
1.71174
1.69634
1.68951
1.68786
1.6864
1.68419
1.68162
1.67898
1.67653
1.67417
1.67166
1.66905
1.6667
1.66474
1.6628
1.66045
1.65718
1.652
1.64262
1.62884
1.61689
1.61056
1.60811
1.60653
1.60532
1.60473
1.60509
1.60548
1.60455
1.60337
1.60181
1.59805
1.58702
1.56921
1.55746
1.55176
1.54741
1.54491
1.54338
1.5421
1.5412
1.54085
1.5412
1.54203
1.54179
1.53977
1.53279
1.52225
1.5145
1.5114
1.50924
1.50663
1.50329
1.49953
1.49603
1.49298
1.49007
1.48705
1.48379
1.48101
1.47951
1.47821
1.47641
1.47323
1.46871
1.46216
1.45294
1.44181
1.43588
1.43454
1.43379
1.43332
1.43349
1.43673
1.44087
1.44039
1.43685
1.43102
1.42466
1.41826
1.41099
1.4015
1.3942
1.39247
1.39173
1.39129
1.39178
1.39596
1.39862
1.39776
1.39441
1.3895
1.3845
1.37957
1.37312
1.36436
1.3524
2.78766
2.78081
2.76997
2.75092
2.7244
2.70275
2.69512
2.69044
2.68673
2.68389
2.68154
2.67961
2.6784
2.67583
2.67134
2.66237
2.64501
2.62379
2.60302
2.58585
2.57422
2.56653
2.56078
2.55603
2.55135
2.5462
2.53999
2.53085
2.51753
2.5026
2.48931
2.48004
2.47455
2.47068
2.46743
2.46487
2.46339
2.46241
2.4605
2.4573
2.45326
2.44679
2.43307
2.41088
2.39257
2.38051
2.37101
2.36625
2.36292
2.35958
2.35646
2.35309
2.34888
2.3423
2.32633
2.30016
2.28602
2.28185
2.27907
2.27728
2.27872
2.27726
2.27347
2.26959
2.2651
2.25877
2.25146
2.24583
2.23908
2.22868
2.21478
2.19962
2.18894
2.1828
2.17851
2.17492
2.17143
2.16782
2.16355
2.15776
2.15063
2.14477
2.13927
2.13185
2.12161
2.11158
2.10407
2.09632
2.08893
2.08479
2.08249
2.08101
2.07956
2.07701
2.07224
2.06277
2.04686
2.0328
2.02582
2.02147
2.01765
2.01381
2.00979
2.00519
1.99884
1.99017
1.98148
1.97673
1.97477
1.97276
1.96841
1.96134
1.9528
1.94548
1.94081
1.93792
1.93632
1.93493
1.93201
1.92613
1.91939
1.91424
1.91026
1.90573
1.89811
1.88534
1.87328
1.86794
1.86516
1.86279
1.86048
1.85824
1.85597
1.85339
1.84997
1.84526
1.83989
1.83501
1.83119
1.82444
1.81305
1.80047
1.79443
1.79181
1.78969
1.78757
1.78502
1.7813
1.77654
1.76961
1.75903
1.74842
1.74302
1.74018
1.73822
1.73664
1.73495
1.73306
1.73104
1.72861
1.72466
1.71687
1.70443
1.69395
1.68931
1.68674
1.68442
1.68195
1.67943
1.6771
1.67488
1.6724
1.66968
1.66701
1.66463
1.66251
1.66036
1.65775
1.65418
1.6471
1.6317
1.61889
1.61623
1.61456
1.61278
1.61147
1.61102
1.61197
1.6115
1.61002
1.60865
1.60693
1.60341
1.59451
1.57794
1.56145
1.55374
1.55007
1.54715
1.54529
1.54395
1.54287
1.54218
1.5421
1.54153
1.54037
1.53785
1.53081
1.52276
1.5195
1.51679
1.51306
1.50893
1.50561
1.5025
1.49867
1.4943
1.49054
1.48742
1.48391
1.47998
1.47818
1.47724
1.47594
1.47369
1.47004
1.46497
1.4582
1.44855
1.44079
1.43888
1.43807
1.4374
1.43721
1.43925
1.44394
1.44403
1.44108
1.43521
1.42799
1.42061
1.41366
1.40624
1.39721
1.39188
1.39094
1.39058
1.39088
1.39403
1.39836
1.39811
1.39558
1.39163
1.38658
1.3803
1.37352
1.36717
1.35744
2.79569
2.78891
2.77746
2.75463
2.72513
2.71234
2.70675
2.70062
2.69515
2.69085
2.68655
2.68202
2.67582
2.66772
2.66083
2.65481
2.64867
2.63939
2.62769
2.61236
2.59361
2.57748
2.56797
2.56193
2.55653
2.55075
2.54529
2.53943
2.52956
2.51223
2.49308
2.48196
2.47724
2.47388
2.47048
2.46719
2.46495
2.46444
2.46406
2.4617
2.45777
2.45282
2.44435
2.42503
2.39761
2.38204
2.37599
2.37144
2.36756
2.365
2.36286
2.35976
2.35611
2.35031
2.33731
2.31301
2.293
2.28665
2.28389
2.28124
2.27862
2.27651
2.27345
2.26957
2.26467
2.25755
2.24837
2.2431
2.24051
2.23711
2.22998
2.21725
2.20203
2.19259
2.18757
2.18338
2.17922
2.17467
2.16897
2.1623
2.15619
2.15136
2.14643
2.13926
2.12687
2.11141
2.10172
2.09769
2.09432
2.09085
2.08756
2.08522
2.08307
2.08054
2.07702
2.06915
2.05299
2.03672
2.02861
2.02377
2.01967
2.01589
2.01175
2.00635
1.99879
1.98949
1.98239
1.97958
1.97769
1.97544
1.97262
1.96861
1.96185
1.95321
1.94649
1.94178
1.93759
1.93318
1.92853
1.92282
1.91672
1.91144
1.90664
1.90192
1.89764
1.89199
1.88257
1.87502
1.87179
1.86929
1.86682
1.86438
1.86186
1.85898
1.85515
1.8493
1.84094
1.833
1.82701
1.82303
1.81898
1.812
1.80296
1.79602
1.79215
1.78997
1.78854
1.78675
1.78188
1.77412
1.76349
1.75339
1.74835
1.74639
1.74471
1.74259
1.74042
1.73818
1.73574
1.73293
1.72905
1.72279
1.7124
1.69871
1.69009
1.6866
1.68446
1.6826
1.68072
1.67816
1.67544
1.67356
1.67151
1.66866
1.66516
1.66233
1.66052
1.659
1.65716
1.6524
1.63935
1.62159
1.61447
1.61252
1.61077
1.6094
1.60882
1.6098
1.60961
1.60783
1.60622
1.60434
1.60136
1.59642
1.58644
1.57094
1.56004
1.55568
1.55252
1.55012
1.54857
1.54712
1.54572
1.5445
1.54321
1.54138
1.53686
1.52881
1.52548
1.52406
1.52173
1.51863
1.51486
1.50973
1.50413
1.50073
1.49858
1.49543
1.49101
1.48513
1.47946
1.47763
1.47705
1.47682
1.47555
1.47308
1.46975
1.46485
1.4567
1.44493
1.43724
1.43566
1.43495
1.43464
1.43552
1.43961
1.441
1.43884
1.43378
1.42735
1.42067
1.41513
1.40964
1.40135
1.39376
1.39204
1.39175
1.39192
1.39446
1.39873
1.39892
1.39647
1.39238
1.38775
1.38255
1.37744
1.37189
1.35982
2.80175
2.79394
2.78125
2.75785
2.73156
2.7211
2.71626
2.71164
2.70613
2.69934
2.69221
2.68515
2.67732
2.66733
2.65709
2.6514
2.64803
2.64521
2.64018
2.63171
2.61899
2.60077
2.58072
2.56799
2.56281
2.56002
2.5563
2.54984
2.53846
2.51988
2.49867
2.48551
2.48007
2.47681
2.47372
2.47046
2.46758
2.46643
2.46666
2.4659
2.46341
2.45971
2.45312
2.43765
2.40792
2.38783
2.38258
2.37846
2.37354
2.36887
2.36463
2.36079
2.3568
2.35193
2.3446
2.32913
2.30545
2.29282
2.28821
2.28406
2.27985
2.27644
2.27341
2.26985
2.26476
2.25677
2.24845
2.24365
2.2404
2.23795
2.23537
2.23027
2.21849
2.20003
2.18673
2.18021
2.1755
2.17062
2.16472
2.15896
2.15632
2.15438
2.1516
2.14627
2.1353
2.11903
2.10597
2.09949
2.09612
2.09403
2.09279
2.09061
2.08812
2.08491
2.07952
2.07032
2.05698
2.04393
2.0358
2.03094
2.027
2.02271
2.01764
2.01103
2.00119
1.99087
1.98672
1.98452
1.98247
1.97967
1.97637
1.97254
1.96716
1.96014
1.95367
1.94766
1.94132
1.93472
1.92801
1.92254
1.91726
1.9122
1.90758
1.90357
1.90017
1.89648
1.8905
1.88017
1.87125
1.86706
1.86415
1.8614
1.85858
1.85529
1.851
1.84486
1.83798
1.83249
1.82842
1.82485
1.82147
1.81789
1.81227
1.80488
1.79969
1.79636
1.79238
1.78605
1.7778
1.76979
1.76463
1.76114
1.75699
1.75107
1.74476
1.74039
1.73777
1.73561
1.73329
1.73071
1.72845
1.72594
1.71937
1.70598
1.69353
1.6888
1.68666
1.68485
1.68285
1.68036
1.67667
1.67279
1.67071
1.66913
1.66712
1.66446
1.66191
1.65973
1.65732
1.65388
1.64511
1.62724
1.61615
1.61337
1.61178
1.61047
1.60984
1.61042
1.61067
1.60898
1.60723
1.60537
1.60287
1.59945
1.59377
1.58255
1.56677
1.55626
1.55081
1.54735
1.54552
1.54396
1.5424
1.54088
1.53948
1.53766
1.53363
1.5279
1.52617
1.52514
1.52375
1.52174
1.51903
1.51522
1.51035
1.50516
1.4997
1.49328
1.48523
1.48135
1.48039
1.47999
1.48013
1.48128
1.48031
1.47811
1.47487
1.47017
1.46249
1.44972
1.43849
1.43565
1.43494
1.43461
1.43542
1.43881
1.44018
1.43852
1.43446
1.42941
1.42345
1.41706
1.41069
1.40367
1.39791
1.39663
1.39631
1.39627
1.39778
1.40109
1.40123
1.39896
1.39427
1.38855
1.38331
1.37957
1.3756
1.36343
2.80805
2.7996
2.78698
2.76806
2.74543
2.73026
2.72344
2.71775
2.71147
2.70462
2.69716
2.68882
2.67923
2.66876
2.65882
2.65198
2.64762
2.64406
2.64185
2.63858
2.63305
2.62277
2.60528
2.58475
2.5699
2.56016
2.55299
2.5462
2.53767
2.5258
2.50841
2.49203
2.48407
2.48034
2.47762
2.47527
2.47293
2.47016
2.46746
2.46526
2.4631
2.46043
2.45661
2.44741
2.4282
2.40356
2.38953
2.3843
2.38079
2.37725
2.37291
2.36868
2.36446
2.35958
2.35286
2.34191
2.32544
2.30592
2.29339
2.28736
2.28305
2.2789
2.27443
2.27
2.26347
2.25497
2.24941
2.2465
2.24382
2.24212
2.23971
2.23599
2.2287
2.21176
2.19167
2.18142
2.17602
2.17095
2.16553
2.16208
2.15954
2.15679
2.15331
2.14771
2.13911
2.1272
2.11537
2.10757
2.10258
2.09884
2.09531
2.09184
2.0885
2.08458
2.07883
2.07099
2.06293
2.05414
2.0437
2.03436
2.02728
2.02131
2.01523
2.00814
2.00134
1.99688
1.99323
1.98965
1.98623
1.98236
1.97802
1.97368
1.96929
1.96334
1.95493
1.94606
1.93781
1.93037
1.92475
1.92041
1.91721
1.91411
1.91119
1.90894
1.90665
1.90348
1.89757
1.88626
1.87445
1.86869
1.86528
1.86212
1.85901
1.85552
1.85062
1.84413
1.8373
1.8338
1.83177
1.83006
1.8284
1.8258
1.82103
1.81289
1.80235
1.79435
1.78924
1.78417
1.77735
1.77033
1.76754
1.76528
1.7622
1.75677
1.7488
1.74232
1.73885
1.73663
1.73433
1.73168
1.72883
1.72533
1.72023
1.71203
1.70183
1.69574
1.69297
1.69068
1.68818
1.68506
1.68088
1.67525
1.67005
1.66754
1.66595
1.6651
1.66411
1.66281
1.6606
1.65626
1.64793
1.63317
1.6214
1.61815
1.61664
1.61529
1.61438
1.61435
1.61543
1.61429
1.61259
1.61111
1.60933
1.60654
1.60146
1.59158
1.57603
1.56084
1.55218
1.5474
1.54544
1.54392
1.54224
1.54053
1.53863
1.53629
1.53231
1.5286
1.52753
1.52693
1.52603
1.52414
1.52123
1.51778
1.51384
1.50879
1.50197
1.49376
1.48516
1.48046
1.47911
1.47813
1.47754
1.47836
1.48077
1.47982
1.47621
1.47089
1.46405
1.45448
1.44388
1.43968
1.43888
1.43848
1.43894
1.44071
1.44093
1.43966
1.43615
1.43145
1.42584
1.41993
1.41437
1.4082
1.40025
1.3959
1.39541
1.39535
1.3963
1.39861
1.39986
1.39856
1.39555
1.39155
1.3876
1.38338
1.37783
1.36556
2.80513
2.79878
2.79077
2.77696
2.7581
2.74507
2.73763
2.73034
2.72155
2.71139
2.70065
2.68975
2.67854
2.66686
2.65853
2.65366
2.64975
2.64672
2.64521
2.64331
2.63967
2.6346
2.62502
2.60712
2.58374
2.56632
2.55555
2.54777
2.54094
2.53273
2.52133
2.50738
2.49316
2.48477
2.48031
2.47698
2.47488
2.47535
2.47457
2.47089
2.46663
2.46147
2.45547
2.44938
2.4382
2.42321
2.40836
2.3954
2.38555
2.37748
2.37116
2.36596
2.36084
2.35536
2.34949
2.34408
2.33705
2.32367
2.30536
2.2947
2.28981
2.28501
2.27864
2.26994
2.26029
2.25499
2.25253
2.25073
2.25043
2.24849
2.24484
2.24048
2.23437
2.2226
2.20303
2.18731
2.18008
2.17565
2.17244
2.1694
2.16592
2.16209
2.15784
2.15264
2.14508
2.1352
2.12541
2.11805
2.1123
2.10683
2.10184
2.09752
2.09353
2.08942
2.0846
2.07847
2.07047
2.06124
2.05132
2.04122
2.03148
2.0234
2.01683
2.01068
2.00487
1.99968
1.99587
1.99271
1.98937
1.98566
1.98151
1.97715
1.97287
1.96762
1.95842
1.94601
1.93666
1.92989
1.92598
1.924
1.9218
1.91893
1.91616
1.91326
1.90994
1.90575
1.89964
1.8902
1.87889
1.872
1.86836
1.86465
1.85997
1.85481
1.84946
1.84391
1.84099
1.8393
1.8375
1.8353
1.83263
1.82957
1.82559
1.81863
1.80774
1.79594
1.78755
1.78192
1.77796
1.77563
1.77295
1.76933
1.76514
1.76055
1.75515
1.74955
1.74551
1.74257
1.73977
1.73642
1.73209
1.72741
1.72324
1.71781
1.71006
1.69983
1.69265
1.68898
1.68614
1.6829
1.67895
1.67462
1.67091
1.66855
1.6668
1.66525
1.66406
1.66318
1.66174
1.65938
1.65373
1.64186
1.6267
1.61737
1.61398
1.61258
1.61154
1.61097
1.61167
1.61207
1.61056
1.60892
1.60706
1.60419
1.59967
1.59349
1.58416
1.5717
1.55944
1.55169
1.54887
1.54726
1.5453
1.54227
1.5385
1.53513
1.53211
1.53075
1.52962
1.52925
1.52942
1.52848
1.52631
1.52292
1.51772
1.5112
1.50462
1.49656
1.48604
1.47998
1.47868
1.47792
1.47747
1.47809
1.48086
1.48057
1.47804
1.4743
1.46906
1.46077
1.44841
1.4389
1.43693
1.4364
1.43617
1.43733
1.43975
1.43925
1.43689
1.43304
1.4282
1.42338
1.41872
1.41224
1.40281
1.39697
1.39613
1.396
1.39671
1.3994
1.40081
1.39922
1.39542
1.39156
1.38908
1.38647
1.38219
1.36937
2.80922
2.80117
2.78981
2.77515
2.76075
2.75258
2.74694
2.74054
2.73193
2.72028
2.70657
2.69261
2.67916
2.6686
2.66265
2.65843
2.65441
2.65084
2.64813
2.64659
2.64525
2.64184
2.63653
2.62586
2.603
2.57477
2.55514
2.5423
2.53357
2.52879
2.52556
2.51969
2.50837
2.49462
2.48627
2.48165
2.47818
2.47463
2.47091
2.46708
2.46225
2.45623
2.44867
2.44078
2.43623
2.43161
2.42302
2.41096
2.39578
2.38238
2.37361
2.36784
2.36268
2.35735
2.3525
2.34854
2.34424
2.33699
2.32188
2.30088
2.28555
2.27746
2.27085
2.26395
2.25962
2.25714
2.25587
2.25635
2.25738
2.25488
2.25163
2.24795
2.24299
2.23433
2.21604
2.19058
2.17573
2.17171
2.16895
2.1659
2.16265
2.15923
2.15601
2.15362
2.15123
2.14721
2.13861
2.12539
2.11356
2.10554
2.09947
2.09422
2.08944
2.08474
2.07967
2.07347
2.06574
2.05812
2.05303
2.04829
2.04119
2.0299
2.01958
2.01421
2.01073
2.00684
2.00165
1.99595
1.99118
1.98741
1.98389
1.97992
1.97454
1.96661
1.9549
1.94225
1.93457
1.93177
1.93007
1.9292
1.92895
1.92679
1.9237
1.92024
1.91617
1.91138
1.90514
1.89552
1.88267
1.87236
1.86771
1.86401
1.85928
1.85352
1.84947
1.84729
1.84585
1.84492
1.84342
1.84141
1.83898
1.83526
1.8293
1.81996
1.80719
1.79499
1.78634
1.78204
1.78
1.77814
1.77614
1.77398
1.77134
1.76788
1.76261
1.75422
1.7456
1.74021
1.73661
1.73318
1.72943
1.7251
1.72235
1.72094
1.71625
1.70621
1.69562
1.69036
1.68741
1.68447
1.6808
1.67605
1.67251
1.67059
1.66891
1.66752
1.66622
1.66454
1.66215
1.65841
1.65298
1.64512
1.63282
1.62054
1.61506
1.61304
1.61187
1.61119
1.61127
1.6118
1.61074
1.60921
1.60744
1.60486
1.60095
1.59613
1.59066
1.58242
1.56902
1.5546
1.54652
1.54411
1.54293
1.54143
1.53825
1.53507
1.53405
1.53413
1.53597
1.53687
1.53608
1.53437
1.5317
1.52757
1.52203
1.51505
1.50593
1.49466
1.48469
1.48094
1.47991
1.47904
1.47856
1.47895
1.48131
1.48112
1.4789
1.47628
1.47292
1.46658
1.45406
1.4409
1.4373
1.43659
1.43626
1.43704
1.43977
1.44004
1.43839
1.4348
1.43003
1.42467
1.41877
1.41149
1.40342
1.39916
1.39836
1.39801
1.39835
1.40108
1.40287
1.4014
1.39796
1.39437
1.39094
1.38709
1.38273
1.37122
2.81148
2.80382
2.79421
2.78131
2.76822
2.759
2.75272
2.74687
2.73975
2.72955
2.71536
2.69871
2.68239
2.67204
2.66699
2.66265
2.65831
2.6541
2.65122
2.65087
2.65201
2.64983
2.64548
2.637
2.61879
2.58775
2.55935
2.54369
2.53557
2.53073
2.52636
2.522
2.51684
2.50836
2.49708
2.48886
2.48342
2.47772
2.4719
2.46758
2.46293
2.45585
2.44772
2.43986
2.43414
2.42997
2.42675
2.42205
2.41191
2.39431
2.37815
2.37008
2.3659
2.36237
2.35895
2.35545
2.35149
2.34553
2.33292
2.30973
2.28741
2.27507
2.26868
2.26483
2.26194
2.25924
2.25707
2.25612
2.25692
2.25849
2.2569
2.25386
2.25028
2.2446
2.2294
2.19825
2.17643
2.17139
2.16909
2.16679
2.16426
2.16151
2.15931
2.15693
2.15427
2.15112
2.14567
2.13445
2.11985
2.10873
2.10111
2.09495
2.08968
2.08478
2.07926
2.07256
2.06564
2.06096
2.05758
2.05383
2.04848
2.04022
2.02986
2.02
2.01313
2.00897
2.00587
2.00262
1.99872
1.99467
1.99088
1.98627
1.97944
1.96831
1.95363
1.94184
1.93833
1.93717
1.93704
1.93666
1.93432
1.93109
1.92757
1.92358
1.91891
1.91338
1.90713
1.89988
1.88956
1.8773
1.86809
1.86275
1.85873
1.856
1.85389
1.85106
1.84857
1.84637
1.84379
1.84155
1.84021
1.83865
1.83494
1.82453
1.80628
1.79324
1.78914
1.78688
1.78393
1.7808
1.77826
1.77604
1.7742
1.77227
1.76897
1.76104
1.74951
1.74149
1.73694
1.7335
1.7301
1.72625
1.72175
1.7176
1.7146
1.71056
1.70298
1.69477
1.69008
1.68709
1.68436
1.68175
1.67938
1.67727
1.6753
1.6733
1.67112
1.66863
1.66544
1.66092
1.65491
1.64776
1.63863
1.62729
1.6197
1.61725
1.61564
1.61393
1.61257
1.61191
1.61147
1.61046
1.6086
1.60582
1.60313
1.60076
1.59767
1.59171
1.5798
1.56148
1.54838
1.54409
1.54276
1.54238
1.54205
1.54071
1.53973
1.53837
1.53638
1.53513
1.53415
1.53269
1.53034
1.52693
1.52287
1.51738
1.50809
1.49464
1.48662
1.48511
1.48399
1.48284
1.482
1.48185
1.48356
1.48359
1.48221
1.47954
1.47553
1.46944
1.45895
1.44592
1.44086
1.44003
1.43969
1.44024
1.44326
1.44429
1.44285
1.43924
1.43417
1.42821
1.42153
1.41299
1.40446
1.40231
1.40187
1.40179
1.40302
1.40679
1.40835
1.40663
1.40279
1.39854
1.39437
1.39033
1.38594
1.37387
2.81733
2.8043
2.78939
2.77552
2.76851
2.76358
2.75843
2.75293
2.74678
2.73861
2.72604
2.70707
2.68719
2.67609
2.67032
2.66607
2.66248
2.65891
2.65532
2.65217
2.64991
2.6479
2.64481
2.63997
2.62727
2.60366
2.57727
2.55677
2.5436
2.53625
2.53206
2.52899
2.52588
2.5212
2.51233
2.49757
2.48441
2.47805
2.47244
2.46656
2.46076
2.45166
2.44313
2.43916
2.43702
2.43518
2.43212
2.42871
2.42222
2.40797
2.38725
2.37535
2.37034
2.36679
2.36362
2.36033
2.35657
2.35141
2.34075
2.3177
2.28938
2.27483
2.27004
2.26689
2.26375
2.26098
2.25958
2.26131
2.26666
2.26904
2.26627
2.2622
2.2578
2.25142
2.2383
2.21391
2.18697
2.17489
2.17103
2.16882
2.16824
2.16919
2.16662
2.16354
2.16057
2.15645
2.14964
2.13999
2.12884
2.11816
2.10874
2.10038
2.09292
2.08647
2.07915
2.07122
2.06503
2.06054
2.05641
2.05169
2.047
2.04332
2.03818
2.03052
2.0227
2.01617
2.01029
2.00432
1.99824
1.99263
1.98775
1.98285
1.97644
1.96641
1.95222
1.94579
1.94429
1.94417
1.94442
1.94265
1.94007
1.93701
1.93299
1.92812
1.9228
1.9173
1.91102
1.90229
1.88929
1.87525
1.86605
1.86187
1.85982
1.85811
1.85618
1.85367
1.85114
1.84951
1.84811
1.84589
1.84262
1.83911
1.83412
1.82332
1.8047
1.79408
1.79172
1.78944
1.78693
1.78485
1.78302
1.78101
1.77858
1.77523
1.77092
1.76503
1.7563
1.7474
1.74165
1.73786
1.73443
1.73026
1.72423
1.7174
1.71375
1.71169
1.70843
1.70386
1.69794
1.69132
1.68587
1.68155
1.6781
1.67538
1.67304
1.67074
1.66815
1.66509
1.66153
1.65691
1.65148
1.64599
1.64112
1.63577
1.62777
1.61831
1.61377
1.61254
1.61169
1.61125
1.61346
1.61442
1.61296
1.6107
1.60814
1.60473
1.60031
1.59476
1.58627
1.57283
1.55771
1.5502
1.54738
1.54434
1.54024
1.5379
1.53685
1.53605
1.53575
1.53589
1.53486
1.53344
1.53157
1.52911
1.52545
1.51932
1.5097
1.49711
1.48683
1.48307
1.48179
1.48067
1.47993
1.47998
1.4833
1.48842
1.48783
1.48476
1.47996
1.4736
1.46432
1.45034
1.43997
1.43795
1.43752
1.43761
1.43988
1.44154
1.44023
1.43673
1.43198
1.42639
1.42043
1.41378
1.40669
1.40377
1.40318
1.40291
1.40323
1.40581
1.40674
1.40477
1.40068
1.39646
1.39243
1.3885
1.38513
1.37606
2.8283
2.80974
2.7911
2.77893
2.77251
2.76707
2.7617
2.75596
2.74962
2.74265
2.73328
2.7177
2.69924
2.68632
2.67774
2.6712
2.66629
2.66248
2.66098
2.65902
2.65467
2.64996
2.64425
2.63675
2.62679
2.61097
2.59348
2.57723
2.56124
2.54824
2.54109
2.53716
2.53377
2.52975
2.523
2.50895
2.48988
2.47927
2.47586
2.46988
2.459
2.4493
2.44382
2.44063
2.43726
2.43348
2.42961
2.42596
2.42272
2.41725
2.404
2.38534
2.37543
2.37127
2.36792
2.36474
2.36122
2.35611
2.34642
2.32704
2.29693
2.27827
2.27299
2.27005
2.26735
2.26506
2.26356
2.26296
2.26302
2.26254
2.26099
2.25773
2.25342
2.2479
2.23937
2.22522
2.20259
2.18371
2.17666
2.17315
2.17008
2.16673
2.16321
2.15954
2.15586
2.15212
2.14745
2.14164
2.1354
2.12797
2.11877
2.10871
2.09881
2.08886
2.07866
2.06941
2.06379
2.0607
2.05811
2.05525
2.05165
2.04687
2.04228
2.03834
2.03329
2.02605
2.01722
2.00864
2.00103
1.99402
1.98775
1.98209
1.9757
1.96729
1.95904
1.95303
1.94923
1.94689
1.945
1.94353
1.94242
1.94069
1.93852
1.93556
1.93101
1.92462
1.91678
1.90608
1.89133
1.87587
1.86773
1.86478
1.86273
1.86062
1.85842
1.85618
1.85398
1.85209
1.85078
1.84952
1.84698
1.84276
1.83591
1.82391
1.80806
1.79888
1.79505
1.79213
1.78922
1.7862
1.7834
1.78111
1.77946
1.77785
1.7758
1.77187
1.76339
1.75089
1.7407
1.73477
1.73085
1.72713
1.72251
1.71662
1.71225
1.71046
1.70974
1.70843
1.70498
1.69846
1.69048
1.684
1.67931
1.67591
1.67334
1.67093
1.66829
1.66501
1.66092
1.65655
1.65178
1.64814
1.64517
1.6409
1.63319
1.62227
1.61501
1.6131
1.61229
1.61164
1.61148
1.61111
1.60948
1.60736
1.60551
1.60322
1.5998
1.59538
1.59083
1.58363
1.56971
1.55403
1.54683
1.54349
1.53964
1.53754
1.5365
1.53589
1.53565
1.53703
1.53973
1.53916
1.53719
1.53405
1.52912
1.5222
1.51331
1.50131
1.48932
1.48401
1.48239
1.48135
1.48073
1.48096
1.4847
1.48748
1.48618
1.48297
1.47904
1.47414
1.46652
1.45375
1.44144
1.43833
1.43788
1.4378
1.43963
1.44157
1.44044
1.43704
1.43247
1.4272
1.42154
1.41469
1.40767
1.40558
1.40511
1.40492
1.40508
1.40693
1.40737
1.4053
1.40123
1.39697
1.39302
1.3893
1.38582
1.37665
2.82731
2.80481
2.78894
2.78146
2.77621
2.77126
2.76647
2.76182
2.75649
2.74882
2.7388
2.72587
2.70985
2.69631
2.6873
2.68049
2.67464
2.6691
2.66332
2.65736
2.65102
2.64395
2.63489
2.62453
2.61627
2.61056
2.60326
2.59293
2.58024
2.56626
2.55487
2.54688
2.54049
2.53475
2.52868
2.52025
2.50649
2.48865
2.47233
2.4621
2.45295
2.44689
2.4435
2.44097
2.4385
2.43548
2.43223
2.42847
2.42432
2.42
2.41473
2.40374
2.38731
2.37605
2.3693
2.36345
2.35867
2.35492
2.34984
2.33655
2.3119
2.28761
2.27737
2.27366
2.27081
2.26802
2.26597
2.26561
2.26494
2.26209
2.25942
2.25663
2.25284
2.24867
2.24407
2.23472
2.21845
2.19829
2.18344
2.17603
2.17107
2.16718
2.16388
2.16015
2.15567
2.15212
2.14952
2.14723
2.14405
2.13865
2.1296
2.11565
2.09867
2.08439
2.07622
2.06977
2.06494
2.06193
2.06006
2.05927
2.05797
2.05559
2.05219