/*--------------------------------*- C++ -*----------------------------------*\
  =========                 |
  \\      /  F ield         | OpenFOAM: The Open Source CFD Toolbox
   \\    /   O peration     | Website:  https://openfoam.org
    \\  /    A nd           | Version:  7
     \\/     M anipulation  |
\*---------------------------------------------------------------------------*/
FoamFile
{
    version     2.0;
    format      ascii;
    class       volScalarField;
    location    "3.8";
    object      p;
}
// * * * * * * * * * * * * * * * * * * * * * * * * * * * * * * * * * * * * * //

dimensions      [1 -1 -2 0 0 0 0];

internalField   nonuniform List<scalar> 
16512
(
1
1
1
1
1
1
1
1
1
1
1
1
1
1
1
1
1
1
1
1
1
1
1
1
1
1
1
1
1
1
1
1
1
1
1
1.32599
7.58222
10.6091
10.7421
10.9509
11.136
11.3125
11.475
11.6216
11.7522
11.8577
11.9385
11.9979
1
1
1
1
1
1
1
1
1
1
1
1
1
1
1
1
1
1
1
1
1
1
1
1
1
1
1
1
1
1
1
1
1
1
1
1.28706
7.41821
10.5754
10.7292
10.9319
11.1133
11.2854
11.443
11.5828
11.7053
11.8027
11.8744
11.9307
1
1
1
1
1
1
1
1
1
1
1
1
1
1
1
1
1
1
1
1
1
1
1
1
1
1
1
1
1
1
1
1
1
1
1
1.1838
7.11727
10.5462
10.6876
10.8886
11.0704
11.2412
11.396
11.5303
11.6448
11.7332
11.7911
11.8388
1
1
1
1
1
1
1
1
1
1
1
1
1
1
1
1
1
1
1
1
1
1
1
1
1
1
1
1
1
1
1
1
1
1
1
1.01606
6.61688
10.4933
10.6337
10.8212
10.9931
11.1522
11.2977
11.4257
11.5366
11.621
11.6694
11.7063
1
1
1
1
1
1
1
1
1
1
1
1
1
1
1
1
1
1
1
1
1
1
1
1
1
1
1
1
1
1
1
1
1
1
1
1.00019
5.94356
10.3168
10.5014
10.6855
10.8608
11.018
11.1574
11.272
11.3614
11.4272
11.4607
11.5087
1
1
1
1
1
1
1
1
1
1
1
1
1
1
1
1
1
1
1
1
1
1
1
1
1
1
1
1
1
1
1
1
1
1
1
0.999999
5.09934
10.0851
10.39
10.5587
10.7257
10.8651
10.9839
11.0818
11.1595
11.2184
11.2295
11.1888
1
1
1
1
1
1
1
1
1
1
1
1
1
1
1
1
1
1
1
1
1
1
1
1
1
1
1
1
1
1
1
1
1
1
1
1
4.13149
9.72924
10.2731
10.43
10.5744
10.6835
10.7668
10.826
10.8459
10.8082
10.7391
10.6956
1
1
1
1
1
1
1
1
1
1
1
1
1
1
1
1
1
1
1
1
1
1
1
1
1
1
1
1
1
1
1
1
1
1
1
1
3.0857
9.1781
10.1859
10.3232
10.4375
10.5109
10.5445
10.5478
10.4999
10.4209
10.2942
10.285
1
1
1
1
1
1
1
1
1
1
1
1
1
1
1
1
1
1
1
1
1
1
1
1
1
1
1
1
1
1
1
1
1
1
1
1
2.00341
8.31533
10.1437
10.1977
10.2888
10.3296
10.3149
10.2538
10.1068
9.83915
9.06166
7.18354
1
1
1
1
1
1
1
1
1
1
1
1
1
1
1
1
1
1
1
1
1
1
1
1
1
1
1
1
1
1
1
1
1
1
1
1
1.12618
7.17607
10.1926
10.0916
10.0883
10.0768
10.0204
9.89478
9.65404
9.18205
8.37817
6.31344
1
1
1
1
1
1
1
1
1
1
1
1
1
1
1
1
1
1
1
1
1
1
1
1
1
1
1
1
1
1
1
1
1
1
1
1
1.00153
5.56397
9.58955
9.72595
9.789
9.76551
9.691
9.51691
9.21868
8.65581
7.82751
5.88949
1
1
1
1
1
1
1
1
1
1
1
1
1
1
1
1
1
1
1
1
1
1
1
1
1
1
1
1
1
1
1
1
1
1
1
1
0.999977
3.69313
9.00727
9.59215
9.62041
9.556
9.43647
9.20792
8.84906
8.27518
7.37081
5.7967
1
1
1
1
1
1
1
1
1
1
1
1
1
1
1
1
1
1
1
1
1
1
1
1
1
1
1
1
1
1
1
1
1
1
1
1
0.999994
1.96166
8.0475
9.53305
9.44323
9.33284
9.17423
8.91054
8.51568
7.95705
7.05369
5.83678
1
1
1
1
1
1
1
1
1
1
1
1
1
1
1
1
1
1
1
1
1
1
1
1
1
1
1
1
1
1
1
1
1
1
1
1
0.999999
1.096
6.28564
9.20149
9.18938
9.0909
8.92324
8.65176
8.26237
7.7014
6.87383
5.92148
1
1
1
1
1
1
1
1
1
1
1
1
1
1
1
1
1
1
1
1
1
1
1
1
1
1
1
1
1
1
1
1
1
1
1
1
1
1.00049
3.83325
8.6081
9.04198
8.93766
8.75161
8.44263
8.05629
7.48651
6.76618
5.98696
1
1
1
1
1
1
1
1
1
1
1
1
1
1
1
1
1
1
1
1
1
1
1
1
1
1
1
1
1
1
1
1
1
1
1
1
1
0.999994
1.61936
7.63503
9.07687
8.79753
8.55869
8.24696
7.83521
7.32979
6.71514
6.05157
1
1
1
1
1
1
1
1
1
1
1
1
1
1
1
1
1
1
1
1
1
1
1
1
1
1
1
1
1
1
1
1
1
1
1
1
1
0.999999
1.03359
5.60204
8.64635
8.45956
8.29424
8.02478
7.65922
7.21035
6.66917
6.09141
1
1
1
1
1
1
1
1
1
1
1
1
1
1
1
1
1
1
1
1
1
1
1
1
1
1
1
1
1
1
1
1
1
1
1
1
1
1
0.999969
2.79844
7.90728
8.35125
8.2027
7.93572
7.5792
7.14439
6.63773
6.11943
1
1
1
1
1
1
1
1
1
1
1
1
1
1
1
1
1
1
1
1
1
1
1
1
1
1
1
1
1
1
1
1
1
1
1
1
1
1
0.999988
1.22698
6.07796
8.30118
8.11703
7.8314
7.47728
7.06879
6.60854
6.13942
1
1
1
1
1
1
1
1
1
1
1
1
1
1
1
1
1
1
1
1
1
1
1
1
1
1
1
1
1
1
1
1
1
1
1
1
1
1
0.999998
1.00397
3.23182
7.60356
7.99251
7.70564
7.38129
7.00212
6.59037
6.16397
1
1
1
1
1
1
1
1
1
1
1
1
1
1
1
1
1
1
1
1
1
1
1
1
1
1
1
1
1
1
1
1
1
1
1
1
1
1
1
1
1.33969
5.98458
7.96177
7.63816
7.32944
6.96193
6.58095
6.1875
1
1
1
1
1
1
1
1
1
1
1
1
1
1
1
1
1
1
1
1
1
1
1
1
1
1
1
1
1
1
1
1
1
1
1
1
1
1
1
1
1.00925
3.11658
7.22857
7.53764
7.23971
6.90484
6.55789
6.20182
1
1
1
1
1
1
1
1
1
1
1
1
1
1
1
1
1
1
1
1
1
1
1
1
1
1
1
1
1
1
1
1
1
1
1
1
1
1
1
1
1.00003
1.30997
5.46366
7.54998
7.21591
6.91299
6.58742
6.24829
1
1
1
1
1
1
1
1
1
1
1
1
1
1
1
1
1
1
1
1
1
1
1
1
1
1
1
1
1
1
1
1
1
1
1
1
1
1
1
1
1
1.00806
2.51654
6.52857
7.1819
6.89607
6.59318
6.27479
1
1
1
1
1
1
1
1
1
1
1
1
1
1
1
1
1
1
1
1
1
1
1
1
1
1
1
1
1
1
1
1
1
1
1
1
1
1
1
1
1
1.00004
1.16644
4.41226
7.12821
6.91539
6.6287
6.31924
1
1
1
1
1
1
1
1
1
1
1
1
1
1
1
1
1
1
1
1
1
1
1
1
1
1
1
1
1
1
1
1
1
1
1
1
1
1
1
1
1
1
1.0029
1.84266
5.77963
6.91481
6.61755
6.31375
1
1
1
1
1
1
1
1
1
1
1
1
1
1
1
1
1
1
1
1
1
1
1
1
1
1
1
1
1
1
1
1
1
1
1
1
1
1
1
1
1
1
1.00001
1.05428
3.09869
6.3098
6.62889
6.36684
1
1
1
1
1
1
1
1
1
1
1
1
1
1
1
1
1
1
1
1
1
1
1
1
1
1
1
1
1
1
1
1
1
1
1
1
1
1
1
1
1
1
1
1.00065
1.31171
4.42208
6.52814
6.43403
1
1
1
1
1
1
1
1
1
1
1
1
1
1
1
1
1
1
1
1
1
1
1
1
1
1
1
1
1
1
1
1
1
1
1
1
1
1
1
1
1
1
1
1
1.00947
1.9083
5.29143
6.38937
1
1
1
1
1
1
1
1
1
1
1
1
1
1
1
1
1
1
1
1
1
1
1
1
1
1
1
1
1
1
1
1
1
1
1
1
1
1
1
1
1
1
1
1
1.00007
1.06424
2.72997
5.72696
1
1
1
1
1
1
1
1
1
1
1
1
1
1
1
1
1
1
1
1
1
1
1
1
1
1
1
1
1
1
1
1
1
1
1
1
1
1
1
1
1
1
1
1
1
1.00094
1.2208
3.63733
1
1
1
1
1
1
1
1
1
1
1
1
1
1
1
1
1
1
1
1
1
1
1
1
1
1
1
1
1
1
1
1
1
1
1
1
1
1
1
1
1
1
1
1
1
1
1.00606
1.53571
1
1
1
1
1
1
1
1
1
1
1
1
1
1
1
1
1
1
1
1
1
1
1
1
1
1
1
1
1
1
1
1
1
1
1
1
1
1
1
1
1
1
1
1
1
1
1.00004
1.02639
1
1
1
1
1
1
1
1
1
1
1
1
1
1
1
1
1
1
1
1
1
1
1
1
1
1
1
1
1
1
1
1
1
1
1
1
1
1
1
1
1
1
1
1
1
1
1
1.0003
1
1
1
1
1
1
1
1
1
1
1
1
1
1
1
1
1
1
1
1
1
1
1
1
1
1
1
1
1
1
1
1
1
1
1
1
1
1
1
1
1
1
1
1
1
1
1
1
1
1
1
1
1
1
1
1
1
1
1
1
1
1
1
1
1
1
1
1
1
1
1
1
1
1
1
1
1
1
1
1
1
1
1
1
1
1
1
1
1
1
1
1
1
1
1
1
1
1
1
1
1
1
1
1
1
1
1
1
1
1
1
1
1
1
1
1
1
1
1
1
1
1
1
1
1
1
1
1
1
1
1
1
1
1
1
1
1
1
1
1
1
1
1
1
1
1
1
1
1
1
1
1
1
1
1
1
1
1
1
1
1
1
1
1
1
1
1
1
1
1
1
1
1
1
1
1
1
1
1
1
1
1
1
1
1
1
1
1
1
1
1
1
1
1
1
1
1
1
1
1
1
1
1
1
1
1
1
1
1
1
1
1
1
1
1
1
1
1
1
1
1
1
1
1
1
1
1
1
1
1
1
1
1
1
1
1
1
1
1
1
1
1
1
1
1
1
1
1
1
1
1
1
1
1
1
1
1
1
1
1
1
1
1
1
1
1
1
1
1
1
1
1
1
1
1
1
1
1
1
1
1
1
1
1
1
1
1
1
1
1
1
1
1
1
1
1
1
1
1
1
1
1
1
1
1
1
1
1
1
1
1
1
1
1
1
1
1
1
1
1
1
1
1
1
1
1
1
1
1
1
1
1
1
1
1
1
1
1
1
1
1
1
1
1
1
1
1
1
1
1
1
1
1
1
1
1
1
1
1
1
1
1
1
1
1
1
1
1
1
1
1
1
1
1
1
1
1
1
1
1
1
1
1
1
1
1
1
1
1
1
1
1
1
1
1
1
1
1
1
1
1
1
1
1
1
1
1
1
1
1
1
1
1
1
1
1
1
1
1
1
1
1
1
1
1
1
1
1
1
1
1
1
1
1
1
1
1
1
1
1
1
1
1
1
1
1
1
1
1
1
1
1
1
1
1
1
1
1
1
1
1
1
1
1
1
1
1
1
1
1
1
1
1
1
1
1
1
1
1
1
1
1
1
1
1
1
1
1
1
1
1
1
1
1
1
1
1
1
1
1
1
1
1
1
1
1
1
1
1
1
1
1
1
1
1
1
1
1
1
1
1
1
1
1
1
1
1
1
1
1
1
1
1
1
1
1
1
1
1
1
1
1
1
1
1
1
1
1
1
1
1
1
1
1
1
1
1
1
1
1
1
1
1
1
1
1
1
1
1
1
1
1
1
1
1
1
1
1
1
1
1
1
1
1
1
1
1
1
1
1
1
1
1
1
1
1
1
1
1
1
1
1
1
1
1
1
1
1
1
1
1
1
1
1
1
1
1
1
1
1
1
1
1
1
1
1
1
1
1
1
1
1
1
1
1
1
1
1
1
1
1
1
1
1
1
1
1
1
1
1
1
1
1
1
1
1
1
1
1
1
1
1
1
1
1
1
1
1
1
1
1
1
1
1
1
1
1
1
1
1
1
1
1
1
1
1
1
1
1
1
1
1
1
1
1
1
1
1
1
1
1
1
1
1
1
1
1
1
1
1
1
1
1
1
1
1
1
1
1
1
1
1
1
1
1
1
1
1
1
1
1
1
1
1
1
1
1
1
1
1
1
1
1
1
1
1
1
1
1
1
1
1
1
1
1
1
1
1
1
1
1
1
1
1
1
1
1
1
1
1
1
1
1
1
1
1
1
1
1
1
1
1
1
1
1
1
1
1
1
1
1
1
1
1
1
1
1
1
1
1
1
1
1
1
1
1
1
1
1
1
1
1
1
1
1
1
1
1
1
1
1
1
1
1
1
1
1
1
1
1
1
1
1
1
1
1
1
1
1
1
1
1
1
1
1
1
1
1
1
1
1
1
1
1
1
1
1
1
1
1
1
1
1
1
1
1
1
1
1
1
1
1
1
1
1
1
1
1
1
1
1
1
1
1
1
1
1
1
1
1
1
1
1
1
1
1
1
1
1
1
1
1
1
1
1
1
1
1
1
1
1
1
1
1
1
1
1
1
1
1
1
1
1
1
1
1
1
1
1
1
1
1
1
1
1
1
1
1
1
1
1
1
1
1
1
1
1
1
1
1
1
1
1
1
1
1
1
1
1
1
1
1
1
1
1
1
1
1
1
1
1
1
1
1
1
1
1
1
1
1
1
1
1
1
1
1
1
1
1
1
1
1
1
1
1
1
1
1
1
1
1
1
1
1
1
1
1
1
1
1
1
1
1
1
1
1
1
1
1
1
1
1
1
1
1
1
1
1
1
1
1
1
1
1
1
1
1
1
1
1
1
1
1
1
1
1
1
1
1
1
1
1
1
1
1
1
1
1
1
1
1
1
1
1
1
1
1
1
1
1
1
1
1
1
1
1
1
1
1
1
1
1
1
1
1
1
1
1
1
1
1
1
1
1
1
1
1
1
1
1
1
1
1
1
1
1
1
1
1
1
1
1
1
1
1
1
1
1
1
1
1
1
1
1
1
1
1
1
1
1
1
1
1
1
1
1
1
1
1
1
1
1
1
1
1
1
1
1
1
1
1
1
1
1
1
1
1
1
1
1
1
1
1
1
1
1
1
1
1
1
1
1
1
1
1
1
1
1
1
1
1
1
1
1
1
1
1
1
1
1
1
1
1
1
1
1
1
1
1
1
1
1
1
1
1
1
1
1
1
1
1
1
1
1
1
1
1
1
1
1
1
1
1
1
1
1
1
1
1
1
1
1
1
1
1
1
1
1
1
1
1
1
1
1
1
1
1
1
1
1
1
1
1
1
1
1
1
1
1
1
1
1
1
1
1
1
1
1
1
1
1
1
1
1
1
1
1
1
1
1
1
1
1
1
1
1
1
1
1
1
1
1
1
1
1
1
1
1
1
1
1
1
1
1
1
1
1
1
1
1
1
1
1
1
1
1
1
1
1
1
1
1
1
1
1
1
1
1
1
1
1
1
1
1
1
1
1
1
1
1
1
1
1
1
1
1
1
1
1
1
1
1
1
1
1
1
1
1
1
1
1
1
1
1
1
1
1
1
1
1
1
1
1
1
1
1
1
1
1
1
1
1
1
1
1
1
1
1
1
1
1
1
1
1
1
1
1
1
1
1
1
1
1
1
1
1
1
1
1
1
1
1
1
1
1
1
1
1
1
1
1
1
1
1
1
1
1
1
1
1
1
1
1
1
1
1
1
1
1
1
1
1
1
1
1
1
1
1
1
1
1
1
1
1
1
1
1
1
1
1
1
1
1
1
1
1
1
1
1
1
1
1
1
1
1
1
1
1
1
1
1
1
1
1
1
1
1
1
1
1
1
1
1
1
1
1
1
1
1
1
1
1
1
1
1
1
1
1
1
1
1
1
1
1
1
1
1
1
1
1
1
1
1
1
1
1
1
1
1
1
1
1
1
1
1
1
1
1
1
1
1
1
1
1
1
1
1
1
1
1
1
1
1
1
1
1
1
1
1
1
1
1
1
1
1
1
1
1
1
1
1
1
1
1
1
1
1
1
1
1
1
1
1
1
1
1
1
1
1
1
1
1
1
1
1
1
1
1
1
1
1
1
1
1
1
1
1
1
1
1
1
1
1
1
1
1
1
1
1
1
1
1
1
1
1
1
1
1
1
1
1
1
1
1
1
1
1
1
1
1
1
1
1
1
1
1
1
1
1
1
1
1
1
1
1
1
1
1
1
1
1
1
1
1
1
1
1
1
1
1
1
1
1
1
1
1
1
1
1
1
1
1
1
1
1
1
1
1
1
1
1
1
1
1
1
1
1
1
1
1
1
1
1
1
1
1
1
1
1
1
1
1
1
1
1
1
1
1
1
1
1
1
1
1
1
1
1
1
1
1
1
1
1
1
1
1
1
1
1
1
1
1
1
1
1
1
1
1
1
1
1
1
1
1
1
1
1
1
1
1
1
1
1
1
1
1
1
1
1
1
1
1
1
1
1
1
1
1
1
1
1
1
1
1
1
1
1
1
1
1
1
1
1
1
1
1
1
1
1
1
1
1
1
1
1
1
1
1
1
1
1
1
1
1
1
1
1
1
1
1
1
1
1
1
1
1
1
1
1
1
1
1
1
1
1
1
1
1
1
1
1
1
1
1
1
1
1
1
1
1
1
1
1
1
1
1
1
1
1
1
1
1
1
1
1
1
1
1
1
1
1
1
1
1
1
1
1
1
1
1
1
1
1
1
1
1
1
1
1
1
1
1
1
1
1
1
1
1
1
1
1
1
1
1
1
1
1
1
1
1
1
1
1
1
1
1
1
1
1
1
1
1
1
1
1
1
1
1
1
1
1
1
1
1
1
1
1
1
1
1
1
1
1
1
1
1
1
1
1
1
1
1
1
1
1
1
1
1
1
1
1
1
1
1
1
1
1
1
1
1
1
1
1
1
1
1
1
1
1
1
1
1
1
1
1
1
1
1
1
1
1
1
1
1
1
1
1
1
1
1
1
1
1
1
1
1
1
1
1
1
1
1
1
1
1
1
1
1
1
1
1
1
1
1
1
1
1
1
1
1
1
1
1
1
1
1
1
1
1
1
1
1
1
1
1
1
1
1
1
1
1
1
1
1
1
1
1
1
1
1
1
1
1
1
1
1
1
1
1
1
1
1
1
1
1
1
1
1
1
1
1
1
1
1
1
1
1
1
1
1
1
1
1
1
1
1
1
1
1
1
1
1
1
1
1
1
1
1
1
1
1
1
1
1
1
1
1
1
1
1
1
1
1
1
1
1
1
1
1
1
1
1
1
1
1
1
1
1
1
1
1
1
1
1
1
1
1
1
1
1
1
1
1
1
1
1
1
1
1
1
1
1
1
1
1
1
1
1
1
1
1
1
1
1
1
1
1
1
1
1
1
1
1
1
1
1
1
1
1
1
1
1
1
1
1
1
1
1
1
1
1
1
1
1
1
1
1
1
1.59047
0.462578
0.181301
0.140178
0.150265
0.205321
0.354868
0.518565
0.699706
0.838443
0.937015
1.02075
1.06539
1.11059
1.17017
1.2396
1.29242
1.29494
1.2625
1.2697
1.29093
1.30927
1.3182
1.31755
1.30721
1.29303
1.29923
1.33298
1.36038
1.84974
4.68963
5.5551
5.72813
5.90886
6.039
6.11623
6.18126
6.24515
6.28254
6.2948
6.31863
6.36047
6.38896
6.3877
6.37798
6.3791
6.39068
6.39726
2.72768
1.4189
0.963699
0.713726
0.52532
0.469429
0.49648
0.532309
0.541291
0.573497
0.615473
0.693993
0.79699
0.902185
0.997645
1.07778
1.13875
1.19164
1.2299
1.24615
1.25818
1.27611
1.28886
1.30314
1.31717
1.30949
1.31582
1.32589
1.33271
1.65244
4.41928
5.57761
5.76357
5.9188
6.03409
6.11748
6.18668
6.24851
6.28743
6.30512
6.33008
6.36903
6.39483
6.39269
6.38256
6.38118
6.3918
6.39887
3.63685
2.30729
1.62812
1.29991
1.04546
0.817983
0.670057
0.634035
0.609249
0.592708
0.600461
0.649914
0.725457
0.78109
0.847485
0.920857
0.984497
1.0746
1.19122
1.24316
1.26577
1.27284
1.27377
1.28714
1.3165
1.34866
1.36034
1.36379
1.33869
1.39299
3.81724
5.57409
5.82437
5.95095
6.02234
6.10368
6.1862
6.24448
6.27054
6.28801
6.32167
6.36408
6.38903
6.38743
6.378
6.37427
6.38164
6.38831
4.26944
3.14771
2.35367
1.82632
1.54137
1.333
1.07885
0.889092
0.842659
0.812214
0.770895
0.72851
0.712874
0.709255
0.729305
0.76624
0.819589
0.91286
1.04998
1.12868
1.1607
1.18576
1.20603
1.23394
1.28224
1.34796
1.37717
1.37773
1.35389
1.3359
3.00668
5.43867
5.89154
6.00793
6.04401
6.0857
6.16549
6.24124
6.27357
6.28737
6.32017
6.36341
6.38848
6.38751
6.37826
6.3733
6.3784
6.38565
4.67972
3.72332
3.01475
2.42242
1.96388
1.74087
1.54258
1.29544
1.04974
0.978435
0.939234
0.886773
0.84048
0.795132
0.754858
0.744045
0.745884
0.771477
0.837786
0.926656
0.992915
1.05373
1.12034
1.16461
1.21626
1.28401
1.32273
1.32973
1.33626
1.33234
2.08621
5.20759
6.0346
6.02232
6.05411
6.08847
6.13963
6.20271
6.24243
6.26271
6.28771
6.32306
6.35148
6.36276
6.36113
6.35584
6.35344
6.35319
5.00774
4.15685
3.50194
2.96339
2.44004
2.06797
1.86861
1.66992
1.45443
1.2316
1.10525
1.06567
1.03561
0.98979
0.920551
0.845415
0.793026
0.784096
0.791467
0.801671
0.825073
0.866031
0.938115
1.02561
1.09391
1.16115
1.21707
1.25816
1.29547
1.3121
1.47151
4.65896
6.12623
6.04107
6.01997
6.04323
6.09646
6.15695
6.19491
6.22246
6.25884
6.30218
6.33073
6.33993
6.33888
6.33641
6.33775
6.31573
5.22551
4.48178
3.8649
3.3513
2.86628
2.47778
2.15341
1.90414
1.74925
1.589
1.4059
1.22787
1.15975
1.12823
1.0775
1.01045
0.945445
0.875956
0.817708
0.808837
0.811985
0.834312
0.86435
0.897053
0.932373
0.976771
1.03575
1.09835
1.16342
1.25309
1.31081
3.93745
6.07129
5.95269
5.97167
6.02294
6.07535
6.08611
6.10581
6.14381
6.19076
6.23075
6.26
6.26518
6.25458
6.24186
6.1893
6.173
5.39274
4.73503
4.16789
3.6598
3.18279
2.82871
2.51522
2.18475
1.93761
1.82246
1.68396
1.52684
1.38455
1.2579
1.19913
1.16544
1.12414
1.0601
0.962046
0.879834
0.853798
0.85209
0.861921
0.873711
0.875822
0.877357
0.887894
0.924548
0.978806
1.06576
1.13729
3.11466
5.91305
5.85456
5.83933
5.89063
5.94732
5.98975
6.00794
6.03786
6.0915
6.1493
6.17912
6.17507
6.15157
6.12907
6.05362
6.13572
5.50853
4.91874
4.40492
3.92942
3.45513
3.09098
2.80332
2.50261
2.23441
2.03194
1.85743
1.74069
1.6368
1.51565
1.36725
1.25395
1.21922
1.18217
1.11826
1.05022
0.990859
0.92901
0.881782
0.875104
0.881166
0.888498
0.891349
0.885199
0.880997
0.903364
0.933648
2.21611
5.50367
5.7778
5.76719
5.81812
5.84925
5.86747
5.89833
5.94242
5.9816
6.01538
6.03256
6.03328
5.99887
5.87993
5.51707
4.5122
5.59689
5.06776
4.58642
4.14357
3.71632
3.35925
3.04032
2.73216
2.49933
2.30174
2.10174
1.8905
1.7871
1.70026
1.58032
1.46065
1.34951
1.26007
1.21944
1.18726
1.14692
1.08969
1.00636
0.932187
0.910608
0.910369
0.909162
0.901964
0.895123
0.878204
0.868361
1.35529
4.79631
5.69675
5.68923
5.73059
5.74418
5.77224
5.81551
5.84816
5.88178
5.90888
5.90269
5.86355
5.77101
5.5873
5.08021
4.1312
5.66514
5.18695
4.74026
4.32285
3.92652
3.58137
3.26564
2.95922
2.70454
2.51164
2.3122
2.10668
1.95782
1.81899
1.70953
1.63249
1.54248
1.43222
1.31132
1.25747
1.24057
1.20903
1.15511
1.09048
1.0231
0.957218
0.924282
0.92421
0.922495
0.91126
0.892372
0.913788
3.66058
5.47305
5.54701
5.61953
5.64452
5.67818
5.72029
5.76216
5.78838
5.78646
5.76074
5.6865
5.56185
5.27845
4.79393
3.94321
5.72292
5.29409
4.88143
4.4779
4.11087
3.78371
3.46706
3.16568
2.91874
2.69818
2.48124
2.29885
2.15214
2.00359
1.83889
1.73164
1.6727
1.59165
1.49218
1.40845
1.32687
1.26695
1.24249
1.21435
1.16705
1.09359
1.00517
0.964153
0.954558
0.947842
0.934712
0.924095
2.36748
5.16534
5.50482
5.55439
5.58774
5.62492
5.66257
5.68649
5.68971
5.67789
5.63029
5.5223
5.33203
5.05066
4.60041
3.91325
5.78011
5.38881
5.00096
4.61619
4.27649
3.95712
3.63603
3.35094
3.11364
2.88186
2.65023
2.4627
2.31269
2.17245
2.02403
1.89155
1.78014
1.68229
1.61906
1.56221
1.48664
1.38967
1.30092
1.27247
1.25239
1.20735
1.14228
1.08116
1.02884
0.984145
0.972568
0.960933
1.29782
4.43953
5.44329
5.47676
5.52384
5.58523
5.61747
5.62157
5.61276
5.57553
5.50577
5.37612
5.17817
4.89175
4.47508
3.92556
5.83991
5.47666
5.10362
4.74954
4.42486
4.10521
3.79022
3.5286
3.28043
3.04126
2.81738
2.64529
2.47472
2.30552
2.16254
2.05449
1.94086
1.82585
1.71163
1.65386
1.60103
1.52414
1.43619
1.36321
1.30719
1.26653
1.23384
1.19762
1.15592
1.09745
1.03153
0.999181
1.02233
2.98156
5.23275
5.42871
5.46856
5.52002
5.56987
5.56751
5.52715
5.47894
5.3915
5.2489
5.05685
4.78917
4.41611
3.96728
5.90772
5.55922
5.19926
4.86758
4.55241
4.23287
3.9378
3.6847
3.43993
3.19115
2.98016
2.80454
2.63183
2.45988
2.30595
2.18509
2.07361
1.96811
1.85509
1.76648
1.6799
1.60394
1.54869
1.49197
1.4232
1.3386
1.28332
1.26703
1.24643
1.20458
1.14971
1.08839
1.03995
1.56902
4.64746
5.40967
5.47402
5.50145
5.51364
5.49984
5.45062
5.36695
5.27666
5.1408
4.95868
4.71855
4.38944
4.01308
5.94131
5.60446
5.28011
4.96695
4.65345
4.34386
4.07994
3.82693
3.57879
3.33215
3.14264
2.95432
2.77518
2.59282
2.45782
2.32836
2.20168
2.07592
1.97903
1.89158
1.7988
1.69856
1.62248
1.57983
1.52805
1.45943
1.38247
1.33791
1.30524
1.26603
1.23323
1.19926
1.12318
1.14522
3.22991
5.20533
5.43357
5.45131
5.45191
5.42436
5.37797
5.29905
5.19598
5.05804
4.89171
4.68047
4.38633
4.05739
5.99378
5.66609
5.3586
5.05916
4.75337
4.4672
4.21119
3.96248
3.70715
3.48415
3.29087
3.09935
2.90983
2.7336
2.59922
2.45983
2.33234
2.19779
2.0968
1.9971
1.90717
1.81678
1.73543
1.6648
1.59443
1.54286
1.49424
1.44438
1.3929
1.33132
1.27673
1.26111
1.22721
1.17107
1.69974
4.63759
5.38472
5.40205
5.42364
5.39494
5.3513
5.25828
5.13081
5.00137
4.83634
4.64416
4.38956
4.09617
6.01151
5.71486
5.42081
5.12567
4.83939
4.58409
4.32837
4.07633
3.82667
3.6256
3.4219
3.23039
3.02755
2.87455
2.72721
2.58511
2.44294
2.31806
2.2166
2.10752
2.00819
1.91111
1.84412
1.77084
1.69537
1.61538
1.56846
1.52899
1.47903
1.42273
1.3589
1.31968
1.28932
1.2307
1.26165
3.22234
5.17555
5.34701
5.35888
5.33447
5.27569
5.18523
5.07791
4.94587
4.79803
4.61151
4.36818
4.1062
6.07016
5.78878
5.50643
5.21815
4.94982
4.69331
4.4406
4.18295
3.96184
3.7537
3.5489
3.34482
3.15787
3.00904
2.85027
2.70785
2.55373
2.44238
2.32868
2.22126
2.11665
2.02006
1.94354
1.86179
1.79305
1.71858
1.65977
1.60089
1.54279
1.49197
1.44778
1.40432
1.35945
1.29992
1.26058
1.74965
4.47079
5.31536
5.31777
5.31137
5.25677
5.17754
5.06417
4.9354
4.782
4.58887
4.35419
4.10544
6.14789
5.86543
5.57956
5.30115
5.04398
4.78875
4.53117
4.28568
4.07732
3.86281
3.66188
3.45079
3.29105
3.12667
2.97099
2.81246
2.67241
2.56107
2.4366
2.32973
2.21342
2.13047
2.0446
1.9591
1.87738
1.80659
1.75205
1.68402
1.62272
1.55795
1.51559
1.47537
1.43266
1.38232
1.31242
1.3433
2.9555
5.09939
5.29508
5.27311
5.22094
5.1398
5.02617
4.89508
4.74043
4.55418
4.33845
4.11665
6.20136
5.91598
5.63496
5.37666
5.12344
4.8697
4.61365
4.39913
4.18529
3.97495
3.75675
3.57306
3.41436
3.24208
3.08522
2.91516
2.79734
2.67024
2.54946
2.42993
2.31987
2.23705
2.13978
2.0582
1.96896
1.90173
1.83411
1.76268
1.7026
1.64177
1.59499
1.54198
1.4919
1.44951
1.40193
1.35918
1.71203
4.19179
5.21774
5.25103
5.2061
5.11926
5.00164
4.87263
4.72515
4.54995
4.35259
4.14598
6.23505
6.00353
5.70708
5.46006
5.21654
4.95942
4.71774
4.50546
4.29053
4.07954
3.86274
3.69807
3.52044
3.35562
3.18019
3.03356
2.91356
2.77661
2.65816
2.52328
2.43202
2.33628
2.23828
2.1475
2.05822
1.99508
1.91638
1.8465
1.77449
1.72231
1.67167
1.61519
1.55808
1.50839
1.47966
1.41693
1.4313
2.6066
4.85193
5.26002
5.18915
5.0988
4.98733
4.86463
4.72272
4.55464
4.36428
4.16477
5.86988
6.0627
5.81645
5.54614
5.29599
5.04164
4.82033
4.60232
4.39049
4.16303
3.97676
3.80684
3.6274
3.45849
3.27696
3.15475
3.01635
2.88585
2.75181
2.62811
2.53958
2.43064
2.33683
2.23002
2.15354
2.08197
1.99994
1.92909
1.85405
1.80568
1.74438
1.68691
1.62632
1.58238
1.55402
1.49895
1.44402
1.64514
3.78979
5.18968
5.15744
5.05991
4.96035
4.85033
4.71641
4.55692
4.37653
4.18831
4.334
5.88382
5.89877
5.65355
5.37108
5.1304
4.91557
4.69869
4.47738
4.2615
4.09322
3.90789
3.73755
3.5463
3.39563
3.26655
3.11889
2.99077
2.83975
2.74024
2.63716
2.52789
2.42635
2.31617
2.24896
2.16586
2.0874
2.00403
1.93758
1.88718
1.82033
1.7602
1.69266
1.65729
1.62311
1.5744
1.49179
1.49773
2.28845
4.58791
5.12411
5.0421
4.96782
4.86337
4.72961
4.57257
4.39963
4.22139
1.97014
4.7745
5.81244
5.74001
5.47355
5.22554
5.0099
4.79643
4.56448
4.3766
4.19559
4.01359
3.83534
3.6466
3.51565
3.36367
3.22468
3.07784
2.94118
2.84718
2.72833
2.6261
2.50615
2.41191
2.34059
2.25123
2.17279
2.07824
2.02233
1.96544
1.89897
1.83155
1.76696
1.73371
1.68865
1.63976
1.56693
1.52238
1.61742
3.27145
4.92483
5.06741
4.97605
4.86653
4.73285
4.5846
4.42537
4.26115
1.0771
2.44044
5.04535
5.71951
5.58929
5.33643
5.10853
4.87961
4.66461
4.48771
4.29599
4.1184
3.91677
3.76498
3.62043
3.46239
3.32647
3.16065
3.05426
2.94187
2.82202
2.71818
2.59017
2.51272
2.42785
2.33968
2.25274
2.15662
2.10708
2.04396
1.97803
1.9017
1.84412
1.8094
1.75773
1.69927
1.63477
1.57954
1.57621
2.0179
4.11795
5.05196
4.97068
4.84995
4.72498
4.59384
4.45245
4.30315
1.00137
1.1664
2.89575
5.19433
5.61196
5.4578
5.21627
4.95741
4.76728
4.58549
4.40168
4.20453
4.0187
3.87839
3.71203
3.56949
3.40798
3.26743
3.16287
3.03
2.92263
2.7971
2.68807
2.61006
2.51118
2.42972
2.32723
2.24028
2.19189
2.12343
2.05578
1.97121
1.91865
1.88073
1.82634
1.76185
1.6934
1.65754
1.60781
1.63854
2.7002
4.59649
4.96082
4.86701
4.76001
4.64116
4.50457
4.355
1.00001
1.00424
1.29491
3.30198
5.23811
5.49292
5.34285
5.06185
4.86136
4.67913
4.49601
4.28761
4.13447
3.97562
3.8147
3.66369
3.49358
3.38453
3.25435
3.12815
3.01586
2.87871
2.79484
2.69523
2.59685
2.51915
2.40407
2.33077
2.27389
2.20315
2.13332
2.04136
1.99431
1.95269
1.89371
1.82477
1.75688
1.7327
1.68499
1.63491
1.8243
3.49262
4.80189
4.90887
4.80853
4.68433
4.54246
4.38884
1
1.00003
1.0106
1.45281
3.63853
5.19739
5.3816
5.19576
4.96836
4.7752
4.57243
4.39157
4.24384
4.07406
3.92175
3.73903
3.6064
3.48623
3.34398
3.23348
3.09187
2.98514
2.88943
2.77612
2.69144
2.60134
2.4965
2.41329
2.34582
2.29001
2.21378
2.11071
2.06651
2.02114
1.96319
1.89001
1.82283
1.80093
1.7627
1.67347
1.67556
2.23141
4.10391
4.87596
4.83646
4.69822
4.55234
4.40692
1
1
1.00009
1.02164
1.63513
3.8472
5.15783
5.2761
5.11851
4.89537
4.65006
4.4977
4.3396
4.1799
4.00672
3.83667
3.71879
3.57292
3.44841
3.31538
3.185
3.09026
2.97234
2.87308
2.77224
2.68141
2.59064
2.49642
2.42324
2.36718
2.28499
2.18778
2.13858
2.09114
2.03346
1.95463
1.89081
1.86555
1.83054
1.7512
1.68822
1.7516
2.79352
4.4546
4.83366
4.72898
4.58233
4.44617
1
1
1
1.00025
1.03962
1.79737
4.00572
5.10975
5.179
5.01723
4.76129
4.59563
4.43065
4.27269
4.08563
3.95426
3.81483
3.67108
3.54346
3.39145
3.29323
3.17763
3.06499
2.96149
2.85488
2.76938
2.67284
2.57838
2.5085
2.44763
2.35988
2.25982
2.20876
2.16488
2.10933
2.02435
1.9607
1.92976
1.88918
1.82848
1.74041
1.74475
1.94986
3.40201
4.57742
4.74167
4.63794
4.50419
1
1
1
1
1.00058
1.05988
1.94934
4.10535
5.03131
5.08499
4.90505
4.70806
4.53277
4.34177
4.18764
4.05961
3.90561
3.77613
3.61466
3.49781
3.39031
3.26384
3.16181
3.0373
2.94863
2.85322
2.76002
2.66407
2.58931
2.52132
2.43632
2.34431
2.28328
2.2352
2.1741
2.09057
2.03102
1.99577
1.95253
1.89294
1.81586
1.77076
1.78567
2.25946
3.8626
4.65804
4.6883
4.56574
1
1
1
1
1
1.00103
1.08463
2.08477
4.14488
4.97253
4.9935
4.8403
4.63681
4.41842
4.29336
4.14912
4.0086
3.85453
3.70841
3.60617
3.47408
3.36437
3.23807
3.12932
3.04063
2.93808
2.84285
2.74462
2.67664
2.59682
2.50912
2.41784
2.36409
2.31017
2.24234
2.15686
2.09871
2.06265
2.01545
1.95564
1.88455
1.84221
1.80241
1.84712
2.65462
4.16702
4.69526
4.62702
1
1
1
1
1
1
1.00174
1.11138
2.15909
4.17727
4.87413
4.90671
4.75599
4.53405
4.38852
4.24341
4.10215
3.93483
3.82191
3.69481
3.56863
3.45364
3.31591
3.23111
3.12523
3.02785
2.91832
2.83143
2.7582
2.67338
2.58508
2.49698
2.44379
2.38044
2.30965
2.22465
2.17291
2.13266
2.07903
2.01229
1.94657
1.9168
1.86421
1.83176
1.97539
3.06837
4.3481
4.64039
1
1
1
1
1
1
1.00001
1.00262
1.12789
2.22625
4.1484
4.78331
4.82395
4.68086
4.50552
4.34844
4.17074
4.03639
3.92016
3.78303
3.66986
3.51997
3.42033
3.32259
3.20993
3.11323
2.99508
2.92279
2.83838
2.75366
2.65553
2.57827
2.52299
2.45203
2.37812
2.29188
2.24629
2.20062
2.14396
2.07502
2.01227
1.98639
1.94036
1.85765
1.86021
2.16271
3.47087
4.42528
1
1
1
1
1
1
1
1.00001
1.00327
1.14345
2.27043
4.06481
4.70856
4.76481
4.65212
4.46464
4.25742
4.13465
4.00393
3.88415
3.74157
3.61247
3.52275
3.40027
3.30209
3.18474
3.08523
3.01218
2.91763
2.83188
2.72626
2.66332
2.59917
2.52468
2.44453
2.36285
2.32237
2.26921
2.20961
2.13619
2.08142
2.05227
2.00885
1.92643
1.8701
1.90143
2.41313
3.78188
1
1
1
1
1
1
1
1
1.00002
1.00398
1.15499
2.26431
3.95545
4.68219
4.72219
4.59666
4.38057
4.22559
4.09366
3.9619
3.81142
3.72159
3.60619
3.48906
3.38792
3.25615
3.18516
3.0936
2.99868
2.90301
2.80289
2.74793
2.67352
2.59942
2.50929
2.43957
2.39744
2.3369
2.2747
2.19701
2.1527
2.11534
2.06672
2.00363
1.92433
1.9125
1.97533
2.68762
1
1
1
1
1
1
1
1
1
1.00003
1.00442
1.15833
2.19628
3.89975
4.65023
4.65052
4.50325
4.33605
4.19078
4.01351
3.9103
3.81498
3.68441
3.58625
3.45253
3.3542
3.27951
3.1697
3.08107
2.96807
2.8891
2.82974
2.74808
2.67295
2.5757
2.52106
2.47169
2.40677
2.33831
2.26037
2.22364
2.17848
2.12688
2.06473
2.00444
1.95537
1.95326
2.08044
1
1
1
1
1
1
1
1
1
1
1.00003
1.00441
1.15112
2.11221
3.91557
4.55393
4.54518
4.44441
4.29185
4.09729
4.00756
3.89018
3.77832
3.66624
3.52636
3.45882
3.35833
3.25181
3.15622
3.03789
2.98049
2.90617
2.82285
2.74126
2.64764
2.6017
2.54234
2.47649
2.39883
2.32871
2.294
2.24214
2.18815
2.11832
2.0719
2.03396
1.97168
1.97158
1
1
1
1
1
1
1
1
1
1
1
1.00003
1.00435
1.13633
2.09097
3.87999
4.37052
4.4661
4.38712
4.21378
4.09112
3.96802
3.87085
3.7284
3.63118
3.55494
3.43379
3.33623
3.21402
3.12704
3.07067
2.9797
2.9028
2.80665
2.72802
2.68089
2.61097
2.54449
2.45926
2.40204
2.36372
2.30729
2.2489
2.17349
2.13661
2.10605
2.04051
1.97348
1
1
1
1
1
1
1
1
1
1
1
1
1.00003
1.00417
1.12534
2.13087
3.60423
4.29433
4.46825
4.3565
4.19882
4.08061
3.95544
3.80068
3.7385
3.63959
3.51984
3.40764
3.27763
3.22045
3.14544
3.05514
2.98103
2.87392
2.81734
2.75784
2.68105
2.61076
2.52079
2.47619
2.43112
2.37142
2.30799
2.2335
2.20248
2.16854
2.11359
2.01882
1
1
1
1
1
1
1
1
1
1
1
1
1
1.00003
1.0037
1.12973
2.00876
3.31912
4.30007
4.43138
4.36742
4.24197
4.03457
3.88912
3.82948
3.71468
3.60031
3.46347
3.36636
3.31019
3.21918
3.1415
3.04206
2.9518
2.90282
2.82364
2.7509
2.67558
2.59052
2.5518
2.49708
2.43533
2.36487
2.29701
2.26718
2.22581
2.17453
2.09569
1
1
1
1
1
1
1
1
1
1
1
1
1
1
1.00003
1.00352
1.10864
1.73411
3.1963
4.29526
4.3678
4.30022
4.13402
4.00402
3.91068
3.78683
3.66318
3.52026
3.45464
3.39069
3.30795
3.2241
3.10615
3.04641
2.97686
2.88625
2.82189
2.73044
2.6658
2.62684
2.56159
2.5003
2.42518
2.36644
2.33284
2.28314
2.2309
2.16184
1
1
1
1
1
1
1
1
1
1
1
1
1
1
1
1.00002
1.00246
1.06413
1.602
3.25297
4.11051
4.2431
4.20942
4.12077
3.98362
3.85536
3.72504
3.59174
3.5334
3.46978
3.39899
3.28615
3.19732
3.13347
3.03917
2.96353
2.8931
2.78763
2.74685
2.69584
2.62273
2.56312
2.48443
2.43769
2.39839
2.34273
2.28692
2.21936
1
1
1
1
1
1
1
1
1
1
1
1
1
1
1
1
1.00001
1.00131
1.04924
1.61833
3.13911
3.90197
4.16617
4.19841
4.07864
3.94345
3.81419
3.68072
3.60803
3.55598
3.47301
3.36014
3.28441
3.1955
3.1058
3.05087
2.94772
2.8681
2.83176
2.75751
2.68762
2.62555
2.54601
2.5082
2.45955
2.40183
2.34018
2.27847
1
1
1
1
1
1
1
1
1
1
1
1
1
1
1
1
1
1.00001
1.00111
1.0498
1.5991
2.82576
3.75097
4.15659
4.19177
4.08491
3.92801
3.77382
3.68044
3.62991
3.54977
3.45607
3.35783
3.25439
3.19004
3.11199
2.99773
2.96085
2.9036
2.81567
2.76027
2.68356
2.61579
2.57851
2.51767
2.46068
2.39257
2.34162
1
1
1
1
1
1
1
1
1
1
1
1
1
1
1
1
1
1
1.00001
1.0011
1.04338
1.43344
2.42393
3.67173
4.16706
4.14366
4.02194
3.88075
3.76786
3.70264
3.63161
3.53031
3.41891
3.34092
3.27466
3.14975
3.08709
3.04773
2.95636
2.88189
2.83
2.73784
2.69342
2.64527
2.57707
2.52013
2.44719
2.41013
1
1
1
1
1
1
1
1
1
1
1
1
1
1
1
1
1
1
1
1.00001
1.0007
1.02275
1.25939
2.18247
3.67165
4.05234
4.03767
3.99068
3.91131
3.81501
3.70831
3.58047
3.4778
3.41796
3.3165
3.22139
3.1916
3.11289
3.01173
2.96151
2.88137
2.80123
2.76936
2.70411
2.63835
2.57604
2.50832
2.48158
1
1
1
1
1
1
1
1
1
1
1
1
1
1
1
1
1
1
1
1
1
1.00025
1.01112
1.18282
2.11034
3.51872
3.88466
3.98084
3.99302
3.9133
3.76897
3.62854
3.55761
3.48094
3.3669
3.32853
3.27423
3.15553
3.08263
3.0281
2.92382
2.88366
2.84389
2.76457
2.70396
2.62733
2.57425
2.54982
1
1
1
1
1
1
1
1
1
1
1
1
1
1
1
1
1
1
1
1
1
1
1.00012
1.00785
1.15177
2.03492
3.25023
3.77203
3.98625
3.9652
3.8362
3.72973
3.6536
3.52569
3.45152
3.43021
3.32485
3.20761
3.15871
3.07595
2.98901
2.9681
2.90962
2.82939
2.76816
2.68205
2.64415
2.61512
1
1
1
1
1
1
1
1
1
1
1
1
1
1
1
1
1
1
1
1
1
1
1
1.00009
1.006
1.13206
1.87432
2.87371
3.66972
3.97005
3.97145
3.88412
3.71926
3.57704
3.55719
3.51367
3.36474
3.28591
3.22915
3.12485
3.07398
3.04786
2.97089
2.89885
2.82941
2.7414
2.71111
2.67665
1
1
1
1
1
1
1
1
1
1
1
1
1
1
1
1
1
1
1
1
1
1
1
1
1.00006
1.00445
1.09235
1.54708
2.45654
3.68149
3.9424
3.875
3.7487
3.687
3.68623
3.57171
3.4169
3.35843
3.29158
3.19358
3.16144
3.12177
3.03603
2.96556
2.88665
2.80447
2.77453
2.73339
1
1
1
1
1
1
1
1
1
1
1
1
1
1
1
1
1
1
1
1
1
1
1
1
1
1.00003
1.00198
1.03819
1.30173
2.34367
3.62985
3.72527
3.75876
3.78567
3.76204
3.60342
3.4851
3.43075
3.35552
3.27348
3.24724
3.19215
3.09571
3.02573
2.94432
2.86823
2.83429
2.7864
1
1
1
1
1
1
1
1
1
1
1
1
1
1
1
1
1
1
1
1
1
1
1
1
1
1
1.00001
1.00056
1.0175
1.23932
2.29163
3.26966
3.61488
3.81079
3.78786
3.65889
3.58892
3.52559
3.42804
3.35586
3.33385
3.25531
3.15001
3.08748
3.00807
2.93034
2.89302
2.84022
1
1
1
1
1
1
1
1
1
1
1
1
1
1
1
1
1
1
1
1
1
1
1
1
1
1
1
1
1.00028
1.01281
1.21698
2.10755
2.96526
3.56961
3.79469
3.80677
3.73071
3.59198
3.4727
3.439
3.42579
3.31581
3.21243
3.15208
3.07311
2.98741
2.94634
2.89815
1
1
1
1
1
1
1
1
1
1
1
1
1
1
1
1
1
1
1
1
1
1
1
1
1
1
1
1
1
1.00021
1.01084
1.17439
1.73676
2.5641
3.56816
3.79548
3.72643
3.60942
3.55354
3.55207
3.49543
3.35441
3.27084
3.21117
3.12935
3.0459
3.01321
2.96827
1
1
1
1
1
1
1
1
1
1
1
1
1
1
1
1
1
1
1
1
1
1
1
1
1
1
1
1
1
1
1.00014
1.00602
1.07112
1.38388
2.39612
3.5309
3.57687
3.6043
3.64541
3.64522
3.52976
3.39361
3.32058
3.2616
3.17715
3.12058
3.09909
3.03512
1
1
1
1
1
1
1
1
1
1
1
1
1
1
1
1
1
1
1
1
1
1
1
1
1
1
1
1
1
1
1
1.00004
1.0013
1.02612
1.2771
2.28099
3.15057
3.46941
3.66976
3.66987
3.5707
3.47783
3.40683
3.31321
3.22651
3.1959
3.18014
3.1019
1
1
1
1
1
1
1
1
1
1
1
1
1
1
1
1
1
1
1
1
1
1
1
1
1
1
1
1
1
1
1
1
1.00001
1.00049
1.01584
1.23058
2.03961
2.89397
3.44114
3.62112
3.65336
3.61912
3.52398
3.37776
3.2866
3.26137
3.23683
3.15563
1
1
1
1
1
1
1
1
1
1
1
1
1
1
1
1
1
1
1
1
1
1
1
1
1
1
1
1
1
1
1
1
1
1
1.00027
1.01264
1.16961
1.6983
2.55652
3.29559
3.59729
3.61286
3.56328
3.47261
3.38326
3.34098
3.29613
3.22154
1
1
1
1
1
1
1
1
1
1
1
1
1
1
1
1
1
1
1
1
1
1
1
1
1
1
1
1