/*--------------------------------*- C++ -*----------------------------------*\
  =========                 |
  \\      /  F ield         | OpenFOAM: The Open Source CFD Toolbox
   \\    /   O peration     | Website:  https://openfoam.org
    \\  /    A nd           | Version:  7
     \\/     M anipulation  |
\*---------------------------------------------------------------------------*/
FoamFile
{
    version     2.0;
    format      ascii;
    class       volVectorField;
    location    "3.8";
    object      U;
}
// * * * * * * * * * * * * * * * * * * * * * * * * * * * * * * * * * * * * * //

dimensions      [0 1 -1 0 0 0 0];

internalField   nonuniform List<vector> 
16512
(
(3 -1.36575e-17 0)
(3 1.39873e-16 0)
(3 4.04689e-16 0)
(3 3.59695e-16 0)
(3 2.07072e-16 0)
(3 -3.17532e-16 0)
(3 -6.48795e-16 0)
(3 -8.46697e-16 0)
(3 -8.97908e-16 0)
(3 -1.16356e-15 0)
(3 -6.6458e-16 0)
(3 -2.61128e-17 0)
(3 -1.34876e-16 0)
(3 9.06926e-16 0)
(3 1.14935e-15 0)
(3 1.03781e-16 0)
(3 -3.73281e-16 0)
(3 -1.18327e-15 0)
(3 -9.64694e-16 0)
(3 -5.63422e-16 0)
(3 -1.6604e-16 0)
(3 2.13501e-16 0)
(3 7.88594e-16 0)
(3 8.979e-16 0)
(3 7.70994e-16 0)
(3 1.52484e-16 0)
(3 -2.00113e-17 0)
(3 -5.68166e-17 0)
(3 -2.48527e-16 0)
(3 -9.68726e-16 0)
(3 -5.71674e-16 0)
(3 2.19173e-17 0)
(3 -8.92394e-17 0)
(3 -5.63024e-18 0)
(3 -1.48847e-16 0)
(2.90119 0.00319616 0)
(0.988673 0.0160892 0)
(0.709436 0.0193027 0)
(0.657702 0.0240935 0)
(0.597926 0.0255541 0)
(0.539066 0.0267646 0)
(0.478402 0.0280994 0)
(0.415949 0.0296015 0)
(0.351046 0.0313936 0)
(0.283188 0.0333913 0)
(0.210789 0.0364425 0)
(0.132105 0.0391008 0)
(0.04948 0.0445757 0)
(3 1.27278e-16 0)
(3 5.05142e-16 0)
(3 9.249e-16 0)
(3 1.18333e-15 0)
(3 9.95485e-16 0)
(3 4.70088e-16 0)
(3 -9.8177e-17 0)
(3 -2.5839e-16 0)
(3 -5.4823e-16 0)
(3 -1.32024e-15 0)
(3 -9.75819e-16 0)
(3 4.45829e-16 0)
(3 6.7722e-16 0)
(3 1.6134e-15 0)
(3 1.60022e-15 0)
(3 8.60527e-16 0)
(3 -5.32136e-16 0)
(3 -1.56833e-15 0)
(3 -1.27556e-15 0)
(3 -1.52274e-15 0)
(3 -1.37145e-15 0)
(3 -6.74476e-16 0)
(3 2.13297e-16 0)
(3 6.92523e-16 0)
(3 9.76237e-16 0)
(3 7.65548e-16 0)
(3 8.03308e-17 0)
(3 -9.37624e-16 0)
(3 -1.86816e-15 0)
(3 -2.06354e-15 0)
(3 -1.03912e-15 0)
(3 -2.88489e-16 0)
(3 -2.22151e-16 0)
(3 -2.86195e-16 0)
(3 -5.0458e-16 0)
(2.91134 0.0202546 0)
(0.994902 0.0743506 0)
(0.695567 0.0666086 0)
(0.64149 0.0707921 0)
(0.582787 0.0753231 0)
(0.524123 0.0797168 0)
(0.463156 0.0843442 0)
(0.400134 0.0890711 0)
(0.334945 0.0945653 0)
(0.267636 0.100524 0)
(0.197582 0.110216 0)
(0.122342 0.118896 0)
(0.046031 0.13466 0)
(3 3.72485e-18 0)
(3 2.24165e-16 0)
(3 -8.45038e-17 0)
(3 -4.14375e-17 0)
(3 3.55892e-16 0)
(3 5.51029e-16 0)
(3 -3.77715e-16 0)
(3 -8.08821e-16 0)
(3 -8.88726e-16 0)
(3 -9.66493e-16 0)
(3 -2.47332e-16 0)
(3 -4.01829e-16 0)
(3 6.23348e-17 0)
(3 1.4985e-16 0)
(3 2.49589e-16 0)
(3 1.37877e-16 0)
(3 -3.80215e-16 0)
(3 -5.95471e-16 0)
(3 -4.98125e-16 0)
(3 -1.37432e-16 0)
(3 -4.90193e-17 0)
(3 -1.07338e-16 0)
(3 -1.52449e-16 0)
(3 -1.16854e-16 0)
(3 -1.37748e-16 0)
(3 3.68326e-16 0)
(3 6.10202e-16 0)
(3 2.89342e-16 0)
(3 -1.96611e-16 0)
(3 8.59113e-17 0)
(3 4.14541e-16 0)
(3 5.62091e-16 0)
(3 9.45807e-16 0)
(3 5.36538e-16 0)
(3 1.28714e-16 0)
(2.95516 0.0395628 0)
(1.03254 0.137634 0)
(0.711004 0.115658 0)
(0.656534 0.122298 0)
(0.595802 0.129772 0)
(0.534969 0.137332 0)
(0.4718 0.14536 0)
(0.406167 0.153279 0)
(0.337876 0.161933 0)
(0.266986 0.170048 0)
(0.194456 0.183557 0)
(0.117734 0.195157 0)
(0.0438445 0.217574 0)
(3 -3.0843e-16 0)
(3 -4.42958e-16 0)
(3 -6.2639e-16 0)
(3 -6.25698e-16 0)
(3 1.12457e-16 0)
(3 4.43822e-16 0)
(3 -3.20236e-16 0)
(3 -1.45104e-15 0)
(3 -1.83632e-15 0)
(3 -1.77044e-15 0)
(3 -8.64764e-16 0)
(3 -1.94067e-16 0)
(3 2.93166e-17 0)
(3 -3.70599e-16 0)
(3 -6.43366e-16 0)
(3 -9.47784e-16 0)
(3 -7.27155e-16 0)
(3 -5.08031e-16 0)
(3 7.62062e-17 0)
(3 1.17221e-15 0)
(3 9.65608e-16 0)
(3 3.0457e-16 0)
(3 -2.77194e-16 0)
(3 -7.69007e-16 0)
(3 -9.79047e-16 0)
(3 -1.27252e-15 0)
(3 -1.60136e-17 0)
(3 7.81987e-16 0)
(3 1.25363e-15 0)
(3 1.40917e-15 0)
(3 5.25101e-16 0)
(3 -6.68097e-16 0)
(3 -2.95975e-16 0)
(3 -4.71279e-16 0)
(3 -5.10805e-16 0)
(3.00822 0.00624057 0)
(1.10799 0.182075 0)
(0.743483 0.152626 0)
(0.691984 0.166616 0)
(0.632598 0.178593 0)
(0.571617 0.190116 0)
(0.507852 0.202862 0)
(0.440265 0.216109 0)
(0.368076 0.231095 0)
(0.290659 0.244287 0)
(0.211018 0.2628 0)
(0.126729 0.27701 0)
(0.0458775 0.302522 0)
(3 -7.6742e-18 0)
(3 1.05601e-17 0)
(3 1.77736e-16 0)
(3 2.77413e-16 0)
(3 9.8146e-16 0)
(3 8.18072e-16 0)
(3 9.5751e-16 0)
(3 4.29898e-16 0)
(3 -6.8317e-16 0)
(3 -1.64766e-15 0)
(3 -1.69846e-15 0)
(3 -1.17962e-15 0)
(3 -6.55233e-16 0)
(3 -5.87736e-16 0)
(3 -7.36968e-16 0)
(3 -6.25743e-16 0)
(3 -5.83308e-16 0)
(3 -4.96567e-16 0)
(3 3.40852e-17 0)
(3 5.52207e-16 0)
(3 5.41008e-16 0)
(3 -2.41694e-16 0)
(3 -6.54952e-16 0)
(3 -1.08972e-15 0)
(3 -1.06248e-15 0)
(3 -1.16659e-15 0)
(3 -5.64116e-16 0)
(3 -3.48439e-18 0)
(3 9.06535e-16 0)
(3 1.51677e-15 0)
(3 4.38065e-16 0)
(3 -4.49541e-16 0)
(3 -5.59334e-16 0)
(3 -5.46844e-16 0)
(3 -7.87892e-16 0)
(3.00058 2.99207e-05 0)
(1.21691 0.224382 0)
(0.750097 0.196986 0)
(0.695527 0.21768 0)
(0.639577 0.234199 0)
(0.581265 0.249207 0)
(0.520978 0.266751 0)
(0.4571 0.285611 0)
(0.389196 0.30726 0)
(0.314529 0.32529 0)
(0.235511 0.348467 0)
(0.145463 0.367712 0)
(0.0549426 0.399392 0)
(3 1.21968e-16 0)
(3 1.7682e-16 0)
(3 5.15949e-16 0)
(3 9.23049e-16 0)
(3 1.09292e-15 0)
(3 1.33351e-15 0)
(3 9.89241e-16 0)
(3 3.68158e-16 0)
(3 -3.17568e-16 0)
(3 -1.27892e-15 0)
(3 -1.40272e-15 0)
(3 -1.48722e-15 0)
(3 -1.19042e-15 0)
(3 -8.87606e-16 0)
(3 -4.11735e-16 0)
(3 -3.48392e-16 0)
(3 -2.18112e-16 0)
(3 -1.22828e-16 0)
(3 1.06881e-17 0)
(3 -1.3228e-16 0)
(3 -8.98329e-17 0)
(3 3.41476e-16 0)
(3 7.60715e-17 0)
(3 -5.84682e-16 0)
(3 -8.90905e-16 0)
(3 -1.04863e-15 0)
(3 -3.9282e-16 0)
(3 -6.70306e-17 0)
(3 5.40053e-16 0)
(3 1.2562e-15 0)
(3 1.80208e-15 0)
(3 2.17523e-15 0)
(3 1.87908e-15 0)
(3 5.8538e-16 0)
(3 3.50191e-16 0)
(3 -1.16141e-07 0)
(1.39692 0.274569 0)
(0.765608 0.245387 0)
(0.69682 0.261866 0)
(0.647852 0.281058 0)
(0.597692 0.298785 0)
(0.547274 0.320282 0)
(0.491918 0.344587 0)
(0.430152 0.375019 0)
(0.354901 0.405287 0)
(0.268105 0.443052 0)
(0.166029 0.478304 0)
(0.0561111 0.517261 0)
(3 7.6046e-17 0)
(3 -2.48059e-17 0)
(3 1.6346e-16 0)
(3 7.04359e-16 0)
(3 2.60961e-16 0)
(3 -2.40708e-16 0)
(3 -6.61676e-16 0)
(3 -9.46952e-16 0)
(3 -1.45077e-15 0)
(3 -1.32615e-15 0)
(3 -1.01968e-15 0)
(3 -7.74223e-16 0)
(3 -3.74824e-16 0)
(3 -5.56021e-16 0)
(3 -3.65898e-16 0)
(3 -4.61329e-16 0)
(3 3.18228e-16 0)
(3 3.2803e-16 0)
(3 -4.44273e-17 0)
(3 -4.10888e-16 0)
(3 -8.52533e-16 0)
(3 -2.89171e-16 0)
(3 6.6153e-17 0)
(3 1.77537e-16 0)
(3 -9.76372e-16 0)
(3 -1.64043e-15 0)
(3 -9.27566e-16 0)
(3 -2.42541e-16 0)
(3 6.35462e-16 0)
(3 5.64379e-16 0)
(3 3.26378e-16 0)
(3 6.29879e-16 0)
(3 4.36295e-16 0)
(3 1.89123e-16 0)
(3 2.31453e-15 0)
(3 -1.14928e-07 0)
(1.67112 0.325785 0)
(0.79608 0.30938 0)
(0.696613 0.308687 0)
(0.645791 0.325203 0)
(0.59776 0.343508 0)
(0.554405 0.369777 0)
(0.508101 0.402272 0)
(0.458814 0.444854 0)
(0.397527 0.491939 0)
(0.326368 0.543649 0)
(0.233261 0.594595 0)
(0.101321 0.660126 0)
(3 1.24971e-16 0)
(3 3.01482e-17 0)
(3 -3.04343e-16 0)
(3 -8.12876e-16 0)
(3 -1.31757e-15 0)
(3 -1.18382e-15 0)
(3 -7.7016e-16 0)
(3 -1.14232e-15 0)
(3 -1.03952e-15 0)
(3 -9.61064e-16 0)
(3 -6.70064e-16 0)
(3 -3.50607e-16 0)
(3 -4.74041e-16 0)
(3 -7.36852e-16 0)
(3 -6.40199e-16 0)
(3 5.69928e-16 0)
(3 8.53499e-16 0)
(3 5.26251e-16 0)
(3 -4.99851e-17 0)
(3 -9.35644e-17 0)
(3 -2.7709e-17 0)
(3 -3.49638e-16 0)
(3 2.90222e-17 0)
(3 1.33716e-16 0)
(3 -4.43624e-16 0)
(3 -8.35335e-16 0)
(3 2.10874e-16 0)
(3 5.93913e-16 0)
(3 7.25426e-16 0)
(3 2.41742e-16 0)
(3 -5.30055e-16 0)
(3 -1.07763e-15 0)
(3 -2.65391e-16 0)
(3 1.04552e-15 0)
(3 3.8504e-15 0)
(3 -2.39626e-08 0)
(2.07437 0.367185 0)
(0.852521 0.394535 0)
(0.716952 0.370141 0)
(0.667169 0.37907 0)
(0.620116 0.3923 0)
(0.579319 0.416632 0)
(0.540292 0.452196 0)
(0.501714 0.501122 0)
(0.457509 0.560487 0)
(0.395466 0.641608 0)
(0.274855 0.757439 0)
(0.151128 0.923432 0)
(3 -4.76512e-17 0)
(3 -2.65161e-16 0)
(3 -6.74859e-16 0)
(3 -1.05861e-15 0)
(3 -1.27636e-15 0)
(3 -8.45837e-16 0)
(3 -4.05774e-16 0)
(3 -2.29521e-16 0)
(3 -5.25493e-16 0)
(3 -8.3103e-16 0)
(3 -1.17438e-15 0)
(3 -1.02476e-15 0)
(3 -6.6378e-16 0)
(3 2.64952e-16 0)
(3 3.65069e-16 0)
(3 3.99956e-16 0)
(3 -1.17325e-16 0)
(3 -5.15863e-16 0)
(3 -7.91435e-16 0)
(3 -7.14247e-16 0)
(3 -2.00708e-16 0)
(3 -4.01136e-16 0)
(3 -9.65753e-18 0)
(3 -2.11298e-16 0)
(3 1.19269e-16 0)
(3 4.23964e-16 0)
(3 1.0883e-15 0)
(3 8.67429e-16 0)
(3 -2.46136e-16 0)
(3 -8.01741e-16 0)
(3 -3.87795e-16 0)
(3 -1.10671e-15 0)
(3 5.28205e-16 0)
(3 1.69364e-15 0)
(3 2.96044e-15 0)
(3 -2.47852e-09 0)
(2.65832 0.302074 0)
(0.985037 0.47787 0)
(0.803568 0.406447 0)
(0.751699 0.414998 0)
(0.693958 0.433418 0)
(0.642419 0.459475 0)
(0.599615 0.49668 0)
(0.563337 0.549974 0)
(0.529647 0.626808 0)
(0.496911 0.751019 0)
(0.464843 0.922943 0)
(0.577295 1.20082 0)
(3 -1.79438e-16 0)
(3 -3.97396e-16 0)
(3 -4.46258e-16 0)
(3 -5.07247e-16 0)
(3 -7.98987e-16 0)
(3 -6.88736e-16 0)
(3 -7.0817e-16 0)
(3 -5.07736e-16 0)
(3 -7.59571e-16 0)
(3 -1.03747e-15 0)
(3 -1.17182e-15 0)
(3 -1.1373e-15 0)
(3 -7.00608e-16 0)
(3 1.79908e-17 0)
(3 -4.33358e-16 0)
(3 -1.17734e-15 0)
(3 -2.00681e-15 0)
(3 -1.85015e-15 0)
(3 -1.87003e-15 0)
(3 -1.77188e-15 0)
(3 -1.00176e-15 0)
(3 -1.18734e-15 0)
(3 -1.21698e-15 0)
(3 -4.71147e-16 0)
(3 6.87838e-16 0)
(3 9.91794e-16 0)
(3 6.37904e-17 0)
(3 -8.41356e-16 0)
(3 -1.9795e-15 0)
(3 -2.31244e-15 0)
(3 -2.82686e-15 0)
(3 -8.30972e-16 0)
(3 1.00607e-16 0)
(3 8.53767e-16 0)
(3 1.28364e-15 0)
(3 -9.96071e-11 0)
(3.07653 0.0423306 0)
(1.21972 0.46949 0)
(0.882185 0.447657 0)
(0.838628 0.474272 0)
(0.785058 0.489953 0)
(0.730651 0.511265 0)
(0.682298 0.544826 0)
(0.643455 0.597032 0)
(0.624152 0.681675 0)
(0.623238 0.816738 0)
(0.686092 0.966018 0)
(0.97102 1.1375 0)
(3 1.48417e-16 0)
(3 3.98743e-16 0)
(3 1.89624e-16 0)
(3 -4.07469e-16 0)
(3 -8.2682e-16 0)
(3 -6.53635e-16 0)
(3 -9.11876e-16 0)
(3 -1.51826e-15 0)
(3 -1.47279e-15 0)
(3 -1.31213e-15 0)
(3 -1.15464e-15 0)
(3 -2.02033e-15 0)
(3 -2.49774e-15 0)
(3 -2.29273e-15 0)
(3 -1.8547e-15 0)
(3 -1.92036e-15 0)
(3 -1.88963e-15 0)
(3 -2.11396e-15 0)
(3 -1.66284e-15 0)
(3 -1.50654e-15 0)
(3 -1.48803e-15 0)
(3 -1.17173e-15 0)
(3 -1.22155e-15 0)
(3 -6.40763e-16 0)
(3 6.71116e-16 0)
(3 1.00295e-15 0)
(3 -2.07679e-16 0)
(3 -1.02818e-15 0)
(3 -1.37425e-15 0)
(3 -8.12733e-16 0)
(3 -7.36162e-16 0)
(3 -2.80144e-16 0)
(3 2.27696e-16 0)
(3 1.45222e-15 0)
(3 1.27536e-15 0)
(3 -2.07946e-12 0)
(3.00854 7.97277e-05 0)
(1.43712 0.462171 0)
(0.884039 0.512325 0)
(0.836469 0.531649 0)
(0.800864 0.551055 0)
(0.772404 0.575578 0)
(0.744805 0.607646 0)
(0.720198 0.651658 0)
(0.723048 0.725514 0)
(0.750867 0.840025 0)
(0.872557 0.96391 0)
(1.1817 1.06771 0)
(3 -7.40711e-18 0)
(3 3.05519e-16 0)
(3 7.6385e-16 0)
(3 7.77385e-16 0)
(3 7.39343e-16 0)
(3 -3.65595e-17 0)
(3 -6.97341e-16 0)
(3 -1.21662e-15 0)
(3 -7.21231e-16 0)
(3 -3.77988e-16 0)
(3 -5.67465e-16 0)
(3 -9.95205e-16 0)
(3 -1.51493e-15 0)
(3 -2.11757e-15 0)
(3 -2.3741e-15 0)
(3 -1.77384e-15 0)
(3 -1.2535e-15 0)
(3 -1.39781e-15 0)
(3 -1.58271e-15 0)
(3 -1.58971e-15 0)
(3 -2.26258e-15 0)
(3 -2.14508e-15 0)
(3 -1.78822e-15 0)
(3 -7.08541e-16 0)
(3 1.93519e-16 0)
(3 8.48199e-16 0)
(3 5.9979e-16 0)
(3 2.26476e-16 0)
(3 -2.04558e-16 0)
(3 3.6774e-16 0)
(3 2.56416e-16 0)
(3 2.14098e-16 0)
(3 2.04775e-16 0)
(3 6.5572e-16 0)
(3 7.25564e-16 0)
(3 -1.88645e-14 0)
(3.00006 -2.46542e-06 0)
(1.94494 0.494153 0)
(0.929186 0.576887 0)
(0.853391 0.560379 0)
(0.834039 0.582111 0)
(0.819644 0.607715 0)
(0.80946 0.642353 0)
(0.801678 0.682806 0)
(0.817306 0.746211 0)
(0.866844 0.837409 0)
(1.01045 0.940359 0)
(1.27521 1.00672 0)
(3 3.91162e-18 0)
(3 -3.32832e-16 0)
(3 -2.74946e-16 0)
(3 2.24736e-16 0)
(3 2.03979e-16 0)
(3 1.21151e-16 0)
(3 -3.05604e-16 0)
(3 -3.89802e-16 0)
(3 -1.96187e-16 0)
(3 1.35687e-16 0)
(3 1.01555e-16 0)
(3 2.8762e-16 0)
(3 1.76908e-16 0)
(3 -1.02229e-15 0)
(3 -1.77928e-15 0)
(3 -1.62071e-15 0)
(3 -9.43076e-16 0)
(3 -1.07207e-15 0)
(3 -1.96972e-15 0)
(3 -1.74054e-15 0)
(3 -1.56135e-15 0)
(3 -1.66514e-15 0)
(3 -1.19051e-15 0)
(3 -5.41622e-16 0)
(3 -3.34463e-16 0)
(3 3.73263e-16 0)
(3 7.04331e-16 0)
(3 6.05943e-16 0)
(3 2.19791e-17 0)
(3 -3.03142e-16 0)
(3 4.86804e-16 0)
(3 1.31798e-15 0)
(3 1.14384e-15 0)
(3 -2.71229e-16 0)
(3 -1.68441e-15 0)
(3 -5.24227e-16 0)
(3.00001 -3.12628e-06 0)
(2.7494 0.318408 0)
(1.0969 0.634996 0)
(0.920789 0.580685 0)
(0.891672 0.601707 0)
(0.874048 0.630716 0)
(0.870179 0.668967 0)
(0.876439 0.711025 0)
(0.901317 0.765653 0)
(0.966346 0.834771 0)
(1.10555 0.906808 0)
(1.31994 0.94693 0)
(3 1.61235e-16 0)
(3 -2.9493e-16 0)
(3 -7.74336e-16 0)
(3 -7.48325e-16 0)
(3 -5.39436e-16 0)
(3 -3.97849e-16 0)
(3 -3.33576e-17 0)
(3 1.73217e-16 0)
(3 4.68461e-16 0)
(3 3.2509e-16 0)
(3 5.58594e-16 0)
(3 5.04305e-16 0)
(3 2.52114e-16 0)
(3 8.07791e-18 0)
(3 -3.54889e-16 0)
(3 -8.30576e-16 0)
(3 -9.48579e-16 0)
(3 -1.06246e-15 0)
(3 -1.20621e-15 0)
(3 -1.42622e-15 0)
(3 -1.10201e-15 0)
(3 -1.26405e-15 0)
(3 -1.46286e-15 0)
(3 -1.51377e-15 0)
(3 -1.07845e-15 0)
(3 -2.97866e-16 0)
(3 5.13597e-16 0)
(3 8.60505e-16 0)
(3 5.58733e-16 0)
(3 1.87603e-16 0)
(3 4.75371e-16 0)
(3 1.19719e-15 0)
(3 7.76228e-16 0)
(3 -9.88107e-18 0)
(3 -1.04975e-15 0)
(3 2.87851e-16 0)
(3 -6.59619e-07 0)
(3.07434 0.0258179 0)
(1.43621 0.631523 0)
(1.00177 0.652677 0)
(0.95043 0.652307 0)
(0.924839 0.666926 0)
(0.923141 0.694425 0)
(0.939409 0.730596 0)
(0.974456 0.773987 0)
(1.04797 0.827895 0)
(1.17457 0.879138 0)
(1.34923 0.905472 0)
(3 -2.39884e-16 0)
(3 -2.09853e-16 0)
(3 -3.17205e-16 0)
(3 -3.45253e-16 0)
(3 -1.97691e-16 0)
(3 -2.23714e-16 0)
(3 -3.10409e-17 0)
(3 3.28462e-16 0)
(3 6.38181e-16 0)
(3 6.21259e-16 0)
(3 3.9021e-16 0)
(3 1.73802e-16 0)
(3 2.99222e-16 0)
(3 6.71368e-16 0)
(3 6.93449e-16 0)
(3 5.54113e-16 0)
(3 -7.6404e-16 0)
(3 -1.46646e-15 0)
(3 -1.11765e-15 0)
(3 -1.43321e-15 0)
(3 -1.88376e-15 0)
(3 -1.60966e-15 0)
(3 -1.21369e-15 0)
(3 -1.23112e-15 0)
(3 -8.75358e-16 0)
(3 -3.39156e-16 0)
(3 2.53479e-16 0)
(3 8.40096e-16 0)
(3 1.22848e-15 0)
(3 1.20074e-15 0)
(3 1.08346e-15 0)
(3 6.53566e-16 0)
(3 1.63223e-16 0)
(3 -9.67384e-16 0)
(3 -1.10124e-15 0)
(3 -4.33496e-16 0)
(3 -6.69552e-08 0)
(3.00409 7.22725e-05 0)
(1.99119 0.599928 0)
(1.06345 0.724481 0)
(1.01083 0.70188 0)
(0.994816 0.698924 0)
(0.991197 0.715229 0)
(1.00607 0.741945 0)
(1.04439 0.777915 0)
(1.11536 0.816703 0)
(1.22218 0.84978 0)
(1.36159 0.865511 0)
(3 4.06064e-17 0)
(3 2.7846e-17 0)
(3 -4.55552e-17 0)
(3 2.22477e-16 0)
(3 3.81426e-16 0)
(3 6.43897e-16 0)
(3 3.09803e-16 0)
(3 4.73057e-16 0)
(3 3.25373e-16 0)
(3 4.1122e-16 0)
(3 3.16583e-16 0)
(3 -2.64242e-16 0)
(3 1.62898e-16 0)
(3 8.61603e-16 0)
(3 1.2302e-15 0)
(3 1.07954e-15 0)
(3 4.71362e-16 0)
(3 7.38968e-16 0)
(3 8.46989e-16 0)
(3 2.10543e-16 0)
(3 -8.50614e-16 0)
(3 -4.80114e-16 0)
(3 -3.37498e-17 0)
(3 4.12721e-16 0)
(3 6.72222e-16 0)
(3 1.07442e-15 0)
(3 1.66789e-15 0)
(3 1.26166e-15 0)
(3 1.57963e-15 0)
(3 1.38172e-15 0)
(3 1.2342e-15 0)
(3 8.50337e-16 0)
(3 1.0769e-16 0)
(3 -2.68847e-16 0)
(3 -5.59072e-16 0)
(3 -2.81686e-16 0)
(3 -2.11982e-09 0)
(3.00001 -3.2382e-07 0)
(2.93462 0.220826 0)
(1.28232 0.697929 0)
(1.08249 0.71902 0)
(1.08714 0.720465 0)
(1.08162 0.740651 0)
(1.08682 0.762322 0)
(1.11483 0.788546 0)
(1.17597 0.817893 0)
(1.26421 0.839773 0)
(1.37874 0.848385 0)
(3 -1.70037e-17 0)
(3 -1.43188e-16 0)
(3 -1.59242e-17 0)
(3 7.91886e-17 0)
(3 5.72493e-16 0)
(3 5.24007e-16 0)
(3 6.03064e-16 0)
(3 6.77142e-16 0)
(3 4.50405e-16 0)
(3 5.97781e-16 0)
(3 4.71755e-16 0)
(3 4.49982e-16 0)
(3 2.92042e-16 0)
(3 -5.02284e-17 0)
(3 4.75257e-16 0)
(3 1.08094e-15 0)
(3 1.72504e-15 0)
(3 2.57847e-15 0)
(3 2.31128e-15 0)
(3 2.10667e-15 0)
(3 2.03177e-15 0)
(3 8.68311e-16 0)
(3 7.9603e-16 0)
(3 1.3936e-15 0)
(3 1.41295e-15 0)
(3 8.10899e-16 0)
(3 8.39381e-16 0)
(3 8.85148e-16 0)
(3 1.90948e-15 0)
(3 1.32691e-15 0)
(3 8.49139e-16 0)
(3 6.44167e-16 0)
(3 7.33746e-16 0)
(3 7.73926e-16 0)
(3 8.68582e-16 0)
(3 5.88861e-16 0)
(3 -4.68738e-12 0)
(3 -7.66546e-07 0)
(3.04101 0.00636344 0)
(1.5732 0.659775 0)
(1.10004 0.756564 0)
(1.11113 0.765321 0)
(1.11714 0.783205 0)
(1.1397 0.795412 0)
(1.17383 0.806426 0)
(1.22848 0.818051 0)
(1.30251 0.828724 0)
(1.39898 0.831687 0)
(3 -1.17602e-17 0)
(3 3.6152e-17 0)
(3 9.15241e-17 0)
(3 1.81269e-17 0)
(3 5.93805e-16 0)
(3 3.66114e-16 0)
(3 8.70278e-16 0)
(3 1.0229e-15 0)
(3 1.15689e-15 0)
(3 1.2894e-15 0)
(3 1.26982e-15 0)
(3 1.37589e-15 0)
(3 1.1634e-15 0)
(3 1.16105e-16 0)
(3 3.05243e-16 0)
(3 6.13572e-16 0)
(3 8.92148e-16 0)
(3 7.35937e-16 0)
(3 1.04388e-15 0)
(3 1.39976e-15 0)
(3 1.82078e-15 0)
(3 1.674e-15 0)
(3 1.22163e-15 0)
(3 1.41157e-15 0)
(3 5.3899e-16 0)
(3 -3.27646e-16 0)
(3 -1.02744e-15 0)
(3 -3.88326e-16 0)
(3 -1.12605e-16 0)
(3 2.97885e-16 0)
(3 -4.7333e-17 0)
(3 1.14754e-16 0)
(3 6.54997e-16 0)
(3 1.05775e-15 0)
(3 1.16936e-15 0)
(3 4.97095e-16 0)
(3 -6.06076e-15 0)
(3 -1.46575e-07 0)
(3.00079 3.53417e-05 0)
(2.39098 0.510165 0)
(1.20596 0.788998 0)
(1.13526 0.791665 0)
(1.14889 0.795478 0)
(1.17696 0.805489 0)
(1.21724 0.817157 0)
(1.27013 0.828 0)
(1.33784 0.834984 0)
(1.41928 0.834546 0)
(3 6.72594e-17 0)
(3 6.72784e-17 0)
(3 2.16798e-16 0)
(3 6.97834e-16 0)
(3 6.12736e-16 0)
(3 6.76723e-16 0)
(3 8.23514e-16 0)
(3 1.01995e-15 0)
(3 1.35558e-15 0)
(3 1.74435e-15 0)
(3 1.75629e-15 0)
(3 1.96837e-15 0)
(3 1.94867e-15 0)
(3 1.65949e-15 0)
(3 1.2925e-15 0)
(3 8.9758e-16 0)
(3 9.33223e-16 0)
(3 9.67516e-16 0)
(3 1.33373e-15 0)
(3 1.04784e-15 0)
(3 7.95158e-16 0)
(3 1.13688e-15 0)
(3 1.15536e-15 0)
(3 8.15934e-16 0)
(3 8.22538e-16 0)
(3 1.42036e-16 0)
(3 -1.24127e-15 0)
(3 -1.64475e-15 0)
(3 -1.7535e-15 0)
(3 -6.44859e-16 0)
(3 3.38028e-16 0)
(3 7.35005e-16 0)
(3 6.63927e-16 0)
(3 7.45473e-16 0)
(3 7.07752e-16 0)
(3 6.01494e-16 0)
(3 1.5683e-15 0)
(3 -4.60058e-09 0)
(3.00002 -5.67228e-06 0)
(3.05789 0.0720598 0)
(1.56696 0.77652 0)
(1.1847 0.786013 0)
(1.19849 0.794098 0)
(1.2215 0.806579 0)
(1.25948 0.818166 0)
(1.30906 0.827831 0)
(1.37097 0.832629 0)
(1.44246 0.830769 0)
(3 -2.11411e-16 0)
(3 -3.3946e-16 0)
(3 -3.33055e-16 0)
(3 -7.58913e-17 0)
(3 -3.63277e-16 0)
(3 3.79894e-16 0)
(3 9.05636e-16 0)
(3 5.04715e-16 0)
(3 1.20819e-16 0)
(3 7.92943e-16 0)
(3 1.41595e-15 0)
(3 1.55369e-15 0)
(3 1.77964e-15 0)
(3 1.74782e-15 0)
(3 1.5368e-15 0)
(3 1.64247e-15 0)
(3 2.00042e-15 0)
(3 1.87007e-15 0)
(3 1.53378e-15 0)
(3 1.32612e-15 0)
(3 1.05098e-15 0)
(3 1.02152e-15 0)
(3 7.5535e-16 0)
(3 2.90338e-16 0)
(3 5.20286e-16 0)
(3 4.65408e-16 0)
(3 2.80089e-16 0)
(3 -3.29386e-16 0)
(3 -4.77828e-16 0)
(3 -2.80212e-16 0)
(3 3.68635e-16 0)
(3 3.97715e-16 0)
(3 4.53761e-16 0)
(3 5.12642e-16 0)
(3 5.88438e-16 0)
(3 2.09903e-15 0)
(3 3.20822e-15 0)
(3 -1.66159e-11 0)
(3 -1.43078e-06 0)
(3.00812 0.0013707 0)
(2.29566 0.630945 0)
(1.26349 0.848407 0)
(1.22292 0.833501 0)
(1.2566 0.833505 0)
(1.29064 0.838624 0)
(1.33764 0.843761 0)
(1.39501 0.844707 0)
(1.45858 0.841467 0)
(3 -4.88833e-17 0)
(3 4.75511e-17 0)
(3 -2.10487e-16 0)
(3 -5.61277e-16 0)
(3 -5.11952e-16 0)
(3 -4.28521e-16 0)
(3 1.19897e-16 0)
(3 5.0589e-17 0)
(3 1.10944e-17 0)
(3 5.63539e-16 0)
(3 9.03843e-16 0)
(3 9.9091e-16 0)
(3 1.17796e-15 0)
(3 1.38124e-15 0)
(3 1.03998e-15 0)
(3 9.49706e-16 0)
(3 5.629e-16 0)
(3 1.93224e-16 0)
(3 2.00788e-17 0)
(3 4.49205e-16 0)
(3 8.96894e-16 0)
(3 6.95158e-16 0)
(3 6.13615e-16 0)
(3 2.41878e-16 0)
(3 -1.17433e-16 0)
(3 6.00182e-16 0)
(3 1.29048e-15 0)
(3 1.27308e-15 0)
(3 7.17068e-16 0)
(3 2.4848e-16 0)
(3 2.15632e-16 0)
(3 2.15633e-16 0)
(3 -1.41928e-16 0)
(3 8.49491e-18 0)
(3 3.11074e-16 0)
(3 9.74232e-16 0)
(3 1.41095e-15 0)
(3 -6.06024e-15 0)
(3 -1.22239e-07 0)
(3.00003 9.35931e-06 0)
(3.0395 0.11739 0)
(1.62756 0.827105 0)
(1.26862 0.830796 0)
(1.30508 0.833376 0)
(1.33079 0.839417 0)
(1.37308 0.842099 0)
(1.42409 0.841903 0)
(1.4793 0.839096 0)
(3 1.81345e-16 0)
(3 7.24944e-16 0)
(3 7.89461e-16 0)
(3 4.26974e-16 0)
(3 2.58717e-16 0)
(3 -3.79365e-16 0)
(3 -6.36777e-16 0)
(3 1.43959e-16 0)
(3 7.85875e-16 0)
(3 4.71572e-16 0)
(3 2.04743e-16 0)
(3 2.77199e-16 0)
(3 4.64747e-16 0)
(3 6.26677e-16 0)
(3 3.50677e-16 0)
(3 3.14328e-16 0)
(3 2.29556e-16 0)
(3 4.98096e-16 0)
(3 6.23179e-16 0)
(3 5.61971e-16 0)
(3 5.8264e-16 0)
(3 6.09402e-16 0)
(3 7.5871e-16 0)
(3 3.51138e-16 0)
(3 6.70199e-17 0)
(3 3.32607e-16 0)
(3 2.28331e-16 0)
(3 4.58237e-16 0)
(3 2.99609e-16 0)
(3 -3.80918e-17 0)
(3 -4.35055e-16 0)
(3 -3.85361e-16 0)
(3 -7.95528e-16 0)
(3 -4.56318e-16 0)
(3 1.91503e-16 0)
(3 -5.1163e-16 0)
(3 -7.31243e-16 0)
(3 -7.37546e-16 0)
(3 -1.49138e-09 0)
(3 -1.12345e-07 0)
(3.01056 0.00343774 0)
(2.37178 0.636515 0)
(1.35609 0.885931 0)
(1.32678 0.876244 0)
(1.35894 0.868756 0)
(1.39492 0.865667 0)
(1.43854 0.861901 0)
(1.48819 0.855048 0)
(3 -2.3582e-18 0)
(3 2.51055e-16 0)
(3 1.71247e-16 0)
(3 4.71459e-16 0)
(3 2.63073e-16 0)
(3 5.86859e-17 0)
(3 -8.83122e-17 0)
(3 -9.85354e-17 0)
(3 2.37083e-16 0)
(3 7.29241e-17 0)
(3 -5.47441e-17 0)
(3 1.40832e-16 0)
(3 -7.54037e-17 0)
(3 -3.33281e-16 0)
(3 -1.20089e-16 0)
(3 3.29271e-16 0)
(3 1.13771e-15 0)
(3 1.2623e-15 0)
(3 6.7854e-16 0)
(3 4.02759e-16 0)
(3 1.47643e-16 0)
(3 9.47642e-16 0)
(3 9.86987e-16 0)
(3 9.8319e-16 0)
(3 7.09108e-16 0)
(3 5.75968e-16 0)
(3 -1.07985e-16 0)
(3 -7.21826e-17 0)
(3 -1.21236e-16 0)
(3 9.87839e-17 0)
(3 -3.72849e-16 0)
(3 -3.89305e-16 0)
(3 2.21525e-16 0)
(3 2.64294e-16 0)
(3 -2.21652e-16 0)
(3 -1.00698e-15 0)
(3 -1.56835e-15 0)
(3 4.55547e-17 0)
(3 -3.37558e-12 0)
(3 -2.78312e-08 0)
(3.00005 4.1747e-05 0)
(3.03209 0.105024 0)
(1.76196 0.836074 0)
(1.36308 0.881776 0)
(1.4019 0.87478 0)
(1.42953 0.868226 0)
(1.46491 0.860299 0)
(1.5086 0.849969 0)
(3 -8.55034e-17 0)
(3 -3.67271e-16 0)
(3 -2.62857e-16 0)
(3 4.3664e-16 0)
(3 4.51969e-16 0)
(3 -3.55924e-18 0)
(3 1.9755e-17 0)
(3 -1.00857e-15 0)
(3 -1.11101e-15 0)
(3 -9.55448e-16 0)
(3 -4.66721e-16 0)
(3 -3.16667e-16 0)
(3 -6.20501e-16 0)
(3 -1.39798e-16 0)
(3 1.86231e-16 0)
(3 4.71204e-16 0)
(3 4.1607e-16 0)
(3 -3.31316e-17 0)
(3 -2.24212e-16 0)
(3 3.40004e-16 0)
(3 2.78905e-16 0)
(3 1.1808e-15 0)
(3 9.87971e-16 0)
(3 9.6242e-16 0)
(3 7.16472e-16 0)
(3 1.86094e-17 0)
(3 -1.05521e-15 0)
(3 -6.79066e-16 0)
(3 4.6549e-17 0)
(3 4.08033e-16 0)
(3 -3.68e-16 0)
(3 -5.33337e-16 0)
(3 3.77882e-16 0)
(3 7.65342e-16 0)
(3 3.06187e-16 0)
(3 1.67209e-16 0)
(3 -3.4377e-16 0)
(3 1.6076e-15 0)
(3 2.12915e-16 0)
(3 -2.61071e-09 0)
(3 2.37522e-08 0)
(3.0061 0.00431615 0)
(2.61799 0.529404 0)
(1.50602 0.934214 0)
(1.42299 0.902682 0)
(1.45474 0.892608 0)
(1.48563 0.881599 0)
(1.52441 0.867885 0)
(3 8.59505e-17 0)
(3 1.32072e-16 0)
(3 4.15692e-16 0)
(3 3.35456e-16 0)
(3 8.49682e-17 0)
(3 -2.52462e-16 0)
(3 -4.11386e-16 0)
(3 -8.05807e-16 0)
(3 -1.63196e-15 0)
(3 -1.62989e-15 0)
(3 -1.59138e-15 0)
(3 -1.20539e-15 0)
(3 -4.28134e-16 0)
(3 4.53817e-16 0)
(3 4.40688e-16 0)
(3 -1.3217e-16 0)
(3 -2.28239e-16 0)
(3 -7.13078e-16 0)
(3 -6.2442e-16 0)
(3 1.4486e-16 0)
(3 4.95108e-16 0)
(3 6.66242e-16 0)
(3 8.75635e-16 0)
(3 1.01925e-15 0)
(3 6.1117e-16 0)
(3 1.40071e-16 0)
(3 1.89444e-16 0)
(3 7.3377e-17 0)
(3 7.12434e-17 0)
(3 -8.32205e-16 0)
(3 -1.52859e-15 0)
(3 -1.42091e-15 0)
(3 -3.97647e-17 0)
(3 5.16173e-16 0)
(3 6.19064e-16 0)
(3 7.16995e-16 0)
(3 6.03376e-16 0)
(3 8.09348e-16 0)
(3 1.37326e-15 0)
(3 -1.04208e-10 0)
(3 -1.02299e-10 0)
(3.00002 4.59193e-05 0)
(3.03539 0.0531744 0)
(2.0213 0.797328 0)
(1.47673 0.914583 0)
(1.49563 0.904191 0)
(1.52151 0.890417 0)
(1.55294 0.877314 0)
(3 -1.47359e-16 0)
(3 -2.74462e-16 0)
(3 2.18779e-17 0)
(3 -2.11381e-16 0)
(3 -5.09715e-16 0)
(3 -1.75862e-16 0)
(3 -2.26714e-16 0)
(3 -1.77259e-16 0)
(3 -5.73047e-16 0)
(3 -6.03356e-16 0)
(3 -1.31189e-15 0)
(3 -1.35383e-15 0)
(3 -1.27344e-16 0)
(3 -2.82975e-17 0)
(3 1.08992e-16 0)
(3 1.1831e-16 0)
(3 -2.58913e-17 0)
(3 -1.71016e-16 0)
(3 -2.0666e-16 0)
(3 -1.7883e-16 0)
(3 -5.8661e-17 0)
(3 -4.68631e-16 0)
(3 4.07235e-17 0)
(3 1.72129e-16 0)
(3 -2.45434e-17 0)
(3 -1.20909e-16 0)
(3 7.81067e-17 0)
(3 -3.10499e-16 0)
(3 -9.35774e-16 0)
(3 -1.25181e-15 0)
(3 -8.71252e-16 0)
(3 -1.72752e-16 0)
(3 5.66457e-16 0)
(3 1.03589e-15 0)
(3 1.33733e-15 0)
(3 1.9313e-15 0)
(3 1.9873e-15 0)
(3 1.44375e-15 0)
(3 8.82738e-16 0)
(3 -9.22509e-13 0)
(3 -3.24673e-11 0)
(3 3.54263e-08 0)
(3.00165 0.0023384 0)
(2.83896 0.313355 0)
(1.74047 0.903414 0)
(1.51243 0.928099 0)
(1.54879 0.916249 0)
(1.57792 0.903966 0)
(3 -1.56345e-17 0)
(3 -4.98663e-16 0)
(3 -6.74955e-16 0)
(3 -6.88756e-16 0)
(3 -3.52741e-16 0)
(3 4.14841e-17 0)
(3 -1.12575e-16 0)
(3 -7.53949e-17 0)
(3 -2.52071e-16 0)
(3 -7.11097e-16 0)
(3 -6.90955e-16 0)
(3 -8.02911e-16 0)
(3 -1.46229e-15 0)
(3 -8.23692e-16 0)
(3 5.02271e-16 0)
(3 5.75243e-16 0)
(3 1.41798e-16 0)
(3 2.18728e-16 0)
(3 5.36659e-17 0)
(3 -5.43523e-16 0)
(3 -1.6875e-15 0)
(3 -2.5089e-15 0)
(3 -2.26538e-15 0)
(3 -1.23856e-15 0)
(3 -7.40924e-16 0)
(3 -6.04192e-16 0)
(3 -8.57287e-16 0)
(3 -1.4573e-15 0)
(3 -1.25697e-15 0)
(3 -3.51363e-16 0)
(3 2.27773e-16 0)
(3 6.74826e-16 0)
(3 4.58981e-16 0)
(3 3.23501e-16 0)
(3 8.72414e-16 0)
(3 1.71912e-15 0)
(3 2.09487e-15 0)
(3 1.97305e-15 0)
(3 1.25004e-15 0)
(3 -2.31121e-15 0)
(3 -4.2904e-12 0)
(3 3.072e-12 0)
(3 1.22737e-05 0)
(3.00972 0.0212798 0)
(2.41768 0.644586 0)
(1.60684 0.950529 0)
(1.5642 0.941767 0)
(1.59523 0.925472 0)
(3 -3.39049e-17 0)
(3 3.18898e-18 0)
(3 -2.9093e-16 0)
(3 -3.64796e-16 0)
(3 -2.25022e-16 0)
(3 4.98041e-17 0)
(3 2.41015e-18 0)
(3 1.19673e-16 0)
(3 9.75797e-17 0)
(3 -1.84555e-16 0)
(3 -4.41832e-17 0)
(3 7.9317e-17 0)
(3 -2.09476e-16 0)
(3 3.90624e-16 0)
(3 8.32482e-16 0)
(3 1.05342e-16 0)
(3 -5.88458e-16 0)
(3 -3.79872e-16 0)
(3 -1.34985e-16 0)
(3 -3.97277e-16 0)
(3 -3.09076e-16 0)
(3 -4.16663e-16 0)
(3 -5.76385e-16 0)
(3 -4.42408e-16 0)
(3 1.78859e-16 0)
(3 -1.65332e-16 0)
(3 -5.94979e-16 0)
(3 -6.63848e-16 0)
(3 -8.874e-16 0)
(3 -8.3646e-16 0)
(3 -8.1346e-17 0)
(3 -2.7756e-16 0)
(3 -5.55183e-16 0)
(3 -7.5397e-16 0)
(3 -1.03115e-15 0)
(3 -8.22923e-16 0)
(3 -2.5248e-16 0)
(3 -3.12938e-17 0)
(3 1.27732e-16 0)
(3 1.28127e-15 0)
(3 -2.70998e-13 0)
(3 -2.72522e-13 0)
(3 6.70274e-09 0)
(3.00007 0.000621028 0)
(2.98801 0.113721 0)
(2.04348 0.811575 0)
(1.62193 0.943239 0)
(1.62125 0.937846 0)
(3 -2.29462e-17 0)
(3 2.36268e-16 0)
(3 1.92424e-17 0)
(3 -5.08057e-17 0)
(3 -1.39475e-16 0)
(3 -4.46755e-17 0)
(3 3.99239e-16 0)
(3 5.7017e-16 0)
(3 9.57315e-16 0)
(3 1.14102e-15 0)
(3 9.38878e-16 0)
(3 7.18596e-16 0)
(3 7.26496e-16 0)
(3 4.22433e-16 0)
(3 8.10791e-17 0)
(3 3.93453e-16 0)
(3 3.35569e-16 0)
(3 2.22771e-16 0)
(3 3.26313e-16 0)
(3 5.30585e-16 0)
(3 1.1576e-15 0)
(3 1.69344e-15 0)
(3 1.26399e-15 0)
(3 8.70452e-16 0)
(3 2.52628e-16 0)
(3 8.34248e-17 0)
(3 -1.99566e-16 0)
(3 2.69511e-17 0)
(3 -4.53057e-17 0)
(3 -6.94012e-16 0)
(3 -6.50535e-16 0)
(3 2.43397e-17 0)
(3 -2.02072e-16 0)
(3 -1.07289e-15 0)
(3 -1.10976e-15 0)
(3 -8.83104e-16 0)
(3 -1.05211e-16 0)
(3 -1.88145e-16 0)
(3 3.33758e-16 0)
(3 1.56697e-15 0)
(3 -2.18883e-15 0)
(3 -8.96882e-14 0)
(3 1.94315e-12 0)
(3 1.44027e-06 0)
(3.00144 0.00628223 0)
(2.78465 0.338705 0)
(1.86571 0.89409 0)
(1.65018 0.955376 0)
(3 -9.18622e-18 0)
(3 6.9264e-19 0)
(3 -2.46523e-16 0)
(3 -4.54499e-16 0)
(3 -3.76809e-16 0)
(3 8.78903e-17 0)
(3 7.23307e-16 0)
(3 8.01205e-16 0)
(3 -1.32793e-17 0)
(3 -2.5565e-16 0)
(3 -1.60014e-16 0)
(3 2.13747e-16 0)
(3 2.60564e-16 0)
(3 -4.28755e-16 0)
(3 -7.12057e-16 0)
(3 -6.61536e-16 0)
(3 -5.48873e-16 0)
(3 -1.31204e-16 0)
(3 2.86678e-16 0)
(3 8.18097e-16 0)
(3 1.07216e-15 0)
(3 1.16967e-15 0)
(3 4.7883e-16 0)
(3 1.24872e-16 0)
(3 -2.28775e-16 0)
(3 -3.63753e-16 0)
(3 -4.67931e-16 0)
(3 -3.82111e-16 0)
(3 9.60868e-17 0)
(3 -3.12055e-17 0)
(3 -1.39196e-16 0)
(3 6.14915e-18 0)
(3 -1.21814e-16 0)
(3 -6.59248e-16 0)
(3 -1.04808e-15 0)
(3 -8.56675e-16 0)
(3 -5.13502e-16 0)
(3 -1.90431e-16 0)
(3 2.39916e-16 0)
(3 7.2483e-16 0)
(3 1.07135e-15 0)
(3 -1.22006e-14 0)
(3 -1.29377e-14 0)
(3 8.37797e-10 0)
(2.99999 5.92422e-05 0)
(3.00036 0.0275746 0)
(2.49371 0.567659 0)
(1.79224 0.944048 0)
(3 -6.05622e-17 0)
(3 -2.05541e-17 0)
(3 -3.52959e-17 0)
(3 -9.42028e-17 0)
(3 -2.70795e-16 0)
(3 -2.31023e-16 0)
(3 -3.74879e-16 0)
(3 -9.35393e-16 0)
(3 -1.3627e-15 0)
(3 -1.29644e-15 0)
(3 -9.01363e-16 0)
(3 1.33484e-17 0)
(3 -1.41712e-16 0)
(3 -3.00399e-16 0)
(3 -3.98755e-16 0)
(3 -6.8396e-16 0)
(3 -7.46779e-16 0)
(3 -3.71153e-16 0)
(3 1.07322e-15 0)
(3 1.14414e-15 0)
(3 1.47377e-15 0)
(3 4.06287e-16 0)
(3 -7.84801e-16 0)
(3 -1.16946e-15 0)
(3 -8.32396e-16 0)
(3 -4.86625e-16 0)
(3 1.49425e-16 0)
(3 9.29462e-17 0)
(3 1.44915e-16 0)
(3 2.00062e-16 0)
(3 3.26963e-17 0)
(3 -8.5043e-16 0)
(3 -1.0336e-15 0)
(3 -1.27599e-15 0)
(3 -2.18194e-15 0)
(3 -2.53076e-15 0)
(3 -2.39707e-15 0)
(3 -1.69964e-15 0)
(3 -7.68396e-16 0)
(3 1.01917e-15 0)
(3 1.47875e-15 0)
(3 5.63737e-16 0)
(3 -3.95189e-15 0)
(3 1.80415e-13 0)
(3 6.22172e-08 0)
(2.99993 0.000811976 0)
(2.97015 0.0863654 0)
(2.27445 0.728966 0)
(3 3.01515e-16 0)
(3 5.60526e-16 0)
(3 5.46928e-16 0)
(3 5.01888e-16 0)
(3 3.24392e-16 0)
(3 8.22325e-18 0)
(3 -9.95805e-16 0)
(3 -1.52092e-15 0)
(3 -3.88364e-16 0)
(3 3.89309e-16 0)
(3 2.90693e-16 0)
(3 -1.15957e-16 0)
(3 -5.98171e-16 0)
(3 -2.73038e-16 0)
(3 -2.47422e-16 0)
(3 -4.63505e-16 0)
(3 1.33365e-16 0)
(3 2.5736e-16 0)
(3 2.55373e-16 0)
(3 4.30084e-16 0)
(3 3.22638e-16 0)
(3 -5.25506e-16 0)
(3 -8.24695e-16 0)
(3 -5.47466e-16 0)
(3 -2.57242e-16 0)
(3 -1.71375e-16 0)
(3 -2.38437e-16 0)
(3 7.21768e-17 0)
(3 2.09573e-16 0)
(3 3.05815e-16 0)
(3 -4.29244e-16 0)
(3 -6.7619e-16 0)
(3 -1.19535e-15 0)
(3 -8.0711e-16 0)
(3 -5.12521e-16 0)
(3 -4.98428e-16 0)
(3 -1.10371e-15 0)
(3 -1.24674e-15 0)
(3 -4.7518e-18 0)
(3 8.44267e-16 0)
(3 7.16357e-16 0)
(3 1.01027e-15 0)
(3 3.33691e-16 0)
(3 -1.55105e-16 0)
(3 3.40769e-11 0)
(3 2.08077e-06 0)
(2.9996 0.00437792 0)
(2.886 0.21285 0)
(3 -1.16023e-17 0)
(3 -2.90232e-16 0)
(3 1.9941e-16 0)
(3 2.4547e-16 0)
(3 2.46509e-16 0)