/*--------------------------------*- C++ -*----------------------------------*\
  =========                 |
  \\      /  F ield         | OpenFOAM: The Open Source CFD Toolbox
   \\    /   O peration     | Website:  https://openfoam.org
    \\  /    A nd           | Version:  7
     \\/     M anipulation  |
\*---------------------------------------------------------------------------*/
FoamFile
{
    version     2.0;
    format      ascii;
    class       volScalarField;
    location    "1.7";
    object      p;
}
// * * * * * * * * * * * * * * * * * * * * * * * * * * * * * * * * * * * * * //

dimensions      [1 -1 -2 0 0 0 0];

internalField   nonuniform List<scalar> 
4080
(
1
1
1
1
1
1
1
1
1
1
1
1
1
1
1
1
1
1.84878
8.60418
10.8018
11.0693
11.4013
11.6517
11.8587
1
1
1
1
1
1
1
1
1
1
1
1
1
1
1
1
1
1.71769
8.28217
10.7117
10.9782
11.2803
11.4934
11.5814
1
1
1
1
1
1
1
1
1
1
1
1
1
1
1
1
1
1.41848
7.67315
10.5714
10.7813
10.9922
11.0843
11.2066
1
1
1
1
1
1
1
1
1
1
1
1
1
1
1
1
1
1.04436
6.66376
10.3039
10.4717
10.6515
10.6977
10.9622
1
1
1
1
1
1
1
1
1
1
1
1
1
1
1
1
1
1.00045
5.23639
9.7599
9.99369
10.0275
9.46026
7.86854
1
1
1
1
1
1
1
1
1
1
1
1
1
1
1
1
1
0.999995
3.54997
9.03074
9.6209
9.36781
8.69654
7.10116
1
1
1
1
1
1
1
1
1
1
1
1
1
1
1
1
1
0.999999
1.89648
7.84288
9.34737
8.87752
8.18814
6.59024
1
1
1
1
1
1
1
1
1
1
1
1
1
1
1
1
1
1
1.08757
5.88957
8.78179
8.29966
7.69108
6.35614
1
1
1
1
1
1
1
1
1
1
1
1
1
1
1
1
1
1
1.00036
3.25515
7.84072
8.09099
7.38869
6.3386
1
1
1
1
1
1
1
1
1
1
1
1
1
1
1
1
1
1
0.999996
1.35592
6.09566
8.02591
7.25074
6.34686
1
1
1
1
1
1
1
1
1
1
1
1
1
1
1
1
1
1
0.999999
1.01062
3.39185
7.3305
7.08501
6.29861
1
1
1
1
1
1
1
1
1
1
1
1
1
1
1
1
1
1
1
1.00001
1.39508
5.47646
7.15865
6.34029
1
1
1
1
1
1
1
1
1
1
1
1
1
1
1
1
1
1
1
1
1.01293
2.61327
6.22718
6.35473
1
1
1
1
1
1
1
1
1
1
1
1
1
1
1
1
1
1
1
1
1.00007
1.1933
4.09161
6.26054
1
1
1
1
1
1
1
1
1
1
1
1
1
1
1
1
1
1
1
1
1
1.00409
1.72524
4.84956
1
1
1
1
1
1
1
1
1
1
1
1
1
1
1
1
1
1
1
1
1
1.00002
1.04365
2.37949
1
1
1
1
1
1
1
1
1
1
1
1
1
1
1
1
1
1
1
1
1
1
1.00057
1.14967
1
1
1
1
1
1
1
1
1
1
1
1
1
1
1
1
1
1
1
1
1
1
1
1.00357
1
1
1
1
1
1
1
1
1
1
1
1
1
1
1
1
1
1
1
1
1
1
1
1.00002
1
1
1
1
1
1
1
1
1
1
1
1
1
1
1
1
1
1
1
1
1
1
1
1
1
1
1
1
1
1
1
1
1
1
1
1
1
1
1
1
1
1
1
1
1
1
1
1
1
1
1
1
1
1
1
1
1
1
1
1
1
1
1
1
1
1
1
1
1
1
1
1
1
1
1
1
1
1
1
1
1
1
1
1
1
1
1
1
1
1
1
1
1
1
1
1
1
1
1
1
1
1
1
1
1
1
1
1
1
1
1
1
1
1
1
1
1
1
1
1
1
1
1
1
1
1
1
1
1
1
1
1
1
1
1
1
1
1
1
1
1
1
1
1
1
1
1
1
1
1
1
1
1
1
1
1
1
1
1
1
1
1
1
1
1
1
1
1
1
1
1
1
1
1
1
1
1
1
1
1
1
1
1
1
1
1
1
1
1
1
1
1
1
1
1
1
1
1
1
1
1
1
1
1
1
1
1
1
1
1
1
1
1
1
1
1
1
1
1
1
1
1
1
1
1
1
1
1
1
1
1
1
1
1
1
1
1
1
1
1
1
1
1
1
1
1
1
1
1
1
1
1
1
1
1
1
1
1
1
1
1
1
1
1
1
1
1
1
1
1
1
1
1
1
1
1
1
1
1
1
1
1
1
1
1
1
1
1
1
1
1
1
1
1
1
1
1
1
1
1
1
1
1
1
1
1
1
1
1
1
1
1
1
1
1
1
1
1
1
1
1
1
1
1
1
1
1
1
1
1
1
1
1
1
1
1
1
1
1
1
1
1
1
1
1
1
1
1
1
1
1
1
1
1
1
1
1
1
1
1
1
1
1
1
1
1
1
1
1
1
1
1
1
1
1
1
1
1
1
1
1
1
1
1
1
1
1
1
1
1
1
1
1
1
1
1
1
1
1
1
1
1
1
1
1
1
1
1
1
1
1
1
1
1
1
1
1
1
1
1
1
1
1
1
1
1
1
1
1
1
1
1
1
1
1
1
1
1
1
1
1
1
1
1
1
1
1
1
1
1
1
1
1
1
1
1
1
1
1
1
1
1
1
1
1
1
1
1
1
1
1
1
1
1
1
1
1
1
1
1
1
1
1
1
1
1
1
1
1
1
1
1
1
1
1
1
1
1
1
1
1
1
1
1
2.11324
0.596545
1.52325
3.3221
3.97209
4.29407
4.44676
4.50864
4.52595
4.56016
4.56738
4.59649
3.31868
1.67922
2.40673
4.08181
4.36182
4.42947
4.50151
4.54526
4.55663
4.59169
4.58611
4.62368
4.25113
2.61379
2.44351
3.62008
4.2634
4.29122
4.41875
4.50551
4.53366
4.5575
4.54027
4.57512
4.8262
3.41926
2.71582
3.23203
4.19352
4.42888
4.61108
4.64278
4.59191
4.58213
4.57394
4.72176
5.19032
4.06001
3.06282
3.10303
3.75174
4.42996
4.65601
4.55598
4.52241
4.51345
4.39058
3.74795
5.39802
4.45334
3.49241
3.13797
3.39023
4.11599
4.63888
4.57193
4.57631
4.54868
4.37147
3.85647
5.51038
4.72564
3.90266
3.26722
3.3045
3.7705
4.47291
4.60705
4.58321
4.54769
4.37539
3.99577
5.64637
4.95867
4.26125
3.53096
3.33787
3.48749
4.1852
4.5824
4.5771
4.54741
4.39598
4.11987
5.78025
5.12927
4.53668
3.8509
3.419
3.41887
3.78142
4.42889
4.56017
4.56138
4.44062
4.22668
5.94552
5.3522
4.76571
4.18944
3.60193
3.43208
3.56014
4.11831
4.49708
4.5714
4.48862
4.31905
5.91788
5.55073
4.96121
4.44621
3.85554
3.49095
3.47731
3.72351
4.30276
4.54012
4.52425
4.39925
5.06113
5.61749
5.21327
4.67151
4.15924
3.64087
3.47946
3.58375
4.00046
4.43413
4.55487
4.47501
2.96059
5.04951
5.35105
4.94825
4.44677
3.90163
3.55805
3.52917
3.69319
4.20409
4.50071
4.51593
1.31825
3.33316
4.96102
5.11355
4.74395
4.23326
3.71528
3.54068
3.60187
3.88598
4.33087
4.50846
1.01226
1.49551
3.52717
4.81176
4.91356
4.56747
4.03155
3.62758
3.55727
3.67242
4.07153
4.42686
1.00011
1.02651
1.63731
3.5787
4.65735
4.7333
4.40159
3.87603
3.58894
3.6089
3.76377
4.18969
1
1.00033
1.04257
1.72049
3.55023
4.50546
4.56568
4.24433
3.77093
3.61199
3.67756
3.91588
1
1
1.00065
1.05492
1.75019
3.4661
4.35619
4.40391
4.10105
3.73213
3.64544
3.74024
1
1
1
1.00096
1.0612
1.73383
3.34115
4.20759
4.23765
3.99537
3.72476
3.69026
1
1
1
1
1.00115
1.0607
1.68151
3.19274
4.03685
4.09185
3.92285
3.73556
1
1
1
1
1.00001
1.00115
1.05493
1.60804
2.99814
3.86727
3.96628
3.86719
1
1
1
1
1
1.00001
1.00104
1.04519
1.52389
2.73786
3.71086
3.87405
1
1
1
1
1
1
1
1.00079
1.03519
1.42077
2.4646
3.56025
1
1
1
1
1
1
1
1
1.00054
1.02615
1.29989
2.25637
1
1
1
1
1
1
1
1
1
1.00037
1.01623
1.21104
1
1
1
1
1
1
1
1
1
1
1.0002
1.00934
1
1
1
1
1
1
1
1
1
1
1
1.0001
1
1
1
1
1
1
1
1
1
1
1
1
1
1
1
1
1
1
1
1
1
1
1
1
1
1
1
1
1
1
1
1
1
1
1
1
1
1
1
1
1
1
1
1
1
1
1
1
1
1
1
1
1
1
1
1
1
1
1
1
1
1
1
1
1
1
1
1
1
1
1
1
1
1
1
1
1
1
1
1
1
1
1
1
1
1
1
1
1
1
1
1
1
1
1
1
1
1
1
1
1
1
1
1
1
1
1
1
1.57887
1.11065
1.09701
1.17574
1.29974
1.38942
1.42072
1.41463
1.39914
1.39112
1.37282
1.3466
1.32355
1.30189
1.29243
1.28599
1.28628
1.29196
1.29593
1.29807
1.29872
1.29262
1.28329
1.27119
1.25788
1.24844
1.24248
1.23767
1.23581
1.23233
1.22911
1.22627
1.2225
1.21634
1.20678
1.19646
1.18882
1.18425
1.18046
1.17776
1.17596
1.17069
1.16523
1.159
1.1508
1.14245
1.1358
1.1304
1.12606
1.12205
1.11815
1.11323
1.10637
1.09669
1.08149
1.07121
1.10458
1.316
1.8905
2.90602
3.91429
4.51749
4.68397
4.66924
4.45739
4.33437
4.23424
4.15505
4.08836
3.98628
3.87549
3.74679
3.6401
3.58027
3.53443
3.50782
3.49926
3.50865
3.51015
3.46204
3.39898
3.31912
3.21424
3.04271
2.45113
1.83888
1.53462
1.39085
1.31406
1.29947
1.32206
1.34119
1.33892
1.34001
1.33253
1.33098
1.32364
1.31665
1.3123
1.30768
1.30501
1.30012
1.29233
1.28395
1.27904
1.2739
1.27133
1.26906
1.26644
1.2616
1.25384
1.24461
1.23598
1.22794
1.22227
1.21971
1.2174
1.21346
1.20846
1.20319
1.197
1.1887
1.1799
1.17391
1.16915
1.16573
1.16156
1.15659
1.15097
1.14488
1.13852
1.13256
1.12706
1.12126
1.11617
1.1104
1.1011
1.09006
1.09248
1.14607
1.37623
1.81826
2.20915
2.50333
3.02874
3.48099
3.83145
4.08728
4.13615
4.12248
4.11246
4.0816
4.03772
3.96381
3.88305
3.80238
3.71231
3.63984
3.57694
3.51825
3.47423
3.44239
3.42482
3.40328
3.36003
3.30431
3.24125
3.10437
2.99363
2.22875
1.79821
1.45107
1.28917
1.25495
1.25839
1.29923
1.35461
1.36715
1.37034
1.3654
1.34764
1.3261
1.32051
1.31818
1.31341
1.30657
1.30044
1.29033
1.28028
1.27126
1.26519
1.26162
1.25997
1.26023
1.25835
1.25438
1.24869
1.24038
1.22722
1.21442
1.20756
1.20415
1.20186
1.19949
1.19707
1.19395
1.18994
1.18519
1.17851
1.17009
1.16133
1.15411
1.14831
1.14305
1.13774
1.13258
1.12841
1.12281
1.11577
1.10558
1.09271
1.10838
1.20243
1.48298
1.95713
2.326
2.36071
2.30571
2.36958
2.6437
2.99973
3.39923
3.77032
3.95771
4.07709
4.09367
4.06736
4.01782
3.95253
3.87094
3.79321
3.70659
3.61475
3.53094
3.45092
3.39068
3.35458
3.32429
3.29521
3.26376
3.2324
3.15754
3.45094
2.68066
2.21521
1.81577
1.52054
1.41901
1.33759
1.29637
1.28269
1.2822
1.29183
1.30627
1.31773
1.33437
1.33738
1.3294
1.31438
1.30442
1.29623
1.28476
1.27546
1.26897
1.26418
1.26153
1.26114
1.25936
1.25535
1.25032
1.24384
1.2362
1.22668
1.21849
1.21352
1.20949
1.20553
1.2015
1.19754
1.19165
1.1838
1.17732
1.17178
1.1659
1.16143
1.15755
1.15286
1.14715
1.14058
1.13354
1.12657
1.11683
1.10718
1.10318
1.12819
1.25987
1.61501
2.09054
2.32956
2.39647
2.37044
2.32923
2.30025
2.29599
2.31577
2.47625
2.81286
3.15867
3.44745
3.60364
3.7476
3.85519
3.91611
3.94652
3.90844
3.83044
3.7262
3.59781
3.46582
3.35036
3.28967
3.25678
3.23801
3.22441
3.21295
3.15532
3.76316
3.1245
2.59867
2.17362
1.8104
1.61114
1.467
1.32085
1.25179
1.25092
1.24912
1.25299
1.28437
1.32179
1.34047
1.34745
1.34361
1.33316
1.3129
1.28324
1.26466
1.25582
1.25209
1.25247
1.25962
1.26843
1.26769
1.26116
1.24961
1.23324
1.2205
1.21352
1.2095
1.20722
1.20572
1.2057
1.20564
1.20058
1.18811
1.17443
1.16598
1.16197
1.15944
1.15632
1.15264
1.14935
1.14473
1.13849
1.12769
1.11325
1.11903
1.16244
1.35311
1.77681
2.19155
2.441
2.50172
2.46597
2.40114
2.34135
2.28477
2.22553
2.19802
2.1912
2.20558
2.31514
2.55212
2.8587
3.15778
3.39065
3.52321
3.63069
3.69475
3.76656
3.78537
3.72991
3.61714
3.45081
3.31296
3.24337
3.20368
3.17715
3.15822
3.10965
3.96564
3.45856
2.9773
2.53603
2.12873
1.87997
1.69929
1.50284
1.37143
1.34623
1.29015
1.25295
1.25827
1.27278
1.2811
1.29047
1.30008
1.31392
1.31635
1.30667
1.29695
1.28695
1.27703
1.26611
1.25973
1.25804
1.25285
1.24142
1.23295
1.22641
1.22183
1.21948
1.2171
1.21473
1.21229
1.20988
1.20692
1.19858
1.1812
1.16897
1.16438
1.16105
1.15765
1.15475
1.15189
1.14864
1.14301
1.13743
1.12675
1.13734
1.22263
1.49994
1.94961
2.36356
2.5854
2.59372
2.5448
2.43081
2.34408
2.29656
2.2761
2.25028
2.2138
2.18037
2.16054
2.11249
2.07651
2.11939
2.25447
2.49734
2.77722
3.0685
3.29835
3.45711
3.55218
3.5709
3.55171
3.47534
3.37174
3.31867
3.27246
3.23234
3.18598
3.10604
4.13958
3.73033
3.29053
2.86993
2.45849
2.16568
1.9524
1.71336
1.53302
1.45946
1.37777
1.29226
1.25224
1.25593
1.25434
1.2519
1.25948
1.2797
1.29072
1.29188
1.29897
1.31196
1.30917
1.29774
1.2787
1.25898
1.24173
1.22298
1.21414
1.21357
1.21542
1.22167
1.22995
1.23159
1.22861
1.22157
1.20903
1.19092
1.17327
1.16499
1.16161
1.15912
1.15735
1.15686
1.15846
1.15555
1.14957
1.1409
1.15652
1.27315
1.67328
2.14688
2.52108
2.65657
2.63079
2.55616
2.49268
2.40915
2.34675
2.31562
2.28876
2.25157
2.21513
2.18189
2.14585
2.10121
2.04645
1.97898
1.93956
1.94471
2.02316
2.21034
2.46262
2.72546
2.98919
3.21872
3.30142
3.31684
3.30019
3.28948
3.257
3.22281
3.20865
3.15134
4.27218
3.93694
3.5625
3.16581
2.75675
2.44988
2.2062
1.96457
1.74931
1.63651
1.53122
1.40553
1.32623
1.31767
1.28356
1.25252
1.24686
1.24719
1.25071
1.25597
1.26559
1.28668
1.29946
1.29825
1.29062
1.27506
1.25507
1.23575
1.21918
1.21512
1.21556
1.22012
1.22537
1.22563
1.22194
1.21248
1.19812
1.18273
1.17416
1.171
1.16774
1.16459
1.16291
1.16142
1.1591
1.15283
1.15321
1.18323
1.35448
1.81936
2.38562
2.55091
2.62028
2.64168
2.62015
2.58054
2.52495
2.43984
2.36404
2.30201
2.25716
2.22222
2.19132
2.16566
2.1384
2.10548
2.06353
2.01015
1.9274
1.87559
1.84822
1.83622
1.86192
1.94705
2.11003
2.36127
2.63285
2.87671
3.05296
3.11105
3.13937
3.10715
3.10109
3.09728
4.37421
4.10322
3.77878
3.41783
3.02118
2.71935
2.47465
2.19195
1.95998
1.83357
1.71208
1.55398
1.43213
1.39491
1.33278
1.27006
1.23634
1.23431
1.23325
1.2365
1.24548
1.26177
1.27679
1.27617
1.27071
1.27004
1.26686
1.25853
1.24681
1.23717
1.23226
1.22749
1.22263
1.21649
1.20669
1.19515
1.18715
1.18323
1.18153
1.18114
1.18218
1.17857
1.17323
1.16878
1.15864
1.15999
1.21541
1.50937
2.04248
2.50946
2.65054
2.6714
2.68406
2.67019
2.61377
2.54886
2.48172
2.40914
2.33957
2.27768
2.23407
2.20217
2.17661
2.15699
2.13395
2.10322
2.06803
2.02738
1.97031
1.88514
1.80688
1.77787
1.76148
1.74792
1.74568
1.78005
1.87813
2.05507
2.30476
2.52753
2.72155
2.85111
2.89968
2.95249
4.44418
4.2448
3.96014
3.63839
3.28253
2.96241
2.70602
2.43765
2.19312
2.03485
1.89176
1.71426
1.58114
1.52148
1.44915
1.35045
1.27683
1.27737
1.26031
1.23583
1.23878
1.24263
1.24531
1.242
1.24122
1.24825
1.25653
1.26221
1.26308
1.25852
1.25065
1.23984
1.22725
1.21355
1.19753
1.18658
1.18335
1.18214
1.18285
1.1872
1.18909
1.18387
1.17763
1.17031
1.18035
1.29543
1.69434
2.25018
2.66975
2.83013
2.81054
2.74185
2.64358
2.58673
2.53478
2.47301
2.42695
2.39986
2.37067
2.30639
2.21907
2.17211
2.13866
2.10787
2.08155
2.06445
2.04462
2.01435
1.97992
1.92833
1.84198
1.77041
1.7364
1.71164
1.69439
1.68226
1.67349
1.67701
1.70996
1.79596
1.92913
2.1058
2.2793
2.5533
4.4826
4.34971
4.11745
3.82052
3.47631
3.19318
2.94451
2.64945
2.39765
2.23952
2.0856
1.89367
1.73437
1.65862
1.57007
1.45774
1.35832
1.33722
1.30292
1.25125
1.22653
1.22493
1.22796
1.22461
1.22362
1.23127
1.24552
1.252
1.25591
1.25728
1.25534
1.24892
1.23671
1.21937
1.20112
1.19116
1.18747
1.18465
1.18467
1.18568
1.18375
1.17791
1.17624
1.20626
1.38599
1.92351
2.47871
2.83374
2.90427
2.87237
2.79241
2.66706
2.55811
2.50579
2.47325
2.45816
2.4481
2.42958
2.39797
2.33935
2.23349
2.13569
2.09022
2.05932
2.03316
2.02103
2.02128
1.99627
1.96913
1.93778
1.88163
1.7953
1.7278
1.69492
1.67431
1.65462
1.63379
1.61812
1.6118
1.60485
1.59646
1.59436
1.62879
1.8287
4.43656
4.42243
4.24703
3.9956
3.68757
3.38397
3.13603
2.86825
2.61022
2.43265
2.27161
2.05999
1.89721
1.81129
1.7191
1.58609
1.45817
1.42733
1.38682
1.32076
1.25805
1.24921
1.25002
1.22847
1.21539
1.2193
1.23105
1.23752
1.23788
1.2375
1.23901
1.2388
1.23422
1.22331
1.21162
1.2057
1.20097
1.19629
1.19057
1.18418
1.1764
1.18033
1.23126
1.52655
2.11337
2.74368
2.88145
2.88151
2.84833
2.80502
2.7397
2.64827
2.54035
2.48759
2.45747
2.44309
2.43969
2.41202
2.37144
2.3208
2.24329
2.12875
2.05715
2.02906
2.00735
1.99782
1.98779
1.96071
1.93381
1.9061
1.86713
1.80682
1.72948
1.67718
1.65533
1.64135
1.6241
1.60188
1.57802
1.55653
1.53789
1.5274
1.49079
1.46366
4.26974
4.42251
4.3464
4.15326
3.86922
3.59485
3.34163
3.0595
2.79962
2.6207
2.44594
2.2411
2.05671
1.95894
1.85638
1.72628
1.59493
1.53866
1.48434
1.40313
1.30699
1.28892
1.28176
1.24769
1.21914
1.21526
1.22096
1.224
1.22249
1.2221
1.22495
1.22746
1.22533
1.22267
1.22233
1.2212
1.21735
1.20898
1.19894
1.18708
1.19677
1.28066
1.65141
2.35606
2.80135
2.89178
2.89393
2.90412
2.88266
2.81412
2.73248
2.64867
2.54676
2.46989
2.42638
2.39519
2.37989
2.35482
2.31663
2.2763
2.22926
2.15768
2.06288
2.01719
1.99264
1.96638
1.94076
1.91418
1.88616
1.85844
1.83377
1.804
1.75347
1.68052
1.64572
1.63166
1.61094
1.58548
1.55821
1.53236
1.50888
1.48881
1.4687
1.4225
4.05829
4.35337
4.39522
4.27853
4.04606
3.76876
3.52726
3.25468
2.99101
2.80068
2.62954
2.40055
2.21504
2.11267
2.01174
1.86523
1.71904
1.6666
1.60578
1.51788
1.40295
1.35974
1.34119
1.29622
1.24839
1.23569
1.24064
1.23398
1.21763
1.21224
1.21356
1.21434
1.21128
1.20937
1.21121
1.21595
1.21463
1.20902
1.20665
1.23076
1.4093
1.91857
2.55469
2.85362
2.95978
2.98798
2.97966
2.91027
2.82533
2.73784
2.65108
2.59607
2.54182
2.47089
2.41281
2.37591
2.33701
2.29634
2.25932
2.22329
2.19158
2.15484
2.09208
2.01578
1.96269
1.92319
1.89436
1.86979
1.84521
1.82216
1.80522
1.7864
1.75672
1.69182
1.61753
1.59043
1.56876
1.54743
1.5307
1.51293
1.49609
1.47978
1.46049
1.40878
3.80724
4.14031
4.37096
4.36141
4.1964
3.94739
3.69861
3.43546
3.1721
2.97348
2.79651
2.5886
2.38879
2.261
2.15138
2.00906
1.86368
1.79343
1.72731
1.63319
1.50807
1.46031
1.42865
1.37692
1.29555
1.25631
1.25999
1.24415
1.2147
1.2058
1.20818
1.20749
1.20043
1.19754
1.19864
1.20329
1.20446
1.20965
1.25465
1.54659
2.22521
2.80912
3.11448
3.1165
3.06498
2.98031
2.89318
2.7959
2.70711
2.65553
2.62435
2.5967
2.55227
2.4862
2.40573
2.33238
2.27748
2.23634
2.20293
2.17668
2.15484
2.12632
2.08828
2.02248
1.92951
1.87647
1.85215
1.83172
1.81039
1.79097
1.77554
1.76117
1.73908
1.68721
1.60018
1.55849
1.54186
1.52575
1.51055
1.50116
1.49021
1.47391
1.45174
1.39769
3.75364
3.89088
4.19111
4.36284
4.30392
4.11766
3.87999
3.61498
3.34533
3.14882
2.9725
2.75386
2.5571
2.43592
2.31288
2.14999
1.98963
1.92754
1.85274
1.75335
1.62765
1.56589
1.52863
1.46684
1.37718
1.31777
1.30878
1.28172
1.23607
1.21477
1.21741
1.218
1.20595
1.1957
1.19282
1.19563
1.21028
1.29152
1.66559
2.41201
3.07825
3.24371
3.2221
3.11796
2.97444
2.85036
2.7668
2.71819
2.67918
2.65796
2.66571
2.63359
2.57165
2.48926
2.37925
2.28852
2.23766
2.19998
2.17273
2.15777
2.13241
2.10079
2.06354
2.00775
1.91508
1.84068
1.81191
1.79796
1.79208
1.77547
1.75131
1.72703
1.70207
1.66205
1.58677
1.53982
1.5309
1.52385
1.50437
1.47699
1.45629
1.43635
1.41251
1.36253
3.76385
3.79833
3.9861
4.23972
4.32073
4.24584
4.05879
3.80898
3.5481
3.32018
3.12935
2.92803
2.73702
2.5971
2.46968
2.30119
2.13814
2.05944
1.9784
1.86728
1.7318
1.68146
1.63962
1.57397
1.46616
1.39274
1.37691
1.34179
1.28681
1.24069
1.23642
1.23338
1.20623
1.19274
1.19195
1.20676
1.34715
1.83372
2.63859
3.07102
3.19316
3.21986
3.21003
3.11005
2.93837
2.78873
2.73296
2.69976
2.68377
2.68986
2.6531
2.59132
2.52341
2.43767
2.33669
2.2655
2.23117
2.19928
2.16258
2.12703
2.09369
2.05598
2.01679
1.97527
1.91575
1.83942
1.78408
1.76328
1.7481
1.72533
1.69631
1.67474
1.65465
1.62997
1.58866
1.52621
1.49162
1.47975
1.45877
1.43642
1.4249
1.41052
1.38891
1.34077
3.84803
3.78515
3.83417
4.05134
4.2604
4.30061
4.20108
3.99722
3.72965
3.51217
3.31193
3.07886
2.88601
2.76516
2.625
2.45194
2.28511
2.19965
2.10522
1.98584
1.84534
1.78595
1.74485
1.67312
1.57228
1.49453
1.4614
1.41674
1.34629
1.28243
1.27912
1.26864
1.23583
1.22382
1.25261
1.45911
2.14457
2.80556
3.19784
3.26767
3.24463
3.19962
3.12314
3.02744
2.90044
2.76649
2.70369
2.6653
2.65174
2.62787
2.57366
2.52035
2.46359
2.39724
2.33483
2.27833
2.23027
2.18745
2.13964
2.09342
2.04702
1.9979
1.95868
1.93198
1.90379
1.85011
1.78113
1.74051
1.71302
1.68596
1.65802
1.64015
1.62598
1.60356
1.56731
1.5167
1.47421
1.44559
1.42229
1.40446
1.3963
1.38889
1.37153
1.32207
3.81017
3.79712
3.77629
3.8684
4.10405
4.26325
4.25703
4.14071
3.92523
3.68809
3.48118
3.23859
3.04823
2.91609
2.77454
2.58583
2.43487
2.34842
2.24666
2.10852
1.94897
1.90117
1.85454
1.7776
1.66618
1.59766
1.56211
1.50867
1.42899
1.35274
1.32664
1.30783
1.29328
1.35769
1.66437
2.43368
3.15801
3.32219
3.34154
3.26436
3.14998
3.05271
2.972
2.90846
2.86272
2.79083
2.69664
2.63832
2.58748
2.53562
2.48964
2.45784
2.43228
2.40308
2.36059
2.29002
2.20004
2.13267
2.0862
2.04427
1.99957
1.95404
1.92401
1.90951
1.89114
1.84491
1.75943
1.69843
1.67074
1.64182
1.62127
1.61096
1.60542
1.58604
1.54636
1.48545
1.43817
1.41115
1.39092
1.37652
1.36981
1.36029
1.34359
1.30441
3.42328
3.63609
3.71354
3.82926
3.98083
4.15594
4.24222
4.21321
4.07602
3.8681
3.66826
3.4244
3.21131
3.06585
2.91846
2.72463
2.57304
2.48498
2.38021
2.23927
2.08237
2.01866
1.95938
1.87417
1.76332
1.69651
1.65975
1.60339
1.5136
1.4372
1.39891
1.40069
1.49919
2.02206
2.86957
3.51786
3.51851
3.41422
3.29427
3.18018
3.06312
2.95872
2.89639
2.85889
2.83389
2.79301
2.71344
2.60234
2.50666
2.4506
2.42097
2.39959
2.39011
2.36805
2.32681
2.2443
2.14127
2.07872
2.05244
2.02957
1.99993
1.96273
1.92431
1.88528
1.84979
1.80949
1.73657
1.66762
1.64047
1.6193
1.59522
1.5762
1.5594
1.53823
1.50679
1.45618
1.41327
1.39575
1.37343
1.35022
1.34018
1.32954
1.31455
1.27649
2.0845
3.06935
3.47871
3.75271
3.95908
4.04188
4.16981
4.24263
4.19761
4.04784
3.8465
3.59695
3.38617
3.24032
3.08289
2.85474
2.70522
2.62222
2.51391
2.36301
2.21506
2.15653
2.0791
1.98079
1.85251
1.79215
1.75751
1.69535
1.61404
1.52568
1.53708
1.77877
2.45748
3.32467
3.85351
3.84511
3.66982
3.45949
3.27086
3.15987
3.07637
2.99116
2.91444
2.85467
2.80016
2.74289
2.6821
2.60107
2.48897
2.39992
2.36
2.35726
2.3355
2.29827
2.25718
2.1862
2.11399
2.07187
2.02841
1.98786
1.95239
1.91238
1.87242
1.84018
1.80596
1.76393
1.72093
1.67262
1.62382
1.58375
1.55869
1.5424
1.52434
1.50024
1.4739
1.44074
1.39501
1.36441
1.33778
1.3145
1.30578
1.29838
1.28785
1.2571
1.15018
1.811
2.63353
3.4155
3.84443
3.91001
4.04843
4.23148
4.24138
4.14831
3.97614
3.73548
3.51293
3.39173
3.25294
3.03261
2.86356
2.75077
2.62933
2.47473
2.34592
2.28315
2.20358
2.09914
1.95474
1.90121
1.84477
1.78593
1.71349
1.7616
2.17136
3.06153
3.87199
4.20763
4.15917
3.98476
3.72778
3.48626
3.32519
3.2115
3.10917
3.02095
2.93516
2.85335
2.77345
2.70259
2.64338
2.58472
2.5127
2.41291
2.31746
2.28122
2.26134
2.22518
2.17407
2.13455
2.10652
2.04602
1.96785
1.932
1.9032
1.8708
1.83308
1.80572
1.77758
1.74099
1.6947
1.64953
1.60679
1.56462
1.53558
1.51707
1.49742
1.47237
1.44246
1.40595
1.36312
1.33299
1.30891
1.28364
1.27345
1.27005
1.26147
1.23339
1.00517
1.08723
1.47025
2.33565
3.43018
3.6239
3.85735
4.11425
4.22744
4.1992
4.09269
3.91487
3.66958
3.52747
3.38475
3.17997
3.03441
2.908
2.77625
2.59023
2.46869
2.40213
2.31616
2.20929
2.07977
2.00644
1.94133
1.92776
2.08481
2.77433
3.80107
4.44557
4.51661
4.38866
4.16638
3.93602
3.74013
3.57148
3.42718
3.30126
3.18123
3.07364
2.97575
2.88362
2.79141
2.70555
2.63025
2.56217
2.50064
2.42142
2.30042
2.23557
2.21253
2.17838
2.13173
2.09621
2.06369
2.01082
1.9259
1.87365
1.84377
1.82372
1.81177
1.79668
1.77515
1.74017
1.67488
1.59334
1.55553
1.53087
1.50692
1.4872
1.46973
1.45577
1.43634
1.39474
1.33704
1.30092
1.27855
1.25686
1.24575
1.24192
1.23415
1.20369
1.00004
1.00205
1.03657
1.27041
2.1349
3.20645
3.58683
3.92915
4.15055
4.21288
4.21614
4.07484
3.83638
3.70023
3.54993
3.32829
3.17279
3.06081
2.9323
2.72032
2.60885
2.52256
2.42503
2.30611
2.20335
2.12438
2.18184
2.61138
3.61303
4.65656
4.99144
4.9013
4.71446
4.46369
4.22127
4.02058
3.86004
3.71368
3.55881
3.39823
3.25113
3.12662
3.0211
2.92802
2.83846
2.75484
2.67349
2.58194
2.48292
2.3834
2.27283
2.20624
2.18085
2.15208
2.11756
2.08767
2.05336
1.99285
1.88742
1.81731
1.80342
1.78265
1.75371
1.73489
1.71539
1.68831
1.63874
1.55613
1.51355
1.50434
1.48951
1.46719
1.44699
1.43112
1.41019
1.36842
1.31124
1.27424
1.24519
1.23002
1.22452
1.22101
1.2107
1.17456
1
1.00001
1.00062
1.01594
1.1854
1.97766
2.81406
3.54255
4.0712
4.18601
4.14882
4.07553
4.00356
3.90456
3.72417
3.478
3.29736
3.18732
3.06492
2.88031
2.75173
2.64458
2.52774
2.40966
2.35725
2.53394
3.3274
4.62839
5.53979
5.48222
5.29061
4.99171
4.72945
4.5104
4.31625
4.1474
3.99021
3.83304
3.66915
3.49537
3.32888
3.18975
3.07056
2.96342
2.86789
2.78378
2.70536
2.61736
2.51084
2.39758
2.28658
2.21127
2.17793
2.14684
2.10873
2.06529
2.00879
1.93806
1.8584
1.79038
1.76506
1.74005
1.71593
1.69915
1.6786
1.64988
1.60969
1.54413
1.47798
1.45718
1.444
1.43062
1.41621
1.40179
1.3839
1.35299
1.30416
1.25199
1.21414
1.20193
1.19859
1.1929
1.17862
1.14411
1
1
1
1.00026
1.00898
1.13704
1.60956
2.40117
3.63398
4.00716
4.02368
4.08493
4.0911
4.00416
3.82658
3.61448
3.45624
3.33945
3.17271
3.01628
2.87415
2.76524
2.64787
2.68306
3.16234
4.37115
5.63798
6.23514
6.16658
5.82889
5.40895
5.04637
4.77831
4.57478
4.39995
4.23987
4.08396
3.92606
3.76371
3.58957
3.40654
3.24297
3.11568
3.01175
2.919
2.83115
2.74404
2.64964
2.54018
2.4147
2.30591
2.25869
2.22307
2.17382
2.12111
2.0661
2.00194
1.92428
1.8392
1.77528
1.74401
1.71317
1.68218
1.66157
1.63968
1.60918
1.56735
1.51353
1.45278
1.4203
1.40936
1.40023
1.38683
1.37041
1.34676
1.31177
1.27054
1.22257
1.18634
1.17573
1.17265
1.16748
1.15396
1.12749
1
1
1
1
1.00011
1.0043
1.05583
1.29328
2.26643
3.43335
3.81061
4.03241
4.12212
4.06083
3.97126
3.81638
3.6487
3.50262
3.32184
3.13326
2.98711
2.92231
3.14114
4.15731
5.75839
6.70737
6.65927
6.47885
6.18399
5.84932
5.50225
5.18821
4.91497
4.6797
4.4813
4.31241
4.15533
3.99639
3.83332
3.66114
3.4771
3.30115
3.15897
3.05127
2.96459
2.88566
2.80199
2.69896
2.57502
2.44727
2.34521
2.26191
2.19216
2.13361
2.07877
2.03152
1.9875
1.93111
1.86142
1.77857
1.71064
1.67663
1.65672
1.64077
1.61987
1.58878
1.54646
1.49264
1.4355
1.39269
1.37458
1.36215
1.34843
1.3327
1.31057
1.27807
1.23503
1.18853
1.16127
1.15263
1.14852
1.14377
1.13262
1.10621
1
1
1
1
1
1.00003
1.00103
1.01687
1.19883
2.1236
3.09091
3.75345
4.10386
4.14553
4.0861
3.93042
3.79902
3.66353
3.47814
3.2452
3.26432
3.85924
5.47954
7.14367
7.60926
7.47097
7.06178
6.56779
6.16794
5.85799
5.58304
5.30948
5.03516
4.78157
4.56954
4.39574
4.23555
4.07277
3.90455
3.728
3.53899
3.35505
3.20473
3.08993
2.99952
2.92604
2.85815
2.77166
2.65131
2.50666
2.36613
2.2628
2.19388
2.14142
2.09336
2.04262
1.99583
1.9535
1.8908
1.80037
1.70447
1.66281
1.64867
1.64359
1.62835
1.59624
1.55315
1.49671
1.42793
1.37713
1.35246
1.33665
1.32071
1.30182
1.27998
1.25056
1.20726
1.16258
1.1438
1.1367
1.13142
1.12418
1.1141
1.08813
1
1
1
1
1
1
1
1.00025
1.00881
1.18302
1.81287
2.67177
3.82829
4.08883
4.05096
3.9864
3.90963
3.79144
3.57279
3.75439
4.92439
7.25097
8.38912
8.20091
7.85133
7.42634
7.05046
6.65731
6.27458
5.95484
5.67775
5.40279
5.12562
4.87522
4.67098
4.4966
4.32688
4.15042
3.96834
3.78663
3.60763
3.43345
3.27806
3.15188
3.04871
2.95657
2.86102
2.75231
2.63102
2.51353
2.40969
2.32279
2.2548
2.19713
2.14243
2.0858
2.01967
1.93311
1.83994
1.76531
1.7168
1.67947
1.64753
1.61878
1.58826
1.55128
1.50305
1.4406
1.37966
1.34631
1.32972
1.31572
1.30046
1.28117
1.25895
1.23509
1.19907
1.14805
1.12417
1.11682
1.11101
1.10334
1.09418
1.07059
1
1
1
1
1
1
1
1
1.00013
1.00757
1.09005
1.39506
2.63287
3.65131
3.93726
3.94543
3.98242
4.0379
4.58229
6.52295
8.79698
9.73877
9.44908
8.665
7.78253
7.2967
7.0035
6.71745
6.39714
6.07158
5.75261
5.4392
5.15026
4.90714
4.70929
4.53628
4.37
4.20063
4.02409
3.83601
3.63772
3.44808
3.29343
3.17662
3.07869
2.98322
2.88266
2.77861
2.66744
2.54234
2.41903
2.32759
2.26172
2.20536
2.15078
2.09204
2.02213
1.94122
1.85779
1.77937
1.71847
1.67717
1.64448
1.61552
1.58466
1.54785
1.49962
1.43132
1.36666
1.33542
1.31989
1.30635
1.29231
1.27641
1.25896
1.23619
1.19135
1.13664
1.11482
1.10654
1.09887
1.09041
1.08152
1.0587
1
1
1
1
1
1
1
1
1
1.00006
1.00194
1.02434
1.34277
2.45092
3.3679
3.87041
4.69111
5.86606
8.15263
9.71493
10.1969
9.73718
9.09033
8.42706
7.90156
7.49461
7.1718
6.90765
6.63257
6.32021
5.97552
5.62902
5.32176
5.07152
4.86312
4.67752
4.50425
4.33482
4.15842
3.96393
3.75416
3.55374
3.39281
3.2726
3.17186
3.07647
2.9813
2.88122
2.76368
2.62222
2.48594
2.38892
2.32099
2.2627
2.20617
2.14717
2.08224
2.00733
1.91746
1.82325
1.75223
1.70974
1.68165
1.65424
1.62134
1.58062
1.52533
1.44652
1.37703
1.35124
1.33835
1.32596
1.31302
1.29878
1.28121
1.25257
1.19871
1.14083
1.11878
1.10909
1.10028
1.09154
1.08252
1.05904
1
1
1
1
1
1
1
1
1
1
1.00001
1.0004
1.0209
1.36707
2.28474
4.16034
7.05385
10.6933
13.4508
12.9215
11.3435
9.65432
8.6977
8.2359
7.8283
7.4172
7.06917
6.7862
6.51356
6.20994
5.86789
5.51845
5.20907
4.95871
4.74838
4.55886
4.3845
4.22046
4.05196
3.86191
3.65074
3.44795
3.29103
3.17868
3.08469
2.99379
2.90016
2.79788
2.67621
2.53352
2.40263
2.314
2.25164
2.1968
2.14417
2.08841
2.02325
1.94427
1.85051
1.75901
1.69327
1.65674
1.63204
1.6067
1.57598
1.53386
1.46791
1.3799
1.32488
1.30984
1.29963
1.29056
1.28131
1.2702
1.25338
1.21775
1.15259
1.10481
1.0902
1.0821
1.07512
1.06879
1.06115
1.03519
)
;

boundaryField
{
    inlet
    {
        type            fixedValue;
        value           uniform 1;
    }
    outlet
    {
        type            zeroGradient;
    }
    bottom
    {
        type            zeroGradient;
    }
    top
    {
        type            zeroGradient;
    }
    obstacle
    {
        type            zeroGradient;
    }
    defaultFaces
    {
        type            empty;
    }
}


// ************************************************************************* //
