/*--------------------------------*- C++ -*----------------------------------*\
  =========                 |
  \\      /  F ield         | OpenFOAM: The Open Source CFD Toolbox
   \\    /   O peration     | Website:  https://openfoam.org
    \\  /    A nd           | Version:  7
     \\/     M anipulation  |
\*---------------------------------------------------------------------------*/
FoamFile
{
    version     2.0;
    format      ascii;
    class       volScalarField;
    location    "2.7";
    object      rho;
}
// * * * * * * * * * * * * * * * * * * * * * * * * * * * * * * * * * * * * * //

dimensions      [1 -3 0 0 0 0 0];

internalField   nonuniform List<scalar> 
4080
(
1.40001
1.40001
1.40001
1.40001
1.40001
1.40001
1.40001
1.40001
1.40001
1.40001
1.40001
1.40001
1.40001
1.40001
1.40001
1.40001
1.40001
1.87397
4.76083
5.51864
5.60387
5.72002
5.8173
5.90094
1.40001
1.40001
1.40001
1.40001
1.40001
1.40001
1.40001
1.40001
1.40001
1.40001
1.40001
1.40001
1.40001
1.40001
1.40001
1.40001
1.40001
1.80296
4.6365
5.4857
5.57105
5.67654
5.76255
5.80595
1.40001
1.40001
1.40001
1.40001
1.40001
1.40001
1.40001
1.40001
1.40001
1.40001
1.40001
1.40001
1.40001
1.40001
1.40001
1.40001
1.40001
1.64891
4.43135
5.44608
5.50304
5.57355
5.61088
5.65724
1.40001
1.40001
1.40001
1.40001
1.40001
1.40001
1.40001
1.40001
1.40001
1.40001
1.40001
1.40001
1.40001
1.40001
1.40001
1.40001
1.40001
1.43804
4.08592
5.38089
5.40102
5.45052
5.4413
5.4973
1.40001
1.40001
1.40001
1.40001
1.40001
1.40001
1.40001
1.40001
1.40001
1.40001
1.40001
1.40001
1.40001
1.40001
1.40001
1.40001
1.40001
1.40049
3.50581
5.21597
5.23357
5.22507
4.97964
4.25864
1.40001
1.40001
1.40001
1.40001
1.40001
1.40001
1.40001
1.40001
1.40001
1.40001
1.40001
1.40001
1.40001
1.40001
1.40001
1.40001
1.40001
1.4
2.77905
5.01693
5.12275
5.00406
4.71212
4.02039
1.40001
1.40001
1.40001
1.40001
1.40001
1.40001
1.40001
1.40001
1.40001
1.40001
1.40001
1.40001
1.40001
1.40001
1.40001
1.40001
1.40001
1.4
1.98839
4.69925
5.07781
4.86937
4.56238
3.87126
1.40001
1.40001
1.40001
1.40001
1.40001
1.40001
1.40001
1.40001
1.40001
1.40001
1.40001
1.40001
1.40001
1.40001
1.40001
1.40001
1.40001
1.4
1.47693
3.88769
4.9299
4.70691
4.41817
3.82322
1.40001
1.40001
1.40001
1.40001
1.40001
1.40001
1.40001
1.40001
1.40001
1.40001
1.40001
1.40001
1.40001
1.40001
1.40001
1.40001
1.40001
1.40001
1.40034
2.71503
4.68419
4.66181
4.34264
3.8628
1.40001
1.40001
1.40001
1.40001
1.40001
1.40001
1.40001
1.40001
1.40001
1.40001
1.40001
1.40001
1.40001
1.40001
1.40001
1.40001
1.40001
1.40001
1.4
1.67831
4.08642
4.7076
4.35446
3.92472
1.40001
1.40001
1.40001
1.40001
1.40001
1.40001
1.40001
1.40001
1.40001
1.40001
1.40001
1.40001
1.40001
1.40001
1.40001
1.40001
1.40001
1.40001
1.4
1.40978
2.86446
4.52838
4.37485
3.97683
1.40001
1.40001
1.40001
1.40001
1.40001
1.40001
1.40001
1.40001
1.40001
1.40001
1.40001
1.40001
1.40001
1.40001
1.40001
1.40001
1.40001
1.40001
1.4
1.40002
1.72027
3.84725
4.4587
4.06859
1.40001
1.40001
1.40001
1.40001
1.40001
1.40001
1.40001
1.40001
1.40001
1.40001
1.40001
1.40001
1.40001
1.40001
1.40001
1.40001
1.40001
1.40001
1.40001
1.40001
1.41281
2.49263
4.20833
4.14191
1.40001
1.40001
1.40001
1.40001
1.40001
1.40001
1.40001
1.40001
1.40001
1.40001
1.40001
1.40001
1.40001
1.40001
1.40001
1.40001
1.40001
1.40001
1.40001
1.40001
1.40009
1.57414
3.28643
4.18808
1.40001
1.40001
1.40001
1.40001
1.40001
1.40001
1.40001
1.40001
1.40001
1.40001
1.40001
1.40001
1.40001
1.40001
1.40001
1.40001
1.40001
1.40001
1.40001
1.40001
1.40001
1.40446
1.97064
3.68307
1.40001
1.40001
1.40001
1.40001
1.40001
1.40001
1.40001
1.40001
1.40001
1.40001
1.40001
1.40001
1.40001
1.40001
1.40001
1.40001
1.40001
1.40001
1.40001
1.40001
1.40001
1.40003
1.44461
2.41832
1.40001
1.40001
1.40001
1.40001
1.40001
1.40001
1.40001
1.40001
1.40001
1.40001
1.40001
1.40001
1.40001
1.40001
1.40001
1.40001
1.40001
1.40001
1.40001
1.40001
1.40001
1.40001
1.40069
1.54633
1.40001
1.40001
1.40001
1.40001
1.40001
1.40001
1.40001
1.40001
1.40001
1.40001
1.40001
1.40001
1.40001
1.40001
1.40001
1.40001
1.40001
1.40001
1.40001
1.40001
1.40001
1.40001
1.40001
1.40432
1.40001
1.40001
1.40001
1.40001
1.40001
1.40001
1.40001
1.40001
1.40001
1.40001
1.40001
1.40001
1.40001
1.40001
1.40001
1.40001
1.40001
1.40001
1.40001
1.40001
1.40001
1.40001
1.40001
1.40003
1.40001
1.40001
1.40001
1.40001
1.40001
1.40001
1.40001
1.40001
1.40001
1.40001
1.40001
1.40001
1.40001
1.40001
1.40001
1.40001
1.40001
1.40001
1.40001
1.40001
1.40001
1.40001
1.40001
1.40001
1.40001
1.40001
1.40001
1.40001
1.40001
1.40001
1.40001
1.40001
1.40001
1.40001
1.40001
1.40001
1.40001
1.40001
1.40001
1.40001
1.40001
1.40001
1.40001
1.40001
1.40001
1.40001
1.40001
1.40001
1.40001
1.40001
1.40001
1.40001
1.40001
1.40001
1.40001
1.40001
1.40001
1.40001
1.40001
1.40001
1.40001
1.40001
1.40001
1.40001
1.40001
1.40001
1.40001
1.40001
1.40001
1.40001
1.40001
1.40001
1.40001
1.40001
1.40001
1.40001
1.40001
1.40001
1.40001
1.40001
1.40001
1.40001
1.40001
1.40001
1.40001
1.40001
1.40001
1.40001
1.40001
1.40001
1.40001
1.40001
1.40001
1.40001
1.40001
1.40001
1.40001
1.40001
1.40001
1.40001
1.40001
1.40001
1.40001
1.40001
1.40001
1.40001
1.40001
1.40001
1.40001
1.40001
1.40001
1.40001
1.40001
1.40001
1.40001
1.40001
1.40001
1.40001
1.40001
1.40001
1.40001
1.40001
1.40001
1.40001
1.40001
1.40001
1.40001
1.40001
1.40001
1.40001
1.40001
1.40001
1.40001
1.40001
1.40001
1.40001
1.40001
1.40001
1.40001
1.40001
1.40001
1.40001
1.40001
1.40001
1.40001
1.40001
1.40001
1.40001
1.40001
1.40001
1.40001
1.40001
1.40001
1.40001
1.40001
1.40001
1.40001
1.40001
1.40001
1.40001
1.40001
1.40001
1.40001
1.40001
1.40001
1.40001
1.40001
1.40001
1.40001
1.40001
1.40001
1.40001
1.40001
1.40001
1.40001
1.40001
1.40001
1.40001
1.40001
1.40001
1.40001
1.40001
1.40001
1.40001
1.40001
1.40001
1.40001
1.40001
1.40001
1.40001
1.40001
1.40001
1.40001
1.40001
1.40001
1.40001
1.40001
1.40001
1.40001
1.40001
1.40001
1.40001
1.40001
1.40001
1.40001
1.40001
1.40001
1.40001
1.40001
1.40001
1.40001
1.40001
1.40001
1.40001
1.40001
1.40001
1.40001
1.40001
1.40001
1.40001
1.40001
1.40001
1.40001
1.40001
1.40001
1.40001
1.40001
1.40001
1.40001
1.40001
1.40001
1.40001
1.40001
1.40001
1.40001
1.40001
1.40001
1.40001
1.40001
1.40001
1.40001
1.40001
1.40001
1.40001
1.40001
1.40001
1.40001
1.40001
1.40001
1.40001
1.40001
1.40001
1.40001
1.40001
1.40001
1.40001
1.40001
1.40001
1.40001
1.40001
1.40001
1.40001
1.40001
1.40001
1.40001
1.40001
1.40001
1.40001
1.40001
1.40001
1.40001
1.40001
1.40001
1.40001
1.40001
1.40001
1.40001
1.40001
1.40001
1.40001
1.40001
1.40001
1.40001
1.40001
1.40001
1.40001
1.40001
1.40001
1.40001
1.40001
1.40001
1.40001
1.40001
1.40001
1.40001
1.40001
1.40001
1.40001
1.40001
1.40001
1.40001
1.40001
1.40001
1.40001
1.40001
1.40001
1.40001
1.40001
1.40001
1.40001
1.40001
1.40001
1.40001
1.40001
1.40001
1.40001
1.40001
1.40001
1.40001
1.40001
1.40001
1.40001
1.40001
1.40001
1.40001
1.40001
1.40001
1.40001
1.40001
1.40001
1.40001
1.40001
1.40001
1.40001
1.40001
1.40001
1.40001
1.40001
1.40001
1.40001
1.40001
1.40001
1.40001
1.40001
1.40001
1.40001
1.40001
1.40001
1.40001
1.40001
1.40001
1.40001
1.40001
1.40001
1.40001
1.40001
1.40001
1.40001
1.40001
1.40001
1.40001
1.40001
1.40001
1.40001
1.40001
1.40001
1.40001
1.40001
1.40001
1.40001
1.40001
1.40001
1.40001
1.40001
1.40001
1.40001
1.40001
1.40001
1.40001
1.40001
1.40001
1.40001
1.40001
1.40001
1.40001
1.40001
1.40001
1.40001
1.40001
1.40001
1.40001
1.40001
1.40001
1.40001
1.40001
1.40001
1.40001
1.40001
1.40001
1.40001
1.40001
1.40001
1.40001
1.40001
1.40001
1.40001
1.40001
1.40001
1.40001
1.40001
1.40001
1.40001
1.40001
1.40001
1.40001
1.40001
1.40001
1.40001
1.40001
1.40001
1.40001
1.40001
1.40001
1.40001
1.40001
1.40001
1.40001
1.40001
1.40001
1.40001
1.40001
1.40001
1.40001
1.40001
1.40001
1.40001
1.40001
1.40001
1.40001
1.40001
1.40001
1.40001
1.40001
1.40001
1.40001
1.40001
1.40001
1.40001
1.40001
1.40001
1.40001
1.40001
1.40001
1.40001
1.40001
1.40001
1.40001
1.40001
1.40001
1.40001
1.40001
1.40001
1.40001
1.40001
1.40001
1.40001
1.40001
1.40001
1.40001
1.40001
1.40001
1.40001
1.40001
1.40001
1.40001
1.40001
1.40001
1.40001
1.40001
1.40001
1.40001
1.40001
1.40001
1.40001
1.40001
1.40001
1.40001
1.40001
1.40001
1.40001
1.40001
1.40001
1.40001
1.40001
1.40001
1.40001
1.40001
1.40001
1.40001
1.40001
1.40001
1.40001
1.40001
1.40001
1.63478
0.610685
1.06145
1.83875
2.11368
2.25987
2.33128
2.35432
2.34915
2.34203
2.33355
2.33602
2.31525
1.34939
1.66194
2.26326
2.29273
2.32059
2.35279
2.36756
2.35887
2.35036
2.34009
2.34018
2.81487
1.95286
1.82032
2.27809
2.41278
2.35768
2.36797
2.37893
2.37113
2.36353
2.34331
2.34146
3.11878
2.42748
2.02943
2.28393
2.65416
2.62922
2.5927
2.53358
2.47286
2.43088
2.38315
2.38684
3.32729
2.77708
2.25313
2.28318
2.60174
2.85453
2.83288
2.70142
2.59713
2.50976
2.38467
2.06277
3.47112
3.00461
2.5109
2.32351
2.48089
2.82927
3.00625
2.90112
2.81434
2.70037
2.5369
2.25353
3.57788
3.18423
2.75536
2.41912
2.44442
2.71109
3.04673
3.03606
2.97505
2.8825
2.72214
2.47251
3.70678
3.35801
2.97248
2.60735
2.4822
2.57945
2.95928
3.08592
3.05949
3.0061
2.88624
2.7028
3.83274
3.50002
3.16768
2.80758
2.55642
2.57418
2.80926
3.07105
3.10737
3.07579
2.99259
2.86366
3.9914
3.66085
3.35422
3.01322
2.71253
2.60862
2.69662
2.99958
3.13759
3.12142
3.06189
2.96294
4.04617
3.82777
3.51183
3.2081
2.88916
2.67504
2.68556
2.86545
3.11166
3.16548
3.1235
3.04343
3.79331
3.9366
3.70321
3.39764
3.08908
2.81095
2.72535
2.79706
3.04447
3.20106
3.18093
3.11737
2.79199
3.81033
3.83097
3.6038
3.30842
2.9864
2.79774
2.8071
2.93282
3.17524
3.22966
3.18687
1.7004
3.03165
3.77389
3.75423
3.52858
3.2119
2.92953
2.84327
2.89296
3.09235
3.25998
3.24927
1.41489
1.85228
3.15544
3.72109
3.68785
3.4631
3.12763
2.91892
2.91401
2.98717
3.21113
3.30408
1.40017
1.43177
1.96819
3.20598
3.66636
3.63452
3.39706
3.08646
2.96572
2.98999
3.11982
3.29646
1.40001
1.40049
1.44959
2.04193
3.20834
3.61215
3.58382
3.34433
3.09469
3.02295
3.07021
3.24355
1.40001
1.40001
1.40093
1.46411
2.0742
3.17369
3.55634
3.5284
3.31673
3.11601
3.0971
3.16438
1.40001
1.40001
1.40001
1.40138
1.47216
2.06877
3.11062
3.49544
3.46791
3.29982
3.16129
3.17497
1.40001
1.40001
1.40001
1.40001
1.40168
1.47272
2.03266
3.02307
3.43273
3.4096
3.29826
3.21959
1.40001
1.40001
1.40001
1.40001
1.40001
1.40174
1.46691
1.9696
2.93243
3.36072
3.35095
3.30671
1.40001
1.40001
1.40001
1.40001
1.40001
1.40001
1.40152
1.45774
1.89629
2.80939
3.26311
3.33064
1.40001
1.40001
1.40001
1.40001
1.40001
1.40001
1.40001
1.40137
1.44274
1.82137
2.66276
3.14282
1.40001
1.40001
1.40001
1.40001
1.40001
1.40001
1.40001
1.40001
1.40088
1.43215
1.738
2.44728
1.40001
1.40001
1.40001
1.40001
1.40001
1.40001
1.40001
1.40001
1.40001
1.4006
1.42172
1.63743
1.40001
1.40001
1.40001
1.40001
1.40001
1.40001
1.40001
1.40001
1.40001
1.40001
1.40033
1.41317
1.40001
1.40001
1.40001
1.40001
1.40001
1.40001
1.40001
1.40001
1.40001
1.40001
1.40001
1.40016
1.40001
1.40001
1.40001
1.40001
1.40001
1.40001
1.40001
1.40001
1.40001
1.40001
1.40001
1.40001
1.40001
1.40001
1.40001
1.40001
1.40001
1.40001
1.40001
1.40001
1.40001
1.40001
1.40001
1.40001
1.40001
1.40001
1.40001
1.40001
1.40001
1.40001
1.40001
1.40001
1.40001
1.40001
1.40001
1.40001
1.40001
1.40001
1.40001
1.40001
1.40001
1.40001
1.40001
1.40001
1.40001
1.40001
1.40001
1.40001
1.40001
1.40001
1.40001
1.40001
1.40001
1.40001
1.40001
1.40001
1.40001
1.40001
1.40001
1.40001
1.40001
1.40001
1.40001
1.40001
1.40001
1.40001
1.40001
1.40001
1.40001
1.40001
1.40001
1.40001
1.40001
1.40001
1.40001
1.40001
1.40001
1.40001
1.40001
1.40001
1.40001
1.40001
1.40001
1.40001
1.40001
1.40001
1.40001
1.40001
1.40001
1.40001
1.40001
1.40001
1.40001
1.40001
1.40001
1.40001
1.40001
1.40001
1.40001
1.40001
1.40001
1.40001
1.40001
1.40001
1.40001
1.40001
1.40001
1.40001
1.09114
0.777517
0.800866
0.866638
0.934416
1.00799
1.02475
1.01815
1.00822
0.988187
0.97887
0.977939
0.982759
0.985528
0.982808
0.981482
0.980463
0.977567
0.974384
0.971583
0.969857
0.970522
0.972992
0.973303
0.971976
0.969907
0.966942
0.963122
0.960196
0.958425
0.957338
0.957288
0.959823
0.96134
0.960318
0.958315
0.955586
0.951258
0.946173
0.943104
0.942139
0.942336
0.945697
0.948575
0.947587
0.945439
0.940061
0.963639
1.84849
2.29475
2.34607
2.37242
2.38855
2.40999
2.42093
2.42145
2.41447
2.39784
2.3769
2.36042
2.35271
2.35306
2.35798
2.365
2.36896
2.36039
2.33162
2.29199
2.25265
2.21792
2.19069
2.17253
2.16688
2.17383
2.18872
2.19087
2.17146
2.13989
2.08789
2.02476
1.98358
1.96088
1.94924
1.95531
1.61414
1.23019
1.08356
1.02418
0.988881
1.00097
1.00149
0.993892
0.999418
1.00565
1.00754
1.00778
1.00642
1.00619
1.00379
0.99957
0.996778
0.995218
0.993331
0.991471
0.988761
0.984753
0.982015
0.980481
0.979887
0.980479
0.980075
0.978764
0.97733
0.975308
0.971843
0.967826
0.964968
0.963575
0.963583
0.965099
0.965228
0.964007
0.962206
0.958948
0.954502
0.95064
0.948607
0.947884
0.949497
0.9495
0.945627
0.952233
1.80874
2.38684
2.42688
2.42321
2.41518
2.42044
2.42679
2.42888
2.43954
2.45055
2.44289
2.42056
2.39531
2.37374
2.35568
2.34604
2.34965
2.35899
2.35928
2.3452
2.32217
2.29411
2.25998
2.22293
2.19215
2.17099
2.16458
2.1641
2.15286
2.13313
2.11066
2.08534
2.05021
2.01081
1.98575
1.96252
1.9727
1.5922
1.28291
1.1413
1.07009
1.00567
1.01019
1.03748
1.06918
1.09438
1.09283
1.08568
1.082
1.07439
1.0631
1.0468
1.03557
1.03373
1.0341
1.03741
1.03935
1.03763
1.03345
1.02745
1.02007
1.01363
1.01073
1.00965
1.00997
1.01173
1.01147
1.00941
1.00453
0.997664
0.993066
0.990756
0.989551
0.989501
0.990438
0.990266
0.989037
0.986931
0.982038
0.975378
0.969492
0.964564
0.965274
0.995316
1.77238
2.57201
2.63458
2.56142
2.52796
2.53528
2.54292
2.53888
2.54974
2.56714
2.573
2.57055
2.55785
2.53371
2.49947
2.46124
2.4322
2.41564
2.41087
2.40875
2.40269
2.39393
2.38018
2.3588
2.32401
2.27192
2.21518
2.17575
2.14981
2.13401
2.13295
2.13988
2.13799
2.12309
2.09895
2.0292
2.31145
1.95676
1.62858
1.37905
1.28569
1.17767
1.10063
1.10479
1.11032
1.11604
1.12192
1.12975
1.13806
1.14031
1.13451
1.11836
1.10174
1.09763
1.09763
1.09726
1.09636
1.09542
1.09223
1.08595
1.0798
1.07446
1.0699
1.06676
1.06495
1.06308
1.06139
1.05959
1.05489
1.04844
1.0452
1.04306
1.04108
1.03938
1.03751
1.0355
1.03342
1.03108
1.0264
1.01986
1.01346
1.0135
1.03577
1.1721
1.71333
2.64636
2.89852
2.82806
2.76672
2.73777
2.71091
2.69831
2.70098
2.7083
2.71115
2.71423
2.71227
2.69419
2.66676
2.62711
2.58517
2.55747
2.53964
2.52721
2.51326
2.49841
2.48571
2.46979
2.44721
2.411
2.35081
2.28697
2.25089
2.23175
2.22235
2.22109
2.2196
2.20928
2.19258
2.13354
2.5834
2.24735
1.95514
1.66774
1.49122
1.36508
1.22863
1.17168
1.15453
1.13712
1.14109
1.15639
1.17159
1.18922
1.19504
1.18967
1.18086
1.17567
1.17112
1.16467
1.15745
1.15076
1.14398
1.13599
1.13224
1.13076
1.12994
1.12913
1.12789
1.12541
1.12233
1.11745
1.10795
1.09977
1.09765
1.09662
1.09598
1.09556
1.09457
1.09301
1.09058
1.08564
1.07609
1.06678
1.06685
1.09116
1.23104
1.62027
1.8612
2.28136
2.65964
2.85414
2.93224
2.97263
2.93318
2.9151
2.88723
2.85207
2.83129
2.82566
2.83014
2.82067
2.80263
2.77796
2.7493
2.71468
2.67811
2.65108
2.62999
2.61026
2.5918
2.5714
2.54786
2.51732
2.47128
2.41057
2.3634
2.34157
2.32775
2.31814
2.30267
2.28306
2.26182
2.21297
2.76848
2.49345
2.21287
1.94026
1.72772
1.59002
1.43643
1.31211
1.27152
1.22755
1.18556
1.18613
1.19034
1.18973
1.19081
1.19874
1.21311
1.22771
1.23199
1.22828
1.21877
1.20246
1.1852
1.17317
1.16932
1.16821
1.16882
1.17326
1.17733
1.17628
1.17229
1.16473
1.15357
1.14476
1.14079
1.13876
1.13746
1.13716
1.13806
1.13841
1.1374
1.13119
1.12095
1.11767
1.13788
1.31014
1.66771
2.05324
2.06976
2.11566
2.24758
2.51185
2.73729
2.90328
2.97921
3.0449
3.02168
2.97166
2.94723
2.91458
2.88938
2.87561
2.87072
2.86909
2.86176
2.83592
2.79098
2.73201
2.68954
2.66593
2.64839
2.63564
2.61908
2.59856
2.57337
2.53665
2.48221
2.42924
2.4022
2.38397
2.36569
2.34588
2.3263
2.28989
2.89443
2.67474
2.43412
2.18169
1.94924
1.78762
1.6361
1.49014
1.41192
1.34394
1.25587
1.21891
1.21407
1.19795
1.19461
1.20507
1.22395
1.2358
1.24227
1.24905
1.24888
1.24329
1.22996
1.21686
1.20928
1.20255
1.19795
1.19929
1.20065
1.19938
1.19516
1.18936
1.18391
1.17967
1.17738
1.17588
1.17325
1.17179
1.17178
1.17095
1.16612
1.1569
1.15594
1.17495
1.33235
1.79705
2.09924
2.2193
2.18674
2.13962
2.15068
2.19807
2.32641
2.55243
2.77461
2.93444
2.9907
2.99825
3.00916
2.9759
2.94921
2.92408
2.9115
2.91101
2.90845
2.89581
2.86502
2.80354
2.73675
2.70075
2.68026
2.66539
2.65742
2.64674
2.6294
2.60763
2.57232
2.51631
2.45697
2.42034
2.39901
2.38082
2.36901
2.34241
2.99704
2.82125
2.61055
2.37095
2.1562
1.98985
1.8236
1.65841
1.56066
1.48117
1.38459
1.30738
1.28702
1.25371
1.22571
1.2248
1.23164
1.23416
1.23555
1.24224
1.24848
1.25395
1.25767
1.2577
1.25321
1.24463
1.23306
1.22363
1.21651
1.20877
1.20234
1.20037
1.20027
1.20154
1.2042
1.20501
1.20302
1.1998
1.1954
1.18654
1.17514
1.17588
1.20511
1.36772
1.81428
2.17891
2.29114
2.27359
2.2398
2.18552
2.14502
2.14434
2.15753
2.2047
2.34316
2.56327
2.78475
2.89111
2.96389
2.96903
2.97185
2.95019
2.93826
2.93386
2.92193
2.90604
2.89024
2.8575
2.79815
2.73931
2.70627
2.68774
2.67479
2.66631
2.65327
2.63607
2.61437
2.57849
2.5214
2.46086
2.42389
2.40334
2.39103
2.36669
3.09046
2.93838
2.75809
2.55233
2.33139
2.15994
1.99998
1.83259
1.71221
1.62521
1.50955
1.41325
1.37533
1.33827
1.28244
1.24615
1.2466
1.24065
1.23417
1.23626
1.24654
1.25297
1.25659
1.26188
1.26759
1.267
1.26168
1.25094
1.23838
1.22486
1.21376
1.21195
1.21199
1.21496
1.22095
1.22323
1.22187
1.21751
1.20798
1.19314
1.19001
1.21902
1.44678
1.83494
2.2316
2.34824
2.34385
2.30455
2.25269
2.2026
2.16122
2.14963
2.13926
2.14835
2.15859
2.20514
2.34699
2.54245
2.74692
2.86755
2.92194
2.94328
2.94864
2.94569
2.93792
2.90957
2.89365
2.87584
2.8482
2.80339
2.75278
2.71229
2.6887
2.67259
2.65864
2.64378
2.62564
2.60253
2.56942
2.5208
2.46584
2.42351
2.40489
2.37827
3.18057
3.05329
2.89123
2.70283
2.50063
2.32683
2.162
1.99095
1.86302
1.76617
1.65592
1.54003
1.47903
1.4348
1.36484
1.30779
1.29954
1.28052
1.2548
1.24545
1.24762
1.24915
1.25071
1.25462
1.26472
1.27009
1.26967
1.26642
1.25969
1.24866
1.23748
1.23093
1.22822
1.22881
1.23175
1.23259
1.23099
1.22417
1.21174
1.20851
1.23071
1.46379
1.94369
2.25266
2.38017
2.36005
2.33385
2.3043
2.27056
2.24652
2.21169
2.1804
2.15859
2.14041
2.12844
2.13288
2.14112
2.18281
2.30674
2.51607
2.70051
2.84984
2.88235
2.91812
2.92697
2.92196
2.91175
2.88803
2.87173
2.84969
2.8187
2.77045
2.71514
2.67936
2.6614
2.6451
2.62695
2.60824
2.58939
2.56489
2.52448
2.46467
2.42388
2.38992
3.26515
3.16401
3.02142
2.84541
2.65425
2.48682
2.32417
2.14501
2.01279
1.91277
1.79525
1.666
1.59974
1.5467
1.46806
1.37919
1.35849
1.33238
1.29202
1.26045
1.25642
1.25581
1.25161
1.25306
1.26013
1.26817
1.26993
1.2717
1.27156
1.26768
1.26064
1.2549
1.25072
1.24694
1.24315
1.24056
1.23621
1.22636
1.22467
1.25783
1.46278
1.99836
2.27848
2.38491
2.40898
2.38043
2.33484
2.30682
2.28454
2.27206
2.2545
2.21488
2.17445
2.14352
2.11908
2.10486
2.10099
2.11253
2.12249
2.16757
2.28437
2.47988
2.65379
2.79097
2.85982
2.88077
2.89811
2.91616
2.90848
2.88636
2.8662
2.82935
2.76946
2.70365
2.67235
2.65639
2.6406
2.62462
2.6082
2.5908
2.56615
2.51913
2.45967
2.40701
3.3226
3.26612
3.14803
2.99032
2.80472
2.63593
2.48036
2.31156
2.15593
2.05264
1.93909
1.81012
1.71584
1.65685
1.57635
1.48216
1.44121
1.40927
1.35699
1.29635
1.29047
1.28722
1.27097
1.2637
1.26598
1.26907
1.26867
1.2683
1.26965
1.27262
1.27366
1.27256
1.26999
1.26547
1.25827
1.24997
1.23994
1.24111
1.29206
1.53454
2.02218
2.39636
2.43774
2.43722
2.417
2.3753
2.33816
2.32266
2.30787
2.29623
2.28283
2.2586
2.20856
2.14871
2.11721
2.0992
2.0881
2.08887
2.09361
2.10332
2.10262
2.13642
2.23442
2.38572
2.58161
2.72252
2.8179
2.86873
2.89861
2.92039
2.90473
2.86953
2.82512
2.75256
2.69215
2.67451
2.66217
2.65001
2.63516
2.61813
2.59681
2.56249
2.50654
2.43268
3.36375
3.34292
3.26064
3.12222
2.95282
2.79073
2.6317
2.45405
2.30928
2.19871
2.07634
1.93105
1.84664
1.77738
1.69148
1.58332
1.53174
1.49845
1.44104
1.37293
1.34324
1.32752
1.29808
1.27327
1.27056
1.27316
1.26983
1.26813
1.27086
1.27937
1.28379
1.28304
1.28117
1.27871
1.27342
1.26212
1.26001
1.30569
1.6384
2.09381
2.4654
2.52027
2.4775
2.41794
2.38298
2.35491
2.33917
2.34801
2.34973
2.33163
2.31365
2.28884
2.24578
2.18508
2.13891
2.11543
2.10451
2.10481
2.09165
2.07693
2.06868
2.07084
2.06313
2.07817
2.15833
2.32157
2.52647
2.68129
2.78818
2.85584
2.8813
2.88837
2.87085
2.81234
2.74099
2.70742
2.69196
2.67703
2.66333
2.64772
2.62828
2.59868
2.55204
2.46737
3.338
3.40817
3.36476
3.25808
3.10233
2.9294
2.78345
2.62488
2.4513
2.32781
2.21991
2.07465
1.96697
1.89857
1.81583
1.69757
1.63874
1.59736
1.53691
1.45059
1.41752
1.39752
1.3614
1.3136
1.29652
1.29588
1.28187
1.27581
1.27881
1.28584
1.28751
1.28547
1.28518
1.28443
1.28129
1.28375
1.33142
1.66042
2.25107
2.4996
2.56122
2.53249
2.45956
2.39852
2.37153
2.36355
2.35774
2.35812
2.36521
2.34682
2.32191
2.29862
2.26772
2.22802
2.18796
2.1545
2.13774
2.12028
2.09688
2.07308
2.05491
2.04498
2.03919
2.04425
2.02528
2.03443
2.10405
2.26378
2.45064
2.62266
2.74775
2.82886
2.83955
2.83401
2.79373
2.7509
2.72425
2.70375
2.6886
2.67067
2.65312
2.62701
2.58854
2.50575
3.27388
3.41719
3.42403
3.36706
3.24837
3.09082
2.9221
2.76504
2.61024
2.47859
2.35504
2.21148
2.09636
2.02573
1.93831
1.81932
1.74131
1.69819
1.63759
1.55368
1.49786
1.47191
1.43281
1.37228
1.3448
1.33701
1.31664
1.29388
1.28628
1.28911
1.28918
1.28524
1.28684
1.28883
1.29606
1.37431
1.68589
2.31667
2.55478
2.60111
2.60417
2.58714
2.52658
2.46837
2.41836
2.39146
2.37849
2.36446
2.34721
2.33103
2.3165
2.29565
2.2745
2.25814
2.23733
2.20059
2.15579
2.12278
2.0968
2.07264
2.05344
2.04179
2.03811
2.03067
2.02139
2.00633
1.95876
1.96118
2.02495
2.16889
2.36161
2.56547
2.71533
2.77383
2.77521
2.76
2.74998
2.73767
2.71227
2.68654
2.66634
2.64053
2.61082
2.54051
3.24816
3.3757
3.47036
3.45014
3.37047
3.23379
3.08487
2.92456
2.7454
2.614
2.49845
2.35718
2.23463
2.15401
2.06187
1.93479
1.85849
1.80795
1.74072
1.64149
1.59163
1.56529
1.52176
1.45392
1.40621
1.3941
1.36987
1.3341
1.3118
1.3121
1.30752
1.2948
1.29497
1.30715
1.40694
1.8009
2.32596
2.62834
2.63646
2.63929
2.63607
2.61285
2.5795
2.53563
2.4821
2.43231
2.3957
2.36723
2.344
2.32735
2.31714
2.30878
2.299
2.28696
2.26602
2.23347
2.17564
2.11512
2.09055
2.07528
2.0611
2.05476
2.04627
2.03047
2.01576
1.99737
1.96324
1.90845
1.88859
1.90023
1.96181
2.09888
2.31062
2.52178
2.65727
2.70045
2.7186
2.70899
2.70473
2.69593
2.6695
2.64457
2.6233
2.56655
3.2803
3.32126
3.44403
3.50729
3.47249
3.37065
3.23111
3.08544
2.91741
2.76501
2.63644
2.49087
2.3656
2.28645
2.2009
2.06846
1.97393
1.91947
1.85361
1.74914
1.68701
1.65695
1.61187
1.5381
1.49128
1.47155
1.44145
1.38678
1.34451
1.34074
1.33254
1.31719
1.32526
1.42226
1.89805
2.4113
2.6811
2.68659
2.64241
2.6184
2.61025
2.6062
2.59337
2.56833
2.53481
2.48178
2.43145
2.39766
2.36843
2.34649
2.33167
2.31694
2.30332
2.28553
2.26081
2.23257
2.19174
2.13109
2.0871
2.07357
2.06954
2.06667
2.05368
2.0353
2.01118
1.98335
1.95303
1.91119
1.87675
1.8609
1.85332
1.86561
1.92838
2.06227
2.25066
2.40911
2.56723
2.61764
2.64316
2.65245
2.66058
2.65551
2.64006
2.58864
3.33876
3.34827
3.39805
3.49394
3.5252
3.47627
3.37215
3.23285
3.0696
2.93212
2.79688
2.64395
2.49513
2.40898
2.31898
2.19928
2.10359
2.04604
1.97341
1.85563
1.78753
1.7538
1.70692
1.62616
1.56894
1.5509
1.52024
1.46461
1.41518
1.39085
1.36762
1.37719
1.50896
1.95399
2.60219
2.75852
2.73418
2.6719
2.62524
2.60722
2.60409
2.60246
2.59079
2.57283
2.55309
2.52001
2.47473
2.42804
2.38564
2.35083
2.32625
2.30643
2.28781
2.27148
2.25067
2.22651
2.19924
2.16259
2.10896
2.07674
2.06969
2.05751
2.03733
2.01423
1.99063
1.96583
1.94024
1.91768
1.88741
1.85603
1.84111
1.82949
1.82127
1.82843
1.87092
1.963
2.10543
2.27546
2.42495
2.52836
2.57498
2.62053
2.62868
2.60162
3.31073
3.39319
3.41521
3.46555
3.54447
3.5373
3.48483
3.37327
3.21718
3.08153
2.95566
2.79541
2.64798
2.55213
2.44953
2.3134
2.2204
2.16675
2.09297
1.98428
1.90286
1.85838
1.8032
1.71435
1.65851
1.63723
1.6018
1.54201
1.48747
1.45778
1.47276
1.66078
2.12517
2.70857
2.91125
2.86654
2.80028
2.7193
2.65434
2.627
2.61433
2.60522
2.58428
2.56179
2.54484
2.52571
2.49947
2.45749
2.39903
2.34743
2.3184
2.29779
2.27788
2.25956
2.24755
2.22912
2.20337
2.17242
2.1294
2.07325
2.04784
2.03607
2.01909
1.99811
1.97668
1.96142
1.94315
1.91577
1.88623
1.86048
1.83607
1.8176
1.80742
1.7985
1.78696
1.77741
1.80024
1.86263
1.98695
2.16911
2.33294
2.4617
2.57106
2.57642
3.04885
3.36512
3.41397
3.43465
3.53867
3.58376
3.55282
3.47067
3.34499
3.21436
3.09412
2.94668
2.80046
2.69239
2.58379
2.44275
2.34239
2.28302
2.20715
2.09274
2.01766
1.97292
1.91694
1.81705
1.75348
1.72391
1.68354
1.62972
1.5683
1.58356
1.83285
2.39402
2.88011
3.07908
3.0264
2.93415
2.85541
2.7795
2.71407
2.67012
2.63354
2.60574
2.57645
2.54743
2.5282
2.51612
2.49958
2.4696
2.41975
2.34341
2.29999
2.28641
2.27397
2.25238
2.236
2.21973
2.1987
2.17251
2.12943
2.06372
2.0294
2.02045
2.00731
1.98881
1.97764
1.96603
1.9459
1.90742
1.85149
1.81553
1.8009
1.79536
1.79336
1.78436
1.7702
1.75653
1.73848
1.70982
1.71079
1.76623
1.91132
2.07716
2.28037
2.44214
2.21803
3.06259
3.28365
3.36811
3.50272
3.60194
3.59747
3.56115
3.47678
3.35958
3.23001
3.06431
2.93545
2.83664
2.7256
2.58087
2.47258
2.40233
2.31836
2.21166
2.12678
2.07906
2.01819
1.92367
1.86402
1.81856
1.77545
1.71788
1.75063
2.05591
2.71693
3.13888
3.24013
3.17476
3.06669
2.97726
2.91556
2.86467
2.8083
2.74065
2.6752
2.62129
2.57824
2.54189
2.51602
2.50062
2.4871
2.46315
2.4231
2.35832
2.29689
2.26707
2.24899
2.24393
2.23745
2.21974
2.19598
2.16205
2.10648
2.04098
2.01535
2.00727
2.00457
2.0006
1.98756
1.96711
1.93883
1.8978
1.83785
1.78642
1.77386
1.7689
1.7678
1.76625
1.7572
1.74554
1.72573
1.6974
1.64466
1.61505
1.63056
1.69222
1.81315
2.09708
1.54137
2.10491
2.92927
3.23025
3.41786
3.58633
3.63623
3.63055
3.5795
3.49704
3.38972
3.23364
3.0805
2.95657
2.84216
2.70677
2.61572
2.53948
2.44457
2.31854
2.24303
2.18903
2.11748
2.02639
1.956
1.91446
1.89131
1.99247
2.39037
3.11533
3.42749
3.43535
3.36552
3.25848
3.15791
3.08467
3.02634
2.97237
2.91017
2.8298
2.74085
2.66266
2.60351
2.55783
2.52262
2.49392
2.46734
2.43993
2.40595
2.35105
2.29401
2.26575
2.24343
2.22323
2.20073
2.17639
2.15926
2.13771
2.09332
2.03595
2.01784
2.01046
1.99623
1.97837
1.95963
1.93712
1.91118
1.87935
1.8321
1.77922
1.75299
1.74688
1.74761
1.74483
1.73283
1.71995
1.70724
1.68677
1.64148
1.5838
1.57151
1.57465
1.58989
1.71948
1.4066
1.49445
2.00519
2.64555
3.18286
3.58211
3.6189
3.59063
3.60534
3.58529
3.51712
3.38231
3.23388
3.10204
2.96579
2.81694
2.73056
2.65309
2.56506
2.452
2.3697
2.30232
2.21592
2.12431
2.04212
2.05367
2.253
2.86824
3.50926
3.77504
3.71144
3.5722
3.44842
3.35438
3.28266
3.21363
3.14432
3.07508
2.99951
2.91238
2.81464
2.71935
2.64126
2.58275
2.53996
2.5059
2.47509
2.44325
2.40342
2.35234
2.29268
2.24034
2.20971
2.19074
2.16783
2.13933
2.12527
2.11312
2.08911
2.03516
1.97898
1.96296
1.95641
1.94759
1.93308
1.91321
1.89069
1.86653
1.83379
1.78642
1.74387
1.72448
1.71804
1.71139
1.70105
1.6877
1.67231
1.65769
1.63816
1.58846
1.54721
1.54198
1.54084
1.55826
1.40008
1.40317
1.46912
1.77788
2.37626
3.25101
3.50658
3.56525
3.64596
3.64711
3.5972
3.48016
3.34947
3.24129
3.09494
2.95202
2.86709
2.77231
2.66814
2.55155
2.48947
2.41359
2.33539
2.22418
2.25294
2.58078
3.33415
3.96565
4.10703
4.02941
3.86869
3.70269
3.57699
3.47324
3.38167
3.30035
3.22404
3.149
3.07046
2.9825
2.88267
2.78226
2.69816
2.63402
2.58178
2.53534
2.49057
2.44571
2.40392
2.3632
2.30016
2.22923
2.18983
2.16431
2.14043
2.11652
2.10251
2.08656
2.06274
2.02619
1.96547
1.92734
1.91645
1.90593
1.89288
1.87912
1.86578
1.84865
1.8232
1.78341
1.74133
1.70471
1.68919
1.68251
1.67388
1.66117
1.64589
1.63149
1.61482
1.58226
1.53456
1.51913
1.51713
1.51393
1.40001
1.40003
1.40165
1.42999
1.59773
2.29721
3.06139
3.39507
3.65013
3.72056
3.68222
3.60774
3.48951
3.35894
3.20372
3.09661
2.99796
2.90139
2.78939
2.67789
2.58623
2.5099
2.45233
2.55918
3.10305
3.84747
4.35401
4.396
4.30033
4.14642
3.98521
3.82918
3.69302
3.57362
3.4657
3.37094
3.28545
3.20597
3.12895
3.04702
2.95183
2.84677
2.7542
2.68778
2.63542
2.58672
2.53654
2.4828
2.42678
2.36754
2.29595
2.22133
2.17785
2.14813
2.11876
2.09527
2.08219
2.06696
2.0421
2.00296
1.94247
1.89475
1.87244
1.85597
1.84667
1.8422
1.83546
1.82266
1.80374
1.77908
1.7403
1.68935
1.65893
1.65084
1.64331
1.63174
1.61846
1.60789
1.59711
1.57329
1.53064
1.50541
1.50188
1.49433
1.40001
1.40001
1.40001
1.40051
1.41022
1.54131
2.18002
2.84072
3.44123
3.71555
3.72628
3.67696
3.57729
3.47688
3.357
3.23957
3.11703
3.01659
2.89006
2.79372
2.68168
2.69673
2.95868
3.75039
4.44389
4.75818
4.72551
4.58863
4.40676
4.23016
4.08678
3.94859
3.8033
3.66231
3.54226
3.44211
3.35119
3.26536
3.18509
3.10629
3.0184
2.9167
2.81457
2.73047
2.66431
2.60804
2.55481
2.50018
2.44309
2.38255
2.31609
2.24815
2.19385
2.15196
2.11549
2.09055
2.0733
2.05128
2.02013
1.97903
1.92182
1.8709
1.84345
1.82422
1.81289
1.81124
1.80773
1.79689
1.77934
1.75105
1.71381
1.66913
1.63234
1.62242
1.61589
1.60595
1.59506
1.58799
1.58134
1.56949
1.53833
1.50453
1.49344
1.48215
1.40001
1.40001
1.40001
1.40001
1.40014
1.40599
1.52712
1.92002
2.64293
3.52745
3.63556
3.63755
3.61401
3.57041
3.46041
3.33203
3.23026
3.13076
2.99412
2.87861
2.95898
3.50212
4.50569
5.14192
5.0599
4.95792
4.78941
4.62152
4.45863
4.31244
4.183
4.04852
3.90158
3.75418
3.62793
3.52262
3.4273
3.33577
3.24475
3.15072
3.05095
2.94995
2.85488
2.77317
2.70622
2.64619
2.58799
2.52999
2.46537
2.39633
2.32645
2.26291
2.21115
2.16587
2.12957
2.10422
2.0812
2.05344
2.01158
1.95315
1.89582
1.85517
1.83228
1.81294
1.79596
1.78745
1.778
1.76073
1.73431
1.70546
1.67721
1.64709
1.61068
1.59609
1.59061
1.58394
1.57852
1.574
1.56634
1.5499
1.5173
1.48433
1.47517
1.46713
1.40001
1.40001
1.40001
1.40001
1.40001
1.40008
1.40472
1.45233
1.69046
2.67909
3.29329
3.54725
3.67977
3.64332
3.55286
3.4529
3.36037
3.21729
3.10247
3.30327
4.20367
5.19962
5.67052
5.58757
5.29541
5.00284
4.80665
4.65463
4.52068
4.39683
4.27183