/*--------------------------------*- C++ -*----------------------------------*\
  =========                 |
  \\      /  F ield         | OpenFOAM: The Open Source CFD Toolbox
   \\    /   O peration     | Website:  https://openfoam.org
    \\  /    A nd           | Version:  7
     \\/     M anipulation  |
\*---------------------------------------------------------------------------*/
FoamFile
{
    version     2.0;
    format      ascii;
    class       volScalarField;
    location    "3";
    object      p;
}
// * * * * * * * * * * * * * * * * * * * * * * * * * * * * * * * * * * * * * //

dimensions      [1 -1 -2 0 0 0 0];

internalField   nonuniform List<scalar> 
16192
(
2.4178
2.41051
2.39833
2.37057
2.32368
2.28821
2.27604
2.27058
2.26805
2.26727
2.27095
2.2867
2.31681
2.34131
2.34577
2.34227
2.33533
2.31905
2.28019
2.23495
2.21996
2.21933
2.22302
2.22984
2.24189
2.26967
2.31422
2.3367
2.33469
2.32765
2.31724
2.29301
2.23863
2.18425
2.16762
2.16314
2.16166
2.16428
2.18613
2.2236
2.23361
2.23073
2.22572
2.2141
2.18466
2.14286
2.12278
2.11731
2.11573
2.11562
2.12488
2.1532
2.17828
2.18
2.17552
2.16686
2.14567
2.10002
2.05728
2.04583
2.04282
2.04137
2.04125
2.04802
2.07307
2.1106
2.12307
2.12047
2.11306
2.0978
2.06157
2.01424
1.99518
1.99054
1.98926
1.98882
1.99398
2.01382
2.04112
2.04837
2.04495
2.0365
2.01728
1.98553
1.96902
1.96638
1.96581
1.96766
1.97542
1.99191
2.00629
2.00835
2.00549
1.99802
1.98016
1.94091
1.90809
1.89972
1.89727
1.89571
1.89604
1.90835
1.94383
1.97537
1.97745
1.97285
1.96622
1.95134
1.91383
1.87327
1.86059
1.85781
1.85613
1.85469
1.85423
1.85524
1.85535
1.85378
1.85212
1.85092
1.85056
1.85103
1.85312
1.85592
1.8538
1.8525
1.83561
1.828
1.86808
2.04141
2.36755
2.75211
3.06926
3.33282
3.50314
3.58661
3.60195
3.6054
3.5939
3.55266
3.49024
3.43084
3.41749
3.41979
3.43412
3.47322
3.52815
3.55215
3.54895
3.53497
3.4974
3.42139
3.35572
3.34323
3.34301
3.34827
3.37555
3.43381
3.48307
3.4891
3.48168
3.45813
3.40252
3.32378
3.28351
3.27699
3.27588
3.27946
3.30119
3.35343
3.39773
3.39813
3.39129
3.37243
3.32901
3.27358
3.24874
3.24487
3.24549
3.25216
3.27496
3.30126
3.30166
3.29767
3.2908
3.2778
3.25622
3.23267
3.21418
3.20458
3.19966
3.19515
3.19042
3.18658
3.18523
3.19018
3.19881
3.20353
3.20372
3.20024
3.18697
3.14947
3.09454
3.06419
3.05889
3.0584
3.05811
3.06417
3.09236
3.1338
3.14488
3.13942
3.12901
3.11045
3.07946
3.0556
3.05199
3.05377
3.05763
3.0659
3.07062
3.06812
3.06188
3.04957
3.02765
2.99371
2.96608
2.95164
2.9466
2.94484
2.94554
2.95451
2.97158
2.98204
2.98424
2.9842
2.98253
2.97765
2.9657
2.94133
2.90669
2.86871
2.84543
2.83991
2.83971
2.84657
2.86087
2.87562
2.89584
2.91306
2.91247
2.8999
2.86292
2.40719
2.40556
2.39837
2.38542
2.36236
2.32479
2.28704
2.26899
2.26288
2.25959
2.25839
2.25976
2.26901
2.29175
2.31964
2.33066
2.32921
2.32303
2.31077
2.28186
2.23912
2.21672
2.2151
2.21767
2.22251
2.23082
2.25213
2.29338
2.32302
2.32432
2.31759
2.30687
2.28303
2.22903
2.1738
2.15767
2.15386
2.15261
2.15566
2.17874
2.21785
2.22848
2.22536
2.22053
2.20909
2.17795
2.13221
2.11132
2.10616
2.10454
2.10413
2.11208
2.14036
2.16954
2.17285
2.17055
2.16485
2.14794
2.1036
2.05379
2.03813
2.03428
2.03247
2.03146
2.03596
2.05908
2.09867
2.1126
2.11036
2.10535
2.09306
2.05894
2.00842
1.9864
1.98134
1.97985
1.97898
1.98297
2.00193
2.03054
2.03871
2.03589
2.02951
2.01372
1.98415
1.96504
1.96112
1.9602
1.96109
1.96686
1.98072
1.99447
1.99676
1.99379
1.98637
1.96823
1.93009
1.90027
1.89398
1.89224
1.89163
1.89482
1.90873
1.9379
1.96582
1.97063
1.9665
1.95797
1.94027
1.90028
1.861
1.849
1.84575
1.8437
1.84216
1.84324
1.84768
1.84979
1.84946
1.84884
1.84919
1.84985
1.84959
1.84889
1.84997
1.84827
1.84285
1.83396
1.80458
1.80701
1.85962
2.04277
2.36965
2.78657
3.0858
3.2953
3.48706
3.56702
3.56644
3.56278
3.54134
3.49543
3.45153
3.43202
3.43249
3.43748
3.4612
3.50418
3.51996
3.51824
3.50818
3.47685
3.41575
3.35783
3.34259
3.34244
3.34721
3.36628
3.4141
3.45844
3.46273
3.45894
3.44349
3.39519
3.31637
3.27453
3.26866
3.26695
3.26748
3.28363
3.33252
3.38451
3.39054
3.38681
3.37322
3.33348
3.27382
3.24114
3.23234
3.2313
3.23636
3.26206
3.29469
3.29687
3.29288
3.28577
3.26796
3.23583
3.20747
3.19123
3.18524
3.18193
3.1784
3.17515
3.17413
3.17909
3.19609
3.21565
3.21982
3.21716
3.21125
3.19367
3.14234
3.07176
3.04109
3.03261
3.02758
3.02631
3.03447
3.06953
3.12061
3.13846
3.14045
3.13532
3.12017
3.08774
3.05482
3.04122
3.03938
3.04136
3.04707
3.05075
3.04798
3.04089
3.02695
3.00592
2.98049
2.96033
2.95264
2.95209
2.96056
2.97125
2.96962
2.96769
2.96618
2.96384
2.96009
2.95357
2.9438
2.9317
2.91968
2.90374
2.87722
2.85667
2.85377
2.85451
2.85378
2.85142
2.85252
2.86487
2.87926
2.87716
2.86493
2.3666
2.38519
2.38844
2.38328
2.37315
2.35782
2.33238
2.29502
2.26591
2.25535
2.25046
2.2486
2.24811
2.25271
2.26895
2.29714
2.31516
2.31642
2.31249
2.305
2.28608
2.24844
2.21542
2.20814
2.20847
2.21141
2.2175
2.23457
2.27218
2.30795
2.31345
2.30751
2.2968
2.2741
2.22153
2.16509
2.14937
2.14594
2.14474
2.14774
2.17007
2.20976
2.22193
2.21883
2.21411
2.20258
2.16931
2.1209
2.10044
2.09551
2.09392
2.09323
2.10102
2.13337
2.16768
2.17055
2.16798
2.16241
2.14571
2.09894
2.045
2.02835
2.02429
2.02224
2.02079
2.02423
2.04819
2.09158
2.10606
2.10387
2.09953
2.08779
2.05242
1.99886
1.97649
1.97159
1.96991
1.96874
1.97195
1.99115
2.02178
2.03049
2.0289
2.02453
2.01168
1.98368
1.96028
1.95371
1.95253
1.9525
1.95645
1.96803
1.98192
1.98479
1.98208
1.97574
1.95979
1.92578
1.89753
1.89178
1.89057
1.89174
1.89633
1.90674
1.92915
1.95353
1.95761
1.95371
1.94539
1.92626
1.88478
1.84846
1.83798
1.83493
1.83304
1.83249
1.83902
1.84764
1.85098
1.85238
1.85324
1.85125
1.84733
1.84141
1.83721
1.83622
1.83555
1.8316
1.8234
1.80022
1.77655
1.78761
1.85116
2.03189
2.38168
2.75301
3.18762
3.37285
3.45987
3.50971
3.50711
3.50404
3.49535
3.46559
3.43567
3.42979
3.43125
3.45479
3.48872
3.49593
3.49379
3.486
3.46003
3.40698
3.3536
3.33372
3.328
3.32683
3.33986
3.39204
3.44998
3.45683
3.45214
3.43634
3.38597
3.30671
3.26403
3.25658
3.25442
3.25391
3.26986
3.3241
3.38308
3.39139
3.38815
3.37461
3.33131
3.26164
3.22536
3.21872
3.21855
3.22498
3.25227
3.28706
3.29153
3.28583
3.27498
3.24929
3.21115
3.18514
3.17324
3.16947
3.16763
3.16588
3.16562
3.1742
3.20023
3.22466
3.22764
3.22328
3.21851
3.2097
3.17921
3.10859
3.04052
3.01857
3.01283
3.01101
3.01097
3.02323
3.06866
3.13389
3.15421
3.15034
3.13995
3.11733
3.07304
3.03543
3.02149
3.01875
3.01984
3.02337
3.02582
3.02345
3.01782
3.01161
3.0044
2.99327
2.97743
2.96638
2.96415
2.96131
2.9567
2.94945
2.94253
2.9375
2.93446
2.93394
2.93183
2.92969
2.92916
2.92551
2.91541
2.89043
2.85948
2.84363
2.83375
2.825
2.82045
2.82137
2.83672
2.8648
2.87236
2.3272
2.34023
2.36209
2.37203
2.36895
2.36441
2.35621
2.33875
2.3031
2.26279
2.24573
2.23949
2.23727
2.23584
2.23758
2.24934
2.27703
2.30138
2.30522
2.30318
2.29968
2.2869
2.25337
2.21228
2.19865
2.19752
2.19952
2.20445
2.21855
2.25197
2.29193
2.30285
2.29805
2.28758
2.26648
2.21697
2.15988
2.14221
2.13827
2.13691
2.13926
2.15981
2.20012
2.21542
2.21234
2.20734
2.19497
2.15833
2.10836
2.09019
2.08603
2.08456
2.08396
2.09256
2.12722
2.16393
2.16724
2.1634
2.1571
2.13866
2.08857
2.03398
2.01827
2.01421
2.01218
2.01066
2.01463
2.0417
2.08778
2.10134
2.09826
2.09323
2.08019
2.04151
1.98695
1.96634
1.9618
1.95998
1.95865
1.96172
1.98345
2.01842
2.02643
2.02499
2.02106
2.00882
1.97882
1.95173
1.9441
1.94259
1.94173
1.94413
1.95467
1.97031
1.97457
1.97312
1.96925
1.95666
1.92711
1.89885
1.89206
1.89075
1.89051
1.89183
1.89778
1.917
1.94119
1.94492
1.94061
1.93172
1.91164
1.87069
1.83849
1.82994
1.82736
1.8259
1.82946
1.84675
1.85623
1.8565
1.8534
1.84943
1.84492
1.83847
1.82933
1.82401
1.82344
1.82343
1.82091
1.81256
1.79672
1.768
1.75936
1.77295
1.85148
2.04122
2.39148
2.79914
3.18992
3.42952
3.44227
3.47488
3.4939
3.48839
3.45333
3.41944
3.4169
3.42678
3.45474
3.48335
3.48526
3.48037
3.46963
3.44308
3.38893
3.33346
3.31421
3.31019
3.30991
3.32493
3.37551
3.43585
3.45048
3.44299
3.42241
3.3743
3.2993
3.25519
3.24793
3.24691
3.251
3.26995
3.31974
3.37709
3.38519
3.38023
3.36554
3.3211
3.25152
3.21432
3.20662
3.20519
3.211
3.23842
3.27084
3.27655
3.2706
3.25784
3.23136
3.19495
3.16952
3.15953
3.15707
3.15881
3.16918
3.18061
3.19023
3.2058
3.21823
3.21706
3.21284
3.20445
3.18601
3.14531
3.07528
3.01841
3.00634
3.00489
3.00542
3.01081
3.02969
3.07441
3.1264
3.14214
3.13788
3.12626
3.09866
3.0524
3.01522
3.00006
2.99622
2.9956
2.9968
3.00521
3.01469
3.0212
3.02391
3.02136
3.01022
2.98681
2.95971
2.94317
2.93344
2.92543
2.92021
2.91756
2.91793
2.92185
2.93
2.93914
2.94127
2.94015
2.93473
2.91645
2.87457
2.83517
2.81885
2.81208
2.8086
2.80748
2.81396
2.8501
2.88505
2.30783
2.30735
2.31617
2.34277
2.36348
2.36296
2.35966
2.35385
2.34
2.30539
2.25732
2.23505
2.22778
2.22505
2.22309
2.22311
2.23154
2.25883
2.28989
2.29742
2.29666
2.29447
2.28473
2.25443
2.20809
2.18792
2.18571
2.18781
2.1922
2.20373
2.233
2.27554
2.29247
2.28916
2.279
2.25918
2.21334
2.15596
2.1353
2.13074
2.12908
2.13082
2.14894
2.1883
2.20865
2.20659
2.19938
2.18434
2.14446
2.09643
2.08186
2.07865
2.07724
2.0771
2.08651
2.11917
2.1555
2.16136
2.15668
2.14777
2.12704
2.07551
2.02328
2.0095
2.00582
2.0038
2.00269
2.00815
2.03587
2.0802
2.0954
2.09227
2.08465
2.06881
2.02728
1.97478
1.9567
1.95236
1.95053
1.94927
1.95337
1.97895
2.01623
2.02343
2.02107
2.01634
2.00186
1.96757
1.93988
1.93268
1.93087
1.92962
1.93159
1.94391
1.96335
1.96899
1.96921
1.96673
1.9565
1.92889
1.89746
1.88708
1.88453
1.88282
1.88166
1.88521
1.90355
1.92828
1.93199
1.92781
1.91962
1.90024
1.86021
1.83046
1.82483
1.8234
1.82409
1.83365
1.85159
1.855
1.85172
1.84802
1.84361
1.83678
1.82666
1.81562
1.81026
1.81009
1.81173
1.81058
1.80374
1.78975
1.76662
1.74914
1.74887
1.76673
1.84283
2.05311
2.39841
2.85942
3.22343
3.38031
3.47948
3.49408
3.47033
3.42991
3.40922
3.40416
3.41316
3.44888
3.4778
3.47583
3.47177
3.46167
3.43128
3.37752
3.32563
3.30687
3.3045
3.30733
3.3206
3.35648
3.40767
3.42728
3.42251
3.40728
3.36904
3.30228
3.25527
3.24661
3.24491
3.24489
3.26056
3.3111
3.37084
3.38108
3.37408
3.35801
3.3104
3.23639
3.19958
3.19385
3.19296
3.19734
3.21684
3.24737
3.25685
3.25223
3.24384
3.22637
3.19698
3.16596
3.15364
3.15204
3.15348
3.15914
3.16641
3.17848
3.19637
3.20338
3.19907
3.19119
3.17917
3.16102
3.12607
3.06395
3.01628
3.0081
3.00754
3.01033
3.01778
3.03121
3.06447
3.11123
3.12573
3.11982
3.10781
3.08038
3.03225
2.99562
2.9817
2.97839
2.97883
2.98555
3.01422
3.03584
3.03939
3.03622
3.02734
3.00527
2.9635
2.92894
2.91423
2.90856
2.90507
2.90352
2.90556
2.91818
2.93676
2.94255
2.94111
2.93788
2.932
2.92016
2.8898
2.84171
2.81332
2.80711
2.80512
2.80454
2.81043
2.82951
2.86148
2.29425
2.29132
2.29012
2.29828
2.3289
2.35774
2.35906
2.35521
2.34959
2.33688
2.30307
2.25059
2.22382
2.21575
2.21226
2.20999
2.20899
2.21567
2.244
2.28098
2.29106
2.29063
2.28891
2.28098
2.25273
2.20238
2.17681
2.17378
2.17574
2.17938
2.18881
2.21505
2.25925
2.28053
2.27835
2.26951
2.25218
2.21197
2.15443
2.12913
2.12414
2.12223
2.12342
2.1383
2.17299
2.19604
2.19599
2.1886
2.17153
2.13336
2.08951
2.0757
2.07263
2.0713
2.07148
2.08018
2.10775
2.14075
2.14893
2.14523
2.13522
2.11355
2.065
2.01573
2.00247
1.9993
1.99752
1.99719
2.00404
2.02952
2.06738
2.08192
2.08039
2.0728
2.05477
2.01271
1.96388
1.94854
1.94493
1.94328
1.94274
1.94975
1.97806
2.01281
2.01923
2.01557
2.00775
1.98927
1.95214
1.92714
1.92093
1.91914
1.91808
1.92152
1.94006
1.96437
1.96989
1.96999
1.967
1.95589
1.92462
1.8884
1.87605
1.87297
1.87072
1.86911
1.87201
1.8914
1.91727
1.92059
1.91704
1.91082
1.89411
1.85781
1.82965
1.82443
1.82339
1.82417
1.83133
1.84576
1.84971
1.84671
1.84282
1.8374
1.82816
1.81477
1.8026
1.79721
1.79711
1.79993
1.80048
1.79504
1.78382
1.76466
1.74529
1.7388
1.7397
1.76091
1.8472
2.06353
2.46608
2.86998
3.21822
3.44383
3.48432
3.47202
3.41725
3.36539
3.35074
3.36434
3.41341
3.46249
3.46883
3.46187
3.44863
3.42781
3.39253
3.34609
3.31045
3.30312
3.30199
3.30571
3.33102
3.38259
3.4112
3.40976
3.39827
3.36709
3.30553
3.25318
3.23942
3.23812
3.24168
3.26021
3.30606
3.3571
3.36894
3.36026
3.34214
3.29759
3.22961
3.18608
3.17411
3.17144
3.17291
3.18808
3.22264
3.24767
3.25152
3.24812
3.23544
3.2054
3.16698
3.14528
3.13922
3.13784
3.13876
3.14362
3.15656
3.17993
3.18766
3.18259
3.17721
3.17198
3.16037
3.12886
3.06591
3.01547
3.00738
3.00609
3.00419
3.00416
3.01328
3.04603
3.09636
3.11326
3.10854
3.09575
3.06514
3.01279
2.97882
2.97139
2.97145
2.97443
2.98818
3.0207
3.03939
3.0369
3.02888
3.0142
2.97956
2.93187
2.90721
2.89935
2.89619
2.89515
2.89674
2.90534
2.92186
2.93099
2.92907
2.92584
2.92174
2.91305
2.89572
2.86481
2.83016
2.8133
2.80992
2.80963
2.81448
2.82406
2.83691
2.28576
2.28062
2.27812
2.27707
2.28485
2.31427
2.34738
2.35314
2.34883
2.3426
2.33003
2.29644
2.24235
2.2128
2.20427
2.20032
2.19803
2.19685
2.20347
2.23199
2.27214
2.28582
2.28497
2.28285
2.27536
2.24797
2.19486
2.16501
2.16122
2.16273
2.16557
2.17291
2.19614
2.24172
2.26729
2.2664
2.2615
2.2486
2.2152
2.15813
2.12482
2.11824
2.11652
2.11724
2.12849
2.15726
2.18017
2.18085
2.17468
2.16073
2.12971
2.0882
2.07094
2.06727
2.06581
2.06615
2.07393
2.09635
2.12476
2.13316
2.12994
2.12092
2.10197
2.06034
2.01297
1.99765
1.99454
1.99321
1.99363
2.00105
2.02325
2.05461
2.06633
2.06435
2.05729
2.04024
2.00165
1.95673
1.9427
1.94003
1.93892
1.93973
1.9491
1.97409
2.00099
2.00645
2.00343
1.99437
1.97259
1.93605
1.91631
1.91151
1.91013
1.91022
1.91859
1.94548
1.96847
1.97
1.96713
1.96167
1.94764
1.9116
1.87528
1.86395
1.86053
1.85827
1.85661
1.86015
1.88313
1.91113
1.9149
1.91302
1.90796
1.89248
1.85568
1.82615
1.81957
1.81787
1.81701
1.82265
1.83929
1.84481
1.84186
1.838
1.83214
1.82092
1.80411
1.79052
1.78511
1.78493
1.78752
1.78961
1.78624
1.77774
1.76328
1.74375
1.73397
1.73161
1.73322
1.75638
1.85859
2.09523
2.47601
2.89928
3.25552
3.42067
3.44101
3.38085
3.33401
3.33479
3.34334
3.37237
3.41469
3.44163
3.44835
3.44136
3.42584
3.40294
3.36139
3.31337
3.29526
3.29176
3.2935
3.31714
3.36842
3.39581
3.39536
3.38315
3.35234
3.30048
3.2548
3.23997
3.23806
3.24105
3.25427
3.28859
3.33569
3.3516
3.34575
3.32974
3.28407
3.20774
3.16089
3.14755
3.14529
3.14809
3.17399
3.23202
3.25877
3.2594
3.25512
3.23959
3.20043
3.15085
3.12478
3.1154
3.11292
3.11269
3.11889
3.13956
3.17144
3.18141
3.1805
3.17796
3.17374
3.16199
3.12574
3.05603
3.00578
2.99428
2.99086
2.98788
2.98741
2.9991
3.03704
3.08566
3.09869
3.09463
3.08196
3.05212
3.00434
2.97378
2.96895
2.96994
2.97515
2.98868
3.01008
3.02267
3.02035
3.01044
2.99261
2.96149
2.92179
2.89922
2.89534
2.89478
2.89411
2.89399
2.89758
2.9088
2.91683
2.91434
2.90972
2.90362
2.89438
2.88271
2.86361
2.83419
2.81909
2.81735
2.81646
2.81472
2.81371
2.28512
2.27571
2.27075
2.26834
2.26767
2.27378
2.2962
2.32885
2.34304
2.3406
2.33312
2.31906
2.28653
2.23416
2.20326
2.1948
2.19093
2.18888
2.18866
2.19695
2.22334
2.26101
2.27848
2.27809
2.27433
2.26603
2.23975
2.18588
2.15205
2.14692
2.1476
2.14923
2.15488
2.17782
2.2293
2.26063
2.26072
2.25782
2.24838
2.22113
2.16472
2.12149
2.11115
2.10896
2.10839
2.11534
2.14037
2.16551
2.16757
2.16313
2.15358
2.12963
2.08959
2.06676
2.06139
2.06008
2.06006
2.06539
2.08268
2.10865
2.11793
2.11513
2.10787
2.09291
2.05853
2.01226
1.9938
1.99052
1.98955
1.99001
1.99596
2.01353
2.04012
2.05098
2.04893
2.04254
2.0286
1.99766
1.95678
1.94046
1.93781
1.93719
1.93908
1.9473
1.96647
1.98728
1.99126
1.98787
1.97837
1.95719
1.92471
1.90906
1.90597
1.90554
1.90882
1.92171
1.94496
1.95992
1.96093
1.95798
1.95104
1.93385
1.8954
1.86158
1.85166
1.84873
1.84694
1.846
1.85357
1.88502
1.91525
1.91701
1.91395
1.90736
1.88825
1.84624
1.8166
1.80984
1.80794
1.80706
1.8138
1.8331
1.83942
1.83705
1.83379
1.82803
1.81532
1.79437
1.77881
1.7737
1.773
1.7749
1.77816
1.77698
1.771
1.76151
1.74575
1.73156
1.7273
1.72606
1.72948
1.75789
1.87105
2.11313
2.5129
2.89881
3.18738
3.33216
3.37567
3.3747
3.34613
3.34268
3.34999
3.37128
3.40371
3.42477
3.4247
3.4172
3.39977
3.36079
3.30832
3.28479
3.28122
3.28494
3.31435
3.36253
3.37523
3.37158
3.36219
3.34212
3.30654
3.26198
3.23599
3.23096
3.22938
3.2354
3.26876
3.32082
3.3366
3.33075
3.3125
3.25778
3.17681
3.13975
3.1334
3.133
3.14042
3.17641
3.23837
3.26263
3.25988
3.25334
3.23315
3.18393
3.12765
3.10368
3.09616
3.09529
3.09706
3.10514
3.1308
3.17071
3.18107
3.17875
3.17597
3.17046
3.15538
3.11164
3.03388
2.98843
2.98078
2.97842
2.97735
2.9798
2.99322
3.03057
3.07438
3.08296
3.08073
3.07282
3.05098
3.00934
2.97598
2.97048
2.9701
2.96962
2.97406
2.98914
3.00207
2.99983
2.99305
2.9824
2.95915
2.92203
2.89299
2.88191
2.87885
2.87666
2.87614
2.87897
2.89022
2.90276
2.90177
2.89862
2.89728
2.89561
2.88883
2.86899
2.83532
2.81178
2.80236
2.79569
2.79177
2.31374
2.28062
2.2682
2.26302
2.26025
2.25936
2.26299
2.27782
2.30513
2.32514
2.3261
2.31945
2.30554
2.2774
2.23075
2.19687
2.18795
2.18483
2.18354
2.18496
2.19316
2.2126
2.24368
2.26435
2.26641
2.26269
2.25391
2.22798
2.17349
2.13708
2.1312
2.13164
2.1336
2.14022
2.16604
2.22283
2.2587
2.26027
2.25792
2.24991
2.22436
2.16393
2.11239
2.09903
2.09596
2.09453
2.09948
2.12507
2.15422
2.15817
2.15649
2.15029
2.13089
2.09065
2.06103
2.05279
2.05113
2.05017
2.05298
2.06721
2.0941
2.1053
2.10282
2.09794
2.08695
2.05843
2.01311
1.99009
1.98512
1.98392
1.98351
1.98697
2.00039
2.02507
2.03747
2.03571
2.03081
2.02095
1.99743
1.95942
1.93949
1.93608
1.93507
1.93519
1.93947
1.95317
1.97185
1.97646
1.97363
1.96573
1.94887
1.92246
1.90726
1.90449
1.90507
1.90975
1.92029
1.93673
1.94724
1.94745
1.94428
1.93657
1.918
1.87957
1.85076
1.84357
1.84144
1.84038
1.84194
1.85484
1.88757
1.91477
1.91543
1.90993
1.90003
1.87572
1.83077
1.80553
1.80012
1.79831
1.7977
1.80635
1.82838
1.83497
1.83327
1.83023
1.82457
1.80972
1.78348
1.76644
1.76208
1.76105
1.76201
1.76704
1.7682
1.76498
1.75953
1.74913
1.73355
1.72461
1.72256
1.72181
1.72806
1.75955
1.88522
2.12142
2.50409
2.88153
3.16772
3.29716
3.3395
3.35115
3.35458
3.3612
3.37971
3.40603
3.41565
3.41249
3.40513
3.38352
3.33553
3.28609
3.26728
3.26454
3.27034
3.29978
3.34884
3.36594
3.36413
3.36014
3.34738
3.31366
3.25778
3.2238
3.21943
3.21875
3.22485
3.25669
3.3061
3.31879
3.31126
3.28889
3.23548
3.16497
3.1319
3.12707
3.12749
3.1372
3.17005
3.2251
3.25205
3.24971
3.24218
3.22133
3.1741
3.11717
3.09102
3.0844
3.08238
3.08224
3.09104
3.12239
3.16581
3.17597
3.17284
3.16872
3.16165
3.14315
3.09244
3.01512
2.9785
2.97388
2.97177
2.96947
2.9706
2.98371
3.02446
3.07225
3.08049
3.0798
3.07484
3.05473
3.00964
2.96881
2.95432
2.95095
2.94912
2.95223
2.96966
2.99234
2.99455
2.99044
2.98099
2.95444
2.90833
2.87652
2.86441
2.85925
2.85669
2.85641
2.86147
2.88198
2.90275
2.90789
2.90962
2.90795
2.903
2.88992
2.85587
2.81338
2.7928
2.78472
2.78203
2.35193
2.32175
2.28516
2.26378
2.2561
2.25228
2.25087
2.25188
2.2604
2.28124
2.30461
2.30933
2.30438
2.2941
2.27461
2.23784
2.19869
2.1847
2.18161
2.18081
2.18215
2.18672
2.19996
2.22662
2.24862
2.25149
2.24754
2.23863
2.21287
2.15928
2.123
2.11802
2.11903
2.12275
2.13258
2.16361
2.2258
2.26328
2.2628
2.25778
2.24731
2.2175
2.15074
2.09783
2.08477
2.08101
2.07949
2.08507
2.11702
2.15154
2.15516
2.15384
2.1483
2.12919
2.08447
2.05014
2.04134
2.039
2.03702
2.03807
2.05238
2.08338
2.09677
2.09589
2.09266
2.0842
2.05945
2.01309
1.98402
1.97678
1.97517
1.974
1.97524
1.98616
2.01215
2.0274
2.02651
2.02369
2.01707
1.99813
1.96115
1.93587
1.92954
1.92781
1.92653
1.92797
1.93913
1.95842
1.96439
1.96206
1.95729
1.9458
1.92418
1.90774
1.90398
1.90346
1.90506
1.91067
1.92307
1.93305
1.93325
1.9304
1.92326
1.90554
1.86969
1.84399
1.83914
1.83795
1.83879
1.84287
1.85496
1.88213
1.90386
1.9047
1.89947
1.88839
1.86059
1.81644
1.79628
1.79192
1.79025
1.79019
1.80261
1.82752
1.83256
1.83026
1.82689
1.82025
1.80101
1.76974
1.75364
1.75004
1.74882
1.74965
1.75731
1.7629
1.76096
1.75797
1.75096
1.73916
1.72474
1.71824
1.71509
1.71525
1.72301
1.75817
1.89099
2.15955
2.53108
2.87094
3.10859
3.2739
3.31732
3.34527
3.37618
3.39432
3.41205
3.41723
3.41264
3.39324
3.35808
3.31026
3.26655
3.25194
3.24944
3.25105
3.27431
3.32561
3.35989
3.35993
3.35687
3.34635
3.31028
3.24658
3.21281
3.20804
3.20747
3.21399
3.24246
3.28536
3.29499
3.2882
3.27104
3.23098
3.16932
3.12818
3.12025
3.11935
3.12392
3.15036
3.20588
3.2407
3.24069
3.23614
3.21893
3.16805
3.10223
3.07422
3.06716
3.0652
3.06575
3.07749
3.11495
3.16082
3.1688
3.16606
3.1628
3.15584
3.13464
3.07751
3.00089
2.96929
2.96292
2.95939
2.95592
2.95659
2.97437
3.0267
3.08106
3.08815
3.08458
3.07556
3.04664
2.98899
2.94712
2.93478
2.93158
2.93046
2.93668
2.96073
2.98916
2.99172
2.98506
2.97172
2.93941
2.88995
2.85934
2.85033
2.84665
2.84617
2.84825
2.85974
2.88606
2.90448
2.90671
2.90468
2.89974
2.89068
2.86924
2.82867
2.79178
2.77948
2.77763
2.36165
2.35135
2.33081
2.29461
2.26095
2.24732
2.24186
2.23977
2.23877
2.24225
2.25804
2.28495
2.29455
2.29171
2.28691
2.27539
2.24735
2.20484
2.18234
2.17669
2.17484
2.17382
2.17544
2.18481
2.20771
2.23069
2.23476
2.23105
2.2226
2.19902
2.14977
2.11417
2.11015
2.11247
2.11929
2.13371
2.16586
2.22014
2.25623
2.2572
2.25023
2.23618
2.20138
2.13144
2.08234
2.07138
2.0682
2.06706
2.07686
2.11863
2.15307
2.15446
2.15194
2.14509
2.12139
2.06927
2.03527
2.02728
2.02441
2.02228
2.02372
2.04321
2.08091
2.09272
2.0923
2.08941
2.0815
2.05691
2.00659
1.97383
1.96617
1.96408
1.96226
1.96249
1.97382
2.0055
2.02396
2.0236
2.0212
2.01509
1.99703
1.95746
1.92715
1.91931
1.91719
1.91549
1.91604
1.92704
1.94934
1.95721
1.95631
1.95289
1.94384
1.92381
1.90382
1.89694
1.89531
1.8945
1.89745
1.9088
1.92001
1.92088
1.91863
1.91294
1.89822
1.86716
1.84289
1.8381
1.83702
1.83651
1.83821
1.84861
1.87498
1.89357
1.89291
1.8874
1.87579
1.84775
1.80642
1.78928
1.78614
1.78488
1.78612
1.80096
1.82506
1.82969
1.82622
1.82178
1.81217
1.786
1.75419
1.74204
1.73893
1.73766
1.73851
1.7486
1.75983
1.76025
1.75812
1.75348
1.7423
1.72436
1.71098
1.70612
1.70434
1.70539
1.718
1.76746
1.89203
2.16337
2.51293
2.87205
3.0771
3.20904
3.28568
3.34246
3.38951
3.41053
3.4103
3.39609
3.37473
3.35305
3.31308
3.26005
3.24133
3.23909
3.23936
3.25555
3.30434
3.35431
3.36227
3.35685
3.3412
3.29749
3.22996
3.20025
3.19631
3.19407
3.1979
3.22369
3.26591
3.27769
3.27451
3.26394
3.23261
3.17159
3.12147
3.10874
3.10711
3.11015
3.13607
3.19798
3.24259
3.24396
3.23705
3.21251
3.14896
3.07919
3.0571
3.05205
3.05034
3.0519
3.06735
3.10829
3.15583
3.16506
3.1628
3.15984
3.15112
3.12429
3.05641
2.97985
2.95635
2.95109
2.94816
2.94764
2.95359
2.97992
3.03527
3.07726
3.07991
3.07437
3.06128
3.02482
2.96446
2.92842
2.92138
2.92004
2.92076
2.92978
2.95309
2.97478
2.97605
2.96905
2.95524
2.92521
2.87989
2.84911
2.84194
2.84058
2.84177
2.84955
2.8645
2.88349
2.89466
2.89332
2.88873
2.88198
2.86918
2.84717
2.81305
2.78612
2.77861
2.36141
2.35783
2.35105
2.33525
2.29861
2.25473
2.23572
2.22889
2.22594
2.22377
2.22416
2.23793
2.27244
2.28986
2.28861
2.28527
2.27698
2.25262
2.20548
2.17457
2.16602
2.16355
2.16191
2.16167
2.16711
2.1867
2.21187
2.21801
2.21566
2.21037
2.19219
2.1481
2.11109
2.10742
2.11161
2.12118
2.1348
2.15869
2.20163
2.2385
2.2423
2.23498
2.21873
2.18129
2.11507
2.07264
2.06404
2.06151
2.06185
2.07838
2.12262
2.1526
2.15307
2.14747
2.13505
2.10233
2.04661
2.01992
2.01398
2.01142
2.0096
2.01337
2.04176
2.08285
2.09033
2.08918
2.08559
2.07716
2.04916
1.9939
1.96171
1.95412
1.95166
1.94988
1.95045
1.96606
2.00507
2.02246
2.02112
2.01798
2.01118
1.99049
1.94618
1.91541
1.90798
1.90582
1.90413
1.90511
1.92025
1.9484
1.95557
1.95439
1.95051
1.94079
1.91771
1.89353
1.88523
1.88356
1.88268
1.88536
1.89735
1.91047
1.91219
1.9107
1.90673
1.89402
1.8641
1.83874
1.83225
1.83038
1.82896
1.82979
1.84036
1.86659
1.88254
1.88118
1.87628
1.86619
1.84249
1.80458
1.78544
1.7822
1.78119
1.78279
1.79496
1.81602
1.82312
1.81994
1.8132
1.7993
1.76971
1.7418
1.73249
1.72982
1.72871
1.73054
1.74506
1.76006
1.75987
1.75729
1.75224
1.73979
1.71755
1.70315
1.69709
1.69514
1.69417
1.69836
1.71865
1.77437
1.8912
2.14482
2.53031
2.88756
3.06415
3.16968
3.24727
3.29827
3.33561
3.37102
3.38036
3.37574
3.35225
3.31597
3.26992
3.24241
3.23822
3.24285
3.26076
3.29979
3.3362
3.34377
3.33937
3.32021
3.27646
3.21818
3.1869
3.18114
3.18021
3.18447
3.21244
3.26065
3.27402
3.27283
3.26478
3.23217
3.16153
3.10839
3.09749
3.09556
3.09935
3.12907
3.19224
3.23279
3.23241
3.22193
3.19326
3.1309
3.06452
3.04239
3.0386
3.03869
3.04237
3.05738
3.09625
3.14624
3.15945
3.156
3.15112
3.13969
3.10635
3.03292
2.96596
2.94928
2.94637
2.94487
2.94875
2.95945
2.98353
3.02981
3.06133
3.06136
3.05534
3.04162
3.00894
2.95475
2.92076
2.9157
2.91398
2.9127
2.91729
2.93527
2.95671
2.95867
2.95406
2.94489
2.92182
2.88196
2.85006
2.84373
2.84375
2.84324
2.84307
2.84802
2.86428
2.87796
2.87712
2.87189
2.86479
2.85677
2.84195
2.81407
2.78888
2.35866
2.35892
2.35502
2.34867
2.33385
2.29514
2.24462
2.22232
2.21448
2.21144
2.20944
2.20964
2.2247
2.26485
2.28855
2.2869
2.28279
2.27412
2.24918
2.19861
2.16289
2.1529
2.14944
2.14697
2.14539
2.14831
2.16745
2.19689
2.2067
2.20726
2.20519
2.1924
2.1551
2.11495
2.10836
2.11113
2.11716
2.12498
2.14109
2.17693
2.21603
2.22255
2.21605
2.20157
2.17071
2.11462
2.07046
2.06141
2.06018
2.06424
2.08105
2.11183
2.13549
2.13792
2.1322
2.11541
2.07646
2.02695
2.00876
2.00408
2.0019
2.00125
2.01173
2.05027
2.08585
2.08878
2.08609
2.08069
2.06852
2.03239
1.97421
1.94851
1.94298
1.94103
1.93957
1.94198
1.96517
2.00717
2.01854
2.01601
2.01225
2.00408
1.97849
1.93023
1.90351
1.89767
1.89593
1.89461
1.89732
1.9184
1.94823
1.95228
1.94987
1.94512
1.93265
1.90467
1.88085
1.8739
1.87267
1.8722
1.87623
1.89087
1.90591
1.90808
1.906
1.90097
1.88726
1.85616
1.8307
1.82397
1.82191
1.82026
1.8212
1.83295
1.85974
1.87343
1.87205
1.86822
1.86068
1.84133
1.80583
1.78277
1.77784
1.77685
1.77716
1.78515
1.80212
1.80973
1.8076
1.80095
1.78623
1.75748
1.73326
1.7262
1.72408
1.72332
1.72686
1.74263
1.75704
1.75705
1.75314
1.74692
1.73334
1.71025
1.695
1.68953
1.68682
1.68548
1.68726
1.70157
1.72579
1.77222
1.89306
2.1455
2.47046
2.89692
3.0805
3.15257
3.20423
3.27426
3.32427
3.34027
3.34826
3.33773
3.31295
3.28272
3.26217
3.25738
3.26074
3.27549
3.30294
3.32124
3.32044
3.31201
3.29293
3.25564
3.20241
3.17317
3.16787
3.16764
3.17258
3.20262
3.25619
3.27169
3.26913
3.2597
3.22308
3.14747
3.09565
3.0866
3.08539
3.08954
3.11522
3.17167
3.21205
3.21126
3.20271
3.1795
3.1274
3.06223
3.03503
3.03141
3.03044
3.03212
3.04397
3.08222
3.13345
3.146
3.14369
3.13924
3.12729
3.09143
3.01603
2.95792
2.94815
2.94604
2.94411
2.94344
2.94747
2.96893
3.01587
3.04486
3.04521
3.04245
3.0333
3.0033
2.94864
2.91054
2.89882
2.89524
2.8936
2.89836
2.91997
2.94715
2.9539
2.95279
2.94728
2.92718
2.88371
2.84553
2.83116
2.82474
2.82094
2.82066
2.82552
2.84433
2.86344
2.86676
2.86685
2.86486
2.85971
2.84764
2.81232
2.32736
2.35437
2.35628
2.35072
2.34283
2.32603
2.28351
2.23108
2.21027
2.20351
2.20069
2.19916
2.20016
2.21546
2.25321
2.28114
2.28144
2.27545
2.26528
2.23969
2.188
2.14974
2.13866
2.1341
2.13142
2.12961
2.13273
2.15652
2.19227
2.20238
2.20454
2.20421
2.19506
2.16101
2.1142
2.1011
2.10151
2.10354
2.10745
2.11851
2.14971
2.19298
2.20411
2.20084
2.19347
2.17375
2.13064
2.08218
2.06678
2.0649
2.06662
2.07567
2.09399
2.11225
2.11467
2.10847
2.09163
2.05667
2.01584
2.00158
1.99846
1.99755
2.00195
2.02072
2.05535
2.07765
2.07905
2.07633
2.06926
2.05029
2.00739
1.95649
1.93937
1.9351
1.93318
1.93228
1.9384
1.96697
2.00522
2.01362
2.01036
2.00438
1.99246
1.96161
1.91405
1.8942
1.89023
1.88867
1.88794
1.89393
1.91966
1.94573
1.94748
1.94356
1.93646
1.92074
1.89013
1.8696
1.86445
1.86367
1.86393
1.86982
1.88568
1.89834
1.89933
1.89721
1.89227
1.87773
1.84613
1.82187
1.8156
1.81349
1.81175
1.81342
1.82746
1.85705
1.86989
1.86828
1.86501
1.8585
1.84113
1.80547
1.77774
1.77019
1.76865
1.76812
1.77325
1.78816
1.79723
1.79553
1.78951
1.77717
1.75339
1.72979
1.72242
1.72054
1.72025
1.72324
1.73322
1.74589
1.7491
1.74584
1.73859
1.72495
1.70347
1.68853
1.6834
1.6809
1.67977
1.68018
1.69066
1.7075
1.72
1.7586
1.86674
2.12963
2.46444
2.81454
3.07717
3.17195
3.23123
3.26122
3.303
3.32094
3.31823
3.30804
3.28587
3.26733
3.26344
3.26196
3.26742
3.28889
3.30352
3.29979
3.29186
3.27668
3.24117
3.18769
3.1606
3.15639
3.15639
3.1639
3.20148
3.25023
3.26311
3.26182
3.25143
3.21446
3.14161
3.08745
3.0753
3.07284
3.07362
3.09306
3.14877
3.19906
3.20175
3.19651
3.17876
3.12729
3.05606
3.02324
3.01512
3.01227
3.01209
3.02455
3.06841
3.12573
3.13732
3.13644
3.13391
3.12238
3.08131
3.00263
2.94813
2.93462
2.92986
2.92577
2.92347
2.92829
2.95893
3.01837
3.04776
3.04627
3.04252
3.02979
2.98897
2.92398
2.89013
2.88158
2.87885
2.8781
2.88703
2.92053
2.95894
2.96524
2.96049
2.94921
2.91891
2.86391
2.8233
2.80908
2.80466
2.80381
2.80434
2.8123
2.84097
2.87192
2.87525
2.87315
2.86913
2.86412
2.83363
2.29517
2.31541
2.3382
2.34562
2.34145
2.33099
2.31121
2.27128
2.22295
2.20151
2.19572
2.19304
2.19194
2.19337
2.20509
2.23442
2.26413
2.26975
2.26435
2.25251
2.22588
2.17456
2.13636
2.12528
2.12068
2.11827
2.11693
2.12318
2.1547
2.19513
2.20461
2.2055
2.20368
2.19314
2.15518
2.10103
2.08412
2.08325
2.0839
2.08579
2.09477
2.12749
2.17944
2.19594
2.19632
2.19336
2.18125
2.14758
2.09404
2.06676
2.06092
2.05906
2.05978
2.06956
2.08638
2.0913
2.08669
2.07409
2.04801
2.01492
2.00104
1.99887
2.00114
2.01153
2.02939
2.04996
2.06073
2.06051
2.05662
2.04798
2.02811
1.98909
1.94689
1.93274
1.92934
1.92773
1.92814
1.93822
1.9656
1.9938
1.99971
1.99731
1.99172
1.97789
1.94588
1.90328
1.88751
1.8846
1.88331
1.88362
1.89305
1.918
1.93609
1.93685
1.9337
1.92633
1.90813
1.87653
1.85978
1.85602
1.8553
1.85569
1.86194
1.87848
1.89008
1.89024
1.88832
1.88374
1.86904
1.83756
1.81374
1.80805
1.8061
1.80466
1.80716
1.82283
1.85457
1.8674
1.86594
1.86285
1.85638
1.8376
1.79751
1.76703
1.75926
1.7575
1.7565
1.75991
1.77442
1.78611
1.78507
1.78188
1.77442
1.7569
1.73221
1.72046
1.71743
1.71616
1.71623
1.72108
1.73154
1.73726
1.73565
1.72974
1.7192
1.70204
1.68589
1.67904
1.67675
1.67528
1.67589
1.6798
1.69016
1.69695
1.70185
1.7371
1.85513
2.09052
2.45148
2.79357
3.088
3.19729
3.25587
3.30696
3.31466
3.31152
3.29545
3.27048
3.24608
3.23298
3.23077
3.23659
3.26197
3.28543