/*--------------------------------*- C++ -*----------------------------------*\
  =========                 |
  \\      /  F ield         | OpenFOAM: The Open Source CFD Toolbox
   \\    /   O peration     | Website:  https://openfoam.org
    \\  /    A nd           | Version:  7
     \\/     M anipulation  |
\*---------------------------------------------------------------------------*/
FoamFile
{
    version     2.0;
    format      ascii;
    class       volScalarField;
    location    "3";
    object      rho;
}
// * * * * * * * * * * * * * * * * * * * * * * * * * * * * * * * * * * * * * //

dimensions      [1 -3 0 0 0 0 0];

internalField   nonuniform List<scalar> 
16192
(
2.17378
2.16969
2.1624
2.14463
2.11432
2.09177
2.08435
2.08106
2.07943
2.07908
2.08186
2.09277
2.11295
2.12943
2.13275
2.13114
2.12744
2.11735
2.09181
2.0623
2.05281
2.05251
2.05485
2.05942
2.06756
2.08603
2.11529
2.13011
2.129
2.12503
2.11887
2.10316
2.0674
2.032
2.02151
2.01858
2.01769
2.01966
2.03464
2.05975
2.06653
2.06506
2.06231
2.05473
2.03491
2.0071
1.99384
1.99006
1.98897
1.98891
1.99515
2.01417
2.031
2.03223
2.0296
2.02414
2.01003
1.97954
1.95118
1.94386
1.94196
1.94116
1.94126
1.94623
1.96357
1.98905
1.99753
1.99595
1.99121
1.98081
1.9559
1.92387
1.91123
1.90819
1.90743
1.9073
1.91119
1.9252
1.94402
1.94905
1.947
1.94158
1.92835
1.90649
1.89548
1.89394
1.89365
1.8953
1.9015
1.91379
1.92447
1.92633
1.92519
1.92094
1.90898
1.88164
1.85905
1.85349
1.85179
1.85079
1.85116
1.86018
1.88526
1.90742
1.90909
1.90653
1.90251
1.89233
1.8659
1.83759
1.82886
1.82685
1.82581
1.82516
1.82524
1.82651
1.82722
1.82688
1.82652
1.82643
1.82686
1.82771
1.82968
1.83194
1.83062
1.8297
1.81769
1.81193
1.83952
1.95591
2.168
2.40925
2.60162
2.75827
2.85538
2.90163
2.91147
2.91411
2.90752
2.8839
2.84743
2.81262
2.80488
2.80617
2.81433
2.83666
2.868
2.88161
2.87973
2.87161
2.84987
2.80572
2.76789
2.7603
2.75966
2.7615
2.77606
2.80895
2.83658
2.83956
2.83508
2.82091
2.78866
2.74348
2.72063
2.71676
2.71587
2.71754
2.72942
2.75882
2.7835
2.78326
2.77879
2.76705
2.74145
2.7097
2.69561
2.69332
2.69363
2.69752
2.71069
2.72561
2.72555
2.72252
2.71751
2.70896
2.6957
2.68134
2.66975
2.6637
2.66079
2.65837
2.6561
2.65452
2.65426
2.65797
2.66376
2.66648
2.66633
2.6633
2.65309
2.6279
2.59262
2.57177
2.5667
2.56463
2.5634
2.56662
2.58436
2.61109
2.61937
2.61806
2.61428
2.60422
2.58492
2.56904
2.56565
2.56471
2.56471
2.56754
2.5691
2.56703
2.56278
2.55603
2.54439
2.52551
2.50958
2.50101
2.49777
2.49641
2.49643
2.5007
2.50974
2.51492
2.51553
2.51504
2.51351
2.51006
2.50275
2.4882
2.46704
2.4436
2.42934
2.4261
2.42614
2.43069
2.44002
2.4499
2.46329
2.47484
2.47524
2.46878
2.44627
2.16932
2.16848
2.16436
2.15656
2.14188
2.11745
2.09327
2.08195
2.07836
2.07628
2.07565
2.07682
2.08343
2.09888
2.11761
2.12526
2.12474
2.12145
2.11399
2.09497
2.06692
2.05251
2.05166
2.05329
2.05656
2.0623
2.07666
2.10394
2.12355
2.12457
2.12082
2.11457
2.09918
2.06354
2.0274
2.01719
2.01467
2.01387
2.01606
2.03176
2.05792
2.06507
2.06335
2.0606
2.05313
2.0321
2.00157
1.98771
1.98413
1.98301
1.98275
1.98814
2.0072
2.02684
2.02922
2.02812
2.02467
2.01339
1.98366
1.95051
1.94038
1.9379
1.93689
1.93643
1.9398
1.95594
1.98285
1.99227
1.99091
1.98776
1.97933
1.95576
1.92151
1.90687
1.90354
1.90268
1.90229
1.90535
1.9188
1.93851
1.94417
1.94246
1.93835
1.92741
1.90703
1.89433
1.89202
1.89165
1.89265
1.89754
1.90807
1.91824
1.92021
1.91885
1.91444
1.90211
1.87548
1.85498
1.85088
1.84979
1.84947
1.85193
1.86212
1.88278
1.9025
1.90614
1.90369
1.89829
1.88617
1.85802
1.83063
1.82239
1.82007
1.81883
1.81811
1.81924
1.82317
1.82528
1.82557
1.82584
1.8268
1.82791
1.82819
1.82809
1.82914
1.82812
1.82427
1.8179
1.79704
1.79876
1.83502
1.95828
2.17055
2.43397
2.61537
2.73855
2.84735
2.89437
2.89436
2.89289
2.8808
2.85388
2.82761
2.81619
2.8164
2.81864
2.83191
2.85691
2.86579
2.86468
2.85919
2.8412
2.80547
2.77199
2.76304
2.76251
2.76402
2.77359
2.80021
2.82513
2.82711
2.82483
2.81542
2.78728
2.74188
2.71802
2.71439
2.71293
2.71289
2.72162
2.74959
2.77935
2.78254
2.78009
2.7714
2.74772
2.71297
2.69413
2.68878
2.68801
2.69087
2.70576
2.72445
2.72544
2.72255
2.71774
2.70657
2.68687
2.66915
2.65859
2.65462
2.65262
2.65079
2.64946
2.64944
2.65326
2.6645
2.67654
2.67896
2.67693
2.67197
2.65886
2.62511
2.5806
2.55965
2.55248
2.54804
2.54661
2.55141
2.57377
2.60679
2.62011
2.62266
2.62132
2.61283
2.59222
2.57069
2.56032
2.55753
2.55648
2.55769
2.55895
2.55684
2.55236
2.54493
2.53365
2.51948
2.50806
2.50376
2.50345
2.50842
2.51407
2.5124
2.51048
2.50866
2.50647
2.50341
2.49883
2.4926
2.48495
2.47735
2.46746
2.45138
2.43907
2.43741
2.43788
2.43766
2.43678
2.43794
2.44663
2.45659
2.45602
2.44984
2.14541
2.15762
2.15984
2.15695
2.15094
2.14134
2.12478
2.10065
2.08207
2.07556
2.07245
2.07139
2.07129
2.07476
2.08601
2.10501
2.11727
2.1184
2.1165
2.11216
2.09985
2.07495
2.05351
2.04902
2.04917
2.05119
2.05554
2.06725
2.09235
2.11609
2.11995
2.11669
2.11053
2.09589
2.06105
2.0239
2.01388
2.01164
2.01081
2.01292
2.02809
2.0546
2.0627
2.06087
2.05811
2.05056
2.02808
1.99564
1.98203
1.97856
1.97744
1.97699
1.98231
2.0042
2.02736
2.0294
2.02814
2.02487
2.01384
1.98238
1.94635
1.93556
1.93291
1.93173
1.931
1.9336
1.95034
1.97984
1.98961
1.98828
1.98556
1.9775
1.95305
1.91668
1.90177
1.89853
1.89755
1.89698
1.89947
1.91308
1.93416
1.94017
1.93929
1.93655
1.92764
1.90832
1.89275
1.88875
1.88834
1.88872
1.89226
1.90126
1.91146
1.91377
1.91239
1.90857
1.89759
1.87377
1.85434
1.85064
1.84999
1.851
1.85461
1.86237
1.87842
1.89564
1.8987
1.89637
1.89107
1.8779
1.84871
1.8235
1.81641
1.81427
1.81311
1.81298
1.81824
1.8251
1.82805
1.82953
1.83068
1.82999
1.82787
1.82406
1.82134
1.82085
1.82047
1.81775
1.81197
1.79546
1.77893
1.78687
1.83061
1.95274
2.18111
2.41413
2.67523
2.78615
2.83708
2.86479
2.8631
2.86182
2.85707
2.83964
2.82141
2.81728
2.81769
2.83094
2.8508
2.85499
2.85365
2.84932
2.83426
2.80375
2.7732
2.76118
2.7567
2.75513
2.76106
2.79009
2.82328
2.82685
2.82386
2.81427
2.78496
2.73894
2.71426
2.70979
2.70813
2.70754
2.71645
2.74793
2.78199
2.78656
2.7844
2.7756
2.74957
2.70854
2.68723
2.68309
2.68284
2.68641
2.70234
2.7226
2.72505
2.72137
2.7143
2.69792
2.67422
2.65796
2.65011
2.64725
2.64594
2.64525
2.64569
2.6518
2.66846
2.68359
2.68544
2.68277
2.67915
2.67218
2.65103
2.60593
2.56317
2.54785
2.54294
2.54063
2.53996
2.54761
2.57719
2.61885
2.6327
2.63159
2.62681
2.61322
2.58509
2.56049
2.54984
2.5464
2.54485
2.54525
2.54616
2.54458
2.54147
2.53874
2.53572
2.53032
2.52144
2.51484
2.51326
2.51144
2.5084
2.50311
2.49782
2.49377
2.49109
2.48999
2.48821
2.48654
2.48605
2.48361
2.47747
2.46242
2.44348
2.43371
2.42757
2.42231
2.41991
2.42087
2.43119
2.45006
2.45632
2.12168
2.13056
2.14496
2.15158
2.1499
2.1476
2.14271
2.13137
2.1081
2.08208
2.0713
2.06735
2.06601
2.06537
2.06683
2.07517
2.09392
2.1103
2.1131
2.11229
2.11056
2.10239
2.08007
2.05321
2.04457
2.04384
2.04525
2.04892
2.05881
2.08133
2.10797
2.11546
2.1129
2.10698
2.0934
2.06043
2.02264
2.01124
2.0087
2.00772
2.00935
2.02329
2.05023
2.06038
2.05846
2.05547
2.04734
2.02254
1.98894
1.97682
1.97386
1.97279
1.9724
1.9783
2.00181
2.0266
2.02895
2.02691
2.0233
2.01122
1.9774
1.94084
1.93069
1.92803
1.92682
1.92602
1.92898
1.94783
1.97914
1.98826
1.98627
1.98305
1.97415
1.94743
1.91029
1.89653
1.89349
1.89239
1.8917
1.89406
1.90942
1.93352
1.93902
1.93824
1.9358
1.92742
1.90679
1.8887
1.88401
1.88343
1.88333
1.88563
1.89397
1.90535
1.90854
1.90788
1.90562
1.89694
1.87625
1.85678
1.85237
1.85162
1.85169
1.853
1.85772
1.8716
1.88874
1.89153
1.88887
1.88311
1.86923
1.8405
1.81834
1.81273
1.811
1.81008
1.81285
1.82563
1.83302
1.83364
1.83238
1.83037
1.82772
1.82354
1.81724
1.81357
1.81329
1.81338
1.81175
1.80599
1.7948
1.77441
1.7688
1.7784
1.83245
1.96053
2.18874
2.44464
2.6805
2.82209
2.82989
2.84838
2.85925
2.85608
2.83521
2.81461
2.81272
2.81781
2.83375
2.85051
2.85158
2.84867
2.84278
2.8277
2.79657
2.76448
2.75266
2.74947
2.74811
2.75485
2.78301
2.81752
2.82579
2.82143
2.80921
2.78086
2.73694
2.71146
2.70725
2.70653
2.70866
2.71957
2.74864
2.78179
2.78621
2.78307
2.77339
2.74595
2.70463
2.68294
2.67826
2.67731
2.68085
2.69731
2.71616
2.71906
2.71487
2.70602
2.68872
2.66615
2.65018
2.64342
2.64156
2.64255
2.64929
2.65737
2.66428
2.67443
2.68216
2.68152
2.67844
2.67195
2.65881
2.63154
2.58689
2.55106
2.54229
2.54043
2.53988
2.54276
2.55531
2.58429
2.61739
2.62821
2.62674
2.6208
2.60358
2.57407
2.54975
2.53833
2.53424
2.53201
2.53151
2.53599
2.54228
2.54707
2.54939
2.54894
2.54374
2.53048
2.51426
2.50384
2.49735
2.49168
2.48751
2.48494
2.48389
2.48473
2.48874
2.49412
2.49528
2.49443
2.49119
2.48051
2.45522
2.43125
2.42118
2.41688
2.41468
2.41403
2.41833
2.44179
2.46487
2.11108
2.11096
2.1171
2.13476
2.14845
2.14837
2.14685
2.1435
2.13455
2.11179
2.08057
2.06639
2.06181
2.06012
2.05916
2.05943
2.06554
2.08408
2.10482
2.11003
2.10992
2.10904
2.10292
2.08268
2.05224
2.03929
2.03791
2.03943
2.04283
2.05112
2.07106
2.09951
2.11102
2.10936
2.10361
2.09087
2.06019
2.02204
2.00859
2.00568
2.00444
2.00561
2.01787
2.04423
2.05775
2.05641
2.05183
2.04194
2.01493
1.98257
1.97287
1.97062
1.96958
1.96951
1.97604
1.99835
2.02301
2.02715
2.02443
2.0191
2.00555
1.9707
1.93565
1.92682
1.92447
1.92319
1.92261
1.92662
1.94588
1.97596
1.98615
1.98402
1.97892
1.96818
1.93952
1.9037
1.89164
1.8887
1.88753
1.88682
1.88988
1.90788
1.93355
1.9385
1.9371
1.9342
1.92447
1.90095
1.88244
1.87799
1.87721
1.87689
1.87883
1.88843
1.9024
1.90663
1.907
1.90562
1.89853
1.87912
1.85736
1.85048
1.84888
1.84803
1.84754
1.85043
1.86388
1.8815
1.88427
1.88173
1.87648
1.86309
1.83504
1.81457
1.81109
1.81029
1.81096
1.81822
1.83151
1.83431
1.8328
1.83102
1.82843
1.82397
1.81707
1.80935
1.8055
1.80545
1.80677
1.80614
1.80161
1.79184
1.77532
1.76327
1.7633
1.77583
1.82827
1.97049
2.19565
2.48351
2.70419
2.79749
2.85457
2.86243
2.84889
2.8254
2.81244
2.80833
2.8122
2.83241
2.84981
2.8489
2.847
2.8416
2.82423
2.79294
2.76264
2.75085
2.74876
2.74892
2.75458
2.77448
2.80392
2.81498
2.81221
2.80305
2.78028
2.74097
2.7141
2.70947
2.70837
2.7082
2.71731
2.74699
2.78142
2.78689
2.78206
2.77114
2.7419
2.69808
2.67676
2.67355
2.67311
2.67592
2.68771
2.70532
2.71002
2.70646
2.7001
2.68793
2.66877
2.64965
2.64194
2.64088
2.64205
2.64645
2.65201
2.66047
2.67188
2.67612
2.67339
2.66774
2.65865
2.6453
2.6213
2.58151
2.55146
2.54551
2.54445
2.54566
2.55061
2.56005
2.58215
2.61185
2.62145
2.6185
2.61168
2.59401
2.56303
2.53901
2.52858
2.52501
2.52356
2.52625
2.54365
2.55762
2.56034
2.55954
2.55612
2.54438
2.51965
2.49838
2.4887
2.4845
2.48162
2.47971
2.47925
2.48466
2.49488
2.49784
2.49666
2.49425
2.4908
2.48436
2.46636
2.43723
2.41993
2.41602
2.4147
2.41433
2.41799
2.43025
2.45151
2.10433
2.10265
2.10207
2.10774
2.1281
2.14706
2.14806
2.14609
2.14294
2.13487
2.11258
2.07831
2.06117
2.05612
2.0539
2.0527
2.05231
2.05717
2.07647
2.10108
2.1079
2.10791
2.10732
2.10248
2.08367
2.05039
2.03387
2.032
2.03345
2.03643
2.04344
2.0615
2.09112
2.10555
2.10451
2.09942
2.08822
2.06119
2.0228
2.00619
2.00302
2.00159
2.00235
2.01235
2.03557
2.05093
2.0509
2.0461
2.03481
2.00895
1.97941
1.97027
1.96826
1.96732
1.96752
1.97372
1.99277
2.01526
2.02094
2.01884
2.01273
1.99855
1.96566
1.93254
1.92404
1.92213
1.921
1.92087
1.92585
1.94345
1.96908
1.97881
1.97773
1.97258
1.96035
1.93132
1.89795
1.88773
1.88533
1.88419
1.88388
1.88895
1.90877
1.93277
1.93724
1.93492
1.92993
1.91761
1.89222
1.87556
1.87175
1.87092
1.87064
1.87367
1.88757
1.90477
1.90886
1.90908
1.90735
1.89977
1.87775
1.85267
1.8444
1.84243
1.84118
1.8404
1.84281
1.85712
1.87573
1.87833
1.87645
1.87267
1.86121
1.83576
1.81635
1.81314
1.81261
1.81342
1.8191
1.82985
1.83297
1.83137
1.82927
1.82581
1.81949
1.81021
1.80181
1.79799
1.79801
1.80026
1.80084
1.79735
1.78968
1.77594
1.76233
1.7581
1.75881
1.77356
1.83317
1.97932
2.24119
2.49439
2.7039
2.8368
2.86198
2.85496
2.82269
2.78992
2.77963
2.78624
2.81418
2.84377
2.8479
2.84454
2.83767
2.82602
2.80513
2.77715
2.75541
2.75004
2.74825
2.74899
2.76246
2.79209
2.80841
2.8075
2.80034
2.78172
2.74571
2.71568
2.70802
2.70735
2.70938
2.72013
2.74659
2.77558
2.78186
2.77631
2.76458
2.73715
2.69682
2.67158
2.66467
2.66325
2.66428
2.67355
2.69387
2.70767
2.70885
2.70563
2.69588
2.67609
2.65274
2.6396
2.63606
2.63579
2.63691
2.64092
2.64998
2.66444
2.669
2.66569
2.66123
2.65635
2.64684
2.62502
2.58539
2.55374
2.54781
2.54652
2.54552
2.54616
2.55309
2.57484
2.60619
2.61675
2.61405
2.60581
2.58562
2.5519
2.52949
2.52345
2.52197
2.52198
2.5292
2.54938
2.5618
2.56124
2.55848
2.55166
2.53162
2.50286
2.48735
2.48191
2.47931
2.47784
2.47723
2.48028
2.4888
2.49379
2.49223
2.48962
2.48681
2.48173
2.4718
2.4532
2.43192
2.4216
2.4196
2.41945
2.42257
2.42888
2.43824
2.10129
2.09797
2.09644
2.09589
2.10128
2.12087
2.14264
2.14654
2.14407
2.14054
2.13266
2.1105
2.07503
2.05603
2.05078
2.04824
2.04694
2.04639
2.05118
2.07061
2.09733
2.10648
2.10616
2.10529
2.10085
2.08279
2.04756
2.02815
2.02581
2.027
2.0295
2.03523
2.05141
2.08196
2.09911
2.09883
2.09624
2.08786
2.06526
2.02699
2.0049
2.0006
1.99927
1.9997
2.00719
2.02642
2.04169
2.04213
2.03812
2.02888
2.00785
1.97996
1.96856
1.96626
1.9653
1.96566
1.97132
1.98694
2.00642
2.01233
2.01052
2.00508
1.99273
1.9645
1.93258
1.92262
1.92075
1.91986
1.92023
1.92549
1.94073
1.96201
1.96988
1.96849
1.96372
1.95217
1.92543
1.89464
1.88525
1.88357
1.88282
1.88343
1.89011
1.90761
1.92626
1.9301
1.92825
1.92249
1.90791
1.88297
1.86999
1.86716
1.8665
1.86685
1.8735
1.89287
1.90898
1.91019
1.90861
1.90521
1.89568
1.87038
1.84525
1.83762
1.83536
1.83409
1.83327
1.83617
1.85314
1.87348
1.87661
1.87595
1.87317
1.86264
1.83672
1.81615
1.81185
1.81086
1.81051
1.81498
1.8273
1.83145
1.82977
1.82755
1.82368
1.81591
1.80426
1.79493
1.79118
1.79117
1.79328
1.79502
1.79296
1.78732
1.77705
1.76301
1.7564
1.75498
1.75607
1.77219
1.84286
2.00311
2.25167
2.51529
2.72839
2.82832
2.84109
2.80459
2.77525
2.77421
2.77696
2.79318
2.81847
2.83533
2.84017
2.83701
2.82819
2.81437
2.78871
2.75974
2.748
2.74487
2.74488
2.75742
2.78664
2.80194
2.80154
2.79406
2.77561
2.74543
2.71945
2.71147
2.71043
2.71185
2.71915
2.73892
2.76601
2.77458
2.77069
2.76007
2.7319
2.68663
2.65932
2.65156
2.65029
2.6522
2.66803
2.70215
2.71688
2.71636
2.71244
2.70078
2.67565
2.64574
2.62996
2.62432
2.6233
2.62374
2.62852
2.64207
2.66134
2.66706
2.66619
2.66361
2.6595
2.65008
2.62557
2.58196
2.55088
2.54319
2.54085
2.53945
2.53982
2.54826
2.57273
2.60233
2.60995
2.60731
2.59854
2.57832
2.54725
2.52714
2.52302
2.52233
2.52415
2.53229
2.54621
2.55509
2.55476
2.55076
2.54151
2.52294
2.4987
2.48462
2.48162
2.48051
2.47892
2.47738
2.47793
2.48341
2.48776
2.48589
2.48259
2.47865
2.47328
2.46665
2.45536
2.43737
2.428
2.42679
2.42622
2.42531
2.42576
2.10271
2.09711
2.09406
2.09247
2.09212
2.0964
2.11143
2.13295
2.1423
2.14084
2.1363
2.12747
2.10606
2.07164
2.05174
2.04663
2.04422
2.04299
2.04299
2.04897
2.06697
2.09208
2.10381
2.10373
2.10174
2.09679
2.07967
2.04387
2.02176
2.01858
2.01921
2.02092
2.0256
2.04167
2.07618
2.09722
2.09759
2.09615
2.08987
2.07121
2.03314
2.00427
1.99737
1.99568
1.99524
1.99981
2.01651
2.03329
2.03464
2.03177
2.02547
2.00923
1.98233
1.96724
1.96385
1.96306
1.96321
1.96725
1.97946
1.99741
2.00399
2.00242
1.99816
1.98846
1.96516
1.93383
1.9216
1.91954
1.91886
1.91924
1.92344
1.93554
1.95369
1.96107
1.95965
1.95538
1.94591
1.92437
1.89627
1.88527
1.8836
1.88316
1.88454
1.8904
1.90389
1.91847
1.92137
1.9193
1.91331
1.89911
1.87692
1.86677
1.86518
1.86509
1.86787
1.87766
1.89427
1.9049
1.90573
1.90401
1.89954
1.88777
1.86079
1.83738
1.83075
1.82882
1.82784
1.82746
1.83338
1.85632
1.87821
1.87992
1.87881
1.87508
1.86187
1.83211
1.81151
1.80698
1.80583
1.80545
1.8107
1.82489
1.82956
1.82822
1.82634
1.82257
1.81368
1.79906
1.78832
1.78481
1.78446
1.78605
1.78868
1.78812
1.78427
1.77769
1.7663
1.75628
1.75356
1.75282
1.75515
1.77515
1.85398
2.0181
2.27725
2.51874
2.6933
2.77934
2.80443
2.80315
2.78442
2.78089
2.78383
2.7963
2.81608
2.82953
2.82995
2.82584
2.81492
2.79077
2.75915
2.74442
2.74147
2.7427
2.75849
2.78592
2.79283
2.79049
2.78507
2.77349
2.75324
2.72762
2.71251
2.70917
2.70793
2.71121
2.73037
2.76015
2.7684
2.76439
2.75225
2.71855
2.67067
2.64933
2.64585
2.64566
2.6504
2.67203
2.70811
2.72155
2.71912
2.71355
2.69907
2.66797
2.63415
2.61966
2.61529
2.61518
2.61685
2.62278
2.639
2.66297
2.66904
2.66726
2.66448
2.65962
2.64812
2.6194
2.57137
2.54334
2.5382
2.53678
2.53652
2.53868
2.54811
2.57168
2.59799
2.60262
2.6008
2.59437
2.57866
2.55139
2.52981
2.52542
2.52437
2.52388
2.52686
2.53704
2.54626
2.54594
2.54353
2.53809
2.52417
2.50129
2.48321
2.47535
2.47249
2.46994
2.46813
2.46834
2.47394
2.48111
2.48041
2.47828
2.4776
2.47702
2.47354
2.46183
2.44105
2.42626
2.42022
2.41568
2.41418
2.123
2.10191
2.09434
2.09136
2.08957
2.08906
2.09164
2.10162
2.11961
2.13272
2.13338
2.12928
2.12049
2.10198
2.07124
2.04934
2.04393
2.0422
2.04148
2.04264
2.04856
2.06188
2.08269
2.09659
2.09809
2.09607
2.09083
2.07404
2.03783
2.01399
2.01039
2.01082
2.01275
2.01812
2.03612
2.07425
2.09843
2.09969
2.09836
2.09294
2.07535
2.0344
1.99982
1.99086
1.98859
1.98755
1.9908
2.0079
2.02739
2.03002
2.029
2.02486
2.01166
1.98463
1.96501
1.95971
1.95877
1.95838
1.96064
1.9709
1.98954
1.99738
1.99601
1.99331
1.98619
1.96673
1.9359
1.92048
1.91726
1.91645
1.91622
1.91872
1.92805
1.94502
1.9535
1.95231
1.9491
1.94238
1.92597
1.89975
1.88621
1.88396
1.88323
1.88339
1.88657
1.89636
1.90958
1.91296
1.91134
1.9065
1.89526
1.87725
1.86742
1.86608
1.86675
1.87065
1.87867
1.89048
1.89798
1.89824
1.89629
1.89122
1.87841
1.85136
1.83147
1.82681
1.82549
1.825
1.82645
1.8364
1.86015
1.87991
1.88081
1.87793
1.87194
1.85514
1.82336
1.80592
1.80228
1.80111
1.80085
1.80746
1.82353
1.82838
1.8275
1.82577
1.82208
1.81164
1.79313
1.78128
1.77828
1.77774
1.77862
1.78259
1.78362
1.78174
1.77815
1.77064
1.75942
1.75322
1.75203
1.75147
1.75595
1.77851
1.86625
2.02643
2.2765
2.5116
2.6838
2.76184
2.78642
2.79168
2.79187
2.79438
2.80472
2.82063
2.82664
2.82507
2.82112
2.80792
2.77862
2.74871
2.73664
2.73424
2.73648
2.75282
2.78164
2.79163
2.79057
2.7884
2.78096
2.76127
2.72853
2.70862
2.7056
2.70493
2.70804
2.72602
2.75402
2.76036
2.75507
2.74022
2.70744
2.66606
2.64762
2.64515
2.64545
2.65151
2.67121
2.70319
2.71789
2.71561
2.70938
2.69438
2.66442
2.6303
2.61467
2.6108
2.61012
2.61048
2.61665
2.6364
2.66251
2.66841
2.66615
2.66248
2.65655
2.64307
2.61031
2.56257
2.54008
2.53703
2.5359
2.53524
2.53653
2.54563
2.57095
2.59944
2.60364
2.60218
2.59733
2.58227
2.55294
2.52748
2.51772
2.51529
2.51438
2.51682
2.52869
2.5439
2.546
2.54469
2.53983
2.52378
2.49516
2.47509
2.46654
2.46216
2.4593
2.45747
2.45867
2.46998
2.48246
2.48566
2.48688
2.48615
2.48389
2.4768
2.45623
2.42998
2.41706
2.41129
2.41034
2.14987
2.13053
2.1071
2.09364
2.08905
2.08658
2.08568
2.08644
2.09217
2.10591
2.12126
2.12437
2.12131
2.11488
2.10219
2.07801
2.05253
2.04376
2.04208
2.04164
2.04277
2.0462
2.05533
2.07328
2.0881
2.09016
2.08795
2.08263
2.06595
2.03035
2.00666
2.00376
2.0046
2.00775
2.0152
2.03652
2.07792
2.10283
2.10271
2.0999
2.09316
2.07271
2.02734
1.99181
1.98303
1.98027
1.97915
1.98282
2.0043
2.02747
2.02989
2.02906
2.02535
2.01247
1.9824
1.95957
1.95387
1.95253
1.95153
1.95253
1.9629
1.98435
1.99365
1.99334
1.99163
1.98605
1.96901
1.9374
1.91783
1.91302
1.91195
1.91125
1.91221
1.91992
1.93789
1.94835
1.94782
1.9461
1.94152
1.92811
1.90247
1.88524
1.88101
1.87984
1.87912
1.8803
1.88844
1.90216
1.90654
1.90535
1.90276
1.89533
1.88066
1.86989
1.86786
1.86772
1.86925
1.87377
1.8828
1.88994
1.89018
1.88842
1.8837
1.87136
1.84603
1.82832
1.82535
1.82477
1.82566
1.82926
1.83871
1.85858
1.87449
1.87551
1.87288
1.86611
1.84677
1.81554
1.80168
1.79873
1.79753
1.79758
1.80678
1.82483
1.82858
1.82727
1.82538
1.8211
1.80751
1.78531
1.77408
1.7716
1.77094
1.77177
1.77773
1.78199
1.78092
1.77907
1.77403
1.76534
1.75502
1.75059
1.74844
1.7486
1.75442
1.77992
1.87329
2.05384
2.29566
2.50863
2.65446
2.75215
2.77452
2.78922
2.80682
2.81697
2.82733
2.83073
2.82842
2.81738
2.79598
2.76639
2.73955
2.7301
2.72805
2.72849
2.74209
2.77254
2.79268
2.79266
2.79094
2.78447
2.76288
2.72547
2.70563
2.70224
2.70154
2.70448
2.72
2.74398
2.74853
2.7437
2.73211
2.70778
2.67184
2.64862
2.64447
2.64397
2.64686
2.66273
2.69522
2.71431
2.71316
2.709
2.69626
2.66403
2.62442
2.60749
2.60321
2.60241
2.60313
2.61118
2.63466
2.66228
2.66692
2.6648
2.66157
2.6556
2.64012
2.60347
2.55647
2.53745
2.53374
2.53203
2.53063
2.53146
2.54305
2.57486
2.60664
2.60997
2.60645
2.59859
2.57834
2.54226
2.51651
2.50848
2.50643
2.50604
2.51058
2.52641
2.54467
2.54689
2.54402
2.53653
2.51657
2.48577
2.46638
2.45985
2.45652
2.45467
2.45386
2.4588
2.47406
2.48517
2.4865
2.48537
2.48298
2.47864
2.46634
2.44138
2.4186
2.41025
2.40985
2.15788
2.15197
2.13899
2.11565
2.094
2.08544
2.08181
2.08043
2.07981
2.08213
2.09257
2.11035
2.11671
2.11516
2.11245
2.10507
2.08665
2.05879
2.04429
2.04083
2.03969
2.03919
2.04048
2.04706
2.06258
2.07807
2.08099
2.07886
2.07384
2.05857
2.02589
2.00272
2.00055
2.00239
2.00765
2.01799
2.0398
2.07605
2.10026
2.10099
2.09656
2.08729
2.06356
2.016
1.98296
1.97566
1.9733
1.97238
1.97881
2.00693
2.03015
2.03113
2.02963
2.02531
2.00949
1.97431
1.95165
1.94643
1.94473
1.94362
1.94489
1.95885
1.98484
1.99299
1.99291
1.99127
1.98602
1.96905
1.93462
1.91244
1.90733
1.90596
1.90486
1.90512
1.9132
1.93518
1.94787
1.94771
1.9462
1.94187
1.92898
1.9015
1.88087
1.87562
1.87424
1.87328
1.87386
1.88197
1.89792
1.90374
1.90357
1.90199
1.89617
1.88246
1.86908
1.86485
1.86407
1.86378
1.8662
1.87465
1.88267
1.88335
1.88198
1.87831
1.86807
1.8461
1.82942
1.82656
1.82615
1.82625
1.82806
1.83654
1.85608
1.86977
1.86978
1.86699
1.85978
1.84003
1.81063
1.79881
1.79675
1.79579
1.79672
1.80753
1.825
1.82847
1.82634
1.82382
1.81753
1.79888
1.77627
1.76788
1.76575
1.76505
1.76591
1.77368
1.78204
1.78252
1.78122
1.77792
1.76963
1.75662
1.74716
1.74377
1.74268
1.7436
1.75312
1.78903
1.87664
2.05904
2.28751
2.51394
2.63711
2.71479
2.75896
2.7913
2.81817
2.83032
2.83034
2.82243
2.81
2.79622
2.77054
2.73815
2.72702
2.7257
2.72583
2.73539
2.76394
2.79333
2.79787
2.79444
2.78497
2.7593
2.71956
2.70194
2.69886
2.69668
2.69761
2.71103
2.73478
2.74077
2.73846
2.7311
2.71204
2.67664
2.64803
2.64085
2.63986
2.64173
2.65713
2.69318
2.71829
2.71826
2.71263
2.69556
2.65585
2.61372
2.60016
2.59706
2.5963
2.59772
2.60823
2.63387
2.66238
2.66751
2.66544
2.66213
2.6548
2.63563
2.5928
2.54654
2.53278
2.52998
2.52872
2.52873
2.53292
2.5492
2.58172
2.60541
2.606
2.60122
2.59104
2.56687
2.52961
2.50764
2.5032
2.50246
2.50321
2.50958
2.52487
2.53886
2.54002
2.53652
2.52838
2.5096
2.48135
2.46198
2.45655
2.4547
2.4538
2.45647
2.46424
2.47518
2.48179
2.48095
2.47842
2.47503
2.46816
2.45505
2.43383
2.41656
2.41276
2.15921
2.15795
2.15436
2.14449
2.12069
2.09214
2.07995
2.07534
2.0733
2.07187
2.07212
2.08127
2.10424
2.1159
2.11537
2.11362
2.10847
2.09242
2.0613
2.04117
2.03577
2.03418
2.03329
2.03327
2.03719
2.05057
2.0676
2.07188
2.07065
2.06774
2.05604
2.02677
2.00255
2.00058
2.00389
2.01097
2.02063
2.037
2.06579
2.09029
2.0928
2.088
2.07711
2.05143
2.00631
1.97769
1.97195
1.97021
1.9703
1.98115
2.01106
2.03139
2.03178
2.02833
2.02055
1.99885
1.96114
1.94344
1.93959
1.93802
1.937
1.93987
1.95985
1.98802
1.99321
1.99263
1.99054
1.98499
1.96566
1.9277
1.90585
1.90072
1.89912
1.89806
1.89859
1.90969
1.93667
1.94854
1.94767
1.94561
1.94088
1.92631
1.89556
1.87457
1.86955
1.86817
1.86725
1.86817
1.87931
1.89933
1.90457
1.90418
1.90223
1.896
1.88016
1.86386
1.85855
1.85769
1.85733
1.85954
1.86844
1.87778
1.87906
1.87824
1.87588
1.86716
1.84598
1.82853
1.82453
1.82365
1.82328
1.82444
1.83321
1.8528
1.86467
1.86421
1.86185
1.85553
1.83867
1.81154
1.79816
1.79602
1.79523
1.79644
1.80541
1.82079
1.82607
1.82411
1.81985
1.81041
1.78924
1.76945
1.76312
1.76127
1.76058
1.76211
1.77302
1.78403
1.78403
1.78247
1.779
1.7699
1.75367
1.74348
1.7392
1.73793
1.73747
1.74082
1.75625
1.79671
1.8787
2.05031
2.29968
2.52435
2.63248
2.69565
2.74054
2.76886
2.78999
2.81093
2.81653
2.81339
2.79834
2.77548
2.74731
2.73134
2.72895
2.73145
2.74153
2.7643
2.78548
2.78978
2.78755
2.77671
2.75087
2.71654
2.69756
2.69313
2.69153
2.69221
2.70675
2.73442
2.74165
2.74061
2.73499
2.71546
2.67424
2.64351
2.63718
2.63587
2.63803
2.65546
2.69213
2.71494
2.71403
2.70654
2.68727
2.64795
2.60759
2.59414
2.59199
2.59232
2.59538
2.60573
2.62998
2.65968
2.66685
2.66381
2.65895
2.64967
2.62668
2.58105
2.54107
2.53162
2.53026
2.52977
2.53269
2.53964
2.55391
2.58086
2.59827
2.59712
2.59181
2.58132
2.55966
2.52616
2.50578
2.50276
2.50203
2.50177
2.50523
2.51717
2.53081
2.53223
2.52987
2.52438
2.51009
2.48501
2.46446
2.45951
2.45831
2.45638
2.45491
2.4566
2.4658
2.47439
2.47409
2.47143
2.46777
2.46355
2.45483
2.43738
2.4217
2.15936
2.16005
2.15857
2.15533
2.14616
2.12084
2.08773
2.07331
2.06801
2.06577
2.06437
2.06446
2.07443
2.10106
2.11691
2.11604
2.11393
2.10881
2.0925
2.05894
2.03555
2.02917
2.02688
2.02542
2.02457
2.0267
2.03988
2.05983
2.06673
2.06744
2.06664
2.0586
2.03381
2.0073
2.00335
2.00545
2.01002
2.01576
2.02687
2.05091
2.07698
2.08127
2.07689
2.06704
2.04562
2.00725
1.97735
1.97127
1.97051
1.97329
1.98466
2.00556
2.02172
2.02347
2.02001
2.00928
1.98325
1.94979
1.93791
1.93499
1.9336
1.93322
1.94062
1.96731
1.99173
1.99379
1.9922
1.98883
1.98081
1.95597
1.91591
1.89852
1.89479
1.89352
1.89264
1.89447
1.91085
1.93983
1.94757
1.9459
1.94347
1.93793
1.92002
1.88647
1.86824
1.86429
1.86317
1.86245
1.86461
1.8799
1.90101
1.90404
1.90292
1.90045
1.8924
1.87308
1.85694
1.85249
1.85191
1.85178
1.85501
1.86578
1.8765
1.87811
1.87686
1.87372
1.86437
1.84242
1.82504
1.82097
1.82003
1.81959
1.82089
1.83066
1.85067
1.86089
1.86052
1.85895
1.85418
1.84017
1.81456
1.7983
1.79496
1.79422
1.79453
1.80055
1.813
1.81866
1.81734
1.8131
1.80297
1.78232
1.7652
1.7605
1.75909
1.75855
1.76131
1.77309
1.78373
1.78383
1.78129
1.77708
1.76726
1.75036
1.73952
1.7358
1.73393
1.73317
1.73476
1.7459
1.76415
1.79771
1.88185
2.05253
2.26453
2.53224
2.64446
2.6878
2.71819
2.75886
2.78606
2.79421
2.79898
2.79264
2.77765
2.75928
2.74662
2.74371
2.74555
2.75382
2.77002
2.78088
2.78031
2.77538
2.76467
2.74283
2.71105
2.69264
2.6883
2.68684
2.68773
2.70366
2.73474
2.74358
2.74192
2.73596
2.71411
2.6694
2.63893
2.63343
2.63251
2.63478
2.64978
2.68304
2.70605
2.70484
2.69847
2.68224
2.64869
2.60892
2.59279
2.59088
2.59082
2.59248
2.60089
2.62483
2.65513
2.66147
2.65877
2.6541
2.64453
2.6204
2.5742
2.53969
2.5343
2.53337
2.53276
2.53257
2.53507
2.54787
2.57533
2.59111
2.59004
2.58695
2.57952
2.55925
2.52551
2.50276
2.49572
2.49386
2.49324
2.49665
2.5107
2.52801
2.5327
2.53216
2.52882
2.51605
2.48846
2.46394
2.45346
2.44793
2.44427
2.44273
2.44441
2.45558
2.46823
2.47099
2.47151
2.47122
2.46907
2.46208
2.43898
2.14034
2.15881
2.16052
2.1579
2.15376
2.14347
2.11552
2.08098
2.06747
2.06298
2.06079
2.05959
2.06017
2.07023
2.09538
2.11415
2.11456
2.11121
2.10522
2.08859
2.05415
2.02899
2.02189
2.01883
2.01718
2.01614
2.01844
2.03487
2.05918
2.06639
2.06828
2.06843
2.06286
2.04012
2.00887
2.00045
2.0008
2.00257
2.00566
2.01338
2.03431
2.06321
2.07061
2.06844
2.06333
2.04953
2.01994
1.98703
1.97671
1.97555
1.97662
1.98274
1.99526
2.00784
2.00961
2.00583
1.99506
1.97156
1.94395
1.93467
1.93286
1.93238
1.93555
1.94855
1.97245
1.98786
1.98887
1.98717
1.98258
1.96985
1.94034
1.90534
1.8939
1.89112
1.88984
1.88932
1.89383
1.914
1.94045
1.94622
1.94398
1.93995
1.93186
1.91034
1.87726
1.86381
1.86114
1.86006
1.85968
1.86418
1.88274
1.90136
1.90283
1.90076
1.89663
1.88622
1.86498
1.85108
1.84778
1.8475
1.84788
1.85254
1.86414
1.87316
1.87393
1.87274
1.86971
1.85974
1.83748
1.82109
1.81745
1.81656
1.81612
1.81806
1.82958
1.85153
1.8611
1.86056
1.85917
1.85485
1.84209
1.81628
1.79666
1.79138
1.79029
1.78999
1.79391
1.80491
1.81163
1.81062
1.80678
1.79827
1.78118
1.76449
1.7596
1.75848
1.75832
1.76075
1.76834
1.77772
1.78013
1.77791
1.77289
1.76302
1.74725
1.73665
1.73328
1.73167
1.73102
1.73158
1.73997
1.75284
1.76232
1.79024
1.86584
2.04366
2.26254
2.48337
2.64561
2.70254
2.73593
2.75102
2.77425
2.78581
2.78467
2.77871
2.76503
2.75355
2.75089
2.74991
2.75314
2.76585
2.7744
2.77216
2.76794
2.75962
2.73823
2.70546
2.6881
2.68453
2.68308
2.68529
2.70628
2.73513
2.74267
2.74191
2.73558
2.71307
2.66904
2.63679
2.62935
2.62764
2.62804
2.63961
2.67275
2.70199
2.70292
2.6985
2.68519
2.65206
2.6088
2.58927
2.58449
2.58325
2.58363
2.59209
2.61912
2.65293
2.65864
2.65675
2.65356
2.64455
2.61766
2.56977
2.53734
2.5295
2.52679
2.52454
2.52327
2.52617
2.54441
2.57913
2.59543
2.59359
2.58967
2.57975
2.55331
2.51388
2.49353
2.48826
2.48666
2.48641
2.49248
2.51386
2.53791
2.54198
2.5392
2.53218
2.513
2.47814
2.4519
2.44148
2.43741
2.43525
2.434
2.43781
2.45575
2.47587
2.4785
2.47835
2.47741
2.47532
2.45526
2.12064
2.13467
2.15047
2.15595
2.15397
2.14816
2.13589
2.10959
2.07763
2.06363
2.05992
2.05789
2.05696
2.05783
2.0656
2.08528
2.10527
2.10923
2.1061
2.09896
2.08166
2.04737
2.02216
2.01514
2.01208
2.01052
2.00971
2.01416
2.0358
2.06324
2.06989
2.07077
2.07011
2.06382
2.03845
2.00206
1.9909
1.99035
1.99108
1.99276
1.99906
2.02108
2.05608
2.06728
2.06761
2.06539
2.05667
2.0334
1.997
1.97851
1.97444
1.97309
1.97361
1.98039
1.99212
1.9957
1.99293
1.98498
1.96741
1.94499
1.93588
1.93461
1.93641
1.94383
1.95614
1.97031
1.97777
1.97767
1.97511
1.96942
1.95604
1.92912
1.90019
1.8909
1.88889
1.88789
1.8883
1.89572
1.91506
1.93454
1.93859
1.93693
1.93315
1.92375
1.9014
1.87175
1.86118
1.85938
1.85852
1.85884
1.86585
1.88388
1.89694
1.89772
1.89618
1.89187
1.87961
1.85753
1.84624
1.84388
1.84366
1.84416
1.84911
1.86121
1.86955
1.86979
1.86873
1.86595
1.8558
1.83366
1.81768
1.81458
1.81389
1.81365
1.81627
1.82896
1.85227
1.8617
1.86114
1.8597
1.85531
1.84148
1.81248
1.79086
1.78535
1.78412
1.7835
1.78615
1.79694
1.80561
1.80505
1.80327
1.79829
1.78578
1.7682
1.76014
1.75823
1.7574
1.75759
1.76143
1.76921
1.7734
1.77229
1.76819
1.7606
1.74794
1.7364
1.73183
1.73052
1.72968
1.73042
1.73387
1.74212
1.74747
1.75137
1.77687
1.8592
2.01967
2.25692
2.47337
2.65301
2.71662
2.75149
2.78233
2.78533
2.78352
2.77392
2.75909
2.74492
2.73677
2.73507
2.7383
2.75355