/*--------------------------------*- C++ -*----------------------------------*\
  =========                 |
  \\      /  F ield         | OpenFOAM: The Open Source CFD Toolbox
   \\    /   O peration     | Website:  https://openfoam.org
    \\  /    A nd           | Version:  7
     \\/     M anipulation  |
\*---------------------------------------------------------------------------*/
FoamFile
{
    version     2.0;
    format      ascii;
    class       volScalarField;
    location    "3";
    object      T;
}
// * * * * * * * * * * * * * * * * * * * * * * * * * * * * * * * * * * * * * //

dimensions      [0 0 0 1 0 0 0];

internalField   nonuniform List<scalar> 
16192
(
1.55716
1.5554
1.55276
1.5475
1.53863
1.53148
1.52876
1.5275
1.527
1.52673
1.52716
1.52974
1.53508
1.53931
1.53984
1.5387
1.53681
1.53337
1.52609
1.51721
1.514
1.51379
1.51458
1.51586
1.51805
1.52325
1.53167
1.53579
1.53527
1.5335
1.53108
1.52638
1.51596
1.5049
1.50119
1.50027
1.4999
1.50025
1.50424
1.51138
1.51319
1.51232
1.51094
1.50859
1.50303
1.4947
1.49054
1.48952
1.48923
1.4892
1.49104
1.49664
1.50153
1.5018
1.50066
1.49872
1.49448
1.48522
1.47613
1.47344
1.47272
1.47228
1.47212
1.47323
1.47808
1.48556
1.488
1.48735
1.48568
1.48269
1.47565
1.46577
1.4615
1.46042
1.46006
1.45984
1.46065
1.46445
1.46993
1.47134
1.47043
1.46845
1.46457
1.45805
1.45432
1.45356
1.45336
1.45346
1.45443
1.45715
1.45953
1.45962
1.4584
1.45619
1.45221
1.4441
1.43694
1.43493
1.43438
1.43398
1.43394
1.43626
1.4435
1.44988
1.45014
1.44871
1.44689
1.44366
1.43597
1.42719
1.4243
1.42373
1.42325
1.42266
1.42224
1.42203
1.42156
1.42062
1.41963
1.41877
1.41817
1.41787
1.41794
1.41833
1.41774
1.41745
1.41381
1.41242
1.42174
1.4612
1.52887
1.59924
1.65166
1.69163
1.71761
1.7305
1.73203
1.73212
1.7305
1.72466
1.71606
1.70773
1.70578
1.70614
1.70832
1.71417
1.72226
1.72579
1.72535
1.72342
1.7181
1.70721
1.69733
1.69567
1.69595
1.69748
1.70233
1.71144
1.71908
1.72026
1.71931
1.71625
1.70819
1.69613
1.68966
1.6887
1.68868
1.6895
1.69329
1.70175
1.70894
1.70929
1.70859
1.7063
1.70006
1.69135
1.68728
1.6867
1.68684
1.68786
1.69144
1.69568
1.69593
1.69576
1.69535
1.69399
1.69111
1.68787
1.6855
1.68428
1.68354
1.68269
1.68164
1.68061
1.68007
1.68033
1.68121
1.68198
1.68217
1.68226
1.68173
1.67787
1.67104
1.66807
1.66847
1.66955
1.67019
1.6714
1.6752
1.68027
1.68089
1.6788
1.67565
1.67215
1.66784
1.66516
1.66539
1.66697
1.66908
1.67174
1.6733
1.67329
1.67265
1.67033
1.66591
1.65955
1.65467
1.65226
1.65158
1.65149
1.65187
1.65407
1.65763
1.66004
1.66087
1.66116
1.66124
1.6608
1.65898
1.65496
1.6495
1.64356
1.63979
1.6388
1.63866
1.63954
1.64147
1.64328
1.64584
1.6479
1.64731
1.64448
1.63846
1.55352
1.55306
1.55137
1.54857
1.54412
1.5371
1.5296
1.52578
1.5243
1.52361
1.52326
1.52332
1.52471
1.52866
1.53357
1.53531
1.53473
1.53303
1.53033
1.52489
1.51664
1.51201
1.51153
1.51208
1.51297
1.5144
1.5183
1.52606
1.53151
1.53163
1.5299
1.52732
1.52262
1.51228
1.5011
1.49751
1.49673
1.49645
1.49695
1.50128
1.5088
1.51079
1.50994
1.50866
1.50636
1.50049
1.49139
1.48707
1.48611
1.48581
1.48571
1.48728
1.49288
1.49857
1.4991
1.49833
1.49693
1.49357
1.48466
1.47414
1.47053
1.46963
1.46909
1.46871
1.46941
1.47383
1.48178
1.48457
1.484
1.48282
1.48045
1.47386
1.46333
1.4584
1.45722
1.45679
1.45644
1.45704
1.46066
1.46647
1.46809
1.46734
1.46584
1.46269
1.45662
1.45227
1.45113
1.45074
1.45063
1.45115
1.45331
1.45564
1.45582
1.45468
1.4526
1.44867
1.44077
1.43419
1.4326
1.43213
1.43192
1.43242
1.43505
1.44099
1.4466
1.44737
1.4462
1.44402
1.44016
1.43185
1.42324
1.42045
1.41976
1.41915
1.41852
1.41848
1.41882
1.41881
1.41833
1.41765
1.41716
1.4168
1.41639
1.41594
1.41595
1.41543
1.41426
1.41238
1.40588
1.40643
1.41877
1.46041
1.52842
1.60282
1.65182
1.68463
1.71455
1.72536
1.72509
1.7242
1.72101
1.71472
1.70892
1.70615
1.70626
1.70738
1.7111
1.7172
1.71958
1.71941
1.71778
1.71322
1.70455
1.69588
1.69366
1.69391
1.69539
1.69918
1.70693
1.71384
1.71477
1.71427
1.71232
1.70535
1.69334
1.68666
1.68589
1.68591
1.68621
1.6891
1.69681
1.70483
1.70592
1.70554
1.70402
1.69846
1.68942
1.68426
1.68303
1.68297
1.68381
1.68785
1.69303
1.69354
1.69328
1.69262
1.69039
1.68604
1.68236
1.68049
1.67985
1.67936
1.67866
1.67779
1.67726
1.67746
1.67932
1.68199
1.68265
1.68254
1.68257
1.6816
1.67585
1.66646
1.66333
1.66335
1.66349
1.66372
1.66507
1.66968
1.67596
1.67698
1.6764
1.67453
1.67185
1.66762
1.66366
1.66296
1.66377
1.66554
1.66787
1.66907
1.66893
1.66797
1.66517
1.66096
1.65617
1.65246
1.651
1.6509
1.65236
1.65459
1.65478
1.65497
1.65534
1.65548
1.65539
1.65478
1.65343
1.6517
1.64998
1.64755
1.64321
1.6397
1.63915
1.63926
1.63899
1.63823
1.63808
1.63933
1.64089
1.64007
1.63722
1.54435
1.54766
1.54818
1.54691
1.54463
1.54154
1.53679
1.52954
1.52362
1.52127
1.52025
1.51978
1.51951
1.52008
1.52278
1.52778
1.53085
1.53087
1.52965
1.52783
1.52417
1.51706
1.5104
1.50873
1.50884
1.50936
1.51031
1.51332
1.52033
1.52694
1.52779
1.52622
1.52356
1.51905
1.50901
1.49767
1.49419
1.49347
1.49325
1.49377
1.49801
1.50572
1.50808
1.50731
1.50612
1.5038
1.4975
1.48787
1.48364
1.48276
1.48247
1.48232
1.48385
1.49023
1.49691
1.49739
1.49654
1.4951
1.49168
1.48233
1.47097
1.46712
1.46619
1.4656
1.46511
1.46562
1.47024
1.47902
1.48194
1.48139
1.48036
1.47809
1.47123
1.46003
1.45501
1.45388
1.45339
1.45296
1.45343
1.45714
1.46343
1.46518
1.4647
1.46361
1.46105
1.45529
1.44996
1.44815
1.4476
1.44728
1.4475
1.44917
1.45161
1.45196
1.45102
1.44928
1.4459
1.43886
1.43262
1.43113
1.43071
1.43082
1.4315
1.43336
1.43782
1.44276
1.44344
1.44234
1.44022
1.43606
1.42732
1.41917
1.41663
1.41595
1.4154
1.41508
1.41601
1.41729
1.41757
1.41749
1.41725
1.41627
1.41491
1.41332
1.4122
1.41182
1.4116
1.41067
1.40884
1.40372
1.39813
1.40059
1.41572
1.45675
1.52875
1.59653
1.66815
1.69482
1.70733
1.71517
1.71491
1.71418
1.71277
1.70861
1.70481
1.70438
1.70486
1.70852
1.71328
1.71431
1.71406
1.71284
1.70911
1.70122
1.69301
1.6903
1.69014
1.69051
1.69349
1.70205
1.71077
1.712
1.71149
1.70946
1.70213
1.69022
1.68357
1.6825
1.68242
1.68252
1.68522
1.69355
1.70249
1.70388
1.70357
1.70214
1.69621
1.6859
1.68036
1.67949
1.67956
1.68068
1.68491
1.69026
1.69104
1.69039
1.6892
1.68612
1.6811
1.67768
1.67636
1.67618
1.67603
1.67555
1.67513
1.67581
1.67899
1.68228
1.68267
1.68207
1.68185
1.68162
1.67894
1.67005
1.66073
1.65866
1.6587
1.65921
1.65962
1.66137
1.66699
1.67534
1.67733
1.67598
1.67349
1.67007
1.66426
1.65969
1.65897
1.6597
1.66131
1.66299
1.66374
1.66347
1.66241
1.66077
1.65877
1.65615
1.65319
1.65138
1.65117
1.65078
1.65021
1.64965
1.64926
1.64912
1.64919
1.64962
1.64961
1.64951
1.64954
1.64911
1.64748
1.64335
1.63835
1.63582
1.63425
1.63274
1.63173
1.63162
1.63353
1.637
1.63713
1.53562
1.53778
1.54173
1.54344
1.54265
1.54134
1.5395
1.53622
1.52951
1.52152
1.5179
1.51658
1.51605
1.51556
1.51566
1.51751
1.52243
1.52677
1.52729
1.52653
1.52546
1.52288
1.51664
1.50847
1.50551
1.50527
1.50561
1.50627
1.50863
1.51478
1.52219
1.52402
1.52268
1.52
1.51575
1.50637
1.495
1.49117
1.49031
1.4901
1.49052
1.49447
1.50236
1.50535
1.50466
1.50345
1.50096
1.494
1.48406
1.48029
1.47957
1.47932
1.47919
1.48087
1.48772
1.49487
1.49543
1.49428
1.49259
1.48872
1.47871
1.46719
1.46351
1.46258
1.46203
1.46153
1.46217
1.46747
1.47686
1.47963
1.47894
1.47779
1.47521
1.46763
1.45619
1.45154
1.45052
1.45001
1.44956
1.45002
1.45428
1.46148
1.46312
1.46266
1.46166
1.45914
1.45289
1.44673
1.44466
1.44398
1.44342
1.44344
1.44487
1.44774
1.44844
1.44788
1.44675
1.44408
1.43795
1.43173
1.43001
1.42959
1.42935
1.42934
1.4302
1.43397
1.43888
1.43952
1.43835
1.43615
1.43177
1.42297
1.41552
1.4133
1.41266
1.41223
1.41283
1.4162
1.41773
1.41746
1.41607
1.41458
1.41318
1.41147
1.40932
1.40807
1.40784
1.40776
1.40708
1.4051
1.4015
1.39495
1.39254
1.39571
1.41455
1.45762
1.52969
1.60302
1.66607
1.70134
1.70297
1.70794
1.71076
1.70995
1.70523
1.70085
1.70073
1.70257
1.70681
1.71082
1.71111
1.71046
1.70871
1.70468
1.69655
1.68815
1.68561
1.68552
1.68621
1.68972
1.69806
1.70725
1.7095
1.70842
1.7056
1.69877
1.68767
1.68075
1.67961
1.67952
1.68032
1.68334
1.69089
1.6996
1.70098
1.7004
1.69892
1.69324
1.68309
1.67729
1.6762
1.67605
1.67686
1.68086
1.68591
1.68705
1.68659
1.6855
1.68256
1.67768
1.67436
1.67335
1.67322
1.67352
1.67474
1.67567
1.67638
1.67816
1.67982
1.67961
1.67933
1.67901
1.6776
1.67333
1.66432
1.65649
1.65555
1.65596
1.65662
1.6577
1.65991
1.66552
1.67227
1.67376
1.67243
1.67001
1.66622
1.66016
1.65559
1.65468
1.65522
1.65633
1.65733
1.65904
1.66016
1.66061
1.66059
1.65948
1.65674
1.65247
1.64804
1.64566
1.64447
1.64372
1.64353
1.64374
1.64465
1.6463
1.64823
1.6498
1.65024
1.65017
1.64927
1.64605
1.63913
1.6326
1.62995
1.62893
1.6284
1.62818
1.62904
1.63411
1.63866
1.53049
1.53025
1.53165
1.53642
1.54012
1.53984
1.53879
1.53739
1.53475
1.52835
1.51894
1.51428
1.51271
1.51209
1.51146
1.51128
1.51252
1.5174
1.5231
1.52434
1.52392
1.52309
1.52105
1.51546
1.50632
1.50204
1.50154
1.50186
1.50238
1.50417
1.50948
1.51739
1.52034
1.51934
1.51673
1.5127
1.50408
1.49273
1.48832
1.4873
1.48706
1.4874
1.49094
1.49868
1.50267
1.50224
1.50069
1.49764
1.49
1.48041
1.47735
1.47675
1.47653
1.47648
1.47827
1.48464
1.49169
1.49269
1.49146
1.48922
1.48481
1.47447
1.46339
1.46008
1.45919
1.45868
1.45832
1.45925
1.46475
1.47387
1.47702
1.47639
1.4748
1.47159
1.46335
1.45228
1.44816
1.44719
1.44674
1.44634
1.44704
1.45216
1.45987
1.46134
1.4607
1.45946
1.45631
1.44907
1.44273
1.44077
1.44002
1.43934
1.43932
1.44113
1.44486
1.4458
1.44568
1.4449
1.44275
1.43709
1.43023
1.4277
1.427
1.42637
1.42586
1.42632
1.4298
1.43482
1.43546
1.43429
1.43219
1.42791
1.41921
1.41226
1.41062
1.41014
1.41016
1.41188
1.41535
1.4158
1.41446
1.413
1.41163
1.40984
1.40739
1.40486
1.4037
1.40361
1.40385
1.40345
1.40165
1.39838
1.39315
1.38879
1.38855
1.39283
1.41115
1.4587
1.52929
1.61192
1.66882
1.69168
1.70649
1.70895
1.70539
1.69954
1.69707
1.69704
1.69918
1.70471
1.70851
1.70809
1.70723
1.70551
1.70093
1.69304
1.68531
1.68298
1.68306
1.6844
1.68768
1.69368
1.70146
1.70453
1.70383
1.70179
1.69648
1.68671
1.67916
1.67755
1.67735
1.67745
1.6799
1.68751
1.69668
1.6985
1.69793
1.6965
1.69028
1.67932
1.67345
1.67246
1.67227
1.6728
1.67562
1.68051
1.6825
1.68233
1.68193
1.68045
1.6771
1.67281
1.67116
1.67099
1.67101
1.67122
1.67156
1.67259
1.67483
1.67584
1.6753
1.67471
1.6741
1.67294
1.66959
1.66164
1.65506
1.65443
1.65481
1.65555
1.65643
1.65767
1.66152
1.66768
1.66932
1.66804
1.66596
1.66251
1.6563
1.65178
1.65088
1.65139
1.65258
1.65454
1.659
1.66178
1.66195
1.66074
1.6581
1.6536
1.64662
1.64127
1.63939
1.63896
1.63889
1.63928
1.64074
1.64428
1.64796
1.64925
1.64923
1.64901
1.64799
1.64559
1.64037
1.63235
1.62759
1.62663
1.62636
1.62628
1.62723
1.63001
1.63413
1.52636
1.52562
1.52525
1.52657
1.5321
1.53738
1.53752
1.53643
1.53501
1.53248
1.52624
1.51606
1.51049
1.5087
1.50795
1.50728
1.50689
1.50787
1.51296
1.51988
1.52165
1.52136
1.52064
1.51887
1.5136
1.50378
1.4984
1.49769
1.49797
1.49828
1.49961
1.50428
1.51257
1.51635
1.51565
1.51343
1.50993
1.50242
1.49111
1.48579
1.48466
1.48439
1.48466
1.48763
1.49452
1.49906
1.49904
1.49751
1.49407
1.48671
1.47788
1.47491
1.47424
1.474
1.47398
1.47552
1.48079
1.48718
1.48867
1.48766
1.4852
1.48056
1.47076
1.46027
1.45707
1.45621
1.45578
1.45563
1.45685
1.46201
1.46989
1.47296
1.47268
1.47114
1.46744
1.459
1.44864
1.4451
1.44426
1.44391
1.44375
1.44507
1.45082
1.45798
1.45926
1.45837
1.45646
1.45232
1.44434
1.43851
1.43679
1.43609
1.43551
1.43576
1.43894
1.44381
1.44477
1.44467
1.44379
1.44136
1.43495
1.42701
1.42403
1.42322
1.42247
1.42184
1.42219
1.42585
1.43101
1.43151
1.4303
1.42853
1.42475
1.41682
1.41026
1.40873
1.40833
1.40831
1.40942
1.41218
1.41279
1.41173
1.41037
1.40889
1.40668
1.40353
1.40062
1.3994
1.39931
1.39975
1.39973
1.3982
1.39542
1.39112
1.38647
1.38463
1.3848
1.39002
1.41071
1.45956
1.54048
1.61081
1.66631
1.69958
1.70444
1.7026
1.6949
1.68878
1.68765
1.69048
1.69811
1.70461
1.70525
1.70384
1.70143
1.69813
1.69317
1.68681
1.68201
1.68157
1.68209
1.68353
1.68815
1.69609
1.7005
1.70033
1.69894
1.69461
1.68545
1.6771
1.67473
1.67447
1.67506
1.67797
1.68518
1.69333
1.69546
1.69447
1.69249
1.68666
1.67659
1.66962
1.66766
1.66715
1.66727
1.66944
1.67481
1.67921
1.68047
1.68071
1.6802
1.67691
1.6714
1.66821
1.66723
1.66667
1.66645
1.6665
1.66764
1.67086
1.67207
1.67148
1.67145
1.67176
1.67162
1.66872
1.66021
1.65314
1.65254
1.65266
1.65227
1.65183
1.65235
1.65621
1.66332
1.66565
1.66484
1.66323
1.65965
1.65286
1.6487
1.64852
1.64952
1.65117
1.65407
1.65883
1.661
1.66001
1.65741
1.65379
1.64772
1.63997
1.63632
1.63548
1.63541
1.63579
1.63709
1.63993
1.64361
1.64545
1.64539
1.64531
1.64486
1.64332
1.64011
1.63491
1.62927
1.62646
1.62585
1.62578
1.62649
1.62779
1.62892
1.52291
1.52189
1.52134
1.52102
1.52231
1.52767
1.53378
1.53475
1.53371
1.53216
1.52957
1.52335
1.51289
1.50675
1.50479
1.50396
1.50334
1.50294
1.50394
1.50911
1.51669
1.5192
1.51886
1.51808
1.5163
1.51103
1.50072
1.49447
1.49358
1.49376
1.49387
1.49472
1.49878
1.50744
1.51218
1.51178
1.51038
1.50779
1.50164
1.49058
1.48374
1.48233
1.48211
1.48229
1.48461
1.4904
1.49496
1.49511
1.49381
1.49098
1.48498
1.47654
1.47281
1.47192
1.47161
1.47157
1.47287
1.4771
1.48258
1.48407
1.48316
1.48089
1.47675
1.46831
1.45824
1.45464
1.45379
1.45349
1.45352
1.45494
1.45953
1.46608
1.46855
1.46818
1.46671
1.46317
1.45542
1.44589
1.44266
1.44197
1.44172
1.44186
1.4437
1.4488
1.45432
1.45538
1.45459
1.45235
1.44746
1.43947
1.43468
1.43326
1.43273
1.43253
1.4337
1.43892
1.44363
1.44384
1.44292
1.44149
1.43838
1.43086
1.42279
1.42006
1.4192
1.41846
1.41783
1.41829
1.42266
1.42814
1.42857
1.42767
1.426
1.42243
1.41446
1.40771
1.40597
1.40542
1.40503
1.40592
1.40919
1.41021
1.40925
1.40801
1.4065
1.40387
1.39989
1.39657
1.39526
1.39513
1.39551
1.39579
1.39476
1.39251
1.38916
1.38471
1.38212
1.38137
1.38179
1.38751
1.41196
1.46439
1.53949
1.61373
1.67049
1.69322
1.69563
1.68767
1.68188
1.6829
1.68555
1.69031
1.69616
1.69938
1.6998
1.69824
1.69585
1.69279
1.68751
1.68086
1.67881
1.67895
1.67983
1.68419
1.69229
1.69674
1.69675
1.69518
1.69091
1.68305
1.67561
1.67288
1.67254
1.6732
1.67552
1.68097
1.68834
1.69116
1.69058
1.68896
1.68297
1.67156
1.66405
1.66189
1.66149
1.66177
1.6655
1.67453
1.67924
1.67988
1.68011
1.67931
1.67459
1.66729
1.66341
1.66198
1.66131
1.66091
1.66119
1.66362
1.66835
1.67
1.67006
1.67035
1.67071
1.67044
1.6667
1.65706
1.64967
1.64833
1.64796
1.64723
1.64673
1.64769
1.65267
1.66003
1.66217
1.66168
1.66046
1.65727
1.65123
1.64744
1.64745
1.64845
1.65015
1.65233
1.65506
1.6562
1.65515
1.6523
1.6485
1.64336
1.63706
1.63362
1.6334
1.63382
1.63449
1.63544
1.6371
1.63982
1.64147
1.6413
1.64088
1.64004
1.63837
1.63615
1.63278
1.62793
1.62551
1.62531
1.62518
1.62479
1.62391
1.52146
1.51924
1.51814
1.51768
1.51748
1.51846
1.52252
1.52859
1.53119
1.53064
1.52899
1.52608
1.51997
1.50984
1.50339
1.50136
1.50048
1.49998
1.49983
1.50112
1.50592
1.51305
1.51624
1.51604
1.51497
1.513
1.50777
1.49727
1.49023
1.48902
1.48903
1.48889
1.48936
1.49337
1.50326
1.50909
1.50888
1.50798
1.50619
1.50134
1.49061
1.48188
1.47976
1.47947
1.4794
1.48089
1.486
1.49105
1.49147
1.49052
1.48856
1.4839
1.47576
1.47083
1.46955
1.46919
1.46907
1.46984
1.47301
1.47797
1.47961
1.47881
1.47688
1.47354
1.46653
1.45679
1.45261
1.45177
1.45158
1.45163
1.45279
1.45642
1.46194
1.4642
1.46379
1.46241
1.4595
1.45332
1.44468
1.44099
1.4403
1.44017
1.44052
1.44214
1.44603
1.45021
1.45093
1.45002
1.44761
1.44282
1.43565
1.43172
1.43062
1.43037
1.4307
1.43285
1.43747
1.44045
1.44056
1.43969
1.43796
1.43417
1.42604
1.41844
1.41599
1.41524
1.41463
1.41421
1.41542
1.42165
1.42762
1.42763
1.42619
1.42411
1.41984
1.4108
1.40393
1.40222
1.40164
1.40126
1.4024
1.4063
1.40755
1.40677
1.40571
1.4042
1.40127
1.39636
1.39255
1.39129
1.39101
1.39127
1.39178
1.39128
1.38959
1.38726
1.38372
1.3803
1.37904
1.37863
1.37953
1.3864
1.4129
1.46593
1.54488
1.61126
1.65684
1.67847
1.68517
1.68546
1.68244
1.68283
1.68473
1.68788
1.69214
1.69452
1.69423
1.69298
1.69088
1.68596
1.67865
1.67566
1.67564
1.67679
1.68212
1.68977
1.69195
1.69155
1.69012
1.68704
1.68136
1.67428
1.67019
1.66964
1.66959
1.67068
1.67607
1.68439
1.68735
1.68684
1.685
1.6777
1.66533
1.65916
1.65799
1.65789
1.65884
1.66427
1.67413
1.67835
1.67843
1.6785
1.67703
1.67076
1.66229
1.65867
1.65742
1.65703
1.65691
1.65748
1.66091
1.66694
1.66858
1.66848
1.66876
1.66891
1.66818
1.6631
1.65182
1.64501
1.64412
1.64374
1.64331
1.64327
1.64456
1.64982
1.65672
1.65839
1.65835
1.6582
1.65643
1.65129
1.64691
1.64673
1.64721
1.64726
1.64778
1.64949
1.65062
1.6496
1.64743
1.64508
1.64127
1.6355
1.63103
1.62995
1.6301
1.63054
1.63144
1.63291
1.63558
1.63793
1.63783
1.63746
1.63715
1.63659
1.63505
1.63155
1.62613
1.62246
1.62105
1.62024
1.61897
1.52579
1.51903
1.51622
1.51492
1.51436
1.51413
1.5147
1.51738
1.52254
1.52632
1.52647
1.52504
1.52218
1.51684
1.50782
1.50079
1.49865
1.49778
1.49743
1.49755
1.49883
1.50234
1.50823
1.51203
1.51232
1.51129
1.5092
1.50392
1.49321
1.48557
1.48414
1.48413
1.48407
1.48471
1.48934
1.50028
1.50693
1.50707
1.50646
1.505
1.50052
1.48914
1.47881
1.47607
1.4756
1.47536
1.47644
1.4817
1.48759
1.48839
1.48797
1.48673
1.48298
1.47479
1.46842
1.4665
1.46602
1.46563
1.46594
1.46842
1.47358
1.47565
1.47493
1.47349
1.47102
1.46528
1.45584
1.45075
1.44956
1.4493
1.44917
1.4498
1.45253
1.45762
1.46018
1.45981
1.4587
1.45664
1.45196
1.44398
1.43955
1.43874
1.43854
1.43851
1.43927
1.44195
1.44566
1.44648
1.44564
1.4435
1.43961
1.43372
1.42988
1.42883
1.42874
1.42927
1.43102
1.43426
1.43635
1.4363
1.43544
1.43358
1.42951
1.42133
1.41474
1.41285
1.41224
1.41181
1.41187
1.41407
1.42064
1.42597
1.42578
1.42386
1.42101
1.41553
1.4057
1.3997
1.39833
1.39783
1.39756
1.39915
1.40373
1.40505
1.40443
1.40343
1.40192
1.39852
1.39247
1.38834
1.38725
1.38686
1.38693
1.38779
1.3879
1.38684
1.38534
1.38299
1.37942
1.37716
1.37646
1.3763
1.37777
1.38508
1.41424
1.46563
1.53997
1.60621
1.65245
1.67136
1.67789
1.68057
1.68218
1.68399
1.68701
1.69056
1.69173
1.69111
1.68983
1.687
1.6806
1.67371
1.67147
1.67153
1.67313
1.67817
1.68548
1.68802
1.68775
1.68706
1.68516
1.68008
1.67156
1.66628
1.66588
1.66594
1.66719
1.67255
1.68066
1.68323
1.68264
1.68033
1.67305
1.66199
1.65608
1.65507
1.65511
1.65645
1.66145
1.67031
1.67515
1.67535
1.67532
1.67381
1.66782
1.65915
1.65506
1.65396
1.65331
1.65301
1.65382
1.65808
1.66465
1.6663
1.66607
1.6662
1.66619
1.66489
1.65859
1.64725
1.64165
1.64107
1.64064
1.63979
1.63959
1.64093
1.64696
1.65465
1.65641
1.65697
1.65739
1.65615
1.65045
1.64446
1.64278
1.64249
1.64207
1.64221
1.64415
1.6468
1.64666
1.64524
1.64318
1.63891
1.63183
1.62707
1.62583
1.62579
1.62623
1.62728
1.62936
1.63353
1.63703
1.63782
1.63799
1.63753
1.63623
1.63352
1.62779
1.6209
1.61764
1.61681
1.61589
1.53159
1.52566
1.51831
1.51378
1.51196
1.51119
1.51088
1.51101
1.51258
1.51657
1.52102
1.52189
1.52082
1.51864
1.51483
1.50769
1.4997
1.49655
1.49566
1.49544
1.49553
1.49615
1.49852
1.50355
1.50763
1.50806
1.50701
1.50487
1.49957
1.48891
1.48117
1.47984
1.47992
1.4802
1.48155
1.48737
1.49964
1.50683
1.50659
1.50527
1.50311
1.4978
1.48522
1.47453
1.47183
1.47123
1.47099
1.4722
1.47873
1.48568
1.4864
1.4861
1.48499
1.48121
1.47209
1.46471
1.46268
1.46201
1.46134
1.46134
1.46383
1.46987
1.47242
1.47203
1.47102
1.46919
1.46431
1.4547
1.44833
1.44667
1.44629
1.44597
1.44615
1.4483
1.45365
1.45681
1.45657
1.45582
1.45448
1.45085
1.44319
1.4376
1.43613
1.43573
1.43533
1.4355
1.43758
1.44141
1.44248
1.44168
1.44013
1.43729
1.4324
1.42835
1.42708
1.4268
1.42682
1.42757
1.42995
1.43194
1.43191
1.43113
1.4294
1.42557
1.41795
1.412
1.41059
1.41012
1.41007
1.41042
1.41238
1.41774
1.42194
1.4218
1.41988
1.41672
1.41048
1.4007
1.39581
1.3947
1.39433
1.39425
1.39678
1.40207
1.40305
1.40229
1.40116
1.39935
1.39497
1.3878
1.38387
1.38296
1.38251
1.38253
1.38392
1.38501
1.38431
1.3834
1.3818
1.37924
1.37585
1.37413
1.3733
1.37331
1.37495
1.38289
1.41323
1.47206
1.54357
1.6022
1.63952
1.66542
1.6739
1.67911
1.684
1.68694
1.68954
1.69007
1.68918
1.68616
1.68146
1.67525
1.66932
1.66761
1.66758
1.66813
1.67173
1.67928
1.68436
1.68439
1.68389
1.68251
1.67738
1.66769
1.66244
1.66206
1.66219
1.66376
1.66892
1.67622
1.67836
1.67784
1.67616
1.67052
1.66068
1.65349
1.65188
1.65172
1.65234
1.65639
1.66526
1.67151
1.67222
1.67243
1.67139
1.66488
1.6549
1.6506
1.64952
1.64897
1.64881
1.65002
1.65522
1.66217
1.66347
1.66335
1.66365
1.66373
1.66224
1.65492
1.64338
1.63827
1.63715
1.6363
1.63529
1.63512
1.63745
1.64568
1.65481
1.65651
1.65682
1.65698
1.65429
1.64602
1.63956
1.63793
1.63748
1.63711
1.63762
1.64068
1.64455
1.64453
1.64271
1.6402
1.63524
1.62764
1.62307
1.62224
1.62234
1.62329
1.62502
1.62829
1.63315
1.63622
1.6366
1.6362
1.63499
1.63274
1.62871
1.6221
1.61602
1.61447
1.61367
1.5322
1.52972
1.52556
1.51843
1.51162
1.50868
1.50763
1.50724
1.50701
1.50767
1.51071
1.51583
1.51763
1.51686
1.51563
1.51327
1.50783
1.49932
1.49455
1.49321
1.49277
1.49243
1.4926
1.49422
1.49851
1.50282
1.50346
1.5025
1.50043
1.49553
1.48561
1.47792
1.4767
1.47697
1.47786
1.48029
1.48652
1.49717
1.50398
1.50409
1.50262
1.49987
1.49351
1.48017
1.47017
1.46784
1.46733
1.46721
1.46937
1.47792
1.48477
1.48501
1.48437
1.48281
1.47796
1.46734
1.45999
1.45815
1.45737
1.45667
1.45675
1.4603
1.46777
1.47006
1.46983
1.469
1.46731
1.46247
1.45209
1.44494
1.4432
1.4427
1.44219
1.44216
1.44436
1.45087
1.45469
1.45455
1.45396
1.4528
1.44939
1.44121
1.43445
1.43262
1.43209
1.43155
1.43152
1.43353
1.43794
1.43933
1.43879
1.43747
1.4352
1.43076
1.42602
1.4241
1.42347
1.42308
1.42345
1.42551
1.42777
1.4279
1.42727
1.42581
1.4226
1.41598
1.41031
1.40885
1.40834
1.40787
1.40778
1.40921
1.41426
1.41782
1.41732
1.41531
1.41206
1.40588
1.39674
1.39259
1.39174
1.3915
1.39175
1.39491
1.40005
1.40094
1.39991
1.39844
1.39588
1.38998
1.3826
1.37954
1.37874
1.37828
1.37829
1.38021
1.38255
1.38251
1.38185
1.38076
1.37838
1.3743
1.37101
1.36977
1.3692
1.36932
1.37196
1.38313
1.41149
1.47094
1.53797
1.59943
1.63359
1.65489
1.66728
1.67645
1.68383
1.687
1.68687
1.68456
1.68137
1.6788
1.67416
1.66685
1.66404
1.6637
1.66376
1.66623
1.67373
1.68116
1.68242
1.68177
1.67962
1.67307
1.66276
1.6582
1.65806
1.65823
1.65964
1.66475
1.67191
1.67427
1.67406
1.67315
1.66874
1.65889
1.65031
1.64805
1.6478
1.64825
1.65235
1.66241
1.67004
1.67076
1.67066
1.6685
1.65995
1.64933
1.64604
1.64528
1.64484
1.64478
1.64644
1.65218
1.65948
1.66114
1.66124
1.66175
1.66174
1.65957
1.65033
1.63822
1.63413
1.63303
1.63223
1.63193
1.63252
1.63655
1.64595
1.65355
1.65461
1.65466
1.65408
1.64978
1.64067
1.63492
1.63389
1.63362
1.63353
1.63442
1.63745
1.64039
1.64034
1.63874
1.63636
1.63185
1.62487
1.62015
1.61964
1.62009
1.62136
1.62403
1.6274
1.63095
1.63291
1.6327
1.63178
1.6302
1.62747
1.62361
1.61814
1.61411
1.61229
1.53111
1.52968
1.52782
1.52454
1.51746
1.50881
1.50485
1.50359
1.50308
1.50265
1.50273
1.50539
1.51191
1.51511
1.51466
1.5137
1.5119
1.50719
1.49793
1.4915
1.48958
1.48905
1.48856
1.48841
1.48929
1.49295
1.4977
1.49875
1.49805
1.49658
1.49271
1.48382
1.47589
1.47477
1.47527
1.47673
1.47911
1.48364
1.49207
1.49927
1.50001
1.49856
1.49546
1.48863
1.4759
1.46722
1.46539
1.46488
1.46506
1.46872
1.47767
1.48354
1.48358
1.48224
1.47934
1.47248
1.46102
1.4551
1.4537
1.45303
1.45248
1.45305
1.45852
1.46678
1.46822
1.46784
1.46685
1.46501
1.45948
1.44809
1.44104
1.43934
1.43874
1.43823
1.43825
1.44133
1.44945
1.45311
1.4528
1.45209
1.45071
1.44665
1.43739
1.43051
1.42879
1.42822
1.42766
1.42769
1.43051
1.43618
1.43749
1.43692
1.43554
1.43308
1.42797
1.42229
1.4201
1.4195
1.41911
1.41944
1.42167
1.42438
1.42469
1.4242
1.42303
1.42015
1.41375
1.40782
1.40593
1.40517
1.40437
1.40411
1.40547
1.41043
1.41343
1.41275
1.41085
1.40804
1.40291
1.39463
1.3901
1.38923
1.38905
1.38937
1.3919
1.39634
1.39774
1.3968
1.39489
1.39142
1.38473
1.37813
1.37568
1.375
1.37467
1.37492
1.37792
1.38119
1.38104
1.38022
1.37894
1.37618
1.37116
1.36762
1.3661
1.36553
1.36511
1.36586
1.37003
1.3826
1.40932
1.46454
1.54041
1.60144
1.62958
1.64619
1.65887
1.66769
1.6738
1.67896
1.68027
1.67985
1.67712
1.67264
1.66632
1.66196
1.66127
1.66213
1.66516
1.67121
1.6768
1.67801
1.67715
1.67403
1.6675
1.65854
1.65397
1.6537
1.65419
1.65599
1.66156
1.66943
1.67186
1.67188
1.6712
1.6664
1.65511
1.64621
1.64437
1.64416
1.64483
1.6497
1.66008
1.66704
1.6674
1.6666
1.66361
1.65535
1.64533
1.64192
1.64123
1.64107
1.64112
1.64267
1.64821
1.65612
1.6586
1.65868
1.65915
1.65892
1.65567
1.64511
1.6341
1.63097
1.63024
1.62973
1.62999
1.63143
1.63551
1.64355
1.64951
1.65025
1.65039
1.64965
1.64574
1.63753
1.63186
1.63099
1.63052
1.62997
1.63028
1.63254
1.63561
1.63577
1.63474
1.63322
1.62965
1.62364
1.61906
1.61871
1.61951
1.62049
1.62137
1.62307
1.62625
1.62835
1.62807
1.62686
1.62524
1.62347
1.62079
1.61637
1.61227
1.52922
1.52891
1.52742
1.52559
1.52244
1.51506
1.50521
1.50062
1.49916
1.49873
1.49839
1.49845
1.50142
1.50914
1.51352
1.51305
1.51184
1.50975
1.50483
1.49498
1.48759
1.48537
1.48466
1.48402
1.48355
1.48401
1.48756
1.49316
1.49482
1.49468
1.49386
1.491
1.4835
1.47509
1.47339
1.47378
1.47463
1.47586
1.4789
1.48603
1.49373
1.49504
1.49381
1.49112
1.48561
1.47489
1.46593
1.46402
1.46371
1.46453
1.468
1.47419
1.47879
1.47919
1.47776
1.47395
1.4658
1.45541
1.45119
1.44999
1.44946
1.44927
1.4513
1.45904
1.46616
1.4667
1.46599
1.46467
1.462
1.4547
1.4426
1.43687
1.4356
1.43513
1.43472
1.43511
1.4398
1.44861
1.45102
1.45045
1.44955
1.44779
1.44264
1.43248
1.42643
1.42507
1.42462
1.42418
1.42456
1.42868
1.43478
1.43548
1.43455
1.43291
1.42979
1.42361
1.41803
1.41619
1.4157
1.41544
1.41602
1.41883
1.42195
1.42235
1.42174
1.42037
1.41719
1.41044
1.40435
1.40231
1.40145
1.40053
1.40024
1.40175
1.40687
1.40944
1.40868
1.40699
1.40491
1.40089
1.39327
1.38791
1.38665
1.38645
1.38645
1.38803
1.3916
1.39313
1.3925
1.39063
1.387
1.38049
1.37468
1.37273
1.37215
1.37196
1.37262
1.37595
1.37905
1.37898
1.37788
1.37624
1.37314
1.36792
1.36417
1.36268
1.36197
1.36148
1.36168
1.36445
1.36956
1.38015
1.40834
1.46342
1.52732
1.60163
1.63085
1.64209
1.65034
1.66155
1.67045
1.6736
1.67474
1.67327
1.66981
1.66559
1.66279
1.66211
1.66271
1.66521
1.66935
1.67205
1.67199
1.6707
1.66751
1.66176
1.65375
1.64985
1.64975
1.65053
1.65256
1.65837
1.66695
1.66949
1.66919
1.66801
1.66254
1.65074
1.6423
1.64092
1.64085
1.64164
1.64592
1.65497
1.66179
1.66212
1.66161
1.65955
1.65303
1.64326
1.6388
1.63805
1.63756
1.63742
1.63851
1.64396
1.65222
1.65488
1.65535
1.65591
1.65558
1.65166
1.6403
1.63056
1.62862
1.62806
1.62738
1.62714
1.62776
1.63137
1.6395
1.64517
1.64604
1.64652
1.64629
1.64292
1.63457
1.62811
1.62613
1.62533
1.62482
1.62526
1.62822
1.63213
1.63283
1.63257
1.63168
1.62877
1.62237
1.61682
1.61553
1.61551
1.61575
1.6166
1.61829
1.62164
1.62417
1.62424
1.62395
1.62301
1.6215
1.61925
1.61431
1.52233
1.52683
1.52685
1.5251
1.5229
1.51925
1.51118
1.50099
1.49671
1.49537
1.49505
1.49488
1.49514
1.49822
1.50546
1.51059
1.5105
1.50892
1.50645
1.50129
1.49123
1.48333
1.48086
1.47994
1.47929
1.4788
1.47928
1.48371
1.49049
1.49214
1.49224
1.4919
1.48973
1.48296
1.47341
1.47045
1.47047
1.4706
1.47105
1.47311
1.47942
1.48806
1.49027
1.48962
1.48831
1.48486
1.47673
1.46704
1.4638
1.46333
1.46375
1.46563
1.46928
1.47281
1.47319
1.47164
1.46777
1.46044
1.45178
1.44842
1.44752
1.44722
1.44803
1.45185
1.45885
1.46325
1.46349
1.46282
1.46121
1.45717
1.44838
1.43759
1.43361
1.43256
1.43211
1.43184
1.43295
1.43875
1.44673
1.4485
1.44781
1.44651
1.44392
1.43758
1.42744
1.42283
1.42189
1.42154
1.42129
1.42235
1.42746
1.43267
1.43286
1.43153
1.4294
1.42563
1.41889
1.41401
1.41264
1.41226
1.41217
1.41306
1.41618
1.41883
1.41898
1.4183
1.4169
1.41355
1.40659
1.40061
1.39857
1.39764
1.39664
1.39644
1.39838
1.40417
1.40662
1.40582
1.40441
1.40276
1.39928
1.39167
1.38526
1.38344
1.38308
1.3829
1.38389
1.38701
1.38887
1.38834
1.38663
1.38358
1.37816
1.37248
1.37043
1.3698
1.36969
1.37018
1.3722
1.37494
1.3756
1.37475
1.37292
1.36977
1.36492
1.36122
1.35972
1.35896
1.35856
1.35845
1.36033
1.36379
1.36638
1.37526
1.40068
1.4589
1.52494
1.5867
1.62838
1.64318
1.65346
1.65964
1.66684
1.66893
1.66826
1.6667
1.66372
1.66123
1.66086
1.66069
1.66152
1.66476
1.66701
1.66647
1.665
1.66232
1.65715
1.64955
1.64609
1.64608
1.64697
1.64953
1.65618
1.66367
1.66567
1.66547
1.664
1.65874
1.64788
1.63928
1.63745
1.6372
1.63738
1.64051
1.64935
1.65756
1.65838
1.65838
1.65735
1.65087
1.64003
1.63464
1.63328
1.63251
1.63218
1.63358
1.64017
1.64951
1.65207
1.65279
1.65343
1.65296
1.64798
1.63583
1.62667
1.62423
1.62333
1.62251
1.62206
1.62286
1.62808
1.63843
1.644
1.64436
1.64482
1.64424
1.63888
1.62839
1.62268
1.62131
1.62081
1.62055
1.62162
1.62648
1.63227
1.63311
1.63229
1.63057
1.62614
1.61794
1.61207
1.6108
1.61095
1.61189
1.61302
1.61507
1.61962
1.62396
1.62412
1.62303
1.62137
1.6199
1.61575
1.51523
1.51854
1.52222
1.52317
1.52186
1.51916
1.51492
1.50731
1.49793
1.49354
1.4923
1.49195
1.49188
1.49222
1.49455
1.50013
1.50565
1.50654
1.5052
1.50242
1.497
1.48698
1.47907
1.47653
1.47557
1.47504
1.47469
1.47579
1.48177
1.48949
1.49112
1.49109
1.49033
1.48772
1.48018
1.46921
1.46556
1.46535
1.46527
1.46536
1.46704
1.47371
1.48401
1.48713
1.48716
1.48675
1.48481
1.47862
1.46803
1.46245
1.46132
1.46101
1.46113
1.46304
1.46625
1.46707
1.46587
1.46285
1.45736
1.45034
1.44713
1.4465
1.4468
1.44877
1.45243
1.4566
1.45873
1.45865
1.45778
1.45585
1.45159
1.44353
1.43441
1.43098
1.42999
1.42955
1.42955
1.4314
1.43696
1.44289
1.44415
1.44365
1.44243
1.43941
1.43276
1.42359
1.41982
1.419
1.41868
1.41867
1.42041
1.42536
1.4289
1.42887
1.4277
1.42551
1.42125
1.41432
1.41027
1.40922
1.40884
1.40876
1.40972
1.413
1.41538
1.41532
1.41468
1.41336
1.40999
1.40298
1.39697
1.39497
1.39399
1.39306
1.39299
1.39531
1.40175
1.40429
1.40361
1.40238
1.40081
1.39705
1.38844
1.38137
1.37955
1.37911
1.37881
1.37944
1.38246
1.38489
1.38451
1.3834
1.38142
1.37736
1.37151
1.36844
1.36752
1.36715
1.36705
1.36794
1.3702
1.37148
1.37106
1.36956
1.36708
1.36324
1.35928
1.35733
1.35651
1.35597
1.35588
1.35635
1.35825
1.35953
1.36042
1.36867
1.39694
1.44911
1.52069
1.58125
1.62955
1.64772
1.65664
1.66399
1.66607
1.66557
1.66322
1.65949
1.65561
1.65385
1.65374
1.65476
1.6585
1.66173