/*--------------------------------*- C++ -*----------------------------------*\
  =========                 |
  \\      /  F ield         | OpenFOAM: The Open Source CFD Toolbox
   \\    /   O peration     | Website:  https://openfoam.org
    \\  /    A nd           | Version:  7
     \\/     M anipulation  |
\*---------------------------------------------------------------------------*/
FoamFile
{
    version     2.0;
    format      ascii;
    class       volVectorField;
    location    "2";
    object      U;
}
// * * * * * * * * * * * * * * * * * * * * * * * * * * * * * * * * * * * * * //

dimensions      [0 1 -1 0 0 0 0];

internalField   nonuniform List<vector> 
4128
(
(3 3.52687e-16 0)
(3 1.6869e-16 0)
(3 -9.07164e-16 0)
(3 -9.71454e-16 0)
(3 -1.00165e-15 0)
(3 -5.61308e-16 0)
(3 -3.08436e-16 0)
(3 7.56777e-17 0)
(3 -3.53442e-16 0)
(3 -5.82134e-16 0)
(3 2.63619e-16 0)
(3 3.15482e-16 0)
(3 4.70148e-16 0)
(3 1.70693e-15 0)
(3 2.35672e-15 0)
(3 2.09026e-15 0)
(3 1.09096e-15 0)
(3 3.24615e-16 0)
(3 6.22526e-16 0)
(3 3.95548e-16 0)
(3 1.44069e-16 0)
(3 3.92088e-16 0)
(3 9.14396e-16 0)
(3 3.96814e-16 0)
(3 2.63813e-16 0)
(3 -6.41357e-16 0)
(3 -2.2252e-16 0)
(3 9.31565e-16 0)
(3 7.16471e-16 0)
(3 -1.73922e-16 0)
(3 -1.78674e-15 0)
(3 -2.279e-15 0)
(3 -3.22935e-15 0)
(3 -2.73028e-15 0)
(3 -1.98457e-15 0)
(3 -1.25067e-15 0)
(3 -1.59532e-15 0)
(3 -1.97162e-15 0)
(3 -1.98462e-15 0)
(3 -1.28121e-15 0)
(3 1.52173e-16 0)
(3 9.00077e-16 0)
(3 9.90278e-16 0)
(3 -7.21054e-17 0)
(3 -5.44129e-16 0)
(3 -8.0221e-16 0)
(3 -6.12206e-16 0)
(3 -6.5836e-17 0)
(3 -3.84776e-16 0)
(3 -1.57816e-16 0)
(3 -5.81352e-16 0)
(3 -8.57043e-16 0)
(3 -4.41933e-16 0)
(3 -1.22244e-16 0)
(3 1.18529e-15 0)
(3 1.20149e-15 0)
(3 1.07261e-15 0)
(3 1.00066e-15 0)
(3 1.02078e-15 0)
(3 1.78886e-15 0)
(3 2.57872e-15 0)
(3 2.91376e-15 0)
(3 3.3798e-15 0)
(3 1.61946e-15 0)
(3 2.60581e-16 0)
(3 2.95618e-16 0)
(3 5.357e-16 0)
(3 4.29759e-16 0)
(3 4.9585e-16 0)
(3 1.11692e-15 0)
(3 1.40215e-15 0)
(3 8.53472e-16 0)
(3 7.57689e-16 0)
(3 1.21665e-15 0)
(3 8.84813e-16 0)
(3 9.71691e-16 0)
(3 1.3852e-15 0)
(3 1.91055e-15 0)
(3 1.79016e-15 0)
(3 9.03088e-16 0)
(3 3.72329e-16 0)
(3 1.56483e-16 0)
(3 9.19912e-17 0)
(3 6.01689e-18 0)
(3 5.71864e-17 0)
(3 1.07714e-16 0)
(3 -6.66577e-17 0)
(3 3.84563e-17 0)
(3 6.19209e-17 0)
(3 8.9022e-16 0)
(3 1.09117e-15 0)
(3 1.4634e-15 0)
(3 1.64588e-15 0)
(3 9.68037e-16 0)
(3 3.08299e-16 0)
(3 -8.88363e-18 0)
(3 5.48029e-16 0)
(3 4.05497e-16 0)
(3 1.63259e-17 0)
(3 -3.8588e-16 0)
(3 -5.45865e-16 0)
(3 -4.17157e-16 0)
(3 -3.0565e-16 0)
(3 -1.2133e-16 0)
(3 2.26116e-16 0)
(3 1.03438e-15 0)
(3 1.29059e-15 0)
(3 1.03406e-15 0)
(3 3.92265e-16 0)
(3 8.26059e-16 0)
(3 1.18964e-15 0)
(3 2.14764e-15 0)
(3 2.04845e-15 0)
(3 1.99996e-15 0)
(3 2.389e-15 0)
(3 1.93134e-15 0)
(3 1.58537e-15 0)
(3 9.32786e-16 0)
(3 1.19807e-16 0)
(3 2.79476e-17 0)
(3 5.77022e-16 0)
(3 7.47602e-16 0)
(3 3.42705e-16 0)
(3 -1.77561e-16 0)
(3 -1.25817e-16 0)
(3 -1.89657e-16 0)
(3 -3.83215e-16 0)
(3 -5.34046e-16 0)
(3 -6.92324e-16 0)
(3 -6.51768e-16 0)
(3 -2.9969e-16 0)
(3 3.92629e-17 0)
(3 -1.0906e-16 0)
(3 2.50107e-16 0)
(3 -4.65265e-17 0)
(3 4.96277e-17 0)
(3 -2.84914e-16 0)
(3 3.20274e-16 0)
(3 4.63685e-16 0)
(3 1.29998e-17 0)
(3 -1.12485e-16 0)
(3 -8.05398e-17 0)
(3 -3.45883e-16 0)
(3 -6.40799e-16 0)
(3 -1.65559e-15 0)
(3 -2.26692e-15 0)
(3 -2.48464e-15 0)
(3 -2.55596e-15 0)
(3 -1.52539e-15 0)
(3 -5.85173e-16 0)
(3 1.89766e-15 0)
(3 2.35832e-15 0)
(3 1.651e-15 0)
(3 7.18786e-16 0)
(3 5.46325e-16 0)
(3 6.70533e-16 0)
(3 1.35752e-15 0)
(3 3.36594e-15 0)
(3 4.26857e-15 0)
(3 2.49409e-15 0)
(3 -1.48894e-16 0)
(3 3.91629e-16 0)
(3 1.13841e-15 0)
(3 1.27718e-15 0)
(3 9.39115e-16 0)
(3 8.34211e-16 0)
(3 1.03435e-15 0)
(3 1.1393e-15 0)
(3 1.37822e-15 0)
(3 1.48473e-15 0)
(3 1.79715e-15 0)
(3 2.40759e-15 0)
(3 2.33192e-15 0)
(3 2.08583e-15 0)
(3 1.61274e-15 0)
(3 6.77668e-16 0)
(3 6.65484e-16 0)
(3 1.00904e-15 0)
(3 6.66485e-16 0)
(3 3.60371e-16 0)
(3 8.08314e-16 0)
(3 5.74962e-16 0)
(3 -8.7151e-16 0)
(3 -8.66065e-16 0)
(3 -6.06617e-16 0)
(3 1.91536e-16 0)
(3 6.88061e-16 0)
(3 7.30299e-16 0)
(3 7.84243e-17 0)
(3 -8.91403e-16 0)
(3 -1.81896e-15 0)
(3 -2.19161e-15 0)
(3 -6.39721e-16 0)
(3 6.42886e-16 0)
(3 7.83389e-16 0)
(3 2.16019e-16 0)
(3 -4.67558e-16 0)
(3 -9.12399e-16 0)
(3 -1.11457e-15 0)
(3 -8.91969e-16 0)
(3 1.3579e-16 0)
(3 5.00822e-16 0)
(3 5.78485e-16 0)
(3 8.32545e-16 0)
(3 6.04057e-16 0)
(3 7.93273e-16 0)
(3 8.68956e-16 0)
(3 1.57579e-15 0)
(3 1.65528e-15 0)
(3 1.50459e-15 0)
(3 9.39722e-16 0)
(3 6.44365e-16 0)
(3 3.35382e-16 0)
(3 1.95412e-16 0)
(3 -4.02438e-16 0)
(3 7.67997e-16 0)
(3 2.35099e-15 0)
(3 1.93197e-15 0)
(3 7.9425e-16 0)
(3 1.62986e-17 0)
(3 9.46805e-17 0)
(3 3.04246e-16 0)
(3 4.09767e-17 0)
(3 -1.51153e-16 0)
(3 6.16564e-16 0)
(3 9.92477e-16 0)
(3 7.54878e-16 0)
(3 3.47833e-16 0)
(3 -3.44353e-17 0)
(3 6.45042e-16 0)
(3 5.45339e-16 0)
(3 -4.69953e-16 0)
(3 -9.7468e-16 0)
(3 -1.17556e-15 0)
(3 -8.43179e-16 0)
(3 -4.33354e-16 0)
(3 -2.05236e-16 0)
(3 1.53555e-16 0)
(3 -4.22906e-16 0)
(3 -1.23752e-15 0)
(3 -9.5481e-16 0)
(3 -1.24211e-15 0)
(3 -1.38929e-15 0)
(3 -9.29355e-16 0)
(3 -2.70312e-16 0)
(3 -3.79285e-16 0)
(3 -6.88062e-18 0)
(3 6.02978e-16 0)
(3 8.11056e-16 0)
(3 1.10003e-15 0)
(3 1.44364e-15 0)
(3 1.50405e-15 0)
(3 1.31247e-15 0)
(3 1.57266e-15 0)
(3 1.33313e-15 0)
(3 1.29367e-15 0)
(3 -1.07508e-16 0)
(3 1.4111e-16 0)
(3 6.77047e-16 0)
(3 9.46573e-16 0)
(3 3.05169e-16 0)
(3 -3.52517e-16 0)
(3 -1.66255e-16 0)
(3 2.42428e-16 0)
(3 3.44093e-16 0)
(3 -2.47868e-16 0)
(3 -2.07262e-16 0)
(3 -3.57368e-16 0)
(3 -4.88806e-16 0)
(3 -4.53732e-16 0)
(3 -1.71391e-16 0)
(3 1.05602e-16 0)
(3 1.0411e-16 0)
(3 9.42069e-16 0)
(3 1.12786e-15 0)
(3 1.40548e-15 0)
(3 9.71679e-16 0)
(3 3.99117e-18 0)
(3 -6.34087e-16 0)
(3 -6.50639e-16 0)
(3 -5.31432e-16 0)
(3 6.90397e-17 0)
(3 2.01716e-16 0)
(3 -3.56191e-16 0)
(3 -1.58538e-15 0)
(3 -2.26486e-15 0)
(3 -2.4029e-15 0)
(3 -2.04469e-15 0)
(3 -1.21329e-15 0)
(3 -7.36317e-16 0)
(3 -5.37581e-16 0)
(3 1.03401e-16 0)
(3 -3.47746e-16 0)
(3 -8.20749e-16 0)
(3 -4.57388e-16 0)
(3 -1.43883e-16 0)
(3 3.6383e-16 0)
(3 5.11949e-16 0)
(3 1.09068e-15 0)
(3 1.33432e-15 0)
(3 1.1236e-15 0)
(3 1.0545e-15 0)
(3 1.43015e-15 0)
(3 1.10043e-15 0)
(3 1.01272e-15 0)
(3 -3.607e-16 0)
(3 -8.33627e-16 0)
(3 -5.62953e-16 0)
(3 -3.54485e-16 0)
(3 -1.61923e-16 0)
(3 2.31513e-15 0)
(3 2.87961e-15 0)
(3 2.24283e-15 0)
(3 9.69057e-16 0)
(3 2.14185e-16 0)
(3 2.75811e-17 0)
(3 -1.10341e-15 0)
(3 -1.18212e-15 0)
(3 -1.25262e-15 0)
(3 -1.09207e-15 0)
(3 1.82946e-16 0)
(3 1.76774e-16 0)
(3 -3.36825e-16 0)
(3 -1.08644e-15 0)
(3 -9.84076e-16 0)
(3 -5.88044e-16 0)
(3 -3.51649e-16 0)
(3 -1.24003e-15 0)
(3 -1.57131e-15 0)
(3 -1.66724e-15 0)
(3 -1.39764e-15 0)
(3 -1.13662e-15 0)
(3 -8.48561e-16 0)
(3 1.48557e-16 0)
(3 9.20304e-16 0)
(3 5.49956e-16 0)
(3 8.01109e-16 0)
(3 5.27574e-16 0)
(3 4.91128e-17 0)
(3 7.24492e-16 0)
(3 6.86354e-16 0)
(3 -2.17192e-17 0)
(3 -4.77698e-16 0)
(3 -2.21551e-16 0)
(3 1.31845e-16 0)
(3 1.01224e-15 0)
(3 8.42731e-16 0)
(3 1.01299e-15 0)
(3 1.36342e-15 0)
(3 3.27103e-16 0)
(3 1.8729e-16 0)
(3 2.0887e-15 0)
(3 -4.9704e-17 0)
(3 1.8089e-17 0)
(3 1.37801e-16 0)
(3 2.13374e-17 0)
(3 1.67381e-16 0)
(3 -2.94974e-16 0)
(3 -9.66837e-16 0)
(3 -6.71179e-16 0)
(3 -6.7926e-16 0)
(3 -6.78903e-16 0)
(3 -9.43995e-16 0)
(3 -9.15073e-16 0)
(3 -1.06604e-15 0)
(3 -1.67095e-15 0)
(3 -1.71359e-15 0)
(3 -1.29998e-15 0)
(3 -6.48088e-16 0)
(3 -3.67984e-16 0)
(3 1.31067e-15 0)
(3 1.59308e-15 0)
(3 9.67521e-16 0)
(3 3.6444e-16 0)
(3 4.70836e-16 0)
(3 9.97801e-16 0)
(3 5.29686e-16 0)
(3 -9.25669e-16 0)
(3 -2.09343e-15 0)
(3 -2.40243e-15 0)
(3 -2.75079e-15 0)
(3 -2.33936e-15 0)
(3 -1.27462e-15 0)
(3 -5.098e-16 0)
(3 -1.04656e-16 0)
(3 -3.46181e-16 0)
(3 -7.60868e-16 0)
(3 -3.92602e-16 0)
(3 -2.12004e-16 0)
(3 -3.69708e-16 0)
(3 1.17402e-16 0)
(3 6.97889e-16 0)
(3 8.88952e-16 0)
(3 1.3463e-15 0)
(3 1.96192e-15 0)
(3 1.56576e-15 0)
(3 7.23677e-16 0)
(3 -5.74846e-17 0)
(3 1.25461e-16 0)
(3 -7.4116e-16 0)
(3 -1.27843e-15 0)
(3 -1.48816e-15 0)
(3 -1.26931e-15 0)
(3 -4.78159e-16 0)
(3 6.03515e-16 0)
(3 7.01163e-16 0)
(3 1.26912e-15 0)
(3 1.33785e-15 0)
(3 1.09389e-15 0)
(3 9.48459e-16 0)
(3 3.49522e-16 0)
(3 -9.23613e-16 0)
(3 -1.53607e-15 0)
(3 -1.50003e-15 0)
(3 -5.89064e-16 0)
(3 2.01435e-16 0)
(3 -1.03516e-16 0)
(3 -1.30317e-16 0)
(3 3.47152e-16 0)
(3 8.56115e-18 0)
(3 8.21798e-17 0)
(3 -9.98066e-16 0)
(3 -1.7396e-15 0)
(3 -1.9578e-15 0)
(3 -1.58791e-15 0)
(3 -1.10912e-15 0)
(3 -8.566e-16 0)
(3 -7.4176e-16 0)
(3 -5.90152e-17 0)
(3 3.81152e-16 0)
(3 8.8792e-16 0)
(3 5.35423e-16 0)
(3 2.04661e-16 0)
(3 -1.21528e-15 0)
(3 -1.77562e-15 0)
(3 -1.85874e-15 0)
(3 -2.0431e-15 0)
(3 -1.82663e-15 0)
(3 -1.70614e-15 0)
(3 -1.00759e-15 0)
(3 -7.47718e-16 0)
(3 -3.83625e-16 0)
(3 -7.65682e-16 0)
(3 -3.11336e-16 0)
(3 4.61267e-16 0)
(3 -1.62206e-16 0)
(3 -3.49401e-16 0)
(3 9.63565e-16 0)
(3 -1.23544e-17 0)
(3 -4.32577e-16 0)
(3 -1.04988e-15 0)
(3 -1.04068e-15 0)
(3 -5.59723e-16 0)
(3 -3.19494e-16 0)
(3 -1.41426e-16 0)
(3 -1.19987e-16 0)
(3 -3.28585e-16 0)
(3 -1.20585e-16 0)
(3 -5.30457e-16 0)
(3 -4.89356e-16 0)
(3 -6.58476e-16 0)
(3 -9.62174e-16 0)
(3 -9.93643e-16 0)
(3 -8.2679e-16 0)
(3 -7.74549e-16 0)
(3 -4.6647e-16 0)
(3 6.47432e-16 0)
(3 1.26173e-15 0)
(3 1.71311e-15 0)
(3 1.48557e-15 0)
(3 1.11953e-15 0)
(3 6.89299e-16 0)
(3 1.07878e-15 0)
(3 -2.1286e-16 0)
(3 -6.61308e-16 0)
(3 -1.15569e-15 0)
(3 -1.83252e-15 0)
(3 -1.31457e-15 0)
(3 -2.05139e-15 0)
(3 -1.85387e-15 0)
(3 -1.30933e-15 0)
(3 -9.43652e-16 0)
(3 -8.8871e-18 0)
(3 7.12221e-16 0)
(3 1.20104e-15 0)
(3 1.00854e-15 0)
(3 3.36733e-16 0)
(3 4.1428e-16 0)
(3 7.73215e-16 0)
(3 1.41041e-15 0)
(3 1.20931e-15 0)
(3 5.80077e-16 0)
(3 9.4074e-16 0)
(3 2.9252e-16 0)
(3 -7.50899e-16 0)
(3 -1.01655e-15 0)
(3 -8.78593e-16 0)
(3 -6.95143e-16 0)
(3 -2.97441e-16 0)
(3 8.81658e-16 0)
(3 1.83011e-15 0)
(3 1.81399e-15 0)
(3 1.84624e-15 0)
(3 6.66301e-16 0)
(3 -2.19369e-16 0)
(3 6.59913e-17 0)
(3 3.94369e-16 0)
(3 -4.97159e-16 0)
(3 -9.92711e-17 0)
(3 2.98889e-16 0)
(3 6.85242e-16 0)
(3 5.39089e-16 0)
(3 5.44251e-16 0)
(3 1.30727e-15 0)
(3 3.32877e-15 0)
(3 3.16616e-15 0)
(3 1.81731e-15 0)
(3 -2.22088e-16 0)
(3 -1.6786e-15 0)
(3 -1.70258e-15 0)
(3 -1.41128e-15 0)
(3 3.02528e-16 0)
(3 9.10416e-16 0)
(3 1.07644e-15 0)
(3 1.93984e-16 0)
(3 -8.92741e-17 0)
(3 -1.61685e-16 0)
(3 -1.21388e-16 0)
(3 -6.46546e-16 0)
(3 -2.12959e-15 0)
(3 -3.2709e-15 0)
(3 -3.69838e-15 0)
(3 -3.64406e-15 0)
(3 -2.72789e-15 0)
(3 -2.48964e-15 0)
(3 -2.36598e-15 0)
(3 -2.37172e-15 0)
(3 -3.5856e-15 0)
(3 -3.03253e-15 0)
(3 -9.40981e-16 0)
(3 -5.4008e-16 0)
(3 -1.79552e-15 0)
(3 -1.92359e-15 0)
(3 -1.57779e-15 0)
(3 7.22559e-17 0)
(3 3.25707e-16 0)
(3 2.62721e-16 0)
(3 6.07537e-16 0)
(3 2.01063e-16 0)
(3 -2.68082e-17 0)
(3 1.96394e-16 0)
(3 -2.85776e-16 0)
(3 -6.45587e-16 0)
(3 -1.2443e-15 0)
(3 -1.21403e-15 0)
(3 -1.11342e-15 0)
(3 -1.16907e-15 0)
(3 -4.04327e-16 0)
(3 6.5403e-17 0)
(3 -3.093e-16 0)
(3 -1.01816e-15 0)
(3 -1.54269e-15 0)
(3 -1.51773e-15 0)
(3 -6.90596e-16 0)
(3 -3.86081e-16 0)
(3 -1.87121e-16 0)
(3 1.99368e-16 0)
(3 7.08147e-16 0)
(3 4.34624e-16 0)
(3 7.29248e-16 0)
(3 1.57243e-15 0)
(3 1.57397e-15 0)
(3 1.73871e-15 0)
(3 1.09305e-15 0)
(3 -6.94659e-16 0)
(3 -1.77958e-15 0)
(3 -2.37423e-15 0)
(3 -1.69798e-15 0)
(3 3.29636e-16 0)
(3 1.34678e-15 0)
(3 1.84038e-15 0)
(3 1.60615e-15 0)
(3 1.50304e-15 0)
(3 1.44943e-15 0)
(3 1.30939e-15 0)
(3 3.45305e-16 0)
(3 -9.79416e-16 0)
(3 1.43368e-17 0)
(3 1.07661e-15 0)
(3 1.13359e-15 0)
(3 3.67301e-16 0)
(3 -7.06668e-17 0)
(3 1.12333e-16 0)
(3 3.59558e-16 0)
(3 2.4786e-16 0)
(3 2.57632e-16 0)
(3 3.03927e-16 0)
(3 1.36018e-15 0)
(3 2.01118e-15 0)
(3 2.16595e-15 0)
(3 1.69542e-15 0)
(3 7.57861e-16 0)
(3 -1.00686e-16 0)
(3 -1.78324e-16 0)
(3 2.2077e-16 0)
(3 6.89536e-16 0)
(3 1.50164e-15 0)
(3 1.63023e-15 0)
(3 1.82989e-15 0)
(3 1.9665e-15 0)
(3 9.60743e-16 0)
(3 -9.91731e-19 0)
(3 -3.18267e-16 0)
(3 -6.57897e-16 0)
(3 -3.73524e-16 0)
(3 1.56264e-16 0)
(3 4.34813e-16 0)
(3 6.1319e-16 0)
(3 1.78467e-15 0)
(3 1.42755e-15 0)
(3 6.04789e-16 0)
(3 7.16946e-16 0)
(3 1.11895e-15 0)
(3 4.9817e-16 0)
(3 -9.47046e-16 0)
(3 -1.39795e-15 0)
(3 -2.18164e-15 0)
(3 -2.68542e-15 0)
(3 -2.47925e-15 0)
(3 -2.3973e-15 0)
(3 -2.86041e-15 0)
(3 -3.9001e-15 0)
(3 -4.05493e-15 0)
(3 -3.50803e-15 0)
(3 -2.95154e-15 0)
(3 -1.50697e-15 0)
(3 -1.75569e-15 0)
(3 -1.9713e-15 0)
(3 -1.86755e-15 0)
(3 -8.31717e-16 0)
(3 -1.84751e-17 0)
(3 3.18987e-16 0)
(3 6.49625e-16 0)
(3 4.38224e-16 0)
(3 3.89631e-16 0)
(3 4.53889e-16 0)
(3 2.72144e-16 0)
(3 -1.48405e-16 0)
(3 -8.25942e-17 0)
(3 1.39547e-16 0)
(3 -3.92098e-16 0)
(3 -1.00621e-15 0)
(3 -7.68594e-16 0)
(3 -8.48133e-16 0)
(3 -9.57385e-16 0)
(3 -1.29783e-15 0)
(3 -1.27819e-15 0)
(3 -1.18022e-15 0)
(3 -1.77767e-15 0)
(3 -1.96255e-15 0)
(3 -1.7691e-15 0)
(3 9.62702e-16 0)
(3 2.03562e-15 0)
(3 1.87528e-15 0)
(3 9.85331e-16 0)
(3 1.02778e-15 0)
(3 1.96183e-15 0)
(3 2.4668e-15 0)
(3 9.92504e-16 0)
(3 2.07235e-16 0)
(3 -1.9984e-16 0)
(3 -1.26109e-15 0)
(3 -1.31451e-15 0)
(3 -1.51161e-15 0)
(3 -6.49846e-16 0)
(3 6.84714e-16 0)
(3 8.5812e-16 0)
(3 1.21343e-15 0)
(3 1.45942e-15 0)
(3 2.80236e-15 0)
(3 3.08909e-15 0)
(3 1.29495e-15 0)
(3 -1.11746e-17 0)
(3 -3.59359e-16 0)
(3 -3.03539e-16 0)
(3 -2.59202e-16 0)
(3 -3.66761e-16 0)
(3 -3.45949e-16 0)
(3 -3.25422e-16 0)
(3 3.69751e-16 0)
(3 2.19089e-16 0)
(3 -4.85302e-16 0)
(3 -7.61741e-16 0)
(3 7.51736e-17 0)
(3 2.05013e-15 0)
(3 2.54926e-15 0)
(3 2.52042e-15 0)
(3 1.62255e-15 0)
(3 2.27089e-16 0)
(3 -5.23226e-16 0)
(3 -1.84827e-16 0)
(3 5.73642e-16 0)
(3 1.20333e-15 0)
(3 1.29633e-15 0)
(3 1.17769e-15 0)
(3 -4.54649e-16 0)
(3 -2.99801e-15 0)
(3 -2.94207e-15 0)
(3 -2.53951e-15 0)
(3 -6.40951e-17 0)
(3 1.2145e-15 0)
(3 1.93701e-15 0)
(3 1.51545e-15 0)
(3 7.12901e-16 0)
(3 1.0093e-15 0)
(3 1.05298e-15 0)
(3 9.22288e-16 0)
(3 1.12882e-15 0)
(3 1.64641e-15 0)
(3 4.7095e-16 0)
(3 9.51461e-17 0)
(3 -3.6475e-16 0)
(3 4.42468e-16 0)
(3 1.21953e-15 0)
(3 -3.04154e-16 0)
(3 -1.95899e-15 0)
(3 -2.67807e-15 0)
(3 -2.87613e-15 0)
(3 -2.97642e-15 0)
(3 -2.94133e-15 0)
(3 -2.85829e-15 0)
(3 -3.3412e-15 0)
(3 -2.21921e-15 0)
(3 -4.05929e-16 0)
(3 -1.99621e-16 0)
(3 -6.2048e-16 0)
(3 -1.4081e-16 0)
(3 -6.88401e-16 0)
(3 -8.29439e-16 0)
(3 -9.92836e-16 0)
(3 -8.58362e-16 0)
(3 -1.08063e-16 0)
(3 1.08536e-17 0)
(3 7.47697e-16 0)
(3 9.86906e-16 0)
(3 1.21399e-15 0)
(3 5.16338e-16 0)
(3 -8.98782e-16 0)
(3 -1.0104e-15 0)
(3 -1.23571e-15 0)
(3 -8.48946e-16 0)
(3 -6.05436e-16 0)
(3 1.0229e-16 0)
(3 -1.127e-16 0)
(3 -1.14163e-15 0)
(3 -1.37882e-15 0)
(3 -1.44199e-15 0)
(3 -2.29226e-16 0)
(3 2.18309e-16 0)
(3 -3.22901e-16 0)
(3 -3.18538e-16 0)
(3 -5.2995e-16 0)
(3 -4.73839e-16 0)
(3 -3.73498e-16 0)
(3 -1.15067e-15 0)
(3 -1.6221e-15 0)
(3 -9.37372e-16 0)
(3 9.22823e-16 0)
(3 7.6368e-16 0)
(3 3.54933e-16 0)
(3 8.52735e-16 0)
(3 6.01231e-16 0)
(3 6.77059e-16 0)
(3 1.39359e-15 0)
(3 1.98905e-15 0)
(3 1.71295e-15 0)
(3 1.7996e-15 0)
(3 1.77426e-15 0)
(3 1.60186e-15 0)
(3 2.34947e-16 0)
(3 -2.29557e-16 0)
(3 1.50503e-17 0)
(3 5.06629e-16 0)
(3 8.56354e-16 0)
(3 1.12966e-15 0)
(3 5.55769e-16 0)
(3 3.77951e-16 0)
(3 6.23837e-17 0)
(3 6.74695e-16 0)
(3 1.18774e-15 0)
(3 1.36365e-15 0)
(3 1.18631e-15 0)
(3 1.21315e-15 0)
(3 9.57519e-16 0)
(3 7.68532e-16 0)
(3 -1.17879e-16 0)
(3 -4.64404e-16 0)
(3 -5.03337e-16 0)
(3 -1.40574e-15 0)
(3 -1.58921e-15 0)
(3 -1.50862e-15 0)
(3 -2.86893e-15 0)
(3 -3.23082e-15 0)
(3 -2.18531e-15 0)
(3 -7.7058e-16 0)
(3 -4.24483e-16 0)
(3 6.20604e-16 0)
(3 1.98609e-15 0)
(3 2.07732e-15 0)
(3 1.63729e-15 0)
(3 -4.81085e-16 0)
(3 -4.95585e-16 0)
(3 -3.06673e-16 0)
(3 -9.82694e-16 0)
(3 -1.13726e-15 0)
(3 -2.82556e-16 0)
(3 2.94113e-16 0)
(3 6.48836e-16 0)
(3 9.7944e-16 0)
(3 1.55776e-15 0)
(3 4.41534e-16 0)
(3 -1.52293e-15 0)
(3 -2.61097e-15 0)
(3 -2.78836e-15 0)
(3 -2.56428e-15 0)
(3 -2.50391e-15 0)
(3 -2.91096e-15 0)
(3 -3.41039e-15 0)
(3 -2.59053e-15 0)
(3 -1.9974e-15 0)
(3 -1.65821e-15 0)
(3 -5.69218e-16 0)
(3 5.03281e-17 0)
(3 -6.63616e-17 0)
(3 -5.45419e-16 0)
(3 -4.8946e-16 0)
(3 -4.00495e-16 0)
(3 -2.58212e-16 0)
(3 -3.12432e-16 0)
(3 1.46417e-16 0)
(3 5.75406e-16 0)
(3 -3.25332e-16 0)
(3 -9.27303e-16 0)
(3 -8.86164e-16 0)
(3 -2.31692e-16 0)
(3 -2.52899e-16 0)
(3 -5.10946e-16 0)
(3 6.00939e-16 0)
(3 1.02912e-15 0)
(3 2.04116e-16 0)
(3 -3.6083e-16 0)
(3 -1.47976e-15 0)
(3 -1.48329e-15 0)
(3 -1.26953e-15 0)
(3 -1.08067e-15 0)
(3 -3.59177e-16 0)
(3 -3.23309e-16 0)
(3 -5.28792e-16 0)
(3 -1.23848e-15 0)
(3 -2.07912e-15 0)
(3 -1.17636e-15 0)
(3 -1.47361e-15 0)
(3 -1.68542e-16 0)
(3 1.3588e-15 0)
(3 1.23406e-15 0)
(3 1.05868e-15 0)
(3 6.95253e-16 0)
(3 -3.36645e-16 0)
(3 8.93587e-17 0)
(3 1.51372e-15 0)
(3 1.82436e-15 0)
(3 -4.16088e-16 0)
(3 -1.26239e-15 0)
(3 -4.44069e-16 0)
(3 -3.49697e-17 0)
(3 1.95721e-16 0)
(3 -1.27863e-16 0)
(3 -1.57957e-16 0)
(3 3.32992e-16 0)
(3 7.93218e-16 0)
(3 8.01104e-16 0)
(3 8.95802e-16 0)
(3 5.59885e-16 0)
(3 5.711e-16 0)
(3 1.10364e-15 0)
(3 7.64266e-16 0)
(3 -8.11933e-17 0)
(3 8.49706e-17 0)
(3 5.96166e-16 0)
(3 1.10899e-16 0)
(3 -6.59548e-18 0)
(3 -2.07484e-16 0)
(3 -7.96117e-16 0)
(3 -9.80266e-16 0)
(3 -1.38735e-15 0)
(3 -1.3204e-15 0)
(3 -1.36312e-15 0)
(3 -1.4958e-15 0)
(3 -1.5554e-15 0)
(3 -5.67331e-16 0)
(3 4.01655e-17 0)
(3 9.52019e-18 0)
(3 2.54762e-16 0)
(3 1.44374e-15 0)
(3 2.43999e-15 0)
(3 2.38383e-15 0)
(3 1.74873e-16 0)
(3 -1.47438e-15 0)
(3 -1.34098e-15 0)
(3 -1.55595e-15 0)
(3 -2.24677e-15 0)
(3 -1.6063e-15 0)
(3 -2.49178e-16 0)
(3 9.51439e-17 0)
(3 5.07945e-16 0)
(3 7.44221e-16 0)
(3 1.06152e-15 0)
(3 -6.79233e-16 0)
(3 -2.09478e-15 0)
(3 -2.86177e-15 0)
(3 -2.82018e-15 0)
(3 -3.20087e-15 0)
(3 -3.68819e-15 0)
(3 -4.00247e-15 0)
(3 -3.12815e-15 0)
(3 -2.75749e-15 0)
(3 -2.11067e-15 0)
(3 -1.56444e-15 0)
(3 9.76161e-17 0)
(3 6.75387e-16 0)
(3 8.89265e-16 0)
(3 5.97044e-16 0)
(3 7.08094e-16 0)
(3 3.39477e-16 0)
(3 -3.43881e-16 0)
(3 -3.16662e-16 0)
(3 -2.83174e-16 0)
(3 -1.55721e-17 0)
(3 1.19047e-15 0)
(3 1.0343e-15 0)
(3 4.60433e-16 0)
(3 -1.63461e-16 0)
(3 -5.05374e-16 0)
(3 -5.88812e-16 0)
(3 -1.02199e-15 0)
(3 -8.96714e-16 0)
(3 -9.33771e-16 0)
(3 -1.56364e-15 0)
(3 -1.95207e-15 0)
(3 -1.13777e-15 0)
(3 3.69533e-16 0)
(3 2.74164e-16 0)
(3 -3.10496e-16 0)
(3 -6.6511e-16 0)
(3 -1.65134e-15 0)
(3 -1.96757e-15 0)
(3 -6.72486e-16 0)
(3 9.42982e-16 0)
(3 1.37053e-15 0)
(3 6.1661e-16 0)
(3 1.67279e-16 0)
(3 4.28412e-16 0)
(3 -4.70639e-16 0)
(3 3.24404e-17 0)
(3 2.51759e-16 0)
(3 6.90096e-16 0)
(3 1.3543e-15 0)
(3 -4.3309e-17 0)
(3 -1.46084e-15 0)
(3 -1.00005e-15 0)
(3 5.9557e-17 0)
(3 5.11476e-16 0)
(3 6.6564e-17 0)
(3 3.37684e-16 0)
(3 1.03674e-15 0)
(3 7.59647e-16 0)
(3 4.26871e-16 0)
(3 6.61959e-16 0)
(3 8.78725e-16 0)
(3 1.26894e-15 0)
(3 1.56088e-15 0)
(3 1.35654e-15 0)
(3 7.49942e-16 0)
(3 9.5273e-16 0)
(3 1.64621e-15 0)
(3 1.48765e-15 0)
(3 -1.79027e-17 0)
(3 -2.22265e-16 0)
(3 -2.15492e-17 0)
(3 3.34464e-17 0)
(3 3.23763e-16 0)
(3 2.85575e-16 0)
(3 7.88465e-16 0)
(3 1.00863e-15 0)
(3 6.57874e-16 0)
(3 2.73069e-16 0)
(3 2.57182e-16 0)
(3 6.3014e-16 0)
(3 1.36281e-15 0)
(3 1.19639e-15 0)
(3 1.85234e-15 0)
(3 1.81217e-15 0)
(3 9.05177e-16 0)
(3 4.70792e-16 0)
(3 -2.2922e-16 0)
(3 -9.06072e-16 0)
(3 -2.47858e-15 0)
(3 -1.91914e-15 0)
(3 -1.8285e-15 0)
(3 -2.05704e-15 0)
(3 -1.87785e-15 0)
(3 -1.07893e-15 0)
(3 3.66281e-16 0)
(3 8.4133e-16 0)
(3 9.93166e-16 0)
(3 -7.08766e-17 0)
(3 -8.73106e-16 0)
(3 -3.72511e-15 0)
(3 -4.85201e-15 0)
(3 -4.70997e-15 0)
(3 -4.28737e-15 0)
(3 -3.5828e-15 0)
(3 -2.71039e-15 0)
(3 -2.37704e-15 0)
(3 -5.40255e-17 0)
(3 -2.52537e-16 0)
(3 -9.10945e-17 0)
(3 -7.78963e-17 0)
(3 6.77358e-17 0)
(3 1.49507e-16 0)
(3 1.0779e-16 0)
(3 -5.76714e-17 0)
(3 -8.49675e-16 0)
(3 -4.4535e-16 0)
(3 3.60817e-16 0)
(3 1.16505e-15 0)
(3 2.43081e-16 0)
(3 -1.93291e-16 0)
(3 -5.66815e-17 0)
(3 -1.90037e-16 0)
(3 -6.87481e-16 0)
(3 -6.23549e-16 0)
(3 -1.35052e-15 0)
(3 -1.8508e-15 0)
(3 -8.52537e-16 0)
(3 5.74129e-16 0)
(3 1.0608e-15 0)
(3 7.96262e-16 0)
(3 -2.4626e-16 0)
(3 -1.70649e-15 0)
(3 -2.01587e-15 0)
(3 -1.40544e-15 0)
(3 -8.53627e-16 0)
(3 -9.64933e-17 0)
(3 1.00744e-15 0)
(3 6.17587e-16 0)
(3 -6.63614e-16 0)
(3 -9.02492e-16 0)
(3 -7.83521e-16 0)
(3 -3.2097e-16 0)
(3 2.09631e-16 0)
(3 -5.13058e-16 0)
(3 -3.59076e-16 0)
(3 -5.28782e-16 0)
(3 -7.62668e-16 0)
(3 -5.41096e-16 0)
(3 -1.94565e-16 0)
(3 1.8572e-16 0)
(3 3.16087e-16 0)
(3 8.81892e-16 0)
(3 1.3148e-15 0)
(3 1.42757e-15 0)
(3 1.11816e-15 0)
(3 6.19323e-16 0)
(3 1.20467e-15 0)
(3 1.23997e-15 0)
(3 1.39586e-15 0)
(3 2.54664e-15 0)
(3 2.66325e-15 0)
(3 2.31558e-15 0)
(3 2.09931e-15 0)
(3 1.56364e-15 0)
(3 1.52215e-15 0)
(3 1.35825e-15 0)
(3 1.42666e-15 0)
(3 1.11272e-15 0)
(3 8.05149e-16 0)
(3 8.10604e-16 0)
(3 1.35491e-15 0)
(3 2.25651e-15 0)
(3 1.58512e-15 0)
(3 8.83686e-16 0)
(3 -3.18289e-17 0)
(3 4.18721e-16 0)
(3 7.59789e-16 0)
(3 4.27259e-16 0)
(3 -9.581e-16 0)
(3 -3.08021e-16 0)
(3 9.94217e-16 0)
(3 9.18213e-16 0)
(3 2.91618e-16 0)
(3 -3.44034e-16 0)
(3 -1.45743e-15 0)
(3 -2.53615e-15 0)
(3 -2.40016e-15 0)
(3 -2.05781e-15 0)
(3 -2.258e-15 0)
(3 -1.71286e-15 0)
(3 -1.01588e-15 0)
(3 6.03615e-16 0)
(3 1.48393e-15 0)
(3 9.53724e-16 0)
(3 -4.00645e-16 0)
(3 -2.26654e-15 0)
(3 -3.431e-15 0)
(3 -3.64874e-15 0)
(3 -3.17938e-15 0)
(3 -2.84638e-15 0)
(3 -2.64414e-15 0)
(3 -2.6084e-15 0)
(3 -1.11536e-16 0)
(3 -7.08705e-16 0)
(3 -9.31627e-16 0)
(3 -5.28263e-16 0)
(3 -9.41849e-17 0)
(3 7.3149e-17 0)
(3 -1.71796e-16 0)
(3 -3.46328e-16 0)
(3 -7.36754e-16 0)
(3 -6.76399e-16 0)
(3 -9.0064e-16 0)
(3 1.42876e-16 0)
(3 6.26463e-16 0)
(3 5.28673e-16 0)
(3 5.11311e-16 0)
(3 8.8704e-16 0)
(3 9.5773e-16 0)
(3 1.00896e-15 0)
(3 7.22108e-16 0)
(3 -5.78289e-17 0)
(3 8.16108e-16 0)
(3 1.31165e-15 0)
(3 8.04802e-16 0)
(3 3.63584e-16 0)
(3 -8.88979e-17 0)
(3 -1.01914e-15 0)
(3 -1.13548e-15 0)
(3 -1.02082e-15 0)
(3 -2.13465e-16 0)
(3 -3.05614e-16 0)
(3 -1.19483e-15 0)
(3 -1.84596e-15 0)
(3 -2.11915e-15 0)
(3 -2.08044e-15 0)
(3 -1.45178e-15 0)
(3 -1.30002e-15 0)
(3 -1.13924e-15 0)
(3 -1.7983e-15 0)
(3 -2.36303e-15 0)
(3 -1.07315e-15 0)
(3 -8.77433e-16 0)
(3 -9.986e-16 0)
(3 -1.32758e-15 0)
(3 -1.25231e-15 0)
(3 -5.97362e-16 0)
(3 -1.87634e-16 0)
(3 3.00207e-16 0)
(3 1.20495e-15 0)
(3 1.45246e-15 0)
(3 1.49349e-15 0)
(3 1.2111e-15 0)
(3 1.05094e-15 0)
(3 1.81113e-15 0)
(3 2.42794e-15 0)
(3 2.4938e-15 0)
(3 2.56978e-15 0)
(3 2.07575e-15 0)
(3 2.20722e-15 0)
(3 2.97966e-15 0)
(3 2.68176e-15 0)
(3 2.07488e-15 0)
(3 1.44613e-15 0)
(3 3.09788e-16 0)
(3 -2.67927e-16 0)
(3 -9.02678e-17 0)
(3 8.28312e-16 0)
(3 6.16575e-16 0)
(3 -5.83184e-16 0)
(3 -9.97783e-16 0)
(3 -1.07131e-15 0)
(3 -1.47497e-15 0)
(3 -1.55786e-15 0)
(3 -1.02597e-15 0)
(3 1.68361e-16 0)
(3 9.8265e-16 0)
(3 8.731e-16 0)
(3 7.42984e-16 0)
(3 5.64084e-16 0)
(3 1.20142e-16 0)
(3 -1.42934e-15 0)
(3 -1.91731e-15 0)
(3 -1.56578e-15 0)
(3 -1.62794e-15 0)
(3 -1.88353e-15 0)
(3 -1.66159e-15 0)
(3 -6.21199e-16 0)
(3 4.316e-16 0)
(3 7.48311e-16 0)
(3 6.35525e-16 0)
(3 -9.48048e-17 0)
(3 -5.15687e-16 0)
(3 -8.0221e-16 0)
(3 -2.66834e-15 0)
(3 -3.05253e-15 0)
(3 -2.88262e-15 0)
(3 -1.97326e-15 0)
(3 1.2614e-17 0)
(3 -6.29488e-18 0)
(3 -5.91895e-17 0)
(3 -1.47051e-16 0)
(3 -2.71823e-16 0)
(3 -2.12637e-16 0)
(3 -7.6372e-17 0)
(3 2.82988e-16 0)
(3 1.24011e-16 0)
(3 -3.90599e-16 0)
(3 -9.52631e-16 0)
(3 -9.91092e-16 0)
(3 -3.56957e-16 0)
(3 5.017e-16 0)
(3 1.30028e-15 0)
(3 1.77095e-15 0)
(3 1.27883e-15 0)
(3 1.04881e-15 0)
(3 2.02117e-15 0)
(3 1.46565e-15 0)
(3 5.86939e-16 0)
(3 -7.46837e-16 0)
(3 -1.49659e-15 0)
(3 -1.55076e-15 0)
(3 -1.33855e-15 0)
(3 -1.55637e-15 0)
(3 -1.47743e-15 0)
(3 -1.35919e-15 0)
(3 -1.2763e-15 0)
(3 -2.10912e-15 0)
(3 -3.42251e-15 0)
(3 -4.04498e-15 0)
(3 -3.92823e-15 0)
(3 -3.36856e-15 0)
(3 -2.70855e-15 0)
(3 -2.41716e-15 0)
(3 -2.79564e-15 0)
(3 -2.57083e-15 0)
(3 -2.10799e-15 0)
(3 -1.05198e-15 0)
(3 -7.29473e-16 0)
(3 -8.9304e-16 0)
(3 -1.02506e-15 0)
(3 -1.66809e-15 0)
(3 -1.36521e-15 0)
(3 -4.23578e-16 0)
(3 -9.40985e-17 0)
(3 4.68535e-16 0)
(3 1.12573e-15 0)
(3 1.42211e-15 0)
(3 1.14205e-15 0)
(3 1.32801e-15 0)
(3 9.63889e-16 0)
(3 3.9048e-16 0)
(3 5.79071e-16 0)
(3 1.83366e-15 0)
(3 3.12797e-15 0)
(3 3.49977e-15 0)
(3 3.46121e-15 0)
(3 2.66098e-15 0)
(3 2.21835e-15 0)
(3 1.04889e-15 0)
(3 4.82521e-16 0)
(3 -5.68254e-16 0)
(3 -1.07273e-15 0)
(3 -1.59503e-15 0)
(3 -1.60926e-15 0)
(3 -1.67231e-15 0)
(3 -1.45664e-15 0)
(3 -1.05502e-15 0)
(3 -1.13256e-15 0)
(3 -4.14661e-16 0)
(3 2.59414e-16 0)
(3 3.07925e-16 0)
(3 1.25208e-16 0)
(3 -1.02576e-16 0)
(3 -9.65517e-18 0)
(3 4.95242e-16 0)
(3 2.7103e-16 0)
(3 4.28792e-16 0)
(3 6.08753e-17 0)
(3 6.56714e-17 0)
(3 1.78662e-16 0)
(3 3.28568e-16 0)
(3 7.38582e-16 0)
(3 1.49588e-15 0)
(3 2.43385e-15 0)
(3 2.79787e-15 0)
(3 2.86976e-15 0)
(3 1.90998e-15 0)
(3 1.08084e-15 0)
(3 5.77148e-16 0)
(3 -2.62004e-15 0)
(3 -3.7265e-15 0)
(3 -3.45323e-15 0)
(3 -2.0586e-15 0)
(3 -1.5224e-17 0)
(3 4.13556e-16 0)
(3 5.19709e-16 0)
(3 3.65292e-18 0)
(3 -4.35423e-16 0)
(3 -9.34321e-17 0)
(3 5.91338e-16 0)
(3 4.69539e-16 0)
(3 5.10734e-16 0)
(3 3.77394e-16 0)
(3 -1.69953e-16 0)
(3 -5.13124e-16 0)
(3 -8.47229e-16 0)
(3 -1.44322e-16 0)
(3 6.85875e-16 0)
(3 1.62956e-15 0)
(3 1.99949e-15 0)
(3 2.04825e-15 0)
(3 1.3701e-15 0)
(3 1.01298e-15 0)
(3 5.23935e-16 0)
(3 -1.44994e-15 0)
(3 -1.92978e-15 0)
(3 -1.48907e-15 0)
(3 -2.14387e-15 0)
(3 -3.26378e-15 0)
(3 -3.07181e-15 0)
(3 -3.59312e-15 0)
(3 -3.81224e-15 0)
(3 -3.89825e-15 0)
(3 -3.91445e-15 0)
(3 -3.79367e-15 0)
(3 -3.44603e-15 0)
(3 -3.59274e-15 0)
(3 -2.64757e-15 0)
(3 -2.25893e-15 0)
(3 -2.3502e-15 0)
(3 -2.32424e-15 0)
(3 -2.17798e-15 0)
(3 -1.14172e-15 0)
(3 -5.95667e-16 0)
(3 -5.03249e-16 0)
(3 -1.10959e-17 0)
(3 2.94953e-16 0)
(3 5.59455e-16 0)
(3 6.44108e-16 0)
(3 3.55663e-16 0)
(3 -1.4045e-16 0)
(3 -1.05974e-16 0)
(3 2.59036e-16 0)
(3 4.20358e-16 0)
(3 6.06178e-16 0)
(3 -5.74044e-16 0)
(3 -6.74506e-16 0)
(3 1.60402e-15 0)
(3 2.3463e-15 0)
(3 2.40415e-15 0)
(3 2.24536e-15 0)
(3 2.01029e-15 0)
(3 1.731e-15 0)
(3 1.43468e-15 0)
(3 1.07501e-15 0)
(3 1.2021e-15 0)
(3 7.24352e-16 0)
(3 -5.1937e-16 0)
(3 -1.21716e-15 0)
(3 -1.3856e-15 0)
(3 -7.92401e-16 0)
(3 -1.06006e-15 0)
(3 -1.11719e-15 0)
(3 -4.82208e-16 0)
(3 -7.94466e-17 0)
(3 1.92196e-16 0)
(3 -2.89503e-16 0)
(3 -8.64365e-16 0)
(3 -8.37117e-16 0)
(3 -1.15315e-15 0)
(3 -4.34428e-16 0)
(3 -5.77404e-17 0)
(3 1.85926e-15 0)
(3 2.93961e-15 0)
(3 2.72154e-15 0)
(3 1.77315e-15 0)
(3 1.51007e-15 0)
(3 2.40556e-15 0)
(3 2.67375e-15 0)
(3 2.88968e-15 0)
(3 2.61701e-15 0)
(3 2.5035e-15 0)
(3 2.08729e-15 0)
(3 1.55341e-15 0)
(3 5.57703e-16 0)
(3 -6.67903e-16 0)
(3 -1.99836e-15 0)
(3 -2.27644e-15 0)
(3 -2.28594e-15 0)
(3 1.11806e-16 0)
(3 2.34095e-16 0)
(3 -1.3182e-16 0)
(3 -9.83108e-17 0)
(3 -2.60854e-16 0)
(3 -1.16987e-16 0)
(3 1.53725e-16 0)
(3 -3.24883e-16 0)
(3 5.97114e-17 0)
(3 3.95414e-16 0)
(3 2.32913e-16 0)
(3 2.78711e-17 0)
(3 -2.94629e-16 0)
(3 -8.34959e-16 0)
(3 -8.8046e-16 0)
(3 -2.16065e-16 0)
(3 1.37139e-15 0)
(3 2.10234e-15 0)
(3 2.02122e-15 0)
(3 1.8159e-15 0)
(3 2.15321e-15 0)
(3 1.12972e-15 0)
(3 2.03445e-16 0)
(3 3.89775e-17 0)
(3 -8.22758e-17 0)
(3 -1.93228e-16 0)
(3 -5.32487e-16 0)
(3 -2.50801e-15 0)
(3 -2.88547e-15 0)
(3 -2.47473e-15 0)
(3 -2.02501e-15 0)
(3 -1.29077e-15 0)
(3 -8.41825e-16 0)
(3 2.73019e-16 0)
(3 5.39911e-16 0)
(3 1.66576e-17 0)
(3 -1.56236e-17 0)
(3 -6.58457e-16 0)
(3 -6.6901e-16 0)
(3 -1.3614e-16 0)
(3 -1.83504e-16 0)
(3 9.98821e-17 0)
(3 2.06077e-16 0)
(3 1.53233e-16 0)
(3 -1.72514e-16 0)
(3 -5.13379e-16 0)
(3 -6.72659e-16 0)
(3 -1.0981e-15 0)
(3 -8.04362e-16 0)
(3 6.13995e-16 0)
(3 9.38995e-16 0)
(3 6.4022e-16 0)
(3 6.10203e-16 0)
(3 8.81922e-16 0)
(3 1.19541e-15 0)
(3 1.69148e-15 0)
(3 1.22949e-15 0)
(3 1.84166e-15 0)
(3 1.38563e-15 0)
(3 1.40387e-15 0)
(3 1.63601e-15 0)
(3 1.87043e-15 0)
(3 1.74427e-15 0)
(3 1.18554e-15 0)
(3 8.98111e-16 0)
(3 4.84373e-16 0)
(3 4.27429e-16 0)
(3 3.07002e-17 0)
(3 -2.09023e-16 0)
(3 -6.18959e-16 0)
(3 -7.08219e-16 0)
(3 -9.15511e-16 0)
(3 -1.088e-15 0)
(3 -1.15209e-15 0)
(3 -1.24167e-15 0)
(3 -1.0436e-15 0)
(3 -6.00683e-16 0)
(3 -1.04607e-15 0)
(3 -2.80514e-16 0)
(3 8.25712e-16 0)
(3 1.31277e-15 0)
(3 2.3348e-15 0)
(3 2.03113e-15 0)
(3 2.1966e-15 0)
(3 2.57812e-15 0)
(3 2.80386e-15 0)
(3 2.27045e-15 0)
(3 1.32456e-15 0)
(3 5.55635e-17 0)
(3 -8.12771e-17 0)
(3 5.62678e-16 0)
(3 1.87568e-16 0)
(3 3.00501e-16 0)
(3 -3.56405e-16 0)
(3 -1.88432e-15 0)
(3 -2.06274e-15 0)
(3 2.0686e-16 0)
(3 4.57379e-17 0)
(3 -2.43018e-16 0)
(3 -1.97487e-16 0)
(3 -7.61639e-17 0)
(3 -2.47625e-16 0)
(3 1.32797e-16 0)
(3 -7.10719e-17 0)
(3 2.75497e-16 0)
(3 -3.51142e-16 0)
(3 -7.65853e-16 0)
(3 -4.87387e-16 0)
(3 -1.90999e-16 0)
(3 -5.23731e-16 0)
(3 -3.91967e-16 0)
(3 8.50911e-17 0)
(3 -1.89476e-16 0)
(3 2.29994e-16 0)
(3 1.30656e-15 0)
(3 1.58564e-15 0)
(3 2.20595e-15 0)
(3 1.94999e-15 0)
(3 1.39568e-15 0)
(3 8.60857e-16 0)
(3 9.77642e-16 0)
(3 1.46978e-15 0)
(3 1.39236e-15 0)
(3 1.04227e-16 0)
(3 -1.13039e-15 0)
(3 -1.25862e-15 0)
(3 -7.61869e-16 0)
(3 -1.26642e-16 0)
(3 4.05958e-16 0)
(3 1.98903e-15 0)
(3 1.22492e-15 0)
(3 6.00965e-16 0)
(3 -3.03178e-16 0)
(3 5.82821e-16 0)
(3 9.89163e-16 0)
(3 4.52884e-16 0)
(3 6.40139e-16 0)
(3 4.07489e-16 0)
(3 -6.20189e-18 0)
(3 -8.84359e-17 0)
(3 -8.65792e-16 0)
(3 -1.49511e-15 0)
(3 -1.21273e-15 0)
(3 -9.69615e-16 0)
(3 6.0231e-16 0)
(3 1.57244e-15 0)
(3 1.80865e-15 0)
(3 1.86017e-15 0)
(3 2.33569e-15 0)
(3 2.61294e-15 0)
(3 6.83261e-16 0)
(3 -1.04568e-15 0)
(3 -9.35008e-16 0)
(3 4.90242e-16 0)
(3 6.69908e-16 0)
(3 1.08669e-15 0)
(3 1.61526e-15 0)
(3 1.57743e-15 0)
(3 1.21729e-15 0)
(3 1.45674e-15 0)
(3 1.6574e-15 0)
(3 7.49786e-16 0)
(3 -8.54757e-17 0)
(3 -6.94142e-16 0)
(3 -9.38149e-16 0)
(3 -1.01293e-15 0)
(3 -1.286e-15 0)
(3 -1.16131e-15 0)
(3 -1.40699e-15 0)
(3 -1.47501e-15 0)
(3 -1.6831e-15 0)
(3 -1.71467e-15 0)
(3 -1.34405e-15 0)
(3 -1.10297e-15 0)
(3 5.18768e-16 0)
(3 1.6848e-15 0)
(3 1.91397e-15 0)
(3 2.10908e-15 0)
(3 2.45057e-15 0)
(3 2.76168e-15 0)
(3 2.54187e-15 0)
(3 2.16259e-15 0)
(3 9.97818e-16 0)
(3 -5.12572e-16 0)
(3 -2.18472e-15 0)
(3 -2.42579e-15 0)
(3 -1.56617e-15 0)