/*--------------------------------*- C++ -*----------------------------------*\
  =========                 |
  \\      /  F ield         | OpenFOAM: The Open Source CFD Toolbox
   \\    /   O peration     | Website:  https://openfoam.org
    \\  /    A nd           | Version:  7
     \\/     M anipulation  |
\*---------------------------------------------------------------------------*/
FoamFile
{
    version     2.0;
    format      ascii;
    class       volScalarField;
    location    "1.5";
    object      T;
}
// * * * * * * * * * * * * * * * * * * * * * * * * * * * * * * * * * * * * * //

dimensions      [0 0 0 1 0 0 0];

internalField   nonuniform List<scalar> 
4128
(
1.64528
1.64264
1.63764
1.63029
1.62415
1.62116
1.61992
1.61947
1.61994
1.62207
1.62543
1.62797
1.62984
1.63198
1.63392
1.63482
1.63453
1.63205
1.62685
1.62159
1.62022
1.62214
1.6303
1.66146
1.73429
1.82976
1.90779
1.94995
1.9795
1.98151
1.9794
1.96765
1.95765
1.95041
1.94425
1.94312
1.94358
1.94331
1.93871
1.93185
1.92435
1.91716
1.91099
1.90529
1.89939
1.89468
1.89403
1.8984
1.9115
1.93215
1.94904
1.96226
1.96699
1.965
1.96462
1.9623
1.95893
1.95439
1.94755
1.93796
1.92768
1.91881
1.911
1.90442
1.89843
1.89245
1.88735
1.88494
1.88235
1.87689
1.86844
1.85885
1.8485
1.83813
1.82883
1.82128
1.8151
1.80987
1.80601
1.80241
1.79748
1.79294
1.7895
1.78463
1.77828
1.77126
1.76349
1.75497
1.74651
1.73994
1.7342
1.72826
1.7247
1.72254
1.72088
1.71932
1.71736
1.7144
1.71017
1.7052
1.7004
1.69644
1.69344
1.6882
1.68105
1.67336
1.66451
1.65446
1.64443
1.63597
1.62986
1.62697
1.62615
1.62452
1.62182
1.61936
1.61633
1.61219
1.60702
1.60125
1.59583
1.591
1.58619
1.58128
1.57645
1.57152
1.56631
1.56206
1.55617
1.62949
1.62402
1.61685
1.61157
1.60923
1.60835
1.60814
1.6085
1.61012
1.61243
1.61313
1.61337
1.61419
1.61534
1.61606
1.61596
1.61432
1.61017
1.60555
1.60609
1.61077
1.62951
1.68488
1.77458
1.86601
1.92017
1.95671
1.95995
1.95299
1.94553
1.94018
1.93462
1.93179
1.93016
1.92564
1.91963
1.91369
1.90802
1.90276
1.89791
1.89399
1.89099
1.88764
1.8857
1.88471
1.88702
1.89324
1.90743
1.92806
1.94429
1.95468
1.94889
1.94106
1.93994
1.9423
1.94295
1.93895
1.9328
1.9249
1.9147
1.90309
1.89407
1.88777
1.88235
1.87733
1.8731
1.87133
1.87034
1.8672
1.85994
1.85105
1.84103
1.83048
1.82039
1.8117
1.80491
1.79953
1.79503
1.7917
1.78818
1.7822
1.77582
1.76961
1.76331
1.7569
1.75002
1.7428
1.73542
1.72811
1.7221
1.71571
1.71002
1.70599
1.70347
1.70218
1.70166
1.70116
1.69995
1.69761
1.69349
1.68784
1.68232
1.67745
1.67232
1.66626
1.65962
1.65228
1.64371
1.63428
1.62472
1.61687
1.61182
1.60945
1.60944
1.60918
1.60769
1.60506
1.60157
1.59659
1.58924
1.58013
1.57259
1.56716
1.56212
1.55726
1.55332
1.55035
1.54927
1.54629
1.61029
1.6039
1.59965
1.59793
1.59751
1.59809
1.59966
1.60078
1.60073
1.60013
1.59924
1.59845
1.59831
1.59825
1.59797
1.59682
1.59396
1.59166
1.59379
1.60457
1.64371
1.72244
1.81916
1.8864
1.93848
1.94218
1.935
1.9303
1.92562
1.92193
1.9207
1.91959
1.91591
1.90887
1.89961
1.89025
1.88326
1.8782
1.87433
1.87208
1.87061
1.8693
1.8688
1.87129
1.87694
1.88666
1.90289
1.92265
1.94361
1.94559
1.93638
1.92599
1.92254
1.92574
1.92896
1.92519
1.91739
1.9086
1.8994
1.88933
1.87898
1.87082
1.86521
1.86068
1.85705
1.85611
1.85625
1.85565
1.85013
1.84137
1.83188
1.8217
1.81129
1.80199
1.79437
1.7885
1.78484
1.78281
1.77896
1.77337
1.76681
1.75889
1.75064
1.74309
1.73631
1.73023
1.72407
1.71795
1.71133
1.70434
1.69829
1.69306
1.68887
1.68623
1.68479
1.68475
1.68546
1.68536
1.68387
1.68106
1.67654
1.66936
1.66191
1.6564
1.65092
1.64505
1.63932
1.6324
1.62365
1.61453
1.60589
1.59991
1.59654
1.59495
1.59531
1.59543
1.59354
1.58955
1.58468
1.57791
1.56813
1.55788
1.55026
1.54455
1.53955
1.53614
1.53601
1.53758
1.5354
1.59163
1.58854
1.58768
1.58778
1.58936
1.59114
1.59145
1.59046
1.5879
1.5862
1.58547
1.58474
1.58387
1.58299
1.58178
1.58029
1.58096
1.58582
1.61081
1.67338
1.76612
1.85109
1.91321
1.91628
1.91653
1.92046
1.92128
1.91857
1.91365
1.90821
1.90329
1.89876
1.89386
1.88729
1.87848
1.86904
1.86141
1.85542
1.85124
1.84957
1.84955
1.85133
1.85753
1.867
1.88058
1.90007
1.91853
1.93832
1.93581
1.92758
1.91783
1.91293
1.91403
1.91478
1.91019
1.90247
1.89393
1.88437
1.87394
1.864
1.85561
1.84915
1.84479
1.84164
1.8409
1.84127
1.8404
1.83511
1.8281
1.81991
1.81068
1.80133
1.79219
1.78403
1.77752
1.7744
1.77296
1.76955
1.764
1.75801
1.75014
1.74132
1.73332
1.72566
1.71871
1.71345
1.70942
1.70276
1.69518
1.68793
1.68164
1.6767
1.67296
1.67007
1.66825
1.66851
1.67021
1.67041
1.66876
1.6664
1.66325
1.65803
1.64956
1.64135
1.6353
1.62963
1.62463
1.61919
1.61163
1.60344
1.59589
1.58962
1.58572
1.58307
1.58196
1.58175
1.57952
1.57534
1.57067
1.56477
1.55659
1.54694
1.53829
1.53152
1.52636
1.52338
1.5232
1.52515
1.52194
1.57835
1.57806
1.57903
1.58105
1.58185
1.58132
1.57886
1.5753
1.57369
1.57332
1.57301
1.57278
1.57182
1.57098
1.57157
1.57409
1.58823
1.63293
1.71727
1.81431
1.87998
1.89418
1.90247
1.91065
1.911
1.90989
1.90759
1.90228
1.89563
1.89017
1.88528
1.88156
1.87849
1.87282
1.86251
1.85173
1.84178
1.83472
1.83126
1.83022
1.83312
1.8425
1.85637
1.87437
1.89672
1.91918
1.92938
1.9274
1.92254
1.91452
1.90582
1.90128
1.90129
1.89774
1.8898
1.88136
1.87193
1.86092
1.84939
1.83977
1.83323
1.82876
1.82692
1.82741
1.82767
1.82453
1.81901
1.81237
1.80494
1.79733
1.78968
1.78188
1.77443
1.76826
1.76513
1.76352
1.76027
1.75384
1.74777
1.74086
1.73236
1.72452
1.71768
1.71077
1.70476
1.70131
1.6964
1.6887
1.6811
1.67309
1.66616
1.66154
1.65787
1.65467
1.65267
1.65304
1.65433
1.6542
1.65243
1.65047
1.64813
1.64483
1.63913
1.63022
1.62142
1.61462
1.60875
1.60359
1.5978
1.5905
1.58415
1.57894
1.57493
1.57181
1.56906
1.56626
1.56286
1.55932
1.55529
1.55032
1.54384
1.53619
1.52905
1.52289
1.51753
1.51361
1.512
1.51205
1.50724
1.56886
1.57129
1.57293
1.57296
1.57106
1.56673
1.5624
1.56101
1.56097
1.56127
1.56176
1.56271
1.56411
1.56609
1.57515
1.60525
1.67571
1.77319
1.84568
1.8738
1.89196
1.90193
1.90204
1.89982
1.89514
1.88885
1.8843
1.88172
1.87918
1.87661
1.87412
1.87106
1.86594
1.85569
1.84389
1.83264
1.82295
1.81753
1.8151
1.81702
1.82613
1.84148
1.86278
1.88892
1.91415
1.91993
1.92368
1.92057
1.91164
1.89965
1.89036
1.887
1.88587
1.88127
1.87266
1.86274
1.85093
1.83823
1.82763
1.8194
1.81335
1.81195
1.81266
1.81276
1.80964
1.80496
1.79823
1.79014
1.78315
1.77702
1.77092
1.76489
1.75996
1.75699
1.75474
1.75121
1.74412
1.737
1.72996
1.7228
1.71573
1.70959
1.70388
1.69874
1.69495
1.69014
1.68191
1.67405
1.6669
1.65946
1.65285
1.64797
1.64385
1.6403
1.63822
1.63813
1.63791
1.63643
1.63438
1.63282
1.63146
1.62955
1.62638
1.62075
1.61187
1.60223
1.59441
1.58794
1.58251
1.57646
1.57059
1.5663
1.56257
1.55915
1.55537
1.55099
1.54702
1.54359
1.53995
1.53566
1.5305
1.52486
1.51969
1.51479
1.50993
1.5053
1.50169
1.49926
1.49179
1.56401
1.56527
1.56482
1.56176
1.55571
1.55005
1.54845
1.54841
1.54896
1.54998
1.55268
1.55716
1.56518
1.58577
1.64521
1.73613
1.81618
1.85529
1.87865
1.89238
1.89316
1.89198
1.88606
1.87627
1.87062
1.86895
1.8682
1.86809
1.86907
1.86852
1.86433
1.85607
1.84628
1.83586
1.8252
1.81537
1.8077
1.80382
1.80508
1.81187
1.82504
1.84735
1.87561
1.89765
1.91332
1.91835
1.91461
1.90654
1.89536
1.88465
1.87794
1.87478
1.87149
1.86329
1.85351
1.84281
1.83086
1.81979
1.81102
1.80335
1.79811
1.79738
1.79741
1.79385
1.79006
1.78599
1.77901
1.77058
1.76447
1.75959
1.75505
1.75141
1.74908
1.7469
1.74208
1.73526
1.72803
1.72025
1.71271
1.70637
1.70105
1.69623
1.69244
1.68914
1.68434
1.67604
1.66687
1.65828
1.65123
1.64535
1.64009
1.6358
1.63178
1.62796
1.62501
1.62299
1.6198
1.61685
1.61478
1.61339
1.61282
1.61251
1.61147
1.60833
1.60269
1.59369
1.58308
1.57445
1.56736
1.56128
1.55569
1.55155
1.54857
1.54558
1.54171
1.53732
1.53312
1.52941
1.52566
1.52162
1.51744
1.51323
1.50915
1.50528
1.50147
1.49738
1.49336
1.48961
1.47959
1.55807
1.55735
1.55392
1.54649
1.53859
1.5365
1.53627
1.5365
1.53787
1.54201
1.55053
1.56731
1.61627
1.69469
1.79122
1.84164
1.87416
1.88393
1.88017
1.87588
1.87223
1.86859
1.86372
1.85927
1.85687
1.85685
1.85674
1.85616
1.85529
1.85309
1.84752
1.83875
1.82837
1.81888
1.80963
1.80123
1.79586
1.79699
1.80223
1.8134
1.83455
1.86173
1.8814
1.90317
1.90444
1.90128
1.89562
1.88908
1.88201
1.87506
1.86843
1.86082
1.85296
1.84435
1.83438
1.82411
1.81436
1.80582
1.79791
1.79043
1.78406
1.78015
1.77856
1.77501
1.77148
1.76804
1.76227
1.75491
1.74966
1.7454
1.74249
1.74165
1.73946
1.73371
1.72745
1.72023
1.71232
1.70486
1.69791
1.69134
1.68699
1.6848
1.68199
1.67623
1.66901
1.66065
1.65099
1.6415
1.63484
1.6304
1.62705
1.62446
1.62197
1.61792
1.6125
1.60637
1.60119
1.59758
1.59488
1.59289
1.59244
1.59391
1.59488
1.59428
1.59067
1.58425
1.57455
1.56294
1.55376
1.54628
1.5401
1.53566
1.53358
1.53248
1.52904
1.52495
1.52085
1.51634
1.51174
1.50774
1.50417
1.50057
1.49701
1.49352
1.48993
1.48715
1.48505
1.48209
1.47175
1.55051
1.54732
1.53939
1.52882
1.52509
1.52448
1.52445
1.52602
1.53098
1.54568
1.58454
1.65305
1.75747
1.82187
1.87147
1.87726
1.87085
1.86418
1.85864
1.85625
1.85637
1.85531
1.85206
1.84808
1.8435
1.84072
1.83976
1.83856
1.83768
1.83619
1.83091
1.82263
1.81342
1.80498
1.7958
1.78786
1.78856
1.79434
1.80685
1.82811
1.85431
1.87485
1.88885
1.88917
1.8869
1.88236
1.87902
1.87564
1.86969
1.86042
1.85209
1.84447
1.83687
1.82962
1.81978
1.81015
1.80172
1.79332
1.78512
1.77691
1.76926
1.76334
1.75986
1.75819
1.75488
1.75171
1.74751
1.74193
1.73742
1.73392
1.73233
1.72951
1.72436
1.71909
1.71312
1.70587
1.69829
1.69136
1.68442
1.67907
1.67618
1.67298
1.66636
1.65945
1.65241
1.64393
1.63476
1.62656
1.62013
1.61591
1.61453
1.61403
1.61088
1.60636
1.6004
1.59181
1.5841
1.57965
1.57663
1.57436
1.57363
1.57587
1.57873
1.57886
1.57648
1.57177
1.56487
1.55419
1.54206
1.53305
1.5266
1.52196
1.52019
1.52035
1.5186
1.51443
1.51027
1.50441
1.49711
1.49247
1.48944
1.48634
1.48308
1.47984
1.4774
1.47639
1.47599
1.47441
1.46477
1.54168
1.5342
1.5218
1.51505
1.51355
1.51363
1.51507
1.52224
1.54896
1.61085
1.71412
1.79354
1.85542
1.8732
1.86473
1.85741
1.85036
1.8487
1.84995
1.85081
1.8475
1.84116
1.83519
1.82875
1.82416
1.82287
1.82207
1.82221
1.82297
1.82119
1.81503
1.80642
1.79731
1.78893
1.78118
1.78158
1.7868
1.8014
1.82348
1.84937
1.87287
1.88139
1.87877
1.87431
1.87081
1.86885
1.8634
1.85438
1.84593
1.8397
1.83411
1.83014
1.82651
1.81957
1.80854
1.79877
1.78976
1.78033
1.77125
1.76258
1.75452
1.74812
1.74437
1.74346
1.74113
1.73786
1.7348
1.73081
1.72675
1.72312
1.71928
1.71388
1.70859
1.70354
1.69806
1.69216
1.68628
1.6798
1.67287
1.66737
1.6629
1.65597
1.64792
1.64095
1.63405
1.62635
1.61945
1.61325
1.60752
1.60445
1.60391
1.60189
1.59718
1.5926
1.58648
1.57715
1.56854
1.56386
1.56078
1.55849
1.55782
1.56012
1.56312
1.56307
1.56083
1.55737
1.55231
1.54412
1.53285
1.52329
1.51673
1.51195
1.51019
1.51038
1.50895
1.50458
1.49991
1.49271
1.48304
1.47725
1.4744
1.4717
1.46888
1.46661
1.46607
1.4669
1.46738
1.46597
1.45617
1.5305
1.51753
1.50708
1.50438
1.50494
1.50702
1.52019
1.5666
1.65652
1.75138
1.83127
1.86389
1.85468
1.8507
1.84678
1.84562
1.84824
1.84961
1.84645
1.83782
1.82877
1.8199
1.81284
1.80903
1.80772
1.8071
1.80726
1.80806
1.80748
1.80346
1.79701
1.78834
1.77988
1.77321
1.77433
1.78108
1.79659
1.81783
1.84122
1.86599
1.87309
1.87235
1.86912
1.86518
1.85847
1.84773
1.83629
1.82799
1.82312
1.82006
1.81996
1.82027
1.81896
1.81017
1.79874
1.78806
1.77695
1.7661
1.75666
1.7479
1.73997
1.73393
1.73171
1.73167
1.729
1.72517
1.72204
1.7178
1.71306
1.70834
1.70301
1.69731
1.69187
1.68709
1.68304
1.67905
1.67443
1.66868
1.66178
1.65424
1.64581
1.63715
1.62937
1.62239
1.61567
1.60986
1.60449
1.60006
1.59746
1.59586
1.5931
1.58723
1.58201
1.57719
1.57117
1.56271
1.55422
1.54956
1.54694
1.54499
1.5444
1.5458
1.54741
1.54663
1.54457
1.54203
1.5382
1.53195
1.52381
1.51594
1.50943
1.50458
1.50285
1.5021
1.49877
1.49401
1.48928
1.48192
1.47117
1.46441
1.46163
1.45933
1.45708
1.45579
1.45676
1.45911
1.45896
1.45525
1.44494
1.51496
1.50107
1.49771
1.49825
1.50347
1.5311
1.60349
1.703
1.79585
1.84236
1.83955
1.84511
1.84817
1.84601
1.84415
1.84174
1.83869
1.83485
1.82713
1.81799
1.80971
1.80188
1.79681
1.79452
1.79288
1.79209
1.79171
1.7904
1.7878
1.78394
1.77817
1.77076
1.76493
1.76662
1.77375
1.7907
1.81256
1.83271
1.84967
1.86197
1.8654
1.86433
1.86085
1.85306
1.83962
1.82278
1.81183
1.80738
1.80491
1.8055
1.80887
1.81083
1.80824
1.79922
1.78913
1.77708
1.7632
1.75167
1.74242
1.73382
1.72633
1.72261
1.72261
1.72139
1.71598
1.71077
1.70597
1.70095
1.69622
1.69142
1.68644
1.68159
1.6765
1.67201
1.66867
1.66564
1.66177
1.65623
1.64926
1.64062
1.63049
1.6205
1.61229
1.60568
1.60002
1.59517
1.59103
1.58853
1.58777
1.58643
1.58015
1.573
1.56731
1.56206
1.55655
1.5503
1.54339
1.5383
1.53579
1.53402
1.5329
1.53279
1.5317
1.52965
1.52737
1.52514
1.52235
1.51825
1.51347
1.50833
1.50293
1.49925
1.49702
1.49308
1.48759
1.4828
1.47776
1.47085
1.4614
1.454
1.45084
1.44889
1.44734
1.44718
1.44926
1.45005
1.44665
1.44102
1.43111
1.49732
1.49301
1.49447
1.50809
1.55513
1.64943
1.7557
1.81621
1.8315
1.8414
1.84248
1.84033
1.83665
1.83182
1.82707
1.8232
1.82026
1.81718
1.81044
1.8019
1.79456
1.78771
1.78329
1.78035
1.77745
1.77552
1.77433
1.77146
1.7685
1.76524
1.76154
1.75856
1.76066
1.76891
1.78624
1.80968
1.8239
1.83614
1.8504
1.85618
1.85524
1.85115
1.84399
1.83332
1.81816
1.8037
1.79644
1.79253
1.79127
1.79361
1.79808
1.79857
1.79388
1.78612
1.77627
1.76239
1.74847
1.73832
1.72986
1.722
1.71674
1.71566
1.71458
1.70829
1.70059
1.69325
1.68645
1.68178
1.6777
1.67377
1.6703
1.6681
1.66415
1.65892
1.65445
1.65054
1.64625
1.64111
1.63515
1.62813
1.6193
1.60875
1.5993
1.59257
1.58735
1.58309
1.57985
1.57749
1.57506
1.57245
1.56739
1.56031
1.55391
1.5484
1.54348
1.53904
1.53412
1.52949
1.5272
1.52541
1.52272
1.51923
1.51634
1.51436
1.51224
1.50965
1.50696
1.50421
1.50192
1.49938
1.49704
1.4941
1.48827
1.48191
1.47611
1.47047
1.46468
1.45826
1.45115
1.44496
1.44166
1.43992
1.43909
1.43989
1.44073
1.43864
1.43382
1.42855
1.41889
1.48997
1.49583
1.52532
1.60213
1.70288
1.78425
1.8174
1.83832
1.83964
1.83645
1.82762
1.81643
1.81103
1.80956
1.80799
1.80793
1.80771
1.80521
1.79727
1.78838
1.78064
1.77416
1.77026
1.76674
1.76304
1.75978
1.75773
1.75465
1.75145
1.74973
1.7513
1.75545
1.767
1.78669
1.80952
1.82175
1.82867
1.8386
1.84515
1.84442
1.83937
1.83255
1.82327
1.81102
1.79845
1.78966
1.78477
1.78121
1.78127
1.78423
1.78561
1.78288
1.77693
1.76892
1.75743
1.74453
1.73411
1.7261
1.71904
1.71369
1.71194
1.71038
1.70363
1.69267
1.68244
1.67332
1.66712
1.66315
1.65956
1.65663
1.65612
1.65564
1.65167
1.64599
1.63976
1.63396
1.6292
1.62453
1.62007
1.61521
1.60903
1.60122
1.59143
1.58249
1.57683
1.57253
1.5685
1.5641
1.55947
1.55713
1.55559
1.55059
1.54308
1.53677
1.53208
1.52805
1.52401
1.52088
1.5187
1.5164
1.5131
1.5084
1.50375
1.50083
1.49858
1.49614
1.49349
1.49069
1.48919
1.48963
1.48999
1.48579
1.47832
1.47153
1.46471
1.45762
1.45165
1.44665
1.44156
1.43703
1.43466
1.43324
1.43277
1.43244
1.43007
1.42669
1.42251
1.41757
1.408
1.50443
1.56342
1.66317
1.74866
1.79924
1.8329
1.83779
1.83633
1.82811
1.81398
1.80046
1.79443
1.79302
1.79353
1.79788
1.80007
1.79762
1.79075
1.78292
1.77477
1.76711
1.76176
1.75801
1.75423
1.75009
1.74573
1.74191
1.73977
1.7393
1.7421
1.74894
1.76343
1.78614
1.80736
1.82114
1.82509
1.82949
1.83351
1.83408
1.83075
1.82347
1.81232
1.79946
1.78775
1.78013
1.77624
1.77263
1.77213
1.77361
1.77381
1.76924
1.76317
1.75645
1.74699
1.7355
1.72614
1.71922
1.7129
1.70868
1.70797
1.70711
1.70096
1.68898
1.67633
1.66391
1.65478
1.64971
1.64613
1.64366
1.64364
1.64449
1.64261
1.63744
1.63138
1.62397
1.61767
1.61287
1.60871
1.60565
1.60389
1.59976
1.5939
1.58687
1.57658
1.56661
1.56019
1.55549
1.55119
1.54675
1.5436
1.54263
1.54109
1.53501
1.527
1.52109
1.51678
1.51374
1.51144
1.50935
1.50713
1.50421
1.49975
1.49354
1.48907
1.48666
1.48432
1.48166
1.47904
1.47787
1.47839
1.47859
1.47479
1.4684
1.46225
1.45533
1.44733
1.44068
1.43668
1.43293
1.42942
1.42785
1.4274
1.42579
1.4231
1.41999
1.4168
1.41292
1.40819
1.39926
1.60966
1.71174
1.78314
1.8214
1.83631
1.83393
1.82802
1.81677
1.80154
1.78961
1.78499
1.78359
1.78356
1.78364
1.78417
1.78435
1.78107
1.77569
1.76977
1.76367
1.75635
1.74981
1.74506
1.74088
1.73692
1.73314
1.73067
1.73182
1.73508
1.74255
1.7577
1.77931
1.80246
1.81087
1.81483
1.81964
1.82549
1.828
1.82466
1.81619
1.80394
1.78888
1.7745
1.7672
1.76322
1.76061
1.76127
1.76416
1.76461
1.75894
1.75058
1.74212
1.73262
1.72243
1.71466
1.70884
1.7034
1.70068
1.70084
1.70138
1.69777
1.68723
1.67484
1.66099
1.64845
1.64045
1.63527
1.63217
1.63163
1.63281
1.63184
1.62795
1.62266
1.6154
1.60836
1.60326
1.59881
1.59525
1.59419
1.59408
1.59131
1.58621
1.58093
1.57298
1.56145
1.5512
1.54456
1.53991
1.53578
1.53295
1.53209
1.53079
1.52575
1.51742
1.50998
1.50566
1.50353
1.50223
1.50062
1.49882
1.49647
1.49229
1.485
1.4781
1.475
1.4727
1.4703
1.46775
1.46519
1.46424
1.46447
1.46387
1.45974
1.45397
1.44745
1.43886
1.43177
1.42774
1.42403
1.42065
1.41891
1.4178
1.41556
1.41269
1.40974
1.40702
1.40383
1.40017
1.39226
1.7525
1.80921
1.82592
1.82731
1.82369
1.81678
1.80606
1.79599
1.78639
1.77741
1.77333
1.77088
1.76905
1.76793
1.76755
1.76793
1.76698
1.7638
1.75944
1.75174
1.74206
1.73524
1.73117
1.72779
1.72583
1.72674
1.72863
1.73267
1.74061
1.75434
1.77529
1.79322
1.79648
1.79948
1.80507
1.81528
1.82008
1.81766
1.80957
1.79732
1.78139
1.7653
1.75533
1.75013
1.74661
1.74669
1.75083
1.75366
1.74984
1.74152
1.73184
1.71961
1.70815
1.70134
1.69692
1.69277
1.69082
1.69122
1.69279
1.69105
1.68259
1.67212
1.6599
1.64685
1.63683
1.62979
1.62478
1.62264
1.62295
1.62103
1.61707
1.61219
1.60589
1.59933
1.59485
1.59089
1.5871
1.58517
1.58529
1.5842
1.57979
1.57584
1.57123
1.56493
1.55703
1.54807
1.53936
1.53253
1.52788
1.52557
1.52373
1.51919
1.51056
1.50238
1.49734
1.49395
1.49183
1.49221
1.49307
1.49236
1.49105
1.48764
1.47866
1.46767
1.46272
1.46024
1.45785
1.45533
1.45284
1.45178
1.45271
1.45342
1.45186
1.44673
1.44087
1.43354
1.42409
1.41795
1.41415
1.41058
1.40755
1.40582
1.40516
1.40318
1.40081
1.39865
1.39606
1.39328
1.3859
1.81961
1.81512
1.81144
1.81308
1.81334
1.8076
1.79475
1.78211
1.77055
1.76071
1.75609
1.75334
1.75248
1.754
1.75768
1.75884
1.7564
1.75149
1.74409
1.73461
1.72666
1.72238
1.7192
1.71907
1.7221
1.72821
1.73611
1.74677
1.75947
1.77785
1.78743
1.78847
1.78789
1.79058
1.79762
1.80475
1.80534
1.80023
1.79106
1.77771
1.76056
1.74697
1.74016
1.73519
1.73283
1.73476
1.73932
1.73844
1.73144
1.72312
1.71198
1.69784
1.68839
1.68429
1.68108
1.67921
1.67993
1.68256
1.68248
1.67606
1.6667
1.65623
1.64436
1.63488
1.62774
1.62158
1.61828
1.61697
1.61302
1.60758
1.6017
1.59522
1.58953
1.58607
1.58301
1.57984
1.57806
1.57796
1.57688
1.57195
1.56664
1.56128
1.55634
1.55161
1.54753
1.54317
1.53736
1.53032
1.52433
1.5184
1.51117
1.50305
1.49451
1.48654
1.48115
1.4796
1.47986
1.48188
1.48603
1.48691
1.48589
1.4829
1.47323
1.45838
1.45147
1.44865
1.44599
1.44356
1.44152
1.44101
1.44301
1.44496
1.44433
1.43996
1.43431
1.42782
1.41841
1.40928
1.40408
1.40023
1.39702
1.39508
1.39506
1.39548
1.39416
1.39189
1.38959
1.38693
1.37864
1.80949
1.80888
1.80865
1.80852
1.80479
1.79363
1.77997
1.76552
1.75358
1.74743
1.74373
1.74231
1.74421
1.74999
1.75085
1.74828
1.74323
1.7356
1.72563
1.71866
1.71458
1.7117
1.71211
1.71679
1.72579
1.73864
1.75427
1.7699
1.78174
1.79084
1.7871
1.78024
1.77848
1.78024
1.78711
1.79043
1.78756
1.7796
1.7687
1.75529
1.74127
1.73207
1.72617
1.72146
1.72064
1.72298
1.72414
1.71917
1.71162
1.70344
1.69183
1.67979
1.67366
1.67033
1.66806
1.66813
1.67081
1.67208
1.6684
1.66045
1.65133
1.64053
1.63134
1.62485
1.61894
1.61503
1.61314
1.60889
1.60253
1.59573
1.58708
1.58004
1.57667
1.57432
1.57207
1.57118
1.57128
1.57008
1.56448
1.55797
1.55106
1.54466
1.5404
1.53776
1.53548
1.53484
1.53414
1.53045
1.52309
1.51274
1.50015
1.48837
1.47864
1.47172
1.46715
1.46565
1.46712
1.47331
1.47962
1.4795
1.47768
1.47416
1.46538
1.45019
1.43995
1.43638
1.43405
1.43217
1.43134
1.43209
1.43525
1.43742
1.43668
1.43273
1.42726
1.42082
1.41251
1.40357
1.39724
1.39318
1.38995
1.3881
1.38845
1.38893
1.387
1.38441
1.38144
1.3764
1.36848
1.81033
1.80813
1.8031
1.7951
1.78634
1.77638
1.76472
1.75295
1.74438
1.74027
1.73851
1.73966
1.74316
1.74272
1.73858
1.73321
1.7265
1.71787
1.7113
1.70727
1.7048
1.70578
1.7109
1.72086
1.73623
1.75513
1.7721
1.78269
1.79085
1.78497
1.77613
1.76954
1.76922
1.7741
1.77598
1.77141
1.7627
1.75392
1.74389
1.73311
1.72441
1.71871
1.71325
1.70934
1.70876
1.70955
1.70629
1.69876
1.69213
1.68419
1.67407
1.66641
1.66223
1.65927
1.65802
1.65947
1.66131
1.65932
1.65376
1.64652
1.6368
1.62695
1.62027
1.61492
1.61071
1.60876
1.60578
1.599
1.59204
1.58429
1.57536
1.56939
1.56624
1.56408
1.5632
1.56352
1.56291
1.55815
1.55145
1.54345
1.53525
1.52997
1.52693
1.52474
1.52448
1.52697
1.52891
1.52648
1.51956
1.50883
1.49217
1.47521
1.46466
1.45873
1.45512
1.45388
1.45643
1.46622
1.47046
1.46886
1.46562
1.46138
1.45412
1.44281
1.43196
1.42634
1.42425
1.4235
1.42365
1.42681
1.42978
1.42886
1.42587
1.42174
1.41676
1.41061
1.40396
1.39806
1.39317
1.38903
1.38603
1.38472
1.38484
1.38375
1.37987
1.37557
1.36961
1.36303
1.35748
1.7968
1.79247
1.78653
1.77849
1.76955
1.76187
1.75343
1.74468
1.7386
1.73408
1.73278
1.73376
1.73333
1.72837
1.72219
1.71498
1.70622
1.70083
1.69801
1.69678
1.69936
1.70617
1.71713
1.73397
1.75491
1.76797
1.78379
1.78314
1.77681
1.76883
1.76368
1.76406
1.76577
1.7644
1.75649
1.74648
1.737
1.72815
1.72059
1.71492
1.71092
1.70688
1.70245
1.69947
1.69874
1.69587
1.68814
1.68042
1.67296
1.66567
1.65911
1.65524
1.65248
1.65053
1.65065
1.65145
1.64939
1.64516
1.63955
1.63178
1.62309
1.61611
1.61074
1.60618
1.60314
1.60067
1.59513
1.58805
1.58069
1.57235
1.56514
1.56075
1.55768
1.55552
1.55508
1.55401
1.55048
1.54546
1.53824
1.52981
1.52283
1.51875
1.5158
1.51428
1.51597
1.52009
1.52057
1.5166
1.5105
1.50199
1.4878
1.46974
1.45646
1.44932
1.44544
1.44441
1.44734
1.45262
1.45341
1.45235
1.44974
1.44657
1.44205
1.43507
1.42776
1.42223
1.4186
1.41748
1.41824
1.41832
1.41783
1.41678
1.41449
1.41051
1.4052
1.3988
1.39324
1.39015
1.38754
1.38469
1.38304
1.38273
1.38116
1.37698
1.37185
1.36576
1.35817
1.35237
1.34813
1.78398
1.77959
1.7742
1.76681
1.75847
1.75093
1.74328
1.73733
1.73259
1.7284
1.72624
1.72382
1.71806
1.71125
1.70342
1.69363
1.68709
1.68399
1.68379
1.68812
1.69905
1.71395
1.73265
1.75296
1.76968
1.77692
1.77204
1.76781
1.76243
1.7582
1.75642
1.7569
1.7536
1.74429
1.73406
1.7241
1.71475
1.70723
1.70255
1.69914
1.69667
1.69463
1.69265
1.69166
1.68916
1.68078
1.67155
1.66326
1.65503
1.65007
1.64737
1.64489
1.6439
1.64492
1.64529
1.64181
1.63616
1.63006
1.6232
1.61588
1.61032
1.60555
1.60112
1.59865
1.59587
1.59001
1.58343
1.57638
1.56838
1.56032
1.55473
1.55134
1.55002
1.54862
1.54548
1.54194
1.53786
1.53241
1.52514
1.51738
1.51264
1.50933
1.50666
1.50618
1.50876
1.51103
1.50893
1.504
1.49853
1.49142
1.48171
1.46988
1.45761
1.44753
1.44163
1.4395
1.43992
1.44102
1.43975
1.43707
1.43414
1.4313
1.42879
1.42546
1.42237
1.42019
1.41746
1.41414
1.41091
1.4085
1.40729
1.4061
1.40353
1.39884
1.39354
1.38859
1.38379
1.38136
1.38138
1.3822
1.38212
1.37936
1.37528
1.37034
1.36384
1.35635
1.34934
1.34512
1.34157
1.77302
1.769
1.76226
1.75379
1.74483
1.73629
1.72991
1.72538
1.72256
1.72071
1.71688
1.71005
1.70202
1.69247
1.68175
1.6738
1.66999
1.67002
1.67507
1.68821
1.70871
1.73015
1.75003
1.76827
1.77009
1.76846
1.7633
1.75541
1.74918
1.74618
1.74647
1.74561
1.73675
1.726
1.71681
1.70669
1.6972
1.69203
1.68842
1.68525
1.68343
1.6833
1.68381
1.68344
1.67723
1.66696
1.65695
1.6472
1.64099
1.63806
1.63604
1.63554
1.63763
1.63953
1.63693
1.63087
1.62243
1.6126
1.60511
1.60065
1.59681
1.5934
1.59204
1.5913
1.58683
1.58002
1.57275
1.56368
1.55536
1.5492
1.54405
1.5417
1.5417
1.53971
1.53587
1.5317
1.52609
1.51887
1.51168
1.50728
1.50384
1.50075
1.49908
1.4995
1.4998
1.49758
1.49317
1.48842
1.48351
1.47758
1.47068
1.46443
1.45745
1.44946
1.44243
1.43797
1.43439
1.43144
1.42865
1.42497
1.42102
1.41767
1.41626
1.41658
1.41755
1.41754
1.41489
1.41187
1.4079
1.40199
1.39715
1.39371
1.39059
1.38763
1.38465
1.38079
1.37679
1.37553
1.37658
1.37787
1.37618
1.37271
1.36904
1.36305
1.35506
1.34829
1.34378
1.34122
1.33762
1.75829
1.75439
1.74697
1.73801
1.72826
1.72
1.71497
1.71238
1.71148
1.70852
1.70298
1.69576
1.68604
1.674
1.66371
1.65917
1.65935
1.66416
1.67801
1.70006
1.72743
1.74679
1.75782
1.76693
1.76532
1.75879
1.75004
1.74001
1.73605
1.73648
1.73626
1.72966
1.7185
1.70884
1.70083
1.69308
1.68537
1.6804
1.67721
1.6739
1.67153
1.67173
1.67221
1.67035
1.66242
1.65293
1.64369
1.63479
1.62994
1.62763
1.62644
1.62766
1.63066
1.62989
1.62514
1.61833
1.60807
1.59639
1.58969
1.58616
1.5832
1.58244
1.58299
1.58222
1.57671
1.56965
1.5607
1.55094
1.54385
1.53821
1.53391
1.53315
1.53299
1.53002
1.52632
1.52143
1.51336
1.50565
1.50166
1.49894
1.49631
1.49424
1.49425
1.494
1.49
1.48468
1.47986
1.4742
1.46801
1.4631
1.45869
1.45479
1.45219
1.44911
1.44375
1.43772
1.43043
1.42319
1.41797
1.4141
1.41058
1.40747
1.40622
1.40811
1.41178
1.41219
1.40949
1.40712
1.40481
1.3989
1.38851
1.38196
1.37987
1.37895
1.3776
1.37492
1.37202
1.3715
1.37222
1.3716
1.3677
1.36423
1.36038
1.35371
1.34611
1.34184
1.33933
1.33737
1.3344
1.73984
1.73523
1.72767
1.71945
1.71221
1.70558
1.70111
1.69904
1.69697
1.69337
1.68838
1.68089
1.66979
1.65761
1.65089
1.6514
1.65584
1.66989
1.69319
1.72182
1.74266
1.74963
1.75802
1.75767
1.75134
1.74327
1.73589
1.73063
1.7295
1.72768
1.71919
1.70968
1.70143
1.69372
1.68685
1.68117
1.67615
1.67171
1.66812
1.66468
1.66126
1.65954
1.65811
1.65442
1.64705
1.63904
1.63122
1.62434
1.62052
1.61856
1.6184
1.62009
1.62
1.61608
1.61086
1.60401
1.59447
1.58505
1.57853
1.57451
1.57265
1.57283
1.57295
1.57032
1.56474
1.55691
1.54805
1.54031
1.53429
1.52912
1.52597
1.52543
1.52398
1.51996
1.5162
1.51045
1.50176
1.49647
1.49417
1.49201
1.49009
1.48997
1.48974
1.48604
1.48082
1.47511
1.4684
1.46157
1.45586
1.45121
1.44732
1.44618
1.44688
1.4466
1.44257
1.43755
1.42987
1.41767
1.40862
1.40493
1.40238
1.39936
1.39741
1.39838
1.40403
1.40556
1.40305
1.40044
1.3986
1.39464
1.38447
1.37368
1.37177
1.37178
1.37129
1.36958
1.36887
1.36932
1.36959
1.36543
1.35919
1.35478
1.35007
1.34358
1.33833
1.33621
1.33439
1.33291
1.33166
1.71873
1.71381
1.70861
1.70405
1.69945
1.69431
1.69021
1.68728
1.68389
1.67973
1.67409
1.66579
1.65405
1.64433
1.64498
1.64946
1.66211
1.68864
1.71313
1.73458
1.74662
1.74905
1.74709
1.7419
1.73489
1.72908
1.72486
1.72156
1.71831
1.71115
1.7021
1.69444
1.68781
1.68155
1.67558
1.67042
1.66629
1.66287
1.65958
1.65577
1.65105
1.64594
1.64126
1.63614
1.63066
1.62438
1.61823
1.61327
1.61016
1.60953
1.61014
1.60843
1.60438
1.59959
1.59437
1.58832
1.5817
1.57613
1.57112
1.56643
1.56372
1.56286
1.56046
1.55626
1.55019
1.54296
1.53648
1.53097
1.52563
1.52113
1.5193
1.51781
1.51393
1.51005
1.50569
1.49941
1.49311
1.4893
1.48695
1.48533
1.48514
1.48502
1.48207
1.47774
1.47279
1.4657
1.45818
1.45248
1.44783
1.44306
1.44023
1.44016
1.44205
1.44122
1.43654
1.43244
1.42705
1.41626
1.40398
1.39829
1.3955
1.39251
1.38987
1.38937
1.39121
1.3955
1.39527
1.39246
1.39025
1.38749
1.38195
1.37282
1.36655
1.36564
1.3656
1.36481
1.3646
1.3654
1.36398
1.35727
1.35021
1.34518
1.34002
1.33452
1.33181
1.33037
1.32911
1.32872
1.3288
1.69389
1.69039
1.68708
1.68485
1.68557
1.68539
1.683
1.67905
1.67333
1.66701
1.66
1.65112
1.64063
1.64016
1.64523
1.65634
1.68057
1.70864
1.72239
1.73705
1.73931
1.73565
1.73161
1.72765
1.72239
1.71769
1.71397
1.70983
1.70409
1.69713
1.68963
1.68225
1.67579
1.66954
1.66355
1.65918
1.65582
1.65294
1.6501
1.6464
1.64069
1.63289
1.62483
1.61765
1.61161
1.6076
1.60445
1.60176
1.60097
1.60109
1.59927
1.59466
1.58918
1.58311
1.57733
1.57298
1.56927
1.56623
1.56512
1.56244
1.55761
1.5525
1.54727
1.54113
1.53499
1.53036
1.52583
1.52062
1.51582
1.51424
1.51318
1.50936
1.50503
1.50096
1.49531
1.48968
1.48658
1.48388
1.48145
1.48016
1.47931
1.4765
1.47316
1.46964
1.46418
1.45722
1.45067
1.4464
1.4425
1.43771
1.43481
1.43516
1.43581
1.43215
1.42714
1.42411
1.42078
1.41476
1.40531
1.39634
1.39086
1.38713
1.38393
1.38187
1.38113
1.38124
1.38097
1.37902
1.37756
1.37669
1.37499
1.37157
1.36612
1.36158
1.3603
1.36022
1.36006
1.35918
1.35637
1.34968
1.34211
1.33569
1.33096
1.32842
1.32712
1.32631
1.32559
1.32538
1.32518
1.64954
1.65652
1.65997
1.66163
1.66526
1.66812
1.6677
1.66485
1.6584
1.65108
1.64583
1.63903
1.63649
1.64145
1.65677
1.67395
1.70385
1.71776
1.72328
1.72711
1.72527
1.72088
1.71727
1.71431
1.71128
1.70866
1.70485
1.69917
1.6925
1.68485
1.67595
1.66825
1.66203
1.65595
1.65044
1.64685
1.64391
1.64102
1.63819
1.63479
1.62977
1.62214
1.61215
1.60271
1.59563
1.59146
1.59076
1.59132
1.59173
1.5894
1.58481
1.5801
1.57465
1.56842
1.56356
1.5598
1.55761
1.55788
1.55868
1.55646
1.55183
1.54505
1.53571
1.5275
1.52228
1.51867
1.51421
1.50965
1.50767
1.50762
1.50606
1.50102
1.49727
1.492
1.48561
1.48245
1.48067
1.47915
1.47731
1.47463
1.47134
1.46785
1.4647
1.46047
1.45452
1.44872
1.44484
1.44149
1.43783
1.43372
1.43115
1.42982
1.42609
1.41944
1.41515
1.41263
1.41062
1.40806
1.40391
1.39764
1.39022
1.38446
1.38039
1.37673
1.37367
1.37166
1.369
1.3663
1.36464
1.36454
1.36508
1.36549
1.36487
1.36229
1.35751
1.35305
1.351
1.34908
1.34597
1.34036
1.33312
1.32662
1.32276
1.32168
1.32158
1.32302
1.32444
1.32391
1.32126
1.57988
1.59553
1.6109
1.62403
1.63557
1.64243
1.64246
1.64028
1.6361
1.63095
1.63168
1.63417
1.63947
1.65603
1.67907
1.69531
1.7171
1.7203
1.71944
1.71723
1.71247
1.70621
1.7027
1.7006
1.69846
1.69619
1.69302
1.68786
1.68017
1.6713
1.66235
1.6541
1.64786
1.64295
1.63751
1.63293
1.62989
1.62695
1.62381
1.62046
1.61594
1.60981
1.6019
1.59301
1.58538
1.58057
1.57892
1.57863
1.5776
1.57482
1.57102
1.56659
1.5614
1.55601
1.55164
1.54919
1.549
1.55064
1.55026
1.54688
1.54257
1.53647
1.52734
1.51868
1.51343
1.50972
1.50567
1.50177
1.50146
1.50181
1.49823
1.49227
1.48672
1.48091
1.47713
1.47527
1.47405
1.4742
1.47234
1.46828
1.46419
1.46005
1.4548
1.44875
1.4439
1.44119
1.43886
1.43617
1.43336
1.43092
1.42796
1.4236
1.41662
1.40967
1.40499
1.40202
1.39973
1.39821
1.39648
1.3936
1.38915
1.38328
1.37752
1.37244