/*--------------------------------*- C++ -*----------------------------------*\
  =========                 |
  \\      /  F ield         | OpenFOAM: The Open Source CFD Toolbox
   \\    /   O peration     | Website:  https://openfoam.org
    \\  /    A nd           | Version:  7
     \\/     M anipulation  |
\*---------------------------------------------------------------------------*/
FoamFile
{
    version     2.0;
    format      ascii;
    class       volVectorField;
    location    "0.9";
    object      U;
}
// * * * * * * * * * * * * * * * * * * * * * * * * * * * * * * * * * * * * * //

dimensions      [0 1 -1 0 0 0 0];

internalField   nonuniform List<vector> 
4128
(
(2.90265 0.0509519 0)
(2.91565 0.0603091 0)
(2.92155 0.0626525 0)
(2.92247 0.0619958 0)
(2.92287 0.059107 0)
(2.91883 0.0516117 0)
(2.90977 0.0409147 0)
(2.90751 0.0355271 0)
(2.90984 0.0350172 0)
(2.9118 0.034589 0)
(2.91586 0.0351429 0)
(2.92342 0.0399363 0)
(2.93295 0.0482155 0)
(2.93771 0.052382 0)
(2.93814 0.0529024 0)
(2.93778 0.0526145 0)
(2.93374 0.04858 0)
(2.92537 0.0404129 0)
(2.92225 0.0348774 0)
(2.92472 0.0338899 0)
(2.9271 0.0336424 0)
(2.92964 0.0336014 0)
(2.93526 0.0351619 0)
(2.9433 0.0393269 0)
(2.94732 0.0416237 0)
(2.94748 0.0417184 0)
(2.94672 0.0409756 0)
(2.94436 0.0368132 0)
(2.94356 0.0314723 0)
(2.94619 0.0294913 0)
(2.94959 0.0282337 0)
(2.95751 0.0275655 0)
(2.96546 0.027993 0)
(2.9695 0.0281496 0)
(2.97533 0.0278265 0)
(2.97977 0.026822 0)
(2.98157 0.0237897 0)
(2.97821 0.0161825 0)
(2.96965 0.00379422 0)
(2.96477 -0.00552822 0)
(2.96681 -0.00739234 0)
(2.96936 -0.00794726 0)
(2.97229 -0.00862557 0)
(2.97858 -0.00772757 0)
(2.99003 -0.00155636 0)
(3.00651 0.0088272 0)
(3.01866 0.0143774 0)
(3.02233 0.0144587 0)
(3.02714 0.0117009 0)
(3.02645 0.00387569 0)
(3.02089 -0.00656988 0)
(3.02499 -0.0108501 0)
(3.03102 -0.0116448 0)
(3.03664 -0.0123691 0)
(3.04207 -0.0136448 0)
(3.04952 -0.0142127 0)
(3.0607 -0.0109453 0)
(3.06897 -0.00676756 0)
(3.07113 -0.00609583 0)
(3.07352 -0.00644761 0)
(3.07609 -0.00740482 0)
(3.07648 -0.0109384 0)
(3.0705 -0.0207028 0)
(3.05976 -0.0349035 0)
(3.05651 -0.0419079 0)
(3.059 -0.0420415 0)
(3.06122 -0.0408589 0)
(3.06339 -0.0394366 0)
(3.06862 -0.0372511 0)
(3.07837 -0.0316938 0)
(3.09623 -0.0213332 0)
(3.11665 -0.0117498 0)
(3.12491 -0.00946778 0)
(3.12628 -0.00952359 0)
(3.12838 -0.0108178 0)
(3.12954 -0.0134303 0)
(3.12545 -0.0193826 0)
(3.11502 -0.0297076 0)
(3.10803 -0.0369191 0)
(3.10818 -0.0385111 0)
(3.10893 -0.0398453 0)
(3.11041 -0.042542 0)
(3.112 -0.0460105 0)
(3.1137 -0.0511853 0)
(3.11518 -0.0607322 0)
(3.11863 -0.0743049 0)
(3.12487 -0.100905 0)
(3.13049 -0.142463 0)
(3.13094 -0.193503 0)
(3.12265 -0.255278 0)
(3.10862 -0.319233 0)
(3.09162 -0.382389 0)
(3.06913 -0.446903 0)
(3.04831 -0.508252 0)
(3.0338 -0.559982 0)
(3.02115 -0.6016 0)
(3.01696 -0.634856 0)
(3.01114 -0.672331 0)
(3.01642 -0.688171 0)
(3.02987 -0.679578 0)
(3.03855 -0.69199 0)
(3.0506 -0.685455 0)
(3.06398 -0.679084 0)
(3.07096 -0.674733 0)
(3.0733 -0.668387 0)
(3.07168 -0.665834 0)
(3.06909 -0.664338 0)
(3.06507 -0.664133 0)
(3.06104 -0.665437 0)
(3.05913 -0.667801 0)
(3.05842 -0.669086 0)
(3.05962 -0.674428 0)
(3.06347 -0.676453 0)
(3.06758 -0.675415 0)
(3.0726 -0.670522 0)
(3.08375 -0.662833 0)
(3.09476 -0.65116 0)
(3.10261 -0.640094 0)
(3.10866 -0.633386 0)
(3.11247 -0.630292 0)
(3.11052 -0.628305 0)
(3.09778 -0.631093 0)
(3.08375 -0.633387 0)
(3.08104 -0.633071 0)
(3.0848 -0.632951 0)
(3.08739 -0.633922 0)
(3.0945 -0.635742 0)
(3.10935 -0.638133 0)
(3.11784 -0.624318 0)
(2.91754 0.0611596 0)
(2.92483 0.065059 0)
(2.92592 0.06458 0)
(2.92644 0.0627108 0)
(2.92383 0.0567743 0)
(2.91511 0.0460072 0)
(2.90869 0.036746 0)
(2.9104 0.0348771 0)
(2.91241 0.0342775 0)
(2.91605 0.0340649 0)
(2.92385 0.0373761 0)
(2.93455 0.0453727 0)
(2.94137 0.0509602 0)
(2.94232 0.0518927 0)
(2.9418 0.0517493 0)
(2.93835 0.0489934 0)
(2.93058 0.0428832 0)
(2.92509 0.0372975 0)
(2.92675 0.0361888 0)
(2.92908 0.036039 0)
(2.93138 0.0359767 0)
(2.93646 0.0373583 0)
(2.94533 0.0421218 0)
(2.95138 0.0455614 0)
(2.95236 0.0457519 0)
(2.95184 0.0445644 0)
(2.94849 0.0397866 0)
(2.94459 0.0333705 0)
(2.94519 0.0299854 0)
(2.94725 0.02842 0)
(2.95214 0.027107 0)
(2.96171 0.0268547 0)
(2.96816 0.0270399 0)
(2.97209 0.02697 0)
(2.97726 0.0264301 0)
(2.98042 0.0245791 0)
(2.97867 0.018761 0)
(2.97084 0.00817525 0)
(2.96566 -0.000306798 0)
(2.96771 -0.00172573 0)
(2.97033 -0.00175979 0)
(2.97328 -0.0020077 0)
(2.97889 -0.00115447 0)
(2.98925 0.00414934 0)
(3.00467 0.0132918 0)
(3.01718 0.0186329 0)
(3.02099 0.0185149 0)
(3.02588 0.0157622 0)
(3.02697 0.0085905 0)
(3.02081 -0.00247932 0)
(3.01962 -0.010943 0)
(3.02642 -0.0123225 0)
(3.0321 -0.0128433 0)
(3.03787 -0.013791 0)
(3.04449 -0.0147353 0)
(3.05693 -0.0127226 0)
(3.06815 -0.007704 0)
(3.07214 -0.00613408 0)
(3.07395 -0.00609797 0)
(3.07666 -0.00650179 0)
(3.07763 -0.00893103 0)
(3.07262 -0.0173765 0)
(3.06154 -0.031389 0)
(3.05737 -0.0400676 0)
(3.06012 -0.0407074 0)
(3.06263 -0.0401147 0)
(3.06541 -0.0385903 0)
(3.06954 -0.0368819 0)
(3.07824 -0.0330955 0)
(3.0933 -0.0243405 0)
(3.11347 -0.0157145 0)
(3.12532 -0.0122634 0)
(3.12779 -0.0120172 0)
(3.12872 -0.0123074 0)
(3.12999 -0.0142365 0)
(3.12881 -0.0180884 0)
(3.12108 -0.025263 0)
(3.11131 -0.0400028 0)
(3.10813 -0.0471043 0)
(3.10664 -0.0544621 0)
(3.10432 -0.0706541 0)
(3.10037 -0.0983936 0)
(3.09359 -0.140739 0)
(3.0859 -0.194957 0)
(3.07655 -0.264571 0)
(3.07388 -0.331555 0)
(3.07587 -0.394308 0)
(3.07514 -0.456579 0)
(3.07342 -0.508394 0)
(3.06974 -0.545915 0)
(3.06155 -0.588601 0)
(3.05159 -0.621474 0)
(3.03285 -0.650619 0)
(3.01981 -0.671916 0)
(3.01983 -0.675343 0)
(3.01091 -0.689721 0)
(3.00638 -0.714347 0)
(3.00898 -0.71344 0)
(3.01571 -0.714318 0)
(3.02578 -0.716523 0)
(3.03942 -0.706234 0)
(3.05443 -0.691845 0)
(3.06772 -0.675614 0)
(3.07492 -0.666854 0)
(3.07639 -0.664053 0)
(3.07692 -0.659684 0)
(3.07444 -0.655727 0)
(3.07002 -0.653792 0)
(3.06469 -0.655118 0)
(3.06011 -0.658864 0)
(3.05933 -0.661273 0)
(3.06231 -0.66136 0)
(3.06451 -0.660866 0)
(3.07158 -0.656012 0)
(3.08405 -0.650142 0)
(3.09567 -0.637954 0)
(3.10779 -0.628666 0)
(3.11407 -0.625846 0)
(3.12132 -0.621323 0)
(3.12226 -0.619852 0)
(3.11277 -0.621747 0)
(3.09313 -0.625658 0)
(3.07954 -0.62565 0)
(3.07767 -0.621311 0)
(3.07963 -0.618416 0)
(3.08574 -0.617377 0)
(3.0989 -0.613801 0)
(3.11703 -0.609412 0)
(3.12489 -0.607138 0)
(2.92757 0.0669676 0)
(2.92929 0.0668561 0)
(2.93023 0.0652222 0)
(2.92868 0.0606865 0)
(2.92132 0.0514476 0)
(2.9122 0.0400744 0)
(2.9115 0.0359343 0)
(2.91327 0.0352519 0)
(2.91609 0.0344904 0)
(2.92314 0.0362739 0)
(2.93432 0.0431807 0)
(2.94365 0.0496736 0)
(2.94587 0.0512423 0)
(2.94565 0.0511813 0)
(2.94294 0.0491437 0)
(2.93573 0.0438074 0)
(2.92859 0.0381891 0)
(2.92883 0.0374457 0)
(2.93108 0.0377625 0)
(2.93317 0.0380084 0)
(2.93788 0.0395795 0)
(2.94706 0.0445101 0)
(2.95433 0.0484246 0)
(2.95593 0.0485261 0)
(2.95652 0.0466688 0)
(2.95285 0.041169 0)
(2.94705 0.0342403 0)
(2.94574 0.0302019 0)
(2.94658 0.0284369 0)
(2.94914 0.0266348 0)
(2.95571 0.025652 0)
(2.96555 0.0262147 0)
(2.97039 0.0265269 0)
(2.9741 0.0262342 0)
(2.97801 0.0249093 0)
(2.97791 0.0211884 0)
(2.97169 0.012901 0)
(2.96658 0.00545874 0)
(2.96863 0.00435853 0)
(2.97141 0.00466314 0)
(2.9746 0.0048674 0)
(2.97959 0.00564826 0)
(2.98909 0.0096431 0)
(3.00321 0.0173636 0)
(3.01532 0.0215706 0)
(3.01926 0.0212934 0)
(3.02403 0.0187078 0)
(3.02631 0.0124029 0)
(3.02166 0.00205028 0)
(3.01607 -0.00942262 0)
(3.02119 -0.0127819 0)
(3.0275 -0.0131155 0)
(3.03343 -0.0135041 0)
(3.0394 -0.0141335 0)
(3.05159 -0.0131202 0)
(3.066 -0.00801466 0)
(3.07307 -0.00514012 0)
(3.07462 -0.00498997 0)
(3.0771 -0.00515167 0)
(3.07872 -0.00634777 0)
(3.07508 -0.0132221 0)
(3.06317 -0.0269819 0)
(3.05696 -0.037387 0)
(3.06006 -0.0387652 0)
(3.06332 -0.0385021 0)
(3.0666 -0.0379881 0)
(3.07006 -0.0368556 0)
(3.07651 -0.0349437 0)
(3.08913 -0.0306503 0)
(3.10845 -0.0192934 0)
(3.12453 -0.013156 0)
(3.12933 -0.0129932 0)
(3.1304 -0.014576 0)
(3.13048 -0.0180439 0)
(3.12907 -0.0212227 0)
(3.12066 -0.0354108 0)
(3.10832 -0.0683015 0)
(3.10068 -0.0979386 0)
(3.08777 -0.142059 0)
(3.07234 -0.205604 0)
(3.05648 -0.285541 0)
(3.0398 -0.375959 0)
(3.03021 -0.453698 0)
(3.0262 -0.521759 0)
(3.02624 -0.568268 0)
(3.03144 -0.595997 0)
(3.028 -0.633479 0)
(3.03342 -0.64326 0)
(3.04416 -0.647069 0)
(3.0333 -0.673084 0)
(3.03818 -0.68631 0)
(3.0319 -0.697649 0)
(3.02801 -0.702784 0)
(3.02107 -0.710932 0)
(3.01528 -0.717661 0)
(3.0157 -0.716556 0)
(3.01763 -0.717736 0)
(3.0194 -0.720444 0)
(3.02539 -0.714464 0)
(3.037 -0.700248 0)
(3.05267 -0.687295 0)
(3.06541 -0.67624 0)
(3.07231 -0.669695 0)
(3.0758 -0.665149 0)
(3.07791 -0.66046 0)
(3.07889 -0.657226 0)
(3.07891 -0.653378 0)
(3.07488 -0.648578 0)
(3.06551 -0.647983 0)
(3.05905 -0.648251 0)
(3.05881 -0.647414 0)
(3.06023 -0.645555 0)
(3.06835 -0.640042 0)
(3.08494 -0.633506 0)
(3.10015 -0.6219 0)
(3.11128 -0.614618 0)
(3.11878 -0.613569 0)
(3.12434 -0.614784 0)
(3.12682 -0.617411 0)
(3.12259 -0.61739 0)
(3.11024 -0.613876 0)
(3.09423 -0.60723 0)
(3.08595 -0.601341 0)
(3.08548 -0.597733 0)
(3.08822 -0.593425 0)
(3.09416 -0.592757 0)
(3.10549 -0.595044 0)
(3.12012 -0.596196 0)
(3.12865 -0.596514 0)
(2.93112 0.0693351 0)
(2.93391 0.0678116 0)
(2.93316 0.0636622 0)
(2.92686 0.0555268 0)
(2.91701 0.0437279 0)
(2.91395 0.0376411 0)
(2.91547 0.0368243 0)
(2.91728 0.0360383 0)
(2.92283 0.0365861 0)
(2.93313 0.0418025 0)
(2.94439 0.0486111 0)
(2.9486 0.0509106 0)
(2.9488 0.050961 0)
(2.94707 0.0495215 0)
(2.94098 0.0449103 0)
(2.93297 0.0392136 0)
(2.9313 0.0378146 0)
(2.93294 0.038285 0)
(2.93468 0.0391695 0)
(2.93922 0.0413688 0)
(2.94832 0.0467179 0)
(2.95638 0.0509554 0)
(2.9584 0.0510737 0)
(2.95993 0.0490669 0)
(2.95709 0.0431101 0)
(2.95047 0.0352144 0)
(2.94757 0.0303675 0)
(2.94773 0.0286607 0)
(2.94885 0.0271074 0)
(2.95243 0.0256448 0)
(2.96034 0.0260624 0)
(2.96964 0.0273036 0)
(2.97253 0.0274269 0)
(2.97593 0.0269175 0)
(2.97759 0.0247755 0)
(2.97303 0.0188278 0)
(2.96716 0.0119067 0)
(2.96931 0.0105216 0)
(2.97222 0.0107753 0)
(2.97566 0.0109807 0)
(2.97988 0.0114503 0)
(2.98864 0.0140919 0)
(3.00172 0.0204556 0)
(3.01348 0.0239854 0)
(3.01756 0.0233049 0)
(3.02215 0.0208772 0)
(3.02521 0.0155921 0)
(3.02219 0.00605756 0)
(3.01485 -0.00657212 0)
(3.0164 -0.0125633 0)
(3.02288 -0.0130308 0)
(3.02888 -0.0131559 0)
(3.03485 -0.0133843 0)
(3.04546 -0.0123381 0)
(3.06224 -0.00709788 0)
(3.07339 -0.00277952 0)
(3.07606 -0.00245753 0)
(3.07786 -0.00274942 0)
(3.07972 -0.00382127 0)
(3.07748 -0.00890834 0)
(3.06645 -0.0211124 0)
(3.05575 -0.0344649 0)
(3.05798 -0.0371889 0)
(3.0622 -0.0371127 0)
(3.06607 -0.0368502 0)
(3.07024 -0.0369752 0)
(3.07438 -0.036832 0)
(3.08437 -0.0346131 0)
(3.10104 -0.0268208 0)
(3.12053 -0.0172276 0)
(3.12981 -0.0170515 0)
(3.12963 -0.0271907 0)
(3.12748 -0.0418756 0)
(3.11686 -0.0739406 0)
(3.0991 -0.129944 0)
(3.08059 -0.204764 0)
(3.0591 -0.292077 0)
(3.03964 -0.375197 0)
(3.02115 -0.452384 0)
(3.00006 -0.534907 0)
(2.98547 -0.610429 0)
(2.9921 -0.638411 0)
(2.98814 -0.688891 0)
(3.00738 -0.671367 0)
(3.01104 -0.685357 0)
(3.01752 -0.685183 0)
(3.01948 -0.693606 0)
(3.01894 -0.700634 0)
(3.01829 -0.706997 0)
(3.02115 -0.706567 0)
(3.02358 -0.708054 0)
(3.02496 -0.710905 0)
(3.02629 -0.713616 0)
(3.02706 -0.718059 0)
(3.02634 -0.717285 0)
(3.02848 -0.711314 0)
(3.03188 -0.705075 0)
(3.03514 -0.699599 0)
(3.04111 -0.691412 0)
(3.05048 -0.682158 0)
(3.06299 -0.673405 0)
(3.07063 -0.668455 0)
(3.07435 -0.665625 0)
(3.0779 -0.663749 0)
(3.08059 -0.661619 0)
(3.08326 -0.656835 0)
(3.0819 -0.65387 0)
(3.07468 -0.650863 0)
(3.06484 -0.642421 0)
(3.06067 -0.63378 0)
(3.06384 -0.62952 0)
(3.07025 -0.625855 0)
(3.0832 -0.618964 0)
(3.10028 -0.609103 0)
(3.10899 -0.606422 0)
(3.11588 -0.607622 0)
(3.12266 -0.611056 0)
(3.12627 -0.614958 0)
(3.12528 -0.613556 0)
(3.12329 -0.607833 0)
(3.11679 -0.59841 0)
(3.10619 -0.589444 0)
(3.09972 -0.5848 0)
(3.09856 -0.583868 0)
(3.09836 -0.581361 0)
(3.1004 -0.581097 0)
(3.10582 -0.583763 0)
(3.11666 -0.588386 0)
(3.12172 -0.594144 0)
(2.93448 0.0709552 0)
(2.93606 0.0679091 0)
(2.93217 0.0603169 0)
(2.92207 0.0483458 0)
(2.91617 0.0394703 0)
(2.91812 0.0382259 0)
(2.91981 0.0379143 0)
(2.92387 0.0379379 0)
(2.93256 0.0413024 0)
(2.94426 0.0477728 0)
(2.95066 0.0507982 0)
(2.95142 0.0509263 0)
(2.95043 0.049915 0)
(2.94574 0.0460727 0)
(2.93792 0.040511 0)
(2.93454 0.0384371 0)
(2.93532 0.0388101 0)
(2.93635 0.039742 0)
(2.94034 0.0424564 0)
(2.94896 0.0483758 0)
(2.95763 0.0531443 0)
(2.96009 0.0533456 0)
(2.96211 0.0513942 0)
(2.96052 0.0458256 0)
(2.95382 0.0372291 0)
(2.94954 0.0306796 0)
(2.9496 0.0287622 0)
(2.95014 0.0278952 0)
(2.95224 0.0266457 0)
(2.95752 0.0269336 0)
(2.96694 0.0292331 0)
(2.97362 0.0304652 0)
(2.97526 0.0303929 0)
(2.97736 0.0294015 0)
(2.97563 0.0257404 0)
(2.96848 0.0187952 0)
(2.96888 0.0159098 0)
(2.97236 0.0159303 0)
(2.97582 0.0157949 0)
(2.97968 0.0157884 0)
(2.98711 0.0171121 0)
(2.9998 0.0222522 0)
(3.01159 0.0258976 0)
(3.01592 0.0253225 0)
(3.02055 0.0229245 0)
(3.02416 0.0181936 0)
(3.02247 0.00993188 0)
(3.01489 -0.00272946 0)
(3.01312 -0.011382 0)
(3.01887 -0.0123335 0)
(3.02461 -0.0123516 0)
(3.03065 -0.0123632 0)
(3.03945 -0.0113075 0)
(3.05693 -0.00591002 0)
(3.07237 0.000746594 0)
(3.07772 0.00178757 0)
(3.07938 0.00121248 0)
(3.08114 3.4851e-05 0)
(3.07985 -0.00471265 0)
(3.06959 -0.0150449 0)
(3.05639 -0.0305268 0)
(3.05493 -0.0363483 0)
(3.05891 -0.0368225 0)
(3.06372 -0.0373911 0)
(3.06809 -0.0389012 0)
(3.07193 -0.0391834 0)
(3.07938 -0.0398654 0)
(3.09288 -0.0362073 0)
(3.10977 -0.0407608 0)
(3.11714 -0.0675955 0)
(3.11165 -0.114164 0)
(3.09433 -0.183819 0)
(3.07419 -0.262313 0)
(3.04697 -0.360513 0)
(3.02213 -0.454025 0)
(3.00302 -0.534467 0)
(2.98544 -0.602984 0)
(2.98656 -0.636056 0)
(2.96356 -0.701749 0)
(2.96842 -0.710558 0)
(2.97037 -0.728426 0)
(2.97939 -0.742246 0)
(2.99444 -0.71654 0)
(3.0084 -0.704965 0)
(3.01539 -0.703075 0)
(3.0164 -0.705734 0)
(3.01398 -0.71784 0)
(3.00912 -0.723596 0)
(3.0096 -0.718546 0)
(3.01314 -0.714276 0)
(3.01838 -0.712398 0)
(3.02364 -0.709804 0)
(3.02887 -0.709902 0)
(3.03553 -0.710517 0)
(3.03891 -0.706277 0)
(3.04089 -0.696467 0)
(3.04508 -0.685331 0)
(3.0515 -0.677723 0)
(3.05843 -0.668258 0)
(3.06773 -0.65906 0)
(3.07439 -0.657286 0)
(3.07778 -0.657445 0)
(3.08148 -0.657374 0)
(3.08525 -0.656921 0)
(3.08654 -0.659268 0)
(3.08535 -0.660481 0)
(3.082 -0.655228 0)
(3.07415 -0.647693 0)
(3.07311 -0.63164 0)
(3.0764 -0.619957 0)
(3.08064 -0.614242 0)
(3.08659 -0.607397 0)
(3.09833 -0.60425 0)
(3.10375 -0.605434 0)
(3.11024 -0.609198 0)
(3.11696 -0.612823 0)
(3.1215 -0.613006 0)
(3.12484 -0.610308 0)
(3.12742 -0.602647 0)
(3.12848 -0.599034 0)
(3.12474 -0.590369 0)
(3.11865 -0.584327 0)
(3.11515 -0.581433 0)
(3.11226 -0.578376 0)
(3.11225 -0.576558 0)
(3.11302 -0.576798 0)
(3.11421 -0.577833 0)
(3.11551 -0.580186 0)
(3.11665 -0.584446 0)
(2.93546 0.0694788 0)
(2.93516 0.066499 0)
(2.92869 0.0568432 0)
(2.91895 0.0443922 0)
(2.91885 0.0401934 0)
(2.92147 0.0400052 0)
(2.92493 0.0400348 0)
(2.93312 0.0421422 0)
(2.94426 0.0474915 0)
(2.95218 0.0510333 0)
(2.9539 0.051237 0)
(2.95328 0.0503948 0)
(2.94968 0.0471727 0)
(2.94271 0.0419816 0)
(2.93829 0.0391911 0)
(2.9383 0.0394818 0)
(2.9389 0.0403059 0)
(2.94172 0.0429662 0)
(2.94927 0.0489187 0)
(2.95832 0.0544031 0)
(2.9613 0.0549959 0)
(2.9633 0.0535002 0)
(2.96295 0.0485507 0)
(2.95678 0.0398697 0)
(2.95085 0.031511 0)
(2.95094 0.0289436 0)
(2.95172 0.0282462 0)
(2.95319 0.0275229 0)
(2.95732 0.0282007 0)
(2.9658 0.0316823 0)
(2.9744 0.0346516 0)
(2.97747 0.0348783 0)
(2.97821 0.034495 0)
(2.97795 0.0325028 0)
(2.97214 0.0262146 0)
(2.96733 0.0199168 0)
(2.97103 0.0189755 0)
(2.97462 0.0187667 0)
(2.97855 0.0184227 0)
(2.98464 0.01895 0)
(2.99699 0.0230243 0)
(3.00956 0.0273287 0)
(3.0144 0.027321 0)
(3.019 0.0252963 0)
(3.02318 0.0212443 0)
(3.02268 0.0136908 0)
(3.01547 0.00156595 0)
(3.011 -0.00906364 0)
(3.01578 -0.0109863 0)
(3.02111 -0.0109254 0)
(3.02695 -0.010827 0)
(3.03422 -0.00983418 0)
(3.05098 -0.00455675 0)
(3.06946 0.00420762 0)
(3.0785 0.00691196 0)
(3.08078 0.00650069 0)
(3.08302 0.00428736 0)
(3.08228 0.000862722 0)
(3.07303 -0.0105042 0)
(3.05767 -0.0259455 0)
(3.05152 -0.0381612 0)
(3.05596 -0.0403987 0)
(3.0587 -0.0428775 0)
(3.06242 -0.0476668 0)
(3.06448 -0.0591252 0)
(3.06704 -0.0773613 0)
(3.07043 -0.114433 0)
(3.07413 -0.174941 0)
(3.06903 -0.257429 0)
(3.05643 -0.347166 0)
(3.03611 -0.429706 0)
(3.01682 -0.501331 0)
(2.98662 -0.588773 0)
(2.98205 -0.629608 0)
(2.96069 -0.685793 0)
(2.96527 -0.696576 0)
(2.95121 -0.737309 0)
(2.95333 -0.747444 0)
(2.95961 -0.747545 0)
(2.96921 -0.757442 0)
(2.98166 -0.741218 0)
(2.99587 -0.724899 0)
(3.00839 -0.715439 0)
(3.01064 -0.711821 0)
(3.01275 -0.714466 0)
(3.01259 -0.722155 0)
(3.00871 -0.729802 0)
(3.00413 -0.729549 0)
(3.00347 -0.722431 0)
(3.00893 -0.713892 0)
(3.01773 -0.708707 0)
(3.0241 -0.703378 0)
(3.03336 -0.701469 0)
(3.04175 -0.699442 0)
(3.04889 -0.690629 0)
(3.05591 -0.684927 0)
(3.06353 -0.674358 0)
(3.06968 -0.655593 0)
(3.07553 -0.648145 0)
(3.07967 -0.649114 0)
(3.08327 -0.649654 0)
(3.08725 -0.649966 0)
(3.08962 -0.653594 0)
(3.08885 -0.660072 0)
(3.08702 -0.661956 0)
(3.08587 -0.66087 0)
(3.08343 -0.654859 0)
(3.08483 -0.645496 0)
(3.08926 -0.637415 0)
(3.09388 -0.62071 0)
(3.0995 -0.607669 0)
(3.10479 -0.602938 0)
(3.10694 -0.60343 0)
(3.11008 -0.607912 0)
(3.11198 -0.611753 0)
(3.11612 -0.61236 0)
(3.1209 -0.610357 0)
(3.12466 -0.604947 0)
(3.1288 -0.600778 0)
(3.13429 -0.590172 0)
(3.13343 -0.577855 0)
(3.12841 -0.575861 0)
(3.12572 -0.57618 0)
(3.12186 -0.576198 0)
(3.12094 -0.573566 0)
(3.12084 -0.57392 0)
(3.12015 -0.573622 0)
(3.11955 -0.574419 0)
(3.1176 -0.572409 0)
(2.93645 0.0645478 0)
(2.93342 0.0632035 0)
(2.92509 0.0547822 0)
(2.91924 0.046054 0)
(2.92181 0.0441695 0)
(2.92453 0.0433692 0)
(2.93199 0.0446251 0)
(2.94392 0.0496404 0)
(2.95331 0.0528196 0)
(2.95604 0.0525634 0)
(2.95583 0.0518587 0)
(2.95312 0.049108 0)
(2.94688 0.0436614 0)
(2.94184 0.0398176 0)
(2.94164 0.0400293 0)
(2.94206 0.0408214 0)
(2.944 0.0430618 0)
(2.94988 0.0483961 0)
(2.95877 0.0542018 0)
(2.96249 0.0553824 0)
(2.96395 0.0545326 0)
(2.96444 0.0509516 0)
(2.9596 0.0431457 0)
(2.95233 0.0333705 0)
(2.95143 0.0293062 0)
(2.95278 0.0285666 0)
(2.95401 0.0280149 0)
(2.95771 0.0286541 0)
(2.96586 0.0332032 0)
(2.97596 0.0387969 0)
(2.98038 0.0399552 0)
(2.98116 0.0395256 0)
(2.98083 0.0381901 0)
(2.97684 0.0328002 0)
(2.96835 0.0239843 0)
(2.96843 0.0201852 0)
(2.97239 0.0198862 0)
(2.97626 0.0195432 0)
(2.98135 0.0196124 0)
(2.99329 0.0230253 0)
(3.00698 0.0283665 0)
(3.01305 0.0291658 0)
(3.01727 0.0277948 0)
(3.02202 0.0244519 0)
(3.0227 0.0178384 0)
(3.01647 0.00646866 0)
(3.00998 -0.00568673 0)
(3.01318 -0.00893913 0)
(3.0183 -0.00888558 0)
(3.02379 -0.00869474 0)
(3.03024 -0.00763491 0)
(3.04526 -0.00285763 0)
(3.06511 0.00708502 0)
(3.0776 0.0126252 0)
(3.081 0.0114058 0)
(3.08418 0.0102412 0)
(3.08399 0.00440872 0)
(3.07633 -0.00562744 0)
(3.05928 -0.0254385 0)
(3.04969 -0.0476978 0)
(3.04794 -0.0564829 0)
(3.04594 -0.0769502 0)
(3.03993 -0.11924 0)
(3.03271 -0.179423 0)
(3.02333 -0.255632 0)
(3.0185 -0.341208 0)
(3.01019 -0.423178 0)
(3.00727 -0.503505 0)
(2.99065 -0.578074 0)
(2.99281 -0.601978 0)
(2.97732 -0.647479 0)
(2.9517 -0.702794 0)
(2.95594 -0.715159 0)
(2.94666 -0.729525 0)
(2.94779 -0.745211 0)
(2.94362 -0.756423 0)
(2.9453 -0.765613 0)
(2.95256 -0.766479 0)
(2.96683 -0.747779 0)
(2.9858 -0.725606 0)
(3.00174 -0.715409 0)
(3.00771 -0.712588 0)
(3.01108 -0.714764 0)
(3.0133 -0.719195 0)
(3.01267 -0.723232 0)
(3.01107 -0.727726 0)
(3.00969 -0.727232 0)
(3.00782 -0.723859 0)
(3.00693 -0.717071 0)
(3.01166 -0.708527 0)
(3.01706 -0.704464 0)
(3.02541 -0.699483 0)
(3.03616 -0.693702 0)
(3.04912 -0.691311 0)
(3.06374 -0.686278 0)
(3.07363 -0.669443 0)
(3.07985 -0.65475 0)
(3.08343 -0.648256 0)
(3.08772 -0.64647 0)
(3.09061 -0.647477 0)
(3.0905 -0.65373 0)
(3.08804 -0.659222 0)
(3.08602 -0.664815 0)
(3.08577 -0.668529 0)
(3.0857 -0.668881 0)
(3.08598 -0.666422 0)
(3.08816 -0.662758 0)
(3.09367 -0.649902 0)
(3.10311 -0.625835 0)
(3.11239 -0.606498 0)
(3.11519 -0.603144 0)
(3.11631 -0.605714 0)
(3.11629 -0.611413 0)
(3.11674 -0.614227 0)
(3.11689 -0.614198 0)
(3.11885 -0.61321 0)
(3.12049 -0.612257 0)
(3.1212 -0.604327 0)
(3.12656 -0.589578 0)
(3.13673 -0.578185 0)
(3.13998 -0.569244 0)
(3.13691 -0.568469 0)
(3.13319 -0.569325 0)
(3.12656 -0.569822 0)
(3.12488 -0.565777 0)
(3.12479 -0.559912 0)
(3.12307 -0.556969 0)
(3.12347 -0.552803 0)
(3.11752 -0.548491 0)
(2.93795 0.0569188 0)
(2.93204 0.0576573 0)
(2.92448 0.0540228 0)
(2.92243 0.0501208 0)
(2.92409 0.0492305 0)
(2.92943 0.0491913 0)
(2.94129 0.0529516 0)
(2.95252 0.057709 0)
(2.95725 0.0576133 0)
(2.9578 0.0559839 0)
(2.95602 0.0530896 0)
(2.95042 0.0473518 0)
(2.94442 0.0412066 0)
(2.94436 0.0406074 0)
(2.94513 0.0414406 0)
(2.94688 0.0432046 0)
(2.95146 0.047381 0)
(2.95936 0.0528825 0)
(2.96397 0.0545379 0)
(2.96484 0.054106 0)
(2.96534 0.0519084 0)
(2.96196 0.0458153 0)
(2.95449 0.036408 0)
(2.95169 0.0304289 0)
(2.9533 0.0292813 0)
(2.95462 0.0286494 0)
(2.95778 0.0288677 0)
(2.96562 0.033351 0)
(2.9772 0.0413849 0)
(2.98359 0.0447538 0)
(2.98464 0.0443723 0)
(2.98451 0.04337 0)
(2.98186 0.0390421 0)
(2.97317 0.0296398 0)
(2.96715 0.0216001 0)
(2.97008 0.0200503 0)
(2.97352 0.0197217 0)
(2.97783 0.0196339 0)
(2.98868 0.0223926 0)
(3.00358 0.028771 0)
(3.0118 0.0310479 0)
(3.01543 0.0302802 0)
(3.02042 0.027666 0)
(3.02231 0.0221607 0)
(3.01732 0.0117224 0)
(3.0097 -0.00130006 0)
(3.01136 -0.00600551 0)
(3.01621 -0.00607397 0)
(3.02139 -0.00585671 0)
(3.02725 -0.00497154 0)
(3.04013 -0.000976668 0)
(3.05934 0.0104567 0)
(3.0749 0.0166622 0)
(3.07982 0.0164516 0)
(3.08382 0.0120714 0)
(3.08486 0.00498702 0)
(3.07794 -0.00363172 0)
(3.05231 -0.0566238 0)
(3.03908 -0.0949178 0)
(3.02077 -0.150268 0)
(3.00263 -0.227747 0)
(2.98292 -0.32561 0)
(2.96244 -0.43384 0)
(2.9661 -0.501304 0)
(2.95218 -0.604179 0)
(2.97497 -0.597902 0)
(2.95228 -0.661031 0)
(2.96522 -0.665743 0)
(2.9599 -0.688045 0)
(2.95192 -0.708895 0)
(2.94549 -0.728697 0)
(2.94548 -0.738639 0)
(2.9427 -0.746996 0)
(2.93843 -0.756845 0)
(2.93608 -0.765769 0)
(2.94053 -0.766067 0)
(2.94895 -0.756129 0)
(2.96505 -0.738613 0)
(2.98482 -0.717144 0)
(3.00001 -0.705807 0)
(3.00575 -0.704925 0)
(3.01394 -0.709068 0)
(3.01719 -0.715573 0)
(3.01463 -0.722407 0)
(3.01509 -0.724266 0)
(3.01794 -0.723521 0)
(3.01803 -0.722206 0)
(3.01519 -0.718923 0)
(3.01345 -0.713039 0)
(3.01703 -0.70479 0)
(3.02201 -0.699601 0)
(3.02904 -0.696618 0)
(3.04322 -0.691054 0)
(3.05986 -0.68298 0)
(3.07407 -0.669102 0)
(3.08521 -0.655747 0)
(3.08986 -0.651663 0)
(3.09521 -0.650214 0)
(3.0975 -0.653129 0)
(3.09553 -0.660354 0)
(3.0893 -0.669067 0)
(3.08339 -0.67501 0)
(3.08223 -0.675565 0)
(3.08226 -0.674703 0)
(3.08274 -0.672971 0)
(3.08553 -0.668129 0)
(3.09245 -0.654102 0)
(3.10552 -0.630327 0)
(3.11678 -0.610169 0)
(3.11979 -0.605565 0)
(3.12254 -0.607213 0)
(3.12246 -0.613247 0)
(3.12002 -0.618029 0)
(3.12206 -0.617713 0)
(3.12384 -0.614469 0)
(3.12199 -0.608486 0)
(3.12207 -0.602846 0)
(3.12157 -0.594079 0)
(3.12517 -0.578383 0)
(3.13484 -0.572944 0)
(3.14181 -0.565073 0)
(3.14204 -0.558582 0)
(3.13792 -0.552488 0)
(3.13291 -0.549185 0)
(3.12916 -0.543799 0)
(3.12709 -0.531241 0)
(3.12153 -0.524116 0)
(3.11678 -0.521335 0)
(3.10725 -0.525109 0)
(2.94053 0.0469682 0)
(2.932 0.0478689 0)
(2.92796 0.0506341 0)
(2.92738 0.0507757 0)
(2.92922 0.0515392 0)
(2.93809 0.0567274 0)
(2.95081 0.0631054 0)
(2.95624 0.0643315 0)
(2.95771 0.0634028 0)
(2.95789 0.060437 0)
(2.95384 0.0549571 0)
(2.94642 0.0463974 0)
(2.94523 0.0425972 0)
(2.94712 0.0429248 0)
(2.94896 0.0440929 0)
(2.95352 0.0469256 0)
(2.96051 0.0515715 0)
(2.96575 0.0535509 0)
(2.96669 0.0530846 0)
(2.96674 0.0517521 0)
(2.96404 0.0471403 0)
(2.95689 0.0390241 0)
(2.95227 0.0319357 0)
(2.9536 0.0304092 0)
(2.95502 0.0298878 0)
(2.95758 0.0297384 0)
(2.96495 0.033306 0)
(2.97733 0.0420964 0)
(2.98612 0.0478646 0)
(2.98782 0.0482051 0)
(2.98795 0.0474286 0)
(2.98622 0.0439754 0)
(2.97906 0.0356614 0)
(2.96934 0.024994 0)
(2.96864 0.0206354 0)
(2.97143 0.0201453 0)
(2.97479 0.0197462 0)
(2.98394 0.0216991 0)
(2.99917 0.0285268 0)
(3.01022 0.0328284 0)
(3.01362 0.032698 0)
(3.01861 0.0308001 0)
(3.02129 0.0264512 0)
(3.01769 0.0170393 0)
(3.00974 0.00405038 0)
(3.00984 -0.00220807 0)
(3.01478 -0.00239742 0)
(3.01976 -0.00234105 0)
(3.02516 -0.00179365 0)
(3.03493 0.00167716 0)
(3.05261 0.011046 0)
(3.0698 0.020193 0)
(3.07698 0.0153539 0)
(3.08093 0.00217727 0)
(3.07281 -0.0221756 0)
(3.05416 -0.0753068 0)
(3.02494 -0.164193 0)
(2.99298 -0.265211 0)
(2.95878 -0.376326 0)
(2.94257 -0.463078 0)
(2.91159 -0.574507 0)
(2.91541 -0.608879 0)
(2.90276 -0.684518 0)
(2.91537 -0.707517 0)
(2.94145 -0.685421 0)
(2.94417 -0.688119 0)
(2.9478 -0.704141 0)
(2.94673 -0.714234 0)
(2.94578 -0.724499 0)
(2.94222 -0.737829 0)
(2.93796 -0.746626 0)
(2.93768 -0.751513 0)
(2.93642 -0.757917 0)
(2.9372 -0.759838 0)
(2.94216 -0.750784 0)
(2.94928 -0.738979 0)
(2.96462 -0.726093 0)
(2.98352 -0.709479 0)
(2.99725 -0.699089 0)
(3.00509 -0.697158 0)
(3.01428 -0.700237 0)
(3.01894 -0.708735 0)
(3.01881 -0.716076 0)
(3.01838 -0.72051 0)
(3.02101 -0.721999 0)
(3.02385 -0.721454 0)
(3.02435 -0.719181 0)
(3.02118 -0.714251 0)
(3.01897 -0.707705 0)
(3.02239 -0.700515 0)
(3.02998 -0.692664 0)
(3.04071 -0.687898 0)
(3.05529 -0.679888 0)
(3.07126 -0.666204 0)
(3.08311 -0.658659 0)
(3.0881 -0.657951 0)
(3.09596 -0.658802 0)
(3.10113 -0.6625 0)
(3.1007 -0.667622 0)
(3.09281 -0.674812 0)
(3.08406 -0.679173 0)
(3.08157 -0.677983 0)
(3.08104 -0.674238 0)
(3.08031 -0.671266 0)
(3.07884 -0.664418 0)
(3.08387 -0.651939 0)
(3.09879 -0.634388 0)
(3.1165 -0.617889 0)
(3.12372 -0.612636 0)
(3.12524 -0.612561 0)
(3.12798 -0.613838 0)
(3.12761 -0.615956 0)
(3.12412 -0.616409 0)
(3.12698 -0.613784 0)
(3.12992 -0.608749 0)
(3.13116 -0.599238 0)
(3.12514 -0.582521 0)
(3.12032 -0.575641 0)
(3.11846 -0.569618 0)
(3.12413 -0.565956 0)
(3.13452 -0.56551 0)
(3.14323 -0.553999 0)
(3.14465 -0.540727 0)
(3.14373 -0.535111 0)
(3.13995 -0.527212 0)
(3.13238 -0.512357 0)
(3.12059 -0.50151 0)
(3.11093 -0.498683 0)
(3.1051 -0.508487 0)
(2.94536 0.0321544 0)
(2.93648 0.0341338 0)
(2.93333 0.042366 0)
(2.93384 0.0461255 0)
(2.93938 0.0519101 0)
(2.95087 0.0625217 0)
(2.95707 0.0678044 0)
(2.95783 0.0680092 0)
(2.95796 0.0672833 0)
(2.95585 0.0646267 0)
(2.94942 0.0575264 0)
(2.94464 0.0490637 0)
(2.9471 0.0475658 0)
(2.94952 0.0474763 0)
(2.9541 0.048583 0)
(2.96152 0.0519332 0)
(2.96741 0.0538083 0)
(2.96915 0.0529757 0)
(2.96919 0.0517971 0)
(2.96685 0.0480647 0)
(2.9598 0.040792 0)
(2.95328 0.0330753 0)
(2.95364 0.0312243 0)
(2.95516 0.031016 0)
(2.95736 0.0310184 0)
(2.9641 0.0339598 0)
(2.97662 0.0422553 0)
(2.98736 0.0492546 0)
(2.99007 0.0502331 0)
(2.9906 0.0497386 0)
(2.98985 0.0471364 0)
(2.98429 0.0404554 0)
(2.974 0.0298636 0)
(2.96897 0.0225859 0)
(2.97062 0.0213414 0)
(2.97288 0.0208321 0)
(2.98013 0.0219331 0)
(2.99411 0.0281829 0)
(3.0079 0.0343801 0)
(3.01191 0.0351105 0)
(3.01663 0.0340127 0)
(3.01999 0.0305858 0)
(3.01759 0.0225396 0)
(3.00971 0.00997565 0)
(3.00848 0.00242563 0)
(3.0132 0.00165171 0)
(3.01815 0.00106276 0)
(3.02309 0.0014139 0)
(3.03017 0.00358738 0)
(3.04518 0.0118555 0)
(3.05863 0.00550291 0)
(3.06487 -0.0193105 0)
(3.0538 -0.0753482 0)
(3.03051 -0.161743 0)
(2.99677 -0.281137 0)
(2.96622 -0.391045 0)
(2.92654 -0.503982 0)
(2.89483 -0.593611 0)
(2.8956 -0.6352 0)
(2.87441 -0.705122 0)
(2.8761 -0.715735 0)
(2.88068 -0.735275 0)
(2.90394 -0.719097 0)
(2.92372 -0.707354 0)
(2.93497 -0.705862 0)
(2.93883 -0.706386 0)
(2.94324 -0.715256 0)
(2.94081 -0.728705 0)
(2.93669 -0.739574 0)
(2.93535 -0.747799 0)
(2.93517 -0.75334 0)
(2.93571 -0.755455 0)
(2.94075 -0.74866 0)
(2.94551 -0.7391 0)
(2.95402 -0.730667 0)
(2.96688 -0.714982 0)
(2.98441 -0.697062 0)
(2.99503 -0.689449 0)
(3.00314 -0.688931 0)
(3.01135 -0.691758 0)
(3.016 -0.698853 0)
(3.01769 -0.709308 0)
(3.02007 -0.714577 0)
(3.02411 -0.716787 0)
(3.02555 -0.718787 0)
(3.02717 -0.718836 0)
(3.02997 -0.715112 0)
(3.03398 -0.707146 0)
(3.03615 -0.700142 0)
(3.03923 -0.697804 0)
(3.0442 -0.692163 0)
(3.05501 -0.680652 0)
(3.06934 -0.665938 0)
(3.07958 -0.65964 0)
(3.08394 -0.660429 0)
(3.09066 -0.664107 0)
(3.09654 -0.668273 0)
(3.09791 -0.674691 0)
(3.0928 -0.682215 0)
(3.08863 -0.682273 0)
(3.08834 -0.678775 0)
(3.086 -0.674609 0)
(3.08244 -0.66515 0)
(3.08204 -0.654004 0)
(3.08239 -0.64459 0)
(3.08863 -0.632691 0)
(3.10875 -0.61716 0)
(3.12176 -0.608512 0)
(3.12525 -0.6086 0)
(3.12975 -0.610293 0)
(3.13667 -0.612306 0)
(3.14142 -0.612037 0)
(3.14512 -0.60958 0)
(3.14478 -0.606348 0)
(3.14567 -0.596878 0)
(3.14743 -0.57847 0)
(3.13942 -0.560246 0)
(3.12858 -0.548796 0)
(3.12493 -0.548818 0)
(3.12504 -0.552886 0)
(3.13071 -0.555372 0)
(3.14515 -0.550402 0)
(3.16024 -0.533555 0)
(3.16229 -0.525596 0)
(3.15718 -0.523693 0)
(3.14336 -0.521337 0)
(3.12005 -0.525951 0)
(3.10137 -0.532733 0)
(3.09896 -0.533863 0)
(2.95823 0.0127969 0)
(2.94591 0.0183065 0)
(2.94045 0.028779 0)
(2.94339 0.0392154 0)
(2.95498 0.0522227 0)
(2.96288 0.0627282 0)
(2.96172 0.0652769 0)
(2.96063 0.0664528 0)
(2.95832 0.0677176 0)
(2.95332 0.066499 0)
(2.9465 0.0609706 0)
(2.94585 0.0561223 0)
(2.94845 0.0550998 0)
(2.95278 0.0541024 0)
(2.96096 0.0553125 0)
(2.96782 0.0563265 0)
(2.97053 0.0549913 0)
(2.9718 0.0530687 0)
(2.97056 0.0495676 0)
(2.96404 0.0429807 0)
(2.95563 0.0345281 0)
(2.95383 0.0316336 0)
(2.95505 0.0316593 0)
(2.95716 0.0322241 0)
(2.96324 0.0352487 0)
(2.97517 0.0427456 0)
(2.98735 0.0498166 0)
(2.9913 0.0509592 0)
(2.99221 0.0504133 0)
(2.99239 0.0484197 0)
(2.98834 0.043132 0)
(2.97901 0.0340885 0)
(2.97165 0.0255615 0)
(2.9712 0.0233869 0)
(2.97259 0.0228381 0)
(2.97796 0.0234319 0)
(2.98965 0.0285665 0)
(3.00458 0.0357321 0)
(3.01095 0.0377127 0)
(3.01436 0.0370506 0)
(3.01833 0.0348506 0)