/*--------------------------------*- C++ -*----------------------------------*\
  =========                 |
  \\      /  F ield         | OpenFOAM: The Open Source CFD Toolbox
   \\    /   O peration     | Website:  https://openfoam.org
    \\  /    A nd           | Version:  7
     \\/     M anipulation  |
\*---------------------------------------------------------------------------*/
FoamFile
{
    version     2.0;
    format      ascii;
    class       volScalarField;
    location    "0.8";
    object      rho;
}
// * * * * * * * * * * * * * * * * * * * * * * * * * * * * * * * * * * * * * //

dimensions      [1 -3 0 0 0 0 0];

internalField   nonuniform List<scalar> 
16192
(
1.40001
1.40001
1.40001
1.40001
1.40001
1.40001
1.40001
1.40001
1.40001
1.40001
1.40001
1.40001
1.40001
1.40001
1.40001
1.40001
1.40001
1.40001
1.40001
1.40001
1.40001
1.40001
1.40001
1.40001
1.40001
1.40001
1.40001
1.40001
1.40001
1.40001
1.40001
1.40001
1.40001
1.40001
1.40001
1.40001
1.40001
1.40001
1.40001
1.40001
1.40001
1.40001
1.40001
1.40001
1.40001
1.40001
1.40001
1.40001
1.40001
1.40001
1.40001
1.40001
1.40001
1.40001
1.40001
1.40001
1.40001
1.40001
1.40001
1.40001
1.40001
1.40001
1.40001
1.40001
1.40001
1.40001
1.40001
1.40001
1.40001
1.40001
1.40001
1.40001
1.40001
1.40001
1.40001
1.40001
1.40001
1.40001
1.40001
1.40001
1.40001
1.40001
1.40001
1.40001
1.40001
1.40001
1.40001
1.40001
1.40001
1.40001
1.40001
1.40001
1.40001
1.40001
1.40001
1.40001
1.40001
1.40001
1.40001
1.40001
1.40001
1.40001
1.40001
1.40001
1.40001
1.40001
1.40001
1.40001
1.40001
1.40001
1.40001
1.40001
1.40001
1.40001
1.40001
1.40001
1.40001
1.40001
1.40001
1.40001
1.40001
1.40001
1.40001
1.40001
1.40001
1.40001
1.40001
1.40001
1.40001
1.40001
1.40001
1.40001
1.40001
1.40001
1.40001
1.40001
1.40001
1.40001
1.40001
1.40001
1.40001
1.40001
1.40001
1.40001
1.40001
1.40001
1.40001
1.40001
1.40001
1.40001
1.40001
1.40001
1.40001
1.40001
1.40001
1.40001
1.40001
1.40001
1.40001
1.40001
1.40001
1.40001
1.40001
1.40001
1.40001
1.40001
1.40001
1.40001
1.40001
1.40001
1.40001
1.40001
1.40001
1.40001
1.40001
1.40001
1.40001
1.40001
1.40001
1.40001
1.40001
1.40001
1.40001
1.40001
1.40001
1.40001
1.40001
1.40001
1.40001
1.40001
1.40001
1.40001
1.40001
1.40001
1.40001
1.40001
1.40001
1.40001
1.40001
1.40001
1.40001
1.40001
1.40001
1.40001
1.40001
1.40001
1.40001
1.40001
1.40001
1.40001
1.40001
1.40001
1.40001
1.40001
1.40001
1.40001
1.40001
1.40001
1.40001
1.40001
1.40001
1.40001
1.40001
1.40001
1.40001
1.40001
1.40001
1.40001
1.40001
1.40001
1.40001
1.40001
1.40001
1.40001
1.40001
1.40001
1.40001
1.40001
1.40001
1.40001
1.40001
1.40001
1.40001
1.40001
1.40001
1.40001
1.40001
1.40001
1.40001
1.40001
1.40001
1.40001
1.40001
1.40001
1.40001
1.40001
1.40001
1.40001
1.40001
1.40001
1.40001
1.40001
1.40001
1.40001
1.40001
1.40001
1.40001
1.40001
1.40001
1.40001
1.40001
1.40001
1.40001
1.40001
1.40001
1.40001
1.40001
1.40001
1.40001
1.40001
1.40001
1.40001
1.40001
1.40001
1.40001
1.40001
1.40001
1.40001
1.40001
1.40001
1.40001
1.40001
1.40001
1.40001
1.40001
1.40001
1.40001
1.40001
1.40001
1.40001
1.40001
1.40001
1.40001
1.40001
1.40001
1.40001
1.40001
1.40001
1.40001
1.40001
1.40001
1.40001
1.40001
1.40001
1.40001
1.40001
1.40001
1.40001
1.40001
1.40001
1.40001
1.40001
1.40001
1.40001
1.40001
1.40001
1.40001
1.40001
1.40001
1.40001
1.40001
1.40001
1.40001
1.40001
1.40001
1.40001
1.40001
1.40001
1.40001
1.40001
1.40001
1.40001
1.40001
1.40001
1.40001
1.40001
1.40001
1.40001
1.40001
1.40001
1.40001
1.40001
1.40001
1.40001
1.40001
1.40001
1.40001
1.40001
1.40001
1.40001
1.40001
1.40001
1.40001
1.40001
1.40001
1.40001
1.40001
1.40001
1.40001
1.40001
1.40001
1.40001
1.40001
1.40001
1.40001
1.40001
1.40001
1.40001
1.40001
1.40001
1.40001
1.40001
1.40001
1.40001
1.40001
1.40001
1.40001
1.40001
1.40001
1.40001
1.40001
1.40001
1.40001
1.40001
1.40001
1.40001
1.40001
1.40001
1.40001
1.40001
1.40001
1.40001
1.40001
1.40001
1.40001
1.40001
1.40001
1.40001
1.40001
1.40001
1.40001
1.40001
1.40001
1.40001
1.40001
1.40001
1.40001
1.40001
1.40001
1.40001
1.40001
1.40001
1.40001
1.40001
1.40001
1.40001
1.40001
1.40001
1.40001
1.40001
1.40001
1.40001
1.40001
1.40001
1.40001
1.40001
1.40001
1.40001
1.40001
1.40001
1.40001
1.40001
1.40001
1.40001
1.40001
1.40001
1.40001
1.40001
1.40001
1.40001
1.40001
1.40001
1.40001
1.40001
1.40001
1.40001
1.40001
1.40001
1.40001
1.40001
1.40001
1.40001
1.40001
1.40001
1.40001
1.40001
1.40001
1.40001
1.40001
1.40001
1.40001
1.40001
1.40001
1.40001
1.40001
1.40001
1.40001
1.40001
1.40001
1.40001
1.40001
1.40001
1.40001
1.40001
1.40001
1.40001
1.40001
1.40001
1.40001
1.40001
1.40001
1.40001
1.40001
1.40001
1.40001
1.40001
1.40001
1.40001
1.40001
1.40001
1.40001
1.40001
1.40001
1.40001
1.40001
1.40001
1.40001
1.40001
1.40001
1.40001
1.40001
1.40001
1.40001
1.40001
1.40001
1.40001
1.40001
1.40001
1.40001
1.40001
1.40001
1.40001
1.40001
1.40001
1.40001
1.40001
1.40001
1.40001
1.40001
1.40001
1.40001
1.40001
1.40001
1.40001
1.40001
1.40001
1.40001
1.40001
1.40001
1.40001
1.40001
1.40001
1.40001
1.40001
1.40001
1.40001
1.40001
1.40001
1.40001
1.40001
1.40001
1.40001
1.40001
1.40001
1.40001
1.40001
1.40001
1.40001
1.40001
1.40001
1.40001
1.40001
1.40001
1.40001
1.40001
1.40001
1.40001
1.40001
1.40001
1.40001
1.40001
1.40001
1.40001
1.40001
1.40001
1.40001
1.40001
1.40001
1.40001
1.40001
1.40001
1.40001
1.40001
1.40001
1.40001
1.40001
1.40001
1.40001
1.40001
1.40001
1.40001
1.40001
1.40001
1.40001
1.40001
1.40001
1.40001
1.40001
1.40001
1.40001
1.40001
1.40001
1.40001
1.40001
1.40001
1.40001
1.40001
1.40001
1.40001
1.40001
1.40001
1.40001
1.40001
1.40001
1.40001
1.40001
1.40001
1.40001
1.40001
1.40001
1.40001
1.40001
1.40001
1.40001
1.40001
1.40001
1.40001
1.40001
1.40001
1.40001
1.40001
1.40001
1.40001
1.40001
1.40001
1.40001
1.40001
1.40001
1.40001
1.40001
1.40001
1.40001
1.40001
1.40001
1.40001
1.40001
1.40001
1.40001
1.40001
1.40001
1.40001
1.40001
1.40001
1.40001
1.40001
1.40001
1.40001
1.40001
1.40001
1.40001
1.40001
1.40001
1.40001
1.40001
1.40001
1.40001
1.40001
1.40001
1.40001
1.40001
1.40001
1.40001
1.40001
1.40001
1.40001
1.40001
1.40001
1.40001
1.40001
1.40001
1.40001
1.40001
1.40001
1.40001
1.40001
1.40001
1.40001
1.40001
1.40001
1.40001
1.40001
1.40001
1.40001
1.40001
1.40001
1.40001
1.40001
1.40001
1.40001
1.40001
1.40001
1.40001
1.40001
1.40001
1.40001
1.40001
1.40001
1.40001
1.40001
1.40001
1.40001
1.40001
1.40001
1.40001
1.40001
1.40001
1.40001
1.40001
1.40001
1.40001
1.40001
1.40001
1.40001
1.40001
1.40001
1.40001
1.40001
1.40001
1.40001
1.40001
1.40001
1.40001
1.40001
1.40001
1.40001
1.40001
1.40001
1.40001
1.40001
1.40001
1.40001
1.40001
1.40001
1.40001
1.40001
1.40001
1.40001
1.40001
1.40001
1.40001
1.40001
1.40001
1.40001
1.40001
1.40001
1.40001
1.40001
1.40001
1.40001
1.40001
1.40001
1.40001
1.40001
1.40001
1.40001
1.40001
1.40001
1.40001
1.40001
1.40001
1.40001
1.40001
1.40001
1.40001
1.40001
1.40001
1.40001
1.40001
1.40001
1.40001
1.40001
1.40001
1.40001
1.40001
1.40001
1.40001
1.40001
1.40001
1.40001
1.40001
1.40001
1.40001
1.40001
1.40001
1.40001
1.40001
1.40001
1.40001
1.40001
1.40001
1.40001
1.40001
1.40001
1.40001
1.40001
1.40001
1.40001
1.40001
1.40001
1.40001
1.40001
1.40001
1.40001
1.40001
1.40001
1.40001
1.40001
1.40001
1.40001
1.40001
1.40001
1.40001
1.40001
1.40001
1.40001
1.40001
1.40001
1.40001
1.40001
1.40001
1.40001
1.40001
1.40001
1.40001
1.40001
1.40001
1.40001
1.40001
1.40001
1.40001
1.40001
1.40001
1.40001
1.40001
1.40001
1.40001
1.40001
1.40001
1.40001
1.40001
1.40001
1.40001
1.40001
1.40001
1.40001
1.40001
1.40001
1.40001
1.40001
1.40001
1.40001
1.40001
1.40001
1.40001
1.40001
1.40001
1.40001
1.40001
1.40001
1.40001
1.40001
1.40001
1.40001
1.40001
1.40001
1.40001
1.40001
1.40001
1.40001
1.40001
1.40001
1.40001
1.40001
1.40001
1.40001
1.40001
1.40001
1.40001
1.40001
1.40001
1.40001
1.40001
1.40001
1.40001
1.40001
1.40001
1.40001
1.40001
1.40001
1.40001
1.40001
1.40001
1.40001
1.40001
1.40001
1.40001
1.40001
1.40001
1.40001
1.40001
1.40001
1.40001
1.40001
1.40001
1.40001
1.40001
1.40001
1.40001
1.40001
1.40001
1.40001
1.40001
1.40001
1.40001
1.40001
1.40001
1.40001
1.40001
1.40001
1.40001
1.40001
1.40001
1.40001
1.40001
1.40001
1.40001
1.40001
1.40001
1.40001
1.40001
1.40001
1.40001
1.40001
1.40001
1.40001
1.40001
1.40001
1.40001
1.40001
1.40001
1.40001
1.40001
1.40001
1.40001
1.40001
1.40001
1.40001
1.40001
1.40001
1.40001
1.40001
1.40001
1.40001
1.40001
1.40001
1.40001
1.40001
1.40001
1.40001
1.40001
1.40001
1.40001
1.40001
1.40001
1.40001
1.40001
1.40001
1.40001
1.40001
1.40001
1.40001
1.40001
1.40001
1.40001
1.40001
1.40001
1.40001
1.40001
1.40001
1.40001
1.40001
1.40001
1.40001
1.40001
1.40001
1.40001
1.40001
1.40001
1.40001
1.40001
1.40001
1.40001
1.40001
1.40001
1.40001
1.40001
1.40001
1.40001
1.40001
1.40001
1.40001
1.40001
1.40001
1.40001
1.40001
1.40001
1.40001
1.40001
1.40001
1.40001
1.40001
1.40001
1.40001
1.40001
1.40001
1.40001
1.40001
1.40001
1.40001
1.40001
1.40001
1.40001
1.40001
1.40001
1.40001
1.40001
1.40001
1.40001
1.40001
1.40001
1.40001
1.40001
1.40001
1.40001
1.40001
1.40001
1.40001
1.40001
1.40001
1.40001
1.40001
1.40001
1.40001
1.40001
1.40001
1.40001
1.40001
1.40001
1.40001
1.40001
1.40001
1.40001
1.40001
1.40001
1.40001
1.40001
1.40001
1.40001
1.40001
1.40001
1.40001
1.40001
1.40001
1.40001
1.40001
1.40001
1.40001
1.40001
1.40001
1.40001
1.40001
1.40001
1.40001
1.40001
1.40001
1.40001
1.40001
1.40001
1.40001
1.40001
1.40001
1.40001
1.40001
1.40001
1.40001
1.40001
1.40001
1.40001
1.40001
1.40001
1.40001
1.40001
1.40001
1.40001
1.40001
1.40001
1.40001
1.40001
1.40001
1.40001
1.40001
1.40001
1.40001
1.40001
1.40001
1.40001
1.40001
1.40001
1.40001
1.40001
1.40001
1.40001
1.40001
1.40001
1.40001
1.40001
1.40001
1.40001
1.40001
1.40001
1.40001
1.40001
1.40001
1.40001
1.40001
1.40001
1.40001
1.40001
1.40001
1.40001
1.40001
1.40001
1.40001
1.40001
1.40001
1.40001
1.40001
1.40001
1.40001
1.40001
1.40001
1.40001
1.40001
1.40001
1.40001
1.40001
1.40001
1.40001
1.40001
1.40001
1.40001
1.40001
1.40001
1.40001
1.40001
1.40001
1.40001
1.40001
1.40001
1.40001
1.40001
1.40001
1.40001
1.40001
1.40001
1.40001
1.40001
1.40001
1.40001
1.40001
1.40001
1.40001
1.40001
1.40001
1.40001
1.40001
1.40001
1.40001
1.40001
1.40001
1.40001
1.40001
1.40001
1.40001
1.40001
1.40001
1.40001
1.40001
1.40001
1.40001
1.40001
1.40001
1.40001
1.40001
1.40001
1.40001
1.40001
1.40001
1.40001
1.40001
1.40001
1.40001
1.40001
1.40001
1.40001
1.40001
1.40001
1.40001
1.40001
1.40001
1.40001
1.40001
1.40001
1.40001
1.40001
1.40001
1.40001
1.40001
1.40001
1.40001
1.40001
1.40001
1.40001
1.40001
1.40001
1.40001
1.40001
1.40001
1.40001
1.40001
1.40001
1.40001
1.40001
1.40001
1.40001
1.40001
1.40001
1.40001
1.40001
1.40001
1.40001
1.40001
1.40001
1.40001
1.40001
1.40001
1.40001
1.40001
1.40001
1.40001
1.40001
1.40001
1.40001
1.40001
1.40001
1.40001
1.40001
1.40001
1.40001
1.40001
1.40001
1.40001
1.40001
1.40001
1.40001
1.40001
1.40001
1.40001
1.40001
1.40001
1.40001
1.40001
1.40001
1.40001
1.40001
1.40001
1.40001
1.40001
1.40001
1.40001
1.40001
1.40001
1.40001
1.40001
1.40001
1.40001
1.40001
1.40001
1.40001
1.40001
1.40001
1.40001
1.40001
1.40001
1.40001
1.40001
1.40001
1.40001
1.40001
1.40001
1.40001
1.40001
1.40001
1.40001
1.40001
1.40001
1.40001
1.40001
1.40001
1.40001
1.40001
1.40001
1.40001
1.40001
1.4005
1.41418
1.56539
2.12261
2.81905
3.22725
3.43465
3.43827
3.42145
3.37807
3.35016
3.34775
3.3639
3.37117
3.35104
3.32472
3.29863
3.27658
3.27588
3.28818
3.32662
3.39031
3.44808
3.501
3.51321
3.51089
3.52031
3.53077
3.52767
3.52449
3.52213
3.51235
3.49615
3.48451
3.46972
3.45104
3.43223
3.41412
3.39391
3.37605
3.36559
3.35291
3.33211
3.30647
3.28294
3.26163
3.24035
3.21621
3.18959
3.16356
3.13942
3.11878
3.10875
3.10604
3.11144
3.12552
3.1368
3.13501
3.12285
3.10309
3.07878
3.04434
2.9894
2.93516
2.90938
2.89877
2.89337
2.891
2.88935
2.88207
2.87579
2.87147
2.86737
2.85937
2.8406
2.82491
2.81208
2.7986
2.78428
2.76921
2.75325
2.73433
2.70629
2.66971
2.64322
2.63724
2.63572
2.63813
2.65307
2.6747
2.68473
2.68827
2.69078
2.68697
2.67069
2.65152
2.64536
2.64522
2.6489
2.64215
2.62832
2.60159
2.55441
2.50476
2.48517
2.48243
2.48241
2.48657
2.49128
2.49101
2.48887
2.48762
2.48916
2.49833
2.51292
2.51719
2.51071
2.49348
2.45617
2.37565
2.30132
2.27964
2.27466
2.27273
2.27303
2.28273
2.30906
2.34921
2.38549
2.40287
2.40373
2.3943
2.37695
2.35718
2.33128
2.29617
2.25992
2.23755
2.22656
2.2251
2.22863
2.2394
2.24311
2.23897
2.22612
2.20242
2.17898
2.17064
1.40001
1.40001
1.40001
1.40001
1.40001
1.40001
1.40001
1.40001
1.40001
1.40001
1.40001
1.40001
1.40001
1.40001
1.40001
1.40001
1.40001
1.40001
1.40001
1.40001
1.40001
1.40001
1.40001
1.40001
1.40001
1.40001
1.40001
1.40001
1.40001
1.40001
1.40001
1.40001
1.40001
1.40001
1.40001
1.40001
1.40001
1.40001
1.40001
1.40001
1.40001
1.40001
1.40001
1.40001
1.40001
1.40001
1.40001
1.40001
1.40001
1.40001
1.40001
1.40001
1.40001
1.40001
1.40001
1.40001
1.40001
1.40001
1.40001
1.40001
1.40001
1.40001
1.40001
1.40001
1.40001
1.40001
1.40001
1.40001
1.40001
1.40001
1.40001
1.40001
1.40001
1.40001
1.40001
1.40001
1.40001
1.40001
1.40001
1.40001
1.40001
1.40001
1.40001
1.40021
1.40821
1.50615
1.90806
2.54741
3.12378
3.40742
3.40174
3.36089
3.36049
3.37756
3.40033
3.39443
3.35559
3.31783
3.29017
3.2745
3.2724
3.27917
3.29159
3.30668
3.33466
3.37889
3.42089
3.44388
3.47953
3.51607
3.52034
3.52341
3.52508
3.51757
3.50348
3.49453
3.48305
3.47007
3.45721
3.44191
3.42274
3.40447
3.38435
3.36091
3.33405
3.30849
3.28793
3.26949
3.24799
3.2215
3.19478
3.17196
3.15561
3.1477
3.14627
3.15391
3.16699
3.17172
3.16477
3.14853
3.12767
3.10265
3.06601
3.01183
2.96238
2.93609
2.92555
2.92096
2.91896
2.9241
2.92634
2.92249
2.9188
2.91347
2.8976
2.86872
2.84556
2.82993
2.81681
2.80331
2.78938
2.77557
2.76081
2.73987
2.7078
2.679
2.67079
2.66779
2.66714
2.67218
2.68419
2.69271
2.69666
2.69991
2.69924
2.68901
2.67606
2.67264
2.67467
2.68226
2.67736
2.6618
2.63343
2.58613
2.53384
2.51039
2.50588
2.50498
2.50614
2.50854
2.50893
2.50801
2.50828
2.51298
2.52596
2.54046
2.54143
2.53288
2.51467
2.47725
2.39821
2.32288
2.29905
2.29402
2.29242
2.29364
2.30612
2.33844
2.38706
2.4237
2.43305
2.4289
2.41303
2.39034
2.36295
2.33185
2.29937
2.27323
2.2572
2.24831
2.24717
2.25079
2.26096
2.26411
2.26014
2.2484
2.2254
2.20132
2.19194
2.19224
1.40001
1.40001
1.40001
1.40001
1.40001
1.40001
1.40001
1.40001
1.40001
1.40001
1.40001
1.40001
1.40001
1.40001
1.40001
1.40001
1.40001
1.40001
1.40001
1.40001
1.40001
1.40001
1.40001
1.40001
1.40001
1.40001
1.40001
1.40001
1.40001
1.40001
1.40001
1.40001
1.40001
1.40001
1.40001
1.40001
1.40001
1.40001
1.40001
1.40001
1.40001
1.40001
1.40001
1.40001
1.40001
1.40001
1.40001
1.40001
1.40001
1.40001
1.40001
1.40001
1.40001
1.40001
1.40001
1.40001
1.40001
1.40001
1.40001
1.40001
1.40001
1.40001
1.40001
1.40001
1.40001
1.40001
1.40001
1.40001
1.40001
1.40001
1.40001
1.40001
1.40001
1.40001
1.40001
1.40001
1.40001
1.40001
1.40001
1.40001
1.40001
1.40001
1.40001
1.40001
1.4001
1.40356
1.44609
1.67005
2.24802
2.96498
3.32699
3.32978
3.36487
3.40899
3.42709
3.40967
3.35015
3.31321
3.29047
3.27591
3.27656
3.29093
3.29089
3.27953
3.27451
3.28767
3.31928
3.35875
3.41649
3.47142
3.5038
3.52244
3.52184
3.51313
3.50177
3.49715
3.492
3.48861
3.48344
3.47063
3.44854
3.42181
3.39228
3.36379
3.33822
3.31535
3.29738
3.27968
3.25648
3.2295
3.2083
3.19611
3.19022
3.19007
3.19504
3.20271
3.20274
3.19278
3.17327
3.15101
3.12476
3.08669
3.03442
2.99013
2.96509
2.9556
2.95193
2.95116
2.96184
2.97367
2.97173
2.96527
2.95548
2.93185
2.8964
2.86546
2.84991
2.83539
2.8213
2.80874
2.79676
2.78543
2.77124
2.74554
2.71571
2.70612
2.70141
2.6968
2.69579
2.69902
2.7037
2.70656
2.70908
2.70914
2.70208
2.69505
2.69547
2.70099
2.71176
2.71048
2.69687
2.668
2.6196
2.5637
2.53706
2.53104
2.52833
2.52749
2.52791
2.52801
2.52821
2.53086
2.53925
2.55508
2.56702
2.56486
2.55438
2.53529
2.49764
2.42079
2.34636
2.32056
2.31538
2.31415
2.3165
2.33225
2.37136
2.42715
2.46082
2.46368
2.45459
2.43252
2.40113
2.36355
2.33041
2.30585
2.28872
2.27612
2.27006
2.26951
2.27385
2.28363
2.28613
2.2823
2.27189
2.24944
2.22465
2.21408
2.21396
2.22709
1.40001
1.40001
1.40001
1.40001
1.40001
1.40001
1.40001
1.40001
1.40001
1.40001
1.40001
1.40001
1.40001
1.40001
1.40001
1.40001
1.40001
1.40001
1.40001
1.40001
1.40001
1.40001
1.40001
1.40001
1.40001
1.40001
1.40001
1.40001
1.40001
1.40001
1.40001
1.40001
1.40001
1.40001
1.40001
1.40001
1.40001
1.40001
1.40001
1.40001
1.40001
1.40001
1.40001
1.40001
1.40001
1.40001
1.40001
1.40001
1.40001
1.40001
1.40001
1.40001
1.40001
1.40001
1.40001
1.40001
1.40001
1.40001
1.40001
1.40001
1.40001
1.40001
1.40001
1.40001
1.40001
1.40001
1.40001
1.40001
1.40001
1.40001
1.40001
1.40001
1.40001
1.40001
1.40001
1.40001
1.40001
1.40001
1.40001
1.40001
1.40001
1.40001
1.40001
1.40001
1.40001
1.40002
1.40082
1.41374
1.54026
2.01213
2.73511
3.19312
3.34602
3.41672
3.42266
3.40255
3.33865
3.31411
3.29784
3.28848
3.29755
3.31133
3.30228
3.28174
3.25746
3.2441
3.25193
3.28099
3.33497
3.40595
3.457
3.50004
3.50264
3.49794
3.49649
3.49931
3.49948
3.49931
3.49418
3.47908
3.45517
3.42697
3.39735
3.36949
3.34756
3.32819
3.31085
3.29462
3.27335
3.25159
3.24021
3.23554
3.23453
3.23263
3.23304
3.23024
3.21877
3.19852
3.17495
3.14672
3.10776
3.0589
3.01955
2.99569
2.98735
2.98493
2.98779
3.00348
3.02024
3.01875
3.00913
2.9919
2.96342
2.92823
2.88605
2.86579
2.85623
2.84363
2.82764
2.81678
2.80918
2.79992
2.78109
2.75198
2.74033
2.73391
2.72601
2.72084
2.71857
2.71779
2.71875
2.71998
2.71934
2.71322
2.70947
2.71368
2.72305
2.73613
2.73825
2.72837
2.70325
2.6563
2.59571
2.56554
2.55777
2.55367
2.55073
2.54963
2.54931
2.55046
2.55561
2.56732
2.58414
2.59186
2.58712
2.57475
2.55526
2.51756
2.44341
2.3717
2.34458
2.339
2.33806
2.34165
2.36119
2.40694
2.46673
2.49538
2.4945
2.48176
2.45434
2.41074
2.362
2.33213
2.31693
2.30501
2.29487
2.29128
2.29157
2.29759
2.3074
2.30943
2.30578
2.29656
2.27484
2.24936
2.23716
2.23652
2.24758
2.2676
1.40001
1.40001
1.40001
1.40001
1.40001
1.40001
1.40001
1.40001
1.40001
1.40001
1.40001
1.40001
1.40001
1.40001
1.40001
1.40001
1.40001
1.40001
1.40001
1.40001
1.40001
1.40001
1.40001
1.40001
1.40001
1.40001
1.40001
1.40001
1.40001
1.40001
1.40001
1.40001
1.40001
1.40001
1.40001
1.40001
1.40001
1.40001
1.40001
1.40001
1.40001
1.40001
1.40001
1.40001
1.40001
1.40001
1.40001
1.40001
1.40001
1.40001
1.40001
1.40001
1.40001
1.40001
1.40001
1.40001
1.40001
1.40001
1.40001
1.40001
1.40001
1.40001
1.40001
1.40001
1.40001
1.40001
1.40001
1.40001
1.40001
1.40001
1.40001
1.40001
1.40001
1.40001
1.40001
1.40001
1.40001
1.40001
1.40001
1.40001
1.40001
1.40001
1.40001
1.40001
1.40001
1.40001
1.40001
1.40016
1.40494
1.47435
1.80883
2.53139
3.11003
3.34266
3.41648
3.40302
3.35649
3.32621
3.30382
3.31022
3.32699
3.33684
3.31774
3.28562
3.25375
3.23722
3.23619
3.24314
3.27472
3.3294
3.38218
3.42929
3.45768
3.46569
3.47861
3.49681
3.50196
3.50138
3.49552
3.48054
3.45615
3.42917
3.40262
3.37943
3.36206
3.34682
3.33428
3.32309
3.30721
3.29305
3.28348
3.27539
3.26707
3.26029
3.25368
3.24188
3.22245
3.1989
3.16975
3.13115
3.08694
3.05192
3.02941
3.02243
3.02059
3.02792
3.04896
3.0637
3.05879
3.04595
3.02333
2.99388
2.95623
2.9138
2.88698
2.87407
2.86604
2.85514
2.84084
2.83133
2.82576
2.81675
2.79113
2.7702
2.76464
2.75583
2.7448
2.7388
2.7363
2.73365
2.73244
2.73164
2.72644
2.72303
2.729
2.74108
2.75454
2.75879
2.75338
2.73434
2.6941
2.63215
2.59628
2.58643
2.5814
2.57711
2.5747
2.5738
2.57541
2.58267
2.59659
2.61179
2.61479
2.60755
2.59372
2.5741
2.53685
2.46624
2.39869
2.37114
2.36521
2.36438
2.36912
2.39277
2.44492
2.50498
2.5272
2.52406
2.50905
2.47862
2.42404
2.36566
2.3399
2.32943
2.31993
2.31273
2.31081
2.31284
2.32151
2.33197
2.33401
2.33085
2.32253
2.30152
2.27527
2.26174
2.26054
2.26898
2.2851
2.28535
1.40001
1.40001
1.40001
1.40001
1.40001
1.40001
1.40001
1.40001
1.40001
1.40001
1.40001
1.40001
1.40001
1.40001
1.40001
1.40001
1.40001
1.40001
1.40001
1.40001
1.40001
1.40001
1.40001
1.40001
1.40001
1.40001
1.40001
1.40001
1.40001
1.40001
1.40001
1.40001
1.40001
1.40001
1.40001
1.40001
1.40001
1.40001
1.40001
1.40001
1.40001
1.40001
1.40001
1.40001
1.40001
1.40001
1.40001
1.40001
1.40001
1.40001
1.40001
1.40001
1.40001
1.40001
1.40001
1.40001
1.40001
1.40001
1.40001
1.40001
1.40001
1.40001
1.40001
1.40001
1.40001
1.40001
1.40001
1.40001
1.40001
1.40001
1.40001
1.40001
1.40001
1.40001
1.40001
1.40001
1.40001
1.40001
1.40001
1.40001
1.40001
1.40001
1.40001
1.40001
1.40001
1.40001
1.40001
1.40001
1.40005
1.402
1.43724
1.67794
2.34695
2.94288
3.26747
3.38626
3.37512
3.32392
3.31654
3.34217
3.3647
3.36012
3.31862
3.28227
3.25568
3.2406
3.23902
3.24359
3.25277
3.2667
3.29201
3.32633
3.36487
3.40156
3.43306
3.46987
3.49585
3.49486
3.48805
3.47405
3.45078
3.4288
3.40865
3.39367
3.3849
3.37881
3.37254
3.36331
3.3489
3.33187
3.31423
3.29879
3.28775
3.27929
3.26688
3.24672
3.22236
3.19293
3.15604
3.11701
3.08546
3.06519
3.06029
3.0606
3.07304
3.09485
3.10371
3.09418
3.07616
3.0516
3.02041
2.97935
2.9403
2.91268
2.89667
2.88743
2.88009
2.87165
2.86192
2.85427
2.84714
2.83364
2.80669
2.79036
2.7815
2.77103
2.761
2.75583
2.75341
2.75087
2.74756
2.74417
2.74076
2.74435
2.75426
2.76587
2.77045
2.76947
2.75845
2.72815
2.67206
2.63036
2.61734
2.61146
2.60658
2.60426
2.60322
2.60434
2.61187
2.62575
2.63667
2.63552
2.62635
2.61179
2.5918
2.55479
2.48924
2.42799
2.40034
2.39415
2.39332
2.39926
2.42726
2.4845
2.5405
2.55576
2.55095
2.53526
2.50436
2.44364
2.37722
2.35157
2.34198
2.33408
2.32923
2.32829
2.33265
2.34466
2.3568
2.3594
2.3571
2.34979
2.32944
2.30253
2.28801
2.28623
2.29221
2.30342
2.3016
2.29125
1.40001
1.40001
1.40001
1.40001
1.40001
1.40001
1.40001
1.40001
1.40001
1.40001
1.40001
1.40001
1.40001
1.40001
1.40001
1.40001
1.40001
1.40001
1.40001
1.40001
1.40001
1.40001
1.40001
1.40001
1.40001
1.40001
1.40001
1.40001
1.40001
1.40001
1.40001
1.40001
1.40001
1.40001
1.40001
1.40001
1.40001
1.40001
1.40001
1.40001
1.40001
1.40001
1.40001
1.40001
1.40001
1.40001
1.40001
1.40001
1.40001
1.40001
1.40001
1.40001
1.40001
1.40001
1.40001
1.40001
1.40001
1.40001
1.40001
1.40001
1.40001
1.40001
1.40001
1.40001
1.40001
1.40001
1.40001
1.40001
1.40001
1.40001
1.40001
1.40001
1.40001
1.40001
1.40001
1.40001
1.40001
1.40001
1.40001
1.40001
1.40001
1.40001
1.40001
1.40001
1.40001
1.40001
1.40001
1.40001
1.40001
1.40002
1.40078
1.41848
1.57428
2.058
2.63171
3.20833
3.366
3.30588
3.33164
3.37122
3.39391
3.36741
3.30747
3.2856
3.27
3.25298
3.24874
3.25485
3.25797
3.24736
3.23598
3.2429
3.26264
3.30257
3.35223
3.40275
3.45646
3.4676
3.46274
3.45261
3.43572
3.42512
3.41878
3.4165
3.42029
3.4179
3.40683
3.3917
3.37079
3.34865
3.32936
3.31543
3.30583
3.29472
3.27599
3.25055
3.2203
3.18479
3.14886
3.1186
3.10086
3.09759
3.10123
3.11938
3.13866
3.13769
3.125
3.10484
3.07914
3.04531
2.99982
2.96415
2.94063
2.92169
2.91117
2.90447
2.89944
2.89447
2.88881
2.88267
2.87216
2.84761
2.82056
2.80491
2.79528
2.78599
2.77911
2.77526
2.77401
2.7724
2.76941
2.76593
2.7621
2.76405
2.7705
2.77516
2.777
2.77365
2.75509
2.71161
2.66777
2.65051
2.64471
2.63951
2.63751
2.6381
2.63896
2.64357
2.65336
2.65859
2.6549
2.64401
2.62896
2.60843
2.57165
2.51244
2.45925
2.43224
2.42608
2.42523
2.43264
2.46502
2.52469
2.57218
2.58041
2.57403
2.55851
2.52921
2.46714
2.39407
2.36486
2.35477
2.348
2.34457
2.34437
2.35104
2.36698
2.3817
2.38529
2.38396
2.37782
2.35774
2.33073
2.31603
2.31387
2.3174
2.32311
2.31915
2.30702
2.28287
1.40001
1.40001
1.40001
1.40001
1.40001
1.40001
1.40001
1.40001
1.40001
1.40001
1.40001
1.40001
1.40001
1.40001
1.40001
1.40001
1.40001
1.40001
1.40001
1.40001
1.40001
1.40001
1.40001
1.40001
1.40001
1.40001
1.40001
1.40001
1.40001
1.40001
1.40001
1.40001
1.40001
1.40001
1.40001
1.40001
1.40001
1.40001
1.40001
1.40001
1.40001
1.40001
1.40001
1.40001
1.40001
1.40001
1.40001
1.40001
1.40001
1.40001
1.40001
1.40001
1.40001
1.40001
1.40001
1.40001
1.40001
1.40001
1.40001
1.40001
1.40001
1.40001
1.40001
1.40001
1.40001
1.40001
1.40001
1.40001
1.40001
1.40001
1.40001
1.40001
1.40001
1.40001
1.40001
1.40001
1.40001
1.40001
1.40001
1.40001
1.40001
1.40001
1.40001
1.40001
1.40001
1.40001
1.40001
1.40001
1.40001
1.40001
1.40001
1.40027
1.40693
1.47558
1.75926
2.39245
3.11243
3.22263
3.3095
3.38002
3.41104
3.3699
3.31618
3.30351
3.2821
3.26442
3.26646
3.2783
3.26853
3.24582
3.22583
3.21295
3.21432
3.2273
3.26391
3.31388
3.37388
3.40794
3.41211
3.41428
3.41215
3.41762
3.42844
3.43869
3.44156
3.43338
3.41652
3.39795
3.37776
3.35835
3.34443
3.33455
3.3238
3.30717
3.28346
3.25369
3.21952
3.18433
3.15352
3.13827
3.13579
3.14138
3.16181
3.17537
3.1681
3.1515
3.1304
3.10578
3.06906
3.02009
2.98741
2.96757
2.95
2.93728
2.93038
2.92666
2.92458
2.92142
2.91673
2.90828
2.88297
2.85157
2.8305
2.81896
2.81193
2.80606
2.80194
2.80058
2.80085
2.79883
2.79499
2.78343
2.77143
2.77293
2.77777
2.78066
2.7812
2.77388
2.74713
2.70794
2.68575
2.68022
2.6755
2.67499
2.67696
2.67634
2.67679
2.67978
2.67922
2.67352
2.66216
2.64629
2.6243
2.58779
2.53595
2.49107
2.4659
2.46036
2.45998
2.4698
2.5062
2.56432
2.59982
2.60198
2.59411
2.57899
2.55146
2.49035
2.41286
2.37901
2.36811
2.36221
2.35948
2.35964
2.36776
2.38811
2.40712
2.41195
2.41132
2.4063
2.38614
2.35908
2.34494
2.34264
2.34412
2.34442
2.33806
2.32379
2.29658
2.25375
1.40001
1.40001
1.40001
1.40001
1.40001
1.40001
1.40001
1.40001
1.40001
1.40001
1.40001
1.40001
1.40001
1.40001
1.40001
1.40001
1.40001
1.40001
1.40001
1.40001
1.40001
1.40001
1.40001
1.40001
1.40001
1.40001
1.40001
1.40001
1.40001
1.40001
1.40001
1.40001
1.40001
1.40001
1.40001
1.40001
1.40001
1.40001
1.40001
1.40001
1.40001
1.40001
1.40001
1.40001
1.40001
1.40001
1.40001
1.40001
1.40001
1.40001
1.40001
1.40001
1.40001
1.40001
1.40001
1.40001
1.40001
1.40001
1.40001
1.40001
1.40001
1.40001
1.40001
1.40001
1.40001
1.40001
1.40001
1.40001
1.40001
1.40001
1.40001
1.40001
1.40001
1.40001
1.40001
1.40001
1.40001
1.40001
1.40001
1.40001
1.40001
1.40001
1.40001
1.40001
1.40001
1.40001
1.40001
1.40001
1.40001
1.40001
1.40001
1.40001
1.40005
1.40166
1.42695
1.59739
2.20794
2.90993
3.18069
3.35456
3.40012
3.37415
3.33861
3.30175
3.28803
3.29512
3.30718
3.29901
3.26877
3.24355
3.22519
3.21232
3.20997
3.21202
3.22077
3.24319
3.27853
3.31704
3.33777
3.3616
3.38249
3.40445
3.42925
3.4417
3.44136
3.43288
3.41654
3.39957
3.38293
3.37084
3.3646
3.35748
3.34192
3.31739
3.28881
3.25642
3.222
3.19212
3.17944
3.17729
3.18386
3.20246
3.20821
3.197
3.17742
3.15448
3.12858
3.09207
3.04006
3.0089
2.99304
2.97884
2.96619
2.95833
2.95459
2.95411
2.95254
2.94822
2.9407
2.91746
2.88192
2.85672
2.84461
2.8382
2.8344
2.83334
2.83395
2.833
2.83021
2.82312
2.80548
2.78346
2.77565
2.77924
2.78397
2.78623
2.78579
2.77481
2.74692
2.72239
2.7173
2.71337
2.7142
2.71766
2.71383
2.70921
2.70561
2.70045
2.69263
2.68052
2.66392
2.64102
2.60506
2.56017
2.52323
2.50041
2.49551
2.49613
2.50981
2.55001
2.60219
2.62452
2.62216
2.61261
2.59787
2.57141
2.51138
2.43165
2.39441
2.38261
2.37739
2.37503
2.37521
2.38364
2.40719
2.43228
2.43959
2.43923
2.43495
2.41454
2.38724
2.37376
2.37154
2.37096
2.36702
2.35838
2.34164
2.31148
2.26767
2.24308
1.40001
1.40001
1.40001
1.40001
1.40001
1.40001
1.40001
1.40001
1.40001
1.40001
1.40001
1.40001
1.40001
1.40001
1.40001
1.40001
1.40001
1.40001
1.40001
1.40001
1.40001
1.40001
1.40001
1.40001
1.40001
1.40001
1.40001
1.40001
1.40001
1.40001
1.40001
1.40001
1.40001
1.40001
1.40001
1.40001
1.40001
1.40001
1.40001
1.40001
1.40001
1.40001
1.40001
1.40001
1.40001
1.40001
1.40001
1.40001
1.40001
1.40001
1.40001
1.40001
1.40001
1.40001
1.40001
1.40001
1.40001
1.40001
1.40001
1.40001
1.40001
1.40001
1.40001
1.40001
1.40001
1.40001
1.40001
1.40001
1.40001
1.40001
1.40001
1.40001
1.40001
1.40001
1.40001
1.40001
1.40001
1.40001
1.40001
1.40001
1.40001
1.40001
1.40001
1.40001
1.40001
1.40001
1.40001
1.40001
1.40001
1.40001
1.40001
1.40001
1.40001
1.40001
1.40043
1.41031
1.52803
2.0651
2.67528
3.1032
3.36177
3.37059
3.32218
3.30735
3.32521
3.33563
3.33664
3.29862
3.26507
3.24831
3.23308
3.21737
3.21496
3.22034
3.22078
3.21264
3.21799
3.23503
3.26082
3.29595
3.3412
3.37593
3.41605
3.43151
3.42993
3.42304
3.41234
3.39886
3.38726
3.38299
3.37909
3.36848
3.34881
3.32281
3.29299
3.26021
3.233
3.22339
3.22186
3.23
3.24405
3.24202
3.22671
3.20368
3.17899
3.15127
3.11307
3.0622
3.02835
3.01601
3.00777
2.99631
2.98756
2.9835
2.98373
2.98332
2.97924
2.97244
2.95149
2.91425
2.88385
2.87164
2.86648
2.86409
2.86618
2.87154
2.86981
2.86412
2.85164
2.82748
2.79953
2.78142
2.78061
2.78633
2.79103
2.79284
2.79116
2.77753
2.75811
2.75401
2.75172
2.75261
2.75625
2.74936
2.74122
2.733
2.72363
2.71329
2.70063
2.68322
2.65951
2.62435
2.58464
2.55378
2.53444
2.53077
2.53257
2.55044
2.59365
2.637
2.64758
2.64208
2.63076
2.61569
2.58977
2.5309
2.45034
2.41114
2.39898
2.39432
2.39189
2.3917
2.39965
2.42496
2.45626
2.46762
2.4678
2.46368
2.44254
2.41498
2.40155
2.39942
2.39688
2.39041
2.37866
2.35966
2.3276
2.28407
2.26014
2.25252
1.40001
1.40001
1.40001
1.40001
1.40001
1.40001
1.40001
1.40001
1.40001
1.40001
1.40001
1.40001
1.40001
1.40001
1.40001
1.40001
1.40001
1.40001
1.40001
1.40001
1.40001
1.40001
1.40001
1.40001
1.40001
1.40001
1.40001
1.40001
1.40001
1.40001
1.40001
1.40001
1.40001
1.40001
1.40001
1.40001
1.40001
1.40001
1.40001
1.40001
1.40001
1.40001
1.40001
1.40001
1.40001
1.40001
1.40001
1.40001
1.40001
1.40001
1.40001
1.40001
1.40001
1.40001
1.40001
1.40001
1.40001
1.40001
1.40001
1.40001
1.40001
1.40001
1.40001
1.40001
1.40001
1.40001
1.40001
1.40001
1.40001
1.40001
1.40001
1.40001
1.40001
1.40001
1.40001
1.40001
1.40001
1.40001
1.40001
1.40001
1.40001
1.40001
1.40001
1.40001
1.40001
1.40001
1.40001
1.40001
1.40001
1.40001
1.40001
1.40001
1.40001
1.40001
1.40001
1.40015
1.40559
1.48763
1.81688
2.31687
3.03466
3.31537
3.27128
3.30505
3.33908
3.36775
3.33818
3.29733
3.28726
3.27227
3.24316
3.23439
3.23954
3.24062
3.22678
3.21063
3.1943
3.19304
3.20448
3.23162
3.27631
3.31916
3.36239
3.39309
3.39455
3.39472
3.39737
3.39151
3.38766
3.38726
3.38395
3.37264
3.35245
3.3265
3.29924
3.2772
3.27008
3.2694
3.27817
3.28564
3.2771
3.25667
3.23117
3.2048
3.17471