/*--------------------------------*- C++ -*----------------------------------*\
  =========                 |
  \\      /  F ield         | OpenFOAM: The Open Source CFD Toolbox
   \\    /   O peration     | Website:  https://openfoam.org
    \\  /    A nd           | Version:  7
     \\/     M anipulation  |
\*---------------------------------------------------------------------------*/
FoamFile
{
    version     2.0;
    format      ascii;
    class       volScalarField;
    location    "3.2";
    object      T;
}
// * * * * * * * * * * * * * * * * * * * * * * * * * * * * * * * * * * * * * //

dimensions      [0 0 0 1 0 0 0];

internalField   nonuniform List<scalar> 
16512
(
1
1
1
1
1
1
1
1
1
1
1
1
1
1
1
1
1
1
1
1
1
1
1
1
1
1
1
1
1
1
1
1
1
1
1
1.17467
2.41411
2.7155
2.72674
2.74253
2.7561
2.76873
2.78002
2.78995
2.79877
2.80601
2.81158
2.81559
1
1
1
1
1
1
1
1
1
1
1
1
1
1
1
1
1
1
1
1
1
1
1
1
1
1
1
1
1
1
1
1
1
1
1
1.15722
2.40022
2.71445
2.72618
2.74121
2.75452
2.76687
2.77784
2.78731
2.79558
2.80226
2.80722
2.81102
1
1
1
1
1
1
1
1
1
1
1
1
1
1
1
1
1
1
1
1
1
1
1
1
1
1
1
1
1
1
1
1
1
1
1
1.10382
2.3627
2.71168
2.72309
2.73824
2.75166
2.76397
2.77478
2.7839
2.7916
2.79763
2.80164
2.80487
1
1
1
1
1
1
1
1
1
1
1
1
1
1
1
1
1
1
1
1
1
1
1
1
1
1
1
1
1
1
1
1
1
1
1
1.00762
2.29462
2.7038
2.71821
2.7336
2.7466
2.75811
2.76828
2.77697
2.78439
2.79009
2.79343
2.79592
1
1
1
1
1
1
1
1
1
1
1
1
1
1
1
1
1
1
1
1
1
1
1
1
1
1
1
1
1
1
1
1
1
1
1
1.00006
2.21275
2.68779
2.7074
2.7234
2.73713
2.74877
2.75869
2.76658
2.77254
2.77671
2.77856
2.7814
1
1
1
1
1
1
1
1
1
1
1
1
1
1
1
1
1
1
1
1
1
1
1
1
1
1
1
1
1
1
1
1
1
1
1
1
2.09862
2.6693
2.69822
2.71295
2.72651
2.73745
2.7464
2.75353
2.7589
2.76211
2.76059
2.75506
1
1
1
1
1
1
1
1
1
1
1
1
1
1
1
1
1
1
1
1
1
1
1
1
1
1
1
1
1
1
1
1
1
1
1
1
1.9406
2.63432
2.68244
2.69847
2.71226
2.72249
2.73003
2.735
2.73647
2.73294
2.72477
2.7176
1
1
1
1
1
1
1
1
1
1
1
1
1
1
1
1
1
1
1
1
1
1
1
1
1
1
1
1
1
1
1
1
1
1
1
1
1.72404
2.56487
2.65581
2.6795
2.6955
2.70582
2.71154
2.71345
2.71044
2.70511
2.69978
2.7109
1
1
1
1
1
1
1
1
1
1
1
1
1
1
1
1
1
1
1
1
1
1
1
1
1
1
1
1
1
1
1
1
1
1
1
1
1.41265
2.44115
2.62933
2.6552
2.67366
2.68518
2.68926
2.68809
2.67971
2.66096
2.60907
2.50803
1
1
1
1
1
1
1
1
1
1
1
1
1
1
1
1
1
1
1
1
1
1
1
1
1
1
1
1
1
1
1
1
1
1
1
1
1.05204
2.30859
2.62963
2.632
2.64272
2.65364
2.65823
2.65493
2.64168
2.6084
2.55052
2.38694
1
1
1
1
1
1
1
1
1
1
1
1
1
1
1
1
1
1
1
1
1
1
1
1
1
1
1
1
1
1
1
1
1
1
1
1
1.00063
2.14104
2.58854
2.59705
2.60835
2.61602
2.62048
2.61593
2.60071
2.56188
2.49685
2.3148
1
1
1
1
1
1
1
1
1
1
1
1
1
1
1
1
1
1
1
1
1
1
1
1
1
1
1
1
1
1
1
1
1
1
1
1
0.999993
1.83466
2.52414
2.5815
2.59
2.58917
2.58775
2.57955
2.56054
2.52176
2.44883
2.28967
1
1
1
1
1
1
1
1
1
1
1
1
1
1
1
1
1
1
1
1
1
1
1
1
1
1
1
1
1
1
1
1
1
1
1
1
0.999998
1.37608
2.38023
2.56291
2.56348
2.562
2.55679
2.5442
2.52116
2.48259
2.40945
2.28748
1
1
1
1
1
1
1
1
1
1
1
1
1
1
1
1
1
1
1
1
1
1
1
1
1
1
1
1
1
1
1
1
1
1
1
1
1
1.0389
2.19507
2.52233
2.53332
2.53246
2.52661
2.5124
2.48819
2.44761
2.37963
2.28827
1
1
1
1
1
1
1
1
1
1
1
1
1
1
1
1
1
1
1
1
1
1
1
1
1
1
1
1
1
1
1
1
1
1
1
1
1
1.00023
1.82959
2.43921
2.51107
2.50819
2.50073
2.48369
2.45918
2.41663
2.3566
2.28338
1
1
1
1
1
1
1
1
1
1
1
1
1
1
1
1
1
1
1
1
1
1
1
1
1
1
1
1
1
1
1
1
1
1
1
1
1
0.999998
1.24243
2.28002
2.49108
2.47797
2.4701
2.45492
2.42891
2.3916
2.33979
2.27815
1
1
1
1
1
1
1
1
1
1
1
1
1
1
1
1
1
1
1
1
1
1
1
1
1
1
1
1
1
1
1
1
1
1
1
1
1
1
1.01363
2.08352
2.44102
2.43178
2.43063
2.42096
2.40038
2.36897
2.32433
2.27161
1
1
1
1
1
1
1
1
1
1
1
1
1
1
1
1
1
1
1
1
1
1
1
1
1
1
1
1
1
1
1
1
1
1
1
1
1
1
1.00001
1.58648
2.32442
2.41228
2.40599
2.39384
2.37447
2.34592
2.30748
2.26306
1
1
1
1
1
1
1
1
1
1
1
1
1
1
1
1
1
1
1
1
1
1
1
1
1
1
1
1
1
1
1
1
1
1
1
1
1
1
0.999998
1.08958
2.11596
2.3906
2.3828
2.36826
2.34779
2.3212
2.28803
2.25061
1
1
1
1
1
1
1
1
1
1
1
1
1
1
1
1
1
1
1
1
1
1
1
1
1
1
1
1
1
1
1
1
1
1
1
1
1
1
0.999999
1.00159
1.66707
2.27739
2.36055
2.34186
2.32242
2.29778
2.26895
2.23617
1
1
1
1
1
1
1
1
1
1
1
1
1
1
1
1
1
1
1
1
1
1
1
1
1
1
1
1
1
1
1
1
1
1
1
1
1
1
1
1
1.13087
2.07759
2.33514
2.31602
2.29975
2.27696
2.25101
2.2213
1
1
1
1
1
1
1
1
1
1
1
1
1
1
1
1
1
1
1
1
1
1
1
1
1
1
1
1
1
1
1
1
1
1
1
1
1
1
1
1
1.00359
1.62773
2.20849
2.29288
2.27348
2.25303
2.23109
2.20575
1
1
1
1
1
1
1
1
1
1
1
1
1
1
1
1
1
1
1
1
1
1
1
1
1
1
1
1
1
1
1
1
1
1
1
1
1
1
1
1
1.00001
1.11937
1.99153
2.26795
2.24899
2.23403
2.21561
2.19314
1
1
1
1
1
1
1
1
1
1
1
1
1
1
1
1
1
1
1
1
1
1
1
1
1
1
1
1
1
1
1
1
1
1
1
1
1
1
1
1
1
1.00307
1.47632
2.10181
2.22653
2.20962
2.19426
2.1755
1
1
1
1
1
1
1
1
1
1
1
1
1
1
1
1
1
1
1
1
1
1
1
1
1
1
1
1
1
1
1
1
1
1
1
1
1
1
1
1
1
1.00001
1.06436
1.83055
2.19531
2.18626
2.17308
2.15674
1
1
1
1
1
1
1
1
1
1
1
1
1
1
1
1
1
1
1
1
1
1
1
1
1
1
1
1
1
1
1
1
1
1
1
1
1
1
1
1
1
1
1.00105
1.29165
2.0028
2.16552
2.14683
2.13138
1
1
1
1
1
1
1
1
1
1
1
1
1
1
1
1
1
1
1
1
1
1
1
1
1
1
1
1
1
1
1
1
1
1
1
1
1
1
1
1
1
1
1
1.02062
1.59354
2.05723
2.13357
2.11623
1
1
1
1
1
1
1
1
1
1
1
1
1
1
1
1
1
1
1
1
1
1
1
1
1
1
1
1
1
1
1
1
1
1
1
1
1
1
1
1
1
1
1
1.00021
1.11762
1.80394
2.10136
2.10034
1
1
1
1
1
1
1
1
1
1
1
1
1
1
1
1
1
1
1
1
1
1
1
1
1
1
1
1
1
1
1
1
1
1
1
1
1
1
1
1
1
1
1
1
1.00342
1.30349
1.91539
2.07732
1
1
1
1
1
1
1
1
1
1
1
1
1
1
1
1
1
1
1
1
1
1
1
1
1
1
1
1
1
1
1
1
1
1
1
1
1
1
1
1
1
1
1
1
1.00002
1.02394
1.49965
1.96093
1
1
1
1
1
1
1
1
1
1
1
1
1
1
1
1
1
1
1
1
1
1
1
1
1
1
1
1
1
1
1
1
1
1
1
1
1
1
1
1
1
1
1
1
1
1.0003
1.0824
1.66457
1
1
1
1
1
1
1
1
1
1
1
1
1
1
1
1
1
1
1
1
1
1
1
1
1
1
1
1
1
1
1
1
1
1
1
1
1
1
1
1
1
1
1
1
1
1
1.00209
1.18949
1
1
1
1
1
1
1
1
1
1
1
1
1
1
1
1
1
1
1
1
1
1
1
1
1
1
1
1
1
1
1
1
1
1
1
1
1
1
1
1
1
1
1
1
1
1
1.00001
1.00945
1
1
1
1
1
1
1
1
1
1
1
1
1
1
1
1
1
1
1
1
1
1
1
1
1
1
1
1
1
1
1
1
1
1
1
1
1
1
1
1
1
1
1
1
1
1
1
1.00009
1
1
1
1
1
1
1
1
1
1
1
1
1
1
1
1
1
1
1
1
1
1
1
1
1
1
1
1
1
1
1
1
1
1
1
1
1
1
1
1
1
1
1
1
1
1
1
1
1
1
1
1
1
1
1
1
1
1
1
1
1
1
1
1
1
1
1
1
1
1
1
1
1
1
1
1
1
1
1
1
1
1
1
1
1
1
1
1
1
1
1
1
1
1
1
1
1
1
1
1
1
1
1
1
1
1
1
1
1
1
1
1
1
1
1
1
1
1
1
1
1
1
1
1
1
1
1
1
1
1
1
1
1
1
1
1
1
1
1
1
1
1
1
1
1
1
1
1
1
1
1
1
1
1
1
1
1
1
1
1
1
1
1
1
1
1
1
1
1
1
1
1
1
1
1
1
1
1
1
1
1
1
1
1
1
1
1
1
1
1
1
1
1
1
1
1
1
1
1
1
1
1
1
1
1
1
1
1
1
1
1
1
1
1
1
1
1
1
1
1
1
1
1
1
1
1
1
1
1
1
1
1
1
1
1
1
1
1
1
1
1
1
1
1
1
1
1
1
1
1
1
1
1
1
1
1
1
1
1
1
1
1
1
1
1
1
1
1
1
1
1
1
1
1
1
1
1
1
1
1
1
1
1
1
1
1
1
1
1
1
1
1
1
1
1
1
1
1
1
1
1
1
1
1
1
1
1
1
1
1
1
1
1
1
1
1
1
1
1
1
1
1
1
1
1
1
1
1
1
1
1
1
1
1
1
1
1
1
1
1
1
1
1
1
1
1
1
1
1
1
1
1
1
1
1
1
1
1
1
1
1
1
1
1
1
1
1
1
1
1
1
1
1
1
1
1
1
1
1
1
1
1
1
1
1
1
1
1
1
1
1
1
1
1
1
1
1
1
1
1
1
1
1
1
1
1
1
1
1
1
1
1
1
1
1
1
1
1
1
1
1
1
1
1
1
1
1
1
1
1
1
1
1
1
1
1
1
1
1
1
1
1
1
1
1
1
1
1
1
1
1
1
1
1
1
1
1
1
1
1
1
1
1
1
1
1
1
1
1
1
1
1
1
1
1
1
1
1
1
1
1
1
1
1
1
1
1
1
1
1
1
1
1
1
1
1
1
1
1
1
1
1
1
1
1
1
1
1
1
1
1
1
1
1
1
1
1
1
1
1
1
1
1
1
1
1
1
1
1
1
1
1
1
1
1
1
1
1
1
1
1
1
1
1
1
1
1
1
1
1
1
1
1
1
1
1
1
1
1
1
1
1
1
1
1
1
1
1
1
1
1
1
1
1
1
1
1
1
1
1
1
1
1
1
1
1
1
1
1
1
1
1
1
1
1
1
1
1
1
1
1
1
1
1
1
1
1
1
1
1
1
1
1
1
1
1
1
1
1
1
1
1
1
1
1
1
1
1
1
1
1
1
1
1
1
1
1
1
1
1
1
1
1
1
1
1
1
1
1
1
1
1
1
1
1
1
1
1
1
1
1
1
1
1
1
1
1
1
1
1
1
1
1
1
1
1
1
1
1
1
1
1
1
1
1
1
1
1
1
1
1
1
1
1
1
1
1
1
1
1
1
1
1
1
1
1
1
1
1
1
1
1
1
1
1
1
1
1
1
1
1
1
1
1
1
1
1
1
1
1
1
1
1
1
1
1
1
1
1
1
1
1
1
1
1
1
1
1
1
1
1
1
1
1
1
1
1
1
1
1
1
1
1
1
1
1
1
1
1
1
1
1
1
1
1
1
1
1
1
1
1
1
1
1
1
1
1
1
1
1
1
1
1
1
1
1
1
1
1
1
1
1
1
1
1
1
1
1
1
1
1
1
1
1
1
1
1
1
1
1
1
1
1
1
1
1
1
1
1
1
1
1
1
1
1
1
1
1
1
1
1
1
1
1
1
1
1
1
1
1
1
1
1
1
1
1
1
1
1
1
1
1
1
1
1
1
1
1
1
1
1
1
1
1
1
1
1
1
1
1
1
1
1
1
1
1
1
1
1
1
1
1
1
1
1
1
1
1
1
1
1
1
1
1
1
1
1
1
1
1
1
1
1
1
1
1
1
1
1
1
1
1
1
1
1
1
1
1
1
1
1
1
1
1
1
1
1
1
1
1
1
1
1
1
1
1
1
1
1
1
1
1
1
1
1
1
1
1
1
1
1
1
1
1
1
1
1
1
1
1
1
1
1
1
1
1
1
1
1
1
1
1
1
1
1
1
1
1
1
1
1
1
1
1
1
1
1
1
1
1
1
1
1
1
1
1
1
1
1
1
1
1
1
1
1
1
1
1
1
1
1
1
1
1
1
1
1
1
1
1
1
1
1
1
1
1
1
1
1
1
1
1
1
1
1
1
1
1
1
1
1
1
1
1
1
1
1
1
1
1
1
1
1
1
1
1
1
1
1
1
1
1
1
1
1
1
1
1
1
1
1
1
1
1
1
1
1
1
1
1
1
1
1
1
1
1
1
1
1
1
1
1
1
1
1
1
1
1
1
1
1
1
1
1
1
1
1
1
1
1
1
1
1
1
1
1
1
1
1
1
1
1
1
1
1
1
1
1
1
1
1
1
1
1
1
1
1
1
1
1
1
1
1
1
1
1
1
1
1
1
1
1
1
1
1
1
1
1
1
1
1
1
1
1
1
1
1
1
1
1
1
1
1
1
1
1
1
1
1
1
1
1
1
1
1
1
1
1
1
1
1
1
1
1
1
1
1
1
1
1
1
1
1
1
1
1
1
1
1
1
1
1
1
1
1
1
1
1
1
1
1
1
1
1
1
1
1
1
1
1
1
1
1
1
1
1
1
1
1
1
1
1
1
1
1
1
1
1
1
1
1
1
1
1
1
1
1
1
1
1
1
1
1
1
1
1
1
1
1
1
1
1
1
1
1
1
1
1
1
1
1
1
1
1
1
1
1
1
1
1
1
1
1
1
1
1
1
1
1
1
1
1
1
1
1
1
1
1
1
1
1
1
1
1
1
1
1
1
1
1
1
1
1
1
1
1
1
1
1
1
1
1
1
1
1
1
1
1
1
1
1
1
1
1
1
1
1
1
1
1
1
1
1
1
1
1
1
1
1
1
1
1
1
1
1
1
1
1
1
1
1
1
1
1
1
1
1
1
1
1
1
1
1
1
1
1
1
1
1
1
1
1
1
1
1
1
1
1
1
1
1
1
1
1
1
1
1
1
1
1
1
1
1
1
1
1
1
1
1
1
1
1
1
1
1
1
1
1
1
1
1
1
1
1
1
1
1
1
1
1
1
1
1
1
1
1
1
1
1
1
1
1
1
1
1
1
1
1
1
1
1
1
1
1
1
1
1
1
1
1
1
1
1
1
1
1
1
1
1
1
1
1
1
1
1
1
1
1
1
1
1
1
1
1
1
1
1
1
1
1
1
1
1
1
1
1
1
1
1
1
1
1
1
1
1
1
1
1
1
1
1
1
1
1
1
1
1
1
1
1
1
1
1
1
1
1
1
1
1
1
1
1
1
1
1
1
1
1
1
1
1
1
1
1
1
1
1
1
1
1
1
1
1
1
1
1
1
1
1
1
1
1
1
1
1
1
1
1
1
1
1
1
1
1
1
1
1
1
1
1
1
1
1
1
1
1
1
1
1
1
1
1
1
1
1
1
1
1
1
1
1
1
1
1
1
1
1
1
1
1
1
1
1
1
1
1
1
1
1
1
1
1
1
1
1
1
1
1
1
1
1
1
1
1
1
1
1
1
1
1
1
1
1
1
1
1
1
1
1
1
1
1
1
1
1
1
1
1
1
1
1
1
1
1
1
1
1
1
1
1
1
1
1
1
1
1
1
1
1
1
1
1
1
1
1
1
1
1
1
1
1
1
1
1
1
1
1
1
1
1
1
1
1
1
1
1
1
1
1
1
1
1
1
1
1
1
1
1
1
1
1
1
1
1
1
1
1
1
1
1
1
1
1
1
1
1
1
1
1
1
1
1
1
1
1
1
1
1
1
1
1
1
1
1
1
1
1
1
1
1
1
1
1
1
1
1
1
1
1
1
1
1
1
1
1
1
1
1
1
1
1
1
1
1
1
1
1
1
1
1
1
1
1
1
1
1
1
1
1
1
1
1
1
1
1
1
1
1
1
1
1
1
1
1
1
1
1
1
1
1
1
1
1
1
1
1
1
1
1
1
1
1
1
1
1
1
1
1
1
1
1
1
1
1
1
1
1
1
1
1
1
1
1
1
1
1
1
1
1
1
1
1
1
1
1
1
1
1
1
1
1
1
1
1
1
1
1
1
1
1
1
1
1
1
1
1
1
1
1
1
1
1
1
1
1
1
1
1
1
1
1
1
1
1
1
1
1
1
1
1
1
1
1
1
1
1
1
1
1
1
1
1
1
1
1
1
1
1
1
1
1
1
1
1
1
1
1
1
1
1
1
1
1
1
1
1
1
1
1
1
1
1
1
1
1
1
1
1
1
1
1
1
1
1
1
1
1
1
1
1
1
1
1
1
1
1
1
1
1
1
1
1
1
1
1
1
1
1
1
1
1
1
1
1
1
1
1
1
1
1
1
1
1
1
1
1
1
1
1
1
1
1
1
1
1
1
1
1
1
1
1
1
1
1
1
1
1
1
1
1
1
1
1
1
1
1
1
1
1
1
1
1
1
1
1
1
1
1
1
1
1
1
1
1
1
1
1
1
1
1
1
1
1
1
1
1
1
1
1
1
1
1
1
1
1
1
1
1
1
1
1
1
1
1
1
1
1
1
1
1
1
1
1
1
1
1
1
1
1
1
1
1
1
1
1
1
1
1
1
1
1
1
1
1
1
1
1
1
1
1
1
1
1
1
1
1
1
1
1
1
1
1
1
1
1
1
1
1
1
1
1
1
1
1
1
1
1
1
1
1
1
1
1
1
1
1
1
1
1
1
1
1
1
1
1
1
1
1
1
1
1
1
1
1
1
1
1
1
1
1
1
1
1
1
1
1
1
1
1.6911
1.20947
0.958143
0.959953
1.08148
1.22733
1.35869
1.45985
1.53939
1.57636
1.58479
1.61241
1.68428
1.74675
1.74857
1.73493
1.7209
1.72039
1.72893
1.729
1.71439
1.69807
1.69851
1.70471
1.71086
1.71115
1.70982
1.70661
1.70438
1.97052
2.61791
2.74424
2.77483
2.79173
2.79795
2.80374
2.81431
2.8249
2.82948
2.82671
2.82155
2.82208
2.82743
2.83218
2.83466
2.8372
2.84068
2.8426
1.91507
1.64843
1.51462
1.32013
1.26931
1.27931
1.28969
1.29443
1.29127
1.31422
1.35047
1.39937
1.46715
1.52631
1.56448
1.5891
1.60426
1.61846
1.64157
1.65603
1.65592
1.6542
1.65577
1.66033
1.66697
1.67039
1.67305
1.67287
1.67179
1.87078
2.55123
2.7208
2.76146
2.78407
2.7932
2.79976
2.81056
2.82294
2.82969
2.82819
2.82335
2.82318
2.82776
2.83233
2.835
2.83768
2.84106
2.84297
2.03179
1.82008
1.6842
1.55417
1.45728
1.40085
1.33339
1.28344
1.24662
1.22794
1.24568
1.28947
1.32302
1.35012
1.3812
1.42121
1.45698
1.48527
1.51623
1.54539
1.57138
1.58539
1.5929
1.59616
1.60034
1.60361
1.6053
1.60533
1.60519
1.65851
2.38206
2.65548
2.71881
2.75175
2.76875
2.78123
2.79406
2.80809
2.81866
2.82195
2.82093
2.82098
2.82452
2.82907
2.83274
2.83638
2.84002
2.842
2.09933
1.94638
1.80622
1.68862
1.60629
1.52892
1.45974
1.3987
1.36151
1.32237
1.2952
1.2832
1.27491
1.27645
1.28522
1.30152
1.33265
1.37506
1.40763
1.43704
1.46653
1.49041
1.5092
1.52116
1.53576
1.54521
1.55165
1.55396
1.55332
1.55828
2.162
2.56501
2.64744
2.68635
2.71208
2.73399
2.75623
2.77799
2.79568
2.80724
2.81295
2.81549
2.81883
2.82368
2.82915
2.83458
2.83897
2.84084
2.14472
2.02425
1.90546
1.78974
1.71389
1.63881
1.56099
1.50566
1.45461
1.41601
1.38179
1.34966
1.31877
1.29276
1.28152
1.28397
1.28981
1.30375
1.32209
1.34905
1.3814
1.41795
1.44585
1.46656
1.48411
1.49514
1.50392
1.50871
1.51575
1.51882
1.87709
2.45864
2.5826
2.60652
2.63305
2.66224
2.69244
2.72128
2.74778
2.77012
2.78597
2.79614
2.80409
2.812
2.82055
2.82864
2.83393
2.83521
2.18324
2.07847
1.98119
1.88307
1.7961
1.72568
1.65172
1.5955
1.54673
1.49791
1.46252
1.42835
1.39896
1.37097
1.34563
1.32235
1.3073
1.30932
1.30673
1.30759
1.31435
1.33653
1.36331
1.39417
1.42195
1.44592
1.4679
1.47834
1.48949
1.49433
1.59983
2.34875
2.55824
2.55198
2.56515
2.58725
2.61637
2.64883
2.68102
2.71236
2.74012
2.76249
2.77937
2.79294
2.80601
2.81854
2.82804
2.82858
2.20318
2.11588
2.02894
1.94965
1.86985
1.79793
1.7302
1.66834
1.61994
1.57469
1.53588
1.49843
1.46139
1.42889
1.3991
1.37223
1.34693
1.33618
1.32636
1.31295
1.31272
1.31575
1.31997
1.32679
1.34024
1.36896
1.40216
1.43091
1.45682
1.47277
1.49381
2.26617
2.55701
2.5396
2.54256
2.55143
2.56333
2.58527
2.61223
2.64386
2.6751
2.70458
2.73148
2.75454
2.77414
2.79226
2.80447
2.81673
2.2112
2.13665
2.06544
1.99508
1.92135
1.8519
1.79453
1.73628
1.6831
1.63801
1.5977
1.55831
1.52343
1.49389
1.46453
1.43196
1.40313
1.38632
1.37182
1.35468
1.33807
1.33211
1.32348
1.31216
1.3117
1.31677
1.32965
1.35619
1.3876
1.42624
1.44166
2.15875
2.56417
2.54615
2.53116
2.53336
2.54324
2.55635
2.57069
2.58754
2.61124
2.64126
2.672
2.7015
2.72759
2.75411
2.78455
2.84321
2.21274
2.14818
2.08765
2.02422
1.95547
1.89794
1.84236
1.78701
1.73335
1.69426
1.65221
1.61006
1.57219
1.54575
1.51528
1.48601
1.45903
1.43901
1.41693
1.39197
1.36888
1.3527
1.33743
1.32234
1.314
1.3158
1.3182
1.32202
1.32991
1.35395
1.36854
2.0033
2.57703
2.56701
2.55105
2.54755
2.54767
2.54751
2.54996
2.55474
2.56565
2.58287
2.60822
2.63723
2.66548
2.68344
2.6781
2.62939
2.21116
2.15592
2.10171
2.04393
1.9845
1.93261
1.88081
1.82605
1.77924
1.73915
1.698
1.65552
1.62034
1.59164
1.56126
1.52851
1.50317
1.48363
1.46206
1.43948
1.41721
1.39812
1.37844
1.35926
1.34185
1.33745
1.3301
1.32295
1.32184
1.32121
1.32098
1.69851
2.54537
2.59744
2.58473
2.57805
2.56871
2.56228
2.55679
2.549
2.54495
2.54982
2.55916
2.57456
2.59021
2.59732
2.56695
2.47984
2.20616
2.15881
2.11032
2.05754
2.0067
1.95898
1.91043
1.85878
1.81699
1.77667
1.7364
1.69514
1.66132
1.63028
1.60004
1.57005
1.54474
1.52136
1.49667
1.47273
1.45299
1.43533
1.41717
1.39734
1.37814
1.36426
1.35042
1.33561
1.32551
1.32009
1.31601
1.35396
2.38343
2.62002
2.61304
2.61049
2.59943
2.58703
2.57464
2.56054
2.54872
2.53933
2.53587
2.53091
2.52843
2.5131
2.47367
2.37218
2.19802
2.15785
2.11488
2.0677
2.02441
1.98087
1.93301
1.88663
1.84889
1.80918
1.76845
1.72861
1.69851
1.66542
1.63427
1.60296
1.58092
1.55641
1.5324
1.50979
1.48924
1.4683
1.4482
1.42967
1.41473
1.40102
1.38547
1.36875
1.353
1.34309
1.33013
1.32364
2.05294
2.58622
2.62235
2.62169
2.61368
2.6042
2.59385
2.58031
2.56379
2.54809
2.53455
2.51317
2.48564
2.45449
2.40349
2.31462
2.18789
2.15363
2.11457
2.0733
2.03527
1.99491
1.94882
1.90958
1.87275
1.83453
1.79219
1.7593
1.7284
1.69611
1.66282
1.63499
1.61244
1.58641
1.5615
1.53917
1.52202
1.50026
1.47988
1.458
1.44379
1.42866
1.41161
1.39485
1.38011
1.36871
1.35401
1.33382
1.58733
2.42423
2.59563
2.61293
2.61289
2.61065
2.60651
2.59818
2.58599
2.56744
2.54482
2.51533
2.47815
2.43098
2.36763
2.28707
2.17719
2.147
2.11186
2.07543
2.04095
2.00298
1.96133
1.92667
1.89124
1.85352
1.81422
1.7854
1.75374
1.72287
1.68865
1.66486
1.64038
1.61521
1.58903
1.5675
1.54834
1.52693
1.50653
1.4868
1.4732
1.45735
1.44123
1.42253
1.40859
1.39641
1.3827
1.36053
1.37525
2.13089
2.52414
2.57926
2.59852
2.60157
2.60569
2.60409
2.5976
2.58355
2.55886
2.52454
2.48331
2.43272
2.36785
2.29255
2.16725
2.13928
2.10694
2.07399
2.0422
2.0064
1.96984
1.93811
1.90507
1.86675
1.83363
1.80626
1.7758
1.74389
1.71245
1.69074
1.66467
1.63987
1.6125
1.59283
1.57256
1.55128
1.53062
1.51189
1.49751
1.48025
1.46418
1.44787
1.4352
1.42123
1.4067
1.38741
1.3715
1.65254
2.36065
2.51512
2.55836
2.58015
2.59066
2.59571
2.59347
2.58208
2.56236
2.53239
2.49248
2.4424
2.37923
2.31042
2.15273
2.12775
2.09957
2.06977
2.04028
2.00739
1.97514
1.94576
1.91474
1.87757
1.84966
1.8225
1.794
1.75988
1.73493
1.71231
1.68638
1.65951
1.63349
1.61593
1.59434
1.57397
1.55119
1.53597
1.52078
1.50331
1.48562
1.46869
1.45742
1.44311
1.42867
1.4135
1.39316
1.41497
2.0967
2.43016
2.50166
2.53041
2.55411
2.56874
2.57486
2.57026
2.55584
2.53078
2.49843
2.4561
2.40028
2.33878
2.13692
2.1148
2.09064
2.0642
2.03678
2.00747
1.97842
1.95133
1.92136
1.88797
1.86171
1.83647
1.8078
1.77465
1.75312
1.72923
1.70493
1.67587
1.65433
1.63586
1.61395
1.59332
1.57142
1.55737
1.54029
1.52303
1.50472
1.48972
1.47706
1.46197
1.44623
1.43117
1.41784
1.40688
1.63835
2.2838
2.43536
2.46896
2.5006
2.52499
2.54295
2.54372
2.5352
2.52092
2.49578
2.46313
2.42003
2.36865
2.11551
2.09669
2.07654
2.0551
2.03088
2.00429
1.97807
1.95305
1.92525
1.89567
1.8702
1.84595
1.81667
1.78771
1.76673
1.74399
1.71897
1.68963
1.67213
1.65254
1.63222
1.60898
1.58998
1.5763
1.55807
1.54108
1.52128
1.50807
1.49441
1.47934
1.46386
1.44973
1.44036
1.42062
1.43676
2.04004
2.35337
2.41643
2.44152
2.46549
2.48659
2.49835
2.50122
2.49414
2.48197
2.45942
2.42513
2.38242
2.09871
2.08162
2.0639
2.0447
2.0232
2.00009
1.97707
1.9526
1.92624
1.90064
1.87744
1.85269
1.8241
1.79847
1.77801
1.7563
1.73017
1.70452
1.68763
1.66779
1.64766
1.62293
1.60778
1.59266
1.57475
1.55647
1.53752
1.52568
1.51044
1.49569
1.47899
1.46641
1.45806
1.44202
1.42835
1.62645
2.20999
2.36043
2.3855
2.41015
2.4306
2.44803
2.4575
2.45889
2.45445
2.44155
2.41666
2.38035
2.08423
2.06712
2.05023
2.03207
2.01185
1.99191
1.97141
1.94898
1.92423
1.90191
1.87926
1.85528
1.82877
1.80709
1.78707
1.76508
1.73874
1.71711
1.70032
1.68109
1.65977
1.63646
1.62269
1.60609
1.58901
1.56881
1.55271
1.5405
1.5248
1.51043
1.49328
1.48233
1.47243
1.45921
1.43765
1.45203
1.94308
2.28505
2.34618
2.3612
2.37712
2.39141
2.40211
2.40928
2.40857
2.40303
2.38982
2.36693
2.06708
2.04991
2.03407
2.01686
1.99901
1.98192
1.96293
1.9417
1.92016
1.90127
1.8796
1.85662
1.83234
1.81395
1.79332
1.77151
1.7463
1.72838
1.71101
1.69192
1.66934
1.64969
1.63601
1.61871
1.60138
1.58007
1.56699
1.55389
1.53868
1.52348
1.5072
1.49758
1.48558
1.4736
1.45547
1.4451
1.58186
2.13061
2.29372
2.32209
2.33573
2.34355
2.34989
2.3567
2.35953
2.35736
2.35021
2.33739
2.05259
2.03693
2.01923
2.00269
1.98705
1.97114
1.95396
1.93371
1.91578
1.89743
1.87768
1.85524
1.83537
1.81755
1.79669
1.77488
1.75223
1.73705
1.71893
1.70008
1.67723
1.66111
1.64637
1.62913
1.61086
1.59129
1.57975
1.56526
1.55069
1.53376
1.52022
1.51068
1.49766
1.48468
1.47032
1.45298
1.46045
1.82071
2.20141
2.29705
2.29836
2.30118
2.30432
2.3087
2.31092
2.30924
2.30354
2.29412
1.97672
2.0296
2.01174
1.9904
1.97523
1.96005
1.94285
1.92454
1.90898
1.89111
1.87293
1.85135
1.83532
1.81693
1.79783
1.77601
1.75798
1.74294
1.7243
1.70512
1.68368
1.67044
1.65461
1.63803
1.61838
1.60225
1.59078
1.5756
1.56128
1.54354
1.5327
1.52189
1.5087
1.49503
1.48147
1.46892
1.45699
1.53132
2.02959
2.2569
2.26292
2.26317
2.26488
2.26721
2.2667
2.26367
2.25752
2.24915
1.75944
1.98278
2.0011
1.98293
1.96543
1.94972
1.93217
1.91701
1.90114
1.88457
1.86544
1.848
1.8336
1.81527
1.79739
1.77612
1.76234
1.74567
1.72781
1.70764
1.68977
1.6773
1.66068
1.64459
1.62475
1.61222
1.59958
1.58457
1.56931
1.55277
1.54352
1.5311
1.5183
1.50262
1.49109
1.48251
1.46343
1.46496
1.71095
2.1321
2.23592
2.2339
2.23722
2.23669
2.23336
2.22731
2.2192
2.21016
1.31195
1.81037
1.97325
1.97121
1.95704
1.93966
1.92317
1.90949
1.89395
1.87801
1.85875
1.84516
1.82903
1.81256
1.79399
1.77639
1.76329
1.74565
1.729
1.70827
1.69509
1.68164
1.6654
1.64859
1.63037
1.62012
1.60619
1.59212
1.57551
1.56191
1.55237
1.5387
1.52613
1.51019
1.50012
1.49218
1.47683
1.46223
1.49789
1.91345
2.17141
2.21943
2.21472
2.21034
2.20438
2.19693
2.18803
2.17847
1.02835
1.4187
1.84367
1.95176
1.94686
1.92927
1.91361
1.90088
1.88702
1.86972
1.85403
1.84096
1.82421
1.80897
1.78905
1.77632
1.76189
1.74518
1.7284
1.70976
1.69895
1.68381
1.66874
1.65037
1.63609
1.6259
1.61139
1.59775
1.58026
1.5699
1.55904
1.54537
1.53221
1.51696
1.50859
1.49937
1.48701
1.46752
1.46865
1.61158
2.02366
2.18535
2.18461
2.18127
2.17691
2.17108
2.16321
2.15391
1.00044
1.06072
1.51082
1.85645
1.9328
1.92294
1.90486
1.89169
1.87819
1.861
1.84901
1.8348
1.82012
1.80313
1.78695
1.77567
1.75892
1.74433
1.72568
1.71193
1.70066
1.68492
1.67058
1.65182
1.64114
1.62954
1.61552
1.60088
1.58461
1.57596
1.56371
1.55111
1.53653
1.52401
1.51594
1.50495
1.49423
1.47767
1.46842
1.48095
1.76279
2.08047
2.15999
2.15646
2.15487
2.15149
2.14462
2.13506
1
1.00141
1.10631
1.57901
1.85705
1.91384
1.90087
1.88503
1.86767
1.85277
1.842
1.82841
1.81467
1.79648
1.78573
1.77243
1.75669
1.74207
1.72352
1.7139
1.7001
1.68546
1.67047
1.65421
1.64527
1.63188
1.61858
1.60194
1.58875
1.58025
1.56756
1.5558
1.54015
1.53061
1.52203
1.51021
1.49903
1.48582
1.47488
1.46829
1.52942
1.8991
2.09524
2.13976
2.1352
2.13059
2.12369
2.11451
1
1.00001
1.00361
1.15858
1.62595
1.85109
1.89463
1.88379
1.86161
1.84565
1.83447
1.82229
1.80619
1.79126
1.78236
1.76799
1.7551
1.73746
1.72429
1.71416
1.69836
1.68573
1.66887
1.65746
1.64757
1.63302
1.62017
1.60281
1.59293
1.5834
1.57108
1.55882
1.54371
1.5362
1.52639
1.51539
1.50235
1.49116
1.48347
1.46868
1.47022
1.62901
1.96621
2.10254
2.10981
2.10498
2.09883
2.09165
1
1
1.00003
1.00769
1.20901
1.65967
1.83982
1.87557
1.86069
1.84138
1.82851
1.81604
1.79884
1.78791
1.77745
1.76428
1.75086
1.73342
1.72476
1.71201
1.69786
1.68434
1.66772
1.65992
1.64728
1.63372
1.62043
1.60468
1.5971
1.58577
1.57401
1.56043
1.54756
1.5406
1.52994
1.51955
1.50554
1.49553
1.48953
1.47602
1.46226
1.48183
1.73695
2.0053
2.08522
2.08094
2.07521
2.07005
1
1
1
1.00008
1.01344
1.25875
1.6761
1.82589
1.85461
1.8417
1.82715
1.81114
1.795
1.7857
1.77292
1.76042
1.74384
1.73132
1.72318
1.70918
1.69735
1.68023
1.66887
1.66042
1.64605
1.63468
1.61915
1.60825
1.6003
1.58728
1.57627
1.56127
1.55177
1.54421
1.53303
1.52264
1.5082
1.50014
1.4931
1.48236
1.46416
1.46485
1.52684
1.83231
2.01159
2.06286
2.05709
2.05047
1
1
1
1
1.00016
1.02195
1.29818
1.68188
1.81152
1.83761
1.82854
1.80893
1.79275
1.78223
1.7692
1.75623
1.73875
1.73062
1.72004
1.70699
1.6943
1.67713
1.66995
1.65905
1.64606
1.63438
1.6185
1.61166
1.60107
1.58851
1.57725
1.56249
1.55596
1.54676
1.53572
1.52446
1.51096
1.50412
1.4956
1.48649
1.47124
1.46192
1.46623
1.59364
1.88673
2.01248
2.0365
2.03012
1
1
1
1
1
1.00034
1.03064
1.32166
1.67695
1.79915
1.8246
1.81014
1.79078
1.77752
1.76636
1.75155
1.73843
1.73025
1.71681
1.70509
1.689
1.67695
1.67007
1.65718
1.64644
1.63166
1.62007
1.61335
1.60059
1.59002
1.57643
1.56538
1.55934
1.54805
1.53789
1.52498
1.51419
1.50785
1.49802
1.48926
1.47704
1.46588
1.46005
1.47432
1.66964
1.91323
2.00816
2.00699
1
1
1
1
1
1
1.00055
1.03786
1.34078
1.6741
1.79545
1.805
1.7906
1.77655
1.76386
1.74706
1.73871
1.72821
1.7147
1.70244
1.68568
1.67887
1.66925
1.65634
1.64555
1.62912
1.62212
1.61331
1.60091
1.59065
1.57548
1.56893
1.56096
1.54906
1.53929
1.52502
1.51794
1.51074
1.50051
1.49125
1.47968
1.47214
1.46116
1.45748
1.49916
1.73254
1.92538
1.9866
1
1
1
1
1
1
1
1.00077
1.04633
1.34714
1.67969
1.77608
1.78518
1.77713
1.76234
1.74507
1.73729
1.72479
1.71321
1.69786
1.68619
1.68026
1.66774
1.65679
1.64303
1.62937
1.62363
1.61228
1.6016
1.58928
1.57661
1.57156
1.56118
1.55076
1.5392
1.52667
1.5216
1.51236
1.50287
1.49263
1.48134
1.47689
1.46673
1.45256
1.45465
1.53545
1.78338
1.92512
1
1
1
1
1
1
1
1
1.00107
1.05038
1.35421
1.67072
1.75411
1.77254
1.76366
1.74561
1.73349
1.72186
1.7103
1.69473
1.68852
1.68021
1.66759
1.65696
1.64003
1.63204
1.62426
1.61168
1.60207
1.58731
1.57925
1.573
1.56162
1.55234
1.53836
1.53038
1.52435
1.51366
1.5051
1.49278
1.48455
1.47947
1.47085
1.45588
1.44784
1.45654
1.58039
1.81628
1
1
1
1
1
1
1
1
1.00001
1.00127
1.05345
1.35876
1.65419
1.74072
1.76
1.74863
1.7328
1.72088
1.70637
1.69519
1.68979
1.67912
1.66833
1.65412
1.63968
1.6341
1.62319
1.61235
1.60212
1.58758
1.58237
1.57357
1.56276
1.55248
1.53889
1.53399
1.52591
1.51576
1.50636
1.49344
1.48826
1.48108
1.47248
1.46165
1.44904
1.44712
1.46443
1.6281
1
1
1
1
1
1
1
1
1
1.00001
1.00144
1.05573
1.35293
1.63277
1.72632
1.74639
1.73685
1.72325
1.70538
1.69634
1.68946
1.67888
1.66746
1.6495
1.64182
1.63424
1.62225
1.61439
1.60119
1.59111
1.58532
1.57371
1.5641
1.55145
1.54147
1.53672
1.52686
1.51804
1.50615
1.49633
1.49162
1.48239
1.47444
1.46391
1.4545
1.44588
1.44657
1.48289
1
1
1
1
1
1
1
1
1
1
1.00001
1.00153
1.05384
1.33658
1.6039
1.71766
1.73636
1.72727
1.70882
1.69758
1.68871
1.67886
1.66307
1.64971
1.64313
1.63195
1.62281
1.61513
1.60128
1.59588
1.58681
1.57459
1.56518
1.55067
1.54468
1.53842
1.52815
1.51958
1.50632
1.50023
1.49416
1.48446
1.47626
1.46441
1.45882
1.45178
1.44055
1.44226
1
1
1
1
1
1
1
1
1
1
1
1.00001
1.00141
1.04979
1.30626
1.59344
1.715
1.72414
1.71346
1.6989
1.68911
1.6764
1.65962
1.65173
1.64246
1.63123
1.62506
1.61308
1.6045
1.59885
1.58608
1.57598
1.56474
1.55189
1.54794
1.5394
1.53008
1.52029
1.50848
1.50398
1.49599
1.48704
1.47696
1.46592
1.46282
1.45663
1.44331
1.43432
1
1
1
1
1
1
1
1
1
1
1
1
1.00001
1.00124
1.04336
1.27804
1.59915
1.69399
1.70811
1.70237
1.69198
1.67264
1.65884
1.6512
1.64042
1.63347
1.62553
1.61341
1.60934
1.59942
1.5861
1.57718
1.56216
1.55497
1.55026
1.54013
1.53233
1.52073
1.51252
1.50734
1.49767
1.48922
1.47716
1.46918
1.46614
1.45938
1.44901
1.43284
1
1
1
1
1
1
1
1
1
1
1
1
1
1.00001
1.0011
1.03506
1.27555
1.58127
1.66866
1.69296
1.69066
1.67502
1.66123
1.65122
1.6421
1.63599
1.62356
1.61749
1.6112
1.59751
1.58757
1.57673
1.56195
1.55886
1.55165
1.54197
1.53367
1.52142
1.51662
1.50952
1.49929
1.49108
1.47852
1.47343
1.46924
1.46165
1.45249
1.43814
1
1
1
1
1
1
1
1
1
1
1
1
1
1
1.00001
1.00088
1.03258
1.27791
1.53576
1.64488
1.68532
1.68026
1.66731
1.65588
1.64905
1.63623
1.62615
1.62154
1.6097
1.59674
1.58884
1.57353
1.56571
1.56256
1.55283
1.54455
1.53326
1.52401
1.5201
1.51054
1.50149
1.4926
1.48116
1.47798
1.47216
1.46333
1.45407
1.44215
1
1
1
1
1
1
1
1
1
1
1
1
1
1
1
1.00001
1.00079
1.03272
1.2357
1.46978
1.63737
1.6839
1.68065
1.66822
1.65389
1.63683
1.63151
1.62143
1.60658
1.59831
1.58871
1.57315
1.57083
1.56508
1.55465
1.54585
1.53228
1.52759
1.52282
1.51236
1.50455
1.4931
1.4849
1.48191
1.47388
1.46459
1.45513
1.44512
1
1
1
1
1
1
1
1
1
1
1
1
1
1
1
1
1
1.00068
1.02243
1.16315
1.44147
1.64955
1.67312
1.66678
1.65664
1.64234
1.63175
1.6165
1.60591
1.60074
1.58822
1.57862
1.57579
1.56565
1.55588
1.54527
1.5331
1.53116
1.5256
1.5163
1.50708
1.49347
1.4888
1.4843
1.47439
1.46634
1.45644
1.44903
1
1
1
1
1
1
1
1
1
1
1
1
1
1
1
1
1
1
1.00035
1.01167
1.13234
1.46306
1.62547
1.64763
1.65084
1.64494
1.62997
1.61349
1.60873
1.60433
1.59115
1.58631
1.57925
1.56514
1.55597
1.545
1.53572
1.53443
1.52938
1.52089
1.50771
1.49478
1.49131
1.48485
1.47569
1.46925
1.4589
1.45446
1
1
1
1
1
1
1
1
1
1
1
1
1
1
1
1
1
1
1
1.00017
1.00914
1.13675
1.44464
1.57745
1.62214
1.64339
1.63348
1.62248
1.61804
1.6073
1.59567
1.59188
1.57881
1.56339
1.5563
1.54775
1.5408
1.53901
1.53361
1.52289
1.50631
1.49574
1.4923
1.48548
1.47938
1.47241
1.46356
1.46072
1
1
1
1
1
1
1
1
1
1
1
1
1
1
1
1
1
1
1
1
1.00016
1.00874
1.13158
1.37586
1.52245
1.61773
1.64559
1.64018
1.62615
1.60836
1.60048
1.59504
1.57589
1.56373
1.55984
1.55349
1.54774
1.54491
1.53669
1.5226
1.5045
1.49607
1.49314
1.48854
1.4846
1.47579
1.47038
1.46564
1
1
1
1
1
1
1
1
1
1
1
1
1
1
1
1
1
1
1
1
1
1.00013
1.00724
1.0861
1.26899
1.50541
1.63405
1.63566
1.62526
1.61202
1.60636
1.59377
1.57302
1.56802
1.56686
1.56135
1.55587
1.55012
1.53678
1.52013
1.5031
1.49758
1.49614
1.49458
1.48934
1.4814
1.47621
1.46634
1
1
1
1
1
1
1
1
1
1
1
1
1
1
1
1
1
1
1
1
1
1
1.00007
1.00301
1.04001
1.22602
1.52869
1.61012
1.61632
1.61089
1.60546
1.59003
1.5748
1.57498
1.57461
1.56899
1.56278
1.55235
1.53324
1.51736
1.50464
1.50152
1.50234
1.50154
1.49459
1.48782
1.47758
1.46284
1
1
1
1
1
1
1
1
1
1
1
1
1
1
1
1
1
1
1
1
1
1
1
1.00002
1.00114
1.0283
1.2304
1.50531
1.57528
1.59034
1.60211
1.59276
1.58501
1.58495
1.58215
1.57314
1.56538
1.55009
1.52746
1.51705
1.512
1.50977
1.51014
1.50763
1.50099
1.48979
1.47319
1.46005
1
1
1
1
1
1
1
1
1
1
1
1
1
1
1
1
1
1
1
1
1
1
1
1
1.00001
1.00084
1.0269
1.21996
1.43573
1.52611
1.58141
1.60658
1.60341
1.59636
1.58415
1.57237
1.56536
1.54506
1.52479
1.52209
1.52227
1.52118
1.5185
1.51451
1.50409
1.48486
1.46691
1.46356
1
1
1
1
1
1
1
1
1
1
1
1
1
1
1
1
1
1
1
1
1
1
1
1
1
1.00001
1.00074
1.02197
1.15187
1.32827
1.50061
1.59941
1.60673
1.59899
1.58416
1.57363
1.56473
1.54008
1.52969
1.53094
1.53193
1.53045
1.52675
1.51994
1.50022
1.47612
1.46959
1.4703
1
1
1
1
1
1
1
1
1
1
1
1
1
1
1
1
1
1
1
1
1
1
1
1
1
1
1
1.00039
1.00921
1.07471
1.26359
1.52186
1.59385
1.59063
1.58178
1.57424
1.56099
1.54079
1.53957
1.54094
1.54077
1.53784
1.53167
1.51855
1.49084
1.47686
1.47791
1.47714
1
1
1
1
1
1
1
1
1
1
1
1
1
1
1
1
1
1
1
1
1
1
1
1
1
1
1
1
1.00009
1.00303
1.04491
1.25751
1.50508
1.56247
1.56395
1.5674
1.56017
1.54975
1.55122
1.55154
1.54898
1.54109
1.53213
1.51076
1.48644
1.4851
1.48646
1.4847
1
1
1
1
1
1
1
1
1
1
1
1
1
1
1
1
1
1
1
1
1
1
1
1
1
1
1
1
1
1.00003
1.00171
1.03751
1.2343
1.45327
1.51615
1.54356
1.56618
1.5677
1.56583
1.56102
1.55132
1.54028
1.5292
1.5037
1.49227
1.49449
1.49462
1.49371
1
1
1
1
1
1
1
1
1
1
1
1
1
1
1
1
1
1
1
1
1
1
1
1
1
1
1
1
1
1
1.00002
1.0013
1.02921
1.1798
1.36093
1.47308
1.55323
1.57948
1.57519
1.56376
1.54882
1.5386
1.52604
1.504
1.50212
1.50405
1.50388
1.50222
1
1
1
1
1
1
1
1
1
1
1
1
1
1
1
1
1
1
1
1
1
1
1
1
1
1
1
1
1
1
1
1.00001
1.00077
1.01474
1.10306
1.27117
1.46721
1.57389
1.57066
1.56174
1.54975
1.54148
1.52623
1.51105
1.5111
1.51238
1.51168
1.50816
1
1
1
1
1
1
1
1
1
1
1
1
1
1
1
1
1
1
1
1
1
1
1
1
1
1
1
1
1
1
1
1
1
1.00021
1.00501
1.05238
1.22654
1.46426
1.55381
1.55064
1.54301
1.54006
1.5298
1.51937
1.51936
1.52005
1.51828
1.5114
1
1
1
1
1
1
1
1
1
1
1
1
1
1
1
1
1
1
1
1
1
1
1
1
1
1
1
1
1
1
1
1
1
1
1.00005
1.00196
1.0323
1.18771
1.43434
1.513
1.52232
1.53234
1.53287
1.52924
1.52879
1.52844
1.52252
1.51102
1
1
1
1
1
1
1
1
1
1
1
1
1
1
1
1
1
1
1
1
1
1
1
1
1
1
1
1
1
1
1
1
1
1
1
1.00002
1.00098
1.02083
1.15848
1.38003
1.46194
1.50449
1.53723
1.54588
1.54216
1.53345
1.52032
1.50936
1
1
1
1
1
1
1
1
1
1
1
1
1
1
1
1
1
1
1
1
1
1
1
1
1
1
1
1
1
1
1
1
1
1
1
1
1.00001