/*--------------------------------*- C++ -*----------------------------------*\
  =========                 |
  \\      /  F ield         | OpenFOAM: The Open Source CFD Toolbox
   \\    /   O peration     | Website:  https://openfoam.org
    \\  /    A nd           | Version:  7
     \\/     M anipulation  |
\*---------------------------------------------------------------------------*/
FoamFile
{
    version     2.0;
    format      ascii;
    class       volScalarField;
    location    "1.3";
    object      T;
}
// * * * * * * * * * * * * * * * * * * * * * * * * * * * * * * * * * * * * * //

dimensions      [0 0 0 1 0 0 0];

internalField   nonuniform List<scalar> 
16192
(
2.01759
2.01388
2.00866
2.00452
2.00114
1.99986
2.00153
2.00243
2.00379
2.00395
2.00219
1.99784
1.99134
1.98323
1.97409
1.96461
1.95508
1.94583
1.93705
1.92855
1.92017
2.01496
2.01039
2.00466
1.99976
1.99586
1.99261
1.9943
1.99558
1.99764
1.99856
1.99765
1.99483
1.98954
1.98221
1.97349
1.96422
1.9547
1.94542
1.93652
1.92789
1.91957
2.01133
2.00632
2.00072
1.99568
1.9911
1.98703
1.98713
1.98839
1.99093
1.99256
1.99207
1.99053
1.98711
1.98108
1.97303
1.96399
1.95444
1.94502
1.93598
1.92721
1.9189
2.00774
2.00259
1.99722
1.99244
1.98756
1.98294
1.9811
1.98189
1.98397
1.98591
1.98612
1.98557
1.98361
1.97934
1.97248
1.9639
1.95441
1.94481
1.93551
1.92654
1.91813
2.00461
1.99958
1.99456
1.98989
1.98467
1.97957
1.97674
1.97552
1.97667
1.97912
1.97972
1.97981
1.97885
1.97615
1.97109
1.9636
1.95448
1.94488
1.93539
1.92617
1.91752
2.00167
1.99698
1.99219
1.98738
1.98184
1.97644
1.97271
1.96946
1.96966
1.97146
1.97246
1.97384
1.97318
1.97139
1.96807
1.96239
1.95436
1.94508
1.93561
1.9263
1.91733
1.99799
1.99367
1.98935
1.98454
1.97889
1.97338
1.96911
1.96496
1.96274
1.96365
1.96495
1.96698
1.96733
1.96615
1.96374
1.95977
1.95345
1.94513
1.93611
1.92683
1.91754
1.99314
1.98927
1.98574
1.98135
1.97594
1.97083
1.96614
1.96118
1.9578
1.95693
1.9578
1.95955
1.96122
1.96049
1.9588
1.95572
1.95105
1.9445
1.93637
1.92734
1.91784
1.98884
1.98483
1.98196
1.97831
1.97332
1.96857
1.96374
1.95841
1.95425
1.95221
1.95132
1.95221
1.95436
1.95384
1.95257
1.95045
1.9472
1.94236
1.93564
1.92722
1.91785
1.9883
1.98234
1.97879
1.97509
1.9705
1.96618
1.96135
1.95591
1.95116
1.94815
1.94572
1.94529
1.94625
1.94596
1.94557
1.94423
1.94196
1.93856
1.93341
1.92611
1.91737
1.9897
1.98248
1.97702
1.9721
1.9672
1.96309
1.9584
1.95301
1.9483
1.94448
1.94079
1.93883
1.9377
1.93777
1.9378
1.93739
1.93608
1.93365
1.92982
1.92393
1.91628
1.99249
1.98347
1.97631
1.96961
1.96399
1.95969
1.95507
1.95003
1.94558
1.94135
1.93678
1.93369
1.93126
1.92993
1.92996
1.93061
1.92975
1.92792
1.92499
1.92069
1.91456
1.99632
1.98599
1.9767
1.96792
1.96132
1.95647
1.95169
1.94702
1.94305
1.93878
1.9337
1.92957
1.92647
1.924
1.92284
1.92365
1.92303
1.92174
1.91959
1.91644
1.91187
1.99948
1.9894
1.97848
1.96852
1.96067
1.95452
1.94882
1.9442
1.94052
1.93644
1.93123
1.92653
1.92262
1.91925
1.91718
1.91644
1.91601
1.91511
1.91376
1.91151
1.90813
2.0009
1.99204
1.98122
1.9704
1.96168
1.95457
1.9474
1.942
1.93807
1.93376
1.92868
1.92371
1.91935
1.91527
1.91252
1.91059
1.90927
1.90835
1.9076
1.90588
1.90325
1.99951
1.99257
1.98365
1.97358
1.96447
1.95563
1.94692
1.94058
1.93573
1.93084
1.92582
1.92085
1.91632
1.91166
1.90837
1.90585
1.90351
1.90192
1.90132
1.89964
1.89722
1.99745
1.99249
1.9857
1.97724
1.968
1.95755
1.9481
1.94039
1.93364
1.92758
1.92255
1.91776
1.91334
1.90849
1.90471
1.9015
1.89843
1.89641
1.8946
1.89303
1.89086
1.9932
1.99061
1.98526
1.97871
1.97035
1.9602
1.94984
1.94109
1.93375
1.92574
1.91971
1.91476
1.91027
1.90555
1.90136
1.89783
1.89441
1.89173
1.889
1.88668
1.88442
1.98601
1.98567
1.98277
1.97792
1.97128
1.96253
1.95274
1.94316
1.93378
1.92543
1.91867
1.91293
1.90776
1.9031
1.89871
1.89488
1.89098
1.88786
1.88479
1.88142
1.87837
1.98128
1.98139
1.98
1.97673
1.97122
1.9641
1.95557
1.94593
1.93536
1.92651
1.91905
1.91223
1.90583
1.90093
1.89643
1.89244
1.88848
1.88476
1.88098
1.87697
1.87344
1.97556
1.97554
1.97492
1.97337
1.96987
1.96401
1.95715
1.94845
1.93807
1.92882
1.92034
1.91295
1.90559
1.89964
1.89468
1.89032
1.88621
1.88191
1.87763
1.8731
1.86926
1.96939
1.96944
1.9695
1.96923
1.96757
1.96343
1.95749
1.95005
1.94095
1.9317
1.92241
1.91339
1.90569
1.89935
1.89356
1.88845
1.88414
1.87933
1.87442
1.86928
1.86527
1.96449
1.96346
1.96402
1.96446
1.96366
1.96095
1.95617
1.9495
1.94192
1.93365
1.92431
1.9146
1.90667
1.89926
1.89283
1.88698
1.88205
1.87673
1.87123
1.86567
1.86143
1.95982
1.95648
1.95701
1.95768
1.95734
1.95582
1.95287
1.94792
1.94154
1.93421
1.92593
1.91678
1.90842
1.90039
1.89291
1.88653
1.88044
1.87435
1.86825
1.86261
1.85813
1.95906
1.95464
1.95279
1.95214
1.95151
1.95067
1.94901
1.94563
1.94055
1.93403
1.92669
1.91894
1.91089
1.90241
1.89376
1.88677
1.88007
1.87318
1.86626
1.86037
1.85533
1.95792
1.95243
1.94864
1.94625
1.94494
1.94442
1.94358
1.9414
1.9377
1.93271
1.92632
1.92002
1.91288
1.90473
1.89555
1.88787
1.88001
1.87205
1.86485
1.85893
1.85341
1.95191
1.94896
1.94478
1.94186
1.9401
1.93926
1.9383
1.93661
1.93403
1.93055
1.92569
1.92027
1.91426
1.90673
1.89805
1.88967
1.88084
1.87236
1.86509
1.85855
1.85212
1.95047
1.94904
1.94339
1.93901
1.9366
1.93469
1.93278
1.93089
1.92913
1.92679
1.92357
1.91913
1.91393
1.90729
1.90001
1.89167
1.88249
1.87334
1.86591
1.85888
1.85168
1.92431
1.94543
1.94103
1.93604
1.93264
1.92955
1.92668
1.92454
1.92309
1.92144
1.91941
1.91634
1.91239
1.90667
1.90027
1.89274
1.88426
1.87513
1.8674
1.85961
1.8521
1.86765
1.94504
1.94205
1.93637
1.93095
1.92628
1.92251
1.91976
1.9177
1.91595
1.91426
1.91234
1.90944
1.90504
1.89935
1.8925
1.88495
1.87688
1.8694
1.86107
1.85268
1.75853
1.93869
1.94177
1.93515
1.92853
1.92305
1.91857
1.91503
1.91213
1.90996
1.90823
1.907
1.90486
1.9019
1.8972
1.89155
1.88455
1.87795
1.8706
1.86227
1.85365
1.5536
1.88529
1.93568
1.93258
1.92659
1.92127
1.91644
1.91194
1.90815
1.90518
1.9033
1.90202
1.9003
1.89797
1.89436
1.88986
1.88376
1.87778
1.87075
1.86326
1.85491
1.23146
1.80424
1.93399
1.93343
1.92721
1.92096
1.9153
1.90992
1.90527
1.90144
1.899
1.89703
1.89536
1.89312
1.89051
1.8867
1.88202
1.87656
1.87005
1.8634
1.85587
1.03851
1.65075
1.90104
1.92979
1.92609
1.91976
1.91376
1.90849
1.90394
1.8999
1.89668
1.89384
1.89151
1.88884
1.8866
1.8832
1.8797
1.87485
1.86922
1.86312
1.85618
1.34957
1.84166
1.93091
1.92799
1.92052
1.91381
1.90847
1.90382
1.89932
1.895
1.89125
1.88782
1.88479
1.88217
1.87911
1.87622
1.87229
1.86786
1.86245
1.856
1.08546
1.71767
1.91248
1.926
1.92039
1.91332
1.90779
1.903
1.89828
1.89337
1.88922
1.88465
1.88092
1.87733
1.8747
1.87203
1.86919
1.86577
1.86132
1.85561
1.00669
1.46377
1.86091
1.92504
1.92194
1.91475
1.90838
1.90321
1.89822
1.89288
1.88782
1.88239
1.8779
1.87349
1.87062
1.86775
1.86557
1.86267
1.85896
1.854
1.00022
1.15388
1.75617
1.92014
1.92159
1.91459
1.90784
1.9026
1.89729
1.89184
1.88625
1.88025
1.87456
1.86995
1.86677
1.86375
1.86148
1.85871
1.85544
1.85106
1
1.01822
1.55851
1.86965
1.91545
1.9129
1.90717
1.90197
1.89652
1.89122
1.88526
1.87943
1.87316
1.8685
1.86422
1.86083
1.85793
1.85509
1.85175
1.8476
1
1.00078
1.24026
1.79029
1.91499
1.91429
1.90834
1.90192
1.89597
1.8907
1.88466
1.87856
1.87193
1.86728
1.86228
1.85819
1.85417
1.8509
1.84734
1.8434
1
1.00002
1.04143
1.63455
1.88224
1.91017
1.90694
1.90102
1.89529
1.89037
1.88495
1.87873
1.87238
1.86701
1.86127
1.8561
1.85117
1.84715
1.84318
1.83944
1
1
1.00228
1.33484
1.82041
1.91052
1.90867
1.90183
1.89567
1.89059
1.88524
1.87864
1.87281
1.86712
1.86121
1.85477
1.84907
1.84413
1.8395
1.83551
1
1
1.00007
1.07926
1.68872
1.88877
1.90564
1.90149
1.89517
1.88992
1.88481
1.87833
1.87302
1.86707
1.8613
1.85476
1.84931
1.84335
1.83747
1.83257
1
1
1
1.00603
1.42192
1.83716
1.90592
1.9022
1.89553
1.89003
1.88456
1.87851
1.87333
1.86738
1.86135
1.85481
1.84952
1.84353
1.83719
1.83114
1
1
1
1.0002
1.12781
1.72448
1.89199
1.90212
1.8962
1.88952
1.88318
1.87792
1.87287
1.86746
1.86113
1.85515
1.84975
1.84401
1.83778
1.83156
1
1
1
1
1.01319
1.49834
1.84176
1.90105
1.89758
1.89058
1.88348
1.87833
1.87309
1.8679
1.86145
1.85595
1.85025
1.84443
1.83839
1.83211
1
1
1
1
1.00051
1.18525
1.74574
1.89578
1.89789
1.89143
1.88369
1.87839
1.87301
1.86757
1.86137
1.85638
1.85071
1.84443
1.83824
1.83228
1
1
1
1
1.00001
1.02543
1.55785
1.84513
1.89231
1.89031
1.88356
1.87811
1.8732
1.86773
1.86213
1.85718
1.85149
1.84483
1.83839
1.83237
1
1
1
1
1
1.00121
1.24611
1.76823
1.89055
1.89046
1.88418
1.87819
1.87313
1.86723
1.86192
1.85699
1.85148
1.84499
1.83856
1.83236
1
1
1
1
1
1.00003
1.0435
1.60965
1.85227
1.88508
1.88258
1.87758
1.87272
1.86665
1.86144
1.85619
1.85103
1.8453
1.83934
1.83295
1
1
1
1
1
1
1.0025
1.31034
1.78726
1.8852
1.88388
1.87833
1.87254
1.86658
1.86119
1.85553
1.85015
1.8449
1.8396
1.83347
1
1
1
1
1
1
1.00007
1.06807
1.64545
1.85582
1.87954
1.87687
1.87151
1.86599
1.86091
1.85549
1.8495
1.84435
1.83955
1.83398
1
1
1
1
1
1
1
1.00472
1.36241
1.79912
1.87988
1.8785
1.87231
1.8664
1.8613
1.85583
1.84948
1.84409
1.83937
1.83404
1
1
1
1
1
1
1
1.00014
1.09308
1.66905
1.8568
1.87576
1.87202
1.86578
1.86078
1.85578
1.84983
1.84445
1.83915
1.83361
1
1
1
1
1
1
1
1
1.00762
1.40378
1.80513
1.87598
1.87372
1.86684
1.86113
1.85598
1.8505
1.84505
1.8393
1.83337
1
1
1
1
1
1
1
1
1.00026
1.11783
1.68445
1.86154
1.8728
1.86774
1.86125
1.85567
1.85044
1.84537
1.83969
1.83361
1
1
1
1
1
1
1
1
1.00001
1.01147
1.43933
1.81188
1.87215
1.86886
1.86228
1.85601
1.85061
1.84569
1.84024
1.83414
1
1
1
1
1
1
1
1
1
1.00044
1.14422
1.70217
1.85931
1.86931
1.8636
1.856
1.85023
1.84536
1.84015
1.8345
1
1
1
1
1
1
1
1
1
1.00001
1.01657
1.47572
1.81367
1.86743
1.86421
1.85666
1.85025
1.84518
1.84016
1.83487
1
1
1
1
1
1
1
1
1
1
1.0007
1.17226
1.71312
1.85377
1.86384
1.85768
1.85022
1.84454
1.83954
1.83444
1
1
1
1
1
1
1
1
1
1
1.00002
1.02221
1.50289
1.80669
1.86086
1.85809
1.85123
1.84474
1.83906
1.83425
1
1
1
1
1
1
1
1
1
1
1
1.00099
1.19486
1.71115
1.85051
1.85806
1.85291
1.84531
1.83871
1.83405
1
1
1
1
1
1
1
1
1
1
1
1.00002
1.0272
1.50831
1.8081
1.85635
1.85282
1.84594
1.8392
1.83465
1
1
1
1
1
1
1
1
1
1
1
1
1.00126
1.20306
1.71386
1.85148
1.85453
1.8484
1.84068
1.8353
1
1
1
1
1
1
1
1
1
1
1
1
1.00003
1.02981
1.5158
1.80593
1.84957
1.84831
1.84222
1.83604
1.41518
1.41554
1.4174
1.42049
1.42591
1.43658
1.44401
1.44534
1.44471
1.44295
1.44152
1.44097
1.43995
1.43862
1.43721
1.4356
1.43342
1.42987
1.42739
1.42649
1.42619
1.4264
1.42728
1.42853
1.42963
1.43016
1.43011
1.43058
1.43035
1.43016
1.43048
1.43002
1.42829
1.42562
1.42228
1.41836
1.41484
1.4134
1.41293
1.41266
1.41273
1.41342
1.91414
1.91027
1.90579
1.90164
1.89803
1.8939
1.88953
1.88453
1.88113
1.87689
1.8726
1.86757
1.86326
1.85684
1.85099
1.85162
1.85726
1.89538
1.96285
1.99299
2.00043
1.99591
1.98705
1.97634
1.96748
1.96014
1.95286
1.94563
1.93783
1.93101
1.92376
1.91614
1.90839
1.90036
1.89382
1.88635
1.87953
1.87164
1.86554
1.86042
1.85462
1.84764
1.84125
1.83586
1.82971
1.82231
1.81537
1.80991
1.80282
1.79574
1.78711
1.78078
1.77408
1.76714
1.75866
1.75104
1.74574
1.73945
1.73353
1.72643
1.72139
1.71509
1.70809
1.69998
1.69224
1.68697
1.68117
1.67612
1.66963
1.66494
1.65983
1.65382
1.6481
1.64261
1.63945
1.6349
1.62944
1.62266
1.61305
1.60592
1.60091
1.59818
1.59465
1.59203
1.58953
1.58507
1.58065
1.57565
1.57015
1.56478
1.55947
1.55552
1.55123
1.54761
1.54506
1.542
1.53847
1.53412
1.52919
1.52333
1.51827
1.51494
1.51132
1.50736
1.50477
1.50257
1.50017
1.49693
1.49096
1.48187
1.47787
1.47673
1.47519
1.47286
1.47075
1.46887
1.46615
1.46121
1.45496
1.4482
1.44096
1.43672
1.43645
1.43699
1.4398
1.44621
1.45432
1.46639
1.47692
1.48041
1.48013
1.47967
1.4794
1.48062
1.48044
1.47874
1.47595
1.47173
1.46704
1.46517
1.46425
1.4634
1.4628
1.46225
1.46165
1.46072
1.45854
1.45505
1.45242
1.45082
1.44951
1.44834
1.44733
1.44636
1.44519
1.44345
1.44223
1.44174
1.44114
1.44047
1.43984
1.43923
1.43857
1.43784
1.43698
1.43574
1.43387
1.43315
1.43315
1.43306
1.43283
1.43242
1.43163
1.43014
1.42751
1.42506
1.42414
1.42365
1.42323
1.42296
1.4228
1.42262
1.42229
1.42153
1.41983
1.41672
1.41453
1.41333
1.41312
1.41344
1.41509
1.4178
1.42116
1.42866
1.43747
1.44084
1.44114
1.44051
1.4397
1.43971
1.439
1.43767
1.43601
1.43387
1.43054
1.42714
1.42594
1.42544
1.4255
1.42617
1.42728
1.42833
1.42906
1.42917
1.42995
1.43037
1.43026
1.43059
1.43042
1.42906
1.42657
1.4234
1.41924
1.41468
1.41322
1.41303
1.41288
1.41297
1.41365
1.41422
1.91362
1.90969
1.90515
1.90154
1.89772
1.89378
1.88896
1.88511
1.88145
1.8774
1.87283
1.86852
1.86466
1.85955
1.85165
1.84928
1.85131
1.86704
1.92267
1.97542
1.99412
1.9932
1.98703
1.97702
1.96823
1.96033
1.95295
1.94544
1.93869
1.93188
1.92437
1.91692
1.90886
1.90225
1.89509
1.88806
1.88094
1.87378
1.86891
1.86313
1.85725
1.84999
1.84481
1.83894
1.83249
1.82456
1.81895
1.81255
1.80564
1.79783
1.79048
1.78466
1.77771
1.77082
1.76208
1.75664
1.75089
1.74481
1.73788
1.7311
1.72542
1.71826
1.71128
1.70268
1.69717
1.69212
1.68695
1.68131
1.67493
1.67059
1.6647
1.65925
1.65315
1.64916
1.6451
1.6394
1.633
1.62345
1.61557
1.6114
1.60828
1.60542
1.6015
1.59899
1.59498
1.59005
1.58527
1.57988
1.57478
1.56951
1.56474
1.56091
1.55656
1.55337
1.55023
1.54675
1.54291
1.53792
1.53275
1.52736
1.52264
1.51934
1.51605
1.51267
1.51012
1.50801
1.50546
1.50049
1.49096
1.4847
1.48346
1.48251
1.48078
1.47833
1.47614
1.47407
1.47098
1.4648
1.45643
1.45003
1.44444
1.43984
1.4391
1.43927
1.44108
1.44601
1.45028
1.45513
1.46252
1.46829
1.47175
1.47389
1.47655
1.47856
1.47817
1.47637
1.47308
1.4681
1.46504
1.46411
1.46345
1.4629
1.46236
1.46176
1.461
1.45931
1.45583
1.45254
1.45095
1.44972
1.44861
1.44763
1.44672
1.44575
1.44431
1.44197
1.44073
1.44032
1.43978
1.43908
1.43841
1.43781
1.43723
1.43663
1.43591
1.43463
1.43261
1.43187
1.43176
1.43158
1.43127
1.4307
1.42959
1.42764
1.4249
1.42345
1.42299
1.42264
1.42234
1.42212
1.42191
1.42159
1.4209
1.41936
1.41662
1.41406
1.41262
1.41164
1.41153
1.41187
1.41322
1.41524
1.41694
1.42074
1.429
1.43452
1.43743
1.43816
1.43838
1.43842
1.43782
1.43657
1.43474
1.43205
1.42801
1.42588
1.42506
1.42493
1.42533
1.42627
1.42716
1.42793
1.42817
1.42883
1.42998
1.42999
1.43017
1.43025
1.42935
1.42723
1.4243
1.42067
1.41566
1.41289
1.41285
1.41288
1.41305
1.41369
1.41423
1.41404
1.91294
1.9087
1.90451
1.90103
1.89718
1.89304
1.88846
1.88523
1.88131
1.87752
1.87275
1.86947
1.86538
1.86074
1.85373
1.84743
1.84788
1.85231
1.88478
1.94674
1.98031
1.9897
1.98623
1.97798
1.9691
1.96073
1.95263
1.94564
1.93931
1.93224
1.92511
1.91714
1.91029
1.90347
1.89623
1.88965
1.88205
1.87687
1.87125
1.86559
1.85875
1.85283
1.84772
1.84173
1.83443
1.82762
1.82193
1.81499
1.80819
1.80018
1.79468
1.78826
1.78174
1.77393
1.76689
1.76199
1.75553
1.74924
1.74126
1.73517
1.7286
1.72165
1.71426
1.7071
1.70281
1.69767
1.6927
1.68587
1.68053
1.67569
1.66983
1.66442
1.65892
1.65508
1.64951
1.64293
1.63464
1.62471
1.62129
1.61839
1.6157
1.61196
1.60838
1.60498
1.59978
1.59481
1.58948
1.58417
1.57921
1.57423
1.57004
1.56616
1.56228
1.55888
1.55524
1.55142
1.54685
1.54138
1.53598
1.53123
1.527
1.52382
1.52109
1.51843
1.51605
1.51357
1.50915
1.50031
1.49223
1.4905
1.48954
1.48832
1.48673
1.48461
1.48222
1.47922
1.47335
1.465
1.45824
1.45453
1.45111
1.44701
1.44449
1.44382
1.4446
1.44674
1.44829
1.44874
1.4516
1.45682
1.46227
1.4686
1.47385
1.47518
1.47486
1.47312
1.46887
1.46461
1.46338
1.46284
1.46285
1.46266
1.46202
1.4613
1.45976
1.45692
1.45347
1.45145
1.45036
1.44923
1.44814
1.44711
1.44608
1.44479
1.44292
1.44056
1.43952
1.43908
1.43849
1.43775
1.43703
1.43644
1.43591
1.4353
1.43434
1.43276
1.4309
1.43036
1.43017
1.42992
1.42953
1.42876
1.42737
1.42504
1.42282
1.42216
1.42186
1.4216
1.42135
1.42111
1.42082
1.42026
1.41889
1.41627
1.4137
1.41225
1.41106
1.41022
1.41015
1.41044
1.41134
1.41241
1.41315
1.41479
1.42023
1.42739
1.43219
1.43562
1.43678
1.43683
1.43648
1.43535
1.43344
1.43029
1.42671
1.42548
1.42482
1.42493
1.4256
1.42622
1.42676
1.42711
1.42744
1.42909
1.42962
1.42943
1.42946
1.42891
1.42733
1.42478
1.4216
1.41756
1.41315
1.41258
1.41272
1.41297
1.41354
1.41405
1.41395
1.41312
1.91204
1.90765
1.90384
1.90015
1.89641
1.89181
1.88827
1.88488
1.88118
1.87702
1.87304
1.86963
1.86575
1.86097
1.85557
1.84851
1.84535
1.84665
1.8599
1.90912
1.9615
1.98264
1.9828
1.97801
1.97008
1.96097
1.95257
1.94607
1.93927
1.93237
1.92493
1.91805
1.91161
1.90432
1.89774
1.89021
1.88437
1.8791
1.87326
1.86733
1.86037
1.85565
1.84996
1.84381
1.83637
1.83094
1.82452
1.81794
1.81021
1.80388
1.79844
1.79188
1.78552
1.77745
1.77231
1.76624
1.7596
1.75229
1.74459
1.73885
1.73191
1.72561
1.71795
1.71305
1.70846
1.70327
1.69746
1.69029
1.6858
1.68031
1.67496
1.66926
1.66465
1.65971
1.6529
1.64546
1.63553
1.63033
1.62845
1.62547
1.62234
1.61783
1.61434
1.60967
1.60429
1.59906
1.59369
1.58872
1.58378
1.57918
1.57513
1.57126
1.56766
1.56386
1.55987
1.55555
1.55033
1.54471
1.53953
1.53531
1.53174
1.52887
1.5266
1.52445
1.52198
1.51767
1.50887
1.49993
1.49765
1.49669
1.49585
1.49454
1.49285
1.4908
1.48769
1.48145
1.47258
1.46528
1.46216
1.46045
1.45828
1.45513
1.45193
1.44979
1.44858
1.44792
1.44628
1.44445
1.44599
1.45017
1.45628
1.46452
1.46997
1.47064
1.4705
1.46815
1.46379
1.46203
1.46155
1.46164
1.46267
1.46226
1.4615
1.46012
1.45753
1.45462
1.45252
1.45124
1.45017
1.44906
1.44789
1.44663
1.445
1.44298
1.44113
1.43965
1.43874
1.4381
1.43737
1.43654
1.43578
1.43514
1.43448
1.43357
1.43234
1.43059
1.42908
1.42871
1.42846
1.42814
1.42762
1.42664
1.42493
1.42253
1.42128
1.42088
1.42065
1.42046
1.42021
1.4199
1.41944
1.41846
1.41618
1.41308
1.41162
1.4107
1.40965
1.40884
1.4088
1.40895
1.40923
1.40961
1.40975
1.41008
1.41266
1.41957
1.42607
1.43187
1.43472
1.43514
1.43492
1.43387
1.43205
1.4291
1.42639
1.42539
1.42495
1.42529
1.42565
1.42575
1.42599
1.42603
1.42743
1.429
1.42888
1.42864
1.42808
1.42679
1.42472
1.42196
1.41876
1.41473
1.41229
1.41242
1.41275
1.41326
1.41379
1.41374
1.41297
1.41158
1.9111
1.90677
1.9031
1.8994
1.89531
1.89105
1.88795
1.88436
1.88073
1.87643
1.87337
1.86954
1.86576
1.86087
1.85693
1.85075
1.84365
1.84394
1.84778
1.8757
1.93311
1.96898
1.97898
1.97685
1.97054
1.96114
1.95296
1.9461
1.93927
1.93215
1.92518
1.91909
1.91212
1.90554
1.89834
1.89157
1.88639
1.88042
1.87508
1.86815
1.86298
1.85789
1.85209
1.84514
1.83908
1.8338
1.8274
1.82069
1.81328
1.80808
1.80175
1.79568
1.78811
1.78186
1.77656
1.76952
1.76296
1.75454
1.74838
1.74241
1.73607
1.72973
1.7233
1.71917
1.71384
1.70845
1.70099
1.6951
1.6906
1.68486
1.6797
1.67399
1.66936
1.66291
1.6556
1.64733
1.63971
1.63809
1.63553
1.6323
1.62789
1.62309
1.61901
1.6135
1.6085
1.60295
1.59806
1.59352
1.58875
1.58433
1.58006
1.57613
1.57234
1.56818
1.56387
1.55901
1.55347
1.54801
1.54349
1.53988
1.53697
1.53459
1.53257
1.5303
1.52626
1.51751
1.5077
1.50456
1.50381
1.50294
1.50206
1.50082
1.49902
1.49622
1.49002
1.47986
1.47192
1.46955
1.46836
1.46704
1.46524
1.46251
1.45917
1.45596
1.45274
1.44885
1.44385
1.44176
1.44289
1.44666
1.45329
1.46102
1.46392
1.46435
1.46404
1.46166
1.45988
1.4595
1.45962
1.46135
1.46177
1.46108
1.45991
1.45785
1.45519
1.45344
1.45231
1.45114
1.45003
1.44891
1.44764
1.44588
1.44346
1.44117
1.43987
1.439
1.43822
1.43742
1.43647
1.43546
1.43455
1.4337
1.43276
1.43162
1.43009
1.42835
1.42731
1.42697
1.42667
1.42625
1.42554
1.42425
1.42231
1.42056
1.41988
1.41952
1.41933
1.41916
1.41886
1.41845
1.41774
1.41614
1.41307
1.41072
1.40981
1.40908
1.40827
1.40759
1.40747
1.4074
1.40731
1.40708
1.40629
1.40593
1.40705
1.41177
1.4193
1.42659
1.43172
1.43322
1.43316
1.43222
1.43069
1.42873
1.42652
1.42544
1.42517
1.4254
1.42526
1.42505
1.42476
1.42557
1.42774
1.42827
1.42811
1.42754
1.42629
1.42439
1.42206
1.41924
1.41624
1.41271
1.41217
1.41237
1.41286
1.41348
1.4135
1.41288
1.4115
1.4093
1.91062
1.90647
1.9026
1.89878
1.89427
1.89076
1.88738
1.88394
1.87972
1.87632
1.87331
1.86954
1.86545
1.86093
1.85772
1.85291
1.84462
1.84216
1.84335
1.85433
1.89793
1.95031
1.97019
1.97374
1.96993
1.96145
1.95335
1.94594
1.93871
1.9317
1.92591
1.9194
1.91272
1.90603
1.89898
1.89359
1.88761
1.88199
1.87565
1.86972
1.86538
1.85978
1.85399
1.84695
1.84211
1.83626
1.83024
1.82305
1.81736
1.8116
1.80525
1.79855
1.79099
1.786
1.77943
1.77272
1.76549
1.75776
1.75277
1.74647
1.74092
1.73419
1.7294
1.72451
1.71886
1.71241
1.70459
1.70011
1.69487
1.68945
1.68381
1.67831
1.67279
1.66532
1.65831
1.65042
1.64725
1.64552
1.64209
1.63826
1.63243
1.6277
1.62267
1.61723
1.61226
1.60672
1.60262
1.59836
1.59377
1.58945
1.58511
1.5809
1.57653
1.57187
1.56704
1.56181
1.55645
1.55166
1.54797
1.54513
1.54281
1.54075
1.53851
1.53475
1.52628
1.51583
1.51144
1.51081
1.51015
1.50912
1.50811
1.50675
1.5044
1.49865
1.4881
1.47865
1.47623
1.47574
1.47463
1.4732
1.47142
1.46893
1.46566
1.46171
1.45632
1.44799
1.44214
1.4416
1.44249
1.44657
1.45353
1.45732
1.45821
1.45842
1.45708
1.45624
1.45629
1.45674
1.45864
1.46041
1.46004
1.45902
1.45732
1.45511
1.45363
1.45277
1.45183
1.45077
1.44971
1.44859
1.44699
1.44458
1.44193
1.44036
1.43959
1.43886
1.43803
1.43701
1.43574
1.43439
1.43316
1.43206
1.4309
1.42947
1.42779
1.42636
1.42563
1.42521
1.42481
1.42424
1.42318
1.4216
1.42
1.41897
1.41841
1.41803
1.41784
1.41763
1.41727
1.41673
1.41563
1.41338
1.41039
1.40884
1.40804
1.40745
1.40693
1.40642
1.40621
1.40596
1.40551
1.4046
1.40278
1.40231
1.40294
1.40539
1.41209
1.41996
1.42729
1.4307
1.43111
1.43051
1.42966
1.42852
1.42662
1.42549
1.42518
1.42507
1.42463
1.42383
1.42401
1.42558
1.42751
1.42747
1.4272
1.42621
1.42438
1.42211
1.41974
1.41698
1.41417
1.41196
1.41201
1.41239
1.41306
1.41327
1.41283
1.4116
1.40934
1.40634
1.91067
1.90644
1.90244
1.8982
1.89389
1.89052
1.88702
1.8833
1.87914
1.8764
1.87306
1.86938
1.86479
1.86146
1.85806
1.85401
1.84712
1.84076
1.84129
1.84493
1.86841
1.9218
1.95734
1.96874
1.96723
1.96109
1.95348
1.94573
1.93777
1.9317
1.92591
1.91947
1.91312
1.90607
1.90038
1.89469
1.88891
1.88315
1.87642
1.87209
1.86689
1.86173
1.85541
1.8499
1.84499
1.83905
1.83243
1.82602
1.82084
1.81455
1.80839
1.80037
1.79461
1.78891
1.78188
1.77579
1.76778
1.76256
1.7573
1.75137
1.74548
1.73918
1.73471
1.72892
1.72312
1.71524
1.70925
1.70473
1.69897
1.69378
1.68737
1.6819
1.67529
1.66821
1.66185
1.65648
1.65485
1.65183
1.64783
1.64259
1.63639
1.6316
1.62596
1.62118
1.61576
1.61083
1.60729
1.60306
1.59852
1.59418
1.58986
1.58536
1.58039
1.57516
1.56976
1.56444
1.55968
1.55585
1.55304
1.55086
1.54888
1.54672
1.5432
1.53501
1.52427
1.51857
1.51777
1.51743
1.51636
1.51506
1.51381
1.51195
1.50709
1.49664
1.48589
1.4827
1.48249
1.4818
1.48042
1.47874
1.47678
1.4743
1.47096
1.46602
1.45697
1.44699
1.44468
1.44454
1.44552
1.44966
1.45359
1.45455
1.45492
1.45344
1.45181
1.45221
1.45311
1.45495
1.45774
1.45819
1.45766
1.45647
1.45448
1.45324
1.45263
1.45186
1.45097
1.45006
1.44911
1.44789
1.44571
1.44291
1.4409
1.44018
1.43965
1.43896
1.43801
1.43673
1.43511
1.4333
1.43166
1.43026
1.42884
1.42733
1.42584
1.4247
1.42402
1.4235
1.42294
1.42204
1.42043
1.41913
1.41818
1.41741
1.41682
1.41639
1.41617
1.41586
1.41543
1.4147
1.41306
1.41044
1.40833
1.40716
1.4064
1.40598
1.40571
1.40535
1.40507
1.40462
1.40366
1.40188
1.39946
1.39909
1.39958
1.40098
1.4052
1.41293
1.42074
1.42665
1.42899
1.42886
1.42868
1.42804
1.42664
1.42537
1.42479
1.42434
1.4234
1.42284
1.4236
1.42571
1.42669
1.42648
1.42606
1.42475
1.42242
1.41999
1.41769
1.41544
1.41281
1.41171
1.41197
1.41249
1.41297
1.41276
1.41177
1.40959
1.40655
1.40434
1.91087
1.90658
1.90239
1.89788
1.89391
1.89029
1.88675
1.88242
1.87903
1.87614
1.87273
1.86862
1.86446
1.86173
1.85806
1.85427
1.84904
1.84215
1.83915
1.84069
1.85017
1.88892
1.93872
1.95829
1.96292
1.95978
1.95336
1.94513
1.93736
1.93162
1.92549
1.91946
1.91293
1.90698
1.90147
1.89551
1.89004
1.88344
1.87868
1.87405
1.86867
1.86342
1.85715
1.85291
1.84743
1.84151
1.8345
1.82923
1.82341
1.81735
1.81015
1.80308
1.79797
1.79119
1.78519
1.77839
1.77195
1.76782
1.76183
1.75643
1.74949
1.74418
1.73882
1.73281
1.72612
1.71862
1.71415
1.70873
1.70316
1.69726
1.6905
1.68496
1.67803
1.67256
1.66693
1.66385
1.6614
1.65707
1.65231
1.64548
1.64005
1.63498
1.6296
1.62515
1.61934
1.61544
1.61187
1.60743
1.60293
1.59856
1.59416
1.58919
1.58367
1.5779
1.57229
1.56752
1.56372
1.56079
1.55859
1.55669
1.55464
1.55141
1.54374
1.53283
1.52594
1.52487
1.52457
1.52388
1.52225
1.5207
1.51901
1.51514
1.50549
1.49372
1.48914
1.48891
1.48852
1.48739
1.48566
1.48361
1.48133
1.47856
1.47454
1.46678
1.45606
1.45104
1.4502
1.45015
1.45106
1.45283
1.45335
1.45352
1.45166
1.44873
1.44867
1.44964
1.45137
1.45447
1.456
1.4558
1.45483
1.45313
1.45207
1.45166
1.45141
1.45078
1.44995
1.44914
1.44813
1.44626
1.44381
1.44173
1.44068
1.44019
1.43971
1.43901
1.43795
1.43643
1.43439
1.43209
1.43015
1.42866
1.42729
1.42579
1.42437
1.42333
1.4226
1.42195
1.42103
1.41942
1.41777
1.41714
1.41652
1.41575
1.41509
1.41461
1.41431
1.41389
1.41335
1.41225
1.41004
1.40787
1.40656
1.40557
1.40498
1.40475
1.40461
1.40439
1.40405
1.40331
1.40151
1.39877
1.39665
1.3963
1.39662
1.39768
1.40012
1.40608
1.41343
1.42074
1.42566
1.42698
1.42721
1.42712
1.42634
1.42498
1.424
1.42316
1.42204
1.42211
1.42333
1.42558
1.42566
1.42536
1.42474
1.42304
1.42042
1.4184
1.41659
1.41455
1.41193
1.41163
1.41196
1.41254
1.4126
1.41194
1.40997
1.40693
1.40443
1.40364
1.9109
1.90659
1.90225
1.89782
1.8939
1.89014
1.88623
1.8819
1.87893
1.87565
1.87209
1.86744
1.86436
1.86137
1.85776
1.85407
1.84981
1.84461
1.83758
1.83792
1.84125
1.86174
1.90926
1.94506
1.95748
1.95669
1.95252
1.94467
1.93739
1.93122
1.92513
1.91893
1.91296
1.90785
1.90212
1.89666
1.89027
1.88467
1.88059
1.87535
1.87079
1.86465
1.85991
1.85521
1.84951
1.84291
1.83691
1.83182
1.82582
1.81946
1.81174
1.80651
1.80047
1.7941
1.78851
1.78144
1.77749
1.77235
1.76647
1.76045
1.75343
1.74828
1.74211
1.7361
1.72842
1.72309
1.71833
1.71239
1.707
1.69963
1.69366
1.68807
1.68224
1.67788
1.67322
1.67066
1.66659
1.66146
1.65514
1.64812
1.64351
1.63819
1.63369
1.62881
1.62363
1.62032
1.61618
1.61156
1.60702
1.60248
1.59781
1.59231
1.58637
1.58033
1.57525
1.57157
1.56862
1.5662
1.56423
1.56223
1.55929
1.55233
1.54143
1.53348
1.53208
1.53163
1.53128
1.52976
1.52788
1.52592
1.52253
1.51405
1.50216
1.49593
1.49533
1.49484
1.49395
1.49247
1.49035
1.48785
1.48504
1.48144
1.47496
1.46513
1.4592
1.45782
1.45648
1.45596
1.45584
1.45534
1.45453
1.45204
1.44763
1.44598
1.44667
1.44851
1.45174
1.45409
1.45421
1.45362
1.45176
1.45034
1.44993
1.44978
1.45009
1.44964
1.44886
1.44806
1.44642
1.44394
1.44214
1.44117
1.44054
1.44008
1.43964
1.439
1.43789
1.43592
1.43312
1.43054
1.42867
1.42716
1.42577
1.42443
1.42327
1.42232
1.4215
1.42055
1.41886
1.41668
1.4158
1.41536
1.41481
1.41401
1.41328
1.41274
1.41229
1.41179
1.41096
1.40924
1.40706
1.40579
1.40488
1.40402
1.40374
1.4037
1.40363
1.40348
1.40302
1.40171
1.39874
1.39578
1.39442
1.39406
1.39427
1.39525
1.39679
1.40025
1.4063
1.41314
1.42051
1.42407
1.42518
1.42559
1.42535
1.42436
1.4232
1.42193
1.42104
1.42154
1.42329
1.42491
1.42464
1.42419
1.42337
1.42124
1.4189
1.41751
1.41578
1.41366
1.41149
1.41153
1.41203
1.41231
1.41197
1.4104
1.40744
1.40464
1.40357
1.40333
1.91072
1.90649
1.90209
1.89787
1.89388
1.89
1.88563
1.88174
1.87853
1.87509
1.87093
1.86677
1.86415
1.86073
1.85727
1.8534
1.85004
1.84609
1.83883
1.83545
1.83663
1.84362
1.87701
1.92496
1.94511
1.95219
1.95036
1.94426
1.9373
1.93076
1.92446
1.91828
1.91328
1.90801
1.90263
1.89687
1.89069
1.88649
1.88154
1.87687
1.87188
1.8664
1.86253
1.85708
1.85118
1.84417
1.83923
1.83383
1.82806
1.82078
1.81478
1.80953
1.80302
1.79794
1.79131
1.78647
1.78239
1.77616
1.77064
1.7632
1.75729
1.75147
1.74532
1.73853
1.73177
1.72748
1.72175
1.71609
1.70972
1.70207
1.69748
1.69192
1.68767
1.68316
1.67952
1.676
1.67052
1.6648
1.657
1.65142
1.64687
1.64182
1.63782
1.63226
1.62848
1.62491
1.62014
1.61557
1.61093
1.60607
1.6008
1.59482
1.58864
1.58297
1.57922
1.57646
1.57392
1.57168
1.56962
1.56683
1.56061
1.55025
1.54118
1.5393
1.53878
1.53854
1.53724
1.53533
1.53314
1.52972
1.52183
1.51091
1.50343
1.50196
1.50133
1.50038
1.49891
1.49695
1.49446
1.4915
1.48786
1.48217
1.4731
1.46642
1.46521
1.46383
1.46221
1.46102
1.45981
1.45811
1.45477
1.44911
1.44534
1.44535
1.44672
1.4499
1.45286
1.45336
1.45296
1.45089
1.44898
1.44853
1.44835
1.44875
1.44914
1.44853
1.44774
1.44631
1.44396
1.44231
1.44164
1.44102
1.44045
1.43999
1.43954
1.43895
1.43766
1.43486
1.43138
1.42862
1.42689
1.4257
1.42464
1.4236
1.4226
1.42168
1.42068
1.41898
1.41623
1.41471
1.41415
1.41365
1.41314
1.4123
1.41146
1.4108
1.41021
1.40949
1.40804
1.40591
1.40469
1.40395
1.40319
1.40263
1.40263
1.40267
1.40265
1.40244
1.40153
1.39938
1.39567
1.39371
1.3926
1.39226
1.39244
1.39329
1.39442
1.3961
1.39996
1.40519
1.41256
1.4194
1.42238
1.42383
1.42398
1.42361
1.42272
1.42117
1.42065
1.42145
1.42342
1.42387
1.42364
1.42331
1.42208
1.41968
1.41811
1.41679
1.41492
1.4129
1.4114
1.41153
1.41188
1.41175
1.41065
1.40799
1.40499
1.40355
1.40323
1.40311
1.91022
1.90618
1.90197
1.8979
1.8939
1.88973
1.8853
1.88175
1.87819
1.8745
1.86983
1.86659
1.86371
1.86016
1.85654
1.85269
1.85009
1.84648
1.84081
1.83332
1.83368
1.83684
1.85252
1.89556
1.93048
1.94583
1.94608
1.94286
1.93699
1.93029
1.92338
1.918
1.91323
1.90803
1.90278
1.89676
1.8921
1.88748
1.88241
1.87803
1.87233
1.86857
1.86419
1.85879
1.85228
1.84609
1.84138
1.83597
1.82967
1.82309
1.81828
1.81208
1.80662
1.80083
1.79487
1.79131
1.78557
1.77969
1.77325
1.76599
1.76056
1.75424
1.74827
1.74084
1.73605
1.73107
1.72496
1.7194
1.71147
1.70613
1.70182
1.69689
1.69294
1.68808
1.68461
1.67952
1.67354
1.6669
1.65944
1.6552
1.65031
1.64598
1.64136
1.63621
1.63317
1.62887
1.62388
1.61937
1.6146
1.60921
1.60322
1.59717
1.59126
1.58665
1.58399
1.58159
1.57915
1.57686
1.57419
1.56858
1.55884
1.54927
1.54654
1.54588
1.54573
1.54477
1.54285
1.54055
1.53707
1.5292
1.51836
1.5114
1.50976
1.50814
1.50686
1.50545
1.50336
1.50088
1.49801
1.49446
1.48927
1.48077
1.47305
1.47157
1.47065
1.46895
1.46716
1.4655
1.46354
1.45983
1.45282
1.44713
1.44623
1.44683
1.44957
1.45266
1.45333
1.45308
1.45088
1.44794
1.44715
1.44699
1.44741
1.44855
1.44832
1.44752
1.44596
1.44356
1.44192
1.44163
1.44131
1.44075
1.4403
1.43988
1.43945
1.43878
1.43684
1.43304
1.42899
1.42655