/*--------------------------------*- C++ -*----------------------------------*\
  =========                 |
  \\      /  F ield         | OpenFOAM: The Open Source CFD Toolbox
   \\    /   O peration     | Website:  https://openfoam.org
    \\  /    A nd           | Version:  7
     \\/     M anipulation  |
\*---------------------------------------------------------------------------*/
FoamFile
{
    version     2.0;
    format      ascii;
    class       volScalarField;
    location    "1";
    object      T;
}
// * * * * * * * * * * * * * * * * * * * * * * * * * * * * * * * * * * * * * //

dimensions      [0 0 0 1 0 0 0];

internalField   nonuniform List<scalar> 
4128
(
1.54515
1.53157
1.51725
1.50788
1.50309
1.49974
1.49725
1.49261
1.48885
1.4854
1.47936
1.46807
1.456
1.4499
1.44615
1.44417
1.44491
1.4457
1.44333
1.4395
1.43558
1.42948
1.41744
1.40283
1.39583
1.39326
1.3913
1.39072
1.39303
1.3965
1.39675
1.39366
1.38852
1.38342
1.37708
1.36993
1.36496
1.36228
1.36086
1.3607
1.3621
1.36297
1.36087
1.35568
1.34983
1.3416
1.32943
1.31859
1.31134
1.30604
1.30259
1.3006
1.29916
1.29736
1.29536
1.29286
1.28902
1.28368
1.27636
1.26969
1.26771
1.26653
1.26572
1.26582
1.26583
1.26503
1.26234
1.25794
1.25334
1.2492
1.24518
1.24269
1.24251
1.24294
1.24328
1.24221
1.23874
1.23431
1.23025
1.22654
1.22465
1.22382
1.22271
1.22028
1.21683
1.21442
1.21307
1.21216
1.20985
1.20424
1.19503
1.18986
1.18886
1.18766
1.18598
1.18501
1.18445
1.18407
1.18466
1.18608
1.18599
1.1837
1.1793
1.17361
1.16462
1.14944
1.13564
1.13084
1.12865
1.12684
1.12562
1.12634
1.13048
1.1317
1.13026
1.12805
1.12617
1.12389
1.11895
1.11107
1.10527
1.10302
1.10249
1.10253
1.10329
1.10242
1.10012
1.09758
1.09334
1.53294
1.52036
1.51042
1.50588
1.50177
1.49896
1.49535
1.49156
1.48886
1.4849
1.47521
1.46211
1.45572
1.45162
1.44773
1.44577
1.44567
1.44316
1.44111
1.43943
1.4349
1.42575
1.41284
1.40241
1.39793
1.39544
1.39388
1.39414
1.39443
1.39214
1.3888
1.3846
1.3789
1.37396
1.37182
1.37088
1.36915
1.36713
1.36672
1.36631
1.36445
1.36158
1.35967
1.35682
1.35028
1.34074
1.33015
1.32152
1.31393
1.30821
1.3045
1.30185
1.29929
1.29641
1.29337
1.29024
1.28685
1.28122
1.27363
1.26875
1.26703
1.26538
1.26335
1.26196
1.26065
1.25927
1.25773
1.25502
1.25009
1.24428
1.2385
1.23509
1.23393
1.23351
1.23338
1.23376
1.23353
1.23145
1.22664
1.2214
1.21793
1.21615
1.21439
1.21124
1.20847
1.20687
1.20575
1.20496
1.20412
1.20191
1.19595
1.18661
1.17999
1.17761
1.17674
1.17663
1.17662
1.17659
1.17874
1.18282
1.18328
1.18127
1.1776
1.17286
1.16456
1.14864
1.13314
1.12838
1.12642
1.1245
1.12293
1.1231
1.12751
1.13116
1.13028
1.1281
1.12623
1.12423
1.12001
1.11164
1.10581
1.10462
1.10388
1.10273
1.10138
1.10011
1.09876
1.09694
1.09341
1.523
1.51112
1.50716
1.50426
1.50125
1.49778
1.49401
1.49102
1.48744
1.48248
1.47203
1.46051
1.4558
1.45307
1.45073
1.44813
1.44425
1.43954
1.43573
1.43197
1.42558
1.41609
1.40835
1.40472
1.40139
1.39915
1.39861
1.39657
1.39278
1.38935
1.38441
1.37793
1.37163
1.36852
1.36798
1.3685
1.3704
1.37204
1.37248
1.37142
1.36809
1.36451
1.35883
1.35065
1.34182
1.33421
1.32844
1.3229
1.316
1.30926
1.30557
1.30304
1.30058
1.29715
1.29301
1.28888
1.2838
1.27568
1.26923
1.26818
1.26718
1.26556
1.26351
1.26153
1.25962
1.25749
1.2549
1.25161
1.24693
1.24023
1.23412
1.2309
1.22944
1.22846
1.22784
1.22737
1.22692
1.22598
1.22387
1.21936
1.21366
1.20899
1.20623
1.20437
1.20302
1.20226
1.20164
1.20125
1.20062
1.19919
1.19564
1.18651
1.17447
1.17083
1.1706
1.17057
1.17079
1.1711
1.17365
1.17986
1.18093
1.1792
1.17616
1.1723
1.16548
1.15022
1.13363
1.1279
1.12588
1.12398
1.1223
1.12215
1.12589
1.12955
1.12853
1.12598
1.12419
1.123
1.12093
1.11498
1.10644
1.10314
1.10204
1.10094
1.09979
1.099
1.09813
1.09731
1.09495
1.51672
1.50917
1.50559
1.50236
1.50021
1.49616
1.49185
1.48989
1.48732
1.48015
1.47028
1.46416
1.46096
1.45769
1.45409
1.44993
1.44526
1.44053
1.43425
1.42599
1.41747
1.40932
1.40586
1.4048
1.40507
1.40489
1.40216
1.39808
1.39204
1.38298
1.37468
1.36909
1.36688
1.36602
1.36601
1.36829
1.37362
1.37683
1.37695
1.37508
1.36915
1.36051
1.35211
1.3445
1.3375
1.33164
1.32727
1.32315
1.31868
1.31335
1.30746
1.30274
1.3
1.29786
1.29496
1.29029
1.28318
1.27473
1.26884
1.26619
1.26398
1.26197
1.26082
1.26026
1.25927
1.2578
1.25549
1.2508
1.24165
1.23215
1.22906
1.22803
1.2275
1.22713
1.22651
1.22554
1.22443
1.22331
1.22173
1.21838
1.21118
1.20296
1.19935
1.1991
1.19918
1.19929
1.19947
1.19971
1.19955
1.19858
1.19559
1.1868
1.17269
1.16689
1.16672
1.16681
1.16737
1.16828
1.17136
1.17806
1.18111
1.17988
1.17694
1.17314
1.16728
1.15465
1.13669
1.12874
1.1266
1.12473
1.12291
1.12254
1.12529
1.12904
1.1283
1.1255
1.12351
1.12273
1.12194
1.11828
1.10914
1.10322
1.10123
1.09996
1.09943
1.09898
1.09845
1.09803
1.09552
1.51253
1.50952
1.50636
1.50363
1.49996
1.49664
1.49364
1.48814
1.47913
1.47022
1.46624
1.46439
1.46281
1.46027
1.45695
1.4526
1.44606
1.43678
1.42541
1.41544
1.40964
1.40735
1.40622
1.40673
1.40829
1.40695
1.40332
1.39911
1.39167
1.37849
1.36843
1.36488
1.36349
1.36296
1.36492
1.37105
1.37757
1.37913
1.37886
1.37649
1.36931
1.35728
1.34713
1.34073
1.33608
1.33178
1.32681
1.32125
1.31618
1.3125
1.30929
1.30557
1.30134
1.2966
1.29109
1.2854
1.27934
1.2731
1.26973
1.26754
1.26506
1.26225
1.25997
1.25806
1.25619
1.25462
1.25308
1.2498
1.24007
1.23025
1.22703
1.22546
1.22452
1.22417
1.22489
1.22499
1.2243
1.22348
1.2216
1.21655
1.20634
1.19801
1.19635
1.19599
1.19579
1.19605
1.19813
1.19951
1.19978
1.19963
1.19764
1.18983
1.1738
1.16571
1.16528
1.16545
1.1662
1.16743
1.1709
1.17688
1.17871
1.17734
1.17452
1.17094
1.16642
1.1584
1.14308
1.13153
1.12858
1.12689
1.12531
1.12517
1.12802
1.13216
1.13203
1.12904
1.12621
1.1243
1.1226
1.11973
1.11317
1.10695
1.10444
1.1034
1.10302
1.1027
1.1024
1.10171
1.0988
1.51097
1.50904
1.50772
1.50406
1.49996
1.49574
1.48893
1.47804
1.46926
1.46532
1.46297
1.46198
1.46251
1.46076
1.4579
1.45454
1.44778
1.43454
1.42032
1.41143
1.40767
1.40572
1.40552
1.40742
1.4067
1.40398
1.40127
1.39731
1.3897
1.37661
1.36711
1.36427
1.36277
1.36222
1.36422
1.37175
1.37698
1.37728
1.37672
1.37477
1.36837
1.35566
1.34414
1.3391
1.33608
1.33257
1.32802
1.32202
1.31612
1.31194
1.30869
1.30536
1.30116
1.29567
1.2893
1.28281
1.27801
1.27467
1.27115
1.26755
1.26409
1.26143
1.26005
1.25891
1.25785
1.25617
1.25253
1.24674
1.2388
1.2322
1.23006
1.22885
1.22705
1.22535
1.22462
1.22355
1.22203
1.22118
1.22066
1.21616
1.20446
1.19738
1.19624
1.19564
1.19517
1.195
1.1957
1.19618
1.19669
1.1972
1.19667
1.19163
1.17811
1.16706
1.1657
1.16584
1.16666
1.16917
1.17373
1.17656
1.17837
1.17775
1.17489
1.17141
1.16761
1.16167
1.15018
1.13703
1.13227
1.13063
1.129
1.1274
1.12707
1.12767
1.12839
1.12677
1.12391
1.12244
1.12121
1.11942
1.11664
1.11122
1.10532
1.10202
1.10094
1.10045
1.09996
1.09928
1.0969
1.51198
1.51229
1.51017
1.50541
1.5011
1.4956
1.48502
1.47185
1.46527
1.46266
1.4611
1.46209
1.46271
1.46036
1.4575
1.45449
1.44772
1.43246
1.41682
1.41148
1.40902
1.40706
1.40614
1.40623
1.40472
1.40157
1.39936
1.39639
1.3886
1.37622
1.3684
1.36561
1.36437
1.3645
1.36887
1.37593
1.37839
1.37825
1.37633
1.37228
1.36556
1.35598
1.34766
1.34148
1.33607
1.33063
1.32574
1.32168
1.31764
1.31398
1.31053
1.30652
1.30184
1.29626
1.28993
1.28268
1.2769
1.27371
1.27125
1.26894
1.26656
1.2637
1.26037
1.25749
1.25412
1.24901
1.24332
1.23961
1.23792
1.23618
1.23392
1.23243
1.23096
1.22893
1.22708
1.22541
1.22386
1.22195
1.21777
1.21025
1.20097
1.1971
1.19632
1.19619
1.19641
1.19785
1.1994
1.19868
1.19674
1.19419
1.19211
1.18899
1.18121
1.17072
1.167
1.16696
1.16762
1.16898
1.16994
1.17031
1.17085
1.17171
1.17072
1.16798
1.16488
1.16149
1.15664
1.14689
1.13777
1.13477
1.13303
1.13081
1.12837
1.12704
1.12703
1.12602
1.12328
1.12319
1.12302
1.1218
1.11947
1.11482
1.10808
1.10254
1.10052
1.09983
1.09927
1.09863
1.09651
1.51406
1.51415
1.51059
1.5064
1.50189
1.49482
1.48172
1.469
1.46458
1.46243
1.46126
1.46273
1.46502
1.463
1.45954
1.4549
1.4458
1.43035
1.41887
1.41399
1.41112
1.4091
1.40779
1.4073
1.40598
1.4026
1.3971
1.39
1.38272
1.37657
1.37199
1.36872
1.36711
1.3673
1.368
1.36823
1.3685
1.36831
1.36623
1.36237
1.35906
1.35616
1.35229
1.34586
1.33785
1.33137
1.32604
1.3202
1.31403
1.31011
1.30786
1.30635
1.30341
1.29684
1.28781
1.28151
1.27801
1.275
1.2718
1.26884
1.26646
1.265
1.26273
1.25962
1.25387
1.24438
1.23791
1.23575
1.23492
1.23494
1.23484
1.23474
1.23407
1.23238
1.22952
1.22558
1.22115
1.2159
1.21026
1.20437
1.19854
1.19627
1.19601
1.19595
1.19572
1.19535
1.1951
1.19453
1.19322
1.1907
1.18747
1.18481
1.18282
1.17894
1.17141
1.1673
1.16711
1.16709
1.16724
1.1674
1.16749
1.16839
1.16852
1.16712
1.1653
1.16397
1.16143
1.15663
1.1477
1.13877
1.13519
1.13279
1.1301
1.12802
1.12754
1.12695
1.1239
1.12145
1.12024
1.11894
1.11709
1.11503
1.11195
1.10726
1.10369
1.10251
1.10201
1.10168
1.0997
1.51728
1.5146
1.51091
1.50745
1.50405
1.49546
1.48005
1.46894
1.46524
1.4632
1.46206
1.46132
1.45853
1.45504
1.45145
1.44647
1.43841
1.42926
1.4236
1.42041
1.41698
1.41284
1.40843
1.40396
1.39897
1.3943
1.38984
1.38465
1.37905
1.3771
1.37581
1.37391
1.37116
1.3689
1.36728
1.36541
1.3633
1.36161
1.35979
1.35782
1.35679
1.35639
1.35489
1.35092
1.34252
1.33299
1.32547
1.31871
1.31328
1.30946
1.30659
1.30384
1.30041
1.29505
1.28659
1.28019
1.27748
1.27568
1.27378
1.27145
1.26838
1.26476
1.261
1.25583
1.24753
1.2392
1.23582
1.23479
1.23392
1.23389
1.23466
1.23436
1.23381
1.23301
1.2312
1.22766
1.22165
1.21204
1.20322
1.19929
1.19853
1.19808
1.19732
1.19639
1.19531
1.19381
1.19228
1.19126
1.19043
1.18951
1.18779
1.18543
1.1833
1.18038
1.17678
1.1711
1.16645
1.16619
1.16685
1.16696
1.16642
1.16563
1.1648
1.16329
1.16135
1.16035
1.16037
1.16007
1.15661
1.14812
1.13939
1.13548
1.13281
1.13031
1.12958
1.12879
1.12541
1.12146
1.11928
1.118
1.11649
1.11519
1.11418
1.11185
1.1067
1.10201
1.09982
1.09918
1.09721
1.51884
1.5154
1.51173
1.5087
1.50051
1.48843
1.47835
1.47193
1.46727
1.46472
1.4624
1.45897
1.45453
1.45026
1.44572
1.44015
1.43251
1.42713
1.42521
1.4231
1.4202
1.41606
1.41002
1.40322
1.3965
1.38933
1.38377
1.38067
1.37921
1.37884
1.37918
1.37866
1.37621
1.3722
1.36566
1.35974
1.35697
1.35588
1.35586
1.35855
1.36174
1.36127
1.3588
1.35394
1.34585
1.33524
1.32609
1.31914
1.31305
1.3084
1.30529
1.30234
1.29837
1.29201
1.28688
1.28302
1.2793
1.2759
1.27338
1.27136
1.26924
1.26671
1.26278
1.25455
1.24257
1.23635
1.2348
1.23381
1.23345
1.23484
1.23586
1.23468
1.23372
1.23289
1.23106
1.22617
1.21667
1.20722
1.20021
1.19739
1.19673
1.19647
1.19634
1.19625
1.19563
1.19373
1.19105
1.18865
1.18626
1.18324
1.1796
1.17655
1.17543
1.17606
1.17691
1.17569
1.17008
1.16461
1.1636
1.16373
1.16351
1.16261
1.1615
1.16025
1.15934
1.15884
1.15832
1.15762
1.15705
1.15485
1.14755
1.13888
1.13457
1.13171
1.12861
1.12563
1.12228
1.11957
1.11812
1.11759
1.11761
1.11748
1.11666
1.1148
1.11018
1.10382
1.09998
1.09882
1.09675
1.51994
1.51641
1.5124
1.50367
1.48942
1.4786
1.47475
1.47261
1.47059
1.46821
1.46494
1.46051
1.45435
1.44598
1.43617
1.43078
1.42913
1.4282
1.42644
1.42375
1.42109
1.41783
1.41254
1.40343
1.39344
1.3864
1.38212
1.38016
1.37911
1.38017
1.38149
1.38007
1.37748
1.37332
1.36494
1.35668
1.35428
1.35427
1.35464
1.35623
1.35872
1.35814
1.35523
1.35122
1.34617
1.33852
1.32807
1.3194
1.31417
1.31069
1.30789
1.3043
1.29825
1.28989
1.28494
1.2833
1.2816
1.27931
1.2765
1.273
1.26915
1.265
1.25883
1.2494
1.24035
1.23598
1.23396
1.23254
1.23175
1.23244
1.23561
1.23618
1.23585
1.23547
1.2337
1.22661
1.21193
1.2018
1.1999
1.19877
1.19705
1.19529
1.19415
1.19338
1.19274
1.19193
1.19008
1.18626
1.18223
1.17846
1.17473
1.17213
1.1718
1.17198
1.17249
1.17316
1.17284
1.16868
1.16193
1.16024
1.16025
1.16016
1.15981
1.15908
1.15827
1.1574
1.15678
1.15681
1.15718
1.15722
1.15466
1.14521
1.13619
1.13202
1.12894
1.12558
1.12206
1.11896
1.11769
1.11739
1.11707
1.11592
1.1144
1.11294
1.11152
1.10884
1.10473
1.10233
1.09929
1.52098
1.51667
1.50855
1.49321
1.48025
1.47474
1.47228
1.4709
1.47122
1.46916
1.46617
1.4622
1.4546
1.44124
1.4298
1.42604
1.42433
1.42254
1.42252
1.42371
1.42182
1.41863
1.41416
1.40485
1.39181
1.38573
1.38361
1.38181
1.38175
1.3825
1.38085
1.37785
1.3752
1.37187
1.36472
1.35597
1.35347
1.35343
1.35422
1.35684
1.35915
1.35871
1.35556
1.35089
1.34613
1.34028
1.33277
1.32438
1.3158
1.30809
1.30199
1.29704
1.29298
1.28918
1.28613
1.28377
1.282
1.27985
1.27705
1.27418
1.27112
1.26635
1.25697
1.2459
1.23961
1.23706
1.23491
1.23313
1.23219
1.2336
1.23558
1.23474
1.23353
1.23226
1.23001
1.22346
1.20992
1.20056
1.19832
1.19701
1.19578
1.19494
1.19454
1.19404
1.19264
1.18993
1.18672
1.18423
1.18047
1.17657
1.17308
1.17065
1.17005
1.17011
1.17076
1.17178
1.17211
1.17045
1.16257
1.15711
1.15687
1.15688
1.15739
1.15952
1.16015
1.15965
1.15944
1.1594
1.15924
1.15862
1.15647
1.14973
1.13957
1.13409
1.13111
1.12795
1.12455
1.12152
1.11947
1.11787
1.11685
1.11582
1.11462
1.11387
1.11325
1.11193
1.10798
1.1025
1.09706
1.52155
1.51563
1.50151
1.48505
1.47647
1.47366
1.47179
1.47195
1.47204
1.46935
1.46636
1.46238
1.45359
1.43733
1.42645
1.42325
1.42085
1.419
1.41878
1.41898
1.41671
1.4141
1.41158
1.40563
1.39386
1.38759
1.38631
1.38633
1.38694
1.3851
1.38177
1.3784
1.37495
1.37103
1.36535
1.35872
1.35469
1.3533
1.35283
1.35238
1.35176
1.3517
1.3507
1.34806
1.34384
1.33878
1.33378
1.32762
1.31926
1.30955
1.29932
1.29209
1.28922
1.28799
1.28688
1.28578
1.28454
1.28214
1.27847
1.27417
1.26938
1.26266
1.25353
1.24488
1.24112
1.23878
1.23661
1.23524
1.23587
1.23782
1.23715
1.2358
1.23422
1.23161
1.22657
1.21895
1.20952
1.20374
1.20104
1.19867
1.19596
1.19437
1.19372
1.19329
1.19289
1.19193
1.18798
1.1802
1.17333
1.17032
1.16956
1.16954
1.16968
1.17002
1.17069
1.17139
1.17145
1.17017
1.16289
1.15416
1.15314
1.15321
1.15301
1.153
1.15359
1.15405
1.1543
1.15483
1.1554
1.15539
1.15465
1.15235
1.1449
1.1339
1.12807
1.12511
1.12198
1.11941
1.11812
1.11668
1.11578
1.11598
1.11707
1.11776
1.11751
1.11599
1.11108
1.10401
1.09732
1.52156
1.51115
1.49406
1.48068
1.47677
1.47438
1.47274
1.47206
1.47174
1.46997
1.46739
1.46286
1.45292
1.43588
1.42568
1.42222
1.41951
1.41719
1.41624
1.41635
1.41402
1.41118
1.40859
1.40559
1.39997
1.39115
1.38636
1.38405
1.38175
1.37894
1.37577
1.3722
1.36837
1.36506
1.36289
1.36071
1.35748
1.35507
1.35336
1.35045
1.34785
1.34667
1.34642
1.34625
1.3437
1.33991
1.33534
1.32954
1.32124
1.30852
1.29572
1.29005
1.2882
1.287
1.28592
1.28481
1.28378
1.28183
1.27932
1.27614
1.27035
1.25985
1.24983
1.2458
1.24383
1.24156
1.23943
1.23803
1.23659
1.2347
1.23274
1.2309
1.22885
1.22563
1.2196
1.21273
1.20906
1.20719
1.20481
1.20131
1.19751
1.19518
1.1941
1.19338
1.19212
1.18889
1.18229
1.17461
1.16997
1.16894
1.16845
1.16805
1.16811
1.16813
1.16858
1.16951
1.17017
1.16996
1.16395
1.15151
1.14855
1.14832
1.14746
1.14714
1.14781
1.14889
1.14953
1.15057
1.15204
1.15342
1.15391
1.15344
1.1485
1.13599
1.12764
1.12471
1.12225
1.11978
1.11814
1.11745
1.11681
1.11675
1.11737
1.11761
1.11724
1.11569
1.11242
1.107
1.09971
1.5161
1.50245
1.4893
1.48306
1.47995
1.47802
1.47567
1.473
1.47093
1.46912
1.46808
1.46516
1.45527
1.438
1.42638
1.42227
1.41972
1.41808
1.41843
1.41862
1.41657
1.41396
1.41127
1.40826
1.4033
1.39564
1.388
1.38255
1.37863
1.37543
1.37251
1.36965
1.36646
1.36364
1.36197
1.36103
1.3598
1.35615
1.35003
1.34598
1.34411
1.34281
1.34198
1.34438
1.34511
1.34208
1.33786
1.33224
1.32325
1.30839
1.29483
1.29008
1.28787
1.28613
1.28511
1.28539
1.28456
1.28195
1.27855
1.27338
1.2655
1.25629
1.24971
1.24699
1.24512
1.24358
1.24237
1.2404
1.23762
1.23523
1.2325
1.22875
1.22461
1.2205
1.21625
1.21139
1.20904
1.20771
1.20611
1.20358
1.20065
1.19855
1.19725
1.19579
1.19306
1.18742
1.17825
1.17088
1.16881
1.16826
1.16811
1.16879
1.16993
1.16931
1.16943
1.16993
1.17027
1.16977
1.16414
1.15102
1.14496
1.14379
1.14306
1.14315
1.14387
1.14523
1.14599
1.14728
1.1489
1.15042
1.15128
1.15136
1.14948
1.14068
1.13081
1.12705
1.1248
1.12267
1.12122
1.12088
1.1202
1.11934
1.11932
1.11929
1.11886
1.11752
1.11475
1.1104
1.10395
1.50442
1.4934
1.48864
1.48623
1.48437
1.48236
1.47876
1.47484
1.47194
1.46987
1.46623
1.45983
1.45073
1.4402
1.43228
1.42691
1.42241
1.41862
1.41498
1.41175
1.40996
1.40874
1.40673
1.40373
1.40034
1.39672
1.39122
1.38397
1.37802
1.37391
1.37062
1.36833
1.36666
1.36519
1.3642
1.36336
1.3619
1.35686
1.34868
1.34407
1.34268
1.34159
1.34077
1.34275
1.34367
1.34054
1.33653
1.33196
1.32433
1.3096
1.29544
1.29078
1.28877
1.28732
1.28646
1.28568
1.28359
1.28096
1.27767
1.27217
1.26108
1.25375
1.25235
1.2509
1.2494
1.24769
1.24516
1.24159
1.23704
1.23149
1.22663
1.22259
1.21871
1.21572
1.21396
1.2128
1.21181
1.21133
1.20982
1.20754
1.20445
1.19979
1.1943
1.19027
1.18672
1.18087
1.17414
1.17044
1.16919
1.16821
1.16767
1.16806
1.16787
1.16694
1.16682
1.16682
1.16674
1.16602
1.1626
1.15374
1.1446
1.1404
1.13964
1.13966
1.13987
1.14102
1.14337
1.14542
1.14719
1.14893
1.14982
1.15006
1.14935
1.14334
1.13114
1.12452
1.1223
1.12057
1.11921
1.11851
1.11852
1.1184
1.11838
1.11902
1.12071
1.12071
1.1197
1.1155
1.10499
1.49549
1.4905
1.48814
1.4874
1.48806
1.48614
1.48288
1.47938
1.47466
1.4677
1.4588
1.45043
1.44378
1.43954
1.43655
1.43309
1.42837
1.42208
1.41519
1.41012
1.40755
1.4064
1.40604
1.40459
1.40185
1.39839
1.39352
1.38723
1.3803
1.37349
1.36971
1.36788
1.36697
1.36742
1.36788
1.36717
1.36477
1.35845
1.34884
1.34376
1.34241
1.34163
1.34203
1.34559
1.34676
1.34336
1.33871
1.33344
1.32579
1.31326
1.29896
1.29165
1.2894
1.28806
1.28779
1.28803
1.28648
1.28364
1.27954
1.27164
1.25964
1.25317
1.2516
1.25074
1.25088
1.24959
1.24699
1.24341
1.23815
1.23059
1.22157
1.21695
1.21555
1.21472
1.2135
1.21231
1.21279
1.2123
1.21017
1.20813
1.20577
1.20124
1.19422
1.18772
1.18307
1.17758
1.17192
1.17038
1.16944
1.16831
1.16699
1.16603
1.16606
1.16576
1.16516
1.16514
1.1653
1.16512
1.16289
1.1558
1.1453
1.13901
1.13783
1.13784
1.13811
1.1391
1.14051
1.1432
1.14796
1.1512
1.15193
1.15209
1.1514
1.14578
1.13241
1.12436
1.1225
1.12136
1.12028
1.11932
1.11856
1.11836
1.11926
1.12045
1.12064
1.12069
1.12032
1.11693
1.10762
1.49283
1.49
1.48833
1.48942
1.49072
1.48855
1.48591
1.483
1.47688
1.464
1.45094
1.44415
1.44079
1.43886
1.43736
1.43495
1.43172
1.4276
1.42174
1.41432
1.4083
1.40465
1.40122
1.39788
1.39479
1.39229
1.39039
1.38846
1.38443
1.37821
1.37274
1.36995
1.36832
1.36739
1.36632
1.36502
1.36332
1.3593
1.35243
1.34661
1.34336
1.34129
1.33972
1.33891
1.33938
1.33667
1.33152
1.32602
1.3202
1.31371
1.30533
1.29824
1.29362
1.29089
1.28891
1.28656
1.28349
1.2797
1.27444
1.26693
1.25861
1.2554
1.25441
1.25322
1.25159
1.2497
1.24756
1.24473
1.23998
1.23016
1.21874
1.21479
1.21386
1.21306
1.2128
1.214
1.21497
1.21356
1.21112
1.20898
1.20666
1.20288
1.19617
1.18713
1.18012
1.17766
1.17573
1.17367
1.17235
1.17097
1.16915
1.16658
1.16364
1.16188
1.16122
1.16109
1.16112
1.16117
1.16099
1.15764
1.14825
1.14237
1.14112
1.1404
1.14005
1.13997
1.14012
1.14143
1.144
1.14665
1.14829
1.14893
1.14877
1.14558
1.13552
1.12704
1.12504
1.12398
1.12274
1.1212
1.12058
1.12061
1.12127
1.12183
1.12229
1.12262
1.12228
1.1189
1.11055
1.49624
1.49328
1.49127
1.49041
1.48967
1.48748
1.485
1.4818
1.47412
1.45887
1.44684
1.4426
1.44056
1.43938
1.43915
1.43681
1.43387
1.4311
1.42758
1.42115
1.41117
1.4014
1.39612
1.39334
1.39133
1.38936
1.38712
1.38455
1.38222
1.38012
1.37721
1.37415
1.37176
1.36955
1.36762
1.3656
1.363
1.35994
1.35657
1.35264
1.34697
1.3414
1.33824
1.33671
1.33547
1.33294
1.32837
1.32256
1.31594
1.30991
1.30605
1.303
1.29938
1.29504
1.29119
1.28825
1.28455
1.27847
1.27092
1.26387
1.25875
1.25668
1.25553
1.25435
1.25287
1.25127
1.24928
1.24631
1.24048
1.22962
1.2186
1.21476
1.21341
1.21251
1.21183
1.2117
1.21266
1.21275
1.21038
1.20804
1.20645
1.20437
1.1984
1.18794
1.18028
1.17579
1.17219
1.16999
1.16867
1.16748
1.16634
1.16503
1.16284
1.1608
1.16016
1.15997
1.15983
1.15958
1.15894
1.15719
1.15129
1.14206
1.1381
1.13741
1.13738
1.13771
1.13868
1.14016
1.14203
1.14416
1.14591
1.14698
1.14716
1.14532
1.13621
1.12537
1.1226
1.12199
1.12152
1.12162
1.12377
1.12428
1.12422
1.12483
1.1258
1.12618
1.12573
1.12186
1.11109
1.50124
1.49907
1.49753
1.49549
1.49298
1.49044
1.48739
1.48251
1.47191
1.45582
1.44628
1.44355
1.44172
1.44056
1.44082
1.44101
1.43863
1.43564
1.43193
1.42416
1.40922
1.39685
1.39228
1.38986
1.38789
1.38631
1.38508
1.38402
1.38284
1.38096
1.37826
1.37442
1.36937
1.36469
1.36119
1.359
1.35735
1.35679
1.35693
1.35637
1.35334
1.34628
1.33883
1.33489
1.33222
1.32922
1.32482
1.31887
1.31247
1.30891
1.30721
1.30586
1.30392
1.30037
1.29445
1.2875
1.28098
1.27303
1.26619
1.26276
1.26127
1.25943
1.25697
1.25474
1.25286
1.25067
1.24817
1.24523
1.23971
1.2301
1.2208
1.21686
1.21548
1.21461
1.21365
1.21292
1.2138
1.21476
1.2129
1.21006
1.20792
1.20549
1.20041
1.19139
1.18239
1.1756
1.17075
1.16857
1.16721
1.16599
1.16489
1.16412
1.16407
1.16323
1.16274
1.16253
1.1623
1.16191
1.16132
1.15964
1.15345
1.14228
1.13605
1.13517
1.13525
1.13603
1.13828
1.14248
1.14471
1.14648
1.14803
1.14884
1.14884
1.14643
1.13659
1.12502
1.12202
1.12184
1.12187
1.12218
1.12285
1.12233
1.12232
1.12292
1.12373
1.12416
1.12393
1.12113
1.11311
1.5077
1.50497
1.50076
1.49441
1.48846
1.4847
1.4812
1.47626
1.4673
1.45569
1.44905
1.44578
1.44368
1.44274
1.44452
1.44515
1.44234
1.43897
1.43464
1.42577
1.40897
1.39533
1.39069
1.38825
1.38607
1.38451
1.3847
1.38572
1.38546
1.38368
1.38135
1.3772
1.36966
1.3625
1.35814
1.35597
1.35569
1.35604
1.3565
1.35667
1.35579
1.35192
1.34395
1.33411
1.32602
1.32192
1.31844
1.31481
1.31159
1.30908
1.30774
1.30679
1.30554
1.30363
1.2988
1.28989
1.2791
1.2703
1.26544
1.2634
1.26105
1.2588
1.25716
1.2558
1.2543
1.25218
1.24893
1.24432
1.23862
1.23253
1.22708
1.22085
1.21513
1.21136
1.20956
1.20821
1.20742
1.2084
1.20893
1.20693
1.2044
1.20222
1.19954
1.19479
1.18629
1.17603
1.17012
1.1684
1.16698
1.16562
1.16483
1.16433
1.1632
1.16185
1.16047
1.15919
1.15818
1.15719
1.15595
1.154
1.14976
1.14211
1.13555
1.13377
1.13375
1.13443
1.13642
1.13899
1.14112
1.14304
1.14422
1.14465
1.14455
1.1423
1.13444
1.12483
1.1226
1.12274
1.12317
1.1237
1.12438
1.12456
1.12473
1.1255
1.1264
1.12639
1.12537
1.12206
1.1156
1.51038
1.50724
1.50286
1.49542
1.48742
1.48221
1.47665
1.46925
1.46204
1.4572
1.45387
1.45052
1.44767
1.44544
1.44319
1.44109
1.44119
1.44024
1.43581
1.4267
1.41129
1.39785
1.39201
1.38912
1.38696
1.38512
1.38415
1.38483
1.38473
1.38261
1.37984
1.37444
1.36425
1.3576
1.35653
1.35665
1.35724
1.35794
1.35858
1.35877
1.35813
1.35552
1.34819
1.33315
1.32054
1.31618
1.31336
1.31124
1.31111
1.31037
1.30943
1.30786
1.30645
1.30479
1.30063
1.28932
1.27454
1.26867
1.26695
1.26499
1.26226
1.25973
1.2577
1.25602
1.25418
1.25125
1.24609
1.2401
1.23688
1.23472
1.23138
1.22583
1.21818
1.21188
1.20891
1.20732
1.20601
1.20552
1.2065
1.20577
1.20421
1.20304
1.20174
1.19814
1.18852
1.17743
1.17319
1.17154
1.17008
1.16875
1.16762
1.16592
1.1639
1.1619
1.16003
1.1581
1.15658
1.1553
1.15339
1.15058
1.1467
1.14191
1.13736
1.13458
1.13287
1.13246
1.13324
1.13592
1.13936
1.14157
1.14274
1.14302
1.14276
1.14057
1.13479
1.12768
1.12378
1.12249
1.12241
1.12339
1.12572
1.129
1.12961
1.13025
1.13097
1.13054
1.12709
1.1226
1.11914
1.50901
1.50575
1.50229
1.49747
1.48943
1.4786
1.47001
1.46311
1.45857
1.45666
1.45519
1.45353
1.45139
1.44814
1.44404
1.44003
1.43617
1.43274
1.42856
1.42225
1.41313
1.40399
1.39667
1.39137
1.38834
1.3866
1.38649
1.38798
1.38724
1.38477
1.38104
1.37336
1.36238
1.35643
1.35484
1.35409
1.35408
1.35644
1.36052
1.36138
1.36097
1.3583
1.35004
1.33279
1.31726
1.31237
1.30947
1.30685
1.30612
1.31037
1.31237
1.3108
1.30906
1.30708
1.30194
1.28898
1.27421
1.26843
1.26622
1.26502
1.26503
1.26329
1.26104
1.25919
1.2571
1.25344
1.24667
1.23889
1.23413
1.23115
1.22894
1.22712
1.22367
1.21755
1.21228
1.20952
1.20702
1.20497
1.20389
1.20248
1.20027
1.19871
1.19766
1.19619
1.19135
1.1819
1.17357
1.16959
1.16771
1.16607
1.16463
1.16291
1.16098
1.15969
1.15911
1.15887
1.15846
1.15749
1.15464
1.14772
1.14042
1.1366
1.13529
1.13471
1.13416
1.13356
1.1329
1.13286
1.13317
1.13426
1.13546
1.13579
1.13554
1.13358
1.13019
1.12813
1.12625
1.12478
1.1245
1.12532
1.12739
1.129
1.13017
1.13132
1.13187
1.1309
1.12623
1.12192
1.11946
1.51174
1.50921
1.50521
1.49848
1.48628
1.47204
1.46324
1.45966
1.45796
1.45618
1.45486
1.45428
1.45269
1.44998
1.44598
1.44031
1.43373
1.42624
1.41918
1.41348
1.40943
1.40578
1.40186
1.39766
1.39327
1.38967
1.38717
1.38452
1.3817
1.37901
1.37526
1.36859
1.36073
1.3563
1.3549
1.35433
1.35459
1.35677
1.36002
1.36176
1.36139
1.35907
1.35149
1.33403
1.31691
1.31045
1.30739
1.30458
1.30291
1.30513
1.30924
1.30865
1.30726
1.3065
1.30299
1.28985
1.27428
1.26949
1.26757
1.26564
1.26312
1.26053
1.25837
1.25623
1.25372
1.24992
1.24339
1.2367
1.23325
1.23115
1.22918
1.22734
1.22549
1.22206
1.21443
1.20567
1.20298
1.20177
1.20113
1.20121
1.19967
1.19766
1.19619
1.19456
1.19177
1.18561
1.17605
1.17003
1.16754
1.16574
1.16409
1.16237
1.16072
1.15978
1.15904
1.158
1.15629
1.15356
1.14952
1.1439
1.13789
1.13498
1.13384
1.13336
1.13314
1.13245
1.13095
1.13003
1.12997
1.13048
1.13133
1.13149
1.13119
1.12973
1.12763
1.12695
1.12734
1.12831
1.12912
1.12982
1.13069
1.13158
1.13287
1.13408
1.13415
1.13225
1.1282
1.12614
1.12461
1.5087
1.50387
1.49853
1.4916
1.48162
1.46909
1.46114
1.45862
1.45684
1.45593
1.45683
1.45676
1.45488
1.45247
1.44914
1.44226
1.43009
1.41785
1.41087
1.40754
1.4058
1.40452
1.4035
1.40145
1.39843
1.39401
1.38856
1.38419
1.38011
1.37498
1.369
1.36355
1.35947
1.35748
1.35681
1.35725
1.35886
1.36089
1.36362
1.36462
1.36388
1.36097
1.35343
1.33815
1.31966
1.31044
1.30676
1.30382
1.30166
1.30306
1.31003
1.31077
1.30798
1.30459
1.2984
1.28548
1.27553
1.27254
1.26989
1.26631
1.26264
1.25984
1.25767
1.25543
1.25246
1.24815
1.2423
1.23688
1.23369
1.23158
1.23006
1.22897
1.22741
1.22432
1.2163
1.20516
1.20064
1.19969
1.19948
1.20109
1.2008
1.19892
1.19734
1.19594
1.1936
1.1883
1.17983
1.17304
1.17031
1.16883
1.16721
1.16545
1.16369
1.16234
1.16131
1.15999
1.1575
1.15204
1.14506
1.14219
1.14088
1.13938
1.13776
1.13623
1.1341
1.13133
1.1307
1.13081
1.13083
1.13087
1.13072
1.12933
1.12673
1.12524
1.12523
1.12694
1.1299
1.13171
1.13179
1.12989
1.12874
1.13024
1.1332
1.13456
1.13457
1.1334
1.13256
1.1324
1.13139
1.50521
1.49696
1.49058
1.48432
1.47706
1.4687
1.46285
1.45956
1.45754
1.45641
1.45585
1.45528
1.45339
1.45057
1.44665
1.43858
1.42373
1.41192
1.40732
1.40534
1.40408
1.40482
1.40574
1.40408
1.40148
1.39795
1.39218
1.38393
1.37457
1.36758
1.36336
1.36093
1.36002
1.35941
1.35835
1.35718
1.35656
1.35673
1.35761
1.3581
1.35733
1.35479
1.35011
1.34139
1.32755
1.31385
1.30783
1.30473
1.30206
1.3004
1.30126
1.30278
1.30129
1.29823
1.29226
1.28197
1.27647
1.27417
1.27149
1.26799
1.26427
1.26097
1.25835
1.25574
1.25175
1.24562
1.24069
1.23846
1.23686
1.23565
1.23442
1.23292
1.23081
1.22704
1.21911
1.20833
1.20069
1.19762
1.19648
1.19568
1.19484
1.19327
1.19197
1.19095
1.18941
1.18633
1.18294
1.17893
1.17351
1.16862
1.16552
1.16327
1.16118
1.15905
1.15739
1.15619
1.15406
1.14911
1.14327
1.1404
1.13892
1.13739
1.13573
1.13434
1.13321
1.13103
1.12716
1.12639
1.127
1.12724
1.12711
1.12593
1.12354
1.12292
1.12411
1.12695
1.13072
1.13409
1.13499
1.13386
1.1318
1.13288
1.136
1.13721
1.13641
1.13356
1.13227
1.13231
1.13177
1.49788
1.4896
1.48393
1.47908
1.4743
1.47076
1.4664
1.46147
1.4598
1.45922
1.4583
1.45712
1.45477
1.45146
1.44649
1.43665
1.42112
1.41077
1.4078
1.40575
1.40411
1.40445
1.40626
1.40535
1.40312
1.40016
1.39384
1.38146
1.3706
1.36403
1.36106
1.36002
1.35965
1.35941
1.35871
1.35755
1.3554
1.3545
1.35436
1.35429
1.35331
1.35038
1.34545
1.33996
1.33247
1.32169
1.31185
1.30664
1.30275
1.29969
1.29749
1.29612
1.29431
1.29176
1.28745
1.28111
1.27728
1.27453
1.27141
1.26822
1.26516
1.26236
1.25969
1.25617
1.25094
1.24502
1.24141
1.23932
1.23713
1.23462
1.23186
1.22923
1.22625
1.22264
1.21864
1.21203
1.20376
1.19707
1.19382
1.19275
1.19187
1.19089
1.19003
1.18921
1.18868
1.18828
1.18696
1.18374
1.17783
1.17104
1.16641
1.16367
1.16148
1.15917
1.1566
1.15449
1.15173
1.14692
1.14215
1.14014
1.13872
1.13702
1.13531
1.13395
1.13271
1.13045
1.12608
1.12402
1.12482
1.12595
1.12618
1.12595
1.12522
1.12538
1.12644
1.12865
1.13196
1.1355
1.13754
1.13781
1.13729
1.13637
1.13678
1.1379
1.13798
1.13772
1.13767
1.13777
1.13714
1.49351
1.48677
1.4809
1.47586
1.47315
1.47124
1.46915
1.46606
1.46037
1.45403
1.4513
1.44947
1.44732
1.44465
1.44057
1.43286
1.42052
1.41236
1.40934
1.40772
1.40761
1.41003
1.41063
1.40855
1.4059
1.40198
1.39337
1.37926
1.36844
1.36552
1.3648
1.36457
1.36394
1.36289
1.36145
1.35824
1.35428
1.35268
1.35179
1.35086
1.34934
1.34646
1.34226
1.33742
1.33278
1.32771
1.32084
1.31179
1.30259
1.29671
1.29383
1.29139
1.28841
1.28462
1.2823
1.28084
1.27883
1.27681
1.27469
1.27187
1.26845
1.26432
1.2597
1.25622
1.25315
1.24915
1.24542
1.24258
1.23981
1.23662
1.23286
1.22834
1.22338
1.21869
1.21515
1.21236
1.20711
1.19859
1.19296
1.19154
1.1909
1.18945
1.18844
1.18793
1.1873
1.18622
1.1846
1.18202
1.17884
1.17451
1.16988
1.16696
1.16499
1.16265
1.15891
1.15276
1.14798
1.14635
1.1451
1.14378
1.14221
1.14046
1.13871
1.13712
1.13559
1.1334
1.12936
1.12485
1.12269
1.12198
1.12143
1.1213
1.12184
1.12327
1.12578
1.12991
1.13482
1.13953
1.14297
1.14406
1.14318
1.13829
1.13594
1.13683
1.13984
1.14346
1.14471
1.14463
1.14369
1.49099
1.48566
1.48146
1.47793
1.47502
1.47282
1.47081
1.4676
1.46099
1.45234
1.44734
1.44525
1.44322
1.43989
1.43472
1.42799
1.42191
1.41777
1.41358
1.41031
1.4082
1.4059
1.40346
1.40091
1.39816
1.39416
1.38705
1.37778
1.37155
1.36757
1.36409
1.36167
1.36041
1.35933
1.35886
1.35831
1.35589
1.35107
1.34713
1.34489
1.34312
1.3415
1.3397
1.33739
1.33444
1.33059
1.32521
1.31664
1.30597
1.29795
1.29125
1.28507
1.27961
1.27689
1.27621
1.27611
1.27583
1.27602
1.27601
1.27382
1.27073
1.26668
1.2614
1.25564
1.25025
1.24566
1.24137
1.23785
1.23529
1.23237
1.2286
1.22436
1.22033
1.21713
1.21441
1.21136
1.20787
1.20327
1.19698
1.1903
1.18784
1.18681
1.18594
1.18572
1.18616
1.18604
1.18507
1.18337
1.18097
1.17759
1.17326
1.16811
1.16347
1.16013
1.15569
1.1492
1.14509
1.14358
1.14256
1.14142
1.13985
1.13807
1.13642
1.13504
1.13371
1.13159
1.12716
1.12164
1.11929
1.11901