/*--------------------------------*- C++ -*----------------------------------*\
  =========                 |
  \\      /  F ield         | OpenFOAM: The Open Source CFD Toolbox
   \\    /   O peration     | Website:  https://openfoam.org
    \\  /    A nd           | Version:  7
     \\/     M anipulation  |
\*---------------------------------------------------------------------------*/
FoamFile
{
    version     2.0;
    format      ascii;
    class       volScalarField;
    location    "4";
    object      rho;
}
// * * * * * * * * * * * * * * * * * * * * * * * * * * * * * * * * * * * * * //

dimensions      [1 -3 0 0 0 0 0];

internalField   nonuniform List<scalar> 
16192
(
3.87183
3.8262
3.77986
3.73264
3.68451
3.63599
3.58804
3.54047
3.49341
3.44749
3.40174
3.3542
3.30502
3.25558
3.20671
3.15846
3.11102
3.06433
3.01805
2.972
2.92683
3.89322
3.8446
3.79535
3.74589
3.6969
3.64924
3.60284
3.55629
3.5097
3.46382
3.41776
3.3699
3.32041
3.27085
3.222
3.17387
3.12673
3.08064
3.03488
2.98901
2.94364
3.90934
3.85832
3.80821
3.75904
3.71106
3.66486
3.61958
3.57322
3.52592
3.4791
3.43204
3.38395
3.33519
3.28636
3.23795
3.19034
3.14359
3.09755
3.05157
3.00553
2.95977
3.92092
3.87101
3.82258
3.77478
3.72767
3.68205
3.63617
3.58892
3.54072
3.49278
3.44501
3.39729
3.34959
3.30208
3.25463
3.20737
3.16063
3.11423
3.06779
3.02141
2.97527
3.93393
3.88659
3.84002
3.79293
3.7454
3.69857
3.65115
3.60271
3.55408
3.50605
3.45823
3.4112
3.36483
3.31835
3.27141
3.2244
3.17749
3.13058
3.08355
3.03686
2.99078
3.95135
3.90512
3.85846
3.81036
3.76174
3.71309
3.66415
3.61535
3.56729
3.5196
3.47235
3.42609
3.38063
3.33454
3.28756
3.24032
3.19324
3.146
3.09887
3.05232
3.00667
3.97019
3.9229
3.87478
3.82522
3.77556
3.7261
3.67698
3.62849
3.58149
3.53465
3.48796
3.44208
3.39665
3.35014
3.30292
3.25543
3.20824
3.16128
3.11461
3.06846
3.02328
3.98881
3.93888
3.88849
3.83788
3.7882
3.73888
3.69038
3.64312
3.59713
3.55076
3.50395
3.45783
3.4119
3.36474
3.31692
3.26957
3.22284
3.17642
3.13051
3.08511
3.0403
4.00684
3.95394
3.90144
3.85022
3.801
3.75298
3.7055
3.65943
3.61377
3.56701
3.51955
3.47291
3.42594
3.37846
3.33098
3.28407
3.23749
3.19167
3.14679
3.10223
3.0576
4.02198
3.96738
3.9143
3.86385
3.8156
3.76864
3.72205
3.67625
3.62966
3.58206
3.53384
3.48666
3.43974
3.3927
3.34552
3.29902
3.25286
3.20748
3.16309
3.11905
3.07447
4.03455
3.98375
3.93105
3.88125
3.83326
3.78594
3.7389
3.692
3.64417
3.59556
3.54751
3.50052
3.4537
3.40711
3.36112
3.31523
3.26902
3.22323
3.17887
3.13514
3.09084
4.0449
3.99973
3.9521
3.90208
3.85221
3.80242
3.75384
3.70545
3.65711
3.60862
3.56123
3.51442
3.46817
3.42247
3.37731
3.33147
3.28526
3.23943
3.19475
3.15061
3.10647
4.0574
4.01595
3.96964
3.92149
3.87012
3.8178
3.76766
3.71864
3.67015
3.62225
3.57607
3.53
3.48387
3.43803
3.39313
3.34794
3.30193
3.2557
3.2105
3.16615
3.12219
4.06546
4.02541
3.98517
3.93717
3.8861
3.83308
3.78202
3.7325
3.68423
3.63762
3.59188
3.54591
3.49937
3.4538
3.40868
3.36306
3.31727
3.27185
3.22664
3.18173
3.13763
4.06723
4.03142
3.99147
3.94703
3.89854
3.84882
3.79864
3.74946
3.70051
3.65355
3.60761
3.5619
3.51532
3.46913
3.42341
3.37833
3.33311
3.2877
3.24238
3.1976
3.1535
4.07059
4.03271
3.99454
3.95328
3.90874
3.8638
3.81712
3.76837
3.71879
3.67075
3.62356
3.57667
3.53017
3.48464
3.43903
3.39338
3.3481
3.30341
3.25845
3.21343
3.16886
4.07567
4.03302
3.99382
3.95664
3.91832
3.87813
3.83434
3.78701
3.73747
3.68784
3.63908
3.59156
3.54577
3.49999
3.45419
3.40874
3.36397
3.31891
3.27363
3.22874
3.1844
4.07612
4.03488
3.99708
3.96202
3.92872
3.88927
3.84624
3.80153
3.75515
3.706
3.65646
3.60751
3.56101
3.51565
3.4703
3.42422
3.37884
3.33417
3.28938
3.2443
3.19984
4.08889
4.04523
4.00553
3.96878
3.93442
3.89621
3.85528
3.81216
3.76897
3.72349
3.67452
3.62523
3.57835
3.53233
3.48589
3.43965
3.39437
3.3493
3.30428
3.25958
3.21575
4.10965
4.05979
4.01468
3.97461
3.93676
3.89935
3.86089
3.82258
3.78158
3.73827
3.69206
3.64366
3.5959
3.54929
3.5024
3.45538
3.40913
3.3643
3.31993
3.2755
3.23173
4.1252
4.07155
4.02097
3.97919
3.94136
3.90389
3.86648
3.83013
3.79102
3.74975
3.70697
3.66117
3.61356
3.56646
3.51909
3.47179
3.42536
3.3801
3.33548
3.29139
3.24805
4.15281
4.09601
4.04087
3.99333
3.95114
3.91022
3.87141
3.83603
3.79794
3.75918
3.71951
3.67634
3.63065
3.58397
3.53682
3.4891
3.442
3.39661
3.35227
3.30808
3.2642
4.17175
4.11384
4.05738
4.00566
3.95886
3.91584
3.87722
3.84026
3.80311
3.76686
3.72933
3.68719
3.64393
3.59995
3.55486
3.50764
3.46023
3.41405
3.36915
3.3246
3.28013
4.1935
4.13583
4.07894
4.02564
3.97472
3.92847
3.88776
3.84785
3.80854
3.77254
3.73696
3.69831
3.65535
3.61298
3.57103
3.5264
3.4795
3.43262
3.38684
3.34131
3.29598
4.22181
4.16018
4.10316
4.04922
3.99618
3.9454
3.89872
3.85572
3.81358
3.777
3.74284
3.706
3.66572
3.62676
3.58561
3.54283
3.49715
3.45009
3.4038
3.35816
3.31278
4.23299
4.17964
4.12427
4.06916
4.0147
3.9613
3.91068
3.86405
3.82038
3.78368
3.74848
3.71292
3.6759
3.63619
3.59712
3.5574
3.51354
3.46706
3.42072
3.3751
3.33
4.25588
4.20491
4.15068
4.09555
4.03957
3.98361
3.93021
3.87967
3.83407
3.79417
3.75614
3.719
3.68329
3.64586
3.607
3.56679
3.52572
3.48217
3.43742
3.39288
3.34873
4.27876
4.22308
4.16849
4.11379
4.05822
4.0024
3.94885
3.89652
3.84961
3.80555
3.76467
3.7257
3.68967
3.65138
3.61191
3.57557
3.53787
3.49508
3.45161
3.40996
3.36775
4.25908
4.23256
4.1849
4.13252
4.07891
4.02502
3.97215
3.91966
3.87002
3.82237
3.77653
3.73507
3.69676
3.65691
3.61713
3.58217
3.54767
3.50829
3.46594
3.42506
3.38466
4.29161
4.26687
4.21324
4.15298
4.10126
4.04957
3.99643
3.9428
3.89076
3.84032
3.79013
3.74459
3.70416
3.66383
3.62318
3.58941
3.55699
3.51938
3.47929
3.4398
3.39964
4.19262
4.24781
4.21483
4.17081
4.12244
4.07077
4.01681
3.96288
3.90948
3.85787
3.80587
3.75753
3.71435
3.67355
3.63278
3.5983
3.56569
3.52986
3.49054
3.45222
3.41384
4.04998
4.27632
4.23965
4.19253
4.14305
4.09109
4.03734
3.98309
3.93027
3.87895
3.82718
3.77735
3.73075
3.68719
3.64561
3.60896
3.57368
3.5378
3.50033
3.46285
3.42368
3.61995
4.26331
4.2522
4.20146
4.15028
4.10159
4.05289
4.00192
3.95051
3.89929
3.84846
3.7983
3.74916
3.70237
3.65923
3.61976
3.58262
3.54574
3.50813
3.47028
3.43173
2.83017
4.059
4.2287
4.20611
4.16195
4.11542
4.07145
4.02483
3.97545
3.92406
3.87294
3.8221
3.77131
3.72152
3.67644
3.63353
3.59353
3.55503
3.51633
3.47732
3.43917
3.81872
4.24915
4.23341
4.18506
4.1333
4.08978
4.04479
3.99618
3.94561
3.89488
3.84439
3.79317
3.7426
3.69483
3.64909
3.60515
3.56433
3.52471
3.48458
3.44631
3.15785
4.09526
4.21323
4.18952
4.14758
4.10411
4.06009
4.01345
3.96583
3.91683
3.86663
3.81542
3.76469
3.71492
3.66647
3.6192
3.57548
3.5343
3.49396
3.4555
2.29638
3.95012
4.24016
4.21672
4.16974
4.12089
4.07536
4.03025
3.98517
3.93798
3.88879
3.83795
3.787
3.73627
3.686
3.63634
3.59039
3.54711
3.50605
3.46723
1.64012
3.43666
4.18483
4.20336
4.17272
4.12994
4.08706
4.0444
4.00092
3.95444
3.90561
3.85642
3.80682
3.75652
3.70545
3.65535
3.60778
3.56305
3.52031
3.48089
1.42122
2.60383
4.03669
4.20889
4.18657
4.14543
4.10173
4.05929
4.01584
3.97031
3.92283
3.87563
3.82795
3.77874
3.72828
3.67854
3.63048
3.58395
3.53914
3.49713
1.40079
1.8252
3.66367
4.21883
4.20822
4.16701
4.11103
4.06669
4.02481
3.98159
3.93672
3.89281
3.84758
3.79992
3.75039
3.7016
3.65364
3.60602
3.55909
3.51402
1.40002
1.45741
2.90776
4.02354
4.17934
4.16048
4.11958
4.07637
4.03644
3.99539
3.95293
3.91121
3.8679
3.82193
3.77417
3.72649
3.6784
3.62963
3.58095
3.53336
1.40001
1.40274
2.0604
3.81074
4.20318
4.18666
4.14215
4.09232
4.05051
4.00926
3.96772
3.92724
3.88544
3.84126
3.79546
3.74885
3.7009
3.65176
3.60219
3.55318
1.40001
1.40008
1.53232
3.17937
4.06549
4.16643
4.14463
4.10428
4.06292
4.02184
3.98156
3.94216
3.90138
3.85852
3.81485
3.76945
3.72159
3.67235
3.62279
3.57363
1.40001
1.40001
1.40863
2.32128
3.91935
4.18772
4.16863
4.12469
4.07885
4.03641
3.99687
3.95776
3.91696
3.87429
3.83131
3.78663
3.73965
3.69165
3.64348
3.59534
1.40001
1.40001
1.40029
1.65389
3.41247
4.13514
4.15931
4.13149
4.08888
4.04803
4.0096
3.97026
3.92812
3.88501
3.8433
3.79988
3.75426
3.70856
3.66311
3.61687
1.40001
1.40001
1.40001
1.42383
2.57923
3.98543
4.16531
4.14731
4.10601
4.06359
4.02382
3.98254
3.93948
3.89669
3.85559
3.81356
3.77017
3.72697
3.68393
3.63978
1.40001
1.40001
1.40001
1.40095
1.80733
3.59807
4.17822
4.16777
4.12839
4.07369
4.03107
3.98993
3.9471
3.90618
3.86708
3.82672
3.7852
3.74405
3.70261
3.65964
1.40001
1.40001
1.40001
1.40003
1.4536
2.83205
3.97375
4.1365
4.11982
4.08202
4.04047
4.00071
3.95929
3.91979
3.88117
3.84143
3.80141
3.76191
3.72107
3.67831
1.40001
1.40001
1.40001
1.40001
1.40262
1.99691
3.72744
4.16072
4.14663
4.10745
4.0574
4.01449
3.97256
3.93321
3.89454
3.8547
3.81511
3.77662
3.73655
3.69436
1.40001
1.40001
1.40001
1.40001
1.40008
1.50961
3.0612
4.00592
4.12566
4.10597
4.06807
4.02542
3.98429
3.94586
3.90716
3.86721
3.82824
3.79071
3.75128
3.70977
1.40001
1.40001
1.40001
1.40001
1.40001
1.40684
2.2072
3.83028
4.15011
4.13156
4.09095
4.04187
3.99858
3.96034
3.92178
3.88161
3.84216
3.80405
3.7648
3.7244
1.40001
1.40001
1.40001
1.40001
1.40001
1.40023
1.59745
3.26208
4.0568
4.11629
4.09478
4.0513
4.00984
3.97247
3.93429
3.89434
3.85521
3.81659
3.7768
3.73685
1.40001
1.40001
1.40001
1.40001
1.40001
1.40001
1.41636
2.41391
3.91102
4.13117
4.11346
4.06917
4.02543
3.98704
3.94919
3.90982
3.87043
3.82996
3.78942
3.74962
1.40001
1.40001
1.40001
1.40001
1.40001
1.40001
1.40063
1.70659
3.439
4.095
4.11207
4.08135
4.0396
3.99957
3.95973
3.92049
3.88206
3.84138
3.79976
3.75962
1.40001
1.40001
1.40001
1.40001
1.40001
1.40001
1.40002
1.43353
2.61928
3.93768
4.11147
4.09613
4.05639
4.01403
3.97173
3.93243
3.89285
3.85201
3.81159
3.77236
1.40001
1.40001
1.40001
1.40001
1.40001
1.40001
1.40001
1.40153
1.83342
3.56965
4.12814
4.11957
4.08334
4.02914
3.98071
3.94139
3.90265
3.86259
3.82286
3.78458
1.40001
1.40001
1.40001
1.40001
1.40001
1.40001
1.40001
1.40005
1.46067
2.81206
3.92097
4.08631
4.07269
4.03786
3.99114
3.95212
3.91446
3.87579
3.83701
3.79917
1.40001
1.40001
1.40001
1.40001
1.40001
1.40001
1.40001
1.40001
1.40323
1.98069
3.66096
4.11256
4.1004
4.06387
4.00964
3.96786
3.9295
3.88999
3.85065
3.81237
1.40001
1.40001
1.40001
1.40001
1.40001
1.40001
1.40001
1.40001
1.4001
1.50481
2.98399
3.94957
4.07633
4.05971
4.02112
3.9804
3.9419
3.90235
3.86356
3.82514
1.40001
1.40001
1.40001
1.40001
1.40001
1.40001
1.40001
1.40001
1.40001
1.40668
2.13885
3.7464
4.09967
4.08507
4.04512
3.99837
3.95633
3.9161
3.87784
3.83962
1.40001
1.40001
1.40001
1.40001
1.40001
1.40001
1.40001
1.40001
1.40001
1.40023
1.56789
3.14145
3.97677
4.06874
4.0488
4.01031
3.96809
3.92884
3.89127
3.85328
1.40001
1.40001
1.40001
1.40001
1.40001
1.40001
1.40001
1.40001
1.40001
1.40001
1.41328
2.29166
3.81022
4.08684
4.07056
4.0308
3.98419
3.94416
3.90679
3.86846
1.40001
1.40001
1.40001
1.40001
1.40001
1.40001
1.40001
1.40001
1.40001
1.40001
1.40052
1.64052
3.27573
4.00884
4.05801
4.03659
3.99397
3.9551
3.9182
3.88013
1.40001
1.40001
1.40001
1.40001
1.40001
1.40001
1.40001
1.40001
1.40001
1.40001
1.40002
1.42306
2.43577
3.85722
4.06798
4.05399
4.01196
3.97045
3.93246
3.89445
1.40001
1.40001
1.40001
1.40001
1.40001
1.40001
1.40001
1.40001
1.40001
1.40001
1.40001
1.40099
1.71976
3.38901
4.03251
4.05422
4.02464
3.98428
3.94568
3.90754
1.28109
1.27885
1.27686
1.27591
1.27526
1.27457
1.27386
1.27326
1.27271
1.27172
1.26924
1.26663
1.26592
1.26537
1.26478
1.26425
1.26383
1.26354
1.26333
1.26308
1.2626
1.26111
1.25797
1.2563
1.256
1.2559
1.25614
1.25639
1.25628
1.25607
1.25586
1.25558
1.25495
1.25415
1.25401
1.2542
1.25504
1.25623
1.25661
1.25655
1.25604
1.25488
2.894
2.87227
2.85125
2.83108
2.81067
2.78995
2.76799
2.74946
2.72925
2.71007
2.6892
2.66974
2.65055
2.62085
2.59544
2.5935
2.61965
2.76857
2.99959
3.08277
3.08077
3.05714
3.01901
2.9774
2.94027
2.90899
2.87765
2.84644
2.81354
2.78126
2.75067
2.71792
2.68662
2.65318
2.62275
2.59534
2.56517
2.53744
2.5048
2.47848
2.45322
2.42541
2.39928
2.3697
2.34851
2.32518
2.3
2.27324
2.24545
2.22468
2.20288
2.17859
2.15531
2.1338
2.11309
2.09063
2.06769
2.0449
2.02514
2.00646
1.98417
1.966
1.94619
1.92621
1.91097
1.89007
1.87543
1.86237
1.84474
1.83012
1.81058
1.79014
1.77749
1.76158
1.74842
1.73474
1.71988
1.70581
1.68794
1.67249
1.65772
1.6419
1.6316
1.6188
1.60629
1.59637
1.58197
1.57156
1.5619
1.54974
1.54043
1.53102
1.52067
1.50575
1.48703
1.47153
1.45785
1.45026
1.44672
1.44046
1.43397
1.42756
1.41703
1.40548
1.3926
1.3814
1.3739
1.36544
1.3552
1.34315
1.33256
1.32226
1.31498
1.31173
1.30837
1.3051
1.30237
1.29902
1.29217
1.28297
1.28013
1.27949
1.27933
1.28074
1.28331
1.28412
1.28417
1.2827
1.27918
1.27864
1.27958
1.28142
1.28566
1.29028
1.29104
1.29084
1.28977
1.28781
1.28702
1.28652
1.28561
1.28437
1.28284
1.28056
1.27659
1.27194
1.27017
1.26986
1.26973
1.27048
1.27346
1.27633
1.27642
1.27583
1.27477
1.2724
1.26821
1.26598
1.26566
1.26565
1.26615
1.26776
1.26971
1.27036
1.27041
1.27029
1.26951
1.26825
1.26797
1.26814
1.26869
1.27003
1.27257
1.27435
1.27466
1.27464
1.27399
1.27186
1.27055
1.27085
1.27133
1.27209
1.2739
1.27809
1.2816
1.28214
1.28223
1.2817
1.28006
1.27819
1.27732
1.27694
1.27666
1.27669
1.27645
1.27604
1.27546
1.27396
1.27092
1.26901
1.26832
1.2677
1.2671
1.26651
1.26604
1.26574
1.26549
1.26516
1.2641
1.26118
1.25853
1.25794
1.25755
1.25734
1.25729
1.25707
1.25685
1.25664
1.25638
1.25594
1.25533
1.25514
1.25525
1.25584
1.25687
1.25735
1.25735
1.25699
1.25597
1.25433
2.91017
2.88841
2.86767
2.84682
2.82621
2.80394
2.78455
2.7649
2.74507
2.72484
2.70378
2.68683
2.66756
2.64318
2.61212
2.5983
2.60254
2.67286
2.88057
3.05797
3.08682
3.07443
3.04272
2.99986
2.96316
2.92967
2.89733
2.86499
2.8332
2.80268
2.77029
2.73859
2.70583
2.67443
2.64658
2.61622
2.58782
2.5566
2.52735
2.50341
2.47528
2.45005
2.4206
2.39572
2.37344
2.34721
2.32218
2.29282
2.26933
2.2488
2.22488
2.20206
2.17843
2.15531
2.13436
2.11141
2.08759
2.06691
2.04795
2.02575
2.00651
1.98659
1.96543
1.94962
1.92979
1.91245
1.90006
1.88283
1.86707
1.85051
1.82703
1.81318
1.79825
1.78308
1.77066
1.75457
1.74012
1.72255
1.70479
1.69078
1.67332
1.66243
1.65138
1.63803
1.62806
1.61449
1.60185
1.59224
1.57974
1.56905
1.55934
1.54891
1.53517
1.51645
1.49991
1.48658
1.47757
1.47376
1.4683
1.46088
1.45441
1.44371
1.43105
1.41899
1.40738
1.39969
1.39232
1.38261
1.3689
1.35509
1.34544
1.33783
1.33326
1.32862
1.32385
1.31935
1.31459
1.30723
1.29535
1.28679
1.28517
1.28453
1.28453
1.28573
1.28654
1.28639
1.28423
1.27903
1.27714
1.27797
1.27964
1.28346
1.28948
1.29172
1.29184
1.29133
1.28972
1.28882
1.28865
1.28841
1.28761
1.28617
1.28396
1.28019
1.27503
1.27218
1.27171
1.2715
1.27196
1.27465
1.27778
1.27798
1.27734
1.27628
1.2741
1.26992
1.26711
1.26666
1.26661
1.26699
1.26842
1.27021
1.27085
1.2709
1.27084
1.27021
1.26879
1.26803
1.26802
1.26832
1.26931
1.27154
1.27377
1.27427
1.27425
1.27357
1.27133
1.26897
1.26897
1.26955
1.27034
1.27178
1.27564
1.28041
1.28161
1.28179
1.28162
1.28037
1.2785
1.27779
1.27764
1.27759
1.27822
1.27908
1.27905
1.27878
1.27783
1.27527
1.27239
1.27115
1.27048
1.2699
1.26958
1.26926
1.26885
1.26853
1.26821
1.26743
1.26464
1.26103
1.25993
1.25932
1.25879
1.25845
1.25823
1.25799
1.25778
1.25758
1.25732
1.25686
1.25662
1.25661
1.25683
1.25749
1.25798
1.25804
1.25783
1.25698
1.25545
1.2548
2.92583
2.90447
2.88336
2.86255
2.84031
2.81985
2.80026
2.77972
2.76035
2.73843
2.72049
2.70199
2.6834
2.6623
2.63345
2.61003
2.6058
2.62689
2.75926
2.98147
3.08136
3.08136
3.06232
3.02376
2.98564
2.9502
2.91609
2.88405
2.85386
2.82201
2.79012
2.75782
2.72637
2.69807
2.66791
2.63867
2.60854
2.57751
2.55298
2.52561
2.49952
2.47243
2.44412
2.42173
2.39516
2.36957
2.34173
2.3141
2.29445
2.27114
2.24798
2.22519
2.19912
2.17775
2.15573
2.13128
2.1095
2.08973
2.0676
2.04763
2.02728
2.00553
1.98853
1.96964
1.95055
1.93784
1.92145
1.90459
1.88981
1.86628
1.84937
1.83531
1.81874
1.80638
1.79057
1.77441
1.75719
1.73768
1.72319
1.70641
1.69317
1.68383
1.6707
1.65976
1.64762
1.63286
1.62265
1.61046
1.59806
1.58814
1.57714
1.56448
1.54653
1.52869
1.51578
1.50552
1.50076
1.4962
1.48844
1.4814
1.47079
1.45641
1.44459
1.4335
1.4254
1.41899
1.40998
1.39635
1.38088
1.36999
1.36156
1.35598
1.35159
1.34632
1.34089
1.33481
1.32652
1.31399
1.29894
1.29371
1.29243
1.292
1.29234
1.2924
1.29176
1.2893
1.28238
1.27679
1.27649
1.27749
1.28102
1.28768
1.29175
1.29218
1.29206
1.2907
1.28945
1.2895
1.28971
1.28981
1.28908
1.28733
1.28406
1.27896
1.275
1.27421
1.27392
1.27412
1.27644
1.27969
1.28004
1.2793
1.27816
1.2759
1.27166
1.26838
1.26775
1.26768
1.26795
1.26921
1.27086
1.27146
1.27149
1.27147
1.27105
1.26972
1.2685
1.2683
1.26842
1.26908
1.27091
1.2734
1.27425
1.27424
1.27365
1.27165
1.26819
1.26701
1.26744
1.26828
1.26967
1.273
1.27838
1.28059
1.28087
1.28095
1.28019
1.27824
1.27743
1.27746
1.27765
1.27851
1.28032
1.28095
1.28091
1.2804
1.27854
1.27573
1.27399
1.27326
1.27266
1.27231
1.27266
1.27257
1.27213
1.27174
1.271
1.26842
1.26398
1.26178
1.26126
1.26061
1.26007
1.25974
1.25955
1.25947
1.25938
1.25921
1.25901
1.25845
1.25818
1.25816
1.25833
1.25868
1.25877
1.25866
1.25793
1.25652
1.25582
1.25586
2.94149
2.92005
2.89887
2.87701
2.85564
2.83597
2.81529
2.79569
2.77388
2.75475
2.73615
2.7168
2.69873
2.67786
2.65636
2.62817
2.60995
2.61328
2.67333
2.85908
3.05045
3.08607
3.07708
3.04746
3.00914
2.96978
2.93452
2.90429
2.87302
2.84121
2.80886
2.77723
2.74884
2.71899
2.68944
2.66006
2.62898
2.60319
2.57634
2.54905
2.52305
2.49348
2.46975
2.44383
2.4167
2.39077
2.36039
2.33938
2.31743
2.29318
2.27152
2.24481
2.22152
2.20024
2.17569
2.15308
2.13249
2.10971
2.08942
2.06853
2.04625
2.02804
2.00946
1.98974
1.97612
1.9604
1.943
1.92864
1.90655
1.88655
1.87243
1.8555
1.84177
1.82765
1.80951
1.79179
1.77152
1.75523
1.74048
1.72469
1.71602
1.70422
1.69183
1.68104
1.66495
1.65307
1.64147
1.62785
1.61731
1.60574
1.59352
1.57712
1.55822
1.54527
1.5343
1.52824
1.524
1.5165
1.50863
1.49861
1.48211
1.46958
1.45966
1.45112
1.44492
1.43713
1.42484
1.40795
1.39434
1.38626
1.38011
1.37571
1.3703
1.36423
1.35737
1.34859
1.33642
1.32155
1.30963
1.30633
1.3049
1.30398
1.30275
1.30099
1.29739
1.28857
1.28007
1.27814
1.27823
1.28028
1.28632
1.29174
1.29269
1.29268
1.29145
1.28942
1.28942
1.28992
1.29064
1.29059
1.28967
1.28726
1.2829
1.27846
1.27719
1.2769
1.27693
1.27893
1.28226
1.28277
1.28195
1.28066
1.27825
1.27382
1.26987
1.26893
1.26883
1.26904
1.27015
1.27164
1.27221
1.2722
1.27216
1.27192
1.27084
1.26931
1.26885
1.26887
1.26924
1.27059
1.27308
1.27444
1.27448
1.27402
1.27236
1.26883
1.2663
1.26643
1.26695
1.26789
1.27048
1.27596
1.27938
1.27983
1.27992
1.27949
1.27757
1.27634
1.2765
1.27687
1.2779
1.28032
1.28182
1.28195
1.28182
1.28067
1.27835
1.27646
1.27574
1.27524
1.27488
1.27542
1.27626
1.2759
1.2754
1.27459
1.27225
1.26765
1.264
1.26325
1.26274
1.26222
1.26186
1.26174
1.26178
1.26196
1.26191
1.26167
1.26087
1.25977
1.25953
1.25949
1.25955
1.25957
1.25949
1.25898
1.25775
1.25689
1.25681
1.25704
2.95733
2.93608
2.91449
2.89253
2.87247
2.85181
2.83184
2.81046
2.7901
2.77159
2.75114
2.7327
2.71193
2.69423
2.67543
2.64866
2.6219
2.61589
2.62907
2.74215
2.96211
3.07314
3.0834
3.06745
3.0339
2.99177
2.95608
2.92382
2.89218
2.8605
2.82925
2.80049
2.77055
2.74046
2.71089
2.68033
2.65379
2.62721
2.59943
2.57345
2.54368
2.51794
2.49237
2.46419
2.43898
2.4087
2.38464
2.36366
2.33872
2.31688
2.29126
2.26575
2.2448
2.22052
2.19709
2.17627
2.15252
2.13185
2.11073
2.0879
2.06864
2.04956
2.02956
2.01512
1.99963
1.98208
1.96755
1.94705
1.92493
1.90967
1.89281
1.87739
1.86448
1.84565
1.82656
1.80612
1.78777
1.77452
1.7581
1.74824
1.7382
1.7248
1.71425
1.69851
1.68365
1.67225
1.65845
1.64658
1.63517
1.62248
1.6077
1.58875
1.57476
1.56397
1.55634
1.55191
1.54486
1.53614
1.52666
1.50898
1.49419
1.48544
1.47712
1.47075
1.46388
1.45289
1.43608
1.41996
1.4112
1.40458
1.39984
1.39475
1.38826
1.38119
1.37227
1.36062
1.34652
1.33301
1.3251
1.32231
1.32037
1.31803
1.31496
1.3101
1.29921
1.28679
1.28211
1.28158
1.28235
1.28717
1.29291
1.29422
1.29409
1.2929
1.28996
1.28901
1.28947
1.2906
1.29154
1.2912
1.28938
1.28549
1.28115
1.27966
1.2795
1.27976
1.28197
1.28551
1.28614
1.28531
1.28394
1.28128
1.27665
1.27209
1.27072
1.27053
1.27053
1.27133
1.27257
1.27301
1.27297
1.27289
1.27274
1.27195
1.27029
1.26951
1.26948
1.26967
1.27056
1.2727
1.27462
1.27483
1.27453
1.27317
1.26996
1.26622
1.26556
1.26588
1.26662
1.26863
1.27367
1.27827
1.2791
1.27914
1.27874
1.27684
1.27501
1.27508
1.27562
1.27667
1.27929
1.2818
1.28222
1.28228
1.28182
1.28017
1.27829
1.27757
1.27725
1.27701
1.27762
1.27926
1.27923
1.27868
1.27784
1.27581
1.27169
1.26717
1.26573
1.26526
1.26479
1.26454
1.26457
1.26477
1.26509
1.26512
1.26476
1.2635
1.26157
1.26091
1.26079
1.26074
1.26062
1.26047
1.26008
1.25909
1.2581
1.2579
1.25793
1.25841
2.97348
2.95218
2.93031
2.90977
2.88912
2.86865
2.84769
2.82659
2.80779
2.78735
2.76805
2.74701
2.72736
2.71066
2.6917
2.66858
2.63953
2.62255
2.62655
2.67065
2.83818
3.03128
3.08747
3.08247
3.05708
3.01636
2.97901
2.94415
2.9108
2.8795
2.85145
2.82219
2.7924
2.76251
2.73161
2.70444
2.67769
2.64969
2.62335
2.5941
2.56698
2.54103
2.51238
2.48655
2.4575
2.43067
2.40952
2.38463
2.36174
2.33761
2.31064
2.28929
2.26552
2.24118
2.22022
2.19579
2.17459
2.15372
2.13056
2.11059
2.09079
2.07008
2.05501
2.03933
2.02162
2.00666
1.98729
1.9642
1.94719
1.93012
1.91362
1.90069
1.88238
1.86163
1.84094
1.82119
1.80817
1.793
1.7814
1.77253
1.75909
1.7475
1.73337
1.71489
1.70268
1.6894
1.67613
1.66521
1.65196
1.63796
1.62022
1.60441
1.59429
1.58509
1.57997
1.57348
1.56412
1.55435
1.53766
1.51882
1.51073
1.50346
1.49657
1.49017
1.4806
1.46503
1.44677
1.43612
1.42939
1.42414
1.41948
1.41277
1.40508
1.3962
1.38503
1.37184
1.35916
1.3493
1.34367
1.34059
1.33754
1.33357
1.32756
1.31502
1.29879
1.29083
1.28966
1.2894
1.29212
1.2967
1.29781
1.29737
1.29554
1.29137
1.28908
1.28919
1.29027
1.29192
1.29204
1.29105
1.2879
1.28326
1.28121
1.28112
1.28164
1.28429
1.2888
1.28997
1.28921
1.28776
1.28505
1.28031
1.27503
1.27306
1.27283
1.27277
1.27311
1.27383
1.27401
1.27382
1.27363
1.27344
1.27297
1.27161
1.27035
1.2702
1.27028
1.2708
1.27235
1.27453
1.27515
1.27501
1.27403
1.27131
1.26697
1.26509
1.26518
1.2657
1.26732
1.27179
1.27731
1.27882
1.27889
1.27846
1.27651
1.27372
1.27357
1.27423
1.27521
1.27751
1.28086
1.28189
1.28203
1.282
1.28119
1.27939
1.27862
1.27849
1.27842
1.27912
1.2812
1.28179
1.28132
1.28046
1.27874
1.27541
1.27093
1.26881
1.26836
1.26791
1.26766
1.26792
1.26835
1.26861
1.26861
1.26817
1.26646
1.26368
1.26245
1.26227
1.26221
1.26207
1.26188
1.26156
1.26073
1.25956
1.25918
1.25912
1.25917
1.25975
2.99036
2.96867
2.94757
2.92708
2.90643
2.88558
2.86392
2.84477
2.82442
2.8044
2.78401
2.76255
2.74505
2.72583
2.70802
2.68673
2.66052
2.63724
2.62966
2.64038
2.73377
2.9355
3.07032
3.08756
3.07429
3.04177
3.00383
2.96582
2.9307
2.90191
2.87307
2.84353
2.81408
2.78349
2.75586
2.72863
2.70016
2.67293
2.6438
2.61608
2.58968
2.56099
2.53443
2.50639
2.47803
2.45548
2.43063
2.40646
2.38313
2.3559
2.33381
2.31062
2.28565
2.26429
2.2394
2.2172
2.19693
2.17381
2.15344
2.13354
2.11184
2.09609
2.07994
2.06178
2.04613
2.02704
2.00373
1.98504
1.96729
1.95021
1.93665
1.91926
1.89731
1.87584
1.85543
1.84185
1.82827
1.81581
1.80728
1.79448
1.78146
1.76874
1.74768
1.73302
1.72024
1.70627
1.69526
1.68243
1.66823
1.65197
1.63474
1.62445
1.61479
1.60837
1.6023
1.59275
1.58214
1.56693
1.54475
1.53543
1.5297
1.52266
1.51634
1.50776
1.49379
1.47509
1.46155
1.45481
1.44861
1.44387
1.43764
1.42933
1.41995
1.40895
1.39709
1.38531
1.37567
1.36809
1.363
1.35929
1.35506
1.34875
1.33583
1.31623
1.30381
1.30183
1.3012
1.30237
1.30451
1.30448
1.30367
1.30188
1.29588
1.29042
1.28963
1.29031
1.29256
1.29333
1.29249
1.28917
1.28416
1.28231
1.28227
1.28297
1.28577
1.29105
1.2934
1.29293
1.29162
1.28912
1.28463
1.27909
1.2764
1.27591
1.27562
1.27555
1.27551
1.27521
1.27488
1.27459
1.2743
1.2739
1.27303
1.27166
1.27116
1.27113
1.27133
1.27226
1.27421
1.27538
1.27537
1.27476
1.27267
1.26822
1.26507
1.26481
1.2651
1.26635
1.27023
1.27635
1.27885
1.27898
1.27868
1.27709
1.27366
1.27263
1.27313
1.27393
1.27566
1.27909
1.28105
1.28131
1.2814
1.28122
1.27989
1.27899
1.27899
1.27914
1.27989
1.2821
1.28343
1.28322
1.28251
1.28107
1.27841
1.2745
1.27212
1.27168
1.27129
1.27103
1.27155
1.27235
1.2724
1.27223
1.27176
1.26987
1.26643
1.26443
1.26409
1.26403
1.26398
1.26377
1.26351
1.26296
1.26164
1.26063
1.26044
1.26034
1.26036
1.26088
3.00712
2.98572
2.96512
2.94424
2.92348
2.90154
2.88184
2.86178
2.84126
2.82131
2.7994
2.78102
2.76136
2.74236
2.72375
2.70351
2.68403
2.65721
2.63651
2.63902
2.67445
2.81895
3.01555
3.08655
3.08441
3.06425
3.02933
2.98803
2.95381
2.92391
2.89429
2.86512
2.83481
2.8068
2.77921
2.7505
2.72276
2.69328
2.6653
2.63829
2.60936
2.58211
2.5546
2.5262
2.50215
2.47692
2.45172
2.42823
2.4011
2.37828
2.35549
2.33034
2.30852
2.28375
2.26008
2.24011
2.21732
2.19654
2.17697
2.15469
2.13823
2.12164
2.10286
2.0864
2.0668
2.04306
2.02308
2.00438
1.98678
1.97259
1.95596
1.9338
1.91119
1.89028
1.87601
1.86345
1.85116
1.84247
1.83049
1.81645
1.80397
1.78226
1.76372
1.75101
1.73703
1.7254
1.71372
1.69925
1.68367
1.66611
1.65423
1.64492
1.63736
1.63135
1.62194
1.61063
1.59605
1.57303
1.55972
1.55548
1.54918
1.54264
1.53482
1.52185
1.50416
1.48795
1.48055
1.47407
1.46848
1.4625
1.45376
1.44372
1.43244
1.42134
1.41117
1.4021
1.39432
1.38746
1.38212
1.37737
1.3713
1.3592
1.33836
1.32182
1.31856
1.31746
1.31792
1.31804
1.31608
1.314
1.31104
1.30294
1.29507
1.29301
1.29301
1.29469
1.296
1.29524
1.29232
1.28644
1.2825
1.28225
1.28307
1.28617
1.2922
1.2959
1.29582
1.29489
1.29285
1.28894
1.28353
1.28042
1.27989
1.27944
1.27876
1.27786
1.27706
1.27639
1.27591
1.27554
1.27517
1.27457
1.27337
1.27248
1.27235
1.2723
1.27262
1.27397
1.2755
1.27568
1.27533
1.27387
1.26984
1.26553
1.2647
1.26479
1.26566
1.26889
1.27523
1.27894
1.27924
1.27909
1.27795
1.27476
1.27228
1.27246
1.27313
1.27445
1.2773
1.27986
1.28037
1.28045
1.28045
1.2797
1.27883
1.27889
1.27922
1.28009
1.28231
1.28424
1.28438
1.28402
1.28291
1.2808
1.2774
1.27506
1.27462
1.27432
1.27412
1.27476
1.27632
1.2764
1.27599
1.2754
1.27349
1.26987
1.26714
1.26653
1.26632
1.26633
1.2662
1.26594
1.26555
1.26458
1.26276
1.2619
1.26166
1.2615
1.26146
1.26205
3.02431
3.00321
2.98226
2.96157
2.93945
2.91886
2.89907
2.87839
2.85853
2.83648
2.81761
2.79842
2.7781
2.75965
2.73868
2.7222
2.70374
2.67941
2.65101
2.64299
2.64987
2.72452
2.90923
3.06499
3.08996
3.08072
3.05284
3.01221
2.97734
2.94525
2.91503
2.88498
2.85734
2.8297
2.80052
2.77202
2.74202
2.71389
2.68689
2.65784
2.63008
2.60217
2.57389
2.54912
2.5234
2.49757
2.47363
2.44655
2.42304
2.40023
2.37503
2.35268
2.32846
2.3037
2.28353
2.2611
2.23991
2.2206
2.19798
2.18086
2.16404
2.1446
2.12738
2.10721
2.08247
2.06136
2.04165
2.02341
2.00862
1.99234
1.97087
1.94744
1.92578
1.91096
1.89875
1.88703
1.87817
1.86681
1.85237
1.83915
1.81781
1.79515
1.78182
1.76826
1.75607
1.74535
1.73144
1.71588
1.69839
1.68427
1.67499
1.66668
1.66061
1.65164
1.63979
1.62549
1.60285
1.58491
1.58067
1.57578
1.56917
1.56213
1.54996
1.53263
1.51544
1.50628
1.50059
1.4939
1.48747
1.4785
1.4675
1.45564
1.44479
1.43621
1.42833
1.42077
1.41325
1.40623
1.4002
1.39376
1.38262
1.36265
1.34371
1.33906
1.3374
1.33689
1.33585
1.33303
1.32961
1.32495
1.3143
1.30225
1.29813
1.29781
1.29913
1.30054
1.29974
1.2967
1.28992
1.28438
1.28369
1.28428
1.28685
1.29261
1.29756
1.29798
1.29731
1.29582
1.29277
1.28775
1.28427
1.2837
1.28325
1.28241
1.28075
1.2791
1.27842
1.27799
1.27752
1.27707
1.27661
1.27581
1.27443
1.27384
1.27367
1.27361
1.27419
1.27567
1.27617
1.27594
1.27486
1.27146
1.26638
1.26479
1.26472
1.26523
1.26779
1.27392
1.2789
1.27956
1.27947
1.27863
1.27611
1.27275
1.27222
1.27275
1.27393
1.27622
1.27879
1.2795
1.27949
1.27943
1.27895
1.27822
1.27836
1.27875
1.2797
1.28209
1.28449
1.28496
1.28492
1.28424
1.28257
1.27956
1.27739
1.27685
1.2766
1.27644
1.2771
1.27934
1.28014
1.2798
1.2791
1.27727
1.27365
1.27054
1.26974
1.26937
1.26921
1.26914
1.26888
1.26851
1.26778
1.26595
1.26383
1.26319
1.2629
1.26268
1.26269
1.26377
3.04145
3.02031
2.99937
2.97761
2.95624
2.93635
2.91537
2.89526
2.87341
2.85383
2.83519
2.8146
2.79609
2.77463
2.75643
2.73939
2.72076
2.69992
2.67168
2.65181
2.65137
2.67497
2.79899
2.99402
3.08119
3.08732
3.07189
3.03837
3.00226
2.9676
2.93442
2.90623
2.87924
2.85041
2.82187
2.79124
2.76217
2.7349
2.70577
2.67785
2.64987
2.62153
2.59632
2.57007
2.54369
2.51926
2.49242
2.46854
2.44546
2.42016
2.3972
2.3732
2.348
2.32736
2.30515
2.2836
2.26443
2.24156
2.2237
2.20674
2.18666
2.16857
2.14814
2.12218
2.0999
2.07925
2.06034
2.04501
2.02867
2.0082
1.98472
1.96218
1.9468
1.93453
1.9233
1.91446
1.90346
1.88892
1.87481
1.85363
1.82742
1.81281
1.7998
1.7874
1.77727
1.76445
1.74895
1.73136
1.71527
1.70501
1.69608
1.68982
1.6816
1.66963
1.65547
1.63352
1.61168
1.60572
1.60225
1.59603
1.58938
1.5788
1.56106
1.54341
1.53201
1.52687
1.52079
1.51363
1.50382
1.49145
1.47892
1.46761
1.46042
1.45407
1.447
1.43943
1.43143
1.42389
1.41646
1.40543
1.38662
1.36726
1.36163
1.35977
1.35841
1.3567
1.3537
1.3498
1.34375
1.33017
1.31423
1.30772
1.30698
1.30769
1.30812
1.30683
1.3039
1.29598
1.28753
1.28537
1.28595
1.28846
1.29382
1.29929
1.30019
1.29952
1.29826
1.29584
1.29139
1.2876
1.28694
1.28656
1.2854
1.28315
1.28117
1.28033
1.27989
1.27981
1.27986
1.27943
1.27883
1.27756
1.27594
1.27543
1.27518
1.2752
1.27615
1.27692
1.27677
1.27599
1.27326
1.26775
1.26493
1.26473
1.26497
1.26684
1.27238
1.27851
1.27985
1.27982
1.27916
1.27717
1.27364
1.2723
1.27263
1.2737
1.27572
1.27808
1.27885
1.27881
1.27862
1.27805
1.27743
1.27761
1.27797
1.27889
1.28134
1.28439
1.28527
1.2854
1.28509
1.28377
1.28098
1.27894
1.27836
1.27809
1.27791
1.27842
1.28101
1.28309
1.28311
1.28268
1.28126
1.27782
1.27428
1.27342
1.27311
1.27267
1.27242
1.27215
1.27178
1.27114
1.26959
1.26672
1.26506
1.26462
1.26428
1.26408
1.26451
1.26645
3.05803
3.03697
3.01573
2.99375
2.97355
2.95267
2.93238
2.91059
2.88979
2.87153
2.8511
2.83226
2.81148
2.79145
2.77415
2.75459
2.73781
2.71679
2.69367
2.66838
2.65512
2.65986
2.71825
2.88229
3.05042
3.09214
3.08627
3.06213
3.02767
2.98901
2.9551
2.92726
2.89844
2.87009
2.83994
2.81027
2.7828
2.75344
2.72497
2.69671