/*--------------------------------*- C++ -*----------------------------------*\
  =========                 |
  \\      /  F ield         | OpenFOAM: The Open Source CFD Toolbox
   \\    /   O peration     | Website:  https://openfoam.org
    \\  /    A nd           | Version:  7
     \\/     M anipulation  |
\*---------------------------------------------------------------------------*/
FoamFile
{
    version     2.0;
    format      ascii;
    class       volVectorField;
    location    "4";
    object      U;
}
// * * * * * * * * * * * * * * * * * * * * * * * * * * * * * * * * * * * * * //

dimensions      [0 1 -1 0 0 0 0];

internalField   nonuniform List<vector> 
16192
(
(1.73029 0.90754 0)
(1.7386 0.899249 0)
(1.74793 0.890822 0)
(1.75876 0.882521 0)
(1.76875 0.875936 0)
(1.77843 0.869657 0)
(1.78915 0.862202 0)
(1.79975 0.854355 0)
(1.80981 0.846311 0)
(1.82012 0.837604 0)
(1.83093 0.828707 0)
(1.84238 0.819671 0)
(1.85406 0.810803 0)
(1.86544 0.802716 0)
(1.87751 0.794613 0)
(1.89113 0.785313 0)
(1.90505 0.775707 0)
(1.91837 0.76668 0)
(1.93175 0.75755 0)
(1.94591 0.747395 0)
(1.96038 0.736809 0)
(1.73282 0.908218 0)
(1.74095 0.901154 0)
(1.75092 0.893429 0)
(1.76116 0.88629 0)
(1.76993 0.880733 0)
(1.77991 0.873864 0)
(1.79145 0.865148 0)
(1.80187 0.857227 0)
(1.81115 0.850185 0)
(1.82181 0.841548 0)
(1.83395 0.831442 0)
(1.84508 0.822969 0)
(1.85507 0.816119 0)
(1.86658 0.807845 0)
(1.87982 0.797886 0)
(1.89239 0.789054 0)
(1.9043 0.781031 0)
(1.91771 0.771428 0)
(1.93207 0.760501 0)
(1.94584 0.750375 0)
(1.959 0.741291 0)
(1.73617 0.910995 0)
(1.74449 0.90451 0)
(1.75445 0.89693 0)
(1.76359 0.890222 0)
(1.77197 0.883854 0)
(1.78248 0.875453 0)
(1.79375 0.866691 0)
(1.80353 0.859598 0)
(1.81362 0.852011 0)
(1.82523 0.843137 0)
(1.83642 0.835073 0)
(1.84692 0.827721 0)
(1.85806 0.819213 0)
(1.87004 0.809988 0)
(1.8816 0.801704 0)
(1.89307 0.793405 0)
(1.90569 0.783493 0)
(1.91917 0.773148 0)
(1.93218 0.763732 0)
(1.94524 0.754423 0)
(1.95858 0.744948 0)
(1.73917 0.916348 0)
(1.74772 0.909101 0)
(1.75741 0.900718 0)
(1.76564 0.893666 0)
(1.77382 0.886603 0)
(1.78452 0.877828 0)
(1.79568 0.869057 0)
(1.80547 0.862089 0)
(1.81524 0.855481 0)
(1.8266 0.84783 0)
(1.83854 0.839406 0)
(1.84948 0.831468 0)
(1.85986 0.823716 0)
(1.87141 0.815028 0)
(1.88354 0.805342 0)
(1.89503 0.796035 0)
(1.90631 0.787315 0)
(1.91898 0.777921 0)
(1.93252 0.767652 0)
(1.94563 0.7579 0)
(1.95849 0.748703 0)
(1.74213 0.92078 0)
(1.75136 0.911866 0)
(1.76054 0.902834 0)
(1.76782 0.895955 0)
(1.77642 0.88828 0)
(1.78795 0.878902 0)
(1.79824 0.871521 0)
(1.80682 0.866126 0)
(1.81751 0.858796 0)
(1.83008 0.849897 0)
(1.84095 0.842706 0)
(1.85045 0.836181 0)
(1.86198 0.827084 0)
(1.8749 0.816431 0)
(1.88577 0.808039 0)
(1.89561 0.800586 0)
(1.90789 0.790656 0)
(1.92158 0.779782 0)
(1.93382 0.770931 0)
(1.94551 0.762592 0)
(1.95855 0.752893 0)
(1.74511 0.923394 0)
(1.75479 0.913793 0)
(1.76312 0.90547 0)
(1.77024 0.898709 0)
(1.77967 0.890659 0)
(1.79045 0.882511 0)
(1.79956 0.876435 0)
(1.80881 0.870125 0)
(1.82012 0.862002 0)
(1.83142 0.854229 0)
(1.84141 0.847427 0)
(1.8522 0.839029 0)
(1.86441 0.829267 0)
(1.87578 0.820847 0)
(1.88634 0.81302 0)
(1.89803 0.803455 0)
(1.91033 0.793605 0)
(1.92203 0.785039 0)
(1.93378 0.776504 0)
(1.94625 0.766854 0)
(1.95935 0.756589 0)
(1.74867 0.92439 0)
(1.75855 0.915248 0)
(1.76633 0.908215 0)
(1.77341 0.902016 0)
(1.78338 0.893944 0)
(1.79391 0.885916 0)
(1.80215 0.880314 0)
(1.81099 0.873992 0)
(1.82245 0.865302 0)
(1.8337 0.856573 0)
(1.84322 0.849475 0)
(1.85336 0.841921 0)
(1.86573 0.832726 0)
(1.87833 0.823118 0)
(1.8891 0.815356 0)
(1.89932 0.807913 0)
(1.91152 0.798636 0)
(1.92426 0.788486 0)
(1.93577 0.779696 0)
(1.94717 0.771038 0)
(1.95957 0.761374 0)
(1.75188 0.926792 0)
(1.76162 0.918447 0)
(1.76861 0.912916 0)
(1.7766 0.906364 0)
(1.78725 0.897646 0)
(1.79619 0.89074 0)
(1.80345 0.885449 0)
(1.81347 0.877274 0)
(1.8253 0.867277 0)
(1.83468 0.85998 0)
(1.84315 0.853787 0)
(1.85514 0.844488 0)
(1.86872 0.834177 0)
(1.87912 0.827477 0)
(1.88866 0.821452 0)
(1.9013 0.811826 0)
(1.91459 0.801216 0)
(1.92532 0.793193 0)
(1.93587 0.785346 0)
(1.94817 0.775482 0)
(1.96074 0.765218 0)
(1.75576 0.928623 0)
(1.76484 0.922215 0)
(1.77164 0.917323 0)
(1.78063 0.909998 0)
(1.79076 0.901427 0)
(1.7985 0.894902 0)
(1.80613 0.888179 0)
(1.81654 0.879129 0)
(1.82702 0.870321 0)
(1.83582 0.863289 0)
(1.8456 0.855467 0)
(1.85767 0.846582 0)
(1.86921 0.838917 0)
(1.87978 0.832092 0)
(1.89122 0.823858 0)
(1.90345 0.814912 0)
(1.91494 0.806575 0)
(1.92615 0.797847 0)
(1.93788 0.788217 0)
(1.94987 0.778642 0)
(1.96153 0.76955 0)
(1.75837 0.932019 0)
(1.76751 0.927204 0)
(1.77462 0.922087 0)
(1.78425 0.913771 0)
(1.79365 0.904999 0)
(1.80049 0.89855 0)
(1.80826 0.891446 0)
(1.81915 0.881934 0)
(1.82965 0.87282 0)
(1.8376 0.866679 0)
(1.84676 0.859991 0)
(1.85932 0.850822 0)
(1.87142 0.842047 0)
(1.88101 0.835835 0)
(1.89153 0.828844 0)
(1.90453 0.819157 0)
(1.91699 0.809284 0)
(1.9273 0.80146 0)
(1.93818 0.793183 0)
(1.95072 0.783268 0)
(1.96311 0.773021 0)
(1.75834 0.934913 0)
(1.76812 0.931837 0)
(1.77739 0.925559 0)
(1.78789 0.916016 0)
(1.79606 0.907956 0)
(1.80231 0.901888 0)
(1.81173 0.893243 0)
(1.8231 0.883435 0)
(1.83125 0.877224 0)
(1.83865 0.871783 0)
(1.8501 0.862683 0)
(1.86261 0.853148 0)
(1.8718 0.847096 0)
(1.88111 0.840682 0)
(1.89393 0.830592 0)
(1.90685 0.820709 0)
(1.91678 0.814019 0)
(1.92716 0.806511 0)
(1.94012 0.796132 0)
(1.95291 0.785853 0)
(1.96457 0.776545 0)
(1.75406 0.936435 0)
(1.76713 0.932645 0)
(1.77893 0.926834 0)
(1.79043 0.917939 0)
(1.79817 0.911079 0)
(1.80546 0.904454 0)
(1.81544 0.896024 0)
(1.82525 0.888129 0)
(1.83313 0.88212 0)
(1.84181 0.875101 0)
(1.85286 0.86643 0)
(1.86351 0.858318 0)
(1.87274 0.85128 0)
(1.88299 0.84311 0)
(1.89501 0.834 0)
(1.90678 0.825392 0)
(1.91769 0.81733 0)
(1.92883 0.809036 0)
(1.9407 0.800322 0)
(1.953 0.790948 0)
(1.96527 0.780884 0)
(1.74851 0.93578 0)
(1.76424 0.932454 0)
(1.78005 0.925779 0)
(1.79197 0.919178 0)
(1.80014 0.914353 0)
(1.80807 0.908735 0)
(1.81888 0.900093 0)
(1.82856 0.892061 0)
(1.83546 0.886721 0)
(1.84416 0.879621 0)
(1.85587 0.869577 0)
(1.866 0.860979 0)
(1.87361 0.855205 0)
(1.88381 0.847292 0)
(1.89721 0.836304 0)
(1.90889 0.827305 0)
(1.91796 0.82139 0)
(1.92885 0.813872 0)
(1.94213 0.803525 0)
(1.95476 0.793427 0)
(1.96609 0.784455 0)
(1.74353 0.9344 0)
(1.75923 0.931001 0)
(1.77638 0.926277 0)
(1.79123 0.921456 0)
(1.8006 0.918795 0)
(1.81154 0.912297 0)
(1.82289 0.903538 0)
(1.83057 0.89743 0)
(1.83741 0.891533 0)
(1.84796 0.881913 0)
(1.85894 0.872012 0)
(1.86655 0.865787 0)
(1.87477 0.859025 0)
(1.88692 0.848905 0)
(1.89865 0.839671 0)
(1.90803 0.833119 0)
(1.91856 0.825405 0)
(1.93118 0.81556 0)
(1.94316 0.806555 0)
(1.95422 0.798312 0)
(1.96548 0.789596 0)
(1.74029 0.933992 0)
(1.75559 0.930215 0)
(1.77215 0.926166 0)
(1.78679 0.923638 0)
(1.80111 0.920795 0)
(1.81416 0.914892 0)
(1.825 0.907605 0)
(1.83245 0.901821 0)
(1.8406 0.894484 0)
(1.85111 0.884951 0)
(1.86062 0.876123 0)
(1.86828 0.869246 0)
(1.8772 0.861792 0)
(1.88869 0.852868 0)
(1.89996 0.843788 0)
(1.90968 0.836155 0)
(1.91964 0.828786 0)
(1.9314 0.820114 0)
(1.94359 0.810411 0)
(1.95506 0.801192 0)
(1.96593 0.792891 0)
(1.73773 0.935029 0)
(1.75344 0.93054 0)
(1.76855 0.927147 0)
(1.78232 0.925555 0)
(1.7974 0.922316 0)
(1.81304 0.916344 0)
(1.82517 0.910184 0)
(1.83403 0.904842 0)
(1.84324 0.897819 0)
(1.8542 0.888115 0)
(1.86299 0.879874 0)
(1.86979 0.873788 0)
(1.87974 0.865261 0)
(1.89197 0.854854 0)
(1.90142 0.847438 0)
(1.90944 0.841548 0)
(1.92077 0.832534 0)
(1.93371 0.821719 0)
(1.94457 0.813177 0)
(1.95456 0.805791 0)
(1.96561 0.797463 0)
(1.73711 0.935334 0)
(1.75169 0.931802 0)
(1.7648 0.928574 0)
(1.77749 0.925859 0)
(1.79304 0.921992 0)
(1.81073 0.916065 0)
(1.82402 0.91157 0)
(1.83404 0.907852 0)
(1.84619 0.900008 0)
(1.85742 0.891017 0)
(1.86452 0.884936 0)
(1.87195 0.877953 0)
(1.88301 0.868134 0)
(1.89367 0.859058 0)
(1.90204 0.852188 0)
(1.91134 0.844234 0)
(1.92269 0.834939 0)
(1.93378 0.826223 0)
(1.94433 0.817891 0)
(1.95532 0.809149 0)
(1.96683 0.800102 0)
(1.73762 0.940069 0)
(1.7496 0.934896 0)
(1.76144 0.930443 0)
(1.77406 0.925933 0)
(1.79014 0.92054 0)
(1.80576 0.916124 0)
(1.81939 0.913278 0)
(1.83436 0.908833 0)
(1.848 0.90179 0)
(1.85843 0.895069 0)
(1.86571 0.889715 0)
(1.87468 0.881782 0)
(1.8862 0.871313 0)
(1.89599 0.862265 0)
(1.90337 0.855949 0)
(1.91242 0.848567 0)
(1.9243 0.838502 0)
(1.93576 0.828544 0)
(1.94551 0.820824 0)
(1.95557 0.813337 0)
(1.96714 0.804356 0)
(1.74257 0.944127 0)
(1.74977 0.936179 0)
(1.75938 0.931102 0)
(1.77198 0.925452 0)
(1.78751 0.920198 0)
(1.80131 0.916802 0)
(1.81483 0.91466 0)
(1.82991 0.910409 0)
(1.84608 0.903646 0)
(1.85804 0.89805 0)
(1.86736 0.892695 0)
(1.87779 0.884486 0)
(1.88852 0.874906 0)
(1.8966 0.867608 0)
(1.90459 0.860505 0)
(1.91548 0.85073 0)
(1.92652 0.841107 0)
(1.93576 0.833555 0)
(1.94555 0.825819 0)
(1.9568 0.816672 0)
(1.96851 0.807089 0)
(1.7546 0.944952 0)
(1.75519 0.937282 0)
(1.7609 0.931199 0)
(1.77275 0.925699 0)
(1.78603 0.921334 0)
(1.79747 0.918123 0)
(1.80995 0.915123 0)
(1.8266 0.910326 0)
(1.84319 0.904459 0)
(1.85642 0.899915 0)
(1.8672 0.895388 0)
(1.87961 0.887466 0)
(1.89082 0.878251 0)
(1.899 0.870902 0)
(1.90717 0.863606 0)
(1.91736 0.854992 0)
(1.92781 0.845717 0)
(1.93752 0.83692 0)
(1.94725 0.82878 0)
(1.95772 0.82047 0)
(1.96869 0.811522 0)
(1.76048 0.956546 0)
(1.75958 0.946926 0)
(1.76259 0.938033 0)
(1.77239 0.930046 0)
(1.78375 0.924236 0)
(1.79441 0.920134 0)
(1.80749 0.915433 0)
(1.82293 0.910118 0)
(1.83846 0.905432 0)
(1.85132 0.901873 0)
(1.86575 0.896297 0)
(1.88044 0.888526 0)
(1.89113 0.881862 0)
(1.89877 0.876459 0)
(1.90895 0.868239 0)
(1.92072 0.857659 0)
(1.92997 0.849175 0)
(1.93797 0.842133 0)
(1.94799 0.833625 0)
(1.95919 0.823885 0)
(1.96975 0.814805 0)
(1.76824 0.960656 0)
(1.76799 0.951681 0)
(1.76994 0.940346 0)
(1.77606 0.930541 0)
(1.78399 0.924892 0)
(1.79331 0.920988 0)
(1.80648 0.915501 0)
(1.82139 0.910033 0)
(1.83337 0.906427 0)
(1.84655 0.902593 0)
(1.86376 0.896439 0)
(1.8787 0.890072 0)
(1.88881 0.885977 0)
(1.89966 0.879321 0)
(1.91214 0.870047 0)
(1.92252 0.861914 0)
(1.93082 0.854559 0)
(1.94007 0.845585 0)
(1.95032 0.836197 0)
(1.96027 0.82771 0)
(1.96992 0.819631 0)
(1.77821 0.965971 0)
(1.77916 0.957034 0)
(1.7808 0.94567 0)
(1.78259 0.936081 0)
(1.78545 0.930067 0)
(1.79282 0.923922 0)
(1.80529 0.916919 0)
(1.8182 0.91096 0)
(1.82856 0.90736 0)
(1.84267 0.902838 0)
(1.85909 0.896897 0)
(1.87369 0.892122 0)
(1.8877 0.887662 0)
(1.9001 0.88159 0)
(1.91274 0.873704 0)
(1.92399 0.865373 0)
(1.93263 0.85801 0)
(1.94122 0.850123 0)
(1.95132 0.841022 0)
(1.9617 0.831756 0)
(1.97147 0.823195 0)
(1.78018 0.974739 0)
(1.78536 0.966641 0)
(1.78901 0.955143 0)
(1.78951 0.944608 0)
(1.78973 0.936199 0)
(1.79503 0.926609 0)
(1.80567 0.917664 0)
(1.81552 0.912758 0)
(1.82554 0.908814 0)
(1.83992 0.903519 0)
(1.8559 0.897353 0)
(1.87057 0.893089 0)
(1.88245 0.889987 0)
(1.89734 0.883825 0)
(1.9132 0.874697 0)
(1.92401 0.8684 0)
(1.93249 0.862799 0)
(1.94302 0.853782 0)
(1.95391 0.84388 0)
(1.96334 0.835836 0)
(1.97257 0.827984 0)
(1.78728 0.974187 0)
(1.79618 0.966661 0)
(1.80074 0.957318 0)
(1.80081 0.948331 0)
(1.79897 0.939565 0)
(1.80242 0.928091 0)
(1.80894 0.919666 0)
(1.8155 0.915042 0)
(1.82461 0.91042 0)
(1.83894 0.9043 0)
(1.85354 0.898407 0)
(1.86521 0.89462 0)
(1.87779 0.890541 0)
(1.89539 0.883796 0)
(1.90939 0.876901 0)
(1.92091 0.87192 0)
(1.93314 0.865146 0)
(1.94504 0.85679 0)
(1.95503 0.848773 0)
(1.96451 0.840825 0)
(1.97454 0.832008 0)
(1.7839 0.981974 0)
(1.79492 0.973858 0)
(1.80275 0.965498 0)
(1.80543 0.95825 0)
(1.80695 0.948116 0)
(1.80976 0.935959 0)
(1.81246 0.926707 0)
(1.81577 0.920888 0)
(1.82435 0.913679 0)
(1.83772 0.906178 0)
(1.84985 0.900391 0)
(1.86074 0.896173 0)
(1.87472 0.890373 0)
(1.88966 0.884416 0)
(1.90461 0.878603 0)
(1.91929 0.873242 0)
(1.93232 0.867667 0)
(1.9447 0.861064 0)
(1.95602 0.853067 0)
(1.96633 0.844723 0)
(1.97641 0.835951 0)
(1.78449 0.980954 0)
(1.79584 0.973471 0)
(1.80446 0.967669 0)
(1.81005 0.962112 0)
(1.81522 0.9531 0)
(1.81945 0.94097 0)
(1.81947 0.932331 0)
(1.8205 0.924235 0)
(1.82727 0.914647 0)
(1.83865 0.906437 0)
(1.84785 0.902314 0)
(1.85813 0.897607 0)
(1.87249 0.890848 0)
(1.88709 0.884584 0)
(1.90022 0.880781 0)
(1.91336 0.87594 0)
(1.92972 0.869329 0)
(1.94521 0.862319 0)
(1.95676 0.856072 0)
(1.96654 0.848901 0)
(1.97695 0.840173 0)
(1.79106 0.983254 0)
(1.80211 0.976905 0)
(1.80901 0.971348 0)
(1.81534 0.965686 0)
(1.82363 0.956519 0)
(1.82824 0.947091 0)
(1.82766 0.939432 0)
(1.82766 0.929944 0)
(1.83286 0.918162 0)
(1.83983 0.910258 0)
(1.8464 0.905674 0)
(1.85638 0.899682 0)
(1.87096 0.891895 0)
(1.88361 0.886405 0)
(1.89511 0.882796 0)
(1.90999 0.877185 0)
(1.92596 0.870251 0)
(1.93999 0.864916 0)
(1.95253 0.859532 0)
(1.96499 0.852 0)
(1.97723 0.842876 0)
(1.78975 0.990143 0)
(1.79809 0.98443 0)
(1.80811 0.977265 0)
(1.81725 0.971139 0)
(1.82675 0.962544 0)
(1.83212 0.954376 0)
(1.83313 0.947465 0)
(1.83551 0.936426 0)
(1.83991 0.923652 0)
(1.84347 0.914877 0)
(1.84711 0.909503 0)
(1.85713 0.901187 0)
(1.86998 0.893538 0)
(1.8808 0.888959 0)
(1.89124 0.884802 0)
(1.90562 0.878531 0)
(1.92214 0.871008 0)
(1.93563 0.865846 0)
(1.94822 0.861126 0)
(1.96291 0.853337 0)
(1.97607 0.845061 0)
(1.79948 0.980094 0)
(1.79987 0.980556 0)
(1.81003 0.978089 0)
(1.82322 0.97088 0)
(1.83216 0.96258 0)
(1.83659 0.956898 0)
(1.83993 0.950216 0)
(1.8453 0.939349 0)
(1.84951 0.928023 0)
(1.84978 0.921159 0)
(1.85189 0.913683 0)
(1.86037 0.904074 0)
(1.87044 0.896078 0)
(1.87865 0.891941 0)
(1.88833 0.886834 0)
(1.90329 0.879098 0)
(1.91776 0.871758 0)
(1.93077 0.866798 0)
(1.94465 0.861349 0)
(1.95876 0.854509 0)
(1.97251 0.847357 0)
(1.81809 1.003 0)
(1.7971 0.988118 0)
(1.80654 0.983461 0)
(1.81981 0.975192 0)
(1.83009 0.967119 0)
(1.83682 0.961967 0)
(1.84332 0.955784 0)
(1.85128 0.946156 0)
(1.85589 0.936807 0)
(1.85621 0.929822 0)
(1.85835 0.920427 0)
(1.86457 0.909313 0)
(1.87098 0.900925 0)
(1.87742 0.895088 0)
(1.88686 0.888051 0)
(1.90099 0.879829 0)
(1.91466 0.872583 0)
(1.92638 0.867713 0)
(1.93889 0.86251 0)
(1.95481 0.855133 0)
(1.97007 0.84821 0)
(1.92762 0.992898 0)
(1.79886 0.983834 0)
(1.80609 0.979431 0)
(1.81874 0.972397 0)
(1.82918 0.967608 0)
(1.83694 0.964928 0)
(1.84671 0.959078 0)
(1.85747 0.949619 0)
(1.86263 0.942213 0)
(1.86342 0.936127 0)
(1.86684 0.925096 0)
(1.8712 0.912987 0)
(1.87424 0.904739 0)
(1.87832 0.897735 0)
(1.88766 0.888539 0)
(1.90013 0.880454 0)
(1.91128 0.874708 0)
(1.92238 0.869518 0)
(1.93621 0.862621 0)
(1.95056 0.856055 0)
(1.9642 0.850136 0)
(2.1417 0.882833 0)
(1.81846 0.981569 0)
(1.81363 0.983373 0)
(1.82334 0.977393 0)
(1.83065 0.973052 0)
(1.83867 0.96862 0)
(1.85032 0.960996 0)
(1.86035 0.953273 0)
(1.86518 0.948398 0)
(1.86922 0.941156 0)
(1.87467 0.929563 0)
(1.87818 0.918076 0)
(1.87892 0.910462 0)
(1.8822 0.90134 0)
(1.89008 0.891221 0)
(1.89994 0.883095 0)
(1.90876 0.877829 0)
(1.91987 0.871553 0)
(1.93286 0.864234 0)
(1.94621 0.8577 0)
(1.95963 0.851928 0)
(2.46578 0.705223 0)
(1.84766 1.00191 0)
(1.81429 0.991184 0)
(1.82089 0.985816 0)
(1.83009 0.979192 0)
(1.83961 0.972771 0)
(1.85095 0.964174 0)
(1.85984 0.956816 0)
(1.86551 0.952447 0)
(1.8723 0.945617 0)
(1.88008 0.934527 0)
(1.88399 0.924421 0)
(1.88487 0.916621 0)
(1.8878 0.906772 0)
(1.89461 0.894857 0)
(1.90114 0.886903 0)
(1.90812 0.881073 0)
(1.9184 0.874044 0)
(1.93078 0.866239 0)
(1.94316 0.859652 0)
(1.95571 0.853849 0)
(2.06201 0.91705 0)
(1.82582 0.981806 0)
(1.82395 0.982649 0)
(1.83341 0.978862 0)
(1.84454 0.971654 0)
(1.85474 0.963299 0)
(1.86174 0.957945 0)
(1.86725 0.954108 0)
(1.87649 0.946464 0)
(1.88577 0.936596 0)
(1.89055 0.928668 0)
(1.89242 0.921488 0)
(1.89645 0.910493 0)
(1.90136 0.899194 0)
(1.90502 0.891399 0)
(1.90981 0.885065 0)
(1.9194 0.876521 0)
(1.93025 0.868589 0)
(1.94095 0.862301 0)
(1.95236 0.856456 0)
(2.31428 0.790152 0)
(1.84203 1.00955 0)
(1.82248 0.988954 0)
(1.8303 0.984468 0)
(1.84215 0.976327 0)
(1.85237 0.968365 0)
(1.85894 0.964061 0)
(1.86664 0.95899 0)
(1.87748 0.950643 0)
(1.88702 0.941802 0)
(1.89288 0.935318 0)
(1.89747 0.927917 0)
(1.90296 0.917311 0)
(1.90731 0.906484 0)
(1.90931 0.898805 0)
(1.91333 0.890615 0)
(1.92112 0.881156 0)
(1.93022 0.872536 0)
(1.93919 0.86596 0)
(1.95006 0.859162 0)
(2.73304 0.477104 0)
(1.99673 0.964918 0)
(1.83116 0.981576 0)
(1.83239 0.981044 0)
(1.84364 0.975374 0)
(1.85469 0.969272 0)
(1.86138 0.965277 0)
(1.86953 0.95919 0)
(1.88071 0.950302 0)
(1.88996 0.942872 0)
(1.89618 0.937983 0)
(1.9024 0.931332 0)
(1.91001 0.920925 0)
(1.91429 0.911945 0)
(1.91613 0.904564 0)
(1.91965 0.89532 0)
(1.92605 0.884389 0)
(1.93242 0.876004 0)
(1.93992 0.868569 0)
(1.9493 0.861415 0)
(3.00477 0.100511 0)
(2.2111 0.846112 0)
(1.84734 0.992814 0)
(1.83591 0.987794 0)
(1.84197 0.981773 0)
(1.85132 0.975082 0)
(1.85966 0.969769 0)
(1.87025 0.961983 0)
(1.88103 0.953247 0)
(1.88898 0.947596 0)
(1.89582 0.943319 0)
(1.90458 0.936003 0)
(1.91325 0.926784 0)
(1.91858 0.919147 0)
(1.92193 0.911748 0)
(1.9263 0.901374 0)
(1.93114 0.890431 0)
(1.93575 0.881172 0)
(1.94138 0.873008 0)
(1.9493 0.86472 0)
(3.00409 0.0107607 0)
(2.56394 0.6211 0)
(1.91564 0.994073 0)
(1.83871 0.988596 0)
(1.84318 0.983434 0)
(1.8516 0.975874 0)
(1.86031 0.969851 0)
(1.87113 0.962565 0)
(1.88135 0.955264 0)
(1.88878 0.950966 0)
(1.89586 0.946969 0)
(1.90568 0.939768 0)
(1.9157 0.930667 0)
(1.92226 0.92386 0)
(1.92735 0.916581 0)
(1.93291 0.906122 0)
(1.93759 0.894945 0)
(1.94086 0.885805 0)
(1.94503 0.876862 0)
(1.95123 0.867854 0)
(2.99991 0.000642557 0)
(2.95722 0.199793 0)
(2.12899 0.88945 0)
(1.85349 0.979672 0)
(1.84922 0.982348 0)
(1.85434 0.979359 0)
(1.86496 0.972839 0)
(1.87454 0.965358 0)
(1.88232 0.959098 0)
(1.88852 0.955159 0)
(1.89647 0.949829 0)
(1.90751 0.941375 0)
(1.91745 0.933256 0)
(1.92455 0.927559 0)
(1.93151 0.920163 0)
(1.93857 0.909804 0)
(1.94343 0.899795 0)
(1.94667 0.890941 0)
(1.95033 0.881519 0)
(1.95517 0.871997 0)
(2.99999 1.449e-05 0)
(3.0098 0.0250359 0)
(2.43192 0.725432 0)
(1.87003 1.00158 0)
(1.84732 0.991018 0)
(1.85294 0.9865 0)
(1.86304 0.979069 0)
(1.87356 0.970904 0)
(1.88116 0.964616 0)
(1.88789 0.959734 0)
(1.89683 0.95302 0)
(1.90774 0.944277 0)
(1.91715 0.936682 0)
(1.92476 0.931098 0)
(1.93288 0.923973 0)
(1.94105 0.914589 0)
(1.94727 0.905295 0)
(1.95166 0.896736 0)
(1.95565 0.887473 0)
(1.9601 0.877542 0)
(3 1.55461e-07 0)
(2.99999 0.00199367 0)
(2.8631 0.342136 0)
(2.07138 0.921182 0)
(1.85677 0.980826 0)
(1.85568 0.982101 0)
(1.86488 0.978205 0)
(1.8767 0.970936 0)
(1.88406 0.965291 0)
(1.89076 0.960117 0)
(1.89996 0.952823 0)
(1.91032 0.944317 0)
(1.91862 0.937961 0)
(1.92567 0.932898 0)
(1.93462 0.925382 0)
(1.94408 0.9162 0)
(1.95124 0.908374 0)
(1.95672 0.901012 0)
(1.962 0.892037 0)
(1.9671 0.882015 0)
(3 9.79445e-10 0)
(2.99998 6.31583e-05 0)
(3.01291 0.0540842 0)
(2.31649 0.791673 0)
(1.87047 1.003 0)
(1.85499 0.988279 0)
(1.86229 0.983775 0)
(1.87302 0.976648 0)
(1.88243 0.970591 0)
(1.89054 0.964867 0)
(1.9 0.956958 0)
(1.90923 0.948633 0)
(1.91664 0.942646 0)
(1.92433 0.936785 0)
(1.93407 0.928835 0)
(1.94358 0.920823 0)
(1.95161 0.914084 0)
(1.95902 0.906892 0)
(1.96599 0.898325 0)
(1.97212 0.888904 0)
(3 3.89632e-12 0)
(3 8.94912e-07 0)
(3.00089 0.00523299 0)
(2.71369 0.490795 0)
(2.01681 0.960438 0)
(1.86345 0.982123 0)
(1.86416 0.981198 0)
(1.87408 0.975537 0)
(1.88484 0.970148 0)
(1.89376 0.964414 0)
(1.90273 0.956723 0)
(1.91127 0.949031 0)
(1.91813 0.943773 0)
(1.92538 0.938253 0)
(1.93543 0.930287 0)
(1.94573 0.92241 0)
(1.95429 0.916518 0)
(1.96192 0.910381 0)
(1.96989 0.902444 0)
(1.9773 0.893435 0)
(3 8.69246e-15 0)
(3 6.5544e-09 0)
(2.99994 0.000236583 0)
(2.99571 0.108991 0)
(2.23007 0.838548 0)
(1.88023 0.992463 0)
(1.86679 0.986335 0)
(1.87197 0.981145 0)
(1.88181 0.974977 0)
(1.89162 0.968353 0)
(1.90165 0.960125 0)
(1.90987 0.953337 0)
(1.91668 0.948822 0)
(1.9254 0.942384 0)
(1.93589 0.933799 0)
(1.94489 0.927082 0)
(1.95281 0.922173 0)
(1.96176 0.915652 0)
(1.97139 0.907269 0)
(1.97969 0.898899 0)
(3 5.50566e-16 0)
(3 3.32357e-11 0)
(3 4.26299e-06 0)
(3.00335 0.0122737 0)
(2.58234 0.606858 0)
(1.94819 0.989644 0)
(1.86968 0.987428 0)
(1.87277 0.982827 0)
(1.88194 0.974876 0)
(1.8916 0.968039 0)
(1.90132 0.961315 0)
(1.91026 0.955708 0)
(1.91806 0.951275 0)
(1.92651 0.945195 0)
(1.93628 0.93727 0)
(1.94501 0.93064 0)
(1.95303 0.925232 0)
(1.96235 0.918454 0)
(1.97236 0.910372 0)
(1.98094 0.902802 0)
(3 9.0691e-16 0)
(3 9.34217e-14 0)
(3 3.73871e-08 0)
(2.99987 0.000774237 0)
(2.95917 0.190835 0)
(2.15908 0.878476 0)
(1.88467 0.977217 0)
(1.87865 0.981114 0)
(1.8837 0.978319 0)
(1.89508 0.971666 0)
(1.90435 0.96455 0)
(1.91124 0.959903 0)
(1.91769 0.95573 0)
(1.92701 0.948371 0)
(1.93718 0.939749 0)
(1.94526 0.933749 0)
(1.95308 0.928317 0)
(1.96277 0.920988 0)
(1.97286 0.912948 0)
(1.98139 0.905956 0)
(3 2.52897e-16 0)
(3 6.45288e-16 0)
(3 2.21154e-10 0)
(2.99999 1.82832e-05 0)
(3.00721 0.0245574 0)
(2.47772 0.696687 0)
(1.90041 0.993007 0)
(1.87683 0.990519 0)
(1.88227 0.986038 0)
(1.89206 0.978257 0)
(1.90297 0.970174 0)
(1.91034 0.965036 0)
(1.91747 0.95953 0)
(1.92719 0.951395 0)
(1.93682 0.943243 0)
(1.94458 0.937479 0)
(1.95284 0.931323 0)
(1.96262 0.923593 0)
(1.97202 0.916129 0)
(1.98055 0.909307 0)
(3 -6.37057e-16 0)
(3 -8.53786e-16 0)
(3 7.34246e-13 0)
(3 2.04397e-07 0)
(2.99985 0.00194902 0)
(2.88943 0.305452 0)
(2.11276 0.903537 0)
(1.88614 0.979211 0)
(1.88497 0.98078 0)
(1.89233 0.977559 0)
(1.90554 0.970177 0)
(1.91305 0.965382 0)
(1.91997 0.95952 0)
(1.92987 0.951154 0)
(1.93921 0.943995 0)
(1.94635 0.939333 0)
(1.95441 0.933079 0)
(1.96388 0.924971 0)
(1.97255 0.917685 0)
(1.98118 0.910707 0)
(3 9.97658e-16 0)
(3 -1.36203e-16 0)
(3 2.26426e-16 0)
(3 1.39044e-09 0)
(2.99998 6.1471e-05 0)
(3.00957 0.0463414 0)
(2.37617 0.761845 0)
(1.89987 0.9984 0)
(1.88357 0.987026 0)
(1.89029 0.982734 0)
(1.90123 0.975458 0)
(1.91049 0.970252 0)
(1.91944 0.963838 0)
(1.92954 0.955382 0)
(1.93774 0.948934 0)
(1.94458 0.944215 0)
(1.95318 0.937322 0)
(1.96256 0.92902 0)
(1.97128 0.921549 0)
(1.98019 0.914215 0)
(3 1.7276e-15 0)
(3 1.67015e-15 0)
(3 2.0725e-16 0)
(3 5.90021e-12 0)
(3 8.64382e-07 0)
(3.00019 0.00443195 0)
(2.7771 0.429684 0)
(2.06987 0.938359 0)
(1.89185 0.978551 0)
(1.8924 0.978777 0)
(1.90133 0.974488 0)
(1.9121 0.969878 0)
(1.92255 0.963079 0)
(1.93267 0.955122 0)
(1.93986 0.949875 0)
(1.94563 0.945498 0)
(1.95412 0.938285 0)
(1.96395 0.929662 0)
(1.973 0.922192 0)
(1.9815 0.915504 0)
(3 6.84651e-16 0)
(3 9.72395e-16 0)
(3 -5.12825e-16 0)
(3 1.15857e-14 0)
(3 6.62911e-09 0)
(2.99995 0.000187145 0)
(3.00043 0.0842831 0)
(2.2995 0.808008 0)
(1.9078 0.992077 0)
(1.89272 0.984445 0)
(1.89789 0.980153 0)
(1.90778 0.974431 0)
(1.92004 0.966752 0)
(1.93014 0.959325 0)
(1.93707 0.954869 0)
(1.94433 0.949466 0)
(1.95395 0.941165 0)
(1.96329 0.933177 0)
(1.9717 0.92664 0)
(1.97992 0.920348 0)
(3 -8.13446e-17 0)
(3 -3.88573e-16 0)
(3 -1.25639e-15 0)
(3 -1.12255e-15 0)
(3 3.38473e-11 0)
(3 3.2702e-06 0)
(3.00139 0.00909946 0)
(2.6577 0.537872 0)
(2.02913 0.964241 0)
(1.89841 0.982806 0)
(1.89817 0.980539 0)
(1.90657 0.974493 0)
(1.91926 0.966428 0)
(1.92974 0.959663 0)
(1.93694 0.955666 0)
(1.94462 0.950176 0)
(1.95477 0.942194 0)
(1.96467 0.934394 0)
(1.97333 0.928244 0)
(1.98122 0.922369 0)
(3 1.26132e-15 0)
(3 -4.6267e-17 0)
(3 -7.80321e-16 0)
(3 -1.673e-15 0)
(3 9.13044e-14 0)
(3 2.82881e-08 0)
(2.99988 0.000516096 0)
(2.97532 0.138196 0)
(2.23679 0.843396 0)
(1.91766 0.986357 0)
(1.9054 0.982613 0)
(1.90895 0.976994 0)
(1.91903 0.968298 0)
(1.92716 0.962541 0)
(1.93379 0.958956 0)
(1.94439 0.952165 0)
(1.95654 0.943285 0)
(1.96559 0.937206 0)
(1.9724 0.93289 0)
(1.98013 0.927027 0)
(3 8.22019e-16 0)
(3 -7.52601e-16 0)
(3 -2.14306e-15 0)
(3 -2.74429e-15 0)
(3 -3.19667e-15 0)
(3 1.69578e-10 0)
(3 1.09091e-05 0)
(3.00282 0.0169926 0)
(2.57813 0.618694 0)
(1.96392 0.986212 0)
(1.90871 0.987115 0)
(1.91057 0.981985 0)
(1.91948 0.971203 0)
(1.92577 0.965823 0)
(1.93251 0.961437 0)
(1.944 0.954125 0)
(1.95557 0.946385 0)
(1.96444 0.94114 0)
(1.97162 0.936556 0)
(1.97975 0.930275 0)
(3 -5.32061e-16 0)
(3 -6.04017e-16 0)
(3 -1.22619e-15 0)
(3 -2.5694e-15 0)
(3 -3.36774e-15 0)
(3 5.45855e-13 0)
(3 1.10637e-07 0)
(2.99978 0.00121504 0)
(2.94806 0.208426 0)
(2.17822 0.871531 0)
(1.91992 0.974648 0)
(1.91628 0.977963 0)
(1.92174 0.974628 0)
(1.93028 0.968946 0)
(1.93614 0.96354 0)
(1.94671 0.955245 0)
(1.95655 0.948362 0)
(1.9634 0.944605 0)
(1.97046 0.939819 0)
(1.9797 0.932724 0)
(3 -5.15195e-16 0)
(3 -3.91667e-16 0)
(3 -8.79478e-16 0)
(3 -9.47926e-16 0)
(3 -1.28861e-15 0)
(3 -6.92073e-16 0)
(3 7.50827e-10 0)
(2.99999 3.25766e-05 0)
(3.00533 0.0284355 0)
(2.49685 0.684872 0)
(1.93341 0.986339 0)
(1.91333 0.987591 0)
(1.91893 0.983076 0)
(1.92665 0.976542 0)
(1.93645 0.969034 0)
(1.94658 0.959908 0)
(1.95416 0.953346 0)
(1.96038 0.949209 0)
(1.96881 0.943271 0)
(1.97901 0.935855 0)
(3 -2.18167e-15 0)
(3 -2.12716e-15 0)
(3 -1.84116e-15 0)
(3 -4.72705e-16 0)
(3 1.06185e-16 0)
(3 -7.19815e-16 0)
(3 2.9229e-12 0)
(3 4.04557e-07 0)
(2.99971 0.00237696 0)
(2.89121 0.298054 0)
(2.14835 0.892798 0)
(1.92193 0.974928 0)
(1.92076 0.977159 0)
(1.9266 0.97542 0)
(1.94026 0.968312 0)
(1.95041 0.959449 0)
(1.95599 0.95426 0)
(1.96103 0.950052 0)
(1.97015 0.943276 0)
(1.98087 0.935864 0)
(3 -3.02914e-15 0)
(3 -3.43712e-15 0)
(3 -2.37545e-15 0)
(3 -1.39052e-15 0)
(3 4.04579e-17 0)
(3 -3.26962e-16 0)
(3 4.53526e-15 0)
(3 3.07255e-09 0)
(2.99997 7.9682e-05 0)
(3.00566 0.0460641 0)
(2.42223 0.739171 0)
(1.93528 0.989509 0)
(1.91862 0.984551 0)
(1.92435 0.980933 0)
(1.93597 0.973285 0)
(1.9469 0.964579 0)
(1.9529 0.96017 0)
(1.95968 0.955146 0)
(1.9698 0.94741 0)
(1.97993 0.939727 0)
(3 -2.62395e-15 0)
(3 -2.66408e-15 0)
(3 -2.41889e-15 0)
(3 -1.90442e-15 0)
(3 -1.46646e-15 0)
(3 -7.1829e-16 0)
(3 -9.87455e-16 0)
(3 1.43335e-11 0)
(3 1.16762e-06 0)
(2.99981 0.00444702 0)
(2.81032 0.39297 0)
(2.11755 0.91942 0)
(1.92688 0.975235 0)
(1.92645 0.976098 0)
(1.93576 0.971554 0)
(1.94775 0.964513 0)
(1.95441 0.960832 0)
(1.96235 0.95499 0)
(1.97278 0.946837 0)
(1.98195 0.93961 0)
(3 -2.2768e-15 0)
(3 -2.36134e-15 0)
(3 -3.90999e-15 0)
(3 -3.3278e-15 0)
(3 -2.84839e-15 0)
(3 -1.51162e-15 0)
(3 -1.56222e-15 0)
(3 3.25486e-14 0)
(3 9.53274e-09 0)
(2.99994 0.000186322 0)
(2.99878 0.0732656 0)
(2.36245 0.779225 0)
(1.94149 0.989848 0)
(1.9263 0.981071 0)
(1.93279 0.976525 0)
(1.94256 0.969996 0)
(1.95165 0.965525 0)
(1.96217 0.958886 0)
(1.97211 0.950983 0)
(1.98002 0.944094 0)
(3 -2.15168e-15 0)
(3 -1.56754e-15 0)
(3 -2.23376e-15 0)
(3 -2.80065e-15 0)
(3 -3.33477e-15 0)
(3 -3.61929e-15 0)
(3 -3.37367e-15 0)
(3 -3.8362e-15 0)
(3 4.98662e-11 0)
(3 3.23072e-06 0)
(3.00017 0.00792089 0)
(2.72632 0.477982 0)
(2.09106 0.942563 0)
(1.93386 0.974891 0)
(1.93374 0.974412 0)
(1.94227 0.969813 0)
(1.95292 0.964974 0)
(1.96485 0.957972 0)
(1.97453 0.951076 0)
(1.98175 0.945219 0)
(3 -5.71805e-15 0)
(3 -4.12567e-15 0)
(3 -2.02087e-15 0)
(3 -2.67446e-15 0)
(3 -3.28862e-15 0)
(3 -3.57278e-15 0)
(3 -3.6928e-15 0)
(3 -4.01925e-15 0)
(3 1.31851e-13 0)
(3 2.90936e-08 0)
(2.99988 0.00041847 0)
(2.98454 0.107814 0)
(2.31468 0.809182 0)
(1.95175 0.984312 0)
(1.93373 0.97943 0)
(1.93821 0.975153 0)
(1.94866 0.968895 0)
(1.96144 0.961137 0)
(1.97089 0.954979 0)
(1.97845 0.949971 0)
(3 -2.63327e-15 0)
(3 -3.22206e-15 0)
(3 -3.11787e-15 0)
(3 -2.56639e-15 0)
(3 -2.10952e-15 0)
(3 -2.3571e-15 0)
(3 -1.6891e-15 0)
(3 -1.9485e-15 0)
(3 -1.81389e-15 0)
(3 1.76257e-10 0)
(3 8.52152e-06 0)
(3.00087 0.0124837 0)
(2.64943 0.548148 0)
(2.06522 0.959222 0)
(1.93871 0.979582 0)
(1.93791 0.977279 0)
(1.9469 0.970204 0)
(1.95956 0.961735 0)
(1.9689 0.956149 0)
(1.97712 0.951593 0)
(3 -1.45565e-15 0)
(3 -1.24244e-15 0)
(3 -1.60867e-15 0)
(3 -2.01867e-15 0)
(3 -1.75512e-15 0)
(3 -2.09675e-15 0)
(3 -1.60669e-15 0)
(3 -1.22921e-15 0)
(3 -1.46835e-15 0)
(3 5.74474e-13 0)
(3 8.31836e-08 0)
(2.99981 0.000804509 0)
(2.96548 0.147893 0)
(2.27007 0.833429 0)
(1.96089 0.982282 0)
(1.94592 0.977652 0)
(1.95015 0.971922 0)
(1.95956 0.963581 0)
(1.96734 0.958051 0)
(1.97552 0.953472 0)
(2.5873 0.039343 0)
(2.58576 0.0387573 0)
(2.5849 0.0382632 0)
(2.58531 0.0381048 0)
(2.58607 0.0380284 0)
(2.587 0.0379026 0)
(2.58799 0.0377449 0)
(2.58885 0.0374633 0)
(2.58939 0.0370425 0)
(2.58945 0.0363342 0)
(2.58843 0.0350813 0)
(2.58766 0.0342277 0)
(2.58849 0.0342483 0)
(2.58951 0.0342338 0)
(2.59077 0.03426 0)
(2.5921 0.0343125 0)
(2.59333 0.0342727 0)
(2.59428 0.0340388 0)
(2.59493 0.0336943 0)
(2.59536 0.0335214 0)
(2.59557 0.0333121 0)
(2.5949 0.0324098 0)
(2.59314 0.0310452 0)
(2.59305 0.0306704 0)
(2.59378 0.0309686 0)
(2.59452 0.0314825 0)
(2.59562 0.0319587 0)
(2.5965 0.0321581 0)
(2.59699 0.0322183 0)
(2.59747 0.0322735 0)
(2.59785 0.0323494 0)
(2.59807 0.0323792 0)
(2.59788 0.0322346 0)
(2.59741 0.0320093 0)
(2.59737 0.032068 0)
(2.59745 0.0323879 0)
(2.59785 0.0332673 0)
(2.59859 0.0343657 0)
(2.59885 0.0348162 0)
(2.59882 0.0349165 0)
(2.59843 0.0347871 0)
(2.59736 0.0341167 0)
(1.97016 0.730027 0)
(1.97603 0.72585 0)
(1.98491 0.71897 0)
(1.99376 0.711504 0)
(1.99853 0.708738 0)
(2.00099 0.70839 0)
(2.00832 0.703072 0)
(2.02033 0.692883 0)
(2.02837 0.684728 0)
(2.031 0.685206 0)
(2.03306 0.684597 0)
(2.04269 0.677519 0)
(2.05467 0.666405 0)
(2.06444 0.659986 0)
(2.07356 0.65571 0)
(2.06821 0.654735 0)
(2.05577 0.662586 0)
(1.9849 0.701664 0)
(1.89397 0.74875 0)
(1.84716 0.768555 0)
(1.84582 0.767819 0)
(1.85418 0.762123 0)
(1.86878 0.75384 0)
(1.88101 0.748672 0)
(1.89607 0.739925 0)
(1.9122 0.7292 0)
(1.92303 0.723132 0)
(1.92953 0.721126 0)
(1.93838 0.716375 0)
(1.9546 0.704783 0)
(1.97239 0.690697 0)
(1.98292 0.683459 0)
(1.98699 0.68296 0)
(1.99415 0.678593 0)
(2.01148 0.665304 0)
(2.03022 0.648416 0)
(2.04056 0.641223 0)
(2.04398 0.643047 0)
(2.05083 0.638306 0)
(2.06916 0.623927 0)
(2.08634 0.605923 0)
(2.09564 0.600285 0)
(2.09914 0.602519 0)
(2.10813 0.596022 0)