/*--------------------------------*- C++ -*----------------------------------*\
  =========                 |
  \\      /  F ield         | OpenFOAM: The Open Source CFD Toolbox
   \\    /   O peration     | Website:  https://openfoam.org
    \\  /    A nd           | Version:  7
     \\/     M anipulation  |
\*---------------------------------------------------------------------------*/
FoamFile
{
    version     2.0;
    format      ascii;
    class       volScalarField;
    location    "0.6";
    object      T;
}
// * * * * * * * * * * * * * * * * * * * * * * * * * * * * * * * * * * * * * //

dimensions      [0 0 0 1 0 0 0];

internalField   nonuniform List<scalar> 
16512
(
1.60191
1.59913
1.58969
1.57149
1.55098
1.54392
1.54368
1.545
1.55027
1.56147
1.57293
1.57619
1.57546
1.57457
1.57063
1.55853
1.53332
1.51122
1.50556
1.50459
1.50552
1.51132
1.51299
1.51338
1.5144
1.51577
1.51635
1.51556
1.51302
1.50979
1.50657
1.5031
1.4985
1.49142
1.48406
1.48304
1.48266
1.48156
1.48054
1.47933
1.47721
1.47622
1.47632
1.47671
1.47626
1.46986
1.45378
1.44258
1.43987
1.43952
1.4417
1.444
1.44445
1.44599
1.44788
1.44827
1.44744
1.44186
1.42606
1.40438
1.39331
1.39192
1.39294
1.40176
1.42215
1.44058
1.44506
1.44457
1.44119
1.43139
1.40957
1.37593
1.35675
1.35342
1.35311
1.35342
1.35657
1.36413
1.37629
1.38982
1.3985
1.40081
1.40035
1.39772
1.39225
1.38512
1.37465
1.35606
1.33144
1.31892
1.31729
1.31787
1.31991
1.32309
1.3292
1.34153
1.36209
1.37862
1.38147
1.38025
1.3744
1.35755
1.32213
1.29121
1.28347
1.28178
1.28107
1.2817
1.2858
1.29738
1.31992
1.34456
1.35369
1.35426
1.35382
1.34688
1.32168
1.2801
1.25932
1.25514
1.2541
1.25514
1.26401
1.2847
1.29836
1.29965
1.30001
1.30166
1.30381
1.30421
1.30014
1.28297
1.25918
1.24935
1.24688
1.24637
1.24958
1.26125
1.26902
1.269
1.26762
1.26668
1.26538
1.26054
1.25041
1.24609
1.24544
1.24455
1.24315
1.24226
1.24043
1.23489
1.22878
1.22442
1.21986
1.21782
1.21811
1.21794
1.21718
1.21616
1.21436
1.21088
1.20734
1.20402
1.19998
1.19543
1.1913
1.18924
1.18938
1.19072
1.19062
1.19014
1.18997
1.18902
1.1848
1.1773
1.17053
1.16383
1.15697
1.15113
1.14673
1.14501
1.14436
1.14293
1.14093
1.14087
1.1411
1.14088
1.13965
1.1373
1.13421
1.13143
1.12801
1.12276
1.11907
1.11744
1.11542
1.11092
1.10735
1.107
1.10657
1.10531
1.10283
1.09915
1.09526
1.09188
1.0898
1.08915
1.08883
1.08733
1.0861
1.08559
1.08522
1.08467
1.08346
1.08075
1.07707
1.07426
1.07192
1.06944
1.06794
1.06787
1.06791
1.06681
1.06418
1.06145
1.05889
1.05611
1.05231
1.04657
1.03983
1.03652
1.03551
1.03473
1.03399
1.03385
1.03489
1.03767
1.03875
1.0381
1.03626
1.03452
1.03271
1.02942
1.02424
1.02064
1.01915
1.01801
1.01699
1.01662
1.01708
1.01749
1.01746
1.01798
1.01861
1.01854
1.01737
1.01387
1.59912
1.59194
1.57589
1.55484
1.54589
1.54473
1.54512
1.54944
1.56119
1.57379
1.57818
1.57806
1.57787
1.57432
1.56195
1.5355
1.51179
1.50563
1.50426
1.50441
1.51019
1.51613
1.51575
1.51634
1.51706
1.51772
1.51772
1.51633
1.51331
1.51032
1.50723
1.5032
1.49589
1.48745
1.48321
1.48226
1.4811
1.47981
1.47901
1.47713
1.47481
1.47449
1.47476
1.475
1.47303
1.4621
1.44826
1.44372
1.44209
1.44258
1.44289
1.44256
1.44337
1.44502
1.44592
1.44571
1.44299
1.43247
1.41339
1.39949
1.39689
1.39728
1.40422
1.4224
1.4388
1.44227
1.44186
1.43888
1.42978
1.40849
1.37537
1.3569
1.35377
1.35357
1.35438
1.35893
1.36865
1.38317
1.39663
1.40212
1.40228
1.40101
1.39693
1.39012
1.3817
1.3708
1.35421
1.33309
1.32066
1.31831
1.31863
1.32024
1.32316
1.32908
1.34133
1.362
1.37946
1.38307
1.38221
1.37721
1.36123
1.3258
1.29349
1.28489
1.28268
1.28147
1.28168
1.28469
1.29456
1.31564
1.34121
1.35262
1.35415
1.35431
1.34999
1.32924
1.288
1.26315
1.25777
1.25614
1.25626
1.26106
1.27744
1.2957
1.29949
1.2993
1.29974
1.30158
1.30305
1.30121
1.28845
1.26396
1.25119
1.24833
1.24751
1.24931
1.25891
1.26924
1.2701
1.26796
1.26561
1.26414
1.26175
1.25498
1.2461
1.24421
1.24387
1.24319
1.24201
1.24135
1.23991
1.23464
1.22831
1.22414
1.22036
1.21744
1.21679
1.21634
1.21564
1.21475
1.2129
1.2098
1.20725
1.20445
1.20071
1.19637
1.19254
1.18913
1.18883
1.18991
1.19004
1.18957
1.18914
1.18772
1.18293
1.1764
1.17073
1.16433
1.15762
1.15172
1.14749
1.14562
1.14441
1.14223
1.14091
1.14141
1.14205
1.14186
1.14095
1.13922
1.13656
1.13329
1.12812
1.12195
1.11855
1.11682
1.11378
1.11021
1.10902
1.10874
1.10814
1.10636
1.10321
1.09947
1.09567
1.09241
1.09069
1.09058
1.09039
1.08887
1.08782
1.08737
1.08696
1.08618
1.08426
1.08066
1.07712
1.07475
1.07242
1.07017
1.0693
1.06939
1.06947
1.06822
1.06543
1.06254
1.05992
1.05701
1.05278
1.04639
1.04063
1.03867
1.03781
1.03698
1.03634
1.03647
1.03813
1.04056
1.04085
1.03984
1.03806
1.03649
1.03435
1.03013
1.02479
1.02204
1.02069
1.0195
1.01864
1.01855
1.01925
1.01941
1.0195
1.02019
1.02066
1.02046
1.01879
1.01478
1.59378
1.58043
1.5602
1.54946
1.54691
1.5467
1.54976
1.56094
1.5741
1.57917
1.58003
1.58026
1.57724
1.56486
1.53763
1.51254
1.50568
1.50437
1.5045
1.50941
1.51855
1.51946
1.51894
1.51907
1.51935
1.51947
1.51861
1.51583
1.5129
1.51023
1.50685
1.50022
1.48966
1.48319
1.48213
1.48126
1.47977
1.47846
1.47797
1.47641
1.4745
1.47415
1.47424
1.47371
1.46742
1.45381
1.44721
1.44471
1.44377
1.44308
1.44145
1.44177
1.44296
1.44407
1.44414
1.44295
1.43678
1.42188
1.40656
1.40235
1.40236
1.40758
1.42284
1.43671
1.43924
1.43882
1.43607
1.42782
1.40794
1.37593
1.3576
1.35455
1.35445
1.35578
1.36162
1.37346
1.38981
1.40204
1.40493
1.40418
1.4019
1.39657
1.3879
1.37757
1.36631
1.35244
1.33589
1.3237
1.32021
1.32031
1.32133
1.32371
1.32941
1.34173
1.36249
1.38
1.3838
1.38319
1.37894
1.36407
1.32929
1.29611
1.28689
1.28437
1.28279
1.28273
1.28473
1.29282
1.31202
1.33782
1.35097
1.35308
1.35368
1.35104
1.33451
1.29516
1.26704
1.26076
1.25883
1.25854
1.26083
1.27192
1.29149
1.30037
1.30004
1.29923
1.29971
1.30125
1.30083
1.29208
1.2688
1.25309
1.24966
1.24869
1.24963
1.25678
1.26888
1.27224
1.27033
1.26639
1.26388
1.26219
1.25908
1.25101
1.24276
1.24172
1.24177
1.24153
1.24104
1.2407
1.23961
1.23491
1.22825
1.22373
1.2204
1.21716
1.21528
1.21443
1.21384
1.21326
1.21194
1.2096
1.20755
1.20509
1.20153
1.19706
1.19345
1.18982
1.18815
1.18878
1.18914
1.18891
1.18841
1.18634
1.18109
1.17586
1.17115
1.16525
1.15869
1.1523
1.14802
1.14592
1.14394
1.14171
1.14145
1.14253
1.14347
1.14331
1.14284
1.1415
1.1387
1.13413
1.12695
1.12041
1.11741
1.11553
1.11264
1.11118
1.11116
1.11095
1.10972
1.10689
1.10342
1.09988
1.09622
1.09312
1.09193
1.09207
1.0918
1.09036
1.08956
1.08916
1.08866
1.08747
1.08464
1.08067
1.07777
1.07565
1.07342
1.07154
1.07087
1.07094
1.07093
1.06944
1.06648
1.06357
1.06088
1.05765
1.05282
1.04624
1.04219
1.04097
1.0401
1.03924
1.03889
1.0394
1.04158
1.04312
1.04285
1.04144
1.03985
1.03827
1.03555
1.03052
1.02572
1.02351
1.02214
1.02096
1.02034
1.02048
1.02122
1.02126
1.0215
1.02237
1.02274
1.0224
1.02026
1.01591
1.58442
1.56589
1.55424
1.55056
1.54974
1.55185
1.56172
1.57433
1.57958
1.58101
1.58162
1.5792
1.56734
1.53951
1.51344
1.50618
1.50486
1.5048
1.50938
1.51939
1.52432
1.52337
1.52235
1.52196
1.52189
1.52079
1.51713
1.51372
1.51168
1.5092
1.50418
1.49353
1.48323
1.48138
1.48116
1.48047
1.47887
1.47763
1.47747
1.47655
1.47503
1.4746
1.47424
1.47091
1.45896
1.44935
1.44688
1.44474
1.4439
1.44186
1.44112
1.44171
1.44293
1.44329
1.44279
1.43924
1.42825
1.41345
1.4077
1.40747
1.41121
1.42352
1.43471
1.43629
1.43592
1.43333
1.4259
1.40812
1.37795
1.35894
1.35568
1.35572
1.35767
1.36475
1.3786
1.39605
1.40628
1.40738
1.40601
1.40292
1.39634
1.38534
1.37283
1.36217
1.35206
1.34028
1.3285
1.32327
1.3231
1.32355
1.32519
1.33054
1.34304
1.36372
1.38039
1.38377
1.38316
1.37926
1.36543
1.33191
1.29866
1.28908
1.2865
1.28485
1.28465
1.28585
1.2921
1.30906
1.33474
1.34921
1.35158
1.35224
1.35054
1.33745
1.30103
1.27025
1.26329
1.2615
1.26108
1.2623
1.26937
1.28633
1.3008
1.30248
1.3006
1.29923
1.29967
1.29977
1.29393
1.27311
1.2539
1.2504
1.24969
1.25018
1.25537
1.26715
1.27419
1.27374
1.26968
1.26518
1.26264
1.26066
1.25624
1.24565
1.23905
1.23891
1.23937
1.24013
1.24107
1.24117
1.23998
1.23517
1.22859
1.22325
1.21943
1.216
1.21389
1.21298
1.21253
1.21224
1.21143
1.20954
1.20776
1.20558
1.20225
1.19766
1.19386
1.1908
1.1879
1.1878
1.18815
1.1881
1.18748
1.18459
1.1795
1.17575
1.17183
1.1665
1.16
1.15298
1.14839
1.14562
1.14294
1.14184
1.1423
1.14392
1.14509
1.14516
1.14494
1.14354
1.14014
1.13401
1.1253
1.11892
1.11636
1.11473
1.11318
1.11299
1.11304
1.11265
1.1106
1.10718
1.10395
1.10071
1.09713
1.09415
1.09334
1.09355
1.09313
1.09182
1.09114
1.09071
1.09
1.08819
1.0846
1.081
1.07877
1.07685
1.0749
1.07332
1.07268
1.07265
1.0724
1.07048
1.06744
1.06465
1.06189
1.05827
1.0526
1.04654
1.04417
1.04315
1.04217
1.04145
1.04146
1.04258
1.04479
1.04529
1.04456
1.04304
1.04165
1.03991
1.03647
1.03097
1.02688
1.02496
1.02355
1.02245
1.02203
1.02239
1.02302
1.023
1.02349
1.02442
1.02466
1.02417
1.02171
1.01733
1.57089
1.55942
1.55537
1.55412
1.55567
1.56405
1.57504
1.57965
1.58118
1.58199
1.5802
1.56938
1.54145
1.51449
1.50695
1.50571
1.50556
1.50992
1.51982
1.52816
1.52891
1.52753
1.52589
1.52479
1.5227
1.5175
1.51319
1.51152
1.5101
1.50704
1.49879
1.48556
1.48035
1.4805
1.48074
1.48021
1.47843
1.47757
1.47779
1.47744
1.47649
1.47575
1.47377
1.46426
1.45091
1.44745
1.44591
1.44419
1.4424
1.44143
1.44159
1.4425
1.44343
1.4433
1.44109
1.43284
1.41929
1.41241
1.41191
1.41465
1.42434
1.43287
1.43372
1.43346
1.43109
1.42437
1.40899
1.38163
1.36148
1.35728
1.35743
1.35997
1.36818
1.38376
1.40162
1.40971
1.40972
1.40759
1.4036
1.39581
1.38261
1.36893
1.36056
1.35413
1.34584
1.33488
1.3275
1.32686
1.32693
1.32786
1.33284
1.34548
1.36576
1.38065
1.38302
1.38223
1.37825
1.36521
1.33327
1.30049
1.29097
1.28869
1.2873
1.28704
1.28781
1.29248
1.30683
1.33175
1.34811
1.35029
1.35065
1.3494
1.33867
1.30543
1.27258
1.26492
1.26357
1.26324
1.2642
1.26908
1.28234
1.29962
1.30519
1.30412
1.30099
1.2995
1.29885
1.29444
1.27724
1.25454
1.24909
1.24926
1.25034
1.25481
1.26511
1.27504
1.27657
1.27425
1.26897
1.26454
1.2617
1.25847
1.25007
1.23857
1.23575
1.23635
1.23768
1.23999
1.24264
1.243
1.24045
1.23525
1.22921
1.22276
1.2168
1.21399
1.21299
1.21225
1.21179
1.21163
1.21105
1.20938
1.20785
1.20597
1.20286
1.1983
1.19426
1.19112
1.18827
1.1871
1.18717
1.18715
1.18617
1.1824
1.1785
1.1761
1.17274
1.16785
1.16147
1.15379
1.14855
1.14494
1.1424
1.14238
1.14337
1.14517
1.14653
1.14691
1.14664
1.14493
1.14082
1.13341
1.12387
1.11787
1.11596
1.11514
1.11485
1.11491
1.11485
1.11374
1.11072
1.10761
1.10495
1.10194
1.0984
1.09555
1.09482
1.09499
1.09435
1.09309
1.09244
1.0919
1.09084
1.08827
1.08441
1.08168
1.07995
1.07823
1.07651
1.07519
1.07466
1.07451
1.07386
1.0715
1.06857
1.06596
1.06307
1.05878
1.0524
1.04774
1.04623
1.04519
1.04411
1.04365
1.04399
1.04587
1.0475
1.04736
1.04619
1.04479
1.04343
1.0413
1.03708
1.03152
1.02804
1.02625
1.02485
1.02386
1.02362
1.02415
1.02467
1.02475
1.0255
1.02632
1.02638
1.02569
1.02297
1.0188
1.56448
1.56051
1.55928
1.56084
1.56823
1.57711
1.57982
1.58093
1.58176
1.58041
1.57098
1.54394
1.51588
1.50791
1.50664
1.50649
1.5107
1.52168
1.5309
1.53415
1.53329
1.53116
1.52856
1.5242
1.5173
1.51216
1.51063
1.50998
1.50847
1.50339
1.49123
1.48064
1.48
1.48021
1.48083
1.48026
1.47868
1.47855
1.47919
1.47898
1.47821
1.47639
1.46951
1.45475
1.4468
1.44543
1.44428
1.44272
1.44167
1.44223
1.44339
1.44442
1.44454
1.44324
1.43696
1.42441
1.41653
1.41568
1.41735
1.42451
1.43098
1.43147
1.43138
1.42954
1.42357
1.41054
1.38661
1.36546
1.35975
1.35987
1.36267
1.37163
1.38847
1.40628
1.41251
1.41156
1.40884
1.40394
1.39491
1.37971
1.36594
1.36002
1.35574
1.34976
1.341
1.33297
1.33124
1.33108
1.33177
1.33657
1.34929
1.36853
1.3806
1.38174
1.38047
1.37614
1.36379
1.3335
1.30152
1.2923
1.29055
1.2897
1.28958
1.29018
1.2938
1.30565
1.32899
1.3472
1.35001
1.34981
1.34827
1.33898
1.30881
1.27403
1.26541
1.26476
1.26466
1.26584
1.26979
1.28004
1.29744
1.30767
1.30786
1.30472
1.30128
1.29927
1.295
1.28077
1.25605
1.24683
1.24712
1.24893
1.25368
1.26318
1.27469
1.27902
1.27825
1.27403
1.26845
1.26408
1.26026
1.25338
1.24078
1.23287
1.23291
1.23471
1.23786
1.2427
1.24579
1.24536
1.24167
1.23601
1.22927
1.22016
1.21333
1.21233
1.21236
1.21204
1.21154
1.21131
1.21065
1.2091
1.20799
1.20646
1.20343
1.19899
1.19473
1.1908
1.18819
1.18704
1.18662
1.18622
1.18441
1.18032
1.17815
1.17664
1.17373
1.16914
1.16288
1.15464
1.14817
1.14465
1.14289
1.14315
1.14431
1.14623
1.14766
1.14805
1.14772
1.14575
1.14115
1.13304
1.12315
1.11749
1.11633
1.11628
1.11634
1.11642
1.11611
1.11414
1.11095
1.10858
1.10634
1.10343
1.09993
1.09713
1.09623
1.09614
1.0952
1.09406
1.09349
1.09288
1.09145
1.08819
1.08457
1.08264
1.08119
1.07959
1.07804
1.07697
1.07654
1.07634
1.07527
1.07258
1.06987
1.06741
1.06428
1.05913
1.05267
1.04953
1.04828
1.04709
1.04597
1.04571
1.04643
1.04865
1.04953
1.04907
1.04785
1.04666
1.04528
1.0427
1.03786
1.03236
1.02918
1.02746
1.02614
1.02527
1.02508
1.02568
1.02642
1.02671
1.02757
1.02808
1.028
1.02692
1.02376
1.01977
1.56612
1.56478
1.56639
1.57314
1.5799
1.58081
1.58098
1.58122
1.58011
1.57179
1.5463
1.51782
1.50909
1.50771
1.50753
1.51139
1.52347
1.53497
1.53868
1.53872
1.53681
1.53352
1.52693
1.51731
1.51097
1.50957
1.50924
1.50877
1.50617
1.49778
1.48459
1.48004
1.4802
1.48057
1.48132
1.4805
1.47997
1.48055
1.48122
1.48085
1.47936
1.47401
1.46034
1.44742
1.44465
1.44347
1.44269
1.44206
1.44235
1.44426
1.4461
1.4464
1.44565
1.44099
1.4294
1.4204
1.41922
1.41989
1.42425
1.42869
1.42967
1.42976
1.42843
1.42341
1.41265
1.39247
1.37114
1.36335
1.36325
1.36581
1.37499
1.39242
1.40972
1.41465
1.4132
1.40977
1.40386
1.39387
1.37717
1.36307
1.35863
1.35599
1.35224
1.34607
1.33908
1.33643
1.33602
1.33676
1.34164
1.35433
1.3716
1.38009
1.38017
1.37815
1.37346
1.36155
1.33301
1.3021
1.29318
1.29196
1.29167
1.29188
1.29271
1.29567
1.3055
1.3269
1.34671
1.3505
1.34993
1.34785
1.33917
1.31167
1.27545
1.26502
1.26471
1.26515
1.26691
1.27063
1.27888
1.29492
1.30943
1.3117
1.30929
1.30465
1.3012
1.29665
1.28437
1.25915
1.24457
1.24406
1.24609
1.25087
1.26026
1.27321
1.28086
1.28139
1.2791
1.27368
1.2681
1.26319
1.25657
1.24443
1.23172
1.22961
1.231
1.23459
1.24114
1.24775
1.24931
1.248
1.24381
1.2364
1.22624
1.21621
1.21153
1.21125
1.21174
1.21185
1.21156
1.21118
1.21011
1.20898
1.20844
1.2072
1.20414
1.19982
1.19509
1.1901
1.18768
1.18687
1.18621
1.18527
1.18259
1.17917
1.17823
1.17723
1.17478
1.17028
1.16399
1.15581
1.14755
1.14461
1.1439
1.14396
1.145
1.14707
1.14853
1.14879
1.14836
1.14623
1.14144
1.13322
1.12326
1.11804
1.11742
1.11751
1.11763
1.11758
1.11675
1.1142
1.11177
1.11005
1.10804
1.10517
1.10173
1.09882
1.09751
1.09695
1.09566
1.09465
1.09419
1.09355
1.09179
1.08814
1.08524
1.08387
1.08257
1.08105
1.07964
1.07878
1.0784
1.07804
1.07641
1.0737
1.07131
1.06893
1.06537
1.05938
1.05375
1.05158
1.05032
1.04896
1.04783
1.04773
1.04883
1.05091
1.05124
1.05057
1.04944
1.04836
1.04688
1.04402
1.039
1.03361
1.03046
1.02876
1.02753
1.02676
1.02663
1.02705
1.02815
1.02875
1.02934
1.02967
1.0295
1.02803
1.0243
1.02041
1.56999
1.57189
1.57776
1.58247
1.58238
1.58176
1.58133
1.57995
1.57239
1.5487
1.51994
1.51017
1.50868
1.50843
1.51213
1.52493
1.53897
1.54325
1.54309
1.54189
1.53907
1.53169
1.51872
1.51004
1.50845
1.50842
1.50823
1.5072
1.50179
1.4911
1.48179
1.48092
1.48103
1.48156
1.48189
1.48146
1.48181
1.48302
1.48314
1.48237
1.47854
1.4665
1.45031
1.44463
1.44339
1.44259
1.44212
1.44248
1.44441
1.44704
1.44824
1.4481
1.44544
1.43549
1.42387
1.4221
1.42234
1.42424
1.42671
1.42812
1.4284
1.42765
1.42396
1.41519
1.39877
1.37854
1.36825
1.36762
1.36965
1.37835
1.39554
1.41188
1.41604
1.41457
1.41076
1.40403
1.39308
1.37506
1.36032
1.3564
1.35489
1.35322
1.34992
1.34508
1.34222
1.34179
1.3427
1.34797
1.36032
1.37435
1.37918
1.37844
1.37549
1.37047
1.35904
1.33211
1.30247
1.29394
1.29305
1.2931
1.29385
1.29505
1.29774
1.30617
1.32576
1.34672
1.35179
1.35094
1.3483
1.33993
1.31453
1.27729
1.2644
1.26393
1.26488
1.26712
1.27104
1.27826
1.29257
1.30975
1.31539
1.31409
1.30929
1.3044
1.29928
1.28837
1.26407
1.24345
1.24099
1.24261
1.24696
1.25583
1.26985
1.28152
1.28398
1.28309
1.27929
1.27347
1.26761
1.26061
1.24877
1.23294
1.2269
1.2275
1.23043
1.23757
1.24763
1.25246
1.25239
1.25044
1.24432
1.23222
1.22099
1.21478
1.21124
1.21045
1.21105
1.21201
1.21192
1.21124
1.20962
1.20936
1.20918
1.20806
1.20497
1.20086
1.19534
1.1893
1.18678
1.18611
1.18538
1.18383
1.18128
1.17921
1.1787
1.17802
1.17596
1.17127
1.16467
1.15693
1.14791
1.14454
1.14451
1.14456
1.14556
1.14779
1.1492
1.14929
1.14876
1.14667
1.14219
1.1343
1.12442
1.1192
1.11846
1.11846
1.11838
1.1181
1.11695
1.11469
1.11309
1.11175
1.10991
1.10711
1.10364
1.10049
1.09868
1.09758
1.09595
1.09501
1.09463
1.09402
1.09198
1.08826
1.08623
1.08523
1.08404
1.08258
1.08138
1.0807
1.08035
1.07964
1.07742
1.07488
1.07279
1.07035
1.06616
1.05976
1.05541
1.05373
1.05236
1.05087
1.04979
1.04981
1.05109
1.05263
1.0526
1.0517
1.05067
1.04965
1.04811
1.04524
1.04049
1.0353
1.03213
1.03051
1.02938
1.02876
1.02865
1.02887
1.02993
1.03068
1.03075
1.03087
1.03055
1.02871
1.0248
1.02124
1.57569
1.58114
1.58391
1.58323
1.58303
1.58273
1.58098
1.57345
1.55158
1.52346
1.51222
1.51004
1.50963
1.51297
1.52595
1.54204
1.54732
1.54679
1.54608
1.54408
1.53711
1.52295
1.5106
1.508
1.50786
1.50761
1.50708
1.50403
1.49541
1.48678
1.48245
1.48203
1.48214
1.48258
1.48268
1.48301
1.48425
1.48502
1.4848
1.48265
1.4734
1.45582
1.44535
1.44354
1.44318
1.4426
1.44258
1.44424
1.44831
1.44975
1.44996
1.44903
1.44328
1.42995
1.42327
1.42337
1.42396
1.42534
1.42673
1.42712
1.42678
1.42448
1.41797
1.40505
1.38694
1.37448
1.37283
1.37415
1.38189
1.3982
1.41291
1.41644
1.41529
1.41172
1.40469
1.39317
1.37407
1.35815
1.35453
1.35373
1.35323
1.35205
1.34976
1.34789
1.34785
1.3495
1.35556
1.36681
1.37651
1.37825
1.3766
1.3728
1.36754
1.3567
1.33146
1.30288
1.29461
1.29395
1.29425
1.29529
1.29695
1.29972
1.30737
1.32559
1.34729
1.35377
1.35278
1.34964
1.34129
1.31779
1.27985
1.26402
1.26307
1.26405
1.26662
1.27087
1.27758
1.29041
1.30886
1.31839
1.31836
1.31446
1.30891
1.30304
1.29273
1.27033
1.24449
1.23844
1.23927
1.24255
1.25042
1.2646
1.28018
1.28601
1.286
1.28399
1.27944
1.27335
1.26606
1.25422
1.23663
1.22562
1.22495
1.22639
1.23247
1.2448
1.2541
1.25536
1.25485
1.25127
1.24002
1.22604
1.21845
1.21427
1.2119
1.21065
1.2109
1.21228
1.21257
1.21129
1.2098
1.21007
1.20999
1.2089
1.20583
1.20158
1.19536
1.18846
1.18551
1.18473
1.18394
1.18219
1.18072
1.18016
1.1798
1.1792
1.17713
1.17206
1.16472
1.15735
1.14939
1.14495
1.14491
1.14506
1.14593
1.14822
1.14982
1.14988
1.14934
1.1475
1.14349
1.13596
1.12595
1.12065
1.11965
1.1192
1.11866
1.11812
1.11709
1.11561
1.11459
1.1135
1.11181
1.10906
1.10553
1.10215
1.09991
1.09821
1.09628
1.09544
1.09512
1.09445
1.09199
1.08862
1.08738
1.0866
1.08541
1.08397
1.08311
1.0827
1.08239
1.08108
1.07858
1.07644
1.07453
1.07174
1.06657
1.06042
1.05743
1.05591
1.05439
1.05279
1.05193
1.05211
1.0535
1.05433
1.05389
1.05275
1.0517
1.05064
1.04903
1.04622
1.04176
1.03695
1.03413
1.03272
1.0318
1.03135
1.03128
1.03138
1.03201
1.03243
1.03233
1.03208
1.0312
1.02889
1.02525
1.02237
1.5827
1.58392
1.5831
1.58364
1.58432
1.58294
1.57508
1.55412
1.52804
1.51591
1.51281
1.5122
1.51493
1.52755
1.54414
1.55024
1.54994
1.54969
1.54825
1.54169
1.52788
1.51352
1.50862
1.50782
1.50731
1.50664
1.505
1.49878
1.49012
1.48663
1.48387
1.48321
1.48332
1.4835
1.48379
1.48493
1.4864
1.48666
1.48586
1.47989
1.46375
1.4486
1.44468
1.4435
1.44396
1.44364
1.4444
1.44783
1.45244
1.45285
1.45238
1.44932
1.4399
1.42698
1.42289
1.423
1.42364
1.42492
1.4257
1.42563
1.42454
1.42044
1.41096
1.39563
1.38188
1.37857
1.37929
1.38548
1.40031
1.41319
1.41589
1.4151
1.41233
1.40576
1.39426
1.37492
1.35751
1.35319
1.35286
1.35311
1.35304
1.35243
1.35239
1.35355
1.35689
1.36368
1.37267
1.37775
1.37737
1.37465
1.37019
1.36492
1.35482
1.33153
1.30386
1.29537
1.29475
1.29527
1.29635
1.29819
1.30133
1.3089
1.32636
1.34848
1.35627
1.35532
1.35186
1.34349
1.3213
1.28323
1.26435
1.26261
1.26326
1.2656
1.27009
1.2768
1.28848
1.30683
1.32024
1.3218
1.31935
1.31415
1.30803
1.298
1.27715
1.24795
1.23712
1.23698
1.23871
1.24465
1.25782
1.27626
1.28709
1.28828
1.28743
1.28474
1.27975
1.27266
1.26094
1.24253
1.22642
1.22324
1.22364
1.22759
1.23961
1.25323
1.25741
1.25752
1.256
1.24715
1.23272
1.22297
1.2176
1.21439
1.21312
1.21165
1.21167
1.21274
1.21293
1.21173
1.21064
1.21107
1.21095
1.20963
1.2062
1.20127
1.19468
1.18741
1.18406
1.18324
1.18249
1.18143
1.18116
1.18125
1.1812
1.18052
1.1779
1.17197
1.16415
1.15758
1.15127
1.14601
1.14561
1.14574
1.14636
1.14854
1.15051
1.15066
1.15023
1.14881
1.14542
1.13813
1.12766
1.12168
1.12028
1.11946
1.11877
1.1184
1.1178
1.11677
1.11603
1.11516
1.11364
1.11093
1.10728
1.10373
1.10114
1.09888
1.0968
1.09612
1.09583
1.09494
1.09198
1.08945
1.08878
1.08804
1.0867
1.08529
1.08472
1.08456
1.08417
1.08233
1.08
1.07826
1.0764
1.073
1.06698
1.06187
1.05969
1.05813
1.05647
1.05485
1.05413
1.05442
1.05572
1.05609
1.05531
1.05403
1.05292
1.05171
1.04994
1.04706
1.04265
1.03829
1.03614
1.03509
1.03439
1.03416
1.03432
1.03433
1.03449
1.03461
1.03439
1.03364
1.03198
1.02899
1.02544
1.02338
1.5838
1.58213
1.58244
1.58468
1.58433
1.57691
1.55647
1.53278
1.52063
1.51696
1.51646
1.51909
1.53115
1.54699
1.55235
1.55234
1.55257
1.55142
1.545
1.53151
1.51731
1.51112
1.50921
1.50795
1.50682
1.50542
1.502
1.49389
1.48932
1.48765
1.4851
1.48432
1.48428
1.48437
1.4851
1.48691
1.4881
1.48804
1.485
1.4723
1.45446
1.44689
1.44478
1.44439
1.44611
1.44618
1.44795
1.45241
1.45592
1.45606
1.45485
1.44875
1.43503
1.42408
1.42159
1.42164
1.42238
1.4238
1.42429
1.42403
1.42205
1.41597
1.40379
1.38996
1.38462
1.38475
1.38905
1.40164
1.41274
1.41464
1.41422
1.41232
1.40675
1.39615
1.3774
1.35863
1.35306
1.35265
1.35289
1.35347
1.35403
1.35554
1.35866
1.36406
1.37141
1.37727
1.37848
1.37669
1.3726
1.36777
1.36247
1.35325
1.33252
1.30584
1.29641
1.29566
1.2962
1.29735
1.29906
1.30252
1.31045
1.3279
1.35041
1.35919
1.35839
1.35482
1.34642
1.32517
1.28709
1.26536
1.26267
1.26293
1.26486
1.26904
1.27548
1.28651
1.3047
1.32073
1.32439
1.32325
1.31942
1.31384
1.30431
1.28478
1.25348
1.23722
1.23575
1.23631
1.23995
1.25059
1.26957
1.28629
1.29029
1.29008
1.28883
1.28578
1.27986
1.26895
1.25018
1.2297
1.22278
1.22244
1.22433
1.23411
1.24988
1.25769
1.25905
1.25875
1.25257
1.23866
1.22811
1.22225
1.21787
1.21593
1.2148
1.21242
1.21233
1.21313
1.21316
1.21297
1.21286
1.21262
1.21161
1.20932
1.20552
1.20008
1.19352
1.18639
1.18298
1.18231
1.18183
1.1817
1.18209
1.18247
1.18239
1.18135
1.17768
1.17104
1.16395
1.15835
1.15271
1.14715
1.14644
1.1467
1.14719
1.14918
1.15155
1.1519
1.15159
1.15052
1.14748
1.14022
1.12941
1.12256
1.12047
1.11937
1.11892
1.11887
1.1187
1.11793
1.11736
1.11669
1.11534
1.11268
1.10894
1.10523
1.10228
1.0995
1.09747
1.09698
1.09672
1.09548
1.09234
1.09091
1.09046
1.08969
1.08826
1.08682
1.08623
1.08601
1.08533
1.08337
1.08145
1.08003
1.07807
1.07394
1.06777
1.06395
1.06211
1.06046
1.05871
1.05718
1.05656
1.05678
1.05768
1.05781
1.05686
1.05549
1.0543
1.05297
1.05105
1.04788
1.04325
1.03949
1.03798
1.03719
1.0367
1.03663
1.03696
1.03724
1.03725
1.03718
1.0367
1.03549
1.03326
1.02969
1.02601
1.02458
1.58255
1.58009
1.58237
1.58367
1.57706
1.55803
1.5378
1.52619
1.5224
1.5223
1.52554
1.53666
1.55051
1.55446
1.5541
1.55434
1.55351
1.54784
1.53398
1.5202
1.51443
1.51192
1.51001
1.50832
1.50686
1.50461
1.49883
1.49202
1.49025
1.4885
1.48619
1.4849
1.48485
1.48519
1.4866
1.48877
1.48956
1.48851
1.47978
1.46183
1.4504
1.44716
1.44576
1.44721
1.44914
1.44964
1.45255
1.45662
1.45841
1.45833
1.4549
1.44274
1.42866
1.4217
1.42035
1.42047
1.42146
1.42303
1.42335
1.42281
1.41961
1.41069
1.39769
1.39066
1.39021
1.39272
1.40234
1.41157
1.41301
1.41294
1.41171
1.40719
1.398
1.38111
1.36151
1.35409
1.35332
1.35344
1.35408
1.35524
1.35804
1.36326
1.37067
1.37759
1.38057
1.37992
1.3766
1.37111
1.36548
1.35981
1.35141
1.33399
1.3092
1.29802
1.29681
1.29725
1.29838
1.29997
1.30356
1.31206
1.33007
1.35291
1.36218
1.36166
1.35832
1.35006
1.32951
1.29143
1.26707
1.26324
1.26322
1.26453
1.26825
1.2743
1.28428
1.30158
1.32035
1.32644
1.32604
1.32394
1.31977
1.31131
1.2931
1.26101
1.23909
1.23544
1.2354
1.23697
1.24448
1.26162
1.2826
1.29166
1.29224
1.29192
1.29066
1.28687
1.27766
1.25912
1.2352
1.22402
1.2225
1.22306
1.22976
1.24554
1.25631
1.25909
1.25971
1.25613
1.24349
1.23254
1.22696
1.22235
1.21949
1.21872
1.21693
1.21319
1.21283
1.21326
1.21407
1.21506
1.21518
1.21358
1.21081
1.20807
1.20429
1.19884
1.19265
1.18591
1.18262
1.1823
1.18226
1.18257
1.18318
1.18333
1.18296
1.18103
1.1765
1.17059
1.16473
1.15937
1.15358
1.14812
1.14739
1.14786
1.14838
1.15016
1.15285
1.15357
1.15341
1.15252
1.14939
1.14181
1.13082
1.12308
1.12046
1.11963
1.11959
1.11981
1.11979
1.11908
1.11861
1.11809
1.11688
1.11426
1.11045
1.1065
1.10316
1.10007
1.0983
1.09799
1.09775
1.09612
1.09347
1.09273
1.09232
1.09157
1.09015
1.08862
1.08779
1.08725
1.08617
1.08428
1.08279
1.08155
1.07938
1.07461
1.06899
1.06621
1.06456
1.06285
1.06105
1.05956
1.05907
1.05926
1.05964
1.05951
1.05845
1.05706
1.0558
1.05439
1.05233
1.04889
1.04414
1.04094
1.03979
1.03914
1.03874
1.03873
1.03932
1.03985
1.0397
1.03936
1.03863
1.03723
1.03486
1.0311
1.02765
1.02669
1.58112
1.57955
1.58114
1.57507
1.55752
1.54122
1.53207
1.52912
1.52972
1.53452
1.54498
1.55494
1.55655
1.55545
1.55523
1.5543
1.54985
1.53729
1.52205
1.516
1.51414
1.5125
1.51057
1.50901
1.50748
1.50441
1.49715
1.49248
1.4908
1.4894
1.48685
1.48528
1.48544
1.48624
1.48827
1.49036
1.49051
1.48549
1.46962
1.45524
1.45065
1.44849
1.44849
1.45142
1.45229
1.4536
1.4568
1.45965
1.46019
1.45886
1.44952
1.43371
1.42428
1.42048
1.41982
1.42012
1.42149
1.42305
1.42316
1.42199
1.41623
1.40463
1.39648
1.39529
1.39655
1.40329
1.41007
1.41123
1.41137
1.41058
1.40703
1.39929
1.38484
1.36566
1.35643
1.35509
1.35513
1.35551
1.35672
1.36052
1.36769
1.37646
1.38214
1.38309
1.38153
1.37722
1.37036
1.36318
1.3567
1.34897
1.33524
1.31388
1.30059
1.29843
1.29875
1.29966
1.30114
1.30479
1.31382
1.33278
1.35571
1.36486
1.36458
1.3618
1.35415
1.33434
1.29638
1.26949
1.26444
1.26409
1.26478
1.26775
1.2733
1.28245
1.29829
1.31833
1.32775
1.32816
1.32735
1.32496
1.31824
1.30163
1.26975
1.24294
1.23637
1.23561
1.23602
1.24033
1.25387
1.27645
1.29154
1.29415
1.29431
1.29413
1.2925
1.28589
1.26882
1.24275
1.22707
1.22374
1.22356
1.22753
1.24147
1.25414
1.25788
1.25925
1.25739
1.24672
1.23565
1.23102
1.2271
1.22372
1.22259
1.22224
1.21874
1.21404
1.2136
1.21419
1.21604
1.21708
1.21576
1.21184
1.20929
1.20696
1.2032
1.19807
1.19262
1.18627
1.18314
1.18305
1.18352
1.18396
1.18391
1.18327
1.18209
1.17967
1.17595
1.17142
1.16596
1.16026
1.15403
1.14894
1.14849
1.14921
1.14985
1.1515
1.15436
1.15555
1.15544
1.15435
1.1508
1.1429
1.13166
1.12333
1.12073
1.12039
1.1206
1.12112
1.12113
1.12037
1.11989
1.11943
1.1183
1.11569
1.1118
1.10751
1.10369
1.10049
1.09922
1.09918
1.09897
1.09713
1.09511
1.0946
1.09421
1.09346
1.092
1.0904
1.08939
1.08857
1.08715
1.08539
1.08422
1.08305
1.08047
1.07519
1.07053
1.06845
1.06686
1.06512
1.06334
1.06195
1.06158
1.06181
1.06192
1.0612
1.05998
1.05871
1.05742
1.05588
1.0536
1.04989
1.04528
1.04277
1.0419
1.04128
1.0409
1.04103
1.04195
1.04201
1.04161
1.04101
1.04006
1.03862
1.03634
1.03281
1.03
1.02948
1.58077
1.57905
1.57208
1.55653
1.54356
1.53661
1.53519
1.53723
1.54416
1.55404
1.55995
1.55936
1.55726
1.55621
1.55463
1.55065
1.53999
1.5247
1.51746
1.51538
1.5144
1.51313
1.51171
1.51048
1.50885
1.50436
1.49675
1.49308
1.49132
1.49027
1.48779
1.4863
1.48662
1.4878
1.49002
1.49121
1.48884
1.47648
1.46081
1.45468
1.45234
1.45141
1.45335
1.4552
1.45553
1.45742
1.46012
1.46155
1.4612
1.45529
1.43929
1.42708
1.42263
1.42018
1.41994
1.42057
1.42241
1.42362
1.42344
1.42024
1.41066
1.40182
1.39979
1.40017
1.40476
1.40944
1.4097
1.40986
1.40916
1.40615
1.39969
1.38805
1.37056
1.35976
1.35771
1.35777
1.35795
1.35907
1.36357
1.37224
1.3814
1.3853
1.38503
1.38288
1.37779
1.36939
1.3602
1.35284
1.34593
1.33588
1.31948
1.30494
1.30083
1.30098
1.30161
1.30283
1.30645
1.31598
1.3357
1.35838
1.36682
1.36669
1.36465
1.35806
1.33937
1.30176
1.27279
1.26639
1.26546
1.2657
1.26775
1.27255
1.28091
1.29541
1.31553
1.32818
1.32984
1.32965
1.32881
1.32415
1.30975
1.279
1.24843
1.23884
1.23698
1.23675
1.23876
1.2482
1.26882
1.28906
1.29536
1.29629
1.2967
1.29638
1.29254
1.27842
1.25202
1.232
1.22634
1.22547
1.22746
1.23865
1.25212
1.25631
1.25784
1.25692
1.24796
1.2367
1.23345
1.23131
1.22856
1.22699
1.22683
1.22579
1.21988
1.21503
1.21476
1.21582
1.21752
1.21681
1.21244
1.2095
1.20835
1.20628
1.20239
1.19839
1.19426
1.18831
1.1849
1.18483
1.18516
1.18506
1.18354
1.1816
1.18042
1.17888
1.17663
1.17285
1.16719
1.16101
1.1545
1.14984
1.14966
1.15055
1.15142
1.15302
1.15601
1.15741
1.15714
1.15584
1.15183
1.14368
1.13215
1.12315
1.12134
1.12141
1.122
1.12273
1.12276
1.12194
1.12132
1.12083
1.11966
1.11697
1.11285
1.10819
1.10403
1.10092
1.10027
1.10046
1.10039
1.09873
1.09696
1.0965
1.09612
1.09532
1.09375
1.09213
1.09112
1.09011
1.08836
1.08673
1.08575
1.08448
1.08134
1.07589
1.0723
1.07061
1.069
1.06716
1.06536
1.06421
1.06404
1.06421
1.06421
1.06322
1.06183
1.06057
1.05929
1.05763
1.05507
1.05095
1.0466
1.04478
1.04408
1.04346
1.04313
1.0436
1.04463
1.04434
1.04354
1.04257
1.0414
1.03987
1.03746
1.03404
1.03218
1.03208
1.57894
1.56991
1.55645
1.54619
1.54071
1.54035
1.54446
1.55292
1.56172
1.56443
1.56215
1.5597
1.55811
1.55568
1.55146
1.54168
1.52735
1.51956
1.5169
1.51573
1.51519
1.5147
1.51384
1.51269
1.51002
1.50323
1.49651
1.49372
1.49204
1.49155
1.48969
1.48832
1.4886
1.48976
1.49108
1.48999
1.48105
1.466
1.4588
1.45656
1.4553
1.45622
1.45868
1.45811
1.45867
1.46064
1.46236
1.46262
1.45943
1.4459
1.43038
1.42519
1.42235
1.42065
1.42088
1.42213
1.42384
1.42425
1.42274
1.41556
1.40677
1.40393
1.40362
1.40629
1.40986
1.4096
1.40905
1.40777
1.40471
1.39916
1.39016
1.37557
1.36381
1.36089
1.36103
1.3613
1.36266
1.36766
1.3769
1.38531
1.38744
1.38641
1.38362
1.37804
1.36851
1.35766
1.34996
1.34396
1.33676
1.32518
1.3111
1.3044
1.30423
1.30462
1.30544
1.30886
1.31868
1.33892
1.36066
1.36785
1.36776
1.3664
1.361
1.34395
1.30739
1.27674
1.269
1.26742