/*--------------------------------*- C++ -*----------------------------------*\
  =========                 |
  \\      /  F ield         | OpenFOAM: The Open Source CFD Toolbox
   \\    /   O peration     | Website:  https://openfoam.org
    \\  /    A nd           | Version:  7
     \\/     M anipulation  |
\*---------------------------------------------------------------------------*/
FoamFile
{
    version     2.0;
    format      ascii;
    class       volScalarField;
    location    "2.2";
    object      T;
}
// * * * * * * * * * * * * * * * * * * * * * * * * * * * * * * * * * * * * * //

dimensions      [0 0 0 1 0 0 0];

internalField   nonuniform List<scalar> 
16192
(
1.4442
1.44481
1.44536
1.44611
1.44707
1.44795
1.44892
1.45005
1.45112
1.4517
1.45172
1.45158
1.45121
1.45055
1.44977
1.44916
1.44875
1.44848
1.44828
1.44809
1.44783
1.44739
1.44637
1.44456
1.44267
1.44151
1.44082
1.44037
1.43998
1.43963
1.43934
1.43905
1.43876
1.4385
1.43799
1.43672
1.43566
1.43536
1.43509
1.43483
1.43442
1.43378
1.43307
1.4323
1.43134
1.42997
1.42888
1.42886
1.42897
1.42899
1.42901
1.42896
1.4285
1.4277
1.42699
1.42639
1.42574
1.42541
1.42544
1.426
1.4274
1.42946
1.43106
1.43137
1.43117
1.43049
1.42958
1.42829
1.42741
1.42808
1.43021
1.43387
1.43878
1.44457
1.45016
1.45263
1.4529
1.45278
1.45194
1.45041
1.44824
1.44583
1.44476
1.4445
1.44444
1.44472
1.44585
1.44705
1.44738
1.44729
1.44663
1.44517
1.44304
1.44156
1.44126
1.44124
1.44132
1.44177
1.44288
1.4434
1.44348
1.44348
1.44272
1.44063
1.43829
1.43741
1.43716
1.43709
1.43745
1.43835
1.43858
1.43839
1.43802
1.43717
1.43596
1.4351
1.43483
1.43482
1.43512
1.43555
1.43586
1.43597
1.43566
1.43424
1.4324
1.43161
1.43123
1.43108
1.43148
1.43291
1.43395
1.434
1.43383
1.43349
1.43244
1.43097
1.43054
1.43061
1.43091
1.43148
1.43231
1.43264
1.4325
1.43191
1.43086
1.42977
1.42901
1.42884
1.43057
1.44685
1.53234
1.72287
1.83426
1.88961
1.89342
1.89119
1.88737
1.88746
1.8869
1.88413
1.88227
1.88226
1.88085
1.87896
1.87698
1.87469
1.87202
1.86935
1.86708
1.8648
1.86257
1.86072
1.85884
1.85712
1.85559
1.85485
1.85469
1.85404
1.85236
1.85051
1.84828
1.84501
1.84217
1.84065
1.8399
1.83998
1.84135
1.84333
1.84336
1.84276
1.84149
1.83992
1.83791
1.83562
1.83388
1.83252
1.83171
1.83169
1.83213
1.8319
1.83049
1.82879
1.82712
1.8252
1.82269
1.81958
1.81603
1.81192
1.80785
1.8052
1.80401
1.80355
1.80404
1.80499
1.80534
1.80473
1.8028
1.80068
1.79808
1.79425
1.7912
1.79011
1.78933
1.78862
1.78848
1.78839
1.78832
1.78849
1.78781
1.78615
1.78466
1.78321
1.78158
1.77986
1.77846
1.7763
1.77336
1.7701
1.76636
1.76226
1.75894
1.75763
1.75725
1.75689
1.75644
1.75633
1.75629
1.75461
1.75214
1.7488
1.74436
1.74135
1.74027
1.4424
1.44298
1.44352
1.44427
1.44529
1.44626
1.44738
1.44883
1.44991
1.45016
1.45015
1.44999
1.44956
1.44906
1.44874
1.44841
1.44807
1.44781
1.44761
1.44735
1.4469
1.44593
1.44417
1.4421
1.44097
1.44047
1.44005
1.43969
1.43938
1.43911
1.4389
1.43866
1.43841
1.43787
1.43655
1.43508
1.4346
1.4343
1.434
1.43373
1.43323
1.43259
1.43189
1.43112
1.43004
1.4283
1.42758
1.42767
1.42776
1.42772
1.42765
1.4274
1.42672
1.42592
1.42528
1.42468
1.42435
1.4244
1.42478
1.42595
1.42782
1.42914
1.42933
1.42922
1.4288
1.42791
1.4263
1.42465
1.42471
1.42561
1.42765
1.4315
1.43689
1.44469
1.45027
1.451
1.45106
1.45084
1.44968
1.44744
1.44493
1.44376
1.44344
1.44333
1.44379
1.4451
1.4462
1.44645
1.44629
1.44544
1.44372
1.44139
1.44005
1.43979
1.43979
1.43992
1.4407
1.44216
1.4429
1.44302
1.44304
1.44228
1.44008
1.43762
1.43667
1.43636
1.43624
1.43654
1.43746
1.43778
1.43764
1.43728
1.43638
1.4351
1.43424
1.43389
1.43384
1.43404
1.43423
1.4345
1.43472
1.43454
1.43337
1.43158
1.43084
1.43045
1.43022
1.43044
1.43159
1.43246
1.43243
1.43215
1.43182
1.43093
1.42966
1.42934
1.42949
1.42992
1.43063
1.43146
1.43171
1.43156
1.43102
1.43
1.42893
1.42843
1.42842
1.43142
1.46613
1.56678
1.74535
1.85588
1.88472
1.89377
1.89081
1.88758
1.88505
1.88504
1.88566
1.8854
1.88377
1.88065
1.87745
1.87578
1.8744
1.87303
1.87122
1.86823
1.86503
1.86246
1.85992
1.85828
1.85758
1.85694
1.8554
1.85341
1.85156
1.84968
1.84806
1.84636
1.84434
1.84209
1.84031
1.83912
1.83857
1.83921
1.84059
1.84084
1.84013
1.83911
1.83802
1.83588
1.8336
1.8313
1.82989
1.82934
1.83008
1.83176
1.83139
1.82935
1.82697
1.82449
1.82208
1.8201
1.81815
1.81589
1.81336
1.81085
1.80826
1.80556
1.80311
1.80139
1.8004
1.79979
1.79943
1.79921
1.79852
1.79675
1.79493
1.79269
1.78921
1.78629
1.78504
1.78415
1.78382
1.78461
1.78626
1.78649
1.78524
1.78286
1.7801
1.77819
1.77677
1.77512
1.77333
1.77253
1.77106
1.76817
1.7653
1.76249
1.75885
1.75477
1.75271
1.7522
1.7516
1.75068
1.75013
1.75017
1.74894
1.74643
1.74357
1.74025
1.73767
1.44065
1.44129
1.44183
1.44254
1.44361
1.44465
1.44571
1.4471
1.44814
1.44841
1.44841
1.44825
1.44797
1.44793
1.44785
1.44756
1.44725
1.44701
1.44675
1.44632
1.44544
1.44377
1.44167
1.44045
1.44
1.43964
1.43938
1.43921
1.43895
1.4387
1.43847
1.43822
1.43759
1.43616
1.43451
1.43385
1.43357
1.43326
1.43296
1.43267
1.43215
1.43152
1.43084
1.43
1.42849
1.42653
1.42623
1.42634
1.42638
1.42631
1.42613
1.42571
1.42502
1.4243
1.42369
1.42343
1.4235
1.42379
1.42463
1.42602
1.42708
1.4272
1.42715
1.42697
1.4264
1.42496
1.42294
1.42231
1.42267
1.42374
1.42599
1.4302
1.43608
1.44339
1.44795
1.44867
1.44877
1.44834
1.44645
1.44412
1.44311
1.44275
1.44262
1.4433
1.44463
1.44532
1.44537
1.44518
1.4442
1.44215
1.43964
1.43848
1.43828
1.43826
1.4385
1.43958
1.44139
1.44227
1.44235
1.44232
1.44156
1.43936
1.43692
1.43597
1.43561
1.43545
1.4357
1.43659
1.43699
1.43685
1.43649
1.43557
1.43428
1.43347
1.43306
1.43294
1.43302
1.43298
1.43304
1.43325
1.43317
1.43224
1.43057
1.42996
1.42973
1.4295
1.42962
1.4305
1.43117
1.43102
1.43054
1.43011
1.42928
1.42825
1.42807
1.42833
1.42895
1.42983
1.43064
1.43076
1.43054
1.42988
1.4289
1.42803
1.42787
1.42808
1.43201
1.47504
1.63144
1.77172
1.87351
1.88909
1.89137
1.89006
1.88799
1.88557
1.88657
1.88741
1.88625
1.88391
1.88074
1.87689
1.87519
1.87357
1.87218
1.8709
1.86927
1.86674
1.86335
1.86068
1.85844
1.85728
1.85744
1.85726
1.85501
1.85195
1.8484
1.84522
1.84298
1.84156
1.84044
1.83962
1.83887
1.83853
1.83855
1.83841
1.83753
1.83643
1.83549
1.83461
1.83433
1.83371
1.83161
1.82899
1.82757
1.82742
1.82893
1.82968
1.82822
1.82602
1.82338
1.82016
1.81705
1.8147
1.81274
1.81079
1.8094
1.8083
1.80668
1.8052
1.80339
1.80066
1.79745
1.79533
1.79411
1.7931
1.79238
1.79161
1.79041
1.78914
1.78735
1.78437
1.78193
1.78089
1.7808
1.78174
1.78286
1.78277
1.78159
1.77995
1.77742
1.77436
1.77235
1.77089
1.76916
1.76779
1.76755
1.76618
1.76302
1.76047
1.75826
1.755
1.75026
1.7472
1.74639
1.74558
1.74438
1.74348
1.74358
1.74305
1.74098
1.73891
1.73665
1.43913
1.43981
1.44029
1.4409
1.44181
1.44278
1.44366
1.44488
1.44611
1.44655
1.44661
1.44653
1.44667
1.44693
1.44684
1.44658
1.44633
1.44607
1.44566
1.44487
1.44336
1.44127
1.43993
1.43951
1.43917
1.43894
1.43891
1.43875
1.43847
1.43821
1.4379
1.43718
1.43564
1.43385
1.4331
1.43282
1.43265
1.4324
1.43204
1.43166
1.43116
1.43055
1.42975
1.42848
1.42642
1.42488
1.4249
1.42502
1.42503
1.42493
1.4247
1.42424
1.42359
1.42298
1.42261
1.42267
1.42289
1.42334
1.42407
1.42479
1.42501
1.42499
1.4249
1.42458
1.4236
1.42184
1.42068
1.42066
1.42111
1.42271
1.42576
1.42982
1.43423
1.43996
1.44463
1.44591
1.44595
1.44504
1.44314
1.44235
1.4421
1.44217
1.44329
1.44448
1.44457
1.4445
1.44404
1.44274
1.44034
1.43781
1.43691
1.4368
1.43685
1.43722
1.43852
1.4406
1.44148
1.44147
1.4413
1.44045
1.43829
1.43605
1.43525
1.43491
1.43473
1.43496
1.43582
1.43622
1.43603
1.43556
1.4346
1.43336
1.43266
1.43228
1.43208
1.43211
1.43191
1.43165
1.43169
1.43161
1.4309
1.42938
1.42887
1.42887
1.42881
1.42895
1.42966
1.43014
1.42986
1.42913
1.42851
1.42761
1.42676
1.42668
1.42705
1.42787
1.42894
1.42975
1.42982
1.42949
1.42866
1.42758
1.42664
1.42662
1.42731
1.43563
1.48296
1.65044
1.80963
1.88024
1.89731
1.89141
1.88719
1.8857
1.88848
1.88848
1.88781
1.88785
1.88584
1.88149
1.8779
1.8736
1.8712
1.87046
1.86982
1.86859
1.86666
1.86432
1.86156
1.85933
1.8577
1.85755
1.85799
1.85693
1.85367
1.85028
1.84569
1.84108
1.83915
1.83832
1.83771
1.83772
1.83864
1.83909
1.83763
1.83512
1.83265
1.83055
1.82961
1.82943
1.82973
1.8302
1.82981
1.82819
1.82684
1.82665
1.82692
1.82607
1.82459
1.8226
1.81989
1.8163
1.8125
1.80988
1.80787
1.80605
1.8047
1.80459
1.80455
1.80353
1.80194
1.79999
1.79679
1.79219
1.78888
1.78742
1.78622
1.78524
1.78484
1.78439
1.7836
1.78234
1.78044
1.77904
1.77875
1.77866
1.77831
1.77757
1.7769
1.77611
1.77504
1.77285
1.76976
1.76747
1.76582
1.76409
1.76282
1.76227
1.76043
1.7575
1.75541
1.75349
1.75041
1.74535
1.74163
1.74042
1.73944
1.73813
1.73753
1.73828
1.73843
1.73689
1.73488
1.43778
1.43828
1.43856
1.43892
1.43965
1.44055
1.44138
1.44251
1.44405
1.44461
1.44476
1.44495
1.4456
1.44587
1.44575
1.44555
1.4453
1.44492
1.44422
1.44288
1.4409
1.4394
1.43897
1.4387
1.43846
1.43837
1.43832
1.4381
1.43787
1.43754
1.43672
1.43509
1.43323
1.43241
1.4321
1.43195
1.43195
1.43162
1.43112
1.43069
1.43018
1.42947
1.42815
1.42636
1.42441
1.42364
1.42374
1.42385
1.42382
1.42372
1.42359
1.4232
1.42256
1.42215
1.42185
1.42181
1.4219
1.42214
1.42249
1.42277
1.42283
1.42279
1.4226
1.42199
1.4208
1.4195
1.41919
1.41938
1.42033
1.42284
1.42586
1.42816
1.43114
1.43546
1.43986
1.44215
1.44235
1.44178
1.44141
1.44139
1.44202
1.44362
1.44448
1.44422
1.44378
1.44291
1.4413
1.43861
1.43606
1.43532
1.43527
1.43543
1.43602
1.43757
1.43978
1.44054
1.44043
1.44003
1.43906
1.43689
1.43488
1.43438
1.43418
1.43405
1.43433
1.43519
1.43554
1.43527
1.4346
1.43348
1.43225
1.43171
1.43143
1.43121
1.43122
1.43105
1.4305
1.43025
1.43005
1.42941
1.42808
1.42758
1.42772
1.42794
1.42829
1.42895
1.42928
1.42893
1.42798
1.42709
1.42607
1.4253
1.42527
1.42571
1.42669
1.42796
1.42875
1.42877
1.42833
1.42734
1.42619
1.42536
1.42538
1.42635
1.44255
1.52241
1.6729
1.83437
1.87721
1.89543
1.89236
1.8893
1.88572
1.88518
1.88564
1.88855
1.8888
1.88777
1.88403
1.87904
1.87552
1.87199
1.86891
1.86774
1.86676
1.86545
1.86357
1.86164
1.86007
1.8586
1.85774
1.85725
1.85615
1.85371
1.85095
1.84794
1.84394
1.8398
1.83749
1.83641
1.83629
1.83783
1.83889
1.83767
1.83467
1.83119
1.82755
1.82473
1.82382
1.82388
1.8245
1.82641
1.82756
1.82728
1.82676
1.8261
1.82487
1.82314
1.82121
1.81898
1.81621
1.81285
1.80913
1.806
1.8037
1.80196
1.80076
1.80038
1.80076
1.80077
1.79962
1.79749
1.79497
1.79135
1.78588
1.78185
1.78042
1.77934
1.77856
1.77846
1.77919
1.77935
1.77899
1.77805
1.77664
1.77515
1.77358
1.77213
1.77145
1.77152
1.77153
1.77067
1.7688
1.76579
1.76308
1.76108
1.75914
1.75732
1.75607
1.7544
1.7521
1.75035
1.74852
1.7455
1.74057
1.73668
1.7352
1.73419
1.7335
1.73408
1.73555
1.73489
1.73267
1.43624
1.43651
1.43647
1.43664
1.43731
1.43822
1.43914
1.44025
1.44186
1.44269
1.44299
1.4436
1.44452
1.44464
1.44455
1.44436
1.44407
1.4435
1.44235
1.44052
1.43891
1.43837
1.43812
1.43797
1.43782
1.43766
1.43749
1.43732
1.43709
1.43633
1.43458
1.43264
1.43181
1.43148
1.43128
1.43134
1.43127
1.43075
1.43022
1.42971
1.42906
1.4278
1.42582
1.42425
1.423
1.42269
1.4228
1.42289
1.42286
1.42288
1.42282
1.42239
1.42149
1.42093
1.42072
1.42045
1.42036
1.42045
1.42068
1.42082
1.42081
1.42068
1.42031
1.41956
1.41858
1.41816
1.41823
1.41884
1.42045
1.4226
1.42423
1.42554
1.42743
1.43055
1.43439
1.43756
1.43902
1.43973
1.44034
1.44168
1.44393
1.44462
1.44413
1.44327
1.44196
1.44003
1.43702
1.4345
1.43388
1.43386
1.43409
1.43492
1.43673
1.43891
1.4395
1.43927
1.43863
1.43751
1.43532
1.43351
1.43324
1.43326
1.4333
1.4338
1.43472
1.43497
1.43456
1.43367
1.43232
1.431
1.43058
1.43042
1.43026
1.43025
1.43019
1.42963
1.42909
1.42868
1.42798
1.42673
1.42618
1.42638
1.42683
1.42743
1.42815
1.42844
1.42809
1.42703
1.42589
1.4247
1.4239
1.42389
1.42435
1.42541
1.42682
1.42763
1.42762
1.42713
1.42598
1.42464
1.42378
1.42387
1.42523
1.44178
1.55975
1.72872
1.85298
1.89354
1.89001
1.89251
1.89221
1.88831
1.88833
1.88875
1.88744
1.88689
1.88588
1.88368
1.8804
1.8769
1.87372
1.87077
1.86764
1.86543
1.86412
1.86276
1.86109
1.85968
1.85933
1.85899
1.85719
1.85467
1.85196
1.84927
1.84655
1.84386
1.84142
1.83927
1.83734
1.83614
1.83603
1.83645
1.83578
1.83379
1.83102
1.8274
1.82351
1.8204
1.81901
1.81907
1.81966
1.82169
1.82458
1.82514
1.82499
1.82455
1.82324
1.82129
1.81879
1.81588
1.8129
1.80987
1.80669
1.80333
1.80052
1.79853
1.79724
1.7966
1.79673
1.79712
1.79681
1.79465
1.79183
1.78891
1.78489
1.77904
1.77525
1.7742
1.77365
1.77355
1.77481
1.77683
1.77739
1.77677
1.77468
1.77157
1.76914
1.76762
1.76649
1.76613
1.76668
1.7672
1.76669
1.76499
1.76198
1.75855
1.75587
1.75369
1.75148
1.74962
1.748
1.74628
1.7448
1.74319
1.74063
1.73652
1.73303
1.73155
1.73084
1.73102
1.73135
1.73146
1.7302
1.43446
1.43434
1.43402
1.43426
1.43501
1.43593
1.43693
1.43817
1.43968
1.44081
1.44147
1.44231
1.44315
1.44323
1.44317
1.443
1.44263
1.44176
1.44014
1.43847
1.43779
1.43749
1.43733
1.4373
1.43703
1.43676
1.4366
1.43645
1.43587
1.43423
1.43211
1.43126
1.43096
1.43072
1.43068
1.43081
1.43045
1.42984
1.42926
1.42856
1.42728
1.4253
1.42363
1.42283
1.42213
1.42199
1.42207
1.42215
1.42227
1.42231
1.42205
1.42113
1.41976
1.41916
1.41907
1.41888
1.41873
1.41883
1.41902
1.41907
1.41902
1.41874
1.41816
1.4175
1.41723
1.41727
1.41767
1.41863
1.4198
1.42091
1.42178
1.42236
1.42342
1.42584
1.42934
1.43311
1.43624
1.43841
1.44076
1.44361
1.44445
1.44401
1.44291
1.44137
1.43926
1.43599
1.43319
1.43253
1.43251
1.43273
1.4338
1.43591
1.43796
1.43838
1.43805
1.43724
1.43592
1.43367
1.43208
1.43191
1.43208
1.4324
1.43327
1.43429
1.43445
1.43392
1.43279
1.43121
1.42969
1.4293
1.42924
1.4292
1.42921
1.42925
1.42886
1.42824
1.42764
1.42678
1.42549
1.42482
1.42496
1.42547
1.42628
1.42713
1.42741
1.42711
1.42611
1.42482
1.42342
1.42254
1.42252
1.42296
1.42408
1.42558
1.42639
1.42635
1.42586
1.42469
1.42321
1.4222
1.42237
1.42502
1.4474
1.56092
1.76519
1.86501
1.90475
1.90216
1.89156
1.88618
1.88952
1.89136
1.89085
1.89115
1.88697
1.88339
1.88139
1.87836
1.87556
1.87373
1.87201
1.86973
1.86706
1.86422
1.86201
1.86049
1.85943
1.85941
1.85979
1.85827
1.85516
1.85149
1.84748
1.84392
1.84128
1.83929
1.83831
1.83831
1.83853
1.83781
1.83573
1.833
1.83069
1.82899
1.82671
1.82376
1.82088
1.81821
1.81579
1.81545
1.81595
1.81733
1.81953
1.82154
1.82195
1.82191
1.8211
1.81937
1.81685
1.81358
1.81018
1.80732
1.80479
1.80197
1.79888
1.79637
1.79451
1.79347
1.79315
1.79271
1.79183
1.79036
1.78779
1.78498
1.78212
1.77835
1.77353
1.77083
1.77
1.76998
1.77184
1.77373
1.7739
1.77319
1.77165
1.76887
1.76538
1.7633
1.76205
1.76132
1.76128
1.76237
1.76318
1.76278
1.76115
1.75802
1.75369
1.75006
1.7477
1.74536
1.743
1.7413
1.74026
1.73905
1.7378
1.73606
1.73336
1.73065
1.72924
1.72847
1.72797
1.727
1.72586
1.43246
1.43175
1.43161
1.432
1.43281
1.43376
1.43488
1.43622
1.43768
1.43899
1.43988
1.44067
1.44145
1.44165
1.44161
1.44145
1.44092
1.43969
1.43807
1.43724
1.43688
1.43665
1.43667
1.43651
1.43613
1.43589
1.4357
1.43517
1.4338
1.43179
1.43077
1.4305
1.43028
1.43009
1.43016
1.43007
1.42951
1.42886
1.42811
1.4268
1.42469
1.42301
1.42235
1.42196
1.42151
1.42147
1.42153
1.42166
1.42176
1.42158
1.42072
1.41908
1.41774
1.41743
1.41735
1.41735
1.41733
1.41744
1.41762
1.41768
1.4176
1.41719
1.41651
1.41624
1.41627
1.41646
1.41687
1.41739
1.41802
1.41862
1.41899
1.419
1.4197
1.42175
1.42512
1.42933
1.43381
1.43838
1.44225
1.44343
1.44332
1.44252
1.44104
1.43891
1.43557
1.43242
1.43148
1.43142
1.43156
1.43272
1.43501
1.43685
1.43714
1.43678
1.43591
1.43436
1.43204
1.43064
1.43054
1.43076
1.43133
1.43261
1.4338
1.43391
1.43329
1.43199
1.43012
1.42837
1.42794
1.42792
1.42797
1.42815
1.42824
1.42805
1.42758
1.42691
1.42586
1.42446
1.42366
1.42368
1.42403
1.4249
1.42585
1.42611
1.42584
1.42503
1.42372
1.42213
1.42116
1.42111
1.42152
1.42266
1.42424
1.42509
1.42507
1.42464
1.42347
1.42184
1.42061
1.42073
1.42497
1.46947
1.58883
1.78195
1.87583
1.90391
1.90798
1.90183
1.89004
1.88648
1.88684
1.88932
1.89186
1.89177
1.88764
1.88193
1.87669
1.87355
1.87201
1.87067
1.86934
1.86793
1.86597
1.86358
1.86121
1.85932
1.85863
1.85883
1.85785
1.85547
1.85249
1.84822
1.84341
1.84017
1.83788
1.83662
1.83702
1.8389
1.83958
1.83806
1.83529
1.83138
1.82642
1.8233
1.82178
1.82024
1.81851
1.81658
1.81411
1.81244
1.81247
1.81296
1.81433
1.81693
1.81869
1.81883
1.81831
1.81676
1.81409
1.81064
1.80694
1.80418
1.80222
1.80019
1.79791
1.7957
1.79354
1.79122
1.78937
1.788
1.78633
1.78429
1.78227
1.78027
1.77797
1.7758
1.77312
1.77021
1.76862
1.76812
1.76867
1.76952
1.76948
1.76869
1.76747
1.76563
1.76263
1.75971
1.75812
1.75711
1.75661
1.75672
1.75815
1.75905
1.75854
1.75671
1.75349
1.74851
1.74385
1.74106
1.73874
1.73648
1.73504
1.73481
1.73417
1.73325
1.7323
1.73067
1.72787
1.72548
1.72437
1.72318
1.72153
1.42989
1.42933
1.42942
1.42991
1.43075
1.4318
1.43304
1.43431
1.43561
1.43697
1.43796
1.43872
1.43952
1.43983
1.4398
1.43958
1.43887
1.43758
1.43666
1.43624
1.43598
1.43596
1.43595
1.43559
1.43532
1.43507
1.43443
1.43307
1.43142
1.43048
1.43012
1.42986
1.42966
1.42952
1.42948
1.4291
1.42852
1.42777
1.42645
1.42429
1.42239
1.4218
1.42159
1.42134
1.42106
1.421
1.42105
1.42112
1.42099
1.42016
1.41841
1.41668
1.41606
1.4159
1.41587
1.41603
1.41626
1.41643
1.41664
1.41671
1.41652
1.41592
1.41525
1.41501
1.41501
1.41509
1.41531
1.41563
1.41603
1.41625
1.41602
1.41604
1.41679
1.41847
1.42173
1.42619
1.43213
1.43869
1.44142
1.44162
1.44147
1.44065
1.43885
1.43567
1.43226
1.4309
1.43065
1.4307
1.43181
1.43406
1.43561
1.43578
1.43544
1.43453
1.43278
1.43044
1.42931
1.42924
1.42943
1.43018
1.43183
1.43315
1.4332
1.43262
1.43122
1.42907
1.42707
1.42655
1.42653
1.42662
1.42705
1.42725
1.42717
1.42695
1.42638
1.42519
1.42362
1.42272
1.42264
1.42275
1.4235
1.42438
1.42455
1.42431
1.42365
1.42239
1.42069
1.41969
1.41962
1.41998
1.42115
1.42285
1.4238
1.42383
1.42352
1.42243
1.42066
1.41917
1.41921
1.42388
1.47988
1.65733
1.8028
1.89459
1.90424
1.90178
1.90112
1.8966
1.89118
1.88877
1.88965
1.88966
1.88943
1.88836
1.88491
1.87961
1.87434
1.87071
1.86895
1.86783
1.86691
1.86586
1.86462
1.86311
1.86149
1.85985
1.85791
1.85608
1.8541
1.85204
1.84892
1.84472
1.84083
1.83793
1.83596
1.83596
1.83782
1.83847
1.83704
1.83475
1.83203
1.82877
1.82453
1.82042
1.81828
1.8171
1.81603
1.81495
1.81319
1.81071
1.80927
1.80923
1.80988
1.81244
1.81463
1.81464
1.81422
1.81268
1.80976
1.8062
1.80282
1.80055
1.79908
1.79778
1.7971
1.79592
1.79359
1.79071
1.78675
1.78299
1.7806
1.77847
1.77605
1.77398
1.77308
1.7716
1.7703
1.76935
1.76834
1.76711
1.76603
1.76533
1.76478
1.76416
1.76307
1.76172
1.75973
1.75677
1.75444
1.75321
1.7524
1.75204
1.75245
1.7544
1.75505
1.75395
1.75175
1.74837
1.74291
1.73761
1.73462
1.7326
1.73083
1.73041
1.73112
1.73111
1.73007
1.72896
1.72725
1.72372
1.72035
1.71891
1.71755
1.42749
1.42739
1.42755
1.42809
1.42898
1.43011
1.43126
1.43224
1.43332
1.43473
1.43585
1.43657
1.43735
1.43771
1.43767
1.43739
1.43669
1.43594
1.43551
1.43522
1.43523
1.43535
1.43503
1.43474
1.4345
1.43383
1.43235
1.43076
1.4301
1.42983
1.4295
1.4292
1.42897
1.42882
1.42855
1.42811
1.42748
1.4262
1.42404
1.42205
1.42129
1.42107
1.42103
1.42088
1.42065
1.42053
1.42045
1.42028
1.41941
1.41754
1.41567
1.41494
1.41469
1.41461
1.41472
1.4153
1.41555
1.4157
1.41585
1.41574
1.41511
1.41414
1.4136
1.41336
1.41334
1.41341
1.41367
1.41401
1.41414
1.41397
1.41351
1.4138
1.41446
1.41578
1.41887
1.42373
1.43009
1.43676
1.43911
1.43957
1.43948
1.43843
1.43587
1.43265
1.43089
1.43042
1.43037
1.43128
1.43318
1.43426
1.43433
1.43403
1.43307
1.43105
1.42883
1.42806
1.42803
1.42821
1.42912
1.43099
1.43229
1.43229
1.43172
1.43033
1.42802
1.42581
1.42518
1.42512
1.4252
1.42579
1.42634
1.42633
1.42629
1.42591
1.42466
1.42295
1.42195
1.42173
1.42173
1.42228
1.42292
1.42293
1.42265
1.42203
1.42081
1.41907
1.41806
1.418
1.41833
1.41951
1.42135
1.42251
1.42262
1.42247
1.42155
1.4197
1.41794
1.41797
1.42439
1.47995
1.67987
1.84101
1.90236
1.9113
1.9049
1.89644
1.89561
1.89767
1.89581
1.8927
1.88936
1.88678
1.8853
1.8836
1.8803
1.87645
1.8732
1.8698
1.86737
1.86567
1.86452
1.86381
1.86338
1.86302
1.86217
1.85971
1.85655
1.85309
1.85017
1.84709
1.8446
1.84216
1.83945
1.83682
1.83598
1.83618
1.83616
1.83439
1.83246
1.83046
1.82795
1.82508
1.82223
1.81928
1.81648
1.81475
1.81375
1.81278
1.81134
1.80942
1.80749
1.80638
1.80652
1.80801
1.8099
1.80974
1.809
1.80736
1.80472
1.80154
1.79878
1.7972
1.79623
1.79601
1.79637
1.7956
1.79319
1.79027
1.78605
1.7802
1.77541
1.7727
1.77058
1.76839
1.76722
1.76765
1.76802
1.76774
1.76729
1.76646
1.76446
1.76228
1.76103
1.76003
1.75912
1.7579
1.75651
1.7543
1.75128
1.7493
1.74835
1.74793
1.74799
1.74872
1.75011
1.75025
1.7488
1.7466
1.74299
1.73729
1.73228
1.72976
1.72812
1.72721
1.72784
1.72856
1.72744
1.72596
1.72467
1.72266
1.71881
1.71525
1.71348
1.42582
1.42583
1.42597
1.42654
1.42748
1.42849
1.42931
1.43001
1.43095
1.43242
1.43359
1.43422
1.43489
1.43535
1.43533
1.43514
1.43483
1.43456
1.43429
1.43434
1.43467
1.43447
1.43412
1.43385
1.43324
1.43183
1.43014
1.42949
1.4293
1.42917
1.42883
1.42849
1.42821
1.42793
1.42755
1.42706
1.42597
1.42388
1.42183
1.42102
1.4207
1.42059
1.4206
1.42042
1.42017
1.41993
1.41959
1.4186
1.4166
1.41464
1.4139
1.41365
1.41356
1.4137
1.41436
1.4149
1.41489
1.41497
1.41487
1.41405
1.41275
1.41202
1.41172
1.41165
1.41168
1.41184
1.41221
1.41251
1.41247
1.41191
1.41164
1.41199
1.4126
1.41385
1.41673
1.42111
1.42664
1.43314
1.43651
1.43722
1.43692
1.43546
1.4331
1.43128
1.43065
1.4306
1.4314
1.43259
1.43296
1.43299
1.43265
1.43146
1.42915
1.42723
1.4268
1.42683
1.42709
1.42816
1.43015
1.4313
1.43121
1.43059
1.42923
1.42687
1.42454
1.4238
1.42369
1.42375
1.42442
1.42535
1.42555
1.42562
1.42538
1.42416
1.42233
1.4213
1.42097
1.42089
1.42122
1.42162
1.42145
1.42099
1.4203
1.41907
1.41729
1.41632
1.41626
1.41658
1.41777
1.41969
1.42109
1.42137
1.42135
1.42071
1.4189
1.41689
1.41707
1.42972
1.50159
1.67635
1.8619
1.90782
1.91555
1.90996
1.90066
1.89511
1.89386
1.89456
1.89627
1.89431
1.89079
1.8856
1.88119
1.87884
1.87696
1.87486
1.87229
1.86951
1.86676
1.86449
1.86306
1.86231
1.86222
1.86253
1.86148
1.85874
1.85483
1.85013
1.84585
1.84334
1.84135
1.83977
1.83858
1.83759
1.83668
1.83486
1.8321
1.8296
1.82702
1.82476
1.82274
1.82121
1.81977
1.81767
1.81547
1.81298
1.81115
1.81
1.8086
1.80725
1.80631
1.80517
1.80386
1.80356
1.80419
1.80426
1.80377
1.8021
1.79968
1.79729
1.7958
1.79502
1.79499
1.79516
1.7945
1.79279
1.79059
1.78796
1.7846
1.77984
1.77391
1.76897
1.76623
1.76452
1.76335
1.76384
1.76554
1.76539
1.76459
1.76389
1.7627
1.76018
1.75783
1.75649
1.75548
1.7545
1.75333
1.75186
1.74943
1.74664
1.74509
1.74442
1.74421
1.74414
1.74391
1.74409
1.74446
1.74332
1.74121
1.73781
1.73292
1.72844
1.72606
1.72471
1.72416
1.72383
1.72335
1.72223
1.721
1.71958
1.71751
1.71411
1.7108
1.42467
1.42464
1.42471
1.42515
1.42597
1.42672
1.42726
1.42785
1.42879
1.43017
1.43115
1.43174
1.43231
1.4328
1.43289
1.4331
1.43316
1.43304
1.43309
1.43371
1.43384
1.43348
1.43312
1.43256
1.43131
1.42955
1.42883
1.42862
1.42854
1.42847
1.42807
1.42769
1.42736
1.42697
1.4265
1.42552
1.42364
1.42165
1.42081
1.42048
1.42029
1.42024
1.42017
1.41993
1.4196
1.4191
1.41794
1.41577
1.41368
1.41291
1.41269
1.41264
1.41282
1.41353
1.41421
1.41419
1.41417
1.41394
1.413
1.4115
1.41056
1.41014
1.40994
1.40999
1.41028
1.4106
1.411
1.41116
1.41088
1.4102
1.41024
1.41061
1.41128
1.41241
1.41447
1.41797
1.42254
1.42792
1.43268
1.43411
1.43388
1.43285
1.43155
1.43113
1.43121
1.43204
1.43243
1.43222
1.4319
1.43117
1.42974
1.42726
1.42561
1.42542
1.42554
1.42596
1.42725
1.42929
1.43021
1.43005
1.42934
1.42796
1.42556
1.4232
1.42237
1.42219
1.42223
1.42296
1.42423
1.4247
1.42488
1.42473
1.4236
1.42171
1.42068
1.4203
1.42013
1.42032
1.42053
1.42019
1.41949
1.41866
1.41738
1.41555
1.41456
1.41448
1.41475
1.41589
1.41789
1.41951
1.41999
1.42006
1.41973
1.41814
1.41601
1.41627
1.43183
1.54836
1.71432
1.85711
1.91338
1.9136
1.9094
1.90307
1.89581
1.89392
1.89414
1.8931
1.89343
1.89243
1.88855
1.88341
1.87882
1.87584
1.87373
1.87225
1.87077
1.86918
1.86687
1.86425
1.86243
1.86208
1.86164
1.86011
1.85848
1.85635
1.85243
1.84704
1.84319
1.84019
1.83816
1.83813
1.83926
1.83913
1.83667
1.83288
1.82887
1.8251
1.82196
1.81965
1.81783
1.81671
1.81672
1.81567
1.81356
1.81134
1.80896
1.80738
1.80615
1.80552
1.80545
1.80433
1.80175
1.79977
1.79899
1.79872
1.79831
1.79758
1.79627
1.79502
1.79454
1.7949
1.79441
1.79228
1.79022
1.78838
1.78651
1.78432
1.78169
1.77851
1.77436
1.76906
1.76435
1.76203
1.76086
1.76076
1.76167
1.76218
1.7613
1.76037
1.75935
1.75755
1.75473
1.75276
1.75141
1.75026
1.74958
1.74873
1.74745
1.74526
1.7428
1.7415
1.74078
1.73991
1.73879
1.73789
1.7378
1.73839
1.73781
1.73585
1.73313
1.72934
1.72513
1.7225
1.72118
1.71996
1.71868
1.71753
1.71659
1.7154
1.71398
1.71229
1.70982
1.42373
1.42361
1.42359
1.42382
1.42438
1.42492
1.42537
1.42599
1.42697
1.428
1.4287
1.42922
1.42963
1.43004
1.43062
1.43109
1.43126
1.43148
1.43228
1.43294
1.43276
1.43236
1.43184
1.43075
1.42896
1.42809
1.42788
1.42772
1.42772
1.4277
1.42727
1.42683
1.42643
1.42593
1.4249
1.4231
1.42133
1.42057
1.42023
1.42
1.41992
1.41987
1.41971
1.41942
1.41891
1.41764
1.41525
1.41289
1.41202
1.41182
1.41178
1.41199
1.41271
1.4134
1.41339
1.41329
1.41297
1.412
1.41041
1.40933
1.40878
1.40845
1.40842
1.40877
1.40929
1.40969
1.41004
1.41
1.40929
1.40892
1.40901
1.40932
1.40982
1.41049
1.41188
1.41451
1.41784
1.42201
1.42739
1.43078
1.43144
1.43115
1.4311
1.43166
1.43268
1.43265
1.43204
1.43108
1.42987
1.42816
1.42559
1.42406
1.42394
1.42412
1.42472
1.42631
1.42838
1.42912
1.42892
1.42816
1.4267
1.42418
1.42183
1.42089
1.42062
1.42062
1.42139
1.42293
1.42367
1.42395
1.42391
1.42292
1.42103
1.42003
1.41965
1.41943
1.41952
1.41964
1.41919
1.41824
1.41723
1.41585
1.41394
1.41281
1.4127
1.4129
1.41388
1.41594
1.41777
1.41845
1.41866
1.41853
1.41728
1.41518
1.41571
1.43309
1.55361
1.7709
1.86933
1.90644
1.91349
1.91122
1.90894
1.90572
1.90015
1.89594
1.89243
1.88945
1.88884
1.88817
1.88539
1.88143
1.87727
1.87377
1.87196
1.87003
1.8689
1.86797
1.86671
1.86464
1.86267
1.85978
1.85748
1.85599
1.85467
1.85234
1.84843
1.84471
1.84119
1.83812
1.83709
1.83794
1.83857
1.83723
1.8353
1.83189
1.82639
1.82171
1.81817
1.81545
1.81362
1.8126
1.8123
1.81212
1.81078
1.80896
1.80719
1.80563
1.8048
1.80424
1.80358
1.80197
1.79915
1.79609
1.79451
1.79417
1.79355
1.7936
1.79416
1.79459
1.79514
1.7946
1.79191
1.78876
1.78568
1.78334
1.78135
1.77936
1.77785
1.77571
1.77288
1.76956
1.7655
1.76166
1.7596
1.75848
1.75816
1.75808
1.75742
1.75607
1.75486
1.75322
1.75075
1.7486
1.74715
1.74585
1.74535
1.74548
1.74537
1.74424
1.7419
1.73877
1.73659
1.73538
1.73416
1.73289
1.73184
1.73172
1.73257
1.7327
1.73133
1.72889
1.72566
1.721
1.71754
1.71624
1.71497
1.71333
1.71159
1.71055
1.70969
1.70826
1.70705
1.42278
1.42253
1.42242
1.42258
1.42297
1.42338
1.42383
1.42453
1.42532
1.42591
1.42639
1.42653
1.42656
1.42737
1.42822
1.42882
1.42941
1.43046
1.43163
1.43175
1.43151
1.43106
1.43013
1.42838
1.4272
1.42697
1.4268
1.42671
1.42695
1.42689
1.42643
1.42593
1.42538
1.42435
1.42246
1.4207
1.4201
1.41986
1.41962
1.41953
1.41951
1.41944
1.41926
1.41885
1.41767
1.41525
1.41254
1.41137
1.41108
1.41102
1.4112
1.41183
1.41241
1.41238
1.41229
1.41193
1.41096
1.40937
1.40826
1.40765
1.40722
1.40716
1.40747
1.40813
1.40853
1.40887
1.40893
1.40834
1.40753
1.40742
1.40745
1.40755
1.40786
1.40835
1.40913
1.4108
1.41339
1.41701
1.42215
1.42718
1.42943
1.4305
1.43153
1.43244
1.43254
1.432
1.43071
1.42907
1.42702
1.42433
1.42267
1.42247
1.42265
1.42341
1.42528
1.42738
1.42799
1.42784
1.42713
1.42553
1.42285
1.42057
1.41953
1.41906
1.419
1.41973
1.42142
1.42237
1.42274
1.42278
1.42197
1.42016
1.41926
1.41897
1.41875
1.41879
1.41888
1.41848
1.41733
1.41609
1.41457
1.41254
1.41115
1.41096
1.41106
1.41178
1.41375
1.41586
1.4168
1.41717
1.41717
1.41631
1.41433
1.41594
1.44113
1.55892
1.78215
1.88491
1.91306
1.91171
1.90721
1.90477
1.90361
1.90262
1.89923
1.89518
1.89291
1.88756
1.88398
1.8825
1.88077
1.87912
1.87657
1.87286
1.87065
1.86908
1.86698
1.86583
1.86476
1.86326
1.86097
1.85736
1.85384
1.85149
1.84944
1.84714
1.84519
1.8428
1.83983
1.83783
1.83755
1.83699
1.8345
1.83305
1.83197
1.82992
1.82606
1.82105
1.81636
1.81252
1.81014
1.80892
1.80812
1.80729
1.80691
1.80655
1.80587
1.80468
1.80315
1.80149
1.80015
1.79841
1.79595
1.79264
1.79034
1.78999
1.78999
1.79088
1.79355
1.79558
1.7951
1.79291
1.78946
1.78558
1.78166
1.77865
1.77649
1.7742
1.77252
1.77206
1.77063
1.7682
1.76573
1.76288
1.7596
1.75697
1.75546
1.75445
1.75298
1.75108
1.74939
1.74773
1.74584
1.74416
1.74288
1.74198
1.74198
1.74271
1.74315
1.74258
1.74081
1.73766
1.73333
1.73067
1.72942
1.72822
1.727
1.72651
1.72711
1.72898
1.7291
1.72726
1.72473
1.72134
1.71594
1.71213
1.71076
1.70937
1.70743
1.70543
1.70485
1.70468
1.7037
1.42171
1.42137
1.42128
1.42152
1.42189
1.42222
1.42267
1.42326
1.42373
1.424
1.42395
1.42347
1.42368
1.42467
1.42565
1.4266
1.42807
1.4299
1.43048
1.43044
1.4302
1.42946
1.42783
1.4262
1.42584
1.42569
1.42558
1.42575
1.42627
1.42601
1.4255
1.4249
1.42382
1.42191
1.42004
1.41936
1.41917
1.41907
1.41896
1.41897
1.41899
1.41896
1.41875
1.41789
1.41568
1.41281
1.41119
1.41057
1.4104
1.41048
1.41095
1.41125
1.41124
1.41122
1.41085
1.40985
1.40829
1.40725
1.40667
1.40621
1.40615
1.40646
1.40717
1.40747
1.40764
1.40773
1.4073
1.40603
1.40559
1.40558
1.40556
1.40556
1.40565
1.40621
1.40714
1.4085
1.41045
1.41332
1.41782
1.42333
1.42749
1.43028
1.43128
1.43139
1.43128
1.43048
1.42885
1.42655
1.4236
1.42158
1.42119
1.42128
1.42211
1.42413
1.42624
1.42681
1.42677
1.4262
1.42447
1.42164
1.41954
1.41843
1.41768
1.4175
1.41814
1.41983
1.4208
1.42117
1.42127
1.42068
1.41893
1.41819
1.4181
1.418
1.41806
1.4182
1.41795
1.4168
1.41535
1.41363
1.41141
1.4096
1.40924
1.40926
1.40967
1.41135
1.41367
1.415
1.41563
1.41573
1.41523
1.41352
1.41676
1.46296
1.5953
1.77633
1.89583
1.91379
1.9133
1.90915
1.90242
1.89947
1.89696
1.89627
1.89621
1.89373
1.88968
1.88582
1.88155
1.87814
1.87619
1.87539
1.87468
1.87266
1.86946
1.86754
1.86519
1.86316
1.86223
1.86115
1.85885
1.85501
1.85069
1.84689
1.84443
1.84305
1.84193
1.84055
1.83909
1.83799
1.8364
1.83292
1.8302
1.82888
1.82789
1.82674