/*--------------------------------*- C++ -*----------------------------------*\
  =========                 |
  \\      /  F ield         | OpenFOAM: The Open Source CFD Toolbox
   \\    /   O peration     | Website:  https://openfoam.org
    \\  /    A nd           | Version:  7
     \\/     M anipulation  |
\*---------------------------------------------------------------------------*/
FoamFile
{
    version     2.0;
    format      ascii;
    class       volScalarField;
    location    "0.7";
    object      T;
}
// * * * * * * * * * * * * * * * * * * * * * * * * * * * * * * * * * * * * * //

dimensions      [0 0 0 1 0 0 0];

internalField   nonuniform List<scalar> 
4128
(
1.61755
1.6048
1.59135
1.57493
1.56346
1.54959
1.53625
1.52459
1.50759
1.50037
1.48978
1.47755
1.46746
1.45246
1.44686
1.43955
1.42829
1.41847
1.40221
1.39042
1.38627
1.37901
1.36901
1.35777
1.34201
1.3344
1.32998
1.32002
1.30371
1.30126
1.3053
1.30566
1.30013
1.29082
1.27959
1.26773
1.2575
1.2496
1.24363
1.24102
1.23741
1.23345
1.22947
1.22741
1.22501
1.22421
1.22485
1.2246
1.2171
1.19862
1.18698
1.18175
1.17821
1.17385
1.16549
1.15805
1.15095
1.14021
1.12321
1.10873
1.09915
1.0904
1.08309
1.0734
1.06104
1.0528
1.04774
1.04256
1.03435
1.02461
1.01553
1.00736
1.00044
0.993751
0.984086
0.966204
0.953649
0.952802
0.952893
0.950025
0.947279
0.947983
0.94708
0.944964
0.939379
0.927729
0.909548
0.89259
0.889699
0.890782
0.896144
0.909249
0.935622
0.976888
1.01974
1.05284
1.08157
1.0912
1.08981
1.08332
1.07016
1.04762
1.01748
1.00088
1.00002
1.00336
1.00917
1.01414
1.02041
1.02809
1.03388
1.0377
1.041
1.04272
1.04376
1.04455
1.04313
1.03857
1.03384
1.03118
1.02959
1.02904
1.03011
1.03622
1.04307
1.04346
1.04038
1.03488
1.02721
1.61601
1.60249
1.58489
1.56807
1.55824
1.54591
1.53529
1.51798
1.50455
1.4946
1.48075
1.47312
1.46159
1.45351
1.449
1.43721
1.42503
1.41355
1.39324
1.38601
1.38354
1.37657
1.3673
1.35642
1.33716
1.32543
1.32186
1.31542
1.30139
1.29868
1.30287
1.30362
1.29888
1.28713
1.27275
1.25977
1.24962
1.24366
1.23879
1.2367
1.23463
1.23046
1.22493
1.22146
1.21815
1.21637
1.21549
1.21112
1.1973
1.1854
1.18062
1.17777
1.17516
1.168
1.15957
1.15263
1.14465
1.13119
1.11585
1.10647
1.09895
1.09223
1.08639
1.07484
1.06248
1.05488
1.05012
1.04429
1.03536
1.02644
1.01873
1.01224
1.00646
1.00056
0.990405
0.971524
0.959166
0.958252
0.959784
0.959473
0.955718
0.954622
0.953703
0.951216
0.944032
0.930826
0.912669
0.901271
0.899727
0.898422
0.900323
0.911608
0.939689
0.983624
1.02325
1.04598
1.0648
1.07605
1.07598
1.07197
1.06076
1.03857
1.0117
1.00007
0.999864
1.00372
1.00875
1.01239
1.01672
1.02323
1.02892
1.03176
1.03424
1.0371
1.03805
1.03789
1.03545
1.03131
1.02876
1.02757
1.02731
1.0286
1.03501
1.04249
1.0432
1.04114
1.03617
1.0312
1.02397
1.60901
1.60151
1.58604
1.56673
1.55427
1.54402
1.53159
1.51497
1.50312
1.48813
1.47828
1.47027
1.45904
1.45684
1.44899
1.43303
1.42152
1.40606
1.38734
1.38597
1.38341
1.37545
1.36682
1.35495
1.33189
1.31858
1.31688
1.31302
1.30277
1.29799
1.30101
1.30207
1.29616
1.28029
1.26349
1.25241
1.24503
1.23983
1.23719
1.23624
1.23474
1.22886
1.22134
1.21654
1.21348
1.21118
1.20681
1.1958
1.1842
1.18016
1.17784
1.17682
1.17284
1.16472
1.15675
1.14927
1.13841
1.12282
1.11215
1.1058
1.09981
1.09524
1.08857
1.07609
1.06462
1.0572
1.05163
1.04413
1.03464
1.02684
1.02082
1.01605
1.01158
1.00662
0.995628
0.97664
0.964196
0.963319
0.965271
0.965814
0.963342
0.961613
0.959907
0.955876
0.946601
0.931594
0.915117
0.91066
0.911197
0.910306
0.91039
0.921471
0.95188
1.00042
1.03498
1.04553
1.05323
1.06093
1.06196
1.05992
1.0506
1.02915
1.0057
0.998384
0.998642
1.00297
1.00878
1.01221
1.01516
1.01926
1.02385
1.0266
1.02834
1.03048
1.03231
1.03209
1.02959
1.02624
1.02507
1.02502
1.02648
1.03296
1.0412
1.04246
1.04089
1.03694
1.03269
1.02852
1.02042
1.59522
1.59696
1.58832
1.56946
1.55524
1.5433
1.52666
1.51394
1.49966
1.48582
1.47891
1.46633
1.46181
1.45921
1.44484
1.42856
1.41656
1.39673
1.38868
1.38871
1.38366
1.37501
1.36807
1.35431
1.32605
1.31519
1.3145
1.31179
1.30644
1.29962
1.29966
1.29923
1.29159
1.27277
1.25575
1.24808
1.24364
1.23905
1.23691
1.23573
1.23386
1.22765
1.22024
1.2154
1.21149
1.20583
1.1952
1.1839
1.17975
1.17859
1.17823
1.17704
1.17161
1.16385
1.15562
1.14554
1.13046
1.11764
1.11154
1.10665
1.10229
1.09777
1.08891
1.0781
1.06783
1.06008
1.05319
1.04425
1.03522
1.02885
1.02428
1.02094
1.01793
1.01334
1.0016
0.982533
0.970346
0.969471
0.971839
0.972969
0.971326
0.969561
0.966868
0.960821
0.948796
0.932309
0.920563
0.91952
0.920344
0.921704
0.926297
0.942706
0.976106
1.01646
1.03917
1.04203
1.04325
1.04711
1.04888
1.04734
1.0389
1.0189
0.998333
0.993043
0.993667
0.997968
1.00384
1.00817
1.01119
1.01405
1.01757
1.02076
1.02251
1.02389
1.02565
1.02608
1.02487
1.02222
1.02158
1.02267
1.02864
1.0377
1.04025
1.03971
1.03716
1.03342
1.02949
1.02433
1.01607
1.55078
1.58019
1.5797
1.57134
1.56059
1.54621
1.52772
1.51313
1.49659
1.4872
1.47702
1.466
1.46567
1.45844
1.43917
1.4251
1.40972
1.39351
1.39353
1.39264
1.38454
1.37594
1.36847
1.35259
1.32342
1.31354
1.31384
1.31243
1.30893
1.3032
1.29898
1.29492
1.2853
1.26705
1.2516
1.24644
1.24366
1.23959
1.23798
1.23624
1.2322
1.22578
1.21962
1.215
1.20913
1.19772
1.18548
1.18056
1.17914
1.17942
1.17937
1.17675
1.17187
1.16466
1.15457
1.13965
1.12384
1.11653
1.1123
1.10876
1.10485
1.09828
1.08952
1.0808
1.07163
1.06302
1.05425
1.04421
1.03627
1.031
1.02776
1.02584
1.02381
1.0185
1.0065
0.987484
0.975893
0.975233
0.978237
0.980166
0.979182
0.977114
0.972832
0.964132
0.950283
0.934326
0.928006
0.928541
0.930447
0.932959
0.941821
0.967078
1.00361
1.03087
1.03976
1.0402
1.03918
1.039
1.03864
1.03587
1.0269
1.00855
0.990731
0.987461
0.988464
0.992684
0.998061
1.00211
1.00533
1.00806
1.01061
1.01325
1.01588
1.0174
1.01835
1.01979
1.01978
1.01854
1.01825
1.02135
1.03161
1.03718
1.03706
1.03573
1.03331
1.03037
1.02605
1.02048
1.01388
1.45531
1.53204
1.5546
1.56306
1.56044
1.55088
1.53202
1.5125
1.49708
1.48765
1.47199
1.46757
1.4667
1.45436
1.43615
1.4223
1.40379
1.39823
1.40004
1.3958
1.38708
1.37728
1.3648
1.34953
1.32481
1.31251
1.31379
1.3137
1.31191
1.30577
1.29666
1.29025
1.28016
1.26274
1.2504
1.248
1.24561
1.24224
1.24015
1.23704
1.23044
1.22446
1.2204
1.21557
1.2046
1.19014
1.18342
1.1808
1.18015
1.18124
1.18046
1.17786
1.17345
1.16549
1.15156
1.1324
1.12102
1.11711
1.11437
1.11105
1.10581
1.09921
1.09137
1.08397
1.07571
1.0666
1.05608
1.04546
1.03859
1.03438
1.03241
1.03138
1.029
1.02308
1.01147
0.992439
0.982298
0.982386
0.986557
0.988006
0.987135
0.984723
0.978545
0.966645
0.951531
0.939473
0.937705
0.939062
0.941974
0.948741
0.966768
0.99854
1.02913
1.04139
1.04256
1.04246
1.04027
1.03562
1.03076
1.02439
1.01361
0.997044
0.984814
0.983188
0.984268
0.988221
0.993098
0.996037
0.998463
1.00117
1.00372
1.00607
1.00878
1.01125
1.01223
1.01287
1.01376
1.01432
1.01545
1.02182
1.03289
1.03442
1.03403
1.03286
1.03069
1.02732
1.02269
1.01834
1.01506
1.34451
1.43392
1.50597
1.53671
1.55143
1.54974
1.53414
1.5117
1.49888
1.48722
1.4695
1.46833
1.46598
1.45038
1.43532
1.41973
1.40486
1.40563
1.40609
1.39869
1.38938
1.37529
1.35689
1.34611
1.33083
1.31624
1.31579
1.31613
1.31427
1.30646
1.29327
1.28501
1.27677
1.26292
1.2537
1.25166
1.24848
1.24486
1.24177
1.23657
1.2293
1.22461
1.22129
1.21401
1.19887
1.1884
1.18399
1.18187
1.18203
1.18339
1.1822
1.17967
1.17501
1.16492
1.14584
1.12734
1.12139
1.11927
1.11667
1.11231
1.10698
1.10097
1.09421
1.08771
1.08038
1.07068
1.05786
1.04732
1.04168
1.03878
1.03762
1.03625
1.03297
1.02722
1.01669
0.998141
0.989244
0.990111
0.994952
0.995589
0.994228
0.990351
0.981691
0.968442
0.953337
0.946805
0.947415
0.950732
0.955459
0.967153
0.994574
1.02949
1.04586
1.04702
1.04665
1.04512
1.03994
1.03129
1.0226
1.01379
1.00255
0.989193
0.982426
0.982199
0.983633
0.986357
0.989001
0.990773
0.992143
0.994215
0.996871
0.999555
1.00194
1.00418
1.00594
1.00661
1.00726
1.00883
1.01264
1.02057
1.02922
1.03009
1.02984
1.0291
1.0274
1.0236
1.02064
1.01933
1.01754
1.28808
1.32747
1.422
1.4912
1.53085
1.53815
1.53083
1.51369
1.5022
1.48962
1.4714
1.46912
1.46424
1.44888
1.43623
1.41925
1.41122
1.41365
1.4112
1.40127
1.38895
1.36749
1.35297
1.3465
1.33659
1.32374
1.3213
1.32029
1.31606
1.30625
1.28995
1.27979
1.27429
1.26604
1.25955
1.25556
1.25085
1.24642
1.24275
1.23684
1.22914
1.22502
1.22095
1.20996
1.19739
1.19107
1.18617
1.18417
1.18514
1.18631
1.18487
1.18221
1.1765
1.16263
1.13932
1.1261
1.12353
1.12216
1.11929
1.11399
1.10895
1.1036
1.09761
1.09171
1.08485
1.07357
1.05901
1.05024
1.046
1.04445
1.04373
1.04194
1.03816
1.03191
1.02142
1.00454
0.998355
1.00002
1.00347
1.00323
1.00072
0.99425
0.982949
0.968826
0.957961
0.956789
0.959132
0.963791
0.97178
0.991682
1.02426
1.04899
1.05418
1.05416
1.05354
1.05119
1.04438
1.03345
1.02232
1.0113
0.999369
0.988465
0.983348
0.983022
0.983416
0.983631
0.984004
0.98503
0.986603
0.988363
0.990516
0.992966
0.995033
0.99657
0.998206
0.999519
1.00038
1.00205
1.00835
1.01809
1.02187
1.02307
1.02358
1.02339
1.02237
1.0198
1.01904
1.01865
1.01855
1.27685
1.28293
1.32556
1.41939
1.47945
1.51349
1.52072
1.51642
1.5088
1.4981
1.48005
1.47161
1.46347
1.45056
1.4398
1.42284
1.4191
1.41978
1.41381
1.4015
1.38474
1.36126
1.35385
1.34981
1.34223
1.33211
1.32632
1.32328
1.31717
1.3062
1.29231
1.28047
1.27178
1.26709
1.26446
1.25996
1.25342
1.24728
1.24329
1.2379
1.23127
1.2265
1.21898
1.20768
1.2012
1.19551
1.18928
1.18773
1.18901
1.18931
1.18786
1.18477
1.17743
1.15914
1.13575
1.12835
1.12699
1.12535
1.12181
1.11623
1.11169
1.10723
1.10186
1.09628
1.08907
1.07496
1.06123
1.05468
1.0517
1.05114
1.05035
1.04847
1.04466
1.03811
1.02689
1.01212
1.00946
1.01132
1.01256
1.0112
1.00605
0.996491
0.983703
0.970019
0.964869
0.966134
0.97185
0.980689
0.995255
1.0231
1.05162
1.05943
1.0592
1.05808
1.0562
1.05262
1.04473
1.03258
1.02004
1.00788
0.996129
0.9887
0.987258
0.987171
0.985923
0.982448
0.980921
0.981221
0.982439
0.98441
0.986577
0.989056
0.991584
0.993398
0.994182
0.994298
0.994699
0.997268
1.00512
1.01358
1.0138
1.01389
1.01458
1.01655
1.01724
1.01636
1.01567
1.01571
1.01699
1.27452
1.27703
1.28696
1.32803
1.39497
1.44955
1.49351
1.50799
1.50713
1.50334
1.49365
1.48108
1.46794
1.45614
1.44386
1.4262
1.42334
1.42213
1.41383
1.40057
1.37974
1.35971
1.35776
1.35488
1.34799
1.33782
1.33102
1.32678
1.31834
1.3046
1.29381
1.28549
1.27519
1.26871
1.26674
1.26304
1.25475
1.24612
1.24274
1.24016
1.23582
1.22851
1.21687
1.20904
1.20507
1.19978
1.19335
1.19286
1.19407
1.1934
1.19143
1.18707
1.17677
1.15493
1.13616
1.13241
1.13116
1.1289
1.1249
1.11968
1.11558
1.11169
1.10651
1.1005
1.09163
1.07614
1.06583
1.06051
1.05881
1.05857
1.05778
1.05591
1.05157
1.04427
1.0321
1.02233
1.02212
1.02306
1.02255
1.01862
1.0098
0.997437
0.983041
0.974548
0.974382
0.978256
0.984956
0.997584
1.02306
1.05388
1.06703
1.06722
1.06483
1.06183
1.05882
1.05411
1.04541
1.03294
1.02067
1.00915
0.999231
0.994429
0.993669
0.99346
0.99206
0.987596
0.9812
0.979432
0.979642
0.980501
0.981824
0.983816
0.986319
0.988538
0.989919
0.990944
0.992321
0.995812
1.00195
1.00403
1.00347
1.00281
1.00301
1.0045
1.00785
1.00941
1.00989
1.0109
1.0142
1.28348
1.28116
1.28292
1.28606
1.30814
1.35637
1.42883
1.47654
1.48949
1.50027
1.49983
1.49164
1.47502
1.46099
1.44714
1.42885
1.4245
1.42183
1.41244
1.39877
1.37801
1.36271
1.36235
1.36032
1.3539
1.34233
1.33419
1.32982
1.32162
1.30529
1.29508
1.28991
1.28278
1.27439
1.26821
1.26375
1.25634
1.24584
1.24339
1.24349
1.24051
1.22949
1.21783
1.21262
1.20839
1.20357
1.19844
1.19846
1.19898
1.19834
1.19597
1.18923
1.17524
1.15276
1.13974
1.13722
1.13571
1.13307
1.12886
1.12431
1.12064
1.11674
1.11139
1.10351
1.09249
1.07963
1.07243
1.06762
1.06637
1.06601
1.06516
1.06296
1.05781
1.04969
1.03791
1.03427
1.0352
1.03531
1.033
1.0248
1.0125
0.997759
0.985743
0.982624
0.985264
0.993049
1.00415
1.02344
1.05333
1.07245
1.07445
1.07271
1.06852
1.06466
1.06062
1.05471
1.04498
1.03293
1.02222
1.01295
1.00589
1.00182
0.999506
0.998263
0.997259
0.993302
0.983359
0.978144
0.97827
0.97877
0.97925
0.980451
0.982816
0.985335
0.987214
0.988765
0.990967
0.99478
0.997387
0.997219
0.995454
0.99335
0.993202
0.993913
0.996498
1.00017
1.003
1.0058
1.01134
1.29804
1.29382
1.28729
1.27787
1.27718
1.29021
1.33759
1.41714
1.46017
1.488
1.49535
1.49164
1.47871
1.46538
1.45222
1.43401
1.42617
1.42124
1.4111
1.39787
1.37899
1.36808
1.36812
1.3661
1.35923
1.34657
1.33755
1.33266
1.32489
1.30952
1.29828
1.29333
1.28765
1.27932
1.27172
1.26547
1.25833
1.24985
1.24635
1.24672
1.24347
1.23098
1.22192
1.21638
1.21156
1.20816
1.20509
1.20459
1.20424
1.20313
1.19942
1.18977
1.1737
1.15386
1.14506
1.14306
1.1412
1.13817
1.13398
1.13009
1.1266
1.12259
1.11609
1.10498
1.09483
1.08632
1.08003
1.07576
1.07425
1.07352
1.07195
1.06725
1.06162
1.05408
1.04567
1.04495
1.04619
1.04544
1.04103
1.02933
1.0135
0.998655
0.992309
0.993342
0.998208
1.00755
1.0264
1.05596
1.07927
1.08391
1.08216
1.07583
1.07019
1.06579
1.06081
1.0538
1.04356
1.03308
1.0248
1.01863
1.01352
1.00994
1.00782
1.00681
1.00577
1.00056
0.988754
0.98099
0.98033
0.980551
0.980653
0.981368
0.983477
0.985896
0.987547
0.988985
0.991054
0.993601
0.994581
0.994106
0.991852
0.989069
0.987202
0.986707
0.987487
0.990014
0.993286
0.996489
1.00152
1.30941
1.30511
1.29008
1.27793
1.26978
1.27044
1.28325
1.33319
1.41371
1.45654
1.47965
1.48422
1.48006
1.47221
1.46057
1.44381
1.4304
1.42141
1.41091
1.39903
1.38343
1.37521
1.37448
1.37165
1.36425
1.35058
1.3417
1.33609
1.32898
1.31437
1.30232
1.29812
1.29316
1.28294
1.27369
1.26782
1.26227
1.25833
1.25522
1.25112
1.24386
1.23446
1.22654
1.21922
1.21535
1.21446
1.21272
1.21148
1.21013
1.20763
1.2017
1.18966
1.17395
1.15803
1.15181
1.15005
1.14783
1.14435
1.14016
1.13647
1.13286
1.1283
1.11854
1.10676
1.10046
1.09417
1.08783
1.08413
1.08253
1.08109
1.07691
1.06937
1.06509
1.05991
1.05538
1.05536
1.0556
1.05347
1.04608
1.03159
1.01346
1.0031
1.0032
1.00746
1.01484
1.0285
1.05456
1.08209
1.09181
1.09185
1.08692
1.07799
1.07183
1.06697
1.06122
1.05279
1.04262
1.0343
1.02884
1.025
1.02191
1.01953
1.01783
1.01652
1.0144
1.00662
0.994182
0.985829
0.982387
0.981471
0.981452
0.982315
0.984386
0.987055
0.989587
0.991509
0.992648
0.99333
0.993673
0.993048
0.990583
0.987854
0.98617
0.984638
0.984129
0.984928
0.986161
0.986794
0.98824
1.31467
1.3083
1.29333
1.2807
1.27291
1.2691
1.27099
1.2844
1.33641
1.39697
1.43327
1.46619
1.475
1.47278
1.4656
1.45274
1.43778
1.42492
1.41401
1.40278
1.38899
1.38316
1.38183
1.3778
1.36867
1.35338
1.34425
1.33999
1.33397
1.31962
1.30722
1.30319
1.29803
1.28721
1.27633
1.27152
1.26843
1.26614
1.26299
1.25442
1.245
1.24004
1.23232
1.2222
1.22074
1.2214
1.22059
1.21896
1.21621
1.21151
1.20291
1.1901
1.1769
1.16418
1.15977
1.15832
1.15581
1.15178
1.14719
1.14306
1.13904
1.1324
1.1193
1.11178
1.10807
1.10216
1.09644
1.09328
1.09149
1.08838
1.07966
1.07234
1.07039
1.06751
1.06557
1.06578
1.06401
1.05866
1.04754
1.03103
1.01539
1.01289
1.01571
1.02258
1.0347
1.0575
1.08578
1.10031
1.10183
1.09928
1.0892
1.07889
1.07215
1.06652
1.06024
1.05202
1.04314
1.0365
1.0335
1.03149
1.02964
1.02875
1.02764
1.0254
1.02131
1.01217
1.00036
0.992519
0.988369
0.986997
0.987093
0.988041
0.989741
0.991773
0.993892
0.99524
0.995535
0.995686
0.995811
0.994893
0.991991
0.989226
0.987356
0.984727
0.98272
0.98285
0.983169
0.982774
0.982244
1.31874
1.30867
1.29797
1.2881
1.28192
1.27699
1.27279
1.27436
1.28351
1.31564
1.3584
1.41424
1.45559
1.46355
1.46047
1.45586
1.44663
1.43178
1.42002
1.41009
1.39791
1.39164
1.38751
1.38064
1.37236
1.36008
1.34905
1.34306
1.33689
1.32393
1.31494
1.31004
1.30325
1.29106
1.28075
1.27841
1.27718
1.27425
1.26581
1.25453
1.24888
1.24612
1.23997
1.22931
1.22684
1.22806
1.22778
1.22596
1.22215
1.2153
1.20467
1.19297
1.18231
1.17197
1.16891
1.16738
1.16429
1.15925
1.15393
1.1496
1.14523
1.13479
1.12358
1.12004
1.11606
1.1095
1.10426
1.10143
1.09924
1.09373
1.08315
1.07974
1.07936
1.07754
1.07578
1.07437
1.07031
1.0609
1.04663
1.031
1.02551
1.02684
1.03188
1.04183
1.06054
1.08691
1.10565
1.10949
1.10893
1.10271
1.08975
1.07957
1.07272
1.06683
1.06045
1.0532
1.04642
1.04169
1.04001
1.03883
1.03765
1.03743
1.03713
1.03457
1.02764
1.0169
1.00575
0.997699
0.994125
0.993023
0.993157
0.993934
0.995305
0.996796
0.997939
0.998286
0.998206
0.998205
0.998284
0.997204
0.994176
0.991462
0.989181
0.985232
0.982274
0.982225
0.982385
0.982043
0.981504
1.31907
1.31168
1.30669
1.29816
1.29047
1.28679
1.28216
1.27604
1.27194
1.27474
1.29336
1.33702
1.40875
1.44155
1.4486
1.45079
1.44834
1.43764
1.42822
1.42136
1.41029
1.40273
1.39575
1.38289
1.37086
1.36479
1.35816
1.35118
1.34006
1.32696
1.3208
1.31622
1.30923
1.29807
1.28963
1.28799
1.28619
1.27874
1.26508
1.25721
1.25443
1.25216
1.24813
1.24094
1.23467
1.23424
1.23374
1.23152
1.22687
1.21837
1.20751
1.1988
1.19005
1.18139
1.17918
1.17716
1.17323
1.16705
1.16037
1.15499
1.14784
1.13592
1.13145
1.12958
1.12514
1.11851
1.11316
1.10959
1.10491
1.09515
1.08863
1.08826
1.08866
1.08685
1.0847
1.08152
1.07406
1.06173
1.04711
1.03777
1.03778
1.04189
1.05121
1.0686
1.09334
1.11325
1.11889
1.11884
1.11486
1.10228
1.08795
1.0784
1.07151
1.06619
1.06096
1.0557
1.05097
1.04792
1.04698
1.04589
1.04475
1.04505
1.04505
1.0422
1.0339
1.02313
1.013
1.00464
1.00096
1.00046
1.00029
1.00053
1.00136
1.00234
1.00335
1.0044
1.00491
1.00505
1.00488
1.00316
0.999867
0.996738
0.993145
0.988314
0.985162
0.984555
0.984097
0.983462
0.981932
1.32203
1.31685
1.31331
1.30859
1.30307
1.29683
1.28832
1.27742
1.27259
1.26907
1.27031
1.28532
1.33305
1.39648
1.42118
1.43499
1.44157
1.44406
1.44116
1.43646
1.42691
1.41223
1.40166
1.38923
1.3739
1.36439
1.36243
1.35832
1.34763
1.33439
1.32636
1.32128
1.31522
1.30757
1.3021
1.29901
1.29332
1.27817
1.2661
1.2627
1.2596
1.25751
1.25645
1.25294
1.24549
1.24025
1.23898
1.23686
1.23194
1.22237
1.21192
1.20617
1.19953
1.19232
1.18996
1.18699
1.18179
1.17431
1.16684
1.15979
1.14843
1.14077
1.1396
1.13841
1.13364
1.12673
1.12136
1.11714
1.10962
1.09919
1.09734
1.0978
1.09746
1.09482
1.09089
1.08517
1.07431
1.06157
1.05252
1.05001
1.05157
1.05988
1.07691
1.09958
1.11988
1.12779
1.12814
1.12631
1.11726
1.1007
1.08746
1.07886
1.07244
1.06785
1.06388
1.06064
1.05713
1.05481
1.05397
1.05278
1.05166
1.05214
1.05215
1.04833
1.03885
1.02889
1.02021
1.0121
1.00734
1.00728
1.0073
1.00722
1.00739
1.00806
1.00922
1.01046
1.01137
1.01174
1.01145
1.0094
1.00594
1.00215
0.99716
0.991352
0.988376
0.987533
0.986826
0.985275
0.982397
1.33202
1.32802
1.32065
1.31507
1.31154
1.30548
1.29413
1.28064
1.27588
1.27168
1.26814
1.27035
1.28237
1.32154
1.36697
1.39378
1.42189
1.44092
1.4445
1.44285
1.43783
1.42417
1.40661
1.39455
1.37981
1.36993
1.36797
1.363
1.35203
1.3394
1.33287
1.32943
1.32415
1.31862
1.31446
1.30882
1.29474
1.27739
1.27287
1.27086
1.26763
1.26442
1.26407
1.26242
1.25448
1.24589
1.24419
1.24259
1.23757
1.22778
1.21933
1.21565
1.21038
1.20462
1.20082
1.19604
1.18899
1.18011
1.1717
1.16162
1.15189
1.14992
1.14969
1.14801
1.1423
1.13496
1.12889
1.12247
1.11215
1.10707
1.10645
1.10729
1.10615
1.10268
1.09645
1.08653
1.07376
1.06494
1.06189
1.06238
1.06825
1.08442
1.10924
1.13019
1.13803
1.13842
1.13703
1.13031
1.1149
1.09745
1.08625
1.07895
1.07458
1.07129
1.06856
1.06654
1.06334
1.06156
1.06068
1.05949
1.05883
1.05929
1.059
1.05483
1.04532
1.03556
1.02815
1.0208
1.01487
1.01423
1.01433
1.01414
1.01419
1.01504
1.01672
1.01845
1.01929
1.01932
1.01862
1.01624
1.01259
1.00791
1.00183
0.99671
0.994831
0.994043
0.992976
0.990708
0.986357
1.33799
1.3351
1.32968
1.32326
1.31683
1.30831
1.29681
1.29012
1.28657
1.28138
1.2746
1.27028
1.2666
1.27165
1.29628
1.3315
1.37973
1.42407
1.43666
1.43777
1.43609
1.42794
1.41221
1.40205
1.39138
1.37953
1.375
1.36831
1.35652
1.34404
1.34013
1.33794
1.33446
1.33043
1.32495
1.31284
1.29281
1.28332
1.28151
1.28026
1.2785
1.27537
1.27234
1.26893
1.25961
1.25219
1.25048
1.24827
1.24386
1.23506
1.22865
1.22575
1.22149
1.21658
1.21139
1.20477
1.19567
1.18501
1.17372
1.16287
1.15992
1.15926
1.15959
1.1572
1.15074
1.14313
1.13605
1.12655
1.11746
1.11655
1.11621
1.11648
1.11461
1.10973
1.1007
1.08782
1.07832
1.0734
1.07204
1.076
1.09076
1.11492
1.13821
1.14889
1.14983
1.14894
1.14439
1.13234
1.11314
1.09765
1.08865
1.08355
1.08115
1.07834
1.07655
1.07465
1.07175
1.07062
1.06968
1.06901
1.06935
1.06971
1.06869
1.0644
1.05609
1.04773
1.04276
1.03708
1.03109
1.02913
1.02914
1.02893
1.0287
1.02926
1.03089
1.03134
1.03116
1.03029
1.02828
1.02497
1.02048
1.01448
1.00763
1.00372
1.00246
1.00152
0.999863
0.997012
0.992866
1.34791
1.34134
1.33437
1.32856
1.32225
1.31187
1.30254
1.29952
1.29633
1.29149
1.28498
1.27442
1.26373
1.26203
1.26467
1.28112
1.31889
1.38294
1.41319
1.42446
1.42826
1.42416
1.41535
1.41038
1.40671
1.39655
1.38665
1.37698
1.36034
1.34859
1.34863
1.34835
1.34558
1.34004
1.32979
1.31094
1.29596
1.29347
1.29177
1.29061
1.28963
1.28724
1.28184
1.27259
1.26403
1.26127
1.25914
1.25523
1.24925
1.24379
1.2401
1.23717
1.23238
1.2268
1.22009
1.21165
1.2011
1.18846
1.17524
1.17063
1.1701
1.17056
1.17002
1.16606
1.15844
1.14911
1.1391
1.12843
1.1257
1.12555
1.12656
1.12562
1.12206
1.11481
1.10379
1.0943
1.08884
1.08666
1.08851
1.09886
1.11975
1.14605
1.16094
1.16354
1.16366
1.16177
1.15357
1.138
1.12171
1.11438
1.1133
1.11473
1.11579
1.11506
1.11453
1.11312
1.11194
1.11186
1.1127
1.11458
1.11709
1.11772
1.11694
1.11375
1.10865
1.1084
1.10868
1.10642
1.10114
1.09686
1.09499
1.0936
1.09222
1.09112
1.08986
1.08741
1.08315
1.07708
1.06891
1.0583
1.0459
1.03406
1.02696
1.02554
1.02512
1.02386
1.02084
1.01594
1.01017
1.3606
1.35254
1.34376
1.33385
1.32636
1.31676
1.31157
1.30904
1.30448
1.2977
1.2904
1.27888
1.26546
1.26151
1.26168
1.26532
1.27969
1.31958
1.36873
1.39193
1.40788
1.41502
1.41358
1.41636
1.41749
1.41167
1.3986
1.38669
1.37273
1.35824
1.35429
1.3554
1.35477
1.34825
1.33085
1.30998
1.30541
1.30552
1.30471
1.30229
1.29956
1.29598
1.28853
1.2758
1.27071
1.26989
1.26803
1.26426
1.2579
1.25332
1.25066
1.24732
1.24333
1.23796
1.23022
1.21963
1.20505
1.18864
1.1804
1.17974
1.18008
1.18184
1.1806
1.17608
1.16767
1.15562
1.14094
1.13348
1.13275
1.13258
1.1337
1.13292
1.12867
1.12135
1.11344
1.10882
1.10667
1.10817
1.11596
1.13789
1.17204
1.19963
1.21631
1.22654
1.23284
1.23335
1.2252
1.2179
1.21887
1.2253
1.23779
1.25027
1.25544
1.25602
1.25426
1.25013
1.24706
1.24539
1.24551
1.24695
1.24665
1.24392
1.23861
1.2295
1.22097
1.21776
1.21444
1.20884
1.20255
1.19664
1.19343
1.19074
1.18872
1.18787
1.18711
1.18549
1.18266
1.17801
1.16976
1.15479
1.13191
1.10835
1.09315
1.08683
1.08538
1.08385
1.08009
1.07402
1.06775
1.36246
1.35848
1.35401
1.34618
1.33758
1.32788
1.31942
1.3146
1.31057
1.3027
1.2918
1.28229
1.27427
1.26835
1.26548
1.26725
1.26939
1.27729
1.30345
1.33149
1.36261
1.39086
1.40273
1.41343
1.41853
1.41715
1.40849
1.39683
1.38637
1.3765
1.36819
1.36156
1.35676
1.34889
1.33155
1.31888
1.31746
1.31627
1.31562
1.3135
1.30932
1.3031
1.29251
1.28196
1.28044
1.27933
1.27659
1.27154
1.26808
1.26576
1.26298
1.25639
1.25046
1.24562
1.23798
1.22574
1.20826
1.1924
1.18953
1.18874
1.1893
1.1904
1.18896
1.18431
1.17539
1.16027
1.1462
1.14406
1.14393
1.14538
1.14673
1.14743
1.14742
1.15057
1.15909
1.17485
1.19623
1.22126
1.25587
1.29893
1.34235
1.37105
1.39068
1.39976
1.3978
1.38756
1.37067
1.35919
1.35412
1.35409
1.36124
1.3674
1.36813
1.36528
1.35843
1.3524
1.34844
1.34494
1.3416
1.3393
1.3347
1.32776
1.31835
1.30581
1.29311
1.28205
1.27223
1.26369
1.25494
1.24778
1.2442
1.24059
1.23753
1.23741
1.23802
1.23898
1.23923
1.23844
1.23392
1.22191
1.20301
1.18496
1.17099
1.15804
1.14815
1.14254
1.13969
1.13562
1.1332
1.3651
1.35957
1.35619
1.35332
1.34868
1.34199
1.3329
1.32155
1.31438
1.3069
1.29463
1.2879
1.28626
1.28155
1.27512
1.27261
1.27082
1.2658
1.26671
1.27563
1.29781
1.34362
1.37814
1.39962
1.41317
1.41463
1.41195
1.40578
1.3999
1.39347
1.38445
1.37291
1.36158
1.34856
1.33409
1.33029
1.3295
1.32863
1.32686
1.32307
1.3172
1.30773
1.29548
1.29098
1.29033
1.28903
1.28648
1.28104
1.27837
1.27761
1.27483
1.26717
1.25867
1.25154
1.24253
1.22903
1.21163
1.20213
1.20046
1.19986
1.2
1.19982
1.19803
1.19236
1.18024
1.16983
1.17069
1.17812
1.1943
1.21522
1.23637
1.2567
1.27888
1.31053
1.35019
1.391
1.42176
1.44247
1.46804
1.49359
1.50647
1.50507
1.50192
1.4933
1.47791
1.45662
1.43429
1.41835
1.40809
1.40216
1.40158
1.39952
1.3945
1.3862
1.37783
1.37336
1.36981
1.36668
1.3635
1.35807
1.35113
1.34267
1.33162
1.31871
1.30708
1.2962
1.28369
1.27248
1.26377
1.25641
1.25095
1.248
1.24485
1.24377
1.24475
1.24772
1.24928
1.24917
1.24539
1.2338
1.21959
1.20962
1.20201
1.19271
1.17918
1.16548
1.1612
1.1591
1.15758
1.34724
1.35614
1.35599
1.35295
1.34959
1.34757
1.34215
1.33216
1.32128
1.31345
1.30487
1.29847
1.29596
1.2929
1.28549
1.27817
1.27341
1.26616
1.25835
1.25771
1.26242
1.28934
1.33816
1.36664
1.39311
1.40734
1.40775
1.40598
1.40597
1.40285
1.3939
1.38274
1.37077
1.35659
1.34569
1.34237
1.33958
1.33761
1.33624
1.33286
1.32454
1.31014
1.3018
1.30022
1.29864
1.2978
1.29689
1.29342
1.29035
1.28871
1.2847
1.27578
1.26672
1.25766
1.24681
1.23217
1.21832
1.21394
1.21372
1.21471
1.21741
1.22381
1.23022
1.23942
1.25472
1.28226
1.31381
1.34648
1.37612
1.40689
1.43416
1.45425
1.47351
1.49672
1.52056
1.53581
1.54396
1.55255
1.56275
1.56265
1.55907
1.55021
1.53847
1.52171
1.50009
1.47891
1.46199
1.45053
1.44212
1.43499
1.42807
1.41967
1.40911
1.40048
1.39527
1.39104
1.38967
1.39017
1.38706
1.37944
1.37053
1.35972
1.34701
1.33578
1.32517
1.31432
1.30179
1.28846
1.2788
1.27182
1.26559
1.26184
1.2601
1.25807
1.25829
1.26027
1.26203
1.2619
1.25694
1.24419
1.23285
1.22661
1.22137
1.21451
1.20256
1.1856
1.17828
1.17725
1.17518
1.27849
1.31476
1.34097
1.34375
1.34661
1.34613
1.34225
1.33655
1.33107
1.32622
1.32217
1.31527
1.30714
1.30098
1.29402
1.2848
1.27711
1.26843
1.25878
1.25648
1.25686
1.26257
1.2877
1.31867
1.35282
1.38329
1.39038
1.39891
1.40405
1.40348
1.40057
1.39491
1.38493
1.37268
1.3625
1.35605
1.35129
1.34789
1.34474
1.33903
1.32586
1.3132
1.31082
1.3095
1.30781
1.30741
1.30747
1.30586
1.30228
1.29792
1.29217
1.28318
1.27448
1.26462
1.25368
1.24063
1.23716
1.24357
1.26315
1.29413
1.33374
1.37745
1.40842
1.4271
1.45418
1.47928
1.49394
1.50425
1.5187
1.53479
1.55056
1.56433
1.57448
1.57495
1.57042
1.56158
1.55669
1.55411
1.55077
1.54603
1.54183
1.53396
1.52056
1.50218
1.47959
1.4612
1.45051
1.44343
1.43692
1.42981
1.42041
1.40632
1.39031
1.38185
1.37758
1.37434
1.3745
1.37654
1.37359
1.36673
1.35876
1.34716
1.33458
1.32626
1.32034
1.31343
1.30182
1.28445
1.27271
1.26649
1.2604
1.25507
1.25296
1.25027
1.24761
1.24728
1.24803
1.24714
1.23926
1.22697
1.2214
1.21823
1.21477
1.21037
1.20236
1.18828
1.17555
1.17239
1.16979
1.12512
1.18884
1.25739
1.30193
1.3176
1.33111
1.33694
1.33557
1.33266
1.33006
1.32813
1.32444
1.31845
1.31129
1.30309
1.29351
1.2831
1.2744
1.26632
1.25984
1.25861
1.26067
1.26476
1.27537
1.29416
1.33016
1.3596
1.37731
1.39523
1.39901
1.39743
1.39534
1.39291
1.38816
1.38114
1.37265
1.36369
1.35805
1.3538
1.34403
1.3261
1.31948
1.31837
1.31762
1.3184
1.31928
1.31809
1.31666
1.31349
1.30405
1.2978
1.29341
1.28935
1.28902
1.29989
1.32574
1.37079
1.42472
1.48245
1.5261
1.55743
1.56875
1.56695
1.56914
1.57605
1.57805
1.58419
1.59511
1.60755
1.61825
1.62612
1.6281
1.62663
1.61734
1.59749
1.57825
1.56718
1.55717
1.54806
1.53912
1.52977
1.51927
1.50578
1.48685
1.46543
1.45054
1.44226
1.43598
1.42997
1.42345
1.41393
1.39562
1.37813
1.37196
1.36913
1.3667
1.36702
1.36881
1.36508
1.35793
1.34976
1.33806
1.32714
1.32093
1.31686
1.31145
1.30077
1.28409
1.2716
1.26552
1.25985
1.25426
1.25121
1.24725
1.24349
1.24085
1.23777
1.23257
1.22424
1.21682
1.21396
1.21136
1.20806
1.2045
1.19894
1.18816
1.17555
1.17061
1.16682
1.0122
1.03936
1.08828
1.16311
1.22267
1.27161
1.29576
1.31484
1.32837
1.32894
1.32631
1.32096
1.31902
1.31673
1.31223
1.30461
1.29484
1.28679
1.281
1.27363
1.26644
1.26409
1.26409
1.26142
1.26278
1.27523
1.30564
1.33156
1.36152
1.38792
1.39309
1.39095
1.38954
1.38939
1.39085
1.38914
1.38218
1.37096
1.36048
1.34728
1.33286
1.3288
1.32704
1.32609
1.32734
1.3302
1.33055
1.32979
1.32195
1.31625
1.32544
1.35844
1.41238
1.47838
1.53895
1.57897
1.60648
1.63054
1.65164
1.65108
1.64019
1.62677
1.62075
1.61854
1.6138
1.61338
1.61603
1.62457
1.63252
1.63379
1.63337
1.63266
1.62872
1.61367
1.58531
1.56181
1.54987
1.54097
1.53842
1.53754
1.52937
1.52033
1.50687
1.48522
1.47027
1.46264
1.4569
1.45027
1.4431
1.43443
1.41902
1.39439
1.37598
1.37009
1.36783
1.36907
1.37455
1.37462
1.36878
1.36075
1.34948
1.33822
1.3313
1.32543
1.31862
1.31185
1.3021
1.2859
1.27197
1.26555
1.2604
1.25594
1.25274
1.24841
1.24557
1.24262
1.23415
1.22212
1.21823
1.21772
1.21654
1.21469
1.21232
1.20908
1.20412
1.19577
1.18377
1.17539
1.17002
1.00017
1.00127
1.00602
1.02537
1.06276
1.11795
1.18717
1.24204
1.27637
1.30271
1.31491
1.31513
1.31396
1.31272
1.3119
1.30994
1.30577
1.29968
1.29497
1.28999
1.2818
1.27325
1.26725
1.26244
1.25742
1.25754
1.26338
1.2805
1.31027
1.3464
1.36897
1.38504
1.38634
1.38486
1.38892
1.39499
1.39393
1.38683
1.37336
1.35887
1.35049
1.34713
1.345
1.34492
1.34662
1.35128
1.35613
1.36489
1.39066
1.45171
1.54706
1.62549
1.67427
1.7165
1.71979
1.7156
1.71388
1.70981
1.70263
1.69395
1.68662
1.68047
1.67443
1.66436
1.64956
1.63304
1.62746
1.62963
1.63312
1.63294
1.62996
1.62303
1.60959
1.58622
1.5603
1.5433
1.53382
1.52605
1.52425
1.52233
1.51209
1.50073
1.48655
1.47122
1.46276
1.45665
1.45056
1.44309
1.435
1.42596
1.41219
1.39291
1.38135
1.37484
1.36997
1.36807
1.36508
1.35757
1.3494
1.3411
1.33111
1.32403
1.32083
1.31835
1.31481
1.30997
1.30367
1.29492
1.28298
1.27085
1.26312
1.25723
1.25153
1.24592
1.2411
1.23575
1.22474
1.21185
1.20829
1.2063
1.20503
1.20466
1.20419
1.20353
1.20279
1.20098
1.19641
1.18989
1.17905
1
1.00001
1.00006
1.0006
1.00324
1.01214
1.04078
1.0863
1.14584
1.20284
1.2443
1.2751
1.29357
1.29788
1.30258
1.30724
1.3057
1.30172
1.29752
1.29531
1.29167
1.2849
1.27686
1.26801
1.26031
1.25673
1.25718
1.25946
1.26756
1.28932
1.31232
1.35077
1.38101
1.39237
1.40331
1.4164
1.42096
1.41979
1.4156
1.40989
1.40852
1.41038
1.41727
1.43255
1.46126
1.49232
1.53986
1.59828
1.65953
1.72701
1.77157
1.78511
1.77692
1.76533
1.75059
1.73452
1.72846
1.72283