/*--------------------------------*- C++ -*----------------------------------*\
  =========                 |
  \\      /  F ield         | OpenFOAM: The Open Source CFD Toolbox
   \\    /   O peration     | Website:  https://openfoam.org
    \\  /    A nd           | Version:  7
     \\/     M anipulation  |
\*---------------------------------------------------------------------------*/
FoamFile
{
    version     2.0;
    format      ascii;
    class       volScalarField;
    location    "1.5";
    object      rho;
}
// * * * * * * * * * * * * * * * * * * * * * * * * * * * * * * * * * * * * * //

dimensions      [1 -3 0 0 0 0 0];

internalField   nonuniform List<scalar> 
16192
(
1.93416
1.94649
1.96218
1.97604
1.98132
1.98175
1.97947
1.97218
1.95827
1.94176
1.93255
1.93107
1.93233
1.93514
1.93451
1.93302
1.93092
1.92759
1.92445
1.92356
1.92703
1.93104
1.92975
1.9278
1.9252
1.91697
1.8932
1.85725
1.84288
1.83995
1.83859
1.83774
1.84017
1.85344
1.8644
1.86386
1.8616
1.85922
1.85609
1.85163
1.84742
1.84537
1.84415
1.84353
1.84315
1.84209
1.84002
1.83561
1.82509
1.80178
1.78127
1.77467
1.77301
1.77217
1.77031
1.76795
1.76431
1.7565
1.74217
1.73197
1.72888
1.72716
1.72594
1.72523
1.72659
1.73416
1.7377
1.73715
1.73559
1.73223
1.72223
1.70385
1.69211
1.69004
1.68865
1.68752
1.68648
1.6848
1.68319
1.68219
1.68076
1.679
1.67716
1.67482
1.66998
1.65745
1.63867
1.63057
1.62947
1.62955
1.63121
1.63621
1.64352
1.6517
1.66028
1.66879
1.67617
1.68102
1.68292
1.68324
1.6831
1.68174
1.67622
1.66263
1.63983
1.62613
1.62288
1.62214
1.62135
1.62097
1.6249
1.63549
1.64159
1.64116
1.63962
1.63775
1.63433
1.62639
1.61128
1.59756
1.59177
1.58885
1.58674
1.5855
1.58519
1.58478
1.58366
1.58258
1.58175
1.57982
1.57236
1.55747
1.5485
1.54677
1.546
1.54613
1.55256
1.56007
1.55851
1.55496
1.55207
1.54718
1.53577
1.51173
1.4921
1.48755
1.48703
1.48716
1.48951
1.49654
1.51458
1.54229
1.55239
1.55123
1.54831
1.54004
1.51574
1.46959
1.44402
1.44082
1.43963
1.43869
1.44034
1.4529
1.47789
1.49186
1.4925
1.49132
1.48757
1.47337
1.43823
1.4096
1.40525
1.40535
1.41093
1.42892
1.46761
1.50703
1.52101
1.52246
1.52169
1.5135
1.48181
1.42117
1.39278
1.38921
1.38798
1.38711
1.3869
1.39086
1.40758
1.44084
1.46604
1.46846
1.46615
1.46176
1.45222
1.42783
1.38014
1.35137
1.34715
1.34646
1.34593
1.34565
1.34616
1.35087
1.36694
1.39186
1.40011
1.39885
1.39622
1.39403
1.39173
1.38721
1.37372
1.3466
1.33562
1.33917
1.34946
1.36281
1.37393
1.38053
1.38466
1.38786
1.39204
1.39846
1.40056
1.39873
1.39439
1.38859
1.38236
1.37666
1.36956
1.35972
1.35401
1.35258
1.35179
1.35111
1.35207
1.36228
1.37628
1.37756
1.37585
1.37446
1.373
1.37006
1.36044
1.33331
1.30442
1.29659
1.29516
1.29404
1.29592
1.9191
1.92476
1.93647
1.95574
1.97133
1.97466
1.9751
1.97444
1.97374
1.96966
1.95844
1.94166
1.92979
1.92566
1.92461
1.9223
1.91837
1.91312
1.91052
1.90997
1.91383
1.92276
1.92418
1.92227
1.91991
1.91583
1.90448
1.87874
1.84926
1.83986
1.83767
1.83672
1.83862
1.85031
1.8601
1.8594
1.85738
1.85525
1.85147
1.8451
1.84221
1.84097
1.83998
1.8397
1.83975
1.83831
1.83665
1.83492
1.83088
1.82053
1.79772
1.7768
1.76943
1.76719
1.76573
1.76299
1.75803
1.74823
1.73555
1.72921
1.72686
1.72505
1.72388
1.72346
1.72484
1.73022
1.73764
1.73843
1.73677
1.73363
1.72632
1.70915
1.68991
1.68485
1.68386
1.68285
1.68164
1.67983
1.6782
1.67713
1.67558
1.67379
1.67194
1.66977
1.6666
1.65987
1.64576
1.63123
1.62733
1.62683
1.62726
1.63086
1.63808
1.64517
1.65045
1.65508
1.66032
1.6663
1.6712
1.67323
1.67347
1.67335
1.67192
1.66565
1.65078
1.63066
1.62187
1.61979
1.61905
1.6185
1.61991
1.6291
1.63818
1.63767
1.6358
1.63443
1.63209
1.62724
1.61727
1.60067
1.5872
1.58318
1.58114
1.57945
1.57845
1.57846
1.58004
1.58118
1.58142
1.58079
1.57858
1.56993
1.55295
1.54334
1.54211
1.5413
1.54175
1.54833
1.55404
1.55217
1.54938
1.54725
1.54231
1.52942
1.50474
1.48864
1.48561
1.48554
1.48601
1.48783
1.49483
1.51719
1.54425
1.5488
1.5469
1.54362
1.53444
1.50534
1.45696
1.43556
1.43334
1.43254
1.4322
1.43507
1.44921
1.47366
1.48557
1.48587
1.48534
1.48178
1.46693
1.43609
1.41741
1.4156
1.41733
1.42634
1.44573
1.47546
1.49993
1.50818
1.50883
1.50653
1.49342
1.45841
1.4087
1.39007
1.38818
1.38747
1.38737
1.38996
1.39682
1.41059
1.43596
1.45649
1.45821
1.45561
1.4513
1.44232
1.41897
1.37351
1.34674
1.34289
1.34217
1.34148
1.34086
1.34072
1.34436
1.36065
1.38655
1.39439
1.39303
1.39168
1.39085
1.38935
1.38479
1.36931
1.33998
1.32981
1.33292
1.34189
1.35341
1.36379
1.3712
1.37604
1.37995
1.38542
1.39294
1.39486
1.39315
1.38924
1.38369
1.3779
1.3726
1.36551
1.35609
1.35168
1.35068
1.34996
1.34949
1.35256
1.36567
1.37387
1.37296
1.37152
1.37036
1.36854
1.36348
1.34682
1.31356
1.29438
1.29135
1.29058
1.29198
1.90849
1.91018
1.91619
1.93209
1.95347
1.96623
1.97108
1.97701
1.98299
1.98279
1.97753
1.96285
1.93729
1.91942
1.91318
1.90936
1.90419
1.89968
1.89821
1.89769
1.90012
1.90912
1.91603
1.91582
1.91366
1.91072
1.90603
1.89406
1.86914
1.84457
1.83823
1.83723
1.8399
1.85127
1.85661
1.85541
1.85358
1.85154
1.84794
1.84149
1.83774
1.83641
1.83519
1.8345
1.83513
1.83564
1.83408
1.83243
1.83083
1.82708
1.8168
1.79389
1.77243
1.76371
1.76018
1.75689
1.75058
1.73941
1.73062
1.72737
1.72551
1.72399
1.72269
1.72217
1.72397
1.72994
1.73284
1.73229
1.7311
1.72947
1.72625
1.71499
1.69381
1.68185
1.6801
1.67897
1.67697
1.67498
1.67338
1.67239
1.67094
1.66909
1.66722
1.66502
1.6619
1.65796
1.65077
1.63787
1.62773
1.62574
1.62576
1.62787
1.63267
1.63765
1.64077
1.64309
1.64605
1.65061
1.65615
1.66058
1.66275
1.66332
1.66331
1.66176
1.65477
1.63934
1.62374
1.61882
1.61761
1.6171
1.61752
1.62216
1.63198
1.63543
1.63402
1.63292
1.63138
1.62789
1.61981
1.60473
1.58584
1.57813
1.57622
1.57453
1.57323
1.57264
1.57473
1.58019
1.58283
1.58244
1.58102
1.57686
1.56279
1.5444
1.53784
1.53701
1.53592
1.53582
1.54119
1.54723
1.54594
1.54368
1.54145
1.53702
1.52457
1.50018
1.48617
1.48338
1.48264
1.48199
1.48261
1.493
1.52431
1.54869
1.54936
1.54669
1.5409
1.52707
1.48948
1.44195
1.42758
1.4262
1.42514
1.42478
1.42864
1.44566
1.47247
1.48341
1.4837
1.48317
1.4796
1.46407
1.43704
1.42624
1.42573
1.42878
1.43589
1.44765
1.46675
1.4853
1.4916
1.4916
1.48815
1.47607
1.44718
1.40669
1.39067
1.38913
1.38894
1.39093
1.39322
1.39584
1.40418
1.42673
1.44731
1.44878
1.44623
1.44237
1.43424
1.41073
1.36544
1.34123
1.33785
1.33681
1.33564
1.33468
1.33429
1.33807
1.35676
1.38406
1.39128
1.39105
1.39029
1.38927
1.38745
1.38173
1.36188
1.33032
1.32256
1.3254
1.33306
1.34345
1.3533
1.36086
1.36627
1.37144
1.37934
1.38824
1.38976
1.38833
1.38503
1.37983
1.37438
1.36916
1.36172
1.35293
1.34927
1.34848
1.34782
1.34778
1.35357
1.36632
1.36912
1.36761
1.36648
1.36525
1.36253
1.35391
1.32933
1.2989
1.28931
1.28818
1.28906
1.90065
1.89984
1.90079
1.90949
1.93089
1.95661
1.97424
1.98506
1.98818
1.98746
1.98528
1.97896
1.95899
1.92323
1.90022
1.89319
1.89016
1.88858
1.88767
1.88721
1.88874
1.89414
1.90117
1.90616
1.90631
1.9041
1.9007
1.89622
1.88737
1.87048
1.85113
1.84395
1.84306
1.84489
1.84929
1.84925
1.84778
1.846
1.84367
1.83955
1.83446
1.83221
1.8308
1.82957
1.82878
1.82933
1.83129
1.83077
1.8297
1.82797
1.82406
1.81299
1.7888
1.76605
1.75476
1.74798
1.74068
1.73252
1.72788
1.7259
1.72408
1.72285
1.7223
1.72221
1.72626
1.73067
1.72997
1.72855
1.72705
1.72489
1.72161
1.71519
1.70032
1.6833
1.67703
1.67535
1.67319
1.67093
1.66941
1.66814
1.66642
1.66446
1.66234
1.6599
1.65731
1.65442
1.65122
1.64551
1.63441
1.62698
1.62606
1.62611
1.62818
1.63057
1.63167
1.6324
1.6339
1.63722
1.64198
1.6465
1.65022
1.65264
1.6535
1.65361
1.65198
1.64414
1.62873
1.6191
1.61695
1.61626
1.61616
1.61792
1.62432
1.63206
1.63216
1.63024
1.62769
1.62417
1.61898
1.60769
1.5881
1.57458
1.57182
1.57022
1.56893
1.56825
1.56981
1.57743
1.58382
1.58415
1.58317
1.58083
1.57271
1.55259
1.53607
1.53209
1.53064
1.52886
1.52807
1.53351
1.54254
1.54261
1.54107
1.53904
1.53378
1.51934
1.49425
1.48106
1.47806
1.47743
1.47704
1.47948
1.49805
1.53338
1.54633
1.54467
1.541
1.53466
1.5157
1.46832
1.42692
1.41887
1.41769
1.41656
1.41669
1.42331
1.44649
1.47701
1.48692
1.48848
1.48862
1.48509
1.46776
1.44052
1.43172
1.43084
1.43026
1.43095
1.43654
1.45115
1.4697
1.47645
1.47669
1.47534
1.46763
1.44471
1.40824
1.39242
1.39082
1.38995
1.38888
1.38797
1.38819
1.39555
1.41964
1.44019
1.44109
1.4389
1.43575
1.4279
1.40197
1.35572
1.33459
1.33175
1.33022
1.3287
1.32779
1.32786
1.33424
1.35781
1.38638
1.39168
1.39105
1.38951
1.38784
1.38525
1.37652
1.34906
1.3189
1.31478
1.31732
1.32376
1.33294
1.34215
1.34973
1.35616
1.36358
1.37501
1.38461
1.38558
1.38449
1.38153
1.37651
1.37129
1.36591
1.358
1.34972
1.34639
1.34563
1.34499
1.34565
1.35376
1.36353
1.3635
1.36207
1.36106
1.35949
1.35514
1.34149
1.31113
1.28966
1.28649
1.28707
1.89315
1.89223
1.89193
1.89454
1.90916
1.94295
1.97507
1.98715
1.99105
1.99187
1.99008
1.98541
1.97274
1.93644
1.89523
1.88296
1.88104
1.88002
1.87916
1.87896
1.88075
1.88356
1.88597
1.88965
1.89474
1.89619
1.89463
1.89302
1.89164
1.88731
1.87752
1.862
1.84879
1.84389
1.8423
1.84193
1.8416
1.84055
1.83893
1.83681
1.83305
1.82847
1.8259
1.82409
1.82264
1.8219
1.82424
1.82958
1.82939
1.82796
1.8261
1.82177
1.80792
1.77885
1.75158
1.73854
1.73274
1.7288
1.72608
1.72438
1.72313
1.72209
1.72161
1.72496
1.72905
1.72826
1.72675
1.72531
1.72361
1.72092
1.71714
1.71258
1.70425
1.68944
1.67694
1.67174
1.66947
1.66682
1.66475
1.66294
1.66108
1.65929
1.65758
1.65583
1.65439
1.65341
1.65236
1.64994
1.64286
1.62993
1.62268
1.62237
1.62256
1.62288
1.62295
1.62294
1.6233
1.62514
1.62877
1.63263
1.63619
1.64007
1.64323
1.64448
1.64477
1.6427
1.63344
1.62039
1.61578
1.61466
1.61434
1.6151
1.6185
1.626
1.62967
1.62802
1.62491
1.62126
1.61636
1.60789
1.59164
1.57441
1.5685
1.5667
1.5653
1.56452
1.56542
1.57234
1.58151
1.5853
1.58494
1.58334
1.57856
1.56428
1.54131
1.52862
1.52527
1.52324
1.52157
1.5217
1.53105
1.53872
1.53727
1.53519
1.53324
1.52788
1.51035
1.48562
1.47701
1.47549
1.4751
1.47503
1.48143
1.50793
1.54086
1.54575
1.54233
1.53651
1.52611
1.49865
1.44576
1.41481
1.40975
1.4085
1.40769
1.40888
1.42044
1.45293
1.48722
1.49719
1.4992
1.4993
1.49349
1.46953
1.43523
1.42392
1.42238
1.42017
1.41863
1.42086
1.43612
1.46014
1.46937
1.47008
1.47049
1.4671
1.44619
1.40734
1.3884
1.38489
1.38292
1.38099
1.37972
1.37977
1.38874
1.4168
1.43543
1.43545
1.43344
1.43002
1.42069
1.38845
1.34273
1.32751
1.32505
1.32364
1.32262
1.32205
1.32305
1.33436
1.36604
1.39112
1.39264
1.39099
1.38889
1.38619
1.38113
1.36644
1.33175
1.30835
1.30689
1.30907
1.31429
1.3222
1.331
1.33901
1.34696
1.35758
1.3727
1.3815
1.38188
1.38094
1.37813
1.37335
1.36828
1.36256
1.35397
1.34596
1.34313
1.34234
1.34174
1.34345
1.35309
1.35896
1.3578
1.35648
1.35536
1.35312
1.34629
1.32691
1.29686
1.28622
1.28627
1.88919
1.8876
1.88664
1.88637
1.89333
1.92402
1.97247
1.99173
1.99121
1.98969
1.98742
1.98327
1.97349
1.94924
1.90631
1.8801
1.87371
1.87224
1.87162
1.87171
1.8735
1.87428
1.87421
1.8746
1.87744
1.88376
1.88934
1.89145
1.89261
1.89281
1.89068
1.8839
1.86799
1.84798
1.83784
1.8358
1.83496
1.83461
1.83355
1.83171
1.82871
1.82411
1.82108
1.81927
1.81773
1.81666
1.81676
1.82237
1.82889
1.83035
1.82974
1.82719
1.81937
1.79339
1.75177
1.73236
1.72887
1.72647
1.72369
1.72169
1.72059
1.72111
1.72444
1.72561
1.72609
1.72572
1.72436
1.72293
1.72109
1.71793
1.71328
1.70835
1.70328
1.69418
1.68019
1.67049
1.66628
1.66339
1.66047
1.65828
1.65662
1.65509
1.65435
1.65476
1.65406
1.65276
1.65144
1.64982
1.64661
1.6371
1.62345
1.61833
1.61762
1.61672
1.61588
1.61541
1.61525
1.61555
1.61756
1.62103
1.62426
1.62764
1.63181
1.63495
1.6362
1.63649
1.63316
1.62236
1.61413
1.61248
1.61209
1.61272
1.61489
1.61981
1.62538
1.6249
1.6221
1.61834
1.61375
1.60694
1.59411
1.57638
1.56641
1.56389
1.56236
1.56145
1.56174
1.56796
1.58064
1.58687
1.58686
1.58575
1.58249
1.57388
1.55436
1.53119
1.51943
1.517
1.51507
1.51362
1.51555
1.52798
1.5336
1.53185
1.53004
1.52836
1.52245
1.50245
1.48017
1.47507
1.47446
1.47428
1.47538
1.48533
1.51393
1.53681
1.53702
1.53336
1.52785
1.51532
1.4792
1.42487
1.40289
1.40006
1.39949
1.39948
1.40406
1.4256
1.47045
1.50205
1.50898
1.50955
1.5075
1.49473
1.45836
1.42121
1.40988
1.40592
1.40305
1.40212
1.40701
1.42987
1.45941
1.46957
1.47178
1.47227
1.46723
1.43882
1.3959
1.37933
1.37583
1.37362
1.37202
1.37107
1.37225
1.38702
1.41885
1.43176
1.43095
1.42899
1.4248
1.41061
1.36885
1.32823
1.31993
1.31936
1.31872
1.31815
1.31806
1.32246
1.34166
1.37459
1.3884
1.38798
1.38607
1.38397
1.38104
1.37388
1.3518
1.31397
1.29909
1.29903
1.30105
1.30544
1.31261
1.32125
1.32998
1.34
1.35387
1.37097
1.37784
1.37798
1.37733
1.37482
1.37043
1.36542
1.35896
1.34939
1.34188
1.33966
1.33884
1.33837
1.34133
1.35108
1.35362
1.35203
1.3508
1.3494
1.34636
1.33677
1.31278
1.28926
1.28596
1.8892
1.88642
1.8851
1.88464
1.88945
1.91179
1.95423
1.97875
1.98043
1.97918
1.97746
1.97448
1.96795
1.95252
1.92525
1.8915
1.87283
1.8671
1.86574
1.86577
1.86655
1.86567
1.86412
1.86305
1.86299
1.86698
1.8781
1.8893
1.89554
1.89747
1.89642
1.89331
1.88527
1.86464
1.83968
1.82886
1.8273
1.82693
1.82665
1.82519
1.82285
1.81941
1.8166
1.81487
1.81322
1.8118
1.8112
1.81499
1.82764
1.83324
1.83186
1.82873
1.82249
1.80389
1.76078
1.7317
1.72551
1.72364
1.72199
1.72051
1.71956
1.72022
1.72253
1.72375
1.72399
1.72337
1.72205
1.72051
1.71782
1.71361
1.70966
1.70572
1.70138
1.69668
1.68841
1.67448
1.66315
1.65853
1.65577
1.65385
1.65239
1.65116
1.65045
1.65077
1.65227
1.65255
1.6516
1.65025
1.64835
1.64335
1.62979
1.61631
1.61298
1.61155
1.61025
1.60912
1.60823
1.60769
1.6079
1.61045
1.61373
1.61636
1.61972
1.62407
1.62714
1.62841
1.62847
1.62335
1.61266
1.6095
1.60917
1.60956
1.61108
1.61408
1.61889
1.62027
1.61852
1.61516
1.61054
1.60434
1.59488
1.58003
1.56695
1.56232
1.56064
1.55954
1.55909
1.56204
1.57337
1.58486
1.5883
1.58772
1.58532
1.57967
1.56685
1.5421
1.51936
1.51119
1.50932
1.50736
1.50637
1.51129
1.52522
1.52905
1.52775
1.52671
1.52561
1.51947
1.49802
1.47809
1.47397
1.47337
1.47285
1.47397
1.48632
1.51543
1.53088
1.52928
1.52511
1.51821
1.50018
1.45449
1.40756
1.39573
1.39458
1.39434
1.39569
1.40773
1.44682
1.49944
1.51617
1.51701
1.51578
1.50929
1.48335
1.43133
1.39962
1.39258
1.38966
1.38829
1.38931
1.40304
1.43966
1.46913
1.47384
1.47459
1.47362
1.45967
1.41626
1.37884
1.37029
1.36793
1.36622
1.36499
1.36439
1.36838
1.39126
1.42123
1.42664
1.42511
1.42237
1.41594
1.39422
1.34649
1.31951
1.31644
1.31615
1.31586
1.31568
1.31665
1.32474
1.35018
1.38008
1.38564
1.38409
1.38176
1.37913
1.37462
1.36348
1.33353
1.29982
1.29239
1.29279
1.29459
1.29835
1.30456
1.31273
1.32204
1.33342
1.35013
1.36849
1.37385
1.3741
1.37381
1.37143
1.36734
1.36213
1.35455
1.34433
1.33744
1.33577
1.335
1.3348
1.33963
1.34809
1.34814
1.34644
1.34522
1.34363
1.33927
1.32603
1.29908
1.28647
1.8969
1.88998
1.88861
1.88835
1.89313
1.9094
1.93809
1.9659
1.97158
1.96921
1.96588
1.96157
1.955
1.94562
1.9328
1.9149
1.88834
1.86825
1.86185
1.86071
1.85974
1.85826
1.85581
1.85262
1.85101
1.85129
1.86029
1.88523
1.89966
1.89975
1.89814
1.89587
1.89175
1.88087
1.85461
1.82894
1.82028
1.81913
1.81894
1.81818
1.81611
1.8132
1.81146
1.81021
1.80901
1.80783
1.8077
1.81204
1.82129
1.8255
1.82506
1.82347
1.82006
1.80907
1.77995
1.7411
1.72625
1.72224
1.72043
1.71952
1.7199
1.72224
1.72328
1.72241
1.72136
1.72009
1.71862
1.71692
1.71379
1.70963
1.70715
1.70525
1.70288
1.6992
1.69196
1.67762
1.66171
1.65422
1.65163
1.64989
1.64845
1.64733
1.64671
1.64819
1.65177
1.65264
1.65199
1.65096
1.64971
1.64698
1.63663
1.61736
1.60806
1.60593
1.60423
1.60268
1.60136
1.6004
1.6002
1.60232
1.60522
1.60705
1.60926
1.61292
1.61716
1.61989
1.62106
1.62029
1.61255
1.60492
1.60489
1.6053
1.6063
1.60842
1.61166
1.61399
1.61341
1.61104
1.60701
1.60157
1.59462
1.58362
1.56986
1.56237
1.5601
1.55869
1.55798
1.55915
1.56897
1.5851
1.5897
1.58908
1.58675
1.58254
1.57482
1.55788
1.529
1.50861
1.50351
1.50149
1.49989
1.50004
1.50866
1.52203
1.52645
1.52693
1.52679
1.52523
1.51631
1.49194
1.47489
1.47183
1.47132
1.47093
1.47252
1.48536
1.51218
1.52191
1.51944
1.51522
1.50663
1.48323
1.43327
1.39883
1.39334
1.39281
1.39299
1.3986
1.42525
1.48251
1.51958
1.5215
1.52013
1.51572
1.49883
1.44875
1.39502
1.38151
1.3799
1.37907
1.37901
1.38541
1.41207
1.45377
1.47312
1.47437
1.47356
1.46624
1.43742
1.38833
1.36634
1.36288
1.36124
1.35992
1.35893
1.35898
1.36813
1.39786
1.41936
1.42007
1.41833
1.41555
1.4071
1.37838
1.33176
1.31461
1.31324
1.31278
1.31237
1.31218
1.31418
1.32633
1.3565
1.37965
1.38104
1.37911
1.37663
1.37345
1.36724
1.3511
1.31578
1.28973
1.28625
1.28668
1.28794
1.29114
1.29666
1.30451
1.3146
1.32783
1.34694
1.36589
1.3703
1.37059
1.37022
1.36744
1.36319
1.35767
1.34897
1.33872
1.33314
1.33205
1.33133
1.33161
1.33792
1.34358
1.34239
1.34058
1.33936
1.33743
1.33158
1.31376
1.29058
1.92916
1.90582
1.90015
1.89967
1.90297
1.91242
1.9247
1.94082
1.95639
1.95904
1.95591
1.95048
1.9429
1.93612
1.93162
1.92493
1.91175
1.88612
1.86315
1.85501
1.85257
1.85
1.84633
1.84259
1.84092
1.84068
1.84565
1.86719
1.89544
1.90104
1.8991
1.89656
1.89305
1.88656
1.87274
1.84352
1.81931
1.81169
1.81039
1.80955
1.80807
1.80665
1.8057
1.80499
1.80457
1.80449
1.80545
1.81182
1.81909
1.81943
1.81769
1.81559
1.81239
1.80612
1.79153
1.76479
1.73573
1.72357
1.72001
1.71827
1.71751
1.71794
1.7196
1.7197
1.71853
1.71697
1.71527
1.71315
1.7107
1.70843
1.7057
1.70251
1.69953
1.69612
1.69058
1.67971
1.66329
1.65281
1.64926
1.64754
1.64608
1.64504
1.6446
1.64552
1.64992
1.65419
1.65408
1.65282
1.65121
1.64827
1.63915
1.61957
1.6043
1.60107
1.59947
1.59799
1.59672
1.59571
1.59537
1.59692
1.59876
1.59965
1.60114
1.60407
1.60766
1.61078
1.61264
1.61349
1.61117
1.60136
1.59823
1.59952
1.60074
1.60223
1.6043
1.60628
1.6063
1.60507
1.60228
1.59786
1.59238
1.5852
1.57417
1.56415
1.56099
1.55976
1.55913
1.55968
1.56414
1.57622
1.58918
1.59003
1.58834
1.58508
1.57964
1.56901
1.54596
1.5137
1.49795
1.49536
1.49355
1.4925
1.49442
1.50602
1.5205
1.52627
1.52676
1.52631
1.52435
1.51305
1.48726
1.47192
1.46864
1.46771
1.46668
1.46792
1.48259
1.50703
1.51185
1.50915
1.50542
1.49538
1.46851
1.42013
1.39544
1.3933
1.39338
1.39729
1.41241
1.45349
1.50616
1.52199
1.52044
1.51534
1.50247
1.46527
1.40351
1.37857
1.37609
1.37552
1.3752
1.37749
1.39203
1.42685
1.45916
1.46679
1.46692
1.46393
1.44881
1.40768
1.36804
1.35878
1.35688
1.3556
1.3545
1.35378
1.35575
1.37263
1.40405
1.41512
1.41437
1.41281
1.40966
1.39733
1.35981
1.31919
1.31025
1.30958
1.30909
1.30866
1.30859
1.31201
1.32822
1.36017
1.37647
1.37615
1.37393
1.37108
1.36685
1.35827
1.33667
1.30011
1.28269
1.28118
1.28141
1.28239
1.28527
1.29051
1.29836
1.30927
1.3237
1.34455
1.36248
1.36593
1.36619
1.3654
1.36255
1.35854
1.35284
1.34387
1.33387
1.32885
1.32784
1.32709
1.32799
1.3352
1.33816
1.33632
1.3347
1.33355
1.33146
1.3236
1.30031
1.95822
1.93543
1.91552
1.91154
1.91172
1.91492
1.91887
1.92261
1.93068
1.94246
1.94435
1.94019
1.93341
1.92926
1.92738
1.92551
1.92103
1.90795
1.87883
1.85335
1.84415
1.84069
1.83806
1.83636
1.83559
1.83577
1.84008
1.85295
1.87421
1.88945
1.89132
1.88949
1.88738
1.88504
1.8789
1.86321
1.83247
1.80959
1.80242
1.80134
1.80065
1.80017
1.79958
1.79878
1.79824
1.79968
1.80676
1.81316
1.81441
1.81342
1.81133
1.80834
1.80413
1.7983
1.79042
1.7782
1.76077
1.7382
1.72247
1.71814
1.71676
1.71665
1.71724
1.71677
1.71553
1.7141
1.71248
1.71031
1.70791
1.70552
1.70307
1.70062
1.69796
1.69489
1.69072
1.68265
1.66839
1.65376
1.64699
1.64527
1.644
1.64283
1.64232
1.64423
1.64727
1.64843
1.64842
1.64731
1.64577
1.64354
1.63804
1.62251
1.60415
1.59816
1.59673
1.59528
1.59409
1.59321
1.59261
1.59314
1.59435
1.59474
1.59507
1.59635
1.59863
1.60133
1.60388
1.60534
1.60561
1.60064
1.59169
1.59163
1.59375
1.59527
1.59679
1.59792
1.59803
1.59746
1.59594
1.59318
1.58965
1.58544
1.57853
1.56843
1.56301
1.56184
1.56106
1.56101
1.56303
1.5687
1.58069
1.58987
1.5894
1.5869
1.58233
1.57477
1.5594
1.52885
1.49891
1.48948
1.48781
1.48634
1.48581
1.49022
1.50553
1.52155
1.5278
1.52926
1.52899
1.52529
1.50874
1.47995
1.46674
1.46439
1.46365
1.46291
1.46513
1.48077
1.50022
1.50192
1.49908
1.49554
1.48555
1.4596
1.41831
1.39964
1.39846
1.40029
1.41056
1.43355
1.47345
1.5048
1.50897
1.50671
1.49861
1.47582
1.42618
1.38258
1.37455
1.37351
1.37308
1.37332
1.37937
1.40097
1.4356
1.45534
1.4576
1.457
1.44965
1.42507
1.38175
1.35775
1.35352
1.35218
1.35116
1.35034
1.35022
1.35665
1.38083
1.40597
1.40974
1.40871
1.4069
1.40186
1.38418
1.34177
1.31079
1.30615
1.30563
1.30512
1.30474
1.30495
1.31001
1.33006
1.36178
1.37222
1.37098
1.36811
1.36459
1.35954
1.34913
1.32348
1.2891
1.2778
1.27722
1.27725
1.27796
1.28018
1.28495
1.29274
1.30383
1.31951
1.34033
1.35707
1.35981
1.36005
1.35936
1.35735
1.35361
1.34757
1.33783
1.3278
1.32392
1.32287
1.32213
1.32428
1.33195
1.33245
1.3305
1.32932
1.32841
1.3258
1.31015
1.97431
1.96683
1.94733
1.92747
1.92078
1.91808
1.91597
1.91376
1.91274
1.91637
1.92628
1.92869
1.92658
1.92598
1.9257
1.92519
1.92321
1.91769
1.89795
1.85978
1.83965
1.83577
1.83435
1.83329
1.83277
1.83348
1.83774
1.84546
1.85622
1.87022
1.88125
1.88284
1.88094
1.87886
1.87621
1.86937
1.85317
1.82275
1.80165
1.79535
1.7944
1.79374
1.79269
1.79148
1.79083
1.79244
1.79964
1.80595
1.80669
1.80579
1.80437
1.80205
1.79777
1.79073
1.78408
1.77927
1.77313
1.76305
1.7445
1.72422
1.71634
1.71396
1.71335
1.71294
1.71185
1.71055
1.70898
1.70717
1.70522
1.70307
1.70065
1.69791
1.69476
1.69115
1.68707
1.68174
1.67244
1.65735
1.64628
1.64322
1.64252
1.64213
1.64191
1.64338
1.64562
1.6461
1.64535
1.64392
1.64221
1.63967
1.63472
1.62363
1.60637
1.5971
1.59527
1.59407
1.59278
1.59212
1.59198
1.59119
1.59033
1.58989
1.58967
1.58995
1.59162
1.59421
1.59659
1.59804
1.59876
1.59756
1.58902
1.58294
1.58439
1.5872
1.58872
1.58885
1.58908
1.58899
1.5885
1.58737
1.58564
1.58358
1.58031
1.5734
1.56545
1.56327
1.56276
1.56254
1.56276
1.56435
1.57085
1.58338
1.58757
1.58585
1.58258
1.57714
1.56696
1.54621
1.51139
1.48797
1.48295
1.48148
1.48043
1.48103
1.48965
1.51005
1.52795
1.53231
1.53259
1.53154
1.52489
1.50249
1.47306
1.46226
1.46068
1.45938
1.45798
1.45953
1.4751
1.49261
1.49326
1.49016
1.48617
1.47681
1.45503
1.42341
1.41084
1.41047
1.41425
1.42532
1.44659
1.47614
1.49124
1.49079
1.48578
1.47338
1.44656
1.40274
1.37584
1.37155
1.37075
1.37057
1.37291
1.38416
1.40841
1.43459
1.44411
1.4444
1.44176
1.42909
1.4012
1.36637
1.35281
1.35034
1.34926
1.34842
1.34788
1.34938
1.36117
1.38701
1.40283
1.40329
1.40193
1.39939
1.39202
1.36905
1.32592
1.3042
1.3018
1.30129
1.30074
1.30031
1.30068
1.30748
1.3318
1.36147
1.36691
1.36511
1.36234
1.35896
1.35393
1.34154
1.31113
1.28011
1.27314
1.27277
1.27263
1.27294
1.27453
1.27881
1.28696
1.29854
1.31499
1.33504
1.3498
1.35335
1.35368
1.35315
1.35151
1.34756
1.34079
1.33028
1.32104
1.31851
1.31738
1.31695
1.32191
1.32841
1.32726
1.32581
1.32526
1.32482
1.3154
1.98638
1.98456
1.9781
1.95919
1.93128
1.91533
1.90949
1.90544
1.90176
1.89956
1.90157
1.91428
1.9224
1.92381
1.92565
1.92487
1.9226
1.91927
1.90882
1.87502
1.84144
1.83409
1.83237
1.83124
1.83061
1.83158
1.83633
1.84178
1.84604
1.85092
1.85937
1.87004
1.87319
1.87156
1.86956
1.86742
1.86119
1.8454
1.81449
1.79395
1.78787
1.78657
1.78551
1.78445
1.78409
1.78721
1.79418
1.79774
1.79802
1.79727
1.79607
1.79403
1.79021
1.78474
1.78091
1.77914
1.77706
1.77345
1.76532
1.74644
1.72225
1.71211
1.71014
1.70926
1.70786
1.70645
1.70546
1.70411
1.70219
1.69973
1.69702
1.6944
1.69177
1.68887
1.68541
1.68121
1.67454
1.66361
1.65091
1.64362
1.64159
1.64097
1.64174
1.64451
1.64414
1.64275
1.64167
1.64029
1.63859
1.63599
1.63122
1.62338
1.61037
1.59822
1.59445
1.59339
1.59309
1.59252
1.59069
1.58881
1.58714
1.58631
1.58632
1.58655
1.58675
1.58775
1.58955
1.59101
1.59179
1.59194
1.58783
1.57767
1.57498
1.57709
1.57937
1.5799
1.57992
1.58008
1.58043
1.58121
1.58134
1.58054
1.57878
1.57508
1.56813
1.56339
1.56268
1.56233
1.56223
1.56263
1.56514
1.57503
1.58564
1.58526
1.58179
1.57682
1.57001
1.55779
1.53173
1.49574
1.47988
1.47753
1.47634
1.47586
1.47854
1.49195
1.51605
1.53281
1.53601
1.53603
1.53407
1.5239
1.49598
1.46623
1.45622
1.45434
1.45229
1.45063
1.45232
1.46894
1.48557
1.48567
1.48332
1.48086
1.47508
1.45799
1.43093
1.42108
1.42094
1.42408
1.43188
1.44635
1.46533
1.47184
1.46906
1.46126
1.44774
1.4253
1.39254
1.37239
1.36902
1.36866
1.3696
1.37554
1.38856
1.40732
1.42401
1.42863
1.42782
1.42249
1.40889
1.3858
1.35921
1.34966
1.34836
1.34775
1.34709
1.34692
1.35036
1.36492
1.38787
1.39653
1.39591
1.39413
1.39079
1.38129
1.35437
1.31382
1.29923
1.29774
1.297
1.29621
1.29561
1.29615
1.30566
1.33477
1.36048
1.36295
1.3615
1.35968
1.35648
1.3497
1.33222
1.29632
1.27148
1.26783
1.26745
1.26701
1.267
1.26813
1.27297
1.28244
1.29474
1.31068
1.33022
1.34287
1.34627
1.34678
1.34631
1.34456
1.34006
1.33235
1.32193
1.31503
1.31333
1.31235
1.31319
1.32157
1.32453
1.32269
1.32166
1.32107
1.31602
1.99743
1.99634
1.99335
1.98347
1.95548
1.92133
1.90503
1.89811
1.89309
1.88999
1.8891
1.89698
1.91805
1.92454
1.92428
1.9243
1.92265
1.91979
1.91308
1.89382
1.85697
1.83567
1.83207
1.8306
1.82979
1.83042
1.8344
1.83864
1.84035
1.84082
1.84189
1.84793
1.86008
1.86376
1.86221
1.86074
1.85943
1.8537
1.8357
1.80377
1.78581
1.78064
1.77949
1.7787
1.77855
1.78237
1.78755
1.78843
1.78805
1.78728
1.7853
1.7819
1.77986
1.77944
1.78091
1.77984
1.77782
1.77599
1.773
1.76555
1.74636
1.7191
1.70583
1.70384
1.70282
1.7021
1.70193
1.70102
1.69914
1.69668
1.69401
1.69167
1.6896
1.68719
1.68363
1.67826
1.67214
1.66614
1.65836
1.64862
1.64215
1.64024
1.6398
1.63987
1.64027
1.6395
1.63832
1.63682
1.63496
1.63185
1.6259
1.61903
1.61233
1.60356
1.59708
1.59557
1.59493
1.59248
1.5899
1.58819
1.58633
1.58459
1.58352
1.5827
1.58222
1.58272
1.58451
1.58541
1.58569
1.58575
1.58416
1.57534
1.56634
1.56635
1.56891
1.5708
1.57098
1.57111
1.57184
1.57341
1.57544
1.57671
1.57722
1.5758
1.56976
1.56306
1.56147
1.56123
1.56134
1.56176
1.56229
1.56649
1.57917
1.58467
1.58225
1.57788
1.57232
1.56413
1.54806
1.51499
1.48286
1.47392
1.47256
1.47171
1.47177
1.47739
1.49701
1.52612
1.5396
1.54123
1.54062
1.53618
1.52045
1.4866
1.45664
1.44638
1.44416
1.44192
1.44038
1.44346
1.4643
1.48314
1.48518
1.48496
1.48403
1.48025
1.46442
1.43709
1.42664
1.42564
1.42502
1.42606
1.43316
1.44653
1.45079
1.44721
1.43977
1.43027
1.41532
1.38976
1.37029
1.36697
1.36739
1.37037
1.37612
1.38397
1.39639
1.40964
1.41266
1.41105
1.40601
1.39613
1.3785
1.35582
1.34615
1.34451
1.3441
1.34366
1.34431
1.35085
1.36688
1.38515
1.38985
1.38881
1.3868
1.38288
1.37104
1.33924
1.30239
1.29222
1.29119
1.29032
1.28958
1.28921
1.29205
1.3085
1.34199
1.35959
1.35948
1.35765
1.35556
1.35184
1.34301
1.31932
1.28116
1.26524
1.26355
1.26281
1.26223
1.26212
1.26336
1.26902
1.27942
1.29163
1.30768
1.32563
1.33418
1.33754
1.33835
1.33792
1.33632
1.33178
1.32361
1.31394
1.30962
1.30828
1.30762
1.31188
1.3209
1.32056
1.31907
1.31857
1.31512
2.00693
2.00624
2.00397
1.99827
1.97802
1.9345
1.90167
1.89123
1.88673
1.8839
1.88203
1.88343
1.90065
1.91586
1.91517
1.91382
1.91298
1.9109
1.90765
1.90042
1.88196
1.85245
1.83643
1.83322
1.83192
1.83161
1.8327
1.83479
1.83472
1.83306
1.8317
1.8321
1.8407
1.85279
1.85414
1.85309
1.85216
1.8504
1.84277
1.82186
1.79278
1.77882
1.77442
1.77354
1.77337
1.77687
1.78051
1.77981
1.77807
1.77584
1.77356
1.77215
1.77141
1.77133
1.77457
1.77857
1.77927
1.7788
1.77737
1.77395
1.76427
1.7372
1.70771
1.69969
1.69871
1.69792
1.69772
1.69829
1.69699
1.69449
1.69192
1.68932
1.6871
1.68508
1.68223
1.6772
1.67083
1.66599
1.66233
1.65687
1.6477
1.6401
1.63786
1.63715
1.63658
1.63596
1.63472
1.63316
1.63061
1.6264
1.62162
1.61709
1.61353
1.60882
1.60021
1.5922
1.58979
1.58848
1.58699
1.58575
1.58418
1.58213
1.58069
1.58
1.57972
1.58015
1.58078
1.58009
1.57977
1.57959
1.57862
1.5728
1.56198
1.55862
1.55942
1.56163
1.56289
1.563
1.56353
1.56528
1.56879
1.57255
1.57329
1.57288
1.56929
1.56261
1.5597
1.55943
1.55986
1.56031
1.56036
1.56142
1.56901
1.58224
1.58318
1.57974
1.57474
1.56829
1.55801
1.53583
1.49762
1.47376
1.4689
1.46794
1.46734
1.46854
1.47938
1.5081
1.53876
1.54545
1.54538
1.5431
1.53495
1.51297
1.47371
1.44439
1.43506
1.4328
1.43105
1.43055
1.43962
1.46928
1.48887
1.49213
1.49283
1.49242
1.4877
1.46809
1.43557
1.41987
1.41536
1.41198
1.41009
1.4126
1.42605
1.43332
1.43126
1.42825
1.42349
1.4118
1.38777
1.3682
1.36459
1.36504
1.36606
1.36758
1.37158
1.38278
1.39684
1.39997
1.39866
1.39518
1.3878
1.37152
1.35073
1.34308
1.34175
1.34142
1.34163
1.34483
1.35224
1.36585
1.3804
1.38292
1.38128
1.37833
1.37227
1.35697
1.32199
1.29269
1.28692
1.28643
1.28611
1.28592
1.28649
1.29246
1.31402
1.34673
1.35709
1.35608
1.35397
1.35147
1.347
1.33555
1.30502
1.27002
1.26045
1.25913
1.25808
1.25743
1.25731
1.25859
1.26506
1.27632
1.28867
1.30525
1.31944
1.32392
1.32763
1.32963
1.32955
1.32834
1.32317
1.31421
1.30671
1.30442
1.30343
1.30415
1.31376
1.31964
1.31772
1.31709
1.31491
2.0143
2.01376
2.01131
2.0066
1.99085
1.9461
1.90203
1.88876
1.88488
1.88221
1.87985
1.87855
1.88601
1.9083
1.91369
1.91109
1.90826
1.90476
1.90072
1.89729
1.8909
1.87621
1.85254
1.84006
1.83788
1.83643
1.83393
1.83073
1.82842
1.82674
1.82516
1.82422
1.82673
1.83784
1.84454
1.84405
1.84289
1.84126
1.8378
1.82805
1.80905
1.78566
1.77384
1.76992
1.76938
1.77057
1.77203
1.77122
1.76903
1.7652
1.76256
1.7616
1.76139
1.76325
1.76965
1.78016
1.78387
1.78265
1.78017
1.77669
1.77027
1.75391
1.71991
1.69931
1.6957
1.69502
1.69479
1.69596
1.69518
1.69274
1.69035
1.68796
1.68496
1.68193
1.6788
1.67515
1.67083
1.66736
1.66442
1.66088
1.6545
1.64405
1.63658
1.63462
1.63363
1.63236
1.63076
1.62869
1.62536
1.62139
1.61983
1.61895
1.6169
1.61245
1.60416
1.59382
1.58762
1.58602
1.58499
1.58409
1.58273
1.58095
1.5791
1.57778
1.57685
1.57645
1.57678
1.57658
1.57605
1.57547
1.57451
1.57038
1.55955
1.55357
1.5533
1.5539
1.55578
1.55683
1.5572
1.55832
1.56148
1.56619
1.5686
1.56917
1.56815
1.5628
1.55754
1.55689
1.55734
1.55777
1.55803
1.5587
1.56169
1.57252
1.58361
1.58199
1.57745
1.57175
1.56409
1.55035
1.52137
1.48342
1.46848
1.46625
1.46566
1.46561
1.46972
1.4878
1.52334
1.54647
1.54805
1.54699
1.54278
1.53135
1.50316
1.45838
1.43072
1.42447
1.42277
1.42147
1.42291
1.44144
1.47925
1.49701
1.5003
1.50083
1.49972
1.49099