/*--------------------------------*- C++ -*----------------------------------*\
  =========                 |
  \\      /  F ield         | OpenFOAM: The Open Source CFD Toolbox
   \\    /   O peration     | Website:  https://openfoam.org
    \\  /    A nd           | Version:  7
     \\/     M anipulation  |
\*---------------------------------------------------------------------------*/
FoamFile
{
    version     2.0;
    format      ascii;
    class       volScalarField;
    location    "1.5";
    object      T;
}
// * * * * * * * * * * * * * * * * * * * * * * * * * * * * * * * * * * * * * //

dimensions      [0 0 0 1 0 0 0];

internalField   nonuniform List<scalar> 
16192
(
1.36958
1.37096
1.37309
1.37475
1.37475
1.37353
1.37134
1.369
1.3658
1.36197
1.35993
1.35985
1.36086
1.36214
1.36214
1.362
1.36143
1.35988
1.35777
1.35647
1.35659
1.35663
1.35481
1.35253
1.35059
1.34746
1.34046
1.32994
1.32523
1.32402
1.32339
1.32293
1.32339
1.32673
1.32953
1.32918
1.32804
1.32688
1.32562
1.32404
1.32249
1.32154
1.32082
1.32024
1.31967
1.31882
1.31756
1.31553
1.31171
1.30438
1.29792
1.29553
1.29475
1.29438
1.29424
1.29428
1.29425
1.29331
1.2902
1.28827
1.28808
1.28796
1.28771
1.28722
1.28722
1.28835
1.28851
1.28712
1.28486
1.28274
1.27963
1.27452
1.27131
1.27127
1.27127
1.27129
1.27147
1.27182
1.27251
1.27353
1.27445
1.27526
1.27595
1.27629
1.27597
1.27266
1.26574
1.26159
1.26003
1.25949
1.2595
1.25962
1.26011
1.26159
1.26437
1.26794
1.27143
1.27411
1.2758
1.27687
1.27752
1.27774
1.27746
1.27506
1.26844
1.26297
1.26065
1.25925
1.25788
1.25704
1.25739
1.25947
1.26049
1.25965
1.25842
1.25816
1.25792
1.25682
1.25369
1.25112
1.25095
1.25196
1.254
1.25538
1.25584
1.25587
1.25547
1.25401
1.25103
1.24647
1.24008
1.2328
1.22866
1.22769
1.22747
1.22783
1.23163
1.23823
1.24201
1.24536
1.24863
1.25002
1.24971
1.24416
1.23585
1.23208
1.22969
1.2266
1.22328
1.22153
1.2222
1.22734
1.22967
1.22856
1.22725
1.22627
1.22282
1.21299
1.20843
1.21
1.21394
1.21666
1.21869
1.22241
1.22796
1.22978
1.22767
1.22143
1.21385
1.20493
1.19262
1.18339
1.1818
1.18183
1.184
1.19095
1.20419
1.21496
1.2168
1.21495
1.2078
1.19568
1.17816
1.15658
1.14612
1.14407
1.14331
1.14299
1.14304
1.14502
1.15196
1.16422
1.17281
1.17383
1.17356
1.17291
1.17033
1.16281
1.14765
1.13818
1.13681
1.1366
1.13625
1.13574
1.13553
1.13616
1.14021
1.14756
1.1496
1.14854
1.14659
1.14527
1.1443
1.14287
1.13894
1.13034
1.12667
1.12804
1.13192
1.13696
1.14143
1.14466
1.14737
1.15018
1.15338
1.15638
1.15714
1.15666
1.15552
1.1536
1.1506
1.1463
1.14026
1.13364
1.1302
1.12938
1.12897
1.12865
1.12894
1.13247
1.13792
1.13909
1.1394
1.14007
1.14034
1.14004
1.13722
1.1276
1.11718
1.11445
1.11399
1.11372
1.11334
1.36421
1.36397
1.36467
1.36753
1.37004
1.37008
1.3692
1.36881
1.36913
1.36873
1.36639
1.36213
1.35915
1.35842
1.35839
1.35792
1.35665
1.3545
1.35286
1.35206
1.35231
1.35344
1.35305
1.35084
1.34879
1.34677
1.34306
1.33562
1.32687
1.3237
1.32278
1.32232
1.32264
1.32552
1.32796
1.32751
1.32641
1.32534
1.32388
1.32171
1.32051
1.31985
1.31925
1.31881
1.31844
1.31757
1.31652
1.31532
1.31333
1.30949
1.30226
1.29573
1.29335
1.2928
1.29268
1.29254
1.29217
1.29055
1.2879
1.28716
1.28719
1.28714
1.28695
1.28655
1.28655
1.28708
1.28804
1.28744
1.28525
1.28313
1.28073
1.27595
1.2707
1.26982
1.26987
1.2699
1.27003
1.27034
1.27101
1.272
1.27281
1.27349
1.27404
1.27432
1.27429
1.27294
1.26798
1.26181
1.25901
1.25792
1.25774
1.2579
1.25868
1.26004
1.26161
1.26351
1.26614
1.26935
1.27221
1.27402
1.27504
1.27562
1.27573
1.27507
1.27156
1.2647
1.26024
1.25805
1.2565
1.25536
1.25519
1.25683
1.25916
1.25859
1.25735
1.25728
1.25728
1.25714
1.25601
1.25261
1.25026
1.2505
1.25187
1.25319
1.25351
1.2536
1.25366
1.25309
1.25092
1.24691
1.24202
1.23602
1.22954
1.22673
1.2267
1.22693
1.22871
1.23478
1.24175
1.24543
1.2485
1.25069
1.25103
1.24936
1.24099
1.23222
1.22802
1.22494
1.22132
1.2181
1.21725
1.21979
1.22709
1.22869
1.22829
1.22876
1.22909
1.22563
1.21433
1.21023
1.21146
1.21395
1.21505
1.21603
1.21872
1.22325
1.22414
1.22113
1.2149
1.20855
1.20135
1.19187
1.18644
1.18599
1.18697
1.19114
1.1985
1.20719
1.21175
1.21168
1.20697
1.19671
1.18369
1.16803
1.15172
1.14528
1.14442
1.14416
1.14418
1.14547
1.14874
1.15449
1.1635
1.17022
1.17086
1.17028
1.16923
1.16663
1.15954
1.14503
1.13584
1.13432
1.13392
1.13332
1.1325
1.13193
1.1324
1.13652
1.1443
1.14634
1.14533
1.14391
1.14309
1.1424
1.1411
1.13677
1.12761
1.12423
1.12547
1.12895
1.13347
1.13783
1.14152
1.14478
1.14805
1.15143
1.15418
1.15469
1.15417
1.15291
1.15059
1.1471
1.14228
1.13598
1.13004
1.12784
1.12753
1.12732
1.12722
1.12844
1.13342
1.13719
1.13769
1.13834
1.13891
1.13895
1.13795
1.13236
1.12028
1.11317
1.11197
1.11174
1.11137
1.35985
1.35859
1.35837
1.35966
1.36353
1.36621
1.36714
1.36869
1.3708
1.37109
1.37049
1.36739
1.36065
1.35577
1.35425
1.35323
1.35159
1.34981
1.34874
1.34796
1.3479
1.34898
1.34988
1.349
1.34692
1.34507
1.34311
1.33936
1.33221
1.3249
1.3227
1.3222
1.32268
1.32538
1.32662
1.32601
1.32497
1.32394
1.32253
1.32032
1.31888
1.31821
1.31754
1.31694
1.31686
1.31672
1.31571
1.31453
1.31324
1.3112
1.30731
1.3002
1.29393
1.29156
1.29093
1.29058
1.28971
1.28757
1.28625
1.28626
1.28651
1.28661
1.28646
1.28605
1.2861
1.28681
1.28681
1.28538
1.28334
1.28194
1.28072
1.27762
1.27184
1.26891
1.2688
1.26879
1.26874
1.26895
1.26959
1.27059
1.27137
1.27195
1.27237
1.27253
1.27245
1.27182
1.2693
1.26407
1.25916
1.25715
1.25663
1.25667
1.25708
1.258
1.25889
1.25983
1.26145
1.26414
1.26739
1.27017
1.27193
1.27289
1.27331
1.27327
1.27196
1.26734
1.26106
1.25763
1.25566
1.25426
1.25375
1.25421
1.25673
1.2577
1.25696
1.25688
1.25708
1.25725
1.25683
1.25443
1.25031
1.2495
1.25026
1.25141
1.25159
1.25139
1.25156
1.25182
1.25108
1.24774
1.24289
1.23792
1.2319
1.22691
1.22572
1.22608
1.22747
1.23121
1.23841
1.24514
1.24808
1.24992
1.25074
1.2506
1.24717
1.23648
1.22739
1.22277
1.21907
1.21526
1.21317
1.21359
1.22045
1.2292
1.23063
1.23153
1.23295
1.23306
1.22699
1.21399
1.21095
1.21165
1.21198
1.21153
1.21151
1.21373
1.21862
1.21931
1.2162
1.21106
1.20648
1.20079
1.19364
1.19116
1.19136
1.19338
1.19664
1.20031
1.20408
1.20575
1.20428
1.19702
1.1863
1.17567
1.16406
1.15173
1.14667
1.14618
1.14617
1.14693
1.14825
1.14983
1.15326
1.16092
1.16744
1.1679
1.16718
1.16607
1.16364
1.15637
1.14157
1.13296
1.13149
1.13086
1.12997
1.12897
1.12829
1.12884
1.13377
1.14208
1.14392
1.14331
1.14212
1.14128
1.14062
1.13922
1.13379
1.12384
1.12128
1.12243
1.12552
1.12981
1.13421
1.13822
1.14195
1.14565
1.14927
1.1518
1.15207
1.15155
1.1502
1.14748
1.14348
1.13815
1.13184
1.1271
1.12594
1.1259
1.12583
1.12596
1.12846
1.13365
1.13564
1.13611
1.13692
1.13725
1.13704
1.13463
1.12588
1.11458
1.11072
1.11027
1.10977
1.35611
1.35399
1.35277
1.35291
1.3559
1.3621
1.36696
1.3701
1.3712
1.37121
1.37128
1.3706
1.36591
1.35599
1.34954
1.34766
1.34669
1.34593
1.34517
1.34438
1.34412
1.34431
1.34507
1.34556
1.34488
1.34304
1.34123
1.33939
1.33656
1.33162
1.32594
1.32357
1.32307
1.32326
1.32418
1.32396
1.32307
1.3221
1.32106
1.31952
1.31772
1.31676
1.31605
1.31533
1.31476
1.31471
1.31484
1.31415
1.31292
1.31142
1.3093
1.30537
1.29833
1.29206
1.28918
1.28782
1.28656
1.28527
1.28505
1.28537
1.28585
1.28613
1.28615
1.28601
1.28668
1.28712
1.28606
1.28389
1.28197
1.28056
1.27941
1.2777
1.27371
1.26922
1.26798
1.26791
1.2678
1.26789
1.26842
1.26928
1.26995
1.27046
1.27075
1.27079
1.27073
1.27028
1.26916
1.26657
1.26162
1.25764
1.25597
1.25543
1.25558
1.25592
1.25625
1.25663
1.25758
1.25969
1.26271
1.2657
1.26816
1.26976
1.27043
1.27065
1.27039
1.26819
1.26276
1.2579
1.25539
1.25364
1.25263
1.25254
1.25376
1.25631
1.25634
1.25581
1.25581
1.25603
1.25634
1.25545
1.25146
1.24885
1.24914
1.24994
1.25007
1.24977
1.24968
1.25034
1.25049
1.24837
1.24362
1.23899
1.23447
1.22878
1.22525
1.225
1.22619
1.22937
1.23447
1.24181
1.24799
1.24986
1.25062
1.25072
1.24936
1.24263
1.22992
1.2209
1.21623
1.21296
1.21042
1.20975
1.21267
1.22374
1.23101
1.23282
1.23501
1.23677
1.23581
1.22516
1.21186
1.2096
1.20929
1.20823
1.20673
1.20665
1.20981
1.21614
1.21675
1.21482
1.21195
1.20896
1.20396
1.19715
1.19545
1.19564
1.19603
1.19649
1.19706
1.19825
1.19902
1.19674
1.18912
1.18032
1.17259
1.16386
1.15321
1.14839
1.14796
1.14783
1.14779
1.14775
1.148
1.15076
1.15875
1.16521
1.16545
1.16469
1.1636
1.16105
1.15274
1.13735
1.12963
1.12831
1.12744
1.12633
1.1253
1.12489
1.12603
1.13265
1.1414
1.14266
1.14188
1.14052
1.13967
1.13897
1.1369
1.12911
1.11939
1.11806
1.11916
1.12196
1.12605
1.13049
1.13473
1.13888
1.14309
1.14714
1.14933
1.14942
1.14887
1.14727
1.14409
1.13963
1.13402
1.12821
1.12481
1.12425
1.12429
1.12426
1.1248
1.12833
1.13274
1.13375
1.13446
1.13518
1.13527
1.13454
1.13011
1.119
1.11061
1.10919
1.10849
1.35242
1.35047
1.3486
1.34806
1.34948
1.35717
1.36616
1.36965
1.37121
1.37187
1.37177
1.37132
1.3685
1.35872
1.34708
1.34367
1.34315
1.34269
1.34201
1.34141
1.34117
1.34082
1.3404
1.34041
1.34082
1.34065
1.33922
1.33799
1.33705
1.33547
1.33257
1.32814
1.32424
1.32262
1.32193
1.32156
1.32109
1.32037
1.31953
1.31858
1.31718
1.31557
1.31453
1.31369
1.31292
1.31241
1.31274
1.31361
1.31304
1.31161
1.31003
1.30793
1.30359
1.29555
1.28813
1.28501
1.28416
1.28393
1.28402
1.28458
1.28539
1.28573
1.28577
1.2868
1.28753
1.28677
1.2849
1.28274
1.2809
1.27935
1.27806
1.27689
1.2748
1.27096
1.26793
1.26705
1.26693
1.26689
1.26711
1.26765
1.26824
1.26878
1.26919
1.26939
1.26948
1.26951
1.26931
1.26805
1.26448
1.25875
1.25495
1.25384
1.25345
1.25349
1.25361
1.25377
1.25427
1.25577
1.25837
1.26119
1.26373
1.26601
1.26737
1.26772
1.26778
1.26706
1.26374
1.25848
1.25518
1.25311
1.25166
1.25124
1.25154
1.25384
1.25536
1.2549
1.25469
1.25487
1.25527
1.25519
1.25287
1.24904
1.24848
1.24885
1.24891
1.24856
1.24822
1.2486
1.24895
1.24816
1.24423
1.23952
1.23586
1.23161
1.22638
1.22439
1.22487
1.22769
1.23266
1.23857
1.24564
1.24921
1.24925
1.24925
1.24872
1.24518
1.23507
1.22195
1.21489
1.2114
1.20908
1.20774
1.20826
1.2153
1.22875
1.23422
1.23627
1.23861
1.23941
1.23606
1.22075
1.20927
1.20685
1.20545
1.20333
1.20184
1.20229
1.2084
1.21701
1.21812
1.21757
1.21618
1.21356
1.20733
1.19815
1.19546
1.19536
1.1946
1.19271
1.19167
1.19233
1.19375
1.19209
1.18544
1.17859
1.17286
1.16499
1.15394
1.1482
1.14711
1.14654
1.14603
1.1457
1.14575
1.14876
1.1579
1.16367
1.16357
1.16268
1.16124
1.15796
1.14744
1.13194
1.12616
1.12495
1.12402
1.12301
1.12216
1.12201
1.12442
1.13389
1.1417
1.14191
1.14057
1.13923
1.13828
1.13701
1.1332
1.12278
1.11511
1.11474
1.11583
1.11841
1.12231
1.1268
1.13124
1.13576
1.14066
1.14513
1.1467
1.14661
1.14587
1.14393
1.14042
1.13573
1.13025
1.12527
1.12282
1.12255
1.1226
1.12265
1.12377
1.12795
1.13116
1.13181
1.13265
1.13315
1.13307
1.13137
1.12458
1.11316
1.10885
1.10768
1.35008
1.34813
1.34608
1.3446
1.34498
1.35137
1.36485
1.37051
1.37041
1.37027
1.37018
1.36972
1.3676
1.36114
1.34931
1.34188
1.33999
1.33945
1.33894
1.33854
1.33834
1.3377
1.3366
1.33582
1.33572
1.33632
1.33707
1.33703
1.33684
1.33656
1.33568
1.33371
1.32934
1.32362
1.32042
1.31955
1.31903
1.3186
1.31793
1.31707
1.3159
1.31431
1.31315
1.31233
1.31152
1.31081
1.31059
1.3116
1.31268
1.31258
1.31151
1.30976
1.30692
1.29959
1.28822
1.28338
1.28302
1.28296
1.28305
1.28361
1.28438
1.28544
1.28664
1.28684
1.28676
1.286
1.28418
1.28207
1.28016
1.27843
1.27681
1.27548
1.27437
1.27229
1.26886
1.26675
1.26621
1.26605
1.26602
1.26622
1.2668
1.26742
1.26806
1.26884
1.26886
1.26882
1.26862
1.26774
1.26557
1.26092
1.25524
1.25254
1.25176
1.25145
1.25144
1.25153
1.25181
1.25267
1.25471
1.2574
1.25982
1.26205
1.26401
1.26475
1.26475
1.26462
1.2629
1.25869
1.25477
1.25255
1.25088
1.25015
1.25013
1.25138
1.25385
1.25387
1.25354
1.25361
1.25405
1.2544
1.25351
1.24996
1.24804
1.24806
1.24801
1.24759
1.24701
1.24728
1.24825
1.24803
1.24483
1.24
1.23659
1.23387
1.22964
1.22503
1.2239
1.2256
1.23044
1.23603
1.24154
1.24699
1.24854
1.24817
1.24742
1.24522
1.2391
1.2272
1.21555
1.2105
1.20816
1.20674
1.20643
1.20846
1.21889
1.23133
1.23558
1.23839
1.24063
1.24073
1.23367
1.21509
1.20547
1.20305
1.20115
1.19897
1.19824
1.20064
1.21201
1.22082
1.22189
1.22149
1.21986
1.21628
1.20703
1.1963
1.19277
1.19128
1.1894
1.18722
1.18663
1.18851
1.1918
1.19088
1.18551
1.17918
1.17323
1.16381
1.15149
1.14615
1.14487
1.14415
1.14362
1.1433
1.14364
1.14839
1.15859
1.16239
1.16193
1.16078
1.15884
1.15385
1.14014
1.12602
1.12253
1.12192
1.1212
1.12032
1.11977
1.12031
1.12516
1.13545
1.13954
1.13901
1.13762
1.13667
1.13591
1.13412
1.12797
1.11612
1.11129
1.11142
1.11262
1.11512
1.11894
1.12346
1.12806
1.13305
1.13858
1.1429
1.14369
1.14343
1.14248
1.14032
1.13676
1.13217
1.12706
1.12274
1.12091
1.12082
1.12089
1.12107
1.12284
1.12713
1.12918
1.12979
1.1307
1.13098
1.13066
1.12775
1.11873
1.10992
1.10695
1.34947
1.34721
1.34521
1.34359
1.34354
1.34725
1.35866
1.3659
1.36633
1.36618
1.36621
1.36607
1.36497
1.36106
1.35364
1.34431
1.33892
1.33705
1.33638
1.33604
1.33578
1.33476
1.33335
1.33205
1.33125
1.33139
1.33323
1.3358
1.33718
1.3375
1.33701
1.33595
1.3338
1.3282
1.32094
1.3175
1.31677
1.3164
1.31601
1.31524
1.31426
1.31301
1.31192
1.31112
1.3103
1.30947
1.30895
1.30953
1.31233
1.31339
1.31237
1.31044
1.30803
1.30269
1.29093
1.28324
1.28212
1.28214
1.28243
1.28321
1.28404
1.28501
1.28589
1.2862
1.28616
1.28535
1.28356
1.28137
1.27915
1.27712
1.27566
1.27454
1.27363
1.27289
1.2713
1.26792
1.26533
1.26479
1.26471
1.2649
1.26549
1.26611
1.26659
1.26724
1.268
1.26815
1.26792
1.26722
1.26562
1.26249
1.25688
1.25185
1.25032
1.24977
1.24962
1.24964
1.24977
1.25022
1.2515
1.25397
1.25634
1.25824
1.2601
1.2615
1.26179
1.26165
1.26085
1.25794
1.25385
1.25163
1.25011
1.249
1.24876
1.24926
1.25161
1.25268
1.25241
1.25236
1.25254
1.25305
1.25308
1.2513
1.24837
1.24763
1.24742
1.24689
1.24585
1.2456
1.24611
1.24644
1.24514
1.24071
1.23701
1.23504
1.23273
1.2279
1.22421
1.22426
1.22794
1.23381
1.2384
1.24286
1.2469
1.24765
1.24684
1.24476
1.24053
1.23282
1.2209
1.21109
1.20725
1.20571
1.20489
1.20505
1.2097
1.22315
1.23412
1.23757
1.24012
1.24138
1.24007
1.22768
1.20896
1.2024
1.20023
1.19802
1.19629
1.19666
1.20481
1.22058
1.22513
1.22497
1.22367
1.22168
1.2156
1.20095
1.19069
1.18807
1.18651
1.1846
1.18314
1.18365
1.18927
1.19364
1.19194
1.18586
1.17908
1.17124
1.15832
1.14693
1.1438
1.14287
1.14222
1.14174
1.14147
1.14262
1.14985
1.15919
1.16062
1.15966
1.15795
1.15514
1.14772
1.13191
1.12204
1.12037
1.11984
1.11912
1.11834
1.11816
1.11941
1.12641
1.13582
1.13734
1.1363
1.135
1.13421
1.13314
1.13026
1.12144
1.11059
1.10832
1.10866
1.10995
1.11241
1.11602
1.12039
1.12503
1.1302
1.1362
1.14019
1.14043
1.13996
1.13893
1.13669
1.13327
1.12893
1.12418
1.12039
1.11894
1.11896
1.11911
1.11956
1.12215
1.12599
1.12706
1.12785
1.12874
1.12887
1.12802
1.12319
1.11323
1.10667
1.35082
1.34709
1.34527
1.34399
1.34389
1.34581
1.35272
1.36098
1.36277
1.36231
1.36198
1.36151
1.36032
1.35811
1.35474
1.35002
1.34267
1.33677
1.33464
1.33403
1.33334
1.33224
1.33068
1.32881
1.32732
1.32679
1.32811
1.33423
1.33809
1.33797
1.33718
1.33641
1.3354
1.33265
1.3253
1.31766
1.31482
1.3142
1.31389
1.31335
1.31242
1.31131
1.31052
1.30986
1.30917
1.30845
1.30812
1.30871
1.31053
1.31119
1.31052
1.30913
1.30755
1.30432
1.29646
1.28592
1.28238
1.28194
1.28211
1.28281
1.28416
1.2855
1.28585
1.28571
1.28538
1.28433
1.28241
1.28018
1.27781
1.2758
1.27481
1.27432
1.27397
1.27352
1.27227
1.26887
1.2649
1.26358
1.26356
1.26374
1.26426
1.26476
1.26516
1.26618
1.26741
1.26767
1.26744
1.26674
1.2653
1.26291
1.25831
1.25179
1.24873
1.24804
1.24768
1.24761
1.24765
1.24795
1.24896
1.25126
1.25345
1.25499
1.25643
1.25789
1.25873
1.25876
1.25818
1.25618
1.25243
1.24969
1.24885
1.24779
1.24718
1.24735
1.24892
1.25106
1.25123
1.25116
1.25122
1.25161
1.25221
1.25187
1.24959
1.24772
1.24717
1.24641
1.24505
1.24427
1.24472
1.24616
1.24549
1.24127
1.23706
1.23549
1.23458
1.23224
1.22688
1.22446
1.22579
1.23092
1.23601
1.2393
1.24307
1.24597
1.24637
1.24523
1.24155
1.2354
1.22657
1.21488
1.20694
1.20436
1.20376
1.2037
1.20488
1.21215
1.22666
1.23559
1.23847
1.24065
1.24103
1.23754
1.22074
1.20482
1.20026
1.19795
1.19573
1.19505
1.19867
1.21478
1.22644
1.22672
1.22556
1.22425
1.22078
1.20749
1.19038
1.18574
1.18479
1.18356
1.18175
1.18121
1.18381
1.19149
1.19364
1.19058
1.18347
1.17597
1.16559
1.1509
1.14351
1.14197
1.14122
1.1406
1.14008
1.13997
1.14257
1.15189
1.15829
1.15821
1.15683
1.15496
1.15149
1.1419
1.12616
1.11945
1.1184
1.11773
1.11682
1.11599
1.11596
1.11826
1.12709
1.13441
1.13461
1.13336
1.13232
1.13157
1.13013
1.12577
1.11488
1.1064
1.10549
1.10593
1.10723
1.10967
1.11316
1.11736
1.12202
1.12743
1.13379
1.13726
1.13718
1.13655
1.13542
1.13305
1.12974
1.12568
1.12123
1.11804
1.11712
1.11727
1.11757
1.11844
1.12152
1.12436
1.12499
1.12591
1.12662
1.12657
1.1247
1.11792
1.10797
1.35888
1.35037
1.347
1.34578
1.34564
1.34624
1.34835
1.35276
1.35763
1.35867
1.35821
1.35746
1.35601
1.35454
1.3536
1.35202
1.34862
1.34142
1.33462
1.33195
1.33088
1.3296
1.32775
1.32573
1.32428
1.32355
1.32401
1.32889
1.33672
1.33816
1.33737
1.33653
1.33572
1.3342
1.33049
1.32206
1.31475
1.31219
1.31151
1.311
1.31027
1.30955
1.30898
1.30846
1.308
1.30765
1.30763
1.30869
1.30995
1.30966
1.30828
1.30684
1.30551
1.30368
1.29986
1.29279
1.28514
1.28252
1.28231
1.28256
1.28321
1.28407
1.2848
1.28487
1.28441
1.28311
1.28103
1.27873
1.2767
1.27522
1.27408
1.27329
1.27289
1.27256
1.27181
1.26954
1.26538
1.26315
1.26296
1.26311
1.26348
1.26385
1.26417
1.26492
1.26654
1.26782
1.26771
1.26685
1.26524
1.26278
1.25854
1.25194
1.24727
1.24646
1.24618
1.24608
1.2461
1.24638
1.24732
1.24937
1.25116
1.25231
1.25346
1.25471
1.2556
1.2558
1.25539
1.25385
1.25085
1.24724
1.24627
1.24612
1.24555
1.24547
1.2462
1.24821
1.2495
1.24982
1.24998
1.25029
1.25098
1.25136
1.2507
1.24853
1.2473
1.24635
1.24485
1.2434
1.2428
1.24318
1.24411
1.2422
1.2379
1.23599
1.23568
1.23518
1.23212
1.22623
1.22508
1.22781
1.23311
1.23644
1.2388
1.24199
1.2444
1.24451
1.24219
1.23667
1.22967
1.22078
1.20997
1.20367
1.20228
1.2023
1.2026
1.20539
1.21571
1.22994
1.23643
1.23881
1.24052
1.24012
1.2338
1.21506
1.20188
1.19835
1.19624
1.19505
1.19554
1.20454
1.22149
1.22657
1.2258
1.22434
1.22198
1.21315
1.19426
1.1859
1.18495
1.18425
1.18259
1.18102
1.18118
1.18586
1.19115
1.19066
1.1857
1.17861
1.17058
1.15767
1.14514
1.14163
1.14063
1.13988
1.13918
1.13866
1.139
1.14385
1.15353
1.15658
1.15587
1.1543
1.15228
1.14767
1.1353
1.12106
1.11708
1.11627
1.11544
1.1144
1.11363
1.11382
1.11735
1.12708
1.13218
1.13177
1.13051
1.12956
1.12864
1.12658
1.12044
1.10882
1.10328
1.10303
1.10358
1.10505
1.10756
1.11097
1.11498
1.11957
1.12499
1.13141
1.13407
1.13373
1.13296
1.1316
1.12932
1.12631
1.12265
1.11877
1.11607
1.11546
1.1157
1.11617
1.11742
1.12069
1.12251
1.12303
1.12404
1.12443
1.12403
1.12084
1.11155
1.36575
1.35763
1.35011
1.34741
1.34658
1.34653
1.34665
1.3472
1.34955
1.35332
1.35416
1.35352
1.35232
1.35173
1.35164
1.35148
1.35062
1.34725
1.33884
1.3311
1.32801
1.32653
1.32508
1.32372
1.32263
1.32211
1.32231
1.32459
1.33029
1.33464
1.3351
1.33456
1.33415
1.33377
1.33229
1.32787
1.31883
1.31184
1.30939
1.30877
1.30832
1.30789
1.30739
1.30681
1.30639
1.30656
1.30803
1.30916
1.30911
1.30792
1.30621
1.30465
1.30315
1.30155
1.29967
1.29683
1.29275
1.2872
1.28348
1.28297
1.28305
1.28354
1.28408
1.284
1.28335
1.2818
1.2796
1.27732
1.27537
1.27393
1.27301
1.27256
1.27233
1.27215
1.27183
1.27048
1.26709
1.26346
1.26236
1.26244
1.26265
1.26283
1.26302
1.26399
1.26498
1.26527
1.26513
1.26426
1.26276
1.26078
1.25786
1.25248
1.24681
1.24537
1.24523
1.24511
1.24512
1.24541
1.24627
1.2479
1.24949
1.2504
1.25104
1.25176
1.25237
1.25259
1.25245
1.25124
1.24898
1.24576
1.24321
1.24319
1.24339
1.2434
1.2438
1.24496
1.24654
1.24771
1.24851
1.24918
1.25004
1.2509
1.25097
1.24986
1.24793
1.24652
1.24476
1.24269
1.24114
1.24049
1.24096
1.24147
1.23919
1.23665
1.23648
1.23668
1.23612
1.23143
1.22619
1.22625
1.22986
1.23364
1.23522
1.23706
1.24018
1.2422
1.24168
1.23825
1.23189
1.22454
1.21538
1.20532
1.20144
1.20109
1.2015
1.20334
1.20902
1.22088
1.23256
1.23673
1.23845
1.23947
1.23828
1.22996
1.21204
1.20097
1.19765
1.19614
1.19601
1.19832
1.20943
1.22062
1.22217
1.22178
1.22072
1.21636
1.20277
1.18855
1.18588
1.18516
1.1838
1.18138
1.18008
1.18103
1.1862
1.18843
1.18607
1.17976
1.17288
1.16399
1.15056
1.14226
1.14043
1.13962
1.13884
1.13804
1.13765
1.139
1.14602
1.15366
1.15442
1.15334
1.15157
1.14905
1.14291
1.12875
1.1173
1.1148
1.114
1.11302
1.11188
1.11124
1.11172
1.11654
1.12643
1.12961
1.12884
1.12745
1.12648
1.12542
1.12291
1.11537
1.1043
1.10097
1.10112
1.10191
1.1035
1.10585
1.10903
1.11273
1.11696
1.12238
1.12828
1.13028
1.12969
1.12877
1.12753
1.12572
1.12311
1.11983
1.11629
1.11401
1.11379
1.11417
1.11483
1.11665
1.11984
1.12072
1.12136
1.12221
1.12227
1.12114
1.11509
1.36901
1.36516
1.35798
1.35104
1.34806
1.3465
1.34535
1.34449
1.34419
1.34528
1.34844
1.34956
1.34952
1.34992
1.35043
1.35067
1.35059
1.34961
1.34415
1.33273
1.32621
1.32457
1.32364
1.32261
1.32168
1.32136
1.32148
1.3224
1.32491
1.32895
1.33222
1.33273
1.33233
1.33203
1.33157
1.3298
1.32504
1.31595
1.30946
1.30731
1.30676
1.30633
1.30572
1.30502
1.30452
1.30468
1.30609
1.3073
1.30707
1.30567
1.30417
1.30282
1.30124
1.29933
1.29795
1.29729
1.2965
1.29488
1.29064
1.28514
1.28334
1.28307
1.28304
1.28292
1.28202
1.28015
1.2778
1.27559
1.27384
1.27265
1.27197
1.27157
1.27129
1.27104
1.27076
1.27022
1.26851
1.26476
1.26214
1.2618
1.2619
1.26212
1.26241
1.26316
1.26368
1.26369
1.26309
1.26199
1.26061
1.2589
1.25658
1.25273
1.24726
1.24473
1.24462
1.24457
1.24459
1.24488
1.24586
1.24696
1.24788
1.24848
1.24878
1.24912
1.24965
1.24991
1.24981
1.24883
1.24687
1.24443
1.24122
1.23973
1.24012
1.24074
1.24123
1.24182
1.24295
1.24462
1.24635
1.24782
1.24911
1.25028
1.2508
1.25051
1.24871
1.24671
1.24472
1.24218
1.23963
1.238
1.2378
1.23878
1.23873
1.2369
1.23679
1.23753
1.23814
1.23706
1.2309
1.22694
1.2277
1.2307
1.23237
1.23307
1.23479
1.23816
1.24011
1.23876
1.23358
1.2267
1.21984
1.21122
1.20299
1.20063
1.20083
1.20242
1.20629
1.21343
1.22489
1.23413
1.2364
1.23704
1.23713
1.23482
1.22539
1.20999
1.20125
1.19837
1.19736
1.19742
1.20077
1.2104
1.21669
1.21692
1.21662
1.21537
1.20989
1.19707
1.18782
1.18583
1.1845
1.18218
1.17958
1.17863
1.17998
1.18338
1.18343
1.17935
1.17316
1.16681
1.15784
1.14638
1.14114
1.13985
1.13899
1.13803
1.13717
1.13714
1.13976
1.14739
1.152
1.15176
1.15027
1.1484
1.14535
1.13758
1.12276
1.11415
1.11242
1.11155
1.11041
1.10915
1.10856
1.10941
1.11574
1.12512
1.12667
1.12566
1.12449
1.12371
1.12275
1.11981
1.11059
1.10062
1.0989
1.09928
1.10038
1.102
1.1041
1.10691
1.11034
1.11422
1.11942
1.12458
1.12595
1.12538
1.12459
1.12362
1.12221
1.1199
1.11693
1.11372
1.11204
1.11215
1.11279
1.11378
1.11651
1.11899
1.1193
1.12006
1.12052
1.1203
1.11662
1.37141
1.36926
1.36558
1.35892
1.35037
1.34518
1.34308
1.34169
1.3406
1.34009
1.34085
1.34491
1.34791
1.34893
1.34995
1.34997
1.34986
1.34947
1.34684
1.33695
1.32647
1.32366
1.32264
1.32168
1.32082
1.32066
1.32091
1.32148
1.3222
1.32337
1.32582
1.32912
1.33022
1.32994
1.3297
1.32936
1.32766
1.32287
1.31358
1.30732
1.30526
1.30458
1.30401
1.30336
1.30297
1.30342
1.30469
1.30511
1.30463
1.30314
1.3017
1.30048
1.2991
1.29761
1.29713
1.29727
1.29767
1.29787
1.29709
1.29268
1.28573
1.28292
1.28232
1.28177
1.28041
1.2783
1.27603
1.27379
1.272
1.27095
1.27045
1.27027
1.27028
1.27032
1.2703
1.27012
1.26925
1.26688
1.26356
1.26182
1.26154
1.2615
1.26188
1.26281
1.26264
1.26192
1.26096
1.25978
1.25855
1.25712
1.25519
1.25258
1.24841
1.24484
1.24426
1.24424
1.24443
1.24488
1.24529
1.24592
1.24643
1.24683
1.24725
1.24744
1.2474
1.24736
1.24716
1.24628
1.2446
1.24272
1.24016
1.23724
1.23659
1.2372
1.23794
1.23858
1.23951
1.24115
1.2434
1.24603
1.24826
1.24945
1.24994
1.24997
1.24898
1.2466
1.24423
1.24145
1.23837
1.23602
1.23524
1.2359
1.23761
1.23709
1.23674
1.23741
1.23934
1.24015
1.23799
1.23023
1.22749
1.22843
1.22986
1.23002
1.23024
1.23181
1.23527
1.23648
1.23422
1.22853
1.22272
1.21723
1.2093
1.20192
1.20045
1.20138
1.20472
1.21018
1.21743
1.22758
1.23424
1.23466
1.23465
1.23425
1.23109
1.22154
1.20784
1.20068
1.1984
1.1977
1.19786
1.20093
1.20805
1.21156
1.21153
1.21135
1.21022
1.20573
1.19575
1.1877
1.185
1.18291
1.1802
1.17754
1.17645
1.17698
1.1782
1.17712
1.17239
1.16708
1.16171
1.15407
1.14474
1.1406
1.13945
1.13848
1.13736
1.13658
1.1368
1.13997
1.14683
1.14927
1.14859
1.14698
1.14509
1.14157
1.13239
1.1179
1.11154
1.11011
1.10904
1.10766
1.10627
1.10571
1.10718
1.11531
1.12355
1.12416
1.12334
1.12279
1.12228
1.12096
1.1163
1.10501
1.09735
1.09681
1.09749
1.09892
1.10037
1.10211
1.1048
1.10814
1.11175
1.11622
1.12075
1.12158
1.12109
1.12045
1.11973
1.1186
1.11654
1.11385
1.11127
1.11047
1.11089
1.11189
1.11358
1.11693
1.11801
1.11812
1.11861
1.11852
1.1163
1.37346
1.3719
1.36928
1.3649
1.35624
1.34626
1.34124
1.33906
1.33762
1.33697
1.33688
1.33963
1.3463
1.34875
1.34919
1.34957
1.34946
1.34912
1.34746
1.34181
1.33081
1.32394
1.32229
1.32127
1.32033
1.32002
1.32029
1.32073
1.32077
1.32065
1.32081
1.32267
1.32654
1.32782
1.32757
1.32749
1.32735
1.32571
1.32022
1.31065
1.3051
1.30326
1.3026
1.30206
1.30177
1.30227
1.30293
1.30277
1.30169
1.30013
1.29842
1.2969
1.29638
1.29632
1.29703
1.29738
1.29797
1.29894
1.29927
1.29862
1.29402
1.28572
1.28115
1.27972
1.27834
1.27646
1.27443
1.27209
1.27012
1.2693
1.26912
1.26914
1.26936
1.26968
1.26972
1.26936
1.26851
1.26757
1.26588
1.2633
1.26161
1.26118
1.26105
1.26099
1.26097
1.26028
1.25914
1.25788
1.25668
1.25523
1.25309
1.25089
1.24883
1.24626
1.24483
1.24478
1.24493
1.2448
1.24494
1.24545
1.24561
1.24567
1.24577
1.24574
1.24549
1.24525
1.24501
1.24413
1.24249
1.24076
1.23877
1.23566
1.2333
1.23336
1.23416
1.2351
1.23609
1.23762
1.24012
1.24333
1.24638
1.24836
1.24931
1.2493
1.2484
1.24605
1.24352
1.24079
1.23756
1.23456
1.23289
1.2328
1.23496
1.23679
1.23665
1.2373
1.23965
1.2422
1.24239
1.2375
1.22895
1.22736
1.22764
1.22751
1.22669
1.2265
1.22815
1.23252
1.23313
1.23029
1.225
1.2208
1.21622
1.20801
1.20121
1.20038
1.20238
1.20732
1.21291
1.21934
1.22824
1.23344
1.23395
1.23376
1.23246
1.22816
1.21836
1.20572
1.19951
1.19743
1.19621
1.19609
1.19796
1.2035
1.20686
1.20738
1.20773
1.20755
1.20501
1.19652
1.18729
1.18342
1.18098
1.17808
1.17458
1.17225
1.17209
1.1725
1.1711
1.16688
1.16285
1.15866
1.1523
1.14397
1.13961
1.13819
1.13712
1.13588
1.13529
1.13584
1.13947
1.14515
1.14643
1.14561
1.14414
1.14229
1.13804
1.12691
1.11314
1.10819
1.10682
1.10554
1.10406
1.10288
1.10285
1.10618
1.1164
1.12218
1.12195
1.12118
1.12083
1.12029
1.11842
1.11162
1.09961
1.09528
1.0954
1.09643
1.09791
1.09907
1.10053
1.10304
1.10613
1.10924
1.11331
1.11657
1.1167
1.1164
1.116
1.11558
1.11489
1.11333
1.11106
1.10926
1.10918
1.11004
1.11141
1.11413
1.11697
1.117
1.11713
1.11713
1.11541
1.37516
1.37406
1.37177
1.36852
1.36174
1.34926
1.33966
1.33651
1.33524
1.33464
1.33439
1.33512
1.34077
1.34559
1.34568
1.34589
1.34613
1.34592
1.34521
1.3431
1.33754
1.32858
1.32324
1.32164
1.32059
1.31982
1.31962
1.31963
1.31931
1.31845
1.31802
1.31821
1.32098
1.32481
1.32536
1.32533
1.32537
1.32505
1.32274
1.31634
1.30754
1.30312
1.30151
1.30084
1.30052
1.30094
1.3013
1.30044
1.29858
1.29665
1.29508
1.29422
1.29385
1.2938
1.29486
1.2971
1.29884
1.30009
1.30089
1.30101
1.29968
1.29199
1.28185
1.27799
1.27648
1.27467
1.27266
1.27085
1.26878
1.26809
1.26808
1.26809
1.26832
1.26889
1.26916
1.26892
1.26805
1.26738
1.26695
1.26587
1.26337
1.26105
1.26028
1.25991
1.25937
1.25856
1.25738
1.25614
1.25478
1.25312
1.25142
1.2499
1.24882
1.24759
1.24541
1.24353
1.24335
1.24348
1.24382
1.24436
1.24445
1.2444
1.24441
1.24444
1.24432
1.24402
1.24346
1.24196
1.24023
1.23864
1.23692
1.23431
1.23133
1.23053
1.23082
1.23167
1.23281
1.23429
1.23667
1.24014
1.24407
1.24695
1.24777
1.24783
1.24731
1.24527
1.24267
1.24014
1.23702
1.23348
1.23096
1.23021
1.23108
1.23513
1.23649
1.23719
1.23938
1.24299
1.24483
1.24369
1.2352
1.22742
1.22589
1.22535
1.22401
1.22245
1.22237
1.2256
1.2309
1.23055
1.22677
1.22271
1.22007
1.21568
1.20661
1.20074
1.20056
1.20377
1.20922
1.21408
1.22041
1.22952
1.23434
1.2347
1.23426
1.23172
1.22576
1.21507
1.20219
1.1956
1.19323
1.19168
1.19117
1.19253
1.19894
1.2046
1.20632
1.20756
1.20771
1.20554
1.19657
1.1862
1.18139
1.17818
1.17405
1.16951
1.16712
1.16702
1.16778
1.16698
1.1637
1.16026
1.15657
1.15046
1.14253
1.13857
1.13698
1.1357
1.13467
1.13449
1.13506
1.13835
1.14307
1.14374
1.14278
1.14121
1.1388
1.1332
1.12053
1.10885
1.10533
1.10406
1.10279
1.10145
1.10077
1.10119
1.10633
1.11698
1.12042
1.1199
1.1192
1.11891
1.11833
1.11581
1.10679
1.09602
1.09395
1.09437
1.09555
1.0968
1.09755
1.0986
1.1009
1.1038
1.10652
1.11009
1.11174
1.11144
1.11151
1.11169
1.1119
1.11167
1.11034
1.10845
1.10764
1.10813
1.10954
1.11148
1.11512
1.11672
1.11631
1.11612
1.1147
1.37636
1.37555
1.37331
1.37037
1.3648
1.35204
1.33938
1.33533
1.33423
1.33362
1.33317
1.33301
1.33562
1.34258
1.34445
1.34421
1.34416
1.34369
1.34269
1.34167
1.33967
1.33512
1.32776
1.32336
1.32208
1.32109
1.31973
1.31832
1.31735
1.31668
1.31621
1.31602
1.31693
1.32059
1.32283
1.32284
1.32285
1.32267
1.32165
1.31853
1.31266
1.30552
1.30167
1.3001
1.29948
1.29937
1.29919
1.29786
1.29579
1.29355
1.29196
1.29116
1.29089
1.29122
1.29319
1.29758
1.30048
1.30128
1.30178
1.30192
1.30138
1.2972
1.28592
1.27765
1.27484
1.27306
1.27122
1.2698
1.26801
1.26722
1.26725
1.26738
1.26751
1.26777
1.26806
1.2681
1.2678
1.26755
1.26743
1.26704
1.26544
1.26211
1.25949
1.25859
1.2579
1.25692
1.25567
1.25431
1.25272
1.2512
1.25059
1.25024
1.24959
1.24842
1.24637
1.24383
1.24267
1.24272
1.24299
1.24344
1.24358
1.24359
1.24353
1.2434
1.24308
1.24246
1.24173
1.24043
1.23878
1.23717
1.23551
1.23315
1.22998
1.22865
1.22862
1.22892
1.22996
1.23158
1.2338
1.23702
1.24118
1.24467
1.24605
1.24642
1.24623
1.24461
1.24173
1.23921
1.23637
1.2326
1.2294
1.22808
1.22805
1.23068
1.23587
1.2373
1.23906
1.2426
1.24608
1.24678
1.2434
1.23207
1.2256
1.22389
1.22243
1.22019
1.2188
1.21933
1.22481
1.22896
1.22751
1.22381
1.22173
1.22017
1.21531
1.205
1.20008
1.2008
1.20512
1.20995
1.214
1.22114
1.23168
1.23574
1.23591
1.23455
1.23029
1.2226
1.20932
1.1949
1.18833
1.18604
1.18517