/*--------------------------------*- C++ -*----------------------------------*\
  =========                 |
  \\      /  F ield         | OpenFOAM: The Open Source CFD Toolbox
   \\    /   O peration     | Website:  https://openfoam.org
    \\  /    A nd           | Version:  7
     \\/     M anipulation  |
\*---------------------------------------------------------------------------*/
FoamFile
{
    version     2.0;
    format      ascii;
    class       volVectorField;
    location    "1.5";
    object      U;
}
// * * * * * * * * * * * * * * * * * * * * * * * * * * * * * * * * * * * * * //

dimensions      [0 1 -1 0 0 0 0];

internalField   nonuniform List<vector> 
16192
(
(2.72227 -0.380708 0)
(2.72796 -0.386654 0)
(2.73486 -0.394204 0)
(2.74149 -0.39995 0)
(2.74488 -0.401249 0)
(2.74594 -0.400692 0)
(2.74681 -0.398481 0)
(2.74696 -0.392946 0)
(2.7447 -0.382929 0)
(2.7415 -0.368945 0)
(2.741 -0.357087 0)
(2.74317 -0.350314 0)
(2.74741 -0.346808 0)
(2.75104 -0.347691 0)
(2.75269 -0.349099 0)
(2.75507 -0.350748 0)
(2.75695 -0.353047 0)
(2.7581 -0.357253 0)
(2.7596 -0.362349 0)
(2.76167 -0.365362 0)
(2.76641 -0.36916 0)
(2.77088 -0.37218 0)
(2.77271 -0.372797 0)
(2.77539 -0.373784 0)
(2.7781 -0.374611 0)
(2.77878 -0.374271 0)
(2.77121 -0.369496 0)
(2.75641 -0.359631 0)
(2.75279 -0.355779 0)
(2.75501 -0.354928 0)
(2.75702 -0.354594 0)
(2.75868 -0.354307 0)
(2.76206 -0.354138 0)
(2.76993 -0.351166 0)
(2.77937 -0.346819 0)
(2.7819 -0.345984 0)
(2.78504 -0.346053 0)
(2.78796 -0.346172 0)
(2.78983 -0.346441 0)
(2.79048 -0.348154 0)
(2.79158 -0.35034 0)
(2.79401 -0.351171 0)
(2.79616 -0.351594 0)
(2.79873 -0.351792 0)
(2.80171 -0.351136 0)
(2.80418 -0.350333 0)
(2.80679 -0.349695 0)
(2.80879 -0.348051 0)
(2.80735 -0.34357 0)
(2.79969 -0.333412 0)
(2.79257 -0.325154 0)
(2.79223 -0.323236 0)
(2.79375 -0.323426 0)
(2.79549 -0.324771 0)
(2.7983 -0.32517 0)
(2.80156 -0.325301 0)
(2.80429 -0.325637 0)
(2.80447 -0.326893 0)
(2.80035 -0.329064 0)
(2.79899 -0.330108 0)
(2.8014 -0.329964 0)
(2.80382 -0.329771 0)
(2.80602 -0.329603 0)
(2.80813 -0.329237 0)
(2.81232 -0.328694 0)
(2.81897 -0.32759 0)
(2.82422 -0.325235 0)
(2.8258 -0.323927 0)
(2.82767 -0.322875 0)
(2.8289 -0.321452 0)
(2.8264 -0.317301 0)
(2.81922 -0.311219 0)
(2.81708 -0.310387 0)
(2.82003 -0.311221 0)
(2.82233 -0.311854 0)
(2.82457 -0.312431 0)
(2.82683 -0.313509 0)
(2.82976 -0.314345 0)
(2.83319 -0.314902 0)
(2.83665 -0.315487 0)
(2.83937 -0.315849 0)
(2.84228 -0.316191 0)
(2.84508 -0.316472 0)
(2.8474 -0.316463 0)
(2.84834 -0.315465 0)
(2.8441 -0.311499 0)
(2.83465 -0.30384 0)
(2.83173 -0.298903 0)
(2.83198 -0.296704 0)
(2.83257 -0.295381 0)
(2.8336 -0.293833 0)
(2.8349 -0.291331 0)
(2.83738 -0.287047 0)
(2.84138 -0.281727 0)
(2.84632 -0.277547 0)
(2.85124 -0.27585 0)
(2.85514 -0.275796 0)
(2.85746 -0.27562 0)
(2.85825 -0.274688 0)
(2.85851 -0.273823 0)
(2.85855 -0.273405 0)
(2.85893 -0.272461 0)
(2.85909 -0.269453 0)
(2.85546 -0.263849 0)
(2.84619 -0.254536 0)
(2.84146 -0.24873 0)
(2.84251 -0.247548 0)
(2.84385 -0.24775 0)
(2.84529 -0.248288 0)
(2.84733 -0.249488 0)
(2.85303 -0.25275 0)
(2.86215 -0.257033 0)
(2.86869 -0.258296 0)
(2.86999 -0.258332 0)
(2.87213 -0.257919 0)
(2.87461 -0.255944 0)
(2.87641 -0.253621 0)
(2.87629 -0.251127 0)
(2.87202 -0.246937 0)
(2.86808 -0.243658 0)
(2.86866 -0.244062 0)
(2.87164 -0.24538 0)
(2.87549 -0.246166 0)
(2.87886 -0.247392 0)
(2.88222 -0.24913 0)
(2.88555 -0.250556 0)
(2.88897 -0.250974 0)
(2.89206 -0.250714 0)
(2.89412 -0.250141 0)
(2.89524 -0.248937 0)
(2.89296 -0.24415 0)
(2.88665 -0.236351 0)
(2.88454 -0.23279 0)
(2.88631 -0.23287 0)
(2.88838 -0.233896 0)
(2.89229 -0.235579 0)
(2.90058 -0.240605 0)
(2.9094 -0.246754 0)
(2.91278 -0.247749 0)
(2.91777 -0.247283 0)
(2.92192 -0.246477 0)
(2.92475 -0.244799 0)
(2.92294 -0.2398 0)
(2.91279 -0.228481 0)
(2.90306 -0.219263 0)
(2.903 -0.217477 0)
(2.90411 -0.217575 0)
(2.90597 -0.217811 0)
(2.90913 -0.218908 0)
(2.91426 -0.222652 0)
(2.92532 -0.231891 0)
(2.94269 -0.245277 0)
(2.9514 -0.250839 0)
(2.95297 -0.251077 0)
(2.9547 -0.251171 0)
(2.95432 -0.248536 0)
(2.94578 -0.237324 0)
(2.92429 -0.214568 0)
(2.91337 -0.201461 0)
(2.91532 -0.199986 0)
(2.91875 -0.199669 0)
(2.92271 -0.19912 0)
(2.9283 -0.201024 0)
(2.939 -0.209513 0)
(2.95415 -0.225948 0)
(2.96369 -0.237534 0)
(2.96554 -0.240648 0)
(2.96553 -0.242868 0)
(2.96337 -0.243983 0)
(2.95616 -0.238966 0)
(2.93898 -0.221309 0)
(2.92491 -0.204038 0)
(2.92395 -0.199016 0)
(2.9252 -0.196564 0)
(2.93132 -0.192294 0)
(2.94651 -0.190846 0)
(2.97185 -0.200684 0)
(2.99449 -0.21804 0)
(3.0021 -0.228408 0)
(3.00358 -0.232594 0)
(3.00321 -0.234938 0)
(2.9974 -0.236894 0)
(2.97659 -0.231458 0)
(2.94147 -0.212534 0)
(2.92665 -0.202678 0)
(2.92732 -0.201273 0)
(2.92922 -0.200666 0)
(2.93134 -0.200058 0)
(2.93421 -0.199347 0)
(2.94156 -0.199249 0)
(2.95563 -0.204413 0)
(2.97803 -0.220419 0)
(2.99468 -0.235861 0)
(2.99798 -0.239365 0)
(2.99927 -0.241542 0)
(2.99999 -0.24389 0)
(2.99754 -0.24299 0)
(2.98579 -0.233836 0)
(2.96115 -0.210909 0)
(2.94723 -0.196736 0)
(2.9482 -0.19492 0)
(2.95001 -0.195316 0)
(2.95268 -0.195964 0)
(2.95601 -0.19676 0)
(2.96046 -0.198378 0)
(2.96679 -0.203042 0)
(2.97786 -0.214986 0)
(2.99402 -0.231741 0)
(3.00174 -0.238706 0)
(3.0034 -0.239689 0)
(3.00487 -0.240804 0)
(3.00567 -0.240442 0)
(3.00603 -0.238561 0)
(3.00448 -0.234136 0)
(2.99665 -0.223094 0)
(2.97973 -0.202173 0)
(2.96913 -0.189914 0)
(2.96513 -0.186641 0)
(2.95924 -0.179716 0)
(2.95625 -0.171791 0)
(2.95568 -0.163127 0)
(2.95509 -0.154836 0)
(2.95493 -0.150979 0)
(2.95509 -0.151561 0)
(2.95737 -0.154672 0)
(2.96222 -0.160074 0)
(2.96517 -0.163502 0)
(2.96698 -0.164422 0)
(2.97085 -0.164782 0)
(2.97493 -0.163784 0)
(2.9772 -0.162974 0)
(2.97622 -0.163079 0)
(2.97152 -0.162156 0)
(2.96494 -0.159164 0)
(2.96381 -0.157198 0)
(2.96595 -0.156917 0)
(2.96793 -0.156694 0)
(2.97052 -0.156014 0)
(2.97519 -0.155864 0)
(2.98561 -0.159251 0)
(2.99748 -0.164779 0)
(3.00066 -0.165883 0)
(3.00338 -0.166027 0)
(3.00677 -0.166221 0)
(3.00971 -0.166156 0)
(3.01203 -0.165127 0)
(3.00966 -0.161316 0)
(2.99434 -0.15089 0)
(2.97683 -0.142144 0)
(2.97457 -0.141859 0)
(2.97605 -0.143513 0)
(2.97822 -0.145015 0)
(2.97696 -0.146231 0)
(2.71909 -0.374644 0)
(2.72274 -0.378835 0)
(2.72842 -0.38442 0)
(2.73806 -0.390507 0)
(2.74668 -0.394585 0)
(2.7498 -0.395502 0)
(2.75124 -0.395526 0)
(2.75298 -0.393671 0)
(2.75523 -0.385578 0)
(2.75545 -0.373772 0)
(2.75452 -0.36049 0)
(2.75087 -0.348432 0)
(2.74871 -0.342741 0)
(2.75002 -0.341971 0)
(2.75192 -0.343401 0)
(2.75363 -0.345569 0)
(2.7546 -0.348965 0)
(2.75455 -0.353756 0)
(2.75567 -0.35703 0)
(2.75722 -0.358605 0)
(2.76218 -0.36192 0)
(2.76925 -0.366601 0)
(2.77258 -0.368654 0)
(2.7746 -0.36973 0)
(2.77672 -0.371365 0)
(2.7782 -0.372597 0)
(2.77675 -0.371614 0)
(2.76752 -0.364107 0)
(2.7558 -0.353636 0)
(2.75432 -0.349947 0)
(2.75642 -0.348488 0)
(2.75858 -0.346911 0)
(2.76306 -0.344903 0)
(2.77215 -0.343158 0)
(2.78033 -0.342381 0)
(2.78256 -0.342358 0)
(2.78577 -0.342738 0)
(2.78873 -0.342997 0)
(2.79051 -0.343222 0)
(2.79017 -0.344044 0)
(2.79169 -0.345187 0)
(2.79358 -0.345783 0)
(2.7956 -0.346389 0)
(2.79805 -0.347091 0)
(2.80107 -0.347355 0)
(2.80411 -0.346867 0)
(2.80721 -0.346259 0)
(2.80973 -0.345897 0)
(2.81166 -0.34455 0)
(2.81033 -0.33963 0)
(2.80256 -0.329085 0)
(2.7947 -0.320905 0)
(2.79425 -0.319074 0)
(2.79625 -0.319413 0)
(2.7981 -0.320596 0)
(2.8004 -0.321384 0)
(2.80213 -0.32227 0)
(2.80098 -0.324298 0)
(2.79769 -0.326417 0)
(2.79864 -0.326525 0)
(2.80133 -0.326029 0)
(2.80401 -0.325292 0)
(2.80657 -0.324409 0)
(2.80879 -0.323731 0)
(2.81256 -0.322854 0)
(2.81875 -0.321155 0)
(2.82503 -0.320098 0)
(2.82741 -0.319775 0)
(2.82945 -0.319544 0)
(2.83173 -0.318891 0)
(2.83148 -0.316904 0)
(2.82474 -0.312098 0)
(2.81836 -0.30754 0)
(2.82014 -0.306905 0)
(2.82217 -0.307312 0)
(2.82446 -0.307536 0)
(2.82664 -0.308246 0)
(2.82951 -0.309327 0)
(2.83297 -0.310172 0)
(2.83641 -0.311142 0)
(2.83919 -0.311587 0)
(2.84215 -0.311977 0)
(2.84497 -0.312294 0)
(2.84743 -0.312374 0)
(2.84903 -0.311954 0)
(2.8486 -0.310007 0)
(2.84251 -0.304483 0)
(2.83522 -0.297338 0)
(2.83462 -0.293907 0)
(2.83539 -0.292373 0)
(2.83673 -0.290967 0)
(2.83896 -0.288276 0)
(2.84181 -0.284496 0)
(2.84483 -0.280404 0)
(2.84753 -0.276795 0)
(2.85023 -0.274257 0)
(2.85341 -0.273054 0)
(2.85694 -0.272719 0)
(2.85964 -0.272115 0)
(2.86061 -0.270998 0)
(2.86076 -0.270141 0)
(2.86061 -0.269446 0)
(2.86033 -0.268082 0)
(2.85929 -0.264676 0)
(2.85391 -0.258245 0)
(2.84557 -0.248917 0)
(2.84338 -0.244052 0)
(2.84458 -0.242773 0)
(2.84572 -0.242868 0)
(2.84693 -0.243331 0)
(2.85058 -0.244793 0)
(2.85842 -0.248678 0)
(2.86625 -0.252676 0)
(2.86826 -0.253181 0)
(2.87128 -0.25298 0)
(2.87401 -0.251434 0)
(2.87629 -0.249324 0)
(2.87845 -0.247673 0)
(2.87758 -0.245314 0)
(2.87135 -0.241713 0)
(2.8675 -0.240535 0)
(2.87018 -0.241175 0)
(2.87368 -0.241494 0)
(2.87701 -0.24197 0)
(2.87993 -0.243065 0)
(2.88326 -0.244765 0)
(2.88756 -0.246526 0)
(2.89173 -0.246549 0)
(2.89479 -0.245442 0)
(2.89624 -0.244583 0)
(2.89744 -0.242903 0)
(2.89474 -0.237781 0)
(2.88727 -0.230595 0)
(2.88551 -0.228186 0)
(2.88743 -0.228844 0)
(2.8899 -0.230346 0)
(2.89445 -0.232464 0)
(2.90331 -0.237533 0)
(2.9115 -0.242019 0)
(2.9152 -0.242329 0)
(2.92061 -0.241281 0)
(2.92461 -0.240229 0)
(2.92703 -0.238362 0)
(2.92423 -0.232543 0)
(2.91287 -0.220771 0)
(2.90475 -0.213345 0)
(2.90484 -0.212384 0)
(2.9056 -0.212925 0)
(2.90771 -0.214105 0)
(2.91051 -0.216288 0)
(2.91641 -0.221219 0)
(2.93025 -0.232611 0)
(2.94863 -0.244453 0)
(2.95425 -0.246616 0)
(2.95594 -0.2461 0)
(2.95812 -0.244226 0)
(2.9577 -0.239085 0)
(2.94756 -0.2242 0)
(2.92424 -0.201214 0)
(2.91571 -0.192413 0)
(2.91775 -0.192111 0)
(2.92042 -0.193353 0)
(2.9242 -0.195643 0)
(2.93067 -0.20014 0)
(2.94076 -0.211615 0)
(2.95479 -0.22926 0)
(2.96331 -0.239084 0)
(2.96477 -0.2408 0)
(2.96465 -0.241893 0)
(2.96265 -0.241366 0)
(2.95591 -0.233444 0)
(2.94174 -0.213717 0)
(2.934 -0.197345 0)
(2.93462 -0.191693 0)
(2.93834 -0.186009 0)
(2.94764 -0.181093 0)
(2.96335 -0.184004 0)
(2.9815 -0.198437 0)
(2.99343 -0.216394 0)
(2.99712 -0.22764 0)
(2.99696 -0.232832 0)
(2.99331 -0.237195 0)
(2.98355 -0.23859 0)
(2.96285 -0.228939 0)
(2.93744 -0.207893 0)
(2.92984 -0.198499 0)
(2.93147 -0.197008 0)
(2.93318 -0.195988 0)
(2.9356 -0.194726 0)
(2.94106 -0.193765 0)
(2.94952 -0.194963 0)
(2.96161 -0.202142 0)
(2.97857 -0.21839 0)
(2.99248 -0.233137 0)
(2.99568 -0.23666 0)
(2.99727 -0.238612 0)
(2.99812 -0.24009 0)
(2.99606 -0.238361 0)
(2.9852 -0.228412 0)
(2.96195 -0.206204 0)
(2.94918 -0.193918 0)
(2.95043 -0.19274 0)
(2.95248 -0.193626 0)
(2.95533 -0.1953 0)
(2.95832 -0.19711 0)
(2.96155 -0.199032 0)
(2.96743 -0.203512 0)
(2.97853 -0.215613 0)
(2.99508 -0.232278 0)
(3.00251 -0.238027 0)
(3.00436 -0.238005 0)
(3.00656 -0.237027 0)
(3.0081 -0.23559 0)
(3.00899 -0.233523 0)
(3.00802 -0.228655 0)
(2.99977 -0.217142 0)
(2.98169 -0.196805 0)
(2.9719 -0.186383 0)
(2.96857 -0.184354 0)
(2.96365 -0.178965 0)
(2.96053 -0.171143 0)
(2.95922 -0.163406 0)
(2.95769 -0.155651 0)
(2.95673 -0.150917 0)
(2.95687 -0.150684 0)
(2.95951 -0.153716 0)
(2.96456 -0.15891 0)
(2.96702 -0.161439 0)
(2.96859 -0.162131 0)
(2.97214 -0.161943 0)
(2.97597 -0.160423 0)
(2.97823 -0.15941 0)
(2.97739 -0.159217 0)
(2.97264 -0.157946 0)
(2.9666 -0.155227 0)
(2.96698 -0.154007 0)
(2.96907 -0.153982 0)
(2.97128 -0.153704 0)
(2.97439 -0.152993 0)
(2.98132 -0.153414 0)
(2.99326 -0.158186 0)
(3.00164 -0.162098 0)
(3.00363 -0.16255 0)
(3.007 -0.163125 0)
(3.00985 -0.163803 0)
(3.01259 -0.163968 0)
(3.01361 -0.162566 0)
(3.00626 -0.15637 0)
(2.98623 -0.144264 0)
(2.97556 -0.13912 0)
(2.97657 -0.139504 0)
(2.97854 -0.139838 0)
(2.97726 -0.140298 0)
(2.71708 -0.368282 0)
(2.7194 -0.370628 0)
(2.72291 -0.37522 0)
(2.73024 -0.382671 0)
(2.74152 -0.389578 0)
(2.7496 -0.390892 0)
(2.75424 -0.388033 0)
(2.75908 -0.383169 0)
(2.76365 -0.37604 0)
(2.76513 -0.371288 0)
(2.76623 -0.365289 0)
(2.76429 -0.355694 0)
(2.75611 -0.343448 0)
(2.75035 -0.337509 0)
(2.75036 -0.338302 0)
(2.75151 -0.341032 0)
(2.75188 -0.344922 0)
(2.75195 -0.348528 0)
(2.75317 -0.350253 0)
(2.75466 -0.351508 0)
(2.75871 -0.354047 0)
(2.76538 -0.358898 0)
(2.77107 -0.363645 0)
(2.77307 -0.365212 0)
(2.77508 -0.366556 0)
(2.77661 -0.368127 0)
(2.77758 -0.368628 0)
(2.77598 -0.366286 0)
(2.76837 -0.357007 0)
(2.7604 -0.345361 0)
(2.7606 -0.341024 0)
(2.76235 -0.339876 0)
(2.76721 -0.337994 0)
(2.77682 -0.335816 0)
(2.78292 -0.335848 0)
(2.78471 -0.336338 0)
(2.78746 -0.33739 0)
(2.78973 -0.338424 0)
(2.79095 -0.339335 0)
(2.79036 -0.339568 0)
(2.79154 -0.339926 0)
(2.79355 -0.340384 0)
(2.79566 -0.340872 0)
(2.79795 -0.341449 0)
(2.80147 -0.342603 0)
(2.80464 -0.343565 0)
(2.80735 -0.343394 0)
(2.81055 -0.342645 0)
(2.81299 -0.341929 0)
(2.81471 -0.340238 0)
(2.81325 -0.334934 0)
(2.80504 -0.324711 0)
(2.79697 -0.316999 0)
(2.79609 -0.315175 0)
(2.79747 -0.315818 0)
(2.79879 -0.317313 0)
(2.79893 -0.319597 0)
(2.79678 -0.322087 0)
(2.79635 -0.322919 0)
(2.79904 -0.322388 0)
(2.8018 -0.321816 0)
(2.80444 -0.320885 0)
(2.80746 -0.319677 0)
(2.8105 -0.318681 0)
(2.81572 -0.317093 0)
(2.82182 -0.314646 0)
(2.82651 -0.313826 0)
(2.82796 -0.313995 0)
(2.82981 -0.314377 0)
(2.83182 -0.314646 0)
(2.83323 -0.314304 0)
(2.83052 -0.312014 0)
(2.82208 -0.306678 0)
(2.8197 -0.303935 0)
(2.82158 -0.30408 0)
(2.82333 -0.304602 0)
(2.82568 -0.305334 0)
(2.82885 -0.306182 0)
(2.83209 -0.306732 0)
(2.83576 -0.307019 0)
(2.83884 -0.307178 0)
(2.84202 -0.3074 0)
(2.84505 -0.307639 0)
(2.84756 -0.307907 0)
(2.84921 -0.307967 0)
(2.84995 -0.307284 0)
(2.84851 -0.304483 0)
(2.84315 -0.297472 0)
(2.83884 -0.290771 0)
(2.839 -0.288231 0)
(2.83947 -0.28731 0)
(2.84104 -0.285847 0)
(2.84409 -0.283092 0)
(2.84708 -0.279844 0)
(2.84901 -0.277219 0)
(2.8506 -0.275159 0)
(2.85274 -0.273448 0)
(2.856 -0.272238 0)
(2.85962 -0.271366 0)
(2.8622 -0.270188 0)
(2.86317 -0.26847 0)
(2.8632 -0.26683 0)
(2.86284 -0.265539 0)
(2.86192 -0.263783 0)
(2.85959 -0.259774 0)
(2.85226 -0.25228 0)
(2.84558 -0.24342 0)
(2.84537 -0.239265 0)
(2.84678 -0.237841 0)
(2.84795 -0.23759 0)
(2.85029 -0.238062 0)
(2.85573 -0.240381 0)
(2.8644 -0.244981 0)
(2.86966 -0.247233 0)
(2.8718 -0.247015 0)
(2.87483 -0.245879 0)
(2.87719 -0.244944 0)
(2.87995 -0.244128 0)
(2.88129 -0.242619 0)
(2.87639 -0.240228 0)
(2.86842 -0.237966 0)
(2.86895 -0.237692 0)
(2.87199 -0.237948 0)
(2.87508 -0.238187 0)
(2.8781 -0.238568 0)
(2.88102 -0.23935 0)
(2.8862 -0.240905 0)
(2.89243 -0.241919 0)
(2.89676 -0.241198 0)
(2.89822 -0.240499 0)
(2.90002 -0.239272 0)
(2.90039 -0.236691 0)
(2.89502 -0.230359 0)
(2.88755 -0.223856 0)
(2.88788 -0.222849 0)
(2.88969 -0.224264 0)
(2.89229 -0.226615 0)
(2.89678 -0.229037 0)
(2.90566 -0.234074 0)
(2.91438 -0.238558 0)
(2.91807 -0.238613 0)
(2.92345 -0.23689 0)
(2.92733 -0.235246 0)
(2.92926 -0.233026 0)
(2.92549 -0.22646 0)
(2.91306 -0.214114 0)
(2.90582 -0.208032 0)
(2.90625 -0.208033 0)
(2.90714 -0.209971 0)
(2.90801 -0.212357 0)
(2.91019 -0.214495 0)
(2.91778 -0.220738 0)
(2.93684 -0.233506 0)
(2.95491 -0.241353 0)
(2.95811 -0.240962 0)
(2.96087 -0.239726 0)
(2.96309 -0.237188 0)
(2.96112 -0.23047 0)
(2.94562 -0.21287 0)
(2.92109 -0.192037 0)
(2.91683 -0.187441 0)
(2.9193 -0.188468 0)
(2.92183 -0.191734 0)
(2.92502 -0.195209 0)
(2.93114 -0.201023 0)
(2.94182 -0.213778 0)
(2.95763 -0.229794 0)
(2.96559 -0.236539 0)
(2.96646 -0.237288 0)
(2.96647 -0.237015 0)
(2.96495 -0.233352 0)
(2.9584 -0.220284 0)
(2.94672 -0.197936 0)
(2.94356 -0.18479 0)
(2.9451 -0.180533 0)
(2.95059 -0.175063 0)
(2.95927 -0.173847 0)
(2.9691 -0.181624 0)
(2.97944 -0.198543 0)
(2.98727 -0.218031 0)
(2.98982 -0.229567 0)
(2.98861 -0.234014 0)
(2.98372 -0.238317 0)
(2.97501 -0.237864 0)
(2.95985 -0.225759 0)
(2.94149 -0.203976 0)
(2.93574 -0.193705 0)
(2.93724 -0.191822 0)
(2.93886 -0.190631 0)
(2.94296 -0.189142 0)
(2.94794 -0.189758 0)
(2.95347 -0.19305 0)
(2.96213 -0.200941 0)
(2.97714 -0.217463 0)
(2.99162 -0.232014 0)
(2.99504 -0.234905 0)
(2.99728 -0.235951 0)
(2.99881 -0.236393 0)
(2.99718 -0.234067 0)
(2.98611 -0.223198 0)
(2.96256 -0.201187 0)
(2.95109 -0.190848 0)
(2.95265 -0.190783 0)
(2.95475 -0.192348 0)
(2.957 -0.194384 0)
(2.9595 -0.196587 0)
(2.96204 -0.198743 0)
(2.96791 -0.203182 0)
(2.98048 -0.215365 0)
(2.9987 -0.230463 0)
(3.00639 -0.233426 0)
(3.00823 -0.232583 0)
(3.0099 -0.231667 0)
(3.0117 -0.230569 0)
(3.01304 -0.228589 0)
(3.01189 -0.223545 0)
(3.00135 -0.210874 0)
(2.98156 -0.192077 0)
(2.97371 -0.184242 0)
(2.97124 -0.182852 0)
(2.96749 -0.17878 0)
(2.9645 -0.171173 0)
(2.96254 -0.163562 0)
(2.96011 -0.156172 0)
(2.95844 -0.150864 0)
(2.95862 -0.149776 0)
(2.9621 -0.152655 0)
(2.96734 -0.15746 0)
(2.96902 -0.159216 0)
(2.97038 -0.159492 0)
(2.97361 -0.158738 0)
(2.97723 -0.15667 0)
(2.97938 -0.155319 0)
(2.97853 -0.154827 0)
(2.97374 -0.153423 0)
(2.96889 -0.151317 0)
(2.9704 -0.150595 0)
(2.97248 -0.150822 0)
(2.97517 -0.15071 0)
(2.97929 -0.150291 0)
(2.98819 -0.152176 0)
(2.9996 -0.157792 0)
(3.0042 -0.159931 0)
(3.00658 -0.160406 0)
(3.00974 -0.161481 0)
(3.01218 -0.162226 0)
(3.01417 -0.162387 0)
(3.01251 -0.15979 0)
(2.99941 -0.150429 0)
(2.98098 -0.139235 0)
(2.977 -0.137519 0)
(2.97898 -0.137691 0)
(2.97788 -0.138045 0)
(2.71541 -0.363832 0)
(2.71641 -0.366362 0)
(2.71817 -0.368674 0)
(2.72243 -0.373044 0)
(2.73284 -0.379571 0)
(2.74832 -0.383879 0)
(2.76047 -0.382136 0)
(2.76809 -0.377237 0)
(2.77209 -0.372925 0)
(2.77383 -0.369379 0)
(2.77569 -0.365045 0)
(2.77625 -0.359402 0)
(2.77096 -0.3498 0)
(2.75691 -0.339788 0)
(2.74823 -0.338707 0)
(2.74766 -0.341639 0)
(2.74893 -0.343391 0)
(2.75062 -0.34426 0)
(2.75209 -0.345028 0)
(2.75372 -0.345975 0)
(2.75717 -0.347434 0)
(2.76197 -0.350261 0)
(2.76695 -0.354866 0)
(2.77114 -0.359652 0)
(2.77312 -0.361884 0)
(2.77512 -0.363261 0)
(2.77681 -0.364941 0)
(2.77793 -0.365358 0)
(2.77758 -0.362239 0)
(2.77413 -0.352704 0)
(2.76939 -0.339658 0)
(2.76908 -0.332577 0)
(2.77068 -0.330704 0)
(2.77593 -0.32946 0)
(2.781 -0.330742 0)
(2.78328 -0.332355 0)
(2.78592 -0.333497 0)
(2.78834 -0.334388 0)
(2.79026 -0.335186 0)
(2.79088 -0.335379 0)
(2.79136 -0.334957 0)
(2.79374 -0.334978 0)
(2.79591 -0.335378 0)
(2.79814 -0.336181 0)
(2.80048 -0.337405 0)
(2.80388 -0.33909 0)
(2.80805 -0.34037 0)
(2.81118 -0.339633 0)
(2.81433 -0.338573 0)
(2.81694 -0.337335 0)
(2.8189 -0.334863 0)
(2.81698 -0.329576 0)
(2.80772 -0.320204 0)
(2.79858 -0.3128 0)
(2.79611 -0.311339 0)
(2.79618 -0.313824 0)
(2.79561 -0.317376 0)
(2.79445 -0.319186 0)
(2.79646 -0.318915 0)
(2.79934 -0.31847 0)
(2.8023 -0.317648 0)
(2.80546 -0.316526 0)
(2.80871 -0.315136 0)
(2.81307 -0.313824 0)
(2.81917 -0.312238 0)
(2.82417 -0.309826 0)
(2.82588 -0.309531 0)
(2.82817 -0.309915 0)
(2.83014 -0.310313 0)
(2.83185 -0.310531 0)
(2.83302 -0.310478 0)
(2.83267 -0.309751 0)
(2.82757 -0.306406 0)
(2.82155 -0.301148 0)
(2.8224 -0.299409 0)
(2.82442 -0.299549 0)
(2.82654 -0.300034 0)
(2.82934 -0.300916 0)
(2.83216 -0.301546 0)
(2.83513 -0.302529 0)
(2.83809 -0.30325 0)
(2.84128 -0.30381 0)
(2.84431 -0.304253 0)
(2.84679 -0.304553 0)
(2.84849 -0.304383 0)
(2.84986 -0.303332 0)
(2.85095 -0.301639 0)
(2.85009 -0.297943 0)
(2.84547 -0.290537 0)
(2.84256 -0.284734 0)
(2.84316 -0.282737 0)
(2.8448 -0.280802 0)
(2.84714 -0.278816 0)
(2.84893 -0.277472 0)
(2.85031 -0.276405 0)
(2.85156 -0.275203 0)
(2.8533 -0.273713 0)
(2.85611 -0.271868 0)
(2.85987 -0.270158 0)
(2.86308 -0.268942 0)
(2.86523 -0.267664 0)
(2.86618 -0.265572 0)
(2.86602 -0.263315 0)
(2.86538 -0.261435 0)
(2.86358 -0.259077 0)
(2.8594 -0.2541 0)
(2.85086 -0.245432 0)
(2.84724 -0.237784 0)
(2.84844 -0.234401 0)
(2.84997 -0.232904 0)
(2.85161 -0.232612 0)
(2.85494 -0.233836 0)
(2.8611 -0.2374 0)
(2.86843 -0.241413 0)
(2.87076 -0.241971 0)
(2.87389 -0.241354 0)
(2.8773 -0.240522 0)
(2.88039 -0.239881 0)
(2.8823 -0.239045 0)
(2.88034 -0.237745 0)
(2.87213 -0.235182 0)
(2.86904 -0.233321 0)
(2.87203 -0.233266 0)
(2.87486 -0.233378 0)
(2.87754 -0.233533 0)
(2.88004 -0.233832 0)
(2.88461 -0.234675 0)
(2.892 -0.236342 0)
(2.89877 -0.237469 0)
(2.90104 -0.237286 0)
(2.90263 -0.236503 0)
(2.90401 -0.234682 0)
(2.90258 -0.230573 0)
(2.89448 -0.222686 0)
(2.88864 -0.217988 0)
(2.89003 -0.218544 0)
(2.8917 -0.220821 0)
(2.89517 -0.222964 0)
(2.8996 -0.224903 0)
(2.90978 -0.228619 0)
(2.9201 -0.231295 0)
(2.92337 -0.23044 0)
(2.92715 -0.22946 0)
(2.93063 -0.22852 0)
(2.93236 -0.226183 0)
(2.92628 -0.21977 0)
(2.91207 -0.209856 0)
(2.90543 -0.206842 0)
(2.9056 -0.207492 0)
(2.90649 -0.208371 0)
(2.90742 -0.208762 0)
(2.91101 -0.210068 0)
(2.92319 -0.217329 0)
(2.94647 -0.230608 0)
(2.95867 -0.235294 0)
(2.96113 -0.234845 0)
(2.96526 -0.233018 0)
(2.96782 -0.23005 0)
(2.96297 -0.221744 0)
(2.94038 -0.201747 0)
(2.91798 -0.186195 0)
(2.91718 -0.184854 0)
(2.91947 -0.187178 0)
(2.92147 -0.191096 0)
(2.92435 -0.194812 0)
(2.9305 -0.202106 0)
(2.9437 -0.216656 0)
(2.96262 -0.230799 0)
(2.97043 -0.232499 0)
(2.97114 -0.230376 0)
(2.97104 -0.227662 0)
(2.96924 -0.220399 0)
(2.96255 -0.202971 0)
(2.95102 -0.180865 0)
(2.9496 -0.172638 0)
(2.95192 -0.172012 0)
(2.95539 -0.172 0)
(2.96039 -0.17484 0)
(2.96673 -0.183949 0)
(2.97436 -0.201362 0)
(2.98202 -0.221808 0)
(2.98503 -0.231894 0)
(2.98441 -0.233858 0)
(2.98063 -0.235544 0)
(2.97412 -0.23282 0)
(2.9631 -0.219248 0)
(2.9466 -0.196808 0)
(2.9401 -0.186637 0)
(2.94168 -0.185616 0)
(2.94377 -0.185932 0)
(2.94657 -0.187344 0)
(2.94961 -0.189938 0)
(2.95369 -0.193414 0)
(2.96206 -0.201405 0)
(2.97817 -0.218176 0)
(2.99342 -0.231155 0)
(2.9966 -0.232893 0)
(2.99934 -0.23281 0)
(3.00137 -0.232057 0)
(2.99991 -0.229043 0)
(2.98738 -0.217164 0)
(2.96211 -0.1968 0)
(2.95211 -0.190084 0)
(2.95349 -0.19102 0)
(2.95532 -0.19256 0)
(2.95758 -0.194736 0)
(2.95958 -0.196774 0)
(2.96182 -0.198535 0)
(2.96807 -0.20384 0)
(2.9839 -0.217445 0)
(3.00475 -0.22807 0)
(3.01117 -0.228441 0)
(3.01225 -0.227919 0)
(3.01423 -0.226549 0)
(3.01629 -0.22559 0)
(3.01762 -0.223949 0)
(3.01495 -0.218388 0)
(2.99964 -0.203833 0)
(2.98018 -0.188271 0)
(2.97539 -0.183998 0)
(2.97364 -0.182661 0)
(2.97103 -0.179566 0)
(2.96826 -0.173043 0)
(2.96546 -0.165259 0)
(2.96234 -0.15738 0)
(2.96038 -0.151099 0)
(2.96102 -0.148915 0)
(2.96571 -0.151563 0)
(2.97047 -0.155478 0)
(2.97133 -0.156417 0)
(2.97249 -0.156443 0)
(2.97544 -0.155243 0)
(2.97871 -0.152672 0)
(2.98056 -0.151032 0)
(2.97963 -0.150281 0)
(2.97503 -0.149007 0)
(2.97148 -0.147666 0)
(2.97362 -0.147491 0)
(2.97594 -0.147983 0)
(2.97901 -0.148095 0)
(2.98438 -0.148177 0)
(2.99439 -0.151486 0)
(3.00376 -0.15649 0)
(3.00604 -0.157501 0)
(3.00919 -0.158249 0)
(3.01169 -0.159609 0)
(3.0137 -0.160476 0)
(3.01467 -0.159994 0)
(3.00963 -0.155311 0)
(2.99238 -0.143212 0)
(2.98006 -0.135185 0)
(2.98124 -0.134206 0)
(2.98018 -0.13417 0)
(2.71489 -0.358421 0)
(2.71599 -0.359567 0)
(2.7168 -0.360524 0)
(2.71894 -0.362771 0)
(2.72584 -0.368059 0)
(2.7444 -0.374111 0)
(2.76493 -0.373849 0)
(2.77363 -0.370504 0)
(2.77748 -0.367825 0)
(2.77993 -0.364564 0)
(2.78164 -0.361803 0)
(2.78418 -0.359485 0)
(2.78288 -0.356191 0)
(2.76841 -0.348134 0)
(2.75032 -0.340203 0)
(2.74742 -0.338101 0)
(2.74892 -0.338411 0)
(2.75062 -0.338936 0)
(2.75251 -0.33941 0)
(2.75451 -0.340003 0)
(2.75783 -0.340924 0)
(2.76111 -0.342687 0)
(2.76404 -0.345615 0)
(2.76735 -0.349933 0)
(2.77145 -0.355285 0)
(2.77448 -0.358663 0)
(2.7766 -0.359754 0)
(2.77934 -0.359918 0)
(2.78153 -0.35949 0)
(2.78257 -0.355817 0)
(2.78216 -0.346646 0)
(2.77974 -0.33447 0)
(2.77754 -0.325836 0)
(2.77854 -0.323392 0)
(2.7802 -0.323537 0)
(2.78258 -0.325163 0)
(2.78548 -0.32717 0)
(2.78757 -0.328704 0)
(2.78948 -0.329632 0)
(2.79135 -0.330053 0)
(2.79251 -0.329827 0)
(2.79346 -0.330016 0)
(2.79564 -0.331029 0)
(2.798 -0.331995 0)
(2.80047 -0.332911 0)
(2.80281 -0.33382 0)
(2.80762 -0.335331 0)
(2.81369 -0.336334 0)
(2.81683 -0.335249 0)
(2.81974 -0.334406 0)
(2.82222 -0.332968 0)
(2.8236 -0.329672 0)
(2.82023 -0.322869 0)
(2.80789 -0.313797 0)
(2.79611 -0.310503 0)
(2.79306 -0.31264 0)
(2.79403 -0.314179 0)
(2.79612 -0.314128 0)
(2.79899 -0.313645 0)
(2.80184 -0.313623 0)
(2.80466 -0.313111 0)
(2.80798 -0.31181 0)
(2.81152 -0.310978 0)
(2.8167 -0.310006 0)
(2.82171 -0.307317 0)
(2.82353 -0.30632 0)
(2.82641 -0.306247 0)
(2.82871 -0.306418 0)
(2.83068 -0.306538 0)
(2.8323 -0.306206 0)
(2.83325 -0.305632 0)
(2.83347 -0.305293 0)
(2.83209 -0.304026 0)
(2.827 -0.300597 0)
(2.82337 -0.297468 0)
(2.82433 -0.296654 0)
(2.82599 -0.297121 0)
(2.82833 -0.297769 0)
(2.83131 -0.298577 0)
(2.83407 -0.299456 0)
(2.83702 -0.300335 0)
(2.84015 -0.300836 0)
(2.84311 -0.301085 0)
(2.846 -0.300504 0)
(2.84903 -0.298954 0)
(2.85157 -0.297281 0)
(2.85321 -0.295793 0)
(2.85414 -0.293785 0)
(2.85238 -0.289134 0)
(2.84673 -0.282134 0)
(2.84468 -0.278252 0)
(2.84516 -0.277821 0)
(2.84694 -0.276882 0)
(2.84912 -0.276151 0)
(2.85093 -0.275762 0)
(2.85243 -0.275229 0)
(2.85433 -0.27451 0)
(2.85692 -0.273476 0)
(2.86035 -0.271864 0)
(2.86373 -0.269882 0)
(2.8663 -0.268112 0)
(2.86838 -0.265996 0)
(2.86932 -0.262767 0)
(2.86884 -0.259612 0)
(2.86772 -0.257117 0)
(2.86495 -0.254001 0)
(2.85868 -0.247717 0)
(2.85116 -0.238926 0)
(2.85009 -0.233178 0)
(2.85145 -0.230256 0)
(2.85302 -0.228898 0)
(2.85541 -0.228849 0)
(2.85945 -0.230504 0)
(2.86646 -0.234172 0)
(2.87148 -0.236497 0)
(2.87359 -0.23675 0)
(2.87726 -0.236607 0)
(2.88052 -0.236078 0)
(2.88261 -0.235415 0)
(2.88239 -0.234804 0)
(2.87648 -0.233273 0)
(2.86998 -0.230688 0)
(2.8717 -0.229519 0)
(2.87459 -0.229132 0)
(2.87734 -0.228857 0)
(2.87955 -0.228834 0)
(2.88306 -0.229554 0)
(2.8901 -0.231327 0)
(2.89869 -0.232662 0)
(2.90367 -0.233157 0)
(2.90488 -0.232963 0)
(2.90651 -0.231911 0)
(2.90746 -0.229581 0)
(2.90367 -0.223261 0)
(2.894 -0.214405 0)
(2.89042 -0.211979 0)
(2.8918 -0.213792 0)
(2.89432 -0.215843 0)
(2.89805 -0.21728 0)
(2.90345 -0.219042 0)
(2.91484 -0.223455 0)
(2.92307 -0.226116 0)
(2.92592 -0.225736 0)
(2.93023 -0.224655 0)
(2.93339 -0.224017 0)
(2.93394 -0.221864 0)
(2.9248 -0.214396 0)
(2.90978 -0.20487 0)
(2.90544 -0.202374 0)
(2.90599 -0.202241 0)
(2.90673 -0.202457 0)
(2.9083 -0.20297 0)
(2.91465 -0.205436 0)
(2.93157 -0.215589 0)
(2.95517 -0.228303 0)
(2.96277 -0.230431 0)
(2.96638 -0.229697 0)
(2.97066 -0.228088 0)
(2.97103 -0.224494 0)
(2.96077 -0.213328 0)
(2.933 -0.191832 0)
(2.9164 -0.182409 0)
(2.91692 -0.183801 0)
(2.91843 -0.186716 0)
(2.9197 -0.189896 0)
(2.92234 -0.193608 0)
(2.92976 -0.202174 0)
(2.9486 -0.217155 0)
(2.971 -0.226222 0)
(2.97809 -0.224111 0)
(2.97934 -0.219718 0)
(2.97938 -0.215149 0)
(2.97744 -0.206287 0)
(2.96848 -0.188653 0)
(2.95228 -0.170971 0)
(2.94951 -0.166893 0)
(2.9523 -0.168724 0)
(2.95474 -0.173271 0)
(2.95741 -0.180032 0)
(2.96243 -0.188935 0)
(2.97076 -0.205494 0)
(2.98126 -0.223751 0)
(2.98533 -0.230259 0)
(2.98447 -0.230308 0)
(2.98316 -0.228767 0)
(2.9791 -0.223882 0)
(2.96894 -0.209493 0)
(2.95075 -0.188797 0)
(2.9424 -0.181881 0)
(2.94346 -0.182909 0)
(2.94537 -0.185114 0)
(2.94785 -0.18817 0)
(2.95054 -0.191223 0)
(2.95406 -0.194435 0)
(2.96353 -0.202835 0)
(2.98263 -0.219582 0)
(2.99731 -0.229318 0)
(2.9997 -0.229953 0)
(3.00283 -0.229437 0)
(3.00516 -0.228348 0)
(3.00274 -0.224556 0)
(2.9858 -0.210529 0)
(2.9594 -0.192386 0)
(2.95258 -0.189005 0)
(2.95401 -0.190674 0)
(2.95585 -0.192162 0)
(2.95769 -0.193387 0)
(2.95915 -0.194508 0)
(2.962 -0.196558 0)
(2.97096 -0.202967 0)
(2.99181 -0.215939 0)
(3.00982 -0.223949 0)
(3.01309 -0.224155 0)
(3.01535 -0.223269 0)
(3.01811 -0.222466 0)
(3.02042 -0.222108 0)
(3.02106 -0.220574 0)
(3.015 -0.213782 0)
(2.99503 -0.197248 0)
(2.97933 -0.186135 0)
(2.97706 -0.184281 0)
(2.97583 -0.182765 0)
(2.97384 -0.179853 0)
(2.97127 -0.17445 0)
(2.96794 -0.166289 0)
(2.96478 -0.157678 0)
(2.96315 -0.150647 0)
(2.96461 -0.147837 0)
(2.97031 -0.150218 0)
(2.97389 -0.153028 0)
(2.97422 -0.153491 0)
(2.97517 -0.153303 0)
(2.97757 -0.151463 0)
(2.98026 -0.148552 0)
(2.98187 -0.146923 0)
(2.9809 -0.146108 0)
(2.97641 -0.144886 0)
(2.974 -0.144403 0)
(2.97656 -0.144702 0)
(2.97905 -0.145507 0)
(2.98246 -0.145955 0)
(2.98895 -0.14674 0)
(2.9992 -0.151247 0)
(3.00585 -0.154858 0)
(3.00781 -0.155364 0)
(3.01097 -0.156389 0)
(3.01312 -0.157867 0)
(3.01473 -0.158798 0)
(3.0141 -0.157583 0)
(3.00473 -0.149782 0)
(2.9871 -0.13588 0)
(2.98407 -0.131197 0)
(2.98325 -0.130872 0)
(2.71316 -0.353858 0)
(2.71441 -0.354429 0)
(2.7156 -0.355076 0)
(2.71691 -0.355607 0)
(2.72222 -0.35649 0)
(2.73728 -0.359016 0)
(2.76327 -0.362394 0)
(2.77676 -0.362406 0)
(2.77877 -0.361631 0)
(2.78195 -0.361246 0)
(2.78535 -0.361402 0)
(2.78836 -0.361467 0)
(2.7877 -0.360548 0)
(2.77837 -0.356563 0)
(2.75942 -0.346142 0)
(2.74938 -0.338914 0)
(2.74957 -0.33677 0)
(2.75095 -0.336673 0)
(2.75248 -0.336702 0)
(2.75494 -0.336444 0)
(2.75814 -0.336568 0)
(2.7605 -0.337696 0)
(2.76229 -0.339234 0)
(2.76458 -0.341435 0)
(2.76808 -0.345277 0)
(2.77323 -0.350444 0)
(2.77879 -0.353895 0)
(2.78252 -0.353792 0)
(2.78545 -0.351703 0)
(2.78754 -0.348705 0)
(2.78912 -0.344734 0)
(2.79047 -0.338447 0)
(2.78787 -0.328938 0)
(2.78146 -0.320149 0)
(2.78009 -0.317567 0)
(2.78203 -0.31826 0)
(2.78423 -0.320355 0)
(2.78663 -0.322647 0)
(2.78812 -0.324236 0)
(2.78978 -0.325346 0)
(2.7914 -0.326027 0)
(2.79279 -0.326252 0)
(2.79548 -0.326698 0)
(2.79812 -0.327156 0)
(2.80054 -0.327619 0)
(2.80272 -0.328352 0)
(2.80584 -0.329494 0)
(2.8125 -0.331816 0)
(2.81961 -0.332438 0)
(2.82324 -0.330616 0)
(2.82493 -0.328413 0)
(2.82718 -0.326248 0)
(2.82804 -0.323357 0)
(2.81903 -0.317498 0)
(2.79948 -0.311879 0)
(2.79267 -0.310871 0)
(2.79372 -0.311348 0)
(2.79519 -0.311257 0)
(2.79765 -0.310401 0)
(2.8008 -0.309576 0)
(2.80362 -0.308783 0)
(2.808 -0.307738 0)
(2.81375 -0.3055 0)
(2.81873 -0.3036 0)
(2.82268 -0.302681 0)
(2.82534 -0.301928 0)
(2.82771 -0.301731 0)
(2.82992 -0.301712 0)
(2.83169 -0.301736 0)
(2.83269 -0.301698 0)
(2.83328 -0.301409 0)
(2.83411 -0.301168 0)
(2.83474 -0.30101 0)
(2.83345 -0.299011 0)
(2.82897 -0.294471 0)
(2.82692 -0.29143 0)
(2.82823 -0.291081 0)
(2.82992 -0.291848 0)
(2.83176 -0.293073 0)
(2.83434 -0.294235 0)
(2.83722 -0.294874 0)