/*--------------------------------*- C++ -*----------------------------------*\
  =========                 |
  \\      /  F ield         | OpenFOAM: The Open Source CFD Toolbox
   \\    /   O peration     | Website:  https://openfoam.org
    \\  /    A nd           | Version:  7
     \\/     M anipulation  |
\*---------------------------------------------------------------------------*/
FoamFile
{
    version     2.0;
    format      ascii;
    class       volVectorField;
    location    "1.4";
    object      U;
}
// * * * * * * * * * * * * * * * * * * * * * * * * * * * * * * * * * * * * * //

dimensions      [0 1 -1 0 0 0 0];

internalField   nonuniform List<vector> 
4128
(
(2.56561 -0.492394 0)
(2.57065 -0.492947 0)
(2.57462 -0.494957 0)
(2.57812 -0.496749 0)
(2.58273 -0.497665 0)
(2.58906 -0.497907 0)
(2.5967 -0.497716 0)
(2.60482 -0.496594 0)
(2.6122 -0.493637 0)
(2.61708 -0.489749 0)
(2.61793 -0.486871 0)
(2.61398 -0.48665 0)
(2.61398 -0.489473 0)
(2.62059 -0.491287 0)
(2.62591 -0.491429 0)
(2.63185 -0.491318 0)
(2.63945 -0.490861 0)
(2.64968 -0.490801 0)
(2.65824 -0.492136 0)
(2.66687 -0.494478 0)
(2.67432 -0.497733 0)
(2.67885 -0.501769 0)
(2.6736 -0.502487 0)
(2.66221 -0.495733 0)
(2.66528 -0.490249 0)
(2.67335 -0.488278 0)
(2.68102 -0.485729 0)
(2.6879 -0.482243 0)
(2.69471 -0.479875 0)
(2.70152 -0.478063 0)
(2.70795 -0.47841 0)
(2.71331 -0.480343 0)
(2.71701 -0.48339 0)
(2.71928 -0.488141 0)
(2.72093 -0.493267 0)
(2.72458 -0.494415 0)
(2.72974 -0.492024 0)
(2.73559 -0.487356 0)
(2.74162 -0.480548 0)
(2.74691 -0.472349 0)
(2.74978 -0.466589 0)
(2.75069 -0.466518 0)
(2.75151 -0.47043 0)
(2.75301 -0.47368 0)
(2.75557 -0.476253 0)
(2.76288 -0.477619 0)
(2.76904 -0.479571 0)
(2.77551 -0.480233 0)
(2.7813 -0.477273 0)
(2.78482 -0.472298 0)
(2.78891 -0.469118 0)
(2.79385 -0.467226 0)
(2.79857 -0.464519 0)
(2.8024 -0.461891 0)
(2.80527 -0.462379 0)
(2.806 -0.464806 0)
(2.80659 -0.465796 0)
(2.8087 -0.46603 0)
(2.81407 -0.466457 0)
(2.82098 -0.466153 0)
(2.82778 -0.464371 0)
(2.83304 -0.461579 0)
(2.83551 -0.459186 0)
(2.83956 -0.459069 0)
(2.84439 -0.459016 0)
(2.84949 -0.458577 0)
(2.85504 -0.459062 0)
(2.85954 -0.461242 0)
(2.86252 -0.464292 0)
(2.86261 -0.466379 0)
(2.85991 -0.463806 0)
(2.85906 -0.456901 0)
(2.86141 -0.451115 0)
(2.86552 -0.449057 0)
(2.86964 -0.44892 0)
(2.87319 -0.448918 0)
(2.8773 -0.448204 0)
(2.88398 -0.447274 0)
(2.89088 -0.447062 0)
(2.89635 -0.447878 0)
(2.89895 -0.449699 0)
(2.90274 -0.449862 0)
(2.90945 -0.450501 0)
(2.91542 -0.450662 0)
(2.92094 -0.449185 0)
(2.92401 -0.445501 0)
(2.92367 -0.439355 0)
(2.91937 -0.433098 0)
(2.91377 -0.432203 0)
(2.9174 -0.433953 0)
(2.92282 -0.434127 0)
(2.92692 -0.434344 0)
(2.93007 -0.435092 0)
(2.93634 -0.435885 0)
(2.9416 -0.435722 0)
(2.94684 -0.435233 0)
(2.95128 -0.435623 0)
(2.95573 -0.435854 0)
(2.96013 -0.436255 0)
(2.96487 -0.437518 0)
(2.96849 -0.437473 0)
(2.96526 -0.431937 0)
(2.95709 -0.423739 0)
(2.95631 -0.420413 0)
(2.96039 -0.420318 0)
(2.96547 -0.421081 0)
(2.97082 -0.42136 0)
(2.97614 -0.420913 0)
(2.98021 -0.420716 0)
(2.98333 -0.42161 0)
(2.98718 -0.423693 0)
(2.99291 -0.425254 0)
(2.9996 -0.426224 0)
(3.00649 -0.426161 0)
(3.01098 -0.422797 0)
(3.00619 -0.41399 0)
(2.99743 -0.407716 0)
(2.9995 -0.406092 0)
(3.00428 -0.405899 0)
(3.00853 -0.40587 0)
(3.01342 -0.404894 0)
(3.01876 -0.405133 0)
(3.02513 -0.405377 0)
(3.03221 -0.406333 0)
(3.03895 -0.407878 0)
(3.0443 -0.410336 0)
(3.04688 -0.413385 0)
(3.04517 -0.418516 0)
(3.04218 -0.414287 0)
(2.57117 -0.481957 0)
(2.57447 -0.477197 0)
(2.57538 -0.475392 0)
(2.57829 -0.477007 0)
(2.58312 -0.479236 0)
(2.59052 -0.480865 0)
(2.59892 -0.481652 0)
(2.60724 -0.4814 0)
(2.61515 -0.479703 0)
(2.62143 -0.477669 0)
(2.62285 -0.476428 0)
(2.61578 -0.474913 0)
(2.61035 -0.471534 0)
(2.61594 -0.469549 0)
(2.6235 -0.469213 0)
(2.63098 -0.469384 0)
(2.63941 -0.469926 0)
(2.64653 -0.471145 0)
(2.65537 -0.473296 0)
(2.66528 -0.47569 0)
(2.67407 -0.478913 0)
(2.6784 -0.484685 0)
(2.67643 -0.490679 0)
(2.67041 -0.488033 0)
(2.673 -0.47878 0)
(2.67879 -0.470996 0)
(2.68419 -0.465009 0)
(2.69032 -0.462023 0)
(2.69785 -0.461952 0)
(2.70496 -0.462372 0)
(2.71073 -0.463388 0)
(2.7163 -0.465721 0)
(2.7189 -0.468341 0)
(2.71561 -0.471841 0)
(2.72056 -0.473677 0)
(2.72761 -0.474381 0)
(2.7347 -0.47223 0)
(2.74175 -0.467027 0)
(2.74815 -0.463064 0)
(2.75431 -0.4607 0)
(2.75834 -0.457413 0)
(2.75827 -0.453352 0)
(2.75497 -0.453477 0)
(2.752 -0.457991 0)
(2.75399 -0.459131 0)
(2.75926 -0.458621 0)
(2.76661 -0.458715 0)
(2.77406 -0.459355 0)
(2.78356 -0.459594 0)
(2.79063 -0.458244 0)
(2.79718 -0.455855 0)
(2.80212 -0.452373 0)
(2.80244 -0.44981 0)
(2.79789 -0.449853 0)
(2.79589 -0.451742 0)
(2.79977 -0.45335 0)
(2.8064 -0.454172 0)
(2.81328 -0.453717 0)
(2.81884 -0.452199 0)
(2.82225 -0.450972 0)
(2.82526 -0.448954 0)
(2.83258 -0.446297 0)
(2.83944 -0.444105 0)
(2.84392 -0.441663 0)
(2.8463 -0.440675 0)
(2.84795 -0.441517 0)
(2.85057 -0.443039 0)
(2.85393 -0.445144 0)
(2.8576 -0.44719 0)
(2.86121 -0.449194 0)
(2.86368 -0.450823 0)
(2.86584 -0.44866 0)
(2.86785 -0.442615 0)
(2.86863 -0.435473 0)
(2.87068 -0.431677 0)
(2.87598 -0.43199 0)
(2.88036 -0.432687 0)
(2.88518 -0.433572 0)
(2.89188 -0.434283 0)
(2.89837 -0.43499 0)
(2.90281 -0.436633 0)
(2.90846 -0.436615 0)
(2.91459 -0.436079 0)
(2.92041 -0.435554 0)
(2.92633 -0.434002 0)
(2.93104 -0.431421 0)
(2.93272 -0.428131 0)
(2.92975 -0.423418 0)
(2.92321 -0.418975 0)
(2.9156 -0.419669 0)
(2.91953 -0.421665 0)
(2.92734 -0.422424 0)
(2.93472 -0.423423 0)
(2.94162 -0.423736 0)
(2.94794 -0.423479 0)
(2.9536 -0.422327 0)
(2.95711 -0.420737 0)
(2.96008 -0.419722 0)
(2.96314 -0.41958 0)
(2.96725 -0.419745 0)
(2.97197 -0.419349 0)
(2.97211 -0.415921 0)
(2.95976 -0.410501 0)
(2.95134 -0.408489 0)
(2.95504 -0.408489 0)
(2.96079 -0.408129 0)
(2.96741 -0.407453 0)
(2.97406 -0.406755 0)
(2.98026 -0.406882 0)
(2.98604 -0.407972 0)
(2.99086 -0.40924 0)
(2.99543 -0.410676 0)
(3.00007 -0.412219 0)
(3.0049 -0.413074 0)
(3.01098 -0.412661 0)
(3.01421 -0.408334 0)
(3.008 -0.398383 0)
(3.00678 -0.393137 0)
(3.01099 -0.392766 0)
(3.0134 -0.392642 0)
(3.01759 -0.392331 0)
(3.02252 -0.392434 0)
(3.02763 -0.393059 0)
(3.03528 -0.394291 0)
(3.04144 -0.39541 0)
(3.04644 -0.396082 0)
(3.04929 -0.396488 0)
(3.04962 -0.398518 0)
(3.04799 -0.399708 0)
(2.57607 -0.467231 0)
(2.58124 -0.464102 0)
(2.57915 -0.460874 0)
(2.57673 -0.461511 0)
(2.58411 -0.463633 0)
(2.59256 -0.464754 0)
(2.60061 -0.465585 0)
(2.60887 -0.465226 0)
(2.61681 -0.464264 0)
(2.6237 -0.462877 0)
(2.62604 -0.462107 0)
(2.62068 -0.462007 0)
(2.61729 -0.460067 0)
(2.62243 -0.457703 0)
(2.62975 -0.455774 0)
(2.63816 -0.454168 0)
(2.64712 -0.454348 0)
(2.65601 -0.456388 0)
(2.66392 -0.459271 0)
(2.67065 -0.461278 0)
(2.67802 -0.463539 0)
(2.68248 -0.465795 0)
(2.67869 -0.471195 0)
(2.67576 -0.473272 0)
(2.68103 -0.469955 0)
(2.68707 -0.465461 0)
(2.69316 -0.459752 0)
(2.69897 -0.452856 0)
(2.70329 -0.44655 0)
(2.70608 -0.443847 0)
(2.70811 -0.44582 0)
(2.71099 -0.449853 0)
(2.7129 -0.454166 0)
(2.71547 -0.456594 0)
(2.721 -0.455893 0)
(2.72757 -0.454845 0)
(2.73566 -0.453085 0)
(2.74463 -0.448708 0)
(2.75223 -0.445668 0)
(2.76003 -0.443911 0)
(2.76371 -0.442902 0)
(2.75773 -0.442427 0)
(2.74941 -0.442532 0)
(2.75453 -0.44368 0)
(2.76057 -0.444892 0)
(2.76583 -0.445191 0)
(2.77109 -0.442712 0)
(2.77741 -0.439424 0)
(2.78516 -0.438019 0)
(2.79424 -0.437973 0)
(2.80189 -0.438842 0)
(2.80925 -0.439747 0)
(2.81053 -0.439548 0)
(2.80089 -0.438052 0)
(2.79659 -0.437607 0)
(2.80329 -0.438464 0)
(2.80962 -0.437863 0)
(2.81596 -0.436175 0)
(2.8222 -0.436204 0)
(2.82738 -0.438617 0)
(2.83192 -0.439324 0)
(2.83644 -0.435652 0)
(2.8413 -0.431144 0)
(2.84692 -0.427981 0)
(2.85185 -0.426051 0)
(2.85455 -0.425098 0)
(2.85567 -0.425999 0)
(2.85684 -0.428382 0)
(2.85747 -0.430791 0)
(2.8585 -0.432891 0)
(2.86242 -0.43381 0)
(2.86775 -0.434065 0)
(2.87232 -0.43304 0)
(2.87587 -0.428311 0)
(2.87821 -0.420059 0)
(2.87936 -0.413918 0)
(2.88105 -0.413958 0)
(2.88271 -0.417692 0)
(2.88541 -0.420831 0)
(2.88998 -0.42209 0)
(2.89516 -0.421216 0)
(2.90266 -0.420027 0)
(2.91013 -0.419672 0)
(2.91759 -0.419364 0)
(2.92557 -0.418225 0)
(2.93264 -0.415947 0)
(2.93795 -0.411886 0)
(2.93818 -0.406882 0)
(2.9273 -0.404269 0)
(2.91783 -0.406561 0)
(2.92049 -0.408988 0)
(2.92431 -0.410013 0)
(2.93083 -0.410912 0)
(2.93794 -0.411414 0)
(2.94448 -0.410386 0)
(2.95088 -0.408856 0)
(2.96088 -0.408036 0)
(2.96781 -0.40655 0)
(2.97089 -0.406575 0)
(2.97597 -0.407334 0)
(2.98074 -0.408119 0)
(2.98138 -0.406914 0)
(2.96908 -0.400893 0)
(2.95575 -0.394889 0)
(2.96009 -0.394373 0)
(2.96484 -0.394839 0)
(2.96941 -0.395409 0)
(2.97493 -0.39498 0)
(2.98155 -0.393407 0)
(2.98679 -0.393517 0)
(2.99238 -0.39404 0)
(2.99869 -0.394953 0)
(3.00443 -0.396392 0)
(3.00944 -0.398993 0)
(3.01382 -0.400464 0)
(3.01702 -0.400504 0)
(3.01395 -0.394074 0)
(3.00667 -0.382558 0)
(3.00712 -0.377307 0)
(3.01158 -0.376597 0)
(3.01641 -0.37738 0)
(3.02194 -0.378586 0)
(3.02818 -0.379128 0)
(3.03367 -0.380363 0)
(3.03786 -0.381723 0)
(3.04112 -0.382305 0)
(3.04345 -0.383518 0)
(3.04476 -0.38179 0)
(3.04673 -0.380626 0)
(2.58111 -0.453631 0)
(2.58719 -0.45332 0)
(2.58488 -0.452528 0)
(2.58149 -0.450183 0)
(2.58615 -0.447735 0)
(2.59345 -0.446317 0)
(2.60079 -0.445811 0)
(2.60842 -0.446061 0)
(2.6165 -0.446877 0)
(2.62413 -0.448037 0)
(2.62801 -0.449134 0)
(2.62598 -0.448873 0)
(2.62537 -0.446694 0)
(2.63054 -0.444338 0)
(2.63737 -0.442295 0)
(2.64451 -0.440014 0)
(2.65149 -0.437437 0)
(2.65817 -0.43593 0)
(2.66512 -0.437367 0)
(2.6703 -0.441833 0)
(2.67254 -0.447506 0)
(2.67229 -0.451671 0)
(2.67302 -0.453499 0)
(2.6805 -0.45229 0)
(2.68752 -0.449459 0)
(2.69376 -0.445557 0)
(2.69901 -0.442058 0)
(2.70364 -0.439243 0)
(2.70786 -0.435872 0)
(2.71112 -0.432362 0)
(2.71192 -0.431262 0)
(2.71011 -0.43606 0)
(2.71621 -0.44149 0)
(2.72209 -0.442793 0)
(2.72713 -0.442342 0)
(2.73285 -0.43988 0)
(2.74004 -0.436707 0)
(2.7478 -0.433654 0)
(2.75674 -0.432539 0)
(2.76537 -0.431806 0)
(2.76925 -0.431197 0)
(2.76141 -0.43122 0)
(2.74992 -0.42895 0)
(2.75054 -0.425525 0)
(2.75686 -0.423766 0)
(2.76442 -0.423289 0)
(2.77229 -0.423063 0)
(2.78302 -0.422918 0)
(2.79277 -0.422808 0)
(2.79871 -0.423875 0)
(2.80612 -0.425593 0)
(2.81373 -0.427368 0)
(2.81532 -0.428622 0)
(2.80754 -0.427511 0)
(2.80258 -0.423357 0)
(2.80371 -0.42054 0)
(2.80782 -0.420278 0)
(2.81362 -0.421264 0)
(2.81991 -0.421853 0)
(2.8266 -0.42077 0)
(2.83371 -0.420733 0)
(2.8396 -0.421217 0)
(2.84534 -0.421504 0)
(2.85074 -0.419909 0)
(2.85478 -0.416324 0)
(2.85789 -0.413232 0)
(2.86052 -0.411894 0)
(2.86087 -0.412727 0)
(2.86101 -0.416076 0)
(2.86289 -0.417363 0)
(2.86569 -0.415568 0)
(2.86886 -0.41305 0)
(2.87322 -0.410672 0)
(2.87836 -0.408403 0)
(2.883 -0.405747 0)
(2.88581 -0.402497 0)
(2.88689 -0.400604 0)
(2.88769 -0.400747 0)
(2.88723 -0.404417 0)
(2.89068 -0.407509 0)
(2.89691 -0.408061 0)
(2.90336 -0.407395 0)
(2.91103 -0.406657 0)
(2.91837 -0.405534 0)
(2.92489 -0.403839 0)
(2.93204 -0.401953 0)
(2.9392 -0.400046 0)
(2.94345 -0.397867 0)
(2.93641 -0.39497 0)
(2.92292 -0.392583 0)
(2.92298 -0.393477 0)
(2.92734 -0.395002 0)
(2.93152 -0.396085 0)
(2.936 -0.396441 0)
(2.94166 -0.394702 0)
(2.94934 -0.392116 0)
(2.95943 -0.388959 0)
(2.9642 -0.387803 0)
(2.97093 -0.388625 0)
(2.97808 -0.39 0)
(2.98385 -0.392638 0)
(2.98664 -0.396721 0)
(2.98096 -0.396305 0)
(2.9651 -0.386588 0)
(2.95919 -0.379885 0)
(2.96417 -0.379475 0)
(2.96938 -0.380243 0)
(2.97433 -0.380759 0)
(2.98235 -0.380177 0)
(2.98724 -0.380251 0)
(2.99548 -0.380955 0)
(3.00322 -0.380861 0)
(3.00926 -0.38035 0)
(3.01343 -0.381004 0)
(3.01576 -0.383098 0)
(3.01727 -0.384766 0)
(3.01716 -0.384272 0)
(3.01389 -0.377648 0)
(3.01189 -0.36924 0)
(3.0149 -0.365382 0)
(3.01949 -0.365727 0)
(3.02513 -0.366958 0)
(3.03219 -0.366693 0)
(3.03836 -0.366173 0)
(3.04218 -0.366256 0)
(3.04398 -0.366533 0)
(3.0449 -0.368767 0)
(3.04564 -0.368878 0)
(3.04958 -0.36836 0)
(2.5827 -0.440503 0)
(2.58833 -0.440572 0)
(2.58764 -0.438198 0)
(2.58573 -0.435026 0)
(2.59024 -0.432477 0)
(2.59763 -0.430773 0)
(2.60517 -0.430097 0)
(2.61226 -0.430219 0)
(2.6185 -0.430853 0)
(2.62293 -0.43217 0)
(2.62364 -0.434058 0)
(2.6267 -0.434678 0)
(2.63327 -0.433022 0)
(2.63994 -0.430223 0)
(2.64543 -0.427486 0)
(2.65052 -0.425953 0)
(2.65682 -0.425198 0)
(2.66332 -0.424293 0)
(2.66977 -0.424022 0)
(2.67482 -0.425434 0)
(2.67528 -0.429728 0)
(2.67192 -0.435523 0)
(2.6781 -0.438806 0)
(2.68555 -0.438709 0)
(2.69339 -0.436448 0)
(2.70083 -0.433042 0)
(2.70732 -0.429143 0)
(2.71198 -0.425264 0)
(2.71303 -0.422125 0)
(2.70943 -0.421492 0)
(2.70512 -0.422932 0)
(2.70648 -0.423485 0)
(2.71346 -0.42287 0)
(2.7203 -0.42157 0)
(2.72743 -0.420506 0)
(2.73655 -0.419327 0)
(2.74405 -0.417994 0)
(2.75161 -0.418623 0)
(2.76022 -0.419167 0)
(2.76763 -0.417992 0)
(2.769 -0.417545 0)
(2.7608 -0.418813 0)
(2.75499 -0.418529 0)
(2.75774 -0.414935 0)
(2.76298 -0.410505 0)
(2.76907 -0.406391 0)
(2.77546 -0.40332 0)
(2.78327 -0.403007 0)
(2.79132 -0.404592 0)
(2.79893 -0.407197 0)
(2.80472 -0.412001 0)
(2.80961 -0.416391 0)
(2.8124 -0.419063 0)
(2.81229 -0.417916 0)
(2.81209 -0.412599 0)
(2.81273 -0.408028 0)
(2.81523 -0.40698 0)
(2.81938 -0.407906 0)
(2.82365 -0.407999 0)
(2.82887 -0.405403 0)
(2.83483 -0.401889 0)
(2.83994 -0.400429 0)
(2.84469 -0.400257 0)
(2.84884 -0.400294 0)
(2.85127 -0.400261 0)
(2.85261 -0.399742 0)
(2.85333 -0.398846 0)
(2.85486 -0.398507 0)
(2.85864 -0.399053 0)
(2.86509 -0.400497 0)
(2.87171 -0.401464 0)
(2.87785 -0.401331 0)
(2.8835 -0.398657 0)
(2.8881 -0.394276 0)
(2.89035 -0.389593 0)
(2.88815 -0.386967 0)
(2.88289 -0.387474 0)
(2.88028 -0.389432 0)
(2.88559 -0.390983 0)
(2.89255 -0.39214 0)
(2.89845 -0.392593 0)
(2.90547 -0.392536 0)
(2.91332 -0.392142 0)
(2.92126 -0.39219 0)
(2.92763 -0.392437 0)
(2.93471 -0.392701 0)
(2.94184 -0.392598 0)
(2.94521 -0.391971 0)
(2.93819 -0.387914 0)
(2.92606 -0.380209 0)
(2.92497 -0.376046 0)
(2.92896 -0.376168 0)
(2.933 -0.377201 0)
(2.93662 -0.378677 0)
(2.94385 -0.379257 0)
(2.95503 -0.376701 0)
(2.96126 -0.376111 0)
(2.96803 -0.377009 0)
(2.97502 -0.378041 0)
(2.98125 -0.378827 0)
(2.98661 -0.380048 0)
(2.98993 -0.383088 0)
(2.98791 -0.385649 0)
(2.97709 -0.38111 0)
(2.96882 -0.371379 0)
(2.97015 -0.366023 0)
(2.97169 -0.364135 0)
(2.97474 -0.364656 0)
(2.97914 -0.365671 0)
(2.98482 -0.365927 0)
(2.99057 -0.365383 0)
(2.99604 -0.365284 0)
(3.00293 -0.364971 0)
(3.01018 -0.365124 0)
(3.01584 -0.365517 0)
(3.01895 -0.366039 0)
(3.02088 -0.366254 0)
(3.02198 -0.364041 0)
(3.01934 -0.358613 0)
(3.01498 -0.353827 0)
(3.01634 -0.353851 0)
(3.01995 -0.354791 0)
(3.02528 -0.354372 0)
(3.03045 -0.353506 0)
(3.03513 -0.353234 0)
(3.03891 -0.353889 0)
(3.04128 -0.356095 0)
(3.04239 -0.357297 0)
(3.04648 -0.357306 0)
(2.58372 -0.422246 0)
(2.58998 -0.426936 0)
(2.59288 -0.428663 0)
(2.59475 -0.426183 0)
(2.59914 -0.421502 0)
(2.60426 -0.416417 0)
(2.60889 -0.413142 0)
(2.61384 -0.412848 0)
(2.61874 -0.414741 0)
(2.62122 -0.417829 0)
(2.62294 -0.41924 0)
(2.62996 -0.418422 0)
(2.638 -0.417618 0)
(2.64635 -0.416294 0)
(2.65377 -0.413573 0)
(2.65888 -0.409906 0)
(2.6614 -0.407585 0)
(2.66287 -0.408536 0)
(2.66421 -0.411014 0)
(2.66445 -0.413718 0)
(2.66872 -0.416673 0)
(2.6769 -0.418852 0)
(2.68174 -0.418634 0)
(2.68567 -0.416091 0)
(2.69294 -0.414179 0)
(2.70168 -0.413108 0)
(2.71095 -0.412693 0)
(2.71912 -0.412351 0)
(2.72164 -0.411526 0)
(2.71287 -0.410559 0)
(2.70339 -0.410485 0)
(2.70779 -0.409103 0)
(2.71514 -0.407759 0)
(2.72314 -0.4057 0)
(2.73002 -0.40053 0)
(2.73551 -0.397575 0)
(2.7434 -0.398356 0)
(2.75122 -0.400659 0)
(2.75937 -0.403732 0)
(2.76742 -0.405562 0)
(2.77062 -0.407342 0)
(2.76332 -0.406086 0)
(2.7572 -0.401309 0)
(2.76129 -0.397786 0)
(2.76879 -0.394606 0)
(2.77574 -0.39097 0)
(2.78154 -0.388801 0)
(2.78788 -0.389595 0)
(2.79486 -0.391515 0)
(2.80203 -0.392811 0)
(2.8082 -0.393746 0)
(2.81113 -0.398379 0)
(2.81273 -0.403624 0)
(2.81455 -0.405345 0)
(2.81768 -0.403654 0)
(2.82034 -0.399128 0)
(2.81866 -0.392067 0)
(2.81911 -0.38819 0)
(2.82519 -0.388581 0)
(2.83109 -0.388989 0)
(2.8377 -0.388205 0)
(2.84518 -0.38737 0)
(2.85118 -0.387323 0)
(2.85564 -0.388102 0)
(2.8578 -0.38841 0)
(2.85506 -0.38684 0)
(2.85248 -0.386684 0)
(2.85595 -0.386922 0)
(2.86105 -0.385722 0)
(2.86743 -0.384285 0)
(2.87391 -0.382771 0)
(2.88047 -0.38151 0)
(2.88717 -0.380873 0)
(2.89336 -0.380392 0)
(2.89765 -0.379114 0)
(2.8957 -0.376048 0)
(2.88674 -0.374364 0)
(2.88474 -0.375115 0)
(2.88816 -0.375028 0)
(2.89188 -0.374749 0)
(2.89742 -0.375167 0)
(2.90436 -0.376198 0)
(2.91173 -0.377436 0)
(2.91896 -0.378217 0)
(2.92574 -0.379161 0)
(2.93207 -0.380023 0)
(2.93865 -0.381229 0)
(2.94348 -0.383155 0)
(2.94048 -0.381963 0)
(2.93133 -0.373546 0)
(2.93013 -0.365561 0)
(2.93555 -0.36164 0)
(2.94144 -0.360608 0)
(2.9458 -0.359808 0)
(2.94931 -0.359502 0)
(2.9533 -0.360353 0)
(2.959 -0.36244 0)
(2.96441 -0.364702 0)
(2.9703 -0.365586 0)
(2.97677 -0.36635 0)
(2.98296 -0.367365 0)
(2.98711 -0.369916 0)
(2.98837 -0.372869 0)
(2.98663 -0.371487 0)
(2.98042 -0.362674 0)
(2.97272 -0.352812 0)
(2.97334 -0.349098 0)
(2.98057 -0.349039 0)
(2.98433 -0.349757 0)
(2.9882 -0.351309 0)
(2.99235 -0.352276 0)
(2.99664 -0.352764 0)
(3.00354 -0.353174 0)
(3.0109 -0.353358 0)
(3.01755 -0.352857 0)
(3.02224 -0.351976 0)
(3.02531 -0.351822 0)
(3.02726 -0.352104 0)
(3.02663 -0.35059 0)
(3.02239 -0.34412 0)
(3.02005 -0.339512 0)
(3.023 -0.338967 0)
(3.0278 -0.338677 0)
(3.03283 -0.338605 0)
(3.0381 -0.339062 0)
(3.04227 -0.340542 0)
(3.04448 -0.343469 0)
(3.04558 -0.344065 0)
(3.04805 -0.343656 0)
(2.58309 -0.400844 0)
(2.5887 -0.406223 0)
(2.59512 -0.409639 0)
(2.60113 -0.410907 0)
(2.60752 -0.4097 0)
(2.61388 -0.406948 0)
(2.61849 -0.402958 0)
(2.61955 -0.399648 0)
(2.61821 -0.40042 0)
(2.61957 -0.403574 0)
(2.62604 -0.404334 0)
(2.63312 -0.403229 0)
(2.64096 -0.401493 0)
(2.64969 -0.399824 0)
(2.65865 -0.398781 0)
(2.66667 -0.398036 0)
(2.67169 -0.396692 0)
(2.67154 -0.395463 0)
(2.66613 -0.396729 0)
(2.66123 -0.39922 0)
(2.66558 -0.399094 0)
(2.67391 -0.398549 0)
(2.68237 -0.398634 0)
(2.69125 -0.399308 0)
(2.70045 -0.399349 0)
(2.70723 -0.399434 0)
(2.71583 -0.399416 0)
(2.72396 -0.398419 0)
(2.72733 -0.398123 0)
(2.71812 -0.399116 0)
(2.70926 -0.39798 0)
(2.7131 -0.395607 0)
(2.72011 -0.39446 0)
(2.72817 -0.392253 0)
(2.73616 -0.388004 0)
(2.74403 -0.385192 0)
(2.7516 -0.384598 0)
(2.75801 -0.385933 0)
(2.76305 -0.388334 0)
(2.76494 -0.391783 0)
(2.76294 -0.394242 0)
(2.76136 -0.394235 0)
(2.76391 -0.390538 0)
(2.76821 -0.38471 0)
(2.77218 -0.378316 0)
(2.77572 -0.373739 0)
(2.78052 -0.372521 0)
(2.78608 -0.373831 0)
(2.79102 -0.376408 0)
(2.79556 -0.378997 0)
(2.79809 -0.381682 0)
(2.80071 -0.383786 0)
(2.80774 -0.385002 0)
(2.81485 -0.386281 0)
(2.82138 -0.388239 0)
(2.82671 -0.389355 0)
(2.8281 -0.385765 0)
(2.82839 -0.377638 0)
(2.83043 -0.372306 0)
(2.8331 -0.372138 0)
(2.83655 -0.373449 0)
(2.84208 -0.373423 0)
(2.84799 -0.373496 0)
(2.85341 -0.373866 0)
(2.85802 -0.374403 0)
(2.86062 -0.374921 0)
(2.85871 -0.372969 0)
(2.85536 -0.371214 0)
(2.85824 -0.370484 0)
(2.8642 -0.369294 0)
(2.87046 -0.36853 0)
(2.87716 -0.368235 0)
(2.88407 -0.368097 0)
(2.89058 -0.367635 0)
(2.89591 -0.366731 0)
(2.89736 -0.365503 0)
(2.89072 -0.362898 0)
(2.88844 -0.361132 0)
(2.89302 -0.360902 0)
(2.89833 -0.361074 0)
(2.90433 -0.361581 0)
(2.91056 -0.362272 0)
(2.91681 -0.362562 0)
(2.92282 -0.362457 0)
(2.92842 -0.362774 0)
(2.93336 -0.363629 0)
(2.93723 -0.364461 0)
(2.93955 -0.364409 0)
(2.94014 -0.362725 0)
(2.93764 -0.357918 0)
(2.93192 -0.350517 0)
(2.93173 -0.344922 0)
(2.9392 -0.342577 0)
(2.94607 -0.342668 0)
(2.95186 -0.343432 0)
(2.9577 -0.344438 0)
(2.96321 -0.34576 0)
(2.969 -0.348697 0)
(2.97255 -0.350193 0)
(2.97806 -0.351311 0)
(2.98331 -0.352501 0)
(2.98734 -0.35382 0)
(2.98952 -0.356067 0)
(2.99078 -0.358478 0)
(2.99077 -0.356616 0)
(2.98859 -0.349464 0)
(2.98334 -0.340456 0)
(2.97792 -0.335109 0)
(2.98107 -0.335684 0)
(2.98611 -0.337436 0)
(2.99002 -0.338574 0)
(2.9944 -0.339682 0)
(2.99943 -0.34077 0)
(3.00507 -0.341495 0)
(3.01123 -0.341265 0)
(3.01698 -0.340576 0)
(3.02145 -0.340641 0)
(3.02451 -0.341403 0)
(3.02709 -0.342048 0)
(3.02822 -0.339654 0)
(3.02698 -0.333525 0)
(3.02719 -0.328501 0)
(3.03078 -0.326979 0)
(3.03564 -0.327386 0)
(3.04077 -0.328331 0)
(3.04551 -0.329008 0)
(3.04726 -0.331045 0)
(3.04861 -0.332206 0)
(3.05218 -0.332434 0)
(2.58828 -0.38229 0)
(2.5908 -0.386538 0)
(2.59529 -0.390073 0)
(2.60409 -0.392279 0)
(2.61295 -0.393363 0)
(2.6211 -0.393213 0)
(2.62683 -0.391491 0)
(2.6263 -0.388321 0)
(2.61935 -0.38695 0)
(2.62339 -0.387937 0)
(2.63071 -0.387677 0)
(2.63757 -0.387207 0)
(2.6449 -0.386226 0)
(2.65287 -0.38519 0)
(2.66171 -0.384122 0)
(2.67042 -0.383057 0)
(2.67689 -0.381837 0)
(2.67721 -0.380374 0)
(2.66928 -0.381385 0)
(2.66608 -0.383827 0)
(2.67001 -0.383075 0)
(2.67584 -0.381624 0)
(2.683 -0.379744 0)
(2.69135 -0.37796 0)
(2.70085 -0.378119 0)
(2.71016 -0.380275 0)
(2.71823 -0.383135 0)
(2.72633 -0.385975 0)
(2.73096 -0.388569 0)
(2.7236 -0.386142 0)
(2.71257 -0.380066 0)
(2.71552 -0.376753 0)
(2.72164 -0.374904 0)
(2.72766 -0.372305 0)
(2.7346 -0.369477 0)
(2.74228 -0.3671 0)
(2.74981 -0.366375 0)
(2.7566 -0.368387 0)
(2.76093 -0.37241 0)
(2.76374 -0.375736 0)
(2.76272 -0.377171 0)
(2.76418 -0.376369 0)
(2.76988 -0.375629 0)
(2.77581 -0.374565 0)
(2.78108 -0.371795 0)
(2.78415 -0.36662 0)
(2.78594 -0.361476 0)
(2.78958 -0.360023 0)
(2.7949 -0.360354 0)
(2.79777 -0.362213 0)
(2.79875 -0.364652 0)
(2.80215 -0.365937 0)
(2.80748 -0.366277 0)
(2.81325 -0.366369 0)
(2.81929 -0.366081 0)
(2.82524 -0.365082 0)
(2.83109 -0.363537 0)
(2.8344 -0.360148 0)
(2.83096 -0.357308 0)
(2.83009 -0.358439 0)
(2.83527 -0.359543 0)
(2.84146 -0.359222 0)
(2.84832 -0.358154 0)
(2.85472 -0.357566 0)
(2.85941 -0.357178 0)
(2.86156 -0.35713 0)
(2.86103 -0.357846 0)
(2.8597 -0.358225 0)
(2.86192 -0.356536 0)
(2.86712 -0.354603 0)
(2.87373 -0.353243 0)
(2.8803 -0.352701 0)
(2.88641 -0.352871 0)
(2.89202 -0.353235 0)
(2.8965 -0.353367 0)
(2.89671 -0.353275 0)
(2.89112 -0.350882 0)
(2.88775 -0.347168 0)
(2.89065 -0.345339 0)
(2.89574 -0.344267 0)
(2.90217 -0.343552 0)
(2.90839 -0.343622 0)
(2.9145 -0.344113 0)
(2.9211 -0.344783 0)
(2.92805 -0.345534 0)
(2.93439 -0.346416 0)
(2.93943 -0.347462 0)
(2.94302 -0.348948 0)
(2.94523 -0.350554 0)
(2.94547 -0.349701 0)
(2.94246 -0.344675 0)
(2.93991 -0.336659 0)
(2.94103 -0.330048 0)
(2.94652 -0.328028 0)
(2.95229 -0.328257 0)
(2.95703 -0.328841 0)
(2.96161 -0.329741 0)
(2.96546 -0.332789 0)
(2.96859 -0.336878 0)
(2.9729 -0.339012 0)
(2.9773 -0.340291 0)
(2.98028 -0.34232 0)
(2.98292 -0.344586 0)
(2.98746 -0.344268 0)
(2.99306 -0.34175 0)
(2.99688 -0.338105 0)
(2.99685 -0.332313 0)
(2.99 -0.325294 0)
(2.98734 -0.322277 0)
(2.9908 -0.322581 0)
(2.9944 -0.323322 0)
(2.99838 -0.324258 0)
(3.00258 -0.325256 0)
(3.00682 -0.326141 0)
(3.01131 -0.326466 0)
(3.016 -0.326082 0)
(3.02003 -0.325315 0)
(3.02351 -0.324344 0)
(3.02716 -0.323176 0)
(3.03029 -0.321041 0)
(3.03057 -0.317998 0)
(3.02669 -0.315779 0)
(3.02604 -0.315187 0)
(3.02976 -0.315427 0)
(3.03384 -0.315974 0)
(3.03684 -0.316516 0)
(3.03931 -0.316514 0)
(3.04334 -0.31608 0)
(3.04916 -0.315857 0)
(2.57871 -0.368719 0)
(2.58861 -0.370404 0)
(2.59821 -0.372107 0)
(2.60688 -0.372988 0)
(2.61575 -0.373188 0)
(2.62463 -0.373731 0)
(2.63237 -0.374683 0)
(2.63268 -0.375886 0)
(2.62294 -0.374244 0)
(2.62174 -0.370544 0)
(2.62958 -0.368951 0)
(2.63861 -0.368749 0)
(2.64791 -0.368886 0)
(2.65679 -0.369384 0)
(2.66578 -0.370036 0)
(2.67447 -0.369734 0)
(2.68166 -0.368949 0)
(2.68109 -0.368112 0)
(2.66976 -0.366244 0)
(2.66962 -0.36564 0)
(2.6768 -0.366244 0)
(2.6834 -0.366528 0)
(2.69051 -0.366186 0)
(2.69784 -0.364902 0)
(2.70563 -0.362356 0)
(2.71378 -0.362742 0)
(2.72122 -0.364916 0)
(2.72656 -0.368319 0)
(2.72817 -0.371518 0)
(2.72491 -0.372731 0)
(2.72117 -0.369211 0)
(2.72292 -0.363073 0)
(2.7273 -0.359725 0)
(2.73313 -0.358251 0)
(2.74045 -0.357131 0)
(2.74796 -0.355422 0)
(2.75469 -0.35369 0)
(2.76079 -0.354184 0)
(2.76451 -0.355888 0)
(2.76242 -0.360991 0)
(2.76494 -0.364456 0)
(2.77096 -0.363116 0)
(2.77679 -0.359747 0)
(2.78234 -0.356276 0)
(2.78738 -0.353767 0)
(2.78982 -0.350651 0)
(2.78621 -0.347279 0)
(2.78357 -0.346837 0)
(2.78672 -0.348473 0)
(2.79218 -0.348907 0)
(2.79863 -0.349036 0)
(2.80581 -0.349116 0)
(2.81279 -0.349537 0)
(2.81904 -0.34983 0)
(2.82533 -0.349278 0)
(2.83102 -0.348907 0)
(2.83677 -0.349403 0)
(2.8416 -0.348737 0)
(2.83863 -0.3459 0)
(2.83407 -0.344432 0)
(2.8393 -0.345483 0)
(2.84505 -0.346133 0)
(2.85081 -0.345285 0)
(2.85721 -0.344493 0)
(2.86302 -0.344628 0)
(2.86526 -0.345468 0)
(2.8599 -0.34542 0)
(2.8607 -0.345158 0)
(2.86637 -0.343974 0)
(2.87115 -0.342443 0)
(2.87687 -0.34048 0)
(2.88322 -0.338799 0)
(2.88942 -0.338261 0)
(2.89494 -0.338806 0)
(2.89885 -0.339663 0)
(2.89762 -0.339536 0)
(2.89061 -0.338261 0)
(2.89226 -0.336931 0)
(2.89691 -0.334902 0)
(2.90131 -0.332374 0)
(2.90604 -0.330029 0)
(2.91155 -0.328908 0)
(2.91732 -0.328883 0)
(2.92325 -0.329696 0)
(2.92951 -0.330673 0)
(2.9358 -0.331636 0)
(2.94132 -0.332618 0)
(2.94601 -0.333463 0)
(2.94904 -0.335355 0)
(2.94876 -0.338371 0)
(2.9489 -0.336871 0)
(2.94981 -0.330779 0)
(2.94929 -0.322073 0)
(2.95002 -0.315452 0)
(2.95433 -0.314701 0)
(2.95923 -0.316014 0)
(2.96473 -0.317106 0)
(2.96997 -0.31811 0)
(2.97334 -0.320529 0)
(2.97457 -0.323649 0)
(2.9759 -0.32527 0)
(2.97899 -0.326835 0)
(2.9823 -0.327634 0)
(2.98797 -0.326333 0)
(2.99348 -0.324884 0)
(2.99901 -0.324439 0)
(3.00342 -0.323656 0)
(3.00054 -0.319046 0)
(2.99249 -0.311403 0)
(2.99329 -0.308527 0)
(2.99751 -0.308509 0)
(3.00181 -0.309154 0)
(3.00632 -0.309817 0)
(3.01059 -0.310331 0)
(3.01434 -0.310965 0)
(3.01931 -0.311794 0)
(3.02335 -0.312504 0)
(3.02724 -0.312675 0)
(3.03168 -0.311891 0)
(3.03615 -0.310786 0)
(3.03708 -0.308776 0)
(3.03177 -0.303698 0)
(3.02791 -0.300252 0)
(3.03053 -0.299403 0)
(3.03433 -0.299747 0)
(3.03831 -0.301098 0)
(3.04378 -0.302536 0)
(3.04763 -0.30277 0)
(3.054 -0.303061 0)
(2.57985 -0.352825 0)
(2.58813 -0.35276 0)
(2.59723 -0.352219 0)
(2.60789 -0.352791 0)
(2.61939 -0.354715 0)
(2.62866 -0.356832 0)
(2.63706 -0.359143 0)
(2.63772 -0.361122 0)
(2.62842 -0.360149 0)
(2.62602 -0.356907 0)
(2.63138 -0.353717 0)
(2.63826 -0.351004 0)
(2.6467 -0.349856 0)
(2.65682 -0.350591 0)
(2.66661 -0.351854 0)
(2.6759 -0.353126 0)
(2.68397 -0.354977 0)
(2.68472 -0.357636 0)
(2.67457 -0.356202 0)
(2.67082 -0.35011 0)
(2.67584 -0.346745 0)
(2.68323 -0.345493 0)
(2.69144 -0.3458 0)
(2.70011 -0.34597 0)
(2.70827 -0.345958 0)
(2.71701 -0.347205 0)
(2.7254 -0.349404 0)
(2.73048 -0.351759 0)
(2.72873 -0.353667 0)
(2.72139 -0.354804 0)
(2.72396 -0.353712 0)
(2.73035 -0.351802 0)
(2.7363 -0.348535 0)
(2.74129 -0.343909 0)
(2.74504 -0.339558 0)
(2.74826 -0.337373 0)
(2.75194 -0.337493 0)
(2.75519 -0.338656 0)
(2.75559 -0.342406 0)
(2.75623 -0.344278 0)
(2.76232 -0.344387 0)
(2.76986 -0.344528 0)
(2.77931 -0.343292 0)
(2.78778 -0.341737 0)
(2.79525 -0.341433 0)
(2.79956 -0.340458 0)
(2.79466 -0.33672 0)
(2.78395 -0.332922 0)
(2.78759 -0.33305 0)
(2.79398 -0.334133 0)
(2.79971 -0.334501 0)
(2.80704 -0.333386 0)
(2.81461 -0.332145 0)
(2.8215 -0.331928 0)
(2.82857 -0.33231 0)
(2.8361 -0.332925 0)
(2.8424 -0.334129 0)
(2.84379 -0.336664 0)
(2.84185 -0.337755 0)
(2.84161 -0.334133 0)
(2.84465 -0.329825 0)
(2.84799 -0.328082 0)
(2.8509 -0.328639 0)
(2.85369 -0.329927 0)
(2.85687 -0.331201 0)
(2.85977 -0.332445 0)
(2.86129 -0.332048 0)
(2.86084 -0.327798 0)
(2.8633 -0.325191 0)
(2.86896 -0.324564 0)
(2.87484 -0.324271 0)
(2.88048 -0.323918 0)
(2.88561 -0.324235 0)
(2.88973 -0.32532 0)
(2.89233 -0.326839 0)
(2.89374 -0.32783 0)
(2.89549 -0.324843 0)
(2.89725 -0.319483 0)
(2.8993 -0.315989 0)
(2.90227 -0.314811 0)
(2.90578 -0.314277 0)
(2.90967 -0.313359 0)
(2.91376 -0.313212 0)
(2.91834 -0.314245 0)
(2.92379 -0.315896 0)
(2.92944 -0.317748 0)
(2.93494 -0.319717 0)
(2.93917 -0.322013 0)
(2.94187 -0.322913 0)
(2.94613 -0.32108 0)
(2.95251 -0.318334 0)
(2.95805 -0.314292 0)
(2.96058 -0.307691 0)
(2.95603 -0.301438 0)
(2.95137 -0.301058 0)
(2.9542 -0.303242 0)
(2.95796 -0.305298 0)
(2.96118 -0.307187 0)
(2.96437 -0.3084 0)
(2.97042 -0.309136 0)
(2.97543 -0.311274 0)
(2.97986 -0.313649 0)
(2.98523 -0.313748 0)
(2.99117 -0.312118 0)
(2.99714 -0.310955 0)
(3.00298 -0.311394 0)
(3.00705 -0.31328 0)
(3.0052 -0.312197 0)
(2.99802 -0.304723 0)
(2.99614 -0.297496 0)
(2.99921 -0.295165 0)
(3.00346 -0.295638 0)
(3.00806 -0.296256 0)
(3.01269 -0.296595 0)
(3.01709 -0.296052 0)
(3.02122 -0.295606 0)
(3.02577 -0.295854 0)
(3.02993 -0.297436 0)
(3.03122 -0.299499 0)
(3.03321 -0.300234 0)
(3.03555 -0.299488 0)
(3.03576 -0.296408 0)
(3.03314 -0.290589 0)
(3.0327 -0.287704 0)
(3.03595 -0.288634 0)
(3.0411 -0.289486 0)
(3.04569 -0.289554 0)
(3.04951 -0.289108 0)
(3.05639 -0.289381 0)
(2.58542 -0.33579 0)
(2.5934 -0.335945 0)
(2.60336 -0.334648 0)
(2.613 -0.333146 0)
(2.62206 -0.334611 0)
(2.63104 -0.338634 0)
(2.6387 -0.342138 0)
(2.63827 -0.343723 0)
(2.62971 -0.344204 0)
(2.63235 -0.343685 0)
(2.63925 -0.342491 0)
(2.6465 -0.340942 0)
(2.65405 -0.338029 0)
(2.66162 -0.335129 0)
(2.66952 -0.334668 0)
(2.67659 -0.336582 0)
(2.6808 -0.339869 0)
(2.67936 -0.341822 0)
(2.67511 -0.34315 0)
(2.67773 -0.341757 0)
(2.6842 -0.338611 0)
(2.6904 -0.33432 0)
(2.69551 -0.329427 0)
(2.70052 -0.327192 0)
(2.70675 -0.328836 0)
(2.71304 -0.331397 0)
(2.71853 -0.333177 0)
(2.72151 -0.334845 0)
(2.72114 -0.338427 0)
(2.72304 -0.338767 0)
(2.72821 -0.335515 0)
(2.73411 -0.332658 0)
(2.7406 -0.330297 0)
(2.74674 -0.328206 0)
(2.75199 -0.326288 0)
(2.75573 -0.32494 0)
(2.75627 -0.324963 0)
(2.75241 -0.326569 0)
(2.75455 -0.329001 0)
(2.76239 -0.330471 0)
(2.7682 -0.329695 0)
(2.7742 -0.327845 0)
(2.7805 -0.326384 0)
(2.78778 -0.325688 0)
(2.79568 -0.325806 0)
(2.80193 -0.326789 0)
(2.80266 -0.326609 0)
(2.79351 -0.321582 0)
(2.78514 -0.317356 0)
(2.78903 -0.317225 0)
(2.79594 -0.31707 0)
(2.8028 -0.316449 0)
(2.80949 -0.315989 0)
(2.81603 -0.316449 0)
(2.82297 -0.317649 0)
(2.82996 -0.318754 0)