/*--------------------------------*- C++ -*----------------------------------*\
  =========                 |
  \\      /  F ield         | OpenFOAM: The Open Source CFD Toolbox
   \\    /   O peration     | Website:  https://openfoam.org
    \\  /    A nd           | Version:  7
     \\/     M anipulation  |
\*---------------------------------------------------------------------------*/
FoamFile
{
    version     2.0;
    format      ascii;
    class       volVectorField;
    location    "1.5";
    object      U;
}
// * * * * * * * * * * * * * * * * * * * * * * * * * * * * * * * * * * * * * //

dimensions      [0 1 -1 0 0 0 0];

internalField   nonuniform List<vector> 
16192
(
(2.36973 -0.627154 0)
(2.37171 -0.625802 0)
(2.37526 -0.62607 0)
(2.37897 -0.626394 0)
(2.38286 -0.626614 0)
(2.38666 -0.626829 0)
(2.39003 -0.62693 0)
(2.39291 -0.627045 0)
(2.39484 -0.627567 0)
(2.3961 -0.628046 0)
(2.39903 -0.628882 0)
(2.40166 -0.62935 0)
(2.40433 -0.629072 0)
(2.40649 -0.628179 0)
(2.40797 -0.626256 0)
(2.40873 -0.623367 0)
(2.41002 -0.621026 0)
(2.41191 -0.619888 0)
(2.41685 -0.619106 0)
(2.42275 -0.619203 0)
(2.42582 -0.620288 0)
(2.43006 -0.621675 0)
(2.43426 -0.622849 0)
(2.43808 -0.623553 0)
(2.44155 -0.624139 0)
(2.44479 -0.624604 0)
(2.44605 -0.62471 0)
(2.44478 -0.623722 0)
(2.44488 -0.623046 0)
(2.44696 -0.623167 0)
(2.44968 -0.623754 0)
(2.45236 -0.624451 0)
(2.45524 -0.624568 0)
(2.45846 -0.623519 0)
(2.46128 -0.622409 0)
(2.46383 -0.621893 0)
(2.46648 -0.621314 0)
(2.46934 -0.620481 0)
(2.47242 -0.619762 0)
(2.47558 -0.619537 0)
(2.47856 -0.619413 0)
(2.48117 -0.61895 0)
(2.48309 -0.618652 0)
(2.48365 -0.619092 0)
(2.4852 -0.619371 0)
(2.48789 -0.619842 0)
(2.4906 -0.620081 0)
(2.49328 -0.620637 0)
(2.49504 -0.620346 0)
(2.49465 -0.617668 0)
(2.49378 -0.611686 0)
(2.49453 -0.606353 0)
(2.49652 -0.602757 0)
(2.49955 -0.600244 0)
(2.50269 -0.59819 0)
(2.50648 -0.595848 0)
(2.51026 -0.594435 0)
(2.51398 -0.594026 0)
(2.51766 -0.592822 0)
(2.51961 -0.592013 0)
(2.5217 -0.592404 0)
(2.52381 -0.593206 0)
(2.52507 -0.594429 0)
(2.52553 -0.596394 0)
(2.52661 -0.598938 0)
(2.52896 -0.600395 0)
(2.53106 -0.600888 0)
(2.53275 -0.601072 0)
(2.53608 -0.601319 0)
(2.54181 -0.602266 0)
(2.54964 -0.604028 0)
(2.55707 -0.605995 0)
(2.56052 -0.60671 0)
(2.56349 -0.607553 0)
(2.56736 -0.608602 0)
(2.57094 -0.6096 0)
(2.57082 -0.60865 0)
(2.56626 -0.604026 0)
(2.5657 -0.599042 0)
(2.56692 -0.595287 0)
(2.56783 -0.593413 0)
(2.56947 -0.591312 0)
(2.56848 -0.5843 0)
(2.56391 -0.572976 0)
(2.55886 -0.561878 0)
(2.54925 -0.555428 0)
(2.53918 -0.550646 0)
(2.53324 -0.547268 0)
(2.53264 -0.544989 0)
(2.53328 -0.545276 0)
(2.53505 -0.547563 0)
(2.53833 -0.551893 0)
(2.54554 -0.559516 0)
(2.55469 -0.565913 0)
(2.56131 -0.566186 0)
(2.56639 -0.564516 0)
(2.57056 -0.561402 0)
(2.57218 -0.559089 0)
(2.57246 -0.557204 0)
(2.57088 -0.553538 0)
(2.56418 -0.545486 0)
(2.55728 -0.536179 0)
(2.55604 -0.530926 0)
(2.5571 -0.528076 0)
(2.55899 -0.526702 0)
(2.56057 -0.526705 0)
(2.56315 -0.527012 0)
(2.56829 -0.528149 0)
(2.57611 -0.531611 0)
(2.58498 -0.538608 0)
(2.59213 -0.547046 0)
(2.5977 -0.5542 0)
(2.60248 -0.55874 0)
(2.60647 -0.560879 0)
(2.6098 -0.561848 0)
(2.61318 -0.562548 0)
(2.61699 -0.56305 0)
(2.61832 -0.562279 0)
(2.61189 -0.555861 0)
(2.59637 -0.539271 0)
(2.58658 -0.524785 0)
(2.58767 -0.519638 0)
(2.59089 -0.517644 0)
(2.59419 -0.516037 0)
(2.60003 -0.513718 0)
(2.60914 -0.509101 0)
(2.61914 -0.505435 0)
(2.62623 -0.505484 0)
(2.63054 -0.508315 0)
(2.63525 -0.51372 0)
(2.64252 -0.524633 0)
(2.65376 -0.541273 0)
(2.66374 -0.555413 0)
(2.66787 -0.560008 0)
(2.67027 -0.560859 0)
(2.6726 -0.561205 0)
(2.67401 -0.560377 0)
(2.6736 -0.556546 0)
(2.6682 -0.545956 0)
(2.6562 -0.527547 0)
(2.64749 -0.514385 0)
(2.64707 -0.511545 0)
(2.64879 -0.511764 0)
(2.65062 -0.512477 0)
(2.65239 -0.513672 0)
(2.65518 -0.515664 0)
(2.65795 -0.517971 0)
(2.66033 -0.51977 0)
(2.66343 -0.521516 0)
(2.66776 -0.524286 0)
(2.67479 -0.530653 0)
(2.68746 -0.543205 0)
(2.70021 -0.554121 0)
(2.70539 -0.555717 0)
(2.70674 -0.554914 0)
(2.70723 -0.553793 0)
(2.70743 -0.551045 0)
(2.70317 -0.54297 0)
(2.68598 -0.521823 0)
(2.66577 -0.501254 0)
(2.66221 -0.497207 0)
(2.66354 -0.497737 0)
(2.66541 -0.498608 0)
(2.66725 -0.499604 0)
(2.66926 -0.500755 0)
(2.67135 -0.502059 0)
(2.6735 -0.503565 0)
(2.67776 -0.506957 0)
(2.6867 -0.517224 0)
(2.70351 -0.53751 0)
(2.71755 -0.554246 0)
(2.72076 -0.55865 0)
(2.72206 -0.559693 0)
(2.72286 -0.559864 0)
(2.72306 -0.557768 0)
(2.72147 -0.551257 0)
(2.71489 -0.536354 0)
(2.69937 -0.511785 0)
(2.68646 -0.494751 0)
(2.68334 -0.490315 0)
(2.68351 -0.490822 0)
(2.68436 -0.491789 0)
(2.68557 -0.492266 0)
(2.68694 -0.492442 0)
(2.68847 -0.49285 0)
(2.69027 -0.493315 0)
(2.69277 -0.493515 0)
(2.696 -0.493474 0)
(2.69938 -0.493367 0)
(2.70303 -0.49307 0)
(2.70769 -0.49331 0)
(2.7145 -0.495917 0)
(2.72617 -0.505998 0)
(2.74603 -0.525166 0)
(2.76065 -0.53739 0)
(2.76387 -0.538034 0)
(2.76531 -0.536532 0)
(2.76532 -0.533851 0)
(2.75943 -0.525991 0)
(2.7379 -0.501085 0)
(2.70983 -0.471151 0)
(2.70383 -0.463415 0)
(2.70497 -0.46277 0)
(2.70665 -0.462811 0)
(2.70932 -0.462973 0)
(2.71277 -0.463529 0)
(2.71646 -0.464454 0)
(2.72191 -0.466873 0)
(2.73462 -0.477056 0)
(2.7581 -0.50188 0)
(2.77968 -0.523478 0)
(2.78567 -0.527628 0)
(2.78908 -0.527644 0)
(2.7928 -0.527099 0)
(2.79357 -0.523801 0)
(2.7851 -0.511192 0)
(2.76076 -0.483078 0)
(2.74498 -0.465792 0)
(2.74504 -0.463757 0)
(2.74654 -0.464161 0)
(2.74781 -0.46507 0)
(2.74905 -0.466108 0)
(2.75234 -0.468694 0)
(2.76114 -0.477029 0)
(2.78087 -0.494832 0)
(2.80029 -0.508207 0)
(2.80585 -0.50901 0)
(2.8071 -0.508273 0)
(2.80897 -0.505606 0)
(2.80947 -0.500215 0)
(2.8026 -0.486939 0)
(2.78525 -0.465965 0)
(2.77714 -0.457524 0)
(2.77826 -0.457851 0)
(2.78128 -0.460012 0)
(2.78459 -0.462447 0)
(2.7874 -0.465214 0)
(2.79515 -0.472207 0)
(2.80813 -0.483152 0)
(2.81631 -0.48622 0)
(2.81878 -0.484224 0)
(2.81973 -0.481413 0)
(2.82008 -0.477986 0)
(2.81858 -0.4711 0)
(2.81253 -0.456862 0)
(2.80155 -0.440644 0)
(2.79657 -0.435498 0)
(2.79608 -0.435448 0)
(2.79649 -0.438061 0)
(2.79774 -0.44142 0)
(2.80023 -0.444852 0)
(2.80239 -0.44789 0)
(2.80429 -0.453072 0)
(2.37544 -0.628458 0)
(2.37713 -0.627284 0)
(2.37982 -0.626709 0)
(2.38318 -0.627047 0)
(2.38678 -0.627442 0)
(2.39053 -0.627428 0)
(2.39401 -0.627348 0)
(2.39699 -0.627644 0)
(2.39854 -0.62781 0)
(2.39888 -0.627583 0)
(2.40108 -0.62742 0)
(2.4031 -0.627331 0)
(2.40539 -0.626965 0)
(2.40893 -0.62588 0)
(2.41045 -0.624827 0)
(2.41228 -0.622476 0)
(2.41458 -0.619639 0)
(2.41744 -0.617193 0)
(2.42131 -0.616031 0)
(2.4244 -0.617004 0)
(2.4286 -0.618802 0)
(2.43272 -0.620454 0)
(2.43634 -0.621994 0)
(2.4397 -0.623494 0)
(2.44311 -0.624766 0)
(2.44639 -0.626043 0)
(2.44897 -0.627266 0)
(2.44975 -0.627376 0)
(2.44974 -0.625536 0)
(2.45051 -0.623222 0)
(2.45231 -0.621733 0)
(2.45466 -0.621064 0)
(2.45733 -0.620295 0)
(2.46125 -0.619439 0)
(2.46522 -0.61871 0)
(2.46768 -0.61815 0)
(2.46994 -0.618191 0)
(2.47247 -0.618489 0)
(2.47507 -0.618391 0)
(2.47794 -0.617815 0)
(2.48076 -0.617617 0)
(2.48353 -0.618026 0)
(2.48541 -0.619019 0)
(2.48507 -0.620736 0)
(2.48625 -0.622014 0)
(2.48873 -0.622519 0)
(2.49155 -0.622827 0)
(2.49557 -0.623831 0)
(2.49913 -0.624337 0)
(2.50179 -0.623101 0)
(2.50361 -0.618389 0)
(2.50425 -0.610776 0)
(2.50349 -0.602929 0)
(2.5042 -0.597009 0)
(2.50704 -0.595017 0)
(2.50985 -0.594207 0)
(2.5129 -0.593617 0)
(2.51657 -0.593223 0)
(2.51921 -0.592472 0)
(2.52047 -0.592552 0)
(2.52268 -0.593027 0)
(2.52487 -0.59386 0)
(2.52612 -0.595025 0)
(2.52633 -0.595713 0)
(2.52751 -0.595634 0)
(2.53009 -0.595454 0)
(2.5326 -0.595206 0)
(2.53494 -0.594494 0)
(2.5386 -0.593745 0)
(2.54361 -0.593257 0)
(2.54913 -0.594702 0)
(2.55536 -0.599079 0)
(2.56157 -0.604729 0)
(2.56582 -0.608844 0)
(2.56878 -0.611461 0)
(2.57256 -0.61359 0)
(2.57607 -0.614757 0)
(2.5768 -0.612505 0)
(2.57562 -0.60545 0)
(2.57554 -0.597247 0)
(2.57603 -0.59066 0)
(2.57682 -0.586792 0)
(2.57781 -0.580892 0)
(2.57444 -0.57415 0)
(2.5687 -0.565104 0)
(2.56186 -0.557746 0)
(2.55023 -0.552532 0)
(2.53916 -0.548218 0)
(2.53415 -0.544046 0)
(2.53369 -0.543235 0)
(2.53499 -0.543927 0)
(2.53838 -0.545691 0)
(2.54425 -0.549009 0)
(2.55291 -0.555384 0)
(2.56192 -0.561741 0)
(2.56858 -0.563143 0)
(2.57328 -0.562118 0)
(2.57674 -0.560927 0)
(2.57809 -0.560587 0)
(2.57797 -0.560055 0)
(2.57501 -0.557114 0)
(2.56802 -0.548483 0)
(2.56131 -0.536126 0)
(2.5596 -0.52729 0)
(2.56123 -0.523028 0)
(2.56399 -0.52128 0)
(2.56714 -0.5206 0)
(2.57183 -0.520924 0)
(2.57665 -0.522662 0)
(2.58193 -0.526077 0)
(2.58698 -0.531558 0)
(2.59173 -0.538804 0)
(2.59726 -0.54708 0)
(2.60418 -0.555665 0)
(2.61067 -0.562558 0)
(2.61389 -0.565658 0)
(2.61775 -0.567712 0)
(2.62142 -0.568821 0)
(2.62274 -0.567636 0)
(2.61892 -0.560992 0)
(2.60898 -0.545846 0)
(2.59955 -0.528793 0)
(2.59863 -0.519899 0)
(2.60105 -0.516235 0)
(2.60615 -0.511675 0)
(2.61503 -0.505505 0)
(2.62333 -0.502632 0)
(2.626 -0.502965 0)
(2.62899 -0.504504 0)
(2.63173 -0.507081 0)
(2.63575 -0.511146 0)
(2.64179 -0.519138 0)
(2.65143 -0.533052 0)
(2.66339 -0.549427 0)
(2.6708 -0.558195 0)
(2.67308 -0.559468 0)
(2.67581 -0.559598 0)
(2.67743 -0.559111 0)
(2.67808 -0.556663 0)
(2.67557 -0.549263 0)
(2.66669 -0.533159 0)
(2.65545 -0.515355 0)
(2.6523 -0.50867 0)
(2.65343 -0.508045 0)
(2.65514 -0.50854 0)
(2.65671 -0.509835 0)
(2.65862 -0.511936 0)
(2.66081 -0.513804 0)
(2.66316 -0.515384 0)
(2.66623 -0.517066 0)
(2.66999 -0.519401 0)
(2.6761 -0.524592 0)
(2.68791 -0.536225 0)
(2.70237 -0.548908 0)
(2.70864 -0.552279 0)
(2.71008 -0.551851 0)
(2.71111 -0.551114 0)
(2.71126 -0.549384 0)
(2.70655 -0.54261 0)
(2.68858 -0.522619 0)
(2.66718 -0.501622 0)
(2.66323 -0.497274 0)
(2.66453 -0.497857 0)
(2.66637 -0.498793 0)
(2.66848 -0.499738 0)
(2.67087 -0.500706 0)
(2.67337 -0.501769 0)
(2.67594 -0.502999 0)
(2.68001 -0.505468 0)
(2.68803 -0.513518 0)
(2.703 -0.532204 0)
(2.71931 -0.551187 0)
(2.7257 -0.556426 0)
(2.72748 -0.555587 0)
(2.72809 -0.553902 0)
(2.72811 -0.551099 0)
(2.72712 -0.545319 0)
(2.72167 -0.532595 0)
(2.70479 -0.508399 0)
(2.68665 -0.489991 0)
(2.683 -0.487577 0)
(2.68427 -0.488131 0)
(2.68558 -0.489369 0)
(2.68695 -0.490901 0)
(2.68884 -0.491777 0)
(2.69128 -0.492193 0)
(2.69381 -0.492418 0)
(2.69649 -0.492332 0)
(2.6998 -0.491623 0)
(2.70362 -0.490963 0)
(2.70742 -0.490644 0)
(2.71115 -0.4907 0)
(2.71639 -0.492467 0)
(2.72585 -0.50012 0)
(2.74477 -0.518794 0)
(2.76263 -0.53407 0)
(2.76724 -0.535869 0)
(2.76849 -0.534652 0)
(2.76833 -0.532116 0)
(2.76297 -0.524873 0)
(2.7432 -0.500834 0)
(2.71461 -0.469733 0)
(2.70678 -0.461178 0)
(2.70781 -0.460642 0)
(2.70965 -0.460907 0)
(2.71236 -0.461411 0)
(2.7158 -0.462115 0)
(2.71958 -0.463069 0)
(2.72435 -0.464908 0)
(2.73583 -0.472872 0)
(2.75788 -0.494616 0)
(2.78259 -0.518303 0)
(2.79113 -0.524164 0)
(2.79442 -0.524083 0)
(2.79781 -0.523392 0)
(2.79787 -0.521192 0)
(2.78873 -0.511122 0)
(2.76428 -0.485589 0)
(2.74705 -0.4675 0)
(2.746 -0.464427 0)
(2.747 -0.464263 0)
(2.7478 -0.464442 0)
(2.74937 -0.464222 0)
(2.75361 -0.464855 0)
(2.76357 -0.470659 0)
(2.78373 -0.48641 0)
(2.80318 -0.501378 0)
(2.80862 -0.504099 0)
(2.81096 -0.503355 0)
(2.81345 -0.501619 0)
(2.81347 -0.498337 0)
(2.80444 -0.487902 0)
(2.78529 -0.470192 0)
(2.77769 -0.462934 0)
(2.77944 -0.462462 0)
(2.78206 -0.463029 0)
(2.78436 -0.463689 0)
(2.7877 -0.464555 0)
(2.79736 -0.469058 0)
(2.8128 -0.476798 0)
(2.8226 -0.476869 0)
(2.82543 -0.473664 0)
(2.82659 -0.471307 0)
(2.82737 -0.469794 0)
(2.82693 -0.466723 0)
(2.81942 -0.457917 0)
(2.80401 -0.445458 0)
(2.79583 -0.441637 0)
(2.79496 -0.442315 0)
(2.79596 -0.442959 0)
(2.79774 -0.443838 0)
(2.79959 -0.444427 0)
(2.79868 -0.445509 0)
(2.38022 -0.627915 0)
(2.38298 -0.627854 0)
(2.38511 -0.627672 0)
(2.38741 -0.628544 0)
(2.39029 -0.629568 0)
(2.39341 -0.630258 0)
(2.39665 -0.630913 0)
(2.39977 -0.631432 0)
(2.40211 -0.63095 0)
(2.40274 -0.628337 0)
(2.40301 -0.62474 0)
(2.40461 -0.623069 0)
(2.40633 -0.622535 0)
(2.41026 -0.622318 0)
(2.41387 -0.62164 0)
(2.41618 -0.620458 0)
(2.41958 -0.618551 0)
(2.42243 -0.616843 0)
(2.42548 -0.6164 0)
(2.42842 -0.616701 0)
(2.43169 -0.617781 0)
(2.43535 -0.619098 0)
(2.43909 -0.620608 0)
(2.44247 -0.622412 0)
(2.44549 -0.62447 0)
(2.44825 -0.626388 0)
(2.4508 -0.627969 0)
(2.45315 -0.628925 0)
(2.45522 -0.628716 0)
(2.45712 -0.626743 0)
(2.45868 -0.623461 0)
(2.46018 -0.619864 0)
(2.46243 -0.617061 0)
(2.46541 -0.615551 0)
(2.46856 -0.614366 0)
(2.47111 -0.61407 0)
(2.47353 -0.614647 0)
(2.47596 -0.61534 0)
(2.47826 -0.615854 0)
(2.48056 -0.616502 0)
(2.4832 -0.617218 0)
(2.48579 -0.618262 0)
(2.48709 -0.619842 0)
(2.48671 -0.621132 0)
(2.48837 -0.621708 0)
(2.49055 -0.622197 0)
(2.4928 -0.622812 0)
(2.49592 -0.623483 0)
(2.50194 -0.624146 0)
(2.50754 -0.623475 0)
(2.51021 -0.621869 0)
(2.51349 -0.618093 0)
(2.51499 -0.612568 0)
(2.51298 -0.603312 0)
(2.51118 -0.595173 0)
(2.51293 -0.592797 0)
(2.51514 -0.592424 0)
(2.51817 -0.592048 0)
(2.52133 -0.592283 0)
(2.52286 -0.592845 0)
(2.52504 -0.593616 0)
(2.52735 -0.59425 0)
(2.52911 -0.594416 0)
(2.53055 -0.59389 0)
(2.53246 -0.592647 0)
(2.5347 -0.591269 0)
(2.53732 -0.590428 0)
(2.53995 -0.589675 0)
(2.54291 -0.589084 0)
(2.5467 -0.588736 0)
(2.55043 -0.58935 0)
(2.55406 -0.591965 0)
(2.5585 -0.596807 0)
(2.56382 -0.603618 0)
(2.56942 -0.610264 0)
(2.57364 -0.614624 0)
(2.57752 -0.616366 0)
(2.58097 -0.616516 0)
(2.5838 -0.613398 0)
(2.58602 -0.607513 0)
(2.58765 -0.600226 0)
(2.58749 -0.591107 0)
(2.58613 -0.581972 0)
(2.58359 -0.575675 0)
(2.57737 -0.569989 0)
(2.57007 -0.559473 0)
(2.56238 -0.555131 0)
(2.54911 -0.548732 0)
(2.53996 -0.542741 0)
(2.53564 -0.541119 0)
(2.536 -0.541281 0)
(2.53939 -0.541326 0)
(2.54508 -0.541691 0)
(2.55208 -0.544006 0)
(2.55913 -0.54928 0)
(2.56661 -0.555644 0)
(2.57363 -0.559954 0)
(2.57871 -0.561726 0)
(2.58156 -0.5622 0)
(2.58254 -0.562131 0)
(2.58183 -0.561735 0)
(2.57909 -0.559251 0)
(2.57454 -0.551377 0)
(2.57017 -0.537592 0)
(2.56829 -0.525024 0)
(2.56984 -0.518709 0)
(2.57273 -0.51676 0)
(2.57626 -0.516518 0)
(2.57948 -0.517873 0)
(2.58254 -0.519915 0)
(2.586 -0.522166 0)
(2.58913 -0.525626 0)
(2.59233 -0.531073 0)
(2.59691 -0.539328 0)
(2.60425 -0.551032 0)
(2.61363 -0.563036 0)
(2.62003 -0.569003 0)
(2.62355 -0.570814 0)
(2.6268 -0.571691 0)
(2.62884 -0.570699 0)
(2.62845 -0.564943 0)
(2.62409 -0.550692 0)
(2.61572 -0.528597 0)
(2.61165 -0.51164 0)
(2.61319 -0.505988 0)
(2.6187 -0.502187 0)
(2.62289 -0.501036 0)
(2.62558 -0.501687 0)
(2.62876 -0.503027 0)
(2.63161 -0.504961 0)
(2.63437 -0.507201 0)
(2.63752 -0.509991 0)
(2.64243 -0.515227 0)
(2.64986 -0.525418 0)
(2.66163 -0.54136 0)
(2.6725 -0.55454 0)
(2.67666 -0.557935 0)
(2.67894 -0.557915 0)
(2.68095 -0.557418 0)
(2.68242 -0.555504 0)
(2.68195 -0.550357 0)
(2.67609 -0.538001 0)
(2.66338 -0.518683 0)
(2.65556 -0.507216 0)
(2.65554 -0.505508 0)
(2.65718 -0.506126 0)
(2.65892 -0.507556 0)
(2.66056 -0.509469 0)
(2.66258 -0.511132 0)
(2.66554 -0.512641 0)
(2.66881 -0.51382 0)
(2.67252 -0.51522 0)
(2.6781 -0.519004 0)
(2.68852 -0.529333 0)
(2.70316 -0.544021 0)
(2.7108 -0.550586 0)
(2.71236 -0.550766 0)
(2.71365 -0.550221 0)
(2.71367 -0.548761 0)
(2.70855 -0.542561 0)
(2.69076 -0.523321 0)
(2.66901 -0.501921 0)
(2.66473 -0.497082 0)
(2.66625 -0.497381 0)
(2.66841 -0.49806 0)
(2.67092 -0.498886 0)
(2.67357 -0.499883 0)
(2.6763 -0.501059 0)
(2.67901 -0.502352 0)
(2.68248 -0.504211 0)
(2.68907 -0.509934 0)
(2.70161 -0.524781 0)
(2.71926 -0.544126 0)
(2.72909 -0.551813 0)
(2.7316 -0.550455 0)
(2.73256 -0.548129 0)
(2.73268 -0.545536 0)
(2.73195 -0.540968 0)
(2.7259 -0.530597 0)
(2.70609 -0.508512 0)
(2.68698 -0.490385 0)
(2.68486 -0.486965 0)
(2.68632 -0.487049 0)
(2.68771 -0.48805 0)
(2.68942 -0.48938 0)
(2.69175 -0.49029 0)
(2.6948 -0.490587 0)
(2.69883 -0.489879 0)
(2.70137 -0.488597 0)
(2.7042 -0.48768 0)
(2.70742 -0.487465 0)
(2.71028 -0.487719 0)
(2.71312 -0.487927 0)
(2.71691 -0.489141 0)
(2.72545 -0.495372 0)
(2.74431 -0.513338 0)
(2.76531 -0.530902 0)
(2.77151 -0.533579 0)
(2.77266 -0.532597 0)
(2.77223 -0.530557 0)
(2.76727 -0.523805 0)
(2.74861 -0.501146 0)
(2.71933 -0.469225 0)
(2.71037 -0.459217 0)
(2.71136 -0.458284 0)
(2.71346 -0.458052 0)
(2.71645 -0.458082 0)
(2.71989 -0.458408 0)
(2.72385 -0.459089 0)
(2.72922 -0.460385 0)
(2.73992 -0.465684 0)
(2.75898 -0.483332 0)
(2.78389 -0.509859 0)
(2.79526 -0.521265 0)
(2.79814 -0.522592 0)
(2.80087 -0.52301 0)
(2.80012 -0.521244 0)
(2.79156 -0.512267 0)
(2.76943 -0.487731 0)
(2.75019 -0.465826 0)
(2.74772 -0.460435 0)
(2.74851 -0.45919 0)
(2.7499 -0.458322 0)
(2.75373 -0.456877 0)
(2.76011 -0.456599 0)
(2.76954 -0.461567 0)
(2.78496 -0.476706 0)
(2.80321 -0.496236 0)
(2.81074 -0.504148 0)
(2.81329 -0.504929 0)
(2.81479 -0.504985 0)
(2.81277 -0.502807 0)
(2.80358 -0.49259 0)
(2.78732 -0.473056 0)
(2.78041 -0.460968 0)
(2.78202 -0.45732 0)
(2.78421 -0.455721 0)
(2.78692 -0.454648 0)
(2.79396 -0.453593 0)
(2.80558 -0.456116 0)
(2.81985 -0.464873 0)
(2.82807 -0.471225 0)
(2.82989 -0.472334 0)
(2.83083 -0.472491 0)
(2.83132 -0.472457 0)
(2.82937 -0.471103 0)
(2.81893 -0.46321 0)
(2.80189 -0.44867 0)
(2.79586 -0.441305 0)
(2.79722 -0.438525 0)
(2.79928 -0.437222 0)
(2.80182 -0.43496 0)
(2.80137 -0.434467 0)
(2.38438 -0.626922 0)
(2.38749 -0.627865 0)
(2.38954 -0.628651 0)
(2.39125 -0.629558 0)
(2.39384 -0.630681 0)
(2.39679 -0.631515 0)
(2.39986 -0.632127 0)
(2.40291 -0.63244 0)
(2.40559 -0.632092 0)
(2.40746 -0.630493 0)
(2.40809 -0.626781 0)
(2.40835 -0.622046 0)
(2.40996 -0.619697 0)
(2.41206 -0.619062 0)
(2.41584 -0.618944 0)
(2.42007 -0.617807 0)
(2.42296 -0.616683 0)
(2.42644 -0.617042 0)
(2.43011 -0.617696 0)
(2.43324 -0.617965 0)
(2.43558 -0.618346 0)
(2.4383 -0.619355 0)
(2.44169 -0.620511 0)
(2.44492 -0.621842 0)
(2.44763 -0.623549 0)
(2.45039 -0.625019 0)
(2.45318 -0.626234 0)
(2.45633 -0.627546 0)
(2.45913 -0.628259 0)
(2.46195 -0.627831 0)
(2.46505 -0.625059 0)
(2.46742 -0.621367 0)
(2.46924 -0.617734 0)
(2.47034 -0.613865 0)
(2.47183 -0.611536 0)
(2.47386 -0.610981 0)
(2.47615 -0.611464 0)
(2.47853 -0.612538 0)
(2.48076 -0.613563 0)
(2.48322 -0.614612 0)
(2.4859 -0.616238 0)
(2.48816 -0.617937 0)
(2.48889 -0.619226 0)
(2.48876 -0.619631 0)
(2.49063 -0.619636 0)
(2.4927 -0.619683 0)
(2.49476 -0.619608 0)
(2.49713 -0.619464 0)
(2.50288 -0.620162 0)
(2.51094 -0.62165 0)
(2.5164 -0.621789 0)
(2.51926 -0.620915 0)
(2.52259 -0.618658 0)
(2.52408 -0.614749 0)
(2.52208 -0.606872 0)
(2.51851 -0.597444 0)
(2.51849 -0.592595 0)
(2.52041 -0.59126 0)
(2.52297 -0.591206 0)
(2.52577 -0.592401 0)
(2.52777 -0.593867 0)
(2.53032 -0.594993 0)
(2.533 -0.595755 0)
(2.53604 -0.595506 0)
(2.539 -0.594346 0)
(2.54121 -0.592093 0)
(2.5425 -0.589011 0)
(2.54467 -0.587058 0)
(2.54737 -0.586397 0)
(2.54945 -0.586651 0)
(2.5519 -0.587668 0)
(2.5546 -0.589338 0)
(2.55725 -0.59161 0)
(2.56058 -0.595206 0)
(2.56491 -0.600807 0)
(2.57101 -0.607922 0)
(2.57837 -0.613268 0)
(2.58529 -0.613641 0)
(2.59034 -0.61181 0)
(2.59295 -0.609735 0)
(2.59636 -0.606767 0)
(2.59815 -0.602277 0)
(2.59718 -0.594529 0)
(2.59273 -0.584893 0)
(2.58612 -0.577352 0)
(2.57695 -0.568111 0)
(2.56956 -0.558916 0)
(2.56187 -0.552355 0)
(2.55142 -0.541947 0)
(2.54228 -0.538813 0)
(2.53896 -0.53891 0)
(2.54095 -0.53872 0)
(2.54671 -0.537172 0)
(2.55397 -0.53636 0)
(2.55917 -0.538407 0)
(2.56339 -0.543058 0)
(2.56886 -0.549662 0)
(2.57598 -0.557 0)
(2.58242 -0.561745 0)
(2.58604 -0.562701 0)
(2.58723 -0.562431 0)
(2.5867 -0.561957 0)
(2.58528 -0.559539 0)
(2.58415 -0.552907 0)
(2.58323 -0.541765 0)
(2.58142 -0.528477 0)
(2.58017 -0.518218 0)
(2.58105 -0.514272 0)
(2.58332 -0.513888 0)
(2.58549 -0.514523 0)
(2.58767 -0.516779 0)
(2.58937 -0.519743 0)
(2.59103 -0.523377 0)
(2.59306 -0.527784 0)
(2.59701 -0.534622 0)
(2.60377 -0.546124 0)
(2.61529 -0.561082 0)
(2.62583 -0.570407 0)
(2.63123 -0.57191 0)
(2.63374 -0.571316 0)
(2.6367 -0.567928 0)
(2.63867 -0.560631 0)
(2.63833 -0.548328 0)
(2.63242 -0.527822 0)
(2.62328 -0.507595 0)
(2.62146 -0.501028 0)
(2.62357 -0.500646 0)
(2.6262 -0.50135 0)
(2.62905 -0.502279 0)
(2.6319 -0.503623 0)
(2.63472 -0.505231 0)
(2.63734 -0.506991 0)
(2.63982 -0.509082 0)
(2.64352 -0.512473 0)
(2.64911 -0.519504 0)
(2.65938 -0.533203 0)
(2.6733 -0.549585 0)
(2.68059 -0.555867 0)
(2.68293 -0.555899 0)
(2.68531 -0.555076 0)
(2.68729 -0.5536 0)
(2.68806 -0.5502 0)
(2.68445 -0.541515 0)
(2.67218 -0.523921 0)
(2.65987 -0.508859 0)
(2.65772 -0.505329 0)
(2.65899 -0.505421 0)
(2.66083 -0.506126 0)
(2.66232 -0.507271 0)
(2.66492 -0.508374 0)
(2.66886 -0.50913 0)
(2.67252 -0.509491 0)
(2.6757 -0.510607 0)
(2.67995 -0.514051 0)
(2.68835 -0.523433 0)
(2.7026 -0.539343 0)
(2.71245 -0.549148 0)
(2.71456 -0.550311 0)
(2.71552 -0.549783 0)
(2.71537 -0.54822 0)
(2.71065 -0.542483 0)
(2.69453 -0.524344 0)
(2.67282 -0.501842 0)
(2.668 -0.49586 0)
(2.66971 -0.49597 0)
(2.672 -0.496524 0)
(2.67473 -0.497284 0)
(2.67766 -0.498008 0)
(2.68047 -0.498795 0)
(2.68317 -0.49957 0)
(2.68637 -0.500588 0)
(2.69173 -0.50436 0)
(2.70155 -0.515364 0)
(2.71774 -0.533441 0)
(2.73062 -0.545442 0)
(2.73395 -0.546992 0)
(2.73463 -0.545892 0)
(2.73507 -0.54357 0)
(2.73432 -0.540422 0)
(2.7275 -0.531154 0)
(2.70781 -0.508376 0)
(2.68961 -0.488932 0)
(2.68746 -0.485012 0)
(2.68902 -0.484912 0)
(2.69055 -0.48571 0)
(2.69223 -0.486507 0)
(2.69614 -0.486717 0)
(2.69946 -0.485668 0)
(2.70159 -0.485618 0)
(2.70447 -0.485579 0)
(2.70664 -0.484905 0)
(2.70932 -0.484765 0)
(2.71204 -0.485122 0)
(2.71456 -0.485369 0)
(2.71754 -0.486206 0)
(2.72553 -0.49153 0)
(2.74464 -0.508853 0)
(2.76797 -0.527637 0)
(2.77557 -0.531053 0)
(2.7768 -0.530235 0)
(2.77671 -0.528415 0)
(2.77226 -0.522471 0)
(2.75458 -0.501079 0)
(2.7251 -0.468034 0)
(2.71575 -0.456242 0)
(2.71705 -0.454908 0)
(2.71938 -0.454431 0)
(2.72242 -0.454409 0)
(2.72603 -0.454445 0)
(2.73005 -0.454939 0)
(2.73418 -0.456702 0)
(2.74206 -0.461507 0)
(2.7582 -0.477274 0)
(2.78249 -0.504708 0)
(2.7966 -0.519819 0)
(2.79937 -0.521426 0)
(2.80221 -0.521391 0)
(2.80241 -0.519283 0)
(2.7971 -0.511282 0)
(2.77962 -0.488538 0)
(2.75854 -0.462066 0)
(2.75359 -0.454041 0)
(2.75441 -0.452682 0)
(2.75764 -0.45083 0)
(2.76207 -0.449642 0)
(2.76612 -0.451355 0)
(2.77195 -0.456728 0)
(2.78273 -0.470461 0)
(2.79936 -0.492318 0)
(2.80964 -0.504934 0)
(2.81215 -0.506873 0)
(2.8137 -0.507231 0)
(2.81303 -0.504244 0)
(2.8087 -0.493878 0)
(2.79744 -0.472635 0)
(2.78867 -0.45398 0)
(2.78928 -0.447929 0)
(2.79121 -0.445837 0)
(2.79706 -0.442639 0)
(2.80485 -0.441732 0)
(2.81261 -0.446231 0)
(2.8219 -0.457091 0)
(2.83033 -0.469249 0)
(2.83312 -0.473902 0)
(2.83387 -0.475397 0)
(2.83296 -0.476805 0)
(2.82942 -0.474499 0)
(2.82107 -0.464445 0)
(2.80844 -0.446502 0)
(2.80382 -0.435451 0)
(2.80546 -0.433529 0)
(2.80759 -0.42991 0)
(2.80997 -0.427239 0)
(2.38762 -0.626071 0)
(2.39055 -0.627432 0)
(2.39227 -0.629369 0)
(2.39385 -0.630718 0)
(2.39667 -0.631348 0)
(2.39968 -0.631868 0)
(2.40258 -0.632161 0)
(2.40564 -0.632013 0)
(2.40898 -0.631229 0)
(2.41164 -0.629849 0)
(2.41349 -0.627895 0)
(2.41425 -0.624259 0)
(2.41395 -0.61949 0)
(2.41545 -0.616848 0)
(2.41786 -0.616234 0)
(2.42211 -0.615728 0)
(2.4254 -0.61578 0)
(2.42955 -0.616856 0)
(2.43345 -0.617706 0)
(2.43707 -0.618357 0)
(2.43988 -0.61924 0)
(2.44182 -0.620566 0)
(2.4439 -0.621444 0)
(2.44648 -0.621779 0)
(2.44935 -0.62218 0)
(2.45207 -0.622633 0)
(2.45474 -0.622877 0)
(2.45808 -0.622998 0)
(2.46285 -0.623249 0)
(2.46696 -0.622534 0)
(2.47025 -0.621022 0)
(2.47253 -0.619745 0)
(2.47518 -0.618499 0)
(2.47654 -0.615938 0)
(2.47643 -0.612524 0)
(2.47699 -0.610249 0)
(2.47824 -0.609595 0)
(2.47999 -0.610279 0)
(2.48282 -0.611661 0)
(2.48566 -0.613212 0)
(2.4883 -0.614701 0)
(2.49036 -0.61606 0)
(2.49084 -0.617047 0)
(2.49136 -0.616935 0)
(2.49322 -0.616374 0)
(2.49528 -0.615886 0)
(2.49745 -0.615493 0)
(2.49993 -0.615169 0)
(2.50408 -0.615758 0)
(2.5114 -0.618057 0)
(2.51923 -0.620982 0)
(2.5234 -0.62157 0)
(2.52679 -0.621484 0)
(2.53029 -0.620404 0)
(2.53252 -0.617271 0)
(2.53143 -0.61022 0)
(2.52685 -0.599606 0)
(2.52389 -0.592465 0)
(2.525 -0.590716 0)
(2.52716 -0.590957 0)
(2.53011 -0.591803 0)
(2.53294 -0.592825 0)
(2.53565 -0.593262 0)
(2.53918 -0.593295 0)
(2.54266 -0.59264 0)
(2.54586 -0.591602 0)
(2.54801 -0.589694 0)
(2.54799 -0.586829 0)
(2.54881 -0.58526 0)
(2.55124 -0.585259 0)
(2.55356 -0.585972 0)
(2.55564 -0.587627 0)
(2.5575 -0.589888 0)
(2.55936 -0.591964 0)
(2.56201 -0.594111 0)
(2.56722 -0.597064 0)
(2.57499 -0.600584 0)
(2.58551 -0.604993 0)
(2.59418 -0.607289 0)
(2.59849 -0.607164 0)
(2.60128 -0.606685 0)
(2.60372 -0.605662 0)
(2.60505 -0.603586 0)
(2.60315 -0.599209 0)
(2.5972 -0.591443 0)
(2.58915 -0.583076 0)
(2.57857 -0.57314 0)
(2.56887 -0.560447 0)
(2.56203 -0.547429 0)
(2.55432 -0.537394 0)
(2.54666 -0.536342 0)
(2.54514 -0.536179 0)
(2.54914 -0.534286 0)
(2.55698 -0.532732 0)
(2.56023 -0.532215 0)
(2.56378 -0.533862 0)
(2.56614 -0.538726 0)
(2.57035 -0.545271 0)
(2.57738 -0.553812 0)
(2.58557 -0.56079 0)
(2.59085 -0.561924 0)
(2.59322 -0.560325 0)
(2.59329 -0.559479 0)
(2.5934 -0.557547 0)
(2.59463 -0.552396 0)
(2.59563 -0.544487 0)
(2.59423 -0.532863 0)
(2.58933 -0.519407 0)
(2.58686 -0.512879 0)
(2.58799 -0.512289 0)
(2.5893 -0.513996 0)
(2.59023 -0.516958 0)
(2.59072 -0.520256 0)
(2.59183 -0.523336 0)
(2.59347 -0.526621 0)
(2.59662 -0.531915 0)
(2.60341 -0.542225 0)
(2.61689 -0.557251 0)
(2.63216 -0.566659 0)
(2.64015 -0.565436 0)
(2.64406 -0.56218 0)
(2.64653 -0.558508 0)
(2.64926 -0.554171 0)
(2.6508 -0.547314 0)
(2.64502 -0.532626 0)
(2.63058 -0.511714 0)
(2.62519 -0.50252 0)
(2.62704 -0.501476 0)
(2.62958 -0.501919 0)
(2.63231 -0.502654 0)
(2.63495 -0.503856 0)
(2.63744 -0.505169 0)
(2.63983 -0.506647 0)
(2.64193 -0.508465 0)
(2.6441 -0.510677 0)
(2.64853 -0.515147 0)
(2.6574 -0.525894 0)
(2.67282 -0.543048 0)
(2.68398 -0.55306 0)
(2.68691 -0.553848 0)
(2.68962 -0.553106 0)
(2.69208 -0.552518 0)
(2.6935 -0.551105 0)
(2.69096 -0.545699 0)
(2.67959 -0.530521 0)
(2.66446 -0.511869 0)
(2.66021 -0.50462 0)
(2.66146 -0.503225 0)
(2.66332 -0.502994 0)
(2.6651 -0.503341 0)
(2.66911 -0.504234 0)
(2.67265 -0.505646 0)
(2.67462 -0.506742 0)
(2.67662 -0.508002 0)
(2.68007 -0.510943 0)
(2.68694 -0.518826 0)
(2.70072 -0.534464 0)
(2.71315 -0.54693 0)
(2.71632 -0.549208 0)
(2.71737 -0.548829 0)
(2.71747 -0.547463 0)
(2.71357 -0.542526 0)
(2.69927 -0.525763 0)
(2.67778 -0.502441 0)
(2.67227 -0.495101 0)
(2.67406 -0.494817 0)
(2.67635 -0.495113 0)
(2.67944 -0.495725 0)
(2.68249 -0.496282 0)
(2.68518 -0.496663 0)
(2.68747 -0.496938 0)
(2.69044 -0.497447 0)
(2.69525 -0.499876 0)
(2.70277 -0.507331 0)
(2.7157 -0.522568 0)
(2.73011 -0.539019 0)
(2.73564 -0.544811 0)
(2.73648 -0.544886 0)
(2.73659 -0.543412 0)
(2.73511 -0.540203 0)
(2.72903 -0.531082 0)
(2.71177 -0.50886 0)
(2.69267 -0.487242 0)
(2.68981 -0.482051 0)
(2.69152 -0.481437 0)
(2.6929 -0.481447 0)
(2.69613 -0.481645 0)
(2.69944 -0.482127 0)
(2.70172 -0.482675 0)
(2.70463 -0.48318 0)
(2.70654 -0.482987 0)
(2.70788 -0.482195 0)
(2.71078 -0.482082 0)
(2.71354 -0.48207 0)
(2.71617 -0.482041 0)
(2.71909 -0.482536 0)
(2.72676 -0.487554 0)
(2.74589 -0.504566 0)
(2.77112 -0.52485 0)
(2.77999 -0.529493 0)
(2.78132 -0.528678 0)
(2.78085 -0.527216 0)
(2.7769 -0.521454 0)
(2.76087 -0.50063 0)
(2.73187 -0.466923 0)
(2.72086 -0.453474 0)
(2.72179 -0.45185 0)
(2.72372 -0.451731 0)
(2.72633 -0.451947 0)
(2.72915 -0.452697 0)
(2.73305 -0.454084 0)
(2.73718 -0.456191 0)
(2.74274 -0.460248 0)
(2.75672 -0.473234 0)
(2.78053 -0.500082 0)
(2.79772 -0.517268 0)
(2.80108 -0.519114 0)
(2.80395 -0.519238 0)
(2.80546 -0.517437 0)
(2.80278 -0.510862 0)
(2.78952 -0.491397 0)
(2.76763 -0.462217 0)
(2.76023 -0.450079 0)
(2.76109 -0.448225 0)
(2.76229 -0.448235 0)
(2.76396 -0.449242 0)
(2.76632 -0.451346 0)
(2.77065 -0.456007 0)
(2.77928 -0.46766 0)
(2.79583 -0.488514 0)
(2.80939 -0.503164 0)
(2.81259 -0.505173 0)
(2.81536 -0.505645 0)
(2.81752 -0.502592 0)
(2.81676 -0.493546 0)
(2.80975 -0.474634 0)
(2.79941 -0.451545 0)
(2.79874 -0.441537 0)
(2.80165 -0.439213 0)
(2.80469 -0.438844 0)
(2.80878 -0.440166 0)
(2.81357 -0.444325 0)
(2.82051 -0.454011 0)
(2.82964 -0.467155 0)
(2.83338 -0.473672 0)
(2.83415 -0.475074 0)
(2.83401 -0.476454 0)
(2.83256 -0.474293 0)
(2.82819 -0.464866 0)
(2.8185 -0.445653 0)
(2.81199 -0.430578 0)
(2.81271 -0.425338 0)
(2.81472 -0.422993 0)
(2.39034 -0.62778 0)
(2.39282 -0.628994 0)
(2.3951 -0.629676 0)
(2.39728 -0.629609 0)
(2.39989 -0.629177 0)
(2.40258 -0.62898 0)
(2.40524 -0.628839 0)
(2.40814 -0.628657 0)
(2.41148 -0.628423 0)
(2.4148 -0.628034 0)
(2.41705 -0.627528 0)
(2.41876 -0.626772 0)
(2.41966 -0.624044 0)
(2.41982 -0.619668 0)
(2.42191 -0.616684 0)
(2.42493 -0.615058 0)
(2.4283 -0.615392 0)
(2.43222 -0.616433 0)
(2.43601 -0.617349 0)
(2.43969 -0.618121 0)
(2.44289 -0.619162 0)
(2.44528 -0.620597 0)
(2.44747 -0.621267 0)
(2.44997 -0.620827 0)
(2.4528 -0.620192 0)
(2.45558 -0.61988 0)
(2.45833 -0.619515 0)
(2.46216 -0.619042 0)
(2.46671 -0.618404 0)
(2.47092 -0.617774 0)
(2.4737 -0.617447 0)
(2.47623 -0.617799 0)
(2.47876 -0.618067 0)
(2.48056 -0.617559 0)
(2.48155 -0.616167 0)
(2.48256 -0.614102 0)
(2.48357 -0.611868 0)
(2.48448 -0.610204 0)
(2.48599 -0.610017 0)
(2.48829 -0.611194 0)
(2.49071 -0.612799 0)
(2.49269 -0.614172 0)
(2.49376 -0.614611 0)
(2.49474 -0.614059 0)
(2.49671 -0.6135 0)
(2.49898 -0.612921 0)
(2.50157 -0.61247 0)
(2.50424 -0.612491 0)
(2.50699 -0.612895 0)
(2.51123 -0.61414 0)
(2.51818 -0.617364 0)
(2.5253 -0.620833 0)
(2.52967 -0.621909 0)
(2.53335 -0.622219 0)
(2.53661 -0.621567 0)
(2.53904 -0.618983 0)
(2.53898 -0.613411 0)
(2.53486 -0.603457 0)
(2.5294 -0.593157 0)
(2.52909 -0.588871 0)
(2.53091 -0.588357 0)
(2.53447 -0.589014 0)
(2.53793 -0.589924 0)
(2.54092 -0.590605 0)
(2.54431 -0.591135 0)
(2.54767 -0.591405 0)
(2.55078 -0.59108 0)
(2.55256 -0.589347 0)
(2.55202 -0.586327 0)
(2.552 -0.585468 0)
(2.55356 -0.586605 0)
(2.55549 -0.588104 0)
(2.55753 -0.588909 0)
(2.55932 -0.589268 0)
(2.56153 -0.589554 0)
(2.56677 -0.589474 0)
(2.57439 -0.588812 0)
(2.58317 -0.590575 0)
(2.59229 -0.595925 0)
(2.59949 -0.601832 0)