/*--------------------------------*- C++ -*----------------------------------*\
  =========                 |
  \\      /  F ield         | OpenFOAM: The Open Source CFD Toolbox
   \\    /   O peration     | Website:  https://openfoam.org
    \\  /    A nd           | Version:  7
     \\/     M anipulation  |
\*---------------------------------------------------------------------------*/
FoamFile
{
    version     2.0;
    format      ascii;
    class       volVectorField;
    location    "3";
    object      U;
}
// * * * * * * * * * * * * * * * * * * * * * * * * * * * * * * * * * * * * * //

dimensions      [0 1 -1 0 0 0 0];

internalField   nonuniform List<vector> 
16512
(
(3 -6.14542e-16 0)
(3 -3.94313e-16 0)
(3 -5.6185e-16 0)
(3 -8.92551e-16 0)
(3 -1.37888e-15 0)
(3 -1.6916e-15 0)
(3 -1.61826e-15 0)
(3 -1.25498e-15 0)
(3 -7.89088e-16 0)
(3 -4.86736e-16 0)
(3 -4.08731e-16 0)
(3 -1.25555e-16 0)
(3 8.6693e-13 0)
(3 6.31862e-09 0)
(3 4.87784e-06 0)
(2.99943 0.00133835 0)
(2.97958 0.0499337 0)
(2.72538 0.402947 0)
(2.32111 0.802824 0)
(2.11826 0.884368 0)
(2.07668 0.937671 0)
(2.04865 0.969656 0)
(2.03862 0.980783 0)
(2.04003 0.978668 0)
(2.05299 0.968009 0)
(2.08081 0.941399 0)
(2.09542 0.919868 0)
(2.10245 0.917797 0)
(2.10137 0.921852 0)
(2.09662 0.922372 0)
(2.09125 0.916919 0)
(2.0935 0.91277 0)
(2.10178 0.908072 0)
(2.11206 0.894638 0)
(2.1182 0.890842 0)
(2.12447 0.894434 0)
(2.13113 0.897265 0)
(2.13826 0.898259 0)
(2.14602 0.889588 0)
(2.15386 0.870915 0)
(2.15745 0.856182 0)
(2.15791 0.850952 0)
(2.15854 0.854993 0)
(2.16009 0.861148 0)
(2.16407 0.864369 0)
(2.17116 0.859972 0)
(2.18169 0.84581 0)
(2.19618 0.829357 0)
(2.20604 0.815879 0)
(2.20999 0.810304 0)
(2.21047 0.813678 0)
(2.20823 0.823335 0)
(2.20648 0.830579 0)
(2.20935 0.831139 0)
(2.21411 0.81941 0)
(2.22836 0.799186 0)
(2.24361 0.780282 0)
(2.25087 0.768488 0)
(2.25295 0.765121 0)
(2.25264 0.769615 0)
(2.25037 0.780047 0)
(2.24893 0.786517 0)
(2.25059 0.78648 0)
(2.25467 0.772799 0)
(2.26836 0.756678 0)
(2.28303 0.740278 0)
(2.2929 0.726146 0)
(2.29844 0.719525 0)
(2.29899 0.722083 0)
(2.29677 0.732422 0)
(2.29173 0.741805 0)
(2.29086 0.742043 0)
(2.29734 0.730518 0)
(2.31159 0.714801 0)
(2.32257 0.700469 0)
(2.33005 0.688378 0)
(2.3349 0.681611 0)
(2.33678 0.680378 0)
(2.33666 0.680144 0)
(2.33641 0.68057 0)
(2.3373 0.684289 0)
(2.33935 0.688152 0)
(2.34309 0.68875 0)
(2.35227 0.681625 0)
(2.36457 0.662825 0)
(2.37373 0.64396 0)
(2.3768 0.633388 0)
(2.37516 0.629769 0)
(2.37512 0.633671 0)
(2.3759 0.640351 0)
(2.37802 0.643272 0)
(2.38192 0.642598 0)
(2.38514 0.636202 0)
(2.38783 0.622099 0)
(2.39162 0.606482 0)
(2.39783 0.598154 0)
(2.40534 0.596873 0)
(2.41265 0.597283 0)
(2.41956 0.598287 0)
(2.4252 0.598371 0)
(2.42702 0.594035 0)
(2.42421 0.584756 0)
(2.42089 0.574349 0)
(2.42315 0.569347 0)
(2.42868 0.568664 0)
(2.43825 0.567126 0)
(2.44475 0.565381 0)
(2.45137 0.561211 0)
(2.45307 0.552117 0)
(2.45044 0.541164 0)
(2.45024 0.533742 0)
(2.45423 0.533276 0)
(2.46015 0.532944 0)
(2.46668 0.531608 0)
(2.47245 0.530068 0)
(2.47621 0.52606 0)
(2.47473 0.516059 0)
(2.47255 0.505667 0)
(2.47689 0.502911 0)
(2.48282 0.501608 0)
(2.48915 0.499481 0)
(2.495 0.497232 0)
(2.49886 0.492771 0)
(2.49796 0.483946 0)
(2.49601 0.476148 0)
(2.49867 0.475057 0)
(2.50315 0.47455 0)
(2.50803 0.472875 0)
(2.51373 0.470298 0)
(2.5187 0.46533 0)
(2.51953 0.455298 0)
(2.51797 0.44425 0)
(2.52185 0.441195 0)
(2.52684 0.440342 0)
(2.53164 0.438566 0)
(2.53552 0.437316 0)
(2.53741 0.435511 0)
(2.5357 0.430091 0)
(2.53455 0.421798 0)
(2.53997 0.418143 0)
(2.54566 0.416154 0)
(2.55152 0.413115 0)
(2.55664 0.409588 0)
(2.55962 0.404495 0)
(2.55818 0.395918 0)
(2.55696 0.388858 0)
(2.55931 0.38832 0)
(2.56296 0.38764 0)
(2.56617 0.386131 0)
(2.56961 0.384031 0)
(2.57217 0.380783 0)
(2.57383 0.371277 0)
(2.57364 0.363702 0)
(2.58221 0.359682 0)
(2.58319 0.361123 0)
(2.55765 0.394847 0)
(2.33896 0.601014 0)
(2.00282 0.827661 0)
(1.87964 0.907909 0)
(1.86847 0.901487 0)
(3 -5.55005e-16 0)
(3 -1.4743e-15 0)
(3 -1.69516e-15 0)
(3 -1.56197e-15 0)
(3 -1.44834e-15 0)
(3 -5.57272e-16 0)
(3 7.52482e-16 0)
(3 9.34695e-16 0)
(3 7.02583e-16 0)
(3 -2.2384e-16 0)
(3 -1.13492e-15 0)
(3 -6.66097e-16 0)
(3 -5.77273e-16 0)
(3 -1.82928e-16 0)
(3 -1.0057e-16 0)
(3 3.70679e-16 0)
(3 5.62895e-16 0)
(3 1.4012e-15 0)
(3 1.16133e-15 0)
(3 7.0789e-16 0)
(3 3.74686e-16 0)
(3 -1.3073e-16 0)
(3 -6.15285e-16 0)
(3 -7.93206e-16 0)
(3 2.12261e-16 0)
(3 4.92049e-16 0)
(3 -2.60678e-16 0)
(3 -3.40513e-16 0)
(3 -7.57651e-16 0)
(3 2.29917e-12 0)
(3 7.94286e-09 0)
(3 7.26526e-06 0)
(2.99952 0.00144072 0)
(2.97903 0.0446959 0)
(2.77465 0.332074 0)
(2.34474 0.729835 0)
(2.08792 0.906016 0)
(2.04181 0.993184 0)
(2.03097 0.997245 0)
(2.0353 0.989285 0)
(2.06141 0.964187 0)
(2.08697 0.927087 0)
(2.09986 0.913384 0)
(2.10442 0.919065 0)
(2.10084 0.926662 0)
(2.09371 0.927981 0)
(2.08752 0.923294 0)
(2.09072 0.921669 0)
(2.10307 0.911106 0)
(2.11206 0.897674 0)
(2.11928 0.897755 0)
(2.1258 0.900871 0)
(2.13242 0.90313 0)
(2.13894 0.901563 0)
(2.14564 0.888028 0)
(2.15105 0.870435 0)
(2.15272 0.859881 0)
(2.15296 0.858446 0)
(2.15391 0.863786 0)
(2.15617 0.868869 0)
(2.16219 0.868683 0)
(2.17135 0.859747 0)
(2.18478 0.844649 0)
(2.19775 0.829083 0)
(2.20411 0.819832 0)
(2.20522 0.818839 0)
(2.20295 0.826653 0)
(2.19971 0.835422 0)
(2.20177 0.838157 0)
(2.20738 0.831166 0)
(2.21859 0.812937 0)
(2.23383 0.7951 0)
(2.24288 0.782894 0)
(2.24658 0.775578 0)
(2.2465 0.776031 0)
(2.24648 0.782665 0)
(2.24591 0.789673 0)
(2.24723 0.793787 0)
(2.24971 0.787926 0)
(2.25838 0.77118 0)
(2.27306 0.755742 0)
(2.28397 0.740164 0)
(2.29073 0.73025 0)
(2.29235 0.728342 0)
(2.29055 0.736321 0)
(2.28558 0.747391 0)
(2.28613 0.749512 0)
(2.29424 0.741795 0)
(2.3044 0.728028 0)
(2.3124 0.716496 0)
(2.32026 0.704106 0)
(2.32614 0.693617 0)
(2.33018 0.688723 0)
(2.33196 0.686558 0)
(2.33261 0.685982 0)
(2.33434 0.688625 0)
(2.3343 0.695162 0)
(2.33718 0.69789 0)
(2.345 0.694243 0)
(2.35715 0.677644 0)
(2.36752 0.656745 0)
(2.37242 0.642887 0)
(2.37174 0.637192 0)
(2.37076 0.6415 0)
(2.37126 0.648601 0)
(2.37311 0.651691 0)
(2.3761 0.651236 0)
(2.3785 0.645669 0)
(2.38013 0.632855 0)
(2.38429 0.617703 0)
(2.39159 0.609527 0)
(2.39977 0.607403 0)
(2.40724 0.606989 0)
(2.41466 0.607483 0)
(2.42028 0.607205 0)
(2.42173 0.602934 0)
(2.41868 0.594536 0)
(2.41546 0.585057 0)
(2.41733 0.580177 0)
(2.42266 0.579378 0)
(2.43276 0.577665 0)
(2.43969 0.575534 0)
(2.44652 0.57068 0)
(2.44837 0.561232 0)
(2.44597 0.550582 0)
(2.44566 0.543264 0)
(2.4493 0.542741 0)
(2.4548 0.542832 0)
(2.46123 0.541687 0)
(2.46716 0.540186 0)
(2.47155 0.53663 0)
(2.4709 0.526879 0)
(2.46817 0.516072 0)
(2.47184 0.512231 0)
(2.47758 0.511319 0)
(2.48381 0.509318 0)
(2.48976 0.507163 0)
(2.49393 0.503124 0)
(2.49366 0.494592 0)
(2.49138 0.486082 0)
(2.49382 0.484284 0)
(2.49805 0.484068 0)
(2.50323 0.482466 0)
(2.50863 0.480079 0)
(2.51388 0.475741 0)
(2.51563 0.466776 0)
(2.5138 0.455125 0)
(2.5168 0.450344 0)
(2.52187 0.449972 0)
(2.52692 0.448257 0)
(2.53112 0.446858 0)
(2.53347 0.445297 0)
(2.53233 0.440667 0)
(2.53025 0.432364 0)
(2.53475 0.427543 0)
(2.54078 0.425534 0)
(2.54681 0.422592 0)
(2.55225 0.419137 0)
(2.55571 0.41459 0)
(2.555 0.406809 0)
(2.55279 0.398821 0)
(2.55504 0.397453 0)
(2.55823 0.397188 0)
(2.56189 0.395918 0)
(2.56538 0.394235 0)
(2.56869 0.390359 0)
(2.56869 0.383298 0)
(2.57027 0.374545 0)
(2.57459 0.369554 0)
(2.58127 0.367056 0)
(2.58626 0.36485 0)
(2.58437 0.368616 0)
(2.52862 0.433159 0)
(2.24963 0.67773 0)
(1.9278 0.902681 0)
(1.8855 0.89184 0)
(3 -1.03733e-15 0)
(3 -1.56752e-15 0)
(3 -1.58444e-15 0)
(3 -1.25108e-15 0)
(3 -1.00152e-15 0)
(3 -9.68518e-16 0)
(3 2.55332e-16 0)
(3 1.74973e-15 0)
(3 1.11705e-15 0)
(3 8.34851e-16 0)
(3 7.833e-16 0)
(3 -9.24438e-16 0)
(3 -1.51834e-15 0)
(3 -1.43859e-15 0)
(3 -1.60353e-15 0)
(3 -1.14894e-15 0)
(3 3.59396e-16 0)
(3 8.56062e-16 0)
(3 7.29118e-16 0)
(3 -2.90284e-16 0)
(3 -3.04028e-16 0)
(3 -2.40663e-16 0)
(3 1.15372e-17 0)
(3 8.61479e-16 0)
(3 8.89582e-16 0)
(3 6.24284e-16 0)
(3 8.5011e-16 0)
(3 8.60274e-17 0)
(3 -1.93341e-15 0)
(3 -2.38361e-15 0)
(3 2.38979e-12 0)
(3 9.39661e-09 0)
(3 5.97533e-06 0)
(2.99968 0.000916361 0)
(2.98348 0.0324634 0)
(2.79462 0.295291 0)
(2.31594 0.718762 0)
(2.06256 1.00128 0)
(2.0254 1.01549 0)
(2.02792 0.984649 0)
(2.07174 0.93681 0)
(2.09416 0.905501 0)
(2.10715 0.909016 0)
(2.10749 0.924568 0)
(2.09645 0.938615 0)
(2.08237 0.940157 0)
(2.0807 0.936725 0)
(2.09039 0.929142 0)
(2.10796 0.909513 0)
(2.11621 0.901276 0)
(2.12321 0.904528 0)
(2.12838 0.907651 0)
(2.13298 0.909025 0)
(2.13695 0.903135 0)
(2.14211 0.886942 0)
(2.1462 0.872507 0)
(2.14765 0.865641 0)
(2.14876 0.867173 0)
(2.15028 0.872395 0)
(2.15394 0.874528 0)
(2.16171 0.870171 0)
(2.1735 0.858454 0)
(2.1879 0.842875 0)
(2.19719 0.830512 0)
(2.20034 0.825981 0)
(2.19896 0.829872 0)
(2.19557 0.838253 0)
(2.19566 0.843039 0)
(2.2007 0.839946 0)
(2.2102 0.825942 0)
(2.22497 0.808314 0)
(2.23515 0.796359 0)
(2.24079 0.78863 0)
(2.24182 0.784182 0)
(2.24223 0.786797 0)
(2.24308 0.791529 0)
(2.24425 0.797118 0)
(2.24614 0.798368 0)
(2.25019 0.786445 0)
(2.26236 0.771651 0)
(2.27564 0.755866 0)
(2.28396 0.741752 0)
(2.28817 0.735262 0)
(2.28752 0.739451 0)
(2.28236 0.750729 0)
(2.28051 0.754435 0)
(2.28841 0.749979 0)
(2.2997 0.738649 0)
(2.30525 0.731098 0)
(2.31059 0.720733 0)
(2.3176 0.70747 0)
(2.32275 0.698647 0)
(2.32665 0.694112 0)
(2.32854 0.691808 0)
(2.33065 0.693272 0)
(2.33117 0.699688 0)
(2.33114 0.704281 0)
(2.33751 0.703551 0)
(2.34925 0.691622 0)
(2.36109 0.670942 0)
(2.36793 0.655133 0)
(2.3689 0.647151 0)
(2.36729 0.648758 0)
(2.36707 0.655024 0)
(2.36877 0.65808 0)
(2.3713 0.658091 0)
(2.37304 0.653814 0)
(2.37368 0.643314 0)
(2.37732 0.62988 0)
(2.38515 0.622208 0)
(2.39413 0.618678 0)
(2.40182 0.616814 0)
(2.40974 0.616247 0)
(2.41536 0.615337 0)
(2.4166 0.611185 0)
(2.41347 0.603782 0)
(2.41035 0.595407 0)
(2.412 0.591261 0)
(2.41699 0.590652 0)
(2.4271 0.58877 0)
(2.4343 0.586022 0)
(2.44127 0.580036 0)
(2.44327 0.570016 0)
(2.44115 0.559426 0)
(2.44112 0.552433 0)
(2.44458 0.552051 0)
(2.44961 0.552723 0)
(2.45605 0.551902 0)
(2.46171 0.550566 0)
(2.46668 0.547106 0)
(2.46674 0.537873 0)
(2.46389 0.52628 0)
(2.46687 0.521514 0)
(2.47246 0.520836 0)
(2.47859 0.519007 0)
(2.48449 0.517106 0)
(2.48891 0.513194 0)
(2.48904 0.504957 0)
(2.48657 0.496032 0)
(2.48877 0.493389 0)
(2.49279 0.493443 0)
(2.49856 0.492063 0)
(2.50363 0.489834 0)
(2.50907 0.485986 0)
(2.51167 0.478145 0)
(2.50993 0.466361 0)
(2.51169 0.459664 0)
(2.51681 0.459455 0)
(2.52199 0.458038 0)
(2.52662 0.456461 0)
(2.5294 0.455016 0)
(2.52883 0.451105 0)
(2.52618 0.442971 0)
(2.52945 0.437096 0)
(2.53564 0.434924 0)
(2.54186 0.432049 0)
(2.5477 0.428548 0)
(2.55169 0.424384 0)
(2.5519 0.417459 0)
(2.54902 0.409021 0)
(2.55051 0.406498 0)
(2.5535 0.406599 0)
(2.55756 0.405573 0)
(2.56088 0.404277 0)
(2.56443 0.401151 0)
(2.56563 0.394386 0)
(2.56527 0.384261 0)
(2.57019 0.379039 0)
(2.57555 0.37723 0)
(2.58004 0.375906 0)
(2.58645 0.371787 0)
(2.58541 0.369352 0)
(2.57739 0.376816 0)
(2.48446 0.48134 0)
(2.13662 0.770977 0)
(1.92701 0.890159 0)
(3 -4.65441e-16 0)
(3 -6.24609e-16 0)
(3 -4.93218e-16 0)
(3 1.76909e-16 0)
(3 9.53351e-17 0)
(3 -2.70072e-17 0)
(3 -3.22493e-17 0)
(3 2.87072e-16 0)
(3 1.71533e-15 0)
(3 2.04807e-15 0)
(3 2.40648e-15 0)
(3 4.67283e-16 0)
(3 -2.29887e-16 0)
(3 -1.93414e-15 0)
(3 -2.50846e-15 0)
(3 -1.61388e-15 0)
(3 -6.4764e-16 0)
(3 -4.53747e-16 0)
(3 -5.27664e-17 0)
(3 4.43152e-16 0)
(3 3.06592e-16 0)
(3 7.01708e-16 0)
(3 9.65031e-16 0)
(3 1.13523e-15 0)
(3 9.68535e-16 0)
(3 7.90153e-16 0)
(3 7.63512e-16 0)
(3 -4.53771e-16 0)
(3 -1.21652e-15 0)
(3 -2.68095e-15 0)
(3 -2.69177e-15 0)
(3 1.69935e-12 0)
(3 4.48766e-09 0)
(3 2.94495e-06 0)
(2.99969 0.000672904 0)
(2.98439 0.0316697 0)
(2.78889 0.308442 0)
(2.23503 0.862073 0)
(2.07085 1.03283 0)
(2.06073 0.955812 0)
(2.09827 0.908307 0)
(2.1094 0.900725 0)
(2.11568 0.919038 0)
(2.09829 0.946923 0)
(2.07549 0.956534 0)
(2.07025 0.951375 0)
(2.0771 0.945116 0)
(2.09996 0.926586 0)
(2.11407 0.908721 0)
(2.12236 0.907977 0)
(2.12631 0.912686 0)
(2.12869 0.915182 0)
(2.1304 0.913358 0)
(2.13238 0.901824 0)
(2.1386 0.885405 0)
(2.14269 0.874643 0)
(2.14476 0.871389 0)
(2.14609 0.875952 0)
(2.14721 0.880702 0)
(2.15269 0.879594 0)
(2.16312 0.87159 0)
(2.17704 0.857536 0)
(2.18871 0.843039 0)
(2.19374 0.835708 0)
(2.19355 0.835748 0)
(2.19047 0.841787 0)
(2.18988 0.84686 0)
(2.19367 0.846167 0)
(2.20277 0.83511 0)
(2.21615 0.818987 0)
(2.22618 0.808286 0)
(2.23175 0.802666 0)
(2.235 0.798265 0)
(2.23712 0.795318 0)
(2.23911 0.795873 0)
(2.2414 0.799235 0)
(2.24307 0.803501 0)
(2.24496 0.799185 0)
(2.25261 0.785242 0)
(2.26578 0.772376 0)
(2.27647 0.756477 0)
(2.28206 0.746037 0)
(2.28271 0.746014 0)
(2.27866 0.75564 0)
(2.27634 0.760066 0)
(2.28175 0.756902 0)
(2.29171 0.747905 0)
(2.29803 0.742036 0)
(2.30076 0.737321 0)
(2.30848 0.724596 0)
(2.31567 0.710837 0)
(2.32075 0.702999 0)
(2.32464 0.697913 0)
(2.32766 0.697657 0)
(2.32867 0.702028 0)
(2.32705 0.709528 0)
(2.33022 0.710806 0)
(2.34111 0.704035 0)
(2.35398 0.686101 0)
(2.36184 0.668987 0)
(2.36377 0.659798 0)
(2.36247 0.658699 0)
(2.36207 0.662028 0)
(2.36413 0.663604 0)
(2.36695 0.66315 0)
(2.3687 0.659997 0)
(2.36893 0.652449 0)
(2.37151 0.642178 0)
(2.37886 0.635985 0)
(2.3883 0.631236 0)
(2.39642 0.627382 0)
(2.4047 0.625069 0)
(2.41035 0.623104 0)
(2.41163 0.618819 0)
(2.40862 0.612453 0)
(2.40566 0.605399 0)
(2.4071 0.602293 0)
(2.41176 0.602105 0)
(2.42132 0.600412 0)
(2.4285 0.597101 0)
(2.43543 0.589534 0)
(2.4376 0.578482 0)
(2.43592 0.567789 0)
(2.43638 0.561182 0)
(2.43991 0.561088 0)
(2.44462 0.56241 0)
(2.45112 0.562353 0)
(2.4564 0.561055 0)
(2.46153 0.5579 0)
(2.46243 0.548702 0)
(2.45958 0.536667 0)
(2.46202 0.530793 0)
(2.46746 0.530188 0)
(2.4735 0.528534 0)
(2.47937 0.526907 0)
(2.48379 0.523224 0)
(2.48418 0.514946 0)
(2.48156 0.505826 0)
(2.48347 0.50237 0)
(2.48748 0.502638 0)
(2.49385 0.501569 0)
(2.49873 0.499486 0)
(2.50428 0.496153 0)
(2.50762 0.489277 0)
(2.50625 0.477807 0)
(2.50664 0.469377 0)
(2.51168 0.46893 0)
(2.51691 0.467798 0)
(2.52188 0.466168 0)
(2.52524 0.464615 0)
(2.52527 0.461323 0)
(2.52221 0.453534 0)
(2.52418 0.446854 0)
(2.5303 0.444385 0)
(2.53663 0.441588 0)
(2.54288 0.43799 0)
(2.54748 0.433983 0)
(2.54866 0.427841 0)
(2.54568 0.419387 0)
(2.546 0.415399 0)
(2.54887 0.415676 0)
(2.55306 0.415085 0)
(2.55637 0.414077 0)
(2.5601 0.411642 0)
(2.56191 0.405632 0)
(2.56154 0.395409 0)
(2.56531 0.388222 0)
(2.57069 0.386413 0)
(2.57565 0.384612 0)
(2.57951 0.382545 0)
(2.58286 0.379432 0)
(2.58362 0.371961 0)
(2.57852 0.371527 0)
(2.56465 0.389422 0)
(2.40573 0.557347 0)
(2.09538 0.800334 0)
(3 1.25191e-15 0)
(3 4.52927e-16 0)
(3 2.80024e-16 0)
(3 6.81079e-16 0)
(3 1.31307e-15 0)
(3 1.79859e-15 0)
(3 1.39368e-15 0)
(3 4.30769e-16 0)
(3 4.1908e-16 0)
(3 7.87825e-16 0)
(3 1.68082e-15 0)
(3 1.86886e-15 0)
(3 1.251e-15 0)
(3 -1.41436e-16 0)
(3 -7.5512e-16 0)
(3 -8.78328e-16 0)
(3 -1.79158e-15 0)
(3 -1.1387e-15 0)
(3 -6.12367e-16 0)
(3 9.53601e-16 0)
(3 1.09198e-15 0)
(3 1.57408e-15 0)
(3 1.10913e-15 0)
(3 5.95326e-16 0)
(3 1.02169e-15 0)
(3 1.14247e-15 0)
(3 7.32417e-16 0)
(3 -5.55733e-16 0)
(3 -8.868e-16 0)
(3 -2.11318e-15 0)
(3 -3.01303e-15 0)
(3 -3.0034e-15 0)
(3 4.93139e-13 0)
(3 2.95514e-09 0)
(3 3.10394e-06 0)
(2.9996 0.000848325 0)
(2.98155 0.0420066 0)
(2.72679 0.397917 0)
(2.26989 0.910745 0)
(2.1435 0.900572 0)
(2.12208 0.901249 0)
(2.11981 0.913345 0)
(2.10251 0.949603 0)
(2.06941 0.972497 0)
(2.05708 0.969377 0)
(2.06236 0.961667 0)
(2.08736 0.94248 0)
(2.10973 0.917269 0)
(2.12014 0.910223 0)
(2.12573 0.914655 0)
(2.12693 0.920688 0)
(2.12643 0.92329 0)
(2.1252 0.916553 0)
(2.12863 0.900238 0)
(2.13636 0.886401 0)
(2.14051 0.878414 0)
(2.14322 0.878968 0)
(2.14415 0.88473 0)
(2.14648 0.886461 0)
(2.15466 0.881798 0)
(2.16741 0.871038 0)
(2.18038 0.856221 0)
(2.18693 0.846653 0)
(2.18781 0.843994 0)
(2.18474 0.84718 0)
(2.18378 0.850926 0)
(2.18698 0.851286 0)
(2.19362 0.843439 0)
(2.2075 0.828471 0)
(2.21747 0.817988 0)
(2.224 0.812753 0)
(2.22802 0.809118 0)
(2.23157 0.805957 0)
(2.23491 0.803673 0)
(2.23788 0.803356 0)
(2.23997 0.8062 0)
(2.24111 0.806721 0)
(2.2444 0.797284 0)
(2.25559 0.786638 0)
(2.26855 0.773023 0)
(2.27608 0.759135 0)
(2.2789 0.754297 0)
(2.27661 0.760518 0)
(2.27353 0.765637 0)
(2.27665 0.763328 0)
(2.28445 0.756519 0)
(2.29138 0.750045 0)
(2.29432 0.74808 0)
(2.29849 0.74104 0)
(2.30795 0.725897 0)
(2.3147 0.713598 0)
(2.31923 0.706773 0)
(2.32238 0.704533 0)
(2.32372 0.706604 0)
(2.32257 0.71443 0)
(2.32332 0.717687 0)
(2.33283 0.714853 0)
(2.34671 0.700348 0)
(2.35631 0.683425 0)
(2.35921 0.672918 0)
(2.35796 0.668974 0)
(2.35725 0.669252 0)
(2.35923 0.669359 0)
(2.36222 0.668175 0)
(2.36412 0.665433 0)
(2.36441 0.660304 0)
(2.36653 0.653507 0)
(2.3729 0.649738 0)
(2.38228 0.644978 0)
(2.39098 0.639141 0)
(2.39953 0.634572 0)
(2.40522 0.630936 0)
(2.40663 0.626135 0)
(2.40398 0.620579 0)
(2.40135 0.614887 0)
(2.40285 0.612885 0)
(2.40714 0.613319 0)
(2.41568 0.612131 0)
(2.42248 0.608846 0)
(2.42919 0.599715 0)
(2.43137 0.587116 0)
(2.4302 0.575798 0)
(2.43139 0.569526 0)
(2.4351 0.569773 0)
(2.43976 0.571731 0)
(2.44626 0.572622 0)
(2.45131 0.571765 0)
(2.45646 0.568727 0)
(2.45772 0.559912 0)
(2.45522 0.547114 0)
(2.45721 0.540313 0)
(2.46257 0.539579 0)
(2.46862 0.537954 0)
(2.47441 0.536508 0)
(2.47875 0.532807 0)
(2.47905 0.524745 0)
(2.47645 0.515423 0)
(2.47804 0.51126 0)
(2.48214 0.511624 0)
(2.4889 0.510936 0)
(2.49408 0.508964 0)
(2.49957 0.50612 0)
(2.50345 0.500184 0)
(2.50265 0.489223 0)
(2.50176 0.479515 0)
(2.5065 0.478193 0)
(2.51172 0.477523 0)
(2.51691 0.476014 0)
(2.52087 0.47426 0)
(2.52166 0.471337 0)
(2.51832 0.464008 0)
(2.519 0.456647 0)
(2.52483 0.453866 0)
(2.53116 0.451215 0)
(2.53773 0.447589 0)
(2.54297 0.443632 0)
(2.54514 0.438023 0)
(2.54258 0.429771 0)
(2.54167 0.424315 0)
(2.54436 0.424459 0)
(2.54836 0.424379 0)
(2.55186 0.423664 0)
(2.55575 0.421859 0)
(2.55832 0.416734 0)
(2.55786 0.406437 0)
(2.56034 0.397913 0)
(2.56596 0.395529 0)
(2.57068 0.393682 0)
(2.57509 0.391312 0)
(2.578 0.388332 0)
(2.57848 0.384213 0)
(2.57589 0.377288 0)
(2.57866 0.373613 0)
(2.57898 0.375305 0)
(2.55446 0.410264 0)
(2.35481 0.610085 0)
(3 1.05893e-15 0)
(3 2.12624e-16 0)
(3 2.78655e-17 0)
(3 -3.06719e-17 0)
(3 8.92843e-16 0)
(3 2.29695e-15 0)
(3 2.09014e-15 0)
(3 3.39976e-16 0)
(3 -5.2622e-17 0)
(3 -1.39924e-16 0)
(3 -3.05384e-16 0)
(3 -3.83824e-16 0)
(3 1.44824e-16 0)
(3 3.6412e-16 0)
(3 8.68264e-16 0)
(3 3.16655e-16 0)
(3 -3.92262e-16 0)
(3 -7.51983e-16 0)
(3 4.40172e-17 0)
(3 2.19837e-17 0)
(3 -5.53331e-16 0)
(3 -1.77981e-15 0)
(3 -1.84848e-15 0)
(3 -1.30178e-15 0)
(3 -6.23693e-16 0)
(3 -3.45791e-16 0)
(3 -1.14518e-16 0)
(3 -9.38795e-16 0)
(3 -1.46187e-15 0)
(3 -1.89542e-15 0)
(3 -2.11238e-15 0)
(3 -2.32372e-15 0)
(3 -1.76696e-15 0)
(3 1.0385e-12 0)
(3 6.06037e-09 0)
(3 5.36822e-06 0)
(2.99942 0.00143585 0)
(2.97475 0.056406 0)
(2.75934 0.380505 0)
(2.38194 0.74286 0)
(2.16149 0.848557 0)
(2.10935 0.946751 0)
(2.06202 0.987154 0)
(2.04223 0.992213 0)
(2.04454 0.982286 0)
(2.0688 0.959011 0)
(2.09842 0.92323 0)
(2.11438 0.908482 0)
(2.12478 0.911866 0)
(2.12702 0.921846 0)
(2.12259 0.932104 0)
(2.11944 0.930843 0)
(2.11955 0.915499 0)
(2.12899 0.898835 0)
(2.13612 0.887087 0)
(2.14048 0.88297 0)
(2.14258 0.888338 0)
(2.14298 0.893543 0)
(2.14804 0.891903 0)
(2.15931 0.884125 0)
(2.17277 0.869817 0)
(2.18088 0.858412 0)
(2.18277 0.853986 0)
(2.18004 0.854513 0)
(2.17793 0.856635 0)
(2.18088 0.856122 0)
(2.18556 0.850348 0)
(2.19694 0.837458 0)
(2.20857 0.826479 0)
(2.21462 0.822748 0)
(2.21955 0.820257 0)
(2.22411 0.817639 0)
(2.22855 0.815116 0)
(2.23257 0.812272 0)
(2.2354 0.810141 0)
(2.23651 0.809846 0)
(2.2385 0.80596 0)
(2.24641 0.796915 0)
(2.25872 0.788819 0)
(2.26888 0.775694 0)
(2.27381 0.766494 0)
(2.27456 0.766828 0)
(2.27267 0.770146 0)
(2.27354 0.768535 0)
(2.27805 0.763945 0)
(2.2839 0.759032 0)
(2.28782 0.756908 0)
(2.29078 0.754395 0)
(2.299 0.74258 0)
(2.30868 0.725966 0)
(2.31455 0.715811 0)
(2.31801 0.711441 0)
(2.31996 0.712302 0)
(2.31925 0.718076 0)
(2.31752 0.72329 0)
(2.32462 0.723248 0)
(2.33859 0.712949 0)
(2.34994 0.696902 0)
(2.3536 0.687177 0)
(2.35219 0.68157 0)
(2.35154 0.678162 0)
(2.35384 0.67568 0)
(2.3573 0.673539 0)
(2.35951 0.670964 0)
(2.35973 0.667457 0)
(2.36121 0.663472 0)
(2.36669 0.662037 0)
(2.3755 0.658657 0)
(2.38516 0.651623 0)
(2.39388 0.644979 0)
(2.39979 0.639185 0)
(2.40141 0.633497 0)
(2.39933 0.628173 0)
(2.39728 0.623617 0)
(2.39908 0.622875 0)
(2.40321 0.624084 0)
(2.41066 0.623741 0)
(2.41673 0.620837 0)
(2.42267 0.610723 0)
(2.42463 0.596366 0)
(2.424 0.583948 0)
(2.42598 0.577773 0)
(2.42998 0.578275 0)
(2.43487 0.58064 0)
(2.44136 0.582333 0)
(2.44637 0.582093 0)
(2.45143 0.579584 0)
(2.45296 0.571082 0)
(2.4506 0.558195 0)
(2.45252 0.550132 0)
(2.45786 0.549146 0)
(2.46394 0.547447 0)
(2.46963 0.546041 0)
(2.47372 0.542202 0)
(2.47378 0.534064 0)
(2.47106 0.524772 0)
(2.47253 0.520211 0)
(2.47672 0.520564 0)
(2.48372 0.520235 0)
(2.48965 0.518402 0)
(2.49499 0.515923 0)
(2.49922 0.510806 0)
(2.49906 0.500356 0)
(2.49712 0.489951 0)
(2.50114 0.487407 0)
(2.50637 0.487198 0)
(2.51175 0.485879 0)
(2.51622 0.484115 0)
(2.5179 0.481256 0)
(2.51467 0.474345 0)
(2.51392 0.466372 0)
(2.5194 0.463185 0)
(2.52554 0.460772 0)
(2.53233 0.457243 0)
(2.53813 0.453431 0)
(2.54125 0.448273 0)
(2.53953 0.440254 0)
(2.53757 0.433421 0)
(2.53996 0.432985 0)
(2.54355 0.433257 0)
(2.54729 0.432922 0)
(2.55132 0.431817 0)
(2.55465 0.427574 0)
(2.55454 0.417833 0)
(2.55558 0.407853 0)
(2.5611 0.404616 0)
(2.56584 0.402753 0)
(2.57022 0.4003 0)
(2.57359 0.397272 0)
(2.57446 0.392967 0)
(2.57235 0.387927 0)
(2.57247 0.383173 0)
(2.57549 0.381512 0)
(2.58228 0.378825 0)
(2.58172 0.380943 0)
(2.53729 0.433953 0)
(3 2.3096e-16 0)
(3 7.3005e-16 0)
(3 7.8957e-16 0)
(3 -1.90007e-17 0)
(3 4.0382e-16 0)
(3 1.98231e-15 0)
(3 1.59959e-15 0)
(3 4.52237e-16 0)
(3 -7.05215e-16 0)
(3 -7.92358e-16 0)
(3 -1.76173e-15 0)
(3 -1.86879e-15 0)
(3 -1.52617e-15 0)
(3 -3.75982e-16 0)
(3 -2.23355e-16 0)
(3 4.71181e-16 0)
(3 9.33976e-16 0)
(3 1.15077e-15 0)
(3 1.99431e-16 0)
(3 -7.42739e-16 0)
(3 -1.84612e-15 0)
(3 -2.5444e-15 0)
(3 -2.23167e-15 0)
(3 -1.65488e-15 0)
(3 -9.73417e-16 0)
(3 -1.32051e-15 0)
(3 -2.27237e-15 0)
(3 -1.80072e-15 0)
(3 -2.04448e-15 0)
(3 -2.27315e-15 0)
(3 -2.13103e-15 0)
(3 -1.58678e-15 0)
(3 -1.31623e-15 0)
(3 -1.04028e-15 0)
(3 3.04212e-12 0)
(3 1.10923e-08 0)
(3 9.01437e-06 0)
(2.99952 0.00144672 0)
(2.9832 0.0381688 0)
(2.82117 0.266956 0)
(2.3991 0.672987 0)
(2.10066 0.929649 0)
(2.03694 1.01985 0)
(2.02585 1.007 0)
(2.04155 0.977016 0)
(2.08643 0.929222 0)
(2.10932 0.900097 0)
(2.12524 0.903796 0)
(2.12831 0.91823 0)
(2.11873 0.938888 0)
(2.1107 0.94383 0)
(2.10929 0.931563 0)
(2.11843 0.912833 0)
(2.1309 0.896371 0)
(2.13725 0.887707 0)
(2.14128 0.890118 0)
(2.14163 0.898584 0)
(2.14331 0.901335 0)
(2.15212 0.896491 0)
(2.1652 0.884471 0)
(2.17511 0.871073 0)
(2.17852 0.86496 0)
(2.17701 0.863577 0)
(2.17438 0.863999 0)
(2.17542 0.862548 0)
(2.1795 0.856744 0)
(2.1868 0.8453 0)
(2.19899 0.835076 0)
(2.20644 0.83061 0)
(2.21118 0.830159 0)
(2.21612 0.829264 0)
(2.22119 0.827655 0)
(2.22629 0.823732 0)
(2.23018 0.816776 0)
(2.23148 0.811671 0)
(2.23314 0.809974 0)
(2.23808 0.804339 0)
(2.24926 0.799369 0)
(2.2603 0.791857 0)
(2.26787 0.781346 0)
(2.27164 0.775759 0)
(2.27189 0.776198 0)
(2.27133 0.775093 0)
(2.27273 0.77122 0)
(2.27659 0.76743 0)
(2.2809 0.76524 0)
(2.28484 0.763742 0)
(2.29124 0.756719 0)
(2.30163 0.740767 0)
(2.30938 0.726272 0)
(2.31309 0.719693 0)
(2.31428 0.719721 0)
(2.31371 0.724641 0)
(2.31134 0.73084 0)
(2.31708 0.732018 0)
(2.32991 0.724943 0)
(2.34246 0.709529 0)
(2.34712 0.700384 0)
(2.34576 0.694659 0)
(2.34532 0.688748 0)
(2.34815 0.683104 0)
(2.35234 0.67856 0)
(2.35525 0.676208 0)
(2.35523 0.674477 0)
(2.35571 0.672673 0)
(2.3603 0.672534 0)
(2.36793 0.670868 0)
(2.37834 0.663604 0)
(2.38731 0.655025 0)
(2.39367 0.647811 0)
(2.39585 0.641196 0)
(2.39435 0.635552 0)
(2.39305 0.631743 0)
(2.3953 0.631995 0)
(2.39951 0.634022 0)
(2.40629 0.634701 0)
(2.41175 0.63231 0)
(2.41636 0.622461 0)
(2.4176 0.606692 0)
(2.4176 0.59268 0)
(2.42033 0.586214 0)
(2.4246 0.586803 0)
(2.42981 0.589237 0)
(2.43628 0.59147 0)
(2.44132 0.591778 0)
(2.44633 0.589887 0)
(2.44798 0.581968 0)
(2.44601 0.569311 0)
(2.44788 0.560593 0)
(2.4533 0.559196 0)
(2.45955 0.557114 0)
(2.46517 0.555442 0)
(2.46887 0.551207 0)
(2.46845 0.543015 0)
(2.46544 0.534023 0)
(2.46679 0.529069 0)
(2.47102 0.529416 0)
(2.47829 0.529469 0)
(2.48525 0.528051 0)
(2.49048 0.525791 0)
(2.49506 0.52104 0)
(2.49529 0.511243 0)
(2.49283 0.500395 0)
(2.49574 0.496544 0)
(2.5009 0.496699 0)
(2.50641 0.495588 0)
(2.51139 0.493979 0)
(2.514 0.491178 0)
(2.51159 0.484383 0)
(2.50898 0.476129 0)
(2.51404 0.47249 0)
(2.51991 0.470188 0)
(2.52673 0.466841 0)
(2.53301 0.463244 0)
(2.53701 0.458632 0)
(2.53637 0.450962 0)
(2.53381 0.442971 0)
(2.53561 0.441482 0)
(2.53877 0.441793 0)
(2.54262 0.441742 0)
(2.5466 0.441229 0)
(2.55069 0.438026 0)
(2.55142 0.429352 0)
(2.55116 0.418372 0)
(2.55622 0.413721 0)
(2.56116 0.411744 0)
(2.56551 0.409334 0)
(2.56892 0.406475 0)
(2.57044 0.402274 0)
(2.56883 0.396432 0)
(2.56832 0.392471 0)
(2.57101 0.39155 0)
(2.57518 0.389905 0)
(2.58185 0.386375 0)
(2.5854 0.382249 0)
(2.58091 0.386274 0)
(3 -2.09972e-16 0)
(3 5.02002e-16 0)
(3 1.37883e-15 0)
(3 7.60588e-16 0)
(3 8.7814e-16 0)
(3 7.37323e-16 0)
(3 -1.03169e-16 0)
(3 1.7047e-16 0)
(3 -2.50283e-16 0)
(3 -5.40753e-16 0)
(3 -1.74112e-15 0)
(3 -3.2196e-15 0)
(3 -3.44601e-15 0)
(3 -3.1377e-15 0)
(3 -2.4442e-15 0)
(3 -1.79819e-15 0)
(3 4.15182e-16 0)
(3 9.95488e-16 0)
(3 -3.06595e-16 0)
(3 -1.99214e-15 0)
(3 -2.18249e-15 0)
(3 -1.83734e-15 0)
(3 -1.6943e-15 0)
(3 -1.23603e-15 0)
(3 -9.67113e-16 0)
(3 -2.11237e-15 0)
(3 -2.81474e-15 0)
(3 -2.62137e-15 0)
(3 -1.88564e-15 0)
(3 -1.87494e-15 0)
(3 -1.71848e-15 0)
(3 -1.58558e-15 0)
(3 -1.39524e-15 0)
(3 -2.01386e-15 0)
(3 -1.58823e-15 0)
(3 4.29907e-12 0)
(3 1.0792e-08 0)
(3 5.3858e-06 0)
(2.99977 0.000604639 0)
(2.988 0.0242942 0)
(2.83892 0.24908 0)
(2.31697 0.742199 0)
(2.07568 1.03434 0)
(2.03339 1.00264 0)
(2.07431 0.943487 0)
(2.11333 0.89578 0)
(2.1302 0.895261 0)
(2.13403 0.913851 0)
(2.11888 0.944918 0)
(2.09998 0.957054 0)
(2.09496 0.947552 0)
(2.10451 0.929709 0)
(2.12214 0.91113 0)
(2.13267 0.89614 0)
(2.13837 0.89211 0)
(2.14133 0.900129 0)
(2.1416 0.907603 0)
(2.14612 0.90631 0)
(2.15742 0.897865 0)
(2.16971 0.883298 0)
(2.1753 0.874245 0)
(2.1758 0.871959 0)
(2.173 0.872462 0)
(2.17189 0.871497 0)
(2.17429 0.865883 0)
(2.17918 0.854129 0)
(2.18967 0.843497 0)
(2.1985 0.839032 0)
(2.20423 0.838555 0)
(2.20869 0.839457 0)
(2.2139 0.839599 0)
(2.21967 0.835917 0)
(2.22428 0.826396 0)
(2.22595 0.816584 0)
(2.22709 0.812811 0)
(2.23095 0.81005 0)
(2.23955 0.80628 0)
(2.25026 0.803731 0)
(2.26017 0.796381 0)
(2.26699 0.787962 0)
(2.27012 0.78397 0)
(2.2702 0.781634 0)
(2.26914 0.777981 0)
(2.27014 0.774902 0)
(2.27337 0.773495 0)
(2.27831 0.772185 0)
(2.28535 0.767889 0)
(2.29513 0.75527 0)
(2.30404 0.738851 0)
(2.30823 0.729439 0)
(2.30898 0.727147 0)
(2.30827 0.731987 0)
(2.3059 0.737751 0)
(2.31036 0.73915 0)
(2.3217 0.735034 0)
(2.33487 0.721102 0)
(2.34096 0.711884 0)
(2.33921 0.707634 0)
(2.33821 0.700778 0)
(2.3417 0.692497 0)
(2.34654 0.685878 0)
(2.3505 0.68154 0)
(2.35185 0.680986 0)
(2.35067 0.681252 0)
(2.3537 0.681309 0)
(2.36036 0.681107 0)
(2.37068 0.674578 0)
(2.38006 0.664196 0)
(2.38678 0.656002 0)
(2.38973 0.649304 0)
(2.38899 0.643542 0)
(2.38832 0.639705 0)
(2.39118 0.640437 0)
(2.39562 0.643063 0)
(2.40211 0.644459 0)
(2.40723 0.642737 0)
(2.41059 0.634013 0)
(2.41043 0.618264 0)
(2.41081 0.602696 0)
(2.4145 0.595302 0)
(2.4191 0.595663 0)
(2.42472 0.597747 0)
(2.43096 0.59999 0)
(2.43608 0.600713 0)
(2.44099 0.599223 0)
(2.44256 0.592077 0)
(2.44108 0.580293 0)
(2.4432 0.571538 0)
(2.44881 0.569791 0)
(2.45534 0.567202 0)
(2.46094 0.564911 0)
(2.46423 0.559964 0)
(2.46317 0.551657 0)
(2.45992 0.542924 0)
(2.46107 0.537992 0)
(2.46522 0.538263 0)
(2.47248 0.538624 0)
(2.48073 0.537747 0)
(2.48577 0.535973 0)
(2.49086 0.531093 0)
(2.49145 0.521633 0)
(2.48885 0.510639 0)
(2.49061 0.505688 0)
(2.4955 0.506007 0)
(2.50092 0.505299 0)
(2.50633 0.503819 0)
(2.50983 0.50115 0)
(2.50857 0.494567 0)
(2.50478 0.485688 0)
(2.50855 0.48187 0)
(2.51447 0.479638 0)
(2.52107 0.476375 0)
(2.52765 0.473008 0)
(2.53242 0.469011 0)
(2.53304 0.461849 0)
(2.53021 0.45307 0)
(2.53123 0.450136 0)
(2.53403 0.45029 0)
(2.53835 0.450226 0)
(2.54173 0.450016 0)
(2.54621 0.447789 0)
(2.548 0.440643 0)
(2.54715 0.42937 0)
(2.5513 0.42288 0)
(2.55653 0.420799 0)
(2.56095 0.418363 0)
(2.56441 0.415585 0)
(2.56631 0.411783 0)
(2.56531 0.406059 0)
(2.56421 0.401192 0)
(2.56717 0.400132 0)
(2.57059 0.399576 0)
(2.57586 0.397322 0)
(2.581 0.393725 0)
(2.58643 0.386083 0)
(2.58251 0.379774 0)
(3 9.76537e-16 0)
(3 1.26417e-15 0)
(3 1.11309e-15 0)
(3 1.09137e-15 0)
(3 7.07151e-16 0)
(3 -1.31758e-16 0)
(3 -8.17239e-16 0)
(3 -6.61297e-16 0)
(3 -1.91583e-16 0)
(3 -3.34068e-16 0)
(3 -9.53542e-16 0)
(3 -1.50928e-15 0)
(3 -1.8308e-15 0)
(3 -1.62164e-15 0)
(3 -1.32745e-15 0)
(3 -8.82212e-16 0)
(3 7.70307e-17 0)
(3 -9.14936e-16 0)
(3 -1.66108e-15 0)
(3 -1.47721e-15 0)
(3 -1.919e-15 0)
(3 -2.16203e-15 0)
(3 -2.53832e-15 0)
(3 -2.11227e-15 0)
(3 -2.01605e-15 0)
(3 -1.70434e-15 0)
(3 -1.67982e-15 0)
(3 -1.63988e-15 0)
(3 -1.63732e-15 0)
(3 -1.33398e-15 0)
(3 -1.29862e-15 0)
(3 -9.18652e-16 0)
(3 -9.58897e-16 0)
(3 -9.2412e-16 0)
(3 -1.00839e-15 0)
(3 -1.44514e-15 0)
(3 1.64467e-12 0)
(3 3.07454e-09 0)
(3 1.7981e-06 0)
(2.99977 0.000486389 0)
(2.98774 0.0273672 0)
(2.78597 0.311529 0)
(2.27478 0.883298 0)
(2.12704 0.965799 0)
(2.1298 0.902761 0)
(2.13935 0.892955 0)
(2.14232 0.91084 0)
(2.12338 0.948609 0)
(2.0899 0.970318 0)
(2.07771 0.964977 0)
(2.0874 0.947682 0)