/*--------------------------------*- C++ -*----------------------------------*\
  =========                 |
  \\      /  F ield         | OpenFOAM: The Open Source CFD Toolbox
   \\    /   O peration     | Website:  https://openfoam.org
    \\  /    A nd           | Version:  7
     \\/     M anipulation  |
\*---------------------------------------------------------------------------*/
FoamFile
{
    version     2.0;
    format      ascii;
    class       volVectorField;
    location    "3.6";
    object      U;
}
// * * * * * * * * * * * * * * * * * * * * * * * * * * * * * * * * * * * * * //

dimensions      [0 1 -1 0 0 0 0];

internalField   nonuniform List<vector> 
4128
(
(2.46343 -0.437097 0)
(2.47107 -0.440366 0)
(2.47845 -0.444336 0)
(2.48419 -0.448887 0)
(2.48766 -0.452486 0)
(2.48886 -0.45135 0)
(2.49055 -0.444305 0)
(2.49175 -0.434264 0)
(2.49269 -0.426575 0)
(2.49694 -0.424677 0)
(2.50357 -0.425268 0)
(2.50967 -0.426677 0)
(2.51536 -0.429553 0)
(2.52116 -0.433282 0)
(2.5258 -0.438418 0)
(2.52773 -0.443131 0)
(2.53078 -0.443107 0)
(2.53711 -0.440363 0)
(2.54361 -0.436938 0)
(2.54948 -0.432799 0)
(2.55414 -0.428629 0)
(2.5585 -0.4254 0)
(2.5636 -0.423712 0)
(2.56872 -0.422841 0)
(2.57327 -0.42595 0)
(2.57557 -0.432419 0)
(2.57413 -0.437951 0)
(2.57244 -0.438227 0)
(2.57626 -0.435014 0)
(2.58277 -0.431492 0)
(2.58942 -0.428115 0)
(2.59505 -0.425639 0)
(2.59961 -0.424842 0)
(2.60335 -0.425166 0)
(2.60661 -0.425731 0)
(2.60915 -0.426524 0)
(2.61182 -0.427907 0)
(2.61647 -0.428812 0)
(2.62166 -0.429048 0)
(2.62576 -0.427189 0)
(2.62753 -0.42171 0)
(2.62868 -0.416103 0)
(2.63172 -0.413374 0)
(2.63528 -0.412266 0)
(2.63893 -0.412496 0)
(2.64297 -0.414734 0)
(2.64755 -0.416719 0)
(2.65201 -0.41776 0)
(2.65662 -0.418176 0)
(2.66127 -0.418596 0)
(2.66466 -0.417727 0)
(2.66677 -0.415725 0)
(2.66847 -0.412687 0)
(2.67001 -0.409139 0)
(2.67116 -0.406939 0)
(2.67289 -0.406506 0)
(2.67321 -0.408117 0)
(2.67486 -0.411676 0)
(2.6823 -0.414065 0)
(2.68856 -0.41584 0)
(2.69382 -0.416099 0)
(2.6988 -0.413861 0)
(2.70333 -0.411316 0)
(2.70798 -0.409636 0)
(2.712 -0.407968 0)
(2.71421 -0.404921 0)
(2.71399 -0.401385 0)
(2.71029 -0.399307 0)
(2.70657 -0.398024 0)
(2.70881 -0.397548 0)
(2.71363 -0.397402 0)
(2.72011 -0.397192 0)
(2.72644 -0.397385 0)
(2.73232 -0.397688 0)
(2.73704 -0.396329 0)
(2.73985 -0.39361 0)
(2.74165 -0.392393 0)
(2.7429 -0.393598 0)
(2.74318 -0.394707 0)
(2.74192 -0.393836 0)
(2.74127 -0.391008 0)
(2.74447 -0.388667 0)
(2.74969 -0.387755 0)
(2.75448 -0.387198 0)
(2.7586 -0.386607 0)
(2.76164 -0.385045 0)
(2.76276 -0.382233 0)
(2.76385 -0.38076 0)
(2.76585 -0.38035 0)
(2.76836 -0.380518 0)
(2.77026 -0.381645 0)
(2.77005 -0.383301 0)
(2.77045 -0.383647 0)
(2.77651 -0.38313 0)
(2.78208 -0.382853 0)
(2.78721 -0.381273 0)
(2.79171 -0.378948 0)
(2.79561 -0.375687 0)
(2.79887 -0.373345 0)
(2.80172 -0.372733 0)
(2.80386 -0.373554 0)
(2.80215 -0.375777 0)
(2.79738 -0.376566 0)
(2.79819 -0.376341 0)
(2.80236 -0.374715 0)
(2.80587 -0.373177 0)
(2.80953 -0.370438 0)
(2.81056 -0.362624 0)
(2.80947 -0.347151 0)
(2.80035 -0.311596 0)
(2.77231 -0.235994 0)
(2.74958 -0.137071 0)
(2.70271 0.0143073 0)
(2.66896 0.0903535 0)
(2.67365 0.106831 0)
(2.64332 0.159199 0)
(2.61827 0.213076 0)
(2.5988 0.245919 0)
(2.59258 0.246927 0)
(2.59383 0.247977 0)
(2.59452 0.243632 0)
(2.59567 0.237123 0)
(2.59948 0.232912 0)
(2.60334 0.233494 0)
(2.6043 0.235823 0)
(2.6029 0.240861 0)
(2.60057 0.249021 0)
(2.59792 0.258416 0)
(2.59736 0.265811 0)
(2.46106 -0.419817 0)
(2.4676 -0.422688 0)
(2.47404 -0.425689 0)
(2.48072 -0.429873 0)
(2.48748 -0.433797 0)
(2.49371 -0.436162 0)
(2.49939 -0.43512 0)
(2.50456 -0.430611 0)
(2.50762 -0.422696 0)
(2.50648 -0.413118 0)
(2.50517 -0.408882 0)
(2.50698 -0.410619 0)
(2.50971 -0.414701 0)
(2.51367 -0.418888 0)
(2.52028 -0.421772 0)
(2.52768 -0.423515 0)
(2.53541 -0.425432 0)
(2.54254 -0.425585 0)
(2.54959 -0.424473 0)
(2.55701 -0.421798 0)
(2.56362 -0.418168 0)
(2.56723 -0.41371 0)
(2.56721 -0.410651 0)
(2.56614 -0.410327 0)
(2.56558 -0.411908 0)
(2.56845 -0.416579 0)
(2.57299 -0.420717 0)
(2.57698 -0.422668 0)
(2.58102 -0.421458 0)
(2.58584 -0.417927 0)
(2.59029 -0.413343 0)
(2.59429 -0.409904 0)
(2.59842 -0.408679 0)
(2.6025 -0.409149 0)
(2.60621 -0.410553 0)
(2.60962 -0.411895 0)
(2.6127 -0.412488 0)
(2.61625 -0.412623 0)
(2.62131 -0.412442 0)
(2.6274 -0.411557 0)
(2.63257 -0.408425 0)
(2.63421 -0.402438 0)
(2.63377 -0.398676 0)
(2.63685 -0.39886 0)
(2.64105 -0.399208 0)
(2.64625 -0.400175 0)
(2.65075 -0.401622 0)
(2.65411 -0.403099 0)
(2.65757 -0.40419 0)
(2.66292 -0.404486 0)
(2.6685 -0.403856 0)
(2.67294 -0.401516 0)
(2.67496 -0.397646 0)
(2.67261 -0.394033 0)
(2.66787 -0.393329 0)
(2.66631 -0.395058 0)
(2.66906 -0.396481 0)
(2.67505 -0.397617 0)
(2.6807 -0.39766 0)
(2.68616 -0.397404 0)
(2.69295 -0.397083 0)
(2.70029 -0.39621 0)
(2.70625 -0.396179 0)
(2.71219 -0.396296 0)
(2.71683 -0.395436 0)
(2.71845 -0.392787 0)
(2.71401 -0.389153 0)
(2.70581 -0.38649 0)
(2.70507 -0.385415 0)
(2.70877 -0.384918 0)
(2.71293 -0.384377 0)
(2.71751 -0.383701 0)
(2.72322 -0.382889 0)
(2.73031 -0.381799 0)
(2.73745 -0.380007 0)
(2.7434 -0.379656 0)
(2.74832 -0.380345 0)
(2.75019 -0.381588 0)
(2.74679 -0.382695 0)
(2.74332 -0.383126 0)
(2.7453 -0.38157 0)
(2.74848 -0.379073 0)
(2.75114 -0.376551 0)
(2.75314 -0.374463 0)
(2.75571 -0.372819 0)
(2.75987 -0.37168 0)
(2.76408 -0.370555 0)
(2.76711 -0.36957 0)
(2.76956 -0.369741 0)
(2.7719 -0.370361 0)
(2.77356 -0.371588 0)
(2.77381 -0.373594 0)
(2.77281 -0.37272 0)
(2.77363 -0.370321 0)
(2.77785 -0.368383 0)
(2.78396 -0.366495 0)
(2.79066 -0.363997 0)
(2.79649 -0.361718 0)
(2.80145 -0.360802 0)
(2.80441 -0.359204 0)
(2.80338 -0.360141 0)
(2.80174 -0.363152 0)
(2.80043 -0.365136 0)
(2.79901 -0.364993 0)
(2.80182 -0.363708 0)
(2.8062 -0.363043 0)
(2.8109 -0.362102 0)
(2.81523 -0.358691 0)
(2.81716 -0.3578 0)
(2.81925 -0.350454 0)
(2.81712 -0.341476 0)
(2.81039 -0.316028 0)
(2.79584 -0.269194 0)
(2.76298 -0.176563 0)
(2.74404 -0.0770833 0)
(2.68268 0.0796276 0)
(2.65752 0.131622 0)
(2.66349 0.145932 0)
(2.63753 0.184637 0)
(2.61712 0.240285 0)
(2.60454 0.252869 0)
(2.59874 0.248727 0)
(2.60237 0.24805 0)
(2.60342 0.246271 0)
(2.60371 0.248918 0)
(2.60383 0.251826 0)
(2.60427 0.255912 0)
(2.60423 0.260471 0)
(2.60253 0.265762 0)
(2.46172 -0.403565 0)
(2.46648 -0.407642 0)
(2.47101 -0.411454 0)
(2.47733 -0.414303 0)
(2.48604 -0.416151 0)
(2.49425 -0.417457 0)
(2.50314 -0.418399 0)
(2.51126 -0.418795 0)
(2.51832 -0.416579 0)
(2.52053 -0.410313 0)
(2.51623 -0.401984 0)
(2.51163 -0.398878 0)
(2.51119 -0.400637 0)
(2.5155 -0.403142 0)
(2.52259 -0.404433 0)
(2.529 -0.405267 0)
(2.53568 -0.406188 0)
(2.54431 -0.407156 0)
(2.55355 -0.407874 0)
(2.5609 -0.40851 0)
(2.56892 -0.408979 0)
(2.57511 -0.407 0)
(2.57572 -0.403208 0)
(2.56928 -0.400625 0)
(2.56328 -0.400719 0)
(2.56689 -0.401809 0)
(2.57427 -0.402968 0)
(2.58064 -0.404481 0)
(2.58673 -0.406615 0)
(2.59295 -0.407709 0)
(2.59766 -0.405623 0)
(2.60067 -0.401267 0)
(2.60272 -0.398152 0)
(2.60576 -0.397357 0)
(2.60943 -0.397897 0)
(2.61297 -0.399051 0)
(2.61692 -0.399612 0)
(2.62191 -0.399592 0)
(2.62743 -0.398942 0)
(2.63265 -0.397671 0)
(2.63695 -0.396309 0)
(2.63976 -0.393844 0)
(2.63848 -0.38842 0)
(2.63628 -0.386095 0)
(2.6419 -0.38791 0)
(2.6477 -0.388541 0)
(2.65365 -0.389605 0)
(2.659 -0.390782 0)
(2.6615 -0.390048 0)
(2.66377 -0.38841 0)
(2.66973 -0.387971 0)
(2.67651 -0.387945 0)
(2.6821 -0.387224 0)
(2.6819 -0.384416 0)
(2.67193 -0.381005 0)
(2.66887 -0.382103 0)
(2.67373 -0.383572 0)
(2.6783 -0.383467 0)
(2.68364 -0.382935 0)
(2.68901 -0.38165 0)
(2.69351 -0.380749 0)
(2.69783 -0.380252 0)
(2.703 -0.379922 0)
(2.70955 -0.379788 0)
(2.71646 -0.380244 0)
(2.72181 -0.381151 0)
(2.72037 -0.380247 0)
(2.71067 -0.376578 0)
(2.70812 -0.373614 0)
(2.71171 -0.372828 0)
(2.71659 -0.372737 0)
(2.72245 -0.372245 0)
(2.72772 -0.370853 0)
(2.73162 -0.368501 0)
(2.73539 -0.365761 0)
(2.74035 -0.365096 0)
(2.745 -0.366129 0)
(2.74711 -0.368219 0)
(2.74505 -0.370718 0)
(2.74414 -0.371181 0)
(2.74835 -0.37055 0)
(2.7529 -0.369938 0)
(2.75715 -0.36845 0)
(2.76028 -0.36532 0)
(2.76209 -0.361211 0)
(2.76275 -0.357863 0)
(2.76295 -0.356832 0)
(2.76357 -0.357308 0)
(2.76479 -0.358487 0)
(2.76677 -0.359879 0)
(2.76865 -0.360275 0)
(2.77085 -0.359891 0)
(2.7755 -0.360572 0)
(2.77973 -0.360601 0)
(2.78432 -0.359649 0)
(2.78884 -0.356824 0)
(2.79217 -0.352291 0)
(2.79515 -0.348732 0)
(2.7995 -0.347595 0)
(2.80386 -0.347676 0)
(2.80553 -0.347972 0)
(2.80075 -0.351011 0)
(2.80091 -0.353059 0)
(2.80458 -0.35434 0)
(2.8084 -0.353624 0)
(2.81116 -0.352641 0)
(2.81348 -0.350141 0)
(2.81473 -0.348062 0)
(2.81632 -0.346079 0)
(2.81793 -0.344041 0)
(2.81943 -0.344637 0)
(2.82197 -0.342576 0)
(2.82204 -0.337553 0)
(2.82095 -0.325528 0)
(2.81172 -0.29234 0)
(2.7889 -0.227815 0)
(2.74669 -0.111562 0)
(2.72621 -0.00795249 0)
(2.66465 0.140322 0)
(2.64578 0.174551 0)
(2.656 0.175867 0)
(2.6418 0.211699 0)
(2.62422 0.249485 0)
(2.60972 0.252674 0)
(2.60934 0.253031 0)
(2.6105 0.257165 0)
(2.60955 0.263645 0)
(2.60791 0.267775 0)
(2.60583 0.273177 0)
(2.4641 -0.387103 0)
(2.46855 -0.391462 0)
(2.47211 -0.397311 0)
(2.4799 -0.400546 0)
(2.48724 -0.401489 0)
(2.49492 -0.401551 0)
(2.5041 -0.400935 0)
(2.51272 -0.400844 0)
(2.52186 -0.401307 0)
(2.52887 -0.399721 0)
(2.52631 -0.394352 0)
(2.51274 -0.389254 0)
(2.50941 -0.389493 0)
(2.51649 -0.389991 0)
(2.52325 -0.389708 0)
(2.53022 -0.38953 0)
(2.53722 -0.389453 0)
(2.54487 -0.389385 0)
(2.55324 -0.389979 0)
(2.56053 -0.391132 0)
(2.56811 -0.392389 0)
(2.57606 -0.393439 0)
(2.58065 -0.393246 0)
(2.57489 -0.391753 0)
(2.56667 -0.390386 0)
(2.56906 -0.388998 0)
(2.57452 -0.387975 0)
(2.58045 -0.387599 0)
(2.5871 -0.387781 0)
(2.59375 -0.388037 0)
(2.60026 -0.387744 0)
(2.60558 -0.386521 0)
(2.60623 -0.383808 0)
(2.60264 -0.383045 0)
(2.60286 -0.383458 0)
(2.60759 -0.383305 0)
(2.61366 -0.383002 0)
(2.61975 -0.382957 0)
(2.62556 -0.382573 0)
(2.63099 -0.381201 0)
(2.63583 -0.37955 0)
(2.64014 -0.37874 0)
(2.64323 -0.377672 0)
(2.64357 -0.373798 0)
(2.64119 -0.373567 0)
(2.64205 -0.37648 0)
(2.64747 -0.376845 0)
(2.65452 -0.376106 0)
(2.66176 -0.375984 0)
(2.66812 -0.376339 0)
(2.67438 -0.376182 0)
(2.68043 -0.37548 0)
(2.6857 -0.374911 0)
(2.68717 -0.374027 0)
(2.67868 -0.37078 0)
(2.67019 -0.367743 0)
(2.67289 -0.36778 0)
(2.67702 -0.368072 0)
(2.6823 -0.367982 0)
(2.68853 -0.367615 0)
(2.69492 -0.367624 0)
(2.70175 -0.368017 0)
(2.70824 -0.368672 0)
(2.7139 -0.369411 0)
(2.72022 -0.370242 0)
(2.7258 -0.371831 0)
(2.72478 -0.372241 0)
(2.71507 -0.367986 0)
(2.71232 -0.363091 0)
(2.71662 -0.360816 0)
(2.72079 -0.359442 0)
(2.72392 -0.357583 0)
(2.72823 -0.355174 0)
(2.73365 -0.353735 0)
(2.73803 -0.353245 0)
(2.74273 -0.35366 0)
(2.74721 -0.354592 0)
(2.74925 -0.35697 0)
(2.74761 -0.360253 0)
(2.74557 -0.359306 0)
(2.74827 -0.356911 0)
(2.75277 -0.354831 0)
(2.75778 -0.352586 0)
(2.76247 -0.350407 0)
(2.76661 -0.348653 0)
(2.7694 -0.347056 0)
(2.76963 -0.345739 0)
(2.76697 -0.344748 0)
(2.76547 -0.34599 0)
(2.76679 -0.347794 0)
(2.76935 -0.34804 0)
(2.77265 -0.346436 0)
(2.77553 -0.344783 0)
(2.7788 -0.343607 0)
(2.78419 -0.34274 0)
(2.78986 -0.342382 0)
(2.79499 -0.341678 0)
(2.79948 -0.339474 0)
(2.80146 -0.336385 0)
(2.80006 -0.336761 0)
(2.79804 -0.339195 0)
(2.79862 -0.339324 0)
(2.80196 -0.338357 0)
(2.80529 -0.337166 0)
(2.80885 -0.336227 0)
(2.81244 -0.336803 0)
(2.816 -0.337082 0)
(2.81907 -0.337408 0)
(2.82083 -0.336569 0)
(2.8213 -0.33451 0)
(2.82174 -0.333354 0)
(2.82271 -0.332317 0)
(2.82429 -0.332138 0)
(2.82852 -0.33211 0)
(2.83068 -0.330392 0)
(2.83018 -0.321399 0)
(2.82313 -0.297454 0)
(2.8071 -0.246066 0)
(2.7685 -0.149834 0)
(2.73286 -0.052662 0)
(2.6963 0.0746944 0)
(2.65776 0.207021 0)
(2.65174 0.200415 0)
(2.65214 0.204487 0)
(2.64077 0.229139 0)
(2.63051 0.245853 0)
(2.62363 0.257145 0)
(2.61985 0.265825 0)
(2.61546 0.276015 0)
(2.46142 -0.374139 0)
(2.46425 -0.378646 0)
(2.47269 -0.382001 0)
(2.48013 -0.383588 0)
(2.48851 -0.38497 0)
(2.49823 -0.386257 0)
(2.50915 -0.387026 0)
(2.51641 -0.387028 0)
(2.52512 -0.387513 0)
(2.53389 -0.387367 0)
(2.53605 -0.386257 0)
(2.52215 -0.382455 0)
(2.51249 -0.378187 0)
(2.51703 -0.376113 0)
(2.52372 -0.375258 0)
(2.53155 -0.374882 0)
(2.54002 -0.374767 0)
(2.54937 -0.37476 0)
(2.55808 -0.375132 0)
(2.56529 -0.376366 0)
(2.57213 -0.37782 0)
(2.57897 -0.379383 0)
(2.58327 -0.381435 0)
(2.57778 -0.383342 0)
(2.56979 -0.381981 0)
(2.57207 -0.379136 0)
(2.57772 -0.376953 0)
(2.58345 -0.374983 0)
(2.58862 -0.373198 0)
(2.59386 -0.371879 0)
(2.59996 -0.371034 0)
(2.60604 -0.370588 0)
(2.60966 -0.370672 0)
(2.60868 -0.371902 0)
(2.6078 -0.372808 0)
(2.61191 -0.372717 0)
(2.61795 -0.372487 0)
(2.62415 -0.372352 0)
(2.63017 -0.371837 0)
(2.63604 -0.370463 0)
(2.64124 -0.367823 0)
(2.6453 -0.364091 0)
(2.64646 -0.361319 0)
(2.64196 -0.360504 0)
(2.63719 -0.360873 0)
(2.6422 -0.362146 0)
(2.64785 -0.362883 0)
(2.6529 -0.362281 0)
(2.65754 -0.360408 0)
(2.66392 -0.35997 0)
(2.67223 -0.361413 0)
(2.68041 -0.363426 0)
(2.68783 -0.365018 0)
(2.69141 -0.364122 0)
(2.68405 -0.359803 0)
(2.67322 -0.355353 0)
(2.67465 -0.35446 0)
(2.67855 -0.354654 0)
(2.68276 -0.35461 0)
(2.6876 -0.35391 0)
(2.69339 -0.353286 0)
(2.69948 -0.35313 0)
(2.70584 -0.35402 0)
(2.71229 -0.355413 0)
(2.71866 -0.35728 0)
(2.72344 -0.359176 0)
(2.72419 -0.360498 0)
(2.71972 -0.358101 0)
(2.71474 -0.351915 0)
(2.71509 -0.347133 0)
(2.71962 -0.344959 0)
(2.72493 -0.343536 0)
(2.72931 -0.341312 0)
(2.73293 -0.338937 0)
(2.73671 -0.338773 0)
(2.7391 -0.341026 0)
(2.74005 -0.343671 0)
(2.73907 -0.346473 0)
(2.74324 -0.34844 0)
(2.74897 -0.349302 0)
(2.75343 -0.347756 0)
(2.75791 -0.343686 0)
(2.76202 -0.339778 0)
(2.76547 -0.336503 0)
(2.7675 -0.333819 0)
(2.76803 -0.332225 0)
(2.76784 -0.331768 0)
(2.76799 -0.332419 0)
(2.76646 -0.333814 0)
(2.76665 -0.335813 0)
(2.77187 -0.336181 0)
(2.77635 -0.336096 0)
(2.78129 -0.336073 0)
(2.78611 -0.335024 0)
(2.78988 -0.332355 0)
(2.7925 -0.329189 0)
(2.79488 -0.326992 0)
(2.79706 -0.326077 0)
(2.79738 -0.325825 0)
(2.79432 -0.325661 0)
(2.79553 -0.327229 0)
(2.79964 -0.327408 0)
(2.80388 -0.326919 0)
(2.80872 -0.326473 0)
(2.81367 -0.326089 0)
(2.81823 -0.326007 0)
(2.82051 -0.32501 0)
(2.82081 -0.324512 0)
(2.82211 -0.325209 0)
(2.82453 -0.325183 0)
(2.82584 -0.323821 0)
(2.82591 -0.321923 0)
(2.82687 -0.322996 0)
(2.83055 -0.321793 0)
(2.83447 -0.320772 0)
(2.83777 -0.318082 0)
(2.83954 -0.315899 0)
(2.83768 -0.310309 0)
(2.82995 -0.289865 0)
(2.81697 -0.254267 0)
(2.78849 -0.188016 0)
(2.7497 -0.0808984 0)
(2.73303 0.00228002 0)
(2.67701 0.164401 0)
(2.65481 0.238485 0)
(2.65907 0.213432 0)
(2.65245 0.228067 0)
(2.64216 0.247692 0)
(2.62982 0.264372 0)
(2.46493 -0.362592 0)
(2.46637 -0.363406 0)
(2.47316 -0.364227 0)
(2.47998 -0.365232 0)
(2.48747 -0.365925 0)
(2.49704 -0.366019 0)
(2.50876 -0.367894 0)
(2.51885 -0.371614 0)
(2.52722 -0.375487 0)
(2.53559 -0.378672 0)
(2.54007 -0.380067 0)
(2.53118 -0.375456 0)
(2.51759 -0.366244 0)
(2.52041 -0.362704 0)
(2.52729 -0.361573 0)
(2.53357 -0.360287 0)
(2.54044 -0.358521 0)
(2.54872 -0.356741 0)
(2.5567 -0.356859 0)
(2.56471 -0.358283 0)
(2.57223 -0.360942 0)
(2.57787 -0.365828 0)
(2.5802 -0.370502 0)
(2.57605 -0.372686 0)
(2.572 -0.371452 0)
(2.57568 -0.368413 0)
(2.58188 -0.365697 0)
(2.58798 -0.363218 0)
(2.59346 -0.361161 0)
(2.5984 -0.359378 0)
(2.60285 -0.357692 0)
(2.60632 -0.357277 0)
(2.60733 -0.358587 0)
(2.60595 -0.359601 0)
(2.608 -0.36032 0)
(2.61362 -0.360396 0)
(2.61968 -0.359895 0)
(2.62624 -0.358625 0)
(2.63333 -0.357013 0)
(2.63968 -0.355516 0)
(2.64552 -0.354655 0)
(2.65085 -0.353471 0)
(2.65313 -0.351631 0)
(2.64721 -0.350598 0)
(2.6398 -0.349378 0)
(2.64286 -0.348357 0)
(2.64848 -0.348439 0)
(2.65428 -0.348806 0)
(2.66148 -0.348651 0)
(2.6685 -0.348841 0)
(2.67575 -0.349422 0)
(2.68229 -0.350499 0)
(2.68847 -0.352128 0)
(2.69232 -0.353584 0)
(2.68692 -0.351006 0)
(2.6744 -0.34442 0)
(2.67401 -0.341269 0)
(2.67966 -0.340763 0)
(2.6852 -0.340709 0)
(2.69166 -0.340169 0)
(2.6983 -0.339882 0)
(2.70565 -0.340773 0)
(2.71233 -0.341386 0)
(2.71801 -0.342062 0)
(2.72285 -0.343226 0)
(2.72602 -0.344059 0)
(2.72581 -0.344446 0)
(2.72287 -0.345981 0)
(2.72115 -0.346165 0)
(2.72259 -0.342451 0)
(2.7258 -0.337097 0)
(2.72925 -0.332341 0)
(2.73311 -0.329477 0)
(2.73695 -0.327385 0)
(2.74 -0.32552 0)
(2.7415 -0.324928 0)
(2.73853 -0.329431 0)
(2.73596 -0.332621 0)
(2.74131 -0.332975 0)
(2.74651 -0.332452 0)
(2.75362 -0.330951 0)
(2.76076 -0.328606 0)
(2.76641 -0.327494 0)
(2.77165 -0.326489 0)
(2.77455 -0.325235 0)
(2.77475 -0.323167 0)
(2.773 -0.320276 0)
(2.7676 -0.319497 0)
(2.76194 -0.322307 0)
(2.76347 -0.32303 0)
(2.76758 -0.322468 0)
(2.77267 -0.321644 0)
(2.77861 -0.32051 0)
(2.78523 -0.319709 0)
(2.79172 -0.319066 0)
(2.79685 -0.318835 0)
(2.80146 -0.318405 0)
(2.80429 -0.316812 0)
(2.8028 -0.314613 0)
(2.79541 -0.313829 0)
(2.79167 -0.315417 0)
(2.79551 -0.315834 0)
(2.80007 -0.315662 0)
(2.80511 -0.315184 0)
(2.81002 -0.313966 0)
(2.81408 -0.312504 0)
(2.8178 -0.311685 0)
(2.82126 -0.311285 0)
(2.82389 -0.310459 0)
(2.82598 -0.308901 0)
(2.82589 -0.308164 0)
(2.82379 -0.309249 0)
(2.82343 -0.31032 0)
(2.82638 -0.310762 0)
(2.83062 -0.310596 0)
(2.83535 -0.309308 0)
(2.83919 -0.308812 0)
(2.84211 -0.306805 0)
(2.84112 -0.303741 0)
(2.83675 -0.295283 0)
(2.8337 -0.282905 0)
(2.82675 -0.263057 0)
(2.81131 -0.217601 0)
(2.7754 -0.117455 0)
(2.75092 -0.0248984 0)
(2.72832 0.0665302 0)
(2.66907 0.228705 0)
(2.66116 0.244666 0)
(2.64898 0.251421 0)
(2.46983 -0.352767 0)
(2.46834 -0.348492 0)
(2.47618 -0.347858 0)
(2.48415 -0.348541 0)
(2.49168 -0.349325 0)
(2.50337 -0.350207 0)
(2.51345 -0.351024 0)
(2.52215 -0.353063 0)
(2.53044 -0.356953 0)
(2.53607 -0.361907 0)
(2.53878 -0.36647 0)
(2.53571 -0.367437 0)
(2.52786 -0.360285 0)
(2.5248 -0.349932 0)
(2.53044 -0.34515 0)
(2.53823 -0.344224 0)
(2.545 -0.343251 0)
(2.55242 -0.34216 0)
(2.55967 -0.342949 0)
(2.56847 -0.344646 0)
(2.57619 -0.347187 0)
(2.581 -0.350863 0)
(2.57953 -0.356141 0)
(2.57332 -0.359481 0)
(2.57252 -0.358381 0)
(2.57784 -0.355294 0)
(2.58405 -0.351812 0)
(2.58998 -0.348284 0)
(2.5957 -0.346069 0)
(2.60147 -0.345544 0)
(2.60688 -0.345731 0)
(2.61117 -0.346408 0)
(2.61152 -0.347455 0)
(2.60919 -0.347964 0)
(2.60932 -0.346234 0)
(2.61347 -0.344789 0)
(2.61954 -0.343895 0)
(2.6263 -0.342724 0)
(2.63351 -0.34113 0)
(2.64075 -0.340224 0)
(2.64731 -0.340271 0)
(2.65267 -0.340457 0)
(2.65445 -0.341025 0)
(2.64972 -0.341364 0)
(2.64188 -0.338303 0)
(2.64111 -0.335 0)
(2.64678 -0.333683 0)
(2.65229 -0.333563 0)
(2.65829 -0.334057 0)
(2.66516 -0.334592 0)
(2.67263 -0.335592 0)
(2.67984 -0.337323 0)
(2.68558 -0.339469 0)
(2.68848 -0.34175 0)
(2.68655 -0.34298 0)
(2.67925 -0.338099 0)
(2.6748 -0.330782 0)
(2.67883 -0.327236 0)
(2.68408 -0.324977 0)
(2.68903 -0.323556 0)
(2.6956 -0.323831 0)
(2.7023 -0.324847 0)
(2.70881 -0.325415 0)
(2.7148 -0.325947 0)
(2.71867 -0.327503 0)
(2.72084 -0.329392 0)
(2.72134 -0.331093 0)
(2.72123 -0.332237 0)
(2.72423 -0.332825 0)
(2.72897 -0.331931 0)
(2.73347 -0.328218 0)
(2.73647 -0.321733 0)
(2.73726 -0.315998 0)
(2.7369 -0.313688 0)
(2.736 -0.313569 0)
(2.73277 -0.314872 0)
(2.73618 -0.318478 0)
(2.74249 -0.320277 0)
(2.74692 -0.320336 0)
(2.75153 -0.318801 0)
(2.75556 -0.316472 0)
(2.76063 -0.314718 0)
(2.76652 -0.313376 0)
(2.77216 -0.311814 0)
(2.77654 -0.310247 0)
(2.77778 -0.308992 0)
(2.77375 -0.308201 0)
(2.76446 -0.308785 0)
(2.76219 -0.309442 0)
(2.76687 -0.310053 0)
(2.77153 -0.310205 0)
(2.77644 -0.309994 0)
(2.78129 -0.308691 0)
(2.78594 -0.307239 0)
(2.79111 -0.305471 0)
(2.79592 -0.30478 0)
(2.80058 -0.30502 0)
(2.8049 -0.305239 0)
(2.80678 -0.304483 0)
(2.80201 -0.3033 0)
(2.79601 -0.303559 0)
(2.7982 -0.303673 0)
(2.8025 -0.303448 0)
(2.80745 -0.302977 0)
(2.81246 -0.302057 0)
(2.81691 -0.300911 0)
(2.8212 -0.300417 0)
(2.82556 -0.300225 0)
(2.82943 -0.299701 0)
(2.83201 -0.29883 0)
(2.83253 -0.298262 0)
(2.82966 -0.297957 0)
(2.82755 -0.297781 0)
(2.82985 -0.298529 0)
(2.83381 -0.298498 0)
(2.83773 -0.297788 0)
(2.84127 -0.297302 0)
(2.84446 -0.29642 0)
(2.84588 -0.295002 0)
(2.8423 -0.290594 0)
(2.83857 -0.284065 0)
(2.83934 -0.280731 0)
(2.83946 -0.278224 0)
(2.83646 -0.264885 0)
(2.82681 -0.229093 0)
(2.80072 -0.153905 0)
(2.77011 -0.0562123 0)
(2.74775 0.0374886 0)
(2.69078 0.192432 0)
(2.47822 -0.347103 0)
(2.47495 -0.339583 0)
(2.48059 -0.334983 0)
(2.48808 -0.332556 0)
(2.49466 -0.331584 0)
(2.50166 -0.332733 0)
(2.50918 -0.335147 0)
(2.51709 -0.337903 0)
(2.52438 -0.3408 0)
(2.53022 -0.343442 0)
(2.534 -0.347273 0)
(2.53547 -0.352304 0)
(2.53559 -0.353551 0)
(2.53707 -0.347195 0)
(2.5403 -0.337288 0)
(2.54301 -0.328595 0)
(2.54657 -0.325243 0)
(2.55173 -0.326537 0)
(2.55752 -0.329268 0)
(2.56374 -0.331732 0)
(2.56975 -0.333463 0)
(2.57236 -0.335773 0)
(2.57156 -0.341718 0)
(2.5727 -0.345869 0)
(2.57628 -0.345589 0)
(2.58107 -0.343012 0)
(2.58645 -0.339434 0)
(2.59212 -0.335384 0)
(2.59736 -0.331706 0)
(2.60175 -0.330013 0)
(2.60467 -0.33119 0)
(2.60558 -0.332917 0)
(2.6049 -0.333275 0)
(2.60592 -0.333218 0)
(2.61205 -0.33325 0)
(2.61897 -0.332404 0)
(2.6252 -0.331065 0)
(2.63101 -0.329918 0)
(2.6363 -0.328099 0)
(2.64134 -0.326122 0)
(2.64666 -0.326231 0)
(2.65059 -0.327889 0)
(2.64997 -0.329863 0)
(2.64483 -0.329433 0)
(2.64344 -0.327682 0)
(2.64629 -0.324451 0)
(2.65005 -0.321099 0)
(2.65573 -0.320497 0)
(2.6629 -0.321427 0)
(2.6694 -0.322187 0)
(2.67564 -0.322887 0)
(2.68177 -0.323962 0)
(2.68686 -0.325516 0)
(2.6897 -0.328076 0)
(2.68899 -0.33073 0)
(2.68444 -0.329768 0)
(2.6821 -0.324039 0)
(2.68465 -0.317721 0)
(2.68931 -0.313642 0)
(2.69421 -0.311409 0)
(2.69917 -0.310934 0)
(2.70449 -0.311963 0)
(2.71059 -0.312963 0)
(2.71728 -0.312922 0)
(2.72285 -0.312177 0)
(2.72328 -0.314404 0)
(2.7221 -0.318501 0)
(2.72531 -0.319096 0)
(2.72956 -0.317384 0)
(2.73378 -0.315516 0)
(2.73848 -0.313343 0)
(2.74235 -0.31025 0)
(2.74356 -0.306745 0)
(2.74169 -0.303771 0)
(2.73572 -0.303768 0)
(2.73063 -0.303628 0)
(2.7356 -0.303361 0)
(2.74188 -0.303744 0)
(2.74706 -0.303899 0)
(2.75293 -0.304133 0)
(2.76004 -0.304911 0)
(2.76598 -0.305267 0)
(2.77132 -0.305015 0)
(2.77695 -0.304178 0)
(2.78198 -0.302631 0)
(2.78314 -0.300854 0)
(2.77471 -0.299473 0)
(2.76416 -0.298412 0)
(2.76529 -0.297667 0)
(2.76958 -0.297223 0)
(2.77408 -0.296865 0)
(2.7793 -0.29648 0)
(2.78504 -0.296761 0)
(2.79091 -0.29727 0)
(2.79583 -0.296228 0)
(2.80118 -0.294866 0)
(2.80574 -0.294035 0)
(2.80839 -0.293357 0)
(2.80661 -0.293113 0)
(2.79888 -0.292686 0)
(2.79594 -0.292346 0)
(2.79895 -0.292228 0)
(2.80233 -0.291792 0)
(2.80727 -0.290889 0)
(2.81364 -0.290379 0)
(2.81983 -0.289285 0)
(2.82463 -0.287683 0)
(2.82891 -0.28668 0)
(2.83275 -0.285983 0)
(2.83345 -0.285933 0)
(2.83023 -0.286947 0)
(2.82901 -0.287527 0)
(2.8315 -0.287662 0)
(2.83507 -0.28747 0)
(2.83898 -0.286673 0)
(2.84256 -0.285652 0)
(2.84574 -0.285163 0)
(2.8489 -0.284763 0)
(2.85132 -0.283938 0)
(2.84964 -0.281273 0)
(2.84102 -0.276186 0)
(2.83736 -0.272413 0)
(2.84044 -0.271441 0)
(2.84413 -0.271332 0)
(2.84724 -0.270015 0)
(2.84848 -0.264084 0)
(2.84107 -0.235334 0)
(2.82754 -0.18898 0)
(2.77671 -0.0282362 0)
(2.48375 -0.339444 0)
(2.48386 -0.334239 0)
(2.48814 -0.326138 0)
(2.4932 -0.31934 0)
(2.49928 -0.316467 0)
(2.50677 -0.317004 0)
(2.51396 -0.318699 0)
(2.52079 -0.320756 0)
(2.52628 -0.323367 0)
(2.52806 -0.327639 0)
(2.52718 -0.333195 0)
(2.53119 -0.334803 0)
(2.53854 -0.334322 0)
(2.54512 -0.333164 0)
(2.55078 -0.329593 0)
(2.55436 -0.323292 0)
(2.55565 -0.316145 0)
(2.55701 -0.312078 0)
(2.56071 -0.312385 0)
(2.56475 -0.315353 0)
(2.5673 -0.319235 0)
(2.56622 -0.324464 0)
(2.56814 -0.327657 0)
(2.57596 -0.329081 0)
(2.58221 -0.329641 0)
(2.58812 -0.329368 0)
(2.59279 -0.327153 0)
(2.59689 -0.323856 0)
(2.60149 -0.321197 0)
(2.60628 -0.319618 0)
(2.60938 -0.318746 0)
(2.60832 -0.319593 0)
(2.608 -0.321219 0)
(2.61052 -0.319769 0)
(2.61377 -0.317029 0)
(2.6174 -0.314709 0)
(2.62281 -0.312992 0)
(2.63048 -0.312331 0)
(2.63761 -0.312213 0)
(2.64378 -0.312383 0)
(2.64932 -0.313977 0)
(2.65287 -0.316424 0)
(2.65133 -0.317696 0)
(2.64511 -0.317398 0)
(2.64463 -0.315026 0)
(2.64952 -0.313372 0)
(2.65564 -0.311209 0)
(2.66075 -0.307973 0)
(2.66411 -0.305957 0)
(2.66738 -0.306364 0)
(2.67143 -0.308294 0)
(2.67601 -0.310387 0)
(2.67996 -0.312268 0)
(2.68207 -0.314417 0)
(2.68392 -0.315746 0)
(2.68737 -0.314474 0)
(2.69094 -0.310724 0)
(2.69256 -0.305116 0)
(2.69154 -0.30026 0)
(2.69273 -0.298276 0)
(2.69644 -0.29731 0)
(2.70021 -0.29778 0)
(2.70417 -0.299859 0)
(2.70856 -0.301302 0)
(2.71244 -0.3018 0)
(2.71444 -0.30215 0)
(2.72022 -0.302553 0)
(2.72594 -0.302766 0)
(2.7325 -0.302115 0)
(2.73854 -0.301027 0)
(2.74382 -0.299855 0)
(2.74801 -0.297532 0)
(2.74838 -0.295115 0)
(2.74086 -0.294219 0)
(2.73201 -0.293912 0)
(2.73202 -0.293093 0)
(2.73561 -0.291707 0)
(2.74224 -0.291111 0)
(2.74776 -0.290746 0)
(2.75284 -0.290692 0)
(2.75804 -0.291095 0)
(2.76413 -0.291355 0)
(2.76976 -0.291166 0)
(2.77507 -0.291194 0)
(2.78115 -0.290673 0)
(2.78439 -0.28997 0)
(2.77782 -0.288547 0)
(2.76358 -0.286195 0)
(2.76155 -0.285075 0)
(2.76651 -0.284884 0)
(2.7712 -0.28498 0)
(2.77664 -0.284837 0)
(2.7828 -0.284183 0)
(2.78966 -0.283326 0)
(2.79781 -0.282549 0)
(2.80294 -0.282069 0)
(2.80918 -0.282297 0)
(2.81417 -0.282936 0)
(2.81289 -0.284268 0)
(2.80179 -0.283379 0)
(2.79743 -0.281414 0)
(2.80127 -0.280161 0)
(2.80473 -0.279245 0)
(2.80837 -0.27784 0)
(2.81296 -0.275872 0)
(2.81805 -0.274246 0)
(2.82328 -0.273844 0)
(2.82815 -0.274404 0)
(2.83157 -0.275608 0)
(2.83065 -0.277262 0)
(2.82803 -0.278219 0)
(2.8319 -0.27789 0)
(2.83517 -0.277028 0)
(2.83843 -0.276176 0)
(2.84199 -0.274824 0)
(2.84559 -0.273171 0)
(2.84893 -0.271861 0)
(2.85216 -0.271042 0)
(2.85493 -0.27046 0)
(2.85514 -0.269771 0)
(2.84924 -0.266887 0)
(2.84283 -0.262004 0)
(2.8443 -0.26024 0)
(2.8486 -0.260625 0)
(2.85191 -0.26079 0)
(2.85429 -0.261634 0)
(2.85907 -0.261949 0)
(2.86125 -0.258615 0)
(2.85138 -0.213753 0)
(2.48332 -0.323508 0)
(2.48953 -0.322359 0)
(2.4955 -0.317226 0)
(2.49917 -0.309825 0)
(2.49988 -0.303247 0)
(2.5024 -0.301185 0)
(2.50816 -0.301926 0)
(2.51486 -0.304042 0)
(2.52076 -0.307533 0)
(2.52312 -0.313323 0)
(2.52634 -0.316943 0)
(2.53478 -0.318206 0)
(2.54218 -0.317528 0)
(2.54971 -0.315873 0)
(2.55656 -0.314616 0)
(2.56152 -0.312035 0)
(2.56211 -0.307064 0)
(2.55951 -0.301011 0)
(2.55848 -0.297956 0)
(2.56037 -0.299935 0)
(2.5621 -0.306772 0)
(2.56342 -0.311998 0)
(2.56757 -0.312838 0)
(2.57382 -0.311609 0)
(2.58131 -0.310575 0)
(2.58912 -0.309846 0)
(2.59592 -0.309081 0)
(2.60198 -0.308405 0)
(2.60608 -0.306636 0)
(2.60578 -0.305993 0)
(2.60268 -0.306644 0)
(2.6011 -0.306005 0)
(2.60478 -0.304804 0)
(2.61208 -0.304703 0)
(2.61897 -0.304959 0)
(2.62503 -0.304784 0)
(2.63056 -0.302901 0)
(2.63499 -0.299031 0)
(2.63942 -0.296393 0)
(2.64344 -0.297121 0)
(2.64533 -0.299685 0)
(2.64471 -0.302514 0)
(2.64187 -0.305373 0)
(2.64281 -0.305344 0)
(2.64773 -0.304164 0)
(2.65345 -0.301821 0)
(2.65922 -0.298517 0)
(2.66431 -0.295057 0)
(2.66825 -0.292281 0)
(2.67137 -0.291174 0)
(2.67434 -0.292017 0)
(2.67733 -0.293936 0)
(2.67945 -0.296534 0)
(2.67955 -0.299224 0)
(2.68509 -0.301051 0)
(2.69144 -0.301394 0)
(2.69725 -0.300944 0)
(2.70213 -0.298808 0)
(2.7028 -0.294416 0)
(2.69946 -0.28871 0)
(2.69968 -0.284557 0)
(2.70298 -0.282182 0)
(2.70632 -0.281979 0)
(2.7087 -0.284542 0)
(2.70876 -0.287381 0)
(2.71285 -0.287672 0)
(2.71925 -0.28735 0)
(2.72514 -0.285935 0)
(2.73119 -0.284361 0)
(2.73781 -0.283846 0)
(2.74428 -0.283847 0)
(2.75037 -0.28392 0)
(2.75316 -0.283899 0)
(2.7459 -0.283637 0)
(2.73388 -0.281855 0)
(2.73099 -0.280529 0)
(2.73514 -0.279593 0)
(2.74131 -0.27865 0)
(2.7481 -0.277676 0)
(2.75561 -0.277218 0)
(2.76228 -0.277436 0)
(2.76909 -0.278154 0)
(2.77369 -0.279332 0)
(2.77832 -0.280358 0)
(2.7835 -0.281035 0)
(2.78569 -0.280724 0)
(2.77883 -0.27836 0)
(2.76617 -0.274783 0)
(2.76475 -0.272008 0)
(2.77005 -0.271003 0)
(2.77514 -0.270968 0)
(2.77951 -0.271043 0)
(2.78452 -0.270122 0)
(2.78875 -0.269212 0)
(2.7952 -0.269723 0)
(2.80226 -0.270662 0)
(2.80846 -0.271664 0)
(2.81274 -0.272418 0)
(2.81181 -0.273199 0)
(2.80439 -0.274238 0)
(2.80141 -0.270821 0)
(2.80435 -0.267464 0)
(2.80794 -0.265318 0)
(2.81273 -0.26417 0)
(2.81813 -0.263646 0)
(2.8236 -0.263042 0)
(2.82851 -0.262326 0)
(2.83196 -0.26258 0)
(2.83254 -0.264893 0)
(2.8298 -0.267219 0)
(2.8276 -0.265754 0)
(2.82905 -0.263089 0)
(2.8326 -0.262152 0)
(2.83679 -0.261898 0)
(2.84055 -0.261448 0)
(2.84359 -0.260486 0)
(2.84629 -0.259991 0)
(2.84905 -0.260279 0)
(2.85157 -0.260664 0)
(2.85298 -0.261112 0)
(2.85228 -0.26102 0)
(2.84948 -0.257391 0)
(2.84915 -0.251957 0)
(2.85146 -0.250727 0)
(2.85478 -0.251074 0)
(2.85968 -0.251402 0)
(2.86494 -0.250095 0)
(2.86568 -0.251166 0)
(2.86891 -0.249803 0)
(2.48518 -0.302664 0)
(2.49332 -0.303206 0)
(2.5007 -0.303661 0)
(2.50747 -0.302333 0)
(2.51019 -0.296986 0)
(2.50848 -0.290027 0)
(2.50828 -0.287513 0)
(2.51108 -0.290063 0)
(2.51385 -0.296523 0)
(2.5197 -0.301391 0)
(2.52783 -0.302709 0)
(2.5344 -0.301723 0)
(2.54202 -0.2996 0)
(2.54994 -0.297569 0)
(2.55743 -0.296467 0)
(2.56431 -0.295648 0)
(2.56807 -0.293688 0)
(2.56599 -0.290907 0)
(2.55977 -0.290764 0)
(2.55467 -0.294244 0)
(2.55816 -0.297123 0)
(2.56651 -0.298931 0)
(2.57285 -0.299852 0)
(2.57948 -0.300181 0)
(2.58584 -0.298206 0)
(2.59148 -0.294566 0)
(2.5975 -0.292568 0)
(2.60371 -0.292324 0)
(2.60894 -0.292425 0)
(2.60939 -0.29268 0)
(2.60408 -0.294889 0)
(2.60403 -0.295373 0)
(2.60844 -0.29298 0)
(2.61278 -0.290102 0)
(2.61729 -0.287299 0)
(2.62396 -0.285276 0)
(2.6316 -0.284557 0)
(2.63812 -0.284291 0)
(2.6435 -0.284108 0)
(2.64731 -0.284282 0)
(2.64601 -0.285188 0)
(2.639 -0.290953 0)
(2.64094 -0.293421 0)
(2.64703 -0.292914 0)
(2.65263 -0.291688 0)
(2.65856 -0.290135 0)
(2.6641 -0.288189 0)
(2.6687 -0.285484 0)
(2.67237 -0.281929 0)
(2.675 -0.278714 0)
(2.67783 -0.278402 0)
(2.68094 -0.280423 0)
(2.68409 -0.284282 0)
(2.68602 -0.287814 0)
(2.6877 -0.287653 0)
(2.69242 -0.287197 0)
(2.69851 -0.286995 0)
(2.70484 -0.28674 0)