/*--------------------------------*- C++ -*----------------------------------*\
  =========                 |
  \\      /  F ield         | OpenFOAM: The Open Source CFD Toolbox
   \\    /   O peration     | Website:  https://openfoam.org
    \\  /    A nd           | Version:  7
     \\/     M anipulation  |
\*---------------------------------------------------------------------------*/
FoamFile
{
    version     2.0;
    format      ascii;
    class       volScalarField;
    location    "2.9";
    object      T;
}
// * * * * * * * * * * * * * * * * * * * * * * * * * * * * * * * * * * * * * //

dimensions      [0 0 0 1 0 0 0];

internalField   nonuniform List<scalar> 
4128
(
2.09599
2.08521
2.07525
2.06629
2.05665
2.05651
2.05529
2.07659
2.13127
2.19922
2.25702
2.28437
2.28768
2.29344
2.29063
2.29318
2.29551
2.30046
2.30066
2.29627
2.28934
2.27926
2.27112
2.26552
2.26104
2.26084
2.26386
2.26781
2.26745
2.26348
2.25793
2.25089
2.24537
2.24147
2.23792
2.23583
2.23571
2.23572
2.23437
2.23033
2.22674
2.22441
2.22243
2.21984
2.21663
2.2137
2.21286
2.21254
2.20976
2.20564
2.20129
2.19572
2.18857
2.18143
2.17595
2.17213
2.16974
2.16932
2.16988
2.17013
2.16953
2.16878
2.1683
2.16838
2.16813
2.16604
2.16268
2.15837
2.15345
2.14844
2.14365
2.13972
2.1365
2.13375
2.13264
2.13223
2.13056
2.12772
2.12513
2.12302
2.12175
2.12075
2.11958
2.11803
2.11637
2.11449
2.11212
2.10819
2.10185
2.09425
2.08811
2.08436
2.08213
2.081
2.08201
2.08545
2.08844
2.08966
2.08972
2.08885
2.08694
2.0831
2.07615
2.06574
2.05512
2.04842
2.04551
2.04396
2.04343
2.04412
2.04697
2.05071
2.05437
2.05648
2.05541
2.05123
2.04153
2.02661
2.01695
2.01514
2.01506
2.01591
2.02002
2.02536
2.02933
2.03195
2.03225
2.03196
2.02852
2.08173
2.07159
2.06237
2.05379
2.04618
2.04094
2.03829
2.03098
2.03448
2.05888
2.11627
2.18533
2.22938
2.25639
2.26514
2.2772
2.27724
2.2799
2.2783
2.27317
2.26807
2.25943
2.25302
2.24846
2.2465
2.24863
2.25349
2.25444
2.25007
2.24437
2.23716
2.2293
2.22441
2.221
2.21823
2.21854
2.22167
2.22454
2.22395
2.21997
2.21481
2.20894
2.20439
2.20077
2.19723
2.19444
2.19418
2.1946
2.19302
2.18943
2.186
2.18198
2.17651
2.16995
2.16361
2.15833
2.15446
2.15195
2.15096
2.15067
2.15045
2.15051
2.15142
2.15302
2.15302
2.15058
2.14729
2.14265
2.13621
2.12961
2.12471
2.12135
2.11866
2.11639
2.11594
2.11645
2.11631
2.11457
2.1124
2.1105
2.10867
2.1066
2.1043
2.10188
2.09947
2.09716
2.0947
2.09167
2.08758
2.08206
2.07555
2.0696
2.06536
2.0628
2.06169
2.06296
2.06631
2.06959
2.0715
2.0722
2.07171
2.07014
2.06677
2.06007
2.04933
2.03718
2.02858
2.02487
2.02347
2.02422
2.02846
2.03554
2.04236
2.04562
2.04507
2.04184
2.03533
2.02234
2.00565
1.99665
1.99513
1.99522
1.99949
2.0077
2.01361
2.01537
2.0148
2.01405
2.01052
2.06732
2.05788
2.0489
2.04098
2.03472
2.0311
2.02438
2.01732
2.01262
2.00336
2.00985
2.04712
2.11127
2.17663
2.21989
2.24423
2.2514
2.2546
2.25447
2.25055
2.24804
2.24141
2.2366
2.23392
2.23458
2.23792
2.23945
2.23668
2.23013
2.22354
2.2163
2.21012
2.20649
2.20366
2.20312
2.20607
2.2117
2.21363
2.21119
2.20645
2.19967
2.19147
2.18566
2.1818
2.17849
2.17672
2.17729
2.17763
2.17578
2.17257
2.16975
2.16652
2.16226
2.15717
2.15153
2.14576
2.14078
2.13729
2.13525
2.13437
2.13393
2.1339
2.13435
2.13519
2.13473
2.13198
2.12893
2.12487
2.11877
2.11195
2.10722
2.10434
2.10222
2.10099
2.1013
2.10208
2.10176
2.09988
2.09778
2.09539
2.09264
2.08973
2.0867
2.0836
2.08052
2.07763
2.07507
2.07275
2.07032
2.06722
2.06304
2.05801
2.05301
2.04888
2.04615
2.04479
2.04512
2.04738
2.05013
2.0515
2.05168
2.0507
2.04888
2.04588
2.0407
2.03269
2.02238
2.01381
2.01011
2.00965
2.01292
2.02004
2.0268
2.02947
2.0289
2.02583
2.02139
2.01374
2.00268
1.99054
1.98315
1.9813
1.98255
1.98863
1.9939
1.9944
1.99349
1.99192
1.9872
2.05279
2.04409
2.03597
2.0288
2.02373
2.02105
2.01411
2.00578
1.99863
1.99161
1.98821
1.98392
1.99952
2.04668
2.11392
2.17285
2.21142
2.21903
2.22718
2.22824
2.22998
2.22677
2.22218
2.22176
2.22313
2.22496
2.22193
2.21615
2.20912
2.2021
2.19615
2.19244
2.1902
2.18956
2.19191
2.19734
2.20014
2.1983
2.19406
2.1886
2.18078
2.17279
2.16758
2.16399
2.16149
2.16143
2.16189
2.16094
2.15756
2.15443
2.15144
2.14818
2.14476
2.14133
2.13753
2.13317
2.12867
2.12495
2.12261
2.12132
2.12017
2.11875
2.11703
2.11556
2.11429
2.11183
2.10879
2.10536
2.10083
2.09541
2.09106
2.08855
2.08697
2.08635
2.08686
2.08702
2.08532
2.08304
2.08048
2.07754
2.07455
2.07166
2.06866
2.06544
2.06207
2.05887
2.05626
2.0543
2.05274
2.0512
2.04926
2.04653
2.04293
2.03864
2.03406
2.03023
2.02781
2.02645
2.02645
2.02749
2.02829
2.0281
2.02685
2.02535
2.02357
2.02058
2.01578
2.00936
2.00296
1.99972
1.9996
2.00135
2.00247
2.00347
2.00497
2.00488
2.00154
1.99733
1.99206
1.98568
1.97825
1.97202
1.96972
1.96944
1.97016
1.97084
1.96988
1.96755
1.96261
2.03991
2.03145
2.02358
2.01655
2.01106
2.00862
2.00497
1.99718
1.98951
1.98218
1.97561
1.97121
1.96427
1.96778
1.98936
2.03564
2.10134
2.1482
2.18425
2.19432
2.20445
2.21021
2.2083
2.20854
2.20894
2.2082
2.20376
2.19815
2.19082
2.18341
2.17874
2.17685
2.17638
2.17794
2.18225
2.18446
2.18172
2.17682
2.17192
2.16597
2.1593
2.15376
2.14996
2.14731
2.14718
2.14793
2.14647
2.14229
2.13793
2.13362
2.12976
2.12693
2.12466
2.12276
2.12174
2.12053
2.11854
2.11531
2.11167
2.10809
2.10466
2.10142
2.09828
2.0955
2.09344
2.09196
2.0891
2.08607
2.08295
2.0794
2.07568
2.073
2.07152
2.07072
2.07044
2.06908
2.06707
2.0648
2.06187
2.05858
2.05587
2.05356
2.05117
2.04853
2.04563
2.0427
2.03998
2.03767
2.03595
2.03465
2.03332
2.03165
2.02948
2.02677
2.02335
2.0191
2.01456
2.01073
2.0081
2.00641
2.00536
2.0045
2.00408
2.00414
2.00452
2.00429
2.00365
2.00225
1.99904
1.99283
1.98533
1.98119
1.97999
1.97908
1.97762
1.97743
1.97813
1.9782
1.97738
1.9756
1.97289
1.96791
1.95976
1.95196
1.94908
1.94793
1.94652
1.94437
1.94099
2.02879
2.01945
2.01113
2.00361
1.99808
1.99689
1.996
1.98995
1.98259
1.97487
1.96598
1.95878
1.95149
1.94592
1.94415
1.94893
1.97215
2.02086
2.08085
2.12937
2.15856
2.17765
2.18163
2.18804
2.18876
2.18929
2.18653
2.18163
2.17531
2.1686
2.16375
2.16247
2.16281
2.16481
2.16687
2.16503
2.15889
2.15312
2.14751
2.14185
2.13746
2.13406
2.13196
2.13232
2.13375
2.13304
2.12854
2.12259
2.11605
2.11065
2.1072
2.10472
2.10345
2.1043
2.1069
2.10882
2.10871
2.10544
2.09981
2.0928
2.08637
2.08188
2.07851
2.07555
2.07326
2.07241
2.07121
2.06841
2.06582
2.0632
2.06001
2.05665
2.05434
2.0527
2.05137
2.04953
2.04761
2.04546
2.04254
2.03939
2.03729
2.03561
2.03404
2.03263
2.03107
2.02872
2.026
2.02309
2.02011
2.01751
2.01543
2.01362
2.01211
2.01071
2.00911
2.00687
2.00367
1.99955
1.99471
1.9903
1.98749
1.98559
1.98502
1.98536
1.98671
1.98859
1.98981
1.98959
1.98807
1.98462
1.97702
1.96559
1.95732
1.95444
1.95306
1.9525
1.95407
1.9581
1.96162
1.9632
1.96251
1.95965
1.95367
1.94296
1.93222
1.92665
1.9242
1.92337
1.9229
2.01774
2.00771
1.99942
1.9924
1.98794
1.9879
1.98735
1.98118
1.9737
1.96574
1.95611
1.94712
1.93972
1.93359
1.93132
1.93348
1.92985
1.93456
1.95504
2.00282
2.05636
2.10687
2.13481
2.15321
2.15827
2.16436
2.1658
2.16365
2.16061
2.15474
2.14886
2.14635
2.1458
2.14615
2.14594
2.14223
2.13616
2.13027
2.12445
2.11986
2.11652
2.11442
2.11498
2.11744
2.11813
2.11495
2.10975
2.10257
2.09428
2.08869
2.08567
2.08362
2.08399
2.08793
2.09353
2.09579
2.09471
2.09115
2.08462
2.07498
2.06673
2.06165
2.05812
2.05523
2.05355
2.0537
2.05353
2.05147
2.04883
2.04635
2.04333
2.03995
2.03712
2.03492
2.03288
2.03051
2.02829
2.02591
2.02288
2.02022
2.0188
2.01761
2.01675
2.01679
2.01673
2.01519
2.01241
2.00911
2.00468
1.9994
1.99551
1.99339
1.9919
1.99103
1.99134
1.99185
1.9908
1.98861
1.98473
1.9788
1.97315
1.97019
1.96843
1.96809
1.96919
1.97174
1.97387
1.9739
1.97251
1.97064
1.96661
1.95746
1.94359
1.93396
1.93151
1.93109
1.93262
1.93872
1.94585
1.9491
1.94909
1.94715
1.94341
1.93518
1.92189
1.9111
1.90735
1.90635
1.90704
2.00573
1.99739
1.99016
1.98402
1.98119
1.98062
1.97737
1.96961
1.96189
1.95319
1.94417
1.93633
1.92924
1.92388
1.92325
1.92287
1.91848
1.91115
1.90165
1.90543
1.92446
1.97082
2.02822
2.07856
2.10973
2.12495
2.13677
2.13858
2.14019
2.13695
2.13314
2.1297
2.12632
2.12445
2.1226
2.11878
2.11417
2.10895
2.10374
2.10042
2.09779
2.09699
2.0986
2.101
2.09933
2.09539
2.09059
2.08376
2.0759
2.07034
2.0673
2.06607
2.06811
2.0746
2.07932
2.07895
2.07613
2.07222
2.06543
2.05612
2.04853
2.04335
2.03927
2.03643
2.0356
2.03578
2.03543
2.03331
2.03084
2.02855
2.02587
2.02308
2.0208
2.01913
2.01729
2.01453
2.01172
2.00842
2.00441
2.0017
2.00056
1.99972
1.99941
2.00017
2.00081
1.99963
1.99703
1.99401
1.98941
1.98292
1.97755
1.97457
1.97266
1.97166
1.97268
1.97543
1.97646
1.97572
1.97402
1.97029
1.96347
1.95653
1.95301
1.95104
1.94999
1.95085
1.95376
1.95469
1.9538
1.95249
1.95048
1.94589
1.93724
1.92597
1.91843
1.91615
1.91608
1.92041
1.92747
1.93134
1.93168
1.93031
1.92728
1.92172
1.91262
1.90211
1.89573
1.89402
1.89511
1.99368
1.98717
1.98185
1.97776
1.97616
1.97291
1.96486
1.95652
1.94789
1.93915
1.93189
1.92509
1.91916
1.91689
1.91615
1.91169
1.90331
1.89518
1.8879
1.88163
1.8723
1.87503
1.89515
1.94122
2.00364
2.04947
2.08801
2.09999
2.10883
2.1109
2.11222
2.10952
2.10773
2.10434
2.10153
2.09768
2.09396
2.08904
2.08434
2.08184
2.08091
2.08086
2.08177
2.08199
2.07879
2.07499
2.07097
2.06607
2.06104
2.05679
2.05403
2.05356
2.05511
2.05768
2.05786
2.0554
2.05218
2.04801
2.04231
2.0362
2.03146
2.02784
2.02464
2.02223
2.02096
2.01927
2.0168
2.01441
2.01209
2.00994
2.00785
2.00577
2.00471
2.00487
2.00465
2.00217
1.999
1.99488
1.98937
1.98511
1.98332
1.98227
1.98166
1.98202
1.98252
1.98126
1.97909
1.97662
1.97287
1.96765
1.96306
1.95977
1.95734
1.9562
1.95712
1.95955
1.96081
1.96062
1.95996
1.95843
1.95383
1.94564
1.93851
1.9346
1.9323
1.93111
1.93169
1.93283
1.93301
1.93206
1.93047
1.92805
1.92438
1.91936
1.91335
1.90831
1.90612
1.90613
1.90773
1.90906
1.91005
1.90996
1.90826
1.90545
1.90152
1.89613
1.89004
1.88636
1.88563
1.98071
1.97494
1.97255
1.97234
1.97085
1.96335
1.95393
1.9435
1.9334
1.92567
1.91899
1.91279
1.90945
1.90874
1.90673
1.89831
1.88909
1.87996
1.87193
1.86552
1.8591
1.85528
1.84958
1.85328
1.87561
1.91663
1.97157
2.01833
2.05282
2.07258
2.081
2.08235
2.08756
2.08661
2.08538
2.08151
2.07776
2.07235
2.06744
2.06506
2.06411
2.06357
2.06257
2.0612
2.05818
2.05455
2.05108
2.04816
2.04617
2.04428
2.04329
2.04337
2.0415
2.03734
2.03326
2.0298
2.02649
2.02234
2.01815
2.01543
2.0133
2.01223
2.01273
2.01289
2.00993
2.00491
1.99958
1.99585
1.99341
1.99143
1.98966
1.98894
1.9897
1.99155
1.99205
1.99018
1.98713
1.98307
1.97694
1.97115
1.96788
1.96587
1.96436
1.96339
1.96268
1.96095
1.95917
1.95726
1.95457
1.95131
1.94896
1.94694
1.9452
1.94491
1.94581
1.94607
1.94499
1.94414
1.94351
1.94228
1.93859
1.93198
1.92567
1.92145
1.91829
1.91579
1.91416
1.91334
1.91168
1.90979
1.90856
1.90796
1.90746
1.90679
1.90565
1.90334
1.89931
1.89429
1.89079
1.88964
1.88897
1.88834
1.88811
1.88819
1.88792
1.88672
1.88524
1.88218
1.87682
1.96706
1.9627
1.963
1.96477
1.96176
1.95329
1.94358
1.9311
1.91998
1.91236
1.90567
1.90025
1.89901
1.8989
1.89462
1.88482
1.87568
1.86602
1.85797
1.85142
1.84509
1.83984
1.83828
1.83677
1.82913
1.82896
1.8437
1.88041
1.92995
1.98129
2.01899
2.04064
2.05472
2.05962
2.06616
2.06576
2.06336
2.0595
2.05358
2.05034
2.04834
2.04625
2.04365
2.04089
2.03815
2.03494
2.03263
2.0312
2.0304
2.03018
2.03087
2.03034
2.02687
2.02176
2.01477
2.00728
2.00197
1.99851
1.99607
1.9947
1.99493
1.99745
2.00158
2.00199
1.99913
1.99409
1.98633
1.97932
1.97593
1.97408
1.97281
1.97323
1.97612
1.97903
1.97924
1.97699
1.97391
1.96971
1.96338
1.95769
1.95435
1.95171
1.94954
1.94743
1.94482
1.94207
1.93947
1.93737
1.93578
1.93443
1.93344
1.9334
1.93392
1.9351
1.93498
1.93251
1.92962
1.92661
1.92388
1.9213
1.91793
1.91394
1.9108
1.90885
1.9071
1.9049
1.90181
1.89787
1.89409
1.89165
1.89032
1.88989
1.8907
1.89304
1.89475
1.89415
1.89203
1.88741
1.87971
1.87279
1.86962
1.86836
1.86783
1.8686
1.87201
1.87538
1.87625
1.87498
1.86949
1.95485
1.95172
1.95279
1.95425
1.94916
1.9405
1.93113
1.91899
1.90766
1.89957
1.89293
1.88868
1.88831
1.88779
1.88137
1.8719
1.86299
1.85362
1.84525
1.83854
1.83246
1.8281
1.82611
1.82232
1.81546
1.81052
1.80282
1.80085
1.81106
1.84329
1.89243
1.94609
1.98924
2.01583
2.03221
2.03689
2.0386
2.04069
2.03836
2.03642
2.0335
2.03058
2.02785
2.02412
2.02031
2.01639
2.01379
2.01262
2.01227
2.01241
2.01346
2.01311
2.0103
2.00662
2.00086
1.99225
1.98394
1.9797
1.97774
1.97706
1.97843
1.98353
1.98774
1.98741
1.98512
1.98181
1.97572
1.96741
1.96145
1.95889
1.95793
1.95908
1.96249
1.96395
1.96289
1.96042
1.95726
1.95257
1.94659
1.94205
1.93966
1.93802
1.9368
1.93488
1.93184
1.92801
1.92354
1.92002
1.91852
1.91779
1.91769
1.91897
1.92159
1.92288
1.92134
1.91849
1.91538
1.91104
1.90516
1.89945
1.89622
1.89497
1.89444
1.89445
1.89469
1.89375
1.89159
1.88786
1.88282
1.87865
1.87665
1.87593
1.87682
1.87983
1.88216
1.88201
1.88075
1.87845
1.87275
1.86241
1.85371
1.85086
1.8502
1.85112
1.85662
1.86261
1.86386
1.86314
1.85914
1.9445
1.9418
1.94201
1.94105
1.93388
1.92542
1.91646
1.9059
1.8959
1.88804
1.88175
1.8787
1.87792
1.87537
1.86764
1.8591
1.85041
1.84159
1.83374
1.82697
1.82131
1.81774
1.81515
1.80907
1.80182
1.79525
1.78949
1.78483
1.77902
1.77775
1.78509
1.816
1.86528
1.91738
1.95987
1.98896
2.00079
2.0102
2.01144
2.01525
2.01636
2.01581
2.01417
2.01072
2.00585
1.99992
1.9953
1.99259
1.99085
1.99069
1.99149
1.993
1.99222
1.98969
1.98638
1.98126
1.97392
1.96692
1.96305
1.96185
1.96304
1.96681
1.96965
1.9698
1.96812
1.96593
1.96271
1.95727
1.95072
1.94641
1.94461
1.94482
1.94603
1.94539
1.94359
1.94123
1.93772
1.93273
1.92768
1.92469
1.92312
1.92248
1.9231
1.92275
1.92053
1.9174
1.91297
1.90771
1.90405
1.9026
1.90208
1.9028
1.90477
1.90546
1.90497
1.90297
1.90049
1.89719
1.89148
1.88355
1.87893
1.87807
1.87789
1.87898
1.88109
1.88099
1.88012
1.87845
1.87521
1.87063
1.86684
1.86498
1.86448
1.86555
1.86749
1.86785
1.86696
1.86562
1.8623
1.85507
1.84606
1.84013
1.8381
1.83785
1.84105
1.84666
1.84865
1.84822
1.84546
1.93574
1.9331
1.93045
1.92414
1.91569
1.90776
1.89968
1.89182
1.88432
1.87777
1.87275
1.87034
1.86792
1.86128
1.85372
1.84584
1.83746
1.82974
1.82304
1.81739
1.81252
1.80919
1.8038
1.79645
1.78922
1.78177
1.7755
1.7704
1.76561
1.76378
1.7638
1.75984
1.76605
1.78729
1.82473
1.87538
1.91609
1.95248
1.97125
1.98225
1.98933
1.99491
1.99736
1.99583
1.99195
1.98502
1.97815
1.97443
1.97136
1.96929
1.96976
1.97186
1.97329
1.97279
1.97089
1.96836
1.96435
1.95831
1.95208
1.94821
1.94707
1.94739
1.94855
1.94922
1.94905
1.94815
1.94662
1.94423
1.94051
1.93687
1.93356
1.93031
1.92734
1.92523
1.92354
1.92122
1.91771
1.91333
1.90997
1.908
1.9069
1.90741
1.9093
1.90967
1.9083
1.90619
1.90328
1.89894
1.89391
1.88993
1.88758
1.88625
1.88517
1.88484
1.88571
1.88567
1.88372
1.88108
1.87783
1.87338
1.86825
1.86491
1.86389
1.86395
1.86562
1.86651
1.86633
1.86607
1.86531
1.8634
1.86019
1.85636
1.85352
1.85204
1.85173
1.85194
1.85105
1.849
1.84606
1.84197
1.83782
1.83383
1.83053
1.82901
1.82908
1.8304
1.83186
1.83233
1.83
1.92873
1.9257
1.91747
1.90758
1.89767
1.88956
1.88313
1.87751
1.8723
1.86861
1.86625
1.8623
1.85511
1.84754
1.83938
1.83153
1.82446
1.81775
1.81215
1.80949
1.80721
1.80116
1.79316
1.78439
1.77557
1.76828
1.76229
1.75703
1.75336
1.75283
1.75197
1.74838
1.74058
1.73262
1.73467
1.74747
1.77882
1.82576
1.8777
1.91666
1.94829
1.96077
1.972
1.97257
1.97214
1.9687
1.9621
1.95779
1.95445
1.95212
1.95183
1.95252
1.95409
1.95466
1.95439
1.95356
1.95183
1.9489
1.94439
1.93888
1.93378
1.92987
1.92771
1.92702
1.92753
1.92842
1.92854
1.92855
1.92804
1.9263
1.92316
1.91833
1.91211
1.9065
1.90329
1.90105
1.89831
1.89593
1.89415
1.89317
1.89356
1.8957
1.89749
1.89689
1.89565
1.89408
1.89178
1.88821
1.88404
1.88035
1.87663
1.87264
1.8694
1.8678
1.86693
1.86634
1.86563
1.86444
1.86327
1.86208
1.86005
1.85676
1.85352
1.85156
1.85085
1.8508
1.85113
1.85175
1.85222
1.85222
1.8516
1.84961
1.84568
1.84051
1.8365
1.83386
1.83105
1.82829
1.82659
1.82605
1.82559
1.82533
1.8248
1.82301
1.81998
1.81729
1.81634
1.81494
1.81239
1.92218
1.91516
1.90496
1.894
1.88274
1.87431
1.86794
1.86303
1.86178
1.86149
1.85878
1.8508
1.84256
1.83369
1.82497
1.81806
1.81169
1.80607
1.80393
1.80344
1.80029
1.79252
1.78391
1.77321
1.76274
1.75539
1.7496
1.74514
1.74374
1.74418
1.74172
1.73543
1.72898
1.72159
1.71376
1.70745
1.7077
1.71562
1.7442
1.78871
1.84454
1.88603
1.92172
1.93767
1.94279
1.94747
1.94381
1.94186
1.93924
1.9368
1.93633
1.9355
1.93568
1.93615
1.93562
1.93493
1.93483
1.93476
1.93336
1.93068
1.92585
1.91858
1.91152
1.90822
1.90696
1.90654
1.90757
1.90981
1.9117
1.91218
1.91035
1.90683
1.90167
1.89385
1.886
1.88208
1.88051
1.87931
1.87895
1.87989
1.88341
1.8868
1.88649
1.88512
1.88325
1.88068
1.87764
1.87422
1.87114
1.86868
1.86609
1.86291
1.85907
1.85491
1.8515
1.8498
1.8487
1.84797
1.84805
1.8483
1.84844
1.84774
1.84621
1.84333
1.83951
1.83697
1.83663
1.83676
1.83733
1.83862
1.83905
1.83866
1.83701
1.83262
1.82503
1.81777
1.81351
1.81112
1.81022
1.81018
1.8123
1.81579
1.81714
1.81623
1.81343
1.80741
1.80086
1.79755
1.79622
1.91086
1.90154
1.89189
1.88103
1.87037
1.86207
1.8557
1.8522
1.85255
1.85225
1.84595
1.83736
1.82884
1.81971
1.81209
1.80608
1.80036
1.79703
1.79697
1.79612
1.78958
1.78165
1.77343
1.76317
1.75283
1.7454
1.7397
1.73574
1.73516
1.73437
1.72919
1.72319
1.71699
1.70952
1.7021
1.69702
1.6934
1.68873
1.68868
1.69568
1.7164
1.75321
1.79804
1.84512
1.8789
1.90768
1.91467
1.92167
1.9237
1.92215
1.9216
1.9191
1.91692
1.91611
1.91585
1.91529
1.91538
1.91643
1.91811
1.91845
1.91649
1.91194
1.90424
1.89472
1.8888
1.88719
1.88656
1.88727
1.89163
1.89496
1.89497
1.89327
1.89044
1.88554
1.87719
1.86908
1.86585
1.86492
1.86506
1.86801
1.87369
1.87573
1.87478
1.87348
1.87145
1.86727
1.86155
1.85813
1.85656
1.85514
1.85376
1.85228
1.85025
1.84703
1.84204
1.83628
1.83252
1.83112
1.83041
1.83086
1.83387
1.83622
1.83631
1.83511
1.83253
1.82813
1.82409
1.82324
1.82338
1.82405
1.82546
1.82563
1.82518
1.82304
1.81725
1.80768
1.80044
1.7984
1.79766
1.79814
1.80205
1.80685
1.80784
1.80683
1.80452
1.79835
1.78738
1.78176
1.78109
1.89578
1.88746
1.87868
1.86889
1.85986
1.8521
1.84597
1.84348
1.84285
1.83876
1.83085
1.82297
1.81459
1.80669
1.80058
1.79523
1.79065
1.78905
1.78818
1.78395
1.77612
1.76885
1.76121
1.75296
1.74477
1.73786
1.73247
1.72885
1.72672
1.72212
1.71668
1.71136
1.70555
1.69892
1.69264
1.68758
1.68294
1.67889
1.6754
1.6719
1.66898
1.67148
1.68162
1.70829
1.74876
1.79937
1.84405
1.87512
1.89321
1.89984
1.90529
1.90301
1.89965
1.89725
1.89405
1.89273
1.89408
1.89819
1.90126
1.90251
1.90216
1.90028
1.89666
1.88889
1.87787
1.87072
1.86886
1.86879
1.87054
1.87465
1.87813
1.87831
1.87715
1.87499
1.87117
1.86443
1.85707
1.8539
1.85354
1.8556
1.85941
1.86139
1.86148
1.86045
1.85893
1.85514
1.84817
1.84359
1.84238
1.84159
1.84154
1.84194
1.84104
1.83882
1.8351
1.82829
1.82018
1.81608
1.81508
1.81486
1.81638
1.82101
1.82426
1.82467
1.8237
1.82136
1.8167
1.81136
1.80989
1.81006
1.81077
1.81118
1.8111
1.81006
1.80685
1.80102
1.79401
1.7895
1.78816
1.78877
1.79272
1.79617
1.79601
1.79469
1.7927
1.78845
1.77936
1.76993
1.7669
1.88153
1.87389
1.86582
1.85785
1.84988
1.84259
1.83735
1.83536
1.83201
1.82472
1.81701
1.80886
1.80088
1.79469
1.78946
1.78489
1.78185
1.78016
1.77655
1.76937
1.76212
1.75493
1.74802
1.74206
1.73629
1.73085
1.72649
1.72274
1.71719
1.71141
1.70569
1.70023
1.69502
1.68991
1.68525
1.68096
1.67621
1.67067
1.6646
1.65861
1.65479
1.65127
1.64732
1.64806
1.65523
1.67552
1.71443
1.76089
1.8099
1.84457
1.86997
1.87873
1.88321
1.88104
1.87562
1.87535
1.87538
1.87664
1.88161
1.88614
1.8859
1.88437
1.88245
1.87923
1.87309
1.86434
1.85759
1.85468
1.85424
1.85623
1.8586
1.86173
1.86317
1.86258
1.86106
1.85845
1.85348
1.8472
1.84332
1.84182
1.84182
1.84375
1.84545
1.84474
1.84344
1.84138
1.83726
1.83195
1.82954
1.82893
1.8289
1.82944
1.82906
1.82741
1.8251
1.82123
1.81466
1.80704
1.80299
1.80197
1.80256
1.80658
1.81161
1.81369
1.8137
1.81239
1.80988
1.80448
1.79742
1.79434
1.79404
1.79408
1.79439
1.79432
1.79327
1.79095
1.78756
1.78356
1.78082
1.78029
1.7808
1.78067
1.77972
1.77889
1.77757
1.77488
1.76999
1.76312
1.75643
1.86814
1.86047
1.8535
1.84624
1.83874
1.83282
1.83016
1.82758
1.82083
1.81332
1.80512
1.79604
1.78881
1.78319
1.77827
1.77465
1.77329
1.76985
1.76299
1.75598
1.74856
1.74129
1.73562
1.73076
1.72676
1.72391
1.72005
1.71447
1.70849
1.70192
1.69535
1.69009
1.68568
1.68186
1.67873
1.67507
1.67005
1.66403
1.65649
1.64841
1.64269
1.63889
1.63559
1.63304
1.63243
1.63316
1.63727
1.64908
1.67747
1.71765
1.76459
1.80339
1.83189
1.85029
1.85571
1.86009
1.8587
1.85889
1.85948
1.862
1.86788
1.86863
1.86621
1.86414
1.86164
1.85864
1.85441
1.8485
1.8437
1.8421
1.84245
1.84317
1.84415
1.84698
1.84831
1.8475
1.84604
1.8427
1.83686
1.83092
1.82801
1.82717
1.82753
1.82796
1.82728
1.82637
1.82484
1.82171
1.81811
1.81653
1.81593
1.81531
1.81467
1.81386
1.81241
1.81057
1.80762
1.80281
1.79721
1.79397
1.79348
1.7952
1.7987
1.80204
1.80291
1.8019
1.79974
1.79592
1.78942
1.78189
1.77829
1.77769
1.77754
1.77762
1.77814
1.77874
1.77867
1.77773
1.77531
1.77137
1.76757
1.76573
1.76465
1.76317
1.76125
1.75919
1.75686
1.75421
1.74936
1.85472
1.8467
1.8398
1.83282
1.82649
1.82384
1.82269
1.81806
1.81036
1.803
1.79456
1.7857
1.77858
1.77285
1.76819
1.76556
1.7636
1.75813
1.75135
1.74374
1.73592
1.72946
1.72412
1.7197
1.71779
1.71624
1.71112
1.70518
1.69884
1.69166
1.68544
1.68083
1.67692
1.6741
1.67195
1.66795
1.66326
1.65786
1.65073
1.64203
1.6346
1.62964
1.62611
1.6229
1.62127
1.62084
1.61908
1.61614
1.61645
1.62158
1.63805
1.6711
1.7122
1.75921
1.79279
1.82184
1.83457
1.83915
1.8397
1.84002
1.84252
1.84633
1.84994
1.84974
1.84862
1.84766
1.84628
1.84409
1.84022
1.83401
1.82939
1.82838
1.82818
1.82765
1.82837
1.83133
1.8322
1.83135
1.82931
1.82533
1.81931
1.81486
1.81319
1.81245
1.81227
1.81171
1.81106
1.80985
1.80754
1.80482
1.80306
1.80214
1.80133
1.80039
1.79955
1.79914
1.79818
1.7964
1.79387
1.79004
1.78645
1.78513
1.78496
1.78447
1.78494
1.786
1.78537
1.78345
1.78038
1.77504
1.76793
1.76321
1.76238
1.7627
1.76368
1.76629
1.7686
1.76877
1.76731
1.76415
1.75874
1.75338
1.75029
1.74824
1.74622
1.74486
1.74409
1.74361
1.74227
1.84018
1.8326
1.82601
1.81991
1.8164
1.81576
1.81398
1.80712
1.79948
1.79166
1.78371
1.77641
1.76994
1.76446
1.76014
1.75732
1.75257
1.74672
1.74005
1.7323
1.72498
1.71917
1.71411
1.71067
1.70958
1.70651
1.7007
1.69468
1.68784
1.68105
1.67605
1.67175
1.66816
1.66625
1.66392
1.65982
1.65552
1.65064
1.64454
1.63698
1.6297
1.62375
1.61922
1.61555
1.61247
1.61058
1.60726
1.6041
1.60114
1.59869
1.5972
1.5991
1.60731
1.63207
1.67127
1.71754
1.75658
1.78868
1.81096
1.81472
1.81845
1.81966
1.82451
1.83082
1.83614
1.83792
1.83753
1.83598
1.83378
1.83014
1.82414
1.81675
1.81243
1.81114
1.81027
1.81064
1.8142
1.817
1.81716
1.81643
1.81391
1.80842
1.80247
1.79996
1.79881
1.79785
1.79708
1.79639
1.7954
1.7935
1.79124
1.78994
1.78935
1.78875
1.78854
1.78863
1.78901
1.78927
1.78828
1.78592
1.78212
1.77606
1.77088
1.76947
1.769
1.76854
1.76865
1.76861
1.76744
1.76549
1.76189
1.75614
1.75185
1.75122
1.75177
1.75458
1.75728
1.75752
1.75694
1.75534
1.75169
1.74537
1.73906
1.73594
1.73479
1.73429
1.73461
1.73535
1.73482
1.82587
1.81954
1.81404
1.80991
1.80917
1.80813
1.80297
1.79462
1.7867
1.77887
1.77239
1.76651
1.76135
1.75775
1.75388
1.74841
1.74266
1.73594
1.72861
1.72183
1.71578
1.71028
1.70564
1.70308
1.7008
1.69567
1.69007
1.68383
1.67678
1.67115
1.66673
1.66271
1.65968
1.6583
1.65515
1.651
1.64687
1.6421
1.63659
1.63026
1.62452
1.61939
1.61455
1.61023
1.60539
1.60051
1.59645
1.59308
1.58991
1.58732
1.58494
1.58364
1.58289
1.58187
1.58623
1.601
1.63156
1.6683
1.71064
1.7445
1.77543
1.78628
1.79685
1.80457
1.81203
1.82108
1.82586
1.82637
1.8251
1.82196
1.81773
1.81141
1.80254
1.79643
1.79467
1.7942
1.79548
1.80073
1.8045
1.80484
1.80417
1.80173
1.79633
1.79032
1.78719
1.78587
1.78502
1.78434
1.78358
1.78258
1.78124
1.77969
1.77861
1.77815
1.77821
1.77921
1.78052
1.7808
1.77983
1.77782
1.77513
1.77054
1.7626
1.75492
1.7516
1.7506
1.75033
1.75051
1.7526
1.75375
1.7531
1.75148
1.74811
1.74449
1.74351
1.74372
1.74372
1.74384
1.74401
1.74324
1.74129
1.73814
1.7336
1.72919
1.72733
1.72685
1.72741
1.7285
1.72752
1.8138
1.80823
1.80448
1.80288
1.80221
1.79706
1.78862
1.78041
1.77245
1.76594
1.76063
1.75548
1.75225
1.75121
1.74691
1.74063
1.73367
1.72518
1.71792
1.71224
1.70677
1.70183
1.69848
1.69572
1.69072
1.68528
1.67958
1.67302
1.66678
1.66205
1.65797
1.65445
1.6524
1.65036
1.64608
1.64182
1.63749
1.6326
1.6274
1.62215
1.61773
1.61419
1.61063
1.60612
1.60034
1.59358
1.58767
1.58336
1.57997
1.57722
1.57495
1.57319
1.57235
1.57111
1.56961
1.56709
1.56459
1.56995
1.58772
1.61718
1.65791
1.70271
1.73909
1.76522
1.7791
1.79412
1.8031
1.80839
1.80997
1.80991
1.80874
1.8049
1.79838
1.7895
1.783
1.78124
1.78193
1.78565
1.79149
1.79267
1.79233
1.79162
1.78881
1.78273
1.77741
1.77557
1.77472
1.77401
1.77393
1.77384
1.77293
1.77174
1.76983
1.76778
1.76714
1.76679
1.76588
1.76573
1.76651
1.76645
1.7644
1.76156
1.75647
1.74731
1.73848
1.73559
1.73541
1.7358
1.73735
1.74064
1.74418
1.74546
1.74483
1.74234
1.73747
1.73265
1.73097
1.73052
1.73001
1.72959
1.72909
1.72825
1.72723
1.72547
1.72251
1.71992
1.71868
1.71778
1.716
1.80332
1.79784
1.79717
1.7967
1.79188
1.78382
1.7746
1.76551
1.75851
1.75347
1.74888
1.74579
1.74533
1.74396
1.73787
1.73124
1.72363
1.71487
1.70858
1.70352
1.69857
1.69476
1.69208
1.68684
1.68127
1.67563
1.66897
1.66267
1.65786
1.65362
1.64998
1.64766
1.64599
1.642
1.63764
1.63318
1.62787
1.62226
1.6176
1.61392
1.61061
1.60805
1.60535
1.60135
1.59634
1.58992
1.58257
1.57631
1.57175
1.56846
1.56602
1.56406
1.56292
1.56096
1.55855
1.55621
1.55386
1.552
1.54839
1.54616
1.554
1.57936
1.61586
1.66385
1.70592
1.7427
1.76266
1.77715
1.78754
1.79125
1.79391
1.79516
1.79303
1.78714
1.77948
1.77392
1.77195
1.77226
1.77393
1.77726
1.77841
1.77821
1.77727
1.77326
1.76756
1.76493
1.76433
1.76448
1.76575
1.76678
1.76641
1.76505
1.76315
1.75954
1.75505
1.75254
1.75141
1.75047
1.75003
1.75079
1.75133
1.74986
1.74712
1.74266
1.73463
1.72658
1.72441
1.72461
1.7265
1.7325
1.73837
1.739
1.7382
1.73638
1.73267
1.72618
1.72036
1.7184
1.71796
1.71789
1.71892
1.72017
1.72043
1.71944
1.71698
1.71208
1.70686
1.7045
1.70275
1.79094
1.79064
1.79057
1.78667
1.78021
1.7714
1.7613
1.75338
1.74753
1.74271
1.73943
1.73849
1.73811
1.73365
1.72652
1.7196
1.71207
1.70524
1.70061
1.69605
1.69174
1.68946
1.68524
1.67872
1.67243
1.66546
1.65813
1.65317
1.64903
1.64504
1.6422
1.64133
1.63879
1.63417
1.62991
1.62514
1.61861
1.61261
1.60885
1.60574
1.60331
1.60169
1.59887
1.59512
1.59099
1.58593
1.57957
1.57296
1.56719
1.56224
1.55835
1.55565
1.55345
1.55139
1.54899
1.54613
1.54354
1.5416
1.53895
1.53764
1.53322
1.52824
1.53051
1.54604
1.57727
1.6181
1.66718
1.70337
1.73849
1.75616
1.7696
1.77808
1.77827
1.77907
1.77731
1.77232
1.7652
1.76047
1.75997
1.76075
1.76359
1.7644
1.76388
1.76205
1.75823
1.75515
1.75444
1.75495
1.75685
1.75801
1.7578
1.75626
1.75436
1.75135
1.74586
1.73997
1.73692
1.73561
1.73476
1.7341
1.73461
1.73586
1.73572
1.73418
1.73155
1.72695
1.72156
1.71983
1.72076
1.72383
1.72538
1.72706
1.72824
1.7273
1.72456
1.72069
1.71536
1.71017
1.70822
1.70799
1.7087
1.71097
1.71108
1.71001
1.7078
1.70303
1.69558
1.69162
1.69028
1.77345
1.77529
1.77578
1.77299
1.76693
1.75882
1.75037
1.74422
1.73833
1.73298
1.73215
1.73249
1.72912
1.72144
1.71375
1.70671
1.70032
1.69609
1.69259
1.68886
1.6862
1.68416
1.67832
1.67137
1.66381
1.65506
1.64853
1.64467
1.64085
1.63717
1.63532
1.63435
1.63066
1.62637
1.6222
1.61671
1.61023
1.60519
1.60169
1.59875
1.59669
1.59478
1.59151
1.58814
1.58439
1.57985
1.57457
1.56932
1.56432
1.5593
1.55399
1.54879
1.54497
1.54221
1.53958
1.53674
1.5341
1.53195
1.5303
1.52915
1.52661
1.52459
1.52136
1.51293
1.5072
1.51267
1.5356
1.57182
1.61995
1.66697
1.70571
1.74021
1.75245
1.76248
1.76633
1.76532
1.76018
1.75186
1.74624
1.74571
1.74742
1.75133
1.75208
1.75137
1.75019
1.74881
1.74711
1.74591
1.74555
1.74489
1.74453
1.74405
1.74243
1.74051
1.7377
1.73283
1.72703
1.72353
1.72221
1.72156
1.72138
1.72216
1.72362
1.72441
1.72453
1.72349
1.72146
1.7178
1.7145
1.71398
1.71413
1.714
1.71345
1.71384
1.71383
1.71232
1.71003
1.70634
1.70141
1.69852
1.69791
1.69739
1.69725
1.69689
1.6957
1.69275
1.68741
1.68242
1.68005
1.74232
1.75211
1.75229
1.75034
1.74619
1.74207
1.73797
1.73331
1.72836
1.72429
1.72381
1.72197
1.71593
1.70864
1.701
1.69449
1.69
1.68651
1.68402
1.68268
1.68117
1.67726
1.67095
1.66412
1.65589
1.64681
1.64106
1.63749
1.63388
1.63061
1.62923
1.62647
1.62191
1.61801
1.61325
1.60709
1.60228
1.59891
1.59595
1.59368
1.59116
1.58719
1.58354
1.58011
1.57621
1.57178
1.56745
1.5634
1.5595
1.55553
1.55113
1.54585
1.53958
1.53406
1.53044
1.52765
1.52482
1.52235
1.52194
1.522
1.52106
1.51847
1.51499
1.51143
1.5055
1.49274
1.4857
1.48842
1.50329
1.53662
1.58012
1.63403
1.6791
1.71691
1.74062
1.74806
1.75006
1.74621
1.7367
1.73212
1.73106
1.73273
1.73864
1.74217
1.74279
1.7426
1.74091
1.73762
1.73387
1.73197
1.731
1.73013
1.72916
1.728
1.72669
1.72492
1.72202
1.71747
1.71375
1.71258
1.71227
1.71265
1.71463
1.71715
1.7184
1.71865
1.71762
1.71505
1.71012
1.70451
1.70242
1.70194
1.70158
1.70124
1.70211
1.70292
1.70196
1.70028
1.69712
1.69214
1.68752
1.68515
1.68381
1.68287
1.68197
1.68096
1.67922
1.67737
1.6748
1.6689
1.68237
1.69361
1.70076
1.70556
1.7127
1.71519
1.71319
1.71309
1.71298
1.71143
1.70848
1.70299
1.69551
1.68824
1.6838
1.67951
1.67581
1.67557
1.67625
1.67454
1.66896
1.66276
1.65591
1.64807
1.64078
1.63565
1.63183
1.62821
1.62538
1.62253
1.61752
1.6124
1.60766
1.60245
1.59748
1.59434
1.59158
1.58971
1.58904
1.58564
1.581
1.57677
1.57226
1.56674
1.56189
1.55877
1.55594
1.55324
1.55005
1.5464
1.54245
1.53719
1.52972
1.52305
1.51907
1.51627
1.51386
1.51224
1.51338
1.51524
1.51325
1.50992
1.50679
1.50253
1.49516
1.48502
1.47551
1.47165
1.47327
1.48294
1.5083
1.54915
1.59876
1.64757
1.6867
1.71744
1.72795
1.73111
1.72526
1.71701
1.71741
1.71981
1.72743
1.73349
1.73364
1.73172
1.72956
1.72631
1.72175
1.7186
1.71724
1.7162
1.71522
1.71472
1.71495
1.7141
1.71207
1.70899
1.70661
1.70618
1.7063
1.70727
1.70957
1.71195