/*--------------------------------*- C++ -*----------------------------------*\
  =========                 |
  \\      /  F ield         | OpenFOAM: The Open Source CFD Toolbox
   \\    /   O peration     | Website:  https://openfoam.org
    \\  /    A nd           | Version:  7
     \\/     M anipulation  |
\*---------------------------------------------------------------------------*/
FoamFile
{
    version     2.0;
    format      ascii;
    class       volScalarField;
    location    "3.2";
    object      rho;
}
// * * * * * * * * * * * * * * * * * * * * * * * * * * * * * * * * * * * * * //

dimensions      [1 -3 0 0 0 0 0];

internalField   nonuniform List<scalar> 
16512
(
2.79339
2.74675
2.70671
2.68966
2.67762
2.66102
2.63737
2.59844
2.55111
2.5132
2.49737
2.49007
2.48054
2.46262
2.42942
2.38517
2.34533
2.32515
2.31787
2.31345
2.30213
2.2789
2.2403
2.19831
2.1694
2.15901
2.15541
2.15032
2.13736
2.1099
2.0714
2.0372
2.02051
2.01544
2.01351
2.00636
1.98981
1.95865
1.92429
1.90197
1.89538
1.89347
1.88921
1.87913
1.8565
1.82402
1.79599
1.78572
1.78296
1.78155
1.77566
1.76307
1.73842
1.70982
1.68881
1.68238
1.68045
1.67748
1.67004
1.65224
1.62693
1.61019
1.60586
1.60426
1.60041
1.59254
1.57399
1.54862
1.52928
1.52162
1.5168
1.51162
1.5045
1.49174
1.48069
1.47625
1.47246
1.46801
1.46266
1.4547
1.43714
1.41172
1.39716
1.39515
1.39435
1.39276
1.39073
1.3881
1.38414
1.3755
1.35735
1.33506
1.32226
1.32021
1.31918
1.31828
1.31559
1.31218
1.30842
1.30448
1.29549
1.27432
1.32023
2.43005
3.21317
3.25421
3.25725
3.25014
3.24052
3.24029
3.24251
3.24353
3.23962
3.22124
3.18904
3.16765
3.1641
3.1637
3.16306
3.16055
3.15376
3.13353
3.09715
3.06887
3.05973
3.05351
3.04869
3.04102
3.03083
3.01304
2.98261
2.94502
2.92138
2.90903
2.89721
2.88392
2.86761
2.84503
2.81188
2.77187
2.74581
2.72819
2.71021
2.69039
2.66774
2.64032
2.60379
2.55733
2.51702
2.48998
2.46754
2.44762
3.62519
3.58722
3.54851
3.51199
3.47636
3.43971
3.40359
3.36688
3.33152
3.29794
3.26292
3.22762
3.19159
3.15608
3.12434
3.09284
3.06049
3.02752
2.98821
2.95442
2.92909
2.90295
2.87604
2.84504
2.80132
2.75851
2.73896
2.72541
2.70843
2.68573
2.64874
2.60127
2.56149
2.54442
2.53613
2.52546
2.50715
2.47396
2.42938
2.38921
2.369
2.3617
2.3567
2.34483
2.32061
2.28132
2.23926
2.21108
2.20102
2.19736
2.19144
2.17742
2.14812
2.10865
2.07459
2.05849
2.05355
2.05127
2.04331
2.02544
1.99303
1.95833
1.93688
1.93062
1.92898
1.92454
1.91376
1.88998
1.85681
1.82906
1.81912
1.81627
1.81424
1.80771
1.79361
1.76724
1.73842
1.71899
1.71326
1.7115
1.70792
1.69956
1.68
1.65451
1.63868
1.6346
1.63287
1.62868
1.62028
1.60068
1.57458
1.55473
1.54793
1.54461
1.54026
1.53353
1.52019
1.50515
1.49861
1.49484
1.49093
1.48607
1.47873
1.46306
1.43852
1.42024
1.41644
1.41508
1.41474
1.41234
1.40934
1.40553
1.39675
1.37845
1.35605
1.34164
1.33911
1.33779
1.33652
1.33433
1.33132
1.3277
1.32316
1.31623
1.30198
1.27957
1.27949
1.65989
3.00778
3.26474
3.2698
3.26413
3.25365
3.2515
3.25289
3.25203
3.24238
3.21662
3.18741
3.1779
3.17752
3.17791
3.17652
3.17295
3.16233
3.13517
3.09784
3.07787
3.07051
3.0649
3.05957
3.05127
3.03956
3.01741
2.98167
2.94819
2.93215
2.92047
2.90826
2.89405
2.87644
2.85217
2.81686
2.77884
2.75602
2.73871
2.72063
2.70079
2.67817
2.65047
2.61321
2.56722
2.53101
2.50723
2.487
2.4691
3.64534
3.60629
3.56934
3.53356
3.49643
3.4598
3.42271
3.38709
3.35344
3.31834
3.28317
3.24726
3.2114
3.17913
3.14696
3.11413
3.08166
3.04474
3.00991
2.98158
2.95382
2.92643
2.89634
2.85731
2.81419
2.78792
2.7722
2.75507
2.73314
2.69886
2.65236
2.61062
2.59225
2.58307
2.5714
2.55273
2.51972
2.47483
2.43385
2.41332
2.40569
2.39997
2.38735
2.36241
2.32273
2.28075
2.25285
2.24307
2.23948
2.23291
2.21776
2.18699
2.14685
2.11281
2.09764
2.09267
2.08977
2.08106
2.06161
2.02783
1.99267
1.97178
1.96573
1.96423
1.95946
1.9481
1.92322
1.88973
1.86256
1.853
1.85016
1.84786
1.84069
1.82512
1.79713
1.7678
1.74956
1.74438
1.74266
1.73847
1.72894
1.70748
1.68179
1.66701
1.66324
1.66159
1.65709
1.64812
1.62769
1.60125
1.58211
1.57654
1.57417
1.5703
1.56389
1.54981
1.53035
1.52196
1.51806
1.51407
1.50947
1.50291
1.48874
1.46496
1.44487
1.44007
1.43789
1.43719
1.43574
1.43231
1.42714
1.41683
1.39889
1.37765
1.36204
1.3587
1.35698
1.35512
1.35273
1.35001
1.34674
1.3425
1.33615
1.32291
1.30501
1.29276
1.28793
1.33159
2.3618
3.22481
3.27697
3.27707
3.26544
3.25841
3.25811
3.25468
3.23909
3.20961
3.19054
3.18934
3.19038
3.19158
3.18958
3.18418
3.16791
3.13422
3.10156
3.08929
3.08282
3.07784
3.071
3.06165
3.04629
3.01724
2.97887
2.95494
2.94288
2.9314
2.91858
2.90332
2.88427
2.85777
2.82008
2.78619
2.76666
2.74964
2.73152
2.71172
2.68919
2.66143
2.62397
2.57953
2.54683
2.52447
2.50481
2.4861
3.66456
3.62698
3.59145
3.55415
3.51711
3.47929
3.44268
3.40883
3.37365
3.3385
3.30299
3.2667
3.23393
3.20125
3.16803
3.13565
3.10048
3.06567
3.03517
3.00547
2.97755
2.94772
2.91254
2.87309
2.84001
2.81945
2.80161
2.78037
2.7486
2.70376
2.66026
2.63996
2.63009
2.61764
2.59888
2.56666
2.52171
2.47954
2.45829
2.45021
2.44374
2.43043
2.40504
2.36484
2.32248
2.29492
2.28524
2.28145
2.27416
2.25797
2.22617
2.18574
2.15183
2.13748
2.13262
2.1293
2.11977
2.09883
2.06357
2.02785
2.00739
2.00139
1.99954
1.99436
1.98205
1.95582
1.92221
1.89576
1.88682
1.88427
1.88186
1.87425
1.85742
1.82813
1.79835
1.78121
1.77637
1.77439
1.76961
1.75897
1.73563
1.70935
1.69492
1.69146
1.68999
1.68532
1.67597
1.65495
1.62837
1.6101
1.60533
1.60366
1.60035
1.59417
1.57969
1.55704
1.54558
1.54185
1.53796
1.5332
1.52687
1.5138
1.49099
1.46996
1.4643
1.46237
1.46162
1.45932
1.45572
1.44957
1.43651
1.41865
1.39919
1.38341
1.37935
1.37713
1.37443
1.37154
1.36856
1.36549
1.36182
1.35629
1.34498
1.32572
1.31274
1.30977
1.30405
1.30625
1.62784
2.96086
3.29191
3.29376
3.2803
3.26552
3.25914
3.25205
3.2347
3.20944
3.20056
3.20166
3.20416
3.20474
3.20182
3.19285
3.16894
3.13244
3.10951
3.10232
3.09692
3.09163
3.08349
3.07197
3.05009
3.01356
2.97943
2.96425
2.95334
2.94232
2.92904
2.91285
2.8919
2.86116
2.82199
2.79505
2.77821
2.76145
2.74335
2.72355
2.701
2.673
2.63545
2.59289
2.56233
2.54026
2.51994
2.49934
3.68448
3.64906
3.6121
3.575
3.53717
3.49935
3.46484
3.42934
3.39376
3.35851
3.32217
3.2891
3.25598
3.22222
3.1895
3.15521
3.12135
3.08966
3.05825
3.02912
2.99928
2.96597
2.93044
2.89563
2.86929
2.84781
2.82739
2.79852
2.75644
2.71074
2.68789
2.67713
2.66398
2.64504
2.61393
2.56968
2.52622
2.50359
2.49504
2.48784
2.47409
2.44863
2.40809
2.36516
2.33764
2.3279
2.32373
2.31552
2.29848
2.26561
2.22451
2.19095
2.1774
2.17271
2.16917
2.15892
2.13678
2.1005
2.06444
2.04421
2.03813
2.03586
2.02987
2.01652
1.98882
1.95468
1.92863
1.92027
1.91796
1.91558
1.90752
1.88949
1.85958
1.82998
1.81387
1.80932
1.80718
1.80173
1.78993
1.76503
1.7377
1.72334
1.71986
1.71825
1.71346
1.70371
1.6821
1.65544
1.63775
1.63346
1.63229
1.62912
1.6229
1.60837
1.58416
1.56985
1.56596
1.56241
1.55762
1.55124
1.53862
1.51641
1.49494
1.4887
1.48708
1.48627
1.48354
1.47909
1.47008
1.45481
1.43894
1.42126
1.40511
1.40051
1.39816
1.39474
1.3912
1.3878
1.38456
1.38108
1.3764
1.36701
1.34801
1.3319
1.32844
1.32595
1.32157
1.31482
1.34626
2.25963
3.22825
3.29227
3.28004
3.26765
3.25722
3.24631
3.23105
3.2163
3.21349
3.21547
3.21812
3.21784
3.21364
3.19858
3.1653
3.13207
3.12033
3.11529
3.1115
3.10552
3.09665
3.08114
3.05055
3.00976
2.98514
2.97383
2.96399
2.95339
2.93991
2.92283
2.89867
2.86158
2.82454
2.8051
2.78967
2.77321
2.75525
2.73548
2.7127
2.68406
2.64607
2.60539
2.57664
2.55461
2.53348
2.51159
3.70615
3.66955
3.63229
3.59498
3.55682
3.52197
3.48627
3.44998
3.41442
3.37771
3.3445
3.31131
3.27704
3.24394
3.2094
3.17625
3.14442
3.1119
3.08144
3.05124
3.01868
2.98557
2.95115
2.92152
2.89554
2.87338
2.84739
2.81012
2.7637
2.73572
2.7244
2.71043
2.69109
2.66163
2.61829
2.57353
2.54911
2.54004
2.53213
2.51806
2.49269
2.45224
2.40885
2.38105
2.37123
2.3667
2.35773
2.33991
2.30611
2.26407
2.23043
2.21721
2.2125
2.20864
2.19773
2.17453
2.13764
2.10177
2.08198
2.0759
2.07346
2.06681
2.05238
2.02325
1.98799
1.96207
1.95388
1.95158
1.94889
1.94029
1.92108
1.89067
1.86146
1.84669
1.84265
1.84058
1.83468
1.82186
1.79566
1.76725
1.7528
1.74914
1.74715
1.742
1.73177
1.70948
1.6825
1.66499
1.66097
1.66007
1.65711
1.65084
1.63626
1.61145
1.59466
1.59058
1.58749
1.58283
1.57646
1.56399
1.5418
1.52004
1.51313
1.51158
1.51097
1.50776
1.50226
1.49101
1.47317
1.45657
1.4426
1.42995
1.42261
1.41925
1.41544
1.4115
1.40786
1.40441
1.40088
1.39655
1.38864
1.37081
1.35168
1.34643
1.34452
1.34106
1.33728
1.32907
1.32834
1.57825
2.88958
3.30036
3.28519
3.27229
3.25889
3.24701
3.23693
3.23109
3.22862
3.23007
3.23129
3.22988
3.22173
3.1979
3.16076
3.13795
3.13233
3.12869
3.12584
3.11949
3.1094
3.08773
3.04873
3.01114
2.99509
2.98451
2.97592
2.96544
2.95182
2.9331
2.90302
2.86056
2.83149
2.81604
2.80113
2.78487
2.76707
2.74729
2.72409
2.69429
2.65537
2.61694
2.59036
2.56863
2.54718
2.52476
3.72623
3.68884
3.65179
3.61347
3.57882
3.54382
3.50729
3.47162
3.43415
3.40028
3.36718
3.3324
3.29907
3.26401
3.23056
3.19898
3.1659
3.13431
3.10355
3.07135
3.0396
3.00604
2.97442
2.94648
2.92037
2.89522
2.86226
2.82097
2.7842
2.77062
2.75696
2.73742
2.70958
2.66826
2.6223
2.59507
2.58529
2.57671
2.56206
2.53699
2.49678
2.45293
2.4246
2.41469
2.40999
2.40053
2.38234
2.34806
2.30519
2.2712
2.25786
2.2528
2.24809
2.23645
2.21211
2.17457
2.13872
2.11966
2.11385
2.11154
2.10444
2.08925
2.05915
2.02276
1.99694
1.98873
1.98606
1.98252
1.97336
1.9527
1.92135
1.89262
1.8791
1.87553
1.87377
1.86767
1.854
1.82697
1.79794
1.78341
1.77959
1.77721
1.77167
1.76096
1.73769
1.70995
1.69235
1.68833
1.68751
1.68466
1.67829
1.66379
1.63881
1.62014
1.61564
1.61305
1.60871
1.6025
1.59023
1.56765
1.54538
1.53791
1.53632
1.5354
1.53186
1.52588
1.5126
1.49263
1.47495
1.46215
1.45428
1.44905
1.44367
1.43706
1.43217
1.42846
1.42502
1.42144
1.41713
1.40984
1.39314
1.37286
1.36479
1.36276
1.35964
1.35529
1.35093
1.34453
1.33461
1.35364
2.12439
3.21387
3.28937
3.27469
3.26462
3.25784
3.2531
3.24858
3.24399
3.24306
3.24295
3.23903
3.22441
3.19251
3.1597
3.14862
3.14457
3.14236
3.13931
3.13272
3.1199
3.09031
3.04666
3.01901
3.00695
2.99717
2.98934
2.97842
2.9641
2.94172
2.90345
2.86178
2.84146
2.82715
2.81248
2.79619
2.77838
2.75843
2.73452
2.70291
2.66288
2.62791
2.60395
2.58278
2.56139
2.53886
3.74475
3.70822
3.66973
3.63474
3.60065
3.56436
3.52902
3.49158
3.45682
3.42386
3.38866
3.35483
3.31946
3.28497
3.25345
3.22008
3.18753
3.15602
3.12379
3.09307
3.0605
3.02776
2.99908
2.97018
2.94442
2.91369
2.87669
2.83849
2.81511
2.80173
2.78299
2.75704
2.71909
2.67286
2.64248
2.63163
2.62205
2.60668
2.58201
2.54196
2.49743
2.4679
2.45772
2.45286
2.4432
2.42494
2.39066
2.3477
2.31338
2.3
2.2945
2.28879
2.2763
2.25056
2.21193
2.17559
2.15697
2.15137
2.14922
2.14184
2.12596
2.09545
2.05887
2.03321
2.02496
2.02204
2.01778
2.00783
1.98554
1.9528
1.92415
1.91129
1.908
1.90635
1.89993
1.88543
1.85798
1.82897
1.81457
1.81079
1.80839
1.80261
1.79152
1.76743
1.73854
1.72041
1.71617
1.71521
1.71218
1.70559
1.69074
1.6658
1.64596
1.64092
1.63875
1.63488
1.62884
1.61688
1.59417
1.57128
1.56313
1.56137
1.56018
1.55633
1.54965
1.5349
1.51391
1.49475
1.48382
1.47909
1.47544
1.47064
1.46184
1.45367
1.44947
1.44599
1.4424
1.43814
1.43097
1.41492
1.3942
1.38336
1.38125
1.37832
1.37428
1.36917
1.36299
1.357
1.34836
1.3456
1.51816
2.78155
3.29206
3.282
3.27718
3.2763
3.27398
3.26799
3.25997
3.25529
3.25162
3.2428
3.22171
3.18886
3.16744
3.1623
3.159
3.15697
3.1526
3.14482
3.12619
3.08823
3.04876
3.03157
3.02057
3.01206
3.00393
2.99208
2.97574
2.94671
2.90168
2.86868
2.85308
2.8393
2.82472
2.80812
2.78992
2.7693
2.74383
2.70925
2.6692
2.63945
2.618
2.59742
2.57617
2.55356
3.76434
3.72634
3.69057
3.65671
3.6206
3.5853
3.5482
3.51263
3.48022
3.44531
3.41112
3.37601
3.34047
3.30856
3.27485
3.24137
3.20907
3.1758
3.14569
3.11433
3.08131
3.05173
3.02172
2.99483
2.96589
2.93095
2.89601
2.86323
2.84488
2.82618
2.80219
2.76917
2.72434
2.69027
2.67846
2.66821
2.65237
2.62827
2.58875
2.54331
2.5117
2.50077
2.49527
2.48512
2.46677
2.43266
2.39006
2.3558
2.34256
2.33719
2.33107
2.31801
2.29147
2.25121
2.21372
2.19504
2.18927
2.18659
2.17884
2.16209
2.13091
2.0946
2.06966
2.06167
2.059
2.05435
2.04374
2.02026
1.98606
1.9566
1.94437
1.94093
1.93881
1.93185
1.91643
1.8884
1.85966
1.84556
1.842
1.83998
1.83421
1.82286
1.79834
1.76852
1.74966
1.74505
1.74371
1.74038
1.73349
1.71794
1.69258
1.67169
1.66621
1.66427
1.66096
1.65507
1.64342
1.62082
1.59762
1.58886
1.58687
1.5854
1.58134
1.57409
1.55794
1.5361
1.51699
1.50809
1.50515
1.50255
1.4978
1.48767
1.47648
1.47091
1.46726
1.46362
1.45925
1.45216
1.43678
1.41581
1.40254
1.40003
1.39734
1.39334
1.38839
1.38191
1.37469
1.37012
1.36492
1.35412
1.3622
1.97555
3.17189
3.28783
3.28632
3.28817
3.28865
3.2835
3.27463
3.26698
3.25828
3.24243
3.21528
3.18874
3.17977
3.17663
3.17441
3.17146
3.16599
3.15441
3.12644
3.08381
3.05688
3.04553
3.03565
3.02835
3.01877
3.00558
2.98477
2.94668
2.90181
2.87941
2.86535
2.852
2.83731
2.82034
2.80155
2.77985
2.75171
2.71316
2.67558
2.65155
2.63186
2.61186
2.59075
2.56801
3.78312
3.74669
3.7127
3.67661
3.64096
3.60404
3.56733
3.535
3.50077
3.46638
3.43209
3.3964
3.36458
3.33108
3.29672
3.26388
3.22889
3.19801
3.16746
3.1344
3.10391
3.07309
3.04495
3.0177
2.98482
2.95172
2.9183
2.89131
2.87119
2.84609
2.81607
2.77489
2.73746
2.72419
2.71399
2.69794
2.67479
2.63749
2.59143
2.5574
2.54532
2.53856
2.52735
2.50864
2.47432
2.43153
2.39712
2.38404
2.37912
2.37325
2.36008
2.33359
2.29283
2.25433
2.23518
2.2289
2.22522
2.21655
2.19879
2.16624
2.12967
2.10531
2.09771
2.09548
2.09089
2.07983
2.05568
2.02093
1.99086
1.97893
1.97518
1.97232
1.96479
1.94822
1.919
1.89005
1.87623
1.87285
1.87115
1.86546
1.85393
1.8294
1.79933
1.77994
1.77503
1.77334
1.76967
1.76246
1.74623
1.71974
1.69783
1.69172
1.68979
1.6869
1.6811
1.6696
1.64719
1.62401
1.61484
1.61278
1.61111
1.60685
1.599
1.5818
1.55918
1.54106
1.53449
1.53246
1.53022
1.52542
1.51358
1.49919
1.49275
1.48889
1.48503
1.4806
1.47372
1.45874
1.43754
1.42242
1.41924
1.41686
1.41312
1.40809
1.40095
1.39375
1.38912
1.38585
1.38174
1.37067
1.35669
1.46506
2.62781
3.2858
3.30243
3.30148
3.30058
3.29584
3.28793
3.27814
3.26421
3.24218
3.21472
3.19893
3.19581
3.19348
3.19083
3.18634
3.17803
3.15814
3.12025
3.08403
3.06986
3.06045
3.05241
3.0446
3.03307
3.01718
2.98859
2.94293
2.90765
2.89194
2.87863
2.86556
2.85069
2.83354
2.81414
2.79072
2.75813
2.71623
2.68427
2.66402
2.64525
2.62574
2.60482
2.58193
3.80347
3.76905
3.7329
3.69685
3.66037
3.62288
3.58964
3.55533
3.52027
3.48622
3.45033
3.41905
3.38717
3.35295
3.32051
3.28498
3.25229
3.22137
3.18774
3.15606
3.1242
3.09393
3.0677
3.03718
3.00506
2.97429
2.94263
2.91999
2.89374
2.86419
2.82741
2.78529
2.76815
2.7575
2.74171
2.72024
2.68579
2.64068
2.60476
2.59145
2.58377
2.57142
2.55204
2.51772
2.47378
2.43813
2.42453
2.41947
2.41379
2.40075
2.37459
2.33474
2.29621
2.27697
2.27043
2.26606
2.25659
2.23785
2.20332
2.16548
2.14091
2.13336
2.13122
2.1264
2.11495
2.09028
2.05564
2.02583
2.01438
2.0106
2.00733
1.99931
1.98179
1.95106
1.92109
1.9072
1.90373
1.90205
1.89628
1.88449
1.85987
1.83005
1.81052
1.8055
1.80377
1.79993
1.79242
1.77559
1.74804
1.72493
1.71806
1.7159
1.71311
1.70728
1.69572
1.6733
1.65024
1.64082
1.63876
1.63714
1.63268
1.62452
1.60631
1.58294
1.56614
1.5613
1.56006
1.55799
1.55277
1.53972
1.52197
1.51438
1.51072
1.50676
1.5022
1.49547
1.4811
1.45994
1.44332
1.43936
1.43703
1.43347
1.42855
1.42078
1.41264
1.40855
1.40587
1.40249
1.39639
1.38087
1.3603
1.36388
1.84199
3.10512
3.31391
3.31
3.31003
3.30732
3.29976
3.28534
3.26413
3.23868
3.21928
3.21413
3.21291
3.21079
3.20699
3.20006
3.18485
3.15342
3.11271
3.09156
3.08362
3.07616
3.0695
3.05956
3.04621
3.0243
2.985
2.94058
2.91843
2.90515
2.89279
2.87984
2.86486
2.84776
2.82783
2.80168
2.76259
2.72083
2.69528
2.67636
2.65793
2.63879
2.61815
2.5952
3.82577
3.78991
3.75325
3.71701
3.67923
3.64526
3.61093
3.57535
3.54091
3.5038
3.4715
3.44095
3.40724
3.37534
3.34134
3.30817
3.27724
3.24326
3.2104
3.17751
3.1439
3.11677
3.08772
3.05592
3.02652
2.99462
2.9701
2.94466
2.91458
2.88284
2.8405
2.81349
2.80045
2.78282
2.76123
2.73063
2.68866
2.65139
2.63744
2.62961
2.61678
2.5975
2.56388
2.51884
2.48118
2.46634
2.46018
2.45355
2.44013
2.41385
2.37475
2.33692
2.31803
2.31184
2.30782
2.29815
2.27894
2.24347
2.20358
2.17818
2.17021
2.16735
2.1618
2.14971
2.1241
2.08944
2.06016
2.04932
2.04599
2.04297
2.03467
2.01663
1.98484
1.95372
1.93937
1.93554
1.93343
1.92736
1.91511
1.88992
1.86022
1.84085
1.83586
1.83431
1.83048
1.82274
1.80555
1.7773
1.75316
1.74556
1.74311
1.74017
1.73421
1.72236
1.69951
1.67635
1.66677
1.66477
1.66326
1.65869
1.65022
1.63127
1.60753
1.59167
1.58765
1.58663
1.5844
1.57902
1.56497
1.54514
1.53595
1.5326
1.52886
1.52425
1.51763
1.50389
1.48285
1.46531
1.46069
1.45843
1.45498
1.45004
1.44141
1.43205
1.4278
1.4254
1.42236
1.41674
1.40288
1.38541
1.37273
1.36924
1.44094
2.4681
3.28993
3.32268
3.31791
3.31662
3.30983
3.29155
3.26428
3.24038
3.2318
3.23132
3.2305
3.22815
3.22307
3.21172
3.18624
3.14471
3.1126
3.10374
3.09781
3.09303
3.08546
3.07412
3.0568
3.02489
2.97824
2.94533
2.93118
2.91917
2.90817
2.89538
2.88029
2.86304
2.84156
2.80927
2.76482
2.72996
2.70863
2.68967
2.67106
2.65197
2.63143
2.60819
3.84554
3.8095
3.77395
3.73645
3.7023
3.66796
3.63187
3.5976
3.56044
3.52528
3.4938
3.46001
3.42745
3.39409
3.36151
3.33242
3.29964
3.26653
3.23436
3.19857
3.16839
3.13864
3.10628
3.07643
3.0442
3.01786
2.99477
2.96571
2.93654
2.90082
2.86524
2.84715
2.82646
2.80285
2.77455
2.73531
2.69637
2.68085
2.67315
2.66043
2.64214
2.6107
2.56654
2.52697
2.51066
2.5034
2.49508
2.48096
2.45413
2.41402
2.37603
2.35717
2.35138
2.3481
2.33871
2.31973
2.28457
2.24395
2.21769
2.20921
2.20541
2.19887
2.18584
2.15877
2.12289
2.09398
2.08347
2.08053
2.07789
2.06957
2.0513
2.01938
1.98768
1.97289
1.96876
1.96614
1.95967
1.94684
1.92061
1.89029
1.87095
1.86601
1.86461
1.86081
1.85281
1.83531
1.80695
1.78214
1.774
1.77141
1.76838
1.76226
1.75004
1.72641
1.70268
1.69284
1.69082
1.68938
1.68469
1.67596
1.65658
1.63255
1.61738
1.61379
1.61285
1.61017
1.60433
1.58952
1.56816
1.55759
1.55449
1.5512
1.54676
1.54041
1.52702
1.5062
1.48841
1.48324
1.48095
1.47764
1.4728
1.46333
1.45192
1.44718
1.44484
1.44179
1.43661
1.42436
1.405
1.39433
1.39119
1.38538
1.3897
1.73303
3.00345
3.33969
3.32789
3.32445
3.31414
3.29236
3.26469
3.24919
3.2473
3.24723
3.24618
3.24346
3.23703
3.21945
3.18174
3.13877
3.122
3.11682
3.11302
3.10898
3.10036
3.0872
3.06259
3.01932
2.9753
2.95643
2.94467
2.93471
2.92524
2.91237
2.89694
2.87821
2.8507
2.80863
2.76794
2.74324
2.72363
2.70436
2.6853
2.66588
2.64501
2.62086
3.86531
3.82891
3.79175
3.75773
3.72491
3.68932
3.65489
3.61859
3.58255
3.54923
3.51406
3.47984
3.44549
3.41078
3.3828
3.35297
3.32084
3.29057
3.2563
3.22456
3.19346
3.15992
3.1287
3.09519
3.06432
3.04159
3.01459
2.9862
2.95662
2.92063
2.89751
2.87469
2.84945
2.82166
2.78424
2.74274
2.72455
2.71483
2.70111
2.68339
2.65454
2.61304
2.57371
2.5561
2.54838
2.53913
2.5246
2.49753
2.4559
2.41611
2.39616
2.38991
2.38647
2.37721
2.35835
2.32406
2.28433
2.25783
2.24928
2.24535
2.23822
2.22457
2.19606
2.15803
2.12837
2.11787
2.11475
2.11201
2.10348
2.08479
2.0532
2.02168
2.0068
2.00268
2.00001
1.99333
1.98008
1.95284
1.92118
1.90145
1.89633
1.8948
1.8909
1.88265
1.8647
1.83637
1.81133
1.80287
1.80033
1.79745
1.79126
1.77878
1.75431
1.72967
1.71939
1.71717
1.71565
1.71087
1.70185
1.682
1.65784
1.64316
1.63991
1.63899
1.63595
1.62973
1.61427
1.59176
1.57958
1.57656
1.5737
1.56942
1.5633
1.55027
1.52962
1.5121
1.50702
1.5047
1.50122
1.49632
1.48615
1.47248
1.46663
1.4643
1.46128
1.45634
1.44536
1.42662
1.41359
1.41065
1.4089
1.40501
1.39883
1.43722
2.28375
3.25788
3.33308
3.32921
3.31682
3.29273
3.27223
3.26611
3.26456
3.26305
3.26106
3.25738
3.2478
3.22029
3.17422
3.14388
3.13697
3.13231
3.1292
3.12375
3.11429
3.09697
3.06197
3.0121
2.98151
2.96956
2.9596
2.95255
2.94399
2.93052
2.91417
2.89101
2.85147
2.80512
2.7773
2.75892
2.74016
2.72091
2.70147
2.68138
2.65947
2.63316
3.88737
3.84836
3.81231
3.78012
3.74544
3.7109
3.67515
3.63978
3.60662
3.57085
3.53542
3.50066
3.46257
3.43186
3.4029
3.37094
3.34121
3.30939
3.27956
3.25007
3.21661
3.18474
3.15178
3.11609
3.08976
3.06253
3.03284
3.00492
2.97135
2.94642
2.92423
2.8983
2.87202
2.83772
2.79559
2.77215
2.75815
2.7415
2.72223
2.69582
2.65678
2.61806
2.59977
2.5925
2.58317
2.56886
2.54297
2.50114
2.45933
2.43758
2.43014
2.42525
2.41532
2.39616
2.36178
2.32273
2.29663
2.2884
2.28515
2.27816
2.2644
2.23552
2.196
2.16487
2.15391
2.15012
2.14661
2.13763
2.11817
2.08618
2.0549
2.04014
2.03626
2.03401
2.02732
2.01396
1.98632
1.95349
1.93299
1.92753
1.9256
1.92134
1.91277
1.89412
1.86551
1.84047
1.83187
1.82946
1.82687
1.82064
1.80802
1.78308
1.75747
1.74659
1.74414
1.74238
1.73745
1.72817
1.70782
1.68327
1.6689
1.66582
1.66493
1.66176
1.65523
1.63953
1.61614
1.6024
1.59925
1.59658
1.59239
1.58626
1.5733
1.55281
1.53575
1.53104
1.52914
1.52576
1.52049
1.50917
1.49331
1.48628
1.48394
1.48097
1.47632
1.46663
1.44828
1.43358
1.43035
1.42808
1.42566
1.42269
1.41386
1.40618
1.62798
2.86149
3.34543
3.33687
3.31781
3.29613
3.28797
3.28715
3.28522
3.28147
3.27705
3.26969
3.2501
3.21064
3.1718
3.15913
3.15421
3.14991
3.14514
3.13801
3.12637
3.10209
3.05644
3.01116
2.99436
2.98405
2.97655
2.97214
2.96293
2.94871
2.92972
2.89655
2.84599
2.80791
2.79075
2.7747
2.7571
2.73846
2.71894
2.69808
2.67437
2.64421
3.90952
3.87089
3.83595
3.79974
3.76388
3.7285
3.69336
3.66218
3.62857
3.59347
3.55978
3.52152
3.48643
3.45448
3.42078
3.38935
3.35686
3.32754
3.30203
3.27152
3.24055
3.21013
3.17441
3.14382
3.11423
3.08271
3.05363
3.01959
2.991
2.97069
2.94522
2.92049
2.89137
2.85261
2.82436
2.80513
2.78539
2.76489
2.73982
2.70159
2.66145
2.64143
2.63392
2.62485
2.61117
2.58701
2.54699
2.50439
2.48089
2.47266
2.46656
2.45579
2.43615
2.40036
2.36044
2.33413
2.32598
2.3233
2.31684
2.30319
2.27491
2.23546
2.20335
2.19187
2.18752
2.18308
2.1735
2.15298
2.11956
2.08776
2.07298
2.06922
2.06737
2.06077
2.04742
2.01994
1.98677
1.96558
1.95982
1.95752
1.95285
1.94389
1.92437
1.89487
1.86966
1.86106
1.85874
1.85638
1.85007
1.83727
1.8122
1.78596
1.77446
1.77181
1.76981
1.76473
1.75517
1.73421
1.70903
1.69462
1.69156
1.6907
1.68733
1.68066
1.66482
1.64104
1.62597
1.6225
1.62002
1.61589
1.60971
1.59672
1.5759
1.55907
1.55462
1.55289
1.54974
1.54438
1.53227
1.51457
1.50603
1.50375
1.5011
1.49672
1.48835
1.47067
1.45379
1.44973
1.44768
1.44507
1.44173
1.43762
1.42532
1.40865
1.42365
2.08679
3.22762
3.32308
3.30659
3.3015
3.30414
3.30593
3.30481
3.30118
3.29387
3.27671
3.24196
3.20098
3.18135
3.17646
3.17243
3.16757
3.16092
3.15209
3.1362
3.10221
3.05087
3.02037
3.00958
3.00064
2.99571
2.99138
2.98041
2.9649
2.93963
2.89393
2.84346
2.82041
2.80571
2.79074
2.77429
2.75635
2.7369
2.71515
2.68869
2.65291
3.93142
3.89425
3.85679
3.81995
3.78277
3.74484
3.71363
3.68275
3.64879
3.61671
3.58224
3.54749
3.51304
3.47712
3.44334
3.40808
3.37378
3.34825
3.3204
3.29015
3.26213
3.23027
3.19993
3.16952
3.13686
3.10693
3.07339
3.03887
3.01632
2.99103
2.96487
2.93897
2.90492
2.87696
2.85485
2.83248
2.81054
2.78616
2.75023
2.70875
2.6853
2.67544
2.66439
2.65052
2.62793
2.5903
2.54869
2.52398
2.51548
2.50923
2.49838
2.47871
2.4421
2.40014
2.37249
2.36377
2.3606
2.35422
2.34058
2.31274
2.27411
2.24194
2.23037
2.22605
2.22133
2.21123
2.19
2.15486
2.12157
2.10625
2.10219
2.10025
2.09362
2.08017
2.05286
2.02002
1.99856
1.99272
1.99041
1.98554
1.97627
1.95604
1.92523
1.89939
1.89067
1.88827
1.88595
1.87957
1.86645
1.84126
1.81469
1.8028
1.80002
1.79796
1.79275
1.78303
1.7615
1.73547
1.72063
1.71744
1.71639
1.71287
1.70606
1.69011
1.66618
1.64989
1.64612
1.64386
1.63984
1.63373
1.62082
1.59957
1.58249
1.57807
1.57624
1.57286
1.56727
1.55468
1.5358
1.52603
1.52379
1.52163
1.51764
1.51036
1.49381
1.47498
1.46937
1.46718
1.46465
1.46145
1.45673
1.4467
1.43117
1.41888
1.42083
1.55622
2.68222
3.30315
3.32091
3.31823
3.32202
3.32424
3.32345
3.31861
3.30432
3.27357
3.23237
3.20449
3.19806
3.19414
3.1908
3.18451
3.17668
3.16535
3.14205
3.09659
3.05181
3.03595
3.02676
3.0199
3.01629
3.00861
2.99584
2.97649
2.94023
2.88662
2.85173
2.83661
2.8223
2.80751
2.7914
2.77378
2.75414
2.73095
2.70014
2.65864
3.95491
3.91722
3.87937
3.84215
3.80148
3.76556
3.73357
3.6997
3.66755
3.63485
3.60395
3.5727
3.53734
3.50302
3.46831
3.42918
3.3982
3.36882
3.33709
3.30772
3.27673
3.24942
3.22276
3.1912
3.16147
3.13097
3.0944
3.0667
3.0399
3.01144
2.98528
2.95216
2.92439
2.9033
2.87967
2.85692
2.83289
2.80118
2.76199
2.73285
2.71892
2.70607
2.69101
2.66873
2.63225
2.59097
2.56514
2.55673
2.55099
2.54053
2.52167
2.48592
2.44252
2.41299
2.40341
2.39917
2.39212
2.37822
2.35001
2.31142
2.27939
2.26787
2.26403
2.25976
2.24956
2.22836
2.19239
2.15727
2.14086
2.13621
2.13358
2.12666
2.11291
2.08524
2.05258
2.03122
2.02548
2.02355
2.01881
2.00938
1.98886
1.95702
1.9302
1.92115
1.91849
1.91594
1.90939
1.8958
1.87027
1.84348
1.83128
1.82847
1.82654
1.82129
1.81156
1.78973
1.76281
1.74733
1.7439
1.74252
1.73876
1.73175
1.71565
1.69124
1.67402
1.66997
1.66794
1.66412
1.65815
1.64552
1.62397
1.6064
1.60185
1.59986
1.59628
1.59034
1.57716
1.55733
1.54645
1.5442
1.5425
1.53888
1.53241
1.51724
1.49714
1.48941
1.48711
1.4845
1.48126
1.47681
1.46698
1.45004
1.44062
1.4367
1.43047
1.43848
1.89506
3.08705
3.34202
3.33421
3.33755
3.34027
3.33937
3.3291
3.30237
3.26389
3.23023
3.21942
3.21465
3.21199
3.20811
3.20121
3.19252
3.17616
3.13968
3.0893
3.06221
3.05296
3.04559
3.04142
3.03567
3.02476
3.00922
2.98142
2.93242
2.88559
2.86743
2.85401
2.84026
2.82504
2.8085
2.79051
2.76992
2.7437
2.7066
2.66357
3.97328
3.93949
3.90501
3.86652
3.82822
3.79185
3.75521
3.71976
3.68372
3.65182
3.62496
3.59376
3.56083
3.52886
3.49178
3.45655
3.42319
3.38899
3.35739
3.32305
3.29304
3.26952
3.24119
3.21221
3.18496
3.15213
3.12187
3.09278
3.06238
3.03524
3.00239
2.97026
2.94924
2.92504
2.90161
2.87783
2.84911
2.81603
2.78466
2.76492
2.7499
2.73423
2.71189
2.67629
2.63436
2.60623
2.59714
2.59099
2.58087
2.56275
2.52867
2.48585
2.45472
2.44452
2.43972
2.43206
2.4177
2.38874
2.34898
2.31636
2.30455
2.30089
2.29712
2.28699
2.2662
2.23067
2.19445
2.17692
2.17177
2.16842
2.16101
2.14678
2.11807
2.08481
2.06339
2.0577
2.05617
2.05176
2.04233
2.02197
1.98997
1.96227
1.95281
1.94984
1.9469
1.94009
1.92595
1.89957
1.8723
1.85979
1.85693
1.8552
1.84998
1.84029
1.81851
1.791
1.77476
1.77106
1.76944
1.76546
1.7582
1.74189
1.7168
1.69848
1.69404
1.69221
1.68865
1.68279
1.67051
1.64887
1.63078
1.62605
1.62399
1.62035
1.61422
1.60089
1.57998
1.56777
1.56544
1.564
1.56065
1.55482
1.54101
1.52016
1.50992
1.50743
1.50474
1.5015
1.49707
1.48783
1.47099
1.45888
1.45641
1.45408
1.44775
1.44111
1.50364
2.42217
3.27943
3.3551
3.35213
3.34926
3.34296
3.32514
3.29421
3.25991
3.24306
3.23745
3.23259
3.22917
3.22434
3.21733
3.20619
3.17927
3.13135
3.09128
3.07891
3.07085
3.06618
3.0621
3.05302
3.04029
3.01905
2.97812
2.92398
2.89611
2.88389
2.87183
2.85825
2.84259
2.82539
2.80635
2.78342
2.75152
2.70886
2.6716
3.98592
3.95409
3.9222
3.88869
3.85366
3.81684
3.78114
3.74332
3.70433
3.67369
3.64363
3.61128
3.58084
3.54841
3.51593
3.48222
3.44667
3.41396
3.379
3.34254
3.31616
3.28835
3.2582
3.23089
3.20156
3.17474
3.14711
3.11601
3.08804
3.05771
3.02173
2.99715
2.97204
2.94625
2.92224
2.89306
2.86478
2.83667
2.81265
2.79446
2.77755
2.75675
2.72377
2.68098
2.64947
2.63909
2.63159
2.62075
2.60251
2.56964
2.52795
2.49605
2.48559
2.48092
2.47324
2.45883
2.42962
2.38848
2.3542
2.34168
2.33755
2.33364
2.32348
2.30294
2.26796
2.23176
2.2136
2.20829
2.20475
2.19696
2.18244
2.15268
2.11782
2.09562
2.08973
2.08819
2.08401
2.07463
2.0544
2.02288
1.99505
1.98531
1.98222
1.97905
1.97195
1.95731
1.92988
1.90157
1.88857
1.88554
1.88386
1.87865
1.86898
1.84725
1.81953
1.80268
1.79876
1.79707
1.79302
1.78574
1.76926
1.74329
1.72377
1.71882
1.7169
1.71354
1.70775
1.69575
1.67409
1.65549
1.65052
1.64851
1.64487
1.63876
1.62554
1.60383
1.59018
1.58746
1.58625
1.5831
1.57758
1.5649
1.54371
1.531
1.52819
1.5255
1.52213
1.51775
1.50897
1.49201
1.47875
1.47581
1.47339
1.46991
1.46417
1.44774
1.44493
1.73
2.92839
3.38381
3.37035
3.35561
3.33794
3.31426
3.2854
3.26617
3.26123
3.25604
3.25123
3.24631
3.24036
3.23216
3.21347
3.17327
3.12593
3.106
3.09738
3.09107
3.08743
3.08002
3.06919
3.05315
3.02229
2.9693
2.92599
2.91209
2.90073
2.88905
2.87531
2.85953
2.84176
2.82112
2.794
2.75464
2.71156
2.68464
4.00569
3.96975
3.93797
3.90845
3.87503
3.84089
3.80592
3.76614
3.72978
3.69599
3.6615
3.6283
3.59515
3.56638
3.53814
3.50481
3.47257
3.44032
3.40244
3.37021
3.33952
3.30752
3.27808
3.24595
3.2194
3.19613
3.16738
3.13963
3.11262
3.07822
3.04932
3.02247
2.99426
2.96958
2.93908
2.9097
2.88526
2.85952
2.83838
2.81895
2.79955
2.77136
2.73165
2.69505
2.68255
2.67373
2.6619
2.64329
2.61112
2.56994
2.5368
2.52604
2.52154
2.51425
2.49998
2.47141
2.42985
2.39358
2.37994
2.37509
2.37054
2.36021
2.33948
2.30436
2.26837
2.24992
2.24478
2.2417
2.23386
2.21944
2.18946
2.15292
2.12914
2.12263
2.12046
2.11604
2.10653
2.08602
2.0549
2.02738
2.01766
2.01484
2.01185
2.00463
1.98987
1.96168
1.93201
1.91818
1.91482
1.91286
1.90754
1.89777
1.8759
1.84816
1.83072
1.82663
1.82506
1.82108
1.81387
1.79742
1.77096
1.74999
1.7445
1.74239
1.73914
1.73336
1.72148
1.69969
1.68049
1.67525
1.67327
1.66967
1.66369
1.65066
1.62852
1.61335
1.61025
1.60898
1.60609
1.60091
1.58899
1.56772
1.55273
1.54936
1.54668
1.54329
1.53896
1.5306
1.51387
1.49913
1.49561
1.49333
1.48947
1.48409
1.47446
1.45568
1.44853
1.47873
2.20013
3.26273
3.37621
3.36104
3.33337
3.30424
3.28489
3.28078
3.27765
3.27379
3.26912
3.26386
3.25712
3.24353
3.2112
3.16329
3.13336
3.12439
3.11717
3.11316
3.1069
3.09674
3.08357
3.06101
3.01738
2.96363
2.9404
2.92943
2.91833
2.90586
2.89153
2.87537
2.85688
2.83391
2.80086
2.75572
2.71973
2.70055
4.02135
3.9847
3.9578
3.92815
3.89458
3.86151
3.82731
3.7917
3.75466
3.71762
3.68249
3.6445
3.61159
3.58628
3.55693
3.52614
3.4966
3.46344
3.4309
3.39761
3.3633
3.3321
3.29762
3.26525
3.24169
3.2144
3.18579
3.16027
3.13008
3.10183
3.07458
3.04486
3.01923
2.99034
2.95734
2.93289
2.90662
2.88242
2.8603
2.83895
2.81565
2.78249
2.74666
2.72673