/*--------------------------------*- C++ -*----------------------------------*\
  =========                 |
  \\      /  F ield         | OpenFOAM: The Open Source CFD Toolbox
   \\    /   O peration     | Website:  https://openfoam.org
    \\  /    A nd           | Version:  7
     \\/     M anipulation  |
\*---------------------------------------------------------------------------*/
FoamFile
{
    version     2.0;
    format      ascii;
    class       volScalarField;
    location    "3.8";
    object      T;
}
// * * * * * * * * * * * * * * * * * * * * * * * * * * * * * * * * * * * * * //

dimensions      [0 0 0 1 0 0 0];

internalField   nonuniform List<scalar> 
16512
(
1.7903
1.78949
1.78695
1.78312
1.77831
1.77078
1.7593
1.75213
1.75137
1.75112
1.75134
1.75216
1.75293
1.75303
1.75285
1.75217
1.7505
1.74415
1.73023
1.72057
1.71926
1.71858
1.71862
1.71862
1.71814
1.71742
1.71637
1.71452
1.71089
1.70303
1.69707
1.69664
1.69657
1.69638
1.69561
1.69412
1.69148
1.68571
1.67571
1.66961
1.66891
1.66861
1.66767
1.66726
1.66709
1.66634
1.66492
1.66279
1.65699
1.64649
1.64166
1.64016
1.63917
1.63849
1.6374
1.63619
1.63465
1.63222
1.62955
1.62682
1.62269
1.61616
1.61335
1.61225
1.61115
1.61007
1.60867
1.60652
1.60291
1.597
1.59182
1.59044
1.59045
1.59076
1.59042
1.58912
1.58728
1.58536
1.58259
1.57761
1.56891
1.55939
1.5548
1.55419
1.55534
1.56064
1.56673
1.56762
1.56619
1.56401
1.55922
1.54879
1.53095
1.51834
1.51548
1.51542
1.51761
1.52589
1.5378
1.54345
1.54321
1.54241
1.5401
1.53316
1.51823
1.50002
1.49191
1.4901
1.4899
1.49272
1.50186
1.51282
1.51603
1.51518
1.51333
1.50814
1.49629
1.47908
1.46969
1.46757
1.46733
1.46973
1.47801
1.48638
1.48768
1.48701
1.48491
1.47723
1.46183
1.44977
1.44653
1.44596
1.44718
1.45337
1.46158
1.46337
1.46226
1.45994
1.45345
1.44035
1.42914
1.42629
1.42594
1.42698
1.43273
1.4404
1.44217
1.44128
1.43973
1.43544
1.42512
1.41261
1.40788
1.40742
1.40753
1.41012
1.41723
1.42526
1.45828
1.58128
1.71745
1.8089
1.81583
1.81271
1.81328
1.812
1.81134
1.8111
1.80708
1.80266
1.79972
1.81162
1.85262
1.89311
1.91761
1.92237
1.92119
1.91569
1.90356
1.89257
1.88744
1.88419
1.88415
1.88431
1.881
1.87439
1.86659
1.85827
1.85252
1.84853
1.84588
1.84469
1.84068
1.83505
1.82848
1.82093
1.81571
1.81207
1.80967
1.80974
1.80922
1.8047
1.79887
1.79106
1.78272
1.77769
1.77391
1.77169
1.77195
1.77208
1.7686
1.76318
1.75662
1.74939
1.74483
1.7416
1.73869
1.73693
1.73538
1.73132
1.72688
1.72225
1.7175
1.71342
1.70963
1.70611
1.70248
1.69867
1.69476
1.6905
1.68622
1.68263
1.67932
1.67604
1.67269
1.66913
1.66528
1.66157
1.65825
1.65519
1.65238
1.64957
1.64653
1.64335
1.63993
1.63598
1.63156
1.62785
1.62484
1.62214
1.61984
1.61741
1.6145
1.61137
1.60797
1.6043
1.60036
1.59706
1.79036
1.78668
1.78188
1.77782
1.77283
1.76386
1.75391
1.75186
1.75151
1.75154
1.75223
1.75313
1.75337
1.75337
1.75296
1.75177
1.74757
1.73596
1.72265
1.71925
1.71866
1.71849
1.71902
1.71929
1.71897
1.7184
1.71761
1.71582
1.70968
1.70033
1.69684
1.69636
1.69627
1.69596
1.69476
1.69255
1.68848
1.68024
1.67156
1.66976
1.66952
1.66943
1.66889
1.66853
1.66815
1.66721
1.66558
1.66149
1.65124
1.64204
1.64037
1.63931
1.63861
1.63824
1.63749
1.63649
1.6354
1.63374
1.63172
1.62924
1.62272
1.61365
1.61166
1.61094
1.60995
1.60889
1.60736
1.60478
1.60051
1.59639
1.59504
1.59473
1.5941
1.59293
1.59025
1.58731
1.58497
1.5826
1.57888
1.57216
1.56376
1.55892
1.55824
1.55907
1.56339
1.56836
1.56884
1.56732
1.56526
1.561
1.55195
1.5355
1.52183
1.51808
1.51794
1.51987
1.5278
1.53936
1.5448
1.5446
1.54399
1.54195
1.53552
1.52138
1.50311
1.49432
1.49237
1.49214
1.49483
1.50382
1.51482
1.5182
1.51741
1.51561
1.51066
1.49915
1.48176
1.4717
1.46933
1.46902
1.47118
1.47929
1.48843
1.49023
1.48958
1.48775
1.48086
1.4659
1.45242
1.44837
1.44771
1.44862
1.45425
1.46309
1.46598
1.46501
1.46287
1.45702
1.44438
1.43147
1.42759
1.42714
1.42779
1.43283
1.44134
1.44447
1.44376
1.44228
1.43855
1.42909
1.41565
1.40928
1.40853
1.40845
1.41051
1.41712
1.42803
1.46146
1.59977
1.74947
1.81945
1.82229
1.80908
1.80527
1.80754
1.81215
1.81472
1.81056
1.80367
1.79837
1.80263
1.83568
1.88169
1.91368
1.92335
1.92318
1.9188
1.90941
1.89723
1.88959
1.88575
1.88523
1.88611
1.88454
1.87827
1.87043
1.86132
1.85445
1.85002
1.84704
1.84665
1.84512
1.83948
1.83269
1.8244
1.81767
1.81349
1.81031
1.80988
1.81009
1.80697
1.80143
1.79441
1.78598
1.77994
1.77621
1.77334
1.77302
1.77345
1.77123
1.76591
1.75995
1.75285
1.74698
1.74324
1.74021
1.73824
1.73703
1.73348
1.72913
1.72461
1.71974
1.71552
1.71174
1.70824
1.70486
1.70113
1.69729
1.69314
1.68858
1.68466
1.68133
1.67809
1.67482
1.67144
1.66787
1.66408
1.66057
1.6574
1.65446
1.65159
1.64855
1.6454
1.64204
1.63827
1.63399
1.62993
1.6268
1.62413
1.62184
1.61969
1.61702
1.61399
1.61054
1.60634
1.60189
1.59884
1.59612
1.78613
1.78073
1.77693
1.77355
1.76805
1.758
1.75222
1.75173
1.75151
1.7519
1.75299
1.75346
1.75358
1.75345
1.75268
1.74995
1.74089
1.72625
1.71973
1.71908
1.71889
1.71948
1.72071
1.72099
1.72088
1.72019
1.71899
1.71475
1.70412
1.69786
1.69648
1.69559
1.69522
1.69464
1.69309
1.69027
1.6847
1.67537
1.67102
1.67074
1.6707
1.67077
1.67032
1.66954
1.6686
1.66729
1.66451
1.6562
1.64439
1.64032
1.63965
1.63892
1.63878
1.63866
1.63832
1.63777
1.63712
1.63592
1.63375
1.62858
1.61822
1.61084
1.61031
1.60996
1.60907
1.60797
1.60631
1.60356
1.60079
1.59983
1.59951
1.59858
1.59609
1.59121
1.58705
1.58456
1.58248
1.57966
1.57466
1.56761
1.56294
1.56216
1.56266
1.566
1.56987
1.57002
1.56853
1.56645
1.56248
1.55468
1.54027
1.52619
1.52112
1.52085
1.52249
1.52984
1.5408
1.5458
1.54558
1.54513
1.54343
1.53761
1.52452
1.50649
1.49689
1.49474
1.49454
1.49715
1.50598
1.51682
1.52019
1.5194
1.51769
1.51302
1.50202
1.48464
1.47376
1.47111
1.47071
1.47266
1.4806
1.49026
1.49265
1.49205
1.49051
1.48436
1.46998
1.45532
1.45035
1.44956
1.45019
1.45523
1.46445
1.46851
1.46776
1.46577
1.46048
1.44848
1.43414
1.42896
1.42838
1.42874
1.43304
1.44196
1.4467
1.44629
1.44488
1.44158
1.43297
1.41909
1.41099
1.40964
1.40945
1.41086
1.4173
1.43103
1.48053
1.60455
1.76934
1.82199
1.82107
1.81505
1.80502
1.80505
1.81223
1.81539
1.81372
1.80783
1.79919
1.79819
1.81887
1.86649
1.90651
1.92477
1.92543
1.92246
1.91394
1.90176
1.89294
1.88876
1.88687
1.88762
1.88722
1.8818
1.87453
1.86531
1.85693
1.85198
1.84833
1.84759
1.8473
1.84285
1.83649
1.82858
1.82066
1.81588
1.81235
1.81081
1.81106
1.80916
1.8038
1.79743
1.78894
1.78187
1.77779
1.77451
1.77362
1.77417
1.77351
1.76896
1.76329
1.75612
1.74924
1.74501
1.74164
1.73903
1.73791
1.73541
1.73126
1.72692
1.72203
1.71757
1.71375
1.71022
1.70703
1.70356
1.69979
1.69579
1.6913
1.68685
1.68327
1.68004
1.67683
1.67354
1.67014
1.6665
1.66283
1.65954
1.65649
1.65361
1.6506
1.64746
1.6442
1.64061
1.63635
1.63203
1.62874
1.62594
1.62356
1.6216
1.61934
1.6168
1.61384
1.60986
1.60465
1.60026
1.59742
1.59499
1.77954
1.77609
1.77384
1.77077
1.76353
1.75382
1.75176
1.75131
1.75138
1.75239
1.75338
1.75364
1.75368
1.75335
1.75172
1.74504
1.73091
1.72082
1.71958
1.71936
1.71998
1.72207
1.72291
1.72299
1.72273
1.72159
1.71817
1.70841
1.69801
1.69631
1.69551
1.6944
1.69365
1.69283
1.69109
1.68773
1.68105
1.67329
1.67204
1.67185
1.67191
1.67191
1.67117
1.66981
1.66828
1.66604
1.66008
1.64857
1.6409
1.64006
1.63954
1.63946
1.63985
1.63988
1.63986
1.63961
1.63889
1.63736
1.63258
1.62285
1.61308
1.60981
1.60965
1.60949
1.60863
1.60749
1.60618
1.60481
1.60424
1.60388
1.60293
1.59958
1.59269
1.58684
1.58419
1.58248
1.58026
1.57642
1.57059
1.56654
1.56583
1.56614
1.56881
1.57163
1.57141
1.57
1.56786
1.56379
1.5567
1.54438
1.5309
1.52473
1.52417
1.52552
1.53205
1.54212
1.54658
1.5463
1.54592
1.54449
1.53936
1.5276
1.51014
1.49971
1.49725
1.49706
1.49958
1.5082
1.51871
1.52192
1.52115
1.51956
1.51524
1.505
1.48783
1.47603
1.47295
1.47246
1.47417
1.48181
1.4919
1.49486
1.49428
1.49298
1.48762
1.47414
1.45841
1.45242
1.4515
1.45189
1.45632
1.46566
1.47096
1.47053
1.46874
1.46398
1.4527
1.43716
1.43043
1.42964
1.42975
1.43336
1.44233
1.44875
1.44885
1.44758
1.44474
1.43693
1.42291
1.41297
1.4108
1.41049
1.41139
1.41767
1.43293
1.50382
1.63877
1.77647
1.82627
1.82667
1.82452
1.81899
1.81389
1.81613
1.81936
1.81751
1.81232
1.8031
1.79603
1.80634
1.84709
1.89268
1.92262
1.92751
1.92614
1.91971
1.90681
1.89544
1.89056
1.88803
1.88892
1.88951
1.88544
1.87842
1.86949
1.86006
1.85418
1.85012
1.84855
1.84853
1.84587
1.83974
1.83217
1.82366
1.81799
1.81422
1.81186
1.81205
1.81138
1.80672
1.8006
1.79245
1.78442
1.77983
1.77654
1.77478
1.7752
1.77515
1.77121
1.76577
1.75932
1.75218
1.74708
1.74337
1.74049
1.73917
1.73713
1.73307
1.72889
1.72411
1.71954
1.71575
1.71219
1.70906
1.70597
1.70237
1.69854
1.69421
1.68945
1.68548
1.68216
1.67896
1.6757
1.67233
1.66879
1.66505
1.66161
1.65848
1.6555
1.65255
1.64947
1.64629
1.64285
1.63879
1.63423
1.63055
1.62768
1.62513
1.62308
1.62124
1.61891
1.61627
1.61308
1.60864
1.60322
1.59915
1.59634
1.59393
1.77522
1.77395
1.77262
1.76854
1.75819
1.75182
1.75101
1.7508
1.75138
1.75296
1.75359
1.75379
1.7537
1.75286
1.74835
1.73591
1.7228
1.71998
1.71977
1.72025
1.72273
1.72459
1.72469
1.72464
1.72379
1.72133
1.71289
1.69994
1.69499
1.69462
1.69402
1.69302
1.69208
1.69109
1.68924
1.68553
1.67902
1.67391
1.67299
1.67272
1.67266
1.6723
1.67113
1.66932
1.66689
1.66261
1.65327
1.64312
1.64073
1.6404
1.64035
1.64099
1.64152
1.64162
1.64162
1.64115
1.63988
1.63629
1.62658
1.6157
1.61083
1.60984
1.60966
1.60944
1.60875
1.60828
1.60818
1.60815
1.60768
1.60654
1.60283
1.59481
1.58717
1.58389
1.58244
1.58082
1.57785
1.57297
1.56968
1.56918
1.56954
1.57181
1.57379
1.57325
1.57186
1.56936
1.56489
1.55822
1.54762
1.53563
1.52893
1.52801
1.52889
1.53441
1.54325
1.54718
1.54684
1.54642
1.5451
1.54067
1.53053
1.51407
1.50283
1.49993
1.49973
1.50207
1.51029
1.52024
1.52326
1.52255
1.52115
1.51729
1.508
1.49154
1.4788
1.47503
1.47441
1.47584
1.48301
1.49333
1.4967
1.49616
1.49508
1.49045
1.47815
1.46182
1.45465
1.45355
1.45372
1.45756
1.46676
1.47322
1.47326
1.47163
1.46744
1.45704
1.44073
1.43216
1.43089
1.43085
1.43378
1.44254
1.45046
1.45132
1.45029
1.44797
1.441
1.42721
1.41533
1.41207
1.41157
1.41214
1.41795
1.43743
1.50952
1.68228
1.79167
1.83554
1.83159
1.81335
1.81265
1.81445
1.81773
1.82279
1.82099
1.81546
1.80837
1.799
1.80127
1.83108
1.87799
1.91586
1.92895
1.92872
1.92454
1.91255
1.89885
1.89226
1.88909
1.8896
1.89132
1.88918
1.8825
1.87371
1.86339
1.85647
1.8522
1.85001
1.8501
1.84841
1.84238
1.83517
1.82654
1.81997
1.81614
1.81332
1.81319
1.81321
1.80934
1.80338
1.7958
1.78705
1.7815
1.77796
1.77559
1.77596
1.77655
1.77398
1.76896
1.76265
1.7548
1.74918
1.74529
1.74187
1.7401
1.73873
1.73493
1.73058
1.72574
1.7209
1.71723
1.71383
1.71073
1.70799
1.70472
1.70115
1.6972
1.69251
1.688
1.68445
1.68122
1.678
1.67468
1.67123
1.66749
1.66374
1.66048
1.65744
1.6545
1.65148
1.64832
1.64499
1.64123
1.63673
1.63251
1.62944
1.62674
1.62443
1.62266
1.62063
1.61816
1.6154
1.61183
1.60683
1.6019
1.59849
1.59567
1.59314
1.77404
1.77367
1.77184
1.7633
1.75293
1.75064
1.75013
1.75034
1.75194
1.75344
1.7539
1.75397
1.75363
1.75088
1.74079
1.72588
1.72032
1.72009
1.72036
1.72272
1.72563
1.72592
1.72602
1.72551
1.7237
1.71732
1.70376
1.69473
1.69363
1.69314
1.69282
1.69205
1.69105
1.68996
1.68812
1.68434
1.67867
1.67476
1.67349
1.67307
1.67278
1.67197
1.67031
1.6679
1.66438
1.65739
1.64686
1.64178
1.6415
1.64147
1.64198
1.64298
1.64319
1.64327
1.64293
1.64182
1.63904
1.63086
1.61826
1.61206
1.6108
1.61036
1.61031
1.6103
1.61047
1.61093
1.61113
1.61078
1.60963
1.60588
1.59714
1.58788
1.58395
1.58249
1.58116
1.57906
1.57538
1.57274
1.57238
1.57294
1.57501
1.576
1.5753
1.57374
1.57029
1.56523
1.5591
1.55034
1.54009
1.53343
1.53229
1.53283
1.53724
1.5444
1.54747
1.54715
1.54678
1.54553
1.54172
1.53312
1.51822
1.50645
1.50286
1.5026
1.50472
1.51239
1.52144
1.52407
1.52347
1.52242
1.51912
1.51092
1.49561
1.48205
1.47746
1.4767
1.47782
1.48435
1.49455
1.49823
1.4977
1.49669
1.49274
1.48179
1.46536
1.45699
1.45558
1.45563
1.45892
1.46784
1.47527
1.47581
1.47435
1.47078
1.46145
1.44499
1.4342
1.43221
1.43209
1.43427
1.4426
1.45186
1.45362
1.45281
1.45103
1.44502
1.43188
1.41826
1.4135
1.41268
1.41293
1.41868
1.44348
1.52655
1.6917
1.82026
1.8396
1.83241
1.81593
1.80608
1.80536
1.81272
1.82334
1.82483
1.81971
1.81029
1.79962
1.79749
1.81721
1.86288
1.90815
1.93064
1.93121
1.92867
1.91808
1.90307
1.89423
1.89017
1.88996
1.89236
1.89209
1.8865
1.87821
1.86741
1.85901
1.85432
1.85154
1.85178
1.85142
1.84642
1.83912
1.82981
1.82191
1.81761
1.81446
1.81407
1.81453
1.81202
1.8066
1.79936
1.79012
1.78363
1.77986
1.77709
1.77696
1.77785
1.77631
1.77145
1.76554
1.75806
1.75147
1.74742
1.74405
1.74195
1.74092
1.73756
1.73294
1.72793
1.72228
1.71808
1.71487
1.71191
1.70947
1.70663
1.70333
1.69983
1.69557
1.69078
1.68694
1.68364
1.68045
1.67717
1.67379
1.67015
1.66622
1.66262
1.6595
1.65653
1.65354
1.65038
1.64705
1.64345
1.63921
1.63463
1.63124
1.62844
1.62587
1.62385
1.62194
1.61957
1.61704
1.61406
1.61004
1.60508
1.60104
1.59801
1.59532
1.59303
1.7743
1.77372
1.76745
1.75549
1.75026
1.7495
1.74944
1.75061
1.75289
1.75401
1.7543
1.75419
1.75271
1.74478
1.72944
1.72078
1.72026
1.72037
1.72232
1.72589
1.72675
1.72696
1.72672
1.7255
1.7209
1.70879
1.69603
1.69308
1.69268
1.69245
1.69234
1.69189
1.69102
1.68993
1.68815
1.68401
1.67813
1.67486
1.67349
1.67291
1.6723
1.67095
1.66886
1.66596
1.66101
1.65177
1.64357
1.6427
1.64261
1.64291
1.64411
1.64443
1.64454
1.64438
1.64344
1.6412
1.63469
1.62234
1.61342
1.61184
1.61147
1.61154
1.61194
1.61253
1.61325
1.61341
1.61306
1.61201
1.60885
1.6003
1.58928
1.58417
1.58276
1.58161
1.57997
1.5776
1.57599
1.57582
1.57642
1.57822
1.57854
1.57767
1.57529
1.57069
1.56521
1.55959
1.5527
1.54424
1.53773
1.5365
1.53681
1.54041
1.54594
1.54775
1.54744
1.54711
1.5459
1.54271
1.53546
1.52233
1.51032
1.50606
1.5057
1.50755
1.51447
1.52257
1.52452
1.52401
1.52324
1.52059
1.51362
1.49976
1.4858
1.48029
1.47936
1.48021
1.486
1.49573
1.49956
1.49897
1.49792
1.49446
1.48491
1.46899
1.45947
1.45765
1.45763
1.46038
1.46878
1.47703
1.4781
1.47686
1.47383
1.46568
1.44973
1.43677
1.43372
1.43349
1.43506
1.44254
1.45287
1.45586
1.4552
1.45378
1.44879
1.43668
1.42175
1.41531
1.41397
1.4139
1.41966
1.45207
1.55575
1.707
1.83027
1.84041
1.83168
1.82191
1.81403
1.80996
1.81398
1.8238
1.82692
1.82325
1.81444
1.80117
1.79249
1.80318
1.84365
1.89378
1.92867
1.93394
1.93251
1.9238
1.90801
1.89664
1.89194
1.89102
1.89353
1.89438
1.88984
1.88204
1.8715
1.86176
1.85661
1.85324
1.85315
1.85362
1.85009
1.84323
1.83437
1.82505
1.81974
1.8163
1.81511
1.81576
1.81462
1.80942
1.80257
1.79345
1.78548
1.78123
1.77817
1.77756
1.77867
1.77843
1.77432
1.76885
1.76117
1.75358
1.74921
1.74574
1.74316
1.74251
1.74075
1.73593
1.73083
1.72492
1.71943
1.71581
1.71278
1.71025
1.70798
1.70488
1.70169
1.69801
1.69348
1.68928
1.68588
1.68274
1.67956
1.67627
1.67281
1.66897
1.66501
1.66167
1.65868
1.6557
1.65258
1.64932
1.64584
1.64185
1.63718
1.63315
1.63017
1.62746
1.62519
1.62312
1.6206
1.61813
1.61543
1.61195
1.60754
1.60359
1.60065
1.598
1.59576
1.59324
1.77494
1.77028
1.75828
1.75013
1.74891
1.74866
1.74958
1.752
1.75395
1.75471
1.75473
1.75394
1.74785
1.73333
1.72166
1.72006
1.72014
1.72165
1.72566
1.7272
1.72753
1.72752
1.72673
1.72355
1.71365
1.69877
1.69299
1.6924
1.6924
1.69262
1.69259
1.69254
1.69208
1.69121
1.6893
1.6827
1.67615
1.67426
1.67302
1.67223
1.67119
1.66948
1.66723
1.66384
1.65719
1.64721
1.64389
1.64389
1.64386
1.64445
1.64548
1.64545
1.64532
1.64465
1.64286
1.63797
1.62725
1.61604
1.61306
1.6128
1.6129
1.6136
1.61434
1.61475
1.61506
1.61482
1.61382
1.6113
1.60396
1.59198
1.58487
1.58316
1.58215
1.58099
1.5797
1.57904
1.57909
1.58029
1.58152
1.58124
1.58019
1.57673
1.57088
1.56525
1.56032
1.55487
1.54808
1.54173
1.54034
1.54061
1.54343
1.54745
1.54811
1.54797
1.54761
1.54639
1.54373
1.53765
1.52628
1.51446
1.50949
1.50895
1.5104
1.51648
1.52348
1.52487
1.52437
1.52371
1.52162
1.51591
1.50393
1.49002
1.48355
1.48239
1.48297
1.48798
1.49692
1.50073
1.5001
1.49892
1.49575
1.48743
1.47253
1.46212
1.45974
1.45965
1.46195
1.46979
1.4784
1.48009
1.47901
1.47645
1.46946
1.45464
1.43993
1.43551
1.43512
1.43621
1.44262
1.45339
1.45787
1.45739
1.45621
1.45224
1.44135
1.42572
1.41767
1.41564
1.41533
1.42079
1.45994
1.58842
1.73805
1.82919
1.84683
1.84045
1.82418
1.81747
1.81448
1.81606
1.82374
1.82649
1.82323
1.81675
1.80637
1.79346
1.79741
1.82719
1.87685
1.92094
1.9344
1.93438
1.92805
1.9136
1.89978
1.89402
1.89238
1.89489
1.89705
1.89358
1.8862
1.87594
1.86489
1.85848
1.85468
1.85393
1.85468
1.85298
1.8467
1.83852
1.82888
1.82228
1.81838
1.81635
1.81691
1.81676
1.81252
1.80628
1.79731
1.78812
1.78299
1.77945
1.77813
1.77923
1.77984
1.77659
1.77123
1.76407
1.75616
1.75104
1.7476
1.74489
1.74418
1.74354
1.7395
1.73426
1.72847
1.72214
1.71757
1.71421
1.71133
1.70909
1.70629
1.70324
1.6999
1.69567
1.69132
1.68788
1.68472
1.68172
1.6785
1.67514
1.67151
1.66748
1.66385
1.66082
1.65789
1.65489
1.65172
1.64829
1.64442
1.63988
1.63539
1.63211
1.62924
1.62663
1.62454
1.62194
1.61925
1.61658
1.61344
1.60918
1.6052
1.60251
1.60007
1.5981
1.59606
1.59341
1.77214
1.76064
1.75052
1.74826
1.74788
1.74867
1.75139
1.75375
1.75517
1.75542
1.75498
1.75024
1.73686
1.72273
1.71943
1.71954
1.72069
1.72495
1.72756
1.72785
1.72806
1.72759
1.72548
1.7176
1.70268
1.69361
1.69251
1.69231
1.69309
1.69401
1.69391
1.69408
1.69387
1.69289
1.68821
1.67811
1.67373
1.67294
1.67203
1.67118
1.66983
1.66791
1.66554
1.66156
1.65337
1.64585
1.64535
1.64522
1.64517
1.64552
1.64599
1.6459
1.64536
1.64402
1.6406
1.63226
1.62038
1.6147
1.61436
1.61437
1.6149
1.61596
1.616
1.61606
1.6159
1.61512
1.61323
1.60751
1.59597
1.58626
1.58376
1.58292
1.5822
1.58183
1.58182
1.58243
1.58366
1.5845
1.58414
1.58256
1.57797
1.57125
1.56531
1.56085
1.55654
1.55115
1.54551
1.54391
1.54402
1.54607
1.54899
1.54887
1.54859
1.54812
1.54698
1.54469
1.53973
1.53031
1.51894
1.51308
1.51233
1.51328
1.51826
1.5241
1.52504
1.52467
1.52407
1.52235
1.51772
1.50781
1.49456
1.48712
1.48574
1.48606
1.49032
1.49826
1.50178
1.50107
1.4998
1.49685
1.48961
1.47599
1.46489
1.4619
1.46174
1.46362
1.47081
1.47955
1.48173
1.48081
1.47869
1.47271
1.45933
1.44359
1.43759
1.43697
1.43768
1.44305
1.45365
1.45957
1.45936
1.45835
1.45514
1.44571
1.42989
1.42028
1.41777
1.4174
1.42328
1.46924
1.6079
1.76529
1.84422
1.8497
1.84342
1.82503
1.81467
1.81271
1.81482
1.8233
1.82789
1.82479
1.81814
1.80733
1.79472
1.79449
1.81466
1.86033
1.91089
1.93432
1.93482
1.93023
1.91663
1.90242
1.89629
1.89409
1.89608
1.89941
1.89775
1.89071
1.88071
1.86884
1.86093
1.85675
1.85502
1.85561
1.855
1.84952
1.84175
1.83222
1.82484
1.82089
1.81827
1.81855
1.81881
1.81531
1.80926
1.80079
1.79121
1.78504
1.78145
1.77931
1.78005
1.78112
1.77866
1.77365
1.76694
1.75841
1.75237
1.74878
1.74576
1.74488
1.74498
1.74272
1.73752
1.73191
1.72542
1.71997
1.71631
1.71316
1.71068
1.70799
1.7049
1.70166
1.69768
1.69316
1.68955
1.6864
1.68346
1.68047
1.67719
1.67373
1.66985
1.66589
1.66269
1.6598
1.65691
1.65394
1.65083
1.64736
1.64301
1.63804
1.63427
1.6313
1.62851
1.62618
1.62369
1.62076
1.61797
1.6149
1.61082
1.60633
1.6034
1.60111
1.59908
1.59787
1.59614
1.59342
1.7626
1.75128
1.74767
1.74712
1.74771
1.75095
1.75365
1.75564
1.75633
1.75612
1.75225
1.73989
1.72406
1.71879
1.71869
1.71952
1.72349
1.72777
1.72825
1.72856
1.7283
1.72686
1.72064
1.70669
1.69487
1.69272
1.69245
1.6928
1.69531
1.69611
1.69587
1.69573
1.6952
1.69169
1.68214
1.67357
1.67191
1.67143
1.67094
1.67008
1.66857
1.66652
1.66395
1.65927
1.65068
1.64671
1.64666
1.64678
1.64622
1.64588
1.64605
1.64586
1.64476
1.64233
1.63652
1.62585
1.61776
1.61616
1.61583
1.61599
1.61686
1.61693
1.61679
1.61653
1.61583
1.61434
1.6104
1.60088
1.58903
1.58461
1.58402
1.5837
1.58386
1.58466
1.58593
1.58667
1.58682
1.5865
1.58481
1.57934
1.57136
1.56532
1.56125
1.55756
1.55332
1.54898
1.54752
1.54747
1.5484
1.55039
1.55027
1.54958
1.54858
1.54732
1.54538
1.54167
1.53419
1.52369
1.51661
1.51561
1.51623
1.52005
1.52453
1.52497
1.52488
1.5245
1.5231
1.51936
1.51122
1.49911
1.49095
1.48925
1.48946
1.49295
1.49972
1.50271
1.50193
1.50057
1.49784
1.49161
1.47943
1.46796
1.46426
1.464
1.46545
1.47195
1.48051
1.483
1.48221
1.48047
1.47546
1.46367
1.4475
1.43996
1.43899
1.43938
1.44385
1.45394
1.46097
1.46116
1.46027
1.45759
1.44952
1.43414
1.42297
1.41979
1.4198
1.42807
1.4855
1.62757
1.78267
1.85538
1.85612
1.84773
1.82635
1.81192
1.8097
1.81352
1.82393
1.83058
1.82859
1.82156
1.81038
1.79679
1.79021
1.80234
1.84397
1.89756
1.93276
1.93563
1.93275
1.92018
1.90393
1.89652
1.89399
1.89576
1.90029
1.90039
1.89457
1.88541
1.87357
1.86387
1.85904
1.85642
1.85687
1.85685
1.85231
1.84511
1.83569
1.82703
1.82242
1.81943
1.81965
1.82053
1.81801
1.81244
1.80442
1.79442
1.78715
1.78307
1.78037
1.78086
1.78242
1.781
1.77613
1.76962
1.76102
1.75394
1.75014
1.74724
1.74587
1.74612
1.74518
1.7406
1.73524
1.72877
1.72251
1.71846
1.7152
1.71266
1.71025
1.70705
1.70388
1.7
1.69518
1.69117
1.68809
1.68517
1.68233
1.67915
1.67579
1.67212
1.66811
1.66458
1.66157
1.65867
1.6558
1.65285
1.64962
1.6458
1.64111
1.63671
1.63354
1.63069
1.62807
1.62578
1.62281
1.61976
1.61663
1.61285
1.60811
1.60428
1.60191
1.59981
1.59818
1.59731
1.59511
1.59219
1.75234
1.74751
1.74668
1.74697
1.75052
1.75369
1.75598
1.75732
1.75733
1.75403
1.74256
1.72563
1.71835
1.71788
1.71836
1.72167
1.72736
1.72885
1.72916
1.72906
1.72803
1.72311
1.71048
1.69654
1.69286
1.69272
1.693
1.69524
1.69777
1.69775
1.69751
1.69688
1.69438
1.6856
1.67518
1.67155
1.6707
1.67048
1.67029
1.66937
1.66779
1.66564
1.6627
1.65733
1.64966
1.64761
1.64756
1.6478
1.6471
1.64601
1.64569
1.64516
1.64358
1.64005
1.63211
1.62165
1.61888
1.61778
1.61698
1.61721
1.6175
1.61719
1.61682
1.61613
1.61476
1.61202
1.60527
1.59366
1.58634
1.58556
1.58547
1.58589
1.58746
1.58893
1.58906
1.58906
1.58849
1.58645
1.58079
1.57214
1.5652
1.56147
1.55882
1.55555
1.55225
1.55126
1.55133
1.5517
1.5518
1.55185
1.55095
1.54918
1.54746
1.54561
1.54281
1.53735
1.52856
1.52058
1.51887
1.51905
1.52151
1.52484
1.52498
1.525
1.52483
1.5238
1.52095
1.51433
1.50358
1.49499
1.49286
1.49296
1.49572
1.50126
1.5036
1.50269
1.50123
1.49878
1.4935
1.48299
1.47145
1.46685
1.46644
1.46752
1.47324
1.48139
1.48401
1.48328
1.48184
1.47769
1.46755
1.45175
1.44263
1.4411
1.44126
1.44485
1.4543
1.46217
1.46282
1.46198
1.45976
1.45291
1.4384
1.42565
1.42175
1.4222
1.43341
1.51075
1.66315
1.7984
1.85796
1.85918
1.84786
1.82783
1.81608
1.81186
1.8136
1.82413
1.83276
1.83181
1.82538
1.81397
1.7982
1.78976
1.79646
1.8291
1.88318
1.92904
1.9373
1.93598
1.92586
1.90833
1.89754
1.89381
1.89469
1.89994
1.90176
1.89754
1.88924
1.87759
1.86697
1.86169
1.85844
1.85861
1.85901
1.85528
1.84839
1.83917
1.82975
1.82456
1.82126
1.82083
1.82195
1.82085
1.81561
1.80806
1.79774
1.78913
1.78502
1.78212
1.78204
1.78381
1.78352
1.77895
1.77273
1.76415
1.75565
1.75121
1.74807
1.74623
1.74668
1.74677
1.74329
1.73813
1.73192
1.72512
1.72049
1.71705
1.71436
1.71265
1.70958
1.70618
1.70253
1.69775
1.69304
1.68973
1.68684
1.6841
1.68108
1.67783
1.67432
1.6704
1.66668
1.66352
1.66055
1.65764
1.6547
1.65163
1.64813
1.64375
1.63909
1.63571
1.63291
1.63029
1.62807
1.62536
1.62227
1.61912
1.61546
1.61072
1.60613
1.60323
1.60088
1.59883
1.59726
1.59547
1.5928
1.59002
1.74775
1.74654
1.74657
1.75021
1.75425
1.75635
1.75826
1.75852
1.75555
1.7447
1.7274
1.71829
1.71717
1.7174
1.72004
1.72641
1.72966
1.72992
1.73
1.72924
1.72523
1.7138
1.69845
1.69292
1.69281
1.69321
1.69562
1.69847
1.69887
1.69887
1.69843
1.69657
1.68903
1.67673
1.67162
1.67076
1.67024
1.67029
1.67016
1.66929
1.66779
1.66556
1.66183
1.65544
1.64927
1.64803
1.64806
1.64815
1.6475
1.64604
1.64485
1.64384
1.6419
1.63726
1.62795
1.62089
1.61984
1.61862
1.61757
1.61751
1.61736
1.61688
1.61614
1.6149
1.6127
1.60823
1.59915
1.58939
1.58755
1.58757
1.58798
1.58983
1.59139
1.59107
1.59078
1.59008
1.5881
1.58216
1.57288
1.56592
1.56207
1.55984
1.55796
1.55567
1.55487
1.55492
1.55549
1.55536
1.55451
1.552
1.54964
1.54768
1.54582
1.54356
1.53967
1.53281
1.52499
1.52248
1.52227
1.52319
1.52511
1.52513
1.52513
1.52499
1.52423
1.52222
1.51708
1.50788
1.49925
1.49653
1.49648
1.4985
1.50283
1.50445
1.50344
1.50189
1.49967
1.49526
1.48646
1.47528
1.46974
1.46915
1.46988
1.47472
1.48224
1.48484
1.48414
1.48287
1.47944
1.47092
1.45611
1.44559
1.44331
1.44336
1.44624
1.45473
1.46298
1.46423
1.46341
1.46162
1.45594
1.4428
1.42843
1.42373
1.42432
1.43962
1.5291
1.70261
1.81865
1.86221
1.86214
1.85244
1.83134
1.81933
1.81514
1.81648
1.82597
1.83445
1.83373
1.82829
1.81752
1.79955
1.78786
1.79019
1.81325
1.86403
1.92088
1.93916
1.93921
1.93127
1.9138
1.9006
1.89582
1.89519
1.89948
1.90278
1.89962
1.89249
1.88184
1.87031
1.86367
1.86001
1.85981
1.86079
1.85842
1.85198
1.84321
1.83295
1.8264
1.82266
1.8216
1.82282
1.82286
1.81846
1.81177
1.80227
1.79236
1.78679
1.78319
1.78241
1.78433
1.78536
1.78198
1.77608
1.76782
1.7585
1.7529
1.74975
1.74741
1.74753
1.74813
1.7458
1.74094
1.73512
1.72797
1.72251
1.7189
1.71589
1.7142
1.71239
1.7088
1.70521
1.70071
1.69542
1.69153
1.6886
1.68587
1.68296
1.67983
1.67649
1.67268
1.66884
1.66565
1.66266
1.65969
1.65667
1.65358
1.6502
1.64609
1.64123
1.63743
1.63467
1.6321
1.62997
1.6278
1.6249
1.62184
1.61844
1.61406
1.60909
1.60541
1.60274
1.60036
1.59845
1.59601
1.59321
1.59048
1.58767
1.74669
1.74654
1.74978
1.75518
1.75706
1.75922
1.75971
1.75681
1.74638
1.72891
1.71833
1.71646
1.71655
1.71873
1.72538
1.73043
1.73109
1.73127
1.73073
1.72724
1.71653
1.70041
1.69301
1.69269
1.69312
1.6958
1.69939
1.69977
1.69975
1.69945
1.69821
1.69227
1.67945
1.67148
1.6707
1.67039
1.67052
1.67061
1.67045
1.66971
1.66838
1.66605
1.66
1.65288
1.64911
1.64818
1.64823
1.64818
1.64737
1.64571
1.64388
1.64214
1.63974
1.63441
1.62619
1.62154
1.61966
1.61847
1.61759
1.61709
1.61658
1.61585
1.61488
1.61329
1.61022
1.60399
1.59433
1.58984
1.58985
1.5901
1.5915
1.59325
1.59281
1.59228
1.59127
1.58923
1.58403
1.57458
1.56642
1.56299
1.56126
1.55991
1.55908
1.55889
1.55891
1.55886
1.5588
1.55796
1.55381
1.54938
1.5475
1.54592
1.54406
1.5414
1.53632
1.5291
1.52612
1.52572
1.52571
1.52595
1.52573
1.5254
1.5251
1.52441
1.52285
1.51915
1.51182
1.50351
1.50024
1.50008
1.50128
1.50436
1.50532
1.50422
1.50266
1.50056
1.4969
1.48976
1.47949
1.47293
1.47208
1.47249
1.4764
1.48311
1.48559
1.48488
1.48371
1.48084
1.47376
1.46044
1.44904
1.44581
1.44572
1.44794
1.45546
1.46367
1.46524
1.46454
1.46306
1.45837
1.44718
1.43212
1.42568
1.42697
1.44997
1.54724
1.71882
1.83871
1.86948
1.868
1.85641
1.83401
1.81959
1.81605
1.81747
1.82753
1.836
1.83471
1.82961
1.81998
1.80501
1.78918
1.78659
1.80126
1.84555
1.90452
1.93853
1.94022
1.93535
1.9197
1.90405
1.89783
1.89627
1.89962
1.90385
1.90177
1.89521
1.88548
1.87386
1.86611
1.86215
1.86108
1.86201
1.86114
1.85514
1.8469
1.83667
1.82902
1.82507
1.82303
1.82382
1.82447
1.82091
1.81465
1.80561
1.79551
1.78942
1.78605
1.78428
1.78534
1.78669
1.7841
1.77861
1.77124
1.76196
1.75498
1.75134
1.74857
1.74826
1.74909
1.74799
1.74335
1.73784
1.73088
1.72461
1.72077
1.71764
1.71548
1.71442
1.71132
1.70761
1.70356
1.69835
1.69369
1.6905
1.68767
1.68478
1.6817
1.67844
1.6748
1.67093
1.66765
1.66466
1.66176
1.65876
1.65565
1.65245
1.64874
1.64394
1.63925
1.6362
1.63367
1.63141
1.62959
1.62722
1.62456
1.62157
1.61762
1.61235
1.60797
1.60512
1.60256
1.60039
1.59794
1.59511
1.59219
1.58874
1.58479
1.74685
1.74984
1.75572
1.75808
1.7602
1.76069
1.75778
1.7477
1.73046
1.71864
1.71593
1.71584
1.71758
1.72448
1.73094
1.73259
1.73293
1.73257
1.72936
1.71902
1.70224
1.69309
1.6923
1.69278
1.6955
1.70014
1.70092
1.70075
1.70041
1.69927
1.6946
1.6829
1.67207
1.67028
1.6702
1.67075
1.67139
1.67138
1.67119
1.67047
1.66901
1.66452
1.65564
1.65083
1.64905
1.64824
1.64816
1.64786
1.64683
1.64505
1.64295
1.64057
1.63756
1.63248
1.62528
1.62143
1.61923
1.61757
1.61672
1.61614
1.61548
1.61455
1.61336
1.61143
1.60736
1.59981
1.59348
1.59219
1.59218
1.59261
1.5942
1.59415
1.59361
1.59246
1.59018
1.58526
1.57682
1.56824
1.56418
1.5629
1.56208
1.56195
1.56221
1.56281
1.56269
1.56215
1.56032
1.55582
1.55006
1.54697
1.54578
1.54433
1.54208
1.53883
1.53364
1.52968
1.52903
1.52861
1.52781
1.52669
1.52589
1.52535
1.52467
1.5234
1.5207
1.51506
1.50743
1.50376
1.50357
1.5041
1.50592
1.50626
1.50516
1.50366
1.50166
1.4986
1.49271
1.48364
1.47645
1.47514
1.47534
1.4783
1.484
1.48636
1.48567
1.48453
1.48204
1.47605
1.46438
1.45282
1.44862
1.44839
1.45004
1.45649
1.46423
1.46603
1.46539
1.46413
1.46021
1.45095
1.43633
1.42839
1.43076
1.46356
1.5841
1.73585
1.84991
1.87334
1.87088
1.85989
1.83846
1.82056
1.8158
1.81714
1.82628
1.83746
1.83811
1.83249
1.82233
1.80751
1.79224
1.78834
1.79679
1.8319
1.88814
1.93264
1.93896
1.9363
1.92375
1.90769
1.9003
1.89807
1.90052
1.90504
1.90424
1.89792
1.88877
1.87723
1.86826
1.864
1.86213
1.86285
1.86285
1.8578
1.85013
1.84046
1.83168
1.82706
1.8242
1.82454
1.82564
1.8232
1.81757
1.80942
1.79917
1.79141
1.78742
1.78512
1.786
1.7878
1.78631
1.78127
1.77432
1.76504
1.75716
1.75332
1.75049
1.74962
1.75042
1.75014
1.74603
1.74067
1.73376
1.72671
1.72241
1.71916
1.71667
1.71583
1.71395
1.7102
1.70636
1.7014
1.69616
1.69264
1.68971
1.68678
1.68373
1.68051
1.67687
1.67284
1.66948
1.6666
1.66379
1.66096
1.65782
1.65451
1.65087
1.64649
1.64154
1.63789
1.63526
1.6329
1.631
1.62895
1.62624
1.62341
1.62016
1.61579
1.61106
1.60768
1.605
1.60269
1.60049
1.59765
1.59463
1.59126
1.58711
1.5828
1.75023
1.75626
1.75894
1.76092
1.76131
1.7584
1.74865
1.73195
1.71946
1.7158
1.71536
1.71661
1.72368
1.73155
1.73399
1.73475
1.7346
1.73153
1.72133
1.70406
1.69333
1.69184
1.69227
1.69473
1.70034
1.70224
1.70187
1.70167
1.70059
1.69645
1.68585
1.6736
1.67008
1.66992
1.67036
1.67203
1.67225
1.6723
1.67199
1.67103
1.66801
1.65932
1.65162
1.64994
1.64888
1.64816
1.6478
1.64718
1.64605
1.64435
1.64224
1.63975
1.63641
1.63124
1.62347
1.62009
1.61853
1.61627
1.61541
1.6152
1.6146
1.61351
1.61203
1.60962
1.60448
1.59787
1.5954
1.59401
1.59382
1.59422
1.59477
1.59446
1.59347
1.59124
1.58675
1.57903
1.57051
1.56619
1.56494
1.56444
1.56455
1.56521
1.56592
1.56581
1.56526
1.56291
1.55659
1.55079
1.548
1.54614
1.54461
1.54303
1.5405
1.53672
1.53365
1.53258
1.53147
1.52991
1.52828
1.52674