/*--------------------------------*- C++ -*----------------------------------*\
  =========                 |
  \\      /  F ield         | OpenFOAM: The Open Source CFD Toolbox
   \\    /   O peration     | Website:  https://openfoam.org
    \\  /    A nd           | Version:  7
     \\/     M anipulation  |
\*---------------------------------------------------------------------------*/
FoamFile
{
    version     2.0;
    format      ascii;
    class       volVectorField;
    location    "3.8";
    object      U;
}
// * * * * * * * * * * * * * * * * * * * * * * * * * * * * * * * * * * * * * //

dimensions      [0 1 -1 0 0 0 0];

internalField   nonuniform List<vector> 
16512
(
(2.16867 0.670275 0)
(2.17552 0.667337 0)
(2.18076 0.661036 0)
(2.18432 0.65253 0)
(2.18656 0.643291 0)
(2.18411 0.631371 0)
(2.17481 0.6153 0)
(2.17196 0.604517 0)
(2.17787 0.604523 0)
(2.18528 0.603075 0)
(2.19404 0.6017 0)
(2.20384 0.600536 0)
(2.21375 0.598912 0)
(2.22249 0.596591 0)
(2.23048 0.594024 0)
(2.23743 0.59115 0)
(2.24258 0.587152 0)
(2.24189 0.577705 0)
(2.22929 0.559769 0)
(2.22292 0.546213 0)
(2.22953 0.544156 0)
(2.23763 0.541491 0)
(2.24754 0.538153 0)
(2.25637 0.535615 0)
(2.2643 0.534503 0)
(2.27193 0.532782 0)
(2.27877 0.529778 0)
(2.28462 0.526277 0)
(2.28711 0.52045 0)
(2.28155 0.50941 0)
(2.27926 0.500076 0)
(2.28557 0.497526 0)
(2.29225 0.494536 0)
(2.29907 0.490746 0)
(2.30603 0.487735 0)
(2.31253 0.48483 0)
(2.31745 0.480753 0)
(2.31743 0.472651 0)
(2.3099 0.458844 0)
(2.30893 0.448202 0)
(2.31586 0.447424 0)
(2.3232 0.443907 0)
(2.33068 0.439832 0)
(2.33956 0.438122 0)
(2.34752 0.435632 0)
(2.35384 0.43319 0)
(2.35926 0.431764 0)
(2.36311 0.428553 0)
(2.36164 0.420602 0)
(2.35371 0.407585 0)
(2.35369 0.398394 0)
(2.35811 0.394389 0)
(2.36494 0.390842 0)
(2.37224 0.38678 0)
(2.37857 0.383836 0)
(2.38472 0.380619 0)
(2.38982 0.378111 0)
(2.3949 0.37548 0)
(2.39889 0.371316 0)
(2.40047 0.367867 0)
(2.39926 0.364823 0)
(2.3958 0.356628 0)
(2.39846 0.347507 0)
(2.40302 0.342199 0)
(2.40871 0.337268 0)
(2.41465 0.331974 0)
(2.41982 0.327066 0)
(2.42405 0.322155 0)
(2.42612 0.315923 0)
(2.42451 0.307539 0)
(2.42424 0.301856 0)
(2.42803 0.302558 0)
(2.43332 0.304758 0)
(2.43972 0.305623 0)
(2.44527 0.304792 0)
(2.45136 0.300663 0)
(2.45704 0.294916 0)
(2.46247 0.289001 0)
(2.46654 0.28209 0)
(2.46724 0.272502 0)
(2.46112 0.258699 0)
(2.45225 0.244479 0)
(2.45107 0.238517 0)
(2.45411 0.239335 0)
(2.46185 0.242304 0)
(2.47611 0.250273 0)
(2.49238 0.258529 0)
(2.50055 0.259353 0)
(2.50558 0.256564 0)
(2.51035 0.250897 0)
(2.51149 0.241955 0)
(2.50317 0.225958 0)
(2.48254 0.199423 0)
(2.46851 0.180973 0)
(2.46976 0.176283 0)
(2.47339 0.176877 0)
(2.48184 0.178981 0)
(2.49804 0.187992 0)
(2.51995 0.20257 0)
(2.53414 0.208969 0)
(2.53866 0.208544 0)
(2.54418 0.205379 0)
(2.54765 0.2005 0)
(2.54492 0.190232 0)
(2.52984 0.169443 0)
(2.50937 0.142831 0)
(2.50359 0.130397 0)
(2.50645 0.128302 0)
(2.51086 0.128428 0)
(2.52174 0.131431 0)
(2.54021 0.142762 0)
(2.56156 0.156844 0)
(2.57169 0.16097 0)
(2.57515 0.159999 0)
(2.57876 0.156382 0)
(2.5777 0.148352 0)
(2.56603 0.132023 0)
(2.54604 0.107018 0)
(2.53734 0.0926154 0)
(2.53958 0.0896392 0)
(2.54331 0.0898433 0)
(2.55335 0.0924903 0)
(2.57065 0.102469 0)
(2.58814 0.112658 0)
(2.59421 0.114243 0)
(2.59771 0.112406 0)
(2.5998 0.107136 0)
(2.59299 0.0952548 0)
(2.5741 0.0732876 0)
(2.56018 0.0558987 0)
(2.56047 0.0513313 0)
(2.56328 0.051222 0)
(2.57138 0.052558 0)
(2.58663 0.0605319 0)
(2.60465 0.0709472 0)
(2.61218 0.0735042 0)
(2.61489 0.0722638 0)
(2.61708 0.068042 0)
(2.61237 0.0579365 0)
(2.59605 0.0386088 0)
(2.58275 0.0216586 0)
(2.58334 0.0170645 0)
(2.58644 0.0168094 0)
(2.59379 0.0172509 0)
(2.60804 0.0233792 0)
(2.62485 0.0325526 0)
(2.63203 0.0350279 0)
(2.63473 0.0341725 0)
(2.63733 0.0314182 0)
(2.63574 0.0248377 0)
(2.6237 0.0103621 0)
(2.6076 -0.0076794 0)
(2.60459 -0.0148223 0)
(2.60699 -0.0152533 0)
(2.61226 -0.0156618 0)
(2.62336 -0.0109073 0)
(2.63891 0.00112716 0)
(2.64276 -0.00437851 0)
(2.61624 -0.0515976 0)
(2.47711 -0.243024 0)
(2.29214 -0.487317 0)
(2.19766 -0.534959 0)
(2.13573 -0.590854 0)
(2.11898 -0.648284 0)
(2.11166 -0.652338 0)
(2.1145 -0.642114 0)
(2.13463 -0.614161 0)
(2.15564 -0.596903 0)
(2.16418 -0.59979 0)
(2.16655 -0.61003 0)
(2.14673 -0.635029 0)
(2.11612 -0.667456 0)
(2.04539 -0.713748 0)
(1.9709 -0.769872 0)
(1.95531 -0.774518 0)
(1.96278 -0.775361 0)
(1.96595 -0.776564 0)
(1.9688 -0.780781 0)
(1.96648 -0.790523 0)
(1.96509 -0.799581 0)
(1.9707 -0.802229 0)
(1.97727 -0.802045 0)
(1.98879 -0.800214 0)
(2.00068 -0.795806 0)
(2.00647 -0.794725 0)
(2.0102 -0.797198 0)
(2.01151 -0.802258 0)
(2.01123 -0.80899 0)
(2.01513 -0.813045 0)
(2.02049 -0.814808 0)
(2.02817 -0.815013 0)
(2.03876 -0.813259 0)
(2.0444 -0.813014 0)
(2.04903 -0.815776 0)
(2.05051 -0.820169 0)
(2.04997 -0.825344 0)
(2.05337 -0.828301 0)
(2.05806 -0.829585 0)
(2.06459 -0.829383 0)
(2.0756 -0.827038 0)
(2.08475 -0.824662 0)
(2.08896 -0.825754 0)
(2.09225 -0.828871 0)
(2.09125 -0.833498 0)
(2.08894 -0.838694 0)
(2.09209 -0.84096 0)
(2.09625 -0.841658 0)
(2.1024 -0.841343 0)
(2.11324 -0.838741 0)
(2.12349 -0.835475 0)
(2.12786 -0.835677 0)
(2.13172 -0.837953 0)
(2.13235 -0.840938 0)
(2.13081 -0.844813 0)
(2.13386 -0.846993 0)
(2.13828 -0.848055 0)
(2.14326 -0.848114 0)
(2.15049 -0.847285 0)
(2.15806 -0.846109 0)
(2.16208 -0.846975 0)
(2.16642 -0.849078 0)
(2.16947 -0.85089 0)
(2.1721 -0.852303 0)
(2.17587 -0.853289 0)
(2.17981 -0.85387 0)
(2.1841 -0.853846 0)
(2.18805 -0.85404 0)
(2.19185 -0.854977 0)
(2.19523 -0.856058 0)
(2.19772 -0.857359 0)
(2.20006 -0.858646 0)
(2.20363 -0.859559 0)
(2.20738 -0.860155 0)
(2.21117 -0.860621 0)
(2.21486 -0.861188 0)
(2.21822 -0.861687 0)
(2.22102 -0.86186 0)
(2.22412 -0.861858 0)
(2.22784 -0.861933 0)
(2.23181 -0.86192 0)
(2.23597 -0.86156 0)
(2.23998 -0.861194 0)
(2.24377 -0.861635 0)
(2.2474 -0.862495 0)
(2.25062 -0.863544 0)
(2.253 -0.864773 0)
(2.25449 -0.865746 0)
(2.25721 -0.866056 0)
(2.26108 -0.865853 0)
(2.26544 -0.865491 0)
(2.27013 -0.864369 0)
(2.27439 -0.862689 0)
(2.27814 -0.862432 0)
(2.28144 -0.862719 0)
(2.28409 -0.863514 0)
(2.2864 -0.865286 0)
(2.2883 -0.866489 0)
(2.2916 -0.86715 0)
(2.17103 0.67808 0)
(2.17552 0.670574 0)
(2.17869 0.661131 0)
(2.18189 0.652615 0)
(2.1829 0.643515 0)
(2.17724 0.630748 0)
(2.1701 0.61669 0)
(2.17427 0.613932 0)
(2.1811 0.613058 0)
(2.18929 0.611603 0)
(2.19879 0.610249 0)
(2.20878 0.608616 0)
(2.21775 0.606553 0)
(2.22605 0.604103 0)
(2.23345 0.601291 0)
(2.23946 0.597713 0)
(2.24137 0.590294 0)
(2.23242 0.574916 0)
(2.22031 0.557333 0)
(2.22336 0.551968 0)
(2.23077 0.550441 0)
(2.23997 0.547939 0)
(2.25054 0.54561 0)
(2.25954 0.543584 0)
(2.26714 0.543043 0)
(2.27466 0.542238 0)
(2.28087 0.539936 0)
(2.28483 0.536254 0)
(2.28332 0.527598 0)
(2.27752 0.514292 0)
(2.28022 0.507852 0)
(2.28701 0.505638 0)
(2.29407 0.502384 0)
(2.30065 0.498262 0)
(2.30709 0.494775 0)
(2.31305 0.490677 0)
(2.31608 0.484289 0)
(2.3119 0.472913 0)
(2.30605 0.460009 0)
(2.31111 0.456345 0)
(2.31792 0.455068 0)
(2.3255 0.45143 0)
(2.33345 0.448216 0)
(2.34215 0.446794 0)
(2.34957 0.444305 0)
(2.35527 0.442116 0)
(2.36 0.44041 0)
(2.36183 0.434391 0)
(2.35517 0.419648 0)
(2.34833 0.407789 0)
(2.35293 0.403792 0)
(2.35837 0.400418 0)
(2.36602 0.396467 0)
(2.37358 0.392613 0)
(2.37971 0.390536 0)
(2.38571 0.388681 0)
(2.39098 0.386893 0)
(2.39618 0.385269 0)
(2.40059 0.382793 0)
(2.40183 0.379412 0)
(2.39772 0.372181 0)
(2.39257 0.359847 0)
(2.39766 0.351738 0)
(2.40242 0.346765 0)
(2.4081 0.341716 0)
(2.41385 0.336497 0)
(2.41864 0.331688 0)
(2.42206 0.326574 0)
(2.42273 0.320025 0)
(2.42342 0.314866 0)
(2.42683 0.31513 0)
(2.43164 0.317063 0)
(2.43651 0.317939 0)
(2.44162 0.315872 0)
(2.44502 0.309276 0)
(2.44898 0.302073 0)
(2.45428 0.296169 0)
(2.45917 0.290015 0)
(2.46159 0.281787 0)
(2.45881 0.270499 0)
(2.45227 0.257994 0)
(2.45073 0.251849 0)
(2.45348 0.252393 0)
(2.46021 0.25459 0)
(2.47278 0.260828 0)
(2.48756 0.267524 0)
(2.49502 0.268339 0)
(2.50067 0.265963 0)
(2.50577 0.261069 0)
(2.50773 0.253082 0)
(2.50165 0.238667 0)
(2.483 0.21384 0)
(2.46704 0.193728 0)
(2.46708 0.187743 0)
(2.4705 0.188291 0)
(2.47873 0.190567 0)
(2.4947 0.199518 0)
(2.51613 0.213386 0)
(2.52992 0.218974 0)
(2.53453 0.218223 0)
(2.54028 0.214672 0)
(2.54412 0.209989 0)
(2.54232 0.200408 0)
(2.52834 0.180858 0)
(2.50743 0.154316 0)
(2.50024 0.141199 0)
(2.50299 0.138738 0)
(2.50719 0.139034 0)
(2.51792 0.14212 0)
(2.53633 0.153347 0)
(2.55784 0.167401 0)
(2.56844 0.171435 0)
(2.57202 0.170295 0)
(2.57584 0.16637 0)
(2.57526 0.158573 0)
(2.56428 0.142783 0)
(2.54409 0.11765 0)
(2.53427 0.102415 0)
(2.53624 0.0990738 0)
(2.53985 0.0992792 0)
(2.54956 0.10171 0)
(2.56675 0.111549 0)
(2.58546 0.122689 0)
(2.59254 0.124984 0)
(2.59616 0.123348 0)
(2.59886 0.11853 0)
(2.59336 0.107485 0)
(2.57515 0.0862304 0)
(2.55886 0.0668081 0)
(2.55796 0.0607442 0)
(2.56037 0.0605318 0)
(2.56755 0.0613929 0)
(2.58191 0.0684097 0)
(2.60074 0.0796325 0)
(2.61037 0.0835154 0)
(2.61307 0.0827203 0)
(2.61555 0.0790544 0)
(2.61219 0.069966 0)
(2.5966 0.0514569 0)
(2.58068 0.0321107 0)
(2.57969 0.0256468 0)
(2.58257 0.0252733 0)
(2.58897 0.0253312 0)
(2.60239 0.0304366 0)
(2.62043 0.0405002 0)
(2.63018 0.0445396 0)
(2.63285 0.0440262 0)
(2.63574 0.041603 0)
(2.63533 0.035937 0)
(2.62509 0.0227382 0)
(2.60767 0.00358351 0)
(2.60196 -0.00589421 0)
(2.6043 -0.00665387 0)
(2.60871 -0.00733893 0)
(2.61925 -0.00381007 0)
(2.63387 0.00920578 0)
(2.63922 0.0040524 0)
(2.61162 -0.0491679 0)
(2.47043 -0.233281 0)
(2.23996 -0.510509 0)
(2.16586 -0.586549 0)
(2.12978 -0.589829 0)
(2.12696 -0.609907 0)
(2.12663 -0.620838 0)
(2.12905 -0.62241 0)
(2.13673 -0.615507 0)
(2.14915 -0.603656 0)
(2.15734 -0.599115 0)
(2.16309 -0.60141 0)
(2.15686 -0.614224 0)
(2.13447 -0.639673 0)
(2.0824 -0.677581 0)
(1.9922 -0.747165 0)
(1.95794 -0.769861 0)
(1.96004 -0.768782 0)
(1.96607 -0.770104 0)
(1.9696 -0.772263 0)
(1.97111 -0.780881 0)
(1.9673 -0.790516 0)
(1.96899 -0.794572 0)
(1.9745 -0.795561 0)
(1.98526 -0.794835 0)
(1.9993 -0.79066 0)
(2.0077 -0.789313 0)
(2.01162 -0.791114 0)
(2.01334 -0.795266 0)
(2.01152 -0.801476 0)
(2.01349 -0.805486 0)
(2.01838 -0.807068 0)
(2.02496 -0.807277 0)
(2.03611 -0.805801 0)
(2.04466 -0.80473 0)
(2.04904 -0.806573 0)
(2.05201 -0.810407 0)
(2.05105 -0.815835 0)
(2.05228 -0.819862 0)
(2.05705 -0.821542 0)
(2.06244 -0.821818 0)
(2.07223 -0.820636 0)
(2.0833 -0.81782 0)
(2.08848 -0.817932 0)
(2.09246 -0.82106 0)
(2.09285 -0.826335 0)
(2.09004 -0.832587 0)
(2.09159 -0.835941 0)
(2.09576 -0.83708 0)
(2.10098 -0.836683 0)
(2.11087 -0.834433 0)
(2.12226 -0.830209 0)
(2.12823 -0.829315 0)
(2.13231 -0.831532 0)
(2.13401 -0.835339 0)
(2.13266 -0.839864 0)
(2.13375 -0.842238 0)
(2.13804 -0.842985 0)
(2.14275 -0.842784 0)
(2.14913 -0.841491 0)
(2.15711 -0.839245 0)
(2.16146 -0.839144 0)
(2.16595 -0.84126 0)
(2.16932 -0.843304 0)
(2.17182 -0.845075 0)
(2.17552 -0.846302 0)
(2.17953 -0.847072 0)
(2.18386 -0.847198 0)
(2.18823 -0.846947 0)
(2.19206 -0.847565 0)
(2.19569 -0.84848 0)
(2.19852 -0.84953 0)
(2.20042 -0.850937 0)
(2.20349 -0.852226 0)
(2.20721 -0.853068 0)
(2.21103 -0.853547 0)
(2.21482 -0.854183 0)
(2.2185 -0.855024 0)
(2.22177 -0.855762 0)
(2.22461 -0.856143 0)
(2.22809 -0.856341 0)
(2.232 -0.85643 0)
(2.23615 -0.855974 0)
(2.24022 -0.855317 0)
(2.24404 -0.855335 0)
(2.24767 -0.855742 0)
(2.25086 -0.856446 0)
(2.25329 -0.857743 0)
(2.25494 -0.859346 0)
(2.2571 -0.860253 0)
(2.26092 -0.860618 0)
(2.26505 -0.860483 0)
(2.26973 -0.859304 0)
(2.27447 -0.857805 0)
(2.27859 -0.857507 0)
(2.28249 -0.857312 0)
(2.2851 -0.856948 0)
(2.28606 -0.856684 0)
(2.28693 -0.857986 0)
(2.29033 -0.859869 0)
(2.29382 -0.860405 0)
(2.16898 0.679168 0)
(2.172 0.669008 0)
(2.17614 0.660896 0)
(2.17971 0.653894 0)
(2.1791 0.645011 0)
(2.17135 0.631623 0)
(2.17011 0.623521 0)
(2.1769 0.622633 0)
(2.18447 0.621133 0)
(2.19348 0.619669 0)
(2.20364 0.617973 0)
(2.21285 0.615933 0)
(2.22135 0.613798 0)
(2.2291 0.611212 0)
(2.23573 0.608117 0)
(2.23961 0.602604 0)
(2.23472 0.589724 0)
(2.22033 0.570389 0)
(2.21861 0.560316 0)
(2.22525 0.559824 0)
(2.23368 0.557384 0)
(2.24385 0.555669 0)
(2.25448 0.554468 0)
(2.26315 0.553273 0)
(2.27073 0.552791 0)
(2.27801 0.552432 0)
(2.28361 0.550064 0)
(2.28363 0.542758 0)
(2.27605 0.528473 0)
(2.27568 0.518042 0)
(2.28142 0.514911 0)
(2.28822 0.512543 0)
(2.29557 0.508913 0)
(2.30182 0.504448 0)
(2.30773 0.50029 0)
(2.31254 0.495191 0)
(2.31245 0.486885 0)
(2.30604 0.474042 0)
(2.30711 0.466784 0)
(2.31346 0.465746 0)
(2.32071 0.463622 0)
(2.32871 0.460009 0)
(2.33647 0.457319 0)
(2.34465 0.455513 0)
(2.3514 0.452706 0)
(2.35648 0.449917 0)
(2.35926 0.446072 0)
(2.35585 0.434436 0)
(2.34591 0.417459 0)
(2.34675 0.411468 0)
(2.35268 0.409718 0)
(2.35955 0.406515 0)
(2.36784 0.40309 0)
(2.37521 0.400167 0)
(2.38144 0.398891 0)
(2.38749 0.398251 0)
(2.39339 0.397238 0)
(2.39892 0.396061 0)
(2.40296 0.393217 0)
(2.40098 0.386206 0)
(2.39192 0.37278 0)
(2.39014 0.360891 0)
(2.39702 0.356483 0)
(2.40214 0.351763 0)
(2.40773 0.346898 0)
(2.41344 0.341736 0)
(2.41779 0.337059 0)
(2.42061 0.332396 0)
(2.42317 0.328941 0)
(2.42661 0.32921 0)
(2.43082 0.330418 0)
(2.43479 0.330685 0)
(2.43831 0.327716 0)
(2.43873 0.319019 0)
(2.44107 0.309571 0)
(2.44584 0.303034 0)
(2.45102 0.297559 0)
(2.45493 0.290785 0)
(2.4549 0.28099 0)
(2.45064 0.269894 0)
(2.44978 0.264348 0)
(2.45306 0.265024 0)
(2.45911 0.266797 0)
(2.47006 0.271509 0)
(2.48275 0.276346 0)
(2.48936 0.276673 0)
(2.49523 0.274404 0)
(2.50051 0.270309 0)
(2.50324 0.263439 0)
(2.49933 0.250981 0)
(2.48403 0.229014 0)
(2.46732 0.208131 0)
(2.46513 0.200188 0)
(2.46803 0.200435 0)
(2.47565 0.202234 0)
(2.49107 0.210656 0)
(2.51199 0.22369 0)
(2.52538 0.228884 0)
(2.5301 0.227808 0)
(2.5361 0.223789 0)
(2.54021 0.218973 0)
(2.53947 0.210026 0)
(2.52716 0.192083 0)
(2.5063 0.166367 0)
(2.49755 0.152402 0)
(2.49979 0.149596 0)
(2.50374 0.150012 0)
(2.5141 0.153063 0)
(2.5323 0.164059 0)
(2.55384 0.177873 0)
(2.56466 0.181744 0)
(2.56851 0.180415 0)
(2.57256 0.176247 0)
(2.57253 0.168651 0)
(2.56249 0.153481 0)
(2.5423 0.128388 0)
(2.53111 0.112427 0)
(2.53285 0.108596 0)
(2.53628 0.108821 0)
(2.54565 0.111022 0)
(2.56275 0.120748 0)
(2.58231 0.132595 0)
(2.5906 0.135429 0)
(2.59434 0.13398 0)
(2.59762 0.129449 0)
(2.59344 0.119247 0)
(2.57619 0.0988095 0)
(2.55813 0.0777712 0)
(2.55575 0.0704249 0)
(2.55797 0.0700656 0)
(2.56421 0.0705801 0)
(2.57759 0.076687 0)
(2.59681 0.0883193 0)
(2.60843 0.0934353 0)
(2.61128 0.0929906 0)
(2.61405 0.0897865 0)
(2.61182 0.0816773 0)
(2.59749 0.0643217 0)
(2.57935 0.0429239 0)
(2.57628 0.0343367 0)
(2.57902 0.0337285 0)
(2.58444 0.0335934 0)
(2.59683 0.0376909 0)
(2.61541 0.0480964 0)
(2.62803 0.0539061 0)
(2.63092 0.0537971 0)
(2.63405 0.0516699 0)
(2.63452 0.0467306 0)
(2.62607 0.034891 0)
(2.6081 0.0152466 0)
(2.59944 0.00330854 0)
(2.60149 0.00167224 0)
(2.60527 0.00128785 0)
(2.61525 0.00337565 0)
(2.62855 0.016498 0)
(2.63631 0.0120017 0)
(2.58904 -0.0689939 0)
(2.46387 -0.251908 0)
(2.28033 -0.432797 0)
(2.13794 -0.605749 0)
(2.08642 -0.632134 0)
(2.09182 -0.621698 0)
(2.11154 -0.603589 0)
(2.13113 -0.601156 0)
(2.14851 -0.601137 0)
(2.15687 -0.597857 0)
(2.16046 -0.596785 0)
(2.16364 -0.597037 0)
(2.15797 -0.605964 0)
(2.13927 -0.62571 0)
(2.10603 -0.651587 0)
(2.02559 -0.710153 0)
(1.97083 -0.758685 0)
(1.96234 -0.761618 0)
(1.96618 -0.763752 0)
(1.96868 -0.76425 0)
(1.9711 -0.76999 0)
(1.96829 -0.780888 0)
(1.96808 -0.788054 0)
(1.97323 -0.789759 0)
(1.98187 -0.788974 0)
(1.99611 -0.785228 0)
(2.00746 -0.78316 0)
(2.01209 -0.784781 0)
(2.01497 -0.789375 0)
(2.01323 -0.795941 0)
(2.01272 -0.800756 0)
(2.01716 -0.802457 0)
(2.02256 -0.802422 0)
(2.03295 -0.800734 0)
(2.04398 -0.797986 0)
(2.04891 -0.798619 0)
(2.05265 -0.802498 0)
(2.0523 -0.808609 0)
(2.0517 -0.814089 0)
(2.05606 -0.816442 0)
(2.06123 -0.817018 0)
(2.06953 -0.815799 0)
(2.0811 -0.812539 0)
(2.08814 -0.811284 0)
(2.09227 -0.813509 0)
(2.09387 -0.81746 0)
(2.09112 -0.822926 0)
(2.09113 -0.827068 0)
(2.09539 -0.828382 0)
(2.10014 -0.828327 0)
(2.10842 -0.827212 0)
(2.11986 -0.823554 0)
(2.12829 -0.821922 0)
(2.13209 -0.823392 0)
(2.13517 -0.826485 0)
(2.13478 -0.830277 0)
(2.13425 -0.8338 0)
(2.13802 -0.835181 0)
(2.14242 -0.835605 0)
(2.14788 -0.834714 0)
(2.15575 -0.832847 0)
(2.16102 -0.831822 0)
(2.16538 -0.83361 0)
(2.16893 -0.835843 0)
(2.17126 -0.837983 0)
(2.1746 -0.8394 0)
(2.17875 -0.840305 0)
(2.1831 -0.840669 0)
(2.18791 -0.840493 0)
(2.19207 -0.840651 0)
(2.19597 -0.841524 0)
(2.19925 -0.842439 0)
(2.20139 -0.843515 0)
(2.20354 -0.844421 0)
(2.20713 -0.845066 0)
(2.21094 -0.845539 0)
(2.21478 -0.845943 0)
(2.21852 -0.846676 0)
(2.22208 -0.847538 0)
(2.22517 -0.848242 0)
(2.22824 -0.848606 0)
(2.232 -0.848958 0)
(2.23598 -0.849013 0)
(2.24015 -0.848603 0)
(2.2441 -0.84845 0)
(2.2479 -0.848734 0)
(2.25131 -0.849267 0)
(2.25396 -0.850176 0)
(2.2555 -0.851637 0)
(2.25704 -0.85317 0)
(2.26048 -0.853828 0)
(2.26436 -0.853849 0)
(2.26879 -0.853406 0)
(2.27384 -0.85257 0)
(2.27823 -0.852077 0)
(2.28243 -0.851968 0)
(2.28609 -0.851614 0)
(2.2883 -0.851366 0)
(2.28807 -0.852289 0)
(2.28949 -0.853241 0)
(2.29292 -0.853863 0)
(2.29642 -0.854121 0)
(2.16498 0.676824 0)
(2.16933 0.668788 0)
(2.17447 0.663426 0)
(2.1779 0.657852 0)
(2.1745 0.647709 0)
(2.16739 0.635044 0)
(2.17235 0.631698 0)
(2.17955 0.630231 0)
(2.18807 0.628672 0)
(2.19813 0.627049 0)
(2.20788 0.625027 0)
(2.21642 0.623145 0)
(2.22436 0.621043 0)
(2.2314 0.618315 0)
(2.23662 0.614048 0)
(2.2356 0.603733 0)
(2.22231 0.584982 0)
(2.21492 0.570495 0)
(2.22036 0.56904 0)
(2.2281 0.567376 0)
(2.23792 0.565661 0)
(2.24964 0.565108 0)
(2.25904 0.564234 0)
(2.26719 0.563481 0)
(2.27457 0.562455 0)
(2.28109 0.5614 0)
(2.28402 0.556773 0)
(2.27694 0.542746 0)
(2.2694 0.527559 0)
(2.27593 0.522968 0)
(2.28241 0.520698 0)
(2.28937 0.518047 0)
(2.29669 0.51434 0)
(2.30282 0.509595 0)
(2.30817 0.504865 0)
(2.31154 0.498987 0)
(2.30853 0.48975 0)
(2.30387 0.479064 0)
(2.30968 0.476395 0)
(2.31619 0.474801 0)
(2.3239 0.472211 0)
(2.33181 0.468599 0)
(2.33912 0.465866 0)
(2.34655 0.463529 0)
(2.35282 0.460308 0)
(2.35664 0.455936 0)
(2.35514 0.447567 0)
(2.34552 0.431676 0)
(2.34143 0.419459 0)
(2.34681 0.418222 0)
(2.35327 0.416029 0)
(2.36144 0.413522 0)
(2.37002 0.411033 0)
(2.37727 0.409202 0)
(2.38384 0.408697 0)
(2.39006 0.40858 0)
(2.39628 0.407672 0)
(2.40148 0.405256 0)
(2.4021 0.398846 0)
(2.39398 0.386486 0)
(2.3857 0.37222 0)
(2.38993 0.365 0)
(2.39678 0.362075 0)
(2.40255 0.357408 0)
(2.40792 0.352928 0)
(2.41358 0.348201 0)
(2.41809 0.344151 0)
(2.42215 0.342383 0)
(2.42647 0.343059 0)
(2.43096 0.343983 0)
(2.43495 0.343546 0)
(2.4369 0.339132 0)
(2.43426 0.328949 0)
(2.43405 0.318341 0)
(2.43819 0.311188 0)
(2.44313 0.305833 0)
(2.44761 0.299776 0)
(2.44932 0.291409 0)
(2.44714 0.281205 0)
(2.44741 0.2757 0)
(2.45137 0.276417 0)
(2.45733 0.278528 0)
(2.46756 0.282438 0)
(2.47838 0.286207 0)
(2.48406 0.286046 0)
(2.48974 0.283188 0)
(2.49474 0.278772 0)
(2.49763 0.272283 0)
(2.49545 0.261513 0)
(2.48388 0.242885 0)
(2.46858 0.22326 0)
(2.46473 0.213967 0)
(2.46701 0.21382 0)
(2.47344 0.215128 0)
(2.48749 0.222105 0)
(2.50737 0.233501 0)
(2.52017 0.237889 0)
(2.52523 0.236698 0)
(2.53158 0.232702 0)
(2.53597 0.228005 0)
(2.53624 0.219447 0)
(2.52598 0.203169 0)
(2.50599 0.178565 0)
(2.49561 0.163929 0)
(2.49731 0.160817 0)
(2.50094 0.16143 0)
(2.5107 0.164482 0)
(2.52826 0.175047 0)
(2.54946 0.1881 0)
(2.56027 0.191513 0)
(2.56443 0.190026 0)
(2.56885 0.18577 0)
(2.56954 0.178464 0)
(2.56079 0.164099 0)
(2.54091 0.139734 0)
(2.52818 0.122701 0)
(2.52934 0.11833 0)
(2.5326 0.118492 0)
(2.54158 0.120609 0)
(2.55844 0.13002 0)
(2.57873 0.142371 0)
(2.58826 0.145813 0)
(2.5921 0.144438 0)
(2.59588 0.139989 0)
(2.59313 0.130483 0)
(2.57725 0.111282 0)
(2.55774 0.0889274 0)
(2.55368 0.0800661 0)
(2.55589 0.0795131 0)
(2.56127 0.0799646 0)
(2.57368 0.0852074 0)
(2.59286 0.0969097 0)
(2.60656 0.103528 0)
(2.60961 0.103382 0)
(2.61261 0.100465 0)
(2.61139 0.0930382 0)
(2.59866 0.0769026 0)
(2.57866 0.0542513 0)
(2.57298 0.0434795 0)
(2.57571 0.0422723 0)
(2.5802 0.0420249 0)
(2.59161 0.0451907 0)
(2.61008 0.0555477 0)
(2.62535 0.0632085 0)
(2.62906 0.0635989 0)
(2.63224 0.0618068 0)
(2.63345 0.0573786 0)
(2.62669 0.0467255 0)
(2.60884 0.0272974 0)
(2.5971 0.0129088 0)
(2.59835 0.0100271 0)
(2.6019 0.00989421 0)
(2.61073 0.0107972 0)
(2.62408 0.0247232 0)
(2.62914 0.0153475 0)
(2.5793 -0.0711354 0)
(2.40397 -0.319413 0)
(2.26867 -0.464828 0)
(2.1565 -0.532124 0)
(2.12077 -0.604903 0)
(2.09818 -0.626221 0)
(2.1004 -0.620757 0)
(2.11525 -0.602174 0)
(2.14052 -0.584794 0)
(2.1583 -0.578204 0)
(2.16473 -0.580788 0)
(2.16855 -0.587036 0)
(2.16584 -0.595469 0)
(2.14499 -0.618379 0)
(2.11894 -0.63736 0)
(2.05614 -0.67938 0)
(1.98302 -0.742424 0)
(1.96673 -0.753164 0)
(1.9687 -0.75651 0)
(1.97015 -0.756893 0)
(1.9721 -0.760638 0)
(1.96978 -0.770767 0)
(1.96713 -0.77897 0)
(1.97194 -0.781197 0)
(1.97893 -0.781103 0)
(1.99271 -0.778709 0)
(2.00607 -0.775452 0)
(2.01171 -0.776087 0)
(2.01575 -0.780238 0)
(2.01542 -0.78741 0)
(2.01324 -0.794516 0)
(2.01686 -0.797281 0)
(2.02193 -0.797666 0)
(2.03058 -0.79592 0)
(2.04218 -0.791982 0)
(2.04878 -0.79102 0)
(2.05275 -0.793572 0)
(2.05401 -0.798541 0)
(2.05226 -0.804818 0)
(2.0553 -0.808175 0)
(2.06041 -0.809315 0)
(2.06719 -0.808776 0)
(2.07852 -0.806197 0)
(2.08768 -0.803865 0)
(2.09187 -0.805171 0)
(2.09469 -0.808779 0)
(2.09308 -0.814879 0)
(2.09111 -0.820754 0)
(2.0949 -0.822966 0)
(2.09952 -0.823536 0)
(2.10673 -0.822452 0)
(2.11811 -0.818731 0)
(2.12785 -0.815556 0)
(2.13217 -0.816373 0)
(2.13585 -0.819657 0)
(2.13609 -0.824752 0)
(2.13504 -0.829485 0)
(2.13792 -0.831357 0)
(2.14206 -0.83187 0)
(2.14715 -0.830687 0)
(2.15491 -0.82786 0)
(2.16098 -0.825095 0)
(2.16502 -0.825994 0)
(2.16864 -0.827736 0)
(2.17067 -0.829901 0)
(2.17336 -0.83184 0)
(2.17753 -0.833011 0)
(2.18187 -0.833555 0)
(2.18683 -0.833499 0)
(2.19165 -0.833344 0)
(2.1958 -0.834204 0)
(2.19964 -0.835221 0)
(2.20236 -0.836255 0)
(2.20409 -0.837434 0)
(2.20723 -0.838305 0)
(2.21109 -0.838804 0)
(2.21498 -0.838966 0)
(2.21877 -0.839426 0)
(2.22244 -0.840202 0)
(2.22573 -0.841072 0)
(2.22855 -0.84185 0)
(2.232 -0.84246 0)
(2.2358 -0.842884 0)
(2.23984 -0.842825 0)
(2.2439 -0.842587 0)
(2.24777 -0.842712 0)
(2.25146 -0.843058 0)
(2.25465 -0.843616 0)
(2.25665 -0.844842 0)
(2.25761 -0.846511 0)
(2.26018 -0.847282 0)
(2.26382 -0.847481 0)
(2.26781 -0.847305 0)
(2.2726 -0.846566 0)
(2.27763 -0.845471 0)
(2.28193 -0.84536 0)
(2.28602 -0.846092 0)
(2.28932 -0.846871 0)
(2.29052 -0.847587 0)
(2.29009 -0.847535 0)
(2.29223 -0.847126 0)
(2.29594 -0.847114 0)
(2.29972 -0.847011 0)
(2.16292 0.676652 0)
(2.16905 0.672525 0)
(2.17429 0.669403 0)
(2.17554 0.663261 0)
(2.1684 0.650061 0)
(2.1674 0.641096 0)
(2.17447 0.639178 0)
(2.18257 0.63738 0)
(2.19218 0.635805 0)
(2.20267 0.634104 0)
(2.21141 0.632258 0)
(2.21945 0.630611 0)
(2.22677 0.628435 0)
(2.23284 0.625004 0)
(2.23451 0.61721 0)
(2.22455 0.600779 0)
(2.2126 0.582676 0)
(2.21575 0.577741 0)
(2.22289 0.577107 0)
(2.23224 0.575576 0)
(2.24435 0.575462 0)
(2.25525 0.575069 0)
(2.26332 0.574071 0)
(2.27114 0.572967 0)
(2.27802 0.571119 0)
(2.28256 0.567167 0)
(2.27852 0.557031 0)
(2.2668 0.539903 0)
(2.26796 0.529952 0)
(2.27606 0.527736 0)
(2.28325 0.525019 0)
(2.29037 0.522633 0)
(2.29765 0.519333 0)
(2.30376 0.514608 0)
(2.30852 0.509642 0)
(2.31034 0.503642 0)
(2.30635 0.495075 0)
(2.30525 0.488013 0)
(2.31187 0.485407 0)
(2.31893 0.483236 0)
(2.32671 0.480055 0)
(2.33408 0.476387 0)
(2.34105 0.473467 0)
(2.34791 0.470552 0)
(2.3534 0.466437 0)
(2.35447 0.459415 0)
(2.34689 0.446445 0)
(2.33824 0.431468 0)
(2.3414 0.427058 0)
(2.34736 0.425451 0)
(2.3548 0.423439 0)
(2.36381 0.421779 0)
(2.37234 0.419955 0)
(2.37978 0.419041 0)
(2.38648 0.418825 0)
(2.39281 0.418434 0)
(2.39887 0.416327 0)
(2.40135 0.410488 0)
(2.39425 0.398515 0)
(2.38416 0.384388 0)
(2.38436 0.375022 0)
(2.39058 0.371545 0)
(2.39721 0.368505 0)
(2.40339 0.364121 0)
(2.40933 0.35971 0)
(2.4153 0.356574 0)
(2.42059 0.355239 0)
(2.42539 0.355763 0)
(2.43012 0.356554 0)
(2.43478 0.355943 0)
(2.43627 0.350659 0)
(2.43197 0.338909 0)
(2.42857 0.327076 0)
(2.43169 0.319905 0)
(2.43674 0.315149 0)
(2.4413 0.309681 0)
(2.44387 0.30217 0)
(2.44325 0.292718 0)
(2.44472 0.287064 0)
(2.44878 0.287486 0)
(2.45473 0.289567 0)
(2.46439 0.293354 0)
(2.47384 0.296401 0)
(2.47888 0.296336 0)
(2.48463 0.293469 0)
(2.48903 0.288173 0)
(2.49107 0.280379 0)
(2.48973 0.270162 0)
(2.48149 0.254637 0)
(2.4693 0.237319 0)
(2.46499 0.227818 0)
(2.46737 0.227653 0)
(2.4727 0.229211 0)
(2.48514 0.234852 0)
(2.50293 0.243628 0)
(2.51475 0.246414 0)
(2.51982 0.244814 0)
(2.52635 0.240754 0)
(2.53116 0.236495 0)
(2.53259 0.228861 0)
(2.52483 0.214306 0)
(2.5062 0.19126 0)
(2.49428 0.175786 0)
(2.49539 0.172232 0)
(2.49873 0.173067 0)
(2.50796 0.176357 0)
(2.52472 0.186457 0)
(2.54495 0.198238 0)
(2.55535 0.200827 0)
(2.55976 0.199051 0)
(2.56457 0.19464 0)
(2.56606 0.187762 0)
(2.55903 0.174736 0)
(2.54017 0.151432 0)
(2.52582 0.13334 0)
(2.52603 0.128172 0)
(2.52898 0.128365 0)
(2.53741 0.130383 0)
(2.55382 0.139377 0)
(2.57467 0.152011 0)
(2.58517 0.155982 0)
(2.5893 0.154636 0)
(2.59358 0.150283 0)
(2.59219 0.14152 0)
(2.57827 0.12359 0)
(2.55789 0.10028 0)
(2.55183 0.0898259 0)
(2.55398 0.0888689 0)
(2.55853 0.0893376 0)
(2.57007 0.0939486 0)
(2.58888 0.105559 0)
(2.60443 0.11353 0)
(2.60829 0.11376 0)
(2.61117 0.111193 0)
(2.61091 0.104412 0)
(2.59991 0.0895528 0)
(2.57884 0.0658977 0)
(2.56991 0.0527236 0)
(2.57234 0.050712 0)
(2.57623 0.0504591 0)
(2.58669 0.0528377 0)
(2.60475 0.0628206 0)
(2.62214 0.0722556 0)
(2.62745 0.0734376 0)
(2.63036 0.071944 0)
(2.63228 0.0680118 0)
(2.62708 0.0584326 0)
(2.60983 0.0395686 0)
(2.5952 0.0228177 0)
(2.5952 0.0184862 0)
(2.59851 0.0183787 0)
(2.60604 0.0185808 0)
(2.61897 0.0323101 0)
(2.61979 0.0171739 0)
(2.57729 -0.0646603 0)
(2.35141 -0.351835 0)
(2.22623 -0.51928 0)
(2.14979 -0.541916 0)
(2.13324 -0.554443 0)
(2.1158 -0.597636 0)
(2.11208 -0.616187 0)
(2.11371 -0.613235 0)
(2.12905 -0.593752 0)
(2.1517 -0.57333 0)
(2.16089 -0.568114 0)
(2.16773 -0.571274 0)
(2.1696 -0.580636 0)
(2.15615 -0.599413 0)
(2.13285 -0.625318 0)
(2.08552 -0.657784 0)
(2.00163 -0.723831 0)
(1.97165 -0.744545 0)
(1.97169 -0.747757 0)
(1.97298 -0.749439 0)
(1.97424 -0.752065 0)
(1.97264 -0.762237 0)
(1.96744 -0.772658 0)
(1.97083 -0.776048 0)
(1.9769 -0.775864 0)
(1.98974 -0.773077 0)
(2.0048 -0.767805 0)
(2.01222 -0.767144 0)
(2.01629 -0.770352 0)
(2.01682 -0.777383 0)
(2.01369 -0.786256 0)
(2.01617 -0.791081 0)
(2.02116 -0.79224 0)
(2.02907 -0.791314 0)
(2.04105 -0.787323 0)
(2.04932 -0.784811 0)
(2.05329 -0.786562 0)
(2.05474 -0.791592 0)
(2.05269 -0.798605 0)
(2.05435 -0.803092 0)
(2.05933 -0.804642 0)
(2.06557 -0.804121 0)
(2.07629 -0.801537 0)
(2.08688 -0.797972 0)
(2.09169 -0.79822 0)
(2.09551 -0.801343 0)
(2.09486 -0.806581 0)
(2.09192 -0.81226 0)
(2.09439 -0.814791 0)
(2.09888 -0.815529 0)
(2.10491 -0.814699 0)
(2.11572 -0.81199 0)
(2.12677 -0.808114 0)
(2.13189 -0.807971 0)
(2.13604 -0.810615 0)
(2.1374 -0.814314 0)
(2.13559 -0.819467 0)
(2.13771 -0.822952 0)
(2.14187 -0.824019 0)
(2.14659 -0.823801 0)
(2.15392 -0.822195 0)
(2.16133 -0.819262 0)
(2.1652 -0.819428 0)
(2.16894 -0.820723 0)
(2.17064 -0.822514 0)
(2.17234 -0.824677 0)
(2.17622 -0.826075 0)
(2.18037 -0.826777 0)
(2.18526 -0.826691 0)
(2.19071 -0.826348 0)
(2.19517 -0.82698 0)
(2.19948 -0.828275 0)
(2.20294 -0.829411 0)
(2.20495 -0.83059 0)
(2.20731 -0.831407 0)
(2.21117 -0.831775 0)
(2.2151 -0.831747 0)
(2.21899 -0.831817 0)
(2.22275 -0.832291 0)
(2.22619 -0.83292 0)
(2.22901 -0.833563 0)
(2.23184 -0.83408 0)
(2.23553 -0.834593 0)
(2.23939 -0.834961 0)
(2.24345 -0.835023 0)
(2.2474 -0.835131 0)
(2.25117 -0.835683 0)
(2.25469 -0.836554 0)
(2.25738 -0.837767 0)
(2.2586 -0.839252 0)
(2.26017 -0.840221 0)
(2.26358 -0.840437 0)
(2.26728 -0.840179 0)
(2.27157 -0.839487 0)
(2.27667 -0.838732 0)
(2.28115 -0.83859 0)
(2.28541 -0.8395 0)
(2.28941 -0.840331 0)
(2.29208 -0.841021 0)
(2.29213 -0.842035 0)
(2.2925 -0.842563 0)
(2.29579 -0.842178 0)
(2.2997 -0.841449 0)
(2.30378 -0.840005 0)
(2.16419 0.681866 0)
(2.17045 0.679966 0)
(2.17441 0.67615 0)
(2.17043 0.665166 0)
(2.16374 0.652246 0)
(2.16913 0.648302 0)
(2.17683 0.646245 0)
(2.18613 0.644409 0)
(2.19686 0.643081 0)
(2.20638 0.641456 0)
(2.21446 0.640057 0)
(2.22187 0.638444 0)
(2.2284 0.63589 0)
(2.23213 0.630094 0)
(2.22632 0.615984 0)
(2.21194 0.595917 0)
(2.21133 0.586865 0)
(2.21793 0.586713 0)
(2.22671 0.585127 0)
(2.23859 0.585241 0)
(2.25092 0.585462 0)
(2.25915 0.584312 0)
(2.26729 0.583234 0)
(2.27449 0.581372 0)
(2.2802 0.57775 0)
(2.27945 0.568294 0)
(2.26711 0.551801 0)
(2.26207 0.539545 0)
(2.26846 0.535739 0)
(2.27644 0.532287 0)
(2.28429 0.529337 0)
(2.29137 0.527578 0)
(2.29866 0.524912 0)
(2.30479 0.520576 0)
(2.30896 0.515982 0)
(2.30952 0.510543 0)
(2.3063 0.502779 0)
(2.30698 0.496614 0)
(2.31369 0.493195 0)
(2.32124 0.490556 0)
(2.3288 0.486919 0)
(2.33567 0.483347 0)
(2.34234 0.48012 0)
(2.34851 0.476377 0)
(2.35234 0.470907 0)
(2.34914 0.460673 0)
(2.33825 0.445738 0)
(2.3369 0.437259 0)
(2.34237 0.436217 0)
(2.34876 0.43393 0)
(2.35691 0.432072 0)
(2.36645 0.430439 0)
(2.37461 0.429097 0)
(2.38224 0.428457 0)
(2.38899 0.427929 0)
(2.39528 0.426523 0)
(2.39931 0.422049 0)
(2.39522 0.410534 0)
(2.38219 0.394824 0)
(2.38023 0.385223 0)
(2.38572 0.381894 0)
(2.39171 0.378983 0)
(2.39847 0.375741 0)
(2.40543 0.37216 0)
(2.41227 0.369531 0)
(2.41864 0.368192 0)
(2.42391 0.367633 0)
(2.42851 0.367695 0)
(2.43323 0.367008 0)
(2.43502 0.362169 0)
(2.42987 0.349903 0)
(2.4239 0.336035 0)
(2.42599 0.327981 0)
(2.43105 0.324198 0)
(2.43611 0.320015 0)
(2.43977 0.313416 0)
(2.44066 0.304928 0)
(2.44306 0.299535 0)
(2.44692 0.299573 0)
(2.45265 0.300825 0)
(2.46137 0.304092 0)
(2.46886 0.306496 0)
(2.47388 0.306204 0)
(2.47956 0.303217 0)
(2.48289 0.297324 0)
(2.48433 0.288717 0)
(2.48337 0.278556 0)