/*--------------------------------*- C++ -*----------------------------------*\
  =========                 |
  \\      /  F ield         | OpenFOAM: The Open Source CFD Toolbox
   \\    /   O peration     | Website:  https://openfoam.org
    \\  /    A nd           | Version:  7
     \\/     M anipulation  |
\*---------------------------------------------------------------------------*/
FoamFile
{
    version     2.0;
    format      ascii;
    class       volScalarField;
    location    "2.5";
    object      T;
}
// * * * * * * * * * * * * * * * * * * * * * * * * * * * * * * * * * * * * * //

dimensions      [0 0 0 1 0 0 0];

internalField   nonuniform List<scalar> 
16192
(
2.00698
2.00396
1.99796
1.98949
1.9852
1.98288
1.9828
1.98249
1.97953
1.97618
1.96998
1.95931
1.95084
1.94786
1.94576
1.94425
1.94336
1.94221
1.93994
1.93765
1.93503
1.93017
1.92358
1.91713
1.91156
1.90743
1.90485
1.90316
1.90108
1.89873
1.89564
1.89178
1.88792
1.8848
1.88195
1.87887
1.87509
1.86942
1.86286
1.85893
1.85652
1.85475
1.85356
1.85156
1.84915
1.84655
1.84285
1.83632
1.82976
1.82672
1.82452
1.8225
1.82039
1.81789
1.81519
1.8124
1.80936
1.80537
1.79928
1.79302
1.78975
1.7879
1.78683
1.78732
1.78758
1.78532
1.78251
1.77929
1.77311
1.76427
1.75816
1.75585
1.75424
1.75386
1.75418
1.75256
1.75002
1.74722
1.74277
1.7364
1.73202
1.72961
1.72741
1.72548
1.72336
1.72105
1.71868
1.71604
1.71109
1.70462
1.70064
1.69857
1.69673
1.69513
1.69358
1.69192
1.69011
1.68815
1.6859
1.68139
1.67585
1.67186
1.66993
1.66825
1.6664
1.66426
1.66187
1.65923
1.65614
1.6524
1.64824
1.64426
1.64209
1.64067
1.639
1.63668
1.63411
1.63179
1.62928
1.62631
1.62337
1.62099
1.61929
1.61802
1.61636
1.61378
1.61039
1.60762
1.60658
1.60553
1.60397
1.60142
1.59717
1.5922
1.58902
1.58695
1.58518
1.5833
1.58107
1.57973
1.57895
1.57848
1.57832
1.57775
1.5766
1.57438
1.57068
1.56716
1.56428
1.56142
1.55886
1.55685
1.55594
1.55545
1.55513
1.55504
1.55458
1.55337
1.55059
1.54647
1.54194
1.53864
1.53603
1.53353
1.53258
1.53204
1.53159
1.53086
1.52988
1.52873
1.5271
1.52443
1.52068
1.51734
1.51596
1.51539
1.51499
1.51471
1.51449
1.51419
1.51393
1.51348
1.5128
1.51125
1.50646
1.5004
1.49806
1.49719
1.49643
1.49571
1.49518
1.49507
1.4951
1.49476
1.49425
1.493
1.48916
1.48267
1.479
1.47764
1.477
1.47626
1.47498
1.47332
1.47173
1.47068
1.47024
1.46928
1.46784
1.46592
1.46313
1.45986
1.45767
1.45623
1.45477
1.45319
1.45162
1.44974
1.4471
1.44342
1.43942
1.43713
1.4361
1.43531
1.43412
1.43279
1.43157
1.43077
1.43073
1.43078
1.4299
1.42791
1.42498
1.42088
1.41792
1.4168
1.41629
1.41577
1.41521
1.41497
1.4151
1.41525
1.41494
1.4134
1.41108
1.40821
1.40597
1.40506
1.4044
1.40367
1.40283
1.40203
1.4013
2.00805
2.00311
1.99419
1.9871
1.98412
1.98275
1.9835
1.98176
1.97891
1.97419
1.96577
1.95642
1.95091
1.94737
1.94462
1.94402
1.94524
1.94408
1.94136
1.93747
1.93145
1.92469
1.91878
1.91436
1.91111
1.90885
1.90709
1.90483
1.90202
1.89748
1.8925
1.889
1.8866
1.88421
1.8814
1.8779
1.87248
1.86548
1.86083
1.85828
1.85632
1.85518
1.85328
1.85076
1.84823
1.84488
1.83877
1.83201
1.82864
1.82659
1.82472
1.82262
1.81999
1.81704
1.81398
1.81083
1.80715
1.80163
1.79501
1.79074
1.7887
1.78754
1.78786
1.78816
1.78609
1.78336
1.78041
1.77514
1.76727
1.75964
1.75594
1.75423
1.75384
1.7549
1.75426
1.75189
1.74927
1.74531
1.7388
1.73345
1.73097
1.72888
1.72707
1.72509
1.72279
1.72042
1.71799
1.7135
1.7074
1.70263
1.70033
1.69846
1.69687
1.69524
1.69348
1.69165
1.68979
1.68765
1.68349
1.67809
1.67344
1.67143
1.67004
1.66882
1.66717
1.66522
1.66292
1.65997
1.65611
1.65156
1.64757
1.64481
1.64251
1.64002
1.63761
1.63585
1.63444
1.63296
1.63116
1.6289
1.62606
1.62279
1.61959
1.61654
1.61364
1.6108
1.60806
1.60684
1.60633
1.60661
1.60619
1.60484
1.60259
1.59815
1.59168
1.58591
1.58171
1.57932
1.57804
1.57742
1.57751
1.57869
1.57984
1.57958
1.57877
1.57741
1.57434
1.56853
1.56266
1.55946
1.55761
1.55685
1.55632
1.55594
1.55573
1.55536
1.55473
1.55377
1.55164
1.54607
1.53897
1.53541
1.53383
1.53317
1.53287
1.53272
1.53233
1.53175
1.53094
1.52983
1.52822
1.52546
1.52091
1.5169
1.51535
1.51456
1.51391
1.51342
1.51326
1.51336
1.513
1.51235
1.51161
1.51039
1.50704
1.5007
1.49659
1.49507
1.49414
1.49336
1.4928
1.49279
1.49327
1.49339
1.49327
1.49286
1.49173
1.48817
1.48144
1.47651
1.47417
1.47271
1.47072
1.46821
1.46633
1.46549
1.4659
1.4669
1.46711
1.46632
1.46466
1.46202
1.45765
1.45421
1.45229
1.45059
1.44882
1.44728
1.44584
1.44401
1.44105
1.43692
1.43367
1.43164
1.42987
1.4282
1.42702
1.42626
1.42617
1.42674
1.42722
1.42671
1.42479
1.42164
1.41693
1.41366
1.41266
1.41224
1.41178
1.41166
1.41215
1.41332
1.4131
1.41178
1.41004
1.40736
1.40411
1.40222
1.40152
1.40092
1.4002
1.39949
1.39883
2.00636
1.99944
1.9905
1.98606
1.98393
1.98423
1.98451
1.98221
1.9783
1.96968
1.95849
1.95331
1.95062
1.94792
1.94752
1.94889
1.94827
1.94538
1.94022
1.93218
1.92448
1.9195
1.91628
1.91385
1.91243
1.91058
1.90852
1.90529
1.9
1.89428
1.89046
1.8879
1.88572
1.88325
1.88024
1.87498
1.86753
1.86236
1.85995
1.85811
1.85708
1.85543
1.85284
1.8501
1.84642
1.84001
1.83332
1.82986
1.8281
1.82651
1.82466
1.82221
1.81941
1.81634
1.81286
1.80845
1.80211
1.79589
1.79229
1.79043
1.78906
1.78906
1.78918
1.78706
1.78443
1.78151
1.77643
1.76854
1.76125
1.75785
1.75608
1.75514
1.75583
1.75556
1.75341
1.75116
1.74802
1.74206
1.73592
1.73295
1.73094
1.72922
1.72724
1.72491
1.72247
1.71993
1.71541
1.70887
1.70385
1.70184
1.70026
1.6989
1.69749
1.69577
1.69392
1.69181
1.68918
1.685
1.67998
1.67558
1.67354
1.67214
1.67086
1.66934
1.66759
1.66567
1.66336
1.66017
1.65595
1.65171
1.64857
1.64587
1.64282
1.63978
1.6375
1.63599
1.63459
1.63328
1.63202
1.63051
1.62846
1.62516
1.62022
1.61494
1.61124
1.60906
1.608
1.60753
1.60803
1.60866
1.60784
1.60658
1.60503
1.60209
1.59544
1.58649
1.58091
1.57834
1.57721
1.57638
1.57685
1.57996
1.5811
1.58087
1.58011
1.57891
1.57603
1.56946
1.56217
1.55862
1.55755
1.55692
1.5565
1.55639
1.55636
1.55601
1.55525
1.55392
1.55061
1.54354
1.5373
1.53454
1.53342
1.53272
1.53247
1.53259
1.53243
1.53209
1.53163
1.53094
1.52962
1.52672
1.52141
1.51693
1.51516
1.51415
1.51336
1.51275
1.51244
1.51251
1.51305
1.51259
1.51182
1.51039
1.50709
1.5013
1.49621
1.49378
1.4925
1.4917
1.49109
1.49087
1.49192
1.49286
1.49264
1.49229
1.4916
1.49006
1.4861
1.47894
1.47255
1.46855
1.4658
1.46379
1.4624
1.46167
1.46233
1.46492
1.46616
1.46557
1.4642
1.46228
1.45857
1.4534
1.45037
1.44865
1.44708
1.44565
1.44437
1.44303
1.44135
1.43815
1.43256
1.42779
1.42574
1.42448
1.4234
1.4228
1.42302
1.42401
1.42466
1.42442
1.42309
1.42119
1.4178
1.4127
1.40983
1.40895
1.40855
1.40844
1.40919
1.41018
1.40996
1.40911
1.40808
1.40632
1.4033
1.40035
1.39891
1.39831
1.39777
1.39713
1.39662
2.00304
1.99521
1.98921
1.98661
1.98589
1.98644
1.98451
1.98126
1.97469
1.96421
1.9552
1.95107
1.94867
1.94969
1.95256
1.95175
1.94831
1.94267
1.93495
1.92655
1.92065
1.91758
1.9159
1.91575
1.91421
1.91154
1.90687
1.90053
1.89538
1.89227
1.88992
1.88786
1.88533
1.88235
1.87763
1.8704
1.86383
1.86074
1.8586
1.85796
1.8574
1.85468
1.85185
1.84807
1.84156
1.83452
1.83037
1.82865
1.8273
1.82602
1.824
1.82132
1.81833
1.81506
1.81078
1.80451
1.7977
1.79288
1.79069
1.78932
1.78934
1.78976
1.788
1.78554
1.78299
1.77859
1.77076
1.76283
1.75845
1.75659
1.75577
1.75656
1.75659
1.75462
1.7525
1.74962
1.74385
1.73799
1.73524
1.73338
1.7319
1.73021
1.72807
1.72564
1.72261
1.71782
1.71154
1.70599
1.70293
1.70124
1.7
1.69921
1.69797
1.69637
1.69456
1.69244
1.68833
1.68212
1.67729
1.67523
1.67395
1.67274
1.6713
1.66975
1.66814
1.66629
1.66395
1.66089
1.65703
1.65286
1.64886
1.64516
1.6419
1.63956
1.63798
1.6367
1.63553
1.63458
1.63356
1.63214
1.63021
1.62658
1.62025
1.61399
1.61092
1.60971
1.60879
1.60797
1.60736
1.60742
1.60818
1.60734
1.60556
1.60288
1.59787
1.58993
1.58253
1.57904
1.57774
1.57702
1.57691
1.57903
1.58258
1.5828
1.58174
1.58004
1.57652
1.56942
1.56259
1.55971
1.55842
1.55759
1.5571
1.55714
1.55745
1.55716
1.55622
1.5541
1.54931
1.54165
1.53648
1.53507
1.53407
1.53332
1.53292
1.53255
1.53219
1.5319
1.53161
1.53105
1.53014
1.52808
1.52338
1.51767
1.51504
1.5139
1.51306
1.51244
1.51188
1.51137
1.51082
1.50985
1.50841
1.50678
1.50472
1.50126
1.49696
1.49371
1.49195
1.49102
1.49052
1.49033
1.49053
1.491
1.49146
1.49139
1.49095
1.49005
1.48808
1.48257
1.47259
1.46505
1.46213
1.46076
1.45967
1.45915
1.46038
1.46357
1.46456
1.46379
1.46234
1.46084
1.45868
1.45433
1.44992
1.44786
1.44639
1.4451
1.44378
1.44237
1.44084
1.43821
1.43228
1.42566
1.4232
1.4222
1.42108
1.42024
1.42087
1.42291
1.42341
1.42268
1.4214
1.42009
1.4179
1.41392
1.40903
1.40675
1.40608
1.40593
1.40608
1.40661
1.40659
1.4058
1.4051
1.40432
1.40256
1.39965
1.3972
1.39606
1.39555
1.39522
1.39483
1.99967
1.99239
1.98935
1.98795
1.98834
1.98671
1.98346
1.97687
1.96617
1.95875
1.95525
1.95279
1.95353
1.95651
1.95583
1.95154
1.94422
1.93406
1.92673
1.92314
1.92039
1.91915
1.91892
1.91691
1.914
1.90893
1.90201
1.89605
1.89287
1.89068
1.88948
1.88727
1.88435
1.8792
1.87149
1.86525
1.86229
1.86016
1.85939
1.85864
1.85603
1.85319
1.84938
1.84314
1.83611
1.83162
1.8297
1.82836
1.82721
1.82551
1.82325
1.82051
1.81715
1.81254
1.80577
1.79904
1.79476
1.79253
1.79085
1.79037
1.79024
1.78844
1.78617
1.7839
1.78037
1.7739
1.76583
1.76049
1.75847
1.75736
1.75777
1.75796
1.75601
1.75389
1.75114
1.74567
1.73968
1.73634
1.73471
1.73366
1.73282
1.73115
1.72913
1.72657
1.72211
1.71473
1.70824
1.70495
1.70321
1.70175
1.70086
1.69983
1.69834
1.69685
1.69526
1.69201
1.6865
1.68069
1.67744
1.67575
1.67422
1.67275
1.67134
1.66995
1.66855
1.66695
1.66472
1.66191
1.65846
1.65367
1.64848
1.64446
1.64177
1.63982
1.63826
1.63706
1.63618
1.63558
1.63504
1.63386
1.63171
1.6275
1.62048
1.61444
1.61196
1.61074
1.60986
1.60916
1.60813
1.60672
1.60538
1.60434
1.60295
1.60094
1.59795
1.59407
1.58986
1.5851
1.58101
1.57908
1.57841
1.57847
1.57852
1.57835
1.57782
1.57642
1.57331
1.56882
1.56515
1.56289
1.56108
1.55974
1.5587
1.5576
1.55647
1.55513
1.55342
1.55079
1.5465
1.5407
1.53705
1.53559
1.53458
1.53383
1.53322
1.53255
1.53206
1.5317
1.53133
1.53078
1.52988
1.52832
1.52517
1.5203
1.51615
1.51401
1.51273
1.51173
1.51086
1.5101
1.50938
1.50843
1.50657
1.50358
1.50113
1.49941
1.49756
1.49518
1.49249
1.49094
1.49037
1.49017
1.49045
1.49064
1.49047
1.4906
1.49083
1.49008
1.48832
1.48371
1.47367
1.46429
1.46083
1.4592
1.45811
1.45783
1.45988
1.4639
1.46496
1.46413
1.46254
1.46084
1.45859
1.45479
1.45024
1.44753
1.44601
1.44478
1.4434
1.44194
1.44039
1.43802
1.43272
1.42544
1.42211
1.4208
1.4198
1.41888
1.4189
1.42051
1.421
1.41965
1.41806
1.41711
1.41639
1.4146
1.41089
1.4064
1.40437
1.40367
1.40333
1.40334
1.4033
1.40262
1.40194
1.40143
1.40083
1.39935
1.39705
1.39505
1.39392
1.39325
1.39283
1.99616
1.99203
1.99006
1.98966
1.98834
1.98556
1.98055
1.97133
1.96141
1.95635
1.95446
1.95613
1.95934
1.95798
1.95354
1.94678
1.93744
1.92828
1.92303
1.92057
1.92053
1.92176
1.92015
1.91638
1.90936
1.90165
1.89702
1.89446
1.89251
1.89119
1.88882
1.88599
1.88129
1.87383
1.86635
1.86269
1.86044
1.86009
1.86016
1.85759
1.85447
1.85002
1.84331
1.83695
1.83271
1.83061
1.82932
1.82823
1.82666
1.82459
1.82201
1.81878
1.81419
1.80758
1.80077
1.79599
1.79358
1.79199
1.79135
1.79079
1.78908
1.78695
1.78471
1.78142
1.77533
1.76803
1.76305
1.76088
1.75963
1.75989
1.75998
1.75799
1.75576
1.7529
1.74747
1.74156
1.73796
1.73641
1.73538
1.73484
1.73356
1.7318
1.72988
1.72663
1.72021
1.71274
1.70778
1.70552
1.70395
1.70291
1.70164
1.69991
1.69813
1.69658
1.69396
1.68929
1.68422
1.68134
1.67991
1.67838
1.67652
1.67429
1.67191
1.66968
1.66769
1.6661
1.66497
1.66286
1.65894
1.65387
1.64966
1.64669
1.6442
1.64184
1.63961
1.63758
1.63594
1.63462
1.63345
1.6323
1.63064
1.62775
1.62288
1.61847
1.61507
1.61216
1.6097
1.60747
1.60566
1.60428
1.60275
1.60099
1.5991
1.59691
1.59547
1.59465
1.59358
1.59184
1.58892
1.58484
1.58092
1.57821
1.57658
1.57557
1.57403
1.5718
1.56864
1.56667
1.56602
1.56521
1.56394
1.56194
1.55963
1.55787
1.55632
1.5541
1.55092
1.5472
1.54405
1.54193
1.54009
1.53732
1.53448
1.53322
1.53261
1.53223
1.53159
1.53091
1.5305
1.53026
1.52981
1.52847
1.52554
1.52196
1.51847
1.51505
1.51247
1.5111
1.51047
1.51011
1.50933
1.50763
1.50447
1.50106
1.49912
1.49804
1.49716
1.49613
1.49437
1.49222
1.49065
1.48988
1.48963
1.48947
1.49007
1.49084
1.49056
1.4895
1.48747
1.48326
1.47554
1.46675
1.4612
1.45881
1.45752
1.45694
1.45736
1.45896
1.46011
1.46013
1.4591
1.45759
1.45603
1.45425
1.45153
1.44852
1.44608
1.4441
1.44248
1.44126
1.43977
1.43751
1.43337
1.42731
1.42227
1.42015
1.41898
1.41803
1.41791
1.41897
1.41945
1.41811
1.4163
1.41509
1.41396
1.41305
1.41144
1.40855
1.40453
1.40198
1.40109
1.40076
1.40047
1.39979
1.39914
1.39857
1.39815
1.39778
1.39678
1.39519
1.3933
1.39168
1.39056
1.99428
1.99188
1.99088
1.98982
1.98714
1.98252
1.97407
1.96546
1.9609
1.95843
1.95924
1.96212
1.96052
1.95528
1.94687
1.93619
1.92939
1.92613
1.92357
1.92351
1.92406
1.92199
1.91809
1.91147
1.90314
1.89694
1.89407
1.89259
1.89268
1.89074
1.88739
1.88195
1.87418
1.86775
1.86446
1.86214
1.86163
1.86151
1.8589
1.85588
1.85161
1.84517
1.83838
1.83396
1.83186
1.83052
1.82904
1.82727
1.8253
1.82303
1.82006
1.81565
1.8095
1.80284
1.79816
1.79579
1.79409
1.79319
1.79211
1.79021
1.78813
1.78591
1.78293
1.77731
1.77015
1.76447
1.76239
1.76141
1.76196
1.7624
1.76069
1.75837
1.7555
1.74977
1.74354
1.7395
1.73793
1.73696
1.73662
1.73568
1.73402
1.73239
1.72967
1.724
1.7171
1.71231
1.71019
1.70854
1.70696
1.70513
1.70304
1.70103
1.69939
1.69652
1.69153
1.68617
1.68329
1.68213
1.68113
1.67988
1.67833
1.67622
1.67338
1.67032
1.66805
1.6662
1.66309
1.65915
1.65507
1.65283
1.65135
1.64967
1.64759
1.64524
1.6426
1.63974
1.63731
1.63559
1.63367
1.63117
1.62843
1.62594
1.62363
1.62107
1.61829
1.61477
1.61066
1.60704
1.60432
1.60211
1.59997
1.59737
1.5952
1.59412
1.59363
1.59395
1.59518
1.59499
1.59374
1.59134
1.58627
1.57982
1.57536
1.57206
1.56887
1.56628
1.56542
1.56539
1.56587
1.56564
1.56488
1.56368
1.56121
1.55744
1.55398
1.55098
1.54769
1.54456
1.54299
1.54226
1.54126
1.53942
1.53656
1.53357
1.53207
1.53139
1.53074
1.53002
1.52944
1.52891
1.52798
1.52619
1.52413
1.52212
1.52011
1.51774
1.51453
1.51129
1.50899
1.50714
1.50576
1.50419
1.50196
1.49949
1.49842
1.49744
1.49652
1.49582
1.49501
1.49369
1.49163
1.48961
1.48847
1.48807
1.48782
1.48706
1.48622
1.48509
1.48298
1.47944
1.47488
1.47017
1.46515
1.4604
1.45777
1.45662
1.45625
1.45657
1.45683
1.4568
1.4563
1.45528
1.45414
1.45305
1.45168
1.44973
1.44714
1.44407
1.44106
1.43836
1.43632
1.43433
1.43189
1.42854
1.42482
1.42118
1.41896
1.41778
1.41705
1.41647
1.41589
1.41462
1.4133
1.41261
1.41169
1.41063
1.40981
1.40885
1.40669
1.40239
1.39916
1.39823
1.39777
1.39716
1.39655
1.39598
1.39548
1.39516
1.39514
1.39455
1.39326
1.39123
1.38902
1.99362
1.99236
1.99154
1.98891
1.98482
1.97722
1.96803
1.9627
1.9605
1.96136
1.96359
1.96158
1.95651
1.94907
1.93892
1.93003
1.92552
1.92369
1.92506
1.92654
1.92435
1.91937
1.91095
1.90269
1.89822
1.89566
1.89415
1.89416
1.89228
1.88901
1.88372
1.87582
1.86841
1.86472
1.86268
1.86263
1.86278
1.86028
1.8572
1.85259
1.84618
1.84022
1.83657
1.83455
1.83313
1.83118
1.82878
1.82603
1.82286
1.81938
1.81531
1.81028
1.80465
1.80005
1.79771
1.79607
1.79518
1.79404
1.79209
1.78991
1.7875
1.78458
1.77946
1.77287
1.76707
1.76477
1.76364
1.76391
1.76482
1.7635
1.76135
1.75879
1.75335
1.74666
1.74165
1.73987
1.73883
1.73838
1.73737
1.7359
1.73459
1.73228
1.7272
1.7203
1.71529
1.71339
1.71216
1.71122
1.70968
1.70774
1.70547
1.70255
1.69847
1.69362
1.68894
1.68557
1.68425
1.6833
1.68228
1.68081
1.67924
1.67761
1.67561
1.67302
1.66946
1.66435
1.65929
1.65558
1.65328
1.65179
1.65088
1.65068
1.6496
1.64799
1.64594
1.64267
1.63816
1.63399
1.63122
1.62906
1.62639
1.62419
1.62273
1.62119
1.61931
1.61704
1.61409
1.60988
1.60483
1.59998
1.59631
1.59391
1.59265
1.59183
1.59196
1.59421
1.59634
1.59656
1.59576
1.59456
1.59191
1.58487
1.57473
1.56779
1.56487
1.56371
1.56315
1.56335
1.56514
1.56539
1.56471
1.56386
1.56217
1.55806
1.55219
1.54824
1.54547
1.54385
1.54272
1.54141
1.54011
1.53887
1.53724
1.53456
1.53179
1.53048
1.53013
1.53011
1.5299
1.52888
1.52691
1.52418
1.52206
1.52098
1.51991
1.51848
1.51614
1.51248
1.50857
1.50575
1.50311
1.50062
1.49914
1.49855
1.49786
1.49718
1.49655
1.49572
1.4947
1.49366
1.49239
1.49047
1.48799
1.48609
1.48534
1.4849
1.48359
1.48099
1.47742
1.4742
1.47225
1.47041
1.4679
1.46418
1.46003
1.45774
1.45658
1.45546
1.45428
1.4532
1.45236
1.45184
1.45168
1.45118
1.45011
1.44864
1.44694
1.44417
1.44019
1.4365
1.4333
1.43083
1.42904
1.42759
1.42584
1.42342
1.42029
1.41766
1.41594
1.41486
1.41366
1.41214
1.4107
1.41028
1.41064
1.41032
1.40948
1.40847
1.4068
1.40344
1.39857
1.39568
1.39491
1.39444
1.3939
1.39349
1.39338
1.39331
1.3932
1.393
1.39237
1.39123
1.38905
1.99348
1.99358
1.99116
1.98698
1.97928
1.97037
1.96542
1.96293
1.96339
1.96531
1.96307
1.9574
1.94856
1.93808
1.93167
1.92835
1.92626
1.92731
1.92823
1.92575
1.92088
1.91317
1.90399
1.89788
1.89521
1.89439
1.89524
1.8938
1.8905
1.88495
1.87703
1.87023
1.86684
1.86468
1.8644
1.86423
1.86165
1.85857
1.8537
1.8475
1.84164
1.83833
1.83671
1.8355
1.83381
1.83166
1.82864
1.82453
1.82016
1.81619
1.81203
1.80683
1.80194
1.79963
1.79794
1.79685
1.79594
1.79427
1.79233
1.79018
1.78747
1.78213
1.77511
1.76966
1.76726
1.76612
1.76616
1.76707
1.76591
1.76398
1.76188
1.75688
1.74986
1.7446
1.74269
1.74167
1.74099
1.73974
1.73806
1.73636
1.73382
1.72938
1.72366
1.71857
1.71639
1.71514
1.71453
1.71362
1.71206
1.7103
1.70794
1.70406
1.6971
1.69061
1.68737
1.68608
1.6852
1.68475
1.68414
1.68303
1.68161
1.67996
1.67769
1.67389
1.66747
1.6607
1.65664
1.65449
1.65294
1.65147
1.65098
1.6515
1.65089
1.64913
1.64748
1.64503
1.64008
1.63424
1.63008
1.62746
1.62551
1.62352
1.62187
1.62053
1.61909
1.61758
1.61578
1.6127
1.60662
1.59975
1.59533
1.59318
1.5919
1.59087
1.59038
1.59278
1.59686
1.59745
1.59677
1.59566
1.59383
1.58843
1.57671
1.56741
1.56422
1.56301
1.56217
1.56201
1.56398
1.56467
1.564
1.56319
1.56197
1.55825
1.55102
1.54596
1.54442
1.54341
1.54226
1.54098
1.5396
1.53812
1.53656
1.53499
1.53321
1.53122
1.52942
1.52809
1.527
1.52567
1.5239
1.52194
1.52088
1.51994
1.51898
1.51788
1.51644
1.51378
1.50915
1.50347
1.49974
1.49776
1.49682
1.49612
1.49592
1.49645
1.49673
1.49612
1.4951
1.49408
1.49279
1.49063
1.48753
1.48534
1.48397
1.48185
1.4789
1.47503
1.47238
1.47094
1.46989
1.46967
1.46902
1.46704
1.46423
1.46027
1.45622
1.45366
1.45208
1.4506
1.44938
1.44861
1.449
1.44979
1.44882
1.44693
1.44528
1.44333
1.43977
1.43453
1.43064
1.4285
1.42728
1.42638
1.42565
1.42461
1.42274
1.41952
1.41542
1.41296
1.41183
1.41061
1.40935
1.40829
1.4076
1.40723
1.40666
1.40585
1.40479
1.40314
1.39959
1.39483
1.3925
1.39193
1.39151
1.39112
1.39116
1.39214
1.39255
1.39208
1.39134
1.39039
1.38872
1.99542
1.99364
1.98933
1.98128
1.97179
1.96647
1.96397
1.96441
1.96633
1.96417
1.9588
1.95058
1.93977
1.93159
1.92773
1.92655
1.92879
1.93008
1.92737
1.92165
1.91265
1.90429
1.89988
1.8973
1.89635
1.89701
1.89549
1.8922
1.88632
1.87817
1.8714
1.86802
1.86623
1.86627
1.86579
1.86327
1.86022
1.85522
1.84918
1.84364
1.84097
1.83954
1.83811
1.83618
1.83365
1.82992
1.82572
1.82176
1.81799
1.81421
1.8099
1.80508
1.80229
1.80042
1.79897
1.79786
1.79632
1.79448
1.79255
1.79039
1.78587
1.779
1.77258
1.76962
1.76848
1.76842
1.7695
1.76858
1.76668
1.76464
1.75999
1.75321
1.74761
1.74542
1.74442
1.74389
1.7428
1.74127
1.73939
1.73658
1.73145
1.72514
1.72095
1.71915
1.71806
1.71746
1.71695
1.71564
1.71399
1.71203
1.70934
1.70367
1.6962
1.69033
1.68808
1.68666
1.68553
1.68502
1.68517
1.68478
1.68356
1.68182
1.67934
1.67391
1.66593
1.6592
1.65596
1.65418
1.65271
1.65206
1.65289
1.65352
1.65218
1.64997
1.64797
1.64568
1.64218
1.63672
1.63076
1.62624
1.62339
1.62155
1.62015
1.61903
1.61882
1.61813
1.61636
1.61366
1.60919
1.60232
1.59675
1.59386
1.59215
1.59107
1.59053
1.5913
1.59446
1.59732
1.59718
1.59581
1.59374
1.58925
1.58104
1.57194
1.56612
1.56351
1.56238
1.56166
1.56168
1.56377
1.56427
1.56327
1.56147
1.55744
1.55062
1.54597
1.5439
1.5423
1.54074
1.53947
1.53852
1.53774
1.5368
1.53572
1.5344
1.53237
1.52987
1.52743
1.5249
1.52269
1.52147
1.52071
1.51991
1.51941
1.51874
1.51777
1.5166
1.51432
1.50897
1.50189
1.49815
1.49685
1.49576
1.49478
1.49407
1.49428
1.49577
1.49604
1.49519
1.49431
1.49328
1.49162
1.48891
1.48492
1.48023
1.47614
1.47282
1.47082
1.46971
1.46876
1.46844
1.46906
1.46991
1.46945
1.46739
1.46429
1.45887
1.45258
1.44932
1.44806
1.44702
1.44602
1.44561
1.44711
1.44783
1.4462
1.44432
1.44235
1.43843
1.43201
1.42829
1.42721
1.4263
1.42558
1.42566
1.42542
1.42387
1.42153
1.41726
1.41221
1.40958
1.40844
1.4073
1.40616
1.40523
1.40476
1.40443
1.40386
1.40328
1.40239
1.40017
1.39589
1.3916
1.38995
1.38959
1.38931
1.38908
1.38924
1.38994
1.38999
1.38934
1.38855
1.38762
1.9959
1.9915
1.98312
1.97309
1.96747
1.96485
1.96506
1.96709
1.96518
1.95992
1.9515
1.94082
1.93368
1.93019
1.9287
1.93051
1.93143
1.92868
1.92334
1.91497
1.90566
1.89992
1.8976
1.89745
1.89874
1.89732
1.89423
1.88849
1.88041
1.87334
1.86992
1.86822
1.86826
1.86761
1.86519
1.86206
1.85674
1.85098
1.84599
1.84365
1.84223
1.8407
1.83909
1.83644
1.83218
1.82761
1.82352
1.82019
1.81711
1.8136
1.80918
1.80524
1.80319
1.80156
1.80025
1.79889
1.79718
1.79526
1.79309
1.78898
1.7828
1.77654
1.77323
1.77193
1.77156
1.77235
1.77149
1.76963
1.76771
1.76314
1.75591
1.75021
1.74791
1.74688
1.74647
1.74565
1.74433
1.74264
1.74009
1.73495
1.72878
1.72391
1.72143
1.72004
1.71918
1.7193
1.71847
1.71685
1.71533
1.71326
1.70854
1.70179
1.69564
1.69239
1.69043
1.68881
1.68761
1.68687
1.6861
1.68495
1.68422
1.6829
1.67941
1.67287
1.66495
1.66008
1.65734
1.65513
1.65348
1.65232
1.65138
1.65046
1.6496
1.64819
1.64639
1.64464
1.64272
1.63918
1.63244
1.62565
1.62212
1.62026
1.61886
1.61767
1.61649
1.6154
1.61422
1.61269
1.61019
1.60654
1.60221
1.59785
1.5944
1.59237
1.59116
1.59019
1.58968
1.59006
1.59075
1.59049
1.58916
1.58665
1.58242
1.57819
1.57384
1.5686
1.56399
1.56167
1.5604
1.55933
1.55859
1.5576
1.5563
1.55438
1.55138
1.5483
1.54534
1.54263
1.54043
1.5385
1.53705
1.53621
1.53591
1.53559
1.53504
1.53353
1.52994
1.52514
1.52219
1.52074
1.51993
1.51933
1.51901
1.51904
1.51847
1.51743
1.51627
1.51363
1.5069
1.50011
1.49788
1.49662
1.49536
1.49426
1.49351
1.49371
1.49527
1.49586
1.49523
1.49448
1.49371
1.49241
1.4893
1.48252
1.4753
1.47162
1.46985
1.46886
1.46784
1.46704
1.46749
1.46949
1.4709
1.47018
1.46826
1.46603
1.46146
1.45291
1.44755
1.44604
1.44521
1.44429
1.44342
1.44331
1.44503
1.44583
1.44413
1.4414
1.4372
1.43095
1.42744
1.42627
1.42538
1.42522
1.4259
1.42575
1.42425
1.4223
1.41897
1.41276
1.40808
1.40649
1.40561
1.40474
1.40403
1.40343
1.40245
1.40149
1.40065
1.39986
1.39909
1.39725
1.39313
1.38917
1.38792
1.38765
1.38741
1.38722
1.38742
1.38809
1.38813
1.38755
1.3868
1.99319
1.98454
1.9741
1.96823
1.9655
1.96558
1.96774
1.96614
1.9612
1.95306
1.9424
1.93457
1.93098
1.92996
1.9322
1.93305
1.93018
1.92451
1.91567
1.90743
1.90286
1.90039
1.90004
1.90103
1.8995
1.8964
1.89029
1.88234
1.87598
1.87266
1.87092
1.87064
1.86953
1.86739
1.86433
1.85915
1.85352
1.84866
1.84661
1.84527
1.84366
1.84181
1.83829
1.83383
1.82971
1.82657
1.8242
1.82168
1.81859
1.81419
1.80873
1.80571
1.80395
1.80254
1.80146
1.79992
1.7982
1.79655
1.79296
1.78618
1.77964
1.77646
1.77523
1.77486
1.77571
1.77502
1.77317
1.77111
1.76656
1.75961
1.75336
1.7502
1.74894
1.74835
1.74781
1.74646
1.74509
1.74342
1.73925
1.733
1.72726
1.72464
1.72333
1.72249
1.72212
1.72068
1.71862
1.71696
1.71528
1.71139
1.70487
1.69948
1.69694
1.69525
1.69352
1.69196
1.69034
1.68859
1.68704
1.68584
1.68382
1.68055
1.67593
1.67084
1.66666
1.6637
1.66049
1.65731
1.65482
1.65259
1.65065
1.64898
1.64762
1.64682
1.64577
1.64409
1.64224
1.63961
1.63437
1.62689
1.6223
1.61993
1.61803
1.61626
1.61465
1.61317
1.61175
1.6104
1.60912
1.60737
1.6051
1.60257
1.59952
1.59588
1.59224
1.58925
1.5868
1.58559
1.58455
1.58331
1.58191
1.58087
1.58025
1.57937
1.57814
1.57584
1.57159
1.5651
1.56013
1.5576
1.55569
1.55344
1.55108
1.55016
1.55002
1.54892
1.54647
1.54349
1.54088
1.53871
1.53709
1.53618
1.5356
1.5351
1.53459
1.53361
1.5302
1.52451
1.52151
1.52039
1.51939
1.51864
1.51856
1.51973
1.51949
1.51815
1.51626
1.5125
1.50516
1.49916
1.49749
1.49651
1.49544
1.49435
1.49361
1.49385
1.49543
1.49635
1.4959
1.49515
1.49435
1.49272
1.48722
1.478
1.4723
1.47006
1.46895
1.46796
1.46692
1.46616
1.46699
1.47019
1.47138
1.47029
1.46826
1.46612
1.463
1.45596
1.44795
1.44496
1.44373
1.44281
1.4418
1.44102
1.441
1.44108
1.44006
1.43796
1.43543
1.43179
1.42832
1.42642
1.42541
1.42516
1.42548
1.42503
1.42359
1.4221
1.41992
1.41507
1.40865
1.40534
1.40401
1.40321
1.40235
1.40162
1.40129
1.40043
1.39944
1.39851
1.3976
1.39663
1.39473
1.39047
1.38698
1.38598
1.38572
1.38556
1.38561
1.38567
1.38548
1.38501
1.38444
1.9853
1.97451
1.96883
1.96612
1.96632
1.96861
1.96723
1.9627
1.955
1.94454
1.9368
1.9333
1.93222
1.93433
1.93495
1.93205
1.9267
1.91834
1.90961
1.90438
1.90235
1.90247
1.9037
1.90203
1.89899
1.89322
1.88543
1.87857
1.8753
1.87375
1.87345
1.87206
1.86999
1.86672
1.86144
1.85615
1.85213
1.85034
1.8489
1.847
1.84454
1.84013
1.83567
1.83161
1.82927
1.82767
1.82588
1.82383
1.82009
1.81406
1.8094
1.80738
1.80591
1.8046
1.80292
1.80101
1.79902
1.79562
1.79031
1.78412
1.77967
1.77823
1.7777
1.77875
1.7785
1.77676
1.77481
1.77038
1.76296
1.75634
1.75296
1.75151
1.75065
1.74994
1.74866
1.74737
1.74558
1.74188
1.73663
1.73151
1.72863
1.72721
1.72628
1.72537
1.72372
1.72179
1.72008
1.7177
1.71325
1.70709
1.70157
1.69899
1.69793
1.69741
1.69677
1.69545
1.69349
1.6908
1.6875
1.68399
1.68018
1.67579
1.6718
1.66948
1.66828
1.66677
1.66442
1.66089
1.6562
1.65208
1.64897
1.6468
1.64514
1.64379
1.64359
1.64333
1.64175
1.63936
1.63501
1.62964
1.62504
1.62138
1.6184
1.61578
1.61324
1.6109
1.60893
1.60747
1.60639
1.60577
1.6048
1.60363
1.60215
1.59987
1.59601
1.5906
1.58574
1.58183
1.57881
1.5763
1.57499
1.57493
1.57734
1.57898
1.57879
1.57809
1.57666
1.5729
1.56509
1.55719
1.55213
1.54931
1.54768
1.54698
1.5466
1.54659
1.5456
1.54377
1.54155
1.53928
1.53746
1.53628
1.5357
1.53546
1.53518
1.53388
1.52991
1.52449
1.52172
1.52057
1.5195
1.51854
1.51791
1.51707
1.51606
1.51484
1.51317
1.51031
1.50496
1.49963
1.49701
1.49582
1.49487
1.49401
1.49361
1.49431
1.496
1.49632
1.4956
1.495
1.4944
1.49162
1.48397
1.47467
1.47084
1.46993
1.46897
1.46781
1.46668
1.46634
1.46763
1.46997
1.47002
1.46853
1.46706
1.46574
1.46337
1.45869
1.45149
1.44536
1.44286
1.44153
1.44051
1.43955
1.43872
1.4374
1.43591
1.43441
1.43322
1.43202
1.43025
1.4283
1.42699
1.42637
1.4261
1.42504
1.42398
1.42259
1.42041
1.41619
1.41009
1.4053
1.40309
1.40174
1.40092
1.40032
1.40039
1.4006
1.39979
1.39864
1.39763
1.39656
1.39497
1.39218
1.38806
1.38525
1.38437
1.3841
1.38381
1.38349
1.38321
1.38294
1.38255
1.9753
1.96942
1.96684
1.96736
1.97019
1.96906
1.96473
1.95689
1.94665
1.93937
1.9359
1.93491
1.93707
1.93745
1.93465
1.92914
1.9205
1.91256
1.90809
1.906
1.90597
1.90692
1.90509
1.902
1.89608
1.88844
1.88224
1.87911
1.87752
1.87691
1.8753
1.87323
1.86956
1.86431
1.85917
1.85551
1.85393
1.85257
1.85073
1.84806
1.84341
1.83856
1.83456
1.83252
1.83109
1.82951
1.82788
1.82414
1.81795
1.813
1.81089
1.80947
1.80855
1.80726
1.80537
1.80327
1.79942
1.79272
1.78632
1.78313
1.78182
1.78115
1.78205
1.78222
1.78051
1.77854
1.77428
1.76718
1.76006
1.75595
1.75436
1.75338
1.75239
1.75079
1.74898
1.74708
1.74368
1.73844
1.73387
1.73185
1.73096
1.73062
1.73
1.72827
1.72595
1.72307
1.71946
1.71423
1.70752
1.70263
1.70044
1.69927
1.69884
1.6992
1.69882
1.69739
1.69555
1.69279
1.68818
1.68162
1.67571
1.67201
1.66992
1.669
1.66869
1.66761
1.66545
1.66264
1.65856
1.65317
1.64861
1.64576
1.64375
1.64234
1.64107
1.63949
1.63751
1.63536
1.63317
1.63054
1.62788
1.62485
1.62064
1.61616
1.61248
1.6094
1.60722
1.6058
1.60467
1.60378
1.60348
1.60319
1.60226
1.60096
1.59891
1.59457
1.58689
1.57869
1.57348
1.57141
1.57052
1.57017
1.57248
1.57761
1.57917
1.5787
1.57786
1.57627
1.57103
1.55964
1.55113
1.5477
1.54622
1.54533
1.54457
1.54393
1.54344
1.54267
1.54141
1.53995
1.53834
1.53678
1.53542
1.53422
1.53306
1.53174
1.52917
1.52568
1.52288
1.52094
1.51966
1.51844
1.51676
1.51487
1.51324
1.5117
1.50978
1.50733
1.50456
1.50182
1.49918
1.49683
1.4956
1.49486
1.49481
1.49669
1.49787
1.497
1.49558
1.49421
1.49223
1.48829
1.48058
1.47303
1.47045
1.46962
1.46897
1.46817
1.46729
1.46726
1.46917
1.47126
1.47048
1.46773
1.46516
1.46316
1.46124
1.45845
1.45439
1.44935
1.4441
1.44093
1.43937
1.43809
1.4363
1.43415
1.43232
1.43107
1.43045
1.4307
1.43099
1.43064
1.42945
1.42791
1.42616
1.42393
1.4214
1.41951
1.41764
1.41525
1.41162
1.40761
1.40364
1.40106
1.39962
1.39889
1.39815
1.3974
1.39678
1.39597
1.39494
1.39398
1.39322
1.39243
1.39045
1.38685
1.38374
1.38247
1.38209
1.38175
1.38123
1.38072
1.38021
1.97084
1.96831
1.96899
1.97236
1.97152
1.96757
1.95993
1.94963
1.94206
1.93874
1.93795
1.94031
1.9407
1.93792
1.93256
1.92437
1.91601
1.9113
1.90951
1.90969
1.91057
1.90863
1.90547
1.89971
1.89232
1.886
1.88292
1.88148
1.88073
1.87897
1.87667
1.87252
1.86726
1.86247
1.8594
1.85795
1.8566
1.85459
1.8516
1.84669
1.84173
1.83818
1.83641
1.83513
1.83336
1.83126
1.82729
1.82226
1.81701
1.81422
1.81282
1.81206
1.81108
1.80932
1.80728
1.80348
1.79708
1.79039
1.78582
1.78407
1.78327
1.78445
1.78523
1.78362
1.7819
1.77808
1.77082
1.76323
1.7591
1.7574
1.75632
1.75541
1.75385
1.75201
1.74983
1.74593
1.74065
1.73606
1.73353
1.73245
1.73224
1.73273
1.73185
1.73006
1.72783
1.72456
1.71809
1.70956
1.70388
1.7013
1.69994
1.69901
1.69958
1.70068
1.69982
1.69812
1.69631
1.69346
1.68752
1.67935
1.67365
1.67105
1.66958
1.66832
1.66712
1.66587
1.6641
1.66193
1.65937
1.65608
1.65192
1.64718
1.64328
1.64025
1.63813
1.63629
1.63397
1.63149
1.63007
1.62916
1.62791
1.62633
1.62364
1.61891
1.61333
1.60928
1.60709
1.6057
1.60441
1.60347
1.60338
1.60307
1.6021
1.60084
1.5993
1.59634
1.58902
1.57851
1.57217
1.56974
1.56869
1.56807
1.569
1.57483
1.57954
1.57956
1.57843
1.57663
1.57276
1.56484
1.55401
1.54792
1.5457
1.5442
1.54316
1.54221
1.54149
1.54128
1.54085
1.53972
1.53842
1.53717
1.53567
1.53367
1.531
1.52833
1.52687
1.52583
1.5247
1.52308
1.52067
1.51786
1.51516
1.51276
1.51047