/*--------------------------------*- C++ -*----------------------------------*\
  =========                 |
  \\      /  F ield         | OpenFOAM: The Open Source CFD Toolbox
   \\    /   O peration     | Website:  https://openfoam.org
    \\  /    A nd           | Version:  7
     \\/     M anipulation  |
\*---------------------------------------------------------------------------*/
FoamFile
{
    version     2.0;
    format      ascii;
    class       volScalarField;
    location    "1.9";
    object      rho;
}
// * * * * * * * * * * * * * * * * * * * * * * * * * * * * * * * * * * * * * //

dimensions      [1 -3 0 0 0 0 0];

internalField   nonuniform List<scalar> 
16192
(
1.40001
1.40001
1.40001
1.40001
1.40001
1.40001
1.40001
1.40001
1.40001
1.40001
1.40001
1.40001
1.40001
1.40001
1.40001
1.40001
1.40001
1.40001
1.40001
1.40001
1.40001
1.40001
1.40001
1.40001
1.40001
1.40001
1.40001
1.40001
1.40001
1.40001
1.40001
1.40001
1.40001
1.40001
1.40001
1.40001
1.40001
1.40001
1.40001
1.40001
1.40001
1.40001
1.40001
1.40001
1.40001
1.40001
1.40001
1.40001
1.40001
1.40001
1.40001
1.40001
1.40001
1.40001
1.40001
1.40001
1.40001
1.40001
1.40001
1.40001
1.40001
1.40001
1.40001
1.40001
1.40001
1.40001
1.40001
1.40001
1.40001
1.40001
1.40001
1.40001
1.40001
1.40001
1.40001
1.40001
1.40001
1.40001
1.40001
1.40001
1.40001
1.40001
1.40001
1.40001
1.40001
1.40001
1.40001
1.40001
1.40001
1.40001
1.40001
1.40001
1.40001
1.40001
1.40001
1.40001
1.40001
1.40001
1.40001
1.40001
1.40001
1.40001
1.40001
1.40001
1.40001
1.40001
1.40001
1.40001
1.40001
1.40001
1.40001
1.40001
1.40001
1.40001
1.40001
1.40001
1.40001
1.40001
1.40001
1.40001
1.40001
1.40001
1.40001
1.40001
1.40001
1.40001
1.40001
1.40001
1.40001
1.40001
1.40001
1.40001
1.40001
1.40001
1.40001
1.40001
1.40001
1.40001
1.40001
1.40001
1.40001
1.40001
1.40001
1.40001
1.40001
1.40001
1.40001
1.40001
1.40001
1.40001
1.40001
1.40001
1.40001
1.40001
1.40001
1.40001
1.40001
1.40001
1.40001
1.40001
1.40001
1.40001
1.40001
1.40001
1.40001
1.40001
1.40001
1.40001
1.40001
1.40001
1.40001
1.40001
1.40001
1.40001
1.40001
1.40001
1.40001
1.40001
1.40001
1.40001
1.40001
1.40001
1.40001
1.40001
1.40001
1.40001
1.40001
1.40001
1.40001
1.40001
1.40001
1.40001
1.40001
1.40001
1.40001
1.40001
1.40001
1.40001
1.40001
1.40001
1.40001
1.40001
1.40001
1.40001
1.40001
1.40001
1.40001
1.40001
1.40001
1.40001
1.40001
1.40001
1.40001
1.40001
1.40001
1.40001
1.40001
1.40001
1.40001
1.40001
1.40001
1.40001
1.40001
1.40001
1.40001
1.40001
1.40001
1.40001
1.40001
1.40001
1.40001
1.40001
1.40001
1.40001
1.40001
1.40001
1.40001
1.40001
1.40001
1.40001
1.40001
1.40001
1.40001
1.40001
1.40001
1.40001
1.40001
1.40001
1.40001
1.40001
1.40001
1.40001
1.40001
1.40001
1.40001
1.40001
1.40001
1.40001
1.40001
1.40001
1.40001
1.40001
1.40001
1.40001
1.40001
1.40001
1.40001
1.40001
1.40001
1.40001
1.40001
1.40001
1.40001
1.40001
1.40001
1.40001
1.40001
1.40001
1.40001
1.40001
1.40001
1.40001
1.40001
1.40001
1.40001
1.40001
1.40001
1.40001
1.40001
1.40001
1.40001
1.40001
1.40001
1.40001
1.40001
1.40001
1.40001
1.40001
1.40001
1.40001
1.40001
1.40001
1.40001
1.40001
1.40001
1.40001
1.40001
1.40001
1.40001
1.40001
1.40001
1.40001
1.40001
1.40001
1.40001
1.40001
1.40001
1.40001
1.40001
1.40001
1.40001
1.40001
1.40001
1.40001
1.40001
1.40001
1.40001
1.40001
1.40001
1.40001
1.40001
1.40001
1.40001
1.40001
1.40001
1.40001
1.40001
1.40001
1.40001
1.40001
1.40001
1.40001
1.40001
1.40001
1.40001
1.40001
1.40001
1.40001
1.40001
1.40001
1.40001
1.40001
1.40001
1.40001
1.40001
1.40001
1.40001
1.40001
1.40001
1.40001
1.40001
1.40001
1.40001
1.40001
1.40001
1.40001
1.40001
1.40001
1.40001
1.40001
1.40001
1.40001
1.40001
1.40001
1.40001
1.40001
1.40001
1.40001
1.40001
1.40001
1.40001
1.40001
1.40001
1.40001
1.40001
1.40001
1.40001
1.40001
1.40001
1.40001
1.40001
1.40001
1.40001
1.40001
1.40001
1.40001
1.40001
1.40001
1.40001
1.40001
1.40001
1.40001
1.40001
1.40001
1.40001
1.40001
1.40001
1.40001
1.40001
1.40001
1.40001
1.40001
1.40001
1.40001
1.40001
1.40001
1.40001
1.40001
1.40001
1.40001
1.40001
1.40001
1.40001
1.40001
1.40001
1.40001
1.40001
1.40001
1.40001
1.40001
1.40001
1.40001
1.40001
1.40001
1.40001
1.40001
1.40001
1.40001
1.40001
1.40001
1.40001
1.40001
1.40001
1.40001
1.40001
1.40001
1.40001
1.40001
1.40001
1.40001
1.40001
1.40001
1.40001
1.40001
1.40001
1.40001
1.40001
1.40001
1.40001
1.40001
1.40001
1.40001
1.40001
1.40001
1.40001
1.40001
1.40001
1.40001
1.40001
1.40001
1.40001
1.40001
1.40001
1.40001
1.40001
1.40001
1.40001
1.40001
1.40001
1.40001
1.40001
1.40001
1.40001
1.40001
1.40001
1.40001
1.40001
1.40001
1.40001
1.40001
1.40001
1.40001
1.40001
1.40001
1.40001
1.40001
1.40001
1.40001
1.40001
1.40001
1.40001
1.40001
1.40001
1.40001
1.40001
1.40001
1.40001
1.40001
1.40001
1.40001
1.40001
1.40001
1.40001
1.40001
1.40001
1.40001
1.40001
1.40001
1.40001
1.40001
1.40001
1.40001
1.40001
1.40001
1.40001
1.40001
1.40001
1.40001
1.40001
1.40001
1.40001
1.40001
1.40001
1.40001
1.40001
1.40001
1.40001
1.40001
1.40001
1.40001
1.40001
1.40001
1.40001
1.40001
1.40001
1.40001
1.40001
1.40001
1.40001
1.40001
1.40001
1.40001
1.40001
1.40001
1.40001
1.40001
1.40001
1.40001
1.40001
1.40001
1.40001
1.40001
1.40001
1.40001
1.40001
1.40001
1.40001
1.40001
1.40001
1.40001
1.40001
1.40001
1.40001
1.40001
1.40001
1.40001
1.40001
1.40001
1.40001
1.40001
1.40001
1.40001
1.40001
1.40001
1.40001
1.40001
1.40001
1.40001
1.40001
1.40001
1.40001
1.40001
1.40001
1.40001
1.40001
1.40001
1.40001
1.40001
1.40001
1.40001
1.40001
1.40001
1.40001
1.40001
1.40001
1.40001
1.40001
1.40001
1.40001
1.40001
1.40001
1.40001
1.40001
1.40001
1.40001
1.40001
1.40001
1.40001
1.40001
1.40001
1.40001
1.40001
1.40001
1.40001
1.40001
1.40001
1.40001
1.40001
1.40001
1.40001
1.40001
1.40001
1.40001
1.40001
1.40001
1.40001
1.40001
1.40001
1.40001
1.40001
1.40001
1.40001
1.40001
1.40001
1.40001
1.40001
1.40001
1.40001
1.40001
1.40001
1.40001
1.40001
1.40001
1.40001
1.40001
1.40001
1.40001
1.40001
1.40001
1.40001
1.40001
1.40001
1.40001
1.40001
1.40001
1.40001
1.40001
1.40001
1.40001
1.40001
1.40001
1.40001
1.40001
1.40001
1.40001
1.40001
1.40001
1.40001
1.40001
1.40001
1.40001
1.40001
1.40001
1.40001
1.40001
1.40001
1.40001
1.40001
1.40001
1.40001
1.40001
1.40001
1.40001
1.40001
1.40001
1.40001
1.40001
1.40001
1.40001
1.40001
1.40001
1.40001
1.40001
1.40001
1.40001
1.40001
1.40001
1.40001
1.40001
1.40001
1.40001
1.40001
1.40001
1.40001
1.40001
1.40001
1.40001
1.40001
1.40001
1.40001
1.40001
1.40001
1.40001
1.40001
1.40001
1.40001
1.40001
1.40001
1.40001
1.40001
1.40001
1.40001
1.40001
1.40001
1.40001
1.40001
1.40001
1.40001
1.40001
1.40001
1.40001
1.40001
1.40001
1.40001
1.40001
1.40001
1.40001
1.40001
1.40001
1.40001
1.40001
1.40001
1.40001
1.40001
1.40001
1.40001
1.40001
1.40001
1.40001
1.40001
1.40001
1.40001
1.40001
1.40001
1.40001
1.40001
1.40001
1.40001
1.40001
1.40001
1.40001
1.40001
1.40001
1.40001
1.40001
1.40001
1.40001
1.40001
1.40001
1.40001
1.40001
1.40001
1.40001
1.40001
1.40001
1.40001
1.40001
1.40001
1.40001
1.40001
1.40001
1.40001
1.40001
1.40001
1.40001
1.40001
1.40001
1.40001
1.40001
1.40001
1.40001
1.40001
1.40001
1.40001
1.40001
1.40001
1.40001
1.40001
1.40001
1.40001
1.40001
1.40001
1.40001
1.40001
1.40001
1.40001
1.40001
1.40001
1.40001
1.40001
1.40001
1.40001
1.40001
1.40001
1.40001
1.40001
1.40001
1.40001
1.40001
1.40001
1.40001
1.40001
1.40001
1.40001
1.40001
1.40001
1.40001
1.40001
1.40001
1.40001
1.40001
1.40001
1.40001
1.40001
1.40001
1.40001
1.40001
1.40001
1.40001
1.40001
1.40001
1.40001
1.40001
1.40001
1.40001
1.40001
1.40001
1.40001
1.40001
1.40001
1.40001
1.40001
1.40001
1.40001
1.40001
1.40001
1.40001
1.40001
1.40001
1.40001
1.40001
1.40001
1.40001
1.40001
1.40001
1.40001
1.40001
1.40001
1.40001
1.40001
1.40001
1.40001
1.40001
1.40001
1.40001
1.40001
1.40001
1.40001
1.40001
1.40001
1.40001
1.40001
1.40001
1.40001
1.40001
1.40001
1.40001
1.40001
1.40001
1.40001
1.40001
1.40001
1.40001
1.40001
1.40001
1.40001
1.40001
1.40001
1.40001
1.40001
1.40001
1.40001
1.40001
1.40001
1.40001
1.40001
1.40001
1.40001
1.40001
1.40001
1.40001
1.40001
1.40001
1.40001
1.40001
1.40001
1.40001
1.40001
1.40001
1.40001
1.40001
1.40001
1.40001
1.40001
1.40001
1.40001
1.40001
1.40001
1.40001
1.40001
1.40001
1.40001
1.40001
1.40001
1.40001
1.40001
1.40001
1.40001
1.40001
1.40001
1.40001
1.40001
1.40001
1.40001
1.40001
1.40001
1.40001
1.40001
1.40001
1.40001
1.40001
1.40001
1.40001
1.40001
1.40001
1.40001
1.40001
1.40001
1.40001
1.40001
1.40001
1.40001
1.40001
1.40001
1.40001
1.40001
1.40001
1.40001
1.40001
1.40001
1.40001
1.40001
1.40001
1.40001
1.40001
1.40001
1.40001
1.40001
1.40001
1.40001
1.40001
1.40001
1.40001
1.40001
1.40001
1.40001
1.40001
1.40001
1.40001
1.40001
1.40001
1.40001
1.40001
1.40001
1.40001
1.40001
1.40001
1.40001
1.40001
1.40001
1.40001
1.40001
1.40001
1.40001
1.40001
1.40001
1.40001
1.40001
1.40001
1.40001
1.40001
1.40001
1.40001
1.40001
1.40001
1.40001
1.40001
1.40001
1.40001
1.40001
1.40001
1.40001
1.40001
1.40001
1.40001
1.40001
1.40001
1.40001
1.40001
1.40001
1.40001
1.40001
1.40001
1.40001
1.40001
1.40001
1.40001
1.40001
1.40001
1.40001
1.40001
1.40001
1.40001
1.40001
1.40001
1.40001
1.40001
1.40001
1.40001
1.40001
1.40001
1.40001
1.40001
1.40001
1.40001
1.40001
1.40001
1.40001
1.40001
1.40001
1.40001
1.40001
1.40001
1.40001
1.40001
1.40001
1.40001
1.40001
1.40001
1.40001
1.40001
1.40001
1.40001
1.40001
1.40001
1.40001
1.40001
1.40001
1.40001
1.40001
1.40001
1.40001
1.40001
1.40001
1.40001
1.40001
1.40001
1.40001
1.40001
1.40001
1.40001
1.40001
1.40001
1.40001
1.40001
1.40001
1.40001
1.40001
1.40001
1.40001
1.40001
1.40001
1.40001
1.40001
1.40001
1.40001
1.40001
1.40001
1.40001
1.40001
1.40001
1.40001
1.40001
1.40001
1.40001
1.40001
1.40001
1.40001
1.40001
1.40001
1.40001
1.40001
1.40001
1.40001
1.40001
1.40001
1.40001
1.40001
1.40001
1.40001
1.40001
1.40001
1.40001
1.40001
1.40001
1.40001
1.40001
1.40001
1.40001
1.40001
1.40001
1.40001
1.40001
1.40001
1.40001
1.40001
1.40001
1.40001
1.40001
1.40001
1.40001
1.40001
1.40001
1.40001
1.40001
1.40001
1.40001
1.40001
1.40001
1.40001
1.40001
1.40001
1.40001
1.40001
1.40001
1.40001
1.40001
1.40001
1.40001
1.40001
1.40001
1.40001
1.40001
1.40001
1.40001
1.40001
1.40001
1.40001
1.40001
1.40001
1.40001
1.40001
1.40001
1.40001
1.40001
1.40001
1.40001
1.40001
1.40001
1.40001
1.40001
1.40001
1.40001
1.40001
1.40001
1.40001
1.40001
1.40001
1.40001
1.40001
1.40001
1.40001
1.40001
1.40001
1.40001
1.40001
1.40001
1.40001
1.40001
1.40001
1.40001
1.40001
1.40001
1.40001
1.40001
1.40001
1.40001
1.40001
1.40001
1.40001
1.40001
1.40001
1.40001
1.40001
1.40001
1.40001
1.40001
1.40001
1.40001
1.40001
1.40001
1.40001
1.40001
1.40001
1.40001
1.40001
1.40001
1.40001
1.40001
1.40001
1.40001
1.40001
1.40001
1.40001
1.40001
1.40001
1.40001
1.40001
1.40001
1.40001
1.40001
1.40001
1.40001
1.40001
1.40001
1.40001
1.40001
1.40001
1.40001
1.40001
1.40001
1.40001
1.40001
1.40001
1.40001
1.40001
1.40001
1.40001
1.40001
1.40001
1.40001
1.40001
1.40001
1.40001
1.40001
1.40001
1.40001
1.40001
1.40001
1.40001
1.40001
1.40001
1.40001
1.40003
1.40153
1.42781
1.71825
2.8184
3.37637
3.58853
3.72086
3.72594
3.70595
3.69804
3.68787
3.65396
3.60992
3.59593
3.59534
3.59588
3.57713
3.55762
3.54926
3.53682
3.51305
3.50486
3.50806
3.50779
3.49251
3.4712
3.45089
3.43145
3.41097
3.39087
3.37219
3.36394
3.3615
3.35524
3.34591
3.33483
3.3212
3.3059
3.29151
3.28128
3.27396
3.26024
3.23547
3.21472
3.20019
3.18591
3.17153
3.15775
3.14665
3.13992
3.13584
3.12999
3.11645
3.09927
3.09515
3.09589
3.10166
3.12505
3.1767
3.23363
3.30188
3.33466
3.33705
3.32653
3.29493
3.25612
3.23834
3.23046
3.22694
3.22899
3.24312
3.26148
3.26288
3.25015
3.22977
3.20515
3.16704
3.11187
3.07493
3.06022
3.05534
3.05304
3.05698
3.06983
3.08243
3.08516
3.08042
3.07063
3.04975
3.01824
2.96678
2.90388
2.86968
2.85511
2.84973
2.85002
2.86862
2.89254
2.89164
2.8777
2.84948
2.80447
2.76337
2.74651
2.74292
2.74375
2.74795
2.74442
2.73667
2.72107
2.69272
2.66207
2.64692
2.64375
2.64322
2.64036
2.63276
2.61366
2.58413
2.55995
2.5512
2.55052
2.56331
2.57931
2.57767
2.56794
2.54838
2.50903
2.44689
2.40449
2.38718
2.38274
2.38087
2.38447
2.40557
2.44002
2.45509
2.45165
2.44339
2.42848
2.39872
2.33945
2.29481
2.28145
2.27912
2.28166
2.30384
2.33665
2.34174
2.33313
2.31271
2.2675
2.21064
2.19025
2.18636
2.18533
2.19317
2.21809
2.2314
2.22937
2.22631
2.22053
2.20175
2.16541
2.13732
2.13028
2.12815
2.12689
2.12519
2.12284
2.11991
2.11318
2.09763
2.08979
2.1324
2.42709
3.14509
3.85152
1.40001
1.40001
1.40001
1.40001
1.40001
1.40001
1.40001
1.40001
1.40001
1.40001
1.40001
1.40001
1.40001
1.40001
1.40001
1.40001
1.40001
1.40001
1.40001
1.40001
1.40001
1.40001
1.40001
1.40001
1.40001
1.40001
1.40001
1.40001
1.40001
1.40001
1.40001
1.40001
1.40001
1.40001
1.40001
1.40001
1.40001
1.40001
1.40001
1.40001
1.40001
1.40001
1.40001
1.40001
1.40001
1.40001
1.40001
1.40001
1.40001
1.40001
1.40001
1.40001
1.40001
1.40046
1.41994
1.75652
2.67338
3.28106
3.67846
3.76345
3.7509
3.71583
3.67212
3.6317
3.61894
3.61695
3.60411
3.59553
3.58499
3.58316
3.57839
3.55012
3.5347
3.53581
3.53502
3.51704
3.49422
3.47314
3.45297
3.43182
3.41616
3.40069
3.39104
3.38761
3.38156
3.37155
3.36018
3.34653
3.33045
3.31561
3.30599
3.29937
3.28733
3.26269
3.23728
3.21953
3.20457
3.19176
3.18121
3.17396
3.1698
3.16672
3.15808
3.14222
3.12094
3.10544
3.0999
3.09926
3.10439
3.12082
3.15502
3.19437
3.2403
3.27988
3.29311
3.28081
3.25603
3.24937
3.24689
3.2497
3.26105
3.27984
3.29104
3.28706
3.27367
3.25321
3.22694
3.18591
3.13304
3.1004
3.08612
3.08104
3.07932
3.08761
3.10755
3.12292
3.12316
3.11501
3.09946
3.07685
3.0444
2.98791
2.92762
2.8981
2.88562
2.88141
2.88401
2.90719
2.93016
2.92707
2.91067
2.87974
2.83102
2.79012
2.77431
2.77092
2.77174
2.77504
2.77105
2.76349
2.74861
2.7205
2.68909
2.6739
2.67083
2.67029
2.66722
2.65892
2.63877
2.60835
2.58482
2.57686
2.57655
2.58955
2.60243
2.59919
2.58827
2.56727
2.52526
2.46465
2.42719
2.41168
2.40788
2.40647
2.41238
2.43716
2.46826
2.47657
2.47176
2.4635
2.44864
2.41842
2.3586
2.31476
2.30154
2.29926
2.30246
2.32643
2.35905
2.36325
2.35437
2.33413
2.28923
2.22991
2.20742
2.2028
2.2015
2.20801
2.23399
2.25392
2.25367
2.25025
2.2432
2.22321
2.18541
2.15407
2.14515
2.14311
2.14198
2.14139
2.13899
2.13629
2.13186
2.11747
2.1184
2.22783
2.70438
3.4915
4.10635
4.34953
1.40001
1.40001
1.40001
1.40001
1.40001
1.40001
1.40001
1.40001
1.40001
1.40001
1.40001
1.40001
1.40001
1.40001
1.40001
1.40001
1.40001
1.40001
1.40001
1.40001
1.40001
1.40001
1.40001
1.40001
1.40001
1.40001
1.40001
1.40001
1.40001
1.40001
1.40001
1.40001
1.40001
1.40001
1.40001
1.40001
1.40001
1.40001
1.40001
1.40001
1.40001
1.40001
1.40001
1.40001
1.40001
1.40001
1.40001
1.40001
1.40001
1.40001
1.40001
1.40001
1.40001
1.40001
1.40038
1.42451
1.7406
2.39816
3.24455
3.75197
3.73384
3.68054
3.65503
3.64413
3.63638
3.6122
3.61184
3.6109
3.61282
3.61052
3.5805
3.56218
3.56126
3.56131
3.54158
3.51682
3.49708
3.47926
3.45629
3.43693
3.42915
3.41936
3.41347
3.40835
3.39902
3.38612
3.37223
3.35638
3.34043
3.33013
3.32359
3.3128
3.28851
3.26062
3.24157
3.22614
3.21318
3.2054
3.20153
3.19961
3.19558
3.18344
3.16536
3.14693
3.12978
3.12184
3.11724
3.11502
3.11525
3.11901
3.13027
3.13926
3.1586
3.19878
3.23294
3.2374
3.24206
3.25322
3.26878
3.29308
3.316
3.31816
3.30885
3.29431
3.27523
3.24733
3.20339
3.15327
3.12424
3.11084
3.10617
3.10621
3.12025
3.14446
3.15623
3.15212
3.1404
3.12296
3.10094
3.06542
3.00623
2.95324
2.92774
2.91728
2.91411
2.91935
2.94659
2.96729
2.96221
2.94342
2.91009
2.85778
2.81789
2.80317
2.79982
2.80033
2.80286
2.79856
2.79142
2.77776
2.75001
2.71789
2.70206
2.69895
2.69828
2.69483
2.68553
2.66388
2.63296
2.61033
2.60326
2.60325
2.6161
2.62567
2.62109
2.6088
2.58608
2.54151
2.48437
2.45109
2.4368
2.43356
2.43257
2.44077
2.46764
2.49351
2.49655
2.49112
2.48322
2.46866
2.43845
2.37878
2.33549
2.32252
2.32028
2.32409
2.34935
2.38061
2.38374
2.37471
2.35479
2.31031
2.25013
2.22592
2.22045
2.21908
2.2253
2.25207
2.27655
2.27802
2.27425
2.26555
2.24396
2.20429
2.17091
2.16077
2.15862
2.15769
2.15745
2.1559
2.15251
2.14917
2.13935
2.16202
2.39441
3.06179
3.79498
4.29757
4.41086
4.40367
1.40001
1.40001
1.40001
1.40001
1.40001
1.40001
1.40001
1.40001
1.40001
1.40001
1.40001
1.40001
1.40001
1.40001
1.40001
1.40001
1.40001
1.40001
1.40001
1.40001
1.40001
1.40001
1.40001
1.40001
1.40001
1.40001
1.40001
1.40001
1.40001
1.40001
1.40001
1.40001
1.40001
1.40001
1.40001
1.40001
1.40001
1.40001
1.40001
1.40001
1.40001
1.40001
1.40001
1.40001
1.40001
1.40001
1.40001
1.40001
1.40001
1.40001
1.40001
1.40001
1.40001
1.40001
1.40001
1.40045
1.42106
1.57425
2.14186
3.32035
3.57912
3.64343
3.66386
3.65158
3.62831
3.63804
3.64501
3.64718
3.64004
3.60251
3.58211
3.58298
3.58594
3.56199
3.53736
3.52159
3.5066
3.4838
3.46095
3.45336
3.44943
3.44002
3.43554
3.42945
3.41376
3.39588
3.38177
3.3661
3.35419
3.34675
3.33674
3.3141
3.28393
3.26475
3.25004
3.238
3.23173
3.22913
3.22764
3.22214
3.20788
3.18759
3.16939
3.1564
3.14983
3.14593
3.14062
3.13105
3.12237
3.11628
3.10938
3.10013
3.10658
3.13395
3.17541
3.21163
3.23889
3.27033
3.31004
3.33706
3.33843
3.32898
3.31349
3.29505
3.26657
3.22135
3.17413
3.14706
3.1342
3.13053
3.13326
3.15239
3.17579
3.18078
3.17387
3.16068
3.14352
3.12033
3.08029
3.02237
2.97911
2.95758
2.94946
2.94729
2.95769
2.98759
3.00351
2.99634
2.975
2.93878
2.88342
2.84613
2.83248
2.82899
2.8293
2.83133
2.82703
2.82019
2.80793
2.78121
2.7486
2.73183
2.72851
2.72755
2.72347
2.71262
2.68912
2.65766
2.63641
2.63024
2.63064
2.64327
2.64963
2.64358
2.62973
2.60479
2.55809
2.50492
2.47558
2.46288
2.46009
2.45964
2.47
2.49682
2.51623
2.51552
2.50999
2.50252
2.48837
2.45872
2.39975
2.35718
2.34443
2.34227
2.34666
2.37298
2.40188
2.40358
2.39431
2.37437
2.33063
2.27095
2.24576
2.23982
2.23852
2.24569
2.27388
2.29944
2.30122
2.29668
2.28617
2.26403
2.22316
2.18826
2.17694
2.17466
2.17391
2.17418
2.17263
2.17028
2.16579
2.1664
2.24233
2.6471
3.43175
4.04784
4.40522
4.46077
4.43667
4.32423
1.40001
1.40001
1.40001
1.40001
1.40001
1.40001
1.40001
1.40001
1.40001
1.40001
1.40001
1.40001
1.40001
1.40001
1.40001
1.40001
1.40001
1.40001
1.40001
1.40001
1.40001
1.40001
1.40001
1.40001
1.40001
1.40001
1.40001
1.40001
1.40001
1.40001
1.40001
1.40001
1.40001
1.40001
1.40001
1.40001
1.40001
1.40001
1.40001
1.40001
1.40001
1.40001
1.40001
1.40001
1.40001
1.40001
1.40001
1.40001
1.40001
1.40001
1.40001
1.40001
1.40001
1.40001
1.40001
1.40001
1.40022
1.40603
1.48897
2.1634
3.11781
3.47413
3.67053
3.70008
3.68837
3.69267
3.6893
3.66851
3.62109
3.59429
3.60013
3.60842
3.57794
3.55744
3.54643
3.53014
3.50776
3.48964
3.48121
3.48174
3.47116
3.46344
3.45592
3.43804
3.41768
3.40516
3.39207
3.37882
3.37004
3.35973
3.33906
3.3075
3.28815
3.27525
3.26478
3.25985
3.2576
3.2554
3.24718
3.23193
3.21143
3.19164
3.1817
3.17723
3.17428
3.16816
3.15509
3.13946
3.12611
3.11291
3.09552
3.08711
3.08961
3.10289
3.14075
3.19195
3.23826
3.29258
3.33678
3.34383
3.34154
3.33142
3.31342
3.28402
3.24027
3.19797
3.17096
3.15765
3.15467
3.16035
3.18328
3.20192
3.2007
3.19182
3.17834
3.16131
3.13506
3.09064
3.03798
3.0049
2.9866
2.9805
2.9804
2.99793
3.02912
3.03828
3.02837
3.00531
2.96564
2.90748
2.87338
2.86131
2.85771
2.85818
2.86016
2.85609
2.84963
2.83862
2.81335
2.78093
2.76331
2.75967
2.75829
2.7533
2.74027
2.71442
2.68258
2.66296
2.65761
2.65872
2.67113
2.67477
2.66731
2.65156
2.62382
2.57535
2.52744
2.50131
2.49014
2.48771
2.48825
2.50085
2.52525
2.53723
2.53419
2.52866
2.52147
2.50784
2.47915
2.42179
2.37952
2.36694
2.36495
2.37012
2.39719
2.4236
2.42344
2.41361
2.39317
2.34983
2.29239
2.26692
2.2607
2.25995
2.2694
2.2993
2.32198
2.32213
2.31627
2.30448
2.28296
2.242
2.2062
2.19391
2.19141
2.19052
2.19184
2.18951
2.18785
2.18441
2.20234
2.38595
2.99613
3.75313
4.26621
4.4803
4.49853
4.45634
4.34382
4.22961
1.40001
1.40001
1.40001
1.40001
1.40001
1.40001
1.40001
1.40001
1.40001
1.40001
1.40001
1.40001
1.40001
1.40001
1.40001
1.40001
1.40001
1.40001
1.40001
1.40001
1.40001
1.40001
1.40001
1.40001
1.40001
1.40001
1.40001
1.40001
1.40001
1.40001
1.40001
1.40001
1.40001
1.40001
1.40001
1.40001
1.40001
1.40001
1.40001
1.40001
1.40001
1.40001
1.40001
1.40001
1.40001
1.40001
1.40001
1.40001
1.40001
1.40001
1.40001
1.40001
1.40001
1.40001
1.40001
1.40001
1.40001
1.40005
1.40282
1.49146
2.13488
2.92616
3.47365
3.73026
3.74545
3.70858
3.66884
3.6347
3.6138
3.61314
3.62316
3.5959
3.57866
3.56762
3.54944
3.52833
3.51647
3.51311
3.51845
3.50792
3.49343
3.48204
3.46407
3.43999
3.42735
3.41857
3.40512
3.3941
3.38268
3.36258
3.33333
3.31201
3.30129
3.29206
3.28756
3.28552
3.28275
3.27237
3.25485
3.23616
3.21702
3.20769
3.20385
3.19979
3.19342
3.17975
3.16239
3.14434
3.12853
3.11093
3.09072
3.08617
3.08805
3.09687
3.12692
3.17572
3.22794
3.29225
3.33651
3.34241
3.34077
3.32799
3.29915
3.25816
3.2231
3.19846
3.18498
3.18151
3.18867
3.21284
3.22566
3.22042
3.20911
3.19471
3.17653
3.14653
3.10025
3.05579
3.02951
3.01426
3.00965
3.01316
3.0375
3.06639
3.06883
3.05667
3.03347
2.99161
2.93064
2.89891
2.8883
2.88501
2.88654
2.88894
2.88477
2.87862
2.86884
2.84555
2.81425
2.79622
2.79221
2.79015
2.78382
2.76788
2.73997
2.70789
2.68984
2.68519
2.6871
2.69947
2.70116
2.69234
2.67435
2.64346
2.59371
2.5515
2.52843
2.51949
2.51741
2.51971
2.53423
2.55314
2.55757
2.55297
2.5473
2.54022
2.5272
2.50004
2.44486
2.40267
2.38989
2.38805
2.39412
2.42188
2.44565
2.44418
2.43332
2.41184
2.36844
2.31387
2.28871
2.28283
2.28297
2.29551
2.32594
2.34278
2.34039
2.33289
2.32092
2.30051
2.26048
2.22456
2.21172
2.20912
2.20784
2.20929
2.20819
2.20613
2.20776
2.26693
2.61326
3.38438
4.01953
4.40794
4.53511
4.53732
4.47766
4.35726
4.25493
4.22851
1.40001
1.40001
1.40001
1.40001
1.40001
1.40001
1.40001
1.40001
1.40001
1.40001
1.40001
1.40001
1.40001
1.40001
1.40001
1.40001
1.40001
1.40001
1.40001
1.40001
1.40001
1.40001
1.40001
1.40001
1.40001
1.40001
1.40001
1.40001
1.40001
1.40001
1.40001
1.40001
1.40001
1.40001
1.40001
1.40001
1.40001
1.40001
1.40001
1.40001
1.40001
1.40001
1.40001
1.40001
1.40001
1.40001
1.40001
1.40001
1.40001
1.40001
1.40001
1.40001
1.40001
1.40001
1.40001
1.40001
1.40001
1.40001
1.40003
1.40304
1.4993
1.94527
2.65886
3.56499
3.73049
3.67231
3.64157
3.63834
3.63149
3.62191
3.61497
3.60241
3.59553
3.58094
3.55187
3.54146
3.54211
3.55264
3.54065
3.51938
3.50801
3.49643
3.47064
3.44812
3.44356
3.43271
3.41807
3.40381
3.38473
3.36008
3.33759
3.32906
3.31962
3.31423
3.31206
3.30884
3.29679
3.27745
3.26063
3.24444
3.23466
3.23093
3.22457
3.21573
3.20203
3.18505
3.16648
3.14904
3.13218
3.11206
3.09635
3.092
3.09364
3.1021
3.12049
3.15779
3.2069
3.27518
3.32169
3.32988
3.32769
3.30691
3.27143
3.24491
3.22595
3.21638
3.21447
3.22394
3.24226
3.24839
3.24109
3.22723
3.21114
3.1904
3.15699
3.11178
3.07573
3.05344
3.04082
3.03761
3.0453
3.07458
3.09738
3.09423
3.08092
3.05863
3.01577
2.9537
2.92226
2.9125
2.90965
2.91257
2.91652
2.91243
2.90617
2.89732
2.87649
2.84747
2.82988
2.82577
2.82246
2.81367
2.79458
2.76505
2.7336
2.717
2.71285
2.71581
2.72819
2.72877
2.71865
2.69849
2.66432
2.61405
2.57686
2.55754
2.55162
2.55056
2.55634
2.56959
2.57981
2.57813
2.5723
2.56612
2.55891
2.54648
2.52136
2.46939
2.42666
2.41333
2.41165
2.41838
2.44668
2.46801
2.46558
2.45376
2.43102
2.38716
2.33596
2.31168
2.30622
2.30739
2.3228
2.35155
2.36164
2.35694
2.34792
2.33604
2.31649
2.2784
2.24342
2.23014
2.22773
2.22689
2.22683
2.22721
2.22569
2.23961
2.38922
2.94422
3.73612
4.2344
4.50768
4.57445
4.56502
4.49917
4.37645
4.28288
4.2598
4.27201
1.40001
1.40001
1.40001
1.40001
1.40001
1.40001
1.40001
1.40001
1.40001
1.40001
1.40001
1.40001
1.40001
1.40001
1.40001
1.40001
1.40001
1.40001
1.40001
1.40001
1.40001
1.40001
1.40001
1.40001
1.40001
1.40001
1.40001
1.40001
1.40001
1.40001
1.40001
1.40001
1.40001
1.40001
1.40001
1.40001
1.40001
1.40001
1.40001
1.40001
1.40001
1.40001
1.40001
1.40001
1.40001
1.40001
1.40001
1.40001
1.40001
1.40001
1.40001
1.40001
1.40001
1.40001
1.40001
1.40001
1.40001
1.40001
1.40001
1.40003
1.40283
1.44705
1.6964
2.63065
3.51942
3.55723
3.62705
3.65586
3.64048
3.63737
3.62989
3.62881
3.61944
3.57899
3.56446
3.5658
3.58021
3.56489
3.5392
3.53086
3.52615
3.50183
3.47117
3.46271
3.45721
3.44183
3.42534
3.40733
3.38533
3.36333
3.35625
3.34896
3.34074
3.3374
3.33315
3.31938
3.29854
3.28403
3.27158
3.26053
3.25619
3.25004
3.23822
3.22265
3.20614
3.18826
3.17069
3.15491
3.13759
3.12292
3.11774
3.11348
3.10888
3.10923
3.11487
3.13636
3.17542
3.22984
3.27259
3.29478
3.29426
3.27391
3.25862
3.24965
3.24637
3.25242
3.26617
3.27288
3.27029
3.26204
3.24712
3.22886
3.20508
3.16856
3.12596
3.09659
3.07687
3.06712
3.06539
3.0775
3.10803
3.12297
3.11665
3.10235
3.08027
3.03631
2.97511
2.94472
2.9345
2.9314
2.93487
2.94143
2.93779
2.93148
2.92335
2.90534
2.87958
2.86323
2.85921
2.8541
2.84179
2.8198
2.78907
2.75938
2.74456
2.74096
2.74508
2.75794
2.75735
2.74607
2.72356
2.68606
2.63707
2.60498
2.58924
2.58541
2.58802
2.5989
2.60572
2.60456
2.59931
2.59235
2.58546
2.578
2.56615
2.54319
2.49539
2.45188
2.43737
2.43587
2.44322
2.47163
2.49105
2.48763
2.47476
2.4505
2.40599
2.35873
2.33606
2.33117
2.33331
2.35076
2.37555
2.37967
2.37287
2.36237
2.35007
2.33075
2.29546
2.26287
2.24942
2.24682
2.24665
2.24698
2.24668
2.24859
2.2919
2.58971
3.34614
4.01822
4.39715
4.58847
4.61491
4.58804
4.51514
4.39338
4.31095
4.29164
4.30707
4.38992
1.40001
1.40001
1.40001
1.40001
1.40001
1.40001
1.40001
1.40001
1.40001
1.40001
1.40001
1.40001
1.40001
1.40001
1.40001
1.40001
1.40001
1.40001
1.40001
1.40001
1.40001
1.40001
1.40001
1.40001
1.40001
1.40001
1.40001
1.40001
1.40001
1.40001
1.40001
1.40001
1.40001
1.40001
1.40001
1.40001
1.40001
1.40001
1.40001
1.40001
1.40001
1.40001
1.40001
1.40001
1.40001
1.40001
1.40001
1.40001
1.40001
1.40001
1.40001
1.40001
1.40001
1.40001
1.40001
1.40001
1.40001
1.40001
1.40001
1.40001
1.40002
1.40067
1.41778
1.6502
2.59092
3.24416
3.53917
3.70201
3.6939
3.67487
3.66747
3.65052
3.60002
3.58186
3.58325
3.60269
3.58525
3.55996
3.55033
3.54801
3.5274
3.49406
3.48003
3.47862
3.46557
3.44698
3.43059
3.41083
3.38848
3.38101
3.37939
3.36912
3.36339
3.35781
3.34235
3.31906
3.30522
3.29554
3.2854
3.27827
3.27281
3.26219
3.24398
3.22621
3.20933
3.19218
3.17774
3.16567
3.15619
3.15244
3.14712
3.13208
3.11551
3.11037
3.11145
3.12042
3.14126
3.16675
3.2004
3.23695
3.2543
3.2548
3.25939
3.26767
3.28495
3.30405
3.30399
3.29488
3.28338
3.26812
3.24893
3.22219
3.18267
3.1433
3.11818
3.10074
3.09351
3.09344
3.11003
3.13852
3.14575
3.13728
3.12231
3.09916
3.05296
2.99356
2.96583
2.95553
2.95147
2.95311
2.96097
2.9603
2.95516
2.94801
2.93307
2.90991
2.8953
2.89101
2.88327
2.86693
2.8432
2.81176
2.78521
2.77237
2.76949
2.77544
2.78852
2.78664
2.77383
2.74886
2.70816
2.66256
2.63537
2.62392
2.6222
2.63011
2.64182
2.64039
2.63092
2.62101
2.61303
2.60565
2.59795
2.5867
2.56568
2.52251
2.47865
2.46244
2.46092
2.46845
2.49659
2.51478
2.51064
2.49646
2.47028
2.42497
2.38144
2.36129
2.35743
2.36063
2.37937
2.39852
2.39804
2.38896
2.37689
2.3635
2.34359
2.31161
2.28267
2.26952
2.26692
2.26666
2.26839
2.26787
2.27855
2.39591
2.88694
3.73803
4.24492
4.50798
4.63537
4.64727
4.61341
4.53366
4.4091
4.34203
4.32596
4.34479
4.42773
4.48652
1.40001
1.40001
1.40001
1.40001
1.40001
1.40001
1.40001
1.40001
1.40001
1.40001
1.40001
1.40001
1.40001
1.40001
1.40001
1.40001
1.40001
1.40001
1.40001
1.40001
1.40001
1.40001
1.40001
1.40001
1.40001
1.40001
1.40001
1.40001
1.40001
1.40001
1.40001
1.40001
1.40001
1.40001
1.40001
1.40001
1.40001
1.40001
1.40001
1.40001
1.40001
1.40001
1.40001
1.40001
1.40001
1.40001
1.40001
1.40001
1.40001
1.40001
1.40001
1.40001
1.40001
1.40001
1.40001
1.40001
1.40001
1.40001
1.40001
1.40001
1.40001
1.40001
1.40028
1.41337
1.64675
2.44004
3.11287
3.61177
3.72937
3.71202
3.6578
3.61088
3.59847
3.59779
3.61749
3.60214
3.57957
3.57205
3.57006
3.54973
3.5156
3.49916
3.50085
3.49172
3.4694
3.45277
3.43861
3.417
3.4068
3.40742
3.40076
3.39081
3.38241
3.36683
3.34153
3.32528
3.31755
3.30805
3.29988
3.29302
3.2841
3.26612
3.24693
3.23017
3.2147
3.20194
3.1946
3.19024
3.18693
3.17784
3.15857
3.13583
3.12011
3.1131
3.11166
3.11348
3.11954
3.1258
3.14306
3.18051
3.22323
3.24719
3.26816
3.29654
3.3222
3.32654
3.3199
3.30725
3.29099
3.27104
3.24259
3.20093
3.16381
3.14091
3.12589
3.12062
3.12266
3.14273
3.16636
3.16736
3.15718
3.14124
3.11665
3.06854
3.01177
2.98538
2.97481
2.97029
2.97005
2.97679
2.97882
2.97532
2.97038
2.9606
2.94045
2.92501
2.91877
2.90733
2.88888
2.86402
2.83325
2.81081
2.80009
2.79792
2.80658
2.81913
2.81576
2.80093
2.7741
2.73108
2.68905
2.66653
2.65973
2.66152
2.67446
2.68051
2.67287
2.65631
2.64294
2.63442
2.62702
2.61927
2.60857
2.58906
2.55039
2.50681
2.48879
2.48711
2.49458
2.52176
2.5386
2.53419
2.51915
2.49132
2.44494
2.40462
2.38673
2.38375
2.38868
2.40822
2.42149
2.41772
2.40595
2.3918
2.37629
2.35553
2.32761
2.30322
2.29047
2.28811
2.28742
2.28995
2.29252
2.32143
2.57089
3.28862
4.04594
4.41487
4.60956
4.68148
4.67555
4.63485
4.55132
4.43113
4.37201
4.35838
4.3856
4.47194
4.5178
4.50337
1.40001
1.40001
1.40001
1.40001
1.40001
1.40001
1.40001
1.40001
1.40001
1.40001
1.40001
1.40001
1.40001
1.40001
1.40001
1.40001
1.40001
1.40001
1.40001
1.40001
1.40001
1.40001
1.40001
1.40001
1.40001
1.40001
1.40001
1.40001
1.40001
1.40001
1.40001
1.40001
1.40001
1.40001
1.40001
1.40001
1.40001
1.40001
1.40001
1.40001
1.40001
1.40001
1.40001
1.40001
1.40001
1.40001
1.40001
1.40001
1.40001
1.40001
1.40001
1.40001
1.40001
1.40001
1.40001
1.40001
1.40001
1.40001
1.40001
1.40001
1.40001
1.40001
1.40001
1.40021
1.41361
1.60852
2.14518
2.98955
3.68157
3.68617
3.60951
3.61726
3.6223
3.62518
3.61335
3.59913
3.59363
3.59154
3.56923
3.53551
3.5201
3.52347
3.51826
3.49542
3.476
3.46881
3.45145
3.43498
3.4337
3.43253
3.41975
3.40848
3.39344
3.36758
3.34555
3.33888
3.33051
3.32105
3.31361
3.30493
3.28916
3.26902
3.25296
3.23873
3.22883
3.22431
3.22163
3.21695
3.20368
3.18273
3.15995
3.1399
3.12668
3.1199
3.11584
3.11446
3.11267
3.10909
3.11628
3.14443
3.19546
3.23795
3.27414
3.31518
3.33219
3.33214
3.32697
3.31405
3.29494
3.26637
3.22394
3.18804
3.16558
3.15336
3.14931
3.15457
3.17628
3.19244
3.1887
3.17684
3.15968
3.13302