/*--------------------------------*- C++ -*----------------------------------*\
  =========                 |
  \\      /  F ield         | OpenFOAM: The Open Source CFD Toolbox
   \\    /   O peration     | Website:  https://openfoam.org
    \\  /    A nd           | Version:  7
     \\/     M anipulation  |
\*---------------------------------------------------------------------------*/
FoamFile
{
    version     2.0;
    format      ascii;
    class       volVectorField;
    location    "1.5";
    object      U;
}
// * * * * * * * * * * * * * * * * * * * * * * * * * * * * * * * * * * * * * //

dimensions      [0 1 -1 0 0 0 0];

internalField   nonuniform List<vector> 
16512
(
(3 1.18683e-15 0)
(3 1.31197e-15 0)
(3 7.46442e-16 0)
(3 -1.07172e-16 0)
(3 -3.44439e-16 0)
(3 -2.67995e-16 0)
(3 -5.74722e-16 0)
(3 -1.10214e-15 0)
(3 -1.32492e-15 0)
(3 -1.717e-15 0)
(3 -1.37504e-15 0)
(3 -2.72068e-16 0)
(3 6.42538e-16 0)
(3 1.27333e-15 0)
(3 1.41348e-15 0)
(3 1.88933e-15 0)
(3 1.81869e-15 0)
(3 -3.1183e-17 0)
(3 -5.78596e-16 0)
(3 -6.00916e-16 0)
(3 -8.91898e-16 0)
(3 -9.51104e-16 0)
(3 -1.28031e-15 0)
(3 -1.80088e-15 0)
(3 -1.67271e-15 0)
(3 -2.44704e-15 0)
(3 -2.47908e-15 0)
(3 -1.07536e-15 0)
(3 -6.50444e-16 0)
(3 -7.82675e-16 0)
(3 -7.58155e-16 0)
(3 -3.84622e-16 0)
(3 -7.62131e-16 0)
(3 -3.11757e-16 0)
(3 5.89884e-17 0)
(3 -2.0709e-16 0)
(3 -4.178e-16 0)
(3 -1.22027e-15 0)
(3 -1.9667e-15 0)
(3 -1.79776e-15 0)
(3 -2.63913e-15 0)
(3 -2.95585e-15 0)
(3 -1.82654e-15 0)
(3 -1.54936e-15 0)
(3 -2.34739e-15 0)
(3 -2.30223e-15 0)
(3 -1.72278e-15 0)
(3 -4.69542e-16 0)
(3 1.04774e-16 0)
(3 -3.39732e-18 0)
(3 -2.3268e-16 0)
(3 -3.04087e-16 0)
(3 -9.08231e-16 0)
(3 -1.89816e-15 0)
(3 -2.08905e-15 0)
(3 -1.14534e-15 0)
(3 3.8096e-16 0)
(3 6.25965e-17 0)
(3 -1.94427e-16 0)
(3 5.56775e-16 0)
(3 3.71004e-16 0)
(3 1.88179e-16 0)
(3 1.34383e-15 0)
(3 2.1662e-15 0)
(3 3.63444e-17 0)
(3 2.55722e-17 0)
(3 1.27604e-16 0)
(3 4.43929e-16 0)
(3 9.67261e-16 0)
(3 1.12385e-15 0)
(3 9.27819e-16 0)
(3 7.30387e-16 0)
(3 1.20049e-15 0)
(3 9.40617e-16 0)
(3 2.29471e-16 0)
(3 1.13177e-16 0)
(3 -3.64117e-16 0)
(3 -2.00944e-16 0)
(3 1.47405e-16 0)
(3 -3.63264e-16 0)
(3 -4.48132e-16 0)
(3 -2.38201e-16 0)
(3 -7.39193e-16 0)
(3 -9.29254e-16 0)
(3 -1.12832e-15 0)
(3 -1.45564e-15 0)
(3 -1.52903e-15 0)
(3 -1.84018e-15 0)
(3 -1.77415e-15 0)
(3 -1.01577e-15 0)
(3 -9.3569e-16 0)
(3 -7.45783e-16 0)
(3 -8.53162e-16 0)
(3 -2.88276e-16 0)
(3 2.84282e-16 0)
(3 2.71609e-16 0)
(3 3.86606e-16 0)
(3 5.64632e-16 0)
(3 1.15615e-15 0)
(3 1.86389e-15 0)
(3 2.05582e-15 0)
(3 1.61733e-15 0)
(3 1.33012e-15 0)
(3 1.20043e-15 0)
(3 7.56912e-16 0)
(3 7.46591e-16 0)
(3 1.1413e-15 0)
(3 8.80934e-16 0)
(3 8.67042e-16 0)
(3 5.44186e-16 0)
(3 1.96763e-16 0)
(3 3.5976e-16 0)
(3 1.16788e-15 0)
(3 1.36442e-15 0)
(3 1.02707e-15 0)
(3 -1.94788e-16 0)
(3 -1.12892e-15 0)
(3 -7.02625e-16 0)
(3 -6.7452e-16 0)
(3 -9.76684e-18 0)
(3 -3.9622e-18 0)
(3 -3.42587e-16 0)
(3 -1.48632e-16 0)
(3 4.31371e-16 0)
(3 5.0932e-16 0)
(3 3.38958e-16 0)
(3 -8.19823e-16 0)
(3 -1.94301e-15 0)
(3 -1.63825e-15 0)
(3 -7.61263e-16 0)
(3 -1.40437e-15 0)
(3 -1.36971e-15 0)
(3 -1.12686e-15 0)
(3 -7.67149e-16 0)
(3 -9.5216e-16 0)
(3 -1.6395e-15 0)
(3 -1.92323e-15 0)
(3 -1.6803e-15 0)
(3 -2.0454e-15 0)
(3 -2.22758e-15 0)
(3 -2.06469e-15 0)
(3 -1.9489e-15 0)
(3 -7.14541e-16 0)
(3 -4.97286e-17 0)
(3 5.59499e-16 0)
(3 3.63773e-16 0)
(3 -2.98982e-17 0)
(3 -5.85709e-16 0)
(3 -1.51692e-15 0)
(3 -1.86193e-15 0)
(3 -1.66972e-15 0)
(3 2.71763e-16 0)
(3 3.63274e-16 0)
(3 9.38446e-16 0)
(3 1.1259e-15 0)
(3 1.11315e-15 0)
(3 9.5902e-16 0)
(3 8.50303e-16 0)
(3 -2.40628e-16 0)
(3 -8.77188e-16 0)
(3 -9.69447e-16 0)
(3 -1.14514e-15 0)
(3 -7.31947e-16 0)
(3 -9.15385e-16 0)
(3 -1.51633e-15 0)
(3 -8.90386e-16 0)
(3 2.28456e-16 0)
(3 5.66117e-16 0)
(3 4.39364e-16 0)
(3 -1.75214e-16 0)
(3 -3.99911e-16 0)
(3 -9.11063e-17 0)
(3 1.59168e-15 0)
(3 1.98942e-15 0)
(3 2.10914e-15 0)
(3 2.3376e-15 0)
(3 2.38934e-15 0)
(3 3.07353e-15 0)
(3 3.27015e-15 0)
(3 3.89253e-15 0)
(3 3.65433e-15 0)
(3 2.07134e-15 0)
(3 1.10469e-15 0)
(3 1.77129e-15 0)
(3 2.08147e-15 0)
(3 1.88165e-15 0)
(3 1.62992e-15 0)
(3 1.82305e-15 0)
(3 8.54789e-16 0)
(3 7.29126e-16 0)
(3 1.10776e-15 0)
(3 9.86574e-16 0)
(3 6.64936e-16 0)
(3 5.47767e-16 0)
(3 5.61815e-16 0)
(3 1.89833e-16 0)
(3 2.20004e-16 0)
(3 6.32627e-17 0)
(3 -2.24111e-16 0)
(3 -7.80784e-16 0)
(3 -8.85303e-16 0)
(3 -6.67432e-16 0)
(3 7.3639e-16 0)
(3 2.16684e-15 0)
(3 1.58184e-15 0)
(3 1.05832e-15 0)
(3 1.17831e-15 0)
(3 1.48503e-15 0)
(3 9.61907e-16 0)
(3 7.59475e-16 0)
(3 3.9046e-16 0)
(3 4.09158e-16 0)
(3 7.97444e-16 0)
(3 2.67272e-16 0)
(3 -4.23857e-16 0)
(3 -2.05995e-15 0)
(3 -2.51098e-15 0)
(3 -2.6075e-15 0)
(3 -1.85759e-15 0)
(3 -9.98245e-16 0)
(3 -1.10979e-15 0)
(3 -1.2211e-15 0)
(3 -7.21174e-16 0)
(3 -5.23014e-16 0)
(3 -8.5061e-16 0)
(3 -7.74349e-16 0)
(3 -4.99556e-16 0)
(3 -1.18559e-16 0)
(3 -8.78454e-16 0)
(3 -2.05363e-15 0)
(3 -1.75356e-15 0)
(3 -1.42452e-15 0)
(3 -1.15364e-15 0)
(3 -1.92438e-15 0)
(3 -1.30779e-15 0)
(3 2.24358e-16 0)
(3 3.57211e-16 0)
(3 -6.41961e-17 0)
(3 -1.11868e-17 0)
(3 5.96152e-16 0)
(3 8.97561e-16 0)
(3 1.17765e-15 0)
(3 3.12145e-16 0)
(3 -5.09635e-16 0)
(3 -9.61727e-16 0)
(3 -1.68631e-15 0)
(3 -1.59975e-15 0)
(3 -1.83164e-15 0)
(3 -1.6816e-15 0)
(3 -2.01362e-15 0)
(3 -2.01957e-15 0)
(3 -1.52589e-15 0)
(3 -1.05851e-15 0)
(3 -1.63112e-16 0)
(3 4.78793e-16 0)
(3 6.81117e-16 0)
(3 7.77111e-17 0)
(3 6.56004e-18 0)
(3 -1.36476e-16 0)
(3 1.18921e-16 0)
(3 1.20792e-15 0)
(3 1.74236e-15 0)
(3 1.25074e-15 0)
(3 2.64626e-16 0)
(3 2.94951e-16 0)
(3 1.47349e-16 0)
(3 -1.39631e-16 0)
(3 2.23183e-16 0)
(3 9.71338e-16 0)
(3 1.22578e-15 0)
(3 8.87168e-16 0)
(3 6.30017e-16 0)
(3 1.13787e-16 0)
(3 -3.1986e-16 0)
(3 -3.30946e-16 0)
(3 -5.01555e-16 0)
(3 1.06702e-17 0)
(3 4.5839e-16 0)
(3 7.30051e-16 0)
(3 -7.04924e-16 0)
(3 -1.39885e-15 0)
(3 -1.54001e-15 0)
(3 -1.00597e-15 0)
(3 -5.94829e-16 0)
(3 -1.02017e-16 0)
(3 -6.33144e-16 0)
(3 -5.30588e-16 0)
(3 -1.06352e-15 0)
(3 -1.06086e-15 0)
(3 -6.0506e-16 0)
(3 5.48498e-16 0)
(3 5.76686e-16 0)
(3 4.3178e-16 0)
(3 4.98408e-16 0)
(3 8.27597e-16 0)
(3 1.82138e-15 0)
(3 2.1824e-15 0)
(3 1.45604e-15 0)
(3 9.61017e-16 0)
(3 7.95856e-16 0)
(3 1.19579e-15 0)
(3 1.70863e-15 0)
(3 2.09779e-15 0)
(3 2.022e-15 0)
(3 1.90152e-15 0)
(3 1.16783e-15 0)
(3 9.30072e-16 0)
(3 7.62553e-16 0)
(3 -1.55787e-16 0)
(3 -2.39953e-16 0)
(3 4.92418e-16 0)
(3 1.86433e-16 0)
(3 2.90217e-16 0)
(3 5.1768e-16 0)
(3 1.12633e-15 0)
(3 7.84782e-16 0)
(3 2.58712e-16 0)
(3 -3.58372e-16 0)
(3 -1.2911e-15 0)
(3 -1.8633e-15 0)
(3 -2.71117e-15 0)
(3 -3.62538e-15 0)
(3 -3.16579e-15 0)
(3 -2.55994e-15 0)
(3 -2.57468e-15 0)
(3 -2.03016e-15 0)
(3 -1.64139e-15 0)
(3 -1.80486e-15 0)
(3 -1.41454e-15 0)
(3 -1.90713e-15 0)
(3 -2.30992e-15 0)
(3 -1.77313e-15 0)
(3 -5.65843e-16 0)
(3 -3.3543e-16 0)
(3 2.97121e-16 0)
(3 2.95628e-16 0)
(3 2.33687e-18 0)
(3 1.4222e-16 0)
(3 2.59446e-16 0)
(3 -3.55029e-16 0)
(3 -4.55876e-16 0)
(3 -2.46597e-16 0)
(3 1.40709e-16 0)
(3 -4.98238e-16 0)
(3 -9.87606e-16 0)
(3 -9.41442e-16 0)
(3 -5.32815e-16 0)
(3 -1.5457e-16 0)
(3 5.21019e-16 0)
(3 9.42658e-16 0)
(3 1.0253e-15 0)
(3 1.01418e-15 0)
(3 1.6519e-16 0)
(3 -3.60907e-16 0)
(3 -5.06143e-16 0)
(3 -1.09519e-16 0)
(3 1.42347e-16 0)
(3 1.646e-15 0)
(3 1.51168e-15 0)
(3 1.33576e-15 0)
(3 5.66684e-16 0)
(3 -1.48098e-16 0)
(3 -7.53101e-16 0)
(3 -3.13737e-16 0)
(3 6.99619e-16 0)
(3 1.68803e-15 0)
(3 2.38582e-15 0)
(3 2.30302e-15 0)
(3 2.70579e-15 0)
(3 3.20414e-15 0)
(3 4.85486e-15 0)
(3 4.88712e-15 0)
(3 5.11346e-15 0)
(3 2.83655e-15 0)
(3 2.14007e-15 0)
(3 1.89966e-15 0)
(3 1.3639e-15 0)
(3 2.04722e-15 0)
(3 2.51684e-15 0)
(3 1.66382e-15 0)
(3 -4.8425e-16 0)
(3 -1.2522e-15 0)
(3 -7.42053e-16 0)
(3 -1.80667e-16 0)
(3 3.3793e-16 0)
(3 7.7232e-16 0)
(3 4.41807e-16 0)
(3 1.23601e-15 0)
(3 1.51496e-15 0)
(3 8.16482e-16 0)
(3 -1.31918e-15 0)
(3 -1.84036e-15 0)
(3 -5.74548e-16 0)
(3 8.8417e-16 0)
(3 1.18001e-15 0)
(3 2.07083e-15 0)
(3 1.8382e-15 0)
(3 8.60609e-16 0)
(3 7.29422e-16 0)
(3 2.9285e-16 0)
(3 8.22389e-16 0)
(3 1.3782e-15 0)
(3 8.53492e-16 0)
(3 9.35908e-16 0)
(3 1.65709e-15 0)
(3 9.67985e-16 0)
(3 -3.27798e-16 0)
(3 -1.40041e-15 0)
(3 -1.67837e-15 0)
(3 -1.40749e-15 0)
(3 -3.64766e-16 0)
(3 -7.48835e-17 0)
(3 -1.44371e-15 0)
(3 -1.70146e-15 0)
(3 -1.25615e-15 0)
(3 -1.11007e-15 0)
(3 -1.05027e-15 0)
(3 -9.32783e-16 0)
(3 -7.65859e-16 0)
(3 -5.32163e-16 0)
(3 -2.37729e-16 0)
(3 -3.92669e-16 0)
(3 -3.82951e-16 0)
(3 -3.34626e-16 0)
(3 2.81422e-16 0)
(3 3.42258e-16 0)
(3 -9.16952e-17 0)
(3 2.07776e-15 0)
(3 3.34195e-15 0)
(3 2.90665e-15 0)
(3 1.88821e-15 0)
(3 4.75764e-16 0)
(3 5.11586e-17 0)
(3 9.47545e-16 0)
(3 -3.5487e-16 0)
(3 -9.65571e-16 0)
(3 -1.54255e-15 0)
(3 -1.72367e-15 0)
(3 -1.13211e-15 0)
(3 -2.39106e-15 0)
(3 -3.03552e-15 0)
(3 -2.6535e-15 0)
(3 -2.17895e-15 0)
(3 -1.9024e-15 0)
(3 -1.37684e-15 0)
(3 -7.13563e-16 0)
(3 -6.01251e-16 0)
(3 -4.91589e-16 0)
(3 2.03916e-16 0)
(3 2.3655e-17 0)
(3 7.90718e-18 0)
(3 -5.71381e-17 0)
(3 5.05074e-16 0)
(3 4.49695e-16 0)
(3 4.6082e-16 0)
(3 -9.98949e-17 0)
(3 -2.00759e-16 0)
(3 2.36309e-16 0)
(3 2.87485e-16 0)
(3 5.43656e-16 0)
(3 1.491e-15 0)
(3 1.1295e-15 0)
(3 1.09309e-16 0)
(3 -3.98441e-17 0)
(3 4.83877e-16 0)
(3 3.71861e-16 0)
(3 -1.3665e-16 0)
(3 -9.10834e-16 0)
(3 -3.25675e-16 0)
(3 4.94e-16 0)
(3 7.6717e-16 0)
(3 7.32948e-16 0)
(3 6.72141e-17 0)
(3 -4.25167e-16 0)
(3 7.10032e-17 0)
(3 -3.2655e-16 0)
(3 -8.49727e-16 0)
(3 -1.26326e-15 0)
(3 -1.95201e-15 0)
(3 -2.22176e-15 0)
(3 -1.5984e-15 0)
(3 1.64266e-16 0)
(3 1.10252e-15 0)
(3 7.94806e-16 0)
(3 1.04289e-16 0)
(3 -3.46661e-17 0)
(3 -1.06584e-16 0)
(3 5.27844e-16 0)
(3 1.38747e-15 0)
(3 8.52893e-16 0)
(3 3.85804e-17 0)
(3 -1.77436e-16 0)
(3 3.07833e-16 0)
(3 9.09654e-16 0)
(3 1.13494e-15 0)
(3 1.14352e-15 0)
(3 3.65275e-16 0)
(3 6.37318e-17 0)
(3 2.77112e-16 0)
(3 5.90936e-16 0)
(3 3.79236e-16 0)
(3 6.20703e-17 0)
(3 1.18789e-16 0)
(3 1.10076e-16 0)
(3 1.78142e-16 0)
(3 1.69552e-16 0)
(3 1.23971e-17 0)
(3 -3.05132e-17 0)
(3 -7.37937e-16 0)
(3 -1.98087e-15 0)
(3 -3.02356e-15 0)
(3 -2.99762e-15 0)
(3 -3.1238e-15 0)
(3 -4.08765e-15 0)
(3 -3.43435e-15 0)
(3 -1.86227e-15 0)
(3 -1.06495e-15 0)
(3 -1.4789e-15 0)
(3 -2.29669e-15 0)
(3 -2.03437e-15 0)
(3 -2.01573e-15 0)
(3 -2.38851e-15 0)
(3 -2.66587e-15 0)
(3 -1.79692e-15 0)
(3 -5.84704e-16 0)
(3 6.7451e-16 0)
(3 2.74636e-16 0)
(3 7.30861e-17 0)
(3 -3.75627e-16 0)
(3 -2.84914e-16 0)
(3 -2.8263e-17 0)
(3 -2.65247e-18 0)
(3 -1.02509e-16 0)
(3 -2.25855e-16 0)
(3 -2.24709e-16 0)
(3 -1.13588e-15 0)
(3 -1.10799e-15 0)
(3 -1.18869e-15 0)
(3 -1.30883e-15 0)
(3 -2.33193e-15 0)
(3 -1.95657e-15 0)
(3 -1.51894e-15 0)
(3 1.64828e-18 0)
(3 8.58772e-16 0)
(3 5.51099e-16 0)
(3 1.36474e-16 0)
(3 -1.23519e-16 0)
(3 -1.3523e-17 0)
(3 4.41682e-16 0)
(3 1.18085e-15 0)
(3 1.10394e-15 0)
(3 1.16206e-15 0)
(3 8.9384e-16 0)
(3 2.48282e-16 0)
(3 -4.35451e-16 0)
(3 -3.5012e-16 0)
(3 -2.13897e-16 0)
(3 1.59557e-15 0)
(3 2.19846e-15 0)
(3 1.74614e-15 0)
(3 2.30475e-15 0)
(3 3.13595e-15 0)
(3 3.54439e-15 0)
(3 3.10019e-15 0)
(3 2.61162e-15 0)
(3 2.88494e-15 0)
(3 3.96182e-15 0)
(3 3.53048e-15 0)
(3 2.06111e-15 0)
(3 1.69335e-15 0)
(3 1.83721e-15 0)
(3 1.44805e-15 0)
(3 1.02852e-15 0)
(3 1.7284e-16 0)
(3 -3.23753e-16 0)
(3 -9.3631e-17 0)
(3 9.90816e-16 0)
(3 1.56008e-15 0)
(3 1.47698e-15 0)
(3 6.64809e-16 0)
(3 3.08128e-16 0)
(3 -7.45674e-16 0)
(3 -1.82386e-16 0)
(3 3.79408e-16 0)
(3 6.8641e-16 0)
(3 8.97482e-16 0)
(3 6.37698e-16 0)
(3 1.20273e-15 0)
(3 1.39805e-15 0)
(3 1.03032e-15 0)
(3 3.27841e-16 0)
(3 -1.85836e-16 0)
(3 -3.65951e-16 0)
(3 -3.70183e-16 0)
(3 -2.19863e-16 0)
(3 2.74394e-16 0)
(3 2.06643e-16 0)
(3 4.85961e-16 0)
(3 6.9598e-16 0)
(3 -4.68397e-16 0)
(3 -1.46115e-15 0)
(3 -1.81228e-15 0)
(3 -1.91862e-15 0)
(3 -1.17953e-15 0)
(3 -1.03355e-15 0)
(3 -1.62043e-15 0)
(3 -2.12325e-15 0)
(3 -1.84967e-15 0)
(3 -1.6039e-15 0)
(3 -1.31503e-15 0)
(3 -1.40481e-15 0)
(3 -1.66376e-15 0)
(3 -9.91894e-16 0)
(3 1.38507e-16 0)
(3 7.38627e-17 0)
(3 1.97307e-16 0)
(3 8.26396e-16 0)
(3 2.2065e-15 0)
(3 2.26116e-15 0)
(3 2.39325e-15 0)
(3 2.62458e-15 0)
(3 2.47027e-15 0)
(3 1.86927e-15 0)
(3 8.82825e-16 0)
(3 -7.27508e-16 0)
(3 -1.01751e-15 0)
(3 -8.14455e-16 0)
(3 -9.30787e-16 0)
(3 -1.45991e-15 0)
(3 -1.88522e-15 0)
(3 -1.77396e-15 0)
(3 -1.95046e-15 0)
(3 -2.44258e-15 0)
(3 -2.19369e-15 0)
(3 -2.0636e-15 0)
(3 -1.5555e-15 0)
(3 -3.73925e-16 0)
(3 -7.22547e-16 0)
(3 -8.43722e-16 0)
(3 9.64202e-17 0)
(3 2.39458e-17 0)
(3 1.31196e-16 0)
(3 2.61584e-16 0)
(3 3.51546e-16 0)
(3 3.99803e-16 0)
(3 4.27418e-16 0)
(3 -1.43199e-16 0)
(3 -4.46392e-16 0)
(3 -7.71508e-16 0)
(3 -7.52583e-16 0)
(3 1.47487e-16 0)
(3 1.13685e-15 0)
(3 1.24986e-15 0)
(3 1.34481e-15 0)
(3 1.3578e-15 0)
(3 8.88184e-16 0)
(3 5.71118e-16 0)
(3 4.67313e-16 0)
(3 2.71993e-16 0)
(3 7.92803e-17 0)
(3 8.0551e-17 0)
(3 6.91568e-16 0)
(3 1.1074e-15 0)
(3 1.92944e-15 0)
(3 1.62498e-15 0)
(3 9.74617e-16 0)
(3 9.069e-16 0)
(3 1.20938e-16 0)
(3 -8.41904e-17 0)
(3 -7.791e-16 0)
(3 -1.55572e-15 0)
(3 -1.32078e-15 0)
(3 -2.52169e-16 0)
(3 8.6175e-16 0)
(3 1.12637e-15 0)
(3 1.80612e-15 0)
(3 1.13591e-15 0)
(3 4.60568e-16 0)
(3 4.59275e-16 0)
(3 1.73749e-16 0)
(3 -8.01478e-16 0)
(3 -1.23037e-15 0)
(3 -1.42725e-15 0)
(3 -2.54232e-16 0)
(3 5.60853e-18 0)
(3 -1.58e-17 0)
(3 -2.05886e-16 0)
(3 -5.59627e-16 0)
(3 -1.03297e-15 0)
(3 -8.76835e-16 0)
(3 -3.16375e-16 0)
(3 -2.51202e-16 0)
(3 9.85451e-17 0)
(3 7.23104e-16 0)
(3 6.07995e-16 0)
(3 1.17817e-15 0)
(3 8.16082e-16 0)
(3 5.16017e-16 0)
(3 -6.84746e-16 0)
(3 -1.25073e-15 0)
(3 -1.75589e-15 0)
(3 -2.1271e-15 0)
(3 -2.2288e-15 0)
(3 -1.95586e-15 0)
(3 -2.3237e-15 0)
(3 -2.41163e-15 0)
(3 -2.4581e-15 0)
(3 -1.90335e-15 0)
(3 -1.05369e-15 0)
(3 -1.39318e-15 0)
(3 -1.57163e-15 0)
(3 -1.57949e-15 0)
(3 -2.01379e-15 0)
(3 -2.07282e-15 0)
(3 -1.99347e-15 0)
(3 -1.53876e-15 0)
(3 -8.22089e-16 0)
(3 -4.50306e-16 0)
(3 -4.44201e-16 0)
(3 -3.97628e-16 0)
(3 -2.43713e-16 0)
(3 -8.83831e-16 0)
(3 -1.21677e-15 0)
(3 -1.19465e-15 0)
(3 -1.07594e-15 0)
(3 -5.52456e-16 0)
(3 6.1613e-16 0)
(3 1.04998e-15 0)
(3 8.63071e-18 0)
(3 -4.39343e-16 0)
(3 -6.84042e-16 0)
(3 -2.03543e-15 0)
(3 -2.78548e-15 0)
(3 -2.21282e-15 0)
(3 -9.8663e-16 0)
(3 -7.58258e-16 0)
(3 -5.7375e-16 0)
(3 -7.80425e-16 0)
(3 -1.30102e-15 0)
(3 -1.50548e-15 0)
(3 -1.25755e-15 0)
(3 -1.69435e-15 0)
(3 -7.527e-16 0)
(3 -3.73617e-17 0)
(3 1.3352e-16 0)
(3 3.6279e-16 0)
(3 3.17438e-16 0)
(3 2.04229e-16 0)
(3 2.25e-16 0)
(3 -6.53307e-18 0)
(3 3.57073e-16 0)
(3 5.9232e-16 0)
(3 1.3999e-15 0)
(3 2.11576e-15 0)
(3 1.83329e-15 0)
(3 1.57323e-15 0)
(3 2.24696e-15 0)
(3 2.87334e-15 0)
(3 2.82681e-15 0)
(3 2.38878e-15 0)
(3 2.1232e-15 0)
(3 1.45603e-15 0)
(3 1.42709e-15 0)
(3 -4.28542e-17 0)
(3 -7.9494e-16 0)
(3 -7.34237e-16 0)
(3 2.55803e-18 0)
(3 1.27525e-15 0)
(3 1.52379e-15 0)
(3 1.66405e-15 0)
(3 1.74825e-15 0)
(3 1.2195e-15 0)
(3 7.49464e-16 0)
(3 8.39456e-16 0)
(3 1.0415e-15 0)
(3 5.87887e-16 0)
(3 6.2738e-16 0)
(3 2.67001e-16 0)
(3 6.16707e-16 0)
(3 2.79986e-16 0)
(3 1.4477e-15 0)
(3 1.15777e-15 0)
(3 2.25312e-17 0)
(3 -1.27334e-15 0)
(3 -1.2938e-15 0)
(3 -5.54032e-16 0)
(3 -6.22913e-17 0)
(3 1.26709e-16 0)
(3 -1.05834e-16 0)
(3 1.48775e-16 0)
(3 -1.55637e-16 0)
(3 -3.48102e-16 0)
(3 -8.69404e-16 0)
(3 -1.83219e-15 0)
(3 -2.66e-15 0)
(3 -2.31042e-15 0)
(3 -1.92332e-15 0)
(3 -2.17447e-15 0)
(3 -2.16248e-15 0)
(3 -2.18273e-15 0)
(3 -2.12721e-15 0)
(3 -2.02867e-15 0)
(3 -1.95892e-15 0)
(3 -2.22063e-15 0)
(3 -1.71308e-15 0)
(3 -7.56091e-16 0)
(3 -8.97664e-16 0)
(3 -5.71543e-16 0)
(3 5.50713e-16 0)
(3 1.73453e-15 0)
(3 3.67882e-15 0)
(3 3.39159e-15 0)
(3 3.05841e-15 0)
(3 2.40459e-15 0)
(3 -1.89618e-16 0)
(3 -1.23551e-15 0)
(3 -2.02007e-15 0)
(3 -2.0024e-15 0)
(3 -1.14974e-15 0)
(3 -1.29953e-15 0)
(3 -1.98313e-15 0)
(3 -2.39882e-15 0)
(3 -2.32331e-15 0)
(3 -1.73003e-15 0)
(3 -1.34786e-15 0)
(3 -1.2917e-15 0)
(3 -1.31893e-15 0)
(3 -9.27651e-16 0)
(3 -5.41558e-16 0)
(3 -1.7176e-16 0)
(3 -2.08579e-16 0)
(3 6.43062e-16 0)
(3 -2.33987e-16 0)
(3 -3.08636e-16 0)
(3 1.61933e-16 0)
(3 9.43971e-16 0)
(3 5.33682e-16 0)
(3 3.55163e-16 0)
(3 2.57706e-17 0)
(3 1.52945e-16 0)
(3 -3.35636e-16 0)
(3 -6.18676e-16 0)
(3 -1.37011e-17 0)
(3 4.07966e-16 0)
(3 5.00693e-16 0)
(3 6.93998e-16 0)
(3 6.8316e-16 0)
(3 9.05592e-16 0)
(3 8.68695e-16 0)
(3 8.83461e-16 0)
(3 1.17992e-15 0)
(3 1.1352e-15 0)
(3 6.75189e-16 0)
(3 4.33019e-16 0)
(3 8.84071e-16 0)
(3 1.2142e-15 0)
(3 1.62781e-15 0)
(3 1.15876e-15 0)
(3 6.63663e-16 0)
(3 9.60712e-16 0)
(3 1.38871e-15 0)
(3 1.01676e-15 0)
(3 5.48258e-16 0)
(3 6.04208e-16 0)
(3 3.69214e-16 0)
(3 2.71623e-16 0)
(3 1.17455e-16 0)
(3 -3.30032e-16 0)
(3 -8.75756e-16 0)
(3 -5.72538e-16 0)
(3 -6.51281e-16 0)
(3 -7.43818e-16 0)
(3 -8.77028e-16 0)
(3 -1.47761e-15 0)
(3 -1.65927e-15 0)
(3 -4.72988e-16 0)
(3 -1.64288e-16 0)
(3 2.47051e-16 0)
(3 7.83245e-17 0)
(3 -3.85816e-17 0)
(3 2.07429e-16 0)
(3 4.36613e-16 0)
(3 5.01485e-16 0)
(3 2.0887e-16 0)
(3 9.26748e-17 0)
(3 1.36064e-15 0)
(3 1.39936e-15 0)
(3 1.08662e-15 0)
(3 1.18548e-16 0)
(3 -1.00992e-15 0)
(3 -1.07829e-15 0)
(3 -1.35762e-15 0)
(3 -1.61202e-15 0)
(3 -1.87976e-15 0)
(3 -1.23433e-15 0)
(3 -5.61669e-16 0)
(3 -5.01063e-16 0)
(3 -5.45064e-16 0)
(3 -1.55641e-15 0)
(3 -2.16477e-15 0)
(3 -2.09709e-15 0)
(3 -1.57538e-15 0)
(3 -1.11581e-15 0)
(3 -1.34516e-15 0)
(3 -2.05328e-15 0)
(3 -1.80548e-15 0)
(3 -1.43899e-15 0)
(3 -2.39708e-15 0)
(3 -2.44807e-15 0)
(3 -1.62834e-15 0)
(3 -7.69498e-16 0)
(3 -3.69764e-16 0)
(3 -9.82946e-16 0)
(3 -1.45527e-15 0)
(3 -1.88808e-15 0)
(3 -2.30481e-15 0)
(3 -1.95281e-15 0)
(3 -6.14619e-16 0)
(3 5.00703e-16 0)
(3 1.33773e-15 0)
(3 9.8392e-16 0)
(3 6.07265e-16 0)
(3 1.2775e-16 0)
(3 -6.55186e-16 0)
(3 -9.75729e-16 0)
(3 -1.01012e-15 0)
(3 -1.77877e-15 0)
(3 -2.30952e-15 0)
(3 -1.57427e-15 0)
(3 -1.08162e-15 0)
(3 -1.3087e-15 0)
(3 -1.60803e-15 0)
(3 -1.55841e-15 0)
(3 -1.47093e-15 0)
(3 -1.0783e-15 0)
(3 -6.83296e-16 0)
(3 -6.75007e-17 0)
(3 7.48672e-16 0)
(3 1.30021e-15 0)
(3 1.29351e-15 0)
(3 8.399e-16 0)
(3 -4.83887e-16 0)
(3 -4.49001e-16 0)
(3 -7.70558e-18 0)
(3 4.96519e-17 0)
(3 3.81575e-16 0)
(3 3.95679e-16 0)
(3 1.02526e-15 0)
(3 9.22185e-16 0)
(3 2.11274e-16 0)
(3 -8.00919e-18 0)
(3 4.12269e-16 0)
(3 8.8991e-16 0)
(3 1.0213e-15 0)
(3 4.29196e-16 0)
(3 -1.1344e-15 0)
(3 -2.05673e-15 0)
(3 -1.86133e-15 0)
(3 6.67917e-16 0)
(3 2.42359e-15 0)
(3 2.00533e-15 0)
(3 1.25153e-15 0)
(3 1.19166e-15 0)
(3 1.48193e-15 0)
(3 4.84173e-16 0)
(3 -1.92091e-16 0)
(3 -3.84456e-16 0)
(3 -1.24628e-16 0)
(3 3.57235e-16 0)
(3 5.07048e-16 0)
(3 4.61658e-16 0)
(3 1.80868e-16 0)
(3 -4.1319e-16 0)
(3 -1.20616e-15 0)
(3 -8.07497e-16 0)
(3 -4.08052e-16 0)
(3 3.85418e-16 0)
(3 6.89352e-16 0)
(3 1.20571e-15 0)
(3 9.83786e-16 0)
(3 7.49e-16 0)
(3 3.70133e-16 0)
(3 -1.70899e-16 0)
(3 2.32792e-16 0)
(3 1.29202e-16 0)
(3 -1.10658e-15 0)
(3 -2.86543e-15 0)
(3 -3.11185e-15 0)
(3 -2.50891e-15 0)
(3 -2.01096e-15 0)
(3 -2.11854e-15 0)
(3 -1.93706e-15 0)
(3 -2.11463e-15 0)
(3 -2.41338e-15 0)
(3 -1.87134e-15 0)
(3 -1.35069e-15 0)
(3 -1.84466e-15 0)
(3 -2.13486e-15 0)
(3 -1.80535e-15 0)
(3 -1.62624e-15 0)
(3 -3.70851e-17 0)
(3 6.69002e-16 0)
(3 1.72341e-15 0)
(3 2.27771e-15 0)
(3 2.04895e-15 0)
(3 2.64317e-15 0)
(3 2.22359e-15 0)
(3 1.24451e-15 0)
(3 8.65986e-16 0)
(3 9.94287e-16 0)
(3 -4.38327e-16 0)
(3 -8.07957e-16 0)
(3 -1.22955e-15 0)
(3 -2.36992e-15 0)
(3 -1.83672e-15 0)
(3 -4.97065e-16 0)
(3 -1.19965e-16 0)
(3 -7.03062e-16 0)
(3 -1.0411e-15 0)
(3 -1.97601e-15 0)
(3 -2.80969e-15 0)
(3 -2.05483e-15 0)
(3 -1.6143e-15 0)
(3 -1.08601e-15 0)
(3 -2.46446e-16 0)
(3 -3.0552e-16 0)
(3 -4.68429e-16 0)
(3 -4.65282e-16 0)
(3 -3.606e-16 0)
(3 -5.44812e-16 0)
(3 -3.87967e-16 0)
(3 1.07565e-17 0)
(3 -1.77464e-16 0)
(3 -3.32935e-16 0)
(3 -3.62705e-16 0)
(3 -7.37907e-16 0)
(3 -8.33846e-16 0)
(3 -5.53563e-16 0)
(3 7.86681e-17 0)
(3 4.24552e-16 0)
(3 9.27002e-16 0)
(3 1.00215e-15 0)
(3 1.05156e-15 0)
(3 5.98148e-16 0)
(3 5.44082e-16 0)
(3 -2.25256e-16 0)
(3 4.4347e-16 0)
(3 7.53189e-16 0)
(3 1.28245e-15 0)
(3 1.48861e-15 0)
(3 1.19077e-15 0)
(3 1.84345e-15 0)
(3 1.74734e-15 0)
(3 1.57251e-15 0)
(3 1.84044e-15 0)
(3 1.74234e-15 0)
(3 1.32165e-15 0)
(3 -3.32317e-16 0)
(3 -5.49101e-16 0)
(3 -1.52406e-15 0)
(3 -1.36093e-15 0)
(3 -1.26145e-15 0)
(3 -1.07738e-15 0)
(3 -2.93966e-16 0)
(3 -1.39281e-16 0)
(3 -2.03343e-16 0)
(3 -1.57212e-16 0)
(3 -8.73866e-17 0)
(3 -2.51827e-16 0)
(3 -3.18041e-16 0)
(3 9.6094e-17 0)
(3 1.58825e-15 0)
(3 2.08199e-15 0)
(3 2.0847e-15 0)
(3 1.92815e-15 0)
(3 2.03183e-15 0)
(3 1.74242e-15 0)
(3 1.13333e-15 0)
(3 7.71008e-16 0)
(3 9.18273e-16 0)
(3 1.04925e-15 0)
(3 1.28703e-15 0)
(3 5.24366e-16 0)
(3 -1.21316e-16 0)
(3 -1.21673e-15 0)
(3 -7.9576e-16 0)
(3 -3.12365e-16 0)
(3 -3.42772e-16 0)
(3 -2.9336e-16 0)
(3 -6.92918e-16 0)
(3 -2.23526e-15 0)
(3 -3.24706e-15 0)
(3 -3.01298e-15 0)
(3 -1.96056e-15 0)
(3 -1.23692e-15 0)
(3 -9.85854e-16 0)
(3 -1.42366e-15 0)
(3 -1.78688e-15 0)
(3 -1.85984e-15 0)
(3 -2.32222e-15 0)
(3 -3.06778e-15 0)
(3 -1.09347e-15 0)
(3 -7.1386e-16 0)
(3 -8.57444e-16 0)
(3 -1.39691e-15 0)
(3 -1.98112e-15 0)
(3 -2.27728e-15 0)
(3 -2.22558e-15 0)
(3 -1.75647e-15 0)
(3 -1.14241e-15 0)
(3 -9.87832e-16 0)
(3 3.06325e-16 0)
(3 1.21144e-15 0)
(3 1.46306e-15 0)
(3 1.27826e-15 0)
(3 7.73166e-16 0)
(3 5.20798e-16 0)
(3 -8.48182e-17 0)
(3 -1.05807e-15 0)
(3 -2.00101e-15 0)
(3 -1.86354e-15 0)
(3 -1.13929e-15 0)
(3 -6.82453e-16 0)
(3 -1.05747e-15 0)
(3 -8.84975e-16 0)
(3 -4.18045e-16 0)
(3 -5.43395e-16 0)
(3 -1.1074e-15 0)
(3 -9.12053e-16 0)
(3 5.54303e-17 0)
(3 6.57293e-16 0)
(3 7.04329e-17 0)
(3 -7.61689e-16 0)
(3 -7.18592e-16 0)
(3 -2.726e-16 0)
(3 6.42222e-16 0)
(3 4.66319e-18 0)
(3 -1.31911e-15 0)
(3 -1.89939e-15 0)
(3 -2.23246e-15 0)
(3 -1.36123e-15 0)
(3 1.64228e-16 0)
(3 7.95147e-16 0)
(3 1.98195e-16 0)
(3 -7.2285e-16 0)
(3 -4.56074e-16 0)
(3 -9.70346e-16 0)
(3 -1.29473e-15 0)
(3 -1.53833e-15 0)
(3 -1.06683e-15 0)
(3 4.02619e-16 0)
(3 1.50847e-15 0)
(3 1.93669e-15 0)
(3 1.73468e-15 0)
(3 7.3902e-16 0)
(3 2.47233e-16 0)
(3 -1.08539e-15 0)
(3 -2.88981e-16 0)
(3 -3.84776e-16 0)
(3 4.18847e-16 0)
(3 9.9031e-16 0)
(3 1.52655e-15 0)
(3 7.54659e-16 0)
(3 -2.85249e-16 0)
(3 -1.90158e-15 0)
(3 -2.69057e-15 0)
(3 -5.6931e-16 0)
(3 8.13644e-16 0)
(3 8.86866e-16 0)
(3 7.45213e-16 0)
(3 8.67482e-16 0)
(3 1.16224e-15 0)
(3 1.17524e-15 0)
(3 5.21326e-16 0)
(3 -4.63305e-17 0)
(3 -1.34205e-16 0)
(3 4.73389e-17 0)
(3 -1.88623e-16 0)
(3 -1.56996e-15 0)
(3 -2.7157e-15 0)
(3 -2.59801e-15 0)
(3 -2.07375e-15 0)
(3 -2.32307e-15 0)
(3 -1.97852e-15 0)
(3 -1.48305e-15 0)
(3 -1.76233e-15 0)
(3 -2.01061e-15 0)
(3 -1.1587e-15 0)
(3 -7.28829e-16 0)
(3 5.19641e-16 0)
(3 1.00978e-15 0)
(3 1.14147e-16 0)
(3 -3.47147e-17 0)
(3 4.08484e-16 0)
(3 1.54104e-16 0)
(3 3.19884e-17 0)
(3 5.63044e-16 0)
(3 1.72139e-15 0)
(3 2.44595e-15 0)
(3 1.73673e-15 0)
(3 1.4586e-15 0)
(3 8.6884e-16 0)
(3 2.94292e-16 0)
(3 4.9188e-16 0)
(3 -5.19362e-16 0)
(3 -1.50233e-15 0)
(3 -1.11329e-15 0)
(3 -1.96844e-16 0)
(3 -1.12422e-15 0)
(3 -1.5557e-15 0)
(3 -2.1421e-15 0)
(3 -2.97269e-15 0)
(3 -3.35259e-15 0)
(3 -3.0831e-15 0)
(3 -1.75869e-15 0)
(3 -1.33559e-15 0)
(3 1.07529e-16 0)
(3 1.14106e-16 0)
(3 -1.03983e-16 0)
(3 -6.52832e-16 0)
(3 -5.7577e-16 0)
(3 -1.6599e-16 0)
(3 5.93495e-17 0)
(3 -3.76352e-16 0)
(3 -2.38532e-16 0)
(3 -1.55858e-16 0)
(3 -7.73812e-16 0)
(3 -7.41594e-16 0)
(3 -5.70643e-16 0)
(3 -1.03106e-15 0)
(3 -1.02648e-15 0)
(3 -6.12734e-17 0)
(3 2.42166e-16 0)
(3 3.0142e-16 0)
(3 2.27971e-16 0)
(3 5.20793e-17 0)
(3 -7.14315e-17 0)
(3 -4.85244e-16 0)
(3 -8.7102e-16 0)
(3 -1.03497e-15 0)
(3 -2.36388e-16 0)
(3 8.54171e-16 0)
(3 1.01227e-15 0)
(3 1.02948e-15 0)
(3 1.10284e-15 0)
(3 8.59831e-16 0)
(3 6.87859e-16 0)
(3 1.28436e-15 0)
(3 1.13175e-15 0)
(3 -7.97178e-17 0)
(3 -1.00153e-15 0)
(3 -7.00739e-16 0)
(3 -3.37714e-16 0)
(3 -1.90971e-17 0)
(3 3.36732e-16 0)
(3 6.10805e-16 0)
(3 3.99888e-16 0)
(3 3.19643e-16 0)
(3 5.78883e-16 0)
(3 2.85856e-16 0)
(3 5.09982e-16 0)
(3 1.03196e-15 0)
(3 2.14478e-15 0)
(3 2.49887e-15 0)
(3 2.36187e-15 0)
(3 2.10465e-15 0)
(3 1.92367e-15 0)
(3 2.47354e-15 0)
(3 2.39043e-15 0)
(3 1.96283e-15 0)
(3 1.9591e-15 0)
(3 1.58997e-15 0)
(3 7.81922e-16 0)
(3 2.83278e-16 0)
(3 1.09759e-16 0)
(3 2.43976e-16 0)
(3 -1.2076e-16 0)
(3 -1.40774e-16 0)
(3 -8.58173e-16 0)
(3 -1.39145e-15 0)
(3 -1.25478e-15 0)
(3 -5.40857e-16 0)
(3 -3.54785e-16 0)
(3 -8.05326e-16 0)
(3 -1.8957e-15 0)
(3 -1.90553e-15 0)
(3 -1.73789e-15 0)
(3 -1.81753e-15 0)
(3 -1.87293e-15 0)
(3 -2.21968e-15 0)
(3 -2.35715e-15 0)
(3 -2.01408e-15 0)
(3 -2.19968e-15 0)
(3 -1.95597e-15 0)
(3 -2.29745e-15 0)
(3 -2.06043e-15 0)
(3 -1.40884e-15 0)
(3 -1.62375e-15 0)
(3 -1.68795e-15 0)
(3 -1.90969e-15 0)
(3 -1.85718e-15 0)
(3 -1.44155e-15 0)
(3 -6.69127e-16 0)
(3 -1.95671e-16 0)
(3 6.99737e-16 0)
(3 1.57277e-15 0)
(3 1.26181e-15 0)
(3 1.10276e-15 0)
(3 6.38902e-16 0)
(3 -5.93198e-16 0)
(3 -4.72441e-16 0)
(3 -1.23716e-15 0)
(3 -2.17967e-15 0)
(3 -2.66196e-15 0)
(3 -2.89595e-15 0)
(3 -2.18579e-15 0)
(3 -1.65858e-15 0)
(3 -1.22468e-15 0)
(3 -1.17841e-15 0)
(3 -1.26629e-15 0)
(3 -1.44347e-15 0)
(3 -1.01246e-15 0)
(3 -1.72429e-15 0)
(3 -2.11649e-15 0)
(3 -2.31847e-15 0)
(3 -9.59782e-16 0)
(3 -3.53188e-16 0)
(3 3.90951e-16 0)
(3 1.52235e-16 0)
(3 -8.70933e-16 0)
(3 -1.02914e-15 0)
(3 -7.31217e-16 0)
(3 2.18971e-16 0)
(3 9.48956e-16 0)
(3 4.58307e-16 0)
(3 -5.2507e-16 0)
(3 -2.03798e-15 0)
(3 -2.43551e-15 0)
(3 -2.24314e-15 0)
(3 -1.15049e-15 0)
(3 -1.18545e-15 0)
(3 -7.27243e-16 0)
(3 2.17165e-16 0)
(3 7.43037e-16 0)
(3 1.29477e-15 0)
(3 1.32218e-15 0)
(3 1.66321e-15 0)
(3 1.59706e-15 0)
(3 1.15315e-15 0)
(3 -2.28195e-16 0)
(3 -1.13729e-16 0)
(3 1.78716e-16 0)
(3 3.81874e-16 0)
(3 9.38373e-16 0)
(3 -5.41038e-16 0)
(3 -2.47403e-15 0)
(3 -2.27549e-15 0)
(3 -1.41531e-15 0)
(3 -4.19815e-16 0)
(3 1.08656e-16 0)
(3 7.52797e-16 0)
(3 8.07628e-16 0)
(3 5.24366e-16 0)
(3 8.2563e-17 0)
(3 -5.90458e-16 0)
(3 -6.27434e-16 0)
(3 -9.70431e-16 0)
(3 -2.23523e-16 0)
(3 5.4494e-16 0)
(3 7.25298e-16 0)
(3 1.12966e-17 0)
(3 -4.38052e-16 0)
(3 -5.36773e-16 0)
(3 -7.45752e-16 0)
(3 -6.0583e-16 0)
(3 -6.60217e-16 0)
(3 -5.61394e-16 0)
(3 -1.03932e-15 0)
(3 -1.67405e-15 0)
(3 -1.46839e-15 0)
(3 5.04218e-16 0)
(3 2.44878e-15 0)
(3 2.02616e-15 0)
(3 9.7022e-16 0)
(3 4.35022e-16 0)
(3 -3.46292e-16 0)
(3 -9.42824e-16 0)
(3 -5.23584e-16 0)
(3 -1.51039e-16 0)
(3 -2.05272e-16 0)
(3 2.83075e-16 0)
(3 8.16027e-16 0)
(3 9.77964e-16 0)
(3 7.27388e-16 0)
(3 2.05467e-15 0)
(3 1.63465e-15 0)
(3 7.91373e-16 0)
(3 -5.01196e-18 0)
(3 4.46915e-16 0)
(3 -3.32485e-16 0)
(3 -1.08601e-15 0)
(3 -1.68229e-15 0)
(3 -2.24938e-15 0)
(3 -2.89903e-15 0)
(3 -2.61737e-15 0)
(3 -2.96933e-15 0)
(3 -3.50641e-15 0)
(3 -3.95752e-15 0)
(3 1.5069e-18 0)
(3 1.98665e-16 0)
(3 2.93187e-16 0)
(3 3.8099e-16 0)
(3 2.30069e-16 0)
(3 4.1804e-16 0)
(3 3.73003e-16 0)
(3 4.38746e-16 0)
(3 5.6067e-16 0)
(3 7.66522e-16 0)
(3 6.95479e-16 0)
(3 -1.04405e-16 0)
(3 -4.55569e-16 0)
(3 -7.45411e-16 0)
(3 -7.17981e-16 0)
(3 -6.0405e-16 0)
(3 -5.87886e-16 0)
(3 -4.1683e-16 0)
(3 -1.83488e-16 0)
(3 -1.15247e-17 0)
(3 -9.08149e-16 0)
(3 -9.78966e-16 0)
(3 -1.46724e-15 0)
(3 -1.11843e-15 0)
(3 -7.00681e-16 0)
(3 3.17811e-16 0)
(3 1.4031e-15 0)
(3 7.97596e-16 0)
(3 -3.16938e-16 0)
(3 -9.50598e-16 0)
(3 -9.20232e-16 0)
(3 -9.78494e-16 0)
(3 -1.10081e-15 0)
(3 -1.5785e-15 0)
(3 -1.7433e-15 0)
(3 -1.1095e-15 0)
(3 3.69766e-16 0)
(3 1.22481e-15 0)
(3 9.77478e-16 0)
(3 -9.4337e-18 0)
(3 2.21815e-16 0)
(3 4.34191e-16 0)
(3 8.9048e-16 0)
(3 2.70564e-16 0)
(3 1.11237e-15 0)
(3 2.0238e-15 0)
(3 2.64736e-15 0)
(3 2.19811e-15 0)
(3 1.5063e-15 0)
(3 1.09812e-15 0)
(3 9.41507e-16 0)
(3 9.46293e-16 0)
(3 1.19626e-15 0)
(3 1.36765e-15 0)
(3 1.55504e-15 0)
(3 1.14157e-15 0)
(3 1.29715e-15 0)
(3 9.19642e-16 0)
(3 3.9813e-16 0)
(3 -1.2037e-16 0)
(3 7.36931e-17 0)
(3 8.70621e-16 0)
(3 -3.95142e-16 0)
(3 -1.145e-15 0)
(3 -1.20228e-15 0)
(3 -7.30488e-16 0)
(3 -5.5754e-17 0)
(3 3.24845e-16 0)
(3 -4.58642e-16 0)
(3 -2.03311e-15 0)
(3 -2.56016e-15 0)
(3 -2.32328e-15 0)
(3 -1.89249e-15 0)
(3 -1.33939e-15 0)
(3 -1.51556e-15 0)
(3 -1.58588e-15 0)
(3 -1.37371e-15 0)
(3 -2.61882e-15 0)
(3 -2.68805e-15 0)
(3 -1.9026e-15 0)
(3 -1.02238e-15 0)
(3 -8.6634e-16 0)
(3 -8.42239e-16 0)
(3 -8.31651e-16 0)
(3 -8.02359e-16 0)
(3 -5.9738e-16 0)
(3 -1.51732e-16 0)
(3 2.25746e-16 0)
(3 2.27648e-16 0)
(3 -2.60661e-16 0)
(3 -6.83954e-16 0)
(3 -1.34029e-17 0)
(3 1.91186e-16 0)
(3 -1.91008e-18 0)
(3 -6.58026e-16 0)
(3 -8.44285e-16 0)
(3 -1.12181e-15 0)
(3 -1.56945e-15 0)
(3 -2.32281e-15 0)
(3 -3.03502e-15 0)
(3 -1.97566e-15 0)
(3 -1.76129e-15 0)
(3 -1.08361e-15 0)
(3 -8.26569e-16 0)
(3 -1.05022e-15 0)
(3 -1.38642e-15 0)
(3 -1.44838e-15 0)
(3 -1.58689e-15 0)
(3 -1.85904e-15 0)
(3 -1.55303e-15 0)
(3 -2.09046e-16 0)
(3 2.86002e-17 0)
(3 5.36209e-17 0)
(3 -2.05687e-16 0)
(3 1.96458e-16 0)
(3 -1.65096e-17 0)
(3 1.96933e-16 0)
(3 9.90921e-17 0)
(3 -4.90185e-16 0)
(3 -1.02083e-15 0)
(3 -9.58177e-16 0)
(3 -1.33294e-15 0)
(3 -1.33607e-15 0)
(3 -9.05305e-16 0)
(3 -6.26711e-16 0)
(3 -7.00251e-16 0)
(3 3.82107e-16 0)
(3 6.90027e-16 0)
(3 1.27986e-16 0)
(3 5.32141e-16 0)
(3 1.15072e-15 0)
(3 1.53508e-15 0)
(3 1.54244e-15 0)
(3 1.08515e-15 0)
(3 1.44913e-15 0)
(3 1.80019e-15 0)
(3 -1.14412e-15 0)
(3 -1.43237e-15 0)
(3 -2.53891e-15 0)
(3 -2.81999e-15 0)
(3 -2.21478e-15 0)
(3 -1.41537e-15 0)
(3 -1.00858e-15 0)
(3 -5.96928e-16 0)
(3 1.68856e-16 0)
(3 -2.06558e-16 0)
(3 -1.31799e-15 0)
(3 -1.75956e-15 0)
(3 -2.23128e-15 0)
(3 -1.66219e-15 0)
(3 -4.83776e-16 0)
(3 1.13268e-15 0)
(3 9.59919e-16 0)
(3 9.81826e-16 0)
(3 1.62538e-15 0)
(3 9.20873e-16 0)
(3 5.57092e-16 0)
(3 2.66408e-16 0)
(3 3.45654e-16 0)
(3 3.06429e-16 0)
(3 9.68114e-17 0)
(3 9.02601e-16 0)
(3 7.08051e-16 0)
(3 1.04264e-15 0)
(3 1.07939e-15 0)
(3 1.02546e-15 0)
(3 9.3896e-16 0)
(3 1.18586e-15 0)
(3 -5.13228e-17 0)
(3 -1.69839e-15 0)
(3 -1.81442e-15 0)
(3 -1.82586e-15 0)
(3 -1.4136e-15 0)
(3 -6.46769e-16 0)
(3 -2.49159e-16 0)
(3 1.09744e-16 0)
(3 4.40906e-16 0)
(3 1.54174e-15 0)
(3 2.43627e-15 0)
(3 2.44212e-15 0)
(3 2.40774e-15 0)
(3 1.74137e-15 0)
(3 1.96721e-15 0)