/*--------------------------------*- C++ -*----------------------------------*\
  =========                 |
  \\      /  F ield         | OpenFOAM: The Open Source CFD Toolbox
   \\    /   O peration     | Website:  https://openfoam.org
    \\  /    A nd           | Version:  7
     \\/     M anipulation  |
\*---------------------------------------------------------------------------*/
FoamFile
{
    version     2.0;
    format      ascii;
    class       volScalarField;
    location    "2.8";
    object      rho;
}
// * * * * * * * * * * * * * * * * * * * * * * * * * * * * * * * * * * * * * //

dimensions      [1 -3 0 0 0 0 0];

internalField   nonuniform List<scalar> 
4128
(
2.25272
2.3297
2.60188
3.01059
3.39147
3.4612
3.45535
3.42267
3.37609
3.32376
3.26172
3.24001
3.22254
3.19539
3.17989
3.16284
3.12528
3.08947
3.06346
3.02721
2.98692
2.97395
2.95592
2.91964
2.88694
2.86126
2.8222
2.78159
2.76818
2.75688
2.7343
2.71916
2.70596
2.68983
2.64432
2.64875
2.80409
3.2607
3.89079
4.25151
4.36503
4.40952
4.44682
4.4406
4.39939
4.31354
4.219
4.14162
4.09179
4.06109
4.03868
4.02181
4.01139
3.99514
3.97088
3.93281
3.87095
3.79822
3.72817
3.69602
3.67863
3.65741
3.63408
3.61292
3.59527
3.59403
3.63464
3.73454
3.92081
4.11035
4.16471
4.16979
4.15765
4.15372
4.13676
4.10949
4.08166
4.0532
4.01515
3.95275
3.87599
3.83923
3.8191
3.80271
3.79459
3.78481
3.76521
3.744
3.71485
3.66346
3.59199
3.5521
3.53445
3.52074
3.51238
3.50298
3.48736
3.46945
3.44551
3.40201
3.33976
3.29811
3.28217
3.26941
3.26014
3.2495
3.2348
3.21828
3.19802
3.16819
3.12256
3.07957
3.06412
3.05433
3.04638
3.0384
3.0283
3.01608
2.99972
2.97337
2.92756
2.87408
2.84862
2.83678
2.82634
2.81683
2.80819
2.79862
2.78848
2.25847
2.26624
2.35126
2.6322
3.15402
3.42518
3.4438
3.41836
3.3886
3.33972
3.29482
3.27897
3.25546
3.23155
3.22094
3.19431
3.15326
3.12362
3.09277
3.04739
3.02154
3.01174
2.98544
2.94743
2.92193
2.88938
2.84149
2.81775
2.80591
2.78498
2.7599
2.75132
2.73103
2.72644
2.80436
3.13519
3.75502
4.25483
4.54894
4.62318
4.57914
4.50731
4.46113
4.43781
4.39899
4.32755
4.23031
4.15392
4.12431
4.10863
4.1018
4.09217
4.06727
4.03829
3.9995
3.93962
3.86861
3.80363
3.77597
3.75935
3.73595
3.70522
3.6711
3.64794
3.64326
3.67953
3.78848
3.98601
4.17479
4.25131
4.25702
4.2439
4.2246
4.19941
4.17109
4.14274
4.11457
4.08185
4.03328
3.96101
3.90645
3.88272
3.86354
3.84957
3.83946
3.82133
3.80084
3.77607
3.734
3.6692
3.61818
3.59493
3.57791
3.56459
3.55055
3.53345
3.51506
3.49378
3.45743
3.39977
3.34687
3.32813
3.31511
3.30495
3.29449
3.28014
3.26431
3.24644
3.22138
3.17975
3.12409
3.09562
3.08452
3.07488
3.06789
3.06164
3.05128
3.03898
3.02321
2.99591
2.94778
2.89461
2.86788
2.85466
2.84364
2.8329
2.82183
2.80997
2.79764
2.27422
2.27433
2.2896
2.39433
2.73915
3.23363
3.3804
3.41056
3.39363
3.35262
3.33176
3.3139
3.28182
3.26609
3.2552
3.22172
3.18609
3.15504
3.11486
3.06993
3.05805
3.04442
3.01089
2.98088
2.95459
2.91155
2.87145
2.85557
2.83505
2.80668
2.79411
2.78992
2.83644
3.09425
3.61569
4.24536
4.49122
4.57386
4.61608
4.65006
4.64331
4.5859
4.50398
4.43796
4.37756
4.31696
4.25442
4.21988
4.19255
4.17478
4.16612
4.14681
4.11498
4.06303
3.99309
3.92625
3.86977
3.84534
3.83225
3.81336
3.78673
3.74893
3.71004
3.69592
3.72523
3.83654
4.0463
4.25175
4.33753
4.3491
4.32904
4.29698
4.26603
4.2339
4.20183
4.17117
4.13963
4.10083
4.04469
3.98302
3.95042
3.92865
3.91031
3.89515
3.87621
3.85521
3.83035
3.79201
3.73373
3.68234
3.66046
3.6431
3.62636
3.60814
3.58735
3.5644
3.53853
3.50259
3.45142
3.39857
3.37564
3.36211
3.35119
3.34077
3.32653
3.31024
3.29155
3.26822
3.23569
3.18462
3.14066
3.1211
3.10727
3.09668
3.08958
3.08009
3.06731
3.05325
3.03759
3.01197
2.96891
2.92299
2.89375
2.87562
2.86045
2.84664
2.83449
2.82308
2.81014
2.30409
2.29833
2.30188
2.32659
2.44693
2.80847
3.1773
3.3503
3.38943
3.38107
3.37599
3.35856
3.32244
3.30403
3.28155
3.24558
3.21454
3.1828
3.13711
3.10275
3.09393
3.07193
3.03732
3.0132
2.9813
2.93565
2.90948
2.88595
2.86062
2.84068
2.87125
3.05048
3.52614
4.16764
4.59547
4.80963
4.81526
4.74394
4.67181
4.65219
4.64512
4.61409
4.54404
4.45002
4.3631
4.31312
4.29381
4.28109
4.2651
4.24184
4.21991
4.19173
4.13927
4.06319
3.9865
3.92568
3.9008
3.88787
3.87435
3.85286
3.82417
3.79184
3.76186
3.78138
3.88716
4.11137
4.31739
4.42184
4.43463
4.41113
4.3747
4.33559
4.29829
4.26399
4.2313
4.1989
4.16318
4.11719
4.05998
4.02069
3.99765
3.97686
3.95637
3.93418
3.9108
3.88525
3.84905
3.79306
3.73903
3.71811
3.70388
3.68967
3.67163
3.65
3.62425
3.59361
3.55389
3.49938
3.44583
3.42044
3.40817
3.39847
3.38882
3.37442
3.35741
3.3385
3.31614
3.28474
3.23802
3.19342
3.17146
3.15665
3.14189
3.12574
3.10927
3.09617
3.08544
3.07276
3.05417
3.02641
2.98901
2.95346
2.9241
2.89988
2.87977
2.86127
2.84378
2.82986
2.81801
2.34046
2.33665
2.33185
2.33165
2.3489
2.45092
2.75976
3.13113
3.3248
3.38718
3.41985
3.41225
3.37657
3.34409
3.30995
3.27419
3.24118
3.20451
3.15726
3.13815
3.12588
3.09721
3.06914
3.0426
3.00429
2.96076
2.94188
2.91287
2.91591
3.02509
3.4422
4.07286
4.66172
4.78935
4.82959
4.85793
4.84505
4.82898
4.76291
4.69376
4.65585
4.61743
4.54866
4.45563
4.38399
4.35655
4.34442
4.343
4.33085
4.30285
4.26932
4.21366
4.13148
4.0527
3.99559
3.96749
3.95129
3.93393
3.91269
3.88617
3.8605
3.83472
3.84749
3.94874
4.17264
4.38452
4.49759
4.51746
4.49267
4.45405
4.41285
4.37292
4.33466
4.29926
4.26628
4.23077
4.18573
4.13036
4.0881
4.0649
4.04426
4.02318
3.99955
3.97337
3.94347
3.90301
3.84609
3.79303
3.77096
3.75713
3.74703
3.7323
3.71309
3.69013
3.65928
3.6146
3.55263
3.49352
3.46221
3.4492
3.43923
3.43351
3.42311
3.40788
3.39021
3.36734
3.3334
3.28188
3.23213
3.21163
3.20011
3.18907
3.17666
3.16101
3.14155
3.11833
3.09253
3.0659
3.04065
3.01973
3.00107
2.98049
2.95797
2.93292
2.90679
2.88313
2.86208
2.84204
2.82248
2.37789
2.37625
2.36817
2.35006
2.31651
2.31306
2.40921
2.7229
3.14229
3.35184
3.43243
3.44017
3.41501
3.37334
3.33339
3.29996
3.26858
3.22644
3.1848
3.17139
3.1528
3.12425
3.10045
3.0683
3.02891
2.99279
2.97935
3.03947
3.3342
3.97243
4.61662
5.00082
5.1208
5.0727
4.94109
4.84585
4.83458
4.82771
4.79755
4.73443
4.67627
4.62342
4.552
4.47749
4.43996
4.41196
4.39306
4.3877
4.37181
4.34522
4.29438
4.21232
4.12311
4.06653
4.04278
4.02236
3.99951
3.97512
3.9468
3.92339
3.89652
3.90901
4.01316
4.23067
4.46952
4.58659
4.59409
4.56799
4.52806
4.48754
4.44903
4.41208
4.3762
4.33997
4.30126
4.25601
4.19949
4.15281
4.12842
4.10842
4.08949
4.06711
4.04172
4.01108
3.9672
3.90295
3.84343
3.81748
3.80289
3.79372
3.78556
3.76991
3.75052
3.72629
3.68816
3.62332
3.54791
3.50554
3.49117
3.47917
3.47157
3.4655
3.45304
3.43733
3.41913
3.39115
3.34137
3.27859
3.24534
3.23318
3.22281
3.2139
3.20178
3.18693
3.1677
3.1406
3.10695
3.07236
3.04175
3.01969
3.00599
2.99417
2.98026
2.96213
2.93959
2.91352
2.88622
2.85912
2.83013
2.41443
2.4102
2.39709
2.35997
2.30447
2.28913
2.30018
2.41784
2.78884
3.19838
3.40007
3.43774
3.42725
3.3992
3.36609
3.33251
3.29297
3.24041
3.21458
3.20236
3.18154
3.15586
3.12796
3.09817
3.0581
3.07758
3.28625
3.84867
4.53265
5.03062
5.10313
5.15146
5.16472
5.12311
5.0287
4.91411
4.84282
4.82254
4.8048
4.76078
4.7012
4.64222
4.57989
4.53193
4.50405
4.47521
4.44722
4.42394
4.39907
4.35141
4.28163
4.20285
4.14656
4.12185
4.1026
4.0775
4.04672
4.01246
3.98312
3.95685
3.97033
4.07738
4.30853
4.55931
4.67306
4.66529
4.63668
4.59606
4.55623
4.52143
4.48897
4.45783
4.42387
4.38189
4.32592
4.26156
4.21471
4.19011
4.17059
4.15439
4.13444
4.11069
4.0816
4.03881
3.96979
3.8998
3.86549
3.84884
3.83571
3.82869
3.81839
3.8008
3.7813
3.75411
3.70567
3.62444
3.55702
3.53551
3.52065
3.50842
3.50092
3.49227
3.47799
3.4616
3.44014
3.40514
3.3408
3.28799
3.27158
3.25949
3.2499
3.23967
3.22685
3.21192
3.19143
3.15794
3.11107
3.0702
3.04499
3.02846
3.01457
3.0008
2.9882
2.97635
2.96244
2.94331
2.9159
2.87772
2.83297
2.44689
2.43666
2.40804
2.35282
2.30344
2.29514
2.29956
2.32455
2.49084
2.86432
3.25794
3.39494
3.41701
3.4135
3.39867
3.36767
3.31479
3.26261
3.24429
3.23063
3.20767
3.18657
3.15747
3.16374
3.29096
3.71053
4.44481
5.00294
5.32945
5.39576
5.32175
5.20621
5.16282
5.12322
5.06251
4.96946
4.87809
4.83901
4.81105
4.78044
4.73622
4.68073
4.63256
4.59614
4.56155
4.52581
4.48908
4.45016
4.39906
4.33673
4.26761
4.21889
4.19613
4.17523
4.1525
4.12481
4.08939
4.05566
4.01347
4.02315
4.13221
4.38518
4.63119
4.76584
4.75314
4.71383
4.67081
4.62888
4.59733
4.56733
4.53744
4.50523
4.46267
4.39838
4.32649
4.27483
4.24908
4.22972
4.21545
4.19794
4.17559
4.14986
4.11399
4.04703
3.96731
3.92023
3.90096
3.8839
3.87142
3.8608
3.84416
3.82521
3.80401
3.77481
3.71158
3.63203
3.59331
3.57244
3.55467
3.54059
3.52682
3.51096
3.49535
3.47965
3.45594
3.40462
3.34344
3.31493
3.30003
3.28626
3.27276
3.25927
3.24614
3.23193
3.21114
3.17429
3.1207
3.07388
3.05089
3.0382
3.02636
3.01419
3.00181
2.98992
2.97794
2.96325
2.93898
2.8923
2.83715
2.47409
2.44798
2.39944
2.34544
2.32284
2.31912
2.31916
2.33247
2.3769
2.53931
2.87984
3.24363
3.37815
3.42222
3.41996
3.39657
3.33702
3.29405
3.27257
3.25416
3.23686
3.23325
3.3123
3.68339
4.37302
5.00781
5.25428
5.33693
5.41163
5.4367
5.39546
5.28356
5.19146
5.12387
5.05515
4.99542
4.93025
4.87189
4.82793
4.80007
4.77355
4.73875
4.70057
4.66022
4.6172
4.56964
4.51601
4.45499
4.39007
4.32542
4.28419
4.26399
4.24681
4.22415
4.19597
4.16442
4.13176
4.08936
4.09178
4.20917
4.44998
4.73447
4.84802
4.84335
4.80872
4.75908
4.71383
4.6777
4.64628
4.61618
4.58293
4.53867
4.46902
4.39258
4.33892
4.31276
4.29308
4.27876
4.26009
4.23712
4.2118
4.1809
4.11987
4.04009
3.98161
3.95941
3.94127
3.92654
3.90979
3.88918
3.86801
3.8461
3.82088
3.77186
3.7044
3.65473
3.63301
3.61433
3.59559
3.57511
3.55269
3.52972
3.50807
3.48441
3.44511
3.39449
3.36013
3.34552
3.33121
3.31559
3.2981
3.27897
3.25895
3.2379
3.21259
3.17802
3.1356
3.09705
3.0677
3.04605
3.03135
3.01917
3.00792
2.99961
2.99031
2.97789
2.95666
2.91305
2.85567
2.4872
2.43989
2.38686
2.36201
2.35868
2.35823
2.36211
2.36153
2.35714
2.38174
2.51666
2.89446
3.22177
3.39448
3.43449
3.41972
3.37467
3.32432
3.30178
3.2921
3.34297
3.62437
4.2414
5.02978
5.44546
5.60674
5.57936
5.48398
5.41644
5.41843
5.39954
5.34759
5.23887
5.124
5.04606
5.01434
4.97835
4.92476
4.87009
4.82944
4.80356
4.78004
4.74846
4.70403
4.65272
4.59775
4.53308
4.45873
4.38903
4.3481
4.32704
4.30914
4.2904
4.26454
4.23489
4.20719
4.1662
4.16297
4.27843
4.53638
4.81257
4.95053
4.92761
4.88934
4.84667
4.80228
4.76391
4.72825
4.69465
4.6594
4.61172
4.53813
4.45988
4.40624
4.38072
4.36256
4.34914
4.32801
4.30192
4.27383
4.24225
4.18428
4.10771
4.04275
4.019
4.00105
3.98624
3.96788
3.94474
3.91948
3.8931
3.86558
3.81899
3.75426
3.70065
3.68232
3.66821
3.65346
3.6342
3.61039
3.5829
3.55505
3.52438
3.47715
3.42557
3.39474
3.38387
3.37246
3.35828
3.3415
3.32275
3.30298
3.28083
3.252
3.21713
3.18258
3.15181
3.11978
3.08262
3.05516
3.04115
3.02985
3.01773
3.00493
2.99308
2.98044
2.96191
2.92816
2.88366
2.48037
2.42581
2.39969
2.39609
2.39769
2.4033
2.40239
2.39069
2.35587
2.34527
2.36999
2.53648
2.92009
3.24759
3.42306
3.42525
3.39876
3.36285
3.38741
3.58081
4.15933
4.95918
5.47285
5.58089
5.61909
5.65214
5.65092
5.59501
5.48833
5.43483
5.40312
5.33977
5.24222
5.13662
5.07016
5.04359
5.02279
4.98899
4.94222
4.89497
4.85056
4.80664
4.76203
4.71439
4.6653
4.61155
4.54191
4.46488
4.4225
4.40044
4.377
4.35221
4.3267
4.2986
4.27439
4.24849
4.25154
4.3621
4.62693
4.90194
5.0353
5.00929
4.96711
4.92631
4.88636
4.85398
4.81997
4.78293
4.74208
4.68567
4.60368
4.5222
4.46956
4.44537
4.42939
4.42036
4.40167
4.37457
4.34356
4.30588
4.24401
4.16334
4.0969
4.07134
4.05515
4.04474
4.03015
4.00754
3.98157
3.95192
3.91779
3.86576
3.79431
3.73672
3.71546
3.70322
3.69632
3.68627
3.66916
3.64812
3.61918
3.57633
3.51646
3.45874
3.42176
3.40807
3.39916
3.39376
3.383
3.36818
3.3476
3.31592
3.27417
3.23985
3.21232
3.18937
3.17062
3.14716
3.10905
3.06998
3.04933
3.0374
3.02771
3.01692
3.00392
2.98904
2.9694
2.93696
2.89996
2.46526
2.43718
2.43268
2.43308
2.4385
2.4387
2.42845
2.39927
2.35925
2.34654
2.34903
2.38608
2.58521
2.91549
3.3079
3.36543
3.4126
3.60413
4.10501
4.82918
5.56497
5.88908
5.90605
5.78957
5.65497
5.635
5.65566
5.64186
5.56697
5.47325
5.38483
5.30686
5.23814
5.17055
5.12025
5.08287
5.06489
5.04496
5.0112
4.96098
4.89544
4.82524
4.77158
4.72517
4.67542
4.61886
4.55212
4.49473
4.47016
4.4471
4.42051
4.39169
4.36003
4.33558
4.31217
4.33169
4.45743
4.7228
5.00371
5.10843
5.08069
5.03848
5.00256
4.968
4.93906
4.90905
4.87421
4.83317
4.77258
4.68069
4.58721
4.52812
4.50338
4.48783
4.48337
4.47201
4.44702
4.41832
4.37998
4.31543
4.22397
4.14651
4.11377
4.0983
4.08974
4.08549
4.06862
4.04643
4.02066
3.98539
3.92837
3.84475
3.77288
3.74234
3.7296
3.72277
3.72379
3.71662
3.70073
3.68145
3.64987
3.58825
3.50603
3.45238
3.43593
3.42527
3.41757
3.41118
3.40095
3.38826
3.37059
3.33331
3.27803
3.23509
3.21757
3.20702
3.19222
3.16822
3.13462
3.10175
3.0745
3.05154
3.03229
3.01604
2.99934
2.9798
2.95947
2.94177
2.92095
2.47552
2.47004
2.47007
2.47308
2.47124
2.46162
2.43394
2.40185
2.37653
2.36334
2.35908
2.36677
2.41722
2.58852
3.01514
3.37692
3.99918
4.79913
5.50762
5.8543
5.95712
5.97263
5.91512
5.85459
5.76005
5.69253
5.68295
5.66655
5.61082
5.49011
5.36199
5.28105
5.24575
5.21828
5.18704
5.14518
5.11582
5.09172
5.05633
4.98585
4.89567
4.82535
4.77474
4.73234
4.68869
4.6413
4.59248
4.54963
4.51336
4.48194
4.45142
4.41828
4.39244
4.37687
4.41305
4.55811
4.82987
5.10334
5.19447
5.15064
5.0987
5.06619
5.04167
5.01914
4.99037
4.95647
4.91841
4.86353
4.77081
4.6657
4.59609
4.56734
4.5468
4.53716
4.53093
4.51026
4.48401
4.45197
4.39844
4.30125
4.20309
4.15631
4.13889
4.12643
4.12446
4.12039
4.10244
4.08062
4.05274
4.00665
3.9195
3.82471
3.77495
3.75861
3.74586
3.74085
3.74611
3.73912
3.72198
3.7029
3.66912
3.59368
3.50763
3.47095
3.45501
3.4431
3.43695
3.42702
3.41268
3.39456
3.36997
3.33061
3.28336
3.25147
3.22998
3.20703
3.18149
3.15699
3.13957
3.1233
3.10234
3.07434
3.04373
3.02105
3.0059
2.98386
2.95374
2.93419
2.92506
2.50803
2.50756
2.50867
2.50514
2.49337
2.46517
2.4343
2.41758
2.40738
2.39428
2.38564
2.37903
2.38479
2.4612
2.947
3.98793
5.07293
5.82894
6.22412
6.25608
6.08718
5.90612
5.88157
5.86424
5.83347
5.76266
5.71203
5.67121
5.59528
5.47861
5.35686
5.29387
5.26822
5.25678
5.24218
5.20332
5.16302
5.12672
5.06416
4.9747
4.89364
4.83105
4.78205
4.74185
4.70683
4.67414
4.6399
4.59849
4.55018
4.50909
4.47373
4.44615
4.43079
4.47879
4.65482
4.94012
5.20105
5.28853
5.23718
5.16496
5.12589
5.10125
5.08495
5.05986
5.0266
4.9912
4.94335
4.85703
4.75082
4.67132
4.63777
4.61398
4.59987
4.58746
4.56326
4.53615
4.51041
4.47056
4.3927
4.28567
4.20933
4.18586
4.16785
4.15607
4.15398
4.14599
4.1271
4.10521
4.07537
4.01008
3.90853
3.82624
3.79978
3.78288
3.76919
3.76362
3.76707
3.76015
3.74477
3.71856
3.66632
3.59057
3.53709
3.51389
3.49292
3.47159
3.45046
3.43289
3.42072
3.40329
3.37136
3.33098
3.29712
3.27177
3.24532
3.21463
3.18368
3.16129
3.1474
3.1351
3.12142
3.10279
3.07552
3.04043
3.00422
2.97507
2.95322
2.94256
2.93279
2.54588
2.54496
2.53971
2.52549
2.49576
2.4656
2.45113
2.44596
2.43602
2.42966
2.41511
2.43759
2.62865
3.10405
3.75869
4.57313
5.2504
5.80736
6.23641
6.26641
6.11203
5.93878
5.90828
5.89866
5.87455
5.81895
5.74846
5.65498
5.549
5.45296
5.38305
5.34382
5.31414
5.30137
5.28121
5.24586
5.19961
5.12919
5.03657
4.95413
4.89554
4.85137
4.80977
4.77265
4.7422
4.71275
4.67631
4.63005
4.57127
4.52481
4.4955
4.4921
4.54895
4.75004
5.0498
5.3022
5.37678
5.32467
5.2399
5.19211
5.16182
5.14289
5.11854
5.0852
5.05168
5.00921
4.93181
4.82725
4.7417
4.70598
4.68266
4.66939
4.65504
4.62817
4.59715
4.56417
4.51785
4.45053
4.36545
4.285
4.24598
4.2233
4.20521
4.19282
4.17942
4.15851
4.13695
4.11498
4.07384
3.99469
3.90174
3.85587
3.83461
3.81861
3.80826
3.79573
3.7778
3.75594
3.73133
3.69594
3.64394
3.59469
3.57369
3.5543
3.53129
3.50499
3.47893
3.45428
3.42188
3.38969
3.35999
3.33337
3.31434
3.29346
3.26451
3.22531
3.18921
3.16957
3.15674
3.1454
3.1346
3.12214
3.10025
3.05589
2.99943
2.96852
2.95844
2.95129
2.94646
2.58258
2.57554
2.55783
2.52769
2.49733
2.4839
2.47933
2.47729
2.4682
2.48007
2.58061
2.95088
3.57118
4.11017
4.42737
4.6133
4.95341
5.37893
5.86238
6.00619
6.02658
6.02916
5.9949
5.94148
5.89493
5.83199
5.74148
5.62578
5.51467
5.45227
5.42155
5.39229
5.365
5.33694
5.30607
5.2722
5.20927
5.10874
5.01041
4.94663
4.91293
4.88156
4.84848
4.81654
4.78688
4.75415
4.70525
4.63469
4.57495
4.53872
4.54094
4.61041
4.8423
5.16495
5.40569
5.46134
5.40948
5.31581
5.26036
5.22873
5.20996
5.18344
5.14696
5.11105
5.0681
4.99437
4.89382
4.80622
4.76556
4.74321
4.73261
4.72543
4.70076
4.66959
4.63305
4.58051
4.49993
4.40967
4.34504
4.31307
4.28895
4.26578
4.24722
4.2266
4.20308
4.1814
4.15746
4.1174
4.05364
3.97128
3.91665
3.89728
3.87938
3.86108
3.83988
3.81643
3.79432
3.77132
3.73108
3.67442
3.62833
3.6126
3.60226
3.58839
3.56916
3.54231
3.50391
3.45608
3.41197
3.37732
3.35717
3.34543
3.33284
3.31279
3.27898
3.2334
3.20331
3.18791
3.17421
3.16023
3.1461
3.13125
3.10743
3.06257
3.00939
2.98222
2.96822
2.95697
2.94748
2.61137
2.59044
2.55936
2.53039
2.5157
2.51258
2.51775
2.51852
2.58675
2.88038
3.42602
4.01809
4.39251
4.58381
4.59971
4.57656
4.58912
4.75509
5.22736
5.72841
6.02045
6.10181
6.05929
5.98783
5.92217
5.84318
5.73294
5.60215
5.50981
5.47749
5.45405
5.43529
5.40544
5.36504
5.32849
5.27585
5.18765
5.08149
5.00699
4.97227
4.94524
4.9199
4.89243
4.86298
4.8278
4.7697
4.6878
4.62099
4.58485
4.58975
4.67324
4.92772
5.28272
5.52271
5.5523
5.49498
5.39374
5.32809
5.2959
5.28026
5.26253
5.22541
5.18616
5.13804
5.05824
4.95177
4.86253
4.81788
4.79569
4.78461
4.78455
4.76789
4.73943
4.70611
4.65594
4.56939
4.47052
4.39656
4.35995
4.34298
4.33098
4.31565
4.29317
4.26426
4.22757
4.18558
4.14343
4.09163
4.01919
3.9631
3.94557
3.93358
3.92172
3.90299
3.87811
3.84586
3.80427
3.75623
3.70639
3.66184
3.64129
3.62951
3.62227
3.61279
3.59672
3.57258
3.5267
3.4611
3.40845
3.38336
3.36842
3.35326
3.33839
3.32291
3.29486
3.2544
3.22367
3.20478
3.18989
3.1766
3.1633
3.14482
3.11607
3.07355
3.03251
3.00566
2.98523
2.96807
2.95398
2.62324
2.59089
2.56253
2.54695
2.54736
2.55791
2.60255
2.79815
3.32624
3.94128
4.36342
4.6579
4.70555
4.69347
4.62135
4.52618
4.46624
4.48836
4.67961
5.21131
5.81557
6.03885
6.03946
5.99491
5.92423
5.83648
5.72453
5.60546
5.54067
5.50755
5.48447
5.46758
5.43144
5.38574
5.33211
5.25663
5.154
5.07339
5.03633
5.00883
4.98485
4.96155
4.93395
4.9012
4.84541
4.75758
4.67469
4.62795
4.63307
4.72741
4.9992
5.37212
5.62455
5.64993
5.59246
5.47913
5.39634
5.36142
5.34339
5.33533
5.30474
5.26626
5.22197
5.14353
5.02661
4.92375
4.8681
4.84321
4.82852
4.83147
4.82385
4.79671
4.76738
4.72873
4.65196
4.5446
4.45504
4.41271
4.39328
4.3784
4.36633
4.34674
4.32354
4.29531
4.25409
4.20132
4.13774
4.06709
4.00594
3.98038
3.96657
3.95843
3.94967
3.93134
3.90837
3.87527
3.81931
3.74395
3.68869
3.66812
3.65827
3.65193
3.64338
3.62746
3.61025
3.58799
3.5438
3.47499
3.42271
3.39683
3.38
3.36748
3.34991
3.32016
3.28913
3.26744
3.25032
3.23211
3.21052
3.18438
3.15532
3.12387
3.09046
3.06436
3.04741
3.0318
3.01493
2.99558
2.97423
2.62403
2.5927
2.58112
2.58297
2.61872
2.78257
3.21528
3.84344
4.32303
4.57861
4.72302
4.74077
4.70943
4.65595
4.5785
4.50934
4.48194
4.47914
4.51674
4.74597
5.29612
5.78321
5.99822
5.99548
5.92661
5.82293
5.7199
5.63611
5.58909
5.54891
5.51912
5.4932
5.45725
5.41222
5.3416
5.23331
5.13608
5.09167
5.06613
5.04387
5.02333
4.99714
4.96729
4.91953
4.83308
4.7365
4.6785
4.68517
4.79009
5.07909
5.43701
5.69998
5.73374
5.69014
5.58043
5.47597
5.43126
5.40668
5.39626
5.37179
5.33408
5.29456
5.23306
5.12907
5.00657
4.92855
4.89844
4.87651
4.87022
4.86717
4.84368
4.81567
4.78099
4.718
4.62598
4.53444
4.47683
4.45031
4.42929
4.41372
4.39926
4.37824
4.35176
4.31746
4.27281
4.21408
4.13582
4.0538
4.01663
4.00109
3.98845
3.98154
3.97109
3.95358
3.93114
3.8955
3.82842
3.74149
3.69731
3.6823
3.6699
3.66661
3.66508
3.65059
3.63034
3.5983
3.55162
3.49905
3.45734
3.42718
3.40255
3.37377
3.34644
3.31672
3.29507
3.28135
3.26716
3.25101
3.23042
3.20331
3.16446
3.11954
3.08423
3.06527
3.05467
3.04505
3.0336
3.01757
2.99472
2.62679
2.61765
2.63362
2.74364
3.10695
3.7981
4.34805
4.61863
4.78785
4.85433
4.84906
4.78631
4.69329
4.61929
4.5689
4.54013
4.52752
4.52064
4.51411
4.54757
4.72825
5.17681
5.67113
5.8995
5.86533
5.79282
5.72912
5.68169
5.63621
5.58905
5.55037
5.51456
5.47503
5.4223
5.33603
5.22442
5.15164
5.12191
5.0966
5.07364
5.04617
5.01335
4.97267
4.90598
4.81554
4.7418
4.74753
4.86309
5.17346
5.54677
5.7824
5.80878
5.76206
5.66609
5.56732
5.51125
5.47931
5.45928
5.43248
5.39439
5.35575
5.30469
5.22327
5.10974
5.01332
4.97114
4.94241
4.92528
4.91377
4.88538
4.8552
4.8225
4.76577
4.67963
4.59872
4.5523
4.53081
4.50752
4.4784
4.44436
4.4059
4.37119
4.3423
4.31341
4.27847
4.22628
4.14613
4.07153
4.04074
4.02145
4.00413
3.98785
3.97283
3.95814
3.93996
3.90775
3.84049
3.76195
3.7232
3.70395
3.68827
3.67324
3.6588
3.64121
3.61673
3.5859
3.55126
3.52406
3.49561
3.45369
3.40007
3.35991
3.33693
3.32359
3.31368
3.30277
3.28853
3.27096
3.24596
3.20428
3.15148
3.11037
3.09183
3.08188
3.07144
3.05972
3.04688
3.03191
3.01056
2.66377
2.72067
3.03183
3.65338
4.36665
4.68675
4.77848
4.83114
4.8715
4.86736
4.83582
4.7676
4.68029
4.61227
4.59167
4.58487
4.58689
4.5686
4.53273
4.47762
4.46114
4.59639
5.01048
5.56304
5.76925
5.79371
5.75827
5.72102
5.67515
5.62349
5.57691
5.53842
5.49233
5.42019
5.32413
5.2366
5.19404
5.15971
5.12984
5.10004
5.0668
5.02501
4.95968
4.87922
4.81291
4.82271
4.96319
5.28794
5.68298
5.89548
5.90656
5.83655
5.73561
5.64065
5.58543
5.55633
5.53536
5.50315
5.46277
5.41792
5.36466
5.29222
5.19312
5.09978
5.05437
5.02598
5.00609
4.98527
4.95173
4.91269
4.86754
4.80231
4.72159
4.64891
4.60452
4.58629
4.57248
4.54972
4.51928
4.4753
4.41863
4.3704
4.3378
4.31051
4.28191
4.24094
4.17637
4.10991
4.06742
4.04062
4.01909
4.00027
3.98185
3.96141
3.93489
3.89946
3.85463
3.80908
3.768
3.73302
3.71005
3.69141
3.66871
3.64279
3.61207
3.58281
3.56567
3.54976
3.52428
3.47246
3.39986
3.35599
3.34
3.32891
3.32289
3.31891
3.30712
3.28976
3.26163
3.20927
3.14262
3.1119
3.10281
3.09576
3.0871
3.07615
3.06365
3.04844
3.02069
2.9379
3.49027
4.27964
4.75424
4.93586
5.00977
4.99853
4.96878
4.91244
4.85262
4.79957
4.75071
4.69269
4.65822
4.6371
4.62533
4.60938
4.5733
4.51995
4.45534
4.40201
4.40103
4.53541
4.9593
5.50412
5.73242
5.77579
5.75013
5.70654
5.65298
5.59083
5.53481
5.47687
5.39763
5.31651
5.27089
5.23447
5.19788
5.1622
5.12447
5.08045
5.01605
4.92979
4.86639
4.87846
5.03482
5.39617
5.7759
5.99659
6.01689
5.9663
5.84497
5.71883
5.65005
5.6165
5.59766
5.57548
5.53673
5.49416
5.44003
5.36158
5.26121
5.17053
5.11977
5.09385
5.07927
5.06688
5.03609
4.99565
4.93968
4.85369
4.75624
4.68507
4.64689
4.63073
4.62487
4.60947
4.58185
4.54872
4.4955
4.42762
4.37544
4.33896
4.30636
4.27341
4.24019
4.20099
4.15319
4.11052
4.07451
4.04058
4.00729
3.97665
3.95025
3.92299
3.89094
3.8633
3.84188
3.81502
3.77648
3.72922
3.68446
3.6508
3.62469
3.60752
3.59795
3.59054
3.57436
3.5436
3.4834
3.4074
3.368
3.35353
3.343
3.33258
3.32043
3.31012
3.29954
3.27253
3.21596
3.15825
3.13069
3.1146
3.10287
3.09494
3.09198
3.08314
3.06487
3.02576
4.13005
4.86433
4.98432
4.9511
4.97472
5.01799
5.03778
5.00656
4.93118
4.83733
4.77363
4.74247
4.7243
4.71093
4.68541
4.65544
4.60801
4.54982
4.49206
4.43991
4.39595
4.37206
4.38452
4.52883
4.97918
5.4589
5.69009
5.73514
5.71366
5.67096
5.60588
5.53316
5.45474
5.37675
5.33259
5.30344
5.26921
5.23264
5.19231
5.1453
5.0811
4.9933
4.91913
4.92895
5.09749
5.48631
5.85891
6.07287
6.10558
6.07122
5.97278
5.83796
5.73106
5.68427
5.65176
5.63354
5.60147
5.56117
5.51648
5.44723
5.33753
5.23403
5.17616
5.15025
5.13617
5.13241
5.10826
5.07175
5.02558
4.94517
4.83327
4.73743
4.68683
4.66416
4.6509
4.64563
4.63022
4.60717
4.56933
4.50896
4.44268
4.39109
4.35066
4.31492
4.27825
4.23764
4.20165
4.17273
4.14336
4.10945
4.06962
4.02555
3.98305
3.94559
3.91549
3.89424
3.87912
3.86138
3.84047
3.80578
3.74629
3.68594
3.64882
3.62873
3.61473
3.6017
3.58612
3.56453
3.5312
3.48534
3.43667
3.39618
3.36938
3.35573
3.34724
3.34
3.32321
3.29209
3.25094
3.21149
3.18437
3.16398
3.144
3.12546
3.10907
3.09079
3.07059
3.04551
3.00779
5.16085
5.21584
5.14913
5.05669
5.03347
5.03173
5.02845
5.00006
4.93061
4.83956
4.78319
4.75729
4.74749
4.73209
4.7029
4.6491
4.58234
4.52908
4.48183
4.44216
4.41362
4.38952
4.36726
4.37801
4.51554
4.92404
5.34719
5.62631
5.69565
5.67842
5.61908
5.51731
5.42022
5.37133
5.34796
5.32921
5.30015
5.26483
5.21882
5.15754
5.06908
4.98104
4.98998
5.16936
5.5701
5.96423
6.16813
6.18274
6.13779
6.0448
5.93794
5.83095
5.77011
5.72958
5.69962
5.66523
5.62447
5.58572
5.52927
5.43346
5.31586
5.23412
5.20125
5.1784
5.17185
5.16011
5.13032
5.09659
5.04007
4.94211
4.8259
4.75342
4.72056
4.69559
4.67497
4.65323
4.62825
4.59263
4.54957
4.50459
4.46443
4.42514
4.37967
4.3296
4.28502
4.24925
4.21524
4.18455
4.15637
4.12729
4.09471
4.05353
3.99921
3.94886
3.92215
3.90712
3.89649
3.88552
3.8626
3.82241
3.75729
3.69297
3.66272
3.65047
3.63684
3.61703
3.59242
3.56246
3.5262
3.49235
3.46849
3.4434
3.41119
3.37505
3.34626
3.32522
3.30227
3.26966
3.23335
3.21347
3.20281
3.18974
3.17243
3.14981
3.12436
3.10325
3.07166
3.02615
2.98878
5.20806
5.15242
5.12572
5.13462
5.12634
5.08575
5.03793
4.97085
4.9051
4.85747
4.82679
4.79799
4.77471
4.75156
4.70576
4.62894
4.5603
4.51389
4.48781
4.4722
4.45302
4.42543
4.38726
4.33913
4.33497
4.44904
4.80041
5.24285
5.59406
5.6514
5.62495
5.51974
5.41515
5.37529
5.35255
5.34517
5.32137
5.28487
5.23814
5.16269
5.05879
5.06221
5.25184
5.6548
6.05211
6.26599
6.279
6.22139
6.10705
5.98162
5.89582
5.84936
5.81785
5.79245
5.75552
5.70661
5.64997
5.58524
5.50538
5.40734
5.3154
5.27087
5.23959
5.21732
5.19521
5.16213
5.13046
5.08778
5.01923
4.92993
4.85648
4.81771
4.78061
4.74091
4.70242
4.66352
4.6178
4.57127
4.53271
4.5065
4.48347
4.45734
4.42089
4.36666
4.299
4.23788
4.19841
4.16993
4.14653
4.12528
4.10351
4.07318
4.02712
3.97855
3.94717
3.92595
3.90502
3.87624
3.84422
3.80953
3.77187
3.73545
3.69419
3.64696
3.6123
3.58597
3.56007
3.54031
3.52724
3.51623
3.50606
3.49078
3.46532
3.42163
3.35882
3.29954
3.26431
3.24687
3.23695
3.2304
3.22566
3.21609
3.20232
3.18212
3.14912
3.09904
3.04897
3.00976
2.9899
5.22024
5.14515
5.13469
5.1633
5.15371
5.10939
5.0322
4.94783
4.8993
4.87924
4.86204
4.83181
4.79695
4.74772
4.68046
4.61183
4.55617
4.52606
4.50743
4.49398
4.47653
4.45165
4.40991
4.34037
4.30213
4.30161
4.39886
4.71864
5.20436
5.54315
5.58244
5.51696
5.42867
5.39204
5.36912
5.35379
5.33207
5.29891
5.24496
5.15305
5.15353
5.35266
5.76749
6.14398
6.36916
6.38592
6.32798
6.20507
6.0641
5.95521
5.89796
5.87186
5.87121
5.85112
5.80804
5.75497
5.67632
5.57291
5.47314
5.39294
5.35253
5.32303
5.29568
5.2623
5.22207
5.17772
5.12646
5.06241
4.9885
4.9294
4.90392
4.87871
4.84388
4.79434
4.72579
4.65058
4.59553
4.5601
4.53657
4.51801
4.50137
4.47756
4.44952
4.40361
4.3212
4.23926
4.19826
4.17507
4.15419
4.13178
4.10572
4.0771
4.04854
4.01758
3.98187
3.94333
3.90267
3.86801
3.83535
3.80941
3.79267
3.77078
3.72846
3.6592
3.59586
3.56514
3.54735
3.53463
3.5278
3.53749
3.54108
3.52709
3.50251
3.44634
3.3465
3.27238
3.24858
3.23655
3.22938
3.23608
3.24956
3.2435
3.23087
3.21127
3.16526
3.08175
3.0218
3.00364
2.99716
5.28324
5.25298
5.22131
5.19493
5.15004
5.08016
5.01163
4.96173
4.93224
4.91702
4.89655
4.86197
4.80437
4.72033
4.64876
4.60423
4.58119
4.56189
4.53932
4.51399
4.48763
4.45829
4.41632
4.35988
4.31124
4.27895
4.2852
4.37428
4.65783
5.13697
5.41076
5.45474
5.45451
5.44381
5.4161
5.36637
5.32035
5.28576
5.22724
5.25077
5.48556
5.91215
6.29163
6.47564
6.48117
6.42299
6.30564
6.15871
6.03316
5.96797
5.93315
5.9253
5.92356
5.89488
5.85158
5.78726
5.68802
5.56131
5.455
5.4095
5.38364
5.36599
5.3387
5.30081
5.25659
5.19375
5.1039
5.02302
4.97698
4.956
4.94158
4.91868
4.88667
4.83676
4.74677
4.64528
4.58802
4.56174
4.5424
4.53356
4.52117
4.49852
4.47051
4.42732
4.34644
4.25273
4.20363
4.17797
4.15757
4.13754
4.11787
4.09923
4.07618
4.04462
3.99521
3.9356
3.89278
3.86233
3.84141
3.82695
3.81166
3.78958
3.74579
3.66353
3.58716
3.5571
3.54431
3.53777
3.55594
3.5821
3.57417
3.55474
3.52454
3.45696
3.34728
3.27161
3.24861
3.23749
3.23232
3.25551
3.28023
3.27197
3.25565
3.23015
3.17068
3.07959
3.02492
3.01045
3.00116
5.31545
5.32199
5.28346
5.22072
5.1289
5.05069
5.01184
4.99247
4.97798
4.95653
4.92811
4.88317
4.79727
4.70266
4.6428
4.61951
4.60444
4.59005
4.56803
4.54037
4.50448
4.45711
4.41187
4.3802
4.34951
4.31628
4.27883
4.2533
4.30604
4.55596
4.97945
5.27349
5.43841
5.49777
5.47354
5.40584
5.32452
5.26363
5.30099
5.55766
6.01951
6.43656
6.64701
6.62817
6.53529
6.4011
6.25875
6.13732
6.06675
6.02614
5.99957
5.97398
5.93821
5.89806
5.84547
5.77983
5.68687
5.56153
5.47718
5.44064
5.41085
5.389
5.36032
5.3232
5.27794
5.20439
5.09628
5.01699
4.98656
4.96793
4.96044
4.93799
4.9055
4.8583
4.77036
4.66638
4.60864
4.57789
4.55367
4.53081
4.51371
4.5027
4.48222
4.44494
4.37404
4.29092
4.23191
4.19317
4.16349
4.14127
4.12546
4.11671
4.10067
4.06637
3.99515
3.91876
3.88663
3.87307
3.86673
3.85652
3.83768
3.81086
3.7613
3.67813
3.6032
3.5705
3.55637
3.54766
3.54425
3.55034
3.54781
3.53277
3.5066
3.45068
3.36568
3.29886
3.26612
3.25199
3.24542
3.24345
3.24834
3.24711
3.2347
3.21196
3.16028
3.08703
3.04453
3.02618
3.01628
5.36258
5.35481
5.31003
5.2209
5.11217
5.0523
5.03446
5.03315
5.02847
4.99627
4.95154
4.87836
4.77967
4.7016
4.67053
4.65195
4.63665
4.62123
4.60269
4.56606
4.50243
4.44625
4.42218
4.40675
4.38752
4.35824
4.2986
4.22907
4.20732
4.24642
4.48328
4.88299
5.26363
5.46639
5.47729
5.42687
5.33979
5.36241
5.59825
6.03621
6.5013
6.71745
6.72264
6.65073
6.51147
6.36085
6.24107
6.17967
6.14826
6.11682
6.06941
6.004
5.92722
5.87022
5.82349
5.7681
5.69156
5.59678
5.53093
5.4808
5.43557
5.3978
5.36655
5.33749
5.29342
5.21281
5.10568
5.04039
5.0072
4.98127
4.9637
4.94792
4.91784
4.86961
4.79556
4.71991
4.65716
4.60395
4.56578
4.54125
4.522
4.49882
4.46526
4.4196
4.37123
4.32202
4.27533
4.22967
4.19137
4.16352
4.13969
4.11803
4.09084
4.04874
3.98746
3.92797
3.89637
3.87702
3.8588
3.84179
3.82209
3.79266
3.75187
3.70325
3.65632