/*--------------------------------*- C++ -*----------------------------------*\
  =========                 |
  \\      /  F ield         | OpenFOAM: The Open Source CFD Toolbox
   \\    /   O peration     | Website:  https://openfoam.org
    \\  /    A nd           | Version:  7
     \\/     M anipulation  |
\*---------------------------------------------------------------------------*/
FoamFile
{
    version     2.0;
    format      ascii;
    class       volScalarField;
    location    "1.4";
    object      p;
}
// * * * * * * * * * * * * * * * * * * * * * * * * * * * * * * * * * * * * * //

dimensions      [1 -1 -2 0 0 0 0];

internalField   nonuniform List<scalar> 
4128
(
4.40137
4.28556
4.1686
4.05764
3.94396
3.83849
3.73991
3.63645
3.54263
3.44234
3.35096
3.26956
3.17965
3.10282
3.0138
2.93919
2.87131
2.79516
2.73065
2.6518
2.59558
2.53539
2.47504
2.41258
2.35122
2.30805
2.25705
2.20995
2.15229
2.11117
2.06958
2.02805
1.98272
1.9417
1.90662
1.86468
1.8245
1.7784
1.75193
1.7239
1.6953
1.66074
1.62872
1.60926
1.58518
1.56138
1.53333
1.50824
1.48016
1.4514
1.42719
1.40659
1.38549
1.35974
1.33417
1.31635
1.30799
1.301
1.28623
1.26365
1.39472
3.72108
5.24575
5.31587
5.29286
5.29135
5.29618
5.2958
5.28358
5.25069
5.18905
5.09208
4.96529
4.84977
4.76952
4.70733
4.64714
4.57594
4.48896
4.38706
4.26851
4.1351
5.21053
5.08334
4.95334
4.82516
4.69622
4.57508
4.45828
4.33861
4.22392
4.10863
4.00046
3.89975
3.79471
3.69701
3.59686
3.50005
3.41641
3.3248
3.24266
3.15707
3.07174
3.00444
2.92532
2.85746
2.78173
2.71267
2.65613
2.58912
2.5317
2.46116
2.41233
2.36345
2.31195
2.25909
2.20348
2.1644
2.11899
2.07686
2.02674
1.98845
1.94846
1.90722
1.86407
1.82496
1.8008
1.76996
1.73986
1.70012
1.67513
1.65319
1.62725
1.59932
1.56785
1.54142
1.51187
1.4864
1.46266
1.44178
1.41765
1.39202
1.37001
1.35627
1.34762
1.33612
1.32028
1.29527
1.28243
1.99113
4.67989
5.28286
5.28864
5.30314
5.30695
5.30259
5.28354
5.23789
5.16168
5.0553
4.9332
4.8343
4.76817
4.71286
4.6561
4.58827
4.50619
4.40787
4.29076
4.15583
5.25846
5.12909
5.00042
4.86965
4.74635
4.62958
4.50859
4.39178
4.27385
4.16332
4.06083
3.95387
3.85236
3.75138
3.65148
3.56493
3.47232
3.3847
3.301
3.20913
3.13831
3.05958
2.98424
2.91455
2.83426
2.77706
2.70912
2.64666
2.58179
2.51722
2.4719
2.41553
2.36551
2.30436
2.25732
2.21448
2.16808
2.12209
2.07147
2.0343
1.99122
1.95239
1.90681
1.87573
1.84838
1.8155
1.78118
1.74229
1.72111
1.69516
1.66756
1.63313
1.60122
1.57465
1.54664
1.52333
1.49759
1.47527
1.44986
1.42735
1.40843
1.39681
1.38624
1.37002
1.35077
1.32765
1.28999
1.3481
3.13127
5.11293
5.30952
5.31121
5.30567
5.29457
5.26931
5.21324
5.12719
5.01713
4.90656
4.8291
4.77562
4.72557
4.67023
4.60355
4.52304
4.42388
4.30224
4.16082
5.30342
5.17481
5.04351
4.91563
4.79926
4.67879
4.56092
4.44092
4.32597
4.22239
4.11438
4.0104
3.90807
3.80503
3.71538
3.62138
3.52917
3.4449
3.35056
3.27411
3.19601
3.11454
3.046
2.96215
2.89816
2.83285
2.76228
2.70348
2.62904
2.57923
2.52489
2.4683
2.41424
2.35262
2.31124
2.26229
2.21709
2.1644
2.11878
2.08016
2.03747
1.99882
1.95406
1.9264
1.89376
1.86002
1.82018
1.78765
1.76513
1.73553
1.70477
1.66497
1.63687
1.61081
1.58525
1.56003
1.53173
1.50967
1.48598
1.46604
1.44758
1.43553
1.42115
1.40053
1.37739
1.35512
1.31549
1.30224
1.71793
4.27558
5.31408
5.29751
5.29962
5.28097
5.2441
5.17918
5.09025
4.987
4.89524
4.83533
4.79059
4.74402
4.68761
4.61883
4.53378
4.42759
4.29738
4.15136
5.34677
5.2174
5.08575
4.96728
4.84745
4.72893
4.61016
4.49144
4.38565
4.2762
4.16958
4.06625
3.96073
3.86796
3.77241
3.67669
3.59015
3.49441
3.41204
3.33312
3.24792
3.17673
3.09434
3.02152
2.9577
2.88257
2.82177
2.74928
2.68699
2.63647
2.57374
2.52227
2.45765
2.40754
2.36214
2.31059
2.26445
2.20748
2.16859
2.12659
2.08676
2.04439
2.00387
1.97443
1.93751
1.90265
1.85999
1.83304
1.80616
1.77432
1.73803
1.69853
1.67527
1.64943
1.62471
1.59392
1.56637
1.54639
1.52518
1.50498
1.48573
1.47168
1.45263
1.42815
1.40232
1.37666
1.34545
1.31412
1.34019
2.61067
4.95503
5.29903
5.29307
5.2769
5.22746
5.15087
5.0597
4.96789
4.89457
4.84616
4.80664
4.75981
4.70155
4.62926
4.53727
4.42005
4.28044
4.13747
5.38507
5.25442
5.13535
5.01606
4.89473
4.77571
4.65579
4.55066
4.4411
4.33056
4.2242
4.11517
4.02171
3.92588
3.82654
3.73639
3.63894
3.55202
3.47132
3.38348
3.30772
3.22745
3.14752
3.08282
3.00677
2.93969
2.87303
2.79909
2.74829
2.68512
2.62739
2.56992
2.50635
2.46327
2.40919
2.36142
2.30749
2.25677
2.21944
2.17461
2.13665
2.08917
2.05365
2.01909
1.98093
1.94324
1.90239
1.87683
1.84486
1.81161
1.76973
1.73727
1.71602
1.68957
1.66285
1.62657
1.60439
1.58599
1.56567
1.54234
1.52141
1.50421
1.48107
1.45472
1.42694
1.39836
1.37659
1.34904
1.34214
1.56704
3.77901
5.25114
5.3119
5.26288
5.19486
5.12008
5.04162
4.96875
4.91016
4.8683
4.82666
4.77582
4.71418
4.63604
4.53479
4.40707
4.26385
4.13268
5.42249
5.30251
5.18579
5.06406
4.94462
4.82018
4.71244
4.60522
4.49346
4.38732
4.27339
4.17548
4.07939
3.97722
3.88463
3.78587
3.69443
3.61181
3.52158
3.44059
3.36092
3.27658
3.20908
3.13313
3.05973
2.99628
2.91731
2.8611
2.80037
2.73514
2.68249
2.61272
2.56442
2.51341
2.45783
2.41117
2.35031
2.311
2.26795
2.2246
2.18302
2.13477
2.10145
2.06127
2.02449
1.98258
1.9464
1.91814
1.88244
1.84772
1.80396
1.77949
1.75706
1.72935
1.69823
1.66155
1.64507
1.62644
1.60501
1.57697
1.55403
1.53362
1.508
1.48102
1.4499
1.42379
1.41003
1.39391
1.37022
1.38365
2.1744
4.63698
5.30011
5.21912
5.15332
5.09074
5.03065
4.97526
4.92849
4.88861
4.84405
4.78872
4.72125
4.63484
4.52484
4.39142
4.25416
4.14268
5.46562
5.35199
5.23266
5.11436
4.98796
4.87303
4.76669
4.65379
4.54761
4.43288
4.32913
4.23362
4.12952
4.03396
3.93371
3.83717
3.75382
3.66216
3.57659
3.49617
3.40848
3.33782
3.26159
3.18296
3.11846
3.0393
2.97569
2.91699
2.84757
2.79325
2.72639
2.66744
2.61972
2.55934
2.51167
2.45352
2.40266
2.36372
2.31449
2.27476
2.22404
2.18271
2.14612
2.10354
2.06758
2.0226
1.99036
1.95713
1.92074
1.88405
1.84331
1.823
1.79733
1.76803
1.7321
1.70111
1.68671
1.66607
1.64141
1.60836
1.58436
1.56219
1.53641
1.50814
1.47496
1.4586
1.4469
1.43418
1.41201
1.4007
1.4962
3.14831
5.01714
5.1934
5.14137
5.09543
5.04532
4.99715
4.95308
4.91176
4.86318
4.80137
4.72542
4.63078
4.51525
4.38282
4.25882
4.16624
5.51403
5.3969
5.27805
5.1544
5.03475
4.92831
4.81414
4.70448
4.59034
4.48227
4.38803
4.28314
4.18379
4.0838
3.98187
3.89743
3.80485
3.71447
3.6333
3.54238
3.46867
3.39294
3.31085
3.24293
3.16443
3.09339
3.03492
2.96393
2.90406
2.84265
2.77414
2.72628
2.66605
2.61129
2.56058
2.4984
2.45926
2.41018
2.3637
2.31957
2.266
2.23067
2.18747
2.14789
2.10788
2.06472
2.03275
1.99475
1.96104
1.92139
1.88633
1.86594
1.83639
1.80573
1.76708
1.74316
1.72733
1.70335
1.67392
1.63728
1.61401
1.59173
1.56677
1.53534
1.50636
1.49747
1.48563
1.47097
1.45199
1.43549
1.42687
1.81466
4.076
5.13522
5.14425
5.09568
5.04813
5.00643
4.96646
4.9247
4.87187
4.80415
4.72191
4.62268
4.50711
4.38359
4.27716
4.19798
5.5577
5.44015
5.31822
5.19312
5.08593
4.97443
4.86323
4.7506
4.63567
4.54039
4.43689
4.33403
4.23535
4.12837
4.04287
3.95156
3.85638
3.77296
3.67854
3.60014
3.52539
3.44063
3.36897
3.29231
3.21499
3.1551
3.08368
3.01737
2.95932
2.88563
2.83331
2.77517
2.71318
2.66554
2.60043
2.55442
2.50888
2.4551
2.41403
2.35748
2.31499
2.27553
2.22956
2.19298
2.14536
2.10933
2.07269
2.03351
2.00369
1.96075
1.93066
1.90686
1.87502
1.84348
1.80442
1.78508
1.76556
1.73743
1.70301
1.66636
1.64564
1.62413
1.59913
1.56462
1.54425
1.5371
1.52375
1.50713
1.48781
1.47074
1.43797
1.4528
2.44024
4.66732
5.14469
5.09048
5.04883
5.01209
4.9747
4.93206
4.87505
4.80189
4.71381
4.61182
4.50144
4.39354
4.30375
4.23204
5.59967
5.48291
5.35572
5.24272
5.13319
5.01906
4.90809
4.79037
4.69313
4.59265
4.48627
4.38753
4.27568
4.18567
4.09838
4.00088
3.91619
3.82086
3.73552
3.66134
3.57411
3.49638
3.42034
3.3376
3.27613
3.20579
3.13414
3.07616
3.00155
2.94275
2.88611
2.8193
2.76882
2.707
2.6506
2.60757
2.551
2.50578
2.45518
2.40154
2.36457
2.31652
2.27645
2.23306
2.18639
2.15403
2.11145
2.07571
2.04651
2.00297
1.97266
1.94432
1.91458
1.88104
1.84301
1.82517
1.80038
1.76885
1.73066
1.69829
1.68038
1.65898
1.63252
1.59761
1.58432
1.57603
1.5605
1.54089
1.51904
1.49959
1.46451
1.43614
1.57716
3.31154
4.94837
5.11126
5.07253
5.0373
4.99666
4.94562
4.87946
4.79965
4.70686
4.60539
4.50445
4.41239
4.33485
4.2677
5.64279
5.51773
5.39982
5.29135
5.17703
5.06606
4.94652
4.84399
4.74712
4.63977
4.5415
4.43022
4.33046
4.24413
4.1451
4.05726
3.96533
3.8732
3.79993
3.71305
3.62939
3.55341
3.46368
3.39771
3.32857
3.25214
3.19185
3.11894
3.05379
2.99857
2.93011
2.87369
2.81649
2.75078
2.70659
2.65073
2.59784
2.55324
2.49265
2.45333
2.40797
2.36056
2.32307
2.26981
2.23339
2.19537
2.15445
2.11915
2.08708
2.04822
2.01068
1.98076
1.95623
1.91798
1.88182
1.862
1.83257
1.80006
1.76
1.73472
1.71787
1.69523
1.66628
1.63397
1.62431
1.61316
1.59506
1.57169
1.5445
1.52043
1.49049
1.4501
1.45423
1.94025
4.13521
5.08666
5.10318
5.05638
5.00444
4.94138
4.8672
4.78382
4.69427
4.60248
4.51606
4.43825
4.36914
4.30289
5.70092
5.55654
5.44696
5.33708
5.22482
5.10428
4.99181
4.89741
4.79251
4.69298
4.58732
4.48268
4.39635
4.29587
4.19997
4.1077
4.00716
3.93366
3.85153
3.76361
3.68929
3.59746
3.52403
3.4557
3.37504
3.30901
3.23677
3.16423
3.11011
3.04264
2.9799
2.92668
2.85687
2.80798
2.75402
2.69439
2.65023
2.58921
2.54236
2.50063
2.44846
2.41031
2.36028
2.3149
2.27927
2.23507
2.20166
2.15976
2.12754
2.09216
2.04805
2.01937
1.99731
1.95503
1.91879
1.89513
1.86504
1.83302
1.79322
1.77414
1.75603
1.73164
1.69984
1.67239
1.66334
1.64795
1.62651
1.5975
1.56495
1.53846
1.51743
1.48946
1.46769
1.50965
2.59903
4.66023
5.10433
5.05087
4.99608
4.93035
4.85625
4.77496
4.69063
4.60918
4.53555
4.46845
4.40363
4.33644
5.75482
5.60874
5.49084
5.38199
5.26798
5.14935
5.05163
4.94689
4.84158
4.73847
4.63001
4.54466
4.44986
4.35045
4.26039
4.15126
4.06826
3.98822
3.89573
3.81891
3.73107
3.65177
3.5863
3.50456
3.43198
3.36117
3.27848
3.22158
3.15607
3.08734
3.03479
2.96555
2.91116
2.85972
2.79634
2.74844
2.69138
2.6345
2.5941
2.54102
2.4969
2.45326
2.3992
2.36404
2.31966
2.28082
2.24441
2.20124
2.16902
2.13192
2.08936
2.05906
2.03507
1.99245
1.95365
1.92744
1.90069
1.86812
1.83064
1.81412
1.7934
1.76777
1.73365
1.71185
1.70028
1.67999
1.65424
1.61732
1.58428
1.5647
1.54892
1.53189
1.50106
1.50398
1.69111
3.41284
4.89453
5.05103
4.99766
4.93379
4.86426
4.78822
4.70829
4.63024
4.56043
4.49661
4.43292
4.36616
5.74145
5.66226
5.53808
5.42114
5.30485
5.20725
5.108
4.99881
4.89238
4.77377
4.68106
4.59509
4.49608
4.40938
4.30643
4.21276
4.13124
4.03507
3.95052
3.86233
3.77353
3.7116
3.63428
3.55636
3.49025
3.40309
3.33828
3.27368
3.19938
3.14235
3.07392
3.01339
2.96556
2.90198
2.84809
2.79652
2.73215
2.6893
2.63734
2.58599
2.54583
2.48832
2.44901
2.40731
2.36194
2.32874
2.28179
2.24633
2.20829
2.17129
2.13155
2.09914
2.07074
2.02905
1.98853
1.96282
1.93941
1.90514
1.87031
1.85268
1.82961
1.80312
1.76856
1.75019
1.73415
1.70916
1.67764
1.6339
1.6114
1.60013
1.58533
1.56866
1.54189
1.51998
1.52862
2.05203
4.09915
4.99357
5.00835
4.93786
4.86669
4.7937
4.72089
4.64858
4.58139
4.51748
4.45287
4.38603
5.49043
5.6448
5.58725
5.46145
5.34162
5.25951
5.1616
5.05888
4.93966
4.82572
4.73394
4.63233
4.54015
4.44586
4.35221
4.27554
4.18209
4.09204
4.00517
3.90172
3.834
3.76131
3.67808
3.61298
3.53096
3.45922
3.3965
3.31897
3.25557
3.1883
3.11666
3.07022
3.00939
2.94876
2.90058
2.83447
2.7868
2.73687
2.67998
2.63852
2.58203
2.53519
2.49618
2.44696
2.41169
2.36732
2.32531
2.28888
2.24693
2.21263
2.17129
2.13913
2.10572
2.06554
2.02618
2.0023
1.97911
1.94313
1.90963
1.88943
1.86533
1.83754
1.80436
1.78632
1.76486
1.7358
1.69792
1.65767
1.64826
1.63878
1.62231
1.6012
1.57498
1.55391
1.53642
1.58424
2.613
4.5501
4.99138
4.93962
4.86308
4.78971
4.72431
4.66347
4.60278
4.54099
4.47716
4.41088
4.10897
5.40636
5.57696
5.50246
5.37784
5.29327
5.20805
5.11159
4.99796
4.89421
4.78772
4.68185
4.57757
4.47659
4.40593
4.32212
4.23052
4.15257
4.04957
3.96543
3.89178
3.80399
3.7321
3.65276
3.57573
3.51891
3.44335
3.37303
3.31076
3.22883
3.17625
3.11865
3.05206
3.00274
2.93777
2.88446
2.83776
2.77822
2.7322
2.67988
2.62438
2.58588
2.53602
2.49464
2.4552
2.40663
2.3713
2.32712
2.29039
2.25059
2.21177
2.17795
2.14164
2.10337
2.06765
2.0442
2.01823
1.98038
1.94749
1.92525
1.90085
1.87121
1.83977
1.81965
1.79293
1.76143
1.7202
1.69407
1.68914
1.6764
1.65733
1.62964
1.60346
1.59005
1.5649
1.55433
1.73206
3.26823
4.75368
4.94729
4.88105
4.81113
4.74865
4.68928
4.63046
4.5696
4.5066
4.43941
1.87361
4.32173
5.38666
5.54087
5.45042
5.33903
5.24109
5.14633
5.05233
4.9525
4.84487
4.73511
4.61261
4.53156
4.45396
4.36122
4.28531
4.19577
4.10386
4.02811
3.93811
3.85781
3.77875
3.69016
3.63615
3.56778
3.49059
3.43216
3.35153
3.28682
3.23109
3.16094
3.1061
3.0431
2.98165
2.93848
2.8797
2.82719
2.77967
2.71788
2.67681
2.62827
2.57993
2.54299
2.49111
2.45412
2.41191
2.36861
2.33339
2.28695
2.25371
2.21526
2.18089
2.14262
2.1117
2.0855
2.05554
2.01575
1.98448
1.96117
1.93616
1.90454
1.87385
1.85045
1.82034
1.7893
1.75135
1.73665
1.72932
1.71144
1.68901
1.65641
1.63284
1.62226
1.60137
1.56333
1.56759
2.00244
3.86618
4.82452
4.90017
4.84828
4.78571
4.72364
4.66067
4.59677
4.53226
4.4619
1.06561
2.10503
4.42452
5.4198
5.51025
5.41944
5.29506
5.18829
5.09961
5.00146
4.89793
4.7692
4.6641
4.58817
4.49705
4.41525
4.33082
4.23982
4.16537
4.07524
3.98638
3.91131
3.81378
3.75152
3.69169
3.61113
3.54933
3.47614
3.40079
3.34516
3.27423
3.21189
3.15313
3.08148
3.03851
2.98394
2.92458
2.87906
2.81556
2.76881
2.72275
2.66911
2.63084
2.57926
2.53712
2.4989
2.45085
2.4156
2.36863
2.32948
2.2939
2.25441
2.22209
2.18303
2.1552
2.12397
2.09105
2.05022
2.02228
1.99786
1.97156
1.93739
1.90642
1.88
1.84996
1.82173
1.79033
1.77906
1.76636
1.74373
1.717
1.68286
1.66589
1.65152
1.6316
1.59408
1.567
1.60177
2.42954
4.29446
4.8693
4.87377
4.81191
4.75341
4.68775
4.61865
4.54959
4.47336
1.00112
1.10056
2.2744
4.56377
5.42715
5.46292
5.3582
5.24158
5.15152
5.05864
4.94242
4.81258
4.72073
4.62846
4.54227
4.46359
4.37215
4.30309
4.22001
4.12383
4.0435
3.94371
3.86579
3.81324
3.73686
3.66816
3.60168
3.52052
3.46279
3.39252
3.32046
3.26398
3.18642
3.13647
3.0885
3.02535
2.97817
2.91776
2.86275
2.81915
2.76277
2.71886
2.67059
2.62056
2.58573
2.53756
2.49704
2.45588
2.40736
2.37429
2.3321
2.29852
2.2605
2.2254
2.19505
2.16001
2.12499
2.08588
2.06146
2.03491
2.00681
1.96947
1.93868
1.91101
1.88409
1.85767
1.83108
1.81863
1.79905
1.77307
1.74253
1.71272
1.699
1.67993
1.65714
1.62631
1.58668
1.59023
1.71614
2.97666
4.54583
4.88501
4.83707
4.7726
4.70717
4.63635
4.56385
4.48435
1
1.00203
1.13642
2.4361
4.77983
5.38732
5.37432
5.28903
5.20013
5.10778
4.99159
4.87656
4.7674
4.66594
4.58399
4.48827
4.42279
4.36229
4.27045
4.18873
4.09499
3.98847
3.92427
3.85244
3.7792
3.72192
3.64031
3.58088
3.51719
3.43929
3.37969
3.30254
3.23628
3.19204
3.1287
3.07494
3.02114
2.95779
2.91614
2.8613
2.80987
2.76572
2.70742
2.67142
2.62686
2.57937
2.54249
2.48928
2.45406
2.41514
2.37434
2.34199
2.29796
2.26748
2.2308
2.19627
2.15788
2.12501
2.10102
2.07194
2.04129
2.00097
1.97282
1.94574
1.92175
1.89441
1.87025
1.85379
1.82811
1.80101
1.76837
1.74581
1.7312
1.70701
1.68212
1.6522
1.62168
1.60778
1.61506
1.92117
3.49174
4.68369
4.85707
4.79754
4.72695
4.6555
4.58116
4.50162
1
1.00001
1.0032
1.17945
2.69678
4.88147
5.2968
5.32774
5.26348
5.14283
5.03916
4.93257
4.8201
4.72423
4.61583
4.51991
4.47481
4.40541
4.32419
4.24868
4.14642
4.05786
3.97745
3.89267
3.82597
3.7442
3.68223
3.63468
3.56046
3.49714
3.43174
3.34924
3.2992
3.23737
3.17402
3.12358
3.05381
3.01041
2.9624
2.90471
2.86183
2.80195
2.7577
2.7171
2.66486
2.62657
2.5753
2.53225
2.49911
2.45415
2.42154
2.37886
2.34027
2.30656
2.2663
2.23338
2.19216
2.16676
2.13916
2.10872
2.07363
2.03462
2.01023
1.9837
1.96029
1.92978
1.90618
1.88464
1.8558
1.82894
1.79734
1.77961
1.76145
1.73364
1.7083
1.67776
1.66102
1.64858
1.62695
1.64483
2.20951
3.92413
4.76511
4.8323
4.76409
4.67765
4.59671
4.51869
1
1
1.00002
1.00529
1.24694
2.99804
4.79876
5.25763
5.29673
5.20175
5.08682
4.97421
4.87254
4.77691
4.65203
4.58296
4.53122
4.44819
4.37164
4.29203
4.2075
4.12213
4.02967
3.95071
3.86065
3.78007
3.73923
3.67556
3.60613
3.55407
3.47499
3.413
3.35162
3.27993
3.22667
3.15546
3.10076
3.06165
3.00311
2.95703
2.90453
2.84879
2.80912
2.75553
2.71002
2.66363
2.60947
2.57998
2.53805
2.49854
2.46363
2.41594
2.38311
2.34168
2.30541
2.26832
2.23187
2.20833
2.17572
2.1452
2.10405
2.07281
2.04925
2.02246
1.9967
1.96281
1.93924
1.9131
1.88499
1.8581
1.82923
1.81276
1.78954
1.76134
1.73702
1.71007
1.70026
1.68739
1.65797
1.63597
1.70078
2.57516
4.25666
4.79254
4.78323
4.69963
4.61196
4.53529
1
1
1
1.00004
1.00902
1.34117
3.14081
4.73963
5.26907
5.25177
5.14881
5.03061
4.93683
4.82413
4.69854
4.64637
4.58454
4.49961
4.40948
4.32907
4.25708
4.17587
4.0962
4.00713
3.89763
3.84539
3.78831
3.71258
3.66007
3.59286
3.52764
3.46922
3.39347
3.33248
3.26695
3.1929
3.15731
3.10495
3.05087
3.00614
2.94493
2.90245
2.85077
2.79649
2.7538
2.69205
2.65751
2.62328
2.57768
2.54555
2.4979
2.45927
2.42198
2.37827
2.34611
2.30261
2.2757
2.24691
2.2126
2.17998
2.13757
2.11427
2.08759
2.06038
2.02913
1.99441
1.97072
1.94199
1.91683
1.88824
1.86242
1.84447
1.81676
1.79182
1.76848
1.74811
1.73675
1.7187
1.69095
1.64878
1.64926
1.81045
3.00345
4.48085
4.76266
4.7163
4.62986
4.55657
1
1
1
1
1.00008
1.01398
1.41558
3.11944
4.82293
5.25025
5.20924
5.11726
5.00994
4.85833
4.74515
4.69673
4.63254
4.54843
4.46027
4.38141
4.30102
4.22089
4.14506
4.03431
3.96097
3.90471
3.82611
3.76579
3.70301
3.63522
3.5855
3.51385
3.44249
3.38242
3.29584
3.24966
3.20597
3.1456
3.10313
3.04532
2.99657
2.95014
2.89017
2.84426
2.78414
2.73478
2.70649
2.66085
2.62344
2.58356
2.53546
2.50211
2.45696
2.42037
2.38206
2.34279
2.31836
2.28237
2.2508
2.21136
2.1772
2.15487
2.12398
2.09587
2.05773
2.02715
2.00249
1.9739
1.95057
1.9185
1.8953
1.87443
1.84597
1.82504
1.80179
1.78591
1.76945
1.7437
1.71982
1.68118
1.66067
1.67154
1.98284
3.42563
4.55745
4.73198
4.67241
4.58881
1
1
1
1
1
1.00014
1.01835
1.43137
3.11509
4.93959
5.23966
5.19368
5.06577
4.88739
4.79074
4.74358
4.67375
4.58947
4.50871
4.43169
4.35398
4.28011
4.17916
4.08537
4.02441
3.94323
3.87282
3.81563
3.73629
3.69145
3.63515
3.55876
3.49915
3.41598
3.3479
3.30715
3.24611
3.19632
3.14465
3.08648
3.04688
2.98933
2.93606
2.88491
2.81958
2.78886
2.7484
2.70251
2.66773
2.61428
2.57905
2.54003
2.49523
2.46269
2.41624
2.38788
2.35651
2.31899
2.28771
2.24378
2.2197
2.19212
2.15977
2.12839
2.08753
2.06268
2.03575
2.00941
1.9835
1.94823
1.92795
1.90415
1.87875
1.85889
1.83625
1.82072
1.79811
1.76791
1.7458
1.71633
1.69275
1.68211
1.70323
2.20853
3.75342
4.58186
4.70224
4.64363
1
1
1
1
1
1
1.00019
1.01982
1.43775
3.30436
5.02354
5.12687
5.07638
4.96172
4.85906
4.79337
4.7175
4.63347
4.55311
4.47788
4.40799
4.32128
4.21983
4.15234
4.06797
3.9814
3.92517
3.8451
3.78728
3.74975
3.6798
3.61559
3.54569
3.45773
3.40666
3.34788
3.28914
3.24534
3.17773
3.1375
3.09121
3.03147
2.98516
2.9183
2.87329
2.83741
2.78646
2.74898
2.69911
2.65277
2.62185
2.57546
2.54003
2.49944
2.45891
2.43147
2.39131
2.3583
2.31838
2.28111
2.25895
2.22492
2.19465
2.15761
2.12348
2.10066
2.07146
2.04674
2.01279
1.97957
1.96095
1.935
1.9136
1.89136
1.8699
1.85207
1.82317
1.79498
1.7724
1.74602
1.73014
1.70929
1.69592
1.75049
2.48842
4.00092
4.62051
4.68896
1
1
1
1
1
1
1
1.00021
1.02346
1.52286
3.59755
4.82796
5.02228
5.01675
4.94173
4.85131
4.76997
4.68548
4.60231
4.52519
4.44547
4.34939
4.2832
4.20526
4.1044
4.03686
3.96596
3.87815
3.84584
3.79751
3.72888
3.66852
3.58678
3.51708
3.45442
3.38718
3.34082
3.27416
3.22062
3.18739
3.12937
3.07979
3.02611
2.9654
2.92865
2.87777
2.83124
2.78859
2.72802
2.69833
2.65961
2.61584
2.5831
2.53621
2.50627
2.46994
2.42916
2.39618
2.34795
2.32229
2.29386
2.25803
2.22872
2.18846
2.16439
2.13883
2.10942
2.08219
2.03935
2.01469
1.99457
1.96836
1.94851
1.92245
1.90225
1.88025
1.84846
1.82519
1.79969
1.77585
1.76282
1.74219
1.70837
1.7087
1.83292
2.79729
4.21533
4.64739
1
1
1
1
1
1
1
1
1.00032
1.03335
1.6407
3.62193
4.67536
4.98839
4.9938
4.91373
4.82312
4.73611
4.65726
4.57466
4.47479
4.4051
4.34277
4.24014
4.15126
4.09045
3.99453
3.9326
3.90592
3.84732
3.78386
3.71361
3.63831
3.568
3.49465
3.43938
3.37891
3.30726
3.27799
3.23007
3.17099
3.12777
3.06558
3.02157
2.97417
2.91823
2.87668
2.81378
2.7707
2.74229
2.69558
2.66159
2.62012
2.58125
2.55023
2.50578
2.47076
2.42637
2.38533
2.36196
2.32511
2.294
2.26006
2.22636
2.20616
2.17594
2.14776
2.11186
2.07029
2.05209
2.02751
2.00368
1.98112
1.95241
1.93315
1.9067
1.87724
1.85624
1.82747
1.8071
1.7913
1.77131
1.74371
1.71609
1.7226
1.94529
3.11836
4.3528
1
1
1
1
1
1
1
1
1
1.00052
1.04249
1.70461
3.46922
4.68284
5.00535
4.96742
4.88351
4.79986
4.71479
4.60554
4.51432
4.46694
4.38099
4.26935
4.20624
4.13487
4.03544
3.99916
3.96398
3.90176
3.82855
3.75132
3.68103
3.60951
3.54665
3.48815
3.40323
3.36552
3.3315
3.26701
3.2214
3.16837
3.11452
3.07164
3.01278
2.96501
2.91164
2.84811
2.82267
2.78276
2.73995
2.70574
2.65869
2.62834
2.58788
2.54452
2.5078
2.45529
2.42794
2.39705
2.35924
2.33211
2.29224
2.2699
2.24583
2.21291
2.18341
2.13732
2.10852
2.08866
2.06055
2.03958
2.01004
1.98352
1.96389
1.93423
1.90964
1.88624
1.8567
1.8385
1.81892
1.7988
1.78111
1.74854
1.73135
1.74422
2.09552
3.40466
1
1
1
1
1
1
1
1
1
1
1.00069
1.04736
1.66793
3.3119
4.74342
5.01107
4.96615
4.87617
4.75724
4.62514
4.57462
4.52425
4.41193
4.31909
4.25457
4.16394
4.08565
4.06202
4.02264
3.95527
3.87629
3.79852
3.7213
3.64825
3.5897
3.50643
3.44984
3.4264
3.36626
3.30857
3.27029
3.21186
3.16943
3.11469
3.0549
3.00568
2.93429
2.89639
2.8675
2.82004
2.78815
2.74428
2.70523
2.67184
2.62395
2.58577
2.53629
2.49411
2.46815
2.42864
2.39862
2.36557
2.33119
2.3135
2.28209
2.25049
2.2144
2.16974
2.14898
2.12241
2.09575
2.07273
2.03645
2.01628
1.99433
1.96448
1.9428
1.91444
1.88824
1.87019
1.84734
1.82934
1.8127
1.78534
1.75739
1.74323
1.77194
2.28796
1
1
1
1
1
1
1
1
1
1
1
1.00072
1.04287
1.57862
3.26594
4.82594
4.96848
4.9084
4.794
4.67284
4.63675
4.56017
4.44311
4.37907
4.30984
4.20982
4.14724
4.1174
4.06727
3.99043
3.91191
3.84205
3.77275
3.71053
3.62675
3.54563
3.52198
3.47256
3.39736
3.35705
3.30272
3.25695
3.2174
3.15703
3.10476
3.03716
2.9765
2.95001
2.90618
2.86642
2.83163
2.78236
2.75298
2.71005
2.66368
2.62168
2.5668
2.5374
2.50273
2.46439
2.43818
2.3956
2.37423
2.35201
2.31613
2.2859
2.24213
2.21023
2.18668
2.15515
2.13219
2.09953
2.06648
2.05054
2.02394
1.99689
1.97445
1.94307
1.92194
1.90156
1.87886
1.86237
1.83782
1.81172
1.79016
1.7635
1.76002
1.83033
1
1
1
1
1
1
1
1
1
1
1
1
1.00059
1.03524
1.54669
3.45385
4.73244
4.86928
4.84076
4.75922
4.69464
4.57688
4.47086
4.41145
4.3486
4.2659
4.22084
4.19029
4.12502
4.03739
3.95041
3.86667
3.80088
3.73989
3.65276
3.61694
3.58405
3.50514
3.44914
3.40103
3.33624
3.30495
3.25766
3.20145
3.14518
3.07094
3.03306
2.99429
2.94612
2.91592
2.86542
2.82788
2.79571
2.74501
2.70379
2.65226
2.60896
2.57831
2.53623
2.50666
2.46967
2.43238
2.41701
2.38537
2.35126
2.31821
2.27642
2.25138
2.22045
2.19068
2.16538
2.12274
2.10217
2.0841
2.05329
2.03032
2.0035
1.97568
1.95655
1.93293
1.91226
1.8925
1.85839
1.83636
1.82241
1.80076
1.77676
1.77392
1
1
1
1
1
1
1
1
1
1
1
1
1
1.00049
1.03756
1.61784
3.56462
4.50429
4.80895
4.82959
4.73708
4.60415
4.54049
4.4871
4.39697
4.31401
4.2813
4.24643
4.1659
4.07439
3.98977
3.91632
3.85043
3.76296
3.70513
3.68718
3.6209
3.54202
3.5045
3.43601
3.38693
3.3544
3.30079
3.24586
3.1759
3.12111
3.08176
3.03261
2.99919
2.95704
2.89927
2.87533
2.83247
2.78236
2.73904
2.68589
2.65253
2.61388
2.57558
2.54677
2.49775
2.47601
2.45499
2.41688
2.38709
2.34878
2.31654
2.28865
2.25319
2.22704
2.19017
2.1529
2.13946
2.1141
2.08439
2.06293
2.03254
2.01163
1.99018
1.96493
1.94417
1.91408
1.87905
1.8665
1.8533
1.83626
1.81451
1.78584
1
1
1
1
1
1
1
1
1
1
1
1
1
1
1.0007
1.04358
1.7385
3.36968
4.47934
4.82271
4.79788
4.69744
4.62608
4.55663
4.46037
4.3832
4.33506
4.2706
4.18292
4.09913
4.03276
3.97356
3.89098
3.80936
3.78745
3.74328
3.64715
3.5907
3.53948
3.46755
3.4385
3.40316
3.35136
3.28655
3.2209
3.17163
3.11873
3.07583
3.04637
2.98359
2.94952
2.92098
2.86573
2.82217
2.7746
2.7303
2.69448
2.65056
2.61861
2.57445
2.53323
2.51868
2.48684
2.45149
2.42256
2.3856
2.35814
2.32328
2.28949
2.25916
2.2116
2.19085
2.17407
2.14155
2.11837
2.09321
2.06689
2.0485
2.02244
1.9968
1.97039
1.92968
1.90891
1.89945
1.884
1.86933
1.85296
1.81799
1
1
1
1
4.00339
3.88908
3.78225
3.67482
3.5617
3.43362
3.29373
3.15107
3.02105
2.92262
2.84041
2.76804
2.6966
2.61538
2.52495
2.42285
2.30497
2.17807
2.07689
2.0139
1.96331
1.91914
1.87875
1.83818
1.79707
1.75196
1.68556
1.59974
1.51971
1.46558
4.0194
3.8992
3.78941
3.68034
3.57036
3.45471
3.32555
3.18584
3.06629
2.97675
2.89899
2.82885
2.75632
2.67263
2.57745
2.47035
2.34963
2.22607
2.13756
2.08154
2.03377
1.99184
1.95205
1.9094
1.86167
1.80271
1.72003
1.62717
1.55518
1.51252
4.02127
3.90259
3.79779
3.69552
3.59175
3.48364
3.36426
3.23402
3.12225
3.03514
2.95491
2.87827
2.80165
2.71673
2.61986
2.511
2.38899
2.27271
2.19726
2.14573
2.10147
2.06023
2.01714
1.96909
1.91437
1.84496
1.75189
1.65922
1.5971
1.56762
4.01657
3.90728
3.81209
3.719
3.62214
3.51926
3.40685
3.28643
3.17942
3.09097
3.00581
2.92161
2.84005
2.75337
2.65669
2.54671
2.4257
2.32281
2.25808
2.20917
2.1651
2.12153
2.07457
2.02269
1.96204
1.88244
1.78152
1.69292
1.64925
1.62589
4.01697
3.92008
3.83459
3.75082
3.66087
3.56281
3.45589
3.34165
3.23274
3.13796
3.04905
2.96073
2.8738
2.7867
2.69256
2.58258
2.46592
2.37578
2.31769
2.27111
2.2246
2.17591
2.12682
2.07311
2.00556
1.91465
1.80813
1.73846
1.70843
1.68637
4.0299
3.94397
3.86564
3.7886
3.70488
3.61079
3.50462
3.38708
3.27109
3.16963
3.07804
2.99172
2.90539
2.81652
2.72372
2.62023
2.51381
2.42985
2.37431
2.32975
2.28035
2.22767
2.17742
2.11996
2.04404
1.9428
1.84144
1.7973
1.76994
1.74509
4.05642
3.97847
3.9044
3.83081
3.75039
3.65741
3.54723
3.41909
3.29494
3.1941
3.1057
3.02315
2.94085
2.85438
2.76305
2.66647
2.57066
2.48699
2.43196
2.3866
2.33297
2.27836
2.22661
2.1624
2.07936
1.97232
1.89129
1.86115
1.82881
1.79772
4.09124
4.01872
3.94686
3.87379
3.79295
3.69651
3.57592
3.43594
3.31259
3.21942
3.13727
3.05891
2.98109
2.89862
2.80999
2.71981
2.63078
2.5461
2.48761
2.43607
2.37852
2.32257
2.26824
2.19947
2.11401
2.00904
1.95091
1.9203
1.8819
1.84613
4.12952
4.06101
3.99033
3.91546
3.83006
3.72466
3.5907
3.4461
3.33307
3.2515
3.17639
3.10159
3.02794
2.94975
2.86496
2.77981
2.69246
2.60568
2.53983
2.4812
2.4188
2.36083
2.30417
2.23511
2.15124
2.05902
2.01074
1.97388
1.93113
1.89336
4.16691
4.10051
4.02951
3.95105
3.85866
3.74112
3.59629
3.45784
3.36039
3.28997
3.22128
3.14988
3.08006
3.00498
2.92331
2.83999
2.74928
2.65808
2.58523
2.52049
2.45371
2.39473
2.33752
2.27178
2.19279
2.11683
2.06716
2.0234
1.97635
1.93884
4.20281
4.13524
4.06216
3.9796
3.87873
3.749
3.60215
3.47839
3.39504
3.33219
3.26924
3.20309
3.13688
3.06366
2.98101
2.89145
2.79272
2.69628
2.624
2.56017
2.49118
2.43099
2.37447
2.31138
2.24069
2.17786
2.12467
2.07256
2.0185
1.98064
4.23444
4.16264
4.08537
3.99627
3.88542
3.74991
3.61466
3.51077
3.4385
3.37872
3.31876
3.25802
3.19467
3.12176
3.03393
2.93255
2.82513
2.72605
2.65973
2.60108
2.53231
2.47285
2.41793
2.35684
2.29307
2.23761
2.18255
2.1228
2.06028
2.02032
4.26508
4.1889
4.10445
4.00439
3.8828
3.75051
3.63785
3.55645
3.49283
3.43139
3.37023
3.31139
3.24782
3.17285
3.07779
2.9647
2.85373
2.756
2.69532
2.643
2.57774
2.51941
2.4679
2.40818
2.34826
2.29457
2.23777
2.17002
2.10117
2.06013
4.29438
4.21474
4.12173
4.01007
3.88172
3.76124
3.67303
3.61059
3.5522
3.48913
3.42519
3.36302
3.29297
3.20933
3.10559
2.98905
2.88305
2.79318
2.73654
2.68669
2.62592
2.57129
2.52354
2.46564
2.40362
2.34486
2.28177
2.20764
2.14214
2.1021
4.31503
4.23413
4.13759
4.02039
3.89316
3.79065
3.72135
3.66546
3.60798
3.54466
3.48032
3.41156
3.33005
3.23265
3.11953
3.00886
2.91606
2.83913
2.78398
2.73261
2.67579
2.62775
2.58147
2.52445
2.45925
2.38805
2.31142
2.23259
2.18103
2.14585
4.33804
4.25389
4.15365
4.03433
3.91969
3.83897
3.77688
3.71744
3.65608
3.59207
3.5265
3.44931
3.35884
3.25079
3.13115
3.02971
2.95264
2.89112
2.83583
2.78073
2.72913
2.68714
2.63959
2.58216
2.51313
2.42575
2.33002
2.2561
2.21862
2.18787
4.36304
4.2746
4.16892
4.05032
3.955
3.88793
3.82758
3.76617
3.70009
3.63311
3.56039
3.47578
3.37962
3.26745
3.15216
3.06032
2.99569
2.94418
2.89173
2.8351
2.78732
2.74489
2.69439
2.63314
2.55507
2.45416
2.35147
2.29113
2.25844
2.2276
4.38102
4.28798
4.18115
4.0751
3.99438
3.92992
3.86962
3.80751
3.74133
3.67084
3.59011
3.4992
3.39396
3.28306
3.18331
3.10324
3.04631
2.99957
2.94928
2.89613
2.84883
2.79994
2.74427
2.67157
2.57781
2.47459
2.38534
2.33667
2.30603
2.27177
4.38628
4.29067
4.19301
4.10916
4.04027
3.97444
3.90778
3.8425
3.77829
3.70525
3.62262
3.52691
3.41219
3.30391
3.22093
3.15559
3.10322
3.0558
3.00755
2.95929
2.90847
2.85222
2.78828
2.69524
2.58219
2.49593
2.43105
2.38862
2.35843
2.32148
4.39407
4.29722
4.21162
4.14831
4.0903
4.02593
3.9526
3.87971
3.80884
3.73272
3.65261
3.55707
3.44291
3.33962
3.26376
3.20679
3.15799
3.11099
3.06592
3.01796
2.96247
2.90117
2.82281
2.70153
2.58818
2.52671
2.47896
2.44042
2.41361
2.37792
4.4147
4.32417
4.24806
4.1885
4.13306
4.07241
4.00134
3.92496
3.84291
3.75537
3.66929
3.5799
3.48174
3.391
3.31495
3.25936
3.21051
3.16278
3.1185
3.06876
3.00873
2.93952
2.8403
2.70528
2.61226
2.56726
2.52532
2.4934
2.47046
2.43611
4.44064
4.36491
4.29673
4.23292
4.171
4.10847
4.04196
3.96678
3.87745
3.77808
3.68101
3.59668
3.51976
3.44649
3.3766
3.31584
3.25777
3.20691
3.1625
3.11042
3.04718
2.96577
2.84498
2.72184
2.65712
2.61518
2.57567
2.54986
2.5273
2.49381
4.46702
4.40431
4.34295
4.2796
4.211
4.13949
4.06899
3.99308
3.90601
3.80523
3.70204
3.6203
3.55433
3.49401
3.43532
3.37288
3.30763
3.25029
3.20011
3.14281
3.07345
2.9767
2.85222
2.76097
2.71193
2.66764
2.63395
2.61134
2.58366
2.55024
4.49637
4.43884
4.38165
4.32089
4.25212
4.17245
4.08984
4.00793
3.92389
3.83077
3.73943
3.66006
3.59044
3.53493
3.48316
3.42412
3.3587
3.29756
3.23715
3.17068
3.08898
2.97851
2.87409
2.81577
2.77058
2.72731
2.7002
2.6727
2.63827