/*--------------------------------*- C++ -*----------------------------------*\
  =========                 |
  \\      /  F ield         | OpenFOAM: The Open Source CFD Toolbox
   \\    /   O peration     | Website:  https://openfoam.org
    \\  /    A nd           | Version:  7
     \\/     M anipulation  |
\*---------------------------------------------------------------------------*/
FoamFile
{
    version     2.0;
    format      ascii;
    class       volScalarField;
    location    "3.9";
    object      rho;
}
// * * * * * * * * * * * * * * * * * * * * * * * * * * * * * * * * * * * * * //

dimensions      [1 -3 0 0 0 0 0];

internalField   nonuniform List<scalar> 
16512
(
2.56165
2.54715
2.51565
2.46626
2.42132
2.40283
2.39403
2.38656
2.38008
2.3745
2.36916
2.36251
2.35426
2.34403
2.32669
2.28841
2.24
2.22235
2.21731
2.21426
2.21263
2.20848
2.20293
2.19606
2.18766
2.17386
2.14183
2.10113
2.08572
2.07821
2.07154
2.06727
2.06288
2.05596
2.04605
2.03074
2.00391
1.97195
1.96081
1.95719
1.95166
1.94693
1.94361
1.93925
1.93342
1.9245
1.90467
1.87686
1.86075
1.85532
1.85136
1.84571
1.83877
1.83192
1.82455
1.81369
1.792
1.76634
1.76064
1.75657
1.75073
1.74525
1.74007
1.734
1.72763
1.72124
1.7127
1.69697
1.67191
1.66171
1.6594
1.65674
1.6536
1.6492
1.64386
1.63744
1.62887
1.61498
1.59333
1.56919
1.55835
1.55716
1.55901
1.56904
1.57749
1.57591
1.57126
1.56294
1.54718
1.51603
1.47653
1.45649
1.45324
1.45334
1.46223
1.48609
1.50818
1.51055
1.50646
1.49959
1.48566
1.45558
1.40622
1.37591
1.36921
1.36856
1.37148
1.38708
1.41598
1.43371
1.43335
1.42951
1.42226
1.40657
1.37462
1.33397
1.31612
1.3129
1.31271
1.31866
1.33683
1.35489
1.35762
1.3553
1.34946
1.33398
1.30449
1.27839
1.27133
1.27043
1.27212
1.28318
1.29594
1.29709
1.29486
1.29005
1.27593
1.24946
1.22862
1.22443
1.22374
1.22636
1.2383
1.24934
1.24934
1.2468
1.24153
1.22754
1.20184
1.18109
1.17643
1.17566
1.17687
1.18643
1.19999
1.20291
1.20434
1.20914
1.26
1.48309
1.79308
2.02367
2.03956
2.06284
2.09056
2.12291
2.12829
2.11668
2.10468
2.0844
2.0721
2.14032
2.28395
2.42677
2.50989
2.51994
2.51503
2.49384
2.46372
2.45019
2.44555
2.44847
2.45604
2.45287
2.44437
2.42978
2.41715
2.41193
2.40997
2.41614
2.42286
2.41845
2.40952
2.39408
2.3778
2.37003
2.36523
2.36417
2.36783
2.36613
2.3597
2.34966
2.33575
2.32668
2.32182
2.31896
2.32146
2.32859
2.32697
2.32047
2.30888
2.29096
2.27875
2.27394
2.27089
2.27219
2.28031
2.28199
2.27676
2.26812
2.25403
2.24124
2.23623
2.23311
2.2325
2.23719
2.23886
2.23442
2.22796
2.21935
2.21207
2.20731
2.20276
2.19793
2.19273
2.18673
2.1797
2.17401
2.17014
2.16662
2.16263
2.1578
2.15234
2.14608
2.13937
2.13443
2.13078
2.12753
2.12405
2.12122
2.119
2.11651
2.11731
2.12672
2.17276
2.29395
2.51249
2.76972
2.58522
2.55637
2.50902
2.4564
2.43128
2.42316
2.41592
2.40964
2.40443
2.39962
2.39377
2.38622
2.37681
2.36278
2.33215
2.28228
2.25028
2.24389
2.23987
2.23876
2.23736
2.23244
2.22627
2.21866
2.20774
2.18364
2.13972
2.10981
2.10317
2.09637
2.08912
2.08365
2.07797
2.07036
2.05871
2.03822
2.00582
1.98594
1.98204
1.97858
1.97418
1.97011
1.96643
1.96184
1.95413
1.93661
1.90667
1.88232
1.87378
1.86975
1.86592
1.86039
1.85344
1.84605
1.83777
1.82579
1.80377
1.78214
1.77618
1.77142
1.76539
1.75961
1.75399
1.74784
1.74099
1.73326
1.72368
1.70851
1.69024
1.68165
1.67692
1.67203
1.66679
1.66116
1.65473
1.64661
1.63468
1.61633
1.59436
1.58276
1.58112
1.58212
1.58957
1.59554
1.59303
1.58772
1.57885
1.56388
1.5362
1.49942
1.47812
1.47434
1.47433
1.48255
1.50497
1.52523
1.52709
1.52301
1.51647
1.50347
1.47585
1.42742
1.39373
1.38533
1.38469
1.38741
1.40248
1.43152
1.45066
1.45076
1.44692
1.4399
1.4248
1.39334
1.35097
1.33101
1.32731
1.32692
1.33227
1.3504
1.37009
1.37388
1.37159
1.36621
1.3519
1.32303
1.29328
1.28382
1.28272
1.28384
1.29418
1.30977
1.31307
1.31097
1.30657
1.29392
1.26793
1.24264
1.23584
1.2351
1.23678
1.2478
1.26242
1.26469
1.26239
1.25768
1.24498
1.21938
1.19412
1.18699
1.18611
1.18659
1.1946
1.21059
1.2157
1.21765
1.22545
1.28595
1.53964
1.88878
2.02973
2.06179
2.07026
2.10528
2.1402
2.15127
2.14303
2.12502
2.10006
2.08071
2.12174
2.25335
2.40408
2.51632
2.54567
2.54222
2.52526
2.49495
2.47488
2.46938
2.47067
2.48048
2.47986
2.47134
2.45643
2.43907
2.43163
2.42827
2.43149
2.44152
2.44091
2.43378
2.42096
2.40369
2.39391
2.38885
2.38696
2.39061
2.39046
2.38405
2.37385
2.35855
2.3465
2.34108
2.33749
2.33834
2.34626
2.34778
2.34223
2.3322
2.31489
2.29919
2.29318
2.28955
2.28958
2.29771
2.30357
2.29982
2.29242
2.27878
2.26189
2.25399
2.25009
2.248
2.25098
2.25643
2.25387
2.2484
2.24069
2.23197
2.22613
2.2214
2.21645
2.2111
2.20504
2.19783
2.19125
2.18725
2.18403
2.18068
2.17645
2.17147
2.16522
2.15715
2.15027
2.14615
2.14278
2.14014
2.13787
2.13437
2.13
2.12548
2.12044
2.11821
2.11555
2.11858
2.13843
2.21195
2.59439
2.54987
2.494
2.462
2.45317
2.44613
2.4395
2.43433
2.4302
2.42513
2.41815
2.40955
2.39765
2.37329
2.32684
2.28292
2.27163
2.26661
2.26447
2.26422
2.26123
2.25553
2.24851
2.23938
2.22172
2.18326
2.13872
2.12509
2.11982
2.11333
2.10553
2.09902
2.09226
2.08379
2.07051
2.04482
2.01543
2.008
2.0045
2.00187
1.99757
1.99282
1.98773
1.98099
1.966
1.93745
1.90777
1.89377
1.88896
1.88576
1.882
1.87656
1.87004
1.86274
1.85399
1.84021
1.81565
1.79519
1.78964
1.7852
1.77964
1.77413
1.76864
1.76269
1.75596
1.74822
1.73876
1.72612
1.7102
1.6968
1.6897
1.68409
1.67847
1.67235
1.66482
1.65432
1.63864
1.61901
1.60797
1.60609
1.60649
1.61153
1.61474
1.61156
1.60472
1.59413
1.57935
1.55498
1.52242
1.50054
1.49615
1.49627
1.50388
1.52461
1.54244
1.54315
1.53892
1.53284
1.52112
1.49638
1.45016
1.41333
1.40265
1.40184
1.40412
1.41834
1.44685
1.46679
1.46736
1.46357
1.45694
1.44283
1.41278
1.36917
1.34661
1.34226
1.34174
1.34645
1.36421
1.38539
1.39032
1.38799
1.38285
1.36952
1.34177
1.30912
1.29673
1.2953
1.29588
1.30507
1.32274
1.32892
1.32703
1.32291
1.31168
1.28683
1.25778
1.24764
1.24667
1.24762
1.25714
1.27418
1.27987
1.27798
1.27378
1.26257
1.23786
1.20853
1.19804
1.19687
1.1968
1.20295
1.21974
1.22915
1.23104
1.24401
1.32182
1.58246
1.96046
2.06325
2.0901
2.09792
2.12702
2.16525
2.17513
2.17105
2.15154
2.11196
2.07822
2.09725
2.20416
2.36729
2.51575
2.56927
2.57006
2.5562
2.52633
2.49976
2.49189
2.49091
2.50152
2.50703
2.50046
2.48731
2.46724
2.45482
2.44977
2.44934
2.45808
2.46203
2.45671
2.44572
2.42853
2.41649
2.41115
2.40867
2.4125
2.41632
2.41113
2.40134
2.38505
2.36838
2.36106
2.35662
2.35554
2.36231
2.36737
2.3628
2.35378
2.33784
2.31947
2.31164
2.30769
2.30651
2.31317
2.32261
2.32088
2.31463
2.30355
2.28652
2.27472
2.27003
2.26687
2.26703
2.27275
2.27289
2.26793
2.26109
2.25217
2.24515
2.24046
2.23577
2.23058
2.2245
2.21691
2.20886
2.20378
2.20028
2.19734
2.19407
2.18987
2.18459
2.17746
2.16872
2.16211
2.15797
2.15456
2.15192
2.1492
2.14574
2.14178
2.13675
2.13048
2.12505
2.12221
2.12031
2.11893
2.11859
2.58723
2.53194
2.4953
2.4839
2.47739
2.47041
2.46481
2.46095
2.45688
2.45041
2.44238
2.43198
2.41263
2.37178
2.31986
2.29905
2.29386
2.29073
2.29072
2.28862
2.28388
2.2775
2.26917
2.25594
2.22565
2.17595
2.14779
2.14146
2.13699
2.13081
2.12262
2.11526
2.10761
2.098
2.08323
2.05602
2.03571
2.0304
2.02729
2.02476
2.01931
2.01323
2.00611
1.99387
1.96767
1.93535
1.91685
1.91008
1.90597
1.90346
1.89955
1.89431
1.88834
1.8813
1.87144
1.85118
1.8213
1.80741
1.80359
1.79956
1.79439
1.78973
1.78493
1.77971
1.77389
1.76736
1.75892
1.74385
1.72148
1.70757
1.70103
1.69551
1.6896
1.68269
1.6736
1.66013
1.64287
1.63331
1.63167
1.63226
1.63523
1.63488
1.63061
1.62192
1.60944
1.59425
1.57243
1.54465
1.5236
1.51842
1.51855
1.52541
1.54408
1.55953
1.55927
1.55473
1.54876
1.53812
1.51663
1.47427
1.43475
1.42142
1.42022
1.42193
1.435
1.46231
1.48203
1.48292
1.47925
1.47314
1.46035
1.43276
1.38874
1.36313
1.3578
1.35721
1.36124
1.37841
1.40066
1.4067
1.40441
1.3994
1.38701
1.36052
1.32577
1.3102
1.30819
1.30834
1.31622
1.33473
1.34433
1.34298
1.33908
1.32906
1.30591
1.27413
1.26001
1.25853
1.25887
1.26669
1.28466
1.29445
1.29332
1.2896
1.27985
1.25702
1.22448
1.20977
1.20801
1.20756
1.212
1.228
1.24234
1.24478
1.26442
1.37909
1.64774
1.99401
2.10997
2.11851
2.12852
2.15283
2.18886
2.19851
2.1925
2.17834
2.14595
2.0982
2.09449
2.16425
2.32151
2.49333
2.58656
2.59378
2.58441
2.5552
2.52409
2.51432
2.51197
2.52145
2.53165
2.52728
2.51676
2.49797
2.4809
2.4742
2.47134
2.47703
2.48357
2.47906
2.46927
2.45215
2.43688
2.43114
2.42814
2.43146
2.43943
2.43688
2.42888
2.41412
2.39436
2.3835
2.37835
2.37573
2.37984
2.38737
2.38437
2.37675
2.36182
2.34078
2.32962
2.32509
2.32281
2.32725
2.33886
2.34093
2.33589
2.32683
2.31033
2.29525
2.28939
2.28567
2.28452
2.28902
2.29229
2.28825
2.28175
2.2727
2.26413
2.25921
2.25486
2.25017
2.24476
2.23777
2.22877
2.22134
2.21705
2.21378
2.21088
2.20719
2.20261
2.19685
2.18916
2.18098
2.17526
2.17091
2.16731
2.16408
2.16036
2.15618
2.15159
2.14627
2.14099
2.13733
2.13446
2.13111
2.12774
2.12462
2.56835
2.53021
2.51548
2.50953
2.50236
2.49624
2.49209
2.489
2.48335
2.47569
2.46627
2.45042
2.41502
2.36007
2.32748
2.32106
2.31716
2.31678
2.31621
2.31162
2.30586
2.29858
2.28775
2.26448
2.219
2.17605
2.1646
2.15916
2.1562
2.15057
2.14239
2.13433
2.12607
2.11539
2.0994
2.07444
2.05701
2.05129
2.04839
2.04508
2.0387
2.03102
2.02046
1.99862
1.96407
1.94139
1.93413
1.92835
1.9248
1.92263
1.91832
1.91307
1.90714
1.89916
1.88329
1.85265
1.82772
1.82162
1.81891
1.81529
1.81077
1.80727
1.80351
1.79924
1.79448
1.78817
1.77483
1.74845
1.72665
1.71807
1.71253
1.70691
1.70049
1.6923
1.68106
1.6672
1.65933
1.65777
1.65845
1.66002
1.65732
1.65018
1.638
1.62435
1.60939
1.58991
1.56634
1.54676
1.54114
1.54108
1.54697
1.56311
1.57585
1.57514
1.57068
1.56483
1.55491
1.53615
1.49855
1.45777
1.44154
1.43995
1.44112
1.45283
1.47831
1.49665
1.49744
1.49394
1.48849
1.47726
1.45279
1.40997
1.38091
1.37409
1.37343
1.37674
1.39294
1.4157
1.42284
1.42063
1.4158
1.40442
1.37946
1.34307
1.32458
1.32169
1.32143
1.32791
1.3463
1.35902
1.35844
1.35502
1.34625
1.32508
1.2917
1.27327
1.27077
1.27062
1.27669
1.29433
1.30808
1.30821
1.30508
1.29678
1.27627
1.24212
1.22255
1.21956
1.21885
1.22184
1.23632
1.25483
1.2601
1.28423
1.43048
1.74538
2.03598
2.14601
2.12791
2.13825
2.16729
2.20656
2.21899
2.21091
2.19798
2.17341
2.13189
2.11458
2.15403
2.28566
2.46189
2.59434
2.61616
2.61011
2.58504
2.54935
2.5343
2.53094
2.53906
2.55355
2.55237
2.54335
2.52577
2.50597
2.49758
2.49379
2.49753
2.50714
2.505
2.49635
2.47845
2.45751
2.44912
2.44515
2.4463
2.45661
2.46005
2.45426
2.44264
2.42269
2.40676
2.40043
2.39655
2.39802
2.4066
2.40657
2.39953
2.38661
2.36552
2.34944
2.34398
2.34073
2.34263
2.35379
2.35956
2.35533
2.34703
2.33277
2.31572
2.30787
2.30402
2.30217
2.30539
2.31093
2.30811
2.30204
2.29333
2.28349
2.27772
2.27357
2.26931
2.26446
2.25851
2.25041
2.24103
2.23493
2.23104
2.22784
2.22436
2.22004
2.21489
2.2083
2.20031
2.19358
2.18883
2.18489
2.18114
2.17691
2.17223
2.16707
2.16091
2.15494
2.15132
2.14821
2.14574
2.14371
2.14018
2.13588
2.56578
2.54797
2.54226
2.53535
2.52881
2.52405
2.52134
2.51695
2.50974
2.50101
2.4873
2.45618
2.40246
2.35883
2.34806
2.34351
2.34239
2.34332
2.33982
2.33421
2.32748
2.31853
2.30105
2.2622
2.21059
2.18902
2.18369
2.1796
2.17818
2.17317
2.16543
2.15736
2.14915
2.13771
2.11774
2.09201
2.07639
2.07032
2.06703
2.06287
2.05573
2.04575
2.02911
1.99769
1.96653
1.9586
1.95337
1.94807
1.94531
1.94247
1.93749
1.93168
1.92466
1.91262
1.88572
1.85322
1.84105
1.83783
1.83606
1.83322
1.82964
1.82714
1.82401
1.82
1.8149
1.80359
1.77768
1.74766
1.73442
1.72948
1.72438
1.71845
1.71148
1.70229
1.69162
1.68592
1.68467
1.68501
1.6844
1.68072
1.67084
1.65465
1.63861
1.62414
1.60822
1.5887
1.57032
1.56446
1.56387
1.5683
1.58186
1.59179
1.59043
1.5864
1.58111
1.57212
1.55537
1.52236
1.48215
1.46259
1.46048
1.46137
1.47197
1.4952
1.51117
1.51121
1.50788
1.50317
1.49366
1.4727
1.4325
1.40002
1.3912
1.39041
1.39309
1.40802
1.43054
1.43846
1.43637
1.43184
1.42147
1.39836
1.36162
1.34007
1.33596
1.33545
1.34057
1.35815
1.37316
1.37362
1.37044
1.36281
1.34409
1.31058
1.28763
1.28338
1.28299
1.28737
1.30381
1.32064
1.32257
1.31996
1.31309
1.29511
1.26107
1.23625
1.23132
1.23053
1.23225
1.24475
1.26649
1.2768
1.30755
1.47282
1.83165
2.11245
2.16005
2.14105
2.13502
2.16758
2.21983
2.24186
2.2376
2.2228
2.19606
2.15663
2.12984
2.14958
2.25307
2.42717
2.59374
2.64211
2.64044
2.61697
2.57779
2.55767
2.55287
2.55789
2.5739
2.57656
2.56875
2.55251
2.53049
2.51975
2.51557
2.51799
2.52987
2.53143
2.52375
2.50858
2.48502
2.47079
2.46574
2.46415
2.47159
2.47957
2.47574
2.46697
2.45047
2.43169
2.42341
2.41897
2.41846
2.42598
2.42898
2.42319
2.41233
2.39197
2.3719
2.36445
2.36031
2.36009
2.36946
2.37876
2.37599
2.36924
2.35594
2.33604
2.32571
2.32145
2.31881
2.32054
2.32759
2.32744
2.32219
2.31411
2.30302
2.29569
2.29151
2.28766
2.28333
2.27826
2.27181
2.26281
2.25418
2.24929
2.24564
2.24208
2.23785
2.23299
2.22709
2.21939
2.21181
2.20696
2.203
2.19928
2.19519
2.19066
2.18549
2.17889
2.17118
2.16554
2.16198
2.15921
2.15716
2.15449
2.15063
2.14631
2.58157
2.57549
2.56926
2.56262
2.55734
2.5543
2.55109
2.54449
2.53635
2.52396
2.49598
2.44493
2.39272
2.37523
2.37026
2.36805
2.36995
2.36816
2.36294
2.35677
2.34886
2.33562
2.30438
2.25074
2.21575
2.20901
2.2049
2.20338
2.20301
2.19834
2.19119
2.18359
2.17494
2.15941
2.12816
2.1059
2.09521
2.08825
2.0839
2.0788
2.07062
2.05726
2.03253
1.99771
1.98195
1.9784
1.97331
1.96924
1.96638
1.96184
1.95607
1.94912
1.93908
1.91772
1.88407
1.8627
1.85867
1.85645
1.85589
1.8535
1.85042
1.84809
1.84439
1.83944
1.83017
1.80682
1.77215
1.75179
1.74606
1.74155
1.73653
1.73065
1.72407
1.71719
1.71279
1.71118
1.71147
1.70989
1.70438
1.69091
1.6718
1.65368
1.63971
1.62658
1.6103
1.59364
1.58805
1.5872
1.59019
1.60054
1.60773
1.60589
1.602
1.59719
1.5894
1.57451
1.54585
1.50715
1.48507
1.48186
1.48217
1.49128
1.5123
1.52567
1.52479
1.52151
1.51736
1.50947
1.492
1.45606
1.42094
1.40925
1.40826
1.41028
1.4237
1.44541
1.45361
1.45156
1.44725
1.43794
1.41714
1.38094
1.35649
1.35104
1.35039
1.35434
1.37077
1.38723
1.38856
1.3855
1.37888
1.36261
1.33058
1.30328
1.29659
1.29603
1.29893
1.31363
1.33248
1.3364
1.33411
1.32838
1.31311
1.28082
1.25106
1.2434
1.24248
1.24317
1.25311
1.27682
1.29404
1.33977
1.52454
1.90115
2.18227
2.1786
2.18076
2.17397
2.19133
2.24029
2.26757
2.26628
2.25243
2.22271
2.17181
2.13954
2.14866
2.22541
2.39172
2.57935
2.66783
2.6711
2.65336
2.61225
2.58213
2.57505
2.57731
2.59402
2.6013
2.59456
2.57978
2.55593
2.54075
2.53574
2.5363
2.54852
2.55609
2.55074
2.53807
2.51458
2.4948
2.4881
2.48482
2.48892
2.49889
2.49774
2.49042
2.47589
2.45563
2.44514
2.44042
2.43885
2.44495
2.45103
2.44661
2.43663
2.4181
2.39613
2.38598
2.38152
2.38001
2.38717
2.39876
2.39783
2.39107
2.37889
2.35993
2.3452
2.34011
2.3369
2.33707
2.34367
2.34591
2.34127
2.33395
2.32328
2.31377
2.3089
2.30512
2.30145
2.29683
2.29135
2.28411
2.27486
2.26811
2.2639
2.26012
2.25596
2.25119
2.2456
2.23839
2.23011
2.22459
2.22065
2.21708
2.2134
2.2092
2.20442
2.19858
2.19075
2.18255
2.17764
2.17431
2.1717
2.16902
2.16545
2.16133
2.1562
2.60884
2.60346
2.59735
2.59201
2.58855
2.58585
2.57999
2.5722
2.56053
2.53428
2.48598
2.42806
2.40353
2.39759
2.39432
2.39617
2.39707
2.39218
2.38643
2.37935
2.3686
2.3438
2.29483
2.24815
2.23553
2.23107
2.22952
2.23061
2.22963
2.2249
2.21799
2.20978
2.1964
2.16596
2.13224
2.12107
2.11357
2.1055
2.09973
2.09376
2.0841
2.06623
2.03476
2.00776
2.00242
1.99835
1.99395
1.99076
1.98642
1.98043
1.97353
1.96444
1.94784
1.91686
1.88814
1.88139
1.87865
1.87796
1.87776
1.87444
1.87121
1.86762
1.86274
1.85447
1.8345
1.79921
1.77131
1.7636
1.75912
1.75448
1.75003
1.74574
1.74227
1.74016
1.73919
1.73761
1.73496
1.72885
1.71178
1.68844
1.66824
1.6548
1.64321
1.6301
1.61661
1.61152
1.61039
1.61237
1.62044
1.62487
1.62209
1.61812
1.61322
1.6058
1.59258
1.56877
1.53346
1.50908
1.50447
1.50415
1.51111
1.52881
1.53964
1.53826
1.53503
1.53122
1.52481
1.51048
1.47985
1.44343
1.42828
1.4269
1.42833
1.44007
1.4603
1.46835
1.46631
1.46218
1.45385
1.43548
1.4012
1.37403
1.36695
1.36615
1.36923
1.38433
1.40136
1.40342
1.40034
1.39445
1.38032
1.35101
1.32041
1.31058
1.30979
1.31157
1.32406
1.34392
1.34995
1.34784
1.34291
1.32998
1.30083
1.26721
1.25568
1.25471
1.25476
1.26183
1.28518
1.31014
1.37964
1.60284
1.96227
2.2171
2.23
2.21184
2.2111
2.22475
2.26244
2.28981
2.28819
2.27771
2.25363
2.2056
2.15902
2.15619
2.20392
2.35
2.54796
2.68248
2.69686
2.68556
2.65025
2.61256
2.60174
2.60103
2.61594
2.62781
2.62258
2.60904
2.58409
2.56365
2.5574
2.55611
2.56631
2.57825
2.57506
2.56472
2.54383
2.52034
2.51126
2.50725
2.50901
2.51928
2.5208
2.51391
2.5009
2.4801
2.46592
2.46092
2.4588
2.4642
2.47271
2.4696
2.46126
2.44474
2.42043
2.40668
2.40166
2.39926
2.40458
2.41826
2.42079
2.41497
2.40464
2.38492
2.36572
2.35922
2.35534
2.35424
2.35982
2.36493
2.36136
2.35468
2.34406
2.3324
2.32647
2.32242
2.31902
2.31494
2.30995
2.30385
2.29546
2.28716
2.28233
2.27844
2.27438
2.26969
2.26427
2.25749
2.24888
2.24195
2.23784
2.23436
2.23124
2.22753
2.22308
2.21787
2.21125
2.20293
2.19567
2.19127
2.188
2.18491
2.18111
2.1767
2.17155
2.16514
2.63763
2.63245
2.62766
2.62438
2.62178
2.61639
2.60876
2.59702
2.57119
2.52488
2.46374
2.43322
2.42569
2.42163
2.42257
2.42651
2.42261
2.4169
2.41038
2.40124
2.38126
2.33811
2.28422
2.26291
2.25819
2.25593
2.25906
2.2596
2.25573
2.25075
2.24337
2.23139
2.20438
2.16327
2.14165
2.13669
2.13061
2.12227
2.11519
2.10825
2.09669
2.0732
2.03982
2.02703
2.02281
2.0182
2.01422
2.0109
2.00536
1.99818
1.98959
1.97647
1.95026
1.91763
1.90516
1.90227
1.90084
1.90135
1.89866
1.89461
1.89025
1.88491
1.87736
1.86065
1.82817
1.79318
1.78132
1.77757
1.77337
1.76995
1.76751
1.76631
1.76652
1.76679
1.76476
1.76098
1.75324
1.73395
1.70602
1.68203
1.66922
1.65933
1.64877
1.63884
1.63507
1.634
1.63498
1.64035
1.64347
1.64039
1.63525
1.62914
1.62117
1.60909
1.59003
1.56015
1.53437
1.52821
1.52744
1.53193
1.54563
1.5532
1.55136
1.54842
1.54504
1.53969
1.52793
1.50291
1.46755
1.44843
1.4464
1.44721
1.4571
1.47535
1.48279
1.4806
1.47662
1.46923
1.45327
1.42193
1.39266
1.38356
1.38266
1.38507
1.39864
1.41569
1.41823
1.41505
1.4096
1.39729
1.37133
1.33892
1.32548
1.32424
1.32523
1.33557
1.35522
1.36326
1.36139
1.35678
1.34574
1.32035
1.28457
1.26857
1.267
1.26693
1.27219
1.29243
1.32555
1.41128
1.70297
2.0451
2.25535
2.26046
2.21784
2.22042
2.23969
2.28329
2.31123
2.30683
2.29777
2.27669
2.23522
2.18872
2.17992
2.20648
2.32096
2.51084
2.68421
2.72089
2.7139
2.68229
2.64223
2.62856
2.62586
2.63824
2.65431
2.65122
2.6396
2.61508
2.58837
2.57961
2.57687
2.58502
2.59995
2.59953
2.59087
2.57214
2.5457
2.53331
2.52866
2.52875
2.53849
2.54397
2.53867
2.52732
2.50598
2.4875
2.48131
2.4782
2.48193
2.49281
2.4929
2.48557
2.47023
2.44596
2.42775
2.42194
2.41883
2.42192
2.43569
2.44276
2.43812
2.42841
2.4107
2.38946
2.37992
2.37574
2.37368
2.37744
2.38424
2.38176
2.3756
2.36598
2.3532
2.34504
2.34057
2.33693
2.33327
2.32848
2.3228
2.31537
2.30655
2.30062
2.29651
2.2926
2.28815
2.28285
2.27627
2.26764
2.25902
2.25415
2.25053
2.24769
2.24495
2.24101
2.23623
2.23034
2.2227
2.21485
2.20967
2.20599
2.20275
2.19899
2.19441
2.189
2.18226
2.17412
2.66815
2.66419
2.66146
2.6591
2.65362
2.64584
2.63342
2.60699
2.56172
2.49898
2.46389
2.45435
2.4499
2.44988
2.45635
2.45487
2.44892
2.44264
2.43447
2.41747
2.37917
2.32207
2.29152
2.28572
2.28243
2.28565
2.29085
2.28622
2.28068
2.27457
2.26481
2.24147
2.2
2.16479
2.15634
2.15241
2.14696
2.13889
2.13082
2.12244
2.10838
2.08012
2.05475
2.04809
2.04258
2.03717
2.0333
2.02951
2.02338
2.01504
2.0038
1.98315
1.95022
1.92968
1.92606
1.92415
1.92455
1.92221
1.91788
1.91326
1.90727
1.89955
1.88526
1.85712
1.81925
1.80082
1.79702
1.79346
1.7907
1.78936
1.78988
1.79238
1.79276
1.79026
1.78655
1.77875
1.75813
1.7256
1.69716
1.68319
1.6751
1.66808
1.6615
1.65844
1.65761
1.65903
1.66249
1.66301
1.65988
1.65404
1.64508
1.63517
1.6242
1.60919
1.58541
1.56014
1.55203
1.55133
1.55366
1.56291
1.56753
1.56476
1.56169
1.55862
1.5541
1.54467
1.52448
1.492
1.46969
1.46643
1.4668
1.47472
1.49042
1.49689
1.49453
1.49061
1.4841
1.47039
1.44282
1.41265
1.40107
1.39995
1.40169
1.41358
1.42994
1.43292
1.42977
1.42464
1.41378
1.39106
1.35844
1.34149
1.33958
1.33986
1.34807
1.36676
1.37648
1.37485
1.37053
1.3609
1.33885
1.30312
1.28258
1.27951
1.27939
1.28356
1.30194
1.34161
1.458
1.76105
2.15318
2.30735
2.27923
2.23064
2.21862
2.23573
2.29453
2.33791
2.33916
2.3273
2.30089
2.25686
2.21042
2.19479
2.20914
2.29749
2.47752
2.67358
2.74575
2.74288
2.71471
2.67036
2.65259
2.64871
2.65898
2.67854
2.67901
2.66895
2.64671
2.61663
2.60328
2.59956
2.60469
2.62154
2.62538
2.61753
2.60078
2.5738
2.55645
2.55092
2.54935
2.55716
2.56556
2.56159
2.55201
2.53353
2.51222
2.50373
2.49998
2.50137
2.51214
2.51532
2.50906
2.49672
2.47366
2.45016
2.4421
2.43821
2.43908
2.45153
2.46293
2.45994
2.45213
2.43698
2.41395
2.40063
2.3956
2.39254
2.39452
2.40258
2.40273
2.39717
2.38855
2.37525
2.36464
2.35959
2.35565
2.35222
2.34777
2.34246
2.33565
2.32657
2.31922
2.31476
2.3109
2.3068
2.3019
2.29592
2.28765
2.27707
2.27012
2.26619
2.26295
2.26074
2.25787
2.25371
2.24872
2.2419
2.23348
2.22766
2.22386
2.2206
2.21723
2.21318
2.20838
2.20208
2.19338
2.18455
2.70194
2.69986
2.69745
2.69171
2.68331
2.66917
2.64165
2.59717
2.53368
2.49517
2.48339
2.47876
2.47802
2.48601
2.48889
2.48306
2.47688
2.46914
2.45373
2.41845
2.3603
2.32154
2.31297
2.3093
2.3104
2.3192
2.31773
2.31113
2.30449
2.29587
2.27723
2.23874
2.19438
2.17795
2.17306
2.16885
2.16369
2.15606
2.14731
2.13733
2.12036
2.09092
2.07384
2.06833
2.06186
2.05566
2.05149
2.04721
2.04066
2.031
2.0151
1.98549
1.95658
1.95003
1.94679
1.94636
1.94551
1.94066
1.93589
1.93012
1.92231
1.90976
1.88528
1.848
1.82371
1.81857
1.8152
1.81272
1.81186
1.81312
1.81655
1.81741
1.81437
1.81029
1.80316
1.78427
1.7492
1.71428
1.69905
1.69212
1.6876
1.68432
1.68245
1.68201
1.68332
1.68577
1.68495
1.6811
1.67302
1.66092
1.6496
1.63925
1.62696
1.60898
1.58622
1.57567
1.57469
1.57562
1.58097
1.58296
1.5796
1.57602
1.57253
1.56824
1.56074
1.54458
1.51631
1.49203
1.48691
1.4869
1.49273
1.50555
1.51053
1.50803
1.50425
1.49853
1.48673
1.46319
1.43347
1.4195
1.418
1.41915
1.4292
1.44418
1.44735
1.44431
1.43955
1.43001
1.41021
1.37866
1.35875
1.35562
1.3555
1.36183
1.37877
1.38958
1.38834
1.38423
1.37564
1.35649
1.32216
1.29753
1.29231
1.29201
1.2955
1.31287
1.36088
1.52052
1.84816
2.21958
2.33636
2.31798
2.28287
2.26533
2.26831
2.31175
2.3593
2.36606
2.35509
2.33264
2.28467
2.22774
2.20759
2.21451
2.27922
2.44349
2.65067
2.7675
2.77151
2.75071
2.70289
2.67688
2.67131
2.67911
2.70117
2.706
2.69728
2.67809
2.6475
2.62781
2.62269
2.62423
2.63993
2.64984
2.64399
2.63022
2.60441
2.58098
2.57361
2.57038
2.57549
2.58605
2.58424
2.57623
2.55977
2.53607
2.52476
2.52039
2.52016
2.53003
2.53748
2.5329
2.52203
2.5001
2.47457
2.4635
2.45946
2.45879
2.46838
2.48217
2.48184
2.47488
2.46114
2.43887
2.42189
2.41614
2.41257
2.41297
2.42055
2.42274
2.41756
2.40982
2.39776
2.38531
2.37917
2.37495
2.37159
2.36752
2.36234
2.35603
2.34765
2.33914
2.33384
2.32971
2.32564
2.32086
2.31513
2.30775
2.29756
2.28734
2.28184
2.27808
2.27522
2.27304
2.26953
2.26517
2.25967
2.25206
2.24524
2.24101
2.23743
2.2342
2.23069
2.22654
2.22149
2.21448
2.20475
2.19625
2.73917
2.73676
2.73002
2.72029
2.7035
2.67522
2.63146
2.56799
2.52713
2.51328
2.50844
2.50712
2.51536
2.52341
2.51893
2.51292
2.50564
2.49128
2.45736
2.39846
2.35245
2.33989
2.33603
2.33618
2.34417
2.34746
2.34187
2.33512
2.3268
2.31122
2.27632
2.2272
2.20299
2.19754
2.19172
2.18677
2.18184
2.175
2.16593
2.15425
2.13385
2.10457
2.09186
2.08711
2.08101
2.0743
2.06937
2.06457
2.05742
2.04556
2.02242
1.98845
1.97378
1.96977
1.96677
1.96628
1.96368
1.95832
1.95251
1.94538
1.93465
1.9135
1.87849
1.84954
1.84216
1.83888
1.83633
1.83558
1.83671
1.83904
1.83979
1.83698
1.83272
1.82591
1.80916
1.77593
1.7359
1.71695
1.71132
1.70831
1.70624
1.70574
1.70776
1.70922
1.7083
1.70638
1.70254
1.69173
1.67605
1.66358
1.65399
1.64428
1.63071
1.61101
1.59941
1.59791
1.59765
1.59958
1.59929
1.59599
1.59199
1.58769
1.58286
1.57616
1.56305
1.53979
1.51539
1.5078
1.50748
1.51125
1.52057
1.52371
1.52114
1.51759
1.5126
1.50255
1.48264
1.45475
1.43857
1.43658
1.4372
1.44551
1.45862
1.46156
1.45867
1.45432
1.446
1.42874
1.39935
1.37728
1.37244
1.37205
1.37667
1.39162
1.40266
1.40173
1.39786
1.39026
1.37362
1.3415
1.31394
1.30583
1.30496
1.30753
1.32499
1.38358
1.58489
1.95471
2.27132
2.38072
2.34825
2.30304
2.29726
2.30134
2.33805
2.37997
2.38552
2.37775
2.35968
2.31754
2.258
2.22591
2.2257
2.26596
2.40327
2.60952
2.7757
2.79653
2.78442
2.7391
2.70501
2.69688
2.70072
2.72298
2.73341
2.72611
2.70905
2.67964
2.65497
2.64805
2.64665
2.65808
2.67194
2.66877
2.65766
2.6351
2.60911
2.5991
2.59491
2.59702
2.6074
2.60785
2.60023
2.58536
2.56169
2.54632
2.54142
2.53986
2.54782
2.55858
2.55567
2.54682
2.52847
2.50113
2.48395
2.47882
2.47666
2.48357
2.49947
2.50284
2.49688
2.48601
2.46538
2.44369
2.43573
2.43134
2.43035
2.43706
2.44263
2.43849
2.43131
2.41973
2.40555
2.39816
2.39378
2.39046
2.38728
2.38259
2.37687
2.369
2.3595
2.3533
2.34906
2.34511
2.3406
2.33523
2.32861
2.31932
2.30753
2.29932
2.2946
2.2909
2.28808
2.28465
2.28045
2.27564
2.26935
2.26249
2.25782
2.25421
2.25103
2.2476
2.24347
2.23873
2.2328
2.22459
2.21555
2.20975
2.77541
2.76736
2.75506
2.73556
2.70763
2.66508
2.60269
2.55956
2.54397
2.53899
2.5373
2.5455
2.55758
2.55581
2.54988
2.54308
2.52936
2.49634
2.43682
2.38369
2.36687
2.36283
2.36204
2.36986
2.37556
2.37148
2.36569
2.35822
2.34517
2.31447
2.26241
2.22863
2.22205
2.21898
2.21272
2.20682
2.20192
2.196
2.18726
2.17308
2.14595
2.11777
2.10897
2.10501
2.10017
2.09336
2.08752
2.08177
2.07355
2.05757
2.02697
1.99926
1.99288
1.98841
1.9853
1.98373
1.98071
1.97503
1.96806
1.95903
1.94234
1.91076
1.87773
1.86688
1.86402
1.86144
1.86061
1.86098
1.8612
1.86061
1.85797
1.85396
1.84761
1.83288
1.80271
1.7609
1.73817
1.73245
1.72992
1.72879
1.72924
1.7321
1.7347
1.73266
1.72859
1.7227
1.71002
1.69204
1.67722
1.66775
1.66029
1.65047
1.63478
1.62279
1.62072
1.62032
1.61966
1.61668
1.61278
1.60871
1.6042
1.59878
1.59186
1.58103
1.56196
1.53863
1.52876
1.52821
1.53019
1.53615
1.53697
1.53415
1.53089
1.5265
1.51808
1.50129
1.47593
1.45815
1.45539
1.45554
1.46209
1.47322
1.47561
1.47279
1.46886
1.46185
1.44699
1.42036
1.39658
1.39002
1.38943
1.39259
1.40533
1.41585
1.41509
1.41134
1.40459
1.3902
1.36092
1.33159
1.32091
1.31884
1.3201
1.33761
1.41244
1.64696
2.04442
2.34738
2.41172
2.38024
2.31662
2.29876
2.30771
2.35228
2.4026
2.41011
2.40232
2.38338
2.34355
2.28474
2.2525
2.24942
2.2719
2.37844
2.56915
2.76265
2.81803
2.81122
2.7715
2.73406
2.72416
2.72496
2.74524
2.76067
2.75496
2.74022
2.71241
2.68279
2.67281
2.66982
2.67799
2.69366
2.69337
2.68409
2.6644
2.63617
2.62223
2.61735
2.61789
2.6284
2.63217
2.62556
2.61259
2.58915
2.5688
2.56254
2.55958
2.56443
2.57739
2.57813
2.57068
2.55496
2.52836
2.50739
2.50147
2.49853
2.50213
2.51654
2.52358
2.51887
2.50899
2.49012
2.46741
2.45705
2.45254
2.45047
2.45535
2.46257
2.45909
2.45193
2.44133
2.42674
2.41699
2.41231
2.40874
2.40623
2.40211
2.39674
2.38986
2.3807
2.37307
2.3685
2.36457
2.36032
2.3552
2.34891
2.34054
2.32947
2.31921
2.31308
2.30871
2.30499
2.3009
2.29619
2.29094
2.28468
2.27783
2.2734
2.27003
2.26719
2.26428
2.26038
2.25575
2.25005
2.24228
2.23317
2.22715
2.22314
2.80221
2.78621
2.76476
2.73813
2.69818
2.63845
2.59353
2.57564
2.57019
2.56823
2.57652
2.59211
2.593
2.58731
2.58075
2.56725
2.53472
2.47476
2.41557
2.39457
2.38981
2.38802
2.39519
2.4042
2.4014
2.3959
2.38956
2.37882
2.35197
2.30153
2.25712
2.24547
2.24251
2.24234
2.23592
2.22914
2.22384
2.21791
2.20847
2.18697
2.15313
2.13236
2.12597
2.12282
2.11937
2.1128
2.10611
2.09887
2.08819
2.06563
2.03239
2.01764
2.01143
2.00622
2.00265
2.00034
1.99686
1.99099
1.98271
1.97024
1.94444
1.90884
1.89191
1.88936
1.88711
1.88606
1.88578
1.88393
1.88142
1.87837
1.87434
1.86862
1.85599
1.82915
1.78781
1.76127
1.75505
1.75269
1.75166
1.7528
1.75674
1.75859
1.75578
1.75146
1.74458
1.72908
1.70798
1.69122
1.6818
1.67595
1.6689
1.65743
1.64686
1.64401
1.64215
1.64059
1.63746
1.63085
1.62393
1.6198
1.61539
1.60909
1.59971
1.58406
1.56239
1.54994
1.5489
1.54944
1.55206
1.5511
1.54794
1.54456
1.5404
1.53352
1.5191
1.49661
1.47796
1.47425
1.47399
1.47876
1.48776
1.48943
1.48668
1.48309
1.47731
1.46473
1.44145
1.41704
1.40829
1.40751
1.4095
1.41989
1.42932
1.42851
1.42484
1.41885
1.40625
1.38018
1.34959
1.33696
1.33424
1.33469
1.35355
1.44906
1.72168
2.1313
2.40759
2.44484
2.41311
2.34791
2.32577
2.33153
2.37007
2.42223
2.43583
2.428
2.41112
2.37453
2.31365
2.27363
2.26602
2.27894
2.3627
2.53729
2.74247
2.83999
2.8362
2.79929
2.75831
2.74672
2.74671
2.7666
2.7867
2.78317
2.77023
2.74475
2.71228
2.69839
2.69425
2.69955
2.71604
2.71916
2.71086
2.69344
2.66541
2.64692
2.64115
2.63972
2.64857
2.65613
2.6509
2.63936
2.61761
2.59406
2.58556
2.58185
2.58366
2.59556
2.59971
2.59344
2.58067
2.5566
2.53065
2.52142
2.51751
2.51865
2.53181
2.54312
2.53982
2.53179
2.51618
2.492
2.47701
2.47181
2.4688
2.47186
2.48152
2.48132
2.47477
2.46452
2.44835
2.43611
2.43095
2.42706
2.42471
2.42162
2.41676
2.41066
2.4018
2.39258
2.38742
2.38348
2.37966
2.37507
2.36957
2.36242
2.35181
2.33965
2.33272
2.32817
2.32406
2.31966
2.31464
2.30898
2.30195
2.29376
2.28842
2.2848
2.28178
2.27952
2.27645
2.27236
2.26752
2.26066
2.25049
2.24273
2.23893
2.23557
2.81512
2.79174
2.7661
2.7293
2.67458
2.62911
2.60905
2.60302
2.60042
2.60764
2.62702
2.63062
2.62476
2.6184
2.60462
2.57206
2.51146
2.44772
2.42287
2.41703
2.41438
2.4201
2.43266
2.43256
2.42701
2.42111
2.41215
2.38903
2.34149
2.28878
2.27033
2.26624
2.26556
2.2675
2.26078
2.25323
2.2468
2.23893
2.22138
2.18907
2.16254
2.14981
2.14359
2.14097
2.13855
2.13247
2.12498
2.11577
2.10037
2.06995
2.0435
2.03717
2.03057
2.02399
2.01975
2.01673
2.01269
2.00638
1.99644
1.97697
1.94347
1.9181
1.91412
1.91186
1.91092
1.91028
1.90719
1.90314
1.8991
1.89466
1.88924
1.87889
1.85552
1.81612
1.78633
1.77841
1.77631
1.77558
1.77641
1.77924
1.78156
1.77885
1.77403
1.76649
1.75084
1.72594
1.70505
1.69696
1.69255
1.68748
1.67943
1.67007
1.66698
1.66548
1.66249
1.65757
1.65006
1.6413
1.63425
1.62961
1.62503
1.61831
1.60657