/*--------------------------------*- C++ -*----------------------------------*\
  =========                 |
  \\      /  F ield         | OpenFOAM: The Open Source CFD Toolbox
   \\    /   O peration     | Website:  https://openfoam.org
    \\  /    A nd           | Version:  7
     \\/     M anipulation  |
\*---------------------------------------------------------------------------*/
FoamFile
{
    version     2.0;
    format      ascii;
    class       volScalarField;
    location    "3.9";
    object      rho;
}
// * * * * * * * * * * * * * * * * * * * * * * * * * * * * * * * * * * * * * //

dimensions      [1 -3 0 0 0 0 0];

internalField   nonuniform List<scalar> 
4080
(
1.40001
1.40001
1.40001
1.40001
1.40001
1.40001
1.40001
1.40001
1.40001
1.40001
1.40001
1.40001
1.40001
1.40001
1.40001
1.40001
1.40001
1.87538
4.76374
5.51927
5.60161
5.71681
5.81528
5.8999
1.40001
1.40001
1.40001
1.40001
1.40001
1.40001
1.40001
1.40001
1.40001
1.40001
1.40001
1.40001
1.40001
1.40001
1.40001
1.40001
1.40001
1.80445
4.63948
5.48638
5.56857
5.67319
5.76078
5.80518
1.40001
1.40001
1.40001
1.40001
1.40001
1.40001
1.40001
1.40001
1.40001
1.40001
1.40001
1.40001
1.40001
1.40001
1.40001
1.40001
1.40001
1.65013
4.43437
5.44712
5.50013
5.56992
5.60926
5.65667
1.40001
1.40001
1.40001
1.40001
1.40001
1.40001
1.40001
1.40001
1.40001
1.40001
1.40001
1.40001
1.40001
1.40001
1.40001
1.40001
1.40001
1.43831
4.08937
5.38284
5.39879
5.44696
5.43898
5.4963
1.40001
1.40001
1.40001
1.40001
1.40001
1.40001
1.40001
1.40001
1.40001
1.40001
1.40001
1.40001
1.40001
1.40001
1.40001
1.40001
1.40001
1.4005
3.50878
5.21775
5.23175
5.22186
4.97707
4.2569
1.40001
1.40001
1.40001
1.40001
1.40001
1.40001
1.40001
1.40001
1.40001
1.40001
1.40001
1.40001
1.40001
1.40001
1.40001
1.40001
1.40001
1.4
2.78116
5.01821
5.12121
5.00236
4.7104
4.01941
1.40001
1.40001
1.40001
1.40001
1.40001
1.40001
1.40001
1.40001
1.40001
1.40001
1.40001
1.40001
1.40001
1.40001
1.40001
1.40001
1.40001
1.4
1.98943
4.70002
5.07728
4.86884
4.56175
3.87103
1.40001
1.40001
1.40001
1.40001
1.40001
1.40001
1.40001
1.40001
1.40001
1.40001
1.40001
1.40001
1.40001
1.40001
1.40001
1.40001
1.40001
1.4
1.47719
3.88817
4.93025
4.70712
4.41848
3.82369
1.40001
1.40001
1.40001
1.40001
1.40001
1.40001
1.40001
1.40001
1.40001
1.40001
1.40001
1.40001
1.40001
1.40001
1.40001
1.40001
1.40001
1.40001
1.40035
2.71532
4.68467
4.66215
4.34325
3.86324
1.40001
1.40001
1.40001
1.40001
1.40001
1.40001
1.40001
1.40001
1.40001
1.40001
1.40001
1.40001
1.40001
1.40001
1.40001
1.40001
1.40001
1.40001
1.4
1.6784
4.08726
4.70798
4.35515
3.92526
1.40001
1.40001
1.40001
1.40001
1.40001
1.40001
1.40001
1.40001
1.40001
1.40001
1.40001
1.40001
1.40001
1.40001
1.40001
1.40001
1.40001
1.40001
1.4
1.40979
2.86581
4.52886
4.37531
3.97755
1.40001
1.40001
1.40001
1.40001
1.40001
1.40001
1.40001
1.40001
1.40001
1.40001
1.40001
1.40001
1.40001
1.40001
1.40001
1.40001
1.40001
1.40001
1.4
1.40002
1.72088
3.84858
4.4588
4.06915
1.40001
1.40001
1.40001
1.40001
1.40001
1.40001
1.40001
1.40001
1.40001
1.40001
1.40001
1.40001
1.40001
1.40001
1.40001
1.40001
1.40001
1.40001
1.40001
1.40001
1.41286
2.49465
4.20938
4.14242
1.40001
1.40001
1.40001
1.40001
1.40001
1.40001
1.40001
1.40001
1.40001
1.40001
1.40001
1.40001
1.40001
1.40001
1.40001
1.40001
1.40001
1.40001
1.40001
1.40001
1.40009
1.57487
3.28888
4.18929
1.40001
1.40001
1.40001
1.40001
1.40001
1.40001
1.40001
1.40001
1.40001
1.40001
1.40001
1.40001
1.40001
1.40001
1.40001
1.40001
1.40001
1.40001
1.40001
1.40001
1.40001
1.40449
1.97251
3.68555
1.40001
1.40001
1.40001
1.40001
1.40001
1.40001
1.40001
1.40001
1.40001
1.40001
1.40001
1.40001
1.40001
1.40001
1.40001
1.40001
1.40001
1.40001
1.40001
1.40001
1.40001
1.40003
1.44491
2.42166
1.40001
1.40001
1.40001
1.40001
1.40001
1.40001
1.40001
1.40001
1.40001
1.40001
1.40001
1.40001
1.40001
1.40001
1.40001
1.40001
1.40001
1.40001
1.40001
1.40001
1.40001
1.40001
1.4007
1.54733
1.40001
1.40001
1.40001
1.40001
1.40001
1.40001
1.40001
1.40001
1.40001
1.40001
1.40001
1.40001
1.40001
1.40001
1.40001
1.40001
1.40001
1.40001
1.40001
1.40001
1.40001
1.40001
1.40001
1.40437
1.40001
1.40001
1.40001
1.40001
1.40001
1.40001
1.40001
1.40001
1.40001
1.40001
1.40001
1.40001
1.40001
1.40001
1.40001
1.40001
1.40001
1.40001
1.40001
1.40001
1.40001
1.40001
1.40001
1.40004
1.40001
1.40001
1.40001
1.40001
1.40001
1.40001
1.40001
1.40001
1.40001
1.40001
1.40001
1.40001
1.40001
1.40001
1.40001
1.40001
1.40001
1.40001
1.40001
1.40001
1.40001
1.40001
1.40001
1.40001
1.40001
1.40001
1.40001
1.40001
1.40001
1.40001
1.40001
1.40001
1.40001
1.40001
1.40001
1.40001
1.40001
1.40001
1.40001
1.40001
1.40001
1.40001
1.40001
1.40001
1.40001
1.40001
1.40001
1.40001
1.40001
1.40001
1.40001
1.40001
1.40001
1.40001
1.40001
1.40001
1.40001
1.40001
1.40001
1.40001
1.40001
1.40001
1.40001
1.40001
1.40001
1.40001
1.40001
1.40001
1.40001
1.40001
1.40001
1.40001
1.40001
1.40001
1.40001
1.40001
1.40001
1.40001
1.40001
1.40001
1.40001
1.40001
1.40001
1.40001
1.40001
1.40001
1.40001
1.40001
1.40001
1.40001
1.40001
1.40001
1.40001
1.40001
1.40001
1.40001
1.40001
1.40001
1.40001
1.40001
1.40001
1.40001
1.40001
1.40001
1.40001
1.40001
1.40001
1.40001
1.40001
1.40001
1.40001
1.40001
1.40001
1.40001
1.40001
1.40001
1.40001
1.40001
1.40001
1.40001
1.40001
1.40001
1.40001
1.40001
1.40001
1.40001
1.40001
1.40001
1.40001
1.40001
1.40001
1.40001
1.40001
1.40001
1.40001
1.40001
1.40001
1.40001
1.40001
1.40001
1.40001
1.40001
1.40001
1.40001
1.40001
1.40001
1.40001
1.40001
1.40001
1.40001
1.40001
1.40001
1.40001
1.40001
1.40001
1.40001
1.40001
1.40001
1.40001
1.40001
1.40001
1.40001
1.40001
1.40001
1.40001
1.40001
1.40001
1.40001
1.40001
1.40001
1.40001
1.40001
1.40001
1.40001
1.40001
1.40001
1.40001
1.40001
1.40001
1.40001
1.40001
1.40001
1.40001
1.40001
1.40001
1.40001
1.40001
1.40001
1.40001
1.40001
1.40001
1.40001
1.40001
1.40001
1.40001
1.40001
1.40001
1.40001
1.40001
1.40001
1.40001
1.40001
1.40001
1.40001
1.40001
1.40001
1.40001
1.40001
1.40001
1.40001
1.40001
1.40001
1.40001
1.40001
1.40001
1.40001
1.40001
1.40001
1.40001
1.40001
1.40001
1.40001
1.40001
1.40001
1.40001
1.40001
1.40001
1.40001
1.40001
1.40001
1.40001
1.40001
1.40001
1.40001
1.40001
1.40001
1.40001
1.40001
1.40001
1.40001
1.40001
1.40001
1.40001
1.40001
1.40001
1.40001
1.40001
1.40001
1.40001
1.40001
1.40001
1.40001
1.40001
1.40001
1.40001
1.40001
1.40001
1.40001
1.40001
1.40001
1.40001
1.40001
1.40001
1.40001
1.40001
1.40001
1.40001
1.40001
1.40001
1.40001
1.40001
1.40001
1.40001
1.40001
1.40001
1.40001
1.40001
1.40001
1.40001
1.40001
1.40001
1.40001
1.40001
1.40001
1.40001
1.40001
1.40001
1.40001
1.40001
1.40001
1.40001
1.40001
1.40001
1.40001
1.40001
1.40001
1.40001
1.40001
1.40001
1.40001
1.40001
1.40001
1.40001
1.40001
1.40001
1.40001
1.40001
1.40001
1.40001
1.40001
1.40001
1.40001
1.40001
1.40001
1.40001
1.40001
1.40001
1.40001
1.40001
1.40001
1.40001
1.40001
1.40001
1.40001
1.40001
1.40001
1.40001
1.40001
1.40001
1.40001
1.40001
1.40001
1.40001
1.40001
1.40001
1.40001
1.40001
1.40001
1.40001
1.40001
1.40001
1.40001
1.40001
1.40001
1.40001
1.40001
1.40001
1.40001
1.40001
1.40001
1.40001
1.40001
1.40001
1.40001
1.40001
1.40001
1.40001
1.40001
1.40001
1.40001
1.40001
1.40001
1.40001
1.40001
1.40001
1.40001
1.40001
1.40001
1.40001
1.40001
1.40001
1.40001
1.40001
1.40001
1.40001
1.40001
1.40001
1.40001
1.40001
1.40001
1.40001
1.40001
1.40001
1.40001
1.40001
1.40001
1.40001
1.40001
1.40001
1.40001
1.40001
1.40001
1.40001
1.40001
1.40001
1.40001
1.40001
1.40001
1.40001
1.40001
1.40001
1.40001
1.40001
1.40001
1.40001
1.40001
1.40001
1.40001
1.40001
1.40001
1.40001
1.40001
1.40001
1.40001
1.40001
1.40001
1.40001
1.40001
1.40001
1.40001
1.40001
1.40001
1.40001
1.40001
1.40001
1.40001
1.40001
1.40001
1.40001
1.40001
1.40001
1.40001
1.40001
1.40001
1.40001
1.40001
1.40001
1.40001
1.40001
1.40001
1.40001
1.40001
1.40001
1.40001
1.40001
1.40001
1.40001
1.40001
1.40001
1.40001
1.40001
1.40001
1.40001
1.40001
1.40001
1.40001
1.40001
1.40001
1.40001
1.40001
1.40001
1.40001
1.40001
1.40001
1.40001
1.40001
1.40001
1.40001
1.40001
1.40001
1.40001
1.40001
1.40001
1.40001
1.40001
1.40001
1.40001
1.40001
1.40001
1.40001
1.40001
1.40001
1.40001
1.40001
1.40001
1.40001
1.40001
1.40001
1.40001
1.40001
1.40001
1.40001
1.40001
1.40001
1.40001
1.40001
1.40001
1.40001
1.40001
1.40001
1.40001
1.40001
1.40001
1.40001
1.63244
0.613348
1.0707
1.85086
2.12225
2.26654
2.3393
2.36842
2.37351
2.37616
2.3751
2.37979
2.31668
1.34909
1.67145
2.27394
2.30047
2.32635
2.35889
2.37925
2.38097
2.38408
2.38086
2.38515
2.81749
1.94394
1.82795
2.28689
2.41623
2.3623
2.37288
2.38764
2.38906
2.39325
2.38201
2.38126
3.11912
2.42184
2.03219
2.29691
2.66038
2.63449
2.59621
2.53932
2.48396
2.44747
2.40638
2.41414
3.32774
2.77325
2.25371
2.29133
2.61836
2.85568
2.83301
2.70404
2.60016
2.51131
2.39346
2.07576
3.47165
3.00225
2.509
2.32949
2.50072
2.84275
3.00854
2.90321
2.81423
2.69599
2.54072
2.26717
3.57802
3.18342
2.75198
2.42196
2.45279
2.73483
3.05767
3.0376
2.97196
2.87724
2.71439
2.48451
3.70714
3.35758
2.96966
2.60692
2.48906
2.59633
2.98254
3.08969
3.05821
3.00291
2.87893
2.70109
3.83336
3.49931
3.16584
2.80502
2.56215
2.58526
2.83726
3.08449
3.10829
3.07441
2.98879
2.85442
3.9919
3.65962
3.35406
3.00787
2.71723
2.62001
2.71171
3.01903
3.1379
3.12119
3.06092
2.96019
4.04626
3.82718
3.5134
3.20293
2.88256
2.68794
2.704
2.88955
3.11645
3.16551
3.12492
3.04265
3.79381
3.93824
3.70252
3.3984
3.07802
2.8159
2.74069
2.81591
3.06622
3.2041
3.18106
3.11782
2.79507
3.81435
3.82924
3.60461
3.30224
2.98388
2.80661
2.8234
2.96344
3.18604
3.22897
3.18484
1.70226
3.0366
3.77386
3.75333
3.5276
3.20618
2.93196
2.85513
2.90912
3.11503
3.26622
3.24968
1.41505
1.85507
3.15856
3.72098
3.68779
3.45996
3.12521
2.92308
2.92461
3.01039
3.23125
3.30815
1.40017
1.43211
1.97105
3.20838
3.6672
3.63399
3.39462
3.08707
2.96883
3.00559
3.15277
3.31964
1.40001
1.4005
1.45008
2.04452
3.21212
3.61186
3.58342
3.34046
3.09604
3.03483
3.08711
3.27049
1.40001
1.40001
1.40095
1.46468
2.07736
3.17809
3.5545
3.52527
3.31448
3.12181
3.1137
3.18701
1.40001
1.40001
1.40001
1.4014
1.47275
2.0737
3.1121
3.49072
3.4659
3.30289
3.17236
3.19486
1.40001
1.40001
1.40001
1.40001
1.40171
1.47335
2.03729
3.01768
3.42928
3.41002
3.30953
3.23442
1.40001
1.40001
1.40001
1.40001
1.40001
1.40176
1.46754
1.97161
2.92097
3.36188
3.36075
3.31852
1.40001
1.40001
1.40001
1.40001
1.40001
1.40001
1.40155
1.45742
1.9029
2.77212
3.29651
3.35139
1.40001
1.40001
1.40001
1.40001
1.40001
1.40001
1.40001
1.40133
1.44346
1.82596
2.60113
3.22325
1.40001
1.40001
1.40001
1.40001
1.40001
1.40001
1.40001
1.40001
1.40082
1.43457
1.72106
2.43763
1.40001
1.40001
1.40001
1.40001
1.40001
1.40001
1.40001
1.40001
1.40001
1.40063
1.42188
1.62434
1.40001
1.40001
1.40001
1.40001
1.40001
1.40001
1.40001
1.40001
1.40001
1.40001
1.40034
1.41268
1.40001
1.40001
1.40001
1.40001
1.40001
1.40001
1.40001
1.40001
1.40001
1.40001
1.40001
1.40017
1.40001
1.40001
1.40001
1.40001
1.40001
1.40001
1.40001
1.40001
1.40001
1.40001
1.40001
1.40001
1.40001
1.40001
1.40001
1.40001
1.40001
1.40001
1.40001
1.40001
1.40001
1.40001
1.40001
1.40001
1.40001
1.40001
1.40001
1.40001
1.40001
1.40001
1.40001
1.40001
1.40001
1.40001
1.40001
1.40001
1.40001
1.40001
1.40001
1.40001
1.40001
1.40001
1.40001
1.40001
1.40001
1.40001
1.40001
1.40001
1.40001
1.40001
1.40001
1.40001
1.40001
1.40001
1.40001
1.40001
1.40001
1.40001
1.40001
1.40001
1.40001
1.40001
1.40001
1.40001
1.40001
1.40001
1.40001
1.40001
1.40001
1.40001
1.40001
1.40001
1.40001
1.40001
1.40001
1.40001
1.40001
1.40001
1.40001
1.40001
1.40001
1.40001
1.40001
1.40001
1.40001
1.40001
1.40001
1.40001
1.40001
1.40001
1.40001
1.40001
1.40001
1.40001
1.40001
1.40001
1.40001
1.40001
1.40001
1.40001
1.40001
1.40001
1.40001
1.40001
1.40001
1.40001
1.40001
1.40001
1.08903
0.817728
0.813829
0.859759
0.929512
0.986025
1.01657
1.02156
1.01713
1.01511
1.00752
0.993726
0.979619
0.975423
0.974929
0.97963
0.986618
0.989717
0.989867
0.988147
0.984674
0.979366
0.974566
0.972145
0.97134
0.973969
0.975805
0.974604
0.972753
0.970531
0.967323
0.964059
0.961961
0.960932
0.961022
0.963842
0.964769
0.963099
0.960958
0.958051
0.952817
0.947152
1.48347
2.15679
2.26186
2.3267
2.35365
2.36136
2.36095
2.35524
2.35072
2.34282
2.33001
2.31395
2.2986
2.28765
2.28244
2.28072
2.277
2.26574
2.24676
2.22395
2.20354
2.18859
2.17865
2.17214
2.16387
2.1491
2.12685
2.09996
2.07575
2.05789
2.04635
2.03965
2.03494
2.02838
2.01738
1.99206
1.95815
1.92474
1.89868
1.88028
1.8731
1.86784
1.58576
1.26198
1.10377
1.0227
0.985868
0.988472
1.0074
1.01162
1.00966
1.01329
1.01583
1.01525
1.00951
1.00515
1.00396
1.00606
1.00526
1.00121
0.998296
0.996883
0.995703
0.994739
0.993041
0.989683
0.986693
0.984386
0.982749
0.981661
0.981591
0.981256
0.980417
0.979326
0.977441
0.974041
0.969991
0.967035
0.965714
0.965607
0.966909
0.966685
0.965715
0.962228
1.43789
2.15947
2.28709
2.34638
2.37414
2.3746
2.36706
2.3591
2.35199
2.34307
2.32979
2.31333
2.29723
2.28458
2.27693
2.27328
2.27112
2.26861
2.26334
2.24861
2.22225
2.19552
2.17453
2.16147
2.15565
2.15345
2.15025
2.13548
2.10697
2.07561
2.04894
2.02683
2.01439
2.01111
2.01005
2.00903
2.00249
1.98232
1.9527
1.91892
1.89106
1.86118
1.95425
1.55789
1.33138
1.13415
1.04084
1.02726
1.03218
1.05258
1.07429
1.08779
1.09385
1.08907
1.07362
1.0672
1.06535
1.06358
1.05879
1.04804
1.03688
1.0329
1.03227
1.03248
1.03409
1.03449
1.0326
1.02952
1.02485
1.0174
1.01061
1.00838
1.0076
1.00821
1.01001
1.00975
1.00778
1.0035
0.997053
0.991491
0.988608
0.987177
0.987567
0.987882
1.33471
2.17437
2.36656
2.39736
2.39834
2.39158
2.38244
2.38378
2.38534
2.38374
2.37761
2.36757
2.35578
2.34519
2.337
2.32995
2.32261
2.31709
2.31609
2.31973
2.31388
2.28767
2.25414
2.22191
2.19653
2.18341
2.18345
2.19015
2.18946
2.16969
2.13849
2.09859
2.05581
2.02444
2.00747
2.01133
2.02952
2.04337
2.03974
2.01959
1.98975
1.91793
2.32229
1.89749
1.64253
1.42124
1.23798
1.18283
1.14109
1.10992
1.10094
1.10762
1.12376
1.12929
1.13035
1.13845
1.13834
1.13367
1.12405
1.10893
1.09551
1.09261
1.09198
1.09127
1.09079
1.089
1.0866
1.08367
1.07915
1.07247
1.06576
1.06277
1.06093
1.05945
1.05832
1.0574
1.05553
1.05123
1.04511
1.04025
1.03777
1.03553
1.03295
1.02915
1.18505
2.15148
2.53141
2.52214
2.4882
2.47386
2.46261
2.46166
2.46328
2.4631
2.45988
2.4539
2.44514
2.43506
2.42633
2.41892
2.41133
2.4021
2.39387
2.39479
2.40627
2.40048
2.37425
2.33883
2.29782
2.26807
2.24903
2.24209
2.2503
2.25591
2.24156
2.21762
2.18607
2.14554
2.10942
2.09081
2.08295
2.09052
2.09718
2.08644
2.06715
2.01536
2.59071
2.23021
1.9259
1.6963
1.47779
1.34937
1.26909
1.17898
1.12877
1.13254
1.14359
1.15158
1.16739
1.18872
1.20494
1.20505
1.20052
1.18399
1.15968
1.14886
1.14571
1.1442
1.14526
1.1475
1.14779
1.14449
1.13656
1.1285
1.12285
1.11952
1.11728
1.11557
1.11397
1.11258
1.10979
1.1022
1.09506
1.09295
1.09211
1.09094
1.0893
1.08497
1.11159
1.97545
2.75647
2.76332
2.67266
2.63613
2.6012
2.58282
2.5745
2.57007
2.56769
2.56724
2.56677
2.56313
2.55659
2.54788
2.53833
2.52727
2.5159
2.5097
2.5165
2.52352
2.50672
2.48119
2.44628
2.40221
2.36941
2.352
2.34432
2.34496
2.33903
2.3233
2.30536
2.28558
2.25882
2.2245
2.19877
2.18365
2.16918
2.15016
2.12796
2.09386
2.76663
2.48483
2.20277
1.95935
1.7204
1.55387
1.45497
1.34307
1.2377
1.22331
1.19759
1.18089
1.18469
1.19601
1.20735
1.21099
1.21495
1.21999
1.21684
1.21237
1.20711
1.20106
1.1954
1.19156
1.18767
1.18095
1.17213
1.16749
1.16642
1.1664
1.16696
1.16625
1.16378
1.16055
1.15497
1.14366
1.13702
1.13604
1.13527
1.13503
1.13439
1.1321
1.13403
1.6962
3.01293
3.16047
2.94058
2.84196
2.78752
2.75622
2.73702
2.72045
2.70802
2.702
2.70159
2.70165
2.69558
2.68386
2.66724
2.64706
2.62811
2.61488
2.61113
2.62013
2.6129
2.59256
2.56808
2.53276
2.48849
2.45788
2.44187
2.43414
2.43176
2.42326
2.40907
2.39257
2.37266
2.34193
2.29785
2.25925
2.23649
2.21919
2.20664
2.18805
2.89811
2.67326
2.41787
2.19041
1.96247
1.76611
1.63537
1.50802
1.38125
1.32867
1.28199
1.23175
1.20304
1.20417
1.20934
1.21038
1.2133
1.22943
1.239
1.2419
1.24746
1.24652
1.2408
1.23024
1.21704
1.20476
1.19442
1.19196
1.1925
1.19624
1.20264
1.20429
1.20173
1.19566
1.18489
1.17121
1.16668
1.1658
1.16563
1.16713
1.16879
1.17055
1.18263
1.50696
3.1787
3.58425
3.30341
3.06732
2.94283
2.89237
2.86557
2.84898
2.83656
2.8258
2.81919
2.81995
2.81262
2.79559
2.77492
2.74956
2.72091
2.7022
2.6921
2.69091
2.69022
2.6768
2.65814
2.63392
2.59971
2.55785
2.52835
2.51181
2.50032
2.49142
2.47894
2.4634
2.44587
2.42117
2.38072
2.32831
2.29198
2.27696
2.27184
2.26314
2.99914
2.81512
2.60262
2.38836
2.15323
1.95948
1.82545
1.69343
1.5397
1.45851
1.40033
1.33117
1.26497
1.25668
1.24449
1.2245
1.22174
1.22999
1.2391
1.24308
1.24832
1.25688
1.26243
1.25967
1.25012
1.23663
1.22672
1.21937
1.21596
1.21643
1.2194
1.21976
1.21718
1.21051
1.20107
1.19414
1.19217
1.1908
1.19055
1.19196
1.1943
1.21355
1.35198
1.71257
2.79816
3.59305
3.57351
3.34446
3.16584
3.03088
2.95718
2.92895
2.90932
2.89625
2.89155
2.89445
2.88285
2.8643
2.8445
2.81923
2.78689
2.75772
2.7417
2.73602
2.73431
2.72543
2.71092
2.6938
2.67156
2.64088
2.60076
2.56369
2.54203
2.52666
2.51286
2.49897
2.48359
2.46577
2.44168
2.40573
2.36068
2.33012
2.32039
2.30367
3.09199
2.93998
2.74516
2.55234
2.34724
2.14035
1.98941
1.85108
1.70243
1.60547
1.53546
1.44559
1.34093
1.31735
1.29213
1.25629
1.23527
1.23602
1.24055
1.24545
1.2483
1.25563
1.26442
1.26482
1.26257
1.2613
1.25776
1.25103
1.24334
1.2366
1.23251
1.22935
1.22476
1.21898
1.21457
1.2134
1.21304
1.21254
1.21346
1.21358
1.22922
1.38712
1.82863
2.13726
2.35037
3.01487
3.48035
3.46563
3.35729
3.21548
3.09705
3.00657
2.95928
2.93141
2.91559
2.9093
2.90567
2.89632
2.88044
2.86258
2.83988
2.80837
2.77434
2.75411
2.74324
2.73561
2.7296
2.71958
2.70468
2.68542
2.65645
2.61325
2.56842
2.54333
2.52797
2.51469
2.50336
2.49161
2.47861
2.46084
2.43164
2.38532
2.34679
2.31497
3.18081
3.05325
2.88583
2.70582
2.50287
2.30806
2.15981
2.01686
1.85296
1.74115
1.66208
1.57236
1.46647
1.41177
1.37354
1.32237
1.27326
1.26864
1.26725
1.25505
1.25244
1.25366
1.25796
1.26027
1.26152
1.26517
1.2713
1.27098
1.26658
1.25896
1.24998
1.24201
1.23475
1.23023
1.22895
1.22891
1.2279
1.2278
1.2283
1.24107
1.41345
1.86517
2.26381
2.37488
2.35832
2.45208
2.89648
3.27805
3.37536
3.32081
3.23504
3.14427
3.0583
2.98727
2.93694
2.91028
2.89896
2.89174
2.88737
2.88315
2.87181
2.85182
2.82012
2.77605
2.74386
2.73061
2.72212
2.72001
2.71652
2.70199
2.68306
2.65458
2.60878
2.56126
2.53782
2.52529
2.51549
2.50875
2.50006
2.48713
2.46906
2.43434
2.38251
2.32264
3.26656
3.16558
3.01221
2.84588
2.66535
2.47186
2.31327
2.16753
2.00705
1.88859
1.80155
1.69821
1.57716
1.51601
1.47392
1.41752
1.33839
1.3138
1.29907
1.2709
1.25335
1.25343
1.2568
1.2591
1.26259
1.26904
1.27807
1.27948
1.27619
1.27164
1.2662
1.25903
1.25131
1.24819
1.24652
1.24358
1.2418
1.24177
1.25493
1.39489
1.93174
2.28387
2.40567
2.42771
2.39739
2.37038
2.43559
2.70543
3.0583
3.22654
3.26279
3.25589
3.17787
3.10327
3.01681
2.93388
2.89605
2.88141
2.87825
2.88029
2.88634
2.87701
2.85543
2.82048
2.77238
2.73418
2.71976
2.7148
2.71608
2.70989
2.69545
2.67775
2.6499
2.60441
2.55942
2.53852
2.5277
2.52033
2.51039
2.49772
2.48328
2.46126
2.42118
2.34412
3.3253
3.2659
3.14344
2.98599
2.80803
2.62898
2.47184
2.32101
2.15961
2.0259
1.93262
1.83014
1.71659
1.6295
1.57662
1.51091
1.42541
1.39094
1.36745
1.32967
1.28253
1.27058
1.27418
1.26627
1.2635
1.2693
1.27679
1.27829
1.27662
1.2737
1.27371
1.2746
1.2723
1.26983
1.26619
1.26096
1.25887
1.27855
1.42819
1.91423
2.36085
2.45298
2.4626
2.47456
2.43845
2.3703
2.34284
2.36351
2.50971
2.80274
3.07848
3.1868
3.22164
3.19582
3.12549
3.03425
2.94265
2.89401
2.87688
2.87469
2.88032
2.88423
2.87445
2.85329
2.81678
2.77054
2.73437
2.72069
2.71639
2.7133
2.70434
2.69178
2.67565
2.64926
2.6061
2.56455
2.54358
2.52988
2.51618
2.50223
2.48788
2.47071
2.44468
2.38017
3.37586
3.34846
3.25958
3.12321
2.95605
2.7793
2.622
2.47336
2.30765
2.17378
2.07195
1.96278
1.83137
1.75317
1.69369
1.62395
1.52632
1.47184
1.44394
1.39912
1.34102
1.30899
1.30532
1.28642
1.26617
1.26728
1.2733
1.27827
1.27808
1.2772
1.28027
1.28347
1.28379
1.28427
1.28284
1.28127
1.29836
1.49719
1.95345
2.42301
2.50333
2.4978
2.50642
2.48942
2.45349
2.39421
2.34718
2.33461
2.33864
2.40142
2.61718
2.88961
3.08514
3.14362
3.1558
3.1235
3.04687
2.96536
2.91669
2.89162
2.87682
2.87624
2.87515
2.86545
2.84703
2.8189
2.77777
2.73932
2.72455
2.71764
2.71007
2.70178
2.69128
2.67609
2.6528
2.61653
2.57214
2.54033
2.522
2.50695
2.4914
2.47429
2.45703
2.41611
3.35633
3.41726
3.36924
3.25502
3.10334
2.93388
2.76928
2.61965
2.46575
2.31752
2.20628
2.09697
1.97322
1.8727
1.80609
1.73158
1.63336
1.57676
1.53908
1.48914
1.40779
1.36387
1.35727
1.33478
1.30199
1.28858
1.29203
1.29372
1.28678
1.2815
1.28241
1.28398
1.28437
1.28504
1.28793
1.30956
1.51298
2.08615
2.43618
2.55885
2.55546
2.53088
2.51186
2.49321
2.46605
2.43313
2.38958
2.3599
2.34177
2.32887
2.34528
2.45364
2.65207
2.86418
3.02545
3.07199
3.0881
3.05651
2.99214
2.9473
2.91313
2.88988
2.87114
2.8612
2.85379
2.84339
2.82165
2.78034
2.73689
2.72088
2.71368
2.7081
2.70191
2.69278
2.68019
2.65837
2.61797
2.56536
2.5294
2.51204
2.49819
2.48345
2.47234
2.44389
3.29899
3.43694
3.43428
3.37113
3.24401
3.08121
2.92445
2.77276
2.60587
2.46558
2.35195
2.2327
2.09671
2.00667
1.92864
1.84475
1.74007
1.67571
1.63942
1.58388
1.5096
1.44665
1.42119
1.39134
1.34573
1.31714
1.31837
1.31721
1.30146
1.29365
1.29064
1.2857
1.28499
1.28662
1.31652
1.50604
2.11205
2.52976
2.63388
2.63504
2.58905
2.54147
2.51504
2.4958
2.47668
2.46134
2.43757
2.41366
2.37811
2.33167
2.31146
2.2995
2.32374
2.42326
2.61077
2.81355
2.97093
3.01277
3.00136
2.99546
2.96841
2.92041
2.8881
2.87049
2.85799
2.8483
2.83831
2.81438
2.76567
2.72239
2.71083
2.70543
2.70209
2.69966
2.69132
2.67724
2.6538
2.60655
2.5465
2.51761
2.50461
2.49397
2.48617
2.46287
3.26344
3.39402
3.48992
3.46427
3.37711
3.23509
3.06673
2.91488
2.76431
2.61602
2.49515
2.373
2.23343
2.13271
2.0572
1.96883
1.84781
1.78479
1.74248
1.68808
1.60314
1.53909
1.51048
1.47512
1.42109
1.36539
1.3566
1.35085
1.32695
1.31471
1.31173
1.30538
1.30614
1.33999
1.58248
2.10907
2.6209
2.7022
2.687
2.64575
2.58515
2.55066
2.5271
2.51486
2.50598
2.49215
2.47737
2.45729
2.41941
2.3683
2.3183
2.2776
2.27011
2.26756
2.2964
2.40183
2.58388
2.77746
2.89654
2.93773
2.93641
2.92201
2.90605
2.88747
2.87189
2.86102
2.84936
2.8305
2.79438
2.73862
2.70267
2.69561
2.69224
2.69302
2.69171
2.67963
2.66506
2.6389
2.58304
2.52601
2.50838
2.50081
2.49536
2.4752
3.28618
3.32665
3.45208
3.52409
3.49034
3.38453
3.23519
3.07441
2.901
2.7568
2.64201
2.51684
2.3787
2.26637
2.18596
2.0887
1.97495
1.89069
1.84381
1.786
1.70952
1.63886
1.60141
1.56214
1.50401
1.43615
1.42051
1.40182
1.37301
1.33746
1.32732
1.32752
1.36163
1.65673
2.18432
2.63351
2.77665
2.74579
2.69792
2.64377
2.59578
2.5656
2.54388
2.53573
2.53939
2.52243
2.49743
2.47172
2.43821
2.39586
2.35375
2.31185
2.27342
2.25216
2.247
2.24452
2.27396
2.36868
2.52018
2.6759
2.77576
2.84958
2.85044
2.85517
2.87621
2.87685
2.85926
2.83891
2.81096
2.76551
2.70528
2.67673
2.67234
2.67486
2.67849
2.66871
2.65954
2.64696
2.61487
2.54711
2.50666
2.49615
2.49232
2.47747
3.34757
3.33506
3.38734
3.50118
3.54038
3.50002
3.38864
3.24319
3.06378
2.91048
2.78225
2.64868
2.50951
2.41279
2.32221
2.22068
2.09023
2.01127
1.95677
1.89109
1.79819
1.73637
1.70582
1.65889
1.5953
1.52088
1.49281
1.46952
1.43113
1.39414
1.37634
1.4127
1.70647
2.32108
2.69253
2.83554
2.80536
2.74407
2.68477
2.63304
2.60331
2.57993
2.56298
2.55964
2.54567
2.51557
2.48837
2.46164
2.43293
2.4099
2.38798
2.35286
2.30512
2.26542
2.23686
2.21763
2.20629
2.19805
2.21933
2.28884
2.3997
2.54055
2.65737
2.72427
2.79309
2.83018
2.84628
2.8442
2.82088
2.78032
2.72559
2.66942
2.64877
2.64618
2.65188
2.66928
2.66526
2.64849
2.6214
2.56998
2.51463
2.50022
2.4964
2.48003
3.3745
3.37377
3.36171
3.45111
3.5496
3.54538
3.49085
3.38562
3.22618
3.064
2.93186
2.78787
2.64489
2.53998
2.45022
2.34654
2.22806
2.13786
2.07278
2.00034
1.90067
1.83304
1.79895
1.75423
1.68706
1.61415
1.58232
1.54684
1.49735
1.46451
1.52207
1.84759
2.51037
2.81675
2.89011
2.85637
2.80303
2.74387
2.69854
2.67116
2.64638
2.62123
2.59595
2.56635
2.5271
2.49459
2.47203
2.45055
2.43512
2.42627
2.40805
2.376
2.33105
2.27112
2.22758
2.20627
2.18751
2.17161
2.16619
2.1639
2.16535
2.19439
2.27678
2.40265
2.52811
2.64571
2.73527
2.77331
2.78167
2.77388
2.74364
2.67769
2.62765
2.62414
2.62895
2.64026
2.63929
2.62572
2.60628
2.58107
2.53747
2.48439
2.46195
2.45383
3.17977
3.33492
3.36166
3.44211
3.54688
3.59225
3.57223
3.50793
3.37198
3.20816
3.07585
2.93311
2.78325
2.68498
2.58736
2.46933
2.33856
2.26541
2.20217
2.11812
2.01298
1.93679
1.89967
1.84926
1.77732
1.7104
1.66441
1.62698
1.60021
1.67101
2.10779
2.70427
3.0759
3.04549
2.95638
2.87858
2.82965
2.78652
2.7528
2.72624
2.70107
2.66874
2.62792
2.58318
2.52723
2.47451
2.44933
2.43519
2.43069
2.42129
2.40234
2.37438
2.32393
2.25893
2.21911
2.20191
2.18961
2.17532
2.16018
2.13817
2.11957
2.08263
2.04876
2.06376
2.13639
2.27246
2.43307
2.56824
2.67984
2.70467
2.70027
2.66547
2.62092
2.6023
2.59861
2.6014
2.60591
2.60308
2.59264
2.57263
2.53924
2.48359
2.44816
2.43898
2.33326
3.02189
3.26639
3.43781
3.55425
3.60294
3.62088
3.59767
3.51729
3.37264
3.22957
3.06999
2.91201
2.81753
2.72906
2.61034
2.4672
2.39242
2.31817
2.23045
2.11788
2.05075
2.0097
1.95106
1.87416
1.80205
1.75143
1.74566
1.87307
2.34704
3.06934
3.2952
3.2588
3.15986
3.04351
2.9537
2.89554
2.85172
2.81229
2.77433
2.7353
2.69049
2.64032
2.58808
2.52877
2.46816
2.44131
2.43076
2.41506
2.39102
2.36565
2.3386
2.29496
2.23464
2.20681
2.19567
2.17978
2.15985
2.13827
2.11253
2.0848
2.05202
2.0072
1.96485
1.96069
1.98712
2.06852
2.1975
2.35723
2.49624
2.57856
2.59896
2.58282
2.55066
2.54192
2.53871
2.54263
2.54891
2.54872
2.54544
2.53438
2.50192
2.44735
2.41287
1.56269
2.15837
2.7805
3.32809
3.54321
3.5377
3.59776
3.62943
3.60473
3.50699
3.37259
3.22175
3.05413
2.93133
2.85
2.73532
2.6051
2.5233
2.4414
2.34549
2.22026
2.15471
2.11284
2.05295
1.97769
1.89324
1.90108
2.12146
2.70277
3.35532
3.57433
3.50294
3.37989
3.26407
3.16712
3.08163
3.00537
2.94012
2.88286
2.82772
2.77047
2.71492
2.66003
2.6002
2.53244
2.46775
2.43751
2.41752
2.39269
2.3692
2.34474
2.30989
2.26632
2.22549
2.19046
2.16217
2.1414
2.12456
2.10844
2.08797
2.06104
2.03181
2.00196
1.95855
1.91511
1.90473
1.90834
1.9306
1.99458
2.10893
2.24723
2.36083
2.45164
2.47199
2.46562
2.47422
2.4915
2.50074
2.49437
2.49117
2.48932
2.47374
2.43283
2.38414
1.40669
1.51513
1.8897
2.62133
3.33952
3.46311
3.58489
3.66
3.6541
3.58975
3.48303
3.35911
3.19013
3.06648
2.98428
2.8626
2.72788
2.64644
2.5632
2.46378
2.33193
2.27708
2.21823
2.15675
2.07287
2.10364
2.43604
3.14295
3.68076
3.82034
3.73018
3.59637
3.48073
3.38921
3.29869
3.19941
3.10696
3.02696
2.9538
2.88519
2.82118
2.76421
2.7098
2.64778
2.57241
2.50257
2.45668
2.41988
2.38604
2.35673
2.32505
2.28257
2.24463
2.2162
2.17212
2.13096
2.09891
2.07731
2.06713
2.05674
2.03871
2.01744
1.99702
1.9639
1.90787
1.86906
1.84843
1.83431
1.83447
1.84841
1.90662
2.00688
2.11362
2.22237
2.30548
2.3713
2.41647
2.44431
2.45263
2.44888
2.43858
2.42109
2.39696
2.35686
1.40007
1.40361
1.45133
1.71096
2.55551
3.13745
3.45374
3.69877
3.7143
3.69351
3.61944
3.48505
3.32518
3.2067
3.12132
2.99831
2.86592
2.7687
2.68783
2.56578
2.44619
2.38104
2.32486
2.27479
2.38038
2.88119
3.65844
4.04945
4.0899
3.99826
3.85551
3.72048
3.61364
3.51783
3.41371
3.30164
3.19545
3.10431
3.02514
2.95296
2.88572
2.82229
2.75906
2.6901
2.611
2.53166
2.46527
2.41609
2.37903
2.3445
2.30673
2.27121
2.2426
2.20396
2.15056
2.10457
2.06501
2.03315
2.02076
2.01918
2.01818
2.0051
1.97932
1.94342
1.88791
1.84225
1.81693
1.79631
1.78849
1.789
1.79081
1.80142
1.83656
1.89821
1.98901
2.10042
2.20434
2.28937
2.37835
2.39493
2.38742
2.38011
2.37119
2.34198
1.40001
1.40003
1.40125
1.42157
1.665
2.36492
2.96508
3.5687
3.73145
3.71602
3.64801
3.56992
3.48574
3.37723
3.25381
3.12025
2.97395
2.88168
2.80243
2.68211
2.5748
2.47194
2.48462
2.71088
3.44011
4.21765
4.4406
4.37005
4.21762
4.08178
3.96129
3.84929
3.74019
3.62612
3.5086
3.39215
3.27962
3.17656
3.08843
3.01377
2.94671
2.88112
2.81238
2.73732
2.65467
2.56939
2.49119
2.42975
2.38388
2.34175
2.30133
2.27241
2.24025
2.19279
2.13974
2.08987
2.04649
2.00419
1.98589
1.9793
1.9718
1.95766
1.93712
1.90848
1.86725
1.82559
1.79832
1.77488
1.76408
1.76102
1.75168
1.74182
1.73108
1.72309
1.74124
1.77879
1.87746
1.99772
2.15062
2.2745
2.3079
2.33256
2.33768
2.32307
1.40001
1.40001
1.40001
1.40042
1.41639
1.6034
2.02743
2.9104
3.59355
3.62711
3.65016
3.63609
3.58851
3.47338
3.35111
3.24126
3.0833
2.99928
2.9062
2.79714
2.68308
2.74149
3.19938
4.05107
4.75406
4.8596
4.74417
4.53125
4.32653
4.17427
4.05371
3.94241
3.82778
3.70778
3.58769
3.46968
3.35321
3.24579
3.15457
3.07637
3.00531
2.93624
2.86184
2.77577
2.68155
2.59475
2.51792
2.44995
2.39716
2.3564
2.32314
2.29058
2.24667
2.18655
2.12937
2.08264
2.04
1.99095
1.95854
1.94537
1.93448
1.92112
1.89987
1.8702
1.84096
1.80786
1.77902
1.7526
1.73479
1.72978
1.72194
1.70735
1.68576
1.67278
1.65811
1.64235
1.65465
1.71088
1.8166
1.97683
2.09546
2.20589
2.27162
2.26637
1.40001
1.40001
1.40001
1.40001
1.40027
1.40976
1.4752
1.86049
2.90766
3.35792
3.60211
3.71277
3.67141
3.58884
3.49554
3.35444
3.20934
3.10836
3.01838
2.9281
3.07055
3.79715
4.78126
5.18381
5.1573
5.00889
4.81509
4.6248
4.44098
4.27851
4.1398
4.01462
3.89442
3.77704
3.66266
3.54649
3.42253
3.30084
3.20025
3.11973
3.04689
2.97416
2.89805
2.81662
2.72355
2.62227
2.55239
2.50988
2.46617
2.42027
2.3737
2.32038
2.2611
2.2036
2.14384
2.08139
2.02633
1.98331
1.94967
1.92639
1.90618
1.88883
1.86377
1.83759
1.81757
1.79018
1.75616
1.72517
1.69838
1.69104
1.6866
1.67127
1.6528
1.64198
1.63078
1.61658
1.58947
1.58986
1.61211
1.68106
1.78071
1.90352
2.04635
2.17609
1.40001
1.40001
1.40001
1.40001
1.40001
1.40009
1.40201
1.43869
1.87919
2.64664
3.27107
3.68293
3.70397
3.65591
3.56207
3.44758
3.34836
3.2204
3.16986
3.52478
4.53174
5.42952
5.65236
5.56281
5.31154
5.05507
4.84809
4.68371
4.52763
4.3713
4.22394
4.08933
3.96441
3.84269
3.71809
3.59107