/*--------------------------------*- C++ -*----------------------------------*\
  =========                 |
  \\      /  F ield         | OpenFOAM: The Open Source CFD Toolbox
   \\    /   O peration     | Website:  https://openfoam.org
    \\  /    A nd           | Version:  7
     \\/     M anipulation  |
\*---------------------------------------------------------------------------*/
FoamFile
{
    version     2.0;
    format      ascii;
    class       volVectorField;
    location    "1.5";
    object      U;
}
// * * * * * * * * * * * * * * * * * * * * * * * * * * * * * * * * * * * * * //

dimensions      [0 1 -1 0 0 0 0];

internalField   nonuniform List<vector> 
16192
(
(3 -1.55522e-15 0)
(3 -2.13489e-15 0)
(3 -5.66657e-15 0)
(3 -7.45889e-15 0)
(3 -8.07587e-15 0)
(3 -6.4756e-15 0)
(3 -2.3114e-15 0)
(3 -6.40273e-16 0)
(3 -1.68743e-16 0)
(3 7.38852e-16 0)
(3 1.14053e-15 0)
(3 1.99103e-15 0)
(3 2.33002e-15 0)
(3 3.19586e-15 0)
(3 2.79971e-15 0)
(3 1.9692e-15 0)
(3 1.70357e-15 0)
(3 3.72916e-16 0)
(3 7.19224e-16 0)
(3 2.83608e-16 0)
(3 3.10921e-16 0)
(3 -1.03349e-15 0)
(3 -3.96348e-15 0)
(3 -7.66825e-15 0)
(3 -7.68753e-15 0)
(3 -5.84343e-15 0)
(3 -2.9912e-15 0)
(3 -1.35831e-15 0)
(3 6.04664e-16 0)
(3 8.44204e-16 0)
(3 1.07749e-15 0)
(3 1.94385e-15 0)
(3 2.46371e-15 0)
(3 3.22801e-15 0)
(3 3.94818e-15 0)
(3 3.59517e-15 0)
(3 3.31544e-15 0)
(3 3.94573e-15 0)
(3 5.06849e-15 0)
(3 3.99518e-15 0)
(3 4.2692e-16 0)
(3 -2.50504e-15 0)
(3 -2.54902e-15 0)
(3 -3.52322e-15 0)
(3 -4.13733e-15 0)
(3 -3.26938e-15 0)
(3 -3.17327e-15 0)
(3 -1.72437e-15 0)
(3 4.39462e-16 0)
(3 7.41961e-16 0)
(3 1.14096e-15 0)
(3 9.7288e-16 0)
(3 5.4748e-16 0)
(3 1.2014e-15 0)
(3 2.42036e-15 0)
(3 2.83581e-15 0)
(3 3.33867e-15 0)
(3 3.72643e-15 0)
(3 4.53023e-15 0)
(3 2.63382e-15 0)
(3 -6.56416e-16 0)
(3 -1.3476e-15 0)
(3 -1.56151e-17 0)
(3 1.22207e-15 0)
(3 -4.39784e-16 0)
(3 -1.79963e-15 0)
(3 -2.44341e-15 0)
(3 -1.52041e-15 0)
(3 -1.25516e-15 0)
(3 9.22878e-16 0)
(3 1.95325e-15 0)
(3 1.57997e-15 0)
(3 5.70795e-16 0)
(3 2.40633e-16 0)
(3 4.92381e-16 0)
(3 1.63398e-15 0)
(3 2.27122e-15 0)
(3 1.4483e-15 0)
(3 4.09499e-16 0)
(3 -1.66009e-16 0)
(3 2.9337e-16 0)
(3 1.06191e-15 0)
(3 1.39084e-15 0)
(3 8.60169e-16 0)
(3 2.84347e-16 0)
(3 -1.27702e-16 0)
(3 -8.15588e-16 0)
(3 -1.58274e-15 0)
(3 -2.90093e-15 0)
(3 -1.10373e-15 0)
(3 1.29249e-15 0)
(3 2.17846e-15 0)
(3 1.00842e-15 0)
(3 -4.466e-16 0)
(3 -5.22836e-16 0)
(3 7.92431e-16 0)
(3 7.68017e-16 0)
(3 8.03586e-17 0)
(3 -1.01608e-15 0)
(3 -1.4501e-15 0)
(3 5.36087e-16 0)
(3 2.40391e-15 0)
(3 2.33278e-15 0)
(3 1.51683e-15 0)
(3 2.03521e-15 0)
(3 7.07189e-16 0)
(3 -2.84473e-16 0)
(3 -2.54622e-15 0)
(3 -4.07086e-15 0)
(3 -4.25245e-15 0)
(3 -1.77893e-15 0)
(3 1.00621e-16 0)
(3 1.13107e-15 0)
(3 -2.74021e-17 0)
(3 -1.36746e-15 0)
(3 -5.73269e-16 0)
(3 8.16301e-17 0)
(3 7.51986e-17 0)
(3 -1.98095e-15 0)
(3 -1.08778e-15 0)
(3 1.44667e-15 0)
(3 1.73737e-15 0)
(3 2.11472e-15 0)
(3 1.77451e-15 0)
(3 2.02351e-15 0)
(3 6.77411e-16 0)
(3 -1.4752e-15 0)
(3 -3.0886e-15 0)
(3 -4.1964e-15 0)
(3 -4.14426e-15 0)
(3 -2.12416e-15 0)
(3 -1.58669e-15 0)
(3 -1.09256e-15 0)
(3 -7.88424e-16 0)
(3 -8.56514e-16 0)
(3 -1.14433e-15 0)
(3 -8.73871e-16 0)
(3 -1.12075e-15 0)
(3 -8.09976e-16 0)
(3 1.18249e-15 0)
(3 2.27277e-15 0)
(3 1.29707e-15 0)
(3 5.63212e-16 0)
(3 1.90265e-15 0)
(3 2.67781e-15 0)
(3 1.91997e-15 0)
(3 1.92562e-15 0)
(3 -1.55707e-15 0)
(3 -3.19971e-15 0)
(3 -2.30257e-15 0)
(3 -1.03886e-15 0)
(3 -2.03813e-15 0)
(3 -9.68928e-16 0)
(3 1.07782e-16 0)
(3 1.0772e-15 0)
(3 -5.82004e-16 0)
(3 -1.73583e-15 0)
(3 -1.81325e-15 0)
(3 7.5251e-18 0)
(3 2.83802e-16 0)
(3 1.49986e-15 0)
(3 1.01848e-15 0)
(3 1.66595e-15 0)
(3 1.78495e-15 0)
(3 1.294e-15 0)
(3 3.85233e-16 0)
(3 1.63979e-16 0)
(3 -8.76834e-16 0)
(3 -1.80484e-15 0)
(3 -2.30045e-15 0)
(3 -3.00575e-15 0)
(3 -1.21916e-15 0)
(3 1.64877e-16 0)
(3 8.18584e-16 0)
(3 1.70325e-15 0)
(3 -1.22286e-15 0)
(3 -1.40944e-15 0)
(3 -9.93118e-16 0)
(3 -6.53956e-16 0)
(3 -6.19982e-17 0)
(3 -7.70466e-16 0)
(3 -1.09389e-15 0)
(3 -5.03035e-16 0)
(3 7.81886e-16 0)
(3 3.85018e-16 0)
(3 5.93955e-16 0)
(3 -8.12372e-16 0)
(3 -4.25422e-16 0)
(3 -1.85875e-15 0)
(3 -3.77022e-15 0)
(3 -4.36922e-15 0)
(3 -1.76823e-15 0)
(3 2.4834e-16 0)
(3 9.55027e-16 0)
(3 6.90333e-16 0)
(3 -1.84952e-15 0)
(3 -1.46236e-15 0)
(3 1.51114e-16 0)
(3 -2.4185e-18 0)
(3 -1.44483e-16 0)
(3 -6.69481e-16 0)
(3 -1.38052e-15 0)
(3 -1.6798e-15 0)
(3 -2.56292e-16 0)
(3 1.08008e-15 0)
(3 1.13947e-15 0)
(3 2.36107e-17 0)
(3 -8.53953e-16 0)
(3 -1.68488e-15 0)
(3 -2.55365e-15 0)
(3 -2.39256e-15 0)
(3 -2.10178e-15 0)
(3 -1.00578e-15 0)
(3 4.37466e-17 0)
(3 4.37334e-16 0)
(3 -1.89589e-16 0)
(3 3.53279e-16 0)
(3 9.65423e-16 0)
(3 2.05132e-15 0)
(3 5.90639e-16 0)
(3 1.28072e-15 0)
(3 1.55358e-15 0)
(3 4.08848e-16 0)
(3 -1.07041e-15 0)
(3 -1.02812e-15 0)
(3 -1.88447e-15 0)
(3 -2.28641e-15 0)
(3 -3.02208e-15 0)
(3 -2.44472e-15 0)
(3 -2.03379e-15 0)
(3 -1.63685e-15 0)
(3 -2.17983e-15 0)
(3 -2.99071e-15 0)
(3 -1.81484e-15 0)
(3 -6.45632e-16 0)
(3 5.43458e-16 0)
(3 3.43509e-16 0)
(3 -5.3152e-18 0)
(3 -5.55358e-16 0)
(3 2.41633e-17 0)
(3 1.47955e-15 0)
(3 3.34583e-15 0)
(3 1.58133e-15 0)
(3 -1.63075e-15 0)
(3 -3.34488e-15 0)
(3 -3.88832e-15 0)
(3 -4.30428e-15 0)
(3 -4.12365e-15 0)
(3 -3.18086e-15 0)
(3 -1.93941e-15 0)
(3 -2.91504e-15 0)
(3 -3.59035e-15 0)
(3 -4.73361e-15 0)
(3 -3.32526e-15 0)
(3 -1.24636e-15 0)
(3 -1.5842e-15 0)
(3 -1.73508e-15 0)
(3 -2.38855e-15 0)
(3 -3.01926e-15 0)
(3 -1.00859e-15 0)
(3 1.61393e-15 0)
(3 1.72048e-15 0)
(3 -9.23384e-16 0)
(3 -2.10925e-15 0)
(3 -2.59068e-15 0)
(3 -3.67182e-15 0)
(3 -3.43309e-15 0)
(3 -2.86053e-15 0)
(3 -2.70938e-15 0)
(3 -2.08329e-15 0)
(3 -2.97205e-15 0)
(3 -4.07865e-15 0)
(3 -4.63265e-15 0)
(3 -4.88947e-15 0)
(3 -5.07396e-15 0)
(3 -4.15343e-15 0)
(3 -3.18699e-15 0)
(3 -1.98431e-15 0)
(3 -6.67393e-16 0)
(3 1.13433e-15 0)
(3 6.01808e-16 0)
(3 -1.38576e-15 0)
(3 -2.02241e-15 0)
(3 -2.44182e-15 0)
(3 -3.02297e-15 0)
(3 -3.30246e-15 0)
(3 -2.93287e-15 0)
(3 -2.57647e-15 0)
(3 -2.68751e-15 0)
(3 -3.9957e-15 0)
(3 -4.19159e-15 0)
(3 -4.61393e-15 0)
(3 -4.83567e-15 0)
(3 -5.96353e-15 0)
(3 -7.18732e-15 0)
(3 -5.09598e-15 0)
(3 -2.21263e-15 0)
(3 -1.26964e-16 0)
(3 3.1723e-16 0)
(3 -1.05576e-16 0)
(3 -1.4372e-15 0)
(3 -2.35294e-15 0)
(3 -1.3235e-15 0)
(3 -9.44967e-16 0)
(3 -2.21032e-15 0)
(3 -3.23204e-15 0)
(3 -3.61443e-15 0)
(3 -3.88112e-15 0)
(3 -3.47223e-15 0)
(3 -5.17966e-15 0)
(3 -5.98511e-15 0)
(3 -5.94981e-15 0)
(3 -5.93786e-15 0)
(3 -5.94368e-15 0)
(3 -5.8445e-15 0)
(3 -3.19732e-15 0)
(3 -2.0923e-15 0)
(3 -1.42343e-15 0)
(3 -1.32823e-15 0)
(3 -2.41709e-15 0)
(3 -1.66495e-15 0)
(3 -1.86506e-15 0)
(3 -1.95553e-15 0)
(3 -4.00125e-16 0)
(3 -1.07285e-16 0)
(3 -1.58898e-15 0)
(3 -4.77137e-15 0)
(3 -4.09499e-15 0)
(3 -4.34116e-15 0)
(3 -4.62932e-15 0)
(3 -5.17206e-15 0)
(3 -5.4702e-15 0)
(3 -5.03904e-15 0)
(3 -5.13386e-15 0)
(3 -4.27264e-15 0)
(3 -2.40048e-15 0)
(3 -2.87527e-15 0)
(3 -2.73655e-15 0)
(3 -2.37561e-15 0)
(3 -2.18685e-15 0)
(3 -2.64194e-15 0)
(3 -2.55659e-15 0)
(3 -1.89897e-15 0)
(3 -1.66874e-15 0)
(3 -8.11015e-16 0)
(3 1.37325e-16 0)
(3 -1.0144e-15 0)
(3 -4.84061e-16 0)
(3 -7.02849e-16 0)
(3 -2.00917e-15 0)
(3 -3.31768e-15 0)
(3 -4.58069e-15 0)
(3 -4.86606e-15 0)
(3 -4.75852e-15 0)
(3 -2.56928e-15 0)
(3 -9.42635e-16 0)
(3 -1.28072e-15 0)
(3 -1.74353e-15 0)
(3 -2.24303e-15 0)
(3 -1.37552e-15 0)
(3 -3.60384e-15 0)
(3 -3.24645e-15 0)
(3 -1.93004e-15 0)
(3 -2.12741e-15 0)
(3 -1.68252e-15 0)
(3 -7.36506e-16 0)
(3 -8.70217e-17 0)
(3 1.04999e-15 0)
(3 2.12728e-15 0)
(3 1.33425e-15 0)
(3 -1.25613e-15 0)
(3 -1.82498e-15 0)
(3 -2.88759e-15 0)
(3 -1.93274e-15 0)
(3 -5.02601e-17 0)
(3 4.33013e-16 0)
(3 -7.92785e-16 0)
(3 -1.5179e-15 0)
(3 -1.75116e-15 0)
(3 -1.26804e-15 0)
(3 -4.08965e-15 0)
(3 -2.87183e-15 0)
(3 -2.85722e-15 0)
(3 -2.15512e-15 0)
(3 -1.34433e-15 0)
(3 -5.92296e-16 0)
(3 1.95245e-16 0)
(3 1.09039e-15 0)
(3 1.6932e-15 0)
(3 3.18037e-16 0)
(3 -5.86573e-16 0)
(3 -3.06867e-16 0)
(3 -1.28568e-15 0)
(3 6.06875e-17 0)
(3 4.20798e-16 0)
(3 -2.23382e-16 0)
(3 -6.7508e-16 0)
(3 -9.84024e-16 0)
(3 -5.80815e-16 0)
(3 -1.24491e-15 0)
(3 -3.20257e-15 0)
(3 -1.73746e-15 0)
(3 -2.10488e-15 0)
(3 -2.27683e-15 0)
(3 -1.57615e-15 0)
(3 4.28431e-16 0)
(3 1.82656e-15 0)
(3 4.40013e-16 0)
(3 -1.71233e-17 0)
(3 -5.16082e-16 0)
(3 1.1899e-17 0)
(3 7.47858e-16 0)
(3 1.28741e-15 0)
(3 7.68915e-16 0)
(3 4.90592e-16 0)
(3 1.59779e-16 0)
(3 9.06104e-16 0)
(3 1.09369e-15 0)
(3 -2.66753e-16 0)
(3 -2.42088e-15 0)
(3 -1.21022e-16 0)
(3 -3.54799e-16 0)
(3 -9.43381e-16 0)
(3 -1.85335e-15 0)
(3 -1.56729e-15 0)
(3 -2.64762e-16 0)
(3 1.12781e-15 0)
(3 8.6644e-16 0)
(3 -1.42739e-16 0)
(3 5.4706e-16 0)
(3 1.24937e-15 0)
(3 1.67538e-15 0)
(3 2.15804e-15 0)
(3 6.57109e-16 0)
(3 -5.25757e-16 0)
(3 2.59811e-16 0)
(3 1.38939e-15 0)
(3 1.22895e-15 0)
(3 8.23398e-16 0)
(3 -1.01658e-15 0)
(3 -3.3621e-15 0)
(3 -2.76367e-15 0)
(3 -2.37219e-15 0)
(3 -2.02775e-15 0)
(3 -1.79274e-15 0)
(3 -8.56935e-16 0)
(3 3.15074e-16 0)
(3 3.81915e-16 0)
(3 1.01791e-15 0)
(3 1.17196e-15 0)
(3 1.28602e-15 0)
(3 1.65311e-15 0)
(3 3.28323e-15 0)
(3 1.99841e-15 0)
(3 8.90111e-16 0)
(3 9.96385e-16 0)
(3 1.00496e-15 0)
(3 6.67533e-16 0)
(3 9.83141e-16 0)
(3 -2.06629e-16 0)
(3 -3.3374e-15 0)
(3 -2.77856e-15 0)
(3 -3.0347e-15 0)
(3 -3.18306e-15 0)
(3 -2.34151e-15 0)
(3 -1.95794e-15 0)
(3 -1.40854e-16 0)
(3 6.78642e-16 0)
(3 1.84962e-15 0)
(3 3.06762e-16 0)
(3 3.68893e-16 0)
(3 1.93011e-15 0)
(3 3.19798e-15 0)
(3 4.08035e-15 0)
(3 3.03772e-15 0)
(3 1.80544e-15 0)
(3 1.6609e-15 0)
(3 5.88377e-16 0)
(3 4.54256e-16 0)
(3 -6.35668e-16 0)
(3 -3.43996e-16 0)
(3 -1.37645e-15 0)
(3 -2.85723e-15 0)
(3 -3.02351e-15 0)
(3 -2.85873e-15 0)
(3 -2.1721e-15 0)
(3 -9.6788e-16 0)
(3 4.86093e-16 0)
(3 1.04413e-16 0)
(3 1.55945e-16 0)
(3 1.56215e-15 0)
(3 1.50927e-15 0)
(3 1.90841e-15 0)
(3 1.6722e-15 0)
(3 1.35542e-15 0)
(3 6.67346e-17 0)
(3 6.32022e-16 0)
(3 3.55915e-16 0)
(3 -6.8401e-17 0)
(3 -7.03671e-16 0)
(3 2.91018e-16 0)
(3 -3.55311e-16 0)
(3 -9.92905e-16 0)
(3 -6.59647e-16 0)
(3 -8.74089e-16 0)
(3 2.51994e-16 0)
(3 9.50269e-16 0)
(3 9.89802e-16 0)
(3 6.71853e-16 0)
(3 1.52244e-15 0)
(3 2.12692e-15 0)
(3 1.52282e-15 0)
(3 5.27797e-16 0)
(3 -2.46727e-17 0)
(3 3.75803e-16 0)
(3 4.31945e-16 0)
(3 -6.83656e-16 0)
(3 -8.69268e-16 0)
(3 -1.5515e-15 0)
(3 -9.90928e-16 0)
(3 -4.8169e-16 0)
(3 1.60818e-16 0)
(3 2.37882e-16 0)
(3 -7.70737e-16 0)
(3 -7.33163e-16 0)
(3 1.22941e-16 0)
(3 4.62646e-17 0)
(3 3.3813e-16 0)
(3 5.29124e-16 0)
(3 1.8933e-15 0)
(3 1.4683e-15 0)
(3 1.34559e-15 0)
(3 -6.14631e-17 0)
(3 -1.53502e-16 0)
(3 3.02369e-17 0)
(3 -8.16984e-17 0)
(3 -8.30215e-16 0)
(3 -1.43116e-15 0)
(3 -1.79173e-15 0)
(3 -3.20196e-15 0)
(3 -1.04132e-15 0)
(3 -2.22984e-15 0)
(3 -9.57675e-16 0)
(3 -5.16456e-16 0)
(3 -7.40328e-16 0)
(3 2.34307e-16 0)
(3 5.84257e-16 0)
(3 6.35515e-16 0)
(3 1.4264e-15 0)
(3 1.5883e-15 0)
(3 1.11245e-15 0)
(3 1.93512e-15 0)
(3 1.20207e-15 0)
(3 3.47258e-17 0)
(3 2.73666e-16 0)
(3 -2.67675e-16 0)
(3 -3.81978e-16 0)
(3 1.58828e-17 0)
(3 -3.14639e-16 0)
(3 -3.14601e-15 0)
(3 -5.06199e-16 0)
(3 -1.291e-15 0)
(3 -1.47286e-15 0)
(3 -2.36207e-16 0)
(3 -1.6218e-16 0)
(3 1.4125e-15 0)
(3 1.46655e-15 0)
(3 1.5416e-15 0)
(3 2.0689e-15 0)
(3 2.00107e-15 0)
(3 2.47401e-15 0)
(3 2.72768e-15 0)
(3 2.86324e-15 0)
(3 2.05868e-15 0)
(3 2.06347e-15 0)
(3 4.61465e-16 0)
(3 -1.33684e-15 0)
(3 -8.70369e-16 0)
(3 -1.6945e-15 0)
(3 -1.27525e-15 0)
(3 -2.73789e-16 0)
(3 -5.84741e-16 0)
(3 -1.72562e-15 0)
(3 -1.5712e-15 0)
(3 -1.17184e-15 0)
(3 -1.14368e-15 0)
(3 -7.91573e-16 0)
(3 3.24019e-16 0)
(3 4.78366e-16 0)
(3 2.02296e-15 0)
(3 3.78806e-15 0)
(3 3.15571e-15 0)
(3 3.65174e-15 0)
(3 2.96638e-15 0)
(3 3.18904e-16 0)
(3 -1.57359e-15 0)
(3 -2.85816e-15 0)
(3 -3.63493e-15 0)
(3 -2.76422e-15 0)
(3 -1.37836e-15 0)
(3 -4.37858e-16 0)
(3 -1.774e-16 0)
(3 -7.3093e-16 0)
(3 3.10431e-16 0)
(3 8.69929e-16 0)
(3 1.66899e-16 0)
(3 2.67751e-16 0)
(3 9.20353e-16 0)
(3 7.51688e-16 0)
(3 2.46603e-15 0)
(3 2.21361e-15 0)
(3 2.32878e-15 0)
(3 2.87989e-15 0)
(3 3.48883e-15 0)
(3 2.60773e-15 0)
(3 9.19135e-16 0)
(3 -1.12835e-15 0)
(3 -2.04608e-15 0)
(3 -1.53789e-15 0)
(3 1.94928e-16 0)
(3 -2.68036e-15 0)
(3 -1.29341e-15 0)
(3 2.09169e-16 0)
(3 1.47145e-15 0)
(3 2.58512e-16 0)
(3 -3.22116e-16 0)
(3 -1.8701e-16 0)
(3 -2.52025e-16 0)
(3 -4.36662e-17 0)
(3 2.4534e-16 0)
(3 -1.03047e-15 0)
(3 -1.67528e-15 0)
(3 -6.18794e-16 0)
(3 3.02919e-15 0)
(3 3.21855e-15 0)
(3 2.16183e-15 0)
(3 -6.41543e-16 0)
(3 -6.94852e-16 0)
(3 -6.91769e-16 0)
(3 9.13619e-16 0)
(3 -2.26654e-15 0)
(3 -1.98527e-15 0)
(3 -8.54082e-16 0)
(3 1.47949e-15 0)
(3 1.43854e-15 0)
(3 -1.43639e-16 0)
(3 5.0193e-16 0)
(3 7.83087e-17 0)
(3 3.12143e-17 0)
(3 -2.54398e-15 0)
(3 -3.68924e-15 0)
(3 -2.47475e-15 0)
(3 -5.82462e-16 0)
(3 5.05164e-16 0)
(3 1.57511e-15 0)
(3 2.06412e-15 0)
(3 1.99917e-15 0)
(3 2.1776e-16 0)
(3 -3.83369e-16 0)
(3 -9.82686e-16 0)
(3 -5.91308e-17 0)
(3 -4.29496e-16 0)
(3 9.49379e-17 0)
(3 1.45658e-15 0)
(3 1.79602e-15 0)
(3 1.45213e-15 0)
(3 -1.6552e-16 0)
(3 -7.30186e-16 0)
(3 -1.39051e-15 0)
(3 -3.25727e-15 0)
(3 -4.50794e-15 0)
(3 -3.07702e-15 0)
(3 -8.14135e-16 0)
(3 -8.8466e-17 0)
(3 7.82273e-16 0)
(3 2.9898e-15 0)
(3 3.36132e-15 0)
(3 1.25351e-15 0)
(3 -3.84693e-16 0)
(3 -2.94055e-16 0)
(3 6.65233e-16 0)
(3 9.53463e-16 0)
(3 1.97717e-15 0)
(3 1.01287e-15 0)
(3 5.59862e-16 0)
(3 -4.61615e-16 0)
(3 -2.28902e-15 0)
(3 -3.05837e-15 0)
(3 -2.69533e-15 0)
(3 -3.70809e-15 0)
(3 -5.11842e-15 0)
(3 -3.83344e-15 0)
(3 -1.25867e-15 0)
(3 -4.31072e-16 0)
(3 5.62956e-16 0)
(3 2.81623e-15 0)
(3 3.29376e-15 0)
(3 2.08024e-15 0)
(3 1.54188e-15 0)
(3 1.48375e-15 0)
(3 2.56606e-15 0)
(3 2.54651e-15 0)
(3 8.82144e-16 0)
(3 -1.05854e-15 0)
(3 -1.17351e-15 0)
(3 -2.13416e-15 0)
(3 -3.91506e-15 0)
(3 -4.92947e-15 0)
(3 -4.19618e-15 0)
(3 -3.03323e-15 0)
(3 -3.55489e-15 0)
(3 -2.15356e-15 0)
(3 -1.40235e-15 0)
(3 -4.11616e-16 0)
(3 2.30035e-15 0)
(3 2.55601e-15 0)
(3 3.43172e-15 0)
(3 2.64123e-15 0)
(3 3.16044e-15 0)
(3 2.99771e-15 0)
(3 3.20046e-15 0)
(3 2.12356e-15 0)
(3 2.4925e-17 0)
(3 -7.19934e-17 0)
(3 -1.67897e-15 0)
(3 -1.62352e-15 0)
(3 -2.32986e-15 0)
(3 -2.60758e-15 0)
(3 -3.64882e-15 0)
(3 -1.98776e-15 0)
(3 -6.18014e-16 0)
(3 -7.75324e-16 0)
(3 -2.73823e-15 0)
(3 -6.36081e-16 0)
(3 7.66315e-16 0)
(3 1.79696e-15 0)
(3 2.35023e-15 0)
(3 3.59186e-15 0)
(3 3.93559e-15 0)
(3 3.7289e-15 0)
(3 9.81493e-16 0)
(3 4.47548e-16 0)
(3 8.17926e-16 0)
(3 4.5803e-16 0)
(3 -1.26639e-16 0)
(3 -6.40502e-16 0)
(3 -8.32488e-16 0)
(3 -1.13597e-15 0)
(3 -1.24866e-15 0)
(3 -2.15615e-17 0)
(3 1.47173e-15 0)
(3 1.25611e-15 0)
(3 9.49032e-16 0)
(3 2.04965e-15 0)
(3 1.8496e-15 0)
(3 1.47394e-15 0)
(3 1.73081e-15 0)
(3 3.65266e-15 0)
(3 3.23828e-15 0)
(3 2.83836e-15 0)
(3 -1.824e-16 0)
(3 1.29996e-15 0)
(3 1.17112e-15 0)
(3 5.99298e-16 0)
(3 2.40903e-16 0)
(3 -2.35706e-16 0)
(3 1.93462e-17 0)
(3 -1.69455e-16 0)
(3 5.20269e-16 0)
(3 2.99617e-15 0)
(3 4.5673e-15 0)
(3 5.26581e-15 0)
(3 4.28051e-15 0)
(3 2.89485e-15 0)
(3 2.61666e-15 0)
(3 2.00228e-15 0)
(3 1.21581e-15 0)
(3 2.08739e-15 0)
(3 1.89469e-15 0)
(3 2.25821e-15 0)
(3 -2.70937e-16 0)
(3 7.66787e-16 0)
(3 3.62119e-16 0)
(3 2.87589e-16 0)
(3 4.56287e-16 0)
(3 4.4535e-16 0)
(3 5.30728e-16 0)
(3 5.70418e-16 0)
(3 2.07699e-15 0)
(3 3.28009e-15 0)
(3 4.99394e-15 0)
(3 5.77212e-15 0)
(3 6.1587e-15 0)
(3 3.89018e-15 0)
(3 2.69323e-15 0)
(3 2.17065e-15 0)
(3 4.10004e-16 0)
(3 1.03592e-15 0)
(3 1.01266e-15 0)
(3 1.0821e-15 0)
(3 -1.07425e-15 0)
(3 -1.82e-15 0)
(3 -5.61981e-16 0)
(3 1.67343e-16 0)
(3 8.66926e-16 0)
(3 7.71381e-16 0)
(3 1.97246e-16 0)
(3 5.69031e-16 0)
(3 2.84799e-15 0)
(3 2.86214e-15 0)
(3 3.53744e-15 0)
(3 4.18196e-15 0)
(3 5.97703e-15 0)
(3 5.78677e-15 0)
(3 3.90422e-15 0)
(3 2.67804e-15 0)
(3 2.58767e-15 0)
(3 1.94816e-15 0)
(3 1.64674e-15 0)
(3 1.15074e-15 0)
(3 -2.81411e-15 0)
(3 -1.57159e-15 0)
(3 -4.18302e-16 0)
(3 4.73106e-16 0)
(3 4.9716e-16 0)
(3 6.26527e-16 0)
(3 4.98954e-16 0)
(3 1.69722e-15 0)
(3 2.40551e-15 0)
(3 2.87943e-15 0)
(3 4.55882e-15 0)
(3 4.96341e-15 0)
(3 5.22245e-15 0)
(3 4.4542e-15 0)
(3 4.15954e-15 0)
(3 3.16743e-15 0)
(3 3.03476e-15 0)
(3 2.37662e-15 0)
(3 1.58149e-15 0)
(3 1.84096e-15 0)
(3 -4.51795e-16 0)
(3 6.61287e-17 0)
(3 3.53596e-17 0)
(3 -5.28292e-16 0)
(3 -1.14293e-15 0)
(3 1.4638e-16 0)
(3 9.88639e-16 0)
(3 1.77642e-15 0)
(3 1.79299e-15 0)
(3 2.38113e-15 0)
(3 3.38817e-15 0)
(3 4.76625e-15 0)
(3 5.28393e-15 0)
(3 5.35542e-15 0)
(3 4.58565e-15 0)
(3 3.61883e-15 0)
(3 2.05878e-15 0)
(3 1.07853e-15 0)
(3 9.87506e-17 0)
(3 -1.09468e-16 0)
(3 -8.18002e-16 0)
(3 -1.64606e-15 0)
(3 -1.381e-15 0)
(3 -9.10475e-16 0)
(3 -8.45673e-16 0)
(3 1.78874e-15 0)
(3 3.40852e-15 0)
(3 2.48686e-15 0)
(3 3.28193e-15 0)
(3 3.94286e-15 0)
(3 2.49475e-15 0)
(3 4.75596e-15 0)
(3 4.03739e-15 0)
(3 3.97484e-15 0)
(3 2.39001e-15 0)
(3 1.68515e-15 0)
(3 1.64702e-15 0)
(3 6.83394e-16 0)
(3 -3.92288e-16 0)
(3 -2.05858e-15 0)
(3 -4.79708e-16 0)
(3 -9.71286e-16 0)
(3 -1.75683e-15 0)
(3 -3.45222e-16 0)
(3 2.91885e-15 0)
(3 3.67735e-15 0)
(3 3.92733e-15 0)
(3 3.33677e-15 0)
(3 3.49674e-15 0)
(3 3.85071e-15 0)
(3 2.64331e-15 0)
(3 2.34245e-15 0)
(3 1.1762e-15 0)
(3 1.18316e-15 0)
(3 1.44296e-15 0)
(3 1.25769e-15 0)
(3 2.00619e-15 0)
(3 3.37015e-15 0)
(3 1.57159e-15 0)
(3 -1.76285e-15 0)
(3 -1.19326e-15 0)
(3 -4.50418e-16 0)
(3 -7.03751e-16 0)
(3 1.36583e-16 0)
(3 2.63085e-15 0)
(3 3.07713e-15 0)
(3 2.42944e-15 0)
(3 1.99707e-15 0)
(3 1.25201e-15 0)
(3 5.54748e-16 0)
(3 1.683e-15 0)
(3 1.10292e-15 0)
(3 2.03324e-15 0)
(3 1.5623e-15 0)
(3 1.71135e-15 0)
(3 2.68122e-15 0)
(3 3.206e-15 0)
(3 1.23935e-15 0)
(3 1.45752e-16 0)
(3 -1.29413e-15 0)
(3 -2.57968e-15 0)
(3 -1.43351e-15 0)
(3 3.68351e-16 0)
(3 3.04263e-16 0)
(3 8.02446e-16 0)
(3 2.13009e-15 0)
(3 1.14026e-15 0)
(3 5.55221e-16 0)
(3 -6.8297e-16 0)
(3 -8.83009e-16 0)
(3 -4.72652e-16 0)
(3 2.94229e-16 0)
(3 1.28763e-16 0)
(3 -8.57053e-16 0)
(3 -4.3823e-16 0)
(3 1.64325e-15 0)
(3 1.84721e-15 0)
(3 1.03335e-15 0)
(3 1.14394e-16 0)
(3 -2.30736e-15 0)
(3 -1.80256e-15 0)
(3 -1.15877e-15 0)
(3 2.19334e-16 0)
(3 1.01657e-15 0)
(3 8.09604e-16 0)
(3 6.44637e-16 0)
(3 -3.87697e-16 0)
(3 -9.43952e-16 0)
(3 -1.45887e-15 0)
(3 -2.5225e-15 0)
(3 -1.80575e-15 0)
(3 -1.17954e-15 0)
(3 -1.81096e-15 0)
(3 -1.994e-15 0)
(3 -1.22745e-15 0)
(3 -3.22931e-16 0)
(3 4.5635e-16 0)
(3 3.1039e-16 0)
(3 -8.12156e-17 0)
(3 -1.45114e-15 0)
(3 -1.69328e-15 0)
(3 -1.50378e-15 0)
(3 -9.5083e-16 0)
(3 8.13765e-16 0)
(3 1.21725e-15 0)
(3 5.98051e-16 0)
(3 -1.02693e-15 0)
(3 -1.51041e-15 0)
(3 -2.70358e-15 0)
(3 -4.61616e-15 0)
(3 -3.61161e-15 0)
(3 -3.44667e-15 0)
(3 -3.47762e-15 0)
(3 -3.80428e-15 0)
(3 -3.71618e-15 0)
(3 -2.89802e-15 0)
(3 -1.59758e-15 0)
(3 -1.71906e-15 0)
(3 -9.9549e-16 0)
(3 4.70638e-16 0)
(3 -1.74008e-15 0)
(3 -1.75293e-15 0)
(3 -8.29119e-16 0)
(3 -3.2879e-17 0)
(3 -4.42587e-16 0)
(3 -8.17034e-16 0)
(3 -3.30352e-16 0)
(3 -1.21002e-15 0)
(3 -3.57234e-15 0)
(3 -4.69086e-15 0)
(3 -5.33089e-15 0)
(3 -5.9777e-15 0)
(3 -6.14065e-15 0)
(3 -5.36208e-15 0)
(3 -5.35041e-15 0)
(3 -4.11886e-15 0)
(3 -1.89481e-15 0)
(3 -2.24495e-15 0)
(3 -2.88056e-15 0)
(3 -1.93353e-15 0)
(3 1.35419e-16 0)
(3 -9.40203e-16 0)
(3 -8.38491e-16 0)
(3 -1.66562e-15 0)
(3 -1.53404e-15 0)
(3 -1.37041e-15 0)
(3 -6.54202e-16 0)
(3 -2.53304e-15 0)
(3 -3.27664e-15 0)
(3 -3.82998e-15 0)
(3 -4.90304e-15 0)
(3 -5.90556e-15 0)
(3 -6.5306e-15 0)
(3 -5.58439e-15 0)
(3 -5.4074e-15 0)
(3 -5.02233e-15 0)
(3 -1.53592e-15 0)
(3 -1.20051e-15 0)
(3 -2.60408e-15 0)
(3 -2.74004e-15 0)
(3 2.54041e-15 0)
(3 1.94544e-15 0)
(3 6.62023e-16 0)
(3 -2.90659e-15 0)
(3 -2.95405e-15 0)
(3 -2.54202e-15 0)
(3 -2.44945e-15 0)
(3 -3.16035e-15 0)
(3 -3.40303e-15 0)
(3 -3.98218e-15 0)
(3 -4.0399e-15 0)
(3 -5.262e-15 0)
(3 -6.35729e-15 0)
(3 -6.50543e-15 0)
(3 -6.71023e-15 0)
(3 -4.37929e-15 0)
(3 -1.92732e-15 0)
(3 -8.35964e-16 0)
(3 -4.00064e-16 0)
(3 -1.80719e-15 0)
(3 1.8232e-15 0)
(3 2.20336e-15 0)
(3 -3.52947e-16 0)
(3 -1.73652e-15 0)
(3 -3.77995e-15 0)
(3 -3.74739e-15 0)
(3 -2.99858e-15 0)
(3 -1.40123e-15 0)
(3 -2.19173e-15 0)
(3 -2.97633e-15 0)
(3 -3.86271e-15 0)
(3 -6.27125e-15 0)
(3 -6.03959e-15 0)
(3 -5.7687e-15 0)
(3 -5.87751e-15 0)
(3 -3.46188e-15 0)
(3 -3.80731e-15 0)
(3 -2.04457e-15 0)
(3 -7.61305e-16 0)
(3 -1.59229e-15 0)
(3 1.3283e-15 0)
(3 6.7063e-16 0)
(3 -7.81772e-16 0)
(3 -2.20817e-15 0)
(3 -1.79143e-15 0)
(3 -3.38347e-15 0)
(3 -3.71955e-15 0)
(3 -2.75578e-15 0)
(3 -2.51642e-15 0)
(3 -2.25671e-15 0)
(3 -4.26779e-15 0)
(3 -4.298e-15 0)
(3 -5.60055e-15 0)
(3 -2.95588e-15 0)
(3 -2.82626e-15 0)
(3 -3.09081e-15 0)
(3 -3.68301e-15 0)
(3 -2.10038e-15 0)
(3 -2.22276e-15 0)
(3 -1.36109e-15 0)
(3 1.57703e-15 0)
(3 3.99513e-16 0)
(3 5.02576e-16 0)
(3 3.78762e-16 0)
(3 7.46247e-16 0)
(3 -1.04547e-15 0)
(3 -1.32467e-15 0)
(3 -9.69083e-16 0)
(3 -3.16226e-15 0)
(3 -3.39675e-15 0)
(3 -3.67705e-15 0)
(3 -2.42334e-15 0)
(3 -1.64996e-15 0)
(3 -2.79058e-16 0)
(3 -1.03013e-16 0)
(3 -2.57498e-15 0)
(3 -3.60894e-15 0)
(3 -3.45443e-15 0)
(3 -2.65758e-15 0)
(3 -1.49599e-15 0)
(3 3.08332e-15 0)
(3 1.65664e-15 0)
(3 1.46668e-15 0)
(3 2.4569e-15 0)
(3 1.70922e-15 0)
(3 1.18427e-15 0)
(3 -6.16757e-18 0)
(3 9.73617e-17 0)
(3 -1.99431e-15 0)
(3 -3.28024e-15 0)
(3 -3.73519e-15 0)
(3 -2.97444e-15 0)
(3 -1.30939e-15 0)
(3 -1.49112e-15 0)
(3 -1.09512e-15 0)
(3 -1.54447e-15 0)
(3 -3.5803e-15 0)
(3 -4.22456e-15 0)
(3 -2.80254e-15 0)
(3 -1.22003e-15 0)
(3 1.74188e-15 0)
(3 2.45911e-15 0)
(3 2.8088e-15 0)
(3 3.55951e-15 0)
(3 4.21083e-15 0)
(3 3.65935e-15 0)
(3 2.30742e-15 0)
(3 -1.54111e-16 0)
(3 -1.68574e-15 0)
(3 -1.80781e-15 0)
(3 -2.42535e-15 0)
(3 -4.30195e-15 0)
(3 -4.12841e-15 0)
(3 -4.81506e-15 0)
(3 -2.8571e-15 0)
(3 -2.49074e-15 0)
(3 -1.85087e-15 0)
(3 -1.82368e-15 0)
(3 -2.40291e-15 0)
(3 -8.7035e-16 0)
(3 -2.45615e-16 0)
(3 2.45703e-15 0)
(3 3.54386e-15 0)
(3 4.33483e-15 0)
(3 4.98848e-15 0)
(3 3.31314e-15 0)
(3 1.34969e-15 0)
(3 -2.00738e-16 0)
(3 -1.34388e-15 0)
(3 -2.74439e-15 0)
(3 -3.61907e-15 0)
(3 -4.55937e-15 0)
(3 -4.65133e-15 0)
(3 -5.45573e-15 0)
(3 -3.56443e-15 0)
(3 -2.30925e-15 0)
(3 -2.58936e-15 0)
(3 -1.98002e-15 0)
(3 -3.5642e-15 0)
(3 -3.39193e-15 0)
(3 3.21271e-16 0)
(3 2.39127e-15 0)
(3 3.49842e-15 0)
(3 3.4873e-15 0)
(3 2.915e-15 0)
(3 1.07325e-15 0)
(3 -4.46213e-17 0)
(3 -4.46817e-16 0)
(3 -5.61442e-16 0)
(3 -2.4328e-15 0)
(3 -3.48506e-15 0)
(3 -3.42211e-15 0)
(3 -3.58928e-15 0)
(3 -4.29289e-15 0)
(3 -3.31255e-15 0)
(3 -1.85812e-15 0)
(3 -2.87248e-15 0)
(3 -3.25091e-15 0)
(3 -2.18228e-15 0)
(3 -1.88054e-15 0)
(3 8.58406e-16 0)
(3 1.70771e-15 0)
(3 3.33598e-15 0)
(3 3.07614e-15 0)
(3 1.8906e-15 0)
(3 4.10536e-16 0)
(3 2.24381e-16 0)
(3 8.09873e-16 0)
(3 1.13493e-15 0)
(3 7.43524e-16 0)
(3 -4.35956e-16 0)
(3 -1.26214e-15 0)
(3 -2.28968e-15 0)
(3 -3.42679e-15 0)
(3 -3.99807e-15 0)
(3 -3.40382e-15 0)
(3 -2.932e-15 0)
(3 -2.08284e-15 0)
(3 -1.44892e-15 0)
(3 -6.10429e-17 0)
(3 8.26942e-16 0)
(3 1.24797e-15 0)
(3 1.26901e-15 0)
(3 1.5822e-15 0)
(3 1.00026e-15 0)
(3 -6.48892e-16 0)
(3 -2.89986e-16 0)
(3 6.45885e-16 0)
(3 7.97419e-16 0)
(3 8.62004e-16 0)
(3 3.22864e-16 0)
(3 -3.95838e-16 0)
(3 -2.16858e-15 0)
(3 -2.95646e-15 0)
(3 -3.53896e-15 0)
(3 -3.30451e-15 0)
(3 -2.61096e-15 0)
(3 -1.6291e-15 0)
(3 -3.07831e-16 0)
(3 2.62502e-16 0)
(3 4.70166e-16 0)
(3 -5.06454e-16 0)
(3 -9.28505e-16 0)
(3 -1.78478e-16 0)
(3 -4.25748e-16 0)
(3 -8.1944e-16 0)
(3 -9.8766e-16 0)
(3 -1.01812e-15 0)
(3 -9.30259e-16 0)
(3 3.01713e-16 0)
(3 5.29571e-16 0)
(3 -5.4544e-16 0)
(3 -2.03725e-15 0)
(3 -3.40371e-15 0)
(3 -4.81023e-15 0)
(3 -5.61184e-15 0)
(3 -4.76895e-15 0)
(3 -2.14684e-15 0)
(3 -1.29654e-15 0)
(3 -2.10274e-16 0)
(3 -8.95829e-16 0)
(3 -1.02499e-15 0)
(3 -4.97045e-16 0)
(3 3.1168e-16 0)
(3 7.62069e-16 0)
(3 1.07794e-15 0)
(3 6.41014e-16 0)
(3 -6.82156e-16 0)
(3 -4.32259e-16 0)
(3 -1.85644e-16 0)
(3 1.27838e-16 0)
(3 -4.38292e-16 0)
(3 -8.83678e-16 0)
(3 -3.1495e-15 0)
(3 -5.19772e-15 0)
(3 -4.3039e-15 0)
(3 -1.62429e-15 0)
(3 -1.17102e-15 0)
(3 -7.93358e-16 0)
(3 -2.36678e-16 0)
(3 -6.38865e-16 0)
(3 -3.63824e-16 0)
(3 -3.80785e-16 0)
(3 -1.74901e-16 0)
(3 -8.28993e-17 0)
(3 2.67424e-16 0)
(3 3.67027e-16 0)
(3 -6.58508e-16 0)
(3 -2.14816e-16 0)
(3 -6.25343e-16 0)
(3 -7.44902e-16 0)
(3 -3.5508e-16 0)
(3 -3.40577e-16 0)
(3 -2.03792e-15 0)
(3 -2.95885e-15 0)
(3 -1.80358e-15 0)
(3 -8.65359e-16 0)
(3 3.50933e-17 0)
(3 6.25732e-16 0)
(3 -2.58002e-16 0)
(3 4.19377e-15 0)
(3 4.37669e-15 0)
(3 2.91187e-15 0)
(3 4.4021e-15 0)
(3 5.53273e-15 0)
(3 4.89898e-15 0)
(3 2.86693e-15 0)
(3 1.40472e-15 0)
(3 1.25448e-16 0)
(3 3.85679e-17 0)
(3 -1.35169e-15 0)
(3 -2.58732e-15 0)
(3 -3.79189e-15 0)
(3 -5.1011e-15 0)
(3 -1.23611e-15 0)
(3 2.26268e-11 0)
(3 2.54976e-08 0)
(3 6.12609e-06 0)
(2.99989 0.000308421 0)
(2.99541 0.00963252 0)
(2.93462 0.117712 0)
(2.62804 0.484525 0)
(2.24952 0.960312 0)
(2.1876 1.02739 0)
(2.18646 0.923001 0)
(2.23059 0.884609 0)
(2.23787 0.890649 0)
(2.22881 0.929678 0)
(2.18708 0.971281 0)
(2.15267 0.980676 0)
(2.15215 0.974134 0)
(2.16788 0.955694 0)
(2.19863 0.918114 0)
(2.21081 0.896804 0)
(2.21981 0.897903 0)
(2.21733 0.908066 0)
(2.20481 0.922093 0)
(2.19501 0.926254 0)
(2.19789 0.919637 0)
(2.20571 0.909759 0)
(2.21704 0.896366 0)
(2.22276 0.885615 0)
(2.22549 0.883968 0)
(2.22513 0.889214 0)
(2.22495 0.89203 0)
(2.22764 0.887887 0)
(2.23316 0.881879 0)
(2.24076 0.872895 0)
(2.24403 0.867041 0)
(2.24805 0.867684 0)
(2.2499 0.872087 0)
(2.25134 0.87495 0)
(2.2562 0.873037 0)
(2.26096 0.865974 0)
(2.2644 0.85885 0)
(2.26527 0.853019 0)
(2.26353 0.847757 0)
(2.26234 0.844077 0)
(2.26419 0.843936 0)
(2.26864 0.843919 0)
(2.27506 0.841708 0)
(2.28246 0.838235 0)
(2.28831 0.833217 0)
(2.29004 0.82754 0)
(2.28785 0.823646 0)
(2.28803 0.822796 0)
(2.28838 0.822996 0)
(2.28864 0.823925 0)
(2.28735 0.827096 0)
(2.28468 0.834146 0)
(2.28144 0.845492 0)
(2.27289 0.857856 0)
(2.26214 0.85788 0)
(2.25615 0.857573 0)
(2.25069 0.855639 0)
(2.24581 0.851793 0)
(2.24336 0.848819 0)
(2.24357 0.846923 0)
(2.24546 0.847203 0)
(2.25073 0.848212 0)
(2.25851 0.849844 0)
(2.26382 0.850179 0)
(2.27157 0.848321 0)
(2.27802 0.844721 0)
(2.28286 0.839171 0)
(2.28337 0.831712 0)
(2.28119 0.824212 0)
(2.28263 0.818971 0)
(2.28598 0.818404 0)
(2.29198 0.819495 0)
(2.30408 0.821185 0)
(2.31207 0.821255 0)
(2.32014 0.819964 0)
(2.3267 0.815792 0)
(2.32965 0.80843 0)
(2.32538 0.795948 0)
(2.32164 0.785554 0)
(2.32453 0.783148 0)
(2.32893 0.785078 0)
(2.33681 0.788423 0)
(2.34917 0.793919 0)
(2.3576 0.796254 0)
(2.36397 0.795261 0)
(2.36962 0.78944 0)
(2.37238 0.779238 0)
(2.36956 0.764681 0)
(2.36628 0.749374 0)
(2.36804 0.741571 0)
(2.3711 0.741506 0)
(2.3783 0.745019 0)
(2.38825 0.754463 0)
(2.39254 0.760288 0)
(2.3961 0.763299 0)
(2.39563 0.762365 0)
(2.39042 0.754698 0)
(2.39045 0.745123 0)
(2.39506 0.740077 0)
(2.40318 0.736297 0)
(2.41685 0.72838 0)
(2.42302 0.721425 0)
(2.42688 0.712646 0)
(2.4246 0.702272 0)
(2.41556 0.689644 0)
(2.4101 0.680964 0)
(2.41133 0.679304 0)
(2.41382 0.68152 0)
(2.42057 0.687767 0)
(2.43271 0.699682 0)
(2.44368 0.710082 0)
(2.4475 0.712111 0)
(2.4504 0.709302 0)
(2.44494 0.697641 0)
(2.43193 0.674789 0)
(2.431 0.659354 0)
(2.43727 0.654334 0)
(2.44488 0.649933 0)
(2.4534 0.645468 0)
(2.46036 0.641746 0)
(2.46568 0.639384 0)
(2.46986 0.638418 0)
(2.47334 0.638747 0)
(2.47747 0.641526 0)
(2.48235 0.647375 0)
(2.48664 0.651799 0)
(2.48904 0.650618 0)
(2.48756 0.642351 0)
(2.47821 0.6256 0)
(2.4673 0.603462 0)
(2.46722 0.592029 0)
(2.47146 0.587997 0)
(2.47533 0.58705 0)
(2.48509 0.588505 0)
(2.50305 0.597736 0)
(2.52026 0.607588 0)
(2.52528 0.608379 0)
(2.52738 0.604157 0)
(2.52163 0.592516 0)
(2.50459 0.569708 0)
(2.49714 0.554239 0)
(2.50121 0.549818 0)
(2.50622 0.548388 0)
(2.512 0.546847 0)
(2.5187 0.54629 0)
(2.52925 0.549413 0)
(2.54273 0.558731 0)
(2.55449 0.569472 0)
(2.55921 0.573301 0)
(2.56183 0.57158 0)
(2.55872 0.563138 0)
(2.54492 0.544833 0)
(2.53077 0.523455 0)
(2.53057 0.514845 0)
(2.53446 0.512901 0)
(2.53844 0.512695 0)
(2.54844 0.514789 0)
(2.56634 0.525079 0)
(2.58343 0.535381 0)
(2.58859 0.536571 0)
(2.59236 0.532866 0)
(2.59007 0.523476 0)
(2.57746 0.505807 0)
(2.56505 0.488485 0)
(2.56451 0.482315 0)
(2.56663 0.481961 0)
(2.57107 0.483492 0)
(2.58227 0.489932 0)
(2.5964 0.499815 0)
(2.60224 0.502761 0)
(2.6057 0.501511 0)
(2.60626 0.495069 0)
(2.5997 0.483643 0)
(2.59703 0.473304 0)
(3 -8.62554e-17 0)
(3 -7.11628e-16 0)
(3 -1.0484e-15 0)
(3 -1.91306e-15 0)
(3 -2.60672e-15 0)
(3 -2.33852e-15 0)
(3 -3.4144e-15 0)
(3 -3.97258e-15 0)
(3 -3.97172e-15 0)
(3 -4.04093e-15 0)
(3 -3.79222e-15 0)
(3 -3.94271e-15 0)
(3 -4.23689e-15 0)
(3 -3.63445e-15 0)
(3 -3.56541e-15 0)
(3 -2.11765e-15 0)
(3 1.7525e-15 0)
(3 2.92241e-15 0)
(3 2.29759e-15 0)
(3 6.08194e-16 0)
(3 -4.26125e-16 0)
(3 -5.27364e-16 0)
(3 5.00481e-16 0)
(3 9.62892e-16 0)
(3 7.48094e-16 0)
(3 3.39654e-17 0)
(3 1.50532e-17 0)
(3 1.43606e-15 0)
(3 1.56802e-15 0)
(3 1.64846e-15 0)
(3 8.46924e-16 0)
(3 -4.98684e-16 0)
(3 -7.88231e-17 0)
(3 3.00256e-16 0)
(3 3.9835e-16 0)
(3 9.99564e-16 0)
(3 1.88422e-15 0)
(3 4.0831e-15 0)
(3 4.88529e-15 0)
(3 4.69955e-15 0)
(3 3.56617e-15 0)
(3 3.33798e-15 0)
(3 2.90376e-15 0)
(3 2.52034e-15 0)
(3 1.70576e-15 0)
(3 8.19476e-16 0)
(3 1.18361e-15 0)
(3 1.08486e-15 0)
(3 -7.22354e-16 0)
(3 -1.88389e-15 0)
(3 -3.20247e-15 0)
(3 -5.40835e-15 0)
(3 -6.23397e-15 0)
(3 -3.12984e-15 0)
(3 5.01242e-12 0)
(3 2.29928e-09 0)
(3 6.06287e-07 0)
(2.99995 9.3615e-05 0)
(2.9971 0.00616093 0)
(2.93949 0.101788 0)
(2.64826 0.52731 0)
(2.39225 0.887877 0)
(2.28354 0.849602 0)
(2.24438 0.870784 0)
(2.2321 0.91578 0)
(2.18777 0.980424 0)
(2.13922 1.00331 0)
(2.13689 0.994144 0)
(2.15386 0.969664 0)
(2.19576 0.921255 0)
(2.21585 0.889879 0)
(2.22644 0.892068 0)
(2.22437 0.904972 0)
(2.20734 0.925696 0)
(2.18918 0.933788 0)
(2.18941 0.928923 0)
(2.19575 0.920891 0)
(2.21077 0.906404 0)
(2.21948 0.891503 0)
(2.22456 0.885732 0)
(2.22597 0.890318 0)
(2.2235 0.89702 0)
(2.22353 0.896815 0)
(2.22754 0.891257 0)
(2.23454 0.885255 0)
(2.2419 0.876369 0)
(2.2451 0.873673 0)
(2.24778 0.877158 0)
(2.24867 0.881144 0)
(2.25162 0.879686 0)