/*--------------------------------*- C++ -*----------------------------------*\
  =========                 |
  \\      /  F ield         | OpenFOAM: The Open Source CFD Toolbox
   \\    /   O peration     | Website:  https://openfoam.org
    \\  /    A nd           | Version:  7
     \\/     M anipulation  |
\*---------------------------------------------------------------------------*/
FoamFile
{
    version     2.0;
    format      ascii;
    class       volScalarField;
    location    "1.8";
    object      p;
}
// * * * * * * * * * * * * * * * * * * * * * * * * * * * * * * * * * * * * * //

dimensions      [1 -1 -2 0 0 0 0];

internalField   nonuniform List<scalar> 
16512
(
1
1
1
1
1
1
1
1
1
1
1
1
1
1
1
1
1
1
1
1
1
1
1
1
1
1
1
1
1
1
1
1
1
1
1
1.20655
7.24106
10.6095
10.7561
10.9647
11.1525
11.3306
11.494
11.6393
11.7664
11.8673
11.9429
11.9955
1
1
1
1
1
1
1
1
1
1
1
1
1
1
1
1
1
1
1
1
1
1
1
1
1
1
1
1
1
1
1
1
1
1
1
1.17138
7.08384
10.5833
10.7442
10.9446
11.1286
11.3031
11.4635
11.6051
11.7267
11.8196
11.8852
11.9304
1
1
1
1
1
1
1
1
1
1
1
1
1
1
1
1
1
1
1
1
1
1
1
1
1
1
1
1
1
1
1
1
1
1
1
1.05942
6.74852
10.5368
10.6907
10.8862
11.0682
11.2383
11.3942
11.5322
11.6524
11.7465
11.8133
11.864
1
1
1
1
1
1
1
1
1
1
1
1
1
1
1
1
1
1
1
1
1
1
1
1
1
1
1
1
1
1
1
1
1
1
1
1.00244
6.23481
10.4393
10.6121
10.8018
10.9818
11.1464
11.2975
11.4312
11.5466
11.6315
11.684
11.7195
1
1
1
1
1
1
1
1
1
1
1
1
1
1
1
1
1
1
1
1
1
1
1
1
1
1
1
1
1
1
1
1
1
1
1
1.00001
5.54727
10.2755
10.5166
10.6941
10.8686
11.0218
11.1586
11.2731
11.3669
11.4381
11.4838
11.54
1
1
1
1
1
1
1
1
1
1
1
1
1
1
1
1
1
1
1
1
1
1
1
1
1
1
1
1
1
1
1
1
1
1
1
1
4.71014
10.021
10.4062
10.5695
10.73
10.8644
10.9817
11.0802
11.1619
11.2238
11.2415
11.2045
1
1
1
1
1
1
1
1
1
1
1
1
1
1
1
1
1
1
1
1
1
1
1
1
1
1
1
1
1
1
1
1
1
1
1
1
3.77181
9.62275
10.3005
10.4538
10.5947
10.7001
10.7783
10.8331
10.853
10.8176
10.7549
10.7147
1
1
1
1
1
1
1
1
1
1
1
1
1
1
1
1
1
1
1
1
1
1
1
1
1
1
1
1
1
1
1
1
1
1
1
1
2.75083
9.00434
10.222
10.3453
10.4545
10.5272
10.5601
10.5613
10.5145
10.4338
10.3076
10.2991
1
1
1
1
1
1
1
1
1
1
1
1
1
1
1
1
1
1
1
1
1
1
1
1
1
1
1
1
1
1
1
1
1
1
1
1
1.73353
8.10949
10.1869
10.2163
10.305
10.3429
10.3254
10.2645
10.1178
9.85029
9.07508
7.20616
1
1
1
1
1
1
1
1
1
1
1
1
1
1
1
1
1
1
1
1
1
1
1
1
1
1
1
1
1
1
1
1
1
1
1
1
1.07062
6.83178
10.1227
10.0186
10.0627
10.0838
10.0374
9.91699
9.67701
9.20424
8.40602
6.35211
1
1
1
1
1
1
1
1
1
1
1
1
1
1
1
1
1
1
1
1
1
1
1
1
1
1
1
1
1
1
1
1
1
1
1
1
1.00038
5.11498
9.56033
9.78929
9.84909
9.82087
9.73463
9.55682
9.25515
8.68963
7.85546
5.90632
1
1
1
1
1
1
1
1
1
1
1
1
1
1
1
1
1
1
1
1
1
1
1
1
1
1
1
1
1
1
1
1
1
1
1
1
0.999995
3.24072
8.83866
9.637
9.65634
9.61824
9.49232
9.25618
8.88753
8.30778
7.40313
5.80882
1
1
1
1
1
1
1
1
1
1
1
1
1
1
1
1
1
1
1
1
1
1
1
1
1
1
1
1
1
1
1
1
1
1
1
1
0.999999
1.64981
7.83331
9.64464
9.4984
9.38159
9.21675
8.94696
8.54094
7.98706
7.06593
5.83113
1
1
1
1
1
1
1
1
1
1
1
1
1
1
1
1
1
1
1
1
1
1
1
1
1
1
1
1
1
1
1
1
1
1
1
1
1
1.04611
6.04644
9.15976
9.17855
9.10626
8.94586
8.6733
8.27825
7.7026
6.86611
5.90495
1
1
1
1
1
1
1
1
1
1
1
1
1
1
1
1
1
1
1
1
1
1
1
1
1
1
1
1
1
1
1
1
1
1
1
1
1
0.999989
3.51943
8.4738
9.07918
8.96896
8.77454
8.46265
8.05834
7.47838
6.75556
5.97028
1
1
1
1
1
1
1
1
1
1
1
1
1
1
1
1
1
1
1
1
1
1
1
1
1
1
1
1
1
1
1
1
1
1
1
1
1
0.999987
1.44866
7.44344
9.13389
8.82976
8.56029
8.2241
7.83071
7.30733
6.69855
6.03936
1
1
1
1
1
1
1
1
1
1
1
1
1
1
1
1
1
1
1
1
1
1
1
1
1
1
1
1
1
1
1
1
1
1
1
1
1
0.999998
1.01855
5.35394
8.60159
8.46995
8.27936
7.99788
7.64683
7.19089
6.66028
6.08776
1
1
1
1
1
1
1
1
1
1
1
1
1
1
1
1
1
1
1
1
1
1
1
1
1
1
1
1
1
1
1
1
1
1
1
1
1
1
0.999915
2.58003
7.83356
8.38113
8.17615
7.89314
7.54499
7.11989
6.6345
6.12795
1
1
1
1
1
1
1
1
1
1
1
1
1
1
1
1
1
1
1
1
1
1
1
1
1
1
1
1
1
1
1
1
1
1
1
1
1
1
0.999977
1.18274
5.90476
8.25932
8.04039
7.77858
7.44568
7.05172
6.61197
6.15531
1
1
1
1
1
1
1
1
1
1
1
1
1
1
1
1
1
1
1
1
1
1
1
1
1
1
1
1
1
1
1
1
1
1
1
1
1
1
0.999996
1.00247
2.97324
7.46825
7.93031
7.67531
7.36283
6.99622
6.60113
6.187
1
1
1
1
1
1
1
1
1
1
1
1
1
1
1
1
1
1
1
1
1
1
1
1
1
1
1
1
1
1
1
1
1
1
1
1
1
1
1
0.999999
1.27258
5.70933
7.88315
7.61956
7.33828
6.98641
6.61045
6.21597
1
1
1
1
1
1
1
1
1
1
1
1
1
1
1
1
1
1
1
1
1
1
1
1
1
1
1
1
1
1
1
1
1
1
1
1
1
1
1
1
1.00598
2.68532
7.02222
7.57306
7.28039
6.94472
6.58714
6.21602
1
1
1
1
1
1
1
1
1
1
1
1
1
1
1
1
1
1
1
1
1
1
1
1
1
1
1
1
1
1
1
1
1
1
1
1
1
1
1
1
1.00002
1.20533
5.13694
7.56048
7.24683
6.92517
6.58569
6.2385
1
1
1
1
1
1
1
1
1
1
1
1
1
1
1
1
1
1
1
1
1
1
1
1
1
1
1
1
1
1
1
1
1
1
1
1
1
1
1
1
1
1.00371
2.2268
6.41761
7.20269
6.89408
6.58385
6.26221
1
1
1
1
1
1
1
1
1
1
1
1
1
1
1
1
1
1
1
1
1
1
1
1
1
1
1
1
1
1
1
1
1
1
1
1
1
1
1
1
1
1.00001
1.10833
4.0331
7.03304
6.91225
6.62393
6.31874
1
1
1
1
1
1
1
1
1
1
1
1
1
1
1
1
1
1
1
1
1
1
1
1
1
1
1
1
1
1
1
1
1
1
1
1
1
1
1
1
1
1
1.00147
1.64524
5.52865
6.92111
6.64328
6.33643
1
1
1
1
1
1
1
1
1
1
1
1
1
1
1
1
1
1
1
1
1
1
1
1
1
1
1
1
1
1
1
1
1
1
1
1
1
1
1
1
1
1
1.00001
1.03294
2.74219
6.16354
6.65504
6.37543
1
1
1
1
1
1
1
1
1
1
1
1
1
1
1
1
1
1
1
1
1
1
1
1
1
1
1
1
1
1
1
1
1
1
1
1
1
1
1
1
1
1
1
1.00033
1.2139
4.07706
6.44229
6.43202
1
1
1
1
1
1
1
1
1
1
1
1
1
1
1
1
1
1
1
1
1
1
1
1
1
1
1
1
1
1
1
1
1
1
1
1
1
1
1
1
1
1
1
1
1.00512
1.70769
5.02275
6.38036
1
1
1
1
1
1
1
1
1
1
1
1
1
1
1
1
1
1
1
1
1
1
1
1
1
1
1
1
1
1
1
1
1
1
1
1
1
1
1
1
1
1
1
1
1.00003
1.04062
2.43301
5.55289
1
1
1
1
1
1
1
1
1
1
1
1
1
1
1
1
1
1
1
1
1
1
1
1
1
1
1
1
1
1
1
1
1
1
1
1
1
1
1
1
1
1
1
1
1
1.0005
1.15357
3.27574
1
1
1
1
1
1
1
1
1
1
1
1
1
1
1
1
1
1
1
1
1
1
1
1
1
1
1
1
1
1
1
1
1
1
1
1
1
1
1
1
1
1
1
1
1
1
1.00346
1.3904
1
1
1
1
1
1
1
1
1
1
1
1
1
1
1
1
1
1
1
1
1
1
1
1
1
1
1
1
1
1
1
1
1
1
1
1
1
1
1
1
1
1
1
1
1
1
1.00002
1.01552
1
1
1
1
1
1
1
1
1
1
1
1
1
1
1
1
1
1
1
1
1
1
1
1
1
1
1
1
1
1
1
1
1
1
1
1
1
1
1
1
1
1
1
1
1
1
1
1.00015
1
1
1
1
1
1
1
1
1
1
1
1
1
1
1
1
1
1
1
1
1
1
1
1
1
1
1
1
1
1
1
1
1
1
1
1
1
1
1
1
1
1
1
1
1
1
1
1
1
1
1
1
1
1
1
1
1
1
1
1
1
1
1
1
1
1
1
1
1
1
1
1
1
1
1
1
1
1
1
1
1
1
1
1
1
1
1
1
1
1
1
1
1
1
1
1
1
1
1
1
1
1
1
1
1
1
1
1
1
1
1
1
1
1
1
1
1
1
1
1
1
1
1
1
1
1
1
1
1
1
1
1
1
1
1
1
1
1
1
1
1
1
1
1
1
1
1
1
1
1
1
1
1
1
1
1
1
1
1
1
1
1
1
1
1
1
1
1
1
1
1
1
1
1
1
1
1
1
1
1
1
1
1
1
1
1
1
1
1
1
1
1
1
1
1
1
1
1
1
1
1
1
1
1
1
1
1
1
1
1
1
1
1
1
1
1
1
1
1
1
1
1
1
1
1
1
1
1
1
1
1
1
1
1
1
1
1
1
1
1
1
1
1
1
1
1
1
1
1
1
1
1
1
1
1
1
1
1
1
1
1
1
1
1
1
1
1
1
1
1
1
1
1
1
1
1
1
1
1
1
1
1
1
1
1
1
1
1
1
1
1
1
1
1
1
1
1
1
1
1
1
1
1
1
1
1
1
1
1
1
1
1
1
1
1
1
1
1
1
1
1
1
1
1
1
1
1
1
1
1
1
1
1
1
1
1
1
1
1
1
1
1
1
1
1
1
1
1
1
1
1
1
1
1
1
1
1
1
1
1
1
1
1
1
1
1
1
1
1
1
1
1
1
1
1
1
1
1
1
1
1
1
1
1
1
1
1
1
1
1
1
1
1
1
1
1
1
1
1
1
1
1
1
1
1
1
1
1
1
1
1
1
1
1
1
1
1
1
1
1
1
1
1
1
1
1
1
1
1
1
1
1
1
1
1
1
1
1
1
1
1
1
1
1
1
1
1
1
1
1
1
1
1
1
1
1
1
1
1
1
1
1
1
1
1
1
1
1
1
1
1
1
1
1
1
1
1
1
1
1
1
1
1
1
1
1
1
1
1
1
1
1
1
1
1
1
1
1
1
1
1
1
1
1
1
1
1
1
1
1
1
1
1
1
1
1
1
1
1
1
1
1
1
1
1
1
1
1
1
1
1
1
1
1
1
1
1
1
1
1
1
1
1
1
1
1
1
1
1
1
1
1
1
1
1
1
1
1
1
1
1
1
1
1
1
1
1
1
1
1
1
1
1
1
1
1
1
1
1
1
1
1
1
1
1
1
1
1
1
1
1
1
1
1
1
1
1
1
1
1
1
1
1
1
1
1
1
1
1
1
1
1
1
1
1
1
1
1
1
1
1
1
1
1
1
1
1
1
1
1
1
1
1
1
1
1
1
1
1
1
1
1
1
1
1
1
1
1
1
1
1
1
1
1
1
1
1
1
1
1
1
1
1
1
1
1
1
1
1
1
1
1
1
1
1
1
1
1
1
1
1
1
1
1
1
1
1
1
1
1
1
1
1
1
1
1
1
1
1
1
1
1
1
1
1
1
1
1
1
1
1
1
1
1
1
1
1
1
1
1
1
1
1
1
1
1
1
1
1
1
1
1
1
1
1
1
1
1
1
1
1
1
1
1
1
1
1
1
1
1
1
1
1
1
1
1
1
1
1
1
1
1
1
1
1
1
1
1
1
1
1
1
1
1
1
1
1
1
1
1
1
1
1
1
1
1
1
1
1
1
1
1
1
1
1
1
1
1
1
1
1
1
1
1
1
1
1
1
1
1
1
1
1
1
1
1
1
1
1
1
1
1
1
1
1
1
1
1
1
1
1
1
1
1
1
1
1
1
1
1
1
1
1
1
1
1
1
1
1
1
1
1
1
1
1
1
1
1
1
1
1
1
1
1
1
1
1
1
1
1
1
1
1
1
1
1
1
1
1
1
1
1
1
1
1
1
1
1
1
1
1
1
1
1
1
1
1
1
1
1
1
1
1
1
1
1
1
1
1
1
1
1
1
1
1
1
1
1
1
1
1
1
1
1
1
1
1
1
1
1
1
1
1
1
1
1
1
1
1
1
1
1
1
1
1
1
1
1
1
1
1
1
1
1
1
1
1
1
1
1
1
1
1
1
1
1
1
1
1
1
1
1
1
1
1
1
1
1
1
1
1
1
1
1
1
1
1
1
1
1
1
1
1
1
1
1
1
1
1
1
1
1
1
1
1
1
1
1
1
1
1
1
1
1
1
1
1
1
1
1
1
1
1
1
1
1
1
1
1
1
1
1
1
1
1
1
1
1
1
1
1
1
1
1
1
1
1
1
1
1
1
1
1
1
1
1
1
1
1
1
1
1
1
1
1
1
1
1
1
1
1
1
1
1
1
1
1
1
1
1
1
1
1
1
1
1
1
1
1
1
1
1
1
1
1
1
1
1
1
1
1
1
1
1
1
1
1
1
1
1
1
1
1
1
1
1
1
1
1
1
1
1
1
1
1
1
1
1
1
1
1
1
1
1
1
1
1
1
1
1
1
1
1
1
1
1
1
1
1
1
1
1
1
1
1
1
1
1
1
1
1
1
1
1
1
1
1
1
1
1
1
1
1
1
1
1
1
1
1
1
1
1
1
1
1
1
1
1
1
1
1
1
1
1
1
1
1
1
1
1
1
1
1
1
1
1
1
1
1
1
1
1
1
1
1
1
1
1
1
1
1
1
1
1
1
1
1
1
1
1
1
1
1
1
1
1
1
1
1
1
1
1
1
1
1
1
1
1
1
1
1
1
1
1
1
1
1
1
1
1
1
1
1
1
1
1
1
1
1
1
1
1
1
1
1
1
1
1
1
1
1
1
1
1
1
1
1
1
1
1
1
1
1
1
1
1
1
1
1
1
1
1
1
1
1
1
1
1
1
1
1
1
1
1
1
1
1
1
1
1
1
1
1
1
1
1
1
1
1
1
1
1
1
1
1
1
1
1
1
1
1
1
1
1
1
1
1
1
1
1
1
1
1
1
1
1
1
1
1
1
1
1
1
1
1
1
1
1
1
1
1
1
1
1
1
1
1
1
1
1
1
1
1
1
1
1
1
1
1
1
1
1
1
1
1
1
1
1
1
1
1
1
1
1
1
1
1
1
1
1
1
1
1
1
1
1
1
1
1
1
1
1
1
1
1
1
1
1
1
1
1
1
1
1
1
1
1
1
1
1
1
1
1
1
1
1
1
1
1
1
1
1
1
1
1
1
1
1
1
1
1
1
1
1
1
1
1
1
1
1
1
1
1
1
1
1
1
1
1
1
1
1
1
1
1
1
1
1
1
1
1
1
1
1
1
1
1
1
1
1
1
1
1
1
1
1
1
1
1
1
1
1
1
1
1
1
1
1
1
1
1
1
1
1
1
1
1
1
1
1
1
1
1
1
1
1
1
1
1
1
1
1
1
1
1
1
1
1
1
1
1
1
1
1
1
1
1
1
1
1
1
1
1
1
1
1
1
1
1
1
1
1
1
1
1
1
1
1
1
1
1
1
1
1
1
1
1
1
1
1
1
1
1
1
1
1
1
1
1
1
1
1
1
1
1
1
1
1
1
1
1
1
1
1
1
1
1
1
1
1
1
1
1
1
1
1
1
1
1
1
1
1
1
1
1
1
1
1
1
1
1
1
1
1
1
1
1
1
1
1
1
1
1
1
1
1
1
1
1
1
1
1
1
1
1
1
1
1
1
1
1
1
1
1
1
1
1
1
1
1
1
1
1
1
1
1
1
1
1
1
1
1
1
1
1
1
1
1
1
1
1
1
1
1
1
1
1
1
1
1
1
1
1
1
1
1
1
1
1
1
1
1
1
1
1
1
1
1
1
1
1
1
1
1
1
1
1
1
1
1
1
1
1
1
1
1
1
1
1
1
1
1
1
1
1
1
1
1
1
1
1
1
1
1
1
1
1
1
1
1
1
1
1
1
1
1
1
1
1
1
1
1
1
1
1
1
1
1
1
1
1
1
1
1
1
1
1
1
1
1
1
1
1
1
1
1
1
1
1
1
1
1
1
1
1
1
1
1
1
1
1
1
1
1
1
1
1
1
1
1
1
1
1
1
1
1
1
1
1
1
1
1
1
1
1
1
1
1
1
1
1
1
1
1
1
1
1
1
1
1
1
1
1
1
1
1
1
1
1
1
1
1
1
1
1
1
1
1
1
1
1
1
1
1
1
1
1
1
1
1
1
1
1
1
1
1
1
1
1
1
1
1
1
1
1
1
1
1
1
1
1
1
1
1
1
1
1
1
1
1
1
1
1
1
1
1
1
1
1
1
1
1
1
1
1
1
1
1
1
1
1
1
1
1
1
1
1
1
1
1
1
1
1
1
1
1
1
1
1
1
1
1
1
1
1
1
1
1
1
1
1
1
1
1
1
1
1
1
1
1
1
1
1
1
1
1
1
1
1
1
1
1
1
1
1
1
1
1
1
1
1
1
1
1
1
1
1
1
1
1
1
1
1
1
1
1
1
1
1
1
1
1
1
1
1
1
1
1
1
1
1
1
1
1
1
1
1
1
1
1
1
1
1
1
1
1
1
1
1
1
1
1
1
1
1
1
1
1
1
1
1
1
1
1
1
1
1
1
1
1
1
1
1
1
1
1
1
1
1
1
1
1
1
1
1
1
1
1
1
1
1
1
1
1
1
1
1
1
1
1
1
1
1
1
1
1
1
1
1
1
1
1
1
1
1
1
1
1
1
1
1
1
1
1
1
1
1
1
1
1
1
1
1
1
1
1
1
1
1
1
1
1
1
1
1
1
1
1
1
1
1
1
1
1
1
1
1
1
1
1
1
1
1
1
1
1
1
1
1
1
1
1
1
1
1
1
1
1
1
1
1
1
1
1
1
1
1
1
1
1
1
1
1
1
1
1
1
1
1
1
1
1
1
1
1
1
1
1
1.59872
0.348157
0.168234
0.188007
0.21393
0.247417
0.337402
0.483555
0.6524
0.773399
0.890622
1.02029
1.09647
1.16085
1.2355
1.26754
1.26449
1.26284
1.26846
1.25937
1.26592
1.29327
1.32029
1.33076
1.33421
1.32763
1.3136
1.30605
1.30939
1.32165
3.03776
5.41062
5.74515
5.89447
6.01075
6.12158
6.21525
6.2706
6.29594
6.32037
6.3597
6.39491
6.40676
6.39865
6.38196
6.38066
6.39835
6.40816
2.80625
1.45149
0.835665
0.682006
0.599135
0.516086
0.505684
0.510929
0.523045
0.565416
0.632055
0.714282
0.823564
0.925187
1.01923
1.10089
1.14438
1.17494
1.20117
1.22685
1.24737
1.27671
1.30183
1.31076
1.31986
1.3233
1.31798
1.31227
1.30819
1.30777
2.75058
5.29646
5.75912
5.91106
6.01279
6.11527
6.21458
6.27795
6.30266
6.32401
6.36162
6.39599
6.40763
6.40221
6.38798
6.38364
6.39364
6.39935
3.61617
2.43932
1.70079
1.25892
1.02862
0.812454
0.701746
0.656107
0.589231
0.591266
0.633359
0.678898
0.732225
0.797247
0.866753
0.940674
1.0111
1.07894
1.14653
1.22505
1.26652
1.29583
1.31106
1.31463
1.32015
1.32626
1.32541
1.32396
1.3217
1.3137
2.2346
5.05899
5.79974
5.96131
6.04344
6.10846
6.19491
6.2708
6.30856
6.32191
6.3458
6.37615
6.39177
6.39082
6.38172
6.38245
6.39388
6.39384
4.255
3.16189
2.39769
1.89845
1.52916
1.26419
1.06894
0.967737
0.851393
0.776484
0.765562
0.731939
0.707922
0.716272
0.738521
0.770472
0.833589
0.920017
1.00787
1.1052
1.17075
1.20459
1.23624
1.26604
1.28947
1.31672
1.33807
1.33897
1.34068
1.33409
1.61691
4.56548
5.83658
5.98705
6.06727
6.10537
6.16587
6.24103
6.29852
6.32625
6.34709
6.37233
6.38745
6.38845
6.38098
6.38001
6.3877
6.38626
4.68756
3.7425
2.97708
2.45847
2.02739
1.66235
1.45901
1.30181
1.15881
1.02304
0.940929
0.868164
0.781503
0.75162
0.750139
0.754781
0.764718
0.790263
0.837906
0.916114
1.00958
1.0789
1.13907
1.193
1.22352
1.25849
1.28777
1.30203
1.32823
1.33859
1.37747
3.77169
5.81903
6.02097
6.07617
6.11384
6.15322
6.20619
6.25929
6.2966
6.31885
6.33923
6.3573
6.36726
6.36437
6.3576
6.35882
6.35998
4.99749
4.17836
3.47705
2.91217
2.47439
2.09773
1.82449
1.61633
1.43305
1.29272
1.18576
1.09235
0.991002
0.929837
0.886973
0.83634
0.807731
0.811528
0.808111
0.811901
0.832456
0.874309
0.931325
1.01742
1.09401
1.16445
1.21813
1.2574
1.28916
1.31528
1.31934
2.74512
5.66351
6.0974
6.06164
6.09644
6.13983
6.18414
6.22424
6.25262
6.28063
6.31245
6.33473
6.34694
6.34952
6.34175
6.34333
6.31024
5.20865
4.46989
3.85742
3.32777
2.84212
2.46693
2.17914
1.93089
1.7196
1.55087
1.41558
1.28852
1.1758
1.10219
1.04013
0.975271
0.913371
0.883434
0.849832
0.819004
0.819389
0.82344
0.831441
0.858599
0.915373
0.987633
1.07367
1.14481
1.19285
1.26037
1.27717
1.85127
5.34126
6.1665
6.0381
6.03739
6.0704
6.10916
6.14633
6.18327
6.21608
6.24296
6.26738
6.27835
6.269
6.25038
6.21079
6.21427
5.3678
4.71288
4.15798
3.64742
3.16169
2.8108
2.50374
2.22041
1.96947
1.80952
1.65501
1.51671
1.37571
1.28435
1.20338
1.13177
1.07233
1.03027
0.982438
0.911699
0.871802
0.861844
0.846554
0.840491
0.845896
0.863932
0.9008
0.952702
1.01921
1.10226
1.15858
1.2765
4.76423
6.15874
5.99238
5.99376
6.01746
6.042
6.04935
6.06253
6.10839
6.1643
6.18816
6.18815
6.16765
6.14237
6.06258
6.16271
5.49159
4.90618
4.40051
3.91244
3.45556
3.1015
2.78401
2.48401
2.24131
2.05285
1.87039
1.70716
1.5785
1.48359
1.39014
1.28567
1.20073
1.14823
1.0908
1.0278
0.974113
0.939041
0.903544
0.861096
0.855636
0.860774
0.866094
0.875305
0.897532
0.92469
0.982377
1.01574
3.8309
5.90147
5.8267
5.86728
5.88273
5.89839
5.92661
5.98392
6.02486
6.0553
6.06959
6.06442
6.02251
5.89852
5.5409
4.5411
5.5982
5.07247
4.602
4.13238
3.70829
3.36395
3.04875
2.71851
2.48669
2.28307
2.0961
1.90308
1.76695
1.65769
1.55512
1.45513
1.36447
1.29087
1.21843
1.15045
1.10196
1.0612
1.01837
0.954995
0.918704
0.907041
0.890901
0.878757
0.87748
0.874052
0.879597
0.884864
2.72197
5.50292
5.70758
5.78096
5.817
5.82573
5.84562
5.87672
5.91991
5.9483
5.95106
5.89805
5.79363
5.60223
5.09809
4.17581
5.68169
5.20656
4.75711
4.32979
3.92993
3.58684
3.25899
2.94435
2.70882
2.50219
2.29646
2.09161
1.9588
1.83042
1.71174
1.59718
1.51928
1.43701
1.35605
1.27114
1.21185
1.16524
1.11849
1.06824
1.02051
0.979909
0.940669
0.897877
0.884337
0.880733
0.881237
0.881598
1.65265
5.05202
5.62985
5.64218
5.68991
5.71472
5.74807
5.78599
5.81432
5.80908
5.77177
5.71216
5.60008
5.3133
4.82725
3.97963
5.74883
5.31649
4.90324
4.49033
4.1101
3.78384
3.46384
3.15932
2.90884
2.69274
2.47753
2.28968
2.14503
2.00596
1.86446
1.74032
1.65726
1.57216
1.49272
1.40719
1.33895
1.27386
1.21426
1.17178
1.13737
1.09587
1.04798
0.9797
0.948113
0.92975
0.912412
0.901045
0.983462
3.89115
5.52872
5.58467
5.61616
5.6348
5.68033
5.71366
5.71474
5.69259
5.62933
5.53528
5.36062
5.10312
4.65267
3.95657
5.80317
5.40377
5.01215
4.61908
4.27426
3.95622
3.63336
3.34533
3.10746
2.8808
2.64858
2.46741
2.31328
2.16844
2.02497
1.90055
1.79814
1.69618
1.60548
1.52898
1.46718
1.40195
1.33057
1.2543
1.21562
1.1818
1.14308
1.08961
1.04372
1.00742
0.960638
0.92418
0.931458
2.37985
5.20337
5.52659
5.55302
5.59165
5.62513
5.64113
5.63233
5.58444
5.50644
5.39076
5.21217
4.94213
4.52624
3.96964
5.84122
5.47326
5.1032
4.74574
4.42269
4.10604
3.79117
3.52849
3.28341
3.04323
2.81346
2.64748
2.4821
2.32136
2.15882
2.05078
1.94203
1.83874
1.72969
1.64306
1.57348
1.50567
1.44473
1.37975
1.32328
1.26587
1.21781
1.17749
1.14023
1.10347
1.05506
1.00135
0.968762
1.22601
4.38971
5.49458
5.5227
5.52978
5.55689
5.56064
5.54144
5.49258
5.40601
5.27445
5.09826
4.8404
4.46132
3.99643
5.89311
5.54742
5.1945
4.86376
4.55193
4.2387
3.94026
3.68698
3.44403
3.19666
2.9801
2.80382
2.63251
2.46508
2.31167
2.19373
2.07018
1.9592
1.84945
1.77193
1.69231
1.61036
1.52697
1.47607
1.42765
1.3704
1.30656
1.25077
1.21602
1.17813
1.13595
1.09577
1.0421
1.0456
2.83457
5.20808
5.46676
5.48372
5.49535
5.49306
5.47799
5.41314
5.32134
5.19104
5.01084
4.76714
4.42515
4.02889
5.9321
5.59807
5.27509
4.96641
4.65675
4.34714
4.08135
3.83115
3.58479
3.33232
3.13829
2.95473
2.77948
2.59432
2.45474
2.32848
2.20315
2.08132
1.96907
1.88702
1.79854
1.71972
1.63556
1.57283
1.51322
1.45717
1.40017
1.34171
1.29667
1.2534
1.21034
1.17882
1.14615
1.0892
1.45644
4.49027
5.42095
5.4717
5.48271
5.46221
5.40764
5.3335
5.2364
5.11551
4.94571
4.71993
4.40992
4.06199
5.99884
5.67237
5.36219
5.06142
4.75732
4.46494
4.20907
3.95974
3.70915
3.47638
3.28711
3.09552
2.91072
2.72957
2.59816
2.4569
2.32846
2.19296
2.09703
2.00392
1.9082
1.81743
1.73719
1.67712
1.60578
1.54109
1.47994
1.43253
1.38309
1.33519
1.28202
1.24599
1.22346
1.16124
1.16894
2.95642
5.15196
5.40268
5.41452
5.38688
5.33469
5.25914
5.1656
5.04631
4.87578
4.6706
4.40302
4.09423
6.02646
5.72242
5.42746
5.13173
4.8351
4.57505
4.32261
4.07356
3.81893
3.61556
3.41896
3.22879
3.02826
2.86667
2.7259
2.58123
2.44405
2.31102
2.2173
2.11115
2.01623
1.91486
1.84119
1.77294
1.69914
1.62942
1.55973
1.515
1.4646
1.41853
1.3676
1.32433
1.29205
1.24275
1.18797
1.575
4.35943
5.34788
5.36543
5.359
5.31878
5.24505
5.14236
4.98613
4.81893
4.61575
4.3606
4.09822
6.06803
5.78203
5.49977
5.21204
4.93662
4.68461
4.43433
4.17928
3.94469
3.74866
3.54499
3.34818
3.14759
3.00268
2.84869
2.70551
2.55093
2.43491
2.33253
2.22155
2.12065
2.0164
1.94623
1.86527
1.7907
1.7162
1.65316
1.60236
1.54311
1.49208
1.44183
1.40391
1.3646
1.31944
1.24449
1.25982
2.75738
5.07906
5.33897
5.30908
5.26416
5.19081
5.07177
4.93441
4.77308
4.57818
4.34943
4.10036
6.14843
5.86347
5.58215
5.29754
5.03842
4.78696
4.53859
4.28006
4.06777
3.86073
3.66104
3.45175
3.27587
3.1255
2.96622
2.81636
2.66102
2.55666
2.44003
2.33099
2.21395
2.12163
2.04691
1.95921
1.88206
1.79631
1.74371
1.68766
1.62766
1.57043
1.5138
1.47346
1.42751
1.38563
1.33069
1.28067
1.56747
4.09236
5.25137
5.27507
5.24116
5.15251
5.03627
4.9035
4.75272
4.57206
4.35894
4.12259
6.21318
5.92879
5.64432
5.37746
5.12865
4.87878
4.62113
4.38579
4.18299
3.97175
3.76688
3.55602
3.40383
3.23864
3.08367
2.91736
2.78117
2.671
2.54637
2.43494
2.3109
2.22922
2.1417
2.05469
1.96882
1.88867
1.83539
1.76865
1.70872
1.64379
1.59268
1.54739
1.49575
1.44529
1.4002
1.34113
1.35086
2.4272
4.89398
5.27981
5.21752
5.12652
5.01775
4.89291
4.74521
4.56443
4.36246
4.14087
6.21962
6.01348
5.7138
5.45758
5.21471
4.96696
4.71038
4.49882
4.28726
4.08167
3.86059
3.67806
3.52056
3.34941
3.19021
3.01701
2.90219
2.77597
2.65361
2.52805
2.41414
2.33361
2.23535
2.14968
2.05175
1.98331
1.92247
1.85096
1.78751
1.71574
1.66822
1.61571
1.56486
1.51002
1.46558
1.42547
1.3736
1.53059
3.73339
5.18446
5.18634
5.08887
4.98947
4.87606
4.73516
4.5639
4.37171
4.16806
5.74733
6.06824
5.8182
5.54348
5.30343
5.05218
4.81337
4.60451
4.39173
4.18075
3.96061
3.79951
3.62486
3.46063
3.2829
3.13269
3.01584
2.87815
2.75731
2.61742
2.52418
2.43187
2.3318
2.23941
2.14014
2.07911
2.00519
1.93379
1.86056
1.79333
1.74542
1.68562
1.63534
1.57444
1.53439
1.50305
1.43109
1.4318
2.18056
4.56834
5.15055
5.07819
4.9992
4.88444
4.73946
4.57318
4.39
4.19974
4.01317
5.80866
5.8945
5.65894
5.38805
5.13058
4.91521
4.70192
4.49229
4.26338
4.07492
3.90904
3.72939
3.56349
3.37656
3.25373
3.11835
2.98422
2.85095
2.71759
2.63165
2.52447
2.42851
2.32155
2.23583
2.16953
2.08654
2.01547
1.93132
1.87405
1.8196
1.75772
1.70552
1.64406
1.60498
1.56977
1.51347
1.45344
1.53624
3.17965
4.93215
5.10732
5.00609
4.88366
4.73929
4.58125
4.4111
4.23567
1.75546
4.51313
5.75512
5.74527
5.49613
5.21889
5.00736
4.79791
4.58035
4.35813
4.19268
4.01018
3.83923
3.64948
3.49037
3.36703
3.21771
3.08916
2.93536
2.82891
2.73161
2.61871
2.52028
2.40424
2.33288
2.25328
2.17016
2.0917
2.00781
1.95659
1.89273
1.83394
1.77346
1.71746
1.67836
1.63167
1.58715
1.51606
1.50737
1.91702
4.06658
5.09001
4.99844
4.86555
4.73023
4.58854
4.43427
4.27265
1.04909
2.17102
4.81404
5.67942
5.59933
5.33811
5.10732
4.89653
4.66472
4.47142
4.29897
4.11525
3.93992
3.74305
3.6131
3.46667
3.32188
3.18031
3.03151
2.9401
2.82315
2.71616
2.6012
2.49745
2.427
2.33461
2.25561
2.16277
2.09288
2.03783
1.96777
1.91075
1.84121
1.79439
1.74828
1.69633
1.64909
1.59624
1.53806
1.56311
2.58452
4.58615
4.98214
4.8706
4.75705
4.62962
4.48177
4.32287
1.00072
1.11184
2.57909
5.00762
5.5847
5.45884
5.22614
4.9863
4.7546
4.58161
4.39756
4.22064
4.01922
3.85643
3.7245
3.56326
3.42669
3.25921
3.14345
3.04008
2.9147
2.81009
2.68002
2.59825
2.51419
2.4196
2.33679
2.23803
2.18193
2.11555
2.04733
1.98279
1.91348
1.87105
1.81486
1.76368
1.70871
1.66431
1.61099
1.56622
1.73048
3.41355
4.79595
4.90536
4.79939
4.67084
4.52273
4.36368
1
1.00237
1.20447
2.9546
5.10533
5.46384
5.34187
5.08777
4.85129
4.67921
4.50001
4.31335
4.10909
3.97584
3.8208
3.66838
3.51461
3.35349
3.25753
3.13059
3.01336
2.89146
2.77195
2.69839
2.59738
2.50946
2.41079
2.32611
2.26973
2.19226
2.12766
2.04953
1.99198
1.94391
1.88177
1.83069
1.76729
1.73066
1.68659
1.60539
1.60898
2.13244
4.04678
4.88359
4.82952
4.6885
4.54121
4.39168
1
1.00001
1.00597
1.32166
3.28382
5.10228
5.3598
5.21895
4.96692
4.77569
4.60104
4.39362
4.21989
4.08171
3.91673
3.7714
3.58971
3.46931
3.3589
3.22125
3.10946
2.96594
2.87705
2.79067
2.68473
2.59675
2.48507
2.42134
2.35178
2.27217
2.20247
2.11823
2.07112
2.01214
1.95134
1.89303
1.83314
1.79431
1.75087
1.68183
1.62483
1.67764
2.68752
4.43032
4.83223
4.72182
4.57161
4.43091
1
1
1.00004
1.01239
1.4567
3.51753
5.05687
5.26619
5.10101
4.89399
4.69198
4.47566
4.33017
4.17759
4.02293
3.85432
3.68492
3.58394
3.44705
3.32121
3.19058
3.0556
2.9818
2.87563
2.778
2.67345
2.5737
2.515
2.4297
2.35488
2.2685
2.19652
2.1485
2.07974
2.02147
1.95102
1.90317
1.85976
1.80972
1.75619
1.68356
1.67729
1.8579
3.31622
4.55174
4.72963
4.62389
4.48824
1
1
1
1.00012
1.02218
1.59091
3.66457
5.02367
5.16191
5.03608
4.80707
4.57287
4.43183
4.27666
4.12202
3.92806
3.79951
3.68359
3.53926
3.42087
3.26187
3.16412
3.0771
2.9611
2.8674
2.74462
2.67081
2.60095
2.51054
2.43391
2.33486
2.28026
2.22148
2.15061
2.0869
2.01128
1.97325
1.92464
1.8728
1.81576
1.76151
1.71554
1.7219
2.15821
3.78937
4.63133
4.6718
4.54903
1
1
1
1
1.00026
1.03551
1.69772
3.80865
4.93903
5.05912
4.93179
4.69255
4.52355
4.36998
4.20216
4.02142
3.91144
3.77317
3.64312
3.50277
3.35364
3.27428
3.16078
3.0522
2.94482
2.82537
2.76583
2.68005
2.59463
2.50368
2.41268
2.36431
2.29268
2.22444
2.14712
2.07853
2.04407
1.99095
1.9379
1.87251
1.82696
1.79473
1.73934
1.77096
2.5444
4.10605
4.66791
4.60309
1
1
1
1
1
1.00051
1.04797
1.8183
3.82647
4.86905
4.99732
4.83703
4.64595
4.47257
4.2644
4.12336
4.0097
3.86681
3.74173
3.57507
3.46895
3.37301
3.24404
3.14533
3.01145
2.9195
2.85478
2.75828
2.67598
2.56985
2.49914
2.44436
2.36578
2.2969
2.20571
2.15127
2.11499
2.05851
2.00323
1.9313
1.89333
1.86732
1.80113
1.7562
1.88034
2.95306
4.29924
4.61272
1
1
1
1
1
1
1.00077
1.06474
1.89996
3.80328
4.84496
4.92096
4.7927
4.59619
4.35087
4.22749
4.09729
3.96361
3.81535
3.6665
3.57979
3.45588
3.33961
3.23014
3.08645
3.02117
2.93764
2.83965
2.75231
2.64292
2.58604
2.52007
2.44147
2.36591
2.26937
2.22691
2.18592
2.1269
2.06845
1.99461
1.95774
1.93148
1.8769
1.78586
1.78798
2.06312
3.35699
4.36892
1
1
1
1
1
1
1
1.00117
1.08072
1.88915
3.87417
4.75747
4.80941
4.70465
4.47053
4.32202
4.18426
4.05233
3.88585
3.77759
3.67475
3.54021
3.43826
3.29372
3.18564
3.12021
3.0135
2.92386
2.82341
2.72565
2.67167
2.59331
2.51669
2.43158
2.33981
2.30468
2.25671
2.19513
2.13282
2.05912
2.02243
1.99107
1.94265
1.85852
1.80235
1.83082
2.29782
3.66814
1
1
1
1
1
1
1
1.00001
1.00164
1.08027
1.94154
3.87604
4.61584
4.73411
4.61043
4.43252
4.29004
4.12856
3.9759
3.88409
3.75976
3.6415
3.51923
3.36601
3.29684
3.2043
3.09266
3.01053
2.89165
2.81693
2.75378
2.66397
2.59187
2.49665
2.41914
2.38425
2.32608
2.26442
2.19539
2.12004
2.09115
2.05244
1.99799
1.93743
1.85763
1.84508
1.89656
2.55247
1
1
1
1
1
1
1
1
1.00001
1.00173
1.08946
2.00857
3.71648
4.53749
4.67404
4.5663
4.41764
4.21875
4.07958
3.9763
3.85009
3.73728
3.57872
3.47461
3.39552
3.27459
3.18402
3.08804
2.96818
2.9122
2.82804
2.73741
2.66858
2.56905
2.50292
2.45682
2.39504
2.33717
2.25119
2.18522
2.16227
2.11458
2.05592
2.00307
1.93468
1.89277
1.88068
1.98298
1
1
1
1
1
1
1
1
1
1.00001
1.00213
1.09973
1.94594
3.52
4.5139
4.62141
4.53682
4.34862
4.18359
4.05932
3.94606
3.80927
3.66873
3.58371
3.47015
3.35671
3.27895
3.14718
3.06639
2.99875
2.89715
2.81948
2.7372
2.65877
2.58431
2.5206
2.47066
2.41128
2.30457
2.25492
2.22986
2.17516
2.12038
2.06097
1.99946
1.96332
1.91131
1.90325
1
1
1
1
1
1
1
1
1
1
1.00001
1.00229
1.08901
1.81077
3.42354
4.50346
4.56922
4.47878
4.29772
4.16142
4.0305
3.87407
3.76994
3.66637
3.542
3.46005
3.34604
3.22619
3.1679
3.06716
2.97619
2.89353
2.80962
2.74532
2.66687
2.58969
2.54445
2.48063
2.37174
2.32349
2.29185
2.23962
2.18716
2.11268
2.06085
2.0361
1.98625
1.91311
1
1
1
1
1
1
1
1
1
1
1
1.00001
1.00182
1.07271
1.71308
3.46508
4.39307
4.45209
4.39124
4.28785
4.11162
3.9578
3.85309
3.73352
3.63757
3.54758
3.40383
3.3352
3.24712
3.13507
3.05539
2.96037
2.8948
2.826
2.75086
2.6679
2.61401
2.54535
2.44614
2.38758
2.3535
2.30964
2.25077
2.16505
2.12873
2.10277
2.05197
1.97462
1
1
1
1
1
1
1
1
1
1
1
1
1.00001
1.0015
1.0613
1.71068
3.45137
4.17585
4.3547
4.36564
4.22552
4.05874
3.92645
3.81643
3.74109
3.60025
3.50252
3.43088
3.30702
3.21693
3.11855
3.0414
2.97888
2.91015
2.82653
2.74785
2.68217
2.60702
2.52345
2.45592
2.41968
2.37678
2.30569
2.22558
2.19623
2.16217
2.10799
2.04871
1
1
1
1
1
1
1
1
1
1
1
1
1
1.00001
1.00135
1.0592
1.74752
3.16618
4.04288
4.36639
4.32485
4.17391
4.03306
3.94105
3.79849
3.67273
3.61993
3.504
3.38581
3.29076
3.18511
3.12917
3.0672
2.98957
2.89981
2.82576
2.74464
2.67371
2.59752
2.52678
2.49058
2.44137
2.36078
2.29283
2.26266
2.21794
2.16406
2.11555
1
1
1
1
1
1
1
1
1
1
1
1
1
1
1.00001
1.00133
1.06081
1.62158
2.79055
4.02404
4.34544
4.30684
4.1776
4.0281
3.84618
3.79246
3.71272
3.56576
3.47098
3.35877
3.26904
3.21612
3.15239
3.06065
2.97669
2.88751
2.80308
2.74889
2.66514
2.60041
2.56309
2.50347
2.41926
2.36057
2.3265
2.27502
2.22432
2.17176
1
1
1
1
1
1
1
1
1
1
1
1
1
1
1
1.00001
1.00115
1.04302
1.40499
2.57051
4.07138
4.23655
4.19747
4.11029
3.96795
3.89702
3.76199
3.63698
3.55353
3.43497
3.34759
3.296
3.22597
3.13984
3.04267
2.9417
2.88115
2.82088
2.72074
2.68109
2.63372
2.56061
2.48016
2.42713
2.38943
2.33777
2.28619
2.21816
1
1
1
1
1
1
1
1
1
1
1
1
1
1
1
1
1
1.0006
1.02228
1.29471
2.63543
3.83462
4.07885
4.16396
4.11531
3.98297
3.80821
3.71561
3.63762
3.52501
3.42684
3.37251
3.31017
3.21294
3.09444
3.01226
2.96494
2.87036
2.80089
2.77099
2.69843
2.61869
2.5412
2.49108
2.45356
2.40512
2.34747
2.26652
1
1
1
1
1
1
1
1
1
1
1
1
1
1
1
1
1
1
1.00029
1.0158
1.30104
2.51825
3.57372
4.06442
4.16145
4.08022
3.93782
3.84327
3.72942
3.59004
3.49396
3.45379
3.38687
3.26543
3.15505
3.10288
3.02843
2.92387
2.89748
2.85131
2.75495
2.68082
2.60552
2.55606
2.51866
2.47056
2.40181
2.3245
1
1
1
1
1
1
1
1
1
1
1
1
1
1
1
1
1
1
1
1.00024
1.0153
1.29194
2.21752
3.35104
4.03551
4.13401
4.07441
3.94788
3.81588
3.65065
3.5631
3.53552
3.45324
3.31697
3.23547
3.1731
3.06759
3.00925
2.99426
2.91486
2.81629
2.75068
2.66469
2.61778
2.58383
2.53469
2.45578
2.3953
1
1
1
1
1
1
1
1
1
1
1
1
1
1
1
1
1
1
1
1
1.00022
1.01386
1.17917
1.86517
3.15557
3.97066
4.03754
3.99674
3.89986
3.72933
3.63681
3.60895
3.516
3.39856
3.32817
3.23075
3.12766
3.10524
3.07346
2.96551
2.8886
2.81939
2.72576
2.6807
2.6474
2.59323
2.51826
2.46828
1
1
1
1
1
1
1
1
1
1
1
1
1
1
1
1
1
1
1
1
1
1.00014
1.00555
1.08985
1.68859
2.86912
3.89427
4.0115
3.96642
3.85958
3.75976
3.69165
3.57554
3.47784
3.39271
3.2823
3.21566
3.20283
3.13825
3.02805
2.96658
2.88552
2.78822
2.74327
2.70805
2.64869
2.58693
2.53187
1
1
1
1
1
1
1
1
1
1
1
1
1
1
1
1
1
1
1
1
1
1
1.00004
1.00212
1.06169
1.51512
2.7331
3.73594
3.9067
3.91055
3.88283
3.78444
3.64969
3.54804
3.44694
3.34335
3.30472
3.2867
3.19937
3.09965
3.03536
2.95448
2.86013
2.80356
2.76224
2.70979
2.65387
2.58462
1
1
1
1
1
1
1
1
1
1
1
1
1
1
1
1
1
1
1
1
1
1
1
1.00001
1.00133
1.04203
1.40242
2.59188
3.51058
3.83373
3.88685
3.83946
3.72889
3.62682
3.52076
3.42461
3.39175
3.36156
3.25984
3.16395
3.09456
3.02118
2.93042
2.86486
2.8277
2.78046
2.71191
2.63958
1
1
1
1
1
1
1
1
1
1
1
1
1
1
1
1
1
1
1
1
1
1
1
1
1.00001
1.00085
1.02813
1.32993
2.3708
3.25762
3.75615
3.87251
3.84345
3.75306
3.62307
3.49601
3.46048
3.42675
3.31824
3.2226
3.15293
3.08315
2.99093
2.93523
2.90608
2.84736
2.76587
2.71223
1
1
1
1
1
1
1
1
1
1
1
1
1
1
1
1
1
1
1
1
1
1
1
1
1
1
1.00049
1.0189
1.24404
1.99339
2.90879
3.73679
3.8801
3.82849
3.68472
3.56664
3.53905
3.49013
3.36971
3.2819
3.22044
3.14742
3.05855
3.02079
2.98496
2.90371
2.8262
2.78734
1
1
1
1
1
1
1
1
1
1
1
1
1
1
1
1
1
1
1
1
1
1
1
1
1
1
1
1.00025
1.00977
1.12179
1.61057
2.71184
3.74307
3.74954
3.71499
3.67351
3.64688
3.55356
3.41808
3.33842
3.28181
3.20779
3.14118
3.11704
3.05879
2.95955
2.89749
2.85173
1
1
1
1
1
1
1
1
1
1
1
1
1
1
1
1
1
1
1
1
1
1
1
1
1
1
1
1
1.00008
1.00302
1.05668
1.44611
2.61772
3.4729
3.62263
3.68602
3.70012
3.60571
3.48064
3.41379
3.35596
3.27561
3.22369
3.19766
3.11218
3.01346
2.96406
2.9074
1
1
1
1
1
1
1
1
1
1
1
1
1
1
1
1
1
1
1
1
1
1
1
1
1
1
1
1
1
1.00002
1.00131
1.03531
1.35837
2.41813
3.21597
3.56596
3.68284
3.66459
3.59254
3.52845
3.44451
3.34015
3.30228
3.2691
3.1595
3.07719
3.03128
2.95789
1
1
1
1
1
1
1
1
1
1
1
1
1
1
1
1
1
1
1
1
1
1
1
1
1
1
1
1
1
1
1.00001
1.00075
1.02463
1.29109
2.13147
2.89022
3.48867
3.70972
3.71417
3.62425
3.48365
3.39827
3.39073
3.33516
3.21292
3.14934
3.1051
3.01824
1
1
1
1
1
1
1
1
1
1
1
1
1
1
1
1
1
1
1
1
1
1
1
1
1
1
1
1
1
1
1
1
1.00047
1.01587
1.17597
1.68302
2.52967
3.52521
3.6891
3.592
3.52046
3.49789
3.49441
3.38523
3.27109
3.21562
3.16536
3.07873
1
1
1
1
1
1
1
1
1
1
1
1
1
1
1
1
1
1
1
1
1
1
1
1
1
1
1
1
1
1
1
1
1
1.00019
1.00552
1.06658
1.39212
2.39725
3.3816
3.4541
3.50914
3.55547
3.54167
3.42236
3.33427
3.28562
3.22667
3.14041
1
1
1
1
1
1
1
1
1
1
1
1
1
1
1
1
1
1
1
1
1
1
1
1
1
1
1
1
1
1
1
1
1
1
1.00003
1.00139
1.02929
1.27789
2.19099
3.05057
3.3614
3.53444
3.56079
3.4831
3.43394
3.37747
3.27607
3.19941
1
1
1
1
1
1
1
1
1
1
1
1
1
1
1
1
1
1
1
1
1
1
1
1
1
1
1
1
1
1
1
1
1
1
1
1.00001
1.00056
1.01648