/*--------------------------------*- C++ -*----------------------------------*\
  =========                 |
  \\      /  F ield         | OpenFOAM: The Open Source CFD Toolbox
   \\    /   O peration     | Website:  https://openfoam.org
    \\  /    A nd           | Version:  7
     \\/     M anipulation  |
\*---------------------------------------------------------------------------*/
FoamFile
{
    version     2.0;
    format      ascii;
    class       volVectorField;
    location    "1.8";
    object      U;
}
// * * * * * * * * * * * * * * * * * * * * * * * * * * * * * * * * * * * * * //

dimensions      [0 1 -1 0 0 0 0];

internalField   nonuniform List<vector> 
16512
(
(3 6.02903e-18 0)
(3 1.80106e-16 0)
(3 -2.54256e-16 0)
(3 -4.50628e-16 0)
(3 3.44567e-16 0)
(3 5.8376e-16 0)
(3 1.78484e-16 0)
(3 -7.65621e-16 0)
(3 -5.52049e-16 0)
(3 -4.84457e-16 0)
(3 -5.4651e-16 0)
(3 -4.32317e-16 0)
(3 -5.2974e-16 0)
(3 -6.56729e-16 0)
(3 -8.3702e-16 0)
(3 -1.33091e-15 0)
(3 -1.76369e-15 0)
(3 -1.83727e-15 0)
(3 -1.83494e-15 0)
(3 -1.87439e-15 0)
(3 -1.43374e-15 0)
(3 6.1186e-17 0)
(3 4.87751e-16 0)
(3 -7.64816e-17 0)
(3 -6.65506e-17 0)
(3 -5.82232e-17 0)
(3 -3.40769e-16 0)
(3 -4.85195e-16 0)
(3 -8.11215e-17 0)
(3 4.65843e-16 0)
(3 6.44812e-16 0)
(3 8.05819e-16 0)
(3 4.54105e-16 0)
(3 3.31729e-16 0)
(3 5.69299e-16 0)
(2.94441 0.00261858 0)
(1.01486 0.0174839 0)
(0.70623 0.0194209 0)
(0.652568 0.0236314 0)
(0.592151 0.0250767 0)
(0.532069 0.0263108 0)
(0.47024 0.0275874 0)
(0.406763 0.0290028 0)
(0.340986 0.0308602 0)
(0.272392 0.0329069 0)
(0.200137 0.0355056 0)
(0.123793 0.0372749 0)
(0.0455249 0.0415468 0)
(3 -1.05759e-16 0)
(3 9.99751e-17 0)
(3 -1.78746e-16 0)
(3 -5.38176e-16 0)
(3 -1.931e-16 0)
(3 7.94567e-17 0)
(3 -3.61958e-16 0)
(3 -8.58005e-16 0)
(3 -3.47349e-16 0)
(3 -2.31696e-16 0)
(3 -7.1656e-16 0)
(3 -1.13963e-15 0)
(3 -1.32134e-15 0)
(3 -1.41307e-15 0)
(3 -1.62762e-15 0)
(3 -1.96792e-15 0)
(3 -2.07635e-15 0)
(3 -2.56115e-15 0)
(3 -2.95527e-15 0)
(3 -3.20196e-15 0)
(3 -2.49652e-15 0)
(3 -7.33894e-16 0)
(3 -6.80938e-16 0)
(3 -1.00044e-15 0)
(3 -1.57157e-15 0)
(3 -8.36916e-16 0)
(3 -1.13544e-17 0)
(3 1.01993e-15 0)
(3 1.24043e-15 0)
(3 9.45547e-16 0)
(3 3.80976e-16 0)
(3 -1.94827e-16 0)
(3 -3.58738e-16 0)
(3 -2.26466e-16 0)
(3 4.78456e-16 0)
(2.95334 0.0219749 0)
(1.02445 0.0787687 0)
(0.697963 0.068281 0)
(0.644554 0.0723417 0)
(0.586711 0.0775154 0)
(0.52774 0.082281 0)
(0.466021 0.0871275 0)
(0.40169 0.0920269 0)
(0.334594 0.0977567 0)
(0.264851 0.103479 0)
(0.192435 0.110706 0)
(0.117001 0.11531 0)
(0.0421015 0.125598 0)
(3 6.99442e-18 0)
(3 1.38384e-16 0)
(3 5.11474e-17 0)
(3 -3.40452e-16 0)
(3 -7.76953e-16 0)
(3 -7.17273e-16 0)
(3 -9.0956e-16 0)
(3 -3.42981e-16 0)
(3 -6.78693e-17 0)
(3 3.01216e-18 0)
(3 -1.13134e-16 0)
(3 -2.96606e-16 0)
(3 -9.19072e-16 0)
(3 -7.09376e-16 0)
(3 -7.42924e-16 0)
(3 -7.74283e-16 0)
(3 -8.03604e-16 0)
(3 -1.4102e-15 0)
(3 -2.70605e-15 0)
(3 -2.80939e-15 0)
(3 -2.44748e-15 0)
(3 -2.94837e-15 0)
(3 -2.91184e-15 0)
(3 -2.00304e-15 0)
(3 -1.004e-15 0)
(3 -2.16258e-16 0)
(3 9.23676e-16 0)
(3 1.58753e-15 0)
(3 1.31659e-15 0)
(3 9.70672e-16 0)
(3 4.95722e-16 0)
(3 -1.52066e-16 0)
(3 -5.93649e-16 0)
(3 -3.754e-17 0)
(3 3.23565e-16 0)
(2.99295 0.0104563 0)
(1.07179 0.136698 0)
(0.723401 0.111785 0)
(0.668926 0.119313 0)
(0.609324 0.128144 0)
(0.548869 0.136619 0)
(0.486232 0.145562 0)
(0.420787 0.154635 0)
(0.352044 0.164829 0)
(0.279624 0.174424 0)
(0.20374 0.186192 0)
(0.123368 0.192988 0)
(0.0444884 0.207059 0)
(3 5.93509e-17 0)
(3 2.87858e-16 0)
(3 5.38504e-16 0)
(3 3.60727e-16 0)
(3 -2.8619e-16 0)
(3 -3.58951e-16 0)
(3 -2.16367e-16 0)
(3 -1.91714e-16 0)
(3 -7.74838e-16 0)
(3 -7.13693e-16 0)
(3 5.02846e-17 0)
(3 9.78971e-16 0)
(3 1.18214e-15 0)
(3 3.36781e-16 0)
(3 1.03176e-16 0)
(3 8.8894e-17 0)
(3 -9.38698e-17 0)
(3 -5.67814e-16 0)
(3 -1.49637e-15 0)
(3 -1.55287e-15 0)
(3 -1.48001e-15 0)
(3 -1.80841e-15 0)
(3 -1.366e-15 0)
(3 -5.11103e-16 0)
(3 1.37177e-16 0)
(3 6.58498e-16 0)
(3 9.0778e-16 0)
(3 5.96587e-16 0)
(3 4.95324e-16 0)
(3 7.25738e-16 0)
(3 7.57264e-16 0)
(3 2.95245e-16 0)
(3 1.29943e-16 0)
(3 1.37685e-16 0)
(3 2.47678e-17 0)
(3.00156 0.000894459 0)
(1.15955 0.176857 0)
(0.738342 0.153428 0)
(0.683846 0.167927 0)
(0.626484 0.180214 0)
(0.567324 0.191722 0)
(0.505757 0.204854 0)
(0.440166 0.218977 0)
(0.369869 0.235284 0)
(0.294367 0.250469 0)
(0.215257 0.268328 0)
(0.130486 0.278705 0)
(0.0461998 0.295903 0)
(3 -9.75475e-17 0)
(3 -1.65793e-16 0)
(3 -4.02628e-17 0)
(3 -2.98106e-16 0)
(3 -6.54992e-16 0)
(3 -4.13334e-16 0)
(3 -3.00196e-16 0)
(3 -2.10713e-16 0)
(3 -3.53191e-16 0)
(3 -1.83827e-16 0)
(3 5.87078e-17 0)
(3 1.95846e-16 0)
(3 3.18089e-16 0)
(3 4.83152e-16 0)
(3 6.56982e-16 0)
(3 9.24125e-16 0)
(3 -3.83544e-16 0)
(3 -4.11491e-16 0)
(3 -3.96619e-16 0)
(3 -9.69026e-16 0)
(3 -1.26281e-15 0)
(3 -1.08527e-15 0)
(3 -7.5346e-16 0)
(3 5.95226e-16 0)
(3 8.53445e-16 0)
(3 7.03703e-16 0)
(3 7.38387e-16 0)
(3 3.04851e-16 0)
(3 -4.48616e-17 0)
(3 -3.10042e-16 0)
(3 4.10719e-16 0)
(3 5.9693e-16 0)
(3 5.2398e-16 0)
(3 2.79723e-16 0)
(3 6.272e-17 0)
(3.00003 1.70461e-06 0)
(1.29164 0.226457 0)
(0.748457 0.199125 0)
(0.685916 0.214622 0)
(0.632522 0.23036 0)
(0.577164 0.245252 0)
(0.52032 0.263304 0)
(0.459448 0.28338 0)
(0.39411 0.30669 0)
(0.32198 0.327692 0)
(0.243997 0.352462 0)
(0.152838 0.370533 0)
(0.057446 0.395553 0)
(3 -1.18284e-16 0)
(3 -4.0676e-16 0)
(3 -6.0385e-16 0)
(3 -9.8109e-16 0)
(3 -6.97306e-16 0)
(3 -2.25602e-16 0)
(3 -5.66463e-16 0)
(3 -1.04046e-15 0)
(3 -9.93989e-16 0)
(3 -1.11361e-15 0)
(3 -1.25058e-15 0)
(3 -1.62296e-15 0)
(3 -1.58405e-15 0)
(3 -1.3454e-15 0)
(3 -9.12438e-16 0)
(3 -9.69104e-16 0)
(3 -1.55155e-15 0)
(3 -1.29968e-15 0)
(3 -1.24571e-15 0)
(3 -2.35976e-15 0)
(3 -1.50191e-15 0)
(3 1.35578e-16 0)
(3 3.65887e-16 0)
(3 1.73515e-16 0)
(3 -1.65627e-16 0)
(3 8.61063e-17 0)
(3 5.304e-16 0)
(3 5.15414e-16 0)
(3 -8.12681e-16 0)
(3 -1.30996e-15 0)
(3 -1.43376e-15 0)
(3 -9.65686e-16 0)
(3 -7.81401e-16 0)
(3 -2.74284e-16 0)
(3 1.54602e-16 0)
(3 -2.49371e-09 0)
(1.49653 0.276384 0)
(0.769937 0.253466 0)
(0.688283 0.261325 0)
(0.636866 0.276956 0)
(0.586084 0.293691 0)
(0.536794 0.31582 0)
(0.483786 0.341668 0)
(0.424854 0.373966 0)
(0.352811 0.407006 0)
(0.26955 0.44738 0)
(0.168901 0.483522 0)
(0.0573752 0.518646 0)
(3 -6.23754e-17 0)
(3 -4.67482e-16 0)
(3 -8.38376e-16 0)
(3 -3.41061e-16 0)
(3 -3.86339e-16 0)
(3 -5.81971e-16 0)
(3 -6.8033e-16 0)
(3 -1.22956e-15 0)
(3 -1.51525e-15 0)
(3 -2.1613e-15 0)
(3 -2.67735e-15 0)
(3 -2.47737e-15 0)
(3 -2.0245e-15 0)
(3 -2.29325e-15 0)
(3 -2.65869e-15 0)
(3 -2.80016e-15 0)
(3 -2.25496e-15 0)
(3 -2.11271e-15 0)
(3 -1.53186e-15 0)
(3 -1.254e-15 0)
(3 2.137e-16 0)
(3 8.52983e-16 0)
(3 4.09325e-16 0)
(3 -5.60609e-16 0)
(3 -1.38652e-15 0)
(3 -7.93642e-16 0)
(3 -4.1284e-16 0)
(3 -9.20977e-16 0)
(3 -9.57409e-16 0)
(3 -1.02115e-15 0)
(3 -1.66936e-15 0)
(3 -2.19193e-15 0)
(3 -1.49297e-15 0)
(3 -5.12372e-16 0)
(3 -4.02844e-17 0)
(3 -1.54758e-09 0)
(1.79452 0.32829 0)
(0.805674 0.323276 0)
(0.693316 0.314913 0)
(0.63922 0.324913 0)
(0.589439 0.340211 0)
(0.545179 0.364552 0)
(0.499594 0.396409 0)
(0.452318 0.439868 0)
(0.393643 0.488698 0)
(0.325724 0.543643 0)
(0.234682 0.598385 0)
(0.102233 0.66316 0)
(3 9.72079e-17 0)
(3 5.26857e-17 0)
(3 9.92704e-18 0)
(3 -3.77995e-17 0)
(3 -4.92322e-16 0)
(3 -9.95486e-16 0)
(3 -1.10682e-15 0)
(3 -1.00086e-15 0)
(3 -5.91277e-16 0)
(3 -7.75976e-16 0)
(3 -1.02543e-15 0)
(3 -1.24789e-15 0)
(3 -1.35494e-15 0)
(3 -2.26788e-15 0)
(3 -2.51017e-15 0)
(3 -2.34024e-15 0)
(3 -1.20727e-15 0)
(3 -1.37301e-16 0)
(3 5.84517e-16 0)
(3 1.34853e-15 0)
(3 1.35597e-15 0)
(3 5.13178e-16 0)
(3 1.639e-16 0)
(3 6.37054e-17 0)
(3 6.34987e-17 0)
(3 3.19167e-16 0)
(3 1.82656e-17 0)
(3 -3.12644e-16 0)
(3 -6.02247e-16 0)
(3 -1.16237e-15 0)
(3 -9.83027e-16 0)
(3 -5.04654e-16 0)
(3 -4.62074e-16 0)
(3 -5.37695e-16 0)
(3 -9.27497e-17 0)
(3 -2.83954e-10 0)
(2.23196 0.353789 0)
(0.877333 0.409605 0)
(0.728449 0.376143 0)
(0.674556 0.380654 0)
(0.622102 0.390303 0)
(0.576731 0.412293 0)
(0.534251 0.446163 0)
(0.495467 0.495066 0)
(0.451131 0.555669 0)
(0.391169 0.640079 0)
(0.273474 0.760023 0)
(0.152208 0.927274 0)
(3 3.59622e-17 0)
(3 3.02034e-16 0)
(3 6.07796e-16 0)
(3 8.66352e-17 0)
(3 -7.523e-16 0)
(3 -9.87176e-16 0)
(3 -4.70636e-16 0)
(3 -4.35249e-17 0)
(3 3.65289e-16 0)
(3 8.07882e-16 0)
(3 8.84687e-16 0)
(3 5.19179e-16 0)
(3 3.24369e-16 0)
(3 -6.59639e-16 0)
(3 -1.43779e-15 0)
(3 -9.59764e-16 0)
(3 -6.80209e-16 0)
(3 -7.44082e-16 0)
(3 -8.26403e-16 0)
(3 -6.05056e-16 0)
(3 -1.3561e-16 0)
(3 -6.16529e-16 0)
(3 2.0778e-16 0)
(3 4.26993e-16 0)
(3 9.61376e-16 0)
(3 1.07906e-15 0)
(3 1.35731e-15 0)
(3 1.07123e-15 0)
(3 8.11993e-16 0)
(3 4.35067e-16 0)
(3 3.163e-16 0)
(3 5.77527e-16 0)
(3 1.67805e-16 0)
(3 -2.92069e-16 0)
(3 -3.04167e-16 0)
(3 -2.42584e-11 0)
(2.81987 0.228924 0)
(1.03836 0.476156 0)
(0.821372 0.41111 0)
(0.76417 0.421518 0)
(0.699262 0.437553 0)
(0.642456 0.459278 0)
(0.595649 0.49222 0)
(0.557336 0.543348 0)
(0.523173 0.620174 0)
(0.491612 0.746821 0)
(0.461229 0.922451 0)
(0.574706 1.20167 0)
(3 -1.07803e-17 0)
(3 -1.08444e-16 0)
(3 1.30388e-16 0)
(3 -4.65349e-17 0)
(3 -3.7356e-16 0)
(3 -6.04288e-16 0)
(3 7.76577e-17 0)
(3 6.33275e-16 0)
(3 7.55265e-16 0)
(3 1.41176e-15 0)
(3 1.52367e-15 0)
(3 1.43781e-15 0)
(3 1.13149e-15 0)
(3 3.79068e-16 0)
(3 -4.11165e-17 0)
(3 -3.2807e-16 0)
(3 -8.7145e-16 0)
(3 -1.05369e-15 0)
(3 -5.47372e-16 0)
(3 -1.4769e-17 0)
(3 -3.8463e-16 0)
(3 -4.49029e-16 0)
(3 5.04351e-16 0)
(3 1.55156e-15 0)
(3 1.06751e-15 0)
(3 4.96482e-16 0)
(3 2.79402e-16 0)
(3 4.86339e-16 0)
(3 5.85204e-16 0)
(3 9.64187e-16 0)
(3 1.40759e-15 0)
(3 1.32489e-15 0)
(3 1.23916e-15 0)
(3 1.28154e-15 0)
(3 1.3197e-15 0)
(3 -6.79687e-13 0)
(3.05834 0.0201155 0)
(1.26574 0.460586 0)
(0.881754 0.461933 0)
(0.839198 0.490527 0)
(0.780572 0.500937 0)
(0.723209 0.516631 0)
(0.674103 0.544663 0)
(0.634111 0.593045 0)
(0.615802 0.675898 0)
(0.617202 0.811558 0)
(0.68213 0.963054 0)
(0.966566 1.13918 0)
(3 -1.39193e-17 0)
(3 7.0329e-17 0)
(3 -1.44245e-16 0)
(3 2.38966e-16 0)
(3 8.9951e-16 0)
(3 7.04814e-16 0)
(3 2.79477e-16 0)
(3 4.03259e-16 0)
(3 4.44435e-16 0)
(3 5.94315e-16 0)
(3 5.59629e-16 0)
(3 -5.66822e-17 0)
(3 -3.78321e-16 0)
(3 -1.63095e-16 0)
(3 1.59771e-16 0)
(3 -4.23317e-16 0)
(3 -2.5341e-16 0)
(3 5.93e-16 0)
(3 1.25332e-15 0)
(3 1.17382e-15 0)
(3 2.5514e-16 0)
(3 -2.16503e-16 0)
(3 -3.15e-16 0)
(3 9.8695e-17 0)
(3 -4.36926e-16 0)
(3 -1.03655e-15 0)
(3 -1.17936e-15 0)
(3 -6.50835e-16 0)
(3 -3.32678e-16 0)
(3 2.80595e-16 0)
(3 2.89584e-16 0)
(3 2.59829e-16 0)
(3 1.26732e-15 0)
(3 2.08268e-15 0)
(3 2.74104e-15 0)
(3 -7.6366e-15 0)
(3.00332 4.51194e-06 0)
(1.52312 0.462858 0)
(0.877032 0.517794 0)
(0.834844 0.541523 0)
(0.804113 0.562712 0)
(0.773632 0.580256 0)
(0.743387 0.605447 0)
(0.716185 0.643617 0)
(0.716541 0.713839 0)
(0.744025 0.828165 0)
(0.867376 0.954756 0)
(1.17555 1.06373 0)
(3 1.27268e-16 0)
(3 4.48307e-17 0)
(3 -2.80003e-16 0)
(3 1.58116e-16 0)
(3 5.72823e-16 0)
(3 7.0974e-16 0)
(3 6.09657e-16 0)
(3 -6.4626e-17 0)
(3 -4.40611e-16 0)
(3 -8.4502e-16 0)
(3 -7.36023e-16 0)
(3 -7.6574e-16 0)
(3 -4.67535e-16 0)
(3 2.90908e-16 0)
(3 7.27912e-16 0)
(3 5.10939e-16 0)
(3 8.91833e-16 0)
(3 1.25665e-15 0)
(3 1.1723e-15 0)
(3 6.48927e-16 0)
(3 6.03048e-16 0)
(3 9.66219e-16 0)
(3 4.18021e-16 0)
(3 -1.81593e-16 0)
(3 5.75666e-18 0)
(3 4.147e-16 0)
(3 6.33551e-16 0)
(3 8.97147e-16 0)
(3 9.69931e-16 0)
(3 1.15432e-15 0)
(3 2.82244e-16 0)
(3 6.66777e-16 0)
(3 1.40967e-15 0)
(3 2.30027e-15 0)
(3 3.09124e-15 0)
(3 3.07511e-15 0)
(3.00001 -5.96382e-07 0)
(2.11182 0.485368 0)
(0.943031 0.583613 0)
(0.859696 0.560112 0)
(0.851279 0.585647 0)
(0.833666 0.613149 0)
(0.819559 0.645508 0)
(0.80653 0.68084 0)
(0.816409 0.741395 0)
(0.864318 0.829607 0)
(1.00784 0.932874 0)
(1.2701 1.00383 0)
(3 4.95436e-17 0)
(3 3.70895e-17 0)
(3 3.0164e-16 0)
(3 3.66986e-16 0)
(3 2.21766e-16 0)
(3 2.53729e-16 0)
(3 1.5575e-16 0)
(3 -1.94547e-16 0)
(3 -8.26805e-16 0)
(3 -7.83284e-16 0)
(3 -9.29848e-16 0)
(3 -5.17635e-16 0)
(3 1.08733e-16 0)
(3 3.05448e-16 0)
(3 3.31348e-16 0)
(3 3.52208e-16 0)
(3 8.45836e-16 0)
(3 1.01192e-15 0)
(3 1.40261e-15 0)
(3 1.47187e-15 0)
(3 1.71421e-15 0)
(3 1.68293e-15 0)
(3 1.786e-15 0)
(3 1.43883e-15 0)
(3 1.85061e-15 0)
(3 2.3132e-15 0)
(3 1.92563e-15 0)
(3 9.58867e-16 0)
(3 1.12225e-15 0)
(3 1.05035e-15 0)
(3 1.60811e-15 0)
(3 2.92814e-15 0)
(3 3.09839e-15 0)
(3 2.88711e-15 0)
(3 2.68265e-15 0)
(3 2.21024e-15 0)
(3 -6.75641e-07 0)
(2.91862 0.227883 0)
(1.15152 0.619757 0)
(0.935875 0.566099 0)
(0.922423 0.605715 0)
(0.904147 0.638722 0)
(0.895394 0.675757 0)
(0.895268 0.713184 0)
(0.910901 0.762563 0)
(0.970172 0.82675 0)
(1.10575 0.898556 0)
(1.31469 0.941918 0)
(3 -1.75357e-16 0)
(3 -1.81843e-16 0)
(3 -1.73183e-16 0)
(3 -1.66938e-16 0)
(3 6.54649e-17 0)
(3 -1.98034e-16 0)
(3 -6.86014e-16 0)
(3 -7.15e-16 0)
(3 -3.19136e-16 0)
(3 -5.50691e-16 0)
(3 -1.00779e-15 0)
(3 -8.4928e-16 0)
(3 -4.52464e-16 0)
(3 -1.62398e-17 0)
(3 3.65808e-17 0)
(3 2.73478e-17 0)
(3 4.40335e-16 0)
(3 7.80291e-16 0)
(3 1.17746e-15 0)
(3 1.13241e-15 0)
(3 8.26863e-16 0)
(3 1.04902e-15 0)
(3 1.02523e-15 0)
(3 1.54994e-15 0)
(3 1.51723e-15 0)
(3 1.21539e-15 0)
(3 1.01802e-15 0)
(3 7.71917e-16 0)
(3 1.0385e-15 0)
(3 1.57968e-15 0)
(3 2.04052e-15 0)
(3 2.10165e-15 0)
(3 1.96033e-15 0)
(3 2.33747e-15 0)
(3 1.04228e-15 0)
(3 2.89339e-18 0)
(3 -1.39426e-07 0)
(3.05476 0.0104076 0)
(1.45129 0.60286 0)
(0.980754 0.647521 0)
(0.941056 0.652766 0)
(0.931637 0.677655 0)
(0.941198 0.709638 0)
(0.960573 0.746138 0)
(0.993758 0.78595 0)
(1.06133 0.832675 0)
(1.18193 0.879915 0)
(1.34925 0.903483 0)
(3 -1.37881e-16 0)
(3 -7.89928e-17 0)
(3 -1.85822e-16 0)
(3 -7.66293e-16 0)
(3 -1.13736e-15 0)
(3 -1.4009e-15 0)
(3 -1.35392e-15 0)
(3 -1.03028e-15 0)
(3 -5.28912e-16 0)
(3 -1.02688e-15 0)
(3 -1.97642e-15 0)
(3 -1.53148e-15 0)
(3 8.12825e-17 0)
(3 3.94406e-16 0)
(3 5.15229e-16 0)
(3 1.80138e-16 0)
(3 -3.97616e-18 0)
(3 8.27593e-16 0)
(3 1.41046e-15 0)
(3 1.20195e-15 0)
(3 7.93841e-16 0)
(3 1.38322e-15 0)
(3 1.17571e-15 0)
(3 1.22391e-15 0)
(3 1.04697e-15 0)
(3 1.36101e-15 0)
(3 2.19711e-15 0)
(3 2.68844e-15 0)
(3 2.22918e-15 0)
(3 2.41502e-15 0)
(3 2.56875e-15 0)
(3 1.75726e-15 0)
(3 6.89823e-16 0)
(3 7.84466e-16 0)
(3 2.21535e-16 0)
(3 -4.31605e-16 0)
(3 -1.21373e-08 0)
(3.00155 2.97607e-06 0)
(2.08072 0.587682 0)
(1.04911 0.716821 0)
(0.991528 0.682655 0)
(0.983235 0.689334 0)
(0.994879 0.714596 0)
(1.01972 0.750775 0)
(1.06422 0.78959 0)
(1.13464 0.827912 0)
(1.23729 0.85871 0)
(1.37283 0.870244 0)
(3 3.19194e-17 0)
(3 3.79177e-17 0)
(3 -2.22779e-16 0)
(3 -4.72419e-16 0)
(3 -1.32037e-15 0)
(3 -1.27636e-15 0)
(3 -6.25818e-16 0)
(3 -4.43253e-16 0)
(3 -1.07495e-15 0)
(3 -1.16682e-15 0)
(3 -8.77284e-16 0)
(3 -2.16194e-16 0)
(3 -1.65524e-16 0)
(3 -3.28802e-16 0)
(3 -3.36544e-16 0)
(3 1.9059e-16 0)
(3 1.69295e-15 0)
(3 2.38716e-15 0)
(3 2.04905e-15 0)
(3 2.06306e-15 0)
(3 9.06358e-16 0)
(3 -2.88083e-16 0)
(3 -2.57942e-16 0)
(3 1.58328e-16 0)
(3 7.83347e-16 0)
(3 1.32311e-15 0)
(3 1.45466e-15 0)
(3 1.45601e-15 0)
(3 1.42728e-15 0)
(3 2.32055e-15 0)
(3 2.16662e-15 0)
(3 1.72519e-15 0)
(3 5.827e-16 0)
(3 -3.72832e-16 0)
(3 -5.30682e-16 0)
(3 8.7162e-17 0)
(3 -1.26784e-10 0)
(3.00002 -5.79939e-06 0)
(3.01664 0.173425 0)
(1.30718 0.685702 0)
(1.07121 0.701724 0)
(1.07111 0.707488 0)
(1.07293 0.735548 0)
(1.08623 0.766012 0)
(1.12587 0.800739 0)
(1.19273 0.832284 0)
(1.28073 0.85351 0)
(1.39438 0.859429 0)
(3 3.08174e-17 0)
(3 -4.28401e-18 0)
(3 -2.94607e-17 0)
(3 8.02074e-17 0)
(3 -1.90547e-16 0)
(3 -3.66931e-16 0)
(3 -3.52521e-16 0)
(3 -3.502e-16 0)
(3 -6.22863e-16 0)
(3 -5.61764e-16 0)
(3 2.41613e-16 0)
(3 3.91945e-16 0)
(3 -2.53548e-16 0)
(3 -8.98739e-16 0)
(3 -9.87072e-16 0)
(3 1.06616e-16 0)
(3 1.34198e-15 0)
(3 1.54825e-15 0)
(3 1.08702e-15 0)
(3 4.73816e-16 0)
(3 2.05025e-17 0)
(3 -5.14494e-16 0)
(3 -8.57448e-16 0)
(3 -2.5003e-16 0)
(3 -5.64825e-17 0)
(3 -4.39054e-16 0)
(3 -5.8963e-16 0)
(3 4.97691e-16 0)
(3 1.34241e-15 0)
(3 1.69306e-15 0)
(3 1.3527e-15 0)
(3 8.97509e-16 0)
(3 1.42996e-16 0)
(3 -6.94753e-16 0)
(3 -1.047e-15 0)
(3 -3.14145e-16 0)
(3 -2.15133e-13 0)
(3 -1.68329e-06 0)
(3.03202 0.00287311 0)
(1.61318 0.654242 0)
(1.09238 0.753375 0)
(1.09576 0.756369 0)
(1.10671 0.775088 0)
(1.13181 0.791293 0)
(1.17211 0.809597 0)
(1.23443 0.827882 0)
(1.31204 0.841507 0)
(1.41134 0.844833 0)
(3 1.36297e-16 0)
(3 2.57195e-16 0)
(3 3.16236e-16 0)
(3 2.46555e-16 0)
(3 6.33624e-16 0)
(3 4.22744e-16 0)
(3 2.19795e-16 0)
(3 3.02353e-16 0)
(3 4.02327e-16 0)
(3 1.20938e-15 0)
(3 9.58425e-16 0)
(3 9.0472e-17 0)
(3 -4.15885e-16 0)
(3 3.51581e-16 0)
(3 1.28637e-15 0)
(3 1.60741e-15 0)
(3 1.36902e-15 0)
(3 5.51989e-16 0)
(3 9.88189e-18 0)
(3 -7.79137e-16 0)
(3 -6.7354e-16 0)
(3 -7.74477e-16 0)
(3 -9.01014e-16 0)
(3 -1.16582e-15 0)
(3 -1.03e-15 0)
(3 -5.57356e-16 0)
(3 2.02776e-16 0)
(3 1.05954e-15 0)
(3 1.66991e-15 0)
(3 1.3618e-15 0)
(3 1.24738e-15 0)
(3 9.37258e-16 0)
(3 6.13734e-16 0)
(3 -1.57842e-17 0)
(3 -8.67686e-16 0)
(3 -9.78518e-16 0)
(3 -1.53995e-16 0)
(3 -1.51301e-07 0)
(3.00048 1.08211e-05 0)
(2.4847 0.474729 0)
(1.21883 0.785491 0)
(1.12406 0.783265 0)
(1.14265 0.786964 0)
(1.16866 0.79933 0)
(1.20878 0.814627 0)
(1.26643 0.829258 0)
(1.3385 0.839781 0)
(1.42493 0.84196 0)
(3 8.06953e-18 0)
(3 -8.8056e-17 0)
(3 -3.04627e-16 0)
(3 6.94522e-17 0)
(3 9.25546e-16 0)
(3 9.10518e-16 0)
(3 7.90247e-16 0)
(3 5.2123e-16 0)
(3 3.15894e-16 0)
(3 5.89605e-16 0)
(3 7.35855e-16 0)
(3 6.11014e-16 0)
(3 6.47726e-16 0)
(3 1.56479e-15 0)
(3 3.19195e-15 0)
(3 2.80992e-15 0)
(3 2.16728e-15 0)
(3 1.42965e-15 0)
(3 3.5042e-16 0)
(3 1.8389e-16 0)
(3 -3.39723e-16 0)
(3 -1.20274e-15 0)
(3 -1.37172e-15 0)
(3 -1.64482e-15 0)
(3 -1.27378e-15 0)
(3 -4.92946e-16 0)
(3 1.97052e-16 0)
(3 4.29596e-16 0)
(3 1.1724e-15 0)
(3 1.99035e-15 0)
(3 1.66767e-15 0)
(3 1.31958e-15 0)
(3 7.99818e-16 0)
(3 2.77482e-17 0)
(3 -8.70402e-16 0)
(3 -1.81972e-15 0)
(3 -5.69481e-16 0)
(3 -1.10813e-09 0)
(3.00003 -1.17534e-05 0)
(3.06445 0.0548359 0)
(1.59533 0.771612 0)
(1.1804 0.788889 0)
(1.19706 0.794504 0)
(1.21328 0.805807 0)
(1.24826 0.815285 0)
(1.29765 0.825222 0)
(1.36125 0.832049 0)
(1.43707 0.832793 0)
(3 -6.65203e-17 0)
(3 -2.04563e-16 0)
(3 -1.62484e-17 0)
(3 5.43525e-16 0)
(3 8.36654e-16 0)
(3 6.36695e-16 0)
(3 4.70441e-16 0)
(3 -1.6643e-16 0)
(3 -7.75071e-16 0)
(3 -1.22277e-15 0)
(3 -5.50525e-16 0)
(3 7.74496e-16 0)
(3 2.12009e-15 0)
(3 2.32353e-15 0)
(3 2.08518e-15 0)
(3 1.9007e-15 0)
(3 1.30106e-15 0)
(3 1.39067e-15 0)
(3 1.19149e-15 0)
(3 1.01567e-15 0)
(3 3.92319e-16 0)
(3 9.54021e-17 0)
(3 1.71541e-16 0)
(3 2.62634e-16 0)
(3 4.74741e-17 0)
(3 1.83267e-17 0)
(3 2.42666e-16 0)
(3 7.064e-16 0)
(3 7.42069e-16 0)
(3 3.8964e-16 0)
(3 -6.10275e-17 0)
(3 -4.70207e-16 0)
(3 -7.58811e-16 0)
(3 -1.52047e-16 0)
(3 6.92394e-16 0)
(3 -5.60312e-16 0)
(3 -5.76722e-17 0)
(3 -2.32999e-12 0)
(3 -2.62849e-06 0)
(3.00601 0.0010622 0)
(2.3934 0.597879 0)
(1.2849 0.857416 0)
(1.22831 0.839854 0)
(1.25158 0.833721 0)
(1.27944 0.835476 0)
(1.32339 0.837622 0)
(1.37925 0.837862 0)
(1.44637 0.834997 0)
(3 1.86015e-17 0)
(3 1.81221e-16 0)
(3 5.067e-16 0)
(3 4.13976e-16 0)
(3 5.39165e-17 0)
(3 3.95772e-16 0)
(3 2.45522e-16 0)
(3 -7.45105e-16 0)
(3 -1.12416e-15 0)
(3 -3.42811e-16 0)
(3 -1.84297e-17 0)
(3 1.38279e-15 0)
(3 1.79728e-15 0)
(3 2.3095e-15 0)
(3 2.07458e-15 0)
(3 1.46379e-15 0)
(3 1.03716e-15 0)
(3 7.28611e-16 0)
(3 8.72932e-16 0)
(3 1.10853e-15 0)
(3 1.05263e-15 0)
(3 1.30533e-15 0)
(3 1.41585e-15 0)
(3 1.01741e-15 0)
(3 7.17572e-16 0)
(3 -2.70786e-16 0)
(3 -4.90843e-16 0)
(3 -4.67054e-16 0)
(3 -3.68858e-16 0)
(3 -8.81612e-16 0)
(3 -1.59307e-15 0)
(3 -2.1767e-15 0)
(3 -1.82488e-15 0)
(3 -4.67087e-16 0)
(3 5.99302e-16 0)
(3 2.53881e-16 0)
(3 3.99726e-16 0)
(3 1.0229e-15 0)
(3 -2.30048e-07 0)
(3.00002 5.16409e-06 0)
(3.05313 0.0897606 0)
(1.68408 0.827097 0)
(1.27841 0.843774 0)
(1.30326 0.839441 0)
(1.32234 0.838485 0)
(1.35916 0.835576 0)
(1.40657 0.83264 0)
(1.46343 0.829699 0)
(3 -3.74105e-17 0)
(3 2.87279e-16 0)
(3 7.3719e-16 0)
(3 -1.43214e-16 0)
(3 -9.80315e-16 0)
(3 -6.09642e-16 0)
(3 -5.76391e-16 0)
(3 -5.03739e-16 0)
(3 -1.90738e-16 0)
(3 1.05496e-15 0)
(3 1.13082e-15 0)
(3 1.62977e-15 0)
(3 1.8946e-15 0)
(3 2.43248e-15 0)
(3 2.37564e-15 0)
(3 1.44764e-15 0)
(3 1.04414e-15 0)
(3 7.42398e-16 0)
(3 1.0848e-15 0)
(3 1.59657e-15 0)
(3 1.84369e-15 0)
(3 1.95655e-15 0)
(3 2.40025e-15 0)
(3 2.19706e-15 0)
(3 1.25633e-15 0)
(3 -3.49898e-16 0)
(3 -5.16852e-16 0)
(3 -1.95807e-16 0)
(3 1.4478e-18 0)
(3 -5.59125e-17 0)
(3 -6.00912e-16 0)
(3 -1.22223e-15 0)
(3 -9.83844e-16 0)
(3 -1.00309e-15 0)
(3 -4.59455e-16 0)
(3 1.04704e-17 0)
(3 5.9367e-16 0)
(3 2.2454e-15 0)
(3 -2.63012e-09 0)
(3 -1.52811e-07 0)
(3.00736 0.00290389 0)
(2.54661 0.576398 0)
(1.39577 0.90171 0)
(1.33637 0.876734 0)
(1.36312 0.864917 0)
(1.3929 0.858808 0)
(1.43109 0.853624 0)
(1.47801 0.847105 0)
(3 -2.1068e-17 0)
(3 5.02466e-17 0)
(3 -2.00023e-17 0)
(3 -1.09731e-16 0)
(3 -4.2075e-16 0)
(3 -1.23923e-15 0)
(3 -1.11691e-15 0)
(3 -2.13122e-16 0)
(3 7.69387e-16 0)
(3 1.17646e-15 0)
(3 8.26134e-16 0)
(3 4.79367e-16 0)
(3 9.35822e-16 0)
(3 8.55421e-16 0)
(3 8.35663e-16 0)
(3 1.29605e-15 0)
(3 8.74612e-16 0)
(3 6.51634e-16 0)
(3 8.10051e-16 0)
(3 1.17417e-15 0)
(3 1.46041e-15 0)
(3 1.4427e-15 0)
(3 1.46001e-15 0)
(3 1.79754e-15 0)
(3 1.27919e-15 0)
(3 7.07971e-16 0)
(3 6.23053e-16 0)
(3 6.79317e-16 0)
(3 1.01457e-15 0)
(3 1.22888e-15 0)
(3 1.26793e-15 0)
(3 1.75645e-15 0)
(3 1.75702e-15 0)
(3 1.23813e-15 0)
(3 1.12714e-15 0)
(3 1.76471e-15 0)
(3 2.2757e-15 0)
(3 2.63129e-15 0)
(3 -5.42728e-12 0)
(3 -3.82672e-08 0)
(3.00002 2.69614e-05 0)
(3.0516 0.0645083 0)
(1.8346 0.813633 0)
(1.37853 0.891504 0)
(1.41284 0.881872 0)
(1.43863 0.873416 0)
(1.4696 0.863775 0)
(1.50794 0.85172 0)
(3 -1.96612e-17 0)
(3 -4.98464e-17 0)
(3 1.13138e-16 0)
(3 5.59959e-16 0)
(3 3.38735e-16 0)
(3 -3.53325e-16 0)
(3 -3.03584e-16 0)
(3 1.13564e-16 0)
(3 9.52512e-16 0)
(3 7.9843e-16 0)
(3 6.40916e-16 0)
(3 6.19769e-16 0)
(3 1.64639e-16 0)
(3 -1.20145e-16 0)
(3 2.93859e-16 0)
(3 1.42218e-15 0)
(3 1.49795e-15 0)
(3 1.37084e-15 0)
(3 5.3494e-16 0)
(3 5.50933e-17 0)
(3 2.82976e-17 0)
(3 -4.96195e-16 0)
(3 -2.1792e-17 0)
(3 6.65642e-16 0)
(3 7.67679e-16 0)
(3 9.72641e-16 0)
(3 9.49753e-16 0)
(3 8.87289e-16 0)
(3 9.15008e-16 0)
(3 1.34128e-15 0)
(3 1.63876e-15 0)
(3 3.31083e-15 0)
(3 3.94793e-15 0)
(3 3.91822e-15 0)
(3 3.41692e-15 0)
(3 3.18554e-15 0)
(3 3.32727e-15 0)
(3 2.26807e-15 0)
(3 -3.32952e-16 0)
(3 -3.62052e-09 0)
(3 1.10294e-08 0)
(3.00353 0.00250317 0)
(2.7074 0.439915 0)
(1.56689 0.927581 0)
(1.42808 0.907776 0)
(1.46527 0.90149 0)
(1.49568 0.891221 0)
(1.53198 0.874724 0)
(3 1.3673e-16 0)
(3 -2.85262e-16 0)
(3 1.08247e-16 0)
(3 1.32312e-16 0)
(3 1.23805e-16 0)
(3 2.06346e-16 0)
(3 4.74997e-16 0)
(3 1.21695e-15 0)
(3 1.67566e-15 0)
(3 1.38593e-15 0)
(3 7.12867e-16 0)
(3 9.51441e-16 0)
(3 3.95781e-16 0)
(3 -4.04778e-16 0)
(3 -1.0482e-15 0)
(3 -6.59609e-16 0)
(3 5.08931e-16 0)
(3 9.87766e-16 0)
(3 1.07369e-15 0)
(3 6.71161e-16 0)
(3 4.74503e-16 0)
(3 4.60403e-16 0)
(3 1.7217e-16 0)
(3 -6.13693e-16 0)
(3 -2.35441e-16 0)
(3 -7.0883e-17 0)
(3 1.43551e-16 0)
(3 4.30582e-16 0)
(3 2.21176e-16 0)
(3 5.88558e-16 0)
(3 1.48603e-15 0)
(3 2.03588e-15 0)
(3 2.35876e-15 0)
(3 2.43552e-15 0)
(3 2.73943e-15 0)
(3 3.09592e-15 0)
(3 3.26117e-15 0)
(3 1.7823e-15 0)
(3 1.55817e-15 0)
(3 -1.4689e-10 0)
(3 -1.46125e-10 0)
(3.00001 1.64331e-05 0)
(3.02671 0.0336563 0)
(2.11706 0.769461 0)
(1.4913 0.921447 0)
(1.49663 0.913931 0)
(1.52843 0.89969 0)
(1.56125 0.88515 0)
(3 -1.66451e-17 0)
(3 -1.46785e-16 0)
(3 3.01115e-17 0)
(3 9.47962e-17 0)
(3 9.13403e-16 0)
(3 1.58801e-15 0)
(3 1.5059e-15 0)
(3 1.24231e-15 0)
(3 1.16146e-15 0)
(3 1.158e-15 0)
(3 9.18436e-16 0)
(3 3.73155e-16 0)
(3 2.08166e-16 0)
(3 -4.24159e-16 0)
(3 -9.13499e-16 0)
(3 -1.67249e-15 0)
(3 -1.81457e-15 0)
(3 -5.72842e-16 0)
(3 6.52682e-16 0)
(3 6.20549e-16 0)
(3 8.99413e-16 0)
(3 1.06903e-15 0)
(3 -2.75442e-16 0)
(3 -2.34065e-15 0)
(3 -1.88175e-15 0)
(3 -1.10033e-15 0)
(3 -2.83238e-16 0)
(3 2.84592e-16 0)
(3 7.46645e-16 0)
(3 2.09327e-16 0)
(3 5.0369e-16 0)
(3 8.31511e-16 0)
(3 8.3226e-16 0)
(3 4.94016e-16 0)
(3 5.05664e-16 0)
(3 3.89338e-16 0)
(3 7.83065e-16 0)
(3 8.93971e-16 0)
(3 1.51739e-15 0)
(3 -1.31907e-12 0)
(3 -4.66987e-11 0)
(3 8.2513e-09 0)
(3.00076 0.00133383 0)
(2.90715 0.240323 0)
(1.79459 0.882361 0)
(1.5211 0.931891 0)
(1.55559 0.919764 0)
(1.58802 0.906326 0)
(3 -1.31415e-16 0)
(3 4.92031e-17 0)
(3 -1.70681e-16 0)
(3 1.8193e-16 0)
(3 1.0203e-15 0)
(3 1.3863e-15 0)
(3 1.21966e-15 0)
(3 2.91311e-16 0)
(3 -9.4684e-18 0)
(3 6.19663e-17 0)
(3 1.37496e-16 0)
(3 -2.67088e-16 0)
(3 -2.22332e-16 0)
(3 -1.49539e-16 0)
(3 5.03807e-17 0)
(3 -7.49433e-16 0)
(3 -1.2699e-15 0)
(3 -1.25591e-15 0)
(3 -8.34407e-16 0)
(3 -5.62988e-16 0)
(3 -9.57252e-17 0)
(3 -2.87249e-16 0)
(3 -1.40965e-15 0)
(3 -1.76367e-15 0)
(3 -1.68822e-15 0)
(3 -7.99785e-16 0)
(3 1.12133e-16 0)
(3 1.0325e-16 0)
(3 3.5576e-16 0)
(3 -2.60142e-16 0)
(3 -7.67217e-16 0)
(3 -9.68155e-16 0)
(3 -5.61451e-16 0)
(3 1.25193e-16 0)
(3 -1.63346e-16 0)
(3 -6.58272e-16 0)
(3 -8.53661e-16 0)
(3 2.60458e-16 0)
(3 8.37784e-16 0)
(3 -3.26907e-15 0)
(3 -6.21283e-12 0)
(3 -5.07324e-12 0)
(3 4.85515e-06 0)
(3.00726 0.0145937 0)
(2.51714 0.569006 0)
(1.65387 0.953393 0)
(1.5624 0.938767 0)
(1.59929 0.927607 0)
(3 4.14288e-17 0)
(3 -1.51665e-16 0)
(3 -3.90952e-16 0)
(3 -2.90177e-16 0)
(3 -5.95749e-17 0)
(3 3.07087e-16 0)
(3 -1.2427e-16 0)
(3 -3.1852e-16 0)
(3 -2.30558e-16 0)
(3 -4.23559e-16 0)
(3 -2.65709e-16 0)
(3 -1.39062e-16 0)
(3 -1.06151e-16 0)
(3 2.11014e-16 0)
(3 4.08322e-16 0)
(3 6.02449e-16 0)
(3 7.28157e-17 0)
(3 -2.22565e-16 0)
(3 -8.0847e-16 0)
(3 -8.87656e-16 0)
(3 -4.57442e-16 0)
(3 -6.46086e-16 0)
(3 -6.85114e-16 0)
(3 -1.94431e-16 0)
(3 2.92726e-16 0)
(3 1.14782e-16 0)
(3 -1.54769e-16 0)
(3 -7.184e-16 0)
(3 -1.62509e-15 0)
(3 -1.16499e-15 0)
(3 -6.56244e-16 0)
(3 -3.1222e-16 0)
(3 6.03551e-16 0)
(3 1.4496e-15 0)
(3 9.57008e-16 0)
(3 6.27639e-16 0)
(3 3.43461e-16 0)
(3 2.45269e-16 0)
(3 5.65198e-16 0)
(3 1.51246e-15 0)
(3 -1.80902e-13 0)
(3 -1.74064e-12 0)
(3 2.22793e-09 0)
(3.00002 0.000319316 0)
(2.99805 0.0766396 0)
(2.14184 0.781477 0)
(1.62385 0.946863 0)
(1.61815 0.943375 0)
(3 2.06184e-16 0)
(3 -2.77956e-17 0)
(3 -1.61866e-16 0)
(3 -3.42038e-16 0)
(3 -1.06554e-16 0)
(3 -2.08115e-16 0)
(3 -6.65988e-16 0)
(3 -4.61678e-16 0)
(3 2.7877e-16 0)
(3 -8.40741e-17 0)
(3 2.74296e-16 0)
(3 6.66539e-16 0)
(3 5.04062e-16 0)
(3 4.84728e-16 0)
(3 3.75075e-16 0)
(3 8.85428e-16 0)
(3 1.37802e-15 0)
(3 1.01054e-15 0)
(3 8.19636e-16 0)
(3 1.21544e-16 0)
(3 -1.91396e-16 0)
(3 2.04555e-16 0)
(3 1.08378e-15 0)
(3 1.58948e-15 0)
(3 1.0434e-15 0)
(3 1.18381e-16 0)
(3 -1.09939e-15 0)
(3 -1.05398e-15 0)
(3 -9.32726e-16 0)
(3 -3.04894e-16 0)
(3 6.39694e-16 0)
(3 1.57124e-15 0)
(3 1.80924e-15 0)
(3 2.07037e-15 0)
(3 1.63409e-15 0)
(3 7.8646e-16 0)
(3 1.15306e-15 0)
(3 1.0161e-15 0)
(3 1.3288e-15 0)
(3 2.13615e-15 0)
(3 1.1328e-15 0)
(3 -2.63527e-13 0)
(3 2.44949e-13 0)
(3 5.41445e-07 0)
(3.00069 0.00380369 0)
(2.85848 0.268782 0)
(1.92301 0.874894 0)
(1.65673 0.955059 0)
(3 2.45391e-18 0)
(3 5.66483e-17 0)
(3 9.98947e-17 0)
(3 -1.08766e-16 0)
(3 -3.02036e-16 0)
(3 -3.18848e-16 0)
(3 -2.90032e-16 0)
(3 2.2296e-16 0)
(3 3.075e-16 0)
(3 2.47837e-16 0)
(3 3.68547e-16 0)
(3 6.03598e-16 0)
(3 3.40403e-16 0)
(3 -7.40709e-17 0)
(3 -1.34011e-16 0)
(3 3.58746e-16 0)
(3 5.52797e-16 0)
(3 3.14306e-16 0)
(3 1.18692e-15 0)
(3 1.16349e-15 0)
(3 6.20389e-16 0)
(3 8.04983e-16 0)
(3 9.61272e-16 0)
(3 5.61136e-16 0)
(3 5.80487e-16 0)
(3 2.95173e-16 0)
(3 8.69971e-17 0)
(3 1.13774e-16 0)
(3 1.3355e-16 0)
(3 3.6375e-16 0)
(3 4.746e-16 0)
(3 5.63914e-16 0)
(3 7.81724e-16 0)
(3 9.93392e-16 0)
(3 6.00043e-16 0)
(3 2.68618e-16 0)
(3 2.33763e-16 0)
(3 6.64688e-16 0)
(3 9.9293e-16 0)
(3 5.1012e-16 0)
(3 4.56736e-16 0)
(3 -1.70259e-14 0)
(3 -1.59509e-14 0)
(3 2.96427e-10 0)
(3 2.47219e-05 0)
(3.00091 0.0194229 0)
(2.59011 0.499046 0)
(1.83248 0.930213 0)
(3 -1.029e-16 0)
(3 4.42059e-17 0)
(3 3.60486e-16 0)
(3 9.00539e-17 0)
(3 -9.55295e-16 0)
(3 -9.9654e-16 0)
(3 -6.97083e-16 0)
(3 -3.43411e-16 0)
(3 -4.21462e-16 0)
(3 -9.71139e-17 0)
(3 -7.98762e-17 0)
(3 -2.24349e-16 0)
(3 1.01017e-16 0)
(3 1.92966e-16 0)
(3 9.7135e-17 0)
(3 -1.13561e-16 0)
(3 -2.51001e-16 0)
(3 8.39859e-17 0)
(3 4.50152e-16 0)
(3 7.36115e-16 0)
(3 7.87916e-16 0)
(3 3.83589e-16 0)
(3 4.4191e-16 0)
(3 4.88366e-16 0)
(3 1.11903e-15 0)
(3 1.15821e-15 0)
(3 5.33353e-16 0)
(3 4.53728e-16 0)
(3 3.85891e-16 0)
(3 -3.04595e-17 0)
(3 -5.18675e-16 0)
(3 -8.24079e-16 0)
(3 -6.47543e-16 0)
(3 -7.74825e-16 0)
(3 -4.62984e-17 0)
(3 4.60834e-16 0)
(3 3.00226e-16 0)
(3 1.27539e-16 0)
(3 -5.89962e-16 0)
(3 -1.25278e-15 0)
(3 -9.90998e-16 0)
(3 -4.60598e-16 0)
(3 -6.02264e-15 0)
(3 4.06587e-14 0)
(3 2.18545e-08 0)
(2.99995 0.000433576 0)
(2.98399 0.0611757 0)
(2.35597 0.672982 0)
(3 4.34059e-17 0)
(3 3.17278e-16 0)
(3 6.69703e-17 0)
(3 -6.60911e-16 0)
(3 -1.22074e-15 0)
(3 -1.40558e-15 0)
(3 -7.81875e-16 0)
(3 -6.26857e-16 0)
(3 -6.84262e-16 0)
(3 -4.07522e-16 0)
(3 -4.50722e-16 0)
(3 -6.62423e-16 0)
(3 -3.29398e-17 0)
(3 2.60406e-16 0)
(3 4.63263e-16 0)
(3 9.25969e-16 0)
(3 7.06568e-16 0)
(3 5.90285e-16 0)
(3 -5.07445e-16 0)
(3 -5.33938e-16 0)
(3 -3.55255e-16 0)
(3 -2.93263e-16 0)
(3 5.67113e-16 0)
(3 1.53886e-15 0)
(3 1.59824e-15 0)
(3 1.09708e-15 0)
(3 6.25622e-16 0)
(3 1.75299e-16 0)
(3 -4.97739e-16 0)
(3 -7.91176e-16 0)
(3 -8.55564e-16 0)
(3 -1.12151e-15 0)
(3 -1.44576e-15 0)
(3 -1.65015e-15 0)
(3 -6.96365e-16 0)
(3 1.18035e-15 0)
(3 1.66197e-15 0)
(3 6.94734e-16 0)
(3 -1.52044e-17 0)
(3 -2.29645e-16 0)
(3 2.65111e-16 0)
(3 1.04534e-15 0)
(3 4.15698e-16 0)
(3 3.52979e-16 0)
(3 9.68588e-12 0)
(3 8.65273e-07 0)
(2.99974 0.00268212 0)
(2.9226 0.156115 0)
(3 -3.26706e-17 0)
(3 -2.80305e-17 0)
(3 -2.5616e-16 0)
(3 -1.10382e-16 0)
(3 -1.10754e-16 0)
(3 -3.36871e-16 0)
(3 -1.69137e-16 0)
(3 -4.40069e-16 0)
(3 -6.35617e-16 0)
(3 -2.66057e-16 0)
(3 -3.14125e-16 0)