/*--------------------------------*- C++ -*----------------------------------*\
  =========                 |
  \\      /  F ield         | OpenFOAM: The Open Source CFD Toolbox
   \\    /   O peration     | Website:  https://openfoam.org
    \\  /    A nd           | Version:  7
     \\/     M anipulation  |
\*---------------------------------------------------------------------------*/
FoamFile
{
    version     2.0;
    format      ascii;
    class       volVectorField;
    location    "2";
    object      U;
}
// * * * * * * * * * * * * * * * * * * * * * * * * * * * * * * * * * * * * * //

dimensions      [0 1 -1 0 0 0 0];

internalField   nonuniform List<vector> 
16192
(
(2.64524 -0.345907 0)
(2.646 -0.343975 0)
(2.64794 -0.341615 0)
(2.65242 -0.338071 0)
(2.65994 -0.334709 0)
(2.66693 -0.333476 0)
(2.67017 -0.334252 0)
(2.67102 -0.334971 0)
(2.6721 -0.335434 0)
(2.6738 -0.335724 0)
(2.67317 -0.334259 0)
(2.66769 -0.329347 0)
(2.66187 -0.321781 0)
(2.6626 -0.318495 0)
(2.66511 -0.317533 0)
(2.66731 -0.316907 0)
(2.67135 -0.316283 0)
(2.67855 -0.317431 0)
(2.68323 -0.319061 0)
(2.68605 -0.319478 0)
(2.69004 -0.320244 0)
(2.69328 -0.321171 0)
(2.69579 -0.322175 0)
(2.69735 -0.322377 0)
(2.69611 -0.319691 0)
(2.69124 -0.313344 0)
(2.68835 -0.308049 0)
(2.68822 -0.305703 0)
(2.68805 -0.305082 0)
(2.68891 -0.302293 0)
(2.69137 -0.29758 0)
(2.69514 -0.292331 0)
(2.69867 -0.287584 0)
(2.69792 -0.283818 0)
(2.69454 -0.281979 0)
(2.69218 -0.280455 0)
(2.68768 -0.276768 0)
(2.68148 -0.271216 0)
(2.67855 -0.264651 0)
(2.67863 -0.260814 0)
(2.68054 -0.260536 0)
(2.68212 -0.261343 0)
(2.68617 -0.263334 0)
(2.69116 -0.264759 0)
(2.69402 -0.264548 0)
(2.69871 -0.263884 0)
(2.7026 -0.263757 0)
(2.70568 -0.264143 0)
(2.70753 -0.263775 0)
(2.70649 -0.262177 0)
(2.70439 -0.260017 0)
(2.70291 -0.258155 0)
(2.70457 -0.257985 0)
(2.70748 -0.259531 0)
(2.70951 -0.263032 0)
(2.71202 -0.265537 0)
(2.71518 -0.267083 0)
(2.71754 -0.2689 0)
(2.71794 -0.27031 0)
(2.7165 -0.269534 0)
(2.71806 -0.267666 0)
(2.72025 -0.266597 0)
(2.72226 -0.263585 0)
(2.72311 -0.26062 0)
(2.72642 -0.257553 0)
(2.72966 -0.255418 0)
(2.73225 -0.254271 0)
(2.73432 -0.253371 0)
(2.73329 -0.251636 0)
(2.72668 -0.248674 0)
(2.72509 -0.247415 0)
(2.72685 -0.247476 0)
(2.72856 -0.247483 0)
(2.7309 -0.246972 0)
(2.73382 -0.245885 0)
(2.73817 -0.244981 0)
(2.74501 -0.244094 0)
(2.75299 -0.243948 0)
(2.75847 -0.245702 0)
(2.76042 -0.247588 0)
(2.7619 -0.249062 0)
(2.7643 -0.251416 0)
(2.76398 -0.25324 0)
(2.75423 -0.251888 0)
(2.74274 -0.247674 0)
(2.74317 -0.245843 0)
(2.74564 -0.245928 0)
(2.74766 -0.246115 0)
(2.74955 -0.246418 0)
(2.75132 -0.246777 0)
(2.75499 -0.246747 0)
(2.76116 -0.244886 0)
(2.76884 -0.241474 0)
(2.77492 -0.23778 0)
(2.77678 -0.235995 0)
(2.77864 -0.233844 0)
(2.77992 -0.230455 0)
(2.77828 -0.226724 0)
(2.77489 -0.224456 0)
(2.77558 -0.225584 0)
(2.77809 -0.227885 0)
(2.77968 -0.2303 0)
(2.78083 -0.2335 0)
(2.78286 -0.23665 0)
(2.7848 -0.238245 0)
(2.7866 -0.239764 0)
(2.78892 -0.240191 0)
(2.79073 -0.239778 0)
(2.79189 -0.239198 0)
(2.79163 -0.236256 0)
(2.7855 -0.228269 0)
(2.77736 -0.218891 0)
(2.77742 -0.215913 0)
(2.77889 -0.214757 0)
(2.78004 -0.213288 0)
(2.78185 -0.211322 0)
(2.78418 -0.20862 0)
(2.7876 -0.205798 0)
(2.79312 -0.202962 0)
(2.80017 -0.20076 0)
(2.80788 -0.199066 0)
(2.81283 -0.198784 0)
(2.81175 -0.198812 0)
(2.81011 -0.198476 0)
(2.80906 -0.197258 0)
(2.80772 -0.195606 0)
(2.80433 -0.192248 0)
(2.79667 -0.186206 0)
(2.79102 -0.181306 0)
(2.79168 -0.180584 0)
(2.79326 -0.181104 0)
(2.79621 -0.181318 0)
(2.79922 -0.181035 0)
(2.80312 -0.180422 0)
(2.80569 -0.180813 0)
(2.80456 -0.182611 0)
(2.8029 -0.183824 0)
(2.80503 -0.183429 0)
(2.80773 -0.182541 0)
(2.81056 -0.180959 0)
(2.81309 -0.179407 0)
(2.81712 -0.17846 0)
(2.82301 -0.179498 0)
(2.83016 -0.182405 0)
(2.83598 -0.185592 0)
(2.83894 -0.187212 0)
(2.84071 -0.18807 0)
(2.8427 -0.189549 0)
(2.84024 -0.190924 0)
(2.82651 -0.18932 0)
(2.80817 -0.183551 0)
(2.80345 -0.180952 0)
(2.80483 -0.179837 0)
(2.80682 -0.178968 0)
(2.80875 -0.178201 0)
(2.8113 -0.177479 0)
(2.81793 -0.178651 0)
(2.83018 -0.185882 0)
(2.8398 -0.190362 0)
(2.84209 -0.19002 0)
(2.84535 -0.188484 0)
(2.84819 -0.187231 0)
(2.84831 -0.18453 0)
(2.84219 -0.178473 0)
(2.83725 -0.174894 0)
(2.83832 -0.174864 0)
(2.83995 -0.175404 0)
(2.84149 -0.175919 0)
(2.84336 -0.176538 0)
(2.84729 -0.177075 0)
(2.85145 -0.176901 0)
(2.85306 -0.176605 0)
(2.85386 -0.176371 0)
(2.85572 -0.175177 0)
(2.85711 -0.172002 0)
(2.85556 -0.166451 0)
(2.85029 -0.16178 0)
(2.84763 -0.161928 0)
(2.84866 -0.163736 0)
(2.85089 -0.165132 0)
(2.8534 -0.165965 0)
(2.85596 -0.166596 0)
(2.85853 -0.167442 0)
(2.86153 -0.168515 0)
(2.86471 -0.169125 0)
(2.86729 -0.168423 0)
(2.86957 -0.167165 0)
(2.87085 -0.166721 0)
(2.87253 -0.165178 0)
(2.8722 -0.160874 0)
(2.86895 -0.154701 0)
(2.86694 -0.152009 0)
(2.86824 -0.152027 0)
(2.86982 -0.153544 0)
(2.8714 -0.156413 0)
(2.87266 -0.159312 0)
(2.87403 -0.162894 0)
(2.87458 -0.166385 0)
(2.87364 -0.168304 0)
(2.87158 -0.166189 0)
(2.86978 -0.161224 0)
(2.86753 -0.153499 0)
(2.86575 -0.146575 0)
(2.86309 -0.143304 0)
(2.85881 -0.136532 0)
(2.85462 -0.123941 0)
(2.85188 -0.116626 0)
(2.84866 -0.110375 0)
(2.84582 -0.108091 0)
(2.8455 -0.107986 0)
(2.84508 -0.107705 0)
(2.84493 -0.106543 0)
(2.84546 -0.104379 0)
(2.84556 -0.103223 0)
(2.84299 -0.106263 0)
(2.84215 -0.111885 0)
(2.84471 -0.115066 0)
(2.84773 -0.117259 0)
(2.85417 -0.118162 0)
(2.86031 -0.114224 0)
(2.86562 -0.109398 0)
(2.86946 -0.10563 0)
(2.87181 -0.103534 0)
(2.87385 -0.101417 0)
(2.87356 -0.0988777 0)
(2.86781 -0.0976458 0)
(2.86051 -0.101105 0)
(2.85933 -0.106135 0)
(2.8606 -0.109099 0)
(2.86221 -0.11063 0)
(2.8636 -0.111186 0)
(2.86492 -0.111527 0)
(2.86841 -0.111345 0)
(2.87458 -0.109272 0)
(2.88056 -0.106058 0)
(2.88269 -0.104464 0)
(2.88414 -0.102684 0)
(2.88553 -0.0985653 0)
(2.88486 -0.0924441 0)
(2.88265 -0.0877034 0)
(2.88124 -0.0869398 0)
(2.8805 -0.0891183 0)
(2.87945 -0.0932956 0)
(2.87787 -0.0977469 0)
(2.87883 -0.0989975 0)
(2.88059 -0.0987661 0)
(2.88272 -0.0980324 0)
(2.88581 -0.0971664 0)
(2.88878 -0.0963796 0)
(2.89252 -0.0956071 0)
(2.8975 -0.0934591 0)
(2.90125 -0.0909202 0)
(2.90179 -0.0894386 0)
(2.64955 -0.348423 0)
(2.65031 -0.345518 0)
(2.65203 -0.342405 0)
(2.656 -0.337722 0)
(2.66314 -0.332646 0)
(2.6686 -0.330264 0)
(2.67045 -0.330657 0)
(2.671 -0.331513 0)
(2.67134 -0.332298 0)
(2.67224 -0.333419 0)
(2.67324 -0.333765 0)
(2.67276 -0.331259 0)
(2.66988 -0.325417 0)
(2.66739 -0.317441 0)
(2.66874 -0.313315 0)
(2.67115 -0.311851 0)
(2.67314 -0.311279 0)
(2.67719 -0.31167 0)
(2.68269 -0.313676 0)
(2.68517 -0.314866 0)
(2.68877 -0.315726 0)
(2.69235 -0.316724 0)
(2.69525 -0.317841 0)
(2.69752 -0.318651 0)
(2.69914 -0.318287 0)
(2.69856 -0.314904 0)
(2.6949 -0.30785 0)
(2.69236 -0.302465 0)
(2.69247 -0.300497 0)
(2.6928 -0.300019 0)
(2.69471 -0.298128 0)
(2.69756 -0.295754 0)
(2.70005 -0.293393 0)
(2.70122 -0.29124 0)
(2.69965 -0.288922 0)
(2.69643 -0.286422 0)
(2.69354 -0.283275 0)
(2.68876 -0.277768 0)
(2.6834 -0.270562 0)
(2.68171 -0.261598 0)
(2.68341 -0.256047 0)
(2.68469 -0.255138 0)
(2.68727 -0.255617 0)
(2.69282 -0.257909 0)
(2.69528 -0.258647 0)
(2.69834 -0.25854 0)
(2.70175 -0.25893 0)
(2.70489 -0.259761 0)
(2.70753 -0.260216 0)
(2.70906 -0.259725 0)
(2.70827 -0.258163 0)
(2.70605 -0.256128 0)
(2.70521 -0.256353 0)
(2.70624 -0.258019 0)
(2.70778 -0.259649 0)
(2.70977 -0.261837 0)
(2.71208 -0.264641 0)
(2.714 -0.266787 0)
(2.71562 -0.267614 0)
(2.71753 -0.266391 0)
(2.72027 -0.263707 0)
(2.72295 -0.261512 0)
(2.72492 -0.258388 0)
(2.72637 -0.256058 0)
(2.72981 -0.253674 0)
(2.73297 -0.25177 0)
(2.73553 -0.250613 0)
(2.73752 -0.249875 0)
(2.73737 -0.248717 0)
(2.73143 -0.245438 0)
(2.72648 -0.242469 0)
(2.72806 -0.24193 0)
(2.72972 -0.242027 0)
(2.73175 -0.24198 0)
(2.73449 -0.241323 0)
(2.73879 -0.240359 0)
(2.74628 -0.238786 0)
(2.7535 -0.2383 0)
(2.75709 -0.240238 0)
(2.75837 -0.242639 0)
(2.75988 -0.245955 0)
(2.76142 -0.249609 0)
(2.76123 -0.252624 0)
(2.75528 -0.25281 0)
(2.74495 -0.248595 0)
(2.74256 -0.244848 0)
(2.7451 -0.243429 0)
(2.74732 -0.242895 0)
(2.74929 -0.242471 0)
(2.75117 -0.242181 0)
(2.75619 -0.241468 0)
(2.76516 -0.239125 0)
(2.77533 -0.234308 0)
(2.77963 -0.232162 0)
(2.78125 -0.231599 0)
(2.78353 -0.230012 0)
(2.78484 -0.22786 0)
(2.78351 -0.224618 0)
(2.77848 -0.221067 0)
(2.77492 -0.221109 0)
(2.77546 -0.224313 0)
(2.77694 -0.22746 0)
(2.77889 -0.229937 0)
(2.78076 -0.231497 0)
(2.78238 -0.232869 0)
(2.78609 -0.234789 0)
(2.79088 -0.235746 0)
(2.79396 -0.235356 0)
(2.79491 -0.235152 0)
(2.79598 -0.234325 0)
(2.79477 -0.230457 0)
(2.78799 -0.221161 0)
(2.78269 -0.213116 0)
(2.78268 -0.210535 0)
(2.78305 -0.209598 0)
(2.78478 -0.207496 0)
(2.78819 -0.204362 0)
(2.79215 -0.201074 0)
(2.79556 -0.199453 0)
(2.79967 -0.198669 0)
(2.80548 -0.198316 0)
(2.81178 -0.198885 0)
(2.81477 -0.199396 0)
(2.8136 -0.198561 0)
(2.81181 -0.197219 0)
(2.8102 -0.195024 0)
(2.80792 -0.1927 0)
(2.80296 -0.188241 0)
(2.79541 -0.181083 0)
(2.79273 -0.177038 0)
(2.79428 -0.176599 0)
(2.79604 -0.176749 0)
(2.79865 -0.176817 0)
(2.8023 -0.176731 0)
(2.80557 -0.177138 0)
(2.80621 -0.178493 0)
(2.80568 -0.179621 0)
(2.80785 -0.179272 0)
(2.81038 -0.17835 0)
(2.81339 -0.176178 0)
(2.81658 -0.173568 0)
(2.82156 -0.171887 0)
(2.82629 -0.172627 0)
(2.82987 -0.176055 0)
(2.83339 -0.179971 0)
(2.83492 -0.182174 0)
(2.83657 -0.18421 0)
(2.83796 -0.187162 0)
(2.83684 -0.190524 0)
(2.8304 -0.191942 0)
(2.81807 -0.187633 0)
(2.80807 -0.179694 0)
(2.80655 -0.175653 0)
(2.80824 -0.173883 0)
(2.81019 -0.172389 0)
(2.8123 -0.171066 0)
(2.81648 -0.170466 0)
(2.82372 -0.17291 0)
(2.8348 -0.180632 0)
(2.84256 -0.185469 0)
(2.84484 -0.185586 0)
(2.84857 -0.185025 0)
(2.85145 -0.184318 0)
(2.84982 -0.181514 0)
(2.84217 -0.175048 0)
(2.83976 -0.171032 0)
(2.84164 -0.169995 0)
(2.84347 -0.170101 0)
(2.84505 -0.170253 0)
(2.84728 -0.170252 0)
(2.85238 -0.170924 0)
(2.85702 -0.17189 0)
(2.85808 -0.17199 0)
(2.85962 -0.170899 0)
(2.86045 -0.168458 0)
(2.85927 -0.164992 0)
(2.85383 -0.160827 0)
(2.84905 -0.158768 0)
(2.84949 -0.15914 0)
(2.85156 -0.160058 0)
(2.85385 -0.16099 0)
(2.85589 -0.161927 0)
(2.85832 -0.162766 0)
(2.86112 -0.163602 0)
(2.86511 -0.164266 0)
(2.86995 -0.164038 0)
(2.87311 -0.162448 0)
(2.87446 -0.161041 0)
(2.87542 -0.160047 0)
(2.87658 -0.158183 0)
(2.87554 -0.154552 0)
(2.87094 -0.150103 0)
(2.8672 -0.148708 0)
(2.86765 -0.150234 0)
(2.86896 -0.152283 0)
(2.87008 -0.154871 0)
(2.87082 -0.157996 0)
(2.87136 -0.161652 0)
(2.87151 -0.164531 0)
(2.8718 -0.16493 0)
(2.8729 -0.163297 0)
(2.87304 -0.159138 0)
(2.87264 -0.152611 0)
(2.87147 -0.145968 0)
(2.8696 -0.143929 0)
(2.86523 -0.134041 0)
(2.85968 -0.118027 0)
(2.85636 -0.112855 0)
(2.85142 -0.10889 0)
(2.84715 -0.107766 0)
(2.84622 -0.106721 0)
(2.84504 -0.104911 0)
(2.84429 -0.102894 0)
(2.84356 -0.101208 0)
(2.84184 -0.101969 0)
(2.84241 -0.105264 0)
(2.84481 -0.107876 0)
(2.84821 -0.110275 0)
(2.85577 -0.111894 0)
(2.86274 -0.108562 0)
(2.8665 -0.103816 0)
(2.87014 -0.10132 0)
(2.87388 -0.100759 0)
(2.87668 -0.100256 0)
(2.87606 -0.0996193 0)
(2.86836 -0.100472 0)
(2.85884 -0.104018 0)
(2.85781 -0.107019 0)
(2.85923 -0.108149 0)
(2.86039 -0.108461 0)
(2.86116 -0.108436 0)
(2.86289 -0.108275 0)
(2.86885 -0.107372 0)
(2.87904 -0.103632 0)
(2.88653 -0.09935 0)
(2.88808 -0.0980635 0)
(2.88988 -0.0962402 0)
(2.89163 -0.0931523 0)
(2.8918 -0.0884905 0)
(2.88829 -0.0839444 0)
(2.88171 -0.0845575 0)
(2.87652 -0.0895722 0)
(2.87535 -0.093325 0)
(2.87712 -0.0945467 0)
(2.87889 -0.0950229 0)
(2.88105 -0.095347 0)
(2.88403 -0.0947916 0)
(2.88723 -0.0934443 0)
(2.89015 -0.0918397 0)
(2.8935 -0.0904426 0)
(2.89787 -0.0882592 0)
(2.90167 -0.0873822 0)
(2.90284 -0.0873627 0)
(2.65323 -0.349881 0)
(2.65403 -0.34501 0)
(2.65661 -0.340797 0)
(2.66089 -0.335626 0)
(2.6664 -0.331182 0)
(2.67011 -0.329448 0)
(2.67105 -0.32946 0)
(2.67116 -0.329537 0)
(2.67127 -0.330071 0)
(2.67151 -0.331151 0)
(2.67235 -0.331814 0)
(2.67386 -0.330967 0)
(2.67493 -0.327313 0)
(2.67462 -0.32146 0)
(2.67403 -0.313618 0)
(2.6752 -0.30805 0)
(2.67773 -0.306006 0)
(2.67954 -0.305746 0)
(2.68177 -0.307145 0)
(2.68428 -0.309909 0)
(2.68692 -0.311927 0)
(2.69064 -0.312505 0)
(2.69442 -0.312949 0)
(2.69743 -0.313463 0)
(2.70001 -0.31354 0)
(2.7018 -0.312933 0)
(2.70144 -0.309445 0)
(2.69794 -0.302235 0)
(2.69568 -0.297165 0)
(2.69615 -0.296095 0)
(2.69706 -0.29634 0)
(2.69907 -0.296255 0)
(2.70077 -0.295719 0)
(2.70189 -0.294969 0)
(2.70245 -0.293708 0)
(2.70137 -0.292169 0)
(2.69835 -0.289682 0)
(2.69591 -0.284012 0)
(2.69283 -0.276165 0)
(2.68719 -0.267143 0)
(2.68667 -0.256104 0)
(2.68867 -0.250832 0)
(2.69041 -0.249924 0)
(2.69311 -0.250756 0)
(2.69622 -0.252583 0)
(2.69811 -0.253144 0)
(2.70124 -0.254 0)
(2.70413 -0.255291 0)
(2.70657 -0.256549 0)
(2.70886 -0.256986 0)
(2.71044 -0.256118 0)
(2.71022 -0.253982 0)
(2.70837 -0.253604 0)
(2.70692 -0.254459 0)
(2.7068 -0.255796 0)
(2.70759 -0.259079 0)
(2.71002 -0.261835 0)
(2.71301 -0.26244 0)
(2.71581 -0.262721 0)
(2.71868 -0.262314 0)
(2.72188 -0.260054 0)
(2.72489 -0.25607 0)
(2.72646 -0.252847 0)
(2.72871 -0.250758 0)
(2.73145 -0.248754 0)
(2.73425 -0.24708 0)
(2.73698 -0.246394 0)
(2.73926 -0.246437 0)
(2.74033 -0.246153 0)
(2.73763 -0.243735 0)
(2.73115 -0.238909 0)
(2.73006 -0.236694 0)
(2.73201 -0.236338 0)
(2.7337 -0.236432 0)
(2.73569 -0.236169 0)
(2.73945 -0.235282 0)
(2.74668 -0.234173 0)
(2.75211 -0.234086 0)
(2.75396 -0.234721 0)
(2.75651 -0.237518 0)
(2.75805 -0.241836 0)
(2.75859 -0.246413 0)
(2.75817 -0.250103 0)
(2.75579 -0.251564 0)
(2.75001 -0.248662 0)
(2.74515 -0.242744 0)
(2.74584 -0.239547 0)
(2.74795 -0.238161 0)
(2.74988 -0.237219 0)
(2.75218 -0.236231 0)
(2.7583 -0.234488 0)
(2.76974 -0.230042 0)
(2.77831 -0.227031 0)
(2.77987 -0.226892 0)
(2.78246 -0.226754 0)
(2.78527 -0.226315 0)
(2.78766 -0.225298 0)
(2.78815 -0.223245 0)
(2.78361 -0.220934 0)
(2.77482 -0.221242 0)
(2.77303 -0.22391 0)
(2.77522 -0.225182 0)
(2.77736 -0.225675 0)
(2.77927 -0.22615 0)
(2.78093 -0.226874 0)
(2.78459 -0.22859 0)
(2.7912 -0.231327 0)
(2.79753 -0.232081 0)
(2.79999 -0.230824 0)
(2.8005 -0.229657 0)
(2.80072 -0.227123 0)
(2.7987 -0.220676 0)
(2.79088 -0.210426 0)
(2.78504 -0.204409 0)
(2.78551 -0.202324 0)
(2.78615 -0.201842 0)
(2.78913 -0.200802 0)
(2.7932 -0.199089 0)
(2.79656 -0.1977 0)
(2.79999 -0.196964 0)
(2.80427 -0.197072 0)
(2.80983 -0.197996 0)
(2.81461 -0.199104 0)
(2.81657 -0.199166 0)
(2.81589 -0.197351 0)
(2.81382 -0.194507 0)
(2.8115 -0.191442 0)
(2.80856 -0.18868 0)
(2.8024 -0.183625 0)
(2.79609 -0.176625 0)
(2.7956 -0.173786 0)
(2.79733 -0.172828 0)
(2.79946 -0.172319 0)
(2.80257 -0.172463 0)
(2.80563 -0.173501 0)
(2.80698 -0.174043 0)
(2.80722 -0.173924 0)
(2.80973 -0.173734 0)
(2.8121 -0.17303 0)
(2.81483 -0.170884 0)
(2.81894 -0.167463 0)
(2.82396 -0.164833 0)
(2.82698 -0.165747 0)
(2.82962 -0.168829 0)
(2.83074 -0.173436 0)
(2.83072 -0.176681 0)
(2.83169 -0.180428 0)
(2.8322 -0.183981 0)
(2.83157 -0.187459 0)
(2.82937 -0.190391 0)
(2.82514 -0.190732 0)
(2.81927 -0.186026 0)
(2.81291 -0.177083 0)
(2.81081 -0.170414 0)
(2.81274 -0.167843 0)
(2.81477 -0.166187 0)
(2.81724 -0.164916 0)
(2.82179 -0.164751 0)
(2.82851 -0.167997 0)
(2.83841 -0.175708 0)
(2.84595 -0.180987 0)
(2.84825 -0.181421 0)
(2.85157 -0.181416 0)
(2.85263 -0.18118 0)
(2.84822 -0.178211 0)
(2.84125 -0.171736 0)
(2.8401 -0.168532 0)
(2.84222 -0.167817 0)
(2.84399 -0.16769 0)
(2.84562 -0.167149 0)
(2.85025 -0.166582 0)
(2.85737 -0.165813 0)
(2.86148 -0.16545 0)
(2.86247 -0.165179 0)
(2.86362 -0.164222 0)
(2.86294 -0.162475 0)
(2.85649 -0.160027 0)
(2.84877 -0.158686 0)
(2.84822 -0.158827 0)
(2.85011 -0.158983 0)
(2.85258 -0.158991 0)
(2.85493 -0.159135 0)
(2.85702 -0.159319 0)
(2.8596 -0.15935 0)
(2.86482 -0.15889 0)
(2.86996 -0.157832 0)
(2.87381 -0.156497 0)
(2.8763 -0.155624 0)
(2.8773 -0.155437 0)
(2.87899 -0.154853 0)
(2.8797 -0.153278 0)
(2.8766 -0.14979 0)
(2.86985 -0.146006 0)
(2.86619 -0.146336 0)
(2.86637 -0.149496 0)
(2.8671 -0.152633 0)
(2.8676 -0.15555 0)
(2.86851 -0.158369 0)
(2.87109 -0.159609 0)
(2.87272 -0.159858 0)
(2.87412 -0.159931 0)
(2.87638 -0.158981 0)
(2.87735 -0.156133 0)
(2.87668 -0.149969 0)
(2.87708 -0.145423 0)
(2.87702 -0.141505 0)
(2.87012 -0.129075 0)
(2.86398 -0.116507 0)
(2.85924 -0.11306 0)
(2.85194 -0.108824 0)
(2.84657 -0.105731 0)
(2.84458 -0.103172 0)
(2.84266 -0.101374 0)
(2.84109 -0.0990253 0)
(2.84163 -0.0986595 0)
(2.84444 -0.100068 0)
(2.84719 -0.10156 0)
(2.84993 -0.102904 0)
(2.85704 -0.103482 0)
(2.8623 -0.10213 0)
(2.86577 -0.100835 0)
(2.87058 -0.0991117 0)
(2.87458 -0.0987957 0)
(2.8771 -0.0990878 0)
(2.87626 -0.0999064 0)
(2.8682 -0.101501 0)
(2.85847 -0.103358 0)
(2.85723 -0.104072 0)
(2.85839 -0.103995 0)
(2.85932 -0.10367 0)
(2.86012 -0.102945 0)
(2.86244 -0.101644 0)
(2.86957 -0.0990422 0)
(2.88227 -0.0945214 0)
(2.88995 -0.092925 0)
(2.89146 -0.0925492 0)
(2.89392 -0.0913951 0)
(2.8962 -0.0900486 0)
(2.89715 -0.0878943 0)
(2.89216 -0.0855018 0)
(2.88043 -0.0856694 0)
(2.87542 -0.087302 0)
(2.87604 -0.0884433 0)
(2.87735 -0.0892347 0)
(2.87886 -0.0899897 0)
(2.88112 -0.0909649 0)
(2.88553 -0.0915691 0)
(2.88938 -0.0901803 0)
(2.89247 -0.0886676 0)
(2.89561 -0.0874857 0)
(2.89941 -0.0855667 0)
(2.90242 -0.0855533 0)
(2.90327 -0.0857469 0)
(2.66323 -0.35303 0)
(2.66165 -0.344004 0)
(2.66258 -0.338859 0)
(2.66525 -0.335403 0)
(2.66835 -0.332666 0)
(2.67092 -0.330613 0)
(2.67198 -0.329915 0)
(2.67217 -0.329826 0)
(2.67231 -0.32971 0)
(2.67271 -0.329706 0)
(2.67354 -0.329798 0)
(2.67513 -0.329406 0)
(2.67727 -0.327463 0)
(2.67969 -0.322919 0)
(2.68077 -0.3171 0)
(2.68055 -0.310394 0)
(2.67965 -0.304719 0)
(2.68048 -0.302677 0)
(2.68252 -0.303057 0)
(2.68457 -0.304154 0)
(2.6871 -0.305652 0)
(2.68969 -0.307628 0)
(2.69286 -0.308094 0)
(2.69688 -0.308087 0)
(2.70023 -0.307719 0)
(2.70307 -0.307117 0)
(2.70511 -0.306398 0)
(2.70439 -0.303631 0)
(2.69973 -0.297372 0)
(2.69713 -0.2935 0)
(2.69888 -0.293328 0)
(2.70012 -0.294408 0)
(2.7011 -0.29531 0)
(2.70216 -0.295385 0)
(2.70311 -0.295254 0)
(2.70396 -0.294094 0)
(2.70438 -0.291368 0)
(2.70215 -0.287823 0)
(2.7003 -0.281775 0)
(2.69796 -0.272612 0)
(2.69292 -0.261879 0)
(2.69231 -0.250582 0)
(2.69364 -0.246723 0)
(2.69525 -0.245808 0)
(2.69753 -0.246718 0)
(2.69927 -0.248086 0)
(2.701 -0.24881 0)
(2.70323 -0.250438 0)
(2.7052 -0.252299 0)
(2.70741 -0.253412 0)
(2.71006 -0.253351 0)
(2.71218 -0.251965 0)
(2.71232 -0.250365 0)
(2.70992 -0.250182 0)
(2.70685 -0.253045 0)
(2.70706 -0.256406 0)
(2.70946 -0.257628 0)
(2.71167 -0.258008 0)
(2.71432 -0.257877 0)
(2.71826 -0.25697 0)
(2.72359 -0.254137 0)
(2.72638 -0.251006 0)
(2.72871 -0.24913 0)
(2.73163 -0.247291 0)
(2.73413 -0.245325 0)
(2.73621 -0.243382 0)
(2.73789 -0.242391 0)
(2.73962 -0.242432 0)
(2.74109 -0.242661 0)
(2.74086 -0.241975 0)
(2.73784 -0.238497 0)
(2.73476 -0.233381 0)
(2.73563 -0.231213 0)
(2.73754 -0.2307 0)
(2.73863 -0.230539 0)
(2.74177 -0.229324 0)
(2.74641 -0.228807 0)
(2.74922 -0.230651 0)
(2.7512 -0.232704 0)
(2.7538 -0.235096 0)
(2.75581 -0.237956 0)
(2.75659 -0.241664 0)
(2.75617 -0.245884 0)
(2.75523 -0.249044 0)
(2.75406 -0.248867 0)
(2.75212 -0.243764 0)
(2.75009 -0.236423 0)
(2.75064 -0.23214 0)
(2.7521 -0.23026 0)
(2.7545 -0.228513 0)
(2.76113 -0.22497 0)
(2.77296 -0.222423 0)
(2.7797 -0.222631 0)
(2.78117 -0.222952 0)
(2.78348 -0.223517 0)
(2.78618 -0.223756 0)
(2.78897 -0.223967 0)
(2.79006 -0.224225 0)
(2.7857 -0.224076 0)
(2.77543 -0.222359 0)
(2.77204 -0.220777 0)
(2.77437 -0.220996 0)
(2.77628 -0.221426 0)
(2.77839 -0.221617 0)
(2.78019 -0.221798 0)
(2.78288 -0.222446 0)
(2.78907 -0.224462 0)
(2.79793 -0.225504 0)
(2.80367 -0.224669 0)
(2.80536 -0.22377 0)
(2.80596 -0.22287 0)
(2.80619 -0.220012 0)
(2.80302 -0.213691 0)
(2.7944 -0.203088 0)
(2.79001 -0.196096 0)
(2.79142 -0.194495 0)
(2.79277 -0.194575 0)
(2.79473 -0.194789 0)
(2.79707 -0.19507 0)
(2.7999 -0.1952 0)
(2.8037 -0.195556 0)
(2.80858 -0.196377 0)
(2.81396 -0.196834 0)
(2.81749 -0.196682 0)
(2.81891 -0.195803 0)
(2.81858 -0.193263 0)
(2.81613 -0.190049 0)
(2.81334 -0.187057 0)
(2.8097 -0.184032 0)
(2.80269 -0.178794 0)
(2.79949 -0.171631 0)
(2.79963 -0.169236 0)
(2.80011 -0.168427 0)
(2.80123 -0.167993 0)
(2.80401 -0.16842 0)
(2.80662 -0.16902 0)
(2.80905 -0.168926 0)
(2.81144 -0.167895 0)
(2.81385 -0.16672 0)
(2.81645 -0.163912 0)
(2.81969 -0.161429 0)
(2.82341 -0.16036 0)
(2.82637 -0.160214 0)
(2.82807 -0.162056 0)
(2.8285 -0.168256 0)
(2.82733 -0.174747 0)
(2.82696 -0.178879 0)
(2.82726 -0.181603 0)
(2.82749 -0.183949 0)
(2.82748 -0.186018 0)
(2.8273 -0.18716 0)
(2.82633 -0.186478 0)
(2.82375 -0.181795 0)
(2.81822 -0.171663 0)
(2.81511 -0.163429 0)
(2.81731 -0.161291 0)
(2.81955 -0.160478 0)
(2.82225 -0.160092 0)
(2.82722 -0.160346 0)
(2.83416 -0.162821 0)
(2.8415 -0.168729 0)
(2.84649 -0.17392 0)
(2.84829 -0.17548 0)
(2.85048 -0.177292 0)
(2.85098 -0.177375 0)
(2.847 -0.173981 0)
(2.84218 -0.167542 0)
(2.84238 -0.164053 0)
(2.84415 -0.162566 0)
(2.84575 -0.161376 0)
(2.85032 -0.159744 0)
(2.8584 -0.158799 0)
(2.86306 -0.158921 0)
(2.86405 -0.158954 0)
(2.86547 -0.159051 0)
(2.86504 -0.159037 0)
(2.85781 -0.158638 0)
(2.84869 -0.158135 0)
(2.84772 -0.157769 0)
(2.84945 -0.157078 0)
(2.8518 -0.156003 0)
(2.85447 -0.154981 0)
(2.85698 -0.154379 0)
(2.86005 -0.153846 0)
(2.86646 -0.153156 0)
(2.87183 -0.152468 0)
(2.87532 -0.151836 0)
(2.8773 -0.151379 0)
(2.87809 -0.151256 0)
(2.87969 -0.150791 0)
(2.88114 -0.150002 0)
(2.87988 -0.148521 0)
(2.87359 -0.147032 0)
(2.86619 -0.147349 0)
(2.86393 -0.149375 0)
(2.86484 -0.151801 0)
(2.86587 -0.153551 0)
(2.86745 -0.154804 0)
(2.87051 -0.155213 0)
(2.87298 -0.155333 0)
(2.875 -0.155308 0)
(2.87748 -0.155035 0)
(2.88042 -0.154216 0)
(2.88055 -0.151687 0)
(2.88152 -0.148419 0)
(2.8837 -0.144115 0)
(2.88003 -0.13449 0)
(2.87315 -0.12757 0)
(2.86779 -0.117345 0)
(2.8613 -0.113453 0)
(2.85057 -0.108847 0)
(2.84473 -0.104314 0)
(2.84243 -0.101269 0)
(2.84048 -0.0980367 0)
(2.84203 -0.0944144 0)
(2.8444 -0.0942425 0)
(2.84604 -0.0949588 0)
(2.85166 -0.0967374 0)
(2.86033 -0.0983288 0)
(2.86309 -0.0985074 0)
(2.86725 -0.0978842 0)
(2.8717 -0.0969677 0)
(2.87506 -0.0971172 0)
(2.87669 -0.0979876 0)
(2.87553 -0.099431 0)
(2.86873 -0.100756 0)
(2.85996 -0.100485 0)
(2.85867 -0.0995126 0)
(2.85962 -0.0986951 0)
(2.8605 -0.0978299 0)
(2.86143 -0.0968329 0)
(2.86451 -0.0951689 0)
(2.8732 -0.0906584 0)
(2.88496 -0.0865979 0)
(2.89152 -0.0868331 0)
(2.89324 -0.0880395 0)
(2.89497 -0.0887109 0)
(2.89774 -0.0897633 0)
(2.89863 -0.0899616 0)
(2.89295 -0.0883025 0)
(2.88031 -0.0849027 0)
(2.87543 -0.0833343 0)
(2.87615 -0.0834839 0)
(2.87729 -0.0840273 0)
(2.87888 -0.084694 0)
(2.88063 -0.0853958 0)
(2.88414 -0.0860765 0)
(2.88889 -0.0863073 0)
(2.89258 -0.0855417 0)
(2.89603 -0.0849986 0)
(2.8997 -0.0840024 0)
(2.9015 -0.083618 0)
(2.90434 -0.0834262 0)
(2.67085 -0.355563 0)
(2.67144 -0.348282 0)
(2.67046 -0.339587 0)
(2.6699 -0.333369 0)
(2.67034 -0.330743 0)
(2.67133 -0.330124 0)
(2.67279 -0.329437 0)
(2.67325 -0.329229 0)
(2.67388 -0.328979 0)
(2.67462 -0.32874 0)
(2.67548 -0.328628 0)
(2.67744 -0.32834 0)
(2.68086 -0.326165 0)
(2.68375 -0.322046 0)
(2.68519 -0.317656 0)
(2.68635 -0.313069 0)
(2.68549 -0.307524 0)
(2.6834 -0.301395 0)
(2.68404 -0.299018 0)
(2.686 -0.299282 0)
(2.688 -0.299971 0)
(2.69087 -0.301116 0)
(2.69394 -0.302346 0)
(2.69662 -0.30244 0)
(2.70021 -0.302201 0)
(2.70327 -0.301867 0)
(2.70632 -0.301859 0)
(2.7084 -0.300753 0)
(2.70618 -0.297549 0)
(2.70006 -0.293635 0)
(2.69791 -0.292925 0)
(2.69998 -0.293743 0)
(2.70153 -0.294155 0)
(2.70263 -0.294353 0)
(2.70361 -0.29419 0)
(2.70511 -0.293468 0)
(2.70755 -0.291868 0)
(2.70914 -0.28842 0)
(2.70853 -0.283644 0)
(2.70654 -0.277401 0)
(2.70356 -0.268921 0)
(2.69845 -0.25667 0)
(2.69691 -0.247601 0)
(2.69739 -0.244878 0)
(2.69837 -0.243089 0)
(2.70065 -0.243156 0)
(2.70192 -0.243809 0)
(2.70342 -0.244787 0)
(2.70477 -0.24683 0)
(2.70612 -0.248674 0)
(2.70847 -0.249292 0)
(2.71147 -0.248795 0)
(2.71351 -0.247651 0)
(2.71119 -0.247436 0)
(2.70697 -0.249481 0)
(2.70785 -0.251046 0)
(2.7096 -0.251554 0)
(2.71142 -0.252026 0)
(2.71384 -0.25203 0)
(2.7179 -0.251283 0)
(2.72434 -0.24875 0)
(2.72842 -0.245661 0)
(2.73043 -0.24402 0)
(2.73364 -0.24186 0)
(2.7362 -0.239969 0)
(2.73737 -0.238472 0)
(2.73758 -0.237167 0)
(2.73796 -0.237513 0)
(2.73888 -0.238701 0)
(2.74006 -0.239234 0)
(2.74082 -0.238212 0)
(2.74088 -0.234727 0)
(2.73977 -0.229318 0)
(2.73956 -0.225689 0)
(2.74118 -0.224671 0)
(2.74263 -0.225147 0)
(2.74456 -0.225997 0)
(2.74727 -0.227511 0)
(2.74959 -0.229667 0)
(2.7516 -0.231862 0)
(2.75346 -0.234537 0)
(2.75429 -0.238236 0)
(2.75439 -0.242324 0)
(2.75493 -0.244512 0)
(2.75622 -0.244437 0)
(2.75719 -0.242454 0)
(2.75665 -0.236615 0)
(2.75584 -0.2285 0)
(2.75679 -0.223395 0)
(2.75932 -0.219671 0)
(2.76464 -0.215923 0)
(2.77327 -0.215044 0)
(2.77872 -0.215716 0)
(2.78014 -0.216298 0)
(2.7826 -0.217623 0)
(2.78502 -0.219245 0)
(2.78735 -0.221463 0)
(2.78848 -0.224134 0)
(2.78562 -0.22546 0)
(2.77724 -0.223184 0)
(2.7719 -0.219531 0)
(2.77308 -0.217787 0)
(2.77535 -0.217169 0)
(2.77744 -0.2167 0)
(2.77956 -0.215898 0)
(2.78189 -0.215176 0)
(2.78703 -0.215229 0)
(2.79636 -0.217433 0)
(2.80621 -0.218088 0)
(2.80914 -0.217308 0)
(2.81013 -0.216558 0)
(2.81139 -0.21462 0)
(2.8111 -0.211518 0)
(2.8064 -0.205692 0)
(2.7965 -0.196684 0)
(2.79146 -0.191163 0)
(2.79295 -0.190193 0)
(2.79496 -0.190619 0)
(2.79731 -0.191402 0)
(2.79967 -0.192477 0)
(2.8027 -0.193382 0)
(2.80722 -0.194742 0)
(2.81295 -0.196153 0)
(2.81767 -0.195882 0)
(2.82002 -0.194447 0)
(2.82131 -0.19236 0)
(2.82117 -0.188849 0)
(2.81832 -0.185195 0)
(2.81494 -0.182264 0)
(2.81063 -0.179674 0)
(2.80499 -0.172994 0)
(2.80166 -0.167525 0)
(2.80121 -0.164751 0)
(2.80217 -0.163169 0)
(2.80468 -0.162967 0)
(2.80713 -0.163252 0)
(2.8092 -0.163524 0)
(2.81277 -0.162922 0)
(2.81649 -0.160679 0)
(2.81922 -0.15962 0)
(2.82343 -0.1575 0)
(2.82606 -0.155589 0)
(2.82681 -0.154791 0)
(2.82612 -0.156513 0)
(2.82607 -0.161229 0)
(2.82574 -0.166161 0)
(2.82466 -0.170933 0)
(2.8246 -0.176016 0)
(2.82554 -0.179159 0)
(2.82658 -0.180243 0)
(2.82762 -0.180592 0)
(2.82872 -0.180812 0)
(2.82921 -0.180057 0)
(2.82782 -0.175496 0)
(2.82319 -0.165325 0)
(2.82073 -0.156922 0)
(2.82317 -0.154896 0)
(2.82526 -0.154335 0)
(2.82792 -0.154503 0)
(2.83232 -0.156249 0)
(2.83686 -0.159514 0)
(2.84147 -0.164681 0)
(2.84537 -0.169761 0)
(2.84706 -0.171764 0)
(2.84922 -0.173205 0)
(2.85058 -0.173112 0)
(2.84954 -0.169677 0)
(2.84737 -0.162639 0)
(2.84773 -0.157516 0)
(2.84902 -0.155518 0)
(2.85234 -0.153305 0)
(2.85836 -0.15134 0)
(2.86225 -0.151047 0)
(2.86328 -0.1514 0)
(2.8645 -0.152633 0)
(2.8635 -0.154841 0)
(2.85662 -0.157248 0)
(2.84916 -0.157352 0)
(2.84904 -0.155782 0)
(2.85107 -0.154312 0)
(2.85344 -0.15267 0)
(2.85628 -0.150754 0)
(2.85909 -0.149118 0)
(2.86242 -0.147876 0)
(2.86712 -0.14705 0)
(2.87129 -0.146515 0)
(2.8748 -0.14601 0)
(2.87732 -0.145923 0)
(2.87808 -0.146016 0)
(2.87946 -0.146375 0)
(2.88083 -0.147375 0)
(2.88054 -0.148837 0)
(2.87544 -0.149958 0)
(2.8671 -0.149564 0)
(2.86352 -0.148328 0)
(2.86441 -0.148663 0)
(2.8658 -0.150017 0)
(2.8671 -0.15074 0)
(2.87007 -0.15083 0)
(2.87313 -0.150851 0)
(2.87588 -0.150725 0)
(2.87831 -0.150388 0)
(2.88118 -0.150098 0)
(2.88388 -0.14905 0)
(2.88584 -0.14802 0)
(2.88778 -0.145798 0)
(2.88828 -0.141047 0)
(2.88526 -0.135061 0)
(2.87942 -0.129167 0)
(2.86754 -0.119003 0)
(2.86023 -0.112892 0)
(2.85029 -0.109012 0)
(2.84346 -0.103462 0)
(2.84179 -0.098506 0)
(2.84252 -0.0921857 0)
(2.84484 -0.0901535 0)
(2.84656 -0.0905346 0)
(2.8526 -0.0916631 0)
(2.86027 -0.0930811 0)
(2.86274 -0.093413 0)
(2.86657 -0.0936616 0)
(2.8708 -0.0944015 0)
(2.87389 -0.0956846 0)
(2.87533 -0.0974383 0)
(2.87465 -0.0994951 0)
(2.87024 -0.100996 0)
(2.86398 -0.099911 0)
(2.86239 -0.0977286 0)
(2.86296 -0.0961612 0)
(2.86374 -0.0944582 0)
(2.86494 -0.092597 0)
(2.86845 -0.0895249 0)
(2.87769 -0.0854023 0)
(2.88964 -0.0828135 0)
(2.89239 -0.0823106 0)
(2.89433 -0.0834777 0)
(2.89603 -0.0862784 0)
(2.89738 -0.0889627 0)
(2.89758 -0.0909191 0)
(2.89328 -0.0900476 0)
(2.8831 -0.0845243 0)
(2.87681 -0.0798256 0)
(2.8772 -0.0788983 0)
(2.87891 -0.078713 0)
(2.88075 -0.0787398 0)
(2.88274 -0.0787377 0)
(2.88601 -0.0791422 0)
(2.88992 -0.0804067 0)
(2.89355 -0.0815037 0)
(2.89761 -0.0820238 0)
(2.89915 -0.0818517 0)
(2.90152 -0.0820261 0)
(2.9053 -0.0821526 0)
(2.67492 -0.349497 0)
(2.67677 -0.346424 0)
(2.67836 -0.341169 0)
(2.67633 -0.333972 0)
(2.67208 -0.329558 0)
(2.67189 -0.329263 0)
(2.673 -0.329365 0)
(2.67389 -0.329331 0)
(2.67478 -0.329119 0)
(2.67583 -0.328753 0)
(2.6773 -0.328164 0)
(2.68002 -0.326967 0)
(2.68435 -0.324481 0)
(2.68834 -0.320744 0)
(2.68964 -0.317632 0)
(2.69109 -0.313995 0)
(2.69187 -0.310098 0)
(2.68988 -0.304641 0)
(2.68655 -0.298388 0)
(2.68714 -0.296263 0)
(2.68895 -0.296363 0)
(2.69116 -0.296457 0)
(2.6951 -0.296962 0)
(2.69699 -0.2971 0)
(2.69998 -0.296966 0)
(2.70315 -0.297012 0)
(2.70617 -0.297274 0)
(2.70872 -0.297283 0)
(2.70947 -0.296421 0)
(2.70458 -0.294362 0)
(2.69845 -0.292387 0)
(2.6995 -0.291956 0)
(2.70166 -0.292097 0)
(2.70337 -0.292113 0)
(2.70462 -0.291668 0)
(2.70654 -0.290828 0)
(2.70998 -0.289211 0)
(2.7141 -0.28646 0)
(2.71622 -0.282819 0)
(2.71563 -0.278391 0)
(2.71355 -0.272689 0)
(2.70915 -0.264727 0)
(2.70341 -0.252625 0)
(2.70033 -0.246339 0)
(2.69969 -0.244201 0)
(2.70047 -0.241063 0)
(2.70301 -0.240206 0)
(2.70391 -0.240476 0)
(2.70509 -0.241471 0)
(2.70629 -0.243519 0)
(2.70791 -0.245217 0)
(2.71049 -0.24556 0)
(2.71254 -0.24494 0)
(2.71112 -0.244194 0)
(2.70818 -0.244123 0)
(2.70959 -0.24465 0)
(2.7113 -0.245149 0)
(2.71318 -0.245741 0)
(2.71534 -0.246057 0)
(2.7193 -0.245351 0)
(2.72541 -0.242755 0)
(2.73024 -0.240816 0)
(2.73233 -0.240464 0)
(2.73573 -0.239433 0)
(2.73891 -0.237691 0)
(2.74026 -0.235213 0)
(2.73898 -0.232496 0)
(2.73757 -0.231988 0)
(2.73771 -0.233487 0)
(2.73928 -0.234196 0)
(2.74169 -0.234252 0)
(2.7439 -0.233527 0)
(2.74499 -0.230645 0)
(2.74383 -0.225362 0)
(2.7426 -0.221327 0)