/*--------------------------------*- C++ -*----------------------------------*\
  =========                 |
  \\      /  F ield         | OpenFOAM: The Open Source CFD Toolbox
   \\    /   O peration     | Website:  https://openfoam.org
    \\  /    A nd           | Version:  7
     \\/     M anipulation  |
\*---------------------------------------------------------------------------*/
FoamFile
{
    version     2.0;
    format      ascii;
    class       volVectorField;
    location    "0.2";
    object      U;
}
// * * * * * * * * * * * * * * * * * * * * * * * * * * * * * * * * * * * * * //

dimensions      [0 1 -1 0 0 0 0];

internalField   nonuniform List<vector> 
4128
(
(3 -1.11822e-15 0)
(3 -8.10107e-16 0)
(3 -3.95727e-16 0)
(3 -2.0841e-16 0)
(3 -1.3452e-15 0)
(3 -2.34392e-15 0)
(3 -8.48712e-16 0)
(3 -3.07701e-16 0)
(3 3.39382e-16 0)
(3 3.12277e-16 0)
(3 1.39056e-16 0)
(3 -1.65095e-16 0)
(3 -4.61214e-16 0)
(3 -4.83479e-17 0)
(3 -3.90467e-17 0)
(3 -1.39528e-16 0)
(3 -4.84553e-16 0)
(3 -7.56775e-16 0)
(3 -8.40701e-16 0)
(3 -6.61291e-16 0)
(3 2.78691e-16 0)
(3 7.13626e-16 0)
(3 6.63263e-16 0)
(3 7.58635e-16 0)
(3 -1.45202e-16 0)
(3 -6.78046e-16 0)
(3 -1.76484e-16 0)
(3 -2.67407e-16 0)
(3 -4.83011e-16 0)
(3 -6.7967e-16 0)
(3 -2.84024e-16 0)
(3 7.72311e-16 0)
(3 -5.82528e-16 0)
(3 -1.48981e-15 0)
(3 -2.09722e-15 0)
(3 -1.31376e-15 0)
(3 -1.44908e-15 0)
(3 -1.80742e-15 0)
(3 -2.01236e-15 0)
(3 -1.9787e-15 0)
(3 -2.46967e-16 0)
(3 1.00391e-15 0)
(3 1.44817e-15 0)
(3 1.37794e-15 0)
(3 8.5059e-16 0)
(3 7.25418e-16 0)
(3 6.99411e-16 0)
(3 1.05087e-15 0)
(3 5.64794e-16 0)
(3 -4.24186e-16 0)
(3 8.42045e-16 0)
(3 1.44199e-15 0)
(3 7.28559e-16 0)
(3 -1.80978e-16 0)
(3 -7.32872e-16 0)
(3 -7.48724e-16 0)
(3 -6.75781e-16 0)
(3 -1.06228e-15 0)
(3 -1.77149e-15 0)
(3 -1.97789e-15 0)
(3 -2.38428e-15 0)
(3 -1.70878e-15 0)
(3 -7.76391e-17 0)
(3 4.1805e-16 0)
(3 -6.05207e-16 0)
(3 -2.21226e-15 0)
(3 -2.82168e-15 0)
(3 -2.86071e-15 0)
(3 -2.61484e-15 0)
(3 -1.6426e-15 0)
(3 -3.59192e-16 0)
(3 -3.9077e-16 0)
(3 -3.41919e-16 0)
(3 -5.41987e-16 0)
(3 -6.55993e-16 0)
(3 -3.83066e-16 0)
(3 2.59806e-16 0)
(3 -2.56145e-16 0)
(3 -9.46368e-16 0)
(3 -3.10346e-16 0)
(3 4.80423e-16 0)
(3 4.80449e-16 0)
(3 1.07072e-16 0)
(3 -5.86605e-16 0)
(3 -5.50165e-16 0)
(3 -1.49507e-16 0)
(3 -2.99871e-16 0)
(3 -6.44101e-16 0)
(3 -1.54619e-15 0)
(3 -1.58992e-15 0)
(3 -1.3201e-15 0)
(3 -1.44064e-15 0)
(3 -1.48216e-15 0)
(3 -1.6074e-15 0)
(3 -1.04882e-15 0)
(3 -4.3105e-16 0)
(3 4.04877e-17 0)
(3 1.58642e-16 0)
(3 -1.45001e-16 0)
(3 -8.66621e-16 0)
(3 -2.08481e-16 0)
(3 2.48062e-16 0)
(3 1.31447e-16 0)
(3 -8.42694e-16 0)
(3 -2.03108e-15 0)
(3 -9.5354e-17 0)
(3 1.09766e-15 0)
(3 1.8084e-15 0)
(3 1.10289e-15 0)
(3 2.90453e-16 0)
(3 1.48493e-16 0)
(3 7.32272e-16 0)
(3 5.63039e-16 0)
(3 2.07446e-16 0)
(3 5.94274e-17 0)
(3 8.48139e-16 0)
(3 1.05676e-15 0)
(3 5.86134e-16 0)
(3 -4.33018e-16 0)
(3 -1.2941e-15 0)
(3 -1.15691e-15 0)
(3 -1.16352e-15 0)
(3 -1.23606e-15 0)
(3 -1.2647e-15 0)
(3 -7.19509e-16 0)
(3 -3.93149e-16 0)
(3 -4.03683e-16 0)
(3 -1.36328e-15 0)
(3 -1.55731e-15 0)
(3 -1.77021e-15 0)
(3 -1.78938e-15 0)
(3 -1.35808e-15 0)
(3 -6.00044e-16 0)
(3 -3.16621e-16 0)
(3 -2.19466e-16 0)
(3 8.67087e-16 0)
(3 2.04105e-15 0)
(3 2.29691e-15 0)
(3 1.62059e-15 0)
(3 -3.19104e-16 0)
(3 -1.07511e-15 0)
(3 -1.11015e-15 0)
(3 -2.70977e-16 0)
(3 -2.3766e-16 0)
(3 -1.62238e-17 0)
(3 -4.46989e-16 0)
(3 -1.16579e-15 0)
(3 -1.74892e-15 0)
(3 -1.22093e-15 0)
(3 4.04564e-16 0)
(3 2.27163e-15 0)
(3 2.19562e-15 0)
(3 2.09089e-15 0)
(3 5.93094e-16 0)
(3 -6.57809e-16 0)
(3 -1.14564e-15 0)
(3 -6.16069e-16 0)
(3 -3.50677e-16 0)
(3 -3.39471e-16 0)
(3 -7.60746e-17 0)
(3 9.43821e-16 0)
(3 1.75696e-16 0)
(3 -8.84055e-16 0)
(3 -1.06254e-15 0)
(3 -5.63967e-16 0)
(3 -1.65099e-15 0)
(3 -1.80375e-15 0)
(3 -1.52037e-15 0)
(3 -2.23277e-15 0)
(3 5.02399e-16 0)
(3 2.48329e-15 0)
(3 3.1321e-15 0)
(3 2.75813e-15 0)
(3 1.69297e-15 0)
(3 1.0607e-15 0)
(3 8.48805e-16 0)
(3 1.55917e-15 0)
(3 2.0712e-15 0)
(3 2.14283e-15 0)
(3 2.24617e-15 0)
(3 2.21199e-15 0)
(3 1.87571e-15 0)
(3 8.41262e-16 0)
(3 9.64581e-17 0)
(3 1.17271e-15 0)
(3 1.30129e-15 0)
(3 3.20327e-16 0)
(3 -1.72369e-15 0)
(3 -1.76243e-15 0)
(3 -2.1707e-15 0)
(3 -1.42459e-15 0)
(3 9.55442e-16 0)
(3 8.16672e-17 0)
(3 -1.55498e-15 0)
(3 -1.41444e-15 0)
(3 -2.26981e-15 0)
(3 -2.47063e-15 0)
(3 -1.87225e-15 0)
(3 -1.32425e-15 0)
(3 -8.27382e-16 0)
(3 -1.57127e-15 0)
(3 -1.78687e-15 0)
(3 -1.59496e-15 0)
(3 -9.78236e-16 0)
(3 1.65871e-16 0)
(3 -1.34961e-17 0)
(3 -1.56168e-15 0)
(3 -2.07764e-15 0)
(3 -1.40708e-15 0)
(3 -1.27967e-16 0)
(3 2.77907e-16 0)
(3 -5.22683e-16 0)
(3 -1.90339e-15 0)
(3 -1.57827e-15 0)
(3 -5.14835e-16 0)
(3 -2.56703e-16 0)
(3 -9.25974e-16 0)
(3 -2.60479e-15 0)
(3 -2.43265e-15 0)
(3 -2.06515e-15 0)
(3 -1.80423e-15 0)
(3 -2.84327e-15 0)
(3 -2.44851e-15 0)
(3 -1.65044e-15 0)
(3 3.38444e-17 0)
(3 5.67066e-16 0)
(3 1.01016e-16 0)
(3 -9.43857e-17 0)
(3 -4.33675e-16 0)
(3 -3.33349e-16 0)
(3 3.96711e-16 0)
(3 4.35099e-16 0)
(3 -5.39358e-16 0)
(3 -1.61611e-15 0)
(3 -8.02892e-16 0)
(3 1.64207e-15 0)
(3 2.12651e-15 0)
(3 1.37439e-15 0)
(3 1.20062e-15 0)
(3 1.45021e-15 0)
(3 1.71572e-15 0)
(3 1.84925e-15 0)
(3 8.40001e-16 0)
(3 6.19035e-16 0)
(3 1.18159e-15 0)
(3 1.41059e-15 0)
(3 8.80088e-16 0)
(3 7.06012e-16 0)
(3 -4.77559e-16 0)
(3 -1.14993e-15 0)
(3 -1.65518e-15 0)
(3 -2.36524e-15 0)
(3 -2.01325e-15 0)
(3 -2.07016e-15 0)
(3 -1.39192e-15 0)
(3 -7.46853e-16 0)
(3 -1.17943e-15 0)
(3 -1.62006e-15 0)
(3 -1.96189e-15 0)
(3 -2.51367e-15 0)
(3 -2.42686e-15 0)
(3 -2.03638e-15 0)
(3 -1.85839e-15 0)
(3 -6.82824e-16 0)
(3 2.63754e-16 0)
(3 -1.43483e-15 0)
(3 -2.90217e-15 0)
(3 -2.46008e-15 0)
(3 -2.72754e-15 0)
(3 -2.61743e-15 0)
(3 -2.11682e-15 0)
(3 -1.06147e-15 0)
(3 -4.25129e-17 0)
(3 1.225e-16 0)
(3 7.06503e-16 0)
(3 9.31536e-16 0)
(3 8.0374e-16 0)
(3 1.10937e-15 0)
(3 1.52905e-15 0)
(3 2.13937e-15 0)
(3 1.59727e-15 0)
(3 1.10896e-15 0)
(3 5.67342e-16 0)
(3 5.4206e-16 0)
(3 1.11156e-15 0)
(3 1.34155e-15 0)
(3 1.85604e-15 0)
(3 2.11218e-15 0)
(3 2.10017e-15 0)
(3 2.2335e-15 0)
(3 1.51138e-15 0)
(3 1.07045e-15 0)
(3 4.80242e-16 0)
(3 -2.8786e-16 0)
(3 -1.51294e-15 0)
(3 -1.31816e-15 0)
(3 -1.1181e-15 0)
(3 -7.75979e-16 0)
(3 1.14019e-15 0)
(3 2.84516e-15 0)
(3 2.93901e-15 0)
(3 3.75346e-15 0)
(3 2.22749e-15 0)
(3 5.57376e-16 0)
(3 1.69026e-16 0)
(3 1.24e-17 0)
(3 1.80661e-15 0)
(3 3.78792e-15 0)
(3 4.27542e-15 0)
(3 3.22224e-15 0)
(3 3.10119e-15 0)
(3 3.56541e-15 0)
(3 1.75273e-15 0)
(3 5.42077e-16 0)
(3 -3.8555e-16 0)
(3 -8.17911e-16 0)
(3 -4.57601e-16 0)
(3 -1.66284e-15 0)
(3 -1.68481e-15 0)
(3 -1.14231e-15 0)
(3 -5.46363e-16 0)
(3 -7.05263e-16 0)
(3 -8.41133e-16 0)
(3 -1.13985e-15 0)
(3 -1.3154e-15 0)
(3 -1.82439e-15 0)
(3 -1.80211e-15 0)
(3 -1.12361e-15 0)
(3 -1.23158e-15 0)
(3 -5.01124e-16 0)
(3 3.07081e-16 0)
(3 2.79611e-16 0)
(3 8.88443e-16 0)
(3 4.04782e-16 0)
(3 -5.66154e-16 0)
(3 -6.33188e-16 0)
(3 -5.75207e-16 0)
(3 -7.36103e-16 0)
(3 -1.39355e-16 0)
(3 -5.96908e-16 0)
(3 -1.33831e-15 0)
(3 -1.951e-15 0)
(3 -8.3749e-16 0)
(3 9.89249e-16 0)
(3 1.82678e-15 0)
(3 2.88689e-16 0)
(3 1.41912e-17 0)
(3 -4.98192e-16 0)
(3 -4.58527e-16 0)
(3 -6.66123e-17 0)
(3 -4.18619e-16 0)
(3 -3.34098e-16 0)
(3 -1.48129e-16 0)
(3 2.26254e-16 0)
(3 1.46516e-16 0)
(3 -2.29145e-16 0)
(3 -3.33344e-16 0)
(3 -5.42258e-16 0)
(3 -4.20712e-16 0)
(3 2.72766e-16 0)
(3 8.61326e-16 0)
(3 -1.38196e-16 0)
(3 -2.87965e-16 0)
(3 4.75528e-16 0)
(3 1.16618e-15 0)
(3 1.86175e-15 0)
(3 2.6274e-15 0)
(3 2.4669e-15 0)
(3 2.43931e-15 0)
(3 2.09998e-15 0)
(3 2.40159e-15 0)
(3 1.01474e-15 0)
(3 3.93103e-16 0)
(3 -7.42476e-16 0)
(3 -6.96309e-16 0)
(3 -5.68825e-16 0)
(3 -3.46545e-16 0)
(3 -1.64737e-16 0)
(3 -1.65595e-16 0)
(3 -9.55207e-16 0)
(3 -2.21499e-15 0)
(3 -2.34997e-15 0)
(3 -1.97202e-15 0)
(3 -1.4487e-15 0)
(3 -7.09391e-16 0)
(3 -6.99431e-16 0)
(3 -1.43919e-15 0)
(3 -3.29481e-15 0)
(3 -3.81919e-15 0)
(3 -4.33924e-15 0)
(3 -4.00569e-15 0)
(3 -3.53746e-15 0)
(3 -2.21049e-15 0)
(3 -2.56859e-15 0)
(3 -2.6331e-15 0)
(3 -2.41456e-15 0)
(3 -1.70523e-15 0)
(3 -2.86473e-15 0)
(3 -2.90428e-15 0)
(3 -1.62305e-15 0)
(3 -6.84559e-16 0)
(3 1.4279e-15 0)
(3 1.39291e-15 0)
(3 9.54514e-16 0)
(3 1.35034e-15 0)
(3 1.31429e-15 0)
(3 9.40467e-16 0)
(3 1.03935e-15 0)
(3 1.06666e-15 0)
(3 2.1037e-16 0)
(3 1.08802e-16 0)
(3 3.84157e-16 0)
(3 1.36618e-15 0)
(3 3.55356e-15 0)
(3 3.34075e-15 0)
(3 3.10387e-15 0)
(3 3.19642e-15 0)
(3 3.43769e-15 0)
(3 3.71823e-15 0)
(3 2.45908e-15 0)
(3 1.71341e-15 0)
(3 9.05096e-16 0)
(3 -6.98708e-16 0)
(3 -1.83908e-15 0)
(3 -1.80886e-15 0)
(3 -1.98564e-15 0)
(3 -4.27554e-16 0)
(3 5.31963e-16 0)
(3 6.68665e-16 0)
(3 1.42486e-15 0)
(3 1.99362e-15 0)
(3 1.22935e-15 0)
(3 2.06607e-16 0)
(3 -6.07652e-16 0)
(3 -3.34451e-16 0)
(3 4.73077e-16 0)
(3 2.09794e-15 0)
(3 3.82176e-15 0)
(3 4.11043e-15 0)
(3 4.01952e-15 0)
(3 3.24766e-15 0)
(3 2.91278e-15 0)
(3 2.2269e-15 0)
(3 5.36735e-16 0)
(3 -2.70376e-16 0)
(3 5.2952e-16 0)
(3 -7.84727e-17 0)
(3 -1.15339e-15 0)
(3 -1.61727e-15 0)
(3 -2.64909e-15 0)
(3 -1.53966e-15 0)
(3 -3.05146e-16 0)
(3 -7.48065e-16 0)
(3 -1.41901e-15 0)
(3 -1.66322e-15 0)
(3 -2.02301e-15 0)
(3 -1.70063e-15 0)
(3 -9.15801e-16 0)
(3 -2.39773e-16 0)
(3 4.75296e-16 0)
(3 1.05896e-15 0)
(3 1.34257e-15 0)
(3 7.72498e-16 0)
(3 6.00209e-16 0)
(3 7.52541e-16 0)
(3 2.04983e-15 0)
(3 1.45224e-15 0)
(3 5.46544e-16 0)
(3 -7.2266e-16 0)
(3 -5.39115e-16 0)
(3 -5.61403e-16 0)
(3 1.06505e-15 0)
(3 2.91013e-15 0)
(3 2.89079e-15 0)
(3 1.99181e-15 0)
(3 1.33152e-15 0)
(3 1.2921e-15 0)
(3 1.61419e-15 0)
(3 1.1615e-15 0)
(3 9.84307e-16 0)
(3 9.91023e-16 0)
(3 1.09868e-15 0)
(3 -2.83195e-16 0)
(3 -1.23244e-15 0)
(3 -1.04133e-15 0)
(3 -1.24727e-15 0)
(3 -8.88947e-16 0)
(3 -1.38426e-16 0)
(3 8.52498e-17 0)
(3 -1.06043e-16 0)
(3 -2.01274e-17 0)
(3 2.42647e-16 0)
(3 6.08843e-16 0)
(3 5.15182e-16 0)
(3 1.19644e-15 0)
(3 3.05261e-15 0)
(3 2.98317e-15 0)
(3 2.07318e-15 0)
(3 1.63898e-15 0)
(3 1.4621e-15 0)
(3 6.41636e-16 0)
(3 -9.4889e-16 0)
(3 -2.0685e-15 0)
(3 -1.69738e-15 0)
(3 -6.37525e-16 0)
(3 -1.81456e-15 0)
(3 -2.08228e-15 0)
(3 -2.13687e-15 0)
(3 -1.54217e-15 0)
(3 -1.7821e-15 0)
(3 -1.55796e-15 0)
(3 -3.36028e-16 0)
(3 -3.82134e-16 0)
(3 -1.40096e-15 0)
(3 -1.89638e-15 0)
(3 -1.3772e-15 0)
(3 -2.69225e-15 0)
(3 -2.63718e-15 0)
(3 -3.55275e-15 0)
(3 -3.92435e-15 0)
(3 -2.72656e-15 0)
(3 -1.65146e-15 0)
(3 -1.72657e-15 0)
(3 -1.31657e-15 0)
(3 -8.65748e-16 0)
(3 -2.12155e-15 0)
(3 -4.04677e-15 0)
(3 -3.2268e-15 0)
(3 -1.7019e-15 0)
(3 1.80776e-17 0)
(3 9.02348e-16 0)
(3 2.20998e-15 0)
(3 2.35868e-15 0)
(3 2.22772e-15 0)
(3 1.79317e-15 0)
(3 8.65304e-16 0)
(3 1.45214e-16 0)
(3 3.20782e-17 0)
(3 1.3429e-15 0)
(3 1.34076e-15 0)
(3 2.33611e-15 0)
(3 3.72264e-15 0)
(3 3.78742e-15 0)
(3 3.20909e-15 0)
(3 2.60811e-15 0)
(3 2.15325e-15 0)
(3 1.96854e-15 0)
(3 2.14821e-15 0)
(3 2.33008e-15 0)
(3 2.25636e-15 0)
(3 2.12946e-15 0)
(3 1.98184e-15 0)
(3 1.54626e-16 0)
(3 -3.52952e-16 0)
(3 -4.47857e-16 0)
(3 -1.16812e-15 0)
(3 -1.28565e-15 0)
(3 -9.91048e-16 0)
(3 -7.8856e-17 0)
(3 -7.0045e-17 0)
(3 1.00365e-16 0)
(3 -3.70236e-16 0)
(3 -1.40723e-15 0)
(3 -9.96314e-16 0)
(3 6.54036e-16 0)
(3 2.14519e-15 0)
(3 3.36467e-15 0)
(3 4.27868e-15 0)
(3 4.11041e-15 0)
(3 2.71138e-15 0)
(3 2.42519e-15 0)
(3 2.10846e-15 0)
(3 3.64536e-16 0)
(3 3.44713e-16 0)
(3 2.36803e-16 0)
(3 3.64517e-16 0)
(3 -3.38183e-17 0)
(3 -9.81165e-16 0)
(3 -2.33769e-15 0)
(3 -2.24109e-15 0)
(3 -1.98541e-15 0)
(3 -1.31475e-15 0)
(3 -1.88884e-15 0)
(3 -1.72743e-15 0)
(3 -1.60037e-15 0)
(3 -2.12072e-15 0)
(3 -2.60775e-15 0)
(3 -1.65556e-15 0)
(3 4.29172e-16 0)
(3 9.35593e-16 0)
(3 1.03317e-15 0)
(3 1.53342e-15 0)
(3 1.45804e-15 0)
(3 1.5898e-15 0)
(3 1.8636e-15 0)
(3 1.92566e-15 0)
(3 1.71422e-15 0)
(3 1.68986e-15 0)
(3 2.0003e-15 0)
(3 2.55834e-15 0)
(3 1.20695e-15 0)
(3 8.25873e-16 0)
(3 7.28547e-16 0)
(3 1.42267e-15 0)
(3 1.5122e-15 0)
(3 2.10743e-15 0)
(3 2.26582e-15 0)
(3 7.14829e-16 0)
(3 2.15881e-16 0)
(3 6.43276e-16 0)
(3 1.81574e-15 0)
(3 1.16242e-15 0)
(3 -1.43635e-16 0)
(3 -9.91368e-16 0)
(3 -9.39029e-16 0)
(3 -2.77589e-16 0)
(3 8.02525e-16 0)
(3 8.6813e-16 0)
(3 1.5603e-15 0)
(3 2.39828e-15 0)
(3 2.01051e-15 0)
(3 1.58027e-15 0)
(3 1.27926e-15 0)
(3 1.32394e-15 0)
(3 1.65111e-15 0)
(3 2.48039e-15 0)
(3 2.84013e-15 0)
(3 1.41375e-15 0)
(3 1.40328e-15 0)
(3 1.09685e-15 0)
(3 2.98269e-16 0)
(3 -5.46895e-16 0)
(3 -4.72771e-16 0)
(3 -5.66133e-16 0)
(3 -2.05282e-15 0)
(3 -3.293e-15 0)
(3 -3.496e-15 0)
(3 -2.40377e-15 0)
(3 -1.4953e-15 0)
(3 -1.5167e-15 0)
(3 -1.22865e-15 0)
(3 -1.08222e-15 0)
(3 -2.763e-15 0)
(3 -2.61352e-15 0)
(3 -1.46133e-15 0)
(3 -1.98623e-15 0)
(3 -1.59878e-15 0)
(3 -1.3542e-15 0)
(3 -1.18396e-15 0)
(3 -1.04171e-16 0)
(3 4.60041e-16 0)
(3 4.23692e-16 0)
(3 -1.61767e-15 0)
(3 -2.55204e-15 0)
(3 -2.06385e-15 0)
(3 -1.11779e-15 0)
(3 -2.38922e-16 0)
(3 1.70742e-16 0)
(3 -1.57165e-17 0)
(3 8.15042e-16 0)
(3 1.23569e-15 0)
(3 1.95049e-15 0)
(3 2.40787e-15 0)
(3 1.49941e-15 0)
(3 1.38967e-15 0)
(3 1.10815e-15 0)
(3 1.39214e-15 0)
(3 1.58593e-15 0)
(3 2.15632e-15 0)
(3 2.72422e-15 0)
(3 2.94857e-15 0)
(3 2.57667e-15 0)
(3 2.67076e-15 0)
(3 2.89506e-15 0)
(3 2.05228e-15 0)
(3 1.88388e-15 0)
(3 1.9824e-15 0)
(3 1.53538e-15 0)
(3 1.24057e-15 0)
(3 1.12241e-15 0)
(3 1.31324e-15 0)
(3 1.66736e-15 0)
(3 9.30948e-16 0)
(3 -4.08312e-16 0)
(3 -9.46921e-16 0)
(3 -9.67826e-16 0)
(3 -6.15262e-16 0)
(3 -1.35837e-15 0)
(3 -2.0322e-15 0)
(3 -1.33989e-15 0)
(3 -3.10484e-16 0)
(3 -2.11589e-16 0)
(3 -5.86037e-16 0)
(3 5.69324e-16 0)
(3 1.84214e-15 0)
(3 3.23543e-15 0)
(3 3.27003e-15 0)
(3 2.9926e-15 0)
(3 2.40678e-15 0)
(3 2.09934e-15 0)
(3 1.45897e-15 0)
(3 8.61256e-16 0)
(3 1.12717e-15 0)
(3 8.37216e-16 0)
(3 4.36808e-16 0)
(3 -5.74005e-16 0)
(3 -1.82353e-15 0)
(3 -2.7172e-15 0)
(3 -2.69959e-15 0)
(3 -2.47722e-15 0)
(3 -1.47815e-15 0)
(3 -1.11958e-15 0)
(3 -1.4753e-15 0)
(3 -1.57663e-15 0)
(3 -2.38327e-15 0)
(3 -3.60943e-15 0)
(3 -2.6905e-15 0)
(3 1.21059e-15 0)
(3 2.9819e-15 0)
(3 2.80067e-15 0)
(3 3.66241e-15 0)
(3 2.08506e-15 0)
(3 1.47803e-15 0)
(3 1.29134e-15 0)
(3 2.18961e-16 0)
(3 1.09184e-15 0)
(3 2.92202e-15 0)
(3 3.06535e-15 0)
(3 2.77587e-15 0)
(3 1.19517e-15 0)
(3 -9.81208e-16 0)
(3 -8.49798e-16 0)
(3 1.95826e-16 0)
(3 3.31135e-15 0)
(3 3.52343e-15 0)
(3 1.33204e-15 0)
(3 1.04116e-16 0)
(3 -4.9471e-16 0)
(3 -3.8463e-16 0)
(3 6.89142e-16 0)
(3 6.3065e-16 0)
(3 5.24298e-16 0)
(3 -2.32764e-16 0)
(3 -6.45477e-17 0)
(3 6.60579e-16 0)
(3 4.40189e-16 0)
(3 5.07489e-16 0)
(3 2.94628e-15 0)
(3 3.77917e-15 0)
(3 3.0648e-15 0)
(3 1.56362e-15 0)
(3 8.82802e-16 0)
(3 1.55383e-15 0)
(3 8.13822e-16 0)
(3 6.07524e-16 0)
(3 6.28097e-16 0)
(3 1.25124e-15 0)
(3 7.03798e-16 0)
(3 7.28724e-16 0)
(3 9.2925e-16 0)
(3 2.36733e-15 0)
(3 1.2438e-15 0)
(3 -3.30478e-17 0)
(3 -7.06214e-16 0)
(3 -1.80696e-15 0)
(3 -1.77914e-15 0)
(3 -1.37518e-15 0)
(3 -1.36616e-15 0)
(3 -1.45215e-15 0)
(3 -1.18024e-15 0)
(3 -1.06587e-15 0)
(3 -1.10066e-15 0)
(3 -1.05352e-15 0)
(3 -6.75374e-16 0)
(3 -8.02652e-16 0)
(3 -8.33222e-16 0)
(3 -3.76885e-16 0)
(3 -1.77608e-16 0)
(3 7.26749e-16 0)
(3 9.05441e-16 0)
(3 -1.52403e-15 0)
(3 -3.70858e-15 0)
(3 -3.83668e-15 0)
(3 -2.39294e-15 0)
(3 7.83223e-16 0)
(3 1.76797e-15 0)
(3 1.47424e-15 0)
(3 9.27449e-16 0)
(3 4.72964e-16 0)
(3 4.36942e-16 0)
(3 4.28817e-16 0)
(3 6.21001e-16 0)
(3 1.96883e-15 0)
(3 1.97738e-15 0)
(3 1.59259e-15 0)
(3 1.36483e-15 0)
(3 1.30917e-15 0)
(3 1.54883e-15 0)
(3 1.42344e-15 0)
(3 1.127e-15 0)
(3 1.06496e-15 0)
(3 1.55424e-15 0)
(3 1.95114e-15 0)
(3 2.2302e-15 0)
(3 2.56487e-15 0)
(3 2.31337e-15 0)
(3 2.1949e-15 0)
(3 2.31987e-15 0)
(3 2.58103e-15 0)
(3 3.28855e-15 0)
(3 3.70573e-15 0)
(3 2.22291e-15 0)
(3 9.38044e-17 0)
(3 -6.62957e-16 0)
(3 -1.35903e-16 0)
(3 1.64269e-16 0)
(3 -3.16392e-16 0)
(3 -9.98091e-16 0)
(3 -9.68519e-16 0)
(3 -1.65703e-16 0)
(3 1.03518e-15 0)
(3 1.5985e-15 0)
(3 1.66256e-15 0)
(3 1.40296e-15 0)
(3 1.54314e-15 0)
(3 1.7197e-15 0)
(3 1.70564e-15 0)
(3 1.74686e-15 0)
(3 2.27217e-15 0)
(3 2.04993e-15 0)
(3 2.17891e-15 0)
(3 1.93643e-15 0)
(3 2.736e-16 0)
(3 -1.47322e-15 0)
(3 -6.93295e-16 0)
(3 -8.693e-16 0)
(3 -1.22827e-15 0)
(3 -1.52078e-15 0)
(3 -1.11714e-15 0)
(3 6.03729e-17 0)
(3 7.4953e-16 0)
(3 6.50051e-17 0)
(3 -9.93907e-16 0)
(3 -1.96407e-15 0)
(3 -2.18604e-15 0)
(3 -2.14716e-15 0)
(3 -1.62849e-15 0)
(3 4.37672e-16 0)
(3 2.20769e-15 0)
(3 4.1352e-15 0)
(3 3.43038e-15 0)
(3 2.12424e-15 0)
(3 1.1219e-15 0)
(3 5.23262e-16 0)
(3 1.26232e-15 0)
(3 2.75018e-15 0)
(3 2.62334e-15 0)
(3 1.62632e-15 0)
(3 5.64053e-16 0)
(3 -1.35083e-15 0)
(3 -1.78079e-15 0)
(3 -3.58744e-16 0)
(3 8.78224e-16 0)
(3 1.53187e-15 0)
(3 1.18124e-15 0)
(3 5.04031e-16 0)
(3 4.15678e-16 0)
(3 1.80352e-16 0)
(3 8.49988e-17 0)
(3 8.91048e-16 0)
(3 7.79765e-16 0)
(3 4.69703e-16 0)
(3 6.79939e-16 0)
(3 7.19793e-16 0)
(3 -1.75144e-17 0)
(3 6.98492e-16 0)
(3 1.51074e-15 0)
(3 2.04071e-15 0)
(3 1.05759e-15 0)
(3 -2.42254e-16 0)
(3 -5.70279e-16 0)
(3 -1.85893e-16 0)
(3 5.12714e-16 0)
(3 -1.34557e-16 0)
(3 -2.77689e-16 0)
(3 4.61086e-16 0)
(3 3.18562e-16 0)
(3 2.21219e-16 0)
(3 8.09704e-16 0)
(3 2.14547e-15 0)
(3 2.23464e-15 0)
(3 3.50959e-16 0)
(3 -2.23956e-15 0)
(3 -2.55036e-15 0)
(3 -1.57156e-15 0)
(3 -1.40817e-15 0)
(3 -1.10567e-15 0)
(3 -1.69506e-15 0)
(3 -1.78149e-15 0)
(3 -1.57754e-15 0)
(3 -9.85437e-16 0)
(3 -7.49391e-16 0)
(3 -5.34535e-16 0)
(3 8.13465e-17 0)
(3 4.86082e-16 0)
(3 2.50375e-16 0)
(3 -4.42951e-16 0)
(3 -4.49754e-16 0)
(3 -4.58758e-16 0)
(3 -2.1302e-15 0)
(3 -2.40239e-15 0)
(3 -2.59082e-15 0)
(3 -7.86612e-16 0)
(3 9.51838e-16 0)
(3 1.61652e-15 0)
(3 8.58699e-16 0)
(3 8.54839e-16 0)
(3 4.16467e-16 0)
(3 -1.59999e-16 0)
(3 1.31301e-16 0)
(3 1.01232e-16 0)
(3 1.7246e-15 0)
(3 1.64204e-15 0)
(3 1.35372e-15 0)
(3 8.03204e-16 0)
(3 1.00211e-15 0)
(3 1.58383e-15 0)
(3 8.62755e-16 0)
(3 2.7374e-16 0)
(3 8.61714e-16 0)
(3 9.18754e-16 0)
(3 1.22663e-15 0)
(3 1.29537e-15 0)
(3 1.76045e-15 0)
(3 1.8191e-15 0)
(3 1.62967e-15 0)
(3 1.87461e-15 0)
(3 2.72742e-15 0)
(3 3.484e-15 0)
(3 3.76889e-15 0)
(3 2.61551e-15 0)
(3 1.84374e-15 0)
(3 -2.63027e-16 0)
(3 -8.16164e-16 0)
(3 -8.6139e-16 0)
(3 -9.05477e-16 0)
(3 -8.91111e-16 0)
(3 -7.37026e-16 0)
(3 -4.50901e-16 0)
(3 3.51218e-16 0)
(3 1.4613e-15 0)
(3 1.82869e-15 0)
(3 1.15807e-15 0)
(3 6.78268e-16 0)
(3 1.13125e-15 0)
(3 2.23038e-15 0)
(3 3.25958e-15 0)
(3 3.609e-15 0)
(3 3.61265e-15 0)
(3 2.86151e-15 0)
(3 2.38694e-15 0)
(3 1.35493e-15 0)
(3 2.28874e-16 0)
(3 -7.19782e-17 0)
(3 1.13781e-16 0)
(3 -4.60991e-16 0)
(3 -4.46393e-16 0)
(3 -9.41618e-18 0)
(3 2.26255e-16 0)
(3 1.15535e-16 0)
(3 5.33187e-17 0)
(3 -7.61117e-17 0)
(3 -1.33762e-15 0)
(3 -1.57524e-15 0)
(3 -1.76917e-15 0)
(3 -1.76368e-15 0)
(3 -1.36126e-15 0)
(3 5.20699e-16 0)
(3 2.99209e-15 0)
(3 3.62289e-15 0)
(3 3.64597e-15 0)
(3 2.57159e-15 0)
(3 2.61046e-15 0)
(3 2.65115e-15 0)
(3 2.09145e-15 0)
(3 1.40643e-15 0)
(3 -4.79865e-16 0)
(3 -7.59345e-16 0)
(3 -1.89093e-15 0)
(3 -2.14698e-15 0)
(3 -1.90116e-15 0)
(3 -2.07388e-15 0)
(3 -1.2085e-15 0)
(3 2.22648e-16 0)
(3 1.50254e-15 0)
(3 2.90713e-15 0)
(3 2.06827e-15 0)
(3 2.07126e-15 0)
(3 3.02591e-15 0)
(3 2.76816e-15 0)
(3 2.75427e-15 0)
(3 1.5499e-15 0)
(3 6.69162e-16 0)
(3 4.74272e-16 0)
(3 1.26768e-15 0)
(3 8.43957e-16 0)
(3 8.83661e-17 0)
(3 -7.46553e-17 0)
(3 6.98575e-16 0)
(3 6.13834e-16 0)
(3 8.11808e-16 0)
(3 2.19301e-15 0)
(3 2.14077e-15 0)
(3 1.08793e-15 0)
(3 -5.44174e-16 0)
(3 -7.46224e-16 0)
(3 -5.81003e-16 0)
(3 4.11274e-16 0)
(3 1.26771e-15 0)
(3 1.6758e-15 0)
(3 8.8184e-16 0)
(3 -4.14233e-16 0)
(3 -9.83799e-16 0)
(3 -2.13479e-15 0)
(3 -2.81407e-15 0)
(3 -2.83778e-15 0)
(3 -3.52188e-15 0)
(3 -4.90385e-15 0)
(3 -4.49483e-15 0)
(3 -2.71047e-15 0)
(3 -2.17721e-15 0)
(3 -1.56178e-15 0)
(3 3.51821e-17 0)
(3 -1.98471e-16 0)
(3 -2.29216e-16 0)
(3 8.37551e-17 0)
(3 -4.70631e-16 0)
(3 -7.02523e-16 0)
(3 -2.82308e-16 0)
(3 -6.53844e-17 0)
(3 8.01692e-16 0)
(3 1.48758e-15 0)
(3 1.49793e-15 0)
(3 1.32289e-15 0)
(3 8.57872e-16 0)
(3 9.53226e-16 0)
(3 4.20643e-16 0)
(3 3.13513e-16 0)
(3 -2.76215e-16 0)
(3 -1.00439e-15 0)
(3 -8.95985e-16 0)
(3 -4.83855e-16 0)
(3 6.32868e-17 0)
(3 5.04221e-16 0)
(3 6.04264e-16 0)
(3 5.08847e-16 0)
(3 5.93539e-16 0)
(3 5.12886e-16 0)
(3 3.3449e-16 0)
(3 3.54912e-16 0)
(3 4.65976e-16 0)
(3 -1.75321e-16 0)
(3 -3.38933e-16 0)
(3 3.63317e-16 0)
(3 7.90462e-16 0)
(3 1.02616e-15 0)
(3 1.47729e-15 0)
(3 2.21628e-15 0)
(3 2.4002e-15 0)
(3 2.40709e-15 0)
(3 2.69199e-15 0)
(3 2.87862e-15 0)
(3 -3.33431e-16 0)
(3 -1.40873e-15 0)
(3 -2.01395e-15 0)
(3 -1.9361e-15 0)
(3 -8.40119e-16 0)
(3 -5.36183e-16 0)
(3 2.37857e-16 0)
(3 7.59393e-16 0)
(3 7.98144e-16 0)
(3 8.11418e-16 0)
(3 1.28355e-15 0)
(3 1.73512e-15 0)
(3 3.07715e-15 0)
(3 4.14907e-15 0)
(3 4.54752e-15 0)
(3 4.46129e-15 0)
(3 4.0902e-15 0)
(3 3.43432e-15 0)
(3 3.1402e-15 0)
(3 2.32363e-15 0)
(3 1.48783e-15 0)
(3 7.21045e-16 0)
(3 1.34518e-16 0)
(3 -1.0854e-15 0)
(3 -2.07212e-15 0)
(3 -2.20776e-15 0)
(3 -2.10349e-15 0)
(3 -1.58018e-15 0)
(3 -8.16845e-16 0)
(3 -3.91661e-16 0)
(3 -6.5065e-16 0)
(3 -8.87321e-16 0)
(3 -1.4062e-16 0)
(3 6.66183e-16 0)
(3 1.08339e-15 0)
(3 1.65064e-15 0)
(3 2.54292e-15 0)
(3 2.91991e-15 0)
(3 2.91984e-15 0)
(3 2.40888e-15 0)
(3 1.65241e-15 0)
(3 1.65481e-15 0)
(3 9.60682e-16 0)
(3 -1.06393e-15 0)
(3 -1.55603e-15 0)
(3 -1.92347e-15 0)
(3 -2.31718e-15 0)
(3 -2.45733e-15 0)
(3 -2.32818e-15 0)
(3 -1.64458e-15 0)
(3 -8.07198e-16 0)
(3 1.40717e-15 0)
(3 3.1774e-15 0)
(3 3.17917e-15 0)
(3 3.39609e-15 0)
(3 2.81918e-15 0)
(3 3.11805e-15 0)
(3 4.22319e-15 0)
(3 3.8199e-15 0)
(3 1.87611e-15 0)
(3 1.49568e-15 0)
(3 1.39706e-15 0)
(3 6.97422e-16 0)
(3 1.87637e-17 0)
(3 2.02888e-17 0)
(3 1.02108e-15 0)
(3 1.90015e-15 0)
(3 2.78042e-15 0)
(3 3.02207e-15 0)
(3 3.44399e-15 0)
(3 2.29191e-15 0)
(3 7.69035e-16 0)
(3 -4.23145e-16 0)
(3 -1.25077e-15 0)
(3 5.01187e-17 0)
(3 1.68707e-15 0)
(3 1.99944e-15 0)
(3 1.38829e-15 0)
(3 7.67431e-16 0)
(3 4.60871e-16 0)
(3 -1.53929e-15 0)
(3 -4.14857e-15 0)
(3 -5.05764e-15 0)
(3 -4.43267e-15 0)
(3 -4.26433e-15 0)
(3 -3.05545e-15 0)
(3 -1.81931e-15 0)
(3 -2.10002e-16 0)
(3 1.02919e-16 0)
(3 -1.06218e-15 0)
(3 -1.43373e-15 0)
(3 -9.73259e-16 0)
(3 -4.50627e-16 0)
(3 -7.06069e-16 0)
(3 -6.18901e-16 0)
(3 1.05814e-15 0)
(3 1.26345e-15 0)
(3 1.08088e-15 0)
(3 1.1412e-15 0)
(3 3.18166e-16 0)
(3 -3.99548e-16 0)
(3 5.90033e-16 0)
(3 1.51783e-15 0)
(3 1.36954e-15 0)
(3 1.50904e-15 0)
(3 5.24048e-16 0)
(3 -2.16855e-16 0)
(3 -4.6719e-17 0)
(3 7.6957e-17 0)
(3 1.9335e-16 0)
(3 5.72176e-16 0)
(3 4.26141e-16 0)
(3 -2.52248e-16 0)
(3 1.8345e-16 0)
(3 4.25034e-16 0)
(3 -3.01541e-16 0)
(3 -1.73963e-16 0)
(3 -3.26624e-16 0)
(3 -6.73412e-16 0)
(3 -1.19996e-15 0)
(3 -5.53811e-16 0)
(3 1.89394e-15 0)
(3 2.95344e-15 0)
(3 2.6712e-15 0)
(3 2.2274e-15 0)
(3 1.53867e-15 0)
(3 1.84728e-15 0)
(3 2.46766e-15 0)
(3 2.47132e-15 0)
(3 1.35802e-15 0)
(3 -7.95015e-16 0)
(3 -1.10299e-15 0)
(3 -8.96446e-16 0)
(3 -9.6607e-16 0)
(3 6.66711e-17 0)
(3 1.54796e-15 0)
(3 1.08124e-15 0)
(3 -1.14969e-15 0)
(3 -8.67888e-16 0)
(3 -3.60175e-16 0)
(3 3.81717e-16 0)
(3 1.99868e-15 0)
(3 4.09055e-15 0)
(3 5.34024e-15 0)
(3 5.13609e-15 0)
(3 4.61998e-15 0)
(3 3.04668e-15 0)
(3 1.91291e-15 0)
(3 6.79634e-16 0)
(3 4.8696e-16 0)
(3 -6.82095e-16 0)
(3 -7.26526e-16 0)
(3 -1.26332e-15 0)
(3 -2.75769e-15 0)
(3 -3.29441e-15 0)
(3 -2.77712e-15 0)
(3 -1.4164e-15 0)
(3 1.35507e-16 0)
(3 9.63992e-16 0)
(3 1.05884e-16 0)
(3 2.10866e-16 0)
(3 1.29703e-15 0)
(3 1.76924e-15 0)
(3 1.53418e-15 0)
(3 1.21571e-15 0)
(3 1.00112e-15 0)
(3 7.60999e-16 0)
(3 7.17838e-16 0)
(3 9.05087e-16 0)
(3 8.56875e-16 0)
(3 1.04302e-15 0)
(3 1.32593e-15 0)
(3 2.32853e-16 0)
(3 -4.87003e-16 0)
(3 -1.31984e-15 0)
(3 -1.90869e-15 0)
(3 -2.17761e-15 0)
(3 -2.27876e-15 0)
(3 -3.29791e-16 0)
(3 5.83272e-16 0)
(3 9.83803e-16 0)
(3 1.37092e-15 0)
(3 1.69005e-15 0)
(3 2.11961e-15 0)
(3 1.08724e-15 0)
(3 1.37209e-15 0)
(3 1.86759e-15 0)
(3 2.10789e-15 0)
(3 2.5091e-15 0)
(3 1.2721e-15 0)
(3 4.33117e-16 0)
(3 1.31369e-16 0)
(3 5.7888e-16 0)
(3 1.15595e-15 0)
(3 1.78233e-15 0)
(3 3.04946e-15 0)
(3 3.16651e-15 0)
(3 2.78204e-15 0)
(3 3.15348e-15 0)
(3 3.91198e-15 0)
(3 2.82116e-15 0)
(3 1.72515e-15 0)
(3 1.54619e-15 0)
(3 2.45096e-15 0)
(3 2.89825e-15 0)
(3 2.39785e-15 0)
(3 2.86033e-15 0)
(3 2.33557e-15 0)
(3 2.42688e-15 0)
(3 -1.2823e-15 0)
(3 -2.97704e-15 0)
(3 -2.65538e-15 0)
(3 -2.29419e-15 0)
(3 -1.73183e-15 0)
(3 -1.36892e-15 0)
(3 -6.07855e-16 0)
(3 1.06887e-15 0)
(3 1.65319e-15 0)
(3 -1.52167e-15 0)
(3 -1.26886e-15 0)
(3 -5.99135e-16 0)
(3 -2.15705e-16 0)
(3 5.11917e-16 0)
(3 1.20384e-15 0)
(3 1.66533e-15 0)
(3 1.70866e-15 0)
(3 1.08993e-15 0)
(3 -5.14781e-16 0)
(3 -9.45862e-16 0)
(3 -8.59475e-16 0)
(3 9.04026e-17 0)
(3 9.69107e-16 0)
(3 4.12153e-16 0)
(3 -3.72039e-17 0)
(3 1.81126e-16 0)
(3 7.48237e-16 0)
(3 9.55121e-16 0)
(3 7.68473e-16 0)
(3 5.63779e-16 0)
(3 -1.99842e-17 0)
(3 1.56551e-16 0)
(3 6.06807e-16 0)
(3 2.66705e-16 0)
(3 -9.86371e-17 0)
(3 4.71776e-16 0)
(3 7.97782e-16 0)
(3 6.98452e-16 0)
(3 6.5062e-17 0)
(3 -1.15989e-15 0)
(3 1.78256e-16 0)
(3 1.85318e-15 0)
(3 2.05404e-15 0)
(3 1.55288e-15 0)
(3 1.40326e-15 0)
(3 1.00374e-15 0)
(3 8.48446e-16 0)
(3 1.45366e-15 0)
(3 1.63203e-15 0)
(3 2.42076e-15 0)
(3 1.90639e-15 0)
(3 8.18476e-16 0)
(3 1.00593e-15 0)
(3 9.8043e-16 0)
(3 1.19158e-15 0)
(3 1.86133e-15 0)
(3 1.25993e-16 0)
(3 -1.37025e-15 0)
(3 -2.17234e-15 0)
(3 -2.18954e-15 0)
(3 5.67361e-16 0)
(3 2.98838e-15 0)
(3 3.30856e-15 0)
(3 3.83503e-15 0)
(3 3.70629e-15 0)
(3 3.53993e-15 0)
(3 3.15765e-15 0)
(3 2.26394e-15 0)
(3 1.98444e-15 0)
(3 1.14747e-15 0)
(3 4.45409e-16 0)
(3 -3.41446e-16 0)
(3 -1.41742e-15 0)
(3 -2.10315e-15 0)
(3 -2.90285e-15 0)
(3 -1.75441e-15 0)
(3 -1.8466e-17 0)
(3 -1.49613e-17 0)
(3 -3.34081e-16 0)
(3 -2.69372e-16 0)
(3 7.70583e-16 0)
(3 1.91711e-15 0)
(3 1.91204e-15 0)
(3 1.05435e-15 0)
(3 5.33783e-16 0)
(3 9.66292e-16 0)
(3 1.2848e-15 0)
(3 1.54056e-15 0)
(3 1.67179e-15 0)
(3 1.41809e-15 0)
(3 1.13981e-15 0)
(3 9.5091e-16 0)
(3 3.69037e-16 0)
(3 -3.80885e-16 0)
(3 -5.99515e-16 0)
(3 -6.12112e-16 0)
(3 -1.06185e-15 0)
(3 -1.40733e-15 0)
(3 -4.55716e-16 0)
(3 2.27038e-16 0)
(3 3.48842e-16 0)
(3 2.9275e-16 0)
(3 5.18502e-16 0)
(3 3.4454e-16 0)
(3 3.49483e-16 0)
(3 8.02277e-16 0)
(3 6.13636e-16 0)
(3 1.02525e-15 0)
(3 9.84377e-16 0)
(3 5.67365e-16 0)
(3 -2.57468e-16 0)
(3 -6.60503e-16 0)
(3 5.75957e-16 0)
(3 1.56529e-15 0)
(3 1.70252e-15 0)
(3 2.18137e-15 0)
(3 2.42159e-15 0)
(3 2.35006e-15 0)
(3 1.97965e-15 0)
(3 1.9617e-15 0)
(3 1.52032e-15 0)
(3 2.35439e-15 0)
(3 3.11345e-15 0)
(3 2.5818e-15 0)
(3 1.71018e-15 0)
(3 1.30177e-15 0)
(3 1.48444e-15 0)
(3 1.86647e-15 0)
(3 1.88495e-15 0)
(3 1.47091e-15 0)
(3 1.23255e-15 0)
(3 1.95511e-15 0)
(3 1.99585e-15 0)
(3 1.68849e-15 0)
(3 4.02248e-16 0)
(3 -4.52435e-16 0)
(3 -3.87701e-16 0)
(3 1.21272e-16 0)
(3 -9.73741e-16 0)
(3 -7.33966e-16 0)
(3 -4.36063e-16 0)
(3 2.32354e-16 0)
(3 6.13279e-16 0)
(3 1.49972e-15 0)
(3 2.2702e-15 0)
(3 2.78884e-15 0)
(3 2.96316e-15 0)
(3 2.11313e-15 0)
(3 9.84575e-16 0)
(3 5.43103e-16 0)
(3 2.49704e-17 0)
(3 -3.69728e-16 0)
(3 -9.68719e-16 0)
(3 -1.41918e-15 0)
(3 -2.86579e-16 0)
(3 1.06144e-16 0)
(3 -2.92251e-16 0)
(3 6.85905e-16 0)
(3 4.03554e-17 0)
(3 -7.69207e-16 0)
(3 -7.27419e-16 0)
(3 1.18238e-16 0)
(3 7.21724e-16 0)
(3 -3.0137e-16 0)
(3 -9.62629e-18 0)
(3 -4.5483e-16 0)
(3 -3.31553e-16 0)
(3 2.95848e-16 0)
(3 1.40229e-15 0)
(3 1.68435e-15 0)
(3 1.01883e-15 0)
(3 8.79439e-16 0)
(3 6.92655e-16 0)
(3 7.87659e-16 0)
(3 1.73188e-15 0)
(3 1.58962e-15 0)
(3 1.65044e-15 0)
(3 2.76029e-15 0)
(3 3.82907e-15 0)
(3 3.6967e-15 0)
(3 2.2668e-15 0)
(3 1.88211e-15 0)
(3 2.43806e-15 0)
(3 2.02661e-15 0)
(3 9.76336e-16 0)
(3 1.79677e-16 0)
(3 -4.66298e-16 0)
(3 -1.53221e-15 0)
(3 7.55818e-18 0)
(3 1.29466e-15 0)
(3 1.09266e-15 0)
(3 1.1779e-15 0)
(3 1.5114e-15 0)
(3 1.69127e-15 0)
(3 1.66567e-15 0)
(3 2.36171e-15 0)
(3 1.49839e-15 0)
(3 3.32621e-16 0)
(3 -5.74756e-16 0)
(3 -9.38096e-16 0)
(3 -1.24956e-15 0)
(3 -1.38387e-15 0)
(3 -7.95697e-16 0)
(3 -1.97208e-15 0)
(3 -1.69127e-15 0)
(3 -9.90648e-16 0)
(3 -7.30932e-16 0)
(3 -6.2778e-16 0)
(3 9.90971e-16 0)
(3 2.57811e-15 0)
(3 1.86077e-15 0)
(3 1.13044e-15 0)
(3 -7.08038e-16 0)
(3 -1.29326e-15 0)
(3 -1.12696e-15 0)
(3 -6.41701e-16 0)
(3 -1.40129e-16 0)
(3 8.41664e-16 0)
(3 9.64795e-16 0)
(3 -1.30735e-16 0)
(3 -3.25366e-16 0)
(3 -1.587e-16 0)
(3 1.58416e-16 0)
(3 7.16403e-16 0)
(3 3.20591e-16 0)
(3 -3.94185e-16 0)
(3 -9.59384e-16 0)
(3 -1.05669e-15 0)
(3 3.38452e-16 0)
(3 6.52619e-16 0)
(3 -3.13537e-16 0)
(3 -5.47124e-16 0)
(3 -4.76816e-16 0)
(3 5.1824e-17 0)
(3 8.45237e-16 0)
(3 1.05192e-15 0)
(3 1.53587e-15 0)
(3 8.97555e-16 0)
(3 1.6536e-15 0)
(3 1.24966e-15 0)
(3 1.30349e-15 0)
(3 1.0022e-15 0)
(3 1.25401e-15 0)
(3 2.79964e-16 0)
(3 3.94907e-16 0)
(3 7.68331e-16 0)
(3 1.58306e-15 0)
(3 1.15133e-15 0)
(3 7.37482e-16 0)
(3 1.48765e-15 0)
(3 2.27181e-15 0)
(3 2.99328e-15 0)
(3 2.76608e-15 0)
(3 1.82149e-15 0)
(3 1.813e-15 0)
(3 1.15157e-15 0)
(3 1.89937e-15 0)
(3 2.63215e-15 0)
(3 3.18373e-15 0)
(3 2.70487e-15 0)
(3 2.97632e-15 0)
(3 1.71662e-15 0)
(3 1.29504e-15 0)
(3 1.08078e-15 0)
(3 3.51789e-16 0)
(3 -5.14379e-16 0)
(3 -2.64857e-16 0)
(3 -4.81627e-16 0)
(3 -7.63073e-16 0)
(3 -2.98652e-16 0)
(3 -3.50476e-16 0)
(3 -4.6139e-16 0)
(3 -2.60481e-16 0)
(3 8.37046e-16 0)
(3 1.19262e-15 0)
(3 2.02612e-15 0)
(3 2.22321e-15 0)
(3 1.86437e-15 0)
(3 1.05587e-15 0)
(3 2.03941e-16 0)
(3 -1.04698e-16 0)
(3 -4.99509e-16 0)
(3 -7.90312e-16 0)
(3 1.61831e-16 0)
(3 1.04532e-15 0)
(3 8.42443e-16 0)
(3 7.87303e-16 0)
(3 5.97022e-16 0)
(3 7.50224e-16 0)
(3 4.10158e-16 0)
(3 -2.05974e-16 0)
(3 -2.53918e-16 0)
(3 -1.01974e-16 0)
(3 2.31372e-16 0)
(3 5.54751e-16 0)
(3 3.42121e-17 0)
(3 1.30488e-15 0)
(3 2.29383e-15 0)
(3 2.16687e-15 0)
(3 1.28764e-15 0)
(3 5.11778e-16 0)
(3 1.65531e-16 0)
(3 7.75559e-16 0)
(3 1.89015e-15 0)
(3 3.52262e-15 0)
(3 4.33576e-15 0)
(3 4.64216e-15 0)
(3 3.71174e-15 0)
(3 2.56618e-15 0)
(3 2.03147e-15 0)
(3 1.13427e-15 0)
(3 2.4851e-16 0)
(3 -5.47987e-16 0)
(3 -9.9501e-16 0)
(3 5.94812e-16 0)
(3 6.56212e-16 0)
(3 1.13029e-15 0)
(3 9.5429e-16 0)
(3 4.63335e-16 0)