/*--------------------------------*- C++ -*----------------------------------*\
  =========                 |
  \\      /  F ield         | OpenFOAM: The Open Source CFD Toolbox
   \\    /   O peration     | Website:  https://openfoam.org
    \\  /    A nd           | Version:  7
     \\/     M anipulation  |
\*---------------------------------------------------------------------------*/
FoamFile
{
    version     2.0;
    format      ascii;
    class       volVectorField;
    location    "1.9";
    object      U;
}
// * * * * * * * * * * * * * * * * * * * * * * * * * * * * * * * * * * * * * //

dimensions      [0 1 -1 0 0 0 0];

internalField   nonuniform List<vector> 
4128
(
(3 -2.25426e-15 0)
(3 -2.09888e-15 0)
(3 -2.40812e-15 0)
(3 -1.55852e-15 0)
(3 8.00693e-17 0)
(3 1.79426e-15 0)
(3 1.39226e-15 0)
(3 1.10408e-14 0)
(3 1.01027e-10 0)
(3 1.83235e-07 0)
(2.99998 6.51303e-05 0)
(2.99715 0.00675208 0)
(2.92759 0.120079 0)
(2.52656 0.593031 0)
(2.10955 0.960143 0)
(2.05988 0.986466 0)
(2.0721 0.94132 0)
(2.09757 0.912779 0)
(2.12157 0.896598 0)
(2.13047 0.891662 0)
(2.12201 0.903919 0)
(2.10692 0.911103 0)
(2.11509 0.904441 0)
(2.13924 0.892992 0)
(2.15976 0.880967 0)
(2.17614 0.870115 0)
(2.19398 0.852515 0)
(2.2091 0.831483 0)
(2.21761 0.813661 0)
(2.21967 0.807367 0)
(2.21227 0.823263 0)
(2.20687 0.834348 0)
(2.21475 0.822063 0)
(2.23895 0.7992 0)
(2.26738 0.764908 0)
(2.2808 0.742062 0)
(2.28659 0.742876 0)
(2.2878 0.749749 0)
(2.29459 0.747469 0)
(2.30636 0.736013 0)
(2.31259 0.723071 0)
(2.31262 0.718139 0)
(2.31357 0.714595 0)
(2.32581 0.696732 0)
(2.3515 0.671522 0)
(2.36882 0.6515 0)
(2.376 0.643236 0)
(2.37345 0.652439 0)
(2.36482 0.660113 0)
(2.36981 0.649773 0)
(2.3927 0.631932 0)
(2.40935 0.607635 0)
(2.41853 0.60104 0)
(2.41855 0.608228 0)
(2.42202 0.601994 0)
(2.43803 0.58093 0)
(2.44798 0.558365 0)
(2.45107 0.550856 0)
(2.44821 0.559208 0)
(2.44432 0.558868 0)
(2.45908 0.543943 0)
(2.47613 0.522094 0)
(2.48641 0.507252 0)
(2.49105 0.511411 0)
(2.48991 0.513678 0)
(2.50057 0.501613 0)
(2.51142 0.481156 0)
(2.51559 0.46716 0)
(2.51558 0.470595 0)
(2.51173 0.472097 0)
(2.52221 0.458766 0)
(2.53659 0.439282 0)
(2.54471 0.425763 0)
(2.5496 0.427381 0)
(2.55041 0.427713 0)
(2.56047 0.416673 0)
(2.56883 0.398303 0)
(2.57209 0.386617 0)
(2.57287 0.39076 0)
(2.57043 0.392308 0)
(2.581 0.375768 0)
(2.59054 0.355606 0)
(2.59676 0.350894 0)
(2.59507 0.356494 0)
(3 -2.71679e-15 0)
(3 -2.05255e-15 0)
(3 -2.21321e-15 0)
(3 -1.8451e-15 0)
(3 -2.27354e-15 0)
(3 -1.80815e-15 0)
(3 -1.24533e-15 0)
(3 -7.11546e-16 0)
(3 2.4849e-16 0)
(3 1.32456e-15 0)
(3 1.05146e-15 0)
(3 -1.77454e-15 0)
(3 6.22949e-15 0)
(3 5.26534e-11 0)
(3 1.23524e-07 0)
(2.99997 6.075e-05 0)
(2.99692 0.00772243 0)
(2.92241 0.142937 0)
(2.46647 0.654178 0)
(2.20188 0.886787 0)
(2.11748 0.919165 0)
(2.10866 0.927951 0)
(2.10895 0.923766 0)
(2.10181 0.927626 0)
(2.09182 0.934071 0)
(2.09835 0.921637 0)
(2.12088 0.904179 0)
(2.14713 0.884346 0)
(2.16637 0.87647 0)
(2.17856 0.875089 0)
(2.18665 0.865399 0)
(2.19534 0.845352 0)
(2.19921 0.826965 0)
(2.1984 0.830379 0)
(2.19886 0.842203 0)
(2.20645 0.840527 0)
(2.22647 0.821338 0)
(2.25518 0.791341 0)
(2.2695 0.764872 0)
(2.27363 0.758407 0)
(2.27403 0.764439 0)
(2.28114 0.764109 0)
(2.29284 0.756227 0)
(2.30005 0.747875 0)
(2.30063 0.741777 0)
(2.30278 0.735071 0)
(2.31509 0.719211 0)
(2.33879 0.692566 0)
(2.35746 0.66924 0)
(2.36497 0.658414 0)
(2.36267 0.665276 0)
(2.3525 0.679797 0)
(2.35095 0.676613 0)
(2.37083 0.661951 0)
(2.3937 0.635027 0)
(2.40691 0.614393 0)
(2.41329 0.617477 0)
(2.41394 0.620027 0)
(2.42454 0.606776 0)
(2.43734 0.584283 0)
(2.44197 0.568869 0)
(2.44042 0.572776 0)
(2.43481 0.578796 0)
(2.44051 0.568347 0)
(2.46151 0.549555 0)
(2.47548 0.527541 0)
(2.48441 0.520631 0)
(2.48601 0.526955 0)
(2.48843 0.523343 0)
(2.50062 0.507333 0)
(2.50786 0.488097 0)
(2.51002 0.483046 0)
(2.5068 0.48948 0)
(2.5069 0.483452 0)
(2.52359 0.46672 0)
(2.53503 0.44739 0)
(2.54213 0.439414 0)
(2.54433 0.443213 0)
(2.54645 0.439801 0)
(2.55791 0.42645 0)
(2.5643 0.408372 0)
(2.56731 0.402378 0)
(2.56664 0.407745 0)
(2.56828 0.402042 0)
(2.57934 0.382948 0)
(2.58652 0.366604 0)
(2.59339 0.36391 0)
(2.59799 0.361005 0)
(3 -1.23431e-15 0)
(3 -2.02884e-15 0)
(3 -2.31892e-15 0)
(3 -2.36463e-15 0)
(3 -2.60152e-15 0)
(3 -3.27312e-15 0)
(3 -2.8912e-15 0)
(3 -2.11954e-15 0)
(3 -2.071e-15 0)
(3 -2.31953e-15 0)
(3 -2.23252e-15 0)
(3 -2.87323e-15 0)
(3 -2.8354e-15 0)
(3 5.73217e-15 0)
(3 4.09799e-11 0)
(3 2.29763e-07 0)
(2.99997 7.247e-05 0)
(2.99582 0.0109453 0)
(2.92117 0.13599 0)
(2.5311 0.601734 0)
(2.22555 0.867599 0)
(2.12836 0.910792 0)
(2.10847 0.932789 0)
(2.09218 0.945118 0)
(2.08633 0.945557 0)
(2.09826 0.93037 0)
(2.12387 0.912607 0)
(2.14382 0.891731 0)
(2.15945 0.885777 0)
(2.17317 0.882337 0)
(2.1849 0.870731 0)
(2.19171 0.851094 0)
(2.19018 0.83956 0)
(2.18994 0.847065 0)
(2.19925 0.850623 0)
(2.21695 0.84067 0)
(2.24215 0.818483 0)
(2.2573 0.796166 0)
(2.26155 0.780788 0)
(2.2631 0.774653 0)
(2.26966 0.7706 0)
(2.28065 0.766198 0)
(2.28806 0.765535 0)
(2.28815 0.766314 0)
(2.29041 0.760132 0)
(2.30398 0.744595 0)
(2.32689 0.717138 0)
(2.34813 0.687721 0)
(2.35831 0.672905 0)
(2.35742 0.676056 0)
(2.34724 0.693333 0)
(2.33948 0.696975 0)
(2.35103 0.681991 0)
(2.37601 0.6626 0)
(2.39383 0.635762 0)
(2.40385 0.627055 0)
(2.40596 0.632471 0)
(2.41184 0.628408 0)
(2.42535 0.61112 0)
(2.43306 0.591487 0)
(2.43231 0.587327 0)
(2.42609 0.59544 0)
(2.42467 0.590875 0)
(2.44318 0.575068 0)
(2.46302 0.552914 0)
(2.47468 0.535014 0)
(2.48102 0.536474 0)
(2.48054 0.540476 0)
(2.48774 0.532402 0)
(2.49842 0.513381 0)
(2.50309 0.498205 0)
(2.50331 0.500824 0)
(2.49949 0.503431 0)
(2.50835 0.489781 0)
(2.52464 0.47105 0)
(2.53336 0.455647 0)
(2.53847 0.454811 0)
(2.53765 0.458274 0)
(2.54315 0.451487 0)
(2.55448 0.435778 0)
(2.55958 0.419843 0)
(2.5623 0.419433 0)
(2.56129 0.422308 0)
(2.56841 0.409226 0)
(2.5788 0.388019 0)
(2.58412 0.377717 0)
(2.58887 0.377342 0)
(2.59371 0.375235 0)
(3 -1.07812e-15 0)
(3 -1.27441e-15 0)
(3 -1.99134e-15 0)
(3 -2.81354e-15 0)
(3 -2.89812e-15 0)
(3 -3.44337e-15 0)
(3 -2.34668e-15 0)
(3 -2.29115e-15 0)
(3 -2.5605e-15 0)
(3 -2.99547e-15 0)
(3 -3.16699e-15 0)
(3 -2.84971e-15 0)
(3 -5.82354e-16 0)
(3 8.7589e-16 0)
(3 1.14101e-14 0)
(3 1.5649e-10 0)
(3 2.52033e-07 0)
(2.99995 0.00011131 0)
(2.99758 0.00796729 0)
(2.92142 0.125459 0)
(2.61732 0.509384 0)
(2.2352 0.840256 0)
(2.0919 0.969516 0)
(2.07363 0.971509 0)
(2.07779 0.954858 0)
(2.10004 0.921308 0)
(2.1288 0.893296 0)
(2.14535 0.884443 0)
(2.15624 0.888623 0)
(2.16196 0.892247 0)
(2.16883 0.884327 0)
(2.17482 0.868196 0)
(2.17945 0.856589 0)
(2.19013 0.850833 0)
(2.20967 0.84335 0)
(2.23127 0.83177 0)
(2.24324 0.821748 0)
(2.24625 0.811314 0)
(2.24791 0.799862 0)
(2.25498 0.789471 0)
(2.26657 0.779972 0)
(2.27705 0.775766 0)
(2.28169 0.778923 0)
(2.28179 0.778146 0)
(2.29187 0.765562 0)
(2.31412 0.743729 0)
(2.33665 0.712309 0)
(2.34906 0.690983 0)
(2.34911 0.688363 0)
(2.33894 0.706348 0)
(2.32796 0.718046 0)
(2.33415 0.706284 0)
(2.35692 0.68966 0)
(2.38038 0.661426 0)
(2.39435 0.641451 0)
(2.39868 0.64384 0)
(2.40051 0.644743 0)
(2.41265 0.634631 0)
(2.42441 0.615355 0)
(2.42678 0.603657 0)
(2.42047 0.609432 0)
(2.41396 0.611052 0)
(2.42378 0.594931 0)
(2.44691 0.576934 0)
(2.46213 0.556511 0)
(2.47152 0.547915 0)
(2.47318 0.554669 0)
(2.47353 0.555044 0)
(2.4848 0.543104 0)
(2.49394 0.5225 0)
(2.49766 0.513081 0)
(2.49652 0.517583 0)
(2.49626 0.511418 0)
(2.51211 0.49391 0)
(2.52387 0.475897 0)
(2.53045 0.466705 0)
(2.53231 0.471271 0)
(2.53037 0.471818 0)
(2.5403 0.462578 0)
(2.55045 0.444651 0)
(2.55545 0.432931 0)
(2.55736 0.436165 0)
(2.55871 0.433327 0)
(2.56937 0.415308 0)
(2.57723 0.395925 0)
(2.5814 0.389982 0)
(2.58193 0.394787 0)
(2.58518 0.391307 0)
(3 -1.14466e-15 0)
(3 -8.96552e-16 0)
(3 -9.34914e-16 0)
(3 -1.58354e-15 0)
(3 -1.93279e-15 0)
(3 -1.50291e-15 0)
(3 3.02243e-17 0)
(3 -1.13772e-15 0)
(3 -1.61527e-15 0)
(3 -2.45227e-15 0)
(3 -2.96565e-15 0)
(3 -2.23284e-15 0)
(3 4.72516e-17 0)
(3 8.16984e-16 0)
(3 -3.72246e-17 0)
(3 2.95714e-14 0)
(3 1.46546e-10 0)
(3 2.85108e-07 0)
(2.99998 6.83779e-05 0)
(2.99752 0.00558816 0)
(2.93803 0.106939 0)
(2.59556 0.527402 0)
(2.2624 0.859829 0)
(2.09473 0.973101 0)
(2.08194 0.96046 0)
(2.10373 0.931791 0)
(2.12559 0.901124 0)
(2.14015 0.89325 0)
(2.14987 0.900082 0)
(2.15834 0.902847 0)
(2.16647 0.891621 0)
(2.17083 0.873586 0)
(2.17868 0.861443 0)
(2.19299 0.854017 0)
(2.20907 0.848348 0)
(2.2213 0.842892 0)
(2.22884 0.835872 0)
(2.23457 0.823644 0)
(2.24337 0.806893 0)
(2.25517 0.791497 0)
(2.26616 0.783957 0)
(2.27208 0.788499 0)
(2.27276 0.795209 0)
(2.27834 0.788512 0)
(2.29783 0.771916 0)
(2.32311 0.740607 0)
(2.3392 0.711397 0)
(2.34415 0.701002 0)
(2.33643 0.714871 0)
(2.32179 0.733436 0)
(2.32076 0.728424 0)
(2.33905 0.71163 0)
(2.36538 0.685601 0)
(2.38186 0.658358 0)
(2.39016 0.655378 0)
(2.38895 0.662493 0)
(2.39707 0.658885 0)
(2.4118 0.644411 0)
(2.41889 0.627989 0)
(2.41626 0.62557 0)
(2.40891 0.628804 0)
(2.40857 0.615112 0)
(2.42935 0.596525 0)
(2.44846 0.577314 0)
(2.46005 0.562498 0)
(2.46537 0.564548 0)
(2.46282 0.571822 0)
(2.46719 0.568522 0)
(2.48079 0.552276 0)
(2.489 0.532886 0)
(2.49184 0.530147 0)
(2.48985 0.531584 0)
(2.49749 0.517168 0)
(2.5133 0.498197 0)
(2.52092 0.482836 0)
(2.52528 0.481131 0)
(2.52394 0.486852 0)
(2.52472 0.483154 0)
(2.53789 0.470441 0)
(2.5467 0.452165 0)
(2.55223 0.447022 0)
(2.55335 0.450977 0)
(2.55902 0.441656 0)
(2.56974 0.42153 0)
(2.57504 0.405688 0)
(2.57752 0.404688 0)
(2.57491 0.409449 0)
(2.57881 0.403447 0)
(3 4.03115e-16 0)
(3 -2.02882e-16 0)
(3 2.27467e-16 0)
(3 6.20253e-16 0)
(3 1.07746e-15 0)
(3 2.0508e-15 0)
(3 5.62445e-16 0)
(3 -1.82112e-15 0)
(3 -2.59451e-15 0)
(3 -4.03791e-15 0)
(3 -2.92625e-15 0)
(3 -1.18771e-15 0)
(3 3.63677e-16 0)
(3 1.67733e-17 0)
(3 -3.63269e-16 0)
(3 -2.9884e-16 0)
(3 1.85567e-14 0)
(3 1.01861e-10 0)
(3 1.41728e-07 0)
(2.99998 4.35017e-05 0)
(2.99717 0.00578664 0)
(2.9424 0.104401 0)
(2.61912 0.546405 0)
(2.20548 0.942259 0)
(2.12607 0.911474 0)
(2.13014 0.910869 0)
(2.14236 0.901321 0)
(2.14924 0.90779 0)
(2.14572 0.924313 0)
(2.14218 0.925121 0)
(2.15091 0.907528 0)
(2.1652 0.880497 0)
(2.18018 0.858911 0)
(2.19513 0.850449 0)
(2.20577 0.851333 0)
(2.21041 0.853661 0)
(2.21433 0.849356 0)
(2.22543 0.835311 0)
(2.24023 0.814209 0)
(2.25259 0.797268 0)
(2.26072 0.795195 0)
(2.264 0.804413 0)
(2.2668 0.806566 0)
(2.28048 0.794571 0)
(2.3044 0.771033 0)
(2.32382 0.737283 0)
(2.33172 0.717866 0)
(2.32896 0.723266 0)
(2.31749 0.745928 0)
(2.31272 0.751718 0)
(2.32495 0.734966 0)
(2.34933 0.712754 0)
(2.36837 0.680848 0)
(2.37747 0.667622 0)
(2.38033 0.672927 0)
(2.38559 0.67291 0)
(2.39896 0.664746 0)
(2.40888 0.65353 0)
(2.40913 0.648191 0)
(2.40241 0.649935 0)
(2.39851 0.640547 0)
(2.41248 0.615623 0)
(2.43515 0.594586 0)
(2.44893 0.57973 0)
(2.45679 0.573955 0)
(2.45688 0.582227 0)
(2.45312 0.58629 0)
(2.46399 0.578084 0)
(2.47759 0.557623 0)
(2.48469 0.543902 0)
(2.48559 0.546073 0)
(2.48545 0.540272 0)
(2.4998 0.522693 0)
(2.51062 0.504816 0)
(2.51531 0.494522 0)
(2.5168 0.498531 0)
(2.51379 0.501521 0)
(2.52134 0.493313 0)
(2.53546 0.475889 0)
(2.54406 0.460337 0)
(2.54988 0.460889 0)
(2.55199 0.461841 0)
(2.56067 0.448137 0)
(2.56831 0.429351 0)
(2.5709 0.419061 0)
(2.57051 0.422233 0)
(2.56694 0.423467 0)
(2.57204 0.414821 0)
(3 1.4995e-15 0)
(3 1.32302e-15 0)
(3 1.32566e-15 0)
(3 2.2093e-15 0)
(3 2.95538e-15 0)
(3 2.69649e-15 0)
(3 6.19985e-16 0)
(3 -1.19082e-15 0)
(3 -2.10349e-15 0)
(3 -3.07405e-15 0)
(3 -2.34155e-15 0)
(3 -1.33531e-15 0)
(3 -1.15919e-15 0)
(3 -6.98634e-16 0)
(3 -1.27882e-16 0)
(3 -4.73758e-17 0)
(3 -1.32994e-16 0)
(3 8.45688e-15 0)
(3 5.97386e-11 0)
(3 9.99355e-08 0)
(2.99997 5.5013e-05 0)
(2.99768 0.00597385 0)
(2.94056 0.114072 0)
(2.63371 0.526058 0)
(2.25613 0.860184 0)
(2.17151 0.87236 0)
(2.15962 0.920485 0)
(2.1463 0.939736 0)
(2.13964 0.948346 0)
(2.13362 0.937565 0)
(2.14646 0.912058 0)
(2.16495 0.883212 0)
(2.18089 0.86346 0)
(2.19243 0.858693 0)
(2.19812 0.863589 0)
(2.20025 0.866131 0)
(2.20736 0.857637 0)
(2.22326 0.839197 0)
(2.23862 0.817086 0)
(2.24941 0.804277 0)
(2.25577 0.80855 0)
(2.2591 0.816881 0)
(2.26566 0.812934 0)
(2.28405 0.797853 0)
(2.30625 0.769532 0)
(2.31732 0.741875 0)
(2.3195 0.732355 0)
(2.31542 0.74871 0)
(2.31136 0.76193 0)
(2.31618 0.753899 0)
(2.33655 0.734747 0)
(2.35582 0.710598 0)
(2.36266 0.691103 0)
(2.36694 0.684824 0)
(2.37456 0.683134 0)
(2.38857 0.677239 0)
(2.40164 0.667857 0)
(2.4062 0.66376 0)
(2.40032 0.66892 0)
(2.3919 0.667938 0)
(2.39775 0.643618 0)
(2.42059 0.617846 0)
(2.43568 0.599038 0)
(2.44568 0.588781 0)
(2.44843 0.593904 0)
(2.44257 0.603616 0)
(2.4453 0.601181 0)
(2.46252 0.584989 0)
(2.47497 0.561768 0)
(2.48106 0.555174 0)
(2.48061 0.556516 0)
(2.48556 0.543765 0)
(2.49966 0.526585 0)
(2.50601 0.512695 0)
(2.50863 0.510113 0)
(2.50643 0.516561 0)
(2.5052 0.514019 0)
(2.51991 0.501677 0)
(2.53308 0.480934 0)
(2.54239 0.47003 0)
(2.54769 0.47366 0)
(2.55178 0.470678 0)
(2.56104 0.454981 0)
(2.56556 0.438167 0)
(2.56557 0.43438 0)
(2.5622 0.438695 0)
(2.55901 0.43471 0)
(2.57 0.422997 0)
(3 1.28928e-15 0)
(3 1.80276e-15 0)
(3 1.8416e-15 0)
(3 1.6546e-15 0)
(3 1.80684e-15 0)
(3 1.763e-15 0)
(3 8.92195e-16 0)
(3 9.73509e-18 0)
(3 -3.30906e-16 0)
(3 -7.85293e-16 0)
(3 -1.01518e-15 0)
(3 -1.00236e-15 0)
(3 -1.75974e-15 0)
(3 -1.62716e-15 0)
(3 -1.59969e-15 0)
(3 -1.23338e-15 0)
(3 -1.29631e-15 0)
(3 -1.31969e-15 0)
(3 9.89808e-15 0)
(3 4.72338e-11 0)
(3 1.74142e-07 0)
(2.99998 5.17005e-05 0)
(2.9978 0.00574357 0)
(2.95441 0.0897618 0)
(2.66788 0.457519 0)
(2.3415 0.742775 0)
(2.18149 0.903358 0)
(2.13998 0.968066 0)
(2.12169 0.968872 0)
(2.12159 0.94787 0)
(2.1474 0.913739 0)
(2.16802 0.877242 0)
(2.18474 0.862119 0)
(2.19417 0.866162 0)
(2.19749 0.874145 0)
(2.19722 0.876928 0)
(2.20551 0.866033 0)
(2.22364 0.843682 0)
(2.2381 0.820817 0)
(2.24733 0.811869 0)
(2.25264 0.819174 0)
(2.25608 0.825799 0)
(2.26383 0.818945 0)
(2.2824 0.802725 0)
(2.29853 0.775438 0)
(2.30533 0.752967 0)
(2.30658 0.753544 0)
(2.30809 0.76565 0)
(2.31495 0.768679 0)
(2.32393 0.757002 0)
(2.33711 0.74042 0)
(2.34547 0.723608 0)
(2.35299 0.70615 0)
(2.36264 0.695421 0)
(2.37696 0.688213 0)
(2.3916 0.681113 0)
(2.3988 0.67882 0)
(2.39512 0.6857 0)
(2.38625 0.690323 0)
(2.38626 0.671616 0)
(2.40662 0.641545 0)
(2.42556 0.61636 0)
(2.43661 0.602579 0)
(2.44164 0.602395 0)
(2.43718 0.61594 0)
(2.43013 0.62099 0)
(2.44382 0.613159 0)
(2.4615 0.589585 0)
(2.47095 0.570353 0)
(2.4734 0.57012 0)
(2.4744 0.565005 0)
(2.48741 0.547968 0)
(2.49712 0.531867 0)
(2.50048 0.523745 0)
(2.4998 0.529106 0)
(2.49422 0.533833 0)
(2.50026 0.525413 0)
(2.51844 0.508233 0)
(2.53032 0.487898 0)
(2.53969 0.483308 0)
(2.54378 0.486845 0)
(2.55147 0.478833 0)
(2.55945 0.461959 0)
(2.56078 0.449445 0)
(2.55805 0.451654 0)
(2.55226 0.454036 0)
(2.55435 0.444051 0)
(2.56873 0.430641 0)
(3 1.68288e-15 0)
(3 1.8848e-15 0)
(3 2.76878e-15 0)
(3 2.27788e-15 0)
(3 1.57831e-15 0)
(3 1.24402e-15 0)
(3 3.72438e-16 0)
(3 -3.98281e-16 0)
(3 -4.26004e-16 0)
(3 -1.04428e-15 0)
(3 -1.68101e-15 0)
(3 -1.84718e-15 0)
(3 -2.03266e-15 0)
(3 -2.03104e-15 0)
(3 -1.5445e-15 0)
(3 -1.6828e-15 0)
(3 -1.56492e-15 0)
(3 -1.67583e-15 0)
(3 -2.30271e-15 0)
(3 7.67956e-15 0)
(3 8.17211e-11 0)
(3 1.20799e-07 0)
(2.99998 4.14683e-05 0)
(2.99875 0.00337762 0)
(2.96348 0.0642096 0)
(2.73121 0.369231 0)
(2.3456 0.761613 0)
(2.15853 0.983821 0)
(2.10855 0.974644 0)
(2.11746 0.948392 0)
(2.15392 0.89273 0)
(2.17612 0.861073 0)
(2.19412 0.863224 0)
(2.20054 0.877438 0)
(2.19313 0.894464 0)
(2.18922 0.891903 0)
(2.20532 0.871797 0)
(2.22436 0.843731 0)
(2.23656 0.825748 0)
(2.24282 0.825264 0)
(2.24822 0.832286 0)
(2.25406 0.835062 0)
(2.2632 0.825171 0)
(2.28057 0.804455 0)
(2.29275 0.778694 0)
(2.29831 0.765166 0)
(2.30144 0.76909 0)
(2.31019 0.772152 0)
(2.32252 0.769538 0)
(2.32909 0.762572 0)
(2.33181 0.750199 0)
(2.33883 0.732275 0)
(2.35119 0.714336 0)
(2.36567 0.700058 0)
(2.38068 0.691195 0)
(2.39019 0.689444 0)
(2.38937 0.697522 0)
(2.3805 0.708314 0)
(2.377 0.700354 0)
(2.39106 0.670453 0)
(2.41425 0.640637 0)
(2.42591 0.62221 0)
(2.43255 0.615626 0)
(2.4328 0.62475 0)
(2.42417 0.637151 0)
(2.42707 0.633692 0)
(2.44739 0.615583 0)
(2.46064 0.590926 0)
(2.46538 0.583519 0)
(2.46472 0.582479 0)
(2.47456 0.568191 0)
(2.48839 0.55092 0)
(2.4938 0.540003 0)
(2.49464 0.540605 0)
(2.48981 0.548837 0)
(2.48514 0.546516 0)
(2.50094 0.532726 0)
(2.51791 0.510677 0)
(2.52923 0.494205 0)
(2.53734 0.495629 0)
(2.54116 0.496567 0)
(2.5501 0.486336 0)
(2.5551 0.471047 0)
(2.55408 0.464484 0)
(2.54914 0.469068 0)
(2.54342 0.465654 0)
(2.55388 0.452159 0)
(2.56824 0.434379 0)
(3 1.36361e-15 0)
(3 1.52185e-15 0)
(3 1.06739e-15 0)
(3 1.47937e-15 0)
(3 1.33899e-15 0)
(3 5.19129e-16 0)
(3 -1.21273e-16 0)
(3 -1.27446e-15 0)
(3 -1.89508e-15 0)
(3 -1.84707e-15 0)
(3 -2.15287e-15 0)
(3 -2.02659e-15 0)
(3 -1.76706e-15 0)
(3 -1.67154e-15 0)
(3 -1.3206e-15 0)
(3 -1.45206e-15 0)
(3 -1.14438e-15 0)
(3 -1.97199e-15 0)
(3 -2.53788e-15 0)
(3 -1.8268e-15 0)
(3 8.22618e-15 0)
(3 4.27972e-11 0)
(3 6.51593e-08 0)
(2.99999 1.98391e-05 0)
(2.99907 0.0020365 0)
(2.97019 0.0536063 0)
(2.75213 0.372678 0)
(2.29847 0.859889 0)
(2.15723 0.989285 0)
(2.14521 0.917034 0)
(2.17671 0.870558 0)
(2.19196 0.858277 0)
(2.20439 0.880511 0)
(2.18973 0.914075 0)
(2.17417 0.918627 0)
(2.18062 0.900612 0)
(2.20464 0.870181 0)
(2.22303 0.837276 0)
(2.23473 0.828164 0)
(2.23944 0.8389 0)
(2.24007 0.850574 0)
(2.24261 0.851588 0)
(2.25759 0.836389 0)
(2.27747 0.808144 0)
(2.28882 0.781722 0)
(2.29597 0.770995 0)
(2.30211 0.772399 0)
(2.309 0.777687 0)
(2.31291 0.782479 0)
(2.31404 0.780002 0)
(2.32015 0.765147 0)
(2.33439 0.746384 0)
(2.35283 0.72353 0)
(2.36827 0.705505 0)
(2.3805 0.699359 0)
(2.38403 0.705393 0)
(2.37726 0.718958 0)
(2.37133 0.722062 0)
(2.37647 0.69834 0)
(2.39901 0.670039 0)
(2.41459 0.644963 0)
(2.4234 0.63166 0)
(2.4267 0.634199 0)
(2.4219 0.649472 0)
(2.41785 0.653381 0)
(2.43318 0.640634 0)
(2.44876 0.615815 0)
(2.45432 0.601038 0)
(2.4548 0.59932 0)
(2.46144 0.589121 0)
(2.47772 0.57228 0)
(2.48663 0.55922 0)
(2.48905 0.554545 0)
(2.48666 0.561909 0)
(2.47977 0.56734 0)
(2.48275 0.556079 0)
(2.50327 0.537628 0)
(2.51721 0.514646 0)
(2.52794 0.504549 0)
(2.53238 0.50945 0)
(2.53744 0.506891 0)
(2.54599 0.495365 0)
(2.54857 0.482588 0)
(2.54604 0.481974 0)
(2.5396 0.485448 0)
(2.53908 0.47422 0)
(2.55539 0.458467 0)
(2.56645 0.439841 0)
(3 1.03328e-15 0)
(3 7.67342e-16 0)
(3 6.27692e-17 0)
(3 2.37551e-17 0)
(3 4.38388e-16 0)
(3 4.29253e-16 0)
(3 3.31773e-16 0)
(3 -2.36235e-16 0)
(3 -2.5413e-16 0)
(3 -6.35077e-16 0)
(3 -1.58543e-15 0)
(3 -1.24389e-15 0)
(3 -8.39794e-16 0)
(3 -1.45157e-15 0)
(3 -1.94398e-15 0)
(3 -1.40585e-15 0)
(3 -1.52742e-15 0)
(3 -2.3344e-15 0)
(3 -2.73472e-15 0)
(3 -2.31471e-15 0)
(3 -2.1854e-15 0)
(3 1.80943e-15 0)
(3 1.57616e-11 0)
(3 3.25409e-08 0)
(2.99999 1.29736e-05 0)
(2.99904 0.00200875 0)
(2.97233 0.0571381 0)
(2.72485 0.410848 0)
(2.34973 0.86629 0)
(2.23617 0.852905 0)
(2.2031 0.862365 0)
(2.19697 0.884457 0)
(2.17938 0.925298 0)
(2.15767 0.949068 0)
(2.15823 0.936741 0)
(2.17463 0.913966 0)
(2.20456 0.872236 0)
(2.21883 0.83978 0)
(2.23237 0.841679 0)
(2.23878 0.855754 0)
(2.24216 0.864156 0)
(2.24197 0.860274 0)
(2.25376 0.84035 0)
(2.2708 0.813425 0)
(2.28064 0.79145 0)
(2.28824 0.78283 0)
(2.29639 0.783165 0)
(2.30379 0.788015 0)
(2.30727 0.791388 0)
(2.30863 0.783442 0)
(2.31891 0.76724 0)
(2.33813 0.749459 0)
(2.35571 0.725749 0)
(2.3688 0.7124 0)
(2.37389 0.714933 0)
(2.36994 0.728858 0)
(2.36549 0.736245 0)
(2.36715 0.722066 0)
(2.38246 0.693262 0)
(2.40386 0.667068 0)
(2.41478 0.647418 0)
(2.42101 0.641012 0)
(2.42145 0.65487 0)
(2.41447 0.66921 0)
(2.42107 0.664842 0)
(2.43836 0.645237 0)
(2.44532 0.625131 0)
(2.44612 0.615064 0)
(2.45073 0.603869 0)
(2.4667 0.586649 0)
(2.4795 0.573994 0)
(2.48424 0.568198 0)
(2.48298 0.573575 0)
(2.47548 0.584423 0)
(2.4704 0.581715 0)
(2.48685 0.563572 0)
(2.50646 0.538949 0)
(2.51854 0.518053 0)
(2.52714 0.516033 0)
(2.52833 0.520227 0)
(2.53485 0.515089 0)
(2.54115 0.503733 0)
(2.54172 0.495989 0)
(2.53791 0.499481 0)
(2.53159 0.497919 0)
(2.54085 0.480439 0)
(2.55703 0.461291 0)
(2.56572 0.445048 0)
(3 6.82959e-16 0)
(3 3.40025e-16 0)
(3 4.62408e-16 0)
(3 -1.26075e-17 0)
(3 -3.81516e-16 0)
(3 -1.94237e-16 0)
(3 -6.73468e-17 0)
(3 -7.39009e-17 0)
(3 7.79955e-17 0)
(3 -1.70431e-17 0)
(3 -3.2423e-16 0)
(3 -1.83525e-16 0)
(3 -9.51746e-16 0)
(3 -9.17953e-16 0)
(3 -1.37128e-15 0)
(3 -1.75361e-15 0)
(3 -1.80694e-15 0)
(3 -2.23456e-15 0)
(3 -2.3631e-15 0)
(3 -1.99169e-15 0)
(3 -2.2999e-15 0)
(3 -2.23377e-15 0)
(3 2.31586e-16 0)
(3 1.24684e-11 0)
(3 3.35596e-08 0)
(2.99999 1.52179e-05 0)
(2.99903 0.00224208 0)
(2.97006 0.0613462 0)
(2.78587 0.3544 0)
(2.47331 0.68054 0)
(2.24838 0.812589 0)
(2.18899 0.922303 0)
(2.14754 0.961779 0)
(2.13837 0.958044 0)
(2.15149 0.937891 0)
(2.18438 0.903126 0)
(2.20884 0.862194 0)
(2.22181 0.849942 0)
(2.22768 0.860355 0)
(2.22885 0.87176 0)
(2.22912 0.87494 0)
(2.23385 0.862014 0)
(2.25078 0.838261 0)
(2.26688 0.810296 0)
(2.27599 0.79251 0)
(2.28252 0.789804 0)
(2.28578 0.797802 0)
(2.28671 0.807652 0)
(2.29031 0.808466 0)
(2.30205 0.794386 0)
(2.32017 0.776222 0)
(2.34322 0.747434 0)
(2.35643 0.72534 0)
(2.36448 0.720028 0)
(2.36234 0.732517 0)
(2.35385 0.749071 0)
(2.35388 0.748951 0)
(2.36456 0.725868 0)
(2.38457 0.701276 0)
(2.40231 0.670811 0)
(2.41067 0.654146 0)
(2.41611 0.657584 0)
(2.41454 0.673421 0)
(2.41525 0.67882 0)
(2.42386 0.671075 0)
(2.43092 0.656498 0)
(2.43484 0.6414 0)
(2.44128 0.625719 0)
(2.45529 0.605738 0)
(2.4701 0.589898 0)
(2.47734 0.582508 0)
(2.47756 0.584779 0)
(2.47144 0.597566 0)
(2.46326 0.603605 0)
(2.47012 0.588895 0)
(2.49311 0.567805 0)
(2.50874 0.54187 0)
(2.51943 0.525934 0)
(2.52326 0.530441 0)
(2.52322 0.532892 0)
(2.53021 0.526334 0)
(2.53421 0.515814 0)
(2.53364 0.513389 0)
(2.52906 0.516626 0)
(2.52882 0.505256 0)
(2.54541 0.483721 0)
(2.5572 0.465608 0)
(2.56422 0.453262 0)
(3 8.71608e-16 0)
(3 2.35116e-16 0)
(3 4.39461e-17 0)
(3 -4.55574e-16 0)
(3 -2.13194e-16 0)
(3 1.7703e-16 0)
(3 7.40328e-17 0)
(3 8.63429e-16 0)
(3 4.06757e-16 0)
(3 5.00862e-16 0)
(3 6.54527e-16 0)
(3 3.48491e-16 0)
(3 -1.66454e-16 0)
(3 -4.67147e-16 0)
(3 -5.56659e-16 0)
(3 -1.03599e-15 0)
(3 -1.36765e-15 0)
(3 -1.62927e-15 0)
(3 -1.14112e-15 0)
(3 -8.04033e-16 0)
(3 -1.02189e-15 0)
(3 -1.32962e-15 0)
(3 -2.29115e-15 0)
(3 -1.33386e-16 0)
(3 2.01249e-11 0)
(3 3.70249e-08 0)
(2.99999 1.65131e-05 0)
(2.99939 0.00167888 0)
(2.98366 0.0365343 0)
(2.86083 0.221413 0)
(2.51614 0.604883 0)
(2.16985 0.905364 0)
(2.12902 0.997654 0)
(2.12426 0.970869 0)
(2.1582 0.92725 0)
(2.20527 0.875924 0)
(2.22132 0.848626 0)
(2.22842 0.84954 0)
(2.22191 0.871266 0)
(2.21534 0.887684 0)
(2.21775 0.887239 0)
(2.2298 0.868999 0)
(2.25118 0.842505 0)
(2.26732 0.811446 0)
(2.27465 0.795486 0)
(2.2799 0.795898 0)
(2.28118 0.808093 0)
(2.28021 0.819423 0)
(2.28587 0.815814 0)
(2.30321 0.801025 0)
(2.32665 0.777517 0)
(2.34475 0.74777 0)
(2.35363 0.732086 0)
(2.35545 0.735323 0)
(2.34946 0.752488 0)
(2.34432 0.761406 0)
(2.34952 0.747954 0)
(2.36632 0.724983 0)
(2.38872 0.698463 0)
(2.39966 0.672693 0)
(2.40623 0.663944 0)
(2.4086 0.677047 0)
(2.40864 0.687386 0)
(2.41515 0.687536 0)
(2.42039 0.681207 0)
(2.42421 0.667111 0)
(2.43241 0.646461 0)
(2.44572 0.62272 0)
(2.46091 0.60324 0)
(2.4704 0.594153 0)
(2.47208 0.594849 0)
(2.4671 0.608706 0)
(2.45675 0.621205 0)
(2.45614 0.613826 0)
(2.47703 0.593324 0)
(2.49874 0.568102 0)
(2.51222 0.544228 0)
(2.51959 0.535935 0)
(2.51907 0.542243 0)
(2.51978 0.542825 0)
(2.52519 0.535548 0)
(2.52679 0.529072 0)
(2.52399 0.532176 0)
(2.52033 0.530302 0)
(2.53229 0.508461 0)
(2.54745 0.48759 0)
(2.55639 0.473416 0)
(2.5617 0.464151 0)
(3 1.03823e-15 0)
(3 5.86261e-16 0)
(3 -1.61001e-16 0)
(3 5.05188e-16 0)
(3 9.2497e-16 0)
(3 7.80901e-16 0)
(3 6.48781e-16 0)
(3 5.51182e-16 0)
(3 3.85266e-16 0)
(3 7.91604e-16 0)
(3 9.56737e-16 0)
(3 3.08863e-16 0)
(3 3.58956e-16 0)
(3 2.22718e-16 0)
(3 2.93546e-16 0)
(3 -4.69185e-17 0)
(3 -3.34163e-16 0)
(3 -3.38899e-16 0)
(3 3.78144e-16 0)
(3 -4.35974e-16 0)
(3 -1.14726e-15 0)
(3 -2.20795e-15 0)
(3 -2.54769e-15 0)
(3 -2.24054e-15 0)
(3 1.358e-15 0)
(3 1.69991e-11 0)
(3 2.42628e-08 0)
(3 7.24956e-06 0)
(2.99976 0.000584744 0)
(2.99152 0.0179622 0)
(2.86396 0.209086 0)
(2.48174 0.632297 0)
(2.19282 0.956026 0)
(2.16469 0.965516 0)
(2.18582 0.909327 0)
(2.20415 0.876272 0)
(2.20968 0.864261 0)
(2.20875 0.876717 0)
(2.20723 0.888862 0)
(2.20731 0.894309 0)
(2.2136 0.883261 0)
(2.23159 0.865433 0)
(2.24995 0.843456 0)
(2.25835 0.823911 0)
(2.26332 0.813421 0)
(2.2672 0.815635 0)
(2.27171 0.825163 0)
(2.27644 0.829564 0)
(2.28788 0.820016 0)
(2.30828 0.802355 0)
(2.32844 0.775937 0)
(2.33699 0.754081 0)
(2.33815 0.74549 0)
(2.3352 0.757143 0)
(2.33336 0.771107 0)
(2.33895 0.770093 0)
(2.3513 0.749286 0)
(2.36856 0.729736 0)
(2.38697 0.700277 0)
(2.39207 0.679949 0)
(2.39554 0.682135 0)
(2.39587 0.695483 0)
(2.40103 0.700734 0)
(2.40763 0.701387 0)
(2.41155 0.694936 0)
(2.42133 0.675633 0)
(2.43656 0.647592 0)
(2.45049 0.621491 0)
(2.46037 0.607514 0)
(2.46324 0.604851 0)
(2.45973 0.616876 0)
(2.44882 0.635374 0)
(2.44429 0.637529 0)
(2.45965 0.618701 0)
(2.48477 0.595332 0)
(2.50197 0.569538 0)
(2.51314 0.549306 0)
(2.51472 0.550831 0)
(2.51124 0.55753 0)
(2.51422 0.555391 0)
(2.51826 0.547458 0)
(2.5177 0.5464 0)
(2.51376 0.548602 0)
(2.51874 0.533528 0)
(2.5361 0.508189 0)
(2.54813 0.491633 0)
(2.55581 0.480178 0)
(2.55809 0.477263 0)
(3 7.88528e-16 0)
(3 1.06049e-15 0)
(3 9.96736e-16 0)
(3 6.56863e-16 0)
(3 3.30971e-16 0)
(3 4.61652e-16 0)
(3 9.43834e-16 0)
(3 7.1473e-16 0)
(3 4.37872e-16 0)
(3 6.07266e-16 0)
(3 5.1644e-16 0)
(3 2.6952e-16 0)
(3 -1.09943e-16 0)
(3 5.36349e-16 0)
(3 1.34543e-16 0)
(3 -1.23792e-16 0)
(3 1.55799e-17 0)
(3 3.56082e-16 0)
(3 -5.81371e-17 0)
(3 -1.41642e-15 0)
(3 -3.23443e-15 0)
(3 -3.21905e-15 0)
(3 -2.53998e-15 0)
(3 -2.01513e-15 0)
(3 -2.89772e-15 0)
(3 -2.61026e-15 0)
(3 4.94345e-12 0)
(3 4.64055e-09 0)
(3 1.79779e-06 0)
(2.99982 0.000371882 0)
(2.99187 0.0159095 0)
(2.85465 0.224125 0)
(2.45969 0.707531 0)
(2.33598 0.846727 0)
(2.23023 0.887153 0)
(2.21412 0.886625 0)
(2.19881 0.892485 0)
(2.18644 0.904721 0)
(2.18822 0.90789 0)
(2.19929 0.901393 0)
(2.21688 0.883762 0)
(2.23559 0.868963 0)
(2.25175 0.845958 0)
(2.25856 0.824688 0)
(2.26286 0.818194 0)
(2.26594 0.827715 0)
(2.26848 0.83985 0)
(2.27552 0.839543 0)
(2.29233 0.824132 0)
(2.31344 0.801995 0)
(2.32773 0.778107 0)
(2.3325 0.761066 0)
(2.32979 0.757346 0)
(2.32653 0.769561 0)
(2.33052 0.778136 0)
(2.33992 0.771953 0)
(2.35526 0.753455 0)
(2.373 0.733499 0)
(2.38331 0.706945 0)
(2.38492 0.692058 0)
(2.38642 0.697227 0)
(2.38988 0.703646 0)
(2.3965 0.709445 0)
(2.40109 0.713232 0)
(2.40789 0.703052 0)
(2.42463 0.678065 0)
(2.44156 0.645147 0)
(2.45088 0.622733 0)
(2.45535 0.614971 0)
(2.45375 0.623056 0)
(2.44526 0.643887 0)
(2.43668 0.653115 0)
(2.44384 0.639343 0)
(2.468 0.619825 0)
(2.4899 0.593279 0)
(2.50506 0.570324 0)
(2.50933 0.559577 0)
(2.50695 0.566676 0)
(2.50392 0.571759 0)
(2.50759 0.56767 0)
(2.50892 0.563275 0)
(2.50584 0.565273 0)
(2.50747 0.557289 0)
(2.5224 0.531583 0)
(2.53802 0.509203 0)
(2.54806 0.497062 0)
(2.55267 0.491059 0)
(2.5534 0.49317 0)
(3 7.84034e-16 0)
(3 1.6308e-15 0)
(3 1.85392e-15 0)
(3 1.30261e-15 0)
(3 8.87548e-16 0)
(3 1.16111e-15 0)
(3 1.26393e-15 0)
(3 8.30884e-16 0)
(3 1.25871e-16 0)
(3 -1.10466e-15 0)
(3 -8.9734e-16 0)
(3 -2.35349e-16 0)
(3 1.17728e-15 0)
(3 1.09873e-15 0)
(3 8.70607e-16 0)
(3 6.4121e-16 0)
(3 -2.93426e-16 0)
(3 -9.43991e-16 0)
(3 -2.21693e-15 0)
(3 -2.67152e-15 0)
(3 -2.68945e-15 0)
(3 -2.27877e-15 0)
(3 -2.52594e-15 0)
(3 -2.73497e-15 0)
(3 -2.60536e-15 0)
(3 -2.69295e-15 0)
(3 -2.5962e-15 0)
(3 6.80616e-13 0)
(3 1.7528e-09 0)
(3 2.16316e-06 0)
(2.99986 0.000300783 0)
(2.98866 0.022302 0)
(2.88508 0.189167 0)
(2.63044 0.558806 0)
(2.3259 0.86145 0)
(2.21447 0.892224 0)
(2.19653 0.888686 0)
(2.18585 0.896179 0)
(2.18948 0.899541 0)
(2.20335 0.89817 0)
(2.21545 0.895492 0)
(2.22675 0.88678 0)
(2.23819 0.866057 0)
(2.2487 0.841247 0)
(2.25779 0.830808 0)
(2.26683 0.836294 0)
(2.27271 0.843767 0)
(2.27794 0.840264 0)
(2.29181 0.82595 0)
(2.30601 0.808035 0)
(2.31406 0.790528 0)
(2.31548 0.779973 0)
(2.31561 0.775951 0)
(2.32271 0.77487 0)
(2.33411 0.775513 0)
(2.34484 0.768534 0)
(2.35823 0.755095 0)
(2.36844 0.740708 0)
(2.373 0.723186 0)
(2.37484 0.712061 0)
(2.37862 0.711364 0)
(2.38653 0.712898 0)
(2.39473 0.718267 0)
(2.39958 0.719341 0)
(2.41018 0.703099 0)
(2.42871 0.675474 0)
(2.44044 0.646125 0)
(2.44507 0.630538 0)
(2.4448 0.630769 0)
(2.44023 0.649888 0)
(2.43066 0.667666 0)
(2.4327 0.66296 0)
(2.45139 0.642624 0)
(2.47543 0.616769 0)
(2.49096 0.593178 0)
(2.50116 0.577066 0)
(2.50007 0.576923 0)
(2.49684 0.584995 0)
(2.49871 0.585079 0)
(2.50144 0.581022 0)
(2.49848 0.582072 0)
(2.49696 0.577882 0)
(2.50898 0.554403 0)
(2.52645 0.527286 0)
(2.53888 0.512012 0)
(2.54622 0.505149 0)
(2.54852 0.504927 0)
(2.5471 0.511375 0)
(3 1.80468e-15 0)
(3 1.99321e-15 0)
(3 1.88961e-15 0)
(3 1.85716e-15 0)
(3 1.48384e-15 0)
(3 1.82519e-15 0)
(3 1.82297e-15 0)
(3 -4.3928e-17 0)
(3 -1.72806e-15 0)
(3 -2.03303e-15 0)
(3 -1.94348e-15 0)
(3 -6.7124e-16 0)
(3 1.0488e-15 0)
(3 2.40661e-16 0)
(3 -9.55182e-17 0)
(3 -5.55085e-16 0)
(3 -1.22564e-15 0)
(3 -1.81807e-15 0)
(3 -1.81972e-15 0)
(3 -1.61995e-15 0)
(3 -1.64487e-15 0)
(3 -1.52514e-15 0)
(3 -1.65789e-15 0)
(3 -1.44815e-15 0)
(3 -1.3877e-15 0)
(3 -1.38995e-15 0)
(3 -2.16508e-15 0)
(3 -2.132e-15 0)
(3 7.64378e-13 0)
(3 3.75068e-09 0)
(3 1.68952e-06 0)
(2.99983 0.000375192 0)
(2.99562 0.0115835 0)
(2.91873 0.142416 0)
(2.74697 0.45839 0)
(2.28391 0.860691 0)
(2.16975 0.932277 0)
(2.18227 0.900012 0)
(2.20579 0.896134 0)
(2.21523 0.897019 0)
(2.23019 0.896439 0)
(2.23178 0.887646 0)
(2.23629 0.869415 0)
(2.24358 0.853524 0)
(2.25215 0.847124 0)