/*--------------------------------*- C++ -*----------------------------------*\
  =========                 |
  \\      /  F ield         | OpenFOAM: The Open Source CFD Toolbox
   \\    /   O peration     | Website:  https://openfoam.org
    \\  /    A nd           | Version:  7
     \\/     M anipulation  |
\*---------------------------------------------------------------------------*/
FoamFile
{
    version     2.0;
    format      ascii;
    class       volVectorField;
    location    "1.2";
    object      U;
}
// * * * * * * * * * * * * * * * * * * * * * * * * * * * * * * * * * * * * * //

dimensions      [0 1 -1 0 0 0 0];

internalField   nonuniform List<vector> 
16512
(
(3 -6.47122e-17 0)
(3 -1.24476e-17 0)
(3 -2.54093e-17 0)
(3 -3.35056e-16 0)
(3 -5.03006e-16 0)
(3 -8.86153e-16 0)
(3 -1.32e-15 0)
(3 -1.48665e-15 0)
(3 -1.60278e-15 0)
(3 -1.38234e-15 0)
(3 -2.40177e-15 0)
(3 -2.02692e-15 0)
(3 -1.5283e-15 0)
(3 -8.19195e-16 0)
(3 -6.69317e-16 0)
(3 -8.61101e-16 0)
(3 -1.0919e-15 0)
(3 -6.00298e-16 0)
(3 -3.27379e-17 0)
(3 9.15473e-17 0)
(3 -4.4862e-16 0)
(3 -8.3406e-16 0)
(3 -7.02234e-16 0)
(3 -5.5358e-16 0)
(3 -7.38813e-16 0)
(3 -1.19566e-15 0)
(3 -1.29434e-15 0)
(3 -8.60888e-16 0)
(3 1.62368e-16 0)
(3 1.06364e-15 0)
(3 1.08464e-16 0)
(3 -2.09692e-16 0)
(3 -6.2643e-16 0)
(3 -6.45732e-16 0)
(3 -5.65392e-16 0)
(3 -5.72558e-17 0)
(1.21094 0.0156494 0)
(0.726472 0.0153252 0)
(0.669625 0.0217922 0)
(0.613421 0.0241602 0)
(0.555127 0.0258311 0)
(0.495349 0.0274097 0)
(0.433106 0.0291924 0)
(0.367534 0.0313662 0)
(0.297585 0.0341488 0)
(0.221153 0.0381777 0)
(0.137496 0.0409815 0)
(0.0508578 0.0456593 0)
(3 -2.53502e-16 0)
(3 -5.66335e-16 0)
(3 -9.13447e-16 0)
(3 -8.71964e-16 0)
(3 -1.09425e-15 0)
(3 -1.28483e-15 0)
(3 -1.84893e-15 0)
(3 -1.50945e-15 0)
(3 -1.45557e-15 0)
(3 -1.16097e-15 0)
(3 -1.48437e-15 0)
(3 -1.62795e-15 0)
(3 -1.51045e-15 0)
(3 -6.22115e-16 0)
(3 -4.32311e-16 0)
(3 -5.55022e-16 0)
(3 -2.51634e-16 0)
(3 1.11563e-15 0)
(3 9.84764e-16 0)
(3 -5.37984e-16 0)
(3 -2.01088e-15 0)
(3 -2.41862e-15 0)
(3 -1.38677e-15 0)
(3 8.68778e-18 0)
(3 -8.40423e-16 0)
(3 -1.25909e-15 0)
(3 -1.35307e-15 0)
(3 -7.24644e-16 0)
(3 1.11724e-15 0)
(3 1.30043e-15 0)
(3 1.08777e-15 0)
(3 -1.10161e-16 0)
(3 -2.70426e-16 0)
(3 2.63763e-16 0)
(3 8.14659e-16 0)
(3 2.07911e-15 0)
(1.23729 0.0719984 0)
(0.720545 0.0618115 0)
(0.657097 0.0677937 0)
(0.600034 0.0735729 0)
(0.540846 0.077776 0)
(0.48087 0.0823938 0)
(0.419034 0.0880388 0)
(0.354547 0.0952898 0)
(0.286426 0.104365 0)
(0.21299 0.117409 0)
(0.132129 0.126843 0)
(0.0492491 0.140911 0)
(3 5.57155e-18 0)
(3 -2.61371e-16 0)
(3 -4.56944e-16 0)
(3 -7.01517e-17 0)
(3 7.94539e-17 0)
(3 3.60577e-16 0)
(3 7.3672e-17 0)
(3 2.78392e-16 0)
(3 -2.3822e-16 0)
(3 -6.90765e-16 0)
(3 -1.06046e-15 0)
(3 -1.8093e-15 0)
(3 -1.49196e-15 0)
(3 -1.26541e-15 0)
(3 -8.8331e-16 0)
(3 -1.2072e-15 0)
(3 -1.00818e-15 0)
(3 -6.86246e-16 0)
(3 -5.17407e-16 0)
(3 -1.06782e-15 0)
(3 -1.81864e-15 0)
(3 -1.87939e-15 0)
(3 -1.41139e-15 0)
(3 -9.42367e-16 0)
(3 -1.1742e-15 0)
(3 -1.304e-15 0)
(3 -1.13018e-15 0)
(3 -6.18743e-16 0)
(3 3.85734e-16 0)
(3 1.07899e-15 0)
(3 1.43998e-15 0)
(3 -1.26614e-17 0)
(3 -5.92803e-16 0)
(3 1.69208e-16 0)
(3 8.84246e-16 0)
(3 -9.26413e-17 0)
(1.31774 0.126515 0)
(0.731933 0.108997 0)
(0.661683 0.116622 0)
(0.603022 0.125529 0)
(0.541801 0.13218 0)
(0.48018 0.139378 0)
(0.416763 0.148009 0)
(0.350801 0.15919 0)
(0.281376 0.172806 0)
(0.208397 0.193433 0)
(0.127807 0.208655 0)
(0.0481369 0.231045 0)
(3 5.50117e-16 0)
(3 9.05018e-16 0)
(3 8.70982e-16 0)
(3 2.92117e-16 0)
(3 2.23083e-16 0)
(3 3.65052e-17 0)
(3 -6.00129e-17 0)
(3 -7.46282e-16 0)
(3 -9.11401e-16 0)
(3 -1.08894e-15 0)
(3 -1.17121e-15 0)
(3 -8.22999e-16 0)
(3 4.9539e-17 0)
(3 -2.48292e-16 0)
(3 -8.72749e-16 0)
(3 -1.5896e-15 0)
(3 -1.64313e-15 0)
(3 -1.3617e-15 0)
(3 -1.14826e-15 0)
(3 -1.03409e-15 0)
(3 -6.14533e-16 0)
(3 -6.27822e-16 0)
(3 -7.25106e-16 0)
(3 -1.1541e-15 0)
(3 -1.51757e-15 0)
(3 -2.03782e-15 0)
(3 -1.76718e-15 0)
(3 -1.77385e-15 0)
(3 -1.27041e-15 0)
(3 -3.57922e-16 0)
(3 -4.47261e-16 0)
(3 -2.77834e-16 0)
(3 -3.11372e-16 0)
(3 -5.98495e-16 0)
(3 4.58962e-16 0)
(3 1.87761e-15 0)
(1.44681 0.178117 0)
(0.748056 0.159584 0)
(0.668936 0.166731 0)
(0.610907 0.178242 0)
(0.549592 0.187453 0)
(0.487849 0.197947 0)
(0.423444 0.21071 0)
(0.355536 0.227261 0)
(0.283162 0.245661 0)
(0.208749 0.273082 0)
(0.126619 0.293386 0)
(0.0461257 0.320491 0)
(3 -2.49909e-17 0)
(3 1.49928e-16 0)
(3 4.39474e-16 0)
(3 -2.76356e-17 0)
(3 -7.25899e-16 0)
(3 -1.33453e-15 0)
(3 -1.05505e-15 0)
(3 -1.29391e-15 0)
(3 -1.26325e-15 0)
(3 -9.5237e-16 0)
(3 -8.46734e-16 0)
(3 1.45197e-16 0)
(3 4.69298e-16 0)
(3 3.50203e-16 0)
(3 -8.60311e-17 0)
(3 2.74588e-17 0)
(3 -2.52053e-16 0)
(3 1.97901e-17 0)
(3 -1.24412e-15 0)
(3 -1.7572e-15 0)
(3 -1.42263e-15 0)
(3 -7.70774e-16 0)
(3 -1.12377e-15 0)
(3 -1.69277e-15 0)
(3 -1.75215e-15 0)
(3 -2.41166e-15 0)
(3 -2.99095e-15 0)
(3 -3.28949e-15 0)
(3 -3.73196e-15 0)
(3 -3.09554e-15 0)
(3 -1.93184e-15 0)
(3 3.62975e-16 0)
(3 1.2896e-15 0)
(3 5.20937e-16 0)
(3 1.67339e-15 0)
(3 -2.06574e-15 0)
(1.63694 0.225737 0)
(0.77158 0.214766 0)
(0.678157 0.217358 0)
(0.622456 0.230092 0)
(0.563918 0.241242 0)
(0.506036 0.254963 0)
(0.445621 0.272271 0)
(0.38154 0.295252 0)
(0.310632 0.319149 0)
(0.235945 0.354034 0)
(0.147051 0.382648 0)
(0.0560336 0.417108 0)
(3 -9.26778e-18 0)
(3 -1.72231e-17 0)
(3 5.93848e-17 0)
(3 -1.58158e-16 0)
(3 -9.92362e-16 0)
(3 -1.41281e-15 0)
(3 -1.32487e-15 0)
(3 -7.97372e-16 0)
(3 -4.75095e-16 0)
(3 -3.29373e-16 0)
(3 -3.03492e-16 0)
(3 -1.06441e-16 0)
(3 -2.08462e-16 0)
(3 1.14571e-15 0)
(3 1.61659e-15 0)
(3 2.06771e-15 0)
(3 -1.60251e-16 0)
(3 -1.36487e-15 0)
(3 -2.36839e-15 0)
(3 -1.64489e-15 0)
(3 -1.28496e-15 0)
(3 -8.02638e-16 0)
(3 -9.80921e-16 0)
(3 -1.12186e-15 0)
(3 -1.48422e-15 0)
(3 -2.1172e-15 0)
(3 -2.82935e-15 0)
(3 -2.80226e-15 0)
(3 -2.99358e-15 0)
(3 -2.68378e-15 0)
(3 -1.33714e-15 0)
(3 -2.18377e-16 0)
(3 4.9901e-16 0)
(3 1.22136e-15 0)
(3 1.5706e-15 0)
(3 -2.33877e-15 0)
(1.89734 0.270744 0)
(0.80499 0.279042 0)
(0.685196 0.269739 0)
(0.628073 0.282213 0)
(0.569278 0.294688 0)
(0.513975 0.311008 0)
(0.458126 0.332499 0)
(0.400041 0.363385 0)
(0.330564 0.397591 0)
(0.254159 0.446175 0)
(0.159132 0.492409 0)
(0.0548064 0.535102 0)
(3 -2.19247e-17 0)
(3 -8.7106e-17 0)
(3 -7.81625e-16 0)
(3 -8.85957e-16 0)
(3 -5.79031e-16 0)
(3 -1.45029e-15 0)
(3 -2.26563e-15 0)
(3 -1.60486e-15 0)
(3 -3.22848e-16 0)
(3 -1.31848e-16 0)
(3 1.41337e-16 0)
(3 3.8976e-17 0)
(3 2.32234e-16 0)
(3 8.72926e-16 0)
(3 9.70932e-16 0)
(3 1.18973e-15 0)
(3 -9.35378e-16 0)
(3 -2.25497e-15 0)
(3 -1.94659e-15 0)
(3 -1.46727e-15 0)
(3 -1.53665e-15 0)
(3 -2.13797e-15 0)
(3 -2.59115e-15 0)
(3 -1.94218e-15 0)
(3 -1.435e-15 0)
(3 -1.21752e-15 0)
(3 -3.51399e-16 0)
(3 -2.19369e-16 0)
(3 -3.53023e-16 0)
(3 -6.34528e-16 0)
(3 -7.30057e-16 0)
(3 -1.45257e-15 0)
(3 -9.58926e-16 0)
(3 1.97248e-17 0)
(3 2.76514e-16 0)
(3 -1.94308e-16 0)
(2.25398 0.303197 0)
(0.861483 0.356867 0)
(0.707703 0.329392 0)
(0.65544 0.342148 0)
(0.598443 0.352702 0)
(0.543869 0.368096 0)
(0.489373 0.390631 0)
(0.435747 0.428828 0)
(0.376434 0.47507 0)
(0.311181 0.535841 0)
(0.225295 0.601107 0)
(0.0989476 0.673682 0)
(3 -1.29433e-16 0)
(3 -4.64391e-16 0)
(3 -5.2299e-16 0)
(3 -1.75357e-16 0)
(3 4.75989e-16 0)
(3 3.19462e-16 0)
(3 -2.81832e-16 0)
(3 -7.81526e-16 0)
(3 -9.35709e-16 0)
(3 -7.69976e-16 0)
(3 -2.48931e-16 0)
(3 -1.44961e-16 0)
(3 -7.70921e-16 0)
(3 -1.58053e-15 0)
(3 -1.86384e-15 0)
(3 -1.22193e-15 0)
(3 -1.0219e-15 0)
(3 -8.88312e-16 0)
(3 -4.06829e-16 0)
(3 -8.34503e-16 0)
(3 -1.51314e-15 0)
(3 -2.64931e-15 0)
(3 -4.51329e-15 0)
(3 -4.45401e-15 0)
(3 -1.62965e-15 0)
(3 2.13752e-15 0)
(3 3.02927e-15 0)
(3 2.13054e-15 0)
(3 1.55768e-15 0)
(3 1.01385e-15 0)
(3 6.13549e-16 0)
(3 -5.62778e-16 0)
(3 -8.4861e-16 0)
(3 -1.2138e-15 0)
(3 -1.21096e-15 0)
(3 -1.18042e-15 0)
(2.75565 0.241908 0)
(0.994334 0.43101 0)
(0.78819 0.364888 0)
(0.738134 0.380276 0)
(0.673863 0.401912 0)
(0.612286 0.423479 0)
(0.551141 0.448439 0)
(0.499394 0.49024 0)
(0.444876 0.543294 0)
(0.383829 0.629194 0)
(0.270292 0.759613 0)
(0.14968 0.933401 0)
(3 -2.65299e-16 0)
(3 -4.30872e-16 0)
(3 -1.85903e-16 0)
(3 1.91522e-16 0)
(3 3.14228e-16 0)
(3 6.9887e-16 0)
(3 7.52567e-16 0)
(3 2.73034e-16 0)
(3 -6.54938e-16 0)
(3 -9.43462e-16 0)
(3 -7.64721e-16 0)
(3 -6.46444e-17 0)
(3 -1.49954e-17 0)
(3 -5.18619e-16 0)
(3 -6.00668e-16 0)
(3 -9.11503e-16 0)
(3 -1.01358e-15 0)
(3 -1.48164e-15 0)
(3 -1.83214e-15 0)
(3 -1.87029e-15 0)
(3 -1.62126e-15 0)
(3 -1.63661e-15 0)
(3 -2.03123e-15 0)
(3 -3.27615e-15 0)
(3 -9.77175e-16 0)
(3 2.33793e-16 0)
(3 1.89422e-15 0)
(3 2.66257e-15 0)
(3 2.47868e-15 0)
(3 2.20429e-15 0)
(3 1.29198e-15 0)
(3 7.67927e-16 0)
(3 -4.81272e-16 0)
(3 -1.1119e-15 0)
(3 -9.61164e-16 0)
(3 -7.34337e-16 0)
(3.06426 0.0299806 0)
(1.19883 0.433912 0)
(0.851627 0.400331 0)
(0.809762 0.438816 0)
(0.75676 0.460546 0)
(0.698427 0.483523 0)
(0.63765 0.507027 0)
(0.58526 0.549033 0)
(0.532057 0.613519 0)
(0.492368 0.736059 0)
(0.461412 0.918762 0)
(0.578242 1.20708 0)
(3 -1.12309e-16 0)
(3 -3.30789e-16 0)
(3 -6.44191e-17 0)
(3 -1.96773e-17 0)
(3 1.61034e-16 0)
(3 1.24119e-16 0)
(3 4.44093e-16 0)
(3 4.0404e-16 0)
(3 -7.01794e-17 0)
(3 -6.30046e-16 0)
(3 -8.03834e-16 0)
(3 -3.66806e-16 0)
(3 -2.44391e-17 0)
(3 -7.24053e-16 0)
(3 -1.21959e-15 0)
(3 -1.66122e-15 0)
(3 -2.12699e-15 0)
(3 -3.08052e-15 0)
(3 -4.31444e-15 0)
(3 -4.21068e-15 0)
(3 -2.88833e-15 0)
(3 -9.09572e-16 0)
(3 9.22385e-16 0)
(3 7.45526e-16 0)
(3 8.73234e-16 0)
(3 7.1696e-16 0)
(3 5.74875e-16 0)
(3 6.39894e-16 0)
(3 6.95809e-16 0)
(3 1.1015e-15 0)
(3 1.27258e-15 0)
(3 1.43738e-15 0)
(3 1.43981e-15 0)
(3 8.86424e-16 0)
(3 4.79396e-16 0)
(3 -2.81742e-16 0)
(3.00541 5.29426e-05 0)
(1.40851 0.431183 0)
(0.849929 0.459463 0)
(0.804631 0.489403 0)
(0.767299 0.516359 0)
(0.734852 0.54855 0)
(0.698183 0.577416 0)
(0.661145 0.618844 0)
(0.63189 0.686775 0)
(0.625128 0.809866 0)
(0.685135 0.958257 0)
(0.968866 1.13325 0)
(3 1.8607e-16 0)
(3 1.09825e-16 0)
(3 -2.13535e-16 0)
(3 3.91697e-16 0)
(3 6.17758e-16 0)
(3 5.53845e-16 0)
(3 3.36118e-16 0)
(3 -1.08479e-17 0)
(3 -3.33358e-16 0)
(3 5.42665e-18 0)
(3 -1.1704e-15 0)
(3 -2.37015e-15 0)
(3 -2.76169e-15 0)
(3 -3.09463e-15 0)
(3 -3.12434e-15 0)
(3 -2.24424e-15 0)
(3 -1.79356e-15 0)
(3 -2.90117e-15 0)
(3 -2.84893e-15 0)
(3 -1.94986e-15 0)
(3 -1.67671e-15 0)
(3 -1.18029e-15 0)
(3 2.37468e-15 0)
(3 3.22412e-15 0)
(3 3.54366e-15 0)
(3 1.36689e-15 0)
(3 5.14603e-17 0)
(3 -2.11407e-16 0)
(3 4.39979e-16 0)
(3 1.39706e-15 0)
(3 2.98128e-15 0)
(3 2.24106e-15 0)
(3 2.51408e-15 0)
(3 2.37306e-15 0)
(3 1.39319e-15 0)
(3 -5.21924e-16 0)
(3.00003 -1.42843e-06 0)
(1.85889 0.475891 0)
(0.887281 0.525594 0)
(0.808546 0.521103 0)
(0.788543 0.547286 0)
(0.770483 0.581429 0)
(0.758673 0.618952 0)
(0.740944 0.662722 0)
(0.739262 0.730449 0)
(0.760813 0.836429 0)
(0.87711 0.958381 0)
(1.18449 1.06748 0)
(3 -8.02288e-17 0)
(3 1.60616e-16 0)
(3 7.90938e-17 0)
(3 2.40227e-16 0)
(3 3.9872e-16 0)
(3 9.92563e-16 0)
(3 6.60832e-16 0)
(3 6.54012e-16 0)
(3 2.42295e-16 0)
(3 -2.5878e-16 0)
(3 -2.02771e-15 0)
(3 -2.90811e-15 0)
(3 -2.95552e-15 0)
(3 -1.94215e-15 0)
(3 -9.19166e-16 0)
(3 -5.89664e-16 0)
(3 -1.26396e-16 0)
(3 -2.5026e-16 0)
(3 -4.25334e-16 0)
(3 -1.27206e-15 0)
(3 -1.878e-15 0)
(3 -1.61663e-15 0)
(3 1.2389e-15 0)
(3 2.07888e-15 0)
(3 1.7031e-15 0)
(3 1.26894e-15 0)
(3 1.37141e-16 0)
(3 4.67138e-16 0)
(3 1.09082e-15 0)
(3 1.2263e-15 0)
(3 1.79558e-15 0)
(3 2.60079e-15 0)
(3 4.01566e-15 0)
(3 4.60687e-15 0)
(3 3.84223e-15 0)
(3 3.65721e-15 0)
(3 -1.44419e-06 0)
(2.60287 0.36991 0)
(1.03484 0.606225 0)
(0.870024 0.553878 0)
(0.836571 0.572013 0)
(0.818235 0.605363 0)
(0.81783 0.648515 0)
(0.817224 0.697764 0)
(0.835203 0.762486 0)
(0.883156 0.845432 0)
(1.01887 0.938108 0)
(1.27508 1.00185 0)
(3 8.61301e-17 0)
(3 4.90118e-16 0)
(3 8.08325e-16 0)
(3 3.52487e-16 0)
(3 -7.82186e-17 0)
(3 -2.49046e-16 0)
(3 -6.28356e-17 0)
(3 5.0001e-16 0)
(3 3.22298e-16 0)
(3 -5.19445e-16 0)
(3 -8.9884e-16 0)
(3 -9.37555e-16 0)
(3 -1.40694e-16 0)
(3 -2.07151e-16 0)
(3 1.78848e-17 0)
(3 3.80309e-16 0)
(3 5.72388e-16 0)
(3 1.01802e-15 0)
(3 9.60661e-16 0)
(3 -1.04841e-15 0)
(3 -1.83688e-15 0)
(3 -1.36336e-15 0)
(3 -4.02586e-16 0)
(3 -8.87704e-17 0)
(3 -7.09482e-16 0)
(3 -8.80014e-16 0)
(3 1.31094e-16 0)
(3 4.43365e-16 0)
(3 4.81512e-16 0)
(3 3.29606e-16 0)
(3 3.32584e-17 0)
(3 8.5154e-16 0)
(3 1.91922e-15 0)
(3 2.24299e-15 0)
(3 2.21687e-15 0)
(3 2.56027e-15 0)
(3 -2.86445e-07 0)
(3.08382 0.0469183 0)
(1.357 0.611184 0)
(0.974582 0.597987 0)
(0.922029 0.605113 0)
(0.888144 0.630476 0)
(0.881765 0.670292 0)
(0.889158 0.718324 0)
(0.916184 0.777701 0)
(0.983681 0.847942 0)
(1.12154 0.915649 0)
(1.3308 0.955709 0)
(3 9.97886e-17 0)
(3 9.54307e-17 0)
(3 -2.03432e-16 0)
(3 -5.07678e-16 0)
(3 -7.68554e-16 0)
(3 -8.00757e-16 0)
(3 -8.32038e-16 0)
(3 -1.08765e-15 0)
(3 -8.86186e-16 0)
(3 -7.95068e-16 0)
(3 -5.89408e-16 0)
(3 -1.29257e-16 0)
(3 8.42592e-16 0)
(3 8.50485e-16 0)
(3 6.46543e-16 0)
(3 -1.8469e-16 0)
(3 1.81306e-16 0)
(3 1.07906e-15 0)
(3 1.05241e-15 0)
(3 7.75897e-16 0)
(3 3.23767e-16 0)
(3 6.37999e-16 0)
(3 8.03875e-16 0)
(3 6.05743e-16 0)
(3 -9.7761e-16 0)
(3 -1.29652e-15 0)
(3 -7.61032e-16 0)
(3 -3.64444e-16 0)
(3 -1.83056e-17 0)
(3 4.15045e-16 0)
(3 -7.57418e-16 0)
(3 -1.75859e-15 0)
(3 -1.65218e-15 0)
(3 -1.33263e-15 0)
(3 -2.49371e-16 0)
(3 2.02915e-15 0)
(3 -2.66324e-08 0)
(3.00837 0.000144531 0)
(1.73621 0.577326 0)
(1.00656 0.674359 0)
(0.958918 0.669951 0)
(0.93844 0.679417 0)
(0.935962 0.705396 0)
(0.950649 0.741667 0)
(0.985568 0.784739 0)
(1.05964 0.837616 0)
(1.18513 0.884082 0)
(1.35241 0.906775 0)
(3 -3.35314e-17 0)
(3 5.39596e-17 0)
(3 -1.78274e-16 0)
(3 -7.46781e-16 0)
(3 -4.32362e-16 0)
(3 -2.67138e-16 0)
(3 -1.26639e-15 0)
(3 -1.10148e-15 0)
(3 -6.11026e-16 0)
(3 -1.9379e-16 0)
(3 -7.39854e-16 0)
(3 -4.31239e-16 0)
(3 1.14482e-15 0)
(3 1.7676e-15 0)
(3 1.27694e-15 0)
(3 -2.96196e-16 0)
(3 -7.60257e-16 0)
(3 -6.38716e-16 0)
(3 4.58067e-16 0)
(3 5.6385e-16 0)
(3 1.54596e-15 0)
(3 2.28658e-15 0)
(3 1.66037e-15 0)
(3 9.6568e-16 0)
(3 -7.00894e-17 0)
(3 -1.39835e-15 0)
(3 -2.11146e-15 0)
(3 -2.55598e-15 0)
(3 -2.04949e-15 0)
(3 -2.82025e-15 0)
(3 -1.92087e-15 0)
(3 -8.71698e-16 0)
(3 -1.12001e-15 0)
(3 -1.08622e-15 0)
(3 -3.43837e-16 0)
(3 7.81318e-16 0)
(3 -7.31129e-10 0)
(3.00005 -1.38974e-06 0)
(2.58948 0.392377 0)
(1.14279 0.704914 0)
(1.01143 0.707647 0)
(1.00236 0.706406 0)
(0.997696 0.72277 0)
(1.01059 0.754098 0)
(1.04936 0.789959 0)
(1.12402 0.830554 0)
(1.23341 0.863578 0)
(1.37088 0.878956 0)
(3 -1.2109e-16 0)
(3 -3.2442e-16 0)
(3 1.56206e-16 0)
(3 4.09502e-16 0)
(3 1.11616e-16 0)
(3 -2.51228e-16 0)
(3 -3.98323e-17 0)
(3 8.52288e-16 0)
(3 8.63921e-16 0)
(3 1.17754e-15 0)
(3 1.42856e-15 0)
(3 1.80283e-15 0)
(3 2.26503e-15 0)
(3 2.54978e-15 0)
(3 2.2967e-15 0)
(3 2.22427e-15 0)
(3 8.60915e-16 0)
(3 4.50126e-16 0)
(3 4.27129e-16 0)
(3 7.76136e-16 0)
(3 1.45688e-15 0)
(3 1.95549e-15 0)
(3 1.25106e-15 0)
(3 -6.81163e-16 0)
(3 -1.08628e-15 0)
(3 -1.52849e-15 0)
(3 -1.8992e-15 0)
(3 -1.69572e-15 0)
(3 -7.16042e-16 0)
(3 -7.74977e-16 0)
(3 -7.42871e-16 0)
(3 -6.54145e-16 0)
(3 -9.70898e-16 0)
(3 -1.2603e-15 0)
(3 -1.37514e-15 0)
(3 -2.86218e-16 0)
(3 -1.50964e-12 0)
(3.00001 -2.34987e-06 0)
(3.07067 0.0397606 0)
(1.47489 0.693453 0)
(1.07939 0.739786 0)
(1.07274 0.737876 0)
(1.05973 0.754251 0)
(1.07109 0.76798 0)
(1.10699 0.790006 0)
(1.17593 0.8182 0)
(1.26857 0.84004 0)
(1.38188 0.849514 0)
(3 -1.95017e-17 0)
(3 -2.85682e-16 0)
(3 -6.20699e-17 0)
(3 -1.54307e-17 0)
(3 -1.18236e-16 0)
(3 1.36061e-16 0)
(3 5.9006e-16 0)
(3 6.28906e-16 0)
(3 4.62884e-16 0)
(3 2.15888e-16 0)
(3 9.01163e-16 0)
(3 1.95551e-15 0)
(3 1.83617e-15 0)
(3 1.60385e-15 0)
(3 1.41582e-15 0)
(3 2.10084e-15 0)
(3 2.09111e-15 0)
(3 8.96845e-16 0)
(3 2.85537e-16 0)
(3 7.24169e-17 0)
(3 -3.57442e-16 0)
(3 -3.77027e-16 0)
(3 5.04412e-16 0)
(3 -6.10217e-17 0)
(3 -3.00778e-16 0)
(3 -6.27937e-16 0)
(3 -8.13161e-16 0)
(3 -1.16249e-16 0)
(3 2.61855e-16 0)
(3 5.60073e-16 0)
(3 3.97878e-16 0)
(3 2.43858e-16 0)
(3 4.08815e-16 0)
(3 5.02378e-17 0)
(3 -4.41215e-16 0)
(3 -5.91262e-17 0)
(3 -2.97022e-15 0)
(3 -4.8701e-07 0)
(3.00526 0.000337115 0)
(2.11876 0.624464 0)
(1.15019 0.802486 0)
(1.11376 0.786628 0)
(1.11656 0.785389 0)
(1.12938 0.791077 0)
(1.16207 0.803628 0)
(1.22317 0.820241 0)
(1.30304 0.834154 0)
(1.39899 0.839151 0)
(3 -1.60238e-16 0)
(3 2.09314e-16 0)
(3 2.33257e-16 0)
(3 4.52911e-16 0)
(3 7.60681e-16 0)
(3 9.21642e-16 0)
(3 6.27524e-16 0)
(3 -3.53425e-16 0)
(3 -8.75109e-16 0)
(3 -6.94917e-16 0)
(3 -1.42403e-16 0)
(3 6.36228e-16 0)
(3 1.15039e-15 0)
(3 6.27567e-16 0)
(3 1.04762e-15 0)
(3 8.55117e-16 0)
(3 6.6719e-16 0)
(3 -2.23699e-16 0)
(3 -2.01767e-16 0)
(3 -5.74042e-16 0)
(3 -2.23232e-15 0)
(3 -2.36624e-15 0)
(3 -1.65386e-15 0)
(3 -9.92756e-16 0)
(3 7.60143e-16 0)
(3 1.56347e-15 0)
(3 2.24292e-15 0)
(3 2.3084e-15 0)
(3 1.25588e-15 0)
(3 1.06249e-15 0)
(3 3.49051e-16 0)
(3 4.75737e-16 0)
(3 7.09033e-16 0)
(3 5.43544e-16 0)
(3 4.63999e-16 0)
(3 -2.34785e-16 0)
(3 1.9467e-16 0)
(3 -3.95532e-08 0)
(3.00002 7.17016e-07 0)
(3.01574 0.158503 0)
(1.44839 0.778291 0)
(1.17261 0.786381 0)
(1.19012 0.793258 0)
(1.20058 0.801209 0)
(1.22787 0.809154 0)
(1.2764 0.818037 0)
(1.34171 0.826058 0)
(1.42286 0.828314 0)
(3 -9.18318e-17 0)
(3 4.14216e-16 0)
(3 4.51271e-16 0)
(3 9.38521e-16 0)
(3 1.12735e-15 0)
(3 5.58328e-16 0)
(3 4.16784e-16 0)
(3 1.96096e-16 0)
(3 -4.06181e-16 0)
(3 -1.27069e-16 0)
(3 3.53487e-16 0)
(3 3.50398e-17 0)
(3 -8.39767e-17 0)
(3 6.81424e-17 0)
(3 5.05836e-16 0)
(3 5.42485e-16 0)
(3 4.94851e-16 0)
(3 4.58101e-17 0)
(3 -1.34027e-16 0)
(3 3.40311e-16 0)
(3 3.17145e-17 0)
(3 -1.49857e-16 0)
(3 -1.31358e-15 0)
(3 -1.94269e-15 0)
(3 7.31012e-16 0)
(3 1.9943e-15 0)
(3 1.82613e-15 0)
(3 1.25025e-15 0)
(3 9.33107e-16 0)
(3 8.77697e-16 0)
(3 -3.93141e-16 0)
(3 -1.38219e-15 0)
(3 -1.30653e-15 0)
(3 -4.22887e-16 0)
(3 2.59091e-18 0)
(3 6.61665e-16 0)
(3 7.13228e-16 0)
(3 -1.71237e-10 0)
(3 -7.90866e-07 0)
(3.02125 0.00304812 0)
(1.94291 0.707059 0)
(1.20747 0.837091 0)
(1.20427 0.831347 0)
(1.23629 0.834349 0)
(1.27232 0.840657 0)
(1.31818 0.84515 0)
(1.37517 0.845178 0)
(1.4433 0.841048 0)
(3 2.03413e-16 0)
(3 -4.66932e-18 0)
(3 -2.95444e-16 0)
(3 -4.0442e-16 0)
(3 -5.91456e-16 0)
(3 -8.71266e-16 0)
(3 -3.27689e-16 0)
(3 3.36168e-16 0)
(3 9.50758e-16 0)
(3 8.35502e-16 0)
(3 1.20268e-15 0)
(3 8.92873e-16 0)
(3 -5.41049e-16 0)
(3 -1.26951e-15 0)
(3 -6.91763e-16 0)
(3 8.09405e-16 0)
(3 1.49079e-15 0)
(3 1.00973e-15 0)
(3 1.03668e-15 0)
(3 8.14214e-16 0)
(3 5.31908e-16 0)
(3 3.13813e-16 0)
(3 -6.09999e-16 0)
(3 -4.23033e-16 0)
(3 -6.06115e-16 0)
(3 -8.49942e-16 0)
(3 -1.9172e-16 0)
(3 -1.50216e-16 0)
(3 1.30541e-17 0)
(3 -3.0277e-16 0)
(3 -7.86998e-16 0)
(3 -1.43093e-15 0)
(3 -1.65385e-15 0)
(3 -1.25241e-15 0)
(3 -1.55386e-15 0)
(3 -6.76226e-16 0)
(3 4.15264e-16 0)
(3 -2.98113e-13 0)
(3 -1.46223e-07 0)
(3.00018 4.13786e-05 0)
(2.92262 0.256828 0)
(1.46614 0.841407 0)
(1.23912 0.818755 0)
(1.2825 0.829968 0)
(1.31722 0.841201 0)
(1.36288 0.845773 0)
(1.41497 0.844095 0)
(1.47278 0.838775 0)
(3 1.03045e-16 0)
(3 -1.57994e-16 0)
(3 -6.91079e-16 0)
(3 -7.74927e-16 0)
(3 -2.08889e-16 0)
(3 3.62511e-16 0)
(3 5.55587e-16 0)
(3 8.32064e-16 0)
(3 8.85897e-16 0)
(3 1.17848e-15 0)
(3 3.68946e-16 0)
(3 3.14304e-16 0)
(3 4.42376e-17 0)
(3 -6.28582e-16 0)
(3 -4.47452e-16 0)
(3 -1.08115e-17 0)
(3 2.88114e-16 0)
(3 1.45814e-15 0)
(3 2.41311e-15 0)
(3 2.79285e-16 0)
(3 -5.77502e-16 0)
(3 -7.07059e-16 0)
(3 -3.56807e-16 0)
(3 -1.6515e-16 0)
(3 -1.15266e-15 0)
(3 -1.96923e-15 0)
(3 -1.76927e-15 0)
(3 -1.00973e-15 0)
(3 -7.0701e-16 0)
(3 -1.36325e-15 0)
(3 -1.23781e-15 0)
(3 -5.82634e-16 0)
(3 -9.7087e-17 0)
(3 -9.33108e-16 0)
(3 -1.39296e-15 0)
(3 -1.9392e-15 0)
(3 -9.01201e-16 0)
(3 -1.38482e-15 0)
(3 -4.51931e-09 0)
(3 -2.01032e-07 0)
(3.02968 0.0084524 0)
(1.97133 0.735397 0)
(1.2928 0.868295 0)
(1.29766 0.864759 0)
(1.33625 0.866085 0)
(1.38172 0.867044 0)
(1.43239 0.865016 0)
(1.48679 0.859125 0)
(3 2.41803e-16 0)
(3 1.99934e-16 0)
(3 5.20477e-16 0)
(3 1.86052e-16 0)
(3 6.98842e-17 0)
(3 -6.29237e-16 0)
(3 7.60879e-17 0)
(3 -1.83982e-16 0)
(3 1.96956e-16 0)
(3 1.03467e-16 0)
(3 -9.50573e-16 0)
(3 -1.39816e-15 0)
(3 -1.18695e-15 0)
(3 -1.13273e-15 0)
(3 -1.43327e-15 0)
(3 -1.51023e-15 0)
(3 -1.22654e-15 0)
(3 3.32865e-16 0)
(3 8.37386e-16 0)
(3 3.58123e-16 0)
(3 -1.94169e-16 0)
(3 -7.59241e-16 0)
(3 -7.7987e-16 0)
(3 -5.83431e-16 0)
(3 -1.27487e-16 0)
(3 -4.54742e-16 0)
(3 -1.43862e-15 0)
(3 -1.76529e-15 0)
(3 -1.76916e-15 0)
(3 -2.10327e-15 0)
(3 -1.98473e-15 0)
(3 -1.31019e-15 0)
(3 -1.12201e-15 0)
(3 -7.36698e-16 0)
(3 -1.11714e-15 0)
(3 -2.03419e-15 0)
(3 -2.735e-15 0)
(3 -6.02096e-16 0)
(3 -1.57768e-11 0)
(3 -5.77459e-08 0)
(3.00039 0.000192381 0)
(2.90381 0.265666 0)
(1.57089 0.886121 0)
(1.32908 0.858374 0)
(1.37063 0.859669 0)
(1.40805 0.861819 0)
(1.45452 0.861254 0)
(1.50665 0.856003 0)
(3 -2.48426e-17 0)
(3 -8.87952e-17 0)
(3 -3.28559e-16 0)
(3 -4.78993e-16 0)
(3 -1.40459e-15 0)
(3 -1.49219e-15 0)
(3 -1.20722e-15 0)
(3 -1.28678e-15 0)
(3 -6.72435e-16 0)
(3 -7.0947e-16 0)
(3 -9.4344e-16 0)
(3 -1.77294e-15 0)
(3 -2.32469e-15 0)
(3 -1.82117e-15 0)
(3 -1.92472e-15 0)
(3 -1.93615e-15 0)
(3 -1.17218e-15 0)
(3 -5.511e-17 0)
(3 -5.22972e-17 0)
(3 2.76336e-16 0)
(3 -2.3461e-16 0)
(3 -8.83559e-16 0)
(3 -1.47415e-15 0)
(3 -7.75186e-16 0)
(3 4.61249e-16 0)
(3 -2.35537e-16 0)
(3 -9.79034e-16 0)
(3 -2.05328e-15 0)
(3 -2.34574e-15 0)
(3 -2.11603e-15 0)
(3 -2.19406e-15 0)
(3 -2.15261e-15 0)
(3 -2.29571e-15 0)
(3 -2.20115e-15 0)
(3 -1.15755e-15 0)
(3 -6.62665e-16 0)
(3 -6.73824e-16 0)
(3 1.14945e-15 0)
(3 -4.24167e-15 0)
(3 -6.42036e-09 0)
(3 2.34552e-07 0)
(3.022 0.0115056 0)
(2.20149 0.720734 0)
(1.40351 0.903597 0)
(1.39317 0.895393 0)
(1.42854 0.886191 0)
(1.4672 0.880632 0)
(1.51441 0.871988 0)
(3 -1.60613e-16 0)
(3 -7.40966e-16 0)
(3 -1.13009e-15 0)
(3 -1.04711e-15 0)
(3 -1.04563e-15 0)
(3 -3.52164e-16 0)
(3 -3.44078e-16 0)
(3 3.18264e-17 0)
(3 -2.28311e-16 0)
(3 -1.34308e-16 0)
(3 -6.30703e-16 0)
(3 -1.52866e-15 0)
(3 -1.31646e-15 0)
(3 -6.63377e-16 0)
(3 -2.32995e-16 0)
(3 -3.72133e-16 0)
(3 -8.33523e-16 0)
(3 -1.05991e-15 0)
(3 -9.2091e-16 0)
(3 -1.25615e-15 0)
(3 -1.52608e-15 0)
(3 -2.2919e-15 0)
(3 -2.27535e-15 0)
(3 -2.37371e-15 0)
(3 -2.21587e-15 0)
(3 -1.68199e-15 0)
(3 -8.78901e-16 0)
(3 -1.1091e-15 0)
(3 -1.68819e-15 0)
(3 -2.32983e-15 0)
(3 -3.05996e-15 0)
(3 -2.94719e-15 0)
(3 -2.00299e-15 0)
(3 -1.95056e-15 0)
(3 -1.70594e-16 0)
(3 5.99589e-16 0)
(3 1.28444e-15 0)
(3 1.40376e-15 0)
(3 9.73236e-16 0)
(3 -3.07982e-10 0)
(3 -2.795e-10 0)
(3.00025 0.000294879 0)
(2.97197 0.178643 0)
(1.77115 0.870226 0)
(1.42686 0.904448 0)
(1.46862 0.894415 0)
(1.49795 0.884841 0)
(1.5365 0.873484 0)
(3 -9.2286e-17 0)
(3 -4.57504e-16 0)
(3 -2.27151e-16 0)
(3 -2.66545e-16 0)
(3 -2.01184e-16 0)
(3 -2.15477e-16 0)
(3 -1.40827e-16 0)
(3 -1.00363e-17 0)
(3 -3.83028e-16 0)
(3 -4.39163e-16 0)
(3 -7.72973e-16 0)
(3 -1.83148e-15 0)
(3 -2.18689e-16 0)
(3 8.18325e-16 0)
(3 1.14515e-15 0)
(3 7.7103e-16 0)
(3 3.92636e-16 0)
(3 2.72378e-16 0)
(3 -1.55156e-16 0)
(3 -1.16244e-15 0)
(3 -6.24836e-16 0)
(3 -5.97408e-17 0)
(3 2.76887e-16 0)
(3 9.65103e-17 0)
(3 2.85273e-16 0)
(3 -6.57131e-16 0)
(3 -8.02318e-16 0)
(3 -7.71212e-16 0)
(3 -1.55131e-15 0)
(3 -1.66261e-15 0)
(3 -2.05155e-15 0)
(3 -2.39975e-15 0)
(3 -2.20648e-15 0)
(3 -1.61535e-15 0)
(3 -1.21783e-15 0)
(3 -1.15754e-15 0)
(3 -8.8536e-16 0)
(3 -1.23383e-15 0)
(3 -1.33866e-15 0)
(3 -3.00953e-12 0)
(3 -9.29962e-11 0)
(3 4.83117e-07 0)
(3.00785 0.00909048 0)
(2.55907 0.564057 0)
(1.57423 0.949841 0)
(1.4888 0.92797 0)
(1.52084 0.912444 0)
(1.552 0.899223 0)
(3 1.3767e-17 0)
(3 2.9203e-17 0)
(3 2.01755e-16 0)
(3 2.86838e-18 0)
(3 2.56122e-16 0)
(3 1.19159e-16 0)
(3 -2.47083e-16 0)
(3 -6.74173e-16 0)
(3 -1.25956e-15 0)
(3 -1.7546e-15 0)
(3 -1.53541e-15 0)
(3 -1.35427e-15 0)
(3 6.75446e-17 0)
(3 3.9188e-16 0)
(3 5.36143e-17 0)
(3 3.63336e-16 0)
(3 4.24036e-16 0)
(3 7.87878e-16 0)
(3 9.44462e-16 0)
(3 1.31441e-15 0)
(3 1.93236e-15 0)
(3 2.97686e-15 0)
(3 3.78819e-15 0)
(3 3.01345e-15 0)
(3 1.56244e-15 0)
(3 -4.73536e-16 0)
(3 -9.61593e-16 0)
(3 -1.82144e-15 0)
(3 -2.0491e-15 0)
(3 -1.42474e-15 0)
(3 -1.24713e-15 0)
(3 -1.19995e-15 0)
(3 -1.65786e-16 0)
(3 1.72434e-17 0)
(3 -3.63343e-17 0)
(3 -4.79483e-16 0)
(3 -1.93598e-15 0)
(3 -3.23784e-15 0)
(3 -3.23293e-15 0)
(3 -1.01425e-14 0)
(3 -1.41516e-11 0)
(3 9.42627e-11 0)
(3.00003 0.000150316 0)
(3.01839 0.0688102 0)
(2.08071 0.798041 0)
(1.55876 0.935723 0)
(1.55901 0.926667 0)
(1.58743 0.908023 0)
(3 9.97473e-17 0)
(3 6.73898e-16 0)
(3 7.84397e-16 0)
(3 1.03174e-15 0)
(3 1.12441e-15 0)
(3 8.77478e-16 0)
(3 4.84747e-16 0)
(3 2.6053e-17 0)
(3 -2.27314e-16 0)
(3 -2.71135e-16 0)
(3 4.60925e-16 0)
(3 7.67495e-16 0)
(3 3.9375e-16 0)
(3 -3.00599e-16 0)
(3 -5.96999e-16 0)
(3 6.75765e-16 0)
(3 7.64908e-16 0)
(3 5.49581e-16 0)
(3 1.51276e-15 0)
(3 2.89086e-15 0)
(3 3.44591e-15 0)
(3 4.22115e-15 0)
(3 3.18747e-15 0)
(3 1.38658e-15 0)
(3 1.03854e-15 0)
(3 1.45119e-15 0)
(3 1.21979e-15 0)
(3 2.91161e-16 0)
(3 -2.93804e-16 0)
(3 -4.22561e-16 0)
(3 2.32965e-18 0)
(3 3.80677e-16 0)
(3 1.03442e-15 0)
(3 1.2914e-15 0)
(3 7.7714e-16 0)
(3 4.41173e-16 0)
(3 -2.01554e-16 0)
(3 -2.57786e-15 0)
(3 -3.1865e-15 0)
(3 -3.33371e-15 0)
(3 -9.44441e-13 0)
(3 -1.49223e-12 0)
(3 1.8504e-07 0)
(3.0013 0.00326568 0)
(2.84877 0.293636 0)
(1.83677 0.89238 0)
(1.58885 0.949321 0)
(1.61517 0.935719 0)
(3 -3.03912e-16 0)
(3 2.6374e-16 0)
(3 3.33293e-16 0)
(3 4.24856e-16 0)
(3 -2.04247e-17 0)
(3 9.1308e-17 0)
(3 -3.57435e-17 0)
(3 -3.24741e-16 0)
(3 -2.93066e-16 0)
(3 7.14039e-16 0)
(3 1.71462e-15 0)
(3 2.66091e-15 0)
(3 1.54822e-15 0)
(3 2.94563e-16 0)
(3 3.1153e-16 0)
(3 1.17527e-15 0)
(3 1.27044e-15 0)
(3 8.38474e-16 0)
(3 1.38414e-15 0)
(3 1.9978e-15 0)
(3 2.45993e-15 0)
(3 3.50151e-15 0)
(3 2.56986e-15 0)
(3 1.44138e-15 0)
(3 1.43633e-15 0)
(3 1.52657e-15 0)
(3 6.69028e-16 0)
(3 3.75236e-16 0)
(3 -1.49759e-16 0)
(3 -1.85192e-16 0)
(3 3.37421e-16 0)
(3 1.01147e-15 0)
(3 1.07435e-15 0)
(3 4.32659e-16 0)
(3 -1.34944e-16 0)
(3 -4.83866e-16 0)
(3 -7.63998e-16 0)
(3 -1.63302e-15 0)
(3 -3.15189e-15 0)
(3 -3.5235e-15 0)
(3 -2.30091e-14 0)
(3 -5.3427e-13 0)
(3 6.92122e-11 0)
(3 1.94804e-05 0)
(3.00451 0.0209031 0)
(2.51149 0.564799 0)
(1.73695 0.953654 0)
(1.62463 0.954096 0)
(3 -5.11997e-17 0)
(3 -7.28928e-17 0)
(3 -2.94096e-16 0)
(3 -5.01009e-16 0)
(3 -6.91157e-16 0)
(3 -9.29767e-16 0)
(3 -6.02605e-16 0)
(3 -1.71447e-16 0)
(3 -3.95727e-17 0)
(3 1.12544e-15 0)
(3 1.14122e-15 0)
(3 9.11829e-16 0)
(3 1.20038e-15 0)
(3 1.36667e-15 0)
(3 1.40965e-15 0)
(3 1.54309e-15 0)
(3 1.68607e-15 0)
(3 8.96093e-16 0)
(3 1.05379e-15 0)
(3 1.20541e-15 0)
(3 1.26893e-15 0)
(3 1.23384e-15 0)
(3 1.32612e-15 0)
(3 3.36706e-16 0)
(3 -3.42009e-16 0)
(3 -1.09429e-15 0)
(3 -2.22661e-15 0)
(3 -1.98741e-15 0)
(3 -1.16406e-15 0)
(3 4.88291e-16 0)
(3 1.2576e-15 0)
(3 8.13277e-16 0)
(3 2.57219e-16 0)
(3 -9.27365e-17 0)
(3 -5.20327e-16 0)
(3 -1.15217e-15 0)
(3 -1.37907e-15 0)
(3 -2.0889e-15 0)
(3 -3.30001e-15 0)
(3 -4.83661e-15 0)
(3 -4.27737e-15 0)
(3 -8.39652e-14 0)
(3 -7.68069e-14 0)
(3 1.39335e-08 0)
(2.99999 0.000523168 0)
(2.98232 0.080309 0)
(2.2342 0.753043 0)
(1.6895 0.961333 0)
(3 1.62375e-16 0)
(3 -2.23962e-16 0)
(3 -3.10488e-16 0)
(3 -2.26666e-16 0)
(3 -2.26699e-16 0)
(3 -1.9782e-16 0)
(3 1.19779e-16 0)
(3 7.14714e-16 0)
(3 8.74008e-16 0)
(3 5.34633e-16 0)
(3 1.77551e-16 0)
(3 -4.69851e-16 0)
(3 -4.70662e-16 0)
(3 1.85336e-16 0)
(3 7.4707e-16 0)
(3 -8.88538e-17 0)
(3 -5.92643e-16 0)
(3 -4.91685e-16 0)
(3 -5.0683e-16 0)
(3 -6.67933e-16 0)
(3 -8.7657e-16 0)
(3 -9.16874e-16 0)
(3 -3.44404e-16 0)
(3 -8.8893e-18 0)
(3 -3.64546e-16 0)
(3 -1.67678e-15 0)
(3 -1.32727e-15 0)
(3 -1.35233e-15 0)
(3 1.44697e-16 0)
(3 1.21902e-15 0)
(3 1.30034e-15 0)
(3 9.65572e-16 0)
(3 4.1391e-16 0)
(3 -1.30978e-16 0)
(3 -5.73195e-16 0)
(3 -6.30608e-16 0)
(3 -1.03154e-15 0)
(3 -1.8251e-15 0)
(3 -3.71144e-15 0)
(3 -4.71301e-15 0)
(3 -4.04034e-15 0)
(3 -7.33522e-15 0)
(3 -3.02375e-14 0)
(3 5.0536e-12 0)
(3 1.07555e-06 0)
(3 0.00395825 0)
(2.88519 0.228484 0)
(2.03372 0.844859 0)
(3 -9.96487e-17 0)
(3 -2.15161e-17 0)
(3 -1.94118e-17 0)
(3 -1.14611e-16 0)
(3 -1.00443e-16 0)
(3 3.65801e-16 0)
(3 2.70461e-16 0)
(3 3.29337e-16 0)
(3 6.08229e-16 0)
(3 4.24149e-16 0)
(3 2.89816e-16 0)
(3 3.98967e-16 0)
(3 2.08271e-16 0)
(3 -6.05211e-16 0)
(3 -7.05202e-16 0)
(3 -1.86303e-15 0)
(3 -2.11096e-15 0)
(3 -4.15636e-16 0)
(3 -9.37959e-16 0)
(3 -1.14897e-15 0)
(3 -1.07924e-15 0)
(3 -1.69301e-16 0)
(3 1.68352e-16 0)
(3 7.66397e-17 0)
(3 2.21717e-17 0)
(3 -3.51605e-16 0)
(3 1.41226e-15 0)
(3 1.62592e-15 0)
(3 1.24968e-15 0)
(3 1.37736e-15 0)
(3 9.75248e-16 0)
(3 9.91959e-16 0)
(3 1.06257e-15 0)
(3 -1.21652e-18 0)
(3 -4.85634e-16 0)
(3 -3.05174e-16 0)
(3 -7.55876e-16 0)
(3 -1.48812e-15 0)
(3 -2.12089e-15 0)
(3 -2.44802e-15 0)
(3 -2.09966e-15 0)
(3 -2.91405e-16 0)
(3 -5.02183e-15 0)
(3 -4.45782e-15 0)
(3 7.60771e-10 0)
(2.99999 2.4237e-05 0)
(2.99859 0.0161628 0)
(2.69696 0.410427 0)
(3 1.13523e-16 0)
(3 6.93842e-16 0)
(3 2.33288e-16 0)
(3 2.10445e-16 0)
(3 1.67613e-16 0)
(3 -5.42733e-17 0)
(3 2.63522e-16 0)
(3 7.2614e-16 0)
(3 6.02917e-16 0)
(3 1.21208e-15 0)
(3 1.12199e-15 0)
(3 1.46301e-15 0)
(3 1.11686e-15 0)
(3 5.50436e-16 0)
(3 -9.17829e-16 0)
(3 -1.82518e-15 0)
(3 -7.69697e-16 0)
(3 5.37875e-16 0)
(3 1.00725e-15 0)
(3 1.26616e-15 0)
(3 3.95904e-16 0)
(3 1.09382e-16 0)
(3 -2.44836e-16 0)
(3 -4.35366e-16 0)
(3 -1.39559e-16 0)
(3 1.20745e-15 0)
(3 2.03081e-15 0)
(3 2.17664e-15 0)
(3 2.19837e-15 0)
(3 2.25433e-15 0)
(3 2.2685e-15 0)
(3 2.00136e-15 0)
(3 1.96204e-15 0)
(3 2.21029e-15 0)
(3 9.00735e-16 0)
(3 -2.01408e-16 0)
(3 -1.16985e-15 0)
(3 -6.97744e-16 0)
(3 -7.35657e-16 0)
(3 -2.37879e-16 0)
(3 1.1965e-15 0)
(3 1.46019e-15 0)
(3 1.36494e-15 0)
(3 3.36066e-16 0)
(3 1.24262e-13 0)
(3 2.54046e-08 0)
(2.99994 0.000274601 0)
(2.98976 0.0417255 0)