/*--------------------------------*- C++ -*----------------------------------*\
  =========                 |
  \\      /  F ield         | OpenFOAM: The Open Source CFD Toolbox
   \\    /   O peration     | Website:  https://openfoam.org
    \\  /    A nd           | Version:  7
     \\/     M anipulation  |
\*---------------------------------------------------------------------------*/
FoamFile
{
    version     2.0;
    format      ascii;
    class       volScalarField;
    location    "2.5";
    object      p;
}
// * * * * * * * * * * * * * * * * * * * * * * * * * * * * * * * * * * * * * //

dimensions      [1 -1 -2 0 0 0 0];

internalField   nonuniform List<scalar> 
16192
(
5.19629
5.21907
5.24352
5.26492
5.28232
5.298
5.31249
5.32356
5.32621
5.31254
5.28282
5.25034
5.22373
5.20445
5.19007
5.1763
5.16197
5.1518
5.15469
5.17716
5.21721
5.23848
5.21766
5.18363
5.14154
5.08481
5.01319
4.94913
4.91217
4.89102
4.8817
4.90088
4.95519
5.00708
5.01462
4.99346
4.96427
4.91909
4.85582
4.80022
4.7674
4.74762
4.73815
4.75424
4.80161
4.84349
4.84245
4.8253
4.8074
4.78851
4.76645
4.74037
4.71141
4.67931
4.6436
4.60607
4.57359
4.55616
4.55018
4.54816
4.55288
4.56736
4.58299
4.58487
4.57848
4.56945
4.55213
4.52767
4.51095
4.49375
4.48076
4.47508
4.47071
4.45585
4.43489
4.40628
4.37941
4.36171
4.34921
4.34592
4.35464
4.37282
4.39153
4.39601
4.37951
4.3523
4.32144
4.29445
4.27364
4.26505
4.26981
4.27499
4.26998
4.25744
4.23989
4.21667
4.18937
4.16848
4.15584
4.16506
4.19641
4.21798
4.21101
4.19338
4.171
4.14667
4.12172
4.09523
4.06999
4.05253
4.05916
4.09482
4.13232
4.1191
4.08506
4.05703
4.03793
4.03117
4.0265
4.01365
3.99489
3.97581
3.96136
3.95559
3.95364
3.94934
3.94434
3.94078
3.94104
3.94563
3.94315
3.9337
3.91905
3.8878
3.84979
3.8294
3.8207
3.81704
3.81995
3.82877
3.83512
3.83709
3.83667
3.83228
3.82009
3.79683
3.76507
3.73832
3.72182
3.71124
3.70599
3.70425
3.7044
3.70661
3.71056
3.71464
3.71588
3.71047
3.69554
3.66879
3.63529
3.60877
3.5919
3.58028
3.57223
3.57018
3.57299
3.57958
3.59216
3.61093
3.61764
3.60791
3.57824
3.52735
3.49335
3.48227
3.47547
3.47318
3.47738
3.48536
3.49766
3.50688
3.47857
3.45292
3.42599
3.39516
3.37167
3.36306
3.3594
3.37042
3.40197
3.42544
3.42899
3.42805
3.41421
3.37884
3.33322
3.30757
3.30529
3.30052
3.28144
3.25693
3.23465
3.21065
3.18792
3.16753
3.16025
3.17686
3.2054
3.23407
3.27213
3.3327
3.39574
3.41923
3.41121
3.39325
3.36993
3.31764
3.21025
3.10828
3.07339
3.06023
3.06525
3.11359
3.17212
3.19533
3.20054
3.20278
3.20371
3.20043
3.18495
3.14802
3.10078
3.06912
3.05395
3.04571
3.04131
3.04534
3.0718
3.10975
3.12551
3.1226
3.11479
3.09783
3.04829
2.97298
2.93391
2.92298
2.91731
2.91401
2.91362
2.92638
2.9817
5.16867
5.18441
5.20639
5.23013
5.25368
5.27579
5.29421
5.30846
5.31975
5.32297
5.30098
5.25906
5.21766
5.18557
5.16757
5.16179
5.16269
5.16689
5.17303
5.18489
5.20141
5.20648
5.1943
5.16873
5.13444
5.08934
5.03101
4.97538
4.93738
4.90971
4.89289
4.89728
4.92957
4.96821
4.98214
4.97217
4.94877
4.91481
4.87132
4.83247
4.80056
4.77256
4.75416
4.75238
4.77277
4.79968
4.80519
4.79396
4.77879
4.76308
4.74838
4.73588
4.72484
4.71246
4.69236
4.66205
4.62502
4.59592
4.5823
4.57477
4.571
4.57393
4.57873
4.57466
4.56694
4.55381
4.52738
4.50056
4.48851
4.48282
4.48572
4.49331
4.49835
4.48946
4.46866
4.43794
4.40063
4.36978
4.3508
4.33786
4.33597
4.34387
4.35407
4.35668
4.35128
4.34364
4.33237
4.31851
4.30484
4.29415
4.28677
4.27609
4.25783
4.23945
4.2217
4.20429
4.18767
4.17187
4.16355
4.17297
4.19737
4.21025
4.19982
4.17981
4.15711
4.13664
4.11738
4.09933
4.08379
4.07257
4.06817
4.07173
4.08469
4.09957
4.09745
4.07533
4.05054
4.02477
4.00526
3.98985
3.98277
3.98074
3.97891
3.97477
3.96594
3.95426
3.94322
3.93399
3.9276
3.92388
3.91892
3.91108
3.89902
3.88555
3.87424
3.85964
3.8456
3.8362
3.83329
3.83353
3.83123
3.82728
3.81945
3.80727
3.7938
3.77955
3.7654
3.75445
3.74324
3.7309
3.72002
3.71256
3.70802
3.70567
3.70441
3.7015
3.69547
3.68703
3.67708
3.66322
3.64552
3.6283
3.61371
3.60197
3.59262
3.5861
3.58262
3.58299
3.58771
3.59036
3.58622
3.57993
3.56551
3.54258
3.51533
3.4955
3.48588
3.48074
3.48255
3.48837
3.49902
3.50953
3.49141
3.46894
3.44797
3.42338
3.39813
3.38028
3.37461
3.37739
3.37849
3.38259
3.39466
3.39869
3.39766
3.38557
3.35699
3.32991
3.31958
3.31196
3.28935
3.27049
3.25589
3.23914
3.22378
3.21469
3.21075
3.20474
3.20217
3.21629
3.24811
3.3037
3.36182
3.37588
3.36204
3.34453
3.31985
3.26736
3.19088
3.1483
3.12663
3.11319
3.11351
3.14244
3.18151
3.19333
3.19186
3.19033
3.1865
3.17791
3.15694
3.1191
3.0847
3.07402
3.06889
3.06247
3.05737
3.05935
3.07825
3.10687
3.11767
3.11635
3.1087
3.09195
3.05385
2.9957
2.95551
2.94045
2.93173
2.92611
2.92568
2.93607
2.97553
5.17732
5.19056
5.20734
5.2265
5.24834
5.27207
5.29373
5.30646
5.31484
5.32571
5.32674
5.29841
5.25358
5.20612
5.17196
5.15213
5.14794
5.16297
5.19189
5.22212
5.234
5.21735
5.18909
5.15836
5.12122
5.07645
5.02456
4.97618
4.94864
4.93228
4.92286
4.92732
4.94748
4.96354
4.95523
4.93558
4.91222
4.88379
4.8527
4.83029
4.81425
4.79917
4.78851
4.78509
4.79157
4.79739
4.78297
4.76381
4.73966
4.71453
4.69787
4.69068
4.69049
4.69197
4.68924
4.68072
4.65859
4.63172
4.6196
4.61476
4.61499
4.62228
4.62908
4.62465
4.61515
4.59591
4.56068
4.52606
4.50905
4.50236
4.49863
4.50206
4.50774
4.51077
4.50749
4.49342
4.46676
4.42755
4.3893
4.36184
4.33925
4.32246
4.31433
4.30895
4.30561
4.30633
4.30936
4.31393
4.32152
4.32876
4.32266
4.30112
4.27257
4.23715
4.20483
4.18431
4.16994
4.1631
4.16685
4.18321
4.20311
4.20779
4.1902
4.16572
4.14311
4.12411
4.10982
4.10203
4.0995
4.10096
4.09714
4.08421
4.07154
4.07659
4.08765
4.07682
4.05687
4.03479
4.01036
3.99053
3.97852
3.98089
3.99068
3.98993
3.98111
3.97095
3.95926
3.94503
3.92839
3.91062
3.89388
3.88056
3.87256
3.87079
3.87335
3.87258
3.87111
3.8687
3.86207
3.84959
3.83321
3.81663
3.80075
3.78399
3.76521
3.75101
3.74845
3.75059
3.75059
3.74887
3.74412
3.73579
3.72404
3.71027
3.69695
3.68536
3.67463
3.66242
3.64777
3.63694
3.63417
3.63131
3.62588
3.62098
3.61865
3.61681
3.61337
3.60625
3.59228
3.57167
3.55444
3.54249
3.5366
3.53395
3.52764
3.5116
3.50096
3.49436
3.49147
3.49151
3.49351
3.49014
3.48665
3.47579
3.46329
3.45375
3.44238
3.4211
3.39002
3.36479
3.35103
3.34247
3.34358
3.3528
3.35289
3.35004
3.34812
3.341
3.32519
3.30509
3.28467
3.27788
3.27676
3.27394
3.26811
3.2639
3.2623
3.25891
3.25371
3.25162
3.26768
3.30298
3.33586
3.33821
3.31879
3.29288
3.25018
3.19639
3.1693
3.15965
3.15436
3.15989
3.18621
3.21003
3.203
3.18939
3.17921
3.17397
3.16756
3.15309
3.12421
3.08596
3.07034
3.06912
3.06946
3.07003
3.07274
3.0827
3.10005
3.11163
3.11137
3.10541
3.09601
3.07908
3.04856
3.00426
2.97364
2.96212
2.95439
2.94877
2.94812
2.95526
2.97022
5.16257
5.17453
5.18898
5.20783
5.23043
5.25637
5.28553
5.30712
5.31279
5.31252
5.30661
5.28039
5.24908
5.21714
5.18806
5.16472
5.15006
5.14691
5.16344
5.19397
5.20416
5.18852
5.16902
5.14558
5.11252
5.06874
5.01988
4.97458
4.94484
4.92982
4.9222
4.92551
4.94627
4.96506
4.96016
4.94425
4.92482
4.90216
4.87197
4.83714
4.81436
4.79859
4.78704
4.78375
4.79355
4.80081
4.78833
4.77358
4.75349
4.73102
4.71169
4.69602
4.68463
4.67673
4.67134
4.66385
4.64711
4.62286
4.60489
4.59541
4.5907
4.59419
4.60141
4.60087
4.59319
4.57694
4.54962
4.51746
4.49241
4.47908
4.47052
4.46542
4.46504
4.46515
4.46823
4.46919
4.45892
4.4367
4.41115
4.39022
4.36988
4.35241
4.33907
4.32819
4.31749
4.30717
4.30033
4.3016
4.31372
4.32435
4.31636
4.29766
4.2734
4.24324
4.21611
4.19562
4.17973
4.17292
4.17889
4.19152
4.19778
4.19019
4.17238
4.15258
4.13299
4.1147
4.10269
4.10057
4.10837
4.11848
4.11991
4.10535
4.08547
4.07336
4.06952
4.0548
4.03632
4.0185
4.00297
3.9909
3.9886
3.99991
4.00308
3.99252
3.9794
3.96541
3.95184
3.93841
3.92435
3.90959
3.89527
3.88355
3.8763
3.874
3.87472
3.87766
3.88172
3.88162
3.87726
3.86555
3.8457
3.82003
3.79164
3.76552
3.74786
3.74174
3.74234
3.74468
3.74731
3.74946
3.75005
3.7466
3.73682
3.72218
3.70447
3.68466
3.66406
3.6453
3.6325
3.62832
3.62894
3.62731
3.62203
3.6171
3.61565
3.61563
3.61452
3.60932
3.59634
3.57143
3.54035
3.52412
3.52451
3.52746
3.52383
3.51006
3.50228
3.49673
3.49265
3.48945
3.48445
3.47879
3.48753
3.49775
3.49286
3.48546
3.47489
3.44868
3.39421
3.34576
3.32428
3.31253
3.30631
3.31068
3.32301
3.329
3.33087
3.33007
3.31422
3.27834
3.26044
3.26702
3.28242
3.29843
3.30702
3.30779
3.3065
3.30674
3.30816
3.30672
3.30562
3.30351
3.2904
3.27059
3.2465
3.21478
3.18152
3.15868
3.15037
3.15144
3.1688
3.21151
3.25972
3.26522
3.24997
3.22404
3.18696
3.15477
3.13553
3.11516
3.08539
3.06182
3.05947
3.06209
3.06567
3.07174
3.08414
3.10654
3.12306
3.12096
3.11312
3.10151
3.08596
3.06694
3.04008
3.00581
2.98801
2.98311
2.98
2.978
2.97349
2.96987
2.95958
5.16295
5.17963
5.19471
5.21074
5.22913
5.25055
5.277
5.30546
5.32311
5.32379
5.29744
5.25755
5.22376
5.1994
5.18477
5.17759
5.17462
5.17737
5.19445
5.21068
5.19779
5.18253
5.167
5.14706
5.11547
5.07055
5.02309
4.98695
4.96516
4.94992
4.93848
4.93254
4.93453
4.93556
4.92722
4.91763
4.90882
4.89736
4.88211
4.85788
4.83187
4.81667
4.80463
4.79709
4.79647
4.78942
4.77623
4.76144
4.74442
4.72765
4.71359
4.70257
4.69352
4.68558
4.67833
4.66972
4.65622
4.63806
4.62233
4.60953
4.59759
4.58699
4.57728
4.56818
4.55705
4.5436
4.52876
4.51155
4.49586
4.48607
4.47935
4.47128
4.46006
4.44775
4.43517
4.42234
4.40891
4.39351
4.37945
4.36695
4.35701
4.3505
4.3455
4.34052
4.33381
4.32479
4.31622
4.31372
4.31923
4.31451
4.29735
4.27766
4.25377
4.2276
4.20842
4.19594
4.18793
4.19029
4.20114
4.20734
4.19569
4.175
4.15448
4.13559
4.11782
4.10431
4.09927
4.10299
4.11317
4.12189
4.12271
4.11459
4.09987
4.08562
4.06652
4.04324
4.02107
4.00544
3.99537
3.99284
4.00656
4.02156
4.01561
4.00304
3.98433
3.95852
3.93442
3.91825
3.90738
3.89935
3.894
3.89256
3.89152
3.88891
3.88636
3.88385
3.8806
3.87634
3.86857
3.85532
3.83654
3.81219
3.78525
3.76414
3.75373
3.75111
3.75084
3.75077
3.75036
3.7487
3.74402
3.73494
3.7235
3.71149
3.69842
3.68353
3.66765
3.65431
3.64613
3.64216
3.63975
3.63553
3.62712
3.61673
3.60774
3.60055
3.59358
3.58386
3.56927
3.5522
3.54166
3.54282
3.54742
3.54737
3.53331
3.50291
3.48838
3.4858
3.48383
3.48139
3.47641
3.4749
3.49425
3.51179
3.50435
3.49451
3.48216
3.45268
3.39838
3.34675
3.31609
3.29783
3.28778
3.29655
3.32076
3.32998
3.32453
3.31326
3.28159
3.23773
3.22127
3.2312
3.26507
3.30505
3.33579
3.35207
3.3561
3.35702
3.36349
3.36818
3.34175
3.28915
3.22982
3.19284
3.17181
3.15335
3.13756
3.13019
3.13277
3.14814
3.18579
3.24708
3.28637
3.28341
3.27139
3.2543
3.22035
3.16436
3.10933
3.07175
3.04716
3.04153
3.04522
3.04979
3.05689
3.07211
3.09899
3.12626
3.13071
3.12558
3.1186
3.10693
3.08749
3.06317
3.03465
3.00751
2.99814
2.99527
2.99524
2.99503
2.98988
2.98101
2.96136
5.14935
5.17464
5.19788
5.21684
5.23298
5.24817
5.26467
5.28648
5.30939
5.31498
5.28871
5.24724
5.20983
5.18344
5.16798
5.16429
5.17236
5.1947
5.22015
5.2147
5.19553
5.17258
5.14766
5.1203
5.08862
5.04993
5.00726
4.97751
4.96296
4.95351
4.9485
4.9491
4.95282
4.94995
4.94064
4.929
4.91711
4.90456
4.88934
4.86732
4.83662
4.81426
4.80181
4.79109
4.78402
4.77961
4.76967
4.75903
4.74658
4.73114
4.71554
4.70373
4.69462
4.68622
4.67719
4.66687
4.65502
4.64289
4.63341
4.624
4.61221
4.59718
4.57963
4.5607
4.54271
4.52962
4.51921
4.50772
4.49628
4.48803
4.48235
4.4764
4.46799
4.45864
4.44882
4.43572
4.41718
4.40165
4.38998
4.3794
4.3715
4.3672
4.36084
4.3496
4.33605
4.32248
4.31072
4.30312
4.30218
4.30218
4.29133
4.27825
4.26226
4.24276
4.22266
4.20845
4.19976
4.19692
4.19681
4.19056
4.1794
4.1675
4.15522
4.14151
4.12676
4.11532
4.11255
4.11564
4.11819
4.11589
4.1099
4.10291
4.09459
4.08447
4.06605
4.0397
4.01054
3.99486
3.98862
3.99511
4.01432
4.02078
4.01408
4.00421
3.98401
3.95244
3.92634
3.91183
3.90267
3.89688
3.89777
3.90336
3.90474
3.90321
3.89907
3.89092
3.87849
3.86428
3.85006
3.83593
3.82123
3.80544
3.79086
3.78045
3.77276
3.76565
3.7598
3.75559
3.75086
3.742
3.728
3.71335
3.7027
3.69597
3.69076
3.68568
3.68055
3.67513
3.66772
3.65822
3.64822
3.63623
3.61971
3.60262
3.5903
3.58217
3.57539
3.56687
3.55773
3.55495
3.56133
3.56911
3.57212
3.56596
3.5415
3.49755
3.47133
3.47387
3.47437
3.47494
3.47851
3.49269
3.51725
3.51555
3.50098
3.48481
3.46209
3.4275
3.38523
3.3514
3.33034
3.31463
3.31185
3.3324
3.35707
3.35626
3.3369
3.30724
3.25876
3.21688
3.19827
3.20707
3.24964
3.30501
3.34522
3.36912
3.3772
3.37991
3.3848
3.37628
3.34599
3.29876
3.23009
3.16668
3.13645
3.12302
3.11621
3.12303
3.14159
3.17548
3.22084
3.25501
3.27329
3.27968
3.2712
3.25781
3.23637
3.19226
3.12037
3.05773
3.03499
3.03146
3.03397
3.03746
3.04484
3.06962
3.11295
3.13313
3.1303
3.12659
3.12174
3.11295
3.09562
3.06822
3.03627
3.01021
3.00126
2.99778
2.99566
2.99276
2.98776
2.98043
2.96552
5.14395
5.17416
5.20227
5.22417
5.24044
5.25193
5.25998
5.27037
5.28391
5.28532
5.26769
5.23775
5.20698
5.18326
5.1677
5.16275
5.17043
5.19295
5.20518
5.18929
5.16735
5.13561
5.0999
5.06991
5.04521
5.02052
4.99412
4.97618
4.96971
4.96768
4.96868
4.97159
4.97122
4.96044
4.94592
4.9298
4.91352
4.89875
4.88339
4.85984
4.82445
4.79899
4.78818
4.78168
4.78467
4.79415
4.79295
4.78621
4.77555
4.75903
4.7369
4.71402
4.69432
4.67569
4.65484
4.63236
4.61292
4.60043
4.59268
4.58757
4.58336
4.57595
4.56576
4.553
4.53918
4.52541
4.51196
4.49976
4.48802
4.47833
4.47069
4.46111
4.44827
4.43503
4.42286
4.40906
4.39267
4.383
4.37573
4.37018
4.36798
4.36917
4.36794
4.35931
4.346
4.33137
4.31644
4.30301
4.29271
4.28658
4.27644
4.26372
4.25067
4.23964
4.2298
4.2192
4.21052
4.203
4.19149
4.17764
4.1656
4.1565
4.14983
4.14326
4.13539
4.12827
4.12639
4.12561
4.11838
4.10432
4.09348
4.08701
4.08326
4.07797
4.066
4.04714
4.01904
4.00022
3.99918
4.0118
4.02341
4.01984
4.01045
3.99418
3.96793
3.93808
3.91738
3.90741
3.90287
3.90712
3.92056
3.93165
3.93259
3.92677
3.91392
3.89007
3.8608
3.83687
3.82049
3.80843
3.80088
3.798
3.79758
3.79815
3.79651
3.7907
3.77882
3.76144
3.7412
3.72023
3.70247
3.6921
3.68937
3.69012
3.69476
3.69977
3.702
3.70182
3.69639
3.68208
3.65728
3.62664
3.59704
3.5752
3.5642
3.55984
3.55736
3.55557
3.55975
3.57217
3.58591
3.59508
3.59392
3.57213
3.52591
3.4762
3.45265
3.45346
3.46144
3.47106
3.48796
3.51597
3.53154
3.52181
3.50438
3.47052
3.42415
3.38336
3.36185
3.34854
3.33862
3.34075
3.3645
3.39827
3.40333
3.37859
3.34443
3.29101
3.2393
3.20805
3.19095
3.20505
3.25743
3.30862
3.33747
3.35175
3.35644
3.35741
3.35732
3.34736
3.32573
3.2959
3.24657
3.18288
3.13847
3.12306
3.12528
3.1433
3.17488
3.20802
3.22329
3.22449
3.22877
3.24278
3.24901
3.24067
3.22862
3.2067
3.15837
3.08734
3.04398
3.03184
3.02997
3.03193
3.03787
3.06276
3.10558
3.12724
3.12721
3.12392
3.1199
3.11377
3.10249
3.08127
3.04807
3.0125
2.99503
2.98915
2.98472
2.98052
2.97626
2.97191
2.96364
5.16645
5.19245
5.20898
5.22565
5.23899
5.24765
5.25334
5.2575
5.25724
5.25123
5.24249
5.22896
5.20903
5.18706
5.16929
5.16086
5.16475
5.18253
5.19677
5.18696
5.16927
5.14359
5.11059
5.08242
5.06103
5.03897
5.00992
4.97882
4.96246
4.95176
4.94276
4.93578
4.93169
4.92634
4.91572
4.90265
4.88784
4.87172
4.8526
4.82592
4.79835
4.78682
4.78164
4.78143
4.79096
4.79489
4.78526
4.77226
4.75467
4.73379
4.70983
4.68272
4.65695
4.63593
4.61659
4.59977
4.58969
4.58505
4.58747
4.59613
4.60582
4.61365
4.61654
4.61291
4.60462
4.58828
4.56347
4.54032
4.52028
4.49848
4.47629
4.45769
4.44289
4.43002
4.41823
4.40661
4.3958
4.38955
4.3852
4.38229
4.3825
4.38546
4.38593
4.37752
4.36207
4.34188
4.31973
4.29859
4.28012
4.26514
4.25513
4.24959
4.24898
4.25239
4.25234
4.24594
4.23246
4.20847
4.18284
4.16109
4.145
4.1357
4.13515
4.14196
4.14808
4.15042
4.14616
4.13653
4.11205
4.08411
4.07249
4.06689
4.06508
4.06755
4.06769
4.0617
4.04941
4.03162
4.01928
4.01227
4.00374
3.99276
3.97896
3.96077
3.94177
3.92934
3.92262
3.92112
3.92927
3.94523
3.95446
3.95065
3.93956
3.91827
3.89037
3.85874
3.83015
3.81071
3.79837
3.79241
3.79231
3.80261
3.81901
3.83033
3.83027
3.82171
3.79863
3.7581
3.71886
3.69425
3.68125
3.67575
3.67436
3.67835
3.6925
3.70946
3.72187
3.72652
3.72342
3.70767
3.66567
3.61377
3.57907
3.55978
3.55011
3.54654
3.54727
3.55337
3.56694
3.58734
3.60227
3.61215
3.6087
3.57174
3.51011
3.46588
3.45812
3.46315
3.46965
3.48211
3.50289
3.52506
3.52803
3.52358
3.50194
3.4471
3.38552
3.35895
3.34873
3.34435
3.3493
3.37424
3.41589
3.439
3.42075
3.38783
3.3409
3.28519
3.24452
3.21404
3.19906
3.22532
3.28634
3.31359
3.3062
3.30173
3.30335
3.30271
3.30459
3.31175
3.30436
3.28595
3.25946
3.22238
3.18506
3.16554
3.16908
3.18684
3.20054
3.19537
3.18435
3.17733
3.17894
3.19691
3.22183
3.22569
3.21985
3.21115
3.19133
3.14516
3.08356
3.0476
3.03654
3.0345
3.03766
3.05313
3.08365
3.11205
3.125
3.12335
3.11951
3.11495
3.10805
3.09359
3.06029
3.01185
2.98471
2.97656
2.97091
2.96606
2.96283
2.96241
2.96715
5.17569
5.18764
5.19924
5.20975
5.22066
5.23213
5.24331
5.24744
5.23759
5.22153
5.21493
5.21202
5.2066
5.1938
5.17861
5.16865
5.17078
5.18635
5.19878
5.18998
5.17388
5.15002
5.11672
5.08832
5.06963
5.05058
5.02398
4.99218
4.96653
4.94886
4.9346
4.92534
4.92461
4.92973
4.92806
4.92036
4.90972
4.89386
4.86655
4.82914
4.80095
4.78343
4.77256
4.76537
4.76311
4.76095
4.75268
4.74369
4.7335
4.72113
4.70567
4.68447
4.66062
4.64512
4.63498
4.62869
4.62777
4.631
4.63657
4.64025
4.64052
4.63733
4.63069
4.61993
4.60243
4.57698
4.54755
4.52373
4.50773
4.49277
4.48156
4.47723
4.48151
4.47853
4.47316
4.46563
4.45444
4.4396
4.42247
4.40657
4.39268
4.38113
4.37216
4.36144
4.34407
4.32313
4.30316
4.28625
4.27364
4.26541
4.26483
4.27351
4.28387
4.28255
4.27188
4.24622
4.21128
4.17571
4.14937
4.13418
4.12631
4.12809
4.14607
4.16909
4.18004
4.17705
4.16316
4.13118
4.08927
4.06479
4.05754
4.05399
4.05605
4.06783
4.08042
4.08371
4.07704
4.05981
4.02801
3.99612
3.97665
3.96062
3.9476
3.93844
3.93345
3.93482
3.94713
3.9639
3.97279
3.9684
3.95775
3.93936
3.91803
3.89164
3.85788
3.82887
3.81281
3.80398
3.79873
3.80008
3.81428
3.83554
3.84654
3.84396
3.83377
3.81222
3.77918
3.73482
3.69939
3.68055
3.67079
3.66677
3.66877
3.68463
3.71052
3.73344
3.74467
3.7427
3.73219
3.70362
3.65164
3.60121
3.57184
3.55582
3.54808
3.54858
3.55648
3.576
3.60219
3.6186
3.62338
3.61824
3.59078
3.54012
3.49058
3.46677
3.46551
3.47269
3.48396
3.49848
3.51354
3.52415
3.52835
3.51716
3.47293
3.40048
3.35679
3.3482
3.34346
3.34643
3.36705
3.40672
3.44214
3.44574
3.42179
3.3846
3.33539
3.29434
3.26314
3.23798
3.23528
3.2745
3.31277
3.30565
3.27055
3.23995
3.23669
3.23956
3.25521
3.28201
3.29129
3.28166
3.27622
3.27832
3.2799
3.26735
3.23741
3.20354
3.18105
3.16315
3.1438
3.13258
3.13063
3.15087
3.19476
3.21772
3.21711
3.21254
3.2036
3.18019
3.13535
3.08631
3.0571
3.04746
3.04594
3.05251
3.0709
3.0933
3.10921
3.11587
3.116
3.1128
3.10779
3.09705
3.06423
3.00716
2.97292
2.96273
2.95613
2.95131
2.94843
2.95284
2.97685
5.17077
5.17861
5.18766
5.1967
5.2094
5.22382
5.23557
5.23856
5.22663
5.2059
5.19572
5.19681
5.19801
5.19104
5.18113
5.17534
5.17935
5.18728
5.17975
5.16438
5.14687
5.12294
5.09117
5.06297
5.0454
5.03195
5.01854
5.00038
4.9803
4.96382
4.95195
4.94567
4.94844
4.95728
4.95419
4.94329
4.92955
4.9046
4.86141
4.81621
4.79042
4.77296
4.7602
4.75167
4.7488
4.75051
4.75119
4.75184
4.75163
4.74711
4.73822
4.72068
4.69676
4.68119
4.66921
4.65759
4.64589
4.63562
4.62758
4.62049
4.61278
4.60443
4.59448
4.58122
4.56113
4.5313
4.50276
4.48605
4.47631
4.47294
4.48031
4.4995
4.50998
4.50277
4.49262
4.47533
4.4477
4.41937
4.3968
4.37665
4.35714
4.33857
4.32226
4.31203
4.30785
4.30459
4.29997
4.29715
4.29862
4.30333
4.30626
4.30092
4.28975
4.2691
4.24315
4.21078
4.17008
4.14627
4.13657
4.13088
4.13528
4.15944
4.18927
4.19838
4.19083
4.17339
4.14547
4.10842
4.07762
4.06315
4.05737
4.05565
4.06203
4.07766
4.08942
4.08544
4.07404
4.05523
4.02673
3.98927
3.95836
3.94168
3.93251
3.92951
3.93901
3.96428
3.98755
3.99097
3.98224
3.96808
3.94632
3.9198
3.88697
3.85104
3.82768
3.81786
3.81165
3.81112
3.8219
3.83925
3.85
3.84833
3.84313
3.8313
3.81271
3.78567
3.74913
3.71701
3.69575
3.6837
3.67712
3.67694
3.69145
3.71771
3.7355
3.73671
3.73129
3.72064
3.70169
3.66865
3.63123
3.60461
3.58859
3.57887
3.57483
3.58071
3.59913
3.61694
3.61909
3.61112
3.5909
3.56345
3.52366
3.48694
3.46815
3.4694
3.47748
3.49226
3.51321
3.52891
3.53717
3.54107
3.53481
3.49748
3.42567
3.3642
3.34977
3.34882
3.34817
3.36006
3.39361
3.42816
3.43902
3.42457
3.39494
3.35644
3.3238
3.30117
3.2834
3.27774
3.29851
3.32984
3.32681
3.30245
3.23664
3.18596
3.18027
3.1802
3.20044
3.24862
3.28054
3.28999
3.30524
3.33037
3.34676
3.33932
3.30254
3.22746
3.15497
3.12445
3.11415
3.10897
3.10867
3.12937
3.17587
3.20884
3.21514
3.21098
3.20162
3.18381
3.15915
3.13064
3.09912
3.07365
3.06371
3.06218
3.06629
3.07133
3.08145
3.10341
3.11243
3.11099
3.10496
3.09258
3.05977
3.00261
2.96498
2.95347
2.94778
2.9443
2.94315
2.9583
3.00308
5.21301
5.22034
5.22414
5.22508
5.22926
5.2362
5.23647
5.22763
5.21571
5.20372
5.19288
5.18519
5.17916
5.17301
5.17101
5.17817
5.18668
5.17699
5.15663
5.13611
5.11318
5.085
5.06254
5.04773
5.0342
5.02423
5.0167
5.00583
4.98981
4.97353
4.96091
4.9529
4.9511
4.9514
4.94413
4.93203
4.91755
4.89264
4.84868
4.8031
4.77718
4.76385
4.75394
4.75088
4.7607
4.77514
4.78215
4.78113
4.77496
4.76591
4.74873
4.71841
4.69276
4.67896
4.66653
4.65354
4.63873
4.62188
4.60674
4.59382
4.58078
4.56653
4.55089
4.534
4.51605
4.49982
4.48807
4.47743
4.4712
4.4738
4.48693
4.49778
4.4933
4.48477
4.47353
4.45412
4.42146
4.38277
4.35512
4.33649
4.3216
4.30921
4.30016
4.29396
4.29554
4.3095
4.32469
4.33736
4.34341
4.33811
4.32537
4.30262
4.27377
4.24263
4.20343
4.16496
4.14821
4.14234
4.14088
4.15331
4.18092
4.20363
4.20408
4.19329
4.17607
4.15026
4.11596
4.08898
4.07859
4.07449
4.07261
4.07594
4.08066
4.07956
4.07185
4.06265
4.05107
4.03499
4.01558
3.99335
3.96699
3.94758
3.94058
3.94437
3.96534
3.98722
3.98867
3.98122
3.97108
3.95634
3.92954
3.8877
3.84811
3.82951
3.82081
3.81661
3.82465
3.8479
3.87228
3.87598
3.86804
3.85032
3.82632
3.8021
3.77284
3.74059
3.71976
3.70995
3.7038
3.70037
3.70372
3.71554
3.72918
3.7307
3.72533
3.71783
3.70621
3.68794
3.66115
3.63704
3.62521
3.62099
3.62023
3.62193
3.62461
3.62459
3.61937
3.61068
3.59746
3.57951
3.55032
3.51054
3.48304
3.47517
3.47982
3.49944
3.5259
3.55069
3.563
3.56246
3.5564
3.53569
3.49853
3.44532
3.39067
3.36472
3.36149
3.36177
3.36761
3.38896
3.41555
3.41994
3.40775
3.38424
3.3548
3.33072
3.31452
3.30579
3.30788
3.32791
3.35915
3.36313
3.34719
3.29756
3.20378
3.15749
3.15523
3.15739
3.17803
3.22589
3.27325
3.30844
3.34294
3.36389
3.36122
3.34938
3.32205
3.25713
3.17258
3.12435
3.10794
3.10142
3.10373
3.13077
3.15882
3.16916
3.17425
3.17647
3.17254
3.16465
3.15746
3.15093
3.1398
3.12079
3.09447
3.07575
3.06887
3.06557
3.06704
3.07869
3.09822
3.09941
3.09212
3.07872
3.04975
3.00163
2.96636
2.95439
2.9497
2.94739
2.95181
2.9825
3.02681
5.25894
5.2606
5.25427
5.24329
5.23046
5.21468
5.20259
5.20057
5.20357
5.20535
5.19711
5.17369
5.15605
5.15386
5.15961
5.17528
5.17752
5.16212
5.13733
5.10605
5.08092
5.06531
5.05441
5.04736
5.0387
5.02808
5.01552
5.00244
4.99019
4.97606
4.96141
4.94963
4.94419
4.93926
4.9273
4.91458
4.89836
4.86966
4.82279
4.78582
4.77021
4.75971
4.75482
4.76584
4.79276
4.80605
4.80163
4.79279
4.78021
4.7599
4.73051
4.69696
4.67678
4.66461
4.65148
4.63686
4.62302
4.61083
4.59718
4.58045
4.56311
4.5468
4.53117
4.51652
4.50554
4.49889
4.49822
4.49783
4.49691
4.4974
4.49391
4.48516
4.47462
4.46124
4.44236
4.41746
4.39207
4.37133
4.35025
4.33076
4.3168
4.30867
4.30445
4.30791
4.32311
4.34183
4.35437
4.35487
4.34646
4.33466
4.31821
4.29126
4.25229
4.20451
4.16629
4.15007
4.14487
4.14933
4.17198
4.20412
4.21832
4.21098
4.19647
4.17537
4.14543
4.11146
4.09096
4.08467
4.08503
4.0935
4.10241
4.10138
4.09213
4.07284
4.0494
4.03005
4.01617
4.0069
4.00071
3.99441
3.98815
3.98285
3.97975
3.98028
3.97904
3.97289
3.96731
3.96097
3.95013
3.93116
3.8987
3.86081
3.83873
3.82875
3.8255
3.83666
3.86701
3.89182
3.89033
3.88105
3.8658
3.8428
3.80694
3.76386
3.73181
3.71738
3.71014
3.70882
3.71967
3.73708
3.75081
3.75007
3.74024
3.7242
3.70842
3.69253
3.67196
3.64982
3.63442
3.62847
3.63359
3.64891
3.65968
3.66009
3.6539
3.64173
3.62292
3.59942
3.57315
3.54437
3.51572
3.49516
3.49074
3.50207
3.53009
3.55646
3.56644
3.56221
3.55322
3.53887
3.51796
3.48647
3.43465
3.39236
3.37534
3.37551
3.38165
3.39432
3.41536
3.4307
3.42353
3.40674
3.37757
3.34461
3.32008
3.30564
3.30237
3.31379
3.33988
3.37508
3.39257
3.38506
3.35482
3.27658
3.18943
3.16247
3.15895
3.16122
3.18164
3.23157
3.29353
3.32913
3.3421
3.34701
3.34417
3.33322
3.30759
3.26128
3.20055
3.15977
3.13893
3.12848
3.13252
3.15388
3.15896
3.15258
3.14331
3.13306
3.1294
3.13445
3.14706
3.15734
3.16052
3.15573
3.14045
3.10855
3.0785
3.06888
3.0642
3.06448
3.07088
3.07489
3.07128
3.0605
3.03795
3.00105
2.97396
2.96454
2.96028
2.96038
2.97376
3.00564
3.02455
5.25716
5.25503
5.247
5.23428
5.21757
5.19765
5.18397
5.18604
5.19603
5.20258
5.19551
5.16937
5.14812
5.1457
5.15512
5.1681
5.16112
5.14627
5.12088
5.0892
5.0691
5.0593
5.05709
5.05446
5.0445
5.03055
5.01182
4.99253
4.9797
4.96893
4.95893
4.94956
4.93547
4.91974
4.90384
4.88527
4.86183
4.82965
4.79876
4.78116
4.77096
4.76429
4.76775
4.79098
4.81196
4.80801
4.79828
4.78695
4.77146
4.7449
4.70176
4.66329
4.64565
4.63306
4.62118
4.61465
4.61554
4.61495
4.60529
4.59285
4.57383
4.55082
4.53469
4.52633
4.52315
4.52755
4.53456
4.5353
4.52789
4.51614
4.49905
4.47863
4.45851
4.43793
4.41822
4.40179
4.389
4.37841
4.36817
4.35566
4.34482
4.3397
4.33906
4.34448
4.35084
4.35127
4.34715
4.3425
4.33482
4.32245
4.30328
4.27071
4.22157
4.18206
4.16375
4.1577
4.16106
4.18321
4.21289
4.22224
4.21585
4.20423
4.1844
4.14916
4.11186
4.09159
4.08486
4.08775
4.10374
4.11909
4.11891
4.11066
4.09193
4.06107
4.02761
4.00727
3.99672
3.99037
3.98777
3.99855
4.01908
4.02742
4.02242
4.00739
3.98123
3.95903
3.94297
3.92739
3.90849
3.8867
3.86947
3.85924
3.8501
3.84692
3.85676
3.88108
3.89667
3.89335
3.88567
3.87589
3.85759
3.82116
3.77019
3.73513
3.72069
3.71368
3.71252
3.72821
3.75677
3.76992
3.76483
3.75522
3.74018
3.71804
3.69025
3.6641
3.6461
3.63294
3.62762
3.63603
3.66122
3.67355
3.66894
3.6602
3.64694
3.63047
3.61149
3.58881
3.56223
3.53656
3.51979
3.51707
3.5289
3.54965
3.55696
3.55164
3.54447
3.53566
3.52261
3.50034
3.46135
3.41713
3.39761
3.39005
3.3948
3.41985
3.44659
3.46199
3.4603
3.44648
3.41766
3.37764
3.33472
3.30483
3.29035
3.28714
3.30046
3.33352
3.37476
3.39875
3.40007
3.38301
3.33715
3.25624
3.20689
3.19622
3.19316
3.19857
3.22104
3.2556
3.27606
3.28225
3.28439
3.29008
3.29632
3.29288
3.27864
3.24994
3.21503
3.19657
3.18998
3.1864
3.17922
3.16567
3.1525
3.13413
3.10952
3.09425
3.09057
3.09789
3.12457
3.15934
3.17346
3.17061
3.16323
3.1449
3.11066
3.0808
3.06846
3.06174
3.05704
3.05165
3.04569
3.03631
3.02104
2.99967
2.98512
2.98058
2.97981
2.98665
3.00125
3.01045
3.00671
5.23173
5.22907
5.22358
5.21681
5.20636
5.19221
5.18385
5.18483
5.19104
5.19496
5.189
5.16948
5.15178
5.14687
5.14919
5.14965
5.14291
5.13183
5.11226
5.08781
5.07348
5.06811
5.06557
5.05667
5.04421
5.02549
5.00023
4.97894
4.96566
4.95507
4.95187
4.94977
4.93732
4.9174
4.89234
4.86405
4.8344
4.80816
4.79154
4.78335
4.77849
4.77906
4.79029
4.80696
4.80935
4.80056
4.78927
4.7766
4.75534
4.71303
4.6619
4.63652
4.62494
4.61521
4.60799
4.60831
4.6211
4.63025
4.6236
4.61467
4.60258
4.58448
4.56594
4.5557
4.54991
4.54774
4.54662
4.54
4.52912
4.51578
4.49786
4.4747
4.45018
4.431
4.41713
4.40877
4.40721
4.40878
4.40579
4.39879
4.38876
4.37548
4.36503
4.35707
4.3485
4.33888
4.32943
4.31914
4.30683
4.29048
4.26839
4.24197
4.2142
4.19359
4.18608
4.18617
4.19953
4.21589
4.21748
4.21224
4.20367
4.18755
4.15821
4.12278
4.10019
4.09169
4.09172
4.10436
4.1207
4.12402
4.11833
4.10667
4.08443
4.05142
4.02139
4.00115
3.99071
3.98708
3.99979
4.0344
4.04889
4.0441
4.03262
4.01073
3.97905
3.94196
3.90867
3.8833
3.86801
3.86091
3.85621
3.8572
3.86965
3.8904
3.90886
3.90876
3.89846
3.88476
3.8721
3.85517
3.8246
3.78231
3.75269
3.73795
3.72985
3.72735
3.73789
3.76133
3.77191
3.76777
3.76011
3.74999
3.73335
3.70655
3.67528
3.65355
3.6399
3.63425
3.63644
3.65036
3.66026
3.66052
3.65444
3.64447
3.6292
3.60873
3.58985
3.57495
3.5635
3.55746
3.56033
3.57058
3.5722
3.56448
3.54987
3.53344
3.51809
3.49891
3.47161
3.43772
3.41333
3.40228
3.39967
3.42116
3.46562
3.49813
3.49987
3.48822
3.46548
3.43329
3.39188
3.33817
3.3036
3.2881
3.2819
3.28941
3.32361
3.37038
3.39649
3.3993
3.38818
3.3571
3.29969
3.24721
3.23444
3.23362
3.23981
3.25701
3.27344
3.2753
3.26734
3.25382
3.24406
3.23934
3.23936
3.24199
3.23995
3.2319
3.22686
3.22921
3.23746
3.23689
3.22506
3.19622
3.14855
3.10922
3.087
3.07785
3.07446
3.08022
3.11573
3.16198
3.17463
3.17185
3.16599
3.15525
3.13748
3.11131
3.08495
3.06457
3.05047
3.03916
3.02744
3.01802
3.00855
3.00239
2.99965
2.99932
3.00166
3.00558
3.00719
3.00338
2.99083
5.20422
5.2048
5.20517
5.20339
5.20347
5.20589
5.2057
5.20215
5.19491
5.18249
5.17236
5.16281
5.15571
5.15186
5.1474
5.13749
5.12574
5.11525
5.10365
5.09383
5.08724
5.07923
5.06597
5.04903
5.03046
5.00933
4.98358
4.96422
4.95236
4.94545
4.94897
4.95117
4.93987
4.92418
4.90037
4.86469
4.82782
4.80695
4.79839
4.79325
4.7925
4.79851
4.80967
4.81042
4.80002
4.78869
4.77559
4.75798
4.728
4.68371
4.65061
4.6326
4.61964
4.61031
4.60775
4.62047
4.64243
4.64531
4.63889
4.63147
4.62312
4.61102
4.59296
4.56986
4.55378
4.54369
4.53464
4.52704
4.51831
4.50617
4.48917
4.46603
4.44685
4.43508
4.42865
4.42913
4.43264
4.42982
4.42184
4.41192
4.39989
4.38579
4.37024
4.35515
4.34093
4.32487
4.30731
4.28988
4.27378
4.25916
4.24443
4.22873
4.22165
4.22168
4.22839
4.23203
4.22762
4.21879
4.20765
4.19569
4.17862
4.15471
4.13271
4.11749
4.10918
4.10944
4.11897
4.12499
4.12238
4.11261
4.09891
4.08164
4.06287
4.04765
4.03372
4.0194
4.01014
4.01255
4.02417
4.03094
4.03333
4.03154
4.02274
4.00035
3.95894
3.91072
3.8827
3.86941
3.86112
3.85491
3.8565
3.88031
3.91593
3.93254
3.92816
3.91649
3.89861
3.87626
3.84709
3.80941
3.77665
3.76258
3.75558
3.75139
3.75513
3.76851
3.77935
3.77605
3.76708
3.75686
3.74565
3.72979
3.70911
3.69135
3.67884
3.66667
3.65829
3.6564
3.66024
3.65936
3.65185
3.6426
3.63132
3.61742
3.60248
3.59031
3.58094
3.57658
3.58239
3.59848
3.60708
3.60188