/*--------------------------------*- C++ -*----------------------------------*\
  =========                 |
  \\      /  F ield         | OpenFOAM: The Open Source CFD Toolbox
   \\    /   O peration     | Website:  https://openfoam.org
    \\  /    A nd           | Version:  7
     \\/     M anipulation  |
\*---------------------------------------------------------------------------*/
FoamFile
{
    version     2.0;
    format      ascii;
    class       volScalarField;
    location    "3.1";
    object      p;
}
// * * * * * * * * * * * * * * * * * * * * * * * * * * * * * * * * * * * * * //

dimensions      [1 -1 -2 0 0 0 0];

internalField   nonuniform List<scalar> 
16512
(
2.36051
2.35258
2.34532
2.3396
2.33506
2.32916
2.32206
2.31446
2.30564
2.29541
2.28641
2.27832
2.26944
2.25741
2.23949
2.21884
2.20394
2.19404
2.18644
2.18032
2.17522
2.17137
2.16883
2.16749
2.1651
2.16106
2.1566
2.15157
2.14587
2.13836
2.12528
2.10817
2.09671
2.08897
2.08108
2.07194
2.06058
2.04678
2.03211
2.01836
2.00713
2.00003
1.99497
1.99012
1.98649
1.98541
1.99068
2.00657
2.0326
2.07066
2.12659
2.20119
2.28613
2.38413
2.46178
2.50404
2.54417
2.58103
2.61736
2.64692
2.65542
2.65331
2.64444
2.63413
2.61907
2.61557
2.61646
2.62597
2.65266
2.67138
2.66645
2.65764
2.64876
2.63661
2.61754
2.58921
2.55794
2.53715
2.5268
2.52045
2.51606
2.51701
2.53096
2.5468
2.54822
2.54187
2.53447
2.52276
2.50248
2.47697
2.45815
2.44734
2.43904
2.43376
2.43099
2.43325
2.43925
2.43751
2.43055
2.42066
2.40508
2.39088
2.38407
2.37969
2.3773
2.37436
2.36946
2.36527
2.36126
2.35423
2.33953
2.32258
2.31305
2.30919
2.30833
2.30896
2.31414
2.32479
2.34916
2.41119
2.54095
2.72584
2.97126
3.21953
3.42028
3.53023
3.62955
3.71623
3.74874
3.76874
3.79393
3.82652
3.84729
3.84899
3.84492
3.8338
3.8207
3.80228
3.77428
3.74112
3.71826
3.71184
3.71196
3.7137
3.72306
3.74172
3.74859
3.7448
3.73596
3.71909
3.70107
3.6914
3.68591
3.68051
3.67301
3.6649
3.66148
3.66077
3.66186
3.66511
3.6748
3.69112
3.69748
3.69506
3.68645
3.66497
3.6243
3.5805
3.55837
3.55235
3.55355
3.56601
3.58521
3.60029
3.61096
3.61426
3.61174
3.60499
3.58818
3.55735
3.51692
3.4898
3.47982
3.47718
3.48102
3.50611
3.54945
3.56861
3.56863
3.56482
3.55984
3.55133
3.53426
3.50694
3.48201
3.46935
3.4612
3.45477
3.4481
3.44218
3.43947
3.43891
3.43896
3.44279
3.45277
3.46104
3.45758
3.44513
3.43017
3.41807
3.40725
3.39413
3.38211
3.37477
3.37377
3.37676
3.38588
3.39307
3.38945
3.37801
3.36605
3.35827
3.35194
3.3439
3.3341
3.32643
3.32144
3.31675
3.31135
3.3058
3.30188
3.29863
3.29446
3.28779
3.27767
3.2659
3.25606
3.25159
3.24831
3.24673
3.25166
3.2602
3.26104
3.25658
3.25299
3.24843
3.24014
3.2223
3.19523
3.17893
3.17457
3.17528
3.18222
3.19605
3.20552
3.20353
3.19301
3.16709
2.36858
2.36043
2.35312
2.34724
2.34242
2.33566
2.3284
2.32069
2.31191
2.30338
2.29701
2.2915
2.28526
2.27729
2.26575
2.24712
2.22356
2.2054
2.19425
2.18608
2.17937
2.17383
2.16992
2.16863
2.16743
2.16392
2.16003
2.15533
2.14993
2.14389
2.13491
2.12117
2.11168
2.10524
2.09818
2.08983
2.07958
2.0667
2.0515
2.03569
2.02102
2.00776
1.99575
1.98848
1.98411
1.98086
1.97988
1.97983
1.97953
1.9806
1.98526
1.99578
2.01545
2.04742
2.09668
2.16603
2.23974
2.30515
2.36733
2.42704
2.48445
2.54537
2.59258
2.60733
2.60425
2.5906
2.59271
2.60047
2.61327
2.63288
2.65098
2.65636
2.65339
2.64526
2.63037
2.61174
2.58948
2.55987
2.53169
2.51679
2.51016
2.50629
2.50623
2.51511
2.53007
2.53565
2.53152
2.52394
2.5123
2.49348
2.46897
2.44816
2.43469
2.4265
2.42067
2.41607
2.41379
2.41752
2.42208
2.41882
2.41033
2.39824
2.38656
2.38106
2.37789
2.37324
2.36766
2.36252
2.35662
2.3493
2.33919
2.3237
2.3086
2.30069
2.29631
2.29308
2.29227
2.29777
2.30514
2.30695
2.31327
2.33911
2.41228
2.54706
2.74132
2.99276
3.24342
3.47268
3.55904
3.63354
3.69567
3.73235
3.77354
3.79849
3.81178
3.81874
3.81615
3.80575
3.78738
3.76491
3.73634
3.7084
3.69702
3.69649
3.69921
3.70771
3.72447
3.73196
3.72872
3.71941
3.7022
3.68485
3.6755
3.67059
3.66595
3.66031
3.65415
3.64978
3.64834
3.64726
3.64821
3.65502
3.66482
3.66553
3.6629
3.65701
3.64069
3.61365
3.58528
3.5702
3.56747
3.57257
3.57778
3.57849
3.57922
3.58168
3.58051
3.57577
3.56712
3.5519
3.53039
3.50878
3.49384
3.48862
3.49534
3.51684
3.53294
3.53854
3.54163
3.54341
3.54095
3.53469
3.52462
3.5074
3.47931
3.45053
3.43309
3.42345
3.41819
3.41516
3.41545
3.4232
3.43872
3.46219
3.47998
3.48145
3.47416
3.45562
3.42443
3.39564
3.37872
3.37024
3.36512
3.36457
3.36928
3.3844
3.39959
3.39995
3.39295
3.37781
3.35634
3.3392
3.32724
3.31843
3.3137
3.31084
3.3079
3.30382
3.29827
3.29154
3.28493
3.27944
3.2741
3.26722
3.25839
3.25162
3.25059
3.25538
3.26787
3.27975
3.2806
3.27175
3.25575
3.24221
3.23298
3.22265
3.20531
3.18086
3.16665
3.16332
3.16447
3.17096
3.19118
3.21166
3.21445
3.20916
3.1962
3.15873
2.37916
2.37013
2.36237
2.35593
2.34802
2.33956
2.33151
2.32314
2.31579
2.3099
2.30485
2.30119
2.29723
2.29116
2.28343
2.27257
2.25521
2.23234
2.21193
2.19778
2.18803
2.18054
2.17462
2.16999
2.16709
2.16431
2.16031
2.15613
2.15149
2.14612
2.13919
2.12917
2.12147
2.11596
2.11059
2.10423
2.09616
2.08502
2.06864
2.05009
2.03563
2.0249
2.01499
2.00496
1.99651
1.98937
1.98265
1.97794
1.97428
1.971
1.9681
1.96588
1.96642
1.97013
1.97409
1.9805
1.99305
2.01484
2.05387
2.10387
2.16002
2.23195
2.30723
2.3824
2.4652
2.51957
2.55339
2.564
2.56422
2.57198
2.59007
2.61384
2.62967
2.63085
2.62457
2.61744
2.60704
2.58728
2.56328
2.53931
2.51878
2.50738
2.50188
2.49813
2.49613
2.4997
2.50751
2.51171
2.50803
2.49686
2.4822
2.4654
2.44805
2.43211
2.41893
2.40923
2.40134
2.39647
2.39501
2.39968
2.4039
2.39897
2.39034
2.38597
2.38299
2.37862
2.37397
2.36833
2.36041
2.35091
2.34058
2.32741
2.31125
2.29794
2.28877
2.28107
2.2763
2.27369
2.27659
2.28424
2.29316
2.29325
2.28899
2.29414
2.32287
2.40967
2.56723
2.79594
3.06005
3.30876
3.54847
3.61026
3.66607
3.70902
3.72978
3.76237
3.77627
3.77739
3.77465
3.76381
3.74541
3.72544
3.70457
3.68958
3.68667
3.69037
3.70016
3.71212
3.71587
3.71244
3.70322
3.68646
3.66778
3.65578
3.64926
3.64516
3.64158
3.63781
3.63318
3.63004
3.6282
3.62759
3.63264
3.64257
3.6431
3.64121
3.63857
3.63153
3.61655
3.59421
3.57594
3.56693
3.56117
3.55642
3.553
3.5513
3.55023
3.54821
3.54398
3.53874
3.53387
3.5267
3.51819
3.51271
3.5121
3.51289
3.51202
3.51146
3.5119
3.515
3.51768
3.51517
3.5081
3.49533
3.47559
3.44526
3.41899
3.40629
3.40138
3.40041
3.40231
3.41592
3.45276
3.48398
3.4886
3.48314
3.47382
3.45491
3.41535
3.37437
3.35776
3.35362
3.35407
3.35694
3.36923
3.3912
3.39711
3.39337
3.38663
3.37354
3.3464
3.31617
3.30273
3.29932
3.297
3.2954
3.29362
3.29009
3.28545
3.27897
3.27078
3.26248
3.25497
3.2484
3.24476
3.24503
3.25256
3.27064
3.28956
3.29363
3.28942
3.27757
3.25603
3.23107
3.21041
3.18968
3.16712
3.15409
3.15058
3.15043
3.15469
3.17391
3.20273
3.21476
3.21331
3.20893
3.19696
3.15296
2.39393
2.38476
2.37549
2.36505
2.35465
2.34474
2.3339
2.32537
2.31901
2.31351
2.30937
2.30694
2.30467
2.30033
2.2942
2.28681
2.27694
2.26264
2.24376
2.223
2.20488
2.19211
2.18348
2.17635
2.17019
2.16456
2.15913
2.15428
2.14969
2.14489
2.13967
2.13418
2.12867
2.12411
2.11992
2.11396
2.10669
2.09755
2.08394
2.06527
2.04856
2.03787
2.03002
2.02281
2.01472
2.00571
1.99661
1.98771
1.97927
1.97159
1.96578
1.96146
1.95804
1.95579
1.95604
1.95872
1.9616
1.96019
1.95575
1.95416
1.95549
1.96773
1.99777
2.04324
2.11289
2.1947
2.27703
2.36786
2.43373
2.47493
2.50948
2.53024
2.54349
2.5638
2.59101
2.59932
2.59493
2.58427
2.57775
2.56776
2.55274
2.53356
2.51385
2.49723
2.48711
2.47885
2.47389
2.47613
2.48372
2.48677
2.48148
2.47397
2.46559
2.45379
2.43654
2.41554
2.39821
2.38839
2.3825
2.3789
2.3786
2.38267
2.38513
2.3842
2.38183
2.3796
2.37793
2.37433
2.36918
2.36254
2.35374
2.34191
2.32543
2.30487
2.2871
2.27552
2.26625
2.25973
2.25626
2.25487
2.26082
2.27488
2.28185
2.2838
2.27695
2.26717
2.2752
2.32431
2.44156
2.62675
2.8766
3.14259
3.36626
3.57842
3.63241
3.67952
3.70479
3.71242
3.73164
3.73571
3.73224
3.72341
3.70821
3.6933
3.68165
3.67878
3.68297
3.69276
3.70383
3.70732
3.70368
3.6949
3.67775
3.65266
3.6328
3.62352
3.61948
3.6163
3.61199
3.60654
3.60302
3.60208
3.60363
3.61447
3.63119
3.63923
3.64205
3.63954
3.6318
3.61526
3.58627
3.55643
3.54
3.53203
3.52629
3.52142
3.51853
3.51951
3.52509
3.53184
3.53643
3.53897
3.53965
3.53521
3.52219
3.50342
3.49287
3.48938
3.487
3.48526
3.4866
3.48834
3.48517
3.47853
3.46714
3.44777
3.41907
3.3986
3.39293
3.39246
3.39813
3.41823
3.44436
3.46478
3.47386
3.47044
3.46129
3.44314
3.41016
3.36755
3.34619
3.34237
3.343
3.34939
3.36872
3.37998
3.37977
3.37681
3.37206
3.36071
3.33454
3.30019
3.28679
3.28361
3.2815
3.28045
3.28127
3.2795
3.27539
3.26913
3.25976
3.24952
3.24141
3.23705
3.23646
3.24301
3.26474
3.29086
3.29687
3.29345
3.28784
3.27693
3.25362
3.21878
3.1829
3.15803
3.14625
3.1414
3.14026
3.14166
3.15547
3.18688
3.21044
3.21119
3.20891
3.20522
3.19471
3.15016
2.41143
2.40186
2.39092
2.37843
2.36481
2.3511
2.33906
2.32971
2.32264
2.31694
2.3127
2.3103
2.30854
2.30517
2.30032
2.29456
2.28775
2.27971
2.26909
2.25544
2.2381
2.21796
2.20049
2.18825
2.17866
2.1702
2.16259
2.15556
2.14933
2.14321
2.13828
2.1345
2.13147
2.12907
2.12582
2.12017
2.11354
2.10608
2.09606
2.08083
2.06226
2.0489
2.04121
2.03492
2.02843
2.02139
2.01307
2.00295
1.99161
1.98128
1.973
1.96585
1.95979
1.95514
1.95161
1.94909
1.94808
1.94887
1.94906
1.9479
1.94696
1.93636
1.92084
1.90921
1.90866
1.92441
1.95713
2.00946
2.08011
2.15998
2.24852
2.32848
2.38323
2.43289
2.47396
2.50101
2.52767
2.55187
2.55898
2.55848
2.55591
2.55007
2.5382
2.5199
2.49608
2.47674
2.46179
2.45338
2.45121
2.45659
2.46948
2.47202
2.46713
2.46155
2.45239
2.43741
2.41427
2.39066
2.37789
2.37121
2.36486
2.35987
2.3579
2.35981
2.36235
2.36598
2.37071
2.37212
2.36988
2.36712
2.36275
2.35578
2.34474
2.32712
2.30262
2.27828
2.26173
2.25176
2.24557
2.24216
2.23983
2.24223
2.25611
2.27395
2.27455
2.27283
2.27261
2.25512
2.24261
2.2615
2.32323
2.46796
2.67015
2.92952
3.20089
3.41586
3.5975
3.64404
3.67553
3.70397
3.69695
3.69437
3.69596
3.69157
3.67749
3.6649
3.65908
3.66102
3.67256
3.69076
3.69872
3.69695
3.68966
3.67186
3.64299
3.61779
3.60649
3.60063
3.5946
3.58893
3.5842
3.58086
3.58021
3.58349
3.59994
3.62826
3.63991
3.63876
3.63496
3.62514
3.60192
3.56339
3.52921
3.51253
3.50381
3.49886
3.49572
3.49637
3.50726
3.52503
3.53527
3.54128
3.54283
3.53982
3.53064
3.50946
3.48223
3.4694
3.46514
3.46163
3.45856
3.45805
3.4573
3.45424
3.45028
3.44245
3.43051
3.41552
3.40378
3.40168
3.40941
3.4213
3.4277
3.4334
3.44113
3.44213
3.43648
3.42343
3.40121
3.37389
3.34892
3.33736
3.33592
3.34094
3.35283
3.36008
3.35953
3.35724
3.35362
3.34537
3.32575
3.29571
3.27626
3.27096
3.26869
3.26796
3.27065
3.27107
3.268
3.26245
3.25182
3.24014
3.23544
3.23459
3.23726
3.2498
3.27158
3.28337
3.28394
3.28093
3.27617
3.26702
3.24455
3.20269
3.16416
3.14592
3.13791
3.13482
3.1338
3.14219
3.17087
3.19493
3.19449
3.1934
3.19286
3.19025
3.1831
3.15004
2.42776
2.41877
2.40842
2.39554
2.37906
2.3617
2.34855
2.33889
2.3304
2.32318
2.31753
2.31318
2.30954
2.30562
2.30134
2.29683
2.29225
2.2875
2.28143
2.27379
2.26405
2.25079
2.23182
2.20942
2.19207
2.18039
2.17074
2.16116
2.15154
2.145
2.14012
2.13553
2.13192
2.13034
2.12953
2.12501
2.11882
2.11244
2.10516
2.09458
2.07915
2.06333
2.0523
2.04419
2.03675
2.02941
2.02201
2.01384
2.0048
1.99553
1.98675
1.97818
1.97006
1.96308
1.9569
1.95151
1.94719
1.94425
1.94239
1.94197
1.94078
1.93757
1.93269
1.92519
1.90858
1.88554
1.87525
1.87259
1.87955
1.89809
1.93051
1.98092
2.049
2.12981
2.21003
2.27987
2.34445
2.40448
2.45026
2.48779
2.51418
2.52283
2.52362
2.51793
2.5057
2.49084
2.46661
2.44824
2.44118
2.43704
2.4396
2.45488
2.46621
2.46294
2.45397
2.44535
2.43331
2.41412
2.39069
2.37175
2.35981
2.35095
2.34599
2.34248
2.33908
2.33771
2.34007
2.34639
2.35689
2.36379
2.36169
2.35715
2.35099
2.34138
2.3248
2.29904
2.26935
2.24905
2.24
2.23475
2.23138
2.22907
2.23025
2.24301
2.26487
2.27259
2.2681
2.26191
2.25558
2.22907
2.19928
2.20277
2.23653
2.32881
2.50639
2.73228
3.01016
3.26545
3.46223
3.61381
3.65778
3.67862
3.69829
3.6865
3.66576
3.64957
3.62944
3.61885
3.61929
3.63532
3.66586
3.6844
3.68392
3.67683
3.66448
3.64319
3.61733
3.59638
3.58516
3.57931
3.57443
3.56892
3.56575
3.56481
3.56725
3.58042
3.60714
3.62546
3.62451
3.61991
3.61019
3.58546
3.54381
3.50715
3.49207
3.48593
3.48279
3.48203
3.48475
3.49454
3.51703
3.5311
3.53264
3.53122
3.52692
3.51537
3.49025
3.4619
3.4483
3.44212
3.43777
3.43452
3.43202
3.42914
3.42656
3.42711
3.42929
3.43069
3.42852
3.42317
3.41927
3.41603
3.41119
3.40766
3.40731
3.40626
3.40093
3.39267
3.38314
3.37274
3.36025
3.34583
3.33703
3.33597
3.33829
3.33925
3.33855
3.33683
3.33313
3.32561
3.31177
3.29399
3.27652
3.26443
3.26038
3.26003
3.26415
3.26475
3.26206
3.25787
3.25006
3.24113
3.23851
3.239
3.24295
3.24994
3.25678
3.2644
3.26681
3.26462
3.26134
3.25443
3.2353
3.19402
3.1527
3.13807
3.13511
3.13294
3.1353
3.15221
3.17907
3.18248
3.17985
3.17817
3.17578
3.17101
3.16445
3.14693
2.44242
2.43362
2.4237
2.41157
2.39596
2.3791
2.36484
2.35398
2.34413
2.33454
2.32598
2.31808
2.31126
2.30523
2.29959
2.29493
2.29187
2.29081
2.2889
2.28454
2.27829
2.27049
2.25922
2.24094
2.21651
2.19622
2.1826
2.17015
2.158
2.15013
2.14481
2.13966
2.13494
2.13198
2.13099
2.12698
2.12128
2.11562
2.1099
2.10338
2.09468
2.08434
2.07271
2.05963
2.04684
2.03633
2.02736
2.01923
2.01169
2.00462
1.99784
1.99102
1.98382
1.97586
1.96734
1.95922
1.95256
1.94756
1.94374
1.94089
1.93924
1.93865
1.93628
1.93142
1.92325
1.9081
1.88407
1.8686
1.86078
1.85511
1.85272
1.85466
1.86389
1.88327
1.9164
1.96512
2.03065
2.10779
2.18161
2.2488
2.3089
2.36053
2.40601
2.44652
2.46814
2.47109
2.46313
2.44939
2.4418
2.42936
2.42393
2.42377
2.43024
2.4439
2.45216
2.4481
2.43838
2.42695
2.41291
2.39401
2.37079
2.35189
2.34273
2.33735
2.33127
2.32426
2.32038
2.31862
2.32272
2.33708
2.3513
2.35204
2.34717
2.3404
2.3311
2.31564
2.29077
2.26193
2.24137
2.23154
2.22646
2.22364
2.22275
2.22501
2.23408
2.25023
2.26286
2.26246
2.25492
2.24276
2.22295
2.18481
2.16428
2.16542
2.18472
2.24361
2.3712
2.58331
2.83533
3.11953
3.34144
3.51301
3.61686
3.65272
3.67268
3.66982
3.63953
3.60871
3.59673
3.59272
3.60012
3.62808
3.65856
3.6687
3.66347
3.65176
3.63543
3.61184
3.5917
3.58289
3.57644
3.56775
3.55749
3.55234
3.55099
3.55131
3.55888
3.57883
3.6013
3.60534
3.60094
3.59063
3.56966
3.53274
3.49611
3.4808
3.47604
3.47342
3.47399
3.47881
3.48776
3.50186
3.51301
3.5152
3.51329
3.50799
3.49595
3.47198
3.44342
3.42901
3.4224
3.41743
3.41378
3.4122
3.41198
3.41568
3.42668
3.4379
3.44002
3.4355
3.42319
3.40531
3.39293
3.38461
3.37615
3.36747
3.36273
3.36281
3.36417
3.36468
3.36443
3.36049
3.3509
3.33588
3.32396
3.32028
3.31895
3.31635
3.31145
3.30417
3.29535
3.28727
3.28033
3.27181
3.26367
3.26118
3.26222
3.2632
3.26229
3.25979
3.25581
3.2497
3.24425
3.24225
3.24161
3.24134
3.24197
3.24529
3.24686
3.24545
3.24273
3.23738
3.22275
3.19123
3.153
3.13661
3.13368
3.13364
3.14069
3.16022
3.17074
3.1687
3.16571
3.16336
3.16104
3.15732
3.15181
3.14596
2.45561
2.44616
2.43555
2.42361
2.4103
2.39713
2.38546
2.37576
2.36608
2.35463
2.34072
2.32636
2.31482
2.30638
2.29977
2.29395
2.28885
2.28676
2.29037
2.29155
2.28723
2.28083
2.27327
2.26277
2.24599
2.22171
2.19816
2.18149
2.1688
2.15911
2.15265
2.14714
2.14164
2.13647
2.13238
2.12837
2.1227
2.11688
2.11174
2.10742
2.1032
2.09811
2.09112
2.08093
2.06506
2.04571
2.03156
2.02221
2.0153
2.00983
2.00493
1.99991
1.99424
1.98747
1.97929
1.97003
1.96102
1.95368
1.94824
1.94417
1.9413
1.93961
1.9382
1.93589
1.93188
1.92524
1.91195
1.88664
1.86276
1.85235
1.84727
1.84417
1.8413
1.8399
1.84165
1.84893
1.86114
1.88006
1.90829
1.94997
2.00218
2.05651
2.11534
2.17865
2.24071
2.30922
2.36995
2.40653
2.42294
2.42179
2.40323
2.40043
2.40108
2.40269
2.41206
2.42552
2.43304
2.42995
2.42154
2.40869
2.3927
2.3768
2.3604
2.34455
2.33048
2.31988
2.31351
2.31018
2.30771
2.30779
2.31485
2.32542
2.33223
2.33173
2.32637
2.31601
2.30116
2.28032
2.25859
2.2411
2.22883
2.22243
2.21978
2.22004
2.22245
2.22577
2.23284
2.24327
2.24788
2.24345
2.23097
2.20949
2.17754
2.15528
2.15034
2.15044
2.15878
2.19486
2.28523
2.46263
2.69263
2.94095
3.19164
3.37811
3.53312
3.59328
3.61147
3.62777
3.61826
3.58565
3.58231
3.58616
3.59863
3.62828
3.64324
3.64258
3.6319
3.61054
3.58709
3.5771
3.57304
3.56796
3.56157
3.55078
3.54104
3.53827
3.53725
3.54022
3.5527
3.5727
3.582
3.5813
3.57242
3.55459
3.52362
3.49028
3.4742
3.46911
3.46638
3.46674
3.47097
3.479
3.4885
3.49243
3.49219
3.49105
3.48731
3.47579
3.45271
3.42622
3.41102
3.40383
3.40074
3.39957
3.4026
3.41756
3.43427
3.43676
3.43428
3.42867
3.41672
3.39385
3.3706
3.35546
3.34433
3.33661
3.33383
3.33698
3.34613
3.3585
3.36744
3.36762
3.36108
3.34328
3.31765
3.30293
3.29772
3.29446
3.29037
3.28554
3.28218
3.28169
3.28458
3.28573
3.28293
3.27616
3.26691
3.26312
3.26267
3.25965
3.25492
3.24948
3.24379
3.23801
3.23319
3.23036
3.22923
3.22904
3.22777
3.22541
3.22188
3.21592
3.20567
3.18892
3.16844
3.14926
3.13942
3.13851
3.14462
3.15543
3.15817
3.15611
3.15384
3.1514
3.14897
3.14772
3.14926
3.14778
2.46676
2.45687
2.44462
2.43075
2.41884
2.41055
2.40354
2.39665
2.3888
2.37898
2.36497
2.34465
2.32406
2.31095
2.30243
2.29568
2.28989
2.28551
2.28607
2.29139
2.29155
2.28642
2.28036
2.27349
2.26414
2.24849
2.22345
2.19697
2.18011
2.16891
2.16111
2.15587
2.15036
2.14418
2.13785
2.13148
2.12491
2.11881
2.11371
2.11002
2.10785
2.1056
2.10141
2.09523
2.08565
2.06883
2.04468
2.02617
2.01741
2.01181
2.00723
2.00329
1.99935
1.99462
1.98846
1.98049
1.97136
1.96258
1.95489
1.94892
1.94475
1.94167
1.94012
1.93893
1.93628
1.93224
1.92611
1.91309
1.88935
1.86509
1.85069
1.84316
1.83816
1.835
1.83396
1.83352
1.8344
1.83773
1.84226
1.8475
1.85316
1.86
1.87494
1.90431
1.94313
1.99965
2.07032
2.14211
2.22144
2.30561
2.34477
2.36609
2.36636
2.3581
2.3588
2.36853
2.38861
2.40617
2.40994
2.40549
2.39858
2.39249
2.38064
2.36295
2.3456
2.33019
2.31705
2.30879
2.30355
2.2991
2.29624
2.29599
2.30104
2.31037
2.31275
2.30918
2.29986
2.28529
2.2696
2.25573
2.2435
2.23228
2.22445
2.22036
2.21856
2.21809
2.21719
2.21791
2.22164
2.22635
2.22585
2.21712
2.20003
2.17456
2.15151
2.14432
2.14201
2.14152
2.14636
2.17037
2.23197
2.34615
2.53927
2.75789
3.00323
3.22505
3.38589
3.51857
3.55231
3.56646
3.58465
3.57505
3.57555
3.59617
3.61031
3.60746
3.60048
3.5908
3.57743
3.56192
3.55307
3.5508
3.55029
3.5484
3.54215
3.53319
3.52873
3.52766
3.5295
3.53851
3.5526
3.55567
3.55554
3.55066
3.53656
3.51133
3.48293
3.46782
3.46156
3.45754
3.45832
3.46479
3.47482
3.47861
3.47747
3.47514
3.47123
3.46603
3.45429
3.43069
3.40496
3.394
3.39126
3.39054
3.39644
3.41232
3.41929
3.41824
3.41622
3.4118
3.40139
3.38208
3.3569
3.33788
3.32729
3.32161
3.31915
3.32233
3.3398
3.36454
3.37026
3.36786
3.36142
3.34809
3.32129
3.29465
3.28266
3.27718
3.27414
3.27239
3.275
3.28598
3.29907
3.30386
3.3024
3.29546
3.27918
3.25881
3.24745
3.2433
3.23954
3.2363
3.23303
3.22925
3.22553
3.22111
3.21662
3.21235
3.20926
3.20564
3.20063
3.19432
3.18779
3.18245
3.17619
3.16649
3.15465
3.14737
3.14649
3.14745
3.14585
3.14379
3.14254
3.14136
3.14081
3.14138
3.14162
3.13684
2.47673
2.46631
2.45197
2.43575
2.42709
2.42076
2.41577
2.41125
2.40522
2.39758
2.38715
2.37019
2.34576
2.32404
2.3105
2.30118
2.29407
2.2887
2.286
2.28788
2.28988
2.28802
2.28381
2.27848
2.27162
2.26267
2.248
2.22397
2.19788
2.17995
2.16818
2.16153
2.15661
2.15151
2.14514
2.13787
2.13019
2.12306
2.11723
2.11258
2.11002
2.10948
2.10698
2.10205
2.09566
2.08643
2.07123
2.04973
2.03004
2.01781
2.01033
2.00459
1.99994
1.99612
1.99205
1.98656
1.97903
1.97118
1.96395
1.95676
1.9505
1.94623
1.94302
1.94086
1.94007
1.93798
1.93348
1.92675
1.91307
1.8887
1.86662
1.8544
1.84573
1.83851
1.83413
1.83135
1.83
1.82935
1.82881
1.82816
1.83173
1.83561
1.83238
1.82736
1.82337
1.82537
1.84052
1.8647
1.9054
1.96994
2.04227
2.11416
2.19963
2.25328
2.27371
2.29486
2.31244
2.32589
2.34503
2.37048
2.38196
2.38207
2.37465
2.36179
2.35462
2.34623
2.33549
2.32475
2.31323
2.29828
2.29105
2.28927
2.28787
2.28945
2.29445
2.29196
2.28704
2.28096
2.27017
2.25861
2.25009
2.24307
2.23552
2.2273
2.21987
2.21537
2.21157
2.20723
2.204
2.2031
2.20532
2.20674
2.20253
2.18989
2.1724
2.15265
2.14081
2.13656
2.13407
2.1336
2.13942
2.15872
2.19257
2.2544
2.37802
2.5992
2.83591
3.07373
3.24875
3.37923
3.49245
3.5254
3.54777
3.57988
3.58659
3.58588
3.58486
3.58136
3.57015
3.55158
3.53327
3.52388
3.52155
3.52587
3.53062
3.52785
3.52257
3.52076
3.51905
3.52015
3.5291
3.53616
3.53498
3.53222
3.52655
3.5146
3.49416
3.47144
3.45736
3.45013
3.44738
3.45036
3.45766
3.46413
3.46439
3.46293
3.45971
3.45455
3.44653
3.43153
3.40773
3.38853
3.3833
3.38402
3.39241
3.4019
3.40268
3.40093
3.39835
3.39372
3.38556
3.37122
3.34869
3.32831
3.31881
3.31482
3.31311
3.31802
3.33093
3.34617
3.35155
3.35078
3.34922
3.34343
3.3284
3.30038
3.27609
3.26744
3.26516
3.26554
3.27827
3.30376
3.31463
3.31322
3.30871
3.3003
3.28054
3.24905
3.2302
3.22526
3.22239
3.21967
3.21806
3.21855
3.21635
3.2116
3.20534
3.19805
3.19141
3.18649
3.18205
3.17766
3.17516
3.17463
3.17516
3.17498
3.17216
3.16517
3.15388
3.14351
3.13681
3.13308
3.1309
3.12975
3.12899
3.12652
3.12334
3.11825
2.48548
2.47424
2.45887
2.44468
2.43623
2.43014
2.42563
2.42209
2.41656
2.40943
2.40093
2.38843
2.37013
2.34944
2.33088
2.31602
2.30534
2.29778
2.29217
2.28824
2.28585
2.28478
2.28362
2.28015
2.27495
2.26863
2.26067
2.24801
2.22811
2.20349
2.18098
2.16765
2.16074
2.15517
2.14962
2.14338
2.13655
2.12943
2.12307
2.11802
2.11408
2.11135
2.10819
2.10403
2.0994
2.09374
2.08578
2.0743
2.05885
2.04026
2.0225
2.01027
2.00253
1.99662
1.99218
1.98814
1.98314
1.97703
1.97119
1.96523
1.95876
1.95258
1.94826
1.94508
1.94239
1.94089
1.93888
1.93416
1.927
1.91285
1.88887
1.86871
1.85789
1.84957
1.84214
1.83699
1.8328
1.82914
1.82618
1.82397
1.82256
1.82338
1.82743
1.82728
1.82406
1.81771
1.80506
1.7893
1.78409
1.78836
1.80329
1.83133
1.87676
1.93753
2.00737
2.08312
2.14591
2.18908
2.22832
2.26208
2.29345
2.32189
2.33043
2.33514
2.33979
2.339
2.33128
2.32815
2.3237
2.31181
2.29866
2.29103
2.2858
2.28331
2.2835
2.28375
2.27935
2.27364
2.26603
2.25596
2.24843
2.24395
2.23927
2.23321
2.22599
2.21737
2.20918
2.20202
2.19618
2.19274
2.19012
2.18926
2.18873
2.18607
2.17783
2.16387
2.14729
2.13277
2.12682
2.12445
2.12293
2.12649
2.13895
2.15004
2.16261
2.19628
2.27838
2.43455
2.67617
2.89737
3.102
3.2611
3.38771
3.47501
3.52723
3.55677
3.57744
3.58035
3.57972
3.57042
3.54986
3.52586
3.51032
3.50301
3.50113
3.50387
3.50605
3.50387
3.5029
3.50179
3.50347
3.51352
3.51964
3.51846
3.51674
3.50998
3.49733
3.47776
3.45682
3.44327
3.43709
3.43439
3.43463
3.43745
3.44094
3.44442
3.4458
3.44352
3.43832
3.4299
3.41601
3.39607
3.37925
3.37483
3.37399
3.37658
3.38051
3.38028
3.37849
3.37586
3.37048
3.36075
3.34606
3.32985
3.31972
3.31578
3.31575
3.32112
3.32966
3.33376
3.33331
3.33154
3.32963
3.32746
3.3214
3.30829
3.29021
3.2743
3.26859
3.2707
3.2824
3.2948
3.30005
3.29885
3.29484
3.28644
3.26979
3.24227
3.21793
3.20973
3.20688
3.20469
3.20317
3.2048
3.20524
3.20162
3.19583
3.18678
3.17632
3.17011
3.167
3.16555
3.16554
3.16836
3.17447
3.18011
3.18002
3.17569
3.16478
3.14658
3.13138
3.12501
3.12346
3.12096
3.11574
3.10775
3.10055
3.09622
2.4923
2.4796
2.46496
2.4546
2.44687
2.44064
2.43632
2.43074
2.42388
2.41678
2.4086
2.39793
2.38415
2.36983
2.35583
2.3409
2.32566
2.31244
2.30218
2.29458
2.28861
2.28357
2.27988
2.27737
2.27494
2.27097
2.2655
2.25898
2.24985
2.23519
2.21154
2.18359
2.16681
2.1588
2.15284
2.14697
2.14133
2.13567
2.12978
2.12447
2.11993
2.11471
2.10871
2.10293
2.09825
2.0948
2.0909
2.08497
2.07666
2.06596
2.05107
2.03128
2.01211
1.99982
1.99275
1.98749
1.98318
1.97997
1.97554
1.97068
1.96572
1.96009
1.95415
1.94996
1.94672
1.94349
1.94068
1.9382
1.93345
1.92628
1.9127
1.89028
1.87118
1.86063
1.85278
1.84519
1.83817
1.83329
1.82985
1.82632
1.82258
1.81978
1.82321
1.82892
1.82507
1.81919
1.81319
1.80346
1.78613
1.76718
1.7586
1.7568
1.75919
1.76768
1.78353
1.81077
1.85404
1.91193
1.98125
2.04448
2.09667
2.14901
2.19559
2.23358
2.26327
2.28503
2.29481
2.30456
2.30977
2.30514
2.29822
2.29632
2.28978
2.27982
2.27855
2.27985
2.27839
2.27476
2.26919
2.25903
2.24798
2.24039
2.23491
2.23101
2.22608
2.21968
2.21092
2.19986
2.19117
2.18667
2.18369
2.18157
2.17825
2.17275
2.1669
2.16094
2.14957
2.13272
2.12094
2.1169
2.11497
2.11329
2.11547
2.12736
2.14107
2.14401
2.14402
2.15817
2.20693
2.30878
2.47731
2.71543
2.93774
3.10842
3.25687
3.38552
3.47068
3.52363
3.55463
3.56838
3.56899
3.55984
3.53769
3.50697
3.48951
3.48549
3.48225
3.4763
3.47242
3.4724
3.47282
3.47824
3.49307
3.50923
3.51141
3.50997
3.50437
3.49206
3.47218
3.449
3.43326
3.42516
3.41781
3.413
3.41173
3.41325
3.41893
3.42602
3.42662
3.42377
3.42009
3.41018
3.39214
3.37333
3.36415
3.35997
3.3584
3.35819
3.35818
3.35708
3.35437
3.34923
3.3432
3.33649
3.32856
3.32277
3.32126
3.32328
3.32002
3.31529
3.31304
3.31233
3.31167
3.30988
3.30689
3.30467
3.30117
3.29443
3.28463
3.28045
3.27947
3.27784
3.27783
3.27652
3.27305
3.26734
3.25466
3.235
3.2134
3.19921
3.19413
3.19172
3.1903
3.19205
3.19345
3.19081
3.18649
3.17786
3.16546
3.15878
3.15701
3.15591
3.15587
3.16145
3.17433
3.17969
3.17841
3.17551
3.16826
3.15387
3.13658
3.12305
3.11247
3.10371
3.09424
3.08289
3.07664
3.07408
2.49766
2.4836
2.47307
2.46486
2.45805
2.4528
2.44638
2.4386
2.43051
2.42186
2.4119
2.40116
2.39102
2.38238
2.37361
2.36348
2.35046
2.33397
2.31705
2.30368
2.29434
2.28737
2.28128
2.27592
2.27242
2.2708
2.26824
2.26435
2.25959
2.25263
2.2405
2.21899
2.18719
2.16487
2.1563
2.15026
2.14486
2.14053
2.13707
2.13227
2.12683
2.12092
2.11396
2.10576
2.09869
2.0934
2.08918
2.08653
2.08245
2.07677
2.06855
2.05657
2.0381
2.01499
1.99908
1.99115
1.98555
1.98086
1.97658
1.97293
1.96906
1.96486
1.95985
1.95432
1.95077
1.94754
1.94404
1.94071
1.9377
1.93298
1.92596
1.91309
1.89204
1.87327
1.86231
1.85331
1.84364
1.83697
1.83358
1.83024
1.82638
1.82242
1.81968
1.82304
1.82806
1.82396
1.81829
1.81167
1.80135
1.78368
1.76189
1.75048
1.74589
1.7438
1.7432
1.74525
1.74884
1.75477
1.76675
1.79066
1.82842
1.88019
1.94488
2.01578
2.07146
2.1181
2.16009
2.19048
2.22174
2.25326
2.26934
2.27723
2.27441
2.26848
2.27066
2.27394
2.27855
2.28136
2.27966
2.27171
2.25778
2.24347
2.2311
2.22154
2.21877
2.21694
2.21089
2.20088
2.1902
2.1828
2.17934
2.17721
2.17348
2.16693
2.15902
2.15018
2.14177
2.13212
2.11993
2.11281
2.10974
2.10684
2.10442
2.10622
2.1174
2.13092
2.13353
2.13373
2.13231
2.12972
2.14634
2.20306
2.3103
2.49866
2.74616
2.97676
3.14118
3.2768
3.40183
3.4919
3.52919
3.54069
3.54213
3.53135
3.5093
3.49125
3.4762
3.4637
3.45723
3.45474
3.45332
3.45225
3.45502
3.4699
3.49368
3.50563
3.50429
3.50067
3.49107
3.47189
3.44611
3.42368
3.40851
3.39797
3.39113
3.38857
3.38787
3.39106
3.40209
3.41352
3.41308
3.41133
3.40513
3.39035
3.36757
3.34961
3.3409
3.3376
3.33615
3.33707
3.33963
3.33987
3.34131
3.34145
3.3391
3.33327
3.32363
3.31399
3.30514
3.29883
3.29601
3.29443
3.29436
3.29848
3.30165
3.30433
3.30448
3.30187
3.29482
3.27994
3.26563
3.26046
3.25749
3.25399
3.24931
3.24218
3.23218
3.22108
3.20989
3.19656
3.18593
3.18207
3.18107
3.18323
3.18317
3.17964
3.17485
3.16794
3.15787
3.15104
3.149
3.14799
3.14918
3.16036
3.17338
3.17458
3.1748
3.17337
3.16884
3.15894
3.14068
3.11742
3.09708
3.07931
3.06533
3.05749
3.05448
3.05427
2.50193
2.49121
2.48276
2.47529
2.47027
2.46519
2.45785
2.44991
2.44057
2.42901
2.41472
2.40488
2.39802
2.392
2.38654
2.37935
2.36972
2.35625
2.33789
2.31879
2.30396
2.2934
2.28554
2.27915
2.27337
2.26862
2.26632
2.26657
2.26451
2.25931
2.25276
2.24328
2.22529
2.19308
2.16538
2.15482
2.1486
2.14424
2.14165
2.13779
2.13322
2.12821
2.12254
2.11481
2.10494
2.09705
2.09129
2.08615
2.08238
2.07892
2.07452
2.06792
2.05683
2.04037
2.01966
2.00175
1.99158
1.98642
1.98146
1.97591
1.9712
1.96699
1.9631
1.95829
1.95312
1.94977
1.94647
1.94321
1.94063
1.93814
1.93327
1.92648
1.91491
1.89503
1.87475
1.86211
1.85171
1.84155
1.83661
1.83366
1.83032
1.82643
1.82245
1.81981
1.8225
1.82542
1.82164
1.81697
1.81068
1.8011
1.78442
1.76029
1.7455
1.74057
1.73744
1.73457
1.73334
1.73672
1.73717
1.73414
1.73251
1.73546
1.74579
1.7661
1.80013
1.85099
1.91718
1.97308
2.01583
2.06939
2.1146
2.15192
2.18646
2.21096
2.22965
2.24695
2.26393
2.27543
2.27766
2.27653
2.27045
2.25804
2.2367
2.21753
2.20661
2.20254
2.20204
2.19912
2.19248
2.1845
2.17989
2.17699
2.17195
2.16429
2.15574
2.14686
2.13775
2.12923
2.12137
2.11367
2.10798
2.10354
2.09935
2.09569
2.09423
2.09818
2.10675
2.11518
2.11749
2.11509
2.11308
2.10481
2.09779
2.12057
2.1898
2.32964
2.56278
2.81723
3.04376
3.19639
3.32115
3.43267
3.48477
3.49703
3.50017
3.49562
3.47935
3.46722
3.45906
3.45122
3.44484
3.44189
3.44177
3.44227
3.4496
3.47047
3.4916
3.49339
3.48904
3.47821
3.46211
3.43898
3.41293
3.39177
3.37913
3.37269
3.37013
3.3694
3.37119
3.3815
3.39899
3.40456
3.40187
3.39625
3.38132
3.35389
3.33158
3.32158
3.31813
3.31707
3.3188
3.32872
3.33567
3.33741
3.33617
3.33229
3.32208
3.30648
3.29371
3.28468
3.28077
3.28029
3.28124
3.28792
3.30013
3.30183
3.29917
3.29534
3.28872
3.27591
3.25773
3.24395
3.2364
3.23043
3.22344
3.21462
3.20741
3.20409
3.20128
3.19731
3.19057
3.18141
3.17641
3.17437
3.17274
3.17093
3.16785
3.16184
3.15244
3.14557
3.14296
3.1422
3.14457
3.15309
3.16323
3.17248
3.17301
3.17067
3.16663
3.15728
3.13533
3.10306
3.07088
3.05121
3.0439
3.0412
3.03902
3.0407
2.51119
2.50186
2.49361
2.48663
2.4825
2.4761
2.46866
2.46169
2.45243
2.43711
2.42256
2.41455
2.40794
2.40259
2.39857
2.39205
2.38351
2.373
2.35827
2.33868
2.31848
2.30232
2.29113
2.28366
2.27745
2.2715
2.26653
2.26494
2.26609
2.26278
2.25782
2.25207
2.24373
2.22731
2.19772
2.16948
2.15736
2.15066
2.14469
2.14043
2.13706
2.13292
2.12837
2.12315
2.11606
2.10689
2.09836
2.09129
2.08494
2.07905
2.07415
2.07017
2.06449
2.05461
2.0416
2.02662
2.00963
1.99575
1.98835
1.98171
1.9749
1.96923
1.965
1.96113
1.9559
1.95133
1.94802
1.94469
1.94186
1.94046
1.93911
1.93438
1.92779
1.91736
1.89801
1.87548
1.86047
1.84856
1.8402
1.83677
1.83372
1.83019
1.82618
1.822
1.81951
1.81988
1.81706
1.81468
1.81322
1.80914
1.80039
1.78736
1.76726
1.74777
1.7389
1.73431
1.73059
1.7291
1.72849
1.72635
1.72634
1.72469
1.7201
1.71349