/*--------------------------------*- C++ -*----------------------------------*\
  =========                 |
  \\      /  F ield         | OpenFOAM: The Open Source CFD Toolbox
   \\    /   O peration     | Website:  https://openfoam.org
    \\  /    A nd           | Version:  7
     \\/     M anipulation  |
\*---------------------------------------------------------------------------*/
FoamFile
{
    version     2.0;
    format      ascii;
    class       volScalarField;
    location    "1.6";
    object      T;
}
// * * * * * * * * * * * * * * * * * * * * * * * * * * * * * * * * * * * * * //

dimensions      [0 0 0 1 0 0 0];

internalField   nonuniform List<scalar> 
16192
(
1.35409
1.35564
1.35799
1.35779
1.35753
1.35743
1.3571
1.35633
1.35392
1.34845
1.34093
1.33448
1.33078
1.32945
1.32932
1.33077
1.33454
1.3368
1.3371
1.33759
1.33786
1.33766
1.33524
1.32855
1.31992
1.3153
1.31396
1.31386
1.31559
1.31998
1.32176
1.32131
1.32057
1.31996
1.31957
1.31929
1.31886
1.31683
1.31205
1.30802
1.30702
1.30663
1.30675
1.30864
1.31088
1.31061
1.30971
1.30917
1.30811
1.30431
1.29877
1.29677
1.29642
1.29624
1.29648
1.29716
1.29781
1.29886
1.2998
1.30063
1.30287
1.30787
1.314
1.3202
1.32704
1.33135
1.33257
1.33285
1.33247
1.33031
1.32618
1.32455
1.3247
1.32496
1.3255
1.32845
1.33194
1.33207
1.33128
1.3302
1.32833
1.32459
1.3181
1.31456
1.3144
1.3146
1.31503
1.31613
1.31906
1.3206
1.32023
1.31922
1.31669
1.31177
1.30781
1.30987
1.34302
1.45714
1.59443
1.74236
1.78575
1.80114
1.79959
1.79789
1.78929
1.78476
1.7832
1.78589
1.78815
1.78938
1.78735
1.78204
1.7767
1.7707
1.76574
1.76384
1.76187
1.76034
1.75891
1.75625
1.75369
1.7508
1.74819
1.7456
1.74249
1.73896
1.7356
1.73309
1.7305
1.72866
1.72866
1.72963
1.73027
1.73193
1.7346
1.73483
1.73431
1.73294
1.7308
1.72847
1.72562
1.72167
1.71662
1.71115
1.70618
1.70226
1.69938
1.69719
1.69554
1.69393
1.69194
1.6895
1.68714
1.68508
1.68324
1.6815
1.67961
1.67735
1.67416
1.67057
1.66808
1.66626
1.66469
1.66346
1.66156
1.65938
1.65718
1.65467
1.65161
1.64867
1.64666
1.64553
1.64441
1.64313
1.64155
1.63903
1.63583
1.63314
1.63078
1.62827
1.62634
1.62518
1.62465
1.62379
1.62238
1.62018
1.61644
1.61166
1.60727
1.60379
1.60111
1.59915
1.59783
1.59612
1.59415
1.592
1.58907
1.58603
1.58394
1.58202
1.58081
1.58093
1.58296
1.59
1.59913
1.60706
1.61157
1.61363
1.61286
1.61136
1.60864
1.60441
1.5997
1.59571
1.59214
1.58867
1.58557
1.58262
1.5797
1.57738
1.57515
1.57234
1.56873
1.56545
1.56316
1.56148
1.56026
1.55946
1.5594
1.56173
1.56548
1.56607
1.56462
1.56242
1.56005
1.55665
1.55235
1.54825
1.54379
1.5381
1.531
1.5251
1.52253
1.52191
1.52241
1.52224
1.52114
1.52039
1.51963
1.51891
1.51885
1.52079
1.5241
1.35769
1.36092
1.36185
1.36163
1.36159
1.36135
1.36056
1.35743
1.35089
1.34276
1.33687
1.33369
1.33234
1.33223
1.33372
1.33723
1.33904
1.33916
1.33959
1.33994
1.33979
1.33744
1.33083
1.32216
1.31736
1.31586
1.31568
1.31715
1.32139
1.32325
1.32282
1.32208
1.3215
1.3211
1.32076
1.32023
1.31816
1.31335
1.30887
1.30755
1.30722
1.30732
1.3091
1.31194
1.31209
1.31106
1.31023
1.30927
1.30607
1.30022
1.29731
1.29697
1.29683
1.29733
1.29816
1.29795
1.29798
1.29818
1.2984
1.29838
1.29896
1.30146
1.30622
1.31267
1.32139
1.32646
1.32812
1.32885
1.32853
1.32611
1.32347
1.3233
1.32369
1.3243
1.32686
1.33085
1.33155
1.33087
1.32981
1.32795
1.32446
1.31822
1.31389
1.3135
1.3137
1.31424
1.3155
1.31873
1.32084
1.32061
1.31974
1.31716
1.3118
1.308
1.31412
1.36149
1.52633
1.67321
1.76198
1.80223
1.80265
1.79931
1.79514
1.79095
1.78622
1.78346
1.78235
1.78248
1.78357
1.78417
1.78203
1.77776
1.77253
1.76649
1.7618
1.7597
1.75803
1.75675
1.75623
1.75395
1.75112
1.74822
1.74504
1.74218
1.73934
1.73627
1.73281
1.72995
1.72761
1.72542
1.7245
1.72483
1.72552
1.72613
1.72809
1.73082
1.73077
1.72959
1.72716
1.72493
1.72321
1.72056
1.71623
1.71111
1.70616
1.7018
1.69812
1.69546
1.69399
1.69276
1.6915
1.68993
1.68795
1.68563
1.68309
1.68056
1.67813
1.67535
1.67222
1.66964
1.66754
1.66564
1.66412
1.66249
1.66009
1.65744
1.65454
1.65084
1.64691
1.64449
1.64328
1.64269
1.64279
1.64261
1.64127
1.63864
1.63407
1.62956
1.62698
1.62496
1.62303
1.62159
1.62091
1.6199
1.61834
1.61631
1.61253
1.6067
1.60221
1.59925
1.59675
1.59508
1.59375
1.59183
1.59018
1.58842
1.58558
1.5819
1.57993
1.5779
1.57616
1.57538
1.57493
1.57674
1.5835
1.59228
1.5994
1.60287
1.60496
1.60475
1.60368
1.60171
1.5986
1.59554
1.59243
1.5885
1.58382
1.57902
1.57503
1.57221
1.56994
1.5677
1.56544
1.56316
1.56086
1.55912
1.55786
1.55666
1.5562
1.55684
1.55724
1.55722
1.55668
1.55493
1.55299
1.55012
1.54656
1.54331
1.54047
1.53756
1.53382
1.52838
1.5227
1.51993
1.51876
1.51773
1.51653
1.51506
1.51385
1.51289
1.51215
1.51242
1.51505
1.36361
1.36591
1.36582
1.36581
1.36566
1.36479
1.3608
1.353
1.34431
1.33911
1.33641
1.33512
1.33513
1.33691
1.34031
1.34161
1.3416
1.34197
1.34236
1.34225
1.33986
1.3332
1.3245
1.31962
1.31798
1.31768
1.31889
1.32291
1.32492
1.32452
1.32379
1.32329
1.32296
1.32262
1.32196
1.31959
1.31467
1.30991
1.30825
1.3079
1.30796
1.30952
1.31281
1.31365
1.31274
1.31164
1.31061
1.30776
1.30189
1.29792
1.29741
1.29734
1.29792
1.29944
1.29931
1.29879
1.29843
1.29794
1.29687
1.29628
1.29644
1.29759
1.30078
1.30604
1.31386
1.31984
1.32205
1.32336
1.32321
1.32175
1.32136
1.32186
1.32285
1.32536
1.32972
1.33097
1.33035
1.32928
1.32743
1.32411
1.31811
1.31312
1.31243
1.31257
1.31311
1.31454
1.31819
1.32103
1.32096
1.32027
1.31782
1.31155
1.3105
1.33198
1.40971
1.57409
1.72914
1.78099
1.80422
1.80764
1.80116
1.79472
1.78965
1.78875
1.78658
1.78358
1.78363
1.78234
1.78006
1.77797
1.77499
1.77141
1.76737
1.76309
1.75971
1.75731
1.75525
1.75358
1.7525
1.75096
1.74842
1.74575
1.74292
1.73977
1.73667
1.73378
1.73061
1.72723
1.72475
1.7227
1.72117
1.72091
1.7215
1.72187
1.72253
1.72456
1.72704
1.72645
1.72435
1.72144
1.71901
1.71741
1.7147
1.71028
1.70572
1.70178
1.69795
1.6944
1.69279
1.69167
1.69043
1.68918
1.68765
1.68567
1.6831
1.67975
1.67607
1.67273
1.67026
1.66846
1.6668
1.66524
1.66349
1.66125
1.65854
1.65527
1.6515
1.64749
1.64398
1.64188
1.64055
1.64008
1.64023
1.63963
1.63823
1.63631
1.63271
1.62737
1.62403
1.62199
1.62003
1.61831
1.61694
1.6154
1.61347
1.61077
1.60633
1.60093
1.59735
1.59472
1.59248
1.59113
1.58917
1.58719
1.58564
1.58389
1.58124
1.57762
1.57536
1.57365
1.57161
1.57078
1.56959
1.56875
1.57082
1.57707
1.58516
1.59152
1.5949
1.59674
1.59847
1.5984
1.59665
1.59401
1.59125
1.58817
1.58405
1.5782
1.57158
1.56675
1.5638
1.56179
1.56065
1.56005
1.55957
1.5588
1.55793
1.55682
1.55545
1.55384
1.55141
1.54924
1.54786
1.54633
1.54433
1.54284
1.54134
1.53958
1.53841
1.53761
1.53583
1.53316
1.52808
1.52
1.51481
1.51275
1.51155
1.51048
1.50937
1.50826
1.50744
1.50728
1.50771
1.36998
1.36997
1.36995
1.36989
1.36889
1.36427
1.35518
1.34602
1.3413
1.33893
1.33774
1.33793
1.34022
1.34371
1.34452
1.34436
1.34462
1.34501
1.3449
1.34238
1.33559
1.32694
1.32209
1.32035
1.31991
1.32084
1.3246
1.32683
1.32646
1.32571
1.32533
1.3251
1.32479
1.3238
1.32097
1.3159
1.31111
1.30925
1.30883
1.30882
1.31004
1.31344
1.31518
1.31456
1.31336
1.3122
1.30953
1.30375
1.29873
1.29779
1.29775
1.29835
1.3004
1.30086
1.30031
1.29975
1.29899
1.29736
1.29522
1.29468
1.29471
1.29521
1.29758
1.30183
1.30642
1.31161
1.31476
1.3166
1.31731
1.31777
1.31908
1.32057
1.32327
1.32827
1.33043
1.3299
1.32873
1.32688
1.32371
1.31787
1.31226
1.31121
1.31126
1.31167
1.31319
1.3173
1.32099
1.32111
1.32069
1.31873
1.31211
1.31332
1.35671
1.49615
1.62905
1.75812
1.7997
1.80525
1.80445
1.80207
1.7946
1.7867
1.78385
1.78304
1.78439
1.78453
1.78456
1.78042
1.7756
1.77186
1.76779
1.76377
1.76177
1.76016
1.75892
1.75698
1.75433
1.75123
1.74886
1.74735
1.74554
1.74327
1.74088
1.73804
1.73471
1.73163
1.7287
1.72541
1.72228
1.72016
1.71854
1.71755
1.71759
1.71838
1.7189
1.71946
1.72138
1.72282
1.72159
1.71887
1.71522
1.7129
1.71189
1.70949
1.70554
1.70196
1.69851
1.69439
1.69181
1.69057
1.68931
1.68795
1.68661
1.68477
1.68236
1.67895
1.67427
1.67104
1.66898
1.66718
1.66581
1.66412
1.66175
1.65926
1.65643
1.65263
1.64833
1.64529
1.64291
1.64061
1.63902
1.63806
1.63648
1.63482
1.63353
1.63208
1.62953
1.62567
1.62184
1.61896
1.61659
1.6143
1.61221
1.61006
1.60744
1.60382
1.59943
1.59553
1.5925
1.58998
1.58811
1.58658
1.58416
1.58209
1.58037
1.57872
1.57686
1.57436
1.57144
1.56915
1.56711
1.56585
1.56509
1.56331
1.562
1.56367
1.56979
1.57853
1.58499
1.58892
1.59112
1.59336
1.59316
1.59128
1.58869
1.58584
1.5825
1.57793
1.57121
1.56445
1.56034
1.55737
1.55603
1.55598
1.5565
1.55696
1.55696
1.55646
1.55481
1.55195
1.548
1.54397
1.54055
1.53815
1.53672
1.53634
1.53686
1.53741
1.53825
1.53839
1.53652
1.53395
1.53068
1.524
1.51449
1.50949
1.50773
1.50698
1.5061
1.50494
1.50405
1.5038
1.50309
1.37433
1.37405
1.37388
1.37272
1.36777
1.3576
1.348
1.3435
1.34136
1.34031
1.34071
1.34362
1.34731
1.34785
1.34744
1.34756
1.34788
1.34768
1.34487
1.33776
1.32932
1.3248
1.32302
1.32247
1.32317
1.32662
1.32913
1.32876
1.32789
1.32757
1.32743
1.32708
1.3255
1.32211
1.31698
1.31245
1.31056
1.31007
1.30999
1.31084
1.31399
1.31658
1.31634
1.31529
1.31404
1.31148
1.30576
1.2998
1.29824
1.29817
1.29872
1.30098
1.30229
1.3019
1.30132
1.30061
1.29901
1.29594
1.29432
1.29384
1.29362
1.29388
1.29545
1.29862
1.30072
1.30323
1.30689
1.30963
1.3115
1.31369
1.31631
1.31998
1.32578
1.3294
1.32932
1.32827
1.32636
1.32334
1.31769
1.31136
1.30985
1.30983
1.31002
1.31147
1.31597
1.32054
1.32111
1.32054
1.31977
1.31424
1.32197
1.3836
1.56262
1.70045
1.76765
1.80677
1.80922
1.80811
1.8028
1.79561
1.78889
1.78311
1.78064
1.78006
1.78094
1.78253
1.78245
1.77893
1.77259
1.76602
1.7613
1.75933
1.75832
1.75817
1.75855
1.75703
1.75425
1.75073
1.74637
1.74367
1.74226
1.74087
1.73886
1.73632
1.73322
1.72994
1.72702
1.72417
1.72106
1.71817
1.7163
1.71484
1.7141
1.71429
1.71521
1.71561
1.71611
1.71772
1.71787
1.71631
1.71251
1.70924
1.70888
1.7083
1.70555
1.7021
1.69866
1.69489
1.69139
1.68934
1.68787
1.68642
1.68487
1.68289
1.68029
1.67685
1.67294
1.67014
1.6681
1.66636
1.66454
1.66202
1.6592
1.65619
1.6527
1.64884
1.64565
1.64325
1.6415
1.64002
1.63794
1.63539
1.63255
1.62973
1.62723
1.62537
1.62353
1.62158
1.6193
1.61641
1.61303
1.6098
1.60701
1.6043
1.60102
1.59708
1.59389
1.59148
1.58889
1.58646
1.58409
1.58161
1.57934
1.5773
1.57548
1.57413
1.57309
1.57191
1.56997
1.56671
1.56319
1.56073
1.55907
1.55791
1.5564
1.55603
1.55754
1.56383
1.5731
1.58001
1.58478
1.58665
1.5877
1.5872
1.58537
1.5828
1.57965
1.57577
1.57091
1.5648
1.5596
1.55638
1.55453
1.55383
1.55423
1.55572
1.55564
1.55514
1.55348
1.54958
1.54386
1.53795
1.53432
1.53256
1.53158
1.53115
1.53271
1.53723
1.53885
1.5372
1.5338
1.53109
1.52885
1.52543
1.51929
1.51098
1.50599
1.50435
1.5034
1.50258
1.50214
1.50044
1.49836
1.37801
1.37766
1.37639
1.37139
1.36062
1.35045
1.34594
1.34391
1.34295
1.34356
1.34715
1.35114
1.35155
1.35086
1.35083
1.35093
1.35045
1.34712
1.33957
1.33151
1.32753
1.32596
1.3254
1.326
1.32918
1.3319
1.33161
1.3304
1.32993
1.32978
1.32913
1.3268
1.32292
1.31793
1.31392
1.31215
1.31164
1.31147
1.31202
1.31466
1.31782
1.3181
1.31721
1.31602
1.31357
1.30787
1.30106
1.29879
1.29864
1.29908
1.30135
1.30338
1.30324
1.3028
1.30216
1.30074
1.29755
1.29495
1.29422
1.29372
1.29319
1.2932
1.29414
1.29544
1.29646
1.29717
1.29925
1.30255
1.30575
1.3093
1.31427
1.3215
1.32691
1.32754
1.32716
1.32577
1.32304
1.31771
1.31072
1.30845
1.30834
1.30837
1.30952
1.3142
1.3197
1.32082
1.32056
1.3181
1.31863
1.34853
1.44051
1.60869
1.74632
1.78834
1.80339
1.81099
1.80953
1.80471
1.79887
1.78988
1.78402
1.78078
1.77924
1.77987
1.78008
1.77915
1.77748
1.77408
1.76779
1.76161
1.75864
1.75709
1.75657
1.75747
1.75794
1.75649
1.75406
1.75078
1.74611
1.74146
1.73877
1.73723
1.73597
1.73426
1.73172
1.72843
1.72537
1.72284
1.72038
1.71769
1.7149
1.71286
1.71141
1.71053
1.71056
1.71127
1.71135
1.71159
1.71245
1.71236
1.71037
1.70692
1.70612
1.70564
1.70377
1.70116
1.69823
1.69511
1.69185
1.6887
1.68603
1.68378
1.68166
1.67934
1.67668
1.67373
1.67111
1.6689
1.66713
1.66535
1.66274
1.65939
1.65551
1.65145
1.64747
1.64453
1.64222
1.64022
1.63937
1.63869
1.63625
1.63323
1.62953
1.62473
1.62081
1.61863
1.61727
1.61617
1.61474
1.61259
1.60965
1.60559
1.6013
1.59749
1.59405
1.59134
1.58899
1.58703
1.58534
1.58317
1.58064
1.57768
1.57528
1.57339
1.5717
1.57039
1.56963
1.56884
1.56762
1.56569
1.56206
1.55728
1.55394
1.55163
1.54991
1.5502
1.55083
1.55289
1.55937
1.56912
1.57617
1.58111
1.58173
1.58124
1.57997
1.57777
1.57567
1.57294
1.56928
1.56567
1.56201
1.55828
1.55527
1.55394
1.55392
1.55361
1.55287
1.55187
1.54988
1.54589
1.5402
1.53526
1.53184
1.52979
1.52848
1.52778
1.5282
1.52951
1.53064
1.53104
1.52985
1.52709
1.52476
1.52287
1.52072
1.51713
1.51053
1.50394
1.50132
1.50015
1.49881
1.49666
1.49414
1.38116
1.37978
1.37493
1.36394
1.35323
1.34877
1.34683
1.3459
1.34667
1.35083
1.35522
1.35556
1.35461
1.3543
1.3542
1.35317
1.34907
1.34087
1.33333
1.33012
1.32892
1.32856
1.32927
1.33242
1.33517
1.33493
1.33333
1.33245
1.33203
1.33078
1.32778
1.32337
1.31869
1.31537
1.31393
1.31349
1.31327
1.31359
1.31566
1.31898
1.31979
1.31912
1.31801
1.31574
1.31013
1.30255
1.29943
1.29913
1.29944
1.30159
1.30417
1.3043
1.30402
1.30352
1.30232
1.29913
1.29597
1.29513
1.2946
1.29393
1.29331
1.29288
1.2929
1.29311
1.29303
1.2919
1.29288
1.29611
1.30028
1.30581
1.31401
1.32255
1.32447
1.3245
1.32418
1.3224
1.31766
1.31033
1.30718
1.30691
1.30687
1.30767
1.31224
1.31833
1.32028
1.32037
1.31847
1.32435
1.38422
1.53867
1.65702
1.76504
1.79998
1.80659
1.81088
1.80842
1.8051
1.79433
1.78851
1.78359
1.78191
1.78133
1.77999
1.78043
1.77795
1.77455
1.77168
1.76759
1.76275
1.75985
1.75806
1.75702
1.75719
1.7577
1.75676
1.75496
1.75283
1.74999
1.74615
1.74146
1.73716
1.73446
1.73278
1.7313
1.7294
1.72677
1.72375
1.72144
1.71936
1.71725
1.71485
1.71204
1.70949
1.70761
1.70619
1.70576
1.70582
1.70611
1.70597
1.70656
1.70672
1.70521
1.70387
1.70296
1.70134
1.69919
1.69688
1.69444
1.69173
1.68861
1.68519
1.68167
1.6785
1.67581
1.67324
1.67062
1.66837
1.6666
1.66495
1.66299
1.66029
1.65675
1.65192
1.64669
1.64332
1.64073
1.63846
1.63682
1.63619
1.63508
1.63255
1.62975
1.62624
1.62108
1.61599
1.61339
1.61187
1.61058
1.6093
1.6075
1.60512
1.60126
1.59536
1.59046
1.58759
1.58543
1.58343
1.58238
1.58105
1.57887
1.5769
1.57462
1.57211
1.57025
1.5686
1.56723
1.5664
1.56565
1.56469
1.56348
1.56154
1.55774
1.55239
1.54825
1.54522
1.54407
1.5449
1.54664
1.54915
1.5554
1.56495
1.57186
1.57648
1.57647
1.57531
1.57229
1.57015
1.56866
1.56665
1.56471
1.56306
1.56106
1.55837
1.55518
1.55204
1.54959
1.5481
1.54691
1.54528
1.54237
1.5383
1.53462
1.53156
1.52893
1.52711
1.52588
1.52532
1.5244
1.52283
1.52202
1.52225
1.52231
1.5205
1.51918
1.51854
1.51802
1.51644
1.51067
1.50153
1.49692
1.495
1.49295
1.49026
1.38293
1.37845
1.36765
1.35638
1.3518
1.35002
1.34919
1.3501
1.35477
1.35953
1.35984
1.35861
1.35794
1.35752
1.35573
1.35079
1.342
1.335
1.33249
1.33173
1.33164
1.3328
1.33619
1.33881
1.33854
1.33657
1.3351
1.33421
1.33228
1.32857
1.32357
1.31935
1.31677
1.31577
1.31545
1.31526
1.31547
1.31709
1.32023
1.32151
1.32102
1.32
1.31786
1.31242
1.30415
1.3002
1.29969
1.2998
1.30171
1.30468
1.3052
1.30499
1.30467
1.30373
1.30083
1.29711
1.29596
1.2956
1.29519
1.29441
1.29361
1.29288
1.29225
1.29143
1.28926
1.28733
1.28827
1.29131
1.29632
1.30379
1.31443
1.3199
1.3207
1.32101
1.32048
1.31694
1.30971
1.30576
1.30549
1.30544
1.3061
1.31034
1.31734
1.3189
1.31987
1.32134
1.33657
1.41565
1.6093
1.72833
1.77458
1.80303
1.80931
1.80872
1.80813
1.80348
1.79736
1.78991
1.78293
1.77981
1.77886
1.77873
1.77952
1.7789
1.77466
1.77009
1.76621
1.76237
1.76001
1.75906
1.75823
1.75793
1.75814
1.75734
1.75539
1.75324
1.75089
1.7481
1.74509
1.74178
1.73755
1.73324
1.73046
1.72865
1.72679
1.72449
1.72204
1.71996
1.71815
1.71638
1.71439
1.71204
1.70884
1.70531
1.7026
1.70069
1.6995
1.69925
1.70006
1.70026
1.70152
1.70217
1.7015
1.70061
1.69892
1.69697
1.69496
1.6927
1.69009
1.68716
1.68377
1.67969
1.67561
1.67294
1.67047
1.66771
1.6652
1.66348
1.66155
1.65944
1.65675
1.65322
1.64868
1.64394
1.6405
1.63782
1.63543
1.63343
1.63189
1.62972
1.62721
1.62451
1.62126
1.6174
1.61343
1.61002
1.60741
1.60553
1.60393
1.60212
1.59979
1.59617
1.59065
1.58564
1.5827
1.58041
1.57833
1.57719
1.57619
1.57429
1.57265
1.57099
1.56903
1.56736
1.5658
1.56433
1.56317
1.56217
1.56126
1.56037
1.55916
1.55713
1.55358
1.5486
1.54408
1.54127
1.54004
1.54092
1.54283
1.54514
1.55073
1.55894
1.56624
1.57118
1.57092
1.56838
1.56631
1.56593
1.56577
1.56417
1.56275
1.56144
1.55974
1.55696
1.55235
1.54688
1.54327
1.54117
1.53961
1.53796
1.53612
1.53446
1.53264
1.53046
1.52769
1.52509
1.5228
1.52059
1.51793
1.51532
1.51402
1.51492
1.51721
1.51733
1.51704
1.51724
1.51726
1.51542
1.50715
1.49541
1.49076
1.48891
1.48698
1.3819
1.37173
1.35993
1.35502
1.35341
1.35273
1.35382
1.35897
1.36403
1.36432
1.36285
1.3618
1.36095
1.35832
1.35232
1.34283
1.33668
1.33482
1.33443
1.33465
1.33645
1.3402
1.34263
1.34224
1.33989
1.33793
1.33656
1.33391
1.32925
1.3237
1.32006
1.31818
1.31759
1.31744
1.31736
1.3176
1.31896
1.32177
1.32332
1.32297
1.32204
1.31996
1.31461
1.30593
1.30118
1.30033
1.30029
1.30184
1.30501
1.306
1.30585
1.30568
1.30504
1.30254
1.29849
1.29685
1.29644
1.29622
1.29575
1.29491
1.29407
1.2932
1.29195
1.28911
1.28541
1.28464
1.28552
1.28838
1.2939
1.30361
1.31269
1.31518
1.31602
1.31625
1.31412
1.30808
1.30389
1.30355
1.3037
1.30463
1.30901
1.3159
1.31884
1.31837
1.32508
1.37703
1.48059
1.63965
1.76445
1.79454
1.80496
1.80816
1.81149
1.8104
1.80761
1.79837
1.78768
1.78285
1.77953
1.77894
1.7792
1.77826
1.77717
1.77534
1.77131
1.76587
1.76207
1.7598
1.75883
1.75874
1.75905
1.7586
1.75706
1.75473
1.7523
1.75009
1.74785
1.7457
1.74347
1.74105
1.73811
1.73384
1.72919
1.72644
1.72459
1.7225
1.72034
1.71842
1.71681
1.71535
1.7136
1.71136
1.7085
1.70452
1.70005
1.69637
1.69388
1.69242
1.69267
1.69363
1.69471
1.69724
1.69805
1.69757
1.6963
1.69467
1.69287
1.69075
1.68796
1.68462
1.68095
1.67676
1.67274
1.67034
1.66805
1.66517
1.66233
1.65996
1.65747
1.65503
1.65218
1.64858
1.6445
1.64089
1.63785
1.63522
1.63293
1.63007
1.62692
1.62389
1.62101
1.61824
1.6154
1.61264
1.61006
1.60753
1.60472
1.60152
1.59862
1.59618
1.59343
1.5901
1.58646
1.58313
1.58005
1.57725
1.57483
1.57277
1.57092
1.56946
1.5682
1.56687
1.5654
1.56395
1.56252
1.56102
1.55965
1.55849
1.55754
1.55677
1.55588
1.55453
1.55265
1.55011
1.54674
1.54221
1.53833
1.53658
1.53676
1.53785
1.53975
1.54473
1.5518
1.56041
1.56515
1.56469
1.56353
1.5633
1.56458
1.56457
1.56262
1.56069
1.559
1.5567
1.55255
1.54559
1.53965
1.53725
1.53581
1.53466
1.53381
1.53339
1.53266
1.53126
1.5285
1.52373
1.51922
1.51598
1.51343
1.51128
1.50957
1.50929
1.51245
1.5174
1.51768
1.51682
1.51604
1.5147
1.51036
1.4998
1.48948
1.4858
1.48379
1.37622
1.36398
1.3584
1.35689
1.35635
1.35765
1.36326
1.36859
1.36886
1.36722
1.36584
1.36443
1.36101
1.35393
1.3439
1.33847
1.33704
1.3369
1.33753
1.34012
1.34428
1.34646
1.34587
1.34322
1.34087
1.33901
1.33578
1.33021
1.32402
1.32085
1.31963
1.31932
1.31933
1.3195
1.31996
1.32115
1.32365
1.32536
1.32511
1.32419
1.32212
1.31674
1.30766
1.30227
1.30118
1.301
1.30223
1.30542
1.30675
1.30667
1.30664
1.30632
1.3043
1.30008
1.29778
1.29735
1.29706
1.29691
1.29629
1.29547
1.29466
1.29357
1.29091
1.2859
1.28322
1.28312
1.28377
1.28675
1.294
1.30372
1.30797
1.30909
1.30979
1.30879
1.30385
1.3006
1.30053
1.30128
1.30293
1.3076
1.31492
1.31845
1.31955
1.33262
1.42138
1.5967
1.69217
1.76952
1.79642
1.80708
1.81241
1.81203
1.81167
1.80173
1.79491
1.78914
1.78247
1.78038
1.77896
1.77948
1.78018
1.77803
1.77559
1.77208
1.76679
1.76248
1.76043
1.7595
1.75959
1.75983
1.75955
1.7586
1.75626
1.75239
1.74875
1.74652
1.74478
1.7433
1.74189
1.74004
1.73785
1.73464
1.72931
1.72494
1.723
1.72122
1.71926
1.71748
1.71588
1.71407
1.7123
1.71019
1.70735
1.70377
1.69924
1.69422
1.69001
1.68693
1.68604
1.68675
1.68765
1.68962
1.69277
1.69326
1.69266
1.69117
1.68971
1.6883
1.68577
1.68205
1.67767
1.67316
1.66934
1.66703
1.6648
1.66228
1.65936
1.65613
1.65344
1.65072
1.64726
1.64355
1.63999
1.63675
1.63416
1.63215
1.62964
1.62642
1.6228
1.61873
1.61483
1.61214
1.60982
1.60762
1.60557
1.60366
1.60168
1.59893
1.59461
1.59016
1.58684
1.58405
1.58186
1.57988
1.57783
1.57552
1.57279
1.56986
1.56738
1.56556
1.56407
1.56279
1.56163
1.56038
1.55897
1.55737
1.55582
1.5546
1.55355
1.55258
1.55186
1.5514
1.55065
1.54945
1.54763
1.54501
1.54093
1.5353
1.53227
1.53174
1.53201
1.53371
1.53807
1.54503
1.55461
1.55987
1.56057
1.56116
1.56268
1.56342
1.56216
1.56012
1.55799
1.55518
1.55122
1.54558
1.53896
1.53545
1.53396
1.53306
1.53282
1.53283
1.53199
1.53038
1.5277
1.52264
1.51672
1.51302
1.51073
1.50901
1.5074
1.50663
1.50727
1.51016
1.51307
1.51313
1.5123
1.51134
1.50916
1.50426
1.49517
1.48559
1.48136
1.36862
1.36199
1.36047
1.36001
1.36147
1.36745
1.37305
1.37328
1.37144
1.36986
1.36805
1.36403
1.35579
1.34534
1.34052
1.3395
1.33946
1.34039
1.34367
1.3482
1.35014
1.34933
1.34657
1.34395
1.34177
1.33816
1.3318
1.32496
1.32189
1.32105
1.32092
1.32113
1.32165
1.32225
1.32348
1.32594
1.32771
1.32751
1.32655
1.32436
1.31879
1.30933
1.30346
1.30216
1.30191
1.30299
1.30617
1.30769
1.30762
1.30766
1.30756
1.30613
1.30193
1.29882
1.29828
1.29799
1.29781
1.29759
1.29685
1.2961
1.29521
1.29322
1.28833
1.28363
1.28278
1.28274
1.2836
1.28799
1.29616
1.30091
1.30196
1.30268
1.30187
1.29741
1.29504
1.29576
1.29747
1.29988
1.30583
1.31422
1.31786
1.32344
1.35184
1.45585
1.65836
1.75644
1.7874
1.8
1.80421
1.80692
1.80953
1.81076
1.80807
1.7985
1.78776
1.78127
1.77863
1.77807
1.77852
1.78123
1.78175
1.77866
1.77441
1.76852
1.7631
1.761
1.75999
1.75981
1.76095
1.7608
1.75984
1.75846
1.7556
1.75065
1.74643
1.74399
1.74228
1.74079
1.73987
1.73841
1.73665
1.73419
1.73
1.72495
1.72225
1.72057
1.71887
1.71741
1.71539
1.71279
1.71017
1.70768
1.70511
1.70185
1.69783
1.69325
1.6884
1.68413
1.68137
1.68089
1.68116
1.68207
1.68433
1.68691
1.68738
1.68659
1.68509
1.6843
1.68293
1.67963
1.67485
1.6699
1.66605
1.66363
1.66133
1.65887
1.6559
1.65256
1.64976
1.64661
1.64258
1.63879
1.63532
1.6323
1.63012
1.6284
1.62577
1.62284
1.6194
1.61476
1.60979
1.60688
1.60466
1.60257
1.60067
1.59899
1.59745
1.59538
1.59159
1.58609
1.58216
1.57982
1.57791
1.57641
1.57498
1.57315
1.57094
1.56827
1.56533
1.56281
1.56102
1.55965
1.55842
1.55713
1.55577
1.55427
1.5527
1.55134
1.5502
1.54916
1.54829
1.54793
1.54821
1.54775
1.54642
1.54482
1.54242
1.53811
1.53188
1.52798
1.52651
1.52645
1.52825
1.53252
1.53976
1.55018
1.55603
1.55937
1.56046
1.56027
1.55923
1.55708
1.55455
1.55193
1.54856
1.54461
1.54042
1.53622
1.53381
1.53232
1.53101
1.52985
1.52864
1.52722
1.5251
1.52145
1.51622
1.51197
1.50955
1.50773
1.50611
1.5051
1.50484
1.50477
1.50544
1.50698
1.50701
1.50616
1.50514
1.5032
1.49952
1.49249
1.48282
1.36594
1.36416
1.36375
1.3652
1.3713
1.37718
1.37746
1.37549
1.37366
1.37158
1.3672
1.35815
1.34743
1.34295
1.34214
1.34221
1.34341
1.34708
1.35187
1.35361
1.35257
1.34984
1.34721
1.34483
1.34105
1.33419
1.32661
1.32334
1.32268
1.32263
1.32284
1.3235
1.32437
1.32587
1.32858
1.3305
1.33028
1.32924
1.32682
1.32084
1.3109
1.30478
1.30328
1.30297
1.30399
1.30731
1.30898
1.3089
1.30893
1.3089
1.30789
1.30402
1.3001
1.2993
1.299
1.29872
1.29865
1.2982
1.29748
1.29672
1.2953
1.29123
1.2856
1.28358
1.28341
1.28359
1.28625
1.29219
1.29612
1.29687
1.29715
1.29543
1.28998
1.28798
1.28933
1.29172
1.2953
1.30199
1.31305
1.31772
1.3305
1.41106
1.53185
1.67801
1.78045
1.79811
1.8068
1.80355
1.80541
1.81057
1.8118
1.8093
1.80065
1.78941
1.78237
1.77872
1.77754
1.77839
1.78072
1.78169
1.78011
1.77719
1.77253
1.76616
1.76175
1.76056
1.7601
1.76062
1.76132
1.76042
1.75919
1.75748
1.75466
1.75022
1.74577
1.74281
1.74063
1.73869
1.73685
1.73524
1.73366
1.73204
1.72958
1.7258
1.72266
1.72079
1.71923
1.71772
1.71515
1.71195
1.70811
1.70448
1.70122
1.69774
1.69426
1.69092
1.68671
1.68267
1.67936
1.67766
1.67628
1.67526
1.67592
1.67802
1.6801
1.68049
1.67968
1.67845
1.67753
1.67515
1.67113
1.66675
1.6633
1.66067
1.65815
1.65544
1.65202
1.64858
1.64566
1.64217
1.6382
1.63462
1.6311
1.62803
1.62576
1.62403
1.62179
1.61899
1.61571
1.61161
1.60637
1.60233
1.59971
1.59747
1.5956
1.59418
1.59259
1.59037
1.58707
1.58344
1.58051
1.57812
1.57599
1.57397
1.57199
1.57013
1.56819
1.56598
1.56351
1.56104
1.55908
1.55751
1.55603
1.55456
1.55314
1.55172
1.55025
1.54881
1.54752
1.5464
1.54554
1.54514
1.54507
1.54479
1.54411
1.54304
1.54139
1.53862
1.53439
1.52888
1.5245
1.52213
1.52189
1.52366
1.52798
1.53534
1.54616
1.55375
1.55692
1.55724
1.55664
1.55492
1.55227
1.54948
1.54609
1.54305
1.54067
1.53789
1.5344
1.53107
1.52848
1.52633
1.52448
1.52283
1.52126
1.51927
1.51656
1.51338
1.51008
1.50736
1.50552
1.50404
1.50253
1.50109
1.50004
1.49994
1.50092
1.50137
1.50053
1.49986
1.49868
1.49608
1.49039
1.36793
1.36755
1.36891
1.37491
1.38088
1.38123
1.3792
1.37722
1.375
1.37051
1.36099
1.35001
1.34569
1.34506
1.34523
1.34659
1.35044
1.35528
1.35681
1.35568
1.35306
1.35047
1.3481
1.34459
1.3376
1.32891
1.32514
1.3246
1.32455
1.3246
1.32502
1.3261
1.32814
1.33146
1.33362
1.33338
1.33227
1.3295
1.3229
1.31235
1.30613
1.30459
1.30425
1.30523
1.30875
1.31073
1.3106
1.31056
1.31052
1.30948
1.30585
1.30171
1.3005
1.30014
1.29982
1.29963
1.29947
1.29885
1.29816
1.29713
1.29396
1.28826
1.28511
1.28483
1.28481
1.28674
1.29157
1.29433
1.2946
1.29421
1.29145
1.28428
1.28091
1.28208
1.2848
1.28898
1.29613
1.30871
1.31816
1.34128
1.45951
1.6525
1.73587
1.78383
1.79068
1.80169
1.81064
1.81293
1.81439
1.80716
1.80213
1.79971
1.79363
1.78541
1.78105
1.77874
1.77884
1.78075
1.78068
1.77963
1.77779
1.77457
1.76941
1.76478
1.76229
1.76118
1.76109
1.76072
1.75982
1.75874
1.75737
1.75545
1.75294
1.74994
1.74641
1.74264
1.73931
1.73658
1.734
1.73176
1.72987
1.72822
1.72668
1.72479
1.72269
1.72103
1.71972
1.71758
1.71456
1.71101
1.70675
1.70185
1.69736
1.69329
1.6892
1.68635
1.68377
1.68042
1.67754
1.67533
1.67372
1.67168
1.66929
1.66905
1.6703
1.67229
1.67265
1.67206
1.6707
1.66905
1.66601
1.66289
1.66072
1.65847
1.65574
1.6521
1.64783
1.6439
1.64052
1.63706
1.63408
1.63098
1.62757
1.6244
1.62201
1.61992
1.61746
1.61465
1.6116
1.60814
1.60392
1.59942
1.59558
1.59261
1.59025
1.58825
1.58646
1.5845
1.5822
1.5806
1.57914
1.57754
1.57567
1.57341
1.57063
1.56767
1.56511
1.56283
1.56061
1.55862
1.55695
1.55539
1.55385
1.55239
1.55103
1.54972
1.54837
1.54696
1.54562
1.54443
1.54342
1.54261
1.5416
1.54052
1.53972
1.5391
1.53827
1.53691
1.53435
1.53085
1.52667
1.5221
1.51886
1.51842
1.52012
1.52413
1.53104
1.54058
1.54873
1.55192
1.55252
1.55191
1.55015
1.54779
1.54523
1.54295
1.54051
1.53775
1.53459
1.53096
1.52711
1.52356
1.52109
1.51923
1.51749
1.51616
1.5149
1.51328
1.51107
1.50797
1.5043
1.5014
1.4996
1.49762
1.49566
1.49432
1.49402
1.49569
1.4973
1.49699
1.49626
1.49516
1.49309
1.37137
1.37255
1.37826
1.38426
1.38467
1.3826
1.38049
1.37828
1.37389
1.36435
1.35313
1.34876
1.34826
1.3485
1.34989
1.3537
1.35849
1.3599
1.35876
1.35629
1.35378
1.35148
1.3484
1.34194
1.33223
1.32728
1.32662
1.32652
1.32648
1.32661
1.32766
1.3303
1.33452
1.33704
1.33675
1.33546
1.33222
1.32493
1.31375
1.30752
1.30599
1.30567
1.30669
1.31051
1.31296
1.31282
1.31265
1.31251
1.31124
1.30737
1.30329
1.30185
1.3014
1.30105
1.30079
1.30074
1.30026
1.29961
1.29882
1.29642
1.29107
1.28695
1.28645
1.28638
1.28788
1.2924
1.29481
1.29462
1.2935
1.28979
1.28104
1.27545
1.27584
1.27797
1.28219
1.28944
1.30172
1.32115
1.3714
1.49644
1.70094
1.7847
1.80577
1.80299
1.79725
1.79918
1.80827
1.81469
1.81528
1.80812
1.79675
1.78974
1.78519
1.78256
1.78178
1.78174
1.78326
1.7825
1.77992
1.77715
1.77391
1.76984
1.76644
1.76475
1.76394
1.76317
1.76163
1.75979
1.75794
1.75603
1.75397
1.75196
1.7502
1.74862
1.74655
1.7435
1.73918
1.73475
1.73142
1.72851
1.72604
1.72418
1.72276
1.72224
1.72213
1.72116
1.71923
1.71657
1.71308
1.70908
1.70487
1.70024
1.69522
1.69015
1.68551
1.68225
1.68024
1.67734
1.67427
1.67197
1.67018
1.66831
1.66598
1.66333
1.66147
1.66202
1.66378
1.66395
1.66328
1.66153
1.65921
1.65805
1.65794
1.65642
1.6533
1.64894
1.64397
1.63893
1.63448
1.63191
1.62968
1.62692
1.62425
1.62153
1.61862
1.61609
1.61344
1.61047
1.60728
1.60408
1.6007
1.59714
1.59334
1.58927
1.58558
1.58257
1.58039
1.57908
1.57829
1.57758
1.57687
1.57595
1.57471
1.57314
1.57086
1.56738
1.56368
1.56081
1.55838
1.55622
1.5543
1.55251
1.5509
1.54947
1.5484
1.54756
1.54654
1.54533
1.54424
1.54304
1.54169
1.54032
1.53897
1.53762
1.53626
1.53525
1.53438
1.53341
1.53224
1.5304
1.528
1.52512
1.52099
1.51636
1.51508
1.51636
1.51926
1.525
1.53316
1.54054
1.54592
1.54759
1.54761
1.54659
1.54505
1.54296
1.54014
1.53685
1.53348
1.53018
1.52637
1.52188
1.51878
1.51692
1.51543
1.51432
1.51345
1.51249
1.51096
1.50829
1.50405
1.49919
1.49575
1.49366
1.49163
1.48996
1.48892
1.4893
1.49307
1.49491
1.49425
1.49325
1.49199
1.37614
1.38146
1.38737
1.38783
1.38573
1.38352
1.38138
1.37731
1.36824
1.35681
1.35215
1.35174
1.352
1.35327
1.3568
1.36155
1.36312
1.36195
1.3596
1.35719
1.35494
1.3523
1.34672
1.33663
1.32978
1.32862
1.32843
1.32826
1.32828
1.3293
1.33248
1.33768
1.34065
1.34035
1.33897
1.33521
1.32699
1.3151
1.30902
1.30752
1.30724
1.30831
1.3125
1.31566
1.31561
1.31529
1.315
1.31336
1.309
1.30463
1.30315
1.30278
1.30246
1.30221
1.30211
1.30178
1.30116
1.30046
1.29862
1.29388
1.2891
1.28811
1.28804
1.2892
1.29346
1.29602
1.29576
1.29457
1.29065
1.28116
1.27316
1.27233
1.27293
1.27504
1.28147
1.29493
1.32601
1.44211
1.58456
1.71755
1.79725
1.80811
1.8099
1.80479
1.79996
1.80374
1.81041
1.8129
1.81175
1.80356
1.79013
1.78383
1.78207
1.78171
1.78299
1.78534
1.78581
1.78364
1.77939
1.7739
1.76837
1.76566
1.7647
1.76431
1.76486
1.76414
1.76201
1.75898
1.75553
1.75309
1.75106
1.74925
1.74775
1.74657
1.74502
1.74267
1.73905
1.73378
1.72896
1.72582
1.7234
1.72154
1.72017
1.71994
1.72054
1.71947
1.71694
1.71393
1.70984
1.70548
1.70146
1.69707
1.69278
1.6883
1.68366
1.68031
1.67775
1.67393
1.67067
1.66803
1.66585
1.66372
1.66142
1.65907
1.65589
1.65313
1.65358
1.65511
1.65502
1.65388
1.65274
1.65315
1.6543
1.65322
1.65014
1.64575
1.64047
1.63437
1.62938
1.6272
1.62519
1.62273
1.62102
1.61864
1.61563
1.61307
1.61
1.60576
1.60167
1.59889
1.59676
1.59432
1.59123
1.58737
1.5827
1.5783
1.57582
1.575
1.57444