/*--------------------------------*- C++ -*----------------------------------*\
  =========                 |
  \\      /  F ield         | OpenFOAM: The Open Source CFD Toolbox
   \\    /   O peration     | Website:  https://openfoam.org
    \\  /    A nd           | Version:  7
     \\/     M anipulation  |
\*---------------------------------------------------------------------------*/
FoamFile
{
    version     2.0;
    format      ascii;
    class       volScalarField;
    location    "1";
    object      p;
}
// * * * * * * * * * * * * * * * * * * * * * * * * * * * * * * * * * * * * * //

dimensions      [1 -1 -2 0 0 0 0];

internalField   nonuniform List<scalar> 
16192
(
2.06236
2.05402
2.04413
2.03398
2.02876
2.02435
2.01996
2.0153
2.00976
2.00739
2.00421
1.99648
1.9877
1.97951
1.97154
1.9597
1.94428
1.93361
1.92974
1.92662
1.9239
1.92321
1.92015
1.91357
1.90587
1.89562
1.88171
1.86695
1.85553
1.84595
1.83549
1.82825
1.82393
1.82124
1.8223
1.82218
1.81841
1.81426
1.81031
1.80504
1.79801
1.78888
1.77675
1.76547
1.76107
1.75933
1.75996
1.76237
1.76295
1.76254
1.75501
1.74374
1.72634
1.71452
1.71105
1.70882
1.70637
1.70721
1.70948
1.71194
1.71433
1.71268
1.70932
1.70117
1.68245
1.6607
1.64603
1.63308
1.62462
1.62346
1.62889
1.64184
1.64627
1.645
1.64319
1.63887
1.62908
1.61161
1.59096
1.57609
1.56804
1.56394
1.56047
1.5592
1.56478
1.57939
1.58126
1.5748
1.57085
1.5654
1.56004
1.55588
1.55035
1.53713
1.51235
1.49211
1.48548
1.4841
1.48245
1.48211
1.49196
1.51483
1.53259
1.53687
1.52684
1.51593
1.50422
1.48844
1.47369
1.46156
1.45268
1.44475
1.43552
1.42856
1.4269
1.42653
1.42484
1.42023
1.41465
1.4101
1.40836
1.40748
1.40859
1.40498
1.40077
1.4016
1.4091
1.43318
1.46192
1.46973
1.46893
1.4678
1.46965
1.46858
1.45463
1.3933
1.30585
1.27292
1.26712
1.26648
1.26316
1.26128
1.26635
1.29549
1.38063
1.47307
1.49823
1.49998
1.499
1.4968
1.48826
1.45408
1.35155
1.25232
1.23229
1.23207
1.23575
1.24302
1.25686
1.28418
1.33979
1.43197
1.50418
1.5199
1.52056
1.51673
1.5074
1.48958
1.4361
1.33358
1.27705
1.27063
1.27429
1.28408
1.29378
1.30517
1.32837
1.36484
1.38464
1.3863
1.37909
1.3665
1.35121
1.31513
1.24337
1.19807
1.19326
1.19731
1.21155
1.23903
1.27694
1.31214
1.34869
1.40119
1.473
1.5329
1.55132
1.54423
1.51057
1.45795
1.3731
1.28861
1.25869
1.25118
1.25144
1.26568
1.30496
1.37149
1.40915
1.41591
1.41902
1.42152
1.40678
1.3467
1.26046
1.2414
1.24325
1.2467
1.25189
1.27056
1.32475
1.41472
1.45097
1.45362
1.45292
1.44785
1.41829
1.33891
1.28028
1.27648
1.28002
1.2858
1.30006
1.3401
1.40591
1.43313
1.43192
1.42541
1.41089
1.37532
1.32655
1.31253
1.31678
1.33498
1.36072
1.37801
1.38002
1.36895
1.35449
1.32772
1.28344
1.26405
1.26419
2.05486
2.04147
2.03259
2.02907
2.02626
2.02339
2.02094
2.01917
2.01954
2.01745
2.00973
2.00012
1.99071
1.97971
1.96555
1.95066
1.9403
1.93663
1.93378
1.9309
1.92848
1.92978
1.92815
1.92133
1.91303
1.90107
1.8811
1.85875
1.84474
1.83486
1.82609
1.82058
1.81842
1.82075
1.82852
1.82787
1.82462
1.82264
1.82066
1.81377
1.8002
1.78235
1.76531
1.75729
1.75412
1.75076
1.74691
1.74697
1.75636
1.76034
1.75271
1.74272
1.73516
1.72953
1.72386
1.71858
1.71336
1.71019
1.70793
1.70401
1.69905
1.69373
1.6876
1.68164
1.67372
1.66327
1.65481
1.64687
1.6407
1.63967
1.64146
1.63931
1.63672
1.63388
1.6288
1.62182
1.61421
1.60605
1.59598
1.58261
1.56784
1.55912
1.55451
1.55318
1.55473
1.55911
1.56785
1.56933
1.56812
1.56634
1.56563
1.56518
1.56041
1.54838
1.52545
1.49546
1.47986
1.47493
1.47196
1.46867
1.46804
1.48308
1.52421
1.53853
1.52699
1.51759
1.50806
1.4944
1.47844
1.463
1.45142
1.44385
1.43342
1.42594
1.4261
1.42638
1.42427
1.41821
1.41279
1.41039
1.41115
1.41272
1.4007
1.38747
1.37764
1.37321
1.37197
1.37899
1.40258
1.43344
1.45577
1.46885
1.47865
1.48196
1.48099
1.45734
1.37234
1.28109
1.25223
1.24561
1.24249
1.24019
1.23988
1.24941
1.2891
1.37351
1.46233
1.49388
1.49882
1.50044
1.49687
1.48593
1.44111
1.32652
1.23451
1.21885
1.21944
1.22555
1.23514
1.24897
1.26968
1.309
1.38333
1.46531
1.4986
1.50343
1.50444
1.50383
1.49325
1.44541
1.33814
1.27154
1.26272
1.26302
1.26198
1.26046
1.26617
1.28449
1.31879
1.34847
1.35944
1.36176
1.36279
1.35661
1.326
1.26256
1.22572
1.2239
1.23649
1.26127
1.28371
1.29556
1.3065
1.32355
1.35393
1.40808
1.46961
1.48937
1.48874
1.48054
1.45444
1.39041
1.29792
1.25514
1.24798
1.24727
1.25514
1.28468
1.3476
1.39516
1.40953
1.41741
1.41984
1.40305
1.33542
1.24286
1.22311
1.22309
1.22387
1.22902
1.25334
1.32706
1.42988
1.46197
1.46696
1.46875
1.46483
1.42835
1.33231
1.26868
1.26177
1.2603
1.26118
1.27621
1.32669
1.39979
1.4226
1.42392
1.42344
1.41639
1.38857
1.34377
1.33011
1.33265
1.34116
1.35647
1.36787
1.36101
1.34674
1.32633
1.29012
1.25545
1.25285
2.04364
2.03107
2.02634
2.02299
2.01898
2.01698
2.01979
2.02479
2.02825
2.02244
2.01394
2.00482
1.99121
1.97204
1.95405
1.94504
1.94187
1.93936
1.93718
1.93529
1.93564
1.93936
1.9365
1.9286
1.91845
1.90216
1.87657
1.85166
1.8379
1.82965
1.82278
1.81786
1.81625
1.82356
1.83353
1.83236
1.83141
1.83078
1.82554
1.81366
1.79293
1.76918
1.75816
1.75346
1.74942
1.74376
1.739
1.74127
1.75117
1.75292
1.7474
1.74389
1.74286
1.73959
1.73411
1.72961
1.72499
1.71667
1.7078
1.69863
1.68729
1.67606
1.66739
1.65994
1.6584
1.66252
1.66306
1.65985
1.65621
1.65078
1.64416
1.63671
1.62951
1.62132
1.615
1.61112
1.60714
1.60313
1.59952
1.59219
1.57611
1.56004
1.55246
1.5496
1.54688
1.54663
1.5516
1.55649
1.55779
1.56116
1.56458
1.56508
1.55971
1.54842
1.53257
1.50918
1.48346
1.46974
1.46315
1.45772
1.45505
1.46134
1.48681
1.51753
1.52081
1.5157
1.50751
1.49703
1.4859
1.47305
1.46238
1.4519
1.43523
1.42507
1.42141
1.4197
1.42177
1.42006
1.41398
1.41282
1.41582
1.40897
1.39606
1.37965
1.35997
1.35043
1.3474
1.35057
1.36048
1.37991
1.42296
1.46692
1.48504
1.48881
1.488
1.47797
1.43646
1.33521
1.25375
1.23241
1.2268
1.22577
1.22583
1.23136
1.25021
1.28936
1.35481
1.43299
1.47881
1.49002
1.49148
1.48883
1.47578
1.42734
1.31562
1.22617
1.21246
1.21362
1.21925
1.22556
1.23272
1.24465
1.27398
1.34512
1.44316
1.49337
1.50602
1.51287
1.51624
1.50982
1.46514
1.34602
1.25553
1.235
1.22744
1.22106
1.21863
1.22476
1.2404
1.28338
1.3376
1.36066
1.37013
1.37583
1.37195
1.34622
1.29243
1.25963
1.25914
1.26607
1.27243
1.27603
1.27394
1.26985
1.27908
1.30407
1.36469
1.44574
1.47381
1.47883
1.47777
1.45961
1.3989
1.29682
1.24558
1.23837
1.23649
1.23897
1.26405
1.32768
1.3864
1.40482
1.41058
1.41081
1.39168
1.31498
1.22185
1.20453
1.20549
1.20766
1.21815
1.25519
1.35451
1.45955
1.48216
1.48469
1.48343
1.47095
1.41332
1.30007
1.24421
1.23682
1.23359
1.23632
1.2597
1.32872
1.40698
1.4294
1.4358
1.44016
1.4355
1.40649
1.35412
1.33206
1.32879
1.3288
1.33602
1.34067
1.33188
1.31908
1.29945
1.2661
1.24882
2.03688
2.02783
2.02295
2.01926
2.01486
2.01211
2.01883
2.03118
2.03083
2.02293
2.0157
2.00285
1.98182
1.95942
1.94859
1.94577
1.94378
1.94181
1.94058
1.94183
1.94667
1.94873
1.94287
1.93476
1.92376
1.9034
1.87499
1.85144
1.83691
1.82787
1.82224
1.81893
1.8194
1.83042
1.83925
1.83841
1.83529
1.83097
1.82146
1.80409
1.77892
1.76106
1.75489
1.75126
1.74604
1.74092
1.73841
1.7386
1.74206
1.74772
1.75269
1.75275
1.75002
1.74629
1.74174
1.7373
1.73191
1.724
1.71042
1.69075
1.67204
1.66179
1.65462
1.64933
1.65146
1.66327
1.66903
1.66732
1.66226
1.6529
1.64411
1.63344
1.61952
1.61216
1.61045
1.60808
1.60558
1.60335
1.60206
1.59628
1.58398
1.56674
1.5543
1.54714
1.54332
1.54249
1.54355
1.54794
1.54993
1.55224
1.55694
1.55869
1.55327
1.54432
1.53518
1.5247
1.50589
1.47695
1.45905
1.45203
1.44892
1.44837
1.45438
1.47321
1.49391
1.50023
1.50066
1.49731
1.48792
1.47619
1.46605
1.45685
1.44505
1.43204
1.42204
1.41709
1.4146
1.41399
1.41365
1.41846
1.41631
1.40525
1.39335
1.37422
1.35012
1.33503
1.3305
1.33418
1.34424
1.35646
1.37948
1.41625
1.44787
1.46904
1.4787
1.47417
1.45719
1.40721
1.30721
1.2383
1.22205
1.21717
1.21896
1.2268
1.24062
1.25933
1.2868
1.33299
1.40132
1.45819
1.47727
1.48084
1.47901
1.46898
1.42942
1.32217
1.22303
1.20361
1.20049
1.19872
1.19752
1.20044
1.20893
1.2383
1.32232
1.44146
1.50332
1.52329
1.53489
1.53558
1.5247
1.46949
1.32513
1.22117
1.19709
1.1854
1.17978
1.18522
1.19501
1.21801
1.27751
1.34907
1.38031
1.39808
1.41165
1.41412
1.40116
1.35498
1.28808
1.25854
1.24802
1.23931
1.22542
1.21529
1.22344
1.24219
1.2792
1.36364
1.45876
1.48672
1.49369
1.48868
1.4641
1.39231
1.27559
1.2265
1.22035
1.21792
1.22062
1.24652
1.31431
1.3811
1.40057
1.404
1.40186
1.37927
1.29453
1.20658
1.19409
1.19705
1.20306
1.2206
1.27548
1.39338
1.48058
1.49037
1.48868
1.48174
1.45742
1.37431
1.25805
1.22044
1.21585
1.21437
1.22216
1.25931
1.34981
1.42841
1.44686
1.45285
1.45515
1.44472
1.40344
1.34014
1.31628
1.31136
1.30933
1.31411
1.31586
1.30825
1.2988
1.28213
1.25688
2.03788
2.02938
2.02165
2.01664
2.01398
2.01532
2.02431
2.03531
2.03244
2.02123
2.00719
1.98944
1.96579
1.95246
1.94955
1.94799
1.94636
1.9453
1.94654
1.95285
1.95675
1.95291
1.94595
1.93824
1.92646
1.90839
1.88816
1.8685
1.84826
1.83454
1.82921
1.8277
1.83071
1.83783
1.83785
1.83393
1.82875
1.8207
1.80646
1.78518
1.76748
1.76004
1.75663
1.75401
1.75089
1.74715
1.74451
1.74261
1.74408
1.75214
1.7605
1.75911
1.75581
1.75295
1.74911
1.74422
1.73664
1.72418
1.70419
1.67995
1.66273
1.6538
1.64762
1.64397
1.65133
1.66613
1.6699
1.66709
1.66051
1.6519
1.63845
1.62387
1.61715
1.61327
1.60994
1.6079
1.60587
1.60741
1.60543
1.59861
1.58631
1.57134
1.55328
1.54196
1.54083
1.5405
1.54073
1.54078
1.54295
1.54372
1.54391
1.54313
1.53878
1.53643
1.53593
1.53551
1.52934
1.50991
1.47772
1.4593
1.4498
1.44213
1.44021
1.44502
1.45941
1.47377
1.47927
1.48219
1.48205
1.47458
1.46245
1.45631
1.45497
1.45099
1.43961
1.42606
1.41721
1.41359
1.41746
1.41951
1.40877
1.39877
1.38624
1.36947
1.35085
1.3333
1.32339
1.32941
1.3407
1.35057
1.36217
1.3794
1.39621
1.41601
1.44233
1.45744
1.44969
1.43295
1.39377
1.31884
1.24839
1.21971
1.21275
1.22109
1.23516
1.24872
1.25981
1.27594
1.3098
1.37174
1.44126
1.47382
1.48337
1.48291
1.4739
1.43722
1.32057
1.20523
1.17648
1.16662
1.16127
1.16363
1.17085
1.18368
1.22465
1.3243
1.4568
1.52689
1.54577
1.5459
1.53685
1.5184
1.44448
1.28425
1.18225
1.15794
1.15308
1.1618
1.17152
1.18495
1.21815
1.28894
1.37296
1.41704
1.44656
1.46249
1.45965
1.44285
1.38014
1.27449
1.21666
1.18709
1.16902
1.16946
1.18523
1.20578
1.23379
1.28854
1.39372
1.48589
1.50805
1.50711
1.49196
1.45564
1.36398
1.2417
1.20308
1.19775
1.19693
1.20355
1.23431
1.30805
1.37976
1.39869
1.40053
1.39726
1.37022
1.28035
1.1977
1.18968
1.19557
1.20729
1.23385
1.30383
1.41964
1.48272
1.48616
1.48046
1.46758
1.43014
1.32747
1.22665
1.206
1.20391
1.20535
1.21995
1.27413
1.37884
1.44443
1.45493
1.45861
1.45722
1.43943
1.38153
1.31473
1.29649
1.29216
1.29063
1.29622
1.29882
1.29325
1.28602
1.26728
2.04711
2.03696
2.02611
2.01809
2.01671
2.0254
2.03315
2.02661
2.01836
2.00867
1.99272
1.97223
1.95651
1.95075
1.94909
1.94888
1.94885
1.94952
1.95565
1.96072
1.95771
1.95286
1.94562
1.9362
1.92257
1.90988
1.8991
1.88709
1.86899
1.85073
1.84473
1.83974
1.83229
1.82921
1.82943
1.8266
1.81622
1.80025
1.78178
1.76887
1.76436
1.76052
1.75727
1.75565
1.75288
1.74837
1.74624
1.74892
1.75524
1.76646
1.76806
1.76406
1.76172
1.75996
1.75546
1.74617
1.73332
1.71535
1.69467
1.67383
1.66053
1.65216
1.64735
1.64762
1.6544
1.65645
1.65647
1.65604
1.6524
1.64219
1.62753
1.62478
1.62343
1.61879
1.61327
1.6092
1.60745
1.60736
1.60642
1.59752
1.5819
1.5675
1.55052
1.53931
1.53892
1.53937
1.53764
1.53523
1.53649
1.53495
1.52951
1.52923
1.52941
1.52916
1.53282
1.53981
1.54153
1.53072
1.50854
1.47801
1.45305
1.44205
1.43828
1.43772
1.44248
1.45069
1.45562
1.45895
1.45987
1.45393
1.45016
1.45284
1.45602
1.45904
1.45905
1.45212
1.44285
1.43943
1.43313
1.41742
1.40164
1.38629
1.37227
1.36093
1.35119
1.33751
1.32644
1.33292
1.34209
1.34823
1.35306
1.35766
1.36159
1.36738
1.38515
1.41847
1.43887
1.43445
1.42651
1.40807
1.35575
1.27024
1.21864
1.20965
1.22017
1.23179
1.23855
1.24422
1.25662
1.28709
1.35394
1.44598
1.49042
1.49655
1.48902
1.47327
1.42177
1.28679
1.16916
1.14033
1.13359
1.13856
1.14677
1.15636
1.17891
1.23401
1.34605
1.4809
1.5355
1.53948
1.53153
1.51972
1.49203
1.40551
1.24469
1.1528
1.14311
1.15125
1.16086
1.17087
1.18994
1.23121
1.31369
1.41941
1.47669
1.49195
1.4848
1.47057
1.4384
1.34101
1.20211
1.14348
1.13102
1.14093
1.16027
1.1836
1.21121
1.24985
1.31627
1.41729
1.4946
1.50954
1.50007
1.47755
1.43252
1.32691
1.21225
1.18253
1.17907
1.18194
1.19286
1.22751
1.30544
1.37985
1.39806
1.39933
1.39604
1.36777
1.27775
1.19853
1.19204
1.20076
1.21746
1.24982
1.31919
1.41766
1.46646
1.46947
1.46326
1.44683
1.39944
1.2906
1.20859
1.19753
1.19837
1.20402
1.22695
1.29435
1.39923
1.44924
1.45514
1.45636
1.45116
1.4246
1.35206
1.29141
1.27889
1.27495
1.27454
1.28187
1.28597
1.28133
1.26947
2.05941
2.0506
2.04062
2.03195
2.02815
2.02329
2.01904
2.01446
2.00506
1.99083
1.97474
1.96282
1.95743
1.95362
1.95173
1.95174
1.9541
1.95851
1.96066
1.95921
1.95472
1.94582
1.93533
1.9249
1.91709
1.9101
1.90579
1.90208
1.89516
1.88265
1.86585
1.8505
1.83744
1.82713
1.82105
1.81105
1.79355
1.77389
1.76344
1.76
1.75696
1.75405
1.75221
1.7516
1.75066
1.74907
1.75009
1.75364
1.76692
1.77638
1.77254
1.76826
1.76824
1.76745
1.76022
1.7458
1.72478
1.70276
1.68523
1.6762
1.66564
1.65682
1.65194
1.6519
1.65364
1.65177
1.64828
1.64533
1.6394
1.62954
1.62831
1.62804
1.62827
1.62876
1.62325
1.61578
1.61063
1.60828
1.60676
1.59321
1.57871
1.56657
1.54813
1.53108
1.52537
1.52489
1.52631
1.52532
1.52175
1.51717
1.51862
1.52044
1.52036
1.52179
1.52735
1.53767
1.54557
1.54021
1.52334
1.50137
1.46542
1.44349
1.4405
1.43826
1.43655
1.43724
1.43933
1.43958
1.43531
1.43061
1.4314
1.43425
1.44355
1.45686
1.4642
1.47088
1.47596
1.47285
1.45896
1.43657
1.40495
1.37846
1.35899
1.34743
1.34361
1.34121
1.33732
1.3411
1.34447
1.34318
1.34015
1.33698
1.33432
1.33225
1.33646
1.36012
1.40661
1.43424
1.43724
1.43594
1.42482
1.38247
1.29093
1.21667
1.20126
1.20599
1.21255
1.21815
1.22748
1.24452
1.28058
1.35925
1.4591
1.49191
1.488
1.47393
1.45017
1.38401
1.23929
1.13654
1.12168
1.12459
1.13232
1.14141
1.15996
1.19524
1.25684
1.35895
1.47448
1.52143
1.5219
1.51195
1.48933
1.45092
1.36922
1.2316
1.153
1.14837
1.15576
1.16431
1.18042
1.21085
1.267
1.3582
1.45059
1.48169
1.47939
1.46683
1.44118
1.38729
1.27131
1.15436
1.12485
1.13068
1.1479
1.16983
1.19869
1.23381
1.27549
1.3326
1.41557
1.48339
1.49238
1.47885
1.45449
1.40672
1.2995
1.19373
1.16891
1.16779
1.17305
1.18575
1.2228
1.30391
1.3798
1.39866
1.40006
1.39683
1.37089
1.28524
1.20923
1.2025
1.21032
1.22619
1.2561
1.31563
1.40115
1.44636
1.44924
1.44225
1.42424
1.3746
1.27112
1.20189
1.19509
1.19828
1.20832
1.23746
1.30865
1.40739
1.44926
1.45207
1.44987
1.44042
1.40125
1.31683
1.2697
1.26174
1.25823
1.25906
1.26881
1.27349
1.26778
2.07114
2.07033
2.06932
2.05894
2.04048
2.02281
2.00821
1.99654
1.98325
1.96744
1.96087
1.9602
1.96184
1.9625
1.96233
1.96389
1.96942
1.96876
1.96203
1.9527
1.94048
1.92789
1.91752
1.90935
1.90531
1.90742
1.914
1.91698
1.91314
1.90602
1.89081
1.86605
1.84171
1.82268
1.8075
1.79031
1.77183
1.76198
1.75767
1.75471
1.75351
1.75284
1.75271
1.7533
1.75401
1.75565
1.75759
1.76349
1.77432
1.77816
1.77393
1.77319
1.77451
1.77285
1.76522
1.74643
1.71207
1.68592
1.67638
1.67114
1.66329
1.65563
1.65492
1.65526
1.65221
1.64744
1.64292
1.63625
1.62597
1.62669
1.62856
1.62872
1.63098
1.63669
1.6391
1.63355
1.62733
1.6251
1.61674
1.60067
1.58868
1.57577
1.55493
1.53207
1.51861
1.51175
1.50805
1.50356
1.49805
1.50258
1.50754
1.51079
1.51305
1.5171
1.52515
1.53456
1.54547
1.54604
1.53001
1.51295
1.48639
1.4529
1.43731
1.43337
1.43188
1.43105
1.42991
1.42387
1.41536
1.41365
1.41489
1.41789
1.42694
1.44332
1.46327
1.48314
1.49902
1.49309
1.47847
1.46117
1.42647
1.38382
1.35726
1.33949
1.32756
1.32936
1.34061
1.34742
1.34572
1.33825
1.32433
1.31487
1.30986
1.30472
1.30213
1.31217
1.35168
1.41869
1.44632
1.44901
1.44713
1.43648
1.39324
1.29353
1.2067
1.19098
1.19382
1.19963
1.2088
1.22383
1.24476
1.2805
1.35193
1.44461
1.47519
1.46879
1.44764
1.41505
1.34366
1.21068
1.12975
1.12165
1.12556
1.13371
1.15076
1.17885
1.21389
1.25829
1.32706
1.42092
1.47516
1.48095
1.47432
1.44968
1.41393
1.35557
1.25034
1.16572
1.15485
1.16073
1.17672
1.20664
1.24958
1.29881
1.35687
1.42048
1.44927
1.44598
1.4269
1.38863
1.33848
1.25564
1.16405
1.13794
1.14548
1.16324
1.18821
1.21963
1.24962
1.27887
1.32126
1.3969
1.46538
1.47175
1.45839
1.43629
1.39019
1.28214
1.18011
1.15886
1.15941
1.16428
1.17649
1.21585
1.30433
1.38395
1.40243
1.40407
1.40105
1.37795
1.29285
1.21615
1.20914
1.21515
1.2271
1.24904
1.29912
1.38094
1.4264
1.42897
1.42186
1.40579
1.36028
1.26545
1.20351
1.19892
1.20419
1.21767
1.24815
1.31488
1.40538
1.44196
1.4426
1.43695
1.4207
1.36515
1.28192
1.25135
1.2462
1.2437
1.24663
1.26003
1.263
2.08363
2.09291
2.09443
2.08348
2.05906
2.02574
1.99631
1.9753
1.96219
1.95509
1.9511
1.94933
1.95644
1.96973
1.97928
1.98212
1.98032
1.97671
1.96897
1.9509
1.92824
1.91306
1.90391
1.89862
1.89814
1.90922
1.92491
1.92695
1.9227
1.91705
1.90503
1.88089
1.84796
1.81455
1.78887
1.7759
1.76661
1.75946
1.75395
1.75074
1.75447
1.75906
1.75919
1.75942
1.7609
1.76233
1.76487
1.76395
1.76716
1.77495
1.77706
1.77694
1.77671
1.77373
1.76551
1.74252
1.70242
1.67411
1.66481
1.65948
1.65734
1.64903
1.64361
1.64314
1.64263
1.64002
1.63494
1.62571
1.62447
1.62698
1.62799
1.62891
1.63244
1.63791
1.6417
1.64075
1.63905
1.64002
1.62954
1.61596
1.60653
1.59245
1.56719
1.53711
1.51568
1.50107
1.48772
1.47899
1.48249
1.48796
1.49131
1.49979
1.51013
1.52018
1.52846
1.53748
1.55161
1.55322
1.53907
1.52521
1.50484
1.46879
1.43704
1.42336
1.42106
1.41982
1.41429
1.40541
1.40258
1.40508
1.40661
1.411
1.41934
1.43221
1.45299
1.48473
1.50483
1.49506
1.48218
1.47055
1.45178
1.42024
1.38266
1.34849
1.32389
1.32072
1.33219
1.3404
1.34121
1.3317
1.30919
1.29587
1.29008
1.28445
1.27954
1.28233
1.30552
1.37389
1.44478
1.4557
1.45215
1.44738
1.43547
1.38993
1.28414
1.2022
1.1917
1.19305
1.19875
1.20976
1.22254
1.23701
1.26234
1.32069
1.40479
1.4344
1.42963
1.41351
1.38803
1.32844
1.2079
1.12936
1.12396
1.12979
1.1455
1.16912
1.1923
1.21101
1.23345
1.27798
1.35531
1.41152
1.42466
1.42497
1.41297
1.39548
1.36372
1.28625
1.19263
1.17034
1.17812
1.20444
1.23798
1.26092
1.27597
1.29945
1.34542
1.37921
1.38277
1.37377
1.36002
1.33609
1.27809
1.18396
1.15225
1.16043
1.17897
1.20157
1.22379
1.24169
1.26226
1.3029
1.38845
1.45563
1.45744
1.44602
1.42793
1.38172
1.26422
1.16397
1.1472
1.14763
1.15057
1.16295
1.21075
1.31471
1.39406
1.41128
1.41453
1.41311
1.39029
1.29653
1.21319
1.20477
1.20773
1.21319
1.2291
1.27809
1.36544
1.41215
1.41531
1.40963
1.39668
1.35676
1.27023
1.21369
1.20952
1.21398
1.22599
1.25141
1.30917
1.3923
1.42603
1.42467
1.41363
1.38932
1.32775
1.25686
1.23674
1.23269
1.23102
1.2376
1.25685
2.0983
2.10925
2.10797
2.09605
2.0736
2.03305
1.9897
1.9668
1.95471
1.94716
1.94377
1.94362
1.95242
1.97979
1.9907
1.98893
1.98537
1.98008
1.96559
1.93995
1.91894
1.90581
1.8954
1.89091
1.89858
1.91866
1.9346
1.93333
1.92753
1.91984
1.90703
1.8838
1.84517
1.80485
1.78242
1.77324
1.77058
1.76595
1.75952
1.75685
1.75978
1.76648
1.76977
1.77012
1.77237
1.77299
1.76893
1.76353
1.76491
1.77079
1.77374
1.77298
1.77085
1.76728
1.75981
1.7412
1.70943
1.68052
1.66695
1.65662
1.64768
1.63627
1.6291
1.63019
1.63043
1.62821
1.62286
1.62219
1.6255
1.62645
1.62675
1.62882
1.63178
1.63336
1.63397
1.63612
1.64177
1.64515
1.63483
1.62548
1.61839
1.60452
1.58001
1.54719
1.51737
1.49028
1.46858
1.46824
1.47479
1.47716
1.47786
1.4853
1.5061
1.52414
1.53446
1.54507
1.55972
1.56708
1.55854
1.54696
1.5313
1.49741
1.44641
1.41151
1.39415
1.38605
1.38174
1.38676
1.39296
1.39787
1.40276
1.40941
1.41848
1.43131
1.45382
1.48134
1.4936
1.48902
1.48148
1.47222
1.46072
1.44943
1.42979
1.39491
1.35212
1.32987
1.32583
1.32707
1.32413
1.31168
1.29128
1.28103
1.27569
1.27031
1.26618
1.26769
1.2808
1.31916
1.39684
1.44776
1.45383
1.45163
1.45004
1.43764
1.38984
1.27789
1.20001
1.19116
1.19172
1.19721
1.20475
1.20966
1.21621
1.23503
1.2897
1.37126
1.40089
1.40038
1.39539
1.38181
1.33487
1.22139
1.14137
1.13603
1.14383
1.16183
1.17567
1.18
1.18381
1.19374
1.22632
1.29472
1.35739
1.38222
1.39339
1.39864
1.39707
1.38314
1.328
1.23649
1.20233
1.20534
1.22267
1.22777
1.22494
1.22708
1.24468
1.29464
1.34085
1.35474
1.36162
1.36532
1.35361
1.30091
1.19901
1.16426
1.17154
1.18488
1.19767
1.2085
1.22076
1.24295
1.29718
1.40098
1.45428
1.45119
1.44071
1.42329
1.36692
1.23212
1.14265
1.13121
1.13078
1.13318
1.1511
1.21787
1.34215
1.41392
1.4277
1.43169
1.43071
1.39796
1.281
1.19469
1.18613
1.18763
1.19125
1.20712
1.26468
1.36234
1.40801
1.41276
1.40905
1.39961
1.36402
1.27785
1.22211
1.21731
1.21852
1.22431
1.24241
1.29019
1.36403
1.39472
1.3938
1.38422
1.36038
1.30046
1.23796
1.22443
1.22327
1.22706
1.25541
2.10947
2.11404
2.10554
2.0928
2.07548
2.04442
2.00215
1.96956
1.95243
1.94428
1.94145
1.94246
1.95331
1.96928
1.97257
1.9726
1.97042
1.96592
1.95409
1.93325
1.9164
1.90464
1.895
1.89386
1.90625
1.92311
1.92413
1.92211
1.92041
1.91602
1.90387
1.88156
1.84964
1.80931
1.78359
1.77675
1.77416
1.77235
1.76813
1.76445
1.76568
1.77579
1.78296
1.78049
1.77839
1.77882
1.77617
1.77017
1.76662
1.76477
1.76233
1.75791
1.75569
1.7531
1.75202
1.74419
1.73172
1.71483
1.6928
1.66559
1.64759
1.63249
1.61788
1.61674
1.61911
1.61358
1.6133
1.62252
1.62637
1.62629
1.62744
1.63005
1.63125
1.6302
1.6287
1.63172
1.6433
1.64622
1.63723
1.63228
1.62297
1.60598
1.58363
1.55694
1.52024
1.48308
1.46554
1.46661
1.47002
1.46996
1.47016
1.47299
1.48067
1.49907
1.5255
1.5458
1.56455
1.5794
1.57568
1.56653
1.5561
1.53327
1.47969
1.41054
1.36978
1.35379
1.3562
1.36489
1.37821
1.39157
1.4021
1.4152
1.4284
1.44075
1.45087
1.45227
1.45604
1.46797
1.47192
1.46802
1.46168
1.45755
1.45343
1.4415
1.41294
1.37111
1.33548
1.31302
1.29758
1.2825
1.27268
1.26834
1.26507
1.26121
1.2594
1.26283
1.27219
1.29022
1.33065
1.39888
1.43985
1.44907
1.4536
1.45401
1.44155
1.39177
1.27372
1.19673
1.18725
1.18683
1.18715
1.18371
1.18122
1.18507
1.20514
1.26583
1.35379
1.39013
1.39485
1.39697
1.38956
1.34753
1.23625
1.15883
1.15204
1.15526
1.15542
1.15039
1.14417
1.14137
1.14706
1.17634
1.24216
1.32205
1.37107
1.39228
1.40315
1.40947
1.40715
1.36899
1.27797
1.2142
1.19742
1.18831
1.17913
1.17456
1.1781
1.20501
1.27231
1.33764
1.36254
1.37488
1.37991
1.36928
1.30987
1.20018
1.16567
1.1689
1.17503
1.18094
1.18957
1.20491
1.23501
1.30955
1.42055
1.45471
1.44823
1.43555
1.41109
1.33318
1.18817
1.12178
1.11578
1.11616
1.12214
1.15332
1.24948
1.38444
1.43535
1.44332
1.44531
1.43936
1.38103
1.23872
1.16801
1.16273
1.16433
1.16924
1.19239
1.26877
1.3763
1.4179
1.42596
1.42393
1.41408
1.37088
1.27094
1.21253
1.20534
1.205
1.20827
1.22206
1.26876
1.34181
1.37046
1.37021
1.3636
1.34097
1.28155
1.22967
1.22397
1.22893
1.26359
2.10636
2.10346
2.09483
2.08332
2.06679
2.04539
2.02141
1.99818
1.97699
1.96206
1.95419
1.95341
1.95591
1.95842
1.95612
1.95325
1.95029
1.94529
1.93888
1.93122
1.92271
1.91302
1.90744
1.90924
1.91502
1.91882
1.91697
1.91258
1.90747
1.89992
1.88731
1.86959
1.85127
1.83216
1.80639
1.7845
1.77528
1.77016
1.76774
1.76631
1.77021
1.77994
1.78819
1.78655
1.78424
1.7834
1.78177
1.77722
1.771
1.76259
1.75249
1.74288
1.73767
1.73338
1.73119
1.73563
1.74063
1.73082
1.71552
1.69065
1.65664
1.63308
1.61729
1.60918
1.60513
1.60129
1.60921
1.61667
1.6235
1.62775
1.62959
1.62952
1.62933
1.63003
1.63126
1.63751
1.64878
1.64498
1.63789
1.62878
1.61782
1.603
1.58113
1.55547
1.52896
1.4986
1.47652
1.47049
1.46806
1.4663
1.46567
1.46637
1.46657
1.46763
1.4819
1.51907
1.56664
1.586
1.58198
1.5742
1.56615
1.55102
1.51632
1.44666
1.37757
1.35094
1.34431
1.34851
1.35873
1.38271
1.40747
1.42367
1.4377
1.44969
1.44778
1.43482
1.42894
1.43349
1.45337
1.46263
1.46274
1.46241
1.46394
1.4666
1.46143
1.43347
1.36939
1.3016
1.26688
1.25836
1.2559
1.25532
1.25558
1.25568
1.25723
1.26333
1.27214
1.28206
1.29654
1.32863
1.38861
1.43611
1.44987
1.45589
1.45708
1.44637
1.39552
1.27142
1.1869
1.17243
1.1677
1.16133
1.1554
1.15299
1.1574
1.18225
1.25422
1.35349
1.39703
1.40866
1.41304
1.40905
1.36698
1.24901
1.15916
1.13998
1.13243
1.123
1.11142
1.10323
1.10239
1.11156
1.14147
1.21283
1.31017
1.37634
1.40524
1.4246
1.43639
1.43392
1.39539
1.27743
1.17662
1.14906
1.13959
1.13509
1.13455
1.14507
1.18658
1.27755
1.35992
1.38436
1.39197
1.39292
1.37664
1.29904
1.18371
1.15578
1.15879
1.16376
1.17075
1.18265
1.20078
1.23682
1.32132
1.42283
1.44135
1.43202
1.41677
1.38457
1.29074
1.15519
1.11133
1.10871
1.11134
1.12578
1.17764
1.298
1.41644
1.44171
1.44228
1.44013
1.42331
1.3353
1.18829
1.14144
1.14131
1.14618
1.15843
1.20009
1.30405
1.41725
1.44752
1.4479
1.43918
1.41972
1.35355
1.23851
1.18575
1.17858
1.17884
1.1836
1.20152
1.25611
1.33109
1.35658
1.35727
1.35341
1.33393
1.28307
1.24432
1.24368
1.26744
2.08561
2.07877
2.07215
2.06213
2.04958
2.03762
2.02927
2.0207
2.01126
2.00377
1.99591
1.98164
1.96566
1.95203
1.93814
1.92829
1.92251
1.9176
1.91828
1.92488
1.92312
1.91864
1.91989
1.92315
1.92129
1.9166
1.91204
1.90667
1.89906
1.88538
1.87096
1.8601
1.8552
1.85167
1.83979
1.81863
1.80333
1.78906
1.77425
1.77167
1.77661
1.78453
1.79128
1.79049
1.78662
1.78609
1.78603
1.78245
1.77405
1.76015
1.74172
1.7303
1.72313
1.71802
1.71708
1.72786
1.74319
1.73764
1.72684
1.7098
1.67776
1.64401
1.62052
1.60488
1.59308
1.59831
1.60753
1.61108
1.61622
1.6276
1.63402
1.6367
1.63935
1.63989
1.64039
1.64845
1.65085
1.64197
1.63266
1.61814
1.60094
1.58581
1.57039
1.55173
1.53224
1.51553
1.50145
1.48893
1.4768
1.46727
1.46234
1.45945
1.4556
1.45192
1.45555
1.47946
1.53508
1.57884
1.58134
1.57668
1.56894
1.55348
1.52933
1.49287
1.436
1.37479
1.34843
1.34298
1.34629
1.35853
1.38115
1.40475
1.42462
1.43539
1.42864
1.41856
1.41348
1.41401
1.43223
1.45686
1.46383
1.46652
1.47603
1.48516
1.48433
1.4653
1.40509
1.30347
1.25672
1.24815
1.24515
1.24428
1.24681
1.25226
1.25928
1.2672
1.27611
1.28129
1.28472
1.2928
1.31962
1.3797
1.43765
1.45597
1.45976
1.4588
1.4476
1.3909
1.25455
1.16487
1.14735
1.14175
1.13607
1.13162
1.13082
1.13818
1.17273
1.2668
1.3823
1.42332
1.43521
1.43892
1.43261
1.37708
1.23378
1.13277
1.10697
1.09421
1.08331
1.07413
1.07274
1.0804
1.09421
1.12946
1.2103
1.32748
1.40855
1.43853
1.45517
1.45701
1.44068
1.3765
1.22003
1.12392
1.11053
1.10724
1.10551
1.10995
1.1305
1.19036
1.30456
1.38289
1.39616
1.39967
1.39865
1.37356
1.27389
1.16215
1.14612
1.15148
1.15848
1.16734
1.17844
1.19348
1.22874
1.31509
1.40742
1.41856
1.40908
1.39354
1.36062
1.26779
1.14263
1.10761
1.10883
1.12123
1.14874
1.20933
1.31979
1.41413
1.43079
1.4286
1.42
1.3922
1.29312
1.1645
1.1366
1.13944
1.14952
1.17222
1.22899
1.3404
1.43078
1.44383
1.43796
1.42528
1.39685
1.31036
1.19556
1.15803
1.15492
1.15801
1.16629
1.19244
1.25673
1.33039
1.35237
1.35521
1.35428
1.34023
1.29859
1.271
1.2738
2.06929
2.05508
2.04532
2.03374
2.02682
2.02616
2.02794
2.02716
2.02891
2.03437
2.03335
2.02173
1.99537
1.95593
1.92149
1.90419
1.89714
1.89147
1.88871
1.89783
1.92002
1.9275
1.92959
1.92624
1.91982
1.91408
1.9074
1.89724
1.88481
1.87457
1.86527
1.85981
1.85805
1.86038
1.85621
1.8489
1.83773
1.82117
1.79575
1.78311
1.7806
1.77905
1.77883
1.78131
1.78271
1.78485
1.78587
1.78181
1.76995
1.75015
1.73406
1.7239
1.71576
1.71055
1.71346
1.73018
1.74181
1.73548
1.72773
1.71588
1.69748
1.67298
1.64283
1.60889
1.59162
1.59893
1.60551
1.6071
1.60871
1.61352
1.62521
1.63933
1.64721
1.65376
1.66074
1.66537
1.65606
1.64555
1.63294
1.61457
1.58986
1.56565
1.55092
1.54363
1.53581
1.52732
1.51883
1.51018
1.49864
1.48106
1.46382
1.45412
1.44737
1.44301
1.44321
1.45276
1.47873
1.52438
1.55936
1.5651
1.56053
1.54942
1.53403
1.51855
1.49715
1.45326
1.38347
1.34787
1.3438
1.3477
1.35505
1.36568
1.37986
1.39358
1.40008
1.40004
1.39975
1.40384
1.42186
1.44671
1.45934
1.47027
1.48144
1.48799
1.48561
1.46675
1.42531
1.34413
1.26966
1.24804
1.24278
1.23924
1.23988
1.24904
1.26288
1.27863
1.28047
1.27816
1.27645
1.27657
1.28292
1.30865
1.37393
1.4444
1.46167
1.46169
1.45795
1.44268
1.37189
1.21996
1.13736
1.12374
1.11961
1.11617
1.11439
1.11625
1.1305
1.1822
1.30343
1.42693
1.45689
1.45859
1.4545
1.43396
1.34629
1.17433
1.08856
1.07019
1.06086
1.05396
1.05396
1.06243
1.07383
1.09556
1.14484
1.23724
1.36063
1.43778
1.45758
1.46016
1.44563
1.41615
1.31822
1.15253
1.09299
1.0879
1.08671
1.09045
1.10276
1.13267
1.20792
1.33127
1.39287
1.39918
1.40154
1.39826
1.36337
1.24848
1.15063
1.14346
1.149
1.15452
1.15894
1.16412
1.17416
1.20971
1.30141
1.38743
1.39655
1.39091
1.38043
1.3525
1.26834
1.1573
1.12688
1.12834
1.14021
1.16282
1.21017
1.30328
1.39038
1.40778
1.40696
1.40243
1.37707
1.28011
1.1616
1.14141
1.14757
1.16105
1.18404
1.23788
1.34326
1.42103
1.42833
1.41995
1.40375
1.36557
1.26684
1.16688
1.14409
1.14391
1.14838
1.16047
1.19491
1.27049
1.34432
1.36194
1.3645
1.36407
1.35067
1.31124
1.28179
2.05384
2.03401
2.01821
2.00944
2.00747
2.0135
2.02766
2.03593
2.04369
2.05578
2.05844
2.05102
2.02768
1.97151
1.91445
1.88918
1.87919
1.87287
1.86791
1.87051
1.89189
1.92215
1.92102
1.9183
1.916
1.91013
1.90114
1.88624
1.87207
1.8661
1.86291
1.85905
1.85549
1.85498
1.86096
1.86547
1.85532
1.84364
1.82712
1.80377
1.78941
1.78198
1.77681
1.77401
1.77871
1.77944
1.77386
1.7653
1.75418
1.7425
1.73256
1.72497
1.71942
1.71641
1.72173
1.73665
1.73743
1.73021
1.72329
1.7137
1.70221
1.68931
1.66839
1.6343
1.60312
1.60065
1.60298
1.60298
1.60359
1.60491
1.60726
1.61557
1.63685
1.65861
1.67709
1.67444
1.66284
1.6522
1.63779
1.61523
1.58751
1.55949
1.53729
1.53316
1.5372
1.53457
1.52614
1.52033
1.51456
1.50374
1.48562
1.46442
1.44859
1.44091
1.43767
1.43902
1.44451
1.45758
1.48662
1.52512
1.53965
1.53821
1.53404
1.53207
1.52908
1.51857
1.47975
1.39938
1.34872
1.33815
1.33742
1.33747
1.33784
1.34459
1.35869
1.37546
1.39044
1.40402
1.42415
1.44118
1.44951
1.45815
1.46904
1.47558
1.47324
1.45762
1.42467
1.3812
1.32654
1.27062
1.24575
1.24048
1.23939
1.24784
1.26981
1.27784
1.27587
1.27135
1.26671
1.26331
1.26363
1.27029
1.29799
1.37255
1.44725
1.46006
1.45821
1.45308
1.43136
1.33867
1.17989
1.11594
1.10694
1.10499
1.10428
1.10697
1.11856
1.14934
1.21863
1.33944
1.4386
1.45555
1.4522
1.43859
1.40115
1.28104
1.11475
1.05651
1.04354
1.03777
1.04293
1.05385