/*--------------------------------*- C++ -*----------------------------------*\
  =========                 |
  \\      /  F ield         | OpenFOAM: The Open Source CFD Toolbox
   \\    /   O peration     | Website:  https://openfoam.org
    \\  /    A nd           | Version:  7
     \\/     M anipulation  |
\*---------------------------------------------------------------------------*/
FoamFile
{
    version     2.0;
    format      ascii;
    class       volVectorField;
    location    "5.5";
    object      U;
}
// * * * * * * * * * * * * * * * * * * * * * * * * * * * * * * * * * * * * * //

dimensions      [0 1 -1 0 0 0 0];

internalField   nonuniform List<vector> 
3328
(
(-1.7999 0.0011022 0)
(-0.0120105 0.00058242 0)
(0.515507 0.00275328 0)
(0.508617 0.0029435 0)
(0.50287 0.00372861 0)
(0.495477 0.00430456 0)
(0.486943 0.00500891 0)
(0.477401 0.00574402 0)
(0.466865 0.00645112 0)
(0.454633 0.0071278 0)
(0.439814 0.00781245 0)
(0.422951 0.00858147 0)
(0.404744 0.00945058 0)
(0.384979 0.0103746 0)
(0.36272 0.011381 0)
(0.337153 0.0124863 0)
(0.308621 0.0136135 0)
(0.277662 0.0152666 0)
(0.244141 0.0169458 0)
(0.207123 0.0187028 0)
(0.168111 0.0205703 0)
(0.123934 0.0222859 0)
(0.0764483 0.0236385 0)
(0.0269927 0.0251913 0)
(-1.79967 0.00306617 0)
(-0.0116627 0.00220441 0)
(0.515916 0.00924714 0)
(0.508948 0.00994368 0)
(0.503122 0.0121575 0)
(0.495506 0.013722 0)
(0.486799 0.0156004 0)
(0.477061 0.0175432 0)
(0.466371 0.0194238 0)
(0.453996 0.0213075 0)
(0.439306 0.0234111 0)
(0.422618 0.0259009 0)
(0.404513 0.0286669 0)
(0.384822 0.0315351 0)
(0.362738 0.0346276 0)
(0.337456 0.0382333 0)
(0.309009 0.0419614 0)
(0.277998 0.0471706 0)
(0.244072 0.0524155 0)
(0.206408 0.0576726 0)
(0.166805 0.0632383 0)
(0.122329 0.0686011 0)
(0.0748517 0.0728496 0)
(0.0260735 0.0771652 0)
(-1.79939 0.00507683 0)
(-0.0110777 0.00399791 0)
(0.517775 0.0149366 0)
(0.510888 0.0160518 0)
(0.505127 0.019411 0)
(0.497454 0.0218945 0)
(0.488887 0.0248773 0)
(0.479085 0.0280447 0)
(0.468353 0.0312046 0)
(0.456171 0.0344652 0)
(0.441918 0.0381024 0)
(0.425687 0.0423259 0)
(0.407937 0.0470372 0)
(0.388631 0.0520107 0)
(0.367185 0.057361 0)
(0.342904 0.0636154 0)
(0.315351 0.0698617 0)
(0.285277 0.0783989 0)
(0.251897 0.087122 0)
(0.213831 0.0959862 0)
(0.173461 0.105839 0)
(0.127688 0.115455 0)
(0.0781662 0.122735 0)
(0.0270684 0.129481 0)
(-1.79925 0.00728673 0)
(-0.0104023 0.00595533 0)
(0.5199 0.0202717 0)
(0.513175 0.0217403 0)
(0.507459 0.0259282 0)
(0.499816 0.0292206 0)
(0.491361 0.0331684 0)
(0.481501 0.037517 0)
(0.470764 0.0420564 0)
(0.458819 0.0467661 0)
(0.445144 0.0519226 0)
(0.429591 0.0579013 0)
(0.412394 0.0646038 0)
(0.393659 0.0718106 0)
(0.373036 0.0794424 0)
(0.350118 0.0884257 0)
(0.323697 0.0972473 0)
(0.294633 0.109219 0)
(0.261632 0.122067 0)
(0.22253 0.135578 0)
(0.181362 0.15067 0)
(0.134744 0.16542 0)
(0.0833127 0.176407 0)
(0.0287463 0.185706 0)
(-1.79895 0.00942535 0)
(-0.00944328 0.00794577 0)
(0.522305 0.0251442 0)
(0.515844 0.0268613 0)
(0.510207 0.0315236 0)
(0.502782 0.0354572 0)
(0.494555 0.0402219 0)
(0.484809 0.0457375 0)
(0.474203 0.0516503 0)
(0.462669 0.057849 0)
(0.449767 0.0645651 0)
(0.435188 0.07223 0)
(0.418849 0.0808637 0)
(0.400942 0.0903871 0)
(0.381167 0.100335 0)
(0.359752 0.11222 0)
(0.334648 0.123881 0)
(0.307321 0.139386 0)
(0.276218 0.156396 0)
(0.23946 0.174484 0)
(0.200033 0.194821 0)
(0.153042 0.215872 0)
(0.0966578 0.233553 0)
(0.0347433 0.248581 0)
(-1.79872 0.0116764 0)
(-0.00848195 0.0102034 0)
(0.524631 0.0297554 0)
(0.518574 0.0315255 0)
(0.513212 0.0363147 0)
(0.506181 0.0406958 0)
(0.498454 0.0460819 0)
(0.489097 0.0526707 0)
(0.478786 0.0599652 0)
(0.467825 0.0676725 0)
(0.45584 0.0758544 0)
(0.442465 0.0851004 0)
(0.427214 0.0955153 0)
(0.410373 0.107421 0)
(0.3914 0.119753 0)
(0.371675 0.134622 0)
(0.348387 0.149151 0)
(0.323559 0.167672 0)
(0.295048 0.188326 0)
(0.259917 0.212247 0)
(0.219644 0.24179 0)
(0.16884 0.274295 0)
(0.107422 0.302583 0)
(0.0344574 0.321954 0)
(-1.79848 0.0139634 0)
(-0.00756349 0.0126619 0)
(0.52673 0.0341554 0)
(0.521136 0.0359449 0)
(0.51624 0.040535 0)
(0.509749 0.0452003 0)
(0.502574 0.0510668 0)
(0.493859 0.058614 0)
(0.48389 0.0672457 0)
(0.473415 0.0764929 0)
(0.462237 0.0861623 0)
(0.450134 0.0970003 0)
(0.436125 0.108998 0)
(0.420825 0.123149 0)
(0.402986 0.137639 0)
(0.38544 0.15512 0)
(0.364523 0.172309 0)
(0.34259 0.193819 0)
(0.316653 0.218388 0)
(0.286877 0.249167 0)
(0.253626 0.286934 0)
(0.211002 0.330065 0)
(0.147958 0.371647 0)
(0.0634492 0.403733 0)
(-1.79824 0.0163181 0)
(-0.00685943 0.0152834 0)
(0.528564 0.0385947 0)
(0.523482 0.0403217 0)
(0.519256 0.0446394 0)
(0.513548 0.0493556 0)
(0.506976 0.055626 0)
(0.499322 0.0638475 0)
(0.48998 0.0736349 0)
(0.480094 0.0843544 0)
(0.469729 0.0954018 0)
(0.459136 0.107735 0)
(0.446568 0.120909 0)
(0.43338 0.13685 0)
(0.416989 0.153131 0)
(0.401674 0.172842 0)
(0.383138 0.192636 0)
(0.365069 0.216992 0)
(0.342735 0.243892 0)
(0.322571 0.277835 0)
(0.294426 0.321086 0)
(0.257011 0.390599 0)
(0.165596 0.466793 0)
(0.119136 0.556768 0)
(-1.79788 0.0186216 0)
(-0.00635067 0.017816 0)
(0.530184 0.0432592 0)
(0.525613 0.0449206 0)
(0.522165 0.0489389 0)
(0.517343 0.0537256 0)
(0.511775 0.0602791 0)
(0.505174 0.0688826 0)
(0.497021 0.0792907 0)
(0.488067 0.0912109 0)
(0.47839 0.103509 0)
(0.469414 0.117286 0)
(0.458163 0.131438 0)
(0.447324 0.14875 0)
(0.432687 0.166602 0)
(0.419616 0.188147 0)
(0.403513 0.210092 0)
(0.389797 0.236048 0)
(0.372331 0.2635 0)
(0.359517 0.300611 0)
(0.335065 0.355311 0)
(0.316071 0.445247 0)
(0.293434 0.535326 0)
(0.363371 0.607857 0)
(-1.7974 0.0208096 0)
(-0.00599042 0.0201017 0)
(0.531728 0.0482109 0)
(0.527597 0.0499158 0)
(0.524957 0.053771 0)
(0.52101 0.0585945 0)
(0.516603 0.0654073 0)
(0.511149 0.0742036 0)
(0.504378 0.0847212 0)
(0.496874 0.0972799 0)
(0.487965 0.110497 0)
(0.480531 0.125509 0)
(0.470625 0.140568 0)
(0.462136 0.15877 0)
(0.449898 0.177733 0)
(0.439094 0.200468 0)
(0.425481 0.223928 0)
(0.415567 0.250725 0)
(0.402976 0.279226 0)
(0.395103 0.318364 0)
(0.38427 0.3773 0)
(0.380519 0.455761 0)
(0.397001 0.505788 0)
(0.45189 0.500914 0)
(-1.7967 0.0227266 0)
(-0.00566456 0.0220095 0)
(0.5335 0.0532563 0)
(0.529735 0.0551645 0)
(0.527857 0.0591486 0)
(0.524744 0.0642175 0)
(0.521254 0.0711388 0)
(0.517252 0.0800108 0)
(0.511562 0.0904003 0)
(0.505912 0.102963 0)
(0.498181 0.116558 0)
(0.49213 0.132261 0)
(0.48381 0.14806 0)
(0.477492 0.166714 0)
(0.467633 0.186574 0)
(0.459327 0.209791 0)
(0.448447 0.234432 0)
(0.440974 0.261757 0)
(0.433423 0.290923 0)
(0.430143 0.328047 0)
(0.432744 0.381049 0)
(0.440341 0.447681 0)
(0.470238 0.490938 0)
(0.510859 0.489508 0)
(-1.79575 0.0242773 0)
(-0.00545774 0.0233468 0)
(0.535809 0.0580263 0)
(0.532411 0.0603394 0)
(0.531137 0.0647913 0)
(0.528771 0.0704262 0)
(0.526009 0.0775444 0)
(0.523179 0.0863111 0)
(0.518947 0.0963431 0)
(0.514853 0.108498 0)
(0.508766 0.122036 0)
(0.503844 0.137865 0)
(0.497182 0.154232 0)
(0.492394 0.172792 0)
(0.485829 0.192953 0)
(0.479257 0.216039 0)
(0.471901 0.241389 0)
(0.465892 0.268942 0)
(0.462724 0.298166 0)
(0.463207 0.331891 0)
(0.473567 0.375632 0)
(0.487571 0.430014 0)
(0.518429 0.468887 0)
(0.547931 0.470626 0)
(-1.79453 0.0254126 0)
(-0.00523743 0.0239353 0)
(0.539009 0.0619722 0)
(0.536049 0.064884 0)
(0.5351 0.070109 0)
(0.533332 0.0765996 0)
(0.531135 0.0841279 0)
(0.529136 0.0928023 0)
(0.526399 0.102542 0)
(0.523664 0.114071 0)
(0.519341 0.127349 0)
(0.515318 0.142895 0)
(0.510242 0.159603 0)
(0.506491 0.177855 0)
(0.503106 0.197699 0)
(0.498756 0.21984 0)
(0.494871 0.244865 0)
(0.490698 0.272149 0)
(0.490622 0.301134 0)
(0.493399 0.331789 0)
(0.505496 0.366702 0)
(0.521878 0.409907 0)
(0.550195 0.448723 0)
(0.575581 0.455606 0)
(-1.79312 0.0263281 0)
(-0.00481474 0.0242582 0)
(0.542992 0.0647235 0)
(0.540596 0.0683045 0)
(0.539722 0.0745182 0)
(0.538414 0.081934 0)
(0.536768 0.0899938 0)
(0.535378 0.0986875 0)
(0.533955 0.108282 0)
(0.532337 0.119523 0)
(0.529563 0.13256 0)
(0.526365 0.147664 0)
(0.5229 0.164268 0)
(0.519995 0.182023 0)
(0.519086 0.201247 0)
(0.517209 0.222281 0)
(0.516546 0.246027 0)
(0.515012 0.272205 0)
(0.517079 0.300372 0)
(0.521434 0.32923 0)
(0.531992 0.358602 0)
(0.546826 0.392056 0)
(0.570723 0.426677 0)
(0.598057 0.448207 0)
(-1.79162 0.0270699 0)
(-0.00401907 0.0248732 0)
(0.547598 0.0660999 0)
(0.545912 0.0702552 0)
(0.545024 0.0773404 0)
(0.543854 0.0856515 0)
(0.542714 0.0943336 0)
(0.541722 0.103234 0)
(0.541357 0.112894 0)
(0.540652 0.124035 0)
(0.539419 0.137098 0)
(0.537001 0.151929 0)
(0.535073 0.168309 0)
(0.533054 0.185695 0)
(0.533899 0.204182 0)
(0.534198 0.224115 0)
(0.536397 0.246273 0)
(0.53782 0.270738 0)
(0.5418 0.297219 0)
(0.547659 0.324764 0)
(0.557162 0.352088 0)
(0.569159 0.380247 0)
(0.586876 0.408448 0)
(0.61003 0.434462 0)
(-1.79021 0.0276751 0)
(-0.00289921 0.025849 0)
(0.552567 0.0660943 0)
(0.551644 0.0704472 0)
(0.550905 0.0781432 0)
(0.549697 0.0870623 0)
(0.548884 0.0961801 0)
(0.548033 0.10547 0)
(0.548145 0.115696 0)
(0.548222 0.127413 0)
(0.548432 0.140768 0)
(0.547354 0.155531 0)
(0.546845 0.171589 0)
(0.545962 0.188653 0)
(0.547914 0.206634 0)
(0.54983 0.225744 0)
(0.554184 0.246401 0)
(0.558311 0.269103 0)
(0.564314 0.29353 0)
(0.571748 0.319233 0)
(0.581415 0.345282 0)
(0.592104 0.371762 0)
(0.606219 0.397655 0)
(0.623768 0.422373 0)
(-1.78898 0.0282213 0)
(-0.00176988 0.0270931 0)
(0.557821 0.0651763 0)
(0.557507 0.0695092 0)
(0.55693 0.077121 0)
(0.555744 0.0859467 0)
(0.555079 0.0950845 0)
(0.554229 0.104562 0)
(0.554532 0.115296 0)
(0.555337 0.1278 0)
(0.55674 0.142 0)
(0.557342 0.157348 0)
(0.558329 0.173604 0)
(0.558784 0.190703 0)
(0.561391 0.208519 0)
(0.564573 0.227118 0)
(0.570218 0.246601 0)
(0.576338 0.267628 0)
(0.58426 0.290035 0)
(0.593441 0.313822 0)
(0.604215 0.338385 0)
(0.614949 0.363707 0)
(0.627458 0.388866 0)
(0.6426 0.413658 0)
(-1.78786 0.0287182 0)
(-0.00116464 0.0287742 0)
(0.562835 0.062724 0)
(0.563153 0.0673018 0)
(0.563061 0.0748579 0)
(0.562044 0.0833526 0)
(0.56131 0.0921308 0)
(0.560408 0.101462 0)
(0.56052 0.112081 0)
(0.561653 0.124779 0)
(0.564271 0.139597 0)
(0.56669 0.156077 0)
(0.569334 0.173328 0)
(0.571257 0.191043 0)
(0.574512 0.209051 0)
(0.57861 0.227494 0)
(0.585033 0.246231 0)
(0.592447 0.265906 0)
(0.601843 0.286441 0)
(0.612632 0.30824 0)
(0.625005 0.331239 0)
(0.636965 0.35567 0)
(0.649504 0.380596 0)
(0.663571 0.405583 0)
(-1.78675 0.0293233 0)
(-0.00140349 0.0304007 0)
(0.568216 0.0594901 0)
(0.568838 0.0641552 0)
(0.569254 0.0716628 0)
(0.568532 0.0801089 0)
(0.567804 0.0884632 0)
(0.566885 0.0971943 0)
(0.567335 0.107399 0)
(0.56814 0.119815 0)
(0.57155 0.134631 0)
(0.575199 0.151675 0)
(0.57969 0.170144 0)
(0.583081 0.189185 0)
(0.587227 0.207944 0)
(0.591926 0.226428 0)
(0.598862 0.24448 0)
(0.60711 0.262982 0)
(0.617608 0.281995 0)
(0.629744 0.302041 0)
(0.643799 0.323208 0)
(0.657531 0.346339 0)
(0.671249 0.370909 0)
(0.685586 0.396644 0)
(-1.78561 0.0302126 0)
(-0.00159249 0.0311878 0)
(0.57131 0.0528512 0)
(0.574565 0.0628079 0)
(0.576141 0.0697843 0)
(0.575403 0.0775156 0)
(0.574427 0.08509 0)
(0.574109 0.0928669 0)
(0.574828 0.102101 0)
(0.575997 0.11374 0)
(0.579227 0.127872 0)
(0.58343 0.144713 0)
(0.589112 0.163755 0)
(0.593994 0.184066 0)
(0.599308 0.204166 0)
(0.604573 0.223423 0)
(0.611889 0.241239 0)
(0.62061 0.258649 0)
(0.631815 0.276162 0)
(0.645013 0.294617 0)
(0.660763 0.314002 0)
(0.676723 0.335701 0)
(0.692511 0.359545 0)
(0.707996 0.385371 0)
(-1.7844 0.0310581 0)
(-0.000940333 0.0296336 0)
(0.572642 0.0481441 0)
(0.578727 0.0604776 0)
(0.581966 0.0681719 0)
(0.581765 0.0764879 0)
(0.581423 0.0837389 0)
(0.581755 0.090057 0)
(0.582783 0.0976265 0)
(0.584376 0.107599 0)
(0.587296 0.120178 0)
(0.591682 0.135854 0)
(0.59774 0.15457 0)
(0.603959 0.175568 0)
(0.610529 0.196992 0)
(0.616655 0.217596 0)
(0.624374 0.236166 0)
(0.633479 0.253275 0)
(0.645026 0.269566 0)
(0.658818 0.286454 0)
(0.675856 0.30397 0)
(0.69417 0.323619 0)
(0.712823 0.345847 0)
(0.730472 0.371336 0)
(-1.78334 0.0317072 0)
(0.000929914 0.0266959 0)
(0.572997 0.0442756 0)
(0.58014 0.0580732 0)
(0.585364 0.0667636 0)
(0.586054 0.0759032 0)
(0.586883 0.0835751 0)
(0.588542 0.0894912 0)
(0.590769 0.0955273 0)
(0.59313 0.10319 0)
(0.596375 0.113288 0)
(0.600417 0.126658 0)
(0.605978 0.143659 0)
(0.612781 0.164078 0)
(0.620533 0.186154 0)
(0.627959 0.208121 0)
(0.636421 0.228225 0)
(0.645915 0.246281 0)
(0.65779 0.262393 0)
(0.671746 0.278266 0)
(0.68934 0.294143 0)
(0.709562 0.311501 0)
(0.731398 0.331132 0)
(0.75223 0.354692 0)
(-1.78262 0.0316767 0)
(0.00385746 0.0236791 0)
(0.572857 0.042885 0)
(0.578534 0.0564296 0)
(0.586436 0.0650065 0)
(0.58817 0.0752608 0)
(0.590141 0.0844437 0)
(0.593519 0.0909151 0)
(0.597423 0.0961385 0)
(0.601447 0.101433 0)
(0.605515 0.108618 0)
(0.609766 0.119081 0)
(0.61509 0.13336 0)
(0.621487 0.151609 0)
(0.629801 0.172817 0)
(0.638513 0.195262 0)
(0.6481 0.216849 0)
(0.658261 0.236648 0)
(0.670482 0.253949 0)
(0.68443 0.269987 0)
(0.701769 0.285074 0)
(0.722745 0.300492 0)
(0.747063 0.317091 0)
(0.7717 0.337388 0)
(-1.7821 0.0313739 0)
(0.00761782 0.024707 0)
(0.57436 0.0441216 0)
(0.576936 0.0537287 0)
(0.585434 0.0623071 0)
(0.588075 0.0743625 0)
(0.591417 0.0850349 0)
(0.596461 0.0925045 0)
(0.602484 0.0976197 0)
(0.608361 0.101905 0)
(0.613659 0.10685 0)
(0.618697 0.114254 0)
(0.624215 0.125114 0)
(0.630486 0.140095 0)
(0.638572 0.158829 0)
(0.648104 0.180201 0)
(0.658951 0.202275 0)
(0.670428 0.223584 0)
(0.683261 0.242834 0)
(0.697409 0.260339 0)
(0.714174 0.276094 0)
(0.734615 0.290826 0)
(0.759665 0.305071 0)
(0.78726 0.321375 0)
(-1.78145 0.0306461 0)
(0.0113847 0.0278391 0)
(0.577988 0.0457672 0)
(0.579062 0.0494414 0)
(0.584872 0.0580185 0)
(0.58726 0.0712028 0)
(0.591732 0.0834792 0)
(0.598439 0.0927303 0)
(0.606078 0.0994354 0)
(0.613637 0.103378 0)
(0.620021 0.106973 0)
(0.625922 0.111945 0)
(0.632376 0.11957 0)
(0.639459 0.131023 0)
(0.64776 0.146446 0)
(0.657619 0.165298 0)
(0.669088 0.186171 0)
(0.681812 0.207485 0)
(0.695794 0.227983 0)
(0.710614 0.247287 0)
(0.727081 0.264809 0)
(0.746426 0.280499 0)
(0.770494 0.294311 0)
(0.799048 0.307593 0)
(-1.78054 0.0296926 0)
(0.0145882 0.0314497 0)
(0.58223 0.0436045 0)
(0.58259 0.046293 0)
(0.585696 0.0544248 0)
(0.587746 0.0669864 0)
(0.59364 0.0793936 0)
(0.601534 0.0900692 0)
(0.609921 0.098553 0)
(0.617538 0.10411 0)
(0.624297 0.107634 0)
(0.631051 0.110919 0)
(0.638619 0.116201 0)
(0.647299 0.124622 0)
(0.656823 0.136718 0)
(0.667236 0.152453 0)
(0.679184 0.170834 0)
(0.692804 0.190607 0)
(0.707869 0.210558 0)
(0.7237 0.230116 0)
(0.740355 0.248925 0)
(0.758879 0.266333 0)
(0.780982 0.28162 0)
(0.808376 0.294164 0)
(-1.77942 0.0284857 0)
(0.0165007 0.0325946 0)
(0.58751 0.0408819 0)
(0.587332 0.0444259 0)
(0.588433 0.0523669 0)
(0.590669 0.0630654 0)
(0.597606 0.073946 0)
(0.605896 0.0851117 0)
(0.614068 0.0949537 0)
(0.621145 0.101942 0)
(0.627691 0.106282 0)
(0.634688 0.109606 0)
(0.643162 0.114047 0)
(0.653384 0.120493 0)
(0.664555 0.129779 0)
(0.675871 0.14232 0)
(0.688347 0.157471 0)
(0.702719 0.174377 0)
(0.718955 0.192218 0)
(0.736222 0.210458 0)
(0.753781 0.228932 0)
(0.772159 0.247004 0)
(0.792339 0.264207 0)
(0.817214 0.278164 0)
(-1.77827 0.0270903 0)
(0.0178338 0.0308702 0)
(0.592082 0.0388703 0)
(0.590694 0.0432537 0)
(0.591045 0.0501623 0)
(0.595073 0.0586446 0)
(0.602958 0.0686804 0)
(0.611074 0.0795232 0)
(0.618586 0.0891066 0)
(0.624521 0.0967262 0)
(0.63052 0.10229 0)
(0.637691 0.106843 0)
(0.64671 0.11151 0)
(0.657786 0.117142 0)
(0.669902 0.124604 0)
(0.682036 0.134331 0)
(0.694955 0.146158 0)
(0.709888 0.159622 0)
(0.727307 0.17447 0)
(0.746618 0.190133 0)
(0.766262 0.206601 0)
(0.785655 0.223532 0)
(0.805134 0.241329 0)
(0.827812 0.257388 0)
(-1.77721 0.0255336 0)
(0.0205784 0.0292021 0)
(0.593763 0.0373038 0)
(0.592314 0.0424693 0)
(0.595281 0.047728 0)
(0.600669 0.0554021 0)
(0.608339 0.0643099 0)
(0.615291 0.0731921 0)
(0.622104 0.081204 0)
(0.627619 0.0886294 0)
(0.633623 0.0953285 0)
(0.641195 0.101443 0)
(0.650659 0.107095 0)
(0.661696 0.112833 0)
(0.673487 0.119762 0)
(0.685459 0.127625 0)
(0.698186 0.13648 0)
(0.71317 0.14654 0)
(0.731273 0.157931 0)
(0.752547 0.170244 0)
(0.775448 0.183543 0)
(0.797958 0.198344 0)
(0.818605 0.215204 0)
(0.839942 0.231395 0)
(-1.77637 0.0234279 0)
(0.0243316 0.0273478 0)
(0.594959 0.0310124 0)
(0.594176 0.0419955 0)
(0.600167 0.0466604 0)
(0.605951 0.0536694 0)
(0.611789 0.0604132 0)
(0.617301 0.0664421 0)
(0.623363 0.0721733 0)
(0.629218 0.0783959 0)
(0.636466 0.0850629 0)
(0.645697 0.0921527 0)
(0.656327 0.0999149 0)
(0.667155 0.10726 0)
(0.677513 0.113993 0)
(0.68799 0.120743 0)
(0.699472 0.127797 0)
(0.713703 0.135169 0)
(0.731797 0.143548 0)
(0.754115 0.152485 0)
(0.77957 0.162944 0)
(0.806092 0.174161 0)
(0.830456 0.188003 0)
(0.852854 0.203458 0)
(-1.77563 0.0210561 0)
(0.0254854 0.0226621 0)
(0.598018 0.0251524 0)
(0.598317 0.0416995 0)
(0.605143 0.0461302 0)
(0.609216 0.0515665 0)
(0.613354 0.0558746 0)
(0.618234 0.0596809 0)
(0.623865 0.0635069 0)
(0.6306 0.06826 0)
(0.639957 0.0739406 0)
(0.651469 0.0808317 0)
(0.663673 0.0887543 0)
(0.674222 0.0977066 0)
(0.682586 0.105893 0)
(0.691067 0.111983 0)
(0.700674 0.118044 0)
(0.713222 0.124611 0)
(0.73039 0.131441 0)
(0.752869 0.138034 0)
(0.779517 0.145611 0)
(0.808667 0.15414 0)
(0.837054 0.164809 0)
(0.863399 0.176556 0)
(-1.77515 0.018402 0)
(0.0247485 0.0161256 0)
(0.601907 0.0248151 0)
(0.605048 0.0391078 0)
(0.608904 0.0438944 0)
(0.610731 0.0482684 0)
(0.613976 0.0508688 0)
(0.617575 0.053329 0)
(0.622615 0.0561245 0)
(0.630232 0.0598202 0)
(0.641711 0.0641026 0)
(0.655865 0.0699206 0)
(0.670052 0.0775309 0)
(0.681759 0.0860039 0)
(0.688903 0.0940763 0)
(0.695816 0.100885 0)
(0.704287 0.10666 0)
(0.715269 0.112915 0)
(0.7304 0.119939 0)
(0.751383 0.126247 0)
(0.777706 0.132343 0)
(0.807575 0.138207 0)
(0.838268 0.146187 0)
(0.867584 0.154609 0)
(-1.77493 0.0158157 0)
(0.0234384 0.0109849 0)
(0.607029 0.0241794 0)
(0.609318 0.0337416 0)
(0.611767 0.0387118 0)
(0.612641 0.0425947 0)
(0.613827 0.0455163 0)
(0.616429 0.0477224 0)
(0.621203 0.0500528 0)
(0.630602 0.053214 0)
(0.644055 0.0576394 0)
(0.660732 0.0633873 0)
(0.675692 0.0695144 0)
(0.687232 0.0751821 0)
(0.694124 0.0805494 0)
(0.700431 0.0863975 0)
(0.708212 0.0931194 0)
(0.718743 0.0995799 0)
(0.732975 0.106504 0)
(0.752433 0.114007 0)
(0.777097 0.121133 0)
(0.805904 0.126451 0)
(0.836613 0.131929 0)
(0.867314 0.137561 0)
(-1.77472 0.0137989 0)
(0.0231772 0.00955533 0)
(0.611518 0.0235975 0)
(0.612934 0.0281446 0)
(0.61518 0.0320469 0)
(0.615275 0.0354723 0)
(0.615122 0.0384969 0)
(0.616665 0.0411677 0)
(0.621136 0.0436921 0)
(0.630958 0.0479656 0)
(0.645868 0.0535047 0)
(0.662953 0.0585742 0)
(0.677514 0.0620697 0)
(0.689324 0.0647049 0)
(0.697713 0.0681544 0)
(0.705115 0.0721323 0)
(0.71338 0.077469 0)
(0.723716 0.084867 0)
(0.737275 0.0928318 0)
(0.755222 0.100059 0)
(0.777903 0.107909 0)
(0.804703 0.115388 0)
(0.833691 0.121268 0)
(0.864327 0.124638 0)
(-1.77447 0.0123334 0)
(0.023668 0.0110431 0)
(0.614079 0.0191033 0)
(0.614916 0.0213486 0)
(0.616667 0.0247396 0)
(0.616317 0.0273587 0)
(0.615733 0.0301132 0)
(0.617171 0.0336046 0)
(0.623192 0.0386797 0)
(0.633779 0.0452601 0)
(0.648011 0.0513824 0)
(0.662805 0.0558608 0)
(0.675503 0.0578087 0)
(0.687397 0.0579453 0)
(0.697941 0.05812 0)
(0.707651 0.0595967 0)
(0.717712 0.063302 0)
(0.729035 0.0689631 0)
(0.742656 0.0765875 0)
(0.759604 0.0850415 0)
(0.780068 0.0941264 0)
(0.804019 0.101824 0)
(0.830379 0.109455 0)
(0.858747 0.113933 0)
(-1.77443 0.0108378 0)
(0.0259039 0.0129978 0)
(0.616907 0.0148217 0)
(0.617285 0.0163185 0)
(0.617647 0.0181865 0)
(0.616822 0.0195394 0)
(0.617886 0.0224845 0)
(0.620931 0.0280959 0)
(0.628163 0.0351829 0)
(0.638326 0.042419 0)
(0.650328 0.0485978 0)
(0.661465 0.0530101 0)
(0.672321 0.0543737 0)
(0.683116 0.053491 0)
(0.694771 0.0517079 0)
(0.707391 0.050531 0)
(0.720434 0.0515665 0)
(0.73389 0.0549331 0)
(0.748311 0.0607804 0)
(0.764975 0.0683138 0)
(0.78423 0.0771295 0)
(0.805561 0.086137 0)
(0.828524 0.0940777 0)
(0.853535 0.0999571 0)
(-1.77448 0.00907766 0)
(0.029443 0.0120835 0)
(0.619637 0.0100166 0)
(0.619003 0.0111791 0)
(0.617647 0.0122038 0)
(0.617478 0.0134999 0)
(0.620137 0.0162513 0)
(0.625439 0.0220255 0)
(0.633596 0.0296936 0)
(0.643454 0.0368731 0)
(0.652723 0.0425471 0)
(0.6613 0.0464534 0)
(0.669272 0.0485566 0)
(0.678319 0.0484534 0)
(0.689776 0.0463851 0)
(0.703904 0.0433817 0)
(0.719619 0.0415899 0)
(0.73586 0.042153 0)
(0.752469 0.0455329 0)
(0.770056 0.0518179 0)
(0.78866 0.0601429 0)
(0.808314 0.0684517 0)
(0.82841 0.0761071 0)
(0.850188 0.0815522 0)
(-1.77484 0.00672595 0)
(0.0341389 0.00653897 0)
(0.619005 0.00739213 0)
(0.617327 0.00779215 0)
(0.616803 0.0077853 0)
(0.617977 0.00860102 0)
(0.622321 0.0116203 0)
(0.629254 0.0170129 0)
(0.63793 0.0230258 0)
(0.646574 0.028299 0)
(0.654361 0.0326902 0)
(0.660735 0.036032 0)
(0.667264 0.0383711 0)
(0.675058 0.0392202 0)
(0.685304 0.0380972 0)
(0.699382 0.035054 0)
(0.716872 0.0318707 0)
(0.736457 0.0304031 0)
(0.756226 0.0323493 0)
(0.775291 0.0367472 0)
(0.793107 0.0432776 0)
(0.810229 0.0499222 0)
(0.827734 0.0557544 0)
(0.846913 0.0600174 0)
(-1.77485 0.00421263 0)
(0.0408793 0.0026296 0)
(0.614724 0.00581762 0)
(0.613048 0.00521601 0)
(0.615606 0.0038196 0)
(0.618506 0.00439199 0)
(0.624189 0.00689144 0)
(0.632305 0.0106903 0)
(0.641137 0.014681 0)
(0.649102 0.017775 0)
(0.65636 0.0205059 0)
(0.662077 0.0231043 0)
(0.667706 0.0253653 0)
(0.674132 0.0267234 0)
(0.682368 0.0263655 0)
(0.694817 0.0240566 0)
(0.71217 0.0208021 0)
(0.733318 0.0182074 0)
(0.756529 0.0182645 0)
(0.778446 0.021279 0)
(0.797148 0.0260375 0)
(0.812867 0.0305344 0)
(0.82822 0.0340469 0)
(0.845271 0.0366146 0)
(-1.77506 0.00133858 0)
(0.0464375 0.00267482 0)
(0.611882 -0.00309961 0)
(0.609314 8.80675e-05 0)
(0.614417 -6.07216e-05 0)
(0.619747 0.00128899 0)
(0.62735 0.00261974 0)
(0.635524 0.0039186 0)
(0.643563 0.00528857 0)
(0.650297 0.00629904 0)
(0.6569 0.00707929 0)
(0.661875 0.00783766 0)
(0.666754 0.008531 0)
(0.672508 0.00886317 0)
(0.6803 0.00846624 0)
(0.692774 0.00740774 0)
(0.711093 0.00632966 0)
(0.73436 0.0058286 0)
(0.759081 0.00637218 0)
(0.781789 0.00763895 0)
(0.800241 0.00923272 0)
(0.815178 0.0107062 0)
(0.829604 0.0119384 0)
(0.845913 0.0129146 0)
(0.43589 0.385299 0)
(0.137517 0.193358 0)
(0.0680063 0.0533141 0)
(0.0314389 0.0172275 0)
(0.0140754 0.00861736 0)
(0.00199932 0.00348922 0)
(-0.00138274 4.16467e-06 0)
(-4.88102e-05 -0.000912836 0)
(0.45304 0.318198 0)
(0.285909 0.189082 0)
(0.201119 0.078074 0)
(0.107272 0.0446605 0)
(0.0496477 0.0288404 0)
(0.0198736 0.00878322 0)
(0.00598308 0.000515017 0)
(0.00179614 -0.00250448 0)
(0.487958 0.41289 0)
(0.376178 0.347936 0)
(0.281914 0.235748 0)
(0.172871 0.159433 0)
(0.098824 0.0974895 0)
(0.053061 0.0445204 0)
(0.0246181 0.0139455 0)
(0.00817229 -0.000910965 0)
(0.544071 0.44782 0)
(0.495101 0.399134 0)
(0.424485 0.306534 0)
(0.317221 0.221399 0)
(0.218478 0.145484 0)
(0.135742 0.0859504 0)
(0.0645061 0.0558412 0)
(0.0203544 0.0267079 0)
(0.581122 0.458042 0)
(0.562238 0.448188 0)
(0.5194 0.401606 0)
(0.429486 0.344888 0)
(0.321155 0.273236 0)
(0.211689 0.196155 0)
(0.104965 0.140005 0)
(0.0398879 0.0808589 0)
(0.608639 0.457508 0)
(0.604487 0.464486 0)
(0.583805 0.453644 0)
(0.529515 0.428041 0)
(0.446147 0.375101 0)
(0.330325 0.309406 0)
(0.195685 0.250998 0)
(0.0756682 0.178822 0)
(0.63042 0.454599 0)
(0.63444 0.474562 0)
(0.626124 0.482943 0)
(0.601048 0.483252 0)
(0.549383 0.466172 0)
(0.454205 0.436094 0)
(0.333972 0.374264 0)
(0.156254 0.355817 0)
(0.643196 0.446307 0)
(0.657593 0.468958 0)
(0.658825 0.494417 0)
(0.648109 0.523456 0)
(0.620941 0.538571 0)
(0.559835 0.548604 0)
(0.415037 0.55893 0)
(0.211928 0.692902 0)
(0.65982 0.438311 0)
(0.677308 0.465775 0)
(0.687255 0.497768 0)
(0.691508 0.532228 0)
(0.68855 0.572906 0)
(0.669686 0.62796 0)
(0.643015 0.738122 0)
(0.718434 0.959692 0)
(0.681315 0.430364 0)
(0.699644 0.45853 0)
(0.716495 0.49295 0)
(0.731198 0.538612 0)
(0.751259 0.597852 0)
(0.778756 0.681861 0)
(0.850737 0.784183 0)
(1.08114 0.900487 0)
(0.704439 0.422018 0)
(0.725321 0.449959 0)
(0.749143 0.483187 0)
(0.771608 0.528391 0)
(0.808674 0.587684 0)
(0.865732 0.669577 0)
(0.992648 0.756267 0)
(1.25197 0.815847 0)
(0.727674 0.411689 0)
(0.751476 0.439798 0)
(0.78183 0.470499 0)
(0.813523 0.511514 0)
(0.860055 0.562297 0)
(0.931368 0.62973 0)
(1.07235 0.698786 0)
(1.29882 0.722199 0)
(0.751095 0.398263 0)
(0.77682 0.426611 0)
(0.811515 0.455336 0)
(0.851714 0.490458 0)
(0.905018 0.531054 0)
(0.979941 0.580466 0)
(1.10862 0.628863 0)
(1.29477 0.63765 0)
(0.774612 0.38094 0)
(0.801481 0.409135 0)
(0.837894 0.436991 0)
(0.883304 0.467287 0)
(0.940999 0.498678 0)
(1.0151 0.531112 0)
(1.12587 0.564943 0)
(1.27541 0.564857 0)
(0.797228 0.360932 0)
(0.825548 0.38737 0)
(0.861775 0.414215 0)
(0.90854 0.440574 0)
(0.9675 0.465797 0)
(1.03898 0.486709 0)
(1.13425 0.508001 0)
(1.25362 0.503887 0)
(0.81656 0.340544 0)
(0.847425 0.363187 0)
(0.883515 0.387619 0)
(0.929374 0.410415 0)
(0.986842 0.431812 0)
(1.05464 0.445892 0)
(1.13687 0.458291 0)
(1.23515 0.453062 0)
(0.830977 0.322081 0)
(0.864774 0.339498 0)
(0.901822 0.359237 0)
(0.946157 0.377611 0)
(1.00072 0.395446 0)
(1.06458 0.405257 0)
(1.13734 0.412649 0)
(1.22047 0.407543 0)
(0.840784 0.305652 0)
(0.876585 0.318176 0)
(0.915362 0.332731 0)
(0.959118 0.345637 0)
(1.01036 0.359652 0)
(1.06974 0.365446 0)
(1.13564 0.368713 0)
(1.20785 0.363291 0)
(0.847642 0.289421 0)
(0.883149 0.298934 0)
(0.922976 0.308956 0)
(0.966932 0.316939 0)
(1.01612 0.326096 0)
(1.07196 0.3293 0)
(1.13293 0.32848 0)
(1.19814 0.321418 0)
(0.854918 0.270843 0)
(0.887689 0.27998 0)
(0.925885 0.287715 0)
(0.968826 0.292246 0)
(1.01629 0.297371 0)
(1.06933 0.297397 0)
(1.12645 0.293884 0)
(1.18712 0.284865 0)
(0.863884 0.247545 0)
(0.893497 0.258925 0)
(0.928256 0.266928 0)
(0.967965 0.270498 0)
(1.0128 0.273114 0)
(1.06282 0.270934 0)
(1.11704 0.26542 0)
(1.17383 0.255043 0)
(0.874798 0.219773 0)
(0.901001 0.233413 0)
(0.932287 0.243872 0)
(0.968326 0.248487 0)
(1.00905 0.25092 0)
(1.05512 0.248386 0)
(1.10601 0.241792 0)
(1.1602 0.2312 0)
(0.885878 0.191342 0)
(0.909765 0.204763 0)
(0.937046 0.216644 0)
(0.969692 0.223592 0)
(1.00663 0.227536 0)
(1.04829 0.22656 0)
(1.09471 0.221488 0)
(1.14579 0.211421 0)
(0.893549 0.165554 0)
(0.918272 0.176751 0)
(0.943697 0.18799 0)
(0.972864 0.195979 0)
(1.00606 0.201593 0)
(1.04401 0.202765 0)
(1.08634 0.200231 0)
(1.13317 0.193319 0)
(0.895325 0.145388 0)
(0.921922 0.152614 0)
(0.948285 0.160708 0)
(0.976359 0.168053 0)
(1.0073 0.174003 0)
(1.04222 0.176967 0)
(1.08118 0.177107 0)
(1.12448 0.173469 0)
(0.893972 0.129438 0)
(0.922483 0.13373 0)
(0.950234 0.138247 0)
(0.979125 0.143003 0)
(1.0099 0.147412 0)
(1.04349 0.15024 0)
(1.08012 0.151495 0)
(1.12007 0.150652 0)
(0.888485 0.116789 0)
(0.91885 0.118132 0)
(0.948766 0.119924 0)
(0.979297 0.12159 0)
(1.01094 0.123688 0)
(1.0448 0.125555 0)
(1.0813 0.126737 0)
(1.12038 0.126532 0)
(0.881222 0.10373 0)
(0.91191 0.104105 0)
(0.944335 0.10336 0)
(0.9777 0.102497 0)
(1.01182 0.102382 0)
(1.04708 0.102913 0)
(1.08364 0.103573 0)
(1.12172 0.103566 0)
(0.874908 0.0854328 0)
(0.904025 0.0864246 0)
(0.937219 0.0853687 0)
(0.973085 0.0835188 0)
(1.01009 0.0819649 0)
(1.04763 0.0812792 0)
(1.08547 0.0812008 0)
(1.12352 0.0809304 0)
(0.869282 0.0628935 0)
(0.896778 0.0638645 0)
(0.929876 0.0637987 0)
(0.967414 0.0623849 0)
(1.00707 0.0608551 0)
(1.04703 0.0598065 0)
(1.08631 0.0591915 0)
(1.12454 0.0585879 0)
(0.865448 0.0387628 0)
(0.890681 0.0399137 0)
(0.922168 0.0400104 0)
(0.959346 0.0390291 0)
(1.0001 0.0375557 0)
(1.04209 0.0363124 0)
(1.08335 0.0355926 0)
(1.12256 0.0351663 0)
(0.865648 0.0136382 0)
(0.890629 0.0139747 0)
(0.922269 0.0139552 0)
(0.96021 0.0138249 0)
(1.00218 0.0137704 0)
(1.04533 0.0138085 0)
(1.08725 0.0137931 0)
(1.12642 0.013632 0)
(1.65969 1.01578 0)
(2.2615 1.04461 0)
(2.53976 0.8014 0)
(2.55451 0.369296 0)
(2.49645 0.0321573 0)
(2.34773 -0.164882 0)
(2.1088 -0.224406 0)
(2.04362 -0.228178 0)
(2.06077 -0.168842 0)
(1.93176 -0.0952946 0)
(1.73775 -0.0741206 0)
(1.64555 -0.0339932 0)
(1.49503 -0.0133895 0)
(1.4256 -0.00639747 0)
(1.44006 -0.00726453 0)
(1.40925 -0.00603426 0)
(1.36671 -0.00374293 0)
(1.34041 -0.0041992 0)
(1.34599 -0.00637959 0)
(1.38039 -0.0100569 0)
(1.41477 -0.012807 0)
(1.43012 -0.0136574 0)
(1.43877 -0.0135793 0)
(1.45069 -0.0116443 0)
(1.47347 -0.00977994 0)
(1.50841 -0.00655488 0)
(1.54818 -0.00337013 0)
(1.57274 -0.00164647 0)
(1.59343 0.000112864 0)
(1.61332 0.0018014 0)
(1.63624 0.00242878 0)
(1.66399 0.00326112 0)
(1.70009 0.00381375 0)
(1.73186 0.00337714 0)
(1.75674 0.00323383 0)
(1.78062 0.0028493 0)
(1.80349 0.00074565 0)
(1.82602 -0.00235275 0)
(1.84715 -0.00291252 0)
(1.86744 -0.00158065 0)
(1.8863 0.00097688 0)
(1.90106 0.00471778 0)
(1.91125 0.00821215 0)
(1.92479 0.00945981 0)
(1.94452 0.00943458 0)
(1.96621 0.00919945 0)
(1.99019 0.00909301 0)
(2.01752 0.00983785 0)
(2.04618 0.00907869 0)
(2.07734 0.0118463 0)
(2.0833 0.00776879 0)
(2.067 -0.00117728 0)
(1.99722 -0.0180934 0)
(1.87234 -0.0350771 0)
(1.73611 -0.0338178 0)
(1.67532 -0.0236769 0)
(1.68331 -0.0193367 0)
(1.69672 -0.011242 0)
(1.70298 -0.00221144 0)
(1.70924 0.00193298 0)
(1.71615 0.00294873 0)
(1.7272 0.00317547 0)
(1.74381 0.00157425 0)
(1.75587 -0.00100227 0)
(1.76355 -0.00130898 0)
(1.77133 -0.00116089 0)
(1.77511 -0.000283314 0)
(1.77381 0.00189855 0)
(1.7765 0.00373204 0)
(1.78462 0.00410447 0)
(1.7941 0.00408371 0)
(1.80406 0.00408598 0)
(1.8139 0.00410265 0)
(1.82262 0.00413297 0)
(1.83123 0.00404445 0)
(1.84174 0.00383967 0)
(1.85315 0.003317 0)
(1.8661 0.00218647 0)
(1.87852 0.00123174 0)
(1.89062 0.000792921 0)
(1.90152 0.000782751 0)
(1.90804 0.00132711 0)
(1.9113 0.0030495 0)
(1.91752 0.004209 0)
(1.92784 0.00495348 0)
(1.93969 0.0044444 0)
(1.952 0.00443898 0)
(1.96921 0.00410747 0)
(1.78086 0.809562 0)
(2.19144 0.494671 0)
(2.40906 0.121102 0)
(2.51584 -0.229667 0)
(2.47112 -0.456667 0)