/*--------------------------------*- C++ -*----------------------------------*\
  =========                 |
  \\      /  F ield         | OpenFOAM: The Open Source CFD Toolbox
   \\    /   O peration     | Website:  https://openfoam.org
    \\  /    A nd           | Version:  7
     \\/     M anipulation  |
\*---------------------------------------------------------------------------*/
FoamFile
{
    version     2.0;
    format      ascii;
    class       volScalarField;
    location    "1.4";
    object      rho;
}
// * * * * * * * * * * * * * * * * * * * * * * * * * * * * * * * * * * * * * //

dimensions      [1 -3 0 0 0 0 0];

internalField   nonuniform List<scalar> 
16512
(
2.61665
2.60243
2.56942
2.50851
2.44107
2.4141
2.4082
2.40447
2.40538
2.41288
2.41408
2.40835
2.40146
2.39246
2.37507
2.33537
2.26672
2.22092
2.2103
2.2057
2.2042
2.20906
2.21277
2.20958
2.20407
2.19696
2.18578
2.15929
2.11019
2.07072
2.06242
2.05729
2.05459
2.0522
2.0468
2.04114
2.0347
2.02481
2.00244
1.96434
1.94398
1.93988
1.93841
1.9397
1.93476
1.92839
1.92148
1.91289
1.89922
1.87184
1.83132
1.80584
1.80108
1.79787
1.79574
1.79588
1.79934
1.8004
1.79685
1.79188
1.78361
1.76417
1.72879
1.69194
1.67636
1.67215
1.66938
1.66805
1.67004
1.67639
1.67901
1.67608
1.6719
1.66587
1.65196
1.62618
1.5901
1.56263
1.54976
1.54518
1.54383
1.54551
1.55275
1.56052
1.56124
1.55807
1.55358
1.54372
1.5252
1.49826
1.47032
1.45522
1.45167
1.45083
1.45405
1.46429
1.47002
1.46756
1.46374
1.45897
1.44871
1.42826
1.39569
1.37041
1.36283
1.36232
1.36592
1.38153
1.40049
1.40366
1.40007
1.39423
1.38198
1.3554
1.31419
1.2912
1.28777
1.28749
1.29303
1.31229
1.33564
1.34073
1.3378
1.33294
1.32314
1.30162
1.26323
1.23511
1.22904
1.22844
1.23116
1.24577
1.26814
1.2763
1.27466
1.271
1.26218
1.24035
1.20423
1.18383
1.18133
1.18049
1.18277
1.19584
1.21164
1.21361
1.21118
1.20709
1.19753
1.17578
1.14614
1.13357
1.13246
1.13301
1.14142
1.16013
1.17068
1.16991
1.16715
1.16098
1.14501
1.11573
1.0953
1.09212
1.09163
1.09438
1.10726
1.1228
1.1251
1.12296
1.11861
1.10749
1.0843
1.06118
1.05533
1.05473
1.05572
1.06474
1.08121
1.08742
1.08602
1.08252
1.07386
1.05437
1.03157
1.02424
1.02336
1.02293
1.0259
1.03517
1.04141
1.04157
1.04075
1.03871
1.03094
1.0152
1.00489
1.0035
1.00286
1.00405
1.00933
1.01101
1.00955
1.00762
1.00457
0.997101
0.984522
0.978264
0.977432
0.976919
0.977448
0.980594
0.981296
0.979877
0.977497
0.97423
0.966571
0.957675
0.974528
1.03859
1.19031
1.38604
1.57224
1.64067
1.68561
1.69799
1.69704
1.68977
1.66668
1.64573
1.63876
1.63643
1.63913
1.64695
1.65285
1.6524
1.6478
1.63363
1.62225
1.61893
1.61657
1.61683
1.62086
1.61947
1.61518
1.61004
1.60224
1.59077
1.5847
1.58282
1.58165
1.58275
1.58851
1.58973
1.58632
1.57989
1.56759
1.55287
2.64401
2.61151
2.55215
2.48074
2.4486
2.44125
2.43696
2.43666
2.44348
2.44596
2.4404
2.43373
2.42535
2.4109
2.37688
2.31147
2.25439
2.23795
2.23328
2.2309
2.23582
2.24378
2.24229
2.23695
2.2305
2.22128
2.20023
2.15519
2.10405
2.08762
2.08302
2.07914
2.07737
2.07523
2.06976
2.06314
2.05496
2.03974
2.00558
1.97294
1.96588
1.96162
1.96038
1.96017
1.95467
1.94746
1.93904
1.92738
1.90526
1.86744
1.83461
1.82709
1.82379
1.82125
1.82055
1.82243
1.82314
1.81984
1.81524
1.80808
1.79129
1.7584
1.71857
1.69986
1.69558
1.69285
1.69159
1.69426
1.70153
1.70393
1.70045
1.69609
1.69015
1.67659
1.65017
1.61061
1.58136
1.56918
1.56574
1.56464
1.56748
1.57634
1.58426
1.58422
1.58091
1.57615
1.56527
1.54514
1.51587
1.48854
1.47492
1.47186
1.47122
1.47521
1.48556
1.49069
1.48803
1.48398
1.47847
1.4666
1.44489
1.4128
1.38854
1.38047
1.37987
1.38308
1.39737
1.41572
1.4196
1.41625
1.41083
1.39971
1.37597
1.33625
1.31035
1.30523
1.30484
1.30896
1.32583
1.34936
1.35653
1.35399
1.34956
1.34095
1.32195
1.28554
1.25329
1.24459
1.24382
1.24546
1.25749
1.27923
1.28969
1.28853
1.28532
1.2783
1.26044
1.2258
1.19944
1.1944
1.19354
1.19473
1.20551
1.22312
1.22792
1.22575
1.22188
1.21365
1.19457
1.16401
1.14656
1.14449
1.14439
1.15028
1.16755
1.18204
1.18273
1.1804
1.17558
1.16264
1.13569
1.11013
1.10389
1.10334
1.10468
1.11489
1.13217
1.13779
1.13609
1.13226
1.12312
1.10251
1.07569
1.06537
1.06452
1.06478
1.07142
1.0882
1.09952
1.09915
1.09638
1.08966
1.07303
1.04729
1.03403
1.03256
1.03184
1.03314
1.04139
1.05068
1.05224
1.05152
1.05013
1.04501
1.03075
1.01572
1.01244
1.01169
1.012
1.0169
1.02154
1.02076
1.01885
1.01628
1.01076
0.998742
0.988355
0.986556
0.985931
0.985793
0.988318
0.991008
0.990233
0.988037
0.986
0.978933
0.984632
1.01707
1.14074
1.32375
1.49781
1.61379
1.69872
1.72715
1.72836
1.72032
1.70247
1.68092
1.65929
1.6512
1.65017
1.65585
1.66687
1.67156
1.67135
1.6674
1.6533
1.63608
1.62967
1.6271
1.62673
1.63319
1.63686
1.63345
1.62859
1.62076
1.60728
1.59861
1.59629
1.59486
1.59486
1.6
1.60441
1.60232
1.59737
1.58755
1.57154
1.5614
2.65291
2.59349
2.51966
2.48378
2.47487
2.47012
2.46906
2.47565
2.47913
2.47363
2.46685
2.45885
2.44615
2.41638
2.35617
2.29032
2.26653
2.2613
2.25821
2.26192
2.27382
2.27573
2.27063
2.26444
2.25619
2.2394
2.2002
2.14261
2.1139
2.10875
2.10555
2.10341
2.10119
2.09838
2.09275
2.08498
2.07344
2.0464
2.00699
1.99133
1.98675
1.98189
1.97992
1.97869
1.97328
1.96523
1.95493
1.93822
1.9056
1.86767
1.85415
1.85087
1.84785
1.84603
1.84547
1.84509
1.84212
1.83767
1.83151
1.81789
1.78866
1.74779
1.72489
1.72013
1.71738
1.71615
1.71852
1.72487
1.72699
1.72359
1.71912
1.71324
1.70052
1.6748
1.63376
1.60259
1.59087
1.58794
1.58706
1.59045
1.59979
1.60718
1.60661
1.60319
1.59817
1.5867
1.56507
1.5335
1.50684
1.49486
1.49227
1.49206
1.49723
1.50805
1.51259
1.50984
1.50566
1.49922
1.48526
1.46157
1.42912
1.40669
1.3989
1.39813
1.40099
1.4141
1.43131
1.43531
1.43211
1.42691
1.41672
1.39536
1.35777
1.32972
1.32282
1.32235
1.32532
1.33997
1.36306
1.37215
1.37002
1.3658
1.35813
1.34135
1.30779
1.2728
1.26102
1.25997
1.26081
1.27062
1.29114
1.30306
1.30237
1.29945
1.29386
1.27944
1.24827
1.2168
1.20782
1.20689
1.20735
1.21598
1.23415
1.24211
1.24037
1.23664
1.22945
1.21275
1.18286
1.16075
1.15672
1.15634
1.16007
1.17491
1.19216
1.1953
1.19338
1.18956
1.17941
1.15596
1.12671
1.11607
1.11527
1.11572
1.12326
1.14067
1.15025
1.14928
1.14592
1.13824
1.12026
1.09179
1.07627
1.07457
1.07432
1.0788
1.09418
1.11028
1.11226
1.11007
1.10501
1.09142
1.0656
1.04557
1.042
1.04112
1.04125
1.04735
1.05876
1.06289
1.06235
1.06123
1.058
1.04641
1.02879
1.02136
1.02047
1.02022
1.02368
1.03077
1.03171
1.03003
1.02776
1.02366
1.01356
1.00015
0.995592
0.994876
0.994368
0.995571
0.999762
1.0004
0.998986
0.99737
0.999945
1.02109
1.10169
1.26566
1.45115
1.57894
1.67179
1.73719
1.75147
1.74974
1.73739
1.71964
1.69431
1.6714
1.66405
1.66403
1.66876
1.68085
1.68794
1.68721
1.68403
1.67407
1.65536
1.64437
1.64073
1.63873
1.64177
1.65005
1.64952
1.64518
1.63849
1.6275
1.61518
1.61049
1.60879
1.60805
1.6112
1.61827
1.618
1.61381
1.60567
1.59136
1.57737
1.57286
2.63345
2.5574
2.51927
2.50863
2.50355
2.50186
2.50852
2.51394
2.50864
2.50182
2.49412
2.48251
2.45545
2.40025
2.32863
2.29695
2.29034
2.28659
2.28837
2.30199
2.30913
2.30473
2.29872
2.29103
2.27727
2.24347
2.18524
2.14398
2.13571
2.13199
2.13168
2.12897
2.12514
2.12171
2.11543
2.10559
2.08562
2.04592
2.01531
2.01035
2.00646
2.00137
1.99835
1.9961
1.99054
1.98177
1.96879
1.9434
1.90492
1.88249
1.87849
1.875
1.87265
1.86995
1.86687
1.864
1.85984
1.85401
1.84328
1.81866
1.77882
1.75137
1.74557
1.7428
1.74154
1.74334
1.74749
1.74825
1.74526
1.74123
1.73562
1.72402
1.69994
1.65926
1.62614
1.61424
1.61168
1.611
1.61495
1.62355
1.62896
1.62777
1.62442
1.61941
1.60764
1.58501
1.5514
1.52568
1.51513
1.51297
1.51343
1.52018
1.53159
1.53543
1.53256
1.52823
1.52065
1.50462
1.47834
1.44525
1.42499
1.41816
1.41721
1.41994
1.43236
1.448
1.45139
1.44822
1.44326
1.43357
1.41373
1.37831
1.34891
1.34034
1.33971
1.342
1.35487
1.377
1.38748
1.38577
1.38185
1.37501
1.3599
1.32933
1.29299
1.27814
1.27666
1.27697
1.28486
1.30374
1.31659
1.31638
1.31361
1.30902
1.29743
1.27071
1.23593
1.22205
1.22069
1.22065
1.22744
1.24521
1.25623
1.2551
1.25152
1.24514
1.23038
1.2022
1.17601
1.16918
1.16869
1.17076
1.18275
1.20116
1.20741
1.206
1.20291
1.1952
1.17586
1.14527
1.1292
1.12761
1.1274
1.13255
1.14871
1.16217
1.16243
1.1596
1.15319
1.13778
1.10935
1.08829
1.08466
1.08424
1.08691
1.1
1.11918
1.12514
1.12361
1.11968
1.10909
1.08564
1.05968
1.05185
1.05087
1.05034
1.0539
1.06563
1.07328
1.07328
1.07227
1.07005
1.06138
1.04356
1.03093
1.02931
1.02874
1.03061
1.03826
1.04237
1.04117
1.03899
1.03578
1.0282
1.01422
1.00492
1.00366
1.00301
1.00309
1.00697
1.01022
1.01048
1.01082
1.02551
1.0901
1.22257
1.38583
1.57836
1.66451
1.69417
1.72457
1.75082
1.76264
1.76109
1.7521
1.72641
1.69495
1.68101
1.67872
1.67991
1.68967
1.70305
1.70589
1.70343
1.69471
1.67579
1.661
1.65696
1.65476
1.65564
1.66335
1.66492
1.66111
1.65588
1.64631
1.63213
1.62637
1.62459
1.62343
1.62479
1.63193
1.63447
1.63123
1.62445
1.61124
1.59396
1.58702
1.58447
2.59436
2.5547
2.54262
2.53743
2.53515
2.54175
2.55016
2.54566
2.5387
2.53136
2.52056
2.49492
2.44329
2.36868
2.32988
2.32107
2.31667
2.31664
2.32922
2.34169
2.33896
2.33318
2.32595
2.31398
2.28471
2.22931
2.17787
2.16354
2.15933
2.1592
2.16003
2.15407
2.14965
2.14518
2.1374
2.12254
2.08841
2.04543
2.03125
2.02798
2.02595
2.02074
2.01674
2.01326
2.00706
1.99716
1.97948
1.94594
1.91345
1.90639
1.90199
1.89858
1.89599
1.89068
1.88581
1.88178
1.87656
1.86779
1.84745
1.81119
1.77924
1.77136
1.76896
1.76764
1.76832
1.77007
1.76921
1.76596
1.76222
1.75724
1.74746
1.72561
1.6868
1.65171
1.63879
1.63656
1.63606
1.64024
1.64753
1.65014
1.64791
1.64452
1.63966
1.62816
1.60504
1.57004
1.54485
1.53562
1.53399
1.53546
1.54416
1.55584
1.55879
1.55571
1.55115
1.54249
1.52465
1.4954
1.46175
1.44367
1.4379
1.43695
1.43997
1.45234
1.46633
1.46859
1.46531
1.46034
1.45068
1.43156
1.39781
1.368
1.35798
1.35714
1.35886
1.3703
1.39136
1.40273
1.4014
1.39763
1.39131
1.37744
1.34947
1.31293
1.29559
1.29353
1.29345
1.29991
1.31721
1.33038
1.33057
1.32791
1.32399
1.31465
1.29239
1.25683
1.23754
1.23514
1.23464
1.23984
1.25671
1.27036
1.27009
1.26669
1.26089
1.24781
1.22179
1.19246
1.18216
1.18138
1.18228
1.19133
1.20945
1.21895
1.2182
1.21568
1.20989
1.1945
1.16533
1.14382
1.14019
1.13969
1.14281
1.1568
1.17326
1.17567
1.17326
1.16798
1.15481
1.1281
1.1019
1.095
1.09449
1.09586
1.10617
1.12637
1.13742
1.13679
1.13383
1.12586
1.10599
1.07646
1.0627
1.06115
1.06026
1.06168
1.07179
1.08297
1.08438
1.08339
1.08168
1.07552
1.05924
1.0421
1.03816
1.0375
1.03814
1.04464
1.05225
1.05224
1.0503
1.04753
1.04201
1.02922
1.01565
1.01223
1.01153
1.01105
1.01309
1.01905
1.02222
1.03181
1.0708
1.17981
1.36515
1.55717
1.63204
1.67915
1.7277
1.75858
1.77937
1.78275
1.77689
1.76648
1.74837
1.71746
1.69759
1.69479
1.69505
1.70428
1.71856
1.72388
1.72294
1.71542
1.69578
1.67467
1.66742
1.66507
1.66547
1.67427
1.68104
1.67843
1.67356
1.66526
1.65051
1.63961
1.63678
1.63525
1.63559
1.64255
1.6493
1.6476
1.64248
1.63164
1.61329
1.60101
1.59773
1.59557
2.58988
2.57687
2.57184
2.56936
2.57612
2.5876
2.58469
2.57752
2.5703
2.55978
2.53438
2.48487
2.40954
2.36489
2.35313
2.34843
2.34729
2.35755
2.37342
2.37329
2.36764
2.361
2.35039
2.325
2.27375
2.21422
2.19179
2.18747
2.18584
2.19085
2.18666
2.17955
2.17463
2.16833
2.15731
2.13042
2.08352
2.05356
2.04859
2.04622
2.04528
2.04041
2.03556
2.03064
2.02356
2.01136
1.98657
1.95062
1.93487
1.92924
1.92424
1.9207
1.91629
1.91007
1.90422
1.89874
1.89149
1.87555
1.84377
1.80882
1.79706
1.79508
1.7939
1.79347
1.79254
1.79057
1.78718
1.78307
1.7782
1.77026
1.7515
1.71611
1.67913
1.66446
1.66222
1.66174
1.66558
1.67101
1.67116
1.66788
1.6641
1.65915
1.64805
1.62529
1.59002
1.56473
1.55619
1.555
1.55791
1.56892
1.58059
1.58217
1.57877
1.57392
1.56437
1.54503
1.51306
1.47896
1.46247
1.45791
1.457
1.46083
1.47382
1.48629
1.48738
1.48391
1.47872
1.46853
1.44922
1.41653
1.38679
1.37585
1.37473
1.37608
1.38654
1.40653
1.41815
1.41709
1.41347
1.40744
1.3942
1.36807
1.33226
1.3131
1.31027
1.31002
1.31537
1.33128
1.3445
1.34502
1.34241
1.33893
1.33137
1.31291
1.27884
1.25461
1.25017
1.24948
1.25314
1.26874
1.2847
1.28559
1.28228
1.27693
1.26536
1.24162
1.21018
1.19587
1.1945
1.19456
1.20083
1.21743
1.22977
1.23007
1.22795
1.22361
1.21163
1.18577
1.15991
1.15309
1.15249
1.15411
1.16546
1.18351
1.18885
1.18696
1.18251
1.17153
1.14744
1.1172
1.10589
1.10503
1.1055
1.11303
1.13237
1.14845
1.1497
1.14749
1.14161
1.12564
1.09608
1.07543
1.07202
1.07095
1.07098
1.07824
1.09172
1.09567
1.09475
1.09317
1.08872
1.07493
1.05511
1.04714
1.04637
1.04637
1.05095
1.06065
1.06335
1.06175
1.05919
1.05485
1.04438
1.02873
1.02095
1.01982
1.01918
1.01983
1.026
1.03658
1.06316
1.15725
1.30414
1.51357
1.63516
1.70104
1.73618
1.76297
1.78098
1.79107
1.79238
1.7888
1.77873
1.76195
1.73768
1.71542
1.70786
1.70657
1.71266
1.72961
1.73826
1.73751
1.73312
1.71831
1.69452
1.68289
1.68011
1.67942
1.68624
1.69622
1.69484
1.68993
1.68254
1.66972
1.65602
1.65175
1.64997
1.64939
1.65433
1.66351
1.66368
1.6594
1.6504
1.63377
1.61729
1.61206
1.60959
1.60801
2.61097
2.6065
2.60442
2.61219
2.62666
2.62542
2.61773
2.61049
2.59938
2.57323
2.52478
2.44966
2.40098
2.38624
2.38149
2.37974
2.38804
2.40448
2.40763
2.40222
2.39605
2.38667
2.36464
2.31768
2.25258
2.22149
2.21566
2.213
2.21819
2.22028
2.2124
2.20576
2.19912
2.19016
2.17022
2.12756
2.0823
2.07037
2.06708
2.06589
2.06456
2.06016
2.05457
2.04841
2.04008
2.024
1.99231
1.96588
1.95724
1.95072
1.94572
1.94102
1.9353
1.92894
1.92224
1.91474
1.90282
1.87643
1.84019
1.82308
1.82117
1.81985
1.81799
1.81533
1.81221
1.80865
1.80462
1.79966
1.79244
1.777
1.74625
1.70853
1.6911
1.68863
1.68797
1.6907
1.69373
1.6922
1.68832
1.68402
1.67859
1.66757
1.64568
1.61119
1.58528
1.57699
1.57619
1.58045
1.59354
1.60499
1.60517
1.60128
1.59604
1.58584
1.56565
1.53166
1.497
1.48152
1.47782
1.47712
1.48217
1.49621
1.50763
1.50765
1.50405
1.49853
1.48732
1.46699
1.43439
1.40537
1.39414
1.39278
1.3939
1.40374
1.42286
1.43422
1.43324
1.42972
1.42364
1.41047
1.38519
1.35013
1.3304
1.32679
1.32643
1.33088
1.34569
1.35895
1.3597
1.35713
1.3539
1.34763
1.33214
1.30091
1.27272
1.26554
1.26481
1.26733
1.28116
1.29887
1.3016
1.29847
1.29347
1.28319
1.26169
1.22922
1.21069
1.2082
1.20768
1.21146
1.22568
1.23997
1.24175
1.23988
1.23651
1.2274
1.20571
1.1774
1.16642
1.16556
1.16625
1.17504
1.19329
1.20187
1.20058
1.19685
1.18795
1.16692
1.13448
1.11772
1.11599
1.11586
1.12091
1.13787
1.15772
1.1622
1.16062
1.1564
1.14406
1.11697
1.0902
1.08336
1.08223
1.08154
1.0858
1.09959
1.10707
1.10649
1.10486
1.10139
1.09029
1.06988
1.0569
1.05542
1.05499
1.05776
1.06758
1.07413
1.0733
1.07099
1.06743
1.05937
1.04353
1.03056
1.0282
1.02714
1.02732
1.0342
1.05589
1.12007
1.2645
1.48709
1.61362
1.72721
1.75772
1.75717
1.77286
1.77699
1.7856
1.79911
1.80139
1.79727
1.78465
1.75979
1.73661
1.73117
1.73001
1.73249
1.74436
1.75484
1.75427
1.74989
1.73671
1.71422
1.69886
1.6952
1.69359
1.69768
1.70997
1.71225
1.70798
1.70128
1.68834
1.67182
1.66576
1.66405
1.66324
1.66675
1.67702
1.68015
1.67687
1.66965
1.65447
1.63494
1.62731
1.62473
1.62282
1.62294
2.64115
2.63994
2.64939
2.66704
2.66762
2.65898
2.65082
2.63842
2.6106
2.56226
2.48826
2.43793
2.42078
2.41563
2.41353
2.42076
2.43576
2.44117
2.43676
2.43102
2.42248
2.40323
2.36097
2.29311
2.25281
2.24461
2.24088
2.24373
2.252
2.24623
2.23841
2.23118
2.22239
2.20713
2.17178
2.11926
2.09384
2.08945
2.08762
2.08714
2.08448
2.08011
2.07415
2.06697
2.05675
2.03544
2.00201
1.98587
1.9781
1.97147
1.9663
1.96054
1.95399
1.94725
1.93958
1.92888
1.90743
1.87378
1.85041
1.84679
1.84614
1.8431
1.83787
1.8343
1.83056
1.82604
1.82112
1.81468
1.80232
1.77643
1.73956
1.71822
1.71536
1.71464
1.71609
1.71618
1.7132
1.70928
1.70465
1.69866
1.68761
1.6666
1.63346
1.60692
1.59837
1.5978
1.60282
1.6173
1.62808
1.6271
1.62278
1.61714
1.60665
1.58636
1.55135
1.51609
1.50086
1.49776
1.49733
1.50366
1.51903
1.52966
1.52901
1.52533
1.51935
1.50683
1.48489
1.45146
1.42374
1.41289
1.41142
1.41248
1.42212
1.4406
1.45135
1.4503
1.44671
1.44019
1.42652
1.40117
1.36699
1.34746
1.34315
1.34275
1.34649
1.36031
1.37365
1.37464
1.37205
1.36892
1.36358
1.35019
1.32215
1.29141
1.28114
1.28029
1.28203
1.29414
1.31274
1.31766
1.31493
1.3103
1.3013
1.28209
1.2498
1.22702
1.22262
1.22183
1.2235
1.23484
1.24993
1.25336
1.25171
1.24892
1.24204
1.22434
1.19582
1.1803
1.17876
1.17882
1.1855
1.20297
1.21472
1.21418
1.21103
1.20379
1.186
1.15362
1.13098
1.12724
1.12686
1.12981
1.14377
1.16528
1.17394
1.1731
1.17011
1.16098
1.13813
1.10736
1.09537
1.09396
1.09298
1.09498
1.10723
1.11829
1.11859
1.11696
1.11402
1.10518
1.08578
1.06826
1.06476
1.06421
1.06546
1.07373
1.08387
1.08475
1.08282
1.07973
1.07345
1.05945
1.04231
1.03663
1.03561
1.0362
1.04542
1.09818
1.21266
1.40675
1.6004
1.75202
1.78817
1.76512
1.76147
1.76838
1.79208
1.81433
1.8251
1.82329
1.81758
1.80681
1.78176
1.75197
1.74225
1.7406
1.74317
1.75748
1.77206
1.77374
1.77031
1.75826
1.73459
1.71358
1.70836
1.70645
1.70903
1.72142
1.72862
1.72576
1.71945
1.70767
1.6895
1.67687
1.67412
1.67281
1.67483
1.68609
1.69483
1.69317
1.68787
1.67561
1.65481
1.6409
1.63754
1.63545
1.63492
1.63915
2.67635
2.68752
2.70735
2.71005
2.70064
2.69068
2.67544
2.6459
2.59724
2.52438
2.47479
2.456
2.45035
2.44805
2.45497
2.46868
2.47391
2.47072
2.46567
2.45797
2.44098
2.40281
2.33529
2.28609
2.27382
2.26984
2.27021
2.28067
2.28013
2.27186
2.26416
2.25556
2.24258
2.21336
2.16165
2.12177
2.11357
2.11026
2.11082
2.10964
2.10568
2.10117
2.09524
2.08741
2.0741
2.04641
2.01607
2.00509
1.99807
1.99186
1.98621
1.97974
1.97257
1.96501
1.95559
1.9384
1.90719
1.87905
1.87298
1.87032
1.86901
1.86396
1.85699
1.85258
1.84827
1.84282
1.83619
1.82632
1.80581
1.77211
1.74589
1.74178
1.74077
1.74139
1.73951
1.73502
1.7305
1.72564
1.71948
1.70885
1.68881
1.65714
1.62997
1.62064
1.62
1.62488
1.63937
1.6494
1.64762
1.64308
1.6373
1.62694
1.60704
1.57219
1.53634
1.52074
1.51791
1.51784
1.52529
1.54173
1.55183
1.55075
1.54705
1.54063
1.52679
1.5028
1.46804
1.44196
1.43205
1.43054
1.4318
1.4418
1.45991
1.46975
1.46853
1.46479
1.45751
1.44272
1.41646
1.3828
1.36409
1.35954
1.35904
1.36228
1.37536
1.38875
1.38992
1.38734
1.38426
1.37937
1.36747
1.3422
1.3101
1.2967
1.29551
1.29672
1.30736
1.32625
1.33344
1.33124
1.32709
1.31942
1.30251
1.2718
1.24492
1.23784
1.23684
1.23713
1.24542
1.26037
1.26524
1.26372
1.26123
1.25595
1.24163
1.21472
1.19499
1.19186
1.1916
1.19651
1.21266
1.22716
1.22785
1.22509
1.21919
1.20434
1.17407
1.14594
1.13897
1.13847
1.1398
1.1504
1.17183
1.18475
1.18493
1.18286
1.17635
1.15814
1.1264
1.10833
1.10597
1.10486
1.10557
1.1154
1.12916
1.13118
1.12954
1.12684
1.11972
1.10249
1.0814
1.07438
1.07375
1.07411
1.08024
1.09222
1.09628
1.09475
1.09201
1.08703
1.0752
1.05649
1.04533
1.04497
1.04764
1.07311
1.15593
1.3518
1.55404
1.74368
1.80566
1.79705
1.80962
1.80816
1.80371
1.80788
1.82536
1.83822
1.83764
1.83195
1.82102
1.80213
1.77678
1.75749
1.75306
1.75249
1.76393
1.78431
1.79084
1.78886
1.7796
1.7566
1.73097
1.72285
1.72084
1.72212
1.734
1.7444
1.74226
1.73693
1.72777
1.71068
1.69466
1.69064
1.68884
1.68872
1.6959
1.70756
1.70837
1.70428
1.69529
1.67713
1.65883
1.65337
1.6509
1.64951
1.65178
1.65752
2.72752
2.7479
2.75142
2.74168
2.72949
2.7109
2.67989
2.62991
2.55874
2.51087
2.49158
2.48548
2.4829
2.48957
2.503
2.50709
2.50419
2.5001
2.4933
2.47798
2.44299
2.37747
2.32034
2.30328
2.29927
2.29812
2.30752
2.31335
2.30617
2.29821
2.28953
2.27792
2.25347
2.20649
2.15558
2.13895
2.1345
2.13329
2.1361
2.13299
2.12845
2.12359
2.11775
2.10939
2.09073
2.05468
2.03137
2.0235
2.01746
2.01182
2.00565
1.99853
1.99087
1.98213
1.96899
1.94193
1.90936
1.89878
1.89601
1.89308
1.88994
1.8842
1.87649
1.87052
1.86527
1.85856
1.84914
1.83291
1.80466
1.77561
1.76808
1.76631
1.76532
1.76293
1.75827
1.75284
1.74702
1.74038
1.73078
1.71246
1.68284
1.65493
1.64438
1.64333
1.6469
1.66003
1.66901
1.66688
1.66238
1.65666
1.64675
1.6277
1.59397
1.55772
1.54143
1.53872
1.53891
1.54718
1.5642
1.57355
1.57208
1.56841
1.56169
1.54686
1.52073
1.48438
1.46011
1.45148
1.45008
1.45172
1.46264
1.4806
1.48936
1.48789
1.48393
1.47567
1.4593
1.43131
1.39804
1.38065
1.37621
1.37559
1.37847
1.39106
1.4046
1.40583
1.40312
1.40011
1.3956
1.38456
1.36102
1.32835
1.312
1.31025
1.31098
1.32035
1.33912
1.34859
1.34703
1.3434
1.33708
1.32259
1.29432
1.26416
1.25404
1.25271
1.25217
1.25753
1.27161
1.27788
1.27642
1.27395
1.26969
1.25778
1.23333
1.21047
1.20478
1.20443
1.20794
1.22242
1.23901
1.24147
1.239
1.2341
1.22183
1.19497
1.16289
1.15152
1.1507
1.15101
1.15827
1.1779
1.19451
1.19638
1.19477
1.1903
1.17642
1.14663
1.12253
1.11794
1.1169
1.11696
1.12456
1.13965
1.14416
1.14266
1.14003
1.13411
1.1191
1.09621
1.08485
1.08378
1.08359
1.08755
1.09938
1.10744
1.10677
1.10426
1.10014
1.09041
1.07241
1.05612
1.05548
1.06784
1.1237
1.2762
1.49488
1.69966
1.79177
1.85492
1.85852
1.84945
1.83394
1.83034
1.82645
1.82533
1.83602
1.84601
1.8451
1.83914
1.82264
1.796
1.77937
1.77596
1.77498
1.78174
1.79827
1.80552
1.80374
1.79741
1.77913
1.75267
1.73926
1.73634
1.73578
1.74438
1.75931
1.76013
1.75528
1.7469
1.72953
1.71054
1.70399
1.70228
1.70169
1.70694
1.71946
1.72343
1.72045
1.71371
1.69806
1.6774
1.6687
1.66619
1.66449
1.66546
1.67143
1.67276
2.7893
2.79178
2.78144
2.76679
2.74477
2.71248
2.66115
2.592
2.54675
2.52743
2.52102
2.51805
2.52388
2.53746
2.54095
2.53759
2.53413
2.52844
2.5147
2.48206
2.41882
2.35519
2.33312
2.32867
2.32666
2.3339
2.34526
2.34061
2.33293
2.32458
2.31366
2.29309
2.25121
2.19329
2.16603
2.16054
2.15711
2.15967
2.16177
2.15688
2.15234
2.14699
2.14053
2.12866
2.09693
2.06164
2.04876
2.04194
2.03656
2.03129
2.02461
2.01684
2.00841
1.9977
1.97723
1.94389
1.9247
1.92143
1.91884
1.91514
1.90994
1.90395
1.89594
1.88805
1.88132
1.87292
1.85943
1.83599
1.8067
1.79466
1.79203
1.78886
1.78538
1.78098
1.77579
1.76944
1.76195
1.75245
1.73683
1.71049
1.68205
1.67005
1.6683
1.66979
1.67988
1.68746
1.68523
1.68096
1.67555
1.66638
1.64848
1.61674
1.58065
1.56316
1.56044
1.56077
1.56958
1.58641
1.59439
1.59247
1.58879
1.58204
1.56674
1.5387
1.50106
1.47856
1.4711
1.46986
1.47228
1.48454
1.50249
1.50987
1.50812
1.50386
1.4945
1.47632
1.44597
1.41324
1.39732
1.39332
1.39258
1.39528
1.40766
1.42145
1.42279
1.41988
1.4167
1.41219
1.40159
1.37907
1.3458
1.32711
1.32441
1.32488
1.33293
1.35116
1.36286
1.36214
1.35903
1.35381
1.34171
1.31674
1.28478
1.27109
1.26927
1.26827
1.27133
1.28393
1.29143
1.29008
1.28751
1.28365
1.27343
1.25146
1.22637
1.21776
1.21725
1.21964
1.23226
1.25017
1.25485
1.25273
1.2485
1.23851
1.21544
1.18162
1.1651
1.16352
1.16318
1.16772
1.18449
1.20335
1.20751
1.20624
1.20297
1.19258
1.16691
1.13801
1.1297
1.12872
1.12854
1.13452
1.14989
1.15734
1.15619
1.15357
1.14855
1.13562
1.1125
1.09649
1.09428
1.0938
1.09595
1.10624
1.11765
1.11868
1.11655
1.11292
1.10526
1.08906
1.07004
1.07204
1.10099
1.21634
1.41776
1.63981
1.79923
1.88424
1.89793
1.88897
1.86136
1.83913
1.83157
1.83281
1.84519
1.86237
1.87053
1.868
1.86126
1.84622
1.8169
1.7915
1.78511
1.78371
1.78962
1.80852
1.82181
1.82154
1.81637
1.79989
1.77174
1.75488
1.75193
1.75104
1.75765
1.77356
1.77762
1.77304
1.76476
1.74985
1.72924
1.71661
1.71395
1.71266
1.71602
1.72924
1.73796
1.7361
1.73055
1.718
1.69709
1.68188
1.67847
1.6766
1.6768
1.68321
1.68786
1.68573
2.83133
2.82012
2.80245
2.77715
2.74379
2.69165
2.62535
2.5825
2.56373
2.55743
2.55433
2.55891
2.57187
2.57526
2.57123
2.5677
2.56281
2.55051
2.5198
2.45876
2.39042
2.36327
2.35788
2.35525
2.35999
2.37492
2.37517
2.36774
2.35997
2.35007
2.33217
2.29526
2.23558
2.19636
2.18825
2.18382
2.18262
2.18874
2.18663
2.18118
2.17645
2.1704
2.16131
2.13824
2.09687
2.07406
2.06781
2.06067
2.05547
2.05021
2.04314
2.03469
2.02486
2.00949
1.98091
1.95318
1.94664
1.94323
1.94098
1.93684
1.92969
1.92268
1.91431
1.90425
1.8954
1.8854
1.86791
1.83928
1.82056
1.81719
1.81325
1.80801
1.80239
1.7972
1.79168
1.78451
1.77507
1.7616
1.73921
1.71093
1.69683
1.69474
1.69453
1.70014
1.70541
1.70308
1.69911
1.69408
1.68577
1.66941
1.64048
1.60525
1.58624
1.58335
1.58363
1.5924
1.60839
1.61436
1.61169
1.60792
1.60137
1.58624
1.55705
1.51848
1.49722
1.49084
1.48989
1.49338
1.50744
1.52521
1.53101
1.52882
1.52422
1.51375
1.49361
1.46064
1.42869
1.41447
1.41097
1.41016
1.41296
1.42547
1.43952
1.44094
1.43788
1.43452
1.42975
1.4189
1.3967
1.36302
1.34222
1.3383
1.33857
1.34517
1.36246
1.37619
1.37655
1.37387
1.36962
1.35973
1.33807
1.30597
1.28875
1.28626
1.28495
1.2865
1.29729
1.30602
1.30491
1.30212
1.29836
1.28928
1.26921
1.24278
1.23114
1.23025
1.23175
1.24241
1.26072
1.26787
1.2662
1.26249
1.25429
1.23485
1.20155
1.18002
1.17679
1.17622
1.17865
1.19219
1.21188
1.21846
1.2175
1.21493
1.20705
1.18579
1.15463
1.14146
1.14015
1.13985
1.14471
1.15983
1.17043
1.1699
1.16743
1.16298
1.15188
1.12996
1.10976
1.10516
1.10462
1.10553
1.11346
1.12678
1.13069
1.12873
1.12588
1.11974
1.10501
1.08807
1.10229
1.17723
1.33978
1.56549
1.75292
1.89015
1.9267
1.92186
1.90453
1.88615
1.86631
1.8565
1.85436
1.86138
1.88024
1.88917
1.88686
1.88009
1.86581
1.84149
1.81507
1.80383
1.80138
1.80325
1.81744
1.83443
1.83626
1.83263
1.82083
1.79548
1.77037
1.7631
1.76135
1.76562
1.78328
1.79374
1.79087
1.7842
1.7709
1.74926
1.73466
1.73177
1.73033
1.73173
1.74201
1.75294
1.75221
1.74755
1.73745
1.71799
1.69953
1.6947
1.69256
1.69166
1.69552
1.70239
1.70161
1.69807
2.85862
2.83708
2.80873
2.77401
2.72114
2.65881
2.61892
2.60096
2.59491
2.59203
2.5958
2.60715
2.61015
2.60565
2.60161
2.59685
2.58525
2.55591
2.49665
2.4247
2.39352
2.38679
2.38369
2.38617
2.40154
2.40898
2.40259
2.39525
2.38626
2.371
2.33787
2.2799
2.23029
2.21683
2.21235
2.20982
2.21275
2.21665
2.21144
2.20583
2.20017
2.19255
2.17565
2.13748
2.09944
2.09136
2.087
2.07962
2.07435
2.06886
2.06136
2.05182
2.03916
2.01541
1.986
1.97335
1.96831
1.96484
1.96248
1.95743
1.94902
1.93952
1.93016
1.91874
1.90774
1.89649
1.87628
1.84867
1.84053
1.83588
1.83052
1.82453
1.8179
1.81164
1.80539
1.79774
1.78675
1.76879
1.74188
1.72411
1.72138
1.72032
1.72194
1.72392
1.72099
1.71708
1.7124
1.70503
1.69057
1.66494
1.63148
1.61085
1.60754
1.60755
1.61544
1.62962
1.63355
1.63012
1.626
1.61957
1.60504
1.57581
1.53709
1.51637
1.51074
1.51011
1.51501
1.53098
1.54834
1.55242
1.54975
1.54469
1.53317
1.51114
1.4755
1.4446
1.43207
1.4291
1.42826
1.43154
1.44469
1.45904
1.46048
1.4573
1.45372
1.44849
1.43666
1.41379
1.37958
1.35749
1.35241
1.35249
1.35778
1.37356
1.38867
1.39042
1.38804
1.38445
1.3764
1.35789
1.3269
1.30644
1.30292
1.30165
1.30252
1.3119
1.32151
1.32078
1.31784
1.31402
1.30547
1.28665
1.25945
1.24498
1.2435
1.24429
1.25314
1.27104
1.28058
1.27946
1.27616
1.26935
1.25302
1.22183
1.19619
1.19031
1.1897
1.19086
1.20144
1.22068
1.22947
1.22884
1.2266
1.22048
1.2032
1.17197
1.15359
1.15126
1.15079
1.15471
1.16926
1.183
1.18368
1.18131
1.17736
1.16789
1.14787
1.12446
1.11657
1.11588
1.11604
1.12165
1.13505
1.14226
1.14126
1.13762
1.13468
1.12046
1.12053
1.15756
1.29063
1.4952
1.72278
1.86038
1.89784
1.93194
1.94722
1.93919
1.92206
1.89763
1.88365
1.87904
1.87828
1.88802
1.90194
1.90342
1.8993
1.88662
1.86008
1.83432
1.82576
1.8236
1.82465
1.83555
1.84965
1.85165
1.84856
1.83819
1.81659
1.79271
1.78433
1.78235
1.78317
1.79431
1.80791
1.8073
1.80225
1.79158
1.77002
1.74888
1.74314
1.74145
1.74186
1.75122
1.76586
1.76855
1.76496
1.75707
1.73883
1.71651
1.70796
1.7058
1.70466
1.70745
1.71569
1.71705
1.71409
1.70926
2.87233
2.84123
2.8036
2.75032
2.69275
2.6557
2.63959
2.63423
2.63155
2.63497
2.64409
2.64574
2.64081
2.63641
2.63145
2.61985
2.59081
2.53266
2.45802
2.42317
2.41495
2.41148
2.41243
2.42621
2.44071
2.43702
2.43023
2.42216
2.4088
2.37896
2.32432
2.26592
2.24598
2.24148
2.23874
2.2402
2.24457
2.24246
2.23677
2.23051
2.2233
2.21076
2.17876
2.13265
2.11283
2.10961
2.10574
2.09846
2.09317
2.08734
2.07927
2.06804
2.04978
2.0191
2.00122
1.99556
1.9896
1.9863
1.98316
1.97652
1.96657
1.95431
1.94363
1.93306
1.92142
1.90897
1.88928
1.86494
1.85635
1.85141
1.84509
1.83864
1.83215
1.82528
1.81785
1.80936
1.79721
1.77538
1.75306
1.74855
1.74596
1.74423
1.7435
1.73995
1.73541
1.7306
1.72403
1.71191
1.6896
1.65877
1.63708
1.63307
1.63266
1.63871
1.65008
1.65196
1.64818
1.64368
1.63711
1.62304
1.5949
1.55682
1.53589
1.53087
1.53054
1.53689
1.55461
1.5711
1.57354
1.57042
1.56493
1.55263
1.52893
1.49089
1.46112
1.45006
1.44754
1.44686
1.45102
1.46519
1.47982
1.48131
1.47807
1.47434
1.46832
1.45503
1.43084
1.39572
1.37294
1.36712
1.36704
1.37131
1.38544
1.401
1.40405
1.40199
1.39882
1.3922
1.37617
1.34692
1.32372
1.31863
1.31754
1.31836
1.3273
1.33783
1.33765
1.33456
1.33057
1.32206
1.30389
1.27628
1.25949
1.25704
1.25744
1.26458
1.28153
1.2931
1.2927
1.28976
1.28399
1.27015
1.24187
1.21314
1.20423
1.20348
1.20386
1.21187
1.2303
1.24088
1.24053
1.23835
1.23333
1.21918
1.18987
1.16661
1.16197
1.16147
1.1643
1.17793
1.19462
1.19731
1.19507
1.19147
1.18346
1.16563
1.14039
1.12855
1.12745
1.12723
1.13082
1.14319
1.15346
1.15334
1.15105
1.14694
1.14289
1.16565
1.25296
1.44439
1.6672
1.79652
1.90045
1.96888
1.97899
1.97934
1.9678
1.94252
1.91512
1.8953
1.89046
1.89222
1.90499
1.92284
1.9256
1.92049
1.90882
1.88395
1.85203
1.83676
1.83401
1.83428
1.84585
1.86409
1.86953
1.86725
1.85876
1.83676
1.80882
1.79783
1.79583
1.79647
1.80769
1.82299
1.82319
1.81792
1.80929
1.79167
1.76913
1.75854
1.75611
1.75522
1.76123
1.7769
1.78391
1.78126
1.77453
1.76006
1.73771
1.72208
1.71866
1.71683
1.71763
1.72583
1.73142
1.72934
1.72502
1.71672
2.87501
2.83385
2.77972
2.72717
2.69271
2.67884
2.67501
2.67333
2.67606
2.68265
2.68223
2.67647
2.67166
2.66658
2.65482
2.62588
2.56813
2.4915
2.45317
2.44271
2.43894
2.43888
2.45041
2.46945
2.47091
2.46465
2.45738
2.44557
2.41843
2.36707
2.30302
2.27551
2.27021
2.26736
2.26934
2.27405
2.27291
2.26832
2.26237
2.25497
2.24417
2.21833
2.17105
2.13686
2.1311
2.12917
2.12457
2.11745
2.11198
2.10554
2.09649
2.08256
2.05667
2.02813
2.02228
2.01679
2.0105
2.00676
2.00197
1.99357
1.9813
1.96788
1.95752
1.94945
1.93941
1.9255
1.9043
1.8795
1.86894
1.86473
1.85918
1.85213
1.84585
1.83913
1.83081
1.82133
1.80872
1.78833
1.77498
1.77077
1.76665
1.76315
1.75953
1.75477
1.7493
1.74271
1.73272
1.71405
1.68651
1.66438
1.6596
1.65875
1.66269
1.67057
1.67033
1.66623
1.66167
1.65498
1.64093
1.61393
1.5772