/*--------------------------------*- C++ -*----------------------------------*\
  =========                 |
  \\      /  F ield         | OpenFOAM: The Open Source CFD Toolbox
   \\    /   O peration     | Website:  https://openfoam.org
    \\  /    A nd           | Version:  7
     \\/     M anipulation  |
\*---------------------------------------------------------------------------*/
FoamFile
{
    version     2.0;
    format      ascii;
    class       volScalarField;
    location    "3";
    object      T;
}
// * * * * * * * * * * * * * * * * * * * * * * * * * * * * * * * * * * * * * //

dimensions      [0 0 0 1 0 0 0];

internalField   nonuniform List<scalar> 
16512
(
1.49702
1.61465
1.68107
1.69059
1.69127
1.69033
1.6894
1.68375
1.68306
1.68579
1.68652
1.68487
1.6819
1.67731
1.67054
1.66693
1.66589
1.66534
1.66711
1.66906
1.66824
1.66485
1.65994
1.65568
1.65297
1.6505
1.64803
1.64677
1.64679
1.64693
1.64617
1.64501
1.64452
1.64338
1.64064
1.63622
1.6301
1.62428
1.62039
1.61913
1.61978
1.62391
1.62785
1.62798
1.62669
1.62372
1.61972
1.61455
1.60728
1.59952
1.59448
1.59216
1.59186
1.59381
1.59975
1.60554
1.6064
1.60529
1.60341
1.5999
1.5925
1.57973
1.5677
1.56204
1.5599
1.55986
1.5633
1.57257
1.58269
1.58679
1.58594
1.5832
1.58348
1.61396
1.70554
1.83992
1.93116
1.97135
1.98822
2.00099
2.0118
2.01353
2.00932
2.00047
1.98931
1.97642
1.96104
1.94702
1.93937
1.93607
1.93493
1.93864
1.94804
1.95545
1.9552
1.95158
1.94485
1.93382
1.91735
1.90397
1.89886
1.89665
1.8979
1.90544
1.91327
1.91304
1.90804
1.8981
1.88167
1.86435
1.85715
1.8546
1.85352
1.85758
1.86821
1.87363
1.87204
1.86723
1.85651
1.83889
1.82431
1.81897
1.81706
1.81742
1.82671
1.85449
1.89989
1.94918
1.97589
1.97657
1.96598
1.95722
1.9536
1.95389
1.95744
1.9574
1.95337
1.94713
1.93696
1.92491
1.91784
1.91449
1.91324
1.91536
1.91695
1.91428
1.91006
1.90308
1.89228
1.88237
1.87761
1.87497
1.87375
1.87477
1.8745
1.87156
1.8685
1.86458
1.85714
1.84859
1.84375
1.84094
1.83839
1.8364
1.83369
1.8305
1.82698
1.82229
1.81565
1.80976
1.80692
1.80488
1.80325
1.80114
1.79852
1.79538
1.79124
1.78513
1.77828
1.77409
1.77178
1.76973
1.76759
1.76531
1.76283
1.75996
1.75636
1.75212
1.74841
1.74552
1.7428
1.73995
1.7368
1.73307
1.72817
1.72262
1.7192
1.7171
1.71512
1.71337
1.71192
1.70978
1.70734
1.70482
1.70159
1.69528
1.6879
1.68408
1.68216
1.68039
1.67853
1.67643
1.67406
1.67135
1.6681
1.66383
1.6587
1.65362
1.65093
1.64931
1.64821
1.64726
1.64581
1.64395
1.64193
1.6398
1.63723
1.63396
1.63041
1.62719
1.62412
1.62058
1.6161
1.61082
1.60645
1.60421
1.60262
1.60124
1.6001
1.59903
1.59767
1.59617
1.59437
1.59081
1.58512
1.58025
1.57798
1.57619
1.57436
1.57235
1.5701
1.56792
1.56624
1.56488
1.56323
1.56026
1.55593
1.55165
1.42436
1.51087
1.6354
1.6764
1.685
1.68604
1.68348
1.68224
1.68502
1.68797
1.68642
1.68257
1.67791
1.67116
1.66725
1.6671
1.6687
1.67024
1.6716
1.67069
1.66633
1.65975
1.65485
1.65275
1.65128
1.64988
1.6488
1.64884
1.64912
1.6485
1.64722
1.64641
1.64519
1.64283
1.63842
1.63214
1.62644
1.62286
1.62183
1.62274
1.62683
1.62976
1.62966
1.62828
1.62441
1.61926
1.61322
1.60627
1.60017
1.59624
1.59479
1.59506
1.59816
1.60428
1.60846
1.60815
1.60641
1.60379
1.59964
1.59187
1.57987
1.56973
1.56472
1.56299
1.56328
1.56778
1.57709
1.58641
1.58722
1.58792
1.58519
1.59769
1.66585
1.80389
1.91075
1.95075
1.97211
1.99166
2.00756
2.01565
2.01387
2.00885
2.00108
1.99022
1.97457
1.95685
1.94595
1.94207
1.93995
1.93884
1.94284
1.953
1.95971
1.95831
1.95334
1.94489
1.93149
1.91485
1.90439
1.89983
1.89786
1.89978
1.90779
1.91479
1.91416
1.90993
1.90126
1.88569
1.86728
1.85707
1.85372
1.85351
1.85912
1.87008
1.87513
1.87363
1.86892
1.85864
1.84235
1.8267
1.81921
1.81685
1.81697
1.82598
1.85359
1.8989
1.94883
1.97716
1.97862
1.96842
1.95909
1.95536
1.9554
1.9595
1.9605
1.95698
1.95109
1.94127
1.92856
1.9202
1.91647
1.91481
1.91687
1.91949
1.91754
1.91359
1.90712
1.89646
1.88534
1.87944
1.87648
1.87466
1.87541
1.87615
1.87377
1.8707
1.86725
1.86059
1.85159
1.84546
1.84277
1.84031
1.83826
1.83577
1.83251
1.8292
1.82509
1.81898
1.81246
1.80894
1.80663
1.80496
1.80323
1.80088
1.79816
1.7946
1.78885
1.78132
1.77617
1.77365
1.77152
1.76937
1.7671
1.76473
1.76206
1.7588
1.75469
1.75055
1.74762
1.74512
1.7425
1.73966
1.73633
1.73182
1.72592
1.72134
1.71889
1.7168
1.71494
1.71334
1.71123
1.7088
1.70632
1.70335
1.69807
1.6912
1.6862
1.68413
1.68239
1.68063
1.67866
1.67642
1.67384
1.67072
1.66642
1.66076
1.65571
1.65292
1.65114
1.6499
1.64902
1.64773
1.64613
1.64426
1.64184
1.63893
1.63538
1.63165
1.62887
1.62672
1.62436
1.62118
1.61648
1.61059
1.60618
1.60379
1.60197
1.60031
1.59883
1.5975
1.59623
1.59452
1.59133
1.58652
1.58213
1.58016
1.57862
1.57697
1.57518
1.57325
1.57113
1.56867
1.56599
1.56313
1.55964
1.55605
1.55262
1.54975
1.39969
1.4293
1.5383
1.63753
1.66867
1.67962
1.68182
1.68482
1.68855
1.68776
1.68426
1.67936
1.67264
1.66748
1.66733
1.66988
1.67316
1.67435
1.67341
1.66855
1.66069
1.65475
1.65263
1.65179
1.65124
1.65106
1.65127
1.65124
1.65053
1.64902
1.64746
1.64598
1.64434
1.64077
1.63505
1.62935
1.62567
1.62465
1.62565
1.62926
1.63123
1.63126
1.62984
1.62556
1.61957
1.61283
1.60619
1.60114
1.5979
1.59704
1.59777
1.60165
1.60767
1.61053
1.60961
1.60744
1.60433
1.5997
1.59173
1.58075
1.57214
1.56769
1.56618
1.56689
1.57188
1.58194
1.58777
1.58969
1.58738
1.59344
1.63705
1.74041
1.87717
1.95785
1.98334
1.99381
1.99945
2.01027
2.01697
2.01695
2.01098
2.00047
1.98779
1.97386
1.95908
1.94752
1.94098
1.93895
1.93936
1.94618
1.95704
1.96211
1.96002
1.95487
1.94639
1.93315
1.91635
1.90488
1.9002
1.89892
1.90183
1.91018
1.91585
1.91451
1.90992
1.9011
1.88603
1.86925
1.86117
1.85796
1.8571
1.86183
1.87288
1.87832
1.87652
1.87103
1.85975
1.84133
1.82588
1.82084
1.81888
1.81866
1.82641
1.85288
1.89753
1.94822
1.97842
1.98077
1.97062
1.96053
1.95673
1.95678
1.9614
1.96337
1.96028
1.95452
1.94491
1.93206
1.92281
1.91877
1.91677
1.91857
1.92203
1.92099
1.91728
1.91124
1.90092
1.88882
1.88168
1.87834
1.876
1.87627
1.87783
1.87623
1.87312
1.86984
1.86392
1.85467
1.84698
1.84396
1.84182
1.84013
1.83851
1.83534
1.83196
1.82823
1.82282
1.81576
1.81121
1.80845
1.8064
1.80489
1.80277
1.80028
1.7973
1.79248
1.785
1.77869
1.77569
1.77344
1.77144
1.76921
1.76686
1.76432
1.76129
1.75734
1.75269
1.74926
1.74692
1.74458
1.74198
1.73899
1.73515
1.7297
1.72431
1.72123
1.71895
1.71699
1.71529
1.71314
1.71051
1.70771
1.70478
1.70024
1.69346
1.68787
1.68587
1.68431
1.68268
1.68088
1.67883
1.67642
1.67339
1.66941
1.66388
1.65804
1.65474
1.65303
1.65185
1.65091
1.64943
1.6477
1.64593
1.64406
1.64202
1.63861
1.63378
1.63002
1.62786
1.62595
1.62375
1.62085
1.61658
1.61141
1.60724
1.6043
1.60194
1.59989
1.59794
1.59594
1.59383
1.59135
1.58787
1.58364
1.58116
1.57968
1.57849
1.57713
1.57554
1.57376
1.57173
1.56938
1.56626
1.56155
1.55629
1.55264
1.55047
1.54918
1.39593
1.40203
1.4455
1.55781
1.62581
1.66342
1.68306
1.69087
1.69083
1.68721
1.68192
1.67666
1.66849
1.66736
1.66976
1.6748
1.67621
1.67574
1.67166
1.66306
1.65589
1.65299
1.6522
1.65227
1.65349
1.65405
1.65361
1.65207
1.65018
1.64762
1.64561
1.64423
1.64174
1.63762
1.63266
1.62904
1.62794
1.62876
1.63152
1.63259
1.6327
1.63107
1.62677
1.6205
1.61344
1.60713
1.60272
1.59992
1.59943
1.60055
1.60473
1.61002
1.6117
1.61049
1.60796
1.60451
1.59969
1.59195
1.58232
1.57515
1.57107
1.5697
1.57068
1.57612
1.58534
1.59064
1.59066
1.59255
1.61269
1.70192
1.84796
1.93986
1.96525
1.97776
1.99314
2.00697
2.0183
2.01993
2.01658
2.01135
2.00279
1.98908
1.97133
1.95621
1.94882
1.94537
1.94345
1.94362
1.95024
1.96111
1.96527
1.96237
1.95575
1.94518
1.92981
1.91486
1.90767
1.90419
1.90236
1.905
1.9129
1.91725
1.91522
1.91009
1.90088
1.88569
1.87044
1.86203
1.859
1.85899
1.86458
1.87488
1.87943
1.87793
1.87316
1.86283
1.84529
1.82828
1.82027
1.81766
1.8175
1.82576
1.85233
1.8965
1.9476
1.97942
1.98259
1.97292
1.96225
1.95819
1.95802
1.96296
1.96595
1.96324
1.95779
1.9482
1.93485
1.92505
1.9208
1.91868
1.92039
1.92447
1.9243
1.92078
1.91521
1.90529
1.89249
1.88414
1.88046
1.87783
1.87769
1.87972
1.87927
1.87608
1.87272
1.86705
1.85779
1.84909
1.84504
1.84283
1.84133
1.84089
1.83874
1.83539
1.83194
1.82697
1.81955
1.81388
1.81073
1.80818
1.80645
1.80446
1.80204
1.7993
1.79524
1.78822
1.78134
1.77795
1.77562
1.77375
1.7717
1.76933
1.76681
1.76394
1.76016
1.75518
1.75092
1.74838
1.74608
1.7436
1.74085
1.73752
1.73299
1.72756
1.72389
1.72164
1.71972
1.71789
1.71565
1.71301
1.71014
1.7069
1.70242
1.69612
1.68988
1.68679
1.68517
1.68384
1.68255
1.68091
1.67894
1.67643
1.67275
1.66712
1.66109
1.6574
1.65537
1.65377
1.65267
1.65145
1.64982
1.64797
1.64582
1.64342
1.63985
1.63531
1.63152
1.62924
1.62735
1.62535
1.62305
1.62011
1.61616
1.6118
1.60814
1.60517
1.60248
1.59989
1.59741
1.59501
1.59234
1.58856
1.58457
1.58236
1.58087
1.5796
1.57853
1.57726
1.57586
1.57418
1.57194
1.56876
1.5641
1.55868
1.55422
1.55162
1.55019
1.54894
1.39621
1.3978
1.40693
1.45847
1.54222
1.62275
1.67519
1.6914
1.6898
1.68534
1.6811
1.67348
1.66788
1.66886
1.67377
1.67658
1.67635
1.67392
1.66648
1.65793
1.6544
1.65327
1.65347
1.65556
1.6573
1.65653
1.65415
1.65027
1.64641
1.64417
1.64265
1.641
1.63861
1.63525
1.63236
1.63122
1.63166
1.6335
1.6342
1.63408
1.63216
1.62783
1.62169
1.61476
1.60876
1.60476
1.60231
1.60217
1.60378
1.60798
1.61191
1.61238
1.6108
1.60774
1.60403
1.59916
1.59206
1.58412
1.57838
1.57472
1.57367
1.57473
1.58113
1.58746
1.59241
1.59323
1.60498
1.66623
1.7828
1.9187
1.98455
2.00363
2.00512
1.99863
2.00327
2.01434
2.02097
2.0189
2.01128
2.00053
1.98824
1.97407
1.96037
1.95035
1.94488
1.94356
1.94541
1.95392
1.96397
1.96649
1.96349
1.957
1.9468
1.93155
1.91594
1.90746
1.90419
1.90381
1.90813
1.91546
1.91787
1.91544
1.91014
1.9013
1.88717
1.87232
1.8646
1.86204
1.8622
1.86829
1.87831
1.88185
1.87958
1.87355
1.86239
1.84428
1.82832
1.82257
1.82028
1.81988
1.827
1.85207
1.89495
1.94676
1.98102
1.98485
1.97483
1.96371
1.95959
1.95948
1.96467
1.9681
1.96565
1.9605
1.95139
1.93835
1.92752
1.92268
1.92045
1.92206
1.92676
1.92739
1.92416
1.91875
1.90915
1.89613
1.88664
1.88254
1.87977
1.87936
1.88172
1.88264
1.87984
1.87632
1.8707
1.86115
1.85127
1.8462
1.8439
1.84224
1.84229
1.84172
1.83869
1.83543
1.83093
1.82333
1.81653
1.81309
1.8103
1.80822
1.8062
1.80369
1.80106
1.79757
1.79097
1.78383
1.77987
1.77759
1.77581
1.77432
1.77213
1.76963
1.76683
1.7632
1.75808
1.75288
1.7498
1.74752
1.74513
1.74252
1.7395
1.73546
1.73005
1.72613
1.72395
1.72213
1.72058
1.71865
1.71626
1.71345
1.71002
1.7054
1.69853
1.69172
1.68806
1.68638
1.68497
1.68373
1.68227
1.68059
1.67873
1.67586
1.67104
1.66427
1.65961
1.65771
1.65617
1.65479
1.65317
1.65142
1.64988
1.64829
1.6461
1.64216
1.63659
1.63216
1.63
1.62827
1.62639
1.62429
1.62193
1.61913
1.61567
1.61199
1.60887
1.60613
1.60342
1.60065
1.59767
1.59419
1.58997
1.58584
1.58303
1.58145
1.57991
1.57864
1.57776
1.57666
1.57539
1.57403
1.57218
1.56848
1.56238
1.55646
1.55339
1.55199
1.551
1.55001
1.3981
1.39819
1.39825
1.40655
1.44918
1.53708
1.64628
1.68087
1.68399
1.6824
1.67889
1.67057
1.66918
1.67215
1.6761
1.67613
1.67385
1.66795
1.66029
1.65602
1.65534
1.65557
1.65767
1.65979
1.65945
1.65641
1.65099
1.64574
1.64298
1.64148
1.64013
1.63865
1.63656
1.63493
1.63367
1.63371
1.63462
1.63555
1.63538
1.63349
1.62923
1.62319
1.61645
1.61069
1.60681
1.60487
1.60519
1.60739
1.61145
1.61378
1.61318
1.61094
1.60716
1.60299
1.59809
1.59187
1.58585
1.58133
1.5785
1.57757
1.57965
1.58472
1.59196
1.5928
1.59865
1.63229
1.74888
1.89227
1.9717
1.98644
1.99516
2.00407
2.00893
2.01406
2.01787
2.0171
2.01567
2.01169
2.00231
1.98733
1.97182
1.9612
1.95484
1.95061
1.94861
1.94985
1.95794
1.96735
1.96871
1.9647
1.95675
1.94439
1.92813
1.91638
1.91128
1.90844
1.90778
1.9121
1.91875
1.9196
1.91622
1.90967
1.89906
1.88454
1.87353
1.86801
1.86535
1.86557
1.87173
1.88098
1.88352
1.88122
1.8756
1.86446
1.84599
1.82942
1.82187
1.81936
1.81944
1.82779
1.85252
1.89384
1.94538
1.98158
1.98676
1.97742
1.96568
1.9612
1.96099
1.96636
1.97046
1.9683
1.9632
1.95388
1.94031
1.92983
1.92514
1.92267
1.92392
1.92884
1.93021
1.92724
1.92202
1.91261
1.8991
1.88874
1.88431
1.8816
1.88104
1.88366
1.88583
1.88364
1.88017
1.87481
1.86536
1.85433
1.84779
1.84515
1.84334
1.8434
1.84385
1.84161
1.83847
1.8343
1.82664
1.81898
1.81507
1.81246
1.81031
1.80842
1.80576
1.80309
1.7999
1.79381
1.78635
1.78144
1.77933
1.77771
1.77679
1.77511
1.77271
1.77003
1.76662
1.76146
1.75535
1.75145
1.74903
1.74664
1.74404
1.74112
1.73756
1.73293
1.72845
1.72592
1.72403
1.72259
1.72108
1.71905
1.71672
1.71389
1.70988
1.70343
1.69553
1.68974
1.6874
1.68561
1.68429
1.68332
1.68166
1.67969
1.67774
1.67475
1.66889
1.66302
1.66005
1.65823
1.65685
1.65544
1.65364
1.65158
1.64946
1.64741
1.64421
1.63915
1.63405
1.63119
1.62914
1.62701
1.62497
1.62298
1.62064
1.61769
1.61436
1.61135
1.60896
1.60674
1.60441
1.60172
1.59832
1.59379
1.58838
1.58437
1.58251
1.58094
1.57939
1.57809
1.57716
1.57579
1.57442
1.57296
1.57052
1.56581
1.55997
1.55604
1.55396
1.55224
1.55095
1.54991
1.40043
1.39895
1.39556
1.39488
1.40369
1.44871
1.56771
1.65239
1.67189
1.67676
1.67513
1.67034
1.67133
1.67527
1.6756
1.6734
1.66762
1.66182
1.65831
1.65796
1.65917
1.66046
1.66189
1.66156
1.65808
1.65187
1.64684
1.64393
1.64184
1.64079
1.63939
1.63762
1.63659
1.63583
1.63489
1.6351
1.63578
1.63582
1.63463
1.6311
1.62538
1.61871
1.6129
1.609
1.60764
1.60822
1.61113
1.61481
1.61564
1.61461
1.61128
1.60667
1.60194
1.59691
1.59168
1.58731
1.58391
1.58193
1.58157
1.58406
1.5902
1.59367
1.59654
1.61788
1.70297
1.82929
1.95855
2.00721
2.02129
2.01379
2.00439
2.0041
2.00913
2.01816
2.01854
2.01353
2.00684
1.9993
1.9884
1.97565
1.96456
1.95596
1.95176
1.95057
1.95312
1.9614
1.96889
1.96906
1.9656
1.95832
1.9462
1.92965
1.91676
1.91082
1.90894
1.9102
1.91605
1.92118
1.92058
1.91704
1.91043
1.90008
1.88621
1.87458
1.86841
1.86656
1.86792
1.87527
1.88381
1.88522
1.88253
1.87633
1.86529
1.84787
1.83157
1.82455
1.82211
1.82209
1.82975
1.85356
1.89306
1.94511
1.98351
1.98887
1.97912
1.96793
1.96344
1.96315
1.96848
1.97267
1.97065
1.96591
1.95709
1.94385
1.93227
1.92673
1.92431
1.9257
1.93098
1.93281
1.92994
1.92474
1.91564
1.90248
1.89107
1.88574
1.88299
1.8823
1.88512
1.88854
1.8873
1.88396
1.87885
1.86972
1.85805
1.85026
1.84708
1.845
1.84474
1.84571
1.84419
1.84119
1.8373
1.8299
1.82155
1.81662
1.81416
1.81218
1.81081
1.80821
1.80546
1.80249
1.79691
1.7891
1.78318
1.78075
1.77907
1.77866
1.77805
1.77568
1.77316
1.77031
1.76548
1.7586
1.75351
1.75074
1.74838
1.74596
1.74325
1.73986
1.73507
1.73035
1.72779
1.72582
1.72424
1.723
1.72135
1.71931
1.71693
1.71375
1.70869
1.70067
1.69323
1.68989
1.68767
1.68572
1.68397
1.6823
1.68103
1.67967
1.67691
1.67167
1.66621
1.6635
1.66182
1.66011
1.65817
1.65598
1.65386
1.65193
1.64973
1.64603
1.6408
1.636
1.63328
1.63133
1.62913
1.62673
1.6242
1.62168
1.61914
1.61636
1.6132
1.61051
1.60852
1.60667
1.60477
1.60243
1.59889
1.59346
1.58781
1.5845
1.58242
1.58071
1.57933
1.57808
1.57627
1.57431
1.57255
1.57045
1.56717
1.56284
1.55909
1.55735
1.55586
1.55425
1.5524
1.55016
1.40146
1.39794
1.39399
1.39353
1.39437
1.40615
1.46679
1.58894
1.64325
1.66307
1.67192
1.6738
1.67728
1.67774
1.67419
1.66703
1.66072
1.65896
1.65936
1.66174
1.66415
1.66522
1.66446
1.65977
1.65225
1.64738
1.64512
1.64303
1.64131
1.64068
1.63933
1.63806
1.63723
1.63617
1.63495
1.63501
1.63527
1.63481
1.63245
1.6276
1.62116
1.61526
1.61157
1.61061
1.61144
1.61472
1.6176
1.6179
1.61621
1.61183
1.60652
1.60127
1.59624
1.59198
1.58862
1.58623
1.58492
1.58548
1.58823
1.59446
1.59758
1.60702
1.65878
1.79501
1.93939
1.99704
1.99987
2.00735
2.01672
2.01909
2.01939
2.01543
2.0146
2.01618
2.01424
2.00785
1.99758
1.98555
1.97489
1.96751
1.96144
1.95745
1.9557
1.95788
1.96559
1.97154
1.9705
1.96608
1.95742
1.94374
1.92799
1.91901
1.915
1.91284
1.91412
1.92023
1.92424
1.92253
1.91784
1.90941
1.89717
1.88429
1.87671
1.8727
1.87049
1.87148
1.87861
1.88645
1.88705
1.88421
1.87778
1.86555
1.84686
1.83252
1.82629
1.82381
1.82397
1.83197
1.85448
1.89201
1.94357
1.98428
1.99148
1.98202
1.97029
1.96565
1.96542
1.97082
1.97504
1.97305
1.96833
1.95952
1.94616
1.93496
1.92989
1.92716
1.92807
1.93328
1.93569
1.93292
1.9276
1.91842
1.90473
1.89284
1.88751
1.8848
1.88376
1.88635
1.89059
1.89026
1.88708
1.88239
1.87362
1.86146
1.85287
1.84927
1.84707
1.84681
1.84801
1.84686
1.84397
1.84014
1.83286
1.82415
1.81821
1.81564
1.8138
1.81301
1.81108
1.80816
1.80521
1.80031
1.79262
1.78568
1.78252
1.78059
1.77991
1.78013
1.7784
1.77577
1.77314
1.76883
1.76204
1.75626
1.75314
1.75061
1.74799
1.74518
1.74202
1.73801
1.73318
1.72979
1.72756
1.72577
1.72452
1.72319
1.72136
1.71934
1.71689
1.71314
1.70607
1.6978
1.69308
1.6906
1.68839
1.68629
1.68408
1.6817
1.67935
1.67689
1.67325
1.66858
1.66525
1.66369
1.66246
1.66108
1.65919
1.65694
1.65422
1.65101
1.64699
1.64175
1.63691
1.63416
1.63263
1.63088
1.62894
1.62683
1.62434
1.62136
1.61768
1.61367
1.61127
1.60969
1.60819
1.6066
1.6048
1.60256
1.59893
1.59325
1.58808
1.58516
1.58285
1.58063
1.5788
1.57727
1.57582
1.57429
1.57206
1.56845
1.56376
1.56035
1.5591
1.55796
1.55664
1.55505
1.55311
1.55072
1.40043
1.39642
1.3942
1.39401
1.39431
1.39654
1.41212
1.48686
1.57841
1.63206
1.66554
1.67832
1.68014
1.67786
1.67114
1.66371
1.66023
1.66034
1.66179
1.66544
1.66728
1.66715
1.66349
1.65492
1.64802
1.64551
1.64412
1.64241
1.64201
1.64177
1.64027
1.63843
1.63689
1.63491
1.63374
1.6341
1.6342
1.63298
1.62919
1.62327
1.61745
1.61425
1.61353
1.61487
1.61803
1.62003
1.62017
1.61759
1.61252
1.60672
1.6012
1.59653
1.59294
1.59016
1.58816
1.58781
1.58853
1.59377
1.59779
1.60402
1.63763
1.74279
1.87644
1.99205
2.0274
2.03334
2.01967
2.01173
2.01304
2.01954
2.02382
2.02079
2.01514
2.00985
2.005
1.99785
1.98802
1.97798
1.96914
1.96265
1.95972
1.95878
1.96175
1.96863
1.9724
1.9708
1.96687
1.95917
1.9459
1.9297
1.91945
1.91519
1.91421
1.91726
1.92361
1.92589
1.92381
1.91891
1.91051
1.89838
1.88564
1.87713
1.87285
1.87164
1.87415
1.88191
1.88832
1.88801
1.88515
1.8787
1.86726
1.85035
1.83519
1.82732
1.82498
1.82543
1.83397
1.85591
1.8916
1.94252
1.98511
1.99348
1.9842
1.97352
1.96887
1.96848
1.97357
1.97761
1.97555
1.97083
1.96216
1.9489
1.93735
1.93177
1.92922
1.93031
1.93568
1.93835
1.93565
1.93052
1.92164
1.90814
1.89528
1.88883
1.88588
1.88475
1.88744
1.89226
1.89256
1.88949
1.88483
1.8766
1.86524
1.85565
1.85142
1.84925
1.84896
1.85065
1.85022
1.84734
1.84338
1.83602
1.82669
1.81997
1.81708
1.81508
1.81461
1.81392
1.81112
1.80819
1.80379
1.7959
1.78837
1.78466
1.78259
1.78153
1.78185
1.78064
1.77797
1.77537
1.77142
1.76477
1.7586
1.75537
1.75308
1.75065
1.74797
1.74482
1.74061
1.73543
1.73189
1.72965
1.72758
1.72603
1.72489
1.72322
1.72123
1.71897
1.71599
1.71023
1.70222
1.69653
1.69407
1.69183
1.68934
1.68665
1.68401
1.68152
1.6787
1.67439
1.66953
1.66668
1.66528
1.66409
1.66304
1.66151
1.65959
1.65743
1.65464
1.65035
1.64414
1.63837
1.63494
1.63335
1.63178
1.63007
1.62825
1.62629
1.62401
1.62088
1.61636
1.61229
1.61022
1.60868
1.6072
1.60557
1.60369
1.60146
1.59813
1.59332
1.58893
1.5859
1.58344
1.58116
1.57884
1.57641
1.57399
1.57138
1.56842
1.56513
1.56157
1.55978
1.55863
1.55772
1.55671
1.5553
1.55339
1.55044
1.3988
1.39687
1.39664
1.39658
1.39613
1.39545
1.39718
1.41459
1.47868
1.56034
1.64543
1.67589
1.6769
1.6736
1.66685
1.66215
1.66209
1.663
1.6659
1.66792
1.6679
1.66588
1.65893
1.65041
1.64634
1.64526
1.64429
1.64413
1.64445
1.64331
1.64023
1.63715
1.63493
1.63333
1.63333
1.63372
1.63317
1.63045
1.62518
1.61946
1.61671
1.61617
1.61809
1.62077
1.62219
1.62197
1.61875
1.61315
1.60697
1.60166
1.59765
1.59451
1.59174
1.5903
1.59024
1.59243
1.59784
1.60325
1.62132
1.69757
1.84186
1.97346
2.01539
2.01521
2.0201
2.0258
2.02774
2.02769
2.02315
2.02296
2.02253
2.01861
2.01079
2.0021
1.99417
1.98683
1.98009
1.97329
1.96764
1.96447
1.96337
1.96599
1.97187
1.97397
1.97151
1.96642
1.95769
1.94413
1.93043
1.92302
1.91944
1.91813
1.92115
1.92713
1.92813
1.92521
1.91892
1.90883
1.89595
1.88595
1.8803
1.87699
1.87537
1.87773
1.88528
1.89041
1.8894
1.8861
1.87897
1.866
1.84833
1.83674
1.83165
1.8289
1.82893
1.83673
1.85723
1.89096
1.94147
1.98558
1.99611
1.98686
1.97624
1.97171
1.9715
1.97648
1.98
1.97777
1.97311
1.96467
1.95165
1.93997
1.93456
1.93201
1.93299
1.9384
1.94124
1.93861
1.93328
1.92425
1.9108
1.8976
1.89111
1.88808
1.8866
1.88884
1.894
1.89479
1.89187
1.88725
1.87879
1.86647
1.85727
1.85355
1.85148
1.85127
1.85336
1.85356
1.85085
1.84706
1.84001
1.83016
1.82241
1.81883
1.81666
1.81603
1.816
1.81368
1.81087
1.80712
1.8
1.79184
1.78666
1.78441
1.78304
1.78322
1.78275
1.78002
1.77724
1.77363
1.76727
1.7609
1.75721
1.75506
1.75291
1.7506
1.74789
1.74426
1.73915
1.73441
1.73165
1.72941
1.72756
1.72623
1.72456
1.72262
1.72057
1.71812
1.71368
1.70632
1.69945
1.69671
1.69471
1.6926
1.69028
1.68763
1.68451
1.68074
1.67607
1.67123
1.66742
1.6657
1.66432
1.66331
1.6627
1.66141
1.65943
1.65708
1.65399
1.64859
1.64127
1.63632
1.63438
1.63273
1.63116
1.62959
1.62783
1.6258
1.62335
1.62002
1.61567
1.61203
1.6098
1.60793
1.60608
1.60428
1.60252
1.60027
1.59688
1.59289
1.58986
1.58771
1.5854
1.58247
1.57917
1.57603
1.57309
1.5698
1.56564
1.56225
1.56065
1.55953
1.55861
1.55779
1.55665
1.55525
1.55344
1.5503
1.39927
1.39931
1.39973
1.39948
1.39826
1.39566
1.39226
1.39278
1.41022
1.46841
1.58707
1.6587
1.66741
1.66857
1.66439
1.66289
1.66401
1.66608
1.66859
1.66814
1.66634
1.66158
1.65354
1.64787
1.64663
1.6465
1.64686
1.64754
1.64645
1.64266
1.63805
1.63513
1.63363
1.63313
1.6335
1.63343
1.63162
1.62708
1.6217
1.6191
1.61868
1.62063
1.62282
1.62378
1.6233
1.6199
1.61381
1.60744
1.60265
1.59923
1.59624
1.59355
1.59278
1.59278
1.59612
1.60223
1.61555
1.66894
1.79339
1.93116
2.01737
2.04103
2.04312
2.02605
2.01842
2.02056
2.03082
2.03463
2.02959
2.02245
2.0162
2.01032
2.00299
1.99493
1.9876
1.98086
1.9746
1.9702
1.9677
1.96702
1.96928
1.97356
1.97425
1.97179
1.9669
1.9587
1.94554
1.93178
1.92368
1.92065
1.92052
1.9246
1.92967
1.92955
1.92647
1.92013
1.90995
1.89707
1.88672
1.88045
1.87776
1.87729
1.88098
1.88805
1.89137
1.89005
1.88675
1.87977
1.86763
1.85146
1.83873
1.83181
1.8294
1.83015
1.83917
1.85894
1.89075
1.94037
1.98542
1.99821
1.98946
1.97971
1.97522
1.9749
1.97953
1.98252
1.98004
1.97515
1.96661
1.95369
1.94235
1.93703
1.93449
1.93548
1.94104
1.94427
1.94176
1.93652
1.92744
1.91331
1.8995
1.89275
1.88961
1.88823
1.89066
1.89613
1.89725
1.89434
1.88948
1.88116
1.86969
1.85949
1.85423
1.85207
1.85201
1.85494
1.85637
1.85416
1.85072
1.84424
1.83433
1.82567
1.82144
1.81906
1.81805
1.81813
1.81619
1.81343
1.81
1.80316
1.79485
1.78929
1.78689
1.78524
1.78511
1.78484
1.78219
1.77924
1.77579
1.7696
1.76286
1.75881
1.75687
1.75486
1.75272
1.75033
1.74725
1.74273
1.73751
1.73426
1.73192
1.72978
1.72814
1.72625
1.72403
1.72189
1.71947
1.71579
1.70935
1.70233
1.69887
1.69698
1.69502
1.693
1.69083
1.68835
1.68513
1.68044
1.67418
1.66906
1.66696
1.66545
1.6641
1.66299
1.66188
1.66035
1.65879
1.65692
1.65322
1.64644
1.63972
1.63659
1.63445
1.63241
1.63048
1.6286
1.6267
1.62469
1.62236
1.61917
1.61537
1.61228
1.60993
1.6077
1.60539
1.60298
1.60042
1.59742
1.59387
1.59098
1.58944
1.58798
1.58622
1.58396
1.58096
1.57708
1.5725
1.56781
1.56382
1.56159
1.56028
1.55905
1.55807
1.55696
1.55561
1.55432
1.55271
1.54934
1.4016
1.4022
1.4022
1.40126
1.39914
1.39433
1.3901
1.3899
1.39205
1.41155
1.49017
1.60804
1.64873
1.6585
1.6622
1.66524
1.66731
1.6695
1.66902
1.66546
1.66142
1.65596
1.6506
1.64887
1.64974
1.65025
1.65078
1.64956
1.64494
1.63918
1.63562
1.63413
1.63357
1.63379
1.63406
1.63296
1.6292
1.62422
1.62162
1.62114
1.62259
1.62422
1.62483
1.62419
1.62081
1.61453
1.6081
1.60379
1.60092
1.59796
1.59601
1.59526
1.59634
1.60012
1.61054
1.64495
1.75537
1.89841
2.00393
2.04263
2.03334
2.03248
2.03428
2.0308
2.02978
2.03054
2.03439
2.03365
2.02736
2.01682
2.00748
2.00053
1.99478
1.9891
1.98309
1.97784
1.97428
1.97197
1.97162
1.97341
1.97565
1.97478
1.97174
1.96609
1.95728
1.94495
1.93404
1.92762
1.92472
1.92445
1.92829
1.93223
1.93112
1.92732
1.91992
1.90883
1.89676
1.88884
1.88416
1.88138
1.88086
1.88453
1.89089
1.8926
1.89095
1.8871
1.87931
1.86565
1.84975
1.84097
1.83649
1.83356
1.83396
1.84238
1.86086
1.89073
1.93975
1.98583
2.00006
1.99156
1.98271
1.97858
1.97843
1.98273
1.98495
1.98222
1.97718
1.96862
1.95581
1.94445
1.93904
1.93671
1.93791
1.9436
1.94679
1.94439
1.93944
1.9306
1.91695
1.90257
1.8948
1.89141
1.89003
1.89257
1.89856
1.90026
1.89754
1.89261
1.88384
1.87091
1.86067
1.85628
1.85415
1.85356
1.85604
1.85819
1.85631
1.85343
1.84766
1.83814
1.82904
1.82433
1.82187
1.82084
1.82092
1.81913
1.8163
1.81297
1.80639
1.79789
1.79141
1.78867
1.78705
1.78693
1.78702
1.78474
1.78171
1.7782
1.77189
1.7647
1.75984
1.75783
1.75622
1.75449
1.75243
1.7499
1.74619
1.74086
1.73667
1.73418
1.73201
1.73018
1.72825
1.7259
1.72349
1.72093
1.71785
1.71222
1.70488
1.70017
1.69833
1.69658
1.69487
1.69309
1.69108
1.68874
1.68549
1.68009
1.67312
1.66881
1.66665
1.66494
1.66351
1.66242
1.66072
1.65874
1.65684
1.65436
1.64955
1.64339
1.63961
1.63748
1.63535
1.63303
1.63055
1.62809
1.62574
1.62323
1.62039
1.61737
1.61455
1.61214
1.60989
1.60754
1.60492
1.60186
1.59831
1.59476
1.59188
1.59026
1.58885
1.58739
1.5859
1.58425
1.58209
1.57858
1.57285
1.56659
1.56333
1.56187
1.56061
1.55942
1.55832
1.55714
1.55601
1.55489
1.55295
1.54891
1.40451
1.4046
1.40378
1.40175
1.39791
1.39242
1.38967
1.3899
1.39134
1.39559
1.42079
1.51273
1.60043
1.63568
1.65769
1.66936
1.67335
1.67334
1.66786
1.65933
1.65523
1.65204
1.65087
1.65242
1.65448
1.65485
1.65314
1.6476
1.6409
1.63674
1.63488
1.63425
1.63459
1.63534
1.63468
1.63154
1.62739
1.62454
1.62382
1.62443
1.62546
1.62579
1.62489
1.62127
1.61492
1.60855
1.60463
1.60209
1.60006
1.5987
1.5986
1.60029
1.6071
1.63076
1.7159
1.85384
1.98303
2.04315
2.05009
2.04004
2.02809
2.02445
2.0261
2.03382
2.03978
2.03639
2.03219
2.02701
2.0189
2.00896
2.00097
1.99465
1.98926
1.98445
1.98019
1.97707
1.97522
1.97519
1.97665
1.97728
1.97555
1.97218
1.96626
1.95736
1.94568
1.93553
1.92937
1.92725
1.92776
1.93152
1.93384
1.93222
1.92831
1.92099
1.90994
1.89811
1.8899
1.88535
1.88332
1.88372
1.88786
1.89276
1.89294
1.89133
1.88755
1.88018
1.86773
1.85292
1.84255
1.8368
1.83445
1.8358
1.84538
1.86271
1.89058
1.93886
1.98539
2.00161
1.99382
1.98596
1.98203
1.98212
1.98614
1.98758
1.98453
1.97915
1.97039
1.95769
1.94658
1.9413
1.93896
1.9401
1.94594
1.94954
1.94726
1.94222
1.93332
1.91938
1.90496
1.89768
1.89422
1.89254
1.89487
1.90102
1.90315
1.90057
1.89591
1.8876
1.87519
1.86364
1.85739
1.85489
1.85418
1.85673
1.85934
1.85777
1.85489
1.84934
1.84111
1.83225
1.82708
1.82472
1.82374
1.82413
1.82273
1.8198
1.81629
1.80984
1.80116
1.79414
1.79096
1.78914
1.78878
1.78919
1.78741
1.78453
1.78118
1.77489
1.76696
1.76106
1.75861
1.75688
1.75532
1.75349
1.7515
1.74885
1.74458
1.73973
1.73689
1.73475
1.73285
1.73077
1.72821
1.72561
1.72308
1.72018
1.7152
1.70792
1.70182
1.69939
1.69761
1.69589
1.69426
1.69245
1.69052
1.68828
1.68497
1.67962
1.67379
1.67002
1.66747
1.66522
1.66304
1.66102
1.6593
1.65784
1.65562
1.65159
1.64614
1.64166
1.63972
1.63798
1.63605
1.63378
1.63106
1.62799
1.62493
1.62207
1.61878
1.61543
1.61304
1.6112
1.60938
1.60735
1.60485
1.60155
1.59698
1.59256
1.59066
1.58946
1.58832
1.58718
1.58582
1.58416
1.5821
1.57902
1.57375
1.56797
1.56442
1.56218
1.56059
1.55925
1.55783
1.55626
1.55447
1.55249
1.54993
1.54631
1.40687
1.40625
1.40431
1.40045
1.39545
1.39208
1.3917
1.39208
1.3931
1.39433
1.39815
1.42835
1.51036
1.58353
1.64487
1.67127
1.67479
1.67266
1.66427
1.6568
1.65362
1.65204
1.65314
1.65666
1.65797
1.65672
1.65154
1.64387
1.63875
1.63655
1.63573
1.63613
1.63732
1.63691
1.63394
1.6301
1.62794
1.6264
1.62633
1.62677
1.62687
1.62573
1.62178
1.61496
1.60859
1.60503
1.60288
1.60199
1.60142
1.6023
1.60654
1.62217
1.6813
1.81632
1.95353
2.03874
2.05032
2.04122
2.04025
2.03604
2.03238
2.03121
2.03235
2.0393
2.04012
2.03506
2.02636
2.01727
2.00866
2.00209
1.99645
1.99119
1.98697
1.98381
1.98098
1.97923
1.97886
1.97932
1.9787
1.97658
1.97255
1.96586
1.95668
1.94648
1.93832
1.93319
1.93093
1.93141
1.93441
1.93501
1.93304
1.92856
1.92086
1.91015
1.89999
1.893
1.88907
1.88689
1.88733
1.89115
1.89464
1.89382
1.89173
1.8873
1.87906
1.86561
1.85267
1.84602
1.84195
1.83908
1.84016
1.84914
1.8648
1.89049
1.93799
1.98517
2.00211
1.99518
1.98886
1.98545
1.986
1.98978
1.99047
1.98717
1.9815
1.9723
1.95932
1.94853
1.94326
1.94094
1.94211
1.94784
1.9514
1.94924
1.94475
1.9365
1.92287
1.90813
1.89984
1.8962
1.89475
1.89732
1.90368
1.90602
1.90352
1.89889
1.89061
1.87813
1.86657
1.8609
1.85811
1.85683
1.85848
1.86065
1.85904
1.85625
1.85073
1.84186
1.83327
1.82904
1.82703
1.82628
1.82719
1.82644
1.8237
1.82028
1.81397
1.80474
1.79709
1.79335
1.79141
1.79083
1.79137
1.78993
1.78723
1.78416
1.77836
1.77022
1.76334
1.75995
1.75791
1.75628
1.75437
1.75226
1.74989
1.74659
1.74213
1.73905
1.73702
1.73526
1.73346
1.73114
1.72846
1.72552
1.72218
1.71769
1.71097
1.70421
1.70081
1.69897
1.69719
1.69542
1.6935
1.6914
1.68913
1.68648
1.68298
1.6784
1.67413
1.67112
1.66859
1.66608
1.66346
1.66066
1.65779
1.65479
1.65124
1.64706
1.64309
1.64138
1.63994
1.63842
1.63681
1.63487
1.63231
1.62886
1.62451
1.61996
1.61662
1.6144
1.61264
1.61093
1.6092
1.60729
1.60478
1.60106
1.59611
1.5922
1.59028
1.58883
1.58749
1.58623
1.58504
1.5836
1.58198
1.5791
1.57412
1.56922
1.56605
1.56359
1.56128
1.55925
1.55762
1.55615
1.5545
1.55195
1.54839
1.54455
1.40863
1.40693
1.40318
1.39801
1.39467
1.39432
1.39512
1.39585
1.3959
1.39508
1.39202
1.39547
1.42709
1.49819
1.60273
1.66376
1.66956
1.66578
1.65781
1.65379
1.65369
1.65427
1.65764
1.65929
1.65854
1.65511
1.64788
1.64167
1.6392
1.63862
1.63887
1.6399
1.63955
1.63633
1.63248
1.63057
1.62912
1.62807
1.62817
1.62818
1.62696
1.62286
1.61525
1.60849
1.60505
1.60365
1.60303
1.60381
1.60693
1.61767
1.66055
1.77435
1.91715
2.02698
2.05727
2.05367
2.04436
2.03617
2.03512
2.0396
2.04583
2.04382
2.03964
2.03684
2.03374
2.02793
2.01879
2.00974
2.00226
1.99733
1.99366
1.99009
1.98704
1.98445
1.9827
1.98188
1.98133
1.97968
1.97716
1.97273
1.96608
1.95723
1.94803
1.94059
1.93622
1.93435
1.93496
1.93669
1.93595
1.93353
1.92869
1.92112
1.91117
1.90188
1.89514
1.89186
1.89019
1.89096
1.89404
1.89568
1.89418
1.89195