/*--------------------------------*- C++ -*----------------------------------*\
  =========                 |
  \\      /  F ield         | OpenFOAM: The Open Source CFD Toolbox
   \\    /   O peration     | Website:  https://openfoam.org
    \\  /    A nd           | Version:  7
     \\/     M anipulation  |
\*---------------------------------------------------------------------------*/
FoamFile
{
    version     2.0;
    format      ascii;
    class       volScalarField;
    location    "0.4";
    object      p;
}
// * * * * * * * * * * * * * * * * * * * * * * * * * * * * * * * * * * * * * //

dimensions      [1 -1 -2 0 0 0 0];

internalField   nonuniform List<scalar> 
4048
(
1
1
1
1
1
1
1
1
1
1
1
1
1
1
1
1
1
1
4.37109
10.9795
11.5081
11.6327
11.8241
12.0302
1
1
1
1
1
1
1
1
1
1
1
1
1
1
1
1
1
1
4.13148
10.7163
11.4025
11.5284
11.6884
11.8021
1
1
1
1
1
1
1
1
1
1
1
1
1
1
1
1
1
1
3.53768
10.1896
11.1694
11.2344
11.3485
11.5141
1
1
1
1
1
1
1
1
1
1
1
1
1
1
1
1
1
1
2.66399
9.35073
10.9262
11.0041
11.1099
11.376
1
1
1
1
1
1
1
1
1
1
1
1
1
1
1
1
1
1
1.58857
8.0551
10.7061
10.6403
10.2111
9.211
1
1
1
1
1
1
1
1
1
1
1
1
1
1
1
1
1
1
1.04067
6.1079
10.2073
10.0894
9.63819
9.09176
1
1
1
1
1
1
1
1
1
1
1
1
1
1
1
1
1
1
1.00026
3.57123
9.3198
9.80967
9.41897
8.97534
1
1
1
1
1
1
1
1
1
1
1
1
1
1
1
1
1
1
1
1.43245
7.55971
9.60573
9.20497
8.95207
1
1
1
1
1
1
1
1
1
1
1
1
1
1
1
1
1
1
1
1.0142
4.7876
8.86076
8.97783
8.9041
1
1
1
1
1
1
1
1
1
1
1
1
1
1
1
1
1
1
1
1.00001
1.81926
7.62071
8.94524
8.78843
1
1
1
1
1
1
1
1
1
1
1
1
1
1
1
1
1
1
1
1
1.04568
4.77964
8.38782
8.55824
1
1
1
1
1
1
1
1
1
1
1
1
1
1
1
1
1
1
1
1
1.00019
1.78451
7.05754
8.52519
1
1
1
1
1
1
1
1
1
1
1
1
1
1
1
1
1
1
1
1
1
1.03972
3.77969
7.8348
1
1
1
1
1
1
1
1
1
1
1
1
1
1
1
1
1
1
1
1
1
1.00024
1.41752
5.88929
1
1
1
1
1
1
1
1
1
1
1
1
1
1
1
1
1
1
1
1
1
1
1.01118
2.50626
1
1
1
1
1
1
1
1
1
1
1
1
1
1
1
1
1
1
1
1
1
1
1.00004
1.1281
1
1
1
1
1
1
1
1
1
1
1
1
1
1
1
1
1
1
1
1
1
1
1
1.00169
1
1
1
1
1
1
1
1
1
1
1
1
1
1
1
1
1
1
1
1
1
1
1
1
1
1
1
1
1
1
1
1
1
1
1
1
1
1
1
1
1
1
1
1
1
1
1
1
1
1
1
1
1
1
1
1
1
1
1
1
1
1
1
1
1
1
1
1
1
1
1
1
1
1
1
1
1
1
1
1
1
1
1
1
1
1
1
1
1
1
1
1
1
1
1
1
1
1
1
1
1
1
1
1
1
1
1
1
1
1
1
1
1
1
1
1
1
1
1
1
1
1
1
1
1
1
1
1
1
1
1
1
1
1
1
1
1
1
1
1
1
1
1
1
1
1
1
1
1
1
1
1
1
1
1
1
1
1
1
1
1
1
1
1
1
1
1
1
1
1
1
1
1
1
1
1
1
1
1
1
1
1
1
1
1
1
1
1
1
1
1
1
1
1
1
1
1
1
1
1
1
1
1
1
1
1
1
1
1
1
1
1
1
1
1
1
1
1
1
1
1
1
1
1
1
1
1
1
1
1
1
1
1
1
1
1
1
1
1
1
1
1
1
1
1
1
1
1
1
1
1
1
1
1
1
1
1
1
1
1
1
1
1
1
1
1
1
1
1
1
1
1
1
1
1
1
1
1
1
1
1
1
1
1
1
1
1
1
1
1
1
1
1
1
1
1
1
1
1
1
1
1
1
1
1
1
1
1
1
1
1
1
1
1
1
1
1
1
1
1
1
1
1
1
1
1
1
1
1
1
1
1
1
1
1
1
1
1
1
1
1
1
1
1
1
1
1
1
1
1
1
1
1
1
1
1
1
1
1
1
1
1
1
1
1
1
1
1
1
1
1
1
1
1
1
1
1
1
1
1
1
1
1
1
1
1
1
1
1
1
1
1
1
1
1
1
1
1
1
1
1
1
1
1
1
1
1
1
1
1
1
1
1
1
1
1
1
1
1
1
1
1
1
1
1
1
1
1
1
1
1
1
1
1
1
1
1
1
1
1
1
1
1
1
1
1
1
1
1
1
1
1
1
1
1
1
1
1
1
1
1
1
1
1
1
1
1
1
1
1
1
1
1
1
1
1
1
1
1
1
1
1
1
1
1
1
1
1
1
1
1
1
1
1
1
1
1
1
1
1
1
1
1
1
1
1
1
1
1
1
1
1
1
1
1
1
1
1
1
1
1
1
1
1
1
1
1
1
1
1
1
1
1
1
1
1
1
1
1
1
1
1
1
1
1
1
1
1
1
1
1
1
6.70265
7.96572
8.46338
8.88024
8.65001
9.17257
8.93531
8.99429
8.70498
8.82097
8.65476
8.77878
8.81102
8.84388
8.80187
9.02946
8.77173
8.62734
8.14193
6.65239
8.67848
8.35415
7.6634
6.32835
8.5195
8.15716
7.37048
6.24403
8.34625
8.04121
7.29221
6.29719
8.17914
7.89777
7.27154
6.39503
8.03226
7.77063
7.19415
6.48541
7.00353
7.77471
7.1531
6.56841
4.04405
7.26044
7.07726
6.57601
1.53509
5.26231
6.95948
6.64748
1.01881
2.21441
5.73457
6.63129
1.00011
1.08685
2.85213
5.84568
1
1.00106
1.20914
3.29919
1
1
1.00425
1.34107
1
1
1.00001
1.00955
1
1
1
1.00005
1
1
1
1
1
1
1
1
1
1
1
1
1
1
1
1
1
1
1
1
1
1
1
1
1
1
1
1
1
1
1
1
1
1
1
1
1
1
1
1
1
1
1
1
1
1
1
1
1
1
1
1
1
1
1
1
1
1
1
1
1
1
1
1
1
1
1
1
2.03194
0.95165
0.63231
0.525752
0.544444
0.660328
0.796266
0.920346
1.04729
1.06001
1.05139
1.03799
0.994213
0.92993
0.869622
0.830989
0.816526
0.803839
0.810568
0.794839
0.7814
0.780686
0.782455
0.795268
0.811089
0.819837
0.817013
0.816378
0.842882
0.877427
0.8912
0.907764
0.924434
0.920095
0.923732
0.929829
0.931919
0.936685
0.951958
0.97506
0.987513
0.976198
0.963456
0.990366
1.03615
1.03653
1.0242
1.00523
0.990613
0.988046
0.987582
0.992606
1.01874
1.04689
1.05181
1.05172
1.05099
1.04948
1.04652
1.04034
1.02777
1.00982
1.00084
1.00001
1
1
1
1
1
1
1
1
1
1
1
1
1
1
1
1
1
1
1
1
1
1
1
1
1
1
1
1
3.17535
1.90491
1.47633
1.16838
0.956289
0.907497
0.889201
0.89411
0.927899
0.940939
0.945654
0.945633
0.921392
0.886327
0.853055
0.830083
0.815827
0.799377
0.79686
0.782111
0.774208
0.779355
0.78437
0.797887
0.816504
0.829025
0.829103
0.827788
0.848244
0.868138
0.877137
0.892302
0.912008
0.914543
0.918574
0.922756
0.922232
0.923768
0.935562
0.952869
0.963719
0.963306
0.964672
0.997234
1.02861
1.02262
1.01231
0.997966
0.989555
0.987365
0.986566
0.991299
1.01569
1.0447
1.05152
1.05155
1.05099
1.04971
1.04721
1.04169
1.02801
1.00895
1.00063
1
1
1
1
1
1
1
1
1
1
1
1
1
1
1
1
1
1
1
1
1
1
1
1
1
1
1
1
1
4.04287
2.64749
1.96154
1.57395
1.25623
1.04413
0.985037
0.906951
0.849489
0.858549
0.884404
0.916405
0.915884
0.893878
0.862435
0.842287
0.830342
0.814715
0.802379
0.790256
0.783449
0.785211
0.789172
0.801993
0.822003
0.833885
0.834437
0.833918
0.850713
0.863111
0.871268
0.883545
0.897832
0.91805
0.932121
0.942528
0.9474
0.952129
0.960221
0.964539
0.95711
0.951203
0.97695
1.0256
1.02582
1.01224
1.00407
0.994259
0.991684
0.991394
0.992252
1.00041
1.02502
1.04736
1.05146
1.05168
1.05177
1.05118
1.04861
1.04147
1.02584
1.00688
1.00034
1
1
1
1
1
1
1
1
1
1
1
1
1
1
1
1
1
1
1
1
1
1
1
1
1
1
1
1
1
4.61691
3.34586
2.51779
2.05415
1.67663
1.34758
1.21247
1.12186
1.00111
0.90239
0.892341
0.895435
0.867483
0.829215
0.817453
0.823208
0.825033
0.809096
0.788199
0.780058
0.773959
0.770744
0.777216
0.789843
0.816569
0.841073
0.853336
0.856111
0.860866
0.863364
0.868169
0.875246
0.891907
0.911966
0.928518
0.939751
0.947841
0.95805
0.963881
0.954291
0.939285
0.952072
1.01186
1.04229
1.0257
1.01145
0.995358
0.987449
0.986028
0.985745
0.990284
1.00784
1.03545
1.05093
1.05267
1.05297
1.0532
1.05291
1.05048
1.04178
1.02254
1.00425
1.00012
1
1
1
1
1
1
1
1
1
1
1
1
1
1
1
1
1
1
1
1
1
1
1
1
1
1
1
1
1
5.0554
3.94152
3.06623
2.50994
2.08647
1.72279
1.46956
1.31535
1.1415
0.966563
0.914103
0.909217
0.867489
0.803587
0.804839
0.8198
0.827762
0.812413
0.784495
0.767889
0.757092
0.754441
0.760565
0.774389
0.804157
0.843023
0.871693
0.880818
0.87776
0.874932
0.86923
0.866755
0.877615
0.891952
0.905828
0.918525
0.932636
0.946445
0.945711
0.932729
0.940636
1.00062
1.05145
1.03834
1.02172
1.00616
0.988732
0.986153
0.986698
0.988225
0.997214
1.01884
1.04531
1.05571
1.05641
1.05664
1.05672
1.0558
1.05137
1.03908
1.01659
1.00187
1.00002
1
1
1
1
1
1
1
1
1
1
1
1
1
1
1
1
1
1
1
1
1
1
1
1
1
1
1
1
1
5.38849
4.36041
3.54854
2.97211
2.49619
2.04523
1.75434
1.56305
1.39278
1.16613
1.03387
1.01684
0.966137
0.888326
0.846904
0.851421
0.849171
0.810074
0.76413
0.748215
0.742287
0.737709
0.741697
0.752876
0.77559
0.810911
0.843859
0.860199
0.864042
0.866155
0.867197
0.870354
0.882197
0.899294
0.916486
0.932235
0.947274
0.95657
0.955744
0.965878
1.01447
1.05727
1.04117
1.02166
1.00779
0.987089
0.978907
0.979235
0.981978
0.992534
1.00812
1.02793
1.04999
1.05981
1.06102
1.06161
1.06188
1.0606
1.05361
1.03416
1.00923
1.00045
1
1
1
1
1
1
1
1
1
1
1
1
1
1
1
1
1
1
1
1
1
1
1
1
1
1
1
1
1
1
5.66356
4.77305
3.94558
3.33634
2.87886
2.43851
2.05357
1.81105
1.60785
1.3826
1.21252
1.15446
1.08795
0.982162
0.882393
0.878565
0.872393
0.825647
0.766238
0.749604
0.754044
0.74973
0.74021
0.742334
0.751885
0.77719
0.808712
0.830117
0.839149
0.841715
0.844848
0.854466
0.87447
0.903246
0.940989
0.976359
0.995542
0.997395
0.999852
1.03669
1.07132
1.04787
1.02231
1.00675
0.985551
0.967791
0.966127
0.968371
0.977574
1.00031
1.02355
1.04038
1.05664
1.06534
1.06661
1.06724
1.06746
1.06527
1.05232
1.02421
1.00319
1.00005
1
1
1
1
1
1
1
1
1
1
1
1
1
1
1
1
1
1
1
1
1
1
1
1
1
1
1
1
1
1
5.85299
5.07405
4.28873
3.70374
3.22764
2.7515
2.36379
2.11373
1.89705
1.6288
1.38047
1.30575
1.23518
1.12863
0.992882
0.955039
0.937907
0.885742
0.815767
0.793665
0.801272
0.793971
0.76354
0.742639
0.744002
0.759821
0.783464
0.793222
0.798344
0.801745
0.806744
0.816749
0.837982
0.876379
0.921884
0.95619
0.969218
0.969567
0.982907
1.01516
1.03817
1.02498
1.00958
0.988873
0.960633
0.953361
0.95429
0.959769
0.974598
0.998865
1.02666
1.05231
1.07116
1.07672
1.07769
1.07827
1.07753
1.069
1.04284
1.01066
1.00044
1
1
1
1
1
1
1
1
1
1
1
1
1
1
1
1
1
1
1
1
1
1
1
1
1
1
1
1
1
1
1
5.97007
5.27863
4.57961
3.95965
3.51436
3.0847
2.64888
2.34614
2.13763
1.89092
1.63782
1.50272
1.4004
1.26837
1.1046
1.06049
1.03202
0.980796
0.881533
0.829724
0.832515
0.821308
0.785795
0.752479
0.750228
0.761688
0.778492
0.786581
0.788571
0.787484
0.78359
0.785383
0.804573
0.832102
0.856246
0.879933
0.893122
0.899871
0.926083
0.975336
0.975631
0.964535
0.952174
0.931297
0.923999
0.927598
0.938865
0.963446
0.9902
1.00727
1.02906
1.06143
1.08539
1.09029
1.09181
1.09245
1.08847
1.06435
1.02296
1.00182
1.00001
1
1
1
1
1
1
1
1
1
1
1
1
1
1
1
1
1
1
1
1
1
1
1
1
1
1
1
1
1
1
1
6.18195
5.51247
4.84373
4.22901
3.76412
3.34276
2.91194
2.60496
2.36061
2.08983
1.8273
1.69827
1.59094
1.44924
1.25488
1.1632
1.1369
1.08451
0.989733
0.925682
0.911307
0.888793
0.834297
0.795592
0.795103
0.806966
0.807057
0.794431
0.780619
0.768823
0.75927
0.761911
0.777283
0.784946
0.786527
0.787998
0.791651
0.809731
0.861323
0.89193
0.892406
0.891757
0.89039
0.891346
0.896201
0.905322
0.925343
0.956102
0.99238
1.02608
1.05978
1.09546
1.11024
1.11287
1.11411
1.11168
1.0872
1.038
1.00442
1.00005
1
1
1
1
1
1
1
1
1
1
1
1
1
1
1
1
1
1
1
1
1
1
1
1
1
1
1
1
1
1
1
1
6.18688
5.77271
5.14288
4.51543
4.00815
3.58809
3.16471
2.8155
2.5698
2.31512
2.0317
1.86233
1.75224
1.61259
1.40827
1.30969
1.26569
1.20092
1.08807
1.01872
1.00112
0.973513
0.916303
0.86007
0.848943
0.847021
0.831997
0.801688
0.781724
0.770196
0.768562
0.773833
0.774601
0.764719
0.751435
0.745302
0.757934
0.792697
0.826374
0.844475
0.856334
0.868531
0.881733
0.895352
0.909917
0.922532
0.936186
0.9579
0.989934
1.03768
1.09894
1.13586
1.14292
1.14503
1.14324
1.11459
1.05345
1.0072
1.00011
1
1
1
1
1
1
1
1
1
1
1
1
1
1
1
1
1
1
1
1
1
1
1
1
1
1
1
1
1
1
1
1
1
5.6254
5.79605
5.45476
4.84116
4.27666
3.8285
3.40215
3.04183
2.78181
2.52614
2.23561
2.0443
1.92514
1.78095
1.56479
1.43399
1.3965
1.33921
1.2274
1.12597
1.09082
1.05631
1.00126
0.950353
0.936351
0.922173
0.890334
0.856772
0.837215
0.829447
0.828757
0.818373
0.799439
0.783024
0.7705
0.762295
0.764209
0.788744
0.817179
0.830855
0.841136
0.852701
0.865902
0.881652
0.903883
0.935893
0.967603
0.999837
1.04405
1.11183
1.1707
1.18573
1.18866
1.18538
1.14623
1.06673
1.00874
1.00013
1
1
1
1
1
1
1
1
1
1
1
1
1
1
1
1
1
1
1
1
1
1
1
1
1
1
1
1
1
1
1
1
1
1
3.4418
5.30931
5.48503
5.20514
4.61559
4.09794
3.64558
3.25552
2.98703
2.7434
2.45364
2.22772
2.09998
1.96062
1.7477
1.58557
1.54088
1.4806
1.36161
1.23434
1.19069
1.15937
1.10801
1.0508
1.02239
0.993878
0.954776
0.92701
0.911853
0.912525
0.897218
0.862104
0.832629
0.816552
0.808395
0.812853
0.832757
0.836675
0.834176
0.840272
0.85044
0.861633
0.873398
0.888359
0.909898
0.93966
0.985218
1.04824
1.13271
1.21617
1.24441
1.24796
1.23907
1.17856
1.07309
1.00808
1.0001
1
1
1
1
1
1
1
1
1
1
1
1
1
1
1
1
1
1
1
1
1
1
1
1
1
1
1
1
1
1
1
1
1
1
1
1.42879
3.31881
5.01379
5.19356
4.97429
4.45938
3.94067
3.49037
3.17552
2.94377
2.68033
2.42327
2.27385
2.14475
1.95146
1.75773
1.6932
1.62768
1.50328
1.34464
1.29208
1.27311
1.23008
1.16887
1.12383
1.07859
1.03746
1.01234
1.00486
1.00921
0.980841
0.938224
0.90906
0.894432
0.888572
0.895781
0.90704
0.898494
0.895864
0.901279
0.912798
0.926839
0.943089
0.964137
0.99299
1.034
1.09568
1.18543
1.27908
1.31849
1.32327
1.29626
1.20351
1.06994
1.00573
1.00005
1
1
1
1
1
1
1
1
1
1
1
1
1
1
1
1
1
1
1
1
1
1
1
1
1
1
1
1
1
1
1
1
1
1
1
1
1.01464
1.4266
3.06904
4.709
4.85703
4.70242
4.3047
3.83413
3.41906
3.12413
2.89282
2.63891
2.44639
2.32667
2.16857
1.95297
1.8447
1.77171
1.64572
1.47338
1.41464
1.4029
1.36407
1.29474
1.23017
1.17291
1.13581
1.11606
1.11514
1.10391
1.0629
1.01516
0.989663
0.98068
0.982814
0.984868
0.969751
0.954323
0.949701
0.952369
0.962292
0.980203
1.00697
1.04435
1.09612
1.1696
1.26969
1.36673
1.40356
1.40026
1.34406
1.21309
1.05689
1.00309
1.00001
1
1
1
1
1
1
1
1
1
1
1
1
1
1
1
1
1
1
1
1
1
1
1
1
1
1
1
1
1
1
1
1
1
1
1
1
1
1.00009
1.01552
1.35133
2.80492
4.20381
4.48325
4.46562
4.2175
3.80751
3.40649
3.11245
2.87811
2.63161
2.47509
2.35837
2.16705
1.98926
1.90697
1.79805
1.62289
1.55791
1.54422
1.50376
1.42337
1.338
1.27777
1.24812
1.2367
1.22923
1.19235
1.13911
1.09664
1.0754
1.06764
1.06599
1.06527
1.06375
1.06465
1.07032
1.07988
1.09505
1.11906
1.1558
1.21057
1.29116
1.39442
1.47339
1.4917
1.46794
1.37585
1.19832
1.03772
1.00123
1
1
1
1
1
1
1
1
1
1
1
1
1
1
1
1
1
1
1
1
1
1
1
1
1
1
1
1
1
1
1
1
1
1
1
1
1
1
1
1
1.0001
1.01183
1.26436
2.36459
3.58905
4.21304
4.25462
4.08747
3.78814
3.43754
3.15944
2.89891
2.63697
2.49199
2.3571
2.14079
2.01192
1.93396
1.78734
1.69818
1.67458
1.62903
1.53666
1.43675
1.38666
1.36523
1.35949
1.32652
1.26908
1.21409
1.18176
1.1665
1.16182
1.16049
1.16106
1.16665
1.17702
1.19217
1.21457
1.24745
1.29532
1.36388
1.45334
1.54053
1.57744
1.56976
1.50913
1.37356
1.15434
1.01901
1.00034
1
1
1
1
1
1
1
1
1
1
1
1
1
1
1
1
1
1
1
1
1
1
1
1
1
1
1
1
1
1
1
1
1
1
1
1
1
1
1
1
1
1
1.00007
1.00718
1.15654
1.84345
3.01772
3.93891
3.95423
3.80491
3.70937
3.52139
3.2631
2.96233
2.68903
2.53357
2.34482
2.12812
2.04724
1.9495
1.82944
1.78298
1.73229
1.63281
1.53534
1.4996
1.4868
1.46863
1.41317
1.3502
1.3074
1.28367
1.27316
1.27343
1.28264
1.29807
1.31751
1.34298
1.37675
1.42257
1.48362
1.55874
1.63069
1.66419
1.65909
1.61297
1.51681
1.32214
1.0923
1.00653
1.00006
1
1
1
1
1
1
1
1
1
1
1
1
1
1
1
1
1
1
1
1
1
1
1
1
1
1
1
1
1
1
1
1
1
1
1
1
1
1
1
1
1
1
1
1
1.00003
1.00297
1.06466
1.45003
2.53054
3.33493
3.589
3.63697
3.61988
3.52238
3.32144
3.04176
2.81108
2.62392
2.37654
2.21855
2.138
2.0139
1.92031
1.85345
1.74694
1.66232
1.6349
1.62544
1.5885
1.52028
1.47044
1.44148
1.42611
1.42593
1.44313
1.47046
1.5043
1.5445
1.59204
1.64764
1.70573
1.7488
1.76087
1.74438
1.69727
1.62335
1.46778
1.21469
1.03732
1.00136
1.00001
1
1
1
1
1
1
1
1
1
1
1
1
1
1
1
1
1
1
1
1
1
1
1
1
1
1
1
1
1
1
1
1
1
1
1
1
1
1
1
1
1
1
1
1
1
1
1.00001
1.00077
1.02143
1.22864
1.91983
2.64084
3.15292
3.42991
3.44779
3.34192
3.2017
3.08916
2.95598
2.756
2.53588
2.42409
2.30697
2.16545
2.06208
1.94236
1.85995
1.83806
1.8225
1.76654
1.70724
1.68029
1.66324
1.66369
1.68606
1.72351
1.76629
1.80903
1.84621
1.87071
1.87617
1.86031
1.82449
1.77649
1.70701
1.56747
1.32792
1.09629
1.00887
1.00015
1
1
1
1
1
1
1
1
1
1
1
1
1
1
1
1
1
1
1
1
1
1
1
1
1
1
1
1
1
1
1
1
1
1
1
1
1
1
1
1
1
1
1
1
1
1
1
1
1
1
1.00016
1.00638
1.08638
1.35633
1.89645
2.57572
3.03259
3.14783
3.12643
3.07682
3.00183
2.91778
2.80367
2.72491
2.64613
2.51186
2.38058
2.25639
2.18946
2.16506
2.13173
2.06436
2.02222
2.00383
1.99562
2.00084
2.01741
2.02845
2.02604
2.01086
1.98546
1.94945
1.90565
1.853
1.7693
1.62232
1.39128
1.14927
1.02394
1.00106
1.00001
1
1
1
1
1
1
1
1
1
1
1
1
1
1
1
1
1
1
1
1
1
1
1
1
1
1
1
1
1
1
1
1
1
1
1
1
1
1
1
1
1
1
1
1
1
1
1
1
1
1
1
1
1.00003
1.00118
1.01358
1.0885
1.36381
1.85316
2.36213
2.69873
2.84347
2.90066
2.85625
2.78838
2.752
2.70886
2.62451
2.51354
2.44384
2.41686
2.38765
2.33842
2.28546
2.24294
2.20568
2.17591
2.15229
2.12721
2.09833
2.06487
2.0267
1.97794
1.90575
1.79439
1.62011
1.3872
1.1613
1.03444
1.00272
1.00005
1
1
1
1
1
1
1
1
1
1
1
1
1
1
1
1
1
1
1
1
1
1
1
1
1
1
1
1
1
1
1
1
1
1
1
1
1
1
1
1
1
1
1
1
1
1
1
1
1
1
1
1
1
1
1
1
1.00006
1.00127
1.015
1.08737
1.29743
1.63157
2.00453
2.32594
2.51527
2.59619
2.62599
2.62536
2.58819
2.49643
2.43761
2.41883
2.39278
2.34574
2.29958
2.25936
2.22164
2.18718
2.15114
2.10988
2.05805
1.98689
1.88236
1.72965
1.52954
1.30796
1.12531
1.02956
1.00317
1.00011
1
1
1
1
1
1
1
1
1
1
1
1
1
1
1
1
1
1
1
1
1
1
1
1
1
1
1
1
1
1
1
1
1
1
1
1
1
1
1
1
1
1
1
1
1
1
1
1
1
1
1
1
1
1
1
1
1
1
1
1
1.00008
1.00128
1.01101
1.0505
1.1579
1.35549
1.60596
1.84396
2.02437
2.15998
2.24029
2.25793
2.25795
2.26103
2.24758
2.21463
2.17367
2.12931
2.07702
2.01209
1.92972
1.82336
1.68609
1.51819
1.33599
1.17368
1.06437
1.0149
1.00181
1.00009
1
1
1
1
1
1
1
1
1
1
1
1
1
1
1
1
1
1
1
1
1
1
1
1
1
1
1
1
1
1
1
1
1
1
1
1
1
1
1
1
1
1
1
1
1
1
1
1
1
1
1
1
1
1
1
1
1
1
1
1
1
1
1
1
1.00004
1.0005
1.0036
1.01664
1.05234
1.11904
1.21021
1.3193
1.43711
1.54311
1.61355
1.64772
1.65044
1.63843
1.6099
1.56411
1.4999
1.41694
1.31896
1.21583
1.12285
1.05513
1.01802
1.00386
1.00047
1.00003
1
1
1
1
1
1
1
1
1
1
1
1
1
1
1
1
1
1
1
1
1
1
1
1
1
1
1
1
1
1
1
1
1
1
1
1
1
1
1
1
1
1
1
1
1
1
1
1
1
1
1
1
1
1
1
1
1
1
1
1
1
1
1
1
1
1
1
1
1.00001
1.00008
1.00051
1.00209
1.00613
1.01454
1.0298
1.05129
1.07247
1.08448
1.08601
1.08431
1.07773
1.06555
1.04935
1.03193
1.01691
1.00692
1.00203
1.00039
1.00005
1
1
1
1
1
1
1
1
1
1
1
1
1
1
1
1
1
1
1
1
1
1
1
1
1
1
1
1
1
1
1
1
1
1
1
1
1
1
1
1
1
1
1
1
1
1
1
1
1
1
1
1
1
1
1
1
1
1
1
1
1
1
1
1
1
1
1
1
1
1
1
1
1
1
1
1.00001
1.00006
1.0002
1.0005
1.00093
1.0012
1.00123
1.00119
1.00102
1.00074
1.00043
1.00019
1.00006
1.00001
1
1
1
1
1
1
1
1
1
1
1
1
1
1
1
1
1
1
1
1
1
1
1
1
1
1
1
1
1
1
1
1
1
1
1
1
1
1
1
1
1
1
1
1
1
1
1
1
1
1
1
1
1
1
1
1
1
1
1
1
1
1
1
1
1
1
1
1
1
1
1
1
1
1
1
1
1
1
1
1
1
1
1
1
1
1
1
1
1
1
1
1
1
1
1
1
1
1
1
1
1
1
1
1
1
1
1
1
1
1
1
1
1
1
1
1
1
1
1
1
1
1
1
1
1
1
1
1
1
1
1
1
1
1
1
1
1
1
1
1
1
1
1
1
1
1
1
1
1
1
1
1
1
1
1
1
1
1
1
1
1
1
1
1
1
1
1
1
1
1
1
1
1
1
1
1
1
1
1
1
1
1
1
1
1
1
1
1
1
1
1
1
1
1
1
1
1
1
1
1
1
1
1
1
1
1
1
1
1
1
1
1
1
1
1
1
1
1
1
1
1
1
1
1
1
1
1
1
1
1
1
1
1
1
1
1
1
1
1
1
1
1
1
1
1
1
1
1
1
1
1
1
1
1
1
1
1
1
1
1
1
1
1
1
1
1
1
1
1
1
1
1
1
1
1
1
1
1
1
1
1
1
1
1
1
1
1
1
1
1
1
1
1
1
1
1
1
1
1
1
1
1
1
1
1
1
1
1
1
1
1
1
1
1
1
1
1
1
1
1
1
1
1
1
1
1
1
1
1
1
1
1
1
1
1
1
1
1
1
1
1
1
1
1
1
1
1
1
1
1
1
1
1
1
1
1
1
1
1
1
1
1
1
1
1
1
1
1
1
1
1
1
1
1
1
1
1
1
1
1
1
1
1
1
1
1
1
1
1
1
1
1
1
1
1
1
1
1
1
1
1
1
1
1
1
1
1
1
1
1
1
1
1
1
1
1
1
1
1
1
1
1
1
1
1
1
1
1
1
1
1
1
1
1
1
1
1
1
1
1
1
1
1
1
1
1
1
1
1
1
1
1
1
1
1
1
1
1
1
1
1
1
1
1
1
1
1
1
1
1
1
1
1
1
1
1
1
1
1
1
1
1
1
1
1
1
1
1
1
1
1
1
1
1
1
1
1
1
1
1
1
1
1
1
1
1
1
1
1
1
1
1
1
1
1
1
1
1
1
)
;

boundaryField
{
    inlet
    {
        type            fixedValue;
        value           uniform 1;
    }
    outlet
    {
        type            zeroGradient;
    }
    bottom
    {
        type            zeroGradient;
    }
    top
    {
        type            zeroGradient;
    }
    obstacle
    {
        type            zeroGradient;
    }
    defaultFaces
    {
        type            empty;
    }
}


// ************************************************************************* //
