/*--------------------------------*- C++ -*----------------------------------*\
  =========                 |
  \\      /  F ield         | OpenFOAM: The Open Source CFD Toolbox
   \\    /   O peration     | Website:  https://openfoam.org
    \\  /    A nd           | Version:  7
     \\/     M anipulation  |
\*---------------------------------------------------------------------------*/
FoamFile
{
    version     2.0;
    format      ascii;
    class       volVectorField;
    location    "0.6";
    object      U;
}
// * * * * * * * * * * * * * * * * * * * * * * * * * * * * * * * * * * * * * //

dimensions      [0 1 -1 0 0 0 0];

internalField   nonuniform List<vector> 
16192
(
(2.57166 -0.0174479 0)
(2.59592 -0.0138209 0)
(2.62151 -0.0116537 0)
(2.65406 -0.0116957 0)
(2.68405 -0.0114614 0)
(2.70636 -0.0111113 0)
(2.72078 -0.0104703 0)
(2.73399 -0.00993491 0)
(2.74519 -0.00964803 0)
(2.75554 -0.00961586 0)
(2.76557 -0.00968802 0)
(2.77566 -0.00958473 0)
(2.78641 -0.00950225 0)
(2.7984 -0.00944558 0)
(2.8082 -0.00909695 0)
(2.81843 -0.00846698 0)
(2.82907 -0.00786924 0)
(2.83955 -0.00734652 0)
(2.8556 -0.00878156 0)
(2.86953 -0.00819867 0)
(2.8797 -0.00649235 0)
(2.88948 -0.00610902 0)
(2.89732 -0.00594508 0)
(2.90353 -0.00377412 0)
(2.90741 -0.00221586 0)
(2.90936 -0.00171749 0)
(2.91152 -0.00201787 0)
(2.91616 -0.00166338 0)
(2.92419 -0.00116426 0)
(2.93677 -0.00456248 0)
(2.95638 -0.013498 0)
(2.98594 -0.0235115 0)
(3.02424 -0.0271588 0)
(3.05801 -0.0215664 0)
(3.08973 -0.0151662 0)
(3.12458 -0.011801 0)
(3.14056 -0.0121216 0)
(3.14752 -0.0115833 0)
(3.15679 -0.00745102 0)
(3.16352 -0.00372839 0)
(3.17186 -0.0025096 0)
(3.17707 -0.00163674 0)
(3.1816 -0.000735462 0)
(3.19207 -0.000279805 0)
(3.20446 -0.000429257 0)
(3.21065 -0.000403142 0)
(3.21307 0.000526364 0)
(3.21262 0.00173859 0)
(3.20924 0.00210617 0)
(3.20605 0.00280368 0)
(3.20097 0.00393553 0)
(3.19253 0.00461352 0)
(3.18409 0.00469869 0)
(3.18176 0.00459101 0)
(3.17854 0.00432237 0)
(3.17494 0.00388114 0)
(3.17175 0.00317627 0)
(3.17158 0.00200167 0)
(3.17438 0.00103619 0)
(3.17512 0.00160111 0)
(3.172 0.00302237 0)
(3.16542 0.00448561 0)
(3.16194 0.00535279 0)
(3.14412 0.00519107 0)
(3.12676 0.00515776 0)
(3.11641 0.00567621 0)
(3.10531 0.00626846 0)
(3.09299 0.00795857 0)
(3.07843 0.0114053 0)
(3.05901 0.0136312 0)
(3.03605 0.0107827 0)
(3.01627 0.00236124 0)
(3.00298 -0.00151561 0)
(2.99514 0.00701073 0)
(2.98867 0.0128033 0)
(2.97766 0.0139513 0)
(2.959 0.0169869 0)
(2.9473 0.0186019 0)
(2.92298 0.0211663 0)
(2.89331 0.0250252 0)
(2.87059 0.022457 0)
(2.82878 0.0158176 0)
(2.80227 0.0149008 0)
(2.78673 0.0149663 0)
(2.77218 0.0148874 0)
(2.75796 0.0139973 0)
(2.74522 0.0145936 0)
(2.73805 0.0156596 0)
(2.72572 0.0163475 0)
(2.70899 0.0171768 0)
(2.6815 0.0172404 0)
(2.65676 0.0168729 0)
(2.63334 0.0155556 0)
(2.60632 0.0137194 0)
(2.58054 0.0121694 0)
(2.55054 0.012243 0)
(2.52023 0.0143138 0)
(2.51064 0.0152135 0)
(2.49875 0.0137242 0)
(2.48785 0.010245 0)
(2.48115 0.00783091 0)
(2.48019 0.00627771 0)
(2.48295 0.00308091 0)
(2.48163 0.000103162 0)
(2.47792 -0.000826041 0)
(2.4746 -0.00180451 0)
(2.4695 -0.00312827 0)
(2.46328 -0.00390143 0)
(2.45952 -0.00386295 0)
(2.45887 -0.00335605 0)
(2.45948 -0.00294356 0)
(2.46059 -0.00234304 0)
(2.46407 -0.000890869 0)
(2.47183 0.0012985 0)
(2.48175 0.00368974 0)
(2.48578 0.00529133 0)
(2.48487 0.0044622 0)
(2.48201 0.00430913 0)
(2.47984 0.00406867 0)
(2.47777 0.00391806 0)
(2.47445 0.00336527 0)
(2.47019 0.0013183 0)
(2.46502 -0.00151393 0)
(2.45789 -0.00421832 0)
(2.44862 -0.00590268 0)
(2.43911 -0.00564983 0)
(2.42972 -0.00401611 0)
(2.41988 -0.00192452 0)
(2.41087 0.000155689 0)
(2.40169 0.00185228 0)
(2.39076 0.00298776 0)
(2.38241 0.00304611 0)
(2.38031 0.00269329 0)
(2.379 0.0020026 0)
(2.37863 0.00203431 0)
(2.37846 0.00288556 0)
(2.37839 0.00391307 0)
(2.37922 0.00482757 0)
(2.38203 0.00565823 0)
(2.38763 0.00653867 0)
(2.39746 0.00718287 0)
(2.41483 0.0068221 0)
(2.43946 0.00509322 0)
(2.46116 0.00188975 0)
(2.4711 -0.00173341 0)
(2.47434 -0.00510637 0)
(2.47619 -0.00812153 0)
(2.47867 -0.011004 0)
(2.47926 -0.0131282 0)
(2.4749 -0.0137264 0)
(2.46954 -0.0124814 0)
(2.46617 -0.011105 0)
(2.4624 -0.01002 0)
(2.45601 -0.00858243 0)
(2.44719 -0.0063008 0)
(2.44216 -0.00332839 0)
(2.44231 -0.00174566 0)
(2.44469 -0.000304703 0)
(2.45473 0.00137328 0)
(2.47792 0.00221601 0)
(2.50459 0.0020978 0)
(2.51873 0.00205912 0)
(2.52349 0.00151965 0)
(2.52644 0.000731084 0)
(2.53042 -0.000104148 0)
(2.53649 -0.000943988 0)
(2.54307 -0.00116786 0)
(2.54785 -0.00114496 0)
(2.55059 -0.00162339 0)
(2.55328 -0.00292773 0)
(2.55871 -0.00479842 0)
(2.56585 -0.00639542 0)
(2.5693 -0.00687902 0)
(2.57095 -0.00694511 0)
(2.57237 -0.00675971 0)
(2.57186 -0.00626423 0)
(2.57348 -0.0058097 0)
(2.57656 -0.00557187 0)
(2.57918 -0.0052891 0)
(2.58159 -0.00467072 0)
(2.58627 -0.00285749 0)
(2.59279 -0.0012863 0)
(2.60103 -0.00118199 0)
(2.61001 -0.0026354 0)
(2.61795 -0.00449823 0)
(2.6246 -0.00574974 0)
(2.63111 -0.00643336 0)
(2.63614 -0.0066387 0)
(2.63746 -0.00653517 0)
(2.63729 -0.00641446 0)
(2.63551 -0.00583314 0)
(2.6303 -0.00397095 0)
(2.62573 -0.000463832 0)
(2.62466 0.00142765 0)
(2.62471 0.0025957 0)
(2.62748 0.00311866 0)
(2.63553 0.00347436 0)
(2.64781 -3.8584e-05 0)
(2.66366 -0.00539997 0)
(2.67853 -0.00758594 0)
(2.6899 -0.00820521 0)
(2.69557 -0.00861969 0)
(2.6984 -0.00884692 0)
(2.70253 -0.00824076 0)
(2.70462 -0.00644926 0)
(2.70295 -0.00410315 0)
(2.69934 -0.00223302 0)
(2.69819 -0.00178592 0)
(2.6997 -0.00196563 0)
(2.70261 -0.00206943 0)
(2.70707 -0.00222729 0)
(2.71705 -0.00214739 0)
(2.72832 -0.00170038 0)
(2.73229 -0.00163294 0)
(2.73284 -0.00171789 0)
(2.73316 -0.00167737 0)
(2.72992 -0.000859222 0)
(2.72091 0.000849481 0)
(2.7163 0.00125519 0)
(2.70941 0.0011207 0)
(2.70401 0.000544132 0)
(2.70254 9.02829e-05 0)
(2.70899 -0.000467725 0)
(2.72779 -0.00180908 0)
(2.75317 -0.00338687 0)
(2.76389 -0.00435468 0)
(2.76556 -0.00482626 0)
(2.76778 -0.00659807 0)
(2.76879 -0.00923067 0)
(2.76748 -0.0108371 0)
(2.76056 -0.0111507 0)
(2.7509 -0.011455 0)
(2.7525 -0.0092394 0)
(2.76366 -0.00512373 0)
(2.77359 -0.00135592 0)
(2.77936 0.00177852 0)
(2.78617 0.00345317 0)
(2.78802 0.00325054 0)
(2.79164 0.00167115 0)
(2.79868 -0.000867994 0)
(2.80949 -0.00198192 0)
(2.81369 -0.000908288 0)
(2.80921 0.00171491 0)
(2.81004 0.00263051 0)
(2.81042 0.00297522 0)
(2.81071 0.00340336 0)
(2.81358 0.00374489 0)
(2.81954 0.00381244 0)
(2.81793 0.00331008 0)
(2.81503 0.00320985 0)
(2.81345 0.00256893 0)
(2.81111 0.00136631 0)
(2.80792 0.00159018 0)
(2.59247 -0.0400314 0)
(2.61115 -0.0366544 0)
(2.63243 -0.0303042 0)
(2.65294 -0.0239888 0)
(2.67704 -0.0214282 0)
(2.70208 -0.0214903 0)
(2.71786 -0.0207891 0)
(2.73131 -0.0195082 0)
(2.74273 -0.0188385 0)
(2.75319 -0.0187764 0)
(2.76342 -0.0187206 0)
(2.7737 -0.0183842 0)
(2.78445 -0.0182955 0)
(2.7955 -0.0198154 0)
(2.80697 -0.0232356 0)
(2.82335 -0.0252563 0)
(2.83547 -0.0222705 0)
(2.84638 -0.0191785 0)
(2.85628 -0.0178269 0)
(2.86556 -0.0167223 0)
(2.87445 -0.01374 0)
(2.88386 -0.0117575 0)
(2.89323 -0.0118383 0)
(2.90352 -0.0105072 0)
(2.9112 -0.00674 0)
(2.91456 -0.00445353 0)
(2.91619 -0.00432767 0)
(2.91962 -0.00483641 0)
(2.92659 -0.00622163 0)
(2.93809 -0.0118967 0)
(2.9553 -0.0228042 0)
(2.98009 -0.0355494 0)
(3.01248 -0.0458067 0)
(3.04466 -0.04331 0)
(3.07572 -0.031174 0)
(3.11214 -0.0199838 0)
(3.13704 -0.0168085 0)
(3.14281 -0.0173017 0)
(3.15164 -0.0179222 0)
(3.16309 -0.0164448 0)
(3.17206 -0.0113561 0)
(3.17896 -0.00668357 0)
(3.18543 -0.00347928 0)
(3.19585 0.000320228 0)
(3.20491 0.00223304 0)
(3.20854 0.00230773 0)
(3.20987 0.0025163 0)
(3.21175 0.0041315 0)
(3.21018 0.00611568 0)
(3.20698 0.00805178 0)
(3.20195 0.0101363 0)
(3.19495 0.00987019 0)
(3.18654 0.00681868 0)
(3.18346 0.00555813 0)
(3.1795 0.00493655 0)
(3.17593 0.00463298 0)
(3.17286 0.00438784 0)
(3.17172 0.00430931 0)
(3.17292 0.00466731 0)
(3.17316 0.00553944 0)
(3.17062 0.0071874 0)
(3.16524 0.00982664 0)
(3.16266 0.0133707 0)
(3.14502 0.015621 0)
(3.12761 0.0156634 0)
(3.11792 0.0172914 0)
(3.10727 0.0193109 0)
(3.09544 0.0224704 0)
(3.08302 0.0280062 0)
(3.06638 0.0332173 0)
(3.0475 0.0317839 0)
(3.03224 0.0202104 0)
(3.02019 0.0101613 0)
(3.00654 0.0161039 0)
(2.99604 0.0261037 0)
(2.98556 0.0291068 0)
(2.96795 0.0329178 0)
(2.95416 0.0340802 0)
(2.92632 0.0352996 0)
(2.89442 0.0383923 0)
(2.87008 0.0343742 0)
(2.8322 0.026687 0)
(2.8066 0.0256588 0)
(2.79172 0.0246912 0)
(2.7785 0.0251228 0)
(2.76627 0.023832 0)
(2.75398 0.0252347 0)
(2.74589 0.0270232 0)
(2.7321 0.0285163 0)
(2.71608 0.0316207 0)
(2.68961 0.0328401 0)
(2.66581 0.0330538 0)
(2.64357 0.0320077 0)
(2.61707 0.0293033 0)
(2.5931 0.0241515 0)
(2.5663 0.0192586 0)
(2.53391 0.0236947 0)
(2.52024 0.0292077 0)
(2.50881 0.0289648 0)
(2.49877 0.0281073 0)
(2.48963 0.0280982 0)
(2.4828 0.0256297 0)
(2.48157 0.0190026 0)
(2.48401 0.00942347 0)
(2.4829 0.00239246 0)
(2.4799 -0.000602623 0)
(2.47592 -0.00460032 0)
(2.47224 -0.00943054 0)
(2.47109 -0.0107963 0)
(2.4704 -0.0111006 0)
(2.47054 -0.0111635 0)
(2.47155 -0.0109529 0)
(2.47501 -0.0102105 0)
(2.48422 -0.00761083 0)
(2.49553 -0.00213688 0)
(2.49816 0.00291844 0)
(2.49733 0.00546737 0)
(2.49557 0.00770269 0)
(2.49295 0.00995355 0)
(2.48969 0.0121905 0)
(2.48525 0.0139267 0)
(2.47891 0.0143563 0)
(2.47013 0.0104847 0)
(2.45979 0.00322252 0)
(2.45062 -0.00372271 0)
(2.44358 -0.00828434 0)
(2.43745 -0.0104655 0)
(2.43063 -0.00980398 0)
(2.42252 -0.00771735 0)
(2.41243 -0.00587982 0)
(2.40051 -0.00385006 0)
(2.39004 -0.0018528 0)
(2.38526 -0.00130438 0)
(2.38379 -0.00150577 0)
(2.38247 -0.00142817 0)
(2.38189 -0.000314063 0)
(2.38193 0.000959196 0)
(2.38314 0.00175495 0)
(2.38692 0.00219099 0)
(2.39438 0.00257381 0)
(2.40643 0.00388803 0)
(2.42473 0.00595045 0)
(2.44949 0.00677129 0)
(2.4708 0.00499905 0)
(2.47846 0.00156318 0)
(2.48022 -0.000257665 0)
(2.48194 -0.00209906 0)
(2.48164 -0.00363048 0)
(2.47787 -0.00717036 0)
(2.4715 -0.0121511 0)
(2.46728 -0.0153268 0)
(2.46509 -0.0172592 0)
(2.46255 -0.0194443 0)
(2.45841 -0.0210864 0)
(2.45437 -0.0194857 0)
(2.45293 -0.0162363 0)
(2.45385 -0.0137991 0)
(2.4576 -0.00998295 0)
(2.46685 -0.00549708 0)
(2.48587 -0.0020143 0)
(2.50898 -0.000878287 0)
(2.52208 0.000133927 0)
(2.5269 0.00174243 0)
(2.5298 0.00370053 0)
(2.53278 0.00612568 0)
(2.5364 0.00860508 0)
(2.54027 0.0101965 0)
(2.54349 0.01088 0)
(2.5459 0.0103296 0)
(2.54813 0.00754401 0)
(2.55254 0.0018388 0)
(2.56042 -0.00653896 0)
(2.56796 -0.013925 0)
(2.57092 -0.0165027 0)
(2.57361 -0.0178784 0)
(2.57535 -0.018913 0)
(2.57789 -0.018596 0)
(2.5803 -0.0178224 0)
(2.58278 -0.0159688 0)
(2.58702 -0.0124877 0)
(2.59221 -0.00744761 0)
(2.59758 -0.00194658 0)
(2.60261 0.00345572 0)
(2.60841 0.00550824 0)
(2.61468 0.00358219 0)
(2.62113 0.00041214 0)
(2.62759 -0.00390709 0)
(2.63302 -0.00907975 0)
(2.63554 -0.0128776 0)
(2.63589 -0.0147515 0)
(2.63575 -0.0168387 0)
(2.63469 -0.0167398 0)
(2.63315 -0.0131404 0)
(2.63308 -0.00802211 0)
(2.63451 -0.0019324 0)
(2.6367 0.00420619 0)
(2.6405 0.0104164 0)
(2.64627 0.012767 0)
(2.65492 0.00816642 0)
(2.66607 -0.000171454 0)
(2.68015 -0.0103649 0)
(2.6922 -0.0173697 0)
(2.6964 -0.0189507 0)
(2.70185 -0.0184384 0)
(2.70457 -0.0148564 0)
(2.70434 -0.00894193 0)
(2.70186 -0.00243608 0)
(2.70053 -0.000200601 0)
(2.70109 -0.000692159 0)
(2.70233 -0.00205835 0)
(2.70665 -0.00455999 0)
(2.71932 -0.00694908 0)
(2.73363 -0.00768783 0)
(2.73787 -0.00764593 0)
(2.73902 -0.0079554 0)
(2.74019 -0.00845129 0)
(2.73822 -0.00715657 0)
(2.72795 -0.00204699 0)
(2.72004 0.00136363 0)
(2.71463 0.00228326 0)
(2.70841 0.00368923 0)
(2.70518 0.00461745 0)
(2.70923 0.00474548 0)
(2.72627 0.00343175 0)
(2.75273 -0.000987645 0)
(2.76606 -0.00374566 0)
(2.76824 -0.00371821 0)
(2.77083 -0.00478349 0)
(2.77094 -0.00851901 0)
(2.76638 -0.0153751 0)
(2.75814 -0.0259069 0)
(2.75601 -0.0325513 0)
(2.7613 -0.0308999 0)
(2.7704 -0.0254183 0)
(2.78116 -0.0153981 0)
(2.78991 -0.00145514 0)
(2.79434 0.00760238 0)
(2.79855 0.0106095 0)
(2.80405 0.010139 0)
(2.81162 0.00627464 0)
(2.82049 0.000712155 0)
(2.82246 -0.000438935 0)
(2.81493 0.0035857 0)
(2.81296 0.00551114 0)
(2.81261 0.00602312 0)
(2.81184 0.00738143 0)
(2.81346 0.00984019 0)
(2.8183 0.0126271 0)
(2.81746 0.0121146 0)
(2.81582 0.0104735 0)
(2.81509 0.0086904 0)
(2.81508 0.00616428 0)
(2.8149 0.000361128 0)
(2.61406 -0.0626874 0)
(2.63975 -0.0639237 0)
(2.65771 -0.0600949 0)
(2.67661 -0.0548879 0)
(2.69786 -0.0492546 0)
(2.7189 -0.0451646 0)
(2.73554 -0.0425575 0)
(2.74873 -0.0401434 0)
(2.76069 -0.0370869 0)
(2.77168 -0.0356911 0)
(2.78179 -0.035862 0)
(2.79184 -0.0362426 0)
(2.80234 -0.036116 0)
(2.81345 -0.0358574 0)
(2.82506 -0.0360965 0)
(2.84196 -0.0372197 0)
(2.85503 -0.0366919 0)
(2.86278 -0.0356819 0)
(2.87075 -0.0357461 0)
(2.87833 -0.0350617 0)
(2.88487 -0.0307783 0)
(2.89312 -0.0243669 0)
(2.90441 -0.0196823 0)
(2.91608 -0.0149711 0)
(2.92492 -0.00794921 0)
(2.92956 -0.00443688 0)
(2.93102 -0.00570783 0)
(2.93329 -0.00822332 0)
(2.93885 -0.0131269 0)
(2.94937 -0.0241339 0)
(2.96651 -0.0394106 0)
(2.99084 -0.0561784 0)
(3.02418 -0.0716615 0)
(3.05928 -0.0734042 0)
(3.0906 -0.0566712 0)
(3.12263 -0.0381194 0)
(3.14366 -0.026984 0)
(3.14717 -0.0261036 0)
(3.15543 -0.027297 0)
(3.1637 -0.0270496 0)
(3.17314 -0.0220043 0)
(3.18255 -0.0140085 0)
(3.19359 -0.00482949 0)
(3.20136 0.00298258 0)
(3.20504 0.00457791 0)
(3.20617 0.00388559 0)
(3.20745 0.00420985 0)
(3.20961 0.00795335 0)
(3.207 0.0124587 0)
(3.20255 0.0160222 0)
(3.19749 0.0186036 0)
(3.18968 0.0188582 0)
(3.18372 0.0167362 0)
(3.18061 0.0147183 0)
(3.17721 0.0107018 0)
(3.1752 0.00742038 0)
(3.17398 0.00582442 0)
(3.17382 0.00612254 0)
(3.17398 0.00732069 0)
(3.17301 0.00876476 0)
(3.17003 0.0114724 0)
(3.1642 0.0163848 0)
(3.16069 0.0228082 0)
(3.14618 0.0263254 0)
(3.13009 0.0264548 0)
(3.12202 0.0285056 0)
(3.11231 0.0319738 0)
(3.10035 0.0371271 0)
(3.08724 0.0456203 0)
(3.06968 0.0539714 0)
(3.0493 0.0545905 0)
(3.0315 0.0391521 0)
(3.01566 0.0223633 0)
(3.00135 0.028192 0)
(2.99439 0.0426084 0)
(2.98488 0.0475336 0)
(2.96721 0.053711 0)
(2.95335 0.0606354 0)
(2.92711 0.0621204 0)
(2.8957 0.0664155 0)
(2.86923 0.0620898 0)
(2.83121 0.0452823 0)
(2.80409 0.0430763 0)
(2.78955 0.041569 0)
(2.77717 0.0414456 0)
(2.76576 0.0415797 0)
(2.75434 0.0433971 0)
(2.74541 0.0461117 0)
(2.7345 0.0480627 0)
(2.72015 0.0529326 0)
(2.69456 0.0551079 0)
(2.67072 0.0561396 0)
(2.64608 0.0539474 0)
(2.61723 0.0477825 0)
(2.59332 0.0429602 0)
(2.57134 0.0439134 0)
(2.5492 0.0465695 0)
(2.52789 0.0476473 0)
(2.51421 0.0472188 0)
(2.50702 0.0461147 0)
(2.49911 0.0414427 0)
(2.4948 0.0346041 0)
(2.49288 0.0273658 0)
(2.49369 0.0193967 0)
(2.49577 0.0103285 0)
(2.49511 0.00331057 0)
(2.49362 -0.000880566 0)
(2.49228 -0.00323001 0)
(2.49243 -0.00522547 0)
(2.49356 -0.00658089 0)
(2.49495 -0.00670977 0)
(2.49692 -0.005844 0)
(2.50088 -0.00409028 0)
(2.51039 -0.00173252 0)
(2.52373 0.000402566 0)
(2.52826 0.00174548 0)
(2.5273 0.00264137 0)
(2.52599 0.00374371 0)
(2.52306 0.0058869 0)
(2.51692 0.00957521 0)
(2.50842 0.0118685 0)
(2.49765 0.0109559 0)
(2.48559 0.00737203 0)
(2.47498 0.00300208 0)
(2.4664 -7.26954e-05 0)
(2.45881 -0.00175108 0)
(2.45322 -0.00240825 0)
(2.44881 -0.00272797 0)
(2.44306 -0.00257454 0)
(2.43304 -0.00148689 0)
(2.42189 8.02667e-05 0)
(2.4111 0.00176734 0)
(2.40172 0.00290943 0)
(2.39733 0.00270634 0)
(2.39672 0.0023678 0)
(2.39654 0.00241462 0)
(2.39746 0.00362951 0)
(2.40003 0.0052443 0)
(2.40504 0.00669631 0)
(2.41429 0.00860523 0)
(2.42953 0.0107403 0)
(2.44959 0.0116425 0)
(2.4726 0.00797014 0)
(2.49189 -0.00053266 0)
(2.49998 -0.00883228 0)
(2.5019 -0.0145192 0)
(2.50207 -0.0200667 0)
(2.49941 -0.0257203 0)
(2.49034 -0.0302347 0)
(2.48022 -0.0320487 0)
(2.47588 -0.0308088 0)
(2.47438 -0.0289355 0)
(2.47286 -0.0278018 0)
(2.47164 -0.0267105 0)
(2.47157 -0.0250138 0)
(2.47409 -0.0220326 0)
(2.47849 -0.0166394 0)
(2.48351 -0.00956936 0)
(2.49054 -0.00292608 0)
(2.50304 -0.000729737 0)
(2.52163 -0.00380944 0)
(2.53554 -0.00657214 0)
(2.54179 -0.00763636 0)
(2.54513 -0.00794092 0)
(2.54743 -0.00727183 0)
(2.54825 -0.0048866 0)
(2.5487 -0.00132833 0)
(2.55007 0.00207855 0)
(2.55237 0.0044714 0)
(2.5549 0.00474055 0)
(2.55781 0.00228874 0)
(2.56292 -0.00379358 0)
(2.57064 -0.0140094 0)
(2.57919 -0.0243211 0)
(2.58378 -0.0287644 0)
(2.58586 -0.029132 0)
(2.58813 -0.028132 0)
(2.59025 -0.0266066 0)
(2.59393 -0.0242445 0)
(2.59928 -0.0196542 0)
(2.60563 -0.0145878 0)
(2.6117 -0.0111406 0)
(2.61631 -0.00967391 0)
(2.61828 -0.00924523 0)
(2.61975 -0.00948626 0)
(2.62342 -0.0104703 0)
(2.62916 -0.012279 0)
(2.63422 -0.0153071 0)
(2.63743 -0.0188531 0)
(2.6399 -0.0215954 0)
(2.64259 -0.0222437 0)
(2.64494 -0.0191326 0)
(2.64571 -0.0133458 0)
(2.64643 -0.00820465 0)
(2.64742 -0.00380324 0)
(2.64891 -0.000504022 0)
(2.65164 0.0026109 0)
(2.65529 0.00316169 0)
(2.65781 0.00152137 0)
(2.66246 -0.00389377 0)
(2.67186 -0.0148039 0)
(2.68666 -0.027249 0)
(2.70058 -0.0317958 0)
(2.70904 -0.0288036 0)
(2.71275 -0.0252457 0)
(2.71459 -0.0206892 0)
(2.71218 -0.0123153 0)
(2.70813 -0.00331834 0)
(2.70732 0.000542356 0)
(2.7076 0.00118101 0)
(2.71086 0.00033084 0)
(2.72355 -0.00340244 0)
(2.74011 -0.00910253 0)
(2.747 -0.0128556 0)
(2.74791 -0.0134644 0)
(2.74818 -0.0134326 0)
(2.74617 -0.0125665 0)
(2.7376 -0.00957702 0)
(2.72828 -0.00656977 0)
(2.72362 -0.00605001 0)
(2.71718 -0.00389588 0)
(2.71316 -0.00057882 0)
(2.71494 0.00295114 0)
(2.72738 0.00367115 0)
(2.74791 -0.00308097 0)
(2.76452 -0.0132341 0)
(2.77053 -0.0180938 0)
(2.77328 -0.0197238 0)
(2.77476 -0.0236481 0)
(2.76932 -0.0290882 0)
(2.76183 -0.0316902 0)
(2.76369 -0.0301238 0)
(2.77033 -0.0293079 0)
(2.77822 -0.0275579 0)
(2.78848 -0.020643 0)
(2.79558 -0.0127245 0)
(2.80361 -0.00872741 0)
(2.81214 -0.00667643 0)
(2.81974 -0.00637385 0)
(2.826 -0.00572419 0)
(2.82781 -0.00116169 0)
(2.82101 0.00285587 0)
(2.81677 0.00303458 0)
(2.81715 0.00327179 0)
(2.81656 0.00383325 0)
(2.8158 0.00584769 0)
(2.81787 0.0105666 0)
(2.82213 0.0169044 0)
(2.82159 0.0184676 0)
(2.82108 0.0174841 0)
(2.8202 0.0128191 0)
(2.81942 0.00577364 0)
(2.81927 0.00141605 0)
(2.67268 -0.0599065 0)
(2.70063 -0.0600885 0)
(2.72167 -0.0563172 0)
(2.73726 -0.051604 0)
(2.75347 -0.0468296 0)
(2.77028 -0.0429682 0)
(2.78633 -0.0397509 0)
(2.80039 -0.0375685 0)
(2.81265 -0.0364524 0)
(2.82175 -0.036775 0)
(2.82982 -0.038546 0)
(2.83809 -0.040484 0)
(2.84661 -0.0416266 0)
(2.85564 -0.0409718 0)
(2.86669 -0.0389801 0)
(2.88518 -0.0370014 0)
(2.89798 -0.0375249 0)
(2.90402 -0.0379722 0)
(2.91024 -0.0381522 0)
(2.91478 -0.038121 0)
(2.91831 -0.0363352 0)
(2.92442 -0.0302086 0)
(2.93548 -0.0201779 0)
(2.94637 -0.0153073 0)
(2.95313 -0.012505 0)
(2.9561 -0.00749186 0)
(2.95866 -0.00422484 0)
(2.96203 -0.00439532 0)
(2.96906 -0.00831641 0)
(2.98092 -0.021726 0)
(2.9939 -0.0469649 0)
(3.0085 -0.0768513 0)
(3.03279 -0.100248 0)
(3.06818 -0.111718 0)
(3.10012 -0.0930095 0)
(3.12677 -0.0594102 0)
(3.14545 -0.0386951 0)
(3.15462 -0.028987 0)
(3.16141 -0.0271573 0)
(3.16968 -0.0266918 0)
(3.17992 -0.0208017 0)
(3.19145 -0.00974534 0)
(3.20031 -3.41141e-05 0)
(3.20289 0.0031905 0)
(3.20263 0.00291731 0)
(3.20183 0.00210352 0)
(3.20206 0.0021657 0)
(3.20475 0.00679775 0)
(3.20223 0.0137778 0)
(3.19748 0.0183179 0)
(3.1923 0.0216926 0)
(3.1837 0.025073 0)
(3.17706 0.0254165 0)
(3.17441 0.0231908 0)
(3.17172 0.0188334 0)
(3.17074 0.0143351 0)
(3.17173 0.0110883 0)
(3.17341 0.00974552 0)
(3.17348 0.00884759 0)
(3.17174 0.00859188 0)
(3.16824 0.0103631 0)
(3.16237 0.015462 0)
(3.15883 0.0244837 0)
(3.14706 0.0326092 0)
(3.13389 0.0337583 0)
(3.12751 0.0373057 0)
(3.11898 0.0433949 0)
(3.10755 0.0519914 0)
(3.0946 0.0632751 0)
(3.07748 0.0735031 0)
(3.05907 0.0753908 0)
(3.04151 0.0576285 0)
(3.0173 0.0359803 0)
(2.99684 0.040229 0)
(2.99797 0.0562447 0)
(2.99259 0.0632777 0)
(2.9781 0.071801 0)
(2.96129 0.0862584 0)
(2.94024 0.0884578 0)
(2.90889 0.0904104 0)
(2.88521 0.0910159 0)
(2.85079 0.0685319 0)
(2.81528 0.0633401 0)
(2.79978 0.0607731 0)
(2.7878 0.0602597 0)
(2.77738 0.0604495 0)
(2.76769 0.061282 0)
(2.75904 0.0626834 0)
(2.74986 0.063889 0)
(2.73765 0.0694539 0)
(2.7154 0.0726848 0)
(2.69264 0.0762145 0)
(2.66651 0.0764749 0)
(2.636 0.0689039 0)
(2.61134 0.0587789 0)
(2.5918 0.0557231 0)
(2.57446 0.0571036 0)
(2.55463 0.0589535 0)
(2.5366 0.0594446 0)
(2.5274 0.0551999 0)
(2.52207 0.0496198 0)
(2.51705 0.0426197 0)
(2.51348 0.0347338 0)
(2.51263 0.0266732 0)
(2.51481 0.0181405 0)
(2.5178 0.00990066 0)
(2.5193 0.00358225 0)
(2.52015 -0.00146004 0)
(2.52083 -0.00510133 0)
(2.52185 -0.00693761 0)
(2.52307 -0.00673509 0)
(2.52485 -0.00470716 0)
(2.52866 -0.00159673 0)
(2.53686 0.00075093 0)
(2.54875 0.000759785 0)
(2.55589 0.000905903 0)
(2.5561 0.00156695 0)
(2.55503 0.00181948 0)
(2.5528 0.00199718 0)
(2.54594 0.00214967 0)
(2.53159 0.00187446 0)
(2.51391 0.000533645 0)
(2.501 0.000549169 0)
(2.49348 0.00208532 0)
(2.48729 0.00398323 0)
(2.48285 0.00622269 0)
(2.47959 0.00822519 0)
(2.47532 0.00901652 0)
(2.46941 0.00819576 0)
(2.46104 0.00560792 0)
(2.45117 0.00273355 0)
(2.44173 0.000716998 0)
(2.43291 -0.00048968 0)
(2.42926 -0.00154842 0)
(2.43086 -0.0019029 0)
(2.433 -0.00145809 0)
(2.43565 0.000868635 0)
(2.43973 0.00417725 0)
(2.44619 0.0072489 0)
(2.45684 0.0096042 0)
(2.47363 0.0119409 0)
(2.49463 0.0145594 0)
(2.5141 0.0151766 0)
(2.52554 0.00908846 0)
(2.52974 0.000911312 0)
(2.52986 -0.00615254 0)
(2.52788 -0.014891 0)
(2.5216 -0.0267195 0)
(2.51137 -0.0382834 0)
(2.50429 -0.0426181 0)
(2.50212 -0.0414261 0)
(2.50153 -0.0393548 0)
(2.50106 -0.0361474 0)
(2.50102 -0.0314758 0)
(2.50348 -0.0268559 0)
(2.5079 -0.0220158 0)
(2.5127 -0.0144912 0)
(2.51887 -0.0050665 0)
(2.52746 0.00228973 0)
(2.53862 0.00534617 0)
(2.55061 0.00283407 0)
(2.56094 -0.00231412 0)
(2.56701 -0.00611936 0)
(2.56931 -0.00807097 0)
(2.57026 -0.00943027 0)
(2.57089 -0.0103019 0)
(2.57198 -0.00976582 0)
(2.57374 -0.00791385 0)
(2.57608 -0.0058287 0)
(2.57864 -0.00469342 0)
(2.58093 -0.00484053 0)
(2.5841 -0.00710199 0)
(2.58987 -0.0127264 0)
(2.59788 -0.0217106 0)
(2.60653 -0.0298055 0)
(2.61287 -0.0325919 0)
(2.61617 -0.0315954 0)
(2.61859 -0.0294671 0)
(2.62165 -0.0260831 0)
(2.62631 -0.0214231 0)
(2.63214 -0.0169601 0)
(2.63624 -0.0146749 0)
(2.63711 -0.0140868 0)
(2.63613 -0.013788 0)
(2.63488 -0.0134313 0)
(2.63443 -0.0143334 0)
(2.63587 -0.0181083 0)
(2.64005 -0.0234997 0)
(2.64622 -0.0274378 0)
(2.65262 -0.0276512 0)
(2.65864 -0.0243011 0)
(2.66284 -0.018652 0)
(2.66443 -0.0133671 0)
(2.6649 -0.0101736 0)
(2.6656 -0.00838488 0)
(2.66728 -0.00781458 0)
(2.66927 -0.008612 0)
(2.67152 -0.0108178 0)
(2.67271 -0.0117708 0)
(2.67349 -0.0120498 0)
(2.67657 -0.0157938 0)
(2.68437 -0.02395 0)
(2.69926 -0.0335347 0)
(2.71704 -0.0389848 0)
(2.7247 -0.0378346 0)
(2.72542 -0.0356867 0)
(2.72295 -0.026704 0)
(2.71989 -0.0127397 0)
(2.72014 -0.00430284 0)
(2.72177 -0.000346725 0)
(2.72532 0.00321744 0)
(2.73324 0.00299875 0)
(2.74559 -0.00360458 0)
(2.75575 -0.0111327 0)
(2.75912 -0.0131321 0)
(2.75884 -0.0118554 0)
(2.75719 -0.0104856 0)
(2.75194 -0.00768075 0)
(2.74143 -0.00240774 0)
(2.73637 -0.000779777 0)
(2.73035 -0.000166093 0)
(2.72515 0.00134585 0)
(2.72469 0.00409587 0)
(2.73284 0.00657582 0)
(2.74733 0.00364434 0)
(2.76051 -0.0080117 0)
(2.76881 -0.0231154 0)
(2.77236 -0.0332839 0)
(2.77366 -0.0384 0)
(2.77271 -0.0429931 0)
(2.77183 -0.0412422 0)
(2.77526 -0.0365571 0)
(2.78114 -0.0331804 0)
(2.78849 -0.0268647 0)
(2.79523 -0.0170293 0)
(2.80343 -0.00923451 0)
(2.81287 -0.00362257 0)
(2.82107 -5.19675e-05 0)
(2.82655 0.000666033 0)
(2.82829 0.00163091 0)
(2.82381 0.00578828 0)
(2.81531 0.00681891 0)
(2.81887 0.00690855 0)
(2.81985 0.00693249 0)
(2.81953 0.00654991 0)
(2.81869 0.00692354 0)
(2.81963 0.00818148 0)
(2.82379 0.0094275 0)
(2.82592 0.0103063 0)
(2.8259 0.0102272 0)
(2.82613 0.00801165 0)
(2.82551 0.0034894 0)
(2.82263 0.000574767 0)
(2.75057 -0.0859551 0)
(2.77636 -0.0823595 0)
(2.79716 -0.0768415 0)
(2.80622 -0.0735574 0)
(2.81897 -0.0717968 0)
(2.83295 -0.0701711 0)
(2.84718 -0.0676968 0)
(2.86091 -0.0637907 0)
(2.87345 -0.058745 0)
(2.88259 -0.0542456 0)
(2.88818 -0.0528188 0)
(2.8958 -0.0539718 0)
(2.9026 -0.0546236 0)
(2.90998 -0.0536026 0)
(2.9211 -0.0506729 0)
(2.93791 -0.0488992 0)
(2.95062 -0.0512191 0)
(2.95803 -0.0530862 0)
(2.96024 -0.0530588 0)
(2.96273 -0.0521647 0)
(2.96545 -0.0499006 0)
(2.97266 -0.0461475 0)
(2.98476 -0.029108 0)
(2.99483 -0.0127734 0)
(2.99826 -0.00919932 0)
(2.99871 -0.00869566 0)
(3.00044 -0.0094926 0)
(3.00437 -0.0118688 0)
(3.01288 -0.0170677 0)
(3.02616 -0.0320876 0)
(3.03649 -0.0579024 0)
(3.05148 -0.0926645 0)
(3.07764 -0.123398 0)
(3.10755 -0.135493 0)
(3.12649 -0.117051 0)
(3.14159 -0.0863518 0)
(3.15151 -0.0617228 0)
(3.15749 -0.0479744 0)
(3.16419 -0.0397594 0)
(3.17473 -0.0315792 0)
(3.18821 -0.0193792 0)
(3.199 -0.00658256 0)
(3.20181 -0.00120248 0)
(3.20162 0.00180266 0)
(3.19856 0.00300596 0)
(3.19714 0.00291943 0)
(3.19528 0.00377638 0)
(3.19579 0.00877106 0)
(3.19327 0.0178449 0)
(3.18734 0.0215474 0)
(3.18267 0.0237743 0)
(3.17517 0.0265912 0)
(3.16873 0.0274988 0)
(3.16598 0.0253021 0)
(3.16517 0.0232733 0)
(3.16528 0.0202123 0)
(3.16689 0.0180977 0)
(3.16855 0.0151967 0)
(3.16868 0.0107235 0)
(3.16748 0.00827983 0)
(3.16443 0.00969555 0)
(3.15821 0.0152372 0)
(3.15178 0.0257022 0)
(3.14325 0.0368469 0)
(3.13481 0.0421114 0)
(3.13055 0.0464356 0)
(3.12435 0.0537385 0)
(3.1157 0.065183 0)
(3.10464 0.0772878 0)
(3.08868 0.0880758 0)
(3.07279 0.0914601 0)
(3.05611 0.0752681 0)
(3.02859 0.049462 0)
(3.00011 0.0503838 0)
(3.00203 0.0619307 0)
(3.00144 0.0701961 0)
(2.99068 0.0804499 0)
(2.97388 0.107264 0)
(2.95723 0.115217 0)
(2.92653 0.117527 0)
(2.89651 0.112585 0)
(2.86506 0.0997508 0)
(2.83278 0.0814817 0)
(2.81649 0.0776723 0)
(2.80593 0.0778302 0)
(2.79464 0.0782211 0)
(2.78565 0.0781842 0)
(2.77801 0.0774544 0)
(2.76916 0.0776579 0)
(2.75783 0.0819789 0)
(2.73716 0.0861117 0)
(2.71349 0.0915774 0)
(2.68332 0.0936124 0)
(2.64837 0.0851759 0)
(2.62419 0.0768688 0)
(2.60959 0.0720422 0)
(2.59922 0.0681917 0)
(2.58618 0.0667792 0)
(2.56961 0.0664277 0)
(2.55556 0.0621933 0)
(2.5493 0.056116 0)
(2.54599 0.0502628 0)
(2.54215 0.0427063 0)
(2.54104 0.0346625 0)
(2.54284 0.0264749 0)
(2.54549 0.0186383 0)
(2.54788 0.0120799 0)
(2.55047 0.00670657 0)
(2.55312 0.00230388 0)
(2.55464 0.00031716 0)
(2.55519 0.00100532 0)
(2.55597 0.00320448 0)
(2.55844 0.00508908 0)
(2.56375 0.00488358 0)
(2.57169 0.00259203 0)
(2.57822 3.57728e-05 0)
(2.57986 -0.00135213 0)
(2.57943 -0.00200465 0)
(2.57739 -0.00395672 0)
(2.57106 -0.00742273 0)
(2.55715 -0.00924593 0)
(2.53987 -0.00641871 0)
(2.52913 -0.000940382 0)
(2.52374 0.00394542 0)
(2.52029 0.00903159 0)
(2.51683 0.0144248 0)
(2.51156 0.0196765 0)
(2.50436 0.0242393 0)
(2.49729 0.0263263 0)
(2.4913 0.0241382 0)
(2.48559 0.0197122 0)
(2.48038 0.0150256 0)
(2.47557 0.00806196 0)
(2.47522 0.000794397 0)
(2.47868 -0.00203551 0)
(2.48376 -0.00397725 0)
(2.48992 -0.00370996 0)
(2.49637 -0.000660119 0)
(2.50479 0.00389026 0)
(2.5166 0.00839728 0)
(2.53279 0.0110155 0)
(2.55279 0.00939512 0)
(2.56701 0.00261985 0)
(2.57234 -0.00485736 0)
(2.57411 -0.0135855 0)
(2.57437 -0.0247301 0)
(2.57222 -0.0373209 0)
(2.5656 -0.0490496 0)
(2.55806 -0.0550174 0)
(2.55399 -0.0537756 0)
(2.5516 -0.0494161 0)
(2.54923 -0.0426615 0)
(2.54758 -0.0353557 0)
(2.54783 -0.0280838 0)
(2.55139 -0.0207468 0)
(2.55836 -0.0140379 0)
(2.5668 -0.00840264 0)
(2.57489 -0.00367049 0)
(2.58358 -0.00146176 0)
(2.59161 -0.00234546 0)
(2.59709 -0.00448183 0)
(2.60307 -0.00850328 0)
(2.60835 -0.0127825 0)
(2.6109 -0.0146091 0)
(2.61196 -0.015363 0)
(2.61265 -0.0160206 0)
(2.61344 -0.0163396 0)
(2.61463 -0.016355 0)
(2.61632 -0.0165333 0)
(2.6185 -0.0163947 0)
(2.62104 -0.0152462 0)
(2.62421 -0.0142978 0)
(2.62871 -0.0154878 0)
(2.63513 -0.0194777 0)
(2.64341 -0.0256873 0)
(2.653 -0.031739 0)
(2.66017 -0.0337675 0)
(2.66351 -0.031423 0)
(2.66559 -0.0274268 0)
(2.66772 -0.0230629 0)
(2.66956 -0.0202609 0)
(2.67024 -0.0198615 0)
(2.66967 -0.0203763 0)
(2.6679 -0.0206133 0)
(2.66491 -0.0200738 0)
(2.66028 -0.0202473 0)
(2.65566 -0.0223887 0)
(2.65533 -0.025951 0)
(2.66388 -0.0292712 0)
(2.67796 -0.02788 0)
(2.68923 -0.0225143 0)
(2.69516 -0.0178817 0)
(2.69779 -0.015026 0)
(2.69844 -0.0134452 0)
(2.69841 -0.0128147 0)
(2.69738 -0.0135838 0)
(2.69446 -0.0183986 0)
(2.69299 -0.0232653 0)
(2.69289 -0.0246169 0)
(2.69346 -0.0246378 0)
(2.69483 -0.0226287 0)
(2.69758 -0.0229792 0)
(2.70411 -0.0300885 0)
(2.71701 -0.0418283 0)
(2.73239 -0.045901 0)
(2.74038 -0.0386759 0)
(2.74002 -0.0338203 0)
(2.73759 -0.0222157 0)
(2.73989 -0.010669 0)
(2.74256 -0.0017275 0)
(2.74471 0.00445344 0)
(2.74859 0.00654953 0)
(2.75535 0.00415854 0)
(2.76588 -0.00405592 0)
(2.77329 -0.0145232 0)
(2.77233 -0.0184602 0)
(2.76934 -0.0186274 0)
(2.76469 -0.0185473 0)
(2.75484 -0.0149982 0)
(2.74809 -0.00993157 0)
(2.74365 -0.00736874 0)
(2.73832 -0.00291327 0)
(2.73703 0.00220431 0)
(2.74182 0.00534079 0)
(2.75019 0.00161264 0)
(2.758 -0.00946288 0)
(2.7644 -0.0230399 0)
(2.77021 -0.034505 0)
(2.77532 -0.0408199 0)
(2.77872 -0.0427877 0)
(2.78182 -0.042779 0)
(2.78643 -0.0400632 0)
(2.79325 -0.0328899 0)
(2.7998 -0.025353 0)
(2.80347 -0.0221664 0)
(2.8092 -0.0172438 0)
(2.81436 -0.0130693 0)
(2.81764 -0.00949959 0)
(2.81855 -0.00601029 0)
(2.81651 -0.00308287 0)
(2.80865 -9.9781e-05 0)
(2.81049 0.00641059 0)
(2.81852 0.008865 0)
(2.82001 0.0104633 0)
(2.8206 0.0124822 0)
(2.82074 0.0149044 0)
(2.82217 0.0164313 0)
(2.82684 0.0152484 0)
(2.83097 0.0124356 0)
(2.83121 0.0113047 0)
(2.83105 0.00773906 0)
(2.82917 0.00189386 0)
(2.82499 -0.000679267 0)
(2.82424 -0.0803196 0)
(2.84407 -0.0747202 0)
(2.86275 -0.0724236 0)
(2.87075 -0.072256 0)
(2.88111 -0.071222 0)
(2.89164 -0.0695446 0)
(2.9025 -0.0678831 0)
(2.9135 -0.0667906 0)
(2.92449 -0.065822 0)
(2.93481 -0.0634667 0)
(2.94283 -0.0569386 0)
(2.94957 -0.0510871 0)
(2.95733 -0.0509382 0)
(2.96485 -0.0518708 0)
(2.97499 -0.0510278 0)
(2.98843 -0.0487254 0)
(3.00008 -0.047608 0)
(3.00752 -0.0489748 0)