/*--------------------------------*- C++ -*----------------------------------*\
  =========                 |
  \\      /  F ield         | OpenFOAM: The Open Source CFD Toolbox
   \\    /   O peration     | Website:  https://openfoam.org
    \\  /    A nd           | Version:  7
     \\/     M anipulation  |
\*---------------------------------------------------------------------------*/
FoamFile
{
    version     2.0;
    format      ascii;
    class       volScalarField;
    location    "7.5";
    object      p;
}
// * * * * * * * * * * * * * * * * * * * * * * * * * * * * * * * * * * * * * //

dimensions      [1 -1 -2 0 0 0 0];

internalField   nonuniform List<scalar> 
3328
(
176.107
22.6822
13.2557
13.2989
13.326
13.3579
13.3922
13.4303
13.4712
13.5144
13.5595
13.6072
13.658
13.713
13.7717
13.8343
13.8971
13.9611
14.0212
14.0824
14.1325
14.1787
14.2146
14.2393
176.086
22.679
13.2524
13.2948
13.3213
13.3522
13.3853
13.4222
13.4621
13.5044
13.549
13.5963
13.6466
13.7009
13.7583
13.8196
13.8814
13.9448
14.0045
14.0643
14.1109
14.1527
14.184
14.2056
176.058
22.6669
13.2474
13.288
13.3136
13.3429
13.3743
13.4095
13.4476
13.4886
13.532
13.5785
13.6279
13.681
13.7363
13.7947
13.8534
13.9141
13.972
14.0305
14.0763
14.1176
14.1482
14.1698
176.031
22.6501
13.24
13.278
13.3025
13.3298
13.3591
13.3921
13.4282
13.4671
13.5086
13.5534
13.6012
13.6524
13.705
13.7599
13.815
13.8728
13.9296
13.9869
14.0298
14.0645
14.087
14.103
175.994
22.6281
13.2302
13.2649
13.2881
13.3134
13.3406
13.3712
13.405
13.4416
13.4805
13.5226
13.5677
13.6163
13.6659
13.7166
13.7662
13.8156
13.8631
13.9074
13.9399
13.973
13.9962
14.0257
175.947
22.5992
13.218
13.2491
13.2707
13.2939
13.319
13.3473
13.3786
13.4125
13.4485
13.4871
13.5284
13.573
13.6185
13.6635
13.7063
13.7459
13.7863
13.8247
13.8589
13.8877
13.8946
13.8779
175.886
22.5619
13.2035
13.2306
13.251
13.272
13.295
13.3205
13.3492
13.3801
13.4129
13.4473
13.4838
13.5225
13.5626
13.6009
13.6369
13.6673
13.6957
13.7115
13.7118
13.6828
13.6672
13.7027
175.816
22.5135
13.1872
13.2099
13.2292
13.2482
13.2691
13.2914
13.3167
13.344
13.3732
13.403
13.434
13.4653
13.4984
13.5285
13.5565
13.5763
13.5858
13.5813
13.5626
13.5417
13.5016
13.7714
175.748
22.4528
13.1693
13.1866
13.2047
13.2217
13.2407
13.2597
13.2812
13.3039
13.3291
13.3539
13.3792
13.4025
13.4264
13.4477
13.4651
13.4736
13.4671
13.4486
13.3907
13.3029
12.9102
12.4604
175.698
22.3734
13.1541
13.1625
13.1788
13.1932
13.2104
13.226
13.2431
13.2607
13.2808
13.3005
13.3198
13.3358
13.3497
13.3616
13.3654
13.3631
13.3428
13.3047
13.2233
13.0721
12.8621
12.4272
175.672
22.2691
13.1366
13.1381
13.1511
13.1621
13.1766
13.1893
13.2017
13.2136
13.2279
13.2425
13.256
13.2659
13.2715
13.273
13.2649
13.2493
13.218
13.1586
13.0703
12.8824
12.7166
12.3596
175.656
22.1345
13.1213
13.1108
13.1178
13.1266
13.139
13.1486
13.1558
13.1621
13.1704
13.18
13.1881
13.193
13.1924
13.1857
13.1698
13.1414
13.1006
13.0281
12.9313
12.7694
12.6193
12.3654
175.611
22.0639
13.0937
13.0651
13.0765
13.0889
13.0998
13.1054
13.1074
13.1088
13.112
13.1164
13.1188
13.1178
13.1125
13.1004
13.0804
13.045
12.9967
12.9217
12.8196
12.6902
12.517
12.3724
175.507
22.0696
13.0538
13.0277
13.0401
13.0545
13.063
13.0629
13.0593
13.0565
13.0565
13.0561
13.0524
13.044
13.0333
13.0173
12.9946
12.9578
12.9063
12.8328
12.7346
12.6194
12.4776
12.3336
175.374
22.0951
12.9755
12.9905
13.0129
13.0251
13.0283
13.0228
13.015
13.0094
13.0075
13.0037
12.9945
12.9791
12.9607
12.9385
12.9116
12.8744
12.8232
12.754
12.6644
12.5576
12.4364
12.3062
175.253
22.0813
12.9214
12.9614
12.9876
12.9942
12.9867
12.9761
12.9694
12.9657
12.9652
12.9608
12.9479
12.9255
12.8987
12.8697
12.837
12.7958
12.7427
12.6757
12.5936
12.4972
12.3861
12.274
175.162
22.0319
12.8838
12.9424
12.9645
12.9603
12.9441
12.9288
12.9217
12.9218
12.9252
12.9226
12.9073
12.879
12.8464
12.8117
12.7729
12.7262
12.6679
12.5971
12.5154
12.4245
12.3219
12.2156
175.097
21.9358
12.8814
12.9361
12.9414
12.9211
12.8941
12.8776
12.8724
12.8778
12.8848
12.8811
12.8611
12.8284
12.7925
12.7558
12.7159
12.6664
12.6022
12.5232
12.4335
12.338
12.2365
12.1297
175.027
21.8483
12.9014
12.9252
12.9091
12.8718
12.8411
12.8275
12.8287
12.84
12.8462
12.8346
12.8039
12.7644
12.7262
12.6913
12.6551
12.6079
12.5428
12.457
12.3565
12.2488
12.1374
12.0205
174.936
21.8282
12.9042
12.895
12.8624
12.8137
12.7871
12.7834
12.7967
12.8123
12.8113
12.7846
12.7383
12.6893
12.6467
12.6119
12.5793
12.538
12.4782
12.3929
12.287
12.168
12.0424
11.909
174.827
21.8679
12.8814
12.8552
12.7998
12.7501
12.7351
12.7498
12.7763
12.79
12.7758
12.7307
12.6701
12.6118
12.5632
12.5249
12.4914
12.4524
12.3975
12.3182
12.2153
12.0946
11.9608
11.814
174.719
21.9519
12.8419
12.7955
12.721
12.6857
12.6929
12.7288
12.7583
12.7611
12.7317
12.6726
12.6036
12.5395
12.4856
12.4421
12.4039
12.3613
12.3045
12.227
12.1301
12.0167
11.8874
11.7408
174.626
22.0473
12.7883
12.7154
12.644
12.6362
12.6675
12.7116
12.7312
12.718
12.6732
12.6075
12.5373
12.474
12.4217
12.3786
12.337
12.2853
12.2155
12.1291
12.0311
11.9258
11.8094
11.6755
174.556
22.1052
12.7252
12.6389
12.5876
12.6111
12.6583
12.6921
12.6917
12.6597
12.6013
12.5331
12.4677
12.4137
12.375
12.3448
12.3063
12.2423
12.15
12.0433
11.9332
11.8277
11.7204
11.6031
174.5
22.1034
12.6541
12.5742
12.5649
12.6147
12.6576
12.6686
12.6456
12.5915
12.5204
12.4513
12.3945
12.3581
12.3424
12.3326
12.3015
12.2289
12.119
11.9917
11.8623
11.7439
11.633
11.5232
174.456
22.0181
12.5604
12.5429
12.5774
12.6357
12.6572
12.644
12.5956
12.5201
12.4384
12.369
12.3251
12.3136
12.3207
12.3236
12.2946
12.2199
12.1086
11.9769
11.8366
11.7006
11.5725
11.4531
174.429
21.8634
12.4754
12.5521
12.6111
12.6477
12.6463
12.6106
12.5384
12.4509
12.369
12.3085
12.2849
12.2918
12.3059
12.3011
12.261
12.1857
12.0862
11.9707
11.8404
11.7029
11.5624
11.4215
174.413
21.673
12.4501
12.5781
12.6272
12.6354
12.6145
12.5547
12.4675
12.3829
12.3193
12.2907
12.2907
12.298
12.2915
12.26
12.1981
12.1169
12.0283
11.938
11.8399
11.7295
11.5983
11.4438
174.413
21.5298
12.4902
12.5976
12.6152
12.6002
12.5484
12.4667
12.3868
12.3299
12.3114
12.324
12.3388
12.3269
12.2812
12.2066
12.1153
12.0213
11.9363
11.867
11.8077
11.7447
11.6466
11.4986
174.418
21.4933
12.5444
12.5999
12.5838
12.5333
12.4505
12.3674
12.3079
12.2944
12.3314
12.3792
12.3963
12.3634
12.2773
12.1594
12.0362
11.9229
11.8332
11.7764
11.7459
11.7181
11.6524
11.5287
174.406
21.5649
12.5823
12.581
12.5311
12.4444
12.349
12.2821
12.2614
12.2972
12.3636
12.414
12.4207
12.3735
12.2671
12.1267
11.9769
11.8429
11.7502
11.7053
11.6859
11.6602
11.6017
11.4963
174.361
21.6899
12.581
12.5392
12.4614
12.354
12.2768
12.2467
12.2674
12.323
12.3773
12.4044
12.3908
12.3263
12.2181
12.0856
11.9471
11.8284
11.7455
11.6893
11.6421
11.5872
11.5092
11.4007
174.274
21.8295
12.5371
12.4711
12.3745
12.3049
12.2706
12.278
12.3106
12.3475
12.3663
12.3551
12.3034
12.217
12.1202
12.0288
11.9496
11.8813
11.8104
11.7274
11.6322
11.5249
11.4049
11.2739
174.164
21.9473
12.4617
12.3702
12.3011
12.2884
12.3134
12.3563
12.3798
12.3714
12.3397
12.2765
12.1822
12.0818
11.9984
11.9525
11.9484
11.9468
11.9076
11.8063
11.664
11.4973
11.325
11.158
174.075
22.0059
12.3631
12.2936
12.2683
12.313
12.3856
12.4366
12.4425
12.4005
12.3037
12.1817
12.0654
11.9644
11.9092
11.9224
11.9631
11.9896
11.9725
11.882
11.7151
11.5065
11.2902
11.0851
174.063
21.9975
12.2611
12.2625
12.2801
12.3632
12.4314
12.4644
12.4574
12.3882
12.2668
12.1125
11.9809
11.8998
11.891
11.9207
11.9604
11.9829
11.971
11.9028
11.7502
11.5315
11.2909
11.0642
174.129
21.9133
12.2198
12.2757
12.3276
12.3953
12.4315
12.4386
12.4077
12.3271
12.2196
12.1032
12.0057
11.9501
11.9347
11.9369
11.9428
11.9354
11.904
11.8297
11.7055
11.5366
11.3344
11.1396
174.232
21.7873
12.2608
12.3394
12.3724
12.3871
12.3868
12.3545
12.295
12.2295
12.1787
12.138
12.0977
12.0613
12.0268
11.9877
11.9345
11.8676
11.7846
11.6884
11.5919
11.5034
11.4047
11.2783
174.27
21.6933
12.3719
12.4099
12.402
12.3757
12.3219
12.2495
12.1764
12.13
12.1231
12.1505
12.1845
12.1844
12.1396
12.0548
11.9332
11.7864
11.6461
11.5359
11.4621
11.4267
11.411
11.3797
174.289
21.6547
12.4491
12.4504
12.418
12.346
12.2432
12.1601
12.1092
12.1003
12.1329
12.2012
12.2673
12.2919
12.2349
12.0879
11.8971
11.7034
11.5431
11.4562
11.4466
11.4625
11.4849
11.4845
10.3487
11.3845
11.8774
12.0538
12.0935
12.1257
12.1499
12.1623
12.1088
12.3353
12.1656
12.1579
12.1272
12.1546
12.1582
12.1793
12.1404
12.1491
12.0421
12.1048
12.1215
12.1607
12.1417
12.1775
12.2182
12.1816
12.1207
12.1932
12.1844
12.1965
12.1418
12.1333
12.2252
12.16
12.0738
12.1197
12.1067
12.1155
12.0944
12.1192
12.2237
12.1401
12.0683
12.0649
12.0583
12.1062
12.126
12.1029
12.2029
12.0996
12.0149
11.9757
11.9337
11.9168
11.9291
12.0257
12.1608
12.0555
11.9503
11.8418
11.7331
11.6981
11.6743
12.0048
12.1017
11.9844
11.8584
11.7173
11.5203
11.2726
10.5993
8.61364
12.0148
11.8872
11.7424
11.5386
11.2607
10.7671
9.8956
7.87117
11.8951
11.751
11.5869
11.3527
11.019
10.4222
9.5105
7.70267
11.7632
11.5957
11.4016
11.1451
10.782
10.2112
9.31279
7.86762
11.6483
11.455
11.2245
10.9416
10.562
10.0346
9.25138
8.11748
11.5673
11.3579
11.0996
10.7893
10.3944
9.89699
9.24295
8.36403
11.5098
11.3041
11.041
10.7182
10.3171
9.83628
9.26477
8.56228
11.4573
11.2711
11.0223
10.7111
10.3231
9.8556
9.33178
8.73328
11.3916
11.2275
11.0077
10.729
10.3758
9.94307
9.46234
8.9247
11.3222
11.1675
10.9674
10.7222
10.4187
10.0469
9.62876
9.15224
11.2711
11.1041
10.9048
10.6743
10.4125
10.1033
9.75501
9.35419
11.263
11.0612
10.8424
10.6066
10.3641
10.098
9.81378
9.48327
11.2993
11.0629
10.8108
10.5516
10.3046
10.056
9.81208
9.54388
11.3401
11.0997
10.8317
10.5496
10.2803
10.0224
9.78695
9.55148
11.338
11.1289
10.8772
10.5943
10.3079
10.0321
9.7857
9.55293
11.2627
11.0973
10.902
10.6684
10.4053
10.1256
9.85091
9.58825
11.1424
11.0087
10.8699
10.7085
10.5174
10.2802
10.006
9.70699
11.0147
10.8985
10.8041
10.7064
10.5863
10.4121
10.1713
9.86817
10.9189
10.8065
10.7407
10.6869
10.6119
10.4809
10.276
9.99867
10.8882
10.7768
10.7122
10.657
10.5864
10.4679
10.288
10.0465
10.9807
10.8491
10.7344
10.6291
10.5204
10.385
10.2147
10.0069
11.1375
10.9854
10.8225
10.6464
10.4647
10.2829
10.0946
9.89564
11.2886
11.1274
10.9182
10.6803
10.4307
10.1922
9.97299
9.76759
11.4177
11.2481
10.9911
10.6884
10.3776
10.0936
9.877
9.73416
2.48438
1.02395
0.668601
0.697563
0.908496
1.37686
2.13034
2.82451
3.22017
3.59502
4.20741
4.65221
5.39857
6.18155
6.29357
6.4263
6.59474
6.7135
6.72766
6.68702
6.63087
6.59782
6.61317
6.57911
6.46115
6.31795
6.16059
6.00999
5.86005
5.70214
5.53348
5.37027
5.24342
5.14652
5.07352
5.03644
5.01375
4.986
4.94781
4.89309
4.81717
4.72244
4.5938
4.40363
4.18233
4.01873
3.9166
3.84479
3.77898
3.72523
3.67767
3.62519
3.61611
3.69841
3.97378
4.50785
5.15699
5.60865
5.59511
5.39285
5.25754
5.21231
5.2136
5.25237
5.31137
5.37315
5.40377
5.38691
5.34023
5.2528
5.09067
4.88115
4.75408
4.69877
4.66457
4.66154
4.70262
4.73231
4.70985
4.67023
4.62728
4.57087
4.48445
4.366
4.25807
4.19846
4.16498
4.1213
3.96039
2.6111
2.00133
1.63137
1.53797
1.62065
1.80601
2.07089
2.49717
3.06843
3.74599
4.28677
5.02679
6.02469
6.31817
6.50074
6.597
6.64228
6.62896
6.58876
6.52504
6.47439
6.43846
6.38676
6.31016
6.22615
6.1517
6.07572
5.96989
5.84578
5.7005
5.54158
5.38395
5.24309
5.13659
5.06003
4.99494
4.93167
4.85856
4.77256
4.68176
4.59131
4.4935
4.37673
4.26236
4.14162
4.00736
3.8856
3.79887
3.7359
3.68134
3.64013
3.6585
3.80605
4.08159
4.43708
4.88757
5.34589
5.52516
5.45082
5.33364
5.285
5.26611
5.27865
5.30993
5.33814
5.33956
5.30431
5.24749
5.15965
5.04089
4.93728
4.84471
4.76272
4.71213
4.69053
4.70791
4.72286
4.69214
4.64962
4.60036
4.53242
4.44228
4.34935
4.28161
4.22981
4.19168
4.14033
5.22322
3.80205
3.12934
2.60321
2.12392
1.99219
1.98072
2.05599
2.23763
2.58818
3.1684
3.93555
4.71221
5.79663
6.42087
6.78909
6.80076
6.74713
6.67529
6.63597
6.58865
6.51574
6.39134
6.22755
6.10022
6.02433
5.99853
5.9833
5.92114
5.83234
5.73457
5.63398
5.53877
5.43753
5.30662
5.14025
4.97578
4.85304
4.75469
4.66055
4.56464
4.45941
4.35695
4.28912
4.24276
4.18255
4.10367
3.99622
3.87212
3.74703
3.68908
3.68794
3.77904
4.01824
4.20611
4.33914
4.55711
4.95562
5.37339
5.49255
5.46332
5.43539
5.40668
5.35948
5.32522
5.29892
5.27025
5.22063
5.14292
5.04492
4.97425
4.93632
4.89071
4.83516
4.78489
4.7523
4.73305
4.70723
4.66957
4.62591
4.5681
4.48571
4.38594
4.31366
4.27401
4.23611
4.20702
4.16171
6.25612
4.95201
4.11985
3.63265
3.06998
2.65412
2.58586
2.49671
2.39118
2.45507
2.68099
3.21062
3.85669
4.8705
5.97924
6.79099
6.87716
6.79727
6.7063
6.68791
6.63137
6.53705
6.396
6.21922
6.08149
6.00316
5.96166
5.92588
5.87641
5.82024
5.7599
5.69835
5.62336
5.5246
5.38072
5.19204
4.99025
4.8107
4.6696
4.55664
4.4549
4.36556
4.30079
4.25629
4.22298
4.18537
4.1288
4.05132
3.95143
3.82187
3.75991
3.82189
4.00047
4.24053
4.30472
4.32258
4.40335
4.63451
5.04111
5.3793
5.54233
5.56666
5.52585
5.44065
5.34213
5.2518
5.18635
5.12838
5.06156
5.00378
4.97137
4.94884
4.92693
4.90141
4.86646
4.81526
4.75153
4.69155
4.63879
4.5812
4.51283
4.43396
4.36981
4.33096
4.29311
4.25872
4.23238
4.17177
6.99143
5.95355
5.05879
4.49536
3.99907
3.42852
3.14916
3.04331
2.83871
2.65849
2.7303
2.86325
3.09676
3.70189
4.98662
6.25872
6.84613
6.93644
6.84652
6.75899
6.65123
6.5352
6.422
6.31521
6.20913
6.09782
5.99742
5.9127
5.83648
5.77236
5.71128
5.63176
5.53744
5.42222
5.27117
5.10594
4.94298
4.77471
4.61091
4.48035
4.39157
4.33339
4.29328
4.27291
4.25302
4.2161
4.15763
4.08741
4.01259
3.93995
3.93298
4.06792
4.28588
4.38405
4.35452
4.32709
4.34506
4.4568
4.71571
5.09374
5.44116
5.57447
5.55688
5.46513
5.31343
5.16394
5.07066
5.02027
4.98718
4.97033
4.96964
4.9765
4.97911
4.96928
4.93733
4.88046
4.79012
4.68157
4.58565
4.50097
4.42835
4.38165
4.35178
4.3315
4.31341
4.29192
4.26196
4.18946
7.50749
6.67733
5.88971
5.2595
4.78999
4.26212
3.80047
3.63595
3.45526
3.17869
3.03451
3.00544
3.00408
3.09627
3.6228
4.96365
6.39208
6.93776
6.93258
6.8478
6.70615
6.59705
6.51896
6.43164
6.31374
6.15288
5.96182
5.80849
5.69662
5.60521
5.53043
5.46639
5.38424
5.2825
5.16677
5.05086
4.93675
4.80952
4.66299
4.52894
4.43813
4.37818
4.33716
4.31562
4.27944
4.20966
4.13056
4.05203
4.0171
4.0507
4.1794
4.41651
4.52933
4.49204
4.43791
4.40496
4.39633
4.4197
4.52827
4.78523
5.15478
5.39378
5.46718
5.41905
5.27084
5.10453
5.0277
4.99151
4.97068
4.97916
5.01153
5.04585
5.05695
5.03299
4.98557
4.89714
4.76594
4.62949
4.51431
4.4376
4.3907
4.36115
4.34411
4.34606
4.35014
4.33469
4.30139
4.21937
7.8744
7.17326
6.52852
5.9313
5.45254
5.00013
4.51372
4.20556
4.0156
3.78086
3.47347
3.27905
3.1797
3.15682
3.2094
3.62904
5.03648
6.48737
6.87845
6.84485
6.74251
6.64055
6.55162
6.45447
6.33242
6.17216
5.96333
5.76911
5.62123
5.49366
5.38219
5.29072
5.21616
5.1724
5.12993
5.06775
4.9955
4.90448
4.78874
4.66441
4.55773
4.46334
4.36346
4.25393
4.14964
4.05807
3.99604
3.98585
4.04531
4.23717
4.53567
4.64829
4.67625
4.62619
4.57434
4.5491
4.52031
4.47737
4.47241
4.56504
4.76576
5.0478
5.26724
5.31884
5.24203
5.11175
5.06205
5.03839
5.0367
5.06738
5.0972
5.09527
5.07066
5.02428
4.95139
4.84801
4.70884
4.5647
4.46955
4.4128
4.3785
4.3563
4.35598
4.38899
4.40192
4.38057
4.3397
4.2291
8.1464
7.55373
6.98196
6.48943
6.01471
5.5942
5.16711
4.78659
4.53036
4.32601
4.05392
3.72961
3.54742
3.43262
3.32276
3.34107
3.73612
5.22949
6.4091
6.67508
6.70159
6.65123
6.55092
6.44322
6.31418
6.15107
5.97843
5.80585
5.63282
5.48264
5.35559
5.25146
5.17225
5.11926
5.11886
5.1103
5.044
4.96222
4.85534
4.71997
4.58098
4.44952
4.31907
4.17469
4.04257
3.93401
3.9074
3.95749
4.19813
4.54032
4.77145
4.80975
4.79758
4.77497
4.74417
4.70602
4.63558
4.52493
4.43451
4.40375
4.44318
4.58735
4.87708
5.11758
5.19372
5.16455
5.14866
5.14962
5.15851
5.14597
5.11187
5.07298
5.02463
4.96424
4.87776
4.75967
4.63662
4.54357
4.48026
4.43408
4.4012
4.38732
4.40808
4.44008
4.42596
4.38827
4.33266
4.21135
8.38958
7.85173
7.34764
6.8956
6.48395
6.05995
5.67629
5.31314
5.00568
4.77516
4.55792
4.28952
3.99488
3.75993
3.60166
3.4742
3.471
3.86911
5.29107
6.25617
6.51273
6.55912
6.48783
6.38536
6.26703
6.12168
5.9824
5.85143
5.71069
5.54664
5.38671
5.26912
5.18101
5.11404
5.05964
5.00544
4.94623
4.87867
4.80062
4.69128
4.55455
4.40362
4.24432
4.08629
3.96172
3.91031
3.94294
4.16497
4.52977
4.80379
4.94052
4.97832
4.95327
4.91189
4.85953
4.78376
4.67175
4.53536
4.40163
4.29259
4.26703
4.29732
4.47707
4.80089
5.07908
5.20803
5.24877
5.24499
5.20848
5.15441
5.09308
5.03187
4.96444
4.87554
4.7675
4.67088
4.59713
4.55376
4.52127
4.49475
4.47891
4.47532
4.46212
4.42904
4.38537
4.33535
4.27088
4.18001
8.65553
8.14014
7.65056
7.21982
6.81893
6.42229
6.04871
5.73
5.42673
5.16047
4.95033
4.73491
4.47238
4.19418
3.9536
3.76507
3.60799
3.57543
3.96849
5.2654
6.15913
6.40951
6.36427
6.27357
6.17497
6.06834
5.96623
5.86776
5.75802
5.6208
5.46008
5.31322
5.19617
5.08593
4.98435
4.90753
4.83986
4.77104
4.69601
4.60682
4.49193
4.34611
4.19929
4.06134
3.96592
3.99114
4.21099
4.57451
4.86624
5.00509
5.09647
5.09673
5.03805
4.96798
4.89001
4.79589
4.66463
4.50935
4.38222
4.27873
4.23253
4.22881
4.28366
4.51518
4.86474
5.18334
5.27725
5.26641
5.21652
5.13792
5.05673
4.96765
4.86941
4.77649
4.70557
4.64009
4.60002
4.58012
4.57785
4.58521
4.57769
4.54435
4.4913
4.41466
4.33605
4.25665
4.16769
4.15318
8.92266
8.45494
7.9696
7.51037
7.11416
6.71166
6.3342
6.03185
5.77089
5.49943
5.24525
5.04757
4.83316
4.59191
4.35204
4.11021
3.88159
3.69719
3.65985
4.05023
5.28312
6.08086
6.23557
6.13817
6.06235
6.01704
5.95407
5.86648
5.76025
5.63241
5.48509
5.3306
5.18328
5.0467
4.91474
4.8062
4.72554
4.65177
4.5741
4.48763
4.38789
4.27253
4.16544
4.09785
4.11967
4.32118
4.70448
4.96844
5.09592
5.1312
5.11082
5.06986
5.01406
4.94907
4.87083
4.76909
4.63782
4.50702
4.40026
4.30565
4.25077
4.22126
4.23687
4.36596
4.64549
5.01504
5.21136
5.2499
5.2103
5.11557
4.99898
4.87678
4.7925
4.74023
4.69354
4.65628
4.64204
4.65141
4.66808
4.65972
4.62302
4.56594
4.48018
4.36905
4.2488
4.1496
4.11091
4.17892
9.11863
8.72387
8.30275
7.85444
7.39662
6.98882
6.61407
6.28858
6.00785
5.75099
5.50821
5.26165
5.07685
4.88716
4.6782
4.4601
4.20965
3.94983
3.75588
3.73259
4.13199
5.299
5.96894
6.0481
5.96236
5.89427
5.84217
5.76709
5.67974
5.58315
5.45949
5.31315
5.16679
5.02127
4.88159
4.74632
4.6359
4.54777
4.46355
4.37471
4.28292
4.21315
4.19264
4.25201
4.46324
4.88435
5.16474
5.21029
5.19194
5.1406
5.0834
5.02217
4.96562
4.89718
4.81115
4.71633
4.62988
4.54163
4.45184
4.38581
4.33897
4.30247
4.2976
4.33811
4.46212
4.69672
4.9825
5.13919
5.15077
5.07333
4.92407
4.81869
4.76691
4.7328
4.7142
4.71511
4.72838
4.728
4.70473
4.66332
4.60877
4.53879
4.43207
4.28496
4.1642
4.12445
4.1267
4.27979
9.24061
8.90672
8.54883
8.1641
7.74563
7.29677
6.89095
6.55487
6.25549
5.98533
5.70766
5.46503
5.24576
5.07571
4.90384
4.71591
4.50286
4.24444
3.97478
3.80607
3.79934
4.1994
5.20714
5.82539
5.89272
5.81893
5.74038
5.662
5.57543
5.48555
5.38599
5.27389
5.14647
5.01093
4.86681
4.72028
4.58951
4.48314
4.38615
4.29852
4.23039
4.21878
4.28739
4.54223
4.99327
5.32973
5.4031
5.34023
5.23268
5.12227
5.02581
4.95687
4.90461
4.8511
4.7865
4.7102
4.63682
4.59225
4.55535
4.51672
4.46923
4.41705
4.35651
4.31519
4.31144
4.374
4.54761
4.82327
4.99366
4.98274
4.88061
4.80679
4.76546
4.74862
4.78022
4.81362
4.79168
4.7537
4.70255
4.63782
4.56057
4.46195
4.34154
4.22989
4.16197
4.16083
4.21442
4.45209
9.30194
9.02001
8.70886
8.36827
8.00762
7.63281
7.22662
6.83505
6.51227
6.212
5.93483
5.66122
5.421
5.22327
5.05069
4.87146
4.69072
4.48903
4.24126
3.99039
3.84714
3.84084
4.20669
5.0866
5.70766
5.75099
5.64439
5.54691
5.45832
5.37429
5.28781
5.19805
5.10429
4.99475
4.87118
4.72453
4.56453
4.44564
4.33263
4.2611
4.24451
4.28479
4.51654
5.00846
5.38068
5.47975
5.46176
5.37529
5.23997
5.09386
5.00463
4.94458
4.89214
4.845
4.79158
4.74278
4.70984
4.69269
4.6632
4.61701
4.54244
4.44899
4.3591
4.28241
4.20777
4.17493
4.21995
4.40558
4.69928
4.8694
4.85816
4.82526
4.80751
4.82248
4.83119
4.7995
4.76319
4.72477
4.67012
4.58382
4.46511
4.34354
4.26319
4.2287
4.23274
4.2983
4.44782
4.69994
9.31812
9.07172
8.7979
8.49691
8.17512
7.84906
7.52436
7.16506
6.79126
6.4549
6.15378
5.87594
5.61812
5.3795
5.17844
4.99139
4.79824
4.61872
4.44617
4.22821
3.99618
3.86329
3.84062
4.15875
4.96865
5.55965
5.5384
5.44852
5.34692
5.26663
5.19225
5.12228
5.05547
4.97754
4.87391
4.72003
4.55687
4.40161
4.29222
4.25596
4.27079
4.46193
4.94139
5.3961
5.51604
5.49834
5.44853
5.36258
5.23699
5.10602
5.02231
4.96408
4.91179
4.87044
4.84277
4.82883
4.81199
4.76948
4.70659
4.62179
4.53358
4.44314
4.34962
4.25743
4.16658
4.11102
4.10835
4.16555
4.3928
4.67489
4.84971
4.88989
4.91107
4.89166
4.8401
4.78276
4.73054
4.6776
4.60097
4.48321
4.354
4.27654
4.24608
4.25137
4.33856
4.52333
4.77415
4.92017
9.33622
9.0808
8.82515
8.55889
8.27293
7.98824
7.70744
7.41108
7.07963
6.72995
6.39643
6.09858
5.81987
5.55434
5.30874
5.10419
4.91838
4.73376
4.56023
4.3956
4.19182
3.96993
3.8409
3.80007
4.0839
4.84402
5.32203
5.34066
5.27311
5.17448
5.10094
5.04342
4.98051
4.90318
4.80161
4.66983
4.50676
4.35858
4.27926
4.27333
4.41955
4.89595
5.36291
5.54838
5.54064
5.49604
5.42887
5.35748
5.26451
5.16094
5.08682
5.03218
4.98554
4.94968
4.92035
4.8794
4.82507
4.76055
4.68331
4.5931
4.50836
4.43153
4.35131
4.25986
4.16402
4.10068
4.07713
4.09372
4.20522
4.45264
4.72391
4.91422
4.93506
4.90672
4.8371
4.75593
4.68002
4.60122
4.49818
4.38298
4.3052
4.26906
4.26761
4.33998
4.54416
4.78607
5.00491
5.02893
9.39976
9.10291
8.82982
8.56951
8.31453
8.06108
7.82362
7.57416
7.28248
6.96809
6.64463
6.32477
6.01796
5.72488
5.4564
5.22551
5.0278
4.8452
4.66973
4.49636
4.32219
4.11668
3.90673
3.78536
3.73704
4.00296
4.67691
5.07849
5.19854
5.11885
5.02385
4.95378
4.88077
4.80055
4.70196
4.5772
4.43233
4.3434
4.30292
4.40985
4.85751
5.39017
5.54465
5.57563
5.55033
5.49753
5.42908
5.36256
5.29985
5.24542
5.18414
5.12003
5.05875
4.99745
4.93529
4.87347
4.80656
4.72749
4.63909
4.55849
4.493
4.43064
4.36178
4.27713
4.18473
4.1266
4.09117
4.08651
4.13008
4.26313
4.50459
4.78194
4.90379
4.90152
4.82898
4.71742
4.61162
4.51518
4.42403
4.34776
4.3052
4.30165
4.35603
4.52784
4.77556
4.97823
5.07257
5.0575
9.51981
9.1701
8.85432
8.57915
8.32764
8.09335
7.87751
7.66981
7.42561
7.13826
6.83412
6.52243
6.20803
5.89525
5.60164
5.35168
5.14034
4.94609
4.76286
4.58921
4.418
4.23479
4.02369
3.82053
3.70557
3.66203
3.91587
4.46319
4.96628
5.05253
4.96921
4.86902
4.76837
4.66819
4.56424
4.44376
4.37799
4.35026
4.43377
4.8361
5.40843
5.66204
5.64307
5.59521
5.55886
5.51802
5.46214
5.40969
5.36944
5.3146
5.23252
5.14804
5.07282
5.00097
4.92846
4.8521
4.7666
4.67784
4.60641
4.54838
4.49433
4.44031
4.38444
4.32403
4.26074
4.19977
4.14523
4.09383
4.07485
4.10342
4.21825
4.43562
4.68498
4.79188
4.76101
4.66353
4.55888
4.47897
4.40028
4.3521
4.35128
4.40562
4.54567
4.76787
4.96531
5.0611
5.06828
4.99994
9.66177
9.29571
8.93634
8.61533
8.34984
8.11956
7.91302
7.71338
7.49524
7.24258
6.95989
6.65907
6.35073
6.04464
5.74786
5.48067
5.25059
5.04288
4.84898
4.66664
4.4933
4.31718
4.12518
3.90999
3.71841
3.61691
3.58044
3.8008
4.34179
4.82388
4.87719
4.78552
4.65793
4.53722
4.41596
4.34361
4.34776
4.43946
4.83502
5.46991
5.71575
5.72234
5.67025
5.6187
5.58544
5.5487
5.50018
5.44841
5.3832
5.30409
5.22028
5.14352
5.07189
4.99748
4.91535
4.82448
4.73147
4.65545
4.59867
4.55401
4.51363
4.47777
4.44226
4.40075
4.34235
4.25688
4.16447
4.08655
4.03273
3.99482
4.00561
4.08722
4.28023
4.51761
4.6304
4.60492
4.53647
4.46664
4.4175
4.41039
4.46297
4.6022
4.81803
5.02056
5.09989
5.07935
5.00751
4.8774
9.75437
9.42288
9.06854
8.72195
8.4056
8.15687
7.95477
7.7428
7.51447
7.27516
7.01879
6.73906
6.45069
6.15928
5.87538
5.60874
5.3645
5.1387
4.9267
4.73017
4.54934
4.37675
4.1987
4.00103
3.78599
3.60895
3.51607
3.49689
3.7026
4.21223
4.6271
4.65182
4.55834
4.42852
4.31142
4.30314
4.38829
4.79235
5.4507
5.8371
5.86816
5.78102
5.69783
5.64838
5.61514
5.57092
5.5144
5.4473
5.36475
5.27197
5.19412
5.13047
5.06755
4.99761
4.91152
4.80832
4.71602
4.65405
4.61061
4.57519
4.5573
4.53975
4.50414
4.45084
4.36559
4.25771
4.16288
4.08161
4.01053
3.94605
3.90307
3.90908
3.98515
4.18343
4.42669
4.53594
4.50921
4.49875
4.4983
4.53628
4.65531
4.87885
5.11396
5.19917
5.17316
5.08027
4.93137
4.80225
9.76366
9.48428
9.17204
8.85871
8.5707
8.29876
8.03063
7.7748
7.52208
7.27093
7.02675
6.774
6.49841
6.22651
5.96496
5.71373
5.47187
5.23719
5.00909
4.79199
4.59103
4.40696
4.23356
4.05775
3.86557
3.66212
3.50136
3.42129
3.4081
3.59417
4.02913
4.35347
4.4348
4.34034
4.29134
4.34334
4.6976
5.39225
5.86392
5.9184
5.88338
5.80856
5.73587
5.67991
5.62339
5.56565
5.50159
5.42099
5.32892
5.24932
5.18226
5.12215
5.06441
5.0015
4.91734
4.80567
4.72337
4.67843
4.64624
4.62819
4.60009
4.55666
4.50549
4.44117
4.35553
4.25683
4.16591
4.08665
4.01303
3.94098
3.88128
3.85619
3.86845
3.96536
4.18487
4.40329
4.50137
4.54436
4.58835
4.69502
4.89028
5.14328
5.2669
5.2559
5.17964
5.03963
4.90511
4.80048
9.69411
9.49007
9.26562
8.99452
8.71447
8.43422
8.12598
7.82047
7.54632
7.27446
7.00984
6.76857
6.52413
6.27019
6.02507
5.79047
5.56017
5.32734
5.08854
4.85045
4.6268
4.42767
4.24879
4.08032
3.91243
3.72908
3.54526
3.40006
3.31633
3.30093
3.43908
3.79217
4.16242
4.21211
4.31797
4.6505
5.28361
5.80935
6.02411
5.98239
5.90489
5.83041
5.76143
5.68826
5.60919
5.53495
5.4632
5.38837
5.31332
5.24273
5.1837
5.12797
5.07166
5.01202
4.93174
4.83079
4.76038
4.70972
4.66046
4.61143
4.56788
4.52371
4.47131
4.40566
4.33089
4.25698
4.18137
4.10593
4.02958
3.95372
3.89012
3.84652
3.8311
3.86274
3.97731
4.19813
4.39437
4.51878
4.66874
4.86466
5.07829
5.26341
5.2953
5.24518
5.15737
5.05835
4.95651
4.86763
9.58593
9.43173
9.27033
9.07565
8.82503
8.52922
8.20785
7.89104
7.58138
7.27549
6.9886
6.73951
6.52904
6.30018
6.07066
5.84463
5.61862
5.38812
5.14684
4.89915
4.6616
4.44706
4.25493
4.08238
3.92284
3.76758
3.60239
3.43705
3.29348
3.1968
3.1498
3.29381
3.66802
4.06625
4.57393
5.21488
5.74571
5.93912
5.99273
5.97447
5.91133
5.8478
5.78114
5.68901
5.57701
5.48536
5.42208
5.36842
5.31438
5.26098
5.21277
5.15977
5.10231
5.02769
4.93152
4.85194
4.79602
4.73999
4.68067
4.61872
4.55087
4.48135
4.4144
4.35205
4.29553
4.24395
4.19529
4.13692
4.06198
3.98671
3.93135
3.8855
3.85235
3.83058
3.87051
3.9899
4.22124
4.47704
4.7532
5.00913
5.19525
5.25046
5.24628
5.19461
5.12526
5.05602
5.0083
4.95864
9.61231
9.47371
9.33135
9.16604
8.91712
8.60276
8.27875
7.93591
7.57729
7.24767
6.97013
6.72805
6.5304
6.32703
6.10165
5.8766
5.65133
5.42523
5.19191
4.94428
4.6887
4.45308
4.2498
4.07505
3.91863
3.77791
3.6341
3.47628
3.30802
3.15305
3.02086
3.05233
3.25515
3.89814
4.81131
5.63601
6.19752
6.0955
6.01128
5.96938
5.92169
5.86085
5.7916
5.68367
5.54426
5.45372
5.39843
5.35178
5.32308
5.29397
5.24266
5.18388
5.10886
5.01525
4.92624
4.85741
4.79405
4.73219
4.66957
4.60075
4.52038
4.43425
4.36166
4.3113
4.27335
4.2445
4.2127
4.17092
4.10152
4.01646
3.95067
3.89281
3.84125
3.79951
3.79181
3.8406
4.00632
4.34929
4.74777
5.08873
5.28495
5.25465
5.20083
5.14523
5.09331
5.06466
5.08366
5.0593
)
;

boundaryField
{
    inlet
    {
        type            fixedValue;
        value           uniform 1;
    }
    outlet
    {
        type            zeroGradient;
    }
    bottom
    {
        type            zeroGradient;
    }
    top
    {
        type            zeroGradient;
    }
    obstacle
    {
        type            zeroGradient;
    }
    defaultFaces
    {
        type            empty;
    }
}


// ************************************************************************* //
