/*--------------------------------*- C++ -*----------------------------------*\
  =========                 |
  \\      /  F ield         | OpenFOAM: The Open Source CFD Toolbox
   \\    /   O peration     | Website:  https://openfoam.org
    \\  /    A nd           | Version:  7
     \\/     M anipulation  |
\*---------------------------------------------------------------------------*/
FoamFile
{
    version     2.0;
    format      ascii;
    class       volScalarField;
    location    "7.5";
    object      rho;
}
// * * * * * * * * * * * * * * * * * * * * * * * * * * * * * * * * * * * * * //

dimensions      [1 -3 0 0 0 0 0];

internalField   nonuniform List<scalar> 
3328
(
65.3529
11.5697
7.36351
7.3787
7.38599
7.39494
7.40472
7.41588
7.4279
7.44057
7.45373
7.46756
7.48209
7.49743
7.51297
7.52871
7.54358
7.55792
7.56785
7.57171
7.55895
7.5312
7.50321
7.49502
65.3425
11.5676
7.36191
7.37679
7.38393
7.39258
7.40198
7.41269
7.42428
7.43658
7.4495
7.4632
7.4776
7.49271
7.5078
7.52303
7.53747
7.55154
7.56124
7.56462
7.55077
7.52157
7.49213
7.48291
65.3235
11.5605
7.3589
7.37312
7.38003
7.38814
7.39697
7.40711
7.4181
7.42982
7.44228
7.45568
7.46984
7.48461
7.49904
7.51335
7.52674
7.53977
7.54873
7.55176
7.53802
7.50914
7.47993
7.47098
65.2941
11.5498
7.3538
7.36712
7.3738
7.38127
7.38937
7.39871
7.40905
7.42009
7.43186
7.44467
7.45828
7.47254
7.4862
7.49953
7.5119
7.52409
7.53285
7.53579
7.52166
7.49086
7.45891
7.44794
65.2494
11.535
7.34624
7.35836
7.36469
7.3716
7.37909
7.38768
7.39722
7.40763
7.41862
7.43057
7.44329
7.45675
7.46961
7.48186
7.49276
7.50237
7.50819
7.50713
7.49032
7.45948
7.4269
7.42022
65.1879
11.5155
7.33607
7.34676
7.35265
7.35895
7.36591
7.37394
7.38279
7.39242
7.40264
7.41357
7.4251
7.43731
7.44905
7.45973
7.46869
7.47532
7.47971
7.47819
7.46421
7.43245
7.38983
7.35946
65.1099
11.4904
7.3235
7.33264
7.33815
7.34379
7.35013
7.35742
7.3657
7.37457
7.38398
7.39377
7.4039
7.41427
7.42445
7.43312
7.44015
7.44393
7.44544
7.43809
7.41408
7.3603
7.30101
7.27879
65.0192
11.4591
7.3093
7.31669
7.32193
7.32686
7.33252
7.33872
7.34605
7.35401
7.36257
7.37111
7.37974
7.38787
7.39596
7.40203
7.4064
7.40689
7.40301
7.39059
7.36244
7.31045
7.22614
7.27504
64.9285
11.4225
7.29452
7.29985
7.30474
7.30876
7.31367
7.31859
7.32456
7.33111
7.33858
7.34577
7.35281
7.35858
7.36378
7.36686
7.36762
7.36484
7.35608
7.34009
7.29924
7.22894
7.01226
6.74131
64.8516
11.3797
7.28149
7.28341
7.28748
7.29026
7.29428
7.29787
7.30222
7.30688
7.31257
7.31816
7.32345
7.32701
7.32885
7.32894
7.32535
7.31916
7.30597
7.28402
7.23891
7.15435
7.02649
6.77533
64.7957
11.3312
7.26846
7.26689
7.26966
7.27129
7.2741
7.27654
7.2791
7.28142
7.28469
7.28842
7.29176
7.2934
7.29249
7.28934
7.28209
7.27185
7.25525
7.22629
7.18339
7.09232
6.99333
6.79752
64.7466
11.2726
7.25623
7.24926
7.25027
7.25088
7.25263
7.25409
7.25466
7.25458
7.2553
7.25698
7.25821
7.25801
7.25505
7.24931
7.24
7.2257
7.2063
7.17374
7.13111
7.05698
6.97436
6.83859
64.6777
11.2357
7.24093
7.22477
7.22633
7.22835
7.23016
7.23055
7.22919
7.22714
7.22581
7.22537
7.22444
7.22183
7.21701
7.20942
7.19877
7.1823
7.16097
7.12884
7.08576
7.03011
6.94943
6.86796
64.5628
11.2196
7.22089
7.19994
7.20233
7.20532
7.20743
7.20654
7.20323
7.19938
7.1968
7.19488
7.19196
7.1867
7.17972
7.17033
7.15837
7.14133
7.11916
7.08859
7.04819
7.00093
6.94007
6.86997
64.4014
11.2181
7.17742
7.17443
7.17965
7.18318
7.18427
7.18189
7.17712
7.17237
7.16931
7.16658
7.1621
7.15462
7.14518
7.13346
7.1196
7.10205
7.07981
7.05104
7.01431
6.97131
6.92292
6.86715
64.237
11.1955
7.13605
7.14683
7.15594
7.15906
7.15687
7.15202
7.14782
7.14453
7.14275
7.14056
7.13532
7.12587
7.11385
7.10006
7.08443
7.06563
7.04251
7.01412
6.97972
6.94012
6.89626
6.85231
64.0903
11.1537
7.10268
7.12363
7.1326
7.13213
7.1262
7.1196
7.1153
7.11394
7.11447
7.11405
7.10927
7.09854
7.08465
7.06933
7.05224
7.03218
7.00798
6.97851
6.9437
6.90476
6.86227
6.82066
63.9667
11.0905
7.08423
7.10655
7.10972
7.10264
7.09188
7.0843
7.08074
7.08176
7.08448
7.08467
7.07932
7.06756
7.053
7.03741
7.02053
7.00065
6.97577
6.94469
6.90777
6.86644
6.82196
6.77703
63.85
11.0315
7.07801
7.0891
7.08386
7.06948
7.05593
7.04925
7.04804
7.05164
7.05511
7.05321
7.04421
7.02979
7.01437
6.99973
6.98494
6.96697
6.94306
6.91133
6.87254
6.82812
6.77959
6.72803
63.7247
11.0008
7.06753
7.06486
7.05271
7.03317
7.02009
7.01635
7.01967
7.02576
7.02761
7.02097
7.00563
6.98684
6.96934
6.95467
6.94133
6.926
6.90508
6.87495
6.83624
6.7904
6.73905
6.68182
63.5895
10.995
7.04688
7.03673
7.01749
6.9947
6.98479
6.98683
6.99559
7.00247
7.00059
6.98751
6.96591
6.94276
6.92238
6.90599
6.89205
6.87751
6.85867
6.8313
6.79474
6.75017
6.69894
6.64007
63.4512
11.0066
7.01931
7.00369
6.97564
6.95591
6.95223
6.9614
6.97325
6.97758
6.9708
6.95203
6.9265
6.90068
6.87807
6.85946
6.8435
6.82739
6.80753
6.78057
6.74566
6.70377
6.65541
6.5998
63.3183
11.0233
6.98691
6.96385
6.93258
6.92056
6.92503
6.93961
6.9498
6.94878
6.93599
6.91331
6.88657
6.86078
6.83865
6.82037
6.80379
6.78513
6.76041
6.7289
6.69173
6.65107
6.60647
6.5565
63.1941
11.0307
6.95233
6.92214
6.89498
6.89355
6.90546
6.92007
6.92438
6.91628
6.89674
6.87097
6.84453
6.82136
6.80359
6.79054
6.77755
6.75742
6.72579
6.68526
6.64087
6.59717
6.55328
6.50766
63.0772
11.0214
6.91533
6.88248
6.86541
6.87639
6.89313
6.90246
6.89837
6.88137
6.85477
6.82603
6.80057
6.78187
6.77136
6.76666
6.75969
6.74011
6.70399
6.65652
6.604
6.55301
6.50461
6.45831
62.9676
10.9907
6.87317
6.84819
6.84823
6.86921
6.88404
6.88537
6.87237
6.84625
6.81344
6.782
6.75773
6.74506
6.74352
6.74558
6.74145
6.72214
6.68602
6.63844
6.58403
6.528
6.47218
6.41892
62.8759
10.9298
6.81955
6.82613
6.84395
6.86502
6.8722
6.8657
6.84408
6.81142
6.77678
6.74613
6.72648
6.7205
6.72304
6.72478
6.71677
6.69462
6.66028
6.61846
6.57018
6.51712
6.45986
6.40053
62.8023
10.8558
6.78322
6.82231
6.84405
6.85487
6.85291
6.83838
6.80924
6.77511
6.74437
6.72288
6.71395
6.71269
6.71065
6.70247
6.68384
6.65542
6.62126
6.58533
6.54738
6.50636
6.45807
6.40093
62.7412
10.7763
6.77599
6.82329
6.8366
6.83577
6.82412
6.79739
6.76483
6.73712
6.71914
6.71574
6.71894
6.7179
6.70499
6.67956
6.64516
6.60705
6.57018
6.53772
6.50962
6.48397
6.4518
6.40499
62.6802
10.7235
6.78873
6.82158
6.82137
6.80884
6.78194
6.74718
6.71813
6.69915
6.70106
6.71587
6.72824
6.72529
6.70191
6.66044
6.61052
6.56099
6.51777
6.48504
6.46454
6.45103
6.43131
6.39491
62.6079
10.7059
6.80265
6.8136
6.80091
6.77329
6.73421
6.70008
6.67804
6.6781
6.69532
6.71766
6.72871
6.72207
6.69276
6.64411
6.58567
6.52625
6.47664
6.44378
6.42741
6.41685
6.39866
6.36524
62.5223
10.722
6.80127
6.79343
6.77154
6.73378
6.69321
6.66866
6.66286
6.6743
6.69503
6.71023
6.71221
6.69748
6.66374
6.61708
6.56361
6.51045
6.46617
6.43348
6.40842
6.38471
6.35627
6.31718
62.4247
10.7614
6.7814
6.76281
6.73241
6.69729
6.6742
6.66578
6.66919
6.68057
6.69021
6.69063
6.67724
6.64807
6.61052
6.57228
6.53772
6.50825
6.47978
6.44694
6.40843
6.36366
6.31545
6.26178
62.325
10.8109
6.7458
6.71848
6.68611
6.66931
6.66695
6.6787
6.69138
6.69299
6.68332
6.66276
6.62959
6.58824
6.5479
6.51783
6.50471
6.50386
6.49836
6.47256
6.4232
6.35883
6.28758
6.2148
62.2374
10.8517
6.70436
6.67211
6.65265
6.65656
6.67458
6.69988
6.71155
6.70611
6.67869
6.63193
6.5809
6.53356
6.4958
6.48159
6.48983
6.50218
6.5058
6.48849
6.43992
6.36516
6.27845
6.18935
62.1835
10.8641
6.66117
6.64771
6.63939
6.65837
6.68779
6.70722
6.71398
6.70269
6.66458
6.60915
6.54744
6.4978
6.47322
6.47323
6.48316
6.49413
6.49597
6.48241
6.44324
6.3724
6.28126
6.18393
62.1633
10.8408
6.63659
6.63885
6.64426
6.66907
6.68913
6.69847
6.69484
6.67313
6.63611
6.59117
6.54504
6.50929
6.48998
6.4833
6.48074
6.47776
6.46874
6.44869
6.41108
6.35526
6.28238
6.19972
62.1574
10.777
6.63791
6.65414
6.66581
6.67375
6.67594
6.66933
6.64957
6.62247
6.59731
6.57931
6.56164
6.54424
6.5276
6.51037
6.48972
6.46236
6.42963
6.39159
6.35023
6.31099
6.27355
6.229
62.1478
10.7034
6.66005
6.68462
6.68506
6.6781
6.66078
6.63341
6.60065
6.57323
6.55831
6.56036
6.57244
6.58114
6.57305
6.54615
6.50451
6.44857
6.38642
6.33066
6.2877
6.25907
6.24529
6.23517
62.1507
10.6633
6.69549
6.7037
6.69878
6.67711
6.64053
6.5974
6.56766
6.54991
6.55168
6.56785
6.5953
6.61599
6.61451
6.57552
6.50823
6.42673
6.35011
6.28919
6.2621
6.2595
6.26145
6.2645
5.8052
6.19111
6.3032
6.24873
6.12103
6.00706
5.94641
5.93289
6.54423
6.57249
6.43327
6.31153
6.15321
6.03334
5.95843
5.94534
6.63121
6.55156
6.42506
6.33676
6.19872
6.07734
5.98602
5.97223
6.72981
6.64271
6.53187
6.45081
6.30629
6.16741
6.05519
6.02151
6.77735
6.70362
6.60131
6.5259
6.3906
6.24461
6.12874
6.10103
6.80474
6.74135
6.66749
6.59918
6.49022
6.35767
6.22884
6.168
6.81401
6.75217
6.68973
6.63061
6.53876
6.39769
6.23348
6.17514
6.80506
6.75351
6.69261
6.62211
6.52977
6.41389
6.21044
6.13312
6.7773
6.73074
6.67445
6.60276
6.49532
6.3358
5.929
4.8496
6.73199
6.68406
6.62827
6.54374
6.42072
6.19302
5.76022
4.77357
6.67487
6.61765
6.55504
6.46352
6.32832
6.07556
5.66647
4.82848
6.61855
6.54807
6.46953
6.36779
6.22247
5.98664
5.60404
4.94362
6.57115
6.48998
6.39393
6.27731
6.12172
5.90324
5.57148
5.07394
6.53232
6.44819
6.3419
6.2124
6.04707
5.83823
5.55877
5.17711
6.49492
6.41625
6.31207
6.18063
6.0135
5.8098
5.56388
5.25591
6.45341
6.38539
6.29206
6.16996
6.01214
5.81713
5.59115
5.32951
6.40682
6.34581
6.2643
6.15893
6.0203
5.84587
5.6449
5.4149
6.36372
6.30293
6.22688
6.134
6.01743
5.86973
5.70095
5.50464
6.33629
6.26696
6.18741
6.09633
5.99302
5.86898
5.73005
5.56861
6.33051
6.24815
6.1566
6.05754
5.95572
5.8454
5.7293
5.59705
6.33657
6.24747
6.14446
6.03258
5.92277
5.81279
5.70836
5.59667
6.33446
6.25023
6.14793
6.03101
5.91229
5.79487
5.68714
5.58271
6.31273
6.24091
6.15085
6.04295
5.92398
5.80016
5.6842
5.57622
6.26705
6.20591
6.13458
6.04986
5.9512
5.83638
5.71655
5.59603
6.20637
6.15088
6.09549
6.03368
5.96421
5.8784
5.77369
5.6526
6.14783
6.09083
6.04511
6.00352
5.95885
5.9008
5.8196
5.71144
6.1083
6.04458
6.00248
5.9736
5.94602
5.90437
5.83886
5.74423
6.09562
6.02835
5.98539
5.95498
5.9271
5.88788
5.82781
5.74314
6.12309
6.05854
6.00335
5.95236
5.90486
5.85256
5.78894
5.71097
6.17354
6.11179
6.04567
5.97432
5.89722
5.81872
5.73988
5.65773
6.21383
6.16561
6.09148
6.0004
5.89922
5.79544
5.69751
5.60579
6.2553
6.21361
6.13178
6.01991
5.89432
5.76804
5.65624
5.5732
1.88902
0.967298
0.706279
0.769098
0.877769
1.09959
1.45857
1.80216
2.23028
2.63001
2.86149
2.88557
3.10419
3.5064
3.73733
3.82277
3.83246
3.81881
3.83047
3.86063
3.90623
3.91109
3.88218
3.84473
3.80634
3.77713
3.74563
3.69212
3.62887
3.55124
3.46874
3.39873
3.34282
3.29676
3.25626
3.2222
3.19763
3.18422
3.17586
3.15981
3.13148
3.09334
3.04337
2.97309
2.88708
2.80616
2.73934
2.68301
2.63465
2.59411
2.55937
2.53117
2.53427
2.57553
2.71811
2.9972
3.32759
3.54693
3.54926
3.44864
3.35431
3.31808
3.30586
3.30922
3.32704
3.35418
3.38022
3.38697
3.37356
3.34969
3.30797
3.23483
3.1442
3.09199
3.06838
3.05303
3.05226
3.06759
3.0732
3.06052
3.04175
3.02068
2.99246
2.94808
2.88938
2.84592
2.82695
2.80438
2.8411
1.95493
1.60206
1.50733
1.44875
1.407
1.46086
1.63036
1.94567
2.35718
2.73986
2.88661
3.13207
3.58491
3.82101
3.92339
3.94274
3.9122
3.90186
3.90177
3.91615
3.8924
3.85225
3.81598
3.78922
3.77572
3.75828
3.71651
3.66715
3.61413
3.55897
3.50345
3.44328
3.37599
3.31045
3.2601
3.22257
3.19523
3.17328
3.13902
3.09594
3.04896
3.00051
2.95066
2.90157
2.85678
2.80278
2.73539
2.66393
2.60844
2.576
2.55564
2.56765
2.64511
2.80058
2.98224
3.20618
3.41654
3.50137
3.47885
3.41433
3.37286
3.35086
3.34287
3.34917
3.36375
3.37742
3.37204
3.35201
3.32287
3.28145
3.22785
3.18238
3.14157
3.10694
3.08546
3.07624
3.08096
3.07933
3.06217
3.04127
3.01618
2.98209
2.94006
2.89793
2.86709
2.84584
2.81916
3.6432
2.83582
2.32915
2.09438
1.95212
1.79954
1.70118
1.76833
1.92489
2.13646
2.50399
2.8713
3.23872
3.7459
4.02201
4.16202
4.15673
4.12357
4.11324
4.11193
4.09315
4.04394
3.96187
3.88002
3.83179
3.80214
3.78577
3.74852
3.70614
3.66761
3.63306
3.60303
3.56916
3.52296
3.45953
3.3808
3.30745
3.24779
3.19714
3.14843
3.09783
3.04179
2.98276
2.93708
2.9091
2.89058
2.8585
2.81378
2.74975
2.67199
2.62541
2.62282
2.66666
2.79972
2.91162
2.96904
3.07336
3.25351
3.4523
3.51928
3.50704
3.4811
3.46204
3.43772
3.41856
3.40594
3.39606
3.38295
3.3558
3.31635
3.2685
3.23568
3.21635
3.19406
3.16863
3.14818
3.135
3.12336
3.10483
3.0839
3.05921
3.02639
2.98335
2.93772
2.91102
2.89146
2.87483
2.84947
4.18773
3.57867
3.05192
2.67992
2.49836
2.36809
2.19896
2.06858
2.04871
2.1023
2.27682
2.58622
2.94479
3.47845
3.96127
4.32053
4.35859
4.32781
4.29692
4.29204
4.25839
4.19792
4.11185
4.02253
3.9586
3.91533
3.88459
3.84481
3.803
3.76509
3.73447
3.71487
3.68768
3.64337
3.58201
3.49681
3.40942
3.32939
3.25423
3.1831
3.1152
3.05334
3.00813
2.97731
2.95761
2.94112
2.91296
2.87577
2.83408
2.78044
2.73668
2.76134
2.85051
2.97894
3.01894
3.01786
3.05213
3.15296
3.35146
3.5176
3.59262
3.60412
3.5895
3.55542
3.50936
3.46122
3.42586
3.40189
3.37368
3.33988
3.31052
3.29243
3.2775
3.26256
3.24737
3.22933
3.20603
3.17859
3.1494
3.11928
3.08541
3.04546
3.00381
2.97656
2.95837
2.94215
2.92846
2.89719
4.549
4.08023
3.64785
3.26084
2.97155
2.80347
2.65563
2.46234
2.30522
2.26453
2.33268
2.41862
2.55007
2.88659
3.5321
4.13788
4.4588
4.47945
4.43657
4.37583
4.31565
4.26342
4.21623
4.16711
4.10961
4.04481
3.97993
3.92065
3.87348
3.83484
3.80229
3.76838
3.72217
3.66849
3.60547
3.53298
3.4585
3.38158
3.29865
3.21402
3.14017
3.09049
3.05864
3.03526
3.01968
3.00238
2.97476
2.94451
2.92012
2.89666
2.89563
2.96355
3.07492
3.12545
3.10053
3.07241
3.06714
3.11609
3.24801
3.43883
3.60986
3.68511
3.68337
3.64954
3.58244
3.4999
3.43784
3.40441
3.38406
3.36785
3.3589
3.35435
3.34934
3.34286
3.33221
3.31231
3.28264
3.24117
3.19308
3.14588
3.10009
3.06134
3.03668
3.0194
3.00587
2.99733
2.98607
2.95216
4.79574
4.40681
4.05023
3.73485
3.43821
3.19307
3.04082
2.88503
2.68745
2.56708
2.53568
2.51632
2.49995
2.54433
2.82615
3.52208
4.26912
4.48308
4.46905
4.40509
4.35481
4.31662
4.2876
4.24748
4.18884
4.1042
4.00555
3.93498
3.88185
3.8327
3.78313
3.73671
3.6895
3.63797
3.58711
3.53834
3.48394
3.42162
3.34782
3.26678
3.20064
3.15678
3.12193
3.09325
3.07399
3.04967
3.01593
2.98633
2.96663
2.99223
3.06004
3.18794
3.25042
3.22644
3.17586
3.14498
3.12397
3.13307
3.19497
3.32889
3.51945
3.64898
3.68659
3.6745
3.61635
3.52392
3.45475
3.42626
3.40952
3.40247
3.40944
3.42156
3.42864
3.42336
3.40458
3.37539
3.32455
3.25964
3.20115
3.15198
3.115
3.09084
3.07339
3.06074
3.05394
3.04984
3.03861
3.00449
4.95382
4.63533
4.3346
4.06462
3.81731
3.56887
3.35979
3.21451
3.06652
2.90235
2.7679
2.69179
2.62203
2.58126
2.60321
2.83754
3.60395
4.27274
4.40165
4.37767
4.35697
4.33645
4.29399
4.24526
4.18707
4.11279
4.02754
3.94831
3.87334
3.80203
3.73336
3.67089
3.62113
3.58295
3.55882
3.5424
3.50801
3.46372
3.40718
3.33945
3.27957
3.23051
3.18333
3.13183
3.07549
3.01751
2.98336
2.97512
2.99734
3.08902
3.2554
3.32379
3.33253
3.30358
3.26008
3.23336
3.21183
3.19392
3.20058
3.24839
3.36307
3.51181
3.62069
3.64916
3.61948
3.54864
3.48788
3.46687
3.45433
3.45714
3.4753
3.48562
3.47809
3.45875
3.42959
3.38606
3.32591
3.25285
3.19141
3.15338
3.13008
3.11289
3.1011
3.09897
3.10191
3.09679
3.07878
3.04331
5.06832
4.79643
4.53614
4.31034
4.09025
3.87466
3.65642
3.48139
3.3578
3.23278
3.0724
2.92976
2.8341
2.75313
2.67902
2.68217
2.89976
3.67034
4.19551
4.30244
4.29631
4.29729
4.26486
4.22009
4.16659
4.09469
4.02683
3.96049
3.8828
3.79298
3.71108
3.64387
3.59587
3.56233
3.54781
3.53935
3.5178
3.48458
3.43895
3.37715
3.30993
3.24724
3.18309
3.11196
3.04335
2.98175
2.95183
2.96153
3.07462
3.24308
3.36496
3.39771
3.38837
3.36773
3.34726
3.32989
3.30324
3.25963
3.21264
3.19152
3.21462
3.29126
3.4319
3.54921
3.59051
3.56971
3.53735
3.523
3.51731
3.52053
3.5169
3.50124
3.48067
3.45508
3.42163
3.37231
3.30322
3.23331
3.18709
3.16224
3.14456
3.13305
3.1322
3.14073
3.13688
3.12207
3.10154
3.05761
5.17686
4.92692
4.69262
4.48707
4.29105
4.09496
3.90274
3.71781
3.57625
3.47088
3.35244
3.20243
3.05323
2.93849
2.8483
2.77145
2.75714
2.96549
3.67506
4.12455
4.236
4.24306
4.20438
4.15631
4.10966
4.06244
4.01311
3.95756
3.89254
3.80662
3.71152
3.64395
3.59655
3.55937
3.53364
3.50799
3.47362
3.43719
3.39858
3.3512
3.29477
3.22932
3.15406
3.07102
3.00039
2.94681
2.955
3.06378
3.24454
3.37459
3.43999
3.46231
3.45177
3.43236
3.41222
3.38543
3.34361
3.28267
3.2117
3.14286
3.11341
3.1286
3.21465
3.37432
3.50558
3.5769
3.58564
3.58424
3.57006
3.54615
3.5171
3.48545
3.45952
3.42881
3.38643
3.33166
3.27601
3.22945
3.20208
3.183
3.16877
3.16448
3.17197
3.1707
3.15239
3.12604
3.09154
3.05021
5.29252
5.06142
4.83311
4.63265
4.44702
4.24655
4.0724
3.91717
3.76255
3.63678
3.54401
3.4279
3.28698
3.14609
3.03805
2.93744
2.84413
2.81157
3.02063
3.66691
4.10879
4.19446
4.13641
4.0811
4.04995
4.02834
3.99451
3.95077
3.89274
3.81401
3.72944
3.66227
3.61006
3.56097
3.50855
3.4594
3.4149
3.37299
3.33377
3.29529
3.25357
3.19903
3.12683
3.0508
2.98401
2.98428
3.08943
3.26793
3.4097
3.47094
3.51013
3.52675
3.50219
3.46977
3.43707
3.39745
3.34552
3.2745
3.19684
3.12936
3.09164
3.08469
3.10234
3.20766
3.37535
3.53345
3.60503
3.6093
3.59139
3.55443
3.50918
3.45933
3.41458
3.37439
3.3367
3.30231
3.26797
3.24541
3.22967
3.21749
3.20951
3.20187
3.18742
3.16566
3.1352
3.10161
3.06324
3.03432
5.38941
5.19172
4.98749
4.77863
4.58224
4.38998
4.2002
4.05459
3.92537
3.78473
3.65842
3.57231
3.46555
3.34067
3.2233
3.10788
2.98739
2.88384
2.85516
3.0676
3.69163
4.0524
4.0814
4.03441
3.9985
3.97723
3.94895
3.90709
3.86068
3.80264
3.73618
3.67553
3.61357
3.54684
3.47615
3.40614
3.34572
3.30103
3.26481
3.22822
3.18694
3.13977
3.09495
3.04894
3.04398
3.13759
3.33323
3.46604
3.52549
3.54111
3.53463
3.51382
3.48818
3.45851
3.42559
3.38404
3.32693
3.25538
3.19127
3.13409
3.09566
3.07477
3.0742
3.12097
3.25171
3.43719
3.5674
3.59663
3.58837
3.55345
3.496
3.42125
3.35751
3.32561
3.30624
3.28851
3.27504
3.27103
3.26943
3.26353
3.24844
3.22352
3.18761
3.14493
3.10217
3.05868
3.01882
3.03943
5.44807
5.28403
5.11532
4.93074
4.72329
4.51894
4.33999
4.17972
4.04187
3.91261
3.77208
3.63783
3.55931
3.47787
3.37723
3.26947
3.14487
3.00668
2.90444
2.88588
3.10546
3.64904
3.97888
4.01159
3.97258
3.93152
3.89183
3.84887
3.80531
3.76432
3.72272
3.66824
3.60418
3.52992
3.44857
3.37033
3.30702
3.25892
3.21548
3.17056
3.12346
3.08685
3.0749
3.09727
3.2043
3.4117
3.5715
3.59693
3.58531
3.55599
3.52321
3.4908
3.46411
3.43445
3.39711
3.35024
3.29714
3.24702
3.19742
3.15725
3.12975
3.10567
3.0943
3.11022
3.17002
3.29222
3.45143
3.53776
3.55549
3.53296
3.46993
3.38671
3.33844
3.31306
3.29361
3.28391
3.29552
3.31248
3.30734
3.28825
3.26159
3.22238
3.16855
3.10637
3.05049
3.02014
3.01611
3.08729
5.47375
5.33912
5.19609
5.03678
4.8595
4.66942
4.47729
4.31097
4.16076
4.01873
3.8804
3.74202
3.62525
3.5485
3.4764
3.38506
3.27763
3.145
3.00219
2.91659
2.91156
3.11951
3.60064
3.94265
3.95011
3.89767
3.8342
3.78607
3.74843
3.71914
3.68515
3.64243
3.587
3.51261
3.42794
3.35061
3.28774
3.23544
3.1805
3.12779
3.08646
3.07391
3.09966
3.22229
3.45617
3.6406
3.68739
3.66731
3.61337
3.55115
3.49408
3.45617
3.43047
3.40371
3.37064
3.33225
3.2879
3.24797
3.22459
3.20709
3.18768
3.16545
3.13974
3.11565
3.11555
3.15106
3.24538
3.38069
3.46873
3.47449
3.43396
3.37011
3.3341
3.31325
3.29909
3.30238
3.31713
3.31319
3.29916
3.27881
3.25186
3.20553
3.13135
3.05832
3.02519
3.02521
3.05456
3.17415
5.47666
5.36434
5.2417
5.10057
4.94378
4.78543
4.62552
4.45017
4.27994
4.12573
3.98254
3.85141
3.72545
3.61341
3.52451
3.44494
3.3589
3.25837
3.12887
2.99492
2.92546
2.9262
3.11727
3.57996
3.87185
3.85187
3.7881
3.73257
3.69694
3.67253
3.63835
3.59532
3.544
3.47703
3.40495
3.34186
3.28579
3.22686
3.16382
3.11024
3.08962
3.09853
3.20159
3.44079
3.65216
3.71426
3.71193
3.67824
3.61741
3.53516
3.47474
3.44184
3.41592
3.39244
3.36368
3.32956
3.30029
3.28283
3.27236
3.25603
3.23172
3.19243
3.14642
3.10662
3.07258
3.04974
3.0689
3.15378
3.30106
3.3819
3.38829
3.36868
3.35392
3.34672
3.33796
3.32095
3.302
3.28616
3.27234
3.25164
3.22018
3.16639
3.09416
3.04633
3.04332
3.07318
3.14741
3.28303
5.47289
5.36886
5.25763
5.13165
4.99511
4.85759
4.72096
4.57693
4.41113
4.24192
4.09149
3.95638
3.82654
3.69994
3.58765
3.48721
3.39005
3.30196
3.2176
3.10942
2.99109
2.92531
2.91738
3.09455
3.51561
3.73324
3.73972
3.69914
3.65885
3.6207
3.58078
3.5404
3.49307
3.43514
3.38103
3.33689
3.28479
3.21909
3.15424
3.10087
3.09426
3.18083
3.41283
3.63691
3.72238
3.72256
3.7024
3.66341
3.6015
3.52979
3.47614
3.44348
3.41714
3.39215
3.37087
3.35204
3.34183
3.32958
3.30712
3.27133
3.2227
3.17507
3.13263
3.09241
3.05482
3.01812
2.99758
3.01794
3.12116
3.25749
3.34178
3.37731
3.39709
3.39501
3.3708
3.33698
3.29183
3.25784
3.234
3.20509
3.16523
3.11551
3.07582
3.06747
3.09387
3.16716
3.27565
3.37846
5.48031
5.36887
5.25493
5.13944
5.01908
4.8981
4.78014
4.65249
4.51182
4.36033
4.20871
4.06503
3.92789
3.78997
3.65272
3.53634
3.44064
3.35036
3.26485
3.18367
3.08319
2.96657
2.90218
2.88642
3.04707
3.38895
3.63305
3.67396
3.62778
3.56673
3.51258
3.46926
3.43168
3.39822
3.36448
3.3184
3.25462
3.18594
3.12528
3.09784
3.16171
3.39774
3.62988
3.73215
3.73035
3.70689
3.67241
3.63477
3.59236
3.54573
3.50382
3.46684
3.43659
3.41335
3.39933
3.3894
3.36794
3.33996
3.3034
3.25605
3.20143
3.15567
3.11728
3.0795
3.04215
3.00532
2.97908
2.97772
3.01286
3.13265
3.26115
3.36778
3.41501
3.40953
3.3824
3.34115
3.28533
3.22722
3.18376
3.14427
3.10708
3.08158
3.07803
3.10299
3.18284
3.28825
3.39099
3.42687
5.5201
5.38398
5.25572
5.13638
5.02358
4.91186
4.80306
4.69766
4.58019
4.44734
4.30825
4.16652
4.02119
3.87165
3.72416
3.59682
3.49411
3.40288
3.31631
3.22621
3.13171
3.0244
2.91651
2.86461
2.84751
2.98843
3.30378
3.57674
3.58852
3.53175
3.45333
3.40948
3.37504
3.34984
3.32747
3.28231
3.22063
3.15841
3.10834
3.15632
3.36696
3.6494
3.75113
3.74877
3.72138
3.68848
3.65564
3.62251
3.58995
3.56744
3.54346
3.50942
3.46735
3.43372
3.4083
3.38354
3.35766
3.32627
3.28327
3.23258
3.18974
3.15218
3.11549
3.07764
3.03864
2.99938
2.97499
2.96392
2.97534
3.03832
3.15556
3.29778
3.3796
3.38653
3.37094
3.33274
3.27135
3.19819
3.13974
3.10337
3.08393
3.08054
3.10292
3.18195
3.30508
3.40246
3.44578
3.43913
5.57631
5.42335
5.27378
5.14064
5.02291
4.91251
4.80919
4.71411
4.61752
4.50539
4.3783
4.24161
4.09848
3.94869
3.79836
3.66326
3.54973
3.4481
3.35351
3.2642
3.17574
3.07843
2.96604
2.86413
2.81807
2.80254
2.92885
3.23951
3.48495
3.47434
3.42218
3.36993
3.32946
3.29552
3.25293
3.20403
3.16147
3.1299
3.16173
3.36283
3.63181
3.79394
3.79606
3.75492
3.71385
3.68202
3.65299
3.62959
3.61492
3.59785
3.57074
3.5297
3.48038
3.43617
3.39871
3.36656
3.33405
3.29643
3.25581
3.21923
3.18533
3.15358
3.12093
3.08417
3.0466
3.01984
3.00081
2.98364
2.96897
2.98031
3.03311
3.14539
3.26937
3.31993
3.31892
3.28938
3.24293
3.18936
3.13166
3.09851
3.09149
3.10763
3.18078
3.30372
3.42267
3.46739
3.46204
3.42001
5.62153
5.47525
5.31903
5.16689
5.03153
4.91787
4.816
4.72314
4.63106
4.52901
4.41383
4.28681
4.15111
4.00812
3.86515
3.72881
3.60598
3.49503
3.39142
3.29413
3.20414
3.11687
3.02215
2.91166
2.81228
2.75964
2.74541
2.86457
3.17
3.3302
3.37699
3.34087
3.28859
3.23505
3.17855
3.13816
3.12831
3.15826
3.35483
3.64839
3.80817
3.82254
3.79719
3.75344
3.71605
3.68872
3.66677
3.64914
3.62528
3.59629
3.56258
3.52259
3.47901
3.43557
3.38983
3.34412
3.30208
3.26511
3.23633
3.21234
3.18934
3.16715
3.1431
3.11509
3.08174
3.04516
3.01059
2.97928
2.95339
2.93443
2.93354
2.96939
3.06841
3.17755
3.22526
3.23288
3.21765
3.18899
3.14483
3.1285
3.13962
3.19862
3.31308
3.43632
3.49561
3.49279
3.46774
3.38834
5.63502
5.50923
5.36696
5.21678
5.07018
4.93654
4.83074
4.73759
4.63852
4.53286
4.42334
4.30501
4.17729
4.0474
3.91597
3.7861
3.66129
3.54284
3.43065
3.32625
3.23111
3.14385
3.05723
2.9603
2.84727
2.74771
2.69383
2.68642
2.80646
3.05461
3.24919
3.2908
3.24802
3.18101
3.11568
3.09739
3.12765
3.32011
3.6422
3.83072
3.87
3.84358
3.80186
3.76045
3.73
3.70219
3.67414
3.64487
3.61391
3.57982
3.54377
3.50835
3.47385
3.43545
3.3888
3.3331
3.28488
3.2526
3.2299
3.21136
3.20184
3.19023
3.17005
3.14406
3.1026
3.05089
3.00842
2.97459
2.94252
2.91261
2.88099
2.86877
2.90243
3.00299
3.10308
3.16971
3.19551
3.18846
3.17679
3.1887
3.23736
3.33916
3.45111
3.52423
3.52493
3.507
3.45929
3.35802
5.61831
5.51146
5.39004
5.2559
5.12423
5.0021
4.88212
4.76325
4.64868
4.53334
4.41896
4.30759
4.18873
4.06544
3.94463
3.82569
3.70757
3.59066
3.47529
3.36338
3.25847
3.16369
3.07553
2.98561
2.88436
2.77095
2.67928
2.63403
2.63219
2.74136
2.9643
3.15587
3.18775
3.13539
3.08838
3.10632
3.26905
3.61277
3.82878
3.88452
3.87462
3.845
3.80956
3.77493
3.73747
3.69887
3.66537
3.63119
3.59509
3.5589
3.52644
3.49711
3.46748
3.43506
3.39211
3.33325
3.28237
3.25438
3.23591
3.23052
3.22613
3.20634
3.18112
3.14734
3.10075
3.05125
3.0089
2.97178
2.93695
2.90228
2.86775
2.84333
2.84214
2.8844
2.98496
3.08851
3.1582
3.19554
3.21763
3.26608
3.35972
3.46682
3.53138
3.54675
3.53352
3.49833
3.43503
3.34766
5.57233
5.48532
5.3971
5.29578
5.17743
5.05855
4.93063
4.79351
4.66332
4.53995
4.41536
4.29798
4.18909
4.07522
3.96103
3.84937
3.74031
3.63123
3.51896
3.4033
3.28821
3.18067
3.0833
2.99242
2.90199
2.80261
2.69955
2.61859
2.57204
2.57124
2.65336
2.85159
3.05556
3.05667
3.09656
3.25299
3.56294
3.81522
3.91975
3.91034
3.87921
3.84589
3.81198
3.77422
3.72992
3.68713
3.65255
3.62043
3.58705
3.55186
3.51902
3.49177
3.46728
3.43835
3.39838
3.3488
3.3062
3.27376
3.24701
3.22346
3.20309
3.18261
3.15837
3.12857
3.09351
3.05371
3.01274
2.97263
2.93512
2.89854
2.8624
2.83917
2.82702
2.83776
2.89189
2.99396
3.0965
3.16865
3.24559
3.34242
3.45536
3.53541
3.55435
3.54168
3.51061
3.46855
3.42387
3.37294
5.51944
5.44476
5.37712
5.30325
5.2127
5.09881
4.96373
4.82498
4.68637
4.54801
4.41024
4.28509
4.17919
4.07862
3.97246
3.86786
3.76386
3.65884
3.54968
3.43391
3.31364
3.19757
3.09086
2.99431
2.90502
2.8191
2.72817
2.63657
2.55893
2.5041
2.48046
2.5665
2.77805
2.97885
3.23311
3.53802
3.7999
3.8867
3.90862
3.90418
3.87514
3.8426
3.80893
3.76597
3.71535
3.6741
3.64391
3.61517
3.58485
3.5546
3.52632
3.49732
3.46499
3.43001
3.3946
3.36632
3.33812
3.30446
3.26613
3.22784
3.19165
3.15825
3.12655
3.09788
3.07289
3.05019
3.02013
2.97861
2.9356
2.89795
2.86838
2.84744
2.83307
2.82907
2.84973
2.90482
3.02096
3.15052
3.28616
3.40764
3.51293
3.55231
3.53909
3.50682
3.46491
3.43233
3.41407
3.39154
5.51496
5.45782
5.39394
5.32966
5.24929
5.12931
4.99375
4.85261
4.69989
4.54071
4.3993
4.28004
4.17376
4.08264
3.98301
3.88119
3.77872
3.67512
3.56935
3.45814
3.33717
3.21123
3.09292
2.99103
2.90213
2.82338
2.74366
2.65578
2.56181
2.4781
2.40483
2.42049
2.5365
2.88831
3.35573
3.7546
4.02618
3.97411
3.92022
3.89683
3.87147
3.83967
3.80621
3.7595
3.70144
3.66331
3.6369
3.61212
3.58814
3.56195
3.53218
3.49406
3.45367
3.42461
3.40302
3.38167
3.35462
3.31619
3.26684
3.21668
3.1714
3.13378
3.10402
3.0803
3.05897
3.03799
3.01554
2.98183
2.93557
2.90867
2.89046
2.86982
2.84803
2.82674
2.82166
2.84208
2.91963
3.09724
3.29262
3.45011
3.54606
3.55513
3.52907
3.486
3.43675
3.4101
3.40315
3.41965
)
;

boundaryField
{
    inlet
    {
        type            calculated;
        value           uniform 1.40001;
    }
    outlet
    {
        type            calculated;
        value           nonuniform List<scalar> 
24
(
2.80383
2.81877
2.84888
2.89693
2.95193
3.00384
3.04335
3.05911
3.05244
3.03686
3.03969
3.08666
3.17288
3.28055
3.37567
3.42588
3.43889
3.42145
3.39216
3.36217
3.35074
3.37392
3.39034
3.41479
)
;
    }
    bottom
    {
        type            calculated;
        value           nonuniform List<scalar> 
24
(
65.3529
11.5697
7.36351
7.3787
7.38599
7.39494
7.40472
7.41588
7.4279
7.44057
7.45373
7.46756
7.48209
7.49743
7.51297
7.52871
7.54358
7.55792
7.56785
7.57171
7.55895
7.5312
7.50321
7.49502
)
;
    }
    top
    {
        type            calculated;
        value           nonuniform List<scalar> 
120
(
62.1507
10.6633
6.69549
6.7037
6.69878
6.67711
6.64053
6.5974
6.56766
6.54991
6.55168
6.56785
6.5953
6.61599
6.61451
6.57552
6.50823
6.42673
6.35011
6.28919
6.2621
6.2595
6.26145
6.2645
6.2553
6.21361
6.13178
6.01991
5.89432
5.76804
5.65624
5.5732
5.51496
5.45782
5.39394
5.32966
5.24929
5.12931
4.99375
4.85261
4.69989
4.54071
4.3993
4.28004
4.17376
4.08264
3.98301
3.88119
3.77872
3.67512
3.56935
3.45814
3.33717
3.21123
3.09292
2.99103
2.90213
2.82338
2.74366
2.65578
2.56181
2.4781
2.40483
2.42049
2.5365
2.88831
3.35573
3.7546
4.02618
3.97411
3.92022
3.89683
3.87147
3.83967
3.80621
3.7595
3.70144
3.66331
3.6369
3.61212
3.58814
3.56195
3.53218
3.49406
3.45367
3.42461
3.40302
3.38167
3.35462
3.31619
3.26684
3.21668
3.1714
3.13378
3.10402
3.0803
3.05897
3.03799
3.01554
2.98183
2.93557
2.90867
2.89046
2.86982
2.84803
2.82674
2.82166
2.84208
2.91963
3.09724
3.29262
3.45011
3.54606
3.55513
3.52907
3.486
3.43675
3.4101
3.40315
3.41965
)
;
    }
    obstacle
    {
        type            calculated;
        value           nonuniform List<scalar> 
112
(
7.49502
7.48291
7.47098
7.44794
7.42022
7.35946
7.27879
7.27504
5.8052
6.19111
6.3032
6.24873
6.12103
6.00706
5.94641
5.93289
5.93289
5.94534
5.97223
6.02151
6.10103
6.168
6.17514
6.13312
1.88902
0.967298
0.706279
0.769098
0.877769
1.09959
1.45857
1.80216
2.23028
2.63001
2.86149
2.88557
3.10419
3.5064
3.73733
3.82277
3.83246
3.81881
3.83047
3.86063
3.90623
3.91109
3.88218
3.84473
3.80634
3.77713
3.74563
3.69212
3.62887
3.55124
3.46874
3.39873
3.34282
3.29676
3.25626
3.2222
3.19763
3.18422
3.17586
3.15981
3.13148
3.09334
3.04337
2.97309
2.88708
2.80616
2.73934
2.68301
2.63465
2.59411
2.55937
2.53117
2.53427
2.57553
2.71811
2.9972
3.32759
3.54693
3.54926
3.44864
3.35431
3.31808
3.30586
3.30922
3.32704
3.35418
3.38022
3.38697
3.37356
3.34969
3.30797
3.23483
3.1442
3.09199
3.06838
3.05303
3.05226
3.06759
3.0732
3.06052
3.04175
3.02068
2.99246
2.94808
2.88938
2.84592
2.82695
2.80438
)
;
    }
    defaultFaces
    {
        type            empty;
    }
}


// ************************************************************************* //
