/*--------------------------------*- C++ -*----------------------------------*\
  =========                 |
  \\      /  F ield         | OpenFOAM: The Open Source CFD Toolbox
   \\    /   O peration     | Website:  https://openfoam.org
    \\  /    A nd           | Version:  7
     \\/     M anipulation  |
\*---------------------------------------------------------------------------*/
FoamFile
{
    version     2.0;
    format      ascii;
    class       volVectorField;
    location    "7.5";
    object      U;
}
// * * * * * * * * * * * * * * * * * * * * * * * * * * * * * * * * * * * * * //

dimensions      [0 1 -1 0 0 0 0];

internalField   nonuniform List<vector> 
3328
(
(-2.38018 0.000679833 0)
(-0.291749 0.000408771 0)
(0.496535 0.00249317 0)
(0.490357 0.00262342 0)
(0.483776 0.00304733 0)
(0.475937 0.00346126 0)
(0.46711 0.00394689 0)
(0.457132 0.00447879 0)
(0.445997 0.00507257 0)
(0.433611 0.00573809 0)
(0.419824 0.00648932 0)
(0.404437 0.00732263 0)
(0.387231 0.00825527 0)
(0.368025 0.00925501 0)
(0.346644 0.0103831 0)
(0.322929 0.0115685 0)
(0.296636 0.0129614 0)
(0.267584 0.0143202 0)
(0.235408 0.0161102 0)
(0.199396 0.0176182 0)
(0.160648 0.019535 0)
(0.118113 0.0213829 0)
(0.0724565 0.0225928 0)
(0.0256452 0.0241554 0)
(-2.38009 0.00187392 0)
(-0.291689 0.00140308 0)
(0.496622 0.00773891 0)
(0.490451 0.00818296 0)
(0.4839 0.00947728 0)
(0.476072 0.0108127 0)
(0.467255 0.0123718 0)
(0.457273 0.0140804 0)
(0.446127 0.0159737 0)
(0.433729 0.0180633 0)
(0.419939 0.0203958 0)
(0.404546 0.0229573 0)
(0.387327 0.0258372 0)
(0.368066 0.0289322 0)
(0.346604 0.0324792 0)
(0.322729 0.0362018 0)
(0.296269 0.0405724 0)
(0.266934 0.0447662 0)
(0.234633 0.050216 0)
(0.198332 0.0547881 0)
(0.159629 0.0606101 0)
(0.117094 0.0662715 0)
(0.0714342 0.0698623 0)
(0.0250227 0.0739586 0)
(-2.38003 0.00309706 0)
(-0.291664 0.00262916 0)
(0.497233 0.0128306 0)
(0.49121 0.0135978 0)
(0.48491 0.0157045 0)
(0.477343 0.0178857 0)
(0.468811 0.0204453 0)
(0.459123 0.0232652 0)
(0.448285 0.0264046 0)
(0.436213 0.0298722 0)
(0.422788 0.0337406 0)
(0.407794 0.037968 0)
(0.391031 0.0427367 0)
(0.372227 0.0478599 0)
(0.351299 0.0537925 0)
(0.327922 0.0600207 0)
(0.302105 0.0673839 0)
(0.273242 0.0744342 0)
(0.241571 0.0835683 0)
(0.205291 0.0913749 0)
(0.166237 0.101167 0)
(0.12257 0.110916 0)
(0.0748042 0.11697 0)
(0.0261904 0.123102 0)
(-2.38023 0.00437483 0)
(-0.291729 0.00376175 0)
(0.497906 0.0178233 0)
(0.492087 0.0189053 0)
(0.486098 0.0217247 0)
(0.478887 0.0247759 0)
(0.47075 0.0282809 0)
(0.46147 0.0321429 0)
(0.451063 0.0364742 0)
(0.43945 0.0412705 0)
(0.426533 0.0466393 0)
(0.412087 0.0524797 0)
(0.396001 0.0590991 0)
(0.377919 0.0661627 0)
(0.357904 0.07441 0)
(0.335355 0.0830551 0)
(0.310471 0.0934994 0)
(0.281951 0.10375 0)
(0.250613 0.11718 0)
(0.213789 0.129228 0)
(0.174144 0.143688 0)
(0.129756 0.158212 0)
(0.0799409 0.167423 0)
(0.0279866 0.175521 0)
(-2.38046 0.00557621 0)
(-0.29177 0.004843 0)
(0.498848 0.0226676 0)
(0.493313 0.0240831 0)
(0.487671 0.0275298 0)
(0.480878 0.0313854 0)
(0.473211 0.0357839 0)
(0.46446 0.0406512 0)
(0.454594 0.0460476 0)
(0.443552 0.0520688 0)
(0.431295 0.0588552 0)
(0.417532 0.066203 0)
(0.402326 0.0745983 0)
(0.385141 0.0834887 0)
(0.366313 0.0939975 0)
(0.344805 0.105051 0)
(0.32136 0.118716 0)
(0.294066 0.132334 0)
(0.265055 0.14982 0)
(0.230306 0.166097 0)
(0.192518 0.184756 0)
(0.147893 0.205384 0)
(0.0929648 0.221274 0)
(0.033946 0.23427 0)
(-2.38088 0.00675275 0)
(-0.291851 0.00590496 0)
(0.500003 0.0273129 0)
(0.494847 0.0290848 0)
(0.489585 0.0330809 0)
(0.483281 0.0377091 0)
(0.476146 0.0429211 0)
(0.468008 0.0486895 0)
(0.45884 0.0551348 0)
(0.448489 0.0621985 0)
(0.437058 0.0702782 0)
(0.424106 0.078995 0)
(0.409971 0.0890732 0)
(0.393821 0.0996946 0)
(0.376501 0.112382 0)
(0.356459 0.125694 0)
(0.335277 0.14218 0)
(0.310074 0.158814 0)
(0.283231 0.179806 0)
(0.249814 0.202324 0)
(0.210189 0.229145 0)
(0.162127 0.260387 0)
(0.103059 0.286906 0)
(0.0337366 0.303731 0)
(-2.38144 0.00791078 0)
(-0.29199 0.0070374 0)
(0.5014 0.0316766 0)
(0.496725 0.0338161 0)
(0.491854 0.0382701 0)
(0.486117 0.0436247 0)
(0.47957 0.0495974 0)
(0.472115 0.0561975 0)
(0.463735 0.0635613 0)
(0.454187 0.0716215 0)
(0.44373 0.0808501 0)
(0.431714 0.0907821 0)
(0.418858 0.102393 0)
(0.403936 0.114617 0)
(0.38843 0.129225 0)
(0.37026 0.144566 0)
(0.351566 0.16336 0)
(0.328956 0.183406 0)
(0.304087 0.208321 0)
(0.275724 0.237603 0)
(0.242489 0.271217 0)
(0.202176 0.311342 0)
(0.141945 0.350931 0)
(0.0620206 0.381583 0)
(-2.38207 0.00901935 0)
(-0.292238 0.00840373 0)
(0.502949 0.0356617 0)
(0.49888 0.038189 0)
(0.494374 0.0430127 0)
(0.489273 0.0490351 0)
(0.483348 0.0557154 0)
(0.476639 0.0631122 0)
(0.469106 0.0713399 0)
(0.46044 0.0802778 0)
(0.451108 0.0905364 0)
(0.440186 0.101542 0)
(0.428773 0.114446 0)
(0.415338 0.128139 0)
(0.401717 0.144311 0)
(0.385839 0.161634 0)
(0.369603 0.182308 0)
(0.350637 0.205648 0)
(0.329879 0.232626 0)
(0.309079 0.265149 0)
(0.280176 0.305166 0)
(0.242986 0.369514 0)
(0.158531 0.441137 0)
(0.109878 0.523618 0)
(-2.38263 0.0101065 0)
(-0.292707 0.0103388 0)
(0.504277 0.0391227 0)
(0.501041 0.0421333 0)
(0.496899 0.0472976 0)
(0.492575 0.0539329 0)
(0.487362 0.0612562 0)
(0.481499 0.0693923 0)
(0.474902 0.0784229 0)
(0.467178 0.0881779 0)
(0.459021 0.0993107 0)
(0.44938 0.111293 0)
(0.439451 0.125196 0)
(0.427861 0.140214 0)
(0.416023 0.157527 0)
(0.403032 0.176697 0)
(0.388915 0.198747 0)
(0.374972 0.224119 0)
(0.358337 0.251845 0)
(0.34395 0.288165 0)
(0.319498 0.339673 0)
(0.302791 0.422384 0)
(0.275901 0.502539 0)
(0.330233 0.564254 0)
(-2.38284 0.0110065 0)
(-0.293409 0.0127787 0)
(0.505803 0.0421726 0)
(0.503926 0.0455366 0)
(0.500203 0.051046 0)
(0.496728 0.0582482 0)
(0.492255 0.0661907 0)
(0.487204 0.0750055 0)
(0.481446 0.0847911 0)
(0.474663 0.0953337 0)
(0.467602 0.107178 0)
(0.45944 0.120022 0)
(0.450949 0.134615 0)
(0.441462 0.150684 0)
(0.431384 0.168774 0)
(0.421156 0.189344 0)
(0.409847 0.212313 0)
(0.400147 0.238694 0)
(0.38802 0.267539 0)
(0.378681 0.306134 0)
(0.367822 0.362288 0)
(0.364606 0.436646 0)
(0.375873 0.481663 0)
(0.425232 0.474427 0)
(-2.38271 0.0119301 0)
(-0.294188 0.0150773 0)
(0.509397 0.0441579 0)
(0.508587 0.0477361 0)
(0.505441 0.0538733 0)
(0.502518 0.0617195 0)
(0.498669 0.0703903 0)
(0.494219 0.0799583 0)
(0.48909 0.0904583 0)
(0.483251 0.101688 0)
(0.477217 0.114073 0)
(0.470597 0.127602 0)
(0.463465 0.142676 0)
(0.455935 0.15947 0)
(0.447585 0.17814 0)
(0.439942 0.199424 0)
(0.431803 0.222909 0)
(0.425153 0.249502 0)
(0.418276 0.279065 0)
(0.412655 0.316503 0)
(0.416092 0.368608 0)
(0.42158 0.433702 0)
(0.451285 0.474633 0)
(0.488667 0.469319 0)
(-2.38241 0.0128292 0)
(-0.295034 0.0149931 0)
(0.514516 0.0449563 0)
(0.514256 0.04939 0)
(0.51168 0.0562088 0)
(0.509076 0.0645943 0)
(0.505872 0.0741767 0)
(0.501951 0.0845594 0)
(0.497438 0.095639 0)
(0.492596 0.107369 0)
(0.487668 0.120131 0)
(0.482509 0.134149 0)
(0.476769 0.149631 0)
(0.470727 0.166839 0)
(0.464449 0.185835 0)
(0.458803 0.207092 0)
(0.453938 0.230576 0)
(0.449596 0.256733 0)
(0.447706 0.285946 0)
(0.445384 0.320177 0)
(0.455842 0.364484 0)
(0.46833 0.419274 0)
(0.500968 0.458652 0)
(0.528605 0.455489 0)
(-2.38245 0.0138545 0)
(-0.295111 0.0129989 0)
(0.518994 0.0441663 0)
(0.51914 0.0501996 0)
(0.516744 0.0580356 0)
(0.514812 0.0670983 0)
(0.512713 0.0774829 0)
(0.509459 0.0886481 0)
(0.505828 0.10018 0)
(0.502058 0.112198 0)
(0.498484 0.125208 0)
(0.494655 0.13954 0)
(0.490445 0.155407 0)
(0.485684 0.172821 0)
(0.481421 0.191873 0)
(0.477334 0.212643 0)
(0.475341 0.235582 0)
(0.473423 0.260778 0)
(0.475024 0.288631 0)
(0.476187 0.31922 0)
(0.486418 0.354977 0)
(0.50347 0.398711 0)
(0.530561 0.439482 0)
(0.55744 0.451928 0)
(-2.38331 0.0148403 0)
(-0.294479 0.0114485 0)
(0.520597 0.04019 0)
(0.521228 0.0518286 0)
(0.519988 0.0602494 0)
(0.519507 0.0688032 0)
(0.518368 0.0798182 0)
(0.51612 0.0917915 0)
(0.513659 0.10362 0)
(0.51114 0.115627 0)
(0.509091 0.12873 0)
(0.506528 0.143354 0)
(0.503941 0.159584 0)
(0.500427 0.177102 0)
(0.497891 0.196099 0)
(0.495384 0.216415 0)
(0.495536 0.238507 0)
(0.496047 0.262428 0)
(0.5 0.288377 0)
(0.50428 0.316194 0)
(0.513809 0.345984 0)
(0.528455 0.379902 0)
(0.551223 0.41461 0)
(0.576754 0.439735 0)
(-2.38507 0.015473 0)
(-0.292963 0.0123229 0)
(0.51948 0.0360877 0)
(0.521535 0.0535155 0)
(0.523144 0.0610702 0)
(0.523318 0.0701562 0)
(0.522655 0.0818219 0)
(0.521356 0.0939492 0)
(0.520324 0.105707 0)
(0.519163 0.11777 0)
(0.518756 0.130964 0)
(0.517634 0.145536 0)
(0.516644 0.1617 0)
(0.514593 0.179212 0)
(0.513681 0.198087 0)
(0.512803 0.217979 0)
(0.514584 0.239195 0)
(0.517119 0.26197 0)
(0.52272 0.286138 0)
(0.529137 0.311696 0)
(0.5391 0.337963 0)
(0.551567 0.366118 0)
(0.570172 0.394317 0)
(0.590081 0.421399 0)
(-2.38697 0.0157994 0)
(-0.292007 0.0149742 0)
(0.521903 0.0334855 0)
(0.522754 0.053093 0)
(0.526663 0.0614981 0)
(0.52677 0.0712409 0)
(0.526349 0.0827469 0)
(0.525507 0.0944286 0)
(0.525743 0.105957 0)
(0.525991 0.118034 0)
(0.527215 0.131211 0)
(0.527782 0.14575 0)
(0.528425 0.161716 0)
(0.527911 0.178907 0)
(0.528443 0.197298 0)
(0.529307 0.216971 0)
(0.532658 0.237758 0)
(0.536893 0.259724 0)
(0.543716 0.282536 0)
(0.551344 0.306407 0)
(0.5618 0.330481 0)
(0.573725 0.355337 0)
(0.589552 0.379877 0)
(0.606382 0.404907 0)
(-2.3886 0.0159081 0)
(-0.292042 0.0166176 0)
(0.525383 0.0335937 0)
(0.527268 0.0526353 0)
(0.530973 0.0615529 0)
(0.530482 0.0714909 0)
(0.529536 0.0823577 0)
(0.528951 0.0932091 0)
(0.530174 0.104431 0)
(0.53186 0.116719 0)
(0.534535 0.130008 0)
(0.536766 0.14445 0)
(0.539021 0.160054 0)
(0.539977 0.176814 0)
(0.541978 0.194621 0)
(0.544542 0.213537 0)
(0.549468 0.233487 0)
(0.555368 0.254924 0)
(0.563475 0.277271 0)
(0.572026 0.300467 0)
(0.582756 0.323584 0)
(0.594643 0.34691 0)
(0.609424 0.369571 0)
(0.625384 0.393101 0)
(-2.38986 0.0159873 0)
(-0.292836 0.0163205 0)
(0.530997 0.0361491 0)
(0.534606 0.0522443 0)
(0.536162 0.0612993 0)
(0.53459 0.0710178 0)
(0.532922 0.0809531 0)
(0.532741 0.0909111 0)
(0.534742 0.10194 0)
(0.537564 0.1146 0)
(0.541508 0.128228 0)
(0.544871 0.142576 0)
(0.548124 0.157611 0)
(0.55028 0.173579 0)
(0.553834 0.190516 0)
(0.55824 0.208765 0)
(0.564995 0.228034 0)
(0.572623 0.24866 0)
(0.582074 0.270113 0)
(0.591603 0.292838 0)
(0.602737 0.315786 0)
(0.614599 0.339015 0)
(0.629108 0.361477 0)
(0.644985 0.384497 0)
(-2.39104 0.0162648 0)
(-0.293353 0.0144303 0)
(0.537693 0.0394691 0)
(0.541129 0.0513075 0)
(0.541544 0.0601888 0)
(0.538564 0.069533 0)
(0.536942 0.0784161 0)
(0.537489 0.0878002 0)
(0.540343 0.0990651 0)
(0.544278 0.112365 0)
(0.548918 0.126383 0)
(0.55297 0.140666 0)
(0.556424 0.155139 0)
(0.559179 0.170172 0)
(0.56383 0.186008 0)
(0.569843 0.203313 0)
(0.578524 0.221707 0)
(0.588158 0.241606 0)
(0.59941 0.262304 0)
(0.610298 0.284216 0)
(0.62236 0.306679 0)
(0.634595 0.330166 0)
(0.649331 0.353469 0)
(0.665393 0.377505 0)
(-2.39243 0.0167434 0)
(-0.292744 0.0128952 0)
(0.543255 0.0412062 0)
(0.545629 0.0492369 0)
(0.545341 0.0581654 0)
(0.541817 0.0670717 0)
(0.541223 0.075134 0)
(0.543063 0.084473 0)
(0.547081 0.0963928 0)
(0.552102 0.110246 0)
(0.557141 0.124317 0)
(0.561279 0.138331 0)
(0.564513 0.152252 0)
(0.567635 0.166615 0)
(0.573019 0.181682 0)
(0.580116 0.198186 0)
(0.590118 0.215658 0)
(0.601364 0.234624 0)
(0.614433 0.254199 0)
(0.627108 0.275096 0)
(0.640829 0.29651 0)
(0.654279 0.319443 0)
(0.670078 0.343131 0)
(0.686961 0.36849 0)
(-2.39406 0.0172323 0)
(-0.291284 0.0132868 0)
(0.547302 0.0410891 0)
(0.548318 0.0463064 0)
(0.547061 0.05579 0)
(0.544107 0.0641176 0)
(0.545642 0.0717714 0)
(0.549042 0.0817741 0)
(0.554821 0.0945044 0)
(0.560366 0.108414 0)
(0.5658 0.122002 0)
(0.569599 0.135405 0)
(0.57274 0.148715 0)
(0.576331 0.162583 0)
(0.58232 0.177174 0)
(0.590164 0.193181 0)
(0.600911 0.210085 0)
(0.61308 0.228334 0)
(0.627299 0.246967 0)
(0.641466 0.266589 0)
(0.657008 0.286391 0)
(0.672442 0.30782 0)
(0.690141 0.330263 0)
(0.708815 0.355354 0)
(-2.39582 0.0174588 0)
(-0.289178 0.0142908 0)
(0.550318 0.038577 0)
(0.549649 0.0438662 0)
(0.547199 0.052768 0)
(0.5463 0.0608156 0)
(0.549972 0.0689901 0)
(0.55558 0.0802183 0)
(0.562562 0.0934399 0)
(0.568294 0.106692 0)
(0.57369 0.119388 0)
(0.577335 0.131794 0)
(0.580837 0.144332 0)
(0.585243 0.157645 0)
(0.59201 0.171782 0)
(0.600601 0.1874 0)
(0.611828 0.204042 0)
(0.624363 0.222062 0)
(0.638872 0.240096 0)
(0.653651 0.258757 0)
(0.670297 0.276949 0)
(0.687696 0.296309 0)
(0.707857 0.316535 0)
(0.729355 0.339608 0)
(-2.39751 0.0173111 0)
(-0.287066 0.0169058 0)
(0.552647 0.0346391 0)
(0.550126 0.0398772 0)
(0.547547 0.0489537 0)
(0.54944 0.0574805 0)
(0.555033 0.0672282 0)
(0.562626 0.0796985 0)
(0.569605 0.0928002 0)
(0.575437 0.105055 0)
(0.580276 0.116634 0)
(0.584028 0.127769 0)
(0.588247 0.139217 0)
(0.593835 0.151593 0)
(0.601793 0.164999 0)
(0.61164 0.180177 0)
(0.623751 0.196803 0)
(0.636704 0.214904 0)
(0.650898 0.232971 0)
(0.665214 0.25093 0)
(0.681725 0.26787 0)
(0.700025 0.285415 0)
(0.722036 0.303054 0)
(0.746531 0.322986 0)
(-2.39905 0.0168153 0)
(-0.285404 0.0194653 0)
(0.554158 0.0294707 0)
(0.550116 0.0351453 0)
(0.549653 0.0448676 0)
(0.553776 0.0546204 0)
(0.561563 0.0661558 0)
(0.569784 0.0793866 0)
(0.576039 0.0918168 0)
(0.581473 0.103072 0)
(0.585423 0.11344 0)
(0.589375 0.123324 0)
(0.594465 0.133564 0)
(0.601482 0.144761 0)
(0.611009 0.157253 0)
(0.622653 0.171767 0)
(0.63611 0.188037 0)
(0.649635 0.205742 0)
(0.663262 0.223406 0)
(0.676717 0.24098 0)
(0.692457 0.257556 0)
(0.710702 0.274094 0)
(0.733325 0.290061 0)
(0.759647 0.307103 0)
(-2.40039 0.016132 0)
(-0.284574 0.0222117 0)
(0.554517 0.0236118 0)
(0.549848 0.0310404 0)
(0.553296 0.0410925 0)
(0.559928 0.0523513 0)
(0.569308 0.0652774 0)
(0.576449 0.0782709 0)
(0.582134 0.0898047 0)
(0.586102 0.100097 0)
(0.589275 0.109381 0)
(0.593377 0.118248 0)
(0.599319 0.127497 0)
(0.60779 0.137662 0)
(0.619146 0.14951 0)
(0.632752 0.163398 0)
(0.647601 0.178606 0)
(0.661645 0.194652 0)
(0.674905 0.210668 0)
(0.688101 0.227048 0)
(0.703421 0.243394 0)
(0.721406 0.260142 0)
(0.743738 0.276102 0)
(0.770401 0.291795 0)
(-2.40149 0.0153806 0)
(-0.284631 0.024534 0)
(0.553598 0.016551 0)
(0.550617 0.02822 0)
(0.558573 0.0388855 0)
(0.568035 0.0511993 0)
(0.576829 0.0641193 0)
(0.582797 0.0759788 0)
(0.587184 0.0863165 0)
(0.589704 0.0952789 0)
(0.59227 0.10353 0)
(0.596458 0.111837 0)
(0.603172 0.120691 0)
(0.613392 0.130716 0)
(0.626712 0.142728 0)
(0.641506 0.155997 0)
(0.656891 0.16943 0)
(0.670952 0.182715 0)
(0.684231 0.195859 0)
(0.698036 0.209836 0)
(0.713902 0.224921 0)
(0.732343 0.241327 0)
(0.754432 0.258073 0)
(0.780556 0.274452 0)
(-2.40224 0.0146593 0)
(-0.285517 0.0250839 0)
(0.554747 0.0080216 0)
(0.553404 0.0296983 0)
(0.566369 0.0389086 0)
(0.57604 0.0509816 0)
(0.583009 0.0625124 0)
(0.588201 0.0724693 0)
(0.590908 0.0807831 0)
(0.592617 0.0878918 0)
(0.595315 0.095061 0)
(0.600162 0.103172 0)
(0.60823 0.112794 0)
(0.620361 0.124488 0)
(0.634653 0.137255 0)
(0.649576 0.149606 0)
(0.664263 0.161019 0)
(0.677738 0.171412 0)
(0.691271 0.181401 0)
(0.706285 0.192158 0)
(0.723514 0.204741 0)
(0.743262 0.219315 0)
(0.765958 0.235614 0)
(0.791999 0.252879 0)
(-2.40284 0.0139116 0)
(-0.287679 0.0221044 0)
(0.557734 0.00412501 0)
(0.561084 0.0317871 0)
(0.574585 0.0400025 0)
(0.581809 0.0507127 0)
(0.587515 0.0600068 0)
(0.591041 0.0674662 0)
(0.592368 0.0729831 0)
(0.593784 0.0782807 0)
(0.597372 0.0844907 0)
(0.604328 0.0927951 0)
(0.615239 0.104773 0)
(0.628596 0.118139 0)
(0.642671 0.131229 0)
(0.656554 0.142646 0)
(0.669352 0.152289 0)
(0.681892 0.160333 0)
(0.695455 0.168098 0)
(0.71163 0.176227 0)
(0.730835 0.18592 0)
(0.753149 0.19781 0)
(0.77777 0.212776 0)
(0.804502 0.229202 0)
(-2.40362 0.0130908 0)
(-0.289841 0.0156573 0)
(0.563304 0.00764343 0)
(0.570592 0.0316442 0)
(0.580444 0.0403908 0)
(0.585633 0.0491228 0)
(0.589498 0.056389 0)
(0.591022 0.0609244 0)
(0.592142 0.0642244 0)
(0.594907 0.0683081 0)
(0.600797 0.0745649 0)
(0.610988 0.0843475 0)
(0.623902 0.0968348 0)
(0.637609 0.110234 0)
(0.650483 0.12288 0)
(0.66183 0.133649 0)
(0.672496 0.142423 0)
(0.68404 0.149433 0)
(0.697521 0.15602 0)
(0.714508 0.162635 0)
(0.73551 0.170795 0)
(0.760607 0.180137 0)
(0.788171 0.19225 0)
(0.816606 0.205871 0)
(-2.40491 0.0121522 0)
(-0.290488 0.00915422 0)
(0.570893 0.0125004 0)
(0.578311 0.0303239 0)
(0.584457 0.0385193 0)
(0.587735 0.0459723 0)
(0.589034 0.0505688 0)
(0.589506 0.0528395 0)
(0.59125 0.0555014 0)
(0.596004 0.0598967 0)
(0.605152 0.0673748 0)
(0.618756 0.0781829 0)
(0.632826 0.0901511 0)
(0.645997 0.100948 0)
(0.65709 0.111488 0)
(0.666325 0.120968 0)
(0.675323 0.129503 0)
(0.685937 0.136882 0)
(0.698968 0.143955 0)
(0.716247 0.150752 0)
(0.738505 0.158786 0)
(0.765411 0.167427 0)
(0.79467 0.177188 0)
(0.824448 0.186234 0)
(-2.40665 0.0113129 0)
(-0.289519 0.00585596 0)
(0.578413 0.0160976 0)
(0.583213 0.0267933 0)
(0.587158 0.034023 0)
(0.587795 0.039406 0)
(0.587303 0.0417524 0)
(0.587849 0.0442397 0)
(0.591377 0.0481167 0)
(0.599115 0.0551786 0)
(0.611291 0.0649171 0)
(0.625933 0.0747793 0)
(0.639195 0.0835769 0)
(0.651475 0.0912994 0)
(0.661594 0.0984032 0)
(0.669929 0.105181 0)
(0.678129 0.112577 0)
(0.688134 0.120304 0)
(0.701351 0.128804 0)
(0.719974 0.138459 0)
(0.743304 0.14894 0)
(0.769819 0.157721 0)
(0.797741 0.165736 0)
(0.826497 0.171194 0)
(-2.40851 0.0108959 0)
(-0.287326 0.00584438 0)
(0.584274 0.0163236 0)
(0.586352 0.021225 0)
(0.587455 0.0266046 0)
(0.585947 0.0294853 0)
(0.585008 0.0319834 0)
(0.58733 0.0361288 0)
(0.594151 0.0440905 0)
(0.604371 0.0540192 0)
(0.617447 0.0638711 0)
(0.63042 0.0723051 0)
(0.641891 0.0782285 0)
(0.65297 0.0820669 0)
(0.66248 0.0849475 0)
(0.671538 0.088256 0)
(0.681317 0.0934726 0)
(0.693422 0.101582 0)
(0.708853 0.113411 0)
(0.728331 0.126303 0)
(0.750478 0.139201 0)
(0.774549 0.149017 0)
(0.799786 0.156165 0)
(0.826248 0.159057 0)
(-2.41026 0.0107403 0)
(-0.284498 0.00887142 0)
(0.587012 0.0131173 0)
(0.586653 0.0153318 0)
(0.58473 0.0183918 0)
(0.583076 0.0199974 0)
(0.585315 0.0233146 0)
(0.591256 0.0314181 0)
(0.600233 0.0420269 0)
(0.611459 0.0531892 0)
(0.622768 0.0625269 0)
(0.633001 0.0690938 0)
(0.642795 0.0728128 0)
(0.651395 0.0738377 0)
(0.660123 0.0734346 0)
(0.670799 0.0737217 0)
(0.684178 0.0771145 0)
(0.700524 0.0847904 0)
(0.718998 0.0973472 0)
(0.738684 0.112296 0)
(0.758657 0.126289 0)
(0.779582 0.136683 0)
(0.801212 0.143677 0)
(0.824217 0.145879 0)
(-2.41169 0.0102221 0)
(-0.281823 0.0127491 0)
(0.586015 0.00869183 0)
(0.583527 0.00982791 0)
(0.581182 0.0107481 0)
(0.582244 0.0124629 0)
(0.588253 0.0174645 0)
(0.597803 0.0266386 0)
(0.608702 0.0382319 0)
(0.618547 0.0492552 0)
(0.627531 0.0579508 0)
(0.635264 0.0631793 0)
(0.641765 0.0648183 0)
(0.647901 0.0643307 0)
(0.655866 0.0633575 0)
(0.667614 0.0631169 0)
(0.684672 0.0658255 0)
(0.705854 0.072762 0)
(0.728087 0.0832729 0)
(0.74892 0.095524 0)
(0.766887 0.10841 0)
(0.784276 0.118341 0)
(0.802041 0.125567 0)
(0.821479 0.128552 0)
(-2.41266 0.008978 0)
(-0.27992 0.0154067 0)
(0.581657 0.00388909 0)
(0.578674 0.00437526 0)
(0.579707 0.0057752 0)
(0.583681 0.00984761 0)
(0.593245 0.0171498 0)
(0.605256 0.0267306 0)
(0.615677 0.03523 0)
(0.624611 0.0422734 0)
(0.631048 0.04842 0)
(0.635346 0.0521452 0)
(0.63959 0.0532237 0)
(0.644796 0.0528981 0)
(0.653041 0.0532891 0)
(0.668119 0.0560779 0)
(0.688747 0.0613638 0)
(0.712455 0.067391 0)
(0.735567 0.0739448 0)
(0.757511 0.0805711 0)
(0.775183 0.087929 0)
(0.790341 0.0951283 0)
(0.8054 0.101199 0)
(0.822146 0.104914 0)
(-2.41322 0.00674444 0)
(-0.278639 0.0149063 0)
(0.578659 -0.00362537 0)
(0.575501 0.00149315 0)
(0.580099 0.00551896 0)
(0.586918 0.0114898 0)
(0.598037 0.0189761 0)
(0.608918 0.0247891 0)
(0.61818 0.0289021 0)
(0.626222 0.032057 0)
(0.631416 0.0338877 0)
(0.634315 0.0352822 0)
(0.636657 0.0374654 0)
(0.641854 0.0406031 0)
(0.65332 0.0457347 0)
(0.670633 0.0524015 0)
(0.691464 0.0581793 0)
(0.713821 0.0617403 0)
(0.73622 0.0635349 0)
(0.75814 0.0644121 0)
(0.776907 0.0661518 0)
(0.792317 0.0687481 0)
(0.806289 0.0729235 0)
(0.822027 0.0777687 0)
(-2.41371 0.0041469 0)
(-0.279206 0.0108157 0)
(0.579508 -0.00933542 0)
(0.576221 0.002386 0)
(0.58343 0.00774223 0)
(0.591475 0.0147243 0)
(0.600397 0.019813 0)
(0.608561 0.0228772 0)
(0.616125 0.0236014 0)
(0.622575 0.0219946 0)
(0.627305 0.0195519 0)
(0.631868 0.0190728 0)
(0.637359 0.0227558 0)
(0.645978 0.0298955 0)
(0.658696 0.0391793 0)
(0.674599 0.0482083 0)
(0.692238 0.0548331 0)
(0.711419 0.0579223 0)
(0.731543 0.0570484 0)
(0.751779 0.0530555 0)
(0.771265 0.0474299 0)
(0.789528 0.0430486 0)
(0.806969 0.0426793 0)
(0.825215 0.0469726 0)
(-2.4147 0.00218226 0)
(-0.281867 0.00446258 0)
(0.582045 -0.013041 0)
(0.581113 0.00498395 0)
(0.58862 0.0107475 0)
(0.594394 0.0168697 0)
(0.600008 0.0208226 0)
(0.605704 0.0214205 0)
(0.6107 0.0187021 0)
(0.615676 0.0134153 0)
(0.622389 0.0085583 0)
(0.631338 0.00677358 0)
(0.641721 0.0102433 0)
(0.653266 0.0186666 0)
(0.666416 0.0293846 0)
(0.680532 0.0395394 0)
(0.695301 0.0469704 0)
(0.710443 0.0498311 0)
(0.7261 0.0477575 0)
(0.742952 0.0411311 0)
(0.761799 0.032333 0)
(0.783381 0.0243211 0)
(0.807566 0.0214138 0)
(0.832201 0.0250571 0)
(-2.41486 0.000817311 0)
(-0.284651 -0.000406164 0)
(0.585382 -0.00814825 0)
(0.587979 0.00495653 0)
(0.592085 0.00996219 0)
(0.595569 0.0141972 0)
(0.599047 0.0160524 0)
(0.601719 0.0144478 0)
(0.604595 0.00968654 0)
(0.609335 0.00479186 0)
(0.617661 0.00165135 0)
(0.629711 0.000771998 0)
(0.644945 0.00219706 0)
(0.660147 0.00867866 0)
(0.675408 0.0184619 0)
(0.688908 0.0278485 0)
(0.700252 0.0334648 0)
(0.710195 0.0344635 0)
(0.720686 0.0311258 0)
(0.734591 0.0238406 0)
(0.752935 0.0158264 0)
(0.775535 0.0103867 0)
(0.802763 0.00801526 0)
(0.832261 0.00842704 0)
(-2.41516 0.000473369 0)
(-0.286272 -0.00137261 0)
(0.588371 0.00058762 0)
(0.591712 0.00310191 0)
(0.594617 0.00429935 0)
(0.597121 0.00485065 0)
(0.597891 0.00434429 0)
(0.597674 0.00277774 0)
(0.599372 0.00139007 0)
(0.604653 0.000933243 0)
(0.614834 0.00130147 0)
(0.629578 0.00255187 0)
(0.648306 0.00508636 0)
(0.667229 0.00715826 0)
(0.682129 0.00917089 0)
(0.692466 0.011093 0)
(0.699201 0.0117809 0)
(0.705243 0.010842 0)
(0.712806 0.00891626 0)
(0.724916 0.0069143 0)
(0.746058 0.00553335 0)
(0.774273 0.00590526 0)
(0.805081 0.00728696 0)
(0.838304 0.00945998 0)
(0.396285 0.351915 0)
(0.114908 0.180232 0)
(0.0594078 0.049861 0)
(0.0216415 0.0190475 0)
(0.00760571 0.00869082 0)
(0.0010421 0.00311834 0)
(0.000333448 0.000115067 0)
(0.000186588 -0.00140724 0)
(0.420358 0.300694 0)
(0.256977 0.178528 0)
(0.182578 0.0728666 0)
(0.0927843 0.0453038 0)
(0.0401243 0.026722 0)
(0.0143816 0.00943295 0)
(0.00125192 0.00293421 0)
(0.000909818 -0.00351915 0)
(0.463342 0.391748 0)
(0.35342 0.324695 0)
(0.266935 0.215696 0)
(0.154982 0.151782 0)
(0.0880908 0.0873289 0)
(0.0441273 0.0401992 0)
(0.0114644 0.0181531 0)
(0.00545089 0.00307416 0)
(0.521801 0.430735 0)
(0.4701 0.383624 0)
(0.403393 0.292982 0)
(0.292757 0.21763 0)
(0.201703 0.142125 0)
(0.119267 0.0875783 0)
(0.0517494 0.0527735 0)
(0.0151039 0.0259193 0)
(0.563094 0.446909 0)
(0.541515 0.433527 0)
(0.501523 0.38268 0)
(0.407949 0.332432 0)
(0.307527 0.261476 0)
(0.203169 0.18753 0)
(0.107826 0.121666 0)
(0.0366341 0.0712454 0)
(0.589164 0.451423 0)
(0.585482 0.45527 0)
(0.566578 0.43887 0)
(0.510227 0.412577 0)
(0.433257 0.353976 0)
(0.320031 0.294311 0)
(0.188721 0.239345 0)
(0.0687524 0.168716 0)
(0.609 0.444645 0)
(0.614454 0.462466 0)
(0.60919 0.467143 0)
(0.580626 0.469975 0)
(0.526467 0.452127 0)
(0.431013 0.423441 0)
(0.317648 0.353733 0)
(0.150471 0.324979 0)
(0.623287 0.430705 0)
(0.636324 0.455804 0)
(0.641537 0.480135 0)
(0.632886 0.503284 0)
(0.606345 0.512701 0)
(0.544074 0.516371 0)
(0.402986 0.525838 0)
(0.203139 0.64786 0)
(0.641558 0.418527 0)
(0.657462 0.446521 0)
(0.668792 0.478501 0)
(0.675936 0.515169 0)
(0.671688 0.554622 0)
(0.646441 0.612151 0)
(0.611441 0.711738 0)
(0.690824 0.928482 0)
(0.662359 0.408803 0)
(0.680217 0.436454 0)
(0.69745 0.469917 0)
(0.714822 0.513617 0)
(0.737449 0.571817 0)
(0.757906 0.657021 0)
(0.821616 0.755414 0)
(1.04714 0.858514 0)
(0.684551 0.401929 0)
(0.704911 0.429459 0)
(0.728333 0.461748 0)
(0.75346 0.503732 0)
(0.793925 0.558776 0)
(0.847824 0.64017 0)
(0.969852 0.730643 0)
(1.21474 0.782137 0)
(0.707697 0.394235 0)
(0.730536 0.422477 0)
(0.758996 0.453558 0)
(0.791953 0.492162 0)
(0.841554 0.538011 0)
(0.913273 0.600826 0)
(1.0488 0.671569 0)
(1.26702 0.696413 0)
(0.73149 0.381939 0)
(0.756907 0.411314 0)
(0.788901 0.442078 0)
(0.827522 0.477404 0)
(0.881805 0.515 0)
(0.958657 0.558984 0)
(1.08578 0.606832 0)
(1.26883 0.613964 0)
(0.754443 0.364658 0)
(0.782314 0.392997 0)
(0.816776 0.422757 0)
(0.858921 0.45534 0)
(0.915163 0.487734 0)
(0.99025 0.517806 0)
(1.10092 0.548272 0)
(1.24871 0.546027 0)
(0.774701 0.34488 0)
(0.805574 0.37017 0)
(0.841997 0.39728 0)
(0.885693 0.426057 0)
(0.94141 0.454299 0)
(1.01205 0.475712 0)
(1.10677 0.496337 0)
(1.22468 0.491088 0)
(0.79032 0.32512 0)
(0.824191 0.345561 0)
(0.862445 0.36781 0)
(0.906795 0.390851 0)
(0.960734 0.415254 0)
(1.02667 0.432226 0)
(1.10873 0.446086 0)
(1.20545 0.442179 0)
(0.801941 0.307181 0)
(0.837546 0.323026 0)
(0.877451 0.339947 0)
(0.922573 0.356331 0)
(0.97493 0.375383 0)
(1.03647 0.386167 0)
(1.1083 0.395337 0)
(1.19052 0.392899 0)
(0.811395 0.28968 0)
(0.846902 0.303051 0)
(0.886925 0.316205 0)
(0.931779 0.326551 0)
(0.982682 0.338937 0)
(1.04034 0.344825 0)
(1.10537 0.348262 0)
(1.17852 0.344391 0)
(0.821506 0.269975 0)
(0.855094 0.283577 0)
(0.893016 0.295454 0)
(0.935745 0.302087 0)
(0.984339 0.309312 0)
(1.03946 0.310411 0)
(1.09966 0.310229 0)
(1.16622 0.303274 0)
(0.832783 0.246557 0)
(0.863873 0.261215 0)
(0.898245 0.274221 0)
(0.937318 0.280455 0)
(0.982315 0.2854 0)
(1.03393 0.283748 0)
(1.09111 0.280062 0)
(1.15281 0.271925 0)
(0.844081 0.221297 0)
(0.872778 0.234867 0)
(0.903508 0.248404 0)
(0.938706 0.256493 0)
(0.979379 0.262675 0)
(1.02668 0.262028 0)
(1.07976 0.257428 0)
(1.1383 0.247843 0)
(0.852801 0.197041 0)
(0.881362 0.207337 0)
(0.910268 0.219459 0)
(0.942782 0.228285 0)
(0.979242 0.235991 0)
(1.0215 0.238548 0)
(1.06942 0.237038 0)
(1.12309 0.229253 0)
(0.855274 0.177106 0)
(0.884846 0.181804 0)
(0.914418 0.18966 0)
(0.946148 0.196732 0)
(0.980335 0.205557 0)
(1.01888 0.211647 0)
(1.06215 0.214029 0)
(1.11065 0.21083 0)
(0.853963 0.160868 0)
(0.883789 0.160891 0)
(0.91572 0.163058 0)
(0.949656 0.165988 0)
(0.984526 0.171471 0)
(1.02166 0.178412 0)
(1.06083 0.185013 0)
(1.103 0.188145 0)
(0.84967 0.145928 0)
(0.878747 0.143311 0)
(0.911625 0.141681 0)
(0.948098 0.140443 0)
(0.985876 0.142799 0)
(1.02484 0.147114 0)
(1.06394 0.153261 0)
(1.10315 0.158479 0)
(0.844293 0.129335 0)
(0.872026 0.127024 0)
(0.905093 0.124385 0)
(0.943017 0.12159 0)
(0.983693 0.121215 0)
(1.02487 0.122671 0)
(1.06478 0.125306 0)
(1.10302 0.128276 0)
(0.842397 0.107267 0)
(0.868724 0.107817 0)
(0.901924 0.107977 0)
(0.940661 0.10676 0)
(0.982274 0.105758 0)
(1.02447 0.104986 0)
(1.0647 0.104214 0)
(1.10205 0.102323 0)
(0.841492 0.0831478 0)
(0.867508 0.0882365 0)
(0.900358 0.0926979 0)
(0.938101 0.0948085 0)
(0.978022 0.0938041 0)
(1.01904 0.0899317 0)
(1.05904 0.0846307 0)
(1.0967 0.0791034 0)
(0.846779 0.0557579 0)
(0.87281 0.0663619 0)
(0.902335 0.0762695 0)
(0.935334 0.0822327 0)
(0.971324 0.0835159 0)
(1.00886 0.0792835 0)
(1.04677 0.0712906 0)
(1.08461 0.0613941 0)
(0.856428 0.0342097 0)
(0.882171 0.0457144 0)
(0.909495 0.0565289 0)
(0.938061 0.0640887 0)
(0.967881 0.0670872 0)
(0.999726 0.0649309 0)
(1.03414 0.058235 0)
(1.07065 0.0485547 0)
(0.862274 0.0146856 0)
(0.891218 0.0251932 0)
(0.918171 0.0356581 0)
(0.944064 0.0426325 0)
(0.969734 0.0448494 0)
(0.996805 0.0426354 0)
(1.02735 0.0361879 0)
(1.06164 0.0271923 0)
(0.872372 0.0112545 0)
(0.901595 0.0129404 0)
(0.924883 0.0146346 0)
(0.94548 0.0155235 0)
(0.966412 0.0152123 0)
(0.989743 0.0135251 0)
(1.01801 0.0106612 0)
(1.05428 0.00797758 0)
(1.58242 0.982469 0)
(2.11859 0.975881 0)
(2.41134 0.712865 0)
(2.43095 0.298378 0)
(2.37677 0.00979121 0)
(2.2248 -0.154034 0)
(2.00006 -0.228751 0)
(1.95854 -0.236906 0)
(1.96085 -0.166131 0)
(1.87278 -0.101917 0)
(1.69606 -0.0923608 0)
(1.59979 -0.0662721 0)
(1.47054 -0.0354649 0)
(1.34826 -0.0159374 0)
(1.36394 -0.00431567 0)
(1.34242 -0.00029063 0)
(1.30954 0.003858 0)
(1.27807 0.00513983 0)
(1.27612 0.00433686 0)
(1.29669 0.00201599 0)
(1.33513 -0.000834018 0)
(1.36451 -0.00441707 0)
(1.38094 -0.00907564 0)
(1.39708 -0.0126001 0)
(1.41644 -0.0145331 0)
(1.44198 -0.0156959 0)
(1.47054 -0.0162048 0)
(1.49424 -0.0162587 0)
(1.51669 -0.0151338 0)
(1.53461 -0.0116243 0)
(1.55009 -0.00526556 0)
(1.56769 0.00250689 0)
(1.58688 0.0093344 0)
(1.60689 0.0132922 0)
(1.62727 0.0144802 0)
(1.64989 0.0146727 0)
(1.67577 0.0143471 0)
(1.70551 0.0134714 0)
(1.73684 0.0115905 0)
(1.76369 0.00755564 0)
(1.78595 0.00145976 0)
(1.80731 -0.00485029 0)
(1.82692 -0.00947491 0)
(1.83971 -0.0103846 0)
(1.84612 -0.00634072 0)
(1.85249 0.000694765 0)
(1.86151 0.00797301 0)
(1.87253 0.0126096 0)
(1.88976 0.0135373 0)
(1.91438 0.0143132 0)
(1.94097 0.0152888 0)
(1.97085 0.0165014 0)
(1.9865 0.0133934 0)
(1.98812 0.00687255 0)
(1.9458 -0.0111755 0)
(1.86267 -0.0460627 0)
(1.74867 -0.0505185 0)
(1.63177 -0.0440028 0)
(1.59948 -0.0398502 0)
(1.60043 -0.0247933 0)
(1.60917 -0.00251188 0)
(1.62201 0.00911568 0)
(1.63371 0.0124822 0)
(1.64811 0.012528 0)
(1.66644 0.0107034 0)
(1.68634 0.0083625 0)
(1.70603 0.00539161 0)
(1.71969 0.000856935 0)
(1.72861 -0.00397171 0)
(1.73799 -0.00839359 0)
(1.74495 -0.0109046 0)
(1.74189 -0.00904972 0)
(1.73173 -0.003172 0)
(1.73385 0.00365828 0)
(1.74414 0.00687332 0)
(1.75555 0.00810764 0)
(1.77327 0.00827498 0)
(1.79878 0.00687919 0)
(1.81964 0.00517917 0)
(1.83252 0.0037462 0)
(1.84464 0.00268984 0)
(1.85616 0.00123965 0)
(1.8653 -0.00163722 0)
(1.86864 -0.00279303 0)
(1.86505 -0.000435911 0)
(1.86805 0.00322233 0)
(1.87729 0.00506715 0)
(1.89476 0.00558038 0)
(1.69748 0.765559 0)
(2.06365 0.475594 0)