/*--------------------------------*- C++ -*----------------------------------*\
  =========                 |
  \\      /  F ield         | OpenFOAM: The Open Source CFD Toolbox
   \\    /   O peration     | Website:  https://openfoam.org
    \\  /    A nd           | Version:  7
     \\/     M anipulation  |
\*---------------------------------------------------------------------------*/
FoamFile
{
    version     2.0;
    format      ascii;
    class       volVectorField;
    location    "2.2";
    object      U;
}
// * * * * * * * * * * * * * * * * * * * * * * * * * * * * * * * * * * * * * //

dimensions      [0 1 -1 0 0 0 0];

internalField   nonuniform List<vector> 
4048
(
(3 -3.64212e-18 0)
(3 -1.52577e-16 0)
(3 -1.49392e-16 0)
(3 4.79268e-16 0)
(3 6.16729e-16 0)
(3 1.08214e-15 0)
(3 7.89698e-16 0)
(3 3.5835e-16 0)
(3 -4.44491e-16 0)
(3 -2.42465e-16 0)
(3 -2.46861e-16 0)
(3 1.38683e-16 0)
(3 4.85391e-16 0)
(3 8.78238e-16 0)
(3 7.40822e-16 0)
(3 -4.79964e-16 0)
(1.17581 0.0216346 0)
(0.699959 0.0217972 0)
(0.627473 0.031147 0)
(0.545271 0.0368007 0)
(0.453486 0.0426099 0)
(0.348501 0.0518696 0)
(0.223128 0.0600135 0)
(0.089148 0.0734484 0)
(3 -9.62238e-17 0)
(3 -1.97709e-16 0)
(3 -2.59695e-16 0)
(3 -3.95155e-18 0)
(3 9.75329e-17 0)
(3 6.57642e-16 0)
(3 5.06399e-16 0)
(3 1.97844e-16 0)
(3 -1.10197e-15 0)
(3 -9.61294e-16 0)
(3 -7.41071e-16 0)
(3 -1.76049e-16 0)
(3 1.51861e-16 0)
(3 6.85397e-16 0)
(3 7.68832e-16 0)
(3 6.73652e-16 0)
(1.21305 0.0997367 0)
(0.693878 0.0881775 0)
(0.612061 0.100422 0)
(0.528527 0.116937 0)
(0.435467 0.134138 0)
(0.334322 0.163605 0)
(0.214361 0.196169 0)
(0.0807889 0.234193 0)
(3 -1.48964e-16 0)
(3 -4.71061e-17 0)
(3 -1.57032e-16 0)
(3 -1.4998e-16 0)
(3 -6.77662e-17 0)
(3 -1.91222e-16 0)
(3 3.55222e-17 0)
(3 -2.11125e-16 0)
(3 -4.43789e-16 0)
(3 -7.39959e-16 0)
(3 -1.17364e-15 0)
(3 -1.22958e-15 0)
(3 -1.16746e-15 0)
(3 -1.78399e-15 0)
(3 -3.05116e-16 0)
(3 -8.69225e-17 0)
(1.32759 0.175342 0)
(0.713922 0.156065 0)
(0.623445 0.171682 0)
(0.543575 0.196974 0)
(0.45829 0.221513 0)
(0.371897 0.264422 0)
(0.260882 0.318883 0)
(0.124176 0.393591 0)
(3 2.04534e-16 0)
(3 5.68641e-17 0)
(3 -8.23894e-17 0)
(3 -1.94452e-16 0)
(3 -8.84502e-17 0)
(3 -1.837e-16 0)
(3 5.04613e-17 0)
(3 -1.41682e-16 0)
(3 -1.27935e-16 0)
(3 -2.57305e-16 0)
(3 -8.54802e-16 0)
(3 -5.85688e-16 0)
(3 -5.14631e-16 0)
(3 -5.68759e-17 0)
(3 4.89127e-17 0)
(3 5.85802e-16 0)
(1.51887 0.244847 0)
(0.744277 0.23031 0)
(0.640823 0.241473 0)
(0.569107 0.271048 0)
(0.487127 0.299028 0)
(0.405641 0.365444 0)
(0.264685 0.468385 0)
(0.166807 0.629132 0)
(3 6.41699e-17 0)
(3 -1.5588e-16 0)
(3 -1.84808e-16 0)
(3 -2.74424e-16 0)
(3 -6.29801e-16 0)
(3 -3.30738e-16 0)
(3 -5.61908e-16 0)
(3 -4.43416e-16 0)
(3 -3.77313e-16 0)
(3 -2.90213e-16 0)
(3 -2.35897e-17 0)
(3 8.65027e-16 0)
(3 5.6152e-16 0)
(3 1.09534e-15 0)
(3 1.41481e-15 0)
(3 -1.63866e-15 0)
(1.80616 0.309842 0)
(0.789792 0.315252 0)
(0.660624 0.309411 0)
(0.596293 0.34039 0)
(0.52324 0.376247 0)
(0.462823 0.467204 0)
(0.403566 0.601759 0)
(0.458954 0.747584 0)
(3 3.88988e-18 0)
(3 -7.89447e-17 0)
(3 -3.44097e-17 0)
(3 5.87918e-16 0)
(3 9.39701e-16 0)
(3 9.19191e-16 0)
(3 7.20967e-16 0)
(3 3.75331e-16 0)
(3 -8.21783e-17 0)
(3 -2.62597e-16 0)
(3 2.85171e-16 0)
(3 4.58137e-16 0)
(3 6.10682e-17 0)
(3 -7.83558e-16 0)
(3 -3.87524e-16 0)
(3 -1.14098e-15 0)
(2.23771 0.346332 0)
(0.866899 0.416712 0)
(0.702764 0.383972 0)
(0.644765 0.408773 0)
(0.583872 0.442317 0)
(0.549407 0.524558 0)
(0.54174 0.607342 0)
(0.585513 0.637781 0)
(3 5.49673e-17 0)
(3 5.74493e-17 0)
(3 1.40229e-16 0)
(3 9.01402e-16 0)
(3 1.97654e-15 0)
(3 1.40827e-15 0)
(3 1.58106e-15 0)
(3 1.64735e-15 0)
(3 8.5694e-16 0)
(3 -2.49378e-16 0)
(3 -6.00238e-16 0)
(3 -8.33374e-16 0)
(3 -7.51054e-16 0)
(3 -1.04178e-15 0)
(3 -8.47477e-16 0)
(3 -1.37806e-15 0)
(2.84304 0.21928 0)
(1.04731 0.498477 0)
(0.807783 0.435345 0)
(0.746772 0.458192 0)
(0.68422 0.487778 0)
(0.651347 0.554664 0)
(0.658849 0.62191 0)
(0.68274 0.645218 0)
(3 -7.24439e-17 0)
(3 -1.51034e-16 0)
(3 -3.79343e-16 0)
(3 -2.45564e-16 0)
(3 1.837e-17 0)
(3 -5.99045e-17 0)
(3 1.17931e-17 0)
(3 2.86197e-16 0)
(3 6.71274e-16 0)
(3 3.20475e-16 0)
(3 -1.11889e-15 0)
(3 -1.45453e-15 0)
(3 -1.53275e-15 0)
(3 -1.27667e-15 0)
(3 -3.20056e-16 0)
(3 8.21912e-17 0)
(3.05621 0.0172056 0)
(1.31172 0.49237 0)
(0.889429 0.498162 0)
(0.838996 0.526339 0)
(0.786355 0.546109 0)
(0.74665 0.587793 0)
(0.753488 0.635039 0)
(0.758722 0.656625 0)
(3 -7.82286e-17 0)
(3 -2.56424e-16 0)
(3 -4.13009e-16 0)
(3 -5.3025e-16 0)
(3 -4.91354e-16 0)
(3 -1.27585e-16 0)
(3 -5.7197e-16 0)
(3 -1.19014e-15 0)
(3 -9.73011e-16 0)
(3 -1.74961e-16 0)
(3 1.73406e-16 0)
(3 -2.01762e-16 0)
(3 -9.58716e-16 0)
(3 -8.81673e-16 0)
(3 -8.00569e-16 0)
(3 -6.5929e-17 0)
(3.00273 -5.05701e-06 0)
(1.63606 0.494848 0)
(0.899358 0.563239 0)
(0.845169 0.582583 0)
(0.827951 0.607397 0)
(0.811052 0.624843 0)
(0.818695 0.653612 0)
(0.823601 0.677048 0)
(3 1.50229e-16 0)
(3 1.28959e-16 0)
(3 4.66995e-16 0)
(3 1.67185e-16 0)
(3 -1.37705e-17 0)
(3 1.44601e-16 0)
(3 -1.53237e-16 0)
(3 -4.19772e-16 0)
(3 -8.65855e-16 0)
(3 -9.10342e-17 0)
(3 1.31011e-15 0)
(3 9.23649e-16 0)
(3 5.44079e-16 0)
(3 1.8992e-16 0)
(3 -3.08399e-16 0)
(3 -4.41489e-16 0)
(3.00001 -4.37245e-07 0)
(2.36395 0.454516 0)
(1.00763 0.63893 0)
(0.890826 0.601765 0)
(0.886801 0.625306 0)
(0.877939 0.640643 0)
(0.879824 0.665861 0)
(0.888166 0.694423 0)
(3 1.23152e-16 0)
(3 3.84709e-16 0)
(3 1.00452e-16 0)
(3 -2.72193e-16 0)
(3 -9.88204e-16 0)
(3 -7.8132e-16 0)
(3 -1.63401e-16 0)
(3 -1.62001e-16 0)
(3 -2.99124e-16 0)
(3 -2.34084e-16 0)
(3 3.98296e-17 0)
(3 3.3032e-16 0)
(3 5.64382e-16 0)
(3 1.93451e-16 0)
(3 -5.13159e-16 0)
(3 -7.20905e-16 0)
(3 -4.46974e-07 0)
(3.08039 0.089134 0)
(1.30396 0.635713 0)
(0.98885 0.618274 0)
(0.969591 0.643028 0)
(0.956563 0.665187 0)
(0.946892 0.685996 0)
(0.951545 0.717278 0)
(3 2.92685e-17 0)
(3 2.21308e-16 0)
(3 1.55199e-16 0)
(3 2.75852e-17 0)
(3 -3.962e-16 0)
(3 -3.87033e-16 0)
(3 1.29021e-16 0)
(3 5.32693e-16 0)
(3 3.31654e-16 0)
(3 -2.40756e-16 0)
(3 -9.45217e-16 0)
(3 -5.3771e-16 0)
(3 -8.35002e-17 0)
(3 2.61983e-16 0)
(3 -6.063e-17 0)
(3 -3.17162e-16 0)
(3 -8.94241e-08 0)
(3.01704 0.000591379 0)
(1.62532 0.601531 0)
(1.02062 0.692362 0)
(0.989566 0.694702 0)
(0.985563 0.711449 0)
(0.986009 0.725182 0)
(0.996779 0.749304 0)
(3 -2.84411e-16 0)
(3 -4.47139e-16 0)
(3 -4.35641e-16 0)
(3 -1.61077e-16 0)
(3 1.77086e-17 0)
(3 1.62845e-16 0)
(3 4.20937e-16 0)
(3 1.11916e-15 0)
(3 1.20091e-15 0)
(3 8.06915e-16 0)
(3 -7.70452e-17 0)
(3 1.10999e-16 0)
(3 7.21583e-16 0)
(3 4.03765e-16 0)
(3 4.79378e-16 0)
(3 -2.27149e-17 0)
(3 -7.05903e-09 0)
(3.00016 -3.00451e-06 0)
(2.45759 0.456934 0)
(1.13975 0.732348 0)
(1.03243 0.728226 0)
(1.02973 0.732445 0)
(1.03295 0.741438 0)
(1.04474 0.764 0)
(3 -3.1126e-16 0)
(3 -5.97013e-16 0)
(3 -6.4061e-16 0)
(3 -5.89314e-16 0)
(3 1.70073e-16 0)
(3 2.69493e-16 0)
(3 4.65445e-16 0)
(3 7.01722e-16 0)
(3 7.42069e-16 0)
(3 9.27514e-16 0)
(3 5.69364e-16 0)
(3 7.90738e-16 0)
(3 8.12006e-16 0)
(3 -3.6305e-16 0)
(3 -1.01699e-15 0)
(3 -8.29898e-16 0)
(3 -3.22996e-11 0)
(3.00001 -6.40969e-06 0)
(3.06844 0.0605146 0)
(1.47806 0.721108 0)
(1.10857 0.748322 0)
(1.09749 0.748614 0)
(1.09015 0.764236 0)
(1.09878 0.780624 0)
(3 -1.85263e-16 0)
(3 -1.25182e-16 0)
(3 2.42119e-16 0)
(3 5.39997e-16 0)
(3 1.22926e-15 0)
(3 1.1884e-15 0)
(3 6.96351e-16 0)
(3 1.55009e-16 0)
(3 3.01135e-16 0)
(3 2.9888e-16 0)
(3 1.0487e-15 0)
(3 7.60597e-16 0)
(3 1.7833e-16 0)
(3 -2.43238e-16 0)
(3 -7.52576e-16 0)
(3 -6.96136e-16 0)
(3 -4.51001e-14 0)
(3 -1.3209e-06 0)
(3.00791 0.000690515 0)
(2.09523 0.641031 0)
(1.17242 0.811906 0)
(1.13415 0.80002 0)
(1.14251 0.796325 0)
(1.15222 0.804428 0)
(3 6.56879e-17 0)
(3 2.93256e-16 0)
(3 4.9612e-16 0)
(3 5.40896e-16 0)
(3 6.11573e-16 0)
(3 1.97235e-16 0)
(3 3.13195e-16 0)
(3 2.04739e-16 0)
(3 7.20287e-17 0)
(3 2.29904e-17 0)
(3 2.76147e-16 0)
(3 1.85191e-17 0)
(3 -2.32547e-16 0)
(3 -5.56063e-16 0)
(3 -9.31675e-16 0)
(3 -1.6019e-15 0)
(3 -9.28519e-16 0)
(3 -1.05329e-07 0)
(3.00003 2.99846e-06 0)
(3.00391 0.169505 0)
(1.45799 0.794354 0)
(1.18812 0.797006 0)
(1.2101 0.804053 0)
(1.21793 0.8133 0)
(3 3.98239e-16 0)
(3 3.58426e-16 0)
(3 3.84639e-17 0)
(3 -2.65168e-16 0)
(3 -1.38928e-16 0)
(3 1.0883e-16 0)
(3 1.62754e-16 0)
(3 2.74016e-16 0)
(3 6.49235e-16 0)
(3 3.06222e-16 0)
(3 -1.43917e-16 0)
(3 -4.78107e-16 0)
(3 -4.48751e-16 0)
(3 -9.75756e-16 0)
(3 -1.60677e-15 0)
(3 -2.19135e-15 0)
(3 -1.17788e-15 0)
(3 -5.00449e-10 0)
(3 -1.05852e-06 0)
(3.02158 0.0035918 0)
(1.96352 0.71482 0)
(1.22548 0.84759 0)
(1.22285 0.841017 0)
(1.24888 0.843235 0)
(3 2.52382e-16 0)
(3 -4.39512e-16 0)
(3 -7.20634e-16 0)
(3 -5.20219e-16 0)
(3 -9.93817e-17 0)
(3 1.89688e-16 0)
(3 1.87013e-17 0)
(3 2.47082e-16 0)
(3 3.24883e-16 0)
(3 1.61753e-16 0)
(3 -1.03249e-16 0)
(3 -2.79138e-16 0)
(3 -7.40023e-16 0)
(3 -9.85843e-16 0)
(3 -1.2377e-15 0)
(3 -6.2874e-16 0)
(3 1.38922e-15 0)
(3 -7.41665e-13 0)
(3 -2.09596e-07 0)
(3.00018 5.29373e-05 0)
(2.92697 0.251501 0)
(1.49643 0.853758 0)
(1.25507 0.829527 0)
(1.29093 0.838494 0)
(3 -7.7438e-17 0)
(3 -2.21585e-16 0)
(3 -3.117e-16 0)
(3 8.29512e-17 0)
(3 1.016e-16 0)
(3 -2.58694e-17 0)
(3 2.40315e-18 0)
(3 1.95954e-16 0)
(3 -3.91922e-16 0)
(3 -1.4478e-16 0)
(3 -6.03106e-16 0)
(3 -1.01094e-15 0)
(3 -1.83941e-15 0)
(3 -2.37503e-15 0)
(3 -1.45471e-15 0)
(3 1.30536e-15 0)
(3 1.95255e-15 0)
(3 2.23324e-16 0)
(3 -1.8283e-08 0)
(3 1.09085e-08 0)
(3.02657 0.00871271 0)
(2.04128 0.734052 0)
(1.30978 0.877777 0)
(1.30702 0.87375 0)
(3 -7.2354e-17 0)
(3 5.0977e-16 0)
(3 9.32382e-16 0)
(3 7.22194e-16 0)
(3 6.01376e-16 0)
(3 4.66676e-16 0)
(3 4.51178e-16 0)
(3 3.12006e-16 0)
(3 -3.3546e-16 0)
(3 -8.4498e-16 0)
(3 -1.73334e-15 0)
(3 -2.25705e-15 0)
(3 -1.85458e-15 0)
(3 -1.56704e-15 0)
(3 2.51278e-17 0)
(3 8.39427e-16 0)
(3 -1.18141e-16 0)
(3 -6.40419e-16 0)
(3 -1.55896e-10 0)
(3 -2.93034e-09 0)
(3.00032 0.000199574 0)
(2.93379 0.235672 0)
(1.61477 0.884815 0)
(1.33905 0.871665 0)
(3 6.10736e-18 0)
(3 -4.50902e-17 0)
(3 -4.34365e-16 0)
(3 -3.07919e-16 0)
(3 -3.74908e-16 0)
(3 7.93789e-17 0)
(3 7.5511e-17 0)
(3 -7.23711e-17 0)
(3 -1.94921e-16 0)
(3 -1.1564e-15 0)
(3 -9.7171e-16 0)
(3 -1.12521e-15 0)
(3 -6.34474e-16 0)
(3 7.22962e-17 0)
(3 5.26437e-16 0)
(3 2.28373e-16 0)
(3 -1.88076e-15 0)
(3 -1.9149e-15 0)
(3 -6.38503e-13 0)
(3 -5.49182e-10 0)
(3 2.62706e-07 0)
(3.01695 0.0103753 0)
(2.31064 0.692278 0)
(1.42238 0.91609 0)
(3 -2.67611e-16 0)
(3 -3.23867e-16 0)
(3 -1.16527e-15 0)
(3 -9.16583e-16 0)
(3 -1.16203e-15 0)
(3 -9.35875e-16 0)
(3 -8.2892e-16 0)
(3 -5.06579e-16 0)
(3 -5.2736e-16 0)
(3 -5.53638e-16 0)
(3 8.4718e-18 0)
(3 1.8734e-16 0)
(3 3.02318e-17 0)
(3 -2.27732e-17 0)
(3 -3.35262e-16 0)
(3 -7.90917e-16 0)
(3 -1.81601e-15 0)
(3 -1.84381e-15 0)
(3 -2.25794e-15 0)
(3 -4.45107e-11 0)
(3 -9.00987e-12 0)
(3.00014 0.000235451 0)
(3.00349 0.138097 0)
(1.82137 0.853964 0)
(3 -1.2997e-16 0)
(3 3.43191e-17 0)
(3 2.02591e-16 0)
(3 8.48783e-17 0)
(3 4.59919e-18 0)
(3 -8.12538e-16 0)
(3 -9.6148e-16 0)
(3 -5.59419e-16 0)
(3 -2.18248e-16 0)
(3 3.63346e-16 0)
(3 -3.78999e-17 0)
(3 -3.11258e-17 0)
(3 -4.68287e-16 0)
(3 -5.60584e-16 0)
(3 -6.75629e-16 0)
(3 -2.05885e-15 0)
(3 -2.15582e-15 0)
(3 -1.24814e-15 0)
(3 -9.19855e-16 0)
(3 -1.05656e-12 0)
(3 -1.76585e-12 0)
(3 3.47836e-07 0)
(3.00553 0.00677658 0)
(2.63643 0.498436 0)
(3 1.91133e-16 0)
(3 6.46986e-16 0)
(3 1.06398e-15 0)
(3 4.68473e-16 0)
(3 6.32343e-16 0)
(3 -2.33809e-16 0)
(3 -9.45354e-16 0)
(3 -1.06829e-15 0)
(3 -5.11002e-16 0)
(3 3.49688e-18 0)
(3 4.22252e-16 0)
(3 2.27155e-16 0)
(3 -3.40699e-16 0)
(3 -9.2751e-16 0)
(3 -1.01747e-15 0)
(3 -1.03391e-15 0)
(3 -1.42637e-15 0)
(3 -1.86652e-15 0)
(3 -8.87841e-16 0)
(3 -4.92386e-15 0)
(3 -3.91605e-13 0)
(3 8.77981e-11 0)
(3.00001 8.20082e-05 0)
(3.01681 0.0498066 0)
(3 4.76052e-16 0)
(3 1.3561e-16 0)
(3 4.15081e-16 0)
(3 3.0109e-16 0)
(3 5.83212e-16 0)
(3 3.94153e-16 0)
(3 2.94801e-16 0)
(3 -7.88469e-16 0)
(3 -8.11246e-16 0)
(3 -6.18857e-16 0)
(3 -1.19777e-16 0)
(3 -1.21914e-16 0)
(3 -3.7533e-16 0)
(3 -1.23418e-15 0)
(3 -1.96125e-15 0)
(3 -9.26553e-16 0)
(3 -7.55937e-16 0)
(3 -9.14567e-16 0)
(3 1.45358e-16 0)
(3 -2.93945e-16 0)
(3 -2.5719e-14 0)
(3 -1.54448e-14 0)
(3 7.82743e-08 0)
(3.00068 0.00211755 0)
(3 -1.78748e-16 0)
(3 -1.11703e-16 0)
(3 -2.71879e-16 0)
(3 -4.41544e-16 0)
(3 -4.66923e-16 0)
(3 6.17265e-17 0)
(3 3.31083e-16 0)
(3 -3.11487e-16 0)
(3 -1.8519e-16 0)
(3 -3.44155e-16 0)
(3 -1.07495e-15 0)
(3 -1.59918e-15 0)
(3 -9.24555e-16 0)
(3 -7.42947e-17 0)
(3 -2.5634e-16 0)
(3 -1.10783e-15 0)
(3 -5.65493e-16 0)
(3 -4.24617e-16 0)
(3 -3.30243e-16 0)
(3 4.40574e-16 0)
(3 2.66033e-16 0)
(3 -5.49134e-15 0)
(3 2.65661e-11 0)
(3 9.29827e-06 0)
(3 -9.73138e-17 0)
(3 -2.46447e-16 0)
(3 -4.87715e-16 0)
(3 -5.79948e-16 0)
(3 -1.47092e-15 0)
(3 -1.39718e-15 0)
(3 -5.25226e-16 0)
(3 -7.75853e-17 0)
(3 4.13012e-16 0)
(3 -7.0007e-17 0)
(3 -8.43891e-16 0)
(3 -9.16534e-16 0)
(3 -6.77038e-16 0)
(3 1.04502e-15 0)
(3 1.32763e-15 0)
(3 9.45544e-16 0)
(3 5.55482e-17 0)
(3 -2.55405e-16 0)
(3 2.56371e-16 0)
(3 4.49212e-16 0)
(3 2.78558e-16 0)
(3 -1.0317e-15 0)
(3 3.269e-15 0)
(3 5.91006e-09 0)
(3 1.88695e-17 0)
(3 -1.77048e-16 0)
(3 3.00085e-17 0)
(3 4.85361e-17 0)
(3 3.7786e-16 0)
(3 3.19366e-16 0)
(3 5.11651e-16 0)
(3 9.13488e-16 0)
(3 6.80329e-16 0)
(3 -1.71339e-16 0)
(3 -3.60891e-16 0)
(3 -3.82605e-16 0)
(3 -9.76062e-16 0)
(3 -1.0262e-15 0)
(3 -5.00477e-16 0)
(3 7.59724e-16 0)
(3 3.90902e-16 0)
(3 7.45425e-16 0)
(3 4.59299e-16 0)
(3 -2.12977e-16 0)
(3 -1.03586e-15 0)
(3 -1.24698e-15 0)
(3 9.94369e-17 0)
(3 1.71919e-12 0)
(3 1.18272e-16 0)
(3 6.00209e-16 0)
(3 6.60649e-16 0)
(3 4.61709e-16 0)
(3 8.70333e-16 0)
(3 8.90569e-16 0)
(3 8.0772e-16 0)
(3 7.06307e-16 0)
(3 4.74261e-17 0)
(3 6.18418e-17 0)
(3 5.4341e-16 0)
(3 4.45248e-16 0)
(3 2.77234e-17 0)
(3 -4.03076e-16 0)
(3 -4.62393e-16 0)
(3 -1.62837e-16 0)
(3 3.26494e-16 0)
(3 6.68548e-16 0)
(3 2.58974e-16 0)
(3 -1.39728e-16 0)
(3 -8.6163e-16 0)
(3 -1.30374e-15 0)
(3 -8.41935e-17 0)
(3 1.65682e-15 0)
(3 1.39031e-16 0)
(3 4.51357e-16 0)
(3 3.60085e-16 0)
(3 5.57116e-16 0)
(3 1.4349e-18 0)
(3 -1.2692e-16 0)
(3 2.79374e-17 0)
(3 3.73627e-16 0)
(3 4.75751e-16 0)
(3 1.06003e-15 0)
(3 1.07894e-15 0)
(3 9.13024e-16 0)
(3 1.28602e-15 0)
(3 1.35815e-15 0)
(3 8.14889e-16 0)
(3 6.09306e-16 0)
(3 6.38851e-16 0)
(3 4.04131e-16 0)
(3 3.47329e-16 0)
(3 5.4191e-16 0)
(3 7.6305e-16 0)
(3 5.58039e-16 0)
(3 1.385e-15 0)
(3 1.58026e-15 0)
(3 -1.04864e-16 0)
(3 -2.47732e-16 0)
(3 8.30277e-17 0)
(3 1.95544e-16 0)
(3 2.95042e-16 0)
(3 1.47624e-16 0)
(3 3.64293e-16 0)
(3 1.4983e-16 0)
(3 6.75378e-17 0)
(3 1.11106e-15 0)
(3 1.13671e-15 0)
(3 9.4053e-16 0)
(3 8.59158e-16 0)
(3 3.35272e-16 0)
(3 6.46525e-16 0)
(3 1.4778e-15 0)
(3 1.72558e-15 0)
(3 1.17807e-15 0)
(3 1.14701e-15 0)
(3 1.11123e-15 0)
(3 1.11371e-15 0)
(3 9.23475e-16 0)
(3 1.80949e-15 0)
(3 1.61597e-15 0)
(3 -1.11893e-16 0)
(3 -7.52257e-16 0)
(3 -1.15736e-15 0)
(3 -1.34063e-15 0)
(3 -6.45727e-16 0)
(3 2.09758e-17 0)
(3 2.30841e-16 0)
(3 2.00258e-17 0)
(3 8.47565e-17 0)
(3 -2.32562e-16 0)
(3 -5.75351e-16 0)
(3 -4.42648e-16 0)
(3 -6.41112e-16 0)
(3 -2.91576e-16 0)
(3 7.51004e-16 0)
(3 1.5229e-15 0)
(3 1.32576e-15 0)
(3 6.24696e-16 0)
(3 3.79133e-16 0)
(3 -2.62602e-16 0)
(3 -8.40372e-16 0)
(3 -5.55721e-16 0)
(3 -6.76419e-16 0)
(3 -8.64603e-16 0)
(3 -1.55245e-16 0)
(3 -6.94433e-17 0)
(3 -8.76287e-16 0)
(3 -8.75607e-16 0)
(3 -7.92968e-16 0)
(3 -1.56442e-16 0)
(3 1.98429e-16 0)
(3 4.50892e-16 0)
(3 2.28413e-16 0)
(3 -5.16783e-16 0)
(3 -1.73203e-15 0)
(3 -1.83027e-15 0)
(3 -1.38057e-15 0)
(3 -6.93118e-16 0)
(3 -6.6042e-16 0)
(3 -7.90014e-16 0)
(3 -1.46951e-15 0)
(3 -1.63752e-15 0)
(3 -1.73061e-15 0)
(3 -1.35984e-15 0)
(3 -1.44392e-15 0)
(3 -1.16852e-15 0)
(3 -1.04957e-15 0)
(3 -4.13707e-16 0)
(3 2.08631e-16 0)
(3 4.25286e-16 0)
(3 7.49243e-16 0)
(3 5.77333e-16 0)
(3 7.03172e-16 0)
(3 1.09194e-15 0)
(3 7.90513e-16 0)
(3 4.43019e-16 0)
(3 -2.90429e-16 0)
(3 -2.15638e-16 0)
(3 6.33397e-17 0)
(3 3.40751e-16 0)
(3 3.09103e-16 0)
(3 -1.29746e-17 0)
(3 -4.29822e-16 0)
(3 -9.24537e-16 0)
(3 -4.28537e-16 0)
(3 -4.39255e-16 0)
(3 -1.26863e-15 0)
(3 -6.58582e-16 0)
(3 -5.84154e-16 0)
(3 -7.29606e-16 0)
(3 -7.33791e-16 0)
(3 -1.31585e-15 0)
(3 1.16979e-16 0)
(3 2.00238e-17 0)
(3 9.09833e-17 0)
(3 3.00311e-16 0)
(3 6.32314e-16 0)
(3 4.32885e-16 0)
(3 1.36059e-16 0)
(3 -1.06306e-16 0)
(3 -2.14366e-16 0)
(3 -4.38745e-16 0)
(3 -1.49651e-16 0)
(3 8.7772e-16 0)
(3 1.21655e-15 0)
(3 8.97817e-16 0)
(3 7.00061e-16 0)
(3 8.07132e-16 0)
(3 1.37479e-15 0)
(3 4.46617e-16 0)
(3 -6.88922e-16 0)
(3 -2.19085e-15 0)
(3 -2.18334e-15 0)
(3 -1.7813e-15 0)
(3 -9.2539e-16 0)
(3 -8.70314e-16 0)
(3 -1.70177e-16 0)
(3 -8.50661e-17 0)
(3 1.03534e-17 0)
(3 1.8486e-16 0)
(3 1.74821e-16 0)
(3 -5.24752e-17 0)
(3 5.93462e-18 0)
(3 2.94873e-16 0)
(3 5.38037e-16 0)
(3 4.69346e-16 0)
(3 5.84882e-16 0)
(3 1.17063e-15 0)
(3 1.7765e-15 0)
(3 2.48617e-15 0)
(3 1.52938e-15 0)
(3 6.13164e-16 0)
(3 -4.49078e-16 0)
(3 -1.96567e-15 0)
(3 -1.93902e-15 0)
(3 -2.12724e-15 0)
(3 -2.68375e-15 0)
(3 -2.07223e-15 0)
(3 -1.23459e-15 0)
(3 -5.63161e-16 0)
(3 -1.69465e-17 0)
(3 1.39013e-16 0)
(3 5.38574e-16 0)
(3 3.98344e-16 0)
(3 -2.08097e-18 0)
(3 -3.46125e-16 0)
(3 -3.82721e-16 0)
(3 2.91509e-16 0)
(3 6.22639e-16 0)
(3 1.09683e-15 0)
(3 1.19318e-15 0)
(3 2.04328e-15 0)
(3 2.24037e-15 0)
(3 6.01615e-16 0)
(3 -8.0295e-16 0)
(3 -1.11518e-15 0)
(3 -1.61238e-15 0)
(3 -1.84081e-15 0)
(3 -1.35708e-15 0)
(3 -9.22741e-16 0)
(3 -3.77771e-16 0)
(3 -3.64806e-16 0)
(3 -1.20079e-15 0)
(3 -1.3506e-15 0)
(3 -4.02365e-17 0)
(3 -1.94154e-17 0)
(3 -7.23912e-17 0)
(3 -3.71743e-16 0)
(3 -5.61924e-16 0)
(3 -9.39506e-16 0)
(3 -5.59299e-16 0)
(3 -8.48246e-17 0)
(3 2.31698e-16 0)
(3 7.05829e-16 0)
(3 7.05695e-16 0)
(3 2.8355e-16 0)
(3 -6.42695e-16 0)
(3 -1.42201e-15 0)
(3 -1.7897e-15 0)
(3 -1.89117e-15 0)
(3 -1.33093e-15 0)
(3 -9.14972e-16 0)
(3 -6.30553e-16 0)
(3 -2.0956e-16 0)
(3 7.53708e-16 0)
(3 1.36161e-15 0)
(3 7.27362e-16 0)
(3 -6.35219e-16 0)
(3 1.11407e-17 0)
(3 1.01553e-16 0)
(3 -4.12199e-16 0)
(3 -1.36047e-15 0)
(3 -1.46074e-15 0)
(3 -1.00101e-15 0)
(3 -3.46469e-16 0)
(3 3.8816e-16 0)
(3 4.46701e-16 0)
(3 8.32369e-17 0)
(3 -4.323e-16 0)
(3 -1.15555e-15 0)
(3 -1.46941e-15 0)
(3 -8.76516e-16 0)
(3 -3.50073e-16 0)
(3 2.54752e-17 0)
(3 5.12617e-16 0)
(3 2.86898e-16 0)
(3 3.83924e-17 0)
(3 4.32089e-16 0)
(3 1.09508e-15 0)
(3 1.11194e-15 0)
(3 1.28641e-15 0)
(3 9.9336e-16 0)
(3 1.55219e-16 0)
(3 7.08415e-17 0)
(3 -2.70221e-16 0)
(3 -6.9188e-16 0)
(3 -9.36021e-16 0)
(3 -1.01184e-15 0)
(3 -8.43446e-16 0)
(3 -3.16462e-16 0)
(3 -5.81392e-16 0)
(3 -7.75221e-16 0)
(3 -9.61319e-16 0)
(3 -7.57956e-16 0)
(3 -8.18146e-16 0)
(3 -2.54925e-17 0)
(3 4.72601e-16 0)
(3 7.11242e-16 0)
(3 9.09551e-16 0)
(3 7.23997e-16 0)
(3 2.04711e-16 0)
(3 2.65633e-16 0)
(3 3.48602e-16 0)
(3 3.40121e-16 0)
(3 9.21759e-16 0)
(3 1.3362e-15 0)
(0.565962 0.525109 0)
(0.139795 0.278197 0)
(0.0224374 0.0665308 0)
(0.0094736 0.00448621 0)
(0.610634 0.451227 0)
(0.37012 0.288194 0)
(0.215132 0.120389 0)
(0.0630311 0.0620927 0)
(0.663744 0.574161 0)
(0.504766 0.507011 0)
(0.349565 0.346807 0)
(0.149446 0.23768 0)
(0.742286 0.641881 0)
(0.657397 0.621029 0)
(0.507073 0.536367 0)
(0.230465 0.582534 0)
(0.81777 0.683212 0)
(0.784073 0.714567 0)
(0.734752 0.768353 0)
(0.759104 0.93913 0)
(0.888502 0.723843 0)
(0.897816 0.785983 0)
(0.946826 0.849709 0)
(1.13623 0.930141 0)
(0.959327 0.754859 0)
(0.996009 0.813567 0)
(1.09394 0.872081 0)
(1.30145 0.920874 0)
(1.02049 0.781535 0)
(1.07332 0.821314 0)
(1.18331 0.867006 0)
(1.36853 0.892458 0)
(1.07499 0.790121 0)
(1.13615 0.82629 0)
(1.24247 0.860033 0)
(1.40092 0.87661 0)
(1.12834 0.797394 0)
(1.18774 0.8197 0)
(1.28276 0.840553 0)
(1.41681 0.849477 0)
(1.1816 0.814394 0)
(1.23605 0.827836 0)
(1.32092 0.84007 0)
(1.4333 0.84379 0)
(1.24595 0.819895 0)
(1.29206 0.827505 0)
(1.36506 0.832676 0)
(1.45581 0.833391 0)
(1.28606 0.849182 0)
(1.33396 0.854063 0)
(1.39981 0.853755 0)
(1.47647 0.848009 0)
(1.32705 0.84824 0)
(1.37539 0.853577 0)
(1.43682 0.853291 0)
(1.50442 0.846834 0)
(1.34731 0.873582 0)
(1.39261 0.874385 0)
(1.44994 0.872306 0)
(1.51223 0.864991 0)
(1.38254 0.870661 0)
(1.41821 0.870724 0)
(1.46831 0.86758 0)
(1.52655 0.859776 0)
(1.40593 0.906644 0)
(1.44089 0.894313 0)
(1.48251 0.884264 0)
(1.53309 0.874064 0)
(1.44054 0.9155 0)
(1.48175 0.902862 0)
(1.51565 0.890288 0)
(1.55588 0.879147 0)
(1.61518 0.950556 0)
(1.49264 0.927394 0)
(1.53662 0.918144 0)
(1.57393 0.905422 0)
(2.16311 0.772797 0)
(1.56369 0.943324 0)
(1.5624 0.937305 0)
(1.59965 0.919177 0)
(2.89999 0.23953 0)
(1.88825 0.878004 0)
(1.59987 0.950909 0)
(1.62596 0.939651 0)
(3.00351 0.0156865 0)
(2.59267 0.505299 0)
(1.77695 0.941485 0)
(1.6416 0.958908 0)
(2.99998 0.000298116 0)
(2.98892 0.0607072 0)
(2.32471 0.704858 0)
(1.7152 0.971236 0)
(3 4.91326e-07 0)
(2.99989 0.0025862 0)
(2.92248 0.176723 0)
(2.12092 0.815081 0)
(3 3.12088e-10 0)
(3 1.18902e-05 0)
(2.99891 0.0111895 0)
(2.77589 0.340411 0)
(3 3.7808e-14 0)
(3 1.1769e-08 0)
(2.99997 0.000134977 0)
(2.99315 0.0303534 0)
(3 -1.19354e-15 0)
(3 3.58802e-12 0)
(3 2.05352e-07 0)
(2.99983 0.000791238 0)
(3 -6.24161e-16 0)
(3 4.59559e-16 0)
(3 1.29439e-10 0)
(3 1.99338e-06 0)
(3 3.74201e-16 0)
(3 -3.69557e-16 0)
(3 1.05764e-14 0)
(3 2.08021e-09 0)
(3 -8.56621e-16 0)
(3 -3.89981e-16 0)
(3 -5.60604e-16 0)
(3 2.86833e-13 0)
(3 -8.7411e-16 0)
(3 -3.59849e-16 0)
(3 4.0648e-16 0)
(3 1.50845e-15 0)
(3 -1.23661e-15 0)
(3 -5.64234e-16 0)
(3 4.28532e-16 0)
(3 3.68153e-17 0)
(3 -1.25882e-15 0)
(3 -1.23748e-15 0)
(3 -8.8939e-16 0)
(3 -2.62682e-16 0)
(3 -4.59923e-16 0)
(3 -2.46344e-16 0)
(3 1.92576e-16 0)
(3 5.5883e-16 0)
(3 2.40059e-16 0)
(3 1.17116e-16 0)
(3 1.11069e-16 0)
(3 -3.18906e-16 0)
(3 6.81074e-16 0)
(3 -2.24102e-17 0)
(3 -5.36001e-16 0)
(3 -9.05375e-16 0)
(1.62177 0.997888 0)
(2.17521 0.85898 0)
(2.51862 0.78103 0)
(2.56251 0.453969 0)
(2.58024 0.214287 0)
(2.55289 0.00417302 0)
(2.52839 -0.122637 0)
(2.49084 -0.146947 0)
(2.46747 -0.120132 0)
(2.45303 -0.123725 0)
(2.45678 -0.101088 0)
(2.46684 -0.0712585 0)
(2.45581 -0.0517045 0)
(2.44099 -0.0452995 0)
(2.42419 -0.0292658 0)
(2.41069 -0.0259982 0)
(2.40471 -0.0286045 0)
(2.4134 -0.0184055 0)
(2.42504 -0.00413812 0)
(2.43204 0.00130403 0)
(2.43682 -0.00148488 0)
(2.44007 -0.00370127 0)
(2.44494 -0.00409745 0)
(2.44248 -0.00240621 0)
(2.43134 -0.00142747 0)
(2.42531 -0.00166295 0)
(2.42433 -0.0017108 0)
(2.4234 -0.00146758 0)
(2.42706 -0.00137214 0)
(2.43737 -0.002314 0)
(2.44115 -0.00381953 0)
(2.4414 -0.00452216 0)
(2.44187 -0.00546488 0)
(2.44247 -0.00478078 0)
(2.44247 -0.000655741 0)
(2.44437 0.00320908 0)
(2.44709 0.00472536 0)
(2.44984 0.00532269 0)
(2.45684 0.00500536 0)
(2.46642 0.00352973 0)
(2.47177 0.00327911 0)
(2.46662 -0.00256134 0)
(2.39543 -0.0477381 0)
(2.1049 -0.1819 0)
(1.71664 -0.295158 0)
(1.3227 -0.163413 0)
(1.31303 -0.11 0)
(1.40833 -0.0508283 0)
(1.49778 -0.0241505 0)
(1.54138 -0.0148508 0)
(1.56467 -0.00986806 0)
(1.59658 -0.00620507 0)
(1.6299 -0.00465002 0)
(1.66072 -0.00268676 0)
(1.68801 0.00198877 0)
(1.71161 0.0067182 0)
(1.73314 0.00835153 0)
(1.75703 0.00739564 0)
(1.78756 0.00443802 0)
(1.81728 0.000829517 0)
(1.84388 -0.000188634 0)
(1.86936 3.87052e-05 0)
(1.89019 0.00153513 0)
(1.90373 0.0044599 0)
(1.91188 0.00820471 0)
(1.92231 0.010712 0)
(1.94075 0.0114169 0)
(1.96217 0.0115693 0)
(1.98734 0.0108858 0)
(2.01814 0.0083556 0)
(2.04679 0.00325137 0)
(2.07013 -0.000847028 0)
(2.09283 -0.00238519 0)
(2.1099 -0.00170695 0)
(2.10628 0.00301705 0)
(2.09723 0.0102774 0)
(2.10798 0.0132072 0)
(2.12709 0.0133788 0)
(2.14756 0.013202 0)
(2.17646 0.0123387 0)
(2.21295 0.00934268 0)
(2.23396 0.00534827 0)
(2.25453 0.00364205 0)
(2.27208 0.00204805 0)
(2.26925 0.00507869 0)
(2.25145 0.0117749 0)
(2.25882 0.0148841 0)
(2.27716 0.015273 0)
(2.29662 0.0157038 0)
(2.32484 0.0163755 0)
(2.36024 0.012243 0)
(2.38832 0.0105153 0)
(1.78907 0.822107 0)
(2.18963 0.506642 0)
(2.43754 0.144804 0)
(2.54463 -0.011876 0)
(2.59018 -0.213826 0)
(2.5599 -0.381536 0)
(2.58917 -0.39255 0)
(2.58963 -0.30739 0)
(2.55621 -0.202235 0)
(2.52158 -0.132891 0)
(2.49601 -0.0879979 0)
(2.47219 -0.0620321 0)
(2.45827 -0.0659153 0)
(2.44619 -0.0492195 0)
(2.43369 -0.0238893 0)
(2.42823 -0.00908451 0)
(2.42476 -0.0101346 0)
(2.42712 0.00431543 0)
(2.43391 0.023241 0)
(2.43397 0.0248921 0)
(2.43539 0.0166353 0)
(2.44174 0.00335132 0)
(2.45093 -0.00688685 0)
(2.45096 -0.00818159 0)
(2.44483 -0.00918577 0)
(2.43926 -0.0104596 0)
(2.43943 -0.00993172 0)
(2.4414 -0.00698826 0)
(2.44812 -0.000145624 0)
(2.45529 0.0073698 0)
(2.45633 0.00890516 0)
(2.45633 0.00736859 0)
(2.45652 0.00178471 0)
(2.45629 -0.00369387 0)
(2.45566 -0.00338936 0)
(2.45779 -0.00113869 0)
(2.46129 0.00129786 0)
(2.46866 0.00574547 0)
(2.47426 0.0139749 0)
(2.47921 0.0187989 0)
(2.47195 0.00230949 0)
(2.42242 -0.0803247 0)
(2.27047 -0.291742 0)
(1.96313 -0.580445 0)
(1.88597 -0.60397 0)
(1.66063 -0.313774 0)
(1.45942 -0.0787951 0)
(1.46264 0.0184952 0)
(1.51184 0.0150309 0)
(1.53913 -0.00706147 0)
(1.57555 -0.00295214 0)
(1.61175 0.00012073 0)
(1.64253 -0.00524738 0)
(1.67394 -0.00920998 0)
(1.70351 -0.00582906 0)
(1.72965 0.00330272 0)
(1.75258 0.0165076 0)
(1.77359 0.0265757 0)
(1.79637 0.0269406 0)
(1.8221 0.0172358 0)
(1.8502 0.00469972 0)
(1.87469 -0.0031491 0)
(1.89702 -0.00713228 0)
(1.91753 -0.00607121 0)
(1.93402 0.00361633 0)
(1.94473 0.0209213 0)
(1.95245 0.0364415 0)
(1.9687 0.0410413 0)
(1.99029 0.0400274 0)
(2.0163 0.0331791 0)
(2.0436 0.0226943 0)
(2.06907 0.0107568 0)
(2.09087 -0.00261934 0)
(2.1086 -0.0152179 0)
(2.11911 -0.0183286 0)
(2.12233 -0.00303578 0)
(2.12466 0.0199119 0)
(2.13758 0.0329881 0)
(2.15571 0.0367113 0)
(2.17799 0.039185 0)
(2.20634 0.032964 0)
(2.22943 0.0226875 0)
(2.25 0.0125994 0)
(2.26717 1.90268e-05 0)
(2.27589 -0.0100102 0)
(2.2737 0.00115354 0)
(2.27446 0.022501 0)
(2.28695 0.0356191 0)
(2.30361 0.0406273 0)
(2.32427 0.0451169 0)
(2.34976 0.0370275 0)
(2.37951 0.0290932 0)
(1.73135 0.845024 0)
(1.98948 0.729969 0)
(2.25718 0.463704 0)
(2.42337 0.248731 0)
(2.46075 0.167364 0)
(2.51836 -0.01275 0)
(2.55954 -0.0767267 0)
(2.59257 -0.115504 0)
(2.58105 -0.17014 0)
(2.58202 -0.210063 0)
(2.5794 -0.213306 0)
(2.56071 -0.185949 0)
(2.54464 -0.160344 0)
(2.51911 -0.121017 0)
(2.49791 -0.0684007 0)
(2.49349 -0.0377393 0)
(2.49053 -0.0335272 0)
(2.483 -0.00612952 0)
(2.48316 0.0202129 0)
(2.47807 0.019471 0)
(2.47498 0.00384394 0)
(2.47664 -0.0219746 0)
(2.48079 -0.0274523 0)
(2.48497 -0.0214882 0)
(2.47912 -0.0203251 0)
(2.47593 -0.023307 0)
(2.47742 -0.0254358 0)
(2.48244 -0.0234579 0)
(2.48952 -0.01207 0)
(2.49271 0.000469768 0)
(2.4913 0.00531185 0)
(2.4897 0.00750251 0)
(2.48797 0.00573661 0)
(2.48646 0.00274896 0)
(2.4866 -0.000279434 0)
(2.48879 -0.00334845 0)
(2.49247 -0.00580792 0)
(2.50044 -0.00519296 0)
(2.50526 -0.000864857 0)
(2.49806 -0.0161115 0)
(2.4294 -0.108513 0)
(2.25605 -0.342377 0)
(2.08318 -0.514935 0)
(1.95137 -0.646112 0)
(1.98596 -0.696177 0)
(1.95025 -0.614777 0)
(1.81314 -0.366529 0)
(1.64724 -0.117116 0)
(1.6002 -0.0161313 0)
(1.60471 0.000722122 0)
(1.63783 0.0103002 0)
(1.65806 -0.00343011 0)
(1.69005 -0.0263664 0)
(1.72193 -0.0291273 0)
(1.74663 -0.0256801 0)
(1.7726 -0.014278 0)
(1.79671 0.00282555 0)
(1.81628 0.0196738 0)
(1.83078 0.0307512 0)
(1.84802 0.0318346 0)
(1.86878 0.0263576 0)
(1.89127 0.0177614 0)
(1.91601 0.0104189 0)
(1.93989 0.00653087 0)
(1.96118 0.00657811 0)
(1.98052 0.0134374 0)
(1.9938 0.0303978 0)
(1.9985 0.0489432 0)
(2.00822 0.0539622 0)
(2.02866 0.0506011 0)
(2.05013 0.0435313 0)
(2.07124 0.0319269 0)
(2.09102 0.0185309 0)
(2.11042 0.0065048 0)
(2.12954 -0.000562658 0)
(2.14809 -0.000624011 0)
(2.16151 0.0131797 0)
(2.1657 0.0376087 0)
(2.17454 0.0535788 0)
(2.19387 0.0566531 0)
(2.21336 0.0540951 0)
(2.23218 0.0451552 0)
(2.24912 0.0328266 0)
(2.2623 0.0193248 0)
(2.27512 0.00883894 0)
(2.2912 0.00788784 0)
(2.30589 0.0206923 0)
(2.31447 0.0444901 0)
(2.32145 0.0632225 0)
(2.33773 0.0681718 0)
(2.35591 0.0647422 0)
(2.38033 0.0519039 0)
(1.65317 0.867156 0)
(1.93295 0.722888 0)
(2.15478 0.536058 0)
(2.25308 0.467333 0)
(2.35868 0.343793 0)
(2.50316 0.09803 0)
(2.56572 -0.0534558 0)
(2.5741 -0.0844801 0)
(2.60794 -0.188217 0)
(2.63252 -0.284344 0)
(2.65809 -0.290464 0)
(2.64746 -0.252315 0)
(2.62758 -0.233524 0)
(2.59397 -0.195845 0)
(2.56702 -0.150966 0)
(2.55849 -0.131636 0)
(2.55213 -0.116499 0)
(2.54278 -0.0773406 0)
(2.53705 -0.0250941 0)
(2.5365 -0.00445638 0)
(2.52984 -0.00752714 0)
(2.5275 -0.00328022 0)
(2.52642 -0.00177446 0)
(2.5227 0.00909914 0)
(2.51805 0.00926419 0)
(2.52039 0.00367663 0)
(2.52787 -0.0104742 0)
(2.53268 -0.0168066 0)
(2.53409 -0.0143812 0)
(2.53414 -0.00993875 0)
(2.5333 -0.00730383 0)
(2.5312 -0.00696831 0)
(2.52834 -0.00715333 0)
(2.52747 -0.00523763 0)
(2.52679 0.00056176 0)
(2.52852 0.00958654 0)
(2.53344 0.0151194 0)
(2.53832 0.0171482 0)
(2.53142 -0.00208496 0)
(2.48412 -0.0783537 0)
(2.23717 -0.367458 0)
(2.06967 -0.575308 0)
(2.01226 -0.624654 0)
(2.0346 -0.635621 0)
(2.05308 -0.654655 0)
(2.05743 -0.661656 0)
(2.03426 -0.609735 0)
(1.91839 -0.423209 0)
(1.78762 -0.178671 0)
(1.73481 -0.0400802 0)
(1.71031 0.00900742 0)
(1.71269 0.00820878 0)
(1.74363 0.0191233 0)
(1.77699 0.0143117 0)
(1.80442 0.00422142 0)
(1.83158 0.00177203 0)
(1.85431 0.00689624 0)
(1.87186 0.0178888 0)
(1.8813 0.0308599 0)
(1.8893 0.0369827 0)
(1.90604 0.0348435 0)
(1.92654 0.0321478 0)
(1.94863 0.0304351 0)
(1.97265 0.029376 0)
(1.99672 0.0292598 0)
(2.01896 0.0289912 0)
(2.03839 0.0296201 0)
(2.04699 0.0367965 0)
(2.04461 0.0472138 0)
(2.05251 0.0467383 0)
(2.07027 0.0399646 0)
(2.08957 0.0323305 0)
(2.10984 0.0269033 0)
(2.13123 0.0241901 0)
(2.15393 0.0244215 0)
(2.17431 0.0257613 0)
(2.1943 0.0280171 0)
(2.20876 0.0391357 0)
(2.21121 0.0582223 0)
(2.2136 0.0660867 0)
(2.22672 0.0614608 0)
(2.24179 0.0535036 0)
(2.25481 0.0433967 0)
(2.27023 0.036111 0)
(2.28814 0.0353809 0)
(2.3099 0.0365895 0)
(2.32974 0.0386409 0)
(2.34812 0.0446191 0)
(2.35934 0.0599852 0)