/*--------------------------------*- C++ -*----------------------------------*\
  =========                 |
  \\      /  F ield         | OpenFOAM: The Open Source CFD Toolbox
   \\    /   O peration     | Website:  https://openfoam.org
    \\  /    A nd           | Version:  7
     \\/     M anipulation  |
\*---------------------------------------------------------------------------*/
FoamFile
{
    version     2.0;
    format      ascii;
    class       volScalarField;
    location    "2.8";
    object      T;
}
// * * * * * * * * * * * * * * * * * * * * * * * * * * * * * * * * * * * * * //

dimensions      [0 0 0 1 0 0 0];

internalField   nonuniform List<scalar> 
16512
(
1.87211
1.86724
1.86149
1.85483
1.84769
1.84178
1.83806
1.83511
1.83202
1.82828
1.82268
1.81168
1.79846
1.79236
1.78977
1.78728
1.7847
1.78201
1.77917
1.77576
1.77052
1.75964
1.7478
1.74437
1.74304
1.7418
1.7403
1.73812
1.7351
1.73084
1.723
1.71043
1.70163
1.69905
1.69786
1.69688
1.69484
1.69246
1.68961
1.68448
1.6735
1.66071
1.65504
1.65337
1.65231
1.65149
1.64958
1.64747
1.64531
1.64239
1.63826
1.63197
1.62357
1.61715
1.61302
1.61006
1.60807
1.60535
1.6014
1.59807
1.59537
1.59214
1.58731
1.58181
1.57897
1.57664
1.57422
1.57257
1.5714
1.57023
1.56802
1.56421
1.55741
1.54841
1.54387
1.5419
1.54046
1.53923
1.53703
1.53459
1.53238
1.53033
1.5277
1.52237
1.51612
1.5119
1.50911
1.50746
1.50653
1.50582
1.50449
1.50254
1.49953
1.49492
1.48884
1.48529
1.4838
1.48274
1.48122
1.47923
1.47676
1.47312
1.4675
1.46269
1.46118
1.45977
1.45813
1.4569
1.45603
1.45477
1.45312
1.45095
1.44744
1.44286
1.43895
1.43575
1.43369
1.4322
1.43071
1.42886
1.42779
1.42723
1.42603
1.42783
1.43756
1.46634
1.51453
1.56307
1.59911
1.62323
1.64066
1.64495
1.64746
1.64874
1.64921
1.65029
1.65326
1.65737
1.659
1.65895
1.65837
1.65699
1.65425
1.65199
1.6516
1.65174
1.65366
1.65852
1.66194
1.66235
1.66226
1.66151
1.65844
1.65504
1.6546
1.65556
1.65788
1.66297
1.66877
1.67029
1.66993
1.66867
1.6659
1.66002
1.65394
1.65244
1.65256
1.65414
1.65864
1.66651
1.6727
1.6738
1.67329
1.67197
1.66867
1.6627
1.65991
1.6598
1.6602
1.66236
1.66703
1.67151
1.67235
1.6721
1.67013
1.66571
1.66132
1.66039
1.66056
1.66118
1.66243
1.66456
1.66699
1.66812
1.66852
1.66893
1.66926
1.66933
1.66916
1.66759
1.66456
1.66219
1.66132
1.66086
1.66049
1.6603
1.66063
1.66268
1.66629
1.66824
1.66823
1.66767
1.6653
1.66049
1.65589
1.65481
1.65483
1.65499
1.6558
1.65736
1.66098
1.67318
1.84136
2.19179
2.25094
2.25234
2.24998
2.24581
2.24308
2.24391
2.24504
2.24424
2.23895
2.23111
2.22285
2.21585
2.21043
2.20618
2.20512
2.20484
2.20272
2.19699
2.1901
2.18332
2.17915
2.17571
2.17304
2.17227
2.17151
2.16666
2.16034
2.15371
2.14754
2.14192
2.13699
2.13456
2.13326
2.13032
1.87064
1.86482
1.8586
1.85231
1.84705
1.84357
1.84098
1.83816
1.83469
1.82928
1.81868
1.80463
1.79665
1.79417
1.79209
1.7898
1.7873
1.78463
1.78149
1.77692
1.767
1.75383
1.74851
1.74691
1.74545
1.74383
1.7418
1.73913
1.73537
1.72879
1.71705
1.70676
1.70362
1.70222
1.70138
1.69956
1.69713
1.69419
1.68949
1.67942
1.66667
1.6598
1.65812
1.65724
1.65636
1.65488
1.65281
1.65021
1.64724
1.64354
1.637
1.62832
1.62181
1.6188
1.61645
1.61344
1.61075
1.60768
1.6032
1.59921
1.59624
1.59272
1.58776
1.58309
1.58068
1.57857
1.57602
1.57396
1.57225
1.57057
1.56824
1.56358
1.55655
1.54932
1.5457
1.54373
1.54231
1.54114
1.53915
1.53672
1.53419
1.53151
1.5278
1.52136
1.51604
1.51399
1.51157
1.50954
1.50839
1.50734
1.50584
1.5036
1.49993
1.49467
1.48979
1.48711
1.48541
1.48413
1.48266
1.48069
1.47802
1.47393
1.46799
1.46426
1.46313
1.46202
1.4603
1.45887
1.45787
1.45675
1.45495
1.45222
1.44782
1.44245
1.43974
1.43785
1.43588
1.43444
1.43306
1.43122
1.42905
1.4267
1.42426
1.42214
1.42121
1.42308
1.43425
1.45987
1.50787
1.55522
1.60079
1.61571
1.62822
1.63681
1.63746
1.64209
1.64798
1.65085
1.65135
1.65125
1.65061
1.64919
1.64676
1.64605
1.64618
1.64686
1.64995
1.65377
1.65465
1.65471
1.65434
1.65232
1.64958
1.64883
1.6497
1.65203
1.65657
1.66169
1.66313
1.66299
1.66232
1.66034
1.6553
1.64918
1.6472
1.64724
1.64861
1.65312
1.6611
1.66671
1.66747
1.66703
1.6659
1.66291
1.65711
1.65389
1.65381
1.65427
1.6565
1.66146
1.66691
1.66828
1.66804
1.66627
1.66214
1.65665
1.65456
1.65449
1.65469
1.6555
1.6573
1.66017
1.66293
1.66433
1.6651
1.66576
1.66603
1.66576
1.66385
1.66056
1.6576
1.65639
1.65584
1.6554
1.65509
1.65524
1.65709
1.66109
1.66405
1.66425
1.6638
1.6617
1.65712
1.65165
1.64989
1.64984
1.64992
1.6505
1.65207
1.65544
1.66239
1.75625
2.0966
2.27431
2.24964
2.23687
2.23687
2.23764
2.23887
2.23972
2.23898
2.23403
2.22735
2.21945
2.21236
2.20681
2.20335
2.20301
2.2035
2.20091
2.19417
2.186
2.17729
2.17082
2.16729
2.16707
2.16885
2.17078
2.16744
2.15974
2.15084
2.14266
2.13619
2.1301
2.12597
2.12397
2.12223
2.11907
1.86826
1.86223
1.85657
1.85211
1.84911
1.84684
1.84421
1.84089
1.83518
1.82455
1.81051
1.801
1.79812
1.79652
1.79492
1.79282
1.79044
1.78761
1.78358
1.77455
1.76049
1.75274
1.75073
1.74906
1.74724
1.7452
1.74279
1.73955
1.73418
1.72373
1.71235
1.70838
1.70681
1.70595
1.70419
1.70181
1.69892
1.69453
1.68518
1.67242
1.66452
1.66259
1.6619
1.66154
1.65999
1.65795
1.65575
1.65287
1.6485
1.64166
1.63334
1.62644
1.62369
1.62196
1.61974
1.61668
1.61281
1.6089
1.60433
1.60008
1.59713
1.59387
1.58942
1.58509
1.58245
1.58028
1.57777
1.57533
1.57322
1.57099
1.56812
1.56248
1.55568
1.55085
1.54768
1.54559
1.54415
1.54297
1.54105
1.53875
1.53607
1.53259
1.52705
1.52015
1.51725
1.516
1.51397
1.51176
1.51034
1.50902
1.50719
1.50426
1.49978
1.49455
1.49135
1.48921
1.48716
1.48545
1.484
1.48205
1.479
1.47419
1.46851
1.46596
1.46494
1.46409
1.46259
1.461
1.45978
1.45855
1.45669
1.45308
1.44784
1.44313
1.44092
1.43945
1.43777
1.43618
1.43492
1.43356
1.43142
1.42867
1.425
1.42102
1.41882
1.41899
1.41926
1.42142
1.43262
1.45818
1.4989
1.54852
1.58556
1.61452
1.62313
1.63302
1.64128
1.64526
1.64624
1.64617
1.64504
1.64287
1.64108
1.64106
1.64136
1.643
1.64641
1.64784
1.64776
1.64732
1.64608
1.64442
1.64388
1.64444
1.64632
1.65004
1.65437
1.65574
1.65577
1.65562
1.65447
1.65069
1.64505
1.64267
1.64264
1.64363
1.64757
1.65513
1.66032
1.66085
1.6605
1.65959
1.65704
1.65157
1.64775
1.64754
1.64808
1.65039
1.65553
1.66185
1.66391
1.66372
1.66223
1.6587
1.6529
1.64931
1.64874
1.64876
1.6491
1.6505
1.65354
1.65744
1.66024
1.66151
1.66222
1.66246
1.66193
1.6597
1.65621
1.65281
1.65137
1.65081
1.6504
1.65008
1.65016
1.65174
1.65576
1.65961
1.66021
1.65979
1.65802
1.65396
1.64808
1.64553
1.64532
1.64534
1.64567
1.64699
1.65007
1.65556
1.69865
2.0003
2.23542
2.25495
2.23988
2.23073
2.22971
2.23335
2.23755
2.2374
2.23171
2.22461
2.21533
2.20716
2.20095
2.19709
2.19733
2.19998
2.2006
2.1957
2.18761
2.17549
2.16412
2.15834
2.1555
2.1573
2.1632
2.16587
2.161
2.15211
2.14193
2.13247
2.12495
2.11808
2.11324
2.11082
2.10863
2.10564
1.86615
1.86104
1.85736
1.85502
1.85297
1.8504
1.84675
1.84033
1.82959
1.8159
1.80549
1.80208
1.80054
1.7997
1.79836
1.79632
1.79384
1.79039
1.78218
1.76757
1.7571
1.75447
1.75281
1.75088
1.74867
1.74626
1.74337
1.73907
1.73042
1.71849
1.71319
1.71149
1.7106
1.70903
1.70653
1.70364
1.69956
1.69096
1.67821
1.66916
1.66693
1.66627
1.6663
1.66543
1.66359
1.66136
1.65859
1.65353
1.64547
1.63709
1.63148
1.62882
1.62709
1.62528
1.62273
1.61897
1.61365
1.60896
1.60505
1.60116
1.59842
1.59567
1.59164
1.58722
1.5842
1.58196
1.57952
1.57684
1.5742
1.57144
1.56764
1.56114
1.55547
1.55256
1.54965
1.54742
1.54592
1.54465
1.54279
1.54042
1.53739
1.53291
1.52602
1.52068
1.5192
1.51802
1.51626
1.51414
1.51237
1.51069
1.5083
1.50418
1.49922
1.4956
1.49318
1.49117
1.48914
1.48711
1.48535
1.4833
1.47969
1.47463
1.47003
1.46798
1.4669
1.46599
1.46454
1.46292
1.46147
1.45996
1.45774
1.45343
1.4478
1.44476
1.44285
1.44112
1.43952
1.43799
1.43664
1.43527
1.4334
1.4302
1.42604
1.4226
1.42017
1.41847
1.41745
1.41807
1.41812
1.41952
1.42729
1.45254
1.48916
1.53595
1.57913
1.60962
1.62563
1.63414
1.63963
1.64112
1.64065
1.63923
1.63758
1.63733
1.63772
1.64009
1.64276
1.64304
1.64256
1.64145
1.6399
1.63918
1.63946
1.64051
1.643
1.6469
1.64884
1.64913
1.64924
1.64858
1.64586
1.64136
1.63907
1.639
1.63971
1.64274
1.64911
1.6538
1.65426
1.65397
1.65328
1.65132
1.64642
1.64203
1.64153
1.64214
1.64439
1.64948
1.65621
1.65883
1.65868
1.65753
1.65478
1.64937
1.64444
1.64324
1.64315
1.64329
1.64439
1.64734
1.65201
1.65607
1.65793
1.65873
1.65894
1.658
1.65531
1.65137
1.64765
1.64628
1.64578
1.64544
1.64521
1.64546
1.64709
1.65098
1.65508
1.65595
1.65549
1.65388
1.65045
1.64471
1.64139
1.64099
1.641
1.64117
1.64233
1.64505
1.65001
1.67007
1.87908
2.21067
2.23913
2.23684
2.23232
2.22719
2.22413
2.22716
2.2323
2.23139
2.22452
2.21575
2.20519
2.19732
2.1919
2.19005
2.19234
2.19652
2.19529
2.18931
2.18063
2.16779
2.15668
2.15031
2.14685
2.14819
2.15328
2.1547
2.15065
2.14164
2.13224
2.12272
2.11428
2.10693
2.10104
2.09727
2.09389
2.0906
1.86638
1.86354
1.8616
1.85959
1.85669
1.85192
1.8445
1.83377
1.82092
1.81021
1.80618
1.80461
1.8042
1.80381
1.80229
1.79997
1.79686
1.78915
1.77457
1.76179
1.7581
1.75651
1.75493
1.75276
1.75025
1.74742
1.7437
1.73686
1.7252
1.71799
1.71608
1.71505
1.71378
1.7114
1.70845
1.70449
1.69667
1.68425
1.67406
1.67137
1.67064
1.67081
1.67046
1.66904
1.66704
1.66419
1.6583
1.64921
1.64064
1.63612
1.63419
1.63275
1.63052
1.62827
1.62508
1.61961
1.61314
1.60875
1.60595
1.60279
1.60008
1.59762
1.59359
1.58869
1.5857
1.58363
1.58136
1.57865
1.57564
1.5722
1.56717
1.56006
1.55622
1.55426
1.5515
1.54932
1.54785
1.54632
1.54444
1.54195
1.53826
1.53212
1.52517
1.52237
1.5212
1.51998
1.51837
1.51637
1.51435
1.51217
1.50886
1.50389
1.49965
1.49722
1.49513
1.49305
1.49102
1.48895
1.48676
1.48406
1.47944
1.47451
1.47185
1.47018
1.46896
1.46788
1.46636
1.46469
1.46302
1.46107
1.458
1.45295
1.44833
1.44661
1.44502
1.44319
1.44145
1.43997
1.43859
1.43692
1.43451
1.43048
1.42663
1.4251
1.42347
1.42118
1.41928
1.41766
1.41649
1.41577
1.41333
1.41401
1.42089
1.44309
1.4864
1.5304
1.56984
1.59849
1.62037
1.62747
1.63005
1.63129
1.63142
1.63193
1.63383
1.63654
1.63741
1.63737
1.6368
1.63538
1.63414
1.63424
1.63474
1.63572
1.63827
1.6413
1.6422
1.64249
1.64236
1.64076
1.63741
1.6353
1.63517
1.63581
1.63824
1.64327
1.64733
1.6479
1.64771
1.6472
1.64585
1.6419
1.63742
1.63655
1.63708
1.63906
1.64376
1.65043
1.65334
1.65329
1.65246
1.65024
1.64533
1.63947
1.63766
1.63741
1.6375
1.63853
1.64151
1.64677
1.65186
1.65416
1.65491
1.65501
1.65389
1.65111
1.64674
1.64248
1.64119
1.64086
1.64066
1.64055
1.64108
1.64299
1.64693
1.65093
1.65182
1.65125
1.64946
1.64631
1.64096
1.63707
1.63635
1.63637
1.63655
1.63776
1.64031
1.64504
1.65469
1.78846
2.12757
2.25753
2.24692
2.22983
2.22284
2.21967
2.21827
2.22166
2.22599
2.2241
2.2175
2.20798
2.19746
2.19059
2.1862
2.18587
2.18876
2.18962
2.18533
2.17851
2.17022
2.16012
2.1522
2.14591
2.14204
2.14148
2.14102
2.13866
2.13354
2.12723
2.11967
2.11123
2.10304
2.09583
2.08984
2.08498
2.08008
2.07577
1.8709
1.86913
1.86667
1.86215
1.85572
1.84752
1.83729
1.8256
1.8152
1.81076
1.80918
1.80895
1.80916
1.80829
1.80625
1.80314
1.79529
1.78075
1.76666
1.76152
1.75987
1.75893
1.75743
1.75514
1.75247
1.74906
1.74342
1.73233
1.7229
1.72042
1.71917
1.71807
1.71603
1.71324
1.70946
1.70249
1.69047
1.6794
1.67603
1.67519
1.67536
1.67534
1.67414
1.67228
1.66947
1.66311
1.65303
1.64429
1.64047
1.63878
1.63807
1.63639
1.63375
1.63044
1.6256
1.61842
1.61265
1.60961
1.60751
1.60501
1.60204
1.59912
1.59464
1.5895
1.58704
1.58526
1.58319
1.58052
1.57723
1.57298
1.56657
1.55979
1.55755
1.55602
1.55339
1.55132
1.54986
1.54807
1.54597
1.54304
1.53815
1.53075
1.52598
1.52472
1.52343
1.52197
1.52034
1.5184
1.5161
1.51308
1.50825
1.50366
1.50126
1.49925
1.49721
1.49517
1.49313
1.49107
1.48847
1.48467
1.4792
1.47522
1.47377
1.47242
1.47107
1.46979
1.4682
1.46633
1.46444
1.46199
1.4579
1.45252
1.44963
1.44833
1.44693
1.44513
1.44349
1.44195
1.44049
1.43854
1.43504
1.43028
1.42787
1.42693
1.42592
1.42406
1.422
1.41999
1.41779
1.41504
1.41146
1.40942
1.40864
1.4098
1.41754
1.43716
1.47734
1.524
1.56882
1.59072
1.6061
1.61772
1.61927
1.62305
1.62776
1.6293
1.62993
1.63003
1.62963
1.62813
1.62739
1.62785
1.6286
1.62985
1.63252
1.63462
1.63505
1.63513
1.63458
1.63257
1.63066
1.63056
1.63112
1.63298
1.63691
1.64024
1.64094
1.64108
1.64094
1.63998
1.63693
1.63319
1.63207
1.63249
1.63418
1.63826
1.6446
1.64782
1.64787
1.64732
1.64565
1.64158
1.63523
1.63255
1.63213
1.63212
1.63299
1.63599
1.64173
1.64763
1.65017
1.65086
1.6509
1.64961
1.64651
1.64151
1.63684
1.63573
1.63559
1.63562
1.63599
1.63712
1.63959
1.6437
1.64727
1.64786
1.64702
1.64508
1.64217
1.63717
1.63303
1.63203
1.63202
1.63223
1.63346
1.63615
1.64055
1.64645
1.71807
2.04159
2.23663
2.24126
2.23089
2.21881
2.21374
2.21259
2.21501
2.22016
2.22095
2.21615
2.20851
2.19909
2.19109
2.18564
2.18271
2.18262
2.18226
2.17844
2.17238
2.16474
2.15682
2.15082
2.14514
2.14095
2.13842
2.13516
2.12923
2.12063
2.11333
2.10876
2.10446
2.09866
2.09148
2.08489
2.07913
2.07362
2.06797
2.06296
1.87711
1.87269
1.8656
1.8577
1.84933
1.84018
1.83002
1.82033
1.81584
1.81439
1.8143
1.81496
1.81436
1.81259
1.80928
1.80081
1.78603
1.77123
1.7648
1.76296
1.76233
1.76201
1.76047
1.75813
1.75517
1.75047
1.74001
1.72832
1.72456
1.72305
1.72184
1.72009
1.7177
1.71436
1.70843
1.69696
1.68516
1.68092
1.67993
1.68005
1.68012
1.679
1.67723
1.67448
1.66815
1.65742
1.64819
1.64478
1.64357
1.64284
1.64129
1.63921
1.63621
1.63088
1.62368
1.61734
1.61385
1.61179
1.6098
1.60754
1.60418
1.59982
1.59446
1.59017
1.58854
1.58699
1.58503
1.58242
1.57883
1.57354
1.5659
1.56059
1.55919
1.55793
1.55559
1.5535
1.55192
1.54998
1.5475
1.54374
1.53693
1.52983
1.52766
1.52676
1.52562
1.52402
1.5223
1.52025
1.51749
1.51321
1.5075
1.50451
1.50321
1.5013
1.49923
1.49724
1.49515
1.49282
1.48941
1.48434
1.47928
1.47685
1.47557
1.4744
1.47305
1.47162
1.47002
1.46799
1.4656
1.46226
1.45716
1.45319
1.45169
1.45034
1.44884
1.44711
1.44549
1.4439
1.44207
1.43949
1.43522
1.43103
1.42956
1.4287
1.4278
1.42629
1.42452
1.42261
1.42024
1.41677
1.41166
1.40801
1.4066
1.40669
1.40682
1.40792
1.4145
1.43421
1.46795
1.51582
1.55615
1.59031
1.59965
1.61025
1.61756
1.61886
1.62173
1.62266
1.6222
1.62075
1.6204
1.62106
1.62235
1.62443
1.62699
1.62822
1.62833
1.62812
1.6271
1.62565
1.62579
1.62639
1.62743
1.62993
1.63313
1.63387
1.63399
1.63418
1.63371
1.63152
1.62857
1.62736
1.62772
1.62926
1.63281
1.63845
1.64182
1.64201
1.64171
1.64068
1.63784
1.63208
1.62828
1.62756
1.62752
1.62828
1.63118
1.63716
1.64354
1.64599
1.64651
1.64649
1.64529
1.64226
1.63659
1.6311
1.62997
1.62992
1.6301
1.63102
1.63301
1.63656
1.64118
1.64404
1.64422
1.64292
1.64062
1.6375
1.63276
1.62908
1.62811
1.62806
1.62847
1.62999
1.63291
1.63687
1.64074
1.67732
1.93693
2.21513
2.2287
2.22214
2.21652
2.21078
2.20773
2.20861
2.21377
2.21642
2.21312
2.20581
2.19602
2.1888
2.18386
2.18074
2.18066
2.18003
2.17403
2.16561
2.15599
2.14895
2.14344
2.13988
2.13773
2.13642
2.13406
2.1263
2.11603
2.10583
2.09653
2.09051
2.08794
2.08545
2.08113
2.07521
2.06872
2.06247
2.05687
2.05202
1.87793
1.86787
1.85859
1.85044
1.84245
1.83381
1.82547
1.82142
1.82015
1.82027
1.82136
1.82072
1.81905
1.81501
1.80551
1.79036
1.77558
1.76847
1.76629
1.76566
1.76595
1.76549
1.76383
1.76135
1.75744
1.74794
1.73457
1.72874
1.7269
1.7256
1.7238
1.7216
1.71881
1.7141
1.70379
1.69131
1.68591
1.68477
1.68483
1.68497
1.68376
1.682
1.67934
1.67342
1.66261
1.65261
1.64905
1.64793
1.64773
1.64619
1.64386
1.64106
1.63652
1.62847
1.62169
1.61869
1.61663
1.6147
1.6126
1.60997
1.60565
1.59916
1.59419
1.59159
1.59022
1.5887
1.5867
1.5841
1.58015
1.57369
1.56569
1.56218
1.56108
1.55994
1.55793
1.55578
1.55392
1.55185
1.54867
1.54344
1.53567
1.53105
1.52967
1.5288
1.52773
1.52611
1.52421
1.52178
1.51807
1.51226
1.50767
1.50619
1.50523
1.50352
1.50145
1.49942
1.49718
1.49419
1.48934
1.48363
1.48084
1.47906
1.47759
1.4764
1.47509
1.47355
1.47187
1.46976
1.46667
1.46191
1.45675
1.45463
1.45358
1.45236
1.45069
1.44899
1.44736
1.44572
1.44331
1.4397
1.43535
1.43259
1.43145
1.43044
1.42941
1.42807
1.42636
1.42442
1.42176
1.41779
1.41261
1.4094
1.40826
1.407
1.40565
1.40549
1.40517
1.40601
1.4108
1.42924
1.46113
1.50472
1.54877
1.58028
1.60304
1.60829
1.61438
1.61768
1.61654
1.61566
1.61554
1.61609
1.61809
1.6208
1.62233
1.62293
1.62304
1.62279
1.62176
1.62119
1.62184
1.62271
1.62377
1.62597
1.62781
1.62796
1.62799
1.6275
1.62602
1.62406
1.62317
1.62339
1.62459
1.62727
1.63186
1.63532
1.63563
1.63559
1.63514
1.63328
1.62875
1.62413
1.62297
1.62305
1.62377
1.62646
1.63255
1.6393
1.64138
1.64143
1.64129
1.64048
1.63816
1.6325
1.62604
1.62467
1.62464
1.62488
1.62618
1.629
1.63371
1.63888
1.64105
1.64084
1.63905
1.63635
1.63271
1.62788
1.62467
1.62392
1.62395
1.62465
1.62662
1.63005
1.6338
1.63596
1.65176
1.8515
2.15116
2.23614
2.22981
2.21542
2.20731
2.20512
2.20473
2.20757
2.21138
2.20954
2.20319
2.1936
2.18405
2.17836
2.17548
2.17619
2.17757
2.17388
2.16562
2.15454
2.14311
2.1349
2.12991
2.12951
2.13075
2.13088
2.1246
2.11378
2.10233
2.09156
2.08266
2.07606
2.07451
2.07428
2.07144
2.06484
2.05843
2.05197
2.04648
2.04201
1.87047
1.85914
1.85081
1.84397
1.83691
1.83061
1.82738
1.82644
1.82709
1.82826
1.82741
1.82556
1.82016
1.80933
1.79372
1.77949
1.77235
1.77004
1.76948
1.77011
1.77024
1.76922
1.76725
1.76395
1.75521
1.74123
1.73307
1.73082
1.72952
1.72783
1.72548
1.72283
1.71905
1.7106
1.69786
1.69084
1.68948
1.68938
1.68976
1.68848
1.68665
1.68411
1.67897
1.66847
1.65763
1.65367
1.65246
1.65203
1.65083
1.64871
1.64591
1.64154
1.63368
1.62573
1.62275
1.62143
1.61977
1.61782
1.61549
1.61184
1.60527
1.5979
1.5953
1.59361
1.59207
1.59051
1.58835
1.58555
1.58101
1.57344
1.56638
1.56417
1.56314
1.56204
1.56017
1.55806
1.55591
1.55332
1.54896
1.54199
1.53578
1.53336
1.53198
1.53091
1.52977
1.52818
1.52605
1.52289
1.51762
1.51155
1.50911
1.50797
1.50712
1.50557
1.50356
1.50141
1.49873
1.49458
1.48829
1.484
1.48278
1.48137
1.4797
1.47844
1.47712
1.47551
1.47361
1.47112
1.46717
1.46145
1.45781
1.45653
1.45546
1.45443
1.45279
1.45095
1.44909
1.44697
1.44374
1.43929
1.43639
1.43485
1.43376
1.43265
1.43131
1.42989
1.42821
1.42592
1.42264
1.41797
1.41365
1.41183
1.41082
1.40959
1.4076
1.40568
1.40409
1.40354
1.40224
1.40243
1.40631
1.42059
1.4552
1.49499
1.53801
1.56979
1.59366
1.60337
1.60569
1.60896
1.61019
1.61171
1.61471
1.61712
1.61776
1.61799
1.61809
1.61772
1.61684
1.6165
1.61715
1.61832
1.61943
1.6212
1.62282
1.62297
1.62291
1.62194
1.61994
1.61916
1.61954
1.62029
1.62177
1.62472
1.62835
1.6294
1.62941
1.6293
1.62838
1.62516
1.62053
1.61855
1.61876
1.61962
1.62202
1.62749
1.63398
1.6358
1.63549
1.63516
1.63475
1.63336
1.62875
1.62185
1.6196
1.61957
1.61997
1.6214
1.62485
1.63072
1.63642
1.63811
1.63762
1.63545
1.63226
1.62781
1.62276
1.62031
1.61991
1.62015
1.62138
1.62401
1.62777
1.63045
1.63087
1.63715
1.76497
2.09852
2.22716
2.22586
2.21716
2.20372
2.19742
2.19704
2.20076
2.20715
2.20743
2.20207
2.19303
2.18129
2.17326
2.1688
2.16842
2.17044
2.17019
2.16295
2.15326
2.14107
2.12998
2.12183
2.11773
2.11904
2.12252
2.1207
2.11135
2.10043
2.08873
2.07886
2.07118
2.06596
2.06487
2.0645
2.06069
2.0543
2.04836
2.04255
2.03757
2.03358
1.85913
1.85077
1.84479
1.83934
1.83549
1.83339
1.83332
1.83497
1.83563
1.83448
1.8319
1.82465
1.81214
1.79596
1.78285
1.77624
1.77392
1.77346
1.77478
1.77563
1.77468
1.77294
1.76994
1.76152
1.74724
1.73725
1.73459
1.73336
1.73219
1.72988
1.72714
1.72363
1.71689
1.70464
1.69563
1.69384
1.69352
1.69407
1.69305
1.69119
1.68873
1.68438
1.67479
1.6634
1.6587
1.65741
1.65675
1.65539
1.65321
1.65051
1.6464
1.6387
1.63025
1.6268
1.62549
1.62432
1.62274
1.62071
1.61774
1.61213
1.60331
1.59856
1.59727
1.59584
1.59411
1.59238
1.59006
1.58669
1.58128
1.5733
1.56812
1.56635
1.56526
1.56405
1.56227
1.56016
1.55767
1.55407
1.54771
1.54089
1.53802
1.53626
1.53466
1.53323
1.53182
1.53009
1.52751
1.52305
1.51642
1.51245
1.51109
1.50999
1.50904
1.50753
1.50556
1.5032
1.49977
1.49389
1.48769
1.48559
1.48464
1.48354
1.48189
1.48053
1.47923
1.47765
1.47553
1.4722
1.46672
1.4615
1.45972
1.45847
1.45715
1.45609
1.45478
1.45295
1.45083
1.44794
1.44345
1.43912
1.43783
1.43696
1.43583
1.43462
1.4332
1.43151
1.42956
1.42673
1.42241
1.41795
1.41522
1.41396
1.41297
1.41206
1.41051
1.40829
1.40608
1.40371
1.40122
1.39936
1.39761
1.39783
1.40186
1.4157
1.44517
1.48761
1.52843
1.55675
1.57623
1.59275
1.59798
1.6018
1.60777
1.61056
1.61161
1.61188
1.61176
1.61102
1.61007
1.60975
1.61048
1.6121
1.61376
1.61581
1.61728
1.61732
1.61724
1.61647
1.61511
1.61531
1.61603
1.6168
1.61808
1.62061
1.62322
1.62387
1.62393
1.62347
1.62149
1.61798
1.61549
1.61532
1.61599
1.61801
1.62246
1.62802
1.62992
1.62955
1.62894
1.62845
1.62748
1.62415
1.61781
1.6146
1.61458
1.61541
1.61713
1.62099
1.62764
1.63334
1.63446
1.63372
1.63164
1.62844
1.62336
1.61806
1.61612
1.61588
1.61636
1.61829
1.62171
1.62571
1.62691
1.62625
1.62829
1.70126
2.01493
2.22257
2.22362
2.21229
2.20062
2.19383
2.1903
2.19218
2.20041
2.20522
2.20193
2.19455
2.18233
2.17048
2.16368
2.1606
2.16139
2.16296
2.15869
2.1485
2.13702
2.12478
2.11544
2.10837
2.10693
2.10963
2.11151
2.10653
2.09728
2.08699
2.07662
2.06875
2.06233
2.05885
2.05766
2.05547
2.05001
2.04446
2.03934
2.03491
2.03082
2.02748
1.85055
1.84528
1.84165
1.83952
1.83904
1.84089
1.8433
1.8433
1.8418
1.83808
1.82863
1.81398
1.79736
1.78575
1.77994
1.77777
1.77752
1.77983
1.78151
1.78051
1.77889
1.77581
1.76697
1.75225
1.74111
1.73786
1.73669
1.73626
1.73459
1.73194
1.7286
1.72301
1.71158
1.70052
1.69786
1.69728
1.69759
1.69706
1.69543
1.6931
1.68935
1.68121
1.6697
1.66388
1.66249
1.66168
1.66025
1.658
1.6552
1.65107
1.64344
1.63482
1.63117
1.62983
1.62857
1.6272
1.62565
1.62325
1.61882
1.61
1.60251
1.60067
1.59956
1.59815
1.59636
1.59439
1.59177
1.58737
1.5808
1.57394
1.57044
1.56866
1.56737
1.56596
1.56418
1.56194
1.55882
1.55355
1.54582
1.54184
1.54068
1.53919
1.53744
1.53573
1.53397
1.53181
1.52824
1.52211
1.51637
1.51444
1.51328
1.51213
1.51082
1.5093
1.50731
1.50449
1.49975
1.49264
1.48866
1.48744
1.48656
1.48572
1.48423
1.48272
1.48128
1.47954
1.47696
1.47244
1.46623
1.46311
1.46191
1.4608
1.45919
1.45779
1.45644
1.45463
1.452
1.44825
1.44335
1.44052
1.43968
1.43892
1.43794
1.43666
1.43522
1.43343
1.43092
1.42723
1.42182
1.4185
1.41715
1.41589
1.41476
1.41378
1.41255
1.41079
1.40852
1.40578
1.40226
1.39835
1.39627
1.39544
1.39558
1.39599
1.39891
1.41022
1.43311
1.47336
1.51513
1.55316
1.57045
1.58375
1.59496
1.5991
1.6029
1.60449
1.60433
1.60357
1.60285
1.60262
1.60345
1.6054
1.60787
1.61024
1.61131
1.61132
1.6112
1.61074
1.61037
1.61094
1.61157
1.61207
1.61299
1.61521
1.61777
1.61857
1.61873
1.6182
1.61577
1.61317
1.6128
1.61308
1.6145
1.61787
1.62207
1.62381
1.62379
1.62328
1.6226
1.62154
1.61887
1.6135
1.60986
1.60971
1.61095
1.61321
1.61746
1.62435
1.62945
1.63007
1.62903
1.62705
1.6239
1.61859
1.61358
1.61218
1.61208
1.61281
1.61543
1.61963
1.62316
1.62366
1.6222
1.62272
1.65935
1.92221
2.18605
2.21859
2.21344
2.20365
2.19417
2.1896
2.18898
2.19255
2.19882
2.19871
2.19334
2.18398
2.17104
2.16145
2.15486
2.15274
2.15394
2.15373
2.14493
2.13238
2.1189
2.10812
2.10008
2.09594
2.0968
2.0996
2.09836
2.09146
2.0832
2.07426
2.06664
2.06074
2.05604
2.05397
2.05201
2.04716
2.04153
2.03635
2.03222
2.02866
2.02587
2.02408
1.84632
1.84387
1.8429
1.84439
1.84853
1.85132
1.85075
1.84904
1.84399
1.83257
1.81546
1.7983
1.78827
1.78342
1.78147
1.78166
1.78522
1.78774
1.78671
1.78507
1.78173
1.77208
1.75641
1.74456
1.74073
1.73956
1.73959
1.73883
1.73676
1.73386
1.72927
1.71908
1.70632
1.7018
1.70081
1.70078
1.70043
1.69893
1.69686
1.69368
1.6871
1.67618
1.66914
1.66753
1.66654
1.66511
1.66292
1.66006
1.65594
1.64839
1.6393
1.63537
1.6342
1.63322
1.63175
1.63019
1.62832
1.625
1.617
1.60735
1.60413
1.60302
1.6019
1.60046
1.59865
1.59641
1.59317
1.58719
1.58007
1.57568
1.57299
1.57103
1.56944
1.56781
1.56594
1.56336
1.55909
1.55174
1.54556
1.54412
1.54325
1.54198
1.54022
1.53831
1.53609
1.53297
1.52765
1.52127
1.51827
1.51689
1.51565
1.51431
1.51268
1.51099
1.50875
1.50511
1.49853
1.49227
1.49037
1.48932
1.48863
1.48785
1.48646
1.48494
1.48333
1.48121
1.47755
1.47146
1.46676
1.46516
1.46393
1.46287
1.46141
1.45974
1.45814
1.45611
1.45275
1.44778
1.44391
1.44241
1.44152
1.44066
1.43969
1.43843
1.4368
1.43464
1.43132
1.42664
1.42257
1.42046
1.41928
1.41805
1.41676
1.41554
1.41428
1.41264
1.41029
1.40714
1.40363
1.40021
1.39791
1.3966
1.39538
1.39433
1.39217
1.39009
1.39154
1.40142
1.42573
1.4625
1.50907
1.54475
1.5755
1.58576
1.59273
1.59777
1.5976
1.59754
1.59809
1.5974
1.59776
1.60005
1.6034
1.60552
1.60626
1.60629
1.60599
1.60513
1.60516
1.60572
1.60615
1.60658
1.60753
1.60983
1.61211
1.61275
1.61298
1.61246
1.61023
1.60958
1.60997
1.61072
1.61268
1.61583
1.61739
1.61762
1.61757
1.61709
1.61603
1.6136
1.60906
1.60573
1.60539
1.60656
1.60924
1.61385
1.62066
1.62516
1.62556
1.62436
1.6223
1.61911
1.61362
1.6089
1.60789
1.60796
1.60917
1.61249
1.61745
1.62056
1.62067
1.61888
1.61794
1.63617
1.83874
2.12813
2.21847
2.21926
2.2134
2.20027
2.18943
2.18433
2.18315
2.18601
2.18882
2.18631
2.17941
2.16986
2.15968
2.15177
2.14552
2.14382
2.14395
2.14071
2.12954
2.11641
2.10364
2.09437
2.0879
2.08665
2.08864
2.08919
2.08461
2.07774
2.07043
2.06363
2.05849
2.05403
2.05137
2.04954
2.04564
2.0404
2.03518
2.0306
2.02681
2.0237
2.02269
2.02288
1.84642
1.8462
1.84973
1.85571
1.85851
1.85751
1.85561
1.84948
1.83642
1.81686
1.79948
1.79074
1.78668
1.78499
1.78593
1.79083
1.79426
1.79326
1.79158
1.78772
1.77703
1.76014
1.74766
1.74347
1.74226
1.74278
1.74255
1.74102
1.73881
1.73524
1.7269
1.71345
1.70621
1.70464
1.70398
1.70342
1.70207
1.70018
1.69738
1.69217
1.68241
1.67427
1.6723
1.67116
1.66967
1.6676
1.66488
1.66092
1.65361
1.64419
1.63962
1.63834
1.63777
1.63657
1.63492
1.63306
1.63023
1.62349
1.613
1.60776
1.6064
1.60539
1.60421
1.60269
1.60084
1.59825
1.59384
1.58604
1.58026
1.57781
1.57544
1.57329
1.57146
1.56966
1.56754
1.56428
1.55814
1.55022
1.54736
1.54655
1.54576
1.54456
1.54286
1.54073
1.53781
1.533
1.52629
1.5224
1.5209
1.5195
1.51806
1.51646
1.51465
1.51258
1.50963
1.50424
1.49705
1.49361
1.49239
1.49147
1.49088
1.49001
1.48867
1.48713
1.48519
1.48218
1.47675
1.47104
1.46879
1.46743
1.46598
1.4647
1.46345
1.46175
1.45982
1.4571
1.45279
1.44793
1.44566
1.44458
1.44361
1.44262
1.44158
1.44037
1.43873
1.43604
1.43096
1.42559
1.42383
1.42266
1.42128
1.41999
1.41869
1.41727
1.41562
1.41356
1.41085
1.40751
1.40458
1.40261
1.40087
1.39935
1.39766
1.3949
1.39058
1.38733
1.38715
1.38725
1.38916
1.39762
1.42269
1.45762
1.50017
1.53757
1.56541
1.58233
1.58649
1.59187
1.59439
1.59333
1.59394
1.59698
1.60081
1.60232
1.60272
1.60287
1.60245
1.60094
1.60037
1.60068
1.601
1.60158
1.60298
1.60568
1.60733
1.60766
1.60771
1.60717
1.60598
1.60611
1.60656
1.60717
1.60831
1.60988
1.61071
1.61093
1.611
1.61043
1.60833
1.60466
1.60189
1.60138
1.60228
1.60511
1.61007
1.61666
1.6205
1.62086
1.61995
1.61806
1.61478
1.60921
1.60465
1.60376
1.60398
1.6056
1.60948
1.61485
1.61757
1.61751
1.61577
1.61261
1.61942
1.77208
2.08061
2.20813
2.21444
2.21078
2.2031
2.1925
2.18402
2.17851
2.17692
2.17747
2.17675
2.17116
2.1631
2.15467
2.14742
2.14026
2.13581
2.13364
2.13079
2.12301
2.11234
2.10149
2.09208
2.08478
2.08106
2.08137
2.08193
2.07867
2.07244
2.06589
2.05983
2.05551
2.05174
2.04893
2.04693
2.0437
2.03894
2.03416
2.02962
2.02588
2.02273
2.0209
2.0213
2.02188
1.85011
1.8551
1.86221
1.8646
1.8633
1.86103
1.85418
1.84001
1.81867
1.80113
1.79323
1.78983
1.78847
1.79031
1.79657
1.80091
1.79997
1.79818
1.79378
1.78211
1.76364
1.75044
1.74607
1.7447
1.74563
1.74668
1.74528
1.74342
1.74063
1.734
1.72081
1.71101
1.7087
1.70764
1.70665
1.70508
1.70327
1.70088
1.6968
1.68863
1.67936
1.67665
1.67535
1.67378
1.67178
1.66919
1.66555
1.65889
1.64941
1.64408
1.64262
1.64203
1.6413
1.63974
1.6379
1.63525
1.62942
1.61873
1.61149
1.60985
1.60885
1.60794
1.60657
1.60491
1.60286
1.59959
1.59311
1.58486
1.58158
1.57979
1.57759
1.5754
1.57346
1.57148
1.56888
1.56431
1.55638
1.55086
1.54978
1.54903
1.54816
1.54692
1.54519
1.54269
1.5386
1.53185
1.5265
1.52481
1.52352
1.5221
1.52048
1.5187
1.51665
1.51387
1.50928
1.50215
1.49732
1.49572
1.4946
1.49385
1.49317
1.49212
1.49079
1.48912
1.48651
1.4815
1.4751
1.47225
1.47102
1.46966
1.46814
1.46665
1.46524
1.46354
1.46113
1.45735
1.45203
1.44887
1.44763
1.4466
1.4456
1.44455
1.44337
1.44181
1.43951
1.43575
1.43033
1.42716
1.42604
1.42489
1.42351
1.42212
1.42079
1.4193
1.41722
1.41386
1.41016
1.40777
1.40617
1.40467
1.40318
1.40161
1.39944
1.39565
1.39085
1.38792
1.38667
1.38558
1.38606
1.3863
1.38819
1.39595
1.41575
1.45188
1.48926
1.52545
1.55006
1.5703
1.58069
1.58303
1.58621
1.59152
1.59611
1.59805
1.59845
1.59846
1.59797
1.59668
1.59599
1.59613
1.59649
1.59742
1.59936
1.60234
1.60401
1.6042
1.60409
1.60362
1.60264
1.60232
1.60253
1.60267
1.603
1.60357
1.60382
1.60394
1.60393
1.60307
1.60068
1.59843
1.59778
1.59842
1.60106
1.60614
1.61217
1.61504
1.61524
1.61484
1.61363
1.61077
1.60551
1.60104
1.59998
1.60016
1.60181
1.60603
1.61167
1.61411
1.61395
1.61228
1.60846
1.61029
1.69764
2.02815
2.19105
2.2063
2.20364
2.19871
2.19185
2.18469
2.17863
2.1739
2.17107
2.16953
2.16454
2.15585
2.14704
2.13923
2.13296
2.12867
2.126
2.12261
2.11435
2.10418
2.09508
2.08834
2.08276
2.07937
2.07877
2.07903
2.07533
2.06904
2.06244
2.05631
2.05234
2.04924
2.04716
2.04552
2.04185
2.03725
2.03253
2.02795
2.02409
2.02075
2.0191
2.01936
2.02017
2.01879
1.86042
1.86767
1.86938
1.86791
1.86513
1.8579
1.84341
1.82117
1.8035
1.79606
1.79309
1.79209
1.79485
1.80237
1.80742
1.80656
1.80471
1.79979
1.78732
1.76739
1.75321
1.74862
1.74717
1.74827
1.75086
1.74987
1.74815
1.74575
1.74036
1.72771
1.71559
1.71234
1.71109
1.71018
1.70846
1.70645
1.7042
1.70109
1.69534
1.68567
1.68056
1.67911
1.6774
1.67542
1.67295
1.66961
1.66371
1.65459
1.64863
1.64696
1.64626
1.64577
1.64442
1.64269
1.64028
1.63534
1.62489
1.61536
1.61311
1.61222
1.61169
1.61073
1.60917
1.60727
1.60463
1.59976
1.59083
1.585
1.58314
1.58151
1.57948
1.57738
1.57537
1.57311
1.56964
1.56314
1.55559
1.55313
1.55228
1.55144
1.55042
1.54906
1.54709
1.54382
1.53783
1.53109
1.52864
1.52737
1.52611
1.52459
1.52286
1.5209
1.51836
1.51427
1.50717
1.50112
1.49919
1.49798
1.49714
1.49658
1.49558
1.49438
1.49291