/*--------------------------------*- C++ -*----------------------------------*\
  =========                 |
  \\      /  F ield         | OpenFOAM: The Open Source CFD Toolbox
   \\    /   O peration     | Website:  https://openfoam.org
    \\  /    A nd           | Version:  7
     \\/     M anipulation  |
\*---------------------------------------------------------------------------*/
FoamFile
{
    version     2.0;
    format      ascii;
    class       volScalarField;
    location    "2.2";
    object      p;
}
// * * * * * * * * * * * * * * * * * * * * * * * * * * * * * * * * * * * * * //

dimensions      [1 -1 -2 0 0 0 0];

internalField   nonuniform List<scalar> 
16192
(
1.34324
1.34925
1.3731
1.40241
1.40965
1.40749
1.39514
1.35763
1.29428
1.26597
1.26262
1.2618
1.26186
1.26983
1.30311
1.36519
1.40061
1.4023
1.39661
1.37404
1.30948
1.23904
1.2252
1.22484
1.22543
1.23125
1.25767
1.31386
1.35108
1.35381
1.35057
1.33943
1.3134
1.27479
1.25401
1.24876
1.24705
1.24679
1.24722
1.2482
1.24983
1.25385
1.26066
1.26376
1.26289
1.26114
1.25651
1.24505
1.23339
1.23236
1.23366
1.23805
1.24677
1.26017
1.27468
1.28043
1.28337
1.28508
1.28432
1.28084
1.27878
1.27784
1.27738
1.27949
1.28687
1.29112
1.28937
1.28641
1.28346
1.27932
1.27256
1.26035
1.24907
1.26218
1.38924
1.81956
2.82158
3.33269
3.49738
3.51576
3.48459
3.48182
3.48699
3.47508
3.45617
3.42775
3.41452
3.40772
3.3931
3.38136
3.37142
3.35851
3.33976
3.32606
3.3161
3.3117
3.30481
3.29718
3.28776
3.26939
3.24597
3.22931
3.21845
3.21306
3.21818
3.23735
3.25828
3.27036
3.27832
3.30004
3.3236
3.33064
3.33109
3.33268
3.34103
3.35243
3.34716
3.33182
3.31205
3.28876
3.26354
3.24188
3.22744
3.21776
3.20861
3.19779
3.18562
3.17554
3.16816
3.16024
3.15001
3.13845
3.12846
3.11896
3.10551
3.08613
3.07242
3.06524
3.06156
3.06085
3.05548
3.04765
3.03863
3.02841
3.02049
3.01605
3.0147
3.01328
3.01058
3.00795
3.00431
2.99998
2.99715
2.99387
2.99207
2.99442
3.00141
3.00584
3.00093
2.99125
2.97984
2.96735
2.9535
2.93928
2.9228
2.90939
2.90108
2.89363
2.88757
2.88256
2.87731
2.87176
2.86595
2.85866
2.84908
2.83701
2.82195
2.80314
2.77941
2.76029
2.74869
2.74106
2.7359
2.73385
2.73715
2.73736
2.73144
2.72436
2.71569
2.69944
2.68264
2.6748
2.66857
2.66427
2.66057
2.65409
2.64713
2.63888
2.6262
2.6104
2.59725
2.58777
2.57966
2.57305
2.56713
2.56118
2.5546
2.54679
2.53834
2.53066
2.52411
2.51658
2.51025
2.50641
2.50468
2.50326
2.49782
2.49191
2.48512
2.47653
2.4666
2.45723
2.45142
2.446
2.43955
2.4334
2.42998
2.42716
2.42061
2.41217
2.40423
2.39797
2.39195
2.38744
2.38748
2.39234
2.40392
2.42077
2.43355
2.44137
2.45129
2.45945
2.45967
2.44868
2.42022
2.38465
2.35885
2.33731
2.32108
2.31391
2.31147
2.32079
2.3543
1.35967
1.38675
1.42062
1.42905
1.42671
1.41438
1.3763
1.30771
1.27198
1.26665
1.26564
1.26571
1.27412
1.30725
1.37104
1.41142
1.41465
1.41094
1.39103
1.32828
1.24921
1.22694
1.22484
1.22451
1.23092
1.26029
1.32048
1.3616
1.36505
1.36187
1.35058
1.322
1.27866
1.2574
1.25302
1.25197
1.25181
1.25255
1.25431
1.25705
1.26206
1.26906
1.27173
1.27063
1.26858
1.26358
1.25101
1.23515
1.23108
1.23099
1.23253
1.2382
1.24891
1.2605
1.26844
1.27155
1.27438
1.27676
1.27614
1.27495
1.27527
1.27601
1.27923
1.28833
1.29641
1.29622
1.29388
1.29034
1.28561
1.27883
1.26805
1.25562
1.27154
1.49821
2.11106
2.85305
3.44928
3.53567
3.53307
3.51231
3.47675
3.46493
3.46559
3.45733
3.44392
3.43085
3.41905
3.40905
3.39314
3.37468
3.36387
3.35135
3.33715
3.32783
3.32021
3.31565
3.30606
3.29368
3.27696
3.25492
3.23812
3.22786
3.21985
3.21925
3.23045
3.24036
3.24247
3.24096
3.23885
3.24515
3.26955
3.29281
3.30878
3.32707
3.35145
3.36096
3.3539
3.33862
3.31688
3.28999
3.26117
3.23871
3.22497
3.21485
3.20542
3.1961
3.18714
3.17863
3.16956
3.15901
3.14665
3.13261
3.11799
3.10742
3.09868
3.08877
3.07906
3.07196
3.06499
3.0563
3.04717
3.03879
3.03094
3.02413
3.01891
3.01599
3.01279
3.00723
3.00144
2.99585
2.99141
2.98699
2.98721
2.98898
2.99029
2.99542
3.00073
2.99925
2.99284
2.98261
2.97265
2.96327
2.95083
2.93801
2.92592
2.91368
2.90444
2.89658
2.88909
2.88324
2.87807
2.87329
2.86796
2.86095
2.85121
2.83548
2.81413
2.7914
2.77446
2.76506
2.75676
2.74832
2.74282
2.74093
2.73749
2.73055
2.72445
2.71834
2.70829
2.69489
2.68364
2.67685
2.67155
2.6658
2.6578
2.64903
2.63922
2.62755
2.61352
2.60483
2.59981
2.59599
2.58998
2.58098
2.56859
2.5543
2.54273
2.53475
2.52801
2.52194
2.51747
2.51511
2.51282
2.51051
2.50658
2.50004
2.49145
2.48101
2.47014
2.46054
2.45436
2.4499
2.44573
2.44209
2.4398
2.44076
2.44098
2.43564
2.42769
2.41717
2.40343
2.38853
2.37536
2.36369
2.35691
2.35682
2.36176
2.37551
2.39952
2.42746
2.45329
2.47076
2.47326
2.46965
2.4542
2.41695
2.36695
2.33036
2.31003
2.30199
2.29833
2.29902
2.32118
1.40065
1.43922
1.44941
1.44694
1.43439
1.39579
1.32234
1.28107
1.27486
1.27375
1.27378
1.28148
1.31356
1.37926
1.42491
1.42884
1.4239
1.40406
1.342
1.2559
1.23177
1.23082
1.23093
1.23614
1.26323
1.32525
1.37173
1.37626
1.37323
1.36206
1.33182
1.28431
1.26184
1.25794
1.25711
1.25683
1.25743
1.25962
1.2635
1.27002
1.27772
1.28014
1.27902
1.27698
1.27208
1.25931
1.24036
1.23268
1.23195
1.23227
1.23613
1.24495
1.25371
1.25822
1.26079
1.26217
1.26157
1.26452
1.26662
1.26786
1.27026
1.27544
1.28636
1.29814
1.30043
1.29943
1.29676
1.2921
1.28523
1.27528
1.26443
1.28573
1.52221
2.35624
3.05504
3.44459
3.55455
3.54179
3.53851
3.53839
3.5257
3.49668
3.46548
3.44525
3.43358
3.42742
3.4226
3.41152
3.38978
3.36745
3.3512
3.34073
3.33462
3.33306
3.33027
3.3209
3.30651
3.28515
3.25894
3.24169
3.23278
3.2257
3.22464
3.23473
3.24046
3.23263
3.22452
3.2158
3.20375
3.20283
3.21889
3.25045
3.28441
3.32131
3.3522
3.3573
3.35227
3.33921
3.31806
3.29143
3.26291
3.24022
3.22571
3.2136
3.20199
3.19178
3.18389
3.17621
3.16791
3.15829
3.14587
3.12913
3.11197
3.10053
3.09382
3.08928
3.0835
3.07516
3.06334
3.05062
3.04047
3.03223
3.02554
3.02027
3.01742
3.0149
3.00895
3.00126
2.99201
2.98419
2.97898
2.97635
2.97711
2.98427
2.99105
2.99388
2.99295
2.98895
2.98274
2.97325
2.96718
2.96003
2.94828
2.93609
2.92662
2.91651
2.90711
2.90004
2.8925
2.88554
2.87907
2.87269
2.86632
2.85905
2.84883
2.82875
2.80136
2.78301
2.77297
2.76589
2.76143
2.7588
2.755
2.74878
2.74002
2.7286
2.71606
2.70465
2.69459
2.68805
2.68302
2.67842
2.67324
2.66531
2.65524
2.64333
2.62954
2.61575
2.60779
2.60277
2.6009
2.60022
2.59495
2.58605
2.57021
2.54785
2.53346
2.52541
2.51807
2.5117
2.50776
2.51037
2.51554
2.51395
2.50821
2.50039
2.48759
2.47047
2.45736
2.44959
2.44431
2.43975
2.43643
2.43696
2.4413
2.44702
2.44419
2.43738
2.43058
2.42167
2.40741
2.38712
2.36635
2.34882
2.33653
2.33122
2.33228
2.33869
2.35772
2.398
2.44396
2.46393
2.46672
2.46608
2.45999
2.44016
2.39559
2.33968
2.31033
2.29989
2.29423
2.29231
2.29812
1.45802
1.47046
1.46796
1.45545
1.41712
1.33971
1.29115
1.28313
1.28198
1.28187
1.28924
1.32038
1.38692
1.43832
1.444
1.44045
1.42291
1.36396
1.27042
1.23467
1.23124
1.23115
1.23731
1.26559
1.32916
1.38122
1.38766
1.38489
1.37415
1.34359
1.29187
1.26667
1.26287
1.26201
1.2616
1.26205
1.26445
1.26937
1.27767
1.28645
1.28872
1.28763
1.28576
1.28116
1.26854
1.24776
1.23678
1.23519
1.23508
1.23824
1.24651
1.25346
1.2559
1.25692
1.25603
1.25081
1.24808
1.25171
1.25603
1.26045
1.26719
1.27981
1.29533
1.30079
1.30133
1.30074
1.29771
1.29179
1.28113
1.27855
1.32573
1.59219
2.46508
3.21245
3.49046
3.56137
3.55461
3.55767
3.5496
3.54162
3.52692
3.48602
3.46043
3.44454
3.43715
3.4299
3.41997
3.40798
3.38575
3.36254
3.34577
3.33614
3.33514
3.33968
3.3337
3.32193
3.30291
3.27304
3.24699
3.23625
3.22945
3.2285
3.23955
3.24742
3.23873
3.2238
3.20516
3.18497
3.17466
3.17581
3.18574
3.21177
3.2502
3.30325
3.34551
3.34968
3.34745
3.33638
3.31652
3.29252
3.2664
3.24313
3.22789
3.21422
3.20146
3.18949
3.18009
3.17218
3.1648
3.15613
3.14423
3.12631
3.10899
3.0998
3.09385
3.08839
3.08167
3.07342
3.06146
3.04643
3.03504
3.02746
3.02176
3.01813
3.01542
3.01007
3.00249
2.99271
2.98194
2.97403
2.96944
2.96796
2.97199
2.98071
2.98452
2.98305
2.98139
2.97822
2.97152
2.96637
2.96352
2.95846
2.94768
2.93672
2.92813
2.91823
2.90732
2.8994
2.8926
2.8853
2.87815
2.8707
2.86301
2.85403
2.83867
2.81564
2.79457
2.78346
2.77567
2.77022
2.76939
2.76964
2.76332
2.75493
2.74449
2.72949
2.71038
2.69431
2.68664
2.68181
2.6784
2.67601
2.66962
2.66166
2.65145
2.63562
2.62197
2.61427
2.60906
2.6069
2.60587
2.60075
2.59354
2.58347
2.56627
2.5449
2.53077
2.52177
2.51404
2.50811
2.50575
2.51129
2.51593
2.5121
2.50542
2.49626
2.48125
2.46343
2.45135
2.4435
2.4366
2.43119
2.42759
2.42886
2.43933
2.44622
2.44257
2.43575
2.42904
2.42091
2.40785
2.38646
2.359
2.33882
2.32715
2.32029
2.31852
2.32211
2.33436
2.36173
2.4012
2.43446
2.44996
2.45385
2.45101
2.43897
2.41758
2.38106
2.33894
2.31039
2.29855
2.29394
2.29356
1.492
1.48953
1.47738
1.43981
1.35919
1.30312
1.29319
1.29187
1.29167
1.2986
1.32884
1.39614
1.45326
1.46085
1.45662
1.43887
1.38211
1.28337
1.24197
1.23838
1.23821
1.2427
1.26813
1.33183
1.39006
1.3992
1.39664
1.38676
1.35725
1.30166
1.27163
1.26745
1.26649
1.26587
1.26612
1.26868
1.27481
1.28526
1.29532
1.29749
1.29644
1.29472
1.29036
1.27796
1.25593
1.24221
1.23979
1.23941
1.24213
1.25109
1.25804
1.25895
1.25868
1.25639
1.24847
1.23791
1.23753
1.24138
1.24805
1.25598
1.26764
1.28693
1.29783
1.29959
1.30067
1.30023
1.29674
1.28724
1.28849
1.38256
1.81996
2.55435
3.39533
3.53331
3.59614
3.59419
3.56725
3.53752
3.52509
3.51236
3.50139
3.48742
3.4743
3.46467
3.45259
3.43188
3.41488
3.39674
3.3763
3.35999
3.34943
3.34299
3.34492
3.34106
3.33057
3.31605
3.29144
3.26136
3.24459
3.23604
3.23259
3.24066
3.2524
3.24693
3.23328
3.21359
3.18291
3.16063
3.15486
3.15642
3.1669
3.19223
3.22994
3.26856
3.31116
3.32653
3.32764
3.32233
3.3083
3.28992
3.26827
3.24681
3.23222
3.21778
3.2033
3.19113
3.18091
3.17192
3.16288
3.15213
3.13998
3.12625
3.11424
3.10501
3.09609
3.08669
3.07712
3.06738
3.05615
3.04405
3.03454
3.0271
3.02132
3.01637
3.01031
3.00242
2.99303
2.9822
2.97374
2.96878
2.96531
2.96594
2.97161
2.97509
2.97272
2.966
2.96603
2.96756
2.96451
2.96035
2.95968
2.95879
2.95156
2.93874
2.92971
2.92084
2.90975
2.90083
2.89402
2.88504
2.87609
2.86739
2.85747
2.84263
2.82171
2.80285
2.79373
2.78653
2.78154
2.78098
2.78122
2.77521
2.7676
2.75844
2.74517
2.72717
2.70806
2.69395
2.68573
2.6802
2.67528
2.67002
2.66357
2.65479
2.64255
2.62869
2.62034
2.61496
2.61259
2.61088
2.60466
2.5969
2.58765
2.57414
2.55773
2.54375
2.53369
2.5255
2.51836
2.5125
2.51155
2.51174
2.50514
2.49959
2.49428
2.4864
2.47322
2.45935
2.44949
2.44108
2.43373
2.42827
2.4247
2.42349
2.4244
2.42808
2.43093
2.42796
2.42271
2.41541
2.40263
2.38413
2.36349
2.34543
2.33082
2.31931
2.31387
2.31585
2.32511
2.33992
2.357
2.37398
2.3924
2.41145
2.42369
2.42429
2.41867
2.408
2.39007
2.36299
2.33286
2.31017
2.29612
1.51141
1.49989
1.46348
1.38083
1.31696
1.30436
1.30283
1.30239
1.30862
1.33793
1.40587
1.46842
1.47867
1.47508
1.45874
1.40536
1.30223
1.24814
1.24169
1.24163
1.24659
1.27097
1.33335
1.39825
1.41102
1.40878
1.40007
1.37244
1.31394
1.27667
1.27136
1.27028
1.26955
1.26982
1.2727
1.2801
1.29302
1.30449
1.30662
1.3056
1.30398
1.29969
1.28717
1.26413
1.24812
1.24484
1.2443
1.24672
1.25651
1.26498
1.26547
1.26437
1.261
1.25145
1.23611
1.23093
1.23204
1.23618
1.24327
1.25367
1.27128
1.29013
1.29529
1.29714
1.29856
1.29842
1.29247
1.29687
1.39574
2.02501
2.82378
3.39317
3.63356
3.61973
3.60619
3.58605
3.55698
3.53793
3.52377
3.50819
3.49315
3.48046
3.47603
3.47029
3.45825
3.43768
3.41297
3.38918
3.36986
3.36025
3.35355
3.3513
3.34745
3.33724
3.32324
3.30252
3.27659
3.25733
3.2474
3.24174
3.24455
3.25464
3.25095
3.23983
3.22442
3.19667
3.16507
3.15034
3.14426
3.14297
3.15426
3.18218
3.21118
3.23093
3.25561
3.2886
3.30174
3.30109
3.29542
3.28368
3.26837
3.25072
3.23783
3.22417
3.208
3.1962
3.186
3.17524
3.16268
3.14801
3.13404
3.12414
3.11631
3.10783
3.09811
3.08724
3.07459
3.06063
3.04879
3.04043
3.03356
3.02816
3.02216
3.01453
3.00582
2.9955
2.9827
2.9727
2.96662
2.96229
2.96085
2.96397
2.96644
2.96381
2.9585
2.95138
2.94921
2.95232
2.952
2.95072
2.95389
2.95737
2.95387
2.9422
2.93145
2.92386
2.91458
2.90528
2.89635
2.88572
2.87477
2.86349
2.84792
2.82536
2.80532
2.7963
2.78988
2.78546
2.78691
2.79185
2.78837
2.78061
2.77208
2.75968
2.74169
2.72358
2.71055
2.70039
2.69052
2.68136
2.67328
2.6652
2.65535
2.64458
2.63258
2.62559
2.62069
2.61811
2.61548
2.60887
2.60124
2.59129
2.57619
2.56017
2.54819
2.5411
2.53502
2.52991
2.52703
2.52528
2.51905
2.50946
2.49793
2.48636
2.47848
2.47078
2.46258
2.45633
2.45058
2.44415
2.43768
2.43206
2.42734
2.42323
2.41864
2.41274
2.4092
2.40791
2.40399
2.39789
2.38903
2.37728
2.36821
2.36114
2.35394
2.34571
2.33648
2.32874
2.32532
2.32509
2.32625
2.32937
2.33647
2.34936
2.37044
2.39441
2.4064
2.41005
2.41029
2.40436
2.38798
2.35429
2.31136
1.52249
1.48763
1.40383
1.33208
1.31661
1.31478
1.31424
1.31992
1.34799
1.41632
1.48451
1.49725
1.4935
1.47791
1.42765
1.32156
1.25879
1.25066
1.25009
1.25352
1.27461
1.33424
1.4052
1.42344
1.42163
1.41388
1.38884
1.32913
1.28229
1.27475
1.27351
1.27267
1.27297
1.27637
1.28545
1.3012
1.31411
1.31622
1.31523
1.3136
1.30928
1.29657
1.27214
1.2539
1.24991
1.24927
1.25136
1.26166
1.27253
1.27346
1.27205
1.26852
1.25823
1.23905
1.22931
1.22868
1.22933
1.23299
1.24132
1.25566
1.27535
1.28736
1.29094
1.2935
1.29537
1.29433
1.31155
1.44313
2.08073
3.05877
3.45668
3.60417
3.65255
3.63724
3.60827
3.58875
3.57279
3.55243
3.53148
3.51816
3.49572
3.4815
3.47393
3.4663
3.45212
3.43303
3.4095
3.38746
3.3754
3.36825
3.36491
3.35796
3.34731
3.3335
3.31223
3.28402
3.26599
3.25727
3.25127
3.2531
3.26147
3.2572
3.246
3.2299
3.20558
3.17749
3.15784
3.14686
3.14101
3.14094
3.15384
3.17406
3.18961
3.19798
3.205
3.22851
3.25708
3.27141
3.27566
3.27346
3.26525
3.25201
3.24237
3.23189
3.21529
3.20254
3.19285
3.18073
3.16406
3.14698
3.13553
3.12597
3.11678
3.10765
3.09827
3.0878
3.07322
3.05461
3.0434
3.03506
3.029
3.02563
3.01913
3.01061
3.00115
2.99035
2.97848
2.96902
2.96351
2.96024
2.96022
2.96015
2.95559
2.95007
2.94379
2.93777
2.93333
2.93494
2.93802
2.93967
2.94531
2.95098
2.95023
2.94196
2.93381
2.92967
2.92226
2.91082
2.8982
2.88491
2.87145
2.85496
2.83189
2.80896
2.79762
2.7912
2.78603
2.78593
2.79319
2.79595
2.7895
2.78227
2.77359
2.75909
2.74032
2.72619
2.71571
2.70554
2.69499
2.68381
2.67153
2.65788
2.64467
2.63464
2.6286
2.62413
2.62209
2.61965
2.61284
2.60536
2.59599
2.58123
2.56287
2.5495
2.54362
2.53969
2.53737
2.53771
2.53861
2.53417
2.52598
2.51438
2.49627
2.47428
2.4611
2.45535
2.45102
2.44838
2.44729
2.44519
2.44245
2.43912
2.4337
2.42554
2.41497
2.40391
2.39398
2.38601
2.37933
2.37239
2.36757
2.36598
2.36407
2.36359
2.36477
2.36542
2.36257
2.3538
2.33594
2.31349
2.29874
2.29405
2.29589
2.30122
2.31301
2.34084
2.38335
2.41245
2.42201
2.42188
2.4161
2.39822
2.3548
1.51206
1.42809
1.34844
1.32969
1.32757
1.32695
1.3321
1.359
1.42707
1.50075
1.51665
1.51317
1.49894
1.4519
1.34438
1.27024
1.25862
1.25794
1.26073
1.2793
1.33496
1.41125
1.43626
1.43502
1.42838
1.40622
1.34748
1.28986
1.27817
1.27658
1.27563
1.27592
1.27987
1.29091
1.30992
1.32439
1.32636
1.32539
1.32374
1.31928
1.30614
1.28011
1.25955
1.25479
1.25405
1.25583
1.26625
1.27963
1.28177
1.28025
1.27692
1.26743
1.2468
1.23117
1.22872
1.22829
1.22907
1.23431
1.24546
1.26103
1.27524
1.28108
1.28429
1.28776
1.28891
1.32431
1.59214
2.19664
3.20829
3.54251
3.65348
3.65415
3.63851
3.63036
3.61191
3.59276
3.57609
3.55562
3.53473
3.51764
3.50756
3.48873
3.47202
3.45905
3.44227
3.4204
3.40459
3.39179
3.38451
3.3821
3.37303
3.3613
3.34672
3.32418
3.29692
3.27606
3.26477
3.25841
3.26031
3.27048
3.2686
3.25678
3.23928
3.213
3.18289
3.16637
3.15843
3.15214
3.1497
3.15291
3.15652
3.15705
3.16088
3.16561
3.16946
3.17452
3.19982
3.22719
3.2459
3.25805
3.25713
3.24857
3.24305
3.23826
3.22351
3.20653
3.1957
3.18242
3.16544
3.15275
3.14326
3.13319
3.12229
3.11119
3.09963
3.08636
3.06877
3.05207
3.04227
3.03313
3.02558
3.02007
3.01271
3.00438
2.99584
2.98784
2.98049
2.97313
2.96821
2.96509
2.95953
2.9519
2.94327
2.93328
2.92731
2.92332
2.91973
2.92046
2.9267
2.93031
2.93512
2.9404
2.94094
2.93734
2.93493
2.93627
2.93068
2.91883
2.90366
2.88498
2.86376
2.84002
2.81628
2.802
2.79463
2.78832
2.78492
2.78989
2.79734
2.79361
2.78645
2.77993
2.77102
2.75823
2.74656
2.73769
2.72825
2.71607
2.70053
2.6828
2.66466
2.64843
2.63744
2.63057
2.62553
2.62264
2.62082
2.61541
2.60868
2.59986
2.58609
2.56659
2.55268
2.54604
2.54148
2.53903
2.54057
2.54467
2.54352
2.53739
2.52947
2.51582
2.49097
2.46387
2.45063
2.44515
2.44069
2.43671
2.4386
2.44468
2.4445
2.43996
2.4347
2.4278
2.41684
2.40132
2.38489
2.36978
2.3576
2.35105
2.34794
2.34916
2.35725
2.3664
2.37365
2.37643
2.3742
2.36719
2.35118
2.31597
2.28145
2.26604
2.26421
2.26683
2.27359
2.29116
2.33419
2.39353
2.42044
2.42251
2.4197
2.41051
2.38748
1.45381
1.36605
1.34358
1.34108
1.3404
1.34508
1.37089
1.43846
1.5168
1.53645
1.53325
1.51964
1.47562
1.36832
1.28428
1.26949
1.2683
1.27007
1.28563
1.3366
1.41639
1.44987
1.44955
1.44378
1.42417
1.36834
1.30006
1.28198
1.27991
1.27885
1.27901
1.28333
1.2964
1.31905
1.33526
1.33718
1.33616
1.33445
1.32988
1.31628
1.28825
1.26499
1.25954
1.25866
1.26006
1.27022
1.28595
1.28988
1.28847
1.28539
1.27692
1.25718
1.23698
1.23194
1.23109
1.23084
1.23374
1.24246
1.25425
1.26408
1.26955
1.27169
1.27712
1.28003
1.31738
1.68901
2.50958
3.19583
3.65193
3.69782
3.68585
3.66046
3.629
3.61806
3.61627
3.59419
3.57417
3.54772
3.53258
3.52545
3.51821
3.5018
3.47747
3.45107
3.4239
3.40753
3.39927
3.39375
3.3966
3.39414
3.38094
3.36295
3.33713
3.30597
3.28616
3.27653
3.26999
3.27054
3.281
3.28198
3.27089
3.25295
3.22449
3.19187
3.17221
3.16277
3.15761
3.16079
3.1698
3.16732
3.15586
3.14241
3.13594
3.13384
3.13442
3.1363
3.14685
3.17452
3.2017
3.22768
3.24278
3.24203
3.24135
3.24192
3.23197
3.21388
3.19738
3.18082
3.16557
3.15606
3.14841
3.13994
3.12872
3.11603
3.10123
3.08188
3.06139
3.0503
3.04188
3.03378
3.02525
3.01613
3.00725
2.99902
2.99101
2.984
2.97973
2.97744
2.97344
2.9672
2.95869
2.94583
2.92867
2.91547
2.91029
2.90728
2.90535
2.90734
2.91461
2.91977
2.92305
2.92697
2.92927
2.93045
2.93429
2.93914
2.93561
2.92635
2.91181
2.88851
2.85684
2.82553
2.80792
2.79937
2.79184
2.78651
2.78584
2.79309
2.79501
2.78748
2.78025
2.77302
2.76327
2.75548
2.75059
2.74573
2.73889
2.72726
2.70621
2.67826
2.65675
2.64593
2.63837
2.63262
2.62833
2.6226
2.61539
2.60764
2.59917
2.58759
2.57113
2.55594
2.54785
2.54352
2.54136
2.54335
2.54845
2.54864
2.54345
2.53694
2.52803
2.51149
2.48513
2.46001
2.4469
2.43981
2.43467
2.4308
2.43032
2.43912
2.44384
2.43944
2.43352
2.42667
2.41642
2.3996
2.37824
2.35871
2.34642
2.33965
2.33629
2.33664
2.35151
2.37401
2.38243
2.38031
2.37447
2.36695
2.35425
2.32366
2.27449
2.24909
2.2432
2.24373
2.24935
2.26242
2.2897
2.33952
2.39219
2.41118
2.41164
2.40677
2.39459
1.38594
1.35853
1.35523
1.35447
1.35874
1.3836
1.45056
1.53277
1.55615
1.55339
1.54051
1.49947
1.39341
1.29963
1.28107
1.2795
1.28041
1.29331
1.33948
1.421
1.46402
1.46503
1.46044
1.44302
1.39137
1.31406
1.28681
1.28375
1.2826
1.28249
1.28697
1.30191
1.32836
1.3467
1.3487
1.3476
1.34582
1.34114
1.32705
1.29704
1.27056
1.26421
1.26323
1.26425
1.27379
1.29137
1.2977
1.29659
1.29377
1.28635
1.26809
1.24501
1.23731
1.23622
1.23557
1.23727
1.24468
1.25399
1.25999
1.26266
1.26385
1.26668
1.27485
1.33636
1.69819
2.69955
3.30213
3.59452
3.71098
3.70992
3.69046
3.66147
3.64413
3.62992
3.62484
3.60583
3.5715
3.54754
3.53387
3.52771
3.51971
3.50376
3.47723
3.44332
3.41743
3.40558
3.39797
3.39954
3.40766
3.40055
3.38436
3.35795
3.32273
3.29733
3.2844
3.27643
3.27597
3.28836
3.29264
3.283
3.26792
3.24118
3.203
3.17987
3.17066
3.1647
3.16512
3.17714
3.18129
3.17249
3.15887
3.13784
3.11657
3.10562
3.1025
3.10331
3.10736
3.12468
3.15411
3.18344
3.21602
3.23397
3.23569
3.23669
3.23224
3.21963
3.20389
3.18818
3.17354
3.16227
3.15338
3.14423
3.13231
3.11798
3.09799
3.07117
3.05308
3.04442
3.03669
3.03036
3.02383
3.01503
3.00668
2.99911
2.99225
2.98663
2.98465
2.98284
2.97528
2.96614
2.95391
2.93408
2.91391
2.90265
2.89553
2.89196
2.8919
2.89519
2.90072
2.90428
2.90711
2.91069
2.91507
2.92072
2.93043
2.9375
2.93504
2.92747
2.91414
2.89125
2.85608
2.82359
2.80883
2.79886
2.79034
2.78593
2.78833
2.7884
2.78415
2.77938
2.77242
2.76338
2.75759
2.75365
2.75159
2.74757
2.74073
2.72863
2.70658
2.67901
2.6597
2.6495
2.64249
2.63694
2.63085
2.623
2.61409
2.60265
2.58778
2.57213
2.55883
2.55095
2.54601
2.54297
2.54465
2.55271
2.55306
2.54703
2.541
2.53375
2.52076
2.50166
2.48104
2.46432
2.45083
2.44013
2.43322
2.42877
2.4259
2.42618
2.4298
2.42996
2.42558
2.41995
2.41117
2.39484
2.37337
2.35601
2.34464
2.33787
2.33368
2.33307
2.33905
2.35154
2.36316
2.36888
2.36714
2.3606
2.34823
2.32513
2.29183
2.25907
2.24004
2.23534
2.23747
2.24692
2.26524
2.29253
2.32565
2.3604
2.38626
2.3933
2.38948
1.3742
1.37012
1.36941
1.37318
1.39699
1.46345
1.54903
1.57562
1.57311
1.56113
1.5233
1.41955
1.31643
1.29374
1.29165
1.29198
1.30246
1.34382
1.42548
1.47833
1.48177
1.47748
1.46226
1.41568
1.33198
1.29329
1.28867
1.28738
1.28695
1.29109
1.30731
1.3376
1.3587
1.36088
1.35973
1.35796
1.35322
1.33866
1.30649
1.27636
1.26893
1.26781
1.26852
1.27737
1.29627
1.30524
1.30456
1.30214
1.29584
1.27928
1.25404
1.2435
1.24215
1.24141
1.24261
1.24957
1.25796
1.26125
1.26146
1.26166
1.26218
1.27363
1.40887
1.83754
2.757
3.43263
3.60712
3.6669
3.68025
3.69477
3.68002
3.66697
3.64566
3.6225
3.60922
3.5929
3.57863
3.56197
3.5454
3.53324
3.52029
3.49856
3.46818
3.43957
3.42258
3.41301
3.40961
3.41615
3.41349
3.39971
3.38022
3.34548
3.31134
3.29788
3.29044
3.28736
3.29647
3.30297
3.29402
3.27994
3.25619
3.22002
3.19264
3.17948
3.17173
3.169
3.17808
3.18862
3.18301
3.17236
3.15667
3.13168
3.10074
3.08634
3.0824
3.0811
3.08323
3.08981
3.10738
3.13556
3.17148
3.20912
3.22609
3.22674
3.2235
3.21859
3.20794
3.19685
3.1856
3.17368
3.16261
3.1499
3.13409
3.11503
3.08979
3.06336
3.04948
3.04075
3.03259
3.02543
3.01918
3.01298
3.00772
3.00319
2.99924
2.9972
2.99353
2.98464
2.97336
2.95944
2.94064
2.92088
2.90847
2.90131
2.89434
2.88896
2.88587
2.88509
2.88638
2.8873
2.88925
2.89281
2.8987
2.90813
2.92115
2.92662
2.92469
2.91764
2.90461
2.88674
2.86462
2.84099
2.8233
2.81108
2.80048
2.79375
2.79001
2.78295
2.77426
2.76558
2.75918
2.75573
2.75356
2.7521
2.74811
2.7413
2.73254
2.71951
2.7021
2.68605
2.67358
2.6617
2.65005
2.64023
2.63167
2.6227
2.61038
2.59344
2.57429
2.56057
2.55252
2.54735
2.54372
2.54391
2.55212
2.55589
2.55049
2.54426
2.53712
2.52526
2.50643
2.48785
2.47638
2.46825
2.46019
2.45087
2.4404
2.43146
2.42561
2.42034
2.41553
2.41279
2.40983
2.40512
2.39893
2.38914
2.37412
2.35965
2.35085
2.34457
2.33992
2.33816
2.33852
2.33583
2.33465
2.33664
2.33774
2.33462
2.32783
2.3158
2.30059
2.28519
2.26689
2.2466
2.23697
2.23893
2.2491
2.26396
2.27886
2.29615
2.3208
2.35145
2.37045
1.38587
1.38511
1.38834
1.41128
1.47708
1.56576
1.5952
1.59287
1.58176
1.54676
1.44625
1.33482
1.30706
1.30425
1.30411
1.31258
1.34964
1.43005
1.49259
1.49936
1.49566
1.48246
1.44064
1.35364
1.30177
1.29454
1.29311
1.2924
1.29603
1.31272
1.34647
1.3713
1.37392
1.37265
1.37095
1.36623
1.3512
1.31683
1.28262
1.27384
1.27258
1.27305
1.28127
1.30104
1.31273
1.31254
1.31051
1.30529
1.29075
1.26425
1.25001
1.248
1.24723
1.24809
1.25515
1.2641
1.26612
1.26487
1.26442
1.26403
1.27681
1.43639
2.11864
2.83278
3.45756
3.64224
3.66308
3.69384
3.69648
3.6931
3.67628
3.64955
3.63307
3.60871
3.59845
3.59149
3.58696
3.57849
3.55785
3.53515
3.50827
3.48017
3.45781
3.44523
3.43494
3.43089
3.42898
3.41777
3.40503
3.38878
3.36385
3.33515
3.31584
3.30545
3.30028
3.304
3.31219
3.30498
3.29153
3.27094
3.23569
3.2024
3.18957
3.18289
3.17859
3.18351
3.19425
3.18979
3.17916
3.16704
3.14975
3.12179
3.09263
3.07655
3.06978
3.0661
3.06418
3.06837
3.0811
3.09785
3.12482
3.16612
3.19791
3.20996
3.212
3.21079
3.20959
3.20141
3.19227
3.1819
3.16845
3.15074
3.13006
3.10726
3.08174
3.06144
3.05036
3.04146
3.03301
3.02521
3.01839
3.01308
3.00999
3.00867
3.00773
3.00411
2.99563
2.98477
2.96894
2.94542
2.92223
2.91016
2.90282
2.89815
2.8976
2.89305
2.88573
2.87928
2.87505
2.8717
2.8711
2.87377
2.8809
2.89247
2.90649
2.91014
2.90919
2.90318
2.89103
2.87816
2.86676
2.85429
2.84358
2.83508
2.82563
2.8125
2.79609
2.78025
2.76356
2.74888
2.74212
2.73841
2.73807
2.73759
2.73351
2.72845
2.72057
2.7095
2.70141
2.69586
2.68926
2.67986
2.66622
2.64856
2.63104
2.61425
2.59693
2.5803
2.56641
2.55791
2.55225
2.54746
2.54542
2.55105
2.55549
2.54984
2.54295
2.53622
2.52763
2.51256
2.49136
2.47813
2.47325
2.46948
2.46566
2.46068
2.45322
2.44199
2.42838
2.41651
2.40556
2.39648
2.39035
2.38468
2.38053
2.37894
2.37456
2.36853
2.36426
2.36207
2.3576
2.34969
2.33862
2.32667
2.31672
2.31043
2.30486
2.29947
2.29793
2.29959
2.29726
2.29433
2.28976
2.28133
2.26508
2.2455
2.23956
2.24167
2.24689
2.25463
2.26591
2.28585
2.32197
1.40136
1.40423
1.42643
1.49168
1.5827
1.61492
1.61279
1.60217
1.56967
1.47299
1.35413
1.32067
1.31715
1.31686
1.3237
1.35664
1.43481
1.50635
1.51754
1.51409
1.50243
1.46567
1.37858
1.31292
1.30185
1.30022
1.29927
1.30201
1.31825
1.35467
1.38441
1.38814
1.38671
1.38492
1.38027
1.36487
1.32828
1.28944
1.27909
1.27765
1.2779
1.28559
1.30618
1.32054
1.32089
1.31905
1.31478
1.3023
1.27565
1.25673
1.2536
1.25286
1.25323
1.26002
1.27081
1.27317
1.27117
1.27066
1.27148
1.2983
1.47218
2.25661
3.08081
3.41896
3.60165
3.67243
3.69731
3.70035
3.68907
3.66851
3.66174
3.65449
3.6252
3.60199
3.5936
3.59053
3.59397
3.58377
3.56266
3.53547
3.49933
3.46834
3.45513
3.44771
3.44758
3.45018
3.44135
3.42483
3.40069
3.37167
3.34441
3.32992
3.32232
3.31754
3.32147
3.3263
3.31777
3.30404
3.283
3.25027
3.21744
3.19878
3.1897
3.18489
3.1892
3.2011
3.1983
3.18694
3.17359
3.15615
3.13409
3.11225
3.09464
3.07833
3.06459
3.05737
3.05323
3.05203
3.05864
3.07197
3.08489
3.11082
3.1502
3.17633
3.19324
3.20161
3.20781
3.20442
3.19487
3.18348
3.16692
3.14601
3.12299
3.10019
3.07889
3.0628
3.05173
3.04282
3.03503
3.02788
3.02215
3.01956
3.01967
3.01865
3.01355
3.00511
2.99464
2.97926
2.95574
2.92766
2.91117
2.90333
2.8972
2.8957
2.89841
2.89352
2.88597
2.87686
2.868
2.86164
2.85741
2.85703
2.86176
2.87468
2.88485
2.88676
2.88616
2.88209
2.8744
2.86547
2.85911
2.85621
2.85892
2.85958
2.8503
2.83551
2.81367
2.78501
2.75923
2.74246
2.7315
2.72514
2.72059
2.71766
2.71287
2.70859
2.7057
2.7027
2.70208
2.70161
2.69805
2.69207
2.68266
2.66458
2.634
2.60445
2.58284
2.5692
2.56302
2.55842
2.55407
2.55188
2.55541
2.55849
2.55265
2.54417
2.53548
2.52502
2.51164
2.49558
2.48172
2.47569
2.47256
2.47161
2.47004
2.46612
2.46051
2.45201
2.43724
2.4172
2.39971
2.38445
2.37267
2.36593
2.36154
2.35969
2.36569
2.37081
2.3735
2.3713
2.36574
2.35814
2.34515
2.32524
2.30484
2.28864
2.27847
2.27265
2.27017
2.27587
2.28938
2.29483
2.29691
2.29604
2.29093
2.27458
2.24127
2.22177
2.21978
2.22269
2.2284
2.2378
2.25937
1.42085
1.4425
1.50745
1.60005
1.6345
1.63256
1.62237
1.59237
1.50029
1.37482
1.33488
1.33059
1.3301
1.33552
1.36495
1.44006
1.51947
1.53593
1.53293
1.52271
1.49007
1.40528
1.32643
1.31034
1.30839
1.30731
1.30924
1.32418
1.36201
1.39776
1.40361
1.40204
1.40008
1.39558
1.37983
1.3412
1.29742
1.28494
1.28317
1.28325
1.2905
1.31175
1.32885
1.32997
1.32811
1.32449
1.31379
1.28829
1.26425
1.25908
1.25831
1.25829
1.26408
1.27704
1.28148
1.27944
1.27863
1.28109
1.33588
1.63426
2.30483
3.30277
3.50587
3.58055
3.59008
3.62391
3.66467
3.67686
3.67447
3.64987
3.63605
3.62815
3.62093
3.61135
3.60346
3.5964
3.58888
3.57704
3.55899
3.52862
3.49302
3.47317
3.46359
3.46087
3.46593
3.46039
3.44742
3.42494
3.38732
3.35298
3.33701
3.32801
3.32258
3.3291
3.34074
3.33544
3.32203
3.29999
3.26484
3.22771
3.21007
3.20184
3.19638
3.19842
3.20979
3.21016
3.19942
3.18647
3.16831
3.14144
3.11728
3.10283
3.0924
3.08147
3.06992
3.059
3.05191
3.04778
3.04618
3.04912
3.05845
3.0709
3.09699
3.13018
3.1586
3.18503
3.20023
3.20034
3.19193
3.17883
3.16024
3.13842
3.11802
3.09803
3.08009
3.06558
3.05486
3.04515
3.03706
3.03072
3.02774
3.03137
3.03204
3.0239
3.01395
3.00278
2.98766
2.96546
2.93901
2.92092
2.91265
2.90663
2.90286
2.90357
2.89978
2.8912
2.88178
2.87097
2.86254
2.85576
2.85
2.84762
2.85128
2.85781
2.85875
2.85758
2.8555
2.85444
2.85458
2.85256
2.85009
2.8542
2.86841
2.87244
2.86461
2.85158
2.83177
2.80224
2.76913
2.74486
2.72857
2.71422
2.70373
2.69657
2.69099
2.68821
2.6905
2.69651
2.70289
2.70544
2.70305
2.69822
2.69052
2.67248
2.63806
2.59782
2.57494
2.56527
2.55961
2.55542
2.553
2.55587
2.56142
2.55666
2.54971
2.54272
2.53105
2.51339
2.49361
2.48218
2.47718
2.47359
2.4719
2.47238
2.47244
2.46948
2.46453
2.45705
2.44284
2.41964
2.3947
2.37756
2.36503
2.3553
2.34987
2.34699
2.35253
2.37195
2.37886
2.37405
2.36702
2.3595
2.34798
2.32656
2.29788
2.27488
2.26224
2.25662
2.25363
2.25483
2.27328
2.29733
2.30192
2.30065
2.29667
2.28842
2.26404
2.22019
2.19929
2.19708
2.20021
2.2068
2.21954
1.45936
1.52451
1.61814
1.65377
1.65192
1.64209
1.61453
1.52792
1.39774
1.35004
1.34456
1.34403
1.34833
1.37436
1.44588
1.53189
1.55457
1.55198
1.5425
1.51352
1.43294
1.34285
1.32025
1.31761
1.31646
1.31765
1.33076
1.36846
1.41083
1.42035
1.41881
1.41661
1.41205
1.39589
1.35532
1.30647
1.29152
1.28945
1.28936
1.29621
1.31812
1.33776
1.33977
1.33792
1.33465
1.32532
1.30174
1.27312
1.26477
1.26382
1.26351
1.26802
1.28215
1.2907
1.28895
1.28798
1.29218
1.35358
1.82854
2.57987
3.23657
3.5945
3.62952
3.64734
3.66222
3.65558
3.64951
3.63557
3.62919
3.61838
3.61563
3.6173
3.61209
3.61612
3.61153
3.59405
3.57591
3.5571
3.53695
3.51697
3.50072
3.48965
3.48511
3.48567
3.47764
3.46532
3.4448
3.41096
3.37276
3.35062
3.33992
3.33414
3.33854
3.35187
3.34893
3.33758
3.31859
3.28326
3.24196
3.21936
3.20886
3.20237
3.20468
3.21807
3.22107
3.2113
3.19881
3.1827
3.15873
3.12881
3.10694
3.09605
3.08735
3.07868
3.07036
3.06264
3.05439
3.04911
3.04418
3.03908
3.03821
3.04321
3.05497
3.08248
3.11382
3.14849
3.17827
3.18477
3.18065
3.16822
3.15034
3.13172
3.11611
3.09914
3.08254
3.06866
3.05781
3.04824
3.04055
3.03643
3.03977
3.04434
3.03738
3.02628
3.01422
2.99742
2.97309
2.94543
2.92613
2.91757
2.91179
2.90947
2.91126
2.90711
2.89821
2.88757
2.87321
2.86226
2.85566
2.85033
2.84699
2.84686
2.84638
2.84313
2.83775
2.82907
2.82387
2.82506
2.82821
2.83319