/*--------------------------------*- C++ -*----------------------------------*\
  =========                 |
  \\      /  F ield         | OpenFOAM: The Open Source CFD Toolbox
   \\    /   O peration     | Website:  https://openfoam.org
    \\  /    A nd           | Version:  7
     \\/     M anipulation  |
\*---------------------------------------------------------------------------*/
FoamFile
{
    version     2.0;
    format      ascii;
    class       volVectorField;
    location    "3";
    object      U;
}
// * * * * * * * * * * * * * * * * * * * * * * * * * * * * * * * * * * * * * //

dimensions      [0 1 -1 0 0 0 0];

internalField   nonuniform List<vector> 
16512
(
(2.46379 -0.448418 0)
(2.46741 -0.447586 0)
(2.47085 -0.445912 0)
(2.4739 -0.443744 0)
(2.47628 -0.44177 0)
(2.47783 -0.440306 0)
(2.47914 -0.439445 0)
(2.4809 -0.439305 0)
(2.48283 -0.439694 0)
(2.48375 -0.440822 0)
(2.48546 -0.441505 0)
(2.48889 -0.44216 0)
(2.49233 -0.442867 0)
(2.49615 -0.443752 0)
(2.50096 -0.443943 0)
(2.50495 -0.443723 0)
(2.50876 -0.444458 0)
(2.51244 -0.445702 0)
(2.51591 -0.446986 0)
(2.51788 -0.447894 0)
(2.51688 -0.447279 0)
(2.51373 -0.443738 0)
(2.51191 -0.439622 0)
(2.51341 -0.437834 0)
(2.51637 -0.437223 0)
(2.51924 -0.436788 0)
(2.52225 -0.436556 0)
(2.52593 -0.436697 0)
(2.52981 -0.437316 0)
(2.53311 -0.438489 0)
(2.53573 -0.440398 0)
(2.53828 -0.442608 0)
(2.54131 -0.44417 0)
(2.54384 -0.444114 0)
(2.54332 -0.440695 0)
(2.54061 -0.435132 0)
(2.54184 -0.432518 0)
(2.54506 -0.432157 0)
(2.54816 -0.432711 0)
(2.55185 -0.433305 0)
(2.55621 -0.434088 0)
(2.56175 -0.435575 0)
(2.56675 -0.438298 0)
(2.5697 -0.440612 0)
(2.57374 -0.44232 0)
(2.57773 -0.443949 0)
(2.58099 -0.445926 0)
(2.58297 -0.448168 0)
(2.58326 -0.448496 0)
(2.5807 -0.444249 0)
(2.57485 -0.435848 0)
(2.57234 -0.430065 0)
(2.57485 -0.428672 0)
(2.57768 -0.428313 0)
(2.58055 -0.428281 0)
(2.5846 -0.428872 0)
(2.58904 -0.42968 0)
(2.5933 -0.430873 0)
(2.59603 -0.433137 0)
(2.59773 -0.436122 0)
(2.5989 -0.438493 0)
(2.59882 -0.439049 0)
(2.59773 -0.436155 0)
(2.59684 -0.431061 0)
(2.59785 -0.42733 0)
(2.60099 -0.42591 0)
(2.60466 -0.425461 0)
(2.60816 -0.425575 0)
(2.61167 -0.426068 0)
(2.61506 -0.42655 0)
(2.61803 -0.427075 0)
(2.62029 -0.427774 0)
(2.62119 -0.428899 0)
(2.62082 -0.430391 0)
(2.62213 -0.431264 0)
(2.62509 -0.431344 0)
(2.62791 -0.431098 0)
(2.63079 -0.430863 0)
(2.63314 -0.430379 0)
(2.63342 -0.428579 0)
(2.63149 -0.425097 0)
(2.63112 -0.422374 0)
(2.63294 -0.421656 0)
(2.63522 -0.421895 0)
(2.63727 -0.42253 0)
(2.63872 -0.423213 0)
(2.64018 -0.423551 0)
(2.64336 -0.423783 0)
(2.64709 -0.424013 0)
(2.65085 -0.423853 0)
(2.65452 -0.423805 0)
(2.65811 -0.424132 0)
(2.66144 -0.424808 0)
(2.66435 -0.425549 0)
(2.66543 -0.424928 0)
(2.66118 -0.420483 0)
(2.6537 -0.414653 0)
(2.65323 -0.413716 0)
(2.65553 -0.414604 0)
(2.65789 -0.415287 0)
(2.66068 -0.415569 0)
(2.66374 -0.415599 0)
(2.66709 -0.415416 0)
(2.67084 -0.414711 0)
(2.67399 -0.414246 0)
(2.6773 -0.41465 0)
(2.68067 -0.415099 0)
(2.68383 -0.415476 0)
(2.68662 -0.415958 0)
(2.68866 -0.416276 0)
(2.68924 -0.415532 0)
(2.68778 -0.413958 0)
(2.68624 -0.413258 0)
(2.68796 -0.413744 0)
(2.69054 -0.413979 0)
(2.69303 -0.412995 0)
(2.6953 -0.412002 0)
(2.69757 -0.411845 0)
(2.69821 -0.411628 0)
(2.69584 -0.410096 0)
(2.69519 -0.409079 0)
(2.69738 -0.409066 0)
(2.69982 -0.409177 0)
(2.70181 -0.409496 0)
(2.70408 -0.409794 0)
(2.70734 -0.409815 0)
(2.71043 -0.410074 0)
(2.71344 -0.410518 0)
(2.71646 -0.411397 0)
(2.7191 -0.4125 0)
(2.72148 -0.413877 0)
(2.72231 -0.414808 0)
(2.71935 -0.412118 0)
(2.71563 -0.406429 0)
(2.71623 -0.403004 0)
(2.71838 -0.401641 0)
(2.72032 -0.401146 0)
(2.72147 -0.40168 0)
(2.72155 -0.402785 0)
(2.72237 -0.402996 0)
(2.72573 -0.402655 0)
(2.72874 -0.401502 0)
(2.73095 -0.400626 0)
(2.73237 -0.401009 0)
(2.73305 -0.401654 0)
(2.73376 -0.40105 0)
(2.73531 -0.399754 0)
(2.73828 -0.399086 0)
(2.74117 -0.3994 0)
(2.7433 -0.399526 0)
(2.74536 -0.399045 0)
(2.74781 -0.398326 0)
(2.74981 -0.397647 0)
(2.74895 -0.396696 0)
(2.74498 -0.395032 0)
(2.74252 -0.394527 0)
(2.74264 -0.395348 0)
(2.74348 -0.396309 0)
(2.74489 -0.396918 0)
(2.74704 -0.396829 0)
(2.75006 -0.396938 0)
(2.75289 -0.397147 0)
(2.75601 -0.397025 0)
(2.75937 -0.396794 0)
(2.76239 -0.396649 0)
(2.76534 -0.396653 0)
(2.7682 -0.396602 0)
(2.77071 -0.396693 0)
(2.77209 -0.396399 0)
(2.77027 -0.394081 0)
(2.76569 -0.390048 0)
(2.76403 -0.387073 0)
(2.7652 -0.386027 0)
(2.76682 -0.386176 0)
(2.76857 -0.387102 0)
(2.77074 -0.387676 0)
(2.7735 -0.387817 0)
(2.7767 -0.388224 0)
(2.77937 -0.388642 0)
(2.78193 -0.389169 0)
(2.78432 -0.389957 0)
(2.78638 -0.390503 0)
(2.78851 -0.390782 0)
(2.79065 -0.390271 0)
(2.7924 -0.388727 0)
(2.7906 -0.38529 0)
(2.78278 -0.380485 0)
(2.77858 -0.378714 0)
(2.78014 -0.37899 0)
(2.78241 -0.37951 0)
(2.7849 -0.379946 0)
(2.78734 -0.380459 0)
(2.7896 -0.380891 0)
(2.79207 -0.380925 0)
(2.79554 -0.38146 0)
(2.79697 -0.382025 0)
(2.79935 -0.382798 0)
(2.80177 -0.383212 0)
(2.80427 -0.382937 0)
(2.807 -0.382228 0)
(2.80983 -0.38134 0)
(2.81247 -0.38061 0)
(2.81464 -0.380061 0)
(2.81569 -0.379279 0)
(2.81433 -0.37729 0)
(2.81049 -0.374757 0)
(2.80799 -0.372756 0)
(2.80989 -0.372353 0)
(2.81215 -0.372599 0)
(2.81384 -0.373021 0)
(2.81528 -0.373562 0)
(2.81669 -0.373959 0)
(2.81838 -0.374263 0)
(2.82039 -0.374908 0)
(2.82226 -0.375419 0)
(2.82403 -0.375163 0)
(2.82568 -0.37462 0)
(2.82678 -0.373505 0)
(2.8258 -0.371181 0)
(2.8241 -0.369349 0)
(2.82426 -0.368663 0)
(2.82564 -0.368704 0)
(2.82778 -0.369326 0)
(2.82984 -0.369963 0)
(2.83172 -0.370569 0)
(2.83329 -0.371252 0)
(2.83444 -0.372025 0)
(2.8354 -0.372602 0)
(2.83544 -0.371984 0)
(2.83325 -0.368077 0)
(2.83072 -0.363033 0)
(2.83138 -0.360744 0)
(2.8331 -0.360367 0)
(2.83527 -0.360864 0)
(2.838 -0.361402 0)
(2.84033 -0.361862 0)
(2.84263 -0.362484 0)
(2.84508 -0.362844 0)
(2.84794 -0.36286 0)
(2.85053 -0.36295 0)
(2.85172 -0.363199 0)
(2.85042 -0.362826 0)
(2.84881 -0.36154 0)
(2.84983 -0.360892 0)
(2.85132 -0.361031 0)
(2.85284 -0.361283 0)
(2.85454 -0.361623 0)
(2.85645 -0.361972 0)
(2.8587 -0.361941 0)
(2.86111 -0.361707 0)
(2.86354 -0.361399 0)
(2.86584 -0.361084 0)
(2.86771 -0.360688 0)
(2.86803 -0.35932 0)
(2.86382 -0.355944 0)
(2.8586 -0.352396 0)
(2.85964 -0.351622 0)
(2.8609 -0.351755 0)
(2.46667 -0.442588 0)
(2.47044 -0.441104 0)
(2.47428 -0.439184 0)
(2.47783 -0.437321 0)
(2.48062 -0.434929 0)
(2.48174 -0.432339 0)
(2.48146 -0.431023 0)
(2.48104 -0.431962 0)
(2.48116 -0.434192 0)
(2.48314 -0.435387 0)
(2.48646 -0.435436 0)
(2.48975 -0.434567 0)
(2.49303 -0.433843 0)
(2.49609 -0.433852 0)
(2.49962 -0.434174 0)
(2.50356 -0.434766 0)
(2.50826 -0.43555 0)
(2.51249 -0.437184 0)
(2.51597 -0.439861 0)
(2.51817 -0.442165 0)
(2.5183 -0.443153 0)
(2.51802 -0.441194 0)
(2.51802 -0.437156 0)
(2.51704 -0.43222 0)
(2.51728 -0.42933 0)
(2.52057 -0.428926 0)
(2.52427 -0.429216 0)
(2.52816 -0.429973 0)
(2.53242 -0.430764 0)
(2.53628 -0.431455 0)
(2.53902 -0.432424 0)
(2.5412 -0.434062 0)
(2.54344 -0.435798 0)
(2.5458 -0.436793 0)
(2.54756 -0.435792 0)
(2.54716 -0.43175 0)
(2.54394 -0.426231 0)
(2.54356 -0.424092 0)
(2.5468 -0.424158 0)
(2.55029 -0.42482 0)
(2.55386 -0.425674 0)
(2.55821 -0.427075 0)
(2.56297 -0.429261 0)
(2.56718 -0.432173 0)
(2.57039 -0.434893 0)
(2.57398 -0.436808 0)
(2.5774 -0.438703 0)
(2.58037 -0.440317 0)
(2.58322 -0.441253 0)
(2.58555 -0.440597 0)
(2.58525 -0.435867 0)
(2.58053 -0.426876 0)
(2.57812 -0.421005 0)
(2.58084 -0.420133 0)
(2.5839 -0.420491 0)
(2.587 -0.421807 0)
(2.59037 -0.423506 0)
(2.59447 -0.424282 0)
(2.59773 -0.424956 0)
(2.59825 -0.427245 0)
(2.59794 -0.43058 0)
(2.5994 -0.432029 0)
(2.60127 -0.431639 0)
(2.60267 -0.428844 0)
(2.60298 -0.424177 0)
(2.60285 -0.41973 0)
(2.60381 -0.417573 0)
(2.60625 -0.417273 0)
(2.60953 -0.417766 0)
(2.61283 -0.418594 0)
(2.61579 -0.419748 0)
(2.61776 -0.421161 0)
(2.61869 -0.422864 0)
(2.62075 -0.42419 0)
(2.62327 -0.424333 0)
(2.62567 -0.423935 0)
(2.62815 -0.423254 0)
(2.63058 -0.422311 0)
(2.63281 -0.421351 0)
(2.63422 -0.420302 0)
(2.63379 -0.418266 0)
(2.63299 -0.415967 0)
(2.63437 -0.415481 0)
(2.63696 -0.415727 0)
(2.63951 -0.416141 0)
(2.64188 -0.416776 0)
(2.64431 -0.417625 0)
(2.64691 -0.418182 0)
(2.65031 -0.418396 0)
(2.654 -0.418552 0)
(2.65775 -0.418692 0)
(2.66134 -0.41868 0)
(2.66445 -0.418656 0)
(2.6671 -0.418892 0)
(2.66888 -0.418979 0)
(2.66786 -0.417417 0)
(2.66107 -0.41229 0)
(2.65346 -0.407651 0)
(2.65333 -0.406977 0)
(2.65588 -0.40713 0)
(2.65858 -0.407448 0)
(2.66138 -0.407739 0)
(2.66461 -0.407915 0)
(2.66832 -0.408074 0)
(2.67156 -0.40847 0)
(2.67512 -0.409018 0)
(2.67856 -0.409523 0)
(2.6818 -0.410022 0)
(2.68484 -0.410631 0)
(2.6877 -0.411468 0)
(2.69004 -0.412458 0)
(2.69014 -0.412066 0)
(2.68902 -0.409261 0)
(2.68975 -0.40648 0)
(2.69111 -0.405023 0)
(2.69307 -0.404402 0)
(2.69549 -0.404512 0)
(2.69741 -0.404924 0)
(2.69831 -0.405366 0)
(2.69784 -0.405313 0)
(2.69731 -0.40372 0)
(2.69828 -0.402687 0)
(2.70039 -0.402864 0)
(2.70296 -0.403336 0)
(2.70578 -0.403262 0)
(2.70868 -0.402832 0)
(2.71134 -0.402786 0)
(2.71397 -0.403403 0)
(2.71648 -0.404326 0)
(2.71881 -0.405304 0)
(2.72091 -0.40617 0)
(2.72265 -0.406817 0)
(2.72295 -0.406532 0)
(2.72003 -0.403355 0)
(2.7164 -0.398187 0)
(2.71712 -0.395464 0)
(2.71952 -0.394403 0)
(2.72127 -0.394124 0)
(2.7231 -0.395464 0)
(2.72525 -0.396274 0)
(2.72731 -0.396057 0)
(2.72986 -0.395491 0)
(2.73272 -0.394926 0)
(2.73432 -0.394907 0)
(2.7342 -0.395491 0)
(2.73387 -0.395402 0)
(2.73661 -0.394679 0)
(2.7393 -0.393264 0)
(2.74117 -0.391698 0)
(2.74291 -0.391456 0)
(2.74487 -0.392215 0)
(2.74699 -0.392564 0)
(2.74887 -0.39228 0)
(2.74951 -0.391993 0)
(2.74827 -0.390962 0)
(2.7467 -0.389289 0)
(2.74646 -0.388824 0)
(2.74715 -0.389579 0)
(2.74814 -0.390281 0)
(2.74956 -0.390098 0)
(2.75192 -0.389628 0)
(2.7545 -0.389743 0)
(2.75684 -0.389893 0)
(2.75946 -0.390029 0)
(2.76221 -0.390326 0)
(2.76493 -0.390717 0)
(2.76818 -0.39102 0)
(2.77103 -0.391102 0)
(2.77282 -0.390931 0)
(2.77269 -0.389703 0)
(2.76931 -0.386148 0)
(2.76566 -0.381928 0)
(2.76587 -0.380333 0)
(2.7678 -0.380525 0)
(2.7701 -0.381177 0)
(2.77177 -0.381652 0)
(2.77313 -0.381641 0)
(2.77628 -0.381958 0)
(2.77899 -0.382354 0)
(2.78145 -0.382874 0)
(2.7841 -0.383386 0)
(2.78701 -0.3838 0)
(2.78929 -0.384042 0)
(2.79156 -0.384339 0)
(2.79405 -0.384167 0)
(2.79432 -0.382048 0)
(2.78801 -0.377079 0)
(2.78083 -0.372702 0)
(2.78155 -0.372045 0)
(2.78383 -0.372274 0)
(2.78618 -0.372561 0)
(2.78837 -0.372821 0)
(2.79057 -0.373461 0)
(2.79203 -0.374308 0)
(2.7933 -0.375223 0)
(2.79542 -0.376214 0)
(2.79763 -0.37667 0)
(2.79991 -0.376815 0)
(2.80245 -0.376693 0)
(2.80528 -0.376377 0)
(2.8082 -0.376039 0)
(2.81086 -0.375917 0)
(2.81305 -0.37605 0)
(2.8147 -0.376105 0)
(2.81522 -0.375394 0)
(2.81376 -0.372959 0)
(2.81127 -0.369604 0)
(2.80978 -0.367197 0)
(2.81165 -0.366842 0)
(2.81386 -0.367072 0)
(2.81587 -0.36731 0)
(2.81803 -0.367737 0)
(2.8201 -0.36848 0)
(2.82215 -0.368957 0)
(2.82416 -0.369057 0)
(2.82608 -0.368863 0)
(2.82789 -0.368877 0)
(2.8293 -0.369015 0)
(2.82907 -0.367774 0)
(2.82714 -0.364816 0)
(2.82607 -0.362105 0)
(2.82703 -0.361254 0)
(2.82923 -0.361824 0)
(2.83124 -0.362681 0)
(2.83293 -0.36343 0)
(2.83426 -0.364079 0)
(2.83509 -0.364545 0)
(2.83565 -0.364662 0)
(2.83652 -0.364243 0)
(2.8369 -0.362667 0)
(2.83462 -0.358674 0)
(2.83136 -0.355227 0)
(2.83132 -0.354585 0)
(2.83283 -0.355025 0)
(2.83568 -0.355533 0)
(2.83826 -0.355893 0)
(2.84054 -0.356349 0)
(2.84286 -0.356966 0)
(2.84516 -0.357186 0)
(2.84826 -0.356798 0)
(2.85058 -0.356416 0)
(2.85132 -0.355972 0)
(2.84958 -0.355044 0)
(2.84873 -0.354755 0)
(2.85001 -0.355043 0)
(2.85137 -0.355431 0)
(2.85293 -0.355879 0)
(2.85479 -0.356196 0)
(2.85707 -0.356225 0)
(2.85959 -0.356036 0)
(2.86212 -0.355792 0)
(2.86458 -0.355742 0)
(2.86685 -0.356009 0)
(2.86843 -0.356284 0)
(2.86714 -0.354644 0)
(2.86209 -0.349935 0)
(2.86097 -0.346972 0)
(2.86241 -0.346772 0)
(2.46917 -0.433447 0)
(2.4734 -0.432321 0)
(2.47728 -0.431317 0)
(2.48118 -0.430396 0)
(2.48439 -0.429285 0)
(2.48565 -0.427899 0)
(2.48345 -0.42723 0)
(2.48095 -0.428182 0)
(2.48283 -0.429589 0)
(2.48652 -0.43008 0)
(2.4897 -0.429741 0)
(2.49276 -0.428625 0)
(2.49617 -0.427055 0)
(2.49994 -0.426355 0)
(2.50347 -0.426839 0)
(2.50703 -0.42782 0)
(2.51079 -0.428723 0)
(2.51471 -0.429782 0)
(2.51616 -0.431995 0)
(2.51577 -0.435131 0)
(2.51722 -0.436868 0)
(2.51999 -0.437064 0)
(2.52275 -0.435581 0)
(2.5244 -0.431978 0)
(2.52372 -0.426337 0)
(2.52159 -0.421842 0)
(2.52246 -0.421096 0)
(2.52569 -0.421784 0)
(2.52908 -0.422533 0)
(2.53261 -0.423135 0)
(2.53621 -0.423808 0)
(2.53958 -0.424744 0)
(2.54256 -0.426104 0)
(2.5456 -0.427711 0)
(2.5489 -0.428906 0)
(2.55191 -0.428683 0)
(2.5521 -0.42537 0)
(2.54909 -0.419558 0)
(2.54905 -0.416671 0)
(2.55235 -0.416694 0)
(2.55556 -0.417274 0)
(2.55985 -0.418226 0)
(2.56459 -0.419986 0)
(2.5686 -0.422374 0)
(2.57169 -0.425405 0)
(2.57372 -0.428032 0)
(2.57693 -0.430087 0)
(2.58092 -0.431036 0)
(2.58432 -0.431547 0)
(2.58744 -0.431834 0)
(2.59009 -0.430734 0)
(2.58998 -0.425838 0)
(2.58526 -0.41729 0)
(2.5815 -0.412049 0)
(2.58284 -0.411945 0)
(2.5855 -0.413536 0)
(2.58804 -0.416185 0)
(2.59039 -0.418252 0)
(2.59227 -0.419893 0)
(2.59368 -0.421581 0)
(2.59681 -0.422468 0)
(2.60046 -0.423008 0)
(2.6037 -0.422981 0)
(2.60668 -0.422168 0)
(2.6084 -0.419941 0)
(2.60803 -0.416196 0)
(2.60742 -0.412505 0)
(2.60881 -0.410736 0)
(2.61135 -0.411062 0)
(2.61443 -0.412362 0)
(2.61743 -0.413645 0)
(2.61813 -0.415194 0)
(2.61941 -0.416377 0)
(2.62241 -0.416801 0)
(2.62508 -0.416903 0)
(2.62784 -0.417272 0)
(2.63069 -0.417593 0)
(2.63351 -0.417062 0)
(2.63636 -0.415455 0)
(2.6384 -0.413144 0)
(2.6375 -0.410661 0)
(2.63362 -0.409577 0)
(2.63284 -0.410059 0)
(2.63507 -0.410648 0)
(2.6379 -0.410763 0)
(2.64068 -0.410479 0)
(2.64368 -0.410109 0)
(2.64693 -0.410332 0)
(2.64983 -0.410761 0)
(2.65286 -0.411052 0)
(2.65626 -0.41094 0)
(2.65975 -0.410641 0)
(2.66337 -0.410474 0)
(2.6668 -0.41094 0)
(2.6696 -0.411676 0)
(2.67111 -0.411755 0)
(2.66863 -0.409423 0)
(2.66095 -0.403952 0)
(2.65722 -0.400304 0)
(2.65912 -0.399502 0)
(2.66174 -0.399507 0)
(2.66431 -0.399792 0)
(2.66698 -0.400099 0)
(2.66983 -0.40063 0)
(2.6727 -0.401176 0)
(2.6757 -0.401652 0)
(2.67888 -0.402007 0)
(2.68199 -0.402195 0)
(2.68462 -0.402511 0)
(2.6867 -0.403006 0)
(2.68827 -0.403264 0)
(2.68936 -0.402505 0)
(2.68924 -0.400379 0)
(2.68946 -0.398809 0)
(2.69187 -0.398977 0)
(2.69458 -0.39909 0)
(2.69666 -0.398835 0)
(2.69825 -0.398479 0)
(2.69905 -0.398338 0)
(2.6991 -0.398427 0)
(2.69863 -0.39759 0)
(2.69929 -0.396875 0)
(2.70148 -0.397204 0)
(2.70421 -0.39758 0)
(2.70654 -0.39734 0)
(2.70847 -0.396485 0)
(2.71044 -0.395862 0)
(2.71349 -0.39587 0)
(2.71673 -0.39634 0)
(2.71926 -0.397057 0)
(2.72135 -0.397881 0)
(2.72311 -0.398889 0)
(2.72445 -0.400196 0)
(2.72423 -0.400547 0)
(2.72197 -0.397878 0)
(2.72042 -0.393307 0)
(2.72171 -0.390361 0)
(2.72417 -0.388742 0)
(2.72586 -0.38743 0)
(2.7269 -0.387332 0)
(2.72792 -0.388131 0)
(2.72917 -0.388849 0)
(2.73049 -0.389074 0)
(2.73125 -0.388945 0)
(2.73288 -0.388828 0)
(2.73542 -0.389006 0)
(2.7375 -0.3878 0)
(2.73982 -0.386208 0)
(2.74236 -0.385489 0)
(2.7449 -0.385868 0)
(2.74709 -0.386431 0)
(2.74848 -0.386616 0)
(2.7491 -0.386311 0)
(2.74911 -0.385451 0)
(2.74857 -0.384461 0)
(2.74777 -0.383636 0)
(2.748 -0.383746 0)
(2.74937 -0.384456 0)
(2.75102 -0.385142 0)
(2.7523 -0.385057 0)
(2.75453 -0.383992 0)
(2.75751 -0.383589 0)
(2.7597 -0.383739 0)
(2.76205 -0.383942 0)
(2.76415 -0.384167 0)
(2.76644 -0.384573 0)
(2.76847 -0.384535 0)
(2.77063 -0.383809 0)
(2.77302 -0.383287 0)
(2.77474 -0.382697 0)
(2.77359 -0.380517 0)
(2.76755 -0.376744 0)
(2.76386 -0.375048 0)
(2.76492 -0.374843 0)
(2.7669 -0.374957 0)
(2.76912 -0.375072 0)
(2.77196 -0.374903 0)
(2.77554 -0.375161 0)
(2.77867 -0.375487 0)
(2.78151 -0.375985 0)
(2.78438 -0.376368 0)
(2.78624 -0.376255 0)
(2.78887 -0.376497 0)
(2.79161 -0.376971 0)
(2.7939 -0.377651 0)
(2.79514 -0.377763 0)
(2.79205 -0.375021 0)
(2.78393 -0.369256 0)
(2.78147 -0.365988 0)
(2.78396 -0.3655 0)
(2.78642 -0.36564 0)
(2.78903 -0.365766 0)
(2.79183 -0.366322 0)
(2.79418 -0.367511 0)
(2.79598 -0.368211 0)
(2.79771 -0.368884 0)
(2.79953 -0.369272 0)
(2.80164 -0.36959 0)
(2.80399 -0.369882 0)
(2.80641 -0.370014 0)
(2.80865 -0.369903 0)
(2.81048 -0.369675 0)
(2.81188 -0.369399 0)
(2.81307 -0.368791 0)
(2.81401 -0.367635 0)
(2.81371 -0.365803 0)
(2.81102 -0.363587 0)
(2.80878 -0.361839 0)
(2.81022 -0.360996 0)
(2.8125 -0.360698 0)
(2.8145 -0.360687 0)
(2.8167 -0.360843 0)
(2.81917 -0.361209 0)
(2.8216 -0.361666 0)
(2.82377 -0.361989 0)
(2.8257 -0.362259 0)
(2.82749 -0.362836 0)
(2.82898 -0.363848 0)
(2.83006 -0.364721 0)
(2.83034 -0.363421 0)
(2.82952 -0.35987 0)
(2.82906 -0.356769 0)
(2.83022 -0.356156 0)
(2.83222 -0.35701 0)
(2.83388 -0.357714 0)
(2.83527 -0.358176 0)
(2.8364 -0.358252 0)
(2.83745 -0.358007 0)
(2.83859 -0.357772 0)
(2.83956 -0.357575 0)
(2.83881 -0.355799 0)
(2.83542 -0.351501 0)
(2.83332 -0.348337 0)
(2.8346 -0.347989 0)
(2.83738 -0.348303 0)
(2.84005 -0.348588 0)
(2.84247 -0.348895 0)
(2.84421 -0.349569 0)
(2.84668 -0.350746 0)
(2.84833 -0.351037 0)
(2.8509 -0.351032 0)
(2.85271 -0.351042 0)
(2.85247 -0.350818 0)
(2.85129 -0.349385 0)
(2.85184 -0.348713 0)
(2.8531 -0.348742 0)
(2.8546 -0.349041 0)
(2.85621 -0.349416 0)
(2.85814 -0.349591 0)
(2.86029 -0.349503 0)
(2.86245 -0.34939 0)
(2.86471 -0.349446 0)
(2.86699 -0.349592 0)
(2.86888 -0.349451 0)
(2.86937 -0.348332 0)
(2.86552 -0.345267 0)
(2.86053 -0.342461 0)
(2.86011 -0.341856 0)
(2.47054 -0.422199 0)
(2.47545 -0.42224 0)
(2.4791 -0.422695 0)
(2.48323 -0.42323 0)
(2.48636 -0.424198 0)
(2.48715 -0.425392 0)
(2.4849 -0.426107 0)
(2.48334 -0.424811 0)
(2.48459 -0.422094 0)
(2.48722 -0.420247 0)
(2.49111 -0.419807 0)
(2.49495 -0.419535 0)
(2.49832 -0.4187 0)
(2.50145 -0.417273 0)
(2.50455 -0.41668 0)
(2.50732 -0.41786 0)
(2.50963 -0.420254 0)
(2.5118 -0.422617 0)
(2.51299 -0.425387 0)
(2.51446 -0.427139 0)
(2.51821 -0.428192 0)
(2.52204 -0.428518 0)
(2.52588 -0.427973 0)
(2.52923 -0.426621 0)
(2.53073 -0.424236 0)
(2.5285 -0.420061 0)
(2.52516 -0.416155 0)
(2.52634 -0.415101 0)
(2.52987 -0.41544 0)
(2.53385 -0.41619 0)
(2.53783 -0.417136 0)
(2.54176 -0.41819 0)
(2.54542 -0.41898 0)
(2.54849 -0.419552 0)
(2.5513 -0.420588 0)
(2.55396 -0.421785 0)
(2.55609 -0.421491 0)
(2.55649 -0.417916 0)
(2.55395 -0.411822 0)
(2.55239 -0.408769 0)
(2.5544 -0.409478 0)
(2.55703 -0.411452 0)
(2.56021 -0.413986 0)
(2.56392 -0.416054 0)
(2.56784 -0.417403 0)
(2.57221 -0.419238 0)
(2.57655 -0.421516 0)
(2.57993 -0.421998 0)
(2.58419 -0.422115 0)
(2.58827 -0.422061 0)
(2.59186 -0.422261 0)
(2.59512 -0.421639 0)
(2.59496 -0.417642 0)
(2.58957 -0.410779 0)
(2.58615 -0.406856 0)
(2.58707 -0.406373 0)
(2.58934 -0.40758 0)
(2.59074 -0.410281 0)
(2.5907 -0.412889 0)
(2.59338 -0.414457 0)
(2.59729 -0.41499 0)
(2.60095 -0.414676 0)
(2.60503 -0.414001 0)
(2.6086 -0.413351 0)
(2.61192 -0.412633 0)
(2.61373 -0.410432 0)
(2.6124 -0.406904 0)
(2.60997 -0.404456 0)
(2.61026 -0.404242 0)
(2.61255 -0.405602 0)
(2.61473 -0.40792 0)
(2.61658 -0.409257 0)
(2.61878 -0.409067 0)
(2.62147 -0.408369 0)
(2.62462 -0.408001 0)
(2.62782 -0.408141 0)
(2.63128 -0.408413 0)
(2.63506 -0.408361 0)
(2.63838 -0.408381 0)
(2.64178 -0.407927 0)
(2.64236 -0.406491 0)
(2.63764 -0.404414 0)
(2.63403 -0.403882 0)
(2.63557 -0.404655 0)
(2.63824 -0.405075 0)
(2.6413 -0.404848 0)
(2.6444 -0.403949 0)
(2.64791 -0.403382 0)
(2.65172 -0.403838 0)
(2.65512 -0.404531 0)
(2.65874 -0.404753 0)
(2.66182 -0.404263 0)
(2.66475 -0.404017 0)
(2.66769 -0.404124 0)
(2.66983 -0.405032 0)
(2.67076 -0.406629 0)
(2.66988 -0.407323 0)
(2.66688 -0.404086 0)
(2.66213 -0.397362 0)
(2.6604 -0.393049 0)
(2.66293 -0.39222 0)
(2.66611 -0.392433 0)
(2.6692 -0.392917 0)
(2.67229 -0.393587 0)
(2.67538 -0.394337 0)
(2.67879 -0.394969 0)
(2.6806 -0.395304 0)
(2.68324 -0.395529 0)
(2.68622 -0.395477 0)
(2.68861 -0.395585 0)
(2.69027 -0.396063 0)
(2.69165 -0.396821 0)
(2.69295 -0.396723 0)
(2.69397 -0.394799 0)
(2.6943 -0.392853 0)
(2.69425 -0.392409 0)
(2.69458 -0.392764 0)
(2.69522 -0.392574 0)
(2.69602 -0.392068 0)
(2.69769 -0.392074 0)
(2.69993 -0.392644 0)
(2.70185 -0.392455 0)
(2.70279 -0.391518 0)
(2.70399 -0.390902 0)
(2.70706 -0.390623 0)
(2.70998 -0.390225 0)
(2.71238 -0.389659 0)
(2.71475 -0.38908 0)
(2.71764 -0.389295 0)
(2.72021 -0.389853 0)
(2.72237 -0.390477 0)
(2.72422 -0.391357 0)
(2.72549 -0.392827 0)
(2.72584 -0.394855 0)
(2.72498 -0.395785 0)
(2.72429 -0.393405 0)
(2.72456 -0.388137 0)
(2.72571 -0.382852 0)
(2.72748 -0.380192 0)
(2.72957 -0.380024 0)
(2.73103 -0.380894 0)
(2.73178 -0.381405 0)
(2.73223 -0.381487 0)
(2.73271 -0.381313 0)
(2.7334 -0.380854 0)
(2.73456 -0.380786 0)
(2.73658 -0.380534 0)
(2.73896 -0.379904 0)
(2.7412 -0.379453 0)
(2.74292 -0.379415 0)
(2.74409 -0.379385 0)
(2.74516 -0.379101 0)
(2.74644 -0.378916 0)
(2.7477 -0.378797 0)
(2.74802 -0.378757 0)
(2.74685 -0.379032 0)
(2.74623 -0.378748 0)
(2.74714 -0.378412 0)
(2.74867 -0.378231 0)
(2.75088 -0.37805 0)
(2.75337 -0.377531 0)
(2.7554 -0.376688 0)
(2.75775 -0.376577 0)
(2.75989 -0.376888 0)
(2.76196 -0.377057 0)
(2.76432 -0.377091 0)
(2.76824 -0.377047 0)
(2.77117 -0.376733 0)
(2.77364 -0.376629 0)
(2.77641 -0.37669 0)
(2.77697 -0.376224 0)
(2.77214 -0.373195 0)
(2.76526 -0.369473 0)
(2.76546 -0.368515 0)
(2.76761 -0.368588 0)
(2.76973 -0.368889 0)
(2.77265 -0.368816 0)
(2.77615 -0.369011 0)
(2.77941 -0.369254 0)
(2.78243 -0.3695 0)
(2.78546 -0.370133 0)
(2.78773 -0.370706 0)
(2.79074 -0.371169 0)
(2.79363 -0.371598 0)
(2.79605 -0.372043 0)
(2.79735 -0.372272 0)
(2.79563 -0.371007 0)
(2.7891 -0.366567 0)
(2.78346 -0.361123 0)
(2.78472 -0.35934 0)
(2.78741 -0.35968 0)
(2.79024 -0.360138 0)
(2.79307 -0.360796 0)
(2.79559 -0.361983 0)
(2.79726 -0.362679 0)
(2.79903 -0.363031 0)
(2.80089 -0.363366 0)
(2.80294 -0.363785 0)
(2.80518 -0.364249 0)
(2.8074 -0.364446 0)
(2.80942 -0.364176 0)
(2.81117 -0.363667 0)
(2.81276 -0.363238 0)
(2.81435 -0.363008 0)
(2.81582 -0.362926 0)
(2.81606 -0.362454 0)
(2.81359 -0.360728 0)
(2.81092 -0.358038 0)
(2.81136 -0.355934 0)
(2.81299 -0.355132 0)
(2.81525 -0.355154 0)
(2.81778 -0.355347 0)
(2.82032 -0.355527 0)
(2.82273 -0.355626 0)
(2.82487 -0.355656 0)
(2.82669 -0.355839 0)
(2.82835 -0.356302 0)
(2.83002 -0.356886 0)
(2.83144 -0.357187 0)
(2.83219 -0.356366 0)
(2.83192 -0.35419 0)
(2.82991 -0.351655 0)
(2.82847 -0.350968 0)
(2.82937 -0.351422 0)
(2.83104 -0.351898 0)
(2.83262 -0.352058 0)
(2.83422 -0.352085 0)
(2.83588 -0.352122 0)
(2.83757 -0.352331 0)
(2.83923 -0.35279 0)
(2.84053 -0.353061 0)
(2.84002 -0.351076 0)
(2.83702 -0.346335 0)
(2.83622 -0.343377 0)
(2.8385 -0.343065 0)
(2.84092 -0.343239 0)
(2.8434 -0.343105 0)
(2.84578 -0.342808 0)
(2.84699 -0.34348 0)
(2.84772 -0.34489 0)
(2.84901 -0.345631 0)
(2.85044 -0.345891 0)
(2.85141 -0.345514 0)
(2.85269 -0.345054 0)
(2.85395 -0.344416 0)
(2.85481 -0.343872 0)
(2.8558 -0.343719 0)
(2.85721 -0.343902 0)
(2.859 -0.343977 0)
(2.86108 -0.343775 0)
(2.86322 -0.343658 0)
(2.86559 -0.343834 0)
(2.86818 -0.34423 0)
(2.87057 -0.344564 0)
(2.87193 -0.344329 0)
(2.86951 -0.342209 0)
(2.86306 -0.337935 0)
(2.86048 -0.335863 0)
(2.47346 -0.414278 0)
(2.47768 -0.413919 0)
(2.48164 -0.414777 0)
(2.48485 -0.416239 0)
(2.48712 -0.418018 0)
(2.48579 -0.421882 0)
(2.48493 -0.423989 0)
(2.4868 -0.422551 0)
(2.48952 -0.419787 0)
(2.49195 -0.416005 0)
(2.49353 -0.411837 0)
(2.4957 -0.409581 0)
(2.49952 -0.409313 0)
(2.50317 -0.409423 0)
(2.50681 -0.409788 0)
(2.50986 -0.410879 0)
(2.51055 -0.413124 0)
(2.50991 -0.416999 0)
(2.51366 -0.419505 0)
(2.51733 -0.420547 0)
(2.52056 -0.420698 0)
(2.52418 -0.420201 0)
(2.52787 -0.41975 0)
(2.53183 -0.419842 0)
(2.53522 -0.419742 0)
(2.53534 -0.417971 0)
(2.53102 -0.413223 0)
(2.52772 -0.409108 0)
(2.52872 -0.408118 0)
(2.53144 -0.408641 0)
(2.53493 -0.409591 0)
(2.53857 -0.410514 0)
(2.54206 -0.411228 0)
(2.54555 -0.411792 0)
(2.54912 -0.412224 0)
(2.55319 -0.412541 0)
(2.55732 -0.412746 0)
(2.56093 -0.412097 0)
(2.56178 -0.408883 0)
(2.55838 -0.403904 0)
(2.55621 -0.402269 0)
(2.55749 -0.403896 0)
(2.56002 -0.406174 0)
(2.56301 -0.407957 0)
(2.56613 -0.409696 0)
(2.56988 -0.411625 0)
(2.57504 -0.413651 0)
(2.58238 -0.41521 0)
(2.58736 -0.41445 0)
(2.59088 -0.41366 0)
(2.59469 -0.413184 0)
(2.59828 -0.412907 0)
(2.60082 -0.41146 0)
(2.59807 -0.407 0)
(2.5899 -0.40227 0)
(2.58499 -0.401931 0)
(2.58533 -0.403551 0)
(2.58901 -0.405034 0)
(2.59299 -0.406244 0)
(2.59633 -0.407404 0)
(2.59951 -0.40776 0)
(2.60321 -0.407606 0)
(2.60732 -0.406771 0)
(2.61102 -0.406133 0)
(2.61447 -0.405972 0)
(2.61733 -0.405383 0)
(2.6173 -0.403541 0)
(2.61347 -0.401222 0)
(2.61003 -0.400356 0)
(2.61062 -0.40099 0)
(2.61425 -0.401764 0)
(2.6178 -0.402488 0)
(2.62093 -0.402977 0)
(2.6242 -0.402751 0)
(2.6274 -0.401719 0)
(2.63027 -0.40036 0)
(2.63295 -0.399904 0)
(2.63582 -0.400303 0)
(2.63876 -0.400972 0)
(2.64159 -0.401569 0)
(2.64328 -0.401772 0)
(2.64098 -0.400269 0)
(2.63584 -0.397625 0)
(2.63625 -0.397439 0)
(2.63903 -0.397916 0)
(2.64164 -0.398219 0)
(2.64448 -0.39793 0)
(2.64795 -0.396655 0)
(2.65166 -0.395661 0)
(2.65475 -0.395246 0)
(2.65773 -0.395434 0)
(2.66091 -0.396066 0)
(2.66356 -0.396966 0)
(2.6653 -0.397556 0)
(2.66624 -0.398216 0)
(2.66697 -0.39975 0)
(2.6681 -0.400822 0)
(2.66889 -0.400337 0)
(2.66756 -0.396556 0)
(2.66354 -0.389954 0)
(2.6623 -0.385663 0)
(2.66519 -0.384846 0)
(2.66845 -0.384982 0)
(2.67152 -0.385191 0)
(2.67491 -0.385393 0)
(2.67778 -0.38596 0)
(2.68027 -0.386891 0)
(2.68218 -0.388304 0)
(2.68425 -0.388936 0)
(2.68597 -0.389311 0)
(2.68784 -0.38975 0)
(2.69062 -0.389574 0)
(2.6939 -0.389372 0)
(2.69683 -0.389147 0)
(2.6984 -0.388 0)
(2.69777 -0.386827 0)
(2.6963 -0.386568 0)
(2.6951 -0.386745 0)
(2.6954 -0.386475 0)
(2.69729 -0.386092 0)
(2.69993 -0.386206 0)
(2.70279 -0.386694 0)
(2.70541 -0.386932 0)
(2.70748 -0.385846 0)
(2.70861 -0.383916 0)
(2.70935 -0.382618 0)
(2.71067 -0.382058 0)
(2.71255 -0.381995 0)
(2.71487 -0.382101 0)
(2.71719 -0.382299 0)
(2.71933 -0.382703 0)
(2.72103 -0.384228 0)
(2.7223 -0.386214 0)
(2.72384 -0.387861 0)
(2.72578 -0.389047 0)
(2.72717 -0.389178 0)
(2.72818 -0.386437 0)
(2.7291 -0.381631 0)
(2.7301 -0.377469 0)
(2.7317 -0.375578 0)
(2.73321 -0.375165 0)
(2.73433 -0.37518 0)
(2.7353 -0.375189 0)
(2.73642 -0.37506 0)
(2.73761 -0.374947 0)
(2.73859 -0.374834 0)
(2.73964 -0.374534 0)
(2.74117 -0.373963 0)
(2.7428 -0.373288 0)
(2.74415 -0.372656 0)
(2.74539 -0.372195 0)
(2.74667 -0.371794 0)
(2.74753 -0.372219 0)
(2.74827 -0.373527 0)
(2.74862 -0.374443 0)
(2.7473 -0.374641 0)
(2.74648 -0.373904 0)
(2.74816 -0.373079 0)
(2.75045 -0.372665 0)
(2.75242 -0.372383 0)
(2.75422 -0.371904 0)
(2.75595 -0.370639 0)
(2.75875 -0.369592 0)
(2.76127 -0.369542 0)
(2.76323 -0.369471 0)
(2.76532 -0.369311 0)
(2.76652 -0.369348 0)
(2.76918 -0.370095 0)
(2.77245 -0.370695 0)
(2.77551 -0.370885 0)
(2.7769 -0.371445 0)
(2.77566 -0.370808 0)
(2.7707 -0.367185 0)
(2.76595 -0.363579 0)
(2.76608 -0.362655 0)
(2.7681 -0.36234 0)
(2.77062 -0.362375 0)
(2.77392 -0.36276 0)
(2.77696 -0.363206 0)
(2.77996 -0.36372 0)
(2.7831 -0.364222 0)
(2.78613 -0.364819 0)
(2.78859 -0.365272 0)
(2.79131 -0.365503 0)
(2.79403 -0.365324 0)
(2.79649 -0.364861 0)
(2.79821 -0.364046 0)
(2.79657 -0.361099 0)
(2.78935 -0.356076 0)
(2.78423 -0.353713 0)
(2.78629 -0.353739 0)
(2.78912 -0.354187 0)
(2.79169 -0.354774 0)
(2.79409 -0.355474 0)
(2.79607 -0.356138 0)
(2.79776 -0.356396 0)
(2.79969 -0.356611 0)
(2.80169 -0.357015 0)
(2.80372 -0.357551 0)
(2.8058 -0.357757 0)
(2.80797 -0.357432 0)
(2.80995 -0.356991 0)
(2.81173 -0.356822 0)
(2.81334 -0.356947 0)
(2.81474 -0.357047 0)
(2.81583 -0.356776 0)
(2.81597 -0.355225 0)
(2.8142 -0.352238 0)
(2.81182 -0.350246 0)
(2.8118 -0.349894 0)
(2.81334 -0.349789 0)
(2.81537 -0.34988 0)
(2.81765 -0.349951 0)
(2.82009 -0.349809 0)
(2.82235 -0.349541 0)
(2.82427 -0.349436 0)
(2.82593 -0.349663 0)
(2.82766 -0.350068 0)
(2.82994 -0.350454 0)
(2.83246 -0.350888 0)
(2.83422 -0.350528 0)
(2.83321 -0.348208 0)
(2.82999 -0.345477 0)
(2.83008 -0.344622 0)
(2.83226 -0.344617 0)
(2.83412 -0.344737 0)
(2.83598 -0.344806 0)
(2.83775 -0.344837 0)
(2.83932 -0.344814 0)
(2.84071 -0.344711 0)
(2.84214 -0.344625 0)
(2.84339 -0.344265 0)
(2.84227 -0.342015 0)
(2.83762 -0.338637 0)
(2.83587 -0.337644 0)
(2.83767 -0.337634 0)
(2.83984 -0.337679 0)
(2.84228 -0.337649 0)
(2.84507 -0.337774 0)
(2.84759 -0.338349 0)
(2.84958 -0.338892 0)
(2.85125 -0.338926 0)
(2.85287 -0.338235 0)
(2.85376 -0.337271 0)
(2.85403 -0.336672 0)
(2.85412 -0.337005 0)
(2.85461 -0.337751 0)
(2.85538 -0.338207 0)
(2.8568 -0.338133 0)
(2.85889 -0.337831 0)
(2.8612 -0.337815 0)
(2.86385 -0.338172 0)
(2.86672 -0.338863 0)
(2.86946 -0.339636 0)
(2.87157 -0.340312 0)
(2.87161 -0.340145 0)
(2.86742 -0.336586 0)
(2.86276 -0.332109 0)
(2.47619 -0.406193 0)
(2.47985 -0.406636 0)
(2.48375 -0.407552 0)
(2.48582 -0.409568 0)
(2.4842 -0.413661 0)
(2.48352 -0.41585 0)
(2.48678 -0.416007 0)
(2.49041 -0.415528 0)
(2.49376 -0.414405 0)
(2.49687 -0.412383 0)
(2.49964 -0.409037 0)
(2.50175 -0.404751 0)
(2.50302 -0.401714 0)
(2.5041 -0.40159 0)
(2.50554 -0.403286 0)
(2.50666 -0.405396 0)
(2.50728 -0.408066 0)
(2.50984 -0.409574 0)
(2.51312 -0.410139 0)
(2.51641 -0.410352 0)
(2.52053 -0.410708 0)
(2.5258 -0.410919 0)
(2.5299 -0.411174 0)
(2.5339 -0.411935 0)
(2.53781 -0.412625 0)
(2.54005 -0.41226 0)
(2.53841 -0.409846 0)
(2.53373 -0.405615 0)
(2.53184 -0.40325 0)
(2.53372 -0.403057 0)
(2.53645 -0.403484 0)
(2.53943 -0.404063 0)
(2.54312 -0.404811 0)
(2.5472 -0.405549 0)
(2.55104 -0.405978 0)
(2.55492 -0.405683 0)
(2.55881 -0.405165 0)
(2.56286 -0.404805 0)
(2.56598 -0.403746 0)
(2.56462 -0.400651 0)
(2.55873 -0.397264 0)
(2.55713 -0.397314 0)
(2.55955 -0.398744 0)
(2.56245 -0.400141 0)
(2.56586 -0.401489 0)
(2.56978 -0.402727 0)
(2.57522 -0.403875 0)
(2.58363 -0.40501 0)
(2.59054 -0.405225 0)
(2.59379 -0.404946 0)
(2.59783 -0.405371 0)
(2.6016 -0.405863 0)
(2.60452 -0.40607 0)
(2.60346 -0.404841 0)
(2.59466 -0.401132 0)
(2.58551 -0.397862 0)