/*--------------------------------*- C++ -*----------------------------------*\
  =========                 |
  \\      /  F ield         | OpenFOAM: The Open Source CFD Toolbox
   \\    /   O peration     | Website:  https://openfoam.org
    \\  /    A nd           | Version:  7
     \\/     M anipulation  |
\*---------------------------------------------------------------------------*/
FoamFile
{
    version     2.0;
    format      ascii;
    class       volScalarField;
    location    "3.3";
    object      p;
}
// * * * * * * * * * * * * * * * * * * * * * * * * * * * * * * * * * * * * * //

dimensions      [1 -1 -2 0 0 0 0];

internalField   nonuniform List<scalar> 
16192
(
6.04
6.03605
6.0816
6.12675
6.10294
6.04692
5.93835
5.8045
5.73872
5.71389
5.70869
5.74193
5.76938
5.75085
5.71735
5.66042
5.58178
5.52797
5.50712
5.48787
5.46438
5.43231
5.39139
5.353
5.32807
5.30819
5.28683
5.26041
5.21333
5.14879
5.08753
5.06177
5.05065
5.06419
5.09265
5.08386
5.05386
4.99949
4.9254
4.84961
4.80969
4.79255
4.78686
4.80748
4.82381
4.8089
4.78224
4.72763
4.64469
4.58383
4.55943
4.54699
4.54936
4.56475
4.55706
4.53705
4.5075
4.45383
4.38496
4.33214
4.31514
4.30655
4.31206
4.3323
4.33025
4.31224
4.29233
4.26232
4.20693
4.13291
4.08367
4.06785
4.05855
4.06196
4.09418
4.12002
4.1101
4.09191
4.06323
4.0072
3.9211
3.85851
3.83701
3.827
3.82237
3.83531
3.85918
3.8572
3.84273
3.8256
3.79357
3.73594
3.67713
3.65094
3.64078
3.63379
3.62926
3.61917
3.6069
3.59299
3.5705
3.53095
3.4911
3.4762
3.46953
3.46848
3.48298
3.49129
3.48072
3.46797
3.45077
3.41324
3.36257
3.33787
3.33062
3.32755
3.33508
3.34086
3.33214
3.3178
3.29395
3.24782
3.18565
3.15008
3.14047
3.13537
3.13356
3.14497
3.15946
3.15405
3.14279
3.1266
3.09456
3.04786
3.01304
3.00206
2.99701
2.99687
3.00937
3.0138
3.00643
2.99551
2.97452
2.92782
2.87099
2.84456
2.83777
2.83345
2.83439
2.85847
2.87876
2.8736
2.8659
2.85282
2.82327
2.78084
2.75352
2.74173
2.73284
2.72723
2.72728
2.72476
2.71776
2.71125
2.69955
2.67464
2.64288
2.62266
2.61509
2.60952
2.60623
2.60328
2.59758
2.59004
2.57974
2.55928
2.53117
2.51452
2.50747
2.50187
2.49774
2.49685
2.50199
2.50608
2.5041
2.49635
2.48403
2.45815
2.41964
2.39647
2.38919
2.38468
2.38153
2.38193
2.39335
2.40684
2.40698
2.40243
2.39288
2.37035
2.32848
2.29342
2.27969
2.27416
2.27012
2.26658
2.26431
2.26505
2.26864
2.26856
2.26595
2.2616
2.25317
2.2394
2.22723
2.22086
2.21737
2.21592
2.21378
2.21006
2.20403
2.1887
2.16285
2.14639
2.14205
2.13997
2.13929
2.14281
2.15489
2.16554
2.16529
2.15953
2.14932
2.134
2.11632
2.10278
2.09735
2.09572
2.09486
2.0974
2.10874
2.11971
2.11899
2.11413
2.10333
2.08005
2.05392
2.04196
2.0379
2.03584
2.0353
2.04156
2.05895
6.12219
6.1733
6.18587
6.151
6.08953
5.98182
5.85571
5.78241
5.75653
5.75712
5.79388
5.81652
5.79791
5.76918
5.72409
5.65694
5.59853
5.56452
5.53032
5.49151
5.45462
5.42342
5.39852
5.37926
5.3636
5.34345
5.31418
5.25607
5.18009
5.131
5.10891
5.09661
5.10922
5.14262
5.13848
5.10915
5.0532
4.95605
4.87317
4.83935
4.82475
4.82281
4.85017
4.86895
4.85365
4.82489
4.77111
4.6949
4.6245
4.59166
4.57809
4.57944
4.60058
4.60011
4.58012
4.55047
4.49251
4.42131
4.37603
4.35994
4.35013
4.35267
4.36613
4.36042
4.34246
4.32336
4.29702
4.24647
4.17473
4.11662
4.09463
4.08509
4.08716
4.1167
4.14755
4.14103
4.12346
4.10003
4.05068
3.96197
3.88724
3.85783
3.8476
3.84227
3.85325
3.88005
3.88232
3.86862
3.85456
3.82972
3.77607
3.70889
3.67127
3.66107
3.6553
3.6547
3.6474
3.63538
3.62196
3.60207
3.56594
3.5262
3.50723
3.49931
3.49542
3.50319
3.51604
3.50887
3.49502
3.47453
3.43642
3.39031
3.35692
3.34646
3.34218
3.35038
3.36257
3.35597
3.34512
3.32841
3.28765
3.22039
3.17109
3.1516
3.14505
3.14185
3.15265
3.1756
3.17575
3.16758
3.15617
3.12719
3.07185
3.03016
3.01791
3.01364
3.01238
3.02279
3.03224
3.02576
3.01571
3.00294
2.97108
2.91959
2.88052
2.86587
2.85796
2.85385
2.85831
2.87327
2.8732
2.86616
2.85662
2.83601
2.79393
2.7626
2.75541
2.75286
2.75327
2.75314
2.74733
2.73832
2.72677
2.71053
2.68885
2.6647
2.64102
2.6309
2.62425
2.61753
2.61066
2.60383
2.59832
2.59245
2.57829
2.55586
2.53876
2.52893
2.52156
2.51719
2.51422
2.50978
2.5036
2.49501
2.4872
2.4786
2.46425
2.44331
2.42233
2.41044
2.40279
2.39685
2.39351
2.39467
2.40302
2.40579
2.40247
2.39569
2.38569
2.36399
2.32703
2.29465
2.27901
2.27175
2.26757
2.26461
2.26267
2.26331
2.26596
2.26669
2.26617
2.26442
2.26096
2.2542
2.24013
2.22334
2.21214
2.20704
2.20433
2.19955
2.18971
2.16752
2.14534
2.13871
2.13598
2.13444
2.1356
2.14674
2.16418
2.1692
2.1665
2.16074
2.14722
2.1214
2.09522
2.0856
2.0828
2.08108
2.08102
2.08838
2.10777
2.11706
2.11513
2.11009
2.10045
2.07801
2.04545
2.03026
2.02705
2.02547
2.02547
2.03408
2.05069
6.2655
6.24965
6.20313
6.12485
6.01089
5.90461
5.84817
5.82596
5.82407
5.85009
5.85938
5.83717
5.81068
5.77616
5.72569
5.66979
5.62486
5.58185
5.53721
5.49137
5.45516
5.43172
5.41749
5.40854
5.38937
5.36514
5.31588
5.24007
5.16975
5.13997
5.12912
5.14804
5.18401
5.17741
5.15262
5.1021
5.01815
4.92602
4.87282
4.85324
4.84865
4.87884
4.90955
4.89634
4.86885
4.81252
4.72472
4.66027
4.63519
4.62132
4.61974
4.6374
4.63856
4.61931
4.59279
4.54209
4.47296
4.41291
4.39197
4.3821
4.38385
4.39716
4.39225
4.37482
4.35602
4.33145
4.28624
4.22187
4.16166
4.13742
4.12649
4.12419
4.14502
4.17219
4.1652
4.14802
4.12797
4.08614
4.01153
3.93055
3.89148
3.87929
3.87125
3.87516
3.89914
3.90458
3.89148
3.877
3.85422
3.81048
3.75024
3.70462
3.69057
3.68227
3.67921
3.67304
3.66167
3.65034
3.63304
3.59545
3.55261
3.5333
3.52656
3.52314
3.53115
3.54101
3.53306
3.52052
3.50394
3.46515
3.40764
3.37386
3.36482
3.36072
3.36388
3.3797
3.3796
3.37075
3.35525
3.32086
3.26061
3.20509
3.18114
3.17237
3.16645
3.16801
3.18663
3.19124
3.18158
3.16979
3.1484
3.10732
3.06013
3.03591
3.0293
3.02535
3.03053
3.04431
3.04128
3.03347
3.02324
2.99829
2.95337
2.91336
2.89868
2.89029
2.88439
2.88564
2.88919
2.8822
2.87225
2.86149
2.84068
2.80754
2.77713
2.76637
2.76264
2.76189
2.76885
2.76864
2.76135
2.75195
2.73777
2.71012
2.67613
2.65656
2.65026
2.64501
2.63758
2.62849
2.61893
2.60948
2.59845
2.58437
2.56918
2.55225
2.54578
2.54218
2.53957
2.53768
2.53195
2.52198
2.51013
2.49863
2.48136
2.4593
2.43715
2.42694
2.42437
2.4206
2.41782
2.41702
2.41647
2.41339
2.40744
2.39884
2.38938
2.37974
2.36678
2.34758
2.32692
2.30921
2.292
2.27644
2.26943
2.26692
2.26684
2.27082
2.27406
2.27423
2.27168
2.26808
2.264
2.25843
2.24861
2.23226
2.21396
2.20067
2.19266
2.18462
2.17017
2.15027
2.13885
2.13476
2.13217
2.13114
2.13669
2.15473
2.17029
2.16949
2.16525
2.15758
2.13994
2.10578
2.08131
2.0755
2.07303
2.07095
2.07142
2.07984
2.09621
2.10376
2.10298
2.1003
2.09405
2.07592
2.04418
2.0253
2.02051
2.01886
2.01929
2.02733
2.03928
6.31189
6.25644
6.16621
6.0493
5.95576
5.90495
5.88592
5.88789
5.91029
5.90775
5.88173
5.85344
5.82081
5.78156
5.73903
5.68498
5.61895
5.56599
5.53065
5.50569
5.48605
5.47656
5.46483
5.44349
5.41227
5.35322
5.27786
5.22092
5.19675
5.18379
5.19718
5.23294
5.22898
5.1982
5.13845
5.04338
4.95677
4.92153
4.90509
4.89942
4.92529
4.95034
4.93652
4.90782
4.85442
4.77743
4.70234
4.66472
4.65024
4.6497
4.67164
4.67796
4.65933
4.63171
4.5791
4.51187
4.46019
4.44093
4.4296
4.42761
4.43217
4.42225
4.40484
4.38675
4.3648
4.3229
4.25894
4.20175
4.17686
4.16523
4.16052
4.17518
4.19996
4.19518
4.17838
4.15836
4.1184
4.04652
3.96437
3.92502
3.91242
3.90425
3.90592
3.92612
3.93196
3.91786
3.90166
3.88098
3.83797
3.77149
3.73072
3.71927
3.71355
3.71228
3.70587
3.69328
3.67894
3.65782
3.62535
3.5892
3.56042
3.55063
3.54416
3.54596
3.56212
3.56145
3.54866
3.53214
3.49692
3.44577
3.40302
3.3838
3.37662
3.37516
3.38818
3.38882
3.3778
3.36628
3.34537
3.2945
3.23249
3.20639
3.19946
3.19509
3.19796
3.21279
3.21382
3.20316
3.18887
3.16418
3.12384
3.08032
3.05831
3.0521
3.04827
3.05117
3.0611
3.05703
3.04699
3.03581
3.01694
2.9803
2.93892
2.92091
2.9152
2.91244
2.91646
2.91812
2.90976
2.89768
2.88214
2.85265
2.80882
2.77971
2.77143
2.76934
2.77324
2.78295
2.78277
2.77641
2.76916
2.75957
2.73817
2.70232
2.67129
2.65908
2.65417
2.65127
2.64617
2.63913
2.63008
2.61865
2.60005
2.57407
2.56023
2.55608
2.55255
2.55105
2.55281
2.5521
2.54628
2.53682
2.52181
2.49485
2.46135
2.4382
2.42706
2.42245
2.42031
2.42337
2.43194
2.43491
2.43184
2.42533
2.41474
2.40113
2.38293
2.36276
2.34282
2.32872
2.32147
2.31654
2.30949
2.29772
2.28173
2.27263
2.26948
2.2673
2.26555
2.26371
2.26189
2.25941
2.2557
2.25195
2.24776
2.23992
2.22466
2.20373
2.18239
2.16443
2.15019
2.13989
2.1348
2.13206
2.13043
2.13243
2.14599
2.16385
2.16416
2.1614
2.1581
2.1508
2.12935
2.09557
2.0764
2.0704
2.06775
2.06615
2.06687
2.07572
2.08735
2.0893
2.08752
2.08493
2.08073
2.06999
2.04791
2.02551
2.01757
2.01516
2.01525
2.02354
2.03059
6.29992
6.20236
6.09286
6.01455
5.97117
5.94995
5.94377
5.95766
5.95751
5.93207
5.90455
5.87591
5.84312
5.79964
5.73574
5.66178
5.597
5.55582
5.53149
5.51766
5.52485
5.52826
5.50659
5.47131
5.40422
5.31605
5.25185
5.22553
5.21588
5.23726
5.27662
5.27187
5.24432
5.1903
5.09269
4.9931
4.9427
4.92436
4.92385
4.96251
4.9988
4.98594
4.95383
4.89262
4.8013
4.73717
4.71183
4.69787
4.69612
4.71381
4.71744
4.69852
4.67147
4.62013
4.55276
4.49633
4.47537
4.46595
4.4659
4.4685
4.4568
4.43946
4.42048
4.39628
4.35582
4.30223
4.24536
4.21286
4.20054
4.19412
4.20415
4.22793
4.22408
4.20718
4.18943
4.1557
4.08828
4.00103
3.95074
3.93532
3.92692
3.92715
3.94757
3.96109
3.94992
3.93377
3.91285
3.87096
3.80909
3.75812
3.73597
3.7278
3.72648
3.73344
3.7264
3.71354
3.6963
3.66378
3.61471
3.58524
3.57757
3.57241
3.57357
3.58578
3.58338
3.57124
3.55952
3.53104
3.47646
3.42785
3.41017
3.40232
3.397
3.40243
3.41035
3.40298
3.38957
3.36438
3.31908
3.26459
3.2291
3.21863
3.21265
3.21366
3.23088
3.23959
3.23092
3.21852
3.19728
3.15158
3.09669
3.06934
3.06211
3.05888
3.06271
3.07711
3.07734
3.06857
3.0596
3.03973
3.00056
2.96064
2.94194
2.93625
2.93434
2.94268
2.94944
2.94222
2.92938
2.91193
2.87876
2.82917
2.79354
2.77896
2.77327
2.76988
2.77808
2.79476
2.79204
2.78486
2.77813
2.76231
2.73051
2.69682
2.68238
2.67605
2.66936
2.66114
2.65263
2.64513
2.63745
2.62333
2.59766
2.57325
2.56457
2.56042
2.55787
2.56057
2.56413
2.56115
2.55528
2.54558
2.52167
2.47902
2.44681
2.43359
2.42878
2.42522
2.42396
2.43323
2.44658
2.44609
2.44192
2.43587
2.42441
2.3994
2.36586
2.34253
2.33064
2.32377
2.32031
2.31899
2.31742
2.3132
2.30454
2.28672
2.27114
2.2653
2.26199
2.25906
2.25687
2.25578
2.25297
2.24934
2.24568
2.24124
2.232
2.20838
2.17181
2.1483
2.13966
2.13618
2.13342
2.13131
2.13163
2.14045
2.15442
2.15559
2.15234
2.14899
2.14514
2.13677
2.1157
2.08917
2.07544
2.06875
2.06475
2.06346
2.06725
2.07599
2.07725
2.07462
2.07206
2.06928
2.06488
2.05862
2.04948
2.03643
2.02343
2.01716
2.01556
2.01778
2.01969
6.23444
6.13561
6.07246
6.03892
6.01943
6.00834
6.00146
5.99421
5.97965
5.95555
5.93041
5.90313
5.86445
5.79511
5.69981
5.62671
5.59403
5.57306
5.5639
5.57802
5.58218
5.56034
5.52701
5.46349
5.37445
5.3006
5.27289
5.26238
5.28328
5.32465
5.32018
5.29036
5.23184
5.14152
5.04376
4.9928
4.97382
4.96938
5.00071
5.0355
5.02322
4.99619
4.94291
4.85749
4.77746
4.7392
4.72512
4.72721
4.75284
4.75781
4.73885
4.71092
4.65874
4.59123
4.53736
4.51723
4.50722
4.50594
4.5052
4.49193
4.47482
4.45611
4.43418
4.39491
4.33348
4.27723
4.25063
4.23928
4.23236
4.23889
4.25912
4.25551
4.23828
4.21908
4.18643
4.1266
4.04425
3.98619
3.96722
3.95825
3.95622
3.97257
3.98737
3.97689
3.96108
3.94235
3.90516
3.84157
3.78499
3.76103
3.75247
3.74835
3.75345
3.74866
3.73742
3.72741
3.70737
3.66537
3.62024
3.60266
3.59346
3.589
3.59852
3.60501
3.59561
3.58332
3.55825
3.51458
3.46334
3.43289
3.42418
3.42038
3.42575
3.42432
3.41226
3.398
3.37876
3.33663
3.27661
3.24825
3.24122
3.23726
3.23862
3.25386
3.26103
3.25242
3.23999
3.22126
3.18542
3.13413
3.09454
3.08084
3.07448
3.07186
3.0821
3.09118
3.08608
3.07842
3.06136
3.02553
2.97943
2.9554
2.94997
2.94823
2.95832
2.97357
2.97012
2.95974
2.94425
2.91328
2.86275
2.81579
2.79238
2.7858
2.78104
2.77964
2.78894
2.79994
2.79999
2.79387
2.77946
2.75075
2.71635
2.70127
2.69617
2.69147
2.68509
2.67686
2.66744
2.65571
2.63913
2.61628
2.5926
2.57979
2.57441
2.57109
2.57041
2.57335
2.57177
2.56701
2.56198
2.54908
2.5147
2.46864
2.44288
2.43639
2.43272
2.43067
2.43494
2.4496
2.45417
2.45122
2.44688
2.44063
2.42465
2.38756
2.35142
2.33541
2.32921
2.32533
2.32365
2.32558
2.32432
2.32074
2.31615
2.30541
2.28308
2.2654
2.25836
2.25477
2.25171
2.24989
2.2522
2.25252
2.24821
2.24255
2.23187
2.20443
2.16606
2.14508
2.13906
2.13532
2.13241
2.13136
2.13817
2.15244
2.15351
2.14923
2.14526
2.14054
2.13285
2.11831
2.09774
2.08448
2.07903
2.07418
2.06863
2.06591
2.06751
2.06773
2.06493
2.06168
2.05831
2.05408
2.04879
2.0449
2.04295
2.03971
2.03549
2.02855
2.01947
2.01282
2.00925
6.18332
6.12916
6.10204
6.08519
6.07322
6.05814
6.04008
6.02344
6.00681
5.98228
5.95533
5.91645
5.84733
5.75358
5.66632
5.62476
5.60474
5.60202
5.63018
5.64695
5.62659
5.58227
5.50182
5.40441
5.34677
5.32259
5.31002
5.32852
5.37145
5.36962
5.34118
5.28431
5.1781
5.07574
5.03475
5.01739
5.01434
5.04651
5.07955
5.06644
5.03352
4.97412
4.8873
4.81761
4.78897
4.7746
4.77401
4.79556
4.79908
4.77993
4.75136
4.6968
4.62663
4.57401
4.55334
4.54325
4.54139
4.54
4.52667
4.51008
4.49167
4.46776
4.42897
4.37714
4.32174
4.28217
4.26834
4.25922
4.26148
4.28202
4.28478
4.2697
4.25315
4.22729
4.17199
4.08007
4.01539
3.99471
3.986
3.98168
3.99367
4.01459
4.00843
3.99302
3.97672
3.94405
3.88473
3.8229
3.78826
3.7779
3.77224
3.77478
3.77187
3.76047
3.74775
3.72838
3.69367
3.65484
3.63782
3.62982
3.62559
3.62967
3.62636
3.61292
3.59833
3.57762
3.53758
3.48921
3.46266
3.45346
3.4478
3.45037
3.4504
3.43963
3.42585
3.40252
3.35822
3.30202
3.266
3.25342
3.24771
3.24891
3.27013
3.28574
3.27873
3.26585
3.24772
3.21167
3.16062
3.12109
3.10653
3.09999
3.09664
3.10186
3.10369
3.09529
3.0843
3.06903
3.04289
3.00641
2.97611
2.96689
2.96241
2.96624
2.98641
2.99191
2.98377
2.97243
2.95125
2.90418
2.84707
2.81686
2.80733
2.80057
2.79642
2.79931
2.80254
2.79583
2.78897
2.7799
2.76368
2.73822
2.71645
2.71024
2.70613
2.70319
2.69793
2.69083
2.68135
2.66612
2.63812
2.60921
2.59597
2.58911
2.58296
2.58018
2.58252
2.5829
2.57785
2.57218
2.56159
2.5402
2.50124
2.46721
2.45398
2.44666
2.44227
2.44128
2.45114
2.45889
2.45521
2.45155
2.4487
2.44022
2.41667
2.37674
2.3474
2.3386
2.3338
2.33029
2.33141
2.33537
2.33223
2.32754
2.32225
2.31392
2.29798
2.27399
2.25836
2.25231
2.24903
2.2461
2.24362
2.24187
2.23827
2.23284
2.2233
2.19943
2.16369
2.14803
2.14282
2.13857
2.13565
2.13703
2.14857
2.15357
2.14927
2.14451
2.1404
2.13339
2.11807
2.09608
2.08268
2.07908
2.07748
2.07711
2.07658
2.07353
2.06855
2.06245
2.0562
2.05061
2.04478
2.03876
2.03561
2.03412
2.03383
2.03821
2.04133
2.03852
2.02829
2.01114
1.99833
6.1948
6.17097
6.15402
6.1368
6.11535
6.09197
6.07199
6.06013
6.0437
6.01615
5.96954
5.88762
5.77498
5.69707
5.66473
5.6456
5.64496
5.68039
5.70456
5.68527
5.64547
5.56729
5.45599
5.37874
5.34817
5.33799
5.365
5.41492
5.41415
5.38656
5.33209
5.24162
5.13552
5.06969
5.04838
5.0447
5.08166
5.12399
5.11224
5.08058
5.01999
4.92527
4.84996
4.81623
4.80396
4.80854
4.83593
4.84
4.8208
4.79212
4.73911
4.66924
4.61214
4.58884
4.57775
4.57372
4.57184
4.5599
4.54463
4.52801
4.50842
4.47346
4.41239
4.35096
4.31855
4.30678
4.29838
4.29841
4.31206
4.31068
4.29415
4.27746
4.25677
4.2137
4.13678
4.06107
4.0239
4.01171
4.0036
4.0073
4.02922
4.03183
4.01995
4.00695
3.9825
3.93164
3.86176
3.81971
3.80814
3.80144
3.80217
3.79777
3.78535
3.77282
3.75845
3.72389
3.68154
3.65832
3.65092
3.64811
3.65592
3.65608
3.64421
3.62961
3.60526
3.56205
3.51439
3.4828
3.47341
3.47017
3.47739
3.47844
3.467
3.45238
3.42997
3.38526
3.31987
3.28014
3.26718
3.262
3.2609
3.2769
3.30203
3.30075
3.29112
3.27873
3.24894
3.19159
3.14205
3.12353
3.1176
3.11493
3.12099
3.12382
3.1156
3.10572
3.09215
3.06053
3.01443
2.99016
2.98364
2.97967
2.98051
2.99678
3.00774
3.00147
2.99217
2.97797
2.94284
2.88511
2.84199
2.8296
2.82362
2.82136
2.82164
2.81666
2.80775
2.8002
2.78657
2.76109
2.7363
2.72791
2.72499
2.72401
2.72411
2.72071
2.71429
2.7057
2.69329
2.67019
2.63665
2.61322
2.60736
2.60355
2.59994
2.59558
2.5901
2.58259
2.5722
2.55996
2.54287
2.51707
2.48983
2.47759
2.47217
2.46639
2.46199
2.46227
2.4672
2.46364
2.45877
2.45461
2.44721
2.43131
2.40051
2.36814
2.35419
2.34897
2.34517
2.34217
2.33887
2.33425
2.32901
2.32324
2.31759
2.31269
2.30645
2.29235
2.26851
2.25343
2.24753
2.24369
2.24063
2.23714
2.23254
2.22586
2.21427
2.19394
2.16886
2.15423
2.14818
2.14473
2.14295
2.14711
2.15482
2.15236
2.14828
2.14454
2.1379
2.12384
2.09847
2.08139
2.07733
2.07555
2.07525
2.0788
2.08004
2.07675
2.0709
2.06253
2.05048
2.03821
2.03063
2.02773
2.0263
2.02596
2.0293
2.03964
2.04336
2.04099
2.03303
2.01253
1.98981
6.22947
6.21884
6.19921
6.1742
6.14855
6.1259
6.11168
6.09496
6.06613
6.02298
5.94752
5.83098
5.7341
5.69021
5.67224
5.68227
5.73366
5.75857
5.73923
5.69619
5.61582
5.50821
5.43339
5.40506
5.39194
5.41153
5.45932
5.45939
5.43144
5.3757
5.27356
5.16786
5.12355
5.10618
5.10052
5.12949
5.16337
5.15157
5.12226
5.06503
4.97689
4.89509
4.85969
4.84629
4.84815
4.87468
4.87958
4.86076
4.83304
4.77965
4.70786
4.65236
4.62869
4.61649
4.61034
4.60512
4.59177
4.57569
4.55862
4.54232
4.51227
4.4613
4.40054
4.35184
4.33448
4.32405
4.32069
4.33245
4.33426
4.32167
4.30872
4.28973
4.25088
4.17835
4.09956
4.06172
4.04977
4.04154
4.04299
4.05706
4.05266
4.03726
4.02046
3.99835
3.96196
3.91013
3.86166
3.8431
3.83414
3.83132
3.82509
3.81249
3.79984
3.78396
3.75457
3.71684
3.68699
3.67761
3.67232
3.67608
3.67796
3.66758
3.65555
3.6349
3.59158
3.53559
3.50287
3.49278
3.48804
3.49216
3.50253
3.49605
3.48332
3.46593
3.42439
3.35752
3.30663
3.28571
3.27799
3.27323
3.2802
3.30614
3.31136
3.30222
3.29174
3.27358
3.23372
3.17909
3.14816
3.13996
3.13526
3.13767
3.14159
3.13421
3.12382
3.11006
3.08167
3.03786
3.00406
2.99139
2.98622
2.98599
3.00434
3.02275
3.01802
3.00806
2.99516
2.96869
2.9209
2.87442
2.85817
2.85245
2.84928
2.84649
2.83935
2.82924
2.81709
2.79774
2.76969
2.74203
2.72794
2.72313
2.72076
2.72763
2.73699
2.73395
2.72722
2.71708
2.69417
2.66096
2.63768
2.62895
2.62383
2.62028
2.61486
2.60751
2.59883
2.58895
2.57696
2.55309
2.51834
2.49367
2.48594
2.4826
2.4806
2.48155
2.48725
2.48592
2.47867
2.47072
2.4623
2.45213
2.43601
2.41141
2.38517
2.37064
2.36611
2.36167
2.35543
2.34778
2.33999
2.33397
2.32955
2.32541
2.3214
2.31717
2.31172
2.3024
2.28684
2.2663
2.25148
2.24344
2.23762
2.23219
2.22481
2.21435
2.20046
2.18798
2.17755
2.16702
2.1575
2.153
2.15292
2.15607
2.15331
2.1477
2.14218
2.13587
2.12518
2.10589
2.08666
2.0782
2.07565
2.07423
2.07619
2.08106
2.08043
2.0768
2.07174
2.06078
2.04165
2.02774
2.02264
2.01996
2.01835
2.0188
2.02893
2.04181
2.04241
2.03914
2.03211
2.01514
1.98862
6.28803
6.26046
6.22987
6.20201
6.17817
6.16394
6.14741
6.11619
6.06646
5.9839
5.86715
5.78021
5.74758
5.72998
5.74069
5.79788
5.82823
5.80674
5.75465
5.65642
5.53239
5.46688
5.44207
5.43118
5.45556
5.50617
5.50626
5.47804
5.4233
5.33249
5.22397
5.15479
5.13329
5.13112
5.17028
5.21077
5.19866
5.16521
5.10066
5.00518
4.93484
4.90497
4.89059
4.89087
4.91421
4.91697
4.89839
4.87164
4.82135
4.75283
4.69386
4.6672
4.65502
4.64832
4.64123
4.62659
4.6096
4.59425
4.57659
4.54312
4.49536
4.44057
4.39779
4.38049
4.36786
4.36171
4.3649
4.35794
4.34048
4.32264
4.30577
4.27816
4.2201
4.14234
4.09247
4.07692
4.06851
4.06901
4.08314
4.08228
4.06783
4.05292
4.03329
3.99165
3.92837
3.88947
3.87843
3.87237
3.87191
3.86712
3.85313
3.83694
3.8145
3.77668
3.73316
3.70972
3.70231
3.69817
3.70082
3.70087
3.68973
3.67644
3.65847
3.62317
3.57323
3.5319
3.51545
3.50805
3.50653
3.51531
3.51159
3.50086
3.48998
3.46166
3.40094
3.33482
3.30727
3.29976
3.29484
3.29851
3.31985
3.32491
3.31482
3.30455
3.28964
3.25595
3.20592
3.1756
3.16748
3.16298
3.16499
3.16504
3.15611
3.14534
3.13133
3.10417
3.0608
3.02212
3.00529
2.99909
2.99574
3.0055
3.03137
3.03375
3.02476
3.01592
2.99639
2.95102
2.90063
2.88146
2.87649
2.87454
2.8735
2.86746
2.85793
2.84329
2.81788
2.78348
2.75491
2.73687
2.73005
2.72599
2.72769
2.7412
2.74753
2.74386
2.73633
2.72237
2.69116
2.65532
2.64461
2.64
2.63705
2.63246
2.62604
2.61871
2.6098
2.59857
2.57335
2.53306
2.50304
2.49102
2.48693
2.48368
2.48513
2.49714
2.50109
2.49558
2.48877
2.48097
2.4704
2.44963
2.42044
2.39529
2.38137
2.3771
2.37462
2.37076
2.36406
2.35521
2.3456
2.33746
2.33031
2.32231
2.31579
2.31066
2.30574
2.30133
2.29534
2.28225
2.26099
2.24568
2.23739
2.22867
2.21732
2.20336
2.1914
2.18522
2.18248
2.1794
2.17437
2.16866
2.16304
2.15656
2.15082
2.14766
2.1425
2.13155
2.11143
2.08969
2.08124
2.07923
2.07757
2.07697
2.0795
2.08195
2.07965
2.07515
2.06858
2.05494
2.03427
2.02233
2.01821
2.01557
2.01413
2.0153
2.02359
2.03097
2.03103
2.02913
2.02599
2.01601
1.99295
6.33021
6.28964
6.25574
6.22987
6.21428
6.19992
6.16864
6.11761
6.02663
5.89816
5.81288
5.77741
5.7635
5.78669
5.85573
5.88432
5.86437
5.81804
5.72511
5.59351
5.50481
5.47139
5.46065
5.48886
5.54725
5.55022
5.52397
5.47003
5.36898
5.26159
5.21121
5.19245
5.18746
5.21674
5.25022
5.23856
5.20955
5.14966
5.05343
4.97333
4.93567
4.9228
4.9264
4.95459
4.95739
4.93803
4.90916
4.85641
4.78861
4.73551
4.71101
4.69909
4.69242
4.68335
4.66778
4.65027
4.63244
4.60517
4.56884
4.52361
4.47189
4.43069
4.41468
4.40585
4.40286
4.403
4.39338
4.37721
4.35893
4.33708
4.29901
4.24373
4.18033
4.13287
4.1162
4.10758
4.10576
4.11521
4.11183
4.096
4.0795
4.05903
4.02264
3.96803
3.91945
3.89627
3.88705
3.88566
3.8957
3.88991
3.87574
3.8569
3.82273
3.77212
3.73123
3.71744
3.71011
3.7092
3.71528
3.70956
3.70052
3.68785
3.65895
3.60493
3.5579
3.54183
3.53439
3.53164
3.53704
3.53178
3.51967
3.50812
3.48409
3.43578
3.37493
3.339
3.32683
3.31811
3.31475
3.32558
3.33941
3.33272
3.32307
3.30877
3.27783
3.22887
3.19259
3.18136
3.17687
3.18001
3.18499
3.17819
3.1687
3.15808
3.1364
3.09244
3.04397
3.01976
3.01317
3.00856
3.00994
3.02651
3.03958
3.03577
3.02774
3.01313
2.98476
2.9379
2.9032
2.89588
2.89316
2.89237
2.88746
2.88014
2.87084
2.85288
2.81545
2.77354
2.7501
2.74268
2.73762
2.73557
2.74287
2.74766
2.74209
2.73387
2.72462
2.70971
2.68574
2.66824
2.66216
2.65747
2.6519
2.64484
2.63745
2.62938
2.61906
2.59705
2.55841
2.51938
2.50076
2.49569
2.49173
2.49099
2.50184
2.51128
2.50682
2.50077
2.49449
2.48549
2.46649
2.43453
2.4065
2.39205
2.38766
2.3848
2.3819
2.37686
2.37092
2.36381
2.35495
2.34477
2.33277
2.3211
2.31396
2.30961
2.3057
2.3018
2.2972
2.29017
2.27484
2.25066
2.23138
2.21862
2.20638
2.19503
2.18905
2.18636
2.18554
2.18861
2.188
2.18246
2.17389
2.16175
2.14969
2.1409
2.13353
2.11935
2.09603
2.083
2.07972
2.07777
2.07734
2.0809
2.0851
2.08363
2.08005
2.07473
2.0653
2.04868
2.02994
2.01986
2.01598
2.01377
2.0128
2.01698
2.02507
2.02452
2.02218
2.01953
2.01602
2.0097
1.99507
6.34805
6.30847
6.28077
6.26301
6.24679
6.21601
6.16657
6.08289
5.9622
5.8624
5.82246
5.8117
5.84262
5.91972
5.94337
5.91856
5.86363
5.76456
5.63244
5.55539
5.52816
5.51455
5.5349
5.59027
5.59422
5.56719
5.51363
5.42634
5.32127
5.25091
5.22955
5.22734
5.26406
5.29613
5.28126
5.24655
5.18416
5.09532
5.01925
4.98551
4.97123
4.97148
4.99628
4.99862
4.9791
4.94896
4.89449
4.82682
4.77352
4.74859
4.73797
4.73407
4.72635
4.71042
4.69285
4.66728
4.63063
4.59327
4.5524
4.50812
4.46616
4.44676
4.43671
4.43137
4.43259
4.42539
4.40975
4.39374
4.37481
4.33964
4.27662
4.19953
4.15724
4.14346
4.13755
4.13921
4.1525
4.15103
4.13554
4.11745
4.09237
4.05057
3.99695
3.9509
3.92683
3.91688
3.91206
3.91816
3.91452
3.90301
3.89164
3.86985
3.82215
3.77005
3.7488
3.73785
3.73177
3.73028
3.72037
3.70825
3.69625
3.67666
3.64087
3.5946
3.56777
3.55767
3.55196
3.55479
3.55273
3.54054
3.52785
3.50644
3.46107
3.39571
3.36081
3.35287
3.348
3.34812
3.36007
3.36265
3.35078
3.33579
3.31626
3.2885
3.25234
3.2166
3.20168
3.19617
3.19598
3.20086
3.19464
3.18497
3.17427
3.15721
3.12383
3.07892
3.04647
3.03545
3.02862
3.02554
3.03374
3.04284
3.03653
3.02712
3.01549
2.99549
2.9635
2.93461
2.92657
2.92263
2.91914
2.91187
2.90194
2.89093
2.87647
2.84889
2.80915
2.77406
2.76074
2.75367
2.74849
2.74816
2.75536
2.75377
2.74759
2.73786
2.71917
2.6941
2.6833
2.67905
2.6764
2.67438
2.6689
2.6613
2.65185
2.63874
2.61764
2.58289
2.54154
2.51511
2.50695
2.50213
2.4997
2.50409
2.51628
2.51711
2.51261
2.50689
2.50004
2.48596
2.45483
2.42072
2.40264
2.39764
2.39433
2.39313
2.39162
2.38746
2.38195
2.37428
2.36092
2.34189
2.32554
2.31845
2.31496
2.31136
2.30748
2.30449
2.30086
2.29568
2.28509
2.26007
2.22905
2.21072
2.2004
2.19536
2.19211
2.18989
2.19184
2.19692
2.19464
2.18923
2.18233
2.17143
2.15558
2.1389
2.1228
2.10601
2.09061
2.08408
2.08159
2.07951
2.07875
2.08161
2.08187
2.07898
2.07566
2.07104
2.06042
2.04133
2.02768
2.02174
2.01803
2.01618
2.01682
2.02058
2.01992
2.01777
2.01527
2.01168
2.00603
1.99867
1.99048
6.35648
6.33008
6.31479
6.2997
6.26788
6.21667
6.12117
5.99022
5.91564
5.88641
5.87298
5.90267
5.98334
6.00841
5.98115
5.92259
5.80861
5.66546
5.58831
5.55788
5.54785
5.57489
5.63478
5.64164
5.61558
5.56203
5.46111
5.35562
5.30702
5.28909
5.28491
5.31483
5.34372
5.32915
5.29592
5.22656
5.12146
5.05266
5.02458
5.01254
5.01506
5.0403
5.04164
5.02157
4.98972
4.93313
4.86547
4.81365
4.78996
4.77955
4.77575
4.76673
4.75049
4.73285
4.70046
4.66012
4.62314
4.58635
4.54343
4.49987
4.47921
4.46888
4.46197
4.45995
4.45162
4.43653
4.41977
4.39988
4.36987
4.31864
4.24988
4.19432
4.16903
4.15864
4.15287
4.16361
4.17782
4.16833
4.15396
4.13619
4.09914
4.0344
3.97804
3.95193
3.9432
3.94
3.9455
3.94062
3.92674
3.9124
3.89289
3.85715
3.81206
3.78764
3.77846
3.77134
3.762
3.74805
3.73101
3.7123
3.68696
3.6505
3.61208
3.59501
3.58792
3.58491
3.58882
3.58377
3.5707
3.55535
3.52866
3.48251
3.42449
3.38212
3.36751
3.36084
3.35955
3.37459
3.38875
3.3816
3.36801
3.34939
3.3154
3.26394
3.22914
3.21791
3.21381
3.21425
3.21945
3.21482
3.20536
3.19577
3.18083
3.14666
3.09934
3.06981
3.0613
3.05549
3.05412
3.06035
3.05881
3.04843
3.03714
3.02529
3.00259
2.96955
2.94714
2.94166
2.94074
2.9421
2.93744
2.92952
2.91798
2.89689
2.86269
2.83034
2.80692
2.79246
2.78334
2.7781
2.77338
2.76603
2.75651
2.74405
2.73228
2.71938
2.70107
2.68605
2.68144
2.67808
2.6797
2.68444
2.68096
2.67415
2.66497
2.64882
2.61265
2.56358
2.53342
2.5241
2.51776
2.51285
2.5118
2.5205
2.52415
2.51922
2.51533
2.51166
2.50268
2.47908
2.4395
2.41294
2.40687
2.40286
2.39939
2.39835
2.39804
2.39434
2.38893
2.38089
2.36664
2.34397
2.32618
2.3193
2.31576
2.31384
2.31364
2.31167
2.30773
2.30238
2.29177
2.26829
2.22971
2.20576
2.20022
2.19798
2.19693
2.19775
2.20082
2.20229
2.20039
2.19683
2.19173
2.18323
2.16483
2.13334
2.1074
2.09544
2.08919
2.08606
2.0839
2.08251
2.08382
2.08563
2.08241
2.07817
2.0732
2.06511
2.05171
2.0366
2.0283
2.02408
2.02222
2.02262
2.02088
2.01757
2.01464
2.01233
2.00958
2.00495
1.99631
1.98682
1.98237
6.37453
6.36425
6.35145
6.3203
6.27046
6.18287
6.0589
5.96193
5.92054
5.91107
5.95203
6.03931
6.06152
6.03693
5.97976
5.87158
5.7257
5.63474
5.60269
5.59245
5.61868
5.67835
5.68511
5.66002
5.60795
5.52038
5.41676
5.34904
5.32619
5.3222
5.3561
5.3853
5.37
5.33533
5.27125
5.17793
5.09863
5.05999
5.04635
5.04925
5.08034
5.0855
5.06565
5.03386
4.97417
4.904
4.85415
4.83181
4.82153
4.81696
4.80566
4.78897
4.76803
4.73104
4.68948
4.65291
4.62099
4.58661
4.54386
4.51319
4.50038
4.48939
4.48164
4.47504
4.46189
4.44656
4.43204
4.40891
4.36184
4.28981
4.22993
4.20433
4.19373
4.18704
4.19149
4.19727
4.18583
4.17138
4.15711
4.13428
4.08908
4.02752
3.98634
3.9719
3.96324
3.96407
3.96332
3.95106
3.94035
3.92463
3.88817
3.84077
3.81404
3.8051
3.79995
3.79417
3.78246
3.76686
3.74659
3.71592
3.66943
3.62841
3.60457
3.59617
3.59218
3.60171
3.60932
3.60008
3.58672
3.56791
3.52261
3.44636
3.39746
3.38346
3.37833
3.37764
3.39134
3.40842
3.4037
3.39251
3.37898
3.35224
3.30404
3.25582
3.23135
3.22391
3.21917
3.22425
3.22859
3.22235
3.21525
3.20409
3.17658
3.12747
3.08714
3.07375
3.06865
3.06898
3.07901
3.08009
3.07102
3.05897
3.04323
3.01598
2.98341
2.95891
2.95061
2.94776
2.95237
2.956
2.95035
2.94238
2.92983
2.89444
2.84242
2.81513
2.80803
2.80466
2.80386
2.80248
2.79516
2.78352
2.7678
2.74969
2.72452
2.70001
2.68754
2.68306
2.68177
2.68534
2.69379
2.69439
2.68868
2.68144
2.67106
2.64593
2.59723
2.55381
2.54071
2.53583
2.53081
2.52739
2.52991
2.5331
2.52755
2.52087
2.51487
2.50718
2.49128
2.46371
2.43466
2.42035
2.41397
2.40889
2.40426
2.39978
2.39532
2.39174
2.38862
2.38369
2.37255
2.35449
2.33763
2.32651
2.32023
2.31527
2.31006
2.30464
2.30005
2.29614
2.29067
2.27466
2.24101
2.21307
2.2039
2.19918
2.19582
2.19403
2.19739
2.20579
2.20624
2.20232
2.19719
2.1884
2.16509
2.12632
2.10151
2.09281
2.08912
2.08706
2.08668
2.08858
2.08809
2.08517
2.08087
2.07512
2.06591
2.05241
2.03993
2.03543
2.03232
2.03031
2.03018
2.02724
2.02245
2.01716
2.01239
2.00873
2.0045
1.99676
1.98643
1.97986
1.97696
6.41558
6.40931
6.37858
6.3262
6.22571
6.09104
6.01791
5.98903
5.97784
6.01442
6.10073
6.12068
6.08988
6.02555
5.90716
5.75987
5.6879
5.6602
5.64679
5.66832
5.72802
5.73618
5.70827
5.65377
5.55591
5.45011
5.40076
5.38226
5.37628
5.40365
5.43227
5.41653
5.38014
5.30866
5.20277
5.13475
5.10837
5.09513
5.09459
5.1204
5.12525
5.1065
5.07648
5.01952
4.94762
4.89481
4.87308
4.86293
4.85787
4.84386
4.82465
4.79946
4.75871
4.71583
4.68053
4.65169
4.62434
4.59085
4.55594
4.53822
4.52545
4.51362
4.50021
4.48374
4.46715
4.45355
4.43148
4.39444
4.33567
4.27506
4.23917
4.22635
4.21857
4.22029
4.2241
4.21252
4.19726
4.18306
4.15921
4.11657
4.06523
4.0299
4.01697
4.00866
4.00318
3.99201
3.97573
3.95758
3.93706
3.91086
3.87495
3.83971
3.82817
3.82099
3.81704
3.80771
3.79542
3.77999
3.75405
3.70721
3.65654
3.62365
3.61257
3.60653
3.6114
3.62177
3.61465
3.60338
3.59278
3.56466
3.50479
3.43572
3.40288
3.39301
3.38626
3.39033
3.41516
3.42133
3.41392
3.40481
3.38614
3.34512
3.29219
3.26137
3.25023
3.24269
3.24106
3.23913
3.23032
3.22035
3.20937
3.19216
3.15909
3.11717
3.09718
3.09061
3.08733
3.09335
3.09724
3.08923
3.07887
3.06539
3.03917
2.99962
2.97079
2.9613
2.95756
2.95941
2.96686
2.96208
2.95501
2.94845
2.92664
2.88065
2.83636
2.82081
2.8153
2.81317
2.82002
2.82062
2.81335
2.80294
2.78486
2.74981
2.70989
2.69112
2.68434
2.67929
2.67816
2.69378
2.70477