/*--------------------------------*- C++ -*----------------------------------*\
  =========                 |
  \\      /  F ield         | OpenFOAM: The Open Source CFD Toolbox
   \\    /   O peration     | Website:  https://openfoam.org
    \\  /    A nd           | Version:  7
     \\/     M anipulation  |
\*---------------------------------------------------------------------------*/
FoamFile
{
    version     2.0;
    format      ascii;
    class       volScalarField;
    location    "3.3";
    object      rho;
}
// * * * * * * * * * * * * * * * * * * * * * * * * * * * * * * * * * * * * * //

dimensions      [1 -3 0 0 0 0 0];

internalField   nonuniform List<scalar> 
16192
(
4.23814
4.23764
4.26256
4.28597
4.27496
4.24863
4.19565
4.12812
4.09477
4.08315
4.0812
4.09903
4.11338
4.10406
4.08724
4.05873
4.01886
3.99204
3.98201
3.97251
3.96109
3.94544
3.92525
3.90616
3.89388
3.88411
3.87326
3.85944
3.83518
3.80183
3.76996
3.75719
3.75201
3.75979
3.7761
3.77229
3.75739
3.73012
3.69192
3.65151
3.63024
3.6217
3.619
3.63021
3.63914
3.63098
3.61699
3.58939
3.54677
3.51521
3.50386
3.4991
3.50145
3.51147
3.50805
3.49777
3.48185
3.45266
3.41478
3.38599
3.37751
3.37342
3.37707
3.38952
3.38909
3.3804
3.3707
3.35526
3.32554
3.28486
3.25764
3.24998
3.24596
3.24872
3.2684
3.2839
3.27885
3.26945
3.25408
3.22293
3.17407
3.13831
3.1267
3.12198
3.1202
3.12871
3.144
3.1436
3.13664
3.12775
3.11012
3.07729
3.04298
3.02808
3.02299
3.01968
3.01775
3.01241
3.00561
2.99769
2.98475
2.96178
2.93838
2.92999
2.9263
2.92586
2.935
2.94028
2.93429
2.92705
2.91725
2.89508
2.8644
2.84955
2.84537
2.84355
2.84818
2.85171
2.84639
2.83759
2.82289
2.79457
2.75621
2.73418
2.72844
2.72541
2.72435
2.73149
2.74056
2.73731
2.73045
2.72037
2.70052
2.67145
2.64963
2.64287
2.63974
2.63966
2.64759
2.65049
2.64594
2.63915
2.62589
2.59645
2.56047
2.54377
2.53952
2.53675
2.53732
2.55261
2.5655
2.5623
2.55751
2.5493
2.53059
2.50359
2.48605
2.47851
2.47278
2.4692
2.46929
2.46772
2.46329
2.4592
2.45193
2.43621
2.416
2.40348
2.39924
2.39616
2.39447
2.39281
2.3892
2.38396
2.37658
2.36267
2.34391
2.33291
2.32832
2.32472
2.32218
2.32178
2.32561
2.32875
2.32792
2.32354
2.31566
2.29817
2.27179
2.25585
2.25078
2.24767
2.2456
2.24599
2.25415
2.26364
2.26406
2.2618
2.25637
2.24205
2.21424
2.19069
2.18158
2.17792
2.17532
2.17307
2.17159
2.17211
2.17453
2.17445
2.17269
2.16981
2.16421
2.15499
2.14702
2.14302
2.14076
2.14003
2.13896
2.13693
2.13345
2.12358
2.10625
2.0954
2.09281
2.09162
2.0913
2.0939
2.10263
2.11017
2.11007
2.10633
2.09958
2.08924
2.07716
2.06807
2.06471
2.06386
2.06347
2.06556
2.07392
2.08178
2.08146
2.0785
2.07127
2.05499
2.03651
2.02821
2.02553
2.02427
2.02401
2.02871
2.04131
4.28571
4.3132
4.31994
4.30393
4.27488
4.22223
4.15863
4.12214
4.10982
4.11054
4.12993
4.14177
4.13248
4.11812
4.09552
4.06182
4.03286
4.01608
3.99901
3.97976
3.96142
3.94611
3.93412
3.92514
3.91782
3.90763
3.89234
3.86288
3.82376
3.79767
3.78656
3.78106
3.78828
3.80696
3.80531
3.791
3.76363
3.71378
3.66983
3.65183
3.64438
3.64361
3.6587
3.66898
3.66046
3.64495
3.61703
3.57738
3.54074
3.52526
3.52011
3.52209
3.53589
3.53665
3.52687
3.51119
3.47992
3.44066
3.41558
3.40752
3.40296
3.40488
3.41328
3.41081
3.40203
3.39261
3.37911
3.35219
3.31271
3.28057
3.26962
3.26529
3.26708
3.28512
3.3036
3.30046
3.29139
3.27904
3.25185
3.20149
3.15838
3.14219
3.13729
3.13496
3.14213
3.15899
3.16098
3.15427
3.14718
3.13395
3.10347
3.06417
3.04259
3.03729
3.03447
3.03472
3.03108
3.02448
3.0168
3.00526
2.98422
2.96077
2.94994
2.94556
2.94341
2.9483
2.95637
2.95235
2.94445
2.93257
2.91001
2.88226
2.86208
2.85586
2.85327
2.85827
2.86573
2.86166
2.85489
2.84451
2.81951
2.77816
2.74776
2.73582
2.73186
2.72994
2.73675
2.75114
2.75135
2.74639
2.73937
2.7215
2.68708
2.66094
2.65334
2.65072
2.64996
2.65657
2.6626
2.65867
2.65248
2.64445
2.6245
2.59211
2.56748
2.55834
2.55338
2.55081
2.55371
2.56332
2.56326
2.55873
2.55274
2.53968
2.51275
2.49269
2.48821
2.4867
2.48703
2.48701
2.48341
2.47773
2.47045
2.46001
2.44625
2.431
2.41604
2.41016
2.40648
2.40269
2.39864
2.39433
2.39062
2.38662
2.37711
2.3621
2.35056
2.34387
2.33892
2.33616
2.33444
2.33183
2.32818
2.32307
2.31851
2.31338
2.30401
2.28976
2.27519
2.26661
2.26116
2.257
2.25468
2.25548
2.26145
2.26382
2.26242
2.25908
2.25326
2.23915
2.21426
2.19238
2.18206
2.1774
2.17472
2.17283
2.17172
2.17234
2.17439
2.17503
2.17484
2.17386
2.17168
2.1672
2.15755
2.1463
2.13899
2.13571
2.13421
2.13148
2.1254
2.11072
2.09599
2.09198
2.09051
2.08976
2.0907
2.09884
2.11108
2.11448
2.11265
2.10887
2.09976
2.08194
2.0638
2.05741
2.0558
2.05496
2.05518
2.06103
2.07518
2.08185
2.08065
2.07741
2.07088
2.05521
2.03222
2.02143
2.01925
2.01829
2.01844
2.02499
2.03716
4.36382
4.35638
4.33478
4.29739
4.24155
4.18794
4.16009
4.14991
4.14949
4.16334
4.16823
4.15708
4.1438
4.12665
4.10163
4.07345
4.0512
4.0302
4.00805
3.98495
3.96696
3.95591
3.94958
3.94574
3.93615
3.92372
3.89877
3.85976
3.82317
3.80835
3.80332
3.8139
3.83411
3.83114
3.81903
3.79418
3.75114
3.70276
3.67515
3.66557
3.66345
3.67993
3.69631
3.68893
3.67411
3.64489
3.59888
3.56476
3.5527
3.54755
3.54831
3.56035
3.56236
3.55354
3.54005
3.51268
3.47456
3.44158
3.43088
3.42598
3.42737
3.43563
3.43354
3.425
3.41564
3.40288
3.3787
3.34359
3.3103
3.29789
3.29288
3.29219
3.30506
3.32148
3.31799
3.30909
3.29852
3.27551
3.23315
3.18688
3.16507
3.15887
3.15489
3.15767
3.17263
3.17639
3.16983
3.16249
3.15037
3.12576
3.09098
3.0645
3.0568
3.05233
3.05089
3.04767
3.04128
3.03478
3.02476
3.00279
2.97755
2.96644
2.96271
2.96087
2.96591
2.97212
2.96764
2.9605
2.95084
2.92782
2.89318
2.87289
2.8676
2.86518
2.86711
2.87667
2.87655
2.871
2.8614
2.84033
2.80342
2.7692
2.7545
2.74921
2.74565
2.7467
2.75845
2.76142
2.75557
2.74842
2.73533
2.7099
2.68044
2.66535
2.6613
2.65886
2.66216
2.67092
2.66908
2.66424
2.65796
2.64255
2.61452
2.58929
2.58016
2.57496
2.57137
2.57229
2.5747
2.57037
2.56411
2.55725
2.54398
2.52281
2.50329
2.49638
2.49411
2.49372
2.49842
2.49841
2.4939
2.48801
2.47887
2.46126
2.43959
2.42718
2.42368
2.42087
2.41664
2.41135
2.4056
2.39971
2.39256
2.38334
2.37326
2.36174
2.35713
2.35452
2.35269
2.35151
2.34806
2.34208
2.33493
2.32782
2.31673
2.3022
2.28755
2.28043
2.27827
2.27518
2.27276
2.27201
2.27153
2.26949
2.26589
2.26102
2.25588
2.25054
2.2426
2.23
2.21624
2.20442
2.19276
2.18222
2.17745
2.17576
2.17567
2.17843
2.18093
2.18124
2.17993
2.17789
2.17538
2.17173
2.16512
2.15397
2.14166
2.13292
2.12783
2.1228
2.11343
2.10025
2.09296
2.09066
2.08927
2.08878
2.09315
2.10603
2.1166
2.11606
2.11313
2.10787
2.09571
2.07202
2.0552
2.05143
2.04999
2.04897
2.04966
2.05641
2.06848
2.07399
2.07359
2.07196
2.06771
2.05492
2.03255
2.01941
2.01611
2.01504
2.01548
2.02167
2.0306
4.39199
4.3662
4.32291
4.26519
4.21825
4.19374
4.18523
4.18676
4.19896
4.19791
4.18488
4.17066
4.1543
4.13476
4.11356
4.08712
4.05456
4.02855
4.01107
3.99832
3.98888
3.98499
3.98002
3.96961
3.9537
3.92387
3.88554
3.85572
3.84348
3.83769
3.84549
3.86549
3.86394
3.84886
3.81932
3.7707
3.72537
3.70689
3.69901
3.69683
3.71149
3.72505
3.71723
3.70154
3.67331
3.63245
3.59245
3.57371
3.56778
3.56875
3.58324
3.58826
3.58014
3.56665
3.53879
3.50205
3.47325
3.4633
3.45787
3.45719
3.46023
3.45539
3.44652
3.4372
3.42582
3.40363
3.36865
3.33679
3.32401
3.31862
3.31659
3.32567
3.34072
3.33857
3.32984
3.31899
3.29693
3.25629
3.20927
3.18697
3.18065
3.17659
3.17796
3.19048
3.19447
3.18735
3.17889
3.16773
3.14355
3.10508
3.08141
3.07526
3.07227
3.07182
3.06842
3.06129
3.05296
3.04058
3.02155
3.00019
2.98326
2.97769
2.974
2.97523
2.98525
2.98508
2.97782
2.96821
2.94733
2.91669
2.89093
2.87946
2.87522
2.87436
2.88235
2.8827
2.8758
2.8686
2.85576
2.82465
2.78658
2.77058
2.76641
2.76382
2.76572
2.77515
2.77598
2.76975
2.76111
2.74595
2.7211
2.69405
2.68028
2.67652
2.67422
2.67612
2.68243
2.67992
2.67379
2.66684
2.65523
2.63248
2.60648
2.59533
2.59188
2.59026
2.59297
2.59419
2.58918
2.58169
2.57179
2.55308
2.52512
2.50647
2.50118
2.49987
2.5025
2.50894
2.50889
2.50493
2.50045
2.49428
2.48065
2.45772
2.43785
2.43051
2.42788
2.42655
2.42389
2.41999
2.41472
2.40757
2.39569
2.37865
2.36931
2.36644
2.36388
2.36273
2.36384
2.36343
2.35987
2.35419
2.3448
2.32754
2.30552
2.29005
2.28244
2.27914
2.27743
2.27921
2.28443
2.28613
2.28383
2.2795
2.27311
2.26498
2.25387
2.2413
2.22875
2.21984
2.21532
2.21225
2.20752
2.19936
2.1883
2.18202
2.17988
2.17834
2.17722
2.17612
2.17513
2.17376
2.17157
2.16916
2.16631
2.16098
2.15072
2.13662
2.1223
2.11033
2.10099
2.09437
2.09134
2.0899
2.08914
2.09089
2.10098
2.11342
2.11362
2.11167
2.10921
2.10389
2.08883
2.06552
2.05262
2.04881
2.04731
2.04657
2.04745
2.05448
2.06318
2.06475
2.06371
2.0621
2.0592
2.05162
2.03609
2.02044
2.01512
2.01367
2.01389
2.02021
2.02558
4.39257
4.34578
4.29174
4.25253
4.23171
4.22251
4.22017
4.22805
4.22848
4.21602
4.20238
4.18833
4.1721
4.15053
4.11908
4.0825
4.04999
4.02951
4.01774
4.01151
4.01589
4.01833
4.00764
3.98986
3.95658
3.91159
3.87795
3.86497
3.86076
3.8727
3.89444
3.89234
3.87877
3.85248
3.80264
3.75005
3.7239
3.71544
3.71594
3.73777
3.7575
3.75039
3.73306
3.70085
3.65237
3.61761
3.6045
3.59863
3.59897
3.61066
3.61395
3.60567
3.59282
3.56614
3.5296
3.49863
3.48795
3.4833
3.48355
3.48546
3.4796
3.47068
3.46076
3.44766
3.42578
3.39673
3.36535
3.34806
3.34205
3.33894
3.34523
3.35965
3.35787
3.34888
3.33936
3.32085
3.28268
3.23267
3.20416
3.19597
3.19162
3.19208
3.20464
3.21312
3.20733
3.19892
3.1876
3.16403
3.12837
3.09878
3.08626
3.08183
3.08121
3.08558
3.08168
3.0744
3.06433
3.04504
3.01594
2.99864
2.99426
2.99132
2.99214
2.99966
2.99846
2.9916
2.98487
2.96814
2.93557
2.90631
2.89579
2.89112
2.88795
2.89133
2.89618
2.89159
2.88328
2.86788
2.84024
2.80694
2.78514
2.77886
2.7753
2.77603
2.78694
2.79258
2.78758
2.78021
2.76739
2.73934
2.70516
2.68816
2.68379
2.68185
2.68432
2.69355
2.69379
2.68839
2.68276
2.67056
2.64636
2.62137
2.60973
2.6064
2.60532
2.61079
2.61528
2.61092
2.60303
2.59201
2.57102
2.53953
2.5165
2.5072
2.50376
2.50177
2.50729
2.51826
2.51656
2.51197
2.50756
2.49761
2.47758
2.45595
2.44701
2.44342
2.43961
2.43487
2.42991
2.4255
2.42092
2.41221
2.39573
2.37965
2.37405
2.37141
2.36973
2.37144
2.37366
2.37167
2.36802
2.36197
2.34678
2.31903
2.29771
2.28884
2.28555
2.28304
2.28214
2.28809
2.29652
2.29587
2.29261
2.28857
2.2815
2.26599
2.24457
2.22989
2.22268
2.2187
2.21684
2.21633
2.21554
2.21256
2.20628
2.19379
2.18316
2.1793
2.17697
2.17495
2.17349
2.17282
2.17103
2.16869
2.16631
2.16337
2.15714
2.14121
2.11638
2.10062
2.09507
2.09311
2.09167
2.09067
2.09116
2.09803
2.10799
2.10889
2.10678
2.10427
2.1012
2.09492
2.08001
2.06168
2.05244
2.0482
2.04605
2.04558
2.04873
2.05568
2.05689
2.05551
2.05398
2.0521
2.04898
2.04457
2.03819
2.02915
2.02019
2.01613
2.01531
2.01721
2.01884
4.36727
4.31807
4.28687
4.2711
4.26252
4.25791
4.25541
4.25267
4.24599
4.23435
4.2221
4.20862
4.18985
4.15625
4.10897
4.07187
4.05548
4.04539
4.04166
4.04995
4.05271
4.04177
4.02508
3.99324
3.94795
3.90994
3.89634
3.89178
3.90368
3.92652
3.92456
3.90963
3.88046
3.83409
3.78287
3.75673
3.74788
3.74644
3.76447
3.78356
3.77688
3.76254
3.73433
3.68833
3.64514
3.62544
3.61907
3.62103
3.63671
3.64045
3.63168
3.61812
3.5911
3.55494
3.52569
3.51564
3.51097
3.51059
3.51048
3.5036
3.49453
3.48449
3.47271
3.45159
3.41777
3.38622
3.37217
3.3668
3.36343
3.3675
3.3797
3.37815
3.36909
3.35845
3.34023
3.30654
3.25954
3.22631
3.21595
3.21129
3.21037
3.22043
3.22962
3.22411
3.21581
3.20563
3.18476
3.14817
3.11531
3.1018
3.09718
3.09494
3.09814
3.09553
3.08907
3.08319
3.07143
3.04666
3.01992
3.00965
3.00429
3.00173
3.00763
3.01172
3.00632
2.99928
2.98466
2.95883
2.92817
2.90995
2.90482
2.90259
2.90591
2.90512
2.8979
2.88919
2.87746
2.85175
2.81506
2.79773
2.79361
2.79135
2.79232
2.80199
2.80668
2.80166
2.79432
2.78309
2.76129
2.72972
2.70507
2.69666
2.69277
2.69113
2.6976
2.70337
2.70013
2.69543
2.68514
2.66312
2.63433
2.61944
2.61632
2.61539
2.62205
2.63199
2.62998
2.62365
2.6139
2.59425
2.56223
2.53213
2.51722
2.51321
2.51035
2.50955
2.51572
2.52271
2.52276
2.51906
2.51023
2.49223
2.47023
2.46088
2.458
2.45536
2.45173
2.44702
2.44151
2.43437
2.42389
2.40939
2.39396
2.38571
2.38229
2.38018
2.37979
2.38183
2.38074
2.37748
2.37412
2.36612
2.34414
2.31364
2.2965
2.29241
2.29012
2.28877
2.29154
2.30092
2.30344
2.30096
2.29754
2.29333
2.28343
2.25992
2.23669
2.2267
2.22335
2.22154
2.22104
2.22283
2.22225
2.21976
2.21622
2.20827
2.19269
2.18073
2.17606
2.17352
2.17128
2.16987
2.17135
2.17161
2.1689
2.16532
2.15827
2.13973
2.11355
2.09937
2.0957
2.09366
2.09226
2.09196
2.09744
2.10793
2.10884
2.10614
2.10335
2.0998
2.09405
2.08351
2.06892
2.05967
2.05609
2.05315
2.04994
2.04878
2.05043
2.05103
2.04973
2.04794
2.04577
2.04281
2.03904
2.0363
2.03498
2.03288
2.0301
2.02537
2.0192
2.01479
2.01257
4.3474
4.32112
4.30858
4.30135
4.29637
4.28976
4.28166
4.27428
4.26695
4.25547
4.24251
4.22396
4.1902
4.14319
4.09875
4.07815
4.06893
4.06822
4.08408
4.09358
4.08345
4.06126
4.02103
3.97162
3.94156
3.92945
3.92401
3.93457
3.95807
3.95738
3.94303
3.91496
3.86053
3.80654
3.78527
3.77739
3.77674
3.79519
3.81371
3.80674
3.78935
3.75787
3.71133
3.6732
3.65789
3.65134
3.6518
3.66487
3.66749
3.65812
3.64383
3.61535
3.57763
3.54926
3.53914
3.53458
3.5341
3.5338
3.52683
3.51789
3.50798
3.49479
3.47356
3.44526
3.41447
3.39279
3.38568
3.38091
3.38245
3.39468
3.39653
3.38847
3.37942
3.36509
3.33392
3.28134
3.2443
3.23286
3.22821
3.22601
3.23339
3.24615
3.24316
3.23508
3.22623
3.20795
3.17406
3.1382
3.11833
3.11266
3.10958
3.11127
3.10983
3.10338
3.09596
3.08447
3.06406
3.04112
3.03109
3.02641
3.02401
3.02661
3.02486
3.0172
3.00871
2.9966
2.97298
2.94422
2.92848
2.92317
2.91992
2.92162
2.92177
2.91535
2.90696
2.89292
2.86607
2.83184
2.80964
2.80212
2.79885
2.79974
2.81313
2.82306
2.81905
2.8116
2.80063
2.7787
2.74747
2.72291
2.71406
2.7101
2.70806
2.71138
2.71256
2.70732
2.70047
2.69119
2.67528
2.65275
2.63389
2.62841
2.62584
2.62845
2.6416
2.64539
2.64053
2.63337
2.61992
2.59026
2.55387
2.53459
2.52874
2.5245
2.52192
2.52396
2.52618
2.52202
2.51792
2.51247
2.50241
2.48635
2.47259
2.46881
2.46647
2.4649
2.46192
2.45789
2.45244
2.44301
2.42512
2.40632
2.39802
2.39375
2.38964
2.38766
2.38911
2.38927
2.38582
2.38227
2.37581
2.36232
2.33693
2.31454
2.30603
2.30129
2.29832
2.29759
2.30394
2.30873
2.30579
2.30259
2.3002
2.29468
2.27985
2.25415
2.23542
2.23054
2.22813
2.22642
2.22752
2.23056
2.22867
2.22556
2.22173
2.21566
2.20438
2.18779
2.1772
2.17318
2.17087
2.16876
2.16698
2.16582
2.16352
2.15999
2.15363
2.13732
2.11287
2.10268
2.09971
2.09746
2.09614
2.09762
2.1066
2.11035
2.10774
2.10462
2.10162
2.09652
2.08556
2.06993
2.06037
2.05774
2.05675
2.05691
2.05708
2.05565
2.05288
2.04927
2.0454
2.04182
2.03786
2.03361
2.03135
2.03033
2.03017
2.03333
2.03571
2.03386
2.02678
2.01477
2.00591
4.3604
4.34979
4.3424
4.3345
4.32468
4.31417
4.30543
4.30061
4.29372
4.28112
4.25917
4.21944
4.16326
4.1232
4.10639
4.09732
4.09784
4.11742
4.13054
4.12087
4.1017
4.06306
4.00578
3.96555
3.9505
3.94613
3.96121
3.98837
3.98826
3.97435
3.94689
3.8999
3.84405
3.81004
3.80007
3.79881
3.81973
3.84312
3.83696
3.82059
3.78892
3.7379
3.6964
3.67862
3.67278
3.67568
3.69147
3.69425
3.68443
3.66962
3.64161
3.60392
3.57304
3.56129
3.55615
3.55466
3.55429
3.54819
3.54
3.531
3.52006
3.50094
3.46721
3.4327
3.41511
3.40927
3.40495
3.40516
3.4133
3.41286
3.40395
3.39461
3.38292
3.35873
3.31495
3.27156
3.25044
3.24375
3.23933
3.24173
3.25502
3.25691
3.25076
3.24393
3.23051
3.20163
3.16136
3.13731
3.13095
3.12726
3.12786
3.12554
3.11863
3.11145
3.10294
3.0826
3.05758
3.04393
3.03962
3.038
3.04279
3.04308
3.03643
3.02795
3.0137
2.9883
2.96003
2.94126
2.93596
2.93418
2.93879
2.93969
2.93311
2.92442
2.9108
2.88379
2.84403
2.81962
2.81184
2.80888
2.80833
2.81848
2.83434
2.83374
2.82815
2.82091
2.80319
2.7682
2.73745
2.72622
2.72275
2.72116
2.72507
2.72695
2.72197
2.71566
2.70737
2.68812
2.65961
2.64454
2.64073
2.63851
2.63927
2.64999
2.65717
2.65332
2.6476
2.63885
2.61692
2.58035
2.55285
2.54519
2.54151
2.54016
2.54043
2.53742
2.53203
2.52753
2.51927
2.50311
2.48727
2.48203
2.48046
2.48016
2.48049
2.47856
2.47464
2.46941
2.46173
2.44723
2.42589
2.41106
2.40754
2.40514
2.40275
2.39974
2.3959
2.39075
2.38399
2.37636
2.36571
2.34906
2.33137
2.32369
2.32026
2.31638
2.31325
2.3133
2.31626
2.31354
2.30959
2.30632
2.30126
2.29098
2.27089
2.2499
2.2417
2.23922
2.23748
2.23598
2.23398
2.23089
2.22741
2.22356
2.2197
2.21639
2.21204
2.20211
2.18559
2.1753
2.17136
2.16879
2.16676
2.16448
2.16148
2.157
2.14907
2.13517
2.11824
2.10881
2.1053
2.10363
2.10298
2.10654
2.11265
2.1114
2.10902
2.10655
2.10178
2.09157
2.07349
2.06137
2.05838
2.05705
2.05686
2.05963
2.06085
2.05931
2.05618
2.05108
2.04306
2.03461
2.02932
2.02724
2.02616
2.02589
2.02822
2.03553
2.03816
2.03659
2.03127
2.01698
2.00095
4.38665
4.38202
4.37277
4.36112
4.34944
4.33952
4.33389
4.32711
4.31414
4.29453
4.25827
4.19944
4.14957
4.12764
4.11941
4.12521
4.15261
4.16619
4.15647
4.13569
4.09593
4.04106
4.00231
3.98812
3.98232
3.9935
4.01936
4.01947
4.00512
3.97725
3.92448
3.86814
3.84455
3.83641
3.83443
3.8509
3.86963
3.86336
3.84814
3.81801
3.77065
3.72622
3.70732
3.70064
3.70195
3.71684
3.71979
3.70982
3.69524
3.66684
3.6278
3.59752
3.58538
3.57947
3.57668
3.57443
3.56767
3.55925
3.54999
3.54085
3.52432
3.49615
3.46219
3.4352
3.42598
3.42045
3.41881
3.42589
3.4272
3.42044
3.41323
3.40256
3.38073
3.33952
3.29444
3.27289
3.26627
3.26176
3.2628
3.2714
3.26928
3.26107
3.25199
3.23986
3.21946
3.18986
3.16201
3.1518
3.14695
3.14564
3.14229
3.1351
3.12786
3.11869
3.1016
3.07945
3.06182
3.05641
3.05335
3.05572
3.05698
3.05098
3.04403
3.03214
3.00677
2.97355
2.95423
2.94856
2.94599
2.94868
2.95532
2.95174
2.94433
2.93381
2.90886
2.8685
2.83736
2.82479
2.82039
2.81762
2.82204
2.83824
2.84153
2.83612
2.83022
2.81981
2.7959
2.76237
2.74346
2.7387
2.73588
2.7375
2.74008
2.73549
2.72898
2.72056
2.70326
2.67617
2.6551
2.64742
2.64457
2.64476
2.65697
2.66895
2.66612
2.6602
2.65222
2.63578
2.6057
2.57599
2.56587
2.56237
2.56047
2.55886
2.55451
2.54814
2.54051
2.52847
2.51073
2.49307
2.48405
2.48106
2.47979
2.48489
2.4913
2.48945
2.48533
2.47889
2.46432
2.44328
2.4286
2.42349
2.42039
2.41819
2.41472
2.40988
2.4041
2.39762
2.38986
2.37448
2.3519
2.3358
2.33095
2.32907
2.3279
2.3286
2.33245
2.33143
2.32612
2.32022
2.31407
2.30694
2.29623
2.27996
2.26263
2.25365
2.25162
2.24959
2.2463
2.24171
2.23657
2.23229
2.229
2.22596
2.22322
2.2205
2.21699
2.21082
2.20023
2.18609
2.17595
2.1705
2.16656
2.16298
2.15811
2.15102
2.14148
2.13304
2.12625
2.11956
2.11365
2.11119
2.11152
2.11435
2.11302
2.10994
2.10645
2.1021
2.09441
2.08038
2.06644
2.06025
2.05834
2.05734
2.05879
2.06245
2.0623
2.06054
2.05801
2.05122
2.03811
2.02837
2.02482
2.02287
2.02162
2.02187
2.02878
2.03798
2.03846
2.03628
2.03162
2.02
2.0013
4.42499
4.41137
4.39675
4.38401
4.37361
4.36815
4.36176
4.34814
4.32536
4.28526
4.22679
4.18228
4.16537
4.15716
4.16346
4.19397
4.20996
4.19885
4.17339
4.12498
4.06197
4.02791
4.01559
4.01095
4.02447
4.0517
4.05176
4.03696
4.00885
3.96138
3.90396
3.86759
3.857
3.85624
3.87785
3.90008
3.89349
3.87587
3.84192
3.79063
3.75193
3.73602
3.72895
3.72922
3.74201
3.74363
3.73352
3.7192
3.69229
3.65501
3.62272
3.60859
3.60239
3.59912
3.59571
3.58817
3.57928
3.57099
3.56135
3.54294
3.51645
3.48571
3.46185
3.45262
3.44587
3.44271
3.44475
3.44121
3.43181
3.42191
3.41242
3.39691
3.36396
3.31957
3.29113
3.28243
3.27776
3.27824
3.28681
3.28668
3.27907
3.27108
3.26035
3.23713
3.20101
3.17871
3.17279
3.16971
3.16992
3.16772
3.15996
3.1506
3.13756
3.11561
3.09018
3.07649
3.07236
3.07007
3.07175
3.0719
3.06549
3.05772
3.04707
3.02649
2.99725
2.97278
2.96339
2.95931
2.95858
2.96431
2.96227
2.95602
2.9496
2.9328
2.89621
2.85599
2.83948
2.83524
2.83249
2.835
2.84854
2.85187
2.84597
2.83998
2.83152
2.81156
2.78122
2.76266
2.75803
2.75543
2.75683
2.75703
2.75166
2.74504
2.73611
2.7193
2.69258
2.6684
2.65813
2.65471
2.65298
2.65964
2.67659
2.6783
2.67304
2.66781
2.65598
2.62746
2.59509
2.58308
2.58011
2.579
2.5785
2.57482
2.5689
2.55966
2.54336
2.52149
2.50318
2.49154
2.48739
2.48505
2.48639
2.49552
2.49965
2.49732
2.49277
2.48421
2.46441
2.44165
2.43539
2.43277
2.4311
2.42826
2.42412
2.41942
2.4137
2.40632
2.39004
2.36368
2.34394
2.33621
2.33375
2.33187
2.33315
2.34148
2.34407
2.34018
2.33514
2.32934
2.32176
2.30769
2.28811
2.27127
2.2623
2.26018
2.25934
2.25769
2.2541
2.24882
2.24264
2.23699
2.23169
2.2259
2.22136
2.21787
2.2146
2.21182
2.20793
2.1991
2.18454
2.1741
2.16846
2.16256
2.15485
2.14534
2.1371
2.13297
2.13137
2.12966
2.12671
2.12332
2.12002
2.11621
2.11299
2.11125
2.10799
2.10038
2.08594
2.07022
2.06382
2.06213
2.06087
2.0605
2.06233
2.06413
2.06278
2.06036
2.05672
2.04794
2.03368
2.0254
2.02258
2.02072
2.01958
2.02024
2.02589
2.03117
2.03128
2.03008
2.02819
2.02157
2.00557
4.45508
4.4354
4.41942
4.4077
4.4016
4.39635
4.38259
4.35946
4.3159
4.25153
4.20739
4.18963
4.18341
4.19576
4.23156
4.24626
4.23581
4.21322
4.16698
4.09944
4.05401
4.03794
4.03338
4.04904
4.0801
4.0816
4.06783
4.04027
3.98729
3.9295
3.90256
3.89351
3.89144
3.9075
3.9254
3.91902
3.90378
3.87216
3.82024
3.77659
3.75644
3.74974
3.75172
3.76706
3.76863
3.75796
3.74225
3.71381
3.6768
3.64762
3.63455
3.62835
3.6249
3.6202
3.61203
3.60272
3.59308
3.57829
3.55833
3.53323
3.50413
3.48096
3.47217
3.46746
3.46619
3.4667
3.46176
3.45308
3.4432
3.43096
3.40955
3.37823
3.34211
3.31489
3.30552
3.30081
3.29993
3.30576
3.30421
3.29573
3.28683
3.27571
3.2555
3.22466
3.19695
3.18407
3.17921
3.17862
3.18499
3.18203
3.1744
3.16371
3.14376
3.11414
3.09039
3.08266
3.07852
3.07808
3.08188
3.0785
3.07308
3.0657
3.049
3.01728
2.98947
2.9805
2.97654
2.97519
2.97883
2.97611
2.96921
2.96223
2.94806
2.91926
2.8825
2.86066
2.85357
2.84848
2.84656
2.85362
2.86259
2.85871
2.85335
2.8456
2.82743
2.79757
2.77532
2.76892
2.7664
2.76851
2.77183
2.76775
2.76185
2.75509
2.74174
2.71446
2.68396
2.66915
2.66555
2.66307
2.66426
2.67529
2.68392
2.68187
2.67752
2.66879
2.65104
2.62123
2.59925
2.59474
2.59305
2.59262
2.58962
2.58517
2.57917
2.56767
2.54402
2.51697
2.50184
2.49734
2.49445
2.49336
2.49846
2.50156
2.49796
2.49295
2.48751
2.47847
2.4634
2.45249
2.44898
2.44629
2.44293
2.43841
2.43356
2.42824
2.42155
2.40747
2.38242
2.35667
2.34446
2.34147
2.33924
2.33898
2.34667
2.35303
2.34994
2.3455
2.3408
2.3342
2.32114
2.29957
2.28069
2.27116
2.26878
2.26759
2.26647
2.26392
2.26067
2.25647
2.25084
2.24404
2.23577
2.22746
2.22232
2.21925
2.2165
2.21382
2.21078
2.20615
2.1958
2.17931
2.16616
2.1574
2.14902
2.14122
2.13718
2.13549
2.13508
2.13751
2.13739
2.13415
2.12887
2.12104
2.11323
2.10749
2.10254
2.09258
2.07592
2.06637
2.06379
2.06224
2.06187
2.06426
2.06715
2.06615
2.06397
2.06098
2.05527
2.04419
2.03122
2.02428
2.02169
2.02014
2.01945
2.02231
2.02787
2.02738
2.02564
2.02391
2.02182
2.01789
2.00802
4.47366
4.45473
4.44183
4.43443
4.42813
4.41464
4.39194
4.35114
4.29066
4.24038
4.2209
4.21602
4.23248
4.27221
4.28432
4.27101
4.24337
4.19362
4.12609
4.08612
4.07283
4.06721
4.07893
4.10867
4.11078
4.09637
4.0685
4.02258
3.96661
3.92917
3.91812
3.917
3.93665
3.95387
3.94568
3.92696
3.89379
3.84596
3.80436
3.78613
3.7787
3.77884
3.79217
3.79346
3.78275
3.7663
3.73676
3.69964
3.67027
3.65679
3.65118
3.64921
3.64517
3.6367
3.62713
3.61324
3.59328
3.57284
3.55017
3.52527
3.50156
3.49068
3.48513
3.48248
3.48363
3.48018
3.47192
3.46326
3.45293
3.43347
3.39796
3.35401
3.32984
3.32213
3.3189
3.32
3.32801
3.32753
3.31931
3.30972
3.2958
3.27238
3.2423
3.21606
3.20278
3.19764
3.19528
3.19936
3.19763
3.19121
3.1847
3.17228
3.14477
3.11442
3.10236
3.09621
3.09283
3.09213
3.08641
3.07932
3.07242
3.06119
3.04038
3.01314
2.99748
2.99198
2.98906
2.99116
2.99034
2.98351
2.97628
2.96399
2.93708
2.89769
2.87663
2.8721
2.8694
2.86967
2.87727
2.87905
2.87217
2.86358
2.85236
2.8362
2.81454
2.79269
2.78382
2.78084
2.7809
2.78421
2.78042
2.77436
2.7676
2.75703
2.73647
2.70846
2.68822
2.68175
2.67777
2.67601
2.68165
2.68801
2.68445
2.67933
2.67267
2.6603
2.63994
2.62151
2.61663
2.61416
2.61194
2.60734
2.601
2.59389
2.58475
2.56731
2.54194
2.51959
2.51139
2.50705
2.50375
2.50356
2.50831
2.5073
2.50379
2.49836
2.48687
2.47084
2.46412
2.46167
2.46024
2.45924
2.45597
2.45118
2.44508
2.43651
2.42264
2.40006
2.37296
2.35568
2.35073
2.3479
2.34653
2.34973
2.35808
2.3586
2.35549
2.35135
2.34611
2.3361
2.31495
2.29192
2.27981
2.27687
2.27526
2.27529
2.27514
2.27314
2.27005
2.26536
2.25658
2.24381
2.23262
2.22745
2.22477
2.22211
2.21935
2.21722
2.21475
2.21134
2.20422
2.18719
2.16606
2.15347
2.14634
2.14308
2.14111
2.13967
2.14103
2.14468
2.14333
2.14009
2.13593
2.12897
2.11842
2.10704
2.09576
2.08381
2.07279
2.06796
2.066
2.06434
2.06368
2.06554
2.06566
2.06371
2.06182
2.05934
2.05276
2.03994
2.03064
2.02667
2.0242
2.02295
2.02339
2.02589
2.02522
2.02335
2.02138
2.01896
2.0154
2.0108
2.00554
4.48738
4.47483
4.46846
4.4625
4.44804
4.42446
4.37826
4.31222
4.27389
4.25977
4.25426
4.2702
4.31161
4.32418
4.30961
4.28017
4.22254
4.14842
4.10831
4.09371
4.08942
4.10434
4.13634
4.14
4.12632
4.09862
4.04527
3.98845
3.96253
3.9535
3.9514
3.96706
3.9822
3.9741
3.9563
3.91931
3.86239
3.82471
3.80952
3.80308
3.80437
3.81793
3.81867
3.80777
3.79045
3.75977
3.72262
3.69396
3.68098
3.67533
3.67333
3.66859
3.6599
3.65023
3.6326
3.61061
3.59032
3.56989
3.54582
3.52132
3.50969
3.5039
3.50019
3.49938
3.49525
3.48739
3.47866
3.46789
3.45127
3.42278
3.38408
3.35238
3.33809
3.33235
3.32916
3.33552
3.34416
3.33914
3.33156
3.32193
3.30152
3.26498
3.23284
3.2186
3.21434
3.2129
3.21666
3.21448
3.20716
3.19887
3.18737
3.16687
3.14085
3.127
3.12191
3.11797
3.11278
3.10487
3.09516
3.08441
3.06986
3.04863
3.02612
3.01629
3.01252
3.01115
3.01389
3.01136
3.00422
2.99555
2.97995
2.95274
2.91803
2.89239
2.88391
2.88035
2.87984
2.88946
2.89837
2.89412
2.88606
2.87514
2.85512
2.82409
2.8028
2.79629
2.79418
2.79472
2.79832
2.79573
2.79007
2.78391
2.77443
2.75334
2.72403
2.70552
2.7005
2.69717
2.6965
2.70083
2.70021
2.69433
2.688
2.68126
2.6674
2.64662
2.63228
2.62885
2.6283
2.6292
2.62622
2.6212
2.61393
2.6004
2.57885
2.55842
2.54337
2.53445
2.52896
2.52573
2.52272
2.51791
2.51173
2.50394
2.49683
2.489
2.47743
2.46781
2.46493
2.46294
2.46423
2.46762
2.46559
2.46143
2.45554
2.44495
2.42133
2.38904
2.36917
2.36343
2.35959
2.35661
2.35605
2.36217
2.36475
2.3614
2.35848
2.35568
2.34934
2.33315
2.30607
2.288
2.28422
2.28192
2.28019
2.28019
2.28065
2.279
2.2762
2.27144
2.262
2.24648
2.23424
2.2293
2.22656
2.22485
2.22448
2.22292
2.22019
2.21677
2.2099
2.19397
2.16733
2.15098
2.14744
2.14615
2.14562
2.14632
2.14861
2.14974
2.14866
2.14663
2.14363
2.1383
2.1259
2.10408
2.08593
2.07739
2.07278
2.07039
2.06862
2.0674
2.06805
2.06907
2.06678
2.06414
2.06128
2.05632
2.04756
2.03759
2.03234
2.02977
2.0286
2.02892
2.02771
2.02521
2.02263
2.02054
2.0183
2.01503
2.00924
2.00305
2.00043
4.5049
4.50067
4.49554
4.48115
4.45769
4.41471
4.35262
4.30369
4.28347
4.27923
4.30061
4.3454
4.35661
4.34363
4.3145
4.25928
4.1839
4.13699
4.12097
4.11636
4.13072
4.16225
4.16588
4.15277
4.12567
4.07954
4.02426
3.98804
3.97584
3.97361
3.99131
4.0066
3.99817
3.97942
3.94515
3.89484
3.85161
3.83048
3.82298
3.8244
3.84105
3.84387
3.83311
3.81591
3.78368
3.74528
3.71776
3.70548
3.69983
3.6973
3.69112
3.6821
3.6708
3.65077
3.62819
3.60806
3.59031
3.57109
3.54711
3.52984
3.5226
3.51645
3.51236
3.50909
3.50232
3.49434
3.48659
3.47426
3.44836
3.40798
3.37403
3.35984
3.35408
3.35046
3.3532
3.35681
3.35056
3.34279
3.33508
3.32281
3.29783
3.26302
3.24
3.23257
3.22824
3.22915
3.22921
3.22269
3.21679
3.20817
3.18759
3.16017
3.14489
3.14013
3.13746
3.13436
3.12777
3.11894
3.10736
3.08969
3.06254
3.03829
3.02438
3.01999
3.01818
3.02443
3.02937
3.02419
3.0168
3.00614
2.97983
2.93424
2.90452
2.89635
2.8936
2.89347
2.90259
2.91353
2.91087
2.90432
2.89609
2.87994
2.85085
2.82132
2.80669
2.8026
2.79993
2.80333
2.80626
2.80255
2.79827
2.79161
2.7748
2.74413
2.71879
2.7108
2.7079
2.70828
2.71506
2.7161
2.71103
2.7041
2.69479
2.67806
2.65775
2.64227
2.63722
2.63561
2.63859
2.64081
2.63706
2.63188
2.6239
2.60183
2.56884
2.5513
2.54701
2.54511
2.54491
2.54432
2.53988
2.53254
2.52245
2.51086
2.49458
2.47871
2.47077
2.46805
2.46732
2.46986
2.47555
2.47601
2.47246
2.46788
2.46102
2.44466
2.41283
2.38415
2.3758
2.37283
2.36969
2.36762
2.36956
2.37198
2.36842
2.3639
2.35961
2.35421
2.34335
2.32445
2.30447
2.29467
2.2905
2.2874
2.28478
2.28233
2.27997
2.2782
2.2768
2.27419
2.26719
2.25498
2.24319
2.23527
2.23053
2.22673
2.22283
2.21893
2.21579
2.21333
2.20995
2.19938
2.1763
2.15714
2.15098
2.14783
2.14562
2.14459
2.14724
2.15347
2.15393
2.15158
2.14842
2.14274
2.12696
2.09998
2.08247
2.0764
2.07379
2.07218
2.07178
2.07279
2.07222
2.06984
2.06682
2.06326
2.0575
2.04864
2.04044
2.0379
2.03632
2.03549
2.03566
2.03357
2.02992
2.02591
2.02224
2.0193
2.01598
2.01033
2.00318
1.99893
1.99728
4.53287
4.53056
4.51597
4.49109
4.44166
4.3732
4.33592
4.32231
4.31742
4.33666
4.38068
4.39057
4.37448
4.34171
4.28117
4.20461
4.16717
4.15366
4.14741
4.15888
4.19025
4.19455
4.17994
4.15153
4.09998
4.04354
4.01725
4.00751
4.00414
4.01822
4.03307
4.0244
4.00475
3.96654
3.90948
3.87242
3.85797
3.8507
3.85022
3.86389
3.8665
3.85631
3.84016
3.80952
3.77046
3.74146
3.72954
3.72391
3.72109
3.71359
3.70314
3.68939
3.66743
3.64437
3.62499
3.60901
3.59381
3.57508
3.55545
3.54537
3.53813
3.5316
3.52434
3.51561
3.50685
3.49975
3.48825
3.46831
3.43574
3.40139
3.38133
3.3745
3.37043
3.37168
3.37421
3.36806
3.35981
3.35189
3.33909
3.31568
3.28685
3.26721
3.2607
3.2566
3.25409
3.24825
3.23939
3.22941
3.2179
3.20328
3.18305
3.16285
3.15654
3.15269
3.15074
3.14555
3.13849
3.12965
3.11456
3.0873
3.0572
3.03786
3.03191
3.02894
3.03253
3.03954
3.03566
3.02926
3.02328
3.00723
2.97194
2.93043
2.91091
2.90536
2.90145
2.90404
2.91948
2.92343
2.9191
2.91401
2.90325
2.87861
2.84625
2.82761
2.82129
2.81701
2.81627
2.81528
2.80998
2.80401
2.79736
2.78707
2.76669
2.74033
2.72793
2.72414
2.72227
2.72633
2.72919
2.72467
2.7188
2.71085
2.69485
2.67012
2.65175
2.64599
2.64396
2.6454
2.65044
2.64731
2.64248
2.63812
2.62443
2.59539
2.56713
2.55751
2.55433
2.55318
2.55784
2.55842
2.55401
2.54748
2.53581
2.51299
2.48697
2.47463
2.47026
2.46713
2.46656
2.47715
2.48466
2.48228
2.47824
2.47394
2.464