/*--------------------------------*- C++ -*----------------------------------*\
  =========                 |
  \\      /  F ield         | OpenFOAM: The Open Source CFD Toolbox
   \\    /   O peration     | Website:  https://openfoam.org
    \\  /    A nd           | Version:  7
     \\/     M anipulation  |
\*---------------------------------------------------------------------------*/
FoamFile
{
    version     2.0;
    format      ascii;
    class       volScalarField;
    location    "13.5";
    object      T;
}
// * * * * * * * * * * * * * * * * * * * * * * * * * * * * * * * * * * * * * //

dimensions      [0 0 0 1 0 0 0];

internalField   nonuniform List<scalar> 
3328
(
3.66233
2.70941
2.47285
2.47617
2.4794
2.4805
2.48077
2.481
2.4828
2.48815
2.49458
2.4983
2.49953
2.49987
2.50011
2.50181
2.50552
2.50982
2.51389
2.51803
2.5229
2.52834
2.53332
2.53685
3.66256
2.7099
2.47294
2.47601
2.47908
2.48005
2.48011
2.48018
2.48183
2.48694
2.4934
2.4975
2.49904
2.49957
2.50011
2.50187
2.50546
2.50969
2.51374
2.51771
2.52199
2.52638
2.53016
2.5329
3.66304
2.71066
2.47363
2.47629
2.47925
2.48017
2.48002
2.47977
2.4808
2.48521
2.49158
2.4963
2.49839
2.49919
2.49988
2.50153
2.50487
2.50902
2.51316
2.517
2.52065
2.5238
2.52611
2.52778
3.6643
2.71112
2.47471
2.47687
2.47976
2.48074
2.48043
2.47986
2.4802
2.48338
2.48911
2.49431
2.49723
2.49857
2.49953
2.50105
2.50405
2.50812
2.51236
2.51594
2.51865
2.52007
2.52038
2.52054
3.66593
2.71083
2.47595
2.47764
2.48051
2.48175
2.48144
2.48056
2.48034
2.48204
2.48658
2.49177
2.49545
2.49751
2.49886
2.50029
2.50277
2.50636
2.51014
2.51292
2.51439
2.5144
2.51363
2.51362
3.66766
2.70948
2.47716
2.47838
2.48119
2.48291
2.48289
2.48187
2.48102
2.48141
2.48441
2.48897
2.49304
2.4958
2.49762
2.49907
2.50099
2.50381
2.50706
2.5096
2.51077
2.5099
2.50795
2.50685
3.66947
2.70725
2.47822
2.479
2.48166
2.48389
2.48446
2.48359
2.48235
2.48171
2.48282
2.48617
2.49014
2.49338
2.4956
2.49715
2.49861
2.50048
2.5027
2.50419
2.50358
2.50072
2.49927
2.50348
3.67173
2.70516
2.47904
2.4795
2.48183
2.48434
2.48557
2.48523
2.48408
2.48251
2.48218
2.48361
2.48691
2.49026
2.49278
2.49445
2.49546
2.4963
2.49713
2.4978
2.49688
2.49681
2.49953
2.51956
3.675
2.70423
2.47999
2.48032
2.48197
2.48441
2.48616
2.48651
2.48557
2.48366
2.48209
2.48166
2.48351
2.48655
2.48925
2.491
2.49161
2.49166
2.49122
2.49134
2.48896
2.48514
2.47088
2.46933
3.67987
2.70481
2.48212
2.48202
2.48272
2.48463
2.48665
2.4875
2.48681
2.48494
2.48249
2.48075
2.48042
2.48256
2.48513
2.48682
2.48734
2.48696
2.48552
2.48486
2.48171
2.4749
2.46561
2.46061
3.68622
2.70645
2.4855
2.48476
2.48461
2.48566
2.48756
2.48852
2.48815
2.48659
2.48359
2.48057
2.47859
2.47906
2.48097
2.48223
2.48285
2.4822
2.48013
2.47854
2.47531
2.46681
2.45862
2.44877
3.69333
2.70914
2.48884
2.48781
2.48723
2.48754
2.48901
2.49005
2.4901
2.48883
2.48552
2.48181
2.47849
2.4768
2.47766
2.47797
2.47831
2.47745
2.47501
2.47275
2.46977
2.46317
2.45714
2.44548
3.70042
2.71449
2.49061
2.49021
2.48988
2.48976
2.49094
2.49208
2.4925
2.49157
2.48871
2.48463
2.48009
2.4769
2.47583
2.47498
2.47435
2.47296
2.4701
2.46744
2.46481
2.46064
2.45323
2.44514
3.70725
2.72371
2.49084
2.49123
2.49208
2.49219
2.49327
2.49443
2.49511
2.49462
2.4927
2.48886
2.48399
2.47918
2.47609
2.47366
2.47168
2.4692
2.46563
2.46247
2.45976
2.45674
2.45026
2.44298
3.71385
2.7323
2.49411
2.49241
2.49346
2.49465
2.49587
2.49704
2.49783
2.49769
2.49655
2.49346
2.48895
2.4835
2.47838
2.47434
2.47065
2.46661
2.46217
2.45823
2.45488
2.45187
2.44672
2.4387
3.72042
2.73966
2.49832
2.49552
2.4954
2.4967
2.49852
2.49988
2.50059
2.50053
2.49964
2.49726
2.49332
2.48797
2.48202
2.47641
2.47104
2.46553
2.46007
2.4552
2.45094
2.4472
2.44235
2.43516
3.72718
2.74803
2.50235
2.50058
2.4982
2.49909
2.50122
2.50289
2.50345
2.5032
2.50207
2.49984
2.49638
2.49135
2.48533
2.4791
2.47253
2.46582
2.45931
2.45375
2.4488
2.44435
2.43922
2.43189
3.73403
2.75619
2.50702
2.50496
2.50195
2.50196
2.50381
2.50581
2.50648
2.50595
2.50413
2.50162
2.4984
2.49375
2.48802
2.48191
2.47507
2.46754
2.45989
2.45355
2.44812
2.4433
2.43804
2.43063
3.74078
2.76288
2.51293
2.50874
2.505
2.50436
2.50599
2.50842
2.50945
2.50882
2.50628
2.50324
2.49987
2.49575
2.49069
2.48507
2.47861
2.47098
2.46234
2.4547
2.44847
2.44308
2.43776
2.43069
3.74735
2.76831
2.51812
2.5127
2.50828
2.50717
2.50825
2.51066
2.51214
2.51174
2.50908
2.50545
2.50151
2.49782
2.49374
2.48887
2.48315
2.4758
2.46684
2.45775
2.45011
2.44351
2.4376
2.43063
3.75389
2.77289
2.5228
2.51662
2.51152
2.50971
2.51033
2.51279
2.51467
2.51476
2.51293
2.50898
2.50419
2.50022
2.49691
2.49302
2.48818
2.48135
2.4725
2.46223
2.45311
2.44504
2.43784
2.43025
3.76053
2.77733
2.52737
2.5206
2.51486
2.51235
2.51244
2.51465
2.51703
2.51819
2.51746
2.51398
2.5085
2.50337
2.49975
2.49646
2.49254
2.48671
2.47846
2.46787
2.45721
2.44756
2.43878
2.43007
3.76718
2.78141
2.53177
2.52465
2.51849
2.51555
2.51511
2.51708
2.52
2.52184
2.52217
2.51991
2.51417
2.50735
2.50221
2.49866
2.4955
2.49092
2.48397
2.47425
2.46266
2.45147
2.44086
2.43061
3.77365
2.78497
2.53602
2.52895
2.52263
2.51961
2.51881
2.5202
2.52299
2.52513
2.52626
2.52526
2.51982
2.51189
2.50487
2.50021
2.49714
2.49365
2.48829
2.48034
2.46946
2.45751
2.44519
2.43302
3.77987
2.78844
2.54002
2.53326
2.52702
2.52444
2.52357
2.52412
2.52598
2.52785
2.52891
2.52844
2.52427
2.5166
2.50822
2.50213
2.49856
2.49555
2.49142
2.48522
2.47619
2.46486
2.45192
2.43833
3.7858
2.79229
2.54347
2.53669
2.53093
2.52939
2.52913
2.52902
2.52913
2.52965
2.52982
2.52946
2.52664
2.52047
2.51216
2.50512
2.50087
2.49796
2.49435
2.4889
2.48117
2.47116
2.45901
2.4454
3.79139
2.79662
2.5456
2.53839
2.53402
2.53488
2.5362
2.53517
2.53279
2.53093
2.52964
2.52884
2.52697
2.52273
2.51633
2.50976
2.50575
2.50284
2.49862
2.49235
2.48435
2.47495
2.46392
2.45142
3.79662
2.80055
2.54592
2.53882
2.53813
2.54202
2.54431
2.54192
2.53674
2.53215
2.529
2.52721
2.52595
2.52336
2.52001
2.51641
2.51349
2.51024
2.50458
2.4965
2.48708
2.47714
2.4665
2.45504
3.80155
2.80201
2.54425
2.54154
2.54459
2.55039
2.55151
2.54775
2.5405
2.53348
2.5281
2.52506
2.52407
2.5232
2.52337
2.52345
2.52153
2.51765
2.51094
2.50159
2.49057
2.47924
2.468
2.45706
3.80645
2.80034
2.54179
2.5468
2.55281
2.55676
2.55629
2.55158
2.54351
2.53488
2.52709
2.52221
2.52233
2.52424
2.52736
2.52895
2.52733
2.5227
2.51556
2.5063
2.49497
2.48277
2.47076
2.45993
3.81119
2.79609
2.54391
2.55371
2.5582
2.55972
2.55878
2.55359
2.54516
2.53618
2.52846
2.52449
2.52549
2.52831
2.53126
2.53232
2.5302
2.52494
2.51751
2.50888
2.49903
2.48812
2.4768
2.46602
3.81567
2.79259
2.55157
2.55917
2.56084
2.56127
2.55877
2.55291
2.54588
2.53921
2.53498
2.53317
2.53339
2.53445
2.53507
2.53427
2.53067
2.52449
2.51678
2.50896
2.50139
2.4935
2.48466
2.47445
3.81949
2.79352
2.55893
2.56209
2.56179
2.5599
2.55574
2.55102
2.54756
2.54595
2.5449
2.54349
2.54248
2.54108
2.53889
2.53516
2.52955
2.52217
2.51448
2.50796
2.50282
2.49759
2.4908
2.48162
3.82266
2.80071
2.5628
2.56219
2.55951
2.5557
2.55241
2.55158
2.55272
2.55424
2.55444
2.55229
2.54957
2.54613
2.54129
2.53476
2.52704
2.51929
2.51295
2.50839
2.50488
2.50078
2.49506
2.48703
3.82571
2.81226
2.56391
2.55963
2.55556
2.55299
2.55283
2.55563
2.55932
2.56153
2.56147
2.55827
2.55373
2.54854
2.54153
2.53378
2.52671
2.52068
2.51564
2.51149
2.50796
2.50388
2.4987
2.49134
3.82907
2.82585
2.56371
2.55695
2.55437
2.55419
2.55646
2.56003
2.56349
2.56567
2.56524
2.56167
2.55563
2.5489
2.54242
2.53674
2.53166
2.52666
2.52143
2.51617
2.51092
2.50571
2.50005
2.49288
3.83285
2.83821
2.56263
2.55787
2.55616
2.55746
2.55973
2.56236
2.56471
2.56627
2.56568
2.56224
2.55698
2.55266
2.54935
2.54517
2.53987
2.53385
2.52706
2.51944
2.51156
2.50396
2.49695
2.49043
3.83659
2.84607
2.56666
2.56337
2.56171
2.56152
2.56079
2.56076
2.56103
2.56148
2.56186
2.56223
2.56254
2.56168
2.55966
2.55504
2.54786
2.53956
2.53045
2.52016
2.50941
2.49913
2.49152
2.48767
3.83924
2.84928
2.57669
2.57177
2.56722
2.56369
2.55989
2.5556
2.55264
2.55326
2.55745
2.56362
2.56876
2.57059
2.56935
2.56417
2.5551
2.54354
2.53125
2.51839
2.50495
2.49287
2.48511
2.48382
3.8402
2.84846
2.58349
2.57757
2.57133
2.56329
2.55514
2.54914
2.54625
2.54949
2.55737
2.56659
2.5736
2.57681
2.57593
2.56974
2.55904
2.54544
2.52947
2.51485
2.50175
2.492
2.48754
2.48702
2.379
2.44201
2.4673
2.4864
2.50654
2.53019
2.55066
2.56498
2.47282
2.4938
2.48475
2.49103
2.50639
2.52658
2.54416
2.55811
2.45659
2.47271
2.47252
2.4827
2.50068
2.52148
2.53445
2.54866
2.44659
2.45628
2.46544
2.47942
2.49658
2.51518
2.52394
2.53331
2.43851
2.44039
2.44838
2.46394
2.4825
2.50104
2.51042
2.51818
2.43473
2.42974
2.43337
2.4467
2.46605
2.48596
2.4991
2.50443
2.43093
2.42315
2.42235
2.4303
2.44434
2.46031
2.47642
2.4928
2.42489
2.41615
2.41012
2.41306
2.42013
2.43362
2.46194
2.52222
2.42121
2.40833
2.39829
2.39434
2.39292
2.39098
2.3767
2.31911
2.4197
2.4052
2.39013
2.37743
2.36609
2.34495
2.30625
2.19472
2.42018
2.40517
2.38715
2.36769
2.34709
2.31378
2.26011
2.13939
2.42079
2.40641
2.3877
2.36493
2.33777
2.30002
2.24022
2.14043
2.42065
2.40722
2.38876
2.36537
2.33607
2.29844
2.24266
2.15642
2.41988
2.4066
2.38887
2.3663
2.3373
2.30129
2.25163
2.18179
2.41936
2.40584
2.38846
2.3669
2.3396
2.30613
2.26417
2.20886
2.42025
2.40609
2.38883
2.36814
2.3429
2.31225
2.27689
2.23253
2.42389
2.40859
2.39112
2.37117
2.34798
2.32002
2.2895
2.25265
2.43038
2.41433
2.3965
2.377
2.35546
2.32992
2.30275
2.27087
2.43735
2.42194
2.40474
2.38594
2.36554
2.34188
2.3169
2.28823
2.44257
2.42895
2.41376
2.39649
2.37733
2.35532
2.33184
2.30548
2.44604
2.43433
2.42135
2.40583
2.3882
2.36789
2.34617
2.32213
2.44992
2.43925
2.42735
2.41291
2.39652
2.3778
2.35827
2.33702
2.45547
2.44453
2.43275
2.4189
2.40345
2.38599
2.36792
2.34933
2.46303
2.45113
2.43855
2.42435
2.40912
2.39275
2.37615
2.35959
2.47094
2.45897
2.44614
2.43198
2.4172
2.40176
2.38602
2.37012
2.47727
2.46603
2.4543
2.44225
2.42993
2.41654
2.4011
2.3833
2.48208
2.47147
2.46074
2.45071
2.44183
2.43162
2.41764
2.39873
2.48444
2.47536
2.46744
2.46099
2.45454
2.44545
2.43163
2.41123
2.48471
2.48013
2.47579
2.47025
2.46308
2.45324
2.43892
2.4189
2.48647
2.48585
2.48336
2.47781
2.46918
2.45705
2.44048
2.42095
2.4865
2.48902
2.48893
2.48454
2.47569
2.46052
2.44046
2.41927
2.48913
2.49187
2.4925
2.48796
2.47594
2.45795
2.43809
2.41793
1.67988
1.35021
1.2528
1.28088
1.38699
1.53442
1.68673
1.82254
1.90346
1.96102
2.03304
2.07082
2.12954
2.24598
2.26622
2.2692
2.27005
2.26948
2.26719
2.26429
2.26233
2.25778
2.24489
2.22853
2.21069
2.18895
2.16802
2.14868
2.12976
2.11194
2.09636
2.08218
2.06952
2.05732
2.04478
2.03347
2.0252
2.01934
2.01202
2.00392
1.99498
1.98344
1.96949
1.95576
1.94169
1.92783
1.91455
1.90008
1.88282
1.86415
1.85023
1.85125
1.87298
1.94212
2.05224
2.12163
2.10814
2.10092
2.10185
2.10556
2.10527
2.09956
2.09158
2.08324
2.07262
2.06187
2.05369
2.04586
2.03553
2.02168
2.0083
1.99836
1.99144
1.98638
1.98492
1.98846
1.99165
1.98909
1.98558
1.98212
1.97723
1.96864
1.95607
1.94179
1.92612
1.91219
1.90175
1.89408
1.84863
1.69112
1.57479
1.48388
1.47404
1.50238
1.54134
1.60269
1.68303
1.77778
1.87111
1.95018
2.03768
2.17806
2.21193
2.22312
2.22359
2.22226
2.22204
2.2221
2.22137
2.21623
2.20227
2.18827
2.17685
2.166
2.15446
2.14137
2.12587
2.11002
2.09537
2.08123
2.06662
2.05095
2.03599
2.02317
2.01335
2.00689
1.99997
1.99249
1.98418
1.973
1.95855
1.94484
1.93154
1.91776
1.90458
1.89061
1.87321
1.85951
1.85546
1.86541
1.89832
1.95122
2.02601
2.10028
2.09794
2.092
2.09122
2.09249
2.09179
2.08746
2.08039
2.0722
2.06394
2.05538
2.04573
2.03574
2.02658
2.01822
2.00992
2.00134
1.99314
1.98669
1.98351
1.98522
1.98675
1.98375
1.97995
1.9756
1.96857
1.95719
1.94462
1.93427
1.92458
1.91394
1.90321
1.89652
1.92932
1.79397
1.71249
1.61486
1.54736
1.52749
1.49987
1.51289
1.55489
1.61851
1.70643
1.80778
1.9136
2.06081
2.12834
2.15768
2.15416
2.15268
2.15686
2.16064
2.15883
2.14805
2.13267
2.12013
2.11401
2.11257
2.10942
2.10191
2.09057
2.07729
2.06704
2.05771
2.04612
2.03127
2.0131
1.99592
1.98431
1.97593
1.96928
1.96271
1.9556
1.9461
1.93352
1.92122
1.90865
1.89506
1.8818
1.86667
1.85205
1.85018
1.85521
1.88404
1.92084
1.94205
1.97771
2.05406
2.08078
2.07696
2.06966
2.06537
2.06314
2.06101
2.05661
2.05053
2.04424
2.03776
2.02906
2.01781
2.00852
2.00257
1.99734
1.99165
1.98566
1.98025
1.97706
1.97584
1.97284
1.96921
1.9652
1.95973
1.95013
1.93642
1.92444
1.91687
1.91115
1.90414
1.89692
1.8963
2.00491
1.88338
1.81086
1.74015
1.65397
1.61712
1.58671
1.55162
1.53772
1.55512
1.60297
1.67348
1.7622
1.8962
2.01346
2.08072
2.09254
2.09246
2.09582
2.09684
2.09175
2.07963
2.06724
2.06063
2.05797
2.06123
2.06065
2.0547
2.04611
2.03789
2.03134
2.02394
2.01383
2.00001
1.98149
1.9607
1.9439
1.9336
1.92649
1.92063
1.91473
1.90724
1.89749
1.88726
1.8762
1.86368
1.85007
1.83656
1.8373
1.84311
1.86687
1.90824
1.93218
1.92914
1.93536
1.98178
2.03807
2.04752
2.04055
2.03214
2.02854
2.02669
2.02514
2.02244
2.01717
2.01048
2.00282
1.99525
1.9892
1.98412
1.97982
1.97566
1.97121
1.96724
1.9632
1.95797
1.95298
1.94857
1.94309
1.93419
1.92215
1.91016
1.90248
1.8978
1.89314
1.88922
1.88644
1.89362
2.06182
1.96634
1.89139
1.8329
1.75826
1.69935
1.67265
1.6378
1.59619
1.58811
1.60296
1.6184
1.64976
1.73418
1.88815
2.01482
2.06903
2.08633
2.07724
2.06642
2.055
2.04361
2.03538
2.03005
2.0289
2.02962
2.02837
2.0245
2.02139
2.01948
2.014
2.0048
1.99192
1.97456
1.95499
1.93532
1.91723
1.90293
1.89376
1.8874
1.8808
1.87274
1.86387
1.85516
1.84448
1.83333
1.81918
1.81663
1.82275
1.84603
1.88588
1.92409
1.92691
1.91833
1.90922
1.92223
1.97233
2.00571
2.01254
2.00374
1.9983
1.99518
1.9936
1.99265
1.98927
1.98307
1.97632
1.97113
1.96695
1.96347
1.96119
1.95902
1.95664
1.95347
1.9479
1.9414
1.93404
1.92512
1.91524
1.90354
1.89219
1.88546
1.88123
1.87708
1.87517
1.87474
1.87777
1.89362
2.10887
2.03047
1.96288
1.90614
1.84596
1.78184
1.7471
1.72427
1.68917
1.65992
1.6458
1.6398
1.63502
1.64605
1.72024
1.89407
2.0508
2.08905
2.08585
2.06807
2.05203
2.04327
2.03553
2.02697
2.01883
2.01132
2.00683
2.0101
2.01323
2.00847
2.00016
1.98952
1.97513
1.95861
1.94206
1.92614
1.90969
1.89191
1.87365
1.85868
1.84933
1.84442
1.84112
1.83507
1.82593
1.81573
1.80825
1.81299
1.83512
1.87246
1.91121
1.92811
1.92563
1.91553
1.90034
1.89043
1.91163
1.95664
1.98235
1.98265
1.97844
1.97392
1.97091
1.97023
1.96847
1.9644
1.95929
1.95512
1.95177
1.94963
1.94897
1.94883
1.948
1.94387
1.93687
1.9264
1.91354
1.90184
1.8904
1.88049
1.87434
1.87058
1.86685
1.86368
1.86426
1.86697
1.8759
1.89977
2.14989
2.08424
2.02365
1.97133
1.91831
1.86159
1.81537
1.79072
1.76824
1.73439
1.70157
1.67835
1.66417
1.6648
1.67216
1.73848
1.93493
2.08604
2.0972
2.08152
2.06675
2.05705
2.047
2.03488
2.02255
2.0129
2.00479
2.00026
2.00057
1.99738
1.98969
1.98069
1.96972
1.95674
1.94374
1.92939
1.91176
1.88985
1.86696
1.8479
1.83555
1.82649
1.8186
1.81158
1.80587
1.80274
1.80819
1.83089
1.8719
1.91039
1.93227
1.93264
1.92825
1.91716
1.89733
1.87936
1.88017
1.90656
1.94993
1.96665
1.96949
1.96491
1.96041
1.95594
1.95321
1.95311
1.95225
1.94881
1.94681
1.94691
1.94752
1.94608
1.94235
1.93634
1.92638
1.9123
1.89728
1.8844
1.87532
1.86988
1.86606
1.86264
1.85911
1.85936
1.86127
1.86984
1.88725
1.91525
2.18384
2.12903
2.0774
2.03021
1.98295
1.93371
1.88658
1.85134
1.82899
1.80483
1.76884
1.73271
1.71754
1.70638
1.69522
1.70001
1.76795
1.96665
2.08872
2.09516
2.08669
2.07693
2.0649
2.04909
2.03248
2.02041
2.01135
2.00439
1.99825
1.9912
1.98305
1.97459
1.96593
1.95735
1.94701
1.93374
1.91511
1.8909
1.86616
1.847
1.83292
1.82021
1.81035
1.80372
1.80121
1.80636
1.82827
1.87314
1.91261
1.93874
1.94335
1.93953
1.93221
1.91993
1.90032
1.88133
1.87247
1.87931
1.91073
1.94973
1.96227
1.96404
1.95887
1.95398
1.95048
1.9489
1.95039
1.9512
1.9504
1.94972
1.94726
1.94361
1.93867
1.9305
1.91712
1.89992
1.88511
1.87553
1.86978
1.86623
1.86301
1.85972
1.85785
1.85918
1.86745
1.8861
1.91325
1.93566
2.21156
2.16609
2.12222
2.08038
2.03828
1.99402
1.95289
1.91517
1.88279
1.85909
1.83307
1.80058
1.76649
1.74581
1.73247
1.71826
1.72384
1.79025
1.97397
2.08446
2.09904
2.09064
2.07734
2.06043
2.04227
2.02835
2.01921
2.01003
2.00021
1.98992
1.97975
1.97017
1.9628
1.95475
1.94575
1.93521
1.91866
1.89425
1.86918
1.85003
1.83501
1.81989
1.80936
1.80456
1.80742
1.82261
1.86928
1.91291
1.94197
1.95608
1.95372
1.94722
1.93821
1.92605
1.91054
1.89241
1.87945
1.87438
1.8847
1.91899
1.95345
1.96466
1.96304
1.95886
1.95448
1.95241
1.9519
1.9507
1.94934
1.94782
1.94467
1.94096
1.93639
1.92876
1.91329
1.89201
1.87891
1.87365
1.87005
1.86615
1.86281
1.85996
1.85987
1.86635
1.88556
1.91188
1.9384
1.95109
2.23512
2.19648
2.15874
2.12124
2.08266
2.04286
2.00612
1.97396
1.9397
1.90716
1.88253
1.85717
1.82713
1.79669
1.77524
1.75816
1.74044
1.7427
1.81008
1.98614
2.08559
2.09294
2.08164
2.06406
2.04691
2.03561
2.02568
2.01472
2.00184
1.98927
1.97879
1.96891
1.9615
1.95391
1.94447
1.93437
1.92014
1.89901
1.87748
1.86098
1.84468
1.82662
1.81495
1.81428
1.82419
1.86766
1.91676
1.94316
1.96058
1.96585
1.96059
1.95364
1.94607
1.93582
1.92423
1.91015
1.89541
1.88332
1.87833
1.8919
1.92732
1.96041
1.96771
1.96695
1.96269
1.95917
1.95824
1.95598
1.9526
1.94917
1.9454
1.94151
1.93647
1.92814
1.91258
1.89334
1.88114
1.87366
1.86742
1.86252
1.85944
1.8591
1.86467
1.88239
1.90908
1.93558
1.9556
1.95868
2.25629
2.22217
2.18839
2.15415
2.11825
2.08411
2.0497
2.02034
1.99035
1.95712
1.92646
1.90152
1.87734
1.85158
1.8266
1.80095
1.77549
1.75536
1.76068
1.83337
1.99766
2.07778
2.07696
2.06178
2.04898
2.03886
2.02853
2.01656
2.00193
1.98812
1.9779
1.96864
1.96122
1.95206
1.94203
1.9316
1.91836
1.90205
1.88707
1.8724
1.8559
1.83771
1.8275
1.83378
1.87021
1.92592
1.95114
1.96186
1.96721
1.97065
1.96598
1.95978
1.95399
1.94673
1.93787
1.92699
1.91237
1.89761
1.88517
1.88096
1.89882
1.93875
1.96618
1.97233
1.97083
1.96896
1.96724
1.96286
1.95729
1.95198
1.94764
1.94337
1.93756
1.92831
1.91492
1.90028
1.88794
1.87808
1.86988
1.86559
1.86406
1.86693
1.88082
1.90484
1.9302
1.95192
1.9641
1.9625
2.27649
2.24553
2.21436
2.18157
2.1476
2.11591
2.0858
2.05641
2.02977
2.00046
1.96938
1.94245
1.91902
1.89633
1.87359
1.85003
1.82153
1.79042
1.77163
1.77747
1.85108
1.99737
2.05799
2.0601
2.04966
2.03957
2.02871
2.01612
2.00142
1.98791
1.97799
1.96985
1.96148
1.95067
1.93873
1.92611
1.91439
1.90513
1.8946
1.88066
1.8656
1.85067
1.84956
1.87806
1.9333
1.96579
1.97293
1.97177
1.97028
1.97072
1.96936
1.96499
1.95954
1.95408
1.94741
1.93791
1.92446
1.90989
1.89661
1.88727
1.88596
1.9099
1.94877
1.97003
1.97572
1.97867
1.97782
1.97155
1.96425
1.95743
1.95125
1.94541
1.9381
1.92916
1.92053
1.91148
1.90079
1.8882
1.87802
1.87589
1.87737
1.88569
1.90508
1.92854
1.94845
1.95949
1.96053
1.95547
2.29609
2.26839
2.23974
2.20807
2.17527
2.14517
2.11739
2.08885
2.05931
2.03025
2.00329
1.9801
1.95768
1.93565
1.91325
1.89065
1.86681
1.83603
1.80405
1.78567
1.79168
1.86137
1.98548
2.04433
2.04849
2.03948
2.02649
2.01279
1.99985
1.98821
1.97942
1.9712
1.96127
1.94953
1.9364
1.92305
1.91212
1.90156
1.89131
1.88298
1.87471
1.8714
1.89381
1.94159
1.97944
1.98819
1.98612
1.97937
1.97483
1.97136
1.9696
1.96815
1.96306
1.95721
1.95123
1.94351
1.93315
1.92039
1.90827
1.89743
1.88941
1.89325
1.92162
1.95538
1.97553
1.98348
1.98462
1.9791
1.97121
1.96311
1.95443
1.94647
1.9395
1.93343
1.92792
1.92212
1.91447
1.90488
1.89567
1.89409
1.8977
1.91216
1.93442
1.95197
1.96119
1.95961
1.95364
1.94483
2.31412
2.28985
2.26442
2.23559
2.20463
2.17457
2.14693
2.11893
2.08832
2.05836
2.03158
2.00885
1.98977
1.96923
1.94811
1.92484
1.90076
1.87602
1.84566
1.81558
1.79803
1.80254
1.86638
1.97951
2.04166
2.04021
2.02315
2.00811
1.99759
1.98865
1.98033
1.97128
1.96098
1.94902
1.93672
1.92511
1.91226
1.89779
1.88551
1.8806
1.88472
1.90858
1.96099
1.99268
2.00353
2.00199
1.99466
1.98599
1.97989
1.97482
1.97064
1.96801
1.96437
1.95914
1.9538
1.9472
1.93919
1.93077
1.92057
1.9094
1.89708
1.89178
1.90102
1.93133
1.96447
1.98372
1.98687
1.98292
1.97501
1.96564
1.95553
1.94782
1.94354
1.94003
1.93635
1.93294
1.92777
1.92213
1.9174
1.91694
1.92518
1.94539
1.96293
1.97008
1.96849
1.96092
1.95012
1.93913
2.33
2.30913
2.28609
2.25964
2.23205
2.20553
2.1774
2.14694
2.11628
2.08719
2.06048
2.0371
2.01612
1.99619
1.97574
1.95434
1.92968
1.90504
1.88006
1.85206
1.822
1.80615
1.80934
1.86906
1.97873
2.02617
2.02023
2.00786
1.99671
1.98766
1.979
1.97015
1.95998
1.94881
1.93845
1.92737
1.91232
1.89546
1.88668
1.88796
1.90964
1.97134
2.01215
2.02054
2.01734
2.01051
2.00211
1.99225
1.98417
1.97796
1.97211
1.9678
1.9647
1.96054
1.95653
1.95184
1.94634
1.94134
1.934
1.92261
1.90854
1.89523
1.89453
1.90853
1.94001
1.97137
1.98342
1.98238
1.97557
1.96562
1.9567
1.95197
1.9489
1.94696
1.94663
1.94596
1.94254
1.93985
1.94143
1.94509
1.95767
1.97539
1.98243
1.98064
1.97297
1.96004
1.9458
1.9364
2.34256
2.32398
2.30274
2.27834
2.25347
2.22953
2.20361
2.17533
2.14529
2.11491
2.08906
2.0652
2.04244
2.01956
1.99601
1.97362
1.95243
1.93014
1.90631
1.88071
1.85184
1.82225
1.807
1.81119
1.86843
1.96627
2.01291
2.00745
1.9982
1.98821
1.97855
1.96895
1.95833
1.94864
1.94037
1.92807
1.9118
1.89882
1.89379
1.90989
1.96635
2.02469
2.03761
2.03623
2.02881
2.01943
2.00897
1.99851
1.99032
1.98344
1.97748
1.9731
1.96978
1.96579
1.96216
1.95926
1.95587
1.95138
1.94549
1.93565
1.92127
1.90442
1.89391
1.89491
1.91017
1.94034
1.96592
1.97381
1.97163
1.96475
1.95927
1.95622
1.95478
1.95565
1.95784
1.95828
1.95714
1.95865
1.96843
1.97949
1.98815
1.99257
1.99025
1.98363
1.97259
1.95874
1.94906
1.94143
2.35291
2.33366
2.31232
2.28981
2.2675
2.24558
2.22134
2.19488
2.16991
2.14419
2.11708
2.09177
2.06694
2.04225
2.01792
1.99377
1.96956
1.9468
1.92576
1.90263
1.87584
1.84459
1.81701
1.80535
1.80956
1.8637
1.95701
1.99436
1.99524
1.99143
1.98004
1.96931
1.95807
1.94676
1.93523
1.92186
1.91122
1.90523
1.91565
1.96582
2.02919
2.05074
2.05124
2.0467
2.0388
2.02833
2.01623
2.00696
1.99965
1.99291
1.98722
1.98322
1.97973
1.97556
1.97225
1.96821
1.96262
1.95602
1.94828
1.93934
1.92803
1.91304
1.89746
1.88672
1.88824
1.90331
1.93302
1.95477
1.96339
1.96329
1.96198
1.9615
1.9637
1.96691
1.96824
1.96805
1.96944
1.97932
1.99852
2.00858
2.00646
1.99847
1.98989
1.98091
1.97101
1.96355
1.95933
1.95202
2.36321
2.34126
2.31822
2.29555
2.27424
2.25362
2.23097
2.20768
2.18677
2.16717
2.14315
2.11724
2.09087
2.06451
2.0386
2.01331
1.98864
1.96389
1.93903
1.91647
1.89406
1.86919
1.8387
1.81337
1.80076
1.8037
1.85668
1.94251
1.98208
1.98908
1.9807
1.9689
1.95767
1.94539
1.9279
1.91661
1.91298
1.92253
1.97028
2.03562
2.06398
2.06655
2.06212
2.055
2.04784
2.0382
2.02631
2.01792
2.01155
2.00562
2.00113
1.99736
1.99197
1.98665
1.98216
1.97641
1.96954
1.9618
1.95312
1.9438
1.93295
1.91924
1.90172
1.88329
1.87843
1.88172
1.8991
1.92879
1.951
1.96126
1.96549
1.97064
1.97791
1.97691
1.97436
1.97541
1.98326
2.00448
2.02327
2.02536
2.01503
2.00071
1.98769
1.97846
1.97352
1.97046
1.96952
1.96577
2.3749
2.3492
2.32424
2.30063
2.2785
2.2571
2.23572
2.21576
2.19822
2.18362
2.16375
2.13876
2.11312
2.08622
2.05902
2.03242
2.00638
1.9803
1.9541
1.92854
1.9047
1.88157
1.8564
1.82768
1.80535
1.79078
1.79524
1.8487
1.92784
1.96911
1.97745
1.96685
1.95524
1.93942
1.92166
1.91671
1.9219
1.96621
2.04525
2.07773
2.08023
2.07676
2.07057
2.06305
2.05583
2.04726
2.03684
2.02941
2.02397
2.01941
2.01436
2.00774
2.00071
1.994
1.98792
1.98116
1.97347
1.96508
1.95643
1.94755
1.93748
1.92445
1.90659
1.88642
1.87606
1.87602
1.88122
1.90446
1.93387
1.95778
1.97042
1.98288
1.98639
1.9827
1.9815
1.98813
2.00574
2.02975
2.03962
2.03315
2.01796
2.00362
1.99049
1.98179
1.97767
1.97477
1.9752
1.97952
2.38646
2.3598
2.33235
2.3064
2.28263
2.26061
2.24031
2.22205
2.20622
2.19331
2.17926
2.1567
2.13175
2.10569
2.07849
2.05091
2.02338
1.99569
1.96737
1.93891
1.91311
1.89155
1.87247
1.84864
1.82004
1.79435
1.78245
1.78906
1.84044
1.9166
1.9597
1.96299
1.95151
1.9318
1.91721
1.92007
1.95682
2.03816
2.09278
2.09585
2.08954
2.08302
2.07594
2.06861
2.06193
2.05516
2.04704
2.03953
2.03352
2.02735
2.0201
2.01238
2.00476
1.99762
1.99109
1.98384
1.97623
1.96858
1.96061
1.95197
1.94237
1.93054
1.91348
1.89291
1.87981
1.87593
1.87735
1.88951
1.91569
1.94587
1.96674
1.98053
1.98639
1.98647
1.99293
2.00631
2.03108
2.04819
2.04703
2.03726
2.02472
2.01038
1.99623
1.98775
1.9838
1.98172
1.98562
1.99589
2.3958
2.37023
2.34254
2.31471
2.28863
2.26557
2.24584
2.22827
2.21302
2.19952
2.18641
2.16841
2.14477
2.12004
2.09418
2.06739
2.03955
2.01039
1.98016
1.95064
1.9243
1.90122
1.87869
1.85488
1.82729
1.80036
1.78159
1.77531
1.78338
1.83343
1.90232
1.94426
1.94049
1.92756
1.922
1.94629
2.02681
2.09441
2.10492
2.09877
2.09222
2.08547
2.07884
2.07169
2.06486
2.05875
2.05206
2.04428
2.03708
2.02976
2.02138
2.01274
2.00479
1.99765
1.992
1.9865
1.98015
1.9735
1.96626
1.95823
1.94947
1.93905
1.92431
1.90498
1.8896
1.88261
1.88081
1.88488
1.8998
1.92533
1.95062
1.96941
1.97923
1.98945
2.00409
2.02414
2.04979
2.05532
2.05106
2.04412
2.03348
2.0204
2.00715
1.99911
1.99477
1.99387
1.99665
1.99997
2.3996
2.37649
2.35206
2.32701
2.30112
2.27569
2.25333
2.23599
2.22116
2.20547
2.18931
2.17422
2.15353
2.12988
2.10573
2.08066
2.05379
2.0245
1.9934
1.96247
1.93376
1.90772
1.88243
1.85751
1.83338
1.80894
1.78827
1.77266
1.76527
1.77416
1.81824
1.88602
1.9141
1.92045
1.94449
2.01446
2.08911
2.11385
2.10635
2.09701
2.09134
2.08606
2.08058
2.07362
2.06577
2.05771
2.05
2.04302
2.03634
2.02882
2.01952
2.01032
2.00283
1.99602
1.99088
1.98804
1.98343
1.97764
1.97161
1.96493
1.95728
1.94837
1.93702
1.92235
1.90691
1.89493
1.88696
1.88262
1.88448
1.89513
1.91893
1.9427
1.96288
1.98559
2.00908
2.03528
2.05434
2.05911
2.0575
2.05232
2.04386
2.03289
2.02233
2.01564
2.01157
2.00881
2.00659
2.00271
2.39775
2.37605
2.35431
2.33262
2.3111
2.28959
2.26837
2.24824
2.22897
2.20926
2.1904
2.17543
2.15877
2.13638
2.11327
2.0891
2.06331
2.03527
2.005
1.97418
1.94383
1.91243
1.88259
1.85777
1.83732
1.81827
1.79803
1.77807
1.76034
1.74851
1.75772
1.80022
1.86509
1.9237
1.99599
2.08704
2.1108
2.1098
2.10276
2.09494
2.08951
2.0858
2.08159
2.07479
2.06621
2.05642
2.04771
2.04043
2.03357
2.0259
2.01652
2.00687
1.9991
1.99232
1.98684
1.98389
1.98248
1.97949
1.97571
1.97146
1.96572
1.95888
1.95056
1.93894
1.92363
1.90773
1.89384
1.88193
1.87231
1.87201
1.88345
1.90821
1.94319
1.97928
2.00992
2.0378
2.05575
2.06302
2.06154
2.0575
2.05128
2.04346
2.03744
2.03314
2.0281
2.02127
2.01248
2.00312
2.3978
2.37826
2.3594
2.34011
2.32027
2.29979
2.27872
2.25663
2.23274
2.20953
2.19018
2.17625
2.16142
2.13991
2.11747
2.09412
2.06943
2.04303
2.01404
1.98174
1.94634
1.91112
1.88034
1.85709
1.83925
1.82284
1.805
1.78398
1.76243
1.7389
1.73196
1.74433
1.80665
1.92412
2.03899
2.13502
2.13241
2.11584
2.1006
2.09263
2.08785
2.08478
2.0803
2.07373
2.06504
2.05446
2.04506
2.03767
2.03103
2.0236
2.01436
2.00429
1.99575
1.98861
1.98261
1.97976
1.98092
1.98244
1.98266
1.98157
1.9774
1.97134
1.9632
1.95015
1.93193
1.91353
1.89741
1.88057
1.86248
1.85348
1.85705
1.87621
1.91848
1.96874
2.01276
2.04195
2.05552
2.06361
2.06282
2.06022
2.05867
2.0564
2.05203
2.04609
2.03855
2.02889
2.01704
1.99903
)
;

boundaryField
{
    inlet
    {
        type            fixedValue;
        value           uniform 1;
    }
    outlet
    {
        type            inletOutlet;
        inletValue      uniform 1;
        value           nonuniform List<scalar> 
24
(
1.89438
1.89658
1.89659
1.89415
1.89433
1.90031
1.9152
1.93519
1.95078
1.95843
1.9625
1.95587
1.94495
1.93898
1.93641
1.94136
1.95201
1.96686
1.9825
1.99926
2.00158
2.0031
2.00263
1.99698
)
;
    }
    bottom
    {
        type            zeroGradient;
    }
    top
    {
        type            zeroGradient;
    }
    obstacle
    {
        type            zeroGradient;
    }
    defaultFaces
    {
        type            empty;
    }
}


// ************************************************************************* //
