/*--------------------------------*- C++ -*----------------------------------*\
  =========                 |
  \\      /  F ield         | OpenFOAM: The Open Source CFD Toolbox
   \\    /   O peration     | Website:  https://openfoam.org
    \\  /    A nd           | Version:  7
     \\/     M anipulation  |
\*---------------------------------------------------------------------------*/
FoamFile
{
    version     2.0;
    format      ascii;
    class       volScalarField;
    location    "2";
    object      T;
}
// * * * * * * * * * * * * * * * * * * * * * * * * * * * * * * * * * * * * * //

dimensions      [0 0 0 1 0 0 0];

internalField   nonuniform List<scalar> 
16512
(
1.38868
1.38597
1.3861
1.39124
1.42608
1.53159
1.63156
1.66739
1.67698
1.66908
1.6621
1.66158
1.66726
1.68074
1.68569
1.68421
1.68005
1.66978
1.6534
1.64493
1.643
1.64217
1.64467
1.65386
1.66102
1.66138
1.65991
1.65432
1.64267
1.63416
1.63146
1.63128
1.63296
1.63592
1.63679
1.63641
1.63317
1.62653
1.6195
1.61668
1.6165
1.61653
1.61642
1.61579
1.61344
1.6071
1.60066
1.5993
1.59959
1.60148
1.6038
1.60488
1.60495
1.60422
1.60149
1.59462
1.58332
1.57506
1.57356
1.5742
1.57676
1.58165
1.58277
1.58237
1.58142
1.57715
1.56746
1.56
1.55907
1.5592
1.56046
1.56295
1.56387
1.56377
1.56322
1.56008
1.55021
1.54162
1.55054
1.60881
1.73286
1.86413
1.94174
1.98229
1.98673
1.9825
1.96956
1.95029
1.94009
1.93815
1.94004
1.94908
1.95494
1.95315
1.9469
1.93384
1.91627
1.90676
1.90361
1.90314
1.90914
1.91767
1.91758
1.91309
1.90271
1.88649
1.87501
1.87061
1.86861
1.87104
1.87911
1.88266
1.88023
1.87401
1.86316
1.84853
1.83858
1.83446
1.83236
1.83156
1.83316
1.83504
1.83339
1.83017
1.8272
1.82422
1.81917
1.80997
1.79951
1.794
1.79231
1.79116
1.7914
1.79271
1.7914
1.78888
1.78592
1.78055
1.77129
1.76321
1.76001
1.7578
1.75611
1.75464
1.75399
1.7549
1.76164
1.77977
1.81107
1.85274
1.87775
1.88871
1.88849
1.88761
1.88518
1.88186
1.87695
1.86985
1.86173
1.85624
1.85363
1.8515
1.85099
1.85001
1.84674
1.84324
1.83853
1.83009
1.82063
1.81539
1.81252
1.81041
1.81017
1.80967
1.80664
1.80363
1.80039
1.79557
1.7881
1.78098
1.77754
1.77524
1.77322
1.77101
1.76836
1.76554
1.76223
1.75769
1.75216
1.74851
1.74618
1.74384
1.74132
1.7387
1.73609
1.73337
1.73026
1.72643
1.72167
1.71723
1.71428
1.71171
1.70907
1.70636
1.70344
1.69996
1.69535
1.69011
1.68653
1.6841
1.68195
1.68002
1.67778
1.67523
1.67262
1.66991
1.66646
1.66109
1.65466
1.65116
1.64922
1.64727
1.64515
1.64284
1.64026
1.63743
1.63421
1.63035
1.62661
1.62423
1.62229
1.62033
1.61843
1.61651
1.61433
1.61128
1.60671
1.60194
1.59872
1.59642
1.59431
1.59223
1.59024
1.5883
1.58574
1.5816
1.57651
1.57386
1.57236
1.57105
1.56962
1.5677
1.56554
1.56277
1.55853
1.55312
1.54924
1.54785
1.38756
1.38629
1.38612
1.38671
1.39332
1.43295
1.53242
1.61823
1.65268
1.65823
1.66262
1.67149
1.6841
1.68736
1.68512
1.68131
1.67273
1.65654
1.64639
1.64433
1.64336
1.64572
1.6549
1.66211
1.6628
1.66151
1.65577
1.64439
1.63623
1.63364
1.63355
1.63602
1.63887
1.63924
1.63846
1.63467
1.62746
1.62052
1.61773
1.61749
1.61808
1.61838
1.61817
1.61647
1.61049
1.60256
1.60003
1.60004
1.60106
1.60343
1.60523
1.60558
1.60525
1.60343
1.59789
1.58772
1.57823
1.57561
1.57602
1.57795
1.58281
1.58485
1.58451
1.58387
1.58029
1.57121
1.56216
1.56
1.56002
1.56079
1.56345
1.56431
1.56453
1.56413
1.56279
1.55407
1.55462
1.58829
1.69127
1.8272
1.92002
1.97281
1.99178
1.99151
1.98487
1.97041
1.95125
1.94129
1.93897
1.94111
1.95086
1.95675
1.95498
1.94904
1.93653
1.91829
1.907
1.90336
1.90319
1.90977
1.91859
1.9187
1.9147
1.90549
1.88975
1.87598
1.87049
1.86952
1.87343
1.88168
1.88432
1.88171
1.87537
1.8648
1.85053
1.83946
1.83464
1.83307
1.83281
1.83484
1.8369
1.83557
1.83261
1.82961
1.82653
1.82164
1.81324
1.80243
1.7948
1.79243
1.79106
1.79119
1.79342
1.79314
1.79102
1.78852
1.78428
1.77553
1.76641
1.76224
1.75979
1.75773
1.75588
1.75502
1.75625
1.76359
1.78522
1.81936
1.85744
1.88513
1.88872
1.88937
1.88787
1.88679
1.8839
1.87983
1.87357
1.86445
1.85667
1.8537
1.85183
1.85206
1.85252
1.84995
1.8463
1.84162
1.83327
1.82336
1.81714
1.81426
1.81205
1.81152
1.81165
1.80913
1.80594
1.80277
1.79832
1.79081
1.7832
1.77929
1.77708
1.77522
1.77329
1.77075
1.76793
1.76481
1.7608
1.75522
1.75003
1.74727
1.74507
1.74283
1.74038
1.73776
1.73508
1.73225
1.72883
1.72434
1.71946
1.71588
1.71343
1.711
1.70846
1.70587
1.70295
1.69902
1.69349
1.68857
1.68575
1.68346
1.68142
1.67932
1.67689
1.67438
1.67173
1.6686
1.66448
1.65853
1.6533
1.65078
1.64882
1.6468
1.64469
1.6425
1.64022
1.63767
1.63442
1.63013
1.62623
1.62371
1.62151
1.61921
1.61687
1.61456
1.61218
1.60946
1.60604
1.60221
1.59928
1.597
1.59476
1.59227
1.5896
1.5869
1.58396
1.58013
1.57584
1.57348
1.5719
1.57035
1.56871
1.56672
1.56454
1.56176
1.5571
1.55145
1.54875
1.54757
1.389
1.38853
1.38776
1.38717
1.38659
1.39166
1.42868
1.51267
1.60034
1.64138
1.66693
1.68414
1.68803
1.68642
1.68209
1.67473
1.66062
1.64834
1.6459
1.64499
1.64745
1.65651
1.66316
1.66389
1.66284
1.6571
1.6459
1.63811
1.6354
1.63518
1.63778
1.64108
1.64127
1.64017
1.63625
1.62882
1.622
1.61918
1.61895
1.61992
1.62096
1.62095
1.61975
1.6146
1.6055
1.60118
1.60105
1.60138
1.60296
1.60515
1.6059
1.60578
1.60458
1.60036
1.59174
1.58193
1.57804
1.57819
1.57963
1.58397
1.58671
1.58644
1.58598
1.58293
1.57446
1.56456
1.56121
1.56098
1.5614
1.56385
1.56527
1.56501
1.56541
1.56356
1.56224
1.58083
1.65966
1.79238
1.8985
1.95677
1.9865
1.99586
1.99452
1.98694
1.97106
1.95164
1.94204
1.93977
1.94204
1.95214
1.95821
1.95653
1.95056
1.93774
1.91946
1.90893
1.90546
1.90493
1.91108
1.92013
1.92016
1.9156
1.90536
1.88959
1.87855
1.87436
1.87296
1.87647
1.88484
1.88704
1.88381
1.87649
1.86418
1.84962
1.84094
1.83719
1.83535
1.83497
1.83663
1.83838
1.83732
1.8348
1.83202
1.82902
1.82412
1.81526
1.80395
1.79657
1.79382
1.79226
1.79191
1.79394
1.79455
1.79278
1.79065
1.78741
1.77971
1.76999
1.76441
1.7618
1.75957
1.75759
1.7565
1.75808
1.76681
1.78988
1.8282
1.86463
1.8865
1.89041
1.88901
1.88798
1.88791
1.88582
1.88196
1.87686
1.86869
1.85989
1.8557
1.85345
1.85295
1.85397
1.85252
1.84921
1.84506
1.83758
1.82703
1.8188
1.81542
1.81297
1.81213
1.81287
1.81159
1.80844
1.8053
1.80129
1.79422
1.78587
1.78065
1.77834
1.77641
1.77481
1.77272
1.77012
1.76718
1.76353
1.75842
1.75249
1.74881
1.74639
1.74412
1.74183
1.73948
1.73697
1.73419
1.73097
1.72674
1.72102
1.7168
1.71455
1.71245
1.7101
1.70744
1.70479
1.70207
1.69823
1.69267
1.68803
1.68531
1.68311
1.68116
1.67892
1.6764
1.67375
1.67094
1.66753
1.66229
1.65645
1.65298
1.65093
1.64902
1.64711
1.6451
1.64284
1.64025
1.63721
1.63356
1.62962
1.62623
1.62354
1.62107
1.61848
1.61576
1.61305
1.61022
1.60682
1.60312
1.60041
1.59849
1.59672
1.59484
1.59266
1.58998
1.58669
1.58289
1.57871
1.57507
1.57289
1.57127
1.56954
1.56759
1.56554
1.5634
1.56036
1.55592
1.55236
1.55037
1.54874
1.39126
1.39099
1.39019
1.38887
1.38568
1.38192
1.38643
1.42043
1.51202
1.60573
1.66557
1.68678
1.68679
1.68278
1.67447
1.66241
1.65087
1.64785
1.6473
1.6504
1.65961
1.66498
1.66537
1.66413
1.65833
1.64759
1.64024
1.6373
1.63678
1.63883
1.64207
1.64244
1.64147
1.6374
1.62964
1.62321
1.62059
1.6205
1.62192
1.62406
1.62423
1.6234
1.61915
1.60952
1.60287
1.6023
1.60243
1.60318
1.60505
1.60621
1.60619
1.60533
1.60214
1.59504
1.58581
1.58082
1.58065
1.58173
1.58544
1.58847
1.58829
1.58786
1.58511
1.57726
1.56697
1.56263
1.56207
1.56222
1.56448
1.56628
1.56589
1.56641
1.56691
1.57963
1.63947
1.75581
1.88066
1.94397
1.97553
1.99383
1.99892
1.9964
1.98809
1.9721
1.95261
1.94348
1.94102
1.94304
1.95298
1.95927
1.95773
1.95207
1.93924
1.92073
1.90976
1.90614
1.90608
1.91264
1.92133
1.9214
1.91732
1.90806
1.89246
1.87949
1.87466
1.87406
1.87871
1.88712
1.88884
1.88582
1.87886
1.86686
1.85183
1.84168
1.83735
1.83593
1.83626
1.83849
1.83973
1.83861
1.83648
1.83395
1.83108
1.82647
1.81857
1.80777
1.79838
1.79426
1.79254
1.79204
1.79421
1.79575
1.79424
1.7923
1.7897
1.78325
1.77365
1.76669
1.76382
1.76154
1.75958
1.75843
1.7604
1.77111
1.7973
1.83468
1.87363
1.88876
1.89396
1.89163
1.88988
1.88987
1.88789
1.8838
1.87826
1.86977
1.86166
1.85745
1.85526
1.85452
1.85563
1.85462
1.85162
1.84807
1.84166
1.83137
1.822
1.81775
1.81506
1.81335
1.81368
1.81339
1.81046
1.80749
1.80412
1.79824
1.78979
1.78302
1.78026
1.77821
1.77655
1.77468
1.77223
1.76948
1.76622
1.76173
1.75551
1.75055
1.74801
1.74585
1.74367
1.74136
1.73893
1.73645
1.73368
1.72981
1.72397
1.71852
1.71567
1.71356
1.7115
1.70929
1.7067
1.70374
1.70037
1.69593
1.69092
1.68754
1.68507
1.68303
1.68111
1.67884
1.67635
1.67354
1.67011
1.66531
1.65877
1.6538
1.65178
1.65012
1.64857
1.64703
1.64534
1.6434
1.64105
1.63778
1.63322
1.62875
1.62558
1.62296
1.62036
1.61773
1.61485
1.61152
1.60808
1.60457
1.60135
1.59899
1.59718
1.59558
1.59402
1.59229
1.58999
1.58654
1.58205
1.57784
1.57491
1.57261
1.57061
1.56872
1.56666
1.56416
1.56093
1.5576
1.55487
1.55295
1.55143
1.55009
1.39347
1.39293
1.39209
1.38964
1.38365
1.37977
1.38
1.38634
1.43149
1.54016
1.62871
1.67932
1.68426
1.67985
1.66552
1.6512
1.64825
1.64889
1.65441
1.66478
1.66842
1.66837
1.6661
1.65966
1.64932
1.64302
1.63963
1.63874
1.64003
1.64251
1.64307
1.6422
1.63803
1.63009
1.62387
1.62148
1.62153
1.62308
1.62614
1.62722
1.62682
1.62374
1.61493
1.60586
1.60398
1.6041
1.60433
1.60543
1.60656
1.60664
1.60592
1.60334
1.59758
1.58956
1.58392
1.58331
1.58421
1.58738
1.5904
1.59024
1.58965
1.58687
1.57959
1.56936
1.56429
1.56347
1.56341
1.56522
1.56708
1.56804
1.56854
1.57808
1.62224
1.72945
1.85832
1.93493
1.96635
1.98388
1.99647
2.00037
1.99773
1.98954
1.97458
1.95544
1.94498
1.94211
1.94402
1.95391
1.96048
1.95896
1.95353
1.94115
1.92276
1.91164
1.90792
1.90785
1.91466
1.92347
1.92326
1.91864
1.90855
1.89302
1.88208
1.878
1.87682
1.88081
1.88924
1.8907
1.88745
1.87994
1.8668
1.85218
1.8441
1.84034
1.83836
1.83844
1.84047
1.84115
1.83986
1.83791
1.83562
1.83288
1.82828
1.82023
1.80947
1.80097
1.7969
1.79478
1.79381
1.79523
1.79692
1.79555
1.79365
1.79139
1.78616
1.77684
1.7688
1.76563
1.76332
1.76169
1.76085
1.76341
1.77594
1.80649
1.84375
1.87917
1.89664
1.89361
1.89269
1.89027
1.89076
1.89012
1.88635
1.88108
1.8725
1.86322
1.85751
1.85526
1.85471
1.85678
1.85717
1.85433
1.85096
1.84535
1.83525
1.8249
1.81971
1.81704
1.81506
1.81509
1.81524
1.81256
1.80951
1.80637
1.80133
1.79323
1.78575
1.78247
1.78028
1.77852
1.77682
1.77456
1.77192
1.76883
1.76474
1.75876
1.75263
1.74945
1.74721
1.74525
1.74333
1.74114
1.7386
1.73562
1.73196
1.72646
1.72018
1.71689
1.71507
1.71324
1.71112
1.70878
1.70643
1.70358
1.69933
1.69353
1.68921
1.68673
1.68462
1.683
1.68117
1.67898
1.67649
1.67341
1.66925
1.66261
1.65618
1.65298
1.65093
1.64913
1.6476
1.6462
1.64472
1.64316
1.64115
1.63804
1.63373
1.62955
1.62617
1.62309
1.62
1.61689
1.61378
1.61052
1.60646
1.60234
1.59983
1.5981
1.59652
1.59511
1.59378
1.59231
1.59037
1.58736
1.58245
1.57704
1.57363
1.57128
1.5693
1.56759
1.56568
1.56319
1.55965
1.5561
1.55424
1.55272
1.55127
1.54989
1.39545
1.39468
1.39275
1.38795
1.38176
1.37964
1.37951
1.38262
1.39656
1.45899
1.55882
1.64102
1.67214
1.66891
1.65346
1.6478
1.64953
1.65778
1.67043
1.67225
1.67185
1.66883
1.66194
1.65201
1.64605
1.64272
1.64093
1.64137
1.64314
1.64365
1.64226
1.63782
1.63092
1.62469
1.6222
1.62232
1.6238
1.62668
1.62858
1.62857
1.62673
1.62
1.61002
1.60607
1.60625
1.60631
1.60679
1.6075
1.60755
1.60678
1.60435
1.59958
1.59296
1.58733
1.58618
1.58707
1.58982
1.59255
1.59238
1.59145
1.5883
1.58139
1.57164
1.56621
1.56511
1.56511
1.56609
1.56895
1.57019
1.57609
1.6092
1.70353
1.82953
1.93387
1.96742
1.98003
1.98914
1.9988
2.00154
1.99918
1.99138
1.97652
1.95794
1.94787
1.94466
1.94591
1.95511
1.96184
1.96036
1.95496
1.94271
1.92466
1.91398
1.91029
1.91002
1.91637
1.92482
1.92482
1.92059
1.9113
1.89586
1.88331
1.87864
1.8779
1.8821
1.88991
1.89109
1.88829
1.88162
1.86957
1.85478
1.84531
1.84126
1.83967
1.8404
1.8426
1.84261
1.8412
1.83945
1.83711
1.83418
1.82968
1.82253
1.81281
1.80329
1.79799
1.79595
1.79502
1.79643
1.7983
1.79702
1.79504
1.79289
1.78847
1.77978
1.77099
1.76702
1.76499
1.76319
1.76359
1.76717
1.78197
1.81471
1.85441
1.88841
1.9001
1.89555
1.89179
1.88978
1.8905
1.8917
1.88898
1.88427
1.87639
1.86642
1.85918
1.85653
1.8552
1.85688
1.85868
1.85649
1.85324
1.84864
1.83976
1.82856
1.82158
1.81868
1.81651
1.81626
1.8171
1.81531
1.81206
1.80886
1.80445
1.79653
1.78836
1.78412
1.78191
1.78016
1.77867
1.77662
1.77417
1.77139
1.76788
1.76265
1.75585
1.75151
1.74911
1.747
1.74505
1.74288
1.74053
1.73803
1.73485
1.72961
1.72292
1.71841
1.71621
1.71444
1.71274
1.71061
1.70804
1.70515
1.70158
1.69601
1.69081
1.68828
1.68614
1.68434
1.68315
1.68142
1.67934
1.67685
1.67331
1.6667
1.6591
1.65489
1.65276
1.65083
1.64909
1.64743
1.64573
1.64398
1.64211
1.63983
1.63675
1.63321
1.63018
1.62758
1.62472
1.62136
1.61749
1.61314
1.60822
1.60334
1.60007
1.59825
1.5967
1.5952
1.59382
1.5926
1.59141
1.59001
1.58762
1.58339
1.57811
1.57366
1.57037
1.56756
1.56514
1.56346
1.56175
1.55891
1.55609
1.55442
1.55298
1.55161
1.55015
1.39736
1.39548
1.39105
1.38515
1.38214
1.38158
1.38176
1.38556
1.39143
1.40807
1.45938
1.54893
1.62912
1.64972
1.64446
1.64862
1.65765
1.67149
1.6745
1.67386
1.67222
1.66603
1.6554
1.64932
1.64604
1.64385
1.64285
1.64395
1.64423
1.64252
1.63759
1.6319
1.62637
1.62303
1.62289
1.62416
1.62682
1.62875
1.62901
1.62805
1.62355
1.61454
1.60815
1.6081
1.60835
1.60867
1.60902
1.60902
1.60828
1.60601
1.60171
1.59592
1.59075
1.58924
1.59014
1.59267
1.59482
1.59456
1.59313
1.58935
1.58271
1.57369
1.56808
1.5669
1.56694
1.568
1.57084
1.57572
1.59895
1.67761
1.80666
1.92064
1.97605
1.98077
1.9843
1.98913
1.99866
2.00141
1.99936
1.99291
1.9791
1.96054
1.95005
1.94657
1.94759
1.95612
1.96274
1.96133
1.95625
1.94486
1.92709
1.91594
1.91235
1.91215
1.91835
1.9264
1.92608
1.92157
1.91212
1.89745
1.88633
1.88195
1.88062
1.88405
1.89112
1.89179
1.88848
1.88102
1.86812
1.85502
1.84836
1.84494
1.84294
1.84351
1.84528
1.84461
1.84291
1.841
1.83838
1.83509
1.8303
1.82332
1.81418
1.80576
1.80085
1.79855
1.79733
1.79816
1.79986
1.79861
1.79647
1.79433
1.79069
1.78266
1.77319
1.76823
1.76634
1.76472
1.76546
1.77065
1.78895
1.82409
1.86373
1.89489
1.90423
1.89997
1.89444
1.89166
1.89195
1.89323
1.89115
1.88698
1.87961
1.86906
1.86119
1.85793
1.85609
1.85706
1.85928
1.8578
1.85467
1.85053
1.84262
1.83183
1.8239
1.82073
1.81848
1.81765
1.81865
1.81791
1.8148
1.81158
1.80772
1.80051
1.79179
1.78609
1.78359
1.78165
1.78032
1.77864
1.77634
1.77372
1.77048
1.76586
1.75915
1.75357
1.75091
1.7488
1.74696
1.74497
1.74257
1.73979
1.73644
1.73178
1.72536
1.72016
1.718
1.71625
1.71447
1.71243
1.71024
1.70781
1.70435
1.6985
1.69247
1.68944
1.68753
1.68598
1.6849
1.68337
1.68144
1.67943
1.67664
1.67129
1.66319
1.65684
1.65417
1.6521
1.65024
1.64852
1.64681
1.64519
1.64348
1.64124
1.6383
1.63443
1.63144
1.62958
1.62767
1.62528
1.62215
1.61804
1.61273
1.60668
1.60188
1.59903
1.59696
1.5953
1.59386
1.5925
1.59107
1.5896
1.58807
1.58599
1.58259
1.57808
1.57419
1.57106
1.56792
1.56458
1.56121
1.55856
1.557
1.55565
1.55411
1.55264
1.55126
1.54982
1.39834
1.39391
1.38791
1.38484
1.38444
1.38519
1.38905
1.39222
1.39231
1.39201
1.40059
1.43834
1.53882
1.60728
1.63109
1.65246
1.66972
1.67448
1.67283
1.67215
1.66898
1.66079
1.65473
1.65089
1.6476
1.64484
1.64492
1.64461
1.64303
1.63896
1.63444
1.62968
1.62587
1.62433
1.62478
1.62707
1.62896
1.62907
1.62813
1.62507
1.61886
1.61095
1.60921
1.60987
1.61017
1.61031
1.61028
1.60968
1.60784
1.60411
1.59885
1.594
1.59248
1.59341
1.59581
1.59712
1.59675
1.59442
1.59003
1.58363
1.57544
1.57001
1.5687
1.56888
1.57028
1.57465
1.59206
1.65566
1.77985
1.9014
1.98206
1.9932
1.98906
1.98632
1.98828
1.99662
2.00014
1.99843
1.99328
1.98177
1.96429
1.95284
1.94898
1.94941
1.95738
1.96406
1.9624
1.95678
1.94539
1.92869
1.91821
1.91464
1.91423
1.91994
1.92758
1.92725
1.92286
1.91359
1.89919
1.88799
1.88351
1.88253
1.88601
1.89199
1.8921
1.88895
1.88202
1.86992
1.85645
1.84864
1.84547
1.84454
1.84647
1.84854
1.84733
1.84531
1.84303
1.83973
1.83561
1.83059
1.82448
1.81661
1.80802
1.8021
1.79995
1.79885
1.79956
1.80126
1.80014
1.79794
1.79579
1.79267
1.78567
1.77585
1.76935
1.76762
1.76636
1.76729
1.77396
1.79521
1.83467
1.87279
1.90099
1.90749
1.90199
1.8968
1.89374
1.89339
1.89501
1.89332
1.88935
1.88314
1.87338
1.8639
1.85942
1.85743
1.85804
1.86048
1.85935
1.85618
1.85218
1.84461
1.83373
1.8252
1.8217
1.81964
1.81883
1.82007
1.8203
1.81759
1.81444
1.81081
1.80419
1.7953
1.78854
1.78566
1.78342
1.78186
1.78048
1.77838
1.77598
1.77313
1.7693
1.76305
1.75605
1.75256
1.7504
1.74849
1.74663
1.74435
1.74182
1.73892
1.73486
1.72842
1.72215
1.71941
1.71768
1.71619
1.71438
1.7122
1.70961
1.7062
1.70068
1.69413
1.69009
1.68812
1.68657
1.68599
1.68573
1.68369
1.68143
1.67905
1.67508
1.66762
1.66018
1.65653
1.65427
1.65221
1.65022
1.6482
1.64617
1.64413
1.64221
1.64011
1.63674
1.63304
1.63092
1.6293
1.62754
1.62534
1.62239
1.6181
1.61187
1.60561
1.6017
1.59897
1.59652
1.59436
1.59264
1.59123
1.58972
1.58803
1.5862
1.58352
1.57964
1.57612
1.57361
1.57136
1.56867
1.56499
1.5607
1.55783
1.55622
1.55479
1.55331
1.55187
1.55046
1.54891
1.39695
1.39064
1.38723
1.38673
1.3875
1.39177
1.39575
1.39548
1.39328
1.3879
1.38231
1.38849
1.43968
1.5463
1.60796
1.6507
1.6715
1.67251
1.67173
1.66929
1.6622
1.65774
1.65569
1.65273
1.64833
1.64702
1.64567
1.64349
1.64006
1.6365
1.63264
1.62955
1.62752
1.62703
1.62835
1.63002
1.62978
1.62844
1.6259
1.62201
1.61624
1.61066
1.61041
1.61106
1.61109
1.61093
1.61045
1.60913
1.60611
1.60157
1.59726
1.5959
1.59685
1.59902
1.5997
1.59862
1.59527
1.59048
1.58438
1.57702
1.57193
1.57056
1.57108
1.57353
1.58556
1.63661
1.75099
1.87923
1.97407
2.00813
2.00044
1.99264
1.98875
1.98942
1.99666
1.99972
1.99789
1.99292
1.98174
1.96583
1.956
1.95227
1.95225
1.95909
1.96543
1.96376
1.95814
1.9469
1.93039
1.91978
1.91636
1.91624
1.92197
1.92874
1.92814
1.92376
1.91454
1.90061
1.89018
1.88607
1.88492
1.88836
1.89386
1.89332
1.88958
1.88147
1.8682
1.85672
1.85137
1.8485
1.84731
1.84939
1.85177
1.85062
1.84885
1.84597
1.84097
1.83557
1.83054
1.82508
1.81818
1.81057
1.80469
1.80226
1.80089
1.80102
1.80234
1.80139
1.79914
1.79696
1.79429
1.78832
1.77859
1.77085
1.76852
1.76779
1.7692
1.77748
1.80186
1.84379
1.88219
1.90772
1.91102
1.90429
1.897
1.8939
1.89352
1.89595
1.89546
1.89188
1.88638
1.87717
1.86744
1.86264
1.8602
1.86017
1.86247
1.86167
1.85836
1.85424
1.84677
1.83622
1.82703
1.82254
1.82043
1.81951
1.82098
1.82231
1.82031
1.81723
1.81397
1.80812
1.79872
1.79074
1.78744
1.78526
1.78352
1.78231
1.78036
1.77806
1.7755
1.77222
1.76666
1.75924
1.75452
1.75224
1.75033
1.74857
1.74641
1.74383
1.74078
1.73694
1.73117
1.72464
1.72114
1.71929
1.71782
1.71622
1.71429
1.71208
1.70919
1.7044
1.69746
1.69183
1.6893
1.68732
1.68616
1.68636
1.68528
1.68317
1.68124
1.67828
1.67159
1.66323
1.65845
1.65632
1.65435
1.65247
1.65041
1.6483
1.64618
1.64379
1.64096
1.63731
1.63367
1.63187
1.63061
1.62924
1.62759
1.6254
1.62236
1.61779
1.61134
1.60535
1.60163
1.59895
1.59645
1.5939
1.59149
1.58962
1.58847
1.58765
1.58585
1.58227
1.57762
1.57444
1.57252
1.57068
1.56859
1.56578
1.5621
1.55855
1.55624
1.55472
1.55343
1.55213
1.55064
1.54878
1.39353
1.38965
1.38901
1.38956
1.39359
1.39814
1.39833
1.39678
1.39231
1.38321
1.37853
1.37897
1.39269
1.46521
1.55807
1.632
1.66555
1.66982
1.66939
1.66388
1.65773
1.65569
1.65538
1.65162
1.65013
1.64856
1.64526
1.64192
1.63885
1.63551
1.63266
1.63138
1.63046
1.63092
1.63143
1.6308
1.62944
1.62735
1.62468
1.62121
1.61647
1.61135
1.61056
1.61088
1.61088
1.61066
1.60976
1.60747
1.60386
1.60041
1.59933
1.60036
1.60222
1.60245
1.60023
1.59604
1.59102
1.58521
1.5787
1.57376
1.57284
1.57389
1.58093
1.61968
1.72086
1.85572
1.95593
2.01303
2.01795
2.00672
1.99493
1.99017
1.99046
1.99736
2.0007
1.99851
1.99331
1.98263
1.96711
1.95713
1.95378
1.95433
1.96133
1.96722
1.96522
1.95921
1.94785
1.93207
1.92222
1.91885
1.91875
1.92457
1.93083
1.92966
1.92479
1.9151
1.90136
1.89163
1.88778
1.88677
1.89001
1.89486
1.89414
1.89075
1.88343
1.87078
1.85799
1.85125
1.84874
1.84861
1.85205
1.8547
1.85345
1.8516
1.84787
1.84162
1.83566
1.83077
1.82604
1.82038
1.81332
1.80674
1.80414
1.80264
1.80237
1.80316
1.80229
1.80008
1.7979
1.79541
1.79065
1.78194
1.77296
1.76961
1.76906
1.77093
1.78101
1.80966
1.85241
1.89106
1.91308
1.91458
1.90833
1.899
1.89486
1.89393
1.89627
1.89703
1.89408
1.8891
1.88035
1.87025
1.86457
1.86216
1.86197
1.86461
1.86482
1.86166
1.85744
1.84984
1.83871
1.82879
1.82393
1.82177
1.82051
1.8216
1.82359
1.82228
1.8194
1.81646
1.81168
1.80306
1.79383
1.7891
1.78695
1.78526
1.78428
1.78253
1.78016
1.77774
1.77478
1.76988
1.76237
1.75632
1.75377
1.75186
1.75028
1.74842
1.74606
1.74334
1.7399
1.73453
1.72761
1.72298
1.72093
1.7194
1.71791
1.71601
1.71384
1.71116
1.70711
1.70034
1.69386
1.69097
1.68907
1.68754
1.6875
1.68693
1.68458
1.6822
1.6796
1.67449
1.66714
1.66077
1.658
1.6559
1.65413
1.65229
1.65029
1.64822
1.64599
1.64345
1.63958
1.63469
1.63198
1.63073
1.62943
1.62797
1.62618
1.62423
1.62142
1.61678
1.61115
1.60676
1.60349
1.60038
1.59733
1.59452
1.5918
1.58909
1.58657
1.58399
1.58131
1.57869
1.57594
1.57397
1.57234
1.57054
1.56848
1.56612
1.5633
1.56024
1.55745
1.55496
1.55268
1.5505
1.54843
1.5465
1.39221
1.39136
1.39177
1.39541
1.40028
1.40077
1.39948
1.39593
1.38785
1.37987
1.37816
1.37828
1.38147
1.40809
1.47608
1.57104
1.6434
1.66356
1.66154
1.6572
1.65313
1.6537
1.65389
1.65258
1.65181
1.649
1.64481
1.64138
1.63817
1.63549
1.6339
1.63358
1.6341
1.63374
1.63214
1.63076
1.62916
1.62739
1.62512
1.62163
1.61571
1.61094
1.61058
1.61037
1.60993
1.60952
1.60826
1.60571
1.6032
1.6025
1.60366
1.60533
1.60516
1.60199
1.59685
1.59144
1.5863
1.58031
1.57609
1.57573
1.57911
1.60568
1.692
1.82801
1.93727
2.00782
2.02545
2.02217
2.00957
1.99771
1.99239
1.99228
1.9986
2.00231
2
1.99412
1.98258
1.96767
1.95916
1.95598
1.95622
1.96311
1.96896
1.96692
1.96086
1.94958
1.93415
1.92408
1.92077
1.92082
1.92653
1.93226
1.93102
1.92622
1.91662
1.90271
1.89294
1.88935
1.88846
1.89177
1.89633
1.89525
1.89133
1.88323
1.87032
1.85951
1.85441
1.85176
1.85129
1.85464
1.85754
1.85614
1.85381
1.84903
1.84175
1.83558
1.83094
1.82683
1.82216
1.81602
1.8096
1.80663
1.80491
1.80403
1.80404
1.80303
1.80084
1.7986
1.79618
1.79223
1.78438
1.77514
1.77081
1.77056
1.77316
1.78556
1.8174
1.86289
1.89905
1.9182
1.91834
1.91118
1.90179
1.89737
1.89576
1.89764
1.89856
1.89578
1.89128
1.88322
1.873
1.86625
1.86374
1.86333
1.86621
1.86773
1.86536
1.86158
1.85464
1.8432
1.83179
1.82555
1.82293
1.82144
1.8222
1.82461
1.82392
1.82111
1.81821
1.81396
1.80607
1.79672
1.79093
1.78857
1.78689
1.78616
1.78502
1.78254
1.77998
1.77713
1.7729
1.76552
1.75843
1.7552
1.75321
1.75172
1.7503
1.74817
1.74561
1.74235
1.73756
1.7306
1.72492
1.72258
1.72089
1.71964
1.71803
1.71601
1.71352
1.71004
1.70365
1.69657
1.69247
1.69029
1.6886
1.68815
1.6881
1.68617
1.68422
1.68211
1.67742
1.66938
1.66273
1.66013
1.65826
1.65657
1.65478
1.65265
1.65056
1.64844
1.64599
1.64231
1.63714
1.63293
1.63126
1.63002
1.62868
1.62693
1.62471
1.62231
1.61913
1.61437
1.61013
1.60749
1.60512
1.60245
1.59931
1.59589
1.59271
1.58988
1.58672
1.58224
1.57797
1.5757
1.57439
1.57336
1.57212
1.57067
1.56905
1.56716
1.56433
1.56066
1.55747
1.55479
1.55221
1.54976
1.5476
1.54574
1.39379
1.39406
1.39733
1.40236
1.40315
1.40197
1.39872
1.3914
1.38322
1.38016
1.37968
1.37994
1.38289
1.38999
1.41215
1.46922
1.57508
1.62944
1.64823
1.65384
1.65256
1.65294
1.65158
1.65169
1.65097
1.64841
1.64587
1.64274
1.63972
1.63716
1.63601
1.63619
1.63545
1.63387
1.63248
1.63127
1.63016
1.62875
1.62604
1.62053
1.61345
1.61044
1.61017
1.60977
1.60928
1.60862
1.60766
1.6058
1.60541
1.60658
1.60818
1.60763
1.60368
1.5974
1.5919
1.58737
1.58211
1.57912
1.57993
1.59615
1.66604
1.79737
1.91961
1.99481
2.03001
2.03127
2.02396
2.00995
1.99891
1.99475
1.99496
2.00122
2.00444
2.00188
1.99574
1.98406
1.9688
1.96003
1.95704
1.95761
1.96458
1.97012
1.96823
1.96247
1.95157
1.93664
1.92704
1.92378
1.92369
1.92889
1.93367
1.93196
1.92675
1.91701
1.90369
1.89467
1.89113
1.89008
1.8929
1.897
1.89598
1.89247
1.88518
1.87286
1.86086
1.85479
1.85271
1.853
1.85713
1.86003
1.85853
1.85587
1.85032
1.84225
1.83529
1.83081
1.82749
1.82384
1.8187
1.81241
1.80903
1.80722
1.8059
1.80522
1.80392
1.80172
1.79943
1.79696
1.79355
1.78705
1.77803
1.77194
1.77167
1.77491
1.79003
1.82557
1.87163
1.90814
1.92346
1.92295
1.91417
1.9034
1.89856
1.89722
1.89947
1.90091
1.89805
1.89325
1.88536
1.87535
1.86821
1.86552
1.86458
1.86705
1.86975
1.868
1.86491
1.85933
1.84917
1.83669
1.82878
1.82559
1.82361
1.82349
1.82553
1.8255
1.82291
1.82012
1.81625
1.80866
1.79868
1.79195
1.78938
1.78764
1.78723
1.78733
1.78522
1.78248
1.7797
1.7759
1.76888
1.76118
1.75679
1.7546
1.75294
1.7518
1.75
1.74763
1.74482
1.74096
1.73452
1.72763
1.72432
1.72238
1.72095
1.71932
1.71738
1.7152
1.7124
1.70679
1.69939
1.69439
1.69229
1.69062
1.6902
1.69009
1.68792
1.68536
1.68292
1.6792
1.67288
1.66579
1.66144
1.65943
1.6577
1.65662
1.65499
1.65291
1.65067
1.64814
1.64433
1.63872
1.63423
1.63232
1.63083
1.62922
1.62756
1.62599
1.6243
1.62152
1.61738
1.61295
1.60997
1.60794
1.60594
1.60378
1.60128
1.59808
1.59396
1.58913
1.5839
1.57938
1.57618
1.57464
1.57331
1.57181
1.5706
1.57001
1.56925
1.56796
1.56516
1.56116
1.5576
1.55497
1.55267
1.5503
1.54775
1.54528
1.39643
1.39931
1.4044
1.40549
1.40441
1.40136
1.39437
1.38614
1.38289
1.38249
1.38302
1.38567
1.38737
1.38779
1.38997
1.40202
1.46643
1.55673
1.61718
1.65029
1.65479
1.65577
1.65492
1.65091
1.64813
1.64699
1.64544
1.64433
1.6418
1.63939
1.63779
1.63627
1.6353
1.6343
1.63357
1.63298
1.63212
1.62996
1.62484
1.61692
1.61124
1.61004
1.60975
1.60951
1.60913
1.60919
1.60913
1.60859
1.60936
1.61061
1.60965
1.60489
1.59746
1.59217
1.58826
1.58374
1.58359
1.59192
1.64505
1.765
1.89759
1.98105
2.03001
2.03712
2.03413
2.02452
2.00927
1.9996
1.99657
1.99756
2.0045
2.0075
2.00439
1.99717
1.98449
1.96987
1.96222
1.95932
1.95978
1.96655
1.97143
1.96924
1.96337
1.9528
1.93914
1.93008
1.9268
1.92672
1.93127
1.93485
1.93283
1.92745
1.91794
1.90496
1.89591
1.89246
1.89158
1.89426
1.89774
1.89646
1.89279
1.88521
1.87327
1.86314
1.85815
1.85578
1.85576
1.85963
1.86234
1.86075
1.85771
1.85139
1.84261
1.83497
1.83014
1.82725
1.8247
1.82139
1.81613
1.81162
1.80958
1.80792
1.80659
1.80508
1.80286
1.80044
1.79775
1.79444
1.78872
1.78039
1.77391
1.7736
1.77778
1.79546
1.83457
1.87977
1.91471
1.92758
1.92635
1.91752
1.90609
1.90074
1.89921
1.90138
1.90365
1.90129
1.89646
1.88785
1.87697
1.86979
1.86686
1.86575
1.86797
1.87099
1.86958
1.86682
1.86187
1.85275
1.84096
1.83288
1.82929
1.82706
1.82661
1.82793
1.82742
1.82473
1.82189
1.8181
1.81099
1.80144
1.79369
1.7902
1.78823
1.78754
1.78847
1.78773
1.78512
1.78237
1.77896
1.77249
1.76416
1.75848
1.7561
1.75424
1.75304
1.75152
1.74936
1.74686
1.7435
1.7376
1.73054
1.72668
1.72457
1.72297
1.7214
1.71937
1.71705
1.71425
1.70939
1.70253
1.69662
1.69408
1.6923
1.69144
1.69173
1.69049
1.68811
1.68567
1.68198
1.67512
1.6676
1.66341
1.66157
1.65991
1.65869
1.65723
1.65517
1.65318
1.65102
1.64751
1.64151
1.63577
1.63301
1.6314
1.62987
1.62835
1.6266
1.62438
1.62164
1.61765
1.61344
1.61136
1.60976
1.60815
1.60654
1.60475
1.60269
1.6
1.59576
1.58932
1.58238
1.57758
1.57535
1.5739
1.5727
1.57154
1.57024
1.56882
1.5672
1.56533
1.56335
1.561
1.55845
1.5561
1.55378
1.55131
1.54866
1.54582
1.40136
1.40646
1.40781
1.40682
1.40394
1.39735
1.38879
1.38529
1.38483
1.3854
1.3884
1.39058
1.38995
1.38801
1.38479
1.38376
1.40036
1.46783
1.55213
1.62824
1.65024
1.65447
1.65369
1.64946
1.64848
1.64703
1.64634
1.64419
1.64154
1.63916
1.63653
1.63525
1.63504
1.63479
1.63463
1.63438
1.63313
1.62906
1.62108
1.61304
1.61056
1.61
1.60974
1.60959
1.61053
1.61276
1.61271
1.61271
1.61308
1.61131
1.6056
1.59761
1.59231
1.58866
1.58739
1.5922
1.63108
1.73615
1.87465
1.96676
2.02252
2.042
2.04203
2.03605
2.02343
2.00829
2.00062
1.99829
2.00028
2.00789
2.01034
2.00698
1.99933
1.9859
1.9711
1.96334
1.96079
1.96175
1.96846
1.9725
1.97015
1.96437
1.95418
1.94152
1.93302
1.92997
1.92993
1.93387
1.93605
1.93366
1.92792
1.9182
1.9061
1.898
1.89469
1.89364
1.89583
1.89841
1.89697
1.89349
1.88641
1.87505
1.86462
1.8592
1.85742
1.85804
1.86219
1.86444
1.86271
1.85949
1.85295
1.84377
1.83558
1.8303
1.82719
1.82479
1.82238
1.81939
1.8152
1.81192
1.80999
1.80813
1.80623
1.80401
1.80159
1.79898
1.79589
1.79108
1.7836
1.77608
1.77516
1.78003
1.80052
1.84288
1.88782
1.91978
1.93038
1.929
1.92069
1.9092
1.90325
1.90135
1.90317
1.90582
1.90389
1.89988
1.89221
1.88119
1.87212
1.86833
1.86698
1.86894
1.87243
1.87141
1.86848
1.86325
1.85431
1.8431
1.83506
1.83175
1.8299
1.82993
1.83152
1.831
1.8282
1.82496
1.82055
1.81302
1.80313
1.79519
1.79134
1.7893
1.78807
1.78888
1.78932
1.78713
1.78448
1.78162
1.77638
1.76804
1.76082
1.75778
1.75569
1.75432
1.75297
1.75083
1.74836
1.7454
1.7406
1.73378
1.72853
1.72615
1.72445
1.72298
1.72103
1.71893
1.71647
1.71221
1.7048
1.69835
1.69581
1.69419
1.69338
1.69383
1.69271
1.69032
1.68801
1.68497
1.67859
1.67045
1.66458
1.66241
1.66084
1.65977
1.65928
1.65748
1.65515
1.65271
1.64966
1.64444
1.63871
1.63522
1.63321
1.63128
1.62939
1.62754
1.62557
1.62316
1.61943
1.61485
1.61161
1.60997
1.60844
1.60722
1.6065
1.60512
1.6033
1.60101
1.5971
1.58975
1.5816
1.57743
1.5751
1.57325
1.57183
1.57069
1.56973
1.56852
1.56656
1.56413
1.56191
1.56015
1.55873
1.55714
1.55511
1.55265
1.55001
1.54736
1.40847
1.41011
1.40916
1.40647
1.40028
1.39152
1.38758
1.38698
1.38741
1.39025
1.3929
1.39259
1.39113
1.38744
1.3823
1.38103
1.38296
1.40573
1.4645
1.57003
1.63545
1.64867
1.64648
1.64646
1.64638
1.64822
1.64819
1.64595
1.64139
1.6363
1.63477
1.63474
1.6347
1.63477
1.63489
1.63458
1.63218
1.62535
1.61581
1.6117
1.61083
1.61049
1.61038
1.61195
1.61589
1.6173
1.61656
1.61587
1.61287
1.60637
1.59769
1.59217
1.59094
1.59394
1.62174
1.71329
1.85276
1.95501
2.01186
2.04044
2.04752
2.04506
2.037
2.02224
2.00781
2.00176
2.00011
2.00327
2.01138
2.01287
2.00903
2.00062
1.98651
1.97257
1.96571
1.96333
1.96454
1.971
1.97386
1.97106
1.9649
1.95475
1.9436
1.93632
1.93353
1.93354
1.93673
1.93743
1.93467
1.92866
1.91884
1.9075
1.89982
1.89665
1.89571
1.89766
1.89934
1.89767
1.89408
1.88694
1.8762
1.86707
1.86234
1.86037
1.86087
1.86479