/*--------------------------------*- C++ -*----------------------------------*\
  =========                 |
  \\      /  F ield         | OpenFOAM: The Open Source CFD Toolbox
   \\    /   O peration     | Website:  https://openfoam.org
    \\  /    A nd           | Version:  7
     \\/     M anipulation  |
\*---------------------------------------------------------------------------*/
FoamFile
{
    version     2.0;
    format      ascii;
    class       volVectorField;
    location    "2.7";
    object      U;
}
// * * * * * * * * * * * * * * * * * * * * * * * * * * * * * * * * * * * * * //

dimensions      [0 1 -1 0 0 0 0];

internalField   nonuniform List<vector> 
4128
(
(3 5.5005e-16 0)
(3 9.39147e-16 0)
(3 9.91203e-16 0)
(3 7.75211e-16 0)
(3 6.89717e-16 0)
(3 5.9675e-16 0)
(3 9.44825e-16 0)
(3 9.98435e-16 0)
(3 7.5534e-16 0)
(3 2.81827e-16 0)
(3 3.1742e-16 0)
(3 3.37425e-16 0)
(3 8.20828e-16 0)
(3 9.4977e-16 0)
(3 -2.25339e-16 0)
(3 -1.25266e-15 0)
(3 -1.80455e-15 0)
(3 -1.90004e-15 0)
(3 -1.97253e-15 0)
(3 -1.96505e-15 0)
(3 -2.04799e-15 0)
(3 -1.32104e-15 0)
(3 -9.77017e-16 0)
(3 -1.19002e-15 0)
(3 -1.11608e-15 0)
(3 -1.1766e-15 0)
(3 6.86476e-16 0)
(3 1.38926e-15 0)
(3 1.0797e-15 0)
(3 8.7608e-16 0)
(3 4.56331e-16 0)
(3 7.57047e-16 0)
(3 4.47488e-16 0)
(3 -6.89957e-16 0)
(3 -8.93265e-16 0)
(3 -1.00485e-15 0)
(3 3.2031e-16 0)
(3 1.7568e-15 0)
(3 1.80077e-15 0)
(3 1.40742e-15 0)
(3 8.53381e-16 0)
(3 6.38795e-16 0)
(3 9.55478e-17 0)
(3 -1.50414e-16 0)
(3 -3.28792e-16 0)
(3 -5.03811e-16 0)
(3 -9.23305e-16 0)
(3 -5.23555e-16 0)
(3 1.78602e-17 0)
(3 7.9248e-16 0)
(3 5.49829e-16 0)
(3 -1.52507e-16 0)
(3 -1.35922e-15 0)
(3 -2.05976e-15 0)
(3 -1.99073e-15 0)
(3 -1.7294e-15 0)
(3 -1.17484e-15 0)
(3 2.81983e-16 0)
(3 -7.41241e-16 0)
(3 -5.41176e-16 0)
(3 -5.56709e-16 0)
(3 -1.07989e-15 0)
(3 -1.39723e-15 0)
(3 -1.3617e-15 0)
(3 -1.04161e-15 0)
(3 -1.66269e-15 0)
(3 -2.44318e-15 0)
(3 -3.28055e-15 0)
(3 -3.51535e-15 0)
(3 -3.47029e-15 0)
(3 -1.71409e-15 0)
(3 -1.19502e-15 0)
(3 -1.69236e-15 0)
(3 -1.05684e-15 0)
(3 2.28838e-16 0)
(3 6.80639e-16 0)
(3 6.07094e-16 0)
(3 -1.21954e-15 0)
(3 -3.11285e-15 0)
(3 -2.12098e-10 0)
(3 -1.78682e-10 0)
(3.0016 0.000521997 0)
(2.71914 0.426159 0)
(1.41677 0.878677 0)
(1.28521 0.849194 0)
(1.30331 0.85122 0)
(1.3131 0.854905 0)
(1.32651 0.856424 0)
(1.34119 0.857479 0)
(1.35734 0.857924 0)
(1.37499 0.857621 0)
(1.39439 0.85643 0)
(1.41555 0.854513 0)
(1.4387 0.85185 0)
(1.46438 0.848087 0)
(1.4919 0.843715 0)
(3 -7.38714e-17 0)
(3 -3.48862e-17 0)
(3 2.92274e-16 0)
(3 3.80061e-16 0)
(3 2.17389e-16 0)
(3 5.23128e-16 0)
(3 1.24631e-15 0)
(3 1.20619e-15 0)
(3 6.33389e-16 0)
(3 5.16613e-16 0)
(3 7.07881e-16 0)
(3 1.34265e-15 0)
(3 1.86219e-15 0)
(3 1.62858e-15 0)
(3 -9.2998e-17 0)
(3 -1.04258e-15 0)
(3 -1.65865e-15 0)
(3 -2.08168e-15 0)
(3 -2.07208e-15 0)
(3 -1.84056e-15 0)
(3 -1.07685e-15 0)
(3 -1.07724e-15 0)
(3 -4.46199e-16 0)
(3 -2.25654e-16 0)
(3 -5.85252e-16 0)
(3 -7.92201e-16 0)
(3 -3.90139e-16 0)
(3 -1.2259e-16 0)
(3 3.987e-17 0)
(3 -6.76395e-16 0)
(3 -8.58881e-16 0)
(3 -1.95036e-16 0)
(3 2.81893e-16 0)
(3 -6.5995e-16 0)
(3 -1.6425e-15 0)
(3 -1.06319e-15 0)
(3 -3.52431e-16 0)
(3 1.47785e-15 0)
(3 2.45275e-15 0)
(3 2.28055e-15 0)
(3 1.70025e-15 0)
(3 9.96265e-16 0)
(3 7.30152e-16 0)
(3 4.46183e-16 0)
(3 2.83155e-16 0)
(3 -2.74193e-16 0)
(3 -6.77977e-16 0)
(3 -3.73197e-16 0)
(3 2.73031e-16 0)
(3 1.19574e-16 0)
(3 2.73158e-17 0)
(3 -4.05651e-16 0)
(3 -1.31198e-15 0)
(3 -2.52183e-15 0)
(3 -2.36314e-15 0)
(3 -1.79157e-15 0)
(3 -7.90965e-16 0)
(3 -1.74406e-16 0)
(3 -1.97762e-16 0)
(3 -4.17201e-17 0)
(3 -1.29992e-16 0)
(3 -4.06154e-16 0)
(3 -5.22255e-16 0)
(3 -8.55664e-16 0)
(3 -8.97438e-16 0)
(3 -1.69811e-15 0)
(3 -2.14566e-15 0)
(3 -2.26584e-15 0)
(3 -2.33697e-15 0)
(3 -1.0998e-15 0)
(3 -4.24774e-16 0)
(3 -5.97898e-16 0)
(3 -9.9493e-16 0)
(3 -3.51979e-16 0)
(3 4.45689e-16 0)
(3 3.16214e-16 0)
(3 4.18566e-16 0)
(3 -1.3705e-15 0)
(3 -2.41435e-15 0)
(3 -3.29107e-12 0)
(3 -6.0615e-11 0)
(3 1.32486e-06 0)
(3.04693 0.0250646 0)
(1.82141 0.784695 0)
(1.31492 0.873933 0)
(1.31322 0.871031 0)
(1.32625 0.869935 0)
(1.33916 0.8701 0)
(1.35417 0.870461 0)
(1.37026 0.870322 0)
(1.38777 0.869313 0)
(1.40671 0.867537 0)
(1.4272 0.865005 0)
(1.44965 0.861458 0)
(1.47383 0.857329 0)
(1.49933 0.852962 0)
(3 -2.32708e-16 0)
(3 -2.77975e-16 0)
(3 -2.30755e-16 0)
(3 -1.85326e-16 0)
(3 6.25998e-17 0)
(3 5.28683e-16 0)
(3 7.07846e-16 0)
(3 6.57144e-16 0)
(3 8.41026e-16 0)
(3 1.39841e-15 0)
(3 1.34616e-15 0)
(3 1.38314e-15 0)
(3 1.47866e-15 0)
(3 1.05393e-15 0)
(3 1.39853e-16 0)
(3 -4.35648e-16 0)
(3 -3.65204e-16 0)
(3 -7.99696e-16 0)
(3 -7.41566e-16 0)
(3 -6.87421e-16 0)
(3 3.7238e-18 0)
(3 4.2512e-16 0)
(3 5.19767e-16 0)
(3 6.71015e-16 0)
(3 2.42406e-16 0)
(3 4.4835e-16 0)
(3 3.66927e-17 0)
(3 -1.15726e-15 0)
(3 -1.10354e-15 0)
(3 -8.43996e-16 0)
(3 -7.37417e-16 0)
(3 -1.25371e-15 0)
(3 -1.10532e-15 0)
(3 -6.39227e-16 0)
(3 -2.45259e-16 0)
(3 -1.06951e-15 0)
(3 -1.74785e-15 0)
(3 -2.77762e-15 0)
(3 -9.18066e-16 0)
(3 5.4878e-16 0)
(3 6.2911e-16 0)
(3 -9.44528e-17 0)
(3 -3.33299e-16 0)
(3 -1.72595e-16 0)
(3 1.07792e-17 0)
(3 -5.44115e-16 0)
(3 -3.60739e-17 0)
(3 -5.44346e-16 0)
(3 -7.97759e-16 0)
(3 -1.26955e-15 0)
(3 -8.72939e-16 0)
(3 -8.47422e-16 0)
(3 -1.00386e-15 0)
(3 -1.31057e-15 0)
(3 -2.00651e-16 0)
(3 6.59153e-16 0)
(3 8.94139e-16 0)
(3 7.50359e-16 0)
(3 1.01444e-15 0)
(3 1.33792e-15 0)
(3 1.23946e-15 0)
(3 7.39178e-16 0)
(3 -2.86799e-16 0)
(3 -8.57921e-16 0)
(3 -1.40316e-15 0)
(3 -1.17804e-15 0)
(3 -8.81139e-16 0)
(3 -9.98154e-16 0)
(3 -9.84882e-16 0)
(3 1.15189e-15 0)
(3 1.2503e-15 0)
(3 -9.65422e-16 0)
(3 -7.85574e-16 0)
(3 -6.97687e-16 0)
(3 -1.03232e-15 0)
(3 -1.016e-15 0)
(3 -1.09278e-15 0)
(3 -1.38328e-15 0)
(3 -1.44291e-15 0)
(3 -1.19253e-14 0)
(3 -7.57194e-12 0)
(3 2.09537e-10 0)
(3.00156 0.00072236 0)
(2.75198 0.395172 0)
(1.49502 0.895014 0)
(1.3296 0.870406 0)
(1.3479 0.870816 0)
(1.35777 0.872716 0)
(1.37195 0.872606 0)
(1.3869 0.87196 0)
(1.40367 0.870604 0)
(1.42209 0.868692 0)
(1.44222 0.866091 0)
(1.46408 0.8627 0)
(1.48699 0.858853 0)
(1.51125 0.854116 0)
(3 1.26675e-16 0)
(3 -8.4246e-17 0)
(3 -2.84721e-16 0)
(3 -2.10064e-16 0)
(3 1.71213e-16 0)
(3 7.26099e-16 0)
(3 4.27518e-16 0)
(3 3.2949e-16 0)
(3 4.46801e-16 0)
(3 2.23324e-16 0)
(3 2.50569e-16 0)
(3 7.8808e-16 0)
(3 9.18096e-16 0)
(3 8.78415e-16 0)
(3 7.26425e-16 0)
(3 -1.86989e-17 0)
(3 -6.59875e-16 0)
(3 -5.38056e-16 0)
(3 -5.64843e-16 0)
(3 -2.62166e-16 0)
(3 2.32246e-16 0)
(3 2.83548e-16 0)
(3 2.13272e-16 0)
(3 4.27325e-16 0)
(3 7.8506e-16 0)
(3 4.28157e-16 0)
(3 -9.54368e-17 0)
(3 -9.24169e-16 0)
(3 -1.168e-15 0)
(3 1.593e-16 0)
(3 6.01534e-16 0)
(3 5.65068e-16 0)
(3 2.79951e-16 0)
(3 7.0476e-16 0)
(3 1.81473e-15 0)
(3 1.14946e-15 0)
(3 -1.9847e-16 0)
(3 -1.30257e-15 0)
(3 -1.21755e-15 0)
(3 -5.02126e-16 0)
(3 -1.53992e-15 0)
(3 -8.93463e-16 0)
(3 -6.90116e-16 0)
(3 -1.38714e-16 0)
(3 -7.45468e-17 0)
(3 1.16548e-16 0)
(3 3.04034e-16 0)
(3 4.60905e-17 0)
(3 -5.01471e-16 0)
(3 -1.16875e-15 0)
(3 -1.48271e-15 0)
(3 -8.20443e-16 0)
(3 1.33376e-16 0)
(3 7.76169e-16 0)
(3 2.32132e-15 0)
(3 3.23511e-15 0)
(3 2.9623e-15 0)
(3 2.14136e-15 0)
(3 2.33494e-15 0)
(3 2.08563e-15 0)
(3 1.51693e-15 0)
(3 4.23281e-16 0)
(3 -2.7339e-16 0)
(3 -3.51702e-16 0)
(3 5.23119e-18 0)
(3 5.92721e-16 0)
(3 1.4578e-15 0)
(3 1.55287e-15 0)
(3 2.03337e-15 0)
(3 2.74023e-15 0)
(3 4.12696e-16 0)
(3 -6.55574e-16 0)
(3 -7.38634e-16 0)
(3 -8.43124e-16 0)
(3 -1.87461e-15 0)
(3 -1.8129e-15 0)
(3 -1.54332e-15 0)
(3 -1.39659e-15 0)
(3 -1.07127e-15 0)
(3 -1.01913e-15 0)
(3 -4.66602e-13 0)
(3 -4.59202e-13 0)
(3 2.2805e-06 0)
(3.03464 0.0224196 0)
(1.96441 0.777237 0)
(1.36596 0.895953 0)
(1.35915 0.892173 0)
(1.3711 0.888347 0)
(1.38307 0.885553 0)
(1.39708 0.883028 0)
(1.41339 0.88082 0)
(1.43172 0.878525 0)
(1.45172 0.875728 0)
(1.47285 0.872533 0)
(1.49508 0.868565 0)
(1.51911 0.862857 0)
(3 -1.69051e-16 0)
(3 5.98213e-17 0)
(3 -1.43625e-16 0)
(3 -5.58697e-17 0)
(3 -1.31061e-16 0)
(3 -1.37585e-16 0)
(3 -9.97041e-17 0)
(3 1.22632e-16 0)
(3 3.10908e-16 0)
(3 -1.37013e-16 0)
(3 -2.81923e-16 0)
(3 -7.32151e-17 0)
(3 1.13238e-16 0)
(3 3.93126e-16 0)
(3 8.89037e-16 0)
(3 1.0797e-15 0)
(3 4.97913e-16 0)
(3 1.16748e-16 0)
(3 -2.16717e-16 0)
(3 2.43144e-16 0)
(3 7.59989e-16 0)
(3 8.95643e-16 0)
(3 6.93721e-17 0)
(3 -7.27022e-16 0)
(3 -7.1242e-16 0)
(3 -8.33842e-16 0)
(3 -9.42115e-16 0)
(3 -8.89196e-16 0)
(3 -6.01751e-16 0)
(3 -7.48355e-16 0)
(3 -5.23632e-16 0)
(3 -4.31954e-16 0)
(3 -6.42777e-16 0)
(3 -2.0777e-16 0)
(3 7.19981e-16 0)
(3 9.98529e-16 0)
(3 8.84708e-16 0)
(3 -2.22408e-16 0)
(3 -1.86069e-15 0)
(3 -2.14557e-15 0)
(3 -2.68284e-15 0)
(3 -1.7221e-15 0)
(3 -4.16535e-16 0)
(3 5.24214e-17 0)
(3 2.29251e-16 0)
(3 5.28523e-16 0)
(3 3.25003e-16 0)
(3 4.02477e-16 0)
(3 -1.88445e-16 0)
(3 -6.77345e-16 0)
(3 -4.02406e-16 0)
(3 3.10867e-16 0)
(3 1.50333e-15 0)
(3 2.77704e-15 0)
(3 4.33932e-15 0)
(3 4.72485e-15 0)
(3 4.14461e-15 0)
(3 2.50211e-15 0)
(3 1.32463e-15 0)
(3 3.83736e-16 0)
(3 -7.85756e-16 0)
(3 -5.80961e-16 0)
(3 5.70003e-17 0)
(3 6.47905e-16 0)
(3 7.8214e-16 0)
(3 5.52784e-16 0)
(3 1.41482e-15 0)
(3 2.17411e-15 0)
(3 4.10458e-15 0)
(3 3.60942e-15 0)
(3 8.69099e-16 0)
(3 -1.16526e-15 0)
(3 -1.27002e-15 0)
(3 -9.98104e-16 0)
(3 -7.79076e-16 0)
(3 -7.73779e-16 0)
(3 -1.06419e-15 0)
(3 -8.70271e-16 0)
(3 -9.96775e-16 0)
(3 -1.12095e-15 0)
(3 -7.74194e-15 0)
(3 -1.54129e-13 0)
(3 5.58519e-10 0)
(3.00092 0.000727993 0)
(2.85164 0.306385 0)
(1.61177 0.898749 0)
(1.37799 0.894365 0)
(1.39321 0.890858 0)
(1.40059 0.888152 0)
(1.41331 0.884748 0)
(1.42851 0.882144 0)
(1.44595 0.87974 0)
(1.46501 0.877083 0)
(1.48509 0.873901 0)
(1.5067 0.869522 0)
(1.53007 0.863856 0)
(3 -5.95105e-17 0)
(3 5.44002e-17 0)
(3 1.41078e-16 0)
(3 6.4097e-16 0)
(3 1.59636e-16 0)
(3 -4.86429e-17 0)
(3 -6.1758e-16 0)
(3 -4.46328e-16 0)
(3 -4.40465e-16 0)
(3 -2.47529e-16 0)
(3 -3.99807e-16 0)
(3 -2.87515e-16 0)
(3 -9.15023e-17 0)
(3 4.75985e-16 0)
(3 1.10142e-15 0)
(3 1.15244e-15 0)
(3 1.07776e-15 0)
(3 8.04982e-16 0)
(3 6.1272e-16 0)
(3 5.54198e-16 0)
(3 9.88659e-16 0)
(3 9.99873e-16 0)
(3 1.31624e-15 0)
(3 1.07085e-15 0)
(3 4.28972e-16 0)
(3 -1.44937e-16 0)
(3 -1.05434e-15 0)
(3 -1.47037e-15 0)
(3 -1.51004e-15 0)
(3 -2.00215e-15 0)
(3 -2.21215e-15 0)
(3 -2.32988e-15 0)
(3 -1.875e-15 0)
(3 -1.48683e-15 0)
(3 -1.56022e-15 0)
(3 -1.60243e-15 0)
(3 -1.63085e-15 0)
(3 -1.61552e-15 0)
(3 -1.8386e-15 0)
(3 -2.02835e-15 0)
(3 -1.74056e-15 0)
(3 -1.01955e-15 0)
(3 -1.21585e-16 0)
(3 3.11231e-17 0)
(3 -3.45486e-16 0)
(3 -4.17054e-16 0)
(3 -7.84281e-16 0)
(3 -9.10125e-16 0)
(3 -5.36875e-16 0)
(3 -6.32604e-16 0)
(3 2.25592e-16 0)
(3 8.1409e-16 0)
(3 1.03497e-15 0)
(3 2.19701e-15 0)
(3 3.85329e-15 0)
(3 3.28788e-15 0)
(3 3.82094e-15 0)
(3 2.50008e-15 0)
(3 1.48067e-15 0)
(3 8.71967e-16 0)
(3 1.04444e-15 0)
(3 1.03543e-15 0)
(3 1.85324e-15 0)
(3 1.77819e-15 0)
(3 3.43787e-16 0)
(3 1.62883e-16 0)
(3 1.01699e-15 0)
(3 2.66337e-15 0)
(3 3.67297e-15 0)
(3 4.0335e-15 0)
(3 2.48323e-15 0)
(3 -1.37246e-15 0)
(3 -1.77005e-15 0)
(3 -1.11979e-15 0)
(3 -7.73077e-17 0)
(3 -1.14009e-15 0)
(3 -1.63407e-15 0)
(3 -6.98086e-16 0)
(3 -3.21708e-16 0)
(3 -3.85966e-16 0)
(3 -9.2748e-16 0)
(3 -2.29695e-14 0)
(3 1.74033e-14 0)
(3 2.21113e-06 0)
(3.01911 0.0157869 0)
(2.22947 0.723861 0)
(1.4284 0.923347 0)
(1.40468 0.909843 0)
(1.41634 0.902031 0)
(1.42716 0.898502 0)
(1.44017 0.895133 0)
(1.45549 0.891477 0)
(1.47272 0.887652 0)
(1.49186 0.883213 0)
(1.513 0.877767 0)
(1.5351 0.872332 0)
(3 5.25233e-17 0)
(3 -4.32704e-16 0)
(3 -7.03761e-16 0)
(3 -6.15544e-16 0)
(3 -4.43093e-16 0)
(3 -7.30669e-16 0)
(3 -1.29134e-15 0)
(3 -1.38556e-15 0)
(3 -1.06065e-15 0)
(3 -7.41464e-16 0)
(3 -5.86613e-16 0)
(3 -5.6382e-16 0)
(3 -5.25627e-16 0)
(3 -7.49541e-17 0)
(3 1.14541e-16 0)
(3 -1.38455e-17 0)
(3 1.26757e-16 0)
(3 3.29659e-16 0)
(3 1.10192e-15 0)
(3 1.31609e-15 0)
(3 1.44432e-15 0)
(3 1.2059e-15 0)
(3 1.35276e-15 0)
(3 1.63897e-15 0)
(3 1.49736e-15 0)
(3 1.08189e-15 0)
(3 -1.44118e-16 0)
(3 -7.70417e-16 0)
(3 -1.23949e-15 0)
(3 -1.173e-15 0)
(3 -1.35063e-15 0)
(3 -1.28793e-15 0)
(3 -8.73074e-16 0)
(3 -8.66836e-16 0)
(3 -1.17514e-15 0)
(3 -1.36117e-15 0)
(3 -1.0935e-15 0)
(3 -5.49988e-16 0)
(3 -7.12434e-16 0)
(3 -1.74887e-15 0)
(3 -1.9967e-15 0)
(3 -1.67265e-15 0)
(3 -1.25905e-15 0)
(3 -1.30298e-15 0)
(3 -1.88593e-15 0)
(3 -1.81337e-15 0)
(3 -1.4596e-15 0)
(3 -1.36204e-15 0)
(3 -9.10136e-16 0)
(3 -1.45997e-16 0)
(3 7.03331e-16 0)
(3 8.77147e-16 0)
(3 1.13616e-15 0)
(3 1.58231e-15 0)
(3 2.6395e-15 0)
(3 3.63915e-15 0)
(3 2.12181e-15 0)
(3 1.75379e-15 0)
(3 1.56342e-15 0)
(3 1.64345e-15 0)
(3 2.21505e-15 0)
(3 2.99105e-15 0)
(3 2.48207e-15 0)
(3 1.20378e-15 0)
(3 1.06575e-16 0)
(3 1.92512e-16 0)
(3 1.70304e-15 0)
(3 2.63703e-15 0)
(3 3.46643e-15 0)
(3 3.51294e-15 0)
(3 2.917e-15 0)
(3 1.51645e-15 0)
(3 -6.69555e-16 0)
(3 -1.24591e-15 0)
(3 -1.55349e-15 0)
(3 -2.63842e-15 0)
(3 -2.86585e-15 0)
(3 -2.49671e-15 0)
(3 -1.52486e-15 0)
(3 -1.57645e-15 0)
(3 -2.05909e-15 0)
(3 -3.98718e-15 0)
(3 -3.69058e-15 0)
(3 6.24844e-10 0)
(3.00025 0.000474884 0)
(2.97706 0.17149 0)
(1.76536 0.869158 0)
(1.42552 0.915267 0)
(1.44453 0.910404 0)
(1.45243 0.905613 0)
(1.46156 0.899692 0)
(1.473 0.893952 0)
(1.48715 0.888595 0)
(1.50439 0.883253 0)
(1.52403 0.878045 0)
(1.54452 0.873326 0)
(3 -5.66797e-17 0)
(3 -5.06175e-16 0)
(3 -9.31621e-16 0)
(3 -1.06421e-15 0)
(3 -8.86618e-16 0)
(3 -1.03259e-15 0)
(3 -1.35815e-15 0)
(3 -1.53087e-15 0)
(3 -1.3144e-15 0)
(3 -5.35763e-16 0)
(3 -3.8427e-16 0)
(3 -4.49408e-16 0)
(3 -8.34287e-16 0)
(3 -7.00907e-16 0)
(3 -5.29861e-16 0)
(3 -4.71713e-16 0)
(3 -7.9976e-16 0)
(3 -1.03072e-16 0)
(3 5.81764e-16 0)
(3 5.88839e-16 0)
(3 6.75981e-16 0)
(3 6.25021e-16 0)
(3 4.53957e-16 0)
(3 6.95731e-16 0)
(3 6.06822e-16 0)
(3 3.38712e-16 0)
(3 4.25239e-17 0)
(3 -2.67104e-16 0)
(3 -2.9069e-16 0)
(3 -2.75282e-16 0)
(3 -4.39417e-16 0)
(3 -6.20682e-16 0)
(3 -6.52049e-16 0)
(3 -2.80663e-16 0)
(3 -2.29165e-16 0)
(3 -4.73266e-16 0)
(3 -2.82276e-16 0)
(3 -2.69328e-16 0)
(3 4.60171e-16 0)
(3 -4.73759e-16 0)
(3 -1.49475e-15 0)
(3 -2.59764e-15 0)
(3 -3.07839e-15 0)
(3 -2.65928e-15 0)
(3 -2.28492e-15 0)
(3 -2.17792e-15 0)
(3 -1.57426e-15 0)
(3 -1.31997e-15 0)
(3 -1.0949e-15 0)
(3 4.70001e-16 0)
(3 1.69632e-15 0)
(3 2.40958e-15 0)
(3 2.92854e-15 0)
(3 2.36503e-15 0)
(3 1.64112e-15 0)
(3 2.0013e-15 0)
(3 1.16964e-15 0)
(3 1.27579e-15 0)
(3 1.05843e-15 0)
(3 8.0365e-16 0)
(3 4.36059e-16 0)
(3 2.12422e-16 0)
(3 2.36344e-16 0)
(3 7.83047e-16 0)
(3 1.28142e-15 0)
(3 1.76729e-15 0)
(3 2.43741e-15 0)
(3 2.8134e-15 0)
(3 2.9495e-15 0)
(3 2.88718e-15 0)
(3 3.4589e-15 0)
(3 2.83244e-15 0)
(3 4.99626e-16 0)
(3 -2.74216e-15 0)
(3 -2.96764e-15 0)
(3 -2.45356e-15 0)
(3 -2.60279e-15 0)
(3 -3.03652e-15 0)
(3 -3.03206e-15 0)
(3 -3.32293e-15 0)
(3 -3.44162e-15 0)
(3 -3.00092e-15 0)
(3 -2.32357e-15 0)
(3 8.24277e-14 0)
(3 1.09616e-06 0)
(3.0075 0.00825263 0)
(2.53092 0.56607 0)
(1.54622 0.946963 0)
(1.45076 0.928669 0)
(1.46366 0.92429 0)
(1.47327 0.917274 0)
(1.4843 0.909341 0)
(1.49758 0.90153 0)
(1.5132 0.894521 0)
(1.5304 0.888981 0)
(1.54965 0.883454 0)
(3 1.05362e-16 0)
(3 8.04077e-17 0)
(3 1.05664e-16 0)
(3 -6.97173e-17 0)
(3 -5.38548e-16 0)
(3 -4.41207e-16 0)
(3 -2.07634e-16 0)
(3 -3.55244e-16 0)
(3 -4.70435e-16 0)
(3 -2.15125e-17 0)
(3 -1.29551e-15 0)
(3 -1.98398e-15 0)
(3 -2.15529e-15 0)
(3 -1.67976e-15 0)
(3 -9.52398e-16 0)
(3 -3.1814e-16 0)
(3 -2.0521e-16 0)
(3 8.75743e-17 0)
(3 5.48435e-16 0)
(3 1.03393e-16 0)
(3 -3.16443e-16 0)
(3 -1.13383e-16 0)
(3 2.34803e-16 0)
(3 4.08142e-16 0)
(3 8.28596e-16 0)
(3 9.89703e-16 0)
(3 8.3615e-16 0)
(3 5.3359e-16 0)
(3 4.41037e-16 0)
(3 3.19228e-16 0)
(3 3.49672e-16 0)
(3 5.76782e-17 0)
(3 -5.22613e-16 0)
(3 -7.95505e-16 0)
(3 -3.6154e-16 0)
(3 -5.40607e-16 0)
(3 -1.26815e-15 0)
(3 -1.06747e-15 0)
(3 -2.64324e-16 0)
(3 6.76082e-16 0)
(3 -2.1297e-16 0)
(3 -1.03511e-15 0)
(3 -1.5651e-15 0)
(3 -2.37426e-15 0)
(3 -2.42307e-15 0)
(3 -1.85128e-15 0)
(3 -6.7186e-16 0)
(3 4.94542e-16 0)
(3 7.44548e-16 0)
(3 1.46053e-15 0)
(3 1.86555e-15 0)
(3 2.10094e-15 0)
(3 2.21453e-15 0)
(3 1.76972e-15 0)
(3 3.7324e-17 0)
(3 -5.86918e-16 0)
(3 3.84395e-16 0)
(3 6.86126e-16 0)
(3 3.47408e-16 0)
(3 2.77189e-16 0)
(3 -5.97212e-16 0)
(3 -1.61719e-15 0)
(3 -9.47532e-16 0)
(3 1.08603e-15 0)
(3 2.5863e-15 0)
(3 3.17655e-15 0)
(3 3.42526e-15 0)
(3 3.12782e-15 0)
(3 2.70699e-15 0)
(3 3.28799e-15 0)
(3 3.66645e-15 0)
(3 3.56883e-15 0)
(3 2.3779e-15 0)
(3 1.5142e-15 0)
(3 6.1359e-17 0)
(3 -1.50486e-15 0)
(3 -1.55991e-15 0)
(3 -1.76665e-15 0)
(3 -2.08478e-15 0)
(3 -2.64946e-15 0)
(3 -2.70339e-15 0)
(3 -2.09723e-15 0)
(3 -9.62158e-16 0)
(3 9.8827e-16 0)
(3 3.46046e-10 0)
(3.00002 0.000139739 0)
(3.02051 0.0660157 0)
(1.9954 0.819187 0)
(1.48775 0.93144 0)
(1.48728 0.925971 0)
(1.49535 0.91901 0)
(1.50498 0.912498 0)
(1.51653 0.905693 0)
(1.52953 0.899325 0)
(1.54416 0.893316 0)
(1.56189 0.886397 0)
(3 -7.76822e-17 0)
(3 2.55471e-16 0)
(3 6.09067e-16 0)
(3 -6.95372e-17 0)
(3 -3.79157e-16 0)
(3 -2.37752e-16 0)
(3 8.58509e-16 0)
(3 1.0423e-15 0)
(3 3.67287e-16 0)
(3 -4.14796e-16 0)
(3 -1.58969e-15 0)
(3 -1.68702e-15 0)
(3 -2.24232e-15 0)
(3 -2.09347e-15 0)
(3 -1.62567e-15 0)
(3 -5.26055e-16 0)
(3 4.62888e-16 0)
(3 1.55545e-15 0)
(3 1.79938e-15 0)
(3 1.29168e-15 0)
(3 3.32834e-16 0)
(3 2.0537e-16 0)
(3 8.1256e-16 0)
(3 1.45694e-15 0)
(3 1.99179e-15 0)
(3 1.98512e-15 0)
(3 1.69983e-15 0)
(3 1.44917e-15 0)
(3 4.43236e-16 0)
(3 -8.56163e-17 0)
(3 -2.04049e-16 0)
(3 8.31814e-17 0)
(3 -1.203e-16 0)
(3 -8.9048e-16 0)
(3 -6.11007e-16 0)
(3 3.98902e-17 0)
(3 -4.16084e-16 0)
(3 -1.10623e-15 0)
(3 -2.00127e-15 0)
(3 -1.63501e-15 0)
(3 2.11639e-16 0)
(3 6.52005e-16 0)
(3 8.06447e-16 0)
(3 4.72432e-16 0)
(3 6.51776e-17 0)
(3 -2.79222e-16 0)
(3 -4.25669e-17 0)
(3 9.20565e-16 0)
(3 1.75837e-15 0)
(3 1.91806e-15 0)
(3 1.80443e-15 0)
(3 1.23507e-15 0)
(3 6.25862e-16 0)
(3 2.51227e-16 0)
(3 -2.74673e-16 0)
(3 -3.90387e-16 0)
(3 -2.65642e-16 0)
(3 -1.53149e-16 0)
(3 4.52389e-16 0)
(3 9.37627e-16 0)
(3 1.06264e-15 0)
(3 1.08207e-15 0)
(3 1.09416e-15 0)
(3 8.2746e-16 0)
(3 1.34258e-15 0)
(3 2.58306e-15 0)
(3 3.30596e-15 0)
(3 3.47976e-15 0)
(3 3.46412e-15 0)
(3 3.10756e-15 0)
(3 2.92427e-15 0)
(3 2.35162e-15 0)
(3 1.39587e-15 0)
(3 1.19109e-15 0)
(3 4.80978e-17 0)
(3 -4.20126e-16 0)
(3 -7.17814e-16 0)
(3 -1.54132e-15 0)
(3 -2.28621e-15 0)
(3 -3.04968e-15 0)
(3 -2.93227e-15 0)
(3 -1.11367e-15 0)
(3 8.25029e-16 0)
(3 6.52088e-16 0)
(3 6.66546e-14 0)
(3 1.77656e-07 0)
(3.00171 0.00305081 0)
(2.81039 0.337752 0)
(1.71291 0.91093 0)
(1.498 0.941217 0)
(1.51362 0.936064 0)
(1.52346 0.929378 0)
(1.53309 0.922025 0)
(1.5438 0.914532 0)
(1.55704 0.90593 0)
(1.57262 0.897101 0)
(3 8.10822e-19 0)
(3 4.27183e-16 0)
(3 6.94065e-16 0)
(3 4.28103e-16 0)
(3 1.1091e-15 0)
(3 1.1655e-15 0)
(3 9.42613e-16 0)
(3 1.15569e-15 0)
(3 4.88409e-16 0)
(3 -5.506e-16 0)
(3 -2.93722e-16 0)
(3 -1.60462e-16 0)
(3 -4.67077e-17 0)
(3 1.43997e-16 0)
(3 -3.23184e-16 0)
(3 -6.90569e-16 0)
(3 -2.31678e-16 0)
(3 5.8355e-16 0)
(3 3.36567e-16 0)
(3 -2.6188e-16 0)
(3 -5.0848e-16 0)
(3 3.22273e-17 0)
(3 5.5383e-16 0)
(3 1.79654e-15 0)
(3 1.53974e-15 0)
(3 1.23428e-15 0)
(3 1.28786e-15 0)
(3 8.18598e-16 0)
(3 1.95555e-16 0)
(3 2.84485e-17 0)
(3 -1.1544e-16 0)
(3 2.08674e-16 0)
(3 7.10932e-16 0)
(3 7.94641e-16 0)
(3 6.81078e-16 0)
(3 7.34855e-16 0)
(3 8.66229e-16 0)
(3 5.10563e-16 0)
(3 -4.28257e-16 0)
(3 -9.43314e-16 0)
(3 -4.80896e-16 0)
(3 1.14713e-15 0)
(3 1.96873e-15 0)
(3 2.55779e-15 0)
(3 2.90039e-15 0)
(3 2.47778e-15 0)
(3 2.15962e-15 0)
(3 1.69307e-15 0)
(3 1.76953e-15 0)
(3 1.95698e-15 0)
(3 1.61703e-15 0)
(3 1.46708e-15 0)
(3 1.27578e-15 0)
(3 6.45946e-16 0)
(3 1.40087e-16 0)
(3 -4.91033e-16 0)
(3 -1.02909e-15 0)
(3 -9.56455e-16 0)
(3 -3.938e-16 0)
(3 3.08295e-16 0)
(3 9.15125e-16 0)
(3 9.74802e-16 0)
(3 6.21848e-16 0)
(3 1.33461e-16 0)
(3 5.16468e-16 0)
(3 1.95153e-15 0)
(3 2.32916e-15 0)
(3 2.33651e-15 0)
(3 2.64918e-15 0)
(3 2.54821e-15 0)
(3 2.0848e-15 0)
(3 1.64966e-15 0)
(3 1.84402e-15 0)
(3 1.52439e-15 0)
(3 3.41678e-16 0)
(3 -4.4793e-16 0)
(3 -9.1975e-16 0)
(3 -1.91288e-15 0)
(3 -2.36842e-15 0)
(3 -2.73747e-15 0)
(3 -3.43228e-15 0)
(3 -2.43834e-15 0)
(3 1.04826e-16 0)
(3 5.48679e-16 0)
(3 5.73884e-16 0)
(3 6.0211e-11 0)
(3 2.01783e-05 0)
(3.01056 0.0226064 0)
(2.34463 0.668809 0)
(1.57288 0.957704 0)
(1.51896 0.947243 0)
(1.533 0.941294 0)
(1.54603 0.934215 0)
(1.55836 0.925413 0)
(1.57173 0.915211 0)
(1.58533 0.905829 0)
(3 6.83667e-17 0)
(3 2.02385e-16 0)
(3 5.27338e-16 0)
(3 9.68714e-16 0)
(3 1.17523e-15 0)
(3 1.24502e-15 0)
(3 4.91543e-16 0)
(3 4.71284e-16 0)
(3 7.69531e-16 0)
(3 1.55844e-16 0)
(3 -5.89231e-16 0)
(3 -4.16362e-16 0)
(3 5.20383e-16 0)
(3 1.32318e-15 0)
(3 1.01916e-15 0)
(3 8.01632e-16 0)
(3 7.72722e-16 0)
(3 2.44665e-16 0)
(3 -1.2061e-15 0)
(3 -1.88396e-15 0)
(3 -2.03471e-15 0)
(3 -1.22324e-15 0)
(3 -7.73439e-16 0)
(3 9.74842e-18 0)
(3 4.46576e-16 0)
(3 3.07805e-16 0)
(3 1.75608e-16 0)
(3 -2.00557e-16 0)
(3 -2.12488e-16 0)
(3 -5.65435e-16 0)
(3 -9.20126e-16 0)
(3 -4.73109e-16 0)
(3 1.47491e-16 0)
(3 1.38458e-15 0)
(3 1.47609e-15 0)
(3 1.05263e-15 0)
(3 1.12976e-15 0)
(3 1.42737e-15 0)
(3 1.2418e-15 0)
(3 4.23514e-16 0)
(3 1.15265e-16 0)
(3 5.01711e-16 0)
(3 9.66083e-16 0)
(3 1.04412e-15 0)
(3 1.38733e-15 0)
(3 1.93656e-15 0)
(3 1.91347e-15 0)
(3 1.51361e-15 0)
(3 3.82429e-16 0)
(3 -1.57271e-16 0)
(3 1.78492e-16 0)
(3 1.90005e-16 0)
(3 1.30574e-16 0)
(3 -6.7831e-19 0)
(3 2.23369e-16 0)
(3 -2.52284e-16 0)
(3 -3.90384e-16 0)
(3 -4.54282e-16 0)
(3 -4.44355e-16 0)
(3 -5.03172e-16 0)
(3 -4.49753e-16 0)
(3 -5.28953e-16 0)
(3 -7.85321e-16 0)
(3 -1.90121e-16 0)
(3 3.01e-17 0)
(3 6.6827e-16 0)
(3 4.29233e-16 0)
(3 1.16144e-15 0)
(3 1.18341e-15 0)
(3 1.2156e-15 0)
(3 1.65615e-15 0)
(3 2.07481e-15 0)
(3 2.36773e-15 0)
(3 2.09491e-15 0)
(3 1.54983e-15 0)
(3 3.26737e-16 0)
(3 -1.65553e-15 0)
(3 -2.08139e-15 0)
(3 -2.36764e-15 0)
(3 -2.98331e-15 0)
(3 -3.90778e-15 0)
(3 -3.84728e-15 0)
(3 -1.86243e-15 0)
(3 -5.68183e-16 0)
(3 1.0802e-15 0)
(3 1.24448e-14 0)
(3 1.27605e-08 0)
(3.0001 0.000730046 0)
(2.98013 0.125257 0)
(1.94801 0.844743 0)
(1.55138 0.947136 0)
(1.55023 0.94489 0)
(1.5642 0.937747 0)
(1.57644 0.930402 0)
(1.58907 0.922504 0)
(1.6008 0.915426 0)
(3 -1.63475e-17 0)
(3 -4.32842e-16 0)
(3 -3.28958e-16 0)
(3 2.80629e-16 0)
(3 1.85649e-16 0)
(3 2.45089e-16 0)
(3 4.85763e-16 0)
(3 1.03834e-16 0)
(3 2.49406e-16 0)
(3 1.24681e-16 0)
(3 1.83201e-16 0)
(3 4.12155e-16 0)
(3 6.88258e-16 0)
(3 9.16361e-16 0)
(3 1.32763e-15 0)
(3 1.4181e-15 0)
(3 1.9005e-15 0)
(3 7.50794e-16 0)
(3 -1.2746e-15 0)
(3 -1.50561e-15 0)
(3 -3.76626e-16 0)
(3 -6.59848e-16 0)
(3 -1.25599e-15 0)
(3 -2.384e-15 0)
(3 -1.0887e-15 0)
(3 -6.18898e-16 0)
(3 -4.06587e-16 0)
(3 -1.08552e-16 0)
(3 -6.59013e-16 0)
(3 -7.88352e-16 0)
(3 -8.21505e-16 0)
(3 -1.08933e-15 0)
(3 -5.30922e-16 0)
(3 1.94743e-16 0)
(3 1.64814e-16 0)
(3 6.55461e-16 0)
(3 7.38377e-16 0)
(3 1.17622e-15 0)
(3 1.54177e-15 0)
(3 1.36037e-15 0)
(3 6.17595e-16 0)
(3 8.59408e-16 0)
(3 6.90316e-16 0)
(3 3.24927e-16 0)
(3 -1.70403e-16 0)
(3 -7.20029e-17 0)
(3 -1.43255e-16 0)
(3 -1.14818e-16 0)
(3 -1.20616e-15 0)
(3 -1.64779e-15 0)
(3 -1.23195e-15 0)
(3 -7.85644e-16 0)
(3 -8.65725e-16 0)
(3 -8.66159e-16 0)
(3 -3.62535e-16 0)
(3 4.65654e-16 0)
(3 4.32398e-16 0)
(3 1.23915e-16 0)
(3 -6.17279e-16 0)
(3 -6.10007e-16 0)
(3 -8.35455e-16 0)
(3 -8.83631e-16 0)
(3 -7.05127e-16 0)
(3 -2.12202e-17 0)
(3 2.4519e-16 0)
(3 -4.36052e-16 0)
(3 -4.16272e-16 0)
(3 4.46973e-16 0)
(3 3.19209e-16 0)
(3 4.39497e-16 0)
(3 1.05693e-15 0)
(3 2.07729e-15 0)
(3 2.15996e-15 0)
(3 1.80607e-15 0)
(3 1.37763e-15 0)
(3 9.26532e-16 0)
(3 -1.35232e-16 0)
(3 -1.11009e-15 0)
(3 -1.51407e-15 0)
(3 -6.17689e-16 0)
(3 -8.56557e-16 0)
(3 -2.64627e-15 0)
(3 -2.76502e-15 0)
(3 -6.92267e-16 0)
(3 1.62692e-15 0)
(3 1.87339e-15 0)
(3 4.39977e-12 0)
(3 1.88239e-06 0)
(3.00237 0.0067807 0)
(2.72052 0.403173 0)
(1.73931 0.921567 0)
(1.56294 0.958032 0)
(1.57442 0.952024 0)
(1.58886 0.943965 0)
(1.60093 0.937085 0)
(1.61362 0.929063 0)
(3 1.32856e-16 0)
(3 -8.01455e-17 0)
(3 -2.62465e-16 0)
(3 -1.55629e-16 0)
(3 1.35761e-16 0)
(3 4.6901e-17 0)
(3 5.19662e-16 0)
(3 7.80771e-17 0)
(3 -4.19913e-17 0)
(3 7.82068e-16 0)
(3 1.40817e-15 0)
(3 1.0901e-15 0)
(3 8.9628e-16 0)
(3 6.75475e-16 0)
(3 7.52936e-16 0)
(3 -4.30485e-16 0)
(3 -5.93559e-16 0)
(3 -6.12474e-16 0)
(3 -4.10258e-16 0)
(3 -9.00152e-17 0)
(3 -5.25805e-16 0)
(3 -6.51819e-16 0)
(3 -6.83803e-16 0)
(3 -1.018e-15 0)
(3 -8.64719e-16 0)
(3 -1.09427e-15 0)
(3 -7.68578e-16 0)
(3 -6.3362e-16 0)
(3 -6.6509e-16 0)
(3 -8.38653e-16 0)
(3 1.65086e-16 0)
(3 -4.42036e-17 0)
(3 -1.2153e-16 0)
(3 -1.20413e-17 0)
(3 4.47517e-16 0)
(3 6.37853e-16 0)
(3 8.73904e-16 0)
(3 1.25522e-15 0)
(3 1.89315e-15 0)
(3 2.41004e-15 0)
(3 2.10957e-15 0)
(3 1.71885e-15 0)
(3 8.93282e-16 0)
(3 2.46533e-16 0)
(3 4.37121e-17 0)
(3 -1.10758e-16 0)
(3 -4.02336e-16 0)
(3 -1.17329e-15 0)
(3 -1.28793e-15 0)
(3 -1.13668e-15 0)
(3 -9.16459e-16 0)
(3 -6.49002e-16 0)
(3 -1.34579e-16 0)
(3 -7.53443e-17 0)
(3 2.52369e-16 0)
(3 4.78745e-16 0)
(3 4.13023e-16 0)
(3 5.32071e-16 0)
(3 5.17788e-16 0)
(3 2.78665e-16 0)
(3 -5.4424e-17 0)
(3 -2.38606e-16 0)
(3 1.32734e-16 0)
(3 2.49922e-16 0)
(3 3.89547e-16 0)
(3 -2.45899e-17 0)
(3 3.46891e-17 0)
(3 -1.0592e-15 0)
(3 -1.20902e-15 0)
(3 3.91869e-16 0)
(3 1.13183e-15 0)
(3 9.01434e-16 0)
(3 6.35649e-16 0)
(3 -4.53468e-17 0)
(3 -3.75157e-16 0)
(3 -2.65737e-16 0)
(3 2.75939e-16 0)
(3 -9.4392e-18 0)
(3 5.4209e-16 0)
(3 2.0378e-15 0)
(3 1.45613e-15 0)
(3 -5.83807e-17 0)
(3 -6.73474e-17 0)
(3 3.39478e-16 0)
(3 9.30143e-16 0)
(3 1.09258e-15 0)
(3 1.10218e-15 0)
(3 9.86415e-10 0)
(3 7.69366e-05 0)
(3.00549 0.033 0)
(2.3165 0.676209 0)
(1.64073 0.962848 0)
(1.57626 0.958343 0)
(1.59366 0.952767 0)
(1.60942 0.946342 0)
(1.62449 0.937763 0)
(3 -1.88041e-16 0)
(3 7.38809e-16 0)
(3 4.15345e-16 0)
(3 2.76011e-16 0)
(3 6.59415e-16 0)
(3 4.01946e-16 0)
(3 2.42355e-16 0)
(3 8.67496e-16 0)
(3 1.0671e-15 0)
(3 1.4067e-15 0)
(3 1.28392e-15 0)
(3 1.26187e-15 0)
(3 1.34892e-15 0)
(3 1.17072e-15 0)
(3 6.57209e-16 0)
(3 -6.04041e-16 0)
(3 -1.61713e-15 0)
(3 -1.82784e-15 0)
(3 -9.17146e-16 0)
(3 1.09765e-16 0)
(3 -4.42012e-16 0)
(3 -5.52665e-16 0)
(3 -1.3767e-16 0)
(3 -2.53446e-16 0)
(3 2.94926e-16 0)
(3 -8.48813e-17 0)
(3 -8.83224e-16 0)
(3 -1.15274e-15 0)
(3 -8.19555e-16 0)
(3 -4.50613e-16 0)
(3 3.60918e-16 0)
(3 9.59345e-16 0)
(3 7.5927e-16 0)
(3 2.39704e-16 0)
(3 3.57976e-16 0)
(3 2.67089e-16 0)
(3 -2.76407e-16 0)
(3 -2.11549e-17 0)
(3 7.60356e-16 0)
(3 1.75154e-15 0)
(3 1.78401e-15 0)
(3 1.15624e-15 0)
(3 3.97303e-16 0)
(3 -1.34332e-16 0)
(3 -2.06993e-16 0)
(3 -1.22259e-16 0)
(3 -8.10216e-16 0)
(3 -1.33415e-15 0)
(3 -4.18944e-16 0)
(3 -6.61685e-17 0)
(3 6.67163e-18 0)
(3 4.08383e-16 0)
(3 3.63927e-16 0)
(3 8.29994e-16 0)
(3 1.08443e-15 0)
(3 5.50165e-16 0)
(3 3.03302e-16 0)
(3 1.10587e-15 0)
(3 1.13551e-15 0)
(3 3.45205e-16 0)
(3 5.46758e-16 0)
(3 3.27428e-17 0)
(3 -5.02086e-17 0)
(3 -7.71755e-16 0)
(3 -1.46244e-15 0)
(3 -8.83658e-16 0)
(3 -9.05687e-16 0)
(3 -1.08591e-15 0)
(3 -1.10233e-15 0)
(3 -6.14887e-16 0)
(3 9.53272e-17 0)
(3 -8.52188e-16 0)
(3 -1.71433e-15 0)
(3 -1.15423e-15 0)
(3 -1.11254e-15 0)
(3 -6.51587e-16 0)
(3 -8.61469e-17 0)
(3 1.12115e-15 0)
(3 2.15796e-15 0)
(3 2.37845e-15 0)
(3 1.90985e-15 0)
(3 1.13369e-15 0)
(3 9.96797e-16 0)
(3 9.27312e-16 0)
(3 7.3809e-17 0)
(3 6.59018e-17 0)
(3 -2.80623e-16 0)
(3 2.53675e-13 0)
(3 7.67363e-08 0)
(3.00009 0.00125076 0)
(2.95417 0.137036 0)
(2.00874 0.834949 0)
(1.6081 0.961141 0)
(1.60391 0.959578 0)
(1.61998 0.951744 0)
(1.63585 0.943065 0)
(3 -1.84112e-16 0)
(3 4.12779e-17 0)
(3 8.70442e-16 0)
(3 6.35554e-16 0)
(3 3.09645e-16 0)
(3 3.3179e-16 0)
(3 7.94278e-16 0)
(3 2.15773e-15 0)
(3 2.85874e-15 0)
(3 2.70105e-15 0)
(3 2.4822e-15 0)
(3 2.09378e-15 0)
(3 1.57518e-15 0)
(3 6.04643e-16 0)
(3 -5.04581e-16 0)
(3 -8.24148e-16 0)
(3 -9.89058e-16 0)
(3 -6.34926e-16 0)
(3 -5.01787e-16 0)
(3 -2.23968e-16 0)
(3 -1.25673e-16 0)
(3 -3.15533e-16 0)
(3 4.01098e-16 0)
(3 5.5024e-16 0)
(3 3.12611e-16 0)
(3 6.42061e-16 0)
(3 5.46092e-16 0)
(3 1.93227e-16 0)
(3 2.56447e-16 0)
(3 6.05808e-16 0)
(3 2.49585e-16 0)
(3 4.90734e-16 0)
(3 7.20382e-16 0)
(3 -3.40802e-16 0)
(3 -3.86096e-17 0)
(3 9.11391e-16 0)
(3 4.11189e-16 0)
(3 2.62116e-18 0)
(3 -6.03979e-17 0)
(3 2.99429e-16 0)
(3 1.78164e-16 0)
(3 1.45307e-16 0)
(3 3.97107e-17 0)
(3 2.00249e-16 0)
(3 9.99526e-17 0)
(3 -9.90733e-16 0)
(3 -1.41558e-15 0)
(3 -5.29193e-16 0)
(3 1.08421e-15 0)
(3 1.01699e-15 0)
(3 1.00197e-15 0)
(3 1.5204e-15 0)
(3 1.3417e-15 0)
(3 1.66755e-15 0)
(3 7.88913e-16 0)
(3 1.9882e-16 0)
(3 1.19368e-16 0)
(3 -9.36517e-17 0)
(3 -4.05351e-16 0)
(3 -3.01739e-16 0)
(3 9.06916e-18 0)
(3 1.85393e-17 0)
(3 -2.22937e-16 0)
(3 -5.4668e-16 0)
(3 -1.10714e-15 0)
(3 -1.1329e-15 0)
(3 -1.34973e-15 0)
(3 -1.04031e-15 0)
(3 -1.59292e-15 0)
(3 -1.35963e-15 0)
(3 -1.33132e-15 0)
(3 -1.53854e-15 0)
(3 -2.32119e-15 0)
(3 -1.71274e-15 0)
(3 -4.25019e-16 0)
(3 1.86196e-16 0)
(3 7.46417e-16 0)
(3 1.24508e-15 0)
(3 1.27718e-15 0)
(3 8.31405e-16 0)
(3 8.02157e-16 0)
(3 1.08477e-15 0)
(3 6.06378e-17 0)
(3 -2.17975e-16 0)
(3 1.94331e-16 0)
(3 -3.60955e-18 0)
(3 6.65197e-17 0)
(3 8.24162e-16 0)
(3 3.95071e-11 0)
(3 4.02382e-06 0)
(3.00105 0.00797405 0)
(2.74607 0.372559 0)
(1.82019 0.912745 0)
(1.62183 0.967635 0)
(1.62962 0.962604 0)
(1.64565 0.9533 0)
(3 1.2633e-16 0)
(3 -1.49939e-16 0)
(3 3.85388e-17 0)
(3 -1.31112e-16 0)
(3 -7.40857e-16 0)
(3 1.79125e-17 0)
(3 7.52776e-16 0)
(3 1.20615e-15 0)
(3 1.71051e-15 0)
(3 2.29869e-15 0)
(3 2.55304e-15 0)
(3 8.11098e-16 0)
(3 2.23684e-16 0)
(3 -7.55912e-16 0)
(3 -1.84441e-15 0)
(3 -1.96579e-15 0)
(3 -1.24453e-15 0)
(3 -6.59147e-16 0)
(3 -4.68149e-16 0)
(3 -8.46272e-17 0)
(3 7.24929e-17 0)
(3 2.1512e-16 0)
(3 6.0777e-16 0)
(3 1.07964e-15 0)
(3 9.95394e-18 0)
(3 1.64156e-16 0)
(3 5.14319e-16 0)
(3 4.66653e-16 0)
(3 7.15306e-16 0)
(3 1.5822e-16 0)
(3 -4.12288e-16 0)
(3 -6.14014e-16 0)
(3 -1.36567e-16 0)
(3 7.00883e-16 0)
(3 1.38492e-15 0)
(3 1.01813e-15 0)
(3 1.0733e-15 0)