/*--------------------------------*- C++ -*----------------------------------*\
  =========                 |
  \\      /  F ield         | OpenFOAM: The Open Source CFD Toolbox
   \\    /   O peration     | Website:  https://openfoam.org
    \\  /    A nd           | Version:  7
     \\/     M anipulation  |
\*---------------------------------------------------------------------------*/
FoamFile
{
    version     2.0;
    format      ascii;
    class       volScalarField;
    location    "3.9";
    object      T;
}
// * * * * * * * * * * * * * * * * * * * * * * * * * * * * * * * * * * * * * //

dimensions      [0 0 0 1 0 0 0];

internalField   nonuniform List<scalar> 
4040
(
1
1
1
1
1
1
1
1
1
1
1
1
1
1.08461
2.3536
2.71943
2.73252
2.74945
2.76454
2.77844
2.79129
2.80266
2.81206
2.8191
1
1
1
1
1
1
1
1
1
1
1
1
1
1.06326
2.33515
2.71698
2.73083
2.74723
2.76211
2.77552
2.78786
2.79863
2.80721
2.8132
1
1
1
1
1
1
1
1
1
1
1
1
1
1.00474
2.28269
2.71031
2.72585
2.74202
2.75632
2.76801
2.77795
2.78701
2.79801
2.81091
1
1
1
1
1
1
1
1
1
1
1
1
1
1.00005
2.20925
2.69782
2.71829
2.73445
2.74845
2.75923
2.76767
2.7777
2.79207
2.82534
1
1
1
1
1
1
1
1
1
1
1
1
1
1
2.10518
2.67889
2.70928
2.72447
2.73769
2.74733
2.75327
2.75763
2.7508
2.75614
1
1
1
1
1
1
1
1
1
1
1
1
1
1
1.96063
2.64585
2.69249
2.70896
2.7227
2.73181
2.73526
2.73404
2.72254
2.73659
1
1
1
1
1
1
1
1
1
1
1
1
1
1
1.76261
2.58447
2.66554
2.68988
2.70554
2.71467
2.71583
2.71077
2.70163
2.70614
1
1
1
1
1
1
1
1
1
1
1
1
1
1
1.47858
2.47043
2.63526
2.66557
2.68404
2.69474
2.694
2.68785
2.68022
2.68396
1
1
1
1
1
1
1
1
1
1
1
1
1
1
1.10526
2.33568
2.63432
2.6387
2.65213
2.66319
2.6645
2.65996
2.65089
2.64019
1
1
1
1
1
1
1
1
1
1
1
1
1
1
1.00299
2.18855
2.59398
2.60102
2.61375
2.6243
2.62855
2.6248
2.61244
2.58394
1
1
1
1
1
1
1
1
1
1
1
1
1
1
0.999986
1.90765
2.54317
2.58516
2.59225
2.59533
2.59536
2.58959
2.57367
2.53739
1
1
1
1
1
1
1
1
1
1
1
1
1
1
0.999996
1.46275
2.41176
2.56619
2.5693
2.56895
2.56484
2.55418
2.53332
2.49686
1
1
1
1
1
1
1
1
1
1
1
1
1
1
0.999999
1.05904
2.22621
2.53992
2.54265
2.54127
2.53429
2.52073
2.49746
2.45971
1
1
1
1
1
1
1
1
1
1
1
1
1
1
1
1.00067
1.92941
2.46956
2.51931
2.51321
2.5038
2.48827
2.46558
2.42428
1
1
1
1
1
1
1
1
1
1
1
1
1
1
1
0.999996
1.38143
2.31843
2.49376
2.48125
2.47459
2.46076
2.43727
2.39781
1
1
1
1
1
1
1
1
1
1
1
1
1
1
1
0.999999
1.03539
2.13308
2.44926
2.43728
2.43934
2.42985
2.40881
2.3744
1
1
1
1
1
1
1
1
1
1
1
1
1
1
1
1
1.00019
1.68048
2.33883
2.41708
2.4129
2.40204
2.38176
2.35099
1
1
1
1
1
1
1
1
1
1
1
1
1
1
1
1
0.999999
1.12777
2.14598
2.39784
2.38965
2.37659
2.35558
2.32694
1
1
1
1
1
1
1
1
1
1
1
1
1
1
1
1
1
1.00339
1.76697
2.30396
2.36695
2.34892
2.32854
2.30211
1
1
1
1
1
1
1
1
1
1
1
1
1
1
1
1
1
1
1.18333
2.11129
2.34361
2.3226
2.30411
2.28052
1
1
1
1
1
1
1
1
1
1
1
1
1
1
1
1
1
1
1.00719
1.73925
2.25357
2.29376
2.2767
2.25668
1
1
1
1
1
1
1
1
1
1
1
1
1
1
1
1
1
1
1.00002
1.17827
2.04669
2.27226
2.25156
2.23638
1
1
1
1
1
1
1
1
1
1
1
1
1
1
1
1
1
1
1
1.00684
1.58184
2.14383
2.23307
2.21359
1
1
1
1
1
1
1
1
1
1
1
1
1
1
1
1
1
1
1
1.00003
1.10415
1.90912
2.20992
2.19211
1
1
1
1
1
1
1
1
1
1
1
1
1
1
1
1
1
1
1
1
1.00248
1.38345
2.03645
2.1717
1
1
1
1
1
1
1
1
1
1
1
1
1
1
1
1
1
1
1
1
1.00001
1.03827
1.69527
2.09691
1
1
1
1
1
1
1
1
1
1
1
1
1
1
1
1
1
1
1
1
1
1.00051
1.18176
1.87165
1
1
1
1
1
1
1
1
1
1
1
1
1
1
1
1
1
1
1
1
1
1
1.00779
1.39122
1
1
1
1
1
1
1
1
1
1
1
1
1
1
1
1
1
1
1
1
1
1
1.00006
1.04303
1
1
1
1
1
1
1
1
1
1
1
1
1
1
1
1
1
1
1
1
1
1
1
1.00072
1
1
1
1
1
1
1
1
1
1
1
1
1
1
1
1
1
1
1
1
1
1
1
1
1
1
1
1
1
1
1
1
1
1
1
1
1
1
1
1
1
1
1
1
1
1
1
1
1
1
1
1
1
1
1
1
1
1
1
1
1
1
1
1
1
1
1
1
1
1
1
1
1
1
1
1
1
1
1
1
1
1
1
1
1
1
1
1
1
1
1
1
1
1
1
1
1
1
1
1
1
1
1
1
1
1
1
1
1
1
1
1
1
1
1
1
1
1
1
1
1
1
1
1
1
1
1
1
1
1
1
1
1
1
1
1
1
1
1
1
1
1
1
1
1
1
1
1
1
1
1
1
1
1
1
1
1
1
1
1
1
1
1
1
1
1
1
1
1
1
1
1
1
1
1
1
1
1
1
1
1
1
1
1
1
1
1
1
1
1
1
1
1
1
1
1
1
1
1
1
1
1
1
1
1
1
1
1
1
1
1
1
1
1
1
1
1
1
1
1
1
1
1
1
1
1
1
1
1
1
1
1
1
1
1
1
1
1
1
1
2.69679
2.74762
2.7594
2.80956
2.73158
2.77348
2.72042
2.80131
2.61213
2.53201
2.53163
2.3874
2.47288
2.31173
2.42144
2.284
2.38547
2.28151
2.35972
2.27666
2.34201
2.2732
2.32686
2.26729
2.3105
2.25914
2.29124
2.24753
2.27027
2.2335
2.25238
2.22046
2.23308
2.20583
2.2164
2.19242
2.19559
2.17443
2.17579
2.156
2.15011
2.13285
2.13621
2.1193
2.11011
2.10132
1.95362
2.081
1.59385
1.98413
1.13078
1.73441
1.00457
1.26079
1.00003
1.01827
1
1.00023
1
1
1
1
1
1
1
1
1
1
1
1
1
1
1.7726
1.28975
1.17794
1.22566
1.28115
1.37734
1.41496
1.45373
1.52766
1.63567
1.73148
1.7409
1.7243
1.71274
1.71359
1.73237
1.74593
1.74078
1.72853
1.7262
1.72793
1.73236
1.73128
1.72456
1.71249
1.70047
1.69843
1.70096
1.70649
2.18328
2.78974
2.83267
2.82149
2.80927
2.79884
2.79193
2.78691
2.78002
2.76587
2.74405
2.71925
2.69729
2.68131
2.67079
2.66132
2.64721
2.62827
2.60738
2.58835
2.57355
2.56358
2.5539
2.53652
2.51415
2.49182
2.47139
2.45433
2.4419
2.43092
2.41551
2.39758
2.37986
2.36412
2.35105
2.34218
2.3353
2.32538
2.31167
2.29649
2.2792
2.26227
2.24808
2.23606
2.22614
2.21924
2.21115
2.19891
2.18414
2.16483
2.14679
2.13392
2.12363
2.1154
2.10974
2.10128
2.09005
2.07449
2.05408
2.03695
2.02618
2.01838
2.01308
2.01097
2.00035
1.9876
1.66995
1.52654
1.49191
1.4515
1.41544
1.34813
1.33822
1.36303
1.42296
1.47002
1.51047
1.54526
1.57053
1.59366
1.61996
1.64031
1.65262
1.65765
1.66369
1.67061
1.67962
1.68288
1.6808
1.6754
1.66962
1.66847
1.67069
1.67526
2.11748
2.75341
2.81863
2.80702
2.7898
2.77226
2.75694
2.74455
2.73458
2.72492
2.71222
2.69354
2.67047
2.64836
2.62972
2.61578
2.60618
2.59637
2.58138
2.56247
2.5445
2.52915
2.51775
2.50792
2.49434
2.47657
2.45717
2.43852
2.42135
2.4064
2.39395
2.38177
2.3682
2.35344
2.33873
2.32497
2.31261
2.30155
2.29354
2.28453
2.27307
2.25956
2.24389
2.22802
2.21478
2.20343
2.19328
2.18491
2.17397
2.16182
2.14797
2.13223
2.11805
2.10731
2.09776
2.08928
2.08101
2.06947
2.0555
2.03994
2.02526
2.01444
2.00658
2.00102
1.99096
2.05539
1.86316
1.71072
1.61192
1.51651
1.43641
1.39224
1.35264
1.31746
1.33022
1.35022
1.37318
1.40489
1.43209
1.45635
1.48044
1.50493
1.53259
1.55764
1.57454
1.58773
1.60275
1.6128
1.61341
1.61104
1.6095
1.60683
1.60732
1.60865
1.9077
2.62515
2.75108
2.7241
2.70404
2.69085
2.6742
2.65363
2.63518
2.62186
2.61371
2.60896
2.60116
2.58247
2.56044
2.53938
2.52237
2.51229
2.50656
2.49807
2.48413
2.4678
2.45197
2.439
2.42815
2.41961
2.41026
2.39679
2.37903
2.35924
2.3417
2.32753
2.31797
2.31081
2.30104
2.28871
2.27199
2.25574
2.24583
2.23902
2.23523
2.23104
2.22266
2.21125
2.19433
2.17315
2.15668
2.14555
2.13775
2.13412
2.12756
2.11836
2.10675
2.09016
2.07285
2.06105
2.05195
2.04552
2.0402
2.032
2.02134
2.00672
1.99054
1.98046
1.96869
2.10451
1.94929
1.83123
1.72596
1.62845
1.53761
1.49608
1.45213
1.3903
1.36378
1.34906
1.33307
1.33565
1.34477
1.35797
1.37757
1.40305
1.432
1.46122
1.48192
1.49559
1.51294
1.53122
1.54398
1.5495
1.55454
1.55213
1.55119
1.55743
1.66882
2.41599
2.65872
2.60273
2.56675
2.5584
2.55055
2.53464
2.51524
2.4976
2.48464
2.47743
2.4766
2.47067
2.45626
2.44013
2.42128
2.40662
2.39623
2.3901
2.38474
2.37657
2.36719
2.35413
2.34022
2.33143
2.32399
2.31704
2.30774
2.29471
2.27916
2.26187
2.24771
2.23735
2.22822
2.21887
2.20971
2.20086
2.19131
2.18275
2.17736
2.17312
2.16862
2.16145
2.15039
2.13526
2.11745
2.1024
2.09318
2.08685
2.08257
2.07732
2.07024
2.05921
2.04246
2.02477
2.01463
2.00951
2.00587
2.00304
1.99631
1.98657
1.97125
1.95339
1.93568
2.153
2.01939
1.91036
1.81984
1.72175
1.64336
1.58457
1.53702
1.48527
1.42652
1.39078
1.35777
1.33679
1.33062
1.33371
1.34281
1.35434
1.36991
1.39141
1.41367
1.43295
1.45193
1.47188
1.4872
1.49765
1.50611
1.50914
1.5198
1.57035
1.71641
2.16443
2.50056
2.51435
2.46747
2.44324
2.43789
2.43001
2.42046
2.40361
2.38734
2.37578
2.37053
2.37094
2.36497
2.35606
2.34345
2.32563
2.31226
2.30344
2.29791
2.29346
2.28696
2.27913
2.26683
2.25258
2.24406
2.23743
2.23204
2.22606
2.21637
2.20424
2.18787
2.169
2.15465
2.14584
2.14049
2.13673
2.13327
2.12829
2.12035
2.11088
2.10229
2.09425
2.086
2.07755
2.06924
2.05982
2.04821
2.0377
2.03021
2.02323
2.01551
2.00704
1.99849
1.99
1.97972
1.97
1.9647
1.9601
1.95444
1.94665
1.93491
1.92104
1.90208
2.17845
2.07564
1.97157
1.88683
1.80471
1.73166
1.6645
1.60317
1.55978
1.51348
1.47066
1.43506
1.40216
1.3767
1.35948
1.35729
1.35519
1.34564
1.34523
1.35059
1.36442
1.38364
1.41048
1.43645
1.45812
1.47259
1.48605
1.53784
1.71721
1.86497
1.98282
2.26617
2.40211
2.41042
2.39208
2.37741
2.36987
2.36297
2.35216
2.33329
2.3189
2.30959
2.30635
2.30647
2.30141
2.29394
2.2803
2.26179
2.25008
2.24243
2.23763
2.23285
2.22594
2.21703
2.20367
2.19117
2.18433
2.17938
2.17487
2.16671
2.1561
2.1415
2.12182
2.1058
2.09827
2.09364
2.091
2.08784
2.08295
2.07351
2.05895
2.04727
2.04003
2.03485
2.03047
2.02593
2.01969
2.0099
1.99546
1.9818
1.97183
1.96383
1.95819
1.95477
1.95161
1.94606
1.936
1.9248
1.91713
1.91035
1.90272
1.89378
1.88532
1.87068
2.19181
2.11017
2.02621
1.94183
1.86493
1.79884
1.73783
1.67595
1.62123
1.5804
1.53576
1.49915
1.46756
1.43821
1.41033
1.3858
1.36798
1.34926
1.34069
1.34231
1.34373
1.34745
1.35758
1.37662
1.40211
1.4335
1.48673
1.66882
1.8541
1.94259
1.96605
2.03939
2.22478
2.34316
2.34985
2.34769
2.34196
2.33424
2.32473
2.31038
2.29033
2.27902
2.27372
2.27431
2.27351
2.26691
2.25701
2.2405
2.22267
2.21251
2.20567
2.20124
2.19511
2.18744
2.17783
2.16446
2.1522
2.14475
2.13773
2.12977
2.12056
2.10974
2.09618
2.08144
2.07216
2.06694
2.06283
2.05788
2.05142
2.03955
2.02123
2.00899
2.00374
1.99981
1.99755
1.99469
1.98945
1.98094
1.96387
1.94311
1.93214
1.92697
1.92349
1.92089
1.91842
1.91502
1.9074
1.89346
1.88046
1.87258
1.86604
1.85978
1.85483
1.84376
2.19862
2.1299
2.05723
1.9816
1.91636
1.85194
1.79128
1.735
1.68407
1.63651
1.59585
1.5586
1.52552
1.49246
1.46546
1.43997
1.41656
1.39369
1.37266
1.36217
1.35354
1.34699
1.34433
1.34769
1.35786
1.39806
1.57397
1.78998
1.85946
1.91708
1.94038
1.9433
2.00612
2.1818
2.28455
2.30808
2.3179
2.31847
2.3083
2.2971
2.28018
2.26359
2.25584
2.2521
2.25203
2.24737
2.23972
2.22895
2.21255
2.19612
2.18635
2.17953
2.17507
2.16917
2.16122
2.1507
2.1354
2.12032
2.11093
2.10355
2.09637
2.08884
2.08106
2.07118
2.0596
2.05173
2.04575
2.03859
2.02971
2.01741
2.00179
1.98971
1.98405
1.98113
1.97841
1.97347
1.96705
1.95737
1.94132
1.92176
1.90929
1.90414
1.90067
1.89746
1.89402
1.88979
1.88295
1.8717
1.85746
1.84787
1.8434
1.83996
1.83552
1.8239
2.20077
2.14147
2.07641
2.01316
1.95409
1.89424
1.83432
1.78554
1.73638
1.68873
1.64371
1.61263
1.57855
1.54509
1.51138
1.48823
1.46119
1.43383
1.41081
1.39232
1.37572
1.35914
1.34819
1.35107
1.39169
1.54504
1.72933
1.78136
1.80666
1.8376
1.86806
1.87968
1.88803
1.94817
2.10859
2.22883
2.27502
2.29475
2.292
2.2815
2.27148
2.25855
2.24378
2.23463
2.22843
2.22436
2.22215
2.21549
2.20571
2.1908
2.17399
2.16405
2.15717
2.15256
2.14602
2.13723
2.1248
2.10736
2.09408
2.08668
2.0808
2.07594
2.07028
2.06306
2.05261
2.03874
2.02632
2.01756
2.00922
2.00077
1.99311
1.98422
1.97274
1.96186
1.95434
1.94824
1.94167
1.93391
1.92489
1.91481
1.90251
1.88987
1.88188
1.8766
1.87168
1.86668
1.86136
1.8554
1.848
1.83754
1.82624
1.8166
1.80942
1.79784
2.19841
2.14578
2.08849
2.03507
1.98085
1.92402
1.87105
1.82414
1.77683
1.73146
1.69022
1.65647
1.6215
1.58716
1.55561
1.53135
1.50577
1.4807
1.45288
1.43287
1.41133
1.39253
1.38693
1.41656
1.55778
1.7408
1.7882
1.79483
1.7944
1.79455
1.79827
1.80242
1.80004
1.80455
1.85598
2.00668
2.16642
2.23604
2.25821
2.26351
2.25835
2.25035
2.23784
2.21915
2.2071
2.20153
2.19778
2.19795
2.19274
2.18297
2.16755
2.15002
2.14037
2.13318
2.1269
2.12042
2.11202
2.09998
2.08455
2.07427
2.06805
2.06296
2.05788
2.05135
2.04182
2.02631
2.01069
2.00136
1.99502
1.98989
1.98445
1.97657
1.96414
1.94872
1.93754
1.92978
1.92255
1.91626
1.9115
1.90617
1.89758
1.88371
1.86961
1.86098
1.85556
1.85164
1.84886
1.84619
1.84116
1.8297
1.81307
1.79873
1.79059
1.7797
2.19213
2.14536
2.09751
2.05042
2.00066
1.94741
1.90211
1.85671
1.81224
1.76625
1.73052
1.69419
1.66013
1.62605
1.59633
1.56925
1.54256
1.51787
1.49449
1.47073
1.44832
1.43216
1.45497
1.58663
1.76257
1.83181
1.82478
1.80809
1.79327
1.78609
1.77675
1.76945
1.76635
1.76483
1.76028
1.78286
1.8942
2.066
2.17167
2.21431
2.23269
2.23478
2.22577
2.21017
2.18829
2.17761
2.17318
2.17372
2.17324
2.16607
2.15523
2.13774
2.12141
2.11323
2.10731
2.10235
2.09611
2.08827
2.07638
2.06284
2.0545
2.0484
2.04199
2.03509
2.02639
2.01234
1.99539
1.98687
1.98223
1.97851
1.97327
1.96609
1.95506
1.93821
1.92218
1.91306
1.90717
1.90242
1.89779
1.89283
1.88694
1.87774
1.865
1.85317
1.84566
1.84077
1.83674
1.83259
1.82707
1.81784
1.8023
1.7864
1.77721
1.76736
2.18405
2.14273
2.10159
2.05919
2.01227
1.9662
1.92481
1.88222
1.83778
1.79686
1.76321
1.72631
1.69216
1.6578
1.63239
1.60391
1.57703
1.55038
1.52381
1.50201
1.49096
1.51878
1.63709
1.80297
1.86429
1.86054
1.84597
1.83007
1.8132
1.79091
1.76943
1.75879
1.7529
1.75
1.74721
1.73761
1.73323
1.78252
1.92632
2.0722
2.1544
2.19027
2.19939
2.19239
2.17562
2.15651
2.14853
2.14586
2.14562
2.14119
2.13354
2.12187
2.10513
2.09299
2.08665
2.08222
2.07734
2.07096
2.06212
2.04916
2.03728
2.02954
2.02294
2.01629
2.00864
1.99783
1.98321
1.97214
1.96682
1.96219
1.95691
1.9511
1.94302
1.92894
1.9099
1.89865
1.89364
1.88902
1.88393
1.8781
1.87171
1.86528
1.85762
1.8477
1.83788
1.8309
1.82496
1.81773
1.80883
1.79918
1.78945
1.77794
1.77053
1.76211
2.17335
2.13755
2.10103
2.06235
2.01964
1.98091
1.94198
1.90161
1.85792
1.82419
1.7892
1.75487
1.71841
1.6896
1.66249
1.63352
1.60644
1.57668
1.55347
1.54424
1.58262
1.72219
1.85802
1.90816
1.89563
1.87538
1.86111
1.85151
1.83736
1.81582
1.78861
1.76939
1.7575
1.74651
1.73705
1.72631
1.71992
1.7055
1.71133
1.7909
1.94307
2.06701
2.13134
2.15435
2.15449
2.14055
2.1258
2.11841
2.11402
2.10947
2.10325
2.09627
2.08662
2.07497
2.06621
2.06031
2.05453
2.04863
2.04138
2.03031
2.01662
2.00662
2.00028
1.99448
1.98827
1.98099
1.97094
1.95809
1.94803
1.94233
1.93759
1.93244
1.92637
1.91742
1.90328
1.88791
1.87933
1.87398
1.86854
1.86291
1.85772
1.85265
1.84677
1.83878
1.82849
1.81838
1.80922
1.80072
1.79175
1.78202
1.77359
1.76799
1.76507
1.75779
2.16295
2.13111
2.09829
2.06183
2.02392
1.98927
1.95336
1.91382
1.87585
1.84439
1.81024
1.77698
1.74193
1.71666
1.6869
1.65964
1.62938
1.59846
1.59892
1.64837
1.79451
1.93944
1.96799
1.94107
1.90854
1.89115
1.88072
1.87163
1.85684
1.83891
1.81419
1.78611
1.76819
1.75408
1.74012
1.72703
1.71481
1.70148
1.69097
1.67297
1.69397
1.80125
1.93991
2.05217
2.09452
2.10868
2.10505
2.09303
2.08291
2.07522
2.06863
2.06348
2.05888
2.05334
2.04543
2.03638
2.02877
2.02251
2.01589
2.0072
1.99518
1.98217
1.97403
1.96965
1.96576
1.96143
1.95518
1.94443
1.92984
1.9198
1.91501
1.91102
1.90663
1.90148
1.8935
1.87977
1.86508
1.85764
1.85295
1.84851
1.84412
1.83949
1.83418
1.82728
1.81699
1.80306
1.79187
1.7836
1.77538
1.76776
1.76311
1.75905
1.75745
1.75317
2.14921
2.12172
2.09186
2.05833
2.02541
1.99333
1.95975
1.92213
1.89101
1.85999
1.82835
1.79261
1.76448
1.73679
1.70837
1.67902
1.6484
1.65037
1.71506
1.84868
1.98578
2.01144
1.99651
1.96151
1.92424
1.90607
1.8956
1.88747
1.87409
1.85787
1.8372
1.80671
1.77827
1.76141
1.74743
1.73271
1.71782
1.70319
1.68762
1.6681
1.64728
1.64448
1.68408
1.80349
1.9333
2.0239
2.04876
2.06031
2.05373
2.04155
2.03633
2.03182
2.02854
2.02532
2.01933
2.00952
1.99965
1.99261
1.98693
1.98095
1.97318
1.96146
1.94837
1.94237
1.9396
1.93667
1.93292
1.92659
1.91461
1.89935
1.89101
1.88775
1.885
1.88185
1.87744
1.86891
1.85382
1.84098
1.83603
1.8327
1.82937
1.82541
1.82028
1.81189
1.7969
1.78149
1.77207
1.76594
1.7625
1.7604
1.75796
1.7541
1.74934
1.73826
2.13372
2.10982
2.08327
2.05373
2.02465
1.99506
1.96342
1.93067
1.90252
1.87215
1.84112
1.80787
1.78166
1.75213
1.72472
1.69871
1.71014
1.79936
1.92564
2.00891
2.04135
2.03294
2.01191
1.98369
1.94872
1.92403
1.9103
1.89882
1.88504
1.86837
1.84893
1.82334
1.79418
1.77115
1.75444
1.73954
1.72435
1.70836
1.69104
1.67058
1.64561
1.6269
1.61519
1.62116
1.67819
1.80092
1.91164
1.98335
1.99944
2.00176
2.00418
2.00126
2.00036
1.99647
1.98957
1.9778
1.96451
1.95814
1.95452
1.95108
1.94729
1.94103
1.92924
1.91548
1.90967
1.90721
1.90455
1.90111
1.89533
1.88457
1.87044
1.86316
1.86106
1.85908
1.85624
1.85169
1.84265
1.82736
1.81662
1.81322
1.81099
1.8079
1.8032
1.79452
1.7786
1.76099
1.75347
1.75109
1.74989
1.75065
1.74942
1.74605
1.73947
1.72201
2.1146
2.09381
2.07044
2.0467
2.02152
1.994
1.96318
1.93631
1.90894
1.88039
1.84845
1.82107
1.79139
1.76609
1.74511
1.77094
1.89082
2.02783
2.06587
2.05864
2.04503
2.03184
2.01858
1.99908
1.97146
1.94206
1.9235
1.90748
1.89071
1.87285
1.85362
1.8317
1.80632
1.78161
1.76199
1.74505
1.72869
1.71205
1.6945
1.67512
1.65101
1.62778
1.60884
1.59778
1.58897
1.60034
1.66602
1.78105
1.87753
1.93154
1.94649
1.96081
1.97112
1.96709
1.95955
1.94553
1.92764
1.92172
1.92
1.91922
1.91785
1.91541
1.90982
1.89589
1.88027
1.87517
1.87311
1.87122
1.86896
1.86494
1.85576
1.84175
1.8346
1.83295
1.8313
1.82907
1.82481
1.81519
1.80121
1.79065
1.78544
1.78238
1.77916
1.77364
1.76195
1.74684
1.74043
1.73912
1.73984
1.74109
1.73887
1.73503
1.72686
1.70364
2.10114
2.08142
2.06025
2.03893
2.01584
1.99027
1.9631
1.93839
1.91164
1.88406
1.85572
1.82758
1.80379
1.79399
1.83877
1.96408
2.10169
2.13566
2.11181
2.07746
2.0475
2.03268
2.02436
2.00951
1.98768
1.95914
1.93286
1.91266
1.89417
1.87552
1.8565
1.83644
1.81349
1.78806
1.76558
1.74713
1.72992
1.71251
1.6947
1.6765
1.65566
1.63206
1.60938
1.59246
1.57815
1.56959
1.56025
1.57528
1.64209
1.74583
1.83261
1.88482
1.91335
1.9274
1.9272
1.91666
1.89871
1.88581
1.88456
1.88499
1.88583
1.88513
1.88319
1.87613
1.85895
1.84413
1.84095
1.83988
1.83908
1.83807
1.83507
1.82685
1.81289
1.80445
1.80244
1.801
1.79891
1.79458
1.78517
1.77059
1.75985
1.75457
1.75032
1.74518
1.74059
1.73796
1.73437
1.7281
1.7219
1.71662
1.71359
1.71007
1.70286
1.68357
2.0843
2.06598
2.04727
2.02758
2.00613
1.98224
1.96004
1.93658
1.91126
1.88314
1.85875
1.83624
1.84202
1.91389
2.04126
2.14006
2.1601
2.14627
2.11833
2.0863
2.05869
2.04306
2.03042
2.01346
1.99197
1.96504
1.93669
1.91411
1.895
1.87635
1.85736
1.83745
1.81521
1.7902
1.76639
1.74667
1.72949
1.71268
1.69524
1.67641
1.65564
1.63303
1.61102
1.59155
1.57574
1.56089
1.54699
1.5373
1.52737
1.54372
1.61002
1.71065
1.79744
1.85388
1.87544
1.88253
1.87735
1.86109
1.84938
1.84777
1.84948
1.85183
1.85055
1.84857
1.84169
1.82459
1.81038
1.80782
1.80703
1.80673
1.80614
1.80379
1.7955
1.77984
1.77369
1.77406
1.77395
1.77128
1.7643
1.75192
1.737
1.72625
1.72146
1.7205
1.72121
1.72178
1.72031
1.71476
1.70397
1.69497
1.6878
1.68042
1.67239
1.66328
2.06683
2.04773
2.03153
2.01418
1.99426
1.97426
1.95433
1.93233
1.90674
1.88483
1.86787
1.8949
2.00308
2.13323
2.17838
2.18067
2.16477
2.14203
2.12262
2.09999
2.07152
2.05016
2.03268
2.01341
1.99167
1.96681
1.93934
1.91477
1.89489
1.87608
1.85675
1.83612
1.81377
1.7898
1.76603
1.7446
1.7257
1.70819
1.69087
1.67281
1.653
1.63112
1.6094
1.59024
1.57424
1.56023
1.54626
1.52978
1.51573
1.50233
1.49233
1.51372
1.58487
1.68626
1.76784
1.82265
1.83809
1.83771
1.82913
1.81587
1.81263
1.81264
1.81844
1.81939
1.81738
1.80788
1.7891
1.77942
1.77816
1.77814
1.77757
1.77626
1.77198
1.76178
1.7494
1.7413
1.73756
1.73506
1.73232
1.72792
1.71994
1.70758
1.69982
1.69942
1.69985
1.70201
1.70181
1.69766
1.68757
1.67419
1.66158
1.65329
1.64747
1.65144
2.05548
2.03623
2.01749
1.99994
1.98294
1.96469
1.94717
1.92343
1.90341
1.90208
1.95352
2.07901
2.20638
2.2366
2.20521
2.17283
2.15437
2.1416
2.12734
2.10643
2.0779
2.0496
2.02869
2.00957
1.9893
1.96662
1.94175
1.91639
1.89254
1.87053
1.84961
1.82873
1.80751
1.7857
1.7633
1.74141
1.72125
1.70295
1.68535
1.66751
1.64872
1.62868
1.60746
1.58775
1.57088
1.5567
1.54433
1.53094
1.51515
1.49703
1.48092
1.46791
1.46707
1.49491
1.57322
1.67503
1.7486
1.795
1.80087
1.79634
1.78926
1.78369
1.78311
1.78408
1.78711
1.78556
1.77546
1.7606
1.75145
1.74796
1.74642
1.74523
1.74353
1.73987
1.72928
1.71398
1.7058
1.70268
1.70087
1.69951
1.69768
1.69423
1.6887
1.68176
1.67786
1.67602
1.67328
1.67072
1.66504
1.6532
1.63971
1.63511
1.63759
1.67641
1.99759
2.02749
2.00968
1.98919
1.97248
1.95381
1.93579
1.92316
1.93663
2.02284
2.14945
2.23176
2.26296
2.24339
2.20484
2.16722
2.14715
2.13567
2.12434
2.10378
2.07706
2.04762
2.02324
2.00284
1.98313
1.96225
1.93964
1.91505
1.88934
1.86446
1.84143
1.81992
1.79939
1.77914
1.75841
1.73716
1.71621
1.69684
1.67916
1.66256
1.64579
1.62813
1.60889
1.58895
1.57053
1.55456
1.54104
1.53008
1.51915
1.50502
1.48649
1.4678
1.45531
1.44883
1.45423
1.49288
1.57471
1.66952
1.7319
1.77098
1.77403
1.76897
1.76495
1.75944
1.75629
1.75606
1.75557
1.74701
1.73255
1.7245
1.72231
1.72209
1.722
1.71978
1.71145
1.69535
1.68255
1.67775
1.67641
1.67604
1.67613
1.67559
1.67343
1.66677
1.65644
1.64758
1.64151
1.63687
1.63172
1.62999
1.63337
1.64974
1.68254
1.77388
1.8042
1.99535
1.99543
1.98092
1.95825
1.94049
1.93989
1.98301
2.10985
2.2232
2.25856
2.25461
2.24507
2.22417
2.19616
2.16445
2.14305
2.12906
2.11535
2.09621
2.07169
2.04342
2.01689
1.99451
1.974
1.95342
1.93172
1.90838
1.88369
1.85875
1.83506
1.81323
1.79283
1.77303
1.75322
1.73327
1.71328
1.69378
1.67536
1.65866
1.64326
1.62782
1.61104
1.59338
1.57616
1.56002
1.54457
1.53001
1.51699
1.5072
1.49819
1.48351
1.46607
1.45286
1.44534
1.44049
1.45168
1.49372
1.57515
1.66301
1.73665
1.75568
1.75564
1.75103
1.74286
1.73587
1.7307
1.72453
1.71865
1.71174
1.70461
1.70046
1.69771
1.6947
1.68895
1.67772
1.66648
1.66271
1.6616
1.66034
1.65914
1.65806
1.65543
1.64786
1.63262
1.61761
1.61093
1.61016
1.61095
1.62406
1.66307
1.72892
1.79789
1.85943
1.38409
1.84505
1.97595
1.96577
1.94142
1.9507
2.03784
2.17577
2.27546
2.29047
2.26134
2.23925
2.22021
2.20525
2.18557
2.15891
2.13701
2.12008
2.10411
2.08557
2.06248
2.03563
2.00884
1.98552
1.96459
1.9441
1.92306
1.90125
1.87849
1.85492
1.83152
1.80959
1.78933
1.76995
1.75081
1.73187
1.71292
1.69378
1.67537
1.6581
1.64186
1.62667
1.61119
1.59606
1.58226
1.56887
1.55543
1.54117
1.52777
1.51559
1.50291
1.4926
1.48373
1.4704
1.45684
1.44761
1.44263
1.44055
1.45397
1.49861
1.59421
1.67198
1.73314
1.74951
1.74461
1.73524
1.72755
1.71826
1.70936
1.70022
1.69119
1.6842
1.67991
1.67688
1.67368
1.66915
1.66118
1.65091
1.64277
1.64044
1.63872
1.63525
1.62931
1.62071
1.6078
1.59707
1.59551
1.60182
1.63021
1.69223
1.76933
1.83339
1.86942
1.86933
1.04681
1.4849
1.89109
1.92435
1.97291
2.11446
2.24194
2.29018
2.29344
2.27343
2.24644
2.22225
2.20488
2.19346
2.17774
2.15464
2.13258
2.11277
2.09441
2.07589
2.05407
2.02891
2.00316
1.98007
1.95953
1.93993
1.92016
1.89938
1.8774
1.85438
1.83133
1.8097
1.78996
1.7718
1.75431
1.73701
1.72036
1.70554
1.6902
1.67308
1.65509
1.63844
1.62576
1.61566
1.60406
1.59017
1.57535
1.56425
1.55358
1.54017
1.52483
1.50814
1.49983
1.49503
1.48718
1.47621
1.46125
1.45093
1.44219
1.44205
1.46153
1.52131
1.61468
1.68862
1.72856
1.73667
1.73207
1.72604
1.71826
1.70676
1.69581
1.68299
1.67207
1.66742
1.66274
1.65745
1.65187
1.64465
1.63439
1.62541
1.619
1.61294
1.60715
1.6015
1.59628
1.60077
1.62343
1.67332
1.7431
1.8064
1.85668
1.86457
1.86163
1.8504
1.00087
1.0916
1.60296
1.81567
2.18564
2.32599
2.33181
2.32175
2.30206
2.28048
2.25527
2.2304
2.21394
2.19946
2.18018
2.15515
2.13157
2.1111
2.09051
2.071
2.0501
2.02633
2.00149
1.97871
1.95837
1.93922
1.92034
1.90075
1.87977
1.85737
1.83489
1.81445
1.7967
1.78099
1.76613
1.75099
1.73424
1.7162
1.69833
1.68221
1.66841
1.65652
1.64515
1.63121
1.61532
1.6025
1.59386
1.58488
1.57244
1.55741
1.54547
1.53557
1.52426
1.51157
1.49991
1.4886
1.47566
1.4648
1.45683
1.45101
1.44651
1.45216
1.48028
1.55104
1.6437
1.69504
1.71747
1.72253
1.71764
1.71003
1.69968
1.6866
1.6762
1.66994
1.66432
1.65841
1.65223
1.64441
1.63316
1.61906
1.60668
1.60096
1.6007
1.60339
1.62262
1.67611
1.74475
1.80694
1.85134
1.86671
1.86711
1.86348
1.85394
1.84432
1
1.00273
1.15192
1.96936
2.495
2.47843
2.4175
2.37821
2.3469
2.31984
2.28995
2.26047
2.23971
2.22583
2.20727
2.18173
2.15988
2.14114
2.12079
2.10107
2.08065
2.05755
2.03311
2.01059
1.99063
1.97186
1.95331
1.93422
1.91384
1.89229
1.87119
1.85248
1.83632
1.82155
1.8068
1.7908
1.77225
1.75061
1.72954
1.71302
1.70056
1.68852
1.67564
1.66239
1.64979
1.63681
1.62292
1.60902
1.59745
1.587
1.57546
1.56245
1.55013
1.53954
1.5297
1.51853
1.50445
1.49022
1.47998
1.47399
1.46551
1.46038
1.45155
1.45821
1.49379
1.57368
1.65572
1.71775
1.72003
1.71619
1.70879
1.69731
1.68302
1.66829
1.66099
1.65562
1.65065
1.64426
1.63511
1.62431
1.61214
1.6094
1.62167
1.67146
1.74879
1.81781
1.85962
1.88741
1.89088
1.88581
1.87703
1.86928
1.86639
1.86249
1
1.00002
1.02503
2.30611
2.68834
2.60124
2.51706
2.46665
2.43027
2.39861
2.36776
2.33787
2.31129
2.29167
2.26821
2.23926
2.21396
2.19513
2.1743
2.15266
2.13116
2.10686
2.08049
2.05614
2.0349
2.01504
1.99543
1.97542
1.95455
1.93297
1.91202
1.89329
1.87655
1.86056
1.84404
1.82635
1.80757
1.7886
1.77034
1.7532
1.73732
1.72271
1.70924
1.69691
1.6857
1.67397
1.6608
1.64632
1.63142
1.61667
1.60376
1.59328
1.58388
1.5736
1.56074
1.54515
1.52979
1.51996
1.51168
1.50074
1.48617
1.47098
1.45708
1.44966
1.44681
1.46307
1.51669
1.60738
1.68098
1.73356
1.73137
1.72385
1.70407
1.68303
1.66835
1.65824
1.65043
1.64574
1.64161
1.63548
1.6423
1.67859
1.74692
1.82466
1.88535
1.9108
1.92299
1.92381
1.91909
1.90711
1.89411
1.88633
1.88265
1.87819
1
1
1.24856
2.4725
2.73307
2.6866
2.64182
2.6016
2.56533
2.52846
2.4915
2.45445
2.41975
2.39114
2.36173
2.33073
2.30322
2.28238
2.263
2.2393
2.21394
2.18611
2.15694
2.12991
2.10629
2.08464
2.06358
2.04231
2.02034
1.99781
1.9757
1.955
1.93558
1.91688
1.89815
1.87902
1.85957
1.84051
1.82212
1.80414
1.78652
1.76973
1.75422
1.73978
1.72578
1.71111
1.6956
1.67966
1.66413
1.64958
1.63679
1.62513
1.613
1.5999
1.5857
1.57227
1.56067
1.54858
1.53498
1.52006
1.50228
1.48285
1.46724
1.45714
1.45197
1.44539
1.44746
1.47681
1.54933
1.6468
1.69814
1.72643
1.72204
1.71073
1.69162
1.67417
1.66554
1.66262
1.67262
1.70585
1.77212
1.84562
1.90956
1.9426
1.95427
1.9623
1.95982
1.95245
1.94157
1.9304
1.92339
1.9168
1.91285
1.90683
1
1
1.37804
2.5354
2.73733
2.72071
2.69978
2.67766
2.65281
2.62428
2.59377
2.56298
2.53462
2.50734
2.47631
2.44375
2.4142
2.38852
2.36383
2.33476
2.30315
2.26943
2.2369
2.20727
2.18066
2.15645
2.13318
2.10902
2.08312
2.05645
2.03083
2.00718
1.98529
1.9647
1.94454
1.92397
1.90266
1.88129
1.86074
1.84117
1.8228
1.80542
1.7886
1.77189
1.75506
1.738
1.72116
1.70529
1.69056
1.67628
1.66247
1.64874
1.63446
1.6202
1.60614
1.59263
1.57904
1.56334
1.54428
1.52594
1.51169
1.49748
1.48457
1.47196
1.46003
1.4453
1.42949
1.42527
1.43656
1.49341
1.58494
1.67211
1.697
1.7038
1.70059
1.69619
1.70514
1.73646
1.80158
1.87577
1.94439
1.97737
1.99943
1.99881
1.99224
1.98734
1.98103
1.97293
1.96523
1.959
1.95305
1.94428
1.93916
1.93167
1
1
1.36458
2.52454
2.72464
2.72044
2.7107
2.70239
2.69017
2.67498
2.6567
2.63582
2.61203
2.58288
2.54897
2.51503
2.48422
2.4562
2.4266
2.39122
2.35481
2.3213
2.29117
2.26328
2.23511
2.20768
2.17939
2.14953
2.11992
2.09289
2.06866
2.0459
2.02328
1.99992
1.97507
1.94932
1.9245
1.90219
1.88237
1.86415
1.84677
1.82916
1.81037
1.7904
1.77093
1.75315
1.73697
1.72231
1.70845
1.69384
1.67714
1.6592
1.64243
1.6282
1.61513
1.60163
1.58643
1.56839
1.54798
1.53047
1.52007
1.51219
1.50315
1.48879
1.46707
1.4421
1.42696
1.42127
1.4169
1.42138
1.45273
1.52515
1.61454
1.68261
1.71997
1.76577
1.82959
1.8947
1.95475
1.99248
2.02571
2.03788
2.03038
2.01571
2.00588
2.00104
1.99852
1.99478
1.98987
1.98528
1.97824
1.96605
1.95736
1.94722
1
1
1.34993
2.51941
2.71342
2.71621
2.70863
2.70356
2.69582
2.6868
2.67473
2.65824
2.63571
2.60772
2.57736
2.54734
2.51817
2.48776
2.45301
2.41595
2.37901
2.34544
2.31689
2.28754
2.25711
2.22608
2.19371
2.16178
2.13307
2.10788
2.08446
2.06121
2.03677
2.01032
1.98203
1.9542
1.92946
1.90863
1.89074
1.87427
1.85754
1.83855
1.81694
1.79487
1.77532
1.75877
1.74427
1.73075
1.71609
1.69864
1.67884
1.65921
1.64245
1.62908
1.61719
1.60449
1.58851
1.56664
1.54634
1.53604
1.52746
1.51707
1.50402
1.48658
1.45905
1.43543
1.42646
1.42075
1.41484
1.41382
1.41275
1.42796
1.48615
1.59061
1.73033
1.85904
1.95529
2.05598
2.10543
2.11001
2.09735
2.07302
2.04332
2.02183
2.00963
2.00366
2.00038
1.99951
1.99755
1.9941
1.98751
1.97549
1.9664
1.95469
)
;

boundaryField
{
    inlet
    {
        type            fixedValue;
        value           uniform 1;
    }
    outlet
    {
        type            inletOutlet;
        inletValue      uniform 1;
        value           nonuniform List<scalar> 
32
(
2.00083
1.99173
1.96915
1.93568
1.90159
1.87027
1.84365
1.82337
1.79783
1.77982
1.76794
1.76296
1.75872
1.75432
1.73757
1.71974
1.70051
1.68101
1.66296
1.65229
1.6769
1.77247
1.85828
1.86785
1.84854
1.845
1.86385
1.87886
1.90694
1.93159
1.94724
1.9547
)
;
    }
    bottom
    {
        type            zeroGradient;
    }
    top
    {
        type            zeroGradient;
    }
    obstacle
    {
        type            zeroGradient;
    }
    defaultFaces
    {
        type            empty;
    }
}


// ************************************************************************* //
