/*--------------------------------*- C++ -*----------------------------------*\
  =========                 |
  \\      /  F ield         | OpenFOAM: The Open Source CFD Toolbox
   \\    /   O peration     | Website:  https://openfoam.org
    \\  /    A nd           | Version:  7
     \\/     M anipulation  |
\*---------------------------------------------------------------------------*/
FoamFile
{
    version     2.0;
    format      ascii;
    class       volVectorField;
    location    "3.8";
    object      U;
}
// * * * * * * * * * * * * * * * * * * * * * * * * * * * * * * * * * * * * * //

dimensions      [0 1 -1 0 0 0 0];

internalField   nonuniform List<vector> 
16192
(
(3 -7.66291e-16 0)
(3 -1.11017e-15 0)
(3 -1.71429e-15 0)
(3 -1.64019e-15 0)
(3 -1.33748e-15 0)
(3 -2.73246e-16 0)
(3 1.3902e-16 0)
(3 3.90236e-16 0)
(3 -1.13105e-17 0)
(3 -7.08499e-17 0)
(3 -9.7405e-17 0)
(3 4.81682e-16 0)
(3 1.45492e-15 0)
(3 1.52167e-15 0)
(3 1.33811e-15 0)
(3 6.34338e-16 0)
(3 6.83404e-16 0)
(3 7.01888e-16 0)
(3 -2.12253e-16 0)
(3 -7.26124e-17 0)
(3 2.26174e-17 0)
(3 -2.09959e-16 0)
(3 -8.16564e-16 0)
(3 -5.56789e-16 0)
(3 1.61126e-16 0)
(3 5.94843e-16 0)
(3 3.49172e-16 0)
(3 3.32813e-16 0)
(3 9.95378e-17 0)
(3 3.91551e-16 0)
(3 2.63885e-15 0)
(3 4.30858e-15 0)
(3 4.13703e-15 0)
(3 3.70873e-15 0)
(3 3.34622e-15 0)
(3 2.90809e-15 0)
(3 1.79862e-15 0)
(3 -9.31701e-17 0)
(3 -6.14722e-17 0)
(3 3.3624e-16 0)
(3 6.9551e-16 0)
(3 1.46721e-15 0)
(3 1.54613e-15 0)
(3 1.31806e-15 0)
(3 1.73425e-15 0)
(3 1.08252e-15 0)
(3 4.63347e-16 0)
(3 5.06455e-16 0)
(3 7.17109e-16 0)
(3 1.23056e-15 0)
(3 1.45179e-15 0)
(3 -1.34243e-16 0)
(3 -1.08352e-15 0)
(3 -9.87956e-16 0)
(3 -1.13422e-15 0)
(3 -1.49008e-15 0)
(3 -1.90189e-15 0)
(3 -1.20637e-15 0)
(3 -2.54378e-13 0)
(3 -3.00675e-08 0)
(3.00003 1.21259e-05 0)
(3.02927 0.123634 0)
(1.56888 0.81143 0)
(1.24429 0.822338 0)
(1.23939 0.825368 0)
(1.23952 0.829642 0)
(1.24009 0.831374 0)
(1.24147 0.832299 0)
(1.24327 0.832887 0)
(1.24534 0.833511 0)
(1.24802 0.834002 0)
(1.25125 0.834438 0)
(1.2549 0.834767 0)
(1.25867 0.835063 0)
(1.26256 0.835327 0)
(1.26674 0.835547 0)
(1.2714 0.835746 0)
(1.27656 0.836012 0)
(1.28224 0.836346 0)
(1.28843 0.836676 0)
(1.29511 0.836902 0)
(1.30213 0.836971 0)
(1.30943 0.836871 0)
(1.31698 0.836646 0)
(1.3248 0.836343 0)
(1.33293 0.83602 0)
(1.34144 0.835761 0)
(1.3503 0.835643 0)
(1.35942 0.835549 0)
(1.36874 0.835457 0)
(1.37849 0.83542 0)
(3 -7.24055e-17 0)
(3 2.90059e-16 0)
(3 3.35607e-16 0)
(3 4.3782e-16 0)
(3 7.10535e-16 0)
(3 8.17999e-16 0)
(3 1.75613e-15 0)
(3 1.86508e-15 0)
(3 2.42185e-15 0)
(3 1.72406e-15 0)
(3 8.70466e-16 0)
(3 4.49607e-16 0)
(3 1.56765e-16 0)
(3 -2.08381e-16 0)
(3 -6.36913e-16 0)
(3 -1.09254e-15 0)
(3 -3.89258e-16 0)
(3 3.73394e-17 0)
(3 -3.62752e-16 0)
(3 -5.82468e-16 0)
(3 -9.14824e-16 0)
(3 -1.73196e-15 0)
(3 -1.73367e-15 0)
(3 -5.91929e-16 0)
(3 -1.53232e-16 0)
(3 -6.33962e-16 0)
(3 -5.80349e-16 0)
(3 -3.05757e-16 0)
(3 -4.94457e-16 0)
(3 -4.60065e-16 0)
(3 2.98673e-16 0)
(3 9.9532e-16 0)
(3 1.36026e-15 0)
(3 7.29478e-16 0)
(3 7.65404e-16 0)
(3 6.82343e-16 0)
(3 1.29618e-15 0)
(3 1.1823e-15 0)
(3 1.16531e-15 0)
(3 3.08815e-16 0)
(3 7.68326e-17 0)
(3 -1.53972e-16 0)
(3 -5.04952e-16 0)
(3 8.48675e-17 0)
(3 6.36589e-16 0)
(3 7.80988e-16 0)
(3 -9.0592e-16 0)
(3 -1.71705e-15 0)
(3 -1.25441e-15 0)
(3 -3.52646e-16 0)
(3 7.59266e-16 0)
(3 1.61358e-15 0)
(3 1.37545e-15 0)
(3 1.79063e-15 0)
(3 1.72376e-15 0)
(3 1.83644e-15 0)
(3 1.44447e-15 0)
(3 1.26879e-15 0)
(3 5.84306e-16 0)
(3 1.1426e-15 0)
(3 1.95542e-15 0)
(3 1.86611e-15 0)
(3 1.03442e-15 0)
(3 -9.52461e-16 0)
(3 -2.41634e-15 0)
(3 -2.92021e-15 0)
(3 -2.8627e-15 0)
(3 -2.14875e-15 0)
(3 -6.03851e-16 0)
(3 1.11178e-16 0)
(3 -5.7201e-17 0)
(3 -4.0422e-16 0)
(3 -4.70884e-16 0)
(3 -4.36171e-16 0)
(3 -5.92607e-17 0)
(3 -4.26585e-16 0)
(3 -8.25412e-16 0)
(3 -9.82124e-16 0)
(3 -1.18899e-15 0)
(3 -2.22936e-15 0)
(3 -3.82937e-15 0)
(3 -3.99878e-15 0)
(3 -3.29008e-15 0)
(3 -2.09569e-15 0)
(3 -2.06967e-15 0)
(3 -2.4944e-15 0)
(3 -2.52995e-15 0)
(3 -1.27539e-15 0)
(3 -6.69084e-16 0)
(3 -3.96724e-16 0)
(3 -4.17171e-16 0)
(3 -1.3193e-15 0)
(3 -1.3455e-15 0)
(3 -3.95964e-16 0)
(3 -3.30696e-16 0)
(3 1.69038e-16 0)
(3 5.8592e-16 0)
(3 1.06349e-15 0)
(3 1.19457e-15 0)
(3 9.16579e-16 0)
(3 7.37234e-16 0)
(3 1.57799e-17 0)
(3 -2.85344e-16 0)
(3 -5.69576e-16 0)
(3 -1.06204e-15 0)
(3 -1.32202e-15 0)
(3 -9.5452e-16 0)
(3 -1.99843e-16 0)
(3 -4.87661e-17 0)
(3 -3.94658e-16 0)
(3 -3.89401e-16 0)
(3 -8.28998e-16 0)
(3 -7.72287e-16 0)
(3 -1.50045e-16 0)
(3 1.08828e-15 0)
(3 1.14532e-15 0)
(3 1.35646e-15 0)
(3 1.31334e-15 0)
(3 7.31267e-16 0)
(3 1.97557e-16 0)
(3 1.98948e-16 0)
(3 4.05983e-16 0)
(3 1.29675e-16 0)
(3 7.36761e-17 0)
(3 8.48844e-16 0)
(3 1.99389e-15 0)
(3 2.57944e-15 0)
(3 1.69254e-15 0)
(3 6.53143e-16 0)
(3 5.85873e-16 0)
(3 1.08165e-15 0)
(3 2.53411e-15 0)
(3 3.70376e-15 0)
(3 4.84522e-15 0)
(3 4.49329e-15 0)
(3 4.12715e-15 0)
(3 2.60254e-15 0)
(3 1.60104e-15 0)
(3 5.76392e-16 0)
(3 1.15226e-16 0)
(3 1.64658e-15 0)
(3 1.5561e-15 0)
(3 1.14489e-15 0)
(3 6.09685e-16 0)
(3 1.10989e-15 0)
(3 1.12514e-15 0)
(3 1.51893e-15 0)
(3 1.94604e-15 0)
(3 1.99408e-15 0)
(3 1.93e-15 0)
(3 2.02822e-15 0)
(3 1.7027e-15 0)
(3 5.31683e-16 0)
(3 -1.09015e-15 0)
(3 -1.50054e-15 0)
(3 -1.59194e-15 0)
(3 -1.36909e-15 0)
(3 -1.07889e-15 0)
(3 -1.63347e-15 0)
(3 4.39533e-14 0)
(3 -2.86128e-09 0)
(3 7.58606e-10 0)
(3.01231 0.00279286 0)
(2.17701 0.677482 0)
(1.2734 0.871646 0)
(1.24123 0.843626 0)
(1.24412 0.839735 0)
(1.24594 0.840017 0)
(1.24816 0.840396 0)
(1.25048 0.840725 0)
(1.25307 0.840949 0)
(1.25595 0.841165 0)
(1.25935 0.841282 0)
(1.26296 0.841423 0)
(1.26672 0.841512 0)
(1.27069 0.841461 0)
(1.27496 0.841259 0)
(1.27957 0.841029 0)
(1.28456 0.840914 0)
(1.29003 0.840912 0)
(1.296 0.84094 0)
(1.3025 0.840911 0)
(1.30942 0.840818 0)
(1.31668 0.840665 0)
(1.32423 0.840467 0)
(1.33208 0.840211 0)
(1.3402 0.839909 0)
(1.34864 0.839613 0)
(1.35729 0.839368 0)
(1.36615 0.839079 0)
(1.37521 0.838793 0)
(1.38453 0.838526 0)
(3 -1.30068e-16 0)
(3 -6.41339e-16 0)
(3 -7.62813e-16 0)
(3 -2.16245e-16 0)
(3 3.12157e-16 0)
(3 1.21464e-15 0)
(3 9.98522e-16 0)
(3 8.23141e-16 0)
(3 9.11196e-16 0)
(3 9.06244e-16 0)
(3 1.19149e-15 0)
(3 1.21513e-15 0)
(3 9.7527e-16 0)
(3 3.31855e-16 0)
(3 -9.73259e-17 0)
(3 -4.61239e-17 0)
(3 3.42063e-16 0)
(3 5.87745e-16 0)
(3 2.88389e-16 0)
(3 -5.09691e-16 0)
(3 -4.80775e-16 0)
(3 -4.86962e-16 0)
(3 -6.11092e-17 0)
(3 7.17332e-17 0)
(3 -9.22457e-16 0)
(3 -1.67727e-15 0)
(3 -1.71415e-15 0)
(3 -1.41964e-15 0)
(3 -1.28592e-15 0)
(3 -1.08935e-15 0)
(3 -4.8133e-16 0)
(3 4.41248e-16 0)
(3 3.1519e-16 0)
(3 3.18868e-16 0)
(3 5.16363e-16 0)
(3 1.52416e-15 0)
(3 1.19102e-15 0)
(3 1.01335e-15 0)
(3 9.25505e-16 0)
(3 1.19068e-15 0)
(3 5.23985e-16 0)
(3 4.57087e-17 0)
(3 -1.46227e-16 0)
(3 8.76346e-16 0)
(3 1.2433e-15 0)
(3 1.17458e-15 0)
(3 7.40807e-16 0)
(3 -2.94998e-16 0)
(3 -2.38434e-17 0)
(3 4.1114e-16 0)
(3 6.50503e-16 0)
(3 1.67606e-15 0)
(3 2.21299e-15 0)
(3 2.04416e-15 0)
(3 2.26104e-15 0)
(3 2.08859e-15 0)
(3 1.80456e-15 0)
(3 1.09692e-15 0)
(3 8.0865e-16 0)
(3 1.42606e-15 0)
(3 1.78122e-15 0)
(3 1.9614e-15 0)
(3 1.74043e-15 0)
(3 1.62906e-16 0)
(3 -7.16462e-16 0)
(3 -1.51004e-15 0)
(3 -1.42797e-15 0)
(3 -1.24252e-15 0)
(3 -8.1808e-16 0)
(3 -5.36992e-16 0)
(3 -3.80637e-16 0)
(3 -2.23103e-16 0)
(3 9.66857e-17 0)
(3 2.26651e-17 0)
(3 4.66199e-16 0)
(3 3.55113e-16 0)
(3 -1.8169e-16 0)
(3 -4.89489e-16 0)
(3 -1.21491e-15 0)
(3 -2.17441e-15 0)
(3 -2.71016e-15 0)
(3 -2.49278e-15 0)
(3 -4.27403e-16 0)
(3 7.0553e-17 0)
(3 -1.07082e-15 0)
(3 -1.75945e-15 0)
(3 -1.65352e-15 0)
(3 -1.5235e-15 0)
(3 -8.37894e-16 0)
(3 -7.93294e-16 0)
(3 -1.33644e-15 0)
(3 -2.23063e-15 0)
(3 -1.56191e-15 0)
(3 -2.35335e-16 0)
(3 3.12572e-16 0)
(3 1.39359e-15 0)
(3 2.74965e-15 0)
(3 3.02941e-15 0)
(3 2.40318e-15 0)
(3 1.67551e-15 0)
(3 1.99587e-15 0)
(3 8.22896e-16 0)
(3 4.57954e-16 0)
(3 1.71245e-16 0)
(3 -3.24908e-17 0)
(3 2.78812e-16 0)
(3 -1.3876e-15 0)
(3 -2.16921e-15 0)
(3 -2.28943e-15 0)
(3 -1.85929e-15 0)
(3 -1.62752e-15 0)
(3 -1.5315e-15 0)
(3 -1.30069e-15 0)
(3 -8.40416e-16 0)
(3 2.56099e-16 0)
(3 4.52625e-16 0)
(3 1.3135e-15 0)
(3 1.24033e-15 0)
(3 6.23586e-16 0)
(3 6.53947e-16 0)
(3 1.25234e-15 0)
(3 1.34912e-15 0)
(3 1.00084e-15 0)
(3 1.70156e-15 0)
(3 2.13211e-15 0)
(3 2.08852e-15 0)
(3 1.78786e-15 0)
(3 1.06063e-15 0)
(3 5.73703e-16 0)
(3 1.76692e-15 0)
(3 2.69882e-15 0)
(3 3.43964e-15 0)
(3 3.72182e-15 0)
(3 4.12295e-15 0)
(3 4.60786e-15 0)
(3 4.63088e-15 0)
(3 2.37282e-15 0)
(3 2.2184e-15 0)
(3 2.20155e-15 0)
(3 1.47954e-15 0)
(3 6.87992e-16 0)
(3 6.90531e-16 0)
(3 7.19348e-16 0)
(3 2.84377e-16 0)
(3 -4.98827e-17 0)
(3 4.35873e-16 0)
(3 2.15789e-15 0)
(3 2.38165e-15 0)
(3 1.75417e-15 0)
(3 1.46374e-15 0)
(3 8.96202e-16 0)
(3 2.41525e-16 0)
(3 -1.27111e-15 0)
(3 -1.45543e-15 0)
(3 -1.73134e-15 0)
(3 -1.56143e-15 0)
(3 -1.4771e-15 0)
(3 -1.39964e-15 0)
(3 -1.33898e-15 0)
(3 8.53747e-15 0)
(3 -2.05849e-11 0)
(3 -2.89197e-10 0)
(3.00007 3.58313e-05 0)
(3.00235 0.157244 0)
(1.56813 0.830436 0)
(1.26264 0.83554 0)
(1.26055 0.837852 0)
(1.26017 0.840719 0)
(1.26037 0.841563 0)
(1.26162 0.842252 0)
(1.26384 0.842749 0)
(1.26653 0.843264 0)
(1.26969 0.843514 0)
(1.27294 0.843658 0)
(1.27642 0.843587 0)
(1.28028 0.843351 0)
(1.28454 0.843063 0)
(1.28911 0.842828 0)
(1.29398 0.842655 0)
(1.29925 0.842486 0)
(1.30495 0.842295 0)
(1.31113 0.842085 0)
(1.31776 0.841895 0)
(1.32483 0.841732 0)
(1.33231 0.841596 0)
(1.34016 0.841447 0)
(1.34832 0.841276 0)
(1.35673 0.841089 0)
(1.36526 0.840877 0)
(1.37391 0.840541 0)
(1.38267 0.840131 0)
(1.39153 0.839628 0)
(3 2.03324e-16 0)
(3 3.69391e-16 0)
(3 -1.52222e-17 0)
(3 -2.23662e-16 0)
(3 -9.42224e-17 0)
(3 6.29676e-16 0)
(3 -1.39495e-16 0)
(3 -4.25491e-17 0)
(3 -1.77488e-16 0)
(3 1.50396e-16 0)
(3 2.55881e-16 0)
(3 2.69141e-16 0)
(3 5.96717e-17 0)
(3 3.94171e-16 0)
(3 9.64711e-16 0)
(3 1.30754e-15 0)
(3 1.28291e-16 0)
(3 -3.44557e-16 0)
(3 1.55269e-17 0)
(3 1.15296e-16 0)
(3 1.1503e-16 0)
(3 5.46321e-16 0)
(3 8.99916e-16 0)
(3 6.14211e-16 0)
(3 -9.18832e-16 0)
(3 -1.04501e-15 0)
(3 -9.53596e-16 0)
(3 -8.39849e-16 0)
(3 -8.66883e-16 0)
(3 -1.0137e-15 0)
(3 -1.3548e-15 0)
(3 -1.14779e-15 0)
(3 -9.22771e-16 0)
(3 7.09922e-16 0)
(3 1.32794e-15 0)
(3 6.00647e-16 0)
(3 6.28726e-16 0)
(3 1.03947e-15 0)
(3 1.19647e-15 0)
(3 1.40014e-15 0)
(3 8.07592e-16 0)
(3 8.21183e-16 0)
(3 1.11594e-15 0)
(3 8.30604e-16 0)
(3 6.02434e-16 0)
(3 -2.26774e-16 0)
(3 9.21379e-16 0)
(3 1.18936e-15 0)
(3 5.24985e-16 0)
(3 1.05432e-15 0)
(3 1.18581e-15 0)
(3 5.37226e-16 0)
(3 7.55941e-16 0)
(3 4.53068e-16 0)
(3 6.41661e-16 0)
(3 5.86e-16 0)
(3 8.45448e-16 0)
(3 8.37044e-16 0)
(3 1.01156e-15 0)
(3 1.42872e-15 0)
(3 1.6702e-15 0)
(3 1.79187e-15 0)
(3 1.46031e-15 0)
(3 1.4326e-15 0)
(3 9.60452e-16 0)
(3 5.59148e-16 0)
(3 -3.99577e-17 0)
(3 -9.79991e-16 0)
(3 -9.91875e-16 0)
(3 -1.07723e-15 0)
(3 -1.29188e-15 0)
(3 -9.35171e-16 0)
(3 -7.29471e-16 0)
(3 -3.82577e-16 0)
(3 -9.40583e-16 0)
(3 -9.6031e-16 0)
(3 -1.02236e-15 0)
(3 -7.95304e-16 0)
(3 -1.34405e-15 0)
(3 -1.08242e-15 0)
(3 -1.63617e-15 0)
(3 -1.12941e-15 0)
(3 -6.34216e-16 0)
(3 -1.09056e-15 0)
(3 -9.61157e-16 0)
(3 -1.62955e-16 0)
(3 3.04796e-16 0)
(3 -4.16317e-16 0)
(3 -9.78968e-16 0)
(3 -1.44329e-15 0)
(3 -1.393e-15 0)
(3 -8.17586e-16 0)
(3 -2.97646e-17 0)
(3 7.85287e-16 0)
(3 2.13425e-15 0)
(3 2.6e-15 0)
(3 3.2718e-15 0)
(3 2.50717e-15 0)
(3 2.04246e-15 0)
(3 1.7604e-15 0)
(3 1.5321e-15 0)
(3 1.63354e-15 0)
(3 1.31671e-15 0)
(3 8.92021e-16 0)
(3 1.02166e-15 0)
(3 1.94703e-16 0)
(3 -1.3953e-15 0)
(3 -1.48056e-15 0)
(3 -1.19205e-15 0)
(3 -9.06603e-16 0)
(3 -7.24597e-16 0)
(3 -5.24926e-17 0)
(3 -4.11557e-16 0)
(3 -1.04048e-15 0)
(3 -4.93658e-16 0)
(3 4.11426e-16 0)
(3 8.70706e-16 0)
(3 9.25322e-16 0)
(3 1.00149e-15 0)
(3 1.17184e-15 0)
(3 1.65121e-15 0)
(3 1.92893e-15 0)
(3 1.74148e-15 0)
(3 4.92297e-16 0)
(3 -4.94091e-17 0)
(3 8.12364e-16 0)
(3 1.55393e-15 0)
(3 2.67296e-15 0)
(3 2.4306e-15 0)
(3 1.52658e-15 0)
(3 2.65028e-15 0)
(3 3.10075e-15 0)
(3 2.65565e-15 0)
(3 2.07384e-15 0)
(3 3.0388e-15 0)
(3 3.77555e-15 0)
(3 3.28296e-15 0)
(3 1.80172e-15 0)
(3 1.85201e-15 0)
(3 2.10506e-15 0)
(3 1.07188e-15 0)
(3 -4.5685e-16 0)
(3 -4.02689e-16 0)
(3 2.15584e-17 0)
(3 3.04512e-16 0)
(3 9.5485e-16 0)
(3 1.06274e-15 0)
(3 9.71296e-16 0)
(3 3.14494e-16 0)
(3 -7.39859e-17 0)
(3 -8.02312e-16 0)
(3 -1.65996e-15 0)
(3 -2.1072e-15 0)
(3 -1.77654e-15 0)
(3 -1.80695e-15 0)
(3 -1.73298e-15 0)
(3 -1.65756e-15 0)
(3 -1.77724e-15 0)
(3 -9.86099e-16 0)
(3 1.11406e-15 0)
(3 -1.25906e-13 0)
(3 -4.56634e-11 0)
(3 2.21012e-08 0)
(3.01487 0.00409936 0)
(2.15371 0.694782 0)
(1.29095 0.881285 0)
(1.2628 0.855992 0)
(1.26489 0.852054 0)
(1.26654 0.851494 0)
(1.26812 0.851346 0)
(1.27061 0.851059 0)
(1.27357 0.850975 0)
(1.27655 0.850882 0)
(1.27974 0.85045 0)
(1.2833 0.849813 0)
(1.28733 0.849199 0)
(1.29178 0.848737 0)
(1.2965 0.848426 0)
(1.30149 0.84812 0)
(1.3068 0.847719 0)
(1.31244 0.847238 0)
(1.31845 0.846759 0)
(1.32488 0.846348 0)
(1.3318 0.846011 0)
(1.33919 0.845749 0)
(1.347 0.845535 0)
(1.35512 0.845366 0)
(1.36347 0.845206 0)
(1.37191 0.844976 0)
(1.38042 0.844562 0)
(1.389 0.843969 0)
(1.39751 0.843167 0)
(3 -1.11413e-17 0)
(3 1.25792e-16 0)
(3 1.90603e-16 0)
(3 2.30393e-16 0)
(3 6.59446e-17 0)
(3 2.20654e-17 0)
(3 -2.59454e-16 0)
(3 2.56114e-16 0)
(3 2.45898e-16 0)
(3 3.99288e-16 0)
(3 4.16336e-16 0)
(3 3.58304e-16 0)
(3 1.01832e-17 0)
(3 1.97379e-16 0)
(3 2.70635e-16 0)
(3 1.14611e-16 0)
(3 -2.26063e-16 0)
(3 -5.54422e-16 0)
(3 -3.37038e-16 0)
(3 -1.24924e-16 0)
(3 8.12753e-18 0)
(3 6.38981e-17 0)
(3 8.9391e-16 0)
(3 8.56142e-16 0)
(3 6.86491e-17 0)
(3 2.55208e-16 0)
(3 1.50519e-16 0)
(3 -3.08383e-16 0)
(3 -8.51603e-16 0)
(3 -1.45354e-15 0)
(3 -1.35911e-15 0)
(3 -1.54277e-15 0)
(3 -1.41883e-15 0)
(3 -7.66375e-16 0)
(3 1.73336e-16 0)
(3 2.22115e-16 0)
(3 4.67959e-16 0)
(3 6.1861e-16 0)
(3 9.20718e-16 0)
(3 1.39187e-15 0)
(3 1.15018e-15 0)
(3 9.49486e-16 0)
(3 6.75779e-16 0)
(3 5.93296e-16 0)
(3 2.68055e-16 0)
(3 -6.40432e-16 0)
(3 -3.21966e-16 0)
(3 1.31418e-15 0)
(3 1.39937e-15 0)
(3 1.1645e-15 0)
(3 4.59605e-16 0)
(3 -4.83174e-16 0)
(3 -8.83728e-16 0)
(3 -7.73806e-16 0)
(3 -9.00286e-16 0)
(3 -7.69469e-16 0)
(3 -7.27533e-16 0)
(3 -3.84215e-16 0)
(3 1.26738e-17 0)
(3 1.65459e-16 0)
(3 7.02658e-16 0)
(3 4.00525e-16 0)
(3 2.6505e-16 0)
(3 9.72648e-16 0)
(3 2.63646e-15 0)
(3 3.18839e-15 0)
(3 1.78985e-15 0)
(3 5.14058e-16 0)
(3 -1.24772e-15 0)
(3 -2.101e-15 0)
(3 -3.19322e-15 0)
(3 -2.70905e-15 0)
(3 -2.57106e-15 0)
(3 -2.01238e-15 0)
(3 -1.74456e-15 0)
(3 -2.29852e-15 0)
(3 -2.15911e-15 0)
(3 -1.601e-15 0)
(3 -1.33315e-15 0)
(3 -1.42689e-15 0)
(3 -1.37366e-15 0)
(3 -1.22094e-15 0)
(3 -1.03094e-15 0)
(3 -9.88272e-16 0)
(3 -1.07252e-17 0)
(3 1.01852e-15 0)
(3 1.20648e-15 0)
(3 9.90866e-16 0)
(3 -4.73816e-16 0)
(3 -1.46273e-15 0)
(3 -1.00988e-15 0)
(3 -1.93903e-16 0)
(3 8.44987e-16 0)
(3 9.07856e-16 0)
(3 5.75096e-16 0)
(3 6.0892e-16 0)
(3 1.03032e-15 0)
(3 5.06257e-16 0)
(3 3.71997e-16 0)
(3 6.59348e-16 0)
(3 5.42772e-16 0)
(3 9.75893e-16 0)
(3 1.18017e-15 0)
(3 1.70407e-15 0)
(3 1.61438e-15 0)
(3 1.26537e-15 0)
(3 1.0956e-15 0)
(3 2.42721e-16 0)
(3 -8.43985e-16 0)
(3 -7.68906e-16 0)
(3 1.84657e-16 0)
(3 1.83563e-15 0)
(3 1.873e-15 0)
(3 1.35629e-15 0)
(3 1.01633e-15 0)
(3 7.9841e-16 0)
(3 2.44426e-16 0)
(3 1.42845e-16 0)
(3 1.01045e-15 0)
(3 1.33648e-15 0)
(3 2.16895e-15 0)
(3 2.42645e-15 0)
(3 1.84203e-15 0)
(3 3.44272e-16 0)
(3 -3.39737e-16 0)
(3 3.17768e-16 0)
(3 4.6284e-16 0)
(3 1.20129e-15 0)
(3 1.10283e-15 0)
(3 1.37356e-15 0)
(3 1.5807e-15 0)
(3 1.16263e-15 0)
(3 1.27281e-15 0)
(3 1.10005e-15 0)
(3 1.23406e-15 0)
(3 1.15536e-15 0)
(3 1.88045e-15 0)
(3 2.00744e-15 0)
(3 2.4925e-15 0)
(3 2.40685e-15 0)
(3 9.91971e-16 0)
(3 -4.27785e-16 0)
(3 1.41827e-16 0)
(3 2.02882e-15 0)
(3 2.70595e-15 0)
(3 1.05866e-15 0)
(3 2.27344e-17 0)
(3 -6.25465e-16 0)
(3 -5.47961e-17 0)
(3 4.98192e-16 0)
(3 -8.84649e-16 0)
(3 -1.22109e-15 0)
(3 -1.57763e-15 0)
(3 -1.72697e-15 0)
(3 -1.54838e-15 0)
(3 -1.76796e-15 0)
(3 -1.94906e-15 0)
(3 -1.33461e-15 0)
(3 -3.7861e-16 0)
(3 1.55727e-15 0)
(3 2.4517e-15 0)
(3 -4.35642e-12 0)
(3 -2.94694e-12 0)
(3.0001 6.6494e-05 0)
(2.98927 0.17133 0)
(1.58178 0.842722 0)
(1.28228 0.848072 0)
(1.28138 0.850313 0)
(1.28143 0.852402 0)
(1.28116 0.852608 0)
(1.28232 0.85251 0)
(1.28433 0.85234 0)
(1.2865 0.852002 0)
(1.28909 0.851455 0)
(1.29242 0.850883 0)
(1.29638 0.850479 0)
(1.3008 0.850224 0)
(1.3055 0.850022 0)
(1.3105 0.849731 0)
(1.31579 0.849312 0)
(1.32137 0.848815 0)
(1.32727 0.848316 0)
(1.33357 0.847862 0)
(1.34033 0.847469 0)
(1.34753 0.847168 0)
(1.35514 0.846954 0)
(1.36304 0.846826 0)
(1.37117 0.846688 0)
(1.37942 0.846438 0)
(1.38775 0.845966 0)
(1.39611 0.84525 0)
(1.40433 0.844275 0)
(3 -7.56198e-17 0)
(3 -5.60375e-16 0)
(3 -6.4928e-16 0)
(3 -5.26184e-16 0)
(3 -5.31038e-16 0)
(3 -1.135e-15 0)
(3 -1.75737e-15 0)
(3 -1.27382e-15 0)
(3 5.65646e-16 0)
(3 1.1596e-15 0)
(3 9.0223e-16 0)
(3 1.00452e-15 0)
(3 5.24407e-16 0)
(3 -5.53739e-16 0)
(3 -1.1045e-15 0)
(3 -8.6551e-16 0)
(3 -5.94183e-16 0)
(3 -6.07124e-16 0)
(3 -7.84614e-16 0)
(3 -6.92082e-16 0)
(3 -1.27411e-16 0)
(3 -3.33911e-16 0)
(3 -3.31162e-16 0)
(3 3.90547e-17 0)
(3 4.14462e-16 0)
(3 6.42925e-17 0)
(3 4.17509e-17 0)
(3 -2.31294e-16 0)
(3 -1.624e-16 0)
(3 -4.97432e-16 0)
(3 -8.77974e-16 0)
(3 -1.10882e-15 0)
(3 -1.21059e-15 0)
(3 -1.23572e-15 0)
(3 -1.07881e-15 0)
(3 -5.18364e-16 0)
(3 -2.11648e-16 0)
(3 -5.76714e-16 0)
(3 -5.9528e-16 0)
(3 3.58047e-16 0)
(3 1.19799e-15 0)
(3 1.0948e-15 0)
(3 1.11129e-15 0)
(3 6.7393e-16 0)
(3 -2.26223e-16 0)
(3 1.37721e-17 0)
(3 4.81402e-16 0)
(3 1.04495e-15 0)
(3 1.12092e-15 0)
(3 8.25657e-16 0)
(3 7.19032e-17 0)
(3 -4.55424e-16 0)
(3 -1.03454e-15 0)
(3 -7.18953e-16 0)
(3 -2.80576e-16 0)
(3 -1.88397e-16 0)
(3 -2.46233e-16 0)
(3 -3.40814e-16 0)
(3 -3.0075e-16 0)
(3 -7.02031e-16 0)
(3 -8.88135e-16 0)
(3 -5.44007e-16 0)
(3 -2.70508e-16 0)
(3 1.0795e-15 0)
(3 2.12864e-15 0)
(3 3.74313e-15 0)
(3 4.26746e-15 0)
(3 3.93286e-15 0)
(3 2.68326e-15 0)
(3 3.15216e-16 0)
(3 -1.30941e-15 0)
(3 -2.22139e-15 0)
(3 -3.15591e-15 0)
(3 -3.82951e-15 0)
(3 -3.47392e-15 0)
(3 -2.62321e-15 0)
(3 -1.94368e-15 0)
(3 -1.06906e-15 0)
(3 -9.59993e-16 0)
(3 -1.10187e-15 0)
(3 -1.25734e-15 0)
(3 -1.76274e-15 0)
(3 -1.52964e-15 0)
(3 -1.36066e-15 0)
(3 -1.00377e-15 0)
(3 -4.98856e-16 0)
(3 1.68318e-16 0)
(3 2.49735e-16 0)
(3 -1.85466e-17 0)
(3 -7.16984e-16 0)
(3 -7.28167e-16 0)
(3 5.58434e-16 0)
(3 1.12146e-15 0)
(3 9.97619e-17 0)
(3 -4.96811e-16 0)
(3 -1.11252e-15 0)
(3 -1.03889e-15 0)
(3 -5.47401e-17 0)
(3 -4.36861e-17 0)
(3 9.80115e-17 0)
(3 7.24864e-16 0)
(3 6.52052e-16 0)
(3 7.07853e-16 0)
(3 1.68583e-15 0)
(3 1.92403e-15 0)
(3 1.8975e-15 0)
(3 1.98764e-15 0)
(3 1.42081e-15 0)
(3 -2.55196e-16 0)
(3 -4.83427e-16 0)
(3 1.08656e-15 0)
(3 2.7624e-15 0)
(3 3.49669e-15 0)
(3 3.93173e-15 0)
(3 2.92951e-15 0)
(3 1.66115e-15 0)
(3 2.63465e-16 0)
(3 8.05013e-17 0)
(3 1.60263e-15 0)
(3 2.34068e-15 0)
(3 3.00134e-15 0)
(3 3.47283e-15 0)
(3 3.2942e-15 0)
(3 2.60481e-15 0)
(3 8.93402e-16 0)
(3 5.98436e-17 0)
(3 -3.08589e-16 0)
(3 -2.21098e-16 0)
(3 -1.15586e-16 0)
(3 1.02526e-15 0)
(3 8.70066e-16 0)
(3 5.90484e-16 0)
(3 6.25963e-16 0)
(3 7.24554e-16 0)
(3 6.81672e-16 0)
(3 6.86509e-17 0)
(3 3.58249e-16 0)
(3 1.61899e-15 0)
(3 2.08655e-15 0)
(3 1.92662e-15 0)
(3 1.19345e-15 0)
(3 2.86311e-16 0)
(3 7.40412e-16 0)
(3 3.3396e-15 0)
(3 4.12527e-15 0)
(3 3.28117e-15 0)
(3 1.62911e-15 0)
(3 -3.1024e-16 0)
(3 -6.02527e-16 0)
(3 -1.31856e-15 0)
(3 -1.29372e-15 0)
(3 -1.38011e-15 0)
(3 -1.45971e-15 0)
(3 -1.53822e-15 0)
(3 -1.71522e-15 0)
(3 -1.16323e-15 0)
(3 -7.88202e-16 0)
(3 6.52579e-16 0)
(3 1.98564e-15 0)
(3 1.56847e-15 0)
(3 1.36646e-15 0)
(3 -7.68824e-14 0)
(3 -9.36736e-13 0)
(3 5.94385e-08 0)
(3.01516 0.0049473 0)
(2.18051 0.6963 0)
(1.31242 0.891645 0)
(1.28379 0.867301 0)
(1.28583 0.863738 0)
(1.28735 0.863011 0)
(1.28897 0.862307 0)
(1.29072 0.860991 0)
(1.29273 0.859518 0)
(1.29547 0.858248 0)
(1.29898 0.857311 0)
(1.30301 0.856688 0)
(1.30744 0.856195 0)
(1.31217 0.855704 0)
(1.31726 0.855148 0)
(1.32268 0.854567 0)
(1.32844 0.854017 0)
(1.33452 0.853514 0)
(1.34093 0.853021 0)
(1.34769 0.852521 0)
(1.35474 0.852055 0)
(1.36207 0.85166 0)
(1.36962 0.851341 0)
(1.37743 0.850984 0)
(1.38541 0.850499 0)
(1.39354 0.849793 0)
(1.40172 0.848847 0)
(1.40976 0.847681 0)
(3 1.74138e-17 0)
(3 -4.4746e-17 0)
(3 -1.72254e-17 0)
(3 -6.51523e-16 0)
(3 -4.88364e-16 0)
(3 -9.85459e-16 0)
(3 -7.33999e-16 0)
(3 -6.7258e-16 0)
(3 -2.22276e-16 0)
(3 -4.55433e-16 0)
(3 -5.10444e-16 0)
(3 -5.3123e-16 0)
(3 -6.36369e-16 0)
(3 -3.58973e-17 0)
(3 -2.77952e-17 0)
(3 1.19253e-16 0)
(3 -4.16518e-18 0)
(3 3.00363e-17 0)
(3 -4.38883e-16 0)
(3 -7.47502e-16 0)
(3 -8.20473e-16 0)
(3 -4.08442e-16 0)
(3 -6.88376e-16 0)
(3 -5.39299e-16 0)
(3 -2.31966e-16 0)
(3 -4.62344e-16 0)
(3 -6.68357e-16 0)
(3 -7.70771e-16 0)
(3 -1.11995e-15 0)
(3 -1.17068e-15 0)
(3 -1.64423e-15 0)
(3 -1.66282e-15 0)
(3 -1.48837e-15 0)
(3 -1.49689e-15 0)
(3 -1.82032e-15 0)
(3 -1.67319e-15 0)
(3 -1.61644e-15 0)
(3 -1.43961e-15 0)
(3 -1.21362e-15 0)
(3 -1.0007e-15 0)
(3 8.63031e-16 0)
(3 2.03925e-15 0)
(3 2.04705e-15 0)
(3 5.93336e-16 0)
(3 -3.4192e-16 0)
(3 3.00752e-16 0)
(3 1.27343e-15 0)
(3 1.07698e-15 0)
(3 5.27719e-16 0)
(3 -5.07961e-16 0)
(3 -6.88526e-16 0)
(3 -6.62219e-16 0)
(3 -6.92816e-16 0)
(3 -8.25504e-16 0)
(3 -8.78301e-16 0)
(3 -6.11256e-16 0)
(3 -8.70854e-16 0)
(3 -9.55739e-16 0)
(3 -6.07019e-16 0)
(3 -9.078e-16 0)
(3 -1.06293e-15 0)
(3 -3.46709e-16 0)
(3 8.5958e-16 0)
(3 1.36453e-15 0)
(3 1.65532e-15 0)
(3 2.13735e-15 0)
(3 3.19635e-15 0)
(3 3.40935e-15 0)
(3 2.44836e-15 0)
(3 9.76145e-16 0)
(3 2.40306e-16 0)
(3 -1.83338e-15 0)
(3 -3.55596e-15 0)
(3 -3.43028e-15 0)
(3 -2.8573e-15 0)
(3 -1.92327e-15 0)
(3 -9.50132e-16 0)
(3 -7.25013e-18 0)
(3 -4.66642e-16 0)
(3 -1.36575e-15 0)
(3 -1.2105e-15 0)
(3 -1.74218e-15 0)
(3 -2.75398e-15 0)
(3 -2.17671e-15 0)
(3 -1.79573e-15 0)
(3 -1.50769e-15 0)
(3 -1.28063e-15 0)
(3 -1.40318e-15 0)
(3 5.07471e-17 0)
(3 -1.00268e-17 0)
(3 -9.61293e-17 0)
(3 1.30617e-15 0)
(3 1.07967e-15 0)
(3 9.21582e-16 0)
(3 1.45862e-16 0)
(3 -5.71556e-16 0)
(3 -1.77655e-16 0)
(3 -6.23102e-17 0)
(3 -3.82936e-16 0)
(3 1.80384e-16 0)
(3 4.5888e-16 0)
(3 9.58859e-16 0)
(3 1.10523e-15 0)
(3 1.45829e-15 0)
(3 1.4573e-15 0)
(3 1.42438e-15 0)
(3 1.15371e-15 0)
(3 1.29453e-15 0)
(3 9.96067e-16 0)
(3 4.12259e-16 0)
(3 2.07877e-15 0)
(3 2.17743e-15 0)
(3 2.17011e-15 0)
(3 1.72118e-15 0)
(3 1.56308e-15 0)
(3 2.18475e-15 0)
(3 2.62636e-15 0)
(3 2.61152e-15 0)
(3 2.9566e-15 0)
(3 3.75058e-15 0)
(3 4.16237e-15 0)
(3 4.15392e-15 0)
(3 3.23895e-15 0)
(3 8.89171e-16 0)
(3 5.08513e-16 0)
(3 -2.26427e-17 0)
(3 -2.52101e-16 0)
(3 -5.23312e-16 0)
(3 -6.32376e-16 0)
(3 -8.37714e-16 0)
(3 -7.90687e-16 0)
(3 -1.17198e-15 0)
(3 -1.33896e-15 0)
(3 -8.64434e-16 0)
(3 -7.49395e-16 0)
(3 -5.05929e-16 0)
(3 1.22456e-16 0)
(3 1.64441e-15 0)
(3 1.82656e-15 0)
(3 1.51626e-15 0)
(3 1.14923e-15 0)
(3 1.09642e-15 0)
(3 1.52612e-15 0)
(3 1.68279e-15 0)
(3 1.76666e-15 0)
(3 2.06087e-15 0)
(3 1.06174e-15 0)
(3 -2.29929e-16 0)
(3 -1.44211e-15 0)
(3 -2.18273e-15 0)
(3 -2.01152e-15 0)
(3 -1.65262e-15 0)
(3 -1.28186e-15 0)
(3 -2.20277e-15 0)
(3 -2.02093e-15 0)
(3 4.56334e-17 0)
(3 4.09228e-15 0)
(3 4.56729e-15 0)
(3 4.05182e-15 0)
(3 2.97272e-15 0)
(3 1.87162e-15 0)
(3 6.97404e-16 0)
(3 -1.32675e-13 0)
(3 6.65994e-12 0)
(3.00011 8.78879e-05 0)
(2.99356 0.164484 0)
(1.61244 0.850395 0)
(1.30248 0.860165 0)
(1.30167 0.862293 0)
(1.3018 0.863894 0)
(1.30171 0.862876 0)
(1.30205 0.861173 0)
(1.30329 0.859856 0)
(1.30565 0.858982 0)
(1.3088 0.858402 0)
(1.31242 0.857937 0)
(1.31643 0.857438 0)
(1.32087 0.856888 0)
(1.32579 0.856355 0)
(1.33122 0.855942 0)
(1.33712 0.855652 0)
(1.34339 0.855406 0)
(1.34994 0.85509 0)
(1.35668 0.854665 0)
(1.36354 0.854162 0)
(1.37052 0.853633 0)
(1.37763 0.853093 0)
(1.38496 0.852455 0)
(1.39251 0.851689 0)
(1.40027 0.850754 0)
(1.40816 0.849652 0)
(1.416 0.848443 0)
(3 -9.7454e-17 0)
(3 1.9574e-16 0)
(3 5.53957e-16 0)
(3 3.19627e-16 0)
(3 -1.21631e-16 0)
(3 2.83034e-16 0)
(3 1.12573e-15 0)
(3 8.42224e-16 0)
(3 -1.16656e-15 0)
(3 -1.75152e-15 0)
(3 -9.49451e-16 0)
(3 -1.3891e-15 0)
(3 -1.44056e-15 0)
(3 -7.69587e-16 0)
(3 -2.92276e-16 0)
(3 -4.00763e-16 0)
(3 -3.17053e-16 0)
(3 -4.78045e-16 0)
(3 -4.09819e-16 0)
(3 -6.85525e-16 0)
(3 -7.69869e-16 0)
(3 -1.41708e-16 0)
(3 -2.7799e-16 0)
(3 -7.661e-16 0)
(3 -1.03718e-15 0)
(3 -1.15927e-15 0)
(3 -1.23489e-15 0)
(3 -1.2712e-15 0)
(3 -1.36433e-15 0)
(3 -1.24634e-15 0)
(3 -9.75781e-16 0)
(3 -4.25615e-16 0)
(3 -2.21159e-16 0)
(3 -6.80382e-16 0)
(3 -1.25457e-15 0)
(3 -1.02094e-15 0)
(3 -7.43938e-16 0)
(3 -1.4468e-16 0)
(3 -2.13753e-16 0)
(3 1.06007e-16 0)
(3 8.66605e-16 0)
(3 1.16948e-15 0)
(3 1.24935e-15 0)
(3 1.24419e-15 0)
(3 2.76771e-15 0)
(3 2.15643e-15 0)
(3 1.25685e-15 0)
(3 -1.26026e-16 0)
(3 -8.20331e-16 0)
(3 -1.77846e-15 0)
(3 -2.31745e-15 0)
(3 -1.50161e-15 0)
(3 -7.22434e-16 0)
(3 -9.4419e-16 0)
(3 -1.37614e-15 0)
(3 -1.9291e-15 0)
(3 -2.18287e-15 0)
(3 -1.57573e-15 0)
(3 -7.72894e-16 0)
(3 -5.27937e-16 0)
(3 -6.23023e-16 0)
(3 -3.77678e-16 0)
(3 -4.54353e-17 0)
(3 -3.8084e-16 0)
(3 -5.6617e-17 0)
(3 -2.53168e-16 0)
(3 1.15064e-16 0)
(3 8.10286e-16 0)
(3 5.60569e-16 0)
(3 1.42241e-16 0)
(3 -4.4059e-16 0)
(3 -1.82433e-15 0)
(3 -2.36239e-15 0)
(3 -1.95077e-15 0)
(3 -2.4022e-15 0)
(3 -1.9737e-15 0)
(3 -1.69945e-15 0)
(3 -2.97511e-15 0)
(3 -2.3989e-15 0)
(3 -1.3491e-15 0)
(3 -9.31263e-16 0)
(3 -1.29574e-15 0)
(3 -1.54269e-15 0)
(3 -1.39787e-15 0)
(3 -1.61604e-15 0)
(3 -1.25453e-15 0)
(3 -1.46765e-15 0)
(3 -1.0388e-15 0)
(3 -4.87891e-16 0)
(3 -1.14924e-16 0)
(3 2.58673e-16 0)
(3 1.36578e-15 0)
(3 1.74276e-15 0)
(3 1.7951e-15 0)
(3 9.97801e-16 0)
(3 -1.1372e-16 0)
(3 -7.53764e-16 0)
(3 -1.20286e-15 0)
(3 -7.06591e-16 0)
(3 2.01822e-16 0)
(3 2.81526e-16 0)
(3 1.65456e-15 0)
(3 2.21717e-15 0)
(3 1.2493e-15 0)
(3 8.12748e-16 0)
(3 8.58638e-16 0)
(3 1.86358e-15 0)
(3 2.29016e-15 0)
(3 3.22667e-15 0)
(3 3.4817e-15 0)
(3 2.78349e-15 0)
(3 2.17352e-15 0)
(3 1.45368e-15 0)
(3 1.11772e-15 0)
(3 7.53613e-16 0)
(3 1.48095e-15 0)
(3 2.35694e-15 0)
(3 2.78419e-15 0)
(3 3.48814e-15 0)
(3 4.15014e-15 0)
(3 4.53731e-15 0)
(3 4.05468e-15 0)
(3 2.43596e-15 0)
(3 1.27796e-15 0)
(3 1.21539e-15 0)
(3 7.27703e-16 0)
(3 9.71286e-16 0)
(3 1.19443e-15 0)
(3 5.55547e-16 0)
(3 2.14825e-16 0)
(3 -1.0571e-15 0)
(3 -1.6921e-15 0)
(3 -1.92118e-15 0)
(3 -1.26528e-15 0)
(3 -5.91648e-16 0)
(3 -2.60523e-16 0)
(3 5.88201e-16 0)
(3 8.85194e-16 0)
(3 1.02762e-15 0)
(3 1.04863e-15 0)
(3 1.12001e-15 0)
(3 1.26871e-15 0)
(3 1.00582e-15 0)
(3 6.96056e-16 0)
(3 2.03375e-17 0)
(3 8.61448e-16 0)
(3 9.71809e-16 0)
(3 -3.55777e-16 0)
(3 -1.59055e-15 0)
(3 -2.04867e-15 0)
(3 -1.97331e-15 0)
(3 -9.71605e-16 0)
(3 -4.67826e-18 0)
(3 -9.49887e-16 0)
(3 -2.35277e-15 0)
(3 8.18144e-16 0)
(3 2.45305e-15 0)
(3 3.21095e-15 0)
(3 3.23014e-15 0)
(3 2.85604e-15 0)
(3 2.42805e-15 0)
(3 3.04948e-15 0)
(3 -6.45253e-15 0)
(3 -6.39089e-15 0)
(3 9.39052e-08 0)
(3.01324 0.00513239 0)
(2.26116 0.68084 0)
(1.33871 0.903483 0)
(1.30441 0.877673 0)
(1.30507 0.874247 0)
(1.30595 0.871975 0)
(1.30767 0.869784 0)
(1.31001 0.868329 0)
(1.31267 0.867204 0)
(1.31562 0.866119 0)
(1.31894 0.864988 0)
(1.32275 0.863826 0)
(1.32714 0.862765 0)
(1.33215 0.861952 0)
(1.33777 0.861473 0)
(1.34392 0.86123 0)
(1.3504 0.861057 0)
(1.3571 0.86076 0)
(1.36385 0.860279 0)
(1.3706 0.859609 0)
(1.37734 0.858809 0)
(1.38413 0.857892 0)
(1.3911 0.856819 0)
(1.39828 0.855624 0)
(1.40572 0.854328 0)
(1.41335 0.852964 0)
(1.42103 0.851639 0)
(3 1.51524e-16 0)
(3 2.95006e-16 0)
(3 -3.51739e-17 0)
(3 -8.85024e-17 0)
(3 -2.62722e-16 0)
(3 5.94589e-17 0)
(3 -1.81447e-16 0)
(3 -7.94801e-16 0)
(3 -1.86205e-15 0)
(3 -1.2429e-15 0)
(3 -2.58623e-16 0)
(3 -5.25205e-16 0)
(3 -4.55195e-16 0)
(3 -1.02417e-15 0)
(3 -1.34935e-15 0)
(3 -8.95585e-16 0)
(3 -9.531e-16 0)
(3 -8.41858e-16 0)
(3 -7.1155e-16 0)
(3 -9.75803e-16 0)
(3 3.39127e-17 0)
(3 2.2025e-16 0)
(3 6.85251e-18 0)
(3 -6.28625e-16 0)
(3 -1.05947e-15 0)
(3 -1.07194e-15 0)
(3 -9.44503e-16 0)
(3 -8.77889e-16 0)
(3 -1.12793e-15 0)
(3 -5.14567e-16 0)
(3 -1.41662e-16 0)
(3 1.12469e-16 0)
(3 -3.59883e-17 0)
(3 -1.19887e-16 0)
(3 -5.12016e-16 0)
(3 -8.22183e-16 0)
(3 -2.50228e-16 0)
(3 7.74267e-16 0)
(3 5.90293e-16 0)
(3 6.84707e-17 0)
(3 1.39354e-16 0)
(3 3.58783e-16 0)
(3 2.92937e-16 0)
(3 1.08129e-15 0)
(3 1.83277e-15 0)
(3 1.88372e-15 0)
(3 1.03566e-15 0)
(3 3.66791e-16 0)
(3 -2.23558e-16 0)
(3 -1.05198e-15 0)
(3 -1.61248e-15 0)
(3 -1.34991e-15 0)
(3 -7.27244e-16 0)
(3 -7.08135e-16 0)
(3 -8.1055e-16 0)
(3 -1.7414e-15 0)
(3 -2.10793e-15 0)
(3 -1.99476e-15 0)
(3 -1.69712e-15 0)
(3 -8.73507e-16 0)
(3 4.63704e-17 0)
(3 -6.56416e-17 0)
(3 -7.04965e-16 0)
(3 -9.43129e-16 0)
(3 -1.92085e-15 0)
(3 -2.88908e-15 0)
(3 -9.44316e-16 0)
(3 -7.58255e-16 0)
(3 -4.11873e-16 0)
(3 -5.1121e-16 0)
(3 -1.25337e-15 0)
(3 -1.54076e-15 0)
(3 -1.46354e-15 0)
(3 -1.68756e-15 0)
(3 -1.81513e-15 0)
(3 -1.91879e-15 0)
(3 -2.10288e-15 0)
(3 -3.59119e-15 0)
(3 -2.78582e-15 0)
(3 -2.36624e-15 0)
(3 -1.94178e-15 0)
(3 -1.37435e-15 0)
(3 -7.13242e-16 0)
(3 -1.05403e-15 0)
(3 -1.93547e-15 0)
(3 -2.67477e-15 0)
(3 -3.04091e-15 0)
(3 -2.75476e-15 0)
(3 -1.93209e-15 0)
(3 -5.93796e-16 0)
(3 -3.99773e-16 0)
(3 -5.09307e-16 0)
(3 -4.16266e-17 0)
(3 2.04699e-16 0)
(3 4.88446e-16 0)
(3 7.02441e-16 0)
(3 -1.29176e-15 0)
(3 -1.54562e-15 0)
(3 -1.13353e-15 0)
(3 -1.18526e-16 0)
(3 6.12516e-16 0)
(3 2.02372e-15 0)
(3 1.9551e-15 0)
(3 1.8451e-15 0)
(3 1.81022e-15 0)
(3 1.68959e-15 0)
(3 1.55495e-15 0)
(3 1.56491e-15 0)
(3 1.98309e-15 0)
(3 2.54404e-15 0)
(3 2.77549e-15 0)
(3 2.58719e-15 0)
(3 1.64177e-15 0)
(3 1.73324e-15 0)
(3 2.18319e-15 0)
(3 2.11876e-15 0)
(3 1.98626e-15 0)
(3 2.36062e-15 0)
(3 2.67469e-15 0)
(3 2.38571e-15 0)
(3 1.9064e-15 0)
(3 1.92001e-15 0)
(3 1.8173e-15 0)
(3 1.96378e-15 0)
(3 2.21448e-15 0)
(3 2.04352e-15 0)
(3 2.25599e-15 0)
(3 2.3261e-15 0)
(3 1.69592e-15 0)