/*--------------------------------*- C++ -*----------------------------------*\
  =========                 |
  \\      /  F ield         | OpenFOAM: The Open Source CFD Toolbox
   \\    /   O peration     | Website:  https://openfoam.org
    \\  /    A nd           | Version:  7
     \\/     M anipulation  |
\*---------------------------------------------------------------------------*/
FoamFile
{
    version     2.0;
    format      ascii;
    class       volVectorField;
    location    "2";
    object      U;
}
// * * * * * * * * * * * * * * * * * * * * * * * * * * * * * * * * * * * * * //

dimensions      [0 1 -1 0 0 0 0];

internalField   nonuniform List<vector> 
16512
(
(3 1.89451e-17 0)
(3 1.04308e-17 0)
(3 6.05608e-17 0)
(3 -5.35267e-16 0)
(3 -5.35165e-16 0)
(3 -7.79304e-16 0)
(3 -7.90607e-16 0)
(3 -3.30591e-16 0)
(3 -3.56872e-16 0)
(3 -4.92456e-16 0)
(3 -2.15367e-16 0)
(3 -2.34081e-16 0)
(3 1.65669e-16 0)
(3 3.84304e-16 0)
(3 9.19849e-17 0)
(3 9.49403e-16 0)
(3 1.34327e-15 0)
(3 1.73837e-15 0)
(3 1.27185e-15 0)
(3 7.46598e-16 0)
(3 1.18146e-16 0)
(3 -2.61094e-16 0)
(3 -2.96667e-16 0)
(3 -7.43363e-17 0)
(3 -1.25432e-16 0)
(3 -8.36509e-17 0)
(3 -3.60044e-16 0)
(3 -1.25659e-16 0)
(3 -2.4744e-16 0)
(3 6.2691e-17 0)
(3 4.17632e-16 0)
(3 1.1967e-15 0)
(3 1.16046e-15 0)
(3 8.89827e-16 0)
(3 4.77789e-16 0)
(3 4.70154e-16 0)
(3 1.01417e-15 0)
(3 1.04681e-15 0)
(3 5.2074e-16 0)
(3 4.93016e-16 0)
(3 2.29834e-16 0)
(3 -3.65287e-17 0)
(3 -3.42309e-17 0)
(3 -2.86213e-17 0)
(3 3.05093e-16 0)
(3 2.52529e-16 0)
(3 5.52217e-17 0)
(3 -2.29646e-16 0)
(3 -2.21437e-16 0)
(3 -2.51811e-16 0)
(3 -2.79246e-16 0)
(3 -4.72771e-16 0)
(3 -1.68658e-16 0)
(3 -8.07789e-16 0)
(3 -1.32134e-15 0)
(3 -1.70686e-15 0)
(3 -1.3436e-15 0)
(3 -6.32397e-16 0)
(3 -3.03258e-16 0)
(3 -1.97414e-16 0)
(3 -3.10728e-16 0)
(3 -2.12752e-16 0)
(3 5.12602e-17 0)
(3 1.93588e-16 0)
(3 4.25479e-16 0)
(3 5.19227e-16 0)
(3 8.9052e-16 0)
(3 1.15987e-15 0)
(3 1.79293e-15 0)
(3 1.8429e-16 0)
(3 -2.90234e-16 0)
(3 -4.05924e-17 0)
(3 7.18543e-16 0)
(3 7.24134e-16 0)
(3 6.39868e-16 0)
(3 -3.32041e-17 0)
(3 -2.28241e-16 0)
(3 -1.12558e-15 0)
(3 -1.53682e-15 0)
(3 -5.48724e-16 0)
(3 4.18841e-16 0)
(3 1.57269e-15 0)
(3 2.0792e-15 0)
(3 1.23564e-15 0)
(3 1.29767e-15 0)
(3 1.44373e-15 0)
(3 1.01422e-15 0)
(3 7.22082e-16 0)
(3 5.40294e-16 0)
(3 3.92023e-16 0)
(3 1.02404e-16 0)
(3 7.28742e-17 0)
(3 -7.1519e-17 0)
(3 -2.92671e-16 0)
(3 2.0334e-16 0)
(3 1.25134e-15 0)
(3 1.3494e-15 0)
(3 5.488e-16 0)
(3 -1.22814e-16 0)
(3 -4.43305e-16 0)
(3 -7.36259e-16 0)
(3 -8.1296e-16 0)
(3 -9.8454e-16 0)
(3 -1.52654e-15 0)
(3 -1.65792e-15 0)
(3 -1.70223e-15 0)
(3 -1.25953e-15 0)
(3 -7.28558e-16 0)
(3 -4.66129e-17 0)
(3 1.99238e-16 0)
(3 4.72576e-16 0)
(3 2.17643e-16 0)
(3 -2.42511e-16 0)
(3 -2.3844e-16 0)
(3 -7.87237e-16 0)
(3 -9.66106e-16 0)
(3 -4.7521e-16 0)
(3 -6.23015e-16 0)
(3 8.44228e-17 0)
(3 6.86196e-16 0)
(3 6.15607e-16 0)
(3 5.44887e-16 0)
(3 -4.06737e-17 0)
(3 -3.72116e-16 0)
(3 2.42651e-16 0)
(3 7.36826e-16 0)
(3 1.14724e-15 0)
(3 2.20038e-15 0)
(3 2.27672e-15 0)
(3 1.23246e-15 0)
(3 5.8962e-16 0)
(3 6.36844e-16 0)
(3 5.19466e-16 0)
(3 7.48173e-16 0)
(3 5.45431e-16 0)
(3 -6.99887e-18 0)
(3 -1.5161e-15 0)
(3 -1.92673e-15 0)
(3 -1.52657e-15 0)
(3 -5.76348e-16 0)
(3 -7.9072e-16 0)
(3 -2.77793e-16 0)
(3 -2.74954e-16 0)
(3 3.36503e-16 0)
(2.93471 -0.0139014 0)
(1.04953 0.00344591 0)
(0.770226 0.00364753 0)
(0.757615 0.0084868 0)
(0.74004 0.00773837 0)
(0.724219 0.00696247 0)
(0.709323 0.00677774 0)
(0.695468 0.00695453 0)
(0.681981 0.00727758 0)
(0.667936 0.00759841 0)
(0.652699 0.00778639 0)
(0.636407 0.0077093 0)
(0.619907 0.00734923 0)
(0.604109 0.00695497 0)
(0.589253 0.00679932 0)
(0.574848 0.00694322 0)
(0.560107 0.00726422 0)
(0.544467 0.00758523 0)
(0.527854 0.00778577 0)
(0.510678 0.00783808 0)
(0.493748 0.00770498 0)
(0.477811 0.00754831 0)
(0.462743 0.00766026 0)
(0.447674 0.00800525 0)
(0.431906 0.00822722 0)
(0.415354 0.00818018 0)
(0.398124 0.00806087 0)
(0.380384 0.00801195 0)
(0.362575 0.00799056 0)
(0.345168 0.00796095 0)
(0.328311 0.00794388 0)
(0.311826 0.00795526 0)
(0.295421 0.00800692 0)
(0.27884 0.00811364 0)
(0.261936 0.00826783 0)
(0.244706 0.00844591 0)
(0.227215 0.00862743 0)
(0.209499 0.00880144 0)
(0.191548 0.00896757 0)
(0.173347 0.00913839 0)
(0.154891 0.00933183 0)
(0.13615 0.00955835 0)
(0.117028 0.00981905 0)
(0.0973847 0.0101103 0)
(0.0770409 0.010386 0)
(0.0558039 0.0106451 0)
(0.0338384 0.0107429 0)
(0.0114634 0.0108201 0)
(3 1.46205e-16 0)
(3 3.25097e-16 0)
(3 6.69406e-17 0)
(3 -6.75431e-16 0)
(3 -6.748e-16 0)
(3 -5.58162e-16 0)
(3 -7.06133e-16 0)
(3 -5.45955e-16 0)
(3 -4.66541e-16 0)
(3 -1.83462e-16 0)
(3 1.60391e-16 0)
(3 3.33702e-16 0)
(3 7.20397e-16 0)
(3 8.63948e-16 0)
(3 7.66845e-16 0)
(3 8.83868e-16 0)
(3 1.41955e-15 0)
(3 1.67683e-15 0)
(3 2.03914e-15 0)
(3 2.08845e-15 0)
(3 6.67657e-16 0)
(3 -5.82283e-16 0)
(3 -1.1469e-15 0)
(3 -1.318e-15 0)
(3 -1.82386e-15 0)
(3 -1.54809e-15 0)
(3 -1.06413e-15 0)
(3 -4.58445e-18 0)
(3 -4.5632e-16 0)
(3 3.90938e-16 0)
(3 4.69626e-16 0)
(3 3.12823e-16 0)
(3 8.12555e-16 0)
(3 8.59451e-16 0)
(3 1.0261e-15 0)
(3 9.08146e-16 0)
(3 1.58645e-15 0)
(3 1.05374e-15 0)
(3 -5.13854e-16 0)
(3 -5.85613e-16 0)
(3 -9.84401e-16 0)
(3 3.55299e-16 0)
(3 8.82126e-18 0)
(3 -2.07769e-16 0)
(3 -9.69856e-17 0)
(3 5.4812e-17 0)
(3 -6.04892e-17 0)
(3 -7.72297e-17 0)
(3 -4.20683e-16 0)
(3 -5.9337e-16 0)
(3 -6.06179e-16 0)
(3 -1.12633e-15 0)
(3 -1.33617e-15 0)
(3 -2.0896e-15 0)
(3 -2.29736e-15 0)
(3 -1.50209e-15 0)
(3 -1.07116e-15 0)
(3 -7.50429e-16 0)
(3 -5.75012e-16 0)
(3 -4.58895e-16 0)
(3 -5.2348e-16 0)
(3 -1.10226e-15 0)
(3 -1.0809e-15 0)
(3 -7.58485e-16 0)
(3 1.1605e-16 0)
(3 8.23325e-16 0)
(3 1.85173e-15 0)
(3 1.89405e-15 0)
(3 1.59118e-15 0)
(3 1.03232e-15 0)
(3 -2.2214e-16 0)
(3 4.1026e-16 0)
(3 1.29739e-15 0)
(3 1.1715e-15 0)
(3 1.18317e-15 0)
(3 2.81793e-16 0)
(3 -6.83674e-16 0)
(3 -1.47812e-15 0)
(3 -1.10763e-15 0)
(3 -1.03481e-15 0)
(3 -6.33965e-16 0)
(3 2.12039e-15 0)
(3 2.66606e-15 0)
(3 1.81921e-15 0)
(3 1.04727e-15 0)
(3 1.23047e-15 0)
(3 1.56953e-15 0)
(3 1.41922e-15 0)
(3 8.64944e-16 0)
(3 1.03829e-15 0)
(3 7.30553e-16 0)
(3 2.15919e-16 0)
(3 6.66818e-17 0)
(3 -3.07725e-16 0)
(3 -5.34773e-16 0)
(3 1.38968e-15 0)
(3 2.04786e-15 0)
(3 8.24315e-16 0)
(3 -6.15663e-16 0)
(3 -3.42794e-16 0)
(3 -4.12101e-16 0)
(3 -5.2933e-16 0)
(3 -2.45108e-16 0)
(3 -9.5855e-16 0)
(3 -1.70067e-15 0)
(3 -1.80546e-15 0)
(3 -1.3157e-15 0)
(3 -8.94181e-16 0)
(3 -4.37143e-16 0)
(3 2.52717e-16 0)
(3 8.45689e-16 0)
(3 2.85329e-16 0)
(3 -3.0277e-16 0)
(3 -6.35967e-16 0)
(3 -1.99401e-16 0)
(3 -5.26459e-16 0)
(3 -6.6732e-16 0)
(3 -1.22039e-15 0)
(3 8.91715e-17 0)
(3 1.98387e-15 0)
(3 1.84864e-15 0)
(3 9.55592e-16 0)
(3 -2.32666e-17 0)
(3 -7.15631e-16 0)
(3 -2.78983e-16 0)
(3 9.0207e-16 0)
(3 2.34046e-15 0)
(3 3.79518e-15 0)
(3 2.35158e-15 0)
(3 9.67366e-16 0)
(3 -8.69634e-16 0)
(3 -6.66637e-16 0)
(3 -5.7084e-16 0)
(3 -5.08971e-17 0)
(3 1.45283e-17 0)
(3 -4.53559e-16 0)
(3 -1.35346e-15 0)
(3 -1.90676e-15 0)
(3 -1.88084e-15 0)
(3 -1.36952e-15 0)
(3 -3.60629e-16 0)
(3 1.44441e-15 0)
(3 4.59909e-16 0)
(3 -1.50837e-16 0)
(2.95143 -0.00178212 0)
(1.04378 0.00926591 0)
(0.759821 0.00917872 0)
(0.746625 0.0168463 0)
(0.731687 0.0179873 0)
(0.71651 0.0175595 0)
(0.701327 0.0173187 0)
(0.686973 0.017435 0)
(0.673283 0.0180623 0)
(0.659518 0.0190714 0)
(0.644964 0.0199783 0)
(0.629495 0.0202968 0)
(0.613613 0.0199157 0)
(0.597994 0.0191648 0)
(0.583017 0.0186749 0)
(0.568561 0.0189469 0)
(0.554079 0.0199267 0)
(0.538962 0.021071 0)
(0.522942 0.021983 0)
(0.50622 0.0225314 0)
(0.489506 0.0224262 0)
(0.473647 0.022022 0)
(0.45871 0.0223293 0)
(0.443951 0.0234031 0)
(0.428591 0.0241852 0)
(0.412451 0.0242127 0)
(0.395553 0.0240245 0)
(0.378027 0.0239965 0)
(0.360313 0.0240001 0)
(0.342885 0.0239458 0)
(0.3259 0.0239036 0)
(0.309214 0.0239166 0)
(0.29259 0.0240169 0)
(0.275838 0.0242614 0)
(0.258856 0.0246544 0)
(0.241651 0.0251508 0)
(0.224277 0.0257005 0)
(0.206752 0.0262645 0)
(0.189051 0.0268221 0)
(0.171151 0.0273866 0)
(0.153038 0.0279974 0)
(0.134664 0.0286902 0)
(0.115911 0.0294829 0)
(0.0966183 0.0303835 0)
(0.0765809 0.0312637 0)
(0.0556011 0.0321167 0)
(0.033802 0.0325028 0)
(0.0114929 0.0328548 0)
(3 6.81415e-17 0)
(3 3.72591e-16 0)
(3 5.03702e-17 0)
(3 1.00575e-16 0)
(3 4.68289e-16 0)
(3 1.32727e-16 0)
(3 -4.02628e-17 0)
(3 1.32321e-16 0)
(3 6.90543e-16 0)
(3 1.10593e-15 0)
(3 9.96283e-16 0)
(3 8.23226e-16 0)
(3 5.10892e-16 0)
(3 7.74173e-16 0)
(3 9.26589e-16 0)
(3 4.99189e-16 0)
(3 2.21121e-16 0)
(3 1.57795e-16 0)
(3 7.6864e-16 0)
(3 1.57355e-15 0)
(3 1.27879e-15 0)
(3 -2.06657e-16 0)
(3 -1.05873e-15 0)
(3 -1.6392e-15 0)
(3 -1.70152e-15 0)
(3 -1.1308e-15 0)
(3 -3.15241e-16 0)
(3 4.6574e-16 0)
(3 -1.85005e-16 0)
(3 -1.15676e-16 0)
(3 -4.89591e-16 0)
(3 -1.62006e-15 0)
(3 -8.89995e-16 0)
(3 -1.83903e-16 0)
(3 5.92973e-16 0)
(3 6.14074e-16 0)
(3 7.90342e-16 0)
(3 1.17988e-16 0)
(3 -3.28988e-17 0)
(3 -1.29965e-16 0)
(3 -2.06375e-16 0)
(3 -1.75796e-16 0)
(3 -4.55358e-17 0)
(3 1.97352e-16 0)
(3 8.35707e-16 0)
(3 1.04477e-15 0)
(3 3.80906e-16 0)
(3 2.94718e-17 0)
(3 -5.01201e-16 0)
(3 -6.45147e-16 0)
(3 -8.21466e-16 0)
(3 -1.57879e-15 0)
(3 -2.27104e-15 0)
(3 -2.24267e-15 0)
(3 -2.32445e-15 0)
(3 -1.99492e-15 0)
(3 -1.95489e-15 0)
(3 -1.69997e-15 0)
(3 -1.31035e-15 0)
(3 -3.78319e-16 0)
(3 -1.63448e-16 0)
(3 -3.7531e-16 0)
(3 -6.22933e-16 0)
(3 -5.6079e-16 0)
(3 -8.82777e-18 0)
(3 1.17112e-16 0)
(3 -1.85962e-17 0)
(3 -6.95345e-17 0)
(3 -2.82812e-16 0)
(3 6.60396e-16 0)
(3 1.42504e-15 0)
(3 1.57851e-15 0)
(3 1.15371e-15 0)
(3 6.19187e-16 0)
(3 6.65272e-16 0)
(3 2.77628e-16 0)
(3 -7.05461e-16 0)
(3 -1.03242e-15 0)
(3 -5.43483e-16 0)
(3 5.14605e-16 0)
(3 1.35928e-15 0)
(3 2.19143e-15 0)
(3 2.70934e-15 0)
(3 2.43317e-15 0)
(3 6.74775e-16 0)
(3 -2.7642e-16 0)
(3 9.5354e-16 0)
(3 8.60458e-16 0)
(3 -4.27327e-16 0)
(3 3.99916e-16 0)
(3 8.19805e-16 0)
(3 5.77231e-16 0)
(3 3.51645e-16 0)
(3 2.26265e-16 0)
(3 7.8424e-17 0)
(3 1.51297e-15 0)
(3 2.56793e-15 0)
(3 2.31625e-15 0)
(3 2.07651e-15 0)
(3 2.14436e-15 0)
(3 1.41564e-15 0)
(3 8.78216e-16 0)
(3 1.38164e-15 0)
(3 1.71085e-15 0)
(3 1.03668e-15 0)
(3 -9.96026e-18 0)
(3 -3.70468e-16 0)
(3 -7.08522e-16 0)
(3 -1.37841e-16 0)
(3 3.50161e-16 0)
(3 6.9794e-16 0)
(3 3.77999e-16 0)
(3 7.74286e-16 0)
(3 9.98045e-16 0)
(3 4.90891e-16 0)
(3 4.64271e-16 0)
(3 -2.83042e-16 0)
(3 -1.6675e-15 0)
(3 -1.39275e-15 0)
(3 3.1568e-16 0)
(3 9.78575e-16 0)
(3 7.45991e-16 0)
(3 3.14751e-16 0)
(3 3.24295e-16 0)
(3 4.41056e-16 0)
(3 8.00122e-16 0)
(3 1.42444e-15 0)
(3 1.75082e-15 0)
(3 1.59857e-15 0)
(3 7.69312e-16 0)
(3 5.95211e-16 0)
(3 -7.16021e-16 0)
(3 -2.83696e-16 0)
(3 4.65199e-16 0)
(3 1.38199e-15 0)
(3 1.65768e-15 0)
(3 1.38077e-15 0)
(3 8.81529e-16 0)
(3 -4.47194e-16 0)
(3 -2.04852e-15 0)
(3 -1.89913e-15 0)
(3 -8.75214e-16 0)
(3 -1.26227e-15 0)
(3 -1.75103e-15 0)
(2.96198 0.00896583 0)
(1.05025 0.0295549 0)
(0.754317 0.0204307 0)
(0.738337 0.0253568 0)
(0.724471 0.0279304 0)
(0.709403 0.0289984 0)
(0.693961 0.029649 0)
(0.67903 0.0297783 0)
(0.664918 0.0300923 0)
(0.651293 0.0310011 0)
(0.637449 0.0321251 0)
(0.622923 0.0328153 0)
(0.607796 0.0327299 0)
(0.592439 0.0321395 0)
(0.577243 0.0315965 0)
(0.562428 0.0317247 0)
(0.547855 0.0327628 0)
(0.53304 0.0342967 0)
(0.517554 0.0358005 0)
(0.501373 0.0369236 0)
(0.485034 0.0369895 0)
(0.469392 0.0363744 0)
(0.454628 0.0367344 0)
(0.4402 0.0383508 0)
(0.425302 0.0396062 0)
(0.409708 0.0397546 0)
(0.393376 0.039637 0)
(0.37637 0.0397948 0)
(0.359065 0.0399757 0)
(0.341877 0.0400307 0)
(0.324926 0.040082 0)
(0.308068 0.0401967 0)
(0.291115 0.0404097 0)
(0.273946 0.0407948 0)
(0.256528 0.0413542 0)
(0.238919 0.0420307 0)
(0.221208 0.0427738 0)
(0.203445 0.0435546 0)
(0.185635 0.0443639 0)
(0.167776 0.0452278 0)
(0.149857 0.0461982 0)
(0.131816 0.0473185 0)
(0.113498 0.0486126 0)
(0.0946944 0.0501074 0)
(0.0751523 0.0516119 0)
(0.0546659 0.0531253 0)
(0.0332974 0.0538973 0)
(0.011357 0.0546553 0)
(3 -1.83419e-16 0)
(3 -3.14768e-16 0)
(3 -2.12941e-16 0)
(3 2.50996e-16 0)
(3 4.06999e-16 0)
(3 3.28526e-16 0)
(3 6.24968e-16 0)
(3 1.04687e-15 0)
(3 4.74356e-16 0)
(3 1.41388e-16 0)
(3 -3.88656e-16 0)
(3 -6.9495e-16 0)
(3 -7.66902e-16 0)
(3 -5.47492e-16 0)
(3 -2.23274e-16 0)
(3 4.51321e-16 0)
(3 9.34176e-16 0)
(3 8.78207e-16 0)
(3 7.20751e-16 0)
(3 6.63494e-16 0)
(3 2.59876e-16 0)
(3 1.82777e-16 0)
(3 4.78546e-19 0)
(3 -4.1226e-16 0)
(3 -6.11365e-16 0)
(3 -3.97239e-16 0)
(3 1.49428e-16 0)
(3 1.75675e-15 0)
(3 2.90902e-15 0)
(3 1.79611e-15 0)
(3 3.6524e-16 0)
(3 -4.4393e-16 0)
(3 -1.9182e-15 0)
(3 -1.6062e-15 0)
(3 -1.28218e-15 0)
(3 -2.57392e-16 0)
(3 -2.58931e-16 0)
(3 5.15277e-16 0)
(3 2.27026e-15 0)
(3 2.28821e-15 0)
(3 1.8915e-15 0)
(3 -2.20545e-17 0)
(3 -4.487e-16 0)
(3 -3.04641e-16 0)
(3 9.78254e-16 0)
(3 1.11987e-15 0)
(3 9.62804e-16 0)
(3 3.39815e-16 0)
(3 2.36312e-16 0)
(3 8.19245e-17 0)
(3 -2.38307e-16 0)
(3 -3.21105e-16 0)
(3 -7.55897e-16 0)
(3 -1.07781e-15 0)
(3 -2.81655e-15 0)
(3 -3.32623e-15 0)
(3 -3.13525e-15 0)
(3 -1.86049e-15 0)
(3 -1.16456e-16 0)
(3 8.59792e-16 0)
(3 7.29503e-16 0)
(3 7.74726e-16 0)
(3 9.34366e-16 0)
(3 1.02625e-15 0)
(3 1.12509e-15 0)
(3 1.04699e-15 0)
(3 4.25554e-16 0)
(3 4.50175e-16 0)
(3 3.86625e-16 0)
(3 6.65485e-16 0)
(3 1.47201e-15 0)
(3 1.44024e-15 0)
(3 1.04418e-15 0)
(3 3.61062e-16 0)
(3 5.44769e-16 0)
(3 3.4597e-16 0)
(3 3.40273e-16 0)
(3 7.48471e-16 0)
(3 1.13868e-15 0)
(3 1.54806e-15 0)
(3 1.40483e-15 0)
(3 1.62624e-15 0)
(3 2.69402e-15 0)
(3 2.58874e-15 0)
(3 2.15977e-15 0)
(3 1.4395e-15 0)
(3 5.89189e-16 0)
(3 1.12657e-16 0)
(3 -1.17791e-18 0)
(3 -7.37939e-16 0)
(3 -1.20932e-16 0)
(3 1.47795e-15 0)
(3 1.54733e-15 0)
(3 1.45952e-15 0)
(3 1.96127e-15 0)
(3 2.39609e-15 0)
(3 2.54166e-15 0)
(3 2.67561e-15 0)
(3 2.24577e-15 0)
(3 1.98608e-15 0)
(3 7.92381e-16 0)
(3 4.7373e-16 0)
(3 7.04374e-16 0)
(3 8.57987e-16 0)
(3 1.65334e-15 0)
(3 1.7221e-15 0)
(3 1.29755e-15 0)
(3 1.53572e-15 0)
(3 1.22277e-15 0)
(3 1.25585e-15 0)
(3 9.4262e-16 0)
(3 2.45376e-16 0)
(3 1.53295e-16 0)
(3 -1.68262e-16 0)
(3 -9.5062e-17 0)
(3 -2.26203e-16 0)
(3 -6.77318e-16 0)
(3 -1.70169e-15 0)
(3 -2.08023e-15 0)
(3 -1.95987e-15 0)
(3 -1.80608e-15 0)
(3 -1.33799e-15 0)
(3 -1.42906e-15 0)
(3 -1.19681e-15 0)
(3 -1.18548e-15 0)
(3 -1.03821e-15 0)
(3 -5.03318e-16 0)
(3 -1.83971e-16 0)
(3 1.23668e-15 0)
(3 1.6405e-15 0)
(3 1.4809e-15 0)
(3 -5.3752e-16 0)
(3 -5.71256e-16 0)
(3 1.27864e-16 0)
(3 3.77743e-16 0)
(3 5.45697e-16 0)
(3 1.43809e-16 0)
(3 -2.16316e-16 0)
(3 -9.94804e-16 0)
(3 -2.20267e-15 0)
(3 -3.78689e-15 0)
(3 -4.26851e-15 0)
(3 -2.71826e-15 0)
(3 -1.12453e-15 0)
(2.97058 -0.00359537 0)
(1.07115 0.0520813 0)
(0.759653 0.0370327 0)
(0.739561 0.0366014 0)
(0.724573 0.0397057 0)
(0.70853 0.0418262 0)
(0.692392 0.0432573 0)
(0.676767 0.0434952 0)
(0.662206 0.0432305 0)
(0.648623 0.0434398 0)
(0.635348 0.0442596 0)
(0.621597 0.0451466 0)
(0.607027 0.0456385 0)
(0.591743 0.0457349 0)
(0.576137 0.0455652 0)
(0.560737 0.045578 0)
(0.5458 0.0463226 0)
(0.531057 0.0477929 0)
(0.515982 0.0496115 0)
(0.50028 0.0512723 0)
(0.484253 0.0516366 0)
(0.468751 0.0508841 0)
(0.454044 0.0512033 0)
(0.439794 0.0531767 0)
(0.425187 0.0547696 0)
(0.409962 0.0549865 0)
(0.394048 0.0549424 0)
(0.377454 0.0553233 0)
(0.360482 0.055757 0)
(0.343469 0.0560368 0)
(0.326496 0.0563259 0)
(0.30943 0.0566977 0)
(0.292132 0.0571728 0)
(0.274537 0.0578268 0)
(0.256644 0.0586443 0)
(0.238522 0.05954 0)
(0.220272 0.0604524 0)
(0.201978 0.0613635 0)
(0.183701 0.0622889 0)
(0.165496 0.0632852 0)
(0.147391 0.0644348 0)
(0.129338 0.0658067 0)
(0.111169 0.0674449 0)
(0.0926576 0.0694188 0)
(0.0734955 0.0714883 0)
(0.0534944 0.0736724 0)
(0.0326134 0.0748942 0)
(0.0111459 0.0761564 0)
(3 1.08937e-16 0)
(3 -1.81159e-16 0)
(3 1.55862e-16 0)
(3 -8.19002e-17 0)
(3 -5.22623e-16 0)
(3 -2.09265e-16 0)
(3 -3.70156e-16 0)
(3 -4.92319e-16 0)
(3 -7.07325e-16 0)
(3 -6.5707e-16 0)
(3 -1.07133e-15 0)
(3 -7.73161e-16 0)
(3 -1.27655e-16 0)
(3 1.17262e-17 0)
(3 2.19775e-16 0)
(3 5.97027e-16 0)
(3 1.44106e-15 0)
(3 1.54986e-15 0)
(3 1.36862e-15 0)
(3 6.08455e-16 0)
(3 3.73938e-16 0)
(3 1.16132e-15 0)
(3 1.27441e-15 0)
(3 1.10339e-15 0)
(3 1.34796e-16 0)
(3 -3.81303e-16 0)
(3 -8.71159e-16 0)
(3 8.141e-17 0)
(3 1.33083e-15 0)
(3 1.69422e-15 0)
(3 2.13441e-17 0)
(3 -7.76807e-16 0)
(3 -1.67683e-15 0)
(3 -2.2563e-15 0)
(3 -2.5511e-15 0)
(3 -2.2827e-15 0)
(3 -3.31495e-15 0)
(3 -2.13151e-15 0)
(3 -1.9625e-16 0)
(3 8.98391e-16 0)
(3 1.99473e-15 0)
(3 8.08022e-16 0)
(3 2.28901e-16 0)
(3 4.43645e-16 0)
(3 2.3698e-16 0)
(3 -4.60038e-16 0)
(3 -2.93644e-17 0)
(3 3.42139e-16 0)
(3 5.40852e-17 0)
(3 4.85878e-16 0)
(3 6.9816e-16 0)
(3 1.13881e-15 0)
(3 1.53454e-15 0)
(3 8.16695e-16 0)
(3 -9.62367e-16 0)
(3 -1.42892e-15 0)
(3 -1.36333e-15 0)
(3 -1.16769e-15 0)
(3 1.34013e-16 0)
(3 6.98571e-16 0)
(3 8.0245e-16 0)
(3 8.95946e-16 0)
(3 1.04846e-15 0)
(3 1.09587e-15 0)
(3 1.03255e-15 0)
(3 1.16185e-15 0)
(3 1.13344e-15 0)
(3 9.0705e-16 0)
(3 3.7627e-16 0)
(3 6.6194e-17 0)
(3 3.87015e-16 0)
(3 7.19411e-16 0)
(3 8.19092e-16 0)
(3 1.00969e-15 0)
(3 1.24394e-15 0)
(3 8.85344e-16 0)
(3 1.24794e-15 0)
(3 1.91344e-15 0)
(3 1.87591e-15 0)
(3 1.24837e-15 0)
(3 1.2494e-15 0)
(3 1.67232e-15 0)
(3 1.87018e-15 0)
(3 2.56783e-15 0)
(3 2.95463e-15 0)
(3 2.95972e-15 0)
(3 1.90989e-15 0)
(3 1.50049e-15 0)
(3 1.7247e-15 0)
(3 1.17707e-15 0)
(3 4.65717e-16 0)
(3 1.17417e-15 0)
(3 1.93411e-15 0)
(3 2.18601e-15 0)
(3 2.83564e-15 0)
(3 3.32547e-15 0)
(3 2.77574e-15 0)
(3 2.83613e-15 0)
(3 1.54099e-15 0)
(3 8.25671e-16 0)
(3 4.48334e-16 0)
(3 6.77116e-16 0)
(3 2.64902e-16 0)
(3 -5.15299e-16 0)
(3 -1.12972e-15 0)
(3 -8.37065e-16 0)
(3 -3.25693e-16 0)
(3 -1.65802e-16 0)
(3 -2.05715e-16 0)
(3 -5.98097e-17 0)
(3 -1.1013e-16 0)
(3 -7.8736e-16 0)
(3 -1.3339e-15 0)
(3 -1.35228e-15 0)
(3 -1.39077e-15 0)
(3 -1.68066e-15 0)
(3 -1.71748e-15 0)
(3 -1.89006e-15 0)
(3 -2.19841e-15 0)
(3 -2.37649e-15 0)
(3 -2.50884e-15 0)
(3 -2.47229e-15 0)
(3 -3.28444e-15 0)
(3 -3.51611e-15 0)
(3 -3.77705e-15 0)
(3 -2.99955e-15 0)
(3 -9.80956e-16 0)
(3 1.47777e-15 0)
(3 2.76293e-15 0)
(3 3.23249e-15 0)
(3 2.99415e-15 0)
(3 2.36915e-15 0)
(3 7.65121e-16 0)
(3 -6.43474e-16 0)
(3 -7.82902e-16 0)
(3 -3.40448e-16 0)
(3 7.85481e-17 0)
(3 -6.98727e-16 0)
(3 -9.31914e-16 0)
(3 -1.05948e-15 0)
(3 -1.61777e-15 0)
(3 -1.95102e-15 0)
(3 -1.3774e-15 0)
(3 -1.10513e-15 0)
(2.98916 0.00261547 0)
(1.09838 0.0646409 0)
(0.768778 0.0492835 0)
(0.748204 0.0464008 0)
(0.731847 0.0505642 0)
(0.714437 0.0542632 0)
(0.697308 0.056798 0)
(0.680917 0.0571465 0)
(0.665847 0.0560719 0)
(0.651976 0.0551949 0)
(0.63867 0.0553658 0)
(0.625121 0.0563827 0)
(0.61079 0.0577174 0)
(0.595595 0.0589563 0)
(0.579822 0.0595517 0)
(0.5641 0.0595113 0)
(0.548889 0.0597609 0)
(0.53408 0.0608573 0)
(0.519155 0.0627746 0)
(0.503683 0.0649323 0)
(0.487762 0.0656974 0)
(0.472241 0.0648817 0)
(0.457438 0.065123 0)
(0.443179 0.0673716 0)
(0.428628 0.069298 0)
(0.413466 0.0696607 0)
(0.397617 0.069802 0)
(0.38106 0.0705387 0)
(0.364019 0.0713927 0)
(0.346751 0.0720942 0)
(0.329311 0.07282 0)
(0.311602 0.0736114 0)
(0.293573 0.0744429 0)
(0.275265 0.0753874 0)
(0.256748 0.0764354 0)
(0.238105 0.0775036 0)
(0.219424 0.078537 0)
(0.200765 0.0795318 0)
(0.182179 0.0805228 0)
(0.163718 0.0815857 0)
(0.145421 0.0828198 0)
(0.127255 0.0843146 0)
(0.109079 0.0861386 0)
(0.0907041 0.0884389 0)
(0.0717954 0.0909497 0)
(0.0522287 0.0937442 0)
(0.0318376 0.0954234 0)
(0.0108902 0.0972281 0)
(3 -1.10451e-17 0)
(3 -2.39056e-17 0)
(3 1.12924e-16 0)
(3 -3.06476e-16 0)
(3 -6.67391e-16 0)
(3 -1.26282e-15 0)
(3 -1.09897e-15 0)
(3 -9.73077e-16 0)
(3 -9.42522e-16 0)
(3 -5.56594e-16 0)
(3 -1.63252e-16 0)
(3 1.09458e-15 0)
(3 2.23349e-15 0)
(3 2.21728e-15 0)
(3 2.46192e-15 0)
(3 1.20577e-15 0)
(3 2.70057e-16 0)
(3 3.23189e-16 0)
(3 -1.04231e-16 0)
(3 -5.61502e-17 0)
(3 3.82046e-16 0)
(3 4.5517e-16 0)
(3 5.42169e-16 0)
(3 1.03623e-15 0)
(3 1.01669e-15 0)
(3 9.7672e-16 0)
(3 8.45063e-16 0)
(3 1.73843e-16 0)
(3 -6.23096e-17 0)
(3 3.39815e-16 0)
(3 5.19066e-16 0)
(3 7.30857e-16 0)
(3 1.6053e-16 0)
(3 -9.37033e-16 0)
(3 -1.68106e-15 0)
(3 -2.28e-15 0)
(3 -1.99961e-15 0)
(3 -1.99223e-15 0)
(3 -1.88165e-15 0)
(3 -1.42104e-15 0)
(3 -2.49168e-16 0)
(3 2.42675e-16 0)
(3 2.95392e-16 0)
(3 -1.61326e-17 0)
(3 -5.00119e-16 0)
(3 -6.19211e-16 0)
(3 -5.13052e-16 0)
(3 -5.29441e-17 0)
(3 2.41745e-16 0)
(3 5.0669e-16 0)
(3 9.46159e-16 0)
(3 1.00474e-15 0)
(3 1.39741e-15 0)
(3 1.64275e-15 0)
(3 1.24816e-15 0)
(3 -2.87937e-17 0)
(3 -1.61556e-15 0)
(3 -1.582e-15 0)
(3 -1.85915e-15 0)
(3 -1.77616e-15 0)
(3 3.57406e-16 0)
(3 8.05665e-16 0)
(3 1.27526e-15 0)
(3 1.27749e-15 0)
(3 7.761e-16 0)
(3 5.49285e-16 0)
(3 -2.24058e-16 0)
(3 -1.05276e-15 0)
(3 -8.88889e-16 0)
(3 -9.92466e-16 0)
(3 -8.43155e-16 0)
(3 -8.94399e-16 0)
(3 -1.04911e-15 0)
(3 -9.34551e-16 0)
(3 -6.23991e-16 0)
(3 -3.57675e-16 0)
(3 -8.60363e-17 0)
(3 1.9121e-16 0)
(3 3.2311e-16 0)
(3 6.56546e-16 0)
(3 2.25984e-15 0)
(3 4.11136e-15 0)
(3 3.23452e-15 0)
(3 2.21864e-15 0)
(3 2.05495e-15 0)
(3 2.07486e-15 0)
(3 2.29123e-15 0)
(3 2.68795e-15 0)
(3 2.69593e-15 0)
(3 1.8657e-15 0)
(3 1.11167e-15 0)
(3 2.84611e-16 0)
(3 6.26735e-16 0)
(3 1.59252e-15 0)
(3 2.38382e-15 0)
(3 2.75941e-15 0)
(3 2.50562e-15 0)
(3 1.25149e-15 0)
(3 6.50623e-16 0)
(3 4.56273e-16 0)
(3 7.79302e-16 0)
(3 9.31796e-16 0)
(3 1.94612e-16 0)
(3 -1.56767e-15 0)
(3 -3.02121e-15 0)
(3 -2.94784e-15 0)
(3 -2.13045e-15 0)
(3 -1.25384e-15 0)
(3 -1.16467e-15 0)
(3 -1.39577e-15 0)
(3 -1.51364e-15 0)
(3 -1.06369e-15 0)
(3 -9.28304e-16 0)
(3 -8.77389e-17 0)
(3 -4.19887e-16 0)
(3 -1.37422e-15 0)
(3 -1.40546e-15 0)
(3 -1.14921e-15 0)
(3 -7.50736e-16 0)
(3 -7.25882e-16 0)
(3 -1.23211e-15 0)
(3 -2.06042e-15 0)
(3 -1.96661e-15 0)
(3 -2.45564e-15 0)
(3 -1.89533e-15 0)
(3 -8.85681e-16 0)
(3 3.08715e-16 0)
(3 2.55005e-16 0)
(3 1.86878e-15 0)
(3 2.7637e-15 0)
(3 2.63867e-15 0)
(3 1.72605e-15 0)
(3 7.59837e-16 0)
(3 -2.31691e-16 0)
(3 -3.6223e-17 0)
(3 8.88528e-16 0)
(3 1.03558e-15 0)
(3 -1.49599e-16 0)
(3 -3.58985e-16 0)
(3 6.51671e-16 0)
(3 7.16576e-16 0)
(3 2.72365e-16 0)
(3 4.65372e-16 0)
(3 -2.1961e-15 0)
(2.9997 0.000334461 0)
(1.13366 0.0740323 0)
(0.771959 0.0604517 0)
(0.75138 0.0592244 0)
(0.734972 0.0640944 0)
(0.717344 0.0682199 0)
(0.700399 0.0710428 0)
(0.684139 0.0711289 0)
(0.669029 0.0691786 0)
(0.654829 0.0672598 0)
(0.640927 0.0668997 0)
(0.626694 0.0681752 0)
(0.61172 0.0704325 0)
(0.596006 0.07282 0)
(0.579871 0.0741406 0)
(0.56405 0.0739326 0)
(0.549045 0.0734302 0)
(0.534611 0.07398 0)
(0.520089 0.0759835 0)
(0.504903 0.0787342 0)
(0.488962 0.0800445 0)
(0.473187 0.0792472 0)
(0.458004 0.0793522 0)
(0.443416 0.0817927 0)
(0.42862 0.0840685 0)
(0.413233 0.0846645 0)
(0.397208 0.0850706 0)
(0.38055 0.0862205 0)
(0.363466 0.0875415 0)
(0.346203 0.0886892 0)
(0.328832 0.0898424 0)
(0.311268 0.0910124 0)
(0.293453 0.0921382 0)
(0.275395 0.0933055 0)
(0.257109 0.0945271 0)
(0.238622 0.0957336 0)
(0.219977 0.0968814 0)
(0.201226 0.0979772 0)
(0.182437 0.0990623 0)
(0.163688 0.100211 0)
(0.145049 0.101515 0)
(0.126529 0.103069 0)
(0.108046 0.104956 0)
(0.0894967 0.107423 0)
(0.0705518 0.110201 0)
(0.0512076 0.113469 0)
(0.0311536 0.11554 0)
(0.01064 0.117852 0)
(3 -1.65023e-16 0)
(3 -2.14119e-16 0)
(3 -5.36838e-16 0)
(3 -2.8967e-16 0)
(3 -5.8549e-16 0)
(3 -7.42932e-16 0)
(3 -1.16141e-15 0)
(3 -1.28517e-15 0)
(3 -1.88574e-15 0)
(3 -1.74697e-15 0)
(3 -1.39694e-17 0)
(3 7.60562e-16 0)
(3 8.71655e-16 0)
(3 5.38289e-16 0)
(3 8.66981e-16 0)
(3 8.8282e-16 0)
(3 8.01772e-16 0)
(3 2.00815e-16 0)
(3 -3.52342e-16 0)
(3 -6.61249e-16 0)
(3 -5.74374e-16 0)
(3 -8.98509e-16 0)
(3 -9.33949e-16 0)
(3 2.21468e-16 0)
(3 7.01805e-16 0)
(3 1.33986e-15 0)
(3 1.47084e-15 0)
(3 1.16713e-15 0)
(3 4.63234e-16 0)
(3 1.96815e-16 0)
(3 1.49829e-15 0)
(3 2.46214e-15 0)
(3 2.4362e-15 0)
(3 1.41615e-15 0)
(3 1.24558e-16 0)
(3 -1.07037e-15 0)
(3 -1.53902e-15 0)
(3 -1.54565e-15 0)
(3 -1.48181e-15 0)
(3 -8.34284e-16 0)
(3 -1.09072e-15 0)
(3 -5.7811e-16 0)
(3 -3.41072e-16 0)
(3 -4.59531e-16 0)
(3 -5.01594e-16 0)
(3 1.83955e-16 0)
(3 1.29507e-15 0)
(3 1.21282e-15 0)
(3 1.69814e-15 0)
(3 9.93843e-16 0)
(3 5.97213e-16 0)
(3 2.58428e-16 0)
(3 -1.90742e-16 0)
(3 1.6044e-16 0)
(3 7.98446e-17 0)
(3 -1.02242e-15 0)
(3 -1.0691e-15 0)
(3 -8.10664e-16 0)
(3 -1.37968e-15 0)
(3 -1.26179e-15 0)
(3 2.41937e-16 0)
(3 1.12237e-15 0)
(3 1.03645e-15 0)
(3 1.27367e-15 0)
(3 5.48874e-16 0)
(3 -3.50777e-16 0)
(3 -1.74158e-15 0)
(3 -2.55366e-15 0)
(3 -1.75051e-15 0)
(3 -1.38639e-15 0)
(3 -1.57704e-15 0)
(3 -1.86948e-15 0)
(3 -2.07846e-15 0)
(3 -2.05105e-15 0)
(3 -1.5951e-15 0)
(3 -5.18234e-16 0)
(3 -7.68033e-16 0)
(3 -8.50436e-16 0)
(3 -5.70277e-16 0)
(3 1.00444e-15 0)
(3 2.66783e-15 0)
(3 3.21032e-15 0)
(3 2.86641e-15 0)
(3 1.70665e-15 0)
(3 1.14539e-15 0)
(3 1.43416e-15 0)
(3 1.09764e-15 0)
(3 1.10297e-15 0)
(3 6.26164e-16 0)
(3 9.25628e-16 0)
(3 1.21324e-15 0)
(3 3.22331e-16 0)
(3 -3.2517e-17 0)
(3 3.38821e-16 0)
(3 4.77394e-16 0)
(3 2.11814e-16 0)
(3 -2.8157e-16 0)
(3 -8.45181e-16 0)
(3 -8.75648e-16 0)
(3 -1.1838e-16 0)
(3 8.24485e-16 0)
(3 6.91929e-16 0)
(3 -1.23908e-16 0)
(3 -7.63079e-16 0)
(3 -2.10592e-15 0)
(3 -1.85016e-15 0)
(3 -1.16921e-15 0)
(3 -8.94036e-16 0)
(3 -3.45792e-16 0)
(3 -7.96891e-16 0)
(3 -8.03957e-16 0)
(3 -6.39514e-16 0)
(3 -5.33804e-16 0)
(3 4.43793e-16 0)
(3 1.07582e-15 0)
(3 4.33103e-16 0)
(3 1.09434e-16 0)
(3 2.41266e-16 0)
(3 2.82904e-16 0)
(3 -2.64412e-16 0)
(3 -1.67891e-15 0)
(3 -2.45629e-15 0)
(3 -1.90879e-15 0)
(3 -7.21024e-16 0)
(3 4.6363e-16 0)
(3 2.51106e-16 0)
(3 -2.76369e-16 0)
(3 -4.53277e-16 0)
(3 1.03349e-16 0)
(3 3.72347e-16 0)
(3 -8.69542e-16 0)
(3 -1.3648e-15 0)
(3 -1.11174e-15 0)
(3 4.48623e-16 0)
(3 1.08909e-15 0)
(3 5.1482e-16 0)
(3 -1.45635e-16 0)
(3 -6.33658e-16 0)
(3 -8.09398e-16 0)
(3 -3.86889e-16 0)
(3 -2.72076e-16 0)
(3 -8.37519e-16 0)
(3 -1.18292e-15 0)
(3 -2.6213e-15 0)
(3 9.38266e-07 0)
(1.18002 0.0862645 0)
(0.772356 0.0706552 0)
(0.750551 0.0709503 0)
(0.735498 0.0771015 0)
(0.718303 0.0817624 0)
(0.70184 0.0849615 0)
(0.685841 0.0850174 0)
(0.670837 0.0825107 0)
(0.656634 0.0797172 0)
(0.642663 0.0788183 0)
(0.628483 0.0802402 0)
(0.613762 0.0832605 0)
(0.598411 0.0866306 0)
(0.582604 0.0884944 0)
(0.567098 0.087935 0)
(0.552367 0.0865469 0)
(0.538045 0.0865364 0)
(0.523578 0.0887444 0)
(0.508422 0.0922711 0)
(0.492306 0.0943323 0)
(0.476214 0.0936677 0)
(0.460658 0.0936224 0)
(0.445756 0.0961823 0)
(0.430759 0.0987986 0)
(0.415196 0.0996674 0)
(0.399047 0.100337 0)
(0.382332 0.101846 0)
(0.365225 0.103558 0)
(0.347944 0.10508 0)
(0.330566 0.106608 0)
(0.313013 0.108136 0)
(0.295223 0.109566 0)
(0.277188 0.110996 0)
(0.258894 0.112461 0)
(0.240333 0.113905 0)
(0.221531 0.115282 0)
(0.202552 0.116592 0)
(0.183486 0.117866 0)
(0.164434 0.119163 0)
(0.145469 0.120563 0)
(0.12661 0.122163 0)
(0.107806 0.124051 0)
(0.0890132 0.126573 0)
(0.0699225 0.129468 0)
(0.0506457 0.133059 0)
(0.0307314 0.135415 0)
(0.0104812 0.13815 0)
(3 1.0432e-16 0)
(3 1.11878e-16 0)
(3 -2.55634e-16 0)
(3 -5.02298e-16 0)
(3 -4.85969e-16 0)
(3 -4.88901e-16 0)
(3 -4.83255e-16 0)
(3 -9.04437e-16 0)
(3 -4.77716e-16 0)
(3 -4.86543e-16 0)
(3 -4.73027e-16 0)
(3 -1.27844e-15 0)
(3 -2.53325e-15 0)
(3 -1.65676e-15 0)
(3 -1.02844e-15 0)
(3 3.98462e-16 0)
(3 8.70286e-16 0)
(3 3.20205e-16 0)
(3 4.65168e-16 0)
(3 -7.81343e-16 0)
(3 -1.69975e-15 0)
(3 -2.86476e-15 0)
(3 -2.53743e-15 0)
(3 -1.5162e-15 0)
(3 -9.11389e-16 0)
(3 -1.54716e-15 0)
(3 -1.2509e-15 0)
(3 -2.07773e-16 0)
(3 -3.08132e-16 0)
(3 -2.69483e-16 0)
(3 7.69197e-16 0)
(3 8.99932e-16 0)
(3 -2.3232e-17 0)
(3 -1.1271e-15 0)
(3 -1.41823e-15 0)
(3 -2.49215e-15 0)
(3 -3.00657e-15 0)
(3 -1.35773e-15 0)
(3 -7.27383e-17 0)
(3 -3.78021e-17 0)
(3 -4.58824e-16 0)
(3 -2.87899e-16 0)
(3 1.82992e-16 0)
(3 5.8236e-17 0)
(3 3.96073e-16 0)
(3 6.41644e-16 0)
(3 7.91379e-16 0)
(3 1.20481e-15 0)
(3 1.29562e-15 0)
(3 1.15879e-15 0)
(3 2.06157e-16 0)
(3 -3.48002e-16 0)
(3 -7.84436e-16 0)
(3 -1.1551e-15 0)
(3 -1.59121e-15 0)
(3 -1.43369e-15 0)
(3 8.25599e-16 0)
(3 1.60258e-15 0)
(3 8.59192e-16 0)
(3 1.41719e-16 0)
(3 -8.60024e-16 0)
(3 -1.78824e-16 0)
(3 7.3127e-16 0)
(3 8.3877e-16 0)
(3 -8.61766e-17 0)
(3 -5.70098e-16 0)
(3 -1.21787e-15 0)
(3 -1.73146e-15 0)
(3 -1.31721e-15 0)
(3 -1.42281e-15 0)
(3 -1.49344e-15 0)
(3 -8.54339e-16 0)
(3 3.25345e-16 0)
(3 2.76341e-16 0)
(3 1.13836e-15 0)
(3 1.49051e-15 0)
(3 1.3097e-15 0)
(3 8.80116e-16 0)
(3 2.19814e-17 0)
(3 5.90649e-16 0)
(3 1.67638e-15 0)
(3 2.12e-15 0)
(3 1.07749e-15 0)
(3 -3.27823e-16 0)
(3 -8.63179e-16 0)
(3 -6.97225e-16 0)
(3 -1.13769e-15 0)
(3 -1.73136e-15 0)
(3 -1.53001e-15 0)
(3 -1.29476e-15 0)
(3 -8.78185e-16 0)
(3 -7.74189e-16 0)
(3 -9.4399e-16 0)
(3 -1.52755e-15 0)
(3 -1.6901e-15 0)
(3 -1.30898e-15 0)
(3 -1.14696e-15 0)
(3 -1.00653e-15 0)
(3 -8.62749e-16 0)
(3 -8.28562e-16 0)
(3 -2.88882e-16 0)
(3 -6.92871e-16 0)
(3 2.45904e-16 0)
(3 1.54233e-15 0)
(3 7.35029e-16 0)
(3 7.27912e-16 0)
(3 8.54407e-16 0)
(3 7.5561e-16 0)
(3 3.92769e-16 0)
(3 -1.14721e-16 0)
(3 -9.84751e-16 0)
(3 -1.31067e-15 0)
(3 -1.01599e-15 0)
(3 5.61379e-17 0)
(3 4.36473e-16 0)
(3 1.72215e-15 0)
(3 1.35865e-15 0)
(3 2.92792e-16 0)
(3 -1.00865e-15 0)
(3 -1.40829e-15 0)
(3 -1.95825e-15 0)
(3 -2.22601e-15 0)
(3 -1.83274e-15 0)
(3 1.53888e-16 0)
(3 4.32317e-16 0)
(3 6.63656e-17 0)
(3 -1.80847e-16 0)
(3 -3.85773e-17 0)
(3 -2.07668e-16 0)
(3 -4.5647e-16 0)
(3 -2.18361e-17 0)
(3 4.75733e-16 0)
(3 8.72308e-16 0)
(3 1.24806e-15 0)
(3 8.74442e-16 0)
(3 -4.08755e-16 0)
(3 -1.25205e-15 0)
(3 -1.37719e-15 0)
(3 -1.57542e-15 0)
(3 -1.53727e-15 0)
(3 -1.33039e-15 0)
(3 -1.39009e-15 0)
(3 -2.16807e-15 0)
(3 -2.44422e-15 0)
(3 7.42756e-10 0)
(1.24037 0.0996444 0)
(0.774972 0.0816986 0)
(0.749844 0.0824757 0)
(0.735397 0.0898439 0)
(0.7181 0.0950217 0)
(0.701751 0.0985707 0)
(0.685863 0.0986334 0)
(0.671042 0.0956884 0)
(0.657001 0.0921355 0)
(0.643034 0.0907318 0)
(0.628833 0.0922795 0)
(0.614202 0.0960137 0)
(0.599059 0.100314 0)
(0.583438 0.102723 0)
(0.568064 0.101966 0)
(0.553345 0.0999237 0)
(0.538807 0.0995055 0)
(0.524104 0.101959 0)
(0.508891 0.106238 0)