/*--------------------------------*- C++ -*----------------------------------*\
  =========                 |
  \\      /  F ield         | OpenFOAM: The Open Source CFD Toolbox
   \\    /   O peration     | Website:  https://openfoam.org
    \\  /    A nd           | Version:  7
     \\/     M anipulation  |
\*---------------------------------------------------------------------------*/
FoamFile
{
    version     2.0;
    format      ascii;
    class       volVectorField;
    location    "1.6";
    object      U;
}
// * * * * * * * * * * * * * * * * * * * * * * * * * * * * * * * * * * * * * //

dimensions      [0 1 -1 0 0 0 0];

internalField   nonuniform List<vector> 
16192
(
(3 -5.93594e-15 0)
(3 -6.17001e-15 0)
(3 -6.77419e-15 0)
(3 -6.5496e-15 0)
(3 -6.51517e-15 0)
(3 -3.81777e-15 0)
(3 -2.03873e-15 0)
(3 -1.22442e-15 0)
(3 -3.34338e-15 0)
(3 -3.53141e-15 0)
(3 4.35326e-14 0)
(3 4.82678e-08 0)
(2.99982 0.000874465 0)
(2.96078 0.162898 0)
(2.30577 0.86367 0)
(1.95834 1.02887 0)
(1.94706 1.02118 0)
(1.95638 1.01365 0)
(1.96977 1.0041 0)
(1.98315 0.996815 0)
(3 -3.90507e-15 0)
(3 -6.24215e-15 0)
(3 -5.77321e-15 0)
(3 -6.44033e-15 0)
(3 -6.16004e-15 0)
(3 -5.49272e-15 0)
(3 -4.39229e-15 0)
(3 -2.94323e-15 0)
(3 -3.96395e-15 0)
(3 -3.83471e-15 0)
(3 -1.51754e-15 0)
(3 1.09834e-10 0)
(3 1.33973e-05 0)
(3.00054 0.0193781 0)
(2.63164 0.614212 0)
(2.06436 1.0104 0)
(1.95382 1.01536 0)
(1.95861 1.00887 0)
(1.97267 1.00133 0)
(1.98712 0.996034 0)
(3 -3.56882e-15 0)
(3 -4.45306e-15 0)
(3 -4.07788e-15 0)
(3 -5.51548e-15 0)
(3 -6.78165e-15 0)
(3 -6.56177e-15 0)
(3 -5.86874e-15 0)
(3 -3.81742e-15 0)
(3 -2.84365e-15 0)
(3 -2.44799e-15 0)
(3 -2.54214e-15 0)
(3 8.30281e-14 0)
(3 7.4857e-08 0)
(2.99977 0.00113924 0)
(2.9732 0.175411 0)
(2.24644 0.891285 0)
(1.98825 1.01647 0)
(1.96722 1.01386 0)
(1.97355 1.00992 0)
(1.98495 1.00386 0)
(3 -4.9312e-15 0)
(3 -3.93596e-15 0)
(3 -3.67536e-15 0)
(3 -4.23195e-15 0)
(3 -6.08872e-15 0)
(3 -5.41101e-15 0)
(3 -4.86126e-15 0)
(3 -2.9621e-15 0)
(3 -2.08499e-15 0)
(3 -1.62731e-15 0)
(3 -2.48746e-15 0)
(3 -2.14049e-15 0)
(3 1.91367e-10 0)
(2.99999 1.87436e-05 0)
(3.00286 0.0225457 0)
(2.6004 0.608325 0)
(2.05102 1.01494 0)
(1.97707 1.01575 0)
(1.9798 1.00992 0)
(1.9869 1.00518 0)
(3 -3.22795e-15 0)
(3 -3.28356e-15 0)
(3 -1.94089e-15 0)
(3 -1.95362e-15 0)
(3 -3.03386e-15 0)
(3 -3.13869e-15 0)
(3 -2.5291e-15 0)
(3 -3.48702e-15 0)
(3 -3.75057e-15 0)
(3 -2.51159e-15 0)
(3 -2.16086e-15 0)
(3 -2.4105e-15 0)
(3 1.71861e-13 0)
(3 1.14497e-07 0)
(2.99977 0.0013143 0)
(2.95705 0.180934 0)
(2.24986 0.887533 0)
(2.00675 1.00871 0)
(1.98931 1.01849 0)
(1.98629 1.01589 0)
(3 -2.3107e-15 0)
(3 -2.7047e-15 0)
(3 -1.83054e-15 0)
(3 -1.13258e-15 0)
(3 -1.22772e-15 0)
(3 -3.3122e-15 0)
(3 -2.87776e-15 0)
(3 -4.19084e-15 0)
(3 -3.43294e-15 0)
(3 -2.5388e-15 0)
(3 -2.70136e-15 0)
(3 -3.12961e-15 0)
(3 -2.52614e-15 0)
(3 3.03617e-10 0)
(2.99999 2.19179e-05 0)
(3.00196 0.0226713 0)
(2.5964 0.604468 0)
(2.08568 0.988208 0)
(1.98823 1.01778 0)
(1.98604 1.01851 0)
(3 -2.295e-15 0)
(3 -1.34848e-15 0)
(3 -1.40161e-15 0)
(3 -1.30014e-15 0)
(3 -2.1214e-15 0)
(3 -3.20835e-15 0)
(3 -4.70854e-15 0)
(3 -4.35485e-15 0)
(3 -3.15175e-15 0)
(3 -4.21035e-15 0)
(3 -3.00063e-15 0)
(3 -2.16188e-15 0)
(3 -3.15117e-15 0)
(3 2.77805e-13 0)
(3 1.35147e-07 0)
(2.99976 0.00136568 0)
(2.9448 0.175986 0)
(2.30171 0.856902 0)
(2.00085 1.01733 0)
(1.97856 1.02455 0)
(3 -8.62592e-16 0)
(3 -2.41628e-16 0)
(3 4.32892e-16 0)
(3 -3.9037e-16 0)
(3 -2.40939e-15 0)
(3 -3.05359e-15 0)
(3 -3.01686e-15 0)
(3 -1.38672e-15 0)
(3 -1.91397e-15 0)
(3 -2.09419e-15 0)
(3 -8.12276e-16 0)
(3 5.0634e-16 0)
(3 2.52004e-16 0)
(3 2.23298e-15 0)
(3 3.92576e-10 0)
(2.99999 2.51402e-05 0)
(3.00085 0.0207767 0)
(2.60119 0.617604 0)
(2.09814 0.995045 0)
(1.9785 1.01512 0)
(3 -1.26797e-15 0)
(3 -2.17897e-15 0)
(3 -2.22023e-15 0)
(3 -2.04044e-15 0)
(3 -1.85179e-15 0)
(3 -1.58115e-15 0)
(3 -7.66575e-16 0)
(3 -8.35454e-16 0)
(3 -1.67455e-15 0)
(3 -1.70567e-16 0)
(3 2.06109e-15 0)
(3 2.07796e-15 0)
(3 1.59717e-15 0)
(3 2.09104e-15 0)
(3 4.48236e-13 0)
(3 1.78559e-07 0)
(2.99976 0.00133723 0)
(2.94032 0.187565 0)
(2.30222 0.859893 0)
(1.9899 1.02999 0)
(3 -3.26299e-15 0)
(3 -5.09732e-15 0)
(3 -6.58499e-15 0)
(3 -5.66892e-15 0)
(3 -2.25202e-15 0)
(3 2.39778e-16 0)
(3 -3.86981e-16 0)
(3 -1.83117e-15 0)
(3 -1.18315e-15 0)
(3 4.01225e-16 0)
(3 1.50251e-15 0)
(3 1.72522e-15 0)
(3 1.13812e-15 0)
(3 2.73291e-15 0)
(3 1.56981e-15 0)
(3 6.42249e-10 0)
(2.99999 2.758e-05 0)
(3.00191 0.0223247 0)
(2.55333 0.652369 0)
(2.11403 1.02209 0)
(3 -4.21045e-15 0)
(3 -4.48305e-15 0)
(3 -4.03049e-15 0)
(3 -1.87303e-15 0)
(3 -6.61363e-16 0)
(3 -3.21075e-16 0)
(3 -2.10851e-15 0)
(3 -2.91944e-15 0)
(3 -1.42025e-15 0)
(3 8.49559e-16 0)
(3 1.09529e-15 0)
(3 1.55914e-15 0)
(3 2.32916e-15 0)
(3 1.7036e-15 0)
(3 -2.44048e-16 0)
(3 9.16134e-13 0)
(3 2.09084e-07 0)
(2.99973 0.00167255 0)
(2.91774 0.212991 0)
(2.32673 0.884483 0)
(3 -1.83626e-15 0)
(3 -2.50344e-15 0)
(3 -2.57427e-15 0)
(3 -3.64526e-15 0)
(3 -2.54068e-15 0)
(3 -3.00196e-15 0)
(3 -4.37916e-15 0)
(3 -4.07582e-15 0)
(3 -2.73633e-15 0)
(3 1.31346e-15 0)
(3 2.70186e-15 0)
(3 2.84823e-15 0)
(3 3.68258e-15 0)
(3 2.08969e-15 0)
(3 -6.42248e-17 0)
(3 -8.92608e-16 0)
(3 7.62055e-10 0)
(2.99999 3.33709e-05 0)
(2.99648 0.0316276 0)
(2.66816 0.589915 0)
(3 1.47035e-15 0)
(3 1.25316e-15 0)
(3 -5.29162e-16 0)
(3 -2.70377e-15 0)
(3 -4.52766e-15 0)
(3 -4.97841e-15 0)
(3 -2.88942e-15 0)
(3 4.30652e-16 0)
(3 1.86906e-15 0)
(3 1.39986e-15 0)
(3 1.34126e-15 0)
(3 3.2135e-15 0)
(3 3.33395e-15 0)
(3 2.43213e-15 0)
(3 1.18451e-15 0)
(3 4.15972e-17 0)
(3 8.13662e-13 0)
(3 2.64162e-07 0)
(2.99965 0.00181973 0)
(2.93293 0.197673 0)
(3 1.37252e-15 0)
(3 4.60032e-16 0)
(3 4.38719e-16 0)
(3 -2.97683e-15 0)
(3 -4.48178e-15 0)
(3 -2.41145e-15 0)
(3 1.67504e-15 0)
(3 2.03343e-15 0)
(3 1.19453e-15 0)
(3 4.48514e-16 0)
(3 3.04097e-16 0)
(3 5.41912e-16 0)
(3 1.51704e-15 0)
(3 1.91169e-15 0)
(3 3.10194e-15 0)
(3 2.70532e-15 0)
(3 2.59243e-15 0)
(3 7.84442e-10 0)
(2.99999 2.83091e-05 0)
(2.99197 0.0294975 0)
(3 -1.20426e-15 0)
(3 1.9154e-15 0)
(3 3.52269e-15 0)
(3 4.34786e-16 0)
(3 -1.64975e-15 0)
(3 1.32314e-15 0)
(3 2.10219e-15 0)
(3 1.627e-15 0)
(3 9.38642e-16 0)
(3 -6.43954e-16 0)
(3 -1.54945e-15 0)
(3 -2.95232e-15 0)
(3 -3.12793e-16 0)
(3 2.05097e-15 0)
(3 6.85963e-15 0)
(3 6.37201e-15 0)
(3 3.08629e-15 0)
(3 6.7927e-13 0)
(3 1.66226e-07 0)
(2.99955 0.00140113 0)
(3 3.73527e-16 0)
(3 1.54415e-15 0)
(3 4.91477e-15 0)
(3 5.17953e-15 0)
(3 6.25038e-15 0)
(3 2.68202e-15 0)
(3 1.12957e-15 0)
(3 1.00164e-15 0)
(3 -3.05705e-17 0)
(3 -3.09231e-15 0)
(3 -4.40368e-15 0)
(3 -4.3007e-15 0)
(3 -1.55823e-15 0)
(3 3.24232e-15 0)
(3 5.22605e-15 0)
(3 7.09614e-15 0)
(3 6.53069e-15 0)
(3 4.76199e-15 0)
(3 3.48882e-10 0)
(2.99999 2.69394e-05 0)
(3 3.02423e-15 0)
(3 3.36064e-15 0)
(3 4.18884e-15 0)
(3 6.15263e-15 0)
(3 7.5901e-15 0)
(3 2.7475e-15 0)
(3 1.83e-15 0)
(3 2.14501e-16 0)
(3 -1.08946e-15 0)
(3 -3.84616e-15 0)
(3 -5.39548e-15 0)
(3 -4.04527e-15 0)
(3 -7.60418e-16 0)
(3 2.93792e-15 0)
(3 1.69858e-15 0)
(3 3.15422e-15 0)
(3 4.45755e-15 0)
(3 3.79808e-15 0)
(3 3.47175e-13 0)
(3 2.05812e-07 0)
(3 8.71017e-16 0)
(3 4.36832e-15 0)
(3 3.9152e-15 0)
(3 4.18448e-15 0)
(3 4.23241e-15 0)
(3 5.14649e-15 0)
(3 4.62567e-15 0)
(3 1.73838e-15 0)
(3 9.37095e-16 0)
(3 -1.05508e-15 0)
(3 -2.53083e-15 0)
(3 -2.35189e-15 0)
(3 -6.74832e-16 0)
(3 1.3081e-15 0)
(3 9.02571e-16 0)
(3 9.80246e-16 0)
(3 1.48237e-15 0)
(3 1.21873e-15 0)
(3 1.56918e-15 0)
(3 9.92533e-10 0)
(3 -2.47261e-15 0)
(3 3.96358e-16 0)
(3 3.79456e-15 0)
(3 4.74543e-15 0)
(3 5.00356e-15 0)
(3 5.18222e-15 0)
(3 4.15937e-15 0)
(3 2.75076e-15 0)
(3 1.824e-15 0)
(3 3.45607e-16 0)
(3 -7.03947e-16 0)
(3 -1.55484e-15 0)
(3 -8.49016e-16 0)
(3 -1.10207e-15 0)
(3 4.12842e-16 0)
(3 1.80128e-16 0)
(3 -5.80278e-16 0)
(3 -2.8574e-16 0)
(3 -3.74314e-17 0)
(3 3.54945e-12 0)
(3 -2.21103e-15 0)
(3 -2.98421e-15 0)
(3 7.78183e-16 0)
(3 4.77602e-15 0)
(3 6.79077e-15 0)
(3 6.36484e-15 0)
(3 5.46479e-15 0)
(3 4.62489e-15 0)
(3 3.20646e-15 0)
(3 2.19645e-15 0)
(3 1.61707e-15 0)
(3 -7.09891e-17 0)
(3 -1.86122e-15 0)
(3 -2.86294e-15 0)
(3 -2.39406e-15 0)
(3 2.42297e-16 0)
(3 -3.96386e-16 0)
(3 -5.0281e-16 0)
(3 -5.91969e-16 0)
(3 8.48917e-15 0)
(3 -3.7063e-15 0)
(3 -4.01926e-15 0)
(3 -1.32622e-15 0)
(3 5.5475e-16 0)
(3 4.22545e-15 0)
(3 6.34787e-15 0)
(3 6.05296e-15 0)
(3 5.91939e-15 0)
(3 4.74975e-15 0)
(3 4.80766e-15 0)
(3 3.23269e-15 0)
(3 1.36795e-15 0)
(3 -6.57842e-17 0)
(3 -1.82547e-15 0)
(3 -3.40115e-15 0)
(3 -3.05002e-15 0)
(3 -1.22379e-15 0)
(3 -8.09705e-16 0)
(3 -1.54066e-15 0)
(3 -3.18684e-15 0)
(3 -3.48373e-15 0)
(3 -2.96046e-15 0)
(3 -1.93428e-15 0)
(3 -1.1259e-15 0)
(3 9.83319e-16 0)
(3 2.64646e-15 0)
(3 2.91115e-15 0)
(3 4.37294e-15 0)
(3 4.94683e-15 0)
(3 4.18594e-15 0)
(3 2.80208e-15 0)
(3 3.29612e-15 0)
(3 1.3638e-15 0)
(3 -1.71323e-15 0)
(3 -4.67646e-15 0)
(3 -5.42854e-15 0)
(3 -5.04522e-15 0)
(3 -2.02315e-15 0)
(3 -1.9831e-15 0)
(3 -3.28203e-15 0)
(3 -3.49513e-15 0)
(3 -2.42947e-15 0)
(3 -2.93691e-15 0)
(3 -3.55514e-15 0)
(3 -6.38723e-16 0)
(3 -4.0821e-16 0)
(3 1.76869e-15 0)
(3 2.674e-15 0)
(3 3.55312e-15 0)
(3 3.60937e-15 0)
(3 3.81602e-15 0)
(3 2.4904e-15 0)
(3 1.2382e-15 0)
(3 -1.53136e-15 0)
(3 -3.88857e-15 0)
(3 -4.27756e-15 0)
(3 -5.35981e-15 0)
(3 -3.62586e-15 0)
(3 -8.77471e-16 0)
(3 -9.53612e-16 0)
(3 1.66298e-15 0)
(3 4.71226e-16 0)
(3 -6.79222e-16 0)
(3 -3.07889e-15 0)
(3 -2.17715e-15 0)
(3 -1.57606e-15 0)
(3 8.6863e-16 0)
(3 1.29357e-15 0)
(3 3.4473e-15 0)
(3 4.48263e-15 0)
(3 4.30296e-15 0)
(3 3.07732e-15 0)
(3 6.14066e-16 0)
(3 -1.63359e-15 0)
(3 -2.08793e-15 0)
(3 -3.60911e-15 0)
(3 -4.97597e-15 0)
(3 -4.12518e-15 0)
(3 -1.2738e-15 0)
(3 -6.12782e-16 0)
(3 2.38273e-15 0)
(3 1.34298e-15 0)
(3 2.46599e-16 0)
(3 -7.82632e-16 0)
(3 -6.57376e-16 0)
(3 3.05182e-16 0)
(3 1.37452e-15 0)
(3 8.17578e-16 0)
(3 1.72481e-15 0)
(3 3.75069e-15 0)
(3 3.91176e-15 0)
(3 3.61414e-15 0)
(3 3.02557e-17 0)
(3 -1.64753e-15 0)
(3 -2.54565e-15 0)
(3 -3.19745e-15 0)
(3 -2.72903e-15 0)
(3 -1.9483e-15 0)
(3 -1.09869e-15 0)
(3 -1.5759e-16 0)
(3 1.47996e-15 0)
(3 9.83538e-16 0)
(3 2.32728e-16 0)
(3 3.01409e-17 0)
(3 8.79435e-16 0)
(3 2.00952e-15 0)
(3 2.43175e-15 0)
(3 2.18775e-15 0)
(3 4.46512e-16 0)
(3 1.4409e-15 0)
(3 1.34714e-15 0)
(3 4.99495e-16 0)
(3 -4.56832e-16 0)
(3 -1.7078e-15 0)
(3 -3.43183e-15 0)
(3 -3.41416e-15 0)
(3 -2.16741e-15 0)
(3 -1.5121e-15 0)
(3 1.37084e-16 0)
(3 1.31041e-15 0)
(3 1.78244e-15 0)
(3 5.29397e-16 0)
(3 -1.79684e-16 0)
(3 -6.07055e-16 0)
(3 -2.14236e-16 0)
(3 -7.47256e-16 0)
(3 -7.59695e-16 0)
(3 2.80175e-15 0)
(3 1.44643e-15 0)
(3 -3.06143e-16 0)
(3 -6.42938e-16 0)
(3 -1.13983e-15 0)
(3 -1.13593e-15 0)
(3 -3.77746e-16 0)
(3 -1.79517e-15 0)
(3 -3.58316e-15 0)
(3 -2.86316e-15 0)
(3 -2.16626e-15 0)
(3 5.8377e-16 0)
(3 4.62904e-15 0)
(3 9.45314e-16 0)
(3 8.24807e-16 0)
(3 1.51596e-16 0)
(3 -1.34189e-15 0)
(3 -8.5155e-16 0)
(3 -7.40071e-16 0)
(3 -1.03186e-15 0)
(3 -1.80635e-15 0)
(3 -7.34795e-16 0)
(3 -1.4919e-16 0)
(3 -1.55738e-15 0)
(3 -1.66851e-15 0)
(3 6.56699e-19 0)
(3 -6.46676e-16 0)
(3 4.50439e-17 0)
(3 -1.92301e-15 0)
(3 -8.811e-16 0)
(3 -1.03192e-15 0)
(3 6.06434e-16 0)
(3 2.49024e-15 0)
(3 5.99486e-16 0)
(3 6.89617e-16 0)
(3 5.0749e-16 0)
(3 1.96071e-16 0)
(3 -1.04002e-16 0)
(3 -3.15803e-16 0)
(3 -1.61738e-15 0)
(3 -3.18513e-15 0)
(3 -2.62161e-15 0)
(3 -9.10887e-16 0)
(3 -1.64697e-15 0)
(3 -8.24796e-16 0)
(3 -3.85726e-16 0)
(3 -1.65675e-15 0)
(3 -2.42737e-15 0)
(3 -1.58009e-15 0)
(3 -2.10183e-15 0)
(3 -1.67104e-15 0)
(3 -1.28445e-15 0)
(3 -1.17185e-15 0)
(3 -1.53268e-15 0)
(3 -1.28422e-15 0)
(3 -5.74867e-16 0)
(3 1.89321e-15 0)
(3 -2.45425e-17 0)
(3 -1.24242e-15 0)
(3 -1.53191e-15 0)
(3 -4.59935e-15 0)
(3 -5.75087e-15 0)
(3 -3.70227e-15 0)
(3 -2.26282e-15 0)
(3 7.46826e-16 0)
(3 -3.52428e-16 0)
(3 -5.79567e-16 0)
(3 -2.08707e-16 0)
(3 7.57035e-16 0)
(3 -2.13598e-15 0)
(3 -1.662e-15 0)
(3 -1.31254e-15 0)
(3 -2.09362e-15 0)
(3 -3.35737e-15 0)
(3 -2.13768e-15 0)
(3 -1.20495e-15 0)
(3 1.73921e-15 0)
(3 1.90256e-15 0)
(3 -7.94202e-17 0)
(3 -1.66546e-15 0)
(3 -5.82491e-15 0)
(3 -5.8413e-15 0)
(3 -4.79657e-15 0)
(3 -3.36371e-15 0)
(3 -2.14832e-15 0)
(3 4.88487e-16 0)
(3 1.45903e-15 0)
(3 1.88911e-15 0)
(3 2.00066e-15 0)
(3 6.02294e-16 0)
(3 -1.42262e-15 0)
(3 -2.04972e-15 0)
(3 -2.49828e-15 0)
(3 -3.08667e-15 0)
(3 -2.27296e-15 0)
(3 -2.26261e-15 0)
(3 -1.26411e-15 0)
(3 1.5818e-16 0)
(3 3.55264e-16 0)
(3 -2.91479e-15 0)
(3 -5.61988e-15 0)
(3 -4.55902e-15 0)
(3 -5.23254e-15 0)
(3 -3.59923e-15 0)
(3 -3.44762e-15 0)
(3 -2.48325e-15 0)
(3 2.7733e-16 0)
(3 6.45491e-16 0)
(3 1.13823e-15 0)
(3 1.61919e-15 0)
(3 -5.85415e-16 0)
(3 -1.99516e-15 0)
(3 -3.37053e-15 0)
(3 -8.35061e-16 0)
(3 -1.49149e-15 0)
(3 -1.04604e-15 0)
(3 -1.83659e-15 0)
(3 -3.15214e-15 0)
(3 -1.49053e-15 0)
(3 -2.15359e-15 0)
(3 -3.99029e-15 0)
(3 -4.9686e-15 0)
(3 -5.05241e-15 0)
(3 -3.31636e-15 0)
(3 -1.6784e-15 0)
(3 -2.80064e-16 0)
(3 2.27842e-16 0)
(3 6.79086e-16 0)
(3 4.58088e-16 0)
(3 6.25506e-17 0)
(3 -5.68278e-16 0)
(3 -1.35803e-15 0)
(3 -2.80669e-15 0)
(3 1.75916e-15 0)
(3 -4.82733e-17 0)
(3 1.19046e-15 0)
(3 7.56373e-16 0)
(3 -1.22609e-15 0)
(3 -7.27453e-16 0)
(3 -1.71264e-15 0)
(3 -2.04697e-15 0)
(3 -4.33874e-15 0)
(3 -4.97931e-15 0)
(3 -5.11131e-15 0)
(3 -3.90261e-15 0)
(3 -2.48673e-16 0)
(3 1.706e-16 0)
(3 3.85011e-16 0)
(3 -3.39365e-18 0)
(3 -2.02215e-15 0)
(3 -2.94885e-15 0)
(3 -3.66662e-15 0)
(3 -3.28318e-15 0)
(3 3.93401e-15 0)
(3 2.49014e-15 0)
(3 -7.14536e-18 0)
(3 -1.64961e-15 0)
(3 -2.30887e-15 0)
(3 -2.22737e-15 0)
(3 -1.37561e-15 0)
(3 -2.70248e-15 0)
(3 -2.23307e-15 0)
(3 -2.83161e-15 0)
(3 -3.46098e-15 0)
(3 -3.7747e-15 0)
(3 -2.68504e-15 0)
(3 -1.27633e-15 0)
(3 -2.21126e-16 0)
(3 7.33927e-16 0)
(3 -1.1711e-15 0)
(3 -1.933e-15 0)
(3 -4.60084e-15 0)
(3 -4.21067e-15 0)
(3 4.69051e-15 0)
(3 4.60317e-15 0)
(3 1.46809e-15 0)
(3 -1.4644e-15 0)
(3 -2.37037e-15 0)
(3 -3.50844e-15 0)
(3 -3.16753e-15 0)
(3 -2.50144e-15 0)
(3 -1.51149e-15 0)
(3 -2.43558e-15 0)
(3 -2.41593e-15 0)
(3 -3.09892e-15 0)
(3 -3.0675e-15 0)
(3 -1.30649e-15 0)
(3 -7.87857e-16 0)
(3 -9.84929e-16 0)
(3 -5.44156e-16 0)
(3 -3.30181e-16 0)
(3 -1.54143e-15 0)
(3 -2.39828e-15 0)
(3 7.61534e-15 0)
(3 4.51597e-15 0)
(3 2.08501e-15 0)
(3 1.02544e-15 0)
(3 -3.10741e-16 0)
(3 -3.07658e-15 0)
(3 -4.83015e-15 0)
(3 -3.37211e-15 0)
(3 -3.59227e-15 0)
(3 -3.33797e-15 0)
(3 -2.71086e-15 0)
(3 -2.68854e-15 0)
(3 -2.21466e-15 0)
(3 -1.70442e-15 0)
(3 -2.75055e-15 0)
(3 -2.51494e-15 0)
(3 -4.52929e-16 0)
(3 4.36826e-17 0)
(3 -1.10613e-15 0)
(3 -2.24427e-15 0)
(3 6.96785e-15 0)
(3 4.86887e-15 0)
(3 1.81077e-15 0)
(3 4.29431e-16 0)
(3 -1.16786e-15 0)
(3 -3.81906e-15 0)
(3 -3.17021e-15 0)
(3 -3.57814e-15 0)
(3 -2.84983e-15 0)
(3 -1.67633e-15 0)
(3 -1.31062e-15 0)
(3 -2.19135e-15 0)
(3 -2.55804e-15 0)
(3 -2.29862e-15 0)
(3 -2.70785e-15 0)
(3 -2.42643e-15 0)
(3 -1.42242e-15 0)
(3 2.00046e-16 0)
(3 -1.18183e-15 0)
(3 -2.3238e-15 0)
(3 3.28216e-15 0)
(3 2.52242e-15 0)
(3 9.82183e-16 0)
(3 -5.09594e-16 0)
(3 -1.75648e-15 0)
(3 -1.79682e-15 0)
(3 -1.02885e-15 0)
(3 -1.82476e-15 0)
(3 -8.1296e-16 0)
(3 -4.36714e-16 0)
(3 -3.44983e-17 0)
(3 -2.49833e-15 0)
(3 -3.76901e-15 0)
(3 -3.22732e-15 0)
(3 -1.01518e-15 0)
(3 -8.65905e-16 0)
(3 -1.44095e-15 0)
(3 -1.90938e-15 0)
(3 -1.52844e-15 0)
(3 -1.3145e-15 0)
(3 3.56752e-15 0)
(3 4.23834e-15 0)
(3 2.93678e-15 0)
(3 1.76619e-15 0)
(3 -4.05597e-16 0)
(3 -6.265e-16 0)
(3 3.45118e-17 0)
(3 2.90125e-16 0)
(3 -1.24163e-16 0)
(3 6.24297e-16 0)
(3 -6.58238e-16 0)
(3 -3.17536e-15 0)
(3 -3.92304e-15 0)
(3 -2.11541e-15 0)
(3 4.36489e-17 0)
(3 1.62484e-15 0)
(3 4.2434e-16 0)
(3 -1.96776e-15 0)
(3 -1.93782e-15 0)
(3 -5.70271e-16 0)
(3 1.46293e-15 0)
(3 8.11036e-16 0)
(3 2.19256e-15 0)
(3 1.75488e-15 0)
(3 2.54269e-16 0)
(3 -5.46715e-16 0)
(3 2.00379e-16 0)
(3 1.34021e-15 0)
(3 1.79942e-15 0)
(3 3.0669e-15 0)
(3 1.83239e-15 0)
(3 -6.60475e-16 0)
(3 -1.38335e-15 0)
(3 4.90886e-17 0)
(3 2.59384e-16 0)
(3 5.62496e-16 0)
(3 8.72742e-16 0)
(3 -4.73405e-16 0)
(3 -2.47047e-15 0)
(3 -2.40977e-15 0)
(3 -2.73352e-16 0)
(3 2.25958e-16 0)
(3 1.79074e-15 0)
(3 1.95947e-15 0)
(3 2.13723e-15 0)
(3 1.78884e-15 0)
(3 1.49517e-15 0)
(3 1.75446e-15 0)
(3 2.01862e-15 0)
(3 3.14283e-15 0)
(3 4.15567e-15 0)
(3 3.11237e-15 0)
(3 2.34989e-15 0)
(3 1.30725e-15 0)
(3 5.20232e-16 0)
(3 -1.17223e-15 0)
(3 -9.64304e-16 0)
(3 -5.26634e-16 0)
(3 -1.03962e-15 0)
(3 -2.02628e-15 0)
(3 1.73625e-15 0)
(3 2.45322e-15 0)
(3 1.70024e-15 0)
(3 1.49304e-15 0)
(3 9.36026e-16 0)
(3 1.80283e-15 0)
(3 2.46845e-15 0)
(3 1.69225e-15 0)
(3 3.79203e-15 0)
(3 5.49722e-15 0)
(3 5.40173e-15 0)
(3 5.84579e-15 0)
(3 4.92051e-15 0)
(3 -3.55158e-16 0)
(3 -1.90048e-15 0)
(3 -2.76618e-15 0)
(3 -3.10202e-15 0)
(3 -2.1217e-15 0)
(3 -1.73438e-15 0)
(3 -1.92797e-15 0)
(3 -4.88858e-16 0)
(3 1.46804e-16 0)
(3 6.11671e-17 0)
(3 1.3626e-16 0)
(3 7.08907e-17 0)
(3 4.13608e-16 0)
(3 1.0591e-15 0)
(3 1.94046e-15 0)
(3 4.1783e-15 0)
(3 4.27098e-15 0)
(3 4.06872e-15 0)
(3 4.45432e-15 0)
(3 2.51914e-15 0)
(3 -1.15769e-15 0)
(3 -3.17853e-15 0)
(3 -2.91643e-15 0)
(3 -3.14916e-15 0)
(3 -3.62992e-15 0)
(3 -3.9885e-15 0)
(3 -3.1766e-15 0)
(3 3.98292e-16 0)
(3 4.3852e-16 0)
(3 1.03576e-15 0)
(3 5.03074e-16 0)
(3 3.76751e-16 0)
(3 2.44187e-16 0)
(3 6.14243e-17 0)
(3 -4.02241e-16 0)
(3 2.12327e-15 0)
(3 2.0456e-15 0)
(3 2.25082e-15 0)
(3 9.1822e-16 0)
(3 -1.71189e-16 0)
(3 -2.1683e-16 0)
(3 -1.37431e-16 0)
(3 -7.38646e-16 0)
(3 -2.59871e-15 0)
(3 -2.82356e-15 0)
(3 -2.35264e-15 0)
(3 -1.29094e-15 0)
(3 5.6914e-16 0)
(3 9.89755e-16 0)
(3 1.85279e-15 0)
(3 9.24186e-16 0)
(3 1.13949e-15 0)
(3 -8.87648e-17 0)
(3 -1.91558e-15 0)
(3 -2.63591e-15 0)
(3 -2.83075e-15 0)
(3 -8.21982e-16 0)
(3 -1.84964e-15 0)
(3 -2.20248e-15 0)
(3 -2.52559e-15 0)
(3 -2.19073e-15 0)
(3 -2.49245e-15 0)
(3 -3.62118e-15 0)
(3 -3.38949e-15 0)
(3 -2.8015e-15 0)
(3 -6.61697e-16 0)
(3 4.20773e-16 0)
(3 -3.5347e-15 0)
(3 1.12048e-15 0)
(3 2.26502e-15 0)
(3 3.24466e-15 0)
(3 3.13802e-15 0)
(3 1.80585e-15 0)
(3 -1.51665e-15 0)
(3 -2.18492e-15 0)
(3 -4.18994e-15 0)
(3 -3.04417e-15 0)
(3 -1.31341e-15 0)
(3 -1.33907e-15 0)
(3 -1.95524e-15 0)
(3 -1.65922e-15 0)
(3 -3.42952e-15 0)
(3 -2.79571e-15 0)
(3 -1.23003e-15 0)
(3 1.64025e-16 0)
(3 5.37071e-16 0)
(3 4.99893e-16 0)
(3 -5.03778e-15 0)
(3 -1.6658e-15 0)
(3 3.27801e-15 0)
(3 4.20166e-15 0)
(3 4.2907e-15 0)
(3 2.56101e-15 0)
(3 7.81102e-16 0)
(3 -1.46676e-15 0)
(3 -8.69316e-16 0)
(3 -6.07109e-16 0)
(3 2.66602e-16 0)
(3 1.33286e-16 0)
(3 -7.468e-16 0)
(3 -8.62159e-16 0)
(3 -2.23958e-15 0)
(3 -2.85511e-15 0)
(3 -2.31705e-15 0)
(3 5.81395e-16 0)
(3 2.22023e-16 0)
(3 -3.00964e-16 0)
(3 -3.1079e-15 0)
(3 -1.12203e-15 0)
(3 6.06326e-16 0)
(3 2.49086e-15 0)
(3 3.52989e-15 0)
(3 2.46358e-15 0)
(3 2.36867e-15 0)
(3 3.92764e-16 0)
(3 1.08503e-15 0)
(3 6.31773e-16 0)
(3 -1.31767e-15 0)
(3 7.49389e-16 0)
(3 8.85893e-16 0)
(3 6.90561e-16 0)
(3 2.66387e-16 0)
(3 -1.11743e-15 0)
(3 -2.1138e-15 0)
(3 -1.6867e-15 0)
(3 -1.13344e-15 0)
(3 -1.02047e-15 0)
(3 -3.18369e-15 0)
(3 -3.88929e-15 0)
(3 -3.35838e-15 0)
(3 -2.73372e-18 0)
(3 1.95687e-15 0)
(3 3.63535e-15 0)
(3 3.90801e-15 0)
(3 3.29531e-15 0)
(3 2.01886e-15 0)
(3 1.3287e-15 0)
(3 9.97991e-16 0)
(3 2.79089e-16 0)
(3 2.248e-15 0)
(3 1.46784e-15 0)
(3 3.01983e-15 0)
(3 3.66309e-15 0)
(3 1.67811e-16 0)
(3 -2.72705e-15 0)
(3 -2.65572e-15 0)
(3 -2.40494e-15 0)
(3 -1.41776e-15 0)
(3 -2.99457e-15 0)
(3 -1.59332e-15 0)
(3 -9.34755e-16 0)
(3 4.05668e-16 0)
(3 4.26161e-15 0)
(3 4.10911e-15 0)
(3 6.2858e-15 0)
(3 4.64093e-15 0)
(3 4.07834e-15 0)
(3 2.89437e-15 0)
(3 1.84187e-16 0)
(3 1.16471e-15 0)
(3 3.52079e-16 0)
(3 1.94766e-15 0)
(3 2.25606e-15 0)
(3 2.82861e-16 0)
(3 -2.34748e-15 0)
(3 -1.8249e-15 0)
(3 -5.03202e-16 0)
(3 -8.06657e-17 0)
(3 -2.41783e-15 0)
(3 -1.96624e-15 0)
(3 -2.17743e-15 0)
(3 -1.83451e-15 0)
(3 3.06916e-15 0)
(3 5.64104e-15 0)
(3 5.472e-15 0)
(3 5.95095e-15 0)
(3 2.55129e-15 0)
(3 1.83022e-15 0)
(3 6.49523e-16 0)
(3 8.31586e-16 0)
(3 8.05396e-16 0)
(3 3.52069e-16 0)
(3 1.26424e-15 0)
(3 6.72993e-16 0)
(3 -3.55697e-17 0)
(3 -3.5268e-16 0)
(3 -6.64259e-16 0)
(3 -7.51018e-16 0)
(3 -3.02288e-15 0)
(3 -3.20916e-15 0)
(3 -3.00816e-15 0)
(3 -2.28901e-15 0)
(3 1.24764e-15 0)
(3 5.01809e-15 0)
(3 2.2044e-15 0)
(3 2.9355e-15 0)
(3 1.06659e-15 0)
(3 8.73089e-16 0)
(3 1.14603e-15 0)
(3 2.46478e-15 0)
(3 3.87031e-15 0)
(3 2.91942e-15 0)
(3 2.91219e-15 0)
(3 3.01812e-15 0)
(3 4.0481e-15 0)
(3 2.63504e-15 0)
(3 8.49659e-17 0)
(3 -2.51352e-15 0)
(3 -2.81319e-15 0)
(3 -2.91915e-15 0)
(3 -2.07831e-15 0)
(3 -1.49398e-15 0)
(3 -4.74362e-16 0)
(3 1.38071e-15 0)
(3 1.11714e-15 0)
(3 8.99495e-16 0)
(3 2.10071e-15 0)
(3 1.8806e-15 0)
(3 1.26961e-15 0)
(3 2.87346e-15 0)
(3 5.16291e-15 0)
(3 5.72926e-15 0)
(3 5.46005e-15 0)
(3 7.3715e-15 0)
(3 6.68508e-15 0)
(3 4.7758e-15 0)
(3 3.13142e-15 0)
(3 -4.41153e-15 0)
(3 -4.60255e-15 0)
(3 -4.40291e-15 0)
(3 -3.53235e-15 0)
(3 -2.24999e-15 0)
(3 2.78396e-16 0)
(3 1.46451e-15 0)
(3 2.58558e-15 0)
(3 1.26835e-15 0)
(3 1.68279e-15 0)
(3 6.7206e-16 0)
(3 -3.17161e-16 0)
(3 1.20679e-16 0)
(3 2.083e-15 0)
(3 4.43433e-15 0)
(3 6.94661e-15 0)
(3 9.35761e-15 0)
(3 7.85244e-15 0)
(3 5.52061e-15 0)
(3 4.48218e-15 0)
(3 -4.43463e-15 0)
(3 -5.41678e-15 0)
(3 -4.98209e-15 0)
(3 -4.66641e-15 0)
(3 -3.25842e-15 0)
(3 -1.08405e-15 0)
(3 1.34654e-15 0)
(3 2.5464e-15 0)
(3 2.01687e-15 0)
(3 5.79087e-16 0)
(3 -8.96398e-16 0)
(3 -8.11205e-16 0)
(3 -1.19003e-15 0)
(3 1.37643e-16 0)
(3 2.15951e-15 0)
(3 4.54087e-15 0)
(3 6.00007e-15 0)
(3 4.99405e-15 0)
(3 4.10832e-15 0)
(3 4.8521e-15 0)
(3 -6.15029e-15 0)
(3 -7.37164e-15 0)
(3 -6.99694e-15 0)
(3 -6.41425e-15 0)
(3 -4.76258e-15 0)
(3 -3.38662e-15 0)
(3 2.11571e-16 0)
(3 8.92218e-16 0)
(3 2.77745e-15 0)
(3 1.96944e-15 0)
(3 1.09083e-15 0)
(3 1.53358e-15 0)
(3 3.97035e-16 0)
(3 2.86901e-16 0)
(3 7.91366e-16 0)
(3 1.83875e-15 0)
(3 1.45312e-15 0)
(3 4.85506e-15 0)
(3 3.31179e-15 0)
(3 2.80997e-15 0)
(3 -7.03177e-15 0)
(3 -7.6371e-15 0)
(3 -6.41883e-15 0)
(3 -4.81017e-15 0)
(3 -3.85105e-15 0)
(3 -3.38362e-15 0)
(3 -6.95965e-16 0)
(3 1.02492e-15 0)
(3 3.14304e-15 0)
(3 3.86807e-15 0)
(3 3.85633e-15 0)
(3 2.74963e-15 0)
(3 1.50836e-15 0)
(3 -1.43898e-16 0)
(3 -2.2542e-16 0)
(3 -6.1561e-16 0)
(3 -1.76389e-15 0)
(3 1.39393e-15 0)
(3 1.79704e-15 0)
(3 2.2919e-16 0)
(3 -4.8614e-15 0)
(3 -4.48426e-15 0)
(3 -4.57561e-15 0)
(3 -3.84962e-15 0)
(3 -3.94347e-15 0)
(3 -2.70799e-15 0)
(3 -1.4836e-15 0)
(3 1.81201e-15 0)
(3 3.77406e-15 0)
(3 3.57642e-15 0)
(3 4.00932e-15 0)
(3 8.64145e-16 0)
(3 -3.34755e-16 0)
(3 -1.51014e-15 0)
(3 -1.64629e-15 0)
(3 -1.34761e-15 0)
(3 -7.28994e-16 0)
(3 -5.85873e-16 0)
(3 1.57955e-16 0)
(3 1.61531e-15 0)
(3 -2.07385e-15 0)
(3 -3.2883e-15 0)
(3 -3.15452e-15 0)
(3 -2.83778e-15 0)
(3 -1.84636e-15 0)
(3 -8.10777e-16 0)
(3 -2.20183e-16 0)
(3 8.56219e-16 0)
(3 1.34644e-15 0)
(3 1.82284e-15 0)
(3 1.24236e-15 0)
(3 -3.49731e-16 0)
(3 -6.26115e-16 0)
(3 -2.35765e-15 0)
(3 -3.59466e-15 0)
(3 -2.01705e-15 0)
(3 -6.67108e-16 0)
(3 -5.41088e-16 0)
(3 1.83053e-15 0)
(3 3.44777e-15 0)
(3 -7.08931e-16 0)
(3 -5.83426e-16 0)
(3 -1.0053e-15 0)
(3 -9.49402e-16 0)
(3 -9.81028e-16 0)
(3 -6.02429e-16 0)
(3 1.10557e-15 0)
(3 6.2276e-16 0)
(3 -1.47409e-15 0)
(3 -4.68563e-16 0)
(3 5.86693e-17 0)
(3 7.93794e-16 0)
(3 -1.03531e-18 0)
(3 -1.53819e-15 0)
(3 -2.59867e-15 0)
(3 -2.16655e-15 0)
(3 -1.30372e-15 0)
(3 1.04366e-16 0)
(3 1.12242e-15 0)
(3 1.05969e-15 0)
(3 -8.06614e-16 0)
(3 -5.75399e-16 0)
(3 -9.56002e-16 0)
(3 -1.7546e-16 0)
(3 1.12941e-16 0)
(3 6.2658e-16 0)
(3 1.99869e-15 0)
(3 1.70957e-15 0)
(3 1.63024e-15 0)
(3 9.18143e-16 0)
(3 7.57118e-16 0)
(3 1.33145e-15 0)
(3 3.75903e-16 0)
(3 7.86295e-17 0)
(3 1.06068e-16 0)
(3 2.94377e-16 0)
(3 -1.21569e-16 0)
(3 6.98511e-17 0)
(3 -7.3181e-17 0)
(3 -5.4652e-16 0)
(3 -3.94209e-16 0)
(3 -1.53591e-16 0)
(3 -1.89512e-16 0)
(3 -1.73905e-16 0)
(3 7.04427e-16 0)
(3 7.9448e-16 0)
(3 8.8832e-16 0)
(3 1.67073e-15 0)
(3 1.51794e-15 0)
(3 1.87305e-15 0)
(3 1.81966e-15 0)
(3 1.18565e-15 0)
(3 -1.15153e-16 0)
(3 -2.98236e-16 0)
(3 1.49891e-15 0)
(3 7.30536e-16 0)
(3 -8.85677e-16 0)
(3 -2.51567e-15 0)
(3 -6.31489e-16 0)
(3 -1.03429e-15 0)
(3 1.02069e-15 0)
(3 6.32843e-16 0)
(3 3.53679e-16 0)
(3 -4.65466e-16 0)
(3 -9.28288e-16 0)
(3 3.3407e-16 0)
(3 -8.75191e-16 0)
(3 -9.06182e-16 0)
(3 -9.93377e-16 0)
(3 -5.83497e-16 0)
(3 7.72634e-16 0)
(3 1.14339e-16 0)
(3 6.98763e-16 0)
(3 9.4104e-16 0)
(3 1.63236e-15 0)
(3 -4.38469e-16 0)
(3 -2.2842e-15 0)
(3 -4.45389e-15 0)
(3 -4.22165e-15 0)
(3 -2.86264e-15 0)
(3 8.58523e-16 0)
(3 1.2128e-15 0)
(3 3.20732e-16 0)
(3 -1.55798e-15 0)
(3 -2.96744e-15 0)
(3 -1.25387e-15 0)
(3 -3.2627e-15 0)
(3 -4.69636e-15 0)
(3 -3.03351e-15 0)
(3 -2.66852e-15 0)
(3 -1.17182e-15 0)
(3 -4.47862e-17 0)
(3 1.77959e-15 0)
(3 1.39089e-15 0)
(3 -5.07283e-16 0)
(3 -2.32618e-15 0)
(3 -3.24111e-15 0)
(3 -5.05263e-15 0)
(3 -6.00841e-15 0)
(3 -3.69236e-15 0)
(2.2923 0.655785 0)
(2.29752 0.64874 0)
(2.29893 0.642513 0)
(2.29858 0.635841 0)
(2.299 0.628553 0)
(2.30235 0.623556 0)
(2.30773 0.624241 0)
(2.31746 0.627391 0)
(2.33047 0.631225 0)
(2.33829 0.631159 0)
(2.34723 0.625511 0)
(2.35379 0.614264 0)
(2.35479 0.601007 0)
(2.35023 0.585598 0)
(2.34897 0.574575 0)
(2.3524 0.570861 0)
(2.3577 0.571713 0)
(2.36951 0.575131 0)
(2.3813 0.579448 0)
(2.38796 0.580163 0)
(2.39467 0.576762 0)
(2.39636 0.567333 0)
(2.3925 0.551485 0)
(2.39077 0.535559 0)
(2.39548 0.528368 0)
(2.40078 0.528442 0)
(2.41073 0.530719 0)
(2.4253 0.537083 0)
(2.43483 0.540087 0)
(2.44045 0.538611 0)
(2.44486 0.531974 0)
(2.44221 0.51986 0)
(2.43151 0.501027 0)
(2.42546 0.486483 0)
(2.42848 0.481036 0)
(2.43276 0.481317 0)
(2.44282 0.483562 0)
(2.45968 0.489427 0)
(2.47072 0.491722 0)
(2.47725 0.489917 0)
(2.48347 0.484064 0)
(2.48251 0.47332 0)
(2.47195 0.45537 0)
(2.46399 0.440761 0)
(2.46529 0.43565 0)
(2.46859 0.435996 0)
(2.47815 0.438327 0)
(2.49212 0.443416 0)
(2.50024 0.445072 0)
(2.50567 0.44266 0)
(2.50904 0.434915 0)
(2.50387 0.421215 0)
(2.49515 0.404952 0)
(2.49569 0.396652 0)
(2.49941 0.396076 0)
(2.50686 0.396737 0)
(2.51993 0.399243 0)
(2.5281 0.399983 0)
(2.53376 0.397902 0)
(2.53885 0.392074 0)
(2.53705 0.380959 0)
(2.52803 0.365534 0)
(2.52469 0.355223 0)
(2.52737 0.354042 0)
(2.53297 0.356221 0)
(2.54623 0.362708 0)
(2.55894 0.368946 0)
(2.56359 0.369078 0)
(2.56822 0.364116 0)
(2.56504 0.352956 0)
(2.55084 0.332036 0)
(2.5401 0.313465 0)
(2.54173 0.306879 0)
(2.54491 0.306284 0)
(2.55178 0.306334 0)
(2.56602 0.311609 0)
(2.58059 0.319372 0)
(2.58518 0.320842 0)
(2.59053 0.320424 0)
(2.59449 0.316992 0)
(2.59121 0.307079 0)
(2.58036 0.292342 0)
(2.577 0.283122 0)
(2.58099 0.281992 0)
(2.58623 0.281428 0)
(2.59271 0.279526 0)
(2.5981 0.277167 0)
(2.60252 0.274358 0)
(2.60569 0.270584 0)
(2.60505 0.264108 0)
(2.60086 0.255134 0)
(2.60398 0.252481 0)
(2.60885 0.252096 0)
(2.6147 0.250839 0)
(2.6202 0.24935 0)
(2.62422 0.247808 0)
(2.62768 0.246096 0)
(2.63003 0.242993 0)
(2.62865 0.235474 0)
(2.62387 0.225906 0)
(2.62596 0.222844 0)
(2.63008 0.222352 0)
(2.63479 0.219974 0)
(2.63893 0.216956 0)
(2.64201 0.213452 0)
(2.6431 0.207845 0)
(2.63956 0.198284 0)
(2.63651 0.190215 0)
(2.63947 0.187524 0)
(2.64292 0.185799 0)
(2.64606 0.18291 0)
(2.64754 0.178323 0)
(2.64929 0.174334 0)
(2.65264 0.174013 0)
(2.65606 0.174708 0)
(2.66233 0.176509 0)
(2.66715 0.177947 0)
(2.67157 0.177536 0)
(2.67663 0.176239 0)
(2.68046 0.174681 0)
(2.68342 0.172093 0)
(2.68328 0.165618 0)
(2.67383 0.151517 0)
(2.65956 0.133145 0)
(2.65618 0.124411 0)
(2.65782 0.123387 0)
(2.66384 0.123402 0)
(2.67716 0.128395 0)
(2.69197 0.135159 0)
(2.6967 0.13627 0)
(2.70029 0.134845 0)
(2.70227 0.130704 0)
(2.69657 0.121206 0)
(2.68421 0.106162 0)
(1.99118 0.991539 0)
(1.99603 0.986701 0)
(1.99866 0.98276 0)
(1.99916 0.981362 0)
(2.00262 0.976906 0)
(2.00935 0.968444 0)
(2.01346 0.961692 0)
(2.0138 0.962175 0)
(2.01463 0.962046 0)
(2.02211 0.954805 0)
(2.03097 0.94386 0)
(2.03444 0.940239 0)
(2.03567 0.940017 0)
(2.04183 0.934662 0)
(2.05252 0.923466 0)
(2.05839 0.914545 0)
(2.05948 0.914882 0)
(2.06092 0.914724 0)
(2.06776 0.909217 0)
(2.07452 0.901285 0)
(2.07679 0.898889 0)
(2.07474 0.902836 0)
(2.07522 0.902043 0)
(2.08349 0.894327 0)
(2.09106 0.885247 0)
(2.09398 0.883614 0)
(2.09518 0.883085 0)
(2.10186 0.876994 0)
(2.11361 0.866261 0)
(2.12053 0.858279 0)
(2.12258 0.858988 0)
(2.12466 0.857108 0)
(2.13214 0.850376 0)
(2.13725 0.842571 0)
(2.13843 0.843586 0)
(2.13648 0.846911 0)
(2.14045 0.843012 0)
(2.1472 0.834514 0)
(2.15106 0.831496 0)
(2.15327 0.832632 0)
(2.15864 0.827638 0)
(2.16939 0.817362 0)
(2.17671 0.806992 0)
(2.18016 0.806396 0)
(2.18082 0.807731 0)
(2.18563 0.803735 0)
(2.19119 0.796736 0)
(2.19413 0.793382 0)
(2.19509 0.796292 0)
(2.19746 0.796046 0)
(2.2029 0.788645 0)
(2.20873 0.776531 0)
(2.2091 0.773579 0)
(2.20533 0.773194 0)
(2.19635 0.774592 0)
(2.18102 0.779179 0)
(2.1639 0.783981 0)
(2.1512 0.77841 0)
(2.14745 0.777026 0)
(2.14304 0.782522 0)
(2.13844 0.787404 0)
(2.14059 0.785559 0)
(2.14434 0.78079 0)
(2.14684 0.780993 0)
(2.14768 0.781941 0)
(2.1477 0.777198 0)
(2.15235 0.77174 0)
(2.15621 0.766045 0)
(2.15834 0.763629 0)
(2.15851 0.767215 0)
(2.15748 0.769667 0)
(2.1606 0.767876 0)
(2.16537 0.763014 0)
(2.1687 0.758856 0)
(2.1693 0.758149 0)
(2.1684 0.758734 0)
(2.16963 0.755393 0)
(2.17684 0.746112 0)
(2.1879 0.735202 0)
(2.19528 0.726722 0)
(2.19909 0.725193 0)
(2.20074 0.727682 0)
(2.20456 0.726477 0)
(2.21329 0.720716 0)
(2.222 0.712065 0)
(2.22669 0.706756 0)
(2.22688 0.708478 0)
(2.22546 0.708757 0)
(2.22892 0.700792 0)
(2.23868 0.691207 0)
(2.24817 0.68455 0)
(2.25461 0.68365 0)
(2.25871 0.682503 0)
(2.26456 0.677989 0)
(2.27231 0.671399 0)
(2.27998 0.664304 0)
(2.28582 0.657307 0)
(2.28818 0.651055 0)
(2.28824 0.644994 0)
(2.28922 0.638303 0)
(2.29337 0.634712 0)
(2.29941 0.635581 0)
(2.31033 0.638167 0)
(2.32091 0.640673 0)
(2.32834 0.640415 0)
(2.33593 0.634388 0)
(2.34123 0.623731 0)
(2.34175 0.610167 0)
(2.33916 0.596153 0)
(2.33985 0.586686 0)
(2.34356 0.583488 0)
(2.34901 0.584324 0)
(2.36146 0.586822 0)