/*--------------------------------*- C++ -*----------------------------------*\
  =========                 |
  \\      /  F ield         | OpenFOAM: The Open Source CFD Toolbox
   \\    /   O peration     | Website:  https://openfoam.org
    \\  /    A nd           | Version:  7
     \\/     M anipulation  |
\*---------------------------------------------------------------------------*/
FoamFile
{
    version     2.0;
    format      ascii;
    class       volScalarField;
    location    "2.2";
    object      p;
}
// * * * * * * * * * * * * * * * * * * * * * * * * * * * * * * * * * * * * * //

dimensions      [1 -1 -2 0 0 0 0];

internalField   nonuniform List<scalar> 
16512
(
2.34045
2.32941
2.32082
2.31319
2.30684
2.3003
2.29183
2.28245
2.27162
2.25693
2.24194
2.23397
2.2275
2.22255
2.21937
2.21363
2.20579
2.19698
2.18692
2.17526
2.16626
2.16001
2.15466
2.15043
2.14568
2.13895
2.13005
2.11736
2.10148
2.08853
2.07994
2.0728
2.06647
2.06003
2.0515
2.04224
2.03649
2.03095
2.02451
2.01768
2.0108
2.00448
1.99859
1.9913
1.98052
1.96624
1.95242
1.94331
1.93799
1.93462
1.93095
1.92728
1.925
1.92614
1.93105
1.93998
1.95746
1.98817
2.03226
2.0931
2.16155
2.22093
2.27225
2.31388
2.34992
2.38616
2.42441
2.45702
2.46259
2.45029
2.44268
2.44455
2.45159
2.46839
2.49372
2.51178
2.51516
2.5121
2.5064
2.49451
2.47364
2.44287
2.41729
2.40725
2.40239
2.39823
2.39664
2.39458
2.38835
2.3811
2.37263
2.36041
2.34414
2.33149
2.32561
2.32265
2.32214
2.33209
2.34932
2.35017
2.34431
2.3375
2.32846
2.31663
2.30293
2.28774
2.26948
2.24738
2.22815
2.21782
2.21238
2.2096
2.20905
2.21737
2.23788
2.25012
2.24663
2.24045
2.23035
2.2133
2.1917
2.17582
2.16678
2.1606
2.15714
2.1551
2.15305
2.14867
2.14414
2.14045
2.13751
2.13522
2.13429
2.13448
2.13222
2.1287
2.12512
2.11938
2.10765
2.08873
2.06366
2.04362
2.03442
2.02983
2.02648
2.02421
2.02729
2.03597
2.0382
2.035
2.03158
2.02711
2.01915
2.00746
1.99842
1.9949
1.99249
1.99132
1.98995
1.98565
1.97949
1.96928
1.9539
1.9355
1.92045
1.91022
1.90299
1.90063
1.89961
1.89927
1.90096
1.90515
1.90823
1.90544
1.9007
1.89387
1.88347
1.87268
1.86486
1.8587
1.85091
1.83959
1.82787
1.82142
1.81833
1.81555
1.81278
1.81091
1.813
1.82159
1.82594
1.82473
1.82185
1.81619
1.80255
1.78044
1.76308
1.7552
1.75191
1.74922
1.74631
1.74344
1.74112
1.74088
1.74241
1.7451
1.74943
1.75306
1.75174
1.74658
1.73639
1.71727
1.69149
1.67612
1.67088
1.66899
1.66791
1.66709
1.66755
1.67198
1.67872
1.68267
1.6819
1.67757
1.67283
1.66761
1.65909
1.64327
1.62022
1.6068
1.6029
1.60162
1.60059
1.60038
1.60427
1.61265
1.61883
1.61816
1.61295
1.60764
1.60182
1.59278
1.57858
1.56346
1.55244
1.54756
1.54741
1.54674
1.54566
1.54422
1.54272
1.54316
1.54743
1.55733
1.56391
1.56134
1.56001
1.554
2.35227
2.34323
2.33529
2.32843
2.32165
2.31333
2.30391
2.29289
2.27878
2.26227
2.25049
2.24341
2.23831
2.23653
2.23351
2.22597
2.2182
2.2085
2.19376
2.18086
2.17319
2.16723
2.16297
2.16113
2.15866
2.1531
2.14609
2.13721
2.12441
2.10713
2.09006
2.07705
2.06747
2.06053
2.05505
2.05006
2.04547
2.04063
2.03464
2.02802
2.02033
2.01109
2.0025
1.99582
1.98958
1.98283
1.97497
1.96501
1.95369
1.94165
1.9311
1.92337
1.91745
1.91286
1.90982
1.9078
1.9067
1.90893
1.91524
1.92324
1.93594
1.95368
1.97974
2.01965
2.06063
2.10499
2.15833
2.21455
2.28045
2.34433
2.37907
2.39645
2.39978
2.40426
2.41667
2.44442
2.47757
2.49337
2.49368
2.48969
2.48365
2.46856
2.44249
2.41659
2.40128
2.3937
2.38897
2.38773
2.38529
2.37863
2.37151
2.36274
2.34895
2.3314
2.31958
2.31468
2.31159
2.31108
2.32108
2.33909
2.3419
2.33458
2.32747
2.31959
2.31071
2.30032
2.28695
2.26826
2.24266
2.21784
2.20494
2.19889
2.1956
2.19396
2.1996
2.22007
2.23938
2.23989
2.23385
2.22574
2.21049
2.18705
2.16634
2.1553
2.14826
2.14349
2.14021
2.14004
2.14139
2.14073
2.14174
2.14074
2.13705
2.13329
2.12907
2.12405
2.11771
2.11043
2.10276
2.09073
2.07363
2.05361
2.03563
2.02613
2.02211
2.02004
2.02227
2.03036
2.03599
2.0341
2.03016
2.02547
2.01809
2.00604
1.9942
1.9884
1.98509
1.98213
1.98174
1.98414
1.98189
1.97683
1.96895
1.95563
1.93587
1.91479
1.90092
1.89456
1.89245
1.89053
1.8887
1.8875
1.89007
1.89813
1.90034
1.89629
1.89119
1.8823
1.86975
1.85855
1.85027
1.84088
1.8281
1.81906
1.81558
1.81306
1.81063
1.80898
1.81011
1.81412
1.82095
1.82267
1.82026
1.81585
1.8077
1.79261
1.76954
1.75284
1.74781
1.74538
1.74293
1.74046
1.73845
1.73874
1.73938
1.73791
1.73648
1.73686
1.73957
1.74013
1.73622
1.72718
1.71067
1.68661
1.67045
1.66582
1.66434
1.66348
1.66312
1.66439
1.66646
1.66835
1.67023
1.66947
1.66534
1.66115
1.65686
1.64855
1.63248
1.61133
1.6012
1.59905
1.59833
1.5981
1.59908
1.6012
1.60481
1.60886
1.60804
1.60381
1.59964
1.59449
1.58504
1.56925
1.55225
1.54385
1.54239
1.54212
1.54111
1.53992
1.53906
1.54048
1.54376
1.5479
1.55453
1.56005
1.55949
1.55292
2.36477
2.35697
2.3502
2.34401
2.33634
2.32723
2.3166
2.3029
2.28516
2.26956
2.26072
2.25435
2.25019
2.24946
2.24498
2.23761
2.22933
2.21743
2.20177
2.18973
2.18256
2.17684
2.17259
2.17056
2.16845
2.16336
2.15727
2.15045
2.14189
2.1301
2.11367
2.09337
2.07394
2.06218
2.05545
2.05055
2.04777
2.04503
2.04027
2.03509
2.02898
2.01925
2.00845
2.00293
1.99833
1.99382
1.98895
1.9827
1.97395
1.96194
1.9475
1.93326
1.92033
1.91053
1.90458
1.90126
1.89914
1.89777
1.89946
1.90165
1.90262
1.90421
1.9019
1.89792
1.8963
1.89623
1.90545
1.92766
1.96518
2.02328
2.08859
2.16126
2.23103
2.27093
2.30323
2.33776
2.36748
2.39747
2.43641
2.46292
2.46746
2.46428
2.45427
2.43986
2.41856
2.39618
2.38415
2.37778
2.37305
2.37222
2.3696
2.36269
2.35117
2.33826
2.32508
2.3134
2.30623
2.30241
2.30059
2.30521
2.31989
2.32952
2.32577
2.32034
2.31467
2.30711
2.29644
2.28229
2.26278
2.23539
2.20718
2.19262
2.18709
2.18404
2.18227
2.1853
2.20018
2.22081
2.22928
2.22563
2.21744
2.20449
2.18279
2.1594
2.14574
2.13816
2.13172
2.12749
2.1262
2.13268
2.14254
2.1424
2.13797
2.13396
2.129
2.12234
2.11425
2.10486
2.0935
2.08206
2.07182
2.05878
2.04381
2.02982
2.02234
2.01931
2.01752
2.0164
2.01718
2.01865
2.01897
2.01796
2.01501
2.0073
1.99588
1.98646
1.98148
1.97787
1.97516
1.97658
1.97976
1.97676
1.97151
1.96459
1.95323
1.93394
1.90863
1.89303
1.88795
1.88529
1.88253
1.87951
1.87692
1.87777
1.88758
1.89496
1.89236
1.88784
1.87978
1.86578
1.85071
1.83957
1.82887
1.81913
1.81502
1.81283
1.81083
1.80932
1.80943
1.81031
1.81165
1.81254
1.80999
1.80678
1.80368
1.79646
1.78163
1.76043
1.74717
1.74374
1.74171
1.73983
1.73827
1.73822
1.73749
1.73409
1.73047
1.72799
1.72684
1.72811
1.72813
1.72529
1.71866
1.70605
1.68505
1.66752
1.66257
1.66121
1.66062
1.66096
1.66062
1.65911
1.65842
1.65969
1.65883
1.65485
1.65089
1.64734
1.64085
1.62816
1.61001
1.59998
1.59774
1.59704
1.59645
1.5955
1.59476
1.59675
1.6013
1.60155
1.59837
1.59414
1.58824
1.5771
1.55771
1.54276
1.53922
1.53874
1.53798
1.53709
1.53667
1.53917
1.54325
1.54495
1.54439
1.545
1.54711
1.54412
2.37711
2.37026
2.36465
2.35837
2.35055
2.3416
2.33001
2.31266
2.2921
2.27927
2.27143
2.26554
2.26261
2.26174
2.25548
2.24724
2.23721
2.22258
2.20849
2.20039
2.19391
2.18854
2.18445
2.18066
2.17583
2.17019
2.16418
2.15776
2.1512
2.14395
2.13341
2.11671
2.09484
2.0757
2.06355
2.05561
2.04954
2.04478
2.04081
2.03671
2.03196
2.0251
2.01546
2.00896
2.00453
2.00072
1.9982
1.99415
1.98675
1.97721
1.96493
1.95075
1.93689
1.92362
1.91206
1.90468
1.90017
1.89682
1.89538
1.8945
1.89314
1.89188
1.8922
1.88972
1.88808
1.88733
1.87594
1.85749
1.84067
1.83627
1.84646
1.87197
1.91395
1.96831
2.02959
2.09357
2.15256
2.20821
2.26235
2.31292
2.36686
2.40959
2.42189
2.42275
2.41841
2.39962
2.38298
2.37165
2.36272
2.35587
2.35243
2.35073
2.34826
2.34243
2.33467
2.32552
2.31277
2.29876
2.2932
2.29004
2.29241
2.30989
2.32187
2.31814
2.31331
2.30758
2.29841
2.28625
2.27189
2.25296
2.22662
2.19918
2.18357
2.17767
2.17442
2.17224
2.17242
2.17964
2.1957
2.21108
2.21382
2.20761
2.19685
2.18003
2.15893
2.14129
2.12998
2.12297
2.11935
2.11825
2.12114
2.12872
2.13403
2.13232
2.12832
2.12357
2.11551
2.10388
2.09032
2.07643
2.06444
2.05649
2.04867
2.03846
2.02783
2.02033
2.01467
2.00989
2.00572
2.00285
2.00169
2.0027
2.00485
2.00401
1.99917
1.99149
1.98312
1.97754
1.97354
1.97149
1.97283
1.97202
1.96824
1.96417
1.95819
1.94794
1.92862
1.90202
1.88655
1.88183
1.87886
1.87535
1.8715
1.86847
1.8692
1.88041
1.8896
1.88717
1.88235
1.87382
1.85873
1.84202
1.82891
1.81919
1.81459
1.81271
1.81121
1.81007
1.80914
1.80761
1.80631
1.80599
1.80311
1.79925
1.79549
1.79146
1.78445
1.77127
1.75363
1.74406
1.74219
1.74126
1.74014
1.73778
1.73429
1.73045
1.72609
1.72177
1.71885
1.7174
1.71853
1.7179
1.71625
1.71287
1.70384
1.68472
1.66538
1.65894
1.65698
1.65516
1.65292
1.65029
1.64792
1.64664
1.64818
1.64892
1.64653
1.64443
1.64256
1.63844
1.62804
1.60936
1.59683
1.59319
1.59155
1.58989
1.58794
1.58652
1.58831
1.59277
1.59305
1.59068
1.5878
1.5818
1.56906
1.5499
1.53925
1.53702
1.53623
1.53573
1.53671
1.53933
1.54134
1.54163
1.53906
1.53634
1.53627
1.53429
2.38929
2.38304
2.37769
2.37131
2.36333
2.35396
2.34125
2.32369
2.30604
2.2938
2.28555
2.27968
2.27651
2.27094
2.2634
2.25527
2.24435
2.23018
2.21988
2.21241
2.20579
2.20083
2.19712
2.19122
2.18409
2.17675
2.16998
2.16393
2.15819
2.15182
2.14377
2.1319
2.11518
2.09714
2.08214
2.06996
2.05892
2.04928
2.0418
2.03643
2.0318
2.02663
2.01989
2.01447
2.01054
2.00744
2.00623
2.00314
1.99602
1.98744
1.97628
1.96224
1.94948
1.93932
1.92957
1.91926
1.91047
1.90454
1.89961
1.8952
1.89268
1.89058
1.88799
1.88553
1.88389
1.882
1.87894
1.87375
1.86373
1.84049
1.81409
1.80519
1.80134
1.80494
1.81567
1.83513
1.86695
1.91317
1.96997
2.03128
2.09841
2.16387
2.22213
2.29255
2.35212
2.36237
2.36577
2.36738
2.35645
2.33235
2.3228
2.32285
2.32624
2.33002
2.33067
2.32935
2.32111
2.30621
2.29256
2.28539
2.28217
2.28506
2.30178
2.31401
2.31142
2.30342
2.29343
2.28351
2.27219
2.25829
2.2407
2.21907
2.19734
2.18097
2.17123
2.16587
2.16293
2.16094
2.16212
2.17035
2.18605
2.19756
2.19651
2.18944
2.17889
2.16322
2.1437
2.12665
2.11801
2.11352
2.10935
2.10658
2.10943
2.11855
2.12443
2.12182
2.11694
2.10974
2.09737
2.07992
2.06334
2.05485
2.05051
2.04539
2.03698
2.02523
2.01391
2.00565
1.99906
1.99347
1.98976
1.98794
1.98809
1.99231
1.99612
1.99335
1.98808
1.98124
1.97529
1.9706
1.96794
1.96587
1.9616
1.95826
1.95552
1.95026
1.94009
1.9205
1.89378
1.88061
1.87682
1.87323
1.86866
1.86426
1.86156
1.86325
1.8748
1.8829
1.88057
1.87567
1.86724
1.85247
1.8349
1.82135
1.8143
1.81163
1.81036
1.80885
1.80696
1.804
1.80081
1.79896
1.79737
1.79412
1.79067
1.78691
1.7825
1.77567
1.76398
1.74749
1.73766
1.73518
1.73386
1.73221
1.72986
1.72636
1.72204
1.71712
1.7134
1.71148
1.7118
1.71293
1.71203
1.71103
1.70841
1.69971
1.67954
1.65993
1.65282
1.64979
1.64654
1.64289
1.63999
1.63772
1.63689
1.64002
1.64342
1.64438
1.6428
1.64053
1.63635
1.62484
1.60453
1.59154
1.58735
1.58516
1.5829
1.58048
1.57867
1.57983
1.58421
1.5848
1.58311
1.58117
1.57623
1.5649
1.54852
1.53856
1.5356
1.53449
1.53409
1.5354
1.53839
1.53799
1.5338
1.52913
1.52686
1.52497
2.40215
2.39675
2.39063
2.38268
2.37365
2.36246
2.34697
2.33065
2.32036
2.31184
2.30482
2.2996
2.29169
2.28201
2.27269
2.26179
2.2476
2.23689
2.23026
2.22446
2.21974
2.2156
2.20913
2.20145
2.19308
2.18385
2.17616
2.16954
2.16297
2.15635
2.14942
2.14087
2.12927
2.11624
2.10459
2.09302
2.07908
2.06221
2.04708
2.03731
2.03116
2.02723
2.02432
2.0207
2.01734
2.01511
2.01322
2.00847
2.00162
1.99397
1.98415
1.97182
1.96048
1.95129
1.94264
1.93329
1.92308
1.91371
1.90667
1.90116
1.89602
1.89129
1.88946
1.88991
1.88761
1.88513
1.88267
1.87906
1.87385
1.8635
1.84069
1.81135
1.79837
1.7928
1.78736
1.7833
1.78105
1.78253
1.79176
1.81223
1.84216
1.87939
1.92232
1.97987
2.04999
2.11369
2.1695
2.23561
2.27229
2.27655
2.27882
2.28109
2.27862
2.28103
2.29132
2.30668
2.30929
2.30372
2.29936
2.28908
2.27614
2.27117
2.27232
2.28102
2.29152
2.29566
2.2914
2.28169
2.26949
2.2567
2.24283
2.22767
2.21249
2.19797
2.1832
2.1686
2.15868
2.15376
2.1499
2.14744
2.14889
2.1597
2.17776
2.18593
2.18208
2.17531
2.16536
2.14974
2.13024
2.11477
2.10557
2.09853
2.09409
2.09318
2.09968
2.11153
2.1142
2.11027
2.10469
2.09487
2.07965
2.06456
2.05512
2.04854
2.04114
2.03092
2.0177
2.0047
1.99502
1.98854
1.98389
1.9801
1.97762
1.97708
1.97964
1.98621
1.98787
1.98347
1.97732
1.97145
1.96684
1.9624
1.95736
1.95302
1.94895
1.9458
1.94054
1.92936
1.90827
1.8848
1.87595
1.87211
1.86755
1.86214
1.85774
1.85557
1.85788
1.86809
1.87454
1.87311
1.87008
1.86485
1.85498
1.83729
1.8166
1.80413
1.79894
1.79675
1.79487
1.79319
1.79108
1.78912
1.79049
1.79246
1.79105
1.78819
1.78491
1.78077
1.77343
1.75747
1.73782
1.72923
1.7274
1.72586
1.72368
1.72105
1.71798
1.71388
1.70991
1.70809
1.71007
1.71073
1.70845
1.70685
1.70559
1.70217
1.69126
1.66887
1.65109
1.64491
1.64169
1.63821
1.63507
1.63285
1.63179
1.63447
1.64209
1.64422
1.64283
1.64068
1.63753
1.63089
1.61814
1.59852
1.58599
1.58132
1.57846
1.57578
1.57327
1.5715
1.57231
1.57738
1.57875
1.57819
1.57704
1.57244
1.5634
1.5495
1.538
1.53369
1.53209
1.53068
1.5305
1.5311
1.52747
1.52265
1.51909
1.51672
2.41596
2.40951
2.40152
2.39231
2.38171
2.36848
2.35273
2.34179
2.33423
2.32933
2.32599
2.31866
2.30841
2.29554
2.28052
2.26623
2.25434
2.24676
2.24066
2.23612
2.23308
2.2277
2.22038
2.21238
2.20318
2.19309
2.18367
2.17538
2.16751
2.15964
2.15224
2.14458
2.13625
2.12791
2.11994
2.11152
2.10126
2.08703
2.06689
2.04636
2.03425
2.0275
2.02278
2.01973
2.01972
2.02176
2.02032
2.01446
2.00744
1.99955
1.98953
1.97851
1.96917
1.96107
1.95309
1.94468
1.93496
1.92337
1.91292
1.90614
1.90091
1.89589
1.89087
1.8876
1.89094
1.89169
1.88724
1.88392
1.88138
1.87724
1.86816
1.8478
1.81595
1.79316
1.78489
1.78003
1.77623
1.77331
1.77124
1.77275
1.77545
1.77779
1.78277
1.79402
1.81434
1.84253
1.8744
1.9188
1.97213
2.02343
2.08005
2.13646
2.15855
2.17577
2.19996
2.22191
2.24611
2.2755
2.28633
2.28341
2.26824
2.26021
2.25671
2.25338
2.25564
2.26545
2.27287
2.2727
2.26916
2.26112
2.24565
2.22915
2.21688
2.20719
2.19677
2.18338
2.16722
2.15297
2.1438
2.13802
2.1348
2.13398
2.13985
2.15665
2.17248
2.17442
2.16979
2.1632
2.15118
2.13239
2.11157
2.09672
2.08821
2.08295
2.08045
2.08295
2.09446
2.10421
2.10347
2.09914
2.09339
2.0841
2.07043
2.05581
2.04353
2.03256
2.0208
2.00846
1.99753
1.98906
1.98245
1.97711
1.97286
1.97002
1.96896
1.96905
1.97234
1.97705
1.97712
1.9723
1.96732
1.9619
1.95567
1.95032
1.94534
1.94083
1.93584
1.92869
1.91554
1.89368
1.87699
1.87134
1.86683
1.86145
1.85574
1.85179
1.84993
1.85226
1.8629
1.86915
1.8692
1.86876
1.8656
1.85498
1.8313
1.80556
1.79355
1.78861
1.78625
1.78398
1.78135
1.77881
1.77944
1.78657
1.79298
1.79213
1.78921
1.78665
1.78185
1.76879
1.7444
1.72619
1.71983
1.71793
1.71617
1.71393
1.71164
1.70989
1.70762
1.70798
1.71136
1.70982
1.70696
1.70454
1.70221
1.6992
1.69314
1.67759
1.65393
1.64201
1.63849
1.6355
1.63235
1.62999
1.62911
1.63086
1.63393
1.63427
1.63316
1.63216
1.63093
1.62902
1.62318
1.61054
1.59197
1.58017
1.57534
1.57201
1.56941
1.56742
1.56636
1.56785
1.5722
1.57238
1.5721
1.57249
1.57027
1.56334
1.54943
1.53507
1.52897
1.52639
1.52448
1.52407
1.521
1.51605
1.51196
1.50979
2.43186
2.42341
2.4141
2.40307
2.3878
2.36883
2.35775
2.35057
2.34471
2.3438
2.34456
2.33759
2.32823
2.31467
2.29066
2.27032
2.26251
2.25626
2.25123
2.2483
2.24476
2.23787
2.22998
2.22129
2.21126
2.20128
2.19265
2.18476
2.1765
2.16683
2.15616
2.1461
2.13935
2.13364
2.12787
2.12147
2.11371
2.10343
2.0892
2.07076
2.05144
2.03717
2.029
2.02389
2.02055
2.02055
2.0216
2.01737
2.01128
2.00483
1.99693
1.98787
1.97942
1.97118
1.96265
1.95372
1.94397
1.93257
1.92038
1.91117
1.90512
1.90001
1.89501
1.8906
1.88829
1.89121
1.89179
1.88851
1.886
1.88314
1.87892
1.87097
1.85308
1.8222
1.79764
1.78656
1.77925
1.77317
1.76923
1.76815
1.76833
1.76594
1.76406
1.76366
1.76445
1.76791
1.77508
1.78317
1.79112
1.80041
1.81695
1.84803
1.88619
1.93446
1.98804
2.03221
2.07436
2.11838
2.15975
2.21028
2.23407
2.23511
2.23317
2.22912
2.22759
2.22951
2.23651
2.24711
2.25369
2.25107
2.24037
2.23334
2.2278
2.21833
2.20495
2.19187
2.17896
2.16484
2.14867
2.13565
2.12972
2.12718
2.12543
2.12584
2.13466
2.15146
2.16314
2.16203
2.15563
2.14597
2.13019
2.10841
2.08915
2.07914
2.07274
2.06844
2.06768
2.07376
2.08543
2.09333
2.09323
2.08865
2.07938
2.06565
2.04795
2.03193
2.01964
2.01009
2.00283
1.99689
1.99086
1.98385
1.97575
1.96846
1.96412
1.96202
1.96046
1.95968
1.96163
1.96439
1.96564
1.96256
1.95655
1.95162
1.94563
1.93908
1.93273
1.92498
1.91456
1.89753
1.87863
1.87042
1.86607
1.86101
1.85493
1.84958
1.84668
1.84604
1.84906
1.85948
1.86935
1.86984
1.86659
1.8597
1.84579
1.82007
1.7952
1.78429
1.77923
1.7766
1.77405
1.77135
1.77022
1.77472
1.78614
1.79296
1.7911
1.78809
1.78419
1.77609
1.75779
1.73177
1.71667
1.71135
1.70929
1.70716
1.70449
1.70225
1.70444
1.71033
1.71267
1.7098
1.70635
1.70314
1.69978
1.69617
1.69151
1.68239
1.6632
1.64357
1.63703
1.63434
1.63151
1.62881
1.62739
1.62882
1.63178
1.6301
1.62773
1.62594
1.62408
1.62201
1.61979
1.61456
1.60305
1.58651
1.57524
1.56971
1.56621
1.56381
1.56213
1.56127
1.56317
1.56807
1.56966
1.5705
1.57029
1.56813
1.56141
1.54544
1.5292
1.52301
1.51998
1.51719
1.51447
1.51004
1.50592
1.5039
2.44594
2.4366
2.42584
2.41187
2.39345
2.37586
2.36583
2.35905
2.3545
2.35635
2.35724
2.34946
2.3403
2.32829
2.30864
2.28807
2.27667
2.2698
2.26435
2.26064
2.25498
2.24675
2.23807
2.22821
2.21692
2.20658
2.19853
2.19148
2.18422
2.17497
2.1626
2.15376
2.14744
2.14147
2.13548
2.12896
2.12174
2.11297
2.10178
2.0886
2.07462
2.06004
2.04572
2.0354
2.02943
2.02546
2.02147
2.01634
2.01106
2.00601
2.00122
1.99594
1.98996
1.98322
1.97518
1.96515
1.95303
1.93958
1.92655
1.91643
1.90973
1.90483
1.90019
1.89552
1.89149
1.89029
1.89205
1.88954
1.88631
1.88462
1.88236
1.87825
1.87066
1.85449
1.8268
1.80331
1.79195
1.78379
1.77621
1.7711
1.76671
1.76221
1.75917
1.75769
1.75664
1.75605
1.75606
1.75931
1.76544
1.76799
1.76496
1.75858
1.75129
1.74601
1.75417
1.77446
1.80802
1.85268
1.90027
1.95729
2.01717
2.06914
2.12142
2.16343
2.17428
2.1825
2.19193
2.2002
2.20749
2.21852
2.22538
2.22757
2.22705
2.21721
2.20398
2.19684
2.18744
2.17384
2.16066
2.14826
2.13634
2.12702
2.12215
2.11841
2.11567
2.11703
2.12818
2.14454
2.14996
2.14518
2.13612
2.12373
2.10533
2.08505
2.07089
2.06207
2.05604
2.05389
2.05446
2.06114
2.07165
2.07829
2.07637
2.06688
2.0514
2.03115
2.01466
2.00639
2.00213
1.99869
1.99516
1.99146
1.98612
1.97741
1.96643
1.95872
1.95447
1.95083
1.94781
1.94576
1.94702
1.95302
1.95545
1.9516
1.94736
1.94232
1.93554
1.92584
1.91303
1.89542
1.8768
1.86837
1.86482
1.86096
1.85587
1.85053
1.84628
1.84403
1.84334
1.844
1.84903
1.85585
1.85734
1.85504
1.84869
1.8351
1.8122
1.78821
1.77704
1.77257
1.77023
1.76803
1.76664
1.76851
1.77297
1.77861
1.78365
1.78435
1.78154
1.77596
1.76611
1.7486
1.72427
1.70943
1.7048
1.7026
1.70028
1.69773
1.69685
1.70115
1.70844
1.70956
1.7058
1.70181
1.69796
1.6939
1.68948
1.68334
1.67148
1.65187
1.63905
1.63596
1.63366
1.63082
1.62793
1.62613
1.62589
1.62411
1.62167
1.61998
1.61839
1.61636
1.614
1.6117
1.60662
1.59545
1.58107
1.57001
1.56283
1.55905
1.55695
1.55549
1.55509
1.55966
1.5677
1.56956
1.56937
1.56843
1.56583
1.55703
1.53714
1.52173
1.5163
1.51268
1.50938
1.50568
1.50212
1.49908
2.46022
2.45068
2.4379
2.41829
2.39658
2.38498
2.37713
2.37053
2.36649
2.36786
2.36549
2.35677
2.34754
2.33632
2.32065
2.3069
2.29798
2.29147
2.2854
2.2769
2.26696
2.25695
2.24693
2.2361
2.22445
2.21314
2.20355
2.19583
2.18834
2.17929
2.16926
2.16191
2.15617
2.1508
2.14461
2.13771
2.13021
2.12118
2.10992
2.09853
2.08901
2.07972
2.06793
2.05312
2.04004
2.03118
2.02489
2.0195
2.01453
2.00976
2.00526
2.00149
1.99729
1.99221
1.98612
1.97798
1.96549
1.94903
1.93363
1.92265
1.91529
1.91022
1.90591
1.90153
1.89717
1.89339
1.89151
1.89013
1.88699
1.88483
1.8836
1.88112
1.87706
1.8705
1.85644
1.82991
1.80507
1.79278
1.78548
1.77904
1.77253
1.76644
1.76186
1.75859
1.75555
1.7534
1.75241
1.75254
1.75409
1.75645
1.75845
1.75532
1.75213
1.74671
1.72775
1.70553
1.69482
1.6954
1.70335
1.72212
1.75217
1.79057
1.83583
1.89216
1.95046
2.00448
2.05166
2.08914
2.11975
2.14983
2.18589
2.20675
2.20602
2.19661
2.19012
2.18664
2.17941
2.16643
2.16212
2.1575
2.15103
2.14298
2.13238
2.11902
2.11148
2.10918
2.10695
2.11017
2.1227
2.13229
2.13171
2.12508
2.11564
2.10207
2.083
2.06367
2.05171
2.04647
2.04463
2.04392
2.04593
2.05301
2.05981
2.05825
2.05056
2.03411
2.01443
2.00367
1.99796
1.99428
1.99313
1.9918
1.98864
1.984
1.97647
1.96439
1.95319
1.94618
1.94003
1.93566
1.93206
1.93068
1.93591
1.94407
1.94461
1.94187
1.9382
1.93236
1.92162
1.90384
1.88069
1.86666
1.86169
1.85821
1.8558
1.8538
1.84967
1.84456
1.84136
1.83916
1.83738
1.83739
1.83905
1.84035
1.83998
1.83675
1.82702
1.80825
1.78522
1.77267
1.76907
1.76706
1.76606
1.76738
1.76907
1.76852
1.76726
1.7675
1.76816
1.7674
1.76497
1.75746
1.74242
1.71922
1.70409
1.70008
1.69813
1.69625
1.69448
1.69429
1.69609
1.69988
1.70182
1.70006
1.69636
1.69208
1.68827
1.68442
1.67776
1.66247
1.64139
1.63136
1.62814
1.62507
1.62181
1.61988
1.61918
1.6183
1.61631
1.61466
1.61367
1.61193
1.60951
1.60696
1.60418
1.59837
1.58613
1.57145
1.56126
1.55578
1.55308
1.5514
1.55049
1.55238
1.56058
1.56903
1.57006
1.56897
1.56682
1.56157
1.5485
1.52685
1.51446
1.5094
1.5057
1.50233
1.4993
1.4954
2.47132
2.45955
2.44415
2.42601
2.40977
2.39902
2.391
2.38445
2.38029
2.37629
2.3675
2.35816
2.3496
2.34054
2.32997
2.32271
2.31804
2.31296
2.30568
2.29602
2.28344
2.26925
2.25688
2.24622
2.23597
2.22527
2.21339
2.20048
2.18856
2.17835
2.17234
2.16751
2.16294
2.15865
2.15309
2.1469
2.14036
2.13229
2.12086
2.10828
2.09996
2.09342
2.0856
2.07422
2.05688
2.03806
2.02637
2.01971
2.01543
2.01255
2.0111
2.01015
2.00676
2.00206
1.99612
1.98875
1.97762
1.95987
1.94136
1.92887
1.9204
1.91456
1.91047
1.90698
1.90324
1.89883
1.89437
1.89029
1.88697
1.88435
1.88299
1.88308
1.88148
1.87747
1.87124
1.85906
1.83592
1.8094
1.79414
1.7849
1.77689
1.77101
1.76724
1.76428
1.76131
1.75857
1.75681
1.75568
1.75421
1.75368
1.75509
1.75548
1.75203
1.74681
1.7388
1.72401
1.70245
1.68254
1.67354
1.66754
1.66431
1.66564
1.67042
1.68318
1.70684
1.73883
1.78177
1.8354
1.89545
1.95201
2.01148
2.07236
2.11087
2.13809
2.15275
2.15078
2.14265
2.14258
2.14755
2.14784
2.14365
2.14377
2.14261
2.13399
2.12065
2.10959
2.10213
2.09579
2.09432
2.1011
2.11392
2.1184
2.11353
2.10707
2.09726
2.08162
2.06184
2.04678
2.04123
2.03952
2.03912
2.03977
2.04453
2.04824
2.04527
2.0384
2.02656
2.0113
1.99878
1.99004
1.98332
1.98106
1.9827
1.98262
1.97859
1.9717
1.96101
1.94781
1.93701
1.92988
1.92531
1.92069
1.91721
1.91928
1.92574
1.93213
1.93409
1.93239
1.92735
1.91919
1.90308
1.87889
1.86302
1.85778
1.85439
1.85413
1.85261
1.8476
1.8418
1.83619
1.83058
1.82675
1.82491
1.82431
1.82551
1.8279
1.82633
1.81923
1.80656
1.78863
1.7748
1.77034
1.76828
1.76732
1.767
1.76448
1.76013
1.75654
1.75484
1.75488
1.75537
1.75423
1.74875
1.73651
1.7154
1.70063
1.69711
1.69547
1.69371
1.69245
1.69203
1.69151
1.69198
1.69232
1.69084
1.68928
1.68775
1.68497
1.68068
1.6709
1.64954
1.63084
1.62494
1.62189
1.61838
1.61477
1.61279
1.61216
1.6112
1.60958
1.60886
1.60812
1.60642
1.60411
1.60103
1.59619
1.58721
1.57383
1.56171
1.55421
1.55043
1.54887
1.54828
1.54985
1.553
1.55597
1.55875
1.56069
1.56068
1.55931
1.55334
1.53871
1.51909
1.50791
1.50288
1.49955
1.49703
1.49314
2.48488
2.46994
2.4456
2.42861
2.42106
2.41353
2.40796
2.40557
2.39919
2.38817
2.37619
2.36203
2.34682
2.33843
2.33377
2.33151
2.33115
2.32787
2.32151
2.31346
2.30188
2.28483
2.26922
2.2585
2.24901
2.23934
2.22878
2.21386
2.1935
2.18041
2.17397
2.16892
2.16474
2.16211
2.15911
2.15424
2.14876
2.14272
2.13447
2.1232
2.11322
2.10631
2.09956
2.09094
2.07815
2.05855
2.03653
2.02276
2.01542
2.01039
2.00679
2.00734
2.01196
2.00998
2.00384
1.99702
1.98826
1.97534
1.9581
1.94127
1.92845
1.91946
1.9134
1.90893
1.90518
1.9014
1.89695
1.89241
1.88857
1.88608
1.88402
1.88201
1.88046
1.87916
1.87595
1.8707
1.86082
1.84022
1.81294
1.79567
1.78554
1.77617
1.76874
1.76395
1.76062
1.7578
1.75567
1.75577
1.75904
1.76002
1.75906
1.75786
1.75514
1.75182
1.74755
1.73973
1.72369
1.69774
1.67506
1.66464
1.65965
1.65501
1.64961
1.64481
1.64302
1.64373
1.64821
1.65989
1.67989
1.70961
1.75126
1.80113
1.85646
1.91959
1.98495
2.03115
2.05023
2.06595
2.0815
2.08977
2.10012
2.11783
2.12637
2.12577
2.12175
2.11794
2.10762
2.09071
2.08253
2.08083
2.0851
2.09978
2.11168
2.10915
2.10109
2.09312
2.08316
2.06915
2.05283
2.0412
2.03715
2.03601
2.03574
2.04031
2.04185
2.03882
2.03394
2.02554
2.0112
1.99419
1.98177
1.97384
1.9695
1.96894
1.971
1.96964
1.96426
1.95605
1.94368
1.9298
1.9215
1.91661
1.9117
1.90726
1.90526
1.90707
1.91331
1.9216
1.92477
1.92202
1.91593
1.90333
1.88091
1.86241
1.85602
1.85333
1.8525
1.84741
1.84112
1.83447
1.82709
1.82033
1.81685
1.81547
1.81459
1.81486
1.81784
1.81753
1.81296
1.80457
1.79022
1.77557
1.77018
1.76734
1.76435
1.7608
1.75624
1.75148
1.74806
1.74618
1.7456
1.74486
1.74411
1.7404
1.7305
1.71302
1.69961
1.69617
1.69417
1.69206
1.69075
1.68882
1.68592
1.68482
1.68401
1.68235
1.68163
1.68165
1.67964
1.6738
1.6607
1.63848
1.62368
1.61804
1.61417
1.61065
1.60797
1.60623
1.60544
1.60502
1.60505
1.60507
1.6037
1.60097
1.59725
1.59248
1.58662
1.57808
1.56757
1.55728
1.55098
1.54882
1.54837
1.55013
1.55053
1.5501
1.55057
1.55135
1.55125
1.55021
1.54859
1.54309
1.53087
1.514
1.5024
1.49764
1.49544
1.4915
2.49287
2.47573
2.45581
2.44136
2.43311
2.42755
2.42606
2.42356
2.4149
2.40431
2.3891
2.36764
2.35179
2.34432
2.33915
2.33674
2.3387
2.33721
2.33092
2.3234
2.31371
2.2993
2.28393
2.27213
2.26243
2.25311
2.24243
2.22813
2.20902
2.19041
2.17882
2.17152
2.16602
2.16179
2.15881
2.15586
2.15211
2.14774
2.14291
2.13679
2.12906
2.12093
2.1124
2.10287
2.09165
2.07751
2.05959
2.04014
2.02464
2.01557
2.01039
2.00672
2.00491
2.00582
2.00436
1.99945
1.99316
1.98502
1.97537
1.9645
1.95175
1.93675
1.92226
1.91318
1.90776
1.90379
1.90023
1.89597
1.89099
1.88639
1.88265
1.88089
1.88176
1.88247
1.88099
1.87772
1.87279
1.86406
1.84477
1.81416
1.79259
1.78258
1.7751
1.76848
1.76377
1.76083
1.75873
1.75701
1.75554
1.75422
1.75259
1.75217
1.75481
1.75509
1.75184
1.74739
1.74032
1.72647
1.70101
1.67387
1.65937
1.65223
1.64669
1.64174
1.6381
1.63556
1.63364
1.63197
1.63068
1.63128
1.63658
1.64627
1.66012
1.68284
1.71648
1.75769
1.81383
1.87391
1.9179
1.94684
1.97166
2.00034
2.02899
2.0614
2.08914
2.09845
2.09693
2.08395
2.0728
2.06861
2.06787
2.07053
2.0794
2.09129
2.10099
2.10024
2.09355
2.08357
2.07155
2.05733
2.04135
2.03295
2.03119
2.03101
2.03704
2.03764
2.03428
2.03007
2.02328
2.01061
1.99164
1.97416
1.96356
1.95721
1.95496
1.95561
1.95823
1.95579
1.95022
1.94079
1.92611
1.9151
1.90942
1.90423
1.89881
1.89449
1.89306
1.89632
1.90569
1.91469
1.91521
1.91005
1.8994
1.87922
1.85992
1.85253
1.84848
1.84459
1.83911
1.83316
1.82577
1.8179
1.81301
1.81096
1.80993
1.80916
1.8096
1.81187
1.81126
1.80767
1.80045
1.78624
1.77036
1.76399
1.7609
1.75739
1.75319
1.7485
1.74424
1.74183
1.74039
1.73834
1.73581
1.73443
1.732
1.72411
1.70974
1.69866
1.69529
1.69273
1.69023
1.68787
1.68457
1.68225
1.68023
1.67804
1.67567
1.67403
1.6726
1.67053
1.66456
1.64973
1.62828
1.61653
1.61148
1.60777
1.60555
1.60386
1.60159
1.59952
1.59904
1.59945
1.59928
1.59783
1.59445
1.58935
1.58461
1.57994
1.57319
1.56395
1.55592
1.55358
1.55313
1.55129
1.54853
1.54618
1.54405
1.54306
1.54187
1.54061
1.53967
1.53838
1.53423
1.52459
1.51036
1.49929
1.49462
1.48841
2.50097
2.47597
2.4618
2.45416
2.44719
2.44322
2.44392
2.4392
2.42937
2.41833
2.40241
2.3797
2.36186
2.35235
2.34605
2.34323
2.34484
2.34072
2.33404
2.3274
2.31951
2.30896
2.29726
2.28697
2.27724
2.26667
2.25438
2.24056
2.22546
2.20942
2.19399
2.18124
2.17176
2.16447
2.15834
2.15366
2.15097
2.14913
2.14681
2.14366
2.13939
2.13334
2.12466
2.11294
2.09959
2.0872
2.07549
2.06328
2.04955
2.03458
2.02187
2.01324
2.00742
2.00277
1.99793
1.99352
1.99
1.98693
1.98237
1.97713
1.97073
1.96181
1.94744
1.92718
1.91201
1.90487
1.90017
1.89599
1.89257
1.88908
1.88541
1.88186
1.87937
1.88103
1.88451
1.88237
1.87815
1.87317
1.86466
1.84586
1.81425
1.7924
1.78413
1.77774
1.77085
1.76525
1.76164
1.75888
1.75695
1.75562
1.75389
1.75165
1.74975
1.75155
1.75577
1.7528
1.74692
1.7391
1.72548
1.70083
1.67397
1.65984
1.65246
1.64597
1.63914
1.63379
1.63044
1.62817
1.62646
1.62529
1.62372
1.62155
1.62025
1.6215
1.62549
1.63138
1.64225
1.65946
1.68131
1.71544
1.75835
1.79181
1.82472
1.86353
1.90672
1.94835
1.99831
2.03593
2.0522
2.05461
2.04449
2.03995
2.04146
2.05058
2.06982
2.08612
2.08711
2.08267
2.07588
2.06546
2.04952
2.03132
2.02193
2.01936
2.02055
2.02869
2.03194
2.02908
2.02403
2.01776
2.00716
1.98893
1.96714
1.95234
1.94562
1.94249
1.94166
1.94584
1.94733
1.94342
1.93629
1.92445
1.91201
1.90361
1.8973
1.89145
1.88623
1.88378
1.88405
1.88922
1.89864
1.90354
1.90037
1.88997
1.87112
1.85292
1.8446
1.83888
1.83509
1.83131
1.82622
1.81955
1.81231
1.80884
1.80784
1.80745
1.80751
1.80842
1.80674
1.80377
1.79988
1.79142
1.77513
1.76064
1.75499
1.75238
1.7494
1.74547
1.74145
1.73916
1.73771
1.73478
1.73153
1.72827
1.72574
1.72333
1.71637
1.70407
1.69596
1.69293
1.69054
1.68735
1.68371
1.68057
1.67756
1.67476
1.67208
1.66965
1.66745
1.66496
1.66204
1.65517
1.63976
1.6207
1.61176
1.60851
1.6064
1.60318
1.59929
1.59531
1.59156
1.5898
1.5889
1.5884
1.58816
1.58752
1.58631
1.5837
1.5793
1.57341
1.5662
1.55882
1.55397
1.55118
1.54819
1.5435
1.53785
1.53453
1.53371
1.53262
1.53161
1.53075
1.52949
1.52608
1.51903
1.50697
1.49616
1.48612
2.50624
2.48861
2.47592
2.46807
2.46261
2.46043
2.45691
2.44793
2.43775
2.42571
2.41048
2.39488
2.38318
2.37354
2.36474
2.35888
2.35157
2.34253
2.33513
2.32846
2.32117
2.31444
2.30763
2.29979
2.29047
2.27937
2.26543
2.25016
2.23718
2.22619
2.21528
2.20313
2.18927
2.17502
2.16324
2.15536
2.15012
2.14622
2.14431
2.14425
2.14273
2.13841
2.13206
2.12221
2.10748
2.09428
2.08593
2.0788
2.07086
2.06051
2.04586
2.02755
2.01302
2.0043
1.99809
1.99284
1.98796
1.98443
1.98438
1.9838
1.97959
1.97424
1.96677
1.95329
1.93144
1.91325
1.9046
1.89903
1.89407
1.88922
1.88455
1.88126
1.88078
1.88205
1.88354
1.88271
1.87994
1.87703
1.87279
1.86497
1.84695
1.81634
1.79451
1.78631
1.78038
1.7738
1.76661
1.76057
1.75676
1.7541
1.75165
1.74943
1.74751
1.74582
1.74661
1.75061
1.7487
1.74318
1.73666
1.72479