/*--------------------------------*- C++ -*----------------------------------*\
  =========                 |
  \\      /  F ield         | OpenFOAM: The Open Source CFD Toolbox
   \\    /   O peration     | Website:  https://openfoam.org
    \\  /    A nd           | Version:  7
     \\/     M anipulation  |
\*---------------------------------------------------------------------------*/
FoamFile
{
    version     2.0;
    format      ascii;
    class       volVectorField;
    location    "1.6";
    object      U;
}
// * * * * * * * * * * * * * * * * * * * * * * * * * * * * * * * * * * * * * //

dimensions      [0 1 -1 0 0 0 0];

internalField   nonuniform List<vector> 
16192
(
(-0.457287 0.0184904 0)
(-0.546037 0.0199539 0)
(-0.64584 0.0201772 0)
(-0.751426 0.018897 0)
(-0.857139 0.0161276 0)
(-0.960726 0.012525 0)
(-1.06426 0.00878625 0)
(-1.17648 0.00578436 0)
(-1.32151 0.00515955 0)
(-1.47421 0.00764784 0)
(-1.54045 0.0127444 0)
(-1.54198 0.0133295 0)
(-1.49455 0.0124945 0)
(-1.4171 0.00719343 0)
(-1.32255 0.00145641 0)
(-1.20325 -0.0187914 0)
(-1.05957 -0.040345 0)
(-0.870948 -0.0434437 0)
(-0.643945 -0.0586516 0)
(-0.392144 -0.0683265 0)
(-0.116143 -0.0698964 0)
(-0.447316 0.0562189 0)
(-0.536535 0.061217 0)
(-0.636456 0.0627137 0)
(-0.742366 0.0601767 0)
(-0.848324 0.0529472 0)
(-0.95206 0.042314 0)
(-1.05577 0.0298744 0)
(-1.16777 0.0174137 0)
(-1.31011 0.0100835 0)
(-1.45928 0.0178635 0)
(-1.52306 0.0342476 0)
(-1.52619 0.0412564 0)
(-1.48164 0.0434394 0)
(-1.40707 0.0301351 0)
(-1.31157 0.0118266 0)
(-1.185 -0.0152934 0)
(-1.02987 -0.052574 0)
(-0.845689 -0.10782 0)
(-0.623868 -0.150578 0)
(-0.382867 -0.185885 0)
(-0.113144 -0.193256 0)
(-0.426974 0.0944914 0)
(-0.515218 0.102038 0)
(-0.614345 0.10481 0)
(-0.719086 0.100054 0)
(-0.82348 0.0873832 0)
(-0.926726 0.0696872 0)
(-1.03055 0.0494511 0)
(-1.14198 0.0298727 0)
(-1.27769 0.0168137 0)
(-1.41896 0.0246062 0)
(-1.48028 0.0477539 0)
(-1.48712 0.0589805 0)
(-1.44915 0.0626602 0)
(-1.38222 0.0404312 0)
(-1.28782 0.00261347 0)
(-1.17176 -0.0535064 0)
(-1.01682 -0.114923 0)
(-0.828722 -0.184695 0)
(-0.618398 -0.255113 0)
(-0.380867 -0.311785 0)
(-0.11168 -0.324884 0)
(-0.389699 0.129478 0)
(-0.477478 0.140696 0)
(-0.574332 0.144613 0)
(-0.676539 0.13647 0)
(-0.779873 0.120458 0)
(-0.882064 0.0978359 0)
(-0.984283 0.0707432 0)
(-1.09298 0.0444033 0)
(-1.21991 0.026431 0)
(-1.35361 0.0363946 0)
(-1.41821 0.0665025 0)
(-1.42802 0.0826033 0)
(-1.39562 0.0877415 0)
(-1.33388 0.0645659 0)
(-1.23302 0.017529 0)
(-1.11493 -0.0568419 0)
(-0.957033 -0.15073 0)
(-0.77717 -0.255619 0)
(-0.575151 -0.351222 0)
(-0.357515 -0.433316 0)
(-0.103332 -0.453597 0)
(-0.341712 0.168531 0)
(-0.42735 0.180816 0)
(-0.519679 0.184299 0)
(-0.61856 0.176348 0)
(-0.71745 0.154975 0)
(-0.815771 0.126795 0)
(-0.914672 0.0944675 0)
(-1.01931 0.0630999 0)
(-1.13686 0.0405786 0)
(-1.25957 0.0459259 0)
(-1.32765 0.0743645 0)
(-1.33681 0.0886456 0)
(-1.30948 0.0902889 0)
(-1.24869 0.0575682 0)
(-1.14958 -0.00830339 0)
(-1.03049 -0.0972135 0)
(-0.882512 -0.208544 0)
(-0.706351 -0.327466 0)
(-0.517745 -0.446588 0)
(-0.325529 -0.549574 0)
(-0.092694 -0.579 0)
(-0.273878 0.198246 0)
(-0.358473 0.213227 0)
(-0.446483 0.219092 0)
(-0.539157 0.207344 0)
(-0.633199 0.184354 0)
(-0.72682 0.153194 0)
(-0.82091 0.117098 0)
(-0.920305 0.083 0)
(-1.0278 0.0589226 0)
(-1.13743 0.0631398 0)
(-1.20761 0.0914314 0)
(-1.21524 0.106161 0)
(-1.19253 0.10692 0)
(-1.12505 0.0703559 0)
(-1.03445 -0.00920322 0)
(-0.917366 -0.117556 0)
(-0.784564 -0.258262 0)
(-0.630194 -0.407445 0)
(-0.448645 -0.539056 0)
(-0.284301 -0.658586 0)
(-0.0789622 -0.698052 0)
(-0.196149 0.239474 0)
(-0.278119 0.255318 0)
(-0.358804 0.256181 0)
(-0.445591 0.247786 0)
(-0.531422 0.219053 0)
(-0.618372 0.18412 0)
(-0.705802 0.145037 0)
(-0.798312 0.108937 0)
(-0.894972 0.0813796 0)
(-0.989519 0.0783275 0)
(-1.05707 0.0926706 0)
(-1.06637 0.101218 0)
(-1.0458 0.0928599 0)
(-0.980006 0.0459649 0)
(-0.898585 -0.0393858 0)
(-0.790884 -0.156959 0)
(-0.666512 -0.308053 0)
(-0.539129 -0.479499 0)
(-0.377192 -0.631507 0)
(-0.23967 -0.760559 0)
(-0.0649265 -0.808211 0)
(-0.100152 0.265025 0)
(-0.175052 0.278141 0)
(-0.253053 0.286597 0)
(-0.330958 0.268885 0)
(-0.411074 0.243812 0)
(-0.490812 0.207325 0)
(-0.570469 0.165792 0)
(-0.654942 0.129189 0)
(-0.741026 0.101584 0)
(-0.822482 0.09517 0)
(-0.884606 0.104613 0)
(-0.89802 0.11481 0)
(-0.876198 0.101314 0)
(-0.81982 0.0417267 0)
(-0.744987 -0.0549387 0)
(-0.655514 -0.192206 0)
(-0.540083 -0.359475 0)
(-0.444036 -0.550613 0)
(-0.301573 -0.716985 0)
(-0.195144 -0.854779 0)
(-0.0515998 -0.908499 0)
(0.00377836 0.301272 0)
(-0.0622387 0.322046 0)
(-0.134058 0.320501 0)
(-0.206665 0.311908 0)
(-0.276974 0.276648 0)
(-0.350456 0.238862 0)
(-0.422237 0.196422 0)
(-0.498625 0.159084 0)
(-0.57408 0.128726 0)
(-0.644897 0.1166 0)
(-0.698298 0.107748 0)
(-0.716488 0.107941 0)
(-0.699351 0.0789168 0)
(-0.656087 0.0137645 0)
(-0.587468 -0.0835539 0)
(-0.519719 -0.22643 0)
(-0.41397 -0.401282 0)
(-0.348463 -0.609399 0)
(-0.228047 -0.794662 0)
(-0.151992 -0.939349 0)
(-0.0393636 -0.998308 0)
(0.119154 0.317641 0)
(0.0671782 0.339515 0)
(0.000698648 0.343755 0)
(-0.063215 0.325118 0)
(-0.129462 0.298897 0)
(-0.196276 0.25666 0)
(-0.261533 0.211631 0)
(-0.33172 0.176071 0)
(-0.398034 0.145047 0)
(-0.461964 0.131484 0)
(-0.50875 0.117056 0)
(-0.531622 0.117532 0)
(-0.519272 0.0839439 0)
(-0.493397 0.00914387 0)
(-0.433019 -0.102185 0)
(-0.391058 -0.262626 0)
(-0.300717 -0.450048 0)
(-0.263412 -0.66797 0)
(-0.160221 -0.865121 0)
(-0.113706 -1.01578 0)
(-0.0286274 -1.07854 0)
(0.233752 0.34443 0)
(0.195004 0.376985 0)
(0.143083 0.382846 0)
(0.0857284 0.366481 0)
(0.0269064 0.331994 0)
(-0.0366266 0.294784 0)
(-0.096331 0.249365 0)
(-0.161382 0.211497 0)
(-0.219976 0.175758 0)
(-0.279825 0.157355 0)
(-0.321172 0.130423 0)
(-0.352355 0.111693 0)
(-0.344613 0.0666079 0)
(-0.339296 -0.0133472 0)
(-0.29162 -0.122835 0)
(-0.270908 -0.279578 0)
(-0.196937 -0.474292 0)
(-0.185614 -0.705801 0)
(-0.09942 -0.921695 0)
(-0.0811122 -1.08296 0)
(-0.0195386 -1.15068 0)
(0.346563 0.343804 0)
(0.324559 0.381571 0)
(0.290201 0.39533 0)
(0.245611 0.383042 0)
(0.193433 0.350492 0)
(0.13489 0.304917 0)
(0.0782503 0.258654 0)
(0.0148963 0.223905 0)
(-0.0396543 0.188301 0)
(-0.0989707 0.170916 0)
(-0.138583 0.138901 0)
(-0.178613 0.124298 0)
(-0.180429 0.0760325 0)
(-0.191867 -0.00499437 0)
(-0.162177 -0.132623 0)
(-0.164356 -0.306615 0)
(-0.111118 -0.511594 0)
(-0.122818 -0.745463 0)
(-0.0517475 -0.970018 0)
(-0.0567696 -1.14072 0)
(-0.0119467 -1.21335 0)
(0.454265 0.367517 0)
(0.443824 0.407199 0)
(0.42477 0.424569 0)
(0.396334 0.420298 0)
(0.356459 0.392621 0)
(0.303794 0.354909 0)
(0.250372 0.307181 0)
(0.188558 0.268783 0)
(0.13752 0.22581 0)
(0.0780657 0.20266 0)
(0.0380003 0.163526 0)
(-0.00981399 0.132139 0)
(-0.0246068 0.0730766 0)
(-0.052384 -0.011157 0)
(-0.0428003 -0.135026 0)
(-0.066612 -0.2977 0)
(-0.0304036 -0.511504 0)
(-0.0658518 -0.761217 0)
(-0.0175096 -1.00912 0)
(-0.0424712 -1.19439 0)
(-0.00808425 -1.27361 0)
(0.56926 0.360896 0)
(0.556633 0.400083 0)
(0.547872 0.422209 0)
(0.536948 0.422791 0)
(0.513898 0.401694 0)
(0.473758 0.366398 0)
(0.427275 0.31954 0)
(0.368189 0.281898 0)
(0.317622 0.239263 0)
(0.25638 0.21525 0)
(0.213069 0.174217 0)
(0.155762 0.14827 0)
(0.125495 0.0889521 0)
(0.0807059 0.00481698 0)
(0.068989 -0.12895 0)
(0.0231327 -0.301232 0)
(0.0386242 -0.517762 0)
(-0.0206757 -0.754811 0)
(0.0091236 -1.00575 0)
(-0.0305285 -1.19921 0)
(-0.00177767 -1.281 0)
(0.690834 0.413864 0)
(0.663523 0.428436 0)
(0.658995 0.443665 0)
(0.654993 0.451097 0)
(0.644455 0.439084 0)
(0.618979 0.41129 0)
(0.584728 0.367358 0)
(0.533328 0.328677 0)
(0.486703 0.282689 0)
(0.425116 0.25729 0)
(0.379025 0.21274 0)
(0.315176 0.177955 0)
(0.272617 0.110126 0)
(0.211457 0.0232121 0)
(0.176549 -0.111149 0)
(0.106555 -0.273891 0)
(0.100438 -0.492504 0)
(0.0185848 -0.733578 0)
(0.0307701 -0.994654 0)
(-0.0229951 -1.18988 0)
(0.00119651 -1.2754 0)
(0.8688 0.422233 0)
(0.79125 0.423003 0)
(0.767622 0.437644 0)
(0.761404 0.444547 0)
(0.760283 0.432453 0)
(0.748099 0.411957 0)
(0.727418 0.375549 0)
(0.687384 0.340712 0)
(0.647648 0.29534 0)
(0.589047 0.267464 0)
(0.541594 0.221626 0)
(0.471013 0.191708 0)
(0.416665 0.126508 0)
(0.33689 0.0449922 0)
(0.278197 -0.0852397 0)
(0.188145 -0.250595 0)
(0.15942 -0.470361 0)
(0.0538304 -0.697833 0)
(0.0469454 -0.95948 0)
(-0.0188576 -1.16323 0)
(0.00445301 -1.25625 0)
(1.0402 0.539023 0)
(0.921112 0.499946 0)
(0.872913 0.476066 0)
(0.859618 0.471399 0)
(0.858673 0.461609 0)
(0.852078 0.447518 0)
(0.840664 0.416193 0)
(0.810949 0.386693 0)
(0.780352 0.344728 0)
(0.728652 0.317561 0)
(0.682651 0.271852 0)
(0.60973 0.239014 0)
(0.548763 0.169429 0)
(0.449778 0.0887809 0)
(0.374948 -0.0465652 0)
(0.261375 -0.203526 0)
(0.205712 -0.41911 0)
(0.0787596 -0.643941 0)
(0.0639755 -0.915677 0)
(-0.0129236 -1.12685 0)
(0.00676278 -1.22556 0)
(1.23979 0.610232 0)
(1.10874 0.522787 0)
(1.01854 0.479001 0)
(0.972178 0.470507 0)
(0.958387 0.454892 0)
(0.949603 0.441763 0)
(0.94358 0.413039 0)
(0.923306 0.386488 0)
(0.902108 0.347424 0)
(0.858791 0.321695 0)
(0.816287 0.277515 0)
(0.74521 0.248164 0)
(0.675573 0.185309 0)
(0.561679 0.115015 0)
(0.467975 -0.0114182 0)
(0.333869 -0.158653 0)
(0.257578 -0.370589 0)
(0.112624 -0.586579 0)
(0.0789254 -0.859453 0)
(-0.0120884 -1.07956 0)
(0.00730504 -1.18832 0)
(1.40707 0.692689 0)
(1.28113 0.629766 0)
(1.16499 0.572422 0)
(1.08695 0.530849 0)
(1.05324 0.500477 0)
(1.03682 0.47971 0)
(1.03008 0.448186 0)
(1.0141 0.425127 0)
(0.99834 0.390275 0)
(0.962184 0.367085 0)
(0.922488 0.327399 0)
(0.856266 0.298249 0)
(0.779054 0.239003 0)
(0.654727 0.170793 0)
(0.544733 0.0468595 0)
(0.393785 -0.0941693 0)
(0.295363 -0.301686 0)
(0.129811 -0.512407 0)
(0.0898926 -0.79524 0)
(-0.00867865 -1.02917 0)
(0.0111546 -1.14857 0)
(1.52559 0.754926 0)
(1.44741 0.691956 0)
(1.34591 0.61896 0)
(1.25049 0.55358 0)
(1.18688 0.5026 0)
(1.1476 0.476373 0)
(1.12718 0.444919 0)
(1.10823 0.424696 0)
(1.09448 0.391167 0)
(1.06334 0.369098 0)
(1.0273 0.332794 0)
(0.966018 0.30739 0)
(0.885241 0.256091 0)
(0.753667 0.198927 0)
(0.628084 0.0875026 0)
(0.462079 -0.0395266 0)
(0.343232 -0.23619 0)
(0.164574 -0.440412 0)
(0.111414 -0.728596 0)
(-0.00591755 -0.972154 0)
(0.0133814 -1.10421 0)
(1.60028 0.789485 0)
(1.56555 0.750487 0)
(1.5004 0.692125 0)
(1.41222 0.637484 0)
(1.32774 0.58327 0)
(1.25837 0.543382 0)
(1.22359 0.498696 0)
(1.1983 0.470518 0)
(1.1823 0.432283 0)
(1.15228 0.409269 0)
(1.11656 0.375908 0)
(1.05882 0.352685 0)
(0.972033 0.311028 0)
(0.833156 0.261386 0)
(0.690193 0.15861 0)
(0.508166 0.0401991 0)
(0.374364 -0.152258 0)
(0.186176 -0.355118 0)
(0.123605 -0.652224 0)
(-0.00401669 -0.912498 0)
(0.0202227 -1.05923 0)
(1.64326 0.806827 0)
(1.64133 0.783658 0)
(1.61792 0.742289 0)
(1.56645 0.691132 0)
(1.4953 0.62494 0)
(1.42056 0.553819 0)
(1.36456 0.499347 0)
(1.32194 0.468792 0)
(1.29229 0.429437 0)
(1.25588 0.407445 0)
(1.21863 0.377886 0)
(1.16367 0.35826 0)
(1.07596 0.325503 0)
(0.933515 0.292392 0)
(0.777975 0.206195 0)
(0.585057 0.100474 0)
(0.437933 -0.082024 0)
(0.235458 -0.276119 0)
(0.158351 -0.577204 0)
(0.00800749 -0.84738 0)
(0.0299327 -1.00951 0)
(1.661 0.817381 0)
(1.68399 0.801818 0)
(1.69435 0.771197 0)
(1.67686 0.738167 0)
(1.64085 0.681337 0)
(1.57521 0.63501 0)
(1.51168 0.579508 0)
(1.44683 0.544646 0)
(1.40358 0.495526 0)
(1.36192 0.464201 0)
(1.32543 0.426667 0)
(1.2713 0.406432 0)
(1.18173 0.377702 0)
(1.03484 0.355078 0)
(0.861559 0.284578 0)
(0.653633 0.188631 0)
(0.490272 0.0124083 0)
(0.272803 -0.178379 0)
(0.187323 -0.488462 0)
(0.0174198 -0.774543 0)
(0.0431478 -0.955253 0)
(1.6709 0.816244 0)
(1.7025 0.809219 0)
(1.73487 0.78845 0)
(1.74904 0.761701 0)
(1.74738 0.720664 0)
(1.71665 0.675111 0)
(1.67528 0.61205 0)
(1.61394 0.554 0)
(1.56303 0.489462 0)
(1.51048 0.457241 0)
(1.46637 0.421814 0)
(1.40949 0.408108 0)
(1.31743 0.385328 0)
(1.17234 0.378753 0)
(0.986533 0.332123 0)
(0.765489 0.251329 0)
(0.584774 0.0909788 0)
(0.353621 -0.0920567 0)
(0.248205 -0.403299 0)
(0.0463144 -0.695466 0)
(0.0659441 -0.895772 0)
(1.67205 0.816995 0)
(1.71169 0.80906 0)
(1.75205 0.795157 0)
(1.78547 0.7769 0)
(1.81261 0.742901 0)
(1.81253 0.709196 0)
(1.80368 0.655135 0)
(1.76339 0.613574 0)
(1.71497 0.56689 0)
(1.65772 0.535876 0)
(1.60982 0.492952 0)
(1.55524 0.476239 0)
(1.46597 0.442583 0)
(1.33019 0.441331 0)
(1.13258 0.413258 0)
(0.89227 0.344274 0)
(0.692021 0.191937 0)
(0.442457 0.0148722 0)
(0.312461 -0.297048 0)
(0.077721 -0.600212 0)
(0.0921495 -0.822744 0)
(1.67019 0.812365 0)
(1.71317 0.807753 0)
(1.7606 0.793939 0)
(1.80001 0.781152 0)
(1.84375 0.757875 0)
(1.86966 0.72624 0)
(1.88713 0.681953 0)
(1.87826 0.647192 0)
(1.86008 0.593708 0)
(1.821 0.546498 0)
(1.77994 0.490782 0)
(1.73513 0.465186 0)
(1.64609 0.427779 0)
(1.52595 0.445423 0)
(1.32704 0.452807 0)
(1.06862 0.407379 0)
(0.844603 0.276534 0)
(0.573817 0.112358 0)
(0.414424 -0.193519 0)
(0.135862 -0.495669 0)
(0.132482 -0.741137 0)
(1.66524 0.807017 0)
(1.71062 0.802373 0)
(1.76005 0.79392 0)
(1.8061 0.779625 0)
(1.85605 0.760333 0)
(1.89222 0.739763 0)
(1.92995 0.701655 0)
(1.94861 0.665238 0)
(1.95718 0.621555 0)
(1.94116 0.588539 0)
(1.91865 0.541325 0)
(1.88827 0.520873 0)
(1.8226 0.481916 0)
(1.71797 0.498144 0)
(1.53684 0.525664 0)
(1.2661 0.499056 0)
(1.01625 0.386082 0)
(0.725566 0.22928 0)
(0.5282 -0.0643848 0)
(0.203143 -0.364419 0)
(0.176678 -0.638688 0)
(1.66059 0.802086 0)
(1.7048 0.796993 0)
(1.75546 0.789244 0)
(1.80468 0.776417 0)
(1.85672 0.760444 0)
(1.9016 0.738744 0)
(1.94739 0.705967 0)
(1.97785 0.678792 0)
(2.00771 0.643683 0)
(2.01835 0.608659 0)
(2.02179 0.557491 0)
(2.00735 0.531807 0)
(1.98585 0.491295 0)
(1.8937 0.495131 0)
(1.75737 0.532725 0)
(1.49187 0.556299 0)
(1.22009 0.471105 0)
(0.910444 0.332829 0)
(0.676863 0.0632515 0)
(0.308818 -0.220257 0)
(0.237767 -0.520571 0)
(1.65559 0.798019 0)
(1.69895 0.792147 0)
(1.74805 0.78443 0)
(1.79803 0.771951 0)
(1.85315 0.754314 0)
(1.89863 0.736742 0)
(1.94747 0.710429 0)
(1.98915 0.679238 0)
(2.02984 0.644943 0)
(2.05208 0.619393 0)
(2.07394 0.580623 0)
(2.07477 0.551911 0)
(2.09355 0.509442 0)
(2.02254 0.505983 0)
(1.93229 0.53547 0)
(1.71462 0.601601 0)
(1.41619 0.568711 0)
(1.09837 0.44225 0)
(0.836726 0.202088 0)
(0.434808 -0.0483419 0)
(0.297743 -0.366389 0)
(1.65083 0.794615 0)
(1.6936 0.787711 0)
(1.73909 0.779762 0)
(1.78978 0.766973 0)
(1.84351 0.750326 0)
(1.88884 0.734415 0)
(1.94325 0.70907 0)
(1.98769 0.679544 0)
(2.03121 0.647576 0)
(2.05976 0.623602 0)
(2.09766 0.584705 0)
(2.10516 0.558652 0)
(2.14495 0.523802 0)
(2.09927 0.505221 0)
(2.04523 0.525867 0)
(1.90099 0.614772 0)
(1.6013 0.628725 0)
(1.26658 0.530131 0)
(0.997587 0.331645 0)
(0.605405 0.115764 0)
(0.375213 -0.16779 0)
(1.64675 0.791989 0)
(1.68856 0.784346 0)
(1.73125 0.775812 0)
(1.78113 0.763558 0)
(1.83026 0.748514 0)
(1.87955 0.729321 0)
(1.92896 0.708229 0)
(1.9733 0.683504 0)
(2.02196 0.652247 0)
(2.05913 0.620781 0)
(2.09846 0.587532 0)
(2.10853 0.566495 0)
(2.15329 0.52822 0)
(2.13866 0.506228 0)
(2.10973 0.515657 0)
(2.0086 0.577377 0)
(1.73374 0.687393 0)
(1.391 0.601214 0)
(1.13679 0.434758 0)
(0.774297 0.286004 0)
(0.496491 0.0803994 0)
(1.64361 0.789108 0)
(1.68412 0.780889 0)
(1.72472 0.771941 0)
(1.77282 0.760222 0)
(1.81942 0.745967 0)
(1.86791 0.727351 0)
(1.91263 0.706966 0)
(1.9594 0.683154 0)
(2.01079 0.653806 0)
(2.04597 0.624933 0)
(2.08321 0.596776 0)
(2.10535 0.568863 0)
(2.14551 0.530411 0)
(2.15141 0.506099 0)
(2.13674 0.507147 0)
(2.05563 0.548 0)
(1.85088 0.668935 0)
(1.46305 0.640679 0)
(1.22065 0.522895 0)
(0.941166 0.391616 0)
(0.59981 0.421943 0)
(1.64107 0.786884 0)
(1.68023 0.778239 0)
(1.71856 0.768609 0)
(1.76549 0.756693 0)
(1.80915 0.743121 0)
(1.85571 0.725745 0)
(1.90072 0.703449 0)
(1.94556 0.6834 0)
(1.98835 0.65722 0)
(2.02944 0.626939 0)
(2.06985 0.595843 0)
(2.0869 0.576306 0)
(2.1256 0.54092 0)
(2.14086 0.514361 0)
(2.13872 0.503158 0)
(2.09038 0.524595 0)
(1.91489 0.632054 0)
(1.48581 0.667216 0)
(1.26453 0.576836 0)
(1.03494 0.533796 0)
(0.898319 0.725859 0)
(1.63935 0.784442 0)
(1.67703 0.775547 0)
(1.71305 0.765354 0)
(1.75873 0.753309 0)
(1.79996 0.740381 0)
(1.84552 0.723718 0)
(1.89052 0.701093 0)
(1.93053 0.683133 0)
(1.97339 0.658625 0)
(2.01628 0.629643 0)
(2.04853 0.603007 0)
(2.07266 0.578778 0)
(2.10804 0.547961 0)
(2.13385 0.520273 0)
(2.12821 0.499549 0)
(2.10512 0.510664 0)
(1.96776 0.598878 0)
(1.51376 0.680209 0)
(1.2947 0.616205 0)
(1.15046 0.62004 0)
(1.10011 0.693185 0)
(1.63825 0.78263 0)
(1.67393 0.774159 0)
(1.70871 0.763291 0)
(1.75221 0.75075 0)
(1.79153 0.738157 0)
(1.83511 0.722118 0)
(1.87914 0.700534 0)
(1.91917 0.681839 0)
(1.9591 0.659682 0)
(1.99872 0.632962 0)
(2.03299 0.605198 0)
(2.06269 0.579729 0)
(2.08241 0.555823 0)
(2.11944 0.524704 0)
(2.12117 0.5028 0)
(2.1085 0.503894 0)
(2.01132 0.565066 0)
(1.53922 0.666959 0)
(1.31299 0.636795 0)
(1.22274 0.686693 0)
(1.24041 0.720681 0)
(1.63753 0.780984 0)
(1.67152 0.772588 0)
(1.70619 0.761073 0)
(1.74659 0.748489 0)
(1.78466 0.735951 0)
(1.82597 0.720532 0)
(1.87012 0.699448 0)
(1.9077 0.681481 0)
(1.94602 0.660781 0)
(1.98626 0.635903 0)
(2.02025 0.608251 0)
(2.04982 0.584102 0)
(2.06868 0.560461 0)
(2.10079 0.532001 0)
(2.11177 0.508544 0)
(2.10414 0.504443 0)
(2.04676 0.537225 0)
(1.55391 0.657879 0)
(1.32625 0.648238 0)
(1.26675 0.712895 0)
(1.33799 0.736559 0)
(1.63655 0.779977 0)
(1.6693 0.771656 0)
(1.70411 0.760267 0)
(1.74162 0.747724 0)
(1.77895 0.734836 0)
(1.81745 0.719908 0)
(1.86 0.700592 0)
(1.89567 0.682588 0)
(1.93635 0.660422 0)
(1.97137 0.639042 0)
(2.00636 0.612812 0)
(2.03744 0.58794 0)
(2.05841 0.564444 0)
(2.08589 0.53944 0)
(2.10291 0.517984 0)
(2.09919 0.503035 0)
(2.06754 0.519429 0)
(1.57667 0.643182 0)
(1.33176 0.652756 0)
(1.29419 0.730558 0)
(1.38893 0.757295 0)
(1.63501 0.779471 0)
(1.66731 0.770681 0)
(1.70233 0.75937 0)
(1.73748 0.747567 0)
(1.77434 0.734442 0)
(1.81094 0.719251 0)
(1.85175 0.70193 0)
(1.88634 0.683383 0)
(1.92627 0.661487 0)
(1.95869 0.642072 0)
(1.99577 0.617915 0)
(2.0233 0.593271 0)
(2.05043 0.56736 0)
(2.06805 0.547773 0)
(2.09966 0.522534 0)
(2.09192 0.504671 0)
(2.07598 0.512601 0)
(1.61194 0.62776 0)
(1.34236 0.655289 0)
(1.3167 0.743154 0)
(1.41926 0.769017 0)
(1.63308 0.778942 0)
(1.66496 0.770082 0)
(1.69971 0.759511 0)
(1.73373 0.748255 0)
(1.77019 0.734896 0)
(1.80584 0.719283 0)
(1.84258 0.704631 0)
(1.87718 0.686162 0)
(1.91706 0.663106 0)
(1.94843 0.644042 0)
(1.9817 0.624504 0)
(2.01133 0.59822 0)
(2.03955 0.572943 0)
(2.05693 0.553018 0)
(2.08543 0.531401 0)
(2.08608 0.510201 0)
(2.07731 0.510726 0)
(1.66768 0.61483 0)
(1.34867 0.658014 0)
(1.33397 0.753058 0)
(1.43826 0.772676 0)
(1.63053 0.778539 0)
(1.66225 0.769565 0)
(1.69727 0.758801 0)
(1.73039 0.748347 0)
(1.76598 0.735584 0)
(1.80187 0.719108 0)
(1.83562 0.70595 0)
(1.87024 0.688278 0)
(1.90821 0.665769 0)
(1.93949 0.646155 0)
(1.96978 0.62942 0)
(2.00059 0.603525 0)
(2.02918 0.578781 0)
(2.04678 0.55863 0)
(2.07432 0.538634 0)
(2.08174 0.516687 0)
(2.07538 0.51417 0)
(1.75557 0.610989 0)
(1.35262 0.660561 0)
(1.34694 0.755307 0)
(1.45187 0.771359 0)
(1.6281 0.777694 0)
(1.65972 0.768621 0)
(1.69369 0.758574 0)
(1.72642 0.748604 0)
(1.76166 0.735953 0)
(1.79759 0.71952 0)
(1.82925 0.707156 0)
(1.86326 0.690731 0)
(1.89939 0.669024 0)
(1.93165 0.648057 0)
(1.95935 0.632684 0)
(1.99056 0.608384 0)
(2.01639 0.586112 0)
(2.03911 0.563076 0)
(2.06096 0.546376 0)
(2.07993 0.525333 0)
(2.07137 0.515681 0)
(1.85437 0.608499 0)
(1.37449 0.659056 0)
(1.35426 0.75179 0)
(1.45787 0.767484 0)
(1.62581 0.777237 0)
(1.6568 0.768261 0)
(1.69012 0.758022 0)
(1.72271 0.747963 0)
(1.75679 0.73604 0)
(1.79329 0.719675 0)
(1.8241 0.706864 0)
(1.85765 0.691489 0)
(1.89125 0.67177 0)
(1.92485 0.649677 0)
(1.95077 0.634536 0)
(1.98179 0.612395 0)
(2.00647 0.591792 0)
(2.03037 0.56943 0)
(2.04978 0.553306 0)
(2.07719 0.531499 0)
(2.06739 0.519744 0)
(1.94048 0.596288 0)
(1.41463 0.662673 0)
(1.36356 0.747856 0)
(1.46011 0.761977 0)
(1.62427 0.776848 0)
(1.6545 0.767721 0)
(1.68636 0.757879 0)
(1.71869 0.747671 0)
(1.7519 0.735788 0)
(1.78728 0.72079 0)
(1.81857 0.707223 0)
(1.852 0.691989 0)
(1.88338 0.674253 0)
(1.91692 0.652925 0)
(1.94328 0.636163 0)
(1.9736 0.616116 0)
(1.99592 0.598164 0)
(2.02255 0.57526 0)
(2.03993 0.559988 0)
(2.06969 0.537689 0)
(2.06602 0.524788 0)
(2.00124 0.576295 0)
(1.47583 0.677447 0)
(1.37907 0.746319 0)
(1.46616 0.756965 0)
(1.62299 0.777544 0)
(1.65199 0.768484 0)
(1.68286 0.758327 0)
(1.71494 0.7475 0)
(1.74649 0.735972 0)
(1.78156 0.721772 0)
(1.8141 0.706732 0)
(1.84638 0.691906 0)
(1.87576 0.676423 0)
(1.91075 0.656198 0)
(1.93697 0.637826 0)
(1.96678 0.619216 0)
(1.98837 0.603003 0)
(2.0156 0.581502 0)
(2.03273 0.565067 0)
(2.06093 0.543851 0)
(2.06453 0.529594 0)
(2.03132 0.558161 0)
(1.55046 0.68379 0)
(1.39633 0.745344 0)
(1.47427 0.753365 0)
(1.62232 0.778295 0)
(1.6505 0.769107 0)
(1.6802 0.758969 0)
(1.71117 0.748171 0)
(1.74188 0.736219 0)
(1.77554 0.723006 0)
(1.8076 0.708587 0)
(1.84063 0.692446 0)
(1.86964 0.677561 0)
(1.90073 0.661285 0)
(1.93011 0.641238 0)
(1.96 0.62236 0)
(1.98087 0.607867 0)
(2.00692 0.588881 0)
(2.0254 0.570882 0)
(2.05208 0.550695 0)
(2.06186 0.534595 0)
(2.04344 0.548545 0)
(1.62957 0.681487 0)
(1.41349 0.745515 0)
(1.48354 0.752889 0)
(1.62127 0.779926 0)
(1.64885 0.770777 0)
(1.67758 0.760607 0)
(1.70742 0.74965 0)
(1.73745 0.737463 0)
(1.77016 0.724477 0)
(1.80294 0.709757 0)
(1.83451 0.693976 0)
(1.86295 0.679884 0)
(1.89454 0.664636 0)
(1.92482 0.644859 0)
(1.95307 0.626321 0)
(1.97492 0.611615 0)
(2.00033 0.594895 0)
(2.02019 0.575562 0)
(2.04477 0.557326 0)
(2.05928 0.539178 0)
(2.0493 0.543623 0)
(1.71661 0.672088 0)
(1.42875 0.744025 0)
(1.49005 0.750994 0)
(1.62075 0.780673 0)
(1.64814 0.771464 0)
(1.67577 0.761781 0)
(1.70425 0.751239 0)
(1.73438 0.738529 0)
(1.76587 0.725785 0)
(1.79582 0.71313 0)
(1.82779 0.697159 0)
(1.85868 0.680828 0)
(1.88584 0.668648 0)
(1.91574 0.650789 0)
(1.94564 0.630785 0)
(1.96964 0.614883 0)
(1.99155 0.601071 0)
(2.01276 0.581989 0)
(2.03727 0.564472 0)
(2.05579 0.54472 0)
(2.0499 0.545555 0)
(1.81239 0.657653 0)
(1.45039 0.743422 0)
(1.49877 0.751479 0)
(1.61978 0.781964 0)
(1.64672 0.772918 0)
(1.67332 0.763726 0)
(1.70137 0.753082 0)
(1.73158 0.740318 0)
(1.7612 0.728266 0)
(1.79082 0.715658 0)
(1.8228 0.699674 0)
(1.85319 0.683978 0)
(1.87869 0.672123 0)
(1.9096 0.654754 0)
(1.93758 0.635392 0)
(1.96363 0.618606 0)
(1.98346 0.60608 0)
(2.00808 0.586373 0)
(2.02786 0.571842 0)
(2.0548 0.548434 0)
(2.05029 0.547056 0)
(1.90549 0.634909 0)
(1.48265 0.740947 0)
(1.51187 0.753269 0)
(1.61952 0.78214 0)
(1.64581 0.773416 0)
(1.6717 0.764605 0)
(1.6996 0.753956 0)
(1.72951 0.741535 0)
(1.75761 0.730165 0)
(1.78595 0.718471 0)
(1.81735 0.703134 0)
(1.84792 0.687085 0)
(1.87293 0.67465 0)
(1.90116 0.659093 0)
(1.93026 0.639589 0)
(1.95658 0.622613 0)
(1.97665 0.609925 0)
(2.00023 0.592581 0)
(2.02002 0.57722 0)
(2.04861 0.555767 0)
(2.0496 0.550306 0)
(1.96855 0.608054 0)
(1.53987 0.738742 0)
(1.52582 0.759445 0)
(1.6186 0.783482 0)
(1.64385 0.775143 0)
(1.66963 0.766279 0)
(1.69787 0.755217 0)
(1.72637 0.743689 0)
(1.75358 0.732748 0)
(1.78245 0.720289 0)
(1.8135 0.705151 0)
(1.84237 0.690486 0)
(1.8673 0.677132 0)
(1.89539 0.661344 0)
(1.92334 0.643753 0)
(1.94999 0.626532 0)
(1.96996 0.613253 0)
(1.99435 0.597011 0)
(2.01315 0.58234 0)
(2.04201 0.561822 0)
(2.04946 0.552571 0)
(2.00565 0.585489 0)
(1.60474 0.730999 0)
(1.53998 0.762911 0)
(1.61849 0.784232 0)
(1.64283 0.77617 0)
(1.66894 0.766787 0)
(1.69638 0.756197 0)
(1.72366 0.745514 0)
(1.75074 0.73441 0)
(1.7797 0.721502 0)
(1.80851 0.707774 0)
(1.83594 0.694396 0)
(1.86225 0.679301 0)
(1.89013 0.66311 0)
(1.91567 0.648003 0)
(1.94163 0.63202 0)
(1.96445 0.61544 0)
(1.98792 0.600931 0)
(2.0057 0.587738 0)
(2.0331 0.569057 0)
(2.0476 0.555575 0)
(2.02612 0.571574 0)
(1.67109 0.720065 0)
(1.55237 0.762833 0)
(1.61758 0.78674 0)
(1.64168 0.778331 0)
(1.66737 0.768926 0)
(1.6941 0.758364 0)
(1.72006 0.748211 0)
(1.74776 0.736633 0)
(1.77654 0.723227 0)
(1.80435 0.709679 0)
(1.83035 0.69762 0)
(1.85821 0.681346 0)
(1.88533 0.664694 0)
(1.90971 0.651372 0)
(1.93452 0.637174 0)
(1.95966 0.618215 0)
(1.98243 0.604073 0)
(1.99999 0.592052 0)
(2.02501 0.576113 0)
(2.04488 0.558459 0)
(2.03521 0.564369 0)
(1.75161 0.699312 0)
(1.56418 0.760245 0)
(1.61797 0.788412 0)
(1.64169 0.779855 0)
(1.66729 0.769978 0)
(1.69207 0.760499 0)
(1.71794 0.750065 0)
(1.74544 0.73829 0)
(1.77309 0.725382 0)
(1.79987 0.712219 0)
(1.82539 0.700466 0)
(1.85296 0.685068 0)
(1.88056 0.667301 0)
(1.90409 0.654864 0)
(1.92697 0.64259 0)
(1.95404 0.623214 0)
(1.97718 0.607635 0)
(1.99432 0.596992 0)
(2.01699 0.583448 0)
(2.04059 0.562405 0)
(2.03802 0.563966 0)
(1.8413 0.672145 0)
(1.58114 0.755769 0)
(1.61793 0.79143 0)
(1.64169 0.782278 0)
(1.66569 0.773006 0)
(1.69008 0.763346 0)
(1.71551 0.752733 0)
(1.74258 0.740792 0)
(1.76893 0.72841 0)
(1.79599 0.714863 0)
(1.82103 0.702979 0)
(1.84932 0.688004 0)
(1.87574 0.671187 0)
(1.89935 0.658369 0)
(1.92146 0.646817 0)
(1.95024 0.628085 0)
(1.97123 0.612986 0)
(1.99109 0.600682 0)
(2.0085 0.590482 0)
(2.03843 0.565304 0)
(2.03917 0.565566 0)
(1.91356 0.6429 0)
(1.62094 0.748962 0)
(1.61931 0.793033 0)
(1.64226 0.784191 0)
(1.6657 0.774645 0)
(1.68903 0.765478 0)
(1.71434 0.754613 0)
(1.7403 0.742878 0)
(1.76522 0.731376 0)
(1.79183 0.71841 0)
(1.81786 0.705107 0)
(1.84376 0.692201 0)
(1.87011 0.676741 0)
(1.89479 0.662742 0)
(1.91743 0.650476 0)
(1.94333 0.635123 0)
(1.96597 0.618841 0)
(1.98547 0.606939 0)
(2.00349 0.595366 0)
(2.03181 0.57418 0)
(2.03917 0.567481 0)
(1.96618 0.615512 0)
(1.6749 0.74161 0)
(1.62003 0.795957 0)
(1.64241 0.786978 0)
(1.66472 0.777934 0)
(1.6883 0.768076 0)
(1.71285 0.757303 0)
(1.7374 0.746019 0)
(1.76204 0.734469 0)
(1.78882 0.721513 0)
(1.81406 0.708459 0)
(1.84019 0.695058 0)
(1.86569 0.681475 0)
(1.89072 0.667583 0)
(1.91345 0.654397 0)
(1.93912 0.639857 0)
(1.96067 0.625594 0)
(1.98131 0.611743 0)
(1.99879 0.600095 0)
(2.02715 0.580988 0)
(2.03919 0.568869 0)
(1.99959 0.595729 0)
(1.74331 0.723083 0)
(1.62178 0.797708 0)
(1.64293 0.789405 0)
(1.6653 0.779861 0)
(1.68853 0.76991 0)
(1.71179 0.759798 0)
(1.73574 0.748537 0)
(1.76006 0.736955 0)
(1.78491 0.725504 0)
(1.81073 0.711945 0)
(1.83625 0.698759 0)
(1.86099 0.686258 0)
(1.88534 0.673535 0)
(1.91033 0.657793 0)
(1.93372 0.644756 0)
(1.95434 0.632299 0)
(1.97637 0.617714 0)
(1.99488 0.603586 0)
(2.02075 0.587312 0)
(2.03747 0.572008 0)
(2.02002 0.58419 0)
(1.79997 0.701236 0)
(1.62226 0.801119 0)
(1.64307 0.79264 0)
(1.66512 0.783184 0)
(1.68802 0.773096 0)
(1.71079 0.762826 0)
(1.73386 0.751889 0)
(1.75828 0.740048 0)
(1.7825 0.72858 0)
(1.80739 0.715743 0)
(1.83352 0.701836 0)
(1.85736 0.689872 0)
(1.88133 0.677687 0)
(1.9069 0.661793 0)
(1.92936 0.648267 0)
(1.94962 0.636938 0)
(1.9719 0.622753 0)
(1.99122 0.606823 0)
(2.01424 0.592616 0)
(2.03531 0.574109 0)
(2.02911 0.578706 0)
(1.87642 0.668187 0)
(1.6236 0.803476 0)
(1.64383 0.79531 0)
(1.66581 0.785682 0)
(1.68843 0.775504 0)
(1.70998 0.765911 0)
(1.73312 0.754656 0)
(1.75721 0.742838 0)
(1.77944 0.732599 0)
(1.80489 0.719197 0)
(1.8298 0.706116 0)
(1.85405 0.69366 0)
(1.87636 0.681844 0)
(1.90232 0.666444 0)
(1.92474 0.652117 0)
(1.94571 0.64029 0)
(1.96558 0.627814 0)
(1.98745 0.610497 0)
(2.00727 0.597799 0)
(2.03238 0.575717 0)
(2.03264 0.579642 0)
(1.94445 0.638887 0)
(1.62401 0.806928 0)
(1.64423 0.798585 0)
(1.66603 0.78894 0)
(1.68766 0.779337 0)
(1.70936 0.769286 0)
(1.73227 0.758016 0)
(1.75574 0.746534 0)
(1.77787 0.735794 0)
(1.80248 0.72273 0)
(1.82789 0.708972 0)
(1.85033 0.697908 0)
(1.87355 0.684226 0)
(1.89811 0.670035 0)
(1.92068 0.655983 0)
(1.94145 0.643562 0)
(1.96182 0.630537 0)
(1.98354 0.614451 0)
(2.0013 0.602353 0)
(2.02884 0.581103 0)
(2.03424 0.580898 0)
(1.98727 0.616357 0)
(1.62512 0.809405 0)
(1.64529 0.801063 0)
(1.66644 0.791863 0)
(1.68769 0.782389 0)
(1.70896 0.772589 0)
(1.73172 0.761319 0)
(1.75478 0.749937 0)
(1.77562 0.739985 0)
(1.80111 0.725939 0)
(1.8245 0.713303 0)
(1.84674 0.7023 0)
(1.86991 0.688164 0)
(1.89401 0.67372 0)
(1.9156 0.661126 0)
(1.93762 0.646896 0)
(1.95732 0.634249 0)
(1.97881 0.61941 0)
(1.9966 0.606979 0)
(2.0237 0.588648 0)
(2.03592 0.581537 0)
(2.01075 0.601513 0)
(1.62598 0.812414 0)
(1.64595 0.804117 0)
(1.66665 0.795147 0)
(1.68721 0.786152 0)
(1.7086 0.776045 0)
(1.7312 0.764855 0)
(1.75334 0.754092 0)
(1.77494 0.742985 0)
(1.79928 0.729801 0)
(1.82267 0.716684 0)
(1.84335 0.706463 0)
(1.86729 0.691778 0)
(1.89133 0.676645 0)
(1.91114 0.665826 0)
(1.93424 0.650998 0)
(1.95402 0.637308 0)
(1.97566 0.623314 0)
(1.9916 0.612469 0)
(2.01894 0.595449 0)
(2.03656 0.58393 0)
(2.0248 0.593214 0)
(1.62727 0.815056 0)
(1.64701 0.806764 0)
(1.66691 0.798363 0)
(1.68706 0.78957 0)
(1.70835 0.779419 0)
(1.73039 0.768702 0)
(1.75223 0.758089 0)
(1.77362 0.746974 0)
(1.79788 0.733552 0)
(1.81951 0.721957 0)
(1.84044 0.710667 0)
(1.86447 0.696056 0)
(1.88695 0.682268 0)
(1.90777 0.670275 0)
(1.92943 0.656484 0)
(1.95099 0.641518 0)
(1.97097 0.629446 0)
(1.98773 0.617827 0)
(2.01307 0.602985 0)
(2.03563 0.587204 0)
(2.03285 0.590063 0)
(1.62869 0.818055 0)
(1.64789 0.809886 0)
(1.66723 0.801705 0)
(1.6869 0.793078 0)
(1.70807 0.782852 0)
(1.72992 0.772264 0)
(1.7509 0.762279 0)
(1.77326 0.750174 0)
(1.79641 0.737481 0)
(1.81723 0.726714 0)
(1.83862 0.714555 0)
(1.86194 0.700173 0)
(1.88527 0.686229 0)
(1.90372 0.675665 0)
(1.92652 0.660897 0)
(1.94889 0.645322 0)
(1.96702 0.635375 0)
(1.98646 0.621918 0)
(2.00541 0.611026 0)
(2.03555 0.588543 0)
(2.03557 0.590815 0)
(1.63027 0.821232 0)
(1.64895 0.813058 0)
(1.66752 0.805144 0)
(1.68666 0.796609 0)
(1.7078 0.786271 0)
(1.72896 0.776224 0)
(1.74965 0.766294 0)
(1.7721 0.754235 0)
(1.79468 0.741832 0)
(1.81444 0.731898 0)
(1.83603 0.719563 0)
(1.86068 0.703612 0)
(1.88066 0.692808 0)
(1.90061 0.680928 0)
(1.92326 0.666055 0)
(1.94522 0.651213 0)
(1.96365 0.64123 0)
(1.98147 0.629332 0)