/*--------------------------------*- C++ -*----------------------------------*\
  =========                 |
  \\      /  F ield         | OpenFOAM: The Open Source CFD Toolbox
   \\    /   O peration     | Website:  https://openfoam.org
    \\  /    A nd           | Version:  7
     \\/     M anipulation  |
\*---------------------------------------------------------------------------*/
FoamFile
{
    version     2.0;
    format      ascii;
    class       volScalarField;
    location    "2.6";
    object      p;
}
// * * * * * * * * * * * * * * * * * * * * * * * * * * * * * * * * * * * * * //

dimensions      [1 -1 -2 0 0 0 0];

internalField   nonuniform List<scalar> 
16512
(
3.24833
3.24106
3.23116
3.21257
3.16164
3.06731
2.99268
2.97598
2.9695
2.96545
2.96139
2.95374
2.9438
2.93193
2.91621
2.88612
2.82218
2.76626
2.74931
2.73835
2.72982
2.72171
2.71153
2.69971
2.68659
2.67035
2.64389
2.59018
2.52509
2.50309
2.49568
2.49003
2.48227
2.47496
2.46862
2.45996
2.4487
2.4335
2.40455
2.35009
2.30923
2.30051
2.29361
2.28591
2.2783
2.27109
2.26407
2.25602
2.24441
2.21983
2.16935
2.12942
2.11918
2.10993
2.10185
2.09466
2.08441
2.07201
2.05907
2.05055
2.04534
2.03847
2.02311
2.0042
1.99053
1.97948
1.96691
1.94797
1.91648
1.87384
1.8422
1.83549
1.83572
1.849
1.87284
1.88025
1.87461
1.86674
1.85341
1.82752
1.77598
1.71159
1.67882
1.67261
1.6723
1.68308
1.71291
1.7429
1.74838
1.74361
1.73611
1.71912
1.68313
1.62122
1.57255
1.55672
1.55392
1.55618
1.57372
1.60467
1.61992
1.61742
1.61074
1.59542
1.56193
1.50686
1.46785
1.45733
1.45602
1.46166
1.48588
1.51664
1.52427
1.52035
1.51058
1.48624
1.4372
1.38749
1.37091
1.369
1.37032
1.38539
1.4169
1.43497
1.43369
1.4284
1.4144
1.3812
1.32685
1.29083
1.28219
1.28145
1.28594
1.3063
1.34099
1.35959
1.35869
1.354
1.34211
1.31394
1.26276
1.22201
1.21085
1.20931
1.21136
1.2267
1.25844
1.27946
1.27964
1.27575
1.26579
1.24084
1.19684
1.16646
1.16044
1.1598
1.16333
1.17984
1.19704
1.20032
1.21387
1.31095
1.74638
2.25761
2.51485
2.65957
2.70277
2.71319
2.71254
2.68007
2.63049
2.60234
2.58619
2.57913
2.58198
2.58645
2.5787
2.56451
2.54324
2.50715
2.4778
2.46794
2.47676
2.54283
2.73538
2.98694
3.19377
3.22554
3.20254
3.14553
3.11128
3.1003
3.10642
3.13017
3.13688
3.12179
3.09795
3.05732
3.00858
2.98346
2.97193
2.97179
2.9927
3.01009
3.00094
2.98099
2.95124
2.91758
2.89898
2.88726
2.88056
2.87992
2.8699
2.85555
2.83815
2.81799
2.80371
2.79281
2.78403
2.77737
2.76739
2.7547
2.74016
2.72555
2.71331
2.70238
2.69279
2.68241
2.67075
2.65789
2.64166
2.62166
2.60702
2.5974
2.58952
2.58554
2.58779
2.5828
2.57129
2.55741
2.53682
2.51389
2.50119
2.49254
2.486
2.48462
2.48699
2.47972
2.46823
2.4542
2.43814
2.42778
2.42005
2.41297
2.40516
2.39641
2.38669
2.37545
3.28887
3.27976
3.26358
3.21838
3.12796
3.03752
3.01015
3.00385
3.00154
2.99804
2.99234
2.9846
2.97376
2.96005
2.93863
2.88641
2.81492
2.78477
2.77231
2.76178
2.75369
2.74471
2.73355
2.72095
2.70659
2.68733
2.64936
2.58225
2.5353
2.52462
2.5176
2.51404
2.5074
2.49944
2.49321
2.48485
2.47195
2.44996
2.40249
2.34704
2.32986
2.32395
2.31732
2.3098
2.30311
2.29603
2.2879
2.27731
2.25828
2.21583
2.16131
2.13969
2.13476
2.12742
2.12009
2.11467
2.1071
2.09762
2.09212
2.08787
2.07777
2.05313
2.02642
2.00937
1.99743
1.98605
1.9711
1.94682
1.91079
1.87868
1.87084
1.86994
1.87866
1.89555
1.89937
1.89357
1.88597
1.87379
1.85008
1.80398
1.74245
1.70651
1.69928
1.69927
1.7109
1.7413
1.76835
1.7706
1.7652
1.7577
1.74197
1.70867
1.64812
1.59643
1.57905
1.57605
1.57826
1.59616
1.62692
1.64152
1.63893
1.63234
1.61777
1.58593
1.53103
1.4886
1.47628
1.4748
1.47972
1.50308
1.53486
1.54392
1.54017
1.53112
1.50875
1.46173
1.40814
1.3877
1.38516
1.38594
1.3999
1.43255
1.45436
1.45392
1.44896
1.43533
1.40248
1.34641
1.30709
1.29708
1.29616
1.30016
1.31984
1.35566
1.37736
1.37725
1.37288
1.36155
1.33418
1.28256
1.23857
1.22553
1.22367
1.22523
1.23923
1.27091
1.29559
1.29711
1.29339
1.2843
1.26125
1.2176
1.18184
1.17318
1.17233
1.17462
1.18908
1.20991
1.21621
1.2391
1.36319
1.77701
2.39837
2.61796
2.68918
2.72106
2.7402
2.73109
2.71681
2.69052
2.64436
2.61715
2.60552
2.6027
2.60734
2.60122
2.58993
2.57545
2.55123
2.51653
2.49367
2.49366
2.53268
2.68566
2.93866
3.18365
3.26009
3.24861
3.19426
3.14376
3.12824
3.12999
3.15638
3.17222
3.16028
3.13739
3.09654
3.04177
3.00853
2.99622
2.99392
3.01373
3.03778
3.03484
3.01691
2.98862
2.95066
2.92699
2.91438
2.90566
2.9049
2.90032
2.88624
2.86948
2.84867
2.83181
2.82009
2.81048
2.80387
2.79569
2.7839
2.77016
2.7544
2.74073
2.72921
2.71912
2.7091
2.69735
2.68442
2.66918
2.65031
2.63293
2.62173
2.6128
2.60686
2.60701
2.60548
2.59467
2.58168
2.5632
2.5382
2.52202
2.51293
2.50577
2.50322
2.50758
2.50448
2.4936
2.4805
2.46382
2.45012
2.44149
2.4344
2.42768
2.41966
2.41071
2.4006
2.38858
3.32957
3.31422
3.27178
3.18521
3.08428
3.0456
3.03779
3.0352
3.03736
3.03101
3.02436
3.01612
3.0043
2.98711
2.94751
2.87156
2.8183
2.80516
2.79391
2.78512
2.77729
2.7677
2.75649
2.74374
2.72787
2.70178
2.64465
2.57726
2.5554
2.54734
2.54127
2.53921
2.53371
2.5253
2.51809
2.50903
2.49304
2.45641
2.39459
2.35978
2.35234
2.34716
2.34108
2.33323
2.32626
2.31839
2.30814
2.29272
2.26017
2.20459
2.16545
2.15882
2.15368
2.14774
2.14367
2.14048
2.13655
2.13079
2.1252
2.11585
2.08677
2.04898
2.02814
2.0162
2.00564
1.99368
1.97524
1.94531
1.91486
1.90662
1.90539
1.91009
1.91934
1.91899
1.91274
1.90499
1.89399
1.87302
1.83282
1.77499
1.73673
1.72797
1.72767
1.73879
1.76771
1.79118
1.79131
1.78567
1.77809
1.7635
1.73357
1.67709
1.623
1.603
1.59994
1.60222
1.62001
1.64974
1.66257
1.65959
1.6532
1.63971
1.61016
1.55692
1.51123
1.49658
1.49489
1.49902
1.52124
1.5532
1.56314
1.55936
1.55092
1.53058
1.48694
1.43069
1.4054
1.40202
1.40224
1.41485
1.44759
1.47328
1.47404
1.46913
1.45599
1.42396
1.36672
1.32359
1.31223
1.31107
1.31444
1.3332
1.36987
1.39498
1.39586
1.39173
1.38103
1.35441
1.30243
1.25488
1.24009
1.23793
1.23905
1.25192
1.28348
1.31173
1.31511
1.31152
1.30316
1.28171
1.23873
1.19789
1.18631
1.18511
1.18642
1.19876
1.22201
1.23341
1.26278
1.46679
1.87628
2.42549
2.71695
2.74773
2.75514
2.74044
2.7386
2.73722
2.71767
2.69281
2.65602
2.63217
2.62198
2.61927
2.62345
2.61403
2.60085
2.58182
2.55118
2.52438
2.52066
2.5438
2.6601
2.8921
3.15293
3.28365
3.28173
3.23864
3.18401
3.16439
3.15993
3.18006
3.20419
3.19782
3.17686
3.14093
3.08539
3.04115
3.02554
3.01951
3.03503
3.06401
3.06811
3.05155
3.02584
2.98863
2.95787
2.94339
2.93313
2.93014
2.92919
2.91662
2.9004
2.88031
2.86131
2.84871
2.8381
2.83062
2.82323
2.81189
2.79879
2.78306
2.76802
2.75627
2.74593
2.73687
2.72589
2.71341
2.69868
2.67903
2.65862
2.64638
2.63688
2.62963
2.62774
2.62816
2.61861
2.60538
2.58789
2.56293
2.5423
2.53234
2.52464
2.52023
2.52388
2.52625
2.51704
2.50467
2.4892
2.47308
2.46301
2.45528
2.44884
2.44207
2.43375
2.42445
2.41373
2.40108
3.36507
3.3228
3.23808
3.13031
3.08196
3.07185
3.06733
3.07207
3.07353
3.06556
3.0581
3.04877
3.03495
3.00392
2.93435
2.85735
2.83492
2.82502
2.81613
2.80976
2.8021
2.79217
2.781
2.76777
2.74831
2.70526
2.63208
2.58738
2.57844
2.57157
2.56701
2.56561
2.56079
2.55225
2.54335
2.53184
2.508
2.45062
2.3936
2.38026
2.3738
2.36928
2.36348
2.35525
2.34724
2.33802
2.32466
2.30064
2.25259
2.20095
2.18612
2.18177
2.17691
2.17376
2.17327
2.17145
2.16726
2.16074
2.14898
2.12176
2.0781
2.04682
2.03528
2.02612
2.01536
2.00123
1.97821
1.95072
1.94158
1.94013
1.9421
1.94453
1.94008
1.9332
1.92483
1.91369
1.89536
1.86196
1.8099
1.76928
1.75857
1.75796
1.76752
1.79313
1.81145
1.81014
1.80494
1.79788
1.78466
1.75778
1.70623
1.65143
1.62847
1.62532
1.6277
1.64506
1.67298
1.68344
1.6797
1.67328
1.66094
1.63434
1.58443
1.53588
1.51833
1.51632
1.51976
1.54041
1.5715
1.58187
1.57812
1.57006
1.55165
1.51191
1.45467
1.42471
1.41974
1.4196
1.43057
1.46276
1.4916
1.49367
1.48885
1.47628
1.44536
1.38754
1.34062
1.32758
1.32618
1.32898
1.34668
1.38387
1.41228
1.41437
1.41054
1.40053
1.37468
1.32236
1.27124
1.25451
1.25209
1.25285
1.2647
1.29588
1.32754
1.33335
1.32991
1.32204
1.3021
1.26034
1.21494
1.19993
1.19836
1.19855
1.20848
1.23322
1.25194
1.28732
1.5209
2.08001
2.54203
2.7179
2.72688
2.75524
2.77355
2.782
2.77697
2.75699
2.73244
2.70642
2.67377
2.64992
2.63912
2.63916
2.64312
2.63252
2.61623
2.58704
2.54959
2.53797
2.55073
2.63764
2.85441
3.12122
3.30197
3.31204
3.27909
3.21848
3.19423
3.18834
3.20564
3.23479
3.23561
3.21667
3.18349
3.1295
3.07853
3.05878
3.04988
3.05819
3.08702
3.10046
3.08834
3.06544
3.0274
2.98925
2.97179
2.96023
2.9546
2.95616
2.94716
2.93176
2.91173
2.89
2.87641
2.86568
2.85801
2.85143
2.84037
2.82772
2.81221
2.79507
2.78235
2.77158
2.76263
2.75348
2.74183
2.72864
2.71138
2.68953
2.67242
2.66158
2.65328
2.64935
2.65118
2.64425
2.63183
2.61585
2.59097
2.56497
2.55228
2.54381
2.53781
2.53878
2.54509
2.53983
2.52845
2.514
2.49618
2.48408
2.47581
2.46888
2.46307
2.45556
2.44648
2.4364
2.42474
2.41185
3.37216
3.28786
3.17497
3.11879
3.10568
3.10017
3.10229
3.11346
3.10988
3.10199
3.09341
3.08222
3.05793
2.99611
2.90658
2.86381
2.85487
2.84679
2.84134
2.83642
2.82856
2.81853
2.80698
2.79175
2.76111
2.69429
2.62606
2.60926
2.60253
2.59806
2.59526
2.59289
2.5879
2.57936
2.56839
2.55132
2.5083
2.44
2.40758
2.40032
2.39413
2.39022
2.38457
2.37621
2.36704
2.35591
2.33767
2.30012
2.2451
2.2172
2.21242
2.2086
2.20561
2.20392
2.20388
2.20027
2.1933
2.18246
2.15433
2.10943
2.0717
2.05454
2.04691
2.03831
2.02614
2.00861
1.98789
1.97854
1.97518
1.97313
1.97032
1.96285
1.95383
1.94479
1.93383
1.91795
1.89015
1.84618
1.80427
1.79069
1.78973
1.7967
1.818
1.83101
1.82815
1.82335
1.81703
1.80584
1.782
1.73554
1.68142
1.65545
1.65178
1.65393
1.67029
1.69577
1.70397
1.69956
1.6929
1.68155
1.65786
1.61256
1.56255
1.54169
1.53925
1.54194
1.56071
1.58998
1.59979
1.59602
1.5886
1.57215
1.53653
1.48043
1.4458
1.43873
1.43834
1.4476
1.47819
1.50924
1.51313
1.50819
1.49612
1.4667
1.40925
1.35858
1.34325
1.34158
1.34381
1.36032
1.39747
1.42922
1.43303
1.42935
1.41986
1.39499
1.3429
1.28804
1.26864
1.26594
1.26637
1.27728
1.30821
1.34306
1.35137
1.34824
1.34103
1.32246
1.28229
1.23302
1.21383
1.21184
1.21142
1.21857
1.24302
1.26996
1.33672
1.567
2.20879
2.62384
2.7785
2.79333
2.78205
2.79857
2.81041
2.80908
2.79895
2.7677
2.72812
2.69989
2.68467
2.67504
2.67415
2.68018
2.67314
2.65621
2.62361
2.57772
2.55483
2.56037
2.62137
2.81286
3.08334
3.31405
3.34847
3.32183
3.25558
3.21989
3.21111
3.22745
3.26387
3.27259
3.25662
3.22761
3.17633
3.11578
3.08779
3.0763
3.07982
3.10725
3.12942
3.12165
3.1013
3.06807
3.02669
3.003
2.9905
2.98269
2.98419
2.97846
2.96329
2.9441
2.92012
2.90323
2.89198
2.88424
2.88035
2.87036
2.85755
2.84271
2.8241
2.80878
2.79748
2.78772
2.77949
2.7688
2.75627
2.74093
2.72025
2.70064
2.6889
2.67956
2.67339
2.67364
2.67032
2.6585
2.64349
2.62023
2.5909
2.57394
2.56493
2.55789
2.55547
2.56156
2.56053
2.54959
2.53677
2.52035
2.50505
2.49557
2.48812
2.48241
2.4763
2.46788
2.45827
2.44709
2.43406
2.4212
3.335
3.21904
3.15634
3.13973
3.13371
3.13403
3.14777
3.15425
3.14763
3.13987
3.12961
3.10961
3.05456
2.96099
2.89857
2.88537
2.87779
2.87301
2.87035
2.86509
2.85661
2.84624
2.83323
2.81082
2.75653
2.67716
2.64075
2.63345
2.62878
2.62757
2.62472
2.62034
2.61441
2.60535
2.59118
2.56037
2.49533
2.43831
2.42684
2.42037
2.41477
2.411
2.40569
2.39748
2.38711
2.37304
2.34695
2.29638
2.25244
2.24452
2.24058
2.23828
2.2357
2.23242
2.22916
2.22307
2.21259
2.19083
2.14456
2.09565
2.07818
2.07009
2.06214
2.05277
2.0387
2.02275
2.0162
2.01352
2.0081
1.99957
1.98662
1.97395
1.96358
1.95334
1.93977
1.91749
1.88171
1.84067
1.82341
1.82236
1.8262
1.84164
1.85053
1.84647
1.84177
1.83592
1.82633
1.80581
1.76559
1.71323
1.68445
1.67983
1.68086
1.69507
1.7172
1.72348
1.71878
1.71207
1.70179
1.68086
1.64076
1.59125
1.56671
1.56364
1.56553
1.5822
1.60865
1.61722
1.61329
1.60635
1.59173
1.56038
1.50688
1.46847
1.45913
1.45846
1.4661
1.49463
1.52676
1.53202
1.52723
1.51582
1.48811
1.43181
1.37727
1.35949
1.35743
1.35902
1.37424
1.41123
1.44596
1.45145
1.44789
1.43897
1.41539
1.36395
1.30493
1.28283
1.2797
1.27986
1.28972
1.31985
1.35759
1.3693
1.36655
1.35962
1.3424
1.30413
1.25168
1.22809
1.22509
1.2246
1.2301
1.25298
1.28532
1.38675
1.73017
2.25975
2.74781
2.82715
2.83836
2.8389
2.82478
2.83404
2.84357
2.83103
2.80618
2.76
2.71516
2.69717
2.68751
2.694
2.71131
2.7086
2.69291
2.66236
2.61619
2.57952
2.57648
2.61561
2.77418
3.04194
3.30402
3.38377
3.36648
3.30108
3.25426
3.24044
3.24845
3.28624
3.30619
3.29409
3.26933
3.22363
3.16041
3.12321
3.10989
3.10796
3.13004
3.15733
3.15526
3.13711
3.10615
3.06152
3.03287
3.01958
3.01044
3.01083
3.01116
2.99724
2.97811
2.9522
2.92999
2.91747
2.9079
2.90446
2.90062
2.88834
2.87429
2.85595
2.83697
2.82442
2.81392
2.8051
2.79499
2.78281
2.76851
2.74975
2.72905
2.71537
2.70544
2.69843
2.69767
2.69684
2.68612
2.67224
2.652
2.62233
2.5988
2.58778
2.57962
2.57469
2.57818
2.58221
2.57346
2.56058
2.54351
2.52575
2.51564
2.50751
2.50128
2.49658
2.48921
2.48015
2.4698
2.45705
2.44316
2.43111
3.26202
3.19479
3.1749
3.16858
3.16786
3.18213
3.19753
3.19374
3.1872
3.17802
3.16003
3.10924
3.01577
2.938
2.91696
2.91009
2.90583
2.90409
2.90152
2.89485
2.88573
2.87432
2.85681
2.81391
2.7354
2.67672
2.66539
2.65936
2.65815
2.65853
2.65374
2.64773
2.64018
2.62928
2.60727
2.55303
2.48011
2.45211
2.44626
2.44256
2.43727
2.43297
2.42813
2.42022
2.40866
2.38978
2.35084
2.29698
2.27723
2.27202
2.26862
2.26579
2.26128
2.25574
2.24919
2.24019
2.22308
2.18596
2.13053
2.09961
2.09429
2.08802
2.07976
2.07009
2.05898
2.05273
2.05036
2.04655
2.0346
2.01103
1.99374
1.98233
1.97231
1.96112
1.94436
1.91572
1.87752
1.85682
1.85534
1.85646
1.864
1.87008
1.86565
1.86045
1.85474
1.84609
1.82892
1.7955
1.74671
1.71442
1.70901
1.70925
1.72028
1.73771
1.74157
1.73696
1.73084
1.72188
1.70383
1.66902
1.62113
1.59317
1.58925
1.59039
1.60467
1.62764
1.63421
1.63001
1.62349
1.61069
1.5834
1.53434
1.49307
1.48084
1.47995
1.48613
1.5124
1.54435
1.55055
1.54591
1.53517
1.50948
1.45522
1.39723
1.37649
1.37392
1.3749
1.38878
1.42513
1.46233
1.46979
1.46646
1.45812
1.43591
1.38576
1.32345
1.29756
1.29345
1.29338
1.30211
1.3314
1.37142
1.38636
1.38416
1.37794
1.36222
1.32593
1.27102
1.24255
1.23812
1.23759
1.24188
1.26338
1.30562
1.41719
1.86589
2.4411
2.82092
2.8553
2.80839
2.82373
2.84822
2.87352
2.88327
2.8669
2.84413
2.80946
2.7566
2.7209
2.70942
2.71229
2.7346
2.74368
2.73132
2.70063
2.64676
2.6036
2.59845
2.62378
2.7533
3.00768
3.29273
3.41718
3.40845
3.34913
3.28952
3.27154
3.27259
3.30631
3.33648
3.32849
3.30635
3.26758
3.20766
3.16066
3.14452
3.13809
3.15475
3.18551
3.18993
3.17309
3.14465
3.10102
3.065
3.05014
3.04034
3.03949
3.04381
3.03224
3.01362
2.98791
2.96045
2.94502
2.93406
2.92779
2.92792
2.91912
2.90535
2.8886
2.86782
2.85237
2.84119
2.8315
2.82198
2.81018
2.79659
2.77861
2.75629
2.74075
2.73039
2.72239
2.72013
2.72302
2.71496
2.70116
2.6821
2.65265
2.62506
2.61238
2.60398
2.59778
2.59836
2.60318
2.59601
2.58332
2.56781
2.54913
2.5357
2.5271
2.51971
2.51472
2.5094
2.50104
2.49167
2.48048
2.46684
2.45391
2.44277
3.23444
3.21216
3.20548
3.20422
3.21885
3.24109
3.24157
3.23502
3.22698
3.20978
3.16078
3.0685
2.97892
2.94932
2.94252
2.93922
2.93954
2.93804
2.93342
2.92566
2.91556
2.90115
2.86757
2.79563
2.72043
2.69861
2.69167
2.68823
2.69033
2.68809
2.68191
2.67421
2.6644
2.64805
2.60684
2.53278
2.48101
2.47158
2.46775
2.46729
2.46192
2.45733
2.45288
2.44514
2.43205
2.40467
2.35106
2.31235
2.3025
2.29699
2.29376
2.28804
2.28163
2.27472
2.26547
2.25158
2.22363
2.17445
2.12921
2.11867
2.11434
2.10785
2.1009
2.09451
2.09084
2.08783
2.08234
2.0693
2.03863
2.01188
2.00004
1.99098
1.98129
1.96902
1.94845
1.91464
1.89064
1.88796
1.88834
1.88911
1.8881
1.88567
1.88039
1.8737
1.8653
1.85137
1.82368
1.78047
1.74514
1.73804
1.73767
1.74509
1.75827
1.75962
1.75477
1.74928
1.74159
1.72697
1.69703
1.65212
1.62111
1.61568
1.61609
1.62767
1.6467
1.65093
1.64642
1.64017
1.62901
1.60555
1.56182
1.51888
1.50375
1.50258
1.50753
1.5312
1.56214
1.56882
1.56406
1.55389
1.53046
1.47968
1.41917
1.39439
1.39119
1.39166
1.40409
1.43938
1.47866
1.48801
1.4848
1.47694
1.4564
1.40861
1.3429
1.31267
1.30771
1.3074
1.31483
1.34258
1.38436
1.40306
1.40151
1.39576
1.38129
1.34741
1.29127
1.2574
1.25089
1.25031
1.25395
1.27489
1.32892
1.49884
1.93737
2.61502
2.85715
2.88899
2.85075
2.81849
2.84189
2.89354
2.91417
2.90592
2.87698
2.83199
2.78658
2.76164
2.75051
2.74768
2.76223
2.77353
2.76123
2.73595
2.69063
2.63376
2.61055
2.62324
2.7233
2.96494
3.26564
3.44651
3.45184
3.40525
3.32799
3.30153
3.29822
3.32663
3.36568
3.36499
3.34378
3.30654
3.24704
3.19519
3.17769
3.17036
3.1829
3.21482
3.22586
3.21077
3.18361
3.13996
3.09636
3.07819
3.0675
3.06476
3.07264
3.06741
3.04994
3.025
2.99314
2.97275
2.96071
2.95214
2.95134
2.94914
2.93633
2.92093
2.90056
2.88132
2.86907
2.85858
2.84885
2.83751
2.82461
2.8083
2.7866
2.76692
2.75512
2.74606
2.74124
2.74464
2.74233
2.73026
2.7146
2.68836
2.65599
2.63808
2.62837
2.6211
2.61939
2.62481
2.62175
2.60998
2.59455
2.57235
2.55524
2.54634
2.53891
2.53374
2.52911
2.52113
2.51195
2.50162
2.48886
2.47553
2.46478
2.45474
3.25143
3.24455
3.24365
3.25973
3.28679
3.29123
3.28433
3.27638
3.25862
3.20969
3.11723
3.01958
2.98285
2.97501
2.97165
2.97502
2.97676
2.97254
2.96604
2.95716
2.94489
2.91857
2.85553
2.7696
2.73217
2.7248
2.72012
2.72097
2.72169
2.71638
2.70903
2.69963
2.6859
2.65477
2.58909
2.52025
2.50013
2.49392
2.49236
2.49437
2.48941
2.48465
2.47954
2.47119
2.45402
2.41006
2.35326
2.33168
2.32347
2.3189
2.31468
2.3068
2.29891
2.2903
2.27847
2.25843
2.21904
2.16795
2.14583
2.1423
2.13794
2.13201
2.12835
2.12601
2.12322
2.11809
2.10307
2.0681
2.03345
2.01767
2.00924
2.00049
1.98995
1.97558
1.95321
1.92806
1.92096
1.91839
1.91603
1.91021
1.90435
1.9002
1.89403
1.88506
1.87256
1.85062
1.81369
1.77696
1.76692
1.76625
1.76945
1.7772
1.77835
1.77371
1.76817
1.76116
1.74964
1.72476
1.68431
1.65035
1.64314
1.64274
1.65073
1.66546
1.6676
1.66285
1.65682
1.64717
1.62685
1.58901
1.54647
1.52764
1.52609
1.53
1.55062
1.5798
1.58677
1.58194
1.57217
1.55087
1.50436
1.44258
1.41351
1.40916
1.40936
1.42038
1.45416
1.49487
1.50591
1.50276
1.4954
1.47656
1.4318
1.36428
1.32927
1.32271
1.32223
1.32829
1.35432
1.39691
1.41883
1.41812
1.41292
1.39986
1.36849
1.3121
1.27267
1.2636
1.26258
1.26582
1.28721
1.35345
1.60716
2.10856
2.70585
2.94988
2.93571
2.92481
2.90368
2.89407
2.9288
2.95067
2.94298
2.91702
2.86024
2.79769
2.77164
2.76179
2.76632
2.79342
2.80771
2.79596
2.77084
2.72551
2.67001
2.64284
2.64995
2.71976
2.92799
3.22405
3.46161
3.4874
3.4586
3.37938
3.33854
3.32928
3.34939
3.39322
3.40296
3.38426
3.34899
3.29102
3.22926
3.20445
3.19568
3.20572
3.2405
3.26044
3.24872
3.22401
3.18213
3.1336
3.10968
3.09794
3.09271
3.10043
3.10126
3.08539
3.06221
3.02978
3.00283
2.98916
2.97904
2.97543
2.97702
2.96661
2.95158
2.93257
2.91123
2.8971
2.88624
2.87643
2.86534
2.85246
2.83684
2.81569
2.79363
2.78062
2.77097
2.76421
2.76476
2.76684
2.7563
2.74123
2.7196
2.68845
2.66549
2.65537
2.64783
2.64431
2.64892
2.64805
2.63619
2.62067
2.60028
2.57906
2.56678
2.55837
2.55263
2.54969
2.54221
2.5325
2.52191
2.50896
2.49427
2.48285
2.47406
2.46482
3.28571
3.28531
3.30436
3.33685
3.34361
3.3357
3.32711
3.30682
3.25595
3.16232
3.05881
3.01694
3.0077
3.00386
3.00794
3.01648
3.0134
3.00728
2.99944
2.98863
2.96773
2.91294
2.82281
2.76832
2.7583
2.75306
2.75295
2.75472
2.75051
2.74386
2.73515
2.72299
2.69944
2.64429
2.56708
2.53077
2.52364
2.51934
2.52092
2.52401
2.51902
2.5136
2.50672
2.49518
2.46461
2.40412
2.36188
2.34881
2.3414
2.33759
2.33228
2.32338
2.31439
2.3043
2.28988
2.26263
2.21395
2.17673
2.17082
2.16899
2.1652
2.16009
2.15799
2.15474
2.14908
2.13705
2.10364
2.05808
2.03558
2.0287
2.02181
2.01255
2.0007
1.98439
1.96642
1.95854
1.95139
1.94216
1.93473
1.92536
1.91756
1.91233
1.90535
1.89445
1.87715
1.84729
1.81026
1.79586
1.79449
1.79558
1.79743
1.79587
1.79284
1.78813
1.78129
1.77099
1.75094
1.71579
1.68034
1.6704
1.66981
1.67453
1.68426
1.68453
1.67972
1.67384
1.66512
1.64752
1.61527
1.57456
1.55274
1.55045
1.55304
1.57032
1.5969
1.60431
1.59959
1.59017
1.57065
1.52863
1.46778
1.43434
1.42818
1.42819
1.43766
1.4695
1.5108
1.52354
1.52048
1.51352
1.49631
1.45521
1.38747
1.34691
1.33876
1.33806
1.34285
1.36692
1.40956
1.4344
1.43446
1.42968
1.41804
1.3892
1.33364
1.28861
1.27618
1.27439
1.2769
1.30025
1.38293
1.67705
2.32206
2.81051
3.02665
2.9892
2.9046
2.90613
2.91862
2.95846
2.99033
2.9783
2.95484
2.91245
2.84535
2.79438
2.77939
2.77897
2.80655
2.83806
2.83476
2.81125
2.76273
2.69669
2.66097
2.66149
2.70931
2.89043
3.18009
3.45762
3.52124
3.5
3.42677
3.38102
3.36804
3.38061
3.42355
3.44172
3.42576
3.3929
3.33773
3.26936
3.23689
3.22603
3.23028
3.2625
3.29162
3.28516
3.26324
3.2243
3.17214
3.14091
3.12791
3.1208
3.12759
3.13416
3.12104
3.09954
3.06734
3.03487
3.01842
3.00724
3.00119
3.00351
2.99724
2.98257
2.96416
2.94113
2.92428
2.91305
2.90317
2.8932
2.88126
2.86708
2.84709
2.822
2.80525
2.7948
2.7868
2.78485
2.78915
2.78174
2.76777
2.74885
2.7198
2.69308
2.68091
2.67247
2.66796
2.67206
2.67576
2.66656
2.65215
2.63057
2.60363
2.58864
2.5796
2.57231
2.56952
2.56579
2.55626
2.54582
2.5327
2.51545
2.50041
2.49051
2.48165
2.47225
3.32949
3.35107
3.38821
3.3985
3.38975
3.37959
3.35532
3.30066
3.20369
3.09669
3.05114
3.04056
3.03645
3.0397
3.05357
3.0559
3.04974
3.04253
3.03277
3.01536
2.96771
2.87903
2.80852
2.79202
2.7861
2.78541
2.78862
2.78524
2.779
2.77111
2.76055
2.74221
2.69695
2.61877
2.56508
2.55526
2.5498
2.54863
2.55318
2.55382
2.54862
2.54182
2.53177
2.51064
2.45808
2.39686
2.37522
2.36471
2.35809
2.35474
2.34841
2.33926
2.32964
2.31806
2.30051
2.26567
2.21648
2.20039
2.19711
2.19707
2.19304
2.18731
2.18281
2.17722
2.16601
2.13901
2.09392
2.05648
2.04802
2.04366
2.0372
2.02799
2.01658
2.00387
1.99348
1.9876
1.97619
1.95664
1.94624
1.93823
1.92955
1.92251
1.91481
1.90244
1.88009
1.84581
1.82602
1.82281
1.82087
1.81974
1.81558
1.81131
1.80757
1.80199
1.79284
1.7766
1.74669
1.711
1.69715
1.69637
1.6985
1.70381
1.70224
1.69737
1.69155
1.68337
1.66824
1.64036
1.60286
1.57886
1.57564
1.57686
1.59053
1.6136
1.62106
1.61682
1.60807
1.58997
1.55211
1.49349
1.45657
1.44834
1.44814
1.45628
1.48571
1.52642
1.54083
1.53794
1.53117
1.51541
1.4781
1.41151
1.36606
1.35577
1.35492
1.35877
1.38069
1.42278
1.44995
1.45073
1.44615
1.43551
1.40944
1.35555
1.30592
1.29003
1.28646
1.28767
1.31312
1.42925
1.76903
2.43279
2.98387
3.05675
3.00749
2.93052
2.89231
2.90519
2.97024
3.02334
3.01733
2.99027
2.94407
2.88303
2.83746
2.8228
2.81626
2.83074
2.85911
2.8582
2.84028
2.80422
2.74244
2.68796
2.67694
2.70605
2.85339
3.1353
3.43846
3.55754
3.54388
3.47036
3.41308
3.39664
3.40557
3.45055
3.47928
3.46719
3.43886
3.3875
3.31555
3.27108
3.25668
3.25538
3.2824
3.31885
3.31979
3.30032
3.26592
3.21363
3.17325
3.15788
3.1486
3.15304
3.1646
3.15646
3.13675
3.10685
3.07034
3.04924
3.03731
3.02993
3.03201
3.02969
3.01538
2.99674
2.97226
2.95156
2.93927
2.92887
2.91978
2.90881
2.89597
2.87898
2.85442
2.83196
2.81984
2.81081
2.80578
2.8092
2.80669
2.79354
2.77619
2.74836
2.71795
2.70432
2.69622
2.69103
2.69465
2.70247
2.69645
2.68268
2.66305
2.63539
2.61301
2.60177
2.59342
2.58801
2.58745
2.58107
2.57083
2.55927
2.54333
2.5249
2.51124
2.50071
2.49034
2.47935
3.4002
3.44017
3.45258
3.44399
3.43198
3.40299
3.34441
3.24352
3.13366
3.08612
3.07387
3.06952
3.07198
3.08796
3.09863
3.09337
3.08675
3.07769
3.06234
3.02004
2.93505
2.8508
2.82512
2.81919
2.8175
2.82288
2.82107
2.81488
2.80754
2.79805
2.78344
2.74819
2.67592
2.60537
2.58685
2.58146
2.57959
2.58267
2.58468
2.58226
2.57639
2.56733
2.55125
2.50984
2.43961
2.39988
2.39071
2.3814
2.37635
2.3736
2.36675
2.35737
2.34705
2.33349
2.31122
2.27155
2.23474
2.2263
2.2232
2.2227
2.21739
2.21018
2.20253
2.19268
2.17048
2.13025
2.089
2.0701
2.06529
2.062
2.05665
2.04836
2.03988
2.03299
2.02493
2.00991
1.98741
1.96623
1.95541
1.94915
1.94127
1.93237
1.92306
1.90927
1.8835
1.85759
1.85137
1.8461
1.84105
1.83682
1.83125
1.82558
1.8207
1.81437
1.8027
1.77916
1.74365
1.72426
1.72247
1.72244
1.72344
1.72075
1.71582
1.70966
1.70155
1.68863
1.66477
1.63141
1.60601
1.60156
1.60183
1.61202
1.63103
1.6373
1.6334
1.6256
1.6089
1.57472
1.51926
1.48043
1.47006
1.4694
1.47609
1.50307
1.5423
1.55754
1.55493
1.54852
1.53411
1.50045
1.43653
1.38675
1.37386
1.37277
1.37575
1.39584
1.43696
1.46574
1.46703
1.46267
1.45313
1.42945
1.37812
1.32343
1.30461
1.3002
1.30055
1.32768
1.48804
1.9253
2.56831
3.07103
3.10578
3.06526
3.01725
2.97661
2.96646
3.00438
3.05386
3.05471
3.03087
2.97726
2.89992
2.8555
2.8424
2.84076
2.86301
2.89349
2.89183
2.87118
2.8316
2.77282
2.72109
2.71055
2.72871
2.84086
3.09349
3.40912
3.58796
3.58611
3.52214
3.44979
3.42665
3.42898
3.47036
3.51153
3.50727
3.48266
3.43613
3.3621
3.30747
3.29131
3.28597
3.30725
3.34671
3.35467
3.33715
3.30566
3.25577
3.20878
3.18996
3.17926
3.17942
3.19195
3.18949
3.17149
3.1446
3.10656
3.07942
3.06632
3.05753
3.05848
3.06198
3.05025
3.03228
3.00724
2.98154
2.96683
2.95578
2.94622
2.93571
2.92357
2.90855
2.88678
2.86172
2.8466
2.83648
2.82958
2.83006
2.83035
2.81906
2.8038
2.78061
2.74904
2.72794
2.71781
2.71092
2.71213
2.72297
2.72387
2.7127
2.69667
2.66978
2.64068
2.6265
2.61715
2.60968
2.60688
2.60428
2.59472
2.58377
2.57034
2.55318
2.53744
2.52562
2.51457
2.50245
2.48849
3.49288
3.50482
3.49623
3.48188
3.44835
3.38703
3.28227
3.17067
3.12183
3.10848
3.10381
3.1057
3.12181
3.14002
3.13836
3.13187
3.12363
3.1096
3.07029
2.98879
2.89417
2.85874
2.852
2.84936
2.85605
2.85826
2.8519
2.84491
2.83618
2.82392
2.79708
2.73424
2.65229
2.61927
2.61376
2.61111
2.61433
2.61578
2.61337
2.60905
2.60112
2.58814
2.55714
2.49151
2.42904
2.41392
2.40732
2.40148
2.39822
2.39602
2.38948
2.38025
2.36973
2.35378
2.32291
2.28369
2.25855
2.24976
2.24643
2.24375
2.23722
2.2284
2.21758
2.20027
2.16557
2.1242
2.09986
2.09072
2.08649
2.08486
2.081
2.07461
2.06866
2.06246
2.04671
2.01425
1.99013
1.97654
1.96683
1.96022
1.95305
1.94371
1.93259
1.91823
1.89756
1.87948
1.87099
1.8637
1.85598
1.85026
1.84518
1.83873
1.83164
1.82356
1.80986
1.78156
1.75308
1.74863
1.74604
1.74336
1.73956
1.73417
1.7278
1.71984
1.70833
1.68831
1.6594
1.63368
1.62812
1.62787
1.63535
1.65024
1.65411
1.64998
1.64235
1.62654
1.59601
1.54541
1.50556
1.49308
1.49192
1.4973
1.5218
1.55873
1.57378
1.57132
1.56534
1.55229
1.52224
1.46202
1.4086
1.39283
1.3914
1.39379
1.41213
1.45196
1.48172
1.48348
1.47906
1.47031
1.44929
1.40171
1.34256
1.31902
1.31426
1.31517
1.34814
1.55328
2.10563
2.72874
3.14262
3.18201
3.11262
3.02255
3.00974
3.00269
3.04137
3.09166
3.08879
3.06882
3.02449
2.94747
2.88462
2.86534
2.86238
2.8844
2.92518
2.93509
2.91751
2.87503
2.80392
2.74234
2.72529
2.73522
2.82517
3.06059
3.37736
3.60813
3.62374
3.57704
3.49623
3.46741
3.46309
3.49551
3.5412
3.54287
3.51961
3.47997
3.4137
3.34792
3.3239
3.31554
3.33039
3.37206
3.38972
3.37524
3.34634
3.29831
3.24506
3.22088
3.20918
3.20627
3.21834
3.22175
3.20612
3.18165
3.14419
3.1113
3.09649
3.0864
3.08469
3.09149
3.08405
3.06749
3.04433
3.01582
2.99714
2.98537
2.97519
2.96447
2.95178
2.93699
2.9168
2.89129
2.87368
2.86277
2.85458
2.85292
2.85522
2.84553
2.83036
2.80825
2.77499
2.7516
2.74196
2.73482
2.73296
2.74269
2.74836
2.73887
2.72385
2.7017
2.67152
2.65215
2.64245
2.63458
2.63054
2.62933
2.62032
2.60831
2.59441
2.5772
2.56083
2.54936
2.53978
2.52956
2.51675
2.49991
3.55511
3.54598
3.52833
3.49092
3.42758
3.31997
3.2088
3.15919
3.14497
3.14017
3.14191
3.15801
3.18072
3.18425
3.17783
3.17017
3.15679
3.11899
3.03984
2.93772
2.8928
2.88445
2.881
2.88716
2.89567
2.8904
2.88352
2.87546
2.86471
2.84421
2.79091
2.7043
2.65378
2.64574
2.6424
2.6454
2.64834
2.64497
2.64087
2.63421
2.62334
2.60044
2.54556
2.46906
2.43758
2.43166
2.4278
2.42653
2.42402
2.42214
2.41662
2.40794
2.39694
2.37582
2.32876
2.2966
2.27974
2.26998
2.26578
2.26112
2.25321
2.24256
2.22797
2.20171
2.16111
2.13251
2.12129
2.11483
2.1121
2.11208
2.10848
2.10259
2.09528
2.08099
2.04679
2.01202
1.99739
1.98824
1.98001
1.97365
1.9667
1.95788
1.94699
1.93433
1.91959
1.89934
1.88342
1.87672
1.8697
1.86262
1.857
1.85084
1.84268
1.83216
1.81699
1.79406
1.77586
1.76823
1.76287
1.75751
1.75201
1.74579
1.73804
1.72752
1.71109
1.68596
1.66127
1.65498
1.6546
1.66054
1.67139
1.67227
1.66749
1.6584
1.64238
1.61518
1.57096
1.53159
1.51708
1.51552
1.51973
1.54154
1.57573
1.58971
1.58714
1.58157
1.56993
1.54348
1.4881
1.43216
1.41293
1.41104
1.41275
1.42935
1.46761
1.49772
1.49975
1.49539
1.4874
1.4685
1.42594
1.36467
1.33424
1.32872
1.33138
1.37891
1.62862
2.25932
2.90131
3.2193
3.24101
3.18265
3.05218
2.99612
2.9961
3.04467
3.12179
3.1342
3.11369
3.06771
2.98969
2.92144
2.90051
2.89312
2.90558
2.94461
2.96039
2.94793
2.91783
2.85826
2.78458
2.74906
2.75179
2.81658
3.02393
3.34045
3.61467
3.66446
3.6291
3.54344
3.50393
3.49571
3.52377
3.57393
3.58259
3.56077
3.52168
3.45617
3.38729
3.36072
3.35157
3.36044
3.39821
3.42366
3.41225
3.38575
3.3406
3.28466
3.2535
3.24054
3.23496
3.24538
3.25348
3.24016
3.21716
3.18166
3.14343
3.1252
3.11441
3.1099
3.11723
3.11542
3.09996
3.07933
3.05115
3.02854
3.016
3.00559
2.99535
2.98325
2.96913
2.94942
2.92186
2.90005
2.88833
2.87919
2.87553
2.87943
2.87298
2.85911
2.84001
2.80943
2.778
2.76366
2.75471
2.75014
2.75785
2.7696
2.76388
2.75047
2.73132
2.70126
2.67628
2.66561
2.65741
2.65273
2.6539
2.64864
2.63738
2.62427
2.60581
2.58465
2.57073
2.56131
2.55212
2.5418
2.52885
2.512
3.59294
3.57132
3.53065
3.46579
3.35655
3.2478
3.19828
3.18364
3.17881
3.18099
3.19847
3.22314
3.23124
3.22473
3.21725
3.20371
3.16602
3.08865
2.98126
2.92766
2.91681
2.91271
2.91697
2.93053
2.92992
2.92328
2.91574
2.90612
2.88997
2.84585
2.76143
2.69295
2.67809
2.67341
2.67516
2.6806
2.67739
2.6729
2.66691
2.65755
2.64039
2.59715
2.51965
2.46623
2.45746
2.45337
2.45478
2.45666
2.45316
2.45114
2.44639
2.43807
2.42222
2.38046
2.32615
2.30847
2.29703
2.28701
2.28139
2.27504
2.26586
2.25363
2.23495
2.20137
2.16717
2.15493
2.14664
2.14195
2.14099
2.13971
2.13447
2.12659
2.11221
2.07998
2.03788
2.01897
2.01064
2.00146
1.99496
1.99033
1.9843
1.97658
1.9676
1.9566
1.93993
1.91175
1.89221
1.88709
1.88262
1.87604
1.86969
1.86358
1.85584
1.84518
1.83129
1.81478
1.79623
1.78208
1.77476
1.76875
1.76257
1.75549
1.74618
1.7322
1.71078
1.68855
1.68217