/*--------------------------------*- C++ -*----------------------------------*\
  =========                 |
  \\      /  F ield         | OpenFOAM: The Open Source CFD Toolbox
   \\    /   O peration     | Website:  https://openfoam.org
    \\  /    A nd           | Version:  7
     \\/     M anipulation  |
\*---------------------------------------------------------------------------*/
FoamFile
{
    version     2.0;
    format      ascii;
    class       volScalarField;
    location    "2.1";
    object      rho;
}
// * * * * * * * * * * * * * * * * * * * * * * * * * * * * * * * * * * * * * //

dimensions      [1 -3 0 0 0 0 0];

internalField   nonuniform List<scalar> 
3328
(
1.40001
1.40001
1.40001
1.40001
1.40001
1.40001
1.40001
1.40001
1.40001
1.40001
2.47815
5.11501
5.45494
5.51104
5.59742
5.67458
5.74052
5.78904
5.8145
5.82617
5.83968
5.85468
5.86838
5.88143
1.40001
1.40001
1.40001
1.40001
1.40001
1.40001
1.40001
1.40001
1.40001
1.40001
2.42619
5.08427
5.45127
5.51081
5.59506
5.67117
5.73599
5.78327
5.80655
5.81555
5.82718
5.8414
5.85459
5.8672
1.40001
1.40001
1.40001
1.40001
1.40001
1.40001
1.40001
1.40001
1.40001
1.40001
2.31059
5.03673
5.44607
5.50601
5.58741
5.66213
5.72596
5.77225
5.79354
5.79992
5.80942
5.82285
5.83575
5.84883
1.40001
1.40001
1.40001
1.40001
1.40001
1.40001
1.40001
1.40001
1.40001
1.40001
2.15324
4.95156
5.44285
5.50113
5.5767
5.64623
5.70695
5.75223
5.77323
5.7788
5.78608
5.79627
5.80493
5.81314
1.40001
1.40001
1.40001
1.40001
1.40001
1.40001
1.40001
1.40001
1.40001
1.40001
1.965
4.81552
5.44547
5.50251
5.56456
5.62589
5.68185
5.72371
5.74189
5.74342
5.7445
5.75025
5.75605
5.76932
1.40001
1.40001
1.40001
1.40001
1.40001
1.40001
1.40001
1.40001
1.40001
1.40001
1.76249
4.62969
5.4556
5.49005
5.54371
5.59788
5.64788
5.68375
5.69787
5.69692
5.69614
5.70271
5.70542
5.70045
1.40001
1.40001
1.40001
1.40001
1.40001
1.40001
1.40001
1.40001
1.40001
1.40001
1.55817
4.38758
5.47095
5.47981
5.52261
5.56983
5.61116
5.63736
5.64167
5.62922
5.61393
5.59933
5.58905
5.58892
1.40001
1.40001
1.40001
1.40001
1.40001
1.40001
1.40001
1.40001
1.40001
1.40001
1.4107
3.99875
5.40414
5.42262
5.46663
5.51418
5.55264
5.57437
5.57121
5.55068
5.52565
5.50341
5.46984
5.48704
1.40001
1.40001
1.40001
1.40001
1.40001
1.40001
1.40001
1.40001
1.40001
1.40001
1.40009
3.48413
5.2837
5.37012
5.42184
5.47209
5.50659
5.52206
5.50706
5.47438
5.42864
5.37278
5.20232
4.90001
1.40001
1.40001
1.40001
1.40001
1.40001
1.40001
1.40001
1.40001
1.40001
1.40001
1.40001
2.93287
5.12701
5.33847
5.38832
5.4342
5.46207
5.46983
5.44498
5.4043
5.3443
5.27487
5.14546
4.97271
1.40001
1.40001
1.40001
1.40001
1.40001
1.40001
1.40001
1.40001
1.40001
1.40001
1.40001
2.33185
4.94137
5.34272
5.36196
5.39614
5.41527
5.41493
5.38454
5.34497
5.29152
5.22143
5.14048
5.07273
1.40001
1.40001
1.40001
1.40001
1.40001
1.40001
1.40001
1.40001
1.40001
1.40001
1.40001
1.74081
4.68437
5.41947
5.37337
5.36205
5.35745
5.35192
5.33371
5.30671
5.28408
5.26829
5.29571
5.33611
1.40001
1.40001
1.40001
1.40001
1.40001
1.40001
1.40001
1.40001
1.40001
1.40001
1.40001
1.42492
4.07781
5.32025
5.29397
5.28763
5.29423
5.30386
5.32423
5.35758
5.40979
5.51343
5.61183
5.64262
1.40001
1.40001
1.40001
1.40001
1.40001
1.40001
1.40001
1.40001
1.40001
1.40001
1.40001
1.40007
3.26288
5.16111
5.24988
5.26192
5.28646
5.33886
5.42303
5.58999
5.74573
5.82273
5.83723
5.7969
1.40001
1.40001
1.40001
1.40001
1.40001
1.40001
1.40001
1.40001
1.40001
1.40001
1.40001
1.4
2.38904
4.90309
5.20304
5.24376
5.35515
5.55803
5.79369
5.93979
6.00188
5.98137
5.93157
5.84423
1.40001
1.40001
1.40001
1.40001
1.40001
1.40001
1.40001
1.40001
1.40001
1.40001
1.40001
1.4
1.59828
4.45969
5.26745
5.37675
5.66402
5.99331
6.14579
6.14129
6.08003
5.99848
5.91539
5.82047
1.40001
1.40001
1.40001
1.40001
1.40001
1.40001
1.40001
1.40001
1.40001
1.40001
1.40001
1.40001
1.40609
3.51643
5.23856
5.74785
6.13349
6.31907
6.31365
6.22182
6.09051
5.96513
5.86558
5.77218
1.40001
1.40001
1.40001
1.40001
1.40001
1.40001
1.40001
1.40001
1.40001
1.40001
1.40001
1.40001
1.39996
2.5882
5.62134
6.41743
6.45526
6.43484
6.34576
6.22092
6.07609
5.92673
5.81
5.71846
1.40001
1.40001
1.40001
1.40001
1.40001
1.40001
1.40001
1.40001
1.40001
1.40001
1.40001
1.40001
1.4
2.23645
5.83371
6.63366
6.52397
6.40079
6.29302
6.18628
6.06122
5.9199
5.78203
5.67935
1.40001
1.40001
1.40001
1.40001
1.40001
1.40001
1.40001
1.40001
1.40001
1.40001
1.40001
1.40001
1.4
2.39594
5.66326
6.40056
6.30956
6.26539
6.231
6.13939
6.05679
5.94024
5.79048
5.66755
1.40001
1.40001
1.40001
1.40001
1.40001
1.40001
1.40001
1.40001
1.40001
1.40001
1.40001
1.40001
1.4
2.6007
5.4458
6.05669
5.94259
5.99833
6.0577
6.09997
6.05663
5.96846
5.83131
5.68332
1.40001
1.40001
1.40001
1.40001
1.40001
1.40001
1.40001
1.40001
1.40001
1.40001
1.40001
1.40001
1.40001
2.67538
5.27073
5.79179
5.71088
5.83573
5.95024
6.03689
6.04894
5.98412
5.86781
5.7246
1.40001
1.40001
1.40001
1.40001
1.40001
1.40001
1.40001
1.40001
1.40001
1.40001
1.40001
1.40001
1.40001
2.66724
5.18639
5.61018
5.55891
5.68125
5.81344
5.94463
6.01055
5.96654
5.86287
5.74044
1.40001
1.40001
1.40001
1.40001
1.40001
1.40001
1.40001
1.40001
1.40001
1.40001
1.40001
1.40001
1.40001
2.56418
5.12219
5.54889
5.51642
5.57896
5.65834
5.76238
5.84361
5.87424
5.81668
5.72539
1.40001
1.40001
1.40001
1.40001
1.40001
1.40001
1.40001
1.40001
1.40001
1.40001
1.40001
1.40001
1.40001
2.42644
5.11145
5.52263
5.48217
5.496
5.5321
5.60653
5.68355
5.72995
5.74073
5.70993
1.40001
1.40001
1.40001
1.40001
1.40001
1.40001
1.40001
1.40001
1.40001
1.40001
1.40001
1.40001
1.40001
2.28065
5.10298
5.54579
5.48447
5.46809
5.47362
5.49121
5.53872
5.58269
5.62061
5.63332
1.40001
1.40001
1.40001
1.40001
1.40001
1.40001
1.40001
1.40001
1.40001
1.40001
1.40001
1.40001
1.40001
2.11033
5.04679
5.57745
5.49646
5.48283
5.47791
5.46639
5.4619
5.45516
5.46932
5.48716
1.40001
1.40001
1.40001
1.40001
1.40001
1.40001
1.40001
1.40001
1.40001
1.40001
1.40001
1.40001
1.40001
1.93956
4.93326
5.59591
5.52438
5.51497
5.50812
5.46837
5.42368
5.3712
5.34561
5.34347
1.40001
1.40001
1.40001
1.40001
1.40001
1.40001
1.40001
1.40001
1.40001
1.40001
1.40001
1.40001
1.40001
1.78659
4.76998
5.60124
5.5595
5.5742
5.5494
5.48507
5.40999
5.33796
5.28117
5.24389
1.40001
1.40001
1.40001
1.40001
1.40001
1.40001
1.40001
1.40001
1.40001
1.40001
1.40001
1.40001
1.40001
1.67061
4.60402
5.60561
5.59139
5.60964
5.57652
5.50484
5.42167
5.34171
5.27003
5.21164
1.40001
1.40001
1.40001
1.40001
1.40001
1.40001
1.40001
1.40001
1.40001
1.40001
1.40001
1.40001
1.40001
1.58883
4.47178
5.6122
5.6131
5.62138
5.59015
5.51845
5.43776
5.34619
5.27179
5.20058
1.40001
1.40001
1.40001
1.40001
1.40001
1.40001
1.40001
1.40001
1.40001
1.40001
1.40001
1.40001
1.40001
1.52424
4.36184
5.62045
5.62998
5.62874
5.59889
5.5247
5.44519
5.35519
5.26704
5.1883
1.40001
1.40001
1.40001
1.40001
1.40001
1.40001
1.40001
1.40001
1.40001
1.40001
1.40001
1.40001
1.40001
1.46983
4.26012
5.63102
5.6485
5.63733
5.60068
5.52274
5.44084
5.35256
5.26269
5.18297
1.40001
1.40001
1.40001
1.40001
1.40001
1.40001
1.40001
1.40001
1.40001
1.40001
1.40001
1.40001
1.40001
1.42805
4.16326
5.64214
5.67382
5.65225
5.60227
5.51824
5.4302
5.33996
5.25368
5.17766
1.40001
1.40001
1.40001
1.40001
1.40001
1.40001
1.40001
1.40001
1.40001
1.40001
1.40001
1.40001
1.40001
1.40466
4.07009
5.64997
5.7013
5.66609
5.60276
5.51269
5.41794
5.3258
5.24301
5.16926
1.40001
1.40001
1.40001
1.40001
1.40001
1.40001
1.40001
1.40001
1.40001
1.40001
1.40001
1.40001
1.40001
1.40001
3.98068
5.65353
5.71976
5.67087
5.59743
5.50294
5.40506
5.31627
5.23644
5.16839
1.40001
1.40001
1.40001
1.40001
1.40001
1.40001
1.40001
1.40001
1.40001
1.40001
1.40001
1.40001
1.40001
1.40001
3.91102
5.65098
5.72364
5.66312
5.58488
5.48686
5.39147
5.3085
5.23321
5.17377
1.40001
1.40001
1.40001
1.40001
1.40001
1.40001
1.40001
1.40001
1.40001
1.40001
1.40001
1.40001
1.40001
1.40001
3.86333
5.64577
5.71534
5.64806
5.56797
5.46919
5.37859
5.29974
5.22934
5.17779
1.40001
1.40001
1.40001
1.40001
1.40001
1.40001
1.40001
1.40001
1.40001
1.40001
1.40001
1.40001
1.40001
1.40001
3.83321
5.64009
5.70459
5.63532
5.55487
5.45662
5.36828
5.29164
5.22455
5.17853
1.40001
1.40001
1.40001
1.40001
1.40001
1.40001
1.40001
1.40001
1.40001
1.40001
1.40001
1.40001
1.40001
1.40001
3.82101
5.63645
5.70086
5.63032
5.54882
5.44947
5.36134
5.28389
5.21776
5.17561
4.03153
4.40394
4.49191
4.4423
4.3626
4.32535
4.32174
4.33618
4.80956
4.84419
4.64465
4.49815
4.36856
4.33624
4.32759
4.34139
5.05875
4.9558
4.70971
4.57044
4.43692
4.39465
4.37723
4.3924
5.35883
5.20288
4.92453
4.77719
4.59225
4.52246
4.47818
4.50152
5.60475
5.40321
5.1138
4.95656
4.78298
4.68602
4.60557
4.68029
5.68213
5.45787
5.21931
5.10604
4.9974
4.90107
4.81557
4.87279
5.69561
5.49111
5.29463
5.18969
5.13089
5.06434
4.99453
5.02206
5.68132
5.50228
5.33144
5.23386
5.21302
5.19773
5.12372
5.1615
5.6548
5.50494
5.36835
5.26886
5.22681
5.18748
4.99495
4.21274
5.62163
5.50303
5.3914
5.28319
5.20884
5.10602
4.8493
4.16486
5.57965
5.48209
5.38954
5.28865
5.18487
5.03233
4.78426
4.17273
5.55962
5.45912
5.37099
5.28122
5.16727
5.00022
4.74033
4.23332
5.55991
5.44348
5.34706
5.26106
5.15424
4.99012
4.73811
4.32588
5.58834
5.45965
5.34661
5.25082
5.14875
4.99693
4.76614
4.43597
5.61919
5.49515
5.37546
5.26628
5.15784
5.01997
4.81625
4.54554
5.63649
5.53389
5.42509
5.3176
5.20372
5.07164
4.88781
4.65049
5.64397
5.56506
5.4768
5.37033
5.25375
5.12794
4.96738
4.75798
5.61586
5.56623
5.49729
5.40415
5.29965
5.18234
5.04304
4.85944
5.50221
5.50092
5.46914
5.40701
5.32517
5.23378
5.11868
4.9594
5.36084
5.38257
5.3865
5.37267
5.32871
5.26537
5.17702
5.04697
5.23501
5.24653
5.26698
5.28558
5.28255
5.25763
5.19966
5.09348
5.16337
5.14106
5.14385
5.1604
5.17863
5.17899
5.14762
5.07037
5.13537
5.08485
5.05941
5.05646
5.0642
5.06246
5.0443
4.98723
5.11589
5.05899
5.02165
5.00002
4.98689
4.96885
4.93428
4.87871
5.11295
5.05891
5.02666
5.00316
4.97339
4.92393
4.85554
4.77906
5.11218
5.06677
5.04445
5.02701
4.9825
4.90957
4.81612
4.71633
5.11312
5.08147
5.06483
5.04143
4.98693
4.89869
4.7984
4.69798
5.12339
5.1012
5.08732
5.0614
5.00118
4.90759
4.80439
4.69827
5.14072
5.12607
5.11567
5.09097
5.0246
4.92234
4.81308
4.6989
5.15428
5.14876
5.14625
5.12297
5.04776
4.9405
4.82437
4.70137
5.16099
5.16263
5.16979
5.14951
5.06729
4.95668
4.83484
4.70548
5.16402
5.17309
5.1883
5.16806
5.08063
4.96733
4.83913
4.70355
1.91302
1.08669
0.855335
0.915134
1.10484
1.35996
1.64401
1.76898
1.83895
1.93187
2.12169
2.31654
2.39983
2.4705
2.6256
3.04077
3.28488
3.37273
3.37352
3.32219
3.2737
3.25659
3.25792
3.26262
3.24023
3.20687
3.17937
3.17568
3.17783
3.14044
3.09088
3.02481
2.93303
2.84266
2.76833
2.70499
2.65625
2.62077
2.58903
2.56172
2.54292
2.52222
2.49346
2.46235
2.42489
2.37593
2.32359
2.28396
2.25268
2.22367
2.19522
2.16698
2.13842
2.10827
2.07271
2.02282
1.95163
1.88678
1.85381
1.8321
1.812
1.79271
1.77524
1.76214
1.75532
1.7497
1.73687
1.71942
1.69908
1.6616
1.58002
1.49787
1.46638
1.4496
1.43483
1.42101
1.40775
1.3959
1.38741
1.38347
1.38103
1.3738
1.3635
1.3482
1.30645
1.23469
1.19803
1.17745
2.65584
2.00991
1.57593
1.48613
1.47852
1.48014
1.5413
1.68468
1.83248
1.97421
2.12286
2.2745
2.43369
2.52476
2.65515
3.03087
3.28181
3.37883
3.41377
3.40828
3.37767
3.35085
3.33672
3.3153
3.27648
3.23301
3.19561
3.17527
3.16802
3.13784
3.09033
3.02835
2.95629
2.88523
2.8183
2.75243
2.69457
2.65381
2.62081
2.59237
2.56925
2.54152
2.51056
2.47619
2.43252
2.37504
2.31474
2.27386
2.24625
2.22175
2.19831
2.17432
2.14899
2.12137
2.08895
2.0466
1.98703
1.9158
1.8678
1.84314
1.82335
1.80439
1.78684
1.77273
1.76313
1.75116
1.73475
1.71614
1.69256
1.65724
1.5966
1.51925
1.47306
1.45397
1.43984
1.42658
1.41395
1.403
1.39578
1.39245
1.38454
1.37237
1.35883
1.34044
1.3074
1.25092
1.20734
1.18085
3.22351
2.65741
2.20254
1.94066
1.78998
1.67648
1.67203
1.7418
1.89136
2.03724
2.15858
2.30544
2.47331
2.6253
2.78873
3.1562
3.4281
3.52503
3.51885
3.53443
3.52925
3.50528
3.46969
3.42795
3.37961
3.33061
3.29127
3.25576
3.21736
3.17446
3.11858
3.05401
2.99385
2.9391
2.88475
2.827
2.76925
2.72772
2.69716
2.67065
2.64261
2.61024
2.5743
2.52838
2.46741
2.39921
2.33999
2.29655
2.26339
2.23561
2.21079
2.18842
2.1653
2.14012
2.11245
2.08011
2.03769
1.98103
1.91935
1.87569
1.8524
1.83403
1.81798
1.80479
1.78736
1.76708
1.74583
1.7212
1.69107
1.65457
1.61197
1.55955
1.50167
1.46652
1.45093
1.43843
1.42689
1.41911
1.41548
1.40626
1.39301
1.37889
1.35941
1.33111
1.29984
1.26664
1.23331
1.19508
3.61296
3.12752
2.73953
2.42609
2.21973
2.05025
1.97533
1.96252
1.97319
2.01091
2.07384
2.19734
2.36812
2.56458
2.73442
3.0572
3.43891
3.68912
3.70118
3.70489
3.70454
3.68341
3.62887
3.55431
3.48625
3.43096
3.38347
3.33815
3.29142
3.24215
3.18912
3.13687
3.08959
3.04358
2.99287
2.93464
2.87408
2.82494
2.79145
2.76085
2.72849
2.69247
2.64872
2.59357
2.5309
2.47333
2.42498
2.37884
2.33537
2.30134
2.27448
2.24971
2.22492
2.19867
2.17027
2.13806
2.1011
2.05996
2.01192
1.95492
1.90705
1.88235
1.86467
1.84871
1.82884
1.8065
1.77962
1.74518
1.70532
1.66774
1.63772
1.60695
1.56433
1.51071
1.47872
1.46473
1.45342
1.44672
1.44076
1.4282
1.41435
1.3969
1.37028
1.33343
1.30048
1.28018
1.26246
1.2267
3.86888
3.48039
3.12795
2.81136
2.6065
2.41087
2.2429
2.18043
2.14015
2.11232
2.11323
2.13348
2.2124
2.36504
2.54685
2.79839
3.21615
3.61688
3.85469
3.88403
3.84923
3.79892
3.73418
3.64713
3.57383
3.51733
3.46122
3.39876
3.33753
3.28624
3.24597
3.21208
3.17901
3.14463
3.1055
3.0551
2.99342
2.93464
2.89016
2.85181
2.81124
2.76351
2.70628
2.64429
2.58926
2.54522
2.505
2.46279
2.41823
2.37755
2.34625
2.32023
2.29496
2.26838
2.2378
2.2024
2.16734
2.13613
2.10409
2.06238
2.00654
1.95428
1.9228
1.89988
1.87729
1.85238
1.82181
1.78219
1.73783
1.70296
1.67835
1.65567
1.62799
1.58595
1.53613
1.50995
1.49706
1.48472
1.47136
1.45742
1.44171
1.42094
1.38709
1.34322
1.31546
1.30165
1.2893
1.26378
4.07051
3.73273
3.43077
3.12176
2.89913
2.74338
2.57303
2.42652
2.36332
2.31701
2.26087
2.21845
2.1877
2.21548
2.30275
2.43807
2.74021
3.29546
3.77531
3.94574
3.92516
3.86293
3.78815
3.70497
3.6313
3.56919
3.50611
3.43385
3.36915
3.32665
3.29244
3.26427
3.24189
3.21325
3.17941
3.13688
3.07602
3.00401
2.94414
2.89623
2.84988
2.80099
2.75033
2.70406
2.66721
2.63305
2.59598
2.55444
2.50743
2.45738
2.41446
2.38242
2.35336
2.3222
2.28752
2.25297
2.22516
2.20168
2.17779
2.14862
2.10421
2.0403
1.98367
1.94843
1.91979
1.88961
1.85437
1.81485
1.77995
1.7542
1.73209
1.71023
1.68655
1.65624
1.61355
1.57056
1.54472
1.52718
1.51057
1.49304
1.47171
1.44125
1.39932
1.36587
1.35153
1.33949
1.33032
1.31744
4.24263
3.93677
3.66513
3.40112
3.15269
2.99073
2.8736
2.72664
2.57805
2.50235
2.45361
2.39176
2.30696
2.25347
2.25162
2.27744
2.37277
2.69455
3.37075
3.84851
3.91787
3.89228
3.83261
3.76413
3.68938
3.60801
3.53151
3.46133
3.40678
3.3661
3.33045
3.30115
3.27832
3.24803
3.21208
3.16853
3.10597
3.02516
2.95428
2.9016
2.85613
2.81517
2.78198
2.75499
2.73109
2.70296
2.67008
2.63093
2.58307
2.52645
2.46966
2.42294
2.38304
2.34378
2.3108
2.28771
2.26798
2.24842
2.22743
2.20344
2.16812
2.10815
2.03514
1.98347
1.94748
1.91262
1.87592
1.8447
1.82247
1.80327
1.78402
1.76391
1.74198
1.71608
1.67993
1.63074
1.58913
1.56584
1.54903
1.52889
1.49473
1.44897
1.41631
1.40588
1.40018
1.39575
1.40098
1.42812
4.3873
4.11594
3.86166
3.63629
3.41446
3.2192
3.09776
2.99719
2.85087
2.70781
2.64313
2.59522
2.50596
2.38403
2.31773
2.31959
2.31953
2.35929
2.64726
3.33066
3.75348
3.87667
3.86849
3.81414
3.74345
3.64301
3.55215
3.49282
3.45044
3.41022
3.37203
3.33546
3.29658
3.25763
3.21662
3.16927
3.10883
3.03233
2.95793
2.90501
2.86808
2.83859
2.81475
2.79903
2.78071
2.75491
2.72398
2.68391
2.63201
2.57014
2.50079
2.43566
2.38519
2.34904
2.32434
2.3042
2.28744
2.26999
2.25047
2.22922
2.20027
2.14891
2.07228
2.00701
1.96388
1.92499
1.89388
1.87417
1.85709
1.83973
1.82206
1.80406
1.78446
1.76142
1.73048
1.68587
1.63847
1.60378
1.57244
1.53513
1.49422
1.47008
1.4651
1.47024
1.48818
1.52012
1.57157
1.66997
4.52485
4.28442
4.04621
3.83172
3.64141
3.45305
3.29909
3.20114
3.09652
2.95158
2.8258
2.75749
2.68812
2.58163
2.462
2.40997
2.36179
2.35429
2.37822
2.59902
3.17097
3.65658
3.8231
3.83116
3.77406
3.68359
3.58834
3.52201
3.48127
3.44571
3.41276
3.37278
3.3272
3.27457
3.2169
3.159
3.1005
3.03897
2.97518
2.92476
2.89156
2.86443
2.84412
2.82774
2.80409
2.77617
2.74554
2.70592
2.65086
2.58107
2.50423
2.43139
2.38125
2.35343
2.332
2.3117
2.29266
2.27481
2.25625
2.23621
2.21071
2.16671
2.09189
2.01782
1.96995
1.93541
1.91202
1.8938
1.87631
1.85969
1.84471
1.82879
1.81092
1.79147
1.76807
1.73413
1.68102
1.61975
1.56806
1.53253
1.52293
1.52959
1.56054
1.62251
1.70756
1.79483
1.89112
1.95942
4.64818
4.43317
4.21662
4.00698
3.82937
3.66761
3.50554
3.38121
3.29277
3.18148
3.0415
2.92522
2.85779
2.77905
2.66103
2.55123
2.487
2.42074
2.39299
2.41152
2.54804
3.01798
3.53683
3.74139
3.75864
3.72447
3.64437
3.5694
3.50614
3.46485
3.43233
3.39639
3.35438
3.30277
3.23742
3.16267
3.0965
3.04656
3.00385
2.96223
2.92292
2.89041
2.86248
2.83685
2.81007
2.7823
2.75038
2.70668
2.64053
2.55719
2.48427
2.42941
2.38646
2.35598
2.33381
2.31425
2.29547
2.27682
2.25744
2.23567
2.20878
2.17049
2.10446
2.01465
1.95809
1.93691
1.92111
1.90428
1.88677
1.87013
1.85604
1.84637
1.83508
1.82008
1.80389
1.77306
1.69542
1.60893
1.58753
1.59492
1.63441
1.71215
1.81361
1.9159
2.00113
2.07568
2.14961
2.14901
4.76464
4.56627
4.37052
4.174
3.99919
3.85542
3.71231
3.57154
3.46911
3.38228
3.26496
3.1257
3.01629
2.93982
2.84345
2.71816
2.6326
2.55944
2.48862
2.44492
2.4522
2.52156
2.86006
3.31325
3.61849
3.66087
3.65409
3.61942
3.5521
3.4798
3.43479
3.4016
3.36694
3.32416
3.27132
3.19796
3.11344
3.05603
3.02167
2.99022
2.95675
2.91827
2.87481
2.83361
2.79764
2.76466
2.73235
2.69322
2.63335
2.54883
2.471
2.42432
2.39125
2.36073
2.33429
2.3133
2.29366
2.2739
2.25404
2.23188
2.20577
2.17014
2.10928
2.02344
1.96985
1.94511
1.92341
1.90618
1.89065
1.87745
1.87063
1.86962
1.86598
1.85217
1.83194
1.78508
1.70822
1.68892
1.72343
1.80583
1.91678
2.03705
2.10432
2.13376
2.17161
2.22533
2.2564
2.22646
4.8734
4.69122
4.51035
4.3296
4.16086
4.02221
3.90376
3.7695
3.64691
3.55777
3.46228
3.33518
3.19312
3.0886
3.00411
2.89673
2.78769
2.71674
2.64138
2.56763
2.50901
2.48676
2.51305
2.68518
3.07616
3.39574
3.55751
3.59794
3.57669
3.49896
3.43777
3.40203
3.37676
3.34214
3.30007
3.24215
3.15049
3.06604
3.02401
2.99428
2.96586
2.9322
2.88492
2.83109
2.78694
2.74937
2.71324
2.67567
2.62914
2.55989
2.4795
2.42392
2.38879
2.35945
2.3335
2.31086
2.29037
2.26895
2.24532
2.22015
2.19153
2.15474
2.10277
2.03838
1.98844
1.95723
1.93373
1.91733
1.90554
1.89982
1.89836
1.89194
1.88111
1.87809
1.88545
1.89809
1.91176
1.97138
2.04687
2.12811
2.20764
2.22276
2.2333
2.24728
2.27727
2.31315
2.31604
2.26782
4.9444
4.78391
4.6232
4.46707
4.30843
4.16797
4.06152
3.95029
3.8216
3.71306
3.62519
3.51607
3.37587
3.23912
3.14618
3.05634
2.95375
2.86287
2.78716
2.71033
2.62834
2.5513
2.51027
2.4914
2.56028
2.81266
3.1402
3.40993
3.52611
3.48877
3.44497
3.40248
3.38264
3.35876
3.31771
3.26751
3.18801
3.08732
3.0255
2.99504
2.96942
2.93684
2.8895
2.83367
2.78559
2.74452
2.70381
2.66174
2.61956
2.57248
2.50339
2.42941
2.40007
2.37899
2.35318
2.32683
2.30176
2.2739
2.24245
2.21296
2.18323
2.14655
2.10375
2.05992
2.01457
1.97532
1.95375
1.94264
1.93478
1.92399
1.92049
1.93057
1.96466
2.04749
2.13447
2.18424
2.2322
2.28622
2.32374
2.31516
2.30146
2.29
2.29576
2.3232
2.35137
2.34979
2.33897
2.27182
4.9599
4.82742
4.68768
4.55171
4.41911
4.29378
4.18446
4.08757
3.9645
3.84058
3.74616
3.65569
3.52956
3.38125
3.26922
3.18273
3.09065
2.99948
2.91422
2.83714
2.75863
2.67347
2.59305
2.5265
2.47672
2.47473
2.58863
2.8693
3.19268
3.3744
3.40058
3.3927
3.39729
3.37279
3.33217
3.27816
3.20409
3.11459
3.03811
2.97744
2.93001
2.89929
2.87193
2.83539
2.79001
2.74788
2.70586
2.6644
2.6247
2.58501
2.5292
2.45636
2.3983
2.36436
2.33644
2.30737
2.27871
2.2575
2.23613
2.21106
2.181
2.14809
2.11908
2.09042
2.05394
2.0167
1.98135
1.96436
1.96933
2.00134
2.06258
2.15358
2.26959
2.3626
2.40908
2.44272
2.47314
2.47042
2.44721
2.40157
2.37132
2.35879
2.36331
2.39087
2.38312
2.35557
2.32571
2.25175
4.90298
4.79803
4.69098
4.58491
4.46777
4.35687
4.25708
4.18085
4.07735
3.94472
3.81943
3.73101
3.63697
3.49436
3.35242
3.27339
3.19308
3.10162
3.01789
2.93736
2.85977
2.78421
2.70086
2.6146
2.52052
2.45481
2.4083
2.44371
2.62078
2.91287
3.17449
3.30235
3.32911
3.33797
3.30497
3.24611
3.18172
3.11897
3.04637
2.97533
2.91509
2.86348
2.8284
2.80142
2.77576
2.74512
2.71068
2.67624
2.63659
2.58642
2.53102
2.46889
2.39664
2.35635
2.33486
2.30831
2.27618
2.24836
2.22233
2.19469
2.1739
2.15751
2.14211
2.12194
2.08416
2.03035
2.03281
2.0746
2.16536
2.28532
2.39734
2.49934
2.54207
2.54888
2.55754
2.56019
2.55314
2.52547
2.47889
2.44559
2.43066
2.42254
2.42201
2.40915
2.38445
2.34865
2.30023
2.23184
4.8113
4.73233
4.64861
4.5573
4.46888
4.38071
4.28338
4.19356
4.11755
4.02156
3.90662
3.78832
3.68766
3.57192
3.42201
3.30964
3.23569
3.15615
3.07657
3.00328
2.93026
2.85368
2.77534
2.69362
2.60068
2.49632
2.41
2.36307
2.35047
2.42404
2.63579
2.90488
3.09134
3.21411
3.23349
3.21715
3.16036
3.0689
3.00215
2.94884
2.89289
2.83316
2.79151
2.76772
2.74557
2.7324
2.71761
2.68837
2.65221
2.60149
2.53457
2.46056
2.40537
2.35763
2.31479
2.27874
2.24718
2.22356
2.20513
2.19305
2.19083
2.18825
2.18253
2.17971
2.1814
2.21074
2.29081
2.40425
2.51577
2.59222
2.64834
2.65816
2.66039
2.67253
2.66977
2.6527
2.62059
2.57205
2.51109
2.48393
2.47239
2.46371
2.44353
2.41454
2.37044
2.32145
2.28429
2.2371
4.70105
4.62837
4.56273
4.49705
4.42833
4.34697
4.26506
4.18435
4.1175
4.03061
3.91944
3.80121
3.67914
3.55704
3.42972
3.32569
3.26718
3.21381
3.14121
3.06594
2.99593
2.92209
2.84115
2.75327
2.66536
2.57722
2.47487
2.37228
2.30223
2.27474
2.28401
2.37726
2.59205
2.82419
3.0116
3.11213
3.09972
3.03789
2.95072
2.88977
2.8402
2.78824
2.74801
2.72775
2.70969
2.68875
2.66302
2.63676
2.60963
2.57995
2.53442
2.4668
2.39218
2.32201
2.2721
2.25048
2.2362
2.22308
2.2162
2.2123
2.21911
2.2488
2.32995
2.41887
2.50019
2.58713
2.64856
2.71076
2.73851
2.71808
2.70401
2.69209
2.6927
2.71855
2.73294
2.71253
2.67578
2.62859
2.56661
2.51551
2.48772
2.46217
2.43214
2.38539
2.33052
2.29953
2.27939
2.26043
4.62243
4.54286
4.47551
4.41424
4.35592
4.29471
4.22843
4.15486
4.08928
4.00407
3.8961
3.78098
3.65951
3.53674
3.41724
3.32261
3.25253
3.19382
3.12521
3.05342
2.97886
2.90039
2.81825
2.73937
2.66345
2.57508
2.46185
2.34011
2.26452
2.22017
2.19163
2.17718
2.21478
2.33806
2.54728
2.77761
2.92381
2.92475
2.8628
2.81999
2.77777
2.73373
2.69454
2.66977
2.65003
2.63188
2.614
2.59538
2.56996
2.53375
2.48187
2.41186
2.33464
2.27286
2.24493
2.23571
2.23359
2.23317
2.25391
2.31171
2.42076
2.58402
2.73391
2.78703
2.82785
2.83312
2.83239
2.81234
2.79026
2.76651
2.73451
2.70744
2.69916
2.70748
2.70652
2.6992
2.68164
2.64702
2.58546
2.5195
2.47598
2.44299
2.4059
2.36085
2.3223
2.30216
2.28859
2.27951
4.59923
4.50796
4.42506
4.35292
4.29383
4.23862
4.17748
4.11323
4.04982
3.95899
3.84771
3.73088
3.60916
3.49212
3.39086
3.30395
3.22989
3.17171
3.10782
3.03634
2.96215
2.88468
2.80476
2.72571
2.64461
2.54637
2.42806
2.33427
2.26773
2.21099
2.16337
2.11877
2.09072
2.08502
2.14056
2.27748
2.49624
2.63077
2.68419
2.69292
2.68488
2.66007
2.61609
2.5884
2.56941
2.562
2.55385
2.53391
2.50908
2.47579
2.42475
2.35041
2.28861
2.25345
2.24226
2.2458
2.27283
2.35729
2.50638
2.6671
2.83507
2.96592
3.01189
2.99848
2.95416
2.88789
2.85344
2.82308
2.80036
2.78779
2.76631
2.74399
2.73334
2.71724
2.69729
2.68017
2.65891
2.62883
2.57972
2.51548
2.45929
2.41566
2.37769
2.34321
2.32409
2.31484
2.31403
2.32065
4.59369
4.49427
4.40227
4.32199
4.25836
4.20949
4.16053
4.1078
4.03613
3.92479
3.80335
3.67723
3.55337
3.44179
3.34435
3.25789
3.18233
3.12187
3.06911
2.99928
2.92658
2.85101
2.7718
2.6903
2.603
2.50093
2.388
2.30276
2.24357
2.18965
2.13738
2.08709
2.04335
2.00536
1.98088
1.98134
2.04556
2.17189
2.30906
2.41685
2.50597
2.54701
2.52849
2.50626
2.48206
2.47558
2.468
2.44159
2.41798
2.3977
2.368
2.32063
2.27168
2.27552
2.32036
2.41835
2.56819
2.74729
2.86805
2.95475
3.04706
3.07114
3.06757
3.04458
2.98221
2.89074
2.84383
2.82301
2.79429
2.75868
2.72982
2.71311
2.70543
2.69659
2.67743
2.6569
2.63268
2.59893
2.54958
2.48785
2.43262
2.39275
2.35958
2.33808
2.32646
2.32031
2.32583
2.31032
4.5869
4.48055
4.38259
4.29948
4.23622
4.19462
4.17249
4.13516
4.03938
3.91825
3.78508
3.63992
3.50744
3.3982
3.3014
3.21451
3.1393
3.08019
3.03456
2.96714
2.89175
2.81407
2.73094
2.64272
2.54881
2.44646
2.34165
2.26031
2.20398
2.15455
2.10581
2.05814
2.01117
1.96564
1.92348
1.88465
1.85468
1.86011
1.91359
2.02178
2.15731
2.28402
2.3935
2.40607
2.40314
2.40154
2.3901
2.36695
2.35835
2.35221
2.33476
2.34273
2.38578
2.49793
2.64419
2.79081
2.91892
2.98606
3.00356
3.01904
3.05945
3.07688
3.06203
3.03218
2.97426
2.88714
2.81617
2.77864
2.74831
2.72289
2.70553
2.69122
2.6817
2.67171
2.65438
2.63463
2.61044
2.57623
2.52152
2.44717
2.39248
2.37112
2.35959
2.34874
2.3411
2.33748
2.32868
2.29981
4.58309
4.47345
4.37378
4.29205
4.23567
4.20679
4.19869
4.14676
4.03508
3.91155
3.77327
3.62803
3.49558
3.3824
3.27877
3.1841
3.10311
3.04187
3.00162
2.93711
2.8603
2.78162
2.69738
2.60636
2.50836
2.40373
2.3021
2.22352
2.16819
2.12095
2.07541
2.03055
1.98746
1.94494
1.90345
1.86209
1.82004
1.78489
1.73874
1.72752
1.78385
1.90738
2.08012
2.20653
2.27132
2.30923
2.3214
2.33708
2.36909
2.42465
2.49374
2.58988
2.71292
2.83102
2.90563
2.97679
3.01677
3.01065
3.01345
3.02206
3.03161
3.02216
2.99515
2.95986
2.91163
2.84435
2.78217
2.73788
2.70395
2.68411
2.66893
2.65919
2.65438
2.64081
2.62187
2.60265
2.57964
2.54638
2.49304
2.4222
2.37542
2.35488
2.33955
2.32699
2.31912
2.31423
2.30393
2.27518
4.58322
4.47108
4.36961
4.28791
4.23395
4.21123
4.19752
4.12597
4.01305
3.89259
3.76676
3.63861
3.50823
3.37778
3.25984
3.1642
3.083
3.02547
2.99595
2.93802
2.86188
2.78426
2.70143
2.60773
2.49695
2.37728
2.27247
2.19863
2.14456
2.09794
2.0564
2.01753
1.97984
1.94318
1.90653
1.86727
1.82502
1.76963
1.70267
1.62376
1.59093
1.61932
1.72058
1.89
2.04654
2.16469
2.27216
2.41145
2.60058
2.73949
2.82764
2.8935
2.93144
2.95197
2.96976
2.99135
2.99906
2.97929
2.9668
2.96572
2.98043
2.96973
2.94241
2.91672
2.88799
2.83997
2.77134
2.71165
2.68035
2.66254
2.6473
2.64113
2.64097
2.62401
2.60323
2.5823
2.5575
2.52176
2.4699
2.40677
2.36958
2.35606
2.34311
2.33103
2.32037
2.30562
2.28993
2.25913
4.57975
4.46657
4.36321
4.28452
4.23691
4.21789
4.20233
4.12639
4.01629
3.90034
3.7804
3.65531
3.51838
3.37522
3.25408
3.16156
3.08085
3.02584
3.00193
2.94897
2.87562
2.80125
2.71568
2.60941
2.48529
2.35997
2.25836
2.18811
2.13611
2.09173
2.05131
2.01544
1.98236
1.94839
1.91502
1.87911
1.83502
1.77287
1.68641
1.60335
1.54894
1.53131
1.54409
1.60644
1.76003
2.00888
2.33872
2.64227
2.88026
3.09594
3.22352
3.26638
3.23924
3.14885
3.06775
3.03656
2.99581
2.95044
2.93512
2.93295
2.94377
2.93498
2.91129
2.89148
2.86856
2.82488
2.74809
2.6878
2.66636
2.65242
2.64096
2.63827
2.64372
2.62586
2.60387
2.58152
2.55322
2.51325
2.4615
2.40474
2.36878
2.35397
2.33983
2.32579
2.3141
2.29835
2.28295
2.25257
)
;

boundaryField
{
    inlet
    {
        type            calculated;
        value           uniform 1.40001;
    }
    outlet
    {
        type            calculated;
        value           nonuniform List<scalar> 
24
(
1.17704
1.18057
1.19565
1.22765
1.26395
1.31773
1.42996
1.67378
1.96208
2.1492
2.22605
2.26824
2.27484
2.25512
2.23331
2.23739
2.25902
2.27649
2.31738
2.30934
2.29936
2.2746
2.25892
2.25232
)
;
    }
    bottom
    {
        type            calculated;
        value           nonuniform List<scalar> 
24
(
1.40001
1.40001
1.40001
1.40001
1.40001
1.40001
1.40001
1.40001
1.40001
1.40001
2.47815
5.11501
5.45494
5.51104
5.59742
5.67458
5.74052
5.78904
5.8145
5.82617
5.83968
5.85468
5.86838
5.88143
)
;
    }
    top
    {
        type            calculated;
        value           nonuniform List<scalar> 
120
(
1.40001
1.40001
1.40001
1.40001
1.40001
1.40001
1.40001
1.40001
1.40001
1.40001
1.40001
1.40001
1.40001
1.40001
3.82101
5.63645
5.70086
5.63032
5.54882
5.44947
5.36134
5.28389
5.21776
5.17561
5.16402
5.17309
5.1883
5.16806
5.08063
4.96733
4.83913
4.70355
4.57975
4.46657
4.36321
4.28452
4.23691
4.21789
4.20233
4.12639
4.01629
3.90034
3.7804
3.65531
3.51838
3.37522
3.25408
3.16156
3.08085
3.02584
3.00193
2.94897
2.87562
2.80125
2.71568
2.60941
2.48529
2.35997
2.25836
2.18811
2.13611
2.09173
2.05131
2.01544
1.98236
1.94839
1.91502
1.87911
1.83502
1.77287
1.68641
1.60335
1.54894
1.53131
1.54409
1.60644
1.76003
2.00888
2.33872
2.64227
2.88026
3.09594
3.22352
3.26638
3.23924
3.14885
3.06775
3.03656
2.99581
2.95044
2.93512
2.93295
2.94377
2.93498
2.91129
2.89148
2.86856
2.82488
2.74809
2.6878
2.66636
2.65242
2.64096
2.63827
2.64372
2.62586
2.60387
2.58152
2.55322
2.51325
2.4615
2.40474
2.36878
2.35397
2.33983
2.32579
2.3141
2.29835
2.28295
2.25257
)
;
    }
    obstacle
    {
        type            calculated;
        value           nonuniform List<scalar> 
112
(
5.88143
5.8672
5.84883
5.81314
5.76932
5.70045
5.58892
5.48704
4.03153
4.40394
4.49191
4.4423
4.3626
4.32535
4.32174
4.33618
4.33618
4.34139
4.3924
4.50152
4.68029
4.87279
5.02206
5.1615
1.91302
1.08669
0.855335
0.915134
1.10484
1.35996
1.64401
1.76898
1.83895
1.93187
2.12169
2.31654
2.39983
2.4705
2.6256
3.04077
3.28488
3.37273
3.37352
3.32219
3.2737
3.25659
3.25792
3.26262
3.24023
3.20687
3.17937
3.17568
3.17783
3.14044
3.09088
3.02481
2.93303
2.84266
2.76833
2.70499
2.65625
2.62077
2.58903
2.56172
2.54292
2.52222
2.49346
2.46235
2.42489
2.37593
2.32359
2.28396
2.25268
2.22367
2.19522
2.16698
2.13842
2.10827
2.07271
2.02282
1.95163
1.88678
1.85381
1.8321
1.812
1.79271
1.77524
1.76214
1.75532
1.7497
1.73687
1.71942
1.69908
1.6616
1.58002
1.49787
1.46638
1.4496
1.43483
1.42101
1.40775
1.3959
1.38741
1.38347
1.38103
1.3738
1.3635
1.3482
1.30645
1.23469
1.19803
1.17745
)
;
    }
    defaultFaces
    {
        type            empty;
    }
}


// ************************************************************************* //
