/*--------------------------------*- C++ -*----------------------------------*\
  =========                 |
  \\      /  F ield         | OpenFOAM: The Open Source CFD Toolbox
   \\    /   O peration     | Website:  https://openfoam.org
    \\  /    A nd           | Version:  7
     \\/     M anipulation  |
\*---------------------------------------------------------------------------*/
FoamFile
{
    version     2.0;
    format      ascii;
    class       volScalarField;
    location    "2.1";
    object      rho;
}
// * * * * * * * * * * * * * * * * * * * * * * * * * * * * * * * * * * * * * //

dimensions      [1 -3 0 0 0 0 0];

internalField   nonuniform List<scalar> 
4048
(
1.40001
1.40001
1.40001
1.40001
1.40001
1.40001
1.40001
1.40001
1.40001
1.40001
1.40001
1.40001
1.40001
1.40001
1.40001
1.40001
3.68832
5.46256
5.53076
5.61222
5.70372
5.78827
5.86272
5.9277
1.40001
1.40001
1.40001
1.40001
1.40001
1.40001
1.40001
1.40001
1.40001
1.40001
1.40001
1.40001
1.40001
1.40001
1.40001
1.40001
3.58461
5.41848
5.50854
5.58704
5.67597
5.75552
5.81612
5.85213
1.40001
1.40001
1.40001
1.40001
1.40001
1.40001
1.40001
1.40001
1.40001
1.40001
1.40001
1.40001
1.40001
1.40001
1.40001
1.40001
3.3788
5.35915
5.46849
5.53655
5.60898
5.66238
5.69835
5.74052
1.40001
1.40001
1.40001
1.40001
1.40001
1.40001
1.40001
1.40001
1.40001
1.40001
1.40001
1.40001
1.40001
1.40001
1.40001
1.40001
3.07895
5.26453
5.41672
5.47584
5.54015
5.5895
5.5854
5.6663
1.40001
1.40001
1.40001
1.40001
1.40001
1.40001
1.40001
1.40001
1.40001
1.40001
1.40001
1.40001
1.40001
1.40001
1.40001
1.40001
2.70595
5.12396
5.37618
5.41282
5.4421
5.4519
5.28213
4.98046
1.40001
1.40001
1.40001
1.40001
1.40001
1.40001
1.40001
1.40001
1.40001
1.40001
1.40001
1.40001
1.40001
1.40001
1.40001
1.40001
2.25316
4.91571
5.36194
5.3672
5.36633
5.33866
5.19898
4.98353
1.40001
1.40001
1.40001
1.40001
1.40001
1.40001
1.40001
1.40001
1.40001
1.40001
1.40001
1.40001
1.40001
1.40001
1.40001
1.40001
1.76417
4.61333
5.38453
5.33109
5.29727
5.23315
5.10518
4.9289
1.40001
1.40001
1.40001
1.40001
1.40001
1.40001
1.40001
1.40001
1.40001
1.40001
1.40001
1.40001
1.40001
1.40001
1.40001
1.40001
1.43746
4.00948
5.29727
5.25514
5.21348
5.14374
5.04752
4.92387
1.40001
1.40001
1.40001
1.40001
1.40001
1.40001
1.40001
1.40001
1.40001
1.40001
1.40001
1.40001
1.40001
1.40001
1.40001
1.40001
1.40009
3.20644
5.11909
5.18536
5.147
5.08322
5.0064
4.90316
1.40001
1.40001
1.40001
1.40001
1.40001
1.40001
1.40001
1.40001
1.40001
1.40001
1.40001
1.40001
1.40001
1.40001
1.40001
1.40001
1.4
2.29413
4.86216
5.17434
5.12853
5.05939
4.97195
4.87267
1.40001
1.40001
1.40001
1.40001
1.40001
1.40001
1.40001
1.40001
1.40001
1.40001
1.40001
1.40001
1.40001
1.40001
1.40001
1.40001
1.4
1.56199
4.30187
5.19544
5.11309
5.02505
4.92216
4.81482
1.40001
1.40001
1.40001
1.40001
1.40001
1.40001
1.40001
1.40001
1.40001
1.40001
1.40001
1.40001
1.40001
1.40001
1.40001
1.40001
1.4
1.40302
3.35684
5.0506
5.03565
4.96422
4.8645
4.74867
1.40001
1.40001
1.40001
1.40001
1.40001
1.40001
1.40001
1.40001
1.40001
1.40001
1.40001
1.40001
1.40001
1.40001
1.40001
1.40001
1.40001
1.39997
2.19236
4.85404
5.06383
4.95194
4.83793
4.71217
1.40001
1.40001
1.40001
1.40001
1.40001
1.40001
1.40001
1.40001
1.40001
1.40001
1.40001
1.40001
1.40001
1.40001
1.40001
1.40001
1.40001
1.4
1.50212
4.06962
5.00169
4.88865
4.79756
4.66663
1.40001
1.40001
1.40001
1.40001
1.40001
1.40001
1.40001
1.40001
1.40001
1.40001
1.40001
1.40001
1.40001
1.40001
1.40001
1.40001
1.40001
1.4
1.40092
2.79361
4.79847
4.85743
4.78354
4.66645
1.40001
1.40001
1.40001
1.40001
1.40001
1.40001
1.40001
1.40001
1.40001
1.40001
1.40001
1.40001
1.40001
1.40001
1.40001
1.40001
1.40001
1.4
1.4
1.68653
4.27794
4.91114
4.79133
4.66132
1.40001
1.40001
1.40001
1.40001
1.40001
1.40001
1.40001
1.40001
1.40001
1.40001
1.40001
1.40001
1.40001
1.40001
1.40001
1.40001
1.40001
1.40001
1.4
1.41011
3.0782
4.73729
4.73962
4.63203
1.40001
1.40001
1.40001
1.40001
1.40001
1.40001
1.40001
1.40001
1.40001
1.40001
1.40001
1.40001
1.40001
1.40001
1.40001
1.40001
1.40001
1.40001
1.4
1.40001
1.80928
4.25524
4.79341
4.64506
1.40001
1.40001
1.40001
1.40001
1.40001
1.40001
1.40001
1.40001
1.40001
1.40001
1.40001
1.40001
1.40001
1.40001
1.40001
1.40001
1.40001
1.40001
1.40001
1.40001
1.42161
3.03914
4.65824
4.62684
1.40001
1.40001
1.40001
1.40001
1.40001
1.40001
1.40001
1.40001
1.40001
1.40001
1.40001
1.40001
1.40001
1.40001
1.40001
1.40001
1.40001
1.40001
1.40001
1.40001
1.4001
1.78828
4.06509
4.6782
1.40001
1.40001
1.40001
1.40001
1.40001
1.40001
1.40001
1.40001
1.40001
1.40001
1.40001
1.40001
1.40001
1.40001
1.40001
1.40001
1.40001
1.40001
1.40001
1.40001
1.40001
1.41883
2.67368
4.5069
1.40001
1.40001
1.40001
1.40001
1.40001
1.40001
1.40001
1.40001
1.40001
1.40001
1.40001
1.40001
1.40001
1.40001
1.40001
1.40001
1.40001
1.40001
1.40001
1.40001
1.40001
1.40014
1.6296
3.68801
1.40001
1.40001
1.40001
1.40001
1.40001
1.40001
1.40001
1.40001
1.40001
1.40001
1.40001
1.40001
1.40001
1.40001
1.40001
1.40001
1.40001
1.40001
1.40001
1.40001
1.40001
1.40001
1.40668
2.22663
1.40001
1.40001
1.40001
1.40001
1.40001
1.40001
1.40001
1.40001
1.40001
1.40001
1.40001
1.40001
1.40001
1.40001
1.40001
1.40001
1.40001
1.40001
1.40001
1.40001
1.40001
1.40001
1.40004
1.48806
1.40001
1.40001
1.40001
1.40001
1.40001
1.40001
1.40001
1.40001
1.40001
1.40001
1.40001
1.40001
1.40001
1.40001
1.40001
1.40001
1.40001
1.40001
1.40001
1.40001
1.40001
1.40001
1.40001
1.40149
1.40001
1.40001
1.40001
1.40001
1.40001
1.40001
1.40001
1.40001
1.40001
1.40001
1.40001
1.40001
1.40001
1.40001
1.40001
1.40001
1.40001
1.40001
1.40001
1.40001
1.40001
1.40001
1.40001
1.40001
1.40001
1.40001
1.40001
1.40001
1.40001
1.40001
1.40001
1.40001
1.40001
1.40001
1.40001
1.40001
1.40001
1.40001
1.40001
1.40001
1.40001
1.40001
1.40001
1.40001
1.40001
1.40001
1.40001
1.40001
1.40001
1.40001
1.40001
1.40001
1.40001
1.40001
1.40001
1.40001
1.40001
1.40001
1.40001
1.40001
1.40001
1.40001
1.40001
1.40001
1.40001
1.40001
1.40001
1.40001
1.40001
1.40001
1.40001
1.40001
1.40001
1.40001
1.40001
1.40001
1.40001
1.40001
1.40001
1.40001
1.40001
1.40001
1.40001
1.40001
1.40001
1.40001
1.40001
1.40001
1.40001
1.40001
1.40001
1.40001
1.40001
1.40001
1.40001
1.40001
1.40001
1.40001
1.40001
1.40001
1.40001
1.40001
1.40001
1.40001
1.40001
1.40001
1.40001
1.40001
1.40001
1.40001
1.40001
1.40001
1.40001
1.40001
1.40001
1.40001
1.40001
1.40001
1.40001
1.40001
1.40001
1.40001
1.40001
1.40001
1.40001
1.40001
1.40001
1.40001
1.40001
1.40001
1.40001
1.40001
1.40001
1.40001
1.40001
1.40001
1.40001
1.40001
1.40001
1.40001
1.40001
1.40001
1.40001
1.40001
1.40001
1.40001
1.40001
1.40001
1.40001
1.40001
1.40001
1.40001
1.40001
1.40001
1.40001
1.40001
1.40001
1.40001
1.40001
1.40001
1.40001
1.40001
1.40001
1.40001
1.40001
1.40001
1.40001
1.40001
1.40001
1.40001
1.40001
1.40001
1.40001
1.40001
1.40001
1.40001
1.40001
1.40001
1.40001
1.40001
1.40001
1.40001
1.40001
1.40001
1.40001
1.40001
1.40001
1.40001
1.40001
1.40001
1.40001
1.40001
1.40001
1.40001
1.40001
1.40001
1.40001
1.40001
1.40001
1.40001
1.40001
1.40001
1.40001
1.40001
1.40001
1.40001
1.40001
1.40001
1.40001
1.40001
1.40001
1.40001
1.40001
1.40001
1.40001
1.40001
1.40001
1.40001
1.40001
1.40001
1.40001
1.40001
1.40001
1.40001
1.40001
1.40001
1.40001
1.40001
1.40001
1.40001
1.40001
1.40001
1.40001
1.40001
1.40001
1.40001
1.40001
1.40001
1.40001
1.40001
1.40001
1.40001
1.40001
1.40001
1.40001
1.40001
1.40001
1.40001
1.40001
1.40001
1.40001
1.40001
1.40001
1.40001
1.40001
1.40001
1.40001
1.40001
1.40001
1.40001
1.40001
1.40001
1.40001
1.40001
1.40001
1.40001
1.40001
1.40001
1.40001
1.40001
1.40001
1.40001
1.40001
1.40001
1.40001
1.40001
1.40001
1.40001
1.40001
1.40001
1.40001
1.40001
1.40001
1.40001
1.40001
1.40001
1.40001
1.40001
1.40001
1.40001
1.40001
1.40001
1.40001
1.40001
1.40001
1.40001
1.40001
1.40001
1.40001
1.40001
1.40001
1.40001
1.40001
1.40001
1.40001
1.40001
1.40001
1.40001
1.40001
1.40001
1.40001
1.40001
1.40001
1.40001
1.40001
1.40001
1.40001
1.40001
1.40001
1.40001
1.40001
1.40001
1.40001
1.40001
1.40001
1.40001
1.40001
1.40001
1.40001
1.40001
1.40001
1.40001
1.40001
1.40001
1.40001
1.40001
1.40001
1.40001
1.40001
1.40001
1.40001
1.40001
1.40001
1.40001
1.40001
1.40001
1.40001
1.40001
1.40001
1.40001
1.40001
1.40001
1.40001
1.40001
1.40001
1.40001
1.40001
1.40001
1.40001
1.40001
3.97448
4.37979
4.49365
4.58022
4.65507
4.7575
4.6497
4.643
4.73679
4.69023
4.56561
4.55961
4.81126
4.74207
4.59421
4.593
4.79909
4.70039
4.4169
3.63411
4.75368
4.58604
4.23278
3.53261
4.67382
4.4865
4.12064
3.54196
4.59837
4.39269
4.03435
3.55823
4.54123
4.32361
4.00017
3.59991
4.49401
4.27881
3.99003
3.64276
4.49582
4.27528
3.99889
3.69084
4.48967
4.27695
4.01879
3.74191
4.4768
4.28108
4.04396
3.79126
4.48127
4.28981
4.06851
3.83912
4.47054
4.29126
4.09264
3.88506
4.49884
4.32663
4.13957
3.94088
4.51823
4.35836
4.17847
3.98727
4.59643
4.4244
4.24176
4.04843
4.20707
4.46817
4.28155
4.09478
3.02588
4.37466
4.33494
4.16909
1.77869
3.66353
4.37118
4.25524
1.41874
2.2529
4.00897
4.2924
1.40019
1.49469
2.78443
4.12769
1.40001
1.40195
1.66456
3.24571
1.40001
1.40001
1.4105
1.92908
1.40001
1.40001
1.4001
1.43783
1.40001
1.40001
1.40001
1.40056
1.40001
1.40001
1.40001
1.40001
1.40001
1.40001
1.40001
1.40001
1.40001
1.40001
1.40001
1.40001
1.40001
1.40001
1.40001
1.40001
1.40001
1.40001
1.40001
1.40001
1.40001
1.40001
1.40001
1.40001
1.40001
1.40001
1.40001
1.40001
1.40001
1.40001
1.40001
1.40001
1.40001
1.40001
1.40001
1.40001
1.46591
0.713702
0.50646
0.532308
0.551965
0.590367
0.689906
0.821955
0.899626
0.926029
0.938769
0.954229
0.97575
1.00937
1.04247
1.04927
1.04777
1.04558
1.0438
1.04118
1.03938
1.04207
1.05011
1.05796
1.06515
1.06981
1.0716
1.07042
1.06251
1.05854
1.0579
1.05972
1.06799
1.07726
1.07859
1.07624
1.07009
1.06173
1.05609
1.05339
1.05134
1.05072
1.06331
1.15422
1.50019
2.20686
3.04647
3.40982
3.33074
3.13261
3.04527
3.01954
2.98715
2.93579
2.88802
2.84311
2.7994
2.75479
2.70898
2.66137
2.61645
2.58399
2.55906
2.54473
2.53117
2.50186
2.46596
2.41651
2.34645
2.28427
2.25329
2.23307
2.2239
2.23312
2.22927
2.20694
2.17653
2.11787
2.03216
1.98508
1.96557
1.95147
1.9482
1.96011
1.95519
1.93832
1.91358
1.86218
1.79128
1.75483
1.7413
1.72661
2.11459
1.43354
1.07671
0.965422
0.869003
0.805875
0.807558
0.805766
0.827545
0.85958
0.892094
0.932666
0.967272
1.00489
1.04101
1.04817
1.04773
1.0464
1.04956
1.05078
1.054
1.0625
1.07056
1.07635
1.0829
1.08801
1.0887
1.08755
1.08218
1.07723
1.07459
1.07333
1.07562
1.07834
1.07835
1.07839
1.07716
1.07444
1.07185
1.06919
1.06772
1.07961
1.18796
1.46317
1.7891
2.03309
2.45524
2.93666
3.137
3.11986
3.0841
3.05511
3.002
2.95609
2.9167
2.87478
2.8371
2.79611
2.75019
2.69929
2.64343
2.59415
2.5624
2.53953
2.52688
2.51006
2.47924
2.44205
2.39458
2.33259
2.27813
2.25157
2.23634
2.22915
2.21557
2.19608
2.17075
2.13192
2.08025
2.02359
1.98596
1.96866
1.96048
1.95736
1.94613
1.92952
1.90758
1.87335
1.82757
1.78138
1.75521
1.73703
2.57087
1.96962
1.54927
1.28723
1.11673
0.973533
0.913413
0.871002
0.858466
0.884132
0.933652
0.978561
1.008
1.03373
1.06482
1.07874
1.08801
1.10099
1.11812
1.12347
1.12317
1.12713
1.13095
1.13035
1.12624
1.124
1.12125
1.11562
1.1124
1.11137
1.11117
1.11387
1.11747
1.1175
1.11582
1.11242
1.10785
1.10081
1.09637
1.09717
1.11498
1.2289
1.5619
1.88597
2.04787
2.03183
2.09011
2.40839
2.87112
3.19061
3.24068
3.173
3.09781
3.04673
2.99118
2.93807
2.90408
2.87118
2.83453
2.79289
2.7398
2.67119
2.60768
2.56877
2.5404
2.51547
2.49651
2.47427
2.44822
2.41731
2.36927
2.30936
2.27091
2.24752
2.2245
2.19689
2.16553
2.14183
2.12134
2.09662
2.05746
2.01211
1.98512
1.9676
1.94942
1.92746
1.90135
1.87822
1.8594
1.83813
1.80944
1.76624
2.88662
2.34873
1.94391
1.65246
1.43584
1.25255
1.15322
1.08794
1.00869
0.970322
0.97395
0.966563
0.974929
0.995559
1.0319
1.06117
1.08604
1.10766
1.13311
1.15641
1.16253
1.17181
1.18401
1.18564
1.18238
1.17572
1.1661
1.15447
1.15
1.14911
1.1494
1.15249
1.15676
1.1581
1.15771
1.15472
1.14911
1.13982
1.13682
1.15838
1.27829
1.63285
1.98519
2.11725
2.12297
2.08698
2.08573
2.11357
2.30517
2.74956
3.05725
3.16727
3.1786
3.14936
3.08388
3.02218
2.97634
2.93656
2.90226
2.86917
2.82821
2.76735
2.68918
2.63112
2.59546
2.567
2.54499
2.52847
2.50984
2.48601
2.45567
2.40244
2.33145
2.28126
2.24621
2.2151
2.19248
2.17836
2.17103
2.157
2.13502
2.09636
2.03897
1.99329
1.96215
1.93437
1.91343
1.90121
1.89434
1.88325
1.86784
1.82396
3.09683
2.64109
2.25752
1.96359
1.72124
1.50896
1.38002
1.27909
1.17938
1.08992
1.05157
1.00559
0.975431
0.984176
1.0011
1.02598
1.04937
1.07337
1.1042
1.13471
1.15205
1.16714
1.18395
1.20496
1.20838
1.2095
1.20679
1.20234
1.19694
1.19206
1.18811
1.18434
1.18161
1.18107
1.17999
1.17624
1.17369
1.17549
1.20652
1.38482
1.70929
2.09671
2.18943
2.18435
2.17222
2.14351
2.11621
2.10204
2.1028
2.20139
2.49006
2.84733
3.06471
3.1165
3.10596
3.0788
3.04407
3.00723
2.97264
2.93014
2.88682
2.83746
2.76546
2.6877
2.64079
2.61249
2.58945
2.57571
2.56479
2.54513
2.51951
2.47659
2.39761
2.31353
2.26976
2.24714
2.23155
2.22561
2.22523
2.21503
2.19711
2.16816
2.10374
2.02281
1.97765
1.95615
1.94313
1.93614
1.93598
1.92764
1.91443
1.87454
3.22552
2.84734
2.50368
2.21081
1.96909
1.75929
1.59905
1.46967
1.35755
1.26106
1.19585
1.13687
1.06426
1.04963
1.04023
1.02433
1.02297
1.03405
1.06062
1.08773
1.11424
1.13743
1.16011
1.1898
1.19808
1.20177
1.21182
1.22122
1.22171
1.22103
1.21893
1.21385
1.20442
1.19576
1.18998
1.18513
1.1885
1.22099
1.43925
1.84267
2.13112
2.26014
2.2422
2.20636
2.17801
2.15626
2.13792
2.12081
2.09083
2.07839
2.10642
2.25155
2.55487
2.83124
3.00318
3.02355
3.02613
3.02977
3.02049
2.9803
2.93083
2.87891
2.82002
2.74548
2.6789
2.64104
2.61831
2.6049
2.59325
2.57305
2.54568
2.50714
2.44955
2.37435
2.31529
2.28767
2.2715
2.26611
2.26985
2.25924
2.23666
2.20269
2.14364
2.06583
2.01148
1.98965
1.97619
1.96802
1.96854
1.96434
1.955
1.91425
3.33449
2.99131
2.69306
2.42784
2.17107
1.9646
1.80524
1.65912
1.52453
1.42253
1.33678
1.25371
1.17846
1.12912
1.09683
1.05659
1.03604
1.04239
1.05045
1.05318
1.06072
1.07667
1.09933
1.1302
1.15795
1.17612
1.19805
1.21617
1.21939
1.22516
1.22577
1.22409
1.21743
1.20752
1.20041
1.2036
1.24102
1.44502
1.92555
2.18167
2.27933
2.27097
2.22784
2.1956
2.17925
2.16212
2.13925
2.11875
2.09694
2.06529
2.05112
2.04175
2.09042
2.26359
2.55567
2.78832
2.91965
2.96945
2.98904
2.99678
2.9687
2.90806
2.85435
2.79213
2.7357
2.67876
2.63144
2.60179
2.57688
2.55732
2.53608
2.51034
2.4785
2.43994
2.39389
2.3457
2.31347
2.29307
2.27128
2.24529
2.21889
2.19015
2.15495
2.1129
2.07102
2.0367
2.01835
2.00912
2.00679
1.99665
1.98016
1.92993
3.4247
3.1161
2.84671
2.59505
2.33968
2.15075
1.98578
1.83095
1.67952
1.58358
1.48619
1.39276
1.30245
1.24951
1.20131
1.14957
1.10328
1.09538
1.08195
1.0614
1.04973
1.04929
1.0546
1.06772
1.09449
1.12767
1.16023
1.19285
1.20741
1.2166
1.22184
1.22139
1.21574
1.20995
1.21345
1.2834
1.52121
1.94092
2.25287
2.28435
2.27462
2.26713
2.24881
2.21398
2.19204
2.1724
2.13923
2.09567
2.07086
2.05241
2.03646
2.0211
2.01679
2.01747
2.08886
2.26726
2.52327
2.73469
2.85119
2.92676
2.92898
2.91865
2.88049
2.83286
2.78662
2.72899
2.66291
2.60786
2.57698
2.55205
2.53003
2.51035
2.49101
2.47176
2.44671
2.4074
2.35459
2.30393
2.26368
2.23193
2.20361
2.175
2.15426
2.13845
2.1214
2.09794
2.06438
2.03339
2.0113
1.9883
1.96377
1.91601
3.50713
3.22545
2.97399
2.73823
2.50484
2.31003
2.14839
1.98086
1.83083
1.72719
1.62796
1.52494
1.42873
1.37322
1.31368
1.25106
1.18424
1.15212
1.11876
1.08174
1.05791
1.05667
1.05658
1.05661
1.06276
1.08068
1.10546
1.13456
1.16313
1.18024
1.19998
1.21083
1.20465
1.20778
1.2917
1.65447
1.99839
2.27234
2.33164
2.30806
2.28007
2.26093
2.2443
2.22902
2.2024
2.17172
2.12748
2.07727
2.05251
2.03918
2.03233
2.02679
2.01137
2.00285
1.98738
1.98147
2.04244
2.2164
2.45426
2.68691
2.79102
2.85089
2.87085
2.86243
2.82765
2.77277
2.70778
2.64006
2.58507
2.5543
2.53393
2.51492
2.49855
2.48148
2.46283
2.43661
2.389
2.3197
2.26212
2.22338
2.19569
2.17846
2.16795
2.16154
2.14996
2.13246
2.10303
2.05175
2.00477
1.97644
1.95191
1.9114
3.58264
3.32418
3.09216
2.86644
2.64313
2.45577
2.29362
2.12579
1.97425
1.85984
1.75546
1.64796
1.55548
1.49168
1.42406
1.35559
1.28853
1.24357
1.19916
1.15151
1.10546
1.10085
1.08983
1.07249
1.06827
1.07146
1.07383
1.07898
1.09428
1.11687
1.14837
1.17253
1.19307
1.27827
1.67462
2.10848
2.2996
2.35898
2.32523
2.28818
2.26852
2.25593
2.24506
2.23455
2.21009
2.178
2.13218
2.07456
2.04446
2.03119
2.02657
2.02816
2.01193
1.99527
1.97813
1.96769
1.92685
1.91476
1.97954
2.17182
2.42439
2.61912
2.77883
2.82069
2.81804
2.79772
2.7497
2.68662
2.61944
2.57112
2.54482
2.52637
2.5059
2.48352
2.46389
2.44161
2.40227
2.3401
2.27774
2.23592
2.21152
2.1964
2.186
2.18367
2.17498
2.15647
2.12456
2.06398
2.00286
1.96784
1.94452
1.91946
3.65001
3.41781
3.20009
2.97948
2.76875
2.59335
2.42465
2.24966
2.11021
1.99476
1.88197
1.7582
1.67251
1.60577
1.53277
1.45541
1.3876
1.34096
1.28775
1.23365
1.17909
1.15682
1.1321
1.10121
1.07792
1.07686
1.07432
1.06845
1.06854
1.07484
1.0936
1.11709
1.23614
1.59236
2.1228
2.27539
2.34952
2.33792
2.2838
2.2583
2.25165
2.24917
2.25145
2.24175
2.2152
2.18419
2.14595
2.09304
2.04787
2.02813
2.01642
2.01176
2.00587
1.98917
1.97192
1.95453
1.93183
1.90217
1.86229
1.87214
1.95834
2.14521
2.39205
2.58725
2.73236
2.75858
2.7443
2.72258
2.66973
2.6181
2.5683
2.53617
2.51271
2.48701
2.46
2.43359
2.39944
2.35171
2.30651
2.2783
2.25511
2.22998
2.20775
2.18913
2.1667
2.14297
2.11461
2.0678
2.00827
1.96954
1.95475
1.93835
3.71576
3.50187
3.29794
3.08385
2.88463
2.71174
2.54546
2.37491
2.24177
2.11735
1.99725
1.87201
1.79283
1.71615
1.63731
1.5499
1.48767
1.43764
1.38191
1.32099
1.26554
1.23706
1.20371
1.16594
1.12707
1.11594
1.10233
1.08325
1.07227
1.07511
1.08386
1.20535
1.56748
2.01457
2.23335
2.26702
2.28149
2.27341
2.24093
2.22655
2.23159
2.24688
2.2495
2.23467
2.21334
2.18661
2.15475
2.11609
2.06985
2.03165
2.0091
1.99637
1.98996
1.98024
1.96494
1.94615
1.92386
1.8998
1.87324
1.84425
1.82469
1.84312
1.92995
2.10063
2.33311
2.50689
2.64311
2.67708
2.67397
2.6653
2.62181
2.56317
2.52801
2.49656
2.46353
2.43503
2.405
2.36526
2.3362
2.31578
2.29354
2.26735
2.23614
2.20194
2.168
2.13239
2.09511
2.05834
2.02607
1.99896
1.98516
1.96301
3.77801
3.56997
3.37408
3.17826
2.99258
2.82394
2.65112
2.48699
2.36084
2.24157
2.11243
1.98526
1.90432
1.81862
1.73682
1.64707
1.58746
1.52985
1.46935
1.40556
1.35415
1.31996
1.27908
1.23283
1.18793
1.1618
1.13688
1.10758
1.08571
1.09151
1.19531
1.61009
1.98312
2.17767
2.20971
2.19867
2.18667
2.18456
2.1832
2.18167
2.1808
2.18657
2.19048
2.18888
2.18595
2.17346
2.15422
2.12865
2.09389
2.05407
2.01479
1.98867
1.97391
1.96393
1.95375
1.93546
1.91385
1.89586
1.87539
1.84942
1.8263
1.80302
1.78385
1.79879
1.86721
2.02505
2.24221
2.43482
2.56935
2.62691
2.6197
2.58577
2.55731
2.52434
2.48435
2.45132
2.42115
2.38819
2.36044
2.33457
2.31092
2.28613
2.25639
2.22136
2.17894
2.13176
2.08969
2.06041
2.04342
2.02802
2.01662
1.98907
3.84761
3.64258
3.4507
3.27078
3.09389
2.92502
2.75857
2.60361
2.47355
2.35661
2.21769
2.09917
2.01284
1.9283
1.83186
1.73982
1.68455
1.62137
1.55938
1.48552
1.4414
1.40362
1.35664
1.31057
1.26321
1.22979
1.19349
1.15624
1.16086
1.26858
1.67107
2.09
2.19504
2.18674
2.17954
2.16036
2.14274
2.12841
2.10803
2.09021
2.08741
2.09399
2.10577
2.11186
2.11621
2.13261
2.13897
2.12523
2.10225
2.0692
2.02896
1.99057
1.96292
1.94685
1.93595
1.92723
1.91459
1.89898
1.8764
1.84614
1.81725
1.7958
1.77853
1.76034
1.74292
1.75391
1.81013
1.96822
2.16798
2.39721
2.49262
2.5337
2.53541
2.51995
2.49616
2.47848
2.4446
2.42002
2.39778
2.36855
2.3299
2.28975
2.25804
2.23006
2.19011
2.14875
2.12174
2.09972
2.07308
2.04448
2.03041
2.00285
3.90451
3.71613
3.52937
3.34635
3.18146
3.0266
2.86396
2.70475
2.57597
2.45688
2.32725
2.21002
2.11397
2.02265
1.92255
1.8378
1.77686
1.71113
1.64149
1.56516
1.52516
1.48178
1.43543
1.38259
1.33898
1.29887
1.26007
1.24821
1.36416
1.76413
2.22313
2.31246
2.27551
2.22537
2.18691
2.16314
2.13843
2.1196
2.10662
2.07377
2.02572
2.01035
2.01057
2.01862
2.02857
2.04698
2.0672
2.07794
2.07185
2.05214
2.02717
1.99795
1.96098
1.93525
1.92365
1.9163
1.91158
1.89791
1.87647
1.84315
1.8045
1.78028
1.76618
1.75406
1.74288
1.72433
1.70146
1.70831
1.75938
1.8947
2.08555
2.28065
2.40368
2.42941
2.4403
2.43391
2.43897
2.45187
2.43931
2.41337
2.37342
2.31822
2.25733
2.20974
2.18056
2.16751
2.15699
2.14099
2.1178
2.08242
2.04335
2.00615
3.98511
3.80384
3.62235
3.44185
3.27687
3.12263
2.96081
2.8088
2.68284
2.55623
2.41967
2.31421
2.21873
2.1206
2.0096
1.9302
1.86894
1.79855
1.72596
1.65287
1.60865
1.55969
1.50806
1.45588
1.40801
1.36576
1.36742
1.5187
1.95383
2.39473
2.46767
2.40292
2.32783
2.27038
2.23729
2.2149
2.18768
2.15745
2.12672
2.09161
2.04385
2.00044
1.97496
1.95914
1.95528
1.96065
1.96741
1.97586
1.98884
1.9945
1.98958
1.97166
1.94452
1.92578
1.9184
1.91724
1.9088
1.89269
1.87139
1.84364
1.80887
1.77678
1.75713
1.74081
1.72814
1.71766
1.70167
1.67215
1.65346
1.65895
1.70478
1.8118
1.9794
2.17023
2.28593
2.31257
2.35428
2.38281
2.41443
2.4204
2.40334
2.35398
2.28572
2.2248
2.18665
2.17271
2.16552
2.15722
2.14059
2.11127
2.07274
2.01426
4.06859
3.88736
3.70792
3.53066
3.36155
3.20724
3.05577
2.90764
2.77584
2.64542
2.51424
2.41077
2.31796
2.21523
2.09502
2.02259
1.9573
1.88723
1.80255
1.74073
1.69416
1.63694
1.58185
1.52191
1.46899
1.48841
1.68874
2.18403
2.59144
2.66376
2.5953
2.49778
2.40962
2.35844
2.3226
2.28526
2.24437
2.20045
2.15679
2.11634
2.07306
2.02182
1.97533
1.95008
1.94019
1.92755
1.91218
1.90277
1.89788
1.89462
1.89788
1.901
1.90239
1.89477
1.87801
1.86952
1.86504
1.85587
1.84977
1.83714
1.81508
1.7916
1.76674
1.73951
1.71031
1.68769
1.6791
1.66962
1.64794
1.62943
1.62246
1.62675
1.65889
1.74465
1.88136
2.03392
2.16827
2.22946
2.29307
2.34972
2.3584
2.34936
2.33
2.2879
2.23697
2.202
2.17368
2.148
2.12837
2.11422
2.09441
2.03047
4.15448
3.96926
3.78595
3.61343
3.4543
3.29472
3.13665
3.00158
2.87516
2.74247
2.60791
2.50158
2.40921
2.30639
2.19581
2.11538
2.04415
1.96929
1.88002
1.82476
1.77183
1.71616
1.65395
1.58739
1.60648
1.87343
2.40961
2.82112
2.85718
2.78385
2.68065
2.59052
2.50437
2.43976
2.39453
2.3526
2.31083
2.26876
2.22207
2.16943
2.11421
2.06062
2.01128
1.97156
1.94323
1.92107
1.90215
1.88681
1.86806
1.84983
1.83103
1.81821
1.81774
1.81951
1.81395
1.8099
1.80194
1.79328
1.79352
1.80728
1.80743
1.79575
1.77597
1.74686
1.71164
1.67942
1.65667
1.64442
1.63915
1.62559
1.61113
1.6042
1.59666
1.59535
1.61201
1.66344
1.75863
1.89272
2.03155
2.14751
2.2115
2.2799
2.29924
2.29321
2.27439
2.24379
2.20285
2.16665
2.13609
2.10077
2.0766
2.0367
4.22153
4.0657
3.87489
3.70612
3.54865
3.38804
3.23148
3.09933
2.9728
2.8343
2.70049
2.6016
2.50263
2.392
2.28425
2.21033
2.13174
2.0505
1.96198
1.90377
1.84574
1.7887
1.72059
1.75181
2.0793
2.65681
3.00319
3.03128
2.95508
2.8556
2.76855
2.68946
2.60418
2.53087
2.47621
2.4297
2.38454
2.33806
2.28834
2.23522
2.18031
2.12284
2.06517
2.01187
1.9672
1.93757
1.91296
1.88879
1.86582
1.84156
1.81225
1.78735
1.76949
1.75824
1.74662
1.73822
1.73346
1.7263
1.72299
1.72795
1.74182
1.75475
1.7508
1.73506
1.71077
1.68064
1.65403
1.63265
1.61553
1.60957
1.60395
1.59291
1.58367
1.57407
1.56728
1.55678
1.54433
1.5713
1.63177
1.7618
1.90268
2.06642
2.16414
2.22282
2.23806
2.22795
2.21146
2.19064
2.15525
2.11285
2.07712
2.02477
4.16267
4.14151
3.97735
3.79702
3.63883
3.48369
3.33014
3.19009
3.06163
2.92919
2.80077
2.69391
2.59127
2.47619
2.37542
2.30024
2.22057
2.12976
2.04399
1.98085
1.92449
1.86112
1.91476
2.33502
2.96198
3.2332
3.21931
3.13476
3.03877
2.9556
2.88278
2.80269
2.7125
2.62773
2.55876
2.50271
2.45135
2.40102
2.35129
2.30098
2.24845
2.19104
2.12862
2.06785
2.01673
1.97585
1.94104
1.91212
1.88465
1.85436
1.82165
1.78853
1.75429
1.72094
1.70839
1.7056
1.6931
1.6746
1.66718
1.66172
1.65938
1.66061
1.66617
1.67791
1.68214
1.66698
1.647
1.63018
1.60763
1.59123
1.58135
1.57179
1.56602
1.56176
1.55363
1.53744
1.52335
1.50551
1.48378
1.49811
1.55371
1.66447
1.82387
1.97988
2.10072
2.14144
2.1616
2.15234
2.13878
2.12622
2.09865
2.04039
3.55836
4.129
4.07834
3.90695
3.73307
3.5721
3.42614
3.29007
3.15411
3.0159
2.89708
2.79071
2.68194
2.5679
2.46637
2.38771
2.30567
2.21245
2.12648
2.0593
2.00503
2.10253
2.60546
3.32647
3.48811
3.39057
3.2778
3.17747
3.11021
3.053
2.98721
2.90815
2.81822
2.72687
2.64425
2.57476
2.51427
2.46007
2.41153
2.36569
2.31825
2.26493
2.20267
2.13362
2.06722
2.01222
1.97115
1.93926
1.90961
1.88107
1.85277
1.81725
1.76982
1.72322
1.69022
1.6735
1.66655
1.66101
1.64705
1.62749
1.61228
1.59911
1.5863
1.58381
1.59215
1.61025
1.62065
1.61461
1.59316
1.56922
1.55575
1.54532
1.53978
1.53579
1.52968
1.52393
1.5177
1.49692
1.47318
1.4543
1.43791
1.44405
1.48407
1.57139
1.71079
1.85676
2.01221
2.04265
2.06149
2.07651
2.0772
2.0627
2.22013
3.73626
4.08616
4.01549
3.84478
3.66873
3.52626
3.38714
3.245
3.10717
2.99918
2.88524
2.77107
2.65141
2.56541
2.47763
2.39317
2.28596
2.20241
2.15475
2.3041
2.93245
3.60977
3.78163
3.68616
3.5255
3.369
3.26973
3.20899
3.1465
3.07521
2.99673
2.91309
2.82281
2.72958
2.64675
2.5794
2.52347
2.47317
2.42372
2.37321
2.3213
2.26707
2.20803
2.14346
2.0781
2.02041
1.97297
1.9328
1.8997
1.87371
1.84684
1.80974
1.75958
1.70348
1.66857
1.65079
1.64003
1.63197
1.62149
1.60625
1.58371
1.55563
1.53272
1.52323
1.52381
1.53701
1.55469
1.5558
1.5436
1.52395
1.51263
1.50513
1.49979
1.5013
1.50152
1.49602
1.48298
1.46504
1.4458
1.42625
1.40929
1.39197
1.39396
1.41903
1.48197
1.59966
1.74624
1.88401
1.93675
1.97823
2.01291
1.4901
2.49362
3.83267
4.04538
3.96039
3.78269
3.62815
3.48697
3.33615
3.20638
3.09676
2.98407
2.85781
2.74186
2.65833
2.57377
2.47103
2.36796
2.32542
2.54398
3.25022
3.94036
4.02659
3.92228
3.77495
3.63531
3.50497
3.40832
3.3238
3.23857
3.15183
3.06792
2.98923
2.90877
2.81913
2.72762
2.65053
2.58853
2.53253
2.47728
2.42117
2.36538
2.31185
2.25912
2.20234
2.14087
2.0825
2.03102
1.98378
1.93816
1.89597
1.86306
1.83622
1.80254
1.75305
1.69653
1.65506
1.63191
1.62046
1.61623
1.60888
1.59001
1.56161
1.52668
1.49847
1.48284
1.47691
1.47877
1.48751
1.48887
1.4816
1.47132
1.466
1.45812
1.45404
1.45765
1.4617
1.45903
1.44888
1.43207
1.41165
1.39425
1.3774
1.36565
1.35884
1.3585
1.3707
1.41515
1.50612
1.64105
1.74248
1.85595
1.402
1.56544
2.72494
3.87451
4.00456
3.9032
3.74249
3.58831
3.43706
3.30878
3.19113
3.07818
2.9545
2.84093
2.75001
2.6538
2.54652
2.53476
2.85863
3.68534
4.24794
4.37727
4.23464
4.04348
3.87847
3.73258
3.6221
3.52393
3.42792
3.33163
3.23591
3.14598
3.06422
2.98498
2.89968
2.80718
2.72084
2.65019
2.59006
2.53357
2.47779
2.42188
2.36451
2.30449
2.24151
2.17834
2.12285
2.07673
2.03511
1.99264
1.94535
1.89674
1.85712
1.82921
1.79809
1.75121
1.69711
1.65443
1.62756
1.60727
1.59251
1.58351
1.57039
1.53788
1.50084
1.47917
1.45854
1.4396
1.43375
1.4329
1.43116
1.42504
1.42253
1.41898
1.40924
1.40045
1.40028
1.40566
1.40861
1.40453
1.39389
1.38121
1.36177
1.3474
1.33957
1.33304
1.32664
1.32162
1.32685
1.35903
1.41763
1.55301
1.40002
1.40514
1.65543
2.90549
3.88482
3.95498
3.86064
3.69664
3.53442
3.41593
3.29393
3.17292
3.0416
2.943
2.84985
2.72273
2.75103
3.22467
4.22239
4.62303
4.57761
4.45901
4.30387
4.15159
4.01132
3.86717
3.73174
3.61355
3.50746
3.40904
3.31718
3.23127
3.14802
3.06288
2.97141
2.8741
2.78134
2.70352
2.63981
2.58471
2.53385
2.48311
2.42805
2.3648
2.29189
2.21433
2.14899
2.10467
2.07067
2.03806
2.00187
1.95637
1.89776
1.84029
1.8043
1.77717
1.74276
1.7043
1.66674
1.63196
1.60229
1.57614
1.55889
1.54694
1.5214
1.48759
1.45994
1.43705
1.40995
1.39631
1.39125
1.3889
1.38553
1.37938
1.36842
1.35046
1.33455
1.33291
1.3375
1.34573
1.35335
1.35322
1.34226
1.3252
1.31189
1.30613
1.30224
1.29682
1.29058
1.28691
1.27995
1.30249
1.40001
1.40004
1.41071
1.74869
3.04129
3.86786
3.90996
3.81494
3.64785
3.51236
3.3933
3.26939
3.14598
3.04695
2.92795
3.0042
3.66869
4.67617
5.12846
5.00965
4.75998
4.53326
4.37829
4.25814
4.1347
3.99675
3.85227
3.71481
3.59529
3.49338
3.40293
3.31776
3.23153
3.13917
3.03855
2.93485
2.84017
2.761
2.69372
2.63379
2.58028
2.53017
2.47662
2.41355
2.34052
2.26466
2.19537
2.13922
2.09864
2.06781
2.03818
2.00138
1.95105
1.88868
1.8271
1.78066
1.75359
1.73274
1.70725
1.67365
1.63411
1.59361
1.55635
1.53226
1.51913
1.50294
1.47977
1.44791
1.40937
1.38463
1.37272
1.36328
1.35595
1.34836
1.33758
1.32433
1.30135
1.27933
1.27661
1.27895
1.286
1.29462
1.2981
1.29171
1.2751
1.26826
1.26757
1.26786
1.26921
1.26562
1.25999
1.24121
1.40001
1.40001
1.40011
1.41872
1.83545
3.12922
3.83955
3.86971
3.77406
3.62631
3.4938
3.3518
3.24913
3.14755
3.30365
4.19486
5.24906
5.42286
5.26226
5.08046
4.89498
4.68898
4.51668
4.3774
4.2429
4.10144
3.95322
3.81008
3.68613
3.58112
3.48682
3.39548
3.30124
3.20107
3.09566
2.99192
2.90044
2.82397
2.75575
2.6897
2.62501
2.5621
2.49996
2.43763
2.37406
2.31135
2.25058
2.19284
2.14146
2.09192
2.04098
1.99722
1.96532
1.92948
1.87891
1.82589
1.78098
1.7437
1.71225
1.68371
1.65438
1.61579
1.5739
1.54409
1.52025
1.49663
1.4744
1.45233
1.42013
1.38431
1.36468
1.35501
1.34505
1.33351
1.32134
1.31035
1.28972
1.25388
1.23054
1.22665
1.22528
1.22513
1.22886
1.23436
1.23087
1.21858
1.21716
1.22376
1.23542
1.23882
1.23688
1.21923
1.40001
1.40001
1.40001
1.40023
1.42835
1.90756
3.17663
3.80759
3.82866
3.74797
3.60189
3.45359
3.34957
3.65065
4.76126
5.75618
5.98024
5.74517
5.38669
5.14281
4.984
4.82656
4.66292
4.49831
4.33713
4.17983
4.02715
3.88835
3.76905
3.66345
3.56409
3.46508
3.36192
3.2538
3.14578
3.04612
2.95913
2.88257
2.81083
2.73987
2.66939
2.59943
2.52837
2.45991
2.39932
2.34527
2.29127
2.23203
2.17289
2.11852
2.06756
2.02091
1.97524
1.93667
1.9054
1.86747
1.81479
1.77206
1.74931
1.72529
1.68978
1.64371
1.58974
1.55084
1.53196
1.52073
1.50803
1.48497
1.44706
1.3911
1.35848
1.3487
1.34223
1.33466
1.32324
1.303
1.27639
1.24275
1.21367
1.20259
1.19566
1.18931
1.18443
1.18093
1.17713
1.16889
1.16364
1.16726
1.18405
1.1989
1.20029
1.19009
1.40001
1.40001
1.40001
1.40001
1.40041
1.43781
1.96405
3.18277
3.78827
3.79274
3.71606
3.58078
3.9751
5.47224
6.21219
6.17161
6.063
5.83395
5.52892
5.26503
5.08181
4.9243
4.76261
4.59233
4.41922
4.25164
4.0966
3.95995