/*--------------------------------*- C++ -*----------------------------------*\
  =========                 |
  \\      /  F ield         | OpenFOAM: The Open Source CFD Toolbox
   \\    /   O peration     | Website:  https://openfoam.org
    \\  /    A nd           | Version:  7
     \\/     M anipulation  |
\*---------------------------------------------------------------------------*/
FoamFile
{
    version     2.0;
    format      ascii;
    class       volScalarField;
    location    "2.1";
    object      T;
}
// * * * * * * * * * * * * * * * * * * * * * * * * * * * * * * * * * * * * * //

dimensions      [0 0 0 1 0 0 0];

internalField   nonuniform List<scalar> 
3328
(
1
1
1
1
1
1
1
1
1
1
1.75825
2.68546
2.77604
2.77508
2.77985
2.77958
2.77929
2.78498
2.80234
2.82629
2.84708
2.85996
2.86711
2.87106
1
1
1
1
1
1
1
1
1
1
1.73402
2.67589
2.77512
2.77444
2.77871
2.77843
2.77811
2.7838
2.801
2.82447
2.84474
2.85732
2.86438
2.86829
1
1
1
1
1
1
1
1
1
1
1.66694
2.65136
2.77203
2.77178
2.77562
2.77545
2.77539
2.78146
2.79879
2.82181
2.84138
2.85363
2.86072
2.86485
1
1
1
1
1
1
1
1
1
1
1.57708
2.61633
2.76637
2.7667
2.77022
2.77011
2.77053
2.77746
2.79527
2.81809
2.83683
2.8482
2.85449
2.85769
1
1
1
1
1
1
1
1
1
1
1.46075
2.56697
2.75736
2.75945
2.76254
2.76317
2.76459
2.77225
2.78985
2.81159
2.82852
2.8384
2.84344
2.84716
1
1
1
1
1
1
1
1
1
1
1.31098
2.49148
2.74403
2.74831
2.75349
2.75531
2.75764
2.76542
2.78211
2.80256
2.81884
2.82792
2.82957
2.82722
1
1
1
1
1
1
1
1
1
1
1.13513
2.39499
2.73059
2.73856
2.74634
2.74906
2.75112
2.75767
2.77174
2.78833
2.80129
2.80603
2.80485
2.80318
1
1
1
1
1
1
1
1
1
1
1.00604
2.28417
2.7142
2.72614
2.73482
2.73844
2.74046
2.74592
2.75698
2.77007
2.78032
2.78644
2.79121
2.80937
1
1
1
1
1
1
1
1
1
1
1.00003
2.13522
2.69781
2.72348
2.72834
2.73078
2.73143
2.73464
2.74111
2.75033
2.75532
2.75392
2.73914
2.74287
1
1
1
1
1
1
1
1
1
1
1
1.9304
2.6553
2.71617
2.72033
2.72191
2.72091
2.72164
2.72335
2.72887
2.73072
2.72845
2.71988
2.74029
1
1
1
1
1
1
1
1
1
1
1
1.62941
2.5534
2.6937
2.70479
2.70887
2.70727
2.7061
2.70359
2.70665
2.70913
2.70952
2.70998
2.73227
1
1
1
1
1
1
1
1
1
1
1
1.23355
2.40803
2.67607
2.68376
2.68849
2.68736
2.6856
2.68347
2.68629
2.69453
2.70784
2.73179
2.7641
1
1
1
1
1
1
1
1
1
1
1
1.01279
2.26625
2.64187
2.65291
2.65977
2.66353
2.6662
2.67161
2.68468
2.70894
2.74527
2.78177
2.80658
1
1
1
1
1
1
1
1
1
1
1
1.00003
2.02805
2.60379
2.6397
2.64587
2.65284
2.66484
2.68474
2.72126
2.76027
2.7895
2.80846
2.8151
1
1
1
1
1
1
1
1
1
1
1
1
1.62848
2.49569
2.61584
2.6335
2.66143
2.70267
2.74908
2.779
2.79625
2.80398
2.80579
2.80384
1
1
1
1
1
1
1
1
1
1
1
1
1.10623
2.31301
2.59773
2.64817
2.71423
2.78066
2.80898
2.80762
2.79812
2.79193
2.78971
2.78439
1
1
1
1
1
1
1
1
1
1
1
1
1.00284
2.0725
2.56218
2.69262
2.7819
2.8251
2.82642
2.81051
2.79017
2.77297
2.76428
2.75891
1
1
1
1
1
1
1
1
1
1
1
1
0.999989
1.74278
2.60155
2.77325
2.81058
2.82179
2.81226
2.79649
2.77551
2.75438
2.74127
2.73534
1
1
1
1
1
1
1
1
1
1
1
1
0.999998
1.66484
2.72266
2.83234
2.81928
2.80438
2.78549
2.76958
2.75469
2.73774
2.72263
2.7153
1
1
1
1
1
1
1
1
1
1
1
1
1
1.88935
2.86488
2.87413
2.83552
2.79939
2.76786
2.74003
2.73064
2.72095
2.70678
2.69728
1
1
1
1
1
1
1
1
1
1
1
1
1
2.05199
2.94526
2.91966
2.86017
2.80659
2.75682
2.73026
2.71421
2.70656
2.69509
2.68082
1
1
1
1
1
1
1
1
1
1
1
1
1
2.05555
2.94868
2.97007
2.91867
2.86223
2.79029
2.74058
2.71814
2.70082
2.68646
2.66883
1
1
1
1
1
1
1
1
1
1
1
1
1
2.02996
2.94156
2.99522
2.96478
2.92638
2.8511
2.78086
2.73942
2.70823
2.6833
2.65871
1
1
1
1
1
1
1
1
1
1
1
1
1
1.95095
2.90649
3.00451
2.99123
2.97252
2.91684
2.84259
2.7793
2.73422
2.6904
2.6552
1
1
1
1
1
1
1
1
1
1
1
1
1
1.85306
2.85943
2.99081
2.98993
2.98783
2.96446
2.91679
2.854
2.78784
2.72541
2.67272
1
1
1
1
1
1
1
1
1
1
1
1
1
1.75918
2.8031
2.96502
2.98855
2.99202
2.98546
2.96295
2.92205
2.85917
2.78597
2.71605
1
1
1
1
1
1
1
1
1
1
1
1
1
1.6442
2.7362
2.93824
2.97902
2.99309
2.99258
2.98475
2.96387
2.91905
2.85553
2.78226
1
1
1
1
1
1
1
1
1
1
1
1
1
1.51649
2.67066
2.92259
2.96765
2.98528
2.99129
2.98751
2.97769
2.95288
2.91144
2.85554
1
1
1
1
1
1
1
1
1
1
1
1
1
1.39238
2.61272
2.91952
2.95988
2.97501
2.98064
2.98087
2.9759
2.96284
2.94077
2.90751
1
1
1
1
1
1
1
1
1
1
1
1
1
1.28979
2.56733
2.92542
2.95326
2.96075
2.96382
2.96732
2.96839
2.96305
2.94997
2.93042
1
1
1
1
1
1
1
1
1
1
1
1
1
1.21287
2.53372
2.93655
2.94984
2.95033
2.94988
2.95243
2.95646
2.95384
2.94612
2.93264
1
1
1
1
1
1
1
1
1
1
1
1
1
1.14872
2.50282
2.94719
2.9521
2.94784
2.94284
2.94131
2.94247
2.93914
2.93155
2.92322
1
1
1
1
1
1
1
1
1
1
1
1
1
1.09108
2.47081
2.95627
2.95793
2.94976
2.9409
2.93446
2.93051
2.92333
2.91442
2.9082
1
1
1
1
1
1
1
1
1
1
1
1
1
1.04194
2.43861
2.96333
2.96479
2.95411
2.94187
2.93218
2.9235
2.91201
2.90108
2.89425
1
1
1
1
1
1
1
1
1
1
1
1
1
1.00843
2.40885
2.96783
2.9707
2.95765
2.94337
2.93221
2.92047
2.9061
2.89313
2.88427
1
1
1
1
1
1
1
1
1
1
1
1
1
1
2.38496
2.97012
2.9741
2.95806
2.94329
2.93196
2.91888
2.90371
2.88957
2.88003
1
1
1
1
1
1
1
1
1
1
1
1
1
1
2.36771
2.97051
2.97413
2.95454
2.94052
2.92972
2.91712
2.90246
2.8884
2.87951
1
1
1
1
1
1
1
1
1
1
1
1
1
1
2.35593
2.97018
2.97182
2.94907
2.93592
2.9261
2.91484
2.90095
2.8878
2.88038
1
1
1
1
1
1
1
1
1
1
1
1
1
1
2.34868
2.96984
2.96957
2.94492
2.93242
2.92319
2.91258
2.89927
2.88701
2.88087
1
1
1
1
1
1
1
1
1
1
1
1
1
1
2.34649
2.96976
2.96881
2.94345
2.9309
2.92154
2.91097
2.89752
2.8856
2.88026
2.69398
2.87209
3.04324
3.19249
3.29323
3.35072
3.3788
3.39118
2.82965
2.94893
3.04181
3.17022
3.26567
3.3283
3.35593
3.3677
2.80058
2.88867
2.96805
3.09129
3.19732
3.26919
3.29935
3.31157
2.81123
2.85233
2.89382
2.9929
3.09295
3.17987
3.21981
3.23855
2.8241
2.82225
2.82538
2.88032
2.96891
3.06922
3.13146
3.17443
2.80805
2.78682
2.77173
2.80026
2.86457
2.96228
3.05744
3.11774
2.78921
2.76236
2.74008
2.75067
2.78471
2.8578
2.97692
3.07913
2.77067
2.74652
2.72288
2.72257
2.73891
2.79001
2.90931
3.09271
2.75011
2.73341
2.71503
2.70412
2.71029
2.7349
2.77384
2.77014
2.72971
2.71959
2.70694
2.69157
2.68463
2.67815
2.6591
2.57353
2.7085
2.70139
2.6938
2.68094
2.66567
2.64157
2.6027
2.48421
2.68915
2.68162
2.67524
2.66643
2.65008
2.62156
2.57328
2.46943
2.66949
2.65895
2.65152
2.64516
2.63293
2.6067
2.55936
2.47536
2.65206
2.63714
2.62676
2.62075
2.61278
2.59285
2.5531
2.48779
2.63638
2.61832
2.60582
2.59792
2.59094
2.57716
2.54687
2.4979
2.62918
2.60859
2.59371
2.58292
2.57347
2.56154
2.53816
2.49954
2.63567
2.61129
2.59311
2.5754
2.56017
2.54576
2.52576
2.49491
2.66326
2.62599
2.59905
2.5771
2.55749
2.53762
2.51611
2.48814
2.71528
2.66407
2.62335
2.5914
2.56408
2.54023
2.51618
2.48742
2.79331
2.73292
2.67811
2.63112
2.59001
2.55566
2.52521
2.49424
2.86394
2.81321
2.75676
2.69916
2.64477
2.59687
2.55542
2.51697
2.90483
2.87242
2.83054
2.77937
2.72253
2.66531
2.61111
2.56239
2.91727
2.89928
2.87647
2.84498
2.80289
2.74998
2.69295
2.63412
2.9129
2.90271
2.89319
2.87965
2.85729
2.8223
2.7754
2.72001
2.9033
2.89956
2.89733
2.89356
2.88359
2.86208
2.82876
2.78629
2.89097
2.89151
2.89485
2.89685
2.89077
2.87394
2.84857
2.81775
2.88095
2.88296
2.88892
2.89212
2.88775
2.87182
2.84998
2.82665
2.8769
2.87905
2.88457
2.88695
2.88276
2.86838
2.84908
2.82745
2.87746
2.87999
2.88479
2.88624
2.87974
2.86339
2.84455
2.82335
2.87995
2.8839
2.8888
2.88935
2.87975
2.86089
2.83962
2.81622
2.88159
2.88781
2.89451
2.89444
2.88196
2.86134
2.83748
2.81134
2.88217
2.89073
2.89919
2.89877
2.88464
2.86289
2.83711
2.80892
2.13476
1.73545
1.68116
1.74721
1.89065
2.03251
2.1648
2.19913
2.21406
2.24609
2.32148
2.39121
2.41753
2.44088
2.49397
2.64566
2.70894
2.73203
2.73331
2.71512
2.69078
2.67644
2.67135
2.66834
2.65636
2.64397
2.63539
2.6355
2.6387
2.63181
2.62429
2.61337
2.59429
2.57517
2.56065
2.54837
2.53938
2.53342
2.52761
2.52284
2.52065
2.5169
2.5084
2.49808
2.48509
2.46757
2.44892
2.4359
2.42647
2.41774
2.40843
2.39802
2.3865
2.3739
2.35911
2.33845
2.30858
2.28095
2.26704
2.25762
2.24806
2.23794
2.2282
2.22081
2.21734
2.2153
2.21088
2.20498
2.19784
2.18226
2.14338
2.10229
2.08878
2.08324
2.07905
2.07541
2.07183
2.06878
2.0673
2.06769
2.06881
2.06679
2.06055
2.04918
2.02079
1.97301
1.94664
1.9288
2.25388
2.06992
1.91347
1.89585
1.90132
1.90489
1.94175
2.00878
2.0762
2.13768
2.19944
2.25885
2.32057
2.35487
2.4028
2.54443
2.61856
2.65417
2.67345
2.67409
2.66468
2.6537
2.64742
2.63943
2.62682
2.61381
2.60391
2.60134
2.60392
2.60195
2.59719
2.58919
2.57839
2.56723
2.55617
2.54369
2.53191
2.52443
2.51836
2.51302
2.50879
2.50164
2.49195
2.48031
2.46472
2.44382
2.42233
2.40925
2.40169
2.39515
2.38838
2.38034
2.37075
2.35976
2.34691
2.33028
2.30641
2.27682
2.25666
2.24643
2.23766
2.22842
2.21936
2.21212
2.20762
2.20261
2.19648
2.19018
2.18222
2.16871
2.14172
2.1045
2.08353
2.0773
2.07358
2.07034
2.06727
2.06481
2.06405
2.06506
2.06343
2.058
2.05007
2.03784
2.01481
1.97644
1.94692
1.92559
2.27989
2.15026
2.02572
1.93986
1.88124
1.83615
1.83922
1.87295
1.93113
1.98244
2.02877
2.08292
2.14733
2.20984
2.27147
2.39674
2.48946
2.53133
2.5495
2.56486
2.56924
2.56778
2.56559
2.56187
2.55513
2.54621
2.5404
2.53735
2.53598
2.5357
2.53251
2.52629
2.52131
2.51708
2.51159
2.5034
2.49315
2.48643
2.48155
2.47645
2.46939
2.45963
2.44806
2.43248
2.41102
2.38697
2.36702
2.35364
2.34416
2.33644
2.32932
2.32254
2.31474
2.30571
2.29589
2.28484
2.27001
2.24903
2.22544
2.20862
2.20006
2.19303
2.18659
2.18149
2.1746
2.16696
2.1597
2.15192
2.14271
2.13103
2.11571
2.09421
2.06886
2.05509
2.05139
2.04889
2.04692
2.04653
2.04803
2.04654
2.04162
2.03488
2.02436
2.00744
1.98745
1.96491
1.94283
1.91606
2.32663
2.21445
2.11637
2.02471
1.95618
1.89782
1.87297
1.86731
1.87022
1.88748
1.90918
1.94642
2.00105
2.0673
2.12372
2.2219
2.33916
2.42232
2.45538
2.46453
2.47009
2.47308
2.4726
2.46877
2.46403
2.45933
2.4546
2.45218
2.45206
2.45304
2.45262
2.45116
2.44991
2.44805
2.4438
2.43624
2.42623
2.4174
2.41117
2.40381
2.39438
2.38317
2.3691
2.35091
2.33029
2.31184
2.29695
2.28294
2.26971
2.25975
2.25217
2.24503
2.23752
2.22915
2.21996
2.20976
2.19847
2.18621
2.17162
2.15277
2.13633
2.12897
2.1241
2.11988
2.11423
2.10837
2.1016
2.09251
2.0815
2.07194
2.06578
2.05873
2.04479
2.02322
2.01227
2.00995
2.00855
2.00908
2.00993
2.00722
2.00255
1.99542
1.98224
1.9619
1.94359
1.93158
1.92006
1.89801
2.37208
2.28046
2.19156
2.10506
2.04619
1.98629
1.93132
1.90614
1.89284
1.88711
1.88644
1.89323
1.91436
1.95961
2.01513
2.08962
2.20802
2.32393
2.40414
2.42692
2.41977
2.41344
2.4093
2.40355
2.40019
2.39791
2.39241
2.38386
2.37834
2.3771
2.37823
2.37977
2.37988
2.3788
2.37528
2.36812
2.35678
2.34401
2.33311
2.32237
2.30998
2.29498
2.2768
2.25704
2.23977
2.22642
2.21454
2.20212
2.18892
2.17692
2.16805
2.16088
2.15384
2.1461
2.13669
2.12549
2.11507
2.1071
2.09968
2.08918
2.07257
2.05594
2.04723
2.04191
2.03731
2.03286
2.02737
2.0191
2.00917
2.0037
2.00242
2.00159
1.99792
1.98536
1.96651
1.95916
1.95734
1.95549
1.95312
1.95028
1.94624
1.93927
1.92452
1.90305
1.88928
1.88227
1.87533
1.86146
2.40945
2.33196
2.25814
2.17757
2.11672
2.07264
2.02206
1.97519
1.954
1.93669
1.91773
1.90329
1.88966
1.89742
1.92262
1.96411
2.05735
2.21719
2.34548
2.4029
2.40312
2.39374
2.38334
2.37475
2.36929
2.36446
2.35613
2.34281
2.33286
2.33013
2.32892
2.328
2.32757
2.32427
2.31839
2.31044
2.29722
2.27891
2.26203
2.24746
2.2328
2.21749
2.20205
2.18823
2.17738
2.16732
2.15635
2.1441
2.13021
2.11524
2.10235
2.09288
2.08441
2.07505
2.06391
2.05266
2.04424
2.03796
2.03232
2.02563
2.01394
1.99453
1.97712
1.96803
1.96206
1.95675
1.95081
1.94413
1.94008
1.93967
1.94017
1.94062
1.93999
1.93483
1.92118
1.90573
1.8982
1.89415
1.89039
1.88656
1.88154
1.87133
1.85413
1.8403
1.83518
1.82995
1.82556
1.82334
2.4374
2.37085
2.30781
2.24272
2.17761
2.13381
2.10183
2.05973
2.01366
1.98758
1.97041
1.94829
1.91884
1.89647
1.89443
1.90156
1.92962
2.03401
2.23477
2.35281
2.38826
2.38686
2.37743
2.36796
2.35878
2.34669
2.33339
2.31997
2.31049
2.30463
2.29949
2.29492
2.29109
2.2845
2.27621
2.266
2.24984
2.22719
2.20606
2.18976
2.17542
2.16266
2.15275
2.145
2.1382
2.13001
2.12029
2.10877
2.09468
2.07776
2.06066
2.04666
2.0343
2.02163
2.01064
2.00287
1.99616
1.98961
1.98297
1.97602
1.96599
1.94778
1.92457
1.90926
1.90052
1.89352
1.88726
1.88399
1.88389
1.885
1.88665
1.88744
1.88723
1.88439
1.8746
1.85676
1.84195
1.83559
1.83217
1.82724
1.81598
1.79941
1.78796
1.787
1.78822
1.79106
1.79582
1.81693
2.45163
2.39727
2.34225
2.29054
2.23635
2.18588
2.1538
2.12656
2.08445
2.03975
2.0169
1.99941
1.96899
1.9276
1.90163
1.90036
1.89919
1.90872
2.00648
2.21075
2.32315
2.37014
2.37351
2.36493
2.35189
2.33218
2.31407
2.3033
2.29618
2.28878
2.2809
2.27227
2.26209
2.25168
2.24143
2.22966
2.2132
2.19122
2.16898
2.15275
2.14125
2.13201
2.12486
2.12065
2.11585
2.10864
2.09972
2.08817
2.07322
2.05493
2.03382
2.01389
1.9982
1.98657
1.97837
1.97124
1.96467
1.95749
1.94962
1.94165
1.93171
1.9149
1.8897
1.86909
1.85717
1.84794
1.84337
1.84283
1.84278
1.84308
1.84375
1.84415
1.84389
1.84162
1.83426
1.81903
1.8015
1.78932
1.77828
1.76516
1.75059
1.74703
1.74996
1.75768
1.77223
1.79369
1.82041
1.87163
2.45613
2.41267
2.36568
2.32033
2.27773
2.23254
2.19324
2.16725
2.13824
2.09596
2.05624
2.03285
2.0096
1.97526
1.93501
1.91401
1.89841
1.89057
1.89587
1.96965
2.14477
2.28488
2.34235
2.34786
2.33661
2.31729
2.2968
2.28412
2.27718
2.2703
2.26273
2.25243
2.24027
2.22632
2.21131
2.19648
2.18144
2.16437
2.1457
2.13045
2.1202
2.11209
2.10657
2.10278
2.09703
2.0897
2.08122
2.06987
2.05399
2.03356
2.01056
1.98836
1.97325
1.96482
1.95778
1.95038
1.94267
1.93475
1.92642
1.91777
1.90764
1.89158
1.86563
1.84118
1.82737
1.81934
1.81582
1.81403
1.81263
1.81187
1.81178
1.81143
1.81036
1.80802
1.80275
1.79165
1.7705
1.74487
1.72514
1.71804
1.71904
1.72562
1.74621
1.78086
1.8228
1.86214
1.8998
1.928
2.4546
2.41863
2.37977
2.33903
2.30235
2.26654
2.22755
2.1955
2.17155
2.14051
2.10006
2.06434
2.04216
2.01698
1.98006
1.94325
1.9197
1.8966
1.88321
1.8868
1.92827
2.07832
2.233
2.28473
2.30346
2.2976
2.2816
2.26506
2.25224
2.24406
2.23639
2.22709
2.2167
2.20464
2.18892
2.16999
2.15284
2.13913
2.12669
2.11439
2.10306
2.09421
2.08721
2.08125
2.07507
2.0685
2.06036
2.04816
2.02884
2.00484
1.98474
1.96948
1.95688
1.94763
1.94051
1.9334
1.92576
1.91763
1.90894
1.89937
1.88833
1.87365
1.85003
1.81911
1.80172
1.7976
1.79535
1.79321
1.79099
1.78931
1.78872
1.7892
1.78892
1.78661
1.78147
1.76917
1.73814
1.70767
1.70599
1.71243
1.73369
1.77115
1.81576
1.85841
1.89199
1.91987
1.9426
1.94423
2.45478
2.42188
2.38836
2.35227
2.31785
2.28774
2.25527
2.22092
2.1945
2.17145
2.13995
2.10119
2.06851
2.04438
2.01471
1.97582
1.94656
1.92097
1.89615
1.87877
1.87806
1.89784
2.00894
2.13953
2.22436
2.2437
2.2505
2.24371
2.2287
2.21283
2.20305
2.19523
2.18726
2.17823
2.16728
2.15031
2.12843
2.1132
2.10393
2.09496
2.08535
2.07477
2.06361
2.05374
2.04576
2.03879
2.03181
2.02245
2.0066
1.98334
1.96217
1.9499
1.9407
1.93157
1.92336
1.91636
1.90907
1.90101
1.89222
1.8824
1.87145
1.858
1.8369
1.80793
1.79026
1.78314
1.778
1.77537
1.77341
1.77251
1.77345
1.7765
1.7769
1.77294
1.76591
1.74795
1.72405
1.72255
1.73972
1.77428
1.81889
1.86434
1.88773
1.89826
1.91165
1.92749
1.93608
1.93019
2.46067
2.42866
2.39667
2.36304
2.32989
2.30109
2.27502
2.24403
2.21465
2.19254
2.16836
2.13552
2.09692
2.06588
2.03956
2.00693
1.97303
1.94925
1.92408
1.89876
1.87851
1.86938
1.8758
1.93124
2.04938
2.1395
2.18535
2.2019
2.19768
2.18057
2.16938
2.16258
2.15715
2.14994
2.14166
2.12911
2.10666
2.08541
2.07558
2.06824
2.06018
2.05049
2.03789
2.02486
2.01547
2.0083
2.00164
1.99443
1.98432
1.96687
1.94485
1.93031
1.92122
1.91297
1.90533
1.89829
1.89119
1.8829
1.87313
1.86252
1.85083
1.83712
1.81966
1.79869
1.78242
1.77281
1.76638
1.76302
1.76198
1.76227
1.76413
1.7644
1.7628
1.76272
1.7699
1.78134
1.79011
1.81236
1.83952
1.86954
1.89427
1.89465
1.89587
1.90065
1.91333
1.92857
1.93033
1.9179
2.47925
2.44376
2.40952
2.37697
2.34314
2.31218
2.28834
2.26338
2.23429
2.20901
2.18739
2.15988
2.12387
2.08649
2.05845
2.0311
2.00065
1.97329
1.94974
1.92538
1.89859
1.87466
1.86095
1.85598
1.8775
1.9566
2.04955
2.12148
2.15118
2.14351
2.13813
2.13187
2.1289
2.12433
2.11564
2.10474
2.08577
2.06046
2.04499
2.03791
2.03184
2.02382
2.01194
1.99806
1.98724
1.9793
1.97212
1.96484
1.95726
1.94751
1.93028
1.91061
1.90464
1.90039
1.8937
1.8854
1.87628
1.86568
1.85409
1.8429
1.83136
1.81805
1.80387
1.7903
1.77632
1.76419
1.75798
1.75536
1.7547
1.75314
1.75469
1.76133
1.77976
1.81559
1.84868
1.86844
1.88236
1.8979
1.90545
1.90075
1.89231
1.88636
1.88694
1.89625
1.91152
1.91283
1.90904
1.88737
2.51816
2.47544
2.43549
2.39854
2.36332
2.33176
2.30508
2.2812
2.2529
2.2251
2.20261
2.17875
2.14557
2.107
2.07595
2.05032
2.02359
1.99749
1.9727
1.94962
1.9257
1.89944
1.87589
1.85556
1.84111
1.84101
1.8779
1.96131
2.04769
2.09367
2.10086
2.10284
2.10764
2.10214
2.09323
2.08167
2.06491
2.04209
2.02052
2.00375
1.99238
1.98654
1.98164
1.97381
1.9634
1.95433
1.94634
1.93952
1.93342
1.92684
1.91483
1.89612
1.8813
1.8736
1.86665
1.85776
1.84777
1.84002
1.83268
1.82396
1.81314
1.8021
1.79284
1.78406
1.77264
1.76083
1.75088
1.74786
1.75136
1.76749
1.79423
1.83111
1.87358
1.90564
1.91707
1.92665
1.92953
1.92607
1.91401
1.89614
1.88653
1.88353
1.88666
1.89791
1.89525
1.88347
1.86954
1.84413
2.57863
2.527
2.48117
2.43865
2.39819
2.36331
2.33396
2.31182
2.28425
2.25132
2.22056
2.19693
2.1697
2.13028
2.09329
2.07192
2.04895
2.02242
1.9978
1.97394
1.95098
1.92882
1.90462
1.8785
1.85062
1.83114
1.8172
1.83021
1.88591
1.96899
2.03694
2.06865
2.07516
2.07804
2.07028
2.05674
2.0413
2.02462
2.00462
1.98526
1.96908
1.95614
1.94845
1.94312
1.93836
1.93267
1.92634
1.92054
1.91364
1.90376
1.89154
1.8763
1.85708
1.84643
1.8408
1.83344
1.82417
1.81605
1.80791
1.79909
1.79266
1.78761
1.78327
1.77743
1.76574
1.7506
1.75404
1.77351
1.80992
1.85312
1.89085
1.9232
1.93344
1.93363
1.93097
1.92876
1.92434
1.91392
1.89702
1.88478
1.88125
1.88079
1.88278
1.87949
1.86766
1.85211
1.83501
1.81267
2.66221
2.60487
2.5506
2.50074
2.45761
2.41895
2.38338
2.35397
2.32844
2.29892
2.26652
2.23403
2.20428
2.17033
2.1292
2.09784
2.075
2.04975
2.02488
2.00243
1.98055
1.95821
1.93593
1.91251
1.88441
1.85249
1.82644
1.81067
1.8094
1.83475
1.90092
1.97623
2.02346
2.05351
2.05505
2.04977
2.03329
2.00733
1.98964
1.97553
1.95981
1.94263
1.93035
1.92321
1.91719
1.915
1.91267
1.90678
1.89991
1.88901
1.87261
1.85333
1.83834
1.8245
1.81175
1.80154
1.79276
1.78614
1.78094
1.77811
1.77877
1.77928
1.77854
1.7785
1.78527
1.80076
1.82883
1.86771
1.90413
1.92624
1.94182
1.94039
1.93798
1.93826
1.93649
1.93096
1.92209
1.90843
1.89025
1.88131
1.87748
1.87444
1.86731
1.8569
1.84197
1.82648
1.8158
1.79976
2.73737
2.68555
2.63418
2.58526
2.53902
2.49473
2.45515
2.41975
2.39093
2.35862
2.32165
2.28427
2.24792
2.21217
2.17402
2.14196
2.122
2.10302
2.07875
2.05447
2.03237
2.00974
1.98561
1.96008
1.93418
1.90685
1.87467
1.84013
1.81629
1.8091
1.81442
1.8503
1.91718
1.97967
2.03143
2.04774
2.04044
2.01981
1.99257
1.97326
1.95789
1.94133
1.9264
1.91753
1.90996
1.90187
1.89387
1.88706
1.88056
1.87345
1.86148
1.84203
1.8194
1.79876
1.78453
1.77836
1.77389
1.76959
1.76813
1.76885
1.77217
1.78432
1.81278
1.8429
1.87263
1.9012
1.91884
1.93829
1.945
1.93838
1.93322
1.92881
1.92808
1.93397
1.93832
1.93349
1.92533
1.9141
1.89778
1.88262
1.87288
1.86324
1.85265
1.83869
1.82316
1.81407
1.80805
1.79887
2.78256
2.74483
2.70548
2.66495
2.62384
2.58308
2.54354
2.50477
2.46967
2.43156
2.39005
2.34926
2.30946
2.27046
2.23286
2.2019
2.17747
2.15542
2.12956
2.10329
2.0778
2.0523
2.026
2.00087
1.97669
1.94811
1.91086
1.8697
1.8441
1.82956
1.82129
1.82191
1.83707
1.88016
1.94555
2.01315
2.03972
2.03451
2.00852
1.98963
1.97177
1.95299
1.93468
1.92145
1.91153
1.90353
1.89618
1.88844
1.87778
1.86428
1.84781
1.82663
1.80262
1.78346
1.77413
1.7696
1.76791
1.76871
1.77658
1.79649
1.83219
1.88079
1.92343
1.93953
1.95352
1.95762
1.95855
1.9532
1.94757
1.94271
1.93585
1.92927
1.92656
1.92879
1.92886
1.92803
1.92488
1.917
1.90096
1.88261
1.86982
1.85943
1.84704
1.83232
1.82007
1.81376
1.80944
1.80398
2.80135
2.77467
2.74642
2.71697
2.68629
2.65375
2.61895
2.58454
2.55111
2.51083
2.46672
2.4229
2.3794
2.3385
2.30266
2.27095
2.24246
2.21738
2.18987
2.1612
2.13411
2.10786
2.08143
2.05493
2.02714
1.99352
1.95303
1.92079
1.89928
1.88171
1.86671
1.85195
1.8441
1.84439
1.86667
1.91549
1.98311
2.01521
2.02177
2.01151
1.9995
1.98218
1.95714
1.93705
1.92231
1.91332
1.90506
1.89371
1.88179
1.8686
1.85069
1.8257
1.80358
1.78756
1.78091
1.77941
1.78738
1.81426
1.86004
1.90619
1.95196
1.98738
2.00115
1.99871
1.9897
1.97591
1.97056
1.96481
1.95904
1.95675
1.95281
1.94802
1.9451
1.94011
1.9347
1.93092
1.92629
1.91967
1.90762
1.89075
1.87486
1.86107
1.84798
1.83591
1.82963
1.82683
1.82682
1.82816
2.8051
2.78236
2.75913
2.73618
2.71518
2.69488
2.67256
2.64787
2.61772
2.57701
2.53384
2.48953
2.44573
2.4054
2.3693
2.33648
2.30626
2.27956
2.25483
2.22604
2.19869
2.17222
2.14513
2.11677
2.08575
2.04924
2.00865
1.97797
1.95751
1.93959
1.92217
1.90466
1.88827
1.87267
1.86472
1.86268
1.88711
1.92983
1.97251
1.99701
2.01648
2.01098
1.9915
1.96924
1.94689
1.93307
1.92081
1.90493
1.8919
1.87915
1.86207
1.83905
1.81673
1.80959
1.82177
1.85179
1.89776
1.95
1.98217
2.00527
2.02994
2.04095
2.04122
2.03717
2.02372
2.00157
1.9903
1.98604
1.9793
1.96999
1.96217
1.95759
1.9555
1.95324
1.94863
1.94424
1.93941
1.9323
1.92027
1.90312
1.88594
1.87288
1.86232
1.85536
1.85127
1.84892
1.85039
1.84449
2.80102
2.77815
2.75536
2.7347
2.71878
2.70803
2.70101
2.68761
2.65709
2.61984
2.5791
2.53446
2.49255
2.45633
2.42315
2.39226
2.36406
2.34015
2.32026
2.29404
2.26669
2.23946
2.21037
2.1787
2.14412
2.10613
2.06674
2.03547
2.01359
1.99443
1.97555
1.95681
1.93748
1.91718
1.89494
1.8743
1.85957
1.85637
1.87647
1.91521
1.95934
1.99286
2.01194
2.001
1.98057
1.964
1.94744
1.93045
1.91871
1.90597
1.89055
1.87669
1.88599
1.91674
1.95835
1.99946
2.03568
2.05599
2.06227
2.06837
2.08153
2.08626
2.0816
2.0732
2.05873
2.03596
2.01542
2.00448
1.99733
1.99141
1.98643
1.98159
1.97838
1.97585
1.97216
1.96845
1.96382
1.95636
1.94181
1.91869
1.90005
1.89228
1.88787
1.88347
1.87964
1.87748
1.87399
1.86397
2.79249
2.76934
2.74746
2.72939
2.71697
2.71218
2.71174
2.69911
2.66987
2.63712
2.59997
2.56
2.52236
2.4894
2.45848
2.42929
2.40314
2.3822
2.36754
2.34518
2.31898
2.29205
2.26278
2.23016
2.19379
2.1538
2.1139
2.08179
2.05811
2.03727
2.01669
1.99573
1.97437
1.9521
1.92884
1.90453
1.8795
1.85921
1.83732
1.82401
1.84545
1.89461
1.95626
1.9843
1.99116
1.9854
1.97628
1.97015
1.97175
1.97829
1.99079
2.0132
2.04363
2.07314
2.09194
2.10989
2.12117
2.12021
2.12041
2.12155
2.12246
2.1181
2.10711
2.09432
2.07937
2.06016
2.0416
2.028
2.01864
2.01338
2.00864
2.00484
2.00256
1.99836
1.99396
1.98997
1.98471
1.97593
1.95987
1.93637
1.91923
1.91074
1.90385
1.89789
1.89367
1.89091
1.88691
1.8765
2.78593
2.76213
2.74039
2.72331
2.71332
2.71103
2.71063
2.69474
2.66707
2.63784
2.6068
2.57405
2.53951
2.50424
2.47189
2.44549
2.42269
2.40645
2.39836
2.38049
2.35567
2.32955
2.30073
2.26711
2.22621
2.18028
2.13813
2.10656
2.08197
2.05969
2.03869
2.01795
1.99676
1.97505
1.95274
1.92877
1.90285
1.87158
1.83675
1.79691
1.77147
1.78254
1.82566
1.8918
1.94626
1.97545
2.00319
2.04346
2.10152
2.13399
2.1507
2.16049
2.16381
2.1646
2.16504
2.16818
2.16686
2.15837
2.14915
2.14363
2.14504
2.1392
2.12714
2.11553
2.10285
2.08518
2.06321
2.04479
2.03492
2.02896
2.02352
2.02093
2.02033
2.01462
2.00862
2.00306
1.99614
1.98513
1.96819
1.9468
1.9327
1.92618
1.91984
1.91366
1.90815
1.90159
1.89507
1.8828
2.7828
2.75862
2.73646
2.72035
2.71229
2.71122
2.71094
2.69481
2.66864
2.6411
2.61188
2.58045
2.54535
2.50761
2.47519
2.45072
2.42953
2.4159
2.41114
2.39587
2.37229
2.34732
2.31741
2.27915
2.23319
2.18498
2.14363
2.11297
2.0887
2.06673
2.04552
2.02532
2.00564
1.9848
1.96327
1.94015
1.91324
1.87875
1.83442
1.79106
1.75853
1.74411
1.74479
1.76777
1.83354
1.93328
2.04714
2.14272
2.20921
2.26512
2.30002
2.29688
2.28354
2.25112
2.2196
2.20443
2.18706
2.16951
2.15783
2.15104
2.15003
2.14327
2.13218
2.12159
2.10886
2.09033
2.06498
2.04621
2.03859
2.03325
2.02886
2.0276
2.02877
2.02262
2.01552
2.00888
2.0004
1.98761
1.97035
1.95095
1.9375
1.9306
1.92381
1.91678
1.91057
1.90321
1.89644
1.88384
)
;

boundaryField
{
    inlet
    {
        type            fixedValue;
        value           uniform 1;
    }
    outlet
    {
        type            inletOutlet;
        inletValue      uniform 1;
        value           nonuniform List<scalar> 
24
(
1.92947
1.92605
1.91515
1.89653
1.86122
1.82295
1.8146
1.86737
1.92539
1.94406
1.93055
1.91754
1.88486
1.84137
1.81148
1.79954
1.79999
1.80638
1.83075
1.84527
1.86434
1.87698
1.88298
1.88405
)
;
    }
    bottom
    {
        type            zeroGradient;
    }
    top
    {
        type            zeroGradient;
    }
    obstacle
    {
        type            zeroGradient;
    }
    defaultFaces
    {
        type            empty;
    }
}


// ************************************************************************* //
