/*--------------------------------*- C++ -*----------------------------------*\
  =========                 |
  \\      /  F ield         | OpenFOAM: The Open Source CFD Toolbox
   \\    /   O peration     | Website:  https://openfoam.org
    \\  /    A nd           | Version:  7
     \\/     M anipulation  |
\*---------------------------------------------------------------------------*/
FoamFile
{
    version     2.0;
    format      ascii;
    class       volVectorField;
    location    "2.1";
    object      U;
}
// * * * * * * * * * * * * * * * * * * * * * * * * * * * * * * * * * * * * * //

dimensions      [0 1 -1 0 0 0 0];

internalField   nonuniform List<vector> 
3328
(
(3 -2.13626e-16 0)
(3 -1.46761e-16 0)
(3 6.24084e-16 0)
(3 9.39506e-16 0)
(3 6.64581e-16 0)
(3 5.18779e-16 0)
(3 3.67542e-16 0)
(3 1.18394e-16 0)
(3 -3.09003e-16 0)
(3 1.19392e-16 0)
(2.05369 0.0112015 0)
(0.788354 0.0118835 0)
(0.680585 0.0183338 0)
(0.634645 0.0240024 0)
(0.57564 0.0270612 0)
(0.516921 0.0272296 0)
(0.462463 0.0252688 0)
(0.411539 0.0235299 0)
(0.361514 0.0231581 0)
(0.30987 0.0247665 0)
(0.253145 0.0280263 0)
(0.188659 0.0324815 0)
(0.116831 0.0355183 0)
(0.0428509 0.0398518 0)
(3 -3.89013e-17 0)
(3 -1.40821e-16 0)
(3 3.37882e-16 0)
(3 5.8639e-16 0)
(3 -1.22163e-16 0)
(3 4.69455e-18 0)
(3 1.12583e-16 0)
(3 -1.62119e-17 0)
(3 -8.53421e-16 0)
(3 -7.08416e-16 0)
(2.09062 0.0554402 0)
(0.785257 0.0563982 0)
(0.665339 0.0572808 0)
(0.616122 0.06849 0)
(0.557095 0.0760256 0)
(0.50085 0.0760024 0)
(0.45011 0.0720705 0)
(0.401734 0.0693363 0)
(0.352647 0.0698562 0)
(0.301405 0.075535 0)
(0.24568 0.0855374 0)
(0.183487 0.0991068 0)
(0.113618 0.108715 0)
(0.0419376 0.121504 0)
(3 1.46146e-16 0)
(3 -3.47079e-17 0)
(3 -6.29952e-16 0)
(3 -1.38826e-15 0)
(3 -1.88664e-15 0)
(3 -1.6025e-15 0)
(3 -8.2668e-16 0)
(3 -8.32018e-17 0)
(3 -1.39041e-16 0)
(3 -4.07994e-16 0)
(2.2127 0.092514 0)
(0.810683 0.0997963 0)
(0.671969 0.103101 0)
(0.616105 0.120415 0)
(0.553604 0.129058 0)
(0.498437 0.125579 0)
(0.451359 0.118499 0)
(0.405717 0.115139 0)
(0.35717 0.117212 0)
(0.304565 0.127193 0)
(0.246711 0.143133 0)
(0.183792 0.164727 0)
(0.112952 0.180116 0)
(0.0419203 0.199719 0)
(3 -1.0716e-16 0)
(3 9.15099e-17 0)
(3 -5.45377e-16 0)
(3 -1.30575e-15 0)
(3 -1.27343e-15 0)
(3 -1.18484e-15 0)
(3 -9.21648e-16 0)
(3 -1.8083e-16 0)
(3 8.28972e-16 0)
(3 8.37499e-16 0)
(2.36603 0.117136 0)
(0.83536 0.145994 0)
(0.671511 0.154257 0)
(0.613851 0.173064 0)
(0.557303 0.179644 0)
(0.512145 0.171053 0)
(0.471226 0.161163 0)
(0.427144 0.159203 0)
(0.37646 0.165859 0)
(0.31893 0.183038 0)
(0.254708 0.205782 0)
(0.187463 0.234411 0)
(0.113791 0.254763 0)
(0.0410762 0.278286 0)
(3 1.26862e-17 0)
(3 -1.05897e-16 0)
(3 -6.61165e-16 0)
(3 -9.11597e-16 0)
(3 1.44518e-16 0)
(3 3.23013e-16 0)
(3 -1.80428e-16 0)
(3 8.18945e-17 0)
(3 1.65638e-16 0)
(3 -1.34307e-16 0)
(2.55361 0.132465 0)
(0.874844 0.197847 0)
(0.67694 0.208554 0)
(0.626315 0.22263 0)
(0.582782 0.220871 0)
(0.545046 0.207276 0)
(0.504445 0.200271 0)
(0.45788 0.205448 0)
(0.402743 0.220183 0)
(0.340803 0.245447 0)
(0.273542 0.27364 0)
(0.204564 0.307331 0)
(0.126503 0.332958 0)
(0.0475393 0.36149 0)
(3 -5.67276e-17 0)
(3 -2.71804e-16 0)
(3 -3.31393e-16 0)
(3 -2.00974e-16 0)
(3 4.46414e-16 0)
(3 5.00629e-16 0)
(3 1.98013e-16 0)
(3 3.08038e-16 0)
(3 -1.74982e-17 0)
(3 -1.42055e-16 0)
(2.76608 0.137763 0)
(0.946906 0.250117 0)
(0.707485 0.253671 0)
(0.666335 0.253961 0)
(0.626426 0.249376 0)
(0.585632 0.241911 0)
(0.539871 0.243822 0)
(0.488759 0.258352 0)
(0.43013 0.280443 0)
(0.367513 0.312061 0)
(0.299272 0.34586 0)
(0.227063 0.387761 0)
(0.142142 0.425548 0)
(0.0488396 0.459874 0)
(3 -3.92005e-17 0)
(3 3.38394e-16 0)
(3 7.98482e-16 0)
(3 1.63877e-15 0)
(3 1.62875e-15 0)
(3 8.40734e-16 0)
(3 -1.12587e-17 0)
(3 -5.56782e-16 0)
(3 -1.43616e-16 0)
(3 -4.01032e-17 0)
(2.95776 0.056826 0)
(1.0483 0.288806 0)
(0.74688 0.27699 0)
(0.706544 0.286569 0)
(0.662263 0.288482 0)
(0.616909 0.286322 0)
(0.568646 0.293449 0)
(0.518193 0.313017 0)
(0.461125 0.339164 0)
(0.405232 0.375376 0)
(0.345135 0.415309 0)
(0.28135 0.46544 0)
(0.199264 0.519272 0)
(0.0861442 0.575609 0)
(3 1.06938e-16 0)
(3 4.86295e-16 0)
(3 7.28607e-16 0)
(3 1.25071e-15 0)
(3 1.6213e-15 0)
(3 1.19713e-15 0)
(3 9.37312e-16 0)
(3 -4.30651e-16 0)
(3 -6.24178e-16 0)
(3 -5.41263e-16 0)
(3.00923 0.00529874 0)
(1.1805 0.306161 0)
(0.761069 0.316143 0)
(0.709337 0.331921 0)
(0.660374 0.334197 0)
(0.613143 0.333464 0)
(0.567445 0.343432 0)
(0.523775 0.365605 0)
(0.477165 0.394083 0)
(0.434511 0.433653 0)
(0.384877 0.479953 0)
(0.326955 0.552411 0)
(0.220204 0.649892 0)
(0.125517 0.779041 0)
(3 4.29167e-17 0)
(3 -2.43862e-16 0)
(3 -5.2446e-16 0)
(3 -6.30638e-16 0)
(3 -5.71048e-16 0)
(3 -3.66073e-17 0)
(3 4.6891e-16 0)
(3 3.66545e-16 0)
(3 9.74644e-17 0)
(3 1.7924e-16 0)
(3.00023 1.86092e-05 0)
(1.39736 0.351261 0)
(0.766116 0.360535 0)
(0.699431 0.372467 0)
(0.653451 0.375315 0)
(0.610214 0.376083 0)
(0.571776 0.388148 0)
(0.536287 0.411354 0)
(0.500666 0.439158 0)
(0.47089 0.480132 0)
(0.432598 0.535487 0)
(0.400502 0.632574 0)
(0.346937 0.757006 0)
(0.380884 0.883675 0)
(3 -5.1763e-17 0)
(3 -4.92891e-16 0)
(3 -7.28364e-16 0)
(3 -5.47105e-16 0)
(3 -1.03652e-15 0)
(3 -5.94652e-16 0)
(3 -1.28156e-16 0)
(3 1.51341e-18 0)
(3 1.35459e-15 0)
(3 1.30812e-15 0)
(3 -1.2182e-08 0)
(1.7483 0.40454 0)
(0.801501 0.427694 0)
(0.712194 0.418275 0)
(0.673765 0.421004 0)
(0.636085 0.419835 0)
(0.602983 0.429868 0)
(0.572765 0.45152 0)
(0.543521 0.475881 0)
(0.521107 0.516334 0)
(0.493096 0.576773 0)
(0.483569 0.675588 0)
(0.471694 0.760319 0)
(0.499072 0.768998 0)
(3 -2.79393e-17 0)
(3 1.65676e-16 0)
(3 2.23356e-16 0)
(3 1.83621e-17 0)
(3 -1.82067e-17 0)
(3 4.94635e-16 0)
(3 1.24497e-15 0)
(3 1.54362e-15 0)
(3 1.60433e-15 0)
(3 1.46803e-15 0)
(3 -6.23989e-10 0)
(2.30448 0.396107 0)
(0.907019 0.498561 0)
(0.778439 0.45031 0)
(0.742624 0.441508 0)
(0.704516 0.447293 0)
(0.669228 0.46118 0)
(0.637737 0.48698 0)
(0.608763 0.509572 0)
(0.584452 0.544659 0)
(0.564228 0.595328 0)
(0.559874 0.672938 0)
(0.570734 0.745186 0)
(0.577445 0.741361 0)
(3 2.96856e-17 0)
(3 1.44854e-16 0)
(3 -6.92462e-17 0)
(3 -2.77162e-16 0)
(3 1.73363e-16 0)
(3 9.55869e-16 0)
(3 1.17588e-15 0)
(3 1.0629e-15 0)
(3 7.05493e-16 0)
(3 3.67505e-16 0)
(3 -1.62888e-10 0)
(2.93956 0.161365 0)
(1.10576 0.499968 0)
(0.858638 0.481411 0)
(0.821525 0.479132 0)
(0.783313 0.489201 0)
(0.74433 0.501599 0)
(0.711272 0.525117 0)
(0.679639 0.544957 0)
(0.650069 0.565359 0)
(0.630151 0.602187 0)
(0.616891 0.651123 0)
(0.623815 0.674043 0)
(0.621596 0.650838 0)
(3 -3.37026e-17 0)
(3 -8.88611e-17 0)
(3 -3.03031e-16 0)
(3 -2.91809e-16 0)
(3 5.09632e-17 0)
(3 2.1652e-16 0)
(3 6.97465e-17 0)
(3 9.82366e-17 0)
(3 2.88679e-16 0)
(3 3.79827e-16 0)
(3 -6.75688e-11 0)
(3.03599 0.00916555 0)
(1.28121 0.472387 0)
(0.871001 0.526 0)
(0.828581 0.529707 0)
(0.797078 0.537199 0)
(0.767405 0.545233 0)
(0.743855 0.560643 0)
(0.71886 0.575644 0)
(0.689673 0.581882 0)
(0.668088 0.577881 0)
(0.647105 0.568477 0)
(0.641687 0.561599 0)
(0.646198 0.552655 0)
(3 8.11382e-17 0)
(3 1.32815e-17 0)
(3 -5.3126e-17 0)
(3 8.67775e-17 0)
(3 -1.267e-16 0)
(3 -4.53094e-16 0)
(3 -4.11087e-16 0)
(3 8.2682e-17 0)
(3 2.5671e-16 0)
(3 3.83398e-16 0)
(3 -1.11577e-11 0)
(3.00078 1.03673e-05 0)
(1.6258 0.489353 0)
(0.872668 0.556465 0)
(0.827312 0.563277 0)
(0.807443 0.569372 0)
(0.783604 0.568552 0)
(0.759783 0.572788 0)
(0.730993 0.559864 0)
(0.691703 0.52594 0)
(0.662379 0.488661 0)
(0.653121 0.469468 0)
(0.657747 0.473801 0)
(0.673015 0.48625 0)
(3 7.37544e-17 0)
(3 1.46253e-16 0)
(3 6.71013e-17 0)
(3 9.86799e-17 0)
(3 -2.52933e-16 0)
(3 -5.20597e-16 0)
(3 -7.02091e-16 0)
(3 -1.25767e-15 0)
(3 -1.51663e-15 0)
(3 -9.95229e-16 0)
(3 -3.45371e-13 0)
(3 -6.43414e-08 0)
(2.32404 0.460482 0)
(0.975795 0.623118 0)
(0.864658 0.585616 0)
(0.838227 0.578043 0)
(0.798546 0.568148 0)
(0.749064 0.52665 0)
(0.700928 0.473393 0)
(0.673829 0.438179 0)
(0.670525 0.428172 0)
(0.678195 0.435827 0)
(0.697157 0.449937 0)
(0.721066 0.471951 0)
(3 6.476e-17 0)
(3 9.44898e-17 0)
(3 -5.78299e-17 0)
(3 -6.30203e-17 0)
(3 2.3927e-16 0)
(3 -4.78809e-16 0)
(3 -9.6679e-16 0)
(3 -1.03017e-15 0)
(3 -9.5585e-16 0)
(3 -6.51468e-16 0)
(3 -8.10307e-16 0)
(3 -2.77715e-08 0)
(3.08015 0.104386 0)
(1.25552 0.634441 0)
(0.921632 0.624299 0)
(0.866053 0.577477 0)
(0.782091 0.505423 0)
(0.710299 0.429342 0)
(0.689096 0.395005 0)
(0.679743 0.388471 0)
(0.690326 0.397257 0)
(0.705583 0.413139 0)
(0.727529 0.431816 0)
(0.756557 0.45303 0)
(3 -4.24299e-17 0)
(3 -2.5107e-16 0)
(3 -1.63656e-16 0)
(3 3.74071e-16 0)
(3 6.08092e-16 0)
(3 7.8963e-17 0)
(3 -1.82988e-16 0)
(3 3.76694e-16 0)
(3 4.70212e-16 0)
(3 2.30491e-16 0)
(3 4.13623e-16 0)
(3 -5.25018e-09 0)
(3.02072 0.00108104 0)
(1.57665 0.656689 0)
(0.870524 0.647943 0)
(0.782401 0.522812 0)
(0.709891 0.414229 0)
(0.702378 0.36576 0)
(0.697749 0.361705 0)
(0.713318 0.374245 0)
(0.729396 0.395528 0)
(0.74497 0.417069 0)
(0.764558 0.43607 0)
(0.791361 0.45525 0)
(3 -2.35923e-16 0)
(3 -1.27393e-16 0)
(3 2.82403e-16 0)
(3 4.25227e-16 0)
(3 4.06554e-18 0)
(3 5.68556e-17 0)
(3 5.50424e-16 0)
(3 8.69989e-16 0)
(3 6.54812e-16 0)
(3 7.28846e-16 0)
(3 6.85866e-16 0)
(3 -6.31828e-10 0)
(3.00019 -6.99372e-06 0)
(2.25595 0.561099 0)
(0.838509 0.541068 0)
(0.72031 0.415131 0)
(0.715798 0.353655 0)
(0.727828 0.340975 0)
(0.743818 0.351734 0)
(0.762859 0.371553 0)
(0.779724 0.397416 0)
(0.790974 0.424025 0)
(0.805527 0.443691 0)
(0.826049 0.459113 0)
(3 -4.17818e-17 0)
(3 7.17679e-17 0)
(3 6.03887e-16 0)
(3 1.34796e-16 0)
(3 -8.14005e-17 0)
(3 3.44146e-16 0)
(3 5.75301e-16 0)
(3 2.78301e-16 0)
(3 8.40006e-16 0)
(3 4.30852e-16 0)
(3 1.11506e-16 0)
(3 -1.3767e-13 0)
(3.00001 -5.04246e-06 0)
(2.499 0.18655 0)
(0.812227 0.305065 0)
(0.719463 0.340075 0)
(0.747075 0.345052 0)
(0.781974 0.355084 0)
(0.810836 0.376232 0)
(0.823017 0.39527 0)
(0.833076 0.415222 0)
(0.836816 0.437117 0)
(0.841892 0.456366 0)
(0.857324 0.467458 0)
(3 2.69478e-17 0)
(3 -1.95849e-16 0)
(3 2.8639e-17 0)
(3 5.50207e-17 0)
(3 3.97946e-16 0)
(3 4.87296e-16 0)
(3 3.29767e-16 0)
(3 -1.05586e-16 0)
(3 7.51659e-17 0)
(3 7.60164e-17 0)
(3 -1.12101e-16 0)
(3 -2.15715e-14 0)
(3 -8.16106e-07 0)
(2.08892 -0.0294897 0)
(0.646264 0.139498 0)
(0.639507 0.27337 0)
(0.758179 0.342508 0)
(0.823095 0.385359 0)
(0.867498 0.402039 0)
(0.883084 0.413324 0)
(0.885497 0.427057 0)
(0.882903 0.444445 0)
(0.879733 0.461535 0)
(0.888391 0.469645 0)
(3 2.74735e-17 0)
(3 -5.6603e-17 0)
(3 -2.66234e-16 0)
(3 -2.22243e-16 0)
(3 8.34134e-18 0)
(3 -2.81033e-16 0)
(3 -5.06553e-16 0)
(3 -6.28603e-16 0)
(3 -1.3385e-15 0)
(3 -1.41212e-15 0)
(3 -1.14716e-15 0)
(3 -1.68349e-15 0)
(3 -5.30773e-08 0)
(1.82519 -0.0370205 0)
(0.57202 0.0685373 0)
(0.552697 0.212347 0)
(0.726129 0.327452 0)
(0.818144 0.4053 0)
(0.874738 0.42366 0)
(0.905229 0.432811 0)
(0.916611 0.443742 0)
(0.920696 0.456056 0)
(0.91987 0.467426 0)
(0.923198 0.477026 0)
(3 6.21304e-17 0)
(3 1.14499e-16 0)
(3 -1.5979e-16 0)
(3 -6.50202e-16 0)
(3 -9.99039e-16 0)
(3 -1.53602e-15 0)
(3 -1.62002e-15 0)
(3 -1.47937e-15 0)
(3 -2.21398e-15 0)
(3 -2.366e-15 0)
(3 -1.90233e-15 0)
(3 -1.57095e-15 0)
(3 -9.04423e-10 0)
(1.76349 -0.0158676 0)
(0.56904 0.0239645 0)
(0.518568 0.136097 0)
(0.661357 0.234614 0)
(0.767579 0.337606 0)
(0.853586 0.39992 0)
(0.902875 0.429096 0)
(0.932151 0.443239 0)
(0.948459 0.457425 0)
(0.957673 0.46897 0)
(0.963881 0.477017 0)
(3 -5.7968e-17 0)
(3 -7.18458e-17 0)
(3 -4.39644e-16 0)
(3 -5.89176e-16 0)
(3 -1.29258e-15 0)
(3 -1.61381e-15 0)
(3 -1.56404e-15 0)
(3 -2.15034e-15 0)
(3 -2.24045e-15 0)
(3 -1.44121e-15 0)
(3 -1.06502e-15 0)
(3 -1.13499e-15 0)
(3 -4.35761e-12 0)
(1.76635 0.0133327 0)
(0.576306 0.0170054 0)
(0.505414 0.101199 0)
(0.587898 0.142211 0)
(0.668999 0.240139 0)
(0.785678 0.327144 0)
(0.880511 0.38226 0)
(0.939097 0.415488 0)
(0.971614 0.440093 0)
(0.987723 0.461723 0)
(0.999541 0.474074 0)
(3 -1.07889e-16 0)
(3 -1.68134e-16 0)
(3 -5.23596e-16 0)
(3 -5.01166e-16 0)
(3 -8.22863e-16 0)
(3 -4.64826e-16 0)
(3 -8.84836e-16 0)
(3 -1.20172e-15 0)
(3 -1.57067e-15 0)
(3 -2.3006e-15 0)
(3 -2.41308e-15 0)
(3 -1.45093e-15 0)
(3 -6.20179e-15 0)
(1.86716 0.0683384 0)
(0.595698 0.0501732 0)
(0.50395 0.0984851 0)
(0.537109 0.108689 0)
(0.587514 0.161865 0)
(0.689463 0.24206 0)
(0.801681 0.329195 0)
(0.900127 0.390444 0)
(0.96541 0.421224 0)
(0.999391 0.446349 0)
(1.02046 0.464212 0)
(3 7.53497e-17 0)
(3 3.66945e-16 0)
(3 4.35671e-16 0)
(3 2.13074e-16 0)
(3 -2.80205e-17 0)
(3 -3.26674e-16 0)
(3 -4.88284e-16 0)
(3 -1.65467e-16 0)
(3 9.29149e-17 0)
(3 -6.14139e-16 0)
(3 -1.1248e-15 0)
(3 -1.07036e-15 0)
(3 -1.95808e-15 0)
(2.01796 0.0969641 0)
(0.634567 0.101551 0)
(0.508275 0.0957513 0)
(0.527087 0.0848094 0)
(0.557603 0.101399 0)
(0.6176 0.153406 0)
(0.712385 0.228507 0)
(0.821433 0.307375 0)
(0.914691 0.374486 0)
(0.977678 0.413969 0)
(1.01999 0.434738 0)
(3 4.68114e-17 0)
(3 2.84551e-16 0)
(3 5.79814e-16 0)
(3 7.22477e-16 0)
(3 4.84212e-16 0)
(3 -2.46044e-16 0)
(3 -8.70874e-17 0)
(3 -7.75427e-17 0)
(3 1.25048e-15 0)
(3 1.40551e-15 0)
(3 7.6907e-16 0)
(3 2.40633e-16 0)
(3 -2.24509e-17 0)
(2.16625 0.116347 0)
(0.670376 0.146887 0)
(0.516556 0.0950456 0)
(0.534818 0.0773285 0)
(0.555695 0.0807677 0)
(0.582584 0.110498 0)
(0.643384 0.150684 0)
(0.722696 0.218002 0)
(0.825577 0.285452 0)
(0.915889 0.348005 0)
(0.987137 0.38862 0)
(3 4.47638e-17 0)
(3 2.38333e-16 0)
(3 2.8588e-16 0)
(3 2.76726e-16 0)
(3 3.89315e-16 0)
(3 4.78033e-16 0)
(3 4.91553e-16 0)
(3 6.53363e-16 0)
(3 1.39767e-15 0)
(3 2.06169e-15 0)
(3 1.84639e-15 0)
(3 1.44273e-15 0)
(3 8.10689e-16 0)
(2.34183 0.117246 0)
(0.710552 0.164219 0)
(0.532814 0.0981736 0)
(0.547644 0.0841263 0)
(0.564846 0.0815403 0)
(0.582688 0.0982308 0)
(0.613196 0.117976 0)
(0.657066 0.153339 0)
(0.729077 0.203934 0)
(0.816282 0.268499 0)
(0.909851 0.324173 0)
(3 6.93052e-19 0)
(3 -6.84673e-17 0)
(3 -1.73485e-16 0)
(3 4.90412e-17 0)
(3 9.56935e-16 0)
(3 1.18123e-15 0)
(3 1.24777e-15 0)
(3 1.17481e-15 0)
(3 1.16158e-15 0)
(3 7.41989e-16 0)
(3 5.81696e-16 0)
(3 9.40423e-16 0)
(3 5.90617e-16 0)
(2.51525 0.0948939 0)
(0.748134 0.153115 0)
(0.546491 0.100947 0)
(0.566851 0.0913199 0)
(0.581541 0.0951509 0)
(0.595518 0.0976193 0)
(0.615552 0.102379 0)
(0.632844 0.118102 0)
(0.668984 0.140956 0)
(0.727467 0.184155 0)
(0.81007 0.242197 0)
(3 -7.1513e-17 0)
(3 -5.14888e-16 0)
(3 -3.94169e-16 0)
(3 -2.86217e-18 0)
(3 1.65479e-16 0)
(3 6.78724e-16 0)
(3 9.78183e-16 0)
(3 8.53257e-16 0)
(3 7.6786e-16 0)
(3 1.41225e-16 0)
(3 -1.95784e-17 0)
(3 1.69403e-16 0)
(3 2.46966e-16 0)
(2.65468 0.0647033 0)
(0.781951 0.129829 0)
(0.557753 0.102786 0)
(0.582704 0.101976 0)
(0.603864 0.105933 0)
(0.616269 0.104074 0)
(0.626131 0.0992336 0)
(0.635088 0.101898 0)
(0.647429 0.112103 0)
(0.676136 0.13346 0)
(0.73096 0.168134 0)
(3 -8.67824e-17 0)
(3 -5.78237e-17 0)
(3 3.8499e-18 0)
(3 2.07412e-16 0)
(3 -2.71715e-16 0)
(3 -2.66557e-16 0)
(3 -2.23288e-16 0)
(3 -1.98575e-16 0)
(3 -2.41769e-16 0)
(3 -2.93509e-16 0)
(3 -4.02283e-16 0)
(3 -5.07842e-16 0)
(3 -5.65324e-16 0)
(2.7547 0.042184 0)
(0.818149 0.110864 0)
(0.571367 0.101141 0)
(0.597745 0.105117 0)
(0.623364 0.106745 0)
(0.635282 0.105017 0)
(0.641771 0.10058 0)
(0.644725 0.0990308 0)
(0.652009 0.101747 0)
(0.665011 0.109009 0)
(0.691596 0.1277 0)
(3 -3.46396e-17 0)
(3 9.70696e-17 0)
(3 2.266e-16 0)
(3 6.98772e-17 0)
(3 -3.00304e-16 0)
(3 -5.36961e-16 0)
(3 -1.11991e-16 0)
(3 -1.48433e-16 0)
(3 -7.63423e-16 0)
(3 -1.117e-15 0)
(3 -9.2809e-16 0)
(3 -8.64509e-16 0)
(3 -8.0904e-16 0)
(2.82197 0.0297485 0)
(0.854493 0.10288 0)
(0.585423 0.096347 0)
(0.609653 0.100232 0)
(0.637359 0.102205 0)
(0.651523 0.10424 0)
(0.658444 0.103351 0)
(0.661596 0.100561 0)
(0.664938 0.100198 0)
(0.673192 0.099071 0)
(0.687862 0.101853 0)
(3 2.21971e-18 0)
(3 -3.1931e-17 0)
(3 2.29053e-16 0)
(3 5.54759e-17 0)
(3 -8.11748e-17 0)
(3 -3.20029e-16 0)
(3 -1.98847e-16 0)
(3 -2.73425e-16 0)
(3 -1.10574e-15 0)
(3 -6.58376e-16 0)
(3 -6.7418e-16 0)
(3 -5.11953e-16 0)
(3 -4.49107e-16 0)
(2.87401 0.0214898 0)
(0.891881 0.098202 0)
(0.596417 0.0893514 0)
(0.617355 0.0924442 0)
(0.64703 0.0964964 0)
(0.662823 0.10007 0)
(0.671967 0.100388 0)
(0.677018 0.0984106 0)
(0.680453 0.0956851 0)
(0.685506 0.0926849 0)
(0.696534 0.0892212 0)
(3 -6.94205e-17 0)
(3 -1.99774e-16 0)
(3 -2.84618e-16 0)
(3 -1.67827e-16 0)
(3 4.17263e-17 0)
(3 -8.475e-17 0)
(3 -7.09844e-16 0)
(3 -1.1851e-15 0)
(3 -6.6981e-16 0)
(3 -3.61247e-16 0)
(3 -2.78561e-16 0)
(3 8.90176e-17 0)
(3 4.81865e-16 0)
(2.92007 0.0136831 0)
(0.932109 0.092927 0)
(0.604694 0.0814724 0)
(0.621775 0.0841001 0)
(0.652408 0.090078 0)
(0.668653 0.0928593 0)
(0.679294 0.0926376 0)
(0.68664 0.0906066 0)
(0.691765 0.0872143 0)
(0.69732 0.0835418 0)
(0.707569 0.080619 0)
(3 2.34058e-17 0)
(3 -5.73815e-17 0)
(3 -8.25495e-16 0)
(3 -1.26921e-15 0)
(3 -1.16412e-15 0)
(3 -5.89925e-16 0)
(3 -3.29381e-16 0)
(3 -2.63267e-17 0)
(3 8.17786e-16 0)
(3 5.49326e-16 0)
(3 3.64739e-16 0)
(3 3.74762e-16 0)
(3 6.66523e-16 0)
(2.96161 0.00573171 0)
(0.973451 0.0850588 0)
(0.611482 0.0731332 0)
(0.624003 0.0770977 0)
(0.654146 0.0834264 0)
(0.669026 0.0850173 0)
(0.680876 0.0828612 0)
(0.690365 0.079269 0)
(0.69778 0.0755443 0)
(0.705515 0.0721905 0)
(0.717045 0.0696643 0)
(3 1.5082e-16 0)
(3 -4.01659e-16 0)
(3 -6.74858e-16 0)
(3 -7.70743e-16 0)
(3 -7.78627e-16 0)
(3 -7.47495e-16 0)
(3 -3.73125e-17 0)
(3 9.44357e-16 0)
(3 9.08163e-16 0)
(3 1.05772e-15 0)
(3 1.02847e-15 0)
(3 5.19232e-16 0)
(3 -1.82663e-16 0)
(2.99224 0.000724739 0)
(1.01274 0.0742231 0)
(0.617606 0.0638972 0)
(0.625635 0.0702954 0)
(0.654291 0.0757715 0)
(0.666866 0.075366 0)
(0.678356 0.0719702 0)
(0.688056 0.0669921 0)
(0.697676 0.0624384 0)
(0.70914 0.0596913 0)
(0.724094 0.0579279 0)
(3 -2.41528e-17 0)
(3 6.86042e-17 0)
(3 7.35875e-16 0)
(3 1.43358e-15 0)
(3 1.59311e-15 0)
(3 9.2377e-16 0)
(3 3.28832e-16 0)
(3 -5.75694e-16 0)
(3 -1.02012e-15 0)
(3 -9.5247e-16 0)
(3 -4.33933e-16 0)
(3 -2.95168e-16 0)
(3 -4.4189e-16 0)
(3 2.52418e-06 0)
(1.0484 0.060365 0)
(0.623954 0.0531998 0)
(0.627484 0.0611857 0)
(0.653597 0.0642926 0)
(0.663739 0.0635146 0)
(0.674074 0.059525 0)
(0.682991 0.0544327 0)
(0.693776 0.05057 0)
(0.707481 0.0480179 0)
(0.726768 0.0462811 0)
(3 3.36311e-16 0)
(3 5.99651e-16 0)
(3 9.83463e-16 0)
(3 1.75482e-15 0)
(3 1.77778e-15 0)
(3 1.35012e-15 0)
(3 1.0052e-15 0)
(3 2.70086e-16 0)
(3 -1.14713e-15 0)
(3 -1.26297e-15 0)
(3 -1.58651e-15 0)
(3 -9.30469e-16 0)
(3 -7.10599e-16 0)
(3 1.45587e-13 0)
(1.0783 0.0452207 0)
(0.6296 0.0412535 0)
(0.629459 0.0482017 0)
(0.652952 0.0500195 0)
(0.661639 0.0490785 0)
(0.670477 0.0455466 0)
(0.678885 0.0417878 0)
(0.690004 0.0395838 0)
(0.704451 0.0376047 0)
(0.726387 0.0360511 0)
(3 1.20505e-16 0)
(3 3.88496e-16 0)
(3 -8.44475e-17 0)
(3 -6.9996e-17 0)
(3 2.47565e-16 0)
(3 6.03921e-16 0)
(3 7.32801e-16 0)
(3 6.88523e-16 0)
(3 2.0418e-16 0)
(3 -8.61383e-16 0)
(3 -9.25697e-16 0)
(3 -1.26427e-15 0)
(3 -1.47403e-15 0)
(3 -2.18056e-15 0)
(1.10018 0.0308294 0)
(0.634388 0.0288274 0)
(0.631774 0.0330802 0)
(0.653545 0.0335006 0)
(0.66159 0.0329094 0)
(0.669759 0.030861 0)
(0.67828 0.0294267 0)
(0.689109 0.0287171 0)
(0.703814 0.0274472 0)
(0.72735 0.0270929 0)
(3 1.04721e-16 0)
(3 1.92882e-16 0)
(3 1.0591e-16 0)
(3 -1.74662e-17 0)
(3 4.42303e-16 0)
(3 8.11747e-16 0)
(3 4.0474e-16 0)
(3 6.98063e-16 0)
(3 4.07198e-16 0)
(3 1.80102e-17 0)
(3 -4.18043e-16 0)
(3 -1.9187e-15 0)
(3 -2.23678e-15 0)
(3 -2.43003e-15 0)
(1.11418 0.0165736 0)
(0.63761 0.0161796 0)
(0.633973 0.017845 0)
(0.654707 0.0180752 0)
(0.662495 0.0181129 0)
(0.670237 0.017546 0)
(0.67856 0.0177599 0)
(0.689103 0.0178487 0)
(0.703213 0.0173085 0)
(0.726811 0.0165876 0)
(3 4.19263e-17 0)
(3 1.04252e-16 0)
(3 2.70443e-16 0)
(3 3.79851e-16 0)
(3 1.05362e-15 0)
(3 7.2291e-16 0)
(3 3.53564e-16 0)
(3 2.68273e-16 0)
(3 4.44814e-16 0)
(3 4.80703e-16 0)
(3 -1.77402e-16 0)
(3 -1.24924e-15 0)
(3 -1.89846e-15 0)
(3 -2.07523e-15 0)
(1.11717 0.00373867 0)
(0.636115 0.00432053 0)
(0.631236 0.00562458 0)
(0.651868 0.00562219 0)
(0.659845 0.00562715 0)
(0.668063 0.00542552 0)
(0.67718 0.0055177 0)
(0.688191 0.00559047 0)
(0.702858 0.00551136 0)
(0.727235 0.00549455 0)
(0.393803 0.575507 0)
(-0.100212 0.222591 0)
(-0.16405 0.0104375 0)
(-0.178652 -0.0242195 0)
(-0.180731 -0.0230156 0)
(-0.167231 -0.0300446 0)
(-0.118133 -0.0450459 0)
(-0.042968 -0.0570215 0)
(0.4568 0.480726 0)
(0.14572 0.209375 0)
(0.0224502 0.016575 0)
(-0.0922313 -0.0253971 0)
(-0.140701 -0.0380165 0)
(-0.137776 -0.0796866 0)
(-0.0921591 -0.117725 0)
(-0.0326924 -0.14374 0)
(0.514324 0.59728 0)
(0.32698 0.437193 0)
(0.20274 0.230679 0)
(0.0488824 0.0878401 0)
(-0.043453 -0.0242879 0)
(-0.0612815 -0.119154 0)
(-0.0535136 -0.178726 0)
(-0.0215226 -0.213565 0)
(0.589256 0.585171 0)
(0.529894 0.481218 0)
(0.474126 0.310726 0)
(0.319283 0.159594 0)
(0.159825 0.0368195 0)
(0.0765482 -0.104861 0)
(0.00373847 -0.194404 0)
(0.00374114 -0.253942 0)
(0.646972 0.541965 0)
(0.662311 0.517598 0)
(0.662717 0.438501 0)
(0.551397 0.33509 0)
(0.389441 0.201761 0)
(0.249472 0.0180585 0)
(0.0814855 -0.126716 0)
(0.050132 -0.252988 0)
(0.701143 0.500599 0)
(0.748651 0.504352 0)
(0.778636 0.476126 0)
(0.729794 0.423275 0)
(0.616594 0.331814 0)
(0.464427 0.178824 0)
(0.245005 0.0164137 0)
(0.124089 -0.158815 0)
(0.756914 0.497084 0)
(0.807047 0.509954 0)
(0.837869 0.505835 0)
(0.825486 0.485405 0)
(0.76175 0.440066 0)
(0.645396 0.341714 0)
(0.447738 0.198956 0)
(0.243308 0.0545253 0)
(0.794501 0.479836 0)
(0.84567 0.497834 0)
(0.879919 0.500588 0)
(0.884176 0.501714 0)
(0.848096 0.499664 0)
(0.763313 0.474928 0)
(0.579123 0.426597 0)
(0.304042 0.48419 0)
(0.827617 0.477153 0)
(0.873834 0.494425 0)
(0.910566 0.502827 0)
(0.920955 0.514376 0)
(0.907592 0.529041 0)
(0.863266 0.550433 0)
(0.804027 0.624013 0)
(0.843848 0.81186 0)
(0.855888 0.473363 0)
(0.894236 0.481344 0)
(0.931831 0.491725 0)
(0.952359 0.50841 0)
(0.958283 0.537733 0)
(0.95294 0.595965 0)
(0.992946 0.684542 0)
(1.18873 0.759072 0)
(0.881839 0.476077 0)
(0.915831 0.481627 0)
(0.953835 0.486738 0)
(0.984847 0.502014 0)
(1.00825 0.532123 0)
(1.03183 0.589828 0)
(1.11866 0.662687 0)
(1.33509 0.70999 0)
(0.909274 0.474584 0)
(0.939407 0.475534 0)
(0.976834 0.478306 0)
(1.01587 0.489188 0)
(1.05217 0.515157 0)
(1.09326 0.562744 0)
(1.19394 0.621337 0)
(1.38465 0.648812 0)
(0.940933 0.481328 0)
(0.968317 0.479421 0)
(1.00463 0.479081 0)
(1.04768 0.485716 0)
(1.09357 0.503584 0)
(1.14434 0.536181 0)
(1.23909 0.575802 0)
(1.39435 0.590223 0)
(0.9789 0.480658 0)
(1.00284 0.480496 0)
(1.0358 0.479061 0)
(1.07867 0.48033 0)
(1.12903 0.489791 0)
(1.18782 0.510864 0)
(1.27466 0.53134 0)
(1.39381 0.533807 0)
(1.01518 0.478871 0)
(1.0372 0.479401 0)
(1.06812 0.478141 0)
(1.1094 0.477064 0)
(1.16018 0.4764 0)
(1.22139 0.483639 0)
(1.30048 0.490668 0)
(1.39682 0.487546 0)
(1.04056 0.470977 0)
(1.06402 0.469386 0)
(1.09577 0.464522 0)
(1.1377 0.465264 0)
(1.18913 0.464476 0)
(1.25035 0.462478 0)
(1.32158 0.458033 0)
(1.40205 0.449286 0)
(1.05142 0.448917 0)
(1.08295 0.455533 0)
(1.1201 0.45668 0)
(1.16285 0.449567 0)
(1.21325 0.444062 0)
(1.27304 0.440548 0)
(1.34001 0.434748 0)
(1.4106 0.426016 0)
(1.04193 0.409661 0)
(1.08879 0.425026 0)
(1.13557 0.435861 0)
(1.18501 0.440327 0)
(1.2365 0.437079 0)
(1.29392 0.425859 0)
(1.35541 0.412377 0)
(1.41586 0.400059 0)
(0.992122 0.368216 0)
(1.06391 0.394538 0)
(1.13133 0.403701 0)
(1.19137 0.412653 0)
(1.24827 0.417523 0)
(1.30441 0.41223 0)
(1.36341 0.400765 0)
(1.41782 0.386874 0)
(0.90657 0.295884 0)
(1.00386 0.335754 0)
(1.09033 0.364003 0)
(1.16638 0.380932 0)
(1.23723 0.384448 0)
(1.30054 0.388686 0)
(1.35865 0.380151 0)
(1.40968 0.367594 0)
(0.812411 0.211942 0)
(0.909384 0.257114 0)
(1.01128 0.293984 0)
(1.10808 0.322715 0)
(1.19294 0.345206 0)
(1.27099 0.352278 0)
(1.33799 0.351628 0)
(1.39496 0.344278 0)
(0.742436 0.151966 0)
(0.816532 0.182555 0)
(0.907746 0.220692 0)
(1.00803 0.258979 0)
(1.10915 0.289185 0)
(1.20247 0.307911 0)
(1.28522 0.319843 0)
(1.35682 0.314333 0)
(0.714181 0.11281 0)
(0.759385 0.129809 0)
(0.82528 0.152823 0)
(0.910096 0.183959 0)
(1.0058 0.218892 0)
(1.10398 0.247427 0)
(1.19646 0.266323 0)
(1.27838 0.2751 0)
(0.71378 0.0884808 0)
(0.741584 0.0949097 0)
(0.785404 0.109767 0)
(0.847803 0.128515 0)
(0.923382 0.153646 0)
(1.00664 0.179568 0)
(1.09148 0.201399 0)
(1.17304 0.216205 0)
(0.7226 0.0777098 0)
(0.747296 0.0771299 0)
(0.784829 0.0837395 0)
(0.830808 0.0982049 0)
(0.88337 0.11522 0)
(0.941494 0.13022 0)
(1.00329 0.143405 0)
(1.06819 0.156922 0)
(0.734671 0.0682662 0)
(0.761547 0.0702686 0)
(0.798729 0.0739864 0)
(0.839608 0.0805179 0)
(0.879583 0.0890035 0)
(0.915812 0.0976544 0)
(0.95361 0.103675 0)
(0.997817 0.108639 0)
(0.746382 0.0568192 0)
(0.777515 0.0591582 0)
(0.81646 0.0645583 0)
(0.855736 0.0699434 0)
(0.889604 0.0743205 0)
(0.916231 0.0770039 0)
(0.940105 0.0801556 0)
(0.968422 0.0835748 0)
(0.75537 0.0472437 0)
(0.791669 0.0504717 0)
(0.83266 0.0552721 0)
(0.872086 0.0613571 0)
(0.903794 0.0669348 0)
(0.925789 0.0689054 0)
(0.945724 0.0697278 0)
(0.968169 0.0694209 0)
(0.759419 0.0370084 0)
(0.800241 0.0408376 0)
(0.844196 0.0471335 0)
(0.884835 0.0538119 0)
(0.915979 0.0598978 0)
(0.93627 0.0629349 0)
(0.955076 0.0641848 0)
(0.974065 0.0623963 0)
(0.762148 0.0277369 0)
(0.805039 0.0303305 0)
(0.850919 0.0353971 0)
(0.892713 0.0421372 0)
(0.922488 0.0476002 0)
(0.942388 0.0502976 0)
(0.960659 0.051948 0)
(0.978653 0.0504721 0)
(0.762302 0.0166753 0)
(0.806868 0.018183 0)
(0.854622 0.0220338 0)
(0.897489 0.0273861 0)
(0.925882 0.0313262 0)
(0.945434 0.0336216 0)
(0.962927 0.0349285 0)
(0.979528 0.0334803 0)
(0.763536 0.00596811 0)
(0.808899 0.00723462 0)
(0.857036 0.00906054 0)
(0.898942 0.0107875 0)
(0.925817 0.0118145 0)
(0.94499 0.0123615 0)
(0.961586 0.0122534 0)
(0.97741 0.011263 0)
(1.73671 0.779542 0)
(2.27228 0.857798 0)
(2.42859 0.538679 0)
(2.43728 0.274075 0)
(2.42813 -0.0242378 0)
(2.37974 -0.147065 0)
(2.24363 -0.168251 0)
(2.0897 -0.124655 0)
(2.00485 -0.100214 0)
(1.94898 -0.08004 0)
(1.9504 -0.0415396 0)
(1.96548 -0.0310855 0)
(1.91632 -0.0375434 0)
(1.85257 -0.0327737 0)
(1.74205 -0.025345 0)
(1.51614 9.69295e-05 0)
(1.48384 -0.00334134 0)
(1.49591 -0.0143761 0)
(1.48811 -0.013544 0)
(1.46878 -0.00914464 0)
(1.45925 -0.00260584 0)
(1.46766 0.000832235 0)
(1.48734 0.00278197 0)
(1.51367 0.00165694 0)
(1.53354 0.000357269 0)
(1.55359 -0.000192315 0)
(1.57926 -0.000957228 0)
(1.61822 -0.00286363 0)
(1.65914 -0.00620021 0)
(1.68492 -0.00736142 0)
(1.70965 -0.00782651 0)
(1.72908 -0.00733867 0)
(1.73468 -0.00385146 0)
(1.73689 0.0013115 0)
(1.74296 0.00667317 0)
(1.75104 0.0110537 0)
(1.76471 0.0134185 0)
(1.78482 0.0141347 0)
(1.80696 0.0144017 0)
(1.8316 0.0144394 0)
(1.86084 0.0136402 0)
(1.88798 0.0124542 0)
(1.91041 0.0120797 0)
(1.93228 0.011724 0)
(1.95033 0.0115396 0)
(1.95989 0.0107238 0)
(1.96553 0.00785006 0)
(1.97959 0.0051549 0)
(2.00022 0.00429728 0)
(2.02342 0.00403503 0)
(2.04799 0.00375747 0)
(2.07305 0.00322554 0)
(2.09812 0.00281093 0)
(2.12253 0.00288881 0)
(2.14395 0.00386023 0)
(2.15594 0.00605461 0)
(2.1515 0.00951644 0)
(2.14774 0.0122948 0)
(2.16491 0.0128613 0)
(2.18815 0.0130184 0)
(2.21206 0.0131812 0)
(2.23606 0.0133874 0)
(2.26072 0.0135545 0)
(2.28826 0.013319 0)
(2.32103 0.0123314 0)
(2.35409 0.0106633 0)
(2.38142 0.00894249 0)
(2.40684 0.00836716 0)
(2.43105 0.00754156 0)
(2.44303 0.00669322 0)
(2.41511 0.00936694 0)
(2.38242 0.013238 0)
(2.39208 0.0143328 0)
(2.41225 0.0149165 0)
(2.43472 0.0154561 0)
(2.45814 0.0158281 0)
(2.48164 0.0161727 0)
(2.5061 0.0165698 0)
(2.53354 0.0167451 0)
(2.56504 0.0162628 0)
(2.5959 0.0153941 0)
(2.61933 0.0138085 0)
(2.64008 0.0124952 0)
(2.65843 0.0108725 0)
(2.65078 0.00953959 0)
(2.61003 0.0109495 0)
(2.6031 0.0129563 0)
(2.62714 0.0132298 0)
(1.78809 0.62685 0)
(2.16502 0.323404 0)
(2.31419 0.0627515 0)
(2.39182 -0.183572 0)
(2.42551 -0.376282 0)
(2.4126 -0.384622 0)
(2.35498 -0.345138 0)
(2.25628 -0.29993 0)
(2.15086 -0.213326 0)
(2.05233 -0.120118 0)
(2.00062 -0.0695839 0)
(1.99133 -0.0491471 0)
(1.981 -0.047931 0)
(1.92075 -0.0427744 0)
(1.83521 -0.020415 0)
(1.62384 0.0550349 0)
(1.53518 0.0572874 0)
(1.52438 0.0126569 0)
(1.51978 -0.0261618 0)
(1.50648 -0.0377864 0)
(1.50454 -0.0321083 0)
(1.51342 -0.0197833 0)
(1.53097 -0.00647486 0)
(1.54971 0.00236752 0)
(1.5656 0.00664742 0)
(1.58334 0.012383 0)
(1.60548 0.017473 0)
(1.63407 0.0178069 0)
(1.66771 0.0071945 0)
(1.69353 -0.00400967 0)
(1.7151 -0.010176 0)
(1.73071 -0.0180457 0)
(1.73951 -0.0228847 0)
(1.74722 -0.0191867 0)
(1.75693 -0.0100252 0)
(1.76661 0.0021189 0)
(1.77849 0.0131581 0)
(1.79775 0.0196948 0)
(1.82012 0.0244336 0)
(1.84437 0.0304098 0)
(1.87092 0.0371001 0)
(1.89461 0.039923 0)
(1.91691 0.0403493 0)
(1.93688 0.0399509 0)
(1.95118 0.0381857 0)
(1.95768 0.0353168 0)
(1.96306 0.0316819 0)
(1.98078 0.0273147 0)
(2.00455 0.0233558 0)
(2.02903 0.017799 0)
(2.05379 0.0116593 0)
(2.07845 0.00649597 0)
(2.10304 0.00211158 0)
(2.12759 -0.00218175 0)
(2.15103 -0.00657312 0)
(2.16915 -0.00796133 0)
(2.17417 0.000643381 0)
(2.16776 0.0185449 0)
(2.17515 0.0288618 0)
(2.19683 0.0304764 0)
(2.21986 0.0312985 0)
(2.24312 0.0329933 0)
(2.26723 0.0362318 0)
(2.29336 0.0402087 0)
(2.32269 0.0425095 0)
(2.35055 0.0397927 0)
(2.37701 0.0336057 0)
(2.40265 0.0253947 0)
(2.42706 0.0153967 0)
(2.44393 0.00351534 0)
(2.43709 0.00124448 0)
(2.40734 0.0193731 0)
(2.40471 0.0308901 0)
(2.42415 0.0324199 0)
(2.44581 0.0327172 0)
(2.46835 0.0330954 0)
(2.49092 0.0339901 0)
(2.51424 0.0360367 0)
(2.53989 0.0397852 0)
(2.5677 0.0447111 0)
(2.59047 0.0453133 0)
(2.61456 0.0424365 0)
(2.63784 0.036199 0)
(2.65593 0.0246895 0)
(2.65785 0.0125386 0)
(2.63281 0.0175734 0)
(2.61635 0.0276136 0)
(2.63531 0.0337266 0)
(1.69282 0.650394 0)
(1.98936 0.436423 0)
(2.13809 0.280329 0)
(2.2719 0.0779628 0)
(2.32083 -0.0925042 0)
(2.34011 -0.194844 0)
(2.35731 -0.286051 0)
(2.36799 -0.369188 0)
(2.30628 -0.353616 0)
(2.2107 -0.259502 0)
(2.15712 -0.194093 0)
(2.10174 -0.160209 0)
(2.05885 -0.135852 0)
(2.0179 -0.0833947 0)
(1.98121 -0.0605429 0)
(1.81468 0.0122177 0)