/*--------------------------------*- C++ -*----------------------------------*\
  =========                 |
  \\      /  F ield         | OpenFOAM: The Open Source CFD Toolbox
   \\    /   O peration     | Website:  https://openfoam.org
    \\  /    A nd           | Version:  7
     \\/     M anipulation  |
\*---------------------------------------------------------------------------*/
FoamFile
{
    version     2.0;
    format      ascii;
    class       volScalarField;
    location    "3.3";
    object      T;
}
// * * * * * * * * * * * * * * * * * * * * * * * * * * * * * * * * * * * * * //

dimensions      [0 0 0 1 0 0 0];

internalField   nonuniform List<scalar> 
4040
(
1
1
1
1
1
1
1
1
1
1
1
1
1
1.05292
2.3278
2.71797
2.73278
2.74982
2.76534
2.77952
2.79284
2.80488
2.81533
2.82346
1
1
1
1
1
1
1
1
1
1
1
1
1
1.01572
2.30177
2.71467
2.73064
2.74745
2.76273
2.77633
2.789
2.80022
2.80937
2.81617
1
1
1
1
1
1
1
1
1
1
1
1
1
1.00043
2.25369
2.70954
2.72693
2.7431
2.75755
2.76912
2.77891
2.78796
2.79886
2.81183
1
1
1
1
1
1
1
1
1
1
1
1
1
1
2.17897
2.69874
2.72115
2.73673
2.75069
2.76118
2.7691
2.77887
2.79314
2.82631
1
1
1
1
1
1
1
1
1
1
1
1
1
1
2.07048
2.67799
2.71221
2.72725
2.74049
2.74976
2.75488
2.75893
2.75151
2.75838
1
1
1
1
1
1
1
1
1
1
1
1
1
1
1.92209
2.64004
2.69422
2.71158
2.72589
2.73485
2.73738
2.73556
2.7244
2.73833
1
1
1
1
1
1
1
1
1
1
1
1
1
1
1.72014
2.57295
2.66619
2.69203
2.70851
2.71784
2.71805
2.71256
2.70325
2.70784
1
1
1
1
1
1
1
1
1
1
1
1
1
1
1.42778
2.45385
2.63821
2.66643
2.68596
2.69742
2.6961
2.68936
2.68146
2.68531
1
1
1
1
1
1
1
1
1
1
1
1
1
1
1.05865
2.32114
2.63893
2.6422
2.65449
2.66545
2.66628
2.66129
2.65176
2.64094
1
1
1
1
1
1
1
1
1
1
1
1
1
1
1.00087
2.16294
2.59585
2.60495
2.61781
2.62695
2.63034
2.6262
2.61328
2.58421
1
1
1
1
1
1
1
1
1
1
1
1
1
1
0.999991
1.86839
2.53491
2.58986
2.59755
2.59892
2.59842
2.59169
2.57482
2.53807
1
1
1
1
1
1
1
1
1
1
1
1
1
1
0.999998
1.4178
2.39578
2.56964
2.57181
2.57161
2.56789
2.5572
2.53558
2.49777
1
1
1
1
1
1
1
1
1
1
1
1
1
1
1
1.04827
2.20741
2.53178
2.54236
2.5421
2.53733
2.52459
2.50118
2.46142
1
1
1
1
1
1
1
1
1
1
1
1
1
1
1
1.00041
1.87239
2.45205
2.51834
2.51636
2.50877
2.49354
2.47036
2.42794
1
1
1
1
1
1
1
1
1
1
1
1
1
1
1
0.999997
1.30114
2.29669
2.49492
2.48393
2.47693
2.46351
2.43909
2.40084
1
1
1
1
1
1
1
1
1
1
1
1
1
1
1
0.999999
1.02115
2.10951
2.44967
2.43663
2.4373
2.42872
2.40876
2.37655
1
1
1
1
1
1
1
1
1
1
1
1
1
1
1
1
1.00005
1.63954
2.33838
2.41589
2.41174
2.40098
2.38125
2.35148
1
1
1
1
1
1
1
1
1
1
1
1
1
1
1
1
1
1.1089
2.13496
2.39677
2.38914
2.37493
2.3538
2.32581
1
1
1
1
1
1
1
1
1
1
1
1
1
1
1
1
1
1.0024
1.72073
2.29525
2.36705
2.34792
2.32766
2.30156
1
1
1
1
1
1
1
1
1
1
1
1
1
1
1
1
1
1
1.15687
2.09878
2.34223
2.32197
2.30437
2.28025
1
1
1
1
1
1
1
1
1
1
1
1
1
1
1
1
1
1
1.0052
1.6887
2.23286
2.29696
2.27795
2.25661
1
1
1
1
1
1
1
1
1
1
1
1
1
1
1
1
1
1
1.00001
1.14867
2.0197
2.27258
2.25235
2.23727
1
1
1
1
1
1
1
1
1
1
1
1
1
1
1
1
1
1
1
1.00471
1.52686
2.12085
2.23077
2.21272
1
1
1
1
1
1
1
1
1
1
1
1
1
1
1
1
1
1
1
1.00002
1.08194
1.86804
2.20361
2.18949
1
1
1
1
1
1
1
1
1
1
1
1
1
1
1
1
1
1
1
1
1.0016
1.33225
2.01961
2.16874
1
1
1
1
1
1
1
1
1
1
1
1
1
1
1
1
1
1
1
1
1.00001
1.0274
1.63897
2.07011
1
1
1
1
1
1
1
1
1
1
1
1
1
1
1
1
1
1
1
1
1
1.00031
1.14285
1.82791
1
1
1
1
1
1
1
1
1
1
1
1
1
1
1
1
1
1
1
1
1
1
1.00486
1.33493
1
1
1
1
1
1
1
1
1
1
1
1
1
1
1
1
1
1
1
1
1
1
1.00003
1.02994
1
1
1
1
1
1
1
1
1
1
1
1
1
1
1
1
1
1
1
1
1
1
1
1.00041
1
1
1
1
1
1
1
1
1
1
1
1
1
1
1
1
1
1
1
1
1
1
1
1
1
1
1
1
1
1
1
1
1
1
1
1
1
1
1
1
1
1
1
1
1
1
1
1
1
1
1
1
1
1
1
1
1
1
1
1
1
1
1
1
1
1
1
1
1
1
1
1
1
1
1
1
1
1
1
1
1
1
1
1
1
1
1
1
1
1
1
1
1
1
1
1
1
1
1
1
1
1
1
1
1
1
1
1
1
1
1
1
1
1
1
1
1
1
1
1
1
1
1
1
1
1
1
1
1
1
1
1
1
1
1
1
1
1
1
1
1
1
1
1
1
1
1
1
1
1
1
1
1
1
1
1
1
1
1
1
1
1
1
1
1
1
1
1
1
1
1
1
1
1
1
1
1
1
1
1
1
1
1
1
1
1
1
1
1
1
1
1
1
1
1
1
1
1
1
1
1
1
1
1
1
1
1
1
1
1
1
1
1
1
1
1
1
1
1
1
1
1
1
1
1
1
1
1
1
1
1
1
1
1
1
1
1
1
1
1
2.6966
2.74898
2.76125
2.81227
2.73371
2.77555
2.72228
2.80359
2.6134
2.53327
2.53238
2.38833
2.47206
2.31458
2.42192
2.28258
2.38767
2.2817
2.36251
2.27786
2.34498
2.27455
2.32908
2.26916
2.31077
2.26096
2.29025
2.249
2.27035
2.23462
2.25225
2.22006
2.23253
2.20478
2.21723
2.19238
2.19594
2.1752
2.17452
2.15627
2.14695
2.13058
2.13702
2.11783
2.10553
2.10112
1.92846
2.07827
1.5305
1.96799
1.09643
1.68719
1.0027
1.2104
1.00002
1.01161
1
1.00012
1
1
1
1
1
1
1
1
1
1
1
1
1
1
1.76644
1.32134
1.09502
1.13192
1.25356
1.34253
1.44652
1.57537
1.64969
1.6486
1.64831
1.67522
1.72618
1.74389
1.74079
1.7312
1.73185
1.74235
1.75146
1.74817
1.72934
1.70847
1.7049
1.7124
1.72652
1.72929
1.72809
1.71971
1.70603
1.69942
1.69924
1.70021
2.31691
2.86067
2.8516
2.83419
2.81524
2.7957
2.77778
2.75961
2.73804
2.71154
2.68337
2.65641
2.63291
2.61365
2.59749
2.58182
2.56419
2.54451
2.52405
2.50425
2.48713
2.4746
2.4594
2.43873
2.41859
2.39814
2.38159
2.36871
2.35942
2.35437
2.34776
2.33242
2.31247
2.28659
2.26189
2.24566
2.23399
2.22741
2.22703
2.22403
2.21535
2.20411
2.18464
2.16045
2.14386
2.13174
2.1213
2.11693
2.11161
2.10106
2.09066
2.07468
2.05299
2.0396
2.03341
2.02778
2.02301
2.02115
2.01266
1.99921
1.98456
1.95739
1.96394
1.75678
1.54486
1.40588
1.39855
1.38243
1.39308
1.40538
1.40483
1.41768
1.44635
1.49765
1.55517
1.59536
1.61501
1.62761
1.63835
1.65677
1.67535
1.67801
1.67041
1.65889
1.65838
1.66681
1.68369
1.69263
1.69296
1.68943
1.68166
1.67551
1.67328
1.67099
2.2158
2.80388
2.80212
2.78187
2.75844
2.73784
2.71901
2.70255
2.68537
2.66451
2.64014
2.61457
2.591
2.57189
2.55792
2.54757
2.53597
2.51909
2.4984
2.47665
2.45618
2.44015
2.43032
2.42044
2.40695
2.39193
2.37412
2.35496
2.33996
2.32818
2.31934
2.31005
2.29728
2.28202
2.26394
2.24405
2.22847
2.21816
2.21035
2.20386
2.19816
2.19022
2.1784
2.16329
2.14458
2.1284
2.11667
2.10636
2.09741
2.08998
2.08127
2.07022
2.05678
2.04206
2.03098
2.02406
2.01767
2.01032
2.00235
1.99171
1.97958
1.95866
2.04871
1.87431
1.72932
1.59923
1.52213
1.4503
1.38489
1.35761
1.31619
1.31102
1.34113
1.38183
1.41384
1.44164
1.46275
1.48878
1.51151
1.53683
1.56216
1.58387
1.59104
1.59302
1.59851
1.60617
1.61596
1.61944
1.62042
1.61958
1.61575
1.61194
1.61314
1.62905
1.98492
2.62278
2.68868
2.64828
2.62376
2.60627
2.59165
2.58471
2.57729
2.56612
2.5509
2.53081
2.50931
2.48943
2.47393
2.4647
2.4597
2.45223
2.44106
2.42561
2.40284
2.38157
2.36678
2.35799
2.35357
2.34667
2.33646
2.32421
2.30545
2.28167
2.26582
2.25626
2.2493
2.24633
2.23996
2.22871
2.21515
2.1964
2.17675
2.16611
2.15843
2.15207
2.1491
2.14428
2.13545
2.1212
2.10093
2.08356
2.07248
2.0627
2.05421
2.04841
2.04308
2.03731
2.02723
2.01231
1.99921
1.98995
1.9805
1.97002
1.96183
1.9481
2.10346
1.95624
1.82452
1.72213
1.63741
1.55778
1.48257
1.44365
1.40025
1.35398
1.34763
1.33985
1.33872
1.34497
1.35673
1.38026
1.41026
1.43563
1.45631
1.47767
1.49925
1.51434
1.52709
1.54155
1.5515
1.55635
1.56113
1.56026
1.55522
1.55295
1.56751
1.65858
1.8635
2.30706
2.50059
2.53663
2.51244
2.4824
2.46135
2.45354
2.4504
2.44623
2.43989
2.42781
2.41182
2.3941
2.37879
2.36809
2.36235
2.35676
2.35054
2.34328
2.33147
2.31411
2.29913
2.28872
2.2818
2.27659
2.26982
2.26117
2.24899
2.23141
2.21255
2.20106
2.19484
2.1928
2.19132
2.18549
2.17576
2.16141
2.13983
2.11921
2.10943
2.10556
2.10478
2.10503
2.1025
2.09527
2.08089
2.05764
2.037
2.02556
2.01876
2.01548
2.01476
2.01206
2.00688
1.99687
1.97836
1.96027
1.94986
1.94209
1.9371
1.92813
2.15043
2.02785
1.9061
1.81503
1.73126
1.64141
1.57294
1.52752
1.48173
1.43357
1.40249
1.37441
1.34099
1.32788
1.3306
1.33527
1.34874
1.36733
1.38716
1.40986
1.4355
1.45725
1.47036
1.48527
1.49743
1.50392
1.51307
1.51726
1.52048
1.53263
1.62128
1.84109
1.93573
2.03819
2.24645
2.38599
2.42965
2.4174
2.39938
2.3811
2.37141
2.36616
2.36239
2.35646
2.34671
2.33459
2.32009
2.306
2.29582
2.28841
2.28262
2.27722
2.27037
2.25992
2.24563
2.23245
2.22364
2.21599
2.20785
2.19898
2.1893
2.17817
2.16503
2.15293
2.14631
2.14204
2.13779
2.13141
2.12275
2.11102
2.09554
2.07849
2.06653
2.06187
2.0598
2.05866
2.05633
2.05211
2.04318
2.02687
2.00638
1.99186
1.98459
1.98004
1.97799
1.97473
1.97053
1.96417
1.9516
1.93344
1.91975
1.91291
1.90904
1.90118
2.17844
2.07666
1.97359
1.8855
1.80617
1.72391
1.65685
1.60593
1.55418
1.50586
1.47537
1.44441
1.4043
1.37505
1.36205
1.34781
1.34532
1.34546
1.34839
1.3549
1.37151
1.39787
1.41752
1.4356
1.45441
1.46911
1.47973
1.48429
1.50172
1.59368
1.80879
1.97584
1.98873
1.98104
2.03186
2.18864
2.32378
2.36559
2.37733
2.36003
2.34028
2.3265
2.31858
2.31383
2.31174
2.30431
2.29243
2.27633
2.25981
2.25052
2.24409
2.239
2.2338
2.22555
2.21351
2.19687
2.18086
2.17093
2.16336
2.15656
2.15031
2.14386
2.13581
2.12431
2.10937
2.09776
2.09095
2.08424
2.07635
2.06795
2.05997
2.05163
2.04025
2.02705
2.01971
2.01588
2.0117
2.00618
1.99899
1.9904
1.97998
1.96645
1.95394
1.94716
1.9419
1.9369
1.93112
1.92409
1.91602
1.90688
1.89587
1.88493
1.87967
1.87179
2.19536
2.10831
2.02229
1.94535
1.86839
1.78822
1.72796
1.67421
1.62412
1.57423
1.53924
1.50343
1.46167
1.42647
1.40369
1.38191
1.35698
1.35094
1.34746
1.3464
1.34859
1.35492
1.36402
1.37583
1.39516
1.4215
1.43927
1.46086
1.56825
1.78198
1.95955
2.00355
2.00072
1.98528
1.97336
2.00873
2.13705
2.26941
2.33542
2.34569
2.3283
2.3063
2.29297
2.2875
2.28847
2.28675
2.27727
2.26331
2.24343
2.22837
2.22106
2.216
2.21029
2.20192
2.19165
2.17765
2.15948
2.14414
2.13654
2.13141
2.12628
2.1203
2.11313
2.10355
2.08946
2.07121
2.0572
2.04973
2.04404
2.03928
2.03581
2.03131
2.02417
2.00976
1.99096
1.97986
1.97356
1.96789
1.96318
1.95981
1.95634
1.95014
1.93711
1.92106
1.91147
1.90448
1.89654
1.88936
1.88437
1.88054
1.87556
1.86686
1.85682
1.84616
2.20192
2.12882
2.0554
1.98597
1.91298
1.84294
1.788
1.73531
1.67901
1.63331
1.59572
1.55985
1.52268
1.48856
1.46014
1.43542
1.40543
1.39124
1.3793
1.36236
1.35508
1.35305
1.34512
1.34099
1.34459
1.36048
1.38306
1.4926
1.72098
1.90427
1.97197
1.98227
1.9811
1.96642
1.95402
1.95205
1.9789
2.07989
2.21213
2.3002
2.30932
2.29333
2.27334
2.26543
2.26494
2.26798
2.26183
2.25182
2.236
2.21482
2.20045
2.19219
2.18591
2.18141
2.17333
2.16353
2.1511
2.13442
2.11759
2.10729
2.10116
2.0969
2.09273
2.0851
2.07535
2.06098
2.04194
2.02949
2.02454
2.02255
2.02087
2.01577
2.00861
1.99664
1.97728
1.95739
1.94783
1.94376
1.94242
1.94197
1.93888
1.93426
1.92521
1.90756
1.88787
1.87574
1.86892
1.86419
1.86145
1.85874
1.85584
1.85163
1.84184
1.82138
2.20268
2.14056
2.07772
2.01584
1.95102
1.88933
1.83488
1.78418
1.73067
1.68809
1.64845
1.60864
1.57068
1.54089
1.51163
1.4845
1.45855
1.43524
1.41317
1.39166
1.3687
1.35799
1.34726
1.33836
1.33966
1.34812
1.42248
1.64402
1.80705
1.8861
1.92232
1.92437
1.92551
1.92671
1.92666
1.9249
1.92582
1.9454
2.01503
2.14111
2.24305
2.26951
2.2554
2.24541
2.24122
2.24199
2.2386
2.2321
2.2224
2.20608
2.18604
2.1719
2.16424
2.15762
2.15273
2.1469
2.13812
2.12632
2.10784
2.0891
2.07984
2.07422
2.06886
2.0652
2.05876
2.04982
2.03732
2.02064
2.00738
2.00055
1.99563
1.99123
1.98596
1.97914
1.96816
1.95134
1.93521
1.92682
1.92233
1.91869
1.9167
1.91406
1.90803
1.89537
1.87579
1.86097
1.85445
1.84979
1.84792
1.84692
1.84332
1.83833
1.8284
1.8035
2.19948
2.14604
2.09288
2.03663
1.97764
1.92597
1.87523
1.82416
1.77401
1.73328
1.69303
1.65406
1.61734
1.58663
1.55598
1.52449
1.50152
1.47955
1.45572
1.43584
1.41128
1.39272
1.37508
1.35957
1.36386
1.41852
1.61651
1.77671
1.82852
1.84239
1.84632
1.84885
1.85466
1.86572
1.87429
1.88408
1.88184
1.87984
1.88814
1.93843
2.0547
2.17031
2.2196
2.22496
2.21899
2.21061
2.20524
2.20129
2.19625
2.18827
2.17625
2.15924
2.14269
2.134
2.12809
2.12374
2.11786
2.10934
2.09791
2.08066
2.06202
2.05188
2.04677
2.04296
2.03955
2.03377
2.02588
2.01391
1.99586
1.98078
1.97292
1.96797
1.96354
1.95871
1.9528
1.94421
1.93059
1.91446
1.90317
1.89665
1.89153
1.88687
1.88245
1.87693
1.86887
1.85818
1.84605
1.83764
1.83197
1.82646
1.82169
1.81655
1.80917
1.79206
2.1921
2.14705
2.10046
2.04962
2.00065
1.9536
1.90537
1.85445
1.81282
1.77195
1.73223
1.69063
1.65748
1.62664
1.59709
1.56615
1.5414
1.51758
1.49266
1.46921
1.45036
1.4272
1.40794
1.39542
1.44094
1.63592
1.80857
1.84603
1.83785
1.82818
1.81723
1.80924
1.80741
1.80709
1.8029
1.80556
1.80547
1.80791
1.81217
1.82191
1.86501
1.96936
2.09518
2.17018
2.18805
2.18023
2.17026
2.16601
2.16396
2.16251
2.1554
2.1461
2.13044
2.11189
2.1016
2.09542
2.09076
2.08515
2.07774
2.06756
2.05315
2.03653
2.02551
2.02011
2.01605
2.01291
2.00745
1.99886
1.98625
1.97002
1.95504
1.94637
1.94131
1.93738
1.93364
1.9284
1.91981
1.90619
1.88982
1.87727
1.86896
1.86302
1.85902
1.85661
1.85434
1.85005
1.84119
1.82783
1.81569
1.80643
1.79887
1.79166
1.78525
1.77835
2.18284
2.14453
2.10269
2.05724
2.01534
1.9723
1.92628
1.88064
1.84183
1.80156
1.76217
1.72417
1.69354
1.66107
1.6299
1.59957
1.576
1.5534
1.52999
1.50544
1.48161
1.45876
1.44932
1.49048
1.66814
1.85833
1.8852
1.86908
1.84688
1.82311
1.80921
1.79916
1.79581
1.79291
1.78572
1.77119
1.75075
1.73872
1.74211
1.74765
1.75764
1.7888
1.87231
1.99269
2.10069
2.13602
2.1347
2.13456
2.13167
2.13536
2.13256
2.12594
2.11639
2.09917
2.07937
2.06758
2.06135
2.05649
2.05202
2.04577
2.03802
2.02745
2.01304
1.99951
1.99133
1.9852
1.97935
1.97399
1.96783
1.95922
1.94716
1.93288
1.92165
1.9147
1.90958
1.90501
1.89967
1.89081
1.87854
1.86436
1.8515
1.84347
1.83974
1.8379
1.83696
1.83511
1.82936
1.81805
1.80238
1.78778
1.77693
1.76923
1.76703
1.76403
2.17332
2.13923
2.10091
2.06233
2.0241
1.98392
1.94015
1.90237
1.86421
1.82687
1.78622
1.75395
1.72206
1.69082
1.66051
1.63305
1.60773
1.5822
1.5589
1.53452
1.51202
1.49762
1.53529
1.70393
1.9013
1.93085
1.91054
1.88597
1.86505
1.84271
1.82433
1.80964
1.79615
1.78439
1.77261
1.76062
1.74715
1.72628
1.70657
1.69539
1.69319
1.69442
1.70443
1.74843
1.86017
1.98864
2.0754
2.08923
2.09866
2.10756
2.11079
2.10339
2.09505
2.08347
2.0681
2.04988
2.03664
2.02993
2.02518
2.02197
2.01723
2.01093
2.0017
1.98615
1.96956
1.96006
1.95444
1.94982
1.94544
1.94065
1.93404
1.92348
1.90866
1.89556
1.88659
1.87931
1.87241
1.86641
1.85966
1.85048
1.84048
1.83239
1.82609
1.8203
1.81525
1.81217
1.80973
1.80336
1.79019
1.77319
1.76054
1.75488
1.75388
1.75041
2.16415
2.13269
2.09745
2.0627
2.02741
1.98913
1.9514
1.91703
1.8813
1.84451
1.80804
1.77849
1.74644
1.71682
1.68527
1.66133
1.63496
1.61057
1.58441
1.55802
1.54512
1.58606
1.74992
1.9343
1.97262
1.95306
1.92724
1.90798
1.88955
1.8663
1.84003
1.81793
1.7996
1.78431
1.77067
1.75771
1.7433
1.7247
1.70197
1.68287
1.66828
1.65755
1.65214
1.6491
1.66171
1.72732
1.85678
1.98525
2.03633
2.05818
2.0687
2.07203
2.0697
2.06182
2.05394
2.0423
2.02537
2.00905
2.00132
1.99633
1.99399
1.99074
1.984
1.97338
1.95691
1.94099
1.93304
1.92846
1.92458
1.92109
1.91609
1.90808
1.89593
1.88123
1.86775
1.85772
1.85015
1.84385
1.8379
1.83198
1.82535
1.8182
1.81114
1.80358
1.79631
1.79009
1.78355
1.77699
1.77004
1.76178
1.75421
1.7472
1.74283
1.73632
2.14995
2.12173
2.09212
2.06066
2.02697
1.99171
1.95994
1.92675
1.89362
1.8575
1.82808
1.7971
1.76757
1.73557
1.70945
1.68468
1.6583
1.63102
1.60474
1.59135
1.63886
1.81677
1.97858
2.0137
1.99391
1.96275
1.94094
1.92521
1.90759
1.88629
1.85771
1.82822
1.80834
1.79256
1.77674
1.76018
1.74345
1.72676
1.7075
1.68224
1.65872
1.64424
1.63235
1.6214
1.61595
1.61328
1.6324
1.71952
1.84704
1.96015
2.00334
2.01846
2.03
2.03814
2.03377
2.02718
2.01603
1.9985
1.98187
1.97411
1.96898
1.96357
1.95891
1.95364
1.94444
1.93057
1.91809
1.91071
1.90528
1.89991
1.89439
1.88801
1.87976
1.86687
1.8522
1.84182
1.83477
1.82852
1.82178
1.81434
1.80766
1.80233
1.79592
1.78825
1.78021
1.77107
1.76145
1.75367
1.74929
1.74636
1.7425
1.73751
1.73136
1.72054
2.13417
2.10946
2.08402
2.05639
2.02516
1.99477
1.965
1.93448
1.90135
1.87099
1.84282
1.81286
1.78441
1.75374
1.72976
1.70294
1.67625
1.64966
1.63789
1.6918
1.87686
2.03813
2.05096
2.0317
2.00308
1.97128
1.95106
1.93632
1.91873
1.89887
1.8747
1.84427
1.81682
1.79725
1.78031
1.76344
1.74648
1.72995
1.71263
1.69193
1.66628
1.64164
1.62124
1.6067
1.59567
1.58568
1.58183
1.58002
1.60587
1.69499
1.82212
1.9168
1.9616
1.98615
2.00653
2.00509
1.9963
1.9847
1.96857
1.95293
1.94533
1.93995
1.93415
1.92813
1.92252
1.91503
1.90406
1.89318
1.88588
1.88065
1.87555
1.86894
1.85887
1.84588
1.83397
1.82571
1.81965
1.81424
1.80833
1.80105
1.79137
1.77879
1.76997
1.76656
1.76222
1.75589
1.74849
1.74033
1.73413
1.73169
1.72972
1.72587
1.71875
1.70378
2.11296
2.09326
2.07114
2.04665
2.02066
1.99462
1.96634
1.93662
1.90664
1.88112
1.85252
1.82522
1.79487
1.77009
1.74464
1.71659
1.69011
1.68287
1.74534
1.92352
2.08519
2.09643
2.07748
2.04665
2.0129
1.97918
1.95832
1.94271
1.92578
1.90667
1.88607
1.86079
1.82911
1.80224
1.78223
1.76468
1.74804
1.73159
1.7151
1.69797
1.67679
1.6479
1.62013
1.60257
1.58705
1.57274
1.56141
1.55238
1.54759
1.54463
1.57509
1.66463
1.78943
1.88001
1.93149
1.95609
1.96388
1.96073
1.94842
1.93455
1.92452
1.91714
1.91049
1.90427
1.89864
1.89245
1.88378
1.87254
1.86435
1.86021
1.85626
1.85038
1.84136
1.82969
1.81607
1.80509
1.80054
1.79713
1.79283
1.78709
1.77704
1.76141
1.75018
1.74512
1.74224
1.73987
1.73692
1.73238
1.72586
1.7183
1.71004
1.70161
1.69449
1.68306
2.09811
2.07935
2.05931
2.0372
2.01466
1.99084
1.96542
1.93748
1.91248
1.88592
1.85958
1.83194
1.80597
1.7828
1.75483
1.72682
1.72994
1.81496
1.98646
2.11563
2.12419
2.10246
2.07679
2.0527
2.02466
1.99014
1.96381
1.94546
1.92841
1.90989
1.89045
1.8686
1.83979
1.8068
1.78304
1.76455
1.74729
1.73076
1.71485
1.699
1.68151
1.65889
1.63087
1.60485
1.58541
1.56995
1.55541
1.54158
1.52808
1.51954
1.51129
1.50642
1.53904
1.64292
1.765
1.8569
1.89365
1.91284
1.91368
1.90733
1.89778
1.89155
1.88621
1.88106
1.87585
1.86962
1.86106
1.84897
1.84048
1.83744
1.83423
1.83005
1.82452
1.81667
1.80425
1.7884
1.77811
1.77479
1.77322
1.77038
1.76334
1.75229
1.7388
1.72945
1.72527
1.72239
1.71959
1.71627
1.71186
1.70451
1.69305
1.68168
1.67333
1.66186
2.08364
2.06537
2.04522
2.02524
2.00499
1.98323
1.95926
1.93551
1.91225
1.88728
1.86309
1.83622
1.81386
1.7885
1.76387
1.7768
1.88682
2.07906
2.14972
2.14327
2.12061
2.09791
2.08046
2.06006
2.03407
2.00006
1.96863
1.94786
1.92936
1.91078
1.89118
1.86949
1.84361
1.81319
1.78548
1.76449
1.74642
1.72923
1.71231
1.6953
1.67774
1.65798
1.63426
1.60988
1.5894
1.57211
1.55566
1.53999
1.52438
1.50832
1.49168
1.48075
1.46727
1.47143
1.51561
1.62383
1.74292
1.82522
1.85442
1.86337
1.86489
1.86216
1.85849
1.85575
1.85178
1.84696
1.84018
1.8276
1.81127
1.8037
1.80108
1.79932
1.79834
1.79615
1.79016
1.77767
1.76297
1.75425
1.74817
1.74437
1.74313
1.73994
1.73045
1.71635
1.70799
1.70481
1.7027
1.70132
1.69806
1.69086
1.67797
1.6631
1.65402
1.64481
2.06636
2.04762
2.02935
2.01196
1.99313
1.97222
1.95067
1.93202
1.90955
1.88731
1.86212
1.8389
1.81776
1.79734
1.8182
1.94995
2.13678
2.20813
2.18562
2.1485
2.11893
2.09955
2.08402
2.063
2.03685
2.00643
1.97493
1.94985
1.92868
1.90772
1.88672
1.865
1.84157
1.81595
1.7898
1.7664
1.74547
1.72575
1.70648
1.68719
1.66806
1.64891
1.62921
1.60913
1.59031
1.57387
1.55824
1.54256
1.52597
1.5071
1.48792
1.46951
1.45392
1.44492
1.43992
1.44911
1.50551
1.61165
1.7199
1.78594
1.81263
1.82092
1.83094
1.83353
1.83073
1.82502
1.81711
1.80491
1.78635
1.77617
1.7735
1.77136
1.76989
1.76926
1.76843
1.76282
1.75069
1.73732
1.72876
1.72429
1.7205
1.7177
1.71417
1.70575
1.69621
1.6894
1.68437
1.67941
1.67463
1.66978
1.65988
1.64443
1.63825
1.63337
2.05292
2.03469
2.01387
1.99817
1.98176
1.96201
1.94346
1.92505
1.90487
1.88356
1.85913
1.84164
1.8304
1.87422
2.01725
2.16827
2.23483
2.21902
2.18462
2.15328
2.12153
2.0964
2.07628
2.05449
2.02997
2.00425
1.97812
1.95208
1.92672
1.90256
1.8793
1.85658
1.83415
1.81163
1.78859
1.76524
1.74266
1.72144
1.70113
1.68097
1.6612
1.64202
1.62333
1.60485
1.58695
1.57087
1.55641
1.54231
1.52701
1.50989
1.49112
1.47111
1.45203
1.43748
1.42789
1.42284
1.41917
1.43262
1.49199
1.59472
1.69342
1.74563
1.77897
1.78892
1.79553
1.79442
1.792
1.78441
1.77033
1.75899
1.75352
1.74961
1.74666
1.74415
1.74058
1.73747
1.73214
1.72284
1.71245
1.70432
1.69922
1.69509
1.68992
1.68504
1.67968
1.67378
1.66752
1.66139
1.65487
1.64704
1.63899
1.63026
1.62761
1.62257
1.98129
2.02685
2.00738
1.9875
1.96989
1.95079
1.93531
1.91628
1.89795
1.87498
1.85654
1.86217
1.9376
2.11883
2.22471
2.23174
2.22321
2.19678
2.17606
2.15402
2.12511
2.09195
2.06435
2.04181
2.02032
1.99837
1.97465
1.94886
1.92179
1.89526
1.8701
1.84622
1.82338
1.80136
1.77948
1.75706
1.73459
1.71323
1.69345
1.67478
1.65688
1.63891
1.62051
1.60146
1.58253
1.56526
1.55014
1.53699
1.52463
1.51144
1.49627
1.47979
1.46208
1.4441
1.42798
1.41724
1.40796
1.40397
1.40184
1.41796
1.47905
1.57574
1.67942
1.72708
1.74951
1.76341
1.76146
1.75782
1.7533
1.74459
1.73786
1.73217
1.72694
1.72262
1.71902
1.71457
1.71072
1.70534
1.69617
1.68632
1.67813
1.67173
1.66751
1.66486
1.66275
1.66073
1.65598
1.64782
1.63752
1.62636
1.61775
1.61619
1.61586
1.61242
1.77024
1.98218
1.997
1.98053
1.95928
1.94253
1.92662
1.90705
1.88886
1.87632
1.89991
2.00687
2.16308
2.27804
2.27594
2.23495
2.19724
2.17664
2.16519
2.14823
2.12272
2.09119
2.05804
2.03112
2.00902
1.98713
1.96354
1.93844
1.91247
1.88602
1.85997
1.83544
1.81267
1.79117
1.7702
1.74909
1.72759
1.70644
1.68663
1.66836
1.65201
1.63654
1.62056
1.60303
1.58448
1.56609
1.54929
1.53466
1.52214
1.51122
1.50007
1.48621
1.46991
1.45398
1.44019
1.42782
1.41479
1.40304
1.39285
1.38765
1.38837
1.40719
1.47134
1.57475
1.66031
1.72648
1.73774
1.73644
1.73148
1.72137
1.71614
1.71436
1.71199
1.70854
1.70444
1.69868
1.68867
1.67828
1.67071
1.66447
1.65842
1.65476
1.65261
1.64945
1.64512
1.63881
1.631
1.62399
1.61667
1.60724
1.6028
1.60206
1.60042
1.59661
1.32943
1.81498
1.96982
1.96836
1.95008
1.93387
1.91429
1.89662
1.89952
1.95869
2.10448
2.21307
2.27199
2.27449
2.25324
2.22046
2.18674
2.16595
2.15089
2.13536
2.11308
2.08556
2.05436
2.02346
1.99671
1.97242
1.94842
1.92437
1.90017
1.87541
1.85051
1.82652
1.80419
1.78327
1.7631
1.74338
1.72379
1.70421
1.68456
1.6652
1.64759
1.63211
1.61749
1.6021
1.58604
1.56983
1.55431
1.53963
1.52522
1.51085
1.49605
1.48188
1.47071
1.46128
1.45106
1.44049
1.43025
1.41812
1.40578
1.3929
1.38353
1.37515
1.37746
1.40495
1.47285
1.58089
1.66124
1.71428
1.72317
1.71995
1.71574
1.70968
1.70174
1.69701
1.69195
1.68287
1.66914
1.65855
1.65422
1.65213
1.65052
1.64833
1.6447
1.63962
1.63272
1.62377
1.6129
1.60152
1.59588
1.59447
1.59253
1.58935
1.58683
1.58572
1.0322
1.43159
1.84278
1.94937
1.94085
1.92071
1.90482
1.92427
2.02753
2.18919
2.27667
2.27625
2.26585
2.24722
2.22734
2.20574
2.17954
2.15663
2.13704
2.11795
2.09673
2.07226
2.04358
2.0123
1.98413
1.96004
1.93745
1.91515
1.89271
1.8695
1.84537
1.82175
1.7997
1.77912
1.75937
1.74025
1.72177
1.70391
1.68638
1.66808
1.64938
1.63256
1.61809
1.60422
1.59024
1.57577
1.56094
1.54614
1.53168
1.51818
1.5057
1.49406
1.48261
1.47078
1.4588
1.44819
1.43873
1.42917
1.41881
1.40618
1.39551
1.38523
1.3781
1.37549
1.37851
1.40942
1.49075
1.59765
1.65769
1.69748
1.71142
1.7086
1.70429
1.70016
1.69263
1.67906
1.66342
1.65221
1.64264
1.63693
1.63456
1.63139
1.62618
1.61971
1.61241
1.60393
1.59342
1.58529
1.58163
1.57942
1.57714
1.57584
1.57691
1.60381
1.00053
1.06576
1.51376
1.85742
1.92509
1.92126
1.97454
2.11583
2.23451
2.29888
2.28541
2.26106
2.24497
2.22877
2.21549
2.19719
2.17207
2.14701
2.12434
2.10324
2.08203
2.05869
2.03243
2.00422
1.97716
1.95342
1.93201
1.91145
1.89092
1.86981
1.84761
1.82484
1.80302
1.78346
1.76657
1.75156
1.73648
1.71883
1.69937
1.68164
1.66769
1.65501
1.64173
1.62854
1.61533
1.60139
1.58615
1.57041
1.55555
1.54232
1.52998
1.51762
1.50465
1.49139
1.47838
1.46715
1.4576
1.44918
1.44095
1.43045
1.41626
1.40015
1.38948
1.38048
1.37475
1.37237
1.38246
1.42021
1.50237
1.59991
1.65669
1.68172
1.69125
1.68894
1.68133
1.67203
1.66362
1.65341
1.643
1.63596
1.63097
1.62605
1.61966
1.61027
1.597
1.58388
1.5783
1.57545
1.57306
1.57152
1.57298
1.58561
1.61645
1.7147
1
1.00154
1.11046
1.59768
1.80758
1.98217
2.22381
2.29682
2.31111
2.3085
2.29141
2.26638
2.24643
2.2333
2.21591
2.19362
2.16704
2.14188
2.11906
2.09753
2.07579
2.05229
2.02725
2.00206
1.97839
1.95716
1.93766
1.91867
1.89914
1.87827
1.85589
1.83326
1.81273
1.79513
1.77946
1.76424
1.74829
1.73164
1.71505
1.69954
1.6842
1.66814
1.6521
1.63663
1.6222
1.60832
1.59385
1.57872
1.56358
1.54901
1.53478
1.52102
1.50769
1.49504
1.48259
1.47132
1.4618
1.45301
1.44423
1.43638
1.42798
1.416
1.40378
1.39122
1.3835
1.37644
1.37289
1.36783
1.37633
1.41461
1.50292
1.59743
1.67744
1.68013
1.67518
1.66312
1.64849
1.63887
1.63526
1.6319
1.62668
1.62053
1.61271
1.60235
1.58617
1.57241
1.57178
1.57173
1.57354
1.58794
1.62812
1.6969
1.76462
1.83131
1
1.00001
1.00418
1.16513
1.62733
2.26852
2.43773
2.40177
2.37283
2.35012
2.32768
2.29896
2.27369
2.25428
2.23956
2.21911
2.19432
2.17021
2.14757
2.126
2.10512
2.0831
2.05978
2.03613
2.01377
1.99352
1.97478
1.95629
1.93685
1.91579
1.89343
1.87134
1.85112
1.83293
1.81548
1.79772
1.77999
1.7635
1.74812
1.73206
1.71426
1.69487
1.67576
1.65773
1.64084
1.62516
1.61046
1.59584
1.58069
1.56529
1.54987
1.53524
1.52177
1.50949
1.49797
1.48702
1.47676
1.46707
1.45678
1.44621
1.43937
1.43262
1.42132
1.40874
1.39785
1.38758
1.37731
1.36748
1.35749
1.35148
1.36788
1.42796
1.53378
1.61165
1.66633
1.6643
1.65463
1.64261
1.63569
1.62733
1.6217
1.61575
1.60712
1.59507
1.5821
1.57534
1.57675
1.59167
1.63396
1.71033
1.78991
1.85154
1.87612
1.87939
1
1
1.00003
1.00862
1.8989
2.63292
2.61887
2.53803
2.48325
2.44169
2.41004
2.38262
2.35413
2.32682
2.30421
2.27996
2.25233
2.22537
2.20182
2.17821
2.15535
2.13243
2.1081
2.08327
2.05951
2.03752
2.01683
1.99647
1.97564
1.954
1.93178
1.9098
1.88874
1.86834
1.8482
1.82813
1.80828
1.78885
1.76971
1.75111
1.73305
1.71507
1.69652
1.67745
1.65807
1.63913
1.62201
1.60744
1.59455
1.58175
1.56802
1.55323
1.53705
1.52069
1.5068
1.49627
1.48665
1.47778
1.47138
1.4632
1.44948
1.43325
1.41979
1.41026
1.40321
1.39632
1.38649
1.37505
1.36265
1.34795
1.33604
1.33942
1.36988
1.44364
1.54932
1.60632
1.6334
1.64177
1.63787
1.63109
1.62553
1.61942
1.61243
1.60085
1.59454
1.60517
1.64692
1.71944
1.79468
1.86452
1.89851
1.90281
1.89719
1.88737
1
1
1
1.00025
2.1952
2.76806
2.73698
2.6829
2.64257
2.59905
2.55691
2.51552
2.47467
2.43995
2.41078
2.38241
2.35208
2.32148
2.2949
2.26923
2.24226
2.21577
2.18791
2.15938
2.13197
2.10616
2.08169
2.05804
2.03452
2.01061
1.98637
1.96232
1.93883
1.9157
1.89272
1.86994
1.84758
1.82555
1.80344
1.78163
1.76056
1.73979
1.71878
1.69763
1.67677
1.65686
1.63929
1.62451
1.61143
1.5983
1.58369
1.56734
1.54994
1.53381
1.51961
1.50777
1.49878
1.49091
1.48206
1.47125
1.45826
1.44312
1.42963
1.41913
1.41038
1.40325
1.39733
1.38876
1.37496
1.35446
1.33524
1.32838
1.32312
1.33214
1.37577
1.46004
1.55009
1.59382
1.60475
1.61359
1.62041
1.62414
1.63353
1.65413
1.68765
1.74605
1.81897
1.87495
1.90618
1.92752
1.93122
1.92706
1.91568
1.88983
1
1
1
1.0003
2.31105
2.80133
2.80316
2.7848
2.75692
2.71698
2.67271
2.62704
2.58326
2.54435
2.50795
2.47218
2.43693
2.40228
2.37015
2.33905
2.30553
2.2729
2.24207
2.21251
2.18456
2.15774
2.13112
2.10372
2.07506
2.04579
2.01761
1.99162
1.96759
1.94463
1.92194
1.89874
1.87417
1.84785
1.82136
1.79706
1.77511
1.75444
1.73401
1.71335
1.69252
1.67134
1.65109
1.63345
1.61841
1.60478
1.59134
1.57692
1.56025
1.54422
1.53151
1.51984
1.50815
1.49702
1.48687
1.47658
1.46509
1.45088
1.43675
1.42688
1.41855
1.40867
1.39674
1.38518
1.37255
1.35593
1.3393
1.32868
1.31997
1.3129
1.30923
1.3259
1.3792
1.46152
1.54061
1.58876
1.62213
1.67476
1.73617
1.79158
1.83257
1.87037
1.89796
1.91676
1.93617
1.93451
1.9296
1.92209
1.91102
1.89652
1
1
1
1.012
2.32612
2.79463
2.8126
2.80051
2.78365
2.75537
2.72096
2.68203
2.64178
2.60127
2.56123
2.52154
2.48323
2.44632
2.41012
2.37431
2.33717
2.30191
2.26998
2.23992
2.21109
2.18256
2.15306
2.12169
2.08889
2.0567
2.02728
2.00126
1.97799
1.95622
1.93438
1.91038
1.88277
1.85299
1.82465
1.80028
1.77912
1.7599
1.74144
1.72209
1.69986
1.67528
1.65283
1.63435
1.6187
1.60473
1.59201
1.58033
1.5681
1.5533
1.536
1.52068
1.50847
1.49763
1.48685
1.47526
1.46397
1.45411
1.44417
1.4321
1.41993
1.40905
1.39786
1.38624
1.37226
1.35724
1.34409
1.33061
1.31885
1.30896
1.30256
1.29387
1.29744
1.32639
1.40728
1.5343
1.67153
1.78111
1.8698
1.94383
1.99146
2.01197
2.00176
1.9774
1.95228
1.93461
1.92408
1.91536
1.90631
1.89416
)
;

boundaryField
{
    inlet
    {
        type            fixedValue;
        value           uniform 1;
    }
    outlet
    {
        type            inletOutlet;
        inletValue      uniform 1;
        value           nonuniform List<scalar> 
32
(
1.95494
1.95738
1.94839
1.92915
1.90232
1.87258
1.84654
1.81957
1.80074
1.79061
1.77915
1.76543
1.7519
1.73715
1.72017
1.70246
1.68241
1.66152
1.64536
1.63453
1.62354
1.61342
1.59676
1.58539
1.60271
1.71225
1.82962
1.87845
1.88658
1.88901
1.89662
1.89429
)
;
    }
    bottom
    {
        type            zeroGradient;
    }
    top
    {
        type            zeroGradient;
    }
    obstacle
    {
        type            zeroGradient;
    }
    defaultFaces
    {
        type            empty;
    }
}


// ************************************************************************* //
