/*--------------------------------*- C++ -*----------------------------------*\
  =========                 |
  \\      /  F ield         | OpenFOAM: The Open Source CFD Toolbox
   \\    /   O peration     | Website:  https://openfoam.org
    \\  /    A nd           | Version:  7
     \\/     M anipulation  |
\*---------------------------------------------------------------------------*/
FoamFile
{
    version     2.0;
    format      ascii;
    class       volVectorField;
    location    "1.2";
    object      U;
}
// * * * * * * * * * * * * * * * * * * * * * * * * * * * * * * * * * * * * * //

dimensions      [0 1 -1 0 0 0 0];

internalField   nonuniform List<vector> 
16512
(
(3 -7.13131e-16 0)
(3 -1.20809e-16 0)
(3 2.4604e-17 0)
(3 7.9382e-17 0)
(3 3.34494e-17 0)
(3 -3.12324e-16 0)
(3 -1.00842e-15 0)
(3 -9.33553e-16 0)
(3 -2.08969e-15 0)
(3 -2.20626e-15 0)
(3 -7.76191e-16 0)
(3 -4.15096e-16 0)
(3 5.44976e-16 0)
(3 3.9903e-16 0)
(3 -2.77973e-16 0)
(3 -4.89319e-16 0)
(3 -2.16151e-16 0)
(3 7.92315e-17 0)
(3 4.8218e-16 0)
(3 1.21107e-16 0)
(3 6.42026e-17 0)
(3 -1.17637e-16 0)
(3 5.07995e-16 0)
(3 8.21624e-16 0)
(3 5.85169e-16 0)
(3 5.95008e-16 0)
(3 -4.11563e-16 0)
(3 -1.43361e-15 0)
(3 -1.43613e-15 0)
(3 -1.71059e-15 0)
(3 -2.41486e-15 0)
(3 -2.31101e-15 0)
(3 -1.26616e-15 0)
(3 2.02263e-16 0)
(3 1.53382e-16 0)
(3 -5.41399e-17 0)
(3 -1.20842e-16 0)
(3 9.14253e-16 0)
(3 1.01135e-15 0)
(3 1.0616e-15 0)
(3 8.61945e-16 0)
(3 7.73977e-16 0)
(3 5.47541e-16 0)
(3 1.1165e-16 0)
(3 -5.71299e-16 0)
(3 -8.2505e-16 0)
(3 -6.94027e-16 0)
(3 -1.26851e-15 0)
(3 -1.71443e-15 0)
(3 -1.31449e-15 0)
(3 -1.26208e-15 0)
(3 -1.65679e-15 0)
(3 -1.65145e-15 0)
(3 -1.51904e-15 0)
(3 -1.12008e-15 0)
(3 -1.45806e-15 0)
(3 -1.99535e-15 0)
(3 -1.79959e-15 0)
(3 -1.48322e-15 0)
(3 -1.115e-15 0)
(3 -1.0294e-15 0)
(3 -1.38398e-15 0)
(3 -1.08237e-15 0)
(3 -5.30365e-16 0)
(3 -3.51768e-16 0)
(3 -6.94887e-16 0)
(3 -8.08612e-16 0)
(3 -9.12027e-16 0)
(3 -1.43373e-15 0)
(3 -1.50883e-15 0)
(3 -1.37829e-15 0)
(3 -6.95347e-16 0)
(3 7.37003e-16 0)
(3 9.02141e-16 0)
(3 -3.24598e-16 0)
(3 1.68993e-16 0)
(3 7.53671e-16 0)
(3 1.20283e-15 0)
(3 5.03203e-16 0)
(3 -5.36028e-16 0)
(3 7.57033e-17 0)
(3 7.82965e-16 0)
(3 9.59893e-16 0)
(3 1.66057e-15 0)
(3 7.8437e-16 0)
(3 2.29656e-16 0)
(3 5.01428e-16 0)
(3 1.37257e-15 0)
(3 1.99619e-15 0)
(3 2.06464e-15 0)
(3 2.02494e-15 0)
(3 1.86501e-15 0)
(3 9.50119e-16 0)
(3 8.53979e-16 0)
(3 9.63675e-16 0)
(3 1.31153e-15 0)
(3 1.51855e-15 0)
(3 2.14393e-15 0)
(3 2.50932e-15 0)
(3 2.12103e-15 0)
(3 1.94735e-15 0)
(3 2.0365e-15 0)
(3 2.08417e-15 0)
(3 2.0059e-15 0)
(3 1.18797e-15 0)
(3 6.19981e-16 0)
(3 -1.40539e-16 0)
(3 -5.31958e-17 0)
(3 1.51289e-15 0)
(3 1.39418e-15 0)
(3 1.79112e-15 0)
(3 2.24841e-15 0)
(3 3.04958e-15 0)
(3 3.46954e-15 0)
(3 3.79966e-15 0)
(3 4.13632e-15 0)
(3 3.72162e-15 0)
(3 2.50582e-15 0)
(3 4.11583e-16 0)
(3 -3.56889e-16 0)
(3 -3.51112e-16 0)
(3 -8.71721e-16 0)
(3 -1.38215e-16 0)
(3 6.06467e-16 0)
(3 7.68126e-16 0)
(3 9.00438e-16 0)
(3 3.14433e-15 0)
(3 3.24697e-15 0)
(3 2.99555e-15 0)
(3 1.26725e-15 0)
(3 1.30485e-17 0)
(3 -1.33606e-16 0)
(3 -3.63186e-16 0)
(3 -1.51224e-16 0)
(3 -5.60423e-17 0)
(3 5.48077e-16 0)
(3 1.54192e-15 0)
(3 1.49508e-15 0)
(3 2.07812e-15 0)
(3 2.08571e-15 0)
(3 1.65943e-15 0)
(3 2.95856e-16 0)
(3 -7.20461e-16 0)
(3 -9.54069e-16 0)
(3 -7.23909e-17 0)
(3 -6.44117e-16 0)
(3 -1.36102e-15 0)
(3 -2.23346e-15 0)
(3 -1.79853e-15 0)
(3 -1.73338e-15 0)
(3 -1.24163e-15 0)
(3 -1.47001e-15 0)
(3 -1.72918e-15 0)
(3 -3.19562e-15 0)
(3 -3.08136e-15 0)
(3 -2.77351e-15 0)
(3 -2.55126e-15 0)
(3 -1.96403e-15 0)
(3 -1.33729e-15 0)
(3 -5.27104e-16 0)
(3 6.65401e-16 0)
(3 9.47551e-16 0)
(3 9.28242e-16 0)
(3 6.043e-16 0)
(3 4.03345e-16 0)
(3 6.28348e-16 0)
(3 9.582e-16 0)
(3 1.14853e-15 0)
(3 7.46525e-16 0)
(3 3.43041e-16 0)
(3 -6.92435e-17 0)
(3 -1.73175e-16 0)
(3 -8.29182e-16 0)
(3 -7.51956e-16 0)
(3 -5.55389e-16 0)
(3 -2.06379e-16 0)
(3 -3.59135e-17 0)
(3 6.66176e-16 0)
(3 1.17659e-15 0)
(3 -4.70112e-16 0)
(3 -1.21947e-15 0)
(3 -1.12686e-15 0)
(3 -1.03123e-15 0)
(3 -1.47441e-16 0)
(3 6.72551e-16 0)
(3 5.10526e-16 0)
(3 1.42408e-16 0)
(3 5.329e-16 0)
(3 1.22201e-15 0)
(3 6.3126e-16 0)
(3 -2.6544e-16 0)
(3 -7.53901e-16 0)
(3 -1.39849e-15 0)
(3 -1.19982e-15 0)
(3 -4.56163e-16 0)
(3 -2.75832e-16 0)
(3 -1.72084e-16 0)
(3 -6.46321e-16 0)
(3 -1.3156e-15 0)
(3 -6.72958e-16 0)
(3 -8.03673e-16 0)
(3 -9.05343e-16 0)
(3 -5.06354e-16 0)
(3 2.3326e-16 0)
(3 5.84428e-16 0)
(3 1.06835e-15 0)
(3 5.0502e-16 0)
(3 4.80567e-16 0)
(3 6.3433e-16 0)
(3 2.906e-16 0)
(3 4.10681e-16 0)
(3 4.06432e-16 0)
(3 1.40702e-16 0)
(3 -2.53566e-16 0)
(3 -4.15792e-16 0)
(3 1.38683e-16 0)
(3 1.01417e-16 0)
(3 -4.26571e-16 0)
(3 -1.85294e-15 0)
(3 -3.10879e-15 0)
(3 -2.17245e-15 0)
(3 -1.01474e-15 0)
(3 -7.7521e-16 0)
(3 -8.11469e-16 0)
(3 -9.00862e-16 0)
(3 -1.41472e-15 0)
(3 -3.48631e-16 0)
(3 -9.06025e-17 0)
(3 -2.51619e-16 0)
(3 8.06755e-16 0)
(3 1.43488e-15 0)
(3 6.93916e-16 0)
(3 -4.43776e-16 0)
(3 -7.67751e-16 0)
(3 -5.15069e-16 0)
(3 -1.01724e-15 0)
(3 -1.16436e-15 0)
(3 -2.03747e-15 0)
(3 -2.53856e-15 0)
(3 -2.2008e-15 0)
(3 -1.16534e-15 0)
(3 -1.39033e-15 0)
(3 -2.11979e-15 0)
(3 -2.10731e-15 0)
(3 -1.21156e-15 0)
(3 -6.25831e-16 0)
(3 -1.39175e-16 0)
(3 3.37567e-16 0)
(3 4.47089e-16 0)
(3 -4.91815e-16 0)
(3 -1.96432e-15 0)
(3 -1.95254e-15 0)
(3 -1.50309e-15 0)
(3 -1.60388e-15 0)
(3 -1.0666e-15 0)
(3 -4.9705e-16 0)
(3 -8.12209e-16 0)
(3 -1.03753e-15 0)
(3 -1.21766e-15 0)
(3 -1.35093e-15 0)
(3 -1.553e-15 0)
(3 -1.50756e-15 0)
(3 -1.3473e-15 0)
(3 -7.49803e-16 0)
(3 -7.3203e-16 0)
(3 -1.02746e-15 0)
(3 -1.27508e-15 0)
(3 -1.40168e-15 0)
(3 -8.56242e-16 0)
(3 -3.33133e-16 0)
(3 -4.34404e-16 0)
(3 -7.59422e-18 0)
(3 1.4064e-15 0)
(3 1.86528e-15 0)
(3 1.66693e-15 0)
(3 1.63842e-15 0)
(3 1.2853e-15 0)
(3 8.56324e-16 0)
(3 4.62893e-16 0)
(3 -3.48654e-16 0)
(3 -1.91197e-16 0)
(3 6.23851e-16 0)
(3 5.0196e-16 0)
(3 5.9442e-16 0)
(3 1.05813e-15 0)
(3 1.67003e-15 0)
(3 1.55049e-15 0)
(3 2.43332e-15 0)
(3 2.4407e-15 0)
(3 2.62073e-15 0)
(3 2.97985e-15 0)
(3 1.88335e-15 0)
(3 1.18285e-15 0)
(3 1.55798e-15 0)
(3 1.57689e-15 0)
(3 1.71973e-15 0)
(3 1.25193e-15 0)
(3 7.99879e-16 0)
(3 8.37036e-16 0)
(3 1.57885e-15 0)
(3 1.57001e-15 0)
(3 2.18535e-15 0)
(3 2.20891e-15 0)
(3 2.43654e-15 0)
(3 2.72225e-15 0)
(3 3.36374e-15 0)
(3 3.68082e-15 0)
(3 2.88105e-15 0)
(3 2.92334e-15 0)
(3 2.46023e-15 0)
(3 2.04319e-15 0)
(3 2.83221e-16 0)
(3 -6.97177e-18 0)
(3 -9.31193e-16 0)
(3 -1.50188e-15 0)
(3 -1.31047e-15 0)
(3 -1.32694e-16 0)
(3 9.7391e-16 0)
(3 1.75035e-15 0)
(3 2.62115e-15 0)
(3 2.79722e-15 0)
(3 2.48956e-15 0)
(3 1.69205e-15 0)
(3 1.4741e-15 0)
(3 5.78712e-16 0)
(3 -5.13457e-16 0)
(3 -3.509e-17 0)
(3 7.07097e-16 0)
(3 1.47553e-15 0)
(3 1.71123e-15 0)
(3 1.86003e-15 0)
(3 1.94152e-15 0)
(3 1.34239e-15 0)
(3 -3.49339e-16 0)
(3 -1.37567e-15 0)
(3 -1.57794e-15 0)
(3 1.07838e-16 0)
(3 -1.94117e-16 0)
(3 -5.0074e-16 0)
(3 -4.33056e-16 0)
(3 -7.22732e-16 0)
(3 -9.3562e-16 0)
(3 -1.32523e-15 0)
(3 -1.32571e-15 0)
(3 -1.6958e-15 0)
(3 -1.42839e-15 0)
(3 -1.51924e-15 0)
(3 -1.90943e-15 0)
(3 -2.05368e-15 0)
(3 -1.84806e-15 0)
(3 -1.19881e-15 0)
(3 -3.72306e-16 0)
(3 -2.59709e-17 0)
(3 1.93103e-16 0)
(3 -1.55785e-16 0)
(3 -6.93278e-16 0)
(3 -4.09607e-16 0)
(3 5.13387e-16 0)
(3 7.60737e-16 0)
(3 7.57082e-16 0)
(3 9.78922e-16 0)
(3 9.37435e-16 0)
(3 6.32545e-17 0)
(3 -2.73033e-16 0)
(3 3.12438e-16 0)
(3 -2.16244e-16 0)
(3 -1.51359e-16 0)
(3 6.15303e-17 0)
(3 5.97527e-16 0)
(3 6.38423e-16 0)
(3 2.07912e-16 0)
(3 -7.55356e-16 0)
(3 -5.29819e-16 0)
(3 -1.39463e-17 0)
(3 1.19582e-16 0)
(3 1.42939e-16 0)
(3 3.68169e-16 0)
(3 1.31483e-16 0)
(3 -3.91982e-16 0)
(3 -3.23162e-16 0)
(3 6.98909e-16 0)
(3 1.60835e-15 0)
(3 9.0032e-16 0)
(3 2.24584e-16 0)
(3 -1.10091e-17 0)
(3 -5.73268e-16 0)
(3 -9.32266e-16 0)
(3 -1.92315e-15 0)
(3 -1.25092e-15 0)
(3 -3.4921e-16 0)
(3 -8.5969e-17 0)
(3 1.80979e-16 0)
(3 9.47552e-16 0)
(3 1.28012e-15 0)
(3 3.34294e-16 0)
(3 -3.67887e-16 0)
(3 -3.54171e-16 0)
(3 2.62396e-16 0)
(3 6.94069e-16 0)
(3 6.56422e-16 0)
(3 1.1811e-15 0)
(3 3.68877e-16 0)
(3 5.30434e-16 0)
(3 1.16612e-15 0)
(3 9.26527e-16 0)
(3 4.23136e-16 0)
(3 2.81599e-16 0)
(3 1.0982e-16 0)
(3 2.89451e-16 0)
(3 -5.3517e-16 0)
(3 -1.27692e-15 0)
(3 -2.17355e-15 0)
(3 -2.37526e-15 0)
(3 -2.09846e-15 0)
(3 -7.74045e-16 0)
(3 -5.46379e-16 0)
(3 -1.13256e-15 0)
(3 -1.04115e-15 0)
(3 -9.89013e-16 0)
(3 -5.2506e-16 0)
(3 -1.14364e-16 0)
(3 3.42713e-16 0)
(3 8.03273e-16 0)
(3 8.51972e-17 0)
(3 -9.65307e-16 0)
(3 -2.2205e-15 0)
(3 -2.13522e-15 0)
(3 -1.65087e-15 0)
(3 -1.23727e-15 0)
(3 -1.37773e-15 0)
(3 -1.09853e-15 0)
(3 -9.93519e-16 0)
(3 -6.83783e-16 0)
(3 -6.96204e-16 0)
(3 -1.01616e-15 0)
(3 -5.49135e-16 0)
(3 -5.08615e-16 0)
(3 -4.0787e-16 0)
(3 -8.48623e-16 0)
(3 3.07782e-16 0)
(3 1.10495e-15 0)
(3 8.07851e-16 0)
(3 -1.81494e-15 0)
(3 -2.07182e-15 0)
(3 -1.88452e-15 0)
(3 -1.17897e-15 0)
(3 -1.09266e-15 0)
(3 -1.26823e-15 0)
(3 -1.57639e-15 0)
(3 -1.67084e-15 0)
(3 -1.93032e-15 0)
(3 -1.62611e-15 0)
(3 -1.31224e-15 0)
(3 -1.19405e-15 0)
(3 -1.68658e-15 0)
(3 -2.40432e-15 0)
(3 -2.92707e-15 0)
(3 -2.6307e-15 0)
(3 -2.33002e-15 0)
(3 -2.34902e-15 0)
(3 -1.88435e-15 0)
(3 -1.70668e-15 0)
(3 -6.11036e-16 0)
(3 -1.42848e-16 0)
(3 5.86086e-16 0)
(3 1.90237e-15 0)
(3 1.96226e-15 0)
(3 1.58096e-15 0)
(3 1.30909e-15 0)
(3 5.66083e-16 0)
(3 2.05717e-16 0)
(3 -6.94318e-16 0)
(3 -1.0961e-15 0)
(3 -7.28828e-16 0)
(3 -5.83e-16 0)
(3 1.63178e-16 0)
(3 1.16339e-15 0)
(3 2.34233e-15 0)
(3 1.90257e-15 0)
(3 1.56868e-15 0)
(3 1.91958e-15 0)
(3 2.21362e-15 0)
(3 1.92177e-15 0)
(3 1.52364e-15 0)
(3 1.56828e-15 0)
(3 1.86948e-15 0)
(3 1.95776e-15 0)
(3 1.91246e-15 0)
(3 1.86525e-15 0)
(3 1.92918e-15 0)
(3 2.29051e-15 0)
(3 2.33907e-15 0)
(3 1.91695e-15 0)
(3 2.22055e-15 0)
(3 2.90049e-15 0)
(3 2.45449e-15 0)
(3 2.49125e-15 0)
(3 3.1938e-15 0)
(3 2.79189e-15 0)
(3 2.52694e-15 0)
(3 1.77914e-15 0)
(3 2.07777e-15 0)
(3 1.41648e-15 0)
(3 -3.50243e-16 0)
(3 -1.0368e-15 0)
(3 -1.03259e-15 0)
(3 -1.50948e-15 0)
(3 -1.36685e-15 0)
(3 -8.56632e-16 0)
(3 -4.01457e-16 0)
(3 9.99142e-16 0)
(3 1.53045e-15 0)
(3 1.65764e-15 0)
(3 1.36832e-15 0)
(3 1.51315e-15 0)
(3 1.98116e-15 0)
(3 1.74941e-15 0)
(3 8.27031e-16 0)
(3 2.62754e-16 0)
(3 2.82044e-16 0)
(3 2.23865e-16 0)
(3 3.29572e-16 0)
(3 5.42984e-16 0)
(3 5.18737e-16 0)
(3 6.56223e-16 0)
(3 -1.11017e-16 0)
(3 -5.12908e-16 0)
(3 -3.73161e-16 0)
(3 -2.07591e-16 0)
(3 1.3623e-16 0)
(3 4.21219e-16 0)
(3 5.68834e-16 0)
(3 3.49501e-16 0)
(3 5.49767e-17 0)
(3 -5.42975e-16 0)
(3 -2.43927e-16 0)
(3 -4.32106e-16 0)
(3 -4.14981e-16 0)
(3 -4.1222e-16 0)
(3 -3.71114e-16 0)
(3 -5.11949e-16 0)
(3 -6.5313e-16 0)
(3 -4.42766e-16 0)
(3 -1.75106e-16 0)
(3 -5.42e-16 0)
(3 -1.03889e-15 0)
(3 -9.33901e-16 0)
(3 -2.83106e-16 0)
(3 3.103e-16 0)
(3 7.28724e-16 0)
(3 1.22403e-15 0)
(3 1.54237e-15 0)
(3 1.48589e-15 0)
(3 1.3112e-15 0)
(3 9.54825e-16 0)
(3 3.54372e-16 0)
(3 9.76629e-16 0)
(3 5.5146e-16 0)
(3 6.76139e-16 0)
(3 4.73966e-16 0)
(3 1.9641e-16 0)
(3 -2.21472e-16 0)
(3 2.73985e-16 0)
(3 4.95325e-16 0)
(3 3.58214e-16 0)
(3 5.90134e-16 0)
(3 1.55304e-15 0)
(3 1.28199e-15 0)
(3 1.01058e-16 0)
(3 -1.54201e-16 0)
(3 -3.29194e-16 0)
(3 -9.67223e-16 0)
(3 -6.29621e-16 0)
(3 7.73775e-16 0)
(3 9.10228e-16 0)
(3 1.40794e-15 0)
(3 1.21606e-15 0)
(3 -1.17926e-16 0)
(3 -7.11691e-16 0)
(3 -9.89956e-16 0)
(3 -7.82697e-16 0)
(3 2.75015e-16 0)
(3 1.11384e-15 0)
(3 1.05339e-15 0)
(3 1.6376e-15 0)
(3 1.4756e-15 0)
(3 4.41575e-16 0)
(3 -8.46522e-16 0)
(3 -1.10839e-15 0)
(3 -8.72685e-16 0)
(3 9.82208e-17 0)
(3 9.08661e-16 0)
(3 1.40551e-15 0)
(3 1.77814e-15 0)
(3 1.6452e-15 0)
(3 1.29413e-15 0)
(3 1.10538e-15 0)
(3 9.7333e-16 0)
(3 4.49063e-16 0)
(3 -7.29211e-16 0)
(3 -7.4928e-16 0)
(3 1.60588e-17 0)
(3 -6.16872e-16 0)
(3 -4.19477e-16 0)
(3 -5.2101e-17 0)
(3 4.52388e-16 0)
(3 4.70456e-16 0)
(3 6.10636e-16 0)
(3 5.8023e-16 0)
(3 4.89736e-16 0)
(3 3.18968e-16 0)
(3 -1.59752e-16 0)
(3 -8.00865e-16 0)
(3 -1.02363e-15 0)
(3 -1.21562e-15 0)
(3 -6.4656e-16 0)
(3 -8.32178e-16 0)
(3 -1.34077e-15 0)
(3 -1.67834e-15 0)
(3 -2.80242e-15 0)
(3 -2.78623e-15 0)
(3 -1.51925e-15 0)
(3 -5.78253e-16 0)
(3 -2.59433e-16 0)
(3 -2.30895e-16 0)
(3 -1.14759e-16 0)
(3 -1.18971e-16 0)
(3 2.20994e-16 0)
(3 3.80483e-16 0)
(3 -5.13034e-17 0)
(3 -3.82557e-16 0)
(3 -4.62215e-16 0)
(3 -2.891e-16 0)
(3 3.67491e-16 0)
(3 4.9599e-16 0)
(3 -7.35932e-17 0)
(3 -1.74236e-16 0)
(3 -2.85876e-16 0)
(3 -5.9263e-16 0)
(3 -1.1706e-15 0)
(3 -1.753e-15 0)
(3 -2.13694e-15 0)
(3 -2.35557e-15 0)
(3 -1.98737e-15 0)
(3 -1.28486e-15 0)
(3 -9.6938e-16 0)
(3 -1.56602e-15 0)
(3 -2.49947e-15 0)
(3 -2.77957e-15 0)
(3 -3.08632e-15 0)
(3 -3.04305e-15 0)
(3 -2.75804e-15 0)
(3 -2.16842e-15 0)
(3 -1.40069e-15 0)
(3 -8.20054e-16 0)
(3 -5.6606e-16 0)
(3 1.38278e-16 0)
(3 9.44448e-16 0)
(3 1.34792e-15 0)
(3 2.12711e-15 0)
(3 2.2516e-15 0)
(3 1.29813e-15 0)
(3 -2.29384e-16 0)
(3 -6.4146e-16 0)
(3 -2.31091e-17 0)
(3 -1.70076e-16 0)
(3 8.72959e-17 0)
(3 3.62675e-17 0)
(3 7.81969e-17 0)
(3 9.25933e-16 0)
(3 1.36096e-15 0)
(3 1.61082e-17 0)
(3 4.35967e-16 0)
(3 2.74768e-16 0)
(3 5.42687e-16 0)
(3 2.05122e-15 0)
(3 2.3157e-15 0)
(3 2.05618e-15 0)
(3 2.26299e-15 0)
(3 2.31578e-15 0)
(3 2.97748e-15 0)
(3 3.36283e-15 0)
(3 2.37088e-15 0)
(3 1.94172e-15 0)
(3 1.95013e-15 0)
(3 1.76086e-15 0)
(3 1.4175e-15 0)
(3 1.88337e-15 0)
(3 1.95533e-15 0)
(3 1.7946e-15 0)
(3 1.32884e-15 0)
(3 1.91589e-15 0)
(3 1.87052e-15 0)
(3 2.17431e-15 0)
(3 1.97467e-15 0)
(3 1.21521e-15 0)
(3 6.53702e-16 0)
(3 2.8966e-16 0)
(3 1.94235e-16 0)
(3 -7.97806e-16 0)
(3 -1.63418e-15 0)
(3 -1.90952e-15 0)
(3 -8.3908e-16 0)
(3 -2.89744e-16 0)
(3 -5.75879e-16 0)
(3 -4.26665e-16 0)
(3 -3.40232e-16 0)
(3 1.50003e-15 0)
(3 2.65802e-15 0)
(3 2.2258e-15 0)
(3 1.40228e-15 0)
(3 9.56979e-16 0)
(3 6.89839e-16 0)
(3 6.7193e-16 0)
(3 1.46526e-16 0)
(3 -3.12097e-16 0)
(3 6.44453e-16 0)
(3 1.5937e-16 0)
(3 9.56846e-17 0)
(3 -1.78317e-16 0)
(3 8.96064e-17 0)
(3 -2.48242e-18 0)
(3 1.29809e-16 0)
(3 1.25333e-17 0)
(3 -1.15163e-16 0)
(3 -6.84809e-17 0)
(3 -1.96855e-16 0)
(3 -5.51063e-17 0)
(3 1.63004e-16 0)
(3 -7.80386e-17 0)
(3 -3.69364e-16 0)
(3 -1.91866e-16 0)
(3 2.52697e-17 0)
(3 -5.66969e-16 0)
(3 -7.39206e-16 0)
(3 -1.08764e-15 0)
(3 -1.55747e-15 0)
(3 -1.54654e-15 0)
(3 -1.37138e-15 0)
(3 -5.18079e-16 0)
(3 1.04239e-15 0)
(3 1.01381e-15 0)
(3 1.18969e-15 0)
(3 1.0524e-15 0)
(3 9.93169e-16 0)
(3 1.05626e-15 0)
(3 1.0245e-15 0)
(3 5.09437e-16 0)
(3 3.11851e-16 0)
(3 1.038e-15 0)
(3 9.75695e-16 0)
(3 5.21982e-16 0)
(3 -1.25082e-16 0)
(3 -1.10626e-16 0)
(3 3.65773e-16 0)
(3 1.13019e-15 0)
(3 1.90306e-15 0)
(3 1.75126e-15 0)
(3 1.09082e-15 0)
(3 5.81457e-16 0)
(3 -8.74125e-17 0)
(3 3.2836e-16 0)
(3 2.98496e-16 0)
(3 -2.07293e-16 0)
(3 -2.63969e-17 0)
(3 -3.67393e-16 0)
(3 6.32381e-16 0)
(3 1.11734e-15 0)
(3 9.33299e-16 0)
(3 9.21805e-16 0)
(3 3.71239e-16 0)
(3 3.01491e-17 0)
(3 -3.56484e-16 0)
(3 -3.7016e-16 0)
(3 -1.64474e-16 0)
(3 7.17497e-16 0)
(3 2.03967e-15 0)
(3 2.05255e-15 0)
(3 3.76588e-16 0)
(3 -6.41092e-17 0)
(3 -5.40167e-16 0)
(3 -6.78571e-16 0)
(3 -1.20897e-16 0)
(3 3.59277e-16 0)
(3 1.32467e-15 0)
(3 3.08992e-15 0)
(3 3.0751e-15 0)
(3 1.18545e-15 0)
(3 4.66477e-16 0)
(3 5.94518e-16 0)
(3 -1.23729e-16 0)
(3 -8.3674e-16 0)
(3 -1.1334e-15 0)
(3 -1.03825e-15 0)
(3 -6.00778e-16 0)
(3 5.58463e-16 0)
(3 2.12257e-15 0)
(3 2.80651e-15 0)
(3 2.73429e-15 0)
(3 2.7204e-15 0)
(3 1.82454e-15 0)
(3 6.87942e-16 0)
(3 3.48768e-16 0)
(3 4.45565e-17 0)
(3 -5.37978e-16 0)
(3 -1.17373e-15 0)
(3 -1.20109e-15 0)
(3 -6.49463e-16 0)
(3 3.82771e-16 0)
(3 6.27203e-16 0)
(3 1.533e-16 0)
(3 -1.17308e-15 0)
(3 -1.95596e-15 0)
(3 -1.25832e-15 0)
(3 -5.15643e-16 0)
(3 -2.86735e-16 0)
(3 -3.03683e-16 0)
(3 -5.71287e-16 0)
(3 2.11971e-16 0)
(3 3.61394e-16 0)
(3 1.94001e-17 0)
(3 -8.92778e-17 0)
(3 -7.83497e-16 0)
(3 -8.49771e-16 0)
(3 2.27671e-16 0)
(3 7.32832e-16 0)
(3 1.23704e-15 0)
(3 1.4162e-15 0)
(3 1.13487e-15 0)
(3 2.52521e-16 0)
(3 1.17125e-16 0)
(3 -2.93855e-16 0)
(3 -7.73331e-16 0)
(3 -1.69849e-15 0)
(3 -1.40608e-15 0)
(3 -1.17412e-15 0)
(3 -8.00324e-16 0)
(3 -5.85377e-16 0)
(3 -4.12783e-16 0)
(3 -1.07844e-15 0)
(3 -1.25593e-15 0)
(3 -1.48075e-15 0)
(3 -1.54177e-15 0)
(3 -9.28366e-16 0)
(3 -4.1974e-16 0)
(3 1.93685e-16 0)
(3 6.89139e-16 0)
(3 6.10719e-16 0)
(3 -5.40267e-17 0)
(3 5.40886e-16 0)
(3 9.70649e-16 0)
(3 1.2738e-15 0)
(3 1.51314e-15 0)
(3 1.27467e-15 0)
(3 -2.13306e-16 0)
(3 -3.59437e-16 0)
(3 2.63184e-17 0)
(3 1.96811e-16 0)
(3 7.30097e-17 0)
(3 -4.75367e-16 0)
(3 -5.28749e-16 0)
(3 -5.74912e-16 0)
(3 -3.04232e-16 0)
(3 -3.66473e-16 0)
(3 -1.32724e-15 0)
(3 -8.62764e-16 0)
(3 2.03828e-16 0)
(3 1.04302e-15 0)
(3 7.20185e-16 0)
(3 1.02615e-15 0)
(3 2.35342e-15 0)
(3 2.93688e-15 0)
(3 3.80708e-15 0)
(3 3.6894e-15 0)
(3 1.2406e-15 0)
(3 7.46267e-16 0)
(3 9.63134e-16 0)
(3 4.70463e-16 0)
(3 -4.71377e-16 0)
(3 7.51192e-16 0)
(3 1.49379e-15 0)
(3 1.78723e-15 0)
(3 1.91975e-15 0)
(3 1.95101e-15 0)
(3 2.08416e-15 0)
(3 2.07757e-15 0)
(3 1.84468e-15 0)
(3 1.68518e-15 0)
(3 1.8436e-15 0)
(3 8.31823e-16 0)
(3 4.03033e-16 0)
(3 -2.07812e-17 0)
(3 -1.3776e-15 0)
(3 -2.42719e-15 0)
(3 -2.32964e-15 0)
(3 -2.23588e-15 0)
(3 -1.59359e-15 0)
(3 -9.85335e-16 0)
(3 -1.09283e-16 0)
(3 1.18146e-15 0)
(3 2.4095e-15 0)
(3 2.70523e-15 0)
(3 2.42914e-15 0)
(3 1.4009e-15 0)
(3 8.20177e-16 0)
(3 4.80557e-16 0)
(3 -4.28734e-16 0)
(3 -3.89122e-16 0)
(3 -1.1033e-15 0)
(3 -8.32353e-16 0)
(3 -5.23529e-16 0)
(3 -7.98386e-16 0)
(3 1.90738e-17 0)
(3 -8.12239e-17 0)
(3 1.35761e-16 0)
(3 -1.81279e-16 0)
(3 -4.57221e-16 0)
(3 -3.28015e-16 0)
(3 -7.66904e-17 0)
(3 7.12876e-17 0)
(3 4.46082e-16 0)
(3 8.14092e-16 0)
(3 7.66868e-16 0)
(3 -3.00252e-16 0)
(3 -1.06217e-15 0)
(3 -1.24503e-15 0)
(3 -1.16632e-15 0)
(3 -1.54205e-15 0)
(3 -8.40625e-16 0)
(3 -4.26058e-16 0)
(3 -2.44505e-16 0)
(3 3.15483e-17 0)
(3 7.55906e-17 0)
(3 -6.03096e-17 0)
(3 -3.45372e-16 0)
(3 -2.72351e-16 0)
(3 2.29394e-16 0)
(3 6.90526e-16 0)
(3 1.0819e-15 0)
(3 8.29421e-16 0)
(3 2.20115e-16 0)
(3 -5.21551e-17 0)
(3 -8.42315e-16 0)
(3 -6.49705e-16 0)
(3 -7.24527e-16 0)
(3 -2.26533e-16 0)
(3 -3.15046e-16 0)
(3 -1.72769e-16 0)
(3 7.53884e-16 0)
(3 7.16427e-16 0)
(3 -6.1295e-17 0)
(3 3.7294e-17 0)
(3 1.18678e-17 0)
(3 1.07343e-16 0)
(3 6.33762e-17 0)
(3 -5.29892e-16 0)
(3 -1.28128e-15 0)
(3 -2.06648e-15 0)
(3 -4.75154e-16 0)
(3 -4.00667e-17 0)
(3 3.41274e-16 0)
(3 3.11584e-16 0)
(3 -5.93333e-16 0)
(3 -1.05661e-15 0)
(3 -1.25614e-15 0)
(3 -5.63513e-16 0)
(3 -4.50901e-16 0)
(3 -5.80509e-16 0)
(3 7.82573e-16 0)
(3 9.92273e-16 0)
(3 2.6422e-16 0)
(3 -1.79652e-16 0)
(3 -3.25459e-16 0)
(3 -6.70992e-16 0)
(3 -5.00466e-16 0)
(3 -1.74403e-16 0)
(3 1.05503e-15 0)
(3 1.77626e-15 0)
(3 1.81366e-15 0)
(3 1.23358e-15 0)
(3 1.18682e-15 0)
(3 7.05542e-16 0)
(3 6.69152e-16 0)
(3 4.37893e-16 0)
(3 5.25503e-16 0)
(3 2.93081e-16 0)
(3 9.54073e-16 0)
(3 1.85346e-15 0)
(3 2.45491e-15 0)
(3 2.44554e-15 0)
(3 1.61985e-15 0)
(3 1.41153e-15 0)
(3 1.66248e-15 0)
(3 2.20918e-15 0)
(3 1.98444e-15 0)
(3 1.59941e-15 0)
(3 8.72596e-16 0)
(3 5.05981e-16 0)
(3 -1.82379e-17 0)
(3 -1.21808e-16 0)
(3 -2.17978e-16 0)
(3 -3.87609e-16 0)
(3 -5.04152e-16 0)
(3 -6.83821e-16 0)
(3 -8.21143e-16 0)
(3 -3.62292e-16 0)
(3 -2.30711e-16 0)
(3 -3.77133e-16 0)
(3 -6.4421e-16 0)
(3 -1.54698e-16 0)
(3 2.43636e-16 0)
(3 1.42832e-16 0)
(3 -7.91138e-16 0)
(3 -8.76024e-16 0)
(3 -7.64934e-16 0)
(3 -8.43554e-16 0)
(3 1.4635e-16 0)
(3 2.7107e-16 0)
(3 5.854e-16 0)
(3 7.9176e-16 0)
(3 7.21874e-16 0)
(3 5.25968e-16 0)
(3 -7.62213e-17 0)
(3 -3.13359e-16 0)
(3 -6.31807e-16 0)
(3 -6.76448e-16 0)
(3 -6.28984e-16 0)
(3 -3.90833e-16 0)
(3 -2.83263e-16 0)
(3 -1.11996e-16 0)
(3 -1.05533e-16 0)
(3 -5.30982e-16 0)
(3 -1.06684e-15 0)
(3 -6.62342e-16 0)
(3 -6.27592e-17 0)
(3 5.37698e-16 0)
(3 8.04934e-16 0)
(3 1.17742e-15 0)
(3 1.38697e-15 0)
(3 1.42951e-15 0)
(3 1.57135e-15 0)
(3 9.60886e-16 0)
(3 9.96343e-16 0)
(3 1.22616e-15 0)
(3 1.34823e-15 0)
(3 1.09981e-15 0)
(3 1.23712e-15 0)
(3 1.45129e-15 0)
(3 5.33631e-16 0)
(3 -2.89264e-16 0)
(3 -1.57328e-16 0)
(3 -1.88353e-16 0)
(3 -1.07127e-15 0)
(3 -1.39284e-15 0)
(3 -9.99035e-16 0)
(3 -2.8509e-16 0)
(3 -8.93541e-16 0)
(3 -1.19752e-15 0)
(3 -4.15748e-16 0)
(3 1.88919e-16 0)
(3 -6.27034e-16 0)
(3 -9.0851e-16 0)
(3 7.44433e-16 0)
(3 1.31406e-15 0)
(3 1.6012e-15 0)
(3 1.8011e-15 0)
(3 1.60214e-15 0)
(3 -1.60577e-16 0)
(3 -6.55575e-16 0)
(3 -1.16148e-15 0)
(3 -1.29383e-15 0)
(3 -8.50736e-16 0)
(3 4.08416e-16 0)
(3 1.03649e-15 0)
(3 1.21208e-15 0)
(3 1.55994e-15 0)
(3 1.57935e-15 0)
(3 2.42015e-15 0)
(3 2.94975e-15 0)
(3 3.39613e-15 0)
(3 2.8336e-15 0)
(3 2.27666e-15 0)
(3 1.41897e-15 0)
(3 1.00246e-15 0)
(3 -9.4818e-17 0)
(3 -1.89205e-15 0)
(3 -1.94966e-15 0)
(3 -1.13128e-15 0)
(3 -4.80878e-16 0)
(3 -1.63857e-16 0)
(3 8.69169e-16 0)
(3 1.12989e-15 0)
(3 9.49163e-16 0)
(3 1.09273e-15 0)
(3 1.13904e-15 0)
(3 6.77295e-16 0)
(3 1.58097e-16 0)
(3 -9.93992e-16 0)
(3 -7.03989e-16 0)
(3 -5.41729e-16 0)
(3 -7.32011e-16 0)
(3 -2.49666e-16 0)
(3 -3.50698e-16 0)
(3 -1.7528e-16 0)
(3 -2.11528e-16 0)
(3 3.76229e-16 0)
(3 4.24835e-16 0)
(3 5.67056e-16 0)
(3 -1.37703e-16 0)
(3 -1.33462e-16 0)
(3 3.02128e-16 0)
(3 3.91015e-16 0)
(3 3.49571e-16 0)
(3 6.64276e-16 0)
(3 7.85612e-16 0)
(3 6.29296e-16 0)
(3 -2.21356e-16 0)
(3 -5.94188e-16 0)
(3 -6.87343e-16 0)
(3 -2.31894e-16 0)
(3 -7.25111e-18 0)
(3 4.41992e-16 0)
(3 6.56291e-16 0)
(3 4.59702e-16 0)
(3 -2.53503e-16 0)
(3 -6.03005e-16 0)
(3 -5.91606e-16 0)
(3 -8.54048e-17 0)
(3 1.15697e-16 0)
(3 -1.90737e-16 0)
(3 2.19777e-16 0)
(3 1.06928e-15 0)
(3 8.20386e-16 0)
(3 -7.58458e-17 0)
(3 -5.33988e-16 0)
(3 -7.56213e-16 0)
(3 -1.12591e-15 0)
(3 -1.04743e-15 0)
(3 -6.0466e-16 0)
(3 -8.16648e-17 0)
(3 6.03393e-16 0)
(3 1.20431e-16 0)
(3 1.19287e-16 0)
(3 6.5774e-17 0)
(3 1.72867e-16 0)
(3 -5.50663e-16 0)
(3 -1.09368e-15 0)
(3 -9.61195e-16 0)
(3 -1.98487e-15 0)
(3 -2.0504e-15 0)
(3 -2.09276e-15 0)
(3 -1.84783e-15 0)
(3 -1.58183e-15 0)
(3 -1.68732e-15 0)
(3 -1.57141e-15 0)
(3 -1.34213e-15 0)
(3 -1.40278e-15 0)
(3 -1.8694e-15 0)
(3 -1.55452e-15 0)
(3 -1.39423e-15 0)
(3 -9.43793e-16 0)
(3 -8.66229e-16 0)
(3 -1.10665e-15 0)
(3 -1.41211e-15 0)
(3 -1.0159e-15 0)
(3 -3.39204e-16 0)
(3 -6.28891e-16 0)
(3 -3.06824e-16 0)
(3 3.498e-17 0)
(3 -1.08571e-16 0)
(3 3.76353e-17 0)
(3 1.20662e-15 0)
(3 1.64664e-15 0)
(3 1.36629e-16 0)
(3 -4.03336e-17 0)
(3 -4.62958e-16 0)
(3 -2.6509e-16 0)
(3 6.94372e-16 0)
(3 1.69568e-15 0)
(3 1.20746e-15 0)
(3 6.89234e-16 0)
(3 8.65178e-17 0)
(3 -3.14708e-16 0)
(3 -3.75946e-16 0)
(3 1.8514e-15 0)
(3 3.13382e-15 0)
(3 2.94016e-15 0)
(3 1.07321e-15 0)
(3 3.40837e-16 0)
(3 5.05845e-16 0)
(3 -5.7357e-16 0)
(3 -9.20028e-16 0)
(3 -8.74419e-16 0)
(3 -1.06651e-15 0)
(3 -1.38373e-15 0)
(3 -1.64632e-15 0)
(3 -1.34117e-15 0)
(3 -1.31359e-15 0)
(3 -1.04172e-15 0)
(3 -4.01107e-16 0)
(3 -2.83816e-16 0)
(3 -4.49226e-18 0)
(3 -1.54481e-16 0)
(3 -1.03177e-15 0)
(3 -1.44113e-15 0)
(3 -1.88196e-15 0)
(3 -1.18125e-15 0)
(3 -4.80119e-17 0)
(3 -7.68156e-17 0)
(3 1.52422e-16 0)
(3 3.97675e-16 0)
(3 2.53146e-16 0)
(3 6.06662e-16 0)
(3 8.69579e-16 0)
(3 6.20117e-16 0)
(3 1.4223e-16 0)
(3 -3.32799e-16 0)
(3 -3.92123e-16 0)
(3 -3.02803e-16 0)
(3 -4.72841e-16 0)
(3 -8.70205e-16 0)
(3 -6.06734e-16 0)
(3 2.32458e-16 0)
(3 -1.8342e-16 0)
(3 -2.15102e-16 0)
(3 -2.61824e-16 0)
(3 1.90348e-16 0)
(3 -5.20291e-17 0)
(3 3.59254e-16 0)
(3 4.99354e-16 0)
(3 9.30964e-16 0)
(3 2.04569e-15 0)
(3 3.0062e-15 0)
(3 2.0704e-15 0)
(3 1.47023e-15 0)
(3 1.4332e-15 0)
(3 1.62338e-15 0)
(3 1.74577e-15 0)
(3 2.29207e-15 0)
(3 1.75997e-15 0)
(3 4.00105e-16 0)
(3 7.27069e-17 0)
(3 -7.53508e-16 0)
(3 -7.01273e-16 0)
(3 -1.37638e-15 0)
(3 -1.95458e-15 0)
(3 -2.41602e-15 0)
(3 -1.39435e-15 0)
(3 -8.06915e-16 0)
(3 -1.33422e-15 0)
(3 -1.8717e-15 0)
(3 -1.69596e-15 0)
(3 -1.33285e-15 0)
(3 -1.08023e-15 0)
(3 -2.02871e-16 0)
(3 -2.31641e-16 0)
(3 -3.17088e-16 0)
(3 4.78009e-17 0)
(3 6.77703e-16 0)
(3 2.21289e-16 0)
(3 -1.14721e-15 0)
(3 -1.33818e-15 0)
(3 -2.0504e-15 0)
(3 -2.61612e-15 0)
(3 -1.34729e-15 0)
(3 -4.151e-16 0)
(3 -3.69539e-16 0)
(3 7.05929e-16 0)
(3 1.7156e-15 0)
(3 2.12704e-15 0)
(3 2.35818e-15 0)
(3 2.99328e-15 0)
(3 3.17821e-15 0)
(3 2.9368e-15 0)
(3 2.33275e-15 0)
(3 1.29876e-15 0)
(3 7.80207e-16 0)
(3 4.06078e-16 0)
(3 3.80738e-16 0)
(3 1.22659e-15 0)
(3 9.94168e-16 0)
(3 1.38247e-15 0)
(3 1.66416e-15 0)
(3 1.2119e-15 0)
(3 5.00698e-16 0)
(3 3.51918e-16 0)
(3 -3.72962e-16 0)
(3 -1.28004e-15 0)
(3 -1.54861e-15 0)
(3 -1.43616e-15 0)
(3 -7.91078e-16 0)
(3 -5.26195e-16 0)
(3 -8.9892e-17 0)
(3 -1.43445e-16 0)
(3 -8.01483e-16 0)
(3 -7.52337e-16 0)
(3 -2.19602e-16 0)
(3 -2.87043e-16 0)
(3 -1.81181e-16 0)
(3 9.41223e-18 0)
(3 -2.64363e-16 0)
(3 -3.64735e-16 0)
(3 -1.29844e-16 0)
(3 -2.3376e-16 0)
(3 -3.44839e-16 0)
(3 3.35468e-16 0)
(3 7.4987e-16 0)
(3 7.59626e-16 0)
(3 5.01773e-16 0)
(3 2.51641e-16 0)
(3 -5.47333e-16 0)
(3 5.85639e-16 0)
(3 8.19158e-16 0)
(3 9.18376e-16 0)
(3 1.07247e-15 0)
(3 1.09689e-15 0)
(3 1.15489e-15 0)
(3 9.6534e-16 0)
(3 1.14289e-15 0)
(3 1.63379e-15 0)
(3 8.40345e-16 0)
(3 -3.01319e-16 0)
(3 -7.71146e-16 0)
(3 -7.15248e-16 0)
(3 -8.2496e-16 0)
(3 -9.13011e-16 0)
(3 -7.83732e-16 0)
(3 -1.30829e-15 0)
(3 -1.08816e-15 0)
(3 -7.9819e-16 0)
(3 -2.34617e-16 0)
(3 1.12776e-16 0)
(3 1.96526e-16 0)
(3 3.52607e-16 0)
(3 3.17675e-16 0)
(3 3.02388e-16 0)
(3 2.18735e-16 0)
(3 -7.61511e-17 0)
(3 4.66047e-16 0)
(3 7.09906e-16 0)
(3 2.53711e-17 0)
(3 -1.39512e-15 0)
(3 -1.8347e-15 0)
(3 -3.42438e-15 0)
(3 -3.22708e-15 0)
(3 -1.34497e-15 0)
(3 -5.03369e-16 0)
(3 -5.24274e-17 0)
(3 -2.87969e-16 0)
(3 -7.52177e-16 0)
(3 -5.00144e-16 0)
(3 -2.75224e-16 0)
(3 -6.05661e-16 0)
(3 -1.30494e-15 0)
(3 -1.61913e-15 0)
(3 -9.06316e-16 0)
(3 1.13871e-16 0)
(3 1.02994e-15 0)
(3 1.10603e-15 0)
(3 6.4999e-16 0)
(3 -1.74003e-16 0)
(3 -9.8466e-16 0)
(3 -1.31307e-16 0)
(3 1.16343e-15 0)
(3 1.39795e-15 0)
(3 2.75462e-16 0)
(3 -1.19421e-15 0)
(3 -1.61251e-15 0)
(3 -1.56592e-15 0)
(3 -4.14275e-16 0)
(3 -6.69361e-16 0)
(3 -1.01141e-15 0)
(3 -8.78282e-16 0)
(3 -3.73837e-17 0)
(3 6.11244e-16 0)
(3 1.16968e-15 0)
(3 1.43326e-15 0)
(3 1.2169e-15 0)
(3 7.89913e-16 0)
(3 7.28907e-16 0)
(3 6.90968e-16 0)
(3 4.73513e-16 0)
(3 -3.44808e-16 0)
(3 -1.57104e-15 0)
(3 -1.7826e-15 0)
(3 -9.17221e-16 0)
(3 1.96885e-16 0)
(3 5.21897e-16 0)
(3 5.3302e-16 0)
(3 3.88568e-16 0)
(3 -2.38367e-16 0)
(3 -2.30911e-16 0)
(3 -2.37098e-16 0)
(3 -6.79082e-16 0)
(3 -2.00069e-15 0)
(3 -1.97467e-15 0)
(3 -1.61218e-15 0)
(3 -6.12427e-16 0)
(3 1.21459e-15 0)
(3 1.31281e-15 0)
(3 2.32723e-16 0)
(3 -9.38505e-16 0)
(3 -7.47523e-16 0)
(3 -4.47779e-17 0)
(3 1.42699e-16 0)
(3 9.81725e-16 0)
(3 1.19028e-15 0)
(3 3.28631e-16 0)
(3 -7.25896e-16 0)
(3 -1.06265e-15 0)
(3 -8.64659e-16 0)
(3 -7.29701e-16 0)
(3 -7.08467e-16 0)
(3 -4.07071e-16 0)
(3 6.87809e-17 0)
(3 2.53663e-16 0)
(3 7.30857e-17 0)
(3 -1.04435e-16 0)
(3 -2.94676e-16 0)
(3 1.45919e-16 0)
(3 2.02854e-16 0)
(3 3.19413e-16 0)
(3 6.61728e-16 0)
(3 2.00807e-15 0)
(3 1.7537e-15 0)
(3 1.59913e-15 0)
(3 1.22967e-15 0)
(3 2.35951e-16 0)
(3 3.22076e-16 0)
(3 9.43711e-16 0)
(3 1.73476e-15 0)
(3 1.05957e-15 0)
(3 8.35403e-16 0)
(3 3.20978e-18 0)
(3 -1.36344e-15 0)
(3 -1.74228e-15 0)
(3 -1.33424e-15 0)
(3 -8.08359e-16 0)
(3 -8.30223e-16 0)
(3 -1.43207e-15 0)
(3 -1.52155e-15 0)
(3 -1.88142e-15 0)
(3 -2.24411e-15 0)
(3 -3.35526e-15 0)
(3 -2.57413e-15 0)
(3 -1.54899e-15 0)
(3 -4.23144e-16 0)
(3 9.51e-16 0)
(3 1.16016e-15 0)
(3 1.00213e-15 0)
(3 6.35299e-16 0)
(3 2.06199e-16 0)
(3 -9.76347e-16 0)
(3 -8.35516e-16 0)
(3 -1.10907e-15 0)
(3 -2.11376e-15 0)
(3 -3.16029e-15 0)
(3 -1.91157e-15 0)
(3 7.13681e-19 0)
(3 2.49758e-15 0)
(3 2.87417e-15 0)
(3 2.67324e-15 0)
(3 2.40719e-15 0)
(3 2.71106e-15 0)
(3 2.71969e-15 0)
(3 2.47668e-15 0)
(3 1.80478e-15 0)
(3 1.51494e-15 0)
(3 1.50085e-15 0)
(3 2.06281e-15 0)
(3 2.04926e-15 0)
(3 2.03826e-15 0)
(3 2.35409e-15 0)
(3 2.57935e-15 0)
(3 2.41058e-15 0)
(3 1.24294e-15 0)
(3 2.15069e-16 0)
(3 -1.01196e-15 0)
(3 -1.18375e-15 0)
(3 -1.55218e-15 0)
(3 -1.79267e-15 0)
(3 -1.27021e-15 0)
(3 -1.68611e-16 0)
(3 3.57838e-16 0)
(3 2.74024e-16 0)
(3 -4.9836e-16 0)
(3 -9.03573e-16 0)
(3 -6.7211e-16 0)
(3 -4.12236e-17 0)
(3 -3.022e-16 0)
(3 -4.60564e-16 0)
(3 -7.96013e-16 0)
(3 -6.53545e-16 0)
(3 -1.11949e-15 0)
(3 -1.16148e-15 0)
(3 -6.50521e-16 0)
(3 1.18852e-16 0)
(3 8.94932e-16 0)
(3 1.27279e-15 0)
(3 1.21658e-15 0)
(3 6.76515e-16 0)
(3 5.83317e-16 0)
(3 1.14323e-16 0)
(3 3.7787e-16 0)
(3 1.38747e-15 0)
(3 1.65532e-15 0)
(3 1.88624e-15 0)
(3 1.57736e-15 0)
(3 1.29717e-15 0)
(3 1.57386e-15 0)
(3 1.70471e-15 0)
(3 1.7391e-15 0)
(3 1.06656e-15 0)
(3 1.76262e-16 0)
(3 -1.28461e-15 0)
(3 -3.17178e-15 0)
(3 -2.86208e-15 0)
(3 -2.24665e-15 0)
(3 -2.2317e-15 0)
(3 -2.03629e-15 0)
(3 -1.35264e-15 0)
(3 -5.58042e-16 0)
(3 -2.42505e-16 0)
(3 6.68601e-17 0)
(3 3.43523e-16 0)
(3 8.03422e-16 0)
(3 7.81432e-16 0)
(3 7.43441e-16 0)
(3 6.77302e-16 0)
(3 3.73378e-16 0)
(3 1.08669e-15 0)
(3 7.4884e-16 0)
(3 -9.6234e-17 0)
(3 -2.03218e-15 0)
(3 -2.01614e-15 0)
(3 -3.03409e-15 0)
(3 -2.23923e-15 0)
(3 -1.47067e-15 0)
(3 -2.45654e-16 0)
(3 7.31157e-16 0)
(3 4.20769e-16 0)
(3 2.14955e-16 0)
(3 1.36994e-15 0)
(3 5.43356e-16 0)
(3 -4.28603e-16 0)
(3 -6.24591e-16 0)
(3 -8.16873e-16 0)
(3 2.1375e-16 0)
(3 7.14966e-16 0)
(3 1.01655e-15 0)
(3 2.17056e-15 0)
(3 2.04896e-15 0)
(3 1.49617e-15 0)
(3 1.18112e-15 0)
(3 1.61383e-15 0)
(3 1.65457e-15 0)
(3 1.76881e-15 0)
(3 1.04272e-15 0)
(3 -6.02858e-16 0)
(3 -7.92532e-16 0)
(3 -1.17068e-15 0)
(3 -6.17238e-16 0)
(3 -9.94713e-16 0)
(3 -8.67314e-16 0)
(3 -3.05698e-16 0)
(3 4.37962e-16 0)
(3 1.78311e-15 0)
(3 2.04802e-15 0)
(3 1.5787e-15 0)
(3 5.99052e-16 0)
(3 6.20216e-16 0)
(3 8.87903e-16 0)
(3 7.42511e-16 0)
(3 3.39339e-16 0)
(3 -3.37021e-16 0)
(3 -9.8993e-16 0)
(3 -1.76396e-15 0)
(3 -1.42422e-15 0)
(3 1.49975e-16 0)
(3 1.74089e-15 0)
(3 2.85063e-15 0)
(3 2.57829e-15 0)
(3 1.88818e-15 0)
(3 8.10869e-16 0)
(3 1.38259e-16 0)
(3 -9.79984e-16 0)
(3 -1.66304e-15 0)
(3 -1.58673e-15 0)
(3 -8.69004e-16 0)
(3 -2.54671e-16 0)
(3 6.86277e-16 0)
(3 8.93392e-16 0)
(3 7.70052e-16 0)
(3 4.96503e-16 0)
(3 3.15969e-16 0)