/*--------------------------------*- C++ -*----------------------------------*\
  =========                 |
  \\      /  F ield         | OpenFOAM: The Open Source CFD Toolbox
   \\    /   O peration     | Website:  https://openfoam.org
    \\  /    A nd           | Version:  7
     \\/     M anipulation  |
\*---------------------------------------------------------------------------*/
FoamFile
{
    version     2.0;
    format      ascii;
    class       volVectorField;
    location    "4";
    object      U;
}
// * * * * * * * * * * * * * * * * * * * * * * * * * * * * * * * * * * * * * //

dimensions      [0 1 -1 0 0 0 0];

internalField   nonuniform List<vector> 
16512
(
(1.0851 -0.0974098 0)
(1.09209 -0.0996907 0)
(1.09806 -0.102275 0)
(1.10128 -0.10447 0)
(1.10342 -0.10606 0)
(1.1051 -0.107303 0)
(1.10669 -0.107939 0)
(1.10865 -0.106988 0)
(1.1112 -0.103772 0)
(1.114 -0.0992145 0)
(1.11723 -0.0944894 0)
(1.12112 -0.0910561 0)
(1.12546 -0.0904983 0)
(1.13034 -0.0922493 0)
(1.13586 -0.0955217 0)
(1.1409 -0.100103 0)
(1.14549 -0.104371 0)
(1.14921 -0.106707 0)
(1.15129 -0.107708 0)
(1.1524 -0.1075 0)
(1.15231 -0.105472 0)
(1.1517 -0.102765 0)
(1.15247 -0.101332 0)
(1.15454 -0.101542 0)
(1.15824 -0.102983 0)
(1.16369 -0.105246 0)
(1.16901 -0.107292 0)
(1.17361 -0.108157 0)
(1.17705 -0.108125 0)
(1.17929 -0.106938 0)
(1.18087 -0.103974 0)
(1.18189 -0.100606 0)
(1.18339 -0.0979468 0)
(1.18556 -0.0970837 0)
(1.18817 -0.0978049 0)
(1.19138 -0.0993569 0)
(1.19449 -0.100635 0)
(1.19729 -0.101373 0)
(1.2001 -0.101451 0)
(1.20329 -0.100908 0)
(1.207 -0.0997624 0)
(1.21094 -0.0981342 0)
(1.21456 -0.0963063 0)
(1.21743 -0.094689 0)
(1.21979 -0.0935745 0)
(1.22206 -0.0930682 0)
(1.22451 -0.0933159 0)
(1.22801 -0.094805 0)
(1.23256 -0.0981997 0)
(1.23736 -0.101861 0)
(1.24104 -0.104099 0)
(1.24331 -0.10472 0)
(1.24479 -0.102962 0)
(1.24515 -0.0979995 0)
(1.24484 -0.0913466 0)
(1.24512 -0.0851025 0)
(1.24694 -0.0812099 0)
(1.24982 -0.0800546 0)
(1.25359 -0.0811831 0)
(1.25808 -0.084812 0)
(1.26368 -0.0901322 0)
(1.27061 -0.0966484 0)
(1.27595 -0.101197 0)
(1.27839 -0.102287 0)
(1.27852 -0.101244 0)
(1.27698 -0.0981987 0)
(1.27638 -0.0944084 0)
(1.2768 -0.0907385 0)
(1.2773 -0.0869404 0)
(1.27744 -0.0826965 0)
(1.27783 -0.0789175 0)
(1.27922 -0.0768581 0)
(1.28116 -0.0762633 0)
(1.28394 -0.0771143 0)
(1.28852 -0.0803384 0)
(1.29529 -0.0857161 0)
(1.30178 -0.0911214 0)
(1.30491 -0.0931873 0)
(1.30632 -0.0935966 0)
(1.30612 -0.0928111 0)
(1.30405 -0.0895287 0)
(1.30133 -0.0837891 0)
(1.30045 -0.0777377 0)
(1.30229 -0.0731554 0)
(1.30636 -0.0700857 0)
(1.3144 -0.0700437 0)
(1.32774 -0.0738023 0)
(1.34113 -0.0795972 0)
(1.34851 -0.0819706 0)
(1.3514 -0.0820666 0)
(1.35297 -0.0816264 0)
(1.35271 -0.0803146 0)
(1.35045 -0.0774622 0)
(1.34788 -0.0732373 0)
(1.34666 -0.0689098 0)
(1.34762 -0.0661866 0)
(1.35049 -0.0658595 0)
(1.35594 -0.0681721 0)
(1.36572 -0.0735951 0)
(1.37687 -0.0790812 0)
(1.38374 -0.0812907 0)
(1.38667 -0.0810307 0)
(1.38819 -0.080059 0)
(1.38854 -0.0785456 0)
(1.38986 -0.0769934 0)
(1.39236 -0.0754778 0)
(1.3953 -0.0738646 0)
(1.39868 -0.0723481 0)
(1.40329 -0.0708842 0)
(1.41085 -0.0701443 0)
(1.42154 -0.0711181 0)
(1.43323 -0.0729523 0)
(1.44211 -0.0736214 0)
(1.44675 -0.0724632 0)
(1.44982 -0.0706244 0)
(1.45318 -0.0685928 0)
(1.45697 -0.066995 0)
(1.46135 -0.0658855 0)
(1.46732 -0.0655032 0)
(1.47617 -0.0665027 0)
(1.48644 -0.0676683 0)
(1.49504 -0.0676618 0)
(1.50109 -0.0664656 0)
(1.50592 -0.0649668 0)
(1.51071 -0.0640969 0)
(1.51518 -0.0647613 0)
(1.51914 -0.0670084 0)
(1.52322 -0.0708471 0)
(1.52844 -0.0762229 0)
(1.53512 -0.0821681 0)
(1.54235 -0.0867382 0)
(1.54832 -0.0885107 0)
(1.55248 -0.0875654 0)
(1.55691 -0.0841181 0)
(1.56246 -0.0783914 0)
(1.56964 -0.0713558 0)
(1.57798 -0.0638371 0)
(1.58607 -0.057854 0)
(1.59288 -0.0547797 0)
(1.59825 -0.0544408 0)
(1.603 -0.0560446 0)
(1.60774 -0.0590463 0)
(1.6126 -0.062889 0)
(1.61781 -0.067104 0)
(1.6236 -0.0712141 0)
(1.63004 -0.0747019 0)
(1.63678 -0.0770211 0)
(1.64292 -0.0777809 0)
(1.6475 -0.0770069 0)
(1.65144 -0.075405 0)
(1.65544 -0.0732847 0)
(1.66007 -0.0707839 0)
(1.66619 -0.0681712 0)
(1.67313 -0.0664546 0)
(1.67801 -0.0663526 0)
(1.68098 -0.0666051 0)
(1.68381 -0.0665548 0)
(1.68613 -0.0657617 0)
(1.68717 -0.0637762 0)
(1.68693 -0.0608942 0)
(1.687 -0.0580767 0)
(1.68861 -0.056 0)
(1.69144 -0.0540455 0)
(1.69818 -0.0521275 0)
(1.70999 -0.0522726 0)
(1.72473 -0.0561916 0)
(1.73618 -0.0623268 0)
(1.74261 -0.067632 0)
(1.74527 -0.0706322 0)
(1.74697 -0.0717587 0)
(1.74768 -0.0719967 0)
(1.74564 -0.0698598 0)
(1.74131 -0.0646108 0)
(1.73788 -0.0577978 0)
(1.73812 -0.0522578 0)
(1.74107 -0.0488891 0)
(1.74649 -0.0457169 0)
(1.75721 -0.0432964 0)
(1.77068 -0.0417658 0)
(1.7811 -0.0413237 0)
(1.78717 -0.042857 0)
(1.79029 -0.0457938 0)
(1.79186 -0.0492371 0)
(1.79282 -0.0533448 0)
(1.79217 -0.0582776 0)
(1.78908 -0.0624244 0)
(1.78563 -0.0636939 0)
(1.78384 -0.0612548 0)
(1.78199 -0.056225 0)
(1.77928 -0.0497434 0)
(1.77738 -0.0444021 0)
(1.77779 -0.0420914 0)
(1.77956 -0.041848 0)
(1.78297 -0.0423611 0)
(1.78938 -0.0423031 0)
(1.7987 -0.0414142 0)
(1.81009 -0.041478 0)
(1.82112 -0.0441088 0)
(1.83039 -0.047595 0)
(1.83708 -0.0501138 0)
(1.84032 -0.0504727 0)
(1.84185 -0.0489901 0)
(1.84341 -0.0449912 0)
(1.84321 -0.039022 0)
(1.83996 -0.0312257 0)
(1.83439 -0.0243735 0)
(1.83113 -0.0229693 0)
(1.83162 -0.0256266 0)
(1.83307 -0.0298516 0)
(1.8349 -0.0343593 0)
(1.83742 -0.0383784 0)
(1.84017 -0.0415168 0)
(1.84281 -0.0432518 0)
(1.84475 -0.0433001 0)
(1.84661 -0.0416905 0)
(1.8489 -0.0382861 0)
(1.85161 -0.0341353 0)
(1.85405 -0.0307902 0)
(1.85601 -0.0294128 0)
(1.85787 -0.0295873 0)
(1.85951 -0.0310254 0)
(1.86094 -0.032832 0)
(1.86195 -0.0345087 0)
(1.86233 -0.0354876 0)
(1.86239 -0.0347749 0)
(1.86293 -0.031944 0)
(1.86452 -0.0276746 0)
(1.86666 -0.0227019 0)
(1.86882 -0.0178226 0)
(1.8708 -0.0144872 0)
(1.87276 -0.0138395 0)
(1.87498 -0.0155814 0)
(1.87843 -0.0189839 0)
(1.88248 -0.0230629 0)
(1.88713 -0.02774 0)
(1.89245 -0.0326853 0)
(1.89706 -0.0355437 0)
(1.90083 -0.0359163 0)
(1.9031 -0.0346866 0)
(1.90463 -0.031848 0)
(1.90492 -0.0261457 0)
(1.90219 -0.0172204 0)
(1.89569 -0.00728734 0)
(1.88956 -0.0013521 0)
(1.888 -0.000887405 0)
(1.88886 -0.00212026 0)
(1.89018 -0.00343297 0)
(1.89197 -0.00504711 0)
(1.89558 -0.00727775 0)
(1.90274 -0.0100895 0)
(1.91512 -0.0139934 0)
(1.92808 -0.0173724 0)
(1.93605 -0.0194562 0)
(1.93966 -0.0210328 0)
(1.94195 -0.0217417 0)
(1.94299 -0.023205 0)
(1.94058 -0.0233077 0)
(1.93031 -0.013594 0)
(1.09791 -0.0999666 0)
(1.102 -0.0980048 0)
(1.1058 -0.0985769 0)
(1.10903 -0.100417 0)
(1.11171 -0.102894 0)
(1.11416 -0.105424 0)
(1.11677 -0.10719 0)
(1.11994 -0.10829 0)
(1.12377 -0.108385 0)
(1.1279 -0.106441 0)
(1.13155 -0.102521 0)
(1.1343 -0.0980396 0)
(1.13635 -0.0943422 0)
(1.13845 -0.0929664 0)
(1.14123 -0.0942718 0)
(1.14552 -0.0974248 0)
(1.1506 -0.102057 0)
(1.15551 -0.107505 0)
(1.15965 -0.111094 0)
(1.1623 -0.112656 0)
(1.16401 -0.112649 0)
(1.16499 -0.11034 0)
(1.16509 -0.106553 0)
(1.16557 -0.102942 0)
(1.16727 -0.101349 0)
(1.17025 -0.101939 0)
(1.17533 -0.104085 0)
(1.18097 -0.107138 0)
(1.18576 -0.109241 0)
(1.1896 -0.109986 0)
(1.19203 -0.109709 0)
(1.19394 -0.107722 0)
(1.19524 -0.104805 0)
(1.19652 -0.101957 0)
(1.19838 -0.0998958 0)
(1.20067 -0.0990647 0)
(1.2034 -0.0992415 0)
(1.20671 -0.0995226 0)
(1.2102 -0.0992689 0)
(1.21379 -0.0984677 0)
(1.21758 -0.0974098 0)
(1.22126 -0.0965435 0)
(1.22451 -0.0962605 0)
(1.22696 -0.0963092 0)
(1.22893 -0.0962128 0)
(1.23055 -0.0959002 0)
(1.2322 -0.095737 0)
(1.23432 -0.0961134 0)
(1.23764 -0.0973609 0)
(1.24216 -0.0998945 0)
(1.24706 -0.102919 0)
(1.25154 -0.104608 0)
(1.25484 -0.104609 0)
(1.25689 -0.102523 0)
(1.25819 -0.0979526 0)
(1.25813 -0.0921533 0)
(1.2572 -0.0866261 0)
(1.25728 -0.0836094 0)
(1.25904 -0.0836601 0)
(1.26191 -0.085358 0)
(1.26595 -0.0894478 0)
(1.27143 -0.0956597 0)
(1.27872 -0.103067 0)
(1.28457 -0.107602 0)
(1.287 -0.107739 0)
(1.28812 -0.103943 0)
(1.28844 -0.0978776 0)
(1.28868 -0.091532 0)
(1.28878 -0.0856774 0)
(1.28867 -0.0806427 0)
(1.28822 -0.0766769 0)
(1.28794 -0.0747069 0)
(1.28897 -0.0746738 0)
(1.29082 -0.0757606 0)
(1.29387 -0.078763 0)
(1.2989 -0.0840899 0)
(1.30609 -0.0904604 0)
(1.3127 -0.0948201 0)
(1.31592 -0.0958429 0)
(1.31737 -0.0952514 0)
(1.31769 -0.092894 0)
(1.31729 -0.0884827 0)
(1.3174 -0.0822764 0)
(1.31898 -0.0758413 0)
(1.32225 -0.07058 0)
(1.32723 -0.0675271 0)
(1.33491 -0.0687367 0)
(1.34695 -0.074451 0)
(1.35897 -0.0819779 0)
(1.36537 -0.0854182 0)
(1.36792 -0.0859487 0)
(1.36903 -0.0861432 0)
(1.36851 -0.085441 0)
(1.36779 -0.0834261 0)
(1.36822 -0.080019 0)
(1.36975 -0.075824 0)
(1.37244 -0.071991 0)
(1.3765 -0.0697414 0)
(1.38341 -0.0708885 0)
(1.39415 -0.0764566 0)
(1.40564 -0.0821866 0)
(1.41291 -0.0848249 0)
(1.41604 -0.0848031 0)
(1.41788 -0.0833102 0)
(1.41995 -0.0812969 0)
(1.42304 -0.0796112 0)
(1.42664 -0.0777425 0)
(1.43092 -0.0755646 0)
(1.43642 -0.0731728 0)
(1.44387 -0.0710949 0)
(1.45353 -0.0706158 0)
(1.46453 -0.0724357 0)
(1.47476 -0.0753138 0)
(1.48208 -0.0771271 0)
(1.48651 -0.0771923 0)
(1.49041 -0.0765438 0)
(1.49468 -0.0757069 0)
(1.49953 -0.0750367 0)
(1.50569 -0.0745555 0)
(1.5144 -0.0745514 0)
(1.52515 -0.0749446 0)
(1.53501 -0.0743368 0)
(1.54172 -0.0726302 0)
(1.5462 -0.0712704 0)
(1.54963 -0.0705077 0)
(1.55266 -0.0704135 0)
(1.55522 -0.0713379 0)
(1.55793 -0.0733488 0)
(1.56148 -0.0763315 0)
(1.56741 -0.0809364 0)
(1.57564 -0.0861335 0)
(1.5841 -0.089622 0)
(1.59149 -0.0900862 0)
(1.59826 -0.0878963 0)
(1.60551 -0.0836773 0)
(1.61365 -0.078193 0)
(1.62141 -0.0725676 0)
(1.62698 -0.0683531 0)
(1.63123 -0.0657106 0)
(1.63462 -0.0637115 0)
(1.63738 -0.0626704 0)
(1.64031 -0.0630759 0)
(1.64348 -0.0649528 0)
(1.64726 -0.0679162 0)
(1.65216 -0.0714048 0)
(1.6587 -0.0751476 0)
(1.66637 -0.0782917 0)
(1.67383 -0.0800472 0)
(1.67982 -0.0797449 0)
(1.68427 -0.0777351 0)
(1.68813 -0.0749671 0)
(1.69244 -0.072088 0)
(1.69745 -0.0698195 0)
(1.70205 -0.0693506 0)
(1.70533 -0.0701735 0)
(1.70816 -0.0708619 0)
(1.71085 -0.0711128 0)
(1.71324 -0.0708818 0)
(1.71475 -0.0695417 0)
(1.71506 -0.0666191 0)
(1.7153 -0.062257 0)
(1.71696 -0.0575893 0)
(1.7201 -0.0532029 0)
(1.72588 -0.0491165 0)
(1.73428 -0.0472543 0)
(1.74383 -0.049768 0)
(1.75292 -0.0557872 0)
(1.76022 -0.0627906 0)
(1.76515 -0.0685385 0)
(1.76714 -0.0725608 0)
(1.76789 -0.0759422 0)
(1.76784 -0.0779901 0)
(1.7668 -0.0770115 0)
(1.76531 -0.0717543 0)
(1.76488 -0.0629172 0)
(1.7671 -0.0535878 0)
(1.77207 -0.0435591 0)
(1.77988 -0.0337136 0)
(1.78943 -0.028858 0)
(1.79657 -0.0294828 0)
(1.79928 -0.0329794 0)
(1.80017 -0.0380318 0)
(1.80078 -0.0451684 0)
(1.8009 -0.0537691 0)
(1.80086 -0.0626484 0)
(1.80107 -0.0699184 0)
(1.80152 -0.0740894 0)
(1.80232 -0.0755518 0)
(1.80345 -0.0734253 0)
(1.8032 -0.0680109 0)
(1.80132 -0.0598886 0)
(1.79928 -0.0504792 0)
(1.79917 -0.0421111 0)
(1.80134 -0.0357259 0)
(1.8061 -0.0302035 0)
(1.81424 -0.0264229 0)
(1.82296 -0.0258784 0)
(1.82983 -0.0291872 0)
(1.83704 -0.0361795 0)
(1.84592 -0.0438982 0)
(1.85353 -0.0483323 0)
(1.85746 -0.0497694 0)
(1.8588 -0.0499277 0)
(1.85994 -0.0488938 0)
(1.85911 -0.0456248 0)
(1.85456 -0.0391349 0)
(1.8467 -0.0311207 0)
(1.8412 -0.0272678 0)
(1.84106 -0.0283723 0)
(1.84264 -0.0301692 0)
(1.8448 -0.0324941 0)
(1.84816 -0.0351623 0)
(1.85196 -0.0376136 0)
(1.85558 -0.0390711 0)
(1.85903 -0.038725 0)
(1.86219 -0.0368243 0)
(1.86463 -0.0347792 0)
(1.86665 -0.0334257 0)
(1.86805 -0.0321611 0)
(1.86856 -0.0312153 0)
(1.86898 -0.031309 0)
(1.8698 -0.0322884 0)
(1.87082 -0.0333991 0)
(1.8721 -0.0339041 0)
(1.87376 -0.0336711 0)
(1.87559 -0.0321405 0)
(1.87776 -0.0295891 0)
(1.87999 -0.0269159 0)
(1.88208 -0.024247 0)
(1.88353 -0.0213028 0)
(1.88395 -0.0182262 0)
(1.88432 -0.0163243 0)
(1.88616 -0.0164507 0)
(1.88832 -0.0177096 0)
(1.89226 -0.0204385 0)
(1.89809 -0.0237184 0)
(1.90512 -0.0267533 0)
(1.91123 -0.0282095 0)
(1.91559 -0.0277836 0)
(1.91806 -0.0266186 0)
(1.91961 -0.0256193 0)
(1.91976 -0.0227854 0)
(1.91526 -0.0166908 0)
(1.90656 -0.00862752 0)
(1.90023 -0.002719 0)
(1.89925 -0.000631108 0)
(1.90066 -0.000267003 0)
(1.90218 -0.000104201 0)
(1.90468 -0.000114267 0)
(1.91079 -0.00111954 0)
(1.92169 -0.00371234 0)
(1.93436 -0.0087234 0)
(1.94295 -0.0155363 0)
(1.9472 -0.0218858 0)
(1.94942 -0.026572 0)
(1.95089 -0.0298259 0)
(1.95064 -0.0329987 0)
(1.94801 -0.0261826 0)
(1.11311 -0.108574 0)
(1.11599 -0.103912 0)
(1.11733 -0.100293 0)
(1.11802 -0.0988421 0)
(1.1193 -0.0993922 0)
(1.12169 -0.10111 0)
(1.1252 -0.103294 0)
(1.12933 -0.105362 0)
(1.13433 -0.106623 0)
(1.13997 -0.107239 0)
(1.14454 -0.107019 0)
(1.14712 -0.105861 0)
(1.14868 -0.10375 0)
(1.14916 -0.100869 0)
(1.14965 -0.0989919 0)
(1.15188 -0.0995969 0)
(1.15541 -0.101875 0)
(1.16041 -0.105572 0)
(1.16602 -0.110113 0)
(1.17069 -0.113377 0)
(1.17417 -0.114621 0)
(1.17638 -0.114427 0)
(1.17792 -0.112523 0)
(1.17874 -0.109037 0)
(1.17907 -0.105305 0)
(1.18026 -0.102909 0)
(1.1826 -0.102959 0)
(1.1866 -0.104793 0)
(1.19225 -0.107782 0)
(1.19755 -0.110401 0)
(1.20172 -0.111301 0)
(1.20453 -0.111038 0)
(1.20646 -0.109697 0)
(1.20786 -0.107365 0)
(1.20924 -0.104915 0)
(1.21121 -0.102805 0)
(1.21373 -0.100924 0)
(1.21693 -0.0991794 0)
(1.22062 -0.0973899 0)
(1.22422 -0.0957549 0)
(1.22746 -0.0950601 0)
(1.23012 -0.0955027 0)
(1.23236 -0.0966485 0)
(1.2346 -0.0978054 0)
(1.23676 -0.0984081 0)
(1.23856 -0.0982144 0)
(1.23995 -0.0973284 0)
(1.24151 -0.0965217 0)
(1.24358 -0.0963332 0)
(1.24677 -0.0970707 0)
(1.25127 -0.098701 0)
(1.25679 -0.100994 0)
(1.26228 -0.102518 0)
(1.26628 -0.10296 0)
(1.26843 -0.102177 0)
(1.26969 -0.0994276 0)
(1.26904 -0.095074 0)
(1.26676 -0.0903454 0)
(1.26515 -0.0875289 0)
(1.26632 -0.0877935 0)
(1.2689 -0.0896345 0)
(1.27294 -0.0936028 0)
(1.27881 -0.0995144 0)
(1.28773 -0.106485 0)
(1.29576 -0.109314 0)
(1.29966 -0.106779 0)
(1.3019 -0.101439 0)
(1.30296 -0.0950302 0)
(1.30274 -0.088633 0)
(1.30129 -0.0832571 0)
(1.29911 -0.0795953 0)
(1.29712 -0.0775662 0)
(1.29665 -0.0771537 0)
(1.29798 -0.0780891 0)
(1.30024 -0.0797308 0)
(1.30411 -0.0828257 0)
(1.31099 -0.0883754 0)
(1.32054 -0.0944864 0)
(1.32829 -0.0969736 0)
(1.33208 -0.0959289 0)
(1.33394 -0.0937147 0)
(1.33565 -0.0904362 0)
(1.33763 -0.0861674 0)
(1.34 -0.0812169 0)
(1.34283 -0.0763549 0)
(1.34631 -0.0725288 0)
(1.35059 -0.0710334 0)
(1.35793 -0.073889 0)
(1.37001 -0.0806998 0)
(1.38274 -0.0871724 0)
(1.38924 -0.0893866 0)
(1.39171 -0.0894023 0)
(1.39287 -0.0890241 0)
(1.394 -0.0880357 0)
(1.39644 -0.0864632 0)
(1.39954 -0.0840099 0)
(1.40314 -0.0807608 0)
(1.40745 -0.0777503 0)
(1.41265 -0.0758622 0)
(1.41981 -0.0768477 0)
(1.43012 -0.0821127 0)
(1.44091 -0.0878787 0)
(1.44839 -0.090332 0)
(1.45191 -0.0899426 0)
(1.45512 -0.0874407 0)
(1.459 -0.0843516 0)
(1.46359 -0.0812592 0)
(1.46898 -0.0779772 0)
(1.47535 -0.0747441 0)
(1.4827 -0.072168 0)
(1.49098 -0.0711987 0)
(1.50017 -0.0725219 0)
(1.50971 -0.0759467 0)
(1.51826 -0.0796523 0)
(1.52487 -0.0819854 0)
(1.52995 -0.0829869 0)
(1.53474 -0.0833494 0)
(1.53994 -0.0834373 0)
(1.54638 -0.0832425 0)
(1.55505 -0.0829345 0)
(1.56574 -0.0822238 0)
(1.57607 -0.0806039 0)
(1.5823 -0.0790878 0)
(1.58569 -0.0787026 0)
(1.58876 -0.0784196 0)
(1.59093 -0.0779449 0)
(1.59244 -0.0775595 0)
(1.59452 -0.0773399 0)
(1.59725 -0.0773053 0)
(1.60104 -0.0778229 0)
(1.60828 -0.0796872 0)
(1.61788 -0.081722 0)
(1.62744 -0.0824743 0)
(1.63608 -0.0817359 0)
(1.6442 -0.0803711 0)
(1.65193 -0.0793968 0)
(1.65823 -0.0793698 0)
(1.66251 -0.0795013 0)
(1.66649 -0.0790736 0)
(1.66963 -0.0777203 0)
(1.67152 -0.0755447 0)
(1.67241 -0.0731552 0)
(1.67353 -0.07167 0)
(1.67599 -0.0714678 0)
(1.67898 -0.0720791 0)
(1.68428 -0.0737914 0)
(1.69255 -0.0758221 0)
(1.70166 -0.0767642 0)
(1.70914 -0.0760829 0)
(1.71431 -0.0742563 0)
(1.71796 -0.0721967 0)
(1.72134 -0.0707213 0)
(1.72459 -0.0702927 0)
(1.72728 -0.0707381 0)
(1.72985 -0.0720087 0)
(1.7324 -0.0732586 0)
(1.73485 -0.0738069 0)
(1.73719 -0.0738391 0)
(1.73914 -0.0731316 0)
(1.74058 -0.0710514 0)
(1.74225 -0.0672204 0)
(1.74462 -0.0616789 0)
(1.74778 -0.0549712 0)
(1.75176 -0.0487928 0)
(1.75596 -0.045333 0)
(1.76 -0.0454244 0)
(1.76521 -0.0491215 0)
(1.77219 -0.0559343 0)
(1.77816 -0.0647068 0)
(1.78196 -0.0721109 0)
(1.78376 -0.0766869 0)
(1.7852 -0.0796525 0)
(1.78667 -0.0804561 0)
(1.78835 -0.0782873 0)
(1.7908 -0.0705793 0)
(1.79528 -0.0586729 0)
(1.80102 -0.0444987 0)
(1.80492 -0.0321914 0)
(1.80696 -0.0252362 0)
(1.80855 -0.0240424 0)
(1.80998 -0.0272065 0)
(1.81037 -0.0339171 0)
(1.80948 -0.0426977 0)
(1.80847 -0.0518525 0)
(1.80817 -0.0610152 0)
(1.80928 -0.06951 0)
(1.81194 -0.0764736 0)
(1.81541 -0.0805958 0)
(1.81882 -0.0821468 0)
(1.82217 -0.0804338 0)
(1.82443 -0.0734295 0)
(1.82477 -0.0612628 0)
(1.82398 -0.0454318 0)
(1.82346 -0.0295038 0)
(1.82487 -0.0180781 0)
(1.82774 -0.0139055 0)
(1.83136 -0.0150479 0)
(1.8359 -0.0192092 0)
(1.84117 -0.0249904 0)
(1.84867 -0.0328656 0)
(1.85934 -0.0427887 0)
(1.86817 -0.0500651 0)
(1.87187 -0.0524154 0)
(1.87324 -0.0531593 0)
(1.87415 -0.053442 0)
(1.87311 -0.0515609 0)
(1.8685 -0.0456069 0)
(1.8604 -0.036445 0)
(1.85399 -0.029202 0)
(1.8532 -0.0271614 0)
(1.85452 -0.0271771 0)
(1.85635 -0.028121 0)
(1.85979 -0.0300027 0)
(1.86473 -0.0319547 0)
(1.8699 -0.0336264 0)
(1.87388 -0.0349193 0)
(1.87606 -0.0355893 0)
(1.878 -0.0357322 0)
(1.87967 -0.035682 0)
(1.88057 -0.035209 0)
(1.88089 -0.0343448 0)
(1.8813 -0.0334677 0)
(1.88246 -0.0327118 0)
(1.88423 -0.0319886 0)
(1.88625 -0.0310635 0)
(1.88856 -0.0301069 0)
(1.89092 -0.0296001 0)
(1.89329 -0.02951 0)
(1.89575 -0.0294227 0)
(1.89801 -0.0288308 0)
(1.89968 -0.0270322 0)
(1.90048 -0.0237206 0)
(1.90086 -0.0195469 0)
(1.90242 -0.0163022 0)
(1.90468 -0.0146786 0)
(1.90911 -0.0142186 0)
(1.91591 -0.0153428 0)
(1.92337 -0.017237 0)
(1.92867 -0.0192279 0)
(1.93112 -0.0208161 0)
(1.93234 -0.0218582 0)
(1.93283 -0.0230036 0)
(1.93036 -0.022944 0)
(1.92457 -0.0191403 0)
(1.91797 -0.0120813 0)
(1.91387 -0.00528718 0)
(1.91347 -0.00127924 0)
(1.9153 0.000479068 0)
(1.9177 0.00182508 0)
(1.92258 0.00274231 0)
(1.93172 0.000794707 0)
(1.94187 -0.00489415 0)
(1.94927 -0.0117252 0)
(1.95415 -0.0183102 0)
(1.95814 -0.0245357 0)
(1.96023 -0.0298692 0)
(1.96129 -0.0329973 0)
(1.96341 -0.0304814 0)
(1.12687 -0.115904 0)
(1.13042 -0.112967 0)
(1.13205 -0.109162 0)
(1.13149 -0.104339 0)
(1.13011 -0.100206 0)
(1.13066 -0.0987704 0)
(1.13279 -0.0992665 0)
(1.13687 -0.100686 0)
(1.14265 -0.102837 0)
(1.14876 -0.10531 0)
(1.1541 -0.107456 0)
(1.15784 -0.109223 0)
(1.15983 -0.110231 0)
(1.16091 -0.110441 0)
(1.161 -0.108905 0)
(1.16111 -0.106583 0)
(1.16294 -0.105635 0)
(1.1662 -0.106122 0)
(1.17107 -0.107783 0)
(1.17747 -0.109933 0)
(1.1829 -0.11177 0)
(1.18667 -0.113046 0)
(1.18917 -0.113716 0)
(1.19071 -0.113554 0)
(1.19189 -0.111884 0)
(1.19233 -0.109133 0)
(1.19312 -0.106614 0)
(1.19523 -0.105822 0)
(1.19859 -0.106689 0)
(1.20368 -0.108674 0)
(1.20902 -0.110741 0)
(1.21292 -0.111862 0)
(1.21559 -0.111949 0)
(1.21748 -0.111085 0)
(1.21943 -0.109094 0)
(1.22175 -0.106518 0)
(1.22459 -0.103549 0)
(1.22796 -0.100224 0)
(1.23143 -0.0971436 0)
(1.23422 -0.0951222 0)
(1.23598 -0.0945835 0)
(1.2374 -0.0951122 0)
(1.23884 -0.0965686 0)
(1.24083 -0.0980234 0)
(1.24335 -0.0991749 0)
(1.24582 -0.0995529 0)
(1.24763 -0.09889 0)
(1.24911 -0.0972405 0)
(1.25078 -0.0956762 0)
(1.25304 -0.094668 0)
(1.25624 -0.0947748 0)
(1.26058 -0.0963487 0)
(1.26588 -0.0997433 0)
(1.27138 -0.103301 0)
(1.27539 -0.10466 0)
(1.27767 -0.104407 0)
(1.27896 -0.10255 0)
(1.27828 -0.0988526 0)
(1.27564 -0.0939906 0)
(1.27322 -0.0904261 0)
(1.27371 -0.0901069 0)
(1.27594 -0.0915146 0)
(1.28069 -0.094674 0)
(1.28965 -0.0992304 0)
(1.30237 -0.104093 0)
(1.31196 -0.10524 0)
(1.31611 -0.102514 0)
(1.31813 -0.0988066 0)
(1.31863 -0.0945626 0)
(1.31693 -0.089932 0)
(1.31338 -0.0860491 0)
(1.31022 -0.0835253 0)
(1.30903 -0.0820388 0)
(1.3095 -0.0814566 0)
(1.31112 -0.0816861 0)
(1.31389 -0.0828121 0)
(1.31954 -0.0857045 0)
(1.33008 -0.0901844 0)
(1.34299 -0.0941044 0)
(1.35145 -0.0941958 0)
(1.35549 -0.0919355 0)
(1.35823 -0.089674 0)
(1.36118 -0.0877713 0)
(1.36438 -0.0859366 0)
(1.36776 -0.0839887 0)
(1.37141 -0.0819644 0)
(1.37555 -0.0802182 0)
(1.38079 -0.079467 0)
(1.39016 -0.0824492 0)
(1.40368 -0.0890776 0)
(1.41593 -0.093867 0)
(1.42185 -0.0944874 0)
(1.42438 -0.0934539 0)
(1.4271 -0.0916498 0)
(1.43076 -0.0902044 0)
(1.43508 -0.0887739 0)
(1.43974 -0.0871252 0)
(1.44449 -0.0851343 0)
(1.44946 -0.0830693 0)
(1.45504 -0.0817213 0)
(1.46217 -0.0826364 0)
(1.4719 -0.0866672 0)
(1.48211 -0.0910684 0)
(1.48978 -0.0926055 0)
(1.49459 -0.0914884 0)
(1.49898 -0.0892595 0)
(1.50415 -0.0864899 0)
(1.51021 -0.0835291 0)
(1.51694 -0.0807418 0)
(1.524 -0.0785566 0)
(1.53127 -0.0774626 0)
(1.53892 -0.0778292 0)
(1.54714 -0.0797206 0)
(1.55554 -0.0826802 0)
(1.5631 -0.0855383 0)
(1.5694 -0.0875467 0)
(1.57492 -0.0885819 0)
(1.58053 -0.0890201 0)
(1.58694 -0.0891188 0)
(1.59489 -0.0888383 0)
(1.60494 -0.0884402 0)
(1.615 -0.0881013 0)
(1.62006 -0.0879957 0)
(1.62318 -0.0880407 0)
(1.62602 -0.0875551 0)
(1.62798 -0.0864748 0)
(1.62927 -0.0848964 0)
(1.63099 -0.0830329 0)
(1.63355 -0.0811876 0)
(1.63684 -0.0792168 0)
(1.64248 -0.0773144 0)
(1.65106 -0.0762696 0)
(1.66056 -0.0759378 0)
(1.66922 -0.0762731 0)
(1.67648 -0.077713 0)
(1.68239 -0.0804203 0)
(1.68756 -0.0837712 0)
(1.69228 -0.0867146 0)
(1.69632 -0.0882934 0)
(1.69981 -0.0885234 0)
(1.70248 -0.087634 0)
(1.70356 -0.0852374 0)
(1.70347 -0.0814967 0)
(1.70408 -0.0778145 0)
(1.70656 -0.0754175 0)
(1.71016 -0.0737106 0)
(1.71733 -0.0724129 0)
(1.7271 -0.0715247 0)
(1.73545 -0.0707485 0)
(1.74043 -0.070384 0)
(1.74311 -0.0705304 0)
(1.74511 -0.0710107 0)
(1.74718 -0.0719729 0)
(1.7492 -0.0734454 0)
(1.75141 -0.074665 0)
(1.75376 -0.0755046 0)
(1.75617 -0.0760541 0)
(1.75859 -0.0762022 0)
(1.76094 -0.0757764 0)
(1.76349 -0.0741386 0)
(1.76665 -0.0705433 0)
(1.77019 -0.0651934 0)
(1.77321 -0.059586 0)
(1.77532 -0.054775 0)
(1.77623 -0.050936 0)
(1.77674 -0.0490787 0)
(1.77863 -0.0496701 0)
(1.78131 -0.0531719 0)
(1.78628 -0.0590181 0)
(1.79235 -0.0657392 0)
(1.79743 -0.0710462 0)
(1.8013 -0.0733201 0)
(1.80489 -0.073295 0)
(1.80942 -0.0708144 0)
(1.8154 -0.0654556 0)
(1.82203 -0.0575464 0)
(1.82628 -0.0503291 0)
(1.82827 -0.0452473 0)
(1.82835 -0.0396949 0)
(1.82547 -0.0353233 0)
(1.82216 -0.0348668 0)
(1.81987 -0.0379308 0)
(1.81831 -0.0433003 0)
(1.81675 -0.0504487 0)
(1.81637 -0.0574431 0)
(1.81788 -0.0628316 0)
(1.82097 -0.0682291 0)
(1.82564 -0.0744239 0)
(1.83125 -0.0785521 0)
(1.838 -0.0786796 0)
(1.84428 -0.0736855 0)
(1.84898 -0.0643022 0)
(1.85184 -0.0523548 0)
(1.85282 -0.0394867 0)
(1.85031 -0.0263545 0)
(1.84486 -0.0164924 0)
(1.84368 -0.0144346 0)
(1.84572 -0.0160603 0)
(1.84968 -0.0196739 0)
(1.85537 -0.0250894 0)
(1.86316 -0.0329851 0)
(1.87326 -0.0428607 0)
(1.88186 -0.0511824 0)
(1.88539 -0.0545583 0)
(1.88663 -0.0556674 0)
(1.88768 -0.05592 0)
(1.88696 -0.0542281 0)
(1.88286 -0.0483556 0)
(1.87532 -0.0387123 0)
(1.8689 -0.0304073 0)
(1.86779 -0.0269181 0)
(1.86924 -0.0259266 0)
(1.87097 -0.0255185 0)
(1.87429 -0.0264561 0)
(1.87919 -0.028772 0)
(1.8841 -0.0312777 0)
(1.88767 -0.0331726 0)
(1.88991 -0.0343643 0)
(1.89173 -0.0351318 0)
(1.89331 -0.0356637 0)
(1.89449 -0.0356432 0)
(1.8956 -0.0347565 0)
(1.89718 -0.0333458 0)
(1.89906 -0.0317037 0)
(1.90094 -0.0302081 0)
(1.90282 -0.0295176 0)
(1.90486 -0.0297069 0)
(1.90725 -0.030296 0)
(1.90987 -0.0309783 0)
(1.91281 -0.0315634 0)
(1.91581 -0.0314794 0)
(1.91851 -0.0296303 0)
(1.92048 -0.0248245 0)
(1.92185 -0.0182269 0)
(1.92353 -0.0119604 0)
(1.92614 -0.00763143 0)
(1.92981 -0.00586516 0)
(1.93487 -0.00722273 0)
(1.9396 -0.0105884 0)
(1.94201 -0.01404 0)
(1.94308 -0.0167226 0)
(1.94361 -0.0194255 0)
(1.94274 -0.0220282 0)
(1.94009 -0.0230731 0)
(1.93686 -0.0205441 0)
(1.93356 -0.0148275 0)
(1.93096 -0.00812128 0)
(1.93086 -0.00312863 0)
(1.93315 -0.000922397 0)
(1.93625 0.000122419 0)
(1.94184 -0.000220028 0)
(1.94955 -0.00309571 0)
(1.95658 -0.00780367 0)
(1.96122 -0.0132863 0)
(1.96501 -0.0182116 0)
(1.96916 -0.0236281 0)
(1.97327 -0.0270485 0)
(1.97832 -0.0243904 0)
(1.13805 -0.117353 0)
(1.14258 -0.117875 0)
(1.14514 -0.116943 0)
(1.14618 -0.11383 0)
(1.14489 -0.108598 0)
(1.14282 -0.102829 0)
(1.14303 -0.0990686 0)
(1.14505 -0.0979215 0)
(1.14902 -0.0985458 0)
(1.1549 -0.100915 0)
(1.16019 -0.104956 0)
(1.16424 -0.109601 0)
(1.16756 -0.113438 0)
(1.17001 -0.11584 0)
(1.17171 -0.117076 0)
(1.17304 -0.116268 0)
(1.17436 -0.113426 0)
(1.17671 -0.1104 0)
(1.18055 -0.108115 0)
(1.18548 -0.107514 0)
(1.19053 -0.108566 0)
(1.19473 -0.110322 0)
(1.198 -0.112366 0)
(1.20069 -0.114214 0)
(1.20271 -0.115499 0)
(1.20447 -0.115343 0)
(1.20569 -0.113243 0)
(1.20669 -0.110528 0)
(1.20858 -0.108487 0)
(1.21141 -0.107971 0)
(1.21527 -0.108893 0)
(1.21931 -0.110198 0)
(1.22277 -0.111026 0)
(1.22572 -0.110923 0)
(1.22847 -0.10982 0)
(1.23145 -0.107575 0)
(1.23498 -0.104205 0)
(1.23862 -0.100369 0)
(1.24125 -0.0976297 0)
(1.24284 -0.0964503 0)
(1.24375 -0.0959164 0)
(1.24406 -0.0960491 0)
(1.24488 -0.0968309 0)
(1.24653 -0.0977197 0)
(1.24888 -0.098926 0)
(1.2521 -0.099848 0)
(1.25521 -0.0995357 0)
(1.25728 -0.0979947 0)
(1.25892 -0.0957523 0)
(1.26061 -0.0938613 0)
(1.26247 -0.0931253 0)
(1.26492 -0.0937363 0)
(1.2687 -0.0961886 0)
(1.27422 -0.100073 0)
(1.28048 -0.104466 0)
(1.28474 -0.10633 0)
(1.28716 -0.106355 0)
(1.28841 -0.10518 0)
(1.28769 -0.102073 0)
(1.28538 -0.09725 0)
(1.28377 -0.092579 0)
(1.28474 -0.089967 0)
(1.28772 -0.0895143 0)
(1.29478 -0.0914014 0)
(1.30849 -0.0955993 0)
(1.32301 -0.100367 0)
(1.33117 -0.102377 0)
(1.33434 -0.101953 0)
(1.33573 -0.101241 0)
(1.33477 -0.0999063 0)
(1.33119 -0.0980054 0)
(1.32791 -0.0960203 0)
(1.32722 -0.0940411 0)
(1.32836 -0.0919029 0)
(1.33044 -0.0897283 0)
(1.33341 -0.0879773 0)
(1.33842 -0.0869452 0)
(1.34838 -0.0877895 0)
(1.36263 -0.0905118 0)
(1.37563 -0.0925468 0)
(1.38307 -0.0918807 0)
(1.38685 -0.0902756 0)
(1.39018 -0.0893657 0)
(1.3939 -0.0890383 0)
(1.39812 -0.0891296 0)
(1.40284 -0.0893874 0)
(1.40793 -0.0895011 0)
(1.41371 -0.0894726 0)
(1.42148 -0.0899058 0)
(1.43283 -0.0925424 0)
(1.44657 -0.0973621 0)
(1.4577 -0.0999512 0)
(1.46283 -0.098822 0)
(1.46616 -0.0969374 0)
(1.47016 -0.0953273 0)
(1.47478 -0.0941389 0)
(1.47986 -0.0933033 0)
(1.48514 -0.0925737 0)
(1.49035 -0.0916308 0)
(1.49558 -0.0904445 0)
(1.50139 -0.0894488 0)
(1.5089 -0.0897081 0)
(1.51846 -0.0916017 0)
(1.52812 -0.0933865 0)
(1.53558 -0.0932949 0)
(1.54107 -0.0916528 0)
(1.54632 -0.0895258 0)
(1.55222 -0.0874962 0)
(1.55863 -0.0861201 0)
(1.56526 -0.0854437 0)
(1.572 -0.0852048 0)
(1.57882 -0.0853169 0)
(1.58598 -0.0861404 0)
(1.59352 -0.0876274 0)
(1.60089 -0.0891576 0)
(1.60758 -0.0904357 0)
(1.61366 -0.0912392 0)
(1.61956 -0.0912979 0)
(1.62558 -0.0906811 0)
(1.63241 -0.0900786 0)
(1.64098 -0.0903286 0)
(1.65001 -0.0919398 0)
(1.65496 -0.0932063 0)
(1.65768 -0.0935128 0)
(1.66026 -0.0935861 0)
(1.66232 -0.0930704 0)
(1.66406 -0.091497 0)
(1.66619 -0.0888076 0)
(1.66887 -0.0851318 0)
(1.67226 -0.0806611 0)
(1.67705 -0.0759262 0)
(1.68358 -0.0718281 0)
(1.69072 -0.0698093 0)
(1.69729 -0.0705723 0)
(1.70268 -0.0735023 0)
(1.70728 -0.0776795 0)
(1.71183 -0.0824744 0)
(1.71652 -0.0873614 0)
(1.72113 -0.0917131 0)
(1.72486 -0.0944937 0)
(1.72778 -0.0952824 0)
(1.73029 -0.0946858 0)
(1.73149 -0.0919778 0)
(1.73231 -0.0871767 0)
(1.73428 -0.0815142 0)
(1.73779 -0.0760641 0)
(1.74388 -0.0709198 0)
(1.75154 -0.0666296 0)
(1.75802 -0.0652686 0)
(1.76168 -0.0659981 0)
(1.76342 -0.0671604 0)
(1.76497 -0.0687728 0)
(1.76639 -0.0710153 0)
(1.76816 -0.0731202 0)
(1.77033 -0.0746323 0)
(1.77268 -0.0756724 0)
(1.77516 -0.0761955 0)
(1.7778 -0.0760688 0)
(1.78084 -0.0749019 0)
(1.78455 -0.0724871 0)
(1.78857 -0.0693791 0)
(1.79202 -0.0666821 0)
(1.79441 -0.0649282 0)
(1.79636 -0.0630961 0)
(1.79665 -0.0607497 0)
(1.79547 -0.0582722 0)
(1.79466 -0.0563477 0)
(1.79599 -0.0558383 0)
(1.79889 -0.0565982 0)
(1.80321 -0.058747 0)
(1.80961 -0.0611123 0)
(1.81621 -0.0615292 0)
(1.82253 -0.0595185 0)
(1.82969 -0.0558516 0)
(1.83748 -0.0527384 0)
(1.84322 -0.0521309 0)
(1.84611 -0.0528019 0)
(1.8479 -0.0535606 0)
(1.84751 -0.0541631 0)
(1.84383 -0.0530943 0)
(1.83797 -0.0502595 0)
(1.83146 -0.0478517 0)
(1.82653 -0.0478435 0)
(1.82397 -0.0497007 0)
(1.82399 -0.0522197 0)
(1.82499 -0.0545103 0)
(1.82712 -0.0575848 0)
(1.83193 -0.0613448 0)
(1.84094 -0.065307 0)
(1.85222 -0.0669988 0)
(1.86281 -0.064701 0)
(1.87002 -0.0599669 0)
(1.87351 -0.055546 0)
(1.87568 -0.0512947 0)
(1.87555 -0.0445252 0)
(1.86944 -0.0338242 0)
(1.86019 -0.0225574 0)
(1.85691 -0.0177494 0)
(1.85893 -0.0183483 0)
(1.86278 -0.0214124 0)
(1.86954 -0.0263254 0)
(1.87801 -0.0335164 0)
(1.88789 -0.0425243 0)
(1.89582 -0.049505 0)
(1.89932 -0.0520812 0)
(1.90051 -0.0531213 0)
(1.90161 -0.0533143 0)
(1.90147 -0.0520901 0)
(1.89804 -0.0473542 0)
(1.89093 -0.0387661 0)
(1.88481 -0.0308348 0)
(1.88388 -0.0269258 0)
(1.88559 -0.0252759 0)
(1.88768 -0.0242094 0)
(1.89022 -0.0243301 0)
(1.89424 -0.026519 0)
(1.899 -0.0294705 0)
(1.90288 -0.0314072 0)
(1.90546 -0.0322989 0)
(1.90747 -0.0327341 0)
(1.90926 -0.03298 0)
(1.91102 -0.0330151 0)
(1.91277 -0.0328921 0)
(1.91459 -0.032717 0)
(1.91623 -0.0325588 0)
(1.91756 -0.0325351 0)
(1.9192 -0.0324421 0)
(1.92143 -0.032308 0)
(1.92395 -0.0323064 0)
(1.92676 -0.0322985 0)
(1.93111 -0.0314964 0)
(1.93629 -0.0285431 0)
(1.94026 -0.0237869 0)
(1.94252 -0.0181461 0)
(1.94389 -0.0115799 0)
(1.94422 -0.00490476 0)
(1.94452 -0.000314176 0)
(1.94582 0.000542865 0)
(1.94797 -0.00185153 0)
(1.9512 -0.00697992 0)
(1.95267 -0.0122634 0)
(1.95329 -0.017505 0)
(1.95331 -0.0221168 0)
(1.95291 -0.0249576 0)
(1.95251 -0.0257978 0)
(1.95236 -0.023939 0)
(1.95165 -0.0191557 0)
(1.95032 -0.0123813 0)
(1.95014 -0.00605984 0)
(1.9522 -0.00214567 0)
(1.95497 -0.000302153 0)
(1.95925 -0.000358276 0)
(1.96493 -0.00246216 0)
(1.96982 -0.00559609 0)
(1.97397 -0.00843036 0)
(1.97882 -0.0111536 0)
(1.98404 -0.0129607 0)
(1.99333 -0.0130794 0)
(1.14667 -0.114057 0)
(1.1531 -0.116921 0)
(1.15606 -0.118424 0)