/*--------------------------------*- C++ -*----------------------------------*\
  =========                 |
  \\      /  F ield         | OpenFOAM: The Open Source CFD Toolbox
   \\    /   O peration     | Website:  https://openfoam.org
    \\  /    A nd           | Version:  7
     \\/     M anipulation  |
\*---------------------------------------------------------------------------*/
FoamFile
{
    version     2.0;
    format      ascii;
    class       volVectorField;
    location    "0.3";
    object      U;
}
// * * * * * * * * * * * * * * * * * * * * * * * * * * * * * * * * * * * * * //

dimensions      [0 1 -1 0 0 0 0];

internalField   nonuniform List<vector> 
4128
(
(3 -1.75958e-16 0)
(3 -4.10813e-17 0)
(3 3.5373e-16 0)
(3 7.93819e-16 0)
(3 5.46857e-16 0)
(3 8.5083e-16 0)
(3 1.57802e-15 0)
(3 1.94233e-15 0)
(3 2.03105e-15 0)
(3 1.70552e-15 0)
(3 2.06739e-15 0)
(3 2.5641e-15 0)
(3 1.32527e-15 0)
(3 6.00012e-16 0)
(3 2.39462e-17 0)
(3 -5.08276e-16 0)
(3 -1.65306e-15 0)
(3 -1.44097e-15 0)
(3 -1.31865e-15 0)
(3 -1.90445e-15 0)
(3 -2.25077e-15 0)
(3 -3.78304e-15 0)
(3 -4.11503e-15 0)
(3 -4.47768e-15 0)
(3 -3.97174e-15 0)
(3 -2.3136e-15 0)
(3 -1.92674e-15 0)
(3 -8.67361e-16 0)
(3 -2.93303e-15 0)
(3 -3.03829e-15 0)
(3 -1.80578e-15 0)
(3 -6.5159e-16 0)
(3 -1.25086e-15 0)
(3 -3.44163e-15 0)
(3 -3.73637e-15 0)
(3 -2.89e-15 0)
(3 -2.7306e-15 0)
(3 -1.56735e-15 0)
(3 -1.6539e-15 0)
(3 -6.13256e-16 0)
(3 3.08791e-15 0)
(3 4.14581e-15 0)
(3 2.53784e-15 0)
(3 -2.64226e-16 0)
(3 -6.54087e-16 0)
(3 -1.23565e-15 0)
(3 -1.60932e-15 0)
(3 -1.66266e-15 0)
(3 -8.5147e-16 0)
(3 -1.51793e-16 0)
(3 -1.46621e-15 0)
(3 -1.60656e-15 0)
(3 -1.75484e-15 0)
(3 -1.48198e-15 0)
(3 -9.21791e-16 0)
(3 3.15586e-17 0)
(3 6.25341e-16 0)
(3 1.17692e-15 0)
(3 7.34163e-16 0)
(3 9.91766e-16 0)
(3 3.61245e-16 0)
(3 -5.30087e-16 0)
(3 -6.04943e-16 0)
(3 -1.61293e-15 0)
(3 2.99443e-16 0)
(3 6.3325e-16 0)
(3 6.50229e-16 0)
(3 8.08999e-16 0)
(3 8.90966e-16 0)
(3 1.21855e-15 0)
(3 9.88711e-16 0)
(3 6.15703e-16 0)
(3 5.1903e-16 0)
(3 -6.93617e-17 0)
(3 -1.74373e-16 0)
(3 -4.43665e-16 0)
(3 1.44487e-16 0)
(3 5.27693e-16 0)
(3 1.34666e-15 0)
(3 2.43261e-15 0)
(3 1.84702e-15 0)
(3 9.78413e-16 0)
(3 1.16094e-15 0)
(3 1.29138e-15 0)
(3 9.46831e-16 0)
(3 7.73889e-16 0)
(3 6.3821e-16 0)
(3 6.65295e-16 0)
(3 8.09149e-16 0)
(3 5.56535e-16 0)
(3 1.62363e-16 0)
(3 4.21305e-16 0)
(3 3.15756e-16 0)
(3 9.03398e-16 0)
(3 9.53376e-16 0)
(3 -3.41526e-16 0)
(3 -1.65359e-15 0)
(3 -1.02562e-15 0)
(3 -3.83438e-16 0)
(3 1.08803e-16 0)
(3 6.13102e-16 0)
(3 1.62364e-15 0)
(3 2.09034e-15 0)
(3 1.46863e-15 0)
(3 2.2856e-16 0)
(3 5.55473e-16 0)
(3 1.9554e-15 0)
(3 2.7084e-15 0)
(3 1.81935e-15 0)
(3 -2.88697e-16 0)
(3 -8.47637e-16 0)
(3 -7.59239e-16 0)
(3 -5.5265e-16 0)
(3 -9.74486e-16 0)
(3 -1.35034e-15 0)
(3 -9.14595e-16 0)
(3 -1.2594e-15 0)
(3 -2.52141e-15 0)
(3 -2.88213e-15 0)
(3 -3.10422e-15 0)
(3 -3.34438e-15 0)
(3 -4.57697e-15 0)
(3 -4.11122e-15 0)
(3 -4.37535e-15 0)
(3 -3.86565e-15 0)
(3 -3.17772e-15 0)
(3 -3.26881e-15 0)
(3 -2.78715e-15 0)
(3 -2.09407e-15 0)
(3 -2.32885e-15 0)
(3 -2.98219e-15 0)
(3 -3.0585e-15 0)
(3 -3.02843e-15 0)
(3 -3.66805e-15 0)
(3 -2.62258e-15 0)
(3 -1.24081e-15 0)
(3 1.57318e-15 0)
(3 2.06727e-15 0)
(3 6.32959e-16 0)
(3 3.40733e-17 0)
(3 -2.30363e-16 0)
(3 -5.34166e-16 0)
(3 -6.96787e-16 0)
(3 -1.58745e-15 0)
(3 -2.16222e-15 0)
(3 -1.40334e-15 0)
(3 -9.84194e-16 0)
(3 -1.06022e-15 0)
(3 -1.45009e-15 0)
(3 -3.36629e-16 0)
(3 2.33381e-16 0)
(3 1.26087e-15 0)
(3 2.32628e-16 0)
(3 -3.67994e-16 0)
(3 3.31405e-16 0)
(3 1.23642e-15 0)
(3 1.01165e-15 0)
(3 3.6567e-16 0)
(3 3.5163e-16 0)
(3 -6.82556e-16 0)
(3 1.92999e-16 0)
(3 3.28694e-17 0)
(3 -4.28572e-17 0)
(3 1.29074e-15 0)
(3 1.41086e-15 0)
(3 7.84478e-16 0)
(3 -1.31457e-16 0)
(3 -4.03851e-16 0)
(3 -5.79592e-16 0)
(3 -7.25648e-16 0)
(3 7.87551e-17 0)
(3 5.58932e-16 0)
(3 1.9712e-16 0)
(3 1.90872e-16 0)
(3 8.10029e-16 0)
(3 1.88844e-16 0)
(3 5.29984e-16 0)
(3 -8.87371e-17 0)
(3 1.10778e-16 0)
(3 3.85583e-17 0)
(3 4.79979e-16 0)
(3 4.21239e-16 0)
(3 -3.23513e-16 0)
(3 -4.67804e-16 0)
(3 -1.43355e-16 0)
(3 -8.14986e-16 0)
(3 -6.81593e-16 0)
(3 -2.39873e-16 0)
(3 2.27523e-16 0)
(3 -5.84449e-16 0)
(3 -9.65178e-16 0)
(3 -1.9239e-15 0)
(3 -1.23915e-15 0)
(3 -1.21384e-15 0)
(3 -1.11736e-15 0)
(3 -3.8654e-16 0)
(3 1.01821e-15 0)
(3 5.45627e-16 0)
(3 6.04155e-16 0)
(3 1.04934e-15 0)
(3 6.74984e-16 0)
(3 1.17001e-15 0)
(3 1.92054e-15 0)
(3 2.38218e-15 0)
(3 2.75271e-15 0)
(3 2.53123e-15 0)
(3 2.03546e-15 0)
(3 1.46591e-15 0)
(3 1.50188e-15 0)
(3 5.14431e-16 0)
(3 -1.39926e-15 0)
(3 -2.09386e-15 0)
(3 -2.81881e-15 0)
(3 -2.79462e-15 0)
(3 -2.57746e-15 0)
(3 -1.64028e-15 0)
(3 -1.8737e-15 0)
(3 -2.94291e-15 0)
(3 -3.5068e-15 0)
(3 -3.6934e-15 0)
(3 -2.95208e-15 0)
(3 -1.73068e-15 0)
(3 -1.79146e-15 0)
(3 -2.20085e-15 0)
(3 -1.73104e-15 0)
(3 -1.41517e-15 0)
(3 -7.91957e-16 0)
(3 -7.77655e-16 0)
(3 -6.38155e-16 0)
(3 -5.91284e-16 0)
(3 -6.05701e-16 0)
(3 2.31885e-16 0)
(3 -5.36466e-16 0)
(3 1.10467e-16 0)
(3 1.43097e-15 0)
(3 1.21126e-15 0)
(3 5.88986e-17 0)
(3 -3.08412e-16 0)
(3 -4.12127e-16 0)
(3 -5.75833e-16 0)
(3 -1.45153e-15 0)
(3 -1.7578e-15 0)
(3 -1.72503e-15 0)
(3 -1.16876e-15 0)
(3 -9.5947e-16 0)
(3 8.58565e-16 0)
(3 2.15649e-15 0)
(3 1.77838e-15 0)
(3 1.44015e-15 0)
(3 7.11693e-16 0)
(3 4.40924e-16 0)
(3 2.6872e-16 0)
(3 5.59087e-16 0)
(3 1.43773e-15 0)
(3 9.53075e-16 0)
(3 3.84726e-16 0)
(3 1.38908e-16 0)
(3 -1.32217e-16 0)
(3 -2.2208e-17 0)
(3 3.16896e-16 0)
(3 3.15072e-16 0)
(3 1.96187e-16 0)
(3 1.41575e-16 0)
(3 -1.52159e-15 0)
(3 -1.95851e-15 0)
(3 -8.27216e-16 0)
(3 -6.70169e-16 0)
(3 -9.46336e-16 0)
(3 -2.2188e-15 0)
(3 -1.73187e-15 0)
(3 -1.31604e-15 0)
(3 -1.57309e-15 0)
(3 -1.16796e-15 0)
(3 -1.06963e-15 0)
(3 -8.33316e-16 0)
(3 9.40697e-16 0)
(3 1.75454e-15 0)
(3 -6.8148e-16 0)
(3 -1.23193e-15 0)
(3 -9.45595e-16 0)
(3 -4.50513e-16 0)
(3 -4.40836e-16 0)
(3 -4.11647e-16 0)
(3 -1.59763e-16 0)
(3 2.11552e-16 0)
(3 -1.16133e-16 0)
(3 -1.09635e-15 0)
(3 -1.40102e-15 0)
(3 -6.72808e-16 0)
(3 -1.45679e-15 0)
(3 -1.61124e-15 0)
(3 -1.58678e-15 0)
(3 -1.19041e-15 0)
(3 -1.65907e-15 0)
(3 -1.68494e-15 0)
(3 -1.57211e-17 0)
(3 1.68014e-15 0)
(3 1.35237e-15 0)
(3 6.78693e-16 0)
(3 6.57451e-16 0)
(3 1.76093e-15 0)
(3 3.11361e-15 0)
(3 3.50751e-15 0)
(3 2.66897e-15 0)
(3 1.97928e-15 0)
(3 1.92186e-15 0)
(3 1.7051e-15 0)
(3 -9.99966e-16 0)
(3 -2.50189e-15 0)
(3 -2.38978e-15 0)
(3 -2.06815e-15 0)
(3 -1.92779e-15 0)
(3 -2.25387e-15 0)
(3 -2.98058e-15 0)
(3 -3.00936e-15 0)
(3 -1.89961e-15 0)
(3 -1.52982e-15 0)
(3 -2.19514e-15 0)
(3 -2.21598e-15 0)
(3 -2.39835e-15 0)
(3 -1.78145e-15 0)
(3 -8.53024e-16 0)
(3 -9.49073e-16 0)
(3 -9.45499e-16 0)
(3 -1.19866e-15 0)
(3 -6.79542e-16 0)
(3 -5.17634e-16 0)
(3 -8.55286e-16 0)
(3 -2.03987e-15 0)
(3 -2.69923e-16 0)
(3 1.72285e-15 0)
(3 1.92435e-15 0)
(3 1.49056e-15 0)
(3 3.23406e-16 0)
(3 -8.63182e-17 0)
(3 1.79702e-16 0)
(3 -2.58022e-16 0)
(3 -9.07519e-16 0)
(3 -1.85419e-15 0)
(3 -1.67446e-15 0)
(3 2.34535e-16 0)
(3 2.48913e-16 0)
(3 1.40666e-15 0)
(3 1.54114e-15 0)
(3 2.47253e-15 0)
(3 1.30671e-15 0)
(3 1.41612e-15 0)
(3 1.15066e-15 0)
(3 1.18988e-15 0)
(3 1.01517e-15 0)
(3 1.94355e-15 0)
(3 1.23661e-15 0)
(3 -3.78892e-16 0)
(3 -7.1335e-16 0)
(3 -6.76688e-16 0)
(3 -1.7299e-15 0)
(3 -2.39991e-15 0)
(3 -1.59991e-15 0)
(3 -7.52008e-16 0)
(3 -6.66357e-16 0)
(3 -2.58405e-16 0)
(3 2.22981e-16 0)
(3 3.43561e-16 0)
(3 -2.90131e-16 0)
(3 -1.14025e-15 0)
(3 -1.09724e-15 0)
(3 -1.39485e-15 0)
(3 -9.95095e-16 0)
(3 -7.65255e-16 0)
(3 2.16299e-16 0)
(3 5.1426e-16 0)
(3 1.29865e-15 0)
(3 1.46199e-15 0)
(3 -1.19932e-15 0)
(3 -1.37161e-15 0)
(3 -1.48855e-15 0)
(3 -1.37771e-15 0)
(3 -5.90369e-16 0)
(3 -8.60417e-16 0)
(3 -1.22831e-15 0)
(3 -1.6998e-15 0)
(3 -1.29504e-15 0)
(3 -1.04928e-15 0)
(3 8.2896e-16 0)
(3 -2.31946e-16 0)
(3 -8.00203e-16 0)
(3 -2.22613e-16 0)
(3 -1.15942e-15 0)
(3 -1.67414e-15 0)
(3 -1.47542e-15 0)
(3 -2.50908e-16 0)
(3 8.54985e-16 0)
(3 9.04478e-16 0)
(3 7.13926e-17 0)
(3 -7.60774e-16 0)
(3 -4.65673e-16 0)
(3 -6.98021e-17 0)
(3 7.12083e-16 0)
(3 8.08783e-16 0)
(3 1.92711e-16 0)
(3 -7.24922e-17 0)
(3 4.49571e-16 0)
(3 1.4652e-15 0)
(3 -2.18245e-16 0)
(3 -8.98282e-16 0)
(3 -8.81627e-17 0)
(3 -5.06466e-16 0)
(3 -1.00528e-15 0)
(3 -1.44542e-15 0)
(3 -1.50127e-15 0)
(3 -2.08278e-15 0)
(3 -2.9578e-15 0)
(3 -2.83733e-15 0)
(3 -2.89844e-15 0)
(3 -2.46171e-15 0)
(3 -2.22679e-15 0)
(3 -2.57279e-15 0)
(3 -2.23802e-15 0)
(3 -2.25241e-15 0)
(3 -1.75491e-15 0)
(3 -1.33431e-15 0)
(3 -1.09229e-15 0)
(3 -1.11745e-15 0)
(3 -1.42252e-15 0)
(3 -7.78639e-16 0)
(3 1.69876e-17 0)
(3 2.16197e-16 0)
(3 5.30358e-17 0)
(3 2.46326e-16 0)
(3 3.11264e-16 0)
(3 6.93753e-17 0)
(3 -3.3568e-16 0)
(3 -1.39104e-16 0)
(3 -5.17554e-16 0)
(3 -1.36573e-15 0)
(3 -1.65499e-15 0)
(3 -2.35165e-16 0)
(3 1.13047e-15 0)
(3 1.2254e-15 0)
(3 1.06642e-15 0)
(3 4.47035e-16 0)
(3 1.4435e-15 0)
(3 1.77127e-15 0)
(3 2.1538e-15 0)
(3 2.28003e-15 0)
(3 2.04267e-15 0)
(3 2.68432e-15 0)
(3 2.04503e-15 0)
(3 -4.94739e-16 0)
(3 -8.54393e-17 0)
(3 -2.1088e-16 0)
(3 -8.72027e-16 0)
(3 -1.72999e-15 0)
(3 -1.05311e-15 0)
(3 -6.40806e-16 0)
(3 1.9131e-16 0)
(3 3.0079e-16 0)
(3 2.14618e-16 0)
(3 1.83764e-17 0)
(3 2.41031e-18 0)
(3 5.61935e-16 0)
(3 9.14797e-16 0)
(3 6.67815e-16 0)
(3 6.59918e-18 0)
(3 -2.05951e-16 0)
(3 -2.50469e-16 0)
(3 -2.65211e-17 0)
(3 -8.56649e-17 0)
(3 3.16794e-16 0)
(3 3.55992e-16 0)
(3 2.14372e-16 0)
(3 -1.07908e-15 0)
(3 -2.66083e-15 0)
(3 -2.73485e-15 0)
(3 -2.84798e-15 0)
(3 -2.42146e-15 0)
(3 -1.88235e-15 0)
(3 -1.92692e-15 0)
(3 7.26233e-17 0)
(3 2.04902e-15 0)
(3 1.56218e-15 0)
(3 6.99298e-16 0)
(3 7.26932e-16 0)
(3 6.55759e-16 0)
(3 -9.5651e-17 0)
(3 8.86052e-17 0)
(3 6.73701e-16 0)
(3 1.1229e-15 0)
(3 1.20694e-15 0)
(3 8.79924e-17 0)
(3 1.74339e-16 0)
(3 -1.69411e-16 0)
(3 -6.63015e-16 0)
(3 -2.37289e-17 0)
(3 -6.03234e-16 0)
(3 -1.12317e-15 0)
(3 -4.90506e-16 0)
(3 4.41514e-16 0)
(3 2.46606e-16 0)
(3 -5.08833e-16 0)
(3 -1.07087e-15 0)
(3 -6.98976e-16 0)
(3 -5.92578e-16 0)
(3 -4.29399e-16 0)
(3 -6.65514e-16 0)
(3 -5.85823e-17 0)
(3 -6.83089e-16 0)
(3 -2.09343e-15 0)
(3 -3.81202e-15 0)
(3 -3.26727e-15 0)
(3 -1.74423e-15 0)
(3 -1.55588e-15 0)
(3 -2.40176e-15 0)
(3 -2.17983e-15 0)
(3 -1.6188e-15 0)
(3 5.67774e-16 0)
(3 5.70923e-16 0)
(3 -1.57502e-16 0)
(3 -1.09271e-15 0)
(3 -1.07418e-15 0)
(3 -4.51153e-16 0)
(3 -1.05009e-15 0)
(3 -1.34874e-15 0)
(3 -4.64705e-16 0)
(3 1.50794e-16 0)
(3 -2.17745e-16 0)
(3 -7.07793e-16 0)
(3 -2.53863e-16 0)
(3 -7.83875e-17 0)
(3 -2.71505e-16 0)
(3 1.76244e-16 0)
(3 -3.69414e-16 0)
(3 8.29698e-16 0)
(3 1.71083e-15 0)
(3 9.75045e-16 0)
(3 5.47295e-16 0)
(3 6.09244e-16 0)
(3 2.00389e-15 0)
(3 2.10578e-15 0)
(3 2.58913e-15 0)
(3 3.32255e-15 0)
(3 3.49657e-15 0)
(3 2.69192e-15 0)
(3 2.73139e-15 0)
(3 1.25007e-16 0)
(3 1.01311e-15 0)
(3 1.27936e-15 0)
(3 1.28556e-15 0)
(3 1.35832e-15 0)
(3 1.06459e-15 0)
(3 7.42182e-16 0)
(3 5.37246e-16 0)
(3 3.76127e-16 0)
(3 -4.36789e-16 0)
(3 -3.64251e-16 0)
(3 -3.50984e-16 0)
(3 -4.33088e-16 0)
(3 -2.9919e-16 0)
(3 1.64604e-16 0)
(3 1.08521e-15 0)
(3 1.33809e-15 0)
(3 5.62833e-16 0)
(3 -3.05598e-16 0)
(3 -5.06813e-16 0)
(3 2.68128e-16 0)
(3 2.12735e-15 0)
(3 1.19362e-15 0)
(3 3.60119e-16 0)
(3 -1.09289e-15 0)
(3 -1.62861e-15 0)
(3 -1.86143e-15 0)
(3 -1.72113e-15 0)
(3 -1.56961e-15 0)
(3 -3.50843e-16 0)
(3 7.38418e-16 0)
(3 1.43547e-15 0)
(3 2.08665e-15 0)
(3 2.61077e-15 0)
(3 1.43252e-15 0)
(3 1.85072e-15 0)
(3 1.70196e-15 0)
(3 2.25377e-15 0)
(3 1.61512e-15 0)
(3 4.72134e-16 0)
(3 1.01757e-15 0)
(3 5.57479e-16 0)
(3 5.82869e-16 0)
(3 -2.53583e-17 0)
(3 3.53884e-16 0)
(3 7.14235e-16 0)
(3 8.54989e-16 0)
(3 1.29782e-15 0)
(3 9.37562e-16 0)
(3 8.75362e-16 0)
(3 1.00325e-15 0)
(3 7.18236e-16 0)
(3 4.88412e-16 0)
(3 1.20413e-16 0)
(3 -9.45676e-17 0)
(3 -6.9976e-16 0)
(3 -1.86227e-16 0)
(3 5.22546e-16 0)
(3 3.70276e-16 0)
(3 -9.72069e-17 0)
(3 -9.64851e-16 0)
(3 -1.50164e-15 0)
(3 -1.67424e-15 0)
(3 -1.54731e-15 0)
(3 -1.69331e-15 0)
(3 -1.58071e-15 0)
(3 -3.73907e-16 0)
(3 5.00852e-17 0)
(3 9.65196e-17 0)
(3 -3.2187e-16 0)
(3 -1.50653e-15 0)
(3 -2.16931e-15 0)
(3 -2.35671e-15 0)
(3 -1.36407e-15 0)
(3 2.08591e-16 0)
(3 2.62168e-16 0)
(3 2.06269e-17 0)
(3 -2.24589e-16 0)
(3 -2.14335e-16 0)
(3 3.43063e-16 0)
(3 1.91996e-16 0)
(3 6.10854e-16 0)
(3 6.52731e-16 0)
(3 5.26731e-16 0)
(3 -6.67541e-17 0)
(3 -3.22475e-16 0)
(3 -4.21284e-16 0)
(3 8.94788e-16 0)
(3 1.09339e-15 0)
(3 9.39237e-16 0)
(3 2.26409e-15 0)
(3 3.39074e-15 0)
(3 3.60656e-15 0)
(3 3.52848e-15 0)
(3 2.90904e-15 0)
(3 1.59761e-15 0)
(3 2.24746e-16 0)
(3 5.08809e-16 0)
(3 5.10105e-16 0)
(3 1.36715e-15 0)
(3 1.24805e-15 0)
(3 6.04189e-16 0)
(3 4.37551e-16 0)
(3 5.64191e-16 0)
(3 6.58397e-16 0)
(3 3.9534e-16 0)
(3 8.65034e-16 0)
(3 8.21851e-16 0)
(3 9.16939e-16 0)
(3 1.4477e-18 0)
(3 4.5882e-16 0)
(3 8.86764e-16 0)
(3 6.1046e-16 0)
(3 6.4185e-16 0)
(3 -2.00864e-17 0)
(3 4.77807e-17 0)
(3 -4.83971e-16 0)
(3 1.8201e-16 0)
(3 4.85254e-17 0)
(3 3.64516e-17 0)
(3 -1.09793e-16 0)
(3 -5.02652e-16 0)
(3 1.43987e-17 0)
(3 2.0638e-16 0)
(3 6.62785e-16 0)
(3 1.58239e-15 0)
(3 1.50537e-15 0)
(3 1.36059e-15 0)
(3 2.35993e-15 0)
(3 3.00921e-15 0)
(3 2.97908e-15 0)
(3 2.12161e-15 0)
(3 1.46543e-15 0)
(3 1.34836e-15 0)
(3 1.635e-15 0)
(3 1.15204e-15 0)
(3 2.11147e-17 0)
(3 2.83974e-16 0)
(3 -1.65305e-16 0)
(3 7.32659e-17 0)
(3 6.41706e-16 0)
(3 -7.51236e-16 0)
(3 -3.36377e-16 0)
(3 8.29833e-16 0)
(3 8.87587e-16 0)
(3 4.08505e-16 0)
(3 6.71019e-16 0)
(3 7.70275e-16 0)
(3 1.32836e-15 0)
(3 2.34567e-15 0)
(3 1.79672e-15 0)
(3 1.39231e-15 0)
(3 1.41846e-15 0)
(3 8.37896e-16 0)
(3 5.42769e-16 0)
(3 -4.51848e-16 0)
(3 -2.03319e-17 0)
(3 -1.16958e-15 0)
(3 -2.01024e-15 0)
(3 -1.95474e-15 0)
(3 -3.04201e-16 0)
(3 2.50951e-16 0)
(3 4.65303e-18 0)
(3 2.49521e-16 0)
(3 2.51946e-17 0)
(3 4.80639e-16 0)
(3 -4.38927e-16 0)
(3 -1.46827e-15 0)
(3 -2.6273e-15 0)
(3 -8.51435e-16 0)
(3 -3.12861e-16 0)
(3 -9.4218e-16 0)
(3 -9.77717e-16 0)
(3 4.0932e-17 0)
(3 1.04994e-15 0)
(3 9.89645e-16 0)
(3 1.16631e-15 0)
(3 2.46756e-15 0)
(3 2.07921e-15 0)
(3 4.40148e-16 0)
(3 -1.80799e-16 0)
(3 -1.43269e-16 0)
(3 3.32494e-16 0)
(3 7.06291e-16 0)
(3 3.87467e-16 0)
(3 4.36088e-16 0)
(3 6.85922e-16 0)
(3 -2.07854e-17 0)
(3 8.77998e-16 0)
(3 1.35666e-15 0)
(3 1.2338e-15 0)
(3 1.07031e-15 0)
(3 -3.51761e-16 0)
(3 -8.08223e-16 0)
(3 -1.44781e-15 0)
(3 -1.50802e-15 0)
(3 -1.07653e-15 0)
(3 -1.04552e-15 0)
(3 -8.6224e-16 0)
(3 1.21369e-16 0)
(3 1.37175e-15 0)
(3 2.42068e-15 0)
(3 2.21508e-15 0)
(3 1.26175e-15 0)
(3 1.31048e-15 0)
(3 3.10276e-16 0)
(3 7.49577e-17 0)
(3 5.36257e-16 0)
(3 7.49029e-16 0)
(3 7.9147e-16 0)
(3 1.71121e-16 0)
(3 -1.1573e-15 0)
(3 -1.64509e-15 0)
(3 -1.77727e-15 0)
(3 -1.57192e-15 0)
(3 -1.27245e-15 0)
(3 -7.96062e-16 0)
(3 -1.0565e-15 0)
(3 -4.90635e-16 0)
(3 -2.06682e-16 0)
(3 4.4552e-16 0)
(3 4.96588e-16 0)
(3 -1.6706e-16 0)
(3 8.45285e-17 0)
(3 9.4115e-16 0)
(3 1.22467e-15 0)
(3 8.66546e-16 0)
(3 2.11656e-16 0)
(3 3.3134e-16 0)
(3 -3.14208e-16 0)
(3 -3.57838e-16 0)
(3 -5.98221e-16 0)
(3 -5.78968e-16 0)
(3 -1.89392e-16 0)
(3 -6.5786e-16 0)
(3 1.43439e-16 0)
(3 -4.53806e-17 0)
(3 -7.13401e-16 0)
(3 -3.20189e-16 0)
(3 -3.53578e-16 0)
(3 1.16322e-15 0)
(3 8.18734e-16 0)
(3 3.32153e-16 0)
(3 8.68873e-16 0)
(3 1.68263e-15 0)
(3 1.88819e-15 0)
(3 1.80328e-15 0)
(3 2.81288e-16 0)
(3 -1.9383e-16 0)
(3 -1.28805e-15 0)
(3 -8.74432e-16 0)
(3 -2.37e-17 0)
(3 8.69026e-17 0)
(3 -2.10116e-15 0)
(3 -1.71728e-15 0)
(3 -1.04829e-15 0)
(3 3.94331e-16 0)
(3 2.82095e-15 0)
(3 2.48742e-15 0)
(3 1.75851e-15 0)
(3 7.65534e-16 0)
(3 3.80442e-16 0)
(3 -2.98035e-17 0)
(3 -2.09953e-16 0)
(3 -8.13354e-16 0)
(3 -1.04241e-15 0)
(3 -1.54031e-15 0)
(3 -1.58046e-15 0)
(3 -7.47135e-16 0)
(3 4.58712e-16 0)
(3 1.69442e-15 0)
(3 1.73308e-15 0)
(3 2.07426e-15 0)
(3 1.4861e-15 0)
(3 1.8406e-15 0)
(3 1.80175e-15 0)
(3 1.51736e-15 0)
(3 1.08337e-15 0)
(3 5.80962e-16 0)
(3 -6.29641e-17 0)
(3 -2.74398e-16 0)
(3 6.00017e-16 0)
(3 8.86979e-16 0)
(3 2.90115e-16 0)
(3 1.43135e-15 0)
(3 1.29382e-15 0)
(3 9.32315e-16 0)
(3 1.44439e-15 0)
(3 -2.03119e-16 0)
(3 -9.38563e-16 0)
(3 -1.4797e-15 0)
(3 -1.67365e-15 0)
(3 -1.79957e-15 0)
(3 -1.51449e-15 0)
(3 -1.40463e-15 0)
(3 -3.25263e-16 0)
(3 1.20469e-15 0)
(3 1.92279e-15 0)
(3 1.44936e-15 0)
(3 1.11923e-15 0)
(3 4.90052e-16 0)
(3 5.95745e-16 0)
(3 5.37832e-16 0)
(3 9.37676e-16 0)
(3 1.32456e-15 0)
(3 7.85816e-16 0)
(3 6.81845e-16 0)
(3 -1.45514e-16 0)
(3 -2.21451e-15 0)
(3 -2.37327e-15 0)
(3 -1.98438e-15 0)
(3 -1.77004e-15 0)
(3 -1.83176e-15 0)
(3 -1.91727e-15 0)
(3 -2.16531e-15 0)
(3 -1.51548e-15 0)
(3 -1.32167e-15 0)
(3 -2.14719e-15 0)
(3 -2.37914e-15 0)
(3 -2.06353e-15 0)
(3 -1.36126e-15 0)
(3 -5.55222e-16 0)
(3 5.25857e-16 0)
(3 -4.3053e-16 0)
(3 -4.06457e-16 0)
(3 -3.00934e-16 0)
(3 -5.8885e-16 0)
(3 -5.25402e-16 0)
(3 1.01713e-16 0)
(3 -7.80511e-17 0)
(3 -1.30368e-16 0)
(3 -9.83979e-16 0)
(3 -2.23851e-15 0)
(3 -1.30005e-15 0)
(3 -8.72849e-16 0)
(3 -6.91702e-16 0)
(3 -7.40158e-16 0)
(3 3.6488e-16 0)
(3 1.72118e-16 0)
(3 9.26223e-16 0)
(3 1.3008e-15 0)
(3 2.06917e-16 0)
(3 -5.11769e-16 0)
(3 -8.27806e-16 0)
(3 -6.53793e-16 0)
(3 -4.76053e-16 0)
(3 -3.94148e-16 0)
(3 8.08842e-16 0)
(3 1.33039e-15 0)
(3 -4.02185e-16 0)
(3 5.20301e-16 0)
(3 3.23199e-16 0)
(3 5.89535e-16 0)
(3 7.08832e-16 0)
(3 6.05266e-16 0)
(3 -7.29702e-17 0)
(3 2.03591e-16 0)
(3 2.41679e-16 0)
(3 7.24513e-16 0)
(3 4.74243e-16 0)
(3 2.69048e-16 0)
(3 -5.09235e-16 0)
(3 -2.03071e-15 0)
(3 -1.2e-15 0)
(3 7.57635e-17 0)
(3 3.76476e-16 0)
(3 8.76832e-16 0)
(3 9.47807e-16 0)
(3 2.43053e-15 0)
(3 8.34755e-16 0)
(3 5.41226e-16 0)
(3 9.75407e-19 0)
(3 8.68185e-17 0)
(3 -5.13818e-16 0)
(3 -7.80441e-16 0)
(3 -8.97214e-17 0)
(3 1.06799e-15 0)
(3 7.29488e-16 0)
(3 -7.22408e-16 0)
(3 -9.70572e-16 0)
(3 -1.23438e-15 0)
(3 -1.07581e-15 0)
(3 -6.52765e-16 0)
(3 -6.40421e-16 0)
(3 -9.26878e-17 0)
(3 6.86716e-17 0)
(3 -3.77414e-16 0)
(3 -1.97094e-16 0)
(3 -8.57403e-16 0)
(3 -5.16503e-16 0)
(3 2.35336e-16 0)
(3 2.58169e-16 0)
(3 -3.8779e-16 0)
(3 -1.33346e-15 0)
(3 -1.58447e-15 0)
(3 -6.49168e-16 0)
(3 9.85681e-16 0)
(3 1.97176e-15 0)
(3 1.65193e-15 0)
(3 2.86747e-16 0)
(3 -6.02343e-16 0)
(3 -4.60095e-16 0)
(3 -6.07591e-16 0)
(3 -1.4219e-15 0)
(3 -2.17224e-15 0)
(3 -6.69074e-16 0)
(3 2.00341e-16 0)
(3 2.62543e-16 0)
(3 -4.32369e-16 0)
(3 2.27386e-16 0)
(3 7.37389e-16 0)
(3 3.77242e-16 0)
(3 -7.75864e-16 0)
(3 -1.94863e-15 0)
(3 -1.85765e-15 0)
(3 -1.25821e-15 0)
(3 -9.17526e-16 0)
(3 -1.90702e-16 0)
(3 6.23804e-16 0)
(3 9.28435e-18 0)
(3 -5.48887e-16 0)
(3 -5.07262e-16 0)
(3 -6.0466e-16 0)
(3 -5.06563e-16 0)
(3 -5.91559e-16 0)
(3 1.84305e-17 0)
(3 -6.16768e-16 0)
(3 -1.28278e-15 0)
(3 -1.50513e-15 0)
(3 -7.21969e-16 0)
(3 -7.28855e-16 0)
(3 -5.00612e-16 0)
(3 -6.39412e-16 0)
(3 4.57442e-16 0)
(3 8.64158e-16 0)
(3 -1.75418e-16 0)
(3 -7.60458e-16 0)
(3 -8.77887e-16 0)
(3 -1.8032e-15 0)
(3 -1.19977e-15 0)
(3 7.76365e-16 0)
(3 1.6187e-15 0)
(3 1.85225e-15 0)
(3 1.95852e-15 0)
(3 1.31061e-15 0)
(3 2.29827e-15 0)
(3 1.52829e-15 0)
(3 8.92926e-16 0)
(3 3.43503e-16 0)
(3 -4.69666e-16 0)
(3 -2.52456e-16 0)
(3 -7.66368e-16 0)
(3 -5.38579e-16 0)
(3 -1.24356e-15 0)
(3 -2.33088e-16 0)
(3 6.95809e-16 0)
(3 1.30362e-15 0)
(3 9.71944e-16 0)
(3 5.3375e-16 0)
(3 4.31207e-16 0)
(3 -2.80557e-16 0)
(3 -2.07884e-16 0)
(3 1.73177e-16 0)
(3 1.12898e-15 0)
(3 8.42656e-16 0)
(3 9.8143e-16 0)
(3 8.56134e-16 0)
(3 8.90375e-16 0)
(3 9.02955e-16 0)
(3 -7.72032e-17 0)
(3 -7.38008e-17 0)
(3 -5.63363e-16 0)
(3 -9.60803e-17 0)
(3 1.90423e-16 0)
(3 -1.27714e-15 0)
(3 -2.92255e-15 0)
(3 -2.84861e-15 0)
(3 -2.72922e-15 0)
(3 -2.76162e-15 0)
(3 -2.80065e-15 0)
(3 -2.82003e-17 0)
(3 1.18344e-15 0)
(3 1.14663e-15 0)
(3 9.03352e-16 0)
(3 8.60718e-16 0)
(3 3.42247e-16 0)
(3 6.42183e-16 0)
(3 2.05412e-16 0)
(3 -2.02058e-16 0)
(3 -6.30078e-16 0)
(3 -5.58436e-16 0)
(3 8.96004e-17 0)
(3 5.3898e-16 0)
(3 3.55497e-16 0)
(3 7.19467e-17 0)
(3 -1.2206e-15 0)
(3 -1.14834e-15 0)
(3 -3.16807e-16 0)
(3 -4.48494e-16 0)
(3 -1.90497e-15 0)
(3 3.6065e-16 0)
(3 1.39623e-15 0)
(3 2.10346e-15 0)
(3 1.70236e-15 0)
(3 9.21266e-16 0)
(3 1.34718e-15 0)
(3 1.49402e-15 0)
(3 3.54341e-16 0)
(3 -2.87581e-16 0)
(3 -2.16459e-16 0)
(3 9.55338e-16 0)
(3 1.34975e-15 0)
(3 8.64121e-16 0)
(3 -1.27175e-15 0)
(3 -3.08883e-15 0)
(3 -2.40734e-15 0)
(3 -2.15948e-15 0)
(3 -1.69913e-15 0)
(3 -1.82445e-15 0)
(3 -1.73365e-15 0)
(3 -1.65467e-15 0)
(3 -1.20668e-15 0)
(3 -4.13467e-16 0)
(3 7.76359e-16 0)
(3 1.62595e-15 0)
(3 1.19385e-15 0)
(3 3.78646e-16 0)
(3 9.78783e-17 0)
(3 6.33931e-16 0)
(3 -3.95167e-16 0)
(3 -8.08097e-16 0)
(3 -1.20337e-15 0)
(3 -2.05295e-15 0)
(3 -1.87412e-15 0)
(3 -1.79931e-15 0)
(3 -1.34153e-15 0)
(3 -1.58883e-16 0)
(3 2.43271e-15 0)
(3 3.43972e-15 0)
(3 2.09033e-15 0)
(3 1.19833e-15 0)
(3 8.82984e-16 0)
(3 8.21441e-16 0)
(3 1.26043e-15 0)
(3 1.51592e-15 0)
(3 1.5669e-15 0)
(3 2.25665e-16 0)
(3 -1.29875e-15 0)
(3 -1.57072e-15 0)
(3 -1.76673e-15 0)
(3 -6.15223e-16 0)
(3 5.94459e-16 0)
(3 1.93967e-15 0)
(3 1.2967e-15 0)
(3 1.01989e-15 0)
(3 -2.93322e-16 0)
(3 -1.11297e-15 0)
(3 -7.69192e-16 0)
(3 1.55088e-16 0)
(3 4.48058e-16 0)
(3 1.30483e-15 0)
(3 2.57563e-15 0)
(3 3.04467e-15 0)
(3 2.12397e-15 0)
(3 1.29212e-15 0)
(3 1.03876e-15 0)
(3 1.04374e-15 0)
(3 5.2193e-16 0)
(3 -1.57379e-17 0)
(3 8.03407e-17 0)
(3 -4.83748e-16 0)
(3 -1.34936e-15 0)
(3 -2.68649e-15 0)
(3 -3.72029e-15 0)
(3 -3.21581e-15 0)
(3 -2.23828e-15 0)
(3 1.31847e-16 0)
(3 4.1861e-16 0)
(3 4.55512e-16 0)
(3 7.26484e-16 0)
(3 1.04265e-15 0)
(3 6.12459e-16 0)
(3 6.97622e-17 0)
(3 -5.9606e-16 0)
(3 -3.90453e-16 0)
(3 -4.10747e-16 0)
(3 5.58243e-17 0)
(3 -8.3698e-17 0)
(3 -2.68237e-16 0)
(3 -6.89632e-16 0)
(3 -8.65509e-16 0)
(3 -6.99115e-16 0)
(3 -2.39142e-16 0)
(3 -2.98839e-16 0)
(3 7.27914e-16 0)
(3 1.34368e-15 0)
(3 2.41763e-15 0)
(3 2.68254e-15 0)
(3 2.63719e-15 0)
(3 2.01151e-15 0)
(3 2.24778e-15 0)
(3 1.75882e-15 0)
(3 1.41538e-15 0)
(3 1.17844e-15 0)
(3 5.2279e-16 0)
(3 1.327e-15 0)
(3 2.98984e-15 0)
(3 2.89095e-15 0)
(3 2.39576e-16 0)
(3 -1.11657e-15 0)
(3 -2.0032e-15 0)
(3 -1.71685e-15 0)
(3 -1.53782e-15 0)
(3 -1.12217e-15 0)
(3 -1.15371e-15 0)
(3 -9.52539e-16 0)
(3 -2.38872e-15 0)
(3 -3.26833e-15 0)
(3 -9.55454e-16 0)
(3 1.06082e-15 0)
(3 1.56505e-15 0)
(3 -7.01979e-17 0)
(3 -4.55818e-16 0)
(3 -1.55252e-16 0)
(3 -3.79988e-16 0)
(3 -1.29597e-15 0)
(3 -2.23269e-15 0)
(3 -2.34157e-15 0)
(3 -2.75816e-15 0)
(3 -2.7657e-15 0)
(3 -1.62809e-15 0)
(3 -7.97716e-16 0)
(3 -6.9738e-16 0)
(3 2.05974e-16 0)
(3 6.34043e-16 0)
(3 -5.60996e-16 0)
(3 1.14548e-16 0)
(3 -1.60387e-17 0)
(3 7.61219e-16 0)
(3 1.24745e-15 0)
(3 1.13336e-15 0)
(3 5.79012e-16 0)
(3 -1.05749e-16 0)
(3 -1.01972e-15 0)
(3 -1.44597e-15 0)
(3 5.79148e-16 0)
(3 1.36766e-15 0)
(3 9.99033e-16 0)
(3 -5.56385e-17 0)
(3 -3.80142e-16 0)
(3 -5.46933e-16 0)
(3 -6.04131e-16 0)
(3 -1.72003e-16 0)
(3 5.11478e-16 0)
(3 4.61378e-16 0)
(3 2.54249e-16 0)
(3 1.5526e-15 0)
(3 1.87207e-15 0)
(3 2.40475e-15 0)
(3 1.41505e-15 0)
(3 -2.01155e-16 0)
(3 1.23554e-16 0)
(3 -2.25573e-15 0)
(3 -2.61601e-15 0)
(3 -2.55394e-15 0)
(3 -2.37914e-15 0)
(3 -1.82652e-15 0)
(3 -1.33043e-15 0)
(3 -1.02188e-15 0)
(3 -8.77265e-16 0)
(3 -1.0227e-15 0)
(3 -6.70006e-16 0)
(3 3.41779e-17 0)
(3 -8.47312e-16 0)
(3 -6.40567e-16 0)
(3 -1.01331e-15 0)
(3 -2.19563e-16 0)
(3 -6.5894e-17 0)
(3 -4.86348e-16 0)
(3 1.06146e-16 0)
(3 -1.10336e-16 0)
(3 -3.82372e-16 0)
(3 -3.57788e-16 0)
(3 -7.18074e-16 0)
(3 -1.36528e-15 0)
(3 -2.09259e-15 0)
(3 -1.80412e-15 0)
(3 -5.47929e-16 0)
(3 -1.10443e-15 0)
(3 -1.48771e-15 0)
(3 3.06809e-17 0)
(3 1.57327e-15 0)
(3 1.88924e-15 0)
(3 2.17827e-15 0)
(3 1.65398e-15 0)
(3 2.5853e-15 0)
(3 3.37795e-15 0)
(3 2.62837e-15 0)
(3 2.12866e-15 0)
(3 2.68957e-15 0)
(3 2.61309e-15 0)
(3 2.56419e-15 0)
(3 2.47969e-15 0)
(3 7.3414e-16 0)
(3 -1.48922e-15 0)
(3 -1.13444e-15 0)
(3 -3.19503e-16 0)
(3 6.64768e-17 0)
(3 9.14508e-16 0)
(3 6.82464e-16 0)
(3 -1.35582e-16 0)
(3 -1.17813e-15 0)
(3 -9.77313e-16 0)
(3 -6.89221e-16 0)
(3 -9.51071e-16 0)
(3 -7.01296e-16 0)
(3 1.42451e-16 0)
(3 1.0969e-16 0)
(3 7.07659e-17 0)
(3 -7.08765e-17 0)
(3 -9.04883e-16 0)
(3 -1.28185e-15 0)
(3 -1.09049e-15 0)
(3 -1.8146e-15 0)
(3 -1.94507e-15 0)
(3 -2.18544e-15 0)
(3 -2.05473e-15 0)
(3 -1.01121e-15 0)
(3 -1.50689e-15 0)
(3 -1.9231e-15 0)
(3 -1.63149e-15 0)
(3 -1.00835e-15 0)
(3 9.59498e-17 0)
(3 1.69952e-15 0)
(3 2.0717e-15 0)
(3 1.80728e-15 0)
(3 5.08162e-16 0)
(3 -6.38791e-16 0)
(3 -8.05876e-17 0)
(3 -2.76983e-16 0)
(3 5.16348e-17 0)
(3 8.50478e-16 0)
(3 1.48657e-15 0)
(3 -4.03156e-17 0)
(3 -1.01235e-15 0)
(3 -7.53106e-16 0)
(3 -3.9648e-16 0)
(3 7.79402e-16 0)
(3 1.2449e-15 0)
(3 1.42777e-15 0)
(3 6.44036e-16 0)
(3 8.48781e-16 0)
(3 1.61284e-15 0)
(3 2.67955e-15 0)
(3 2.72793e-15 0)
(3 2.58357e-15 0)
(3 9.53016e-16 0)
(3 -1.75382e-15 0)
(3 -2.41761e-15 0)
(3 -2.60891e-15 0)
(3 -3.17412e-15 0)
(3 -3.41143e-15 0)
(3 -2.86629e-15 0)
(3 -2.02435e-15 0)
(3 -5.53253e-16 0)
(3 1.43303e-16 0)
(3 -1.08567e-15 0)
(3 -1.82343e-15 0)
(3 7.59647e-17 0)
(3 -3.18091e-16 0)
(3 -2.88826e-16 0)
(3 -6.73718e-16 0)
(3 -4.8847e-16 0)
(3 -2.71749e-16 0)
(3 -5.10205e-16 0)
(3 -1.05859e-15 0)
(3 -6.27158e-16 0)
(3 -3.91867e-16 0)
(3 -5.54492e-17 0)
(3 -2.25454e-16 0)
(3 -1.16208e-15 0)
(3 -1.41602e-15 0)
(3 -6.59094e-16 0)
(3 -7.7011e-16 0)
(3 -9.48592e-16 0)
(3 2.43879e-16 0)
(3 4.24228e-16 0)
(3 1.58788e-15 0)
(3 1.93608e-16 0)
(3 -6.41051e-16 0)
(3 5.28048e-16 0)
(3 1.94173e-16 0)
(3 -1.65643e-16 0)
(3 4.1034e-16 0)
(3 7.68961e-16 0)
(3 5.61835e-16 0)
(3 1.61744e-15 0)
(3 1.96053e-15 0)
(3 1.04142e-15 0)
(3 -5.40995e-16 0)
(3 -7.45874e-16 0)
(3 4.42566e-16 0)
(3 2.95515e-16 0)
(3 1.54691e-15 0)
(3 1.76023e-15 0)
(3 9.8026e-16 0)
(3 -4.43325e-18 0)
(3 -1.707e-16 0)
(3 3.8181e-16 0)
(3 2.35837e-16 0)
(3 -4.81002e-16 0)
(3 -1.17186e-15 0)
(3 -1.12221e-15 0)
(3 4.31323e-16 0)
(3 6.58131e-16 0)
(3 -4.20315e-16 0)
(3 -4.2556e-17 0)
(3 -7.72909e-16 0)
(3 -5.82714e-16 0)
(3 -2.66334e-16 0)
(3 -1.24055e-15 0)
(3 -1.54063e-15 0)
(3 -2.05695e-15 0)
(3 -2.74079e-15 0)
(3 -3.55178e-15 0)
(3 -3.20939e-15 0)
(3 -2.49091e-15 0)
(3 -1.51311e-15 0)
(3 -2.63294e-16 0)
(3 1.42577e-16 0)
(3 -1.03375e-16 0)
(3 -5.16753e-17 0)
(3 1.71e-16 0)
(3 7.71492e-16 0)
(3 3.85694e-16 0)
(3 -9.02339e-20 0)
(3 3.04347e-16 0)
(3 5.72458e-16 0)
(3 3.36547e-16 0)
(3 -3.26223e-16 0)
(3 -4.55742e-16 0)
(3 2.02279e-16 0)
(3 4.82587e-16 0)
(3 6.3774e-16 0)
(3 2.13514e-15 0)
(3 9.78773e-16 0)
(3 4.30136e-16 0)
(3 1.23628e-15 0)
(3 2.21218e-15 0)
(3 2.58461e-15 0)
(3 2.73267e-15 0)
(3 3.62661e-15 0)
(3 2.73479e-15 0)
(3 -1.5648e-15 0)
(3 -2.28527e-15 0)
(3 -1.61199e-15 0)
(3 -8.01389e-16 0)
(3 -2.07145e-15 0)
(3 -2.56657e-15 0)
(3 -2.31182e-15 0)
(3 -1.19168e-15 0)
(3 -4.99622e-16 0)
(3 -1.98872e-15 0)
(3 -3.58408e-15 0)
(3 5.6828e-16 0)
(3 4.36566e-16 0)
(3 4.89281e-16 0)
(3 8.04845e-16 0)
(3 8.48382e-16 0)
(3 1.10897e-15 0)
(3 5.33036e-16 0)
(3 -5.81264e-16 0)
(3 -4.36127e-16 0)
(3 -1.22811e-16 0)
(3 -8.05587e-16 0)
(3 -9.4468e-16 0)
(3 -3.31411e-16 0)
(3 4.1517e-16 0)
(3 8.72318e-16 0)
(3 6.67553e-16 0)
(3 3.69686e-16 0)
(3 6.75848e-16 0)
(3 1.26616e-16 0)
(3 -1.04842e-16 0)
(3 -2.66707e-16 0)
(3 -6.16139e-16 0)
(3 -1.85441e-17 0)
(3 9.59718e-17 0)
(3 2.48957e-17 0)
(3 7.05543e-16 0)
(3 1.90914e-15 0)
(3 1.78085e-15 0)
(3 1.24026e-15 0)
(3 9.98682e-16 0)
(3 3.09487e-16 0)
(3 6.10716e-16 0)
(3 2.23556e-15 0)
(3 1.86014e-15 0)
(3 1.7731e-15 0)
(3 1.86735e-15 0)
(3 4.42014e-16 0)
(3 1.48834e-16 0)
(3 5.09037e-17 0)
(3 1.05178e-16 0)
(3 5.17205e-16 0)
(3 6.97427e-16 0)
(3 2.00381e-16 0)
(3 -5.84338e-16 0)
(3 -9.18045e-16 0)
(3 -1.08851e-16 0)
(3 2.42526e-16 0)
(3 -3.15255e-16 0)
(3 2.54569e-16 0)
(3 -2.78746e-16 0)
(3 -5.3857e-16 0)
(3 -4.18774e-16 0)
(3 -7.49242e-16 0)
(3 -1.38675e-15 0)
(3 -2.39859e-15 0)
(3 -4.29318e-15 0)
(3 -3.94084e-15 0)
(3 -2.95866e-15 0)
(3 -2.34628e-15 0)
(3 5.97909e-16 0)
(3 1.35179e-15 0)
(3 6.2533e-16 0)
(3 3.42547e-16 0)
(3 -2.75763e-17 0)
(3 2.59472e-16 0)
(3 -2.3219e-16 0)
(3 -4.89263e-16 0)
(3 9.01154e-17 0)
(3 5.63622e-16 0)
(3 9.82414e-17 0)
(3 -1.17576e-15 0)
(3 7.86227e-17 0)
(3 4.0914e-17 0)
(3 -2.85692e-16 0)
(3 8.76134e-16 0)
(3 -1.36993e-16 0)
(3 1.24561e-16 0)
(3 -3.14366e-16 0)
(3 -2.18591e-16 0)
(3 -4.57509e-17 0)
(3 2.0333e-16 0)
(3 -4.09933e-17 0)
(3 6.41298e-16 0)
(3 6.38744e-16 0)
(3 1.31322e-15 0)
(3 1.05443e-15 0)
(3 -6.4075e-16 0)
(3 -5.86066e-16 0)
(3 8.0706e-17 0)
(3 -1.28725e-16 0)
(3 -3.78026e-16 0)
(3 -1.07642e-15 0)
(3 -2.14244e-15 0)
(3 -2.03394e-15 0)
(3 -1.57593e-15 0)
(3 -9.0013e-16 0)
(3 -3.05761e-17 0)
(3 2.96189e-16 0)
(3 6.94842e-16 0)
(3 1.08711e-15 0)
(3 1.0594e-15 0)
(3 9.20874e-16 0)
(3 9.18968e-16 0)
(3 5.52671e-16 0)
(3 3.92477e-16 0)
(3 5.67243e-16 0)
(3 -4.97758e-16 0)
(3 -9.67081e-16 0)
(3 -8.0755e-16 0)
(3 -1.39835e-16 0)
(3 4.65166e-16 0)
(3 1.66712e-15 0)
(3 2.4745e-15 0)
(3 2.59016e-15 0)
(3 2.25836e-15 0)
(3 3.63431e-16 0)
(3 5.43298e-16 0)
(3 2.70189e-16 0)
(3 5.78444e-16 0)
(3 1.16275e-15 0)
(3 1.98197e-15 0)
(3 1.54095e-15 0)
(3 1.7408e-15 0)
(3 2.2494e-15 0)
(3 2.88828e-15 0)
(3 2.41688e-15 0)
(3 1.16161e-15 0)
(3 7.34834e-16 0)
(3 2.51472e-15 0)
(3 2.39987e-15 0)
(3 2.25205e-15 0)
(3 2.70359e-15 0)
(3 1.05452e-15 0)
(3 1.11076e-16 0)
(3 7.34341e-16 0)
(3 3.83339e-16 0)
(3 -3.26999e-16 0)
(3 -4.11628e-16 0)
(3 -1.28002e-15 0)
(3 -2.07413e-15 0)
(3 -3.264e-15 0)
(3 -3.49134e-15 0)
(3 -1.99239e-15 0)
(3 -1.09342e-15 0)
(3 -3.83405e-16 0)
(3 2.5314e-16 0)
(3 -1.85572e-17 0)
(3 8.47453e-17 0)
(3 -2.12628e-16 0)
(3 -1.43996e-15 0)
(3 -2.31166e-15 0)
(3 -1.96603e-15 0)
(3 -5.13441e-16 0)
(3 -4.1895e-17 0)
(3 7.18499e-16 0)
(3 1.53185e-15 0)
(3 8.83197e-16 0)
(3 7.57692e-16 0)
(3 4.07624e-16 0)
(3 3.98779e-16 0)
(3 -4.57596e-16 0)
(3 -2.02098e-15 0)
(3 -1.83239e-15 0)
(3 -1.40459e-15 0)
(3 -9.48171e-16 0)
(3 -2.57944e-15 0)
(3 -2.62702e-15 0)
(3 -1.84486e-15 0)
(3 -1.43362e-15 0)
(3 -6.75205e-16 0)
(3 7.79891e-16 0)
(3 1.59787e-15 0)
(3 6.35622e-17 0)
(3 -6.87556e-17 0)
(3 -1.37468e-16 0)
(3 -1.48719e-15 0)
(3 -1.59754e-15 0)
(3 -7.85807e-16 0)
(3 -1.60659e-16 0)
(3 5.09789e-16 0)
(3 1.74049e-15 0)
(3 2.60701e-15 0)
(3 1.43868e-15 0)
(3 1.13683e-15 0)