/*--------------------------------*- C++ -*----------------------------------*\
  =========                 |
  \\      /  F ield         | OpenFOAM: The Open Source CFD Toolbox
   \\    /   O peration     | Website:  https://openfoam.org
    \\  /    A nd           | Version:  7
     \\/     M anipulation  |
\*---------------------------------------------------------------------------*/
FoamFile
{
    version     2.0;
    format      ascii;
    class       volScalarField;
    location    "2.3";
    object      p;
}
// * * * * * * * * * * * * * * * * * * * * * * * * * * * * * * * * * * * * * //

dimensions      [1 -1 -2 0 0 0 0];

internalField   nonuniform List<scalar> 
4128
(
1.93876
1.83654
1.77333
1.75347
1.73353
1.71094
1.68673
1.66237
1.63684
1.60336
1.54461
1.464
1.42495
1.41491
1.40591
1.39352
1.37876
1.36219
1.34282
1.31615
1.27433
1.22951
1.2108
1.20251
1.1932
1.18259
1.17042
1.15252
1.12166
1.08841
1.07178
1.06437
1.05834
1.05261
1.04578
1.03635
1.01913
0.985206
0.951028
0.941267
0.937455
0.933873
0.928109
0.922216
0.915793
0.906584
0.886263
0.853674
0.840023
0.837098
0.836399
0.841592
0.852818
0.859995
0.87668
0.904746
0.936809
0.985995
1.03948
1.10083
1.13651
1.16636
1.2115
1.24868
1.25856
1.26263
1.2639
1.25984
1.24892
1.24057
1.24222
1.24883
1.26139
1.28324
1.30787
1.31624
1.3169
1.31643
1.31227
1.29943
1.28567
1.27993
1.27792
1.27782
1.2795
1.28634
1.30029
1.30921
1.30968
1.30905
1.30483
1.29281
1.28243
1.27975
1.27878
1.27858
1.28111
1.28684
1.28928
1.28878
1.28686
1.28258
1.27729
1.27533
1.27516
1.27534
1.27659
1.27675
1.27566
1.27405
1.27061
1.26512
1.26229
1.26057
1.25933
1.26206
1.28276
1.42665
1.8395
2.42935
2.58022
2.59002
2.56241
2.56242
2.5994
2.69414
2.90341
3.10328
3.19907
1.94692
1.85984
1.83212
1.81237
1.78902
1.76391
1.7377
1.71064
1.67841
1.62538
1.54156
1.4861
1.47287
1.46418
1.45394
1.44034
1.42415
1.40421
1.37622
1.33226
1.2819
1.25796
1.24943
1.24069
1.23081
1.21883
1.20165
1.17197
1.13423
1.11464
1.10732
1.10062
1.09369
1.08651
1.07811
1.06382
1.03008
0.988582
0.974539
0.970345
0.969534
0.966001
0.959087
0.952006
0.943121
0.927598
0.898233
0.870604
0.863107
0.859458
0.857492
0.857217
0.858522
0.859809
0.859106
0.856438
0.854666
0.86496
0.896219
0.956641
1.03713
1.10352
1.17194
1.21525
1.23258
1.24001
1.24011
1.23847
1.23639
1.23217
1.23442
1.24502
1.26564
1.29033
1.30702
1.31048
1.30928
1.30586
1.29748
1.28119
1.27162
1.26994
1.26944
1.2706
1.27781
1.29385
1.30889
1.31214
1.31137
1.30922
1.30185
1.28724
1.27979
1.27856
1.27757
1.27761
1.2818
1.28729
1.28834
1.28793
1.28551
1.27981
1.27491
1.27385
1.27386
1.27449
1.27682
1.27819
1.27764
1.27646
1.27356
1.26801
1.26363
1.26182
1.26397
1.28296
1.4361
1.91047
2.36923
2.62989
2.64566
2.6207
2.60038
2.60907
2.66886
2.81897
3.01348
3.15837
3.20871
1.96043
1.91093
1.88925
1.86639
1.84162
1.81602
1.7893
1.75872
1.71051
1.62606
1.55296
1.53343
1.5218
1.511
1.49848
1.48382
1.4664
1.44182
1.40013
1.34237
1.3084
1.29801
1.28841
1.27755
1.26503
1.24831
1.21941
1.17924
1.15722
1.15052
1.14542
1.13789
1.12951
1.1205
1.10686
1.0772
1.03262
1.01036
1.00488
1.00254
1.00273
0.997522
0.990552
0.982925
0.970839
0.94287
0.906061
0.892693
0.888342
0.886012
0.883998
0.880078
0.875407
0.870017
0.860753
0.845637
0.835864
0.835606
0.840587
0.860843
0.914527
0.986299
1.06535
1.12694
1.17331
1.19867
1.20639
1.21388
1.21727
1.21837
1.22722
1.24817
1.27751
1.29483
1.30055
1.30189
1.30005
1.29345
1.28137
1.26625
1.26144
1.26171
1.26214
1.26664
1.2828
1.30401
1.31212
1.31234
1.31052
1.30524
1.29292
1.27908
1.27589
1.27573
1.27542
1.27682
1.28328
1.28826
1.28899
1.28895
1.28613
1.2793
1.27492
1.27409
1.27402
1.27512
1.27872
1.28084
1.28062
1.27962
1.27597
1.26801
1.26318
1.2649
1.28842
1.42776
1.93789
2.4336
2.64376
2.65616
2.62912
2.60563
2.59457
2.62982
2.76608
2.96072
3.1099
3.18686
3.20732
2.00076
1.97163
1.94689
1.9213
1.89577
1.87022
1.84101
1.79743
1.71576
1.62818
1.59986
1.5846
1.56922
1.55638
1.54168
1.52412
1.5025
1.4686
1.41282
1.36703
1.35223
1.34104
1.32866
1.31477
1.29665
1.26689
1.22456
1.19879
1.19182
1.1888
1.18358
1.17482
1.16528
1.15233
1.12524
1.0769
1.04578
1.03881
1.03516
1.0357
1.03475
1.02841
1.02077
1.00991
0.988934
0.952426
0.928196
0.922359
0.919161
0.916896
0.911973
0.906576
0.900518
0.891618
0.872846
0.846031
0.833073
0.830925
0.833774
0.843918
0.859983
0.886047
0.926902
0.977574
1.02927
1.08337
1.12194
1.15577
1.17626
1.19323
1.21535
1.24568
1.27709
1.28835
1.29217
1.29426
1.29309
1.28437
1.26905
1.25817
1.25906
1.26095
1.26283
1.27227
1.29486
1.3089
1.3105
1.31034
1.30622
1.2954
1.28076
1.27159
1.27098
1.27194
1.27317
1.27733
1.28635
1.29084
1.29161
1.29162
1.2874
1.27904
1.27542
1.27452
1.27432
1.27661
1.28159
1.28363
1.28362
1.28216
1.27574
1.26583
1.26612
1.28703
1.46516
1.90067
2.48475
2.67179
2.67492
2.63984
2.60262
2.58415
2.6007
2.69261
2.91852
3.11577
3.20278
3.21445
3.19683
2.05804
2.03301
2.00688
1.98005
1.95361
1.92496
1.88356
1.8047
1.70837
1.66567
1.65333
1.63708
1.61887
1.60193
1.58396
1.56214
1.53162
1.48122
1.42752
1.4081
1.3974
1.38497
1.3704
1.35152
1.32129
1.27441
1.23972
1.23095
1.22792
1.22648
1.21931
1.20981
1.19757
1.17454
1.1278
1.08606
1.07589
1.07109
1.06934
1.07001
1.06551
1.05839
1.04922
1.03242
0.996591
0.963068
0.954175
0.949785
0.948121
0.945149
0.939493
0.9333
0.924861
0.909233
0.881662
0.857078
0.850369
0.847021
0.845672
0.849803
0.859625
0.863353
0.864077
0.873135
0.889085
0.925459
0.982921
1.04795
1.10177
1.1503
1.19094
1.2235
1.25609
1.2709
1.27623
1.27964
1.27941
1.27209
1.25859
1.25254
1.25683
1.26233
1.26834
1.28399
1.30413
1.30849
1.30849
1.30697
1.29944
1.28453
1.27144
1.26724
1.2676
1.2693
1.27308
1.28243
1.29381
1.29631
1.29624
1.2941
1.28506
1.27583
1.27377
1.27294
1.27327
1.27801
1.28373
1.2853
1.28537
1.28187
1.27205
1.26905
1.29064
1.46567
1.98482
2.42226
2.68044
2.714
2.70098
2.66662
2.61387
2.61343
2.67153
2.83409
3.09561
3.23817
3.25803
3.22763
3.1825
2.12073
2.09698
2.07079
2.04291
2.01243
1.97078
1.89435
1.79263
1.7316
1.71631
1.7037
1.68819
1.66987
1.65029
1.6287
1.59973
1.54927
1.48504
1.45788
1.44919
1.43942
1.42673
1.41036
1.38421
1.33718
1.28946
1.27439
1.26835
1.26597
1.26135
1.25231
1.24085
1.22189
1.18
1.12992
1.11384
1.10867
1.10526
1.10482
1.10183
1.09539
1.08713
1.07307
1.04269
1.00335
0.988459
0.983848
0.979861
0.977149
0.972618
0.96683
0.959751
0.947823
0.921206
0.888935
0.878274
0.874481
0.870711
0.868695
0.868107
0.86747
0.864752
0.860399
0.851295
0.8418
0.845238
0.865783
0.910585
0.984672
1.05789
1.1308
1.17801
1.21974
1.24623
1.25281
1.25758
1.25769
1.25327
1.24389
1.24154
1.24713
1.25648
1.26993
1.29062
1.30328
1.30368
1.30273
1.2999
1.29011
1.27441
1.26652
1.265
1.26538
1.26873
1.27833
1.29342
1.30142
1.30097
1.29837
1.2902
1.27667
1.2708
1.27034
1.27024
1.27273
1.28042
1.2856
1.28655
1.28509
1.27885
1.27298
1.30121
1.4775
2.00437
2.49057
2.67935
2.72956
2.70955
2.6752
2.64609
2.62354
2.66247
2.7999
3.00421
3.21026
3.27377
3.2687
3.23569
3.18628
2.18523
2.16073
2.13309
2.10153
2.06041
1.9874
1.88146
1.80254
1.78138
1.76658
1.75281
1.73784
1.72029
1.70033
1.67455
1.63106
1.55764
1.50828
1.49524
1.48639
1.47662
1.46318
1.4438
1.40883
1.35483
1.32524
1.31615
1.3093
1.30307
1.29434
1.28292
1.26593
1.2312
1.17868
1.15283
1.14747
1.14365
1.1417
1.13855
1.13239
1.12469
1.11286
1.08735
1.04409
1.02066
1.01622
1.01313
1.00993
1.00537
1.00001
0.99349
0.983193
0.962746
0.929187
0.910545
0.906636
0.904325
0.900887
0.895805
0.891216
0.885977
0.878668
0.866279
0.846917
0.835511
0.835797
0.838928
0.848254
0.876254
0.922769
0.991781
1.07105
1.13931
1.19797
1.2156
1.22328
1.22551
1.22683
1.23148
1.23001
1.23288
1.24617
1.26855
1.28891
1.29585
1.29568
1.29378
1.28952
1.27853
1.26535
1.2613
1.26057
1.26184
1.27063
1.28807
1.30132
1.3034
1.30127
1.29308
1.27942
1.2681
1.26663
1.26742
1.26932
1.27559
1.28575
1.28922
1.28822
1.28494
1.28011
1.30677
1.53214
2.00405
2.54354
2.69058
2.71326
2.70116
2.68606
2.65295
2.63638
2.65189
2.75622
2.95981
3.14329
3.26188
3.28848
3.26928
3.23939
3.18887
2.24997
2.22019
2.18688
2.14592
2.07936
1.97652
1.88269
1.85222
1.83619
1.81828
1.8032
1.78791
1.77041
1.74859
1.71395
1.64454
1.57253
1.54951
1.53638
1.52332
1.50999
1.49404
1.46993
1.42714
1.38402
1.36818
1.35892
1.3501
1.33962
1.32725
1.3106
1.28077
1.23003
1.19282
1.18581
1.18207
1.18004
1.17607
1.1697
1.16226
1.15178
1.13093
1.0894
1.05529
1.04872
1.04618
1.0442
1.03953
1.03396
1.02786
1.01938
1.00249
0.968304
0.939702
0.934065
0.931182
0.929891
0.928281
0.923103
0.917225
0.910356
0.900136
0.880036
0.851422
0.84038
0.838882
0.840125
0.845904
0.84946
0.855874
0.875131
0.918632
0.978903
1.05276
1.1086
1.1628
1.18993
1.1995
1.21612
1.22001
1.22103
1.23839
1.26907
1.28633
1.28995
1.2897
1.2856
1.27708
1.26526
1.25711
1.25655
1.25669
1.2614
1.27787
1.29527
1.30018
1.30043
1.29513
1.28196
1.26661
1.26152
1.26223
1.26499
1.27088
1.28223
1.29189
1.29172
1.29026
1.28897
1.32064
1.55035
2.12285
2.48095
2.66224
2.73812
2.74746
2.73508
2.70912
2.667
2.66043
2.72115
2.89231
3.0838
3.23506
3.3073
3.3117
3.27476
3.23402
3.18263
2.31212
2.2728
2.22782
2.16495
2.06862
1.96835
1.92473
1.9107
1.89437
1.87477
1.85756
1.83991
1.81936
1.78935
1.72755
1.6443
1.60786
1.59503
1.57977
1.56335
1.54624
1.52585
1.49266
1.44515
1.4191
1.40759
1.39774
1.38781
1.37538
1.35906
1.33349
1.28631
1.23743
1.22538
1.22093
1.21844
1.21445
1.20766
1.19997
1.19056
1.17372
1.13618
1.09257
1.08042
1.07743
1.07668
1.07348
1.06816
1.06225
1.05479
1.04138
1.01165
0.974315
0.962711
0.959827
0.957713
0.955674
0.953098
0.949213
0.943532
0.934636
0.918455
0.893024
0.868864
0.859424
0.856453
0.855171
0.854376
0.851243
0.851579
0.851978
0.856822
0.873104
0.908397
0.953361
1.00694
1.06937
1.11786
1.16258
1.18751
1.20264
1.23012
1.26657
1.28183
1.28457
1.28536
1.28206
1.26953
1.25494
1.25316
1.25536
1.25918
1.27122
1.28977
1.29545
1.29608
1.29392
1.2828
1.26506
1.25706
1.25594
1.25717
1.26315
1.27577
1.28985
1.29306
1.29234
1.2957
1.34102
1.57859
2.14593
2.55761
2.70299
2.75086
2.77113
2.7674
2.74671
2.71566
2.68142
2.706
2.84043
3.0256
3.19664
3.30559
3.33103
3.30833
3.26586
3.2191
3.1735
2.36899
2.31785
2.25238
2.15876
2.05406
1.99594
1.97962
1.96962
1.95548
1.93523
1.91542
1.89395
1.86518
1.80985
1.71845
1.66017
1.64762
1.63812
1.6238
1.60658
1.58751
1.56206
1.51835
1.47008
1.45164
1.44083
1.43093
1.42065
1.40715
1.38736
1.34952
1.29338
1.26844
1.26246
1.25864
1.25409
1.24668
1.23849
1.22894
1.21484
1.18465
1.13669
1.11376
1.10939
1.10834
1.10681
1.10115
1.09549
1.08899
1.07875
1.0559
1.01493
0.992345
0.988293
0.98588
0.984091
0.981027
0.977535
0.973198
0.966425
0.954538
0.931508
0.905995
0.893591
0.88579
0.881386
0.878603
0.874066
0.865792
0.856057
0.853001
0.85441
0.855771
0.856719
0.863203
0.877128
0.914942
0.971933
1.0373
1.10286
1.15813
1.20464
1.24076
1.26158
1.26875
1.271
1.27047
1.26169
1.24891
1.24971
1.25468
1.26375
1.28219
1.29397
1.29385
1.29138
1.2843
1.2676
1.25528
1.25292
1.25244
1.25545
1.26742
1.28442
1.29116
1.29211
1.29892
1.34874
1.64119
2.15567
2.60172
2.69947
2.74155
2.7386
2.74136
2.74153
2.72549
2.70878
2.71423
2.81002
3.00186
3.17151
3.28476
3.32525
3.31543
3.28595
3.25181
3.21302
3.1741
2.41002
2.34726
2.26135
2.15042
2.07317
2.05141
2.03523
2.02653
2.01497
1.9941
1.97105
1.94455
1.89919
1.80822
1.7191
1.69585
1.68644
1.67671
1.66469
1.64883
1.62876
1.59896
1.54856
1.5023
1.48326
1.47131
1.46069
1.44923
1.4336
1.40883
1.36384
1.31901
1.30678
1.30033
1.29591
1.28824
1.27893
1.26881
1.25543
1.23118
1.18586
1.15004
1.14285
1.13943
1.13946
1.13486
1.12814
1.12151
1.11286
1.09611
1.06017
1.02647
1.0192
1.01571
1.01374
1.01134
1.00686
1.00192
0.995658
0.985347
0.965747
0.939289
0.924774
0.919794
0.91424
0.907649
0.901945
0.894263
0.883125
0.870595
0.863134
0.860667
0.859739
0.85789
0.851151
0.839968
0.841629
0.857947
0.89618
0.970442
1.04834
1.12421
1.17524
1.21539
1.24061
1.2474
1.25048
1.24544
1.23607
1.23908
1.25052
1.26851
1.28597
1.2903
1.28929
1.28467
1.27385
1.25829
1.25279
1.25247
1.25347
1.26219
1.28032
1.28921
1.29144
1.30279
1.36634
1.66004
2.25978
2.56511
2.6442
2.69357
2.73968
2.75711
2.75327
2.73326
2.71821
2.7196
2.78373
2.96829
3.14655
3.26962
3.32645
3.33671
3.31156
3.27577
3.2428
3.20539
3.16953
2.43235
2.36338
2.26316
2.16596
2.13624
2.11325
2.09161
2.08006
2.06748
2.04521
2.01755
1.9822
1.91047
1.80433
1.75237
1.74081
1.72825
1.71421
1.70346
1.68902
1.6673
1.63263
1.58001
1.53801
1.51607
1.50221
1.48971
1.47579
1.45754
1.4257
1.38329
1.35521
1.34384
1.33668
1.33106
1.32222
1.3111
1.2978
1.27692
1.23695
1.19147
1.17846
1.17341
1.17024
1.16817
1.16214
1.15471
1.14627
1.13314
1.10394
1.06359
1.04977
1.04657
1.04355
1.04111
1.0374
1.03237
1.02649
1.01787
1.00003
0.970806
0.953563
0.948862
0.944639
0.939835
0.933189
0.923772
0.912384
0.899758
0.889072
0.883237
0.87895
0.875118
0.869486
0.857364
0.840114
0.835303
0.834858
0.839689
0.861156
0.906292
0.972818
1.0505
1.12145
1.18212
1.19686
1.21312
1.21978
1.21541
1.22297
1.24885
1.27146
1.27963
1.27997
1.27755
1.27218
1.2605
1.24938
1.24915
1.25065
1.256
1.2727
1.28864
1.29077
1.30386
1.40305
1.73583
2.29483
2.58315
2.68738
2.72008
2.75846
2.7855
2.77543
2.75033
2.72622
2.70494
2.74662
2.90007
3.09846
3.23646
3.32155
3.35227
3.34169
3.30967
3.26678
3.22121
3.17979
3.15548
2.44541
2.37153
2.27453
2.2234
2.20562
2.1782
2.14872
2.13137
2.11361
2.08741
2.05189
1.998
1.90666
1.82244
1.80089
1.79117
1.77422
1.75436
1.74081
1.72466
1.70015
1.65984
1.60825
1.57406
1.55289
1.53738
1.52252
1.50489
1.48213
1.44394
1.40775
1.39114
1.3788
1.37036
1.36409
1.35502
1.34233
1.32431
1.29043
1.2392
1.21542
1.21012
1.20522
1.20084
1.1956
1.18879
1.18038
1.16857
1.14614
1.10544
1.08052
1.07638
1.07452
1.07157
1.06731
1.0625
1.05639
1.04833
1.03427
1.0072
0.983478
0.977405
0.97358
0.968133
0.962172
0.954253
0.941426
0.927297
0.916051
0.907762
0.903125
0.899247
0.893759
0.8852
0.869593
0.847262
0.837201
0.836597
0.838695
0.842844
0.851254
0.870298
0.907798
0.95357
1.01662
1.07723
1.12648
1.17085
1.1885
1.2115
1.24912
1.2688
1.2714
1.2704
1.26467
1.256
1.2455
1.24152
1.24391
1.24882
1.26038
1.27977
1.28729
1.30472
1.40906
1.81033
2.36083
2.67713
2.69562
2.71745
2.74387
2.77174
2.78236
2.76029
2.7332
2.71742
2.731
2.84597
3.05377
3.20287
3.30417
3.35219
3.3558
3.33511
3.2993
3.2477
3.18962
3.15556
3.13819
2.46525
2.39015
2.31621
2.28904
2.26624
2.23596
2.2037
2.18259
2.15811
2.12357
2.07171
1.99352
1.90719
1.86359
1.85003
1.84107
1.82248
1.80018
1.78196
1.76106
1.72961
1.67766
1.63079
1.6069
1.58971
1.57513
1.55923
1.53853
1.50955
1.4657
1.43475
1.42331
1.41087
1.40148
1.39494
1.38536
1.3707
1.34534
1.29749
1.25582
1.24697
1.24187
1.23707
1.23025
1.22298
1.21507
1.20467
1.18682
1.1508
1.11514
1.10665
1.1029
1.1015
1.09804
1.09285
1.08719
1.07934
1.06624
1.04192
1.0156
1.0064
1.00204
0.997388
0.99133
0.98397
0.973302
0.956308
0.942885
0.934384
0.926478
0.921826
0.919131
0.914273
0.90573
0.89198
0.872215
0.857716
0.853759
0.851818
0.850794
0.852532
0.854288
0.856362
0.862355
0.877983
0.91687
0.971141
1.04557
1.11573
1.17455
1.22308
1.25166
1.25969
1.26314
1.25798
1.24125
1.23499
1.23634
1.2416
1.25195
1.26864
1.27957
1.3064
1.44533
1.84956
2.4012
2.67293
2.74042
2.71274
2.712
2.73623
2.7542
2.76008
2.74662
2.73656
2.75102
2.83741
3.03087
3.19556
3.28683
3.34084
3.36103
3.34427
3.31636
3.27737
3.22024
3.1694
3.14178
3.12491
2.49944
2.43355
2.37952
2.34572
2.31416
2.28152
2.25164
2.2288
2.19806
2.15261
2.08183
1.99058
1.93398
1.9104
1.8981
1.88784
1.86824
1.84602
1.82553
1.80003
1.75794
1.69291
1.65453
1.63701
1.62317
1.61177
1.59671
1.57435
1.54011
1.49142
1.46526
1.45462
1.44172
1.43145
1.42311
1.41239
1.39416
1.35969
1.30868
1.28509
1.27832
1.27277
1.26749
1.25978
1.25092
1.24105
1.22598
1.19572
1.15482
1.13942
1.13493
1.1304
1.12764
1.12352
1.11755
1.11047
1.09936
1.07761
1.04717
1.03529
1.03184
1.02532
1.0197
1.01329
1.00474
0.991258
0.972514
0.960905
0.953802
0.945808
0.939489
0.935435
0.930352
0.922287
0.911176
0.897108
0.883579
0.876035
0.871352
0.867019
0.862881
0.85845
0.853452
0.845858
0.843544
0.847297
0.863281
0.90678
0.980429
1.05951
1.13282
1.18964
1.2204
1.23649
1.23586
1.23069
1.22566
1.22877
1.24003
1.26154
1.27631
1.30496
1.49773
1.93719
2.48052
2.66378
2.69107
2.72736
2.74054
2.75184
2.76074
2.75109
2.7421
2.73736
2.75591
2.84154
3.02218
3.21939
3.3007
3.33926
3.35701
3.353
3.32438
3.29318
3.25413
3.20469
3.17024
3.14411
3.13107
2.54624
2.49393
2.44475
2.39765
2.35479
2.31674
2.29021
2.26517
2.22987
2.17572
2.08815
2.01004
1.97892
1.95622
1.94325
1.93156
1.91118
1.88963
1.86843
1.8383
1.78278
1.7106
1.6837
1.66786
1.65441
1.64525
1.63085
1.60765
1.57214
1.52208
1.49854
1.48723
1.47361
1.46187
1.45051
1.43655
1.41268
1.36891
1.33115
1.31725
1.30907
1.30231
1.29659
1.28906
1.27918
1.26605
1.24188
1.19896
1.17241
1.1678
1.16348
1.15721
1.15299
1.14866
1.14225
1.13319
1.11656
1.08459
1.06032
1.05651
1.05501
1.04813
1.04121
1.03444
1.02503
1.00924
0.989793
0.979772
0.973291
0.965939
0.958537
0.952618
0.946246
0.938176
0.929141
0.919629
0.910041
0.902443
0.896364
0.889907
0.882313
0.872565
0.85763
0.844622
0.8419
0.842314
0.843263
0.84957
0.871507
0.915593
0.981362
1.05091
1.10042
1.14524
1.17326
1.19312
1.20068
1.21065
1.23233
1.26797
1.32935
1.5241
2.03683
2.48751
2.72047
2.70516
2.68963
2.7094
2.74591
2.77127
2.76886
2.74799
2.73002
2.73471
2.79647
2.97412
3.18693
3.34257
3.37817
3.38318
3.37136
3.34389
3.30771
3.27606
3.23873
3.20539
3.18107
3.16245
3.16423
2.59248
2.54846
2.49868
2.44458
2.39207
2.34949
2.32242
2.29351
2.25533
2.19578
2.10788
2.0546
2.02615
2.00163
1.98662
1.97319
1.95181
1.92994
1.90753
1.87209
1.80442
1.73561
1.71684
1.69998
1.68478
1.67517
1.66023
1.63675
1.60294
1.55865
1.53265
1.51993
1.50672
1.4939
1.47969
1.46011
1.42649
1.37937
1.35944
1.3502
1.33962
1.33112
1.32495
1.31746
1.30663
1.2883
1.25132
1.20995
1.19889
1.19519
1.19175
1.18445
1.17803
1.17308
1.16583
1.154
1.13036
1.09506
1.0805
1.07746
1.07627
1.06976
1.06148
1.05457
1.04511
1.0291
1.00992
0.999822
0.992827
0.985439
0.977844
0.970145
0.962163
0.953177
0.945249
0.938639
0.932177
0.926386
0.920919
0.913909
0.903324
0.887131
0.867231
0.858009
0.855479
0.851513
0.847597
0.848727
0.851927
0.858908
0.874163
0.89688
0.934773
0.986981
1.0538
1.11298
1.15476
1.18111
1.21039
1.32004
1.61932
2.09466
2.5518
2.69009
2.69379
2.66999
2.6608
2.69494
2.73136
2.74837
2.746
2.73438
2.73132
2.76756
2.90355
3.11848
3.29351
3.4113
3.43964
3.42131
3.38306
3.33597
3.28427
3.24726
3.22192
3.20246
3.1905
3.19851
3.21481
2.63634
2.59263
2.53915
2.48353
2.42703
2.3859
2.35779
2.32387
2.28105
2.21898
2.14134
2.10072
2.07208
2.04769
2.03243
2.01549
1.99229
1.96931
1.94315
1.89964
1.82278
1.76642
1.75198
1.7338
1.71667
1.70457
1.6877
1.66448
1.63352
1.5971
1.56722
1.55185
1.53952
1.5263
1.50923
1.48253
1.43733
1.39869
1.3892
1.38161
1.37044
1.36052
1.35322
1.34516
1.33194
1.3057
1.25995
1.23219
1.2257
1.22192
1.21891
1.21177
1.20388
1.19678
1.18839
1.17173
1.14235
1.11224
1.10225
1.09843
1.09689
1.09155
1.08153
1.07313
1.06428
1.04929
1.03047
1.01958
1.01246
1.00458
0.996654
0.988113
0.979336
0.970368
0.962972
0.957803
0.952795
0.948078
0.942687
0.934177
0.919222
0.897084
0.88197
0.878876
0.876707
0.871933
0.864506
0.859141
0.857373
0.857509
0.85557
0.848778
0.850416
0.863006
0.903926
0.969745
1.05143
1.13255
1.22363
1.62506
2.15323
2.56101
2.70417
2.73333
2.7211
2.7077
2.69355
2.70321
2.72302
2.72493
2.72057
2.72076
2.75186
2.86867
3.07335
3.23608
3.35755
3.43971
3.45619
3.4285
3.38371
3.32458
3.26484
3.23443
3.21611
3.20535
3.21309
3.23232
3.22555
2.67473
2.62511
2.5709
2.51773
2.4645
2.43012
2.39904
2.36011
2.31366
2.24769
2.17464
2.14308
2.11707
2.09433
2.07796
2.0588
2.03385
2.00812
1.97551
1.92169
1.83974
1.8003
1.78727
1.76782
1.74965
1.73524
1.71715
1.69379
1.66566
1.63395
1.60145
1.5816
1.56983
1.55639
1.53646
1.50203
1.45142
1.42651
1.42022
1.41288
1.40207
1.39166
1.38248
1.37252
1.35439
1.31775
1.27405
1.2586
1.25296
1.24928
1.24551
1.23813
1.23
1.22088
1.2094
1.18649
1.15349
1.13504
1.12519
1.11943
1.11657
1.11304
1.10372
1.09276
1.08309
1.06895
1.05018
1.03813
1.03148
1.0241
1.01538
1.00632
0.997224
0.989347
0.98206
0.977487
0.973132
0.968653
0.962506
0.950155
0.927068
0.90757
0.902877
0.901415
0.899828
0.895244
0.887485
0.879169
0.873006
0.867648
0.858513
0.844646
0.838854
0.838597
0.844247
0.865175
0.918343
1.01608
1.35718
1.99483
2.35532
2.61747
2.65267
2.65398
2.68138
2.68887
2.70158
2.7177
2.72905
2.72464
2.71872
2.739
2.83242
3.02837
3.21748
3.31655
3.38264
3.42574
3.43039
3.4117
3.3806
3.32997
3.27233
3.24099
3.22314
3.22015
3.2376
3.24057
3.21609
2.71001
2.65276
2.59993
2.54996
2.50789
2.47908
2.44541
2.40436
2.35327
2.27594
2.20658
2.1821
2.15906
2.13995
2.12369
2.10347
2.07697
2.04609
2.00366
1.93666
1.85858
1.83457
1.82248
1.8023
1.78395
1.76832
1.74991
1.72672
1.70083
1.66955
1.63327
1.60903
1.59674
1.58197
1.55866
1.518
1.47271
1.45882
1.45342
1.44569
1.43504
1.4247
1.41359
1.39941
1.3722
1.32665
1.2951
1.28627
1.28118
1.27623
1.2709
1.26433
1.25639
1.24588
1.2294
1.19908
1.16608
1.15702
1.14968
1.14146
1.13684
1.13348
1.12703
1.11608
1.10238
1.08639
1.0673
1.05424
1.04838
1.04234
1.03405
1.02531
1.01712
1.01011
1.00318
0.997568
0.992519
0.986225
0.977385
0.960299
0.935661
0.925249
0.922934
0.921849
0.92064
0.916743
0.910044
0.90182
0.893721
0.884164
0.867708
0.850183
0.844439
0.84207
0.844172
0.854238
0.953319
1.23811
1.77463
2.05471
2.17497
2.33793
2.42402
2.47577
2.53528
2.6167
2.66879
2.70263
2.71639
2.71891
2.74325
2.80791
2.97075
3.17584
3.30142
3.36334
3.38877
3.40034
3.39008
3.37591
3.35424
3.31413
3.27262
3.24725
3.23403
3.23702
3.244
3.22686
3.20168
2.74362
2.68187
2.62901
2.58375
2.55557
2.52997
2.49517
2.45255
2.39233
2.29921
2.24267
2.22145
2.19956
2.18396
2.16799
2.14692
2.11894
2.08165
2.02629
1.94782
1.88429
1.86888
1.85792
1.83754
1.81989
1.80467
1.78628
1.76356
1.7365
1.70171
1.66171
1.63503
1.62121
1.60452
1.57802
1.53465
1.50174
1.49363
1.48824
1.47985
1.46933
1.45879
1.44559
1.42438
1.38285
1.33778
1.32098
1.31458
1.31113
1.30382
1.29647
1.29004
1.28234
1.27092
1.24779
1.21061
1.18452
1.17803
1.1724
1.16454
1.15909
1.15434
1.1485
1.13908
1.12255
1.10268
1.08492
1.07147
1.06483
1.05971
1.05261
1.04472
1.03805
1.03191
1.02548
1.01851
1.01183
1.00179
0.985806
0.965903
0.950153
0.945002
0.942609
0.941866
0.940451
0.936659
0.9307
0.923066
0.91352
0.898488
0.876371
0.863493
0.858898
0.855908
0.863272
0.929673
1.25643
1.67095
1.99382
2.03153
2.02322
2.05805
2.13656
2.23745
2.34718
2.45215
2.52869
2.58981
2.63515
2.66466
2.74115
2.90142
3.10862
3.27519
3.36674
3.40186
3.40507
3.38616
3.35923
3.33744
3.31524
3.2903
3.27093
3.25708
3.24829
3.2494
3.23666
3.21076
3.18552
2.7772
2.71443
2.66172
2.62532
2.60359
2.5782
2.54312
2.49727
2.42352
2.32424
2.28702
2.26311
2.23977
2.22599
2.21018
2.18789
2.15671
2.11082
2.04203
1.96223
1.91738
1.90567
1.89531
1.8745
1.8572
1.84312
1.82502
1.80152
1.7701
1.72879
1.68618
1.65948
1.64481
1.62754
1.59968
1.55851
1.53652
1.53031
1.52413
1.51443
1.50363
1.49182
1.47454
1.44121
1.38906
1.35796
1.3489
1.34357
1.34107
1.33333
1.32432
1.31657
1.30766
1.29256
1.25956
1.22347
1.20734
1.19994
1.19415
1.18756
1.18262
1.17765
1.17044
1.16
1.14026
1.11616
1.10155
1.09078
1.08236
1.07779
1.07189
1.06475
1.05867
1.05337
1.04732
1.03942
1.02917
1.0125
0.990631
0.977726
0.969843
0.964931
0.962304
0.961519
0.959739
0.955826
0.949831
0.941705
0.929441
0.908708
0.891132
0.885163
0.88194
0.890434
0.956722
1.23945
1.75436
1.99673
2.02509
1.99328
1.97011
1.97286
1.99262
2.02771
2.08122
2.15028
2.22329
2.29814
2.39374
2.5162
2.70838
2.94509
3.16119
3.29072
3.36247
3.3849
3.36429
3.33634
3.31794
3.30089
3.27935
3.2689
3.2713
3.27372
3.27361
3.25951
3.23005
3.19871
3.16532
2.81072
2.75169
2.70534
2.67294
2.65002
2.62229
2.58454
2.53173
2.44385
2.36058
2.33524
2.30743
2.28209
2.26771
2.24955
2.22398
2.18727
2.13045
2.05442
1.98709
1.95618
1.94626
1.93533
1.91483
1.89801
1.88317
1.86415
1.83625
1.79488
1.74693
1.70852
1.68401
1.66948
1.65335
1.62744
1.59102
1.57416
1.5683
1.55988
1.54811
1.53548
1.52023
1.49453
1.4461
1.40147
1.38591
1.37851
1.37409
1.37166
1.36395
1.35406
1.34456
1.33272
1.30896
1.26509
1.23971
1.23293
1.22415
1.21664
1.21118
1.20667
1.20154
1.19361
1.18045
1.15526
1.12881
1.11844
1.11017
1.10191
1.09786
1.09279
1.086
1.0797
1.07439
1.06822
1.05871
1.04222
1.01696
0.999711
0.995048
0.989894
0.984768
0.982142
0.981264
0.978992
0.974531
0.967633
0.957327
0.939797
0.91662
0.907353
0.906347
0.917458
1.01617
1.29471
1.78418
2.05388
2.08349
2.076
2.03237
1.99085
1.97512
1.9674
1.97929
1.98831
1.98787
1.99221
2.02368
2.10558
2.26977
2.53973
2.81926
3.04376
3.15055
3.24656
3.28804
3.29177
3.28764
3.27089
3.25267
3.23464
3.24787
3.28208
3.30305
3.29315
3.26152
3.2294
3.19282
3.14983
2.84447
2.79478
2.75423
2.72019
2.69399
2.66183
2.61821
2.55591
2.45976
2.40658
2.38456
2.35391
2.32693
2.30978
2.28723
2.25665
2.21106
2.14029
2.0698
2.02226
1.99945
1.9898
1.97735
1.95734
1.94057
1.92513
1.90369
1.86532
1.80721
1.76127
1.73343
1.71164
1.69713
1.68234
1.66103
1.63084
1.61281
1.60432
1.59321
1.57942
1.56372
1.54209
1.50198
1.44961
1.42697
1.41746
1.40987
1.40601
1.4029
1.39502
1.3849
1.37327
1.35503
1.31659
1.27259
1.26127
1.25746
1.24915
1.24054
1.23582
1.23161
1.2257
1.2162
1.1982
1.16606
1.14374
1.13739
1.12953
1.12254
1.11934
1.11461
1.10799
1.10121
1.09505
1.08769
1.07401
1.04827
1.02415
1.01783
1.01403
1.00892
1.00448
1.00219
1.00084
0.997892
0.992562
0.98371
0.969129
0.945639
0.928857
0.92856
0.940459
1.06636
1.43177
1.8088
2.10712
2.15864
2.1486
2.11346
2.06906
2.03455
2.0084
1.99777
1.98883
1.98607
1.98829
1.99601
2.01566
2.06384
2.23357
2.44214
2.59141
2.739
2.8548
2.94668
3.03089
3.10582
3.14318
3.15754
3.16527
3.18365
3.2237
3.2729
3.28965
3.27532
3.24877
3.22452
3.19146
3.14343
2.88155
2.84051
2.80088
2.76461
2.73431
2.69635
2.64597
2.57219
2.48498
2.45539
2.43254
2.40051
2.37218
2.35103
2.32328
2.28577
2.2285
2.14841
2.09563
2.06573
2.04699
2.03493
2.02037
2.00101
1.98341
1.9659
1.93779
1.87732
1.81267
1.78342
1.7647
1.74445
1.72979
1.71608
1.6983
1.67415
1.65119
1.63543
1.62163
1.60662
1.58764
1.55703
1.50485
1.46714
1.4586
1.45053
1.44279
1.43835
1.43396
1.4259
1.41525
1.40019
1.3702
1.31776
1.29017
1.28549
1.28205
1.27459
1.26636
1.26163
1.25662
1.24946
1.23707
1.2114
1.17523
1.16196
1.15779
1.15005
1.14456
1.14191
1.13707
1.13032
1.12322
1.11585
1.10541
1.08323
1.05192
1.03993
1.03706
1.0326
1.02763
1.02405
1.02209
1.02017
1.01655
1.00983
0.997414
0.976211
0.952143
0.948977
0.965677
1.08085
1.53396
1.94519
2.16433
2.19831
2.16664
2.12189
2.0862
2.08339
2.074
2.06655
2.05505
2.03351
2.01809
2.01255
2.02019
2.06382
2.19187
2.37944
2.47079
2.50292
2.53519
2.55913
2.58632
2.62438
2.67757
2.75142
2.84149
2.93526
3.03034
3.108
3.17262
3.19367
3.20378
3.2041
3.19277
3.17175
3.13292
2.92639
2.88547
2.84248
2.80506
2.7714
2.72845
2.67004
2.58529
2.52366
2.50183
2.47781
2.44558
2.41634
2.39116
2.35855
2.31192
2.23927
2.16485
2.13274
2.11407
2.09739
2.08013
2.06331
2.04431
2.02451
2.00079
1.95102
1.87289
1.83032
1.81618
1.8012
1.78263
1.76769
1.75422
1.73733
1.71378
1.68544
1.6618
1.64489
1.62858
1.60671
1.56917
1.51765
1.49718
1.49098
1.48445
1.47684
1.4701
1.46411
1.45539
1.44258
1.41997
1.37169
1.32497
1.31493
1.31143
1.30807
1.30101
1.2939
1.2884
1.28184
1.27217
1.25369
1.21825
1.18933
1.18334
1.17816
1.17058
1.16706
1.16498
1.16002
1.15312
1.14523
1.13565
1.119
1.08779
1.06413
1.05935
1.0561
1.05116
1.04647
1.04342
1.04136
1.03886
1.0346
1.02574
1.00796
0.980643
0.97066
0.992707
1.13275
1.53071
2.06523
2.24284
2.26086
2.22954
2.16769
2.1209
2.09516
2.09574
2.10433
2.10554
2.08707
2.05889
2.04593
2.04776
2.07297
2.17459
2.36535
2.4861
2.53201
2.5452
2.54344
2.52075
2.48329
2.45929
2.44919
2.4544
2.48324
2.55235
2.66204
2.7697
2.86862
2.95582
3.0209
3.07345
3.08872
3.09293
3.09395
2.97349
2.92968
2.88383
2.84562
2.80756
2.75894
2.68804
2.60592
2.56934
2.54648
2.52095
2.48969
2.45901
2.42943
2.39239
2.33321
2.24959
2.19736
2.17745
2.16248
2.14638
2.12641
2.10701
2.08618
2.06119
2.0194
1.94107
1.87734
1.86379
1.85392
1.84023
1.82563
1.81066
1.79541
1.77724
1.74909
1.71142
1.68159
1.66383
1.64717
1.62402
1.5863
1.54425
1.53021
1.52399
1.5184
1.51034
1.50129
1.49308
1.48215
1.46376
1.42638
1.37054
1.34597
1.34118
1.33869
1.33464
1.32827
1.3224
1.31601
1.30742
1.29228
1.2615
1.22332
1.21159
1.20682
1.19838
1.19144
1.18968
1.18822
1.18325
1.17599
1.16698
1.15226
1.12675
1.09615
1.08315
1.07875
1.07505
1.06996
1.06539
1.06258
1.06016
1.05702
1.05146
1.03933
1.01524
0.99663
1.02149
1.21545
1.59584
2.0642
2.33942
2.35544
2.32229
2.24196
2.17979
2.14396
2.12998
2.12906
2.13429
2.12586
2.10802
2.0914
2.08638
2.10287
2.18083
2.35104
2.49384
2.57071
2.60675
2.60115
2.56937
2.52705
2.48025
2.45014
2.43633
2.42626
2.43239
2.43498
2.44143
2.45059
2.48188
2.53838
2.60889
2.6926
2.77995
2.86967
2.96603
3.01824
2.97475
2.92961
2.88957
2.84483
2.7864
2.69986
2.64013
2.61605
2.58993
2.56242
2.53275
2.50177
2.46847
2.42361
2.34617
2.26817
2.24107
2.2232
2.20829
2.19242
2.17221
2.15021
2.12448
2.08729
2.01665
1.93397
1.90668
1.90171
1.89218
1.88107
1.87045
1.85563
1.83774
1.81494
1.7781
1.72997
1.69732
1.68168
1.66598
1.64397
1.61281
1.57849
1.56377
1.55708
1.55055
1.54199
1.53167
1.52029
1.50472
1.47525
1.42491
1.38316
1.37391
1.36949
1.36675
1.36179
1.35662
1.35121
1.34367
1.3315
1.30686
1.26358
1.2374
1.23425
1.23027
1.2201
1.2136
1.21258
1.21158
1.20657
1.19836
1.18624
1.16363
1.13165
1.11395
1.10458
1.09839
1.09406
1.08887
1.08442
1.08166
1.07885
1.07429
1.0662
1.05062
1.03037
1.05533
1.27761
1.76734
2.12052
2.354
2.37544
2.3553
2.3225
2.26947
2.21998
2.19231
2.17808
2.16846
2.16024
2.15023
2.14368
2.13971
2.15416
2.21854
2.37129
2.51045
2.60773
2.65332
2.66296
2.63989
2.60261
2.55761
2.50555
2.46688
2.44699
2.43159
2.42598
2.42854
2.4235
2.4162
2.3966
2.38161
2.37291
2.38014
2.41733
2.48691
2.59049
3.0623
3.02195
2.97995
2.93603
2.88099
2.80621
2.7157
2.68266
2.66152
2.63312
2.60468
2.57629
2.54482
2.50774
2.44944
2.35618
2.3022
2.28591
2.26606
2.24923
2.23498
2.21612
2.19115
2.1566
2.09899
2.01016
1.95575
1.94646
1.94251
1.93165
1.92223
1.91354
1.89871
1.87698
1.84506
1.7962