/*--------------------------------*- C++ -*----------------------------------*\
  =========                 |
  \\      /  F ield         | OpenFOAM: The Open Source CFD Toolbox
   \\    /   O peration     | Website:  https://openfoam.org
    \\  /    A nd           | Version:  7
     \\/     M anipulation  |
\*---------------------------------------------------------------------------*/
FoamFile
{
    version     2.0;
    format      ascii;
    class       volScalarField;
    location    "2.3";
    object      T;
}
// * * * * * * * * * * * * * * * * * * * * * * * * * * * * * * * * * * * * * //

dimensions      [0 0 0 1 0 0 0];

internalField   nonuniform List<scalar> 
4128
(
1.88094
1.85302
1.83551
1.83011
1.82495
1.81933
1.81345
1.80766
1.80156
1.79299
1.77569
1.74999
1.73737
1.7343
1.73162
1.72743
1.72189
1.71538
1.70784
1.69754
1.68121
1.66362
1.65572
1.65206
1.64806
1.64339
1.63812
1.63077
1.6178
1.60313
1.59522
1.59141
1.58822
1.58507
1.58138
1.57649
1.56843
1.55265
1.53595
1.53006
1.52732
1.52454
1.52056
1.51653
1.5123
1.5069
1.49633
1.47956
1.47087
1.46837
1.46779
1.46983
1.47409
1.47655
1.48369
1.49626
1.51074
1.53303
1.55617
1.58093
1.59477
1.60653
1.62432
1.63803
1.64128
1.64302
1.64388
1.6431
1.64041
1.638
1.63894
1.64197
1.64725
1.6561
1.66596
1.66962
1.6702
1.67035
1.66919
1.66421
1.65863
1.65646
1.65584
1.65586
1.65656
1.65896
1.66379
1.66688
1.66703
1.66681
1.66546
1.66136
1.65769
1.65675
1.6564
1.65632
1.65725
1.65932
1.66021
1.66006
1.65949
1.6582
1.65658
1.65618
1.6564
1.65677
1.65733
1.65733
1.65687
1.6562
1.65485
1.65286
1.65199
1.65148
1.65082
1.65229
1.66084
1.71552
1.85191
2.01217
2.04272
2.04043
2.02868
2.02569
2.03112
2.04801
2.0876
2.12103
2.13045
1.86529
1.84248
1.83531
1.83028
1.82447
1.81831
1.81203
1.80581
1.79828
1.78419
1.75927
1.74234
1.73857
1.7364
1.73359
1.72919
1.72341
1.7161
1.70583
1.68945
1.67064
1.66123
1.65763
1.65414
1.65021
1.64547
1.6388
1.62695
1.61141
1.60264
1.599
1.59578
1.59234
1.5887
1.58452
1.57809
1.56305
1.5438
1.53642
1.53365
1.53228
1.52943
1.52504
1.52069
1.51555
1.50747
1.49287
1.47841
1.4734
1.47079
1.4693
1.46862
1.46903
1.4688
1.46724
1.46417
1.46202
1.46708
1.48215
1.50959
1.5441
1.57093
1.59775
1.61412
1.62018
1.62333
1.62378
1.62392
1.62425
1.62372
1.62501
1.62954
1.63758
1.64735
1.65441
1.65615
1.65597
1.65527
1.65249
1.64613
1.64229
1.64165
1.64153
1.64213
1.64503
1.65066
1.65568
1.65665
1.65623
1.65535
1.65289
1.64788
1.64537
1.64508
1.64487
1.64498
1.6467
1.64878
1.64916
1.64902
1.64815
1.64617
1.64463
1.64447
1.64468
1.64529
1.64634
1.64681
1.64661
1.64619
1.64509
1.64308
1.64153
1.64051
1.64182
1.64959
1.7066
1.86195
1.98181
2.04352
2.04391
2.03542
2.02319
2.02138
2.03203
2.06071
2.09596
2.11535
2.11672
1.85311
1.84071
1.83538
1.82976
1.82359
1.81733
1.81109
1.80432
1.79276
1.76934
1.74813
1.74288
1.74008
1.73749
1.73398
1.72932
1.72339
1.71486
1.70013
1.67953
1.66696
1.66282
1.6593
1.6554
1.65087
1.64485
1.63395
1.61818
1.60904
1.60601
1.60372
1.60031
1.59643
1.59221
1.58623
1.57349
1.55401
1.5434
1.54024
1.53839
1.53756
1.53405
1.52979
1.52535
1.51911
1.50581
1.48764
1.48012
1.47731
1.47548
1.4738
1.47138
1.46891
1.46598
1.46081
1.45199
1.44541
1.44477
1.44681
1.45603
1.48093
1.51259
1.54557
1.57021
1.58797
1.5977
1.60112
1.60434
1.60646
1.60785
1.61222
1.62064
1.63171
1.63855
1.6412
1.64193
1.64157
1.63989
1.636
1.63034
1.62839
1.62844
1.62857
1.63045
1.63669
1.64407
1.6465
1.64646
1.64551
1.64339
1.63907
1.63432
1.63332
1.63343
1.63359
1.63444
1.63709
1.6391
1.63947
1.63946
1.63843
1.63587
1.63438
1.63425
1.63438
1.63514
1.63675
1.63758
1.63756
1.63733
1.63611
1.63325
1.63096
1.63204
1.64159
1.69328
1.85738
1.98593
2.03225
2.03199
2.02537
2.01631
2.00762
2.01402
2.04025
2.07631
2.09983
2.10509
2.10429
1.84953
1.84241
1.83659
1.83052
1.82434
1.81829
1.81171
1.8018
1.7804
1.75605
1.74866
1.74508
1.74162
1.73855
1.73437
1.72882
1.72163
1.71016
1.69102
1.67496
1.66943
1.66558
1.6615
1.65688
1.65072
1.64009
1.62445
1.61456
1.61169
1.6105
1.60832
1.60457
1.60042
1.59503
1.58401
1.56367
1.54977
1.54621
1.54401
1.54364
1.54246
1.53859
1.5342
1.52846
1.51862
1.50178
1.48965
1.48619
1.48409
1.4824
1.47955
1.47662
1.47341
1.46896
1.45986
1.44614
1.43857
1.43684
1.43787
1.44157
1.4478
1.45912
1.47747
1.49996
1.52195
1.54403
1.55956
1.57296
1.5813
1.5886
1.59813
1.61026
1.62215
1.62664
1.62836
1.62938
1.62924
1.6268
1.62178
1.61781
1.61805
1.6187
1.61939
1.62295
1.63131
1.63609
1.63636
1.63615
1.63424
1.62999
1.62478
1.62172
1.6216
1.62219
1.62302
1.62497
1.62852
1.6305
1.63104
1.63113
1.6297
1.62645
1.62502
1.62478
1.62481
1.62597
1.62815
1.62911
1.6292
1.62892
1.62689
1.62296
1.62338
1.63182
1.69722
1.83653
1.98902
2.02276
2.02195
2.01316
2.00314
1.99544
1.99839
2.01654
2.06079
2.09363
2.10106
2.09695
2.08922
1.8511
1.84562
1.83974
1.8335
1.82732
1.82075
1.81143
1.79149
1.76545
1.75439
1.75196
1.74862
1.74451
1.74022
1.73504
1.72821
1.71826
1.70146
1.68337
1.67651
1.67296
1.66903
1.66445
1.65837
1.64826
1.63189
1.61935
1.61613
1.61521
1.61479
1.61201
1.60812
1.60325
1.59451
1.57587
1.55818
1.55329
1.55101
1.54978
1.54951
1.54681
1.54293
1.53816
1.53031
1.5142
1.49851
1.49391
1.49143
1.49006
1.48808
1.48509
1.482
1.47792
1.47056
1.45743
1.44486
1.44106
1.43859
1.437
1.43837
1.44153
1.44214
1.44117
1.44482
1.45196
1.46881
1.49464
1.52202
1.54403
1.56364
1.58004
1.59309
1.60551
1.61125
1.61345
1.61498
1.6151
1.61309
1.60889
1.60682
1.60839
1.61026
1.61234
1.61796
1.62525
1.62676
1.62667
1.62581
1.62253
1.61682
1.61226
1.6109
1.61116
1.61213
1.61395
1.6177
1.62206
1.62333
1.62365
1.62332
1.62018
1.61645
1.61549
1.61515
1.61531
1.61731
1.61986
1.62081
1.621
1.62004
1.61658
1.61613
1.6246
1.68829
1.85222
1.9625
2.01814
2.02038
2.01664
2.0057
1.98971
1.98925
2.00128
2.03373
2.08309
2.10091
2.09829
2.08709
2.07209
1.85485
1.85015
1.84449
1.83815
1.83119
1.82178
1.80306
1.77647
1.76069
1.75755
1.75552
1.75268
1.74855
1.74342
1.73718
1.72833
1.71235
1.69137
1.68208
1.67911
1.67607
1.67223
1.66722
1.65903
1.64351
1.62703
1.62181
1.62004
1.61957
1.61815
1.61484
1.6105
1.60364
1.5878
1.56783
1.56073
1.55845
1.55681
1.55619
1.5544
1.55114
1.54707
1.54066
1.52738
1.50975
1.50241
1.5
1.49776
1.496
1.49347
1.49055
1.48716
1.4817
1.46974
1.45435
1.44866
1.44639
1.44382
1.44175
1.44052
1.43937
1.4373
1.43408
1.42825
1.42256
1.42416
1.43402
1.45505
1.48849
1.51973
1.54925
1.56806
1.58408
1.59402
1.59634
1.59825
1.59844
1.59728
1.59465
1.5941
1.59636
1.59972
1.60443
1.61189
1.6164
1.61653
1.61614
1.61481
1.61069
1.60463
1.60182
1.60141
1.60171
1.60339
1.60729
1.6129
1.616
1.61607
1.61578
1.61342
1.60844
1.60608
1.60574
1.60561
1.60643
1.60947
1.61196
1.61277
1.61242
1.61036
1.60943
1.62037
1.68448
1.84921
1.97192
2.00832
2.01206
2.00746
1.99829
1.9873
1.97895
1.98683
2.01453
2.05333
2.0891
2.09079
2.08717
2.07512
2.05789
1.85906
1.85434
1.84846
1.84152
1.83249
1.81542
1.7886
1.76862
1.76395
1.76144
1.7594
1.75676
1.75285
1.74763
1.74022
1.72742
1.70466
1.68856
1.68396
1.68111
1.67812
1.67409
1.6683
1.65748
1.63976
1.62984
1.62725
1.62544
1.62374
1.62098
1.61707
1.61117
1.59861
1.57881
1.5684
1.56615
1.56455
1.56352
1.56191
1.55901
1.55546
1.55027
1.53965
1.52111
1.51015
1.50775
1.506
1.50408
1.50157
1.49885
1.49573
1.49103
1.48212
1.46713
1.45814
1.456
1.45446
1.45215
1.44886
1.44562
1.44222
1.43795
1.43139
1.42156
1.41485
1.4146
1.41557
1.4195
1.43254
1.45438
1.48529
1.51912
1.54662
1.56878
1.57488
1.57767
1.57864
1.57936
1.58165
1.58154
1.58285
1.58781
1.5957
1.60293
1.60537
1.6053
1.60461
1.60292
1.59851
1.59323
1.5916
1.59141
1.5921
1.5959
1.60253
1.60733
1.60815
1.60769
1.60537
1.60083
1.59675
1.59618
1.59641
1.59696
1.5991
1.60302
1.60498
1.60484
1.604
1.60374
1.61424
1.69558
1.84018
1.97673
2.00098
1.99989
1.99539
1.98918
1.97889
1.97171
1.97448
1.99499
2.03353
2.06413
2.07812
2.07826
2.07251
2.06156
2.04367
1.86277
1.85699
1.85012
1.84148
1.8266
1.80164
1.77858
1.77164
1.76886
1.76592
1.76361
1.76085
1.75698
1.75136
1.74194
1.72162
1.69926
1.69159
1.68744
1.68341
1.67932
1.67455
1.66738
1.65409
1.64032
1.63567
1.63319
1.6308
1.62773
1.62385
1.61838
1.60814
1.58991
1.57591
1.57317
1.57182
1.57101
1.56932
1.56656
1.56334
1.55891
1.55068
1.53383
1.51886
1.51543
1.51399
1.51265
1.51007
1.50722
1.5043
1.50047
1.49334
1.4787
1.46566
1.46286
1.46132
1.46027
1.45889
1.45569
1.45202
1.44779
1.442
1.43189
1.41811
1.41187
1.41052
1.411
1.41331
1.41409
1.41658
1.42574
1.44652
1.47369
1.50488
1.52718
1.54805
1.55818
1.56163
1.56769
1.56966
1.57041
1.57701
1.58772
1.59357
1.59487
1.59479
1.59338
1.5903
1.58569
1.58229
1.58188
1.58192
1.58393
1.59055
1.59711
1.59883
1.59891
1.59712
1.59269
1.58756
1.58589
1.58619
1.58726
1.58931
1.59324
1.59714
1.59729
1.59714
1.59841
1.61107
1.69318
1.86407
1.95065
1.98661
1.9959
1.9964
1.99175
1.98069
1.96636
1.96425
1.97676
2.01006
2.04353
2.06436
2.06915
2.06804
2.05806
2.04511
2.0282
1.86512
1.85763
1.84862
1.83499
1.81254
1.78886
1.77901
1.77689
1.77451
1.77132
1.76848
1.76515
1.76059
1.75314
1.73626
1.71155
1.70021
1.69629
1.69171
1.68673
1.6816
1.67557
1.66561
1.65101
1.64326
1.64017
1.63755
1.63487
1.63124
1.62618
1.61794
1.60185
1.58443
1.57996
1.57855
1.57781
1.57641
1.57377
1.57068
1.5669
1.56051
1.5461
1.52824
1.52237
1.52084
1.52017
1.51826
1.51543
1.5125
1.50908
1.50344
1.49124
1.47517
1.46973
1.4683
1.46712
1.46583
1.46407
1.46153
1.45801
1.45282
1.44445
1.432
1.42009
1.41495
1.41311
1.41219
1.41151
1.40982
1.40938
1.40939
1.41147
1.41895
1.43509
1.45525
1.47822
1.5039
1.52314
1.53996
1.54937
1.55544
1.56589
1.57876
1.58387
1.58488
1.58523
1.58416
1.57967
1.57398
1.57302
1.57352
1.57476
1.57939
1.58664
1.58903
1.5893
1.58851
1.58435
1.57806
1.57558
1.57532
1.57592
1.5784
1.58293
1.58801
1.58921
1.589
1.59146
1.60995
1.69372
1.86185
1.95772
1.9872
1.99006
1.99086
1.98899
1.98047
1.96672
1.95575
1.96069
1.98704
2.02086
2.04839
2.05963
2.0604
2.05364
2.04157
2.0278
2.01378
1.86567
1.856
1.84245
1.82165
1.79796
1.78516
1.78243
1.78178
1.78028
1.77707
1.77364
1.76943
1.76303
1.74909
1.72341
1.7064
1.70272
1.70007
1.69594
1.6909
1.68535
1.678
1.66509
1.65049
1.64523
1.64234
1.63975
1.63699
1.63314
1.62723
1.61514
1.59608
1.58728
1.58548
1.58446
1.58312
1.58059
1.57759
1.57402
1.56888
1.55781
1.53947
1.52972
1.52751
1.52676
1.5257
1.52277
1.51984
1.51675
1.51235
1.50323
1.48639
1.47654
1.4747
1.47351
1.4725
1.4708
1.46869
1.46596
1.46195
1.45565
1.44448
1.43208
1.42567
1.42151
1.41894
1.41718
1.41474
1.41077
1.40614
1.40477
1.40521
1.40548
1.4051
1.40748
1.41343
1.43085
1.45628
1.4833
1.5093
1.53076
1.54845
1.56146
1.56848
1.57087
1.57183
1.57174
1.56881
1.56415
1.56417
1.56541
1.5683
1.57512
1.57982
1.57999
1.5795
1.57712
1.57087
1.56636
1.56574
1.56569
1.56709
1.5718
1.57801
1.58028
1.58047
1.58348
1.60309
1.70534
1.85343
1.95927
1.97334
1.97694
1.97496
1.9728
1.96945
1.96013
1.95055
1.95081
1.96852
2.00372
2.032
2.04608
2.04816
2.04512
2.0369
2.02644
2.01461
2.00317
1.8627
1.85064
1.83276
1.80868
1.79208
1.78782
1.78549
1.78545
1.78472
1.78149
1.77736
1.77217
1.76193
1.73819
1.71359
1.70699
1.70455
1.70207
1.69887
1.69451
1.68895
1.68058
1.66595
1.65217
1.64675
1.64351
1.64071
1.63761
1.6332
1.62584
1.61147
1.59641
1.59259
1.59083
1.58972
1.58742
1.58435
1.58085
1.57617
1.56772
1.55117
1.53735
1.53431
1.5327
1.53227
1.52987
1.52658
1.52336
1.51948
1.51282
1.49856
1.48459
1.48145
1.47998
1.47905
1.47784
1.4756
1.47292
1.46944
1.46401
1.45453
1.44195
1.43451
1.43159
1.42847
1.42493
1.4219
1.41814
1.41286
1.40704
1.40351
1.40235
1.40192
1.4009
1.39719
1.39033
1.39058
1.39796
1.41546
1.44826
1.48062
1.5104
1.52958
1.54402
1.55253
1.55477
1.55619
1.5547
1.55167
1.55275
1.55643
1.56244
1.56879
1.57054
1.5704
1.56925
1.56557
1.5597
1.55751
1.55728
1.55768
1.56112
1.568
1.57128
1.57204
1.57633
1.6003
1.70082
1.86834
1.93808
1.94964
1.95628
1.96317
1.96546
1.96241
1.95239
1.94195
1.94027
1.95228
1.98582
2.0161
2.03458
2.03816
2.03834
2.03233
2.02334
2.0139
2.00312
1.99283
1.85539
1.84245
1.82197
1.80163
1.79598
1.79195
1.78864
1.78797
1.78692
1.78349
1.77849
1.77146
1.75445
1.72677
1.71276
1.70989
1.7069
1.70344
1.7008
1.6971
1.69133
1.68188
1.66694
1.65471
1.64846
1.64471
1.64139
1.63759
1.63233
1.62261
1.60922
1.60031
1.59704
1.59515
1.59373
1.59114
1.58762
1.58322
1.57626
1.56235
1.54584
1.5408
1.53892
1.53752
1.53634
1.53344
1.52991
1.52606
1.52068
1.50928
1.4932
1.48744
1.48618
1.48498
1.48393
1.48223
1.47981
1.47682
1.47247
1.46416
1.45068
1.44192
1.43899
1.4364
1.43359
1.43008
1.42555
1.42034
1.41461
1.40966
1.40682
1.40476
1.40294
1.40032
1.39473
1.38584
1.38204
1.38137
1.38311
1.39242
1.41285
1.44193
1.47426
1.50205
1.52418
1.52897
1.53445
1.53737
1.53624
1.53935
1.54853
1.5559
1.55875
1.55891
1.55833
1.55693
1.5531
1.54874
1.54837
1.54846
1.55012
1.55643
1.56213
1.56345
1.56851
1.60449
1.71543
1.86755
1.92975
1.94841
1.95121
1.95619
1.95974
1.95603
1.94666
1.93525
1.92782
1.93519
1.96277
1.9965
2.01828
2.02936
2.03186
2.02866
2.02027
2.00953
1.99829
1.98793
1.98022
1.84596
1.83232
1.81307
1.80344
1.80118
1.79678
1.79192
1.78991
1.78764
1.78339
1.77669
1.76489
1.74258
1.72115
1.71597
1.71408
1.71022
1.70539
1.70218
1.69824
1.69201
1.68129
1.66686
1.6572
1.65129
1.6471
1.64309
1.63816
1.63145
1.61976
1.60867
1.60384
1.6003
1.59805
1.59649
1.59392
1.59005
1.58439
1.57324
1.55554
1.547
1.5452
1.54349
1.54179
1.53949
1.53637
1.53256
1.52756
1.51887
1.50312
1.49305
1.49137
1.49069
1.48957
1.48785
1.48578
1.48302
1.47924
1.4729
1.46086
1.44959
1.44586
1.4434
1.44022
1.43692
1.43297
1.42719
1.42096
1.41594
1.41216
1.40997
1.40811
1.40545
1.40122
1.39367
1.38302
1.37756
1.37676
1.37755
1.37891
1.38198
1.38998
1.40663
1.42658
1.45306
1.47727
1.49572
1.51183
1.5187
1.52759
1.54105
1.54719
1.54793
1.54757
1.54574
1.54336
1.54001
1.53831
1.53875
1.53987
1.5438
1.55029
1.55389
1.56073
1.59758
1.72717
1.87154
1.93956
1.93976
1.94009
1.94173
1.94466
1.94515
1.93809
1.92877
1.92285
1.92472
1.94501
1.98103
2.0037
2.01844
2.02406
2.02372
2.01741
2.00668
1.99329
1.98016
1.97145
1.96514
1.83847
1.82484
1.81086
1.80701
1.80397
1.7993
1.79409
1.79128
1.78755
1.78128
1.77045
1.7525
1.73206
1.72178
1.71935
1.71794
1.71393
1.70874
1.70458
1.69966
1.69181
1.67792
1.66499
1.6586
1.65405
1.65019
1.64584
1.63997
1.63148
1.61823
1.60893
1.60576
1.60221
1.59968
1.59806
1.59544
1.59121
1.58348
1.56776
1.55358
1.55073
1.54917
1.54763
1.54516
1.54221
1.53881
1.53442
1.52742
1.51371
1.49987
1.49634
1.49488
1.49438
1.49307
1.49105
1.48873
1.4854
1.47993
1.46959
1.45766
1.4526
1.44991
1.44706
1.44363
1.43982
1.43487
1.42749
1.4217
1.41794
1.4144
1.41222
1.41087
1.40851
1.40437
1.39775
1.38847
1.38144
1.37913
1.37793
1.37718
1.3776
1.37763
1.37731
1.3793
1.38618
1.40388
1.42702
1.45694
1.48418
1.50668
1.52437
1.53376
1.53616
1.53731
1.53574
1.53068
1.52877
1.52914
1.53038
1.53338
1.53839
1.54284
1.55331
1.60265
1.72882
1.86915
1.92343
1.93444
1.92817
1.92665
1.92895
1.92935
1.92832
1.92224
1.91795
1.92071
1.93687
1.97196
1.99793
2.00861
2.0143
2.01603
2.01151
2.00252
1.99021
1.97549
1.96331
1.95543
1.94922
1.83452
1.82318
1.81362
1.80848
1.80385
1.79885
1.79421
1.79103
1.78588
1.77699
1.76164
1.74114
1.72863
1.72378
1.72194
1.72047
1.71653
1.71173
1.70723
1.70128
1.69071
1.67338
1.66334
1.65899
1.65556
1.65272
1.64867
1.64233
1.63238
1.61787
1.61016
1.60721
1.60353
1.60074
1.59861
1.59578
1.59065
1.58009
1.56351
1.55588
1.55403
1.55246
1.55083
1.54814
1.54477
1.54084
1.535
1.52363
1.50819
1.50199
1.50017
1.49842
1.49738
1.49585
1.4936
1.49081
1.48638
1.47776
1.46506
1.45896
1.45667
1.45308
1.4498
1.44629
1.44209
1.43612
1.42819
1.42326
1.42019
1.41669
1.41384
1.41192
1.40952
1.40577
1.40059
1.39405
1.38766
1.38379
1.38115
1.37879
1.37665
1.37442
1.3713
1.36671
1.36466
1.36612
1.37308
1.39231
1.42378
1.45574
1.48404
1.50472
1.51531
1.5207
1.52056
1.51915
1.51789
1.51933
1.52312
1.52916
1.53399
1.54457
1.61104
1.7448
1.87972
1.91197
1.91192
1.91769
1.92044
1.92282
1.9239
1.92049
1.91476
1.91004
1.91354
1.92978
1.96336
1.99847
2.00588
2.00639
2.00537
2.003
1.99494
1.98496
1.97309
1.95993
1.95005
1.94206
1.93701
1.83286
1.82452
1.81664
1.80903
1.80216
1.79599
1.79216
1.78847
1.78236
1.77166
1.75278
1.73589
1.72949
1.72506
1.72328
1.72168
1.71785
1.71353
1.70912
1.70229
1.68852
1.66965
1.66308
1.65929
1.65604
1.65387
1.6501
1.6437
1.63355
1.61886
1.61211
1.60898
1.60511
1.6019
1.59891
1.59519
1.58835
1.57488
1.56308
1.55904
1.55683
1.55495
1.55322
1.55068
1.54711
1.54224
1.53345
1.5177
1.50748
1.50553
1.5038
1.50136
1.49977
1.49821
1.49588
1.49245
1.48607
1.47364
1.46341
1.46093
1.45959
1.45582
1.45205
1.44849
1.44402
1.4372
1.42914
1.42497
1.42224
1.41911
1.41592
1.41329
1.41042
1.40675
1.40258
1.39818
1.3937
1.39
1.3869
1.38359
1.37979
1.37514
1.36812
1.36177
1.35937
1.35931
1.35909
1.361
1.37023
1.38972
1.41812
1.44645
1.46524
1.48145
1.49121
1.49818
1.50131
1.50553
1.51289
1.5245
1.54573
1.61038
1.75698
1.86912
1.91834
1.91128
1.90303
1.90529
1.91274
1.91813
1.91731
1.91138
1.90327
1.90331
1.914
1.94591
1.98216
2.00664
2.0049
2.001
1.99526
1.98664
1.97683
1.96772
1.95749
1.94776
1.93963
1.93253
1.93035
1.83116
1.82471
1.81698
1.80819
1.79928
1.79223
1.78843
1.78407
1.77751
1.76586
1.74729
1.73633
1.73089
1.72633
1.72414
1.72222
1.71829
1.7141
1.7097
1.70199
1.68551
1.66794
1.66365
1.65968
1.65603
1.65379
1.64998
1.64373
1.63438
1.62168
1.61422
1.61069
1.60699
1.60348
1.59964
1.59426
1.58449
1.5703
1.56463
1.56222
1.5593
1.55691
1.55508
1.55263
1.54889
1.54251
1.52947
1.51438
1.50993
1.50842
1.50701
1.5042
1.50181
1.50005
1.4975
1.49319
1.4843
1.47068
1.46449
1.46268
1.46152
1.45794
1.45371
1.45016
1.44572
1.43886
1.43101
1.42691
1.42405
1.42104
1.4179
1.41465
1.41119
1.40722
1.40362
1.40054
1.3975
1.39472
1.39204
1.38861
1.38353
1.37613
1.36694
1.36231
1.36074
1.35857
1.35601
1.3562
1.35704
1.35937
1.36571
1.37563
1.39225
1.41418
1.44076
1.46271
1.47761
1.48722
1.49729
1.53565
1.63655
1.76698
1.86809
1.90244
1.90299
1.89644
1.892
1.89701
1.90324
1.90558
1.90405
1.89877
1.89515
1.90173
1.92581
1.96101
1.98629
1.99964
2.00066
1.99479
1.98281
1.96983
1.95806
1.94966
1.94283
1.93631
1.93034
1.92826
1.92748
1.8292
1.82306
1.81472
1.80564
1.79606
1.7895
1.78554
1.78021
1.77276
1.76065
1.74461
1.73707
1.73199
1.72771
1.72556
1.7229
1.71866
1.7144
1.70938
1.69996
1.68136
1.66748
1.66451
1.66035
1.65634
1.65358
1.64942
1.64341
1.63504
1.62484
1.61631
1.61199
1.60859
1.605
1.60042
1.59308
1.57995
1.56873
1.56647
1.56465
1.56164
1.55885
1.55669
1.55416
1.54983
1.54101
1.52512
1.51493
1.51239
1.51085
1.50956
1.50684
1.50396
1.50147
1.4986
1.49273
1.4818
1.47019
1.46609
1.46418
1.46295
1.46003
1.45525
1.45116
1.44699
1.44057
1.4329
1.42853
1.42572
1.42264
1.41953
1.41608
1.4124
1.40854
1.40525
1.40282
1.40045
1.39822
1.39569
1.39175
1.38508
1.37522
1.3681
1.36636
1.36511
1.36253
1.35871
1.35597
1.35498
1.35466
1.35302
1.34844
1.34887
1.35447
1.37274
1.40045
1.43216
1.46245
1.4952
1.63143
1.78
1.87224
1.89702
1.90616
1.90331
1.89947
1.89311
1.89292
1.89421
1.89272
1.88836
1.88464
1.88995
1.91074
1.94484
1.96719
1.98171
1.98954
1.99034
1.9822
1.96895
1.95468
1.94269
1.93629
1.9313
1.92669
1.92469
1.92341
1.91811
1.82616
1.81895
1.81058
1.80223
1.7936
1.78864
1.78409
1.77779
1.76964
1.75674
1.7421
1.73696
1.73268
1.72898
1.72666
1.72357
1.71904
1.71433
1.70799
1.69621
1.67653
1.66754
1.66509
1.66079
1.65669
1.65349
1.64917
1.64329
1.63588
1.6272
1.61807
1.61252
1.60936
1.60582
1.6006
1.59117
1.57657
1.56974
1.56851
1.56685
1.56404
1.56116
1.55849
1.55547
1.54977
1.53765
1.52261
1.51698
1.51481
1.51329
1.51173
1.50898
1.50609
1.50296
1.49908
1.49113
1.47901
1.47185
1.46801
1.46553
1.46389
1.46188
1.45753
1.4525
1.44803
1.44197
1.43435
1.42958
1.42705
1.4243
1.42103
1.41753
1.41385
1.41053
1.40735
1.4052
1.40315
1.40107
1.3983
1.39307
1.38323
1.37447
1.37212
1.37125
1.37029
1.36793
1.36414
1.36001
1.35706
1.35473
1.35051
1.34325
1.33982
1.33916
1.34103
1.34937
1.37234
1.4141
1.54293
1.73299
1.82156
1.87993
1.8838
1.88158
1.88526
1.88452
1.885
1.88434
1.88336
1.88037
1.87497
1.87775
1.89341
1.92602
1.95414
1.9664
1.97159
1.97473
1.97407
1.96768
1.95786
1.94532
1.93349
1.92673
1.92175
1.919
1.91814
1.91396
1.90382
1.82251
1.81394
1.80604
1.79848
1.79229
1.78858
1.7837
1.77713
1.76809
1.75284
1.73952
1.73611
1.73249
1.7297
1.72744
1.72418
1.71944
1.71378
1.70537
1.69056
1.67207
1.66737
1.6653
1.66104
1.65709
1.65374
1.64955
1.64395
1.63738
1.62902
1.61907
1.61245
1.60924
1.60542
1.59935
1.58818
1.57534
1.57203
1.57105
1.56935
1.56668
1.56391
1.56075
1.55655
1.54816
1.53326
1.52251
1.51935
1.5174
1.51544
1.51337
1.51097
1.50824
1.50473
1.49921
1.48877
1.47682
1.47327
1.47043
1.46718
1.46502
1.46323
1.46014
1.45525
1.4493
1.44259
1.43492
1.42978
1.42762
1.42547
1.4225
1.41927
1.41609
1.4132
1.41023
1.40771
1.40544
1.4027
1.39903
1.3919
1.38145
1.3768
1.37565
1.37498
1.37424
1.37231
1.36917
1.36532
1.36157
1.35727
1.35
1.34153
1.33839
1.33632
1.33688
1.34084
1.38554
1.50188
1.6753
1.74661
1.77257
1.80854
1.82486
1.83265
1.84176
1.8557
1.86379
1.86617
1.86558
1.86432
1.86736
1.87732
1.90402
1.93557
1.95403
1.96049
1.96007
1.96034
1.95733
1.95212
1.94431
1.93305
1.92271
1.91599
1.91147
1.90941
1.90666
1.89811
1.88785
1.81855
1.80933
1.80158
1.79504
1.7917
1.78872
1.78386
1.77718
1.76641
1.74814
1.73811
1.73523
1.73188
1.72985
1.72764
1.72427
1.71945
1.71262
1.70144
1.68393
1.66937
1.66695
1.66528
1.6612
1.65766
1.65464
1.65071
1.64549
1.63881
1.62978
1.61908
1.61192
1.60838
1.60414
1.59726
1.58538
1.5764
1.57485
1.5739
1.57206
1.5695
1.56679
1.56313
1.55704
1.54424
1.52964
1.52402
1.52179
1.52043
1.51771
1.51501
1.51274
1.51019
1.5065
1.4989
1.48612
1.47677
1.47434
1.47221
1.4692
1.46688
1.46472
1.46201
1.45782
1.45089
1.4429
1.43585
1.43056
1.42813
1.4264
1.42397
1.42117
1.41869
1.41624
1.41354
1.41056
1.4077
1.40362
1.39715
1.38886
1.38216
1.37996
1.37885
1.37837
1.3776
1.37584
1.37314
1.36972
1.36548
1.35891
1.34889
1.34256
1.34006
1.33781
1.34085
1.37043
1.50588
1.64481
1.73096
1.73119
1.72568
1.73133
1.74684
1.76766
1.78916
1.80862
1.82183
1.83178
1.83767
1.84099
1.85423
1.88097
1.91465
1.94001
1.95677
1.95706
1.95425
1.94795
1.94126
1.93507
1.92727
1.91784
1.90979
1.90394
1.89971
1.89684
1.89055
1.88062
1.87115
1.81449
1.80535
1.79779
1.79316
1.7912
1.78845
1.78372
1.77656
1.76324
1.74425
1.73845
1.73481
1.73117
1.72958
1.72746
1.72398
1.71868
1.71012
1.69594
1.67815
1.6684
1.66689
1.6655
1.66154
1.65831
1.65577
1.65212
1.64693
1.63945
1.62902
1.61781
1.61086
1.60727
1.60303
1.59583
1.58458
1.57901
1.57795
1.5768
1.57462
1.57208
1.56915
1.56459
1.55502
1.53888
1.52895
1.5261
1.52431
1.52331
1.52053
1.51737
1.51477
1.51193
1.50719
1.49642
1.48405
1.47837
1.47578
1.47369
1.47123
1.46923
1.46711
1.46403
1.45956
1.45158
1.4422
1.43645
1.43224
1.42912
1.42765
1.42572
1.42327
1.42109
1.41904
1.41658
1.41334
1.40919
1.4026
1.39381
1.38839
1.38506
1.38303
1.38188
1.38145
1.38062
1.37889
1.37628
1.37277
1.36759
1.35865
1.35046
1.34748
1.34553
1.34897
1.37814
1.49198
1.66186
1.72497
1.72375
1.71467
1.70531
1.70285
1.70393
1.70935
1.71964
1.73239
1.74542
1.75964
1.77776
1.80085
1.83611
1.87902
1.916
1.93871
1.94473
1.94221
1.93434
1.92516
1.91939
1.91428
1.90757
1.90097
1.89625
1.89258
1.88934
1.88336
1.87403
1.86411
1.85414
1.81017
1.80206
1.79597
1.79227
1.79028
1.78732
1.78227
1.77385
1.75787
1.74275
1.73928
1.7349
1.73093
1.72929
1.72682
1.72282
1.71646
1.70549
1.68964
1.67491
1.6686
1.66758
1.66621
1.6625
1.65954
1.65694
1.65321
1.64722
1.63761
1.62558
1.61585
1.60983
1.60645
1.60259
1.59595
1.58614
1.5822
1.5812
1.5794
1.57667
1.57374
1.5701
1.56336
1.54915
1.53545
1.53069
1.52855
1.52714
1.52625
1.52362
1.52032
1.51728
1.5136
1.50623
1.49186
1.48325
1.48099
1.47805
1.47547
1.4735
1.47177
1.46969
1.46644
1.46109
1.45138
1.44124
1.43716
1.43395
1.43091
1.42965
1.42804
1.42576
1.42355
1.42157
1.41916
1.41543
1.40911
1.39919
1.39213
1.39011
1.38799
1.3859
1.3848
1.38442
1.38346
1.38158
1.37869
1.37445
1.3672
1.35707
1.35272
1.35191
1.35665
1.3996
1.50783
1.66132
1.7335
1.73129
1.7272
1.71476
1.70259
1.69671
1.69202
1.69164
1.69061
1.68662
1.68276
1.68731
1.70462
1.74
1.7953
1.84706
1.88445
1.90177
1.91128
1.91059
1.90676
1.9012
1.89487
1.8893
1.88327
1.88337
1.88445
1.88444
1.87988
1.86972
1.86002
1.85013
1.83921
1.80557
1.79951
1.79471
1.79095
1.78855
1.78495
1.77893
1.76878
1.75146
1.74293
1.74012
1.7353
1.73116
1.72904
1.72581
1.7209
1.71267
1.69856
1.68404
1.67407
1.66988
1.66899
1.66736
1.66387
1.66103
1.65838
1.65426
1.64608
1.63227
1.6211
1.61453
1.60944
1.60621
1.60282
1.59761
1.58982
1.58541
1.58359
1.58106
1.57791
1.57433
1.56911
1.55816
1.54288
1.53613
1.53345
1.53135
1.53023
1.52925
1.52674
1.52356
1.51997
1.51446
1.5024
1.48803
1.48432
1.48318
1.48054
1.47772
1.4761
1.47456
1.47228
1.46853
1.46165
1.4497
1.44116
1.43862
1.43559
1.43308
1.43211
1.43062
1.42843
1.42609
1.42387
1.42113
1.41605
1.40627
1.39673
1.394
1.39243
1.39036
1.38855
1.38765
1.38713
1.38597
1.38383
1.38024
1.37445
1.36466
1.35723
1.35702
1.36188
1.41593
1.55215
1.66341
1.73657
1.74543
1.74218
1.73009
1.71428
1.70281
1.69522
1.69118
1.68702
1.68319
1.67917
1.67644
1.67976
1.69006
1.72718
1.76882
1.79268
1.81617
1.83399
1.84561
1.85476
1.86231
1.86294
1.86175
1.86011
1.86045
1.86451
1.86815
1.86797
1.86321
1.85503
1.84752
1.83848
1.82662
1.80133
1.79704
1.79265
1.78871
1.78575
1.78125
1.77407
1.76184
1.74688
1.74325
1.74035
1.73549
1.73129
1.7285
1.72437
1.71811
1.70739
1.69132
1.68101
1.67528
1.67224
1.67079
1.66871
1.66545
1.66253
1.65955
1.65423
1.6407
1.62532
1.61875
1.61465
1.61016
1.60713
1.60422
1.60011
1.59409
1.58823
1.58446
1.58135
1.578
1.57363
1.56591
1.55163
1.5409
1.53859
1.53647
1.53442
1.53325
1.53202
1.52966
1.52651
1.5221
1.51312
1.49648
1.48756
1.48622
1.48529
1.48307
1.48051
1.479
1.47727
1.47461
1.46994
1.46065
1.44743
1.44224
1.44053
1.43757
1.43564
1.43486
1.43333
1.4311
1.42869
1.4261
1.42239
1.4143
1.40238
1.39749
1.39628
1.39447
1.39245
1.39102
1.39028
1.38957
1.3882
1.38557
1.38072
1.37233
1.36224
1.36079
1.36772
1.41576
1.57916
1.69817
1.74825
1.74658
1.73755
1.72592
1.71331
1.70846
1.70307
1.69904
1.69465
1.68845
1.68258
1.67676
1.67438
1.6813
1.70767
1.74605
1.76169
1.76446
1.76542
1.76511
1.76596
1.76882
1.77418
1.78433
1.79776
1.81099
1.82365
1.83376
1.83884
1.83882
1.83777
1.83465
1.82977
1.8234
1.81404
1.79825
1.79407
1.78932
1.78542
1.78203
1.77677
1.76822
1.75417
1.7448
1.74265
1.73977
1.73516
1.73101
1.72759
1.72263
1.71461
1.7007
1.68618
1.68054
1.67758
1.67513
1.67255
1.67001
1.66693
1.66365
1.65958
1.64927
1.63115
1.62167
1.61891
1.61598
1.61225
1.60934
1.60658
1.60273
1.59691
1.58978
1.58409
1.58024
1.57656
1.57145
1.56198
1.54804
1.54249
1.54107
1.53952
1.53763
1.53592
1.53437
1.53199
1.52842
1.522
1.50723
1.49241
1.48938
1.48853
1.48773
1.48576
1.48369
1.48203
1.47988
1.47645
1.46993
1.45741
1.44681
1.44432
1.44225
1.43941
1.43825
1.43766
1.43608
1.4338
1.43113
1.42782
1.42202
1.41066
1.40159
1.39963
1.39832
1.39634
1.39445
1.39325
1.39248
1.39158
1.39
1.3866
1.3798
1.36907
1.36485
1.37395
1.43092
1.57081
1.71958
1.75924
1.75799
1.7477
1.72908
1.71537
1.70657
1.70432
1.70295
1.69998
1.69189
1.68403
1.67933
1.67645
1.67962
1.69894
1.7369
1.75815
1.76156
1.76039
1.75777
1.74893
1.73596
1.72627
1.71835
1.71633
1.71924
1.72996
1.7482
1.76431
1.77809
1.78948
1.79636
1.80164
1.80049
1.79862
1.79596
1.79524
1.7907
1.7857
1.78189
1.7779
1.77174
1.76096
1.74797
1.74372
1.74144
1.73848
1.73432
1.73016
1.72613
1.72048
1.71001
1.69401
1.68455
1.68157
1.67963
1.67746
1.67441
1.67141
1.66804
1.66381
1.65575
1.63825
1.62404
1.62177
1.62025
1.61794
1.61538
1.61255
1.60941
1.60528
1.59843
1.58909
1.58179
1.57776
1.57413
1.56884
1.55945
1.54818
1.54481
1.54352
1.54236
1.54049
1.53826
1.53623
1.53338
1.5284
1.5175
1.50034
1.49269
1.4915
1.49106
1.49016
1.4885
1.48694
1.48511
1.48239
1.47732
1.46686
1.45346
1.44889
1.44697
1.44376
1.44125
1.44076
1.44038
1.43878
1.43633
1.43327
1.42829
1.41937
1.40822
1.40326
1.40158
1.40013
1.39813
1.39634
1.39524
1.39434
1.39321
1.39115
1.38664
1.3777
1.37038
1.38057
1.45731
1.58472
1.71299
1.77109
1.77117
1.76235
1.74279
1.7251
1.71297
1.70694
1.70437
1.7022
1.69621
1.68772
1.68194
1.67816
1.68103
1.69658
1.73051
1.75583
1.76353
1.7644
1.76208
1.75293
1.74035
1.72609
1.71539
1.70841
1.70217
1.69977
1.69699
1.69465
1.69305
1.69661
1.70428
1.71314
1.72513
1.7379
1.75088
1.76509
1.79158
1.78735
1.78277
1.77883
1.77382
1.76597
1.75234
1.74427
1.74234
1.73965
1.73657
1.73299
1.72908
1.7246
1.71763
1.70354
1.68901
1.68493
1.68251
1.68079
1.67887
1.67594
1.6725
1.66818
1.66139
1.64652
1.62819
1.62297
1.62273
1.62163
1.6201
1.61856
1.61585
1.61213
1.60696
1.59818
1.58623
1.57835
1.57508
1.57185
1.56695
1.5593
1.55041
1.54704
1.54575
1.54446
1.54259
1.54017
1.53738
1.53337
1.52518
1.51032
1.49769
1.49503
1.49404
1.4936
1.49249
1.4913
1.49
1.48792
1.48415
1.47625
1.46173
1.45233
1.45094
1.44938
1.44568
1.44342
1.44318
1.44294
1.44131
1.43851
1.43438
1.42678
1.41559
1.40913
1.4057
1.40341
1.40177
1.3998
1.39809
1.39703
1.39599
1.39432
1.39144
1.38598
1.37855
1.38867
1.47464
1.6301
1.72122
1.76746
1.76731
1.76149
1.75185
1.7378
1.72437
1.71546
1.70999
1.70537
1.70014
1.69346
1.68769
1.68255
1.68479
1.69777
1.72872
1.75541
1.76712
1.76674
1.76667
1.75982
1.74846
1.73501
1.72055
1.70933
1.702
1.6952
1.69033
1.68677
1.68262
1.67857
1.67199
1.66484
1.65776
1.65649
1.66069
1.67127
1.68881
1.78781
1.78441
1.78059
1.77615
1.76949
1.7587
1.74463
1.74181
1.74037
1.73752
1.73456
1.73153
1.72783
1.72287
1.7134
1.69627
1.68708
1.6852
1.68255
1.68069
1.6793
1.67682
1.6729
1.6668
1.6555
1.63666
1.62517
1.62409
1.62421
1.62298
1.62195
1.62092
1.61827
1.61375
1.60661
1.59497
1.58233
1.57621
1.57352
1.57051
1.56623
1.56051
1.55343
1.54896
1.54729
1.54565
1.54377
1.54132
1.53778
1.5316
1.51903
1.5046
1.49925
1.49776
1.49675
1.49585
1.49473
1.49378
1.49254
1.49008
1.48465
1.47257
1.45776
1.45339
1.45264
1.45127
1.44781
1.44586
1.44571
1.44527
1.4434
1.44004
1.43421
1.42345
1.41329
1.41081
1.40837
1.40529
1.40317
1.40128
1.39969
1.3986
1.39718
1.39502
1.39208
1.38841
1.40271
1.48604
1.66399
1.74152
1.76808
1.7703
1.76457
1.75614
1.74679
1.73459
1.72236
1.71529
1.70952
1.70407
1.69795
1.69103