/*--------------------------------*- C++ -*----------------------------------*\
  =========                 |
  \\      /  F ield         | OpenFOAM: The Open Source CFD Toolbox
   \\    /   O peration     | Website:  https://openfoam.org
    \\  /    A nd           | Version:  7
     \\/     M anipulation  |
\*---------------------------------------------------------------------------*/
FoamFile
{
    version     2.0;
    format      ascii;
    class       volScalarField;
    location    "1.6";
    object      p;
}
// * * * * * * * * * * * * * * * * * * * * * * * * * * * * * * * * * * * * * //

dimensions      [1 -1 -2 0 0 0 0];

internalField   nonuniform List<scalar> 
16192
(
5.55237
5.47834
5.40088
5.32026
5.24059
5.16488
5.09178
5.0243
4.9579
4.88931
4.81749
4.74247
4.66345
4.58216
4.49919
4.41554
4.33048
4.24499
4.15956
4.07696
3.99686
5.58172
5.49763
5.41036
5.32289
5.23963
5.16159
5.09029
5.02466
4.96007
4.89173
4.82194
4.74768
4.67062
4.59071
4.51139
4.43091
4.34944
4.26678
4.18356
4.10174
4.02207
5.60029
5.50872
5.41721
5.32767
5.24372
5.16469
5.09429
5.02826
4.96256
4.89417
4.82516
4.75203
4.6766
4.59896
4.52254
4.44459
4.36611
4.28652
4.20633
4.12581
4.04605
5.61148
5.51606
5.42254
5.3334
5.25026
5.17153
5.10102
5.03394
4.96522
4.89562
4.82553
4.7544
4.68066
4.60664
4.53251
4.45744
4.38142
4.30489
4.22718
4.14772
4.06782
5.62383
5.52689
5.43228
5.34284
5.2593
5.18122
5.10963
5.0395
4.96638
4.89516
4.82422
4.75482
4.68366
4.61405
4.54271
4.47027
4.39577
4.3212
4.24521
4.16695
4.08757
5.64097
5.54417
5.44786
5.35614
5.27073
5.19202
5.11842
5.04468
4.9682
4.89474
4.82339
4.75472
4.68701
4.62101
4.55273
4.48207
4.40876
4.33511
4.26006
4.18292
4.10492
5.65561
5.55969
5.46432
5.37226
5.2857
5.206
5.12927
5.05078
4.972
4.89673
4.82524
4.75633
4.69202
4.62795
4.56195
4.49191
4.41943
4.34611
4.27213
4.19671
4.121
5.66865
5.57341
5.47927
5.38901
5.30346
5.22226
5.14161
5.05933
4.97961
4.90392
4.83215
4.76251
4.69882
4.6345
4.56844
4.49838
4.42665
4.35428
4.28187
4.20856
4.13566
5.68425
5.58869
5.49666
5.40897
5.32423
5.2408
5.15606
5.07023
4.98971
4.91386
4.84084
4.77075
4.70503
4.63896
4.57135
4.50162
4.4313
4.36096
4.29086
4.22041
4.15032
5.70298
5.60824
5.51639
5.42854
5.34287
5.25694
5.16888
5.08149
5.00092
4.92487
4.84957
4.77804
4.70881
4.64073
4.57189
4.50333
4.43491
4.36728
4.29972
4.23193
4.16393
5.71698
5.62585
5.53472
5.44557
5.35832
5.26959
5.1794
5.09198
5.01132
4.93468
4.85752
4.78336
4.71125
4.64189
4.57288
4.50596
4.44027
4.37521
4.30981
4.24401
4.17717
5.73235
5.64295
5.551
5.46012
5.36948
5.27923
5.1893
5.1039
5.02382
4.94558
4.86693
4.79032
4.71568
4.64438
4.57705
4.51226
4.44837
4.38441
4.31988
4.25474
4.18828
5.75147
5.64985
5.56187
5.47449
5.38423
5.29327
5.20327
5.11816
5.03791
4.95927
4.87987
4.79959
4.7231
4.65119
4.58539
4.52123
4.45814
4.39424
4.32929
4.26393
4.19782
5.76206
5.67346
5.58836
5.49421
5.39943
5.30933
5.22162
5.13788
5.05619
4.97456
4.89402
4.8133
4.73499
4.66136
4.59506
4.53079
4.46708
4.40224
4.33638
4.27085
4.2054
5.78065
5.69554
5.60534
5.51805
5.42578
5.3292
5.24102
5.15614
5.07213
4.9896
4.90872
4.82797
4.74813
4.6737
4.60447
4.53807
4.47325
4.40824
4.34207
4.27672
4.21225
5.80722
5.7204
5.62397
5.53055
5.4342
5.34312
5.25746
5.17386
5.08802
5.00358
4.92185
4.84282
4.76317
4.6867
4.61326
4.5438
4.47785
4.41306
4.34753
4.28302
4.21964
5.82892
5.73602
5.63907
5.53918
5.44839
5.35948
5.27281
5.187
5.10086
5.01659
4.93503
4.85652
4.77806
4.69981
4.62312
4.55034
4.48388
4.41879
4.35376
4.29032
4.22807
5.83228
5.7422
5.65225
5.55538
5.46158
5.37453
5.29026
5.20292
5.11601
5.0321
4.95052
4.87069
4.7935
4.71576
4.63771
4.56192
4.49414
4.4284
4.36381
4.30072
4.23846
5.85553
5.75937
5.66856
5.57372
5.47903
5.39377
5.30917
5.22115
5.13438
5.0499
4.96839
4.88916
4.8129
4.73434
4.65482
4.57867
4.50956
4.44194
4.37636
4.31322
4.25001
5.86661
5.76918
5.6786
5.5908
5.49973
5.41597
5.32794
5.24042
5.15522
5.07028
4.98771
4.90908
4.83121
4.75337
4.67333
4.59755
4.52656
4.45805
4.39161
4.32752
4.26213
5.88656
5.7894
5.70242
5.61779
5.52815
5.43961
5.34707
5.25915
5.17498
5.08881
5.00443
4.92678
4.84998
4.77216
4.6912
4.61666
4.54538
4.475
4.40654
4.34097
4.27376
5.90741
5.81558
5.72887
5.63953
5.54649
5.4557
5.36168
5.27215
5.19246
5.11155
5.02251
4.94066
4.86471
4.78696
4.70814
4.63433
4.56267
4.49132
4.42192
4.35444
4.28533
5.91597
5.82769
5.74069
5.64882
5.55654
5.46269
5.37188
5.2869
5.20528
5.12134
5.03984
4.96286
4.88098
4.80086
4.72277
4.64877
4.57757
4.50552
4.43619
4.36773
4.29786
5.9445
5.85571
5.76393
5.66858
5.57505
5.48184
5.39011
5.30545
5.2209
5.13592
5.05743
4.97388
4.89481
4.81726
4.74157
4.66605
4.59252
4.51893
4.44975
4.38138
4.31175
5.97206
5.8734
5.77583
5.6801
5.58829
5.49876
5.40882
5.32315
5.23774
5.15322
5.07394
4.99079
4.91121
4.83582
4.76181
4.6862
4.61052
4.53676
4.46652
4.39725
4.32791
5.98571
5.89418
5.79659
5.70332
5.61379
5.52412
5.43526
5.34922
5.26104
5.17468
5.09254
5.00941
4.92947
4.85735
4.78587
4.70985
4.63162
4.55514
4.48434
4.41501
4.346
6.0457
5.92672
5.82268
5.73188
5.64218
5.54955
5.45863
5.37208
5.28255
5.19529
5.11149
5.02694
4.94801
4.88134
4.80665
4.73086
4.6532
4.5766
4.50167
4.43189
4.36438
6.02011
5.93126
5.8389
5.75105
5.65841
5.56341
5.47292
5.38616
5.29674
5.21145
5.1283
5.04571
4.96971
4.90006
4.82575
4.75027
4.67307
4.59611
4.52163
4.45128
4.38393
6.02455
5.96621
5.87512
5.77966
5.682
5.5858
5.49409
5.40579
5.31595
5.23
5.14568
5.06102
4.98871
4.91784
4.84186
4.76509
4.69616
4.61681
4.53706
4.46693
4.40045
6.03461
6.00573
5.89687
5.79094
5.69263
5.59913
5.50798
5.41836
5.33071
5.24574
5.16331
5.07894
5.00551
4.93225
4.85586
4.78147
4.709
4.6279
4.55123
4.48336
4.41634
5.70198
5.96184
5.90404
5.80623
5.71258
5.6212
5.52953
5.43899
5.35265
5.26935
5.18734
5.10397
5.0259
4.94931
4.87086
4.79844
4.72281
4.64384
4.56649
4.49851
4.43314
5.32936
6.01176
5.95803
5.84337
5.74223
5.64871
5.55493
5.46268
5.37685
5.29453
5.21183
5.12879
5.04579
4.96499
4.88552
4.815
4.73884
4.66155
4.58577
4.51699
4.44734
4.30025
5.83795
5.92483
5.85623
5.76354
5.67022
5.57791
5.4895
5.40515
5.32366
5.24044
5.15693
5.07218
4.9871
4.90701
4.83394
4.76066
4.6843
4.60963
4.53637
4.46293
2.74235
5.51054
5.9708
5.89957
5.79591
5.69728
5.60509
5.51873
5.43448
5.35098
5.26671
5.18225
5.09745
5.01018
4.93091
4.85511
4.78359
4.71003
4.63488
4.55721
4.48137
4.72232
5.94949
5.92219
5.813
5.71327
5.62399
5.53995
5.45484
5.36912
5.28545
5.20113
5.11694
5.03124
4.9538
4.8796
4.8078
4.73597
4.65943
4.57901
4.50178
3.31348
5.52979
5.87316
5.82798
5.74038
5.65104
5.5654
5.4798
5.39224
5.307
5.22257
5.13842
5.05622
4.97944
4.90689
4.83322
4.75922
4.68037
4.60025
4.52268
1.84549
5.02973
5.90663
5.87357
5.77123
5.66934
5.57991
5.49327
5.4064
5.32173
5.23782
5.15399
5.07668
5.00215
4.93047
4.85555
4.77904
4.69919
4.62059
4.54466
1.13879
3.84017
5.61611
5.8308
5.77858
5.68532
5.59923
5.5131
5.42576
5.33884
5.25547
5.17446
5.09934
5.02661
4.95351
4.87866
4.79966
4.72015
4.64161
4.56683
1.00776
2.28392
5.26756
5.87576
5.82899
5.72459
5.62838
5.53795
5.45061
5.36256
5.27665
5.19743
5.12233
5.04808
4.97045
4.89434
4.81459
4.73698
4.66001
4.58745
1.00021
1.28988
4.26916
5.72167
5.80196
5.74125
5.64937
5.55872
5.4731
5.38892
5.30518
5.22988
5.15242
5.07364
4.99154
4.91213
4.83223
4.75586
4.68124
4.60958
1
1.02333
2.72893
5.40666
5.84384
5.78148
5.68078
5.58845
5.5046
5.41978
5.33384
5.2585
5.18088
5.09749
5.0147
4.93255
4.85251
4.77519
4.70201
4.63001
1
1.00076
1.49192
4.61516
5.78994
5.78157
5.70018
5.60796
5.52415
5.44187
5.35989
5.28318
5.20525
5.12024
5.04085
4.95795
4.87778
4.79997
4.72769
4.65413
1
1.00001
1.05514
3.1945
5.38346
5.77044
5.72735
5.64006
5.55512
5.47186
5.39149
5.31203
5.23118
5.14579
5.06755
4.98592
4.90486
4.82624
4.75314
4.67781
1
1
1.00226
1.76481
4.83694
5.79264
5.76783
5.67056
5.57672
5.49245
5.41429
5.33425
5.2502
5.16975
5.09363
5.01326
4.92933
4.85254
4.77845
4.70164
1
1
1.00005
1.1152
3.58585
5.45252
5.71958
5.67854
5.59577
5.51085
5.43392
5.35729
5.27452
5.20018
5.12357
5.04387
4.95709
4.87949
4.80311
4.72561
1
1
1
1.00606
2.0624
5.04154
5.76328
5.72927
5.63276
5.53629
5.45384
5.37423
5.29227
5.22464
5.15024
5.06913
4.98127
4.9054
4.82703
4.74891
1
1
1
1.00015
1.20569
3.93679
5.51483
5.69037
5.64324
5.55717
5.47766
5.39702
5.31731
5.24542
5.17101
5.08939
5.00741
4.93355
4.85428
4.77561
1
1
1
1
1.01394
2.38437
5.18657
5.73132
5.69486
5.59954
5.51107
5.42586
5.3469
5.2691
5.19039
5.10234
5.02704
4.95658
4.87856
4.80013
1
1
1
1
1.00042
1.32926
4.21967
5.56461
5.66969
5.61837
5.53513
5.45094
5.37485
5.29541
5.21159
5.11889
5.04788
4.976
4.90013
4.8248
1
1
1
1
1.00001
1.02864
2.68697
5.26554
5.70238
5.66062
5.57304
5.48211
5.40404
5.32335
5.23369
5.14244
5.072
4.9977
4.9206
4.84604
1
1
1
1
1
1.00099
1.46992
4.43249
5.62092
5.65904
5.59558
5.50518
5.42444
5.34528
5.2546
5.17203
5.09975
5.02233
4.94278
4.86849
1
1
1
1
1
1.00002
1.05105
2.96658
5.32027
5.67178
5.62683
5.53675
5.45312
5.37254
5.27953
5.20077
5.12686
5.04865
4.96768
4.89278
1
1
1
1
1
1
1.00207
1.62748
4.62498
5.63263
5.63768
5.5642
5.47734
5.39213
5.30234
5.2263
5.1497
5.07241
4.99406
4.92174
1
1
1
1
1
1
1.00004
1.08275
3.26279
5.22756
5.61521
5.58431
5.50962
5.42119
5.33324
5.25476
5.17723
5.09871
5.02148
4.95138
1
1
1
1
1
1
1
1.00391
1.80922
4.71553
5.63018
5.62027
5.54394
5.44697
5.35924
5.28027
5.20339
5.12308
5.04951
4.98052
1
1
1
1
1
1
1
1.00009
1.12417
3.47998
5.25725
5.57245
5.54619
5.46202
5.38134
5.30862
5.23385
5.15176
5.07883
5.00855
1
1
1
1
1
1
1
1
1.00666
1.97791
4.82196
5.6014
5.58318
5.49406
5.41018
5.3384
5.26083
5.17908
5.10688
5.03347
1
1
1
1
1
1
1
1
1.00017
1.17495
3.66158
5.29197
5.53844
5.50488
5.42944
5.35598
5.283
5.21018
5.13725
5.06036
1
1
1
1
1
1
1
1
1
1.0111
2.14072
4.91721
5.58637
5.55579
5.46627
5.37631
5.29979
5.23679
5.16485
5.08608
1
1
1
1
1
1
1
1
1
1.00031
1.23453
3.84041
5.33388
5.51201
5.47527
5.39738
5.31201
5.25234
5.18827
5.11488
1
1
1
1
1
1
1
1
1
1
1.01741
2.3118
4.98308
5.56488
5.52653
5.43772
5.33457
5.2737
5.21275
5.14048
1
1
1
1
1
1
1
1
1
1
1.00054
1.29941
3.9595
5.37118
5.47697
5.43516
5.35667
5.29092
5.2267
5.15614
1
1
1
1
1
1
1
1
1
1
1.00001
1.02487
2.42875
5.0187
5.53302
5.491
5.40756
5.31783
5.24333
5.17167
1
1
1
1
1
1
1
1
1
1
1
1.00082
1.34721
4.03895
5.36943
5.4437
5.39704
5.33579
5.2635
5.19149
1
1
1
1
1
1
1
1
1
1
1
1.00001
1.03141
2.51435
5.05129
5.48715
5.44466
5.37298
5.29086
5.21565
1.25953
1.29833
1.31909
1.32756
1.33193
1.33599
1.34127
1.34119
1.33735
1.33225
1.32667
1.31816
1.30732
1.30165
1.3
1.29748
1.29504
1.29318
1.29084
1.28782
1.28481
1.28031
1.27198
1.26648
1.26463
1.26291
1.26198
1.26298
1.26454
1.26301
1.26077
1.25891
1.25733
1.25579
1.25336
1.25265
1.25397
1.25703
1.26212
1.27035
1.28015
1.28429
3.93802
3.89888
3.86272
3.82608
3.78995
3.74928
3.71427
3.6802
3.64385
3.60711
3.56665
3.53688
3.50317
3.46958
3.42577
3.37589
3.34143
3.34983
3.44582
3.81021
4.22286
4.33854
4.32813
4.27919
4.20802
4.12945
4.06402
4.00655
3.9468
3.88738
3.82275
3.76598
3.71217
3.65506
3.60142
3.54352
3.49381
3.44683
3.39316
3.34496
3.29021
3.2397
3.1942
3.14235
3.09553
3.04621
2.9922
2.95406
2.91419
2.87598
2.83042
2.79047
2.76085
2.71878
2.67936
2.63623
2.59381
2.56352
2.52634
2.49442
2.46153
2.42233
2.39653
2.36616
2.3343
2.3065
2.26663
2.23396
2.20503
2.17602
2.15548
2.13427
2.11942
2.10039
2.07425
2.03863
1.99128
1.94632
1.92165
1.91062
1.89976
1.89023
1.88296
1.86991
1.84713
1.8029
1.75934
1.75002
1.74383
1.73303
1.72129
1.70924
1.68931
1.65203
1.6133
1.6026
1.59891
1.59379
1.58691
1.57552
1.55451
1.5317
1.51651
1.50125
1.4772
1.44829
1.43771
1.43306
1.42949
1.42684
1.42156
1.41369
1.40319
1.38502
1.35158
1.31832
1.30717
1.3056
1.30745
1.32024
1.34447
1.36458
1.37172
1.37624
1.37927
1.37818
1.37607
1.37684
1.38192
1.39194
1.3933
1.38938
1.38308
1.3754
1.3671
1.35749
1.34332
1.33031
1.32666
1.32446
1.3212
1.31759
1.31416
1.3109
1.30754
1.30229
1.29151
1.27796
1.27255
1.27023
1.26765
1.26562
1.26436
1.26288
1.26122
1.25764
1.24841
1.23826
1.23578
1.23514
1.2353
1.23764
1.2398
1.23952
1.23835
1.23589
1.23038
1.22451
1.22288
1.22264
1.22289
1.22455
1.22598
1.22531
1.22401
1.22234
1.2188
1.21417
1.213
1.21247
1.212
1.21228
1.21434
1.21646
1.21761
1.21815
1.2194
1.22473
1.23642
1.26472
1.30036
1.31956
1.33367
1.34393
1.34775
1.34725
1.34353
1.33699
1.32826
1.31595
1.30675
1.30453
1.30323
1.30103
1.29863
1.29666
1.29424
1.29107
1.287
1.27949
1.27008
1.26701
1.26564
1.2643
1.26391
1.26545
1.26606
1.26428
1.2617
1.25935
1.25739
1.25572
1.25377
1.25313
1.254
1.25636
1.26022
1.26684
1.2744
1.27673
3.96286
3.92534
3.88951
3.85339
3.81466
3.77588
3.74293
3.70556
3.66994
3.62811
3.59448
3.56075
3.52536
3.49088
3.45191
3.41049
3.36177
3.35107
3.37688
3.58454
4.02274
4.29565
4.32808
4.30264
4.24141
4.16259
4.0973
4.03612
3.97666
3.91363
3.85529
3.80213
3.74512
3.69085
3.63307
3.58138
3.5351
3.48172
3.43178
3.37786
3.32469
3.278
3.22569
3.17709
3.12578
3.0773
3.03401
2.98828
2.95148
2.91462
2.86319
2.83036
2.79489
2.75286
2.71058
2.66495
2.63436
2.598
2.5607
2.52879
2.48811
2.45968
2.43096
2.39759
2.36906
2.33106
2.29097
2.26511
2.23555
2.21397
2.1941
2.17677
2.15737
2.12935
2.09179
2.04445
1.99578
1.97264
1.96237
1.95155
1.93927
1.93022
1.91853
1.89882
1.85978
1.80806
1.78906
1.7844
1.77536
1.763
1.74866
1.72826
1.69535
1.65939
1.64717
1.64347
1.63954
1.63296
1.61964
1.59133
1.56134
1.54456
1.53353
1.51833
1.49423
1.47818
1.47011
1.46276
1.45749
1.45206
1.4448
1.43491
1.4191
1.38869
1.3507
1.33094
1.32655
1.32529
1.32786
1.33844
1.35009
1.35398
1.35528
1.35097
1.35373
1.35946
1.36546
1.37494
1.38896
1.39493
1.39363
1.38911
1.38245
1.37463
1.36555
1.35368
1.33921
1.33234
1.33072
1.32828
1.32498
1.32148
1.31795
1.31429
1.30949
1.30088
1.28751
1.27883
1.27589
1.27338
1.27105
1.26903
1.26707
1.26503
1.26223
1.25598
1.24502
1.23891
1.23733
1.23688
1.23729
1.23933
1.23992
1.23917
1.23731
1.2331
1.22672
1.22363
1.22317
1.22312
1.22402
1.22543
1.22506
1.22379
1.2221
1.21914
1.21442
1.21253
1.21199
1.2115
1.21141
1.21285
1.21441
1.21447
1.21414
1.21383
1.21275
1.21461
1.2222
1.23877
1.27491
1.30651
1.33293
1.34958
1.35165
1.3513
1.34718
1.33867
1.32744
1.31502
1.31011
1.30827
1.30698
1.30512
1.30279
1.30065
1.29794
1.29421
1.28793
1.2773
1.27014
1.26841
1.26736
1.26666
1.26685
1.26771
1.2674
1.26572
1.26331
1.26073
1.25858
1.25712
1.25563
1.25407
1.25402
1.25483
1.25713
1.26122
1.26501
1.26819
3.98694
3.95051
3.91437
3.87749
3.83656
3.80277
3.76726
3.73073
3.69142
3.65251
3.62106
3.58348
3.55001
3.51083
3.47965
3.44696
3.39397
3.35862
3.36885
3.45395
3.7783
4.19136
4.31444
4.31035
4.26736
4.19651
4.12866
4.06504
4.00259
3.94383
3.89143
3.83524
3.78025
3.72326
3.66978
3.62268
3.56953
3.51748
3.46397
3.40896
3.36151
3.3092
3.25844
3.20831
3.15608
3.11536
3.07221
3.02537
2.98933
2.95069
2.90006
2.86332
2.82724
2.78789
2.73783
2.70253
2.67032
2.62998
2.59568
2.55543
2.52382
2.49603
2.46197
2.4316
2.39643
2.35104
2.32466
2.29808
2.27246
2.25428
2.23425
2.21345
2.18259
2.1433
2.0992
2.04982
2.02212
2.0153
2.00375
1.99163
1.97904
1.96796
1.94726
1.91249
1.86468
1.83123
1.82408
1.81619
1.80459
1.78957
1.76855
1.73665
1.70419
1.6931
1.68925
1.68542
1.67888
1.66124
1.62689
1.59544
1.5743
1.56335
1.55444
1.54116
1.52344
1.51017
1.49948
1.49018
1.48292
1.47571
1.46653
1.45227
1.42431
1.38848
1.36595
1.35985
1.35503
1.35251
1.35274
1.35419
1.35469
1.3544
1.3456
1.33786
1.34202
1.35012
1.3614
1.37864
1.39062
1.39204
1.39098
1.38641
1.37876
1.37055
1.36141
1.34933
1.33877
1.33616
1.33449
1.33168
1.32832
1.32473
1.32104
1.31679
1.30965
1.29748
1.28704
1.28195
1.27873
1.27624
1.27417
1.27179
1.26937
1.26685
1.26268
1.25417
1.24476
1.24093
1.23903
1.23851
1.23894
1.24014
1.23986
1.2386
1.2359
1.2302
1.22502
1.22392
1.22356
1.22379
1.22477
1.2248
1.22375
1.22209
1.21959
1.21522
1.21244
1.21183
1.21142
1.21111
1.212
1.21361
1.21337
1.21239
1.21164
1.21023
1.20799
1.20852
1.21396
1.22443
1.24881
1.28881
1.32338
1.34886
1.35211
1.35177
1.34756
1.33772
1.32649
1.31819
1.31506
1.31288
1.31159
1.30969
1.30734
1.30495
1.3017
1.29628
1.28708
1.2766
1.27267
1.27111
1.27024
1.26989
1.26995
1.26979
1.26908
1.26785
1.26584
1.26344
1.26132
1.25951
1.25644
1.25294
1.25226
1.25237
1.25337
1.25486
1.2566
1.26029
4.00953
3.97339
3.93731
3.89751
3.85994
3.82693
3.79006
3.7535
3.71162
3.67948
3.64475
3.60894
3.57326
3.53475
3.50863
3.47801
3.43186
3.37896
3.37399
3.39693
3.57846
3.99388
4.26377
4.30364
4.28141
4.22645
4.16061
4.09295
4.02871
3.97672
3.92349
3.86951
3.81293
3.75655
3.7084
3.65603
3.60305
3.54978
3.49276
3.44452
3.39288
3.34043
3.29082
3.23648
3.1954
3.15192
3.10974
3.06326
3.02591
2.98547
2.93588
2.894
2.86061
2.81854
2.76954
2.73845
2.70187
2.6641
2.6236
2.58847
2.56155
2.5276
2.49502
2.46132
2.41528
2.38504
2.3608
2.33327
2.31414
2.29223
2.26749
2.23453
2.19346
2.15263
2.10677
2.0753
2.06836
2.05799
2.04553
2.03192
2.01719
1.99653
1.96067
1.91723
1.88071
1.86785
1.85762
1.84564
1.83059
1.80918
1.77875
1.74979
1.7394
1.735
1.73041
1.72302
1.70291
1.66427
1.62653
1.6077
1.59892
1.58983
1.5804
1.56875
1.55357
1.5377
1.5248
1.5153
1.50708
1.49827
1.48545
1.45998
1.42412
1.40173
1.39692
1.39123
1.38536
1.38081
1.37602
1.37105
1.36556
1.35243
1.33578
1.33401
1.33862
1.34784
1.36445
1.38134
1.38606
1.38632
1.3843
1.37762
1.36991
1.36349
1.35663
1.34709
1.34104
1.33924
1.33751
1.33444
1.33089
1.32725
1.32347
1.31828
1.30796
1.29554
1.28964
1.28509
1.2815
1.27917
1.27708
1.27449
1.27178
1.26866
1.26305
1.25313
1.24651
1.24292
1.24056
1.23987
1.24022
1.24048
1.23965
1.23798
1.23453
1.22823
1.22488
1.22421
1.22388
1.22426
1.22448
1.22379
1.22233
1.22011
1.21637
1.21275
1.21189
1.21158
1.21128
1.21153
1.21305
1.21342
1.21206
1.21076
1.20914
1.20663
1.20599
1.20647
1.209
1.21672
1.23121
1.26549
1.30452
1.33704
1.34817
1.34864
1.34581
1.33651
1.32752
1.32412
1.32118
1.31847
1.31689
1.31473
1.31202
1.30897
1.30451
1.29641
1.28626
1.28026
1.27762
1.27564
1.27435
1.27362
1.27306
1.27215
1.27126
1.27039
1.26876
1.26663
1.26439
1.2614
1.25556
1.25082
1.24976
1.24931
1.24911
1.24957
1.25153
1.25516
4.03024
3.99429
3.95709
3.9164
3.88273
3.84787
3.81222
3.77207
3.73505
3.70456
3.66824
3.63529
3.59498
3.56409
3.53678
3.50553
3.46463
3.41283
3.38704
3.39287
3.46285
3.7601
4.15553
4.28783
4.2873
4.25113
4.19137
4.12008
4.06107
4.00822
3.95443
3.90004
3.84376
3.79387
3.74138
3.68649
3.6334
3.57632
3.52718
3.47666
3.42324
3.37401
3.31862
3.27567
3.23287
3.18922
3.14515
3.10108
3.06177
3.01816
2.96811
2.92734
2.89313
2.84884
2.80264
2.77001
2.73373
2.69461
2.65334
2.62651
2.59484
2.55978
2.52585
2.48115
2.44746
2.42362
2.39573
2.37349
2.35131
2.32145
2.28617
2.24404
2.20367
2.16422
2.13215
2.1232
2.11502
2.10052
2.08716
2.06911
2.04401
2.0077
1.96595
1.92875
1.9132
1.90283
1.88903
1.87231
1.85069
1.82155
1.79618
1.78698
1.78234
1.77528
1.76483
1.74064
1.70165
1.66352
1.6411
1.63358
1.62785
1.61958
1.60901
1.59655
1.57954
1.56109
1.54806
1.53911
1.53029
1.51891
1.49756
1.46164
1.43501
1.43057
1.4275
1.42069
1.41416
1.40757
1.4001
1.39081
1.37331
1.34747
1.33367
1.33368
1.33912
1.35392
1.37248
1.37855
1.37966
1.37875
1.37333
1.36889
1.36585
1.36184
1.35534
1.34663
1.34263
1.34078
1.3393
1.33664
1.33313
1.32959
1.32566
1.31874
1.30558
1.29638
1.29261
1.28805
1.28451
1.28233
1.28019
1.2776
1.27469
1.27085
1.2635
1.25298
1.24805
1.24475
1.24202
1.24118
1.24131
1.2409
1.23968
1.23763
1.23334
1.22707
1.22491
1.22426
1.22405
1.22425
1.22384
1.22284
1.221
1.21781
1.2136
1.21205
1.21183
1.21163
1.21157
1.21243
1.21349
1.21255
1.2108
1.20909
1.20643
1.2047
1.2046
1.20514
1.20698
1.21227
1.22168
1.24111
1.27804
1.31143
1.33707
1.34329
1.34266
1.33642
1.33117
1.32947
1.32775
1.32481
1.32262
1.31987
1.31647
1.3123
1.306
1.29577
1.28868
1.28669
1.28422
1.28139
1.27934
1.27784
1.27649
1.2752
1.2742
1.27336
1.27192
1.26988
1.2671
1.26156
1.25261
1.24774
1.2468
1.24644
1.24644
1.24724
1.24936
1.25303
4.04885
4.01335
3.97452
3.93691
3.90404
3.86876
3.8326
3.79142
3.76084
3.72786
3.69375
3.65817
3.61946
3.59323
3.56215
3.53089
3.4938
3.44821
3.40869
3.3969
3.41677
3.58072
3.96
4.23697
4.28316
4.26625
4.21831
4.1505
4.09191
4.03691
3.98301
3.92651
3.87604
3.82528
3.77035
3.71681
3.65842
3.60815
3.55939
3.50627
3.45726
3.40207
3.35639
3.31453
3.26856
3.22649
3.17828
3.1382
3.09431
3.04894
2.99966
2.96216
2.92423
2.87834
2.83348
2.80069
2.76595
2.72327
2.68898
2.66181
2.62697
2.59173
2.54768
2.51128
2.48687
2.45884
2.43259
2.40989
2.37721
2.33955
2.29737
2.25481
2.22035
2.19129
2.17996
2.1727
2.15708
2.14239
2.1231
2.09302
2.05535
2.01289
1.97823
1.95776
1.94699
1.93446
1.91688
1.8938
1.86527
1.84277
1.83458
1.82992
1.8222
1.80849
1.77803
1.73537
1.69974
1.68044
1.67182
1.66448
1.65785
1.64973
1.6381
1.6216
1.59945
1.58182
1.57086
1.56188
1.55175
1.53527
1.5025
1.46984
1.46287
1.46032
1.45554
1.44856
1.44176
1.43426
1.4245
1.40588
1.37281
1.34808
1.34392
1.34463
1.35285
1.36898
1.37666
1.37776
1.37684
1.37153
1.36809
1.36692
1.365
1.36154
1.35508
1.34705
1.34379
1.34197
1.34088
1.33919
1.33582
1.33227
1.32757
1.31734
1.30452
1.299
1.2955
1.29138
1.2881
1.2858
1.28358
1.28109
1.27803
1.27351
1.26419
1.25356
1.2496
1.24645
1.24374
1.24283
1.24252
1.24155
1.23997
1.23739
1.2319
1.22627
1.22484
1.2242
1.22419
1.22404
1.2234
1.22222
1.21977
1.21531
1.21243
1.21202
1.21196
1.21184
1.2121
1.2131
1.21315
1.21147
1.20951
1.20708
1.20463
1.20398
1.20409
1.20484
1.20675
1.20997
1.21517
1.22404
1.24572
1.27934
1.30953
1.33281
1.33919
1.33777
1.33493
1.33392
1.33422
1.33139
1.32825
1.32479
1.32029
1.31481
1.30693
1.29761
1.29477
1.29356
1.29165
1.28805
1.28471
1.28238
1.28049
1.27892
1.27772
1.27665
1.27511
1.2728
1.26818
1.25865
1.24873
1.24615
1.24519
1.24466
1.24462
1.24595
1.24909
1.25379
4.06651
4.03104
3.99228
3.95802
3.92428
3.88994
3.85085
3.81464
3.78554
3.75127
3.71862
3.67892
3.64752
3.61951
3.58634
3.55468
3.51785
3.48365
3.43907
3.40456
3.40802
3.476
3.74671
4.12629
4.26592
4.27296
4.24117
4.18261
4.12227
4.06388
4.00644
3.95521
3.90567
3.85148
3.79822
3.74085
3.68897
3.64073
3.58793
3.53876
3.48536
3.4374
3.39598
3.34867
3.30667
3.25735
3.21459
3.17067
3.12605
3.07693
3.03397
2.99529
2.95448
2.90598
2.86429
2.83238
2.79752
2.75512
2.72517
2.6949
2.65945
2.6165
2.57502
2.55008
2.52245
2.49275
2.46744
2.43417
2.39496
2.35269
2.30892
2.27702
2.25144
2.2384
2.23013
2.21416
2.19624
2.17625
2.1434
2.10368
2.06204
2.026
2.00618
1.99243
1.97903
1.96255
1.93995
1.91138
1.88992
1.88199
1.87707
1.86891
1.85293
1.81822
1.77108
1.73282
1.71822
1.71329
1.70585
1.69828
1.69119
1.68228
1.66681
1.6382
1.61536
1.60383
1.59405
1.58403
1.57067
1.54444
1.50827
1.49639
1.49272
1.48834
1.48227
1.47566
1.46856
1.45974
1.44387
1.40979
1.37428
1.3647
1.36373
1.36585
1.37456
1.38058
1.38137
1.37946
1.37231
1.36787
1.36755
1.36733
1.36613
1.36275
1.35498
1.34752
1.34531
1.34384
1.34366
1.34244
1.33915
1.33523
1.32786
1.31444
1.30592
1.30239
1.29861
1.29528
1.29221
1.28978
1.28767
1.2852
1.28177
1.27578
1.26345
1.25398
1.25126
1.24829
1.24581
1.24481
1.24394
1.2425
1.24054
1.23689
1.23001
1.22598
1.22492
1.22439
1.22447
1.22411
1.22335
1.22192
1.21843
1.21358
1.21222
1.21214
1.21211
1.21209
1.21263
1.21332
1.2124
1.21037
1.20804
1.20538
1.20435
1.20426
1.20448
1.20529
1.2063
1.20751
1.20945
1.21305
1.22235
1.24661
1.28059
1.31025
1.33108
1.33759
1.33757
1.33832
1.33961
1.3372
1.33353
1.32939
1.32396
1.31725
1.30991
1.30413
1.30171
1.30037
1.29852
1.29471
1.29019
1.28718
1.28491
1.28304
1.28152
1.28002
1.27805
1.27434
1.26602
1.2533
1.24713
1.24548
1.24432
1.24382
1.24442
1.24789
1.25248
1.25507
4.0829
4.04723
4.01079
3.97818
3.94456
3.90985
3.87002
3.83973
3.80845
3.77524
3.73973
3.70139
3.67468
3.64271
3.60996
3.57519
3.54113
3.51307
3.47155
3.42114
3.41058
3.42975
3.57924
3.93699
4.21275
4.26697
4.25187
4.2088
4.1516
4.08958
4.03272
3.98272
3.93082
3.87887
3.82244
3.76878
3.72073
3.6689
3.61965
3.56736
3.51788
3.47645
3.42894
3.38545
3.33726
3.29045
3.24757
3.20057
3.15493
3.10626
3.06744
3.02534
2.98265
2.93227
2.89798
2.86526
2.82963
2.78887
2.75917
2.72662
2.68806
2.64136
2.61194
2.58615
2.55464
2.52515
2.4909
2.45138
2.41018
2.36632
2.33544
2.31263
2.29803
2.28785
2.27093
2.24926
2.22602
2.19208
2.15229
2.11249
2.07575
2.05569
2.04117
2.02592
2.0082
1.98715
1.96142
1.93832
1.9294
1.92299
1.9137
1.8955
1.85918
1.81087
1.77036
1.75443
1.75081
1.74944
1.74284
1.73527
1.72724
1.7129
1.67883
1.64607
1.63529
1.62755
1.61764
1.60525
1.58539
1.55127
1.5307
1.52571
1.52053
1.51437
1.50802
1.50154
1.49362
1.4808
1.45103
1.41116
1.39401
1.39154
1.39098
1.39289
1.39341
1.39223
1.38809
1.37713
1.37
1.36931
1.37051
1.37122
1.36998
1.3651
1.35463
1.3494
1.348
1.34721
1.34808
1.34627
1.34272
1.33688
1.32482
1.3131
1.30946
1.30635
1.30231
1.29926
1.29678
1.29468
1.29276
1.2902
1.28606
1.27673
1.26169
1.25507
1.25356
1.25091
1.24864
1.24734
1.24583
1.24392
1.24119
1.2355
1.22863
1.22641
1.22545
1.22516
1.22517
1.22464
1.22376
1.22179
1.21672
1.21276
1.21226
1.21231
1.21228
1.21245
1.21318
1.21324
1.21164
1.20929
1.2064
1.20496
1.20483
1.20483
1.2046
1.20434
1.20436
1.20432
1.20476
1.20674
1.21132
1.22343
1.25274
1.28579
1.31427
1.33259
1.33832
1.34094
1.34275
1.34119
1.33802
1.33385
1.32817
1.32139
1.31625
1.3127
1.30877
1.30627
1.30423
1.30038
1.29547
1.29212
1.28958
1.28742
1.28547
1.28337
1.28021
1.27311
1.26013
1.25055
1.24791
1.24634
1.24517
1.2452
1.2484
1.2533
1.25519
1.25488
4.09872
4.06332
4.02954
3.9969
3.96393
3.92694
3.89099
3.86227
3.82925
3.79687
3.75788
3.72626
3.69846
3.66449
3.63231
3.59389
3.56551
3.53811
3.50112
3.44775
3.41827
3.42542
3.48512
3.73481
4.10009
4.24863
4.258
4.23091
4.17836
4.11482
4.06082
4.00839
3.95601
3.90152
3.84837
3.80044
3.749
3.699
3.64794
3.59759
3.55574
3.50862
3.46289
3.41637
3.36666
3.3242
3.27604
3.23117
3.18034
3.13907
3.09689
3.05469
3.00703
2.96418
2.93371
2.89898
2.86215
2.8226
2.79174
2.75667
2.71378
2.67318
2.64798
2.61794
2.58518
2.54967
2.50803
2.4692
2.42704
2.39516
2.37508
2.35837
2.34578
2.32716
2.3018
2.27428
2.23926
2.2002
2.16215
2.12692
2.10583
2.09211
2.0754
2.05681
2.03513
2.0118
1.99029
1.97775
1.96892
1.95757
1.93672
1.89948
1.85186
1.81109
1.79437
1.78985
1.78942
1.78816
1.78195
1.77318
1.75664
1.71945
1.67928
1.66432
1.65901
1.65143
1.64096
1.62534
1.59871
1.56868
1.55843
1.55223
1.54578
1.53942
1.53298
1.52579
1.51479
1.48988
1.45236
1.42983
1.42564
1.42251
1.42041
1.41725
1.41294
1.40496
1.38827
1.37606
1.37461
1.3762
1.37903
1.3783
1.37496
1.36525
1.35571
1.35382
1.35295
1.35373
1.35328
1.35043
1.34569
1.33509
1.32112
1.31585
1.31391
1.31081
1.30697
1.30421
1.30237
1.30073
1.29882
1.29573
1.28898
1.27447
1.2604
1.25748
1.25663
1.25444
1.25213
1.25028
1.24825
1.24572
1.24117
1.23345
1.22896
1.22755
1.22669
1.22668
1.22639
1.22573
1.22459
1.22138
1.21499
1.2127
1.21248
1.21262
1.21264
1.21312
1.21379
1.21311
1.21116
1.20829
1.20546
1.20497
1.20476
1.20423
1.20317
1.2024
1.20221
1.20201
1.20205
1.20367
1.20646
1.21236
1.22925
1.261
1.29174
1.31998
1.33541
1.34142
1.34441
1.3439
1.34186
1.33844
1.33328
1.3279
1.3239
1.31993
1.31429
1.31077
1.30889
1.30529
1.30053
1.2971
1.29434
1.29187
1.28944
1.2864
1.28031
1.26817
1.25613
1.25209
1.2503
1.24878
1.24844
1.25084
1.25498
1.25638
1.2559
1.25456
4.1128
4.07854
4.04642
4.01386
3.98055
3.94231
3.91168
3.88121
3.84858
3.81389
3.77612
3.74964
3.71814
3.68561
3.65093
3.61403
3.58923
3.55918
3.52645
3.47803
3.43571
3.43008
3.44646
3.58329
3.91533
4.19167
4.25548
4.24422
4.20368
4.14424
4.08736
4.0334
3.97997
3.92643
3.87801
3.82788
3.77863
3.7287
3.67771
3.63459
3.58744
3.53966
3.49387
3.44192
3.39913
3.35194
3.30567
3.25673
3.21055
3.16981
3.12516
3.08281
3.03313
3.00208
2.96814
2.93367
2.89327
2.85612
2.82233
2.78472
2.74036
2.70691
2.67973
2.64656
2.61104
2.56638
2.5282
2.49081
2.45691
2.43788
2.41904
2.40341
2.38257
2.35423
2.32335
2.28667
2.2478
2.21186
2.17831
2.15651
2.1437
2.12703
2.10741
2.08554
2.06267
2.04197
2.02697
2.01564
2.00193
1.97795
1.9393
1.89226
1.85282
1.83729
1.83227
1.83096
1.83118
1.82685
1.81878
1.80051
1.76075
1.71462
1.69387
1.68909
1.6841
1.67566
1.66397
1.64534
1.61644
1.59299
1.5837
1.57709
1.57054
1.56406
1.55693
1.54702
1.52554
1.49066
1.46611
1.46117
1.45701
1.4528
1.44816
1.44215
1.43042
1.4068
1.38771
1.38418
1.38599
1.39106
1.39097
1.38775
1.3782
1.36447
1.36075
1.36004
1.36045
1.36084
1.35845
1.35462
1.34542
1.33109
1.32298
1.3214
1.31978
1.31684
1.31349
1.31114
1.30947
1.30776
1.30498
1.29935
1.28854
1.27151
1.26187
1.26068
1.2603
1.25876
1.25626
1.25385
1.25114
1.24715
1.23979
1.23304
1.23087
1.22958
1.22901
1.2289
1.22828
1.22737
1.22534
1.21974
1.2141
1.21311
1.21307
1.21322
1.21348
1.21432
1.21454
1.21314
1.2107
1.20694
1.20456
1.20416
1.20365
1.20254
1.20102
1.20063
1.20043
1.20024
1.20036
1.20179
1.20432
1.20727
1.21497
1.23658
1.26591
1.29647
1.32504
1.34013
1.34613
1.34666
1.34571
1.34328
1.339
1.33448
1.33019
1.32455
1.31776
1.31465
1.313
1.30984
1.30555
1.30219
1.29924
1.29645
1.29337
1.28813
1.2771
1.26325
1.25746
1.25565
1.25405
1.25369
1.25567
1.25787
1.25835
1.25768
1.25657
1.2524
4.12641
4.09373
4.06171
4.02954
3.99414
3.95896
3.92994
3.89731
3.86544
3.82758
3.79658
3.76934
3.73609
3.70529
3.6673
3.63721
3.61046
3.57954
3.54863
3.50645
3.46476
3.43843
3.44258
3.49603
3.72611
4.07583
4.23835
4.25298
4.22611
4.1743
4.11613
4.05703
4.0012
3.95438
3.9055
3.85599
3.8063
3.75508
3.71188
3.66575
3.61631
3.57023
3.51705
3.47279
3.42712
3.37873
3.33235
3.28214
3.24241
3.19738
3.15598
3.10793
3.07002
3.03928
3.00244
2.96685
2.92308
2.88858
2.85058
2.81177
2.76842
2.73834
2.70738
2.67241
2.62961
2.58617
2.55505
2.52183
2.50082
2.48018
2.46088
2.43782
2.40681
2.37351
2.336
2.29618
2.26251
2.23095
2.20838
2.19588
2.17919
2.15986
2.13774
2.11395
2.09298
2.07596
2.0617
2.04567
2.01941
1.97968
1.93365
1.89584
1.88167
1.87761
1.876
1.87454
1.87083
1.86332
1.84419
1.80227
1.75238
1.72672
1.72089
1.71643
1.7094
1.70004
1.68669
1.66516
1.63661
1.61677
1.60814
1.6018
1.59546
1.58837
1.57875
1.5593
1.52683
1.50113
1.49561
1.49175
1.4867
1.48136
1.4748
1.46202
1.43368
1.40692
1.39977
1.39966
1.40424
1.40612
1.40376
1.39626
1.37966
1.37054
1.36968
1.36949
1.36965
1.36741
1.3636
1.35525
1.34149
1.331
1.3291
1.32872
1.32763
1.32468
1.32188
1.31965