/*--------------------------------*- C++ -*----------------------------------*\
  =========                 |
  \\      /  F ield         | OpenFOAM: The Open Source CFD Toolbox
   \\    /   O peration     | Website:  https://openfoam.org
    \\  /    A nd           | Version:  7
     \\/     M anipulation  |
\*---------------------------------------------------------------------------*/
FoamFile
{
    version     2.0;
    format      ascii;
    class       volScalarField;
    location    "15.5";
    object      p;
}
// * * * * * * * * * * * * * * * * * * * * * * * * * * * * * * * * * * * * * //

dimensions      [1 -1 -2 0 0 0 0];

internalField   nonuniform List<scalar> 
3328
(
499.511
30.6592
13.4117
13.3713
13.3642
13.4577
13.6419
13.7389
13.7443
13.685
13.5944
13.5514
13.5808
13.7731
14.0343
14.2168
14.2913
14.2885
14.2191
14.134
14.1011
14.1177
14.1708
14.2089
499.574
30.6401
13.3954
13.3495
13.3347
13.4239
13.611
13.7172
13.7311
13.6754
13.5891
13.5459
13.571
13.7419
13.9866
14.1584
14.2265
14.2278
14.1809
14.1244
14.1164
14.1464
14.2024
14.2386
499.737
30.609
13.365
13.3073
13.2788
13.361
13.5503
13.6659
13.6939
13.6494
13.5745
13.5342
13.5554
13.6991
13.9282
14.0952
14.1587
14.1565
14.127
14.1003
14.121
14.1623
14.2194
14.2555
500.014
30.5511
13.3262
13.2552
13.2118
13.2798
13.4733
13.6062
13.6512
13.6255
13.5683
13.5308
13.548
13.6572
13.8589
14.0181
14.081
14.0744
14.0561
14.0542
14.098
14.1618
14.2214
14.2554
500.362
30.461
13.2844
13.2
13.15
13.2006
13.3902
13.5458
13.6085
13.6118
13.5743
13.5363
13.5498
13.628
13.7902
13.9395
14.0009
13.9902
13.9671
13.9681
14.0114
14.0987
14.1783
14.2382
500.669
30.3941
13.2489
13.1513
13.1058
13.1364
13.312
13.4963
13.5876
13.6213
13.5984
13.5622
13.5627
13.6155
13.73
13.8585
13.916
13.9052
13.8754
13.875
13.9154
13.9893
14.0581
14.0963
500.781
30.3781
13.2186
13.1187
13.0735
13.0901
13.2442
13.4563
13.5917
13.6453
13.6419
13.615
13.5877
13.6163
13.6827
13.7776
13.8265
13.8141
13.7696
13.7392
13.7313
13.7371
13.7643
13.865
500.628
30.4233
13.1985
13.1131
13.058
13.0598
13.1817
13.4106
13.5955
13.6726
13.6956
13.6784
13.6251
13.6242
13.6481
13.6983
13.7271
13.709
13.6513
13.5882
13.5412
13.5452
13.5482
13.9232
500.322
30.4896
13.2083
13.1352
13.0648
13.0469
13.1244
13.343
13.5651
13.6812
13.7355
13.7295
13.6647
13.6274
13.6155
13.6227
13.6256
13.5979
13.5257
13.4242
13.3118
13.2149
12.9099
12.6634
499.929
30.5252
13.2482
13.1853
13.1034
13.0592
13.0822
13.2508
13.4743
13.6299
13.7213
13.7357
13.6797
13.6153
13.573
13.5476
13.5284
13.4935
13.4086
13.2639
13.1034
12.9304
12.8267
12.5831
499.467
30.5367
13.3027
13.2595
13.1685
13.0893
13.0642
13.1486
13.334
13.5021
13.6152
13.6585
13.6267
13.558
13.5041
13.4708
13.4446
13.4076
13.3117
13.1318
12.9253
12.7026
12.6137
12.4347
498.945
30.4714
13.352
13.3324
13.2393
13.134
13.0603
13.0608
13.1788
13.3273
13.4399
13.5008
13.4944
13.4415
13.4011
13.389
13.3784
13.3478
13.242
13.0418
12.7973
12.5907
12.4901
12.406
498.379
30.3537
13.3808
13.381
13.2923
13.1686
13.0517
12.9908
13.0255
13.1448
13.2512
13.2987
13.3071
13.2852
13.2758
13.3017
13.324
13.3122
13.2159
13.0126
12.7381
12.5224
12.3849
12.3459
497.91
30.2074
13.3865
13.4015
13.32
13.1851
13.0407
12.9355
12.9137
12.9843
13.0819
13.1204
13.1225
13.1201
13.1467
13.2097
13.2734
13.2903
13.2168
13.0297
12.7463
12.4944
12.3457
12.274
497.595
30.0106
13.369
13.3987
13.3343
13.2039
13.0488
12.9255
12.8557
12.8735
12.9398
12.9651
12.9583
12.9638
13.0111
13.1078
13.2085
13.263
13.2274
13.0613
12.7963
12.516
12.3149
12.1948
497.513
29.7239
13.334
13.38
13.349
13.2507
13.1067
12.9696
12.8584
12.8159
12.84
12.8557
12.8448
12.8344
12.8674
12.9809
13.1157
13.212
13.2226
13.0916
12.8519
12.5627
12.3077
12.1271
497.606
29.3198
13.2961
13.3614
13.3696
13.317
13.2009
13.0572
12.9152
12.8192
12.7912
12.7844
12.7566
12.7266
12.7356
12.8272
12.9836
13.1134
13.1744
13.1067
12.9023
12.6337
12.3393
12.0906
497.86
28.797
13.2658
13.3441
13.3898
13.3861
13.3007
13.1664
13.0156
12.8762
12.7899
12.7441
12.686
12.6273
12.6005
12.6551
12.8043
12.9695
13.0835
13.0875
12.9354
12.7082
12.4149
12.1117
498.246
28.1862
13.2318
13.3184
13.403
13.4329
13.3658
13.2403
13.0948
12.9483
12.8223
12.7252
12.6296
12.5335
12.4714
12.4774
12.6007
12.7896
12.9518
13.0327
12.9592
12.7743
12.5216
12.1992
498.781
27.5521
13.1437
13.2813
13.3846
13.4222
13.3667
13.2566
13.129
12.9982
12.8602
12.7217
12.5899
12.4624
12.3627
12.3162
12.3956
12.5801
12.7914
12.9443
12.9728
12.8326
12.6269
12.3306
499.403
26.9792
12.9781
13.1924
13.3215
13.3531
13.2998
13.2108
13.1104
13.0076
12.8855
12.7327
12.5736
12.4251
12.2896
12.2016
12.215
12.3658
12.5951
12.8036
12.9148
12.8596
12.6879
12.4385
499.915
26.4506
12.8089
13.0508
13.2099
13.2368
13.1892
13.1262
13.0541
12.9815
12.893
12.7593
12.5931
12.4324
12.269
12.1393
12.0829
12.1674
12.362
12.5956
12.7607
12.7914
12.6679
12.4628
500.57
25.9632
12.6643
12.8919
13.0747
13.1182
13.0798
13.0367
12.9867
12.9421
12.887
12.7962
12.6463
12.4737
12.2976
12.1265
12.0062
12.0007
12.1289
12.3292
12.5078
12.584
12.5364
12.3755
501.227
25.5126
12.5388
12.7464
12.9355
13.0323
13.0149
12.9674
12.9265
12.8966
12.8709
12.8217
12.7005
12.5337
12.3477
12.1505
11.9722
11.8837
11.9192
12.0481
12.1976
12.2913
12.2948
12.1931
501.576
25.3361
12.3942
12.6244
12.8202
12.9633
12.9827
12.9488
12.9057
12.8756
12.8587
12.8195
12.7335
12.584
12.3939
12.1896
11.9837
11.8238
11.761
11.7985
11.8926
11.9763
12.0053
11.959
501.815
25.5066
12.2429
12.531
12.7344
12.939
13.0186
13.0046
12.9563
12.902
12.8477
12.7989
12.7254
12.5961
12.4276
12.2288
12.0177
11.8189
11.6874
11.6407
11.6607
11.7102
11.7388
11.726
501.682
26.0846
12.0927
12.4433
12.6701
12.934
13.0845
13.1031
13.0338
12.9473
12.8409
12.7524
12.6639
12.5619
12.4316
12.2621
12.0654
11.8644
11.6905
11.5878
11.5565
11.565
11.5757
11.5635
501.334
26.8066
12.0118
12.3798
12.6225
12.9305
13.1265
13.1781
13.1054
12.9802
12.8352
12.6837
12.5643
12.4684
12.3853
12.2767
12.1241
11.9459
11.766
11.6297
11.5653
11.5468
11.5369
11.5066
500.973
27.4265
11.9985
12.3661
12.5972
12.9035
13.1158
13.2075
13.166
13.0108
12.8289
12.6201
12.4589
12.3488
12.2907
12.2468
12.1768
12.0495
11.8948
11.7503
11.6569
11.614
11.5814
11.5266
500.665
27.7491
12.0409
12.3802
12.5815
12.8537
13.0642
13.1718
13.154
12.9938
12.8028
12.5879
12.3886
12.2484
12.1818
12.1723
12.1768
12.1331
12.0336
11.9126
11.8003
11.7233
11.6548
11.5706
500.419
27.7629
12.1632
12.4011
12.5448
12.7496
12.9345
13.0527
13.0553
12.9264
12.7585
12.5744
12.3656
12.1977
12.0979
12.0655
12.0942
12.138
12.12
12.0546
11.9546
11.8396
11.7262
11.6016
500.136
27.7711
12.2504
12.3939
12.4904
12.6091
12.7411
12.8406
12.8801
12.8404
12.7165
12.5674
12.3917
12.1998
12.0541
11.9721
11.9522
12.0261
12.0846
12.1018
12.0578
11.9356
11.7859
11.6206
499.69
27.8819
12.3
12.3859
12.4223
12.4545
12.515
12.6072
12.6865
12.7182
12.6815
12.5849
12.431
12.2217
12.0326
11.889
11.8194
11.852
11.9404
12.0263
12.0537
11.9771
11.8274
11.6419
499.17
28.1335
12.3111
12.3881
12.3719
12.3545
12.3617
12.418
12.5191
12.6154
12.6403
12.608
12.4662
12.2483
12.0266
11.8404
11.727
11.698
11.7617
11.8642
11.9434
11.943
11.8449
11.6823
498.665
28.3504
12.3094
12.4185
12.3831
12.3462
12.321
12.3417
12.4143
12.527
12.5951
12.5858
12.4554
12.2468
12.0218
11.8253
11.6899
11.6254
11.6455
11.7203
11.8071
11.8593
11.8266
11.7135
498.293
28.3076
12.3543
12.4783
12.4476
12.4206
12.3872
12.3761
12.3949
12.4538
12.5073
12.495
12.3777
12.2012
12.0048
11.8241
11.6933
11.6391
11.6424
11.689
11.7494
11.7958
11.7898
11.7084
497.942
28.0581
12.379
12.5589
12.581
12.5817
12.569
12.5107
12.4524
12.4072
12.3793
12.3213
12.2286
12.1103
11.9695
11.8334
11.7431
11.7202
11.7432
11.7779
11.8053
11.8111
11.779
11.6818
497.956
27.464
12.4634
12.6728
12.7755
12.8334
12.8277
12.7249
12.5674
12.4041
12.2452
12.1147
12.0359
11.9773
11.9202
11.8758
11.8648
11.8877
11.9262
11.9481
11.9331
11.8804
11.7871
11.6394
498.242
26.775
12.5826
12.7986
12.9548
13.0508
13.0569
12.9327
12.7081
12.4215
12.121
11.9226
11.8386
11.8169
11.865
11.9371
12.0177
12.0819
12.1229
12.1236
12.0643
11.9577
11.8053
11.5959
498.469
26.3244
12.6778
12.8797
13.0756
13.2103
13.2466
13.1095
12.8406
12.4646
12.0723
11.8293
11.7241
11.6994
11.8235
11.9828
12.1298
12.2258
12.2723
12.2598
12.1723
12.0366
11.8522
11.6257
10.7484
11.786
12.3407
12.3675
12.2632
12.0715
11.9085
11.7048
12.4145
12.7667
12.6042
12.4692
12.3167
12.1733
11.9994
11.8265
12.3933
12.5123
12.3882
12.3462
12.2482
12.1735
12.118
12.0185
12.4366
12.5212
12.4111
12.3754
12.2917
12.2521
12.2466
12.2097
12.3825
12.4766
12.3892
12.3323
12.2684
12.2862
12.3394
12.3707
12.2867
12.3274
12.3059
12.2633
12.2507
12.3266
12.4431
12.5003
12.1603
12.1823
12.1473
12.0857
12.083
12.1611
12.2705
12.4742
12.0192
11.9695
11.9249
11.8338
11.7958
11.8748
11.9679
12.4098
11.894
11.7487
11.6282
11.5098
11.4069
11.3156
10.7308
8.87512
11.8357
11.5847
11.3713
11.1504
10.931
10.6139
9.94742
8.03437
11.8657
11.5308
11.216
10.8996
10.5612
10.1034
9.34146
7.70069
11.9733
11.5799
11.1801
10.7709
10.3217
9.79743
9.04478
7.70993
12.1
11.6958
11.2437
10.7585
10.232
9.65622
8.95318
7.88329
12.1765
11.8009
11.3478
10.8264
10.2547
9.6394
8.97504
8.11191
12.1483
11.8284
11.4164
10.9167
10.3434
9.71473
9.08053
8.35349
12.0157
11.7599
11.4148
10.9761
10.4458
9.84706
9.24977
8.6022
11.8322
11.6335
11.3521
10.9909
10.5331
9.99773
9.45207
8.87275
11.6506
11.5076
11.2823
10.987
10.6015
10.1421
9.65561
9.14663
11.5091
11.4017
11.2182
10.9719
10.6479
10.2578
9.82543
9.37908
11.4383
11.3292
11.161
10.9385
10.6565
10.3182
9.93344
9.53771
11.429
11.2933
11.1146
10.891
10.6268
10.3204
9.97218
9.6156
11.4437
11.2767
11.0768
10.8395
10.5757
10.284
9.96764
9.63462
11.4463
11.2561
11.0401
10.7917
10.5266
10.2449
9.95591
9.64686
11.44
11.2363
11.0146
10.7672
10.5115
10.2446
9.97279
9.68326
11.4424
11.232
11.0141
10.7785
10.5392
10.2911
10.0355
9.76657
11.4929
11.283
11.0637
10.8322
10.5978
10.3581
10.1113
9.85486
11.5505
11.3525
11.1341
10.897
10.651
10.4005
10.1498
9.89828
11.5698
11.3815
11.1577
10.9067
10.6416
10.3727
10.1112
9.86067
11.5258
11.3222
11.0834
10.8206
10.5444
10.268
10.0054
9.7655
11.4362
11.1958
10.9422
10.681
10.4136
10.1448
9.88911
9.663
11.3404
11.0638
10.7896
10.5211
10.26
10.0075
9.77158
9.56472
11.3577
11.0623
10.7596
10.4644
10.1834
9.92073
9.68522
9.48912
2.61432
1.15302
0.808396
0.814601
0.965082
1.39654
2.13367
2.89295
3.49507
4.10364
4.65151
4.7799
5.26017
5.97732
6.11439
6.29596
6.4692
6.53346
6.4977
6.43776
6.38295
6.41559
6.49988
6.49135
6.41224
6.33935
6.31226
6.35428
6.34342
6.21576
6.06762
5.88897
5.72071
5.58354
5.44814
5.29124
5.09871
4.91087
4.77211
4.6587
4.54939
4.43811
4.33798
4.2619
4.2001
4.15597
4.09776
4.01947
3.93259
3.84911
3.81776
3.87647
4.16767
4.84829
5.89973
6.5013
6.2835
6.11615
6.00326
5.90137
5.77209
5.66613
5.59517
5.53993
5.49095
5.43386
5.36913
5.28658
5.19356
5.11584
5.05502
4.99737
4.93658
4.8736
4.8152
4.76936
4.73398
4.71797
4.72015
4.71627
4.70217
4.68136
4.65452
4.62628
4.5941
4.55143
4.48478
4.45823
4.12926
2.66717
2.167
1.84957
1.66362
1.68241
1.87949
2.20144
2.66712
3.24007
3.9974
4.4301
5.11263
6.07785
6.30864
6.47388
6.57114
6.6034
6.57179
6.50546
6.43059
6.42189
6.47287
6.48533
6.42816
6.36127
6.32162
6.31857
6.26276
6.13749
5.99156
5.8077
5.63012
5.4955
5.37151
5.2361
5.07857
4.91671
4.78142
4.66733
4.5601
4.45574
4.36004
4.27952
4.21302
4.16327
4.09906
4.02127
3.94465
3.8752
3.88029
4.01041
4.35363
4.81726
5.58163
6.27884
6.15301
6.01762
5.9281
5.85827
5.77978
5.69647
5.62569
5.56694
5.50891
5.44983
5.38598
5.31081
5.22434
5.14027
5.07033
5.01232
4.95656
4.89928
4.84282
4.79288
4.75525
4.7331
4.72337
4.71161
4.696
4.67716
4.65181
4.62262
4.58046
4.53175
4.46905
4.45455
5.36357
3.86382
3.17119
2.80102
2.35181
2.09984
2.08199
2.1977
2.43959
2.77746
3.25203
3.95106
4.75386
6.01722
6.50151
6.73209
6.67789
6.57625
6.54041
6.50052
6.45915
6.43149
6.41607
6.3968
6.36905
6.34518
6.33101
6.30697
6.2338
6.12292
5.99085
5.81501
5.61948
5.45247
5.30919
5.1733
5.03652
4.90081
4.77996
4.67084
4.56243
4.45623
4.36519
4.28753
4.21994
4.16312
4.08681
4.01626
3.96943
3.95768
4.05115
4.29073
4.57455
4.76177
5.1493
5.91056
6.05039
5.96003
5.87745
5.80582
5.74848
5.6915
5.63886
5.58498
5.5254
5.46318
5.39628
5.32454
5.24779
5.16492
5.07923
5.00793
4.96084
4.91945
4.87955
4.84189
4.80701
4.77361
4.7407
4.71083
4.68622
4.66816
4.648
4.60789
4.55527
4.50515
4.45215
4.47093
6.24749
5.03257
4.12619
3.7363
3.32149
2.84024
2.69993
2.61541
2.51299
2.55007
2.76668
3.25392
3.94503
5.10228
6.32416
6.87057
6.85437
6.68454
6.6244
6.58977
6.56083
6.51275
6.44338
6.37853
6.33706
6.3241
6.30283
6.23826
6.14818
6.03822
5.89715
5.72605
5.55084
5.39505
5.25834
5.13096
5.00524
4.88359
4.7745
4.67567
4.57898
4.483
4.39285
4.31689
4.24763
4.16824
4.07608
4.02117
4.02228
4.09861
4.31046
4.58866
4.76164
4.73571
4.82513
5.34454
5.79323
5.87869
5.79704
5.733
5.70278
5.68298
5.65944
5.61661
5.56438
5.50711
5.44223
5.37456
5.30483
5.2299
5.14268
5.04564
4.97661
4.93564
4.9009
4.87647
4.8512
4.81462
4.76787
4.71672
4.67769
4.64392
4.61462
4.57486
4.52827
4.49201
4.47229
4.54335
6.83978
5.93561
5.04749
4.53197
4.16949
3.6453
3.29986
3.16325
2.91553
2.79793
2.88803
2.99858
3.24119
3.94003
5.38547
6.59542
7.01437
6.95903
6.87189
6.78808
6.71224
6.63892
6.55077
6.46343
6.38963
6.32797
6.24512
6.14286
6.03059
5.90371
5.75616
5.60295
5.46516
5.33989
5.22117
5.10384
4.98707
4.87391
4.76628
4.66312
4.56737
4.48509
4.41506
4.34816
4.27028
4.17626
4.09291
4.07363
4.13413
4.33399
4.61834
4.80239
4.82743
4.74305
4.70983
4.8709
5.37624
5.68923
5.75066
5.70779
5.68288
5.6744
5.65884
5.62624
5.58099
5.52777
5.46846
5.40675
5.33982
5.26771
5.18764
5.09639
5.01071
4.96103
4.92626
4.90032
4.87411
4.83821
4.7879
4.72086
4.66472
4.61883
4.57284
4.52928
4.50148
4.49431
4.52898
4.66904
7.30627
6.53918
5.78474
5.2075
4.85071
4.38367
3.92605
3.75621
3.53308
3.31111
3.24308
3.19444
3.15625
3.26272
3.91347
5.46324
6.8277
7.09215
7.04134
6.93365
6.82663
6.73836
6.63466
6.51333
6.38865
6.27173
6.16127
6.04394
5.91724
5.78545
5.66672
5.56255
5.45955
5.35236
5.2375
5.11281
4.98358
4.8601
4.74781
4.64419
4.55864
4.48994
4.42817
4.35341
4.27093
4.18273
4.14164
4.17984
4.35202
4.70209
4.908
4.90921
4.839
4.7527
4.66512
4.67639
4.92279
5.37069
5.6133
5.66862
5.68156
5.65829
5.62804
5.60482
5.56984
5.52441
5.47531
5.42203
5.36329
5.30027
5.2334
5.16107
5.07931
5.00392
4.95901
4.92115
4.88346
4.83899
4.78159
4.71207
4.65059
4.59157
4.53918
4.50319
4.49281
4.52075
4.63526
4.83415
7.66547
7.00563
6.35828
5.7823
5.41216
5.01602
4.53091
4.27766
4.10694
3.85629
3.64633
3.52402
3.3832
3.30866
3.36685
3.96366
5.69016
7.00864
7.10531
6.98008
6.86179
6.75505
6.63606
6.51163
6.37905
6.23707
6.09027
5.95141
5.8217
5.70272
5.59338
5.48992
5.38889
5.28539
5.17587
5.0604
4.9441
4.83267
4.72932
4.63997
4.5664
4.50766
4.44001
4.35578
4.27365
4.23091
4.25409
4.39669
4.74734
5.03997
5.06531
4.9642
4.8456
4.77155
4.68259
4.61467
4.65579
4.96125
5.37641
5.57458
5.62779
5.62604
5.60411
5.58117
5.56101
5.52554
5.48681
5.44735
5.40684
5.3623
5.3061
5.22863
5.12274
5.00898
4.93509
4.88659
4.84025
4.79173
4.73701
4.67992
4.62422
4.56388
4.52004
4.50245
4.52421
4.60623
4.80951
4.99961
7.98
7.38099
6.79604
6.28979
5.90638
5.56038
5.11355
4.7706
4.60384
4.40854
4.14848
3.94311
3.77816
3.59643
3.46441
3.51223
4.16026
5.95524
6.968
6.97783
6.86208
6.74629
6.61342
6.48701
6.34783
6.16899
5.99523
5.86679
5.75898
5.65305
5.54629
5.43814
5.32903
5.21935
5.11355
5.01262
4.91507
4.82072
4.735
4.66084
4.59942
4.54493
4.46288
4.38182
4.32668
4.33289
4.46827
4.79359
5.12903
5.19448
5.13521
5.00964
4.876
4.77125
4.69181
4.60414
4.57417
4.67556
5.01955
5.39239
5.5457
5.57388
5.54699
5.52984
5.54696
5.5424
5.50948
5.47856
5.44645
5.40406
5.33593
5.23353
5.10496
4.97768
4.89432
4.83891
4.78422
4.73174
4.69229
4.65193
4.6072
4.56046
4.5394
4.55353
4.62728
4.7788
5.01665
5.1224
8.3085
7.75062
7.2155
6.75124
6.37895
6.04614
5.64739
5.26493
5.04343
4.86574
4.65628
4.40277
4.14289
3.93732
3.75727
3.62247
3.67
4.3199
5.90107
6.78964
6.85548
6.73819
6.5903
6.44204
6.26027
6.04729
5.90224
5.80469
5.70892
5.6032
5.48713
5.36109
5.24258
5.14497
5.05555
4.9607
4.85626
4.77292
4.71175
4.66823
4.64716
4.58297
4.49061
4.42641
4.41701
4.55361
4.89478
5.24676
5.33012
5.26615
5.15972
5.04146
4.91539
4.80605
4.71839
4.61831
4.54302
4.5462
4.69502
5.07932
5.40665
5.52116
5.51992
5.50544
5.51746
5.54476
5.52981
5.49694
5.45916
5.39916
5.30157
5.18272
5.05524
4.93155
4.83835
4.77215
4.7104
4.65883
4.62482
4.60986
4.59626
4.58029
4.60373
4.68485
4.82967
5.01937
5.18634
5.20073
8.6425
8.13424
7.63947
7.1912
6.81237
6.47343
6.09688
5.71561
5.46372
5.24943
5.04799
4.82948
4.5552
4.2796
4.08762
3.90309
3.7653
3.77349
4.34746
5.7699
6.60238
6.67616
6.55462
6.39676
6.16642
5.96034
5.85575
5.7727
5.67551
5.56028
5.42528
5.27968
5.16125
5.07596
5.00164
4.92466
4.8413
4.76788
4.70761
4.66622
4.61363
4.5279
4.47174
4.46232
4.59845
4.98805
5.37469
5.48795
5.42355
5.30841
5.18636
5.07834
4.97018
4.86139
4.75693
4.64259
4.54426
4.51084
4.53992
4.73937
5.14262
5.41736
5.49343
5.50043
5.51641
5.53832
5.51812
5.48219
5.43785
5.37049
5.26465
5.12665
4.98716
4.86838
4.77832
4.71162
4.65269
4.60185
4.56214
4.53768
4.56099
4.62123
4.70861
4.8852
5.07917
5.24628
5.29088
5.25119
8.92943
8.47303
8.01768
7.59386
7.2047
6.85613
6.47059
6.09513
5.8294
5.60993
5.34596
5.13423
4.90335
4.63239
4.38033
4.16148
3.96934
3.81551
3.82083
4.40146
5.71323
6.43946
6.48814
6.33332
6.08843
5.92757
5.83479
5.75323
5.64969
5.52778
5.37875
5.22402
5.11236
5.0262
4.95482
4.90022
4.84208
4.77913
4.71974
4.64158
4.551
4.48457
4.47706
4.60173
4.99724
5.44723
5.60197
5.56064
5.46573
5.34399
5.22638
5.12345
5.02189
4.906
4.78069
4.66515
4.57256
4.51498
4.50822
4.55936
4.81847
5.21521
5.4325
5.50162
5.52465
5.53951
5.49877
5.45466
5.40635
5.33614
5.22803
5.08646
4.93391
4.80513
4.72246
4.66593
4.61495
4.56606
4.52556
4.50678
4.53751
4.64173
4.82509
5.07299
5.26214
5.35645
5.33604
5.27507
9.13249
8.71813
8.30289
7.90792
7.52685
7.147
6.79299
6.42401
6.11153
5.89351
5.65766
5.35599
5.10744
4.89067
4.6717
4.4501
4.2151
3.99281
3.82735
3.8591
4.46702
5.70033
6.32559
6.26114
6.02388
5.90836
5.83098
5.7536
5.64873
5.51912
5.35299
5.19293
5.0884
5.01187
4.94941
4.88095
4.80214
4.71898
4.63347
4.54166
4.47005
4.46344
4.54691
4.92701
5.40132
5.65702
5.64926
5.57494
5.4784
5.3769
5.27347
5.17045
5.06405
4.93683
4.79355
4.68911
4.61582
4.55466
4.51392
4.53001
4.63154
4.93605
5.29108
5.46688
5.52742
5.53114
5.47974
5.42162
5.36531
5.2896
5.18675
5.05975
4.91197
4.76289
4.67899
4.63204
4.58842
4.54448
4.51592
4.51885
4.58029
4.71995
4.95968
5.19487
5.33881
5.37414
5.36408
5.30765
9.25088
8.87601
8.50075
8.13481
7.76802
7.38314
7.03158
6.70119
6.37937
6.10168
5.87508
5.61193
5.31931
5.06247
4.86833
4.70378
4.49568
4.23877
3.95516
3.81661
3.89169
4.52787
5.69811
6.06594
6.00908
5.90986
5.84477
5.7599
5.65762
5.52513
5.3457
5.19145
5.09931
5.02618
4.94586
4.85885
4.76481
4.65486
4.53597
4.4542
4.4365
4.491
4.83191
5.35298
5.61162
5.67375
5.63068
5.5544
5.47949
5.40486
5.31694
5.21131
5.0918
4.95375
4.82137
4.73606
4.67486
4.61896
4.57007
4.5587
4.60391
4.74544
5.04737
5.35241
5.4997
5.50797
5.46436
5.39327
5.32033
5.23936
5.14827
5.04453
4.91304
4.75994
4.6543
4.6071
4.5646
4.5343
4.54081
4.57026
4.66338
4.8538
5.08007
5.23065
5.32626
5.36933
5.39605
5.35787
9.30132
8.96586
8.62628
8.28707
7.93904
7.57434
7.23546
6.93551
6.62079
6.32552
6.06395
5.79445
5.51787
5.28329
5.05414
4.84116
4.67554
4.47322
4.20078
3.91937
3.84032
3.93224
4.59064
5.59131
5.91462
5.93242
5.85148
5.76188
5.65898
5.52252
5.34875
5.21608
5.12495
5.03354
4.93963
4.83397
4.70243
4.55717
4.43987
4.40445
4.44212
4.72603
5.32099
5.62387
5.63257
5.61419
5.59162
5.53123
5.47438
5.42241
5.35057
5.24464
5.10582
4.95928
4.84671
4.78265
4.73458
4.69493
4.66675
4.63851
4.63019
4.66238
4.80598
5.09328
5.37582
5.46896
5.43708
5.36804
5.28239
5.19913
5.12149
5.04164
4.93615
4.78745
4.65556
4.5928
4.5557
4.5405
4.56294
4.63628
4.80159
5.00895
5.14558
5.22506
5.28251
5.34999
5.44164
5.41572
9.33453
9.01895
8.71029
8.40159
8.07786
7.74318
7.4288
7.14192
6.8481
6.54197
6.26083
5.9858
5.69052
5.45244
5.25005
5.02724
4.79514
4.58997
4.39967
4.15781
3.93915
3.8859
3.97549
4.60845
5.4932
5.78479
5.84569
5.77049
5.65049
5.5097
5.36168
5.23944
5.12991
5.02927
4.92341
4.78818
4.61374
4.44794
4.37487
4.39856
4.63106
5.21196
5.66598
5.68338
5.60697
5.55624
5.55057
5.52024
5.46689
5.41644
5.35744
5.26261
5.11352
4.95991
4.87991
4.83494
4.80114
4.78208
4.76778
4.72756
4.65866
4.62828
4.65725
4.80352
5.09308
5.33756
5.39498
5.34734
5.2655
5.18381
5.10941
5.03948
4.95873
4.84079
4.68759
4.59518
4.56152
4.56139
4.60331
4.76721
4.99121
5.1454
5.20893
5.24028
5.25644
5.30692
5.41274
5.40911
9.38791
9.09129
8.80249
8.51764
8.22418
7.92882
7.64959
7.37198
7.06466
6.75018
6.44924
6.17171
5.89441
5.61181
5.37845
5.17679
4.94851
4.705
4.5038
4.34037
4.13087
3.95087
3.89454
3.98333
4.5763
5.3317
5.73144
5.75597
5.6382
5.49336
5.36006
5.23514
5.1176
5.00319
4.87568
4.70901
4.5096
4.36433
4.36332
4.53845
5.06208
5.62386
5.76571
5.6716
5.58221
5.53133
5.52267
5.51064
5.4604
5.40884
5.34895
5.25726
5.11849
4.99883
4.93171
4.88557
4.86726
4.86119
4.8153
4.74191
4.65274
4.59562
4.58416
4.63053
4.8015
5.07822
5.28384
5.31441
5.2653
5.19025
5.11428
5.04328
4.97105
4.8747
4.73197
4.61201
4.58176
4.59942
4.72869
4.95089
5.14088
5.2424
5.26824
5.26994
5.26088
5.26801
5.33358
5.36615
9.48896
9.21096
8.93459
8.66249
8.39137
8.11808
7.86147
7.59848
7.28887
6.96346
6.64346
6.3496
6.07339
5.79078
5.51369
5.27833
5.06526
4.84196
4.62788
4.44587
4.26918
4.08016
3.92484
3.85529
3.94658
4.47625
5.22134
5.57759
5.57989
5.47759
5.33704
5.19338
5.06617
4.94304
4.79239
4.60094
4.41181
4.33657
4.45217
4.93673
5.5332
5.78573
5.73849
5.64424
5.57599
5.53067
5.5202
5.50659
5.45702
5.40309
5.34084
5.25369
5.15006
5.07715
5.01619
4.96059
4.90715
4.84753
4.77644
4.69822
4.62728
4.56812
4.53861
4.55305
4.61756
4.80558
5.05613
5.23816
5.25461
5.21124
5.13865
5.06217
4.97978
4.88485
4.76334
4.64525
4.62723
4.71504
4.92802
5.11185
5.23852
5.31073
5.34031
5.32094
5.28869
5.26337
5.26671
5.28345
9.59104
9.32585
9.06438
8.80619
8.54942
8.29527
8.05994
7.79934
7.48683
7.16308
6.83877
6.53058
6.2385
5.95172
5.66
5.38468
5.14715
4.93098
4.72925
4.55638
4.38851
4.18392
3.97353
3.83147
3.78323
3.87876
4.38626
5.06333
5.42906
5.41993
5.30547
5.15064
5.00994
4.86409
4.66841
4.48845
4.34486
4.4096
4.84804
5.47218
5.79913
5.76847
5.689
5.63015
5.58384
5.55055
5.54226
5.51574
5.46296
5.407
5.34494
5.26981
5.21488
5.16977
5.1162
5.04129
4.93233
4.80439
4.70213
4.64151
4.59621
4.54604
4.49917
4.48728
4.51156
4.592
4.78549
5.03428
5.20695
5.21043
5.16479
5.0813
4.98162
4.87998
4.78612
4.71193
4.75186
4.93529
5.13127
5.2459
5.30908
5.37101
5.39734
5.36307
5.32053
5.27789
5.24588
5.20946
9.64487
9.39108
9.14185
8.90039
8.66509
8.43237
8.21091
7.95813
7.64865
7.33308
7.0151
6.70183
6.39776
6.09549
5.78283
5.48207
5.23902
5.03285
4.82952
4.6262
4.43985
4.26421
4.0735
3.88311
3.75111
3.70449
3.80364
4.27857
4.92335
5.22486
5.20283
5.08832
4.94731
4.76105
4.55393
4.40419
4.41118
4.77601
5.45914
5.8188
5.82137
5.72522
5.66336
5.62779
5.60258
5.58717
5.57694
5.53858
5.48447
5.42723
5.36863
5.32078
5.28023
5.23979
5.18783
5.10746
4.95516
4.75573
4.65237
4.60613
4.56632
4.51881
4.46937
4.42543
4.41023
4.44022
4.54057
4.75215
5.02632
5.16504
5.1496
5.08025
4.97495
4.88297
4.83975
4.85222
4.99541
5.19692
5.30714
5.34588
5.36889
5.4175
5.42487
5.38321
5.3377
5.28385
5.2239
5.1553
9.62052
9.39306
9.17296
8.96007
8.74823
8.53329
8.32426
8.08578
7.78502
7.47601
7.16497
6.85186
6.53732
6.21793
5.89557
5.59291
5.33785
5.11996
4.90398
4.66644
4.4554
4.29009
4.1391
3.96998
3.80509
3.67932
3.62991
3.72541
4.1591
4.72536
5.01275
4.98698
4.85884
4.65243
4.50721
4.47213
4.73631
5.42924
5.8825
5.91444
5.80314
5.71661
5.67188
5.64582
5.63406
5.6288
5.61553
5.57598
5.52235
5.46668
5.416
5.37432
5.33437
5.28617
5.23002
5.14078
4.95894
4.74185
4.63353
4.5835
4.53842
4.49052
4.43672
4.37205
4.32303
4.31673
4.36056
4.49332
4.7407
5.00236
5.08596
5.04759
4.9701
4.92424
4.95668
5.06771
5.28509
5.40841
5.44168
5.43112
5.42243
5.43355
5.41684
5.38309
5.33704
5.26152
5.18725
5.11705
9.54988
9.35649
9.17588
8.99826
8.81267
8.61391
8.41004
8.18495
7.89142
7.58737
7.28084
6.96939
6.65105
6.32281
5.9954
5.68994
5.41907
5.17334
4.93383
4.68597
4.47175
4.31753
4.17651
4.03237
3.87298
3.71836
3.60031
3.54459
3.63184
4.0099
4.52164
4.76262
4.70288
4.59508
4.54649
4.74887
5.40986
5.93786
5.99319
5.90162
5.79028
5.72591
5.6922
5.68477
5.6863
5.67554
5.65202
5.61987
5.58151
5.5383
5.48802
5.43204
5.37703
5.32118
5.25079
5.133
4.9448
4.74785
4.6424
4.58337
4.53081
4.47438
4.40656
4.32847
4.26518
4.23215
4.23754
4.30688
4.46955
4.70645
4.9277
4.96857
4.97396
5.02584
5.14519
5.35728
5.518
5.56162
5.54398
5.49733
5.46108
5.43142
5.39504
5.3593
5.307
5.23202
5.17776
5.1208
9.4719
9.30654
9.15724
9.01176
8.85179
8.66862
8.47884
8.26154
7.97309
7.67232
7.36692
7.05714
6.73612
6.40511
6.07647
5.76288
5.47036
5.1975
4.94174
4.7006
4.49117
4.33379
4.19593
4.06368
3.9258
3.77451
3.62358
3.50226
3.43639
3.50491
3.82159
4.31493
4.48026
4.56155
4.79163
5.39712
5.99766
6.16396
6.05978
5.91172
5.8196
5.76527
5.74251
5.74216
5.73733
5.71582
5.68562
5.66309
5.65435
5.62735
5.56754
5.49967
5.42553
5.33847
5.23323
5.09701
4.93009
4.77277
4.653
4.56822
4.50187
4.43467
4.36038
4.28903
4.23131
4.18836
4.16609
4.18407
4.26343
4.41344
4.64012
4.84554
4.99456
5.19208
5.4203
5.61706
5.7004
5.69415
5.64033
5.56452
5.48153
5.41853
5.36688
5.30712
5.24938
5.22011
5.19845
5.14798
9.39256
9.24801
9.11972
8.99252
8.84818
8.68146
8.5128
8.31606
8.03398
7.73205
7.4237
7.1077
6.78411
6.45943
6.13351
5.81166
5.49956
5.20567
4.94078
4.70769
4.50905
4.3481
4.20629
4.07446
3.94676
3.81403
3.66721
3.51542
3.3844
3.28252
3.35641
3.69004
4.1601
4.63267
5.33325
6.08364
6.24173
6.19066
6.04999
5.93091
5.86184
5.81843
5.80533
5.79307
5.76255
5.7269
5.70185
5.70557
5.72796
5.69581
5.63009
5.56117
5.48006
5.36366
5.2146
5.05971
4.92136
4.79287
4.66683
4.55997
4.47607
4.39968
4.32979
4.27544
4.23224
4.18881
4.14546
4.12965
4.14322
4.21213
4.37671
4.68137
5.01015
5.38515
5.68339
5.79779
5.81347
5.77217
5.69566
5.60735
5.49753
5.3978
5.31627
5.24518
5.20659
5.19646
5.20886
5.17861
9.33875
9.22377
9.12471
9.02107
8.89232
8.73369
8.56856
8.36918
8.08549
7.78775
7.47638
7.15172
6.82465
6.49816
6.17024
5.83774
5.50715
5.20058
4.93379
4.70968
4.5218
4.35777
4.21064
4.07623
3.951
3.82804
3.6959
3.53755
3.37756
3.20383
3.17602
3.28676
3.81277
4.76157
5.75766
6.59541
6.4886
6.27899
6.08643
5.97511
5.90644
5.86493
5.84755
5.81648
5.77616
5.74067
5.72599
5.76218
5.79414
5.74334
5.67173
5.59763
5.50676
5.37533
5.19465
5.03247
4.91205
4.79807
4.67237
4.54964
4.44726
4.36386
4.29577
4.24736
4.20867
4.16821
4.12288
4.08716
4.07595
4.09777
4.2128
4.52222
5.01307
5.49545
5.86775
5.96848
5.9424
5.85957
5.74943
5.62979
5.49224
5.34781
5.26338
5.21955
5.18792
5.18383
5.23901
5.21794
)
;

boundaryField
{
    inlet
    {
        type            fixedValue;
        value           uniform 1;
    }
    outlet
    {
        type            zeroGradient;
    }
    bottom
    {
        type            zeroGradient;
    }
    top
    {
        type            zeroGradient;
    }
    obstacle
    {
        type            zeroGradient;
    }
    defaultFaces
    {
        type            empty;
    }
}


// ************************************************************************* //
