/*--------------------------------*- C++ -*----------------------------------*\
  =========                 |
  \\      /  F ield         | OpenFOAM: The Open Source CFD Toolbox
   \\    /   O peration     | Website:  https://openfoam.org
    \\  /    A nd           | Version:  7
     \\/     M anipulation  |
\*---------------------------------------------------------------------------*/
FoamFile
{
    version     2.0;
    format      ascii;
    class       volScalarField;
    location    "3.9";
    object      p;
}
// * * * * * * * * * * * * * * * * * * * * * * * * * * * * * * * * * * * * * //

dimensions      [1 -1 -2 0 0 0 0];

internalField   nonuniform List<scalar> 
16192
(
1
1
1
1
1
1
1
1
1
1
1
1
1
1
1
1
1
1
1
1
1
1
1
1
1
1
1
1
1
1
1
1
1
1
1
1
1
1
1
1
1
1
1
1
1
1
1
1
1
1
1
1
1
1
1
1
1
1
1
1
1
1
1
1
1
1
1
1
1
1
1
1
1
1
1
1
1
1
1
1
1
1
1
1
1
1
1
1
1
1
1
1
1
1
1
1
1
1
1
1
1
1
1
1
1
1
1
1
1
1
1
1
1
1
1
1
1
1
1
1
1
1
1
1
1
1
1
1
1
1
1
1
1
1
1
1
1
1
1
1
1
1
1
1
1
1
1
1
1
1
1
1
1
1
1
1
1
1
1
1
1
1
1
1
1
1
1
1
1
1
1
1
1
1
1
1
1
1
1
1
1
1
1
1
1
1
1
1
1
1
1
1
1
1
1
1
1
1
1
1
1
1
1
1
1
1
1
1
1
1
1
1
1
1
1
1
1
1
1
1
1
1
1
1
1
1
1
1
1
1
1
1
1
1
1
1
1
1
1
1
1
1
1
1
1
1
1
1
1
1
1
1
1
1
1
1
1
1
1
1
1
1
1
1
1
1
1
1
1
1
1
1
1
1
1
1
1
1
1
1
1
1
1
1
1
1
1
1
1
1
1
1
1
1
1
1
1
1
1
1
1
1
1
1
1
1
1
1
1
1
1
1
1
1
1
1
1
1
1
1
1
1
1
1
1
1
1
1
1
1
1
1
1
1
1
1
1
1
1
1
1
1
1
1
1
1
1
1
1
1
1
1
1
1
1
1
1
1
1
1
1
1
1
1
1
1
1
1
1
1
1
1
1
1
1
1
1
1
1
1
1
1
1
1
1
1
1
1
1
1
1
1
1
1
1
1
1
1
1
1
1
1
1
1
1
1
1
1
1
1
1
1
1
1
1
1
1
1
1
1
1
1
1
1
1
1
1
1
1
1
1
1
1
1
1
1
1
1
1
1
1
1
1
1
1
1
1
1
1
1
1
1
1
1
1
1
1
1
1
1
1
1
1
1
1
1
1
1
1
1
1
1
1
1
1
1
1
1
1
1
1
1
1
1
1
1
1
1
1
1
1
1
1
1
1
1
1
1
1
1
1
1
1
1
1
1
1
1
1
1
1
1
1
1
1
1
1
1
1
1
1
1
1
1
1
1
1
1
1
1
1
1
1
1
1
1
1
1
1
1
1
1
1
1
1
1
1
1
1
1
1
1
1
1
1
1
1
1
1
1
1
1
1
1
1
1
1
1
1
1
1
1
1
1
1
1
1
1
1
1
1
1
1
1
1
1
1
1
1
1
1
1
1
1
1
1
1
1
1
1
1
1
1
1
1
1
1
1
1
1
1
1
1
1
1
1
1
1
1
1
1
1
1
1
1
1
1
1
1
1
1
1
1
1
1
1
1
1
1
1
1
1
1
1
1
1
1
1
1
1
1
1
1
1
1
1
1
1
1
1
1
1
1
1
1
1
1
1
1
1
1
1
1
1
1
1
1
1
1
1
1
1
1
1
1
1
1
1
1
1
1
1
1
1
1
1
1
1
1
1
1
1
1
1
1
1
1
1
1
1
1
1
1
1
1
1
1
1
1
1
1
1
1
1
1
1
1
1
1
1
1
1
1
1
1
1
1
1
1
1
1
1
1
1
1
1
1
1
1
1
1
1
1
1
1
1
1
1
1
1
1
1
1
1
1
1
1
1
1
1
1
1
1
1
1
1
1
1
1
1
1
1
1
1
1
1
1
1
1
1
1
1
1
1
1
1
1
1
1
1
1
1
1
1
1
1
1
1
1
1
1
1
1
1
1
1
1
1
1
1
1
1
1
1
1
1
1
1
1
1
1
1
1
1
1
1
1
1
1
1
1
1
1
1
1
1
1
1
1
1
1
1
1
1
1
1
1
1
1
1
1
1
1
1
1
1
1
1
1
1
1
1
1
1
1
1
1
1
1
1
1
1
1
1
1
1
1
1
1
1
1
1
1
1
1
1
1
1
1
1
1
1
1
1
1
1
1
1
1
1
1
1
1
1
1
1
1
1
1
1
1
1
1
1
1
1
1
1
1
1
1
1
1
1
1
1
1
1
1
1
1
1
1
1
1
1
1
1
1
1
1
1
1
1
1
1
1
1
1
1
1
1
1
1
1
1
1
1
1
1
1
1
1
1
1
1
1
1
1
1
1
1
1
1
1
1
1
1
1
1
1
1
1
1
1
1
1
1
1
1
1
1
1
1
1
1
1
1
1
1
1
1
1
1
1
1
1
1
1
1
1
1
1
1
1
1
1
1
1
1
1
1
1
1
1
1
1
1
1
1
1
1
1
1
1
1
1
1
1
1
1
1
1
1
1
1
1
1
1
1
1
1
1
1
1
1
1
1
1
1
1
1
1
1
1
1
1
1
1
1
1
1
1
1
1
1
1
1
1
1
1
1
1
1
1
1
1
1
1
1
1
1
1
1
1
1
1
1
1
1
1
1
1
1
1
1
1
1
1
1
1
1
1
1
1
1
1
1
1
1
1
1
1
1
1
1
1
1
1
1
1
1
1
1
1
1
1
1
1
1
1
1
1
1
1
1
1
1
1
1
1
1
1
1
1
1
1
1
1
1
1
1
1
1
1
1
1
1
1
1
1
1
1
1
1
1
1
1
1
1
1
1
1
1
1
1
1
1
1
1
1
1
1
1
1
1
1
1
1
1
1
1
1
1
1
1
1
1
1
1
1
1
1
1
1
1
1
1
1
1
1
1
1
1
1
1
1
1
1
1
1
1
1
1
1
1
1
1
1
1
1
1
1
1
1
1
1
1
1
1
1
1
1
1
1
1
1
1
1
1
1
1
1
1
1
1
1
1
1
1
1
1
1
1
1
1
1
1
1
1
1
1
1.00002
1.00134
1.03234
1.38472
2.92723
4.15238
4.40529
4.55286
4.55043
4.50745
4.50064
4.52827
4.5327
4.46832
4.42283
4.41422
4.43023
4.39327
4.3438
4.33189
4.33044
4.30099
4.26542
4.25277
4.24363
4.20948
4.18237
4.16119
4.13655
4.13077
4.13081
4.11971
4.0986
4.07776
4.05539
4.03049
4.00883
3.9888
3.96002
3.92058
3.88019
3.85189
3.84246
3.83968
3.84871
3.85026
3.8419
3.82743
3.80149
3.76191
3.7157
3.67876
3.65598
3.65068
3.65446
3.66344
3.68734
3.74312
3.82157
3.91686
3.98148
3.99095
3.99167
3.97476
3.93626
3.89692
3.86784
3.83799
3.80514
3.77392
3.75641
3.75376
3.76662
3.76969
3.75665
3.73177
3.69549
3.64604
3.59087
3.5465
3.51873
3.51003
3.5106
3.52586
3.53889
3.53424
3.52002
3.48453
3.42044
3.35245
3.32293
3.31603
3.3171
3.32217
3.3168
3.30741
3.28103
3.23177
3.20327
3.1998
3.20347
3.20452
3.19707
3.18581
3.15531
3.09081
3.01662
2.98512
2.97928
2.98014
3.00488
3.04931
3.0613
3.05227
3.02976
2.98395
2.90623
2.8523
2.83512
2.83114
2.83318
2.84213
2.84028
2.83548
2.8279
2.80357
2.75656
2.71889
2.71107
2.7095
2.72585
2.75403
2.75567
2.74524
2.72033
2.66822
2.59136
2.5511
2.53948
2.53739
2.54374
2.5649
2.57199
2.56617
2.55446
2.53055
2.50122
2.48219
2.47801
2.47785
2.47737
2.47323
2.4664
2.44446
2.39228
2.33282
2.31307
2.31037
2.31263
2.34089
2.38636
2.39547
2.39119
2.38146
2.35095
2.28398
2.20991
2.18824
2.21366
2.53348
3.69178
5.39515
6.41834
6.48842
6.26692
6.15848
6.14832
6.16495
6.13876
6.08532
1
1
1
1
1
1
1
1
1
1
1
1
1
1
1
1
1
1
1
1
1
1
1
1
1
1
1
1
1
1
1
1
1
1
1
1
1
1
1
1
1
1
1
1
1
1
1
1
1
1
1
1
1.00046
1.02199
1.37015
2.83153
3.9028
4.39703
4.57324
4.56834
4.56756
4.56185
4.49658
4.45397
4.43924
4.46404
4.42741
4.36696
4.35222
4.35333
4.32981
4.29951
4.28334
4.28346
4.25928
4.22108
4.20306
4.18561
4.16899
4.16417
4.15686
4.13361
4.10647
4.08311
4.05967
4.03569
4.01462
3.98793
3.9547
3.91662
3.88931
3.88054
3.87931
3.88638
3.88541
3.87493
3.8568
3.83315
3.80265
3.75312
3.71129
3.68658
3.66347
3.65535
3.6581
3.66512
3.68253
3.72613
3.79808
3.89205
3.95012
3.97046
3.97816
3.95661
3.92217
3.90069
3.87843
3.84877
3.82185
3.80734
3.8064
3.81474
3.81391
3.79771
3.76733
3.72467
3.67203
3.62373
3.58629
3.56236
3.55496
3.5584
3.57441
3.58198
3.57462
3.55755
3.51985
3.45309
3.38496
3.35681
3.35047
3.35199
3.35925
3.35447
3.34532
3.32046
3.27115
3.23726
3.23196
3.23397
3.23745
3.2314
3.22075
3.18998
3.1251
3.05146
3.01953
3.01364
3.01553
3.04243
3.08586
3.09652
3.08743
3.06442
3.01685
2.93626
2.88134
2.86386
2.85997
2.86294
2.87504
2.87446
2.86955
2.86194
2.83808
2.79237
2.75245
2.74107
2.73946
2.75492
2.78256
2.78403
2.77295
2.74769
2.6938
2.61643
2.57722
2.56598
2.56403
2.57143
2.59402
2.60169
2.5954
2.58107
2.55513
2.52534
2.50634
2.50183
2.50207
2.50349
2.49972
2.49324
2.47299
2.42311
2.35944
2.33596
2.33233
2.33325
2.35803
2.40941
2.42763
2.42348
2.41224
2.37998
2.30604
2.22781
2.2106
2.27978
2.83311
4.2473
5.89179
6.57631
6.57561
6.33521
6.2101
6.19692
6.23273
6.21913
6.16738
6.09732
1
1
1
1
1
1
1
1
1
1
1
1
1
1
1
1
1
1
1
1
1
1
1
1
1
1
1
1
1
1
1
1
1
1
1
1
1
1
1
1
1
1
1
1
1
1
1
1
1
1
1
1
1
1.00034
1.02026
1.38822
2.56638
3.64395
4.47286
4.63673
4.56891
4.50304
4.49068
4.47865
4.49921
4.45849
4.38923
4.37637
4.38242
4.36286
4.32981
4.31319
4.31935
4.31116
4.27255
4.24493
4.23307
4.2136
4.19733
4.19112
4.17189
4.13935
4.11128
4.08862
4.0652
4.0408
4.01474
3.98532
3.95256
3.92899
3.92041
3.91975
3.9244
3.92143
3.90744
3.88618
3.86109
3.83653
3.79669
3.74445
3.72115
3.70218
3.67772
3.66843
3.66959
3.67282
3.68671
3.72475
3.77836
3.83592
3.8817
3.91779
3.9378
3.92353
3.91268
3.90592
3.88999
3.87225
3.86667
3.86853
3.8646
3.85687
3.83695
3.80369
3.75575
3.7021
3.65976
3.62626
3.60762
3.60296
3.60902
3.62137
3.62208
3.61174
3.59209
3.55467
3.48838
3.42022
3.3923
3.38578
3.38676
3.39553
3.39191
3.38225
3.35839
3.31135
3.2739
3.26652
3.26724
3.27224
3.26751
3.25738
3.226
3.15977
3.08639
3.05472
3.0489
3.05183
3.08092
3.1225
3.13063
3.12142
3.0982
3.04954
2.96714
2.91136
2.89351
2.88977
2.89363
2.90863
2.90863
2.90327
2.89538
2.87167
2.82693
2.78566
2.77193
2.77014
2.78424
2.81028
2.81099
2.79943
2.77401
2.71933
2.64249
2.60437
2.59335
2.59166
2.60097
2.62472
2.63165
2.62431
2.60689
2.57886
2.54896
2.53102
2.52633
2.52687
2.53066
2.52745
2.52091
2.50156
2.45326
2.38706
2.35935
2.35474
2.35501
2.37785
2.43279
2.45835
2.45517
2.44181
2.40792
2.33061
2.24613
2.23838
2.39078
3.23872
4.82378
6.30928
6.69933
6.65523
6.39637
6.26275
6.24767
6.29361
6.29441
6.24843
6.17035
6.1298
1
1
1
1
1
1
1
1
1
1
1
1
1
1
1
1
1
1
1
1
1
1
1
1
1
1
1
1
1
1
1
1
1
1
1
1
1
1
1
1
1
1
1
1
1
1
1
1
1
1
1
1
1
1
1.00033
1.02085
1.27183
2.04532
3.61185
4.56854
4.46996
4.49408
4.51869
4.54193
4.48591
4.41269
4.40105
4.41888
4.40863
4.36547
4.34425
4.34942
4.35528
4.32127
4.28622
4.27744
4.26248
4.23164
4.2191
4.21027
4.17688
4.14188
4.1172
4.09577
4.07157
4.04529
4.01688
3.98744
3.97019
3.96136
3.95888
3.95938
3.95648
3.94046
3.91715
3.89045
3.86628
3.8349
3.78213
3.75005
3.73923
3.71885
3.6984
3.69399
3.6922
3.69318
3.70842
3.72866
3.74617
3.75785
3.78208
3.83231
3.88375
3.90042
3.90791
3.91099
3.91043
3.92013
3.92693
3.91597
3.90006
3.87496
3.83972
3.78991
3.73745
3.69668
3.66539
3.65246
3.65143
3.6572
3.66101
3.65704
3.64371
3.62272
3.58835
3.52721
3.45893
3.42946
3.42283
3.42293
3.43146
3.42914
3.41837
3.3947
3.35044
3.31233
3.30358
3.30347
3.30928
3.30534
3.29368
3.26048
3.194
3.12127
3.09058
3.08497
3.08923
3.12087
3.15935
3.16416
3.15472
3.13076
3.08107
2.99802
2.94211
2.92415
2.92059
2.92507
2.94144
2.94227
2.93632
2.92806
2.90456
2.86005
2.81818
2.803
2.80096
2.81349
2.83752
2.83735
2.82538
2.79987
2.74471
2.66943
2.63248
2.62196
2.62075
2.63248
2.65681
2.6615
2.6525
2.63193
2.60174
2.57203
2.55561
2.55119
2.55253
2.55869
2.55643
2.54989
2.53032
2.48233
2.41394
2.3835
2.37797
2.3778
2.39989
2.45713
2.48808
2.48561
2.47159
2.43544
2.35344
2.26903
2.28047
2.58461
3.74242
5.37602
6.60088
6.81332
6.72244
6.44875
6.31493
6.30049
6.35384
6.36564
6.32142
6.24265
6.18933
6.17435
1
1
1
1
1
1
1
1
1
1
1
1
1
1
1
1
1
1
1
1
1
1
1
1
1
1
1
1
1
1
1
1
1
1
1
1
1
1
1
1
1
1
1
1
1
1
1
1
1
1
1
1
1
1
1
1.00023
1.00912
1.1212
1.85898
3.62856
4.24595
4.41601
4.55173
4.55712
4.44831
4.42528
4.44868
4.44954
4.39945
4.37656
4.37669
4.39321
4.36054
4.32132
4.31132
4.30338
4.26709
4.24095
4.23589
4.21213
4.1729
4.14579
4.1255
4.10472
4.07836
4.04965
4.02377
4.01042
4.0031
3.99736
3.99346
3.98841
3.97125
3.94698
3.91968
3.89484
3.86793
3.82358
3.77908
3.76888
3.75737
3.739
3.73074
3.72758
3.72454
3.72642
3.72715
3.72099
3.7076
3.6882
3.70445
3.7572
3.83068
3.88441
3.90693
3.9246
3.94671
3.96545
3.95852
3.94202
3.91732
3.87989
3.82928
3.77767
3.73543
3.70612
3.69659
3.69917
3.70222
3.69562
3.68751
3.67206
3.65093
3.62017
3.56773
3.50133
3.4681
3.46101
3.46046
3.46731
3.4657
3.4534
3.42969
3.38891
3.35217
3.34212
3.34203
3.34811
3.34373
3.32885
3.29307
3.22621
3.15595
3.12638
3.1215
3.12773
3.16238
3.19683
3.19802
3.1876
3.16178
3.11082
3.02823
2.97323
2.9556
2.95238
2.95767
2.97394
2.9745
2.96848
2.96004
2.93694
2.89285
2.84987
2.83364
2.83136
2.84237
2.86437
2.86361
2.85164
2.82578
2.77035
2.69759
2.66206
2.65187
2.6514
2.66611
2.6896
2.69115
2.67994
2.65634
2.62376
2.59501
2.58014
2.57614
2.5783
2.58743
2.58626
2.57947
2.5591
2.51082
2.44065
2.40847
2.40197
2.40173
2.42356
2.48309
2.51675
2.5144
2.50067
2.46237
2.37776
2.29492
2.34887
2.88834
4.31382
5.89809
6.79701
6.89643
6.77261
6.49333
6.37003
6.35722
6.41738
6.43865
6.39505
6.31213
6.24616
6.22775
6.24755
1
1
1
1
1
1
1
1
1
1
1
1
1
1
1
1
1
1
1
1
1
1
1
1
1
1
1
1
1
1
1
1
1
1
1
1
1
1
1
1
1
1
1
1
1
1
1
1
1
1
1
1
1
1
1
1
1.00005
1.00319
1.08133
1.82821
3.43179
4.13873
4.47523
4.54175
4.49136
4.49481
4.48915
4.43172
4.4046
4.39941
4.42629
4.39885
4.35174
4.33514
4.33861
4.30471
4.26284
4.24982
4.24171
4.20536
4.17468
4.15475
4.13772
4.11425
4.08494
4.06219
4.04966
4.04416
4.03652
4.02898
4.01861
4.0003
3.97611
3.94887
3.92326
3.89845
3.86077
3.81442
3.79497
3.79054
3.77855
3.7711
3.76747
3.76463
3.76151
3.75036
3.73056
3.70447
3.67194
3.66149
3.67429
3.71631
3.78658
3.85653
3.90211
3.94217
3.96989
3.97923
3.97322
3.95687
3.92626
3.87819
3.82176
3.77584
3.74892
3.7407
3.74245
3.74183
3.73019
3.71715
3.69997
3.6789
3.65198
3.60962
3.54748
3.50919
3.50049
3.49869
3.50207
3.50017
3.48664
3.46301
3.42711
3.39316
3.38237
3.38253
3.38775
3.38201
3.36312
3.32343
3.25561
3.19089
3.16309
3.15857
3.16726
3.20484
3.23474
3.23266
3.21941
3.1908
3.13839
3.05756
3.00477
2.98768
2.98499
2.99131
3.00661
3.00607
3.00011
2.99151
2.96926
2.92554
2.88131
2.86408
2.86166
2.87109
2.89103
2.89011
2.87839
2.85246
2.7968
2.7267
2.6925
2.68326
2.68388
2.70142
2.7228
2.72137
2.70723
2.68018
2.64502
2.61781
2.60479
2.60134
2.6048
2.61644
2.61626
2.60917
2.58773
2.53865
2.46732
2.43405
2.42675
2.42664
2.4489
2.50947
2.54506
2.54195
2.52766
2.49098
2.40035
2.32822
2.46561
3.31091
4.88929
6.35094
6.9377
6.9756
6.81638
6.53184
6.42273
6.4132
6.48252
6.51422
6.47237
6.38484
6.30574
6.28186
6.29357
6.335
1
1
1
1
1
1
1
1
1
1
1
1
1
1
1
1
1
1
1
1
1
1
1
1
1
1
1
1
1
1
1
1
1
1
1
1
1
1
1
1
1
1
1
1
1
1
1
1
1
1
1
1
1
1
1
1
1
1.00002
1.00208
1.07931
1.82171
3.13071
4.03889
4.50306
4.56693
4.49826
4.4465
4.4368
4.4358
4.46093
4.43456
4.37443
4.35518
4.3638
4.33933
4.2921
4.26492
4.26261
4.23943
4.20296
4.18398
4.17016
4.15249
4.126
4.10379
4.09316
4.08507
4.07844
4.06623
4.04514
4.02674
4.00501
3.97912
3.95306
3.92845
3.89542
3.85201
3.82396
3.82059
3.8155
3.81036
3.80731
3.80387
3.79882
3.7868
3.75934
3.72492
3.68107
3.65911
3.65878
3.66755
3.69551
3.75506
3.82067
3.88103
3.93884
3.97181
3.98422
3.98121
3.96284
3.92683
3.87513
3.82227
3.79488
3.78631
3.78388
3.77685
3.76184
3.74617
3.72746
3.70678
3.68332
3.64994
3.59511
3.55386
3.54225
3.53831
3.5375
3.5317
3.51657
3.49423
3.46369
3.43434
3.42405
3.42463
3.42815
3.42013
3.39641
3.3514
3.28248
3.22714
3.20239
3.1978
3.20912
3.24812
3.27208
3.26711
3.24976
3.21802
3.16397
3.08608
3.03721
3.02079
3.01823
3.02514
3.03923
3.0375
3.03139
3.02303
3.00174
2.95855
2.913
2.8948
2.89228
2.90021
2.91783
2.91659
2.90571
2.87986
2.82466
2.75679
2.72386
2.71597
2.71766
2.73786
2.75595
2.75198
2.73459
2.70371
2.66633
2.64113
2.62988
2.62697
2.63233
2.64608
2.64625
2.63863
2.61629
2.56612
2.49407
2.46021
2.45224
2.45233
2.47525
2.53643
2.57207
2.56865
2.55329
2.51779
2.41555
2.38366
2.6669
3.8443
5.44502
6.68688
7.04905
7.05027
6.86463
6.5792
6.47868
6.47046
6.54645
6.58752
6.54717
6.45832
6.37001
6.33859
6.34194
6.38108
6.37012
1
1
1
1
1
1
1
1
1
1
1
1
1
1
1
1
1
1
1
1
1
1
1
1
1
1
1
1
1
1
1
1
1
1
1
1
1
1
1
1
1
1
1
1
1
1
1
1
1
1
1
1
1
1
1
1
1
1
1.00002
1.00218
1.07603
1.58258
2.59987
4.07059
4.54485
4.44373
4.45943
4.47937
4.50288
4.47283
4.38869
4.37172
4.37961
4.36574
4.32361
4.29154
4.28627
4.27918
4.24156
4.21323
4.20473
4.19005
4.16991
4.15369
4.1457
4.13179
4.11932
4.10134
4.06967
4.04719
4.03106
4.00941
3.98379
3.9595
3.93092
3.891
3.85852
3.85137
3.85086
3.84744
3.84476
3.84117
3.8338
3.82132
3.79696
3.75817
3.71299
3.67455
3.66071
3.65984
3.66611
3.68378
3.72533
3.78142
3.84642
3.9235
3.9681
3.98246
3.98062
3.95933
3.92032
3.87579
3.84949
3.83988
3.82861
3.81143
3.79078
3.77348
3.75585
3.73693
3.71479
3.68646
3.64067
3.59962
3.58562
3.57964
3.57362
3.56321
3.54589
3.52421
3.49784
3.47442
3.46628
3.46787
3.46882
3.45798
3.42909
3.37777
3.30856
3.26405
3.24339
3.23921
3.2538
3.29196
3.30771
3.3002
3.27892
3.24385
3.18715
3.11414
3.07084
3.05532
3.05273
3.05913
3.07154
3.06891
3.06277
3.05474
3.03415
2.99159
2.94519
2.92628
2.92354
2.93034
2.94517
2.94341
2.93362
2.90843
2.8541
2.78741
2.75568
2.74885
2.75201
2.77447
2.78911
2.78296
2.7624
2.72709
2.68824
2.66462
2.65558
2.65351
2.66126
2.67624
2.67613
2.66789
2.64469
2.59332
2.52095
2.48681
2.47856
2.47883
2.50244
2.56361
2.59747
2.5941
2.57719
2.54387
2.44064
2.46732
2.98325
4.44285
5.95407
6.93829
7.14175
7.11156
6.90517
6.62881
6.53962
6.53498
6.61585
6.65965
6.61884
6.52885
6.43229
6.39486
6.39272
6.42968
6.42286
6.3762
1
1
1
1
1
1
1
1
1
1
1
1
1
1
1
1
1
1
1
1
1
1
1
1
1
1
1
1
1
1
1
1
1
1
1
1
1
1
1
1
1
1
1
1
1
1
1
1
1
1
1
1
1
1
1
1
1
1
1
1.00001
1.00146
1.03425
1.29385
2.44425
4.09128
4.30579
4.42904
4.50571
4.53092
4.42384
4.38729
4.40123
4.39873
4.35167
4.32216
4.31582
4.32294
4.28971
4.25138
4.24406
4.23288
4.21332
4.20207
4.19886
4.18368
4.15426
4.13069
4.1024
4.06776
4.0516
4.03794
4.01527
3.99078
3.96483
3.93089
3.8968
3.88676
3.8894
3.88423
3.87994
3.87582
3.86674
3.85197
3.82942
3.79553
3.75116
3.71175
3.68157
3.6733
3.66948
3.67166
3.67921
3.69582
3.74175
3.80242
3.89028
3.94831
3.96716
3.96711
3.94786
3.91869
3.90065
3.8907
3.87718
3.85553
3.82635
3.80141
3.78333
3.76683
3.74837
3.72613
3.68955
3.64354
3.62578
3.61872
3.60858
3.5946
3.57592
3.55433
3.53064
3.51298
3.50793
3.51171
3.5093
3.49505
3.46156
3.40391
3.33636
3.29942
3.28351
3.2807
3.2993
3.33414
3.34206
3.33109
3.3067
3.26867
3.20892
3.1425
3.10529
3.09131
3.08863
3.09358
3.10388
3.10059
3.09437
3.08648
3.06635
3.02456
2.97771
2.95819
2.95526
2.96119
2.97323
2.97041
2.96148
2.93774
2.88536
2.81928
2.78762
2.78165
2.78655
2.81052
2.82209
2.81427
2.79077
2.75126
2.71081
2.68936
2.68228
2.68102
2.69189
2.70659
2.70541
2.69657
2.67272
2.62018
2.54794
2.51385
2.50559
2.50605
2.52988
2.59107
2.62203
2.6182
2.6013
2.57115
2.47847
2.59212
3.44182
5.03894
6.38901
7.12138
7.22788
7.16728
6.94431
6.67816
6.60047
6.60164
6.69122
6.7358
6.69215
6.59764
6.49187
6.44923
6.44334
6.47812
6.47653
6.43163
6.34628
1
1
1
1
1
1
1
1
1
1
1
1
1
1
1
1
1
1
1
1
1
1
1
1
1
1
1
1
1
1
1
1
1
1
1
1
1
1
1
1
1
1
1
1
1
1
1
1
1
1
1
1
1
1
1
1
1
1
1
1
1
1.00036
1.0134
1.22461
2.44779
3.81769
4.25133
4.49216
4.50178
4.43388
4.42926
4.42361
4.37687
4.35342
4.34896
4.3673
4.3325
4.29326
4.28412
4.28512
4.25967
4.23878
4.23394
4.22611
4.18862
4.15745
4.1344
4.10283
4.07228
4.06104
4.04719
4.02275
3.99784
3.96831
3.93608
3.92524
3.92979
3.92417
3.91475
3.90883
3.89862
3.88096
3.85737
3.82701
3.78732
3.75166
3.7216
3.70443
3.69455
3.68332
3.67674
3.67799
3.68785
3.71617
3.76261
3.83659
3.89799
3.93056
3.94275
3.93534
3.92828
3.92025
3.90787
3.89378
3.8719
3.84095
3.81745
3.7999
3.78332
3.76583
3.74136
3.69634
3.66365
3.6543
3.64098
3.62439
3.60604
3.58559
3.56518
3.55204
3.54991
3.55459
3.54914
3.53055
3.49248
3.43032
3.36713
3.33455
3.32162
3.32091
3.34402
3.37304
3.3747
3.36069
3.33359
3.29179
3.23096
3.17293
3.1404
3.12833
3.12569
3.12885
3.13696
3.13309
3.12607
3.11803
3.09814
3.05744
3.01076
2.99029
2.98706
2.99232
3.00196
2.99821
2.98983
2.96778
2.91797
2.85231
2.81999
2.81447
2.82065
2.84573
2.85497
2.84571
2.81946
2.77579
2.73486
2.71555
2.70993
2.71027
2.72383
2.73689
2.73437
2.72493
2.7002
2.6465
2.57507
2.54129
2.53326
2.53395
2.55793
2.61785
2.64613
2.64158
2.62631
2.57912
2.53328
2.80683
4.02722
5.6031
6.7276
7.25839
7.30529
7.22569
6.99226
6.73388
6.66392
6.66775
6.76396
6.81072
6.76621
6.6689
6.55345
6.50398
6.49328
6.5247
6.52808
6.48598
6.4064
6.28639
1
1
1
1
1
1
1
1
1
1
1
1
1
1
1
1
1
1
1
1
1
1
1
1
1
1
1
1
1
1
1
1
1
1
1
1
1
1
1
1
1
1
1
1
1
1
1
1
1
1
1
1
1
1
1
1
1
1
1
1
1
1
1.00016
1.00956
1.22593
2.35189
3.5044
4.24037
4.49154
4.4907
4.42521
4.38436
4.38491
4.38719
4.41019
4.37272
4.32312
4.31653
4.32707
4.30161
4.26568
4.25168
4.25265
4.22606
4.18674
4.16275
4.13985
4.1056
4.08196
4.07447
4.05654
4.0307
4.00606
3.97644
3.96437
3.96879
3.96713
3.94983
3.93987
3.92903
3.90849
3.88262
3.85372
3.81915
3.78744
3.76078
3.74441
3.7306
3.71314
3.69441
3.68574
3.68447
3.69163
3.71165
3.74147
3.78121
3.83089
3.87403
3.91266
3.92407
3.92527
3.92273
3.9124
3.90147
3.88619
3.86228
3.84289
3.82553
3.80886
3.79047
3.7541
3.70845
3.68561
3.6697
3.65297
3.63588
3.61804
3.60207
3.59279
3.59258
3.59518
3.58726
3.56441
3.52309
3.45765
3.39943
3.36997
3.35958
3.36037
3.38647
3.41182
3.40763
3.3896
3.35996
3.31488
3.25717
3.20705
3.17658
3.16641
3.16352
3.16453
3.1706
3.16531
3.15715
3.14881
3.12968
3.09139
3.0449
3.02293
3.01891
3.0231
3.03137
3.02688
3.01853
2.99766
2.95078
2.8869
2.85341
2.84789
2.85481
2.88002
2.88778
2.87714
2.84872
2.80115
2.7606
2.74299
2.73878
2.74111
2.75664
2.7668
2.76303
2.75289
2.7272
2.67224
2.6022
2.56909
2.56138
2.56231
2.58649
2.64349
2.67021
2.66444
2.65226
2.59513
2.63414
3.15189
4.67754
6.09428
6.98966
7.36474
7.37744
7.27987
7.03906
6.79162
6.72707
6.73438
6.83508
6.88228
6.8373
6.73947
6.61679
6.56134
6.5472
6.57495
6.58147
6.53923
6.4621
6.34817
6.27119
1
1
1
1
1
1
1
1
1
1
1
1
1
1
1
1
1
1
1
1
1
1
1
1
1
1
1
1
1
1
1
1
1
1
1
1
1
1
1
1
1
1
1
1
1
1
1
1
1
1
1
1
1
1
1
1
1
1
1
1
1
1
1
1.00012
1.00977
1.20286
1.96716
3.12636
4.32744
4.50675
4.3937
4.40309
4.41647
4.44849
4.41867
4.34839
4.33851
4.35654
4.33809
4.28967
4.26563
4.26578
4.25857
4.21935
4.18961
4.171
4.14566
4.11192
4.09775
4.08947
4.06552
4.04261
4.02079
4.0047
4.00692
4.00616
3.98808
3.96942
3.95539
3.93277
3.90625
3.87731
3.84867
3.82203
3.796
3.77975
3.76562
3.74719
3.72681
3.71178
3.70273
3.70078
3.70357
3.71391
3.7286
3.74217
3.76798
3.80855
3.86794
3.90765
3.91661
3.91659
3.91352
3.90836
3.90582
3.89616
3.87795
3.86045
3.84191
3.8065
3.76023
3.72193
3.69855
3.6807
3.66524
3.65137
3.64075
3.63482
3.63403
3.63233
3.62154
3.59658
3.5541
3.48759
3.43355
3.40648
3.39837
3.40135
3.42885
3.448
3.44181
3.42154
3.38531
3.33785
3.28908
3.24633
3.21454
3.20452
3.20201
3.20065
3.20406
3.19709
3.18684
3.17821
3.16056
3.12575
3.08013
3.05611
3.051
3.05353
3.0611
3.05637
3.04745
3.02682
2.98308
2.9223
2.88849
2.88261
2.88981
2.9145
2.92028
2.90847
2.87749
2.82703
2.78692
2.77165
2.76843
2.77318
2.78987
2.79646
2.79179
2.78085
2.75356
2.69729
2.62925
2.59732
2.59
2.59098
2.61579
2.66959
2.69312
2.68574
2.67959
2.63744
2.77979
3.66204
5.31581
6.50681
7.19251
7.46032
7.45026
7.33583
7.08446
6.84864
6.7911
6.80303
6.90874
6.95424
6.90665
6.80721
6.67943
6.62017
6.60335
6.62767
6.63625
6.5952
6.52133
6.4099
6.3324
6.30747
1
1
1
1
1
1
1
1
1
1
1
1
1
1
1
1
1
1
1
1
1
1
1
1
1
1
1
1
1
1
1
1
1
1
1
1
1
1
1
1
1
1
1
1
1
1
1
1
1
1
1
1
1
1
1
1
1
1
1
1
1
1
1
1
1.00011
1.00646
1.09799
1.58401
3.11097
4.26783
4.28721
4.38182
4.44606
4.47142
4.3849
4.36006
4.38181
4.37616
4.31899
4.28361
4.27828
4.28715
4.25359
4.21666
4.19849
4.18187
4.15343
4.12937
4.12149
4.10724
4.08001
4.06568
4.05374
4.04654
4.03967
4.02514
3.99956
3.97957
3.95459
3.9275
3.89991
3.87613
3.85454
3.83058
3.81232
3.79701
3.77823
3.76196
3.74903
3.73864
3.7302
3.72554
3.72197
3.71841
3.71562
3.71153
3.71537
3.74353
3.8057
3.8716
3.88882
3.9003
3.91216
3.92588
3.94046
3.93489
3.91805
3.89574
3.85888
3.81094
3.76406
3.73178
3.71115
3.69652
3.68563
3.67907
3.67732
3.67306
3.66573
3.65185
3.62683
3.5853
3.5204
3.46897
3.44425
3.43747
3.44362
3.47174
3.48284
3.47452
3.45381
3.41677
3.36401
3.32133
3.28939
3.25677
3.24302
3.24028
3.23699
3.23508
3.22956
3.21609
3.20627
3.19059
3.16015
3.11617
3.08921
3.08277
3.08408
3.09135
3.08649
3.07647
3.05515
3.01405
2.95778
2.92479
2.91849
2.92602
2.94953
2.95318
2.93957
2.90635
2.85334
2.81449
2.80074
2.79829
2.80581
2.82297
2.82663
2.82129
2.80874
2.77916
2.72136
2.65585
2.62586
2.61914
2.6202
2.64523
2.69547
2.71531
2.71065
2.68456
2.69372
3.0206
4.32244
5.89223
6.82796
7.35753
7.54444
7.518
7.39457
7.13475
6.90923
6.85656
6.87223
6.98347
7.02791
6.97785
6.87513
6.74181
6.67928
6.6611
6.68309
6.69235
6.65145
6.57812
6.47226
6.39825
6.37295
6.38115
1
1
1
1
1
1
1
1
1
1
1
1
1
1
1
1
1
1
1
1
1
1
1
1
1
1
1
1
1
1
1
1
1
1
1
1
1
1
1
1
1
1
1
1
1
1
1
1
1
1
1
1
1
1
1
1
1
1
1
1
1
1
1
1
1
1.00004
1.00188
1.04463
1.49531
3.01515
3.96025
4.26939
4.44907
4.45421
4.40604
4.41614
4.41407
4.35297
4.31005
4.29845
4.31706
4.28501
4.24144
4.22289
4.21804
4.19413
4.1691
4.16036
4.15616
4.12822
4.10737
4.10179
4.09036
4.07028
4.05568
4.03266
4.0053
3.98054
3.95106
3.92281
3.90299
3.8842
3.86366
3.84454
3.82821
3.80956
3.79521
3.78795
3.78151
3.77214
3.76135
3.74903
3.73514
3.71966
3.70218
3.68045
3.67084
3.68669
3.73657
3.80578
3.84664
3.88566
3.92749
3.96249
3.96907
3.96242
3.94072
3.90731
3.86547
3.81292
3.77024
3.74697
3.73174
3.72162
3.71625
3.71565
3.70947
3.69663
3.67972
3.65513
3.61634
3.55576
3.50633
3.48264
3.47733
3.48679
3.51248
3.51551
3.50546
3.48388
3.4483
3.39952
3.35543
3.32872
3.30576
3.28379
3.27761
3.2719
3.26427
3.2599
3.24745
3.23479
3.22018
3.19367
3.15293
3.12347
3.11512
3.11456
3.12164
3.1171
3.10516
3.08282
3.04405
2.99296
2.96174
2.95513
2.96262
2.98485
2.98565
2.96986
2.93492
2.88021
2.84275
2.83023
2.82831
2.83819
2.85628
2.85784
2.85176
2.83673
2.8039
2.74397
2.68234
2.65456
2.64877
2.6502
2.67488
2.72234
2.73576
2.73442
2.71289
2.79402
3.40722
5.0665
6.36636
7.06478
7.48668
7.62551
7.58437
7.45147
7.18625
6.96897
6.9188
6.93907
7.05694
7.10057
7.05023
6.94559
6.80711
6.74029
6.72103
6.74151
6.75081
6.71016
6.63649
6.53305
6.459
6.43411
6.44227
6.47165
1
1
1
1
1
1
1
1
1
1
1
1
1
1
1
1
1
1
1
1
1
1
1
1
1
1
1
1
1
1
1
1
1
1
1
1
1
1
1
1
1
1
1
1
1
1
1
1
1
1
1
1
1
1
1
1
1
1
1
1
1
1
1
1
1
1
1.00001
1.00085
1.03185
1.47885
2.84816
3.77023
4.32347
4.46451
4.45241
4.40708
4.36935
4.34624
4.33289
4.34518
4.30823
4.26473
4.25244
4.25578
4.23595
4.20817
4.19789
4.2017
4.17963
4.14933
4.13613
4.12497
4.1015
4.08274
4.06679
4.03654
4.00759
3.98024
3.9508
3.92635
3.91175
3.89556
3.87632
3.86174
3.84499
3.83036
3.82463
3.82397
3.8146
3.79874
3.78014
3.76066
3.74116
3.71677
3.68513
3.65263
3.64675
3.65716
3.69003
3.7498
3.81668
3.88485
3.95551
3.97438
3.97758
3.96973
3.94489
3.9091
3.86756
3.81628
3.78698
3.77441
3.76023
3.75063
3.74605
3.742
3.72789
3.70868
3.68388
3.64801
3.59461
3.54604
3.52294
3.51844
3.52827
3.54746
3.54458
3.53392
3.51333
3.4796
3.43608
3.39513
3.36816
3.35252
3.33541
3.31465
3.30386
3.29353
3.28571
3.27925
3.2652
3.25131
3.22776
3.19049
3.15893
3.14881
3.14608
3.15208
3.14675
3.13321
3.11062
3.07352
3.02811
2.99916
2.99231
2.99964
3.0196
3.01787
2.99943
2.96262
2.90785
2.87179
2.86006
2.8585
2.87064
2.88992
2.89038
2.88306
2.86462
2.82802
2.76542
2.70878
2.68394
2.67838
2.68072
2.70592
2.74943
2.75718
2.75557
2.75939
2.97057
3.97646
5.7701
6.75789
7.25323
7.59863
7.70567
7.65461
7.51419
7.2398
7.0302
6.98335
7.00752
7.13028
7.17195
7.12109
7.01611
6.87499
6.80403
6.78331
6.80062
6.80903
6.76965
6.69952
6.59876
6.52531
6.50001
6.50551
6.52783
6.5063
1
1
1
1
1
1
1
1
1
1
1
1
1
1
1
1
1
1
1
1
1
1
1
1
1
1
1
1
1
1
1
1
1
1
1
1
1
1
1
1
1
1
1
1
1
1
1
1
1
1
1
1
1
1
1
1
1
1
1
1
1
1
1
1
1
1
1
1
1.00061
1.03302
1.43161
2.40474
3.58075
4.4149
4.46144
4.35595
4.37681
4.38475
4.37715
4.32838
4.29053
4.28176
4.29782
4.2856
4.24721
4.23102
4.23552
4.2216
4.18625
4.16559
4.15393
4.13372
4.10753
4.09669
4.07478
4.03939
4.01053
3.9834
3.95673
3.93537
3.92296
3.90961
3.8969
3.88435
3.86831
3.86164
3.8604
3.84975
3.82968
3.80689
3.78612
3.76688
3.74509
3.71146
3.66452
3.64304
3.64328
3.65059
3.67442
3.7262
3.79433
3.88197
3.94924
3.96611
3.97483
3.96839
3.94126
3.90268
3.87055
3.83475
3.81769
3.80558
3.78946
3.77291
3.76504
3.75683
3.73987
3.71647
3.68423
3.63678
3.58877
3.56603
3.56217
3.56924
3.57796
3.57184
3.56031
3.54177
3.51157
3.47144
3.43521
3.40963
3.39668
3.38407
3.35625
3.33263
3.32103
3.31057
3.30799
3.29718
3.284
3.26273
3.22804
3.19541
3.1835
3.17869
3.18232
3.17524
3.16038
3.13792
3.10301
3.06305
3.03654
3.02986
3.03722
3.0543
3.04996
3.02845
2.98975
2.93512
2.9015
2.8903
2.8893
2.90344
2.92416
2.92396
2.91459
2.8921
2.85137
2.78632
2.73497
2.71379
2.70871
2.71143
2.73699
2.77411
2.78599
2.77152
2.81746
3.27435
4.72967
6.36854
7.05407
7.40821
7.70328
7.77987
7.71919
7.57266
7.29436
7.09605
7.05209
7.07993
7.20469
7.24326
7.19117
7.08545
6.94304
6.86899
6.84749
6.86098
6.86604
6.82712
6.75963
6.66554
6.59632
6.57115
6.57613
6.5911
6.56347
6.50678
1
1
1
1
1
1
1
1
1
1
1
1
1
1
1
1
1
1
1
1
1
1
1
1
1
1
1
1
1
1
1
1
1
1
1
1
1
1
1
1
1
1
1
1
1
1
1
1
1
1
1
1
1
1
1
1
1
1
1
1
1
1
1
1
1
1
1
1
1
1.00059
1.02266
1.22448
1.97027
3.63342
4.27606
4.28289
4.37395
4.42987
4.36852
4.31567
4.30867
4.33258
4.32511
4.27879
4.25747
4.26142
4.26054
4.21983
4.18884
4.18117
4.16659
4.13553
4.11705
4.10827
4.07659
4.04319
4.017
3.99076
3.96663
3.95039
3.94147
3.93387
3.92423
3.91035
3.89999
3.89456
3.87927
3.85613
3.83181
3.81022
3.79105
3.77316
3.74588
3.69993
3.6568
3.64541
3.6453
3.65001
3.66951
3.71816
3.78485
3.86003
3.92414
3.95185
3.96605
3.95894
3.92724
3.89935
3.88308
3.86693
3.84928
3.83339
3.8108
3.78815
3.77863
3.76845
3.75083
3.72347
3.68154
3.63383
3.61007
3.60673
3.60991
3.60853
3.59924
3.5863
3.56869
3.54307
3.50656
3.47285
3.45198
3.44046
3.42532
3.39378
3.36122
3.34675
3.33585
3.3335
3.32972
3.31796
3.30015
3.26832
3.23314
3.21777
3.21167
3.21228
3.20324
3.187
3.16462
3.1317
3.09709
3.0738
3.06731
3.07488
3.08953
3.08193
3.05755
3.01605
2.96209
2.93188
2.92133
2.9207
2.93726
2.95877
2.95751
2.94536
2.9194
2.87394
2.80713
2.76205
2.74347
2.73901
2.74218
2.77006
2.79726
2.80932
2.81193
2.93461
3.73992
5.58737
6.81559
7.27352
7.54199
7.8042
7.85514
7.78574
7.63018
7.34709
7.16113
7.11911
7.15236
7.27979
7.31408
7.26082
7.1531
7.01091
6.93588
6.91377
6.92403
6.9242
6.88445
6.81641
6.72707
6.66115
6.63793
6.64362
6.65284
6.62471
6.56779
6.46966
1
1
1
1
1
1
1
1
1
1
1
1
1
1
1
1
1
1
1
1
1
1
1
1
1
1
1
1
1
1
1
1
1
1
1
1
1
1
1
1
1
1
1
1
1
1
1
1
1
1
1
1
1
1
1
1
1
1
1
1
1
1
1
1
1
1
1
1
1
1
1.00021
1.00718
1.11068
1.86576
3.4461
4.04578
4.31882
4.43222
4.37663
4.34479
4.36617
4.36204
4.30387
4.27774
4.27907
4.29387
4.25715
4.21035
4.20305
4.19697
4.16562
4.13586
4.12847
4.11186
4.07755
4.052
4.02883
4.00242
3.98395
3.9741
3.96888
3.96416
3.95306
3.9415
3.9275
3.90917
3.88465
3.85673
3.83428
3.8146
3.79741
3.77626
3.74244
3.69279
3.66535
3.66092
3.65983
3.66429
3.68864
3.72923
3.77376
3.81962
3.87288
3.91626
3.93695
3.93269
3.91943
3.90609
3.90043
3.89217
3.87454
3.85439
3.82887
3.80479
3.79241
3.78002
3.76121
3.72904
3.68105
3.65315
3.64982
3.64797
3.64011
3.62762
3.61253
3.59518
3.57257
3.54116
3.50992
3.49305
3.48396
3.46651
3.43061
3.39151
3.3718
3.36113
3.35767
3.36155
3.35203
3.33828
3.31104
3.27333
3.2522
3.24457
3.2415
3.23046
3.21308
3.19076
3.1606
3.13062
3.11095
3.10516
3.11299
3.12458
3.11377
3.08714
3.04177
2.98906
2.96217
2.95291
2.95269
2.97164
2.99307
2.99026
2.97527
2.94677
2.89581
2.82848
2.78954
2.77328
2.76931
2.7727
2.79951
2.82934
2.83057
2.85521
3.15988
4.38945
6.39774
7.16727
7.4582
7.66173
7.89771
7.93148
7.85684
7.69319
7.40409
7.2295
7.19012
7.22763
7.35634
7.38474
7.33023
7.22023
7.07763
7.00224
6.97953
6.98736
6.98324
6.94392
6.87702
6.78953
6.72522
6.70229
6.70661
6.71319
6.68324
6.622
6.52087
6.41643
1
1
1
1
1
1
1
1
1
1
1
1
1
1
1
1
1
1
1
1
1
1
1
1
1
1
1
1
1
1
1
1
1
1
1
1
1
1
1
1
1
1
1
1
1
1
1
1
1
1
1
1
1
1
1
1
1
1
1
1
1
1
1
1
1
1
1
1
1
1
1
1.00005
1.00317
1.08346
1.82978
3.23982
3.97781
4.34755
4.41639
4.40924
4.37449
4.32655
4.30516
4.30041
4.32226
4.28595
4.23267
4.22281
4.22159
4.19336
4.16173
4.1456
4.14238
4.11442
4.08635
4.06876
4.04676
4.02295
4.01123
4.00567
4.00242
3.99329
3.98076
3.958
3.93697
3.91369
3.88545
3.85894
3.83897
3.82075
3.8008
3.77556
3.73726
3.7036
3.69506
3.69221