/*--------------------------------*- C++ -*----------------------------------*\
  =========                 |
  \\      /  F ield         | OpenFOAM: The Open Source CFD Toolbox
   \\    /   O peration     | Website:  https://openfoam.org
    \\  /    A nd           | Version:  7
     \\/     M anipulation  |
\*---------------------------------------------------------------------------*/
FoamFile
{
    version     2.0;
    format      ascii;
    class       volScalarField;
    location    "2";
    object      rho;
}
// * * * * * * * * * * * * * * * * * * * * * * * * * * * * * * * * * * * * * //

dimensions      [1 -3 0 0 0 0 0];

internalField   nonuniform List<scalar> 
4128
(
0.883723
0.886781
0.889824
0.890975
0.890817
0.890378
0.889485
0.887828
0.886618
0.886448
0.886555
0.887281
0.889365
0.891902
0.892951
0.892454
0.890473
0.886276
0.882347
0.880538
0.880078
0.880454
0.882333
0.884316
0.886217
0.887305
0.886653
0.884829
0.881179
0.879783
0.889428
0.950297
1.1262
1.47597
1.8742
2.21031
2.38909
2.49831
2.63351
2.67234
2.66325
2.63863
2.61365
2.59691
2.58877
2.57938
2.56488
2.54521
2.52622
2.51479
2.50988
2.51139
2.51571
2.51488
2.50368
2.48842
2.47466
2.46506
2.45735
2.44733
2.43693
2.42706
2.41891
2.41493
2.4205
2.43403
2.44239
2.43657
2.42499
2.40773
2.38565
2.36906
2.3609
2.35647
2.3614
2.37874
2.39767
2.4049
2.4013
2.39231
2.3726
2.34101
2.31787
2.3085
2.30415
2.30535
2.31144
2.31427
2.3093
2.29903
2.28017
2.26064
2.24909
2.24261
2.23835
2.23762
2.23964
2.2413
2.24008
2.23603
2.22939
2.22005
2.20305
2.18062
2.16348
2.15273
2.1463
2.14215
2.14059
2.13998
2.13865
2.13694
2.13519
2.1329
2.12865
2.1222
2.1138
2.10086
2.08128
2.06561
2.05806
2.05408
2.05263
2.0563
2.06408
2.06993
2.07066
2.0664
2.05163
0.886086
0.888686
0.8911
0.891696
0.891444
0.891104
0.890462
0.888975
0.887486
0.886938
0.88682
0.887057
0.888233
0.889551
0.890253
0.890894
0.89157
0.891556
0.890932
0.8892
0.887221
0.885938
0.885389
0.885243
0.885219
0.885601
0.886016
0.885661
0.887192
0.899673
0.96703
1.12321
1.27573
1.43145
1.66186
1.98357
2.25921
2.46013
2.60705
2.64669
2.64974
2.64087
2.62783
2.61927
2.60971
2.59734
2.58669
2.57309
2.55657
2.5415
2.53132
2.52452
2.52165
2.52153
2.51765
2.50847
2.49844
2.4899
2.48243
2.47329
2.46223
2.44931
2.43608
2.42662
2.42325
2.42875
2.43651
2.44049
2.43758
2.42916
2.41533
2.3949
2.37661
2.36762
2.3664
2.37795
2.39176
2.39567
2.39203
2.38435
2.3741
2.36439
2.35017
2.33287
2.32094
2.31491
2.31202
2.31063
2.30695
2.30142
2.29483
2.28649
2.27459
2.26186
2.25222
2.24659
2.24259
2.23918
2.23457
2.22869
2.22141
2.21261
2.20417
2.19764
2.1902
2.18056
2.17051
2.16174
2.15545
2.15102
2.14707
2.14288
2.13805
2.13205
2.12558
2.11854
2.1101
2.10024
2.09206
2.08422
2.07472
2.06671
2.06258
2.06217
2.06537
2.06692
2.06429
2.06087
2.04972
0.894492
0.897188
0.899909
0.900516
0.900544
0.900566
0.900334
0.899439
0.89833
0.897548
0.89655
0.895034
0.893093
0.891506
0.890829
0.891025
0.892906
0.896506
0.900005
0.902098
0.902496
0.90169
0.899298
0.895143
0.890237
0.887379
0.886728
0.890156
0.916498
0.996439
1.17503
1.33226
1.41538
1.45122
1.53039
1.77643
2.17564
2.51816
2.67751
2.70901
2.71775
2.71313
2.71043
2.69592
2.67098
2.65091
2.63991
2.63478
2.62859
2.61576
2.60069
2.58431
2.57023
2.56052
2.55615
2.55465
2.55214
2.5448
2.53428
2.52293
2.51265
2.50303
2.49274
2.48126
2.46993
2.46123
2.45553
2.45642
2.4617
2.46548
2.46161
2.45221
2.4374
2.42217
2.41224
2.40795
2.40512
2.40098
2.39641
2.39287
2.39264
2.39302
2.38859
2.38144
2.36965
2.35331
2.33744
2.32609
2.31833
2.31492
2.31719
2.31919
2.31538
2.30879
2.29826
2.28243
2.26612
2.25415
2.24417
2.23433
2.22534
2.21898
2.21643
2.21774
2.21796
2.21484
2.21025
2.20374
2.19468
2.18436
2.17502
2.16646
2.15731
2.14736
2.13687
2.12613
2.11672
2.11067
2.10807
2.10654
2.10223
2.09661
2.09004
2.0848
2.08021
2.0752
2.06904
2.06241
2.05703
0.91296
0.913916
0.914979
0.91501
0.91459
0.913724
0.91277
0.912404
0.912589
0.913242
0.913712
0.913412
0.912359
0.910457
0.908542
0.907601
0.907623
0.909627
0.913297
0.916231
0.917266
0.917142
0.915726
0.912477
0.907783
0.906041
0.910294
0.94148
1.05722
1.21166
1.39234
1.45422
1.50166
1.52907
1.58209
1.66444
1.86699
2.23663
2.54366
2.72931
2.77642
2.7903
2.7969
2.77456
2.74538
2.72436
2.71214
2.70814
2.7083
2.70196
2.68782
2.66994
2.64926
2.63097
2.6188
2.61296
2.61299
2.60973
2.59868
2.58582
2.57293
2.56213
2.55308
2.54444
2.53432
2.52211
2.50949
2.50158
2.49789
2.49851
2.50107
2.50005
2.49387
2.48588
2.47389
2.45733
2.44182
2.43194
2.42615
2.4266
2.43287
2.43604
2.43416
2.42934
2.41936
2.40058
2.38141
2.36853
2.3605
2.35586
2.3571
2.35982
2.35902
2.35466
2.34719
2.332
2.30897
2.28877
2.27472
2.26438
2.25713
2.25298
2.2533
2.25638
2.25815
2.25777
2.25484
2.24929
2.24029
2.22634
2.21089
2.19802
2.1873
2.17725
2.16736
2.15866
2.15185
2.14765
2.14629
2.14464
2.14136
2.13652
2.12896
2.11723
2.10467
2.09386
2.08437
2.07842
2.07734
0.939823
0.939373
0.938727
0.938014
0.936468
0.933623
0.931374
0.930846
0.930807
0.931634
0.932808
0.933052
0.932829
0.932445
0.932231
0.932082
0.932305
0.933594
0.935903
0.9373
0.937013
0.935857
0.933415
0.930137
0.930367
0.939586
0.978476
1.11053
1.29752
1.41729
1.50703
1.52331
1.56364
1.62265
1.67465
1.71219
1.7517
1.88733
2.17662
2.52946
2.73094
2.8215
2.87342
2.85845
2.83245
2.80316
2.78656
2.77716
2.7707
2.76233
2.75202
2.73812
2.72059
2.70177
2.68551
2.67609
2.67226
2.67136
2.66546
2.65464
2.64229
2.6279
2.6153
2.60293
2.58977
2.57538
2.55822
2.54055
2.5303
2.52523
2.52725
2.53621
2.54087
2.534
2.52242
2.50353
2.48058
2.46695
2.46297
2.46707
2.47653
2.4791
2.47373
2.46503
2.4511
2.4316
2.41688
2.40894
2.40433
2.40325
2.40457
2.40449
2.40009
2.39274
2.38276
2.36775
2.34497
2.32165
2.30551
2.2969
2.29218
2.2919
2.29695
2.30295
2.30619
2.30514
2.30003
2.29181
2.27839
2.2606
2.24219
2.22567
2.21244
2.20254
2.19524
2.18996
2.18806
2.18958
2.19155
2.1913
2.18816
2.18238
2.17168
2.15094
2.12712
2.11205
2.10429
2.10027
2.10245
0.967016
0.96589
0.964594
0.962643
0.959505
0.956651
0.955811
0.955598
0.955829
0.957177
0.958208
0.95813
0.957786
0.957273
0.957054
0.957083
0.957353
0.95801
0.959029
0.95985
0.959232
0.957011
0.954835
0.95602
0.969419
1.03138
1.16108
1.37524
1.47234
1.52658
1.56001
1.58073
1.63259
1.70612
1.75453
1.78127
1.78079
1.78821
1.85087
2.06573
2.40513
2.68174
2.84109
2.8606
2.85685
2.85174
2.84844
2.83241
2.80981
2.78606
2.77179
2.7611
2.75387
2.74494
2.72946
2.70929
2.69732
2.68986
2.68439
2.67533
2.66344
2.64711
2.63122
2.61969
2.60987
2.60031
2.58879
2.57139
2.55362
2.54568
2.54304
2.54874
2.5554
2.55275
2.54558
2.53652
2.52285
2.50649
2.49682
2.49199
2.48961
2.48539
2.47837
2.46836
2.45613
2.44843
2.44446
2.44192
2.43773
2.4321
2.42556
2.41839
2.41
2.40068
2.38952
2.37663
2.36473
2.35364
2.3427
2.33464
2.33134
2.3325
2.33533
2.33356
2.32879
2.32236
2.31429
2.30442
2.29007
2.27139
2.25511
2.24272
2.23318
2.22652
2.22274
2.2224
2.22609
2.23023
2.23085
2.22704
2.22024
2.20996
2.19518
2.17327
2.1502
2.13454
2.12629
2.12286
2.12471
0.993155
0.990921
0.986946
0.981972
0.978342
0.977034
0.976581
0.976424
0.977055
0.978681
0.980053
0.980627
0.980871
0.980756
0.979825
0.978356
0.977122
0.975971
0.974681
0.973599
0.972551
0.972635
0.977213
0.997201
1.08161
1.25482
1.41421
1.54571
1.56068
1.5717
1.60063
1.64106
1.70887
1.78311
1.80518
1.81438
1.8093
1.8
1.79481
1.81871
1.94198
2.23788
2.5938
2.77871
2.83109
2.85067
2.85987
2.8469
2.81736
2.77957
2.76029
2.75489
2.75973
2.75363
2.73976
2.71546
2.69067
2.67952
2.67559
2.67377
2.66364
2.65104
2.63811
2.62883
2.62198
2.61559
2.60669
2.59409
2.57214
2.54776
2.53607
2.53204
2.53851
2.5552
2.56165
2.55699
2.54946
2.53645
2.51425
2.49415
2.4834
2.47489
2.46749
2.46195
2.45921
2.46103
2.45898
2.45269
2.44422
2.43437
2.42543
2.41619
2.40676
2.39758
2.38966
2.38435
2.38329
2.38126
2.37624
2.3688
2.35962
2.35091
2.34348
2.33685
2.32824
2.31837
2.30778
2.29637
2.28457
2.2745
2.26563
2.25821
2.25254
2.24881
2.24772
2.24905
2.24803
2.24424
2.23935
2.23354
2.22608
2.21494
2.19842
2.18349
2.17224
2.16212
2.15289
2.1452
2.13513
1.01463
1.00886
1.00097
0.995493
0.99346
0.992631
0.992209
0.992461
0.99409
0.996246
0.997844
0.998284
0.99789
0.996328
0.993202
0.989978
0.987972
0.986595
0.985322
0.984926
0.986347
0.994084
1.02602
1.11991
1.3248
1.47535
1.56189
1.59438
1.59155
1.59672
1.64432
1.70734
1.77289
1.82326
1.82991
1.82634
1.81846
1.80893
1.79645
1.78913
1.79154
1.84717
2.06664
2.42908
2.66801
2.77957
2.83522
2.83984
2.8179
2.78018
2.74302
2.72748
2.7327
2.74494
2.73672
2.71569
2.68368
2.66113
2.6501
2.64872
2.64928
2.64347
2.63547
2.62844
2.62341
2.61964
2.61218
2.60033
2.58316
2.55948
2.53681
2.52554
2.52153
2.52826
2.54571
2.55702
2.5524
2.54165
2.52429
2.49784
2.47454
2.46284
2.45632
2.45338
2.45638
2.45867
2.45459
2.44791
2.43904
2.42718
2.41361
2.40159
2.39361
2.38903
2.38938
2.39446
2.39702
2.39397
2.38832
2.38103
2.37102
2.35815
2.3449
2.33036
2.31458
2.30064
2.29109
2.28504
2.28252
2.28164
2.28003
2.27683
2.27189
2.26524
2.25696
2.24857
2.24244
2.23654
2.23054
2.22397
2.21581
2.20663
2.19943
2.19444
2.19092
2.18599
2.17763
2.16464
2.1383
1.02075
1.01331
1.00687
1.00416
1.00313
1.00256
1.00265
1.00421
1.00633
1.00752
1.00735
1.00642
1.00421
1.00068
0.997366
0.99551
0.994728
0.994302
0.994643
0.997019
1.00681
1.05558
1.18148
1.36611
1.53139
1.57182
1.59936
1.60446
1.61686
1.64935
1.71869
1.77111
1.81129
1.83326
1.83638
1.83139
1.81672
1.80312
1.78891
1.77452
1.76624
1.76146
1.78561
1.92205
2.24173
2.54292
2.7126
2.79496
2.80551
2.7829
2.73967
2.70446
2.68966
2.68769
2.69649
2.69587
2.681
2.65384
2.6302
2.61892
2.61182
2.60951
2.60549
2.5998
2.59408
2.59026
2.58911
2.58682
2.57839
2.56519
2.54666
2.524
2.51042
2.50343
2.50351
2.51337
2.52652
2.52717
2.5171
2.49777
2.47306
2.45725
2.45015
2.44749
2.45007
2.45049
2.44568
2.43936
2.43046
2.41705
2.40212
2.39131
2.3841
2.37863
2.37531
2.37555
2.37885
2.38274
2.38301
2.37797
2.36969
2.35639
2.33803
2.31945
2.30534
2.29656
2.29028
2.28515
2.28518
2.28905
2.28728
2.2821
2.27541
2.26698
2.25639
2.24462
2.23311
2.22107
2.20848
2.19831
2.19282
2.19255
2.19941
2.20411
2.20133
2.19527
2.18747
2.17667
2.145
1.02014
1.01476
1.01203
1.01073
1.00993
1.0097
1.01039
1.01154
1.01166
1.01105
1.00994
1.00818
1.00581
1.00313
1.00141
1.00097
1.00098
1.00128
1.00313
1.01392
1.0686
1.24367
1.41845
1.55681
1.59636
1.59633
1.61036
1.62877
1.66613
1.73372
1.79782
1.81417
1.82768
1.82816
1.82023
1.81161
1.80338
1.79319
1.78005
1.76454
1.74944
1.7398
1.73246
1.74234
1.81674
2.06136
2.39736
2.60693
2.7146
2.74938
2.73748
2.70565
2.66769
2.64629
2.6365
2.64195
2.64747
2.63658
2.61886
2.59802
2.58511
2.57902
2.57522
2.57047
2.56275
2.55473
2.54891
2.5482
2.55316
2.55238
2.54287
2.52734
2.50486
2.48685
2.47703
2.47089
2.47175
2.47921
2.48107
2.47386
2.46046
2.44646
2.43925
2.43679
2.43713
2.43529
2.42962
2.42233
2.41217
2.39929
2.38804
2.37974
2.37276
2.36656
2.361
2.35621
2.35246
2.35051
2.35018
2.34892
2.34388
2.33398
2.32143
2.31119
2.30336
2.29674
2.29132
2.28841
2.28597
2.2832
2.28038
2.27655
2.2713
2.2642
2.2548
2.24149
2.22386
2.20536
2.19029
2.18113
2.17639
2.17479
2.18027
2.19069
2.19575
2.19259
2.18503
2.17455
2.1505
1.01954
1.01832
1.018
1.01772
1.01714
1.01632
1.01543
1.01452
1.01328
1.01185
1.01045
1.00891
1.00762
1.00678
1.0058
1.00438
1.00413
1.00571
1.02132
1.0908
1.2706
1.47567
1.56143
1.60697
1.61722
1.61896
1.62475
1.66287
1.72483
1.79603
1.83189
1.83113
1.82474
1.81336
1.80167
1.79166
1.78588
1.77846
1.76825
1.75506
1.74035
1.7256
1.71116
1.70203
1.70201
1.73633
1.90016
2.22937
2.48585
2.63406
2.70676
2.70319
2.67214
2.63095
2.60999
2.59977
2.60072
2.60498
2.59971
2.58711
2.57051
2.56111
2.55284
2.54407
2.53451
2.52568
2.51853
2.51601
2.5212
2.52808
2.52581
2.51575
2.49825
2.47448
2.45412
2.44264
2.43491
2.43288
2.43923
2.4456
2.44303
2.43628
2.42861
2.42302
2.41808
2.41342
2.40929
2.40355
2.39632
2.38841
2.38003
2.37137
2.36278
2.35462
2.34654
2.33824
2.33015
2.32287
2.31636
2.31087
2.30718
2.30541
2.30527
2.30405
2.29979
2.29517
2.2911
2.28636
2.28117
2.27588
2.27098
2.26582
2.25964
2.25238
2.24257
2.22766
2.20971
2.19577
2.18558
2.1773
2.1709
2.16695
2.1659
2.16828
2.17056
2.17128
2.16878
2.16245
2.14665
1.02218
1.02308
1.02313
1.02248
1.02147
1.01984
1.01745
1.01506
1.01318
1.01159
1.01049
1.01005
1.00992
1.00921
1.0072
1.00509
1.00698
1.03059
1.13569
1.30284
1.51313
1.57712
1.60512
1.61502
1.62215
1.62922
1.65208
1.71623
1.77384
1.8226
1.83671
1.83358
1.82046
1.80206
1.78753
1.77432
1.76467
1.75725
1.74921
1.73996
1.72864
1.71611
1.70325
1.69045
1.68007
1.67137
1.68186
1.77689
2.05482
2.37262
2.57286
2.67072
2.67111
2.64712
2.61776
2.59384
2.58443
2.5798
2.58007
2.57265
2.56107
2.55117
2.54201
2.53342
2.52436
2.51536
2.50769
2.50292
2.50193
2.50528
2.50827
2.50205
2.48985
2.46895
2.44479
2.42986
2.4217
2.41629
2.41697
2.42341
2.42797
2.42472
2.41778
2.40834
2.39905
2.39234
2.3871
2.38475
2.38448
2.38164
2.37569
2.36676
2.35542
2.34389
2.33148
2.31882
2.30833
2.30039
2.29428
2.28961
2.28774
2.28892
2.29198
2.29572
2.29754
2.29465
2.2886
2.28146
2.27311
2.26488
2.25749
2.25036
2.24323
2.23579
2.22798
2.22039
2.21175
2.20064
2.18954
2.17989
2.17275
2.16719
2.16137
2.15518
2.14772
2.14062
2.13565
2.13492
2.13606
1.02508
1.02525
1.02449
1.02361
1.02246
1.02076
1.01841
1.01548
1.01312
1.01219
1.01194
1.01129
1.01
1.00858
1.00631
1.0095
1.0408
1.17522
1.37797
1.5157
1.60763
1.61102
1.61107
1.61501
1.6219
1.64617
1.70561
1.77364
1.80213
1.82381
1.82627
1.81824
1.80722
1.79405
1.77692
1.75652
1.74137
1.73253
1.7265
1.72169
1.71627
1.70935
1.70084
1.68965
1.67488
1.66155
1.65505
1.65524
1.70499
1.90872
2.25044
2.49063
2.61803
2.64664
2.64749
2.61948
2.59112
2.57168
2.56695
2.56167
2.55847
2.55422
2.54467
2.53472
2.52544
2.51603
2.50748
2.49932
2.4914
2.48629
2.4871
2.49236
2.49029
2.48135
2.46495
2.4412
2.42348
2.41507
2.41073
2.41134
2.41411
2.41392
2.40822
2.40063
2.39163
2.38422
2.37881
2.37665
2.37922
2.38149
2.37834
2.37151
2.36119
2.34416
2.32711
2.31427
2.30477
2.29778
2.29215
2.2878
2.28571
2.28669
2.2879
2.28701
2.28505
2.28224
2.27715
2.26983
2.26101
2.252
2.24442
2.23768
2.23193
2.22725
2.22393
2.22121
2.21752
2.21344
2.20831
2.20032
2.18774
2.17131
2.15619
2.14266
2.1274
2.11558
2.10933
2.10704
2.11371
1.02253
1.0229
1.02283
1.02213
1.02132
1.02031
1.01867
1.01624
1.01418
1.01281
1.01125
1.00956
1.00748
1.00612
1.01182
1.05787
1.19433
1.43433
1.5483
1.60222
1.61716
1.61238
1.60549
1.60604
1.62525
1.68065
1.76203
1.80574
1.81244
1.81031
1.80217
1.79536
1.78784
1.77776
1.76238
1.74129
1.72467
1.71586
1.71083
1.7084
1.70935
1.70848
1.70226
1.69158
1.67616
1.66164
1.65408
1.64981
1.64799
1.66874
1.79948
2.11354
2.39761
2.56796
2.645
2.63919
2.62474
2.59363
2.57562
2.56275
2.55901
2.56103
2.55995
2.55552
2.54537
2.53088
2.51469
2.50038
2.4903
2.48254
2.47778
2.4774
2.48317
2.4863
2.48004
2.46866
2.4487
2.42879
2.41743
2.41183
2.41161
2.40969
2.40456
2.3975
2.38962
2.38257
2.37727
2.37489
2.37573
2.37671
2.37504
2.36955
2.36238
2.35466
2.34474
2.33255
2.31949
2.30823
2.29962
2.29333
2.28961
2.28845
2.28538
2.27929
2.27276
2.26637
2.26084
2.25625
2.25188
2.24644
2.24009
2.23359
2.2279
2.22317
2.21954
2.21859
2.22164
2.2243
2.22225
2.21609
2.2067
2.18963
2.16362
2.1371
2.11988
2.10921
2.10198
2.09722
2.09763
1.02057
1.01997
1.01985
1.01957
1.01874
1.01788
1.01707
1.01647
1.01547
1.01325
1.00992
1.00656
1.00448
1.01205
1.07769
1.23603
1.43892
1.58274
1.60481
1.61399
1.60906
1.59329
1.59253
1.60135
1.65091
1.7231
1.79409
1.81099
1.80735
1.79566
1.78087
1.77249
1.76477
1.75549
1.7436
1.72857
1.71588
1.70895
1.70516
1.7033
1.70524
1.70906
1.70777
1.69994
1.68316
1.66482
1.65655
1.65169
1.64788
1.64655
1.65442
1.72927
1.96896
2.29694
2.51218
2.61679
2.63461
2.62845
2.6105
2.59041
2.57816
2.57345
2.57493
2.58149
2.5781
2.56852
2.55466
2.53537
2.51327
2.4937
2.48253
2.47623
2.47392
2.47581
2.48222
2.48205
2.47607
2.46615
2.45184
2.43666
2.42365
2.41424
2.40766
2.40354
2.40063
2.3951
2.38819
2.38197
2.37705
2.37357
2.36989
2.36707
2.36492
2.36077
2.35494
2.34794
2.33944
2.33173
2.32519
2.31936
2.31296
2.30446
2.29409
2.28221
2.27088
2.26293
2.25706
2.25218
2.24808
2.24544
2.24262
2.2378
2.23224
2.22685
2.22284
2.22175
2.22468
2.22675
2.22426
2.21904
2.212
2.20196
2.1854
2.16284
2.13819
2.11713
2.10422
2.0986
2.0973
1.01793
1.01722
1.01715
1.01747
1.01677
1.01588
1.01503
1.01419
1.01303
1.01045
1.00629
1.00348
1.01415
1.08993
1.29376
1.45752
1.57185
1.61186
1.61657
1.61118
1.596
1.58253
1.5878
1.6196
1.68973
1.75338
1.79804
1.80132
1.79678
1.78617
1.76944
1.75269
1.74216
1.73427
1.72836
1.72388
1.71672
1.71045
1.70629
1.70261
1.6999
1.70057
1.70594
1.70729
1.70031
1.6836
1.66731
1.66121
1.65787
1.65646
1.6602
1.66108
1.68884
1.85141
2.15329
2.45253
2.5616
2.6425
2.64367
2.63841
2.62978
2.61046
2.60525
2.60497
2.60787
2.60313
2.59386
2.57953
2.56058
2.54127
2.52155
2.50111
2.48703
2.47982
2.47671
2.48188
2.49249
2.49572
2.48972
2.48034
2.46669
2.4501
2.43652
2.42887
2.42406
2.42087
2.41597
2.4084
2.39945
2.39125
2.3843
2.37885
2.37354
2.36811
2.36304
2.35808
2.35348
2.34938
2.34621
2.3437
2.33998
2.33378
2.32549
2.31385
2.29927
2.28402
2.27191
2.26466
2.26057
2.26001
2.26012
2.25873
2.25549
2.25079
2.24541
2.23975
2.23368
2.2276
2.22293
2.21856
2.21247
2.20473
2.19572
2.18599
2.17476
2.16086
2.14348
2.12614
2.11341
1.01345
1.01313
1.01419
1.01534
1.01479
1.01391
1.01287
1.01136
1.00872
1.00464
1.00173
1.01756
1.10395
1.32245
1.50611
1.56296
1.59855
1.59745
1.58999
1.58614
1.57902
1.57919
1.6054
1.67408
1.73118
1.76463
1.78652
1.79074
1.78623
1.77595
1.75801
1.73808
1.7279
1.72351
1.72129
1.7227
1.72264
1.7169
1.70796
1.70177
1.69706
1.69345
1.69514
1.70704
1.7146
1.71162
1.70069
1.68558
1.67751
1.67318
1.67152
1.67625
1.69098
1.69132
1.76655
2.01745
2.31417
2.5495
2.62495
2.66655
2.67663
2.66199
2.65713
2.64397
2.64056
2.63472
2.62594
2.61565
2.6024
2.58973
2.57581
2.55805
2.53663
2.51785
2.50825
2.50543
2.51022
2.51702
2.51704
2.51044
2.50189
2.49098
2.47802
2.4644
2.45388
2.44741
2.44209
2.43712
2.43161
2.42629
2.42108
2.4145
2.40711
2.39947
2.39169
2.38388
2.37711
2.37157
2.36686
2.36295
2.35947
2.35658
2.35338
2.34798
2.34043
2.32985
2.31626
2.30173
2.29065
2.28467
2.28104
2.27998
2.28002
2.27933
2.27633
2.27076
2.26254
2.25098
2.2384
2.2271
2.21777
2.21098
2.20688
2.20532
2.20367
2.1999
2.19326
2.18206
2.1581
1.00746
1.00768
1.0101
1.01161
1.01113
1.01018
1.00878
1.00632
1.00244
0.998723
1.0174
1.1292
1.32379
1.53131
1.58307
1.58613
1.58158
1.56765
1.55944
1.55988
1.56701
1.5942
1.66618
1.73943
1.76271
1.76876
1.77228
1.77419
1.77089
1.76299
1.74996
1.7348
1.72644
1.72213
1.71992
1.72092
1.72577
1.72589
1.71885
1.70615
1.69756
1.69364
1.69262
1.69858
1.71633
1.72822
1.72631
1.71627
1.70245
1.69492
1.68979
1.68821
1.69451
1.7083
1.7165
1.73606
1.88195
2.16788
2.45393
2.58724
2.67916
2.69573
2.70664
2.69759
2.68315
2.66617
2.65276
2.64681
2.63971
2.63403
2.62528
2.61195
2.59495
2.57657
2.56218
2.55296
2.54661
2.54516
2.54603
2.54338
2.5368
2.52983
2.52249
2.51215
2.49729
2.48293
2.47465
2.46856
2.46358
2.46014
2.45722
2.45266
2.4464
2.43943
2.43166
2.42302
2.41337
2.40342
2.39535
2.38892
2.38378
2.38063
2.37986
2.38152
2.38193
2.37716
2.36928
2.35725
2.34059
2.32456
2.31502
2.30951
2.306
2.30433
2.30176
2.29717
2.29061
2.28141
2.26983
2.25848
2.24954
2.24267
2.23811
2.23643
2.23566
2.23424
2.23117
2.22665
2.20782
1.00091
1.00217
1.00519
1.00606
1.00534
1.00419
1.00241
0.999959
0.996034
1.01736
1.14571
1.35794
1.50322
1.58448
1.58992
1.58453
1.56528
1.54908
1.54567
1.55189
1.57361
1.63802
1.73045
1.77924
1.78526
1.7726
1.7615
1.75624
1.75216
1.75286
1.75237
1.74449
1.73281
1.72584
1.72291
1.722
1.72392
1.72996
1.73347
1.72808
1.71557
1.7042
1.69904
1.69964
1.71198
1.7319
1.74313
1.7409
1.73148
1.72037
1.71378
1.70879
1.70664
1.71585
1.72549
1.73923
1.73389
1.79654
2.00366
2.27228
2.52771
2.6423
2.69214
2.73624
2.72546
2.7115
2.68794
2.67391
2.66894
2.66848
2.66861
2.66472
2.65466
2.64065
2.62312
2.60333
2.58906
2.58012
2.57634
2.57739
2.5744
2.56737
2.56065
2.55303
2.54136
2.52518
2.51074
2.50286
2.49706
2.49267
2.48968
2.48726
2.48387
2.47881
2.47256
2.46446
2.45342
2.4394
2.42575
2.41651
2.41105
2.40801
2.40845
2.41423
2.42107
2.42157
2.41642
2.40831
2.39485
2.37623
2.35834
2.34569
2.33804
2.3326
2.32827
2.3235
2.31775
2.31065
2.30253
2.29526
2.28909
2.28352
2.27921
2.27609
2.27281
2.26876
2.26419
2.25973
2.24647
0.994802
0.99654
0.998886
0.998617
0.997359
0.996159
0.995485
0.993559
1.02314
1.15763
1.40732
1.50719
1.54757
1.57255
1.5736
1.56944
1.55658
1.54023
1.53939
1.55484
1.60988
1.69078
1.76334
1.79372
1.79337
1.77938
1.75789
1.74928
1.74513
1.74523
1.75401
1.76048
1.75679
1.74787
1.73704
1.73019
1.7268
1.72849
1.73849
1.74788
1.74585
1.73706
1.72753
1.72145
1.71934
1.7286
1.74554
1.75478
1.75175
1.7432
1.73552
1.73041
1.72622
1.72599
1.73653
1.7491
1.75253
1.75095
1.76043
1.85222
2.07406
2.36093
2.55383
2.69459
2.71297
2.73596
2.72844
2.71449
2.70916
2.70001
2.69869
2.697
2.69415
2.68939
2.6759
2.65397
2.63184
2.61816
2.60971
2.60719
2.60831
2.60222
2.59461
2.58721
2.5784
2.56615
2.54926
2.53351
2.52535
2.51945
2.51526
2.51344
2.51326
2.51287
2.50967
2.50357
2.4945
2.48124
2.46513
2.45049
2.44079
2.43588
2.43417
2.43776
2.44402
2.44751
2.44622
2.44114
2.43346
2.42129
2.40497
2.38783
2.37291
2.36195
2.35504
2.3501
2.34619
2.34341
2.34103
2.33744
2.33266
2.32752
2.32186
2.31482
2.30698
2.29875
2.29095
2.28482
2.27414
0.988353
0.990391
0.991401
0.990322
0.989233
0.990458
0.990392
1.0288
1.17727
1.40868
1.54593
1.56608
1.56519
1.56207
1.55767
1.55237
1.54718
1.54425
1.55528
1.60093
1.67219
1.73219
1.77467
1.79164
1.79157
1.78346
1.76884
1.7539
1.74795
1.74613
1.75273
1.76766
1.77677
1.77378
1.76527
1.75344
1.74497
1.73982
1.74014
1.75321
1.7668
1.76627
1.75992
1.7516
1.74357
1.73883
1.74139
1.75455
1.7628
1.75951
1.7531
1.74821
1.74457
1.74226
1.74601
1.75848
1.76568
1.76067
1.76315
1.74925
1.77052
1.8948
2.12455
2.41421
2.60363
2.68765
2.74023
2.74403
2.74765
2.74093
2.73375
2.72437
2.71923
2.71646
2.70683
2.69154
2.6738
2.66114
2.65109
2.64276
2.64028
2.63631
2.62832
2.62049
2.61262
2.60306
2.58908
2.56959
2.55278
2.54392
2.53775
2.53423
2.53392
2.53559
2.53635
2.53418
2.5291
2.52212
2.5119
2.49876
2.48418
2.47097
2.46274
2.45861
2.45673
2.45699
2.45756
2.45713
2.45467
2.4494
2.44171
2.42998
2.4148
2.39827
2.38434
2.37633
2.37219
2.3705
2.37122
2.37205
2.3703
2.36509
2.35759
2.3479
2.33584
2.3233
2.31248
2.30526
2.29548
0.98407
0.986079
0.985802
0.984461
0.985836
0.98798
1.02924
1.20354
1.40821
1.5485
1.57317
1.56962
1.55987
1.55025
1.54456
1.54208
1.54654
1.56411
1.60601
1.68464
1.73802
1.76433
1.77636
1.7799
1.78271
1.78413
1.78196
1.77528
1.76703
1.76173
1.7592
1.76731
1.78555
1.79173
1.78717
1.77912
1.77047
1.76412
1.75988
1.76134
1.7756
1.78723
1.78439
1.77756
1.76819
1.75824
1.75249
1.75214
1.76256
1.77053
1.76783
1.7633
1.75996
1.75742
1.7565
1.76144
1.77048
1.77206
1.76817
1.76396
1.7658
1.75374
1.78595
1.92911
2.19863
2.4472
2.65255
2.71189
2.75194
2.76686
2.76384
2.76033
2.74939
2.7392
2.72624
2.71494
2.70604
2.69841
2.69024
2.68196
2.67637
2.6722
2.66377
2.65481
2.64631
2.63725
2.62523
2.60853
2.58957
2.57458
2.56545
2.55885
2.55457
2.55336
2.55372
2.55423
2.55467
2.55426
2.55072
2.54433
2.53389
2.51835
2.4994
2.48182
2.47019
2.46421
2.46115
2.4611
2.46373
2.46687
2.46703
2.46266
2.45546
2.44414
2.42844
2.41218
2.40158
2.39656
2.39371
2.39288
2.39233
2.38899
2.38182
2.37181
2.35992
2.34744
2.33635
2.32916
2.31859
0.982699
0.982544
0.981628
0.979968
0.984424
1.04255
1.21704
1.44861
1.52965
1.56031
1.56886
1.56691
1.56099
1.55022
1.54325
1.54315
1.55514
1.5973
1.67282
1.76519
1.797
1.79288
1.78073
1.77502
1.77513
1.78559
1.79628
1.79633
1.79062
1.78479
1.78034
1.78036
1.79276
1.80516
1.80375
1.79789
1.791
1.78484
1.78017
1.77795
1.78404
1.7985
1.80256
1.79774
1.79074
1.78099
1.77065
1.76475
1.76342
1.77191
1.77901
1.77669
1.7725
1.76856
1.76524
1.76356
1.76649
1.77324
1.77451
1.77289
1.7696
1.76902
1.76697
1.7642
1.81667
1.97902
2.25534
2.49946
2.66152
2.74653
2.75682
2.77579
2.78031
2.76987
2.75928
2.74266
2.7327
2.72597
2.71957
2.71388
2.70899
2.70576
2.69813
2.68881
2.67885
2.66818
2.65653
2.64384
2.62994
2.61493
2.60053
2.58955
2.58154
2.57496
2.57081
2.56981
2.57155
2.57528
2.57802
2.57555
2.56952
2.5593
2.54207
2.51921
2.49611
2.47872
2.46988
2.46612
2.46665
2.47277
2.48007
2.48469
2.48407
2.47936
2.47117
2.457
2.43765
2.42082
2.41113
2.4052
2.40086
2.39806
2.39431
2.38795
2.37974
2.37067
2.36191
2.35582
2.34486
0.980251
0.979104
0.977037
0.984006
1.04849
1.24439
1.47697
1.53388
1.55596
1.57028
1.57682
1.57262
1.56556
1.555
1.5461
1.55007
1.57916
1.64386
1.7346
1.81291
1.82685
1.8189
1.80414
1.79374
1.78887
1.79144
1.80157
1.80726
1.80691
1.80406
1.802
1.80288
1.80962
1.81682
1.8165
1.81207
1.80617
1.80017
1.79554
1.79316
1.79576
1.80579
1.81406
1.81398
1.80968
1.80341
1.79387
1.78333
1.77721
1.77487
1.7811
1.78657
1.78318
1.77792
1.77265
1.76854
1.76594
1.76759
1.77413
1.77816
1.77948
1.77996
1.77642
1.77669
1.7645
1.77139
1.8379
2.01519
2.26799
2.52709
2.66388
2.75084
2.77121
2.78089
2.78528
2.77763
2.77083
2.75776
2.74493
2.73959
2.73437
2.73058
2.7263
2.71873
2.70919
2.69716
2.68503
2.67455
2.66509
2.65496
2.64252
2.62878
2.61581
2.60439
2.59511
2.58862
2.58554
2.58666
2.59006
2.59103
2.58815
2.58238
2.57299
2.55833
2.5385
2.51589
2.49569
2.48356
2.47897
2.47812
2.4841
2.49339
2.49887
2.49879
2.49455
2.48711
2.473
2.45302
2.43301
2.41783
2.40858
2.40308
2.4008
2.40211
2.39918
2.39335
2.38764
2.38341
2.37234
0.977757
0.975959
0.985195
1.05624
1.2604
1.45923
1.56537
1.59261
1.58686
1.58256
1.57757
1.57132
1.56557
1.55933
1.56186
1.58088
1.63555
1.71019
1.78431
1.83232
1.84495
1.84056
1.83274
1.82465
1.81632
1.81066
1.80865
1.81325
1.81909
1.82179
1.82362
1.82546
1.82626
1.8248
1.82159
1.81885
1.81595
1.81205
1.80907
1.80829
1.81065
1.81545
1.82015
1.82358
1.82392
1.82054
1.81478
1.80566
1.79589
1.79007
1.78746
1.79156
1.79309
1.78845
1.78218
1.77618
1.77211
1.77001
1.77223
1.77734
1.78156
1.784
1.78369
1.78177
1.77803
1.77803
1.76991
1.78095
1.85078
2.03279
2.28432
2.52734
2.67842
2.73186
2.77613
2.7842
2.79549
2.79077
2.77807
2.76919
2.76064
2.75287
2.74646
2.73865
2.72967
2.71953
2.70921
2.70025
2.69298
2.68608
2.67797
2.66771
2.65545
2.64207
2.62778
2.61388
2.60359
2.59735
2.59379
2.59283
2.59231
2.59116
2.58854
2.58331
2.57505
2.56152
2.54298
2.5218
2.5038
2.49478
2.49123
2.49246
2.49853
2.50182
2.50075
2.49674
2.49043
2.47988
2.46393
2.44413
2.42734
2.41856
2.41435
2.41487
2.41823
2.41613
2.41239
2.40873
2.39753
0.976431
0.989617
1.07688
1.27411
1.47763
1.57944
1.60561
1.60428
1.59591
1.58186
1.57065
1.56553
1.56346
1.56964
1.59181
1.64079
1.71767
1.7851
1.82718
1.84171
1.85013
1.85491
1.85472
1.84944
1.84138
1.83352
1.82838
1.82911
1.83747
1.84331
1.84477
1.84289
1.83677
1.82995
1.82397
1.82084
1.82112
1.82213
1.82259
1.82389
1.82573
1.82637
1.82624
1.82701
1.82941
1.83069
1.82873
1.82443
1.81748
1.8101
1.80542
1.80332
1.80431
1.80088
1.79503
1.788
1.78185
1.77749
1.77468
1.77422
1.77579
1.77876
1.781
1.78166
1.78174
1.7832
1.78505
1.78784
1.77895
1.78985
1.85997
2.0207
2.2806
2.4904
2.67094
2.73575
2.77152
2.8001
2.80245
2.80227
2.79677
2.78624
2.77255
2.75807
2.74338
2.7323
2.72337
2.71692
2.71161
2.70649
2.7031
2.69869
2.69014
2.67989
2.66744
2.65162
2.6316
2.61125
2.59901
2.59316
2.58966
2.58921
2.59236
2.59648
2.59707
2.5925
2.58473
2.57157
2.5524
2.52871
2.50799
2.49838
2.49401
2.4926
2.49476
2.49577
2.49472
2.49156
2.48654
2.47661
2.46216
2.45097
2.44438
2.44171
2.44294
2.44041
2.4356
2.4306
2.41688
0.995321
1.09322
1.31639
1.4987
1.60281
1.61173
1.60408
1.59582
1.58979
1.58361
1.57485
1.57077
1.57207
1.59036
1.63716
1.71349
1.80212
1.84392
1.8544
1.85501
1.85776
1.86235
1.8642
1.86298
1.85941
1.85511
1.85349
1.85776
1.86564
1.86664
1.86109
1.85325
1.84363
1.83502
1.82863
1.82553
1.82838
1.83354
1.83601
1.83702
1.83678
1.83467
1.83184
1.82981
1.83011
1.83315
1.83559
1.83665
1.83513
1.83048
1.82588
1.82225
1.81968
1.81536
1.8097
1.80272
1.7944
1.78652
1.78031
1.77581
1.77306
1.77274
1.77479
1.77737
1.78065
1.78663
1.79207
1.79348
1.79069
1.79132
1.7785
1.78407
1.84474
1.99373
2.22724
2.4737
2.62715
2.75494
2.77725
2.80547
2.82792
2.82365
2.81306
2.79343
2.76836
2.749
2.73308
2.7241
2.71949
2.71594
2.71518
2.71887
2.71872
2.711
2.70183
2.69012
2.67195
2.64512
2.61705
2.59987
2.59266
2.58897
2.5894
2.5957
2.60437
2.61058
2.60961
2.60399
2.59461
2.57789
2.5522
2.52269
2.50163
2.4926
2.48814
2.48753
2.49168
2.49627
2.49877
2.49813
2.49559
2.49347
2.49052
2.48538
2.47846
2.47018
2.46093
2.45124
2.42891
1.1118
1.33445
1.54564
1.60561
1.61174
1.60819
1.60563
1.60184
1.59864
1.59709
1.59311
1.59308
1.60234
1.63616
1.70623
1.79218
1.85838
1.88308
1.88321
1.87835
1.87294
1.86712
1.86384
1.86447
1.86943
1.87695
1.88504
1.89154
1.89011
1.88348
1.87459
1.86286
1.85181
1.84427
1.83946
1.83938
1.84467
1.84771
1.84677
1.84438
1.84194
1.83926
1.83605
1.83337
1.83271
1.83538
1.83929
1.84248
1.84514
1.84472
1.84183
1.83849
1.83389
1.82892
1.82354
1.81703
1.80907
1.79992
1.79085
1.78342
1.77819
1.77432
1.77259
1.7739
1.77814
1.7841
1.78963
1.79255
1.79262
1.79149
1.78908
1.78898
1.77379
1.775
1.81971
1.96738
2.18454
2.4466
2.62712
2.74148
2.7993
2.8207
2.83549
2.82966
2.81276
2.78754
2.76138
2.74171
2.72862
2.72139
2.71831
2.72362
2.73638
2.7384
2.73071
2.72096
2.70824
2.68838
2.65959
2.62883
2.60811
2.59931
2.59524
2.59456
2.60141
2.61342
2.62118
2.62138
2.61658
2.60922
2.5953
2.57133
2.54122
2.51471
2.49926
2.49334
2.4911
2.49426
2.50125
2.50863
2.51754
2.52709
2.53113
2.52721
2.51907
2.50782
2.49323
2.47588
2.44077
1.37359
1.55176
1.60547
1.62982
1.63894
1.63547
1.62857
1.61918
1.61204
1.60626
1.60525
1.61498
1.64673
1.71293
1.79791
1.86533
1.90493
1.90982
1.901
1.89154
1.88256
1.87318
1.86719
1.86796
1.87999
1.89813
1.91015
1.90911
1.90268
1.8947
1.88503
1.87556
1.868
1.86316
1.86107
1.86253
1.86402
1.86001
1.85448
1.84962
1.84571
1.84312
1.84194
1.84184
1.84311
1.84517
1.84707
1.84825
1.84887
1.84878
1.84737
1.84632
1.84392
1.83943
1.83481
1.82928
1.82287
1.81551
1.80715
1.79849
1.78984
1.78217
1.77729
1.77434
1.77411
1.77783
1.78328