/*--------------------------------*- C++ -*----------------------------------*\
  =========                 |
  \\      /  F ield         | OpenFOAM: The Open Source CFD Toolbox
   \\    /   O peration     | Website:  https://openfoam.org
    \\  /    A nd           | Version:  7
     \\/     M anipulation  |
\*---------------------------------------------------------------------------*/
FoamFile
{
    version     2.0;
    format      ascii;
    class       volScalarField;
    location    "0.8";
    object      T;
}
// * * * * * * * * * * * * * * * * * * * * * * * * * * * * * * * * * * * * * //

dimensions      [0 0 0 1 0 0 0];

internalField   nonuniform List<scalar> 
16512
(
1.68657
1.67762
1.66932
1.6626
1.65629
1.64977
1.64542
1.64525
1.64757
1.65125
1.65219
1.65173
1.65019
1.64742
1.64265
1.63468
1.62286
1.61088
1.6057
1.60526
1.60649
1.61209
1.61644
1.6163
1.61599
1.61406
1.60645
1.59053
1.57563
1.57104
1.57055
1.57118
1.57564
1.58044
1.58029
1.5791
1.57742
1.57421
1.56647
1.55186
1.53905
1.53516
1.53479
1.53687
1.53745
1.53885
1.54128
1.54264
1.54281
1.54231
1.53887
1.53068
1.52039
1.51133
1.50664
1.50569
1.50602
1.5069
1.50664
1.50504
1.50205
1.49606
1.48512
1.47379
1.46934
1.46874
1.46874
1.46954
1.47133
1.47128
1.47105
1.47163
1.47282
1.4736
1.47205
1.46505
1.45412
1.44722
1.44423
1.44182
1.4388
1.43579
1.43373
1.43336
1.43334
1.43183
1.42905
1.42447
1.41611
1.4049
1.3974
1.3951
1.39487
1.3955
1.39637
1.39883
1.40374
1.40928
1.41142
1.41061
1.40874
1.40372
1.39184
1.3724
1.35883
1.35413
1.35255
1.35342
1.35963
1.36835
1.37061
1.37048
1.37061
1.36998
1.36529
1.35283
1.33631
1.32871
1.32787
1.32816
1.33289
1.3446
1.35425
1.35527
1.35366
1.34919
1.33831
1.31964
1.30341
1.29898
1.29883
1.30151
1.31108
1.32103
1.32253
1.32131
1.3178
1.30764
1.28769
1.27063
1.26688
1.26682
1.26793
1.27507
1.29077
1.30408
1.30631
1.30571
1.30465
1.30192
1.29401
1.27717
1.26022
1.25507
1.25438
1.25506
1.26059
1.26961
1.27221
1.27091
1.26862
1.2653
1.25767
1.24489
1.23793
1.2374
1.23735
1.23915
1.24593
1.25273
1.25337
1.25164
1.24861
1.24251
1.23059
1.21835
1.21473
1.21436
1.2151
1.2198
1.22613
1.22704
1.22648
1.22587
1.22441
1.21902
1.20912
1.20421
1.20407
1.20409
1.20465
1.20667
1.20694
1.20633
1.20572
1.20509
1.20411
1.20263
1.19987
1.19576
1.19416
1.19466
1.19683
1.20121
1.20831
1.21935
1.23231
1.24234
1.24407
1.24453
1.24498
1.2445
1.2414
1.23661
1.23288
1.2315
1.2314
1.23172
1.23426
1.23936
1.24872
1.25987
1.2644
1.26448
1.26381
1.26241
1.25989
1.25662
1.25288
1.24797
1.24057
1.23306
1.23039
1.23054
1.23127
1.23196
1.23228
1.23228
1.23216
1.23135
1.2316
1.23344
1.23589
1.23695
1.23685
1.23627
1.23546
1.23471
1.23358
1.23114
1.22847
1.2276
1.22756
1.22763
1.22843
1.23047
1.23293
1.23475
1.67402
1.66595
1.66033
1.65591
1.65162
1.64833
1.64808
1.64986
1.65286
1.65358
1.65259
1.65032
1.64763
1.64376
1.63714
1.62639
1.61407
1.60772
1.60671
1.60743
1.61152
1.61582
1.61653
1.61657
1.61538
1.60895
1.59383
1.57745
1.57202
1.57139
1.57191
1.57616
1.58193
1.58216
1.58153
1.58064
1.57831
1.57222
1.55873
1.54406
1.53821
1.53727
1.53905
1.53977
1.53989
1.54122
1.54251
1.54284
1.54243
1.53887
1.53041
1.51958
1.5112
1.50778
1.50749
1.50826
1.51001
1.51008
1.50889
1.50633
1.50043
1.48888
1.47607
1.47048
1.46942
1.46917
1.47008
1.47289
1.474
1.47324
1.4734
1.47424
1.47484
1.47282
1.46516
1.45381
1.44713
1.44467
1.4431
1.44109
1.43904
1.43798
1.43802
1.43779
1.43577
1.43286
1.42754
1.41754
1.40426
1.39625
1.39425
1.39435
1.39529
1.39725
1.40138
1.40709
1.41214
1.41345
1.41262
1.41076
1.40558
1.39367
1.37494
1.36237
1.35787
1.35622
1.35686
1.36224
1.37009
1.37207
1.37164
1.37149
1.3708
1.36688
1.35584
1.33942
1.33059
1.32931
1.32943
1.33336
1.3446
1.35497
1.35658
1.35542
1.35177
1.34176
1.32381
1.3064
1.30064
1.30028
1.30228
1.31084
1.32148
1.3241
1.32321
1.32059
1.31241
1.29464
1.27505
1.26854
1.26817
1.26868
1.27393
1.28801
1.30273
1.30625
1.30574
1.30482
1.30278
1.29642
1.28165
1.26381
1.25739
1.2567
1.2571
1.26158
1.27038
1.27409
1.2729
1.27006
1.2666
1.26014
1.24814
1.23883
1.2375
1.23749
1.23865
1.24463
1.25298
1.25522
1.25405
1.25155
1.24631
1.23509
1.2208
1.21495
1.21433
1.21468
1.21836
1.226
1.22915
1.22869
1.22792
1.22651
1.22198
1.21193
1.20373
1.20256
1.20248
1.20268
1.20471
1.2075
1.20746
1.20692
1.20636
1.20563
1.2044
1.20171
1.19564
1.19087
1.19028
1.19048
1.19219
1.19645
1.2018
1.20838
1.21848
1.22513
1.22551
1.22573
1.22587
1.22324
1.21924
1.21785
1.21806
1.21879
1.21986
1.22443
1.23354
1.24736
1.25952
1.26282
1.26282
1.26145
1.2585
1.25567
1.25294
1.24949
1.24457
1.23786
1.23094
1.22711
1.22654
1.22639
1.22593
1.22562
1.22546
1.22509
1.22488
1.22594
1.22821
1.23197
1.23546
1.2367
1.23679
1.23654
1.2357
1.23325
1.2285
1.22351
1.2208
1.22038
1.22051
1.22162
1.22318
1.22536
1.22765
1.22853
1.663
1.65814
1.65452
1.65236
1.65165
1.65211
1.6536
1.65466
1.65468
1.65208
1.64852
1.64638
1.64409
1.63979
1.631
1.61851
1.61041
1.60868
1.60889
1.61111
1.61426
1.61613
1.61659
1.6161
1.61168
1.59865
1.58063
1.57296
1.57204
1.57235
1.57555
1.58109
1.58348
1.58324
1.58301
1.58181
1.57775
1.56634
1.5505
1.5423
1.54058
1.54139
1.54286
1.54197
1.54224
1.54271
1.54279
1.5422
1.53818
1.52932
1.5181
1.51017
1.50778
1.508
1.50953
1.51242
1.51299
1.51218
1.51027
1.50487
1.49312
1.47915
1.47249
1.47097
1.47054
1.47155
1.47489
1.47683
1.47574
1.4754
1.47581
1.47596
1.47316
1.46453
1.45297
1.44704
1.4451
1.44405
1.44291
1.44186
1.44167
1.44192
1.44137
1.43939
1.43658
1.43099
1.42004
1.40531
1.39644
1.39442
1.39448
1.39552
1.39882
1.40458
1.41096
1.4149
1.4153
1.41429
1.41225
1.40664
1.39433
1.37646
1.36563
1.36173
1.36019
1.36078
1.36565
1.37222
1.37356
1.37275
1.37226
1.37149
1.36836
1.35908
1.34354
1.33329
1.33125
1.33123
1.33434
1.34478
1.3555
1.35756
1.35672
1.35377
1.34458
1.32732
1.30932
1.30243
1.30178
1.30322
1.31085
1.32168
1.32528
1.32472
1.32288
1.31656
1.30139
1.28077
1.271
1.27001
1.27009
1.27365
1.28557
1.30096
1.30605
1.30561
1.30461
1.3029
1.2978
1.28515
1.26717
1.25946
1.25877
1.25906
1.26285
1.27119
1.27589
1.27518
1.27202
1.26824
1.26251
1.25188
1.24062
1.2377
1.23769
1.23837
1.24326
1.25237
1.25659
1.25596
1.25409
1.24985
1.23968
1.22414
1.21549
1.21426
1.21433
1.2169
1.22462
1.23074
1.2309
1.23033
1.22917
1.22567
1.2162
1.20487
1.20132
1.20091
1.20086
1.20214
1.20631
1.20823
1.20794
1.20769
1.20737
1.20664
1.20471
1.1988
1.19058
1.18755
1.18743
1.18771
1.18966
1.19432
1.19977
1.2023
1.20467
1.2054
1.20487
1.20376
1.199
1.19377
1.19421
1.19707
1.20043
1.20434
1.21174
1.2235
1.24175
1.25556
1.2578
1.25784
1.25715
1.25504
1.25183
1.24844
1.24503
1.24069
1.23478
1.22861
1.22435
1.22198
1.22066
1.21989
1.21919
1.21861
1.21848
1.21889
1.22035
1.22323
1.22871
1.23476
1.23764
1.23802
1.23784
1.23689
1.23366
1.22756
1.22052
1.21588
1.21455
1.21428
1.21485
1.21669
1.21867
1.22064
1.22185
1.22213
1.65678
1.65421
1.65336
1.65407
1.65647
1.65848
1.65761
1.6549
1.64946
1.64482
1.64341
1.64282
1.64126
1.63595
1.62478
1.61393
1.61079
1.61058
1.6112
1.61255
1.6147
1.61599
1.61598
1.61381
1.60406
1.586
1.57447
1.57275
1.57261
1.57536
1.57883
1.58232
1.58443
1.58454
1.58422
1.58201
1.57352
1.55789
1.54716
1.54451
1.54435
1.5459
1.54503
1.544
1.54371
1.54324
1.54209
1.53773
1.52847
1.5168
1.50924
1.50722
1.50765
1.50978
1.51392
1.5153
1.51465
1.51336
1.50863
1.49701
1.48236
1.47497
1.47316
1.4727
1.47388
1.47753
1.48004
1.47902
1.47753
1.47739
1.47692
1.47321
1.46366
1.45207
1.44679
1.44552
1.44495
1.44444
1.44428
1.44457
1.44478
1.44411
1.44256
1.44003
1.4345
1.42329
1.4078
1.39795
1.3955
1.39546
1.39661
1.40116
1.40839
1.41512
1.41781
1.41716
1.41567
1.41296
1.40662
1.39378
1.37716
1.36837
1.3654
1.36423
1.36497
1.36947
1.37463
1.37514
1.37376
1.37294
1.37208
1.36965
1.36227
1.34835
1.33682
1.33382
1.33371
1.33603
1.34536
1.35606
1.35841
1.35775
1.35523
1.34669
1.33013
1.31209
1.3044
1.30342
1.30438
1.31111
1.3218
1.32615
1.32585
1.32459
1.31995
1.30746
1.28742
1.27452
1.27225
1.27215
1.2743
1.28383
1.29901
1.30583
1.30554
1.30432
1.3026
1.29838
1.28774
1.27027
1.26131
1.26046
1.26077
1.26407
1.27193
1.27743
1.2773
1.27426
1.27022
1.26498
1.25578
1.24355
1.23835
1.23811
1.23843
1.24211
1.2511
1.25742
1.2574
1.25613
1.25292
1.24409
1.22829
1.21664
1.2142
1.21409
1.21561
1.22233
1.23106
1.23301
1.2326
1.23188
1.22954
1.22151
1.20812
1.20097
1.19986
1.19947
1.19999
1.2038
1.20823
1.20847
1.20839
1.20837
1.20812
1.20688
1.20187
1.19271
1.18709
1.18647
1.18643
1.18746
1.19123
1.19656
1.19931
1.19946
1.19772
1.19489
1.19112
1.18348
1.17425
1.17287
1.17519
1.17967
1.18665
1.19698
1.20976
1.22833
1.24621
1.25066
1.25074
1.25081
1.2504
1.24768
1.2433
1.23883
1.23446
1.22974
1.2249
1.22092
1.21778
1.21536
1.21385
1.21273
1.21208
1.21219
1.21321
1.21527
1.21948
1.22717
1.23574
1.23948
1.23975
1.23932
1.23784
1.23384
1.22698
1.21821
1.21198
1.20984
1.20921
1.20967
1.21122
1.21284
1.21435
1.21536
1.21552
1.21348
1.65493
1.65515
1.6572
1.66093
1.66319
1.66164
1.65566
1.64592
1.64
1.6394
1.64026
1.64045
1.63882
1.63128
1.61935
1.61368
1.61214
1.61179
1.61194
1.61302
1.61468
1.61522
1.6145
1.6087
1.59316
1.57769
1.57363
1.57311
1.57509
1.57815
1.57961
1.583
1.58539
1.58552
1.58477
1.5794
1.56542
1.55251
1.54866
1.54776
1.54861
1.54843
1.54668
1.54556
1.54443
1.54275
1.53828
1.52885
1.51648
1.50911
1.50713
1.50739
1.5096
1.51455
1.517
1.51651
1.51558
1.5113
1.49987
1.48509
1.47732
1.47545
1.47502
1.47662
1.48084
1.48362
1.48272
1.48038
1.47924
1.47787
1.47326
1.46281
1.45139
1.44673
1.44588
1.44568
1.44574
1.4462
1.44687
1.44664
1.44616
1.44519
1.44312
1.43795
1.4269
1.4112
1.40052
1.39743
1.39727
1.39873
1.40418
1.41255
1.41926
1.42079
1.41936
1.41695
1.41277
1.40527
1.39209
1.3772
1.37049
1.36854
1.36795
1.36909
1.37347
1.37717
1.37678
1.37484
1.37367
1.3727
1.37078
1.36508
1.3533
1.34132
1.33713
1.33685
1.33855
1.34658
1.35689
1.35947
1.35883
1.35635
1.34811
1.33205
1.31438
1.30645
1.30512
1.30572
1.31166
1.32208
1.32677
1.32664
1.32588
1.32265
1.31257
1.29428
1.27896
1.2749
1.27466
1.27585
1.28305
1.29714
1.30561
1.30574
1.30423
1.30224
1.29847
1.28952
1.27318
1.26294
1.26176
1.26223
1.26514
1.27247
1.27861
1.27902
1.27643
1.27238
1.26756
1.25963
1.24751
1.23976
1.23886
1.23889
1.24141
1.24953
1.25762
1.25854
1.25767
1.25542
1.24809
1.23294
1.21866
1.21444
1.21402
1.21475
1.21984
1.22977
1.23464
1.23461
1.23427
1.23299
1.22688
1.21326
1.20205
1.19943
1.19866
1.19863
1.20134
1.20722
1.2091
1.20886
1.20892
1.20888
1.20815
1.20397
1.19474
1.18743
1.18628
1.18628
1.18707
1.19066
1.19663
1.19978
1.19941
1.19747
1.19433
1.18932
1.1802
1.16798
1.16312
1.16352
1.16611
1.1722
1.18138
1.19401
1.21111
1.22927
1.23976
1.24129
1.24173
1.24171
1.23913
1.23436
1.22958
1.22561
1.22243
1.21963
1.21694
1.21407
1.21099
1.2082
1.20613
1.20528
1.20544
1.20685
1.21014
1.21676
1.22762
1.23778
1.24109
1.24106
1.24001
1.23751
1.23302
1.22594
1.21653
1.20984
1.20727
1.20608
1.20625
1.20775
1.20872
1.20925
1.20963
1.20957
1.2071
1.20272
1.6564
1.6613
1.66626
1.6674
1.66586
1.65815
1.64488
1.63617
1.63502
1.63671
1.63874
1.63882
1.636
1.62595
1.61747
1.61437
1.61289
1.61233
1.61248
1.61328
1.61428
1.61427
1.61174
1.60055
1.58327
1.57535
1.57421
1.57447
1.5776
1.5786
1.58027
1.58382
1.58576
1.58579
1.58332
1.57222
1.55778
1.55258
1.55132
1.55127
1.55155
1.54993
1.54826
1.54656
1.54433
1.54002
1.53077
1.51767
1.50967
1.50772
1.50778
1.50989
1.5148
1.51817
1.51802
1.51738
1.51314
1.50166
1.487
1.47927
1.4775
1.47726
1.47928
1.4841
1.4873
1.48664
1.48374
1.48151
1.47916
1.47369
1.46237
1.45101
1.44696
1.44645
1.4464
1.44682
1.44751
1.44833
1.448
1.44773
1.44723
1.44578
1.44131
1.43074
1.41512
1.40382
1.40005
1.39972
1.40142
1.40765
1.41693
1.42312
1.42374
1.42185
1.41841
1.41231
1.40311
1.38946
1.37681
1.37193
1.37104
1.37101
1.37279
1.37707
1.37969
1.37857
1.37611
1.37449
1.37337
1.37178
1.36747
1.35797
1.34646
1.34112
1.34063
1.34189
1.34863
1.35818
1.36093
1.36025
1.35752
1.34919
1.33328
1.31618
1.30845
1.30684
1.30719
1.31243
1.3225
1.32732
1.32728
1.32693
1.32473
1.31673
1.30071
1.2841
1.27796
1.27744
1.27805
1.28333
1.29576
1.30545
1.30623
1.30458
1.30212
1.29842
1.29071
1.27571
1.26429
1.26267
1.26331
1.26601
1.27277
1.27927
1.28021
1.27824
1.27458
1.27017
1.26334
1.25219
1.24228
1.23992
1.2398
1.24127
1.24803
1.25718
1.25945
1.25879
1.25725
1.25149
1.23769
1.22153
1.2152
1.21425
1.21443
1.21776
1.22729
1.23542
1.23633
1.23624
1.23576
1.23163
1.21923
1.20465
1.1996
1.19839
1.19796
1.19954
1.20561
1.20985
1.20974
1.20951
1.20939
1.20887
1.20543
1.1965
1.18763
1.18566
1.18577
1.18658
1.19003
1.19664
1.20131
1.20138
1.19969
1.19678
1.19223
1.18326
1.16867
1.15975
1.15909
1.15946
1.16187
1.1684
1.18043
1.19643
1.21174
1.22233
1.22538
1.22567
1.22432
1.21954
1.21511
1.21339
1.21263
1.21168
1.21096
1.21022
1.20883
1.20607
1.2023
1.19889
1.19741
1.19747
1.19917
1.20428
1.21425
1.22886
1.23912
1.24107
1.24077
1.23904
1.23558
1.23091
1.22391
1.21398
1.20674
1.20449
1.20388
1.20433
1.20625
1.20655
1.20573
1.20508
1.2045
1.20206
1.19794
1.19706
1.66405
1.66998
1.67175
1.6701
1.66177
1.64645
1.63464
1.632
1.63312
1.63618
1.6376
1.63724
1.63286
1.62276
1.61667
1.61432
1.61324
1.61284
1.61294
1.61355
1.6139
1.61305
1.60654
1.5908
1.57848
1.57617
1.57549
1.57645
1.57837
1.57906
1.5811
1.58399
1.58541
1.58481
1.57761
1.56266
1.55523
1.5542
1.55379
1.55408
1.55331
1.55158
1.54954
1.54691
1.54278
1.53417
1.52068
1.51114
1.50877
1.50877
1.51093
1.51523
1.5189
1.5193
1.51887
1.51467
1.50302
1.48828
1.48071
1.47924
1.47922
1.48195
1.48713
1.49051
1.49021
1.48738
1.48437
1.48097
1.47447
1.46256
1.45126
1.44748
1.44715
1.44731
1.44787
1.44841
1.44904
1.44903
1.44893
1.44881
1.44804
1.44445
1.43468
1.41939
1.40762
1.4032
1.40267
1.40443
1.41119
1.42107
1.42676
1.42672
1.42468
1.42021
1.41221
1.40085
1.38652
1.37619
1.3729
1.37271
1.37344
1.37613
1.38014
1.38199
1.38059
1.37781
1.3756
1.37409
1.37251
1.36927
1.36186
1.35153
1.34559
1.34491
1.34587
1.35158
1.36013
1.36276
1.36203
1.35898
1.35028
1.33422
1.31772
1.31029
1.30849
1.30867
1.31338
1.32291
1.3279
1.32803
1.32794
1.32644
1.32008
1.30624
1.2895
1.28141
1.28047
1.28067
1.28446
1.29512
1.30546
1.30709
1.30544
1.30248
1.29859
1.29163
1.27811
1.2657
1.26334
1.26405
1.26663
1.27287
1.2794
1.2808
1.27951
1.27663
1.27272
1.26691
1.2571
1.246
1.24155
1.24112
1.24185
1.24692
1.25624
1.26008
1.25965
1.25852
1.25413
1.24215
1.22501
1.21655
1.21489
1.21469
1.21657
1.22444
1.23484
1.23796
1.23796
1.2379
1.23543
1.225
1.20844
1.2004
1.19858
1.19777
1.19859
1.20387
1.21034
1.21109
1.21051
1.21008
1.20948
1.20665
1.19827
1.18788
1.18464
1.1847
1.18544
1.18851
1.1953
1.20202
1.20326
1.20232
1.20007
1.19626
1.18824
1.1738
1.16012
1.1569
1.15673
1.15713
1.16098
1.17141
1.18688
1.19971
1.20606
1.2073
1.20584
1.20021
1.19118
1.18746
1.18856
1.19186
1.19682
1.19867
1.19858
1.19834
1.19689
1.19306
1.18911
1.18745
1.18739
1.18888
1.19539
1.20907
1.22741
1.23678
1.23794
1.23776
1.23594
1.2325
1.22782
1.22048
1.20991
1.2024
1.20091
1.20108
1.20278
1.20576
1.20603
1.20412
1.20172
1.20002
1.19729
1.19382
1.193
1.19394
1.67181
1.67461
1.67386
1.66628
1.64918
1.63524
1.63108
1.63113
1.63321
1.63645
1.63699
1.63592
1.63017
1.62049
1.61532
1.61422
1.61376
1.61351
1.61362
1.61396
1.61372
1.61064
1.59864
1.58345
1.57869
1.57764
1.57724
1.57796
1.57897
1.57993
1.5815
1.58344
1.58398
1.58042
1.56735
1.55678
1.55568
1.55545
1.55564
1.55575
1.55486
1.553
1.55027
1.54636
1.53866
1.52564
1.51414
1.51063
1.51042
1.51268
1.51623
1.5193
1.52033
1.52003
1.51604
1.50443
1.48946
1.48189
1.48065
1.4809
1.48442
1.49016
1.49332
1.49323
1.49088
1.48768
1.48356
1.47586
1.46311
1.45196
1.44835
1.44803
1.44829
1.44901
1.44936
1.44954
1.44968
1.44985
1.45
1.44977
1.4472
1.43845
1.42375
1.41177
1.40681
1.40593
1.40759
1.41466
1.42478
1.42985
1.42958
1.42772
1.42251
1.4127
1.39897
1.38425
1.3759
1.3737
1.37389
1.37538
1.37914
1.38301
1.38423
1.3828
1.38001
1.37718
1.37494
1.37297
1.3702
1.36457
1.35607
1.3501
1.34935
1.35021
1.35532
1.36283
1.36496
1.36414
1.3607
1.35148
1.33513
1.31927
1.31206
1.31008
1.31014
1.31447
1.32356
1.32852
1.32902
1.32908
1.3281
1.32287
1.3107
1.29451
1.28518
1.28366
1.28363
1.28639
1.29542
1.30565
1.30807
1.30665
1.30346
1.29933
1.29276
1.28053
1.26729
1.26388
1.26451
1.26686
1.27262
1.27914
1.28092
1.28011
1.27823
1.27512
1.2703
1.26186
1.25062
1.24396
1.24295
1.24317
1.24656
1.25508
1.26042
1.26028
1.25938
1.25597
1.24592
1.22894
1.21849
1.21595
1.21536
1.21631
1.22224
1.23316
1.2389
1.23947
1.23959
1.23826
1.23009
1.21309
1.20188
1.19912
1.19798
1.19827
1.20251
1.21034
1.21272
1.21203
1.21111
1.21029
1.20789
1.20031
1.18867
1.18356
1.18342
1.1839
1.18637
1.19284
1.20128
1.20457
1.20421
1.20276
1.19991
1.19327
1.18
1.16395
1.15727
1.15655
1.15654
1.15915
1.16838
1.18296
1.19314
1.19601
1.19589
1.19318
1.18525
1.17345
1.1687
1.16889
1.17143
1.1779
1.18325
1.18371
1.18338
1.18187
1.17769
1.17436
1.17388
1.17436
1.17692
1.18472
1.19963
1.22058
1.23091
1.2318
1.23154
1.23071
1.22852
1.22365
1.215
1.20312
1.19562
1.19465
1.19623
1.20047
1.2046
1.20493
1.20303
1.19971
1.19714
1.1941
1.19023
1.18881
1.18961
1.19317
1.67579
1.67621
1.67065
1.65336
1.63597
1.63081
1.63061
1.63159
1.63507
1.63729
1.63714
1.63476
1.62685
1.61731
1.61477
1.61461
1.6146
1.61448
1.61457
1.6145
1.61297
1.60503
1.5899
1.58141
1.58014
1.57941
1.57897
1.57924
1.58008
1.58047
1.58121
1.58196
1.5807
1.57124
1.55818
1.55573
1.55582
1.55631
1.55698
1.55674
1.55577
1.55369
1.55027
1.54399
1.53189
1.51882
1.51363
1.51303
1.51484
1.51785
1.52
1.52126
1.52106
1.51727
1.50591
1.49081
1.48298
1.48175
1.48216
1.48642
1.49301
1.49592
1.49577
1.49415
1.49111
1.48667
1.4783
1.46441
1.45272
1.44928
1.44892
1.44922
1.45012
1.4505
1.4503
1.45026
1.45049
1.45101
1.45111
1.44944
1.44182
1.42785
1.41595
1.41078
1.40949
1.41091
1.41795
1.42795
1.43236
1.43215
1.43066
1.42516
1.41397
1.39812
1.38334
1.3764
1.3747
1.37499
1.37729
1.38216
1.3861
1.38673
1.38541
1.38268
1.37905
1.37587
1.37331
1.37051
1.36607
1.35936
1.35413
1.35351
1.3545
1.35952
1.36607
1.36757
1.36656
1.36261
1.35271
1.33604
1.32103
1.31401
1.31176
1.31169
1.31564
1.3245
1.32955
1.33026
1.33052
1.32984
1.32525
1.31413
1.29888
1.28905
1.2869
1.28681
1.28879
1.29663
1.30634
1.30908
1.30792
1.30491
1.30075
1.2944
1.28326
1.2694
1.26446
1.2648
1.26674
1.27197
1.27846
1.28052
1.28007
1.27919
1.27713
1.27341
1.26632
1.25564
1.24728
1.24527
1.24515
1.24712
1.25411
1.26048
1.26079
1.26004
1.25722
1.24885
1.23285
1.22082
1.21737
1.21639
1.21673
1.22104
1.23135
1.23911
1.24054
1.24088
1.24027
1.23421
1.21802
1.20396
1.19999
1.19861
1.19852
1.20176
1.21007
1.21443
1.21392
1.21259
1.21138
1.20928
1.20266
1.19047
1.18284
1.18215
1.18242
1.1841
1.18975
1.19919
1.2051
1.20544
1.20463
1.20267
1.19743
1.18561
1.16887
1.15971
1.15827
1.15813
1.16025
1.16903
1.18322
1.19149
1.19245
1.19171
1.18884
1.18089
1.16843
1.1631
1.16303
1.16417
1.16632
1.16932
1.17012
1.16954
1.16666
1.1605
1.15741
1.15778
1.15918
1.1636
1.17316
1.188
1.20826
1.22168
1.22425
1.22415
1.22389
1.22198
1.21603
1.20523
1.19262
1.186
1.18547
1.18876
1.1962
1.20164
1.20201
1.20078
1.19797
1.19492
1.19126
1.18714
1.1857
1.18613
1.18908
1.19607
1.67661
1.67374
1.65898
1.6379
1.63004
1.62953
1.63061
1.63429
1.63862
1.639
1.63793
1.63254
1.6212
1.61548
1.61509
1.61558
1.61563
1.61554
1.61549
1.61461
1.60982
1.59645
1.58444
1.58228
1.58172
1.58129
1.58051
1.58064
1.58078
1.58036
1.58028
1.57978
1.57384
1.56048
1.55505
1.55525
1.55595
1.55734
1.55734
1.55695
1.55598
1.5537
1.54911
1.53875
1.52479
1.51755
1.5165
1.51745
1.51986
1.52125
1.52243
1.52226
1.51876
1.50775
1.49241
1.48414
1.48273
1.48305
1.48754
1.49516
1.49811
1.49797
1.49713
1.49455
1.49006
1.48129
1.46669
1.4539
1.45024
1.44984
1.45011
1.45108
1.45179
1.45148
1.45108
1.45119
1.45176
1.45227
1.45119
1.4446
1.43144
1.41996
1.41481
1.41327
1.41448
1.42111
1.43049
1.43428
1.43421
1.43326
1.42785
1.4157
1.39827
1.38396
1.37777
1.37612
1.37636
1.3798
1.38567
1.38929
1.38939
1.38844
1.38524
1.38041
1.37644
1.37351
1.37062
1.36675
1.36132
1.35729
1.35697
1.35836
1.3637
1.36955
1.37042
1.36934
1.36471
1.35378
1.33689
1.32317
1.31649
1.31379
1.31359
1.31712
1.3258
1.33112
1.33191
1.33233
1.33178
1.32734
1.31666
1.30212
1.29243
1.29003
1.28998
1.29154
1.29839
1.30737
1.31029
1.30933
1.30665
1.30267
1.29667
1.28654
1.27241
1.2655
1.26528
1.26643
1.27087
1.27739
1.27971
1.27947
1.27932
1.27839
1.27591
1.27038
1.26082
1.25155
1.24816
1.2477
1.24866
1.25378
1.26028
1.26132
1.26057
1.25816
1.25109
1.2364
1.22341
1.21908
1.21769
1.21761
1.22066
1.23002
1.23898
1.2413
1.24177
1.24167
1.23739
1.22284
1.20642
1.20105
1.19953
1.19922
1.20163
1.20982
1.21614
1.21618
1.2145
1.21284
1.2108
1.20521
1.19333
1.18285
1.18101
1.18115
1.1821
1.18656
1.1961
1.20466
1.20628
1.20584
1.20462
1.20074
1.19045
1.17374
1.16252
1.16028
1.16012
1.16184
1.16985
1.18398
1.19229
1.19272
1.19165
1.18876
1.18148
1.16847
1.16055
1.15989
1.16013
1.16173
1.16396
1.16413
1.16298
1.15875
1.15031
1.14482
1.14488
1.14645
1.15128
1.16032
1.17464
1.19349
1.20831
1.21439
1.21464
1.21419
1.21091
1.20191
1.18819
1.17714
1.17358
1.17408
1.1791
1.18919
1.19664
1.19729
1.19666
1.19516
1.19255
1.18815
1.18295
1.18075
1.18071
1.18308
1.1906
1.19946
1.67467
1.6645
1.64285
1.63026
1.62863
1.62918
1.63292
1.63922
1.64149
1.64119
1.6378
1.62636
1.61677
1.61573
1.61593
1.61686
1.61661
1.61645
1.61588
1.61314
1.60284
1.5886
1.58395
1.58348
1.58339
1.58279
1.58199
1.58173
1.58073
1.57977
1.57897
1.5752
1.56387
1.55509
1.55475
1.5552
1.55682
1.55761
1.55712
1.55683
1.55583
1.55302
1.54519
1.53137
1.52179
1.52014
1.52054
1.52192
1.52289
1.52392
1.52377
1.52076
1.51047
1.49481
1.48555
1.48375
1.4839
1.48799
1.49591
1.49983
1.49982
1.49958
1.49782
1.49371
1.48478
1.46979
1.45558
1.45123
1.45076
1.45104
1.45226
1.45314
1.45308
1.4524
1.45226
1.45258
1.45325
1.45256
1.44677
1.43431
1.42351
1.41862
1.41702
1.4182
1.42448
1.43247
1.43539
1.43572
1.43517
1.43024
1.4177
1.39925
1.38565
1.37999
1.37821
1.37855
1.38272
1.38939
1.39243
1.3924
1.39121
1.38651
1.3805
1.37628
1.37331
1.37048
1.36708
1.36269
1.35973
1.35963
1.36156
1.36748
1.37281
1.37338
1.37229
1.36695
1.35456
1.33766
1.32565
1.31949
1.31651
1.31621
1.31935
1.32771
1.33326
1.33405
1.3345
1.33386
1.32913
1.31846
1.30454
1.29532
1.29281
1.29276
1.29419
1.30051
1.30887
1.31168
1.31097
1.30883
1.30507
1.29928
1.29009
1.27642
1.26742
1.26624
1.26661
1.26969
1.27579
1.27859
1.27864
1.27884
1.27863
1.27745
1.27368
1.2656
1.25621
1.25163
1.25073
1.25105
1.25442
1.26021
1.26182
1.26115
1.25896
1.2529
1.23958
1.22611
1.22103
1.21929
1.21883
1.22085
1.22921
1.23901
1.24195
1.24246
1.24261
1.23965
1.2271
1.20912
1.20217
1.20064
1.2002
1.20208
1.20977
1.21778
1.21861
1.21692
1.21469
1.2125
1.20785
1.19721
1.18419
1.18019
1.18017
1.18057
1.18372
1.19251
1.20319
1.2068
1.20665
1.20594
1.20322
1.19448
1.17828
1.16519
1.16199
1.16176
1.16306
1.16999
1.18385
1.19328
1.19398
1.19293
1.19026
1.1836
1.17089
1.16032
1.15817
1.1582
1.15957
1.16208
1.16257
1.1617
1.15806
1.14904
1.13979
1.13825
1.13893
1.14174
1.14818
1.161
1.17856
1.193
1.20019
1.20058
1.1991
1.19333
1.18048
1.16584
1.15915
1.15873
1.16081
1.16799
1.17928
1.18855
1.19109
1.19102
1.19036
1.18795
1.18278
1.17651
1.17374
1.17343
1.17472
1.18108
1.19051
1.19413
1.66838
1.64937
1.63202
1.62791
1.62776
1.63055
1.6382
1.64324
1.64373
1.642
1.63206
1.61908
1.61641
1.61641
1.6176
1.61768
1.61727
1.61676
1.61509
1.60817
1.59393
1.58545
1.58503
1.58503
1.58498
1.58412
1.58323
1.58194
1.58024
1.57898
1.57642
1.56771
1.5565
1.55451
1.55478
1.55583
1.55801
1.55737
1.55704
1.5567
1.55524
1.5502
1.53797
1.52608
1.52328
1.52326
1.524
1.52468
1.52559
1.52557
1.52327
1.51421
1.49847
1.48766
1.4851
1.48494
1.48841
1.49576
1.50055
1.50145
1.50147
1.50045
1.49722
1.48874
1.47332
1.4576
1.45235
1.45168
1.45179
1.45344
1.45502
1.45509
1.45439
1.45378
1.45386
1.45433
1.45376
1.44839
1.43646
1.42638
1.42199
1.42049
1.42173
1.42796
1.4345
1.43593
1.43662
1.4363
1.43196
1.41947
1.40084
1.38807
1.38286
1.38106
1.38161
1.38635
1.39294
1.39508
1.39504
1.39352
1.38727
1.37968
1.37545
1.37285
1.37028
1.36729
1.36386
1.36185
1.36181
1.36416
1.37053
1.37547
1.37614
1.37502
1.36884
1.35481
1.3384
1.32833
1.32279
1.31984
1.31956
1.32275
1.33082
1.33601
1.3366
1.33693
1.3359
1.33048
1.31964
1.30639
1.29779
1.29524
1.29517
1.29657
1.30254
1.31061
1.31335
1.31279
1.31138
1.3081
1.30221
1.29343
1.28089
1.27049
1.26774
1.2677
1.26939
1.27441
1.27715
1.27746
1.27804
1.27816
1.27788
1.27583
1.26961
1.26085
1.25547
1.25412
1.25408
1.25607
1.26062
1.26238
1.26176
1.25969
1.25443
1.24252
1.2289
1.22321
1.22123
1.22037
1.22165
1.22877
1.23929
1.24285
1.24305
1.24324
1.24112
1.23057
1.21195
1.20318
1.20162
1.20123
1.20283
1.20998
1.21921
1.22118
1.21964
1.21697
1.21448
1.21051
1.20144
1.18723
1.18006
1.17962
1.17967
1.18158
1.189
1.20081
1.20694
1.20716
1.20678
1.20495
1.19772
1.18247
1.16771
1.16329
1.16297
1.1639
1.16972
1.18294
1.19382
1.19524
1.1943
1.19192
1.1859
1.17382
1.16165
1.15808
1.15798
1.15916
1.16213
1.16317
1.16263
1.16009
1.15203
1.13992
1.13507
1.13484
1.1355
1.13935
1.14985
1.16594
1.17899
1.18454
1.18444
1.18211
1.17461
1.15953
1.1469
1.14437
1.14485
1.14816
1.15578
1.16665
1.17679
1.18207
1.18241
1.18191
1.17906
1.17266
1.16578
1.16327
1.16319
1.16476
1.17173
1.18135
1.18542
1.18579
1.6564
1.63806
1.62978
1.628
1.62859
1.63496
1.64307
1.64555
1.64526
1.63827
1.62293
1.61705
1.61697
1.6174
1.61852
1.61783
1.61727
1.61611
1.61183
1.60012
1.58818
1.58614
1.58638
1.58701
1.58657
1.58531
1.58388
1.58161
1.5797
1.57774
1.57156
1.55965
1.5546
1.55472
1.55542
1.55767
1.55826
1.55741
1.55719
1.55638
1.55322
1.54342
1.53055
1.5256
1.52526
1.52574
1.52629
1.52717
1.52729
1.52582
1.51861
1.50366
1.49088
1.48705
1.48654
1.48891
1.49582
1.50045
1.50257
1.50298
1.50248
1.50021
1.49267
1.47737
1.46005
1.45359
1.45272
1.45264
1.4542
1.45686
1.45775
1.45689
1.45595
1.45564
1.45579
1.4551
1.44981
1.43814
1.42862
1.42483
1.42352
1.42488
1.43105
1.43657
1.4368
1.43716
1.43687
1.43281
1.42062
1.40245
1.39084
1.38615
1.38441
1.38525
1.39043
1.39662
1.39781
1.39748
1.3954
1.38842
1.37914
1.37443
1.37234
1.3702
1.36769
1.36519
1.36373
1.36366
1.36689
1.37311
1.37716
1.3783
1.37706
1.3699
1.35429
1.3392
1.33115
1.32633
1.32356
1.32347
1.32703
1.33511
1.33967
1.3397
1.33959
1.33766
1.33144
1.3203
1.30787
1.3001
1.29752
1.29734
1.29881
1.30467
1.31237
1.31504
1.31474
1.31404
1.31125
1.3052
1.29648
1.28491
1.27433
1.27013
1.26961
1.27032
1.27399
1.2764
1.27637
1.27689
1.27742
1.2775
1.27661
1.27216
1.26477
1.25923
1.25763
1.2574
1.2585
1.26171
1.26316
1.26246
1.26032
1.25559
1.24501
1.23166
1.22561
1.22355
1.22237
1.22311
1.229
1.23966
1.2441
1.244
1.24378
1.2419
1.23311
1.21474
1.20404
1.20237
1.20213
1.20361
1.21032
1.22038
1.22376
1.22256
1.2197
1.21685
1.2133
1.20577
1.1919
1.18116
1.17943
1.17938
1.18032
1.18608
1.19789
1.20652
1.20756
1.2073
1.20613
1.20027
1.18633
1.17026
1.16441
1.16386
1.16451
1.1693
1.18161
1.19388
1.19637
1.19562
1.19358
1.18819
1.17684
1.16361
1.15873
1.15843
1.15945
1.16285
1.16465
1.16437
1.1628
1.1564
1.14367
1.13462
1.13291
1.13278
1.13447
1.14241
1.15777
1.16933
1.17252
1.17213
1.17026
1.16417
1.15007
1.13743
1.13542
1.13612
1.13881
1.14417
1.15332
1.16315
1.16917
1.16967
1.16873
1.1649
1.15747
1.15132
1.15002
1.15028
1.15254
1.15991
1.16954
1.17617
1.17739
1.17669
1.64115
1.63193
1.62924
1.62947
1.63463
1.6415
1.64563
1.64693
1.64362
1.62962
1.61864
1.61797
1.61788
1.61855
1.61843
1.61763
1.61644
1.61361
1.60536
1.59247
1.58735
1.5876
1.58852
1.58897
1.58799
1.5864
1.584
1.58135
1.57919
1.57492
1.56427
1.55557
1.55502
1.55545
1.5571
1.5593
1.5584
1.55793
1.55727
1.55509
1.54747
1.53472
1.52737
1.5265
1.52681
1.52755
1.52843
1.52877
1.52803
1.52311
1.50991
1.49525
1.48967
1.48877
1.48996
1.49612
1.50055
1.50305
1.50428
1.50406
1.50252
1.49626
1.4816
1.46286
1.45498
1.45383
1.45372
1.45499
1.45824
1.46047
1.45989
1.45861
1.45789
1.45769
1.45672
1.45143
1.43982
1.43053
1.42719
1.42611
1.42761
1.43374
1.43851
1.43814
1.43787
1.43714
1.43296
1.42103
1.40374
1.39352
1.38948
1.38803
1.38921
1.39468
1.40019
1.40064
1.39972
1.39716
1.39002
1.37939
1.37379
1.37203
1.37046
1.36844
1.36648
1.36548
1.36639
1.37008
1.37518
1.37811
1.37941
1.37797
1.36967
1.35293
1.33983
1.33373
1.32982
1.3275
1.32779
1.33204
1.33994
1.34372
1.34343
1.34247
1.33935
1.33227
1.32064
1.30917
1.30228
1.29982
1.29954
1.30118
1.30686
1.31411
1.31673
1.31676
1.31647
1.31375
1.30762
1.29914
1.2885
1.27847
1.27328
1.27213
1.27226
1.27462
1.27667
1.27631
1.27637
1.27665
1.27695
1.27649
1.27327
1.26739
1.26257
1.26102
1.26066
1.26134
1.26347
1.26435
1.26342
1.26096
1.25634
1.24671
1.23399
1.22807
1.22622
1.22493
1.22526
1.2301
1.24047
1.24577
1.24547
1.24452
1.24231
1.23472
1.21722
1.2046
1.20271
1.20265
1.20417
1.21059
1.22111
1.22604
1.22541
1.22273
1.21963
1.21622
1.20995
1.19752
1.18397
1.17991
1.17966
1.18002
1.18405
1.19489
1.20554
1.20781
1.20764
1.20691
1.20232
1.18983
1.17297
1.16549
1.16463
1.16499
1.16885
1.18006
1.1934
1.19729
1.19682
1.19523
1.1906
1.18007
1.16597
1.15971
1.15911
1.15981
1.16314
1.16587
1.16587
1.16495
1.16027
1.14868
1.13699
1.13329
1.13274
1.13343
1.13895
1.15255
1.16491
1.16783
1.16749
1.16617
1.16182
1.14998
1.1353
1.13117
1.13116
1.13193
1.1354
1.14299
1.15132
1.15561
1.15572
1.15441
1.15042
1.14282
1.13762
1.13719
1.13774
1.1408
1.14811
1.15662
1.16361
1.16487
1.16357
1.15906
1.63581
1.62935
1.62874
1.63475
1.64284
1.64567
1.64768
1.64554
1.6341
1.62053
1.61813
1.61822
1.61881
1.61917
1.61829
1.61677
1.61417
1.60829
1.59688
1.58869
1.58833
1.58951
1.59103
1.59071
1.58923
1.58719
1.58419
1.58147
1.57815
1.56967
1.55833
1.55559
1.5558
1.55686
1.55977
1.55978
1.55907
1.55845
1.55676
1.55093
1.53905
1.52922
1.52732
1.5273
1.5282
1.52941
1.53003
1.52978
1.52694
1.51631
1.50072
1.49275
1.49134
1.49165
1.49642
1.50122
1.50337
1.50531
1.50535
1.50433
1.49927
1.48596
1.46636
1.45647
1.45502
1.45497
1.45603
1.45956
1.46267
1.46302
1.46159
1.46044
1.45986
1.45865
1.45342
1.44183
1.43243
1.42932
1.42844
1.43001
1.43603
1.44048
1.43976
1.43883
1.43751
1.43297
1.42098
1.40455
1.39571
1.3926
1.39167
1.39329
1.39901
1.4036
1.40344
1.40183
1.3989
1.39181
1.38056
1.37403
1.37225