/*--------------------------------*- C++ -*----------------------------------*\
  =========                 |
  \\      /  F ield         | OpenFOAM: The Open Source CFD Toolbox
   \\    /   O peration     | Website:  https://openfoam.org
    \\  /    A nd           | Version:  7
     \\/     M anipulation  |
\*---------------------------------------------------------------------------*/
FoamFile
{
    version     2.0;
    format      ascii;
    class       volScalarField;
    location    "2.8";
    object      T;
}
// * * * * * * * * * * * * * * * * * * * * * * * * * * * * * * * * * * * * * //

dimensions      [0 0 0 1 0 0 0];

internalField   nonuniform List<scalar> 
4040
(
1
1
1
1
1
1
1
1
1
1
1
1
1
1
2.26281
2.71621
2.73199
2.74923
2.76597
2.78147
2.79592
2.80862
2.81945
2.82777
1
1
1
1
1
1
1
1
1
1
1
1
1
1
2.24114
2.71251
2.72998
2.74661
2.7631
2.77803
2.79184
2.80375
2.81331
2.82035
1
1
1
1
1
1
1
1
1
1
1
1
1
1
2.19057
2.70692
2.7264
2.74221
2.75778
2.77066
2.78158
2.7913
2.80254
2.81571
1
1
1
1
1
1
1
1
1
1
1
1
1
1
2.10975
2.69368
2.72064
2.73595
2.75078
2.76248
2.7716
2.78221
2.79684
2.83022
1
1
1
1
1
1
1
1
1
1
1
1
1
1
1.99437
2.66768
2.7094
2.72504
2.73951
2.75052
2.75725
2.76236
2.75529
2.76267
1
1
1
1
1
1
1
1
1
1
1
1
1
1
1.83875
2.6223
2.68934
2.70861
2.72444
2.7355
2.73958
2.7383
2.72834
2.74254
1
1
1
1
1
1
1
1
1
1
1
1
1
1
1.61903
2.54174
2.65872
2.68634
2.70465
2.71692
2.71921
2.71534
2.70719
2.71225
1
1
1
1
1
1
1
1
1
1
1
1
1
1
1.30583
2.41325
2.63257
2.65809
2.67849
2.69211
2.6944
2.69037
2.68428
2.68902
1
1
1
1
1
1
1
1
1
1
1
1
1
1
1.02836
2.28521
2.63372
2.6315
2.6434
2.65723
2.66262
2.6604
2.65365
2.64465
1
1
1
1
1
1
1
1
1
1
1
1
1
1
1.00015
2.08893
2.59895
2.61116
2.61989
2.62533
2.62811
2.62507
2.61417
2.58717
1
1
1
1
1
1
1
1
1
1
1
1
1
1
0.999999
1.7466
2.5129
2.59291
2.60074
2.60246
2.59982
2.59187
2.57497
2.53964
1
1
1
1
1
1
1
1
1
1
1
1
1
1
1
1.27649
2.35728
2.57687
2.57508
2.57493
2.57035
2.55789
2.53499
2.49851
1
1
1
1
1
1
1
1
1
1
1
1
1
1
1
1.02078
2.1782
2.5277
2.54199
2.54329
2.53885
2.52571
2.5008
2.46012
1
1
1
1
1
1
1
1
1
1
1
1
1
1
1
1.00004
1.78343
2.43826
2.52127
2.51926
2.51236
2.49626
2.47034
2.42628
1
1
1
1
1
1
1
1
1
1
1
1
1
1
1
0.999999
1.19597
2.28057
2.50516
2.49073
2.48018
2.46251
2.43789
2.39724
1
1
1
1
1
1
1
1
1
1
1
1
1
1
1
1
1.00901
2.07378
2.45113
2.44606
2.4401
2.42713
2.40673
2.37262
1
1
1
1
1
1
1
1
1
1
1
1
1
1
1
1
0.999993
1.56075
2.33053
2.42525
2.41398
2.39966
2.37953
2.34963
1
1
1
1
1
1
1
1
1
1
1
1
1
1
1
1
0.999996
1.08031
2.11716
2.39854
2.38633
2.37308
2.35343
2.32624
1
1
1
1
1
1
1
1
1
1
1
1
1
1
1
1
0.999999
1.00124
1.6484
2.27458
2.36339
2.34769
2.32851
2.30357
1
1
1
1
1
1
1
1
1
1
1
1
1
1
1
1
1
1
1.12102
2.06592
2.3357
2.32167
2.30688
2.28414
1
1
1
1
1
1
1
1
1
1
1
1
1
1
1
1
1
1
1.00304
1.57661
2.1942
2.29813
2.27927
2.25899
1
1
1
1
1
1
1
1
1
1
1
1
1
1
1
1
1
1
1.00001
1.09749
1.97387
2.27237
2.25217
2.23547
1
1
1
1
1
1
1
1
1
1
1
1
1
1
1
1
1
1
1
1.00205
1.43823
2.0998
2.2285
2.20955
1
1
1
1
1
1
1
1
1
1
1
1
1
1
1
1
1
1
1
1.00001
1.05104
1.80177
2.19342
2.1876
1
1
1
1
1
1
1
1
1
1
1
1
1
1
1
1
1
1
1
1
1.0007
1.25832
1.99256
2.16789
1
1
1
1
1
1
1
1
1
1
1
1
1
1
1
1
1
1
1
1
1
1.01564
1.55303
2.04962
1
1
1
1
1
1
1
1
1
1
1
1
1
1
1
1
1
1
1
1
1
1.00014
1.0961
1.77896
1
1
1
1
1
1
1
1
1
1
1
1
1
1
1
1
1
1
1
1
1
1
1.00237
1.27059
1
1
1
1
1
1
1
1
1
1
1
1
1
1
1
1
1
1
1
1
1
1
1.00001
1.01833
1
1
1
1
1
1
1
1
1
1
1
1
1
1
1
1
1
1
1
1
1
1
1
1.0002
1
1
1
1
1
1
1
1
1
1
1
1
1
1
1
1
1
1
1
1
1
1
1
1
1
1
1
1
1
1
1
1
1
1
1
1
1
1
1
1
1
1
1
1
1
1
1
1
1
1
1
1
1
1
1
1
1
1
1
1
1
1
1
1
1
1
1
1
1
1
1
1
1
1
1
1
1
1
1
1
1
1
1
1
1
1
1
1
1
1
1
1
1
1
1
1
1
1
1
1
1
1
1
1
1
1
1
1
1
1
1
1
1
1
1
1
1
1
1
1
1
1
1
1
1
1
1
1
1
1
1
1
1
1
1
1
1
1
1
1
1
1
1
1
1
1
1
1
1
1
1
1
1
1
1
1
1
1
1
1
1
1
1
1
1
1
1
1
1
1
1
1
1
1
1
1
1
1
1
1
1
1
1
1
1
1
1
1
1
1
1
1
1
1
1
1
1
1
1
1
1
1
1
1
1
1
1
1
1
1
1
1
1
1
1
1
1
1
1
1
1
1
1
1
1
1
1
1
1
1
1
1
1
1
1
1
1
1
1
1
2.7011
2.7538
2.76589
2.81709
2.73846
2.78013
2.72688
2.80842
2.6183
2.5401
2.537
2.39473
2.47464
2.31903
2.42208
2.28607
2.38555
2.27982
2.36028
2.27552
2.34199
2.27204
2.32609
2.26643
2.31002
2.26051
2.29182
2.25091
2.27392
2.23859
2.25704
2.22445
2.23548
2.20736
2.2153
2.1914
2.19254
2.1723
2.17292
2.15485
2.14898
2.13117
2.13477
2.11509
2.09574
2.09942
1.89743
2.07607
1.45938
1.94671
1.06593
1.62183
1.00144
1.15598
1.00001
1.00652
1
1.00006
1
1
1
1
1
1
1
1
1
1
1
1
1
1
1.77522
1.31305
1.1143
1.17144
1.29007
1.35749
1.47236
1.593
1.64235
1.64465
1.64905
1.68112
1.73182
1.75012
1.74628
1.72847
1.72126
1.73359
1.74432
1.74289
1.73253
1.72511
1.71995
1.71927
1.72086
1.7203
1.71836
1.71298
1.70735
1.70346
1.702
1.70295
1.70753
1.70808
1.70961
2.07224
2.76505
2.82476
2.79962
2.76971
2.73908
2.71088
2.68269
2.65423
2.62275
2.59887
2.58346
2.57155
2.55712
2.53506
2.50578
2.47599
2.45148
2.4362
2.42597
2.41238
2.39743
2.37799
2.3563
2.33783
2.32145
2.30977
2.30559
2.29919
2.28823
2.27582
2.25661
2.2322
2.21187
2.19822
2.18701
2.17855
2.17425
2.16819
2.15957
2.14995
2.13538
2.11377
2.09561
2.08444
2.07573
2.06818
2.06154
2.05521
2.04857
2.04122
2.03278
2.02194
2.00431
1.98304
1.97064
1.96344
1.95854
1.94914
1.98326
1.75679
1.52937
1.4415
1.4153
1.39533
1.4133
1.41719
1.40782
1.42247
1.45584
1.50448
1.55534
1.59542
1.61986
1.62667
1.63385
1.64955
1.66793
1.67476
1.6715
1.67104
1.67092
1.67266
1.67864
1.68373
1.68551
1.68459
1.6818
1.67833
1.67591
1.67545
1.67631
1.67951
1.70952
1.97076
2.58864
2.74329
2.7159
2.68392
2.66342
2.64468
2.62561
2.60396
2.57662
2.55734
2.54537
2.53684
2.52662
2.50811
2.48173
2.45154
2.42602
2.40791
2.39732
2.39072
2.38173
2.36981
2.35297
2.33108
2.31165
2.29716
2.28637
2.2781
2.27119
2.26126
2.24909
2.23407
2.21413
2.19414
2.18096
2.17133
2.1638
2.15645
2.14842
2.13937
2.12759
2.11105
2.09224
2.0786
2.07026
2.06364
2.0575
2.05143
2.04494
2.03739
2.02793
2.01533
1.9995
1.98196
1.96927
1.9611
1.95622
1.94646
2.06033
1.88975
1.73303
1.59178
1.51889
1.45917
1.40142
1.37243
1.32695
1.31676
1.34845
1.38509
1.41267
1.43939
1.46901
1.49348
1.51588
1.53676
1.55875
1.5792
1.58729
1.59691
1.60441
1.60756
1.61109
1.61416
1.61582
1.61558
1.61377
1.61301
1.61263
1.61329
1.61981
1.6498
1.8068
1.97851
2.24054
2.49496
2.56131
2.56959
2.56638
2.55245
2.53357
2.5131
2.49404
2.48171
2.47285
2.46588
2.45878
2.44762
2.43187
2.40982
2.38264
2.35983
2.34489
2.33509
2.33041
2.32702
2.31959
2.30841
2.29143
2.26796
2.24932
2.23806
2.22817
2.22164
2.21749
2.21022
2.20043
2.18484
2.16379
2.14874
2.1392
2.13066
2.1219
2.11236
2.10242
2.09182
2.07862
2.06298
2.05204
2.04657
2.04208
2.03759
2.0323
2.02514
2.01469
1.99978
1.98228
1.96853
1.9593
1.95239
1.94706
1.93681
2.10753
1.96058
1.84048
1.7267
1.63148
1.5545
1.48727
1.4524
1.41198
1.36274
1.34927
1.33933
1.34022
1.34759
1.36597
1.39183
1.41869
1.43789
1.45475
1.47668
1.49373
1.51183
1.52778
1.54306
1.54962
1.55496
1.55746
1.5561
1.55408
1.55077
1.54978
1.55594
1.58662
1.71479
1.95766
2.01169
2.02748
2.16831
2.33412
2.43288
2.47343
2.46269
2.44116
2.41862
2.40395
2.39697
2.39251
2.38665
2.37749
2.36816
2.35829
2.34457
2.324
2.30306
2.28971
2.27937
2.27308
2.26999
2.26562
2.25936
2.24966
2.23136
2.20777
2.19172
2.1816
2.17504
2.17183
2.16741
2.16165
2.15264
2.13532
2.11397
2.10127
2.09269
2.08422
2.07592
2.06827
2.06101
2.05308
2.04211
2.02788
2.01755
2.01375
2.01112
2.00785
2.00248
1.99216
1.97539
1.95881
1.94739
1.93894
1.93218
1.92732
1.91804
2.14945
2.02862
1.90855
1.81795
1.73412
1.64283
1.57431
1.52779
1.48432
1.43865
1.40198
1.37355
1.34122
1.33325
1.33643
1.34375
1.35814
1.37411
1.38817
1.40808
1.43185
1.45054
1.46699
1.48653
1.49597
1.50399
1.5094
1.51489
1.52099
1.52057
1.52323
1.54879
1.67963
1.88759
2.0148
2.01183
1.98968
1.99549
2.09808
2.26945
2.3619
2.40729
2.40388
2.37973
2.35803
2.34556
2.33894
2.3332
2.32585
2.31682
2.30701
2.29527
2.27861
2.25778
2.24356
2.23471
2.22872
2.22478
2.21878
2.21193
2.20341
2.18937
2.16791
2.14929
2.13999
2.13349
2.12892
2.12346
2.1176
2.11023
2.09758
2.07733
2.05794
2.04745
2.04028
2.03437
2.02948
2.02398
2.01806
2.01166
2.00252
1.98972
1.97974
1.97562
1.9727
1.96781
1.95847
1.94612
1.93584
1.92639
1.91651
1.90632
1.89927
1.88961
2.17374
2.07595
1.97366
1.8789
1.80705
1.72631
1.65491
1.60347
1.55586
1.51553
1.47684
1.44194
1.40323
1.38006
1.36501
1.35201
1.3509
1.34897
1.34856
1.35207
1.36866
1.39085
1.41332
1.4376
1.45525
1.4691
1.47671
1.48424
1.49024
1.4969
1.52486
1.66724
1.86773
1.99468
2.00208
1.99569
1.98504
1.97413
1.97876
2.05904
2.20756
2.32218
2.37124
2.36467
2.34227
2.32107
2.30827
2.2996
2.29368
2.28645
2.2775
2.26646
2.25288
2.23556
2.21772
2.20663
2.19867
2.19211
2.18555
2.17804
2.16929
2.15871
2.14508
2.12693
2.11008
2.10093
2.09385
2.08709
2.08003
2.07224
2.06287
2.04963
2.03058
2.0149
2.00796
2.00239
1.9973
1.99282
1.98687
1.98087
1.97473
1.96543
1.95172
1.94092
1.93395
1.92739
1.92167
1.91687
1.91112
1.90386
1.89497
1.88366
1.87279
1.85878
2.18899
2.10559
2.02298
1.93726
1.86227
1.79317
1.72825
1.67558
1.62176
1.57537
1.54014
1.50349
1.46531
1.43114
1.40172
1.37879
1.35731
1.35128
1.34438
1.34431
1.34738
1.35236
1.36198
1.3763
1.39875
1.42052
1.43929
1.45683
1.46557
1.49295
1.64456
1.87617
1.96792
1.99985
2.00572
1.99973
1.99179
1.97976
1.96142
1.95827
2.00523
2.13417
2.27496
2.3348
2.335
2.31383
2.29244
2.27838
2.26922
2.26381
2.25643
2.24761
2.23777
2.22547
2.20899
2.18991
2.17634
2.16782
2.16077
2.15444
2.14684
2.13836
2.12896
2.11619
2.09693
2.07806
2.06786
2.05974
2.051
2.04276
2.03507
2.02676
2.01487
1.99764
1.98499
1.97858
1.97264
1.96784
1.9635
1.95741
1.95164
1.94385
1.92758
1.90825
1.89962
1.89597
1.89329
1.89098
1.88819
1.88193
1.87387
1.8628
1.84728
1.82729
2.19818
2.12562
2.05309
1.98419
1.91373
1.8453
1.78691
1.73408
1.68453
1.63457
1.59548
1.55722
1.52125
1.49237
1.4615
1.43227
1.40453
1.38786
1.37417
1.36258
1.35612
1.35156
1.34374
1.34334
1.34756
1.35998
1.3826
1.41049
1.44829
1.59222
1.84483
1.96215
1.98011
1.99
1.99565
1.9962
1.99058
1.97896
1.95682
1.93458
1.92365
1.94792
2.05608
2.20231
2.28395
2.29895
2.28419
2.26232
2.2446
2.23479
2.22955
2.22707
2.22294
2.21382
2.20125
2.18268
2.16055
2.14653
2.13841
2.13116
2.12695
2.12259
2.11394
2.10388
2.08976
2.06724
2.04518
2.0331
2.02551
2.01942
2.01445
2.00867
2.00192
1.99028
1.97245
1.96136
1.9556
1.95165
1.94811
1.94104
1.93394
1.92545
1.90979
1.88651
1.87563
1.87336
1.87099
1.86972
1.86949
1.86556
1.85871
1.8468
1.82409
1.79915
2.20233
2.13955
2.07791
2.01458
1.9496
1.89044
1.83599
1.78189
1.73044
1.68971
1.64785
1.60679
1.56866
1.5406
1.51115
1.48034
1.45726
1.43465
1.41071
1.38875
1.36936
1.35677
1.34557
1.34172
1.34248
1.34424
1.34993
1.37132
1.51241
1.77194
1.90889
1.93474
1.9444
1.95285
1.96193
1.96986
1.96979
1.96104
1.94337
1.91979
1.90031
1.89271
1.90283
1.97669
2.11073
2.22155
2.24527
2.23993
2.2201
2.20529
2.20043
2.19701
2.19907
2.19443
2.18473
2.17158
2.14991
2.12682
2.11555
2.10901
2.10398
2.10171
2.09642
2.08768
2.07715
2.05915
2.03153
2.01372
2.00603
1.99992
1.9962
1.99271
1.98744
1.98055
1.96815
1.94995
1.93756
1.93031
1.92377
1.91703
1.91007
1.9035
1.89471
1.88044
1.86548
1.85951
1.85668
1.85517
1.85526
1.85064
1.84226
1.82835
1.80803
1.78534
2.20058
2.14727
2.09381
2.03565
1.97712
1.92566
1.87316
1.82069
1.77329
1.73164
1.69144
1.64948
1.61544
1.58578
1.55633
1.52253
1.50042
1.47798
1.45518
1.43229
1.41095
1.39167
1.37477
1.36311
1.35175
1.35158
1.36521
1.47064
1.71521
1.85484
1.8631
1.86268
1.86689
1.88355
1.90403
1.91992
1.92315
1.9217
1.91403
1.90114
1.88363
1.86771
1.86223
1.86565
1.90514
2.01736
2.13182
2.17542
2.19125
2.17624
2.16903
2.16448
2.16593
2.16545
2.15859
2.15019
2.13581
2.1139
2.09448
2.0849
2.07919
2.07484
2.07199
2.06606
2.05764
2.04557
2.02589
2.00199
1.98778
1.98087
1.97578
1.97273
1.96962
1.965
1.95742
1.94256
1.92287
1.91029
1.90309
1.89645
1.8895
1.8823
1.8766
1.87156
1.86317
1.85029
1.84308
1.83911
1.83305
1.82491
1.81529
1.80447
1.79435
1.78062
2.19571
2.15017
2.10227
2.04997
2.00039
1.95166
1.90252
1.8529
1.81097
1.76832
1.72916
1.6899
1.65579
1.62532
1.59487
1.56378
1.5399
1.51718
1.49256
1.46867
1.44712
1.4261
1.40912
1.38961
1.37092
1.37683
1.46787
1.70725
1.85333
1.84773
1.83986
1.83155
1.82227
1.82301
1.83017
1.83581
1.8398
1.84836
1.85894
1.85873
1.85277
1.84224
1.83379
1.82886
1.82663
1.84481
1.91808
2.02221
2.10635
2.12912
2.13411
2.13004
2.12903
2.12828
2.12387
2.11739
2.108
2.09463
2.07899
2.06323
2.0523
2.04668
2.04177
2.03671
2.03049
2.02272
2.01111
1.99404
1.97489
1.96148
1.95439
1.94999
1.94678
1.94363
1.93857
1.92972
1.91307
1.89392
1.88326
1.87626
1.87028
1.86563
1.86225
1.85906
1.85385
1.84263
1.82713
1.81631
1.80884
1.80134
1.79273
1.78361
1.77894
1.77157
2.18724
2.14768
2.10368
2.05865
2.01592
1.97132
1.92373
1.88027
1.84052
1.80083
1.76112
1.72475
1.692
1.65907
1.6294
1.5997
1.57446
1.55061
1.52601
1.50564
1.48454
1.46335
1.44052
1.41893
1.42219
1.50258
1.7148
1.88035
1.87798
1.85762
1.83634
1.8239
1.8169
1.80424
1.78855
1.77656
1.76749
1.76747
1.77443
1.78933
1.80083
1.80135
1.79719
1.78786
1.78186
1.78088
1.79088
1.83401
1.92942
2.02393
2.07766
2.08643
2.08981
2.08629
2.08376
2.0783
2.07175
2.06416
2.05636
2.04566
2.03088
2.01801
2.01141
2.00566
1.99916
1.99251
1.98521
1.97545
1.96289
1.94781
1.93359
1.92521
1.921
1.9175
1.91376
1.90831
1.8983
1.88173
1.86602
1.85824
1.85348
1.84984
1.84787
1.84467
1.83998
1.82979
1.81038
1.79387
1.78515
1.77802
1.77155
1.76759
1.76508
1.75883
2.17565
2.14084
2.10221
2.06463
2.02526
1.98324
1.94063
1.90364
1.86433
1.82579
1.78678
1.75537
1.72108
1.68965
1.65772
1.63285
1.60684
1.58163
1.55709
1.535
1.51597
1.49345
1.46991
1.46845
1.54265
1.75364
1.91373
1.91392
1.8941
1.87087
1.85229
1.83643
1.8173
1.79604
1.77526
1.7599
1.74789
1.73779
1.73053
1.72545
1.72167
1.72428
1.72542
1.72502
1.72652
1.72701
1.72813
1.73675
1.76927
1.84301
1.9376
2.00776
2.03875
2.04083
2.04057
2.04062
2.03855
2.03443
2.02889
2.02235
2.01226
1.99688
1.98363
1.97534
1.96786
1.96041
1.95393
1.94826
1.94167
1.93219
1.91869
1.90441
1.8952
1.89046
1.8864
1.8815
1.87501
1.86547
1.85297
1.84203
1.8363
1.83291
1.82943
1.82534
1.82013
1.8107
1.7928
1.77252
1.76207
1.75708
1.7538
1.75174
1.75061
1.74498
2.16382
2.13237
2.09881
2.06472
2.0288
1.98939
1.95403
1.91835
1.8822
1.84297
1.81023
1.77839
1.74595
1.71464
1.68524
1.66062
1.63296
1.60826
1.5851
1.56512
1.54103
1.515
1.51648
1.59356
1.8046
1.96071
1.95639
1.93183
1.90699
1.8872
1.86804
1.84639
1.82249
1.79792
1.77541
1.75638
1.74027
1.72584
1.71288
1.70162
1.69343
1.68351
1.67238
1.65914
1.65689
1.65939
1.66408
1.66994
1.67827
1.69825
1.74459
1.82688
1.91429
1.97861
1.98399
1.99625
2.0044
2.00787
2.00291
1.99599
1.98738
1.97674
1.96203
1.94864
1.93905
1.93104
1.92444
1.91959
1.9151
1.90923
1.90023
1.88703
1.87292
1.86438
1.85949
1.85484
1.84983
1.84441
1.83731
1.82705
1.81694
1.81101
1.80654
1.80146
1.79522
1.78682
1.77374
1.75572
1.74423
1.74026
1.73729
1.73535
1.73423
1.72896
2.14783
2.12036
2.09203
2.06111
2.02706
1.99341
1.96167
1.92768
1.89233
1.85786
1.82907
1.79694
1.76706
1.73422
1.70997
1.68286
1.6578
1.63304
1.60928
1.58538
1.56057
1.56205
1.64451
1.85861
2.01087
2.00441
1.97249
1.94152
1.9196
1.89988
1.87853
1.85632
1.83335
1.80952
1.78566
1.76302
1.74275
1.72435
1.70656
1.68927
1.67418
1.66293
1.65528
1.64838
1.63298
1.61549
1.60344
1.60221
1.60337
1.60576
1.61392
1.64114
1.70033
1.80278
1.88366
1.94079
1.95754
1.96925
1.97398
1.96887
1.96052
1.95228
1.94069
1.92666
1.91501
1.90658
1.90019
1.89474
1.88973
1.88435
1.8772
1.86702
1.85369
1.84077
1.83344
1.82951
1.82578
1.82174
1.81707
1.8097
1.79768
1.78622
1.77952
1.77418
1.76832
1.7618
1.75448
1.7453
1.73361
1.72494
1.72054
1.71722
1.71555
1.71133
2.13248
2.10807
2.08278
2.0549
2.02346
1.99437
1.9643
1.93355
1.89926
1.87155
1.84212
1.8127
1.78151
1.75405
1.72962
1.70239
1.67791
1.65257
1.62848
1.60239
1.60362
1.69
1.90415
2.0515
2.04767
2.01778
1.98377
1.9561
1.93257
1.90957
1.88689
1.86461
1.84226
1.81956
1.7967
1.77419
1.7517
1.72879
1.70645
1.6863
1.66836
1.65294
1.6414
1.63207
1.62296
1.61091
1.59127
1.56875
1.55468
1.54764
1.54561
1.54686
1.55525
1.59072
1.67321
1.78033
1.86663
1.90799
1.92741
1.93481
1.9337
1.92873
1.91712
1.90585
1.89477
1.88589
1.87926
1.87297
1.86696
1.86119
1.85423
1.84525
1.83413
1.82085
1.81032
1.80633
1.80303
1.79896
1.79462
1.78945
1.77928
1.76331
1.752
1.74648
1.7421
1.73848
1.73566
1.73222
1.72484
1.71209
1.70418
1.7014
1.69956
1.69384
2.11224
2.09172
2.06916
2.04327
2.01708
1.99214
1.96452
1.93329
1.90438
1.87974
1.85147
1.82304
1.79232
1.77
1.74346
1.71908
1.69354
1.66721
1.64217
1.64515
1.73865
1.94614
2.08107
2.0784
2.05264
2.02413
1.99763
1.9703
1.94279
1.91639
1.89161
1.86838
1.84623
1.82481
1.80423
1.78445
1.76431
1.74227
1.7175
1.6919
1.66982
1.65195
1.63699
1.62419
1.61311
1.60188
1.58716
1.5661
1.54331
1.52538
1.51392
1.50679
1.50338
1.50351
1.51293
1.54934
1.64208
1.74177
1.83479
1.86292
1.88066
1.89136
1.89476
1.88782
1.87805
1.86746
1.85904
1.85167
1.8453
1.83954
1.83253
1.82348
1.81359
1.80333
1.79284
1.78556
1.7816
1.77801
1.77449
1.76933
1.75964
1.74399
1.7282
1.72159
1.71901
1.71765
1.71675
1.71555
1.71212
1.70345
1.69093
1.67906
1.67206
1.66436
2.09486
2.07626
2.05624
2.03346
2.01052
1.98723
1.96213
1.93323
1.90903
1.88394
1.85742
1.82686
1.80286
1.78094
1.75604
1.73202
1.70394
1.67817
1.6892
1.80747
2.00637
2.11484
2.11049
2.0817
2.05299
2.03054
2.00657
1.98081
1.95303
1.92342
1.89534
1.87055
1.84817
1.82752
1.80831
1.79011
1.77172
1.75136
1.72685
1.69818
1.67199
1.65293
1.63773
1.62318
1.60863
1.59457
1.58031
1.56409
1.54331
1.51907
1.50128
1.48979
1.48023
1.47046
1.46699
1.46505
1.47252
1.50495
1.59442
1.70316
1.78703
1.8359
1.84916
1.86247
1.86017
1.85089
1.84125
1.83163
1.82424
1.81874
1.81165
1.80221
1.79254
1.78435
1.77774
1.77162
1.76449
1.75663
1.74827
1.74098
1.73574
1.72672
1.71469
1.70581
1.7013
1.69851
1.6966
1.6953
1.69343
1.68814
1.6767
1.66032
1.64961
1.6397
2.08203
2.06355
2.04411
2.02267
2.00201
1.98056
1.95663
1.931
1.90857
1.88418
1.85946
1.83143
1.81113
1.78718
1.76486
1.7386
1.71176
1.72457
1.86383
2.08852
2.1642
2.14191
2.10587
2.07404
2.05142
2.03303
2.01108
1.98765
1.96237
1.93309
1.90078
1.87213
1.84878
1.82839
1.80965
1.79185
1.77417
1.75534
1.73299
1.70424
1.67382
1.6517
1.63489
1.61951
1.60473
1.59056
1.57679
1.56206
1.54422
1.52277
1.50104
1.48328
1.46946
1.45785
1.4492
1.44008
1.43477
1.42774
1.43197
1.46689
1.55055
1.67
1.7529
1.81897
1.83036
1.82884
1.82283
1.81254
1.80265
1.79373
1.78429
1.77668
1.77154
1.76822
1.76438
1.75776
1.74799
1.73815
1.72913
1.72077
1.71145
1.70507
1.69925
1.69147
1.68581
1.68255
1.67971
1.67578
1.67246
1.6699
1.66241
1.64683
1.63184
1.61814
2.0664
2.04782
2.02904
2.01082
1.99197
1.9719
1.94797
1.92746
1.90672
1.8842
1.85834
1.83638
1.81576
1.79362
1.76913
1.74325
1.75887
1.90683
2.12014
2.21153
2.19282
2.14867
2.10557
2.07149
2.04991
2.03255
2.01294
1.991
1.96821
1.94199
1.90883
1.87319
1.84635
1.82605
1.80794
1.79072
1.77361
1.75564
1.73535
1.71039
1.68078
1.65348
1.63322
1.61604
1.59939
1.58315
1.56777
1.55295
1.53783
1.52028
1.50054
1.48245
1.46747
1.45468
1.44332
1.43211
1.42135
1.40935
1.40014
1.389
1.39266
1.43646
1.52881
1.65292
1.7306
1.77649
1.79029
1.79017
1.78633
1.77756
1.76804
1.76174
1.75671
1.7499
1.74171
1.7353
1.73202
1.72517
1.71515
1.7048
1.69554
1.6856
1.67958
1.67817
1.67508
1.67111
1.66671
1.66129
1.65533
1.64782
1.63849
1.62668
1.61567
1.60332
2.04989
2.03451
2.01469
1.99775
1.98101
1.96179
1.94139
1.92263
1.90317
1.88141
1.85711
1.83841
1.81773
1.79619
1.77393
1.79823
1.96751
2.15765
2.21862
2.21097
2.17873
2.14899
2.11702
2.07958
2.05076
2.02981
2.01035
1.98931
1.96675
1.94178
1.91237
1.87764
1.84478
1.82079
1.80149
1.78349
1.76566
1.74745
1.72842
1.70733
1.68219
1.65475
1.63149
1.61326
1.59679
1.58046
1.564
1.54756
1.5312
1.51458
1.49787
1.48206
1.46797
1.45541
1.44407
1.43195
1.41886
1.40508
1.39169
1.37917
1.36604
1.3598
1.36811
1.41267
1.51075
1.61562
1.69248
1.72835
1.74767
1.75693
1.7574
1.7536
1.74682
1.73729
1.72818
1.72066
1.7118
1.70278
1.6949
1.68787
1.68075
1.67238
1.66471
1.6584
1.65479
1.65067
1.64703
1.64511
1.64185
1.63183
1.61794
1.60844
1.60222
1.59296
1.96357
2.02483
2.00615
1.98521
1.9695
1.95233
1.93335
1.91524
1.89769
1.8774
1.85678
1.83573
1.81739
1.80161
1.84125
2.03698
2.22165
2.24796
2.23154
2.19777
2.17208
2.14958
2.12291
2.08855
2.0519
2.02408
2.0018
1.98012
1.95775
1.93458
1.90943
1.87992
1.84664
1.8168
1.79323
1.77295
1.75388
1.73522
1.7166
1.69738
1.67605
1.65167
1.62737
1.60762
1.59151
1.57664
1.56187
1.54703
1.53168
1.51496
1.49692
1.48008
1.46581
1.45382
1.44315
1.43236
1.42118
1.40851
1.39507
1.37957
1.36281
1.35243
1.34621
1.3406
1.34862
1.38771
1.47746
1.58017
1.65495
1.69343
1.72004
1.73299
1.73231
1.72864
1.7222
1.70993
1.69574
1.68669
1.6796
1.67229
1.6667
1.66183
1.65364
1.64359
1.63884
1.63642
1.63377
1.62996
1.62449
1.61542
1.60081
1.5913
1.58939
1.58495
1.72601
1.96693
1.99775
1.97946
1.95896
1.94119
1.92467
1.90874
1.89109
1.87146
1.85107
1.83534
1.82577
1.87907
2.09261
2.28192
2.28147
2.24477
2.2153
2.18862
2.1678
2.14456
2.11678
2.08433
2.04742
2.01523
1.98914
1.96553
1.94298
1.92072
1.89768
1.87224
1.84362
1.81366
1.78625
1.76265
1.74179
1.72265
1.70453
1.68644
1.6673
1.64632
1.62398
1.60353
1.58679
1.57244
1.55902
1.54595
1.53267
1.51815
1.50145
1.48292
1.46548
1.45217
1.44126
1.43071
1.41973
1.408
1.3958
1.38192
1.36731
1.35329
1.34241
1.33418
1.33142
1.32662
1.33272
1.36867
1.44766
1.54702
1.63236
1.69323
1.70266
1.70493
1.70256
1.69202
1.67754
1.66871
1.66427
1.66253
1.65921
1.65453
1.64694
1.63703
1.62832
1.62143
1.6157
1.61106
1.6061
1.59875
1.58739
1.57998
1.57729
1.57045
1.26758
1.77877
1.95956
1.96775
1.9515
1.93183
1.91629
1.89963
1.88401
1.86499
1.84502
1.84779
1.92962
2.13658
2.30333
2.32686
2.28509
2.23642
2.2012
2.17657
2.15421
2.12912
2.10112
2.07025
2.0366
2.00411
1.97579
1.95055
1.92653
1.90293
1.87957
1.85632
1.83228
1.80668
1.78059
1.75599
1.73368
1.71373
1.6958
1.67885
1.66146
1.64274
1.62235
1.60212
1.58492
1.57141
1.55927
1.54627
1.53252
1.51902
1.50534
1.4894
1.47204
1.45753
1.44597
1.43574
1.42576
1.41457
1.40095
1.38403
1.36733
1.35464
1.34558
1.33695
1.3292
1.32126
1.31715
1.31038
1.31331
1.34904
1.43083
1.53837
1.614
1.67335
1.68612
1.68347
1.67389
1.66085
1.65006
1.64492
1.64151
1.63694
1.63362
1.62993
1.62164
1.60996
1.60181
1.59645
1.59133
1.5856
1.5794
1.57148
1.56428
1.55705
1.01996
1.36669
1.80924
1.9427
1.94044
1.92306
1.90572
1.8925
1.87558
1.85881
1.86947
1.99033
2.2038
2.31502
2.31315
2.2962
2.26406
2.22616
2.18979
2.16007
2.1334
2.10721
2.08022
2.05153
2.02157
1.99159
1.96319
1.93709
1.91223
1.88785
1.8645
1.84241
1.82107
1.79941
1.77653
1.75276
1.72965
1.70853
1.68997
1.67383
1.65931
1.64416
1.62652
1.60765
1.58945
1.57276
1.55874
1.54654
1.53332
1.51786
1.50263
1.48928
1.47795
1.46766
1.45716
1.44554
1.43236
1.41707
1.40054
1.38625
1.37578
1.3643
1.35204
1.34124
1.3324
1.32337
1.31426
1.30477
1.2985
1.29417
1.29999
1.33891
1.41658
1.52678
1.59572
1.64681
1.66106
1.65814
1.65011
1.64246
1.6353
1.62863
1.62194
1.61288
1.60111
1.59095
1.58592
1.5822
1.5783
1.57451
1.57096
1.5653
1.5582
1.54594
1.00026
1.04345
1.44841
1.82584
1.92166
1.91592
1.8975
1.88185
1.86951
1.89973
2.05367
2.2627
2.33354
2.32161
2.28484
2.25856
2.23835
2.21046
2.17688
2.14402
2.11513
2.08881
2.06279
2.0362
2.00909
1.98176
1.95455
1.92832
1.90364
1.87949
1.85604
1.8345
1.81464
1.79591
1.77671
1.75568
1.73343
1.71133
1.69043
1.67228
1.65681
1.6426
1.62927
1.61612
1.60106
1.58405
1.56682
1.55144
1.54126
1.5333
1.5214
1.5056
1.48885
1.4738
1.46136
1.44932
1.43654
1.42316
1.40931
1.39274
1.3761
1.3667
1.35768
1.34798
1.34095
1.3336
1.32458
1.31261
1.30151
1.2931
1.28793
1.2851
1.29125
1.3293
1.41321
1.51174
1.58005
1.61313
1.6341
1.63343
1.63127
1.62695
1.61846
1.60446
1.59037
1.57991
1.57233
1.56733
1.56565
1.56569
1.56522
1.5623
1.55588
1.53921
1
1.00084
1.07601
1.51117
1.82991
1.90144
1.88991
1.8823
1.94819
2.12063
2.2894
2.34183
2.32057
2.29136
2.25996
2.23778
2.21864
2.19482
2.16623
2.13445
2.1047
2.07803
2.05278
2.02767
2.00236
1.97714
1.95211
1.9266
1.90162
1.88017
1.8612
1.84056
1.81779
1.79675
1.77741
1.75889
1.73998
1.72107
1.70296
1.68648
1.67105
1.65631
1.64212
1.62622
1.60866
1.59225
1.5782
1.56624
1.55532
1.54199
1.52531
1.50611
1.49177
1.48349
1.47399
1.46282
1.45042
1.43629
1.42145
1.40469
1.38351
1.36697
1.36248
1.35985
1.35527
1.34898
1.3402
1.32788
1.31475
1.30295
1.29174
1.28165
1.27761
1.27514
1.2841
1.31883
1.40067
1.49789
1.5664
1.58927
1.60549
1.60555
1.60014
1.59372
1.58519
1.57219
1.56211
1.55886
1.55745
1.55403
1.54722
1.54447
1.54271
1.53443
1
1
1.00208
1.11298
1.56629
1.81791
1.86447
2.0166
2.21823
2.30962
2.3504
2.34393
2.31716
2.28842
2.2645
2.24525
2.2257
2.20374
2.17779
2.147
2.11766
2.09295
2.07027
2.04785
2.02458
1.99954
1.97323
1.94705
1.9205
1.89396
1.86902
1.85041
1.83598
1.81838
1.79748
1.77592
1.75537
1.73646
1.71873
1.70008
1.68161
1.66574
1.65286
1.64157
1.62838
1.61203
1.59575
1.58016
1.56464
1.54901
1.53347
1.51735
1.50157
1.48502
1.46936
1.45704
1.4471
1.43683
1.42355
1.40695
1.38917
1.37537
1.36541
1.3563
1.34908
1.3425
1.33462
1.32408
1.31212
1.29859
1.28838
1.28137
1.27652
1.27205
1.26917
1.26517
1.27276
1.30746
1.39028
1.47718
1.56129
1.57541
1.56733
1.56373
1.55922
1.55969
1.5623
1.56085
1.55593
1.54821
1.54073
1.53171
1.52595
1.52265
1
1
1.00001
1.00433
1.15633
1.54131
1.98512
2.33641
2.40805
2.40137
2.39019
2.36867
2.34162
2.31511
2.29185
2.27085
2.25044
2.22823
2.20387
2.17666
2.14949
2.12369
2.09861
2.07311
2.04625
2.01762
1.98784
1.96077
1.94007
1.92039
1.89807
1.87539
1.85169
1.82779
1.80416
1.78495
1.77268
1.76029
1.74379
1.72466
1.70472
1.68498
1.66475
1.64806
1.63904
1.63021
1.61615
1.5995
1.58118
1.5611
1.54102
1.52573
1.5116
1.49293
1.47409
1.45864
1.44728
1.43844
1.43006
1.41921
1.40444
1.38842
1.37182
1.35838
1.34931
1.34204
1.33451
1.32582
1.31546
1.30188
1.29039
1.28314
1.27762
1.27243
1.26684
1.26218
1.25706
1.24734
1.25667
1.29637
1.38065
1.46266
1.53123
1.54229
1.53288
1.53315
1.53925
1.54638
1.54681
1.54537
1.53998
1.52835
1.52429
1.53827
1
1
1
1.00004
1.00699
1.30398
2.37379
2.61974
2.5634
2.51651
2.48204
2.44916
2.42202
2.39713
2.37379
2.34797
2.32296
2.29526
2.26522
2.23528
2.20539
2.17618
2.14706
2.11699
2.08538
2.05284
2.0212
1.99181
1.96405
1.9387
1.9165
1.89417
1.86948
1.84469
1.82336
1.80523
1.78575
1.76569
1.74731
1.72969
1.71207
1.69394
1.67715
1.66242
1.64537
1.62777
1.61276
1.59792
1.5821
1.56565
1.55049
1.53359
1.51129
1.49225
1.47759
1.46362
1.45176
1.44073
1.42916
1.41628
1.40048
1.38182
1.3692
1.35965
1.35129
1.34389
1.33656
1.32866
1.31928
1.30777
1.29731
1.28956
1.28322
1.27648
1.27002
1.26386
1.25526
1.24592
1.23682
1.23021
1.24078
1.28243
1.36307
1.43679
1.49444
1.50926
1.51682
1.52193
1.52831
1.53581
1.54618
1.56393
1.58496
1.66112
1
1
1
1
1.00011
1.75257
2.75442
2.74277
2.68412
2.64443
2.61185
2.57218
2.53233
2.49667
2.46428
2.43257
2.40054
2.36284
2.32378
2.28806
2.25413
2.22052
2.18673
2.1524
2.11743
2.08235
2.04826
2.01611
1.98651
1.95993
1.93528
1.91091
1.88661
1.8632
1.84085
1.81863
1.79669
1.77632
1.75815
1.74136
1.72483
1.7082
1.69067
1.67067
1.65016
1.63251
1.6175
1.60322
1.5888
1.57342
1.55586
1.53673
1.51484
1.49312
1.48204
1.47303
1.46143
1.44856
1.43499
1.42052
1.40437
1.38327
1.36861
1.36436
1.35946
1.35353
1.34685
1.33942
1.33037
1.31999
1.30979
1.30103
1.29346
1.28583
1.27885
1.27165
1.26266
1.25055
1.23512
1.22346
1.21767
1.21421
1.22771
1.26724
1.34568
1.41132
1.47007
1.50499
1.54053
1.58763
1.63552
1.68841
1.71962
1.77334
1
1
1
1
1
2.00833
2.86469
2.82116
2.76552
2.72823
2.69308
2.64942
2.60751
2.56749
2.52845
2.48965
2.44886
2.40409
2.35838
2.31667
2.27847
2.2416
2.2049
2.16813
2.13129
2.09447
2.05852
2.02506
1.99505
1.96785
1.94242
1.91827
1.89518
1.87229
1.84837
1.82349
1.79944
1.77848
1.76146
1.74726
1.73382
1.71844
1.69846
1.67464
1.65188
1.63317
1.61782
1.60432
1.59141
1.57772
1.56064
1.53758
1.51325
1.4967
1.48262
1.46739
1.45304
1.43962
1.4266
1.41282
1.39769
1.38271
1.37007
1.35891
1.35098
1.34426
1.33726
1.32987
1.32089
1.3114
1.30224
1.29358
1.28485
1.27722
1.27082
1.26392
1.25468
1.24106
1.22618
1.2153
1.20706
1.19918
1.18857
1.18198
1.20166
1.25793
1.35783
1.49428
1.61104
1.70137
1.78801
1.84476
1.88715
1.91401
)
;

boundaryField
{
    inlet
    {
        type            fixedValue;
        value           uniform 1;
    }
    outlet
    {
        type            inletOutlet;
        inletValue      uniform 1;
        value           nonuniform List<scalar> 
32
(
1.95
1.94721
1.93734
1.91859
1.89008
1.85842
1.82637
1.79857
1.78464
1.78025
1.77219
1.75983
1.746
1.72995
1.71221
1.69396
1.66424
1.6395
1.61784
1.60345
1.59344
1.58565
1.57068
1.55778
1.54525
1.53792
1.53399
1.52262
1.53737
1.65803
1.77201
1.91324
)
;
    }
    bottom
    {
        type            zeroGradient;
    }
    top
    {
        type            zeroGradient;
    }
    obstacle
    {
        type            zeroGradient;
    }
    defaultFaces
    {
        type            empty;
    }
}


// ************************************************************************* //
