/*--------------------------------*- C++ -*----------------------------------*\
  =========                 |
  \\      /  F ield         | OpenFOAM: The Open Source CFD Toolbox
   \\    /   O peration     | Website:  https://openfoam.org
    \\  /    A nd           | Version:  7
     \\/     M anipulation  |
\*---------------------------------------------------------------------------*/
FoamFile
{
    version     2.0;
    format      ascii;
    class       volVectorField;
    location    "0.9";
    object      U;
}
// * * * * * * * * * * * * * * * * * * * * * * * * * * * * * * * * * * * * * //

dimensions      [0 1 -1 0 0 0 0];

internalField   nonuniform List<vector> 
16192
(
(3 5.05247e-16 0)
(3 1.17289e-15 0)
(3 1.02862e-15 0)
(3 3.59387e-16 0)
(3 8.42978e-16 0)
(3 9.6101e-16 0)
(3 1.49894e-15 0)
(3 1.16495e-15 0)
(3 4.96287e-16 0)
(3 -1.26171e-16 0)
(3 -7.43906e-16 0)
(3 -2.36775e-16 0)
(3 7.01989e-16 0)
(3 9.30986e-16 0)
(3 1.1737e-15 0)
(3 7.64624e-16 0)
(3 -2.84839e-17 0)
(3 -2.91093e-16 0)
(3 -7.08017e-16 0)
(3 -8.29159e-16 0)
(3 -6.01363e-16 0)
(3 -1.75944e-16 0)
(3 2.87381e-16 0)
(3 3.20942e-16 0)
(3 1.16131e-15 0)
(3 2.03731e-15 0)
(3 2.03686e-15 0)
(3 4.20128e-16 0)
(3 -1.53538e-15 0)
(3 -1.59002e-15 0)
(3 -1.33435e-15 0)
(3 -1.49035e-15 0)
(3 -1.56696e-15 0)
(3 -1.81552e-15 0)
(3 -2.48732e-15 0)
(3 -2.91413e-15 0)
(3 -2.67414e-15 0)
(3 -2.70505e-15 0)
(3 -2.6106e-15 0)
(3 -1.9586e-15 0)
(3 -9.00449e-16 0)
(3 -9.71592e-16 0)
(3 -1.17227e-15 0)
(3 -1.31811e-15 0)
(3 -1.40654e-15 0)
(3 -1.416e-15 0)
(3 -1.63497e-15 0)
(3 -1.46282e-15 0)
(3 -1.49557e-15 0)
(3 -1.73637e-15 0)
(3 -2.07692e-15 0)
(3 -2.48214e-15 0)
(3 -2.67231e-15 0)
(3 -1.66209e-15 0)
(3 -1.54705e-15 0)
(3 -2.7319e-15 0)
(3 -2.48669e-15 0)
(3 -1.79349e-15 0)
(3 -1.58181e-15 0)
(3 -1.25469e-15 0)
(3 -1.20686e-15 0)
(3 -1.47275e-15 0)
(3 -8.34841e-16 0)
(3 -2.04593e-16 0)
(3 -4.25055e-16 0)
(3 -1.04928e-15 0)
(3 -8.03498e-16 0)
(3 -4.25407e-16 0)
(3 -8.65141e-16 0)
(3 -8.65811e-16 0)
(3 -1.29098e-15 0)
(3 -1.21629e-15 0)
(3 -8.58997e-16 0)
(3 -3.7554e-16 0)
(3 -1.18314e-16 0)
(3 3.97067e-16 0)
(3 6.21969e-16 0)
(3 -5.69879e-16 0)
(3 -1.00398e-15 0)
(3 -2.88769e-16 0)
(3 8.68743e-16 0)
(3 7.57702e-16 0)
(3 -1.1583e-16 0)
(3 -5.2639e-16 0)
(3 2.56839e-16 0)
(3 4.32329e-16 0)
(3 5.6224e-16 0)
(3 7.59696e-16 0)
(3 7.98507e-17 0)
(3 -2.59325e-16 0)
(3 4.87987e-16 0)
(3 9.26411e-16 0)
(3 1.39984e-15 0)
(3 1.8582e-15 0)
(3 7.22296e-16 0)
(3 4.86207e-16 0)
(3 7.45136e-16 0)
(3 3.02644e-16 0)
(3 -8.18639e-16 0)
(3 -2.11769e-15 0)
(3 -2.71783e-15 0)
(3 -3.59565e-15 0)
(3 -2.36421e-15 0)
(3 -1.24413e-15 0)
(3 -1.03924e-15 0)
(3 -1.17184e-15 0)
(3 -1.0856e-15 0)
(3 -9.65074e-16 0)
(3 -4.0548e-16 0)
(3 -1.19719e-16 0)
(3 1.05956e-16 0)
(3 -3.07527e-16 0)
(3 -1.8182e-16 0)
(3 5.63052e-16 0)
(3 -2.1702e-16 0)
(3 -1.78903e-15 0)
(3 -2.58588e-15 0)
(3 -2.34373e-15 0)
(3 -1.62011e-15 0)
(3 -1.28729e-15 0)
(3 -5.22103e-16 0)
(3 -4.74e-16 0)
(3 4.8936e-16 0)
(3 6.81041e-16 0)
(3 1.51228e-16 0)
(3 -5.88979e-16 0)
(3 -1.31158e-15 0)
(3 1.74056e-17 0)
(3 7.06508e-16 0)
(3 6.80255e-16 0)
(3 5.81095e-17 0)
(3 -1.28658e-16 0)
(3 -4.63792e-16 0)
(3 -5.36337e-16 0)
(3 2.15917e-16 0)
(3 7.47552e-16 0)
(3 1.70403e-15 0)
(3 1.45394e-15 0)
(3 1.5698e-15 0)
(3 1.42966e-15 0)
(3 -8.5041e-17 0)
(3 -6.04512e-17 0)
(3 -4.4893e-16 0)
(3 -1.05312e-16 0)
(3 5.64472e-16 0)
(3 8.59441e-16 0)
(3 1.09888e-15 0)
(3 6.22931e-16 0)
(3 -2.42186e-16 0)
(3 -6.09731e-16 0)
(3 -8.29708e-18 0)
(3 6.03979e-16 0)
(3 1.03418e-15 0)
(3 8.5189e-16 0)
(3 9.48264e-16 0)
(3 1.46379e-15 0)
(3 8.04719e-16 0)
(3 6.67257e-17 0)
(3 -2.43821e-17 0)
(3 -2.53098e-16 0)
(3 -2.15289e-16 0)
(3 -2.08086e-17 0)
(3 -6.23955e-16 0)
(3 -9.64537e-16 0)
(3 -7.90816e-16 0)
(3 -1.03812e-15 0)
(3 -1.49345e-15 0)
(3 -1.60829e-15 0)
(3 -2.15078e-15 0)
(3 -1.50419e-15 0)
(3 1.97097e-16 0)
(3 1.55923e-15 0)
(3 1.60059e-15 0)
(3 1.47857e-15 0)
(3 1.01162e-15 0)
(3 -5.16902e-16 0)
(3 -2.1927e-15 0)
(3 -3.10267e-15 0)
(3 -2.8073e-15 0)
(3 -2.84318e-15 0)
(3 -2.66102e-15 0)
(3 -1.69203e-15 0)
(3 -1.56212e-15 0)
(3 -2.12921e-15 0)
(3 -2.56299e-15 0)
(3 -2.13325e-15 0)
(3 -9.6095e-16 0)
(3 3.09503e-17 0)
(3 3.05671e-16 0)
(3 3.66498e-17 0)
(3 1.2942e-16 0)
(3 5.20232e-16 0)
(3 1.29558e-15 0)
(3 2.42567e-15 0)
(3 2.90975e-15 0)
(3 2.55692e-15 0)
(3 1.81706e-15 0)
(3 1.76022e-15 0)
(3 1.81473e-15 0)
(3 1.10974e-15 0)
(3 9.95054e-16 0)
(3 6.51233e-16 0)
(3 -2.69809e-16 0)
(3 -1.76731e-16 0)
(3 5.39182e-16 0)
(3 9.8365e-16 0)
(3 8.64003e-17 0)
(3 1.81238e-16 0)
(3 -4.80658e-17 0)
(3 -8.96061e-16 0)
(3 -2.6013e-16 0)
(3 -1.99847e-16 0)
(3 -1.45598e-15 0)
(3 -1.60183e-15 0)
(3 -4.91612e-16 0)
(3 1.90759e-16 0)
(3 4.51427e-16 0)
(3 8.59394e-16 0)
(3 3.22386e-16 0)
(3 -4.82655e-16 0)
(3 -1.29184e-15 0)
(3 -1.03608e-15 0)
(3 -1.81425e-15 0)
(3 -1.64277e-15 0)
(3 -1.47581e-15 0)
(3 -3.05356e-15 0)
(3 -3.62839e-15 0)
(3 -3.91702e-15 0)
(3 -3.22241e-15 0)
(3 -2.12344e-15 0)
(3 -1.71504e-15 0)
(3 -1.19132e-15 0)
(3 -1.34525e-15 0)
(3 -9.70221e-16 0)
(3 -1.06646e-15 0)
(3 -9.58636e-16 0)
(3 -8.22449e-16 0)
(3 -1.56155e-15 0)
(3 -2.35987e-15 0)
(3 -2.3569e-15 0)
(3 -1.79979e-15 0)
(3 -2.13595e-15 0)
(3 -2.4806e-15 0)
(3 -3.52398e-15 0)
(3 -3.51992e-15 0)
(3 -3.02156e-15 0)
(3 -2.88909e-15 0)
(3 -3.60838e-15 0)
(3 -4.04547e-15 0)
(3 -1.88427e-15 0)
(3 -4.52061e-16 0)
(3 -2.9708e-16 0)
(3 -2.66909e-16 0)
(3 -1.97482e-16 0)
(3 -1.90675e-16 0)
(3 -2.43042e-16 0)
(3 -3.50265e-16 0)
(3 -9.42437e-16 0)
(3 -1.24882e-15 0)
(3 -1.70739e-15 0)
(3 -1.29817e-15 0)
(3 -5.4946e-16 0)
(3 -1.3804e-16 0)
(3 5.14569e-16 0)
(3 6.37173e-16 0)
(3 5.10134e-16 0)
(3 -2.16088e-16 0)
(3 -4.57941e-16 0)
(3 -4.15228e-16 0)
(3 -5.07393e-16 0)
(3 -5.97334e-16 0)
(3 1.27316e-15 0)
(3 1.59338e-15 0)
(3 1.71525e-15 0)
(3 1.07405e-15 0)
(3 -9.29062e-16 0)
(3 -1.84801e-15 0)
(3 -1.51142e-15 0)
(3 -9.18382e-16 0)
(3 -3.54492e-16 0)
(3 -2.21175e-16 0)
(3 1.61831e-16 0)
(3 8.27549e-16 0)
(3 1.30649e-15 0)
(3 2.15606e-15 0)
(3 1.7105e-15 0)
(3 -5.10888e-16 0)
(3 -1.4534e-15 0)
(3 -2.05339e-15 0)
(3 -1.89296e-15 0)
(3 -2.24612e-15 0)
(3 -2.20897e-15 0)
(3 -1.97642e-15 0)
(3 -2.54218e-15 0)
(3 -3.34295e-15 0)
(3 -2.81407e-15 0)
(3 -1.9374e-15 0)
(3 -1.30496e-15 0)
(3 -1.47964e-15 0)
(3 -1.91574e-15 0)
(3 -1.17416e-15 0)
(3 -4.92785e-16 0)
(3 -5.76965e-16 0)
(3 -1.23989e-15 0)
(3 -1.27045e-15 0)
(3 -1.68305e-15 0)
(3 -2.48125e-15 0)
(3 -2.61839e-15 0)
(3 -3.75774e-15 0)
(3 -3.56676e-15 0)
(3 -2.74738e-15 0)
(3 -1.52097e-15 0)
(3 -1.26933e-15 0)
(3 1.44247e-16 0)
(3 2.33884e-16 0)
(3 1.77145e-16 0)
(3 -5.62156e-17 0)
(3 -5.46145e-16 0)
(3 -4.18105e-16 0)
(3 -3.66742e-16 0)
(3 -9.41244e-16 0)
(3 -2.87553e-16 0)
(3 3.36117e-16 0)
(3 1.62541e-16 0)
(3 3.87276e-16 0)
(3 9.47443e-16 0)
(3 1.3276e-15 0)
(3 1.55996e-15 0)
(3 1.7225e-15 0)
(3 2.06439e-15 0)
(3 1.3952e-15 0)
(3 1.37494e-15 0)
(3 2.03933e-16 0)
(3 4.39754e-16 0)
(3 7.25229e-16 0)
(3 5.24534e-16 0)
(3 4.31635e-16 0)
(3 1.24167e-16 0)
(3 5.69289e-17 0)
(3 3.01516e-16 0)
(3 4.71145e-16 0)
(3 4.4451e-17 0)
(3 -2.68429e-16 0)
(3 -1.56246e-16 0)
(3 -4.23098e-17 0)
(3 -1.43891e-16 0)
(3 -1.04085e-16 0)
(3 1.36659e-15 0)
(3 1.56319e-15 0)
(3 8.53125e-16 0)
(3 2.93598e-16 0)
(3 1.03896e-16 0)
(3 -1.42629e-16 0)
(3 -3.52055e-16 0)
(3 -7.55197e-16 0)
(3 -1.13247e-15 0)
(3 -1.042e-15 0)
(3 -7.31047e-16 0)
(3 -1.81155e-15 0)
(3 -1.67509e-15 0)
(3 -1.69125e-15 0)
(3 -9.61308e-16 0)
(3 3.66764e-16 0)
(3 4.06449e-16 0)
(3 2.61326e-16 0)
(3 -4.97281e-16 0)
(3 -4.99979e-16 0)
(3 -6.75903e-16 0)
(3 -1.15331e-15 0)
(3 -1.38787e-15 0)
(3 -1.66076e-15 0)
(3 -1.40432e-15 0)
(3 -9.7483e-16 0)
(3 -1.12436e-15 0)
(3 -1.58698e-15 0)
(3 -2.0653e-15 0)
(3 -2.4125e-15 0)
(3 -2.461e-15 0)
(3 -2.30549e-15 0)
(3 -2.06625e-15 0)
(3 -1.06285e-15 0)
(3 -2.53527e-16 0)
(3 2.40592e-16 0)
(3 9.04162e-16 0)
(3 8.23191e-16 0)
(3 1.57957e-15 0)
(3 2.33243e-15 0)
(3 2.46585e-15 0)
(3 1.83108e-15 0)
(3 1.73154e-15 0)
(3 1.48642e-15 0)
(3 6.36647e-16 0)
(3 3.37037e-16 0)
(3 4.08634e-17 0)
(3 -4.08462e-16 0)
(3 -1.58279e-16 0)
(3 -7.4203e-16 0)
(3 -9.91997e-16 0)
(3 -1.26746e-15 0)
(3 -1.72277e-15 0)
(3 -1.80444e-15 0)
(3 -1.33042e-15 0)
(3 -8.4322e-16 0)
(3 -4.28087e-16 0)
(3 -1.38794e-15 0)
(3 -1.61119e-15 0)
(3 -1.57427e-15 0)
(3 -1.05027e-15 0)
(3 -1.32906e-15 0)
(3 -1.61219e-15 0)
(3 -1.31959e-15 0)
(3 -1.04498e-15 0)
(3 -1.00644e-15 0)
(3 -1.00531e-15 0)
(3 -1.40525e-15 0)
(3 -2.21005e-15 0)
(3 -1.78808e-15 0)
(3 -2.98527e-15 0)
(3 -3.48397e-15 0)
(3 -3.24015e-15 0)
(3 -2.72225e-15 0)
(3 -1.99239e-15 0)
(3 -1.13752e-15 0)
(3 -1.12658e-15 0)
(3 -1.12314e-15 0)
(3 -9.30614e-16 0)
(3 -1.00869e-15 0)
(3 -1.47317e-15 0)
(3 -1.588e-15 0)
(3 -1.81795e-15 0)
(3 -2.23519e-15 0)
(3 -2.96794e-15 0)
(3 -3.13951e-15 0)
(3 -2.89894e-15 0)
(3 -2.9019e-15 0)
(3 -2.96611e-15 0)
(3 -2.85745e-15 0)
(3 -2.9311e-15 0)
(3 -2.25196e-15 0)
(3 -1.79528e-15 0)
(3 -1.09937e-15 0)
(3 8.41428e-18 0)
(3 2.68621e-16 0)
(3 -5.5909e-16 0)
(3 -5.79052e-16 0)
(3 -1.93748e-16 0)
(3 3.41445e-18 0)
(3 -1.07633e-16 0)
(3 -2.48676e-16 0)
(3 -7.88073e-16 0)
(3 -1.36889e-15 0)
(3 -1.15313e-15 0)
(3 -9.8617e-16 0)
(3 -4.26859e-16 0)
(3 2.0435e-16 0)
(3 5.41426e-16 0)
(3 7.61788e-16 0)
(3 5.00248e-16 0)
(3 2.27751e-16 0)
(3 -3.99484e-16 0)
(3 -4.30009e-16 0)
(3 -6.78686e-17 0)
(3 1.36234e-16 0)
(3 9.07281e-16 0)
(3 1.1556e-15 0)
(3 1.64809e-15 0)
(3 8.5302e-16 0)
(3 -4.12293e-16 0)
(3 -1.43528e-15 0)
(3 -1.89921e-15 0)
(3 -1.56825e-15 0)
(3 -9.50576e-16 0)
(3 -1.68909e-16 0)
(3 9.00331e-16 0)
(3 1.23625e-15 0)
(3 1.40637e-15 0)
(3 1.70732e-15 0)
(3 1.52255e-15 0)
(3 -6.83433e-16 0)
(3 -1.66578e-15 0)
(3 -2.90803e-15 0)
(3 -3.07659e-15 0)
(3 -2.16272e-15 0)
(3 -8.21258e-16 0)
(3 -3.90346e-16 0)
(3 -8.69031e-16 0)
(3 -2.13192e-15 0)
(3 -2.12565e-15 0)
(3 -1.61775e-15 0)
(3 -1.16226e-15 0)
(3 -1.48841e-15 0)
(3 -1.90769e-15 0)
(3 -2.21548e-15 0)
(3 -1.6977e-15 0)
(3 -1.37503e-15 0)
(3 -1.25635e-15 0)
(3 -1.43517e-15 0)
(3 -1.65825e-15 0)
(3 -1.58343e-15 0)
(3 -1.13217e-15 0)
(3 -1.60009e-15 0)
(3 -1.19013e-15 0)
(3 -9.35847e-16 0)
(3 -1.2737e-16 0)
(3 1.22717e-16 0)
(3 5.47022e-16 0)
(3 1.16713e-16 0)
(3 -5.98481e-16 0)
(3 -6.90981e-16 0)
(3 -3.66448e-16 0)
(3 -5.15681e-16 0)
(3 -1.33297e-15 0)
(3 -1.59157e-15 0)
(3 -1.09214e-15 0)
(3 1.50839e-16 0)
(3 7.07043e-16 0)
(3 9.96367e-16 0)
(3 1.11718e-15 0)
(3 1.66113e-15 0)
(3 1.83262e-15 0)
(3 1.72415e-15 0)
(3 1.76628e-15 0)
(3 1.59764e-15 0)
(3 1.36468e-15 0)
(3 -2.65414e-17 0)
(3 8.82151e-17 0)
(3 3.27741e-16 0)
(3 3.43305e-16 0)
(3 1.59298e-16 0)
(3 1.65561e-17 0)
(3 -8.61058e-18 0)
(3 2.06657e-16 0)
(3 3.5233e-16 0)
(3 2.16429e-16 0)
(3 -1.46741e-16 0)
(3 -4.61508e-16 0)
(3 -2.9233e-16 0)
(3 -4.96762e-16 0)
(3 -1.86256e-16 0)
(3 4.99357e-16 0)
(3 1.35701e-15 0)
(3 4.04673e-16 0)
(3 1.09967e-16 0)
(3 8.27626e-16 0)
(3 7.76144e-16 0)
(3 2.00355e-16 0)
(3 -6.36988e-16 0)
(3 -1.04393e-15 0)
(3 -6.33678e-16 0)
(3 -2.83403e-16 0)
(3 -5.39917e-16 0)
(3 -1.0542e-15 0)
(3 -3.24528e-16 0)
(3 -6.42404e-17 0)
(3 1.04309e-16 0)
(3 -1.55262e-15 0)
(3 -2.45567e-15 0)
(3 -2.29368e-15 0)
(3 -2.00607e-15 0)
(3 -2.04941e-15 0)
(3 -1.00933e-15 0)
(3 -3.02967e-16 0)
(3 -8.39105e-16 0)
(3 1.77438e-16 0)
(3 6.94977e-16 0)
(3 -5.41607e-16 0)
(3 -5.62084e-16 0)
(3 -6.78831e-16 0)
(3 -6.11584e-16 0)
(3 -1.13852e-15 0)
(3 -2.56133e-15 0)
(3 -3.34094e-15 0)
(3 -2.09414e-15 0)
(3 -7.4718e-16 0)
(3 4.76231e-16 0)
(3 1.26402e-16 0)
(3 3.08999e-17 0)
(3 3.29435e-16 0)
(3 -3.66657e-17 0)
(3 7.09674e-16 0)
(3 9.23226e-16 0)
(3 9.98697e-16 0)
(3 8.47112e-16 0)
(3 8.45116e-16 0)
(3 4.59507e-16 0)
(3 -5.98401e-16 0)
(3 -1.00134e-15 0)
(3 -1.44614e-15 0)
(3 -1.74005e-15 0)
(3 -1.98021e-15 0)
(3 -2.01358e-15 0)
(3 -2.54747e-15 0)
(3 -2.98749e-15 0)
(3 -2.16753e-15 0)
(3 -1.91463e-15 0)
(3 -1.8884e-15 0)
(3 -1.19007e-15 0)
(3 -7.65382e-16 0)
(3 -2.58633e-16 0)
(3 2.75966e-16 0)
(3 3.4224e-16 0)
(3 -5.00605e-16 0)
(3 -4.31206e-16 0)
(3 -2.75629e-16 0)
(3 -7.35282e-17 0)
(3 -3.16481e-16 0)
(3 -5.07673e-16 0)
(3 -2.82404e-15 0)
(3 -3.46792e-15 0)
(3 -3.22748e-15 0)
(3 -3.2028e-15 0)
(3 -2.77384e-15 0)
(3 -2.00611e-15 0)
(3 -9.85509e-16 0)
(3 -8.23638e-16 0)
(3 -4.74437e-16 0)
(3 -3.05183e-16 0)
(3 -1.19156e-15 0)
(3 -1.70909e-15 0)
(3 -2.25684e-15 0)
(3 -2.88271e-15 0)
(3 -3.05242e-15 0)
(3 -2.88584e-15 0)
(3 -3.06123e-15 0)
(3 -3.34375e-15 0)
(3 -3.23973e-15 0)
(3 -3.02456e-15 0)
(3 -2.52156e-15 0)
(3 -1.22242e-15 0)
(3 -9.98987e-16 0)
(3 -9.72175e-16 0)
(3 1.02701e-16 0)
(3 1.25112e-15 0)
(3 4.32029e-16 0)
(3 1.35636e-16 0)
(3 -1.66259e-16 0)
(3 -8.44602e-17 0)
(3 -3.58075e-16 0)
(3 -6.57582e-16 0)
(3 -1.05616e-15 0)
(3 -1.0507e-15 0)
(3 -8.2891e-16 0)
(3 -4.5548e-16 0)
(3 -6.45333e-17 0)
(3 6.44771e-16 0)
(3 9.81255e-16 0)
(3 4.95605e-16 0)
(3 6.81654e-16 0)
(3 9.2833e-16 0)
(3 6.86452e-16 0)
(3 4.71477e-16 0)
(3 4.40175e-16 0)
(3 4.58981e-16 0)
(3 9.06147e-16 0)
(3 5.14483e-16 0)
(3 5.88445e-16 0)
(3 6.4995e-16 0)
(3 2.89352e-16 0)
(3 2.89668e-16 0)
(3 1.07883e-16 0)
(3 8.87136e-17 0)
(3 -4.77296e-16 0)
(3 -8.46258e-16 0)
(3 -6.58449e-16 0)
(3 5.28973e-16 0)
(3 2.31189e-15 0)
(3 3.18192e-15 0)
(3 2.42425e-15 0)
(3 1.69149e-15 0)
(3 1.6586e-15 0)
(3 -1.55133e-15 0)
(3 -2.44863e-15 0)
(3 -2.20139e-15 0)
(3 -2.48603e-15 0)
(3 -1.43773e-15 0)
(3 4.21592e-16 0)
(3 7.93023e-16 0)
(3 1.53846e-17 0)
(3 -5.61496e-16 0)
(3 -9.58984e-16 0)
(3 -2.11066e-15 0)
(3 -2.66131e-15 0)
(3 -2.72155e-15 0)
(3 -1.66467e-15 0)
(3 -1.09683e-15 0)
(3 -1.3053e-15 0)
(3 -1.34626e-15 0)
(3 -1.05752e-15 0)
(3 -8.65911e-16 0)
(3 -2.73554e-16 0)
(3 4.61695e-17 0)
(3 2.61439e-16 0)
(3 5.1041e-16 0)
(3 8.12238e-16 0)
(3 1.36208e-15 0)
(3 8.23753e-16 0)
(3 8.11867e-16 0)
(3 4.30349e-16 0)
(3 4.10797e-16 0)
(3 7.33577e-16 0)
(3 3.80217e-16 0)
(3 -6.65629e-17 0)
(3 -1.07604e-15 0)
(3 -9.90029e-16 0)
(3 -3.47487e-16 0)
(3 1.8732e-16 0)
(3 6.24178e-16 0)
(3 1.55006e-15 0)
(3 2.14629e-15 0)
(3 2.88593e-15 0)
(3 2.72781e-15 0)
(3 2.35297e-15 0)
(3 2.17728e-15 0)
(3 1.95391e-15 0)
(3 1.35068e-15 0)
(3 1.21023e-15 0)
(3 -1.53073e-16 0)
(3 -1.56442e-16 0)
(3 -6.9271e-16 0)
(3 -7.60718e-16 0)
(3 -1.82541e-16 0)
(3 4.96887e-16 0)
(3 8.03915e-16 0)
(3 6.42305e-16 0)
(3 6.62515e-16 0)
(3 5.11112e-16 0)
(3 -9.60555e-17 0)
(3 7.09958e-17 0)
(3 -1.67258e-17 0)
(3 -5.10987e-16 0)
(3 -1.08187e-15 0)
(3 -1.35758e-15 0)
(3 -6.68294e-16 0)
(3 2.30557e-16 0)
(3 2.63284e-16 0)
(3 4.33359e-16 0)
(3 6.3217e-16 0)
(3 7.66778e-16 0)
(3 8.11522e-16 0)
(3 1.17741e-15 0)
(3 3.96023e-16 0)
(3 1.0042e-15 0)
(3 2.34327e-15 0)
(3 1.90952e-15 0)
(3 1.51642e-15 0)
(3 1.03456e-15 0)
(3 -4.45309e-17 0)
(3 -1.47513e-15 0)
(3 -1.67804e-15 0)
(3 -1.25082e-15 0)
(3 -1.33218e-15 0)
(3 -1.21064e-15 0)
(3 -6.35159e-16 0)
(3 4.53223e-17 0)
(3 9.75189e-16 0)
(3 1.24361e-15 0)
(3 1.03732e-15 0)
(3 4.04331e-16 0)
(3 1.9032e-16 0)
(3 3.814e-17 0)
(3 -4.06166e-17 0)
(3 -4.40689e-16 0)
(3 -8.65884e-16 0)
(3 -1.32816e-15 0)
(3 -1.10449e-15 0)
(3 -7.08769e-16 0)
(3 -3.66557e-16 0)
(3 -1.7687e-15 0)
(3 -1.62033e-15 0)
(3 -2.22903e-15 0)
(3 -2.53225e-15 0)
(3 -1.26523e-15 0)
(3 -1.36407e-16 0)
(3 -7.31631e-17 0)
(3 4.06596e-16 0)
(3 5.64123e-16 0)
(3 7.04804e-17 0)
(3 -7.30887e-16 0)
(3 -1.50038e-15 0)
(3 -2.23231e-15 0)
(3 -2.95589e-15 0)
(3 -2.80189e-15 0)
(3 -3.03574e-15 0)
(3 -3.47558e-15 0)
(3 -3.72325e-15 0)
(3 -2.00985e-15 0)
(3 -1.68193e-15 0)
(3 -1.93824e-15 0)
(3 -1.29313e-15 0)
(3 -5.21142e-16 0)
(3 9.0548e-16 0)
(3 1.47333e-15 0)
(3 9.25178e-16 0)
(3 -1.41885e-16 0)
(3 -2.94307e-16 0)
(3 -3.62955e-16 0)
(3 1.37934e-16 0)
(3 2.65981e-16 0)
(3 -4.08982e-16 0)
(3 -1.76026e-15 0)
(3 -2.38324e-15 0)
(3 -2.14018e-15 0)
(3 -1.53355e-15 0)
(3 -6.91488e-16 0)
(3 5.40426e-16 0)
(3 7.31527e-16 0)
(3 -3.75947e-17 0)
(3 1.69247e-16 0)
(3 -5.88834e-16 0)
(3 -7.87748e-16 0)
(3 -1.25706e-15 0)
(3 -1.50235e-15 0)
(3 -2.52845e-15 0)
(3 -2.7553e-15 0)
(3 -1.63826e-15 0)
(3 -1.7939e-15 0)
(3 -1.99487e-15 0)
(3 -1.91992e-15 0)
(3 -1.7923e-15 0)
(3 -6.68361e-16 0)
(3 1.01397e-15 0)
(3 1.53694e-15 0)
(3 1.4498e-15 0)
(3 1.14801e-15 0)
(3 7.47002e-16 0)
(3 3.19931e-16 0)
(3 -5.93373e-17 0)
(3 1.51053e-16 0)
(3 1.21717e-16 0)
(3 2.20662e-17 0)
(3 -2.33585e-16 0)
(3 -4.08249e-16 0)
(3 -4.37002e-16 0)
(3 -2.48895e-16 0)
(3 1.53453e-16 0)
(3 1.36119e-15 0)
(3 2.11838e-15 0)
(3 1.88826e-15 0)
(3 1.80716e-15 0)
(3 1.6788e-15 0)
(3 1.66345e-15 0)
(3 1.71737e-15 0)
(3 1.39853e-15 0)
(3 9.53468e-16 0)
(3 9.20099e-16 0)
(3 1.26877e-15 0)
(3 1.57975e-15 0)
(3 1.37633e-15 0)
(3 3.11346e-16 0)
(3 -1.9157e-15 0)
(3 -2.68971e-15 0)
(3 -9.16221e-16 0)
(3 -8.15019e-17 0)
(3 4.12244e-16 0)
(3 3.63912e-16 0)
(3 5.70693e-16 0)
(3 1.70042e-15 0)
(3 2.33664e-15 0)
(3 2.91116e-15 0)
(3 1.62012e-15 0)
(3 2.55914e-16 0)
(3 -3.50765e-16 0)
(3 -7.80062e-16 0)
(3 -1.02978e-15 0)
(3 -5.47518e-16 0)
(3 -2.0782e-16 0)
(3 -1.13943e-16 0)
(3 9.63242e-16 0)
(3 7.91571e-16 0)
(3 4.96243e-16 0)
(3 2.96651e-16 0)
(3 -1.69467e-15 0)
(3 -2.47257e-15 0)
(3 -3.04176e-15 0)
(3 -3.36e-15 0)
(3 -2.24513e-15 0)
(3 -1.30974e-15 0)
(3 -1.17984e-15 0)
(3 -8.48933e-16 0)
(3 1.80632e-17 0)
(3 1.21313e-15 0)
(3 1.48021e-15 0)
(3 1.29543e-15 0)
(3 6.14417e-16 0)
(3 9.27781e-16 0)
(3 1.77961e-15 0)
(3 2.3952e-15 0)
(3 2.66795e-15 0)
(3 1.23705e-15 0)
(3 -5.87915e-16 0)
(3 -6.10147e-16 0)
(3 6.3551e-17 0)
(3 -6.82114e-17 0)
(3 -3.15122e-16 0)
(3 -5.24981e-16 0)
(3 -1.31104e-15 0)
(3 -1.06236e-15 0)
(3 -1.88743e-16 0)
(3 2.04423e-16 0)
(3 1.02607e-15 0)
(3 2.2486e-15 0)
(3 3.87009e-15 0)
(3 3.81777e-15 0)
(3 3.04837e-15 0)
(3 2.6152e-15 0)
(3 2.20064e-15 0)
(3 1.68266e-15 0)
(3 1.24457e-15 0)
(3 3.1631e-17 0)
(3 -3.39351e-17 0)
(3 -2.15838e-16 0)
(3 -3.72352e-16 0)
(3 -3.66401e-16 0)
(3 -1.51748e-17 0)
(3 -9.14173e-17 0)
(3 5.5274e-16 0)
(3 5.2526e-16 0)
(3 6.02435e-16 0)
(3 1.47355e-16 0)
(3 7.63702e-17 0)
(3 -3.86124e-16 0)
(3 -8.33465e-16 0)
(3 -1.1869e-15 0)
(3 -1.5102e-15 0)
(3 -1.13055e-15 0)
(3 -4.358e-16 0)
(3 -9.76364e-17 0)
(3 -2.77097e-16 0)
(3 -5.70519e-16 0)
(3 -1.79112e-16 0)
(3 1.31747e-15 0)
(3 1.81335e-15 0)
(3 1.53844e-15 0)
(3 1.7025e-15 0)
(3 2.22597e-15 0)
(3 2.89973e-15 0)
(3 2.88633e-15 0)
(3 1.86003e-15 0)
(3 5.16297e-16 0)
(3 4.92756e-16 0)
(3 3.13431e-16 0)
(3 -1.13714e-16 0)
(3 -1.70444e-16 0)
(3 2.20884e-16 0)
(3 2.92353e-17 0)
(3 -6.68386e-16 0)
(3 -6.65402e-17 0)
(3 8.64845e-16 0)
(3 7.54224e-16 0)
(3 3.64399e-16 0)
(3 5.01935e-17 0)
(3 -1.0723e-17 0)
(3 -1.69714e-16 0)
(3 1.96036e-17 0)
(3 2.36079e-16 0)
(3 3.77966e-16 0)
(3 1.85217e-16 0)
(3 6.74735e-16 0)
(3 -3.94458e-16 0)
(3 -2.13687e-15 0)
(3 -2.44324e-15 0)
(3 -2.50166e-15 0)
(3 -1.87697e-15 0)
(3 -1.70314e-15 0)
(3 -9.294e-16 0)
(3 -5.19659e-16 0)
(3 -6.37627e-16 0)
(3 -5.78597e-16 0)
(3 -6.52015e-16 0)
(3 -1.1878e-15 0)
(3 -2.44464e-15 0)
(3 -3.05572e-15 0)
(3 -4.19094e-15 0)
(3 -3.4792e-15 0)
(3 -2.66546e-15 0)
(3 -2.22834e-15 0)
(3 -2.60288e-15 0)
(3 -2.94784e-15 0)
(3 -2.74085e-15 0)
(3 -1.86653e-15 0)
(3 -1.10158e-15 0)
(3 -3.84161e-16 0)
(3 4.52942e-16 0)
(3 6.65838e-16 0)
(3 5.11784e-16 0)
(3 9.79542e-16 0)
(3 7.07555e-16 0)
(3 4.69996e-17 0)
(3 -1.21493e-16 0)
(3 3.6642e-16 0)
(3 7.7215e-16 0)
(3 9.75796e-16 0)
(3 4.37648e-16 0)
(3 3.76503e-16 0)
(3 1.02146e-15 0)
(3 1.81511e-15 0)
(3 2.58752e-15 0)
(3 2.63954e-15 0)
(3 5.3948e-16 0)
(3 -2.4829e-16 0)
(3 -6.5218e-16 0)
(3 -3.21058e-16 0)
(3 4.24998e-16 0)
(3 -8.37018e-17 0)
(3 -1.13373e-15 0)
(3 -1.68879e-15 0)
(3 -1.58487e-15 0)
(3 -8.14383e-16 0)
(3 -6.97163e-17 0)
(3 8.16197e-16 0)
(3 1.71207e-15 0)
(3 2.81733e-15 0)
(3 3.34625e-15 0)
(3 3.72622e-15 0)
(3 3.51274e-15 0)
(3 1.46903e-15 0)
(3 2.04417e-16 0)
(3 4.34756e-16 0)
(3 1.90845e-16 0)
(3 1.04698e-16 0)
(3 1.2366e-16 0)
(3 2.64749e-16 0)
(3 2.87298e-16 0)
(3 2.7486e-16 0)
(3 5.50993e-16 0)
(3 9.26574e-16 0)
(3 1.46157e-15 0)
(3 1.42491e-15 0)
(3 1.28213e-15 0)
(3 1.62205e-15 0)
(3 2.37784e-15 0)
(3 2.45858e-15 0)
(3 2.23323e-15 0)
(3 2.56572e-15 0)
(3 2.21002e-15 0)
(3 3.22276e-15 0)
(3 3.4089e-15 0)
(3 2.5858e-15 0)
(3 2.1705e-15 0)
(3 1.73431e-15 0)
(3 1.32764e-15 0)
(3 -2.13408e-15 0)
(3 -4.26674e-15 0)
(3 -3.52642e-15 0)
(3 -1.70661e-15 0)
(3 1.03626e-15 0)
(3 1.9672e-15 0)
(3 1.75384e-15 0)
(3 1.44268e-15 0)
(3 2.07021e-15 0)
(3 2.13116e-15 0)
(3 1.73315e-15 0)
(3 -5.44185e-16 0)
(3 -1.16816e-15 0)
(3 -6.61223e-16 0)
(3 -2.85299e-16 0)
(3 -1.21791e-16 0)
(3 3.79069e-16 0)
(3 -2.14121e-16 0)
(3 -3.94276e-16 0)
(3 -2.752e-16 0)
(3 -3.80639e-16 0)
(3 -7.30309e-16 0)
(3 -1.66145e-15 0)
(3 -1.75345e-15 0)
(3 -1.73677e-15 0)
(3 -1.47826e-15 0)
(3 -5.64215e-16 0)
(3 1.10741e-16 0)
(3 6.334e-16 0)
(3 9.65527e-16 0)
(3 1.56233e-15 0)
(3 1.97723e-15 0)
(3 2.01824e-15 0)
(3 2.02277e-15 0)
(3 1.44071e-15 0)
(3 1.34393e-15 0)
(3 1.50126e-15 0)
(3 1.43394e-15 0)
(3 9.96788e-16 0)
(3 2.42534e-16 0)
(3 -3.80183e-16 0)
(3 -1.13677e-15 0)
(3 -1.42044e-15 0)
(3 -1.45718e-15 0)
(3 -8.76085e-16 0)
(3 -9.38976e-16 0)
(3 -1.52614e-15 0)
(3 -1.97864e-15 0)
(3 -1.9e-15 0)
(3 -4.32705e-16 0)
(3 1.14555e-15 0)
(3 2.55619e-15 0)
(3 2.96779e-15 0)
(3 3.23832e-15 0)
(3 3.17141e-15 0)
(3 3.00198e-15 0)
(3 1.8342e-15 0)
(3 1.04475e-15 0)
(3 7.30036e-16 0)
(3 -6.74375e-17 0)
(3 -1.52812e-16 0)
(3 4.46355e-16 0)
(3 4.4171e-16 0)
(3 8.50143e-17 0)
(3 3.1908e-16 0)
(3 4.81329e-16 0)
(3 7.48406e-16 0)
(3 6.7518e-16 0)
(3 3.39403e-16 0)
(3 7.96272e-16 0)
(3 -3.43045e-17 0)
(3 -6.06728e-16 0)
(3 -5.44344e-16 0)
(3 -6.98466e-16 0)
(3 -7.69619e-16 0)
(3 -1.20875e-15 0)
(3 -5.92782e-16 0)
(3 3.87578e-16 0)
(3 3.08288e-16 0)
(3 -6.42681e-16 0)
(3 -6.61501e-16 0)
(3 1.81257e-16 0)
(3 2.83477e-16 0)
(3 3.2339e-16 0)
(3 3.02566e-16 0)
(3 5.99797e-16 0)
(3 1.16657e-15 0)
(3 1.11484e-15 0)
(3 5.18202e-16 0)
(3 6.08506e-16 0)
(3 1.32162e-15 0)
(3 9.70147e-16 0)
(3 4.05276e-17 0)
(3 3.01149e-16 0)
(3 1.02284e-15 0)
(3 2.19265e-16 0)
(3 -7.16415e-16 0)
(3 -6.03963e-16 0)
(3 -1.07318e-15 0)
(3 -1.16011e-15 0)
(3 -3.09104e-16 0)
(3 1.63581e-16 0)
(3 1.8147e-17 0)
(3 4.11391e-16 0)
(3 9.44659e-16 0)
(3 1.11625e-15 0)
(3 7.6245e-16 0)
(3 8.25096e-16 0)
(3 1.01963e-15 0)
(3 -5.24599e-17 0)
(3 -1.49318e-15 0)
(3 -1.9333e-15 0)
(3 -1.87584e-15 0)
(3 -1.28287e-15 0)
(3 -1.04745e-15 0)
(3 -5.98162e-16 0)
(3 -3.58693e-16 0)
(3 -8.14686e-16 0)
(3 -1.55083e-15 0)
(3 -1.88573e-15 0)
(3 -1.961e-15 0)
(3 -2.87399e-15 0)
(3 -3.30596e-15 0)
(3 -2.756e-15 0)
(3 -2.00566e-15 0)
(3 -1.39665e-15 0)
(3 -1.16318e-15 0)
(3 -1.40352e-15 0)
(3 -1.91806e-15 0)
(3 -1.84014e-15 0)
(3 -1.1073e-15 0)
(3 -1.04188e-15 0)
(3 -5.75781e-16 0)
(3 -4.83339e-16 0)
(3 2.19109e-16 0)
(3 1.1375e-15 0)
(3 4.39427e-16 0)
(3 1.40353e-16 0)
(3 -1.92887e-16 0)
(3 -2.37112e-16 0)
(3 1.60559e-16 0)
(3 1.03146e-15 0)
(3 2.65119e-15 0)
(3 3.02485e-15 0)
(3 3.12804e-15 0)
(3 2.96056e-15 0)
(3 1.87734e-15 0)
(3 2.18433e-15 0)
(3 2.82352e-15 0)
(3 1.48214e-15 0)
(3 4.31137e-16 0)
(3 4.34326e-16 0)
(3 7.54123e-16 0)
(3 1.62595e-15 0)
(3 1.63294e-15 0)
(3 1.10473e-15 0)
(3 2.7147e-16 0)
(3 -7.90448e-16 0)
(3 -4.90371e-16 0)
(3 2.71794e-16 0)
(3 2.09083e-15 0)
(3 3.7568e-15 0)
(3 3.84074e-15 0)
(3 3.39869e-15 0)
(3 3.18925e-15 0)
(3 2.71005e-15 0)
(3 1.31367e-15 0)
(3 2.58256e-16 0)
(3 3.5568e-16 0)
(3 1.41304e-16 0)
(3 5.45064e-16 0)
(3 9.05047e-16 0)
(3 6.57162e-16 0)
(3 2.05774e-16 0)
(3 7.10969e-17 0)
(3 1.52669e-15 0)
(3 2.00005e-15 0)
(3 1.93348e-15 0)
(3 1.35363e-15 0)
(3 1.13204e-15 0)
(3 1.30502e-15 0)
(3 1.592e-15 0)
(3 2.81444e-15 0)
(3 2.98218e-15 0)
(3 3.02447e-15 0)
(3 3.88634e-15 0)
(3 4.91089e-15 0)
(3 5.13576e-15 0)
(3 3.93166e-15 0)
(3 3.08898e-15 0)
(3 1.84803e-15 0)
(3 6.65854e-16 0)
(3 -2.5239e-15 0)
(3 -3.01768e-15 0)
(3 -3.08805e-15 0)
(3 -1.15396e-16 0)
(3 9.15246e-16 0)
(3 1.40713e-15 0)
(3 1.7248e-15 0)
(3 2.06379e-15 0)
(3 2.10546e-15 0)
(3 1.57596e-15 0)
(3 1.20793e-15 0)
(3 -4.3665e-16 0)
(3 -1.15714e-15 0)
(3 -2.30785e-16 0)
(3 -1.63768e-16 0)
(3 -4.68784e-16 0)
(3 -8.23026e-16 0)
(3 -1.42855e-15 0)
(3 -1.31665e-15 0)
(3 -9.44446e-16 0)
(3 -9.15585e-16 0)
(3 -1.55491e-15 0)
(3 -1.26631e-15 0)
(3 -4.85803e-16 0)
(3 5.38524e-16 0)
(3 5.17861e-16 0)
(3 4.10064e-16 0)
(3 1.03182e-15 0)
(3 1.22652e-15 0)
(3 1.24564e-15 0)
(3 1.03436e-15 0)
(3 8.64457e-16 0)
(3 2.759e-16 0)
(3 -7.03076e-17 0)
(3 7.25306e-16 0)
(3 1.13867e-15 0)
(3 1.78042e-15 0)
(3 1.30064e-15 0)
(3 2.24052e-16 0)
(3 1.12975e-16 0)
(3 4.83751e-17 0)
(3 -9.81813e-16 0)
(3 -1.75007e-15 0)
(3 -1.32063e-15 0)
(3 -1.35424e-15 0)
(3 -7.34359e-16 0)
(3 -2.45854e-16 0)
(3 -8.0919e-16 0)
(3 1.46717e-16 0)
(3 1.13188e-15 0)
(3 1.26346e-15 0)
(3 1.28005e-15 0)
(3 1.36026e-15 0)
(3 2.12443e-15 0)
(3 2.79701e-15 0)
(3 3.0342e-15 0)
(3 2.61349e-15 0)
(3 1.64929e-15 0)
(3 1.53702e-15 0)
(3 -2.56787e-16 0)
(3 -2.12085e-16 0)
(3 -1.78569e-16 0)
(3 -2.40389e-17 0)
(3 1.95145e-16 0)
(3 -7.08599e-18 0)
(3 1.14194e-16 0)
(3 -3.35728e-16 0)
(3 -3.54804e-16 0)
(3 1.63355e-16 0)
(3 -2.77585e-16 0)
(3 -3.69878e-16 0)
(3 -1.12284e-16 0)
(3 -3.93192e-16 0)
(3 -7.45757e-16 0)
(3 -1.12072e-15 0)
(3 -1.60244e-15 0)
(3 -8.09737e-16 0)
(3 -1.57641e-16 0)
(3 1.14088e-16 0)
(3 3.05325e-16 0)
(3 7.45206e-16 0)
(3 9.67792e-16 0)
(3 1.02971e-15 0)
(3 9.23881e-16 0)
(3 6.12874e-16 0)
(3 7.37186e-16 0)
(3 1.20013e-15 0)
(3 1.48523e-15 0)
(3 1.42065e-15 0)
(3 2.01993e-15 0)
(3 1.57244e-15 0)
(3 1.24481e-15 0)
(3 1.1815e-15 0)
(3 1.15624e-15 0)
(3 3.99428e-16 0)
(3 8.38319e-17 0)
(3 3.66516e-16 0)
(3 5.33041e-17 0)
(3 -1.73359e-15 0)
(3 -1.66375e-15 0)
(3 -6.83138e-16 0)
(3 4.17044e-17 0)
(3 8.76292e-17 0)
(3 4.89477e-16 0)
(3 1.06499e-15 0)
(3 1.85148e-15 0)
(3 1.6177e-15 0)
(3 1.78866e-15 0)
(3 1.67778e-15 0)
(3 -3.25504e-16 0)
(3 -9.83661e-16 0)
(3 -8.65963e-16 0)
(3 -7.42377e-16 0)
(3 -5.32698e-16 0)
(3 -2.86392e-16 0)
(3 -3.90519e-16 0)
(3 -5.83994e-16 0)
(3 -7.92295e-16 0)
(3 -1.31994e-15 0)
(3 -2.33991e-15 0)
(3 -2.26361e-15 0)
(3 -1.73336e-15 0)
(3 -1.40002e-15 0)
(3 -4.79212e-16 0)
(3 -1.20051e-16 0)
(3 -3.41875e-17 0)
(3 6.97421e-17 0)
(3 1.52633e-16 0)
(3 3.71638e-17 0)
(3 -1.33681e-16 0)
(3 -1.35492e-16 0)
(3 -3.81801e-16 0)
(3 -5.7117e-16 0)
(3 -7.05061e-16 0)
(3 -5.60901e-16 0)
(3 -7.71767e-16 0)
(3 -8.33519e-16 0)
(3 -8.78699e-16 0)
(3 -2.16884e-16 0)
(3 6.61183e-16 0)
(3 6.0868e-16 0)
(3 1.90587e-15 0)
(3 3.09177e-15 0)
(3 4.50737e-15 0)
(3 5.46486e-15 0)
(3 5.2827e-15 0)
(3 2.82204e-15 0)
(3 1.97025e-15 0)
(3 1.54447e-15 0)
(3 1.78501e-15 0)
(3 1.84294e-15 0)
(3 2.0701e-15 0)
(3 2.65963e-15 0)
(3 2.40421e-15 0)
(3 2.91723e-15 0)
(3 2.49834e-15 0)
(3 6.79596e-16 0)
(3 -4.50522e-16 0)
(3 2.62428e-16 0)
(3 1.72958e-15 0)
(3 2.47988e-15 0)
(3 2.47977e-15 0)
(3 2.30525e-15 0)
(3 1.94446e-15 0)
(3 9.51917e-16 0)
(3 8.80697e-16 0)
(3 1.5686e-15 0)
(3 1.82688e-15 0)
(3 7.02489e-16 0)
(3 8.70851e-17 0)
(3 5.06739e-16 0)
(3 7.34509e-16 0)
(3 5.6284e-16 0)
(3 5.6845e-16 0)
(3 4.86729e-16 0)
(3 9.87938e-16 0)
(3 1.32526e-15 0)
(3 1.69214e-15 0)
(3 2.30591e-15 0)
(3 2.66053e-15 0)
(3 2.00009e-15 0)
(3 8.25947e-16 0)
(3 1.46775e-15 0)
(3 2.59752e-15 0)
(3 3.88161e-15 0)
(3 4.27249e-15 0)
(3 3.4718e-15 0)
(3 2.54618e-15 0)
(3 2.72164e-15 0)
(3 2.81258e-15 0)
(3 2.14737e-15 0)
(3 8.6267e-16 0)
(3 -4.49774e-16 0)
(3 -6.89164e-16 0)
(3 -5.84836e-16 0)
(3 1.06738e-16 0)
(3 -5.50193e-17 0)
(3 1.92017e-16 0)
(3 1.68263e-15 0)
(3 2.29986e-15 0)
(3 2.25217e-15 0)
(3 1.07293e-15 0)
(3 5.97489e-16 0)
(3 -1.53436e-16 0)
(3 -1.58874e-15 0)
(3 -1.47007e-15 0)
(3 -6.83768e-17 0)
(3 -1.33239e-16 0)
(3 -1.15794e-15 0)
(3 -1.34125e-15 0)
(3 -2.10802e-15 0)
(3 -2.19411e-15 0)
(3 -1.66343e-15 0)
(3 -2.13598e-15 0)
(3 -1.87665e-15 0)
(3 -4.23444e-16 0)
(3 6.35325e-16 0)
(3 1.79781e-15 0)
(3 2.24045e-15 0)
(3 1.73019e-15 0)
(3 9.59975e-16 0)
(3 6.64381e-16 0)
(3 7.25636e-16 0)
(3 7.02622e-16 0)
(3 -8.98255e-17 0)
(3 -8.94537e-16 0)
(3 1.75477e-16 0)
(3 1.30523e-15 0)
(3 1.69569e-15 0)
(3 1.93381e-15 0)
(3 1.01749e-15 0)
(3 -5.68839e-17 0)
(3 -3.07492e-16 0)
(3 -4.03682e-16 0)
(3 -7.4163e-16 0)
(3 -8.50295e-16 0)
(3 -2.10568e-16 0)
(3 1.05925e-15 0)
(3 1.31171e-15 0)
(3 1.63471e-15 0)
(3 8.51541e-16 0)
(3 3.64317e-17 0)
(3 3.03567e-16 0)
(3 4.02141e-16 0)
(3 7.14258e-16 0)
(3 1.05138e-15 0)
(3 1.6175e-15 0)
(3 2.11087e-15 0)
(3 2.07738e-15 0)
(3 2.36095e-15 0)
(3 1.98423e-15 0)
(3 2.73433e-16 0)
(3 5.18782e-16 0)
(3 3.17547e-16 0)
(3 7.34453e-18 0)
(3 -8.96945e-17 0)
(3 -5.71556e-16 0)
(3 -1.29387e-15 0)
(3 -1.80996e-15 0)
(3 -1.60462e-15 0)
(3 -1.15746e-15 0)
(3 -5.82144e-16 0)
(3 3.18459e-16 0)
(3 3.24243e-16 0)
(3 1.43852e-16 0)
(3 -3.16719e-16 0)
(3 -1.04516e-15 0)
(3 -7.0919e-16 0)
(3 -2.04038e-17 0)
(3 5.023e-16 0)
(3 7.87238e-16 0)
(3 1.16799e-15 0)
(3 9.72154e-16 0)
(3 6.3021e-16 0)
(3 1.11441e-15 0)
(3 9.13597e-16 0)
(3 1.83769e-16 0)
(3 7.73883e-16 0)
(3 4.64341e-16 0)
(3 4.43106e-16 0)
(3 8.71977e-16 0)
(3 4.06155e-16 0)
(3 2.96774e-16 0)
(3 1.48687e-15 0)
(3 1.7026e-15 0)
(3 6.49504e-16 0)
(3 -3.14233e-16 0)
(3 -2.57799e-16 0)
(3 3.53389e-16 0)
(3 -3.8669e-16 0)
(3 -1.29736e-15 0)
(3 -1.24205e-15 0)
(3 -1.16287e-15 0)
(3 -1.23208e-15 0)
(3 -1.02361e-15 0)
(3 -6.10182e-16 0)
(3 -1.29264e-16 0)
(3 1.13763e-15 0)
(3 2.10382e-15 0)
(3 6.85969e-16 0)
(3 2.61657e-17 0)
(3 -4.69718e-16 0)
(3 -1.28779e-15 0)
(3 -1.19593e-15 0)
(3 -9.69064e-16 0)
(3 -8.12048e-16 0)
(3 -1.41649e-15 0)
(3 -1.36041e-15 0)
(3 -1.19872e-15 0)
(3 -1.59776e-15 0)
(3 -1.69751e-15 0)
(3 -1.39962e-15 0)
(3 -1.08113e-15 0)
(3 -1.04747e-16 0)
(3 2.08934e-17 0)
(3 3.05096e-16 0)
(3 7.49207e-16 0)
(3 6.57709e-16 0)
(3 9.42937e-16 0)
(3 8.79942e-16 0)
(3 7.31301e-16 0)
(3 5.63658e-16 0)
(3 4.30259e-16 0)
(3 5.2038e-16 0)
(3 1.82982e-16 0)
(3 1.06545e-16 0)
(3 -1.07938e-15 0)
(3 -2.49905e-15 0)
(3 -1.9616e-15 0)
(3 -6.87946e-16 0)
(3 -2.59838e-16 0)
(3 8.37375e-16 0)
(3 1.79511e-15 0)
(3 2.01389e-15 0)
(3 3.58593e-15 0)
(3 4.34028e-15 0)
(3 5.11216e-15 0)
(3 4.14089e-15 0)
(3 3.30306e-15 0)
(3 1.08855e-15 0)
(3 1.07043e-15 0)
(3 1.65608e-15 0)
(3 2.51394e-15 0)
(3 3.22841e-15 0)
(3 2.47037e-15 0)
(3 2.2989e-15 0)
(3 2.85312e-15 0)
(3 2.68165e-15 0)
(3 2.22689e-15 0)
(3 1.84678e-15 0)
(3 1.46361e-15 0)
(3 2.0049e-15 0)
(3 2.18786e-15 0)
(3 1.59673e-15 0)
(3 8.18772e-16 0)
(3 5.80658e-16 0)
(3 4.79686e-16 0)
(3 6.1627e-16 0)
(3 2.72516e-15 0)