/*--------------------------------*- C++ -*----------------------------------*\
  =========                 |
  \\      /  F ield         | OpenFOAM: The Open Source CFD Toolbox
   \\    /   O peration     | Website:  https://openfoam.org
    \\  /    A nd           | Version:  7
     \\/     M anipulation  |
\*---------------------------------------------------------------------------*/
FoamFile
{
    version     2.0;
    format      ascii;
    class       volScalarField;
    location    "3.9";
    object      T;
}
// * * * * * * * * * * * * * * * * * * * * * * * * * * * * * * * * * * * * * //

dimensions      [0 0 0 1 0 0 0];

internalField   nonuniform List<scalar> 
4128
(
1
1
1
1
1
1
1
1
1
1
1
1
1
1
1
1
1
1
1
1
1
1
1
1
1
1
1
1
1
1
1
1
1
1
1
1
1
1
1
1
1
1
1
1
1
1
1
1
1
1
1
1
1
1
1
1
1
1
1
1
1
1
1
1
1
1
1
1
1
1
1
1
2.06459
2.68159
2.70477
2.71174
2.72042
2.72792
2.73502
2.74173
2.74824
2.75466
2.76096
2.76697
2.77256
2.77767
2.78235
2.7867
2.79085
2.79481
2.79846
2.80171
2.80449
2.80667
2.80825
2.80934
1
1
1
1
1
1
1
1
1
1
1
1
1
1
1
1
1
1
1
1
1
1
1
1
1
1
1
1
1
1
1
1
1
1
1
1
1
1
1
1
1
1
1
1
1
1
1
1
1
1
1
1
1
1
1
1
1
1
1
1
1
1
1
1
1
1
1
1
1
1
1
1
2.05403
2.67925
2.70447
2.71149
2.72012
2.7276
2.73467
2.74135
2.74783
2.75422
2.76049
2.76647
2.77201
2.77708
2.78171
2.78601
2.79011
2.79401
2.79761
2.8008
2.80355
2.8057
2.80726
2.80835
1
1
1
1
1
1
1
1
1
1
1
1
1
1
1
1
1
1
1
1
1
1
1
1
1
1
1
1
1
1
1
1
1
1
1
1
1
1
1
1
1
1
1
1
1
1
1
1
1
1
1
1
1
1
1
1
1
1
1
1
1
1
1
1
1
1
1
1
1
1
1
1
2.02766
2.67568
2.70336
2.71051
2.71916
2.72667
2.73378
2.74049
2.74699
2.75339
2.75965
2.7656
2.77112
2.77616
2.78075
2.78502
2.78906
2.79287
2.79636
2.79942
2.80206
2.80414
2.80566
2.80675
1
1
1
1
1
1
1
1
1
1
1
1
1
1
1
1
1
1
1
1
1
1
1
1
1
1
1
1
1
1
1
1
1
1
1
1
1
1
1
1
1
1
1
1
1
1
1
1
1
1
1
1
1
1
1
1
1
1
1
1
1
1
1
1
1
1
1
1
1
1
1
1
1.98765
2.66922
2.70148
2.7088
2.71749
2.72506
2.73222
2.739
2.74554
2.75195
2.75818
2.76409
2.76956
2.77457
2.77916
2.78342
2.78746
2.79122
2.79462
2.79756
2.80001
2.80192
2.80328
2.80425
1
1
1
1
1
1
1
1
1
1
1
1
1
1
1
1
1
1
1
1
1
1
1
1
1
1
1
1
1
1
1
1
1
1
1
1
1
1
1
1
1
1
1
1
1
1
1
1
1
1
1
1
1
1
1
1
1
1
1
1
1
1
1
1
1
1
1
1
1
1
1
1
1.93353
2.65924
2.69847
2.70599
2.71477
2.72248
2.7298
2.73673
2.74339
2.74985
2.75606
2.7619
2.7673
2.77225
2.77679
2.78102
2.78502
2.78874
2.79208
2.79494
2.79733
2.79918
2.80045
2.8014
1
1
1
1
1
1
1
1
1
1
1
1
1
1
1
1
1
1
1
1
1
1
1
1
1
1
1
1
1
1
1
1
1
1
1
1
1
1
1
1
1
1
1
1
1
1
1
1
1
1
1
1
1
1
1
1
1
1
1
1
1
1
1
1
1
1
1
1
1
1
1
1
1.8615
2.64357
2.6943
2.70217
2.71115
2.71909
2.7267
2.73393
2.74083
2.74742
2.75365
2.75942
2.76471
2.76957
2.77404
2.7782
2.78211
2.78573
2.78895
2.79167
2.7939
2.79561
2.79673
2.7976
1
1
1
1
1
1
1
1
1
1
1
1
1
1
1
1
1
1
1
1
1
1
1
1
1
1
1
1
1
1
1
1
1
1
1
1
1
1
1
1
1
1
1
1
1
1
1
1
1
1
1
1
1
1
1
1
1
1
1
1
1
1
1
1
1
1
1
1
1
1
1
1
1.76995
2.61967
2.68925
2.69746
2.70656
2.71459
2.72244
2.72999
2.73718
2.74395
2.75022
2.75592
2.76114
2.76593
2.77036
2.7745
2.77837
2.7819
2.78501
2.78762
2.78974
2.79137
2.7924
2.79325
1
1
1
1
1
1
1
1
1
1
1
1
1
1
1
1
1
1
1
1
1
1
1
1
1
1
1
1
1
1
1
1
1
1
1
1
1
1
1
1
1
1
1
1
1
1
1
1
1
1
1
1
1
1
1
1
1
1
1
1
1
1
1
1
1
1
1
1
1
1
1
1
1.65938
2.58773
2.6849
2.69241
2.7013
2.70916
2.717
2.72469
2.7321
2.73904
2.74541
2.75114
2.75635
2.76115
2.76563
2.7698
2.77369
2.77719
2.78022
2.78271
2.78465
2.78611
2.78698
2.78772
1
1
1
1
1
1
1
1
1
1
1
1
1
1
1
1
1
1
1
1
1
1
1
1
1
1
1
1
1
1
1
1
1
1
1
1
1
1
1
1
1
1
1
1
1
1
1
1
1
1
1
1
1
1
1
1
1
1
1
1
1
1
1
1
1
1
1
1
1
1
1
1
1.52715
2.54276
2.68146
2.68681
2.69559
2.70317
2.71098
2.71878
2.72639
2.73351
2.74
2.74573
2.75089
2.75564
2.76009
2.76424
2.76805
2.77143
2.77429
2.77661
2.7784
2.77976
2.78054
2.78128
1
1
1
1
1
1
1
1
1
1
1
1
1
1
1
1
1
1
1
1
1
1
1
1
1
1
1
1
1
1
1
1
1
1
1
1
1
1
1
1
1
1
1
1
1
1
1
1
1
1
1
1
1
1
1
1
1
1
1
1
1
1
1
1
1
1
1
1
1
1
1
1
1.35968
2.47254
2.67608
2.6796
2.68874
2.69584
2.70351
2.71139
2.71928
2.72669
2.7334
2.73927
2.74446
2.74916
2.75355
2.75762
2.76135
2.76462
2.76736
2.76948
2.771
2.77198
2.77245
2.77293
1
1
1
1
1
1
1
1
1
1
1
1
1
1
1
1
1
1
1
1
1
1
1
1
1
1
1
1
1
1
1
1
1
1
1
1
1
1
1
1
1
1
1
1
1
1
1
1
1
1
1
1
1
1
1
1
1
1
1
1
1
1
1
1
1
1
1
1
1
1
1
1
1.16518
2.39103
2.67635
2.67203
2.68013
2.68715
2.695
2.70295
2.71089
2.71849
2.72544
2.73155
2.73687
2.7416
2.74595
2.74993
2.7535
2.7565
2.75882
2.76044
2.7615
2.76219
2.76257
2.76315
1
1
1
1
1
1
1
1
1
1
1
1
1
1
1
1
1
1
1
1
1
1
1
1
1
1
1
1
1
1
1
1
1
1
1
1
1
1
1
1
1
1
1
1
1
1
1
1
1
1
1
1
1
1
1
1
1
1
1
1
1
1
1
1
1
1
1
1
1
1
1
1
1.00901
2.31229
2.67098
2.66955
2.67601
2.68156
2.68794
2.69489
2.70234
2.70964
2.71646
2.72262
2.72804
2.73279
2.73708
2.74093
2.74427
2.74694
2.74887
2.75012
2.75069
2.75046
2.74986
2.74942
1
1
1
1
1
1
1
1
1
1
1
1
1
1
1
1
1
1
1
1
1
1
1
1
1
1
1
1
1
1
1
1
1
1
1
1
1
1
1
1
1
1
1
1
1
1
1
1
1
1
1
1
1
1
1
1
1
1
1
1
1
1
1
1
1
1
1
1
1
1
1
1
1.00004
2.19797
2.66842
2.67052
2.6757
2.68097
2.68566
2.69045
2.69525
2.70099
2.70703
2.71278
2.71802
2.72265
2.72682
2.73056
2.73369
2.73583
2.73685
2.73677
2.7358
2.73433
2.73266
2.73267
1
1
1
1
1
1
1
1
1
1
1
1
1
1
1
1
1
1
1
1
1
1
1
1
1
1
1
1
1
1
1
1
1
1
1
1
1
1
1
1
1
1
1
1
1
1
1
1
1
1
1
1
1
1
1
1
1
1
1
1
1
1
1
1
1
1
1
1
1
1
1
1
1
2.04728
2.65203
2.66922
2.67434
2.67925
2.68274
2.68598
2.68965
2.69367
2.69792
2.70252
2.70703
2.71123
2.71518
2.71857
2.72106
2.72235
2.72222
2.72116
2.71906
2.71621
2.71088
2.70442
1
1
1
1
1
1
1
1
1
1
1
1
1
1
1
1
1
1
1
1
1
1
1
1
1
1
1
1
1
1
1
1
1
1
1
1
1
1
1
1
1
1
1
1
1
1
1
1
1
1
1
1
1
1
1
1
1
1
1
1
1
1
1
1
1
1
1
1
1
1
1
1
1
1.84954
2.60192
2.66124
2.67094
2.67743
2.68147
2.68386
2.68571
2.68764
2.69024
2.69308
2.69604
2.69928
2.70255
2.70487
2.7064
2.70671
2.70547
2.70244
2.6964
2.68653
2.67494
2.6655
1
1
1
1
1
1
1
1
1
1
1
1
1
1
1
1
1
1
1
1
1
1
1
1
1
1
1
1
1
1
1
1
1
1
1
1
1
1
1
1
1
1
1
1
1
1
1
1
1
1
1
1
1
1
1
1
1
1
1
1
1
1
1
1
1
1
1
1
1
1
1
1
1
1.58966
2.50185
2.63902
2.65663
2.66796
2.67527
2.67939
2.68166
2.68301
2.68394
2.68492
2.686
2.68756
2.68902
2.68986
2.68986
2.68875
2.68544
2.67904
2.66828
2.65357
2.64122
2.64354
1
1
1
1
1
1
1
1
1
1
1
1
1
1
1
1
1
1
1
1
1
1
1
1
1
1
1
1
1
1
1
1
1
1
1
1
1
1
1
1
1
1
1
1
1
1
1
1
1
1
1
1
1
1
1
1
1
1
1
1
1
1
1
1
1
1
1
1
1
1
1
1
1
1.24596
2.3753
2.62191
2.63435
2.64956
2.66129
2.66908
2.67391
2.67657
2.67758
2.67755
2.67722
2.67691
2.6758
2.67456
2.67239
2.66894
2.66297
2.65327
2.63655
2.60738
2.54532
2.42327
1
1
1
1
1
1
1
1
1
1
1
1
1
1
1
1
1
1
1
1
1
1
1
1
1
1
1
1
1
1
1
1
1
1
1
1
1
1
1
1
1
1
1
1
1
1
1
1
1
1
1
1
1
1
1
1
1
1
1
1
1
1
1
1
1
1
1
1
1
1
1
1
1
1.0176
2.27079
2.62344
2.62021
2.62821
2.64021
2.65152
2.66023
2.66593
2.66879
2.66908
2.66821
2.66625
2.66316
2.65944
2.65447
2.648
2.63856
2.6238
2.59916
2.5525
2.47947
2.29046
1
1
1
1
1
1
1
1
1
1
1
1
1
1
1
1
1
1
1
1
1
1
1
1
1
1
1
1
1
1
1
1
1
1
1
1
1
1
1
1
1
1
1
1
1
1
1
1
1
1
1
1
1
1
1
1
1
1
1
1
1
1
1
1
1
1
1
1
1
1
1
1
1
1.00004
2.0945
2.6056
2.60853
2.61436
2.62236
2.6324
2.64251
2.65046
2.65604
2.65818
2.65763
2.65527
2.651
2.64507
2.63717
2.62708
2.61356
2.59356
2.56266
2.50971
2.41761
2.21986
1
1
1
1
1
1
1
1
1
1
1
1
1
1
1
1
1
1
1
1
1
1
1
1
1
1
1
1
1
1
1
1
1
1
1
1
1
1
1
1
1
1
1
1
1
1
1
1
1
1
1
1
1
1
1
1
1
1
1
1
1
1
1
1
1
1
1
1
1
1
1
1
1
1
1.82773
2.56021
2.6095
2.61172
2.61493
2.61939
2.62602
2.63295
2.63959
2.64373
2.64435
2.64253
2.63803
2.63069
2.62051
2.607
2.5893
2.56465
2.52807
2.47351
2.37041
2.202
1
1
1
1
1
1
1
1
1
1
1
1
1
1
1
1
1
1
1
1
1
1
1
1
1
1
1
1
1
1
1
1
1
1
1
1
1
1
1
1
1
1
1
1
1
1
1
1
1
1
1
1
1
1
1
1
1
1
1
1
1
1
1
1
1
1
1
1
1
1
1
1
1
1
1.44798
2.43848
2.60277
2.60474
2.60797
2.61051
2.61415
2.61781
2.62254
2.62675
2.62846
2.62734
2.62337
2.6158
2.60433
2.58845
2.56716
2.53849
2.49827
2.44224
2.34223
2.2086
1
1
1
1
1
1
1
1
1
1
1
1
1
1
1
1
1
1
1
1
1
1
1
1
1
1
1
1
1
1
1
1
1
1
1
1
1
1
1
1
1
1
1
1
1
1
1
1
1
1
1
1
1
1
1
1
1
1
1
1
1
1
1
1
1
1
1
1
1
1
1
1
1
1
1.05744
2.29049
2.60056
2.59763
2.5993
2.60186
2.60377
2.60463
2.60647
2.60891
2.61052
2.60984
2.60658
2.59953
2.58782
2.57076
2.54744
2.51611
2.47393
2.41642
2.3275
2.22153
1
1
1
1
1
1
1
1
1
1
1
1
1
1
1
1
1
1
1
1
1
1
1
1
1
1
1
1
1
1
1
1
1
1
1
1
1
1
1
1
1
1
1
1
1
1
1
1
1
1
1
1
1
1
1
1
1
1
1
1
1
1
1
1
1
1
1
1
1
1
1
1
1
1
1.0007
2.10682
2.56304
2.57834
2.58669
2.5913
2.59319
2.59294
2.59262
2.59254
2.59237
2.59116
2.58788
2.5813
2.57018
2.55331
2.52957
2.49731
2.45481
2.39763
2.32028
2.23389
1
1
1
1
1
1
1
1
1
1
1
1
1
1
1
1
1
1
1
1
1
1
1
1
1
1
1
1
1
1
1
1
1
1
1
1
1
1
1
1
1
1
1
1
1
1
1
1
1
1
1
1
1
1
1
1
1
1
1
1
1
1
1
1
1
1
1
1
1
1
1
1
1
1
0.999994
1.76395
2.49372
2.5608
2.57484
2.58082
2.58296
2.58272
2.58143
2.57933
2.57676
2.57356
2.56911
2.56219
2.55145
2.53541
2.51251
2.48104
2.43999
2.38513
2.3177
2.24351
1
1
1
1
1
1
1
1
1
1
1
1
1
1
1
1
1
1
1
1
1
1
1
1
1
1
1
1
1
1
1
1
1
1
1
1
1
1
1
1
1
1
1
1
1
1
1
1
1
1
1
1
1
1
1
1
1
1
1
1
1
1
1
1
1
1
1
1
1
1
1
1
1
1
0.999998
1.2822
2.35855
2.55244
2.55718
2.5643
2.56872
2.57012
2.56922
2.56666
2.56267
2.55749
2.55112
2.54295
2.53193
2.51662
2.49524
2.46577
2.42725
2.37664
2.31815
2.25237
1
1
1
1
1
1
1
1
1
1
1
1
1
1
1
1
1
1
1
1
1
1
1
1
1
1
1
1
1
1
1
1
1
1
1
1
1
1
1
1
1
1
1
1
1
1
1
1
1
1
1
1
1
1
1
1
1
1
1
1
1
1
1
1
1
1
1
1
1
1
1
1
1
1
1
1.02038
2.20911
2.53169
2.53575
2.54333
2.54982
2.55411
2.55496
2.55333
2.54939
2.5433
2.53534
2.52555
2.51339
2.498
2.47771
2.45049
2.41495
2.36986
2.31896
2.25974
1
1
1
1
1
1
1
1
1
1
1
1
1
1
1
1
1
1
1
1
1
1
1
1
1
1
1
1
1
1
1
1
1
1
1
1
1
1
1
1
1
1
1
1
1
1
1
1
1
1
1
1
1
1
1
1
1
1
1
1
1
1
1
1
1
1
1
1
1
1
1
1
1
1
1
1.00004
1.8847
2.48377
2.52218
2.53119
2.53486
2.53835
2.54004
2.53905
2.53571
2.52965
2.52107
2.51011
2.49661
2.48074
2.4604
2.43492
2.40243
2.36307
2.31877
2.26591
1
1
1
1
1
1
1
1
1
1
1
1
1
1
1
1
1
1
1
1
1
1
1
1
1
1
1
1
1
1
1
1
1
1
1
1
1
1
1
1
1
1
1
1
1
1
1
1
1
1
1
1
1
1
1
1
1
1
1
1
1
1
1
1
1
1
1
1
1
1
1
1
1
1
1
1
1.36872
2.36452
2.51629
2.51591
2.51793
2.52084
2.5231
2.52266
2.52025
2.51513
2.50687
2.49601
2.48173
2.46536
2.44424
2.41986
2.38999
2.35547
2.31681
2.26948
1
1
1
1
1
1
1
1
1
1
1
1
1
1
1
1
1
1
1
1
1
1
1
1
1
1
1
1
1
1
1
1
1
1
1
1
1
1
1
1
1
1
1
1
1
1
1
1
1
1
1
1
1
1
1
1
1
1
1
1
1
1
1
1
1
1
1
1
1
1
1
1
1
1
1
1
1.03385
2.19742
2.49831
2.49968
2.50095
2.50345
2.50571
2.50545
2.50356
2.49939
2.49221
2.48191
2.4685
2.45144
2.43046
2.40683
2.37867
2.34765
2.31269
2.27111
1
1
1
1
1
1
1
1
1
1
1
1
1
1
1
1
1
1
1
1
1
1
1
1
1
1
1
1
1
1
1
1
1
1
1
1
1
1
1
1
1
1
1
1
1
1
1
1
1
1
1
1
1
1
1
1
1
1
1
1
1
1
1
1
1
1
1
1
1
1
1
1
1
1
1
1
1.00016
1.8182
2.43887
2.48418
2.48717
2.49005
2.49134
2.49016
2.4875
2.48322
2.47669
2.46714
2.45509
2.43828
2.41837
2.39556
2.36861
2.33998
2.3071
2.27003
1
1
1
1
1
1
1
1
1
1
1
1
1
1
1
1
1
1
1
1
1
1
1
1
1
1
1
1
1
1
1
1
1
1
1
1
1
1
1
1
1
1
1
1
1
1
1
1
1
1
1
1
1
1
1
1
1
1
1
1
1
1
1
1
1
1
1
1
1
1
1
1
1
1
1
1
0.999999
1.22291
2.29878
2.48571
2.47605
2.47633
2.47589
2.47367
2.4705
2.46634
2.46038
2.45169
2.44073
2.42552
2.40729
2.38567
2.36018
2.3333
2.30213
2.2684
1
1
1
1
1
1
1
1
1
1
1
1
1
1
1
1
1
1
1
1
1
1
1
1
1
1
1
1
1
1
1
1
1
1
1
1
1
1
1
1
1
1
1
1
1
1
1
1
1
1
1
1
1
1
1
1
1
1
1
1
1
1
1
1
1
1
1
1
1
1
1
1
1
1
1
1
1
1.01147
2.11101
2.45276
2.45477
2.4612
2.45946
2.45688
2.45393
2.44999
2.44418
2.43625
2.4257
2.41217
2.3958
2.37574
2.35217
2.32684
2.29739
2.26627
1
1
1
1
1
1
1
1
1
1
1
1
1
1
1
1
1
1
1
1
1
1
1
1
1
1
1
1
1
1
1
1
1
1
1
1
1
1
1
1
1
1
1
1
1
1
1
1
1
1
1
1
1
1
1
1
1
1
1
1
1
1
1
1
1
1
1
1
1
1
1
1
1
1
1
1
1
1
1.62232
2.36223
2.4454
2.44908
2.44659
2.44382
2.44057
2.43608
2.42969
2.42148
2.41104
2.39829
2.38346
2.36521
2.34391
2.32036
2.29306
2.26426
1
1
1
1
1
1
1
1
1
1
1
1
1
1
1
1
1
1
1
1
1
1
1
1
1
1
1
1
1
1
1
1
1
1
1
1
1
1
1
1
1
1
1
1
1
1
1
1
1
1
1
1
1
1
1
1
1
1
1
1
1
1
1
1
1
1
1
1
1
1
1
1
1
1
1
1
1
0.999997
1.10304
2.19732
2.44217
2.4333
2.43164
2.42978
2.42679
2.42202
2.41526
2.40687
2.39666
2.38452
2.37063
2.35383
2.33443
2.3127
2.28789
2.2614
1
1
1
1
1
1
1
1
1
1
1
1
1
1
1
1
1
1
1
1
1
1
1
1
1
1
1
1
1
1
1
1
1
1
1
1
1
1
1
1
1
1
1
1
1
1
1
1
1
1
1
1
1
1
1
1
1
1
1
1
1
1
1
1
1
1
1
1
1
1
1
1
1
1
1
1
1
0.999999
1.00217
1.84519
2.38122
2.40944
2.41359
2.41528
2.41371
2.40938
2.4026
2.39405
2.38374
2.37164
2.35797
2.34189
2.32393
2.30406
2.28185
2.25757
1
1
1
1
1
1
1
1
1
1
1
1
1
1
1
1
1
1
1
1
1
1
1
1
1
1
1
1
1
1
1
1
1
1
1
1
1
1
1
1
1
1
1
1
1
1
1
1
1
1
1
1
1
1
1
1
1
1
1
1
1
1
1
1
1
1
1
1
1
1
1
1
1
1
1
1
1
1
0.999997
1.21859
2.22335
2.4105
2.40249
2.40245
2.40053
2.39608
2.38957
2.38136
2.37126
2.35929
2.34576
2.33039
2.31344
2.29497
2.27478
2.25242
1
1
1
1
1
1
1
1
1
1
1
1
1
1
1
1
1
1
1
1
1
1
1
1
1
1
1
1
1
1
1
1
1
1
1
1
1
1
1
1
1
1
1
1
1
1
1
1
1
1
1
1
1
1
1
1
1
1
1
1
1
1
1
1
1
1
1
1
1
1
1
1
1
1
1
1
1
1
0.999999
1.01062
1.96121
2.37171
2.38275
2.38414
2.38314
2.38031
2.37537
2.3684
2.35908
2.34759
2.33441
2.31953
2.30316
2.28557
2.26669
2.2461
1
1
1
1
1
1
1
1
1
1
1
1
1
1
1
1
1
1
1
1
1
1
1
1
1
1
1
1
1
1
1
1
1
1
1
1
1
1
1
1
1
1
1
1
1
1
1
1
1
1
1
1
1
1
1
1
1
1
1
1
1
1
1
1
1
1
1
1
1
1
1
1
1
1
1
1
1
1
1
1.00001
1.32128
2.22984
2.38003
2.3733
2.37039
2.36667
2.3616
2.35491
2.34623
2.33555
2.32308
2.30888
2.29327
2.27656
2.25867
2.23952
1
1
1
1
1
1
1
1
1
1
1
1
1
1
1
1
1
1
1
1
1
1
1
1
1
1
1
1
1
1
1
1
1
1
1
1
1
1
1
1
1
1
1
1
1
1
1
1
1
1
1
1
1
1
1
1
1
1
1
1
1
1
1
1
1
1
1
1
1
1
1
1
1
1
1
1
1
1
1
1
1.02374
2.01296
2.349
2.35898
2.35576
2.35157
2.34647
2.34003
2.33204
2.32244
2.31105
2.29803
2.2836
2.26788
2.25093
2.23281
1
1
1
1
1
1
1
1
1
1
1
1
1
1
1
1
1
1
1
1
1
1
1
1
1
1
1
1
1
1
1
1
1
1
1
1
1
1
1
1
1
1
1
1
1
1
1
1
1
1
1
1
1
1
1
1
1
1
1
1
1
1
1
1
1
1
1
1
1
1
1
1
1
1
1
1
1
1
1
1
1.0001
1.39156
2.21713
2.35016
2.34299
2.33856
2.33311
2.32644
2.31859
2.30967
2.2994
2.28759
2.27427
2.2595
2.24347
2.22631
1
1
1
1
1
1
1
1
1
1
1
1
1
1
1
1
1
1
1
1
1
1
1
1
1
1
1
1
1
1
1
1
1
1
1
1
1
1
1
1
1
1
1
1
1
1
1
1
1
1
1
1
1
1
1
1
1
1
1
1
1
1
1
1
1
1
1
1
1
1
1
1
1
1
1
1
1
1
1
1
1
1.03635
2.01481
2.3283
2.32824
2.32378
2.31856
2.31214
2.30465
2.29624
2.28674
2.27597
2.26388
2.25041
2.23555
2.21953
1.54402
0.99765
0.901421
0.761003
0.73566
0.868476
1.06937
1.12936
1.78688
1.473
1.33103
1.20575
1.09559
1.07802
1.09024
1.06203
1.92638
1.67613
1.51211
1.40327
1.26757
1.1987
1.18262
1.14592
1.99345
1.79461
1.65952
1.55859
1.43972
1.33475
1.30881
1.27184
2.05178
1.89578
1.76546
1.66658
1.56937
1.48681
1.44075
1.38932
2.09482
1.97183
1.8631
1.7604
1.66524
1.60257
1.54205
1.48319
2.1305
2.0306
1.93741
1.83911
1.75582
1.69636
1.63251
1.56155
2.15573
2.07409
1.99265
1.90393
1.83402
1.77082
1.70839
1.64118
2.17728
2.10788
2.03305
1.957
1.89595
1.83444
1.7684
1.71138
2.1945
2.13263
2.06356
1.99992
1.94311
1.88336
1.81865
1.77155
2.20984
2.15402
2.09106
2.03476
1.98092
1.92106
1.86624
1.82006
2.22112
2.16948
2.11414
2.06387
2.01177
1.95449
1.90795
1.86256
2.22926
2.18182
2.1337
2.08818
2.0371
1.98691
1.94397
1.89983
2.23287
2.18991
2.148
2.10644
2.05805
2.0151
1.97444
1.93033
2.23428
2.19522
2.15773
2.11956
2.07638
2.03718
1.99907
1.95431
2.23416
2.19863
2.16418
2.12869
2.09011
2.05373
2.01748
1.9769
2.23375
2.20118
2.16899
2.13504
2.10036
2.06738
2.03172
1.99495
2.23267
2.20283
2.17248
2.1401
2.10879
2.07744
2.04283
2.01045
2.23106
2.20372
2.17483
2.14487
2.11584
2.08518
2.0528
2.02374
2.22828
2.20304
2.17591
2.14867
2.12121
2.09125
2.06211
2.03472
2.22421
2.20084
2.17602
2.15115
2.1247
2.09684
2.07063
2.04379
2.21926
2.19745
2.17494
2.15159
2.12646
2.10146
2.07701
2.05086
2.21356
2.1933
2.17251
2.15052
2.12752
2.10485
2.08124
2.05583
2.20797
2.18893
2.1693
2.14847
2.1273
2.10614
2.08344
2.05992
)
;

boundaryField
{
    inlet
    {
        type            fixedValue;
        value           uniform 1;
    }
    outlet
    {
        type            inletOutlet;
        inletValue      nonuniform 0();
        value           nonuniform 0();
    }
    bottom
    {
        type            zeroGradient;
    }
    top
    {
        type            zeroGradient;
    }
    obstacle
    {
        type            zeroGradient;
    }
    defaultFaces
    {
        type            empty;
    }
    procBoundary0to1
    {
        type            processor;
        value           nonuniform List<scalar> 
24
(
1.1704
1.04692
1.07949
1.20793
1.3228
1.43507
1.5178
1.59592
1.66408
1.72337
1.77378
1.81617
1.85125
1.88443
1.91598
1.94199
1.96308
1.98042
1.99441
2.0059
2.01488
2.02311
2.03159
2.03831
)
;
    }
    procBoundary0to4
    {
        type            processor;
        value           nonuniform List<scalar> 
105
(
1
1
1
1
1
1
1
1
1
1
1
1
1
1
1
1
1
1
1
1
1
1
1
1
1
1
1
1
1
1
1
1
1
1
1
1
1
1
1
1
1
1
1
1
1
1
1
1
1
1
1
1
1
1
1
1
1
1
1
1
1
1
1
1
1
1
1
1
1
1
1
1
1
1
1
1
1
1
1
1
1
1.00026
1.41208
2.19747
2.31859
2.3098
2.30505
2.29895
2.29185
2.28382
2.27486
2.26486
2.25374
2.24142
2.22769
2.21271
2.20243
2.20243
2.18433
2.16544
2.1461
2.1264
2.10589
2.08456
2.06381
)
;
    }
}


// ************************************************************************* //
