/*--------------------------------*- C++ -*----------------------------------*\
  =========                 |
  \\      /  F ield         | OpenFOAM: The Open Source CFD Toolbox
   \\    /   O peration     | Website:  https://openfoam.org
    \\  /    A nd           | Version:  7
     \\/     M anipulation  |
\*---------------------------------------------------------------------------*/
FoamFile
{
    version     2.0;
    format      ascii;
    class       volScalarField;
    location    "1.3";
    object      T;
}
// * * * * * * * * * * * * * * * * * * * * * * * * * * * * * * * * * * * * * //

dimensions      [0 0 0 1 0 0 0];

internalField   nonuniform List<scalar> 
16192
(
1
1
1
1
1
1
1
1
1
1
1
1
1
1.00149
1.2108
1.72223
1.84502
1.84937
1.84439
1.83683
1
1
1
1
1
1
1
1
1
1
1
1
1
1.00004
1.03271
1.54069
1.795
1.84418
1.84292
1.83714
1
1
1
1
1
1
1
1
1
1
1
1
1
1
1.00172
1.23542
1.72706
1.83156
1.84324
1.83887
1
1
1
1
1
1
1
1
1
1
1
1
1
1
1.00005
1.03944
1.55905
1.78105
1.83916
1.83874
1
1
1
1
1
1
1
1
1
1
1
1
1
1
1
1.00216
1.25192
1.70472
1.8312
1.8414
1
1
1
1
1
1
1
1
1
1
1
1
1
1
1
1.00006
1.04213
1.52066
1.80264
1.83564
1
1
1
1
1
1
1
1
1
1
1
1
1
1
1
1
1.00207
1.2209
1.71152
1.81411
1
1
1
1
1
1
1
1
1
1
1
1
1
1
1
1
1.00004
1.03317
1.50649
1.76279
1
1
1
1
1
1
1
1
1
1
1
1
1
1
1
1
1
1.00149
1.19972
1.66044
1
1
1
1
1
1
1
1
1
1
1
1
1
1
1
1
1
1.00003
1.02904
1.43641
1
1
1
1
1
1
1
1
1
1
1
1
1
1
1
1
1
1
1.00154
1.16048
1
1
1
1
1
1
1
1
1
1
1
1
1
1
1
1
1
1
1.00004
1.02258
1
1
1
1
1
1
1
1
1
1
1
1
1
1
1
1
1
1
1
1.00141
1
1
1
1
1
1
1
1
1
1
1
1
1
1
1
1
1
1
1
1.00005
1
1
1
1
1
1
1
1
1
1
1
1
1
1
1
1
1
1
1
1
1
1
1
1
1
1
1
1
1
1
1
1
1
1
1
1
1
1
1
1
1
1
1
1
1
1
1
1
1
1
1
1
1
1
1
1
1
1
1
1
1
1
1
1
1
1
1
1
1
1
1
1
1
1
1
1
1
1
1
1
1
1
1
1
1
1
1
1
1
1
1
1
1
1
1
1
1
1
1
1
1
1
1
1
1
1
1
1
1
1
1
1
1
1
1
1
1
1
1
1
1
1
1
1
1
1
1
1
1
1
1
1
1
1
1
1
1
1
1
1
1
1
1
1
1
1
1
1
1
1
1
1
1
1
1
1
1
1
1
1
1
1
1
1
1
1
1
1
1
1
1
1
1
1
1
1
1
1
1
1
1
1
1
1
1
1
1
1
1
1
1
1
1
1
1
1
1
1
1
1
1
1
1
1
1
1
1
1
1
1
1
1
1
1
1
1
1
1
1
1
1
1
1
1
1
1
1
1
1
1
1
1
1
1
1
1
1
1
1
1
1
1
1
1
1
1
1
1
1
1
1
1
1
1
1
1
1
1
1
1
1
1
1
1
1
1
1
1
1
1
1
1
1
1
1
1
1
1
1
1
1
1
1
1
1
1
1
1
1
1
1
1
1
1
1
1
1
1
1
1
1
1
1
1
1
1
1
1
1
1
1
1
1
1
1
1
1
1
1
1
1
1
1
1
1
1
1
1
1
1
1
1
1
1
1
1
1
1
1
1
1
1
1
1
1
1
1
1
1
1
1
1
1
1
1
1
1
1
1
1
1
1
1
1
1
1
1
1
1
1
1
1
1
1
1
1
1
1
1
1
1
1
1
1
1
1
1
1
1
1
1
1
1
1
1
1
1
1
1
1
1
1
1
1
1
1
1
1
1
1
1
1
1
1
1
1
1
1
1
1
1
1
1
1
1
1
1
1
1
1
1
1
1
1
1
1
1
1
1
1
1
1
1
1
1
1
1
1
1
1
1
1
1
1
1
1
1
1
1
1
1
1
1
1
1
1
1
1
1
1
1
1
1
1
1
1
1
1
1
1
1
1
1
1
1
1
1
1
1
1
1
1
1
1
1
1
1
1
1
1
1
1
1
1
1
1
1
1
1
1
1
1
1
1
1
1
1
1
1
1
1
1
1
1
1
1
1
1
1
1
1
1
1
1
1
1
1
1
1
1
1
1
1
1
1
1
1
1
1
1
1
1
1
1
1
1
1
1
1
1
1
1
1
1
1
1
1
1
1
1
1
1
1
1
1
1
1
1
1
1
1
1
1
1
1
1
1
1
1
1
1
1
1
1
1
1
1
1
1
1
1
1
1
1
1
1
1
1
1
1
1
1
1
1
1
1
1
1
1
1
1
1
1
1
1
1
1
1
1
1
1
1
1
1
1
1
1
1
1
1
1
1
1
1
1
1
1
1
1
1
1
1
1
1
1
1
1
1
1
1
1
1
1
1
1
1
1
1
1
1
1
1
1
1
1
1
1
1
1
1
1
1
1
1
1
1
1
1
1
1
1
1
1
1
1
1
1
1
1
1
1
1
1
1
1
1
1
1
1
1
1
1
1
1
1
1
1
1
1
1
1
1
1
1
1
1
1
1
1
1
1
1
1
1
1
1
1
1
1
1
1
1
1
1
1
1
1
1
1
1
1
1
1
1
1
1
1
1
1
1
1
1
1
1
1
1
1
1
1
1
1
1
1
1
1
1
1
1
1
1
1
1
1
1
1
1
1
1
1
1
1
1
1
1
1
1
1
1
1
1
1
1
1
1
1
1
1
1
1
1
1
1
1
1
1
1
1
1
1
1
1
1
1
1
1
1
1
1
1
1
1
1
1
1
1
1
1
1
1
1
1
1
1
1
1
1
1
1
1
1
1
1
1
1
1
1
1
1
1
1
1
1
1
1
1
1
1
1
1
1
1
1
1
1
1
1
1
1
1
1
1
1
1
1
1
1
1
1
1
1
1
1
1
1
1
1
1
1
1
1
1
1
1
1
1
1
1
1
1
1
1
1
1
1
1
1
1
1
1
1
1
1
1
1
1
1
1
1
1
1
1
1
1
1
1
1
1
1
1
1
1
1
1
1
1
1
1
1
1
1
1
1
1
1
1
1
1
1
1
1
1
1
1
1
1
1
1
1
1
1
1
1
1
1
1
1
1
1
1
1
1
1
1
1
1
1
1
1
1
1
1
1
1
1
1
1
1
1
1
1
1
1
1
1
1
1
1
1
1
1
1
1
1
1
1
1
1
1
1
1
1.67162
1.66687
1.66075
1.6572
1.65419
1.65099
1.64709
1.64447
1.64212
1.63844
1.63382
1.62798
1.62211
1.61773
1.61471
1.61174
1.6087
1.60653
1.60399
1.60005
1.59482
1.58911
1.58248
1.57548
1.57121
1.56883
1.56709
1.56542
1.56248
1.55921
1.55568
1.55032
1.54464
1.54342
1.54375
1.54419
1.54339
1.54188
1.53999
1.53704
1.53204
1.52493
1.51824
1.51504
1.51454
1.5148
1.51498
1.51506
1.51471
1.51372
1.5107
1.50385
1.49424
1.48795
1.48654
1.48654
1.48869
1.49129
1.4913
1.49107
1.49038
1.48681
1.47916
1.47177
1.46864
1.46814
1.46964
1.47209
1.47164
1.47131
1.47062
1.46712
1.45949
1.45289
1.45156
1.45164
1.45309
1.45305
1.45234
1.44988
1.44343
1.43523
1.43113
1.43016
1.43018
1.43188
1.4329
1.43367
1.43397
1.4333
1.4288
1.41928
1.413
1.412
1.4125
1.4142
1.41519
1.41517
1.41424
1.41081
1.40579
1.40235
1.40154
1.4014
1.4006
1.39948
1.39752
1.39297
1.38703
1.38299
1.38148
1.38056
1.38058
1.38075
1.38112
1.38089
1.38039
1.37995
1.37908
1.3766
1.37075
1.36493
1.36353
1.36293
1.36215
1.36118
1.35998
1.35837
1.35527
1.35018
1.34523
1.34306
1.34279
1.3434
1.83248
1.83069
1.82895
1.82714
1.82511
1.82332
1.82109
1.81816
1.81455
1.81076
1.80784
1.80425
1.80052
1.79615
1.79238
1.78968
1.78621
1.78275
1.77859
1.77641
1.77413
1.77123
1.76752
1.76497
1.76312
1.76021
1.7566
1.75307
1.75003
1.74619
1.74278
1.73826
1.73447
1.73103
1.72784
1.72439
1.72123
1.72052
1.71933
1.71773
1.71526
1.71303
1.71036
1.70721
1.70452
1.70074
1.69905
1.69763
1.69611
1.69347
1.69159
1.69073
1.68876
1.68706
1.68775
1.68985
1.69298
1.69506
1.69773
1.70374
1.70789
1.71108
1.71477
1.71846
1.72019
1.7222
1.72444
1.72652
1.72947
1.73204
1.73375
1.7354
1.73689
1.73768
1.73726
1.73591
1.7338
1.73144
1.72826
1.72443
1.72054
1.71629
1.71212
1.70862
1.7058
1.70326
1.70072
1.69992
1.69914
1.69733
1.69528
1.692
1.68892
1.68599
1.68182
1.6778
1.67379
1.66827
1.66411
1.66127
1.65819
1.65465
1.65058
1.648
1.64477
1.64037
1.63497
1.62876
1.62509
1.62269
1.62012
1.61695
1.61373
1.61071
1.60683
1.6021
1.59615
1.58913
1.58279
1.57844
1.57459
1.57171
1.56983
1.56719
1.56377
1.56051
1.5561
1.55063
1.54914
1.54923
1.54916
1.5481
1.54657
1.54444
1.54067
1.53518
1.52841
1.52245
1.51947
1.51905
1.51968
1.51957
1.51905
1.51847
1.51718
1.51368
1.50667
1.49775
1.49198
1.4906
1.49059
1.4928
1.49512
1.49502
1.49481
1.49402
1.4899
1.48155
1.47376
1.4706
1.47003
1.4712
1.47432
1.47435
1.47399
1.47328
1.46999
1.46302
1.45661
1.45521
1.45541
1.45688
1.4567
1.45592
1.45284
1.44538
1.43666
1.43268
1.43182
1.43183
1.43415
1.43489
1.43514
1.43555
1.43511
1.43148
1.42271
1.41599
1.41461
1.41481
1.41611
1.41701
1.41705
1.41622
1.41273
1.40766
1.40461
1.40415
1.40448
1.40395
1.4028
1.4005
1.39547
1.38941
1.38556
1.38412
1.38337
1.38284
1.38283
1.38296
1.3832
1.38288
1.38241
1.38169
1.37986
1.37472
1.36828
1.36626
1.36586
1.36522
1.36439
1.36332
1.36174
1.35851
1.35305
1.34779
1.34576
1.34554
1.34623
1.34818
1.83308
1.83157
1.83023
1.82851
1.82653
1.82421
1.82111
1.818
1.8143
1.81101
1.80835
1.80524
1.80191
1.79734
1.79407
1.79064
1.78714
1.78305
1.77955
1.77731
1.77436
1.77113
1.76753
1.76584
1.76355
1.76061
1.75668
1.75385
1.75067
1.74742
1.74417
1.74065
1.73702
1.73306
1.72936
1.72474
1.72265
1.72136
1.71923
1.71697
1.71522
1.71453
1.71245
1.7105
1.70791
1.70457
1.70163
1.69906
1.69663
1.69346
1.69216
1.6912
1.68951
1.68638
1.68659
1.68813
1.69055
1.6918
1.69511
1.70131
1.705
1.70817
1.71231
1.71368
1.71382
1.71458
1.71547
1.71705
1.71939
1.72165
1.72427
1.72702
1.72958
1.73205
1.73305
1.73274
1.73208
1.73059
1.72779
1.72401
1.71988
1.71534
1.71125
1.70825
1.70581
1.7032
1.70054
1.69961
1.69863
1.6971
1.69482
1.69186
1.68995
1.68681
1.68297
1.6796
1.67508
1.67057
1.66792
1.66483
1.66188
1.65794
1.65444
1.65141
1.64723
1.64228
1.63612
1.63126
1.62982
1.6278
1.62505
1.62167
1.61826
1.61432
1.6095
1.60415
1.59752
1.58983
1.58569
1.58216
1.57755
1.57459
1.57206
1.56882
1.56568
1.56214
1.55751
1.55569
1.55553
1.55479
1.55305
1.55084
1.5482
1.54425
1.53869
1.53215
1.5267
1.52405
1.52369
1.5245
1.52444
1.52361
1.52283
1.52112
1.51698
1.50966
1.50118
1.49595
1.49468
1.49475
1.49716
1.49906
1.49891
1.49876
1.49792
1.49345
1.48469
1.47655
1.47324
1.4726
1.47342
1.47637
1.47666
1.47633
1.47557
1.47223
1.46581
1.45997
1.45859
1.45906
1.46081
1.46056
1.45956
1.45587
1.44747
1.43814
1.4342
1.43347
1.43358
1.43609
1.43704
1.43668
1.43685
1.43645
1.43339
1.42568
1.41885
1.41714
1.4172
1.41827
1.41898
1.41897
1.41823
1.41478
1.40959
1.40671
1.40642
1.40727
1.40722
1.40604
1.40343
1.39804
1.39186
1.38839
1.38714
1.38629
1.38541
1.38474
1.38475
1.38497
1.38499
1.38466
1.38406
1.38263
1.3783
1.37176
1.36896
1.36868
1.3682
1.36749
1.36653
1.36505
1.36189
1.35624
1.35075
1.34883
1.34864
1.34938
1.35132
1.35164
1.83482
1.83312
1.8313
1.82909
1.82672
1.82398
1.82102
1.81785
1.8141
1.81135
1.80855
1.80529
1.80109
1.7971
1.79375
1.78997
1.78629
1.78254
1.78049
1.77783
1.77474
1.77081
1.76848
1.76691
1.76431
1.76101
1.75782
1.75513
1.75175
1.74863
1.74554
1.74306
1.7399
1.73685
1.73288
1.72906
1.72625
1.72318
1.71965
1.71618
1.71522
1.71458
1.71328
1.71241
1.71063
1.70768
1.7046
1.70172
1.69785
1.69517
1.69342
1.69157
1.68963
1.68717
1.68521
1.68586
1.68642
1.68821
1.69216
1.69853
1.70309
1.70708
1.71083
1.71057
1.70992
1.70914
1.70859
1.70945
1.71063
1.71245
1.71502
1.71777
1.72125
1.72443
1.7266
1.72817
1.7281
1.72732
1.72534
1.7222
1.71845
1.71454
1.71111
1.7084
1.70597
1.70327
1.7007
1.6993
1.69796
1.69637
1.69353
1.69169
1.68984
1.68655
1.68366
1.68018
1.67591
1.67349
1.67085
1.66784
1.66485
1.66084
1.65768
1.65384
1.64928
1.64414
1.63849
1.63641
1.63495
1.63245
1.62922
1.62577
1.62202
1.61733
1.61192
1.60626
1.59901
1.59271
1.58973
1.58539
1.58055
1.57742
1.57442
1.57114
1.56788
1.56443
1.56249
1.56195
1.5609
1.55886
1.55618
1.55295
1.54859
1.54286
1.53643
1.5311
1.52874
1.52839
1.5293
1.52932
1.52844
1.5276
1.52566
1.52106
1.51334
1.50501
1.50009
1.49892
1.49907
1.50168
1.50327
1.5028
1.50249
1.50143
1.49697
1.48845
1.48037
1.47691
1.47624
1.4768
1.4789
1.47903
1.47877
1.47789
1.47428
1.46821
1.46298
1.46166
1.46231
1.46458
1.4645
1.46327
1.45896
1.44972
1.43979
1.43589
1.43522
1.43545
1.43796
1.43911
1.43834
1.43819
1.43762
1.43483
1.42805
1.42139
1.41942
1.41941
1.42041
1.42102
1.42093
1.42023
1.41691
1.41174
1.40889
1.4087
1.4099
1.41038
1.40938
1.40658
1.40069
1.39431
1.39121
1.39019
1.38937
1.38829
1.38694
1.38651
1.38654
1.38683
1.38665
1.3862
1.38512
1.38158
1.37516
1.37154
1.37126
1.37095
1.37038
1.36953
1.36817
1.36525
1.35967
1.35401
1.35214
1.35195
1.35273
1.3546
1.35483
1.35444
1.83588
1.83323
1.8304
1.82767
1.82506
1.82223
1.81995
1.81783
1.81519
1.81266
1.80954
1.806
1.80129
1.79746
1.79337
1.78933
1.785
1.78231
1.78054
1.77809
1.77522
1.77163
1.76977
1.76764
1.76502
1.76203
1.76015
1.75737
1.75454
1.75033
1.74678
1.74423
1.74216
1.73988
1.73657
1.73336
1.73017
1.72642
1.72146
1.71813
1.71611
1.71314
1.71174
1.71138
1.71072
1.70889
1.70693
1.70427
1.70057
1.69748
1.6949
1.69264
1.69069
1.68799
1.68525
1.68436
1.684
1.68545
1.68916
1.6955
1.70138
1.70598
1.70927
1.70891
1.70797
1.70632
1.70396
1.70379
1.70426
1.70508
1.70681
1.70942
1.71269
1.71641
1.71975
1.72244
1.7224
1.72195
1.72055
1.71844
1.71603
1.71351
1.71105
1.70877
1.70628
1.70343
1.70084
1.69903
1.69743
1.69504
1.69234
1.6911
1.6888
1.68596
1.68347
1.6796
1.6774
1.67575
1.67291
1.67021
1.66669
1.66302
1.65969
1.65534
1.65103
1.6461
1.64301
1.64191
1.6397
1.63662
1.63282
1.62915
1.625
1.61983
1.61429
1.60861
1.60146
1.59689
1.5935
1.58851
1.58384
1.58059
1.5776
1.57402
1.57101
1.5693
1.56823
1.56691
1.56495
1.56216
1.55832
1.55354
1.54803
1.54172
1.53609
1.53381
1.53339
1.53417
1.53428
1.53339
1.53256
1.53062
1.52586
1.51798
1.50966
1.50472
1.50363
1.50374
1.50626
1.50777
1.50694
1.50626
1.50461
1.49996
1.49181
1.48445
1.48132
1.48073
1.48118
1.48222
1.48204
1.48169
1.48047
1.47652
1.47067
1.46602
1.46478
1.46538
1.46787
1.46808
1.46674
1.46194
1.452
1.44178
1.438
1.43732
1.43755
1.43993
1.4411
1.44025
1.43972
1.43894
1.43626
1.43006
1.42371
1.42156
1.42146
1.42237
1.42294
1.42277
1.42214
1.41909
1.41405
1.41139
1.41131
1.41272
1.41356
1.41277
1.41003
1.40369
1.39689
1.39396
1.39313
1.39242
1.39137
1.38968
1.3883
1.38827
1.38844
1.3885
1.38819
1.38735
1.38451
1.37844
1.37397
1.37356
1.37342
1.37301
1.37229
1.37107
1.36848
1.36317
1.35743
1.35555
1.35535
1.35618
1.3579
1.35801
1.35767
1.35653
1.83897
1.83481
1.82928
1.82642
1.82494
1.82285
1.82077
1.81842
1.81661
1.81414
1.81103
1.80662
1.8015
1.79731
1.7932
1.78846
1.78426
1.78266
1.78074
1.77857
1.77562
1.77359
1.77172
1.7688
1.76467
1.76227
1.76122
1.75938
1.75719
1.75386
1.75018
1.7463
1.74256
1.74034
1.73819
1.7351
1.73235
1.72926
1.72477
1.72079
1.71767
1.71446
1.71172
1.70996
1.70859
1.70741
1.70648
1.70499
1.70245
1.69976
1.6966
1.69435
1.69199
1.68877
1.68516
1.68404
1.68414
1.68546
1.68813
1.693
1.69912
1.70446
1.70787
1.70792
1.70701
1.70513
1.70224
1.70065
1.69969
1.69996
1.70109
1.70257
1.70568
1.70945
1.71287
1.71443
1.71552
1.71535
1.71459
1.71376
1.71289
1.71183
1.71037
1.70851
1.70619
1.70349
1.70103
1.69904
1.6969
1.69359
1.69139
1.68966
1.68702
1.68507
1.68218
1.67935
1.67881
1.6771
1.6744
1.67155
1.66739
1.66418
1.66054
1.65643
1.65274
1.64894
1.64764
1.64625
1.64351
1.63998
1.63582
1.632
1.62745
1.62201
1.6167
1.61098
1.60497
1.60099
1.59689
1.59205
1.58757
1.58461
1.5814
1.57784
1.57637
1.57503
1.57299
1.57073
1.56784
1.56378
1.55897
1.55368
1.54762
1.54206
1.53975
1.53912
1.53928
1.53931
1.53854
1.53768
1.53579
1.53118
1.52343
1.51504
1.51011
1.50907
1.50899
1.51103
1.51247
1.51139
1.51022
1.50789
1.50275
1.49477
1.48843
1.48583
1.4854
1.48617
1.4862
1.48566
1.48503
1.48331
1.47918
1.47369
1.46948
1.46829
1.46881
1.47102
1.47117
1.46973
1.46491
1.45441
1.44403
1.44059
1.44
1.44015
1.44218
1.44318
1.44242
1.44166
1.44065
1.43792
1.43201
1.42584
1.4236
1.42343
1.42423
1.42465
1.42442
1.42384
1.4212
1.4166
1.41411
1.41424
1.41592
1.41691
1.41628
1.41367
1.40717
1.39989
1.3968
1.39603
1.39539
1.39444
1.39287
1.39054
1.39005
1.39008
1.39024
1.39006
1.38939
1.38714
1.38153
1.3763
1.37556
1.37555
1.37533
1.37479
1.37375
1.37153
1.36664
1.36093
1.35898
1.35877
1.3596
1.36111
1.36107
1.36076
1.35966
1.35521
1.83281
1.83032
1.82755
1.82537
1.82446
1.82335
1.82139
1.81902
1.81688
1.81413
1.81116
1.80725
1.80242
1.79741
1.79327
1.78901
1.78565
1.78355
1.7813
1.77856
1.77654
1.776
1.77396
1.77075
1.76631
1.76305
1.76123
1.7609
1.75922
1.75675
1.75338
1.74894
1.74424
1.7407
1.73709
1.73384
1.73148
1.7292
1.72643
1.72329
1.72003
1.71641
1.71316
1.71079
1.7082
1.70612
1.70557
1.70491
1.70366
1.70177
1.69919
1.69639
1.69301
1.68951
1.68522
1.68389
1.68414
1.68569
1.68784
1.69149
1.6973
1.70303
1.70664
1.70741
1.7067
1.70514
1.7018
1.69947
1.69648
1.6961
1.69663
1.69819
1.70088
1.704
1.70508
1.706
1.70757
1.70802
1.7084
1.70879
1.70927
1.70902
1.70827
1.70717
1.70558
1.70338
1.70103
1.69887
1.69611
1.69262
1.69028
1.68775
1.68544
1.68357
1.68018
1.67968
1.67941
1.6775
1.67511
1.67165
1.66764
1.66466
1.66078
1.6575
1.65418
1.65185
1.65104
1.64901
1.64611
1.64213
1.63799
1.63417
1.62933
1.62404
1.61907
1.6133
1.60868
1.60476
1.60022
1.59599
1.59205
1.58903
1.58583
1.58338
1.5821
1.57984
1.5769
1.57348
1.56918
1.56446
1.55938
1.55364
1.54864
1.54668
1.54584
1.54513
1.54453
1.54383
1.54301
1.54112
1.53669
1.52937
1.52106
1.51619
1.51525
1.5151
1.51628
1.51729
1.51615
1.51457
1.5115
1.50583
1.49805
1.49236
1.49009
1.48987
1.49092
1.49049
1.48961
1.48861
1.48641
1.48212
1.47696
1.47341
1.47241
1.47284
1.47433
1.47416
1.47234
1.46732
1.45702
1.44687
1.4435
1.44314
1.44327
1.44485
1.44551
1.44492
1.44413
1.44296
1.44015
1.4342
1.42788
1.42556
1.42533
1.42596
1.42615
1.42588
1.42534
1.42308
1.41902
1.41701
1.41738
1.41937
1.42047
1.41994
1.41743
1.41101
1.40342
1.39999
1.39911
1.39845
1.39757
1.39618
1.39349
1.39195
1.39189
1.39196
1.39183
1.3913
1.38962
1.3846
1.37878
1.37735
1.3774
1.37731
1.37698
1.37617
1.3743
1.36996
1.36445
1.36246
1.36223
1.36301
1.36421
1.36403
1.36372
1.36258
1.35801
1.34897
1.83727
1.83509
1.83218
1.82964
1.82782
1.82571
1.82228
1.81876
1.81542
1.81234
1.80898
1.8056
1.80268
1.79905
1.79515
1.79138
1.78882
1.78613
1.78295
1.77922
1.77703
1.77489
1.77327
1.77139
1.76899
1.76616
1.76331
1.75977
1.75698
1.75569
1.7537
1.75084
1.74662
1.74172
1.73657
1.73271
1.73057
1.72839
1.72622
1.7244
1.72208
1.71859
1.7151
1.7121
1.70861
1.70687
1.70605
1.70473
1.70349
1.70226
1.70066
1.69771
1.69433
1.69057
1.68646
1.68415
1.68421
1.68542
1.68753
1.69084
1.69589
1.7017
1.70524
1.70687
1.70654
1.70532
1.70218
1.69945
1.69631
1.69372
1.69386
1.69508
1.69732
1.69766
1.69822
1.69975
1.7005
1.70098
1.70183
1.70315
1.70486
1.70522
1.70537
1.7052
1.70441
1.70265
1.70034
1.69783
1.69467
1.69152
1.68895
1.6863
1.68443
1.6817
1.67958
1.67987
1.67925
1.6774
1.67501
1.67081
1.66751
1.66426
1.66073
1.65819
1.65511
1.65394
1.65285
1.65043
1.64738
1.64313
1.63933
1.63542
1.63055
1.62578
1.62082
1.61573
1.61209
1.608
1.60386
1.60036
1.59652
1.59369
1.59151
1.58916
1.58672
1.58372
1.57946
1.57463
1.56998
1.56515
1.55971
1.55534
1.55376
1.55306
1.5518
1.55042
1.54945
1.5486
1.54669
1.54218
1.53522
1.5276
1.52277
1.52192
1.52176
1.52232
1.52256
1.52125
1.51946
1.51583
1.50949
1.50179
1.4965
1.49444
1.49407
1.49494
1.49447
1.49331
1.49202
1.48976
1.48558
1.48069
1.47782
1.47716
1.47753
1.47789
1.47727
1.47479
1.46913
1.45934
1.45071
1.44694
1.44656
1.44672
1.44785
1.4483
1.44781
1.44704
1.44592
1.4432
1.43714
1.43017
1.42749
1.42726
1.42755
1.42748
1.4272
1.42663
1.42466
1.42128
1.41976
1.42049
1.4229
1.42417
1.42371
1.4213
1.41507
1.40743
1.40358
1.40252
1.40172
1.40083
1.39962
1.39695
1.39421
1.39387
1.39379
1.39362
1.39315
1.39196
1.3877
1.38149
1.37907
1.37913
1.37907
1.37883
1.37821
1.37672
1.37303
1.36794
1.36596
1.36572
1.36645
1.3673
1.36696
1.36659
1.3653
1.36055
1.35134
1.34385
1.83683
1.83778
1.83631
1.8334
1.82874
1.82417
1.82088
1.81799
1.81475
1.81095
1.80594
1.80198
1.80128
1.80092
1.79933
1.79658
1.79334
1.79013
1.78663
1.78256
1.77878
1.77512
1.7728
1.77199
1.77145
1.76976
1.76632
1.76129
1.75719
1.75405
1.75224
1.75033
1.74708
1.74276
1.73735
1.73363
1.73122
1.72887
1.72667
1.72497
1.72259
1.7193
1.71638
1.71304
1.70992
1.70911
1.7075
1.70527
1.70312
1.70218
1.70081
1.6982
1.69588
1.69216
1.6888
1.68596
1.68453
1.685
1.68659
1.68972
1.69407
1.7001
1.70389
1.70665
1.70719
1.70593
1.70293
1.69989
1.69688
1.69341
1.69284
1.69383
1.69356
1.69317
1.69371
1.69389
1.6942
1.69486
1.69588
1.69824
1.69973
1.70017
1.70137
1.70189
1.70157
1.70014
1.69792
1.69535
1.69242
1.68978
1.6874
1.68533
1.68345
1.68046
1.6799
1.67985
1.67874
1.67695
1.67385
1.66988
1.66707
1.6635
1.66089
1.65823
1.65574
1.65507
1.65341
1.65088
1.64755
1.64342
1.63982
1.63565
1.63119
1.62682
1.62184
1.61815
1.61493
1.61094
1.60784
1.60463
1.60088
1.59906
1.59695
1.59377
1.59025
1.58596
1.58002
1.57503
1.5709
1.56605
1.56197
1.56054
1.55984
1.55857
1.55695
1.55559
1.5545
1.55253
1.54779
1.54071
1.53381
1.52958
1.52868
1.52854
1.5288
1.52845
1.52682
1.52478
1.52095
1.51418
1.50612
1.50105
1.49922
1.49871
1.49882
1.49818
1.4969
1.49543
1.49328
1.48961
1.48508
1.48279
1.48245
1.48256
1.48188
1.48008
1.47687
1.47072
1.46108
1.45452
1.45118
1.45033
1.45039
1.45107
1.45157
1.45112
1.45033
1.4493
1.44684
1.44098
1.43313
1.42959
1.42926
1.42933
1.42904
1.42849
1.42764
1.42585
1.4233
1.42237
1.4234
1.42631
1.42792
1.42759
1.42531
1.41923
1.41174
1.40766
1.40632
1.40521
1.40421
1.40313
1.40081
1.39702
1.396
1.39585
1.39559
1.39511
1.39416
1.39079
1.38469
1.38101
1.38087
1.3808
1.3806
1.3801
1.37883
1.3757
1.37121
1.36942
1.36919
1.36987
1.37041
1.36993
1.36947
1.36804
1.36315
1.35377
1.34642
1.34394
1.82566
1.84224
1.83984
1.83366
1.82682
1.82109
1.8195
1.81886
1.81649
1.81227
1.80695
1.80322
1.80186
1.80106
1.80022
1.79898
1.79692
1.79472
1.79141
1.78736
1.78273
1.77793
1.77411
1.77131
1.76959
1.76899
1.7667
1.76347
1.75941
1.75491
1.75138
1.74854
1.74562
1.7422
1.73793
1.73424
1.7316
1.72926
1.72725
1.72604
1.72363
1.7207
1.71762
1.71348
1.71183
1.71062
1.70856
1.706
1.70346
1.70235
1.70028
1.6982
1.69708
1.69461
1.69175
1.68863
1.68538
1.68455
1.68533
1.68787
1.69192
1.69764
1.70274
1.70631
1.70791
1.70678
1.70461
1.702
1.69911
1.69427
1.69327
1.6929
1.6911
1.68983
1.68932
1.68974
1.6897
1.69003
1.69181
1.69378
1.69387
1.69469
1.69649
1.69713
1.69692
1.69567
1.69385
1.69181
1.68955
1.68747
1.6856
1.68404
1.68196
1.68005
1.68006
1.67962
1.67805
1.6757
1.67185
1.6691
1.66633
1.6633
1.6612
1.65788
1.65633
1.6554
1.65334
1.65088
1.64731
1.64335
1.63945
1.63517
1.63118
1.62679
1.62273
1.62035
1.61722
1.61397
1.61171
1.60837
1.60578
1.60409
1.60103
1.59677
1.59136
1.5858
1.57988
1.57543
1.57239
1.56877
1.56697
1.56607
1.56479
1.56333
1.56197
1.56065
1.55852
1.5536
1.54621
1.53946
1.53586
1.53505
1.53488
1.53503
1.53463
1.53289
1.5305
1.52652
1.51972
1.51143
1.50604
1.50447
1.50401
1.50332
1.50214
1.50064
1.49905
1.49718
1.4944
1.49036
1.48858
1.48806
1.48705
1.48533
1.48259
1.47892
1.47239
1.46327
1.45781
1.45555
1.45465
1.45436
1.45464
1.45508
1.45479
1.45394
1.45289
1.45083
1.44558
1.43714
1.43237
1.43177
1.43154
1.431
1.43013
1.42883
1.42693
1.42507
1.42472
1.42616
1.42956
1.4315
1.4314
1.42951
1.42364
1.41596
1.41193
1.41077
1.40944
1.40816
1.407
1.40473
1.40033
1.39834
1.39813
1.39783
1.39733
1.39647
1.39393
1.38829
1.3835
1.38288
1.38271
1.38246
1.38201
1.3809
1.37815
1.37422
1.37271
1.37254
1.37321
1.37346
1.37289
1.37233
1.37086
1.36604
1.35666
1.34925
1.3468
1.34637
1.7435
1.8249
1.83648
1.83217
1.82555
1.81965
1.81828
1.81799
1.81605
1.81232
1.81043
1.80856
1.80539
1.80278
1.80119
1.79887
1.7959
1.79228
1.79018
1.78845
1.78597
1.78234
1.77762
1.77303
1.7703
1.76775
1.76536
1.7633
1.76085
1.75683
1.75202
1.74748
1.74492
1.74264
1.73933
1.73587
1.73241
1.72817
1.72662
1.72596
1.7245
1.72254
1.7188
1.71512
1.71345
1.71106
1.70876
1.70592
1.70422
1.7028
1.70029
1.69872
1.69696
1.69533
1.69339
1.69056
1.68607
1.68431
1.68467
1.68643
1.68984
1.69436
1.70067
1.70516
1.70852
1.70797
1.70681
1.70517
1.70207
1.69687
1.69503
1.69249
1.68979
1.6873
1.68676
1.68676
1.68616
1.68671
1.68819
1.6884
1.68898
1.69058
1.69137
1.69146
1.69117
1.6903
1.68911
1.68776
1.68639
1.68498
1.68375
1.6825
1.68064
1.67999
1.6799
1.67887
1.67676
1.67349
1.67032
1.6685
1.66581
1.66371
1.66128
1.65775
1.65664
1.65525
1.65312
1.65048
1.64653
1.6424
1.6381
1.63424
1.63061
1.62642
1.62397
1.62215
1.61912
1.61697
1.61475
1.61216
1.6103
1.60749
1.60329
1.59705
1.59056
1.58507
1.57963
1.5767
1.57523
1.57336
1.5718
1.57039
1.56906
1.56789
1.56661
1.56442
1.55942
1.55183
1.54488
1.54162
1.54084
1.54054
1.54048
1.54024
1.539
1.53666
1.53262
1.52572
1.5172
1.51149
1.51003
1.50948
1.50849
1.5068
1.50497
1.50327
1.50163
1.49982
1.49754
1.4951
1.49316
1.49092
1.48836
1.4853
1.48137
1.47462
1.46597
1.46102
1.45935
1.45906
1.45882
1.4585
1.4587
1.4587
1.45798
1.45681
1.45498
1.45038
1.4419
1.43605
1.43499
1.4345
1.43367
1.43249
1.43066
1.42841
1.42699
1.42692
1.4288
1.43251
1.4347
1.43477
1.43346
1.42833
1.42055
1.41612
1.41528
1.4143
1.41289
1.41141
1.40853
1.4037
1.40095
1.40063
1.40035
1.39986
1.39908
1.39719
1.39217
1.38662
1.3853
1.38499
1.38462
1.38414
1.38311
1.38056
1.37708
1.37578
1.37567
1.37634
1.37644
1.37576
1.3751
1.37365
1.36914
1.36003
1.35249
1.35003
1.34963
1.3504
1.51177
1.72899
1.80331
1.82824
1.83132
1.82663
1.8208
1.81634
1.81235
1.8108
1.81117
1.81087
1.80862
1.80504
1.80169
1.7987
1.79558
1.79257
1.78991
1.78729
1.7855
1.78399
1.78121
1.77709
1.7727
1.7678
1.76363
1.76176
1.75971
1.75684
1.75301
1.7486
1.74465
1.74167
1.73969
1.73782
1.73483
1.7308
1.72697
1.72425
1.72389
1.72305
1.72069
1.7181
1.71498
1.71178
1.70865
1.70625
1.70504
1.70281
1.70075
1.69878
1.69708
1.69612
1.6943
1.69159
1.68667
1.68461
1.68507
1.68585
1.6875
1.69056
1.69733
1.70416
1.70812
1.70959
1.70931
1.70851
1.7051
1.70062
1.69722
1.6931
1.68955
1.68616
1.68573
1.68442
1.68338
1.68379
1.68415
1.68461
1.68605
1.6861
1.68583
1.68583
1.68533
1.68481
1.68408
1.68364
1.68319
1.68239
1.68175
1.68099
1.67989
1.67953
1.67884
1.67701
1.67441
1.67106
1.66939
1.66788
1.6657
1.66404
1.66104
1.6581
1.65682
1.65505
1.6529
1.64962
1.64504
1.64045
1.63636
1.63312
1.62952
1.62657
1.62544
1.62349
1.62099
1.61923
1.61721
1.61562
1.61323
1.60901
1.60289
1.59539
1.5891
1.58448
1.5809
1.57964
1.57853
1.57712
1.57551
1.57407
1.573
1.5718
1.56969
1.56488
1.55738
1.55021
1.54696
1.54617
1.54565
1.54533
1.54497
1.54423
1.54238
1.53878
1.53211
1.52327
1.51697
1.51546
1.51495
1.51386
1.51194
1.50985
1.50789
1.50647
1.50541
1.50398
1.50123
1.4975
1.49427
1.49161
1.48854
1.48452
1.47795
1.46957
1.46452
1.46298
1.46283
1.46356
1.46275
1.46255
1.46263
1.46231
1.46119
1.45932
1.45507
1.4471
1.44066
1.43886
1.43818
1.43712
1.4356
1.4334
1.43077
1.42939
1.42945
1.43132
1.43506
1.4374
1.43753
1.4367
1.43275
1.4257
1.42054
1.41969
1.41916
1.41788
1.41606
1.41245
1.40713
1.40384
1.40335
1.40315
1.4027
1.40201
1.40064
1.3964
1.39041
1.38809
1.38776
1.38722
1.38664
1.38566
1.3832
1.37986
1.37871
1.37861
1.37924
1.37925
1.37855
1.37782
1.37637
1.3722
1.3636
1.35611
1.35364
1.35327
1.354
1.35625
1.19058
1.48452
1.73272
1.78961
1.81442
1.81444
1.8124
1.81086
1.80887
1.80842
1.80918
1.80914
1.8078
1.80523
1.80134
1.79758
1.79579
1.79423
1.79206
1.78927
1.78641
1.78468
1.78321
1.78035
1.77556
1.76937
1.76448
1.76071
1.75752
1.75573
1.75338
1.75007
1.74604
1.74251
1.73992
1.73779
1.73552
1.73281
1.72918
1.72589
1.72315
1.72104
1.72027
1.71951
1.71693
1.71372
1.70954
1.70702
1.70495
1.70271
1.70119
1.69877
1.69806
1.69693
1.69481
1.69206
1.68761
1.68517
1.68474
1.6855
1.68723
1.68839
1.69314
1.70159
1.70726
1.71053
1.71175
1.71123
1.70791
1.70398
1.69942
1.69489
1.68988
1.687
1.68566
1.68331
1.68233
1.68148
1.68128
1.68236
1.68259
1.68195
1.68157
1.68039
1.68006
1.67991
1.67963
1.67999
1.67994
1.67939
1.67904
1.67855
1.67757
1.6769
1.67576
1.6739
1.67137
1.6692
1.66839
1.66699
1.66535
1.66356
1.6607
1.6587
1.65727
1.65536
1.6527
1.64798
1.64273
1.63835
1.63517
1.63221
1.62898
1.6277
1.62679
1.62456
1.62254
1.62067
1.61933
1.61777
1.6141
1.60763
1.60005
1.59287
1.58834
1.5857
1.58407
1.58266
1.58123
1.57984
1.57839
1.57718
1.57591
1.57381
1.5694
1.5623
1.55517
1.55182
1.55103
1.55034
1.5496
1.54894
1.54835
1.547
1.54416
1.53828
1.52952
1.52244
1.5203
1.51954
1.51873
1.51702
1.51488
1.51294
1.5114
1.51032
1.50887
1.50561
1.50115
1.49719
1.49441
1.49183
1.48834
1.48253
1.47437
1.46855
1.46681
1.4666
1.46746
1.46745
1.4667
1.46668
1.46663
1.46581
1.46396
1.45978
1.45202
1.44525
1.44323
1.44255
1.4415
1.43983
1.43721
1.4341
1.43262
1.4326
1.43385
1.43717
1.43952
1.43963
1.43911
1.4365
1.43093
1.42543
1.4243
1.42386
1.4228
1.42069
1.41635
1.41067
1.40712
1.40642
1.40624
1.40585
1.4052
1.40414
1.40076
1.39479
1.39134
1.39094
1.39031
1.38956
1.38859
1.38632
1.38273
1.38154
1.38143
1.38186
1.38194
1.3813
1.38053
1.3791
1.37523
1.36723
1.35991
1.3574
1.35708
1.35779
1.35981
1.36008
1.02043
1.14031
1.50128
1.69684
1.77447
1.80863
1.80575
1.80414
1.8024
1.80008
1.80116
1.80519
1.80555
1.80553
1.80364
1.79899
1.79491
1.79435
1.79443
1.79293
1.78966
1.78631
1.78305
1.77967
1.77531
1.77054
1.76578
1.7616
1.75828
1.75516
1.75305
1.75114
1.74835
1.74496
1.74135
1.73843
1.73552
1.73259
1.72984
1.72692
1.72347
1.72163
1.72081
1.7189
1.71655
1.7144
1.71135
1.7084
1.70531
1.70304
1.70039
1.69899
1.69897
1.69767
1.69548
1.6925
1.68922
1.68641
1.68392
1.68426
1.68486
1.68605
1.69044
1.69846
1.7061
1.7105
1.71298
1.71256
1.71009
1.70656
1.70194
1.6971
1.69165
1.68915
1.68628
1.68373
1.68219
1.68016
1.68044
1.68077
1.67962
1.67839
1.67695
1.67631
1.67638
1.67598
1.67606
1.67694
1.67667
1.67615
1.67577
1.67496
1.67345
1.67249
1.67156
1.67025
1.66831
1.66735
1.66683
1.66562
1.66426
1.66247
1.66077
1.65972
1.65837
1.65612
1.65161
1.64522
1.64041
1.63723
1.63483
1.63173
1.62967
1.6292
1.62775
1.62554
1.62346
1.62198
1.62083
1.61807
1.6117
1.60374
1.59658
1.59187
1.58978
1.58844
1.58685
1.58504
1.58335
1.58181
1.58051
1.5791
1.57684
1.57256
1.56585
1.55924
1.5561
1.55527
1.55447
1.55346
1.55245
1.55154
1.55032
1.54816
1.54342
1.5356
1.52795
1.52436
1.52308
1.52231
1.5212
1.51946
1.51772
1.51627
1.51502
1.51314
1.50932
1.50427
1.49956
1.49661
1.49443
1.4919
1.48761
1.48031
1.47344
1.47121
1.471
1.47118
1.47203
1.47109
1.47091
1.47094
1.47042
1.46848
1.46419
1.45667
1.44983
1.44764
1.44713
1.44631
1.44497
1.44247
1.43866
1.43663
1.43656
1.43707
1.43939
1.44137
1.44155
1.4414
1.44
1.43595
1.43069
1.42921
1.42871
1.42763
1.42514
1.42022
1.41428
1.41066
1.40983
1.40962
1.40931
1.40868
1.40778
1.40514
1.39953
1.39504
1.39449
1.39392
1.393
1.39187
1.38981
1.38613
1.38431
1.38422
1.38435
1.38452
1.38405
1.38328
1.38186
1.37822
1.37086
1.36377
1.3612
1.36089
1.36158
1.36338
1.36348
1.36274
1.00061
1.00814
1.136
1.4638
1.66763
1.78042
1.8068
1.80693
1.80015
1.79169
1.79329
1.79547
1.7969
1.80005
1.80191
1.80111
1.79726
1.79477
1.7941
1.79353
1.79185
1.78813
1.783
1.77832
1.77404
1.77044
1.76723
1.76369
1.76013
1.75656
1.75465
1.75275
1.74983
1.74614
1.7425
1.73945
1.73607
1.73274
1.73011
1.72711
1.72382
1.7229
1.72185
1.7194
1.71685
1.71424
1.712
1.70915
1.70636
1.70346
1.70033
1.69983
1.69893
1.69724
1.6952
1.69313
1.69079
1.68752
1.68454
1.68364
1.68382
1.68456
1.68805
1.69522
1.70374
1.70944
1.71288
1.71293
1.71165
1.70868
1.70467
1.69946
1.695
1.69196
1.68806
1.6856
1.68246
1.68036
1.68043
1.67899
1.67698
1.67518
1.67374
1.67384
1.6735
1.67315
1.67387
1.67392
1.67347
1.67308
1.67244
1.67102
1.66915
1.66832
1.66759
1.66659
1.66523
1.66504
1.66473
1.66391
1.66296
1.66214
1.66177
1.66103
1.65911
1.65539
1.64848
1.64255
1.63935
1.63721
1.63489
1.63178
1.63111
1.63038
1.62841
1.62639
1.62443
1.62313
1.62089
1.61508
1.60689
1.59995
1.59549
1.5935
1.59238
1.59071
1.58868
1.58668
1.58465
1.58303
1.58155
1.57914
1.57462
1.568
1.56202
1.55936
1.55885
1.55805
1.55681
1.55569
1.5544
1.5528
1.55069
1.5469
1.54041
1.53294
1.52803
1.52556
1.52464
1.52416
1.52306
1.52175
1.52054
1.51925
1.51732
1.51313
1.50687
1.50129
1.49819
1.4962
1.49446
1.49182
1.48654
1.47921
1.47604
1.47588
1.47586
1.47673
1.47613
1.4756
1.47552
1.47477
1.47219
1.46762
1.46045
1.45414
1.45199
1.45158
1.45098
1.45019
1.44867
1.4452
1.4412
1.44077
1.44084
1.44194
1.4435
1.44358
1.44355
1.44293
1.44024
1.4359
1.43439
1.43389
1.4325
1.42915
1.42389
1.41803
1.41442
1.41348
1.41327
1.41309
1.41247
1.41162
1.40951
1.40435
1.39911
1.39817
1.3978
1.39696
1.39569
1.39353
1.38982
1.38751
1.3871
1.38702
1.3871
1.38677
1.3861
1.38474
1.38122
1.37436
1.36764
1.36508
1.3647
1.36525