/*--------------------------------*- C++ -*----------------------------------*\
  =========                 |
  \\      /  F ield         | OpenFOAM: The Open Source CFD Toolbox
   \\    /   O peration     | Website:  https://openfoam.org
    \\  /    A nd           | Version:  7
     \\/     M anipulation  |
\*---------------------------------------------------------------------------*/
FoamFile
{
    version     2.0;
    format      ascii;
    class       volScalarField;
    location    "2.8";
    object      T;
}
// * * * * * * * * * * * * * * * * * * * * * * * * * * * * * * * * * * * * * //

dimensions      [0 0 0 1 0 0 0];

internalField   nonuniform List<scalar> 
16512
(
1.55599
1.55399
1.55067
1.54385
1.53552
1.53121
1.52935
1.52813
1.52729
1.52711
1.52689
1.52599
1.52526
1.52399
1.52134
1.5162
1.50999
1.50462
1.50124
1.49909
1.49743
1.49591
1.49477
1.49408
1.49347
1.49281
1.49212
1.49136
1.49003
1.48631
1.47868
1.47196
1.46882
1.46704
1.4655
1.4643
1.46431
1.46546
1.46571
1.46479
1.4637
1.46266
1.46067
1.45537
1.44644
1.44096
1.43914
1.438
1.4372
1.43678
1.43694
1.43748
1.43726
1.43616
1.43437
1.43126
1.42638
1.42055
1.41711
1.41555
1.4146
1.414
1.41326
1.41238
1.41186
1.41127
1.41029
1.40903
1.4076
1.40614
1.40451
1.40159
1.39563
1.39003
1.38793
1.38676
1.38572
1.3848
1.38406
1.38336
1.38254
1.38148
1.38022
1.37887
1.37727
1.37543
1.37381
1.37267
1.3716
1.36991
1.36662
1.3622
1.35909
1.35757
1.35637
1.35486
1.35265
1.35095
1.34986
1.34891
1.34775
1.34619
1.34367
1.34032
1.33772
1.33628
1.33528
1.33426
1.3333
1.33261
1.33199
1.33146
1.33084
1.32993
1.32868
1.32674
1.32355
1.31932
1.31612
1.31468
1.31411
1.31382
1.31362
1.31346
1.31319
1.31275
1.31215
1.31138
1.31063
1.30971
1.30776
1.30363
1.29668
1.29133
1.28955
1.28862
1.28773
1.28678
1.28586
1.28486
1.28366
1.28236
1.28166
1.28155
1.28157
1.28168
1.28186
1.28192
1.28179
1.28101
1.27826
1.27187
1.26559
1.26268
1.26108
1.25997
1.25919
1.25867
1.25824
1.25791
1.25756
1.25703
1.25639
1.25584
1.25535
1.25479
1.25388
1.25237
1.25005
1.24762
1.2457
1.24414
1.24292
1.24206
1.24123
1.24025
1.23921
1.23803
1.23658
1.2351
1.2337
1.23236
1.23097
1.22955
1.22785
1.22572
1.22374
1.22237
1.2214
1.22061
1.21992
1.21936
1.219
1.21848
1.21774
1.21675
1.21553
1.21381
1.21089
1.20612
1.20035
1.19704
1.19626
1.19607
1.19611
1.1966
1.19799
1.19906
1.19931
1.19932
1.19921
1.19863
1.19737
1.19537
1.19251
1.18873
1.18484
1.18261
1.18168
1.18132
1.18116
1.18109
1.18096
1.18061
1.17996
1.17855
1.17625
1.17396
1.17238
1.17169
1.17154
1.17151
1.17155
1.17169
1.17183
1.17186
1.17166
1.17063
1.16771
1.1628
1.15783
1.15408
1.15219
1.15198
1.15211
1.15222
1.15227
1.15283
1.15361
1.15383
1.15368
1.15233
1.14892
1.14613
1.1447
1.14315
1.1413
1.13805
1.5559
1.55364
1.54997
1.54427
1.53843
1.53381
1.53043
1.52857
1.52767
1.52725
1.52652
1.52504
1.52299
1.52048
1.51783
1.51519
1.51161
1.50764
1.50341
1.49996
1.49765
1.49586
1.49442
1.49328
1.49255
1.4925
1.4926
1.49217
1.49058
1.48702
1.48058
1.47317
1.46918
1.46703
1.4654
1.46412
1.46365
1.46458
1.46537
1.46486
1.46406
1.46295
1.46064
1.45587
1.44969
1.44425
1.44078
1.43877
1.43765
1.43695
1.43626
1.43547
1.43483
1.43403
1.43278
1.4309
1.42746
1.42343
1.41931
1.41595
1.41391
1.41291
1.41251
1.41246
1.41237
1.41189
1.41107
1.40984
1.40815
1.40628
1.40453
1.40234
1.39875
1.39334
1.38875
1.38684
1.38573
1.38481
1.384
1.3833
1.38257
1.38144
1.37987
1.37839
1.37694
1.37539
1.37415
1.37322
1.37227
1.37083
1.36789
1.36288
1.35866
1.35658
1.35516
1.35384
1.3527
1.35149
1.3501
1.34867
1.34721
1.34562
1.34384
1.34134
1.33855
1.33702
1.33628
1.33562
1.33499
1.33436
1.33366
1.33285
1.33191
1.33075
1.32928
1.32748
1.3249
1.32105
1.3169
1.31465
1.31373
1.31342
1.31323
1.31304
1.31274
1.31231
1.31178
1.31112
1.31006
1.30849
1.30665
1.30417
1.29986
1.29392
1.29056
1.28949
1.2886
1.2875
1.28627
1.28493
1.2833
1.28192
1.28138
1.28126
1.2812
1.2812
1.2813
1.28148
1.28143
1.28112
1.27958
1.2743
1.26683
1.26303
1.26119
1.25985
1.25899
1.25844
1.25814
1.2578
1.25724
1.25659
1.25591
1.25522
1.25454
1.25381
1.25276
1.25139
1.25021
1.24927
1.24772
1.24511
1.24233
1.24034
1.23925
1.23832
1.23727
1.2363
1.23519
1.23376
1.23251
1.23181
1.23136
1.23078
1.22967
1.22754
1.22455
1.22222
1.22079
1.21967
1.21854
1.21727
1.21661
1.21657
1.21644
1.21605
1.21513
1.21372
1.21154
1.20821
1.20319
1.19789
1.19649
1.1966
1.19702
1.19777
1.19911
1.20016
1.20035
1.20033
1.20015
1.19968
1.1986
1.19655
1.19341
1.18963
1.1858
1.18287
1.18155
1.18101
1.18074
1.1807
1.18059
1.18025
1.17962
1.17836
1.17634
1.17416
1.17266
1.17173
1.171
1.1705
1.17023
1.17009
1.17008
1.17009
1.16994
1.16908
1.16706
1.16357
1.15876
1.15425
1.15197
1.15161
1.15163
1.15179
1.15235
1.15298
1.15319
1.15319
1.15296
1.1521
1.14997
1.14694
1.14498
1.1436
1.14208
1.13905
1.55154
1.54856
1.54522
1.54216
1.53965
1.53723
1.53443
1.53117
1.52821
1.52591
1.52381
1.522
1.51968
1.51681
1.51429
1.51259
1.5111
1.50906
1.50616
1.50203
1.49797
1.49573
1.49456
1.49366
1.49267
1.49143
1.49041
1.48977
1.48883
1.48677
1.48239
1.47703
1.47197
1.46834
1.46628
1.46491
1.46377
1.46301
1.46282
1.4622
1.4609
1.45945
1.45734
1.45447
1.45105
1.44795
1.44496
1.44187
1.43922
1.4374
1.43612
1.4351
1.43383
1.43219
1.43045
1.42888
1.42738
1.42491
1.4217
1.41807
1.41494
1.41298
1.41154
1.41039
1.40949
1.40879
1.40816
1.40745
1.40629
1.40471
1.40288
1.40115
1.39964
1.39709
1.39237
1.38781
1.38562
1.38427
1.38318
1.38233
1.38172
1.38123
1.38045
1.3789
1.37695
1.37541
1.37451
1.37369
1.37269
1.37126
1.36883
1.36445
1.35916
1.35591
1.35423
1.353
1.35194
1.3509
1.34972
1.34837
1.34709
1.34592
1.34472
1.34285
1.33945
1.33627
1.33489
1.33422
1.33359
1.33293
1.33221
1.33138
1.33042
1.32931
1.32802
1.32669
1.32514
1.32247
1.31889
1.31621
1.31489
1.31457
1.31439
1.31417
1.31382
1.31328
1.31251
1.31142
1.30982
1.308
1.30628
1.30461
1.30213
1.29707
1.29098
1.28797
1.28687
1.286
1.28509
1.28435
1.28394
1.28328
1.28273
1.28254
1.28251
1.28256
1.28264
1.28265
1.28257
1.2822
1.28074
1.2764
1.2689
1.26341
1.26169
1.26081
1.26014
1.25971
1.25941
1.25885
1.25823
1.25759
1.25685
1.25594
1.2548
1.25338
1.25189
1.25083
1.25044
1.24996
1.24877
1.24622
1.24272
1.23991
1.23835
1.23744
1.23641
1.23528
1.23427
1.23305
1.23205
1.2317
1.23153
1.23129
1.23064
1.22879
1.22545
1.2224
1.22061
1.21933
1.21806
1.21653
1.21527
1.21513
1.2152
1.21547
1.21566
1.21505
1.21302
1.20969
1.20537
1.20067
1.19732
1.19629
1.19616
1.19635
1.19692
1.19796
1.19837
1.19832
1.19818
1.1978
1.19681
1.19499
1.19201
1.18881
1.18635
1.18437
1.18272
1.18191
1.18168
1.18162
1.18151
1.18132
1.18085
1.17968
1.17755
1.17507
1.17318
1.17184
1.17098
1.17029
1.16984
1.16954
1.16932
1.16919
1.16906
1.16852
1.16685
1.16372
1.15952
1.15531
1.15293
1.1525
1.15256
1.15294
1.1536
1.15379
1.15371
1.15337
1.15308
1.15268
1.15144
1.14867
1.14558
1.14321
1.14135
1.13841
1.54711
1.54385
1.54134
1.5402
1.5397
1.53882
1.53725
1.53472
1.5306
1.52598
1.52231
1.51921
1.51651
1.51399
1.51244
1.51119
1.50992
1.5087
1.50697
1.50456
1.50071
1.49644
1.49388
1.49249
1.49153
1.49071
1.48976
1.48811
1.48587
1.4836
1.48159
1.47901
1.47572
1.47181
1.46801
1.46558
1.46396
1.4625
1.46126
1.46006
1.4587
1.45659
1.45388
1.45147
1.4501
1.4491
1.44781
1.44566
1.44245
1.43897
1.43614
1.43422
1.43283
1.43095
1.4288
1.42698
1.42541
1.42401
1.42246
1.42042
1.41738
1.41362
1.41097
1.40936
1.40829
1.40742
1.40667
1.40609
1.40576
1.405
1.40365
1.40218
1.4005
1.39835
1.39511
1.39049
1.38631
1.38411
1.38283
1.38197
1.38126
1.38054
1.3791
1.37716
1.37596
1.37538
1.37492
1.37435
1.37352
1.37229
1.37008
1.3658
1.35975
1.35552
1.35384
1.3527
1.35145
1.35023
1.3492
1.34861
1.34801
1.3471
1.34599
1.34406
1.34042
1.33643
1.33461
1.33382
1.3332
1.33254
1.33181
1.33099
1.33003
1.32897
1.32776
1.32624
1.32442
1.32271
1.32087
1.31809
1.31493
1.31321
1.31283
1.31259
1.31232
1.31195
1.31141
1.31087
1.31053
1.30953
1.30811
1.30642
1.30391
1.29942
1.29255
1.28776
1.2862
1.28547
1.28483
1.28384
1.28272
1.28203
1.28151
1.28115
1.281
1.28101
1.28098
1.28086
1.28057
1.27992
1.27867
1.2766
1.27247
1.26673
1.26248
1.26025
1.2589
1.25826
1.25778
1.25721
1.25651
1.2557
1.25487
1.25405
1.25317
1.25212
1.25129
1.25091
1.25051
1.2498
1.2486
1.24678
1.2441
1.24138
1.23917
1.23676
1.23475
1.23345
1.2328
1.23265
1.23263
1.23254
1.2324
1.232
1.23091
1.2287
1.22573
1.22316
1.22127
1.21976
1.21835
1.21675
1.21513
1.21453
1.21456
1.2146
1.21429
1.21329
1.21142
1.20876
1.20578
1.20256
1.1989
1.1964
1.19594
1.19595
1.19604
1.19672
1.19732
1.19733
1.19725
1.19689
1.1959
1.19404
1.1916
1.18879
1.18673
1.18541
1.18407
1.18216
1.18071
1.18016
1.18001
1.17977
1.17933
1.17823
1.17616
1.17364
1.17223
1.17199
1.17174
1.1712
1.17039
1.1696
1.16904
1.16878
1.16865
1.1682
1.16695
1.16434
1.16027
1.1556
1.15236
1.15136
1.15132
1.15151
1.15198
1.15227
1.15226
1.1522
1.15207
1.15183
1.15126
1.14974
1.1469
1.14369
1.14161
1.13878
1.54253
1.54044
1.53946
1.53896
1.53944
1.53951
1.53828
1.5366
1.53352
1.52766
1.52104
1.5164
1.51383
1.51243
1.51129
1.51016
1.50921
1.50792
1.50631
1.50464
1.50199
1.4978
1.494
1.49183
1.49047
1.48918
1.48755
1.48542
1.48316
1.48125
1.47998
1.47882
1.47729
1.47496
1.47182
1.46803
1.46421
1.46144
1.46002
1.45842
1.4563
1.45367
1.45124
1.45028
1.44982
1.44972
1.44921
1.44804
1.4457
1.4416
1.43743
1.43431
1.43159
1.4293
1.42748
1.42608
1.42464
1.42321
1.42205
1.4209
1.41916
1.41597
1.41179
1.40917
1.40787
1.40701
1.40619
1.40535
1.40413
1.40267
1.40143
1.4003
1.39909
1.39765
1.39614
1.39366
1.38951
1.386
1.38424
1.38301
1.38164
1.37989
1.37814
1.37665
1.37588
1.37534
1.37494
1.37462
1.37408
1.37324
1.37154
1.36762
1.3604
1.35506
1.35349
1.3525
1.35143
1.35042
1.34944
1.34844
1.34741
1.34634
1.34511
1.34354
1.34134
1.33843
1.33618
1.33514
1.3345
1.33378
1.33304
1.33223
1.33122
1.33006
1.32867
1.32702
1.32533
1.32371
1.32194
1.31946
1.31576
1.3131
1.31237
1.3121
1.31182
1.31153
1.31113
1.31058
1.30975
1.30853
1.3069
1.30505
1.30304
1.30036
1.29585
1.29026
1.28744
1.28637
1.28527
1.28365
1.28232
1.28172
1.28121
1.28081
1.2806
1.28051
1.28045
1.2803
1.27995
1.27919
1.27781
1.27595
1.27364
1.26998
1.26486
1.2607
1.25857
1.25747
1.25691
1.25646
1.2559
1.25508
1.25423
1.25343
1.2526
1.25187
1.25123
1.25056
1.24988
1.24923
1.24861
1.24765
1.24546
1.24148
1.23758
1.23527
1.23374
1.23275
1.2321
1.23172
1.23163
1.23167
1.23171
1.23168
1.23131
1.2298
1.22676
1.2235
1.22124
1.21955
1.21819
1.21723
1.21638
1.21543
1.21478
1.21422
1.2134
1.21228
1.21075
1.20865
1.20622
1.20385
1.20128
1.1982
1.19642
1.19594
1.19591
1.19629
1.19671
1.19667
1.19649
1.19605
1.19496
1.19307
1.19095
1.18828
1.18622
1.18546
1.18476
1.18299
1.18069
1.17976
1.17946
1.17915
1.17868
1.17763
1.1757
1.17332
1.17183
1.17133
1.17123
1.17121
1.17108
1.17057
1.16982
1.16963
1.1696
1.16925
1.16805
1.16531
1.16109
1.15609
1.15236
1.15101
1.15089
1.15101
1.1514
1.15172
1.15173
1.15164
1.15151
1.15139
1.15108
1.15014
1.14784
1.14397
1.14068
1.13743
1.54038
1.53906
1.53816
1.53867
1.54014
1.5399
1.53883
1.53719
1.53462
1.52945
1.52119
1.51554
1.51338
1.51199
1.51062
1.50933
1.50839
1.50685
1.50498
1.50319
1.50144
1.49899
1.49531
1.49161
1.48923
1.48757
1.48576
1.48359
1.48158
1.48041
1.47941
1.47869
1.47809
1.47663
1.47447
1.47114
1.46673
1.46271
1.45889
1.45544
1.45253
1.45082
1.45003
1.44986
1.45012
1.45025
1.44981
1.44909
1.44777
1.44449
1.43848
1.43272
1.42961
1.42803
1.42691
1.42571
1.42432
1.42286
1.42137
1.42
1.41883
1.41719
1.41387
1.41032
1.40895
1.40815
1.40693
1.40516
1.40315
1.40148
1.40046
1.39957
1.39885
1.39826
1.39744
1.39604
1.39303
1.38808
1.3837
1.38101
1.37949
1.37824
1.37728
1.37681
1.37628
1.3757
1.37517
1.37462
1.37394
1.37307
1.37176
1.36863
1.36192
1.35562
1.35354
1.35256
1.35168
1.3506
1.34934
1.34809
1.34694
1.34584
1.34476
1.34375
1.34259
1.34046
1.33713
1.33434
1.33268
1.3318
1.33103
1.33025
1.32932
1.32814
1.3267
1.32506
1.32354
1.32227
1.32113
1.31985
1.31758
1.31477
1.31374
1.3134
1.31309
1.31268
1.31199
1.31094
1.30953
1.30799
1.30641
1.30462
1.30293
1.30135
1.29865
1.29311
1.28736
1.28513
1.28438
1.28386
1.28349
1.28313
1.28267
1.28215
1.28174
1.28151
1.28133
1.28107
1.28064
1.27989
1.27849
1.27644
1.27425
1.27154
1.26792
1.26353
1.25945
1.2573
1.25646
1.25594
1.25555
1.25538
1.2552
1.25466
1.25384
1.25277
1.25161
1.25075
1.25026
1.24981
1.24926
1.2483
1.24624
1.24192
1.23674
1.23421
1.23332
1.2325
1.23163
1.23124
1.23123
1.2313
1.23142
1.23144
1.23119
1.22988
1.22682
1.22351
1.22154
1.22019
1.21894
1.21774
1.2164
1.21475
1.21336
1.2128
1.21234
1.21152
1.21089
1.20999
1.20773
1.20523
1.20297
1.20039
1.1978
1.19647
1.19604
1.19604
1.19626
1.19619
1.19602
1.19556
1.19441
1.19252
1.19056
1.18804
1.18585
1.18491
1.18459
1.18403
1.1822
1.18027
1.17942
1.17893
1.17842
1.1774
1.17553
1.17315
1.17151
1.17122
1.17137
1.1715
1.17127
1.17045
1.16914
1.16801
1.16776
1.16737
1.16633
1.16411
1.16036
1.1563
1.15331
1.15201
1.15182
1.15187
1.15214
1.15249
1.15275
1.15284
1.15284
1.15278
1.15242
1.15125
1.14861
1.14436
1.14054
1.13705
1.53994
1.53888
1.53801
1.53831
1.53901
1.53818
1.53728
1.53642
1.53461
1.53022
1.52367
1.51778
1.51434
1.51271
1.51167
1.51103
1.51002
1.50823
1.50604
1.50365
1.50137
1.49926
1.49669
1.49329
1.48931
1.48607
1.48384
1.48222
1.48137
1.48052
1.47969
1.4791
1.47873
1.47756
1.47588
1.47352
1.46925
1.46264
1.45655
1.45318
1.4512
1.45017
1.44944
1.44914
1.44995
1.45062
1.45032
1.44968
1.4488
1.44637
1.43988
1.43213
1.42879
1.42759
1.42652
1.42535
1.42411
1.42259
1.42102
1.41969
1.41867
1.41781
1.41629
1.41272
1.40844
1.40592
1.40448
1.403
1.40183
1.40098
1.4003
1.39971
1.39913
1.39838
1.39751
1.39646
1.3946
1.39034
1.38434
1.38045
1.37861
1.37753
1.37684
1.3764
1.37609
1.37579
1.37531
1.37475
1.37417
1.37327
1.3715
1.36839
1.36347
1.35747
1.35392
1.35256
1.35156
1.35057
1.34981
1.34917
1.34841
1.34749
1.34653
1.34552
1.34416
1.34188
1.33837
1.33474
1.33226
1.33096
1.3302
1.3293
1.32828
1.32713
1.32584
1.32435
1.32281
1.32184
1.32125
1.32057
1.31905
1.31582
1.31278
1.31153
1.31081
1.31016
1.30954
1.30865
1.30758
1.30658
1.30562
1.30493
1.30407
1.30291
1.30075
1.29566
1.28814
1.28497
1.28421
1.28341
1.28246
1.28193
1.28145
1.28091
1.28035
1.2798
1.27936
1.27901
1.27861
1.27801
1.27717
1.2756
1.27349
1.27151
1.2694
1.26628
1.26212
1.25837
1.25651
1.25576
1.25532
1.25479
1.254
1.25303
1.25216
1.25123
1.25038
1.24986
1.24942
1.24898
1.24842
1.24768
1.24633
1.24273
1.237
1.2338
1.23303
1.23282
1.23282
1.23245
1.23229
1.23237
1.23245
1.23242
1.23204
1.23044
1.22666
1.22324
1.22191
1.22084
1.21955
1.21818
1.21664
1.21472
1.21314
1.21244
1.21203
1.21144
1.21068
1.20923
1.20658
1.20414
1.20256
1.20154
1.20019
1.19805
1.19653
1.19638
1.19655
1.19662
1.19655
1.19618
1.1951
1.19324
1.19112
1.1882
1.18604
1.18543
1.18533
1.18504
1.18372
1.1815
1.18023
1.17979
1.17932
1.17833
1.17663
1.17443
1.17285
1.17234
1.17224
1.1721
1.17159
1.17066
1.16916
1.16759
1.16708
1.16668
1.16575
1.16384
1.16064
1.15675
1.15361
1.15181
1.15105
1.15083
1.15085
1.15107
1.15145
1.15164
1.15164
1.15156
1.15117
1.15008
1.14809
1.14503
1.14163
1.13793
1.53943
1.53869
1.53892
1.54002
1.53979
1.53814
1.53593
1.53369
1.53101
1.52815
1.52536
1.52289
1.5196
1.51512
1.51137
1.5088
1.50692
1.50523
1.50338
1.50134
1.49918
1.49744
1.49618
1.49447
1.49058
1.48543
1.4828
1.48187
1.48118
1.48056
1.48024
1.48035
1.48023
1.47885
1.47705
1.47481
1.47047
1.46251
1.4555
1.45251
1.45113
1.45002
1.44927
1.44939
1.45113
1.45223
1.45174
1.45085
1.44965
1.44701
1.44124
1.43342
1.42904
1.42736
1.42618
1.42504
1.42403
1.42328
1.42213
1.42102
1.42002
1.41902
1.4175
1.41423
1.40894
1.4052
1.40332
1.40209
1.40128
1.40053
1.39973
1.39899
1.39855
1.39832
1.39768
1.39679
1.39537
1.39205
1.38589
1.38073
1.37875
1.37762
1.37661
1.37594
1.37558
1.37541
1.37558
1.37561
1.37536
1.37433
1.37213
1.36884
1.365
1.36049
1.35581
1.35295
1.35157
1.35054
1.34942
1.3482
1.34709
1.34612
1.34514
1.34409
1.34292
1.34159
1.33967
1.33686
1.33421
1.33187
1.32967
1.32819
1.3271
1.32602
1.32497
1.32428
1.32363
1.32303
1.32252
1.32182
1.32031
1.31685
1.31263
1.3107
1.30977
1.30882
1.30793
1.30725
1.30664
1.30604
1.30541
1.30461
1.30355
1.3024
1.30098
1.29797
1.2913
1.28555
1.28391
1.28309
1.28222
1.28157
1.28111
1.2806
1.27999
1.27931
1.27872
1.2783
1.27793
1.27733
1.27669
1.27592
1.27436
1.27229
1.27015
1.26762
1.26442
1.26067
1.25768
1.25653
1.25609
1.25538
1.25405
1.2523
1.25114
1.25058
1.25001
1.24956
1.24921
1.24874
1.24809
1.24716
1.24561
1.2429
1.23856
1.23488
1.23325
1.23234
1.23154
1.23089
1.23053
1.23043
1.23039
1.23026
1.22977
1.22863
1.22687
1.22462
1.22251
1.22064
1.21887
1.21734
1.21625
1.21531
1.21423
1.21343
1.21293
1.21233
1.21131
1.20957
1.20701
1.20458
1.20301
1.20222
1.20159
1.20022
1.19759
1.19566
1.19492
1.19482
1.1947
1.19429
1.19319
1.19117
1.18916
1.18756
1.18559
1.18469
1.18475
1.185
1.18499
1.18371
1.18064
1.17876
1.17801
1.17701
1.17538
1.1732
1.17133
1.1706
1.17045
1.17034
1.17033
1.17035
1.16979
1.16831
1.16769
1.16734
1.16649
1.16481
1.16176
1.15773
1.15431
1.15212
1.151
1.15055
1.15041
1.15053
1.15096
1.15118
1.15118
1.15107
1.15063
1.14964
1.14806
1.1457
1.1424
1.13756
1.53932
1.53835
1.53784
1.53691
1.53541
1.53365
1.5317
1.52952
1.52703
1.52561
1.52511
1.52446
1.52301
1.51945
1.51323
1.50824
1.50556
1.50359
1.50197
1.50075
1.49958
1.4982
1.49685
1.49498
1.49142
1.48657
1.48361
1.48226
1.48132
1.48063
1.48029
1.48116
1.48136
1.47978
1.47788
1.47558
1.47096
1.4624
1.45515
1.45289
1.45174
1.45084
1.45025
1.45006
1.45033
1.45004
1.44915
1.44824
1.44717
1.44561
1.44241
1.43733
1.43169
1.42788
1.42615
1.42497
1.42386
1.42281
1.4217
1.42053
1.41942
1.41838
1.41733
1.41552
1.41132
1.40582
1.40291
1.40171
1.40088
1.40018
1.3996
1.39888
1.3983
1.39787
1.39722
1.39624
1.39485
1.39267
1.38836
1.38198
1.37858
1.37746
1.37671
1.376
1.37566
1.37556
1.37539
1.37492
1.37405
1.37251
1.37016
1.3677
1.36531
1.36272
1.35893
1.35484
1.35265
1.35135
1.34992
1.34825
1.34657
1.34535
1.34444
1.34359
1.3427
1.34188
1.34079
1.33837
1.3345
1.33126
1.329
1.32768
1.3267
1.3257
1.3248
1.32412
1.32324
1.32252
1.32193
1.32123
1.32014
1.318
1.31413
1.31059
1.30892
1.30791
1.30719
1.30655
1.30594
1.30548
1.3054
1.30492
1.30389
1.30282
1.30163
1.29947
1.2947
1.28749
1.28356
1.28288
1.28273
1.28267
1.28239
1.28196
1.2814
1.28062
1.27975
1.27919
1.27881
1.27816
1.27671
1.27467
1.27299
1.27149
1.26988
1.26834
1.26652
1.2638
1.26003
1.25643
1.2543
1.25346
1.25272
1.25153
1.2506
1.25036
1.2505
1.25051
1.25004
1.2495
1.24877
1.24769
1.24609
1.24358
1.24005
1.23629
1.23362
1.23207
1.23105
1.23034
1.22986
1.22957
1.22941
1.22919
1.2287
1.22762
1.22586
1.22402
1.22239
1.22068
1.21903
1.21767
1.21657
1.21568
1.21457
1.21292
1.21108
1.2098
1.20876
1.20737
1.2054
1.20317
1.20165
1.20131
1.20147
1.20137
1.19954
1.1961
1.19459
1.19428
1.1941
1.19366
1.19255
1.19051
1.1885
1.187
1.18513
1.18436
1.18452
1.18527
1.18586
1.18524
1.18176
1.17867
1.17755
1.17656
1.17504
1.1729
1.17087
1.16992
1.16966
1.16963
1.16981
1.17009
1.17003
1.16876
1.16649
1.16541
1.16455
1.163
1.16039
1.15663
1.15337
1.15195
1.15168
1.1516
1.15157
1.15172
1.15207
1.1522
1.15218
1.15206
1.15171
1.15083
1.14926
1.14679
1.14321
1.13773
1.53965
1.53781
1.53598
1.53439
1.53298
1.53114
1.52852
1.5259
1.52467
1.52428
1.52444
1.52429
1.5236
1.52201
1.51783
1.51078
1.50566
1.50305
1.50104
1.49909
1.49719
1.49556
1.49409
1.49247
1.49062
1.48807
1.48536
1.48367
1.48259
1.48189
1.48139
1.4809
1.48038
1.47923
1.47734
1.47479
1.4706
1.46398
1.45748
1.45374
1.45223
1.45153
1.4515
1.45143
1.45056
1.44949
1.44833
1.44688
1.44477
1.44258
1.44097
1.43909
1.43573
1.43074
1.42684
1.42496
1.42367
1.42256
1.42142
1.42027
1.41921
1.41823
1.41724
1.41591
1.41298
1.40747
1.40339
1.40174
1.40069
1.3998
1.39918
1.39928
1.39968
1.39917
1.39832
1.39727
1.39575
1.39344
1.3898
1.38476
1.37995
1.37757
1.37693
1.3768
1.37668
1.37653
1.37622
1.37541
1.37367
1.3715
1.36926
1.36754
1.36637
1.3648
1.36178
1.35644
1.35141
1.34922
1.34797
1.34662
1.34531
1.34433
1.34361
1.34324
1.34306
1.34273
1.34204
1.33989
1.33522
1.33104
1.32964
1.32882
1.32787
1.3268
1.32578
1.32481
1.32374
1.32288
1.32224
1.32162
1.32069
1.31903
1.31523
1.31056
1.30852
1.3077
1.307
1.30637
1.30579
1.30545
1.30488
1.30408
1.30323
1.30217
1.30084
1.29905
1.29601
1.29041
1.28526
1.2832
1.28229
1.28169
1.28115
1.2807
1.2803
1.27977
1.27892
1.27792
1.27684
1.27573
1.27471
1.27333
1.27216
1.27126
1.27018
1.2689
1.26753
1.2656
1.26213
1.25732
1.2537
1.25233
1.25163
1.25103
1.25051
1.24998
1.24939
1.24879
1.24836
1.24791
1.2472
1.24603
1.24442
1.24262
1.2406
1.2379
1.23468
1.23211
1.23099
1.23053
1.22999
1.22932
1.22899
1.22877
1.22827
1.22725
1.22569
1.22367
1.22189
1.22075
1.21985
1.21899
1.218
1.21676
1.21507
1.2127
1.21037
1.20882
1.20762
1.20627
1.20461
1.20286
1.20187
1.20157
1.20142
1.20137
1.20077
1.19852
1.19588
1.19516
1.19497
1.19452
1.19337
1.19131
1.18926
1.18792
1.18642
1.18568
1.18592
1.18659
1.18674
1.18625
1.18371
1.17994
1.17825
1.17727
1.17588
1.17386
1.1718
1.17091
1.17081
1.17085
1.17098
1.17104
1.17079
1.16917
1.16623
1.16453
1.1635
1.16202
1.15968
1.15637
1.15336
1.1522
1.15196
1.15174
1.1513
1.15086
1.15078
1.15074
1.15068
1.15055
1.15023
1.14944
1.14796
1.14583
1.14333
1.13889
1.54122
1.53762
1.5352
1.53341
1.53123
1.52844
1.52578
1.52442
1.52371
1.52333
1.5236
1.52387
1.5235
1.52272
1.52041
1.51442
1.50698
1.5029
1.50044
1.49821
1.49617
1.49434
1.49281
1.49138
1.49003
1.48853
1.48654
1.48482
1.48359
1.48275
1.48195
1.48094
1.47964
1.47779
1.47514
1.47152
1.46752
1.46427
1.46133
1.4583
1.45499
1.45251
1.45138
1.45054
1.44967
1.44878
1.4475
1.44527
1.44248
1.44059
1.4395
1.43858
1.43727
1.43432
1.42974
1.42672
1.42535
1.42422
1.42302
1.42181
1.42062
1.41947
1.41823
1.41664
1.41412
1.40991
1.40508
1.40218
1.40074
1.3997
1.39895
1.39834
1.39777
1.39711
1.39624
1.39506
1.39327
1.39095
1.38893
1.38683
1.38391
1.38034
1.37777
1.37658
1.37579
1.37513
1.37445
1.37321
1.37125
1.3696
1.36875
1.36814
1.36736
1.36597
1.36348
1.35824
1.35152
1.34829
1.34714
1.3461
1.34498
1.34406
1.34348
1.34306
1.34267
1.3422
1.34149
1.34019
1.33708
1.33218
1.3288
1.32724
1.32617
1.32509
1.32407
1.32316
1.32208
1.32119
1.32078
1.32073
1.32069
1.31988
1.31686
1.31226
1.30894
1.30759
1.30697
1.30664
1.3068
1.30681
1.30581
1.30471
1.30382
1.30284
1.30158
1.29986
1.29712
1.29286
1.28741
1.28342
1.28192
1.2813
1.28078
1.28024
1.27983
1.27954
1.27914
1.27815
1.27624
1.27402
1.27281
1.2722
1.27182
1.27138
1.27049
1.26954
1.26853
1.26699
1.26377
1.25795
1.25325
1.25177
1.25109
1.25048
1.2498
1.24906
1.24835
1.24772
1.24721
1.24691
1.24655
1.24559
1.24397
1.24201
1.24017
1.23854
1.23659
1.23385
1.23123
1.23006
1.22981
1.22982
1.22995
1.22997
1.22957
1.22823
1.22621
1.22446
1.22317
1.22199
1.2207
1.21922
1.21761
1.21591
1.21432
1.21282
1.21118
1.20942
1.2077
1.20583
1.20386
1.202
1.20091
1.20063
1.20053
1.2005
1.20081
1.20068
1.19813
1.19467
1.19341
1.19276
1.19161
1.18956
1.18734
1.1861
1.18498
1.18427
1.1845
1.18534
1.18599
1.18596
1.18514
1.18178
1.17762
1.17565
1.17434
1.17251
1.17049
1.16965
1.1696
1.16965
1.16983
1.1699
1.16978
1.16919
1.16719
1.16461
1.16313
1.16163
1.15941
1.15629
1.15331
1.15217
1.15212
1.15206
1.15151
1.15062
1.15024
1.15006
1.14996
1.1498
1.14947
1.14869
1.1473
1.14534
1.14313
1.13948
1.54539
1.54021
1.53599
1.53235
1.52936
1.52684
1.5251
1.52401
1.52342
1.52397
1.52497
1.52452
1.52403
1.5231
1.52079
1.51629
1.51068
1.50529
1.50125
1.49821
1.49553
1.49313
1.49111
1.48963
1.48837
1.48758
1.48714
1.48657
1.48544
1.48369
1.48169
1.47992
1.47837
1.47609
1.4727
1.469
1.46596
1.4643
1.46318
1.4618
1.45967
1.45621
1.4522
1.45003
1.44913
1.44785
1.44566
1.44259
1.44045
1.43957
1.43904
1.43858
1.43789
1.43642
1.43311
1.42802
1.42439
1.42256
1.42129
1.4201
1.41885
1.41749
1.41595
1.41421
1.4126
1.41082
1.40804
1.40472
1.40237
1.40073
1.39912
1.39762
1.39667
1.39605
1.39534
1.3942
1.39246
1.39038
1.38864
1.38731
1.38578
1.3832
1.37955
1.37729
1.3764
1.37523
1.37349
1.37158
1.36987
1.36901
1.36832
1.36764
1.36676
1.36556
1.36392
1.36036
1.35368
1.34829
1.3467
1.34615
1.34588
1.34567
1.34504
1.34437
1.34385
1.34333
1.34261
1.34129
1.33826
1.33337
1.32901
1.3269
1.32558
1.32442
1.32341
1.32255
1.3215
1.32062
1.32011
1.31977
1.31915
1.31799
1.31646
1.31411
1.31121
1.30859
1.30696
1.30615
1.30547
1.30485
1.30399
1.30286
1.30173
1.30064
1.29938
1.29784
1.2962
1.29411
1.29066
1.28537
1.28181
1.28102
1.28072
1.28045
1.28009
1.27944
1.27826
1.27656
1.27468
1.27318
1.27226
1.27158
1.27105
1.27062
1.27029
1.26966
1.26883
1.26774
1.2652
1.25923
1.25352
1.25161
1.25076
1.25001
1.24926
1.24853
1.24789
1.24734
1.24678
1.24625
1.24599
1.24557
1.24436
1.24223
1.24016
1.23864
1.23729
1.23558
1.2332
1.23093
1.22974
1.22918
1.22876
1.22829
1.2274
1.22618
1.22486
1.22382
1.22278
1.22157
1.22031
1.21911
1.21768
1.21611
1.21468
1.21306
1.21065
1.20784
1.20596
1.20452
1.20293
1.20139
1.20047
1.20025
1.20044
1.20125
1.20212
1.20208
1.20005
1.19536
1.193
1.19209
1.19095
1.18898
1.18672
1.18547
1.18449
1.18378
1.18393
1.18461
1.18564
1.18605
1.18575
1.18306
1.17787
1.17508
1.1737
1.17194
1.16993
1.16905
1.169
1.16905
1.16926
1.16954
1.16955
1.16916
1.16777
1.16561
1.16405
1.16251
1.16034
1.15729
1.15431
1.15296
1.15262
1.15242
1.15206
1.15135
1.1505
1.14992
1.14974
1.14955
1.14919
1.1484
1.14698
1.14504
1.14319
1.14017
1.54944
1.54359
1.53649
1.5313
1.5282
1.52655
1.52531
1.52431
1.52373
1.52339
1.52279
1.52194
1.52093
1.51974
1.51835
1.51639
1.51302
1.50892
1.50381
1.49884
1.4953
1.49269
1.49039
1.48859
1.48783
1.48742
1.48717
1.4868
1.48608
1.48478
1.48287
1.48043
1.4771
1.47354
1.47015
1.46739
1.46602
1.4652
1.46449
1.4635
1.46228
1.46018
1.45611
1.45101
1.44713
1.44505
1.44329
1.44115
1.43998
1.43942
1.43888
1.4384
1.43792
1.43689
1.43449
1.4296
1.42464
1.42215
1.42075
1.41958
1.41834
1.41691
1.41522
1.41364
1.41217
1.41111
1.41005
1.40792
1.40403
1.40075
1.39867
1.39705
1.3958
1.39483
1.39407
1.39295
1.39134
1.39031
1.38936
1.38827
1.38692
1.38505
1.38176
1.3773
1.37422
1.37266
1.37126
1.37014
1.36945
1.36864
1.36797
1.36735
1.36632
1.36512
1.3637
1.36135
1.35652
1.35055
1.34734
1.34605
1.3453
1.34459
1.34383
1.34301
1.34219
1.34134
1.34033
1.33904
1.33732
1.33448
1.33094
1.32818
1.32663
1.32557
1.32462
1.32363
1.32249
1.32145
1.3205
1.31936
1.31799
1.31661
1.31546
1.31443
1.31288
1.31019
1.30728
1.30564
1.30467
1.30389
1.30314
1.30217
1.301
1.29977
1.29845
1.29696
1.29547
1.29411
1.29208
1.28841
1.28386
1.28138
1.28065
1.2803
1.27982
1.27906
1.27771
1.27582
1.27402
1.27301
1.27214
1.27134
1.27082
1.27062
1.27011
1.26938
1.26863
1.26769
1.2656
1.26069
1.25484
1.25251
1.25168
1.25099
1.25022
1.24948
1.24884
1.24825
1.24759
1.24674
1.24563
1.24421
1.24278
1.24137
1.2398
1.23823
1.23693
1.23596
1.23476
1.2326
1.23044
1.22958
1.22884
1.22749
1.226
1.22503
1.22456
1.22394
1.22296
1.22158
1.22006
1.21861
1.2173
1.21627
1.21521
1.21355
1.21074
1.20736
1.20524
1.20396
1.20264
1.20134
1.20053
1.20028
1.2003
1.20053
1.20088
1.20121
1.2008
1.19816
1.19461
1.19301
1.19182
1.18996
1.18754
1.18608
1.1853
1.18455
1.18457
1.18499
1.18561
1.1859
1.18573
1.18373
1.1788
1.17526
1.17358
1.17181
1.16984
1.1687
1.16851
1.16864
1.16903
1.1693
1.16943
1.16944
1.16872
1.1658
1.16274
1.16093
1.15893
1.15617
1.15323
1.15181
1.15162
1.15159
1.15161
1.15168
1.1515
1.15098
1.15058
1.15027
1.14992
1.1492
1.1479
1.14609
1.14433
1.14124
1.5514
1.54638
1.53749
1.53077
1.52814
1.52665
1.52551
1.52473
1.52409
1.52306
1.52218
1.52147
1.5203
1.51827
1.51624
1.51486
1.51338
1.51078
1.50708
1.50181
1.49629
1.49284
1.49083
1.48941
1.48836
1.48778
1.4873
1.48665
1.48573
1.48447
1.48224
1.47856
1.47428
1.47071
1.46844
1.46728
1.46656
1.46658
1.46633
1.46524
1.46407
1.4624
1.45857
1.45171
1.44558
1.44271
1.44144
1.4408
1.44027
1.43975
1.4392
1.43856
1.43764
1.4362
1.43412
1.4309
1.42652
1.4235
1.42205
1.42075
1.41925
1.41714
1.41462
1.41332
1.41255
1.41191
1.41095
1.40931
1.40595
1.40146
1.39902
1.39758
1.39562
1.39347
1.39212
1.39128
1.39058
1.3904
1.3903
1.38932
1.38798
1.3863
1.38312
1.37755
1.37274
1.37085
1.37003
1.3696
1.3693
1.36951
1.36961
1.36872
1.36749
1.36621
1.36464
1.36229
1.35878
1.35398
1.34897
1.34615
1.34496
1.34411
1.34331
1.34258
1.34177
1.3407
1.33929
1.33749
1.33586
1.33465
1.33321
1.33063
1.32712
1.32441
1.32283
1.32165
1.32049
1.31935
1.31822
1.31729
1.31658
1.31566
1.31498
1.31468
1.31406
1.31214
1.30841
1.3051
1.30351
1.30254
1.3018
1.30102
1.29996
1.29874
1.29742
1.29608
1.29481
1.29347
1.292
1.29009
1.28679
1.28319
1.28176
1.28125
1.28058
1.27924
1.27696
1.27489
1.27409
1.27339
1.27262
1.27204
1.27146
1.27056
1.26969
1.26885
1.26788
1.26657
1.26469
1.26195
1.25766
1.25346
1.25127
1.24984
1.24872
1.24787
1.24716
1.24651
1.24584
1.24498
1.24374
1.24217
1.24109
1.24033
1.2395
1.23848
1.23749
1.2366
1.2357
1.23404
1.23092
1.22798
1.22711
1.2263
1.22517
1.2248
1.22449
1.22386
1.22281
1.22156
1.22032
1.21932
1.21843
1.21725
1.21584
1.2139
1.21068
1.20729
1.20578
1.20482
1.20371
1.20264
1.20189
1.20136
1.2009
1.2006
1.2005
1.20055
1.20067
1.20017
1.19705
1.19283
1.19039
1.18834
1.18586
1.18389
1.18361
1.18351
1.18348
1.18393
1.1847
1.18499
1.1849
1.18395
1.18058
1.17582
1.17327
1.17155
1.16977
1.16857
1.16821
1.16831
1.16904
1.1701
1.17046
1.17044
1.1695
1.16607
1.16234
1.16037
1.15853
1.15602
1.15324
1.15163
1.15135
1.15147
1.15193
1.15222
1.15187
1.15038
1.14914
1.14869
1.1483
1.14758
1.14631
1.14458
1.14284
1.1399
1.55093
1.54704
1.53981
1.53341
1.53033
1.52839
1.52663
1.52503
1.52366
1.52244
1.52118
1.52002
1.51849
1.51634
1.51453
1.51324
1.51171
1.51016
1.50816
1.50476
1.4994
1.49438
1.49192
1.49052
1.4894
1.48841
1.48762
1.48705
1.4865
1.4854
1.48243
1.47692
1.47181
1.46925
1.46805
1.46715
1.46697
1.46763
1.46747
1.46637
1.46522
1.46361
1.45984
1.45212
1.44526
1.44237
1.44116
1.44038
1.4397
1.43903
1.43827
1.43741
1.43647
1.43545
1.43428
1.43234
1.42864
1.42376
1.42048
1.41876
1.4172
1.4157
1.41443
1.4134
1.41247
1.41148
1.41037
1.40924
1.40767
1.40435
1.3995
1.39614
1.39443
1.39263
1.39157
1.39095
1.39043
1.39033
1.39045
1.38964
1.3882
1.38659
1.38351
1.37726
1.37171
1.37008
1.36966
1.36939
1.36914
1.36884
1.36842
1.36738
1.36608
1.36476
1.36322
1.36144
1.35958
1.35702
1.35287
1.34804
1.3453
1.34404
1.3431
1.34199
1.34066
1.33928