/*--------------------------------*- C++ -*----------------------------------*\
  =========                 |
  \\      /  F ield         | OpenFOAM: The Open Source CFD Toolbox
   \\    /   O peration     | Website:  https://openfoam.org
    \\  /    A nd           | Version:  7
     \\/     M anipulation  |
\*---------------------------------------------------------------------------*/
FoamFile
{
    version     2.0;
    format      ascii;
    class       volScalarField;
    location    "1.2";
    object      p;
}
// * * * * * * * * * * * * * * * * * * * * * * * * * * * * * * * * * * * * * //

dimensions      [1 -1 -2 0 0 0 0];

internalField   nonuniform List<scalar> 
16512
(
0.244053
0.272262
0.306978
0.357917
0.41714
0.470214
0.513071
0.535055
0.553083
0.568314
0.587147
0.608481
0.63773
0.673963
0.699354
0.712731
0.723261
0.735792
0.743304
0.75858
0.793235
0.836517
0.871383
0.901494
0.912958
0.913715
0.907999
0.906596
0.918437
0.951321
0.999345
1.02671
1.03117
1.03191
1.02451
1.01891
1.02513
1.03549
1.05786
1.09705
1.12259
1.1314
1.13826
1.14577
1.15219
1.15553
1.16
1.16743
1.18255
1.20187
1.20886
1.2086
1.20698
1.20395
1.20427
1.20691
1.21228
1.22541
1.24342
1.24845
1.24817
1.24543
1.24433
1.24663
1.25217
1.26507
1.27764
1.28056
1.28167
1.28141
1.28055
1.28022
1.28116
1.28608
1.29211
1.29475
1.29642
1.29539
1.29367
1.29419
1.29529
1.29694
1.29959
1.3038
1.30656
1.30545
1.30398
1.30277
1.30233
1.30345
1.308
1.31383
1.31596
1.3147
1.31186
1.30731
1.30299
1.30167
1.30221
1.3061
1.31388
1.31815
1.31913
1.31868
1.31581
1.31372
1.31473
1.31692
1.32073
1.3241
1.3247
1.32324
2.20271
5.25136
5.87273
6.01133
6.1336
6.22781
6.30819
6.37771
6.43369
6.47661
6.51213
6.54897
6.59341
6.64307
6.69097
6.72871
6.75319
6.77365
6.79397
6.81648
6.84126
6.86871
6.89698
6.92158
6.93945
6.94835
6.95198
6.95522
6.9627
6.97583
6.99404
7.01479
7.03319
7.04393
7.04313
7.03256
7.0196
7.01314
7.01839
7.03164
7.04401
7.04802
7.04144
7.02973
7.01751
7.02218
7.0475
7.07502
7.09298
7.09725
7.0871
7.0661
7.04939
7.04555
7.06214
7.08241
7.09481
7.08666
7.07068
7.05585
7.04602
7.04628
7.06177
7.07661
0.149443
0.17174
0.207295
0.251834
0.294183
0.338387
0.390839
0.42094
0.452495
0.496212
0.538312
0.578381
0.61223
0.637753
0.665048
0.677611
0.685512
0.707237
0.735861
0.760983
0.797197
0.83119
0.850038
0.859782
0.873065
0.883471
0.890461
0.89956
0.915628
0.941548
0.975394
1.00464
1.01506
1.01959
1.02266
1.01764
1.01971
1.02842
1.04953
1.08899
1.11646
1.12516
1.13191
1.13875
1.14493
1.14927
1.15364
1.16031
1.17458
1.18895
1.19408
1.19805
1.20247
1.20476
1.20695
1.20904
1.21128
1.2186
1.23225
1.2407
1.24352
1.24601
1.24937
1.25356
1.25809
1.26514
1.27093
1.27192
1.27231
1.27299
1.27509
1.27766
1.28248
1.28982
1.2937
1.29528
1.29562
1.29281
1.29002
1.29078
1.29245
1.29504
1.29931
1.30494
1.30881
1.30877
1.30749
1.30555
1.3038
1.30303
1.30375
1.3071
1.31037
1.31157
1.3107
1.30923
1.30757
1.30615
1.30619
1.30857
1.31359
1.31749
1.31894
1.3195
1.31821
1.31594
1.31559
1.31642
1.31816
1.32021
1.32115
1.32102
2.09735
5.15757
5.88437
6.02532
6.1482
6.24063
6.31726
6.38532
6.44369
6.48872
6.52348
6.55707
6.59611
6.64073
6.68598
6.7241
6.75389
6.77896
6.80222
6.8233
6.84248
6.86462
6.89285
6.92175
6.94349
6.95506
6.9599
6.96267
6.96859
6.98002
6.9963
7.01514
7.03277
7.04435
7.04623
7.03864
7.02694
7.01855
7.01889
7.02744
7.03849
7.04473
7.04245
7.03498
7.02769
7.03008
7.05111
7.07176
7.08458
7.08827
7.08172
7.06562
7.05347
7.05088
7.06664
7.08368
7.09178
7.08266
7.06794
7.0556
7.04714
7.04841
7.06346
7.07779
0.162913
0.176307
0.195722
0.202698
0.206597
0.219392
0.249591
0.307633
0.359503
0.394858
0.439502
0.489119
0.531166
0.564056
0.601431
0.641442
0.671071
0.701743
0.744467
0.777265
0.809899
0.837806
0.841317
0.847471
0.861652
0.876813
0.894849
0.91555
0.939147
0.967199
0.986838
0.993369
0.995382
1.00068
1.00715
1.01382
1.02329
1.03819
1.06249
1.10104
1.12472
1.12961
1.13168
1.12807
1.12427
1.12783
1.13593
1.15465
1.1884
1.2112
1.21638
1.21918
1.21842
1.21343
1.20865
1.20835
1.2108
1.21932
1.23185
1.23951
1.24523
1.25118
1.25697
1.26285
1.26665
1.26752
1.2664
1.26497
1.2625
1.26377
1.26839
1.27506
1.28541
1.29499
1.29757
1.29842
1.29726
1.29269
1.28823
1.2885
1.29043
1.29368
1.29891
1.30474
1.30759
1.30758
1.30782
1.30839
1.30881
1.30939
1.31042
1.31094
1.31016
1.30854
1.30639
1.30559
1.3061
1.30713
1.3093
1.3135
1.31693
1.31789
1.3187
1.31903
1.31754
1.3161
1.31696
1.31842
1.31952
1.31944
1.31877
1.31684
1.88062
4.979
5.91463
6.0446
6.17146
6.26188
6.33306
6.39065
6.43816
6.47821
6.51657
6.55781
6.60032
6.64022
6.677
6.71132
6.74434
6.7767
6.80845
6.8348
6.85297
6.86805
6.88601
6.90885
6.93158
6.94981
6.96107
6.96727
6.97248
6.98064
6.99287
7.008
7.02327
7.03524
7.04146
7.04109
7.03515
7.02733
7.02204
7.02263
7.02756
7.03245
7.03451
7.03442
7.03739
7.04225
7.05617
7.06689
7.07334
7.07509
7.07135
7.06231
7.05843
7.05962
7.07414
7.08603
7.08754
7.07677
7.06335
7.05413
7.04852
7.05129
7.06559
7.07855
0.214176
0.211657
0.205608
0.206087
0.211898
0.22558
0.244206
0.25451
0.267019
0.279962
0.304808
0.34192
0.390019
0.442337
0.490092
0.545656
0.592341
0.625256
0.670851
0.710864
0.741691
0.775365
0.791756
0.810243
0.843313
0.87082
0.896172
0.921979
0.939175
0.953821
0.964914
0.970601
0.97871
0.991498
1.00628
1.01715
1.02753
1.04501
1.07054
1.09779
1.11163
1.11465
1.11626
1.11377
1.10946
1.1124
1.12259
1.14518
1.18182
1.2022
1.20661
1.20933
1.2082
1.20113
1.19784
1.20084
1.2087
1.2232
1.23538
1.23914
1.24215
1.24336
1.24577
1.25117
1.25749
1.26441
1.26802
1.27008
1.27035
1.26968
1.272
1.27567
1.28215
1.28809
1.29039
1.29211
1.29333
1.29278
1.29174
1.29239
1.29347
1.2954
1.29899
1.30201
1.30269
1.30273
1.30376
1.30464
1.30531
1.30653
1.30811
1.30873
1.30866
1.30778
1.30528
1.30273
1.30262
1.30353
1.30585
1.31097
1.31454
1.31553
1.31646
1.31709
1.31624
1.31555
1.3169
1.31926
1.32199
1.3231
1.32319
1.3206
1.59469
4.67978
5.99476
6.09493
6.20612
6.28
6.34309
6.39826
6.4469
6.48939
6.52899
6.56956
6.61113
6.64867
6.68024
6.7086
6.73763
6.77019
6.80345
6.8353
6.85978
6.87582
6.88879
6.90586
6.92816
6.95024
6.96576
6.9746
6.97906
6.98378
6.99169
7.00292
7.01581
7.02805
7.03769
7.04288
7.04199
7.03538
7.02631
7.01987
7.01868
7.02203
7.02836
7.03456
7.04528
7.05356
7.06141
7.06332
7.06213
7.06129
7.06256
7.06166
7.06576
7.07086
7.08192
7.08681
7.08199
7.07062
7.05924
7.05307
7.05086
7.05466
7.06679
7.07715
0.287511
0.275137
0.26512
0.265321
0.270608
0.275178
0.28062
0.290565
0.294739
0.295965
0.289674
0.284329
0.288311
0.303878
0.329703
0.370144
0.426336
0.474793
0.523017
0.578192
0.62021
0.666874
0.721678
0.756915
0.796211
0.832515
0.858969
0.887109
0.906546
0.916619
0.930205
0.939155
0.952104
0.973495
0.999573
1.02415
1.03954
1.05284
1.06626
1.07597
1.08466
1.09593
1.10344
1.10794
1.11442
1.12298
1.13498
1.15581
1.18491
1.19767
1.20001
1.20093
1.19859
1.19281
1.19231
1.19725
1.20777
1.22684
1.24019
1.24287
1.24449
1.24441
1.24524
1.2503
1.25659
1.26346
1.26921
1.27145
1.27063
1.26982
1.27153
1.27489
1.28037
1.28445
1.28712
1.28914
1.2901
1.2887
1.28722
1.28727
1.28875
1.29394
1.30154
1.3062
1.30773
1.30754
1.30601
1.30398
1.3032
1.30346
1.30467
1.30643
1.30796
1.3088
1.30859
1.30768
1.30765
1.30839
1.30966
1.31255
1.31456
1.31536
1.31636
1.31762
1.31859
1.31873
1.31965
1.32072
1.32102
1.32044
1.31956
1.31774
1.3622
4.24155
6.06829
6.15452
6.24259
6.30433
6.35891
6.40694
6.45241
6.4954
6.53466
6.56977
6.60437
6.64013
6.67538
6.70802
6.73833
6.76945
6.79851
6.82708
6.85306
6.87393
6.88899
6.90339
6.92314
6.94557
6.96374
6.97557
6.98126
6.98423
6.98842
6.99599
7.007
7.01979
7.03216
7.04102
7.04401
7.04004
7.03088
7.02092
7.0148
7.01487
7.0219
7.03226
7.04804
7.0622
7.06637
7.06262
7.05442
7.05032
7.05562
7.06235
7.07244
7.08039
7.08727
7.086
7.07633
7.06651
7.05746
7.05322
7.05394
7.05701
7.06638
7.07387
0.388884
0.362142
0.342586
0.342942
0.341285
0.33561
0.335741
0.340701
0.339307
0.330657
0.319396
0.31626
0.318605
0.328623
0.345883
0.347236
0.350583
0.357901
0.366742
0.385417
0.40852
0.441498
0.506557
0.58071
0.651512
0.729348
0.776981
0.817389
0.850473
0.868002
0.893781
0.914156
0.931915
0.954869
0.983143
1.01322
1.0312
1.04027
1.04439
1.05149
1.06352
1.07806
1.0886
1.1005
1.11788
1.13345
1.14444
1.15729
1.17419
1.1818
1.18341
1.18463
1.18414
1.18396
1.18577
1.19082
1.20344
1.22644
1.23984
1.24252
1.24405
1.2438
1.24042
1.24065
1.245
1.25047
1.25628
1.26349
1.26834
1.27319
1.27976
1.28436
1.28607
1.28703
1.28767
1.28699
1.28418
1.28203
1.28218
1.28415
1.29034
1.29981
1.30526
1.30658
1.30647
1.30379
1.30012
1.29826
1.29814
1.29943
1.30248
1.30481
1.30601
1.30698
1.30656
1.30532
1.30451
1.30468
1.30612
1.30958
1.31389
1.31649
1.31773
1.31792
1.31652
1.31424
1.31327
1.31332
1.31384
1.31508
1.31724
1.31831
1.3226
3.6587
6.06915
6.23703
6.2878
6.33174
6.37323
6.41594
6.46327
6.51113
6.55398
6.58712
6.61392
6.64133
6.67217
6.7052
6.73739
6.76808
6.79493
6.82118
6.84562
6.86829
6.88756
6.90493
6.92477
6.94638
6.96438
6.97709
6.98359
6.98619
6.98853
6.99371
7.00291
7.01519
7.02796
7.03747
7.04093
7.03818
7.03112
7.02299
7.01742
7.0166
7.02186
7.03188
7.04574
7.06229
7.06561
7.06124
7.05123
7.04704
7.05253
7.06438
7.07681
7.08533
7.08821
7.08381
7.07128
7.06484
7.05934
7.05586
7.0568
7.05878
7.06524
7.07018
0.492836
0.449054
0.425893
0.428747
0.426812
0.412746
0.410166
0.415128
0.413732
0.399795
0.378107
0.368748
0.369107
0.37452
0.382003
0.382508
0.381462
0.382267
0.380098
0.373845
0.371194
0.372375
0.38107
0.405863
0.444293
0.502048
0.563377
0.613153
0.672431
0.72886
0.784216
0.852307
0.895144
0.926411
0.953552
0.981372
1.00682
1.01295
1.01044
1.01569
1.02926
1.04784
1.06991
1.09206
1.11428
1.13366
1.14399
1.1538
1.16068
1.15955
1.16073
1.16574
1.17348
1.18222
1.1875
1.1911
1.19998
1.22046
1.23323
1.23572
1.23715
1.23728
1.23543
1.2348
1.23849
1.24321
1.24831
1.25599
1.26729
1.27557
1.2782
1.28
1.28169
1.28326
1.28418
1.28378
1.28253
1.28245
1.28401
1.28855
1.29384
1.2973
1.29891
1.29966
1.2997
1.29891
1.29817
1.29829
1.29985
1.30305
1.30464
1.30517
1.30495
1.30336
1.30111
1.29986
1.29996
1.30148
1.30537
1.31086
1.31403
1.31502
1.31481
1.31233
1.31
1.30977
1.31053
1.31209
1.31617
1.32206
1.32611
1.32687
1.32381
3.06681
5.99554
6.30318
6.3227
6.35587
6.38524
6.42216
6.46805
6.51753
6.56132
6.59186
6.61545
6.63958
6.66852
6.70106
6.73281
6.76106
6.78563
6.81043
6.8367
6.86245
6.88408
6.90164
6.91982
6.93995
6.95767
6.97154
6.97937
6.98245
6.98413
6.98824
6.9965
7.00826
7.02107
7.03105
7.03511
7.0333
7.02869
7.02462
7.02264
7.02334
7.02626
7.03307
7.0413
7.05505
7.05874
7.05837
7.05292
7.0504
7.05525
7.06709
7.07824
7.08471
7.08413
7.07877
7.06876
7.06558
7.06212
7.05986
7.05898
7.06016
7.0643
7.06742
0.601046
0.544946
0.519472
0.522484
0.526334
0.511148
0.490372
0.486702
0.481483
0.460333
0.436744
0.431054
0.429958
0.431277
0.435456
0.435684
0.431236
0.424426
0.415845
0.404375
0.400929
0.401076
0.403036
0.414206
0.416883
0.419961
0.425642
0.434019
0.453195
0.488753
0.539262
0.618341
0.712017
0.791203
0.845416
0.881255
0.923586
0.954246
0.978926
1.00493
1.01556
1.03041
1.05392
1.07821
1.10317
1.12139
1.13346
1.13756
1.13697
1.13728
1.14219
1.15306
1.16756
1.1792
1.18557
1.1897
1.19743
1.21073
1.21734
1.22258
1.22815
1.23175
1.23328
1.23412
1.23459
1.23626
1.24014
1.24916
1.26195
1.27059
1.27406
1.27654
1.27905
1.28075
1.28077
1.28032
1.28007
1.28193
1.28599
1.28897
1.29141
1.29346
1.29455
1.29499
1.29483
1.29528
1.29668
1.29936
1.30244
1.30303
1.3029
1.30255
1.3017
1.29992
1.29932
1.29987
1.30117
1.3048
1.31039
1.31316
1.31383
1.31375
1.3116
1.30906
1.30948
1.31078
1.31272
1.31671
1.32189
1.3239
1.32372
1.32277
1.319
2.52348
5.82332
6.3541
6.3434
6.37281
6.40334
6.44226
6.48683
6.53437
6.57487
6.6008
6.61702
6.63486
6.66116
6.69318
6.72494
6.75211
6.77577
6.79933
6.82524
6.85227
6.87698
6.89735
6.91619
6.9362
6.95464
6.96969
6.97849
6.98186
6.98323
6.98677
6.99396
7.00357
7.01378
7.02213
7.02615
7.02623
7.02554
7.02669
7.0294
7.03217
7.0334
7.03463
7.0378
7.04392
7.04945
7.05259
7.0556
7.0562
7.06223
7.06996
7.0776
7.08031
7.07726
7.07243
7.06744
7.06665
7.06528
7.06363
7.06148
7.06193
7.06398
7.0662
0.725863
0.673427
0.618558
0.606134
0.611642
0.610669
0.591781
0.567479
0.547357
0.516834
0.499749
0.497913
0.497783
0.500105
0.500852
0.498445
0.490374
0.477194
0.460013
0.445449
0.44228
0.443222
0.445942
0.445994
0.444994
0.445426
0.446313
0.444696
0.439782
0.439821
0.443734
0.457959
0.491623
0.540116
0.599235
0.661424
0.725594
0.797369
0.857934
0.927137
0.981868
1.01383
1.04079
1.0557
1.07568
1.0927
1.09986
1.10791
1.11389
1.1221
1.13085
1.14485
1.1569
1.1668
1.1733
1.17907
1.19025
1.1992
1.20442
1.21277
1.22147
1.22876
1.23173
1.23309
1.23313
1.23312
1.23662
1.24578
1.25762
1.26617
1.2709
1.27392
1.27545
1.27525
1.2746
1.27415
1.2762
1.28291
1.28713
1.28836
1.28966
1.29027
1.28982
1.28944
1.28987
1.29179
1.29592
1.30034
1.30249
1.30283
1.30257
1.30146
1.29952
1.29784
1.29782
1.29885
1.30099
1.30543
1.30983
1.31133
1.31195
1.31185
1.30966
1.30909
1.31028
1.31208
1.31453
1.31786
1.32049
1.32119
1.32044
1.31877
1.31414
2.07233
5.58492
6.39915
6.3791
6.40054
6.42947
6.46635
6.50328
6.53793
6.56629
6.58647
6.60339
6.6264
6.65731
6.69191
6.72358
6.7466
6.76394
6.78421
6.81138
6.84079
6.86622
6.88605
6.90326
6.9214
6.93972
6.95538
6.9664
6.97314
6.97749
6.98216
6.98887
6.99608
7.00234
7.00757
7.01183
7.01566
7.02066
7.02769
7.03497
7.03946
7.03977
7.03643
7.03439
7.03459
7.04073
7.0461
7.05563
7.06138
7.06716
7.07175
7.07498
7.07565
7.07225
7.06833
7.06576
7.06724
7.06738
7.06506
7.06441
7.06437
7.06509
7.06701
0.839022
0.810826
0.767265
0.711886
0.693354
0.69722
0.689095
0.65957
0.621711
0.587271
0.573899
0.573497
0.57056
0.56336
0.558617
0.555167
0.547796
0.53275
0.512417
0.498675
0.49588
0.496577
0.495556
0.490599
0.489109
0.487815
0.483401
0.476614
0.471444
0.465177
0.462546
0.464763
0.469459
0.473434
0.477881
0.485562
0.503828
0.540128
0.593122
0.667911
0.771572
0.866617
0.936302
0.962638
0.996338
1.03221
1.05654
1.08927
1.12311
1.14212
1.15045
1.14893
1.14183
1.14116
1.1466
1.16201
1.18256
1.19783
1.20373
1.20888
1.21324
1.21737
1.21918
1.21938
1.21909
1.22453
1.23824
1.25232
1.26096
1.267
1.26922
1.26933
1.26795
1.26578
1.26534
1.26694
1.27457
1.2844
1.28747
1.28834
1.2882
1.28687
1.2849
1.28434
1.28516
1.28948
1.29613
1.2999
1.30138
1.30176
1.30162
1.30048
1.29855
1.29698
1.29666
1.29785
1.30022
1.30448
1.30781
1.30876
1.30938
1.30914
1.3075
1.30754
1.30872
1.31093
1.31441
1.31734
1.31804
1.31787
1.31646
1.3135
1.31043
1.714
5.27762
6.43026
6.42791
6.44885
6.47643
6.50562
6.5267
6.53972
6.54946
6.56515
6.59231
6.62806
6.66449
6.69557
6.71691
6.72875
6.74117
6.76495
6.79641
6.82875
6.85457
6.87308
6.88803
6.90537
6.92556
6.94408
6.95719
6.96553
6.97181
6.97825
6.98547
6.99172
6.9948
6.99614
6.99905
7.00572
7.01602
7.02803
7.03852
7.04431
7.04366
7.03816
7.03178
7.03021
7.03342
7.04448
7.05603
7.0662
7.06951
7.07142
7.07206
7.07279
7.07194
7.0694
7.06655
7.06665
7.06523
7.06471
7.06637
7.06737
7.06765
7.06941
0.952728
0.927788
0.906043
0.854531
0.796429
0.77746
0.772296
0.752125
0.7093
0.662457
0.644443
0.642067
0.641802
0.637748
0.629532
0.618916
0.604455
0.583746
0.562567
0.55378
0.550516
0.54951
0.551601
0.549777
0.54199
0.534052
0.523684
0.512136
0.509424
0.5068
0.500038
0.495114
0.494051
0.495815
0.496696
0.494845
0.489804
0.487734
0.491124
0.504356
0.538167
0.590633
0.656878
0.7381
0.816542
0.902418
0.976747
1.04304
1.09071
1.11506
1.12836
1.1276
1.10815
1.10961
1.12608
1.15313
1.18238
1.19852
1.20241
1.2012
1.19353
1.18588
1.18698
1.19035
1.19808
1.22143
1.24891
1.26161
1.2652
1.26476
1.26207
1.25702
1.25402
1.25413
1.25755
1.26758
1.28052
1.28664
1.28726
1.28638
1.28312
1.27922
1.27859
1.279
1.28166
1.28968
1.29636
1.29813
1.29885
1.29876
1.29737
1.29613
1.29588
1.29646
1.29768
1.29942
1.30204
1.3049
1.3055
1.30546
1.30552
1.3049
1.30428
1.30494
1.30624
1.30879
1.31347
1.3162
1.31642
1.31608
1.31445
1.31187
1.3105
1.4529
4.91617
6.44492
6.44895
6.46072
6.48104
6.50321
6.51701
6.52516
6.53574
6.5608
6.59936
6.63995
6.67196
6.69017
6.69627
6.69989
6.717
6.74727
6.77971
6.8072
6.82968
6.84847
6.86619
6.8853
6.9056
6.92339
6.93734
6.94814
6.95761
6.96704
6.976
6.98202
6.98358
6.98195
6.98356
6.99256
7.00833
7.02561
7.03902
7.04524
7.04384
7.0369
7.02928
7.02659
7.03114
7.04302
7.05674
7.06575
7.06893
7.0668
7.06726
7.07121
7.07522
7.07549
7.071
7.06504
7.06142
7.06206
7.06566
7.07009
7.07117
7.0731
1.12085
1.04897
1.02185
0.992004
0.937531
0.868362
0.84289
0.828481
0.80252
0.768925
0.733451
0.712756
0.710617
0.711499
0.70224
0.686751
0.664843
0.631377
0.613152
0.611021
0.605457
0.599541
0.599283
0.600827
0.595942
0.584112
0.571542
0.555635
0.547508
0.547165
0.545616
0.539513
0.535786
0.53386
0.531098
0.526318
0.519585
0.511034
0.506681
0.50772
0.509347
0.513905
0.523349
0.540107
0.568315
0.61964
0.698952
0.784863
0.879511
0.954268
1.02667
1.06139
1.06871
1.091
1.12951
1.16986
1.19548
1.20094
1.19922
1.18993
1.1689
1.15541
1.15952
1.16862
1.1904
1.22854
1.25425
1.25918
1.26023
1.25751
1.24594
1.23812
1.23841
1.24145
1.2541
1.27348
1.28386
1.28461
1.28391
1.27959
1.27287
1.2713
1.27269
1.27613
1.28405
1.29386
1.29693
1.29701
1.29579
1.29236
1.29048
1.29051
1.29128
1.29337
1.2971
1.30146
1.30403
1.30482
1.3041
1.30271
1.30146
1.30087
1.3013
1.30226
1.3036
1.30654
1.31176
1.31445
1.31483
1.31493
1.31421
1.31292
1.31247
1.32297
4.46451
6.41831
6.45696
6.46945
6.48506
6.5013
6.51312
6.52267
6.53693
6.56192
6.59248
6.623
6.64708
6.66128
6.66826
6.68078
6.70596
6.73447
6.75894
6.77959
6.80068
6.82297
6.84567
6.86707
6.88794
6.90692
6.92106
6.93215
6.94293
6.95512
6.9664
6.97274
6.97429
6.97308
6.97395
6.98399
7.00204
7.02273
7.03814
7.04459
7.04252
7.03557
7.02812
7.02531
7.03167
7.0428
7.05955
7.06492
7.06765
7.06538
7.06449
7.06985
7.07895
7.08206
7.07695
7.06505
7.05774
7.05844
7.06499
7.07115
7.07368
7.07516
1.30061
1.20501
1.12505
1.10106
1.0718
1.00971
0.927312
0.889878
0.879615
0.864635
0.836918
0.803817
0.784439
0.775765
0.765465
0.749669
0.727724
0.695624
0.670143
0.666541
0.666753
0.661607
0.65309
0.650193
0.646176
0.631321
0.612695
0.600827
0.590267
0.585721
0.585835
0.585946
0.582947
0.576133
0.56852
0.563007
0.555476
0.544899
0.536849
0.531024
0.529807
0.530239
0.533186
0.540032
0.540202
0.540981
0.546496
0.56396
0.608415
0.682031
0.776042
0.885056
0.984074
1.06188
1.11021
1.14819
1.1737
1.17489
1.17303
1.1623
1.14314
1.13781
1.15349
1.17766
1.20627
1.24089
1.25255
1.25124
1.24598
1.23674
1.22627
1.22553
1.22573
1.2353
1.25977
1.27717
1.28
1.27958
1.27381
1.26451
1.26153
1.26357
1.26892
1.27779
1.2898
1.29569
1.29598
1.29473
1.29009
1.28506
1.28468
1.28552
1.28693
1.29055
1.29707
1.30093
1.30219
1.30232
1.30141
1.29947
1.29753
1.29717
1.29786
1.29926
1.30125
1.30456
1.30965
1.31208
1.31271
1.31326
1.31353
1.31348
1.31357
1.31381
3.93935
6.37056
6.45198
6.46362
6.4772
6.49208
6.50819
6.52482
6.54047
6.55767
6.57803
6.60128
6.62323
6.63996
6.65469
6.67617
6.70065
6.71954
6.73031
6.74568
6.7724
6.80484
6.83327
6.85601
6.873
6.88506
6.89549
6.90846
6.92207
6.93543
6.94791
6.956
6.9583
6.95961
6.96419
6.97456
6.99325
7.01497
7.03234
7.03969
7.0382
7.03223
7.02639
7.02441
7.02965
7.042
7.05548
7.06904
7.06707
7.06776
7.06585
7.07048
7.07939
7.08491
7.08121
7.06789
7.05766
7.05661
7.06361
7.07082
7.07419
7.07469
1.44912
1.37006
1.27147
1.19189
1.16615
1.13069
1.06397
0.985984
0.953449
0.945807
0.932723
0.9059
0.871192
0.843359
0.825708
0.808692
0.788193
0.763057
0.736015
0.721889
0.720138
0.721453
0.714529
0.704491
0.69611
0.678915
0.650303
0.641237
0.638003
0.631506
0.626681
0.626892
0.627197
0.622729
0.610992
0.599736
0.593139
0.584998
0.57424
0.566458
0.565734
0.564552
0.561602
0.56045
0.55931
0.557174
0.553803
0.546378
0.544232
0.549324
0.567453
0.61427
0.703214
0.806641
0.907081
0.977085
1.03822
1.07169
1.0934
1.11711
1.12865
1.13849
1.16452
1.19458
1.2204
1.23806
1.23857
1.23015
1.22065
1.21284
1.2155
1.22288
1.23094
1.24651
1.26922
1.27387
1.2727
1.2683
1.259
1.25312
1.25397
1.25759
1.2659
1.2798
1.2903
1.29252
1.29224
1.28912
1.28267
1.27915
1.28003
1.2817
1.28415
1.29013
1.29636
1.29784
1.29812
1.29728
1.29598
1.29546
1.29516
1.29542
1.29668
1.29866
1.30068
1.30391
1.30813
1.30968
1.3103
1.3107
1.31127
1.31173
1.31206
1.31258
3.42097
6.27579
6.45825
6.47029
6.48373
6.49833
6.51074
6.52604
6.53914
6.54996
6.5627
6.58064
6.60274
6.62535
6.64978
6.67472
6.69347
6.70126
6.70198
6.71312
6.74338
6.78203
6.81528
6.83815
6.85173
6.86037
6.87019
6.88517
6.90195
6.91885
6.93185
6.93922
6.94101
6.94402
6.95477
6.97054
6.9894
7.00981
7.02597
7.03392
7.03347
7.02945
7.02614
7.02519
7.02913
7.03928
7.0514
7.06557
7.0689
7.07317
7.07328
7.07337
7.07797
7.08167
7.07998
7.07099
7.06203
7.0595
7.06289
7.06889
7.07314
7.07294
1.58162
1.50079
1.42846
1.32739
1.24869
1.21709
1.18333
1.12583
1.0522
1.01941
1.01474
1.00274
0.974498
0.933604
0.889472
0.859345
0.84246
0.829382
0.813618
0.793075
0.775195
0.77094
0.76842
0.759628
0.747961
0.729733
0.699801
0.68227
0.681026
0.680233
0.675251
0.669109
0.666562
0.663708
0.655142
0.635299
0.623044
0.618716
0.61435
0.607682
0.605194
0.604135
0.600337
0.592926
0.589432
0.585044
0.577743
0.56916
0.560761
0.558386
0.559654
0.562958
0.573655
0.59645
0.639616
0.702276
0.774891
0.867477
0.947922
1.02843
1.08615
1.1128
1.14475
1.18665
1.19891
1.20143
1.19782
1.19434
1.19006
1.19269
1.20358
1.21714
1.23619
1.25992
1.26904
1.26622
1.26277
1.25818
1.25076
1.25002
1.25178
1.25456
1.26505
1.27955
1.28348
1.28444
1.28445
1.28033
1.27475
1.27434
1.27622
1.27872
1.28356
1.29059
1.29322
1.29314
1.29265
1.29105
1.29053
1.29089
1.29118
1.29171
1.2929
1.29521
1.29932
1.3049
1.30847
1.30906
1.3091
1.30868
1.30847
1.3087
1.30882
1.30913
2.93158
6.13503
6.46358
6.47408
6.48365
6.49355
6.50531
6.52002
6.53208
6.54061
6.54954
6.56445
6.58713
6.61514
6.64424
6.6677
6.68023
6.67969
6.67555
6.68664
6.71848
6.75738
6.79011
6.8124
6.82499
6.83247
6.84234
6.86259
6.88523
6.9007
6.9112
6.91764
6.91887
6.92363
6.93825
6.96013
6.98312
7.00187
7.01562
7.02279
7.02396
7.02292
7.02328
7.02488
7.0275
7.03296
7.04413
7.05564
7.06833
7.07274
7.07622
7.07741
7.07501
7.07459
7.07494
7.07272
7.06858
7.06604
7.06545
7.06682
7.06983
7.06918
1.72989
1.61435
1.54816
1.47599
1.37896
1.30066
1.27698
1.24728
1.19015
1.11972
1.08457
1.07636
1.06128
1.02899
0.977627
0.917815
0.893629
0.889236
0.883714
0.870103
0.851764
0.830514
0.81504
0.806383
0.796246
0.780607
0.755748
0.730511
0.72209
0.721823
0.722113
0.71741
0.710734
0.704377
0.694195
0.671666
0.652431
0.649378
0.64939
0.646135
0.642884
0.641887
0.639502
0.630209
0.620337
0.614637
0.607699
0.598975
0.592333
0.588533
0.583759
0.58018
0.580837
0.583075
0.585674
0.590267
0.599787
0.626551
0.679986
0.757262
0.868575
0.960183
1.04999
1.11215
1.13622
1.15098
1.15842
1.16878
1.17344
1.17952
1.19051
1.21231
1.23837
1.25718
1.25914
1.25732
1.25649
1.25087
1.24469
1.24649
1.24837
1.253
1.26544
1.27438
1.27641
1.27863
1.27812
1.27167
1.26858
1.26892
1.27028
1.27507
1.28361
1.29009
1.29118
1.29042
1.28805
1.28581
1.28584
1.28607
1.28606
1.28632
1.28766
1.29146
1.29864
1.30586
1.30835
1.30909
1.30928
1.30811
1.30547
1.30446
1.30416
1.30413
2.47371
5.93792
6.48645
6.49195
6.49484
6.49841
6.50531
6.51572
6.52495
6.53238
6.53939
6.55152
6.57206
6.59972
6.62808
6.64932
6.65928
6.65758
6.65567
6.66804
6.69599
6.7293
6.75809
6.77979
6.79514
6.80758
6.8206
6.83987
6.86349
6.8813
6.88943
6.89191
6.89333
6.89909
6.91708
6.94514
6.97326
6.99383
7.00622
7.01151
7.01263
7.01419
7.01846
7.0237
7.02684
7.02924
7.03412
7.04618
7.05957
7.07682
7.07939
7.07819
7.07247
7.06803
7.06799
7.07087
7.07358
7.07337
7.0698
7.06597
7.06619
7.06453
1.86734
1.74315
1.66129
1.59256
1.51933
1.43415
1.37514
1.34208
1.30483
1.25212
1.18589
1.13863
1.12116
1.10142
1.06558
1.01261
0.962226
0.944873
0.942362
0.9385
0.924241
0.90328
0.87649
0.848485
0.833075
0.822852
0.808722
0.789726
0.774407
0.766639
0.76373
0.761537
0.756304
0.748645
0.735175
0.711338
0.691578
0.686319
0.685578
0.684894
0.680818
0.677808
0.675357
0.667701
0.649769
0.638343
0.634298
0.631084
0.628325
0.625513
0.620864
0.614159
0.606975
0.599264
0.594045
0.592944
0.593843
0.59465
0.597303
0.608169
0.645774
0.716346
0.806346
0.906014
0.989936
1.06928
1.11511
1.13925
1.15166
1.15331
1.17182
1.19627
1.21519
1.22847
1.24061
1.24649
1.24582
1.23515
1.2312
1.23276
1.23658
1.24899
1.2657
1.27196
1.27535
1.27725
1.27135
1.26221
1.2603
1.25967
1.26191
1.27229
1.28437
1.28886
1.28996
1.28977
1.28749
1.28446
1.28287
1.28214
1.28129
1.28109
1.28331
1.28989
1.29875
1.30396
1.30556
1.30607
1.30603
1.30448
1.30195
1.30062
1.30028
1.29974
2.06234
5.6882
6.51568
6.51099
6.50376
6.4978
6.49731
6.50329
6.51164
6.51969
6.52604
6.53444
6.54961
6.57268
6.59923
6.62122
6.63355
6.63721
6.64131
6.65399
6.67471
6.69892
6.72276
6.74476
6.76511
6.78489
6.80409
6.82306
6.84023
6.8546
6.86454
6.8695
6.8713
6.87617
6.89127
6.92045
6.9527
6.9791
6.99186
6.99651
6.99736
6.99997
7.00726
7.01667
7.02304
7.02375
7.02488
7.03179
7.04794
7.06454
7.0846
7.08241
7.07098
7.06213
7.06269
7.06962
7.07682
7.07886
7.07378
7.0664
7.06333
7.06045
1.99034
1.88174
1.79029
1.71072
1.64005
1.57883
1.50757
1.43017
1.38667
1.35794
1.30954
1.23631
1.17666
1.15301
1.13394
1.10363
1.05949
1.01782
1.00188
0.997637
0.990468
0.975404
0.952402
0.914101
0.870585
0.857755
0.852658
0.845076
0.835776
0.826646
0.815305
0.801455
0.792562
0.784232
0.771215
0.753091
0.735505
0.724534
0.720139
0.72007
0.720078
0.716694
0.711993
0.703113
0.682558
0.662896
0.659228
0.658882
0.658939
0.658801
0.656794
0.652525
0.643531
0.631653
0.619755
0.608979
0.606312
0.608077
0.608752
0.609628
0.609666
0.61342
0.626024
0.655094
0.700904
0.765081
0.857543
0.939654
1.02291
1.06827
1.10906
1.16323
1.19924
1.22191
1.24332
1.24412
1.23424
1.21753
1.20765
1.20935
1.22506
1.24798
1.26635
1.27375
1.27594
1.27316
1.25831
1.24937
1.24854
1.2491
1.25652
1.27403
1.28524
1.28752
1.28761
1.286
1.2824
1.27922
1.2774
1.27779
1.27966
1.28146
1.28507
1.29294
1.29862
1.29992
1.30071
1.30094
1.30019
1.29833
1.29639
1.29578
1.29642
1.29759
1.71275
5.35726
6.54736
6.52581
6.51146
6.49929
6.49256
6.48957
6.49514
6.50248
6.50784
6.51288
6.52257
6.53973
6.56345
6.58795
6.60684
6.619
6.62837
6.6388
6.65139
6.66702
6.68681
6.71075
6.73727
6.76335
6.78589
6.80326
6.81536
6.8255
6.83409
6.84374
6.85189
6.86009
6.87191
6.89434
6.92439
6.95354
6.97233
6.9795
6.98138
6.98426
6.99193
7.00382
7.01407
7.01833
7.01751
7.02107
7.03418
7.05418
7.07214
7.07848
7.07296
7.06227
7.06049
7.06768
7.07691
7.0805
7.07484
7.06592
7.06042
7.05749
2.12427
2.01692
1.92659
1.83919
1.7529
1.69794
1.63861
1.5544
1.46757
1.43466
1.40346
1.35073
1.2758
1.21099
1.18966
1.1748
1.15149
1.11916
1.07704
1.0485
1.04179
1.03432
1.01589
0.984429
0.937881
0.901181
0.89254
0.891424
0.889049
0.882081
0.872639
0.858046
0.835435
0.813616
0.800208
0.791339
0.782737
0.772989
0.761264
0.754513
0.753521
0.751005
0.745151
0.735401
0.716862
0.696334
0.690404
0.688135
0.686469
0.68722
0.687345
0.68477
0.678106
0.663103
0.648257
0.638917
0.634412
0.633771
0.632842
0.629684
0.626018
0.621912
0.617838
0.614031
0.615103
0.621976
0.64715
0.699172
0.778888
0.886721
0.989127
1.09519
1.16175
1.20155
1.218
1.21551
1.20628
1.18962
1.1848
1.19605
1.22625
1.25515
1.26974
1.27255
1.26946
1.25551
1.23815
1.2355
1.23766
1.24363
1.25948
1.27944
1.28442
1.28434
1.2834
1.27867
1.27311
1.27022
1.27013
1.27236
1.2762
1.28116
1.28874
1.29617
1.29733
1.29662
1.29518
1.29347
1.29157
1.29109
1.29098
1.29111
1.29375
1.29746
1.44977
4.97659
6.55774
6.53094
6.50986
6.49432
6.48648
6.48649
6.48915
6.49283
6.49419
6.49586
6.501
6.51284
6.53204
6.55693
6.58165
6.60075
6.61294
6.62065
6.62683
6.6364
6.65392
6.67995
6.71027
6.73887
6.76147
6.77659
6.78548
6.79277
6.80519
6.81976
6.8343
6.84638
6.8562
6.86986
6.89112
6.91734
6.94134
6.95563
6.96262
6.96706
6.97362
6.98498
6.99776
7.00573
7.00817
7.01052
7.02013
7.03932
7.05691
7.07068
7.06529
7.05767
7.05841
7.06798
7.07624
7.07949
7.07389
7.06495
7.05856
7.05703
2.26066
2.14793
2.05902
1.9771
1.87248
1.79401
1.74254
1.67707
1.58711
1.50872
1.46403
1.4319
1.38623
1.32151
1.25799
1.23083
1.22156
1.20558
1.1758
1.13459
1.09471
1.07438
1.0585
1.03659
1.00671
0.97179
0.948084
0.939787
0.93714
0.93367
0.925156
0.911263
0.884283
0.845941
0.829154
0.826342
0.824294
0.819297
0.811171
0.800938
0.788426
0.778467
0.770996
0.76219
0.749603
0.735506
0.726026
0.72141
0.71834
0.716534
0.715091
0.71188
0.705718
0.692859
0.673445
0.663977
0.662233
0.662351
0.662339
0.660697
0.657213
0.650593
0.64071
0.625671
0.616604
0.616726
0.619339
0.626832
0.641516
0.676023
0.731884
0.809443
0.898876
0.978406
1.05454
1.09124
1.12662
1.14589
1.16612
1.20557
1.25217
1.26629
1.26724
1.26395
1.24996
1.22938
1.22221
1.22673
1.23743
1.25149
1.27069
1.28141
1.28045
1.27777
1.27324
1.26661
1.26319
1.26346
1.26375
1.26611
1.27259
1.28118
1.2897
1.29355
1.29335
1.29221
1.2905
1.2865
1.28437
1.28506
1.28536
1.28698
1.29345
1.30131
1.32003
4.51287
6.50916
6.52211
6.50781
6.4944
6.48373
6.48019
6.48
6.47975
6.4803
6.48251
6.48712
6.49763
6.51446
6.53692
6.55936
6.57656
6.58803
6.59543
6.60078
6.60931
6.62635
6.65241
6.68238
6.71007
6.73115
6.74417
6.75075
6.75718
6.77259
6.79454
6.81662
6.83343
6.84363
6.85042
6.86039
6.87738
6.89997
6.92265
6.93878
6.9476
6.95458
6.96298
6.97479
6.98681
6.99494
7.00037
7.00891
7.0241
7.04147
7.05391
7.05709
7.05574
7.05696
7.06587
7.07245
7.07639
7.06952
7.06167
7.05517
7.05558
2.39353
2.27781
2.18274
2.09682
1.99887
1.90776
1.83274
1.76511
1.70042
1.62787
1.54327
1.48695
1.4616
1.42731
1.37639
1.31399
1.27542
1.26395
1.25042
1.22224
1.17776
1.1286
1.0954
1.07771
1.06307
1.04354
1.01696
0.993206
0.984413
0.97953
0.971499
0.958775
0.936538
0.897861
0.86645
0.858692
0.857936
0.86117
0.857862
0.850141
0.838621
0.819161
0.794822
0.781363
0.776074
0.77207
0.767008
0.759621
0.750828
0.744587
0.740977
0.736414
0.729456
0.719388
0.705788
0.694518
0.68965
0.687589
0.687322
0.688164
0.686601
0.682043
0.672172
0.656817
0.640754
0.630888
0.629452
0.630272
0.636695
0.643468
0.648053
0.655546
0.675931
0.712232
0.776671
0.875523
0.974568
1.07563
1.13888
1.19164
1.2346
1.24521
1.24562
1.23562