/*--------------------------------*- C++ -*----------------------------------*\
  =========                 |
  \\      /  F ield         | OpenFOAM: The Open Source CFD Toolbox
   \\    /   O peration     | Website:  https://openfoam.org
    \\  /    A nd           | Version:  7
     \\/     M anipulation  |
\*---------------------------------------------------------------------------*/
FoamFile
{
    version     2.0;
    format      ascii;
    class       volScalarField;
    location    "1.2";
    object      T;
}
// * * * * * * * * * * * * * * * * * * * * * * * * * * * * * * * * * * * * * //

dimensions      [0 0 0 1 0 0 0];

internalField   nonuniform List<scalar> 
16512
(
1.22808
1.24578
1.27237
1.3218
1.39396
1.46039
1.48887
1.48545
1.47225
1.45299
1.45148
1.46234
1.49748
1.5358
1.54107
1.53168
1.51178
1.50217
1.50253
1.51518
1.54108
1.55369
1.55337
1.55407
1.55384
1.55497
1.55727
1.56112
1.56775
1.57578
1.58798
1.59818
1.60221
1.60454
1.60381
1.60173
1.60196
1.60006
1.60227
1.61762
1.63357
1.63996
1.6432
1.64388
1.64202
1.63791
1.63683
1.6392
1.6474
1.65577
1.65724
1.65587
1.65197
1.64695
1.64563
1.64493
1.64418
1.64501
1.64833
1.64889
1.64819
1.64658
1.64625
1.6472
1.64927
1.65382
1.658
1.6589
1.6594
1.65937
1.65889
1.65812
1.65773
1.65882
1.66151
1.66363
1.66521
1.66535
1.66505
1.665
1.66449
1.66338
1.66203
1.66081
1.65936
1.65723
1.65551
1.65459
1.65425
1.65442
1.65557
1.65684
1.65671
1.65474
1.65124
1.64725
1.64396
1.64238
1.64198
1.64257
1.6453
1.64775
1.64899
1.64974
1.64982
1.64992
1.65108
1.65251
1.65374
1.65452
1.65456
1.6538
2.01135
2.67889
2.78107
2.78962
2.79674
2.80141
2.80736
2.81627
2.82739
2.83816
2.84594
2.84999
2.85218
2.85512
2.86086
2.86998
2.88092
2.89181
2.90059
2.90648
2.91027
2.91403
2.91871
2.92435
2.93043
2.93648
2.94311
2.95075
2.96001
2.9711
2.98398
2.99851
3.01434
3.03077
3.04705
3.06304
3.07994
3.10038
3.12821
3.1674
3.22073
3.28682
3.35673
3.41549
3.45077
3.46583
3.47028
3.46156
3.42185
3.33325
3.19788
3.04106
2.89802
2.79398
2.73603
2.71306
2.70829
2.7095
2.71893
2.74135
2.77217
2.8007
2.81887
2.82548
0.977329
1.00291
1.04649
1.09827
1.14628
1.19575
1.24963
1.27632
1.29655
1.31808
1.3398
1.36959
1.40497
1.43229
1.44828
1.44651
1.43944
1.44123
1.45026
1.46794
1.49502
1.50673
1.50624
1.503
1.50345
1.50677
1.51359
1.52345
1.5342
1.54321
1.55179
1.56042
1.56493
1.56877
1.57331
1.57344
1.57461
1.57546
1.57847
1.59121
1.60472
1.61126
1.61592
1.61741
1.61651
1.61404
1.61321
1.61533
1.62324
1.63014
1.63133
1.63151
1.63114
1.62994
1.62935
1.62861
1.62713
1.62701
1.62941
1.63128
1.63179
1.63268
1.63436
1.63657
1.63862
1.64103
1.64261
1.64305
1.64346
1.6441
1.64505
1.64558
1.64655
1.64887
1.65094
1.65253
1.65345
1.65334
1.6529
1.6531
1.65296
1.65239
1.65174
1.65112
1.65002
1.64819
1.64659
1.6454
1.64475
1.64445
1.64459
1.64527
1.64543
1.64466
1.64256
1.64022
1.63813
1.63653
1.63596
1.63622
1.63788
1.63994
1.64135
1.64245
1.64308
1.64345
1.64422
1.64514
1.64586
1.64633
1.64647
1.64636
1.97069
2.65697
2.77607
2.78557
2.79377
2.79915
2.80524
2.81421
2.8259
2.83745
2.84573
2.84986
2.85167
2.85401
2.8591
2.86795
2.8795
2.89105
2.90041
2.9064
2.90983
2.91307
2.91779
2.924
2.93055
2.93689
2.94359
2.95119
2.96029
2.97116
2.98377
2.99804
3.01377
3.0303
3.04687
3.06317
3.08017
3.10031
3.12737
3.16566
3.21842
3.28452
3.35504
3.41474
3.45119
3.46619
3.47024
3.46097
3.42112
3.33313
3.19875
3.04258
2.89974
2.79542
2.73707
2.71353
2.70822
2.70929
2.71876
2.7413
2.77217
2.80077
2.8189
2.82545
0.892008
0.904768
0.92736
0.936729
0.942197
0.959151
0.995722
1.06214
1.11249
1.13753
1.17062
1.20794
1.23928
1.26357
1.29027
1.32025
1.3422
1.35866
1.37932
1.39852
1.41869
1.43272
1.43291
1.43431
1.43864
1.44348
1.45097
1.46217
1.47658
1.49327
1.4995
1.49847
1.49688
1.49819
1.50241
1.50917
1.51741
1.52519
1.53259
1.543
1.55049
1.55442
1.55749
1.55692
1.5551
1.55545
1.55678
1.56304
1.57722
1.58688
1.58869
1.5893
1.58892
1.58731
1.58568
1.58519
1.58537
1.58703
1.59046
1.59266
1.5946
1.59729
1.60083
1.60468
1.6067
1.60696
1.60647
1.60659
1.60659
1.60757
1.60992
1.61231
1.61547
1.61911
1.62101
1.622
1.62215
1.62181
1.62116
1.62149
1.62223
1.62246
1.62237
1.62215
1.62087
1.61869
1.61779
1.61779
1.61807
1.61869
1.61945
1.61956
1.61905
1.61802
1.61656
1.61556
1.61509
1.61486
1.61502
1.61601
1.61733
1.61812
1.619
1.61991
1.62057
1.62134
1.62274
1.62429
1.62508
1.62512
1.62502
1.62463
1.86957
2.59785
2.75373
2.76757
2.78021
2.78814
2.79535
2.80395
2.81497
2.82711
2.83773
2.84473
2.84818
2.85033
2.85386
2.86107
2.87232
2.88515
2.89652
2.9043
2.90859
2.9115
2.91513
2.92052
2.92725
2.93447
2.94184
2.94988
2.9589
2.96931
2.98134
2.99509
3.01046
3.02703
3.0441
3.06121
3.07881
3.09878
3.12457
3.16089
3.2116
3.27641
3.34733
3.40915
3.44883
3.46519
3.46886
3.45947
3.42093
3.33526
3.20315
3.04818
2.90523
2.79976
2.73996
2.71506
2.70876
2.70948
2.7187
2.74112
2.77193
2.80055
2.81858
2.82498
0.941122
0.933508
0.91678
0.914482
0.919157
0.932769
0.954678
0.970498
0.98726
1.00181
1.02273
1.05433
1.09224
1.12934
1.16172
1.20065
1.23372
1.25447
1.27995
1.30221
1.31844
1.33544
1.3467
1.35946
1.37847
1.39089
1.39967
1.40881
1.41725
1.4265
1.43373
1.43537
1.43673
1.43942
1.44421
1.45058
1.45836
1.46852
1.47947
1.48794
1.49054
1.49123
1.49256
1.49263
1.49221
1.49375
1.49785
1.50609
1.51923
1.52641
1.52792
1.52959
1.52989
1.52902
1.52906
1.53136
1.5351
1.54008
1.54413
1.54564
1.54722
1.54886
1.55145
1.55514
1.55824
1.56089
1.56268
1.56448
1.56567
1.56633
1.56783
1.56925
1.57134
1.57387
1.5755
1.57677
1.57787
1.57843
1.57886
1.57979
1.58083
1.58125
1.58126
1.58091
1.57935
1.57744
1.57696
1.57704
1.57745
1.57847
1.57984
1.58065
1.581
1.58103
1.58057
1.57988
1.57992
1.58035
1.58114
1.58281
1.58416
1.58475
1.58551
1.58639
1.58702
1.58783
1.58941
1.5914
1.59316
1.59415
1.59458
1.59433
1.71914
2.49736
2.71478
2.73683
2.75388
2.76378
2.77269
2.7825
2.79451
2.80836
2.82191
2.8325
2.83877
2.84179
2.84427
2.84907
2.85828
2.87114
2.88437
2.8954
2.90271
2.9071
2.91057
2.91516
2.92179
2.92968
2.93774
2.94612
2.95501
2.96482
2.97608
2.98914
3.00407
3.02065
3.03821
3.05609
3.07423
3.09387
3.11805
3.15147
3.19867
3.26077
3.33155
3.39639
3.4411
3.46072
3.46496
3.45668
3.4215
3.34147
3.21483
3.0622
2.9181
2.80938
2.74587
2.71824
2.71055
2.71075
2.7193
2.74104
2.77142
2.79983
2.81758
2.82369
1.0145
0.995403
0.977376
0.97601
0.97954
0.982981
0.988986
0.999663
1.00204
1.00022
0.990676
0.984689
0.988948
1.00471
1.02921
1.06253
1.10611
1.13968
1.17027
1.20542
1.2286
1.25212
1.28054
1.30062
1.32231
1.34098
1.352
1.36187
1.36938
1.37479
1.38275
1.38831
1.39428
1.40237
1.41193
1.42147
1.42842
1.43532
1.44197
1.4465
1.44964
1.45248
1.454
1.45524
1.45782
1.46162
1.46687
1.47539
1.48645
1.49102
1.49186
1.49222
1.49153
1.49041
1.49098
1.49438
1.4997
1.50678
1.5114
1.51295
1.51443
1.5156
1.51728
1.52039
1.52323
1.5258
1.52798
1.52972
1.53052
1.53129
1.53243
1.53355
1.53534
1.53695
1.53826
1.5395
1.54027
1.54011
1.54004
1.54053
1.54171
1.54373
1.546
1.54688
1.54669
1.54573
1.54427
1.54328
1.54316
1.54363
1.54488
1.54625
1.54738
1.54829
1.54884
1.54914
1.54959
1.55042
1.55143
1.55269
1.55352
1.554
1.55461
1.55544
1.55639
1.55714
1.55821
1.5594
1.56019
1.56065
1.56107
1.56123
1.57884
2.37152
2.67312
2.70113
2.71903
2.73041
2.74059
2.75092
2.76313
2.77783
2.79354
2.80717
2.8167
2.82204
2.82534
2.82942
2.83684
2.84855
2.86245
2.87629
2.88752
2.89533
2.90055
2.90536
2.91172
2.91978
2.92847
2.93751
2.94676
2.95633
2.96684
2.97902
2.99334
3.00977
3.02771
3.04623
3.06486
3.08427
3.10686
3.13683
3.1791
3.23644
3.30534
3.37323
3.42476
3.45117
3.45768
3.45142
3.42211
3.35226
3.23551
3.08758
2.94157
2.8269
2.75659
2.72421
2.7145
2.71402
2.72121
2.74132
2.77065
2.79835
2.81566
2.82145
1.09327
1.06313
1.04058
1.0405
1.03938
1.03541
1.03573
1.03933
1.03673
1.02536
1.01241
1.00907
1.01114
1.01977
1.03351
1.03487
1.03773
1.04367
1.05155
1.06684
1.08508
1.10882
1.15294
1.19871
1.23827
1.28
1.30351
1.32089
1.334
1.34074
1.35178
1.36217
1.37162
1.38238
1.39395
1.40485
1.41094
1.41457
1.41663
1.42041
1.42648
1.43189
1.43485
1.43846
1.44442
1.45022
1.45493
1.46106
1.46869
1.47174
1.4721
1.47228
1.47203
1.47221
1.47341
1.47631
1.48226
1.49113
1.49589
1.49732
1.49838
1.49874
1.49854
1.49904
1.50115
1.50338
1.50546
1.50824
1.5108
1.51346
1.51614
1.51747
1.51776
1.51787
1.51801
1.51788
1.51719
1.51666
1.51684
1.51776
1.52012
1.52355
1.52557
1.52605
1.52594
1.52476
1.52311
1.52223
1.52215
1.5227
1.52419
1.52546
1.52628
1.52712
1.52746
1.52757
1.52781
1.52851
1.52977
1.53142
1.53301
1.53404
1.53463
1.53482
1.53459
1.53422
1.53424
1.53465
1.53531
1.53614
1.53729
1.53812
1.5395
2.23632
2.64237
2.67473
2.68668
2.69622
2.70526
2.71511
2.72719
2.74191
2.7583
2.77344
2.78529
2.7932
2.79787
2.80191
2.80795
2.81778
2.83102
2.84671
2.86189
2.87411
2.88289
2.88975
2.89677
2.905
2.91408
2.92398
2.93414
2.94412
2.9543
2.96558
2.97885
2.99449
3.01219
3.03096
3.0499
3.06916
3.09046
3.11727
3.15425
3.20527
3.2698
3.339
3.3977
3.43359
3.44488
3.44219
3.4217
3.36647
3.26449
3.12535
2.97816
2.85517
2.77446
2.73458
2.72127
2.71972
2.72522
2.74263
2.76976
2.79617
2.81283
2.81833
1.15475
1.11871
1.1007
1.10337
1.10259
1.0935
1.09083
1.09289
1.09017
1.07689
1.05861
1.05055
1.05066
1.05435
1.05927
1.05951
1.0581
1.05788
1.0545
1.04906
1.0472
1.04832
1.05589
1.07691
1.10553
1.14716
1.18781
1.21672
1.24902
1.27716
1.30306
1.33492
1.35568
1.36995
1.38078
1.39048
1.39822
1.39956
1.39874
1.40139
1.40795
1.41588
1.42422
1.43199
1.43958
1.44643
1.45083
1.45549
1.45954
1.45945
1.45995
1.46176
1.46467
1.46798
1.47013
1.472
1.47622
1.48419
1.48855
1.48933
1.48979
1.48998
1.48984
1.48989
1.49169
1.49385
1.49594
1.49889
1.50331
1.50668
1.50762
1.50803
1.50828
1.50848
1.50855
1.50838
1.50798
1.50802
1.50863
1.51015
1.51193
1.51325
1.51411
1.5147
1.51486
1.51472
1.51444
1.51439
1.51472
1.51576
1.51646
1.51687
1.517
1.51682
1.51642
1.51636
1.51673
1.51789
1.51976
1.52186
1.52309
1.52354
1.52352
1.52273
1.52196
1.52192
1.52231
1.52306
1.52466
1.52678
1.52828
1.52867
1.52799
2.09657
2.61513
2.65753
2.66274
2.66898
2.67499
2.6828
2.69325
2.70626
2.72082
2.73476
2.74711
2.75693
2.76403
2.76925
2.77474
2.78253
2.79373
2.80884
2.82644
2.84313
2.85636
2.86615
2.87461
2.88347
2.89316
2.90422
2.91586
2.92707
2.9376
2.94826
2.96024
2.97447
2.99123
3.00988
3.02925
3.04878
3.06945
3.09383
3.12579
3.16961
3.22722
3.29449
3.35871
3.40537
3.42579
3.42893
3.418
3.3793
3.29758
3.17314
3.02835
2.89659
2.80236
2.75113
2.73162
2.72809
2.73177
2.74564
2.76929
2.79351
2.80923
2.81445
1.20971
1.17259
1.15839
1.16117
1.16457
1.15624
1.1427
1.13736
1.13138
1.11582
1.09977
1.09546
1.09428
1.0948
1.0968
1.09646
1.09249
1.08708
1.08028
1.07121
1.06826
1.06832
1.06967
1.07746
1.07942
1.08175
1.08635
1.09344
1.10815
1.13439
1.16805
1.21676
1.27025
1.31029
1.33486
1.34927
1.36584
1.37779
1.3879
1.39875
1.40348
1.40993
1.41952
1.42818
1.43617
1.44206
1.44737
1.45032
1.4512
1.45205
1.45459
1.459
1.46403
1.46735
1.46912
1.47086
1.47447
1.47981
1.48209
1.48376
1.4854
1.48662
1.48738
1.48797
1.48866
1.48986
1.4916
1.49478
1.49919
1.5022
1.50331
1.50403
1.5047
1.50501
1.50477
1.50448
1.50441
1.5051
1.50631
1.50712
1.50786
1.50857
1.50912
1.50966
1.51014
1.51079
1.51144
1.51218
1.51293
1.51299
1.51291
1.51294
1.51292
1.51266
1.51267
1.5132
1.51406
1.51563
1.5177
1.5188
1.51917
1.5192
1.51854
1.51757
1.51762
1.5179
1.51849
1.51986
1.5216
1.52227
1.52219
1.52181
1.52057
1.95388
2.57858
2.6495
2.64833
2.65204
2.65635
2.66252
2.67084
2.68125
2.69238
2.70299
2.71269
2.72171
2.72985
2.73652
2.74245
2.7491
2.75814
2.77063
2.78705
2.80526
2.82208
2.83564
2.84667
2.85694
2.86762
2.87969
2.89284
2.90581
2.91757
2.92831
2.93916
2.95137
2.96604
2.98346
3.00283
3.02314
3.04428
3.06753
3.09558
3.13232
3.1813
3.24258
3.30868
3.36521
3.39924
3.41057
3.40807
3.38545
3.32805
3.2251
3.08959
2.95211
2.84294
2.77621
2.74677
2.73954
2.74114
2.75065
2.76966
2.79085
2.80518
2.81006
1.26913
1.2415
1.21331
1.20741
1.21055
1.20988
1.19862
1.18309
1.16996
1.15124
1.14056
1.13894
1.13867
1.13932
1.13914
1.13695
1.1311
1.12241
1.11078
1.09987
1.09716
1.0977
1.09932
1.09925
1.09872
1.09901
1.09946
1.0978
1.09417
1.09436
1.09754
1.10888
1.13385
1.16751
1.2053
1.2408
1.27434
1.30987
1.33859
1.36934
1.39231
1.40546
1.41677
1.42274
1.4297
1.43458
1.43716
1.44064
1.44361
1.44759
1.4519
1.45784
1.46194
1.46413
1.46528
1.46712
1.47194
1.4762
1.47863
1.4818
1.4846
1.4865
1.48705
1.48762
1.48828
1.48901
1.49068
1.49359
1.49716
1.49992
1.50154
1.50261
1.50296
1.50261
1.50203
1.50165
1.50233
1.50472
1.50593
1.50615
1.50645
1.50664
1.50659
1.50679
1.50755
1.50893
1.51053
1.51174
1.51215
1.51211
1.5119
1.51158
1.51124
1.51104
1.51127
1.51203
1.51297
1.51449
1.51602
1.51669
1.51704
1.51707
1.5164
1.51613
1.51634
1.51661
1.51713
1.51811
1.51891
1.51905
1.51868
1.51797
1.51646
1.81521
2.53459
2.64701
2.64421
2.64635
2.64967
2.65471
2.66079
2.66763
2.67452
2.68117
2.68809
2.69585
2.70388
2.71127
2.71764
2.72338
2.72991
2.73904
2.75214
2.76833
2.78534
2.80082
2.81393
2.82563
2.83722
2.84984
2.86405
2.87904
2.89303
2.90502
2.91552
2.92587
2.93775
2.9527
2.97111
2.99215
3.01469
3.03838
3.06429
3.0953
3.1355
3.18787
3.25065
3.31349
3.36195
3.38629
3.39271
3.38364
3.3488
3.27279
3.15555
3.01991
2.89801
2.81299
2.7688
2.7543
2.75273
2.75777
2.77157
2.7891
2.80143
2.80583
1.31802
1.30579
1.28714
1.26148
1.25075
1.25196
1.24692
1.23068
1.21047
1.19145
1.18363
1.18335
1.18148
1.17671
1.17317
1.17061
1.16597
1.15705
1.14453
1.13493
1.13258
1.13292
1.13215
1.12878
1.12787
1.12709
1.12412
1.11925
1.11556
1.11124
1.10969
1.11105
1.11426
1.11711
1.12042
1.12643
1.13957
1.16486
1.19846
1.24183
1.29754
1.34308
1.37311
1.38427
1.39808
1.41202
1.42107
1.43346
1.44661
1.45462
1.45942
1.45944
1.45729
1.45628
1.45673
1.46083
1.46822
1.475
1.4786
1.48121
1.48279
1.48331
1.48287
1.48273
1.48301
1.48596
1.49148
1.49594
1.49835
1.50009
1.50067
1.50062
1.50013
1.49919
1.49875
1.49909
1.50156
1.50496
1.50601
1.50624
1.50614
1.50557
1.50496
1.50503
1.50574
1.5079
1.51032
1.51136
1.51158
1.51155
1.51138
1.51097
1.51063
1.51052
1.51068
1.51145
1.51236
1.51358
1.5146
1.51502
1.51536
1.51537
1.51491
1.51488
1.51506
1.51537
1.51606
1.51675
1.51689
1.5168
1.51623
1.5152
1.51428
1.68554
2.48245
2.64891
2.64813
2.65027
2.65331
2.65713
2.66067
2.66364
2.66663
2.67055
2.67617
2.68311
2.69028
2.69672
2.70179
2.70578
2.71036
2.71737
2.72721
2.7397
2.75363
2.76801
2.78143
2.79391
2.80619
2.81901
2.83321
2.84894
2.86479
2.87878
2.8901
2.89957
2.90896
2.92065
2.93655
2.95706
2.98083
3.00598
3.03166
3.05921
3.09209
3.13478
3.18968
3.25302
3.3124
3.35403
3.37211
3.37402
3.35658
3.30796
3.21725
3.09431
2.96675
2.86397
2.80063
2.77293
2.76575
2.76735
2.7757
2.78884
2.79882
2.80258
1.36502
1.35559
1.34723
1.32565
1.29853
1.28821
1.28534
1.27585
1.25577
1.23195
1.22154
1.2199
1.21961
1.21733
1.21283
1.20694
1.19875
1.18674
1.17412
1.16849
1.16623
1.16552
1.16672
1.16559
1.16085
1.15601
1.14954
1.14198
1.14004
1.13828
1.13397
1.13076
1.13023
1.13141
1.13192
1.13044
1.12701
1.12587
1.12834
1.1379
1.16122
1.1954
1.235
1.27905
1.31719
1.35631
1.38891
1.41674
1.43542
1.44395
1.44979
1.4502
1.44431
1.44467
1.4494
1.45697
1.46625
1.47328
1.47729
1.4774
1.47539
1.47194
1.47154
1.4717
1.4741
1.48368
1.4943
1.49876
1.49929
1.49885
1.49731
1.49523
1.49433
1.49441
1.49552
1.4988
1.50307
1.50532
1.50562
1.50534
1.50423
1.50284
1.50264
1.50284
1.50414
1.50739
1.50988
1.51043
1.51051
1.51037
1.50967
1.50933
1.50944
1.50998
1.51089
1.51182
1.51273
1.51343
1.51347
1.51343
1.51347
1.51334
1.51316
1.51333
1.51354
1.51396
1.515
1.51557
1.51558
1.51545
1.51488
1.51402
1.51361
1.57801
2.42823
2.65486
2.65461
2.65534
2.65691
2.65894
2.66063
2.66218
2.66436
2.66831
2.67366
2.67946
2.68481
2.68905
2.69199
2.69466
2.69905
2.70519
2.71242
2.72063
2.73013
2.74126
2.7533
2.76531
2.7771
2.78893
2.80186
2.8168
2.83323
2.84904
2.86208
2.87182
2.87977
2.88848
2.90099
2.91926
2.94301
2.96973
2.99672
3.02327
3.05153
3.08582
3.13096
3.18855
3.25244
3.30886
3.34433
3.35701
3.35209
3.32539
3.26531
3.16612
3.04408
2.92889
2.84479
2.79849
2.78107
2.77819
2.7819
2.79027
2.7979
2.80095
1.42884
1.40235
1.39219
1.38062
1.35851
1.32826
1.31665
1.31045
1.29921
1.28404
1.26671
1.25568
1.25442
1.2548
1.25011
1.2424
1.23123
1.21308
1.20249
1.20122
1.19809
1.19471
1.19454
1.19532
1.19239
1.18544
1.17808
1.16857
1.16352
1.16318
1.16213
1.15833
1.15612
1.155
1.15332
1.15022
1.14587
1.14046
1.13766
1.13826
1.13938
1.14236
1.14862
1.16018
1.17892
1.21118
1.2571
1.3019
1.34624
1.37753
1.40585
1.42069
1.42578
1.43609
1.45021
1.46166
1.46937
1.47321
1.47318
1.47123
1.46544
1.45987
1.46064
1.46269
1.46957
1.4839
1.49467
1.49639
1.49633
1.49494
1.4899
1.48705
1.48717
1.48851
1.49331
1.49982
1.50328
1.50361
1.5034
1.5021
1.49995
1.49942
1.4999
1.50113
1.50402
1.5077
1.50912
1.5092
1.50885
1.50765
1.50687
1.50689
1.50725
1.50832
1.51016
1.51197
1.51276
1.5129
1.51249
1.51178
1.51126
1.51106
1.5112
1.51148
1.51176
1.51238
1.51363
1.51417
1.51424
1.51427
1.51403
1.51359
1.5134
1.5176
2.35843
2.65786
2.66182
2.66201
2.66263
2.66335
2.66376
2.66432
2.66576
2.66864
2.67217
2.67596
2.67956
2.6827
2.68551
2.68919
2.69411
2.69915
2.70391
2.70889
2.71518
2.72331
2.73302
2.74326
2.75359
2.76397
2.77478
2.78728
2.80209
2.81812
2.83265
2.8435
2.85126
2.85829
2.86762
2.88236
2.90376
2.93045
2.95894
2.98646
3.01306
3.0419
3.07803
3.12622
3.18687
3.2511
3.30415
3.33242
3.33959
3.32864
3.29476
3.22514
3.12096
3.00366
2.90218
2.83429
2.80078
2.79023
2.78982
2.79338
2.79818
2.80049
1.49026
1.45851
1.42977
1.42063
1.40971
1.3862
1.353
1.337
1.33268
1.32639
1.31424
1.2988
1.28932
1.2852
1.28053
1.27325
1.26271
1.24648
1.23293
1.23097
1.23111
1.22848
1.22413
1.22249
1.22008
1.21168
1.20124
1.19457
1.18865
1.18584
1.18576
1.18572
1.18388
1.17995
1.17557
1.17229
1.16768
1.16115
1.15613
1.15253
1.15193
1.15221
1.15405
1.15809
1.15821
1.15903
1.16322
1.175
1.20364
1.24642
1.29504
1.34554
1.38936
1.42317
1.44301
1.45506
1.46204
1.4621
1.46144
1.45867
1.45374
1.45205
1.45724
1.46426
1.47301
1.48601
1.4917
1.49137
1.48968
1.48612
1.48149
1.4809
1.48103
1.48482
1.49386
1.49991
1.50066
1.50044
1.49849
1.49568
1.49488
1.49565
1.49756
1.50061
1.50484
1.50718
1.50738
1.50713
1.50586
1.50423
1.50407
1.5043
1.50477
1.50629
1.50911
1.51078
1.51116
1.51111
1.51053
1.50946
1.50855
1.50838
1.5086
1.50907
1.5097
1.51059
1.51187
1.51232
1.51244
1.51266
1.5128
1.51281
1.51285
1.51283
2.26712
2.65645
2.66714
2.66676
2.66687
2.66705
2.66727
2.66758
2.66803
2.66904
2.67081
2.67326
2.67614
2.6792
2.68273
2.68735
2.69202
2.69549
2.69784
2.70091
2.70605
2.71298
2.72082
2.7289
2.7367
2.7443
2.75233
2.76208
2.77405
2.78805
2.80241
2.81436
2.82273
2.82934
2.83697
2.8482
2.86562
2.88977
2.91838
2.94751
2.97491
3.00159
3.0315
3.07008
3.12173
3.18504
3.24884
3.29728
3.31878
3.32122
3.30566
3.26444
3.1869
3.08063
2.97053
2.88254
2.82898
2.805
2.7982
2.79797
2.79951
2.80067
1.53661
1.51222
1.48019
1.45259
1.44364
1.43127
1.40713
1.37685
1.36314
1.35996
1.35468
1.34355
1.32846
1.31597
1.30804
1.30042
1.29102
1.27909
1.26587
1.25886
1.25802
1.2587
1.25537
1.2504
1.24601
1.23695
1.22168
1.21671
1.21499
1.21152
1.20867
1.20866
1.20875
1.20619
1.19966
1.19333
1.18951
1.18472
1.17832
1.17369
1.17335
1.17272
1.17101
1.17028
1.16961
1.16838
1.16629
1.16186
1.16078
1.16431
1.17615
1.20524
1.25686
1.31089
1.35766
1.38681
1.40982
1.42114
1.42883
1.43883
1.44527
1.45067
1.4608
1.46919
1.4765
1.48331
1.48378
1.4818
1.47952
1.47664
1.47721
1.47899
1.4812
1.48683
1.49556
1.49734
1.49687
1.49524
1.4922
1.49046
1.49086
1.49237
1.49551
1.5003
1.50394
1.50468
1.50461
1.50385
1.50215
1.50111
1.50143
1.50192
1.50264
1.50483
1.5074
1.50818
1.50836
1.50809
1.50726
1.50656
1.50614
1.50611
1.50644
1.50722
1.50804
1.50908
1.5101
1.51027
1.51034
1.51049
1.51079
1.51105
1.51122
1.51133
2.16316
2.64336
2.66995
2.66945
2.6695
2.66956
2.66924
2.66914
2.66897
2.66891
2.66926
2.67054
2.67303
2.67655
2.68117
2.68635
2.69055
2.6928
2.69372
2.69567
2.69987
2.70597
2.71254
2.71876
2.72437
2.72973
2.73564
2.743
2.7521
2.76315
2.77534
2.7868
2.79559
2.80234
2.80955
2.8189
2.83221
2.85178
2.87769
2.90709
2.93616
2.96333
2.99036
3.02161
3.06282
3.11779
3.18292
3.24563
3.28807
3.30515
3.30236
3.28223
3.23397
3.14997
3.04368
2.94222
2.86802
2.82629
2.80847
2.80299
2.802
2.80188
1.57503
1.5513
1.52959
1.49791
1.47182
1.46118
1.44973
1.42964
1.40215
1.38904
1.38724
1.38264
1.37164
1.35508
1.33618
1.3227
1.31513
1.30935
1.30235
1.29292
1.28438
1.28227
1.28104
1.27688
1.27132
1.26245
1.24743
1.23816
1.23746
1.23705
1.23446
1.23123
1.22983
1.22824
1.22359
1.21284
1.20606
1.2036
1.20112
1.19731
1.19594
1.19539
1.19328
1.18908
1.1871
1.18458
1.18031
1.17527
1.17039
1.16907
1.16988
1.17197
1.17882
1.1931
1.21963
1.25588
1.29343
1.33649
1.37086
1.40376
1.42753
1.44
1.45371
1.46734
1.46818
1.46838
1.46695
1.46737
1.4676
1.46892
1.47264
1.47613
1.48156
1.49027
1.49419
1.49343
1.49252
1.49104
1.48853
1.48828
1.489
1.49031
1.4944
1.49936
1.50039
1.50065
1.50071
1.49969
1.49827
1.49828
1.49911
1.49988
1.50126
1.50356
1.50458
1.50472
1.50486
1.50446
1.50394
1.50363
1.50327
1.5032
1.50344
1.50436
1.50607
1.508
1.50884
1.50884
1.50874
1.50852
1.50844
1.50858
1.50867
1.50879
2.05259
2.6198
2.66806
2.66781
2.66772
2.66756
2.66749
2.66765
2.6676
2.66724
2.66694
2.66762
2.66999
2.67404
2.67919
2.68436
2.68813
2.68955
2.6901
2.69193
2.69583
2.7008
2.7059
2.71068
2.71487
2.71872
2.72317
2.72925
2.7366
2.7444
2.7531
2.7625
2.7708
2.7778
2.78491
2.79341
2.8041
2.81871
2.83973
2.8667
2.89636
2.92519
2.95218
2.97949
3.012
3.05564
3.1137
3.1804
3.24102
3.27836
3.29091
3.28461
3.25944
3.20291
3.11301
3.00901
2.91798
2.85622
2.82328
2.80955
2.80533
2.80427
1.61527
1.58336
1.56478
1.54382
1.51428
1.48896
1.48119
1.47145
1.45206
1.42667
1.41337
1.41043
1.40501
1.39295
1.37279
1.34775
1.33705
1.33522
1.33299
1.32726
1.31923
1.30951
1.30223
1.29822
1.29363
1.28647
1.27476
1.2623
1.25792
1.25777
1.2579
1.2556
1.25234
1.24915
1.24388
1.23211
1.22185
1.2202
1.22021
1.21844
1.2167
1.21617
1.21487
1.20977
1.20432
1.20118
1.19732
1.19239
1.18865
1.18653
1.18384
1.18196
1.18239
1.18379
1.18544
1.18845
1.19449
1.21118
1.24226
1.2825
1.33584
1.37705
1.41634
1.43928
1.44485
1.44815
1.45076
1.45587
1.45994
1.46403
1.46808
1.47399
1.48185
1.48871
1.4896
1.48958
1.48985
1.48813
1.48575
1.48623
1.48691
1.48885
1.49354
1.49649
1.49708
1.49777
1.49764
1.49568
1.4949
1.49526
1.49611
1.49771
1.50012
1.50192
1.5022
1.50204
1.50156
1.50099
1.50091
1.50069
1.50017
1.49988
1.50006
1.50141
1.50432
1.50696
1.50764
1.50773
1.50769
1.50709
1.50606
1.50574
1.50565
1.50564
1.93398
2.58718
2.66394
2.66424
2.66412
2.66391
2.6639
2.66417
2.66418
2.66395
2.66372
2.6643
2.66653
2.67047
2.67536
2.68016
2.6838
2.68547
2.68667
2.68903
2.69257
2.69656
2.70041
2.70403
2.70741
2.71078
2.71444
2.71912
2.72497
2.73106
2.73686
2.74322
2.75012
2.75682
2.76391
2.77209
2.78118
2.79231
2.80793
2.83005
2.8576
2.88719
2.91545
2.94172
2.96881
3.00242
3.04871
3.11018
3.17863
3.23746
3.26959
3.27739
3.26673
3.23473
3.16928
3.07543
2.97612
2.89552
2.84438
2.81914
2.81015
2.80796
1.65013
1.61795
1.59624
1.57718
1.55616
1.53081
1.51245
1.50193
1.48989
1.47252
1.44981
1.43288
1.42666
1.4196
1.40633
1.38592
1.36553
1.35837
1.35747
1.35599
1.3501
1.34114
1.32939
1.31688
1.30999
1.30548
1.29915
1.29038
1.28304
1.27922
1.27778
1.27674
1.2743
1.27072
1.26421
1.25231
1.24212
1.23938
1.23905
1.23874
1.2367
1.2352
1.23393
1.22985
1.22025
1.2141
1.21195
1.21023
1.20877
1.20729
1.20481
1.20118
1.19723
1.19298
1.19007
1.18952
1.19005
1.1906
1.19235
1.19912
1.22168
1.26141
1.30834
1.35491
1.38982
1.41965
1.43577
1.44469
1.45112
1.45369
1.4619
1.46866
1.47349
1.47753
1.4821
1.48524
1.48548
1.48214
1.4805
1.48078
1.48197
1.48651
1.49245
1.49461
1.4958
1.49645
1.49447
1.4914
1.4909
1.49097
1.49207
1.49571
1.49923
1.50017
1.50029
1.50022
1.49958
1.49882
1.49845
1.49804
1.49726
1.49681
1.49721
1.49935
1.50283
1.50499
1.50554
1.50559
1.50546
1.50464
1.5036
1.5031
1.50296
1.50275
1.80634
2.5432
2.6598
2.65967
2.65928
2.65877
2.65852
2.65888
2.65928
2.65955
2.65968
2.66026
2.66208
2.66546
2.66989
2.67441
2.67823
2.6809
2.68324
2.68612
2.68926
2.69241
2.69545
2.69846
2.70161
2.70501
2.70857
2.71231
2.71623
2.72058
2.72515
2.72991
2.73508
2.74066
2.74678
2.75436
2.76246
2.7717
2.78282
2.79934
2.82241
2.85031
2.87922
2.90601
2.93083
2.95746
2.99264
3.04272
3.1086
3.17883
3.23484
3.25981
3.26079
3.24604
3.20685
3.13384
3.03744
2.94309
2.87285
2.83323
2.81735
2.81339
1.67972
1.65324
1.6301
1.60911
1.58985
1.57287
1.55229
1.52883
1.51528
1.50644
1.49118
1.4669
1.44596
1.4375
1.43074
1.41984
1.40346
1.38734
1.381
1.37936
1.37656
1.37057
1.36124
1.34529
1.32643
1.32072
1.3185
1.31519
1.31103
1.30685
1.3016
1.29516
1.29106
1.28724
1.28116
1.27249
1.26392
1.25849
1.25636
1.25639
1.25646
1.2549
1.25261
1.2481
1.23753
1.22725
1.22534
1.22518
1.22524
1.22525
1.2243
1.22214
1.2174
1.21101
1.20449
1.19849
1.19708
1.19811
1.19856
1.19916
1.19936
1.20177
1.20951
1.22702
1.25327
1.28693
1.33052
1.36572
1.40012
1.41982
1.43686
1.45602
1.46694
1.47383
1.48196
1.48307
1.48057
1.47544
1.4718
1.47212
1.47719
1.48492
1.49131
1.49407
1.49493
1.49407
1.48913
1.48602
1.4857
1.48589
1.48874
1.49495
1.49835
1.49846
1.49836
1.49755
1.49615
1.4954
1.49508
1.49522
1.49565
1.49581
1.49644
1.49883
1.50123
1.5021
1.5026
1.5027
1.50234
1.50142
1.50046
1.50012
1.50028
1.50066
1.67709
2.4857
2.65989
2.65812
2.65734
2.65648
2.65575
2.65498
2.65525
2.65556
2.65581
2.65628
2.65765
2.66035
2.66423
2.66862
2.67282
2.6765
2.67974
2.68267
2.68535
2.68793
2.69062
2.69362
2.69703
2.70069
2.70422
2.70735
2.71008
2.7129
2.71615
2.72035
2.72485
2.72957
2.7346
2.74074
2.74763
2.75534
2.76416
2.77584
2.79346
2.81729
2.84467
2.87164
2.89596
2.91913
2.94607
2.9843
3.03972
3.11019
3.18057
3.2292
3.24715
3.24363
3.225
3.17729
3.09476
2.99545
2.90843
2.8526
2.8277
2.82129
1.71068
1.68569
1.66396
1.64209
1.61964
1.60513
1.58895
1.56523
1.53961
1.5298
1.52036
1.50391
1.4796
1.45745
1.45
1.44489
1.43678
1.42526
1.4096
1.39859
1.39602
1.39319
1.3861
1.37375
1.35491
1.33936
1.3356
1.33512
1.33408
1.33108
1.32699
1.32061
1.31052
1.3006
1.29444
1.29037
1.2864
1.28185
1.27629
1.27307
1.27266
1.27154
1.26879
1.26409
1.25495
1.2446
1.2416
1.24045
1.23968
1.24015
1.2403
1.23911
1.23578
1.22799
1.22005
1.21501
1.21261
1.21233
1.21189
1.21023
1.20832
1.20609
1.20387
1.20194
1.20268
1.20677
1.22147
1.2504
1.29159
1.34309
1.3882
1.43098
1.45495
1.46755
1.47315
1.47243
1.46976
1.46476
1.46313
1.46676
1.47655
1.48593
1.49108
1.49248
1.49156
1.48724
1.48141
1.48023
1.48074
1.48246
1.48792
1.49531
1.49669
1.49653
1.49592
1.49372
1.49131
1.49081
1.49096
1.492
1.49337
1.49459
1.49649
1.4988
1.49933
1.49929
1.49924
1.49905
1.49836
1.49782
1.49742
1.49718
1.49786
1.49913
1.56649
2.42693
2.66294
2.66031
2.6581
2.65625
2.65501
2.65455
2.65415
2.65393
2.65389
2.65409
2.65498
2.65701
2.66017
2.66423
2.66861
2.67272
2.67625
2.67907
2.68129
2.68355
2.68623
2.6895
2.69323
2.69701
2.70044
2.70327
2.70547
2.70755
2.71042
2.71391
2.718
2.72213
2.72615
2.73054
2.73569
2.74192
2.74935
2.7584
2.77135
2.79006
2.81366
2.83908
2.863
2.88461
2.90684
2.93572
2.97866
3.0401
3.11366
3.18148
3.22208
3.23435
3.22841
3.20317
3.14153
3.0477
2.9497
2.87777
2.84213
2.83256
1.74072
1.71558
1.69517
1.67575
1.6499
1.62988
1.61645
1.59901
1.57416
1.55147
1.5381
1.52842
1.51448
1.49407
1.47304
1.46375
1.46065
1.45524
1.44495
1.43027
1.41553
1.40791
1.40199
1.39372
1.38219
1.36832
1.3586
1.35518
1.35412
1.35272
1.34923
1.34345
1.33201
1.31515
1.30752
1.30628
1.30541
1.30322
1.2996
1.29495
1.28915
1.2845
1.28104
1.27693
1.27094
1.26413
1.25951
1.25728
1.25582
1.25501
1.25439
1.2529
1.24992
1.24347
1.23343
1.22844
1.22757
1.22766
1.22769
1.22691
1.22515
1.22169
1.21641
1.20821
1.20318
1.20326
1.20472
1.20893
1.21721
1.23691
1.2678
1.30789
1.34955
1.38265
1.41141
1.42486
1.43844
1.44681
1.45505
1.46933
1.48448
1.48874
1.48905
1.48802
1.48385
1.47762
1.475
1.47637
1.47941
1.48332
1.48982
1.49435
1.49414
1.49338
1.49159
1.48843
1.4867
1.4868
1.48708
1.48846
1.49116
1.49362
1.49579
1.49671
1.49651
1.49628
1.49622
1.49536
1.49462
1.49465
1.49432
1.49439
1.49629
1.49902
1.50603
2.35764
2.66412
2.66315
2.66067
2.6582
2.65608
2.65472
2.65371
2.65296
2.65294
2.65326
2.65409
2.65588
2.6586
2.66214
2.66592
2.66944
2.67259
2.67531
2.67751
2.67976
2.68257
2.68605
2.68986
2.6936
2.69691
2.69957
2.70155
2.70345
2.70627
2.7098
2.71361
2.71726
2.72039
2.72316
2.72638
2.73072
2.73669
2.74479
2.7551
2.76914
2.78797
2.80987
2.83212
2.85284
2.87275
2.89569
2.92806
2.9767
3.0435
3.11901
3.18235
3.21597
3.22305
3.21218
3.17287
3.09407
2.99337
2.90798
2.8608
2.84738
1.76875
1.74399
1.72312
1.7036
1.68045
1.65833
1.63952
1.62204
1.60495
1.5852
1.56115
1.54453
1.53706
1.5268
1.51119
1.49123
1.4784
1.47461
1.47014
1.46066
1.44532
1.42772
1.41547
1.40891
1.40349
1.39614
1.3859
1.37651
1.37304
1.37114
1.36802
1.36299
1.354
1.33784
1.32415
1.32075
1.32044
1.32191
1.32052
1.31723
1.3122
1.30345
1.29222
1.28596
1.28356
1.28176
1.27946
1.27601
1.2718
1.26881
1.26713
1.26501
1.26171
1.2568
1.25
1.24427
1.2418
1.24079
1.24068
1.24116
1.24042
1.23816
1.23307
1.22493
1.21625
1.21088
1.21004
1.21045
1.2139
1.21749
1.2201
1.22436
1.2361
1.25631
1.28956
1.33603
1.37826
1.4192
1.44418
1.46411
1.47835
1.48048
1.48031
1.4767
1.47091
1.46929
1.47048
1.47537
1.48011
1.48475
1.48973
1.49064
1.48939
1.48832
1.48669
1.48467
1.4849
1.48523
1.48572
1.48674
1.48976
1.49275
1.49357
1.49361
1.49306
1.49284
1.49258
1.49146
1.49145
1.49199
1.492
1.49272
1.49608
1.49949
1.50023
2.26622
2.66457
2.66448
2.6622
2.65952
2.65715
2.65575
2.65447
2.65305
2.65265
2.65302
2.65381
2.65523
2.65714
2.6597
2.66285
2.66627
2.66959
2.67245
2.67471
2.67669
2.67918
2.68245
2.68622
2.69001
2.69339
2.6961
2.6982
2.70035
2.7033
2.70687
2.71049
2.71367
2.71609
2.71792
2.7197
2.72238
2.72677
2.7333
2.74253
2.75373
2.76803
2.78555
2.8046
2.82346
2.84186
2.86156
2.88669
2.92363
2.97828
3.05051
3.12703
3.18421
3.20857
3.20835
3.18823
3.12934
3.03567
2.94194
2.88382
2.86615
1.7936
1.76918
1.74957
1.72761
1.70391
1.68561
1.66721
1.64305
1.62516
1.61217
1.59398
1.57136
1.55545
1.54873
1.54114
1.52732
1.50674
1.49156
1.48695