/*--------------------------------*- C++ -*----------------------------------*\
  =========                 |
  \\      /  F ield         | OpenFOAM: The Open Source CFD Toolbox
   \\    /   O peration     | Website:  https://openfoam.org
    \\  /    A nd           | Version:  7
     \\/     M anipulation  |
\*---------------------------------------------------------------------------*/
FoamFile
{
    version     2.0;
    format      ascii;
    class       volVectorField;
    location    "3.9";
    object      U;
}
// * * * * * * * * * * * * * * * * * * * * * * * * * * * * * * * * * * * * * //

dimensions      [0 1 -1 0 0 0 0];

internalField   nonuniform List<vector> 
4128
(
(2.44646 -0.431764 0)
(2.45368 -0.430917 0)
(2.46095 -0.43054 0)
(2.46885 -0.431264 0)
(2.4776 -0.433068 0)
(2.48508 -0.436236 0)
(2.4919 -0.439108 0)
(2.49825 -0.441574 0)
(2.50214 -0.445092 0)
(2.50423 -0.446465 0)
(2.50759 -0.444757 0)
(2.51172 -0.440911 0)
(2.51517 -0.434903 0)
(2.51774 -0.427423 0)
(2.52007 -0.422665 0)
(2.52352 -0.423799 0)
(2.52745 -0.428033 0)
(2.53201 -0.430849 0)
(2.53558 -0.433083 0)
(2.53919 -0.43439 0)
(2.54619 -0.434494 0)
(2.55363 -0.43356 0)
(2.56118 -0.431422 0)
(2.56864 -0.428671 0)
(2.57547 -0.426927 0)
(2.58107 -0.427097 0)
(2.58577 -0.429387 0)
(2.58843 -0.432631 0)
(2.58501 -0.43211 0)
(2.57709 -0.425374 0)
(2.57611 -0.419251 0)
(2.58193 -0.417341 0)
(2.58917 -0.417138 0)
(2.59658 -0.418024 0)
(2.60459 -0.419756 0)
(2.61265 -0.422361 0)
(2.61965 -0.424242 0)
(2.62618 -0.426777 0)
(2.63136 -0.429593 0)
(2.63503 -0.432526 0)
(2.63574 -0.433169 0)
(2.6315 -0.427186 0)
(2.62646 -0.417281 0)
(2.62848 -0.411511 0)
(2.63341 -0.409901 0)
(2.63949 -0.410441 0)
(2.64588 -0.41146 0)
(2.6522 -0.41275 0)
(2.65815 -0.414368 0)
(2.6636 -0.415828 0)
(2.66785 -0.416651 0)
(2.67036 -0.417835 0)
(2.67281 -0.418103 0)
(2.6749 -0.415247 0)
(2.67485 -0.409372 0)
(2.67025 -0.403884 0)
(2.66786 -0.402279 0)
(2.6724 -0.402379 0)
(2.67835 -0.403609 0)
(2.6843 -0.404649 0)
(2.69056 -0.405794 0)
(2.69626 -0.407351 0)
(2.70044 -0.40922 0)
(2.70374 -0.410349 0)
(2.70807 -0.410163 0)
(2.71256 -0.409805 0)
(2.7158 -0.407552 0)
(2.7159 -0.402233 0)
(2.71176 -0.395019 0)
(2.70792 -0.390854 0)
(2.71128 -0.391109 0)
(2.71622 -0.392219 0)
(2.72159 -0.393616 0)
(2.72736 -0.394921 0)
(2.73136 -0.39609 0)
(2.7344 -0.398285 0)
(2.73729 -0.399633 0)
(2.74227 -0.397891 0)
(2.74803 -0.394827 0)
(2.75267 -0.392198 0)
(2.75646 -0.390093 0)
(2.75881 -0.388192 0)
(2.75768 -0.38735 0)
(2.75414 -0.386347 0)
(2.74932 -0.386085 0)
(2.75149 -0.382522 0)
(2.75389 -0.38083 0)
(2.75707 -0.378056 0)
(2.76042 -0.373298 0)
(2.76157 -0.360649 0)
(2.75357 -0.328013 0)
(2.73433 -0.257581 0)
(2.71508 -0.167436 0)
(2.67805 -0.0587068 0)
(2.68068 -0.0169911 0)
(2.65642 0.0494915 0)
(2.60795 0.122831 0)
(2.58699 0.166717 0)
(2.57227 0.16293 0)
(2.57629 0.162643 0)
(2.57568 0.164815 0)
(2.57853 0.163948 0)
(2.58679 0.16099 0)
(2.59186 0.159065 0)
(2.59344 0.158725 0)
(2.5949 0.160149 0)
(2.5967 0.165371 0)
(2.59727 0.172034 0)
(2.59563 0.180269 0)
(2.59226 0.189859 0)
(2.58894 0.197599 0)
(2.58765 0.202003 0)
(2.58752 0.20382 0)
(2.58837 0.204398 0)
(2.58945 0.204579 0)
(2.59176 0.204889 0)
(2.59267 0.204992 0)
(2.59267 0.205346 0)
(2.59253 0.207191 0)
(2.59268 0.213144 0)
(2.59437 0.219837 0)
(2.59724 0.224415 0)
(2.60088 0.229537 0)
(2.602 0.232483 0)
(2.60354 0.234247 0)
(2.60468 0.235836 0)
(2.60518 0.237346 0)
(2.604 0.237117 0)
(2.6009 0.242126 0)
(2.45486 -0.422117 0)
(2.46025 -0.41964 0)
(2.46618 -0.417854 0)
(2.47202 -0.415704 0)
(2.47752 -0.415081 0)
(2.48226 -0.418623 0)
(2.48615 -0.423827 0)
(2.49065 -0.426839 0)
(2.49829 -0.428352 0)
(2.50646 -0.429766 0)
(2.51416 -0.430257 0)
(2.52092 -0.428673 0)
(2.52529 -0.424992 0)
(2.52689 -0.4197 0)
(2.52748 -0.414195 0)
(2.52898 -0.41109 0)
(2.53069 -0.412746 0)
(2.53174 -0.417142 0)
(2.53564 -0.419858 0)
(2.54266 -0.420597 0)
(2.54936 -0.420338 0)
(2.55664 -0.419538 0)
(2.56431 -0.418072 0)
(2.57183 -0.41545 0)
(2.57813 -0.41234 0)
(2.58225 -0.412088 0)
(2.58395 -0.415446 0)
(2.58523 -0.419717 0)
(2.58598 -0.422428 0)
(2.58515 -0.420105 0)
(2.58432 -0.413133 0)
(2.58744 -0.407614 0)
(2.59324 -0.405076 0)
(2.59872 -0.403877 0)
(2.60427 -0.404228 0)
(2.61089 -0.405933 0)
(2.61738 -0.407912 0)
(2.62354 -0.409986 0)
(2.62929 -0.411913 0)
(2.63464 -0.413359 0)
(2.63937 -0.413597 0)
(2.64145 -0.411161 0)
(2.6372 -0.404562 0)
(2.63062 -0.398459 0)
(2.63161 -0.397341 0)
(2.63599 -0.397601 0)
(2.64116 -0.39866 0)
(2.64692 -0.400078 0)
(2.65266 -0.401602 0)
(2.65756 -0.403041 0)
(2.66103 -0.403526 0)
(2.66512 -0.402317 0)
(2.67189 -0.401377 0)
(2.67799 -0.401239 0)
(2.68333 -0.400097 0)
(2.68334 -0.395885 0)
(2.67628 -0.389768 0)
(2.67451 -0.387723 0)
(2.68009 -0.389074 0)
(2.68554 -0.390881 0)
(2.69149 -0.392719 0)
(2.6977 -0.394295 0)
(2.70275 -0.395457 0)
(2.70582 -0.395613 0)
(2.70825 -0.39504 0)
(2.71242 -0.394941 0)
(2.71795 -0.395137 0)
(2.72224 -0.393959 0)
(2.72178 -0.388863 0)
(2.71718 -0.380781 0)
(2.71353 -0.376513 0)
(2.71287 -0.378849 0)
(2.71525 -0.382148 0)
(2.71914 -0.383079 0)
(2.72389 -0.382049 0)
(2.73022 -0.381001 0)
(2.73577 -0.380961 0)
(2.74303 -0.380214 0)
(2.74759 -0.37951 0)
(2.75381 -0.379323 0)
(2.75905 -0.379084 0)
(2.76066 -0.378981 0)
(2.75786 -0.380294 0)
(2.7545 -0.380089 0)
(2.75264 -0.376126 0)
(2.75353 -0.372097 0)
(2.75737 -0.368669 0)
(2.76009 -0.366842 0)
(2.76437 -0.365249 0)
(2.76869 -0.364308 0)
(2.77168 -0.36181 0)
(2.77391 -0.354345 0)
(2.77034 -0.333296 0)
(2.75622 -0.283915 0)
(2.73775 -0.204891 0)
(2.71027 -0.116766 0)
(2.66663 -0.0213973 0)
(2.67205 0.00370881 0)
(2.6369 0.0655392 0)
(2.59395 0.146573 0)
(2.58235 0.17573 0)
(2.58109 0.182479 0)
(2.58939 0.185756 0)
(2.58919 0.182007 0)
(2.59027 0.175418 0)
(2.5976 0.170758 0)
(2.60237 0.171657 0)
(2.6036 0.173826 0)
(2.60353 0.179246 0)
(2.60137 0.187044 0)
(2.59785 0.193659 0)
(2.59477 0.198001 0)
(2.59181 0.202198 0)
(2.59037 0.206377 0)
(2.59111 0.208954 0)
(2.59262 0.210784 0)
(2.5941 0.213145 0)
(2.59539 0.215266 0)
(2.59663 0.217997 0)
(2.59722 0.220427 0)
(2.59956 0.223757 0)
(2.60246 0.228341 0)
(2.60336 0.232934 0)
(2.60427 0.235731 0)
(2.60569 0.237786 0)
(2.60626 0.238035 0)
(2.60634 0.239287 0)
(2.60466 0.238885 0)
(2.60292 0.244626 0)
(2.46479 -0.411135 0)
(2.46782 -0.405861 0)
(2.47019 -0.402615 0)
(2.47518 -0.401233 0)
(2.48093 -0.400948 0)
(2.48674 -0.402783 0)
(2.48852 -0.4076 0)
(2.49342 -0.411835 0)
(2.50068 -0.413095 0)
(2.50858 -0.413467 0)
(2.51753 -0.412915 0)
(2.52495 -0.411898 0)
(2.53202 -0.410058 0)
(2.53682 -0.407297 0)
(2.53548 -0.403968 0)
(2.52742 -0.401971 0)
(2.52441 -0.401994 0)
(2.53166 -0.403413 0)
(2.53885 -0.404599 0)
(2.54625 -0.404638 0)
(2.55375 -0.404538 0)
(2.56077 -0.404924 0)
(2.56792 -0.405038 0)
(2.57533 -0.404679 0)
(2.58245 -0.403326 0)
(2.58695 -0.40094 0)
(2.58756 -0.399583 0)
(2.58719 -0.402198 0)
(2.58849 -0.406799 0)
(2.59066 -0.408464 0)
(2.59293 -0.405108 0)
(2.59439 -0.398363 0)
(2.59601 -0.392448 0)
(2.60064 -0.390153 0)
(2.6073 -0.390234 0)
(2.61441 -0.391529 0)
(2.62082 -0.393103 0)
(2.62694 -0.394877 0)
(2.63272 -0.396552 0)
(2.6382 -0.39773 0)
(2.64346 -0.398614 0)
(2.64766 -0.399098 0)
(2.64771 -0.397453 0)
(2.64155 -0.391835 0)
(2.63703 -0.385844 0)
(2.63923 -0.38343 0)
(2.64385 -0.383204 0)
(2.6493 -0.38443 0)
(2.65471 -0.385945 0)
(2.65992 -0.387457 0)
(2.66434 -0.38867 0)
(2.66822 -0.388706 0)
(2.67244 -0.388229 0)
(2.67813 -0.388223 0)
(2.68426 -0.388476 0)
(2.68854 -0.387571 0)
(2.68782 -0.382762 0)
(2.68151 -0.376242 0)
(2.67774 -0.374765 0)
(2.68184 -0.376966 0)
(2.68656 -0.379057 0)
(2.69202 -0.380197 0)
(2.69803 -0.380382 0)
(2.70384 -0.380104 0)
(2.70944 -0.380643 0)
(2.71473 -0.38131 0)
(2.72015 -0.381063 0)
(2.72523 -0.379003 0)
(2.72717 -0.374501 0)
(2.72151 -0.368951 0)
(2.71232 -0.366303 0)
(2.71167 -0.36657 0)
(2.71677 -0.367082 0)
(2.72168 -0.367566 0)
(2.72609 -0.367694 0)
(2.73079 -0.366144 0)
(2.73489 -0.36493 0)
(2.74021 -0.365818 0)
(2.74562 -0.36714 0)
(2.7508 -0.368185 0)
(2.75509 -0.369494 0)
(2.75616 -0.370832 0)
(2.75281 -0.371415 0)
(2.75187 -0.370904 0)
(2.75539 -0.37007 0)
(2.76007 -0.366253 0)
(2.76414 -0.360047 0)
(2.76637 -0.3535 0)
(2.76693 -0.351527 0)
(2.76737 -0.351361 0)
(2.76985 -0.351621 0)
(2.77411 -0.353527 0)
(2.77713 -0.356221 0)
(2.77939 -0.351467 0)
(2.77819 -0.338018 0)
(2.77077 -0.314428 0)
(2.74933 -0.260432 0)
(2.72905 -0.176373 0)
(2.68725 -0.0609544 0)
(2.65178 0.0253513 0)
(2.66425 0.0448024 0)
(2.63679 0.100997 0)
(2.60859 0.17408 0)
(2.59938 0.193967 0)
(2.59568 0.191515 0)
(2.60368 0.190005 0)
(2.60091 0.190635 0)
(2.59987 0.190154 0)
(2.60183 0.189673 0)
(2.60395 0.190432 0)
(2.60525 0.193754 0)
(2.60159 0.197378 0)
(2.59781 0.201505 0)
(2.59534 0.206157 0)
(2.59488 0.210156 0)
(2.59649 0.212315 0)
(2.59905 0.216008 0)
(2.60094 0.221967 0)
(2.60062 0.22474 0)
(2.60178 0.226932 0)
(2.60356 0.228891 0)
(2.60528 0.233026 0)
(2.60574 0.237225 0)
(2.60708 0.241178 0)
(2.60756 0.24535 0)
(2.60731 0.245773 0)
(2.60722 0.246179 0)
(2.6066 0.244964 0)
(2.60667 0.248158 0)
(2.47288 -0.403097 0)
(2.47832 -0.396661 0)
(2.47981 -0.389215 0)
(2.47798 -0.385888 0)
(2.47641 -0.387738 0)
(2.47765 -0.390682 0)
(2.48443 -0.392995 0)
(2.49197 -0.394243 0)
(2.49858 -0.394669 0)
(2.50593 -0.395069 0)
(2.5148 -0.395701 0)
(2.52475 -0.395983 0)
(2.53371 -0.396706 0)
(2.5427 -0.397427 0)
(2.545 -0.396211 0)
(2.5335 -0.392199 0)
(2.5256 -0.388741 0)
(2.5304 -0.387116 0)
(2.53658 -0.386494 0)
(2.54436 -0.386691 0)
(2.55305 -0.387454 0)
(2.56306 -0.38854 0)
(2.57118 -0.389679 0)
(2.5787 -0.39086 0)
(2.58542 -0.391101 0)
(2.588 -0.389836 0)
(2.58399 -0.388613 0)
(2.58105 -0.389563 0)
(2.58499 -0.390882 0)
(2.5915 -0.39181 0)
(2.59763 -0.392383 0)
(2.60217 -0.391064 0)
(2.60385 -0.386305 0)
(2.60547 -0.380227 0)
(2.60966 -0.376728 0)
(2.61552 -0.376966 0)
(2.6221 -0.378401 0)
(2.62846 -0.379923 0)
(2.63449 -0.381435 0)
(2.6402 -0.382711 0)
(2.64533 -0.383732 0)
(2.64956 -0.385006 0)
(2.65208 -0.386645 0)
(2.65067 -0.385781 0)
(2.64672 -0.380825 0)
(2.64517 -0.375028 0)
(2.64699 -0.371563 0)
(2.65079 -0.371803 0)
(2.65599 -0.373511 0)
(2.66145 -0.37518 0)
(2.66671 -0.37651 0)
(2.67176 -0.377076 0)
(2.6756 -0.376672 0)
(2.6784 -0.37532 0)
(2.68246 -0.373659 0)
(2.68783 -0.372003 0)
(2.6921 -0.369807 0)
(2.69097 -0.365689 0)
(2.68359 -0.361722 0)
(2.68129 -0.362547 0)
(2.68636 -0.364849 0)
(2.69203 -0.366177 0)
(2.69876 -0.366865 0)
(2.70614 -0.366986 0)
(2.71343 -0.366931 0)
(2.71921 -0.367359 0)
(2.72436 -0.36781 0)
(2.72961 -0.367859 0)
(2.73311 -0.366113 0)
(2.72905 -0.362196 0)
(2.71752 -0.35773 0)
(2.71532 -0.35512 0)
(2.72029 -0.3535 0)
(2.72538 -0.352508 0)
(2.73027 -0.351606 0)
(2.73538 -0.35097 0)
(2.74064 -0.351528 0)
(2.74556 -0.352199 0)
(2.74899 -0.35297 0)
(2.75277 -0.35458 0)
(2.75604 -0.356612 0)
(2.75578 -0.359048 0)
(2.751 -0.360038 0)
(2.75219 -0.35625 0)
(2.7563 -0.353076 0)
(2.7616 -0.350256 0)
(2.76714 -0.3476 0)
(2.77175 -0.343943 0)
(2.77386 -0.340566 0)
(2.77353 -0.337581 0)
(2.77324 -0.335992 0)
(2.77546 -0.337759 0)
(2.7779 -0.341661 0)
(2.77816 -0.346269 0)
(2.77936 -0.34646 0)
(2.7833 -0.344914 0)
(2.78353 -0.338996 0)
(2.78101 -0.320442 0)
(2.77173 -0.28412 0)
(2.74343 -0.202822 0)
(2.72454 -0.10753 0)
(2.67551 0.0168768 0)
(2.64944 0.0802571 0)
(2.66435 0.0911143 0)
(2.64556 0.136468 0)
(2.62168 0.188585 0)
(2.60746 0.20095 0)
(2.60295 0.198384 0)
(2.6053 0.202709 0)
(2.60581 0.203486 0)
(2.60477 0.204552 0)
(2.60307 0.206621 0)
(2.60202 0.208633 0)
(2.60031 0.21132 0)
(2.60007 0.214509 0)
(2.60163 0.215992 0)
(2.60435 0.218753 0)
(2.6075 0.225215 0)
(2.60777 0.228443 0)
(2.6088 0.231358 0)
(2.6098 0.233814 0)
(2.61038 0.23692 0)
(2.61122 0.239777 0)
(2.61256 0.244934 0)
(2.61245 0.251403 0)
(2.61059 0.255631 0)
(2.6092 0.257209 0)
(2.60904 0.255936 0)
(2.60953 0.255029 0)
(2.47809 -0.389163 0)
(2.48571 -0.386002 0)
(2.49012 -0.381234 0)
(2.48694 -0.376335 0)
(2.47795 -0.375089 0)
(2.47768 -0.377056 0)
(2.48506 -0.37784 0)
(2.49279 -0.378423 0)
(2.50134 -0.379362 0)
(2.51066 -0.380283 0)
(2.52115 -0.381099 0)
(2.52852 -0.38243 0)
(2.53695 -0.384453 0)
(2.54531 -0.386637 0)
(2.54893 -0.387935 0)
(2.54138 -0.384817 0)
(2.53177 -0.378026 0)
(2.53651 -0.375599 0)
(2.54387 -0.37476 0)
(2.55068 -0.373854 0)
(2.55711 -0.372826 0)
(2.56412 -0.372997 0)
(2.57236 -0.374262 0)
(2.58043 -0.375816 0)
(2.58752 -0.37759 0)
(2.59119 -0.379206 0)
(2.58676 -0.378105 0)
(2.58276 -0.37685 0)
(2.5876 -0.37609 0)
(2.59324 -0.375094 0)
(2.59921 -0.374039 0)
(2.60541 -0.372772 0)
(2.61038 -0.37036 0)
(2.61102 -0.365979 0)
(2.60863 -0.363246 0)
(2.61089 -0.363543 0)
(2.61615 -0.364689 0)
(2.62192 -0.366253 0)
(2.6277 -0.368096 0)
(2.63316 -0.370154 0)
(2.63815 -0.372168 0)
(2.64281 -0.373434 0)
(2.64827 -0.373095 0)
(2.65367 -0.371693 0)
(2.65618 -0.367364 0)
(2.65294 -0.361033 0)
(2.6464 -0.357666 0)
(2.64468 -0.358566 0)
(2.64818 -0.360793 0)
(2.65311 -0.362244 0)
(2.65905 -0.362548 0)
(2.66522 -0.362105 0)
(2.67165 -0.361901 0)
(2.67873 -0.362319 0)
(2.68507 -0.362161 0)
(2.69113 -0.360188 0)
(2.69601 -0.356706 0)
(2.69512 -0.352352 0)
(2.68547 -0.348873 0)
(2.68205 -0.348672 0)
(2.68594 -0.349683 0)
(2.69 -0.350405 0)
(2.69462 -0.350787 0)
(2.70154 -0.350185 0)
(2.70973 -0.349792 0)
(2.71766 -0.350726 0)
(2.72429 -0.352589 0)
(2.73054 -0.354953 0)
(2.7355 -0.358097 0)
(2.73406 -0.358905 0)
(2.72425 -0.352845 0)
(2.71811 -0.344844 0)
(2.71951 -0.340304 0)
(2.72329 -0.337816 0)
(2.72811 -0.33652 0)
(2.73368 -0.336169 0)
(2.73988 -0.336627 0)
(2.7461 -0.337578 0)
(2.75171 -0.338878 0)
(2.75611 -0.339501 0)
(2.75543 -0.34142 0)
(2.74938 -0.346988 0)
(2.75253 -0.349835 0)
(2.75743 -0.349205 0)
(2.76195 -0.345212 0)
(2.76656 -0.34012 0)
(2.77042 -0.335212 0)
(2.77215 -0.329631 0)
(2.77132 -0.325126 0)
(2.77021 -0.323163 0)
(2.77 -0.322591 0)
(2.77125 -0.325348 0)
(2.7748 -0.329754 0)
(2.77741 -0.335024 0)
(2.77806 -0.336321 0)
(2.78355 -0.336441 0)
(2.78728 -0.336189 0)
(2.79282 -0.333092 0)
(2.79458 -0.327381 0)
(2.7936 -0.313388 0)
(2.786 -0.281411 0)
(2.76636 -0.227189 0)
(2.72905 -0.13238 0)
(2.71125 -0.0388618 0)
(2.66875 0.0910698 0)
(2.65354 0.118743 0)
(2.6607 0.121583 0)
(2.64269 0.158175 0)
(2.62527 0.187981 0)
(2.61423 0.202048 0)
(2.6126 0.206322 0)
(2.61127 0.215091 0)
(2.60737 0.219559 0)
(2.60282 0.220949 0)
(2.60122 0.223751 0)
(2.6024 0.225785 0)
(2.60507 0.228663 0)
(2.61007 0.232925 0)
(2.61447 0.234678 0)
(2.61625 0.235315 0)
(2.61664 0.236405 0)
(2.61702 0.238099 0)
(2.61778 0.240701 0)
(2.61882 0.245563 0)
(2.61928 0.252744 0)
(2.61783 0.259606 0)
(2.61446 0.264665 0)
(2.61257 0.265951 0)
(2.61242 0.264761 0)
(2.4819 -0.373601 0)
(2.49082 -0.372559 0)
(2.49705 -0.369943 0)
(2.49317 -0.365798 0)
(2.48107 -0.363598 0)
(2.4809 -0.362827 0)
(2.48725 -0.362276 0)
(2.49422 -0.362221 0)
(2.50168 -0.362078 0)
(2.51052 -0.361582 0)
(2.52104 -0.362415 0)
(2.52979 -0.364908 0)
(2.53721 -0.368346 0)
(2.5434 -0.372553 0)
(2.54791 -0.375578 0)
(2.5461 -0.374823 0)
(2.5404 -0.368369 0)
(2.53932 -0.361375 0)
(2.54452 -0.358379 0)
(2.55243 -0.357801 0)
(2.56082 -0.358303 0)
(2.56842 -0.359445 0)
(2.5754 -0.360585 0)
(2.58133 -0.361696 0)
(2.58641 -0.364189 0)
(2.589 -0.367669 0)
(2.58834 -0.369648 0)
(2.58567 -0.366179 0)
(2.58805 -0.36208 0)
(2.59529 -0.360614 0)
(2.60251 -0.359479 0)
(2.60928 -0.358353 0)
(2.6155 -0.357878 0)
(2.61845 -0.356369 0)
(2.61545 -0.352204 0)
(2.61361 -0.34915 0)
(2.61766 -0.348744 0)
(2.62334 -0.349842 0)
(2.62852 -0.351514 0)
(2.63268 -0.353871 0)
(2.63633 -0.35643 0)
(2.6405 -0.358282 0)
(2.64662 -0.35845 0)
(2.65382 -0.357727 0)
(2.66044 -0.35623 0)
(2.66257 -0.352294 0)
(2.65585 -0.346732 0)
(2.64806 -0.343634 0)
(2.64931 -0.344733 0)
(2.65419 -0.346373 0)
(2.65989 -0.347113 0)
(2.66631 -0.347426 0)
(2.67297 -0.347236 0)
(2.6802 -0.346755 0)
(2.68709 -0.347055 0)
(2.69355 -0.347766 0)
(2.70018 -0.347895 0)
(2.7013 -0.345959 0)
(2.69181 -0.340483 0)
(2.68515 -0.335509 0)
(2.68872 -0.334573 0)
(2.69368 -0.335378 0)
(2.69815 -0.33693 0)
(2.70644 -0.338158 0)
(2.71269 -0.338115 0)
(2.72025 -0.339072 0)
(2.72762 -0.341077 0)
(2.73347 -0.343821 0)
(2.73732 -0.346706 0)
(2.73658 -0.348193 0)
(2.73019 -0.344992 0)
(2.72528 -0.338569 0)
(2.72639 -0.332756 0)
(2.72989 -0.327977 0)
(2.73338 -0.323899 0)
(2.73686 -0.321234 0)
(2.74127 -0.320816 0)
(2.74551 -0.321955 0)
(2.74906 -0.324389 0)
(2.75061 -0.327655 0)
(2.74854 -0.331397 0)
(2.75029 -0.33383 0)
(2.75473 -0.333904 0)
(2.76013 -0.332075 0)
(2.76572 -0.329284 0)
(2.77089 -0.327549 0)
(2.77576 -0.325764 0)
(2.7787 -0.322546 0)
(2.77888 -0.317439 0)
(2.77691 -0.312879 0)
(2.77561 -0.311299 0)
(2.77606 -0.312194 0)
(2.77594 -0.316284 0)
(2.77935 -0.322325 0)
(2.78368 -0.325973 0)
(2.78779 -0.326798 0)
(2.79222 -0.32688 0)
(2.79595 -0.325246 0)
(2.80009 -0.321707 0)
(2.80282 -0.315314 0)
(2.80315 -0.313568 0)
(2.79836 -0.297087 0)
(2.79063 -0.276868 0)
(2.77689 -0.240766 0)
(2.75044 -0.168504 0)
(2.72816 -0.0887139 0)
(2.69856 0.0236818 0)
(2.66282 0.143278 0)
(2.65386 0.133138 0)
(2.6551 0.145542 0)
(2.64394 0.178659 0)
(2.63353 0.203573 0)
(2.62099 0.215958 0)
(2.61311 0.223536 0)
(2.60723 0.232136 0)
(2.60331 0.235038 0)
(2.60509 0.239414 0)
(2.60935 0.243639 0)
(2.61425 0.246823 0)
(2.61889 0.246724 0)
(2.62171 0.244991 0)
(2.62248 0.243732 0)
(2.62275 0.243686 0)
(2.62366 0.245758 0)
(2.62483 0.252062 0)
(2.62456 0.259965 0)
(2.62182 0.26736 0)
(2.61759 0.270562 0)
(2.61497 0.271169 0)
(2.48583 -0.35715 0)
(2.49432 -0.359381 0)
(2.50204 -0.361802 0)
(2.50043 -0.361599 0)
(2.4892 -0.355824 0)
(2.48587 -0.349535 0)
(2.49257 -0.347654 0)
(2.50052 -0.347669 0)
(2.50741 -0.347616 0)
(2.51635 -0.347396 0)
(2.52439 -0.348071 0)
(2.53341 -0.349478 0)
(2.54118 -0.351167 0)
(2.54586 -0.353689 0)
(2.54749 -0.357586 0)
(2.54734 -0.361593 0)
(2.54723 -0.36122 0)
(2.54942 -0.356081 0)
(2.55276 -0.349725 0)
(2.55553 -0.344802 0)
(2.55902 -0.342997 0)
(2.56639 -0.34393 0)
(2.57447 -0.345423 0)
(2.58183 -0.347722 0)
(2.58795 -0.34995 0)
(2.5913 -0.351474 0)
(2.59172 -0.353684 0)
(2.59207 -0.354267 0)
(2.59457 -0.351178 0)
(2.59843 -0.347989 0)
(2.60258 -0.346222 0)
(2.60776 -0.345837 0)
(2.61338 -0.34588 0)
(2.61837 -0.345933 0)
(2.62073 -0.344368 0)
(2.62001 -0.340075 0)
(2.62102 -0.336775 0)
(2.62557 -0.337129 0)
(2.63128 -0.338194 0)
(2.63692 -0.339395 0)
(2.64147 -0.342147 0)
(2.64565 -0.345203 0)
(2.6512 -0.34605 0)
(2.65746 -0.345322 0)
(2.66309 -0.343493 0)
(2.66615 -0.339821 0)
(2.66125 -0.335445 0)
(2.653 -0.332907 0)
(2.65601 -0.3324 0)
(2.66088 -0.332519 0)
(2.66548 -0.332775 0)
(2.67015 -0.332532 0)
(2.67686 -0.331773 0)
(2.68255 -0.331842 0)
(2.68971 -0.333227 0)
(2.69657 -0.335788 0)
(2.70245 -0.338561 0)
(2.70415 -0.339626 0)
(2.69793 -0.33591 0)
(2.69163 -0.328919 0)
(2.69439 -0.323648 0)
(2.69814 -0.321333 0)
(2.7016 -0.321947 0)
(2.70497 -0.324725 0)
(2.71018 -0.326224 0)
(2.71671 -0.327123 0)
(2.72296 -0.328023 0)
(2.72835 -0.329157 0)
(2.7327 -0.330716 0)
(2.7346 -0.33363 0)
(2.7343 -0.33659 0)
(2.73333 -0.333512 0)
(2.73416 -0.326984 0)
(2.73649 -0.32015 0)
(2.73955 -0.314165 0)
(2.74256 -0.309699 0)
(2.74542 -0.308109 0)
(2.74922 -0.30949 0)
(2.75256 -0.310809 0)
(2.75112 -0.313655 0)
(2.74721 -0.317711 0)
(2.75079 -0.318609 0)
(2.75448 -0.318271 0)
(2.75909 -0.317509 0)
(2.76482 -0.316755 0)
(2.77077 -0.315322 0)
(2.77609 -0.313437 0)
(2.78077 -0.312266 0)
(2.78384 -0.310045 0)
(2.78332 -0.305247 0)
(2.77927 -0.301723 0)
(2.77374 -0.303181 0)
(2.7738 -0.306627 0)
(2.77767 -0.308435 0)
(2.78184 -0.30963 0)
(2.78591 -0.310259 0)
(2.79107 -0.310786 0)
(2.79775 -0.311905 0)
(2.80402 -0.3107 0)
(2.8074 -0.308334 0)
(2.81039 -0.305592 0)
(2.80801 -0.299774 0)
(2.79969 -0.296186 0)
(2.79939 -0.287632 0)
(2.7984 -0.279662 0)
(2.79197 -0.254797 0)
(2.77745 -0.208238 0)
(2.74504 -0.115127 0)
(2.7267 -0.0427022 0)
(2.68229 0.0903263 0)
(2.66049 0.172607 0)
(2.66693 0.160441 0)
(2.65284 0.183567 0)
(2.64138 0.203871 0)
(2.6259 0.2247 0)
(2.61457 0.231913 0)
(2.60957 0.23854 0)
(2.61384 0.249179 0)
(2.61573 0.253729 0)
(2.61872 0.255979 0)
(2.62265 0.256257 0)
(2.62515 0.255589 0)
(2.62589 0.255446 0)
(2.62668 0.256389 0)
(2.62761 0.2576 0)
(2.62896 0.261041 0)
(2.62766 0.267397 0)
(2.62304 0.271981 0)
(2.61836 0.274764 0)
(2.48579 -0.339979 0)
(2.49371 -0.345097 0)
(2.50038 -0.34969 0)
(2.50269 -0.352887 0)
(2.4973 -0.350514 0)
(2.49533 -0.342438 0)
(2.49852 -0.3347 0)
(2.50265 -0.329586 0)
(2.50799 -0.328199 0)
(2.51455 -0.329953 0)
(2.5212 -0.332761 0)
(2.52794 -0.335413 0)
(2.53422 -0.337259 0)
(2.5377 -0.339597 0)
(2.53912 -0.343474 0)
(2.54345 -0.34488 0)
(2.55004 -0.345115 0)
(2.55685 -0.344287 0)
(2.56188 -0.341372 0)
(2.5637 -0.336858 0)
(2.56585 -0.332319 0)
(2.56949 -0.329471 0)
(2.57388 -0.330143 0)
(2.57804 -0.333662 0)
(2.58185 -0.337024 0)
(2.58442 -0.338572 0)
(2.5871 -0.338049 0)
(2.59316 -0.337194 0)
(2.59905 -0.337046 0)
(2.60419 -0.337308 0)
(2.6073 -0.336857 0)
(2.60938 -0.33548 0)
(2.61386 -0.334082 0)
(2.61913 -0.332236 0)
(2.6233 -0.329292 0)
(2.62331 -0.325808 0)
(2.61917 -0.324345 0)
(2.61875 -0.324162 0)
(2.62354 -0.324567 0)
(2.6289 -0.324975 0)
(2.63492 -0.325724 0)
(2.64095 -0.327017 0)
(2.64641 -0.32802 0)
(2.65305 -0.328773 0)
(2.66033 -0.330134 0)
(2.66663 -0.332223 0)
(2.66724 -0.331211 0)
(2.6582 -0.323793 0)
(2.65215 -0.317524 0)
(2.65606 -0.315956 0)
(2.66132 -0.316007 0)
(2.66693 -0.316777 0)
(2.67327 -0.317545 0)
(2.67987 -0.318385 0)
(2.68675 -0.319609 0)
(2.69289 -0.321738 0)
(2.69792 -0.324052 0)
(2.70192 -0.325101 0)
(2.70228 -0.323957 0)
(2.69666 -0.317973 0)
(2.69194 -0.310896 0)
(2.69398 -0.308212 0)
(2.69916 -0.308457 0)
(2.70518 -0.310117 0)
(2.71058 -0.311662 0)
(2.71603 -0.312616 0)
(2.72097 -0.313393 0)
(2.72417 -0.315616 0)
(2.72619 -0.319251 0)
(2.7286 -0.320242 0)
(2.73265 -0.318766 0)
(2.73789 -0.317484 0)
(2.74201 -0.314568 0)
(2.74415 -0.308191 0)
(2.74324 -0.300549 0)
(2.74239 -0.296495 0)
(2.74303 -0.295601 0)
(2.74382 -0.296492 0)
(2.74496 -0.300041 0)
(2.74565 -0.302368 0)
(2.74861 -0.304597 0)
(2.75351 -0.305628 0)
(2.75818 -0.306605 0)
(2.76347 -0.307375 0)
(2.76857 -0.307535 0)
(2.77369 -0.305759 0)
(2.77856 -0.302442 0)
(2.78312 -0.298982 0)
(2.78611 -0.295586 0)
(2.78422 -0.293118 0)
(2.77597 -0.292765 0)
(2.77068 -0.29324 0)
(2.77457 -0.293763 0)
(2.77987 -0.294121 0)
(2.78393 -0.29441 0)
(2.78748 -0.295062 0)
(2.7929 -0.294859 0)
(2.79604 -0.293852 0)
(2.80155 -0.293795 0)
(2.80767 -0.294195 0)
(2.81324 -0.29457 0)
(2.81527 -0.293056 0)
(2.80986 -0.288736 0)
(2.80025 -0.283301 0)
(2.80286 -0.280577 0)
(2.80448 -0.279764 0)
(2.8056 -0.275043 0)
(2.80261 -0.258711 0)
(2.79203 -0.219935 0)
(2.76972 -0.151312 0)
(2.73658 -0.0485976 0)
(2.73244 0.0165024 0)
(2.68081 0.150107 0)
(2.65933 0.212019 0)
(2.6558 0.198541 0)
(2.63861 0.209617 0)
(2.62832 0.223619 0)
(2.62683 0.239687 0)
(2.62262 0.249161 0)
(2.62294 0.257406 0)
(2.62608 0.260139 0)
(2.63001 0.263014 0)
(2.63072 0.264346 0)
(2.63113 0.264202 0)
(2.63127 0.265119 0)
(2.6302 0.269189 0)
(2.62821 0.273973 0)
(2.62646 0.278135 0)
(2.62237 0.28102 0)
(2.49181 -0.322468 0)
(2.49853 -0.324807 0)
(2.50119 -0.329551 0)
(2.50083 -0.335277 0)
(2.50029 -0.336513 0)
(2.50313 -0.332914 0)
(2.5079 -0.327736 0)
(2.51244 -0.322336 0)
(2.51634 -0.317934 0)
(2.52008 -0.3159 0)
(2.52442 -0.316408 0)
(2.52894 -0.319063 0)
(2.53256 -0.322251 0)
(2.53401 -0.325314 0)
(2.53863 -0.327194 0)
(2.54664 -0.32824 0)
(2.5537 -0.328111 0)
(2.56115 -0.328371 0)
(2.56768 -0.32738 0)
(2.5697 -0.323207 0)
(2.56875 -0.318739 0)
(2.57168 -0.317118 0)
(2.57685 -0.317411 0)
(2.5819 -0.318548 0)
(2.58387 -0.32124 0)
(2.5855 -0.324157 0)
(2.58883 -0.324096 0)
(2.59287 -0.322664 0)
(2.59764 -0.322034 0)
(2.60251 -0.32156 0)
(2.60787 -0.321542 0)
(2.61261 -0.321345 0)
(2.61705 -0.32076 0)
(2.6223 -0.320526 0)
(2.62738 -0.320123 0)
(2.6282 -0.317687 0)
(2.62252 -0.313164 0)
(2.61947 -0.30977 0)
(2.62506 -0.309761 0)
(2.63233 -0.31069 0)
(2.63955 -0.311659 0)
(2.64602 -0.312288 0)
(2.65203 -0.313264 0)
(2.65682 -0.315149 0)
(2.6619 -0.316393 0)
(2.66736 -0.317539 0)
(2.66952 -0.318339 0)
(2.66519 -0.315924 0)
(2.6595 -0.30886 0)
(2.65996 -0.302897 0)
(2.6643 -0.300614 0)
(2.66996 -0.300232 0)
(2.67599 -0.300915 0)
(2.68205 -0.30198 0)
(2.68814 -0.303082 0)
(2.6935 -0.304624 0)
(2.69749 -0.30727 0)
(2.70107 -0.309101 0)
(2.70319 -0.310256 0)
(2.70271 -0.309957 0)
(2.70028 -0.304891 0)
(2.69912 -0.298713 0)
(2.70078 -0.295507 0)
(2.70464 -0.295075 0)
(2.70962 -0.296211 0)
(2.71426 -0.297753 0)
(2.71865 -0.299417 0)
(2.72124 -0.301937 0)
(2.72502 -0.304905 0)
(2.7303 -0.305688 0)
(2.73513 -0.303826 0)
(2.74054 -0.301983 0)
(2.74683 -0.30157 0)
(2.75171 -0.300747 0)
(2.7528 -0.296308 0)
(2.75008 -0.289154 0)
(2.74519 -0.28389 0)
(2.74106 -0.284033 0)
(2.74222 -0.287173 0)
(2.74618 -0.290908 0)
(2.75092 -0.291877 0)
(2.75641 -0.291919 0)
(2.76158 -0.292333 0)
(2.76552 -0.292955 0)
(2.76938 -0.293127 0)
(2.77526 -0.292292 0)
(2.78093 -0.291493 0)
(2.78717 -0.290973 0)
(2.79161 -0.288543 0)
(2.78764 -0.284859 0)
(2.77408 -0.282979 0)
(2.77141 -0.281907 0)
(2.77637 -0.281006 0)
(2.78099 -0.280276 0)
(2.78601 -0.279734 0)
(2.79096 -0.279667 0)
(2.79595 -0.280583 0)
(2.79982 -0.281408 0)
(2.80561 -0.282766 0)
(2.81146 -0.28374 0)
(2.81678 -0.284228 0)
(2.81974 -0.283997 0)
(2.81554 -0.280989 0)
(2.80336 -0.275968 0)
(2.7975 -0.272864 0)
(2.80214 -0.271084 0)
(2.80619 -0.270612 0)
(2.81177 -0.269788 0)
(2.81548 -0.266828 0)
(2.81672 -0.257352 0)
(2.80955 -0.228988 0)
(2.79411 -0.174141 0)
(2.76399 -0.0839725 0)
(2.73771 0.00663282 0)
(2.72286 0.0831884 0)
(2.66339 0.204839 0)
(2.64118 0.246124 0)
(2.63573 0.228379 0)
(2.63663 0.231382 0)
(2.63313 0.247906 0)
(2.63637 0.257991 0)
(2.63834 0.264122 0)
(2.63953 0.265772 0)
(2.64018 0.266058 0)
(2.63884 0.26729 0)
(2.63602 0.270093 0)
(2.63219 0.276432 0)
(2.63038 0.28612 0)
(2.62596 0.291109 0)
(2.4834 -0.307597 0)
(2.48787 -0.311039 0)
(2.48987 -0.315679 0)
(2.49343 -0.318809 0)
(2.50141 -0.319998 0)
(2.50869 -0.32014 0)
(2.5153 -0.318097 0)
(2.52013 -0.313825 0)
(2.52188 -0.308283 0)
(2.52164 -0.30355 0)
(2.52293 -0.301887 0)
(2.52695 -0.303239 0)
(2.53062 -0.307967 0)
(2.53401 -0.31174 0)
(2.53845 -0.312173 0)
(2.54408 -0.311755 0)
(2.55125 -0.311766 0)
(2.5592 -0.311768 0)
(2.56714 -0.311766 0)
(2.57396 -0.311106 0)
(2.57607 -0.307428 0)
(2.57219 -0.304629 0)
(2.57058 -0.305964 0)
(2.57272 -0.307283 0)
(2.57665 -0.308263 0)
(2.5832 -0.309651 0)
(2.59041 -0.311165 0)
(2.59706 -0.311841 0)
(2.60252 -0.309979 0)
(2.60627 -0.305272 0)
(2.60888 -0.30183 0)
(2.61188 -0.302473 0)
(2.6158 -0.305311 0)
(2.62009 -0.307945 0)
(2.62516 -0.309428 0)
(2.62915 -0.310412 0)
(2.62779 -0.307799 0)
(2.62408 -0.301164 0)
(2.62505 -0.296905 0)
(2.62986 -0.295668 0)
(2.6362 -0.295222 0)
(2.64244 -0.29527 0)
(2.64918 -0.296048 0)
(2.65511 -0.298598 0)
(2.65978 -0.302221 0)
(2.6637 -0.304884 0)
(2.66635 -0.306823 0)
(2.66817 -0.307885 0)
(2.66836 -0.304186 0)
(2.66782 -0.296071 0)
(2.66917 -0.28902 0)
(2.67348 -0.286041 0)
(2.67916 -0.286627 0)
(2.6849 -0.288051 0)
(2.69058 -0.289538 0)
(2.69596 -0.29119 0)
(2.70003 -0.292993 0)
(2.69982 -0.296097 0)
(2.69992 -0.298421 0)
(2.70361 -0.29899 0)
(2.70718 -0.297999 0)
(2.70867 -0.293206 0)
(2.70787 -0.28646 0)
(2.70879 -0.282263 0)
(2.71204 -0.28185 0)
(2.71653 -0.283637 0)
(2.72091 -0.28653 0)
(2.72409 -0.28958 0)
(2.72415 -0.290663 0)
(2.72653 -0.291237 0)
(2.7331 -0.291602 0)
(2.73969 -0.291293 0)
(2.74611 -0.290325 0)
(2.75213 -0.289173 0)
(2.75711 -0.28781 0)
(2.75843 -0.283085 0)
(2.75433 -0.276731 0)
(2.74657 -0.274216 0)
(2.73919 -0.276852 0)
(2.74005 -0.278687 0)
(2.74524 -0.278469 0)
(2.75007 -0.278054 0)
(2.75502 -0.277478 0)
(2.76092 -0.276757 0)
(2.76869 -0.27618 0)
(2.77265 -0.276359 0)
(2.77936 -0.277357 0)
(2.78606 -0.278022 0)
(2.79203 -0.277737 0)
(2.79109 -0.275934 0)
(2.77718 -0.272407 0)
(2.76856 -0.269372 0)
(2.77248 -0.267557 0)
(2.77754 -0.267168 0)
(2.78251 -0.266906 0)
(2.78783 -0.266996 0)
(2.79358 -0.268018 0)
(2.79781 -0.269281 0)
(2.80288 -0.270766 0)
(2.80822 -0.272071 0)
(2.81383 -0.272605 0)
(2.81862 -0.272499 0)
(2.81955 -0.271142 0)
(2.811 -0.266633 0)
(2.80283 -0.261871 0)
(2.80552 -0.25947 0)
(2.80975 -0.258775 0)
(2.81504 -0.259172 0)
(2.81929 -0.259103 0)
(2.82337 -0.25941 0)
(2.82842 -0.259092 0)
(2.83164 -0.252858 0)
(2.82823 -0.233175 0)
(2.81389 -0.187545 0)
(2.78989 -0.117581 0)
(2.74517 -0.00605587 0)
(2.73846 0.0494808 0)
(2.68458 0.144804 0)
(2.64517 0.257698 0)
(2.63249 0.273261 0)
(2.6408 0.260081 0)
(2.65098 0.261961 0)
(2.65274 0.266787 0)
(2.64872 0.264961 0)
(2.64654 0.265158 0)
(2.64297 0.266534 0)
(2.63899 0.270681 0)
(2.63654 0.279113 0)
(2.63202 0.293032 0)
(2.48246 -0.291604 0)
(2.48412 -0.295947 0)
(2.48624 -0.30044 0)
(2.49417 -0.301999 0)
(2.50211 -0.302428 0)
(2.5102 -0.302326 0)
(2.51809 -0.302145 0)
(2.5251 -0.301304 0)
(2.52871 -0.297997 0)
(2.52806 -0.293598 0)
(2.52508 -0.291776 0)
(2.52215 -0.294155 0)
(2.52729 -0.296115 0)
(2.53599 -0.29722 0)
(2.54318 -0.298108 0)
(2.55017 -0.298959 0)
(2.55647 -0.299017 0)
(2.56162 -0.297484 0)
(2.56739 -0.295512 0)
(2.57441 -0.29428 0)
(2.5792 -0.293398 0)
(2.57665 -0.292171 0)
(2.57112 -0.292635 0)
(2.57211 -0.294473 0)
(2.57673 -0.294704 0)
(2.58187 -0.293666 0)
(2.58852 -0.292875 0)
(2.59611 -0.292931 0)
(2.60361 -0.291511 0)
(2.61004 -0.289555 0)
(2.61535 -0.287921 0)
(2.61795 -0.289337 0)
(2.62088 -0.293167 0)
(2.62473 -0.296155 0)
(2.62745 -0.298045 0)
(2.62963 -0.298463 0)
(2.63058 -0.296893 0)
(2.62922 -0.292125 0)
(2.62937 -0.286126 0)
(2.6333 -0.282088 0)
(2.63827 -0.280892 0)
(2.64495 -0.281725 0)
(2.65249 -0.282808 0)
(2.66003 -0.283588 0)
(2.66464 -0.285423 0)
(2.66475 -0.289015 0)
(2.66457 -0.290397 0)
(2.66845 -0.289312 0)
(2.67408 -0.287447 0)
(2.67783 -0.283525 0)
(2.67685 -0.276858 0)
(2.67313 -0.273124 0)
(2.67444 -0.273062 0)
(2.67899 -0.274564 0)
(2.68381 -0.276052 0)
(2.68877 -0.277653 0)
(2.6927 -0.280397 0)
(2.69474 -0.2837 0)
(2.69816 -0.284006 0)
(2.70462 -0.282402 0)
(2.71062 -0.280625 0)
(2.71561 -0.277693 0)
(2.71663 -0.27253 0)
(2.71171 -0.268865 0)
(2.70848 -0.269298 0)