/*--------------------------------*- C++ -*----------------------------------*\
  =========                 |
  \\      /  F ield         | OpenFOAM: The Open Source CFD Toolbox
   \\    /   O peration     | Website:  https://openfoam.org
    \\  /    A nd           | Version:  7
     \\/     M anipulation  |
\*---------------------------------------------------------------------------*/
FoamFile
{
    version     2.0;
    format      ascii;
    class       volScalarField;
    location    "3";
    object      rho;
}
// * * * * * * * * * * * * * * * * * * * * * * * * * * * * * * * * * * * * * //

dimensions      [1 -3 0 0 0 0 0];

internalField   nonuniform List<scalar> 
4048
(
1.40001
1.40001
1.40001
1.40001
1.40001
1.40001
1.40001
1.40001
1.40001
1.40001
1.40001
1.40001
1.40001
1.40001
1.40001
1.48063
4.18353
5.47633
5.54951
5.65076
5.73998
5.81741
5.8805
5.93707
1.40001
1.40001
1.40001
1.40001
1.40001
1.40001
1.40001
1.40001
1.40001
1.40001
1.40001
1.40001
1.40001
1.40001
1.40001
1.45104
4.09189
5.45153
5.5306
5.62738
5.71495
5.78867
5.84002
5.86863
1.40001
1.40001
1.40001
1.40001
1.40001
1.40001
1.40001
1.40001
1.40001
1.40001
1.40001
1.40001
1.40001
1.40001
1.40001
1.40518
3.89712
5.41132
5.48925
5.57311
5.6482
5.69943
5.73044
5.76783
1.40001
1.40001
1.40001
1.40001
1.40001
1.40001
1.40001
1.40001
1.40001
1.40001
1.40001
1.40001
1.40001
1.40001
1.40001
1.40008
3.59663
5.33959
5.42965
5.50317
5.57133
5.61935
5.61181
5.69559
1.40001
1.40001
1.40001
1.40001
1.40001
1.40001
1.40001
1.40001
1.40001
1.40001
1.40001
1.40001
1.40001
1.40001
1.40001
1.4
3.19839
5.22937
5.36696
5.42152
5.4624
5.47763
5.30868
4.9967
1.40001
1.40001
1.40001
1.40001
1.40001
1.40001
1.40001
1.40001
1.40001
1.40001
1.40001
1.40001
1.40001
1.40001
1.40001
1.40001
2.73441
5.07742
5.33876
5.36626
5.37408
5.34615
5.21239
4.99191
1.40001
1.40001
1.40001
1.40001
1.40001
1.40001
1.40001
1.40001
1.40001
1.40001
1.40001
1.40001
1.40001
1.40001
1.40001
1.40001
2.18872
4.84844
5.33709
5.32074
5.3066
5.24905
5.12443
4.94513
1.40001
1.40001
1.40001
1.40001
1.40001
1.40001
1.40001
1.40001
1.40001
1.40001
1.40001
1.40001
1.40001
1.40001
1.40001
1.40001
1.62076
4.51433
5.40104
5.32339
5.24079
5.15006
5.04634
4.91834
1.40001
1.40001
1.40001
1.40001
1.40001
1.40001
1.40001
1.40001
1.40001
1.40001
1.40001
1.40001
1.40001
1.40001
1.40001
1.40001
1.41018
3.82699
5.19178
5.18603
5.14127
5.06661
4.98886
4.891
1.40001
1.40001
1.40001
1.40001
1.40001
1.40001
1.40001
1.40001
1.40001
1.40001
1.40001
1.40001
1.40001
1.40001
1.40001
1.40001
1.39992
2.92228
5.00399
5.13725
5.10992
5.0433
4.95835
4.8596
1.40001
1.40001
1.40001
1.40001
1.40001
1.40001
1.40001
1.40001
1.40001
1.40001
1.40001
1.40001
1.40001
1.40001
1.40001
1.40001
1.39998
2.01108
4.72577
5.15181
5.08398
5.00596
4.91568
4.81121
1.40001
1.40001
1.40001
1.40001
1.40001
1.40001
1.40001
1.40001
1.40001
1.40001
1.40001
1.40001
1.40001
1.40001
1.40001
1.40001
1.4
1.47611
3.95735
5.04961
5.01436
4.95322
4.87097
4.76659
1.40001
1.40001
1.40001
1.40001
1.40001
1.40001
1.40001
1.40001
1.40001
1.40001
1.40001
1.40001
1.40001
1.40001
1.40001
1.40001
1.4
1.40033
2.79459
4.85396
4.9935
4.94768
4.86313
4.73393
1.40001
1.40001
1.40001
1.40001
1.40001
1.40001
1.40001
1.40001
1.40001
1.40001
1.40001
1.40001
1.40001
1.40001
1.40001
1.40001
1.40001
1.4
1.70921
4.48532
5.04712
4.9482
4.84179
4.69874
1.40001
1.40001
1.40001
1.40001
1.40001
1.40001
1.40001
1.40001
1.40001
1.40001
1.40001
1.40001
1.40001
1.40001
1.40001
1.40001
1.40001
1.4
1.41292
3.42937
4.88974
4.8888
4.79822
4.66099
1.40001
1.40001
1.40001
1.40001
1.40001
1.40001
1.40001
1.40001
1.40001
1.40001
1.40001
1.40001
1.40001
1.40001
1.40001
1.40001
1.40001
1.4
1.39995
2.06186
4.69493
4.94332
4.78989
4.64574
1.40001
1.40001
1.40001
1.40001
1.40001
1.40001
1.40001
1.40001
1.40001
1.40001
1.40001
1.40001
1.40001
1.40001
1.40001
1.40001
1.40001
1.40001
1.39999
1.46533
3.76981
4.86291
4.74803
4.62332
1.40001
1.40001
1.40001
1.40001
1.40001
1.40001
1.40001
1.40001
1.40001
1.40001
1.40001
1.40001
1.40001
1.40001
1.40001
1.40001
1.40001
1.40001
1.4
1.40031
2.31174
4.61787
4.76205
4.63626
1.40001
1.40001
1.40001
1.40001
1.40001
1.40001
1.40001
1.40001
1.40001
1.40001
1.40001
1.40001
1.40001
1.40001
1.40001
1.40001
1.40001
1.40001
1.4
1.4
1.52068
3.73892
4.74833
4.63399
1.40001
1.40001
1.40001
1.40001
1.40001
1.40001
1.40001
1.40001
1.40001
1.40001
1.40001
1.40001
1.40001
1.40001
1.40001
1.40001
1.40001
1.40001
1.40001
1.4
1.40155
2.24675
4.43752
4.64488
1.40001
1.40001
1.40001
1.40001
1.40001
1.40001
1.40001
1.40001
1.40001
1.40001
1.40001
1.40001
1.40001
1.40001
1.40001
1.40001
1.40001
1.40001
1.40001
1.40001
1.40001
1.50058
3.47158
4.63407
1.40001
1.40001
1.40001
1.40001
1.40001
1.40001
1.40001
1.40001
1.40001
1.40001
1.40001
1.40001
1.40001
1.40001
1.40001
1.40001
1.40001
1.40001
1.40001
1.40001
1.40001
1.40131
2.05222
4.1808
1.40001
1.40001
1.40001
1.40001
1.40001
1.40001
1.40001
1.40001
1.40001
1.40001
1.40001
1.40001
1.40001
1.40001
1.40001
1.40001
1.40001
1.40001
1.40001
1.40001
1.40001
1.40001
1.45595
2.95048
1.40001
1.40001
1.40001
1.40001
1.40001
1.40001
1.40001
1.40001
1.40001
1.40001
1.40001
1.40001
1.40001
1.40001
1.40001
1.40001
1.40001
1.40001
1.40001
1.40001
1.40001
1.40001
1.40069
1.74891
1.40001
1.40001
1.40001
1.40001
1.40001
1.40001
1.40001
1.40001
1.40001
1.40001
1.40001
1.40001
1.40001
1.40001
1.40001
1.40001
1.40001
1.40001
1.40001
1.40001
1.40001
1.40001
1.40001
1.4159
1.40001
1.40001
1.40001
1.40001
1.40001
1.40001
1.40001
1.40001
1.40001
1.40001
1.40001
1.40001
1.40001
1.40001
1.40001
1.40001
1.40001
1.40001
1.40001
1.40001
1.40001
1.40001
1.40001
1.40015
1.40001
1.40001
1.40001
1.40001
1.40001
1.40001
1.40001
1.40001
1.40001
1.40001
1.40001
1.40001
1.40001
1.40001
1.40001
1.40001
1.40001
1.40001
1.40001
1.40001
1.40001
1.40001
1.40001
1.40001
1.40001
1.40001
1.40001
1.40001
1.40001
1.40001
1.40001
1.40001
1.40001
1.40001
1.40001
1.40001
1.40001
1.40001
1.40001
1.40001
1.40001
1.40001
1.40001
1.40001
1.40001
1.40001
1.40001
1.40001
1.40001
1.40001
1.40001
1.40001
1.40001
1.40001
1.40001
1.40001
1.40001
1.40001
1.40001
1.40001
1.40001
1.40001
1.40001
1.40001
1.40001
1.40001
1.40001
1.40001
1.40001
1.40001
1.40001
1.40001
1.40001
1.40001
1.40001
1.40001
1.40001
1.40001
1.40001
1.40001
1.40001
1.40001
1.40001
1.40001
1.40001
1.40001
1.40001
1.40001
1.40001
1.40001
1.40001
1.40001
1.40001
1.40001
1.40001
1.40001
1.40001
1.40001
1.40001
1.40001
1.40001
1.40001
1.40001
1.40001
1.40001
1.40001
1.40001
1.40001
1.40001
1.40001
1.40001
1.40001
1.40001
1.40001
1.40001
1.40001
1.40001
1.40001
1.40001
1.40001
1.40001
1.40001
1.40001
1.40001
1.40001
1.40001
1.40001
1.40001
1.40001
1.40001
1.40001
1.40001
1.40001
1.40001
1.40001
1.40001
1.40001
1.40001
1.40001
1.40001
1.40001
1.40001
1.40001
1.40001
1.40001
1.40001
1.40001
1.40001
1.40001
1.40001
1.40001
1.40001
1.40001
1.40001
1.40001
1.40001
1.40001
1.40001
1.40001
1.40001
1.40001
1.40001
1.40001
1.40001
1.40001
1.40001
1.40001
1.40001
1.40001
1.40001
1.40001
1.40001
1.40001
1.40001
1.40001
1.40001
1.40001
1.40001
1.40001
1.40001
1.40001
1.40001
1.40001
1.40001
1.40001
1.40001
1.40001
1.40001
1.40001
1.40001
1.40001
1.40001
1.40001
1.40001
1.40001
1.40001
1.40001
1.40001
1.40001
1.40001
1.40001
1.40001
1.40001
1.40001
1.40001
1.40001
1.40001
1.40001
1.40001
1.40001
1.40001
1.40001
1.40001
1.40001
1.40001
1.40001
1.40001
1.40001
1.40001
1.40001
1.40001
1.40001
1.40001
1.40001
1.40001
1.40001
1.40001
1.40001
1.40001
1.40001
1.40001
1.40001
1.40001
1.40001
1.40001
1.40001
1.40001
1.40001
1.40001
1.40001
1.40001
1.40001
1.40001
1.40001
1.40001
1.40001
1.40001
1.40001
1.40001
1.40001
1.40001
1.40001
1.40001
1.40001
1.40001
1.40001
1.40001
1.40001
1.40001
1.40001
1.40001
1.40001
1.40001
1.40001
1.40001
1.40001
1.40001
1.40001
1.40001
1.40001
1.40001
1.40001
1.40001
1.40001
1.40001
1.40001
1.40001
1.40001
1.40001
1.40001
1.40001
1.40001
1.40001
1.40001
1.40001
1.40001
1.40001
1.40001
1.40001
1.40001
1.40001
1.40001
1.40001
1.40001
1.40001
1.40001
1.40001
1.40001
1.40001
1.40001
1.40001
1.40001
1.40001
1.40001
1.40001
1.40001
1.40001
1.40001
1.40001
1.40001
1.40001
1.40001
1.40001
1.40001
1.40001
1.40001
1.40001
1.40001
1.40001
1.40001
1.40001
1.40001
1.40001
1.40001
1.40001
1.40001
1.40001
1.40001
1.40001
1.40001
1.40001
1.40001
1.40001
1.40001
1.40001
1.40001
3.96736
4.3864
4.50475
4.59325
4.66276
4.76869
4.66285
4.6575
4.75308
4.70132
4.57533
4.57058
4.81031
4.73908
4.59588
4.60458
4.79469
4.69344
4.41416
3.63949
4.74182
4.57694
4.22562
3.52181
4.66903
4.47985
4.11249
3.53698
4.61067
4.3994
4.03591
3.5539
4.56701
4.33551
4.00685
3.59869
4.51547
4.29214
3.99982
3.64575
4.48519
4.26826
4.00279
3.69229
4.47561
4.26625
4.01495
3.738
4.46541
4.2676
4.03285
3.78249
4.47585
4.28167
4.06423
3.83588
4.4782
4.29502
4.0959
3.8844
4.49431
4.32393
4.13503
3.93438
4.51661
4.35051
4.1631
3.97331
4.53886
4.36765
4.1958
4.0176
4.44683
4.40758
4.24805
4.07713
3.7376
4.46735
4.31534
4.13979
2.32
4.13487
4.35979
4.19989
1.51175
3.00188
4.26693
4.2553
1.40238
1.77252
3.54292
4.25824
1.40002
1.41902
2.16262
3.84911
1.40001
1.40022
1.47645
2.58106
1.40001
1.40001
1.40149
1.59177
1.40001
1.40001
1.40001
1.40639
1.40001
1.40001
1.40001
1.40005
1.40001
1.40001
1.40001
1.40001
1.40001
1.40001
1.40001
1.40001
1.40001
1.40001
1.40001
1.40001
1.40001
1.40001
1.40001
1.40001
1.40001
1.40001
1.40001
1.40001
1.40001
1.40001
1.40001
1.40001
1.40001
1.40001
1.40001
1.40001
1.40001
1.40001
1.40001
1.40001
1.47379
0.742599
0.462204
0.470573
0.545649
0.61407
0.691506
0.805992
0.898284
0.960512
0.974921
0.990482
1.00211
1.01555
1.03709
1.05819
1.0723
1.07776
1.07949
1.07574
1.06617
1.06134
1.06273
1.06602
1.07117
1.07985
1.09139
1.09704
1.09925
1.0999
1.09727
1.09302
1.09178
1.09242
1.09641
1.10169
1.10242
1.75974
2.94127
3.13627
3.1202
3.09512
3.06967
3.05201
3.03585
3.01193
2.99369
2.98548
2.97821
2.95822
2.91832
2.8684
2.81909
2.77876
2.74888
2.72907
2.7202
2.71816
2.69697
2.65931
2.61254
2.55104
2.48338
2.44023
2.41314
2.39568
2.39585
2.41409
2.41221
2.3882
2.35377
2.29148
2.21243
2.16995
2.14788
2.13156
2.1273
2.13215
2.1233
2.10567
2.0786
2.02272
1.95566
1.9255
1.90916
1.89575
1.89043
1.89408
1.88701
1.87166
1.85396
1.79668
2.07708
1.47337
1.07646
0.931062
0.891334
0.822442
0.79087
0.799498
0.828249
0.869598
0.909341
0.951742
0.981935
1.00427
1.02876
1.059
1.07712
1.08274
1.08657
1.08553
1.08239
1.08223
1.08528
1.08894
1.0928
1.10001
1.10914
1.11168
1.11258
1.11278
1.11141
1.10838
1.10478
1.10345
1.10304
1.10573
1.12945
1.72858
3.00874
3.23417
3.17936
3.14067
3.12573
3.10815
3.08605
3.04057
3.00388
2.9881
2.98531
2.98354
2.96202
2.91646
2.86377
2.80816
2.76166
2.72851
2.71048
2.70616
2.70017
2.6738
2.63814
2.59453
2.53639
2.47103
2.43126
2.40895
2.4024
2.40591
2.39539
2.37487
2.34614
2.30343
2.25371
2.20283
2.16688
2.14703
2.13706
2.13117
2.11685
2.09765
2.07258
2.03258
1.98029
1.93899
1.91857
1.90497
1.89708
1.89317
1.8839
1.86986
1.85295
1.80528
2.55897
1.95658
1.56814
1.29774
1.13586
1.0093
0.900564
0.861005
0.860518
0.878308
0.926571
0.975385
1.01314
1.03631
1.0608
1.0946
1.1158
1.12728
1.14246
1.15372
1.15191
1.1443
1.14238
1.14208
1.14141
1.14289
1.14434
1.14392
1.14343
1.14328
1.14379
1.1444
1.14378
1.14199
1.14494
1.17894
1.34695
1.83025
2.89792
3.3775
3.37393
3.31658
3.28996
3.28102
3.25345
3.2005
3.13545
3.09074
3.0609
3.04782
3.03882
3.00949
2.96881
2.92234
2.86412
2.80208
2.75856
2.72764
2.70765
2.69222
2.66919
2.63969
2.606
2.55799
2.49984
2.46377
2.44086
2.41862
2.39542
2.36867
2.33801
2.31274
2.28907
2.26204
2.22606
2.18899
2.16284
2.14226
2.12118
2.09665
2.06678
2.03722
2.00968
1.97828
1.94721
1.92877
1.91529
1.90324
1.88896
1.87138
1.85105
1.81336
2.87673
2.3542
1.9431
1.65769
1.44079
1.28311
1.14789
1.08356
1.02403
0.961549
0.961732
0.968762
0.979725
0.997957
1.0321
1.07282
1.10485
1.12557
1.14636
1.17474
1.18725
1.18785
1.19666
1.20103
1.2006
1.19735
1.19377
1.18643
1.18151
1.17939
1.17945
1.17939
1.17952
1.18271
1.20894
1.40029
1.855
2.10775
2.42538
3.01211
3.39994
3.4649
3.46771
3.43095
3.37681
3.33043
3.27208
3.20834
3.16722
3.13552
3.11629
3.09191
3.05778
3.01967
2.9713
2.90807
2.84137
2.79625
2.7665
2.74386
2.72325
2.69747
2.66899
2.63556
2.5874
2.52849
2.48571
2.45506
2.42511
2.39647
2.3727
2.35424
2.33749
2.31741
2.29094
2.25072
2.20499
2.17002
2.13956
2.10777
2.0792
2.06083
2.04488
2.02643
2.00032
1.96695
1.9415
1.9239
1.90573
1.88322
1.86056
1.8301
3.08932
2.65248
2.25586
1.96518
1.73307
1.52237
1.37126
1.27283
1.18215
1.0903
1.03994
1.01619
0.987955
0.991871
1.00637
1.03294
1.0631
1.08889
1.11412
1.14816
1.17258
1.18915
1.20608
1.22624
1.23652
1.23758
1.23508
1.22927
1.22123
1.21422
1.20895
1.20548
1.20847
1.23168
1.40257
1.86281
2.2673
2.3039
2.29867
2.44695
2.91572
3.3065
3.48037
3.51813
3.48727
3.43264
3.37553
3.30512
3.24642
3.20923
3.18431
3.15895
3.12724
3.09246
3.05206
3.00135
2.93767
2.86994
2.82487
2.79644
2.77294
2.75145
2.72636
2.69761
2.6577
2.5946
2.52287
2.47962
2.45337
2.43253
2.41855
2.41033
2.39672
2.37726
2.35241
2.31052
2.24627
2.19165
2.15704
2.13148
2.11399
2.10069
2.08957
2.07492
2.05546
2.02351
1.97958
1.94551
1.92186
1.89915
1.88288
1.85849
3.22977
2.85309
2.50677
2.21237
1.97922
1.76111
1.59291
1.47052
1.35942
1.25845
1.18698
1.14002
1.08462
1.04465
1.04209
1.03381
1.02724
1.03288
1.05174
1.08808
1.12996
1.16408
1.18648
1.21178
1.22754
1.23014
1.23538
1.24038
1.24483
1.24277
1.23913
1.23611
1.25798
1.40378
1.86156
2.24718
2.35685
2.35381
2.32453
2.2991
2.40435
2.76136
3.20204
3.4023
3.48294
3.49409
3.43196
3.36628
3.29512
3.2392
3.20103
3.17042
3.1428
3.11551
3.08554
3.0504
3.00509
2.9413
2.86796
2.82206
2.79301
2.77062
2.75104
2.72612
2.69397
2.64864
2.58193
2.51949
2.4889
2.46898
2.45534
2.44869
2.43577
2.41618
2.39277
2.35384
2.28654
2.21607
2.1817
2.16423
2.14953
2.13877
2.12977
2.11577
2.09885
2.07194
2.0216
1.96756
1.93834
1.92139
1.91067
1.88949
3.34319
3.00524
2.69422
2.42555
2.1887
1.96689
1.79417
1.65566
1.5326
1.42014
1.33983
1.26277
1.18853
1.1183
1.08587
1.05693
1.03281
1.03413
1.04341
1.05681
1.07983
1.10737
1.13251
1.16093
1.18706
1.20565
1.21977
1.2301
1.24028
1.24215
1.24705
1.26916
1.4714
1.87816
2.25966
2.3671
2.38176
2.37199
2.34684
2.32005
2.27803
2.32708
2.59346
2.99107
3.3136
3.43246
3.45005
3.40192
3.3481
3.28162
3.20971
3.16519
3.13831
3.11647
3.09553
3.06887
3.03585
2.98919
2.91357
2.8381
2.80209
2.7777
2.75683
2.73281
2.70568
2.67456
2.63231
2.57258
2.52151
2.49605
2.47718
2.46373
2.44894
2.42869
2.40309
2.36758
2.31641
2.25547
2.21512
2.19639
2.18147
2.16849
2.15555
2.13995
2.12242
2.09592
2.04732
1.98812
1.95761
1.94325
1.9334
1.91299
3.43002
3.12321
2.84768
2.59835
2.35864
2.1456
1.98068
1.8269
1.69159
1.57127
1.48778
1.39778
1.31701
1.24489
1.19251
1.14775
1.09835
1.08215
1.07961
1.07172
1.06226
1.06519
1.07398
1.09037
1.11574
1.14962
1.17756
1.20078
1.22243
1.22784
1.25177
1.43967
1.94902
2.27026
2.38205
2.38036
2.36874
2.35269
2.33892
2.32281
2.29938
2.24937
2.26254
2.41479
2.78708
3.14952
3.34612
3.40067
3.38417
3.33345
3.25456
3.16945
3.11898
3.08823
3.07246
3.06902
3.04417
3.01085
2.95884
2.87564
2.8041
2.76673
2.73918
2.72122
2.70979
2.68727
2.65986
2.62185
2.56429
2.5134
2.48927
2.47015
2.45
2.42647
2.39908
2.37003
2.33886
2.30026
2.25308
2.2186
2.19994
2.1834
2.16769
2.15152
2.1307
2.10249
2.0638
2.01662
1.97748
1.95802
1.94786
1.92858
3.50168
3.22561
2.97884
2.74327
2.50677
2.3119
2.14265
1.98618
1.83418
1.72256
1.62542
1.52876
1.43601
1.36676
1.30846
1.24745
1.1896
1.15052
1.12628
1.09752
1.07275
1.06855
1.06877
1.06917
1.07222
1.0868
1.11217
1.14577
1.17816
1.21256
1.38281
1.90114
2.2654
2.38313
2.39621
2.36419
2.34854
2.34342
2.33536
2.32608
2.30967
2.27807
2.22178
2.20229
2.28395
2.57291
2.96966
3.25479
3.3546
3.36061
3.30532
3.21426
3.11732
3.07648
3.05431
3.04901
3.04099
3.01518
2.98117
2.92204
2.83214
2.76749
2.73821
2.71667
2.70471
2.69389
2.67195
2.64613
2.60925
2.55226
2.49475
2.45987
2.43824
2.41855
2.39794
2.37791
2.35828
2.33229
2.28847
2.23734
2.20855
2.18878
2.16794
2.14483
2.12055
2.09643
2.07337
2.04656
2.01115
1.97617
1.96107
1.93815
3.57545
3.3223
3.09454
2.86646
2.63891
2.45858
2.28938
2.12908
1.97326
1.86418
1.75395
1.65535
1.55812
1.48826
1.42166
1.35504
1.29267
1.24963
1.20965
1.16844
1.12288
1.10555
1.09582
1.07903
1.07147
1.07097
1.07739
1.09345
1.12216
1.31093
1.7665
2.23214
2.32125
2.36385
2.36236
2.33791
2.33684
2.3437
2.34461
2.33089
2.31162
2.28705
2.25172
2.2022
2.17173
2.19917
2.39543
2.78394
3.12514
3.28931
3.30573
3.26725
3.1778
3.09142
3.05668
3.03516
3.02401
3.00742
2.98104
2.94514
2.88718
2.80974
2.75195
2.72387
2.70265
2.68751
2.67534
2.65538
2.63064
2.59006
2.51899
2.46039
2.43208
2.41196
2.39665
2.38632
2.37104
2.35074
2.31743
2.26033
2.20818
2.18104
2.16127
2.14049
2.11903
2.10049
2.08459
2.06678
2.04083
2.00138
1.97673
1.94958
3.64181
3.40808
3.19394
2.97161
2.76185
2.58959
2.42381
2.25216
2.10978
1.9975
1.88195
1.77329
1.67306
1.6046
1.52914
1.46084
1.39474
1.34746
1.29598
1.24325
1.18954
1.1587
1.13165
1.10397
1.08219
1.076
1.07944
1.09816
1.24644
1.67394
2.1103
2.25325
2.2831
2.2889
2.28792
2.29842
2.30695
2.31968
2.33625
2.33009
2.3063
2.28445
2.26429
2.23671
2.19219
2.1598
2.15797
2.26454
2.56222
2.92635
3.17051
3.24321
3.23549
3.15895
3.08866
3.04024
3.01107
2.99245
2.97478
2.95153
2.92154
2.87502
2.80489
2.74074
2.70873
2.68746
2.67294
2.65841
2.63666
2.60757
2.55857
2.48727
2.43505
2.41259
2.39703
2.38814
2.3777
2.36007
2.33411
2.28432
2.21695
2.17631
2.15476
2.13797
2.12392
2.11147
2.09806
2.08277
2.06295
2.02945
1.98644
1.93771
3.70752
3.48827
3.28643
3.07263
2.8773
2.71036
2.54714
2.3704
2.24211
2.12157
2.00515
1.88175
1.79246
1.71661
1.63465
1.55865
1.49235
1.445
1.38747
1.33173
1.27746
1.23953
1.20151
1.16795
1.13389
1.11339
1.12352
1.2384
1.64287
2.05512
2.21951
2.21525
2.2005
2.1898
2.19344
2.21226
2.23934
2.26855
2.27871
2.28514
2.28403
2.27415
2.26185
2.25129
2.22946
2.19435
2.14418
2.11932
2.15773
2.33979
2.68058
3.01411
3.15887
3.18898
3.15985
3.0858
3.01795
2.98089
2.95933
2.95378
2.93846
2.91103
2.868
2.79644
2.72717
2.69369
2.67245
2.6543
2.63479
2.61152
2.5808
2.53276
2.46932
2.42209
2.39976
2.38342
2.36981
2.35538
2.33507
2.30034
2.24357
2.18591
2.15649
2.14155
2.12904
2.1194
2.10972
2.09545
2.07882
2.05011
1.99924
1.93411
3.76701
3.56046
3.36724
3.17018
2.98475
2.82382
2.65687
2.48504
2.36044
2.24014
2.11822
1.98793
1.90748
1.82154
1.73895
1.65046
1.58991
1.53708
1.47503
1.41533
1.36356
1.32224
1.28207
1.23603
1.19671
1.17609
1.27026
1.66988
2.09577
2.24586
2.23257
2.20529
2.18656
2.16925
2.14639
2.13994
2.14142
2.15426
2.17479
2.19145
2.20336
2.21588
2.23235
2.23751
2.22796
2.20779
2.16979
2.11644
2.08931
2.09222
2.18645
2.46314
2.80941
3.04501
3.12995
3.13225
3.06311
2.99016
2.95777
2.94404
2.94292
2.92581
2.89928
2.85511
2.78071
2.71243
2.67873
2.65571
2.63357
2.61163
2.58846
2.56025
2.51876
2.46138
2.41039
2.3822
2.36343
2.34548
2.32552
2.30194
2.26882
2.2216
2.1736
2.14891
2.13516
2.12378
2.11483
2.10234
2.08764
2.06438
2.01688
1.93654
3.82799
3.63462
3.44934
3.26567
3.08519
2.92588
2.76232
2.60039
2.46866
2.35265
2.21799
2.09652
2.01534
1.92787
1.83931
1.74215
1.68743
1.62657
1.56315
1.49913
1.44733
1.40635
1.35781
1.31039
1.29052
1.38288
1.7823
2.21971
2.3412
2.31057
2.26588
2.23015
2.21058
2.19084
2.16079
2.13676
2.12824
2.11301
2.10141
2.10273
2.10693
2.1192
2.14184
2.16685
2.18274
2.17689
2.15964
2.13509
2.08902
2.06107
2.05672
2.09682
2.26981
2.57177
2.86363
3.03715
3.05562
3.02254
2.97238
2.94239
2.93742
2.93045
2.90866
2.88212
2.83233
2.75815
2.69775
2.66238
2.63544
2.61224
2.59134
2.56996
2.54453
2.50584
2.4471
2.39107
2.35918
2.3386
2.31966
2.30075
2.28085
2.25506
2.21423
2.16492
2.13893
2.1259
2.11585
2.10771
2.09402
2.07058
2.02979
1.95072
3.89529
3.71255
3.53086
3.34793
3.17732
3.0222
2.86215
2.70409
2.57367
2.4554
2.31969
2.20278
2.11533
2.02978
1.93021
1.83873
1.78234
1.71482
1.64954
1.57721
1.52942
1.48115
1.43266
1.4024
1.49871
1.92302
2.39346
2.4934
2.44567
2.38581
2.34474
2.31158
2.27624
2.23863
2.19544
2.14832
2.11941
2.1069
2.0995
2.0805
2.05461
2.04083
2.03782
2.04516
2.06149
2.08129
2.10054
2.10218
2.08978
2.0666
2.0362
2.02487
2.03307
2.10873
2.31193
2.62088
2.86164
2.97408
2.97421
2.95936
2.95092
2.93423
2.91045
2.8868
2.85361
2.80079
2.73247
2.67651
2.64087
2.6145
2.59422
2.57475
2.55396
2.52872
2.4864
2.41798
2.36124
2.33546
2.31884
2.30371
2.28812
2.27103
2.24702
2.20546
2.15513
2.12711
2.11109
2.09333
2.07376
2.0516
2.02796
1.97795
3.95938
3.77977
3.6016
3.42445
3.26235
3.10811
2.95166
2.80416
2.67864
2.55318
2.41911
2.30621
2.21636
2.1269
2.01933
1.93465
1.87133
1.80527
1.73273
1.66062
1.60593
1.55506
1.52716
1.63562
2.08903
2.5927
2.68345
2.61974
2.54865
2.49362
2.44645
2.39903
2.34875
2.29776
2.2467
2.19741
2.15797
2.13363
2.11286
2.09118
2.06594
2.02527
1.9898
1.97529
1.97206
1.97615
1.99274
2.02092
2.03323
2.03479
2.01963
1.98754
1.96897
1.96612
1.993
2.11401
2.36166
2.64098
2.85587
2.90148
2.92498
2.92912
2.90863
2.88619
2.86222
2.82151
2.76494
2.70099
2.65164
2.61821
2.59726
2.57956
2.5608
2.53961
2.50815
2.44723
2.37268
2.33955
2.32349
2.30806
2.29235
2.27692
2.26015
2.23336
2.182
2.13158
2.10596
2.08638
2.06653
2.04411
2.02788
1.99856
4.01913
3.84282
3.67025
3.5056
3.34688
3.19242
3.03856
2.90276
2.77619
2.64828
2.51488
2.40882
2.31295
2.21542
2.10854
2.0264
1.96045
1.8904
1.81247
1.7378
1.6806
1.64906
1.77232
2.26159
2.78827
2.88216
2.81031
2.72846
2.65935
2.60387
2.54912
2.49419
2.43858
2.38275
2.32683
2.27241
2.22563
2.1873
2.15289
2.12127
2.08822
2.04462
1.99109
1.96105
1.94344
1.93231
1.92906
1.93568
1.94087
1.94626
1.94118
1.9311
1.91951
1.90383
1.90124
1.91401
1.98451
2.14007
2.4016
2.63994
2.80188
2.87104
2.88877
2.89011
2.86849
2.83047
2.78424
2.72431
2.66969
2.6309
2.60189
2.58276
2.56451
2.54376
2.51542
2.46574
2.3947
2.35092
2.3306
2.31272
2.29559
2.27942
2.26301
2.24168
2.20299
2.14775
2.10759
2.08378
2.064
2.04693
2.03635
2.01122
4.10308
3.92435
3.75644
3.59538
3.4374
3.28231
3.13363
2.99747
2.8694
2.73976
2.61042
2.50811
2.40497
2.30439
2.19791
2.12132
2.04721
1.97443
1.89004
1.81548
1.78444
1.93114
2.474
2.99632
3.08851
3.01007
2.91729
2.84152
2.77584
2.71192
2.65053
2.59189
2.53345
2.47103
2.40425
2.33965
2.28707
2.24503
2.20718
2.16947
2.13033
2.0875
2.03711
1.98193
1.94015
1.92121
1.91114
1.89651
1.88903
1.8882
1.87584
1.85387
1.84264
1.83611
1.83941
1.84185
1.85225
1.88939
1.97398
2.13318
2.3619
2.60336
2.73307
2.81504
2.84678
2.84261
2.81043
2.7471
2.69228
2.65025
2.61484
2.58908
2.56831
2.54266
2.50922
2.46828
2.4186
2.37301
2.34222
2.31975
2.29983
2.28072
2.26132
2.23913
2.20834
2.16091
2.11297
2.08695
2.07278
2.06132
2.05044
2.02255
4.19144
4.01357
3.84448
3.6821
3.5181
3.36724
3.22599
3.08335
2.95601
2.82263
2.70347
2.59759
2.49787
2.38829
2.2886
2.21187
2.13272
2.04832
1.96395
1.92777
2.11022
2.71807
3.24646
3.30529
3.21745
3.10833
3.02205
2.94992
2.88242
2.81856
2.75748
2.69648
2.63083
2.55604
2.47435
2.40322
2.35307
2.31413
2.27828
2.24196
2.20189
2.1537
2.09303
2.02493
1.97296
1.94144
1.9142
1.88907
1.87237
1.85688
1.843
1.83497
1.81128
1.77807
1.77223
1.77571
1.77669
1.78378
1.79786
1.82697
1.89412
2.07145
2.32867
2.5437
2.73243
2.78566
2.7778
2.74957
2.71342
2.67717
2.63601
2.59766
2.56735
2.53558
2.50092
2.46542
2.42964
2.39132
2.35577
2.32856
2.30646
2.28568
2.26633
2.24413
2.21266
2.16532
2.11395
2.0921
2.08121
2.07018
2.06151
2.03512
4.21444
4.10525
3.9335
3.76555
3.60206
3.45821
3.31362
3.16885
3.03668
2.91962
2.79673
2.68527
2.58359
2.47187
2.38179
2.29987
2.20968
2.12099
2.0857
2.30305
2.97485
3.51294
3.5508
3.45112
3.32666
3.21577
3.12348
3.05049
2.98456
2.9216
2.85924
2.79498
2.72654
2.64899
2.55958
2.476
2.4183
2.37524
2.33603
2.29783
2.25882
2.2152
2.16107
2.09441
2.02855
1.97949
1.94221
1.91231
1.88578
1.85876
1.8321
1.81057
1.7929
1.76506
1.74384
1.73082
1.71934
1.71522
1.71419
1.71295
1.71503
1.73754
1.83296
2.03066
2.32706
2.56702
2.65389
2.71036
2.72047
2.70761
2.65432
2.59605
2.55686
2.52266
2.49246
2.467
2.44046
2.40561
2.36391
2.32958
2.31378
2.30163
2.28476
2.26307
2.23059
2.18078
2.12352
2.10052
2.09232
2.08777
2.08178
2.05361
4.00791
4.16631
4.04092
3.85902
3.69648
3.5525
3.40903
3.25948
3.1307
3.01098
2.88626
2.77604
2.67114
2.56272
2.47072
2.37464
2.2854
2.26137
2.52541
3.24717
3.75305
3.75929
3.6525
3.54189
3.44564
3.34334
3.23482
3.14385
3.07518
3.01129
2.94783
2.88373
2.81681
2.74356
2.65987
2.57072
2.49537
2.43984
2.39396
2.35116
2.30895
2.26605
2.22009
2.16646
2.1056
2.04744
1.99992
1.96143
1.92593
1.88868
1.85226
1.81861
1.78306
1.74947
1.72559
1.7024
1.68657
1.68039
1.6745
1.66487
1.65076
1.63221
1.63046
1.66026
1.78451
2.04374
2.30311
2.51194
2.64753
2.65675
2.63401
2.60145
2.56044
2.52666
2.50027
2.4714
2.44377
2.41749
2.38434
2.34938
2.32039
2.29148
2.26416
2.24189
2.2236
2.19433
2.16013
2.1272
2.09791
2.07285
2.05911
2.03079
2.97733
4.05303
4.10607
3.96519
3.79713
3.64951
3.50212
3.35446
3.23127
3.10533
2.97971
2.86235
2.75525
2.65622
2.55313
2.44305
2.45769
2.80368
3.59788
4.02463
4.0116
3.8827
3.75804
3.66869
3.58278
3.48233
3.36036
3.24702
3.16232
3.09101
3.02508
2.9609
2.89679
2.8312
2.76002
2.67875
2.59317
2.51863
2.45845
2.40602
2.35734
2.31135
2.26681
2.21989
2.16582
2.10581
2.05073
2.00685
1.9694
1.93358
1.89759
1.85788
1.81384
1.77025
1.72928
1.69292
1.66781
1.65406
1.64438
1.63366
1.6193
1.60237
1.57593
1.55111
1.55706
1.60674
1.76166
2.00373
2.30138
2.43912
2.53549
2.56034
2.5617
2.55724
2.53123
2.49482
2.45994
2.42388
2.38157
2.34394
2.31266
2.2846
2.25933
2.23548
2.21234
2.20207
2.18834
2.15344
2.10963
2.07417
2.05412
2.01895
1.76722
3.28061
4.05794
4.04547
3.90714
3.74704
3.58865
3.45563
3.32955
3.20013
3.06815
2.95529
2.85058
2.74123
2.61888
2.64839
3.09978
4.03134
4.3687
4.25931
4.1066
3.98462
3.8914
3.81054
3.71441
3.60986
3.49347
3.36942
3.26424
3.18068
3.10664
3.03695
2.97018
2.90494
2.83787
2.76413
2.68252
2.60135
2.53079
2.47114
2.41775
2.36748
2.31912
2.27105
2.2193
2.16068
2.09907
2.04385
1.99925
1.96293
1.92959
1.89379
1.85356
1.80761
1.75617
1.70918
1.67569
1.65214
1.63332
1.61443
1.59581
1.5759
1.55158
1.52894
1.50877
1.49529
1.50387
1.55429
1.71488
1.95296
2.20616
2.35368
2.44273
2.50084
2.52069
2.50892
2.48087
2.43647
2.38558
2.34098
2.30626
2.2869
2.27067
2.24983
2.22005
2.17688
2.14795
2.1408
2.12171
2.09055
2.06272
2.01883
1.41987
1.97941
3.48888
4.02578
3.99911
3.85642
3.67952
3.55041
3.42276
3.29252
3.16315
3.04648
2.94137
2.81756
2.87054
3.42172
4.30885
4.80202
4.69079
4.44741
4.22601
4.09919
4.01488
3.93127
3.8334
3.72947
3.62115
3.50649
3.39303
3.29104
3.20238
3.12316
3.04899
2.9769
2.90521
2.83238
2.75618
2.67675
2.60051
2.53377
2.47509
2.42015
2.36666
2.31409
2.26045
2.20287
2.14279
2.0855
2.03456
1.9896
1.95011
1.91401
1.87825
1.8385
1.79277
1.74486
1.70084
1.66428
1.6354
1.61205
1.59137
1.56717
1.5417
1.51463
1.49041
1.47333
1.45851
1.44319
1.45286
1.50942
1.64289
1.9024
2.1457
2.32562
2.44729
2.4596
2.44433
2.39878
2.33089
2.29813
2.29394
2.2955
2.28763
2.26702
2.23165
2.18164
2.13144
2.09021
2.07917
2.07824
2.07005
2.03179
1.40024
1.44692
2.19182
3.60939
3.99153
3.95967
3.80076
3.64969
3.5161
3.38413
3.25112
3.14618
3.03343
3.1406
3.88195
4.69249
4.97724
4.96384
4.80612
4.63224
4.43692
4.2654
4.14278
4.04247
3.94533
3.84428
3.73885
3.63064
3.51897
3.40535
3.29866
3.20485
3.12053
3.04119
2.96499
2.89033
2.81513
2.73803
2.66045
2.58806
2.52319
2.46289
2.40355
2.34373
2.28515
2.22983
2.17535
2.1199
2.07054
2.02279
1.97662
1.93456
1.89448
1.85531
1.81534
1.77272
1.73064
1.6935
1.65939
1.62733
1.59683
1.56719
1.54106
1.51409
1.48207
1.45488
1.44038
1.42726
1.41406
1.39638
1.40411
1.46145
1.62753
1.8691
2.11734
2.32948
2.38999
2.38561
2.33483
2.26749
2.23455
2.22794
2.23976
2.25366
2.23644
2.19817
2.14135
2.08732
2.05191
2.04009
2.03213
2.01056
1.40001
1.40081
1.48705
2.37696
3.6814
3.96112
3.91372
3.77203
3.61518
3.46362
3.35069
3.25956
3.47096
4.39146
5.29209
5.40923
5.26201
5.05965
4.92926
4.79689
4.63475
4.46035
4.29632
4.16223
4.04957
3.94398
3.83914
3.73183
3.61993
3.50085
3.37882
3.26886
3.17629
3.09323
3.01413
2.93793
2.8641
2.7886
2.7098
2.63153
2.56051
2.49707
2.43721
2.37798
2.31795
2.257
2.20354
2.16
2.11199
2.0591
2.00608
1.96166
1.92063
1.87701
1.82933
1.78042
1.73598
1.69978
1.66841
1.63858
1.61001
1.58492
1.56065
1.52615
1.47937
1.43842
1.42129
1.41174
1.39984
1.38338
1.36938
1.34367
1.3503
1.42031
1.5938
1.87216
2.09285
2.2595
2.30325
2.27889
2.23338
2.21617
2.20474
2.20068
2.19368
2.18143
2.15543
2.10178
2.05059
2.01692
2.00271
1.98911
1.40001
1.40001
1.40201
1.53564
2.53689
3.72221
3.918
3.87621
3.72448
3.55941
3.50462
3.86219
4.94544
5.81721
5.80381
5.64945
5.44746
5.2469
5.08993
4.94606
4.78948
4.6199
4.44146
4.27191
4.13103
4.01627
3.91027
3.80164
3.68869
3.57194
3.44494
3.32034
3.21789
3.1368
3.06089
2.9813
2.9009
2.82835
2.75681
2.6751
2.59333
2.52523
2.47046
2.4192
2.36277
2.29984
2.23147
2.1554
2.09413
2.0651
2.04185
2.00862
1.96574
1.91661
1.86437
1.81368
1.76894
1.73201
1.69889
1.66615
1.63254
1.59713
1.56077
1.52364
1.48493
1.44594
1.41742
1.40309
1.3917
1.38289
1.36204
1.33103
1.30091
1.29333
1.31026
1.40655
1.59957
1.83321
2.05636
2.18169
2.2106
2.21033
2.2005
2.17873
2.14918
2.13028
2.12009
2.10189
2.05526
2.01058
1.99157
1.97241
1.40001
1.40001
1.40002
1.40405
1.58953
2.65232
3.74251
3.87761
3.78238
3.81031
4.4095
5.52895
6.27323
6.33594
6.0315
5.77691
5.59026
5.40321
5.21362
5.04711
4.8918
4.72708
4.54789
4.36987
4.20708
4.06001
3.93425
3.82828
3.73041
3.62191
3.49368
3.36677
3.2548
3.15467
3.06525
2.98774
2.9207
2.84834
2.75989
2.67326
2.59796
2.53462
2.47973
2.42527
2.36789
2.30577
2.23469
2.16307
2.1104
2.07167
2.03145
1.99056
1.9481
1.90069
1.84876
1.79786
1.75536
1.7219
1.69283
1.66435
1.63439
1.60105
1.56447
1.52573
1.48615
1.44949
1.42392
1.40707
1.38705
1.35932
1.33286
1.31132
1.29003
1.28015
1.28125
1.28316
1.30654
1.39193
1.57331
1.80792
1.98077
2.1249
2.1746
2.17214
2.14288
2.10177
2.07014
2.0505
2.03274
2.00886
1.98532
1.97044
1.40001
1.40001
1.40001
1.40003
1.40663
1.63957
2.79195
3.58122
3.89458
5.05863
6.17912
6.52323
6.58545
6.39497
6.15242
5.9005
5.69906
5.49811
5.28208
5.09116
4.92038
4.75726
4.59484