/*--------------------------------*- C++ -*----------------------------------*\
  =========                 |
  \\      /  F ield         | OpenFOAM: The Open Source CFD Toolbox
   \\    /   O peration     | Website:  https://openfoam.org
    \\  /    A nd           | Version:  7
     \\/     M anipulation  |
\*---------------------------------------------------------------------------*/
FoamFile
{
    version     2.0;
    format      ascii;
    class       volScalarField;
    location    "3";
    object      T;
}
// * * * * * * * * * * * * * * * * * * * * * * * * * * * * * * * * * * * * * //

dimensions      [0 0 0 1 0 0 0];

internalField   nonuniform List<scalar> 
4048
(
1
1
1
1
1
1
1
1
1
1
1
1
1
1
1
1.07978
2.35618
2.73207
2.74621
2.76592
2.78416
2.80053
2.81278
2.82237
1
1
1
1
1
1
1
1
1
1
1
1
1
1
1
1.05054
2.32932
2.72698
2.74258
2.76158
2.77936
2.79492
2.80527
2.81107
1
1
1
1
1
1
1
1
1
1
1
1
1
1
1
1.00319
2.26437
2.71664
2.73472
2.75155
2.76587
2.77744
2.78876
2.80357
1
1
1
1
1
1
1
1
1
1
1
1
1
1
1
1.00003
2.16823
2.69762
2.72277
2.73802
2.74978
2.76205
2.78079
2.82599
1
1
1
1
1
1
1
1
1
1
1
1
1
1
1
1
2.0267
2.6635
2.70386
2.71882
2.72837
2.73259
2.71765
2.72151
1
1
1
1
1
1
1
1
1
1
1
1
1
1
1
1
1.82877
2.6003
2.67472
2.69841
2.70712
2.70182
2.68471
2.68818
1
1
1
1
1
1
1
1
1
1
1
1
1
1
1
1
1.53774
2.4845
2.63676
2.66963
2.68206
2.67503
2.65687
2.64793
1
1
1
1
1
1
1
1
1
1
1
1
1
1
1
1
1.1357
2.33314
2.61899
2.63566
2.64436
2.64086
2.63031
2.61985
1
1
1
1
1
1
1
1
1
1
1
1
1
1
1
1
1.00507
2.18015
2.56433
2.58701
2.59821
2.60146
2.60043
2.59494
1
1
1
1
1
1
1
1
1
1
1
1
1
1
1
1
0.999983
1.86473
2.50095
2.56304
2.5719
2.57172
2.57112
2.56764
1
1
1
1
1
1
1
1
1
1
1
1
1
1
1
1
0.999995
1.3718
2.35528
2.54122
2.54031
2.54082
2.53951
2.53516
1
1
1
1
1
1
1
1
1
1
1
1
1
1
1
1
0.999999
1.03716
2.16917
2.49769
2.50515
2.50848
2.50747
2.50268
1
1
1
1
1
1
1
1
1
1
1
1
1
1
1
1
1
1.0002
1.75594
2.40073
2.48419
2.4841
2.48138
2.47168
1
1
1
1
1
1
1
1
1
1
1
1
1
1
1
1
1
0.999999
1.16299
2.23212
2.46556
2.45927
2.45378
2.441
1
1
1
1
1
1
1
1
1
1
1
1
1
1
1
1
1
1
1.00601
1.9703
2.39341
2.43329
2.42402
2.40997
1
1
1
1
1
1
1
1
1
1
1
1
1
1
1
1
1
1
0.999995
1.3611
2.24308
2.41342
2.39466
2.38147
1
1
1
1
1
1
1
1
1
1
1
1
1
1
1
1
1
1
0.999998
1.03093
2.04162
2.37224
2.35938
2.35005
1
1
1
1
1
1
1
1
1
1
1
1
1
1
1
1
1
1
0.999999
1.00016
1.47895
2.22917
2.34138
2.32619
1
1
1
1
1
1
1
1
1
1
1
1
1
1
1
1
1
1
1
1
1.05826
2.01441
2.31733
2.30324
1
1
1
1
1
1
1
1
1
1
1
1
1
1
1
1
1
1
1
1
1.00068
1.43302
2.15591
2.2834
1
1
1
1
1
1
1
1
1
1
1
1
1
1
1
1
1
1
1
1
1
1.04758
1.90309
2.25691
1
1
1
1
1
1
1
1
1
1
1
1
1
1
1
1
1
1
1
1
1
1.00053
1.32868
2.07164
1
1
1
1
1
1
1
1
1
1
1
1
1
1
1
1
1
1
1
1
1
1
1.02537
1.69736
1
1
1
1
1
1
1
1
1
1
1
1
1
1
1
1
1
1
1
1
1
1
1.00024
1.17093
1
1
1
1
1
1
1
1
1
1
1
1
1
1
1
1
1
1
1
1
1
1
1
1.00664
1
1
1
1
1
1
1
1
1
1
1
1
1
1
1
1
1
1
1
1
1
1
1
1.00005
1
1
1
1
1
1
1
1
1
1
1
1
1
1
1
1
1
1
1
1
1
1
1
1
1
1
1
1
1
1
1
1
1
1
1
1
1
1
1
1
1
1
1
1
1
1
1
1
1
1
1
1
1
1
1
1
1
1
1
1
1
1
1
1
1
1
1
1
1
1
1
1
1
1
1
1
1
1
1
1
1
1
1
1
1
1
1
1
1
1
1
1
1
1
1
1
1
1
1
1
1
1
1
1
1
1
1
1
1
1
1
1
1
1
1
1
1
1
1
1
1
1
1
1
1
1
1
1
1
1
1
1
1
1
1
1
1
1
1
1
1
1
1
1
1
1
1
1
1
1
1
1
1
1
1
1
1
1
1
1
1
1
1
1
1
1
1
1
1
1
1
1
1
1
1
1
1
1
1
1
1
1
1
1
1
1
1
1
1
1
1
1
1
1
1
1
1
1
1
1
1
1
1
1
1
1
1
1
1
1
1
1
1
1
1
1
1
1
1
1
1
1
1
1
1
1
1
1
1
1
1
1
1
1
1
1
1
1
1
1
1
1
1
1
1
1
1
1
1
1
1
1
1
1
1
1
1
1
1
1
1
1
1
1
1
1
1
1
1
1
1
1
1
1
1
1
1
1
1
1
1
1
1
1
1
1
1
1
1
1
1
1
1
1
1
1
1
1
1
1
1
1
1
1
1
1
1
1
1
1
1
1
1
1
1
1
1
1
1
1
1
1
1
1
1
1
1
1
1
1
1
1
1
1
1
1
2.58784
2.71585
2.76769
2.79726
2.71268
2.7919
2.80178
2.8139
2.67221
2.73379
2.76544
2.79786
2.63311
2.67845
2.73645
2.83379
2.59828
2.61438
2.6183
2.57169
2.56055
2.54824
2.50887
2.40855
2.52218
2.49904
2.439
2.32783
2.48705
2.45776
2.39225
2.29006
2.45378
2.42022
2.36101
2.27635
2.4192
2.38707
2.33571
2.26446
2.38883
2.35792
2.31282
2.25274
2.36215
2.3327
2.2918
2.24074
2.33405
2.30788
2.27137
2.22767
2.30879
2.28458
2.253
2.21564
2.28467
2.26141
2.23386
2.20136
2.26322
2.24241
2.21701
2.18732
2.24366
2.22344
2.19852
2.17145
2.22412
2.2003
2.17959
2.15627
2.1493
2.18339
2.16536
2.14434
1.92261
2.16255
2.1461
2.12747
1.42731
2.00905
2.1275
2.10686
1.05069
1.67798
2.0457
2.09649
1.00085
1.17847
1.81307
2.06279
1
1.00776
1.34237
1.88893
1
1.00006
1.03293
1.49663
1
1
1.0005
1.08625
1
1
1
1.00234
1
1
1
1.00001
1
1
1
1
1
1
1
1
1
1
1
1
1
1
1
1
1
1
1
1
1
1
1
1
1
1
1
1
1
1
1
1
1.88428
1.50703
1.33326
1.35592
1.44151
1.49823
1.57758
1.69448
1.7396
1.73664
1.7214
1.72285
1.73739
1.75618
1.75713
1.74918
1.7426
1.7426
1.74347
1.74088
1.73107
1.71656
1.71021
1.70954
1.71099
1.71654
1.72115
1.72044
1.71707
1.71423
1.71081
1.7074
1.70465
1.70244
1.70149
1.70126
1.69974
2.25753
2.84542
2.81575
2.78431
2.76261
2.74166
2.72133
2.69911
2.67086
2.64124
2.61411
2.5909
2.56916
2.54794
2.52822
2.50985
2.49297
2.47677
2.46049
2.44419
2.42841
2.40643
2.38493
2.36627
2.34712
2.32802
2.31545
2.30506
2.29427
2.28912
2.28848
2.27843
2.26047
2.24424
2.22102
2.19328
2.17885
2.17107
2.16418
2.16124
2.16108
2.15269
2.13961
2.1243
2.09964
2.07172
2.05849
2.05079
2.04375
2.03972
2.03939
2.03316
2.02306
2.01343
1.99033
2.04012
1.85425
1.67134
1.56834
1.54132
1.5107
1.51335
1.52622
1.54066
1.5556
1.57629
1.60513
1.63756
1.66216
1.67329
1.6782
1.68141
1.68511
1.69089
1.69163
1.68881
1.68362
1.6828
1.68256
1.68407
1.68955
1.69409
1.69359
1.69154
1.68926
1.68695
1.68495
1.68282
1.68101
1.67909
1.67765
1.69157
2.11716
2.73073
2.73895
2.71031
2.69282
2.68054
2.66565
2.64668
2.61795
2.59
2.56692
2.54956
2.53658
2.52151
2.50407
2.48649
2.46729
2.44859
2.43048
2.41377
2.40012
2.38671
2.36996
2.35551
2.34239
2.32631
2.30686
2.29327
2.28256
2.27439
2.26846
2.25599
2.24228
2.22884
2.21326
2.19616
2.17865
2.16636
2.15892
2.15387
2.14907
2.13922
2.12725
2.11392
2.09603
2.074
2.05652
2.04728
2.04039
2.03527
2.03122
2.02422
2.01541
2.00665
1.98794
2.08851
1.92043
1.78598
1.67135
1.59226
1.52807
1.46819
1.44183
1.42997
1.43971
1.46761
1.49612
1.52573
1.54508
1.5591
1.57546
1.58861
1.60066
1.61638
1.6272
1.6266
1.62324
1.6228
1.62344
1.62404
1.62609
1.62864
1.62957
1.62952
1.62874
1.62877
1.62954
1.63123
1.63213
1.63372
1.65474
1.75288
1.98414
2.42254
2.55941
2.58975
2.57073
2.55774
2.55335
2.5421
2.52347
2.50075
2.48184
2.46525
2.45372
2.4453
2.434
2.42313
2.41176
2.39567
2.37508
2.35729
2.34201
2.32962
2.31968
2.30978
2.301
2.29279
2.28079
2.2639
2.25141
2.24078
2.22835
2.21548
2.20212
2.18891
2.17971
2.1718
2.16355
2.1523
2.13962
2.1295
2.12024
2.11013
2.09863
2.08543
2.07276
2.06096
2.04805
2.03508
2.02647
2.01917
2.01181
2.00342
1.9941
1.98473
1.97043
2.12306
1.98239
1.85709
1.75986
1.67389
1.5985
1.53069
1.49717
1.46267
1.42574
1.42493
1.42834
1.43148
1.43921
1.45543
1.47734
1.49622
1.51072
1.52551
1.54234
1.55172
1.5563
1.56443
1.56771
1.5674
1.5659
1.56565
1.56457
1.56385
1.56299
1.56298
1.56347
1.56496
1.5691
1.58698
1.69442
1.91729
1.99078
2.0917
2.28
2.40479
2.43744
2.44973
2.43908
2.42291
2.41175
2.39845
2.38305
2.3716
2.36027
2.35154
2.34298
2.33503
2.3283
2.31918
2.30476
2.28735
2.27479
2.26502
2.25609
2.2482
2.24029
2.23362
2.22669
2.21534
2.19902
2.18609
2.17602
2.16455
2.15272
2.14305
2.13595
2.13071
2.12521
2.11772
2.10531
2.09022
2.07845
2.06773
2.05581
2.04476
2.03758
2.0316
2.02466
2.01454
2.00072
1.989
1.98008
1.97095
1.96039
1.95073
1.93968
2.15332
2.0377
1.92128
1.83114
1.75076
1.66621
1.59849
1.55297
1.5083
1.46088
1.43355
1.4205
1.40216
1.40357
1.41097
1.42326
1.43756
1.44971
1.46126
1.47733
1.49076
1.50233
1.51333
1.52408
1.52859
1.52953
1.52951
1.52851
1.5259
1.5226
1.51985
1.51858
1.52159
1.53554
1.62749
1.84821
2.00297
1.99627
1.98561
2.03544
2.18078
2.29525
2.34997
2.36963
2.36484
2.35125
2.33746
2.32046
2.30591
2.29622
2.28894
2.28122
2.27286
2.2659
2.25896
2.24949
2.23552
2.21882
2.20768
2.20033
2.19343
2.18702
2.18032
2.17383
2.16493
2.14874
2.12835
2.11613
2.10845
2.10166
2.09673
2.09378
2.08927
2.08325
2.07614
2.06386
2.0437
2.02671
2.0166
2.00915
2.00401
2.00001
1.99667
1.99181
1.9848
1.97251
1.95458
1.93981
1.92918
1.91933
1.91297
1.90453
2.16883
2.07304
1.97641
1.88899
1.81315
1.73329
1.66765
1.6187
1.57083
1.5232
1.4865
1.46071
1.43142
1.4114
1.41186
1.40835
1.40156
1.40284
1.41035
1.42716
1.4475
1.46434
1.47549
1.48773
1.49489
1.49654
1.49988
1.50323
1.50669
1.50623
1.50435
1.50419
1.5162
1.59462
1.8067
1.96358
1.98959
1.98656
1.9755
1.96319
1.9966
2.11208
2.23867
2.29637
2.32395
2.32848
2.31234
2.29459
2.27564
2.26005
2.24967
2.24157
2.23421
2.22762
2.22099
2.21401
2.20467
2.18948
2.17033
2.15915
2.15205
2.14587
2.14018
2.13325
2.12516
2.11372
2.09533
2.07729
2.0693
2.06392
2.05968
2.0572
2.05243
2.04584
2.03863
2.02701
2.00621
1.98423
1.97503
1.97115
1.96786
1.96556
1.96347
1.95904
1.95307
1.9431
1.92375
1.90227
1.89035
1.88336
1.87931
1.8718
2.17692
2.09576
2.01425
1.93871
1.86581
1.79079
1.72998
1.67876
1.62948
1.58118
1.54556
1.50945
1.47219
1.436
1.41885
1.40488
1.39155
1.39154
1.3953
1.40139
1.41231
1.42615
1.43844
1.45126
1.46239
1.4706
1.47688
1.48203
1.48786
1.48949
1.49155
1.5028
1.61092
1.7981
1.94688
1.98413
1.9867
1.9832
1.9742
1.96329
1.94316
1.95739
2.04838
2.17173
2.26308
2.29481
2.29891
2.28581
2.26864
2.24907
2.22853
2.21601
2.20906
2.20326
2.19802
2.19194
2.18464
2.17385
2.15408
2.13307
2.12387
2.11771
2.11168
2.1044
2.0966
2.0883
2.07707
2.06023
2.04535
2.03834
2.03264
2.02791
2.02225
2.01502
2.0067
1.99576
1.98025
1.9615
1.94958
1.94507
1.94167
1.93862
1.93514
1.93023
1.92408
1.91424
1.89611
1.87357
1.8617
1.85611
1.85236
1.84459
2.17627
2.10654
2.03915
1.9732
1.9038
1.83694
1.78356
1.72996
1.67944
1.63163
1.59825
1.55966
1.52253
1.48793
1.4625
1.44007
1.41535
1.406
1.40432
1.40032
1.3955
1.39659
1.39999
1.40721
1.41944
1.43586
1.44905
1.45986
1.47028
1.47185
1.48343
1.5821
1.82271
1.94606
1.984
1.98098
1.97556
1.96955
1.9633
1.95474
1.94205
1.91619
1.91786
1.97136
2.09641
2.20233
2.25739
2.26822
2.26267
2.24672
2.22323
2.19842
2.18421
2.17649
2.17306
2.17282
2.16701
2.15912
2.14602
2.12262
2.10114
2.0907
2.08342
2.0786
2.07539
2.06905
2.06193
2.05178
2.0349
2.01906
2.01132
2.00499
1.99782
1.98966
1.98078
1.97181
1.96252
1.951
1.9364
1.92612
1.92117
1.91661
1.9118
1.90642
1.89907
1.88875
1.87482
1.85762
1.84287
1.83547
1.83174
1.82428
2.17238
2.11281
2.05589
1.99709
1.93255
1.87635
1.825
1.77404
1.72047
1.67985
1.64356
1.60499
1.56554
1.535
1.50924
1.48086
1.45286
1.43278
1.42004
1.40492
1.39309
1.39048
1.38923
1.38836
1.38954
1.3971
1.41013
1.42675
1.44148
1.45814
1.54983
1.80082
1.93958
1.98313
1.98327
1.97003
1.96091
1.95641
1.95078
1.94332
1.93113
1.91163
1.88467
1.87091
1.90124
2.00343
2.1265
2.20473
2.23223
2.233
2.21644
2.18915
2.16288
2.15254
2.14764
2.14708
2.14563
2.13955
2.13112
2.11535
2.08946
2.07011
2.06212
2.0565
2.05352
2.05085
2.04519
2.03848
2.02811
2.0105
1.99165
1.98049
1.97388
1.96767
1.96109
1.95492
1.94904
1.94122
1.92773
1.91173
1.90318
1.89726
1.89044
1.88235
1.8737
1.86531
1.85727
1.84797
1.83532
1.82247
1.81703
1.80919
2.16721
2.11564
2.06616
2.0122
1.95371
1.9055
1.85714
1.80812
1.75676
1.72034
1.68131
1.64426
1.60561
1.57756
1.55013
1.52111
1.49227
1.47188
1.45289
1.43237
1.40972
1.40085
1.39561
1.38663
1.38262
1.38197
1.38468
1.3923
1.40714
1.50976
1.73834
1.9274
1.95351
1.96359
1.96119
1.94834
1.94047
1.93654
1.93401
1.92522
1.91198
1.89538
1.87478
1.85203
1.8348
1.84401
1.91446
2.03905
2.13724
2.18341
2.18776
2.17802
2.15296
2.13022
2.12185
2.11741
2.11568
2.11226
2.10609
2.09712
2.0821
2.06033
2.04319
2.03526
2.02993
2.02651
2.02398
2.01926
2.01288
2.00134
1.97971
1.96117
1.95287
1.94717
1.94264
1.93955
1.93476
1.9284
1.91823
1.90043
1.88381
1.87565
1.86952
1.86252
1.85506
1.84866
1.84312
1.83705
1.82818
1.81464
1.8062
1.79767
2.1589
2.11403
2.07011
2.02046
1.97022
1.9271
1.88252
1.83268
1.78933
1.75441
1.71574
1.67739
1.64019
1.61497
1.58542
1.55721
1.52855
1.50812
1.4854
1.46096
1.43491
1.41949
1.40583
1.3918
1.38085
1.37736
1.379
1.38866
1.4705
1.69443
1.87419
1.92287
1.92627
1.92253
1.91702
1.91567
1.9118
1.90666
1.90531
1.89985
1.88653
1.87283
1.85885
1.8415
1.82134
1.80581
1.8034
1.84062
1.94005
2.04952
2.11637
2.13915
2.13747
2.11816
2.09897
2.08734
2.08135
2.07818
2.0748
2.06983
2.06284
2.05098
2.0318
2.01364
2.00515
2.0003
1.99761
1.99501
1.9904
1.98346
1.97041
1.94928
1.93325
1.92724
1.92336
1.92095
1.91772
1.91227
1.90432
1.88905
1.86785
1.8553
1.84907
1.8439
1.83926
1.83487
1.83026
1.82518
1.81874
1.80787
1.79362
1.77761
2.14944
2.10994
2.07077
2.0258
1.98207
1.94271
1.90151
1.85297
1.81707
1.7814
1.74489
1.70369
1.67328
1.64687
1.61629
1.58661
1.55976
1.5409
1.51681
1.49236
1.46748
1.44995
1.43199
1.41572
1.39849
1.38856
1.39428
1.45912
1.67206
1.8511
1.89652
1.88992
1.8787
1.86796
1.8655
1.86721
1.86867
1.86964
1.86559
1.86074
1.85494
1.84553
1.83547
1.8265
1.81425
1.79683
1.77693
1.76397
1.77688
1.8402
1.94673
2.04128
2.08362
2.09315
2.08619
2.06617
2.04916
2.04214
2.03883
2.03905
2.03637
2.02983
2.0191
2.00067
1.98206
1.97376
1.96929
1.96603
1.96266
1.95827
1.95146
1.93915
1.92129
1.90764
1.90181
1.89777
1.89413
1.88999
1.88383
1.87334
1.85639
1.83849
1.8299
1.82599
1.8223
1.8192
1.81602
1.81145
1.80634
1.7974
1.78099
1.7598
2.1387
2.10336
2.06822
2.02906
1.98985
1.95431
1.91441
1.86996
1.83731
1.80385
1.76808
1.72696
1.70175
1.67298
1.64397
1.61129
1.58879
1.56898
1.54416
1.51923
1.49683
1.47907
1.46133
1.4403
1.4213
1.41304
1.46834
1.67658
1.8573
1.89553
1.8864
1.86992
1.85707
1.84607
1.83205
1.8216
1.81136
1.81098
1.81059
1.80788
1.80614
1.80465
1.80397
1.80162
1.79236
1.77996
1.76456
1.74438
1.73079
1.73056
1.76146
1.85115
1.95357
2.02236
2.04552
2.04547
2.02796
2.01062
2.00621
2.00474
2.00563
2.00225
1.99605
1.98584
1.96781
1.95019
1.94213
1.93743
1.93353
1.93006
1.92614
1.92029
1.91018
1.89473
1.88056
1.87348
1.86891
1.8639
1.85807
1.85115
1.84156
1.82801
1.81387
1.80732
1.80414
1.80107
1.79847
1.79471
1.79047
1.7836
1.76911
1.74324
2.1283
2.09693
2.06485
2.03041
1.99428
1.96095
1.92406
1.88491
1.85216
1.82206
1.78416
1.74815
1.72422
1.69662
1.6675
1.63352
1.61483
1.59288
1.56876
1.54341
1.5226
1.50605
1.48557
1.46453
1.45764
1.50888
1.70981
1.88632
1.91418
1.89997
1.879
1.85998
1.84682
1.83399
1.81792
1.80189
1.78992
1.77603
1.76425
1.75638
1.75348
1.7534
1.75585
1.75812
1.75848
1.75209
1.74109
1.73029
1.71268
1.69902
1.69385
1.70606
1.76275
1.85782
1.94192
1.98882
1.99404
1.98639
1.97673
1.97297
1.97324
1.97234
1.96772
1.9622
1.95132
1.93366
1.91847
1.91027
1.90505
1.90152
1.89861
1.8951
1.88983
1.88065
1.86565
1.85074
1.84282
1.83769
1.83247
1.827
1.82135
1.81455
1.80388
1.79022
1.78347
1.78027
1.77764
1.77566
1.7722
1.76589
1.75437
1.73078
2.11906
2.09107
2.06105
2.02839
1.99586
1.965
1.93074
1.89475
1.8643
1.83517
1.79888
1.76635
1.74193
1.71669
1.68545
1.65543
1.63731
1.61399
1.59061
1.56341
1.54552
1.52687
1.50726
1.4967
1.54838
1.75411
1.93422
1.94824
1.92897
1.90333
1.88249
1.8644
1.84622
1.82727
1.80683
1.78508
1.768
1.75621
1.74737
1.73488
1.71943
1.70656
1.69951
1.69962
1.70153
1.70435
1.70508
1.70218
1.6924
1.68108
1.66845
1.66007
1.66139
1.68511
1.75123
1.84505
1.9116
1.94134
1.94522
1.94429
1.94518
1.94247
1.9381
1.93346
1.92654
1.91494
1.89891
1.88557
1.87808
1.87369
1.87103
1.86815
1.86443
1.85931
1.84975
1.83259
1.81786
1.8118
1.80771
1.8036
1.79935
1.79532
1.79009
1.78006
1.76569
1.75768
1.75339
1.74852
1.74356
1.73835
1.73293
1.72066
2.10558
2.08091
2.05379
2.02414
1.99507
1.96556
1.93381
1.9025
1.87483
1.84509
1.81103
1.7817
1.75805
1.73305
1.70068
1.67464
1.6552
1.63368
1.60895
1.58338
1.56388
1.5448
1.5368
1.59018
1.79938
1.98444
1.98851
1.96541
1.9379
1.91346
1.89087
1.86872
1.84625
1.82411
1.80165
1.77922
1.75985
1.74568
1.73366
1.72219
1.709
1.68775
1.66691
1.65654
1.65173
1.65164
1.65434
1.65846
1.65733
1.65266
1.64178
1.62879
1.61995
1.61551
1.62319
1.66135
1.73904
1.82139
1.88225
1.89712
1.90368
1.90966
1.90661
1.90369
1.89915
1.89032
1.87804
1.86392
1.8533
1.84704
1.84427
1.84203
1.83913
1.8354
1.82898
1.81452
1.79544
1.78771
1.78414
1.78015
1.77611
1.77285
1.76996
1.76448
1.75117
1.73665
1.72961
1.7244
1.71942
1.71434
1.7114
1.70593
2.08632
2.0656
2.04272
2.01836
1.99253
1.96518
1.93569
1.90865
1.88186
1.85307
1.82111
1.79555
1.77124
1.74491
1.71428
1.69071
1.67156
1.64979
1.62438
1.59923
1.57936
1.57152
1.62857
1.83827
2.03038
2.02947
2.00198
1.97187
1.94554
1.92199
1.89812
1.87458
1.85161
1.82916
1.80603
1.78242
1.76118
1.74309
1.72704
1.71246
1.69782
1.67978
1.65662
1.63767
1.62484
1.61711
1.61326
1.61299
1.61096
1.60664
1.5987
1.59104
1.58345
1.57534
1.57155
1.5736
1.5932
1.64252
1.72555
1.79679
1.84142
1.86056
1.8679
1.87484
1.8709
1.86281
1.85324
1.84105
1.83011
1.82282
1.81814
1.81605
1.8137
1.8103
1.80474
1.7934
1.77582
1.76518
1.7606
1.75636
1.7524
1.74935
1.74702
1.74369
1.73522
1.72034
1.70884
1.70248
1.69756
1.69425
1.69282
1.68853
2.07663
2.0542
2.03327
2.01168
1.9885
1.96352
1.93711
1.91114
1.88586
1.85882
1.82993
1.80672
1.78132
1.75554
1.7267
1.70631
1.68537
1.6639
1.63768
1.61258
1.60766
1.67202
1.88377
2.06605
2.06667
2.04025
2.00654
1.97778
1.95294
1.92854
1.90434
1.88088
1.85787
1.83402
1.80851
1.78284
1.76043
1.74146
1.72432
1.70784
1.69141
1.67402
1.65309
1.62904
1.60959
1.59754
1.58847
1.57957
1.57404
1.57045
1.56122
1.54848
1.53911
1.5329
1.53186
1.5295
1.5299
1.53889
1.56524
1.61871
1.69132
1.76059
1.79712
1.82067
1.83588
1.83669
1.83119
1.81852
1.80711
1.79926
1.79379
1.79076
1.78811
1.78343
1.77656
1.76793
1.75682
1.74585
1.73835
1.73329
1.72918
1.7257
1.72282
1.71982
1.71448
1.70314
1.6899
1.6831
1.68001
1.67787
1.67599
1.67089
2.06098
2.04182
2.02243
2.00249
1.98025
1.95815
1.9354
1.91006
1.88669
1.86033
1.83572
1.81254
1.78992
1.76334
1.7382
1.71873
1.69722
1.67349
1.64669
1.6422
1.7186
1.93822
2.10538
2.1026
2.07428
2.03969
2.0087
1.9816
1.95681
1.93345
1.91072
1.88798
1.86407
1.83745
1.80851
1.78175
1.76045
1.74258
1.72609
1.70995
1.693
1.67374
1.65065
1.62489
1.60275
1.58672
1.573
1.56007
1.54936
1.5394
1.53143
1.52539
1.51281
1.49767
1.49074
1.48914
1.48644
1.48708
1.48939
1.49722
1.52005
1.58137
1.66241
1.72341
1.77739
1.79502
1.79571
1.79255
1.78598
1.77893
1.7722
1.76659
1.76198
1.75581
1.74854
1.74162
1.7347
1.72625
1.71764
1.71155
1.70722
1.70364
1.70106
1.6983
1.69329
1.68275
1.66905
1.66412
1.66187
1.65971
1.65838
1.65407
2.0364
2.02637
2.00773
1.98924
1.9694
1.95098
1.93012
1.90727
1.88478
1.86385
1.83936
1.81632
1.79483
1.76933
1.7486
1.72852
1.70572
1.67824
1.67733
1.76359
1.98791
2.14352
2.14121
2.11066
2.07451
2.04073
2.00967
1.98293
1.95864
1.9358
1.91347
1.89085
1.86733
1.84132
1.81137
1.78206
1.75957
1.74117
1.72383
1.70685
1.68981
1.67153
1.65021
1.62552
1.60093
1.58105
1.56497
1.55077
1.53721
1.52361
1.51043
1.4991
1.48969
1.47716
1.46661
1.45891
1.45247
1.44921
1.44749
1.44593
1.44456
1.45217
1.48672
1.55458
1.64767
1.71709
1.7411
1.75783
1.76544
1.76315
1.75248
1.74205
1.73558
1.72886
1.72284
1.71856
1.71423
1.70729
1.69754
1.68938
1.68696
1.68601
1.68459
1.68244
1.67732
1.66621
1.65152
1.64681
1.64574
1.64574
1.64492
1.64002
1.92081
2.01098
1.99657
1.97494
1.95692
1.94081
1.92306
1.90193
1.88257
1.86265
1.83962
1.81913
1.79868
1.77568
1.75513
1.73316
1.70933
1.71121
1.81044
2.03914
2.16689
2.16368
2.13408
2.10369
2.07555
2.04494
2.01183
1.98216
1.95795
1.93516
1.91274
1.89037
1.86722
1.8422
1.81441
1.78478
1.75824
1.73675
1.71785
1.69984
1.68211
1.6644
1.64605
1.62564
1.60354
1.58237
1.56379
1.54776
1.53297
1.51805
1.50343
1.48945
1.47451
1.45942
1.44749
1.43676
1.42913
1.42554
1.42265
1.41882
1.4135
1.40616
1.40443
1.41552
1.4622
1.55262
1.63159
1.68979
1.72866
1.73325
1.72863
1.72397
1.71735
1.71067
1.70555
1.69983
1.69456
1.6899
1.68346
1.67539
1.66843
1.66208
1.65778
1.65595
1.65507
1.65041
1.64294
1.63461
1.62726
1.62122
1.61844
1.61342
1.61998
1.92805
1.98628
1.96683
1.94562
1.9295
1.91285
1.89396
1.87794
1.85897
1.8386
1.81839
1.79879
1.77944
1.7576
1.73635
1.74434
1.86953
2.096
2.19995
2.19266
2.15886
2.12746
2.10235
2.07701
2.04809
2.01361
1.98013
1.9528
1.92866
1.90602
1.88403
1.86196
1.83922
1.81469
1.78723
1.7584
1.73233
1.71026
1.69048
1.67188
1.6542
1.63716
1.61964
1.60041
1.57981
1.56049
1.54449
1.53056
1.51697
1.50317
1.48838
1.47233
1.45666
1.44125
1.42608
1.41409
1.40726
1.40313
1.3992
1.39449
1.38884
1.37968
1.36963
1.37156
1.39094
1.45042
1.53402
1.62676
1.66634
1.69261
1.69997
1.70523
1.70535
1.69986
1.69096
1.68256
1.67512
1.66637
1.65703
1.64846
1.64192
1.63787
1.63509
1.63268
1.63322
1.63175
1.62308
1.61058
1.60132
1.59747
1.59129
1.16687
1.69904
1.92431
1.95911
1.94125
1.92119
1.90152
1.88606
1.87035
1.85286
1.83364
1.81648
1.79878
1.77814
1.75777
1.77244
1.92213
2.17165
2.23737
2.21134
2.17649
2.14704
2.12219
2.09913
2.07232
2.04338
2.01107
1.97596
1.94442
1.91789
1.89397
1.87141
1.84961
1.82791
1.80521
1.78058
1.75408
1.72788
1.70445
1.68403
1.66554
1.64807
1.63128
1.61479
1.59755
1.5787
1.55923
1.54149
1.52647
1.5135
1.50128
1.48834
1.47416
1.45836
1.44059
1.42382
1.41142
1.40175
1.39354
1.38622
1.38011
1.37412
1.36629
1.35828
1.35066
1.34556
1.34924
1.37038
1.43468
1.52116
1.59936
1.63963
1.66484
1.68224
1.68741
1.68379
1.67645
1.66629
1.65509
1.64406
1.63449
1.62987
1.62698
1.62303
1.61705
1.60839
1.60381
1.60362
1.59893
1.59049
1.58299
1.57355
1.00776
1.25749
1.7392
1.91298
1.93388
1.9167
1.89264
1.87765
1.86213
1.84568
1.82819
1.81148
1.79517
1.77853
1.80155
1.96766
2.19701
2.29053
2.26295
2.21041
2.16311
2.13158
2.10772
2.08436
2.05801
2.03004
2.00045
1.9687
1.93671
1.90713
1.88091
1.85733
1.83542
1.81421
1.79285
1.77085
1.74795
1.72443
1.70147
1.68059
1.66195
1.64471
1.62812
1.61189
1.5954
1.57773
1.55941
1.54207
1.52643
1.5124
1.49964
1.48749
1.47518
1.46142
1.44564
1.42902
1.41355
1.40056
1.39038
1.38255
1.37598
1.36822
1.36017
1.35121
1.3428
1.33679
1.33167
1.32669
1.33117
1.35595
1.41117
1.50527
1.58121
1.63535
1.66414
1.66405
1.65876
1.64617
1.62955
1.62417
1.62438
1.6253
1.62306
1.61712
1.60791
1.59638
1.58506
1.57467
1.57279
1.57317
1.57124
1.5633
1.00007
1.01921
1.33442
1.75845
1.90452
1.90604
1.887
1.86952
1.85477
1.83883
1.82096
1.80654
1.79671
1.83575
2.04132
2.22804
2.27604
2.26935
2.23518
2.19931
2.15942
2.12012
2.08865
2.06232
2.03708
2.01088
1.98379
1.95635
1.92807
1.89887
1.87088
1.84569
1.82313
1.80254
1.78319
1.76396
1.74391
1.72272
1.70102
1.68023
1.66116
1.64361
1.62671
1.6097
1.5928
1.57634
1.55964
1.54284
1.5282
1.5146
1.50148
1.48875
1.47625
1.4638
1.4507
1.43617
1.42138
1.40848
1.39701
1.38637
1.37634
1.36674
1.3586
1.35029
1.33992
1.33077
1.32608
1.32182
1.31766
1.31153
1.31455
1.33883
1.40588
1.49291
1.57068
1.63345
1.64271
1.64049
1.62605
1.60941
1.60274
1.60155
1.60505
1.6091
1.6048
1.59519
1.57935
1.56416
1.55398
1.55067
1.54908
1.54444
1
1.00026
1.03648
1.39431
1.77535
1.88408
1.88085
1.86496
1.84697
1.82914
1.8131
1.81255
1.87636
2.10194
2.28693
2.30036
2.27139
2.23224
2.20489
2.17851
2.14651
2.11011
2.07436
2.0444
2.01876
1.99394
1.96902
1.94465
1.92037
1.89454
1.86686
1.84076
1.81754
1.79664
1.7779
1.76072
1.74314
1.72329
1.70179
1.68081
1.66161
1.64383
1.6269
1.61058
1.59444
1.57815
1.56388
1.55186
1.53777
1.52222
1.50761
1.49535
1.4836
1.4705
1.45556
1.43964
1.4246
1.41198
1.4011
1.39104
1.38193
1.37437
1.36686
1.35543
1.33939
1.32592
1.3213
1.31872
1.31501
1.3091
1.30294
1.29014
1.2921
1.3213
1.39101
1.49313
1.55977
1.60472
1.61762
1.61172
1.60009
1.59598
1.59291
1.59193
1.59061
1.58759
1.58046
1.56494
1.54887
1.53842
1.53439
1.52952
1
1
1.00067
1.05772
1.44388
1.77628
1.86315
1.86032
1.84229
1.81952
1.82447
1.9206
2.15004
2.30812
2.30351
2.27869
2.24678
2.21297
2.185
2.15939
2.13166
2.10123
2.06811
2.03628
2.00986
1.9873
1.96438
1.94001
1.91634
1.89331
1.86801
1.84139
1.81851
1.79998
1.78239
1.76396
1.74594
1.73004
1.71298
1.69182
1.66975
1.65073
1.6354
1.62163
1.60697
1.59063
1.5724
1.55124
1.5337
1.52579
1.52
1.51135
1.49951
1.48516
1.46932
1.45358
1.43932
1.42721
1.41614
1.40507
1.39375
1.38196
1.36986
1.35731
1.34416
1.33101
1.32177
1.31763
1.31421
1.31084
1.30248
1.2885
1.27408
1.26633
1.27242
1.31305
1.38898
1.47071
1.54366
1.5838
1.59378
1.59465
1.59181
1.58547
1.57681
1.57156
1.56909
1.56353
1.54902
1.53442
1.52813
1.5209
1
1
1
1.00141
1.08117
1.47483
1.77265
1.84525
1.83518
1.84751
1.98511
2.19297
2.31886
2.33692
2.2931
2.25761
2.23171
2.20453
2.1763
2.15128
2.12711
2.10043
2.07058
2.04073
2.01326
1.98798
1.96553
1.94555
1.9263
1.90457
1.87899
1.85304
1.82947
1.80762
1.78748
1.77011
1.75585
1.74078
1.72121
1.69908
1.67796
1.6594
1.64305
1.62757
1.61213
1.59588
1.57673
1.55685
1.54245
1.53165
1.51969
1.50808
1.49616
1.48243
1.46681
1.45125
1.43836
1.42821
1.41903
1.4096
1.39927
1.38777
1.37538
1.36237
1.34896
1.33623
1.32727
1.32149
1.31451
1.30428
1.29339
1.28284
1.27152
1.26433
1.26047
1.25557
1.26364
1.30032
1.37506
1.46292
1.52325
1.57253
1.58543
1.58422
1.57514
1.56319
1.55398
1.54827
1.54233
1.53405
1.5259
1.51972
1
1
1
1.00001
1.00239
1.10323
1.50705
1.74184
1.82545
2.06747
2.26835
2.33344
2.36791
2.3475
2.31622
2.28315
2.25593
2.22779
2.19707
2.16974
2.14457
2.11969
2.09485
2.06853
2.04179
2.01661
1.9927
1.96859
1.94269
1.91996
1.90131
1.8799
1.85535
1.83137
1.8095
1.78868
1.7677
1.74908
1.73275
1.71451
1.69401
1.67394
1.65485
1.63705
1.62023
1.60434
1.58862
1.57172
1.55493
1.5386
1.52413
1.51128
1.499
1.48601
1.47074
1.45417
1.44044
1.43061
1.42232
1.4144
1.40615
1.39687
1.38569
1.37384
1.36263
1.35158
1.34043
1.32874
1.31758
1.30475
1.28907
1.2798
1.27463
1.26861
1.26025
1.25079
1.24338
1.23525
1.24311
1.28924
1.36701
1.45199
1.5181
1.56301
1.56773
1.56486
1.55384
1.5355
1.52301
1.52013
1.52137
1.52952
1
1
1
1
1.00001
1.00418
1.12386
1.45882
2.05374
2.40775
2.47415
2.44905
2.43179
2.4082
2.37548
2.33955
2.30514
2.27674
2.24755
2.21823
2.18995
2.16096
2.13092
2.10146
2.07406
2.04872
2.02453
1.99961
1.97397
1.94682
1.91728
1.88912
1.8639
1.84221
1.82358
1.80559
1.78622
1.76287
1.73565
1.71079
1.69017
1.67262
1.65699
1.64147
1.62514
1.60711
1.58717
1.56762
1.55042
1.53688
1.52617
1.51571
1.50388
1.49157
1.47761
1.46166
1.44617
1.43342
1.42294
1.41352
1.4035
1.39281
1.38218
1.37065
1.35949
1.34886
1.33844
1.32844
1.31759
1.30406
1.29188
1.28257
1.27338
1.26435
1.25599
1.24713
1.23804
1.22883
1.21141
1.20669
1.22188
1.27833
1.36544
1.45326
1.51822
1.54822
1.54901
1.53881
1.52304
1.52435
1.53207
1.60077
1
1
1
1
1
1.00004
1.00441
1.40645
2.5284
2.67177
2.61941
2.55901
2.51683
2.48301
2.44333
2.39913
2.35972
2.32959
2.29933
2.26698
2.23519
2.20221
2.16856
2.13726
2.10914
2.08247
2.05544
2.02722
1.99765
1.96624
1.93386
1.90381
1.87877
1.85822
1.83906
1.81869
1.79584
1.77013
1.74308
1.7181
1.69664
1.67862
1.66255
1.6467
1.63016
1.61193
1.59177
1.57147
1.55372
1.53928
1.52745
1.51924
1.51263
1.50268
1.4891
1.47077
1.45004
1.43323
1.42272
1.4143
1.40506
1.39399
1.38371
1.37564
1.3655
1.35414
1.34164
1.32923
1.32061
1.31375
1.30433
1.29201
1.27946
1.2682
1.25805
1.24826
1.23825
1.22661
1.21045
1.19308
1.19092
1.19542
1.22201
1.29077
1.38635
1.46287
1.51142
1.54577
1.58281
1.62374
1.65572
1.73926
1
1
1
1
1
1
1.00004
1.76235
2.76861
2.72474
2.68397
2.64822
2.59672
2.55139
2.50046
2.44917
2.40248
2.36553
2.33008
2.29364
2.25748
2.22021
2.18376
2.152
2.12404
2.09685
2.06886
2.03929
2.0073
1.97298
1.93934
1.91081
1.88766
1.86678
1.84608
1.82465
1.80148
1.77571
1.74782
1.72141
1.6999
1.68216
1.66577
1.64943
1.63234
1.61407
1.59457
1.57462
1.55701
1.54348
1.53242
1.52064
1.50694
1.49382
1.4813
1.46938
1.45589
1.43954
1.42237
1.4097
1.40166
1.39494
1.38651
1.37233
1.35577
1.34288
1.33433
1.32772
1.32039
1.30899
1.29516
1.28166
1.27004
1.25961
1.24964
1.23981
1.22973
1.21913
1.20796
1.19522
1.18281
1.18192
1.1831
1.19221
1.2372
1.32925
1.45244
1.58262
1.68118
1.75359
1.82438
1.89332
)
;

boundaryField
{
    inlet
    {
        type            fixedValue;
        value           uniform 1;
    }
    outlet
    {
        type            inletOutlet;
        inletValue      uniform 1;
        value           nonuniform List<scalar> 
32
(
1.98764
1.9864
1.9703
1.94039
1.90546
1.87275
1.84551
1.82539
1.81016
1.79803
1.77729
1.7588
1.74119
1.72844
1.72004
1.70674
1.6894
1.67143
1.65474
1.64053
1.614
1.59124
1.57323
1.56284
1.54526
1.53048
1.52129
1.52007
1.53039
1.60256
1.73938
1.89307
)
;
    }
    bottom
    {
        type            zeroGradient;
    }
    top
    {
        type            zeroGradient;
    }
    obstacle
    {
        type            zeroGradient;
    }
    defaultFaces
    {
        type            empty;
    }
}


// ************************************************************************* //
