/*--------------------------------*- C++ -*----------------------------------*\
  =========                 |
  \\      /  F ield         | OpenFOAM: The Open Source CFD Toolbox
   \\    /   O peration     | Website:  https://openfoam.org
    \\  /    A nd           | Version:  7
     \\/     M anipulation  |
\*---------------------------------------------------------------------------*/
FoamFile
{
    version     2.0;
    format      ascii;
    class       volVectorField;
    location    "3";
    object      U;
}
// * * * * * * * * * * * * * * * * * * * * * * * * * * * * * * * * * * * * * //

dimensions      [0 1 -1 0 0 0 0];

internalField   nonuniform List<vector> 
4048
(
(3 2.42599e-17 0)
(3 3.10504e-16 0)
(3 3.21408e-16 0)
(3 5.28934e-16 0)
(3 4.10439e-16 0)
(3 5.21863e-16 0)
(3 5.21931e-16 0)
(3 3.55232e-17 0)
(3 -4.19565e-16 0)
(3 -7.12521e-16 0)
(3 -4.62822e-16 0)
(3 -3.64112e-16 0)
(3 -2.30111e-16 0)
(3 1.79199e-16 0)
(3 -1.0859e-17 0)
(2.96387 0.00385488 0)
(1.02305 0.0248206 0)
(0.681515 0.0254014 0)
(0.60904 0.0326516 0)
(0.521991 0.0372397 0)
(0.429512 0.041903 0)
(0.326482 0.0494013 0)
(0.2077 0.0561298 0)
(0.0823477 0.068311 0)
(3 -1.09431e-16 0)
(3 6.27104e-17 0)
(3 1.66183e-16 0)
(3 4.19788e-16 0)
(3 3.36002e-16 0)
(3 4.80185e-16 0)
(3 1.03635e-15 0)
(3 5.92193e-16 0)
(3 -6.90316e-17 0)
(3 -2.62255e-16 0)
(3 -1.53081e-16 0)
(3 -2.2711e-16 0)
(3 4.10885e-16 0)
(3 1.05436e-15 0)
(3 5.22085e-16 0)
(2.98075 0.0165301 0)
(1.04744 0.108053 0)
(0.680393 0.09309 0)
(0.605914 0.105894 0)
(0.519886 0.121348 0)
(0.426872 0.137008 0)
(0.325344 0.161525 0)
(0.20774 0.188354 0)
(0.0770689 0.221476 0)
(3 -1.88213e-16 0)
(3 -7.49587e-16 0)
(3 -8.70395e-16 0)
(3 -6.81049e-16 0)
(3 -3.94964e-16 0)
(3 8.4357e-17 0)
(3 1.12811e-16 0)
(3 5.82226e-17 0)
(3 4.95192e-17 0)
(3 2.77199e-17 0)
(3 -1.70657e-16 0)
(3 -4.75575e-17 0)
(3 8.27722e-16 0)
(3 2.1661e-15 0)
(3 1.91505e-15 0)
(3.00336 0.00291447 0)
(1.13334 0.179277 0)
(0.711066 0.153261 0)
(0.636333 0.173637 0)
(0.555465 0.199306 0)
(0.469547 0.223037 0)
(0.379885 0.260985 0)
(0.266097 0.309086 0)
(0.126691 0.380416 0)
(3 2.17462e-16 0)
(3 1.11645e-16 0)
(3 1.35805e-16 0)
(3 -3.78838e-18 0)
(3 3.78531e-17 0)
(3 -2.29841e-17 0)
(3 1.27936e-16 0)
(3 4.42388e-17 0)
(3 -1.20774e-16 0)
(3 -4.19509e-16 0)
(3 -6.56698e-16 0)
(3 -4.99005e-16 0)
(3 -2.4919e-16 0)
(3 9.66571e-16 0)
(3 8.76767e-16 0)
(3.0002 1.33454e-05 0)
(1.27764 0.244819 0)
(0.732973 0.217779 0)
(0.652896 0.241299 0)
(0.582249 0.274635 0)
(0.501571 0.303404 0)
(0.418669 0.366409 0)
(0.273756 0.463472 0)
(0.170031 0.623421 0)
(3 -3.15341e-17 0)
(3 5.25024e-16 0)
(3 8.75563e-16 0)
(3 7.89574e-16 0)
(3 3.26403e-16 0)
(3 -1.95692e-16 0)
(3 5.3611e-17 0)
(3 4.90838e-16 0)
(3 -1.91436e-17 0)
(3 -2.4464e-16 0)
(3 -3.20189e-16 0)
(3 -4.61251e-16 0)
(3 -2.93306e-16 0)
(3 -1.84624e-16 0)
(3 3.9229e-16 0)
(3 -3.84026e-08 0)
(1.51375 0.309445 0)
(0.767407 0.289971 0)
(0.667803 0.302426 0)
(0.608999 0.340013 0)
(0.537673 0.377739 0)
(0.477454 0.46821 0)
(0.415175 0.600717 0)
(0.469964 0.748233 0)
(3 -2.91275e-17 0)
(3 1.31995e-16 0)
(3 1.27515e-16 0)
(3 7.23336e-16 0)
(3 5.6293e-16 0)
(3 6.9644e-16 0)
(3 -1.11259e-16 0)
(3 1.76389e-16 0)
(3 1.38341e-16 0)
(3 2.69216e-16 0)
(3 4.78439e-16 0)
(3 9.23915e-16 0)
(3 8.54975e-16 0)
(3 1.22887e-16 0)
(3 -1.58169e-16 0)
(3 -2.17198e-08 0)
(1.87663 0.368795 0)
(0.819412 0.382709 0)
(0.685217 0.36814 0)
(0.637852 0.405732 0)
(0.581362 0.444144 0)
(0.556107 0.527669 0)
(0.550877 0.608272 0)
(0.596113 0.638316 0)
(3 1.7674e-18 0)
(3 -5.77862e-17 0)
(3 -1.7618e-16 0)
(3 9.65209e-17 0)
(3 7.81304e-16 0)
(3 1.21323e-15 0)
(3 1.00768e-15 0)
(3 9.18452e-16 0)
(3 5.17093e-16 0)
(3 5.86289e-16 0)
(3 4.10746e-16 0)
(3 7.66065e-16 0)
(3 1.11262e-15 0)
(3 2.65984e-16 0)
(3 3.18102e-17 0)
(3 -3.95279e-09 0)
(2.42925 0.359162 0)
(0.929218 0.48986 0)
(0.766847 0.425724 0)
(0.72368 0.446439 0)
(0.672836 0.481263 0)
(0.651911 0.549616 0)
(0.663872 0.620166 0)
(0.688507 0.65066 0)
(3 -1.93818e-16 0)
(3 -7.3707e-16 0)
(3 -3.70135e-16 0)
(3 3.41867e-16 0)
(3 7.54705e-16 0)
(3 9.05972e-16 0)
(3 1.15736e-15 0)
(3 9.31107e-16 0)
(3 6.74622e-16 0)
(3 8.05506e-16 0)
(3 4.92787e-17 0)
(3 -6.28907e-16 0)
(3 -1.39854e-15 0)
(3 -8.89017e-16 0)
(3 -2.91503e-16 0)
(3 -3.42589e-10 0)
(3.03855 0.107249 0)
(1.16256 0.51552 0)
(0.878062 0.459758 0)
(0.833925 0.492502 0)
(0.79012 0.527293 0)
(0.753433 0.576269 0)
(0.758995 0.62914 0)
(0.761393 0.656119 0)
(3 -1.27243e-16 0)
(3 -1.8918e-16 0)
(3 3.19662e-18 0)
(3 2.24686e-16 0)
(3 2.80137e-16 0)
(3 -6.13638e-17 0)
(3 2.42965e-17 0)
(3 8.34966e-17 0)
(3 -1.20138e-16 0)
(3 -2.79129e-16 0)
(3 1.61408e-16 0)
(3 -8.07602e-17 0)
(3 -1.45872e-15 0)
(3 -1.97209e-15 0)
(3 -1.34819e-15 0)
(3 -9.625e-12 0)
(3.02543 0.00233142 0)
(1.3935 0.491246 0)
(0.90416 0.541469 0)
(0.843359 0.56277 0)
(0.822336 0.592777 0)
(0.8058 0.621199 0)
(0.813831 0.657601 0)
(0.816176 0.683706 0)
(3 -3.20641e-17 0)
(3 9.17563e-17 0)
(3 -6.33304e-17 0)
(3 -4.88141e-16 0)
(3 -8.45624e-16 0)
(3 -8.90193e-16 0)
(3 -9.7458e-16 0)
(3 -9.78279e-16 0)
(3 -1.06898e-15 0)
(3 -1.09253e-15 0)
(3 -9.55355e-16 0)
(3 -3.83004e-16 0)
(3 -3.80502e-16 0)
(3 -4.72102e-16 0)
(3 -2.83009e-16 0)
(3 -9.25348e-14 0)
(3.0004 -9.822e-06 0)
(1.89405 0.518475 0)
(0.948809 0.616531 0)
(0.874315 0.596702 0)
(0.864732 0.618829 0)
(0.856948 0.636365 0)
(0.862213 0.664529 0)
(0.871967 0.695189 0)
(3 1.15246e-16 0)
(3 -9.66942e-17 0)
(3 -6.18398e-16 0)
(3 -9.53468e-16 0)
(3 -4.42998e-16 0)
(3 -1.61615e-16 0)
(3 -3.26814e-16 0)
(3 -4.36557e-16 0)
(3 -2.35693e-16 0)
(3 -7.3567e-16 0)
(3 -1.52985e-15 0)
(3 -1.49485e-15 0)
(3 -9.44561e-16 0)
(3 2.44511e-16 0)
(3 1.91554e-16 0)
(3 -3.69432e-16 0)
(3.00002 -1.07717e-05 0)
(2.7522 0.327 0)
(1.11905 0.668449 0)
(0.952955 0.615247 0)
(0.929973 0.632418 0)
(0.916544 0.655515 0)
(0.911 0.683094 0)
(0.923062 0.716973 0)
(3 1.26182e-16 0)
(3 1.08025e-16 0)
(3 -5.32308e-16 0)
(3 -9.09738e-16 0)
(3 -1.12993e-15 0)
(3 -5.04965e-16 0)
(3 -2.24498e-16 0)
(3 2.54337e-17 0)
(3 7.36978e-16 0)
(3 7.82598e-16 0)
(3 1.66029e-16 0)
(3 -1.63172e-16 0)
(3 1.11266e-15 0)
(3 1.14992e-15 0)
(3 4.41886e-16 0)
(3 6.7922e-16 0)
(3 -2.29697e-06 0)
(3.07388 0.0244983 0)
(1.4774 0.65688 0)
(1.03174 0.690143 0)
(0.985126 0.685518 0)
(0.965012 0.69266 0)
(0.957574 0.702625 0)
(0.970851 0.72986 0)
(3 -5.97999e-17 0)
(3 2.66968e-16 0)
(3 -5.70105e-17 0)
(3 -5.33755e-17 0)
(3 -9.35798e-16 0)
(3 -1.34191e-15 0)
(3 -1.09805e-15 0)
(3 1.47425e-16 0)
(3 1.65404e-15 0)
(3 2.14435e-15 0)
(3 1.84262e-15 0)
(3 1.56702e-15 0)
(3 1.56934e-15 0)
(3 6.81948e-16 0)
(3 5.09698e-16 0)
(3 1.14387e-15 0)
(3 -2.22099e-07 0)
(3.0037 0.000108149 0)
(2.11967 0.606933 0)
(1.10057 0.760114 0)
(1.04686 0.73188 0)
(1.02829 0.728051 0)
(1.01823 0.725735 0)
(1.02717 0.741984 0)
(3 5.05601e-18 0)
(3 -1.68159e-16 0)
(3 1.24558e-16 0)
(3 5.39883e-16 0)
(3 2.42525e-16 0)
(3 -8.0827e-16 0)
(3 -6.64588e-16 0)
(3 -3.69996e-16 0)
(3 2.36019e-16 0)
(3 3.87516e-16 0)
(3 1.05867e-15 0)
(3 1.75085e-15 0)
(3 1.07633e-15 0)
(3 1.08237e-15 0)
(3 9.70561e-16 0)
(3 9.94431e-16 0)
(3 -6.69149e-09 0)
(3.00001 -1.41355e-07 0)
(3.02484 0.15921 0)
(1.3757 0.728349 0)
(1.11982 0.750043 0)
(1.11584 0.74724 0)
(1.10186 0.752783 0)
(1.10552 0.757992 0)
(3 -3.09649e-17 0)
(3 2.76283e-17 0)
(3 5.10537e-16 0)
(3 3.03667e-16 0)
(3 -1.97741e-16 0)
(3 1.10543e-16 0)
(3 1.44355e-16 0)
(3 -3.42112e-16 0)
(3 -7.31334e-16 0)
(3 -2.43629e-16 0)
(3 9.87505e-16 0)
(3 1.45434e-15 0)
(3 1.15276e-15 0)
(3 1.27231e-15 0)
(3 7.92826e-16 0)
(3 8.18201e-16 0)
(3 -1.3823e-11 0)
(3 -5.79592e-07 0)
(3.0254 0.0024475 0)
(1.76313 0.691055 0)
(1.1365 0.797809 0)
(1.13155 0.793085 0)
(1.14855 0.79633 0)
(1.16591 0.803288 0)
(3 -2.44358e-17 0)
(3 4.08354e-17 0)
(3 -2.39193e-16 0)
(3 -3.06211e-16 0)
(3 3.52921e-16 0)
(3 1.53253e-15 0)
(3 1.28846e-15 0)
(3 8.52346e-16 0)
(3 8.30314e-16 0)
(3 1.03109e-15 0)
(3 1.34861e-15 0)
(3 7.85547e-16 0)
(3 6.01352e-16 0)
(3 1.70972e-16 0)
(3 -6.86648e-17 0)
(3 2.61403e-16 0)
(3 -1.64502e-14 0)
(3 -1.03678e-07 0)
(3.00029 2.35104e-05 0)
(2.77033 0.361745 0)
(1.30662 0.79928 0)
(1.16588 0.784667 0)
(1.20112 0.795647 0)
(1.22345 0.811007 0)
(3 -5.67507e-17 0)
(3 -3.03876e-16 0)
(3 -2.10329e-16 0)
(3 1.01186e-16 0)
(3 6.65954e-16 0)
(3 5.15363e-16 0)
(3 2.08607e-16 0)
(3 -7.17839e-17 0)
(3 -6.13374e-17 0)
(3 2.75157e-16 0)
(3 7.96289e-16 0)
(3 4.65168e-16 0)
(3 3.05256e-16 0)
(3 -5.94242e-16 0)
(3 -8.84201e-16 0)
(3 -7.17282e-16 0)
(3 -5.46177e-16 0)
(3 -2.09014e-09 0)
(3.00001 -5.65081e-06 0)
(3.05576 0.0185362 0)
(1.66729 0.741381 0)
(1.19509 0.822224 0)
(1.22099 0.8243 0)
(1.24566 0.834506 0)
(3 -9.43242e-18 0)
(3 1.4671e-16 0)
(3 1.8888e-16 0)
(3 3.00846e-16 0)
(3 4.36628e-17 0)
(3 -7.95812e-16 0)
(3 -7.06473e-16 0)
(3 -4.09267e-16 0)
(3 -1.00484e-15 0)
(3 -1.56176e-15 0)
(3 -1.47454e-15 0)
(3 -1.20911e-15 0)
(3 -8.69581e-16 0)
(3 -4.96162e-16 0)
(3 -3.13959e-16 0)
(3 -1.50685e-16 0)
(3 4.93193e-16 0)
(3 -5.11339e-12 0)
(3 -1.28335e-06 0)
(3.00174 0.000331796 0)
(2.59477 0.487791 0)
(1.32195 0.858326 0)
(1.24562 0.835381 0)
(1.27421 0.834978 0)
(3 1.1983e-16 0)
(3 4.48795e-17 0)
(3 -6.37503e-16 0)
(3 -7.92987e-16 0)
(3 -7.51087e-16 0)
(3 -7.60344e-16 0)
(3 -5.86144e-16 0)
(3 -5.60378e-16 0)
(3 -9.37872e-16 0)
(3 -1.63084e-15 0)
(3 -2.06601e-15 0)
(3 -2.13855e-15 0)
(3 -1.80342e-15 0)
(3 -8.45533e-16 0)
(3 -9.77431e-17 0)
(3 -1.14351e-17 0)
(3 -6.49595e-17 0)
(3 6.73692e-13 0)
(3 -1.03318e-07 0)
(3 4.69834e-07 0)
(3.058 0.042336 0)
(1.74327 0.792687 0)
(1.2851 0.854732 0)
(1.30731 0.852538 0)
(3 -7.48652e-17 0)
(3 -4.37784e-16 0)
(3 6.85339e-17 0)
(3 1.16533e-16 0)
(3 -3.5349e-17 0)
(3 -2.79983e-16 0)
(3 -1.29958e-15 0)
(3 -1.66365e-15 0)
(3 -1.47107e-15 0)
(3 -1.26779e-15 0)
(3 -1.83779e-15 0)
(3 -1.71686e-15 0)
(3 -1.84007e-15 0)
(3 -1.50101e-15 0)
(3 -1.39109e-15 0)
(3 -9.05102e-16 0)
(3 -4.19576e-16 0)
(3 1.40364e-13 0)
(3 -6.71375e-10 0)
(3 -6.2778e-08 0)
(3.00317 0.00125566 0)
(2.68215 0.470789 0)
(1.44321 0.904065 0)
(1.33651 0.871434 0)
(3 -1.8065e-16 0)
(3 4.11272e-17 0)
(3 1.00092e-15 0)
(3 1.33282e-15 0)
(3 1.57163e-15 0)
(3 1.32223e-15 0)
(3 7.49718e-16 0)
(3 6.5085e-16 0)
(3 8.30761e-17 0)
(3 -3.69007e-16 0)
(3 -3.38985e-16 0)
(3 -6.34975e-16 0)
(3 -9.05217e-16 0)
(3 -1.15856e-15 0)
(3 -1.05942e-15 0)
(3 -5.30377e-16 0)
(3 -2.01707e-16 0)
(3 1.43461e-14 0)
(3 -1.33789e-12 0)
(3 -1.3364e-08 0)
(3.00001 5.61413e-06 0)
(3.04568 0.0349192 0)
(1.92208 0.790829 0)
(1.38794 0.892581 0)
(3 6.48885e-17 0)
(3 1.87857e-16 0)
(3 -5.35624e-17 0)
(3 7.27309e-17 0)
(3 3.60773e-16 0)
(3 9.44909e-16 0)
(3 2.50296e-15 0)
(3 2.42965e-15 0)
(3 1.44197e-15 0)
(3 1.10244e-15 0)
(3 6.94211e-16 0)
(3 -3.22151e-16 0)
(3 -8.76306e-16 0)
(3 -7.672e-16 0)
(3 -4.93281e-16 0)
(3 3.95758e-16 0)
(3 -2.51633e-16 0)
(3 5.42562e-16 0)
(3 6.19135e-16 0)
(3 -1.25868e-09 0)
(3 2.19129e-10 0)
(3.00169 0.00124624 0)
(2.80577 0.349122 0)
(1.62724 0.912277 0)
(3 6.85996e-17 0)
(3 8.8077e-17 0)
(3 -9.05772e-16 0)
(3 -1.33162e-15 0)
(3 -1.12292e-15 0)
(3 -5.81881e-16 0)
(3 4.0879e-16 0)
(3 3.8181e-16 0)
(3 7.72368e-16 0)
(3 8.39634e-16 0)
(3 2.25682e-16 0)
(3 1.28381e-16 0)
(3 -4.19923e-16 0)
(3 -6.89957e-16 0)
(3 -7.2269e-16 0)
(3 -5.22837e-16 0)
(3 -4.57426e-16 0)
(3 -2.04236e-16 0)
(3 9.12812e-19 0)
(3 -4.27877e-11 0)
(3 -4.38427e-11 0)
(3 4.83497e-06 0)
(3.01897 0.0218382 0)
(2.25728 0.721121 0)
(3 -8.75152e-17 0)
(3 3.53729e-17 0)
(3 -8.77209e-17 0)
(3 -2.40425e-16 0)
(3 -6.239e-16 0)
(3 -2.81057e-16 0)
(3 -1.40845e-16 0)
(3 2.76221e-16 0)
(3 5.20444e-16 0)
(3 3.49575e-16 0)
(3 4.94239e-16 0)
(3 1.5154e-16 0)
(3 -4.65181e-17 0)
(3 -8.87145e-16 0)
(3 -9.20001e-16 0)
(3 -1.12394e-15 0)
(3 -1.14205e-15 0)
(3 -9.43892e-16 0)
(3 -7.76977e-16 0)
(3 -2.77259e-13 0)
(3 -1.20498e-11 0)
(3 1.60148e-09 0)
(3.00029 0.00072289 0)
(2.96631 0.170401 0)
(3 7.55645e-17 0)
(3 5.50664e-17 0)
(3 5.42407e-16 0)
(3 3.11786e-16 0)
(3 3.67038e-17 0)
(3 3.45889e-17 0)
(3 1.37062e-16 0)
(3 4.69913e-16 0)
(3 2.84096e-16 0)
(3 2.14298e-16 0)
(3 1.96912e-16 0)
(3 -5.05846e-16 0)
(3 -7.1527e-16 0)
(3 -7.10555e-16 0)
(3 -7.81267e-16 0)
(3 -5.73871e-16 0)
(3 -6.63582e-16 0)
(3 -1.11862e-15 0)
(3 -3.91198e-16 0)
(3 1.76483e-16 0)
(3 -1.08202e-12 0)
(3 -7.81464e-13 0)
(3 1.85957e-06 0)
(3.00461 0.00961285 0)
(3 5.40483e-17 0)
(3 2.70369e-16 0)
(3 5.5644e-16 0)
(3 7.22623e-16 0)
(3 8.84745e-16 0)
(3 3.23076e-16 0)
(3 -3.94277e-16 0)
(3 -2.37174e-16 0)
(3 -1.7468e-16 0)
(3 -7.32265e-17 0)
(3 3.90928e-16 0)
(3 -5.60098e-18 0)
(3 -3.8372e-16 0)
(3 1.09208e-16 0)
(3 8.6948e-17 0)
(3 4.86683e-16 0)
(3 1.10082e-15 0)
(3 2.10899e-16 0)
(3 -6.79019e-16 0)
(3 4.57594e-16 0)
(3 -1.75044e-14 0)
(3 -2.2783e-13 0)
(3 7.97123e-10 0)
(3 0.000142199 0)
(3 7.23307e-17 0)
(3 2.06217e-16 0)
(3 6.01953e-16 0)
(3 8.79329e-16 0)
(3 8.78897e-16 0)
(3 6.73713e-16 0)
(3 1.27775e-16 0)
(3 -2.56344e-16 0)
(3 -3.07419e-16 0)
(3 -3.53492e-16 0)
(3 2.16306e-17 0)
(3 5.69344e-16 0)
(3 8.53948e-16 0)
(3 1.67198e-15 0)
(3 1.95124e-15 0)
(3 1.13472e-15 0)
(3 8.16831e-17 0)
(3 -2.77168e-16 0)
(3 -6.78504e-17 0)
(3 4.70697e-16 0)
(3 9.47835e-16 0)
(3 -3.15685e-14 0)
(3 1.33002e-13 0)
(3 1.75596e-07 0)
(3 3.4304e-18 0)
(3 -1.58672e-17 0)
(3 9.67874e-17 0)
(3 2.30551e-16 0)
(3 6.30373e-16 0)
(3 7.33525e-16 0)
(3 6.41767e-16 0)
(3 2.13666e-17 0)
(3 -1.00277e-16 0)
(3 -1.90868e-17 0)
(3 -4.39591e-18 0)
(3 3.5215e-16 0)
(3 7.45402e-16 0)
(3 6.29227e-16 0)
(3 2.83198e-16 0)
(3 -1.8411e-16 0)
(3 -2.96511e-16 0)
(3 2.33237e-16 0)
(3 1.57919e-15 0)
(3 8.91107e-16 0)
(3 1.2615e-15 0)
(3 -8.79882e-16 0)
(3 -1.07766e-15 0)
(3 9.17367e-11 0)
(3 -5.01631e-17 0)
(3 -2.53594e-16 0)
(3 -7.84119e-16 0)
(3 -4.28181e-16 0)
(3 7.9775e-17 0)
(3 -7.58651e-17 0)
(3 -1.99824e-16 0)
(3 -7.56948e-17 0)
(3 7.367e-16 0)
(3 1.05581e-15 0)
(3 9.10508e-16 0)
(3 5.15003e-16 0)
(3 -3.50535e-16 0)
(3 -1.13206e-15 0)
(3 -1.68683e-15 0)
(3 -1.40597e-15 0)
(3 -3.16277e-16 0)
(3 1.67888e-15 0)
(3 1.2627e-15 0)
(3 3.28655e-16 0)
(3 2.11762e-16 0)
(3 -1.01536e-16 0)
(3 -1.00412e-15 0)
(3 1.06188e-14 0)
(3 -2.80406e-18 0)
(3 -1.99784e-16 0)
(3 -4.84603e-16 0)
(3 -7.16799e-16 0)
(3 -9.1245e-16 0)
(3 -8.26332e-16 0)
(3 -6.44409e-16 0)
(3 -8.18884e-19 0)
(3 7.93649e-16 0)
(3 9.14381e-16 0)
(3 5.2974e-16 0)
(3 1.35766e-16 0)
(3 -2.45382e-17 0)
(3 -7.23904e-16 0)
(3 -5.60124e-16 0)
(3 1.94961e-16 0)
(3 7.41066e-16 0)
(3 6.8715e-16 0)
(3 -1.30168e-16 0)
(3 -1.93216e-16 0)
(3 7.64735e-17 0)
(3 8.13435e-16 0)
(3 1.5498e-16 0)
(3 -5.11096e-17 0)
(3 -1.11003e-16 0)
(3 -8.23974e-18 0)
(3 2.95734e-16 0)
(3 -4.01355e-17 0)
(3 -4.8897e-17 0)
(3 3.13641e-16 0)
(3 8.62159e-16 0)
(3 1.09487e-15 0)
(3 7.57091e-16 0)
(3 2.41792e-17 0)
(3 -2.06492e-16 0)
(3 -3.72727e-16 0)
(3 -7.07449e-16 0)
(3 -3.8274e-16 0)
(3 6.68661e-16 0)
(3 1.45157e-15 0)
(3 1.02338e-15 0)
(3 -1.22708e-15 0)
(3 -1.11036e-15 0)
(3 -6.41392e-16 0)
(3 6.58971e-17 0)
(3 1.29783e-15 0)
(3 1.50359e-15 0)
(3 1.37928e-15 0)
(3 4.33352e-17 0)
(3 -1.8538e-16 0)
(3 4.67079e-17 0)
(3 2.30256e-16 0)
(3 6.02611e-16 0)
(3 1.52294e-15 0)
(3 1.80563e-15 0)
(3 2.01595e-15 0)
(3 1.36202e-15 0)
(3 7.48381e-16 0)
(3 4.78882e-16 0)
(3 3.19729e-16 0)
(3 -2.28906e-16 0)
(3 2.8609e-16 0)
(3 1.4679e-15 0)
(3 1.66222e-15 0)
(3 2.59065e-16 0)
(3 -5.39006e-16 0)
(3 1.38897e-16 0)
(3 9.49463e-16 0)
(3 6.51086e-16 0)
(3 7.99575e-16 0)
(3 2.32333e-15 0)
(3 2.40453e-15 0)
(3 5.56421e-18 0)
(3 -2.16115e-16 0)
(3 -1.87199e-16 0)
(3 -7.77015e-17 0)
(3 -3.24027e-16 0)
(3 -4.81873e-16 0)
(3 -6.35471e-16 0)
(3 -3.99097e-16 0)
(3 -2.3011e-16 0)
(3 4.0631e-16 0)
(3 8.16358e-16 0)
(3 3.94644e-16 0)
(3 5.9917e-16 0)
(3 2.43833e-16 0)
(3 9.48888e-17 0)
(3 -3.4972e-16 0)
(3 -3.33427e-16 0)
(3 -7.48194e-17 0)
(3 2.52666e-16 0)
(3 -9.22055e-16 0)
(3 -1.09626e-15 0)
(3 -8.50903e-16 0)
(3 -7.45811e-16 0)
(3 -8.63048e-16 0)
(3 -6.31346e-17 0)
(3 1.60123e-16 0)
(3 -7.4054e-17 0)
(3 -1.35843e-16 0)
(3 -4.58763e-16 0)
(3 -9.62576e-16 0)
(3 -9.76524e-16 0)
(3 -1.25938e-15 0)
(3 -1.44604e-15 0)
(3 -8.07162e-16 0)
(3 -1.58482e-16 0)
(3 3.04944e-16 0)
(3 6.78247e-16 0)
(3 6.46258e-16 0)
(3 -8.03024e-17 0)
(3 -6.27846e-16 0)
(3 -5.69535e-16 0)
(3 -7.49061e-16 0)
(3 -1.04179e-15 0)
(3 -9.0226e-16 0)
(3 -1.12518e-15 0)
(3 -1.2909e-15 0)
(3 -2.06174e-15 0)
(3 -2.82245e-15 0)
(3 -4.67391e-18 0)
(3 1.0838e-16 0)
(3 2.60907e-16 0)
(3 2.35764e-16 0)
(3 2.43285e-17 0)
(3 -2.95266e-16 0)
(3 -3.32323e-16 0)
(3 -4.22808e-16 0)
(3 -3.34903e-16 0)
(3 -8.75508e-17 0)
(3 -1.07519e-16 0)
(3 9.05436e-16 0)
(3 1.28956e-15 0)
(3 1.25189e-15 0)
(3 7.16058e-16 0)
(3 2.99779e-16 0)
(3 7.59485e-17 0)
(3 4.46238e-18 0)
(3 5.09843e-16 0)
(3 1.04616e-15 0)
(3 6.04258e-16 0)
(3 1.4664e-16 0)
(3 -1.06462e-15 0)
(3 -1.32159e-15 0)
(3 -1.37395e-17 0)
(3 -1.61425e-16 0)
(3 -8.11654e-17 0)
(3 -1.33688e-16 0)
(3 3.96787e-18 0)
(3 -3.5298e-16 0)
(3 -7.95691e-16 0)
(3 -8.05584e-16 0)
(3 -1.28543e-16 0)
(3 3.36718e-16 0)
(3 1.74908e-16 0)
(3 1.33884e-16 0)
(3 1.13445e-16 0)
(3 1.30955e-16 0)
(3 4.90533e-18 0)
(3 7.20587e-16 0)
(3 1.38093e-15 0)
(3 2.10365e-15 0)
(3 2.23522e-15 0)
(3 2.14047e-15 0)
(3 1.68943e-15 0)
(3 2.54447e-17 0)
(3 -2.55598e-16 0)
(3 -1.50015e-16 0)
(3 7.1503e-17 0)
(3 5.25162e-17 0)
(3 -6.95975e-17 0)
(3 1.87497e-16 0)
(3 5.91861e-16 0)
(3 3.42684e-16 0)
(3 -3.71002e-16 0)
(3 -6.50185e-16 0)
(3 -3.87973e-16 0)
(3 -2.53262e-16 0)
(3 7.319e-17 0)
(3 -4.70603e-16 0)
(3 -3.58802e-16 0)
(3 6.11195e-16 0)
(3 1.39666e-15 0)
(3 9.12279e-16 0)
(3 8.42349e-16 0)
(3 8.35552e-16 0)
(3 4.20471e-16 0)
(3 -1.89196e-16 0)
(3 -3.41843e-18 0)
(3 -1.14731e-17 0)
(3 7.71977e-16 0)
(3 3.91116e-16 0)
(3 2.4669e-16 0)
(3 6.21309e-16 0)
(3 5.05925e-16 0)
(3 3.94819e-16 0)
(3 -2.00593e-16 0)
(3 -4.7875e-16 0)
(3 -4.2602e-16 0)
(3 -3.51754e-16 0)
(3 -5.39794e-16 0)
(3 -4.32575e-16 0)
(3 2.07271e-16 0)
(3 1.77988e-16 0)
(3 5.09474e-16 0)
(3 1.05746e-15 0)
(3 1.42183e-15 0)
(3 9.41261e-16 0)
(3 2.6274e-16 0)
(3 2.17945e-16 0)
(3 4.85715e-16 0)
(3 4.40693e-17 0)
(3 -3.17731e-16 0)
(3 7.7931e-17 0)
(3 9.33651e-16 0)
(3 5.07264e-17 0)
(3 -1.40641e-17 0)
(3 -1.10596e-16 0)
(3 -5.08089e-16 0)
(3 -6.14274e-16 0)
(3 -1.12387e-15 0)
(3 -2.23028e-15 0)
(3 -2.11341e-15 0)
(3 -2.05625e-15 0)
(3 -1.77216e-15 0)
(3 -1.628e-15 0)
(3 -1.18593e-15 0)
(3 -2.87332e-16 0)
(3 -2.65716e-16 0)
(3 -3.22102e-16 0)
(3 1.62859e-16 0)
(3 -1.63236e-16 0)
(3 -1.10617e-15 0)
(3 -1.0179e-15 0)
(3 4.22057e-17 0)
(3 1.93245e-18 0)
(3 1.95522e-16 0)
(3 1.71172e-16 0)
(3 -1.91242e-17 0)
(3 -2.56097e-16 0)
(3 -1.03991e-16 0)
(3 -5.43655e-16 0)
(3 -5.94815e-16 0)
(3 -5.36652e-16 0)
(3 -5.10235e-16 0)
(3 -8.54285e-16 0)
(3 -1.53811e-15 0)
(3 -2.20887e-15 0)
(3 -2.04764e-15 0)
(3 -2.01277e-15 0)
(3 -1.71719e-15 0)
(3 -8.26595e-16 0)
(3 -4.98481e-16 0)
(3 -2.1504e-16 0)
(3 -1.02925e-16 0)
(3 -7.38176e-16 0)
(3 -9.45192e-16 0)
(3 -1.07894e-15 0)
(3 -1.18332e-15 0)
(3 -1.50968e-15 0)
(3 -1.24554e-15 0)
(3 -6.18222e-16 0)
(3 -6.63914e-16 0)
(3 -2.86121e-16 0)
(0.580804 0.529943 0)
(0.14788 0.285344 0)
(0.0239594 0.0700592 0)
(0.0100448 0.00512265 0)
(0.619586 0.453414 0)
(0.377494 0.294016 0)
(0.219811 0.125542 0)
(0.06509 0.0646385 0)
(0.666594 0.578046 0)
(0.506494 0.513374 0)
(0.351885 0.354501 0)
(0.150926 0.243142 0)
(0.743213 0.641782 0)
(0.657466 0.6237 0)
(0.507396 0.542472 0)
(0.230416 0.587187 0)
(0.807222 0.690271 0)
(0.77325 0.722854 0)
(0.72628 0.777848 0)
(0.752331 0.942263 0)
(0.873276 0.726476 0)
(0.883792 0.787964 0)
(0.935011 0.851499 0)
(1.12534 0.930682 0)
(0.93779 0.756446 0)
(0.98037 0.812299 0)
(1.0829 0.871833 0)
(1.29414 0.921283 0)
(0.999538 0.765399 0)
(1.05831 0.809734 0)
(1.17392 0.857855 0)
(1.35665 0.887535 0)
(1.06099 0.774857 0)
(1.12634 0.81336 0)
(1.23633 0.848604 0)
(1.3939 0.866727 0)
(1.12825 0.779569 0)
(1.18579 0.805057 0)
(1.28011 0.827849 0)
(1.41352 0.837553 0)
(1.19066 0.811028 0)
(1.24054 0.82101 0)
(1.31959 0.831539 0)
(1.43018 0.832894 0)
(1.25307 0.819571 0)
(1.29844 0.824995 0)
(1.3647 0.828307 0)
(1.45614 0.823871 0)
(1.28433 0.843595 0)
(1.3345 0.849984 0)
(1.39798 0.849257 0)
(1.47758 0.839522 0)
(1.31211 0.841221 0)
(1.36384 0.847674 0)
(1.42681 0.847607 0)
(1.50077 0.839332 0)
(1.33845 0.855386 0)
(1.38364 0.858099 0)
(1.44138 0.856716 0)
(1.5091 0.850877 0)
(1.37212 0.86644 0)
(1.40857 0.862852 0)
(1.45881 0.858425 0)
(1.51977 0.852645 0)
(1.4107 0.883579 0)
(1.44028 0.877575 0)
(1.48172 0.871022 0)
(1.53345 0.862335 0)
(1.42754 0.904431 0)
(1.4701 0.898323 0)
(1.50459 0.889504 0)
(1.54839 0.876501 0)
(1.50242 0.929417 0)
(1.49623 0.921163 0)
(1.53164 0.904496 0)
(1.56714 0.890508 0)
(1.87557 0.857126 0)
(1.53067 0.932377 0)
(1.56448 0.919856 0)
(1.59689 0.904557 0)
(2.63824 0.476798 0)
(1.71674 0.94014 0)
(1.57264 0.942297 0)
(1.61224 0.928761 0)
(3.00247 0.0496111 0)
(2.27871 0.725234 0)
(1.64426 0.952994 0)
(1.63077 0.952003 0)
(3.00018 0.0021018 0)
(2.92718 0.188906 0)
(2.01573 0.836114 0)
(1.68306 0.95498 0)
(3 9.00066e-06 0)
(3.0005 0.0122895 0)
(2.7141 0.396013 0)
(1.90056 0.902232 0)
(3 7.32838e-09 0)
(2.99997 0.000179534 0)
(2.99406 0.0378722 0)
(2.47777 0.57982 0)
(3 2.45482e-12 0)
(3 2.7217e-07 0)
(2.99984 0.00128509 0)
(2.9584 0.0950924 0)
(3 9.58081e-16 0)
(3 1.9607e-10 0)
(3 4.05371e-06 0)
(2.99919 0.00488426 0)
(3 1.43278e-15 0)
(3 2.12857e-14 0)
(3 4.31602e-09 0)
(2.99999 3.32437e-05 0)
(3 2.63988e-16 0)
(3 1.71361e-15 0)
(3 9.50129e-13 0)
(3 4.65212e-08 0)
(3 -1.11211e-15 0)
(3 7.43087e-17 0)
(3 4.23687e-16 0)
(3 1.9887e-11 0)
(3 -9.51306e-16 0)
(3 4.32197e-16 0)
(3 7.96541e-17 0)
(3 2.00246e-15 0)
(3 -5.5552e-16 0)
(3 9.8161e-17 0)
(3 1.71182e-16 0)
(3 -4.12526e-16 0)
(3 -1.35788e-15 0)
(3 -1.49037e-15 0)
(3 -7.92384e-16 0)
(3 5.1602e-16 0)
(3 -3.08787e-16 0)
(3 -3.65202e-17 0)
(3 4.76805e-16 0)
(3 1.64429e-15 0)
(3 1.13477e-16 0)
(3 1.92823e-16 0)
(3 1.07248e-15 0)
(3 1.61976e-15 0)
(3 -8.05595e-17 0)
(3 1.10962e-16 0)
(3 7.5726e-16 0)
(3 7.92093e-16 0)
(1.64802 0.935735 0)
(2.21586 1.03262 0)
(2.46221 0.856415 0)
(2.50936 0.50708 0)
(2.56811 0.222184 0)
(2.57063 -0.025688 0)
(2.56082 -0.117278 0)
(2.47387 -0.156305 0)
(2.45953 -0.189147 0)
(2.48042 -0.146932 0)
(2.45556 -0.0891377 0)
(2.43677 -0.0628488 0)
(2.42033 -0.0481389 0)
(2.41016 -0.0463446 0)
(2.4052 -0.0472902 0)
(2.41805 -0.0334723 0)
(2.43293 -0.0114545 0)
(2.42654 -0.00581337 0)
(2.42239 -0.00691167 0)
(2.42295 -0.00867462 0)
(2.42652 -0.00498342 0)
(2.42166 0.00422372 0)
(2.41729 0.00635426 0)
(2.41331 0.00459633 0)
(2.41591 -0.000294766 0)
(2.42438 -0.00341439 0)
(2.43045 -0.00427403 0)
(2.42611 -0.00476461 0)
(2.42091 -0.00528678 0)
(2.41712 -0.00632176 0)
(2.41259 -0.00610564 0)
(2.4106 -0.00264667 0)
(2.41032 0.000770829 0)
(2.41079 0.00229764 0)
(2.41576 0.00319136 0)
(2.42754 0.00380536 0)
(2.43337 0.000969101 0)
(1.66604 -0.00473495 0)
(0.877942 -0.0294496 0)
(0.861862 -0.049955 0)
(0.932109 -0.0667856 0)
(1.00213 -0.0623899 0)
(1.06634 -0.0526788 0)
(1.12129 -0.0444726 0)
(1.17087 -0.0375062 0)
(1.22053 -0.0285116 0)
(1.26793 -0.023596 0)
(1.31112 -0.0208618 0)
(1.35087 -0.0201012 0)
(1.38694 -0.0197647 0)
(1.41947 -0.0178989 0)
(1.45047 -0.0147656 0)
(1.48115 -0.0102246 0)
(1.51138 -0.00681951 0)
(1.54269 -0.00530624 0)
(1.57411 -0.00393286 0)
(1.60555 -0.00419722 0)
(1.63803 -0.00710853 0)
(1.66272 -0.00893401 0)
(1.68502 -0.00850751 0)
(1.70612 -0.00649742 0)
(1.7204 -0.00188301 0)
(1.7278 0.00472744 0)
(1.74283 0.00797357 0)
(1.76316 0.0084107 0)
(1.7859 0.00881966 0)
(1.81779 0.00873365 0)
(1.85744 0.00559681 0)
(1.88331 -0.000936199 0)
(1.90226 -0.00371792 0)
(1.92115 -0.00503314 0)
(1.92614 -0.00195592 0)
(1.91892 0.00510653 0)
(1.92861 0.00988154 0)
(1.94734 0.0104565 0)
(1.96777 0.010479 0)
(1.99524 0.00994411 0)
(2.02726 0.00827613 0)
(2.0468 0.00563553 0)
(2.06377 0.00435195 0)
(2.07749 0.00311756 0)
(2.07371 0.00514645 0)
(2.06094 0.00881238 0)
(2.07085 0.00977878 0)
(2.08816 0.00981138 0)
(2.1066 0.00978817 0)
(2.13001 0.00944639 0)
(2.1596 0.0079383 0)
(2.17823 0.00607442 0)
(2.19622 0.00565226 0)
(2.2104 0.00569618 0)
(2.21858 0.00696611 0)
(1.79527 0.790088 0)
(2.19173 0.494797 0)
(2.38847 0.27878 0)
(2.52645 -0.0505633 0)
(2.55671 -0.288824 0)
(2.6099 -0.327822 0)
(2.59518 -0.326562 0)
(2.57631 -0.2922 0)
(2.54235 -0.248363 0)
(2.50885 -0.188137 0)
(2.46866 -0.11044 0)
(2.43575 -0.0845001 0)
(2.42928 -0.0613361 0)
(2.43515 -0.0433861 0)
(2.43552 -0.0331799 0)
(2.43887 -0.0146671 0)
(2.43848 0.0132866 0)
(2.42779 0.0180689 0)
(2.42166 0.0138993 0)
(2.4225 0.00657217 0)
(2.42747 0.0053507 0)
(2.42569 0.00996475 0)
(2.42024 0.011195 0)
(2.41604 0.00567305 0)
(2.42168 -0.00321686 0)
(2.4327 -0.00718905 0)
(2.44018 -0.00787439 0)
(2.43801 -0.00804108 0)
(2.43553 -0.00918743 0)
(2.43287 -0.0111898 0)
(2.42919 -0.0114531 0)
(2.42622 -0.00707367 0)
(2.42532 0.00279882 0)
(2.42808 0.0103044 0)
(2.434 0.0206483 0)
(2.44002 0.0234675 0)
(2.42513 -0.0171066 0)
(1.95548 -0.0702197 0)
(1.08346 -0.0383606 0)
(1.03088 -0.078387 0)
(1.10496 -0.111183 0)
(1.1523 -0.092319 0)
(1.18749 -0.0626735 0)
(1.22123 -0.0408013 0)
(1.25285 -0.030238 0)
(1.28481 -0.0124496 0)
(1.31717 -0.00479242 0)
(1.34972 -0.00775064 0)
(1.38568 -0.0185397 0)
(1.42604 -0.0284144 0)
(1.4621 -0.0284582 0)
(1.49048 -0.0228147 0)
(1.5173 -0.0134306 0)
(1.54273 0.000831947 0)
(1.56666 0.0123003 0)
(1.58901 0.0149473 0)
(1.61436 0.0109756 0)
(1.64629 -0.00051479 0)
(1.67812 -0.014874 0)
(1.70028 -0.0220161 0)
(1.72146 -0.0242113 0)
(1.74091 -0.0210811 0)
(1.75415 -0.00644644 0)
(1.76202 0.0141188 0)
(1.7779 0.0246486 0)
(1.79804 0.0285074 0)
(1.82445 0.0311803 0)
(1.85819 0.0252503 0)
(1.8832 0.0140838 0)
(1.90282 0.00328035 0)
(1.91888 -0.0102287 0)
(1.92984 -0.0200481 0)
(1.93677 -0.0125219 0)
(1.94507 0.0058159 0)
(1.95935 0.0208093 0)
(1.9779 0.027755 0)
(1.99935 0.0318583 0)
(2.02429 0.0289807 0)
(2.04411 0.0218193 0)
(2.06171 0.013986 0)
(2.07568 0.0038119 0)
(2.08122 -0.00350594 0)
(2.07753 0.0056768 0)
(2.08106 0.0189095 0)
(2.0961 0.0244263 0)
(2.11262 0.0273444 0)
(2.13252 0.0304329 0)
(2.15735 0.0284344 0)
(2.1784 0.022476 0)
(2.19667 0.0161659 0)
(2.2116 0.00898493 0)
(2.22744 0.0088579 0)
(1.69607 0.873872 0)
(2.05119 0.65848 0)
(2.27062 0.446232 0)
(2.34905 0.324051 0)
(2.45888 0.0851393 0)
(2.52127 0.0302717 0)
(2.51609 -0.0144638 0)
(2.57196 -0.131707 0)
(2.59515 -0.222546 0)
(2.59577 -0.22811 0)
(2.55233 -0.223929 0)
(2.52301 -0.201757 0)
(2.52442 -0.157397 0)
(2.51574 -0.106632 0)
(2.50656 -0.0757889 0)
(2.49436 -0.0470537 0)
(2.47802 -0.00611702 0)
(2.47422 0.0104586 0)
(2.46986 0.00724395 0)
(2.4647 -0.0129397 0)
(2.46271 -0.0169279 0)
(2.45729 -0.010067 0)
(2.45066 -0.00899779 0)
(2.45075 -0.0149757 0)
(2.45897 -0.0237934 0)
(2.46647 -0.0219577 0)
(2.46789 -0.0147795 0)
(2.46601 -0.00652457 0)
(2.46422 -0.00186669 0)
(2.46258 -0.00236749 0)
(2.46116 -0.00384174 0)
(2.45874 -0.00418864 0)
(2.45802 -0.00312547 0)
(2.46176 -9.99253e-05 0)
(2.4656 0.00390338 0)
(2.44608 -0.0261468 0)
(2.36442 -0.157511 0)
(2.10888 -0.500771 0)
(1.46299 -0.223673 0)
(1.27891 -0.103483 0)
(1.31423 -0.0519308 0)
(1.3473 -0.067227 0)
(1.37415 -0.0991814 0)
(1.38886 -0.102163 0)
(1.40257 -0.0921738 0)
(1.41752 -0.0681758 0)
(1.43104 -0.0420816 0)
(1.45295 -0.0321207 0)
(1.47734 -0.0313323 0)
(1.50708 -0.0362369 0)
(1.54003 -0.0424997 0)
(1.56522 -0.0445704 0)
(1.58744 -0.0432053 0)
(1.60969 -0.0352013 0)
(1.62784 -0.0201435 0)
(1.64215 -0.00188111 0)
(1.66263 0.00922105 0)
(1.6858 0.0122591 0)
(1.70958 0.00701845 0)
(1.73421 -0.00461658 0)
(1.75493 -0.0125571 0)
(1.77365 -0.0164011 0)
(1.79174 -0.0159999 0)
(1.80468 -0.00392058 0)
(1.81263 0.0175393 0)
(1.8296 0.0308632 0)
(1.85207 0.0363991 0)
(1.87434 0.0366928 0)
(1.89444 0.0299168 0)
(1.91144 0.0181533 0)
(1.92592 0.00691402 0)
(1.9425 -0.00202058 0)
(1.96046 -0.00462436 0)
(1.97751 0.002501 0)
(1.9899 0.0216507 0)
(2.00032 0.0392041 0)
(2.01627 0.0456076 0)
(2.0346 0.0453236 0)
(2.05148 0.0400153 0)
(2.06608 0.0302888 0)
(2.07687 0.0194063 0)
(2.08607 0.0111662 0)
(2.09661 0.0112939 0)
(2.10548 0.0225251 0)
(2.11393 0.0368512 0)
(2.12938 0.043512 0)
(2.14687 0.0456929 0)
(2.16577 0.0450881 0)
(2.18264 0.0421689 0)
(2.19864 0.034998 0)
(2.21043 0.0249603 0)
(2.2284 0.021905 0)
(1.66644 0.832141 0)
(1.92464 0.717418 0)
(2.07941 0.635027 0)
(2.26347 0.443998 0)
(2.42321 0.181028 0)
(2.49033 0.095784 0)
(2.49858 0.0372828 0)
(2.57829 -0.134111 0)
(2.61914 -0.231659 0)
(2.64484 -0.259016 0)
(2.63376 -0.274593 0)
(2.62646 -0.267714 0)
(2.61035 -0.239711 0)
(2.59182 -0.186789 0)
(2.57776 -0.154223 0)
(2.56455 -0.120526 0)
(2.54909 -0.0748451 0)
(2.54296 -0.0533213 0)
(2.53552 -0.0553699 0)
(2.52407 -0.0453915 0)
(2.50502 -0.0223789 0)
(2.4971 0.0159636 0)
(2.5 0.0317139 0)
(2.50281 0.0210403 0)
(2.50758 0.00508107 0)
(2.5074 -0.000460585 0)
(2.50314 -0.00105542 0)
(2.50107 -0.00478855 0)
(2.50457 -0.0157913 0)
(2.50387 -0.0182433 0)
(2.50309 -0.0172103 0)
(2.50132 -0.0135359 0)
(2.49901 -0.00428377 0)
(2.50175 0.00884926 0)
(2.49199 -0.0075966 0)
(2.35681 -0.169648 0)
(2.16124 -0.42247 0)
(2.0051 -0.663629 0)
(1.8226 -0.535598 0)
(1.57799 -0.279417 0)
(1.46274 -0.143571 0)
(1.45525 -0.0667306 0)
(1.49547 -0.0389686 0)
(1.52 -0.055747 0)
(1.53915 -0.0652738 0)
(1.55168 -0.058558 0)
(1.55412 -0.0419236 0)
(1.56115 -0.0220242 0)
(1.57977 -0.0132529 0)
(1.60224 -0.0129698 0)
(1.62951 -0.0177471 0)
(1.65308 -0.0205715 0)
(1.67252 -0.0204644 0)
(1.69212 -0.0191728 0)
(1.70921 -0.014065 0)
(1.72078 -0.00283171 0)
(1.72985 0.00886371 0)
(1.74615 0.0133706 0)
(1.76566 0.013806 0)
(1.78518 0.0120311 0)
(1.80467 0.0078856 0)
(1.82279 0.0060489 0)
(1.84143 0.00566319 0)
(1.85855 0.00753883 0)
(1.86916 0.0172098 0)
(1.87379 0.0287673 0)
(1.88548 0.0299311 0)
(1.9032 0.0257167 0)
(1.92113 0.0204372 0)
(1.93871 0.014892 0)
(1.95759 0.012725 0)
(1.97637 0.0144423 0)
(1.99573 0.0187398 0)
(2.01358 0.0231329 0)
(2.02926 0.0307287 0)
(2.03778 0.04297 0)
(2.04247 0.0503966 0)
(2.05328 0.0489033 0)
(2.06688 0.0437351 0)
(2.07841 0.0365067 0)
(2.09013 0.0297969 0)
(2.10578 0.028091 0)
(2.12196 0.028563 0)
(2.13738 0.0329516 0)
(2.14882 0.0447379 0)
(2.15503 0.0566308 0)
(2.1655 0.0589971 0)
(2.18033 0.0565168 0)
(2.19527 0.0525833 0)
(2.20861 0.0463611 0)