/*--------------------------------*- C++ -*----------------------------------*\
  =========                 |
  \\      /  F ield         | OpenFOAM: The Open Source CFD Toolbox
   \\    /   O peration     | Website:  https://openfoam.org
    \\  /    A nd           | Version:  7
     \\/     M anipulation  |
\*---------------------------------------------------------------------------*/
FoamFile
{
    version     2.0;
    format      ascii;
    class       volScalarField;
    location    "0.9";
    object      p;
}
// * * * * * * * * * * * * * * * * * * * * * * * * * * * * * * * * * * * * * //

dimensions      [1 -1 -2 0 0 0 0];

internalField   nonuniform List<scalar> 
4128
(
4.39859
4.28002
4.16071
4.04514
3.92947
3.82885
3.72488
3.62196
3.52613
3.4271
3.34258
3.2544
3.16301
3.08171
2.99357
2.91632
2.84428
2.76613
2.69843
2.63182
2.56285
2.50646
2.4441
2.3826
2.33366
2.27381
2.22067
2.17143
2.11918
2.08098
2.03698
1.9934
1.95463
1.90753
1.8701
1.83238
1.79254
1.75673
1.71597
1.68642
1.65518
1.63128
1.61198
1.58473
1.55898
1.52669
1.49252
1.45925
1.43078
1.40837
1.37998
1.3629
1.34819
1.33297
1.31889
1.3031
1.28504
1.26142
1.23831
1.20933
1.18517
1.17763
1.16298
1.15985
1.56526
4.2271
5.31127
5.29023
5.25354
5.21566
5.17882
5.11773
5.02686
4.91234
4.79586
4.71046
4.63554
4.55926
4.47737
4.38494
4.26978
4.13521
5.22669
5.09419
4.96981
4.84039
4.7035
4.57436
4.45887
4.33859
4.22168
4.101
3.99715
3.89425
3.78623
3.68615
3.58175
3.49357
3.40555
3.31014
3.22458
3.13286
3.05034
2.97928
2.89961
2.82771
2.75973
2.68527
2.62513
2.56096
2.4952
2.443
2.38281
2.32596
2.27518
2.21927
2.17588
2.13264
2.08377
2.04489
1.99766
1.95396
1.91899
1.87395
1.8372
1.79598
1.76036
1.73267
1.70174
1.68217
1.65495
1.62508
1.59408
1.55666
1.52327
1.4906
1.46644
1.44143
1.41639
1.40386
1.38832
1.37364
1.35863
1.3398
1.31324
1.28334
1.25626
1.2294
1.21821
1.21236
1.20283
1.17891
1.19521
2.35376
4.90347
5.27503
5.22231
5.20636
5.17509
5.1228
5.0319
4.91191
4.79203
4.70693
4.63813
4.56974
4.49449
4.4054
4.29045
4.15293
5.27555
5.15176
5.02366
4.89001
4.75258
4.63512
4.51561
4.39617
4.27285
4.16108
4.06174
3.95123
3.84782
3.73961
3.64376
3.557
3.45869
3.36866
3.27676
3.18736
3.11636
3.03626
2.96021
2.89156
2.81181
2.74693
2.68086
2.61058
2.55457
2.4942
2.4341
2.38207
2.32342
2.27405
2.23069
2.17732
2.13672
2.09049
2.0417
2.00635
1.9597
1.91909
1.87933
1.83785
1.81041
1.77717
1.75273
1.72762
1.69334
1.66299
1.62527
1.58901
1.55501
1.52545
1.50327
1.4758
1.4599
1.44694
1.43009
1.41452
1.39421
1.36798
1.33412
1.30499
1.27903
1.26214
1.25561
1.24717
1.23668
1.21706
1.19421
1.34425
3.49128
5.13513
5.24315
5.20118
5.16002
5.10439
5.01818
4.90884
4.80605
4.72587
4.65747
4.59058
4.51507
4.42121
4.30103
4.1582
5.32688
5.20327
5.0739
4.93499
4.80719
4.69342
4.57383
4.45271
4.32668
4.22701
4.11965
4.01113
3.90162
3.79521
3.71052
3.61277
3.51694
3.42382
3.32565
3.2534
3.17459
3.09346
3.02346
2.94128
2.87153
2.80477
2.73029
2.6693
2.60789
2.54378
2.4912
2.4309
2.37547
2.33141
2.27467
2.2308
2.18588
2.13363
2.09482
2.04972
2.00282
1.96427
1.91966
1.88805
1.85707
1.82547
1.80131
1.76629
1.73192
1.6972
1.65697
1.62288
1.58907
1.56501
1.54016
1.51704
1.50476
1.48826
1.47058
1.45188
1.4254
1.38879
1.35198
1.328
1.30952
1.30122
1.29432
1.28275
1.27029
1.2512
1.21048
1.20489
1.80524
4.3587
5.26384
5.20596
5.13865
5.06254
4.98375
4.89974
4.82489
4.75639
4.68697
4.61473
4.53021
4.42594
4.29563
4.15049
5.37599
5.25022
5.11799
4.98019
4.86641
4.74847
4.62907
4.49982
4.3882
4.28662
4.17449
4.06777
3.95046
3.86137
3.76937
3.668
3.57552
3.47004
3.39034
3.31431
3.22915
3.1574
3.07515
2.99871
2.93175
2.85418
2.78744
2.72626
2.65716
2.60317
2.54227
2.4808
2.4339
2.37511
2.32685
2.28362
2.22982
2.18612
2.14353
2.09036
2.05063
2.00546
1.96698
1.93813
1.90067
1.87481
1.84203
1.80252
1.77007
1.72889
1.69313
1.65845
1.62843
1.60628
1.57887
1.56351
1.54886
1.52884
1.5096
1.48324
1.44689
1.40527
1.37763
1.36066
1.34876
1.34154
1.33109
1.31687
1.3004
1.27599
1.23855
1.21032
1.25236
2.60732
4.86765
5.22608
5.11909
5.03795
4.9594
4.89665
4.84473
4.78755
4.71852
4.63885
4.54371
4.4268
4.2872
4.14635
5.42736
5.3003
5.16235
5.03544
4.92311
4.8041
4.68032
4.55229
4.4534
4.34331
4.2337
4.11401
4.00815
3.92448
3.82302
3.72877
3.62333
3.53078
3.45814
3.3701
3.29077
3.20851
3.12477
3.05897
2.9812
2.90786
2.84771
2.775
2.71806
2.65771
2.59066
2.53923
2.47934
2.42441
2.38311
2.3296
2.28059
2.23983
2.18319
2.13959
2.09471
2.04925
2.01985
1.98016
1.94881
1.91879
1.87721
1.84257
1.80451
1.76495
1.73135
1.69617
1.67233
1.64564
1.62379
1.60965
1.58958
1.56753
1.54311
1.50622
1.46327
1.4282
1.41234
1.39944
1.39067
1.38147
1.36689
1.34991
1.32621
1.28904
1.26266
1.24017
1.23936
1.46459
3.58333
5.05805
5.11343
5.03294
4.96361
4.90726
4.86052
4.81114
4.74479
4.66126
4.55708
4.42851
4.28419
4.15307
5.47323
5.34406
5.20844
5.09516
4.97632
4.85556
4.72187
4.61052
4.51005
4.39872
4.28916
4.16642
4.07793
3.98162
3.88042
3.78132
3.67331
3.59998
3.5163
3.42996
3.35017
3.25657
3.18794
3.11312
3.03245
2.96949
2.89562
2.83429
2.77662
2.70563
2.64812
2.5893
2.5245
2.4832
2.43186
2.37776
2.33674
2.28035
2.23149
2.18702
2.13665
2.10274
2.06438
2.02468
1.99603
1.95543
1.91555
1.88179
1.83884
1.80552
1.76903
1.73898
1.71545
1.68683
1.67116
1.65194
1.6275
1.60304
1.56772
1.52302
1.48435
1.46426
1.45279
1.44112
1.43217
1.41846
1.40022
1.37895
1.34556
1.30541
1.29018
1.27738
1.25793
1.26878
1.93148
4.29982
5.1044
5.0482
4.9753
4.91851
4.86792
4.81889
4.7538
4.66776
4.55765
4.42569
4.28705
4.16926
5.51912
5.38168
5.25824
5.14772
5.02959
4.90563
4.77666
4.6761
4.56416
4.4549
4.3332
4.22639
4.14055
4.03642
3.9396
3.82561
3.73954
3.66474
3.57248
3.49135
3.39522
3.31557
3.24645
3.16208
3.09377
3.021
2.95103
2.89709
2.82591
2.75999
2.70298
2.62992
2.58384
2.53596
2.47781
2.43414
2.3803
2.32547
2.28188
2.22913
2.18774
2.15264
2.10503
2.07432
2.03659
1.99204
1.95936
1.9166
1.88019
1.84545
1.80866
1.78464
1.75413
1.73301
1.71513
1.68919
1.66286
1.6311
1.5838
1.54473
1.51865
1.50666
1.49383
1.4831
1.47124
1.45238
1.43072
1.40188
1.35782
1.33346
1.32283
1.31196
1.29564
1.28174
1.33914
2.58997
4.69703
5.0695
4.98868
4.92559
4.86796
4.80983
4.73968
4.65297
4.54577
4.4225
4.3005
4.19771
5.56292
5.42675
5.3128
5.19532
5.07638
4.94536
4.83699
4.73333
4.61911
4.50638
4.38054
4.29422
4.19776
4.09661
3.99102
3.88117
3.80874
3.71981
3.63233
3.54289
3.44677
3.37999
3.29812
3.21994
3.14945
3.06874
3.01557
2.94985
2.87585
2.81872
2.74357
2.6862
2.64165
2.58165
2.53204
2.48139
2.42023
2.37712
2.32536
2.2757
2.24203
2.19185
2.15451
2.11999
2.07329
2.03717
1.9982
1.95602
1.92338
1.88317
1.85353
1.82568
1.79598
1.77881
1.753
1.7238
1.69471
1.64852
1.60563
1.57854
1.56154
1.54958
1.53469
1.52349
1.50577
1.48249
1.45661
1.41709
1.37887
1.36831
1.35627
1.34448
1.33192
1.31649
1.30043
1.49657
3.31666
4.84579
5.0287
4.9492
4.88327
4.81683
4.74052
4.64873
4.54164
4.42945
4.32651
4.23713
5.60268
5.47174
5.35979
5.24204
5.11681
4.99354
4.89866
4.7873
4.67731
4.55027
4.44053
4.35358
4.24932
4.15306
4.03706
3.95034
3.87104
3.77513
3.68918
3.58461
3.50885
3.43648
3.34991
3.2798
3.19382
3.13102
3.07481
2.9977
2.93502
2.86476
2.79204
2.74788
2.68917
2.63184
2.58449
2.51851
2.47229
2.42492
2.36895
2.33159
2.28423
2.23716
2.20475
2.15889
2.11647
2.08235
2.0352
2.00147
1.96253
1.92471
1.89874
1.8633
1.84248
1.81902
1.78643
1.75714
1.71695
1.66716
1.64119
1.61983
1.60631
1.59003
1.57528
1.55998
1.53575
1.50977
1.47685
1.43131
1.41382
1.4043
1.39
1.37771
1.36497
1.35004
1.3156
1.31205
1.80643
3.95469
4.96472
4.99902
4.92082
4.84044
4.75499
4.65564
4.54684
4.44418
4.35808
4.28155
5.66966
5.52981
5.40779
5.28629
5.15157
5.04727
4.95237
4.84367
4.73034
4.60114
4.50811
4.40554
4.30308
4.19779
4.0903
4.01829
3.92577
3.8348
3.73604
3.63839
3.57277
3.48752
3.40997
3.32925
3.24572
3.19508
3.124
3.05125
2.98793
2.90584
2.85521
2.80078
2.73609
2.6874
2.62207
2.56665
2.52514
2.46781
2.42261
2.38087
2.32435
2.29027
2.24808
2.19943
2.16573
2.11861
2.07942
2.04421
2.00031
1.97131
1.93718
1.90763
1.88663
1.85293
1.82013
1.78661
1.73307
1.7037
1.6834
1.66431
1.64977
1.62887
1.61357
1.59099
1.56261
1.53406
1.49195
1.45987
1.45218
1.43865
1.42416
1.41066
1.39541
1.37641
1.34408
1.31358
1.34562
2.3114
4.40962
5.01308
4.95296
4.85572
4.75945
4.65791
4.55451
4.46156
4.38512
4.31918
5.72672
5.60415
5.47374
5.3391
5.20291
5.10456
5.00052
4.89562
4.77451
4.66678
4.56883
4.45675
4.35551
4.23525
4.15208
4.0758
3.98014
3.89194
3.78097
3.70461
3.62979
3.54166
3.4672
3.37253
3.31113
3.2522
3.17248
3.10899
3.02871
2.96369
2.91501
2.84772
2.79177
2.73229
2.66292
2.62349
2.57103
2.51647
2.47778
2.41875
2.37666
2.33956
2.28766
2.2488
2.20674
2.15815
2.12526
2.08146
2.04436
2.01481
1.97634
1.95461
1.92364
1.8853
1.85411
1.80591
1.76575
1.74876
1.72577
1.70929
1.68804
1.66677
1.64722
1.61772
1.5891
1.55546
1.5129
1.50025
1.48941
1.47236
1.45794
1.44058
1.42173
1.39654
1.37048
1.3397
1.33913
1.47082
2.90944
4.69516
4.97165
4.86911
4.75686
4.66357
4.57707
4.49561
4.42047
4.35302
5.67432
5.65622
5.54137
5.39092
5.26126
5.15582
5.04609
4.93184
4.81668
4.7279
4.62375
4.52019
4.40317
4.28551
4.21588
4.12492
4.03468
3.93571
3.8367
3.76958
3.68176
3.60246
3.51638
3.42959
3.37707
3.30128
3.22713
3.15446
3.07238
3.0258
2.96511
2.89998
2.84669
2.7697
2.72104
2.67621
2.61553
2.57272
2.51946
2.46447
2.43087
2.38121
2.33384
2.29677
2.24137
2.20495
2.16605
2.12055
2.09141
2.05186
2.02309
1.99663
1.95543
1.92115
1.88262
1.83171
1.81365
1.79228
1.76938
1.75101
1.72236
1.70201
1.6756
1.64386
1.61617
1.5751
1.54964
1.54081
1.52342
1.50635
1.48827
1.46661
1.44495
1.41722
1.3985
1.37987
1.36187
1.36605
1.68064
3.51384
4.77075
4.88092
4.77613
4.68838
4.61686
4.54379
4.46851
4.39025
5.12416
5.63017
5.60404
5.45907
5.31745
5.206
5.0924
4.96689
4.86674
4.77535
4.67395
4.57851
4.45122
4.35864
4.27368
4.17382
4.08646
3.97873
3.903
3.82683
3.73615
3.65793
3.5584
3.49494
3.43363
3.35121
3.28264
3.19359
3.13243
3.08253
3.01266
2.95684
2.88715
2.82055
2.781
2.72211
2.66886
2.62271
2.55668
2.51979
2.47725
2.42242
2.38476
2.33291
2.28531
2.25107
2.20317
2.16732
2.13254
2.09331
2.06919
2.03092
1.98938
1.95695
1.90564
1.87788
1.86049
1.83268
1.81256
1.78446
1.75574
1.73344
1.70139
1.67341
1.64307
1.60448
1.59246
1.57709
1.55588
1.5386
1.51344
1.49159
1.46969
1.44488
1.43082
1.41532
1.39795
1.38067
1.39508
1.99233
3.9616
4.74946
4.79577
4.72763
4.65778
4.58985
4.52002
4.43722
3.122
5.22528
5.55758
5.50943
5.37679
5.25348
5.13426
5.01774
4.92324
4.82421
4.7323
4.62517
4.51359
4.42973
4.32399
4.22833
4.12587
4.0282
3.96533
3.87818
3.79664
3.70609
3.61416
3.56076
3.48363
3.40789
3.33048
3.24452
3.19697
3.13291
3.06634
3.00634
2.92645
2.88241
2.83267
2.77034
2.72534
2.65988
2.60812
2.57325
2.51801
2.47193
2.42835
2.3696
2.33474
2.29117
2.24521
2.21363
2.16878
2.14024
2.10893
2.06271
2.02917
1.98709
1.94512
1.92908
1.90175
1.87442
1.8505
1.81294
1.78886
1.76207
1.73001
1.70658
1.67038
1.64562
1.63125
1.60794
1.58759
1.56558
1.53756
1.52017
1.49877
1.47902
1.46426
1.4442
1.4322
1.41399
1.39453
1.44348
2.38267
4.22288
4.75872
4.77162
4.70281
4.62872
4.55717
4.47835
1.37614
3.41273
5.16275
5.50266
5.45159
5.31931
5.17506
5.07072
4.97613
4.87918
4.78172
4.66744
4.58198
4.48306
4.37416
4.27968
4.16304
4.09304
4.02358
3.93446
3.85556
3.75112
3.68116
3.61588
3.53094
3.463
3.3747
3.31082
3.25818
3.18498
3.12343
3.04399
2.98072
2.94018
2.87776
2.82507
2.77134
2.70114
2.6662
2.61897
2.5625
2.52223
2.46292
2.4184
2.38129
2.33001
2.29417
2.25244
2.21212
2.18561
2.14233
2.10077
2.068
2.01947
1.99753
1.97414
1.94009
1.91537
1.87916
1.84424
1.82195
1.79098
1.76507
1.74039
1.70477
1.68596
1.66313
1.63694
1.61723
1.58795
1.56769
1.55353
1.53175
1.51511
1.4951
1.47418
1.4637
1.44638
1.41471
1.40218
1.53496
2.78832
4.37794
4.80895
4.7632
4.6765
4.58692
4.49967
1.01573
1.49305
3.50932
5.18203
5.4703
5.38505
5.23667
5.12039
5.02621
4.93654
4.82883
4.73393
4.6465
4.5317
4.43238
4.31968
4.21423
4.15688
4.07336
3.99287
3.90422
3.80946
3.74732
3.66392
3.58584
3.50849
3.42252
3.37542
3.30984
3.23932
3.17185
3.08694
3.04328
2.99121
2.9279
2.87914
2.80607
2.75555
2.71893
2.66022
2.6136
2.56303
2.50438
2.47009
2.42212
2.3758
2.33971
2.28927
2.25993
2.22472
2.17629
2.14446
2.10154
2.06754
2.04768
2.01255
1.9806
1.9504
1.9053
1.88016
1.85526
1.82487
1.80451
1.77341
1.74324
1.7204
1.69013
1.66679
1.64351
1.6152
1.60427
1.58833
1.56648
1.54931
1.52265
1.50661
1.49272
1.47301
1.44563
1.4103
1.41232
1.68019
3.16567
4.53955
4.78604
4.71456
4.61787
4.51045
1.00016
1.02325
1.57913
3.56213
5.2612
5.40159
5.29173
5.16636
5.07982
4.98586
4.88792
4.80481
4.69321
4.57614
4.47669
4.3509
4.28095
4.21925
4.13289
4.05322
3.95229
3.87669
3.79974
3.71026
3.64049
3.54755
3.48622
3.4355
3.35887
3.2939
3.21103
3.14348
3.10155
3.038
2.9837
2.92362
2.8503
2.81492
2.76447
2.70608
2.66135
2.59665
2.55483
2.51605
2.46299
2.42599
2.37776
2.33585
2.30661
2.25951
2.21909
2.18493
2.14018
2.11945
2.08929
2.04909
2.02009
1.97737
1.9403
1.91901
1.88997
1.86499
1.84231
1.80589
1.77791
1.7482
1.71757
1.69753
1.66953
1.65247
1.6431
1.62168
1.60075
1.57848
1.55103
1.5388
1.52037
1.49655
1.4756
1.43779
1.42282
1.43983
1.88783
3.52914
4.61986
4.73876
4.65469
4.51456
1
1.00024
1.03207
1.61362
3.73807
5.2709
5.30052
5.22999
5.14262
5.02412
4.94411
4.85931
4.74184
4.63611
4.50959
4.38802
4.33963
4.27014
4.19243
4.1035
4.01322
3.93698
3.8439
3.76567
3.68083
3.59021
3.54872
3.4832
3.40921
3.34348
3.25599
3.20757
3.1537
3.08813
3.03558
2.95839
2.90691
2.86804
2.80617
2.75668
2.69955
2.63818
2.60519
2.55617
2.5097
2.46973
2.41674
2.38631
2.34729
2.29752
2.26532
2.22001
2.18927
2.16578
2.12407
2.08832
2.05355
2.00593
1.98231
1.95799
1.9285
1.90742
1.87537
1.83758
1.80833
1.774
1.74992
1.72925
1.7038
1.69485
1.68019
1.65397
1.6329
1.60305
1.58182
1.56891
1.54536
1.52146
1.49981
1.47055
1.45677
1.45256
1.48451
2.12136
3.81587
4.63069
4.67669
4.53839
1
1
1.00038
1.03746
1.70207
3.95045
5.14232
5.21465
5.16473
5.05328
4.97753
4.89228
4.79651
4.70076
4.55346
4.44787
4.39593
4.324
4.24328
4.15452
4.07853
3.99224
3.90325
3.82284
3.71178
3.65358
3.60538
3.52448
3.4617
3.38681
3.31652
3.27108
3.20322
3.14299
3.07604
3.00043
2.96507
2.91297
2.85244
2.80484
2.73345
2.68972
2.65136
2.59733
2.55769
2.50593
2.46444
2.43382
2.3841
2.34361
2.30576
2.26084
2.23932
2.20413
2.15916
2.12725
2.08117
2.04697
2.02583
1.99667
1.97102
1.94573
1.90278
1.86785
1.83625
1.80413
1.78689
1.76323
1.74686
1.73711
1.71304
1.68583
1.66135
1.62908
1.6139
1.59688
1.56978
1.54805
1.52221
1.50477
1.49848
1.48218
1.46859
1.53607
2.36304
4.03002
4.53002
4.56043
1
1
1
1.0005
1.04951
1.83277
4.05189
4.99299
5.16695
5.10518
5.01702
4.92632
4.84773
4.7551
4.61759
4.51974
4.45262
4.37392
4.28125
4.20175
4.1283
4.04522
3.97378
3.87158
3.76856
3.72384
3.65041
3.57187
3.51028
3.42797
3.38007
3.325
3.25416
3.19443
3.11007
3.05688
3.01685
2.95304
2.90266
2.84407
2.77625
2.74296
2.6939
2.6448
2.60035
2.54492
2.5155
2.47611
2.42508
2.38989
2.34077
2.30941
2.28316
2.2367
2.19865
2.16135
2.11538
2.09368
2.0673
2.03673
2.0122
1.97457
1.92881
1.8984
1.86522
1.84249
1.82594
1.80281
1.79204
1.77453
1.74232
1.71711
1.68756
1.66086
1.64643
1.62301
1.5959
1.5757
1.5492
1.53868
1.5334
1.51365
1.47957
1.47157
1.59446
2.60433
4.08211
4.49723
1
1
1
1
1.00082
1.06556
1.96226
3.91195
4.95287
5.15206
5.08443
4.9957
4.91435
4.81099
4.67664
4.57915
4.50549
4.41838
4.33042
4.25571
4.17721
4.10321
4.02288
3.90198
3.8385
3.77903
3.68917
3.62701
3.55294
3.48261
3.44228
3.3741
3.30735
3.23323
3.15347
3.11538
3.06085
2.99944
2.95161
2.87702
2.83042
2.7929
2.73694
2.69351
2.63773
2.59292
2.56479
2.51598
2.47223
2.42952
2.3817
2.35783
2.31934
2.27151
2.23814
2.19088
2.16144
2.13938
2.10739
2.07885
2.04762
1.9957
1.95953
1.9317
1.90092
1.88571
1.86497
1.84729
1.83355
1.80431
1.7711
1.74714
1.71486
1.69543
1.67764
1.64839
1.62504
1.60511
1.58159
1.57341
1.56237
1.5387
1.50486
1.47623
1.48089
1.67132
2.80741
4.12105
1
1
1
1
1
1.00121
1.07896
1.92285
3.73412
4.98447
5.13603
5.08459
4.9953
4.87816
4.73426
4.6401
4.56135
4.4678
4.37899
4.29942
4.22801
4.16487
4.06324
3.96661
3.90963
3.81955
3.73546
3.67469
3.58842
3.54344
3.49855
3.42574
3.35894
3.27043
3.21207
3.16682
3.10242
3.05271
2.99077
2.92025
2.88762
2.83746
2.78363
2.73844
2.67501
2.64325
2.61038
2.55953
2.51908
2.46669
2.43068
2.40125
2.35162
2.31191
2.27182
2.22897
2.21019
2.18114
2.14702
2.11716
2.07117
2.0207
1.99598
1.96696
1.94457
1.92894
1.90561
1.89032
1.86701
1.82868
1.80116
1.77502
1.74542
1.72925
1.70615
1.67501
1.65632
1.63607
1.61569
1.60628
1.58761
1.5599
1.53365
1.5063
1.49185
1.5022
1.77004
2.96631
1
1
1
1
1
1
1.00139
1.07195
1.81635
3.71993
5.01088
5.10266
5.05706
4.94078
4.78532
4.69897
4.62204
4.53025
4.43997
4.35642
4.28403
4.20235
4.09949
4.03866
3.95942
3.85707
3.79375
3.71715
3.63177
3.60185
3.54834
3.47991
3.40557
3.32154
3.26947
3.2092
3.15041
3.09977
3.02143
2.97888
2.9409
2.88007
2.83449
2.78056
2.71855
2.69333
2.65315
2.60452
2.55915
2.50823
2.47932
2.43942
2.39004
2.35303
2.3023
2.27686
2.25568
2.21931
2.18496
2.14737
2.08842
2.05706
2.03667
2.00767
1.99127
1.97008
1.94906
1.92836
1.89282
1.85532
1.83309
1.80081
1.77664
1.75968
1.73152
1.70347
1.68807
1.66768
1.6495
1.63644
1.61256
1.58342
1.56185
1.54465
1.5272
1.51088
1.52371
1.85879
1
1
1
1
1
1
1
1.00116
1.06236
1.78749
3.85909
4.92797
5.03132
4.98793
4.86329
4.75756
4.66624
4.5712
4.48436
4.41223
4.33584
4.23833
4.16883
4.10145
3.99402
3.90595
3.84451
3.74766
3.68927
3.66207
3.60043
3.53194
3.45204
3.37979
3.31881
3.25422
3.2028
3.1294
3.06877
3.04008
2.98544
2.92635
2.88543
2.81822
2.76714
2.74261
2.69621
2.64891
2.59761
2.55467
2.52383
2.47561
2.4335
2.38771
2.34309
2.32701
2.29714
2.25709
2.22012
2.16808
2.11641
2.10211
2.07895
2.05428
2.03549
2.0111
1.98993
1.95921
1.91629
1.88847
1.8646
1.828
1.80844
1.78749
1.75653
1.73454
1.71991
1.69793
1.68145
1.66576
1.63983
1.61431
1.59305
1.57861
1.56615
1.54116
1.52076
1.53956
1
1
1
1
1
1
1
1
1.00103
1.06491
1.86694
3.9213
4.75392
4.97285
4.93891
4.82741
4.7198
4.62275
4.53936
4.45966
4.36812
4.29132
4.24044
4.14733
4.03339
3.96484
3.88613
3.78486
3.75178
3.72044
3.65472
3.58242
3.50464
3.43229
3.36121
3.3018
3.2357
3.16121
3.13271
3.09196
3.02501
2.98148
2.93648
2.85533
2.8189
2.78934
2.7379
2.68951
2.63675
2.60098
2.56504
2.51756
2.47673
2.42021
2.39274
2.37259
2.33286
2.29183
2.24913
2.18757
2.16057
2.14958
2.12354
2.10133
2.07553
2.0513
2.02482
1.98477
1.94696
1.92677
1.89424
1.85953
1.8402
1.81375
1.78409
1.76725
1.75034
1.72614
1.71203
1.69529
1.66956
1.64884
1.62705
1.61162
1.59707
1.57408
1.53918
1.53178
1
1
1
1
1
1
1
1
1
1.00132
1.07548
1.96154
3.70923
4.70874
4.94231
4.88166
4.78
4.68608
4.59799
4.50112
4.41052
4.36048
4.29679
4.18019
4.08498
4.01891
3.92141
3.84108
3.8204
3.77809
3.70471
3.62783
3.5539
3.48235
3.41433
3.3448
3.25743
3.21854
3.19319
3.1314
3.07346
3.0404
2.97792
2.8986
2.87386
2.8335
2.77746
2.72933
2.67961
2.64661
2.60618
2.56353
2.51377
2.46112
2.44129
2.41051
2.36498
2.32443
2.27302
2.21982
2.21162
2.19778
2.17052
2.14295
2.11174
2.08601
2.05281
2.01086
1.98585
1.96354
1.92295
1.89461
1.87112
1.84025
1.81759
1.80335
1.77917
1.7554
1.74447
1.72648
1.70128
1.68315
1.66092
1.64129
1.62291
1.5987
1.57211
1.54888
1
1
1
1
1
1
1
1
1
1.00001
1.00163
1.08566
1.86289
3.45351
4.7175
4.91231
4.84991
4.74383
4.6503
4.53898
4.46492
4.42671
4.34051
4.21746
4.14141
4.06408
3.95958
3.90703
3.88805
3.83264
3.75326
3.67629
3.60168
3.52938
3.45951
3.36426
3.3025
3.28501
3.23761
3.16747
3.13419
3.09686
3.00925
2.95266
2.92703
2.87247
2.81705
2.76695
2.7211
2.69053
2.65077
2.60994
2.55019
2.51069
2.48547
2.44224
2.39601
2.35636
2.29965
2.26843
2.26582
2.24598
2.21579
2.17888
2.14533
2.1168
2.07931
2.04605
2.02647
1.99415
1.95364
1.9278
1.89883
1.86961
1.85622
1.84071
1.8083
1.79075
1.77948
1.75753
1.73367
1.71446
1.69115
1.66543
1.64396
1.62122
1.6012
1.58178
1
1
1
1
1
1
1
1
1
1
1.00001
1.0017
1.06826
1.67147
3.33677
4.73031
4.81496
4.7822
4.72241
4.59959
4.52072
4.47601
4.37478
4.27074
4.19996
4.11055
4.0114
3.9753
3.94943
3.87935
3.79633
3.7215
3.65057
3.58189
3.4916
3.39766
3.37182
3.34202
3.2711
3.22016
3.1936
3.13635
3.04305
3.01232
2.97495
2.90904
2.85919
2.80741
2.76482
2.73374
2.69732
2.65158
2.59232
2.55861
2.52163
2.46866
2.42841
2.39059
2.33712
2.32403
2.31916
2.29224
2.25422
2.20877
2.17597
2.14624
2.11178
2.0885
2.0628
2.02024
1.98654
1.95834
1.92482
1.90567
1.89774
1.87513
1.8416
1.82941
1.81389
1.7883
1.76584
1.7451
1.71662
1.68763
1.66544
1.6471
1.6288
1.61297
1
1
1
1
1
1
1
1
1
1
1
1.00001
1.00109
1.04474
1.58559
3.30729
4.60448
4.76973
4.77238
4.69514
4.59701
4.52195
4.41215
4.32605
4.25057
4.1545
4.06933
4.04266
4.00551
3.92657
3.84405
3.7687
3.69836
3.62143
3.51355
3.45898
3.44163
3.38399
3.31281
3.28484
3.24656
3.16048
3.092
3.06873
3.01374
2.94733
2.90334
2.84822
2.81042
2.77959
2.74442
2.6911
2.63975
2.60098
2.55012
2.4961
2.46703
2.42712
2.38819
2.38471
2.36999
2.33276
2.28724
2.23805
2.20649
2.17867
2.15309
2.1307
2.09343
2.0508
2.01967
1.98656
1.95732
1.94948
1.93795
1.90526
1.88141
1.86721
1.84446
1.81843
1.79693
1.77318
1.73688
1.709
1.69255
1.67495
1.65797
1.64276
1
1
1
1
1
1
1
1
1
1
1
1
1
1.00064
1.03839
1.55451
3.252
4.44977
4.71209
4.72366
4.66238
4.57018
4.46592
4.38827
4.3048
4.20029
4.12773
4.10221
4.0538
3.97135
3.8915
3.82016
3.74835
3.65119
3.55669
3.53352
3.49643
3.41797
3.3713
3.34247
3.28442
3.18802
3.15259
3.11908
3.04719
2.99198
2.94756
2.89022
2.8574
2.82778
2.78706
2.73127
2.68508
2.63663
2.57459
2.53503
2.51111
2.46538
2.44657
2.44184
2.41096
2.36531
2.31762
2.27013
2.24178
2.21832
2.19634
2.16476
2.11885
2.08212
2.04975
2.01569
2.00201
1.99607
1.97249
1.93823
1.91986
1.89928
1.87205
1.84821
1.82624
1.79748
1.75702
1.73483
1.72417
1.70743
1.68826
1.67378
1
1
1
1
1
1
1
1
1
1
1
1
1
1
1.00059
1.03624
1.53131
3.13546
4.32568
4.66148
4.68786
4.61954
4.52943
4.45049
4.3599
4.24965
4.18737
4.16233
4.10444
4.01721
3.9389
3.86835
3.78856
3.67973
3.62544
3.60451
3.53927
3.46559
3.4339
3.39056
3.30698
3.23369
3.21238
3.16034
3.08323
3.04162
2.99116
2.93473
2.90484
2.87481
2.82622
2.77303
2.72299
2.66307
2.60587
2.5847
2.55025
2.50974
2.50554
2.48893
2.4421
2.39446
2.34963
2.30605
2.2823
2.26296
2.23719
2.19175
2.14748
2.11382
2.07885
2.05672
2.05265
2.03756
2.0018
1.97514
1.95438
1.92702
1.90004
1.87888
1.85469
1.81848
1.78116
1.76813
1.75674
1.73933
1.72127
1.7068
1
1
1
1
1
1
1
1
1
1
1
1
1
1
1
1.00055
1.0342
1.48058
2.96197
4.14601
4.6306
4.67036
4.61138
4.52413
4.41534
4.29007
4.23624
4.21623
4.1511
4.06129
3.98696
3.91488
3.82079
3.72764
3.7021
3.66203
3.57837
3.52588
3.48717
3.42497
3.33076
3.29374
3.2657
3.19447
3.13023
3.09305
3.03364
2.98264
2.95301
2.91621
2.86513
2.81268
2.75469
2.68855
2.65736
2.63599
2.58575
2.56623
2.56187
2.52483
2.46735
2.42589
2.38516
2.34556
2.32563
2.3058
2.26791
2.21683
2.17965
2.14457
2.11453
2.10841
2.10125
2.07078
2.03286
2.0097
1.98331
1.9526
1.92883
1.90825
1.8802
1.83877
1.81521
1.80508
1.78944
1.77046
1.7548
1.74173
1
1
1
1
1
1
1
1
1
1
1
1
1
1
1
1
1.0005
1.02723
1.39151
2.68017
3.97748
4.63232
4.66343
4.59404
4.46954
4.32963
4.28656
4.27035
4.19451
4.10583
4.03404
3.95608
3.85222
3.79383
3.77346
3.7083
3.62952
3.58568
3.53204
3.44694
3.37306
3.35412
3.30909
3.22915
3.18448
3.14139
3.07747
3.03315
2.99971
2.95753
2.90729
2.84979
2.78159
2.73136
2.7133
2.67071
2.62638
2.62272
2.6019
2.54844
2.49485
2.46509
2.42278
2.38707
2.36808
2.34031
2.29106
2.24947
2.21426
2.17942
2.16651
2.16275
2.1412
2.09654
2.06688
2.04257
2.01125
1.98242
1.96186
1.93872
1.90256
1.86549
1.8538
1.84111
1.82157
1.80351
1.78923
1.77585
1
1
1
1
1
1
1
1
1
1
1
1
1
1
1
1
1
1.00033
1.0174
1.28755
2.36062
3.92994
4.63451
4.60816
4.50485
4.38844
4.36444
4.34017
4.23741
4.14478
4.07375
3.99141
3.89894
3.86797
3.83531
3.75201
3.68674
3.6364
3.56822
3.47398
3.43288
3.40959
3.34531
3.27514
3.23692
3.18337
3.12334
3.08126
3.04295
3.0008
2.94799
2.88215
2.81866
2.79562
2.76322
2.69834
2.6784
2.67223
2.63098
2.56798
2.53323
2.51094
2.46163
2.42668
2.40358
2.36404
2.32199
2.28723
2.24911
2.22564
2.22112
2.20863
2.1669
2.12477
2.10154
2.07275
2.03981
2.01671
1.99712
1.96869
1.92542
1.90298
1.89236
1.87383
1.85287
1.83693
1.82293
1.80739
1
1
1
1
3.99455
3.86495
3.74819
3.63474
3.50957
3.36833
3.22379
3.09214
2.98144
2.89082
2.81444
2.74647
2.67098
2.57827
2.47285
2.35514
2.21769
2.10154
2.03302
1.96929
1.91782
1.8742
1.82512
1.7703
1.72729
1.68752
1.63725
1.56729
1.4993
1.44007
4.00833
3.87696
3.75777
3.64756
3.53562
3.40753
3.26706
3.13653
3.03434
2.95131
2.87913
2.80987
2.72907
2.63316
2.52375
2.39977
2.26133
2.15941
2.09332
2.03401
1.98956
1.94705
1.89916
1.85001
1.79993
1.74529
1.67529
1.59531
1.52967
1.47883
4.01181
3.88402
3.77066
3.66441
3.55776
3.44132
3.31049
3.1829
3.08512
3.00598
2.93299
2.85916
2.77689
2.68125
2.57029
2.44272
2.30793
2.21785
2.15334
2.10242
2.06138
2.01635
1.96885
1.91844
1.85963
1.79096
1.70688
1.62505
1.56823
1.52514
4.01339
3.89816
3.79562
3.69699
3.59563
3.48525
3.36209
3.23981
3.14153
3.06083
2.98315
2.90283
2.81833
2.72455
2.61459
2.48554
2.36117
2.27759
2.21728
2.17043
2.12695
2.07961
2.03013
1.97497
1.90979
1.83084
1.73848
1.65992
1.61464
1.57988
4.02449
3.92285
3.83006
3.73774
3.63983
3.53163
3.41249
3.29238
3.19031
3.1065
3.02565
2.94197
2.85659
2.7641
2.65561
2.52858
2.41369
2.33512
2.27931
2.23124
2.18463
2.13638
2.08391
2.02511
1.9551
1.86474
1.76682
1.70375
1.66789
1.63729
4.04613
3.95403
3.86686
3.77851
3.6828
3.57515
3.45621
3.33487
3.2287
3.14182
3.05974
2.97441
2.88796
2.79808
2.69368
2.57357
2.46359
2.38878
2.33522
2.28596
2.23865
2.19
2.13594
2.07473
1.99777
1.8937
1.79984
1.75301
1.72018
1.69259
4.07434
3.98902
3.90504
3.81751
3.72087
3.61003
3.4854
3.35983
3.25466
3.17087
3.09008
3.00639
2.9219
2.83419
2.73555
2.62464
2.51865
2.4432
2.38553
2.33416
2.28824
2.24068
2.18629
2.12226
2.03716
1.92493
1.84123
1.79873
1.76802
1.74484
4.11129
4.02968
3.94641
3.85739
3.75694
3.63869
3.50526
3.37815
3.28005
3.20357
3.12671
3.04515
2.96239
2.87653
2.78083
2.67366
2.57173
2.49885
2.4373
2.38081
2.334
2.28857
2.23456
2.1672
2.07527
1.96215
1.88494
1.84391
1.81519
1.79485
4.15657
4.07663
3.99247
3.90085
3.79503
3.66636
3.52543
3.40252
3.31409
3.24494
3.1731
3.09514
3.01424
2.92778
2.82924
2.71985
2.62126
2.55557
2.49481
2.4344
2.38416
2.3364
2.28018
2.20976
2.11276
2.00293
1.93313
1.89391
1.86569
1.8451
4.20738
4.12816
4.04095
3.94175
3.82383
3.68674
3.55165
3.44075
3.36126
3.29614
3.22771
3.15441
3.07656
2.986
2.87793
2.75887
2.66656
2.60851
2.55004
2.48939
2.43703
2.38441
2.32224
2.24676
2.14182
2.04313
1.98689
1.94772
1.91875
1.8961
4.25202
4.17328
4.07913
3.96494
3.83035
3.69474
3.58056
3.48876
3.41854
3.35345
3.28487
3.21548
3.13951
3.04255
2.92253
2.79339
2.7131
2.65985
2.60215
2.54339
2.49194
2.43364
2.36437
2.28045
2.16586
2.08759
2.04306
2.00271
1.97352
1.95023
4.28316
4.20137
4.10096
3.97207
3.82449
3.70469
3.61549
3.54126
3.47837
3.41131
3.34069
3.27153
3.19274
3.08773
2.95727
2.83095
2.76362
2.70965
2.64899
2.59253
2.54156
2.47937
2.40622
2.31018
2.19571
2.13986
2.09872
2.05673
2.02786
2.00478
4.30626
4.21445
4.1066
3.97018
3.82966
3.73188
3.65747
3.59527
3.53482
3.46641
3.39474
3.32242
3.23377
3.11785
2.98197
2.87444
2.81671
2.75949
2.69412
2.63953
2.5869
2.52246
2.44691
2.34035
2.24477
2.19742
2.15397
2.11005
2.08216
2.05837
4.33953
4.22949
4.10551
3.96639
3.85517
3.77955
3.71221
3.65412
3.59027
3.51959
3.44564
3.36636
3.26243
3.13578
3.00361
2.92137
2.86868
2.80829
2.74149
2.68813
2.63075
2.56473
2.48597
2.3799
2.30592
2.25737
2.20981
2.16344
2.13601
2.10815
4.37944
4.25524
4.11074
3.98082
3.90071
3.83612
3.77383
3.71554
3.64749
3.57168
3.49289
3.4009
3.28139
3.14927
3.03186
2.96868
2.91829
2.85586
2.79287
2.73853
2.6771
2.61093
2.52755
2.43416
2.36781
2.31552
2.26362
2.21575
2.18761
2.15197
4.40123
4.27402
4.13166
4.02333
3.95294
3.89105
3.83601
3.77705
3.70466
3.62242
3.53359
3.42375
3.29325
3.16608
3.07025
3.01776
2.96641
2.90401
2.84758
2.79173
2.72972
2.6618
2.57662
2.49298
2.42402
2.36867
2.31212
2.26503
2.23359
2.18983
4.39933
4.28176
4.16899
4.08306
4.01282
3.94904
3.89675
3.83346
3.75725
3.66897
3.56696
3.43968
3.30703
3.19267
3.11808
3.07055
3.01614
2.95673
2.90455
2.84756
2.78681
2.71462
2.62993
2.54579
2.47214
2.41429
2.35436
2.31022
2.27325
2.22257
4.37978
4.28458
4.21314
4.14673
4.07526
4.01247
3.95604
3.88508
3.80374
3.70814
3.58961
3.45164
3.32971
3.23283
3.17562
3.12845
3.07054
3.01528
2.9645
2.90801
2.84449
2.76625
2.67728
2.58601
2.51192
2.45333
2.39268
2.351
2.30819
2.25324
4.37952
4.29763
4.25426
4.20192
4.13706
4.07885
4.01289
3.93534
3.84581
3.73696
3.60258
3.47009
3.36689
3.28713
3.2404
3.19082
3.13177
3.08024
3.02961
2.97067
2.89752
2.80865
2.7099
2.61637
2.54903
2.48956
2.4326
2.39155
2.34308
2.28682
4.45362
4.34845
4.30203
4.25466
4.19645
4.13648
4.06398
3.98211
3.8794
3.75472
3.61608
3.50403
3.41715
3.35381
3.3096
3.25638
3.19665
3.14776
3.09658
3.02904
2.93939
2.83543
2.73098
2.64653
2.58813
2.5281
2.4773
2.43341
2.38241
2.32926
4.52313
4.44653
4.36072
4.29954
4.24871
4.18883
4.11472
4.01881
3.89849
3.76414
3.64123
3.55399
3.47836
3.42832
3.38063
3.3241
3.26277
3.21499
3.15738
3.07332
2.96335
2.8501
2.75177
2.68413
2.62986
2.5726
2.52785
2.48026
2.43032
2.38387
4.52712
4.53816
4.45929
4.3593
4.29377
4.23386
4.15554
4.04202
3.90846
3.77741
3.682
3.60907
3.54466
3.50082
3.44987
3.3896
3.32955
3.27654
3.20329
3.09875
2.97396
2.86463
2.78476
2.73033
2.67442
2.62618
2.58224
2.53235
2.48662
2.44669
4.19706
4.55271
4.54581
4.44488
4.34032
4.26509
4.17528
4.05272
3.92225
3.80971
3.73542
3.66311
3.61047
3.56473
3.51142
3.44866
3.39252
3.32669
3.23561
3.11008
2.98097
2.89188
2.83314
2.78098
2.72614
2.68638
2.63805
2.58859
2.54635
2.50917
3.12059
4.27194
4.54458
4.50147
4.38632
4.27957
4.17874
4.06537
3.95061
3.86482
3.79266
3.72198
3.67549
3.62207
3.56284
3.50338
3.44478
3.36163
3.25576
3.11418
2.99952
2.93986
2.89248
2.83615
2.78922
2.74787
2.69505
2.64579
2.60344
2.56512
1.95363
3.27664
4.3055
4.48845
4.42097
4.29634
4.18522
4.09294
4.00386
3.93255
3.85202
3.79265
3.73945
3.67863
3.61116
3.5542
3.48297
3.38575
3.26677
3.12082
3.04334
3.00303
2.95461
2.89695
2.85514
2.80599
2.75313
2.69847
2.65445
2.613