/*--------------------------------*- C++ -*----------------------------------*\
  =========                 |
  \\      /  F ield         | OpenFOAM: The Open Source CFD Toolbox
   \\    /   O peration     | Website:  https://openfoam.org
    \\  /    A nd           | Version:  7
     \\/     M anipulation  |
\*---------------------------------------------------------------------------*/
FoamFile
{
    version     2.0;
    format      ascii;
    class       volScalarField;
    location    "0.9";
    object      rho;
}
// * * * * * * * * * * * * * * * * * * * * * * * * * * * * * * * * * * * * * //

dimensions      [1 -3 0 0 0 0 0];

internalField   nonuniform List<scalar> 
4128
(
3.17752
3.10955
3.04111
2.97424
2.90729
2.84852
2.78798
2.72788
2.67135
2.61306
2.56291
2.5113
2.45772
2.40936
2.35725
2.31118
2.26817
2.22168
2.18087
2.14051
2.09863
2.06403
2.02597
1.98815
1.95741
1.91996
1.88636
1.85507
1.82189
1.79717
1.76885
1.74085
1.71594
1.68583
1.66161
1.63699
1.6107
1.58666
1.55922
1.53875
1.51709
1.50021
1.48647
1.46768
1.45013
1.42838
1.40557
1.3835
1.36472
1.35001
1.33107
1.31967
1.30972
1.29913
1.28903
1.27752
1.26423
1.2469
1.22986
1.20864
1.19088
1.18529
1.17439
1.17315
1.41775
2.70223
3.12425
3.09414
3.05912
3.02058
2.98167
2.94082
2.8907
2.83255
2.7741
2.72626
2.68134
2.63214
2.57749
2.51785
2.44999
2.37454
3.67167
3.59537
3.52324
3.44845
3.36975
3.29525
3.22811
3.15856
3.0905
3.02034
2.9593
2.89883
2.83571
2.77649
2.71492
2.66259
2.61074
2.55482
2.50402
2.4496
2.4002
2.35749
2.31002
2.26667
2.22547
2.18047
2.14371
2.10468
2.06452
2.03195
1.99445
1.95872
1.92653
1.89119
1.86325
1.83531
1.80397
1.77893
1.74881
1.72077
1.698
1.66865
1.64422
1.61675
1.59261
1.57341
1.55209
1.53822
1.5195
1.49929
1.47849
1.45357
1.43147
1.40992
1.39406
1.37751
1.3607
1.35221
1.34147
1.33101
1.32006
1.30627
1.28694
1.26517
1.24535
1.22572
1.21735
1.21302
1.20625
1.18948
1.20076
1.84411
3.01329
3.12113
3.08047
3.0505
3.01202
2.97036
2.91869
2.85685
2.7975
2.75185
2.71155
2.6687
2.61932
2.56261
2.49511
2.41813
3.71803
3.64605
3.57196
3.49482
3.41567
3.34695
3.27731
3.20747
3.13537
3.06953
3.01047
2.94561
2.88433
2.82023
2.76323
2.7115
2.65362
2.60029
2.54552
2.4921
2.44908
2.40123
2.35533
2.31342
2.26525
2.22562
2.18548
2.14275
2.10796
2.07042
2.03285
1.99997
1.96305
1.93145
1.90336
1.8692
1.843
1.8135
1.78239
1.75945
1.72931
1.70265
1.67636
1.64878
1.62991
1.60725
1.59029
1.57303
1.55
1.52971
1.50465
1.4807
1.45831
1.43886
1.42424
1.40588
1.39505
1.38607
1.37417
1.36284
1.3481
1.32912
1.30466
1.28344
1.26449
1.25203
1.24708
1.24098
1.23378
1.2202
1.20527
1.30139
2.39906
3.1142
3.11162
3.07959
3.04119
2.99492
2.94158
2.88177
2.82825
2.78521
2.7458
2.70498
2.65769
2.60111
2.53232
2.45485
3.76584
3.6936
3.61859
3.53863
3.46436
3.39745
3.32739
3.25609
3.18215
3.12233
3.05869
2.99441
2.9293
2.86612
2.81504
2.75707
2.70016
2.64438
2.58575
2.54174
2.49441
2.44553
2.40259
2.3527
2.30989
2.26913
2.22398
2.18625
2.14807
2.10812
2.07491
2.03709
2.00186
1.97325
1.93701
1.90871
1.87998
1.8468
1.82174
1.79271
1.76232
1.737
1.70776
1.68642
1.66537
1.6439
1.62731
1.60389
1.58106
1.55804
1.5315
1.50909
1.48686
1.471
1.45444
1.43877
1.43017
1.41855
1.40585
1.39224
1.37318
1.34696
1.32046
1.3029
1.28933
1.28304
1.27791
1.26973
1.26127
1.24832
1.22012
1.21739
1.57368
2.82202
3.16179
3.12026
3.0696
3.01269
2.9581
2.90632
2.86219
2.82327
2.78348
2.7407
2.69096
2.63136
2.56001
2.48287
3.81299
3.73907
3.66205
3.5824
3.51528
3.44606
3.37567
3.2998
3.23315
3.17206
3.10552
3.04163
2.9721
2.91815
2.86301
2.80291
2.7473
2.68434
2.63559
2.58927
2.53789
2.49383
2.44366
2.3967
2.35542
2.30835
2.2672
2.22906
2.18614
2.15197
2.11378
2.07498
2.04459
2.0071
1.97603
1.94825
1.91416
1.8861
1.85867
1.82457
1.79867
1.76934
1.74391
1.72437
1.6993
1.68167
1.65977
1.63368
1.6122
1.58507
1.56157
1.5388
1.51901
1.50426
1.48578
1.47506
1.46468
1.45045
1.43652
1.41766
1.39176
1.36204
1.34195
1.3294
1.32053
1.31508
1.30755
1.29771
1.28652
1.26988
1.2442
1.22516
1.25364
2.00654
3.05342
3.1573
3.09708
3.03902
2.98199
2.93607
2.8984
2.86301
2.82263
2.77652
2.72294
2.6591
2.58467
2.50958
3.86116
3.78622
3.70584
3.63147
3.56496
3.49491
3.42189
3.34636
3.28623
3.22039
3.15467
3.08347
3.01992
2.96882
2.90843
2.85184
2.78882
2.73259
2.68771
2.63431
2.58565
2.53504
2.48367
2.4429
2.39553
2.35039
2.31258
2.2675
2.23144
2.1935
2.15143
2.11825
2.08008
2.04487
2.0181
1.98418
1.95287
1.92656
1.89047
1.8623
1.83335
1.80379
1.78401
1.75769
1.73662
1.71654
1.6892
1.66633
1.64124
1.61525
1.59318
1.57003
1.55415
1.53621
1.52116
1.51107
1.49687
1.48111
1.46364
1.43755
1.40704
1.38186
1.37003
1.36042
1.3538
1.34703
1.33675
1.32513
1.30891
1.28325
1.26562
1.25003
1.25173
1.39549
2.49471
3.13983
3.1171
3.06476
3.01563
2.97279
2.93581
2.90133
2.86144
2.81313
2.75589
2.68758
2.61113
2.53978
3.90627
3.82989
3.75048
3.68304
3.61297
3.5416
3.46317
3.39609
3.33493
3.26811
3.20193
3.12874
3.0745
3.01653
2.95604
2.89642
2.83178
2.78609
2.73476
2.68204
2.63254
2.5751
2.53222
2.48626
2.43687
2.39729
2.35135
2.31251
2.276
2.23174
2.19492
2.15726
2.11606
2.08903
2.0563
2.02189
1.99534
1.95951
1.92817
1.89961
1.86726
1.84474
1.8194
1.79314
1.77395
1.74729
1.72108
1.69874
1.67051
1.64859
1.62462
1.60467
1.5888
1.56932
1.55816
1.54454
1.52727
1.50984
1.48498
1.45343
1.42584
1.41104
1.40236
1.39367
1.38697
1.37714
1.36449
1.34996
1.32687
1.29926
1.28951
1.28114
1.2681
1.27605
1.67218
2.84868
3.15502
3.10362
3.05071
3.00828
2.97023
2.93474
2.89452
2.84458
2.78466
2.7148
2.64038
2.57412
3.95213
3.87086
3.79737
3.73113
3.66108
3.58763
3.51127
3.44985
3.38253
3.31636
3.24336
3.17858
3.12565
3.0633
3.00481
2.93684
2.88387
2.83731
2.78117
2.73085
2.67184
2.6222
2.57891
2.52713
2.48438
2.43886
2.39481
2.36023
2.31588
2.27425
2.23763
2.19139
2.16117
2.13028
2.09339
2.0651
2.03079
1.99584
1.96783
1.93424
1.90724
1.88404
1.85297
1.83245
1.80763
1.77846
1.75673
1.72856
1.70458
1.68173
1.65745
1.64122
1.62055
1.60573
1.593
1.57481
1.5562
1.53384
1.50074
1.47294
1.45404
1.44492
1.43537
1.42736
1.41868
1.40542
1.39051
1.37064
1.34005
1.32381
1.31706
1.31004
1.29909
1.2895
1.32797
2.03254
3.03308
3.1398
3.09022
3.04523
3.00285
2.96232
2.91871
2.86793
2.80881
2.74199
2.67423
2.61406
3.99787
3.91703
3.84787
3.7773
3.70597
3.62829
3.56247
3.49937
3.43065
3.36229
3.28692
3.23314
3.17439
3.11333
3.04971
2.98363
2.93808
2.88359
2.82987
2.77454
2.71535
2.67292
2.62213
2.57351
2.52905
2.47853
2.44417
2.40289
2.35661
2.31989
2.27236
2.23525
2.20602
2.1679
2.13596
2.10343
2.06452
2.03672
2.00385
1.97201
1.94976
1.91729
1.89262
1.86975
1.83924
1.81526
1.78945
1.76168
1.74012
1.71368
1.69378
1.67483
1.65441
1.64206
1.62402
1.60358
1.58308
1.55092
1.52069
1.50107
1.48848
1.47946
1.46852
1.46019
1.44754
1.43135
1.41351
1.38602
1.3598
1.3531
1.34522
1.3375
1.32915
1.31865
1.30756
1.4324
2.40723
3.09491
3.13021
3.08616
3.04176
2.99748
2.95018
2.89661
2.83649
2.77329
2.71334
2.65884
4.04078
3.96332
3.89495
3.82345
3.74792
3.6736
3.61464
3.54727
3.48052
3.40452
3.33771
3.28358
3.2205
3.16169
3.09204
3.03832
2.98887
2.93035
2.87702
2.81315
2.76519
2.71937
2.66586
2.62144
2.56768
2.52745
2.49142
2.44323
2.40322
2.35843
2.31208
2.28285
2.24534
2.20867
2.17792
2.13587
2.10599
2.0757
2.04025
2.01592
1.98542
1.95479
1.93315
1.90314
1.87515
1.8523
1.82129
1.79893
1.77328
1.74815
1.73038
1.70628
1.69146
1.67497
1.6524
1.63183
1.60382
1.56916
1.5503
1.53473
1.52459
1.51263
1.50176
1.49063
1.47359
1.45557
1.43271
1.40106
1.38942
1.38325
1.37371
1.36558
1.35707
1.34685
1.3221
1.3191
1.62232
2.72511
3.15089
3.13355
3.08733
3.03817
2.98713
2.93015
2.86813
2.80784
2.75462
2.70566
4.09324
4.01334
3.94073
3.86741
3.78695
3.72235
3.66319
3.59694
3.52811
3.45084
3.39306
3.33049
3.268
3.20374
3.13836
3.09265
3.03582
2.97975
2.91905
2.85872
2.81643
2.76331
2.71461
2.66384
2.61145
2.57826
2.53327
2.48743
2.44664
2.3945
2.36111
2.32592
2.28468
2.25291
2.21098
2.17529
2.14835
2.1121
2.08318
2.05626
2.02002
1.99731
1.96956
1.93772
1.91507
1.88401
1.85802
1.83464
1.80566
1.7859
1.76269
1.74221
1.72729
1.70411
1.68128
1.6578
1.62084
1.59974
1.58484
1.57093
1.5601
1.54499
1.53374
1.51766
1.49783
1.47792
1.44852
1.42647
1.42145
1.41238
1.40266
1.39364
1.38332
1.37011
1.34723
1.32472
1.34594
1.91168
2.9522
3.17673
3.13613
3.07667
3.01921
2.96058
2.90034
2.84332
2.7939
2.74894
4.14131
4.07061
3.99401
3.91437
3.83365
3.77286
3.70918
3.64477
3.57149
3.50548
3.44505
3.37712
3.31471
3.242
3.1896
3.14143
3.0828
3.02804
2.96039
2.91169
2.86413
2.80932
2.76206
2.70339
2.66359
2.62538
2.57532
2.53446
2.48335
2.44114
2.40898
2.36587
2.32954
2.29082
2.24624
2.22033
2.18694
2.15241
2.12743
2.08979
2.0622
2.03761
2.00382
1.97799
1.95008
1.91803
1.89593
1.86695
1.84202
1.82172
1.79556
1.78014
1.75881
1.73253
1.71064
1.67735
1.64919
1.63645
1.61991
1.60777
1.59242
1.57705
1.56289
1.54212
1.52205
1.49843
1.46877
1.46014
1.45281
1.44124
1.43152
1.41979
1.40686
1.38922
1.37067
1.34845
1.34764
1.43387
2.23959
3.09138
3.17171
3.11549
3.05069
2.99365
2.93961
2.88705
2.83693
2.79036
4.13764
4.11786
4.04891
3.96079
3.88367
3.81968
3.75325
3.68383
3.61366
3.55782
3.4939
3.43014
3.35894
3.28734
3.24227
3.1859
3.13004
3.06911
3.00782
2.96432
2.9094
2.85938
2.8054
2.75089
2.71624
2.66825
2.62115
2.57455
2.52234
2.491
2.45147
2.40935
2.37407
2.3244
2.29242
2.26336
2.22504
2.19762
2.16362
2.12823
2.10577
2.07344
2.0424
2.0176
1.98118
1.95667
1.93067
1.9004
1.88032
1.85353
1.83359
1.81522
1.7873
1.76347
1.73664
1.70155
1.68801
1.67251
1.65612
1.6427
1.62237
1.60761
1.5888
1.56648
1.54685
1.51797
1.50017
1.49404
1.48212
1.47047
1.45821
1.44342
1.42846
1.40904
1.39561
1.38219
1.36832
1.37121
1.57056
2.55849
3.13448
3.14492
3.08997
3.03587
2.98834
2.93841
2.8868
2.83465
3.90255
4.12185
4.10415
4.01928
3.93412
3.86538
3.79617
3.72083
3.65892
3.60199
3.53977
3.48047
3.40368
3.34562
3.29218
3.23076
3.17606
3.10984
3.06127
3.01268
2.95612
2.90647
2.84491
2.80355
2.7636
2.71173
2.66768
2.61155
2.57122
2.53782
2.49265
2.45563
2.40994
2.36654
2.34022
2.30268
2.26885
2.23922
2.19708
2.1726
2.14475
2.10922
2.0841
2.04994
2.01831
1.99503
1.96317
1.93877
1.91501
1.88843
1.87159
1.84567
1.81736
1.7946
1.75941
1.73945
1.72653
1.70688
1.69233
1.67241
1.652
1.63589
1.61326
1.59337
1.57168
1.54451
1.53587
1.52514
1.51052
1.49871
1.4815
1.46654
1.45144
1.43409
1.4239
1.41253
1.39963
1.38621
1.39607
1.76199
2.79071
3.13572
3.12135
3.08142
3.03604
2.98903
2.93985
2.88528
2.82304
3.96001
4.09593
4.06632
3.98677
3.90995
3.83635
3.76549
3.70717
3.64662
3.58983
3.52456
3.45649
3.40349
3.33848
3.27872
3.21509
3.15404
3.11256
3.0578
3.00638
2.94978
2.89215
2.85655
2.8074
2.75916
2.70987
2.65513
2.62282
2.5809
2.53745
2.49746
2.44559
2.41592
2.38351
2.3438
2.3147
2.27288
2.23928
2.2161
2.18043
2.15027
2.12142
2.08277
2.05895
2.02968
1.99885
1.97708
1.94691
1.92719
1.90581
1.87471
1.85136
1.82229
1.7932
1.78103
1.76165
1.74236
1.72531
1.69905
1.68169
1.66253
1.63985
1.62281
1.59699
1.57926
1.56895
1.55268
1.53861
1.52349
1.5043
1.49248
1.47776
1.46387
1.45315
1.43844
1.42935
1.41576
1.40171
1.43426
1.99014
2.93394
3.14962
3.12769
3.08446
3.03531
2.9864
2.93402
1.69878
2.99667
3.93648
4.07932
4.04625
3.96542
3.87788
3.81308
3.7546
3.69495
3.63493
3.56594
3.51225
3.45111
3.38409
3.32438
3.25245
3.20658
3.16164
3.10593
3.05607
2.99177
2.94618
2.90336
2.84963
2.80569
2.74979
2.70776
2.67246
2.625
2.58425
2.53263
2.49085
2.46347
2.42315
2.38904
2.35412
2.30902
2.28569
2.25504
2.21864
2.19202
2.15323
2.1233
2.09789
2.06364
2.03909
2.01091
1.98366
1.96529
1.93617
1.9079
1.88493
1.8517
1.83561
1.81881
1.79514
1.77759
1.7523
1.72777
1.71161
1.68963
1.6709
1.6528
1.62733
1.61363
1.59743
1.57913
1.56547
1.54532
1.53158
1.52201
1.50701
1.49517
1.48069
1.46528
1.45725
1.44449
1.42087
1.4125
1.50008
2.22417
3.02183
3.17727
3.14453
3.08923
3.0307
2.97372
1.4143
1.78492
3.0618
3.95663
4.0682
4.01718
3.9298
3.85981
3.80159
3.74527
3.67889
3.61975
3.56512
3.49507
3.4328
3.36289
3.29706
3.25869
3.20623
3.15572
3.10049
3.04107
2.99974
2.94626
2.89606
2.84628
2.7915
2.75942
2.71646
2.67063
2.62627
2.57157
2.54165
2.50705
2.46596
2.43371
2.38651
2.35336
2.32915
2.2915
2.26115
2.22806
2.18945
2.16566
2.13333
2.10212
2.07747
2.04377
2.02352
1.99963
1.96711
1.94485
1.9153
1.89145
1.8769
1.85254
1.83027
1.80909
1.77788
1.7598
1.74188
1.7202
1.70497
1.68235
1.66057
1.64407
1.6227
1.60638
1.59024
1.57086
1.56354
1.55274
1.53759
1.52527
1.50603
1.49403
1.48359
1.46909
1.44916
1.42306
1.42441
1.59851
2.43797
3.10186
3.18093
3.13843
3.07812
3.01067
1.40016
1.42085
1.84809
3.09846
3.99872
4.03257
3.97164
3.90161
3.84988
3.79196
3.73027
3.67658
3.60775
3.53586
3.47304
3.39591
3.35038
3.31031
3.25675
3.20706
3.14479
3.09545
3.04516
2.98798
2.94217
2.88301
2.84246
2.80851
2.75932
2.71682
2.66365
2.61906
2.59004
2.54818
2.51212
2.47231
2.42473
2.40106
2.36851
2.33111
2.30187
2.25978
2.2312
2.20449
2.16895
2.14364
2.11136
2.08312
2.06297
2.03141
2.00381
1.97991
1.94917
1.93399
1.91289
1.8853
1.86497
1.83545
1.80958
1.79404
1.77325
1.75495
1.73797
1.71165
1.69136
1.67013
1.64854
1.63448
1.61511
1.6035
1.59722
1.58259
1.5679
1.55195
1.5321
1.52281
1.50913
1.49164
1.47618
1.4487
1.43667
1.44876
1.73429
2.6345
3.15562
3.17347
3.12544
3.04594
1.40001
1.40024
1.42872
1.87425
3.19237
3.99453
3.98837
3.95071
3.90179
3.83269
3.7801
3.72428
3.65093
3.58442
3.50687
3.43251
3.39954
3.35562
3.30753
3.25278
3.19566
3.14546
3.08576
3.03449
2.97957
2.92188
2.89324
2.85068
2.80345
2.76075
2.7047
2.67111
2.63443
2.59104
2.55555
2.50508
2.47107
2.44551
2.40601
2.3739
2.33667
2.29617
2.27292
2.23975
2.20847
2.18149
2.14625
2.12526
2.09886
2.06542
2.0428
2.01167
1.98994
1.97318
1.94469
1.92002
1.89588
1.86316
1.84608
1.82844
1.80717
1.79124
1.76773
1.7405
1.71938
1.69503
1.67801
1.66349
1.64591
1.63979
1.62982
1.61174
1.59682
1.57558
1.56006
1.55028
1.53291
1.51521
1.49896
1.47745
1.46713
1.46404
1.4861
1.88044
2.79733
3.16924
3.16303
3.08637
1.40001
1.40001
1.40038
1.43359
1.93422
3.30157
3.9373
3.95753
3.92993
3.86644
3.81607
3.75895
3.69658
3.63561
3.5475
3.48251
3.44821
3.40326
3.35333
3.29781
3.24815
3.1919
3.1339
3.08136
3.01191
2.97319
2.94108
2.89021
2.84957
2.80132
2.75464
2.72241
2.67689
2.63638
2.59176
2.5426
2.51896
2.48536
2.44655
2.41522
2.36872
2.33864
2.31201
2.27588
2.24915
2.21486
2.18695
2.16581
2.1324
2.10454
2.07815
2.04725
2.03165
2.00744
1.97689
1.95477
1.92323
1.89926
1.88368
1.86262
1.84362
1.82469
1.79377
1.76862
1.74596
1.72321
1.71084
1.69422
1.6828
1.67604
1.65954
1.64062
1.62335
1.60045
1.5891
1.57631
1.55629
1.53988
1.52044
1.50735
1.50272
1.49087
1.48247
1.52793
2.03062
2.91835
3.1352
3.1204
1.40001
1.40001
1.40001
1.4005
1.44399
2.02159
3.36763
3.87972
3.95121
3.91229
3.85347
3.79212
3.73966
3.68148
3.59996
3.54033
3.4979
3.44901
3.39169
3.34
3.29083
3.23624
3.1889
3.1238
3.05902
3.02951
2.98354
2.93417
2.89363
2.84014
2.80579
2.76726
2.71979
2.67945
2.62465
2.58975
2.56344
2.52269
2.48953
2.45072
2.40579
2.38213
2.34896
2.31632
2.28684
2.25041
2.23001
2.20311
2.16857
2.14375
2.11001
2.08793
2.0696
2.03825
2.01226
1.98657
1.95503
1.93904
1.9198
1.89751
1.87911
1.85178
1.81916
1.79718
1.7735
1.75717
1.74519
1.72883
1.72115
1.70904
1.68686
1.66925
1.64857
1.62951
1.61855
1.60105
1.58079
1.56526
1.54528
1.53733
1.53357
1.51975
1.49518
1.49099
1.57325
2.18018
2.95573
3.13131
1.40001
1.40001
1.40001
1.40001
1.4008
1.45743
2.10897
3.30995
3.87997
3.94848
3.90247
3.84303
3.79017
3.7282
3.6503
3.59161
3.54584
3.49195
3.43574
3.38535
3.33246
3.28299
3.2305
3.15607
3.1156
3.07812
3.02309
2.98217
2.93337
2.88551
2.85531
2.80871
2.76391
2.71514
2.66405
2.63882
2.60361
2.56365
2.5312
2.4818
2.44966
2.42369
2.38671
2.35806
2.32181
2.2919
2.27202
2.23872
2.20839
2.17859
2.14577
2.12892
2.10294
2.07086
2.04792
2.01564
1.99452
1.97801
1.95472
1.93361
1.91072
1.87401
1.84806
1.82784
1.80586
1.79457
1.77957
1.76681
1.75705
1.73691
1.71396
1.69731
1.67487
1.66062
1.64707
1.6252
1.60735
1.59186
1.57413
1.56813
1.56051
1.54416
1.52021
1.49983
1.50335
1.63064
2.30407
2.98718
1.40001
1.40001
1.40001
1.40001
1.40001
1.40117
1.46811
2.08739
3.23113
3.89593
3.93456
3.90144
3.84768
3.78088
3.69978
3.64363
3.59531
3.53728
3.47879
3.42414
3.37502
3.33232
3.2681
3.20872
3.17362
3.11954
3.06643
3.02453
2.96725
2.93355
2.90053
2.85174
2.80766
2.75142
2.71376
2.684
2.64222
2.6083
2.56604
2.51872
2.49568
2.46236
2.42736
2.39799
2.35712
2.33474
2.31135
2.27637
2.24782
2.21181
2.18704
2.16716
2.13432
2.10743
2.0799
2.05011
2.03551
2.01401
1.98911
1.96724
1.9347
1.89924
1.88105
1.86004
1.8437
1.83194
1.81495
1.80377
1.78752
1.76113
1.7422
1.72433
1.7036
1.69122
1.67355
1.65009
1.6354
1.61968
1.6045
1.59796
1.58521
1.56603
1.54764
1.52808
1.51678
1.52415
1.70082
2.40181
1.40001
1.40001
1.40001
1.40001
1.40001
1.40001
1.40133
1.46255
2.02492
3.21993
3.88958
3.91704
3.89288
3.83054
3.746
3.69493
3.64669
3.58706
3.52598
3.46896
3.42027
3.3677
3.30508
3.26757
3.22006
3.15799
3.1143
3.06186
3.00395
2.97957
2.94183
2.8971
2.85008
2.79758
2.76335
2.72368
2.68385
2.64814
2.59506
2.56544
2.53985
2.50066
2.47124
2.43679
2.39614
2.37704
2.3483
2.31446
2.28294
2.24833
2.2288
2.20257
2.1699
2.14457
2.10978
2.09047
2.07393
2.04734
2.02246
1.99578
1.95513
1.9324
1.91709
1.89611
1.88358
1.8677
1.85214
1.83736
1.81286
1.78722
1.77217
1.75021
1.73263
1.71922
1.6976
1.67617
1.66388
1.64826
1.63514
1.62635
1.61011
1.58988
1.57454
1.56198
1.54881
1.53597
1.54481
1.76347
1.40001
1.40001
1.40001
1.40001
1.40001
1.40001
1.40001
1.40112
1.45531
2.00546
3.27335
3.8414
3.8934
3.87276
3.8069
3.746
3.68703
3.62241
3.5626
3.5135
3.46397
3.40424
3.36174
3.32124
3.25771
3.20031
3.15602
3.09045
3.04828
3.0266
2.98548
2.94263
2.89402
2.84844
2.80765
2.76358
2.72699
2.67625
2.63465
2.61468
2.57958
2.54214
2.51572
2.47293
2.43752
2.41805
2.38483
2.35203
2.31733
2.28885
2.26871
2.23729
2.20888
2.17739
2.14568
2.13195
2.10925
2.08043
2.05441
2.01888
1.98301
1.97166
1.95438
1.93607
1.92149
1.9031
1.88755
1.86622
1.83697
1.81821
1.80227
1.77707
1.76176
1.74499
1.72114
1.70413
1.69272
1.6765
1.6651
1.65464
1.63692
1.61897
1.60344
1.5924
1.58273
1.56364
1.54879
1.56181
1.40001
1.40001
1.40001
1.40001
1.40001
1.40001
1.40001
1.40001
1.401
1.45784
2.05408
3.30502
3.77221
3.88804
3.86928
3.80144
3.72935
3.66207
3.60486
3.55306
3.49753
3.4515
3.42032
3.36496
3.29495
3.24652
3.19065
3.12208
3.0963
3.07352
3.03218
2.98899
2.94181
2.89464
2.8458
2.80349
2.75675
2.70577
2.6856
2.65926
2.61761
2.58967
2.56032
2.50771
2.47972
2.4565
2.42023
2.38763
2.35323
2.33034
2.30714
2.27572
2.24737
2.20812
2.1864
2.16992
2.14088
2.11211
2.08323
2.04194
2.02194
2.01276
1.99322
1.97592
1.95606
1.93786
1.91916
1.89191
1.86651
1.85318
1.83143
1.80645
1.79046
1.76927
1.74644
1.73357
1.72114
1.7041
1.69465
1.68335
1.66542
1.65032
1.63395
1.62185
1.6106
1.59354
1.56736
1.56344
1.40001
1.40001
1.40001
1.40001
1.40001
1.40001
1.40001
1.40001
1.40001
1.40129
1.46649
2.11409
3.20264
3.78315
3.88246
3.84179
3.77268
3.70725
3.64939
3.59147
3.53936
3.50872
3.46934
3.39893
3.33637
3.28839
3.22076
3.16564
3.14958
3.12206
3.07834
3.033
2.98619
2.93707
2.88866
2.83911
2.7794
2.75233
2.73567
2.69786
2.66185
2.63943
2.59795
2.5443
2.52323
2.49297
2.45485
2.4238
2.39289
2.37215
2.3457
2.3163
2.28103
2.24299
2.22616
2.20281
2.17068
2.14331
2.10999
2.0734
2.06575
2.05431
2.03318
2.01144
1.98779
1.96925
1.94662
1.91862
1.9022
1.88761
1.8598
1.83761
1.81807
1.79355
1.77622
1.76585
1.7491
1.73304
1.72579
1.71329
1.69514
1.68124
1.66401
1.64875
1.63499
1.61748
1.59847
1.58111
1.40001
1.40001
1.40001
1.40001
1.40001
1.40001
1.40001
1.40001
1.40001
1.40001
1.40158
1.47436
2.04938
3.08513
3.8007
3.85766
3.81536
3.74804
3.69228
3.63098
3.58886
3.56378
3.50954
3.43216
3.37912
3.32426
3.25319
3.21728
3.20445
3.17117
3.12488
3.07738
3.02702
2.97556
2.92494
2.85927
2.81739
2.80579
2.77728
2.73582
2.71336
2.6866
2.62736
2.58597
2.5651
2.52674
2.49063
2.46023
2.43276
2.41306
2.38587
2.35613
2.313
2.28266
2.26293
2.23219
2.20082
2.17545
2.13911
2.11576
2.11163
2.09539
2.07115
2.04254
2.01803
1.99858
1.97387
1.95214
1.93952
1.91796
1.88849
1.86691
1.843
1.82009
1.81019
1.79973
1.77813
1.76661
1.75881
1.74295
1.72492
1.70962
1.69125
1.6718
1.65635
1.64036
1.62643
1.61278
1.40001
1.40001
1.40001
1.40001
1.40001
1.40001
1.40001
1.40001
1.40001
1.40001
1.40001
1.40164
1.45971
1.92559
3.02285
3.78258
3.79636
3.77854
3.74811
3.68389
3.63848
3.60769
3.54223
3.47325
3.42272
3.36093
3.29563
3.27265
3.25718
3.21693
3.16729
3.11748
3.06671
3.01589
2.95179
2.88869
2.87214
2.85478
2.8145
2.78283
2.76267
2.72095
2.65623
2.63145
2.60393
2.56025
2.52998
2.50023
2.47412
2.45247
2.42573
2.39118
2.3473
2.32143
2.29503
2.25932
2.23322
2.2101
2.17478
2.16268
2.15627
2.13404
2.10374
2.06981
2.04717
2.02804
2.00593
1.99103
1.97415
1.94436
1.91753
1.89383
1.86673
1.85215
1.84695
1.83251
1.81062
1.8024
1.79111
1.77185
1.75397
1.73709
1.71498
1.69384
1.67857
1.66618
1.65367
1.64246
1.40001
1.40001
1.40001
1.40001
1.40001
1.40001
1.40001
1.40001
1.40001
1.40001
1.40001
1.40001
1.40105
1.44013
1.866
2.98456
3.69158
3.78521
3.79331
3.75555
3.69812
3.6475
3.57443
3.51474
3.46195
3.39763
3.34418
3.32886
3.30795
3.2618
3.209
3.15619
3.10415
3.04733
2.97304
2.93801
2.92869
2.89693
2.85623
2.8356
2.80578
2.74331
2.69381
2.67554
2.63841
2.59692
2.57231
2.54101
2.51542
2.49189
2.46405
2.42326
2.38484
2.35721
2.32333
2.28853
2.27066
2.24656
2.21835
2.21202
2.19813
2.16773
2.13266
2.09766
2.07753
2.06051
2.04445
2.02989
2.00433
1.9722
1.94618
1.91879
1.89587
1.89063
1.8838
1.86306
1.84749
1.8373
1.82009
1.79947
1.78173
1.76259
1.73529
1.71608
1.70553
1.6939
1.68217
1.67081
1.40001
1.40001
1.40001
1.40001
1.40001
1.40001
1.40001
1.40001
1.40001
1.40001
1.40001
1.40001
1.40001
1.40062
1.43479
1.83975
2.93487
3.62361
3.78548
3.78628
3.74793
3.68621
3.61536
3.56032
3.5035
3.43738
3.39503
3.38112
3.35317
3.30234
3.24822
3.19596
3.14207
3.07246
3.00985
2.99729
2.97801
2.93571
2.9056
2.88204
2.8365
2.76647
2.73972
2.71667
2.67143
2.63932
2.61552
2.58137
2.55561
2.53079
2.49772
2.45516
2.42189
2.38997
2.3508
2.32625
2.31227
2.28271
2.26567
2.25782
2.23171
2.19588
2.16089
2.12918
2.11244
2.09837
2.08419
2.0626
2.02918
1.99937
1.97229
1.94493
1.93504
1.93195
1.91766
1.89561
1.8829
1.86741
1.84589
1.82608
1.80795
1.78569
1.75663
1.74248
1.7362
1.72515
1.71127
1.69943
1.40001
1.40001
1.40001
1.40001
1.40001
1.40001
1.40001
1.40001
1.40001
1.40001
1.40001
1.40001
1.40001
1.40001
1.40058
1.43295
1.8197
2.87342
3.59204
3.77771
3.77011
3.72258
3.6604
3.60557
3.54671
3.48168
3.44736
3.4328
3.39721
3.34075
3.28533
3.23266
3.17357
3.09847
3.06548
3.05624
3.02289
2.98062
2.95536
2.91989
2.85517
2.80148
2.78607
2.75354
2.708
2.68551
2.65781
2.6205
2.59402
2.56761
2.52856
2.48908
2.45571
2.41874
2.38388
2.37153
2.35039
2.31991
2.31194
2.29594
2.25819
2.22267
2.19209
2.16525
2.15174
2.13945
2.12141
2.08873
2.05444
2.02643
1.99789
1.98115
1.97947
1.97118
1.94849
1.93025
1.91467
1.89317
1.87086
1.85297
1.8338
1.80731
1.7822
1.77485
1.76788
1.75577
1.74151
1.72868
1.40001
1.40001
1.40001
1.40001
1.40001
1.40001
1.40001
1.40001
1.40001
1.40001
1.40001
1.40001
1.40001
1.40001
1.40001
1.40055
1.43108
1.7814
2.78643
3.5108
3.76071
3.75489
3.71471
3.65773
3.59156
3.52205
3.49202
3.47867
3.43676
3.37646
3.32185
3.26786
3.20021
3.13923
3.12755
3.10948
3.06622
3.0301
2.99746
2.94611
2.87402
2.84683
2.82927
2.78798
2.75246
2.73254
2.69747
2.65885
2.63159
2.59989
2.55998
2.52353
2.48773
2.44874
2.43055
2.41782
2.38317
2.36416
2.35563
2.32511
2.2814
2.25275
2.22788
2.20503
2.19258
2.17808
2.15
2.11169
2.08153
2.05283
2.02945
2.02648
2.02391
2.0058
1.97985
1.96204
1.94102
1.91591
1.89579
1.87915
1.85852
1.83
1.81562
1.80996
1.79958
1.78505
1.771
1.75854
1.40001
1.40001
1.40001
1.40001
1.40001
1.40001
1.40001
1.40001
1.40001
1.40001
1.40001
1.40001
1.40001
1.40001
1.40001
1.40001
1.4005
1.42468
1.71595
2.62153
3.41353
3.74696
3.75027
3.70786
3.63614
3.56097
3.53537
3.52334
3.47377
3.41173
3.35756
3.29955
3.22747
3.19375
3.18797
3.15884
3.11349
3.07705
3.03176
2.96234
2.90605
2.89331
2.86791
2.82471
2.8016
2.77695
2.73503
2.69709
2.66687
2.63172
2.59497
2.55871
2.51965
2.49064
2.47986
2.45161
2.41569
2.40717
2.3882
2.34642
2.30823
2.29045
2.26685
2.24541
2.23097
2.20904
2.17178
2.13895
2.11022
2.0827
2.07459
2.07468
2.06375
2.03447
2.01149
1.99133
1.96533
1.94096
1.92398
1.90702
1.88246
1.85852
1.85218
1.84427
1.83015
1.81437
1.80029
1.78721
1.40001
1.40001
1.40001
1.40001
1.40001
1.40001
1.40001
1.40001
1.40001
1.40001
1.40001
1.40001
1.40001
1.40001
1.40001
1.40001
1.40001
1.40033
1.41582
1.6392
2.41542
3.36642
3.73893
3.722
3.66904
3.61063
3.59531
3.57806
3.51093
3.44348
3.38875
3.32748
3.26579
3.25388
3.24504
3.20636
3.1603
3.11663
3.0584
2.98206
2.95109
2.93793
2.90483
2.86984
2.84926
2.81542
2.76991
2.73219
2.6987
2.66577
2.63157
2.59453
2.55946
2.54587
2.52392
2.47558
2.4549
2.4453
2.41267
2.3669
2.34547
2.33461
2.30677
2.28178
2.26215
2.231
2.1981
2.1697
2.13932
2.12276
2.12278
2.11858
2.09345
2.06201
2.042
2.01744
1.98927
1.96954
1.95485
1.93626
1.90842
1.89478
1.88834
1.87551
1.85851
1.8427
1.82848
1.81363
1.40001
1.40001
1.40001
1.40001
2.29965
2.23221
2.17237
2.11624
2.05789
1.99501
1.93135
1.87293
1.82415
1.78496
1.7527
1.72479
1.69422
1.65641
1.61308
1.56381
1.50392
1.45306
1.42483
1.39819
1.37707
1.35919
1.33781
1.31252
1.29228
1.27286
1.24727
1.2101
1.17274
1.13944
2.34054
2.26986
2.2053
2.1462
2.08876
2.02687
1.96134
1.90127
1.85369
1.81524
1.78278
1.75261
1.71815
1.67745
1.63108
1.5781
1.51751
1.47371
1.44652
1.42199
1.40437
1.38715
1.36653
1.34432
1.32052
1.2934
1.25746
1.21515
1.17948
1.15145
2.37722
2.30784
2.2449
2.18562
2.12716
2.06575
1.99968
1.93658
1.88813
1.84957
1.81513
1.78156
1.74507
1.70297
1.65406
1.59737
1.53701
1.49781
1.4704
1.4493
1.43283
1.41403
1.3934
1.37047
1.34236
1.30829
1.26526
1.22223
1.19194
1.16884
2.40975
2.34629
2.28858
2.2328
2.17604
2.11549
2.04978
1.98538
1.93317
1.89068
1.85141
1.8127
1.77346
1.73095
1.68111
1.622
1.56471
1.52676
1.49995
1.47975
1.4612
1.44059
1.41851
1.39299
1.36175
1.32276
1.27579
1.23505
1.2116
1.1935
2.44303
2.38568
2.33269
2.28044
2.22608
2.16709
2.10298
2.03856
1.98298
1.9369
1.89348
1.85004
1.80703
1.7619
1.71046
1.65104
1.59687
1.55961
1.5334
1.5112
1.48999
1.46809
1.444
1.41643
1.38281
1.33823
1.28868
1.2566
1.23853
1.22294
2.47924
2.42562
2.37481
2.32446
2.27183
2.21431
2.15168
2.0879
2.03109
1.98335
1.93806
1.89149
1.84482
1.79733
1.74424
1.68498
1.63135
1.59461
1.56815
1.54412
1.52147
1.49851
1.47311
1.44422
1.40716
1.35547
1.30812
1.28479
1.2684
1.25454
2.51813
2.46667
2.41632
2.36563
2.31255
2.25429
2.19033
2.12609
2.0711
2.02574
1.9814
1.93509
1.88797
1.8393
1.78594
1.72758
1.67264
1.63324
1.60323
1.57712
1.55426
1.53111
1.50511
1.47463
1.43333
1.37731
1.33531
1.31416
1.29882
1.28732
2.5612
2.51065
2.45952
2.40708
2.35171
2.29005
2.2224
2.15797
2.10694
2.06588
2.02429
1.9798
1.93394
1.88593
1.8328
1.77412
1.71842
1.67755
1.6432
1.61243
1.58775
1.56487
1.53855
1.50595
1.46088
1.40457
1.36592
1.34541
1.33112
1.32114
2.60821
2.55794
2.50575
2.4515
2.39312
2.32614
2.2544
2.19126
2.14441
2.10683
2.06797
2.02596
1.98211
1.93493
1.88108
1.8212
1.76602
1.72699
1.69107
1.65629
1.62799
1.60226
1.57348
1.53847
1.4904
1.43548
1.4004
1.38073
1.36672
1.35666
2.65755
2.60753
2.55396
2.49653
2.43255
2.36095
2.29055
2.23161
2.18775
2.15115
2.11332
2.07353
2.03184
1.98398
1.92696
1.86357
1.81171
1.77631
1.74088
1.7048
1.67396
1.64415
1.61074
1.57162
1.5181
1.46798
1.43935
1.41939
1.40481
1.39358
2.70394
2.65424
2.59813
2.53486
2.46362
2.39192
2.32987
2.27832
2.23714
2.19884
2.15951
2.12077
2.07991
2.02962
1.96808
1.90111
1.8561
1.82406
1.78943
1.75417
1.72311
1.68934
1.6509
1.60575
1.54563
1.50459
1.48105
1.45988
1.44484
1.43305
2.74412
2.69303
2.63519
2.5665
2.48959
2.42454
2.37348
2.32897
2.28952
2.2482
2.20595
2.16589
2.12288
2.06872
2.00273
1.93788
1.9005
1.86933
1.83413
1.80047
1.7696
1.73329
1.69182
1.63911
1.57761
1.54669
1.52379
1.50096
1.48566
1.47377
2.7809
2.72525
2.66504
2.59346
2.5197
2.46508
2.42113
2.38132
2.34173
2.29792
2.25326
2.21002
2.16106
2.10103
2.03213
1.97657
1.94491
1.91311
1.87648
1.84438
1.81294
1.7753
1.73193
1.67289
1.61982
1.59228
1.56725
1.54262
1.52726
1.51458
2.8239
2.75966
2.69204
2.61871
2.55824
2.51466
2.47427
2.43611
2.39418
2.34814
2.30098
2.25291
2.19533
2.12889
2.0606
2.01705
1.98832
1.95555
1.9189
1.88807
1.85461
1.81612
1.7707
1.71118
1.66836
1.63943
1.61141
1.58467
1.56883
1.5534
2.87207
2.80077
2.72268
2.6524
2.60616
2.5678
2.52964
2.49172
2.44763
2.39862
2.34843
2.29324
2.22688
2.15598
2.0933
2.05848
2.03081
1.99724
1.96291
1.93216
1.89695
1.85839
1.81043
1.75694
1.71757
1.68599
1.65484
1.62644
1.60942
1.58919
2.91247
2.83963
2.76146
2.70016
2.65781
2.61998
2.58497
2.54699
2.5009
2.44875
2.39346
2.329
2.256
2.18566
2.13217
2.10192
2.0733
2.03962
2.00878
1.97761
1.9423
1.90297
1.85406
1.80539
1.76434
1.73049
1.69605
1.66717
1.64758
1.62235
2.94243
2.87348
2.80851
2.75708
2.71386
2.67424
2.64011
2.59982
2.55185
2.49685
2.435
2.36148
2.2862
2.22085
2.17692
2.14841
2.11754
2.08498
2.05624
2.02458
1.99007
1.9488
1.90026
1.85138
1.80766
1.77179
1.73472
1.70657
1.68328
1.65367
2.96574
2.90555
2.85969
2.81688
2.77194
2.732
2.6953
2.65073
2.59997
2.54123
2.47095
2.39163
2.32078
2.26342
2.22757
2.19843
2.16499
2.13399
2.10568
2.07421
2.03849
1.99444
1.94395
1.89157
1.84722
1.81023
1.77202
1.74458
1.71752
1.68498
2.99753
2.94351
2.91046
2.87393
2.83104
2.79233
2.74991
2.70142
2.64612
2.5804
2.50195
2.42485
2.36287
2.31364
2.2826
2.25137
2.21658
2.18692
2.15835
2.12552
2.08505
2.0358
1.98056
1.92698
1.88556
1.84758
1.81085
1.78339
1.75282
1.71895
3.06053
2.99975
2.96497
2.93028
2.89044
2.84964
2.8026
2.75082
2.68816
2.61416
2.53339
2.46603
2.41195
2.37046
2.34025
2.3064
2.27066
2.24195
2.2128
2.17544
2.12654
2.06958
2.01138
1.96202
1.92493
1.88643
1.85283
1.82366
1.79141
1.75868
3.11861
3.07381
3.02368
2.98252
2.94663
2.90554
2.85646
2.796
2.72343
2.64424
2.57097
2.51557
2.46672
2.43157
2.399
2.36302
2.3262
2.29783
2.26507
2.21898
2.15938
2.09723
2.04165
2.00061
1.96579
1.9288
1.89852
1.86729
1.83536
1.80575
3.15968
3.14609
3.09951
3.04093
2.99762
2.95713
2.90603
2.83591