/*--------------------------------*- C++ -*----------------------------------*\
  =========                 |
  \\      /  F ield         | OpenFOAM: The Open Source CFD Toolbox
   \\    /   O peration     | Website:  https://openfoam.org
    \\  /    A nd           | Version:  7
     \\/     M anipulation  |
\*---------------------------------------------------------------------------*/
FoamFile
{
    version     2.0;
    format      ascii;
    class       volScalarField;
    location    "3.3";
    object      T;
}
// * * * * * * * * * * * * * * * * * * * * * * * * * * * * * * * * * * * * * //

dimensions      [0 0 0 1 0 0 0];

internalField   nonuniform List<scalar> 
16512
(
1.79206
1.79183
1.78908
1.77858
1.76427
1.75966
1.75936
1.75948
1.76042
1.76082
1.76097
1.76092
1.76025
1.75741
1.7478
1.73502
1.73144
1.73095
1.73094
1.73166
1.73218
1.73219
1.73186
1.73057
1.72673
1.71563
1.70332
1.7012
1.70103
1.70107
1.70076
1.701
1.70135
1.70117
1.69997
1.69662
1.68749
1.67473
1.66979
1.66935
1.66957
1.66981
1.67009
1.67091
1.67112
1.67091
1.66954
1.66357
1.65158
1.64368
1.64229
1.64154
1.64004
1.63817
1.63586
1.63314
1.6304
1.62815
1.62625
1.62422
1.62237
1.62161
1.62108
1.61994
1.61778
1.61364
1.60564
1.59535
1.58948
1.58856
1.58883
1.59168
1.59388
1.59305
1.59243
1.5917
1.59019
1.58606
1.57705
1.56608
1.56092
1.56029
1.56095
1.56443
1.5674
1.56703
1.56583
1.564
1.5607
1.554
1.54217
1.53151
1.52809
1.52807
1.5306
1.53783
1.5447
1.54557
1.5446
1.54245
1.53663
1.52433
1.50747
1.49837
1.49626
1.49605
1.49878
1.50755
1.51678
1.51857
1.51805
1.5166
1.51068
1.49676
1.48049
1.47404
1.47277
1.47253
1.47481
1.48281
1.49229
1.49488
1.49436
1.49354
1.49003
1.4801
1.46312
1.45104
1.44739
1.44641
1.44694
1.45172
1.46136
1.46709
1.46696
1.46573
1.4631
1.45585
1.44233
1.43189
1.42944
1.42919
1.4304
1.43596
1.44201
1.44275
1.44181
1.44009
1.43499
1.42451
1.41518
1.41256
1.41209
1.41281
1.41624
1.41778
1.41802
1.41877
1.42919
1.48859
1.65546
1.77615
1.80622
1.81628
1.8223
1.82336
1.82107
1.81389
1.79875
1.78208
1.77552
1.77374
1.7781
1.80305
1.84896
1.90278
1.91687
1.91279
1.89559
1.88087
1.87608
1.87689
1.88442
1.8901
1.88793
1.88125
1.87071
1.85828
1.85067
1.84685
1.84581
1.84711
1.8472
1.8426
1.83585
1.82762
1.82057
1.81576
1.81177
1.80927
1.80587
1.80106
1.79618
1.79066
1.7861
1.78239
1.77926
1.77743
1.77455
1.77032
1.7658
1.7603
1.75533
1.75148
1.74805
1.74531
1.74213
1.73807
1.7336
1.72762
1.72071
1.71579
1.71211
1.70911
1.70832
1.7082
1.70538
1.70088
1.69581
1.68986
1.68538
1.68209
1.67907
1.67683
1.67481
1.67093
1.66674
1.66195
1.65684
1.653
1.64996
1.64723
1.64495
1.64253
1.6398
1.63688
1.63365
1.63061
1.62787
1.62518
1.62249
1.61981
1.61703
1.61408
1.61113
1.60822
1.60517
1.60187
1.79239
1.79081
1.78234
1.76711
1.75942
1.75884
1.7588
1.75974
1.76055
1.76082
1.76095
1.76074
1.75926
1.75266
1.73943
1.73197
1.73124
1.73107
1.7317
1.73255
1.73279
1.73268
1.73191
1.72963
1.72165
1.70748
1.70107
1.70075
1.70089
1.70148
1.70107
1.70117
1.70128
1.70091
1.69915
1.69313
1.68072
1.67185
1.67104
1.6709
1.67189
1.67143
1.67134
1.67146
1.6712
1.67008
1.66561
1.65524
1.64537
1.64262
1.64189
1.6414
1.64032
1.63873
1.63681
1.63502
1.63351
1.63057
1.626
1.62321
1.62129
1.62027
1.61954
1.61822
1.61542
1.60963
1.60042
1.59375
1.59266
1.59257
1.59321
1.59407
1.59376
1.59305
1.59212
1.59076
1.58786
1.58091
1.57082
1.56479
1.56404
1.56437
1.56674
1.56846
1.56778
1.56665
1.56488
1.56189
1.55599
1.54583
1.53547
1.53142
1.53131
1.53346
1.53995
1.54593
1.54649
1.54588
1.5442
1.53909
1.5281
1.51182
1.50155
1.49885
1.4985
1.50074
1.50898
1.51844
1.52065
1.52014
1.51879
1.5132
1.49955
1.4826
1.47563
1.47428
1.47404
1.47627
1.48439
1.49455
1.49765
1.49719
1.49639
1.49294
1.48301
1.46565
1.453
1.44919
1.44814
1.44855
1.45302
1.46281
1.46946
1.46963
1.46839
1.46588
1.45893
1.44535
1.43361
1.43054
1.43021
1.4312
1.43661
1.44379
1.4454
1.44462
1.44315
1.43877
1.42872
1.41783
1.41389
1.4132
1.41357
1.4167
1.41948
1.42025
1.4215
1.4382
1.5143
1.65901
1.79183
1.81433
1.81907
1.82104
1.82346
1.82064
1.81548
1.80645
1.79035
1.77674
1.77202
1.77349
1.79194
1.83283
1.88623
1.91647
1.91599
1.90227
1.88535
1.87893
1.87839
1.88419
1.89074
1.88975
1.88402
1.87506
1.86314
1.85328
1.84835
1.84623
1.84744
1.84865
1.8455
1.83942
1.83164
1.82391
1.81858
1.81424
1.81124
1.80859
1.80382
1.79885
1.79319
1.78807
1.78427
1.781
1.77891
1.77704
1.77285
1.76838
1.76305
1.75744
1.75328
1.74971
1.74675
1.74405
1.74017
1.73597
1.7307
1.72389
1.71805
1.71414
1.71089
1.70916
1.70902
1.70725
1.70271
1.69799
1.69236
1.68728
1.68391
1.68101
1.67875
1.67738
1.67408
1.66984
1.66523
1.65978
1.65517
1.65189
1.64897
1.64651
1.64423
1.64148
1.63856
1.6353
1.63183
1.62874
1.62592
1.62313
1.62037
1.61767
1.61501
1.61243
1.60984
1.60714
1.60423
1.60098
1.79205
1.78524
1.77036
1.75978
1.75834
1.75824
1.759
1.76033
1.76065
1.76092
1.76091
1.76021
1.75607
1.74449
1.73353
1.73162
1.73128
1.73175
1.73291
1.73335
1.7334
1.73298
1.73139
1.72598
1.71325
1.70224
1.7007
1.70054
1.7011
1.70208
1.70172
1.70155
1.7014
1.70061
1.69743
1.68726
1.67568
1.67256
1.67208
1.67215
1.6729
1.67227
1.6717
1.67116
1.67003
1.6668
1.65874
1.64842
1.64397
1.64286
1.64233
1.64221
1.64184
1.64071
1.6394
1.63809
1.63553
1.62905
1.62313
1.62136
1.62017
1.61895
1.61782
1.61627
1.61291
1.60575
1.59819
1.59635
1.59597
1.59598
1.59489
1.59407
1.59361
1.59268
1.59127
1.58905
1.58414
1.57543
1.56858
1.56767
1.56773
1.56888
1.56956
1.56888
1.56766
1.56585
1.56311
1.55809
1.54948
1.5397
1.53504
1.5348
1.53643
1.54189
1.54674
1.54702
1.54672
1.5455
1.54111
1.53146
1.5163
1.50524
1.50184
1.50137
1.5032
1.51072
1.52003
1.52247
1.52195
1.52066
1.51553
1.50251
1.48513
1.47738
1.47585
1.47561
1.47778
1.48596
1.49668
1.50029
1.49986
1.4991
1.49573
1.48586
1.46813
1.45495
1.45102
1.44995
1.45024
1.45448
1.46438
1.47187
1.47238
1.4711
1.4687
1.46206
1.44848
1.43543
1.43159
1.43117
1.43192
1.43702
1.4452
1.44799
1.44741
1.44616
1.44242
1.43291
1.42082
1.41542
1.41443
1.4145
1.41724
1.42077
1.42242
1.42451
1.44419
1.54786
1.68926
1.79447
1.81275
1.81606
1.82064
1.82477
1.82295
1.8151
1.80699
1.79665
1.78347
1.77702
1.77677
1.78729
1.81928
1.86839
1.91094
1.9148
1.90542
1.88899
1.88127
1.87991
1.88489
1.8921
1.89198
1.88682
1.87816
1.86598
1.85591
1.85104
1.84798
1.84833
1.84957
1.84736
1.84179
1.83475
1.82688
1.82115
1.8167
1.81333
1.81107
1.80661
1.80157
1.79587
1.79012
1.78609
1.78276
1.78033
1.77912
1.77554
1.77088
1.76582
1.76003
1.75529
1.75153
1.74831
1.7457
1.74221
1.73841
1.73368
1.72712
1.72075
1.7165
1.71291
1.71033
1.70986
1.7089
1.70489
1.70016
1.69458
1.68896
1.68537
1.68247
1.68011
1.67907
1.67701
1.67294
1.66854
1.66312
1.65777
1.65414
1.65115
1.6485
1.64627
1.64359
1.6407
1.63748
1.63374
1.63014
1.62708
1.62417
1.62129
1.61844
1.61558
1.61288
1.61049
1.60809
1.60555
1.60282
1.59974
1.78723
1.77336
1.76051
1.75773
1.75766
1.75825
1.7601
1.76067
1.761
1.7611
1.76076
1.75832
1.74914
1.73621
1.73186
1.73144
1.73165
1.73304
1.7339
1.73406
1.73383
1.73273
1.72891
1.71843
1.70545
1.70115
1.7006
1.7007
1.70186
1.70289
1.70263
1.70225
1.70169
1.69998
1.69295
1.68061
1.67464
1.67336
1.67264
1.67271
1.67299
1.67243
1.67135
1.66993
1.66744
1.66156
1.65193
1.64618
1.64477
1.64402
1.644
1.64427
1.64406
1.64303
1.64174
1.63928
1.6325
1.62424
1.62077
1.6198
1.6191
1.61797
1.61636
1.61432
1.61062
1.60375
1.59975
1.59877
1.59787
1.59687
1.5953
1.59386
1.59294
1.59187
1.59017
1.58693
1.58016
1.57246
1.57085
1.5708
1.57103
1.57088
1.57006
1.56884
1.56701
1.56435
1.56015
1.55295
1.54401
1.53885
1.53845
1.53954
1.54377
1.54744
1.54747
1.54739
1.54641
1.54253
1.53418
1.52061
1.50939
1.50521
1.50456
1.50601
1.51268
1.52157
1.5241
1.5235
1.52222
1.51755
1.50549
1.48815
1.47933
1.47758
1.47733
1.47939
1.4875
1.49862
1.50271
1.5023
1.50155
1.49834
1.48869
1.47069
1.45692
1.45287
1.45181
1.45203
1.45609
1.46602
1.47433
1.47516
1.47393
1.47154
1.46518
1.45177
1.43738
1.43265
1.4321
1.43262
1.43727
1.44617
1.45046
1.45014
1.44909
1.44595
1.43709
1.42407
1.41716
1.41577
1.41558
1.41776
1.42216
1.42462
1.42773
1.45252
1.56191
1.73063
1.79623
1.81417
1.81668
1.82201
1.82572
1.82534
1.82018
1.80885
1.7954
1.7845
1.77983
1.77914
1.78639
1.81073
1.85216
1.90066
1.91513
1.90771
1.89123
1.88308
1.88099
1.88544
1.8938
1.89496
1.89048
1.88195
1.86983
1.85821
1.85215
1.84872
1.84895
1.85066
1.84962
1.84435
1.83746
1.82931
1.82336
1.81893
1.81543
1.81351
1.80972
1.80457
1.79881
1.79249
1.78791
1.78446
1.78178
1.78076
1.77857
1.7738
1.76869
1.76276
1.75756
1.75364
1.75017
1.74745
1.74406
1.74016
1.73568
1.72973
1.72325
1.71881
1.71541
1.71247
1.71147
1.71061
1.70673
1.70186
1.69653
1.69065
1.68652
1.68355
1.68122
1.68034
1.67947
1.67587
1.6715
1.66636
1.66046
1.65626
1.65323
1.65058
1.64846
1.64596
1.64311
1.64007
1.63641
1.63234
1.62882
1.62569
1.62267
1.61971
1.61676
1.6138
1.61106
1.6086
1.60618
1.60364
1.60093
1.59794
1.77569
1.7615
1.75719
1.757
1.75741
1.75954
1.76076
1.76122
1.76144
1.76127
1.75989
1.75282
1.73941
1.73214
1.73146
1.73148
1.73275
1.73416
1.7346
1.73456
1.73384
1.73117
1.72265
1.7092
1.70231
1.70115
1.70098
1.70161
1.703
1.70378
1.70363
1.7031
1.70195
1.69741
1.6855
1.67634
1.67473
1.67342
1.67284
1.67281
1.67265
1.67189
1.67043
1.66816
1.66386
1.65567
1.64849
1.64724
1.64629
1.646
1.6462
1.64643
1.64577
1.6445
1.64222
1.63579
1.62589
1.62067
1.61965
1.61903
1.61839
1.61738
1.6156
1.61313
1.60974
1.60532
1.60133
1.59935
1.59812
1.59667
1.59497
1.59336
1.59199
1.59055
1.58849
1.58447
1.57718
1.57365
1.57335
1.57288
1.57216
1.57116
1.56992
1.56822
1.56573
1.562
1.55596
1.54804
1.54261
1.54203
1.54276
1.54593
1.54831
1.54825
1.54816
1.54698
1.54334
1.5362
1.52451
1.51365
1.50888
1.50801
1.50907
1.51477
1.52297
1.52553
1.5249
1.5236
1.51927
1.50831
1.49134
1.48164
1.47955
1.4793
1.48118
1.48902
1.5003
1.50488
1.50448
1.5037
1.50067
1.49141
1.47335
1.45895
1.45473
1.45371
1.45389
1.45782
1.46781
1.47674
1.47795
1.47671
1.47442
1.46838
1.45523
1.43966
1.43378
1.43304
1.43334
1.43746
1.4467
1.45266
1.45271
1.4519
1.44933
1.44127
1.42766
1.41918
1.4172
1.41676
1.41836
1.42319
1.42668
1.43213
1.46595
1.57897
1.74589
1.81114
1.81927
1.82074
1.82418
1.82984
1.83029
1.82669
1.81546
1.79656
1.78273
1.77844
1.77672
1.78265
1.80497
1.83991
1.88836
1.91484
1.91191
1.89428
1.88425
1.88143
1.88532
1.89495
1.89793
1.8941
1.88621
1.87434
1.86127
1.85437
1.8507
1.85021
1.85209
1.85219
1.84758
1.84076
1.83221
1.8253
1.8209
1.81738
1.81577
1.8131
1.80771
1.80196
1.79519
1.78971
1.78605
1.78317
1.78195
1.78089
1.77663
1.77157
1.76573
1.75995
1.75574
1.75216
1.74939
1.7463
1.74268
1.73862
1.73277
1.72575
1.72085
1.71733
1.71427
1.71311
1.71259
1.70966
1.7049
1.6994
1.69267
1.6877
1.6845
1.68178
1.68066
1.68069
1.67855
1.67432
1.6696
1.66362
1.6585
1.65524
1.6525
1.6503
1.64832
1.64552
1.64266
1.63934
1.6352
1.63115
1.62775
1.62455
1.62141
1.61834
1.61529
1.61237
1.60966
1.60706
1.60444
1.60167
1.59867
1.59557
1.7627
1.75695
1.75651
1.75672
1.75852
1.76079
1.76141
1.76186
1.76186
1.76113
1.75593
1.74321
1.73293
1.73135
1.7312
1.73223
1.73398
1.73485
1.73503
1.73468
1.73292
1.72616
1.7131
1.70381
1.70209
1.70158
1.70204
1.7032
1.70418
1.70465
1.70454
1.70382
1.70094
1.691
1.6782
1.67496
1.67413
1.67311
1.6727
1.67253
1.67186
1.67084
1.66926
1.66622
1.65985
1.65123
1.64903
1.64884
1.64806
1.64783
1.64795
1.6476
1.64641
1.64445
1.63892
1.62857
1.6214
1.61951
1.61907
1.61887
1.61836
1.61745
1.61589
1.61357
1.61075
1.60703
1.60149
1.59865
1.59742
1.59596
1.59423
1.5926
1.59113
1.58937
1.58678
1.58274
1.57821
1.57562
1.57412
1.57307
1.57199
1.57074
1.56922
1.56713
1.56391
1.55874
1.5516
1.54621
1.54545
1.5459
1.54824
1.54957
1.54961
1.54902
1.54718
1.54365
1.53769
1.52802
1.51799
1.51278
1.51169
1.51236
1.51706
1.52428
1.52673
1.52613
1.52488
1.52083
1.51084
1.49463
1.48437
1.48184
1.48156
1.48324
1.49062
1.50184
1.50675
1.50637
1.50551
1.50264
1.49393
1.47611
1.46103
1.45659
1.45561
1.45578
1.45966
1.46969
1.4791
1.48064
1.47946
1.47729
1.47159
1.4589
1.44226
1.43515
1.43408
1.43416
1.43769
1.44695
1.45451
1.45511
1.45448
1.45253
1.44541
1.43165
1.4214
1.41869
1.41808
1.41912
1.42399
1.4287
1.43673
1.48342
1.61015
1.75429
1.82185
1.82053
1.82156
1.82481
1.83125
1.83147
1.82724
1.81979
1.80613
1.78881
1.77883
1.77632
1.78008
1.79846
1.82908
1.87486
1.91196
1.91397
1.8995
1.88627
1.88201
1.88488
1.89508
1.90029
1.89728
1.89016
1.87899
1.86513
1.85638
1.85204
1.85087
1.85287
1.85407
1.85065
1.84433
1.83561
1.82758
1.8229
1.81918
1.81765
1.81641
1.81159
1.80554
1.79849
1.79189
1.78772
1.7845
1.78291
1.78258
1.7796
1.77464
1.76887
1.76254
1.75792
1.75413
1.75101
1.74828
1.7445
1.74058
1.73557
1.72889
1.72322
1.71964
1.71664
1.71504
1.71476
1.71265
1.70768
1.70232
1.69579
1.68974
1.68603
1.68317
1.68123
1.68118
1.68036
1.67646
1.6721
1.66674
1.66105
1.65739
1.65456
1.65222
1.65047
1.64781
1.6449
1.6418
1.63796
1.63375
1.63018
1.62695
1.62371
1.62044
1.61719
1.61402
1.61117
1.60857
1.60594
1.60316
1.60015
1.59658
1.59325
1.75688
1.75619
1.75628
1.75765
1.76068
1.76163
1.76237
1.76254
1.76222
1.75851
1.74697
1.73441
1.73121
1.73094
1.73162
1.73363
1.73476
1.73524
1.73518
1.7342
1.72914
1.71714
1.70574
1.70296
1.70239
1.70258
1.70379
1.70487
1.70524
1.70542
1.70523
1.70369
1.69617
1.68169
1.67443
1.67383
1.67323
1.67271
1.67237
1.672
1.67096
1.66969
1.66801
1.66426
1.65603
1.65044
1.65031
1.65012
1.64929
1.64901
1.64865
1.64765
1.6459
1.64149
1.63189
1.62303
1.62031
1.61935
1.61926
1.61942
1.61919
1.61864
1.61766
1.61577
1.61252
1.60644
1.59955
1.59724
1.59639
1.59525
1.59369
1.59206
1.59058
1.58886
1.58638
1.58322
1.58011
1.57646
1.57356
1.57216
1.57102
1.56973
1.56804
1.56552
1.5614
1.5551
1.54995
1.549
1.54934
1.55068
1.55131
1.55119
1.54951
1.54696
1.54369
1.53888
1.53115
1.52226
1.51684
1.51554
1.51592
1.5197
1.52578
1.52782
1.52721
1.52599
1.5222
1.51309
1.49785
1.4873
1.48446
1.48415
1.4856
1.49251
1.50331
1.5083
1.50796
1.50703
1.50429
1.49624
1.47907
1.46327
1.45839
1.45746
1.45764
1.46153
1.47161
1.48135
1.4831
1.48201
1.48007
1.47483
1.46271
1.44536
1.43681
1.43529
1.43521
1.43807
1.44703
1.45596
1.4574
1.4568
1.45536
1.44933
1.43602
1.42392
1.42026
1.41948
1.42003
1.42468
1.43078
1.44197
1.50027
1.64654
1.77809
1.82343
1.81782
1.81698
1.8229
1.83168
1.83284
1.82819
1.82051
1.80846
1.79263
1.78409
1.78129
1.78259
1.79578
1.82033
1.85793
1.90473
1.9152
1.90416
1.88996
1.88399
1.88504
1.89422
1.90174
1.90002
1.8935
1.88316
1.86908
1.85903
1.85435
1.85251
1.85411
1.8558
1.85309
1.84721
1.83882
1.83011
1.82493
1.82131
1.8194
1.81873
1.81509
1.80889
1.80196
1.79454
1.78961
1.7862
1.78401
1.78378
1.78196
1.77726
1.77194
1.7656
1.76024
1.75625
1.7528
1.75008
1.7465
1.74274
1.73817
1.7318
1.72569
1.72179
1.71859
1.71658
1.7164
1.71544
1.7112
1.70606
1.6994
1.69244
1.68815
1.68493
1.6823
1.68179
1.68148
1.67831
1.67401
1.66919
1.66349
1.65923
1.65632
1.6539
1.65223
1.64995
1.64704
1.64406
1.64037
1.63604
1.63241
1.62931
1.62617
1.62294
1.61962
1.61627
1.61305
1.61016
1.60753
1.60495
1.60214
1.59879
1.59492
1.59158
1.7558
1.75588
1.75703
1.76041
1.76216
1.76289
1.76338
1.7633
1.76056
1.75028
1.73643
1.73119
1.73073
1.73109
1.73317
1.73464
1.73531
1.73543
1.73498
1.7315
1.72111
1.70807
1.70364
1.70323
1.70334
1.7043
1.70553
1.7062
1.70619
1.70603
1.70525
1.70033
1.68699
1.67502
1.67344
1.673
1.67278
1.67269
1.67221
1.67163
1.67041
1.66888
1.66704
1.66282
1.65429
1.65101
1.65099
1.65067
1.64979
1.64919
1.64829
1.64664
1.64325
1.63557
1.62555
1.62152
1.62041
1.62003
1.62038
1.62108
1.62108
1.62086
1.62005
1.61766
1.61124
1.60236
1.59733
1.5961
1.59568
1.59495
1.59359
1.59209
1.59075
1.58939
1.58764
1.58522
1.58091
1.5751
1.57183
1.57066
1.56971
1.56843
1.56653
1.56354
1.55879
1.55414
1.553
1.55324
1.55366
1.55379
1.55239
1.54936
1.54646
1.54364
1.5399
1.53407
1.52642
1.52098
1.51954
1.51972
1.52278
1.52769
1.52906
1.52831
1.52701
1.52331
1.51499
1.50101
1.49038
1.48731
1.48703
1.4883
1.49475
1.50488
1.50959
1.5092
1.5082
1.50566
1.49841
1.48235
1.46582
1.46024
1.45932
1.45951
1.46339
1.47347
1.48337
1.48525
1.48427
1.48255
1.47789
1.46665
1.44892
1.43891
1.43682
1.43657
1.43876
1.44714
1.45709
1.45951
1.45894
1.45777
1.45286
1.44057
1.42691
1.42193
1.42095
1.42105
1.42517
1.4328
1.44882
1.51848
1.67603
1.80531
1.82478
1.81977
1.81615
1.82243
1.83286
1.83509
1.8314
1.82273
1.80984
1.79393
1.78432
1.78122
1.78247
1.79396
1.81509
1.84531
1.89042
1.91517
1.90837
1.89406
1.88781
1.88745
1.89422
1.90226
1.90141
1.89527
1.88605
1.87326
1.86221
1.85693
1.85445
1.85582
1.85795
1.85596
1.85029
1.84185
1.83226
1.82632
1.82265
1.82059
1.82036
1.81847
1.81253
1.80549
1.79752
1.79161
1.7878
1.78511
1.78488
1.78428
1.78012
1.77496
1.76867
1.76272
1.75853
1.75479
1.75176
1.74831
1.74432
1.73994
1.73416
1.72787
1.72381
1.72087
1.71853
1.7183
1.71788
1.71397
1.70877
1.70272
1.69561
1.69048
1.68722
1.68447
1.68337
1.68314
1.68048
1.67603
1.67129
1.66549
1.66081
1.65778
1.65523
1.65367
1.65222
1.64923
1.64625
1.64276
1.63822
1.63425
1.63129
1.62835
1.62527
1.62206
1.6188
1.6155
1.61226
1.60933
1.60669
1.60403
1.60104
1.59742
1.59346
1.59032
1.75562
1.7566
1.75979
1.7631
1.76364
1.76433
1.76441
1.76217
1.75283
1.73843
1.73146
1.73061
1.73074
1.73258
1.73458
1.73537
1.73562
1.73543
1.73315
1.7246
1.7111
1.70453
1.70403
1.70414
1.70515
1.70615
1.70686
1.7071
1.70686
1.70611
1.70268
1.69212
1.67791
1.67322
1.67307
1.67282
1.67286
1.67308
1.6725
1.67179
1.67065
1.66903
1.66692
1.6622
1.65366
1.65112
1.65102
1.65054
1.64954
1.64843
1.64685
1.64416
1.6385
1.6293
1.62345
1.62204
1.62143
1.62163
1.62258
1.62333
1.62331
1.62292
1.6214
1.61581
1.60543
1.59844
1.59623
1.59556
1.59553
1.59519
1.59411
1.59302
1.59212
1.59126
1.58986
1.58599
1.57822
1.57231
1.57022
1.5693
1.56844
1.56715
1.56508
1.56201
1.55876
1.55733
1.55719
1.55709
1.55644
1.55313
1.54882
1.54575
1.54351
1.5408
1.53644
1.53003
1.52506
1.52366
1.52375
1.5263
1.53008
1.5307
1.52959
1.52785
1.524
1.51643
1.50395
1.4936
1.49021
1.49003
1.49129
1.49729
1.50658
1.51072
1.51015
1.5091
1.50677
1.50039
1.48589
1.46888
1.46227
1.46129
1.46144
1.46523
1.4752
1.4851
1.48698
1.48609
1.48468
1.48067
1.47044
1.4529
1.44136
1.43866
1.43828
1.43989
1.44743
1.45806
1.46146
1.46096
1.45993
1.45592
1.44499
1.43035
1.42388
1.42258
1.42217
1.42544
1.43433
1.45797
1.54277
1.70007
1.82068
1.83288
1.82681
1.82249
1.82408
1.83387
1.83835
1.83565
1.82759
1.81354
1.79445
1.78468
1.78192
1.78242
1.79175
1.81086
1.83484
1.87719
1.91097
1.91027
1.89675
1.88949
1.88896
1.89559
1.90396
1.9037
1.89759
1.88804
1.87512
1.86414
1.85922
1.85653
1.85777
1.86042
1.85918
1.85369
1.84538
1.83519
1.8281
1.82417
1.82169
1.82167
1.82089
1.81574
1.80898
1.80087
1.79387
1.78967
1.78656
1.78594
1.78589
1.78254
1.77757
1.77174
1.76539
1.76082
1.75707
1.75385
1.75054
1.74666
1.74249
1.73686
1.73015
1.72551
1.7223
1.71976
1.71943
1.71949
1.71693
1.71217
1.70629
1.69877
1.69287
1.68929
1.68625
1.68477
1.68477
1.68343
1.67919
1.67446
1.66835
1.6626
1.6591
1.65632
1.65428
1.65346
1.65127
1.64825
1.64515
1.64095
1.63632
1.63306
1.63029
1.62741
1.62432
1.6211
1.61783
1.61458
1.61149
1.60861
1.60581
1.60293
1.59972
1.59593
1.59211
1.58915
1.7565
1.75951
1.7638
1.76483
1.76544
1.7656
1.76342
1.75461
1.74013
1.73192
1.73058
1.73054
1.73208
1.73448
1.7355
1.73589
1.73583
1.73436
1.72733
1.71419
1.70584
1.70484
1.70486
1.70593
1.70708
1.70753
1.70776
1.70761
1.70687
1.70396
1.69548
1.68156
1.67414
1.67348
1.67325
1.67331
1.67366
1.67409
1.67353
1.67274
1.6718
1.67029
1.6676
1.66067
1.6523
1.65075
1.65044
1.64963
1.64841
1.64694
1.6448
1.64074
1.63311
1.62605
1.62444
1.62332
1.62328
1.62386
1.62508
1.6252
1.62497
1.62388
1.61974
1.60941
1.59981
1.59685
1.59594
1.59576
1.59619
1.59614
1.5955
1.59497
1.59435
1.59332
1.59046
1.58234
1.57367
1.57043
1.56922
1.56839
1.56751
1.56628
1.56462
1.56286
1.5618
1.56127
1.56052
1.55879
1.55404
1.54818
1.54477
1.54304
1.54125
1.53815
1.53302
1.52896
1.52781
1.52799
1.53022
1.53283
1.53273
1.53118
1.52859
1.52426
1.51724
1.50651
1.49694
1.49325
1.49308
1.49437
1.49985
1.50821
1.51169
1.51094
1.5098
1.50759
1.50207
1.48949
1.47263
1.46464
1.46345
1.46358
1.46716
1.4768
1.48651
1.48832
1.4875
1.48631
1.4829
1.4739
1.45704
1.4442
1.4408
1.44028
1.4415
1.44815
1.45886
1.46329
1.46285
1.46182
1.45847
1.44906
1.43417
1.42599
1.42442
1.4237
1.42586
1.43559
1.46724
1.57264
1.72777
1.83097
1.83997
1.82794
1.82474
1.82573
1.83403
1.83921
1.83676
1.83074
1.8196
1.80219
1.78734
1.78182
1.78109
1.78853
1.80591
1.82577
1.86145
1.90372
1.91181
1.90017
1.89297
1.89157
1.89716
1.90625
1.90706
1.90159
1.89168
1.87763
1.86528
1.85983
1.857
1.85845
1.86229
1.86219
1.85716
1.84912
1.83862
1.83038
1.82613
1.82312
1.8229
1.82279
1.81882
1.81247
1.80441
1.79637
1.79146
1.78794
1.78671
1.78701
1.78511
1.78023
1.77461
1.76799
1.76295
1.75923
1.75592
1.75287
1.74891
1.74463
1.7394
1.73278
1.72745
1.7243
1.72172
1.72083
1.72107
1.71927
1.71455
1.70912
1.70208
1.69538
1.69152
1.68863
1.68663
1.68669
1.68615
1.68239
1.67773
1.6721
1.66562
1.66121
1.65812
1.65556
1.65424
1.65279
1.6496
1.64654
1.64293
1.63845
1.63487
1.63222
1.62958
1.62672
1.6236
1.62025
1.61684
1.61363
1.61067
1.6078
1.6049
1.60181
1.5983
1.5944
1.59084
1.58805
1.75981
1.76455
1.76634
1.76684
1.76694
1.7644
1.75558
1.74132
1.73238
1.73056
1.73045
1.73181
1.73438
1.73572
1.73624
1.73628
1.73537
1.72947
1.71702
1.70743
1.70567
1.70569
1.70661
1.70792
1.70838
1.70844
1.70821
1.70738
1.70471
1.69781
1.68511
1.67564
1.67425
1.67409
1.67426
1.67481
1.6751
1.67532
1.67504
1.67423
1.67323
1.67132
1.66511
1.65631
1.65089
1.64968
1.64918
1.6482
1.64679
1.64521
1.64262
1.63709
1.62904
1.62659
1.62613
1.62512
1.62526
1.62609
1.62665
1.62642
1.62554
1.62266
1.61394
1.60225
1.59748
1.59652
1.59624
1.59655
1.59797
1.59786
1.59753
1.59715
1.59624
1.59398
1.58691
1.57609
1.57102
1.56958
1.56862
1.56803
1.56747
1.56681
1.56622
1.56577
1.56497
1.56395
1.56156
1.55538
1.54765
1.54383
1.54231
1.54117
1.53926
1.53571
1.53267
1.53186
1.53222
1.53431
1.53593
1.53512
1.533
1.52935
1.52426
1.51751
1.50854
1.50028
1.49651
1.49632
1.49747
1.50231
1.5096
1.51254
1.51169
1.51037
1.50821
1.5034
1.49277
1.47678
1.46753
1.46586
1.46598
1.46925
1.47836
1.48769
1.4894
1.48857
1.48752
1.48465
1.47686
1.46123
1.44739
1.44313
1.44252
1.44343
1.4493
1.45977
1.46485
1.46454
1.46352
1.46068
1.45266
1.43829
1.42844
1.42632
1.42554
1.42698
1.43742
1.47883
1.59938
1.75725
1.842
1.84356
1.82777
1.82155
1.82337
1.83385
1.84062
1.83857
1.83228
1.82143
1.80484
1.79148
1.78673
1.78457
1.78898
1.80306
1.81897
1.84569
1.89186
1.91265
1.9022
1.8954
1.89322
1.89827
1.90856
1.91022
1.90525
1.89579
1.88244
1.86858
1.86144
1.85809
1.859
1.86347
1.86468
1.8605
1.85274
1.84221
1.83283
1.82814
1.82488
1.82427
1.8245
1.82145
1.81535
1.80771
1.79911
1.79342
1.7897
1.78758
1.78772
1.78688
1.78228
1.77697
1.77074
1.76513
1.76131
1.758
1.75518
1.7516
1.74759
1.7426
1.73579
1.72958
1.72587
1.72294
1.72162
1.7219
1.72126
1.7173
1.71233
1.70543
1.698
1.69352
1.69029
1.68791
1.68786
1.68805
1.68561
1.68133
1.67606
1.66924
1.66396
1.66059
1.6576
1.65545
1.65421
1.65122
1.64792
1.64443
1.6399
1.63602
1.63352
1.63116
1.62869
1.62593
1.62288
1.61948
1.61595
1.61273
1.60974
1.60681
1.60382
1.60056
1.59674
1.59286
1.58971
1.58707
1.7655
1.76784
1.76829
1.7682
1.7651
1.75606
1.74202
1.73275
1.73058
1.73043
1.73167
1.73446
1.736
1.73671
1.73684
1.73628
1.73134
1.71965
1.70902
1.70649
1.70655
1.70751
1.70909
1.70945
1.70947
1.70897
1.70767
1.70471
1.69891
1.68871
1.67803
1.67493
1.6749
1.67507
1.67604
1.67683
1.67641
1.67643
1.67633
1.67551
1.67407
1.66959
1.65872
1.65204
1.64975
1.64824
1.64761
1.64671
1.6452
1.64352
1.64062
1.63388
1.62832
1.62812
1.62787
1.6268
1.62686
1.62737
1.62734
1.62666
1.62459
1.61793
1.60619
1.59862
1.59729
1.59689
1.59715
1.59848
1.60002
1.59978
1.59952
1.59872
1.59677
1.59107
1.57994
1.57217
1.5705
1.56945
1.56893
1.56878
1.56878
1.56922
1.56923
1.56818
1.56691
1.56434
1.55757
1.54797
1.54317
1.54171
1.54093
1.53983
1.53794
1.53626
1.53581
1.53637
1.53833
1.53912
1.53795
1.53508
1.53018
1.52418
1.51753
1.51018
1.50342
1.49988
1.49972
1.50069
1.5048
1.51088
1.51331
1.51245
1.51102
1.50884
1.50447
1.49546
1.48102
1.47096
1.46862
1.46874
1.47159
1.47988
1.48868
1.49033
1.48944
1.4884
1.48589
1.47931
1.46527
1.45085
1.44567
1.44494
1.44564
1.45082
1.46072
1.46623
1.46601
1.46498
1.46254
1.45581
1.44256
1.43131
1.42824
1.42755
1.42889
1.44052
1.49581
1.62932
1.78203
1.85042
1.84837
1.83083
1.82311
1.82405
1.83359
1.84244
1.84155
1.83529
1.82461
1.80773
1.79318
1.78708
1.78532
1.78997
1.80236
1.81579
1.83561
1.8762
1.90979
1.9042
1.89702
1.89465
1.89868
1.90964
1.91327
1.90915
1.89993
1.88595
1.8706
1.86343
1.85993
1.86004
1.86437
1.86669
1.8631
1.85593
1.84592
1.83565
1.83005
1.82666
1.82559
1.82599
1.82422
1.81857
1.81117
1.80202
1.79535
1.7913
1.78854
1.78851
1.78845
1.78474
1.77941
1.77313
1.76703
1.76311
1.7598
1.75713
1.75389
1.75003
1.74548
1.73916
1.73231
1.72811
1.72523
1.72317
1.72321
1.723
1.71939
1.71448
1.70835
1.70083
1.69556
1.69243
1.68986
1.68923
1.68964
1.68825
1.68412
1.67938
1.67313
1.66701
1.66325
1.66016
1.65756
1.65616
1.65354
1.64998
1.64644
1.64195
1.63725
1.63433
1.63206
1.62986
1.62751
1.62484
1.62189
1.6186
1.61516
1.61192
1.60882
1.60572
1.60256
1.59912
1.59514
1.59152
1.58893
1.58651
1.76895
1.76937
1.76902
1.76537
1.75622
1.74251
1.73322
1.7308
1.73056
1.73166
1.73481
1.73634
1.73725
1.73752
1.73717
1.73291
1.72193
1.7107
1.70734
1.70732
1.70836
1.71039
1.71097
1.71089
1.71019
1.70814
1.7042
1.69891
1.69126
1.68133
1.67635
1.67583
1.67573
1.6762
1.67782
1.67825
1.67747
1.67737
1.6771
1.67616
1.67318
1.66388
1.65237
1.64948
1.64837
1.64693
1.64621
1.64554
1.64415
1.64237
1.63947
1.63321
1.62908
1.62898
1.62892
1.62808
1.62769
1.62768
1.62722
1.62558
1.62079
1.61086
1.60099
1.59828
1.59778
1.59794
1.59897
1.60091
1.6014
1.60135
1.60081
1.59911
1.5943
1.58416
1.57451
1.57188
1.571
1.57048
1.5705
1.57084
1.57182
1.57198
1.57083
1.56948
1.56695
1.56014
1.54913
1.54308
1.54151
1.54088
1.54034
1.53976
1.53932
1.53949
1.54096
1.54228
1.54221
1.54099
1.53741
1.53103
1.52397
1.51758
1.51177
1.50625
1.50317
1.50306
1.50392
1.50749
1.51244
1.51425
1.51337
1.51192
1.50965
1.50545
1.49764
1.48488
1.47474
1.47175
1.47179
1.47425
1.48161
1.48955
1.4911
1.49018
1.48902
1.48676
1.48128
1.46912
1.45467
1.44845
1.44756
1.44805
1.45258
1.46174
1.46729
1.46718
1.46618
1.46408
1.45847
1.44689
1.4347
1.43024
1.42963
1.43119
1.44611
1.51573
1.66564
1.80344
1.85913
1.85306
1.83474
1.82687
1.82639
1.8342
1.84332
1.84287
1.83763
1.82841
1.81268
1.79621
1.78971
1.78765
1.79078
1.80249
1.81428
1.82853
1.86365
1.90345
1.90372
1.89846
1.8961
1.89966
1.91051
1.91549
1.91212
1.90372
1.89068
1.87449
1.86463
1.8603
1.86011
1.86472
1.86846
1.86573
1.85898
1.84909
1.83822
1.83184
1.82844
1.82699
1.82753
1.8267
1.8215
1.81443
1.80539
1.7977
1.79337
1.79017
1.78952
1.78976
1.78699
1.78173
1.77585
1.7694
1.76486
1.76146
1.75863
1.75591
1.75228
1.74821
1.74258
1.73547
1.73031
1.72694
1.72443
1.72414
1.72424
1.72156
1.71721
1.7116
1.7039
1.69771
1.69414
1.6912
1.69005
1.69053
1.69029
1.68683
1.68245
1.67669
1.67001
1.66576
1.66262
1.65977
1.65807
1.65628
1.6526
1.64897
1.64476
1.63962
1.63566
1.63314
1.6309
1.62864
1.62613
1.62339
1.62045
1.61733
1.61418
1.61107
1.60793
1.60463
1.60109
1.59722
1.59343
1.5906
1.58828
1.5859
1.77023
1.76923
1.76475
1.75565
1.74274
1.73373
1.73118
1.73094
1.73192
1.73548
1.73704
1.73785
1.73825
1.73803
1.7342
1.7238
1.71241
1.7084
1.70824
1.70927
1.7115
1.71243
1.71234
1.71141
1.70836
1.70339
1.69846
1.69302
1.68494
1.67805
1.67724
1.67659
1.67654
1.6771
1.67889
1.67895
1.67835
1.678
1.67738
1.67564
1.6687
1.65619
1.64902
1.64774
1.64707
1.64631
1.64558
1.645
1.64388
1.6421
1.63949
1.6342
1.62938
1.62909
1.62912
1.62857
1.62782
1.6273
1.62605
1.62261
1.61467
1.60493
1.60017
1.59901
1.59897
1.59958
1.60135
1.60227
1.60239
1.60223
1.60105
1.59717
1.58812
1.57743
1.57357
1.57306
1.57263
1.57267
1.57303
1.57399
1.57419
1.57298
1.5715
1.56915
1.56294
1.55141
1.54344
1.54165
1.54124
1.54113
1.54125
1.54172
1.54339
1.54533
1.54606
1.5454
1.54395
1.53953
1.53178
1.52364
1.5177
1.5132
1.50871
1.50626
1.50624
1.50708
1.51029
1.51442
1.51566
1.51479
1.5133
1.51068
1.50631
1.49934
1.4884
1.47883
1.47531
1.47517
1.47707
1.48338
1.49034
1.4917
1.49074
1.4895
1.4875
1.48294
1.47272
1.45872
1.45148
1.45036
1.45067
1.45459
1.46282
1.46805
1.46799
1.46708
1.46534
1.46065
1.45088
1.43866
1.43261
1.43187
1.43379
1.45388
1.54188
1.69689
1.82368
1.86451
1.85766
1.83798
1.82834
1.82743
1.8341
1.84282
1.84299
1.83861
1.82992
1.81536
1.79929
1.79205
1.78912
1.79092
1.80147
1.81281
1.82286
1.84943
1.89208
1.90808
1.90219
1.89965
1.90158
1.91159
1.91757
1.91483
1.90709
1.89472
1.87802
1.86735
1.86298
1.86193
1.86535
1.86996
1.86848
1.86206
1.85252
1.84112
1.83335
1.82971
1.82793
1.8287
1.8288
1.82462
1.81796
1.80882
1.8
1.79505
1.79156
1.79029
1.79068
1.78945
1.78455
1.77879
1.77193
1.76674
1.7632
1.76014
1.75756
1.75411
1.75028
1.74527
1.73856
1.73281
1.72949
1.72671
1.72568
1.72582
1.72371
1.71914
1.71387
1.70671
1.69989
1.69621
1.69348
1.6916
1.69185
1.69196
1.68897
1.68448
1.67941
1.67308
1.66814
1.66497
1.66213
1.66013
1.65873
1.65533
1.65149
1.64746
1.64247
1.63784
1.63492
1.63258
1.63021
1.62763
1.6248
1.62182
1.6188
1.6159
1.61303
1.61008
1.60698
1.60354
1.59958
1.59546
1.59227
1.58985
1.58757
1.58528
1.76897
1.76347
1.75429
1.74239
1.73403
1.73154
1.73141
1.73249
1.7364
1.7382
1.73876
1.73913
1.73889
1.73513
1.72512
1.71379
1.7095
1.70924
1.71041
1.71273
1.71361
1.71362
1.7127
1.70871
1.70247
1.69745
1.69351
1.68835
1.68043
1.67803
1.67773
1.67706
1.67708
1.67768
1.6793
1.67926
1.6789
1.67834
1.67707
1.67215
1.66043
1.65085
1.64795
1.64675
1.64665
1.6465
1.64591
1.64534
1.6446
1.64298
1.64018
1.63443
1.62901
1.62865
1.62873
1.62839
1.6275
1.62628
1.62383
1.61782
1.60822
1.60289
1.60157
1.60024
1.60036
1.60128
1.60292
1.60309
1.60302
1.60238
1.59975
1.5921
1.58094
1.57539
1.57497
1.5749
1.57501
1.57533
1.57577
1.57585
1.5748
1.57322
1.57094
1.56535
1.55441
1.54476
1.54224
1.542
1.54211
1.54277
1.54449
1.54692
1.54888
1.54912
1.54852
1.54681
1.54145
1.53231
1.52321
1.51771
1.51404
1.51062
1.50908