/*--------------------------------*- C++ -*----------------------------------*\
  =========                 |
  \\      /  F ield         | OpenFOAM: The Open Source CFD Toolbox
   \\    /   O peration     | Website:  https://openfoam.org
    \\  /    A nd           | Version:  7
     \\/     M anipulation  |
\*---------------------------------------------------------------------------*/
FoamFile
{
    version     2.0;
    format      ascii;
    class       volScalarField;
    location    "2.1";
    object      p;
}
// * * * * * * * * * * * * * * * * * * * * * * * * * * * * * * * * * * * * * //

dimensions      [1 -1 -2 0 0 0 0];

internalField   nonuniform List<scalar> 
4128
(
2.2533
2.25691
2.30732
2.55273
3.10347
3.78711
3.96392
3.93147
3.93542
3.92672
3.93486
3.89815
3.85959
3.82377
3.77998
3.70941
3.64513
3.60091
3.53712
3.47529
3.43411
3.39126
3.36115
3.35445
3.33864
3.30932
3.2596
3.19061
3.11697
3.08193
3.06009
3.03254
3.01808
3.00683
2.99129
2.9844
2.96167
3.03659
3.42024
4.28087
5.20372
5.71521
5.90291
6.01517
6.11085
6.12185
6.0656
5.94852
5.76575
5.55049
5.36879
5.27895
5.2493
5.25455
5.29458
5.2921
5.25233
5.17925
5.04069
4.86291
4.72213
4.66359
4.6434
4.64529
4.65663
4.63112
4.59079
4.52402
4.39571
4.26042
4.19934
4.18022
4.19022
4.2664
4.45254
4.7437
5.0517
5.20096
5.19868
5.18651
5.1814
5.16012
5.10825
5.05022
4.98045
4.87769
4.75643
4.69771
4.66373
4.63842
4.61573
4.58358
4.5466
4.49351
4.40625
4.32153
4.27323
4.23277
4.19284
4.15289
4.11035
4.05921
3.99367
3.94055
3.91238
3.88631
3.86001
3.83296
3.80349
3.76709
3.71347
3.63503
3.57027
3.53986
3.51559
3.49266
3.47132
3.45057
3.42833
3.40148
3.36424
3.30424
3.22651
3.18382
3.16465
3.14762
3.13174
3.1142
3.09258
2.2886
2.27392
2.26006
2.30155
2.5189
3.12136
3.71724
3.86501
3.9439
3.98133
3.98249
3.94179
3.90358
3.86121
3.8021
3.72618
3.68063
3.6268
3.55564
3.5027
3.4636
3.42122
3.40696
3.40203
3.3831
3.34542
3.2871
3.21196
3.1571
3.13145
3.10418
3.07586
3.06133
3.05395
3.04341
3.1054
3.39577
4.07808
5.14919
5.93419
6.20708
6.25457
6.21728
6.23491
6.21558
6.16442
6.06147
5.8898
5.67642
5.49731
5.41448
5.38666
5.40161
5.43689
5.41539
5.37086
5.28959
5.14208
4.96057
4.82064
4.7592
4.73432
4.73287
4.74506
4.72185
4.68164
4.61395
4.48425
4.34574
4.27961
4.26364
4.27632
4.36598
4.58489
4.89157
5.20891
5.35331
5.31498
5.26632
5.23475
5.23051
5.19135
5.13743
5.07896
4.99935
4.87971
4.79162
4.74998
4.71696
4.687
4.65227
4.61477
4.56977
4.49569
4.40809
4.35798
4.31942
4.28024
4.24012
4.19605
4.14131
4.06388
3.99042
3.95956
3.93553
3.91161
3.88737
3.86172
3.83274
3.79396
3.73097
3.64442
3.5886
3.56046
3.53601
3.51253
3.48986
3.4682
3.44663
3.42087
3.38157
3.31708
3.24942
3.21006
3.18484
3.16307
3.1421
3.12022
3.09701
2.33128
2.31009
2.27468
2.2334
2.26112
2.48875
3.16216
3.66743
3.88673
4.0137
4.01168
3.98406
3.95539
3.90994
3.82967
3.75695
3.71315
3.64732
3.57627
3.53363
3.49509
3.46724
3.46174
3.45042
3.42385
3.37992
3.31649
3.24784
3.20181
3.1756
3.14307
3.1209
3.11548
3.15041
3.35447
4.08025
5.09018
5.91887
6.19647
6.30267
6.34111
6.37788
6.40366
6.35069
6.2642
6.13838
5.95047
5.74034
5.59964
5.52689
5.50008
5.52299
5.56265
5.53528
5.48442
5.39013
5.22796
5.04492
4.91606
4.86016
4.83619
4.83588
4.84342
4.81695
4.77475
4.70182
4.56431
4.42054
4.35167
4.34167
4.36163
4.47446
4.73519
5.06971
5.37852
5.50372
5.43525
5.35264
5.30654
5.29187
5.27975
5.23069
5.17869
5.11596
5.01012
4.89713
4.84353
4.80745
4.77483
4.73643
4.69473
4.64727
4.57168
4.47741
4.42594
4.39489
4.36267
4.32822
4.29085
4.24289
4.16804
4.06693
4.0043
3.9765
3.9522
3.93128
3.90989
3.88521
3.85794
3.81917
3.74945
3.66027
3.60977
3.5823
3.55794
3.5345
3.51037
3.48487
3.45945
3.43119
3.39032
3.3319
3.27716
3.2405
3.21057
3.18253
3.15621
3.13065
3.10377
2.36844
2.34331
2.28438
2.21674
2.20419
2.25007
2.55822
3.20896
3.65309
3.95307
4.03852
4.04127
4.01846
3.95223
3.84434
3.78757
3.73955
3.66534
3.60577
3.5699
3.53688
3.52605
3.52215
3.5026
3.46685
3.41714
3.33684
3.27657
3.23925
3.21034
3.18829
3.20349
3.34673
3.92037
4.90087
6.02815
6.48749
6.70895
6.65152
6.52851
6.46388
6.46773
6.45553
6.38323
6.25265
6.06575
5.84245
5.67969
5.60389
5.58029
5.61683
5.66734
5.63929
5.58979
5.4915
5.32476
5.13194
5.00145
4.95192
4.93286
4.94102
4.94864
4.91721
4.87255
4.79543
4.65069
4.49534
4.41993
4.41057
4.43719
4.57317
4.87658
5.25318
5.55717
5.65088
5.56453
5.45457
5.40086
5.3747
5.37176
5.33131
5.27892
5.22132
5.1168
4.99532
4.93269
4.89615
4.86887
4.83418
4.7911
4.73705
4.65137
4.54374
4.47989
4.45144
4.43062
4.40823
4.37599
4.33919
4.28315
4.18138
4.07258
4.02732
3.99989
3.9756
3.95592
3.93225
3.90594
3.87585
3.83189
3.75951
3.68045
3.63762
3.60886
3.58167
3.55635
3.53235
3.50623
3.47547
3.44074
3.39176
3.33613
3.29968
3.27269
3.24347
3.20854
3.1699
3.13449
3.10639
2.39374
2.34906
2.28105
2.21592
2.20671
2.21496
2.28314
2.632
3.1687
3.71696
4.00132
4.06125
4.05171
3.96486
3.86857
3.82254
3.75914
3.68496
3.64436
3.6126
3.59649
3.59311
3.58017
3.55005
3.50855
3.42792
3.34831
3.30545
3.27656
3.27265
3.35376
3.78078
4.82598
6.02234
6.53387
6.57999
6.66886
6.76352
6.81072
6.75595
6.66526
6.58473
6.48927
6.34575
6.14432
5.93756
5.80223
5.73363
5.70167
5.72862
5.78098
5.75394
5.69794
5.58271
5.39452
5.20151
5.08814
5.04465
5.02844
5.04313
5.05423
5.02132
4.97468
4.89327
4.73903
4.57216
4.48991
4.48076
4.51251
4.66254
5.00033
5.41372
5.72311
5.78354
5.68887
5.56651
5.50849
5.47875
5.47754
5.44532
5.3886
5.32081
5.20385
5.07707
5.00642
4.97322
4.95413
4.93251
4.89246
4.8428
4.76157
4.63349
4.53606
4.5026
4.4799
4.4713
4.44783
4.41507
4.37627
4.30878
4.18493
4.09562
4.0594
4.03251
4.01027
3.98499
3.95622
3.92597
3.88992
3.8325
3.74912
3.69542
3.66839
3.64178
3.61263
3.58203
3.55289
3.52795
3.50088
3.4544
3.39837
3.35515
3.32948
3.30641
3.27854
3.24163
3.19692
3.14955
3.10816
2.39721
2.3361
2.28077
2.23732
2.22404
2.22773
2.2411
2.32361
2.63041
3.18332
3.82681
4.01561
4.01923
3.95955
3.89281
3.83359
3.76923
3.72597
3.69228
3.67038
3.66422
3.65617
3.62593
3.58937
3.52564
3.42431
3.36249
3.34537
3.39964
3.72956
4.60443
5.78387
6.88833
7.13689
7.09498
6.8768
6.79789
6.78558
6.84167
6.82657
6.75315
6.62192
6.44738
6.24776
6.0423
5.89674
5.82997
5.8057
5.84756
5.90397
5.87414
5.81529
5.69534
5.49942
5.28846
5.15987
5.11409
5.10184
5.13265
5.1547
5.12385
5.07958
4.99833
4.84097
4.65911
4.5623
4.55314
4.59106
4.75938
5.11754
5.56279
5.872
5.90607
5.80703
5.67173
5.6117
5.58322
5.58674
5.56454
5.50767
5.43442
5.30793
5.16242
5.07236
5.038
5.02081
5.01773
4.98489
4.94165
4.8802
4.75442
4.62018
4.56693
4.53784
4.52335
4.50854
4.47635
4.44213
4.39425
4.29041
4.18191
4.13211
4.10364
4.07945
4.05302
4.02148
3.98742
3.95106
3.89893
3.81595
3.74682
3.71927
3.69615
3.67219
3.64636
3.61759
3.5836
3.54045
3.48392
3.42567
3.38629
3.36843
3.35257
3.33476
3.31199
3.27636
3.2171
3.15202
3.11532
2.38664
2.32672
2.29446
2.27471
2.25855
2.25457
2.25527
2.2687
2.35217
2.63728
3.36151
3.80895
3.95353
3.96805
3.91422
3.83224
3.79698
3.77748
3.74512
3.73213
3.7314
3.70161
3.65591
3.60402
3.51791
3.43764
3.4526
3.66103
4.45561
5.72756
6.87943
7.19406
7.18629
7.13082
7.09522
7.0427
7.0346
6.97006
6.92027
6.8674
6.75599
6.55919
6.32526
6.13496
6.0175
5.95899
5.9318
5.97019
6.02795
5.99542
5.92968
5.79976
5.58965
5.37857
5.25974
5.21142
5.19326
5.22186
5.24974
5.22052
5.1795
5.10149
4.94216
4.75409
4.6476
4.63843
4.685
4.87877
5.25529
5.71891
6.02046
6.03855
5.92468
5.77276
5.7077
5.67833
5.68346
5.67457
5.62092
5.5527
5.43204
5.2689
5.15492
5.11254
5.08925
5.08915
5.06505
5.02317
4.97544
4.86879
4.73014
4.65144
4.61784
4.59736
4.57689
4.54207
4.50534
4.46019
4.36695
4.25805
4.2003
4.17349
4.15181
4.12861
4.0986
4.06419
4.0229
3.96379
3.87383
3.79603
3.76627
3.74591
3.72543
3.70305
3.67887
3.65065
3.61277
3.55416
3.47261
3.41581
3.39644
3.3809
3.36634
3.35292
3.33633
3.30715
3.24978
3.17767
3.13233
2.37914
2.33682
2.31964
2.30731
2.29704
2.29156
2.28645
2.28187
2.29924
2.38062
2.749
3.34759
3.70578
3.92395
3.91385
3.84407
3.83745
3.8338
3.81189
3.80112
3.7823
3.72799
3.68175
3.60085
3.56726
3.68902
4.3289
5.4777
6.80618
7.58271
7.71939
7.61156
7.32585
7.09665
7.06643
7.10206
7.13798
7.06393
6.96485
6.84222
6.6813
6.46773
6.25933
6.11531
6.05586
6.03059
6.0716
6.13445
6.10516
6.04041
5.91583
5.7058
5.47791
5.34719
5.29861
5.27973
5.31015
5.34251
5.3131
5.27298
5.2002
5.04731
4.85624
4.73553
4.72632
4.78554
5.01424
5.4227
5.88811
6.18503
6.19118
6.06075
5.88324
5.80218
5.7681
5.76682
5.76521
5.71619
5.65733
5.55261
5.39364
5.25935
5.20755
5.17867
5.17135
5.14654
5.10307
5.05277
4.95091
4.82295
4.73634
4.7025
4.68162
4.66445
4.62885
4.58619
4.53256
4.43363
4.32136
4.25369
4.22861
4.21109
4.19949
4.17654
4.14628
4.10775
4.04681
3.9455
3.84846
3.80636
3.787
3.77163
3.75782
3.73593
3.71074
3.68161
3.63683
3.55628
3.4642
3.42741
3.41125
3.39448
3.37512
3.35416
3.33568
3.31312
3.2726
3.22296
3.18306
2.38667
2.36027
2.34654
2.34029
2.33571
2.3304
2.32795
2.32056
2.31622
2.32618
2.40638
2.74581
3.17794
3.66874
3.87811
3.86741
3.87928
3.89382
3.89406
3.86318
3.80863
3.75746
3.70657
3.7837
4.22289
5.3588
6.72625
7.52955
7.68272
7.7187
7.71029
7.62015
7.45693
7.27171
7.19055
7.18578
7.1652
7.0945
6.95376
6.76767
6.56846
6.39849
6.27609
6.21666
6.18308
6.20126
6.2426
6.20747
6.14142
6.02092
5.82052
5.59725
5.46383
5.41308
5.38961
5.41036
5.43727
5.40498
5.36269
5.29241
5.1469
4.96123
4.83605
4.82648
4.9007
5.16615
5.60376
6.06656
6.34917
6.34328
6.21513
6.02038
5.91435
5.87258
5.8573
5.84889
5.80216
5.74603
5.64612
5.49995
5.36707
5.31365
5.284
5.27463
5.24707
5.20051
5.14121
5.02915
4.89399
4.80038
4.76877
4.75358
4.74954
4.71921
4.67836
4.6241
4.52126
4.38965
4.30333
4.27573
4.25812
4.25362
4.24415
4.21849
4.18766
4.14091
4.04881
3.924
3.8516
3.82866
3.80976
3.79778
3.78446
3.76134
3.73328
3.69787
3.63703
3.55037
3.48966
3.45551
3.42484
3.40225
3.38601
3.36853
3.34174
3.30749
3.27522
3.24598
3.21835
2.40647
2.38698
2.37993
2.37632
2.37227
2.36947
2.37367
2.36501
2.35061
2.33432
2.30306
2.36052
2.60796
3.12566
3.70433
3.81491
3.88594
3.93898
3.94246
3.90768
3.84106
3.9029
4.2524
5.23796
6.58459
7.65035
8.1598
8.18646
7.99334
7.72866
7.58924
7.54731
7.51726
7.43371
7.31981
7.23566
7.1617
7.04711
6.87899
6.68434
6.51198
6.40427
6.36026
6.33713
6.35163
6.36518
6.3114
6.23955
6.12162
5.93409
5.71849
5.58311
5.53326
5.50909
5.52408
5.53623
5.49797
5.45114
5.37831
5.24089
5.06512
4.93926
4.93391
5.02358
5.3215
5.78849
6.24322
6.49394
6.47815
6.3529
6.17169
6.05512
6.00522
5.97673
5.95225
5.9005
5.83757
5.72735
5.58051
5.45345
5.40099
5.37664
5.37621
5.35378
5.30724
5.24673
5.13181
4.9822
4.86924
4.83008
4.81113
4.8171
4.80442
4.76589
4.72054
4.63766
4.49085
4.36599
4.32369
4.30135
4.29147
4.29369
4.27555
4.24666
4.21626
4.1583
4.03885
3.92382
3.88252
3.85881
3.83999
3.82129
3.79881
3.7775
3.75651
3.7141
3.6354
3.5584
3.52051
3.49262
3.46257
3.42881
3.39362
3.35842
3.32381
3.29207
3.27019
3.25467
3.23925
2.43062
2.42122
2.41749
2.41333
2.40977
2.41482
2.41348
2.40276
2.3828
2.33801
2.27112
2.25724
2.31639
2.57605
3.24772
3.66207
3.84054
3.94101
3.96072
4.01535
4.36422
5.23431
6.59993
7.621
8.06097
8.18409
8.21908
8.19099
8.04594
7.81055
7.61499
7.5426
7.53683
7.49583
7.40342
7.28392
7.14716
6.96741
6.77802
6.62398
6.53367
6.49524
6.47823
6.48573
6.47932
6.41706
6.33684
6.21242
6.02747
5.82617
5.70335
5.65756
5.63401
5.64352
5.63632
5.59132
5.53828
5.45993
5.32675
5.1622
5.04429
5.04665
5.1555
5.48405
5.96575
6.41098
6.62208
6.58506
6.45912
6.30592
6.19875
6.14931
6.12038
6.0845
6.02615
5.94829
5.82044
5.66379
5.53399
5.47564
5.45106
5.45762
5.44844
5.40438
5.3527
5.25115
5.09082
4.9567
4.90612
4.87983
4.87634
4.87352
4.8388
4.80063
4.74349
4.61544
4.46447
4.39026
4.35982
4.33814
4.32903
4.31561
4.29011
4.2638
4.22055
4.13193
4.02233
3.96505
3.93562
3.90826
3.87983
3.84814
3.81473
3.783
3.73956
3.68266
3.62344
3.58337
3.55466
3.52615
3.49581
3.45871
3.41171
3.35641
3.31253
3.29241
3.27771
3.26663
3.25693
2.46414
2.46048
2.45606
2.45171
2.45617
2.45665
2.44653
2.4299
2.39318
2.32345
2.26627
2.25159
2.25626
2.32133
2.6811
3.2827
3.69149
3.88532
4.33962
5.28067
6.64198
7.73402
8.4708
8.66061
8.6158
8.39856
8.19569
8.11195
8.01196
7.887
7.71703
7.58811
7.54669
7.5113
7.44283
7.3192
7.13899
6.91517
6.72065
6.63411
6.60046
6.58892
6.59581
6.57716
6.51503
6.43518
6.31323
6.12783
5.92566
5.80003
5.75775
5.73626
5.74244
5.72894
5.68083
5.62452
5.54515
5.41545
5.25751
5.14608
5.15506
5.29645
5.65428
6.1471
6.56738
6.7355
6.68106
6.55113
6.41019
6.32673
6.28415
6.25896
6.22307
6.1646
6.08332
5.9435
5.767
5.62418
5.55983
5.52959
5.53041
5.52928
5.48719
5.44165
5.35632
5.20476
5.05697
4.99402
4.96582
4.95586
4.94365
4.90696
4.86824
4.81841
4.71436
4.57469
4.47891
4.44839
4.42632
4.40118
4.36697
4.32943
4.29958
4.26143
4.18591
4.08722
4.0325
4.01169
3.98781
3.95829
3.92386
3.88534
3.84603
3.79049
3.71319
3.651
3.62421
3.60787
3.58933
3.56682
3.53667
3.48887
3.41557
3.34601
3.31638
3.30236
3.28868
3.27297
3.2541
2.50503
2.50063
2.49579
2.49957
2.50077
2.48977
2.47248
2.43881
2.37741
2.31097
2.28229
2.2692
2.26224
2.2743
2.36125
2.67939
3.44803
4.7164
6.30214
7.82344
8.4777
8.54599
8.64138
8.69875
8.68039
8.52572
8.29112
8.09454
7.96332
7.88193
7.77884
7.64581
7.55635
7.50323
7.43658
7.31904
7.11916
6.88374
6.76331
6.71589
6.68937
6.68723
6.67249
6.61167
6.53506
6.42542
6.24491
6.03933
5.90084
5.85495
5.829
5.82226
5.80795
5.76222
5.7074
5.63447
5.51547
5.35972
5.25084
5.26726
5.44579
5.8482
6.35559
6.74953
6.86554
6.79108
6.63677
6.49925
6.4311
6.39621
6.37877
6.34394
6.28888
6.22043
6.08241
5.89099
5.73217
5.6614
5.62563
5.61842
5.6136
5.57019
5.52266
5.44231
5.29872
5.15052
5.07916
5.05194
5.04306
5.03435
4.9966
4.9513
4.89374
4.78409
4.64788
4.55632
4.5262
4.50729
4.49002
4.45964
4.42069
4.37409
4.31028
4.22296
4.13405
4.07547
4.05376
4.042
4.02915
4.00482
3.97441
3.93083
3.85782
3.76194
3.68963
3.65494
3.63546
3.61613
3.60186
3.58483
3.56175
3.51625
3.43126
3.3577
3.32749
3.30919
3.29489
3.2855
3.27004
2.54637
2.54164
2.54446
2.54571
2.53436
2.51582
2.48191
2.42312
2.35815
2.3252
2.31557
2.30465
2.29417
2.3116
2.44945
3.05995
4.50421
6.35746
7.91578
8.77429
9.08559
8.90401
8.75804
8.64596
8.63123
8.57007
8.37971
8.11313
7.94453
7.86146
7.79352
7.69353
7.57456
7.48747
7.40852
7.29069
7.09054
6.92919
6.86831
6.81794
6.78213
6.75749
6.70974
6.64153
6.5485
6.38467
6.17536
6.01342
5.95902
5.92614
5.90297
5.88
5.83354
5.78134
5.71956
5.62571
5.48341
5.36534
5.38948
5.60825
6.06054
6.5751
6.9595
7.02256
6.9306
6.7483
6.59208
6.52197
6.48875
6.47963
6.44615
6.39379
6.33323
6.20262
6.01414
5.84672
5.77
5.73354
5.72453
5.71801
5.67268
5.61718
5.53236
5.38602
5.23325
5.14951
5.12239
5.11449
5.1181
5.08657
5.04257
4.98781
4.87615
4.72246
4.61367
4.57902
4.56544
4.56455
4.54409
4.51274
4.47361
4.40629
4.28266
4.16449
4.11054
4.09098
4.07905
4.07695
4.06615
4.04291
4.01209
3.96059
3.85726
3.73865
3.68285
3.66483
3.65149
3.63713
3.61766
3.59717
3.5728
3.52939
3.45546
3.38961
3.35362
3.32671
3.30087
3.27613
3.25121
2.58818
2.5899
2.58999
2.57845
2.56015
2.52669
2.4696
2.40283
2.36569
2.35572
2.35639
2.35827
2.40938
2.74348
3.47935
4.69283
5.57447
6.42135
7.64433
8.44356
8.9121
8.94968
8.83142
8.64058
8.55329
8.49928
8.33252
8.10624
7.94903
7.86951
7.81518
7.74255
7.63831
7.52814
7.42
7.24526
7.07818
7.01354
6.96217
6.90802
6.85535
6.79815
6.73653
6.66225
6.52449
6.32071
6.14447
6.07891
6.04107
6.00379
5.96227
5.9109
5.85214
5.78707
5.71186
5.60702
5.49625
5.53042
5.79544
6.29075
6.79345
7.14006
7.17909
7.09669
6.89964
6.71336
6.63436
6.59403
6.58056
6.54496
6.49252
6.42896
6.29909
6.11356
5.94828
5.8674
5.83275
5.82547
5.82932
5.78718
5.72921
5.6439
5.48849
5.31978
5.21943
5.18786
5.17409
5.18244
5.16213
5.12105
5.07816
4.98618
4.83096
4.69054
4.63461
4.61335
4.61033
4.61446
4.58838
4.55389
4.51188
4.41308
4.26529
4.15571
4.12134
4.10337
4.10066
4.10649
4.08834
4.06604
4.04185
3.97757
3.85655
3.75198
3.70676
3.67876
3.65952
3.65156
3.64672
3.62752
3.59818
3.55064
3.48486
3.42916
3.3863
3.3468
3.31013
3.2791
3.25235
2.63615
2.63351
2.62075
2.6031
2.57108
2.51652
2.4494
2.40705
2.39779
2.40196
2.44232
2.64836
3.32334
4.34757
5.21967
5.86291
5.93712
6.15579
6.61812
7.30099
8.09699
8.56386
8.7498
8.70027
8.59025
8.45241
8.2976
8.11776
7.98601
7.89645
7.84316
7.79131
7.71761
7.61542
7.43105
7.21597
7.10992
7.05935
7.00728
6.95548
6.89174
6.82361
6.75326
6.64665
6.47417
6.28347
6.19863
6.15899
6.11318
6.06333
6.00695
5.94054
5.86817
5.79482
5.71013
5.61871
5.67038
5.98089
6.51276
7.0026
7.3129
7.32994
7.2453
7.06254
6.8678
6.7727
6.72735
6.70062
6.65352
6.59738
6.52272
6.38588
6.19993
6.04026
5.95407
5.91932
5.9117
5.92514
5.89041
5.83656
5.76669
5.62411
5.437
5.30245
5.25884
5.23627
5.23558
5.22119
5.18305
5.14906
5.07702
4.94418
4.79491
4.71153
4.68074
4.66172
4.65288
4.63566
4.61395
4.58548
4.51468
4.39077
4.26149
4.19609
4.16021
4.13779
4.12826
4.12212
4.10354
4.07468
4.02048
3.93747
3.85061
3.8005
3.7649
3.72714
3.68849
3.65265
3.62128
3.59276
3.55658
3.51543
3.48317
3.45788
3.42997
3.39255
3.3429
3.28961
3.24504
2.67904
2.66388
2.64531
2.61395
2.56181
2.4957
2.45232
2.44364
2.46816
2.61915
3.17042
4.14376
5.15044
5.69805
6.01978
6.02403
5.94185
5.83591
5.87619
6.18923
7.03978
8.04028
8.67919
8.75747
8.62789
8.39369
8.2569
8.17625
8.0797
7.985
7.91365
7.8525
7.77008
7.60152
7.36886
7.20229
7.13749
7.08526
7.04066
6.98673
6.91763
6.84029
6.74546
6.5958
6.40672
6.30024
6.25817
6.21188
6.16146
6.10595
6.04344
5.9734
5.89685
5.80782
5.72681
5.79679
6.1565
6.70848
7.19034
7.46445
7.46993
7.37084
7.19345
7.01733
6.92294
6.87603
6.84203
6.7853
6.71508
6.62098
6.47247
6.28471
6.12909
6.03952
6.00248
5.9913
6.00656
5.9763
5.92568
5.86754
5.74751
5.57444
5.41997
5.35485
5.3218
5.30246
5.27741
5.24156
5.20768
5.13818
5.02759
4.89436
4.80641
4.7762
4.75331
4.724
4.68663
4.65073
4.61398
4.54991
4.45865
4.35525
4.29882
4.27208
4.24389
4.21008
4.17001
4.13109
4.09671
4.04486
3.96578
3.8917
3.86051
3.84085
3.81386
3.77804
3.73111
3.67947
3.63052
3.57805
3.52792
3.49738
3.48143
3.469
3.45259
3.42635
3.37695
3.30649
3.24595
2.70873
2.68871
2.65749
2.60748
2.5422
2.50001
2.5059
2.60186
3.01746
3.97097
5.02492
5.69213
6.12066
6.23369
6.22397
6.09897
5.86368
5.71363
5.69077
5.74554
6.14683
7.01525
8.09956
8.54699
8.46689
8.33038
8.25901
8.22009
8.17019
8.07188
7.98508
7.89829
7.75017
7.53919
7.33348
7.21815
7.15203
7.0993
7.06646
7.01691
6.95025
6.86513
6.7307
6.53836
6.38642
6.33472
6.28744
6.23847
6.18639
6.13012
6.07163
6.00786
5.93417
5.86027
5.9473
6.33685
6.9001
7.36011
7.60513
7.59724
7.47962
7.29928
7.13452
7.04994
7.00994
6.98805
6.93457
6.8608
6.75393
6.58078
6.37597
6.21952
6.12759
6.08651
6.0694
6.08074
6.05324
6.00205
5.94664
5.83849
5.6779
5.53674
5.4743
5.44193
5.41114
5.36836
5.31624
5.26134
5.17616
5.06693
4.95757
4.88694
4.8598
4.84727
4.82534
4.78684
4.73915
4.67776
4.57817
4.46509
4.38502
4.34923
4.33565
4.32957
4.31129
4.27913
4.23254
4.16409
4.07086
3.98336
3.92147
3.89146
3.87642
3.86609
3.84822
3.82121
3.77921
3.70358
3.60596
3.54494
3.51766
3.50166
3.48625
3.47461
3.46017
3.43919
3.40073
3.32389
3.25497
2.73157
2.70155
2.65318
2.59082
2.56168
2.60476
2.91392
3.76017
4.9481
5.67406
5.99856
6.22252
6.31179
6.29029
6.20282
6.00991
5.79523
5.71068
5.67918
5.69466
5.80468
6.12526
6.89178
7.86353
8.26024
8.26983
8.26021
8.27819
8.21183
8.10907
8.00717
7.86918
7.67844
7.47323
7.32659
7.25215
7.18674
7.13599
7.10737
7.05954
6.99527
6.89325
6.69136
6.48539
6.4049
6.36204
6.31369
6.26071
6.20472
6.15305
6.10438
6.06168
6.04145
6.16473
6.59395
7.12638
7.55294
7.75167
7.73086
7.59549
7.39682
7.23352
7.15083
7.11034
7.10528
7.06611
7.00077
6.91201
6.73914
6.5042
6.32108
6.22252
6.17817
6.15642
6.15927
6.12843
6.07545
6.02047
5.91788
5.76323
5.6255
5.56275
5.53926
5.52904
5.49459
5.44188
5.36575
5.24196
5.10122
4.99857
4.9407
4.91748
4.91642
4.92146
4.89151
4.84849
4.78181
4.65285
4.50564
4.41806
4.37963
4.36261
4.36811
4.38568
4.36414
4.32821
4.27273
4.15475
4.01313
3.94154
3.91451
3.90185
3.90241
3.90123
3.88135
3.85492
3.81167
3.72102
3.60156
3.53968
3.52078
3.51035
3.5095
3.49969
3.48077
3.45774
3.41838
3.34775
3.28316
2.74217
2.69576
2.64084
2.65253
2.85126
3.52744
4.72001
5.76371
6.16182
6.34429
6.43485
6.45595
6.39332
6.26244
6.09368
5.91616
5.80529
5.76464
5.75222
5.73931
5.71844
5.72728
5.9103
6.5528
7.45055
8.00748
8.26728
8.30112
8.23321
8.10239
7.95678
7.79758
7.60782
7.44646
7.3679
7.30744
7.2497
7.19989
7.15712
7.11103
7.03876
6.89163
6.67326
6.50076
6.42323
6.36393
6.31082
6.26184
6.21539
6.18223
6.16708
6.22319
6.42232
6.91444
7.42265
7.78388
7.92361
7.88296
7.73274
7.52899
7.35325
7.25221
7.1996
7.18692
7.17335
7.12265
7.0443
6.90239
6.68131
6.45816
6.33646
6.28556
6.25629
6.25122
6.21967
6.16424
6.1048
5.99972
5.8414
5.70155
5.6353
5.61014
5.60825
5.59288
5.54705
5.48811
5.37744
5.19765
5.05341
4.98516
4.95967
4.95561
4.98302
4.97045
4.93276
4.888
4.78277
4.60754
4.46814
4.41415
4.39362
4.38623
4.41018
4.41952
4.39903
4.36691
4.28975
4.14004
4.0001
3.9473
3.92689
3.91267
3.9154
3.91623
3.89529
3.87233
3.83076
3.73527
3.62603
3.57021
3.53945
3.51293
3.48728
3.46409
3.44068
3.41382
3.38736
3.3609
3.32671
2.73347
2.71812
2.81986
3.37463
4.52574
5.74268
6.20433
6.3188
6.42587
6.51078
6.52241
6.46199
6.3389
6.15601
5.98633
5.90472
5.87187
5.86893
5.84587
5.79015
5.67972
5.56631
5.55957
5.7165
6.35495
7.30538
8.02972
8.24453
8.22786
8.09371
7.89037
7.72102
7.57725
7.49436
7.43723
7.38207
7.33229
7.28128
7.21837
7.12669
7.01066
6.85835
6.67435
6.53977
6.44915
6.37883
6.32258
6.2717
6.24297
6.2493
6.35736
6.67257
7.20983
7.72125
8.03688
8.11201
8.05001
7.88424
7.66594
7.47973
7.37891
7.32313
7.29595
7.25968
7.19972
7.11691
6.99967
6.82445
6.62176
6.47941
6.4178
6.37872
6.35767
6.32035
6.26589
6.20695
6.10598
5.93993
5.78133
5.70097
5.66976
5.65646
5.64899
5.61568
5.57895
5.51448
5.37722
5.18412
5.06051
5.02051
4.99704
5.00136
5.02238
5.00108
4.95723
4.88072
4.74881
4.58667
4.4896
4.45138
4.42842
4.42596
4.44215
4.42408
4.39347
4.34192
4.24683
4.11679
4.02476
3.98383
3.95716
3.941
3.93685
3.92876
3.90961
3.87494
3.8213
3.74644
3.67668
3.62415
3.57284
3.52428
3.48623
3.45805
3.4307
3.39728
3.36749
3.35021
3.33519
2.84797
3.2333
4.21186
5.54565
6.43388
6.63003
6.68004
6.62621
6.62508
6.60508
6.5329
6.4168
6.25171
6.08483
5.97465
5.93925
5.93931
5.9314
5.88299
5.7809
5.63657
5.53096
5.50217
5.51632
5.72257
6.34467
7.30614
7.92631
8.04817
7.93944
7.77533
7.6796
7.62509
7.58185
7.52172
7.45714
7.38535
7.29345
7.18467
7.07341
6.95178
6.81823
6.69156
6.58764
6.49842
6.41122
6.34157
6.30544
6.31882
6.45677
6.86362
7.42692
7.94028
8.2613
8.29458
8.22949
8.05445
7.82343
7.62131
7.52245
7.46769
7.42744
7.36626
7.28881
7.1837
7.0606
6.91213
6.7474
6.60872
6.55075
6.51433
6.4872
6.438
6.37476
6.30429
6.20998
6.07056
5.90454
5.78304
5.73765
5.7101
5.70509
5.68059
5.63647
5.56919
5.46955
5.33759
5.20789
5.143
5.10554
5.07569
5.04292
5.0066
4.96762
4.90788
4.81109
4.69602
4.61164
4.5745
4.54498
4.51906
4.48927
4.45193
4.41218
4.35543
4.27111
4.17318
4.10379
4.07772
4.05301
4.02506
3.99333
3.95698
3.91349
3.86787
3.81949
3.76667
3.7286
3.70213
3.66946
3.62597
3.57061
3.50982
3.45258
3.40888
3.38063
3.36362
3.35088
3.34265
4.01529
5.30139
6.47259
6.68167
6.66529
6.67919
6.70834
6.74134
6.70592
6.61826
6.48284
6.30611
6.16394
6.0812
6.04698
6.03728
6.01205
5.96321
5.86001
5.71586
5.59716
5.54207
5.51401
5.51235
5.55706
5.7188
6.16358
6.97961
7.54686
7.67724
7.68788
7.69837
7.73957
7.69138
7.60842
7.51868
7.41131
7.27491
7.13729
7.01403
6.89507
6.7785
6.68751
6.61443
6.54349
6.45803
6.40744
6.41963
6.56757
7.03565
7.59916
8.05638
8.34739
8.39979
8.33293
8.19395
8.00128
7.80056
7.69464
7.63143
7.5656
7.48405
7.38665
7.26671
7.13165
6.98651
6.83811
6.71014
6.65263
6.61846
6.60069
6.55888
6.49808
6.42363
6.32165
6.18034
6.03039
5.91298
5.85987
5.81297
5.76405
5.71096
5.65305
5.58896
5.50391
5.39713
5.30012
5.26287
5.23662
5.20311
5.15448
5.08932
5.011
4.91805
4.81871
4.72787
4.66903
4.64902
4.64219
4.62629
4.59248
4.54328
4.47976
4.38864
4.28193
4.19074
4.13316
4.11329
4.10615
4.09825
4.07525
4.04004
3.98774
3.92358
3.84956
3.78493
3.74077
3.72006
3.70443
3.68655
3.66132
3.61598
3.5368
3.45441
3.40962
3.38758
3.36933
3.35125
3.33184
6.31997
6.95953
7.09602
7.02896
6.84628
6.76021
6.73908
6.74984
6.69536
6.58435
6.42079
6.25638
6.15217
6.12043
6.11959
6.09969
6.04945
5.9513
5.81012
5.67906
5.61615
5.59017
5.5873
5.56776
5.53137
5.47385
5.5016
5.79404
6.4785
7.13693
7.5142
7.75848
7.82801
7.78028
7.67758
7.55352
7.41731
7.26408
7.09334
6.94104
6.83852
6.75815
6.69431
6.6361
6.58524
6.55265
6.5877
6.77249
7.28181
7.90693
8.18271
8.37109
8.45359
8.39116
8.28097
8.13535
7.98261
7.87829
7.80528
7.72068
7.6164
7.49771
7.37293
7.24592
7.10673
6.94288
6.79853
6.73212
6.69162
6.67141
6.64119
6.58878
6.53089
6.45057
6.31696
6.14347
6.01441
5.96682
5.92623
5.87384
5.81115
5.73542
5.64341
5.5361
5.43862
5.36052
5.32706
5.31799
5.31132
5.27523
5.2204
5.12098
4.96616
4.82836
4.74814
4.7043
4.68585
4.69186
4.70601
4.68067
4.63965
4.57958
4.46535
4.3221
4.22046
4.16334
4.14031
4.13012
4.13261
4.12145
4.0983
4.0678
4.00951
3.91313
3.82602
3.77106
3.74307
3.72385
3.70931
3.69708
3.67766
3.63911
3.56539
3.48435
3.43605
3.40434
3.3766
3.35106
3.32839
7.0495
7.06429
7.05327
7.02595
7.00188
6.92371
6.83766
6.74417
6.62759
6.49266
6.3661
6.26657
6.22038
6.19998
6.17282
6.12613
6.03214
5.90035
5.77083
5.70414
5.67833
5.67131
5.65188
5.60949
5.51264
5.36038
5.28159
5.30725
5.60219
6.29154
7.13429
7.59389
7.77069
7.75442
7.67339
7.54978
7.41023
7.25113
7.06561
6.90258
6.80833
6.74727
6.70326
6.67711
6.68848
6.79693
7.08589
7.63936
8.32763
8.50554
8.52045
8.48223
8.44216
8.35871
8.25629
8.16109
8.06265
7.96344
7.85602
7.7415
7.61841
7.48989
7.36488
7.24313
7.10263
6.93294
6.82374
6.76735
6.71767
6.68137
6.64038
6.5908
6.53638
6.45238
6.29655
6.12455
6.05911
6.01644
5.96793
5.91108
5.84224
5.74652
5.61756
5.49223
5.40754
5.37363
5.36445
5.37401
5.35605
5.31909
5.25377
5.11652
4.92916
4.79384
4.73623
4.71196
4.70704
4.74363
4.74819
4.71887
4.67769
4.59098
4.42437
4.27133
4.20103
4.17671
4.16196
4.15947
4.15242
4.12927
4.10418
4.0769
4.01515
3.895
3.81235
3.78669
3.76465
3.73714
3.71242
3.69158
3.66741
3.63273
3.57848
3.51741
3.47321
3.43731
3.40289
3.36871
3.3339
7.33071
7.13745
7.02426
7.0145
7.00734
6.95006
6.84672
6.70975
6.57579
6.44983
6.35964
6.31601
6.28287
6.24492
6.19718
6.10767
5.98988
5.86469
5.79847
5.77193
5.75128
5.71823
5.67383
5.58105
5.44151
5.30184
5.23226
5.22704
5.28334
5.6013
6.31905
7.16508
7.52318
7.62212
7.59715
7.5115
7.39033
7.23716
7.04093
6.8824
6.80839
6.7603
6.73472
6.76693
6.94201
7.39444
7.98436
8.63842
8.91269
8.83332
8.71838
8.59231
8.46835
8.35618
8.23826
8.1161
8.02895
7.94744
7.85116
7.74283
7.62605
7.50542
7.38502
7.26051
7.11204
6.95998
6.87012
6.80876
6.75128
6.68825
6.62327
6.56474
6.50557
6.41344
6.27034
6.16287
6.10557
6.04787
5.98994
5.93872
5.86904
5.75243
5.60673
5.49998
5.45131
5.41844
5.39506
5.37072
5.33856
5.29579
5.2198
5.08056
4.91484
4.82176
4.78127
4.756
4.75094
4.75535
4.72959
4.69713
4.65132
4.55375
4.3866
4.25625
4.21904
4.19865
4.18593
4.18471
4.17159
4.14925
4.12554
4.07968
3.99238
3.88507
3.8246
3.79777
3.77627
3.75631
3.73382
3.70496
3.66232
3.6041
3.55512
3.52499
3.49817
3.46944
3.43622
3.39798
3.35029
7.33548
7.26381
7.15003
7.07721
7.01373
6.92342
6.79657
6.66613
6.53978
6.46391
6.4185
6.37591
6.32099
6.25311
6.15556
6.05145
5.953
5.90222
5.88032
5.85705
5.81183
5.7433
5.62619
5.48478
5.36391
5.28529
5.25365
5.23081
5.24403
5.31721
5.5677
6.16916
6.82926
7.23972
7.45773
7.44989
7.375
7.22894
7.04079
6.89392
6.82652
6.8082
6.84416
7.03095
7.54674
8.30147
8.89017
8.99813
8.97772
8.9087
8.818
8.69536
8.55067
8.39028
8.19356
8.05288
7.9738
7.90131
7.81985
7.73618
7.65515
7.56156
7.43923
7.27121
7.08137
6.97125
6.90845
6.84912
6.78418
6.71132
6.63556
6.55724
6.46534
6.35461
6.25571
6.20279
6.1467
6.0804
6.00256
5.91197
5.81577
5.71308
5.61826
5.57228
5.53523
5.49344
5.44386
5.38844
5.32143
5.23406
5.12752
5.01949
4.94087
4.90433
4.87484
4.84669
4.81268
4.77333
4.74008
4.68813
4.60383
4.48323
4.36304
4.29555
4.26237
4.24045
4.22573
4.20656
4.18007
4.14754
4.10401
4.03327
3.94681
3.88477
3.85132
3.82235
3.79195
3.7559
3.71471
3.67557
3.63651
3.59252
3.55026
3.52295
3.50386
3.4842
3.45789
3.41701
3.34387
7.28198
7.2837
7.22795
7.13351
7.02164
6.87834
6.73398
6.6258
6.56575
6.52377
6.47974
6.41791
6.32904
6.19907
6.08147
6.00889
5.97143
5.95972
5.95011
5.9114
5.84942
5.72325
5.54597
5.41092
5.33798
5.31186
5.30836
5.29391
5.2615
5.25501
5.26455
5.37577
5.80135
6.40473
6.98547
7.29265
7.28609
7.19921
7.07402
6.96792
6.92733
6.97313
7.19126
7.71525
8.51826
9.07925
9.18692
9.15099
9.04495
8.95922
8.89161
8.78993
8.65232
8.4344
8.16948
8.01063
7.92219
7.84992
7.80383
7.7592
7.69328
7.61481
7.47883
7.24013
7.05629
6.98485
6.92896
6.87943
6.82153
6.75644
6.67375
6.54952
6.39738
6.30443
6.26192
6.22152
6.17283
6.11114
6.02471
5.89447
5.75608
5.67369
5.63826
5.61193
5.58556
5.54683
5.49261
5.40696
5.28297
5.15139
5.04687
4.97779
4.95237
4.94346
4.94097
4.91482
4.87114
4.81296
4.72899
4.63165
4.52383
4.42903
4.37237
4.34537
4.31425
4.28072
4.24749
4.21819
4.19381
4.1592
4.09311
4.00205
3.92498
3.89178
3.86777
3.83719
3.79903
3.76168
3.71781
3.66173
3.61414
3.58579
3.56934
3.55828
3.54298
3.52096
3.48681
3.4242
3.33138
7.27196
7.27729
7.25225
7.17325
7.02618
6.82253
6.68544
6.63696
6.60842
6.57801
6.52397
6.45156
6.32386
6.14862
6.04103
6.00557
6.00164
6.0297
5.99733
5.93913
5.84618
5.68106
5.49875
5.40001
5.36683
5.35455
5.36908
5.35868
5.31831
5.26257
5.18922
5.10046
5.16105
5.49758
6.14492
6.83578
7.04504
7.12071
7.09188
7.10069
7.19472
7.4963
8.07596
8.85772
9.26846
9.25256
9.24155
9.17907
9.14426
9.06794
8.96812
8.8547
8.69038
8.44113
8.17308
8.00404
7.9046
7.83552
7.81552
7.81582
7.74664
7.63833
7.44121
7.19457
7.06317
7.00161
6.95422
6.91323
6.8559
6.79344
6.70363
6.54288
6.37157
6.29637
6.25392
6.21512
6.19037
6.14217
6.04769
5.89096
5.74896
5.69095
5.66182
5.65412
5.62897
5.57947
5.50288
5.38277
5.24744
5.12274
5.0331
4.9986
4.98554
5.00248
5.00063
4.96366
4.90519
4.80519
4.68328
4.57238
4.48414