/*--------------------------------*- C++ -*----------------------------------*\
  =========                 |
  \\      /  F ield         | OpenFOAM: The Open Source CFD Toolbox
   \\    /   O peration     | Website:  https://openfoam.org
    \\  /    A nd           | Version:  7
     \\/     M anipulation  |
\*---------------------------------------------------------------------------*/
FoamFile
{
    version     2.0;
    format      ascii;
    class       volScalarField;
    location    "2.1";
    object      T;
}
// * * * * * * * * * * * * * * * * * * * * * * * * * * * * * * * * * * * * * //

dimensions      [0 0 0 1 0 0 0];

internalField   nonuniform List<scalar> 
4128
(
1.39849
1.39541
1.4012
1.4408
1.52311
1.61496
1.65788
1.66333
1.66255
1.65722
1.65424
1.64659
1.64517
1.6468
1.64942
1.64897
1.64173
1.62881
1.61256
1.60425
1.60398
1.60474
1.6082
1.61283
1.61241
1.60642
1.59173
1.57664
1.56993
1.57045
1.57363
1.57562
1.57618
1.57542
1.57223
1.56807
1.56145
1.57363
1.64011
1.76613
1.87852
1.93354
1.94824
1.95401
1.96064
1.96231
1.9594
1.95058
1.93201
1.90769
1.88735
1.87731
1.87411
1.87506
1.88059
1.88116
1.87794
1.86918
1.85193
1.83163
1.81726
1.81153
1.8094
1.80968
1.81073
1.80699
1.80089
1.79148
1.77555
1.76007
1.75296
1.7502
1.75107
1.75945
1.78042
1.81274
1.84593
1.86205
1.86011
1.85623
1.85352
1.84983
1.84318
1.83599
1.82765
1.81567
1.8013
1.79317
1.78801
1.78405
1.78067
1.77654
1.77185
1.765
1.75356
1.74202
1.73488
1.72908
1.72366
1.71843
1.71297
1.70633
1.69769
1.6904
1.6861
1.68194
1.67756
1.67296
1.66803
1.6622
1.65411
1.64277
1.63307
1.6279
1.62367
1.61973
1.61616
1.61281
1.60935
1.60536
1.60009
1.59181
1.5809
1.57417
1.57048
1.56677
1.56278
1.55835
1.55345
1.40147
1.39551
1.38654
1.39298
1.43135
1.52617
1.61977
1.65173
1.65821
1.65604
1.65411
1.64799
1.64765
1.64875
1.64976
1.64687
1.63752
1.62251
1.60852
1.60513
1.60548
1.60683
1.61198
1.61466
1.61251
1.60277
1.58691
1.57577
1.57391
1.57587
1.57802
1.57786
1.57772
1.57673
1.57248
1.58021
1.62399
1.723
1.85609
1.94028
1.97012
1.97143
1.9652
1.96499
1.9626
1.95902
1.95133
1.93569
1.9135
1.89362
1.88367
1.8799
1.88158
1.88633
1.88535
1.88233
1.87349
1.85577
1.83513
1.82077
1.81462
1.81202
1.81213
1.81362
1.81065
1.80506
1.79574
1.77961
1.76397
1.75657
1.75438
1.75565
1.7655
1.78946
1.82238
1.85508
1.86946
1.86511
1.85825
1.85305
1.85132
1.846
1.8393
1.83214
1.82307
1.80951
1.79855
1.79244
1.78741
1.78302
1.77848
1.77374
1.7681
1.75848
1.7468
1.73949
1.73396
1.72875
1.72363
1.71809
1.71124
1.70154
1.69201
1.68755
1.68393
1.68013
1.67611
1.6718
1.66699
1.66091
1.65176
1.63946
1.63092
1.62611
1.62183
1.61765
1.61371
1.61022
1.60704
1.60342
1.59809
1.58947
1.58012
1.57414
1.56969
1.56526
1.56062
1.5557
1.55075
1.40497
1.39681
1.38439
1.3785
1.38507
1.4276
1.53952
1.62046
1.64556
1.65278
1.65172
1.65028
1.65152
1.65235
1.65115
1.64421
1.63274
1.61727
1.6077
1.60689
1.60736
1.61044
1.61513
1.61533
1.61081
1.59874
1.58498
1.57897
1.57869
1.58033
1.58032
1.58012
1.5802
1.58497
1.61385
1.715
1.83576
1.92385
1.95505
1.96722
1.96799
1.96875
1.97069
1.96655
1.96004
1.94924
1.93183
1.91111
1.8965
1.88787
1.88405
1.88631
1.89107
1.88955
1.88625
1.87642
1.85718
1.83663
1.82369
1.81821
1.81592
1.81631
1.81746
1.81439
1.80888
1.79906
1.78224
1.76637
1.7593
1.75812
1.76039
1.77301
1.80103
1.83554
1.86589
1.87717
1.87014
1.86078
1.85416
1.85148
1.84931
1.84326
1.83698
1.82987
1.81793
1.80484
1.79757
1.79221
1.78736
1.78224
1.7771
1.77136
1.7619
1.74978
1.74222
1.73736
1.73279
1.72837
1.7239
1.7183
1.70933
1.6968
1.68861
1.6846
1.68099
1.67768
1.67417
1.67015
1.6657
1.65969
1.64979
1.63733
1.62956
1.62483
1.62049
1.61622
1.61186
1.6076
1.60397
1.60041
1.59518
1.58745
1.57998
1.57456
1.56968
1.56455
1.55921
1.55393
1.5486
1.40674
1.39723
1.38225
1.37441
1.37463
1.38478
1.44267
1.55154
1.61067
1.63734
1.64857
1.65531
1.65679
1.65557
1.64922
1.63994
1.6283
1.61481
1.60958
1.60948
1.6103
1.61451
1.61719
1.61562
1.60835
1.59642
1.58475
1.58208
1.58193
1.58223
1.58308
1.58676
1.6091
1.69098
1.80778
1.9217
1.96593
1.99042
1.98686
1.9775
1.97018
1.9683
1.96654
1.96093
1.95107
1.9356
1.91467
1.89753
1.88835
1.88495
1.88825
1.89401
1.89257
1.88966
1.87978
1.86044
1.83879
1.82521
1.82062
1.8192
1.82089
1.82236
1.81908
1.8134
1.80297
1.78525
1.76838
1.76118
1.7604
1.76364
1.77931
1.81191
1.84961
1.87765
1.88517
1.87644
1.86479
1.85755
1.85375
1.85258
1.84744
1.84123
1.83484
1.82339
1.80994
1.80198
1.79665
1.79234
1.78749
1.78213
1.7757
1.76551
1.75247
1.74391
1.73938
1.73583
1.73234
1.72828
1.72407
1.71789
1.70617
1.69276
1.68665
1.68273
1.67908
1.67592
1.67227
1.66819
1.6635
1.65702
1.64688
1.63578
1.62916
1.62435
1.6197
1.61522
1.61093
1.60641
1.6018
1.59748
1.59151
1.5843
1.57925
1.5753
1.57075
1.56497
1.55825
1.55182
1.54645
1.4057
1.39333
1.38005
1.3738
1.37487
1.3783
1.39328
1.45696
1.53987
1.60186
1.63621
1.65607
1.65834
1.65411
1.64523
1.63673
1.62509
1.61499
1.61315
1.61279
1.61465
1.61806
1.61817
1.61456
1.60616
1.59299
1.58555
1.58437
1.58466
1.58702
1.60164
1.66504
1.79853
1.91903
1.961
1.96542
1.97535
1.98614
1.99133
1.9869
1.97852
1.97058
1.96179
1.95033
1.93451
1.91688
1.90368
1.89515
1.88993
1.89162
1.89714
1.89608
1.89331
1.88256
1.86112
1.83927
1.8274
1.82324
1.82206
1.82481
1.82723
1.82453
1.81919
1.80807
1.78856
1.77023
1.76269
1.76212
1.76603
1.78366
1.82044
1.86129
1.88866
1.89177
1.88234
1.86969
1.86234
1.85815
1.85699
1.85265
1.84584
1.8383
1.82586
1.81258
1.80444
1.79988
1.79649
1.79288
1.78775
1.78193
1.77266
1.75773
1.74589
1.74109
1.73754
1.73554
1.73202
1.72809
1.72396
1.71642
1.70179
1.69078
1.68584
1.68198
1.67861
1.6748
1.67056
1.66611
1.66096
1.65288
1.64143
1.63365
1.62921
1.62472
1.61982
1.61484
1.61028
1.60652
1.6025
1.596
1.58873
1.58328
1.57991
1.57673
1.57259
1.56684
1.55963
1.55174
1.54478
1.40031
1.3874
1.38016
1.37673
1.37794
1.38055
1.38428
1.39963
1.45133
1.52889
1.60789
1.64518
1.65167
1.64802
1.64083
1.63191
1.62284
1.61876
1.61681
1.61702
1.61899
1.61986
1.6176
1.61249
1.60291
1.5905
1.58649
1.58765
1.59777
1.64765
1.763
1.89003
1.99217
2.00598
2.00145
1.98419
1.98095
1.98189
1.98761
1.9856
1.97779
1.9654
1.95112
1.93617
1.91985
1.90611
1.89766
1.89337
1.89583
1.9009
1.89945
1.89678
1.88704
1.8665
1.84296
1.82834
1.82331
1.82243
1.82695
1.83104
1.82934
1.82555
1.81488
1.79421
1.77328
1.7639
1.7634
1.76797
1.78771
1.82693
1.87097
1.8974
1.89773
1.88779
1.8738
1.86649
1.86251
1.86192
1.85861
1.8515
1.84324
1.82997
1.8152
1.80569
1.80139
1.79862
1.79732
1.79286
1.78782
1.78097
1.76667
1.75125
1.74412
1.73985
1.73724
1.73463
1.73054
1.72679
1.72146
1.70932
1.69643
1.69013
1.68629
1.68287
1.67909
1.67463
1.66982
1.6649
1.65782
1.64674
1.63735
1.63298
1.62917
1.6251
1.62067
1.61592
1.61074
1.6047
1.59701
1.58908
1.58403
1.58189
1.57997
1.57766
1.57454
1.56936
1.56046
1.55038
1.54406
1.39376
1.38498
1.38309
1.38292
1.38326
1.38446
1.38443
1.3856
1.39823
1.44346
1.54736
1.61294
1.63841
1.64321
1.63678
1.62687
1.62384
1.62274
1.62019
1.62038
1.62157
1.61922
1.6146
1.60884
1.59898
1.59243
1.59638
1.62824
1.73333
1.87469
1.98136
2.00845
2.00451
1.99647
1.99314
1.99157
1.9933
1.99051
1.98724
1.98116
1.96934
1.95196
1.93392
1.92025
1.9108
1.90398
1.89906
1.90071
1.90509
1.90293
1.89951
1.88981
1.86944
1.84689
1.83337
1.82719
1.82495
1.82854
1.83336
1.83242
1.83052
1.82179
1.80066
1.77772
1.76665
1.76584
1.77111
1.79321
1.8342
1.88011
1.9047
1.90443
1.89279
1.87739
1.8699
1.86598
1.86576
1.86398
1.85708
1.84913
1.8364
1.82022
1.80868
1.80347
1.8004
1.79977
1.79661
1.79188
1.78661
1.77462
1.75899
1.74922
1.74433
1.74108
1.73791
1.73338
1.72913
1.72412
1.71347
1.70093
1.69394
1.69041
1.68746
1.68424
1.68014
1.67551
1.67008
1.66242
1.65078
1.64073
1.6363
1.63301
1.62963
1.62593
1.6219
1.61722
1.61141
1.60335
1.59261
1.58534
1.58281
1.58088
1.57919
1.57764
1.57552
1.57125
1.56283
1.55192
1.5445
1.3907
1.38714
1.38746
1.38844
1.38859
1.38836
1.38659
1.38275
1.38398
1.397
1.45861
1.55117
1.60284
1.63188
1.63182
1.62576
1.62605
1.62621
1.6242
1.62324
1.62123
1.61544
1.61217
1.60566
1.60583
1.62491
1.71167
1.83736
1.96028
2.03186
2.04134
2.03191
2.00718
1.98656
1.98566
1.99098
1.99611
1.99115
1.98261
1.96987
1.95494
1.9382
1.92286
1.91162
1.9056
1.90182
1.90386
1.90806
1.90565
1.90187
1.89325
1.87467
1.85162
1.83663
1.82983
1.82713
1.8302
1.83484
1.83402
1.8332
1.82704
1.80819
1.78412
1.76985
1.76863
1.77494
1.79996
1.84333
1.88921
1.91271
1.91193
1.89868
1.88166
1.87308
1.86897
1.86831
1.86744
1.86123
1.8541
1.84281
1.82706
1.81367
1.80758
1.80394
1.80262
1.79958
1.79487
1.78961
1.77868
1.76467
1.75455
1.74957
1.74623
1.74344
1.73886
1.73387
1.72793
1.71685
1.70424
1.69647
1.69321
1.6908
1.68907
1.68594
1.68192
1.67696
1.66938
1.65664
1.64453
1.63883
1.63581
1.63326
1.63078
1.62717
1.62321
1.61879
1.61243
1.60164
1.58963
1.58479
1.5827
1.58062
1.57827
1.57566
1.57323
1.56991
1.56379
1.55628
1.54999
1.39204
1.39149
1.39218
1.39328
1.39312
1.39158
1.38917
1.38456
1.38293
1.38571
1.40252
1.46269
1.52948
1.59382
1.62252
1.62535
1.62818
1.62923
1.62903
1.62478
1.6179
1.61349
1.61418
1.62838
1.69162
1.82325
1.95078
2.00662
2.02691
2.03437
2.03294
2.02316
2.00783
1.99231
1.98915
1.99154
1.99153
1.98569
1.97169
1.9543
1.93862
1.92697
1.91825
1.9127
1.90836
1.90865
1.9109
1.90744
1.903
1.89505
1.87898
1.85794
1.84306
1.8355
1.83163
1.8331
1.83637
1.83504
1.83424
1.8296
1.81374
1.79166
1.77562
1.77349
1.78073
1.80837
1.85333
1.89817
1.92001
1.91849
1.9058
1.88774
1.87745
1.87314
1.87129
1.86982
1.8642
1.85738
1.84653
1.83198
1.81911
1.81299
1.80916
1.80763
1.80439
1.79954
1.79363
1.78194
1.76775
1.75778
1.75353
1.75093
1.74949
1.74526
1.74041
1.7345
1.7232
1.70856
1.69898
1.69553
1.69318
1.69232
1.6908
1.68747
1.68345
1.67774
1.6665
1.65129
1.64197
1.63856
1.63581
1.63388
1.6316
1.62784
1.62344
1.61845
1.61039
1.59899
1.59088
1.58637
1.58261
1.58002
1.57828
1.57625
1.5724
1.56715
1.5621
1.55747
1.55305
1.39614
1.39629
1.39743
1.39756
1.39635
1.39383
1.39185
1.38812
1.38581
1.38641
1.38552
1.39683
1.43996
1.51736
1.59439
1.61534
1.62614
1.63006
1.62981
1.62476
1.61896
1.62931
1.68142
1.80285
1.93306
2.01532
2.0503
2.05514
2.04276
2.02765
2.01517
2.00825
2.00487
1.99851
1.99212
1.98836
1.98312
1.97214
1.95611
1.94019
1.92799
1.92087
1.91739
1.91462
1.91479
1.91461
1.90861
1.90308
1.8954
1.88192
1.86372
1.8495
1.8416
1.83707
1.83756
1.83854
1.8361
1.83454
1.83011
1.81681
1.79784
1.78201
1.78008
1.78816
1.8178
1.86405
1.90661
1.92583
1.92353
1.91127
1.89471
1.88402
1.87924
1.87652
1.87385
1.8681
1.8609
1.84921
1.83458
1.82253
1.81687
1.81376
1.81317
1.81044
1.80564
1.79992
1.78832
1.77304
1.76135
1.75658
1.75403
1.75423
1.75216
1.74715
1.74201
1.73303
1.71693
1.70326
1.69816
1.69533
1.69403
1.69407
1.69164
1.68795
1.6844
1.67724
1.6626
1.64831
1.64268
1.63948
1.63697
1.63441
1.63126
1.62818
1.62487
1.61868
1.60807
1.59791
1.59293
1.58948
1.58591
1.58183
1.57741
1.57272
1.56756
1.56278
1.55926
1.55645
1.55367
1.40095
1.40181
1.40217
1.40112
1.39851
1.39633
1.39397
1.39207
1.39131
1.38834
1.37929
1.37637
1.38677
1.42991
1.52926
1.5897
1.61669
1.62676
1.62796
1.6343
1.67983
1.78526
1.92361
2.00993
2.036
2.03961
2.04616
2.04722
2.03945
2.024
2.00799
1.99918
1.99927
1.99736
1.99243
1.98469
1.97324
1.95656
1.94042
1.92964
1.92398
1.92122
1.91959
1.91966
1.91773
1.91047
1.90317
1.89433
1.88145
1.86622
1.85537
1.84884
1.84371
1.84301
1.84132
1.83754
1.83479
1.8298
1.81793
1.80194
1.78809
1.78716
1.79667
1.82839
1.87462
1.9152
1.93052
1.92637
1.91445
1.90032
1.89067
1.88629
1.88392
1.88062
1.87464
1.86653
1.85347
1.83816
1.82603
1.81979
1.8168
1.81719
1.816
1.81149
1.80677
1.79674
1.78061
1.76712
1.76145
1.75826
1.7577
1.75708
1.75276
1.74837
1.74193
1.72783
1.71142
1.70294
1.6993
1.69686
1.69582
1.69415
1.69109
1.68786
1.68232
1.6713
1.65792
1.65047
1.64659
1.64313
1.6395
1.63531
1.63081
1.62665
1.62064
1.61256
1.60451
1.59919
1.59561
1.59221
1.58866
1.58409
1.57779
1.56997
1.56374
1.5606
1.55812
1.55614
1.55431
1.40648
1.40704
1.40612
1.40343
1.40102
1.39861
1.39662
1.3966
1.3949
1.38683
1.37746
1.37216
1.37234
1.38282
1.44178
1.53429
1.59379
1.61711
1.67062
1.77436
1.90553
2.00511
2.06353
2.06991
2.06539
2.04925
2.03879
2.03569
2.02979
2.01997
2.00607
1.99519
1.99385
1.99312
1.98958
1.98026
1.96488
1.9457
1.93054
1.92532
1.92339
1.92262
1.92295
1.92039
1.91318
1.90501
1.89532
1.88202
1.86728
1.85753
1.85297
1.84894
1.8476
1.84464
1.83979
1.83593
1.8306
1.81965
1.8054
1.79334
1.79328
1.80582
1.83954
1.88536
1.92357
1.93485
1.9294
1.91705
1.90394
1.89637
1.89273
1.89098
1.88817
1.88277
1.87496
1.86113
1.84425
1.83089
1.8242
1.82068
1.82058
1.82034
1.81622
1.81218
1.80389
1.78874
1.77412
1.76748
1.76433
1.76318
1.76169
1.75756
1.75326
1.74764
1.73604
1.72076
1.71014
1.70654
1.70412
1.7014
1.69758
1.69327
1.68977
1.68495
1.67544
1.6634
1.65652
1.65366
1.6506
1.64694
1.64265
1.63772
1.63249
1.62497
1.6147
1.60633
1.60252
1.60026
1.59801
1.59552
1.59216
1.58639
1.57682
1.5671
1.56254
1.56011
1.55777
1.55525
1.55236
1.41215
1.4114
1.40868
1.40594
1.40339
1.40101
1.40102
1.40013
1.39388
1.38349
1.37708
1.37187
1.36946
1.37137
1.38702
1.44404
1.56391
1.72546
1.87391
1.9927
2.05062
2.0622
2.0649
2.06418
2.06293
2.05412
2.04222
2.03057
2.01894
2.01143
2.00346
1.9946
1.99006
1.98766
1.98351
1.97404
1.95739
1.93875
1.93009
1.92719
1.92581
1.92568
1.92383
1.91706
1.90898
1.89948
1.88571
1.87059
1.8602
1.85629
1.8531
1.85104
1.84806
1.84283
1.83821
1.83303
1.82347
1.81029
1.79907
1.7998
1.81567
1.85267
1.89825
1.93372
1.94148
1.93476
1.92052
1.90758
1.90106
1.89795
1.89685
1.89437
1.88997
1.88391
1.87071
1.85254
1.83776
1.8305
1.82647
1.82564
1.82506
1.82092
1.81677
1.80917
1.79499
1.78053
1.77326
1.77029
1.76927
1.76817
1.76412
1.75928
1.7532
1.74119
1.72625
1.71623
1.71259
1.71042
1.70855
1.70527
1.70095
1.69566
1.6882
1.6777
1.66693
1.65967
1.65661
1.65492
1.65319
1.65016
1.64646
1.64111
1.63187
1.61922
1.60967
1.60481
1.60184
1.5992
1.59759
1.59579
1.59335
1.58807
1.57725
1.56712
1.56253
1.55965
1.55737
1.55583
1.5534
1.41682
1.41428
1.41115
1.40814
1.40553
1.4054
1.4048
1.39964
1.3899
1.38267
1.37852
1.37308
1.37152
1.37567
1.40262
1.50744
1.70337
1.88827
2.00461
2.06279
2.09387
2.08287
2.07028
2.0584
2.05815
2.05618
2.04613
2.02846
2.01294
2.00529
2.0009
1.99521
1.9884
1.98292
1.97673
1.96666
1.9507
1.93883
1.935
1.93211
1.92969
1.9272
1.92197
1.91473
1.90625
1.89315
1.87723
1.86489
1.8606
1.85747
1.85477
1.85163
1.84628
1.84125
1.83634
1.82898
1.81772
1.80636
1.80782
1.82726
1.86775
1.91247
1.9454
1.95043
1.94293
1.92723
1.91277
1.90575
1.90252
1.90191
1.89948
1.89564
1.89062
1.87867
1.86103
1.84557
1.83778
1.83376
1.83266
1.83178
1.82744
1.82252
1.81478
1.80069
1.78597
1.77766
1.77469
1.77381
1.77394
1.77048
1.76583
1.76031
1.7485
1.73204
1.72037
1.71624
1.7145
1.71417
1.71176
1.70845
1.70417
1.69676
1.68245
1.66858
1.66198
1.6592
1.65732
1.65674
1.65524
1.65242
1.64869
1.64254
1.62996
1.615
1.6073
1.6044
1.60221
1.60005
1.59758
1.59523
1.59254
1.58753
1.57845
1.56972
1.56469
1.56075
1.55673
1.55276
1.54864
1.41994
1.41652
1.41276
1.40984
1.40976
1.4095
1.4052
1.3959
1.38802
1.38336
1.38046
1.37931
1.38941
1.45268
1.57148
1.7254
1.81439
1.88716
1.98402
2.04211
2.08115
2.08098
2.07253
2.05761
2.05248
2.05066
2.0407
2.02403
2.01027
2.00374
2.00068
1.99671
1.9904
1.98276
1.9738
1.95911
1.94659
1.9427
1.93984
1.93644
1.93225
1.92666
1.92024
1.9132
1.90171
1.88574
1.87223
1.86723
1.86407
1.86064
1.85631
1.85084
1.84496
1.83919
1.83284
1.82496
1.81553
1.81811
1.84172
1.88505
1.92716
1.95553
1.95895
1.95278
1.93708
1.92081
1.91299
1.90885
1.90759
1.90473
1.9009
1.89582
1.88433
1.86744
1.85246
1.84446
1.84057
1.83955
1.83949
1.8352
1.82993
1.82241
1.80785
1.79189
1.78215
1.7787
1.77718
1.77782
1.77555
1.77122
1.76693
1.75731
1.74099
1.72633
1.72002
1.7174
1.71697
1.71725
1.71419
1.71053
1.70625
1.69531
1.67856
1.66561
1.66105
1.65846
1.65787
1.65818
1.6558
1.65346
1.65074
1.6429
1.62802
1.61474
1.60851
1.6046
1.60191
1.60078
1.60028
1.59797
1.59444
1.58864
1.58033
1.57321
1.56745
1.56177
1.55607
1.55076
1.54612
1.42204
1.41731
1.41373
1.41377
1.41387
1.41047
1.40192
1.39363
1.38885
1.38664
1.39181
1.42881
1.54014
1.68074
1.77883
1.83943
1.84318
1.86062
1.90077
1.95672
2.01767
2.04887
2.06332
2.05996
2.05334
2.04519
2.03452
2.02078
2.01
2.00339
2.00065
1.99802
1.99341
1.98587
1.97102
1.95398
1.94668
1.94383
1.94072
1.93716
1.93187
1.92536
1.91858
1.90936
1.89552
1.88061
1.87418
1.87115
1.86738
1.86276
1.85719
1.85066
1.84384
1.83718
1.83029
1.82356
1.82828
1.85617
1.90188
1.94171
1.96579
1.96734
1.96113
1.94703
1.93111
1.9223
1.91774
1.91513
1.91107
1.90674
1.90073
1.88898
1.8726
1.85847
1.85026
1.8464
1.84535
1.84603
1.84228
1.83724
1.83111
1.81803
1.80067
1.78785
1.78333
1.78092
1.78068
1.77899
1.77519
1.7718
1.76413
1.7501
1.73474
1.72574
1.72215
1.72006
1.71914
1.71742
1.71536
1.7123
1.70442
1.69048
1.67583
1.66796
1.66347
1.66069
1.6594
1.65846
1.65609
1.65255
1.6461
1.63596
1.62516
1.61857
1.61383
1.60892
1.60396
1.59936
1.59535
1.5917
1.58717
1.58205
1.57805
1.5749
1.57127
1.56598
1.55854
1.55024
1.54313
1.42237
1.41755
1.41738
1.41775
1.41523
1.40764
1.39966
1.3946
1.39673
1.42042
1.51126
1.64771
1.76584
1.82254
1.84675
1.84554
1.83806
1.82869
1.8325
1.8606
1.93118
2.00685
2.05274
2.06131
2.05303
2.03747
2.02731
2.02095
2.0137
2.00731
2.00308
1.99956
1.99403
1.98121
1.96278
1.95038
1.94625
1.94313
1.94034
1.93634
1.93046
1.9235
1.9151
1.90258
1.88747
1.87935
1.87619
1.87263
1.86843
1.86342
1.85756
1.85099
1.84383
1.83596
1.83011
1.83671
1.86894
1.91599
1.95463
1.97473
1.97516
1.96768
1.95396
1.93999
1.93193
1.92756
1.92433
1.91934
1.91352
1.90589
1.89343
1.87735
1.86397
1.85574
1.85176
1.85038
1.85122
1.84794
1.84318
1.83789
1.82689
1.8109
1.79659
1.79016
1.78681
1.78484
1.78227
1.77877
1.77527
1.76792
1.75623
1.7425
1.73313
1.72955
1.72702
1.72394
1.7201
1.71664
1.71294
1.70592
1.69564
1.68406
1.67735
1.67403
1.67068
1.66671
1.66195
1.6573
1.65305
1.64656
1.63712
1.62827
1.62425
1.62155
1.61791
1.61313
1.60698
1.60031
1.59397
1.58742
1.58122
1.57758
1.57578
1.57431
1.57219
1.56852
1.56145
1.55127
1.54231
1.42183
1.42088
1.42145
1.41976
1.41327
1.40511
1.40461
1.41772
1.48434
1.61814
1.74379
1.81729
1.8574
1.86159
1.85995
1.84815
1.82774
1.81485
1.81234
1.81703
1.85242
1.92518
2.00848
2.04258
2.03733
2.02828
2.02309
2.02021
2.01689
2.01044
2.00506
1.99933
1.98841
1.97225
1.95693
1.94882
1.9444
1.94094
1.93874
1.93487
1.92923
1.922
1.91078
1.89492
1.88276
1.87882
1.87527
1.87151
1.86721
1.86232
1.85716
1.85148
1.84488
1.83923
1.84734
1.88152
1.92848
1.96522
1.98273
1.98205
1.97313
1.95878
1.94563
1.93868
1.93516
1.93328
1.92878
1.92253
1.91386
1.8995
1.8823
1.86923
1.86103
1.85682
1.85494
1.85558
1.85266
1.8478
1.84266
1.8326
1.81774
1.80488
1.79884
1.79565
1.79271
1.78855
1.78335
1.77791
1.7691
1.75772
1.74651
1.7391
1.7358
1.73422
1.73173
1.7277
1.72282
1.71649
1.70578
1.6935
1.68477
1.68077
1.67898
1.67804
1.67569
1.67184
1.66637
1.65841
1.64744
1.63702
1.62974
1.62616
1.62418
1.62269
1.62014
1.6163
1.61067
1.60106
1.58883
1.58153
1.57841
1.57644
1.57452
1.5731
1.57116
1.56819
1.56287
1.55237
1.54248
1.42428
1.42497
1.42397
1.41881
1.41353
1.4194
1.46808
1.58936
1.72845
1.80701
1.84206
1.85992
1.86426
1.86198
1.85436
1.83782
1.81937
1.81186
1.80849
1.80956
1.81914
1.8479
1.91377
1.98934
2.01739
2.01898
2.01928
2.02074
2.01627
2.00958
2.00302
1.99317
1.9789
1.96384
1.95343
1.9482
1.94367
1.94019
1.93811
1.93421
1.92895
1.92063
1.90424
1.88766
1.88131
1.87797
1.87424
1.87005
1.86549
1.86134
1.8574
1.85385
1.85263
1.86373
1.90021
1.94325
1.97633
1.99036
1.9889
1.97897
1.9632
1.9502
1.94334
1.93978
1.93925
1.93603
1.93101
1.924
1.90972
1.89021
1.87514
1.86652
1.86212
1.85988
1.85986
1.85678
1.85182
1.8467
1.83706
1.82283
1.81039
1.80448
1.80209
1.80097
1.79766
1.79272
1.78542
1.77312
1.75878
1.74838
1.74227
1.73933
1.739
1.73934
1.73602
1.73149
1.72481
1.71127
1.69545
1.68611
1.68185
1.67971
1.68022
1.68197
1.67933
1.67508
1.66881
1.65535
1.63887
1.63052
1.62713
1.62534
1.62524
1.62491
1.62217
1.61852
1.61294
1.60191
1.58726
1.57971
1.57754
1.57644
1.57656
1.57544
1.57277
1.56921
1.56335
1.5534
1.54443
1.42788
1.42746
1.4238
1.4265
1.45888
1.55922
1.70019
1.80615
1.84979
1.8693
1.87388
1.87431
1.86763
1.85616
1.84236
1.82757
1.81758
1.81353
1.81217
1.8108
1.80887
1.80979
1.82675
1.88303
1.95455
1.99589
2.01565
2.01852
2.01399
2.00537
1.99524
1.98395
1.97027
1.95858
1.95295
1.94868
1.94475
1.94132
1.93836
1.93488
1.92902
1.91714
1.89976
1.88613
1.87984
1.87513
1.87097
1.86703
1.8635
1.86119
1.86035
1.86535
1.88276
1.9233
1.96272
1.98979
1.99916
1.99638
1.98574
1.97013
1.95648
1.94835
1.94394
1.94289
1.94193
1.93814
1.93184
1.92036
1.90218
1.8838
1.87334
1.86852
1.86575
1.86509
1.86206
1.857
1.85166
1.84195
1.8274
1.81476
1.80851
1.80585
1.80561
1.80412
1.79975
1.79436
1.78406
1.7665
1.75227
1.74503
1.74191
1.74116
1.74344
1.742
1.73816
1.73378
1.72303
1.70475
1.69002
1.68402
1.6815
1.6805
1.68287
1.68391
1.68179
1.67821
1.66951
1.65245
1.63613
1.62967
1.6269
1.62488
1.62494
1.62475
1.62191
1.6191
1.61393
1.60218
1.58877
1.58168
1.57777
1.57447
1.57139
1.56852
1.56525
1.56117
1.55691
1.55266
1.54769
1.43041
1.43253
1.45147
1.5388
1.68272
1.80062
1.84518
1.86143
1.87178
1.87595
1.87614
1.87063
1.86009
1.84505
1.83159
1.8244
1.82084
1.82036
1.81816
1.81311
1.80312
1.7926
1.79194
1.80658
1.86325
1.94098
1.99489
2.01037
2.00948
2.00077
1.98708
1.97532
1.96495
1.95852
1.95415
1.95061
1.94765
1.94448
1.94007
1.93302
1.92356
1.91143
1.89712
1.88639
1.87901
1.87326
1.86875
1.86496
1.86317
1.86405
1.87356
1.90005
1.94317
1.98182
2.00437
2.00873
2.00452
1.99303
1.97703
1.96303
1.95507
1.95047
1.94839
1.9459
1.9415
1.935
1.92542
1.91107
1.89451
1.88246
1.87674
1.87331
1.87151
1.86833
1.8636
1.8585
1.84943
1.83435
1.8201
1.81244
1.80902
1.80741
1.80664
1.80396
1.80093
1.79491
1.78188
1.7633
1.75095
1.74655
1.74394
1.74425
1.74615
1.74374
1.73904
1.73124
1.71772
1.70096
1.69065
1.68634
1.68374
1.68342
1.68507
1.68298
1.6795
1.67376
1.66315
1.64842
1.63759
1.63236
1.62894
1.62685
1.62618
1.62505
1.62238
1.6177
1.61075
1.60113
1.59229
1.58567
1.57915
1.57297
1.56797
1.56424
1.56061
1.55603
1.55173
1.54891
1.54633
1.44931
1.5148
1.64739
1.78541
1.86049
1.88016
1.88889
1.88508
1.88444
1.88133
1.87364
1.86357
1.85068
1.83759
1.82844
1.8251
1.82501
1.82414
1.81968
1.81041
1.79722
1.78772
1.78503
1.78631
1.80519
1.86048
1.9392
1.9841
1.99363
1.98676
1.97643
1.96982
1.9655
1.96176
1.95735
1.95324
1.94886
1.94276
1.9344
1.92526
1.91563
1.90538
1.89566
1.88754
1.88044
1.87344
1.86763
1.86534
1.86663
1.87847
1.91188
1.95627
1.99462
2.01679
2.01832
2.01372
2.00148
1.98501
1.97027
1.96274
1.95826
1.95516
1.95083
1.94528
1.9372
1.92736
1.9154
1.90183
1.89017
1.88483
1.88164
1.8794
1.87551
1.87047
1.86474
1.85671
1.84425
1.8295
1.8183
1.8136
1.81073
1.81005
1.80769
1.80364
1.79749
1.78807
1.77544
1.76302
1.75633
1.7525
1.74947
1.74615
1.74258
1.73838
1.73198
1.72183
1.70985
1.70099
1.6969
1.69379
1.69105
1.68777
1.68368
1.67902
1.67233
1.66289
1.65195
1.6442
1.64114
1.63818
1.63475
1.63077
1.6262
1.62066
1.61455
1.60796
1.60103
1.59608
1.59252
1.58836
1.58303
1.57627
1.56847
1.56092
1.55527
1.55154
1.54917
1.54732
1.54604
1.62222
1.76412
1.86377
1.8794
1.88248
1.88626
1.88873
1.89071
1.88763
1.87992
1.86785
1.85311
1.84195
1.83535
1.83245
1.83186
1.82994
1.82566
1.8161
1.8028
1.7922
1.78734
1.7849
1.78473
1.78857
1.80321
1.84367
1.91171
1.95474
1.96632
1.96858
1.96901
1.97137
1.96761
1.96148
1.95546
1.94831
1.93835
1.92763
1.91782
1.90852
1.89961
1.89281
1.88722
1.88166
1.87483
1.8708
1.87192
1.88443
1.92231
1.96562
2.00001
2.01964
2.02264
2.01777
2.00794
1.99434
1.98003
1.9722
1.96731
1.9625
1.95656
1.94938
1.94034
1.93008
1.91873
1.90656
1.89577
1.89024
1.88688
1.8853
1.88209
1.87758
1.87198
1.86381
1.85161
1.83843
1.82782
1.82245
1.81778
1.81303
1.80799
1.8023
1.79588
1.78778
1.77783
1.76875
1.76497
1.76231
1.75898
1.75411
1.74753
1.73952
1.73008
1.7199
1.7104
1.70406
1.70156
1.70058
1.69873
1.69511
1.68983
1.68292
1.67266
1.66067
1.6504
1.64407
1.64186
1.641
1.64008
1.63728
1.63287
1.62629
1.61806
1.60854
1.60027
1.59482
1.59227
1.59022
1.5879
1.58503
1.57985
1.57028
1.55974
1.55372
1.55058
1.5479
1.54548
1.54294
1.85617
1.90129
1.91337
1.90942
1.89781
1.89212
1.88929
1.88943
1.88457
1.87551
1.86202
1.84798
1.83891
1.83649
1.83686
1.83576
1.832
1.82311
1.80982
1.79801
1.79253
1.79036
1.79022
1.7885
1.78487
1.7788
1.78148
1.80927
1.86921
1.92368
1.95384
1.97125
1.97592
1.97242
1.96506
1.95631
1.94657
1.93508
1.92174
1.90964
1.90166
1.89563
1.89091
1.88658
1.88269
1.87979
1.88275
1.89819
1.93884
1.98531
2.00585
2.01924
2.02372
2.0193
2.01125
2.00058
1.98969
1.98223
1.97712
1.97122
1.96363
1.95482
1.94536
1.93582
1.92535
1.91258
1.90077
1.89466
1.89056
1.88841
1.88577
1.88185
1.87769
1.87165
1.86065
1.8457
1.83414
1.82912
1.82485
1.81976
1.81384
1.80662
1.79772
1.7874
1.77838
1.77135
1.76806
1.7669
1.76619
1.76269
1.7574
1.74764
1.73179
1.71754
1.70938
1.70486
1.70261
1.7028
1.70392
1.70095
1.69645
1.69025
1.67793
1.66215
1.65088
1.64462
1.642
1.64072
1.64097
1.63971
1.637
1.63314
1.62588
1.61398
1.60318
1.59629
1.59267
1.59025
1.5887
1.58765
1.58563
1.58104
1.57201
1.562
1.55551
1.55096
1.54693
1.54319
1.5399
1.90623
1.90924
1.91166
1.91061
1.90903
1.90258
1.89529
1.88767
1.87848
1.86725
1.85612
1.84681
1.84222
1.84085
1.83962
1.83674
1.82871
1.81618
1.80431
1.79832
1.79622
1.79593
1.79468
1.79092
1.78113
1.76576
1.75825
1.76099
1.78963
1.85197
1.92205
1.95595
1.96941
1.96856
1.96314
1.95436
1.944
1.93176
1.91712
1.90422
1.89695
1.89233
1.88923
1.88756
1.88852
1.8972
1.92038
1.96358
2.0131
2.02516
2.02699
2.02369
2.02049
2.01452
2.00714
2.00021
1.99285
1.98568
1.97811
1.97001
1.96095
1.95124
1.94182
1.93257
1.9219
1.90877
1.89975
1.89454
1.88999
1.88669
1.88331
1.87962
1.87559
1.86892
1.85587
1.84091
1.83455
1.83014
1.82515
1.81947
1.81311
1.80441
1.79249
1.78105
1.77309
1.76984
1.7689
1.76993
1.76838
1.76485
1.75833
1.74466
1.72583
1.71194
1.70575
1.70302
1.70239
1.70601
1.7064
1.70302
1.69824
1.68871
1.67068
1.65414
1.64659
1.64382
1.64196
1.64161
1.64078
1.63816
1.63539
1.63222
1.62455
1.60981
1.59963
1.59626
1.59321
1.58965
1.58701
1.58505
1.58232
1.578
1.57119
1.5635
1.55781
1.55299
1.54809
1.54301
1.53798
1.92922
1.91649
1.91072
1.90907
1.90735
1.90189
1.89401
1.88405
1.87355
1.8623
1.85299
1.84788
1.84482
1.84267
1.83988
1.83278
1.82189
1.8101
1.80385
1.80147
1.80003
1.7978
1.79422
1.78518
1.77099
1.75715
1.75097
1.75065
1.75616
1.78649
1.85086
1.91916
1.94609
1.95542
1.95422
1.9486
1.93985
1.92802
1.91253
1.90003
1.89431
1.89074
1.88938
1.89213
1.90629
1.94171
1.98648
2.0332
2.04964
2.04392
2.03605
2.02742
2.01913
2.01124
2.00259
1.99351
1.98701
1.9811
1.97416
1.96637
1.95786
1.94888
1.93979
1.93035
1.91893
1.90702
1.89957
1.89431
1.88935
1.88403
1.8787
1.87399
1.8692
1.86159
1.84958
1.84015
1.83485
1.82963
1.82424
1.8193
1.81271
1.80207
1.7889
1.77912
1.77428
1.77095
1.76892
1.76697
1.76407
1.75989
1.75228
1.73847
1.72208
1.71252
1.70795
1.70506
1.70449
1.70503
1.70236
1.69866
1.69322
1.68226
1.66424
1.65015
1.64607
1.64378
1.64248
1.64254
1.64124
1.63865
1.63564
1.62994
1.61933
1.60633
1.59883
1.59542
1.59279
1.59038
1.58761
1.5838
1.57832
1.57108
1.56502
1.56123
1.55791
1.55418
1.54961
1.54431
1.53779
1.92919
1.92538
1.9174
1.91058
1.90385
1.89642
1.88764
1.87844
1.86797
1.85986
1.85392
1.84926
1.84509
1.84066
1.83306
1.82359
1.81402
1.80879
1.80649
1.80481
1.80169
1.79625
1.7851
1.77082
1.7588
1.75131
1.74861
1.74691
1.74799
1.7547
1.77789
1.83177
1.88669
1.92011
1.93914
1.9393
1.93446
1.92353
1.90893
1.89758
1.89239
1.8916
1.89462
1.90974
1.94988
2.00529
2.04639
2.05255
2.04964
2.04382
2.03761
2.02949
2.01981
2.00853
1.99408
1.98372
1.97798
1.97274
1.96689
1.96098
1.95529
1.9484
1.93935
1.92666
1.91187
1.90309
1.89797
1.89306
1.88767
1.88166
1.8753
1.86864
1.86096
1.85168
1.84336
1.83887
1.83408
1.82834
1.82152
1.81335
1.80423
1.79454
1.78587
1.78142
1.7779
1.77404
1.76944
1.76439
1.75803
1.74974
1.7394
1.72866
1.72088
1.717
1.71391
1.71102
1.70746
1.70333
1.69984
1.69415
1.68502
1.67194
1.65904
1.65153
1.64781
1.64569
1.64446
1.64269
1.63983
1.63595
1.6303
1.62124
1.61078
1.60346
1.59939
1.59598
1.5925
1.58829
1.58295
1.57751
1.57233
1.56688
1.56151
1.55794
1.55547
1.55298
1.54976
1.54472
1.53504
1.92296
1.92279
1.91708
1.90794
1.89851
1.88839
1.87877
1.87064
1.86467
1.85909
1.85356
1.84795
1.84146
1.83145
1.82142
1.81431
1.80968
1.80783
1.80706
1.80477
1.80039
1.78887
1.77143
1.75827
1.75113
1.74835
1.74786
1.74658
1.74394
1.74301
1.74273
1.75325
1.79313
1.84618
1.8951
1.92125
1.92142
1.91599
1.90659
1.89873
1.8963
1.9
1.9172
1.95734
2.01506
2.05253
2.05879
2.05527
2.04674
2.04123
2.03732
2.03094
2.0215
2.00592
1.98691
1.97552
1.96922
1.96405
1.96045
1.95714
1.95279
1.94752
1.93741
1.91898
1.90469
1.89893
1.89433
1.89016
1.88541
1.88006
1.87313
1.86279
1.85019
1.84257
1.83904
1.83567
1.83144
1.82619
1.81874
1.80705
1.79455
1.78679
1.7831
1.78053
1.77828
1.77503
1.77021
1.76206
1.75022
1.73772
1.72789
1.72101
1.71805
1.71696
1.71667
1.71401
1.70965
1.70374
1.69493
1.68478
1.67346
1.66345
1.65717
1.65407
1.6507
1.64712
1.64373
1.64087
1.63828
1.63408
1.62612
1.61525
1.60597
1.60184
1.59883
1.59513
1.59075
1.58654
1.58115
1.5741
1.56819
1.56456
1.56227
1.56069
1.55873
1.55598
1.55177
1.54385
1.53172
1.91579
1.91413
1.91008
1.90256
1.8918
1.87803
1.86857
1.86438
1.86059
1.85632
1.8508
1.84503
1.83556
1.82179
1.81208
1.80826
1.80757
1.80961
1.80693
1.80247
1.79474
1.77965
1.76251
1.7526
1.7489
1.74749
1.74884
1.74797
1.74419
1.73826
1.73034
1.72133
1.72756
1.76027
1.81917
1.87789
1.89572
1.90409
1.90205
1.90323
1.91087
1.93375
1.97648
2.03074
2.05803
2.05626
2.05402
2.04938
2.04749
2.04332
2.03766
2.03055
2.0194
2.00208
1.98345
1.97133
1.96394
1.95867
1.95722
1.95716
1.95211
1.94436
1.92978
1.91133
1.90112
1.89593
1.89168
1.88789
1.88307
1.87816
1.87093
1.8578
1.84386
1.83773
1.83431
1.83122
1.82924
1.82519
1.81717
1.80361
1.79092
1.78545
1.78254
1.78188
1.77955
1.77498
1.76793
1.75663
1.74402
1.73236
1.72383
1.72044
1.71893
1.72052
1.72034
1.71638
1.71024
1.69994
1.68729
1.67592
1.66695
1.66118
1.65867