/*--------------------------------*- C++ -*----------------------------------*\
  =========                 |
  \\      /  F ield         | OpenFOAM: The Open Source CFD Toolbox
   \\    /   O peration     | Website:  https://openfoam.org
    \\  /    A nd           | Version:  7
     \\/     M anipulation  |
\*---------------------------------------------------------------------------*/
FoamFile
{
    version     2.0;
    format      ascii;
    class       volScalarField;
    location    "3.1";
    object      p;
}
// * * * * * * * * * * * * * * * * * * * * * * * * * * * * * * * * * * * * * //

dimensions      [1 -1 -2 0 0 0 0];

internalField   nonuniform List<scalar> 
4040
(
1
1
1
1
1
1
1
1
1
1
1
1
1
1.00878
6.63264
10.6185
10.7883
11.0097
11.2223
11.4238
11.6166
11.7836
11.9214
12.0348
1
1
1
1
1
1
1
1
1
1
1
1
1
1.00068
6.43713
10.5559
10.7534
10.9683
11.1783
11.3736
11.5603
11.7158
11.8239
11.8961
1
1
1
1
1
1
1
1
1
1
1
1
1
1.00001
6.03705
10.4741
10.689
10.8925
11.0918
11.264
11.4183
11.5371
11.6312
11.7392
1
1
1
1
1
1
1
1
1
1
1
1
1
1
5.45561
10.3342
10.6004
10.7896
10.9796
11.1405
11.2799
11.4014
11.4578
11.766
1
1
1
1
1
1
1
1
1
1
1
1
1
1
4.71484
10.0964
10.4849
10.6567
10.8286
10.9669
11.0552
11.106
10.8729
10.6138
1
1
1
1
1
1
1
1
1
1
1
1
1
1
3.85839
9.71842
10.3566
10.5132
10.6601
10.7659
10.8022
10.778
10.5539
10.4392
1
1
1
1
1
1
1
1
1
1
1
1
1
1
2.90625
9.13869
10.2631
10.4009
10.5053
10.5732
10.5638
10.4879
10.3114
10.1239
1
1
1
1
1
1
1
1
1
1
1
1
1
1
1.91768
8.25815
10.2073
10.2573
10.3456
10.3854
10.3328
10.2158
10.0614
9.91045
1
1
1
1
1
1
1
1
1
1
1
1
1
1
1.11133
7.10661
10.2393
10.1397
10.139
10.1251
10.0482
9.91128
9.73002
9.46603
1
1
1
1
1
1
1
1
1
1
1
1
1
1
1.00122
5.52183
9.61945
9.77323
9.83883
9.81335
9.73174
9.57168
9.32029
8.86674
1
1
1
1
1
1
1
1
1
1
1
1
1
1
0.999982
3.67276
9.01288
9.64371
9.66642
9.60607
9.49093
9.28006
8.95596
8.41167
1
1
1
1
1
1
1
1
1
1
1
1
1
1
0.999996
1.9651
8.06295
9.58663
9.49185
9.38397
9.23218
8.98659
8.60828
8.06451
1
1
1
1
1
1
1
1
1
1
1
1
1
1
0.999999
1.09742
6.3061
9.25537
9.23733
9.13649
8.97629
8.71964
8.33419
7.78287
1
1
1
1
1
1
1
1
1
1
1
1
1
1
1
1.00053
3.89235
8.65692
9.08077
8.98772
8.79543
8.50218
8.11608
7.53896
1
1
1
1
1
1
1
1
1
1
1
1
1
1
1
0.999995
1.67805
7.71027
9.10745
8.82981
8.59367
8.28854
7.88485
7.35629
1
1
1
1
1
1
1
1
1
1
1
1
1
1
1
0.999999
1.0399
5.69763
8.68758
8.48468
8.32417
8.0608
7.69732
7.22619
1
1
1
1
1
1
1
1
1
1
1
1
1
1
1
1
1.00001
2.89791
7.94888
8.36264
8.22707
7.96998
7.60492
7.14872
1
1
1
1
1
1
1
1
1
1
1
1
1
1
1
1
0.999995
1.24929
6.15294
8.3292
8.14583
7.86212
7.49936
7.07128
1
1
1
1
1
1
1
1
1
1
1
1
1
1
1
1
0.999999
1.00486
3.33876
7.65437
8.01624
7.72968
7.39768
7.0021
1
1
1
1
1
1
1
1
1
1
1
1
1
1
1
1
1
1
1.36881
6.06783
7.98547
7.65608
7.34106
6.96298
1
1
1
1
1
1
1
1
1
1
1
1
1
1
1
1
1
1
1.01088
3.23452
7.27787
7.54956
7.24812
6.90122
1
1
1
1
1
1
1
1
1
1
1
1
1
1
1
1
1
1
1.00003
1.34099
5.54097
7.5666
7.22311
6.90796
1
1
1
1
1
1
1
1
1
1
1
1
1
1
1
1
1
1
1
1.00962
2.58657
6.57856
7.19183
6.89435
1
1
1
1
1
1
1
1
1
1
1
1
1
1
1
1
1
1
1
1.00005
1.18129
4.4981
7.14793
6.91114
1
1
1
1
1
1
1
1
1
1
1
1
1
1
1
1
1
1
1
1
1.00333
1.88596
5.82797
6.91033
1
1
1
1
1
1
1
1
1
1
1
1
1
1
1
1
1
1
1
1
1.00001
1.05927
3.16189
6.31973
1
1
1
1
1
1
1
1
1
1
1
1
1
1
1
1
1
1
1
1
1
1.00073
1.32949
4.45753
1
1
1
1
1
1
1
1
1
1
1
1
1
1
1
1
1
1
1
1
1
1
1.01035
1.93031
1
1
1
1
1
1
1
1
1
1
1
1
1
1
1
1
1
1
1
1
1
1
1.00008
1.06689
1
1
1
1
1
1
1
1
1
1
1
1
1
1
1
1
1
1
1
1
1
1
1
1.00099
1
1
1
1
1
1
1
1
1
1
1
1
1
1
1
1
1
1
1
1
1
1
1
1
1
1
1
1
1
1
1
1
1
1
1
1
1
1
1
1
1
1
1
1
1
1
1
1
1
1
1
1
1
1
1
1
1
1
1
1
1
1
1
1
1
1
1
1
1
1
1
1
1
1
1
1
1
1
1
1
1
1
1
1
1
1
1
1
1
1
1
1
1
1
1
1
1
1
1
1
1
1
1
1
1
1
1
1
1
1
1
1
1
1
1
1
1
1
1
1
1
1
1
1
1
1
1
1
1
1
1
1
1
1
1
1
1
1
1
1
1
1
1
1
1
1
1
1
1
1
1
1
1
1
1
1
1
1
1
1
1
1
1
1
1
1
1
1
1
1
1
1
1
1
1
1
1
1
1
1
1
1
1
1
1
1
1
1
1
1
1
1
1
1
1
1
1
1
1
1
1
1
1
1
1
1
1
1
1
1
1
1
1
1
1
1
1
1
1
1
1
1
1
1
1
1
1
1
1
1
1
1
1
1
1
1
1
1
1
1
9.28387
9.88517
10.2326
10.6994
10.0062
10.2253
9.88991
10.2573
8.7634
6.94959
8.05224
6.15775
7.5546
5.84352
7.14199
5.76564
6.89816
5.81811
6.75957
5.87844
6.69923
5.95913
6.65728
6.01525
6.62472
6.06102
6.59451
6.09173
6.57171
6.11426
6.56475
6.13991
6.53934
6.16188
6.56688
6.2159
6.5769
6.23556
6.61562
6.28204
6.60744
6.28503
6.61978
6.34488
6.52036
6.41804
5.30284
6.37456
2.74727
5.71923
1.22481
3.63436
1.00622
1.53411
1.00004
1.02615
1
1.0003
1
1
1
1
1
1
1
1
1
1
1
1
1
1
1.73846
0.488428
0.311884
0.308358
0.321312
0.364411
0.498779
0.659962
0.811607
0.907357
1.00275
1.09962
1.15655
1.20006
1.25327
1.26628
1.27842
1.29797
1.3003
1.28593
1.29356
1.31558
1.33215
1.33813
1.33422
1.32774
1.31979
1.31183
1.31262
1.31737
1.32612
1.34587
1.35279
2.46184
5.56564
6.22696
6.17733
6.14335
6.1314
6.13341
6.11351
6.03342
5.90963
5.77017
5.65121
5.56453
5.50285
5.44914
5.37918
5.25473
5.10507
4.96929
4.86254
4.79463
4.76547
4.71887
4.63006
4.5291
4.41444
4.30152
4.21444
4.14509
4.10319
4.07368
4.02731
3.96038
3.88123
3.76601
3.64192
3.56301
3.51068
3.46741
3.44518
3.43409
3.39083
3.33037
3.23658
3.10856
3.02464
2.98097
2.94797
2.9311
2.932
2.91495
2.87627
2.81633
2.70997
2.60382
2.55385
2.52424
2.50208
2.49471
2.49275
2.44593
2.92441
1.58068
1.00706
0.861906
0.739502
0.64898
0.657281
0.65384
0.659624
0.709139
0.781866
0.872466
0.968082
1.0464
1.12347
1.16637
1.19231
1.22482
1.24715
1.25133
1.27007
1.29168
1.3069
1.31919
1.32537
1.32773
1.32885
1.32298
1.32136
1.32309
1.32281
1.33025
1.34894
2.18181
5.53488
6.42211
6.2604
6.1549
6.09023
6.04241
5.99002
5.93368
5.87566
5.77795
5.65094
5.52888
5.41662
5.32823
5.27855
5.23053
5.14291
5.02655
4.90673
4.80449
4.71122
4.63107
4.57219
4.50655
4.42927
4.34704
4.25525
4.17167
4.10589
4.04066
3.97116
3.9123
3.84832
3.7731
3.69963
3.61831
3.54073
3.48549
3.44207
3.39476
3.3475
3.29785
3.23186
3.14952
3.06782
3.00294
2.96134
2.93156
2.89979
2.87129
2.84047
2.79659
2.72982
2.65248
2.58516
2.54255
2.51614
2.49208
2.46943
2.42122
3.71851
2.55372
1.77765
1.37715
1.13433
0.909662
0.811896
0.757886
0.685517
0.705007
0.768287
0.823272
0.887152
0.954816
1.01248
1.07148
1.11779
1.16785
1.22921
1.25794
1.28656
1.31095
1.3284
1.3365
1.33671
1.33529
1.33169
1.32255
1.32012
1.3186
1.31635
1.33512
1.44339
2.10692
5.09239
6.5898
6.38366
6.21629
6.13797
6.07984
5.96527
5.88805
5.83628
5.79475
5.72724
5.61833
5.48055
5.326
5.21425
5.14044
5.09232
5.05007
4.98223
4.88396
4.75725
4.61428
4.50557
4.43485
4.38276
4.33946
4.29575
4.23953
4.15656
4.04239
3.91906
3.82848
3.76697
3.73237
3.70865
3.66736
3.6157
3.54114
3.44069
3.35684
3.29461
3.23229
3.1859
3.15349
3.11494
3.06764
3.0021
2.92709
2.8706
2.82472
2.78052
2.73951
2.71013
2.67933
2.64351
2.59587
2.53866
2.48508
2.44774
2.38743
4.27451
3.22401
2.46239
1.96571
1.60519
1.3286
1.14774
1.05143
0.92451
0.86938
0.844656
0.811643
0.814227
0.841348
0.874335
0.929153
0.991195
1.05123
1.11992
1.17193
1.21567
1.25345
1.29767
1.32058
1.32809
1.33593
1.33447
1.33261
1.32809
1.31869
1.3274
1.42455
1.9742
2.65799
3.78674
5.47727
6.15486
6.33265
6.24815
6.14003
5.92617
5.79626
5.73114
5.68961
5.65534
5.57744
5.4778
5.34462
5.18379
5.08442
5.02123
4.98098
4.93893
4.86248
4.77272
4.65603
4.51271
4.40366
4.34513
4.29991
4.26622
4.22271
4.16086
4.07634
3.95001
3.8183
3.74872
3.71028
3.68717
3.66643
3.62849
3.57345
3.47987
3.34694
3.2394
3.18473
3.15308
3.13927
3.12795
3.09642
3.05105
2.96924
2.85801
2.77714
2.72996
2.70033
2.68314
2.68028
2.6632
2.63009
2.58297
2.50795
2.4344
2.35297
4.71885
3.77498
3.026
2.50672
2.06737
1.71607
1.52607
1.35749
1.20182
1.07251
0.988495
0.908677
0.841237
0.835479
0.84491
0.859182
0.885651
0.928273
0.989091
1.06272
1.12171
1.16853
1.22312
1.25536
1.27347
1.2914
1.30776
1.33048
1.34047
1.34835
1.42452
1.8887
2.85512
3.22112
3.27334
3.84488
5.00869
5.86157
6.24865
6.23769
6.01451
5.78398
5.66904
5.60802
5.58916
5.57163
5.50126
5.40341
5.24545
5.07909
4.99231
4.92844
4.87795
4.81797
4.74714
4.66398
4.55054
4.41872
4.32667
4.27256
4.22236
4.1696
4.11192
4.04557
3.96303
3.86286
3.76897
3.71138
3.67239
3.63707
3.59442
3.5412
3.4663
3.36217
3.25312
3.18413
3.14674
3.12272
3.10854
3.08523
3.05114
2.98551
2.87146
2.7675
2.71969
2.69383
2.67689
2.67283
2.65952
2.63198
2.59793
2.52973
2.42536
2.32698
4.993
4.1831
3.47399
2.95075
2.50876
2.11244
1.86583
1.66619
1.47063
1.33361
1.21858
1.11997
1.02144
0.97392
0.933027
0.901543
0.904018
0.900868
0.906758
0.930196
0.970995
1.02403
1.08652
1.14855
1.19941
1.23116
1.26432
1.291
1.31578
1.41513
1.85684
2.78857
3.3038
3.35924
3.28848
3.2825
3.66795
4.69386
5.65669
6.05745
6.04078
5.81522
5.63178
5.54532
5.51575
5.52331
5.48851
5.40892
5.28447
5.10223
4.94988
4.86859
4.80709
4.76353
4.71217
4.64921
4.56947
4.45586
4.32116
4.22583
4.1684
4.1182
4.06912
4.01996
3.96858
3.90671
3.82167
3.72025
3.64241
3.59028
3.54013
3.48388
3.42358
3.36396
3.30229
3.22799
3.15786
3.1202
3.09485
3.06495
3.01799
2.94874
2.86729
2.79433
2.73849
2.70292
2.67819
2.65917
2.64113
2.6172
2.58536
2.52281
2.42008
2.32332
5.19585
4.49566
3.85973
3.32496
2.87235
2.47806
2.19622
1.97698
1.74666
1.57555
1.43996
1.31162
1.20848
1.12582
1.05909
0.99582
0.964353
0.936809
0.912212
0.911908
0.916433
0.926161
0.950017
0.998007
1.05869
1.11832
1.1806
1.22915
1.32263
1.83174
2.68496
3.23682
3.39326
3.39317
3.34953
3.27336
3.26406
3.51862
4.32762
5.31866
5.8299
5.80639
5.64257
5.53301
5.4661
5.44846
5.42046
5.35802
5.27379
5.14886
4.97982
4.84084
4.76537
4.71578
4.68035
4.62393
4.56102
4.48056
4.36214
4.22257
4.12502
4.06868
4.0234
3.98735
3.95257
3.90979
3.85286
3.76375
3.64222
3.53838
3.47355
3.42589
3.38819
3.35773
3.32844
3.28771
3.21868
3.12096
3.03824
2.98048
2.93462
2.89253
2.85661
2.82398
2.78375
2.73255
2.68604
2.65682
2.63469
2.60601
2.55981
2.49412
2.42758
2.35474
5.35009
4.72337
4.15269
3.6409
3.19611
2.81933
2.49766
2.23768
2.00962
1.82882
1.67798
1.52701
1.4057
1.30422
1.21725
1.14785
1.10032
1.05534
1.00419
0.95857
0.944412
0.931018
0.922538
0.926301
0.940583
0.982408
1.05288
1.12727
1.59508
2.47656
3.0695
3.22002
3.32272
3.33368
3.3161
3.2665
3.20908
3.19614
3.3287
3.93478
4.90285
5.52006
5.64779
5.56451
5.43851
5.3502
5.28397
5.25264
5.21755
5.14445
5.04338
4.89684
4.74965
4.66178
4.59778
4.55999
4.52976
4.47338
4.40021
4.29105
4.14847
4.03261
3.97207
3.93431
3.91778
3.8875
3.83986
3.77653
3.67944
3.54728
3.4512
3.40997
3.38724
3.37147
3.34268
3.30365
3.24338
3.14215
3.01568
2.93033
2.8842
2.85749
2.84103
2.82647
2.80184
2.77048
2.7249
2.66426
2.5996
2.54093
2.48894
2.44374
2.42257
2.38328
5.46539
4.90565
4.39365
3.90611
3.4649
3.10965
2.79346
2.50578
2.26202
2.06095
1.88695
1.73286
1.6077
1.49801
1.3917
1.29861
1.22836
1.16266
1.09844
1.03815
0.999564
0.967231
0.940362
0.929527
0.934454
0.945283
0.985561
1.31902
2.20101
2.64217
2.85949
3.00351
3.13461
3.17606
3.19801
3.21062
3.16854
3.12094
3.09501
3.17697
3.62624
4.50508
5.23238
5.51318
5.45523
5.29163
5.19346
5.12246
5.09466
5.0914
5.04245
4.95459
4.80531
4.63623
4.5452
4.49153
4.45054
4.43693
4.39341
4.32373
4.21965
4.07126
3.94658
3.88242
3.83819
3.80938
3.79005
3.75133
3.69766
3.61663
3.50473
3.40031
3.3383
3.30186
3.27406
3.2443
3.20406
3.13989
3.04354
2.93588
2.87505
2.8473
2.82733
2.8166
2.80175
2.77769
2.74268
2.67491
2.57739
2.49696
2.45043
2.42692
2.41454
2.38383
5.55283
5.05435
4.58089
4.11256
3.71489
3.36193
3.03511
2.73583
2.50807
2.29277
2.0966
1.91992
1.78914
1.66869
1.56121
1.47095
1.38395
1.3005
1.2237
1.15875
1.10938
1.06974
1.02736
0.980639
0.973463
1.00476
1.25532
1.98185
2.45416
2.5858
2.6614
2.73462
2.79982
2.85896
2.9146
2.98715
3.02213
3.01538
2.99178
2.99167
3.04966
3.36781
4.10521
4.88219
5.28399
5.27393
5.14633
5.03384
4.98286
4.98524
4.98909
4.9371
4.85109
4.69828
4.5205
4.43166
4.38355
4.35198
4.34225
4.29945
4.23592
4.14128
3.98969
3.85173
3.78987
3.75217
3.72249
3.7079
3.6824
3.6375
3.56342
3.43491
3.31508
3.25056
3.21006
3.17462
3.13927
3.10408
3.06214
3.00174
2.91805
2.85405
2.82472
2.80884
2.79911
2.77201
2.73166
2.66221
2.55625
2.47284
2.44013
2.42099
2.41771
2.39248
5.63339
5.17801
4.73247
4.30513
3.93208
3.58035
3.24567
2.96972
2.72369
2.50012
2.2915
2.12073
1.97717
1.84348
1.70874
1.61677
1.53531
1.44911
1.36472
1.28949
1.21857
1.16685
1.11092
1.0556
1.06858
1.29599
1.99393
2.56152
2.67129
2.63524
2.5986
2.56345
2.55433
2.55552
2.57032
2.61894
2.70747
2.77825
2.82544
2.83423
2.83085
2.86123
3.0798
3.6463
4.43343
4.9415
5.08052
4.98662
4.91541
4.88751
4.89734
4.87551
4.82239
4.73999
4.5826
4.40559
4.32117
4.27547
4.25454
4.24482
4.20371
4.14786
4.05791
3.90413
3.7629
3.70062
3.66664
3.64986
3.64027
3.6087
3.56314
3.48134
3.33557
3.214
3.15612
3.11876
3.0903
3.07068
3.05445
3.02446
2.97509
2.89949
2.8278
2.78061
2.7422
2.70647
2.66565
2.61705
2.55775
2.50694
2.46258
2.43062
2.41582
2.37635
5.708
5.28359
4.85868
4.47521
4.11848
3.77098
3.43964
3.1756
2.9249
2.69688
2.47824
2.30958
2.14864
2.01112
1.87642
1.76452
1.66875
1.5752
1.49477
1.42208
1.35118
1.27447
1.20431
1.21426
1.43819
2.13937
2.79353
2.86503
2.78273
2.68401
2.60501
2.54996
2.51947
2.50074
2.50203
2.49459
2.48039
2.48097
2.50924
2.53691
2.56747
2.58916
2.62471
2.77695
3.19494
3.86918
4.53869
4.80892
4.84068
4.82371
4.79337
4.79142
4.75386
4.69869
4.61328
4.45728
4.30023
4.2226
4.18016
4.15712
4.14141
4.10322
4.05292
3.96682
3.82283
3.6914
3.62699
3.59151
3.56912
3.56093
3.53024
3.46943
3.36784
3.23475
3.13328
3.08838
3.06287
3.04438
3.03277
3.01278
2.98196
2.93173
2.84486
2.75658
2.70145
2.66029
2.61612
2.57178
2.55013
2.52987
2.50009
2.4555
2.41559
2.35552
5.77124
5.37117
4.98295
4.62737
4.27865
3.93052
3.6338
3.36335
3.11028
2.86192
2.66484
2.48651
2.31977
2.16269
2.02985
1.91848
1.8065
1.7117
1.61397
1.53716
1.45811
1.38466
1.37276
1.59585
2.32189
3.03815
3.13012
3.03515
2.92841
2.84133
2.74476
2.64619
2.57173
2.52234
2.48662
2.46142
2.44904
2.42979
2.37864
2.31627
2.2921
2.30557
2.33334
2.37005
2.47137
2.73179
3.28344
3.98959
4.54711
4.6367
4.68222
4.70805
4.6878
4.6259
4.57167
4.48023
4.35587
4.22447
4.14126
4.09616
4.0689
4.04678
4.00832
3.95191
3.86538
3.75201
3.63362
3.55297
3.50423
3.46408
3.42757
3.39069
3.34397
3.27114
3.17719
3.09341
3.04883
3.0214
2.9983
2.97995
2.95588
2.91977
2.85254
2.74984
2.66505
2.61442
2.57998
2.56074
2.54759
2.52929
2.50521
2.46559
2.40939
2.32187
5.84719
5.46198
5.09773
4.75452
4.41299
4.08454
3.8024
3.53141
3.2717
3.02992
2.83999
2.64859
2.48264
2.31264
2.18704
2.05558
1.94329
1.83696
1.7457
1.64696
1.55644
1.55556
1.79967
2.58931
3.31639
3.40529
3.30142
3.19015
3.10724
3.02103
2.90797
2.78266
2.68179
2.61889
2.55868
2.50447
2.45716
2.41432
2.37297
2.31907
2.24107
2.18962
2.16997
2.16427
2.17432
2.20351
2.30922
2.66374
3.31874
4.03604
4.36574
4.48042
4.5421
4.5755
4.52128
4.4578
4.38782
4.29351
4.17312
4.06206
3.9924
3.93906
3.89738
3.86627
3.83129
3.7734
3.68258
3.56508
3.46291
3.40369
3.3639
3.32872
3.29346
3.25717
3.20765
3.13187
3.053
3.00055
2.96339
2.93154
2.90272
2.87245
2.8275
2.74296
2.64145
2.59129
2.57269
2.55898
2.5441
2.52531
2.50179
2.46006
2.39116
2.28398
5.88272
5.53365
5.18895
4.84939
4.52171
4.23034
3.94787
3.68063
3.41577
3.2016
2.99522
2.80854
2.62152
2.46821
2.32959
2.19453
2.07564
1.9627
1.84968
1.75042
1.75549
2.05275
2.92537
3.658
3.70116
3.57644
3.45053
3.37179
3.28932
3.19051
3.07964
2.94596
2.81101
2.7304
2.66516
2.59815
2.53273
2.4712
2.41605
2.35674
2.27083
2.17669
2.13494
2.10927
2.08133
2.06844
2.05668
2.07047
2.1907
2.61056
3.26882
3.95351
4.22953
4.33864
4.41991
4.41406
4.36974
4.30594
4.2105
4.07718
3.94974
3.87562
3.82838
3.78784
3.75324
3.72089
3.67685
3.59884
3.47031
3.36536
3.31641
3.28384
3.25429
3.22419
3.19101
3.14073
3.06353
2.98699
2.93525
2.89665
2.86102
2.82327
2.77749
2.71739
2.64381
2.59625
2.57555
2.5576
2.538
2.51863
2.49557
2.44739
2.35846
2.24393
5.93704
5.60688
5.27942
4.94657
4.6407
4.35972
4.08676
3.81335
3.57209
3.3576
3.14702
2.95441
2.76706
2.61919
2.46315
2.33368
2.20298
2.07347
1.95337
1.97888
2.36134
3.35452
4.10569
4.10045
3.92411
3.73016
3.61866
3.54311
3.45037
3.35072
3.24343
3.11129
2.96415
2.84536
2.76036
2.6892
2.6238
2.56164
2.49877
2.42964
2.34724
2.25054
2.16241
2.09702
2.05436
2.02892
2.00138
1.98565
1.96622
1.97084
2.1074
2.54796
3.25974
3.82673
4.1256
4.25134
4.30471
4.27485
4.19678
4.08761
3.96358
3.85079
3.79106
3.74184
3.70232
3.67511
3.64993
3.59431
3.4892
3.36193
3.28651
3.25059
3.21969
3.18755
3.15294
3.11268
3.05298
2.97303
2.90946
2.86821
2.83212
2.79345
2.75031
2.70374
2.65333
2.60011
2.56484
2.54736
2.53434
2.51641
2.48222
2.41406
2.31438
2.21888
5.96899
5.65385
5.33784
5.03316
4.75305
4.47319
4.19514
3.93638
3.71954
3.49516
3.287
3.07598
2.91488
2.7501
2.59708
2.45679
2.31032
2.17292
2.19275
2.65384
3.72873
4.55555
4.52443
4.30229
4.07337
3.89172
3.79189
3.69787
3.5985
3.49681
3.38839
3.26309
3.11668
2.97756
2.87549
2.79573
2.72212
2.65001
2.57835
2.50386
2.4221
2.33236
2.23623
2.14951
2.0884
2.0383
1.98972
1.94883
1.91362
1.90269
1.87139
1.87998
2.04844
2.51782
3.22535
3.72519
4.00389
4.09219
4.08517
4.04983
3.94371
3.85644
3.80048
3.74583
3.69039
3.63355
3.56978
3.51549
3.4583
3.37689
3.28897
3.22524
3.18649
3.15459
3.1228
3.087
3.03754
2.96187
2.88172
2.83444
2.80232
2.77129
2.73871
2.70481
2.6638
2.60861
2.55634
2.52177
2.49028
2.45329
2.40917
2.35079
2.28411
2.22843
6.03719
5.73438
5.42886
5.13849
4.86068
4.58751
4.31137
4.07393
3.84639
3.6253
3.40306
3.21457
3.05152
2.87807
2.7242
2.56417
2.4155
2.46444
3.03281
4.13434
4.8348
4.85444
4.68055
4.49613
4.30261
4.105
3.96801
3.84958
3.73434
3.62319
3.5122
3.39535
3.26801
3.13045
2.99817
2.8904
2.80351
2.7261
2.65089
2.57325
2.495
2.41844
2.33966
2.25454
2.16744
2.08936
2.02231
1.96733
1.91897
1.87533
1.83612
1.81796
1.78309
1.80044
1.99417
2.48358
3.14338
3.6678
3.81342
3.85508
3.86542
3.83268
3.78784
3.74684
3.68632
3.60508
3.51403
3.43839
3.38919
3.34724
3.29268
3.21944
3.15356
3.11844
3.0924
3.06378
3.02662
2.96638
2.87777
2.80925
2.77152
2.74115
2.71294
2.68606
2.65793
2.61759
2.55673
2.48874
2.43106
2.38469
2.34106
2.29285
2.27427
2.24321
6.12115
5.81213
5.51334
5.23551
4.96011
4.68108
4.42077
4.1915
3.96176
3.74181
3.5202
3.35263
3.1676
3.00029
2.83233
2.66993
2.77399
3.58199
4.7908
5.25938
5.21879
5.00693
4.86158
4.72766
4.55682
4.35544
4.15755
3.99078
3.85108
3.72812
3.61317
3.5006
3.38738
3.27131
3.14875
3.02055
2.89811
2.79342
2.70593
2.62822
2.55729
2.48966
2.42068
2.34584
2.26315
2.1766
2.09387
2.02421
1.96255
1.90556
1.85321
1.80165
1.75384
1.72612
1.69699
1.734
1.93775
2.43966
3.04145
3.53868
3.64135
3.70022
3.74057
3.71452
3.65698
3.57936
3.47526
3.37974
3.32837
3.29393
3.2586
3.21154
3.1426
3.07588
3.04773
3.0268
2.99881
2.95535
2.88648
2.80343
2.74771
2.71666
2.6966
2.68154
2.66098
2.62391
2.55355
2.45974
2.38877
2.33845
2.29572
2.27563
2.26776
2.23821
6.17984
5.86771
5.58514
5.31641
5.04013
4.76536
4.53664
4.30456
4.07725
3.84017
3.65439
3.472
3.28466
3.11431
2.94408
3.10258
4.06503
5.55969
5.93934
5.68453
5.38258
5.1552
5.01782
4.89952
4.73321
4.55163
4.36342
4.16453
3.97468
3.82396
3.70315
3.59365
3.48841
3.38496
3.2779
3.15867
3.02415
2.88753
2.77022
2.67674
2.60005
2.5325
2.46871
2.40375
2.333
2.25274
2.16749
2.0899
2.02267
1.96603
1.91117
1.85413
1.79217
1.72629
1.67037
1.64132
1.62334
1.67574
1.90812
2.42492
2.99473
3.3789
3.567
3.61477
3.60967
3.54897
3.44148
3.36429
3.30196
3.25363
3.21509
3.17768
3.13186
3.06751
3.00317
2.97146
2.9467
2.91637
2.86533
2.80345
2.75491
2.712
2.66882
2.62399
2.58583
2.54975
2.49558
2.4198
2.35257
2.31389
2.29512
2.27804
2.2627
2.23285
6.2119
5.96258
5.66341
5.40221
5.13059
4.87134
4.64646
4.41875
4.1822
3.95554
3.77926
3.57016
3.39816
3.25409
3.50255
4.61611
5.94842
6.53137
6.31397
5.94452
5.60017
5.31881
5.13573
5.00027
4.85936
4.70319
4.54202
4.36305
4.15515
3.94955
3.79218
3.67296
3.56788
3.46686
3.3661
3.25927
3.13694
2.9979
2.86234
2.75203
2.66403
2.58768
2.51791
2.45131
2.38379
2.30912
2.2249
2.13992
2.06556
2.00744
1.9564
1.90833
1.85592
1.79173
1.7153
1.64073
1.58838
1.57056
1.57289
1.63986
1.91637
2.39057
2.92175
3.211
3.39798
3.41445
3.42096
3.38506
3.31139
3.24667
3.20476
3.16559
3.1185
3.05581
2.98437
2.92388
2.87097
2.8299
2.81021
2.79375
2.75935
2.70687
2.64831
2.59235
2.53916
2.48358
2.43023
2.3752
2.33346
2.31734
2.30115
2.28142
2.26215
2.21955
5.84159
6.03147
5.78277
5.49545
5.21953
4.96982
4.74187
4.52539
4.27413
4.08411
3.86679
3.68576
3.61366
4.02795
5.45591
6.50031
6.77377
6.70396
6.44194
6.1831
5.89581
5.56603
5.29722
5.12226
4.9807
4.83627
4.68407
4.52112
4.33187
4.1155
3.91963
3.7717
3.65092
3.53965
3.43175
3.32431
3.2113
3.08599
2.95365
2.83453
2.73749
2.65476
2.57832
2.50405
2.43017
2.35292
2.26905
2.18105
2.10012
2.0359
1.9829
1.93812
1.89545
1.84908
1.7885
1.70536
1.62563
1.56738
1.53402
1.52704
1.53236
1.60493
1.8821
2.31291
2.80367
3.03222
3.2064
3.29107
3.28967
3.26293
3.21476
3.16328
3.1094
3.04532
2.96275
2.88835
2.8328
2.79335
2.76062
2.72916
2.70859
2.68461
2.6411
2.58024
2.51534
2.44421
2.37306
2.33666
2.32431
2.31242
2.29566
2.27787
2.25994
2.2132
4.30125
5.84567
5.86695
5.60668
5.31013
5.06533
4.84927
4.60886
4.36576
4.17959
3.98344
4.04439
4.69767
6.35282
7.48338
7.34929
7.03783
6.74839
6.57297
6.39414
6.14559
5.84084
5.53271
5.30582
5.12631
4.95829
4.79205
4.62386
4.44523
4.24985
4.05465
3.88795
3.75071
3.62798
3.50974
3.39172
3.2717
3.14698
3.01735
2.89398
2.79089
2.70703
2.63229
2.56005
2.48742
2.41001
2.32427
2.22984
2.13812
2.06328
2.00573
1.96194
1.92186
1.88111
1.83024
1.76064
1.69192
1.62454
1.56661
1.5244
1.49288
1.48506
1.48589
1.55987
1.80322
2.24221
2.70782
3.05803
3.11669
3.13259
3.10822
3.05615
3.01082
2.97139
2.93295
2.88102
2.81719
2.75366
2.71519
2.6928
2.66829
2.63082
2.59002
2.55332
2.50211
2.41807
2.34826
2.32711
2.31255
2.29556
2.27759
2.25965
2.23951
2.18152
1.95099
4.71845
5.77673
5.70243
5.42914
5.16487
4.95623
4.68578
4.49251
4.31445
4.54372
5.59542
7.10222
8.1607
8.07913
7.64842
7.22506
6.93644
6.75359
6.57506
6.3368
6.05703
5.76035
5.49802
5.28363
5.09024
4.90342
4.7195
4.53691
4.35254
4.16728
3.99334
3.842
3.70963
3.58679
3.46618
3.34361
3.21562
3.08095
2.94743
2.8325
2.74276
2.66754
2.59597
2.52291
2.44801
2.36828
2.28145
2.19565
2.11984
2.05333
1.99361
1.93703
1.88294
1.83754
1.797
1.74048
1.6761
1.61825
1.56569
1.52091
1.48439
1.45532
1.4293
1.42908
1.52295
1.78136
2.23175
2.64962
2.9789
3.01702
2.99542
2.95513
2.91225
2.86531
2.818
2.76357
2.71137
2.67137
2.64097
2.61519
2.5924
2.56771
2.53047
2.4616
2.38234
2.35429
2.33902
2.31889
2.30014
2.28218
2.26345
2.23976
2.16704
1.07441
2.39344
4.98992
5.6622
5.53956
5.30943
5.02329
4.78465
4.73179
5.28102
6.87221
8.10025
8.60401
8.56888
8.23715
7.85127
7.481
7.19969
6.96962
6.73986
6.48691
6.21053
5.92235
5.65094
5.418
5.21238
5.01838
4.82987
4.64493
4.45927
4.26981
4.08422
3.91758
3.77397
3.64644
3.52678
3.40678
3.28054
3.14596
3.00911
2.88482
2.78534
2.7078
2.6387
2.56269
2.47659
2.38784
2.29833
2.2223
2.16111
2.09976
2.03458
1.97453
1.9195
1.86488
1.79792
1.72452
1.69284
1.67338
1.63643
1.59031
1.53749
1.48708
1.4335
1.4002
1.37306
1.37892
1.47939
1.74969
2.21963
2.5741
2.80353
2.86006
2.87115
2.86189
2.82755
2.7596
2.70212
2.6552
2.59107
2.54113
2.51996
2.4996
2.47213
2.42765
2.37132
2.3273
2.29467
2.26464
2.23746
2.22076
2.2068
2.19039
2.148
1.00129
1.15719
2.83055
5.09187
5.56018
5.42591
5.08415
5.22189
6.28202
8.0742
9.36284
9.26822
9.01267
8.70837
8.42327
8.11511
7.78256
7.47521
7.19282
6.91932
6.64474
6.36001
6.06959
5.79257
5.54706
5.33015
5.12987
4.93751
4.74766
4.55559
4.35841
4.16267
3.9833
3.82816
3.69288
3.56975
3.45229
3.33364
3.20709
3.07502
2.95078
2.84286
2.7487
2.66992
2.60818
2.54326
2.45646
2.35589
2.25964
2.17836
2.12534
2.08791
2.04071
1.97435
1.89049
1.81317
1.75946
1.71413
1.66428
1.61713
1.57189
1.52243
1.47698
1.43548
1.39579
1.36013
1.34101
1.31189
1.32529
1.44139
1.75097
2.16006
2.44485
2.64358
2.76766
2.76496
2.75048
2.72274
2.66612
2.57787
2.52385
2.49273
2.46039
2.42028
2.37164
2.33605
2.30683
2.26985
2.23236
2.20264
2.19149
2.18344
2.17505
2.15394
1.00001
1.00402
1.27233
3.17606
5.2174
5.35015
5.93839
7.75287
9.31454
10.0368
10.0272
9.59653
9.13872
8.8579
8.6347
8.35319
8.0218
7.68568
7.36685
7.06415
6.77437
6.48861
6.20527
5.93222
5.67836
5.44622
5.23136
5.02674
4.82582
4.62454
4.42398
4.23077
4.05338
3.89646
3.75696
3.62704
3.49925
3.36817
3.23379
3.10377
2.98782
2.88756
2.79768
2.71249
2.62824
2.53912
2.45045
2.36454
2.28564
2.21592
2.15654
2.09752
2.03162
1.96393
1.8947
1.82881
1.77383
1.72358
1.67369
1.62791
1.58412
1.53801
1.49688
1.45442
1.41042
1.37072
1.3336
1.30078
1.29189
1.2838
1.31239
1.42955
1.72885
2.12053
2.41951
2.52066
2.62471
2.63834
2.61584
2.57834
2.51351
2.45772
2.4213
2.38476
2.34376
2.31429
2.28459
2.25107
2.22079
2.193
2.18462
2.18302
2.20962
2.43958
1
1.00003
1.0092
1.41649
3.35836
5.40587
9.47806
10.8985
10.6499
10.5663
10.2537
9.84404
9.40618
9.13993
8.92635
8.65147
8.31293
7.9515
7.60652
7.28737
6.99312
6.71122
6.43126
6.15499
5.88936
5.64082
5.41013
5.19298
4.98399
4.77961
4.57957
4.3865
4.20535
4.04019
3.88954
3.74752
3.60865
3.47055
3.33497
3.20665
3.08995
2.98511
2.88674
2.78649
2.6791
2.57602
2.48614
2.41313
2.34642
2.27834
2.20478
2.1245
2.04851
1.9807
1.9242
1.87215
1.81509
1.76319
1.71595
1.67057
1.62932
1.58908
1.54551
1.49545
1.4447
1.40175
1.36558
1.33676
1.31594
1.28678
1.2612
1.22835
1.25931
1.38728
1.68592
2.03315
2.39058
2.53145
2.53853
2.51501
2.47498
2.41174
2.35506
2.32822
2.31346
2.29499
2.26811
2.25419
2.2279
2.213
2.24269
2.38682
2.66416
3.25586
1
1
1.00009
1.01684
1.63192
7.5782
12.7057
11.8776
11.019
10.6343
10.2924
9.98415
9.62542
9.32939
9.07778
8.77757
8.40267
8.00796
7.65897
7.33628
7.02881
6.73971
6.45255
6.1643
5.88569
5.62509
5.38362
5.158
4.94424
4.73939
4.54181
4.35156
4.1709
4.00281
3.84694
3.69945
3.55679
3.41759
3.28274
3.15619
3.04188
2.93913
2.84363
2.75194
2.66087
2.5645
2.4662
2.37697
2.30262
2.23635
2.17463
2.11607
2.05542
1.98856
1.91394
1.84181
1.78239
1.73686
1.69601
1.65662
1.61731
1.57579
1.52963
1.47503
1.41871
1.37382
1.34252
1.31901
1.29894
1.27516
1.24454
1.20997
1.16574
1.14815
1.19471
1.37454
1.72379
2.07039
2.33094
2.46287
2.45717
2.4154
2.35721
2.313
2.28587
2.26691
2.26249
2.27801
2.33934
2.51602
2.82478
3.21713
3.61471
3.88621
1
1
1
1.00021
1.79367
9.42323
12.0951
11.2367
10.7831
10.5931
10.4165
10.1681
9.84736
9.54355
9.25173
8.92921
8.55301
8.14947
7.80826
7.50825
7.19209
6.88449
6.57799
6.26545
5.96678
5.69534
5.44933
5.22231
5.00835
4.80214
4.59987
4.40199
4.21387
4.04059
3.88147
3.73169
3.58697
3.44499
3.30578
3.17427
3.05595
2.95091
2.85543
2.76506
2.67345
2.57736
2.48055
2.38985
2.30937
2.2397
2.17931
2.12182
2.06247
1.99721
1.9243
1.8487
1.7829
1.73833
1.70398
1.67106
1.63409
1.5914
1.54098
1.48089
1.41961
1.37229
1.34302
1.321
1.3016
1.27758
1.24772
1.2094
1.16223
1.12459
1.11639
1.12495
1.1923
1.41493
1.73751
2.10477
2.24275
2.32267
2.3082
2.30296
2.30467
2.34758
2.47607
2.70744
3.05575
3.4504
3.79603
4.01472
4.1347
4.13032
1
1
1
1
2.85688
9.61989
11.154
11.0365
10.9138
10.7811
10.5693
10.2744
9.94386
9.62256
9.29867
8.94626
8.55511
8.17542
7.83671
7.5437
7.22711
6.9028
6.58179
6.26806
5.98104
5.72366
5.48739
5.26383
5.04582
4.82813
4.61154
4.40514
4.21854
4.05266
3.90096
3.75553
3.61086
3.46431
3.31787
3.18133
3.06277
2.96059
2.86853
2.7799
2.68816
2.59067
2.48969
2.39302
2.30939
2.24137
2.18396
2.12971
2.07317
2.00775
1.92968
1.84685
1.77929
1.73304
1.69455
1.65848
1.62364
1.58649
1.53876
1.47773
1.4204
1.37878
1.34968
1.32393
1.30439
1.28923
1.26527
1.22703
1.16532
1.12608
1.10514
1.09104
1.08765
1.11504
1.21466
1.45455
1.76819
2.07374
2.18064
2.34935
2.61852
2.95019
3.26538
3.54778
3.80618
3.94207
4.06603
4.17891
4.18061
4.11083
1
1
1
1
3.16913
9.74148
10.9411
10.9274
10.9071
10.8358
10.6823
10.4691
10.2109
9.88625
9.51469
9.10542
8.69449
8.30855
7.96227
7.64836
7.30657
6.95629
6.61626
6.30011
6.01628
5.75934
5.52062
5.29166
5.06439
4.83466
4.60828
4.39953
4.21742
4.05873
3.91374
3.77229
3.62649
3.47324
3.31896
3.17902
3.06147
2.96163
2.87177
2.78533
2.69578
2.59852
2.4933
2.39106
2.30534
2.23838
2.18285
2.13143
2.07894
2.01739
1.93652
1.84302
1.77097
1.72598
1.68965
1.65651
1.62381
1.58824
1.54122
1.48001
1.42107
1.37869
1.35219
1.32985
1.30142
1.26647
1.23159
1.20084
1.17085
1.13694
1.09839
1.06769
1.05495
1.04377
1.04161
1.07977
1.22895
1.56402
2.15796
2.80182
3.40504
3.97529
4.39499
4.69272
4.77207
4.65647
4.48375
4.30019
4.14552
4.02304
)
;

boundaryField
{
    inlet
    {
        type            fixedValue;
        value           uniform 1;
    }
    outlet
    {
        type            zeroGradient;
    }
    bottom
    {
        type            zeroGradient;
    }
    top
    {
        type            zeroGradient;
    }
    obstacle
    {
        type            zeroGradient;
    }
    defaultFaces
    {
        type            empty;
    }
}


// ************************************************************************* //
