/*--------------------------------*- C++ -*----------------------------------*\
  =========                 |
  \\      /  F ield         | OpenFOAM: The Open Source CFD Toolbox
   \\    /   O peration     | Website:  https://openfoam.org
    \\  /    A nd           | Version:  7
     \\/     M anipulation  |
\*---------------------------------------------------------------------------*/
FoamFile
{
    version     2.0;
    format      ascii;
    class       volScalarField;
    location    "3.8";
    object      rho;
}
// * * * * * * * * * * * * * * * * * * * * * * * * * * * * * * * * * * * * * //

dimensions      [1 -3 0 0 0 0 0];

internalField   nonuniform List<scalar> 
4128
(
2.09315
2.08691
2.08189
2.0763
2.07019
2.07747
2.12829
2.27263
2.49426
2.74765
2.98611
3.14213
3.24756
3.30613
3.3193
3.33156
3.32528
3.29605
3.25879
3.22218
3.205
3.20113
3.20312
3.21505
3.22493
3.21988
3.21218
3.20508
3.19337
3.17512
3.16354
3.1565
3.15123
3.14692
3.14909
3.15192
3.14989
3.1428
3.12695
3.10216
3.07754
3.06377
3.06081
3.06061
3.0669
3.08507
3.10176
3.10077
3.09474
3.0843
3.06469
3.03366
3.00923
2.99792
2.99155
2.98771
2.98857
3.00122
3.01525
3.01612
3.01271
3.00766
2.9989
2.98537
2.96557
2.94643
2.93614
2.93249
2.93487
2.94712
2.9534
2.95041
2.9465
2.94215
2.93449
2.91931
2.90106
2.88374
2.87109
2.86442
2.86028
2.85621
2.85169
2.84771
2.84507
2.84341
2.84189
2.84095
2.84453
2.85134
2.8507
2.84539
2.83385
2.81373
2.79037
2.77849
2.77523
2.77422
2.77463
2.77876
2.78448
2.78511
2.7814
2.77398
2.75635
2.72668
2.70504
2.69957
2.69915
2.70527
2.71827
2.73471
2.74568
2.7452
2.74007
2.73074
2.71101
2.67739
2.65434
2.64814
2.64557
2.64521
2.65268
2.66393
2.66561
2.66352
2.65957
2.64966
2.61795
2.12907
2.12254
2.11274
2.10131
2.08636
2.0662
2.05577
2.05772
2.07721
2.158
2.34235
2.58113
2.82997
3.04466
3.17392
3.2696
3.28408
3.2807
3.27501
3.25307
3.22891
3.23346
3.23975
3.24262
3.23463
3.21976
3.20445
3.19398
3.18202
3.17041
3.16295
3.15704
3.1562
3.15293
3.15049
3.15081
3.14947
3.14009
3.12231
3.10275
3.08602
3.07504
3.07072
3.0717
3.08218
3.09698
3.09896
3.09406
3.08549
3.07297
3.05328
3.0286
3.01254
3.00386
2.99769
2.99608
3.00479
3.0174
3.01791
3.01346
3.00656
2.99593
2.98468
2.97422
2.96308
2.95245
2.94489
2.94188
2.94609
2.94922
2.94528
2.94049
2.93521
2.92729
2.91597
2.90371
2.89305
2.88691
2.88361
2.88189
2.87673
2.86805
2.85722
2.84609
2.83761
2.83258
2.82982
2.8279
2.82827
2.83612
2.84556
2.846
2.84192
2.83172
2.80939
2.78218
2.77128
2.76885
2.76685
2.76535
2.76607
2.7705
2.77108
2.76813
2.76289
2.7498
2.7267
2.71093
2.7085
2.71083
2.71556
2.71955
2.72552
2.7297
2.7272
2.72125
2.70943
2.68931
2.66149
2.64457
2.64041
2.63989
2.65026
2.66468
2.6654
2.66251
2.65779
2.6452
2.61093
2.15784
2.15262
2.14473
2.13446
2.11934
2.09615
2.07076
2.05624
2.0565
2.05569
2.06197
2.09988
2.20134
2.38944
2.60578
2.84309
3.03014
3.14258
3.21942
3.22606
3.23713
3.2657
3.27533
3.26334
3.24732
3.22815
3.20649
3.19425
3.18674
3.18117
3.17481
3.16876
3.16215
3.15124
3.14372
3.14203
3.13757
3.12581
3.10908
3.10054
3.09678
3.09344
3.09401
3.10056
3.10399
3.09919
3.09044
3.0806
3.06917
3.05407
3.03617
3.02208
3.01446
3.00886
3.00651
3.0128
3.02392
3.02335
3.01849
3.01191
3.00107
2.98513
2.96994
2.96096
2.95591
2.95191
2.95143
2.95529
2.95498
2.9494
2.94226
2.934
2.92407
2.91232
2.90057
2.89188
2.88831
2.88869
2.8934
2.89249
2.88637
2.87726
2.86418
2.84753
2.83354
2.82585
2.82161
2.81921
2.81932
2.8276
2.84108
2.84617
2.84481
2.84044
2.82795
2.7991
2.76949
2.75789
2.75381
2.75111
2.75026
2.75648
2.76452
2.76842
2.76863
2.76587
2.75616
2.7342
2.71561
2.71111
2.70835
2.70556
2.70427
2.70595
2.70656
2.7033
2.69779
2.68859
2.67475
2.65737
2.64589
2.6435
2.6469
2.65094
2.65119
2.64841
2.64402
2.63123
2.60266
2.18116
2.17481
2.16757
2.15846
2.14524
2.12711
2.10815
2.09339
2.08104
2.06688
2.05677
2.05577
2.05536
2.06225
2.10322
2.20622
2.40061
2.63239
2.86505
3.04605
3.1487
3.2169
3.23862
3.24132
3.23907
3.22937
3.21111
3.20623
3.20519
3.20811
3.20636
3.19886
3.18486
3.1629
3.14059
3.1212
3.1039
3.09294
3.08985
3.09131
3.09446
3.10339
3.119
3.12567
3.12169
3.11146
3.09388
3.07244
3.05194
3.03332
3.0208
3.01681
3.01421
3.01427
3.02217
3.03264
3.02992
3.02145
3.01324
3.00333
2.99116
2.97774
2.96753
2.9614
2.95861
2.96133
2.96712
2.96583
2.9582
2.9481
2.93667
2.92407
2.91174
2.90041
2.89327
2.88995
2.89009
2.89906
2.90398
2.89995
2.89261
2.88232
2.86739
2.84849
2.83286
2.82334
2.81798
2.81529
2.81708
2.83139
2.84923
2.85311
2.85104
2.8465
2.83533
2.81063
2.77643
2.75489
2.74759
2.74368
2.74206
2.74918
2.76978
2.7806
2.78099
2.77811
2.77081
2.75484
2.72704
2.7045
2.69559
2.69057
2.68696
2.68428
2.68358
2.68378
2.68212
2.67992
2.67748
2.67359
2.66701
2.65754
2.64838
2.64223
2.63909
2.6358
2.6287
2.61375
2.59553
2.19934
2.19185
2.18394
2.17515
2.16335
2.14964
2.13843
2.12977
2.11954
2.10534
2.08627
2.06874
2.05552
2.05213
2.05054
2.05209
2.06528
2.12184
2.24746
2.46247
2.69158
2.89176
3.02487
3.10817
3.16541
3.19645
3.19873
3.20777
3.21566
3.22408
3.23515
3.23235
3.22291
3.20179
3.16298
3.11503
3.08573
3.07454
3.07223
3.07302
3.0828
3.10789
3.1304
3.13096
3.12731
3.12148
3.10331
3.06896
3.03807
3.02357
3.01825
3.01609
3.01832
3.03058
3.04693
3.04763
3.03627
3.01696
2.99393
2.97877
2.97339
2.97092
2.96877
2.9687
2.97651
2.98626
2.98655
2.97886
2.96356
2.94164
2.92002
2.90437
2.89632
2.89288
2.89012
2.88983
2.8997
2.91516
2.9167
2.91101
2.89951
2.88173
2.86138
2.84631
2.83709
2.83051
2.82528
2.82345
2.82889
2.83892
2.8394
2.83721
2.83628
2.83389
2.8266
2.81022
2.78731
2.7638
2.74833
2.7426
2.74198
2.75022
2.7617
2.76791
2.76979
2.76838
2.76438
2.75522
2.73741
2.7108
2.68859
2.67868
2.67331
2.66978
2.66675
2.6656
2.66905
2.67449
2.6798
2.68216
2.67996
2.67305
2.65901
2.64121
2.62786
2.61848
2.60745
2.59683
2.59335
2.21836
2.20899
2.19892
2.1876
2.17433
2.16536
2.16036
2.15566
2.14866
2.13891
2.12345
2.09856
2.07544
2.06183
2.05408
2.04935
2.05134
2.05397
2.0609
2.08437
2.14781
2.26601
2.45421
2.66294
2.85291
2.98648
3.07858
3.13596
3.16669
3.21412
3.24292
3.24343
3.23728
3.22324
3.19184
3.13452
3.08749
3.07339
3.07205
3.07364
3.0888
3.11406
3.122
3.12271
3.12193
3.11695
3.09871
3.06294
3.0354
3.02504
3.02066
3.02097
3.0341
3.05762
3.06883
3.06484
3.05105
3.02078
2.98398
2.96112
2.95396
2.95216
2.95546
2.97272
2.99586
3.00437
3.00075
2.99247
2.97488
2.94001
2.90618
2.88973
2.88388
2.88182
2.88182
2.89141
2.91502
2.92962
2.92849
2.92196
2.90485
2.87485
2.85072
2.84285
2.83924
2.83727
2.8395
2.84649
2.8484
2.84335
2.83601
2.82885
2.8227
2.81607
2.80746
2.79698
2.78569
2.77719
2.76872
2.76201
2.76013
2.76121
2.76091
2.75965
2.75776
2.75501
2.75101
2.74499
2.73519
2.72075
2.69797
2.67709
2.66832
2.66386
2.66111
2.65945
2.6621
2.67431
2.68335
2.68557
2.68378
2.67958
2.66965
2.6477
2.6197
2.60035
2.59154
2.5883
2.58858
2.24158
2.22839
2.21495
2.19856
2.18744
2.18156
2.17696
2.17421
2.17045
2.16372
2.15353
2.13463
2.10543
2.08239
2.07143
2.06409
2.05872
2.05622
2.0545
2.05757
2.06066
2.06188
2.07915
2.13111
2.24219
2.43513
2.6589
2.84414
2.98428
3.08268
3.16529
3.20624
3.2104
3.21121
3.19406
3.15249
3.12609
3.11282
3.10658
3.10476
3.11574
3.11879
3.11095
3.10485
3.09982
3.09327
3.07831
3.05151
3.03039
3.02188
3.01906
3.02564
3.05081
3.07655
3.0781
3.0731
3.06273
3.03614
2.99111
2.95936
2.94946
2.9473
2.95028
2.97081
2.99755
3.00171
2.99695
2.98963
2.9759
2.94536
2.90475
2.88525
2.8797
2.87773
2.8816
2.9038
2.93206
2.93535
2.93062
2.92211
2.90214
2.86754
2.84787
2.84382
2.84206
2.84508
2.85743
2.86313
2.85932
2.8518
2.8404
2.82414
2.8058
2.7899
2.78121
2.77807
2.77743
2.77996
2.78616
2.78977
2.78724
2.77759
2.76293
2.74882
2.74009
2.73501
2.73146
2.72831
2.72502
2.71962
2.70959
2.69104
2.6712
2.66257
2.66011
2.65936
2.66144
2.66775
2.6813
2.68677
2.6841
2.68018
2.67265
2.65367
2.61997
2.59425
2.58536
2.5831
2.58557
2.27179
2.25403
2.22859
2.21079
2.20258
2.19657
2.19221
2.19007
2.18703
2.18088
2.17357
2.16246
2.14238
2.11765
2.09859
2.08505
2.07653
2.07077
2.06537
2.06017
2.05665
2.05341
2.05335
2.04842
2.04534
2.05954
2.12174
2.25633
2.46721
2.67431
2.86321
2.99564
3.07014
3.13063
3.14704
3.14291
3.15049
3.15384
3.13982
3.1381
3.13964
3.13162
3.11755
3.09967
3.08295
3.06702
3.05184
3.03648
3.02472
3.01939
3.01895
3.03216
3.05626
3.06448
3.06788
3.06635
3.05927
3.04167
3.01191
2.97767
2.9557
2.94992
2.95162
2.96218
2.97467
2.98193
2.98038
2.97593
2.96642
2.946
2.91523
2.89042
2.88206
2.88058
2.88958
2.91475
2.92514
2.9228
2.91838
2.9115
2.8957
2.86793
2.84865
2.84355
2.84327
2.85355
2.86698
2.86577
2.86046
2.85363
2.84146
2.81915
2.78943
2.77029
2.76467
2.76353
2.76744
2.78296
2.80353
2.81046
2.80731
2.79605
2.77197
2.74118
2.72339
2.71707
2.71426
2.7125
2.71208
2.71256
2.71004
2.70372
2.6893
2.67124
2.66332
2.66152
2.66146
2.6645
2.67024
2.67444
2.67337
2.67099
2.66759
2.65659
2.62797
2.59617
2.58562
2.58322
2.58743
2.30127
2.28108
2.25106
2.22843
2.21829
2.21119
2.20604
2.20339
2.19949
2.1939
2.18801
2.18075
2.16844
2.1519
2.13649
2.12184
2.10492
2.08783
2.07735
2.07073
2.06562
2.06159
2.05725
2.0532
2.04944
2.04564
2.03344
2.03329
2.0535
2.11919
2.24538
2.44099
2.64728
2.83367
2.96729
3.05814
3.11067
3.12053
3.1333
3.14642
3.14645
3.13852
3.12489
3.10607
3.07575
3.0556
3.04303
3.03717
3.03643
3.03727
3.03986
3.04264
3.03659
3.03214
3.03392
3.03847
3.0373
3.02924
3.01583
3.00219
2.98709
2.97228
2.96335
2.96018
2.95906
2.95924
2.95574
2.95
2.94325
2.93477
2.92168
2.90611
2.89507
2.893
2.90159
2.91116
2.91112
2.90861
2.90471
2.89848
2.88697
2.87022
2.85429
2.84561
2.84466
2.84987
2.85596
2.85684
2.85343
2.8474
2.83538
2.81223
2.78345
2.76545
2.75937
2.75777
2.7644
2.79349
2.81629
2.81648
2.81135
2.79991
2.77605
2.73986
2.71418
2.70504
2.70185
2.7002
2.70245
2.70904
2.71184
2.71036
2.70482
2.68985
2.67062
2.6639
2.66197
2.65995
2.65905
2.66173
2.66296
2.66039
2.65689
2.65132
2.63732
2.61247
2.59441
2.59114
2.59479
2.32538
2.3053
2.27744
2.25609
2.24404
2.23369
2.22584
2.21836
2.21088
2.20475
2.19809
2.19053
2.18194
2.17293
2.16476
2.1556
2.14275
2.12296
2.09917
2.08249
2.07273
2.06613
2.06123
2.06006
2.05888
2.05393
2.04844
2.04296
2.0285
2.00884
2.00713
2.0274
2.09937
2.23493
2.44282
2.65772
2.84928
2.98554
3.04496
3.09409
3.11338
3.11275
3.11042
3.09882
3.0666
3.0501
3.05041
3.05329
3.0629
3.07366
3.07268
3.05892
3.03583
3.02024
3.01377
3.00884
3.00307
3.00003
2.99956
3.00058
3.00049
2.99358
2.9796
2.96226
2.95093
2.94366
2.93611
2.9279
2.92063
2.91623
2.91413
2.91275
2.91325
2.90931
2.90047
2.89184
2.88915
2.8874
2.88471
2.8803
2.87438
2.86879
2.86493
2.86115
2.85531
2.84722
2.83915
2.8356
2.83324
2.82878
2.81997
2.80545
2.7887
2.77333
2.7651
2.76392
2.77242
2.78893
2.8001
2.80154
2.79888
2.79094
2.76982
2.73962
2.71472
2.70176
2.69583
2.69395
2.69901
2.71594
2.72124
2.71912
2.71375
2.70161
2.68034
2.66033
2.65211
2.64969
2.64786
2.64829
2.65189
2.64955
2.64599
2.64283
2.63856
2.6277
2.60971
2.60161
2.59965
2.34435
2.32548
2.30229
2.28609
2.27581
2.26524
2.25237
2.23848
2.22564
2.21534
2.20729
2.19756
2.19111
2.18669
2.18292
2.17725
2.16912
2.15664
2.13426
2.10385
2.08407
2.0751
2.06965
2.06561
2.06391
2.06425
2.06227
2.05656
2.04826
2.03287
2.00925
1.9907
1.98451
1.98933
2.022
2.11142
2.26303
2.47892
2.69905
2.88256
2.97885
3.00752
3.03109
3.03629
3.03369
3.04293
3.05767
3.06326
3.07775
3.09121
3.08718
3.07776
3.06061
3.02732
2.99642
2.98376
2.97915
2.97715
2.97995
2.99035
2.99826
2.9938
2.98333
2.96727
2.94583
2.92841
2.92013
2.91523
2.91055
2.90793
2.91042
2.92052
2.92606
2.92064
2.90342
2.88026
2.86404
2.85771
2.85448
2.85357
2.85687
2.86355
2.87037
2.87249
2.86703
2.85367
2.83432
2.81933
2.8096
2.80199
2.79441
2.7898
2.78727
2.78428
2.78367
2.78784
2.78987
2.7875
2.78426
2.78161
2.777
2.7671
2.75069
2.73378
2.7203
2.70585
2.69556
2.69348
2.69942
2.70946
2.71195
2.71006
2.70698
2.70034
2.68334
2.6597
2.64631
2.64101
2.63913
2.63986
2.64512
2.64445
2.64114
2.639
2.6365
2.63351
2.62698
2.61487
2.59765
2.36049
2.34073
2.32439
2.3155
2.30725
2.2979
2.28562
2.26912
2.24952
2.22856
2.21384
2.20721
2.20223
2.19871
2.19725
2.19467
2.18914
2.18145
2.1689
2.14405
2.10901
2.08757
2.07923
2.07383
2.06991
2.07005
2.07155
2.0676
2.06209
2.05296
2.03554
2.00764
1.98259
1.97872
1.97565
1.97522
1.98514
2.02814
2.12187
2.26303
2.44913
2.6409
2.80761
2.88715
2.9317
2.97478
2.99865
3.03015
3.0681
3.08412
3.08563
3.08074
3.06869
3.03953
2.99837
2.97709
2.97333
2.97194
2.97743
2.99443
2.99759
2.98937
2.97863
2.96296
2.93606
2.914
2.90752
2.9046
2.90338
2.90571
2.92002
2.93438
2.93557
2.92959
2.91253
2.87841
2.84636
2.83224
2.82803
2.82625
2.8295
2.84774
2.86757
2.87149
2.86873
2.86062
2.84102
2.80982
2.78863
2.78056
2.77742
2.77573
2.7753
2.78403
2.79916
2.80307
2.79797
2.78624
2.77337
2.76267
2.75149
2.73816
2.72653
2.72037
2.71754
2.71398
2.70823
2.70444
2.70395
2.70371
2.70439
2.70336
2.70025
2.69309
2.67915
2.66168
2.64538
2.63695
2.63399
2.63355
2.63572
2.6399
2.64307
2.64215
2.64016
2.63758
2.63181
2.62153
2.59827
2.37417
2.35586
2.34697
2.33972
2.33222
2.32493
2.31632
2.3035
2.28022
2.24687
2.22575
2.21739
2.21145
2.20657
2.2046
2.20473
2.20177
2.19577
2.18806
2.17599
2.15389
2.12209
2.09806
2.0872
2.08091
2.07603
2.07287
2.07247
2.06975
2.06499
2.05751
2.0423
2.01628
1.98896
1.97369
1.96946
1.96884
1.96833
1.96971
1.98311
2.01989
2.09819
2.23052
2.42161
2.61913
2.77351
2.86173
2.92174
2.98394
3.01559
3.04435
3.05898
3.05621
3.03509
2.99958
2.98479
2.98241
2.98316
2.99325
3.00241
2.9964
2.98615
2.97221
2.95212
2.92511
2.90269
2.89357
2.88973
2.88975
2.90562
2.93042
2.9386
2.93653
2.93145
2.91951
2.88917
2.84623
2.82518
2.81941
2.81713
2.81893
2.83639
2.86061
2.86565
2.86327
2.85731
2.84143
2.8104
2.78281
2.77301
2.76982
2.76866
2.77705
2.80046
2.8105
2.80669
2.79841
2.78315
2.75985
2.73705
2.72198
2.71534
2.71285
2.71057
2.70964
2.71639
2.7235
2.72123
2.71151
2.69988
2.6929
2.68998
2.68569
2.67876
2.67058
2.66339
2.65452
2.64299
2.6348
2.63107
2.63009
2.63138
2.63159
2.63128
2.63111
2.62945
2.6262
2.61987
2.60149
2.38659
2.37495
2.36766
2.36077
2.35513
2.34993
2.34209
2.33091
2.31136
2.27743
2.24637
2.23263
2.2248
2.21843
2.21315
2.21005
2.20838
2.20484
2.19968
2.19299
2.18257
2.16373
2.13613
2.11051
2.09534
2.08664
2.08056
2.07558
2.0717
2.06987
2.0666
2.0601
2.04748
2.02599
1.99956
1.98132
1.97145
1.96672
1.96343
1.96259
1.96297
1.9641
1.97493
2.01127
2.09857
2.22956
2.41546
2.60761
2.78581
2.88553
2.9352
2.98261
2.99543
2.99111
2.98808
2.99049
2.98828
2.99597
3.00724
3.00485
2.99879
2.9917
2.97688
2.95204
2.92292
2.90059
2.89013
2.88522
2.88414
2.89203
2.9074
2.91754
2.92118
2.92067
2.91492
2.89495
2.85875
2.82855
2.81883
2.81655
2.82
2.83519
2.84593
2.84462
2.84163
2.83865
2.832
2.81204
2.78493
2.77305
2.7703
2.77238
2.79
2.80456
2.8023
2.79708
2.78866
2.77202
2.74133
2.71038
2.70015
2.69835
2.69788
2.7019
2.71271
2.73188
2.73891
2.73517
2.7236
2.70296
2.68275
2.67092
2.66511
2.66231
2.66128
2.66053
2.6587
2.65545
2.64952
2.63902
2.62735
2.62338
2.62209
2.62093
2.62093
2.61998
2.61721
2.6138
2.60264
2.40179
2.39274
2.38561
2.37925
2.37453
2.36969
2.36178
2.35249
2.33864
2.31322
2.28009
2.25694
2.24367
2.23349
2.22475
2.21789
2.21264
2.21007
2.208
2.20405
2.19818
2.18862
2.17281
2.14912
2.12183
2.10257
2.09196
2.08446
2.07838
2.07327
2.06863
2.0645
2.05917
2.04936
2.02945
2.00337
1.98627
1.97692
1.9692
1.96374
1.96069
1.95689
1.95827
1.95912
1.95428
1.95823
1.98771
2.06433
2.19352
2.38511
2.56948
2.75331
2.86093
2.90394
2.94579
2.95616
2.97373
2.98548
2.9857
2.99265
2.99565
2.99023
2.9754
2.95327
2.93293
2.9143
2.90085
2.895
2.89242
2.89426
2.89534
2.8913
2.89022
2.89095
2.88969
2.88267
2.86557
2.84803
2.83849
2.83464
2.83632
2.84338
2.84395
2.83848
2.83097
2.82227
2.81227
2.80136
2.78891
2.78118
2.77934
2.78607
2.79986
2.79959
2.79456
2.78877
2.77963
2.76053
2.72787
2.70057
2.68869
2.68524
2.68482
2.69289
2.72404
2.74839
2.74833
2.74256
2.7311
2.70752
2.67493
2.65558
2.64975
2.64793
2.64744
2.65071
2.65938
2.6642
2.66132
2.65102
2.63227
2.61533
2.60993
2.60805
2.60687
2.60708
2.60784
2.60625
2.60056
2.41732
2.40899
2.40142
2.39468
2.38935
2.38364
2.37625
2.36863
2.35876
2.34134
2.31598
2.2919
2.27271
2.25569
2.24079
2.22953
2.2212
2.2148
2.20949
2.20606
2.20382
2.19941
2.19174
2.17842
2.15774
2.13275
2.11098
2.09662
2.0876
2.08134
2.07652
2.07231
2.06801
2.06249
2.05112
2.02948
2.00239
1.98611
1.97859
1.97316
1.96855
1.96397
1.95971
1.95631
1.95224
1.95029
1.93783
1.91615
1.91558
1.94716
2.03279
2.17771
2.38479
2.59076
2.77956
2.87781
2.90918
2.94597
2.94688
2.94998
2.95747
2.95709
2.95247
2.94489
2.93732
2.93164
2.92776
2.92339
2.91764
2.90868
2.89629
2.88471
2.8762
2.87014
2.86437
2.85738
2.85259
2.8495
2.84744
2.84857
2.85027
2.84871
2.84281
2.83318
2.82133
2.81025
2.80009
2.79086
2.78569
2.78432
2.78767
2.79083
2.78765
2.78379
2.78103
2.77718
2.76873
2.74952
2.72095
2.69754
2.68619
2.68162
2.68156
2.69392
2.72168
2.73751
2.73783
2.73422
2.7256
2.70653
2.67572
2.65198
2.64393
2.6412
2.64086
2.6512
2.67062
2.67335
2.66895
2.65835
2.63698
2.61104
2.59801
2.59466
2.5928
2.5919
2.59423
2.59973
2.59833
2.43564
2.42594
2.41746
2.40996
2.4028
2.39521
2.38759
2.37982
2.37098
2.35863
2.34165
2.324
2.307
2.2879
2.26548
2.24492
2.23138
2.22229
2.21572
2.21044
2.20618
2.20274
2.19818
2.19177
2.18107
2.16582
2.14702
2.12594
2.10654
2.09305
2.08388
2.07613
2.06974
2.06472
2.05977
2.05022
2.03207
2.00984
1.99295
1.98279
1.97553
1.96972
1.96468
1.96077
1.95735
1.95243
1.94527
1.93209
1.91211
1.89059
1.88767
1.89772
1.94839
2.05878
2.22737
2.43671
2.62793
2.81118
2.89431
2.90131
2.9047
2.89608
2.89213
2.90222
2.91778
2.93713
2.93928
2.93483
2.92854
2.92175
2.91088
2.89152
2.87028
2.85957
2.8539
2.84876
2.84548
2.84519
2.85084
2.85233
2.84914
2.84159
2.83154
2.82049
2.80846
2.80057
2.79425
2.78951
2.78814
2.7913
2.79249
2.78723
2.77765
2.76761
2.76148
2.75608
2.74779
2.7348
2.71962
2.70808
2.69933
2.69449
2.69613
2.7071
2.71634
2.72039
2.72067
2.71793
2.7125
2.70027
2.67908
2.65716
2.64527
2.64195
2.64299
2.65333
2.66276
2.6624
2.65883
2.65112
2.63316
2.60727
2.5894
2.58264
2.58039
2.57943
2.58346
2.60058
2.60272
2.45547
2.44452
2.43441
2.42427
2.41495
2.40672
2.39877
2.39048
2.38132
2.37114
2.3596
2.34756
2.33566
2.32215
2.30394
2.27872
2.25267
2.23444
2.22259
2.21445
2.208
2.20228
2.19812
2.19497
2.19046
2.18335
2.17266
2.15858
2.13982
2.11735
2.09903
2.08729
2.07809
2.06955
2.06157
2.05468
2.04653
2.03326
2.0161
2.00047
1.98927
1.98067
1.97228
1.96377
1.95636
1.9512
1.94756
1.94247
1.93203
1.91079
1.88618
1.8807
1.87834
1.88063
1.90186
1.96586
2.07846
2.24585
2.4396
2.6119
2.77012
2.82096
2.82936
2.85423
2.86908
2.88995
2.90671
2.91622
2.92386
2.92054
2.91093
2.89324
2.8713
2.85494
2.8493
2.84789
2.84791
2.85183
2.85317
2.84736
2.83656
2.8227
2.80638
2.79277
2.78902
2.78805
2.78895
2.78958
2.79376
2.79713
2.79364
2.78622
2.77469
2.75896
2.74283
2.73045
2.72105
2.71562
2.71365
2.71147
2.71122
2.71588
2.71853
2.71465
2.70846
2.70466
2.70197
2.69788
2.69109
2.68197
2.67168
2.66205
2.65512
2.65242
2.65541
2.6583
2.65586
2.65221
2.64762
2.63935
2.62331
2.60101
2.58469
2.57685
2.57348
2.57303
2.57819
2.59132
2.59204
2.48329
2.46787
2.45379
2.44066
2.42867
2.41823
2.40892
2.39997
2.39061
2.38102
2.37115
2.36254
2.35464
2.34583
2.3343
2.31669
2.28929
2.25845
2.23724
2.22439
2.21462
2.20625
2.19931
2.19338
2.18914
2.18722
2.18324
2.17669
2.166
2.14845
2.12367
2.10118
2.08764
2.07821
2.07032
2.06342
2.05604
2.04657
2.03474
2.02058
2.00552
1.99245
1.9815
1.97158
1.96303
1.95601
1.95031
1.94588
1.94166
1.9331
1.91549
1.88964
1.8747
1.87331
1.87272
1.87223
1.87724
1.9012
1.96263
2.07157
2.23074
2.42482
2.59587
2.74432
2.79767
2.82729
2.86664
2.88115
2.88287
2.88256
2.87623
2.87284
2.86434
2.85249
2.84941
2.84932
2.85461
2.85912
2.85697
2.85066
2.83845
2.81786
2.79372
2.77378
2.76579
2.7641
2.76534
2.77661
2.79083
2.79277
2.78917
2.78365
2.7732
2.75153
2.72397
2.70915
2.70429
2.7023
2.70161
2.7049
2.71739
2.72511
2.72328
2.71579
2.70391
2.69263
2.68409
2.67594
2.66775
2.66173
2.65896
2.65866
2.66227
2.66512
2.66303
2.65617
2.64746
2.64064
2.63327
2.62213
2.60652
2.59235
2.58167
2.57376
2.56959
2.56955
2.57742
2.58651
2.58426
2.51202
2.49739
2.48138
2.46366
2.44645
2.43235
2.4209
2.41056
2.39919
2.38695
2.37911
2.37304
2.36803
2.36266
2.35563
2.34596
2.32956
2.29989
2.26083
2.2352
2.22226
2.21263
2.20483
2.19917
2.19423
2.19062
2.18901
2.18641
2.18102
2.17262
2.15697
2.1316
2.10562
2.08836
2.07622
2.06632
2.05923
2.05383
2.04787
2.03827
2.02367
2.00824
1.99612
1.98579
1.97516
1.965
1.9575
1.95224
1.94758
1.94256
1.93504
1.91759
1.8929
1.87987
1.87336
1.86844
1.8659
1.86264
1.86166
1.86855
1.89352
1.96147
2.08447
2.24796
2.43736
2.60097
2.76384
2.83215
2.8381
2.84481
2.83753
2.83122
2.82822
2.82102
2.82084
2.83291
2.85143
2.85742
2.85536
2.85222
2.84549
2.82793
2.79766
2.7689
2.75597
2.75171
2.75019
2.75245
2.76457
2.77435
2.77434
2.77136
2.76369
2.74352
2.71551
2.70101
2.69726
2.69575
2.69775
2.71089
2.72614
2.7264
2.72127
2.71055
2.69198
2.67141
2.65898
2.65349
2.65085
2.64935
2.6509
2.66035
2.67118
2.67223
2.66747
2.65696
2.64084
2.62404
2.61181
2.60173
2.59236
2.58483
2.58085
2.57689
2.57413
2.57411
2.57454
2.57443
2.57173
2.53594
2.52436
2.51116
2.49446
2.47377
2.45164
2.43295
2.41959
2.40819
2.39699
2.38954
2.38313
2.378
2.37505
2.37116
2.36444
2.35565
2.33994
2.30797
2.26394
2.23435
2.22007
2.21212
2.20609
2.2003
2.19613
2.19505
2.19389
2.18979
2.18417
2.17564
2.15838
2.13009
2.10463
2.08957
2.07944
2.07078
2.06276
2.05526
2.04754
2.03689
2.02185
2.00792
1.99801
1.98936
1.97988
1.96923
1.96065
1.95517
1.9506
1.9457
1.93735
1.91851
1.89364
1.88007
1.87302
1.86616
1.85843
1.85336
1.85307
1.85382
1.85531
1.86399
1.89081
1.96331
2.08205
2.25665
2.44499
2.59676
2.74421
2.79171
2.79298
2.80324
2.79148
2.78757
2.79782
2.80843
2.82962
2.8435
2.84394
2.83899
2.82598
2.8042
2.7783
2.75576
2.74666
2.74432
2.74483
2.74996
2.75516
2.75356
2.74989
2.74442
2.73089
2.70754
2.69455
2.69247
2.69256
2.70262
2.72171
2.726
2.7216
2.7139
2.70051
2.67691
2.64831
2.63587
2.63369
2.63276
2.63466
2.64589
2.66723
2.67557
2.6735
2.66846
2.65771
2.63419
2.6039
2.58674
2.58267
2.58117
2.57965
2.57949
2.58429
2.58563
2.58143
2.57376
2.56793
2.55986
2.55769
2.54747
2.53658
2.52353
2.5061
2.48254
2.45556
2.43046
2.41413
2.40535
2.39835
2.39197
2.38745
2.38586
2.38402
2.37893
2.37229
2.36326
2.34402
2.30196
2.25277
2.23069
2.22253
2.21689
2.21183
2.20663
2.20174
2.19918
2.19648
2.19144
2.18562
2.17374
2.14804
2.11769
2.10303
2.09568
2.08883
2.08153
2.07331
2.06324
2.04944
2.03148
2.01519
2.00471
1.99738
1.99056
1.98261
1.97348
1.96572
1.9599
1.95455
1.94823
1.93702
1.91656
1.89556
1.88327
1.8746
1.86615
1.85799
1.85316
1.85
1.84658
1.84703
1.84502
1.83842
1.84129
1.87013
1.95134
2.07802
2.25934
2.43669
2.58066
2.72487
2.75831
2.76308
2.78468
2.78336
2.79264
2.80671
2.80485
2.8034
2.80169
2.79608
2.7828
2.76593
2.75207
2.7459
2.74426
2.74498
2.74561
2.74217
2.73628
2.72834
2.71677
2.69939
2.68758
2.68606
2.69045
2.7045
2.71951
2.72034
2.71632
2.70949
2.69621
2.67112
2.64184
2.62455
2.61981
2.61867
2.62336
2.64716
2.6692
2.672
2.66881
2.66382
2.65404
2.6316
2.59774
2.57696
2.57066
2.56877
2.57071
2.58514
2.59405
2.59224
2.5861
2.57673
2.56489
2.54716
2.58138
2.57081
2.56037
2.54944
2.53554
2.51307
2.4776
2.44252
2.42478
2.4156
2.40802
2.40116
2.39628
2.39514
2.39706
2.39374
2.38725
2.37968
2.36721
2.33898
2.29282
2.25365
2.23497
2.22586
2.22012
2.21759
2.21452
2.20859
2.20218
2.19567
2.19006
2.18278
2.16662
2.13954
2.11624
2.10577
2.09961
2.09381
2.08736
2.07888
2.06652
2.04673
2.02566
2.012
2.00279
1.99508
1.9884
1.98117
1.97406
1.96856
1.96376
1.95823
1.94928
1.93298
1.91052
1.8935
1.88433
1.87702
1.86862
1.85981
1.85319
1.84896
1.84523
1.84094
1.83758
1.83358
1.82139
1.81171
1.81932
1.85829
1.9507
2.0853
2.27381
2.45226
2.5877
2.71886
2.76061
2.77157
2.78449
2.78179
2.77539
2.77141
2.76156
2.75656
2.75479
2.74998
2.74436
2.74243
2.74173
2.73963
2.73537
2.72964
2.72226
2.71146
2.69729
2.68248
2.67317
2.67163
2.67723
2.69061
2.70248
2.70523
2.70197
2.6924
2.67227
2.64361
2.62248
2.61609
2.61449
2.61687
2.62577
2.63883
2.64732
2.64948
2.64837
2.64421
2.62938
2.60014
2.5757
2.56818
2.5663
2.56906
2.5774
2.58176
2.58088
2.57837
2.57284
2.55828
2.53449
2.60044
2.59181
2.58387
2.57505
2.56302
2.54303
2.50719
2.46417
2.43925
2.42709
2.41779
2.40994
2.40387
2.40093
2.40259
2.40182
2.39666
2.39026
2.38008
2.36009
2.33051
2.29686
2.26674
2.2463
2.23509
2.22827
2.22277
2.21953
2.21536
2.2088
2.19789
2.18587
2.17534
2.16199
2.14565
2.12623
2.11007
2.10039
2.09354
2.08801
2.07954
2.06463
2.04598
2.02816
2.01356
2.00164
1.99449
1.99037
1.9863
1.98078
1.97506
1.9694
1.96185
1.94968
1.93045
1.90532
1.88783
1.87929
1.87407
1.86893
1.86268
1.85575
1.84971
1.84598
1.84273
1.83915
1.83158
1.81914
1.80321
1.78594
1.78404
1.79857
1.84836
1.96106
2.10649
2.29657
2.47177
2.60058
2.7175
2.75389
2.75409
2.75705
2.75132
2.7391
2.72942
2.71823
2.71535
2.71675
2.72003
2.72281
2.72467
2.72326
2.71921
2.71352
2.70448
2.68899
2.67238
2.66514
2.66329
2.66312
2.66745
2.67552
2.67895
2.67721
2.66929
2.65229
2.63337
2.62243
2.61837
2.61704
2.61869
2.62094
2.62319
2.62434
2.62347
2.62109
2.616
2.60409
2.58903
2.57818
2.57463
2.57515
2.57591
2.57409
2.57076
2.5661
2.55809
2.54126
2.52366
2.61236
2.6063
2.60081
2.5931
2.58305
2.56673
2.53868
2.50166
2.46973
2.44879
2.4344
2.42408
2.41672
2.41243
2.40901
2.40193
2.39396
2.38551
2.3766
2.36627
2.35039
2.32963
2.30534
2.27956
2.25964
2.24699
2.23689
2.22686
2.21657
2.20552
2.19283
2.18061
2.17408
2.17071
2.16496
2.15427
2.13737
2.11691
2.09892
2.08534
2.07753
2.07195
2.06315
2.05054
2.03573
2.02051
2.00753
1.99671
1.9863
1.97661
1.96894
1.96379
1.96047
1.95713
1.94858
1.9306
1.90589
1.88585
1.87358
1.86651
1.86192
1.85839
1.85518
1.85185
1.84773
1.84396
1.8399
1.83195
1.81427
1.78902
1.77331
1.76495
1.75948
1.76364
1.78719
1.85203
1.97731
2.12907
2.32127
2.48204
2.60525
2.69964
2.72615
2.72859
2.72765
2.7114
2.6978
2.69245
2.68195
2.67929
2.68537
2.69762
2.70842
2.71072
2.70761
2.69889
2.68705
2.67093
2.65803
2.65232
2.65028
2.64989
2.65198
2.65184
2.64848
2.64386
2.63738
2.63131
2.62658
2.62119
2.61463
2.61023
2.60762
2.60505
2.60219
2.59916
2.59613
2.59477
2.59254
2.59093
2.58792
2.58082
2.57244
2.56607
2.56048
2.55325
2.54077
2.52318
2.51462
2.62548
2.61732
2.60962
2.60176
2.59339
2.58029
2.55755
2.52911
2.50375
2.48261
2.46356
2.44689
2.43328
2.42362
2.41652
2.40915
2.40071
2.39025
2.37836
2.368
2.35993
2.35116
2.33884
2.31936
2.29042
2.26313
2.24657
2.2343
2.22242
2.20921
2.19524
2.18642
2.18032
2.17477
2.17005
2.16423
2.15455
2.13669
2.1122
2.09152
2.07941
2.07143
2.06565
2.06007
2.05176
2.0387
2.02242
2.00579
1.99131
1.98112
1.97406
1.96771
1.96119
1.95479
1.94958
1.94205
1.9248
1.89987
1.88146
1.87299
1.8678
1.86286
1.85839
1.8545
1.85253
1.85025
1.84647
1.84061
1.82803
1.80319
1.77599
1.76054
1.75285
1.74803
1.74496
1.74534
1.75429
1.78679
1.86785
2.00448
2.16734
2.34848
2.48699
2.61102
2.68153
2.69419
2.69743
2.6941
2.67373
2.66316
2.66311
2.66129
2.66694
2.682
2.69025
2.69087
2.68668
2.67578
2.6602
2.64772
2.64242
2.64063
2.63909
2.63745
2.6363
2.63563
2.63542
2.63204
2.62699
2.61877
2.6066
2.59758
2.59374
2.59134
2.58895
2.58693
2.58567
2.58577
2.59047
2.59476
2.59192
2.58261
2.56823
2.55496
2.54479
2.53397
2.52127
2.51112
2.50797
2.64751
2.63376
2.62118
2.6091
2.59748
2.58464
2.56714
2.54645
2.5294
2.51416
2.49639
2.47582
2.45645
2.43989
2.42669
2.41693
2.40608
2.39298
2.38084
2.37283
2.36625
2.36122
2.35526
2.34612
2.32833
2.29699
2.26427
2.24376
2.22772
2.21517
2.20759
2.20084
2.19304
2.18528
2.17794
2.17008
2.16008
2.1451
2.11987
2.09847
2.08918
2.08222
2.07471
2.06657
2.058
2.04766
2.03393
2.01887
2.00506
1.99201
1.98155
1.97382
1.96687
1.96011
1.95304
1.94515
1.93522
1.91874
1.89843
1.88536
1.87891
1.87384
1.86833
1.86212
1.85812
1.85505
1.8519
1.84737
1.83989
1.82229
1.79089
1.76659
1.7553
1.74893
1.74324
1.73925
1.73805
1.73705
1.73902
1.75351
1.79782
1.89345
2.0261
2.189
2.36281
2.48763
2.60105
2.65187
2.65866
2.66407
2.66351
2.65254
2.65403
2.66089
2.66233
2.65927
2.6579
2.65563
2.65019
2.64141
2.63491
2.6318
2.63036
2.62971
2.63254
2.63715
2.63521
2.62822
2.6181
2.60567
2.5889
2.57467
2.57197
2.57122
2.57107
2.57204
2.5756
2.58293
2.58946
2.58848
2.5841
2.57501
2.5591
2.5369
2.51823
2.50858
2.50495
2.50322
2.50295
2.67688
2.65904
2.64042
2.62226
2.60448
2.58767
2.57127
2.55976
2.55077
2.54081
2.52804
2.50976
2.48436
2.45849
2.43916
2.42432
2.40983
2.39637
2.38882
2.38276
2.37673
2.37093
2.36513
2.35851
2.34934
2.32845
2.28814
2.25252
2.23561
2.22757
2.22046
2.21258
2.20454
2.19649
2.18842
2.18061
2.17162
2.15398
2.12783
2.11255
2.10551
2.09859
2.0912
2.0836
2.07518
2.06391
2.04663
2.02503
2.00949
1.99859
1.98904
1.98148
1.97497
1.96928
1.96386
1.95779
1.94891
1.93227
1.90577
1.88399
1.87398
1.86886
1.86585
1.86498
1.86288
1.86016
1.85809
1.85453
1.84893
1.83587
1.80618
1.77558
1.76267
1.75534
1.7482
1.74176
1.73685
1.73379
1.73291
1.73283
1.73019
1.72995
1.74277
1.78723
1.89612
2.04189
2.21466
2.37463
2.48662
2.58078
2.62428
2.63262
2.65125
2.66273
2.6589
2.65431
2.64774
2.63577
2.62283
2.61241
2.609
2.60924
2.61153
2.61721
2.62848
2.63695
2.63623
2.63003
2.61906
2.60278
2.58033
2.55763
2.54495
2.54187
2.54165
2.54646
2.56298
2.5798
2.58241
2.58038
2.57622
2.56783
2.54854
2.51801
2.49628
2.49064
2.48891
2.48873
2.49594
2.7035
2.68677
2.66427
2.63915
2.61265
2.59077
2.581
2.57359
2.56672
2.55934
2.5504
2.53871
2.51955
2.48617
2.44656
2.42107
2.41021
2.40367
2.39763
2.39196
2.38724
2.38302
2.37801
2.37141
2.36357
2.34847
2.31104
2.26691
2.24935
2.2422
2.23568
2.22852
2.22073
2.21269
2.2034
2.19031
2.16986
2.14353
2.12871
2.12348
2.11805
2.11214
2.10609
2.09966
2.09224
2.08256
2.0667
2.03785
2.00887
1.99944
1.99519
1.99071
1.98515
1.98001
1.97526
1.96946
1.96032
1.943
1.91528
1.89043
1.87827
1.87228
1.8683
1.86507
1.86364
1.8669
1.8678
1.86428
1.85826
1.84701
1.82312
1.78927
1.76841
1.763
1.75975
1.75559
1.74983
1.74413
1.7389
1.73121
1.72385
1.7171
1.70382
1.69971
1.70565
1.73249
1.79797
1.9333
2.08489
2.24086
2.37539
2.49028
2.57741
2.62531
2.65315
2.65736
2.6528
2.63728
2.62053
2.6033
2.58719
2.57718