/*--------------------------------*- C++ -*----------------------------------*\
  =========                 |
  \\      /  F ield         | OpenFOAM: The Open Source CFD Toolbox
   \\    /   O peration     | Website:  https://openfoam.org
    \\  /    A nd           | Version:  7
     \\/     M anipulation  |
\*---------------------------------------------------------------------------*/
FoamFile
{
    version     2.0;
    format      ascii;
    class       volVectorField;
    location    "1.9";
    object      U;
}
// * * * * * * * * * * * * * * * * * * * * * * * * * * * * * * * * * * * * * //

dimensions      [0 1 -1 0 0 0 0];

internalField   nonuniform List<vector> 
4080
(
(3 2.99358e-17 0)
(3 2.25007e-17 0)
(3 -4.53154e-17 0)
(3 -1.83876e-16 0)
(3 -5.0618e-17 0)
(3 8.79777e-17 0)
(3 -2.97587e-16 0)
(3 -4.24173e-16 0)
(3 -3.48967e-16 0)
(3 -3.47577e-16 0)
(3 -1.19473e-16 0)
(3 1.26751e-16 0)
(3 4.48287e-16 0)
(3 2.68325e-16 0)
(3 3.91473e-16 0)
(3 6.10164e-16 0)
(3 5.30433e-16 0)
(2.64956 0.013124 0)
(0.874556 0.0302466 0)
(0.628329 0.0403637 0)
(0.525061 0.0494474 0)
(0.398745 0.0588895 0)
(0.256625 0.0661088 0)
(0.107114 0.0854178 0)
(3 -1.2201e-17 0)
(3 1.99341e-16 0)
(3 2.28636e-16 0)
(3 1.55994e-16 0)
(3 1.37231e-16 0)
(3 1.55007e-16 0)
(3 -9.78167e-17 0)
(3 1.89616e-17 0)
(3 -1.46653e-17 0)
(3 -7.59141e-16 0)
(3 -6.18751e-16 0)
(3 1.29977e-17 0)
(3 1.30275e-15 0)
(3 1.30521e-15 0)
(3 2.85473e-16 0)
(3 -1.80655e-16 0)
(3 -6.63606e-16 0)
(2.70219 0.0694308 0)
(0.883972 0.143959 0)
(0.606597 0.139652 0)
(0.498915 0.158248 0)
(0.37447 0.189818 0)
(0.236862 0.21807 0)
(0.091345 0.271975 0)
(3 1.04356e-16 0)
(3 4.13198e-16 0)
(3 7.99695e-16 0)
(3 1.00793e-15 0)
(3 8.78721e-16 0)
(3 1.19171e-16 0)
(3 7.71671e-17 0)
(3 2.70616e-16 0)
(3 -1.21421e-16 0)
(3 -1.20675e-15 0)
(3 -1.21983e-15 0)
(3 1.51126e-16 0)
(3 8.36929e-16 0)
(3 1.0814e-15 0)
(3 7.1247e-16 0)
(3 2.18406e-16 0)
(3 -4.27484e-17 0)
(2.86609 0.120292 0)
(0.976954 0.265254 0)
(0.654459 0.244538 0)
(0.5476 0.27257 0)
(0.434797 0.321002 0)
(0.297629 0.358775 0)
(0.149583 0.45432 0)
(3 2.95884e-17 0)
(3 8.37465e-19 0)
(3 3.72766e-16 0)
(3 5.04375e-16 0)
(3 7.40782e-16 0)
(3 8.71041e-16 0)
(3 8.0522e-16 0)
(3 3.01543e-16 0)
(3 -4.83482e-16 0)
(3 -6.15228e-16 0)
(3 -7.58343e-16 0)
(3 -1.91886e-16 0)
(3 1.75893e-16 0)
(3 5.451e-16 0)
(3 8.30187e-16 0)
(3 1.23792e-15 0)
(3 8.87807e-16 0)
(3.02854 0.0155909 0)
(1.16491 0.347984 0)
(0.752798 0.326326 0)
(0.649403 0.361924 0)
(0.54367 0.43347 0)
(0.359674 0.543497 0)
(0.196963 0.758234 0)
(3 -9.3127e-17 0)
(3 -7.30924e-16 0)
(3 -1.94113e-16 0)
(3 8.14915e-16 0)
(3 1.07238e-15 0)
(3 1.4814e-15 0)
(3 1.92917e-15 0)
(3 1.19354e-15 0)
(3 6.15291e-16 0)
(3 8.17716e-16 0)
(3 9.22445e-16 0)
(3 1.61342e-16 0)
(3 1.0324e-16 0)
(3 4.56322e-16 0)
(3 4.17957e-16 0)
(3 2.17543e-16 0)
(3 -6.0739e-16 0)
(3.00236 9.00499e-06 0)
(1.44616 0.401659 0)
(0.806342 0.428327 0)
(0.693264 0.471019 0)
(0.612414 0.578892 0)
(0.556288 0.75851 0)
(0.657692 1.0387 0)
(3 -5.82766e-17 0)
(3 -3.02388e-16 0)
(3 -1.99807e-16 0)
(3 6.42437e-16 0)
(3 1.32237e-15 0)
(3 8.17679e-16 0)
(3 8.15687e-16 0)
(3 7.76327e-16 0)
(3 4.07499e-16 0)
(3 5.76118e-16 0)
(3 8.4098e-16 0)
(3 5.73434e-16 0)
(3 2.9057e-18 0)
(3 3.1299e-16 0)
(3 4.96731e-16 0)
(3 1.88253e-16 0)
(3 -8.0096e-16 0)
(3.00001 -6.33824e-07 0)
(1.95763 0.452022 0)
(0.891161 0.541728 0)
(0.760919 0.556327 0)
(0.734303 0.655964 0)
(0.775021 0.786035 0)
(0.990769 0.919979 0)
(3 3.26654e-17 0)
(3 6.42685e-16 0)
(3 -6.52112e-17 0)
(3 -3.95659e-16 0)
(3 -2.37445e-16 0)
(3 -1.51303e-17 0)
(3 -9.04407e-17 0)
(3 4.47511e-16 0)
(3 4.38199e-16 0)
(3 -3.16758e-16 0)
(3 -4.27591e-16 0)
(3 -1.7975e-16 0)
(3 -6.52701e-17 0)
(3 -8.33355e-17 0)
(3 1.85035e-16 0)
(3 6.36705e-16 0)
(3 1.04986e-15 0)
(3 -7.34141e-07 0)
(2.75987 0.294826 0)
(1.10205 0.640933 0)
(0.890132 0.605208 0)
(0.879044 0.696849 0)
(0.958212 0.80648 0)
(1.20438 0.893041 0)
(3 7.70097e-17 0)
(3 3.11785e-16 0)
(3 2.92489e-16 0)
(3 -5.05908e-16 0)
(3 -1.04744e-15 0)
(3 -4.63454e-16 0)
(3 2.87797e-16 0)
(3 4.3136e-16 0)
(3 8.39885e-16 0)
(3 4.2026e-16 0)
(3 3.27024e-16 0)
(3 7.39349e-16 0)
(3 7.54832e-16 0)
(3 -2.28345e-17 0)
(3 5.60272e-16 0)
(3 1.11139e-15 0)
(3 2.6939e-15 0)
(3 -1.54219e-07 0)
(3.07065 0.0226313 0)
(1.50057 0.659206 0)
(1.01633 0.709424 0)
(1.01763 0.725861 0)
(1.08503 0.78765 0)
(1.2922 0.839138 0)
(3 4.01978e-17 0)
(3 -3.86463e-16 0)
(3 -2.18454e-16 0)
(3 -3.64588e-16 0)
(3 -5.44835e-16 0)
(3 -2.1952e-16 0)
(3 -1.27174e-16 0)
(3 -3.48119e-16 0)
(3 1.87062e-16 0)
(3 1.39205e-15 0)
(3 2.41255e-15 0)
(3 2.7065e-15 0)
(3 2.22398e-15 0)
(3 2.22064e-15 0)
(3 2.45344e-15 0)
(3 1.83175e-15 0)
(3 2.2525e-15 0)
(3 -1.5871e-08 0)
(3.00351 0.000132365 0)
(2.20943 0.582462 0)
(1.15376 0.806417 0)
(1.10465 0.798039 0)
(1.19124 0.814801 0)
(1.35541 0.827713 0)
(3 -1.39447e-16 0)
(3 -1.72112e-16 0)
(3 -3.08947e-16 0)
(3 -4.44299e-17 0)
(3 -3.8902e-16 0)
(3 -1.8514e-16 0)
(3 -5.59771e-16 0)
(3 -4.14869e-16 0)
(3 2.99307e-16 0)
(3 9.00085e-16 0)
(3 1.57321e-15 0)
(3 1.92117e-15 0)
(3 1.87138e-15 0)
(3 1.69988e-15 0)
(3 1.01941e-15 0)
(3 9.34321e-16 0)
(3 1.47686e-15 0)
(3 -5.09644e-10 0)
(3.00001 -5.19188e-08 0)
(3.04048 0.129341 0)
(1.54021 0.819061 0)
(1.20655 0.790235 0)
(1.29714 0.802304 0)
(1.42092 0.808791 0)
(3 -2.63276e-16 0)
(3 1.56788e-16 0)
(3 -2.95765e-17 0)
(3 2.8113e-16 0)
(3 1.52288e-18 0)
(3 -3.11588e-16 0)
(3 -6.33274e-17 0)
(3 6.82044e-16 0)
(3 8.6327e-16 0)
(3 1.40346e-15 0)
(3 1.0029e-15 0)
(3 4.44262e-16 0)
(3 7.5676e-16 0)
(3 5.15116e-16 0)
(3 5.48977e-17 0)
(3 -1.84218e-16 0)
(3 1.08407e-15 0)
(3 -1.23649e-12 0)
(3 -5.28106e-07 0)
(3.01569 0.00318789 0)
(2.23263 0.659355 0)
(1.3278 0.870885 0)
(1.33998 0.861579 0)
(1.45199 0.849405 0)
(3 4.25809e-17 0)
(3 3.68335e-16 0)
(3 5.32018e-16 0)
(3 4.31536e-16 0)
(3 1.83517e-16 0)
(3 -2.7745e-16 0)
(3 5.78438e-16 0)
(3 1.47404e-15 0)
(3 1.46718e-15 0)
(3 1.85642e-15 0)
(3 1.48292e-15 0)
(3 1.22603e-15 0)
(3 1.26523e-15 0)
(3 1.19742e-15 0)
(3 1.19479e-15 0)
(3 9.93303e-16 0)
(3 1.17033e-15 0)
(3 2.38778e-17 0)
(3 -1.11734e-07 0)
(3.00009 4.1954e-05 0)
(3.00757 0.143215 0)
(1.73978 0.860499 0)
(1.39236 0.867016 0)
(1.50637 0.852186 0)
(3 3.15061e-17 0)
(3 -9.43837e-17 0)
(3 3.23984e-16 0)
(3 4.28907e-16 0)
(3 4.67451e-16 0)
(3 3.99004e-16 0)
(3 4.90954e-16 0)
(3 1.11373e-15 0)
(3 1.0172e-15 0)
(3 1.1042e-16 0)
(3 3.84543e-17 0)
(3 7.95958e-16 0)
(3 8.58689e-16 0)
(3 8.36859e-16 0)
(3 6.60216e-16 0)
(3 9.19568e-16 0)
(3 9.07563e-16 0)
(3 2.20639e-16 0)
(3 -1.13365e-08 0)
(3 6.55603e-09 0)
(3.00935 0.00638344 0)
(2.56674 0.566527 0)
(1.55596 0.915651 0)
(1.54114 0.908845 0)
(3 -1.83417e-17 0)
(3 -7.13733e-17 0)
(3 -3.24877e-17 0)
(3 2.11139e-16 0)
(3 1.18408e-15 0)
(3 1.68969e-15 0)
(3 1.22722e-15 0)
(3 5.09569e-16 0)
(3 4.43968e-16 0)
(3 5.17663e-17 0)
(3 -6.46759e-17 0)
(3 1.62145e-16 0)
(3 5.97952e-17 0)
(3 2.11356e-16 0)
(3 2.8984e-16 0)
(3 1.00979e-16 0)
(3 1.37244e-16 0)
(3 1.61695e-16 0)
(3 -1.41717e-10 0)
(3 -1.20505e-09 0)
(3.00004 8.9994e-05 0)
(3.02535 0.0697338 0)
(2.08328 0.773033 0)
(1.62268 0.915597 0)
(3 1.04179e-16 0)
(3 3.07833e-16 0)
(3 4.6261e-16 0)
(3 1.70859e-16 0)
(3 7.60553e-16 0)
(3 1.21167e-15 0)
(3 1.18088e-15 0)
(3 6.89142e-16 0)
(3 4.65109e-16 0)
(3 8.24407e-16 0)
(3 1.53636e-15 0)
(3 1.57476e-15 0)
(3 9.99289e-16 0)
(3 4.47709e-16 0)
(3 3.17677e-16 0)
(3 -2.03746e-17 0)
(3 -1.65109e-16 0)
(3 2.55217e-16 0)
(3 -7.35622e-13 0)
(3 -2.60602e-10 0)
(3 8.40507e-08 0)
(3.00168 0.00335065 0)
(2.83653 0.287059 0)
(1.93007 0.863456 0)
(3 -2.69199e-16 0)
(3 -3.18762e-16 0)
(3 -1.02533e-18 0)
(3 -2.03811e-16 0)
(3 -4.33552e-16 0)
(3 -3.94664e-16 0)
(3 -2.30136e-16 0)
(3 4.01858e-16 0)
(3 4.23557e-16 0)
(3 1.04781e-15 0)
(3 8.89897e-16 0)
(3 7.24688e-16 0)
(3 7.53898e-16 0)
(3 1.21186e-15 0)
(3 7.62262e-16 0)
(3 5.56297e-16 0)
(3 4.71783e-17 0)
(3 -1.12144e-16 0)
(3 -8.89568e-16 0)
(3 -2.52496e-11 0)
(3 -3.84659e-12 0)
(3 1.95469e-05 0)
(3.00099 0.0225357 0)
(2.59488 0.499262 0)
(3 -5.35212e-17 0)
(3 -2.85266e-16 0)
(3 -4.56617e-16 0)
(3 -2.4577e-16 0)
(3 -9.01537e-16 0)
(3 -8.1359e-16 0)
(3 -5.81893e-16 0)
(3 1.52214e-16 0)
(3 5.42584e-16 0)
(3 4.28811e-16 0)
(3 1.86003e-16 0)
(3 1.43691e-16 0)
(3 2.64134e-16 0)
(3 4.1275e-16 0)
(3 4.14414e-16 0)
(3 1.05967e-16 0)
(3 -3.75376e-16 0)
(3 -4.109e-16 0)
(3 -3.84464e-17 0)
(3 -7.17941e-13 0)
(3 -1.25273e-12 0)
(3 1.56055e-08 0)
(2.99995 0.000514935 0)
(2.97762 0.0703768 0)
(3 -3.64648e-18 0)
(3 2.89119e-16 0)
(3 1.31362e-16 0)
(3 -1.81154e-17 0)
(3 -6.28207e-16 0)
(3 -2.22497e-16 0)
(3 6.20021e-17 0)
(3 -1.16461e-16 0)
(3 3.37273e-16 0)
(3 3.99678e-16 0)
(3 3.3148e-16 0)
(3 -3.13145e-16 0)
(3 -4.5766e-16 0)
(3 -9.15959e-16 0)
(3 -5.0398e-16 0)
(3 -1.34811e-16 0)
(3 -8.03443e-17 0)
(3 -2.51817e-16 0)
(3 1.8857e-16 0)
(3 -2.34463e-15 0)
(3 -3.58478e-13 0)
(3 5.04497e-12 0)
(3 1.22059e-06 0)
(2.99953 0.00291398 0)
(3 1.18906e-17 0)
(3 3.2775e-16 0)
(3 6.0834e-16 0)
(3 5.43856e-16 0)
(3 3.07859e-16 0)
(3 -3.06159e-16 0)
(3 -4.77518e-16 0)
(3 -2.54071e-16 0)
(3 1.86255e-16 0)
(3 4.23064e-16 0)
(3 -9.46473e-18 0)
(3 -8.51818e-16 0)
(3 -1.57683e-15 0)
(3 -1.5073e-15 0)
(3 -1.19806e-15 0)
(3 -4.6722e-16 0)
(3 3.07589e-16 0)
(3 6.88356e-16 0)
(3 8.97614e-16 0)
(3 1.11016e-15 0)
(3 -3.92924e-14 0)
(3 -4.01217e-14 0)
(3 1.01115e-09 0)
(2.99999 1.59353e-05 0)
(3 2.25282e-16 0)
(3 2.57331e-17 0)
(3 -3.45767e-16 0)
(3 -3.26317e-16 0)
(3 3.12899e-16 0)
(3 2.85078e-16 0)
(3 -8.0811e-17 0)
(3 -8.44102e-17 0)
(3 -6.68283e-17 0)
(3 4.1625e-16 0)
(3 1.17877e-15 0)
(3 8.5984e-16 0)
(3 1.48524e-16 0)
(3 1.23532e-16 0)
(3 -7.92468e-16 0)
(3 -1.10721e-15 0)
(3 3.60316e-17 0)
(3 5.23866e-16 0)
(3 5.3337e-16 0)
(3 1.44123e-16 0)
(3 -1.6303e-15 0)
(3 -1.61864e-14 0)
(3 1.40923e-13 0)
(3 2.07422e-08 0)
(3 4.40416e-17 0)
(3 -3.18282e-16 0)
(3 -3.12274e-16 0)
(3 -2.55366e-16 0)
(3 1.64633e-16 0)
(3 1.16111e-15 0)
(3 1.54152e-15 0)
(3 8.8305e-16 0)
(3 3.27875e-16 0)
(3 1.22484e-16 0)
(3 3.69591e-16 0)
(3 4.62182e-16 0)
(3 6.0266e-16 0)
(3 1.21475e-15 0)
(3 9.91583e-16 0)
(3 3.31464e-16 0)
(3 9.43834e-17 0)
(3 -4.67279e-16 0)
(3 -6.71254e-16 0)
(3 -8.56781e-16 0)
(3 -1.34931e-15 0)
(3 -3.80797e-15 0)
(3 -4.12983e-15 0)
(3 7.02242e-12 0)
(3 7.27257e-17 0)
(3 2.16729e-16 0)
(3 6.75792e-16 0)
(3 1.13972e-15 0)
(3 5.03679e-16 0)
(3 2.00855e-16 0)
(3 -1.46129e-16 0)
(3 -6.12869e-16 0)
(3 -1.46652e-15 0)
(3 -2.01804e-15 0)
(3 -2.00308e-15 0)
(3 -9.99345e-16 0)
(3 2.75208e-16 0)
(3 1.46207e-15 0)
(3 1.56945e-15 0)
(3 1.10038e-15 0)
(3 1.09205e-16 0)
(3 -3.2605e-16 0)
(3 1.11536e-16 0)
(3 -4.11383e-16 0)
(3 -9.04827e-16 0)
(3 -1.14396e-15 0)
(3 -2.19263e-15 0)
(3 -2.21528e-15 0)
(3 -1.96996e-16 0)
(3 -7.48673e-17 0)
(3 -1.90248e-16 0)
(3 -1.24973e-16 0)
(3 -3.42314e-16 0)
(3 -8.90624e-16 0)
(3 -1.87827e-15 0)
(3 -2.51977e-15 0)
(3 -2.68923e-15 0)
(3 -3.07043e-15 0)
(3 -2.93289e-15 0)
(3 -2.07729e-15 0)
(3 -3.11184e-17 0)
(3 4.68558e-16 0)
(3 4.06786e-16 0)
(3 6.76364e-16 0)
(3 2.52315e-16 0)
(3 2.40641e-17 0)
(3 -1.3537e-16 0)
(3 -1.22406e-15 0)
(3 -1.87841e-15 0)
(3 -1.78339e-15 0)
(3 -1.5479e-15 0)
(3 -1.20681e-15 0)
(3 -1.286e-16 0)
(3 -6.55242e-16 0)
(3 -8.95855e-16 0)
(3 -8.8321e-16 0)
(3 -5.40177e-16 0)
(3 -7.57829e-16 0)
(3 -1.54649e-15 0)
(3 -1.32707e-15 0)
(3 -9.78292e-16 0)
(3 -1.29796e-15 0)
(3 -1.50416e-15 0)
(3 2.15122e-16 0)
(3 7.2317e-16 0)
(3 -3.12573e-16 0)
(3 -1.8724e-18 0)
(3 -7.76661e-16 0)
(3 -5.05956e-16 0)
(3 -2.787e-16 0)
(3 -4.62742e-16 0)
(3 -1.76227e-15 0)
(3 -2.08075e-15 0)
(3 -2.32939e-15 0)
(3 -1.83315e-15 0)
(3 -8.19707e-16 0)
(3 2.01693e-16 0)
(3 8.34078e-17 0)
(3 -2.14074e-16 0)
(3 -4.06156e-16 0)
(3 -4.36375e-16 0)
(3 -6.06832e-16 0)
(3 -7.96892e-16 0)
(3 -7.42143e-16 0)
(3 -1.00207e-15 0)
(3 -1.04793e-15 0)
(3 -8.07145e-16 0)
(3 -3.27681e-17 0)
(3 9.05747e-16 0)
(3 -1.22942e-16 0)
(3 -9.50666e-16 0)
(3 -1.61863e-15 0)
(3 -1.0833e-15 0)
(3 -5.47207e-16 0)
(3 -8.78601e-16 0)
(3 -1.23592e-15 0)
(3 -1.05884e-15 0)
(3 -4.05211e-16 0)
(3 -2.66927e-16 0)
(3 -4.41564e-16 0)
(3 4.47324e-18 0)
(3 -7.35133e-17 0)
(3 -1.34666e-16 0)
(3 2.97672e-16 0)
(3 1.40962e-16 0)
(3 -3.25522e-16 0)
(3 -2.66187e-16 0)
(3 1.94485e-16 0)
(3 -7.0641e-16 0)
(3 -3.41534e-17 0)
(3 8.62724e-17 0)
(3 3.55788e-17 0)
(3 1.38937e-16 0)
(3 1.28953e-16 0)
(3 -4.22026e-16 0)
(3 -4.64554e-16 0)
(3 -5.40068e-16 0)
(3 -1.31028e-15 0)
(3 -1.31764e-15 0)
(3 -1.01588e-15 0)
(3 7.91262e-17 0)
(3 4.85097e-16 0)
(3 5.11183e-16 0)
(3 2.25966e-16 0)
(3 -4.32702e-17 0)
(3 1.34894e-16 0)
(3 3.62376e-16 0)
(3 1.19097e-16 0)
(3 -8.16087e-17 0)
(3 -1.42683e-16 0)
(3 2.82732e-16 0)
(3 6.03366e-16 0)
(3 8.23532e-16 0)
(3 6.64602e-16 0)
(3 8.43793e-16 0)
(3 4.33539e-16 0)
(3 -1.2748e-15 0)
(3 -6.40143e-16 0)
(3 8.94334e-16 0)
(3 1.40874e-15 0)
(3 8.37835e-16 0)
(3 5.98677e-16 0)
(3 6.78158e-16 0)
(3 6.01162e-16 0)
(3 4.44527e-16 0)
(3 -1.40778e-16 0)
(3 -2.67679e-16 0)
(3 -3.62595e-16 0)
(3 1.14592e-16 0)
(3 5.97597e-17 0)
(3 5.70408e-17 0)
(3 -2.33596e-16 0)
(3 -1.1151e-16 0)
(3 6.07289e-16 0)
(3 1.3426e-15 0)
(3 1.44464e-15 0)
(3 1.26548e-15 0)
(3 5.76807e-16 0)
(3 -1.83472e-17 0)
(3 -6.57622e-16 0)
(3 -1.55706e-15 0)
(3 -5.65665e-16 0)
(3 3.10017e-16 0)
(3 1.65684e-15 0)
(3 1.89331e-15 0)
(3 1.87292e-15 0)
(3 1.70026e-15 0)
(3 6.31732e-16 0)
(3 -1.81361e-16 0)
(3 -1.66054e-16 0)
(3 -7.23135e-16 0)
(3 -1.22144e-15 0)
(3 6.51955e-17 0)
(3 7.48807e-17 0)
(3 3.77816e-16 0)
(3 2.93725e-16 0)
(3 6.5318e-16 0)
(3 1.27854e-15 0)
(3 1.66213e-15 0)
(3 1.25002e-15 0)
(3 5.97047e-16 0)
(3 9.84628e-16 0)
(3 -3.6655e-16 0)
(3 -1.22192e-15 0)
(3 -9.51264e-16 0)
(3 -4.31495e-16 0)
(3 -2.04499e-16 0)
(3 1.0938e-15 0)
(3 2.42608e-15 0)
(3 2.1647e-15 0)
(3 4.16995e-16 0)
(3 -5.25066e-16 0)
(3 -3.58616e-16 0)
(3 -6.71036e-16 0)
(3 -1.3964e-15 0)
(3 -1.52965e-15 0)
(3 8.59069e-17 0)
(3 2.71111e-16 0)
(3 4.38973e-16 0)
(3 8.07483e-16 0)
(3 9.60092e-16 0)
(3 7.85344e-16 0)
(3 5.54708e-16 0)
(3 3.23418e-16 0)
(3 2.27111e-16 0)
(3 8.38514e-16 0)
(3 6.43148e-16 0)
(3 3.46699e-16 0)
(3 1.08161e-15 0)
(3 1.28681e-15 0)
(3 7.45316e-16 0)
(3 9.03003e-17 0)
(3 -4.20707e-16 0)
(3 -8.69025e-16 0)
(3 -4.66671e-16 0)
(3 2.56219e-17 0)
(3 -4.1765e-16 0)
(3 -6.49871e-16 0)
(3 -6.83316e-16 0)
(3 -3.42256e-16 0)
(3 7.66001e-17 0)
(3 -5.24891e-17 0)
(3 -2.47871e-16 0)
(3 3.1081e-17 0)
(3 1.31992e-16 0)
(3 1.29122e-16 0)
(3 -4.28826e-16 0)
(3 -3.70727e-16 0)
(3 5.75282e-16 0)
(3 4.31291e-16 0)
(3 8.42298e-16 0)
(3 1.68129e-15 0)
(3 1.73885e-15 0)
(3 1.90246e-15 0)
(3 1.31828e-15 0)
(3 -5.35939e-16 0)
(3 -1.47862e-15 0)
(3 -1.61345e-15 0)
(3 -1.26956e-15 0)
(3 -5.61563e-16 0)
(3 -1.14507e-15 0)
(3 -9.35433e-16 0)
(3 1.34916e-16 0)
(3 7.20403e-16 0)
(3 7.30242e-17 0)
(3 2.25083e-16 0)
(3 2.50165e-16 0)
(3 -1.66264e-16 0)
(3 -2.83014e-16 0)
(3 9.87214e-17 0)
(3 1.55877e-16 0)
(3 -8.61654e-17 0)
(3 1.4734e-16 0)
(3 6.11417e-16 0)
(3 1.14646e-15 0)
(3 1.49776e-15 0)
(3 1.32584e-15 0)
(3 3.4443e-16 0)
(3 6.01581e-16 0)
(3 -3.80378e-17 0)
(3 -7.77515e-16 0)
(3 -6.86791e-16 0)
(3 -6.27688e-16 0)
(3 -8.68529e-16 0)
(3 -1.77827e-15 0)
(3 -2.45744e-15 0)
(3 -7.31043e-16 0)
(3 -1.97528e-16 0)
(3 -3.23415e-17 0)
(3 -2.40251e-16 0)
(3 -7.71195e-17 0)
(3 1.11538e-16 0)
(3 2.25834e-16 0)
(3 3.44152e-16 0)
(3 4.31453e-16 0)
(3 7.7601e-16 0)
(3 8.16948e-16 0)
(3 1.03993e-15 0)
(3 1.11804e-15 0)
(3 7.88786e-16 0)
(3 9.95228e-16 0)
(3 7.30978e-16 0)
(3 -2.22701e-16 0)
(3 -1.37112e-15 0)
(3 -1.69659e-15 0)
(3 -1.59255e-15 0)
(3 -1.26794e-15 0)
(3 -1.07341e-15 0)
(3 -5.44555e-16 0)
(3 -8.38629e-16 0)
(3 -4.0934e-17 0)
(3 3.49023e-16 0)
(3 -2.23543e-16 0)
(3 -3.23429e-16 0)
(3 -5.62781e-16 0)
(3 -8.19688e-16 0)
(3 2.40229e-16 0)
(3 1.33253e-16 0)
(3 1.74222e-17 0)
(3 1.25981e-16 0)
(3 2.92548e-16 0)
(3 -2.63169e-17 0)
(3 -3.24755e-16 0)
(3 -3.406e-16 0)
(3 -4.311e-17 0)
(3 -9.06838e-17 0)
(3 -1.24235e-15 0)
(3 -1.56989e-15 0)
(3 -1.46528e-15 0)
(3 -1.6175e-15 0)
(3 -1.51263e-15 0)
(3 -5.08472e-16 0)
(3 2.08679e-16 0)
(3 5.17282e-16 0)
(3 7.73905e-16 0)
(3 6.21791e-16 0)
(3 -1.03206e-16 0)
(3 3.52342e-17 0)
(3 -8.66618e-17 0)
(3 1.14481e-16 0)
(3 2.24811e-16 0)
(3 -5.69818e-16 0)
(3 -9.01964e-16 0)
(3 -1.05452e-15 0)
(3 -1.0223e-15 0)
(3 -7.44549e-16 0)
(3 -7.7442e-16 0)
(3 -8.09305e-16 0)
(3 -7.57101e-16 0)
(3 -1.9139e-15 0)
(3 -2.15134e-15 0)
(3 -2.25474e-15 0)
(3 -1.69883e-15 0)
(3 -1.45108e-15 0)
(3 -1.06052e-15 0)
(3 -7.75162e-16 0)
(3 -1.01234e-16 0)
(3 5.5684e-16 0)
(3 1.46037e-15 0)
(3 5.28022e-16 0)
(3 1.75064e-17 0)
(3 -1.77796e-16 0)
(3 -1.44845e-16 0)
(3 1.89282e-16 0)
(3 -3.66267e-16 0)
(3 -1.10598e-15 0)
(3 -1.25686e-15 0)
(3 -9.53282e-16 0)
(3 -1.19624e-15 0)
(3 -1.47569e-15 0)
(3 -1.48372e-15 0)
(3 -1.67571e-15 0)
(3 -2.32694e-15 0)
(3 -2.03567e-15 0)
(3 -1.70092e-15 0)
(3 -1.50568e-15 0)
(3 -9.98488e-16 0)
(3 -1.13957e-15 0)
(3 -1.21632e-15 0)
(3 -8.33025e-16 0)
(3 4.38329e-16 0)
(3 8.2652e-16 0)
(3 1.61597e-15 0)
(3 1.81647e-15 0)
(3 2.7491e-16 0)
(3 1.96369e-17 0)
(3 -1.311e-16 0)
(3 -4.97988e-16 0)
(3 -1.17798e-15 0)
(3 -6.75869e-16 0)
(3 -5.04766e-16 0)
(3 -9.3866e-16 0)
(3 -1.79352e-15 0)
(3 -2.40267e-15 0)
(3 -2.71049e-15 0)
(3 -3.42601e-15 0)
(3 -3.78454e-15 0)
(3 -3.39338e-15 0)
(3 -1.12811e-15 0)
(3 1.62245e-16 0)
(3 -1.22613e-16 0)
(3 -9.39657e-16 0)
(3 -1.39257e-15 0)
(3 -4.25195e-16 0)
(3 4.889e-16 0)
(3 9.66614e-16 0)
(3 1.4426e-15 0)
(3 1.59416e-15 0)
(3 3.1426e-17 0)
(3 2.40482e-16 0)
(3 1.20927e-17 0)
(3 -2.90784e-16 0)
(3 -6.40699e-16 0)
(3 -5.07916e-16 0)
(3 -3.31709e-16 0)
(3 -9.70324e-16 0)
(3 -1.06812e-15 0)
(3 -7.6222e-16 0)
(3 -6.28607e-16 0)
(3 -1.45404e-15 0)
(3 -2.17586e-15 0)
(3 -2.21754e-15 0)
(3 -1.00589e-15 0)
(3 -7.96003e-16 0)
(3 -7.91658e-16 0)
(3 -7.54292e-16 0)
(3 -6.65352e-16 0)
(3 4.21966e-16 0)
(3 1.78784e-15 0)
(3 2.32492e-15 0)
(3 1.71522e-15 0)
(3 1.02936e-15 0)
(3 6.07156e-17 0)
(3 8.08444e-16 0)
(3 5.79785e-16 0)
(3 -2.83077e-16 0)
(3 -7.81881e-16 0)
(3 -1.11443e-15 0)
(3 -7.78144e-16 0)
(3 -2.93681e-16 0)
(3 -1.96747e-16 0)
(3 4.12808e-16 0)
(3 9.04539e-16 0)
(3 2.62132e-16 0)
(3 -6.01297e-16 0)
(3 -7.58441e-16 0)
(3 -1.1024e-15 0)
(3 -1.11477e-15 0)
(3 -2.36859e-16 0)
(3 4.14044e-16 0)
(3 4.08751e-16 0)
(3 1.23462e-15 0)
(3 1.31223e-15 0)
(3 1.28699e-15 0)
(3 1.22042e-15 0)
(3 1.23484e-15 0)
(3 2.74631e-16 0)
(3 7.8477e-16 0)
(3 2.19326e-16 0)
(3 8.10555e-17 0)
(3 -2.54025e-16 0)
(3 -6.77382e-16 0)
(3 -4.32535e-16 0)
(3 5.87223e-18 0)
(3 2.59201e-16 0)
(3 5.45057e-16 0)
(3 2.19714e-16 0)
(3 -1.88872e-16 0)
(3 -2.59574e-16 0)
(3 -4.04457e-16 0)
(3 -6.55466e-16 0)
(3 -5.82841e-16 0)
(3 5.38752e-16 0)
(3 7.57213e-16 0)
(3 6.00092e-16 0)
(3 5.84614e-16 0)
(3 2.87746e-16 0)
(3 1.87359e-16 0)
(3 7.03429e-16 0)
(3 1.03143e-15 0)
(1.5932 1.03387 0)
(2.377 1.14692 0)
(1.35631 0.792568 0)
(0.422145 0.374077 0)
(0.281036 0.131961 0)
(0.219666 0.0435841 0)
(0.174954 0.0487858 0)
(0.111305 0.0545686 0)
(0.0549115 0.0417447 0)
(0.0176483 0.0188862 0)
(-0.00204235 0.00468179 0)
(0.000130192 -0.00354607 0)
(1.70536 0.832777 0)
(2.42897 0.578462 0)
(1.86997 0.330202 0)
(0.991332 0.274227 0)
(0.728162 0.105315 0)
(0.51945 0.0573917 0)
(0.36234 0.0768604 0)
(0.242623 0.0909068 0)
(0.150749 0.0794265 0)
(0.081965 0.0447314 0)
(0.0381724 0.0125758 0)
(0.0216447 -0.00880695 0)
(1.61488 0.868302 0)
(2.1537 0.626588 0)
(2.09668 0.53971 0)
(1.57642 0.650111 0)
(1.22197 0.545529 0)
(0.960871 0.440931 0)
(0.686778 0.368552 0)
(0.501785 0.285218 0)
(0.368144 0.217424 0)
(0.270304 0.132088 0)
(0.184847 0.0605633 0)
(0.104706 0.0744445 0)
(1.58015 0.814958 0)
(1.92206 0.683988 0)
(2.12177 0.540725 0)
(1.97077 0.605978 0)
(1.57857 0.675326 0)
(1.43868 0.598578 0)
(1.22374 0.474918 0)
(1.01645 0.355395 0)
(0.825693 0.283722 0)
(0.656517 0.21927 0)
(0.44734 0.202208 0)
(0.246343 0.378019 0)
(1.55976 0.806975 0)
(1.80676 0.720907 0)
(2.04803 0.584124 0)
(2.0371 0.586216 0)
(1.87861 0.6674 0)
(1.62784 0.715416 0)
(1.51757 0.679807 0)
(1.40685 0.61327 0)
(1.2418 0.553137 0)
(1.06013 0.47888 0)
(0.886561 0.436075 0)
(0.861313 0.605848 0)
(1.57628 0.791449 0)
(1.7645 0.739649 0)
(1.97885 0.634376 0)
(2.06058 0.57837 0)
(1.98098 0.612922 0)
(1.81104 0.708474 0)
(1.63381 0.72224 0)
(1.61874 0.69571 0)
(1.55013 0.656866 0)
(1.44185 0.614437 0)
(1.35485 0.551753 0)
(1.3516 0.514517 0)
(1.57424 0.827761 0)
(1.71505 0.785458 0)
(1.89591 0.699994 0)
(2.03171 0.617481 0)
(2.01261 0.621558 0)
(1.9005 0.673121 0)
(1.70913 0.736675 0)
(1.68619 0.736732 0)
(1.67351 0.717739 0)
(1.63473 0.706721 0)
(1.62088 0.669863 0)
(1.62175 0.628797 0)
(1.60128 0.829779 0)
(1.71467 0.789807 0)
(1.85123 0.733042 0)
(2.00776 0.643136 0)
(2.03913 0.610652 0)
(1.98892 0.636406 0)
(1.82385 0.711527 0)
(1.71151 0.74341 0)
(1.71052 0.740982 0)
(1.70147 0.739 0)
(1.72186 0.718169 0)
(1.74685 0.690312 0)
(1.62088 0.87081 0)
(1.71328 0.830233 0)
(1.81599 0.781091 0)
(1.95192 0.703326 0)
(2.04979 0.634175 0)
(2.0129 0.648776 0)
(1.90742 0.697336 0)
(1.77587 0.753901 0)
(1.73682 0.754784 0)
(1.72913 0.753275 0)
(1.74674 0.741493 0)
(1.77965 0.722421 0)
(1.6583 0.896651 0)
(1.73519 0.857251 0)
(1.82927 0.802312 0)
(1.92133 0.749965 0)
(2.04922 0.666339 0)
(2.05226 0.646351 0)
(2.00294 0.668624 0)
(1.88269 0.734322 0)
(1.77456 0.767528 0)
(1.7591 0.767868 0)
(1.76511 0.757236 0)
(1.79119 0.74004 0)
(1.69889 0.928583 0)
(1.7499 0.900129 0)
(1.83072 0.854488 0)
(1.91684 0.796339 0)
(2.0172 0.733264 0)
(2.08705 0.671899 0)
(2.04475 0.68451 0)
(1.96594 0.719859 0)
(1.85042 0.778674 0)
(1.78765 0.782554 0)
(1.78587 0.774468 0)
(1.79852 0.76234 0)
(1.8948 0.919692 0)
(1.76575 0.928091 0)
(1.82229 0.89864 0)
(1.91702 0.838919 0)
(1.99098 0.787931 0)
(2.1029 0.705155 0)
(2.09282 0.691735 0)
(2.0459 0.707448 0)
(1.96135 0.761732 0)
(1.83463 0.794209 0)
(1.82154 0.79119 0)
(1.82235 0.778062 0)
(2.44127 0.637373 0)
(1.88848 0.932215 0)
(1.84073 0.930691 0)
(1.89482 0.892826 0)
(1.98352 0.825331 0)
(2.06886 0.769164 0)
(2.13554 0.709265 0)
(2.09538 0.718228 0)
(2.04121 0.74182 0)
(1.93256 0.799031 0)
(1.86221 0.807303 0)
(1.85385 0.798374 0)
(2.92592 0.152747 0)
(2.34487 0.709351 0)
(1.92556 0.927734 0)
(1.90933 0.928417 0)
(1.96888 0.880385 0)
(2.03861 0.824113 0)
(2.14836 0.739586 0)
(2.14002 0.729742 0)
(2.10379 0.740842 0)
(2.03403 0.780564 0)
(1.91868 0.821554 0)
(1.89944 0.820035 0)
(2.99775 0.00879122 0)
(2.86004 0.237086 0)
(2.29971 0.745156 0)
(1.97903 0.924297 0)
(1.97017 0.92412 0)
(2.02795 0.873197 0)
(2.10344 0.814621 0)
(2.18255 0.743748 0)
(2.14873 0.747738 0)
(2.11129 0.764956 0)
(2.0324 0.813683 0)
(1.93981 0.836496 0)
(2.99997 9.38733e-05 0)
(2.9942 0.0171654 0)
(2.80185 0.300114 0)
(2.29553 0.761355 0)
(2.02969 0.918378 0)
(2.02377 0.917731 0)
(2.08077 0.867726 0)
(2.16445 0.8049 0)
(2.19226 0.757665 0)
(2.15608 0.768515 0)
(2.10295 0.791976 0)
(2.02193 0.844387 0)
(3 1.75979e-07 0)
(2.9999 0.000289907 0)
(2.98946 0.0256121 0)
(2.76642 0.338565 0)
(2.30977 0.763447 0)
(2.07661 0.909784 0)
(2.07458 0.907996 0)
(2.12455 0.867204 0)
(2.21156 0.789074 0)
(2.19995 0.779319 0)
(2.16723 0.790557 0)
(2.11116 0.822843 0)
(3 1.045e-10 0)
(3 7.15929e-07 0)
(2.9998 0.000573782 0)
(2.98505 0.0323088 0)
(2.75181 0.354385 0)
(2.33541 0.755928 0)
(2.12152 0.898206 0)
(2.12144 0.895848 0)
(2.16434 0.861938 0)
(2.23418 0.793099 0)
(2.21089 0.795312 0)
(2.17955 0.809627 0)
(3 8.57807e-15 0)
(3 6.08579e-10 0)
(3 1.74433e-06 0)
(2.99969 0.000844021 0)
(2.98216 0.0360757 0)
(2.75519 0.351524 0)
(2.37045 0.739334 0)
(2.16341 0.884276 0)
(2.1654 0.881817 0)
(2.19742 0.855379 0)
(2.25143 0.806921 0)
(2.21395 0.808451 0)
(3 -7.79254e-16 0)
(3 7.2743e-14 0)
(3 1.84303e-09 0)
(3 2.9816e-06 0)
(2.99962 0.00100162 0)
(2.9814 0.0365637 0)
(2.773 0.332474 0)
(2.41019 0.713989 0)
(2.20334 0.869757 0)
(2.20257 0.869425 0)
(2.2318 0.849167 0)
(2.2464 0.817966 0)
(3 -6.67378e-16 0)
(3 -1.08529e-15 0)
(3 2.79916e-13 0)
(3 3.55798e-09 0)
(3 3.88674e-06 0)
(2.9996 0.00101104 0)
(2.9829 0.033533 0)
(2.79819 0.303199 0)
(2.45033 0.681295 0)
(2.24937 0.849672 0)
(2.23956 0.857137 0)
(2.25001 0.844844 0)
(3 1.27392e-16 0)
(3 -2.382e-16 0)
(3 -5.81616e-16 0)
(3 6.49761e-13 0)
(3 4.72788e-09 0)
(3 4.36931e-06 0)
(2.99968 0.000794533 0)
(2.98328 0.0326837 0)
(2.85559 0.239468 0)
(2.46402 0.673063 0)
(2.30021 0.822079 0)
(2.26682 0.845772 0)
(3 -1.78438e-16 0)
(3 2.60794e-17 0)
(3 -2.35848e-17 0)
(3 1.13914e-15 0)
(3 9.59093e-13 0)
(3 5.16856e-09 0)
(3 3.51413e-06 0)
(2.9997 0.000656929 0)
(2.98925 0.025497 0)
(2.88069 0.196558 0)
(2.51538 0.630291 0)
(2.33727 0.79553 0)
(3 -1.45402e-15 0)
(3 -1.21105e-15 0)
(3 -4.12339e-16 0)
(3 9.71742e-16 0)
(3 6.46289e-16 0)
(3 1.09035e-12 0)
(3 3.91351e-09 0)
(3 2.88085e-06 0)
(2.99982 0.000425187 0)
(2.99204 0.0195276 0)
(2.90842 0.153892 0)
(2.58257 0.555307 0)
(3 -1.02675e-15 0)
(3 -4.45883e-16 0)
(3 -3.30399e-16 0)
(3 -9.97616e-17 0)
(3 -5.54149e-17 0)
(3 -1.03394e-15 0)
(3 8.23836e-13 0)
(3 2.98142e-09 0)
(3 1.61583e-06 0)
(2.99987 0.000307284 0)
(2.99558 0.0110696 0)
(2.91633 0.131034 0)
(3 -2.90761e-16 0)
(3 -1.7438e-16 0)
(3 -7.61354e-16 0)
(3 -1.2646e-15 0)
(3 -1.13788e-15 0)
(3 -1.5526e-15 0)
(3 -1.4909e-15 0)
(3 6.56356e-13 0)
(3 1.33453e-09 0)
(3 1.09553e-06 0)
(2.99993 0.000150242 0)
(2.9966 0.00683488 0)
(3 6.12235e-17 0)
(3 -5.3912e-16 0)
(3 -5.12313e-16 0)
(3 -6.3367e-16 0)
(3 -8.62198e-16 0)
(3 2.44657e-16 0)
(3 5.81254e-16 0)
(3 1.17859e-15 0)
(3 2.79883e-13 0)
(3 7.41053e-10 0)
(3 5.19073e-07 0)
(2.99997 7.18731e-05 0)
(3 6.36711e-16 0)
(3 1.69965e-15 0)
(3 1.79572e-15 0)
(3 1.55924e-15 0)
(3 5.61057e-16 0)
(3 3.3889e-17 0)
(3 5.96511e-16 0)
(3 4.45327e-16 0)
(3 -1.0315e-16 0)
(3 1.37505e-13 0)
(3 3.42654e-10 0)
(3 1.99443e-07 0)
(3 1.04728e-15 0)
(3 1.76739e-15 0)
(3 2.31973e-15 0)
(3 2.29212e-15 0)
(3 1.53646e-15 0)
(3 1.75541e-16 0)
(3 -2.00153e-16 0)
(3 -4.88738e-16 0)
(3 -4.86249e-16 0)
(3 -4.43568e-16 0)
(3 5.5139e-14 0)
(3 1.05986e-10 0)
(3 3.95199e-16 0)
(3 4.89465e-16 0)
(3 6.50378e-16 0)
(3 1.45756e-15 0)
(3 1.73009e-15 0)
(3 1.42922e-15 0)
(3 7.54371e-16 0)
(3 1.45038e-16 0)
(3 2.47841e-17 0)
(3 -1.88095e-16 0)
(3 -4.29021e-16 0)
(3 1.35195e-14 0)
(3 -2.87365e-17 0)
(3 4.32471e-17 0)
(3 -2.03661e-16 0)
(3 -1.30387e-16 0)
(3 1.27394e-15 0)
(3 1.14048e-15 0)
(3 1.03578e-15 0)
(3 1.18897e-15 0)
(3 6.66536e-16 0)
(3 9.80195e-17 0)
(3 -2.24247e-16 0)
(3 -7.40512e-17 0)
(3 1.50914e-15 0)
(3 1.06421e-15 0)
(3 1.47295e-16 0)
(3 -5.45535e-16 0)
(3 2.16021e-16 0)
(3 1.19444e-15 0)
(3 1.80721e-15 0)
(3 2.09145e-15 0)
(3 1.79224e-15 0)
(3 1.635e-15 0)
(3 1.23584e-15 0)
(3 5.68595e-16 0)
(3 1.89795e-15 0)
(3 1.50544e-15 0)
(3 1.02607e-15 0)
(3 1.1712e-16 0)
(3 1.90096e-17 0)
(3 1.39527e-15 0)
(3 2.31401e-15 0)
(3 2.28886e-15 0)
(3 2.12597e-15 0)
(3 2.5047e-15 0)
(3 2.48032e-15 0)
(3 2.06765e-15 0)
(3 5.68559e-16 0)
(3 1.33612e-15 0)
(3 1.02859e-15 0)
(3 6.59449e-16 0)
(3 6.36693e-16 0)
(3 3.57726e-16 0)
(3 4.22504e-16 0)
(3 7.9747e-16 0)
(3 1.38221e-15 0)
(3 2.21216e-15 0)
(3 2.70202e-15 0)
(3 2.7773e-15 0)
(3 1.92969e-15 0)
(3 1.29389e-15 0)
(3 1.05847e-15 0)
(3 4.37219e-16 0)
(3 -3.32958e-16 0)
(3 -4.8945e-16 0)
(3 -6.80032e-16 0)
(3 -4.92453e-16 0)
(3 6.85385e-16 0)
(3 1.88825e-15 0)
(3 2.00935e-15 0)
(3 1.94293e-15 0)
(3 1.05983e-15 0)
(3 4.95308e-16 0)
(3 4.41252e-16 0)
(3 -2.88954e-17 0)
(3 -4.32776e-16 0)
(3 -4.02067e-16 0)
(3 -5.74761e-16 0)
(3 -3.39531e-16 0)
(3 -8.4253e-17 0)
(3 4.17532e-16 0)
(3 6.65106e-16 0)
(3 7.90954e-16 0)
(1.63354 0.601474 0)
(1.99748 0.402925 0)
(2.06186 0.126799 0)
(2.10911 -0.0122112 0)
(2.09401 -0.0375681 0)
(2.02863 -0.0553895 0)
(2.03108 -0.063874 0)
(2.07768 -0.0434641 0)
(2.10183 -0.00962524 0)
(2.12118 0.0124001 0)
(2.13168 0.0135712 0)
(2.14544 0.00623168 0)
(2.15644 -0.00283639 0)
(2.16957 -0.00350302 0)
(2.17863 -0.00168419 0)
(2.18044 -0.00185724 0)
(2.18177 -0.00296713 0)
(2.18486 -0.0043177 0)
(2.19157 -0.00331533 0)
(2.20098 -5.33843e-06 0)
(2.20957 0.0020967 0)
(2.2181 0.001807 0)
(2.22751 -0.000930214 0)
(2.23312 -0.0030747 0)
(2.24049 -0.00429232 0)
(2.24792 -0.00364376 0)
(2.25283 -0.000810107 0)
(2.25693 0.00161949 0)
(2.26045 0.00298712 0)
(2.26407 0.00351898 0)
(2.27145 0.00205483 0)
(2.27855 0.000711504 0)
(2.28478 0.000367105 0)
(2.29105 -0.000492408 0)
(2.29607 -0.00168942 0)
(2.3015 -0.00226472 0)
(2.30729 -0.00227841 0)
(2.31188 -0.000483087 0)
(2.31511 0.00259899 0)
(2.31893 0.0043648 0)
(2.32254 0.00440887 0)
(2.32673 0.00324029 0)
(2.33317 0.00128811 0)
(2.33971 0.000301864 0)
(2.34515 -0.000254218 0)
(2.34963 -0.000742462 0)
(2.35369 -0.00117379 0)
(2.35662 -0.001228 0)
(2.3581 -0.000155107 0)
(2.36004 0.00229642 0)
(2.36358 0.00334685 0)
(2.36816 0.00485503 0)
(2.37982 0.00348088 0)
(2.36975 -0.0063575 0)
(2.27129 -0.0732548 0)
(1.99142 -0.180176 0)
(1.564 -0.246806 0)
(1.32409 -0.148787 0)
(1.37401 -0.12125 0)
(1.46599 -0.0494825 0)
(1.52583 -0.0366225 0)
(1.5815 -0.0400514 0)
(1.62203 -0.0284844 0)
(1.6481 -0.0164801 0)
(1.67917 -0.00541031 0)
(1.71441 -0.00264471 0)
(1.7489 9.34263e-05 0)
(1.77759 0.00228451 0)
(1.80345 2.72692e-05 0)
(1.834 -0.00556399 0)
(1.86773 -0.0113126 0)
(1.89598 -0.0130011 0)
(1.92127 -0.012175 0)
(1.94552 -0.00808356 0)
(1.96314 -0.000639184 0)
(1.97385 0.00775136 0)
(1.99129 0.0117559 0)
(2.01255 0.0120677 0)
(2.03976 0.0101347 0)
(2.07854 0.00430298 0)
(2.1094 -0.00466183 0)
(2.13146 -0.00710783 0)
(2.1527 -0.00740318 0)
(2.17363 -0.000662938 0)
(1.74602 0.301472 0)
(2.02233 0.059595 0)
(2.13545 -0.186839 0)
(2.20662 -0.215424 0)
(2.22869 -0.147159 0)
(2.17752 -0.0747127 0)
(2.16764 -0.0480429 0)
(2.17081 -0.0186104 0)
(2.16641 0.028665 0)
(2.17317 0.046309 0)
(2.1751 0.0448581 0)
(2.1801 0.0357836 0)
(2.19399 0.0105383 0)
(2.20375 -0.00936467 0)
(2.21029 -0.0145313 0)
(2.21651 -0.0175996 0)
(2.22253 -0.0206992 0)
(2.22925 -0.0194046 0)
(2.23604 -0.0122817 0)
(2.24287 -0.00242189 0)
(2.24888 0.0097057 0)
(2.25478 0.0165356 0)
(2.25845 0.0166006 0)
(2.2611 0.0100759 0)
(2.26737 -0.0021201 0)
(2.27288 -0.00959396 0)
(2.27821 -0.0105913 0)
(2.28408 -0.00866074 0)
(2.29031 -0.00258627 0)
(2.29442 0.00403471 0)
(2.2992 0.00640073 0)
(2.30423 0.00643391 0)
(2.30791 0.00628665 0)
(2.31215 0.00570574 0)
(2.31691 0.00288426 0)
(2.32191 -0.00179825 0)