/*--------------------------------*- C++ -*----------------------------------*\
  =========                 |
  \\      /  F ield         | OpenFOAM: The Open Source CFD Toolbox
   \\    /   O peration     | Website:  https://openfoam.org
    \\  /    A nd           | Version:  7
     \\/     M anipulation  |
\*---------------------------------------------------------------------------*/
FoamFile
{
    version     2.0;
    format      ascii;
    class       volScalarField;
    location    "2.1";
    object      p;
}
// * * * * * * * * * * * * * * * * * * * * * * * * * * * * * * * * * * * * * //

dimensions      [1 -1 -2 0 0 0 0];

internalField   nonuniform List<scalar> 
16192
(
5.41523
5.36434
5.31307
5.27423
5.25354
5.2721
5.30107
5.28717
5.25942
5.22887
5.20358
5.18259
5.16917
5.17332
5.18437
5.1722
5.15288
5.13051
5.10638
5.08689
5.07087
5.05508
5.0409
5.02934
5.01376
4.99906
4.98288
4.96274
4.94125
4.92766
4.91905
4.91441
4.91402
4.90718
4.89663
4.88063
4.85206
4.81041
4.77174
4.7527
4.75001
4.74985
4.74686
4.73847
4.72375
4.69915
4.66873
4.64423
4.63564
4.6439
4.6637
4.68522
4.69132
4.67905
4.64602
4.61701
4.60215
4.58911
4.57499
4.55378
4.5236
4.48935
4.46116
4.43658
4.41608
4.41293
4.40593
4.40541
4.40735
4.41256
4.41341
4.3892
4.32165
4.28464
4.28162
4.28807
4.30942
4.33388
4.35865
4.38744
4.39393
4.37747
4.35454
4.34435
4.33147
4.30253
4.27488
4.25318
4.24921
4.26257
4.25338
4.235
4.21536
4.18599
4.14375
4.11572
4.10146
4.09255
4.09663
4.12095
4.14672
4.1542
4.15026
4.14369
4.13102
4.1014
4.04672
3.9919
3.96868
3.96156
3.96038
3.97075
4.00126
4.03991
4.06518
4.07011
4.06233
4.03339
3.96783
3.89475
3.8515
3.82997
3.81566
3.80847
3.8154
3.84162
3.84974
3.84963
3.85003
3.85699
3.86251
3.85898
3.84964
3.83734
3.82096
3.79555
3.76233
3.73448
3.71376
3.70214
3.70114
3.70714
3.71073
3.70832
3.70042
3.68921
3.67876
3.6732
3.67496
3.68144
3.68554
3.6795
3.66108
3.64036
3.61967
3.59196
3.57249
3.58964
3.60034
3.61251
3.62565
3.63198
3.62573
3.58869
3.55332
3.52961
3.50573
3.48618
3.49367
3.53039
3.54493
3.54215
3.5346
3.51167
3.46583
3.42949
3.41851
3.41422
3.41389
3.42331
3.44199
3.44345
3.43148
3.41372
3.36817
3.30112
3.27946
3.28433
3.28749
3.29386
3.30868
3.32737
3.34576
3.3571
3.37642
3.42795
3.4988
3.50064
3.44399
3.36499
3.28131
3.24097
3.22948
3.27014
3.34657
3.37574
3.36378
3.34273
3.30817
3.25816
3.22389
3.21046
3.20762
3.23106
3.26654
3.27489
3.27253
3.27113
3.26611
3.2493
3.21023
3.16378
3.14022
3.13054
3.12574
3.13028
3.15744
3.18966
3.20689
3.21199
3.20782
3.1952
3.16662
3.12404
3.0906
3.07575
3.06957
3.07087
3.08751
3.10828
3.12395
3.12707
3.11968
3.09673
3.05031
3.00563
2.98703
2.97832
2.97563
2.98822
3.01154
3.03866
3.03484
5.40998
5.37824
5.33838
5.29904
5.27266
5.27325
5.28763
5.27366
5.24785
5.21807
5.18689
5.1655
5.15205
5.1582
5.17926
5.18334
5.16798
5.14752
5.12082
5.10009
5.0854
5.07193
5.06169
5.05008
5.03222
5.01356
4.99344
4.97168
4.9514
4.93806
4.92729
4.91906
4.91479
4.90827
4.89949
4.88711
4.86801
4.84169
4.81346
4.78961
4.77079
4.75653
4.74527
4.73449
4.72193
4.7042
4.68089
4.65509
4.63204
4.61825
4.61951
4.63323
4.63639
4.61765
4.58841
4.57041
4.55804
4.54784
4.53985
4.53418
4.52394
4.50451
4.4758
4.44479
4.4217
4.41729
4.41855
4.41264
4.4072
4.40201
4.3991
4.38299
4.32561
4.28366
4.2758
4.27675
4.29857
4.33399
4.3559
4.34857
4.34078
4.33117
4.31795
4.30639
4.29158
4.27539
4.26339
4.26044
4.26405
4.25121
4.23241
4.21369
4.19325
4.17216
4.15613
4.14008
4.1255
4.11579
4.11567
4.13071
4.14635
4.1399
4.13033
4.11956
4.1034
4.07647
4.04183
4.01808
4.00359
3.99349
3.98848
3.99381
4.01707
4.03081
4.02758
4.02603
4.01741
3.9885
3.93427
3.88907
3.87332
3.86228
3.85156
3.84461
3.84849
3.86205
3.86219
3.861
3.86091
3.85324
3.83655
3.82491
3.8212
3.81987
3.81469
3.80208
3.78198
3.75673
3.73076
3.71277
3.70641
3.70854
3.71052
3.70828
3.70249
3.69467
3.68697
3.68054
3.67499
3.66789
3.65676
3.6433
3.62943
3.61757
3.61234
3.61416
3.6115
3.60872
3.61653
3.62061
3.62022
3.61159
3.59173
3.56849
3.55391
3.53735
3.52286
3.50846
3.51445
3.53652
3.53594
3.5292
3.52098
3.50517
3.48009
3.45291
3.43076
3.42113
3.42157
3.42708
3.43223
3.42937
3.41731
3.40391
3.37899
3.3361
3.31203
3.31454
3.31628
3.31649
3.31675
3.31704
3.31691
3.31928
3.32741
3.35681
3.40245
3.43191
3.41177
3.36945
3.32878
3.29094
3.27258
3.28659
3.32208
3.33501
3.32349
3.30295
3.27149
3.25006
3.24129
3.23593
3.24095
3.26353
3.27765
3.27289
3.26585
3.25574
3.2418
3.22185
3.1941
3.17432
3.165
3.15613
3.14983
3.1517
3.17064
3.19164
3.19139
3.18527
3.17872
3.16492
3.14094
3.12045
3.11253
3.10396
3.09674
3.09689
3.10668
3.11131
3.10518
3.09825
3.08811
3.06721
3.04079
3.02542
3.01307
3.00222
2.99634
3.00212
3.01538
3.02008
3.01343
5.36731
5.35869
5.34484
5.32751
5.31301
5.3097
5.30544
5.28325
5.26098
5.2369
5.20652
5.17621
5.15538
5.14352
5.15369
5.1723
5.16842
5.156
5.13484
5.10639
5.08632
5.07344
5.06675
5.06509
5.05326
5.03711
5.0127
4.97792
4.94849
4.93134
4.91864
4.90686
4.89418
4.8817
4.86826
4.85268
4.83806
4.82747
4.81772
4.80693
4.79532
4.78081
4.76543
4.7492
4.73308
4.72028
4.71003
4.69767
4.6788
4.65308
4.62441
4.59879
4.57803
4.55079
4.52538
4.51144
4.50202
4.49498
4.4929
4.49773
4.5029
4.49904
4.48318
4.45827
4.43369
4.42121
4.41778
4.41315
4.40451
4.39071
4.37181
4.33891
4.28649
4.25739
4.24968
4.25252
4.27741
4.3258
4.37784
4.40871
4.40981
4.39423
4.36866
4.32939
4.29301
4.2655
4.25034
4.25188
4.26593
4.25782
4.23953
4.21839
4.1901
4.16774
4.15668
4.14856
4.14243
4.14092
4.14669
4.15094
4.14055
4.12832
4.1138
4.09518
4.07156
4.04501
4.02387
4.02095
4.01988
4.02035
4.02664
4.0357
4.03491
4.02921
4.01778
3.99598
3.96535
3.92304
3.8911
3.88335
3.8803
3.87733
3.87578
3.88426
3.90015
3.89794
3.88824
3.87696
3.86131
3.83436
3.80363
3.78941
3.7871
3.78745
3.7895
3.79
3.78893
3.78131
3.76378
3.74125
3.72239
3.7122
3.70666
3.70249
3.70028
3.69924
3.69744
3.69067
3.67571
3.65431
3.63064
3.60626
3.58386
3.57318
3.58062
3.60335
3.62768
3.64807
3.65349
3.64099
3.62072
3.5944
3.55029
3.52795
3.5183
3.50897
3.50732
3.5193
3.5492
3.55229
3.52938
3.51376
3.4995
3.48442
3.47604
3.46891
3.45581
3.43909
3.43097
3.42709
3.41856
3.40517
3.38949
3.36902
3.34929
3.34779
3.34914
3.35188
3.3553
3.35691
3.3553
3.35154
3.35061
3.35351
3.35279
3.33212
3.31131
3.32655
3.3536
3.36928
3.36616
3.3611
3.35963
3.3441
3.3171
3.2933
3.27237
3.25175
3.23898
3.232
3.23375
3.24979
3.28119
3.30125
3.29577
3.28362
3.26633
3.2432
3.21517
3.18683
3.17195
3.16903
3.16796
3.16794
3.17265
3.18614
3.1937
3.18762
3.17934
3.16746
3.14771
3.12651
3.11308
3.10841
3.10957
3.11659
3.12719
3.13371
3.12868
3.11648
3.09787
3.06916
3.04001
3.02777
3.02545
3.02609
3.02573
3.02622
3.03
3.0296
3.0204
3.01179
2.9953
5.35117
5.33634
5.3282
5.32111
5.31716
5.31215
5.29132
5.26694
5.24126
5.22005
5.20251
5.18626
5.16976
5.15641
5.15362
5.1571
5.14923
5.13845
5.12372
5.10299
5.08144
5.06655
5.05563
5.04773
5.03848
5.02564
5.00774
4.97841
4.94834
4.93066
4.91965
4.91177
4.90274
4.8927
4.87904
4.86022
4.83918
4.82115
4.80843
4.79917
4.79083
4.77937
4.76364
4.74321
4.72136
4.70246
4.6887
4.67918
4.66985
4.65807
4.64205
4.62063
4.59697
4.57773
4.56337
4.54983
4.53841
4.53031
4.52483
4.52373
4.52237
4.51694
4.50381
4.48001
4.45206
4.4318
4.421
4.41555
4.4081
4.3905
4.36388
4.3229
4.27965
4.26055
4.24535
4.23841
4.26065
4.30751
4.35987
4.39825
4.41123
4.40281
4.37967
4.33176
4.28505
4.25465
4.23815
4.23693
4.24621
4.24135
4.22877
4.21646
4.2017
4.18342
4.16841
4.16176
4.16053
4.16623
4.16815
4.15724
4.14175
4.12217
4.09796
4.07016
4.04276
4.02087
4.01851
4.02284
4.03275
4.05233
4.06734
4.06473
4.05275
4.02901
3.99521
3.94857
3.90125
3.87564
3.86815
3.87057
3.87955
3.89076
3.90874
3.93589
3.94455
3.93559
3.92077
3.89128
3.84875
3.8085
3.77923
3.76737
3.76629
3.7661
3.76923
3.78053
3.78841
3.7912
3.78815
3.77402
3.75076
3.72701
3.70757
3.69466
3.69069
3.69326
3.69758
3.69829
3.68933
3.66536
3.62676
3.58587
3.56201
3.56081
3.57535
3.59749
3.62692
3.65784
3.67605
3.67377
3.64211
3.58217
3.51904
3.4987
3.49222
3.48923
3.49596
3.51884
3.56479
3.56589
3.53376
3.50711
3.48428
3.47236
3.46901
3.47044
3.46739
3.45527
3.44495
3.43086
3.40574
3.37812
3.35801
3.34235
3.33889
3.3536
3.36731
3.37044
3.3696
3.3636
3.35273
3.34462
3.34067
3.33394
3.32111
3.30659
3.29632
3.29671
3.32323
3.36577
3.40177
3.41701
3.40009
3.3643
3.32154
3.28096
3.24785
3.22763
3.21761
3.21621
3.23311
3.27189
3.30926
3.31454
3.30619
3.29572
3.27729
3.24158
3.19481
3.16913
3.16475
3.16398
3.16715
3.18017
3.2023
3.21445
3.2089
3.19783
3.17829
3.14653
3.11575
3.09861
3.09353
3.09449
3.10852
3.13719
3.15878
3.15797
3.14725
3.12406
3.0778
3.02967
3.01094
3.00599
3.00551
3.01583
3.0369
3.05662
3.06266
3.05507
3.03737
3.01125
2.97689
5.35008
5.3337
5.33173
5.33683
5.33646
5.32125
5.29957
5.27125
5.23332
5.20018
5.1831
5.17105
5.16449
5.16626
5.16918
5.15972
5.14624
5.1306
5.11376
5.10029
5.08932
5.07736
5.06413
5.05008
5.03572
5.0206
5.00286
4.97984
4.9572
4.94115
4.92778
4.91572
4.9041
4.89332
4.8822
4.86935
4.85425
4.83805
4.82241
4.80782
4.79411
4.77924
4.76247
4.74705
4.7334
4.71572
4.69322
4.6676
4.64234
4.62218
4.60457
4.58783
4.57984
4.5776
4.57326
4.56516
4.55555
4.54814
4.54305
4.53997
4.5363
4.53022
4.52339
4.50662
4.47608
4.4522
4.43675
4.42028
4.40531
4.3914
4.36297
4.32528
4.29546
4.28515
4.26183
4.23289
4.24724
4.28755
4.33214
4.37201
4.39575
4.39483
4.37404
4.33395
4.28569
4.25145
4.23571
4.2296
4.22279
4.21445
4.20983
4.20831
4.20691
4.20159
4.19132
4.18333
4.18125
4.17936
4.17007
4.15483
4.13375
4.10916
4.083
4.05537
4.02792
4.01508
4.01842
4.02722
4.04782
4.07312
4.07875
4.07398
4.06271
4.03143
3.97404
3.91553
3.87539
3.85807
3.85763
3.85946
3.8684
3.89567
3.93534
3.96127
3.96056
3.95165
3.93794
3.90448
3.85183
3.80257
3.76846
3.75365
3.75222
3.75226
3.75867
3.77545
3.78627
3.78932
3.79032
3.78386
3.76681
3.74589
3.72735
3.71047
3.69519
3.68566
3.68334
3.68346
3.67935
3.6632
3.62937
3.59184
3.57543
3.58031
3.59676
3.61596
3.63519
3.65248
3.66186
3.65695
3.63659
3.59459
3.54191
3.50629
3.49669
3.49214
3.49604
3.51721
3.54881
3.55233
3.53768
3.51421
3.49738
3.48601
3.4782
3.47109
3.45941
3.44153
3.43405
3.42662
3.4071
3.37457
3.35413
3.34665
3.35446
3.37238
3.38388
3.3795
3.36247
3.33664
3.31412
3.30994
3.32057
3.32761
3.32176
3.3073
3.29353
3.29356
3.32315
3.38052
3.42385
3.41997
3.39177
3.35172
3.30319
3.26294
3.23702
3.22284
3.2188
3.23222
3.26515
3.297
3.30671
3.30609
3.30101
3.28966
3.27113
3.23937
3.19456
3.16876
3.16432
3.16374
3.16848
3.19006
3.21502
3.21524
3.2091
3.20078
3.18008
3.13841
3.10278
3.09165
3.08797
3.09115
3.11737
3.15723
3.16984
3.1645
3.15397
3.1227
3.05702
3.00374
2.98988
2.98752
2.98959
3.00845
3.04961
3.07619
3.07674
3.06939
3.05669
3.0261
2.96909
5.35173
5.33501
5.33686
5.34511
5.33411
5.31535
5.29388
5.2663
5.23028
5.19828
5.18177
5.1723
5.17167
5.18118
5.18171
5.17099
5.15709
5.13642
5.115
5.10263
5.09213
5.08204
5.06971
5.05557
5.03968
5.0214
4.99978
4.97728
4.96045
4.94831
4.9354
4.92064
4.90618
4.89235
4.87931
4.86832
4.85678
4.84121
4.82062
4.7987
4.77905
4.76106
4.74452
4.73423
4.72755
4.71593
4.69848
4.67462
4.6479
4.62926
4.61626
4.60607
4.60176
4.60039
4.59579
4.58868
4.57834
4.56745
4.55739
4.5479
4.5374
4.52593
4.51037
4.49541
4.47891
4.45263
4.44045
4.42629
4.4112
4.3937
4.36942
4.34103
4.31475
4.30947
4.28519
4.24285
4.24592
4.27564
4.30802
4.34138
4.36687
4.36753
4.3479
4.32363
4.29167
4.25622
4.23033
4.21431
4.20229
4.19525
4.19798
4.21412
4.23243
4.23556
4.22795
4.21062
4.18178
4.15975
4.14728
4.13341
4.11592
4.09641
4.07623
4.05598
4.0379
4.02848
4.03018
4.03993
4.0565
4.06806
4.06923
4.06605
4.05627
4.02987
3.97453
3.90414
3.86128
3.85126
3.85288
3.8561
3.87249
3.91173
3.94754
3.95839
3.95523
3.94555
3.92896
3.89388
3.84432
3.80618
3.78238
3.76793
3.76204
3.76121
3.7676
3.77912
3.7834
3.7818
3.77767
3.76814
3.75411
3.74203
3.73532
3.7294
3.7188
3.7038
3.68776
3.67383
3.66129
3.64396
3.61594
3.58727
3.57747
3.58696
3.60425
3.62157
3.63592
3.64246
3.6349
3.61099
3.58393
3.57198
3.56824
3.54479
3.53072
3.52501
3.52068
3.52396
3.52881
3.5255
3.52428
3.52927
3.52053
3.50656
3.49191
3.47232
3.4427
3.41394
3.40329
3.40164
3.39576
3.38721
3.38139
3.38413
3.39247
3.39872
3.39787
3.37736
3.33842
3.29622
3.27025
3.27509
3.30454
3.33342
3.34237
3.33233
3.31871
3.3182
3.34533
3.38822
3.39736
3.37647
3.34983
3.31535
3.27966
3.25603
3.24468
3.24436
3.2599
3.28477
3.29567
3.28855
3.2798
3.27601
3.27521
3.26807
3.25609
3.24144
3.21953
3.18949
3.17322
3.17095
3.174
3.18827
3.20421
3.20463
3.19896
3.18923
3.16816
3.13356
3.10874
3.10041
3.09773
3.10653
3.13769
3.16445
3.1676
3.16201
3.1461
3.10338
3.03212
2.99036
2.98157
2.98066
2.98552
3.01261
3.05808
3.07561
3.07375
3.06956
3.06251
3.04249
2.98386
5.35788
5.34568
5.34644
5.33798
5.31797
5.29549
5.27192
5.24957
5.22583
5.20227
5.18837
5.17986
5.17805
5.18442
5.17977
5.16825
5.15267
5.12546
5.09917
5.0849
5.07413
5.0673
5.05709
5.04401
5.02924
5.01155
4.99008
4.97325
4.96323
4.95547
4.94797
4.93887
4.92994
4.918
4.90377
4.88929
4.87158
4.84493
4.81299
4.7879
4.76824
4.75152
4.73707
4.72624
4.714
4.69852
4.6792
4.65565
4.63389
4.62321
4.61639
4.61355
4.61795
4.62522
4.62437
4.61942
4.60915
4.59396
4.57705
4.55974
4.54066
4.52153
4.49972
4.4817
4.46368
4.44655
4.44264
4.42985
4.41386
4.39619
4.37725
4.3544
4.33247
4.33405
4.31512
4.2644
4.2565
4.27627
4.29612
4.31957
4.3378
4.3314
4.31673
4.30857
4.29305
4.26508
4.23252
4.20887
4.19767
4.19638
4.2128
4.24559
4.25888
4.25221
4.2385
4.2116
4.17027
4.13463
4.11677
4.10643
4.09806
4.09093
4.08376
4.07687
4.07088
4.0604
4.05065
4.05063
4.05119
4.05128
4.04999
4.04483
4.03428
4.01357
3.97529
3.92277
3.88164
3.86398
3.86249
3.86729
3.88749
3.92329
3.94058
3.94089
3.93536
3.92292
3.90218
3.87085
3.83641
3.81376
3.79999
3.7922
3.79001
3.79165
3.79121
3.78595
3.77968
3.77155
3.7559
3.73699
3.72646
3.72339
3.72649
3.72988
3.72903
3.72404
3.71437
3.69786
3.67341
3.64019
3.60384
3.58266
3.58174
3.59146
3.60285
3.61187
3.61733
3.61421
3.60062
3.57991
3.56462
3.56762
3.57891
3.56692
3.5404
3.53685
3.53361
3.53124
3.52444
3.51094
3.5158
3.53851
3.53808
3.51851
3.49821
3.46726
3.42483
3.39932
3.3858
3.38142
3.38574
3.39867
3.41046
3.41926
3.4217
3.41396
3.39623
3.36348
3.31259
3.27027
3.2489
3.26041
3.30143
3.34154
3.36081
3.35887
3.34762
3.34319
3.35727
3.36547
3.34885
3.32733
3.30078
3.27705
3.2643
3.26345
3.28246
3.3123
3.31756
3.30241
3.27755
3.26052
3.24935
3.24107
3.23788
3.2461
3.25334
3.25259
3.24724
3.23073
3.20254
3.18989
3.18625
3.18355
3.18257
3.18193
3.17685
3.16785
3.15316
3.13699
3.12884
3.12514
3.12649
3.13995
3.15737
3.15941
3.15372
3.14147
3.11928
3.0735
3.01903
2.99279
2.98522
2.98469
2.99345
3.01954
3.0479
3.06144
3.06374
3.06058
3.05495
3.04335
3.01079
5.36891
5.3586
5.33919
5.31819
5.29707
5.27889
5.26442
5.24937
5.23153
5.20666
5.18722
5.17327
5.16748
5.17492
5.1718
5.16037
5.14518
5.12031
5.10049
5.08594
5.07325
5.06333
5.04933
5.03352
5.01477
4.99195
4.96719
4.95155
4.94053
4.93173
4.92546
4.92147
4.91726
4.90644
4.89197
4.87522
4.8517
4.81785
4.78442
4.76502
4.7545
4.74964
4.75105
4.74628
4.73441
4.71886
4.69839
4.67474
4.65919
4.64784
4.63472
4.62235
4.61403
4.60676
4.59688
4.58253
4.5653
4.54612
4.52628
4.50781
4.4908
4.47314
4.45899
4.44799
4.43972
4.43359
4.42856
4.4223
4.41348
4.40194
4.38529
4.36459
4.34891
4.35025
4.32758
4.27193
4.2658
4.27836
4.29369
4.3113
4.31094
4.29803
4.29167
4.29248
4.28461
4.26746
4.24499
4.22411
4.2153
4.22064
4.24055
4.25503
4.24895
4.23867
4.22313
4.1941
4.15359
4.12175
4.10528
4.09593
4.09107
4.09604
4.10717
4.11086
4.10507
4.08933
4.06462
4.03964
4.02855
4.02339
4.01779
4.01219
4.00446
3.99023
3.96759
3.94403
3.92302
3.90378
3.89434
3.89547
3.90292
3.91571
3.91984
3.91614
3.9078
3.89343
3.87212
3.85003
3.83485
3.82538
3.81922
3.81844
3.82217
3.82043
3.81037
3.79556
3.77655
3.75472
3.73056
3.71299
3.70679
3.70548
3.71197
3.72093
3.72664
3.73061
3.72914
3.72011
3.69574
3.64566
3.59969
3.59028
3.58893
3.58981
3.58996
3.58603
3.57773
3.56781
3.55947
3.5575
3.57001
3.59113
3.60544
3.59191
3.54085
3.52083
3.5243
3.52397
3.5183
3.51362
3.52458
3.5443
3.53819
3.51391
3.48519
3.44482
3.40366
3.38566
3.3784
3.37748
3.39736
3.42587
3.43919
3.43681
3.4264
3.40939
3.38612
3.34838
3.30166
3.27152
3.26065
3.27757
3.31871
3.35328
3.3673
3.36556
3.35596
3.35106
3.35066
3.33525
3.31555
3.29022
3.2698
3.26166
3.26782
3.30106
3.34482
3.34977
3.33308
3.29839
3.25465
3.22867
3.22055
3.21559
3.21695
3.24017
3.26986
3.27996
3.27767
3.26492
3.23298
3.19671
3.17796
3.1662
3.15615
3.14954
3.14704
3.14517
3.14337
3.14294
3.14721
3.15605
3.16621
3.16804
3.16152
3.14975
3.13218
3.11191
3.08352
3.04962
3.02385
3.01097
3.00379
3.00308
3.01098
3.02422
3.03474
3.04303
3.0476
3.04579
3.04219
3.03988
3.03281
5.37803
5.36283
5.33724
5.31229
5.29423
5.2816
5.27401
5.26035
5.2411
5.21235
5.19155
5.17799
5.17803
5.19034
5.18447
5.17232
5.15524
5.136
5.12401
5.11327
5.10571
5.09257
5.07417
5.05337
5.0296
5.00167
4.97252
4.9523
4.9385
4.92579
4.91567
4.91108
4.90638
4.89266
4.87752
4.85961
4.83545
4.80783
4.78506
4.76811
4.75676
4.75147
4.74458
4.73355
4.71924
4.70815
4.70021
4.69603
4.69813
4.69497
4.68344
4.66733
4.64068
4.60426
4.56866
4.53969
4.5175
4.49947
4.48529
4.47633
4.47017
4.46174
4.45694
4.45121
4.4501
4.44775
4.4442
4.43794
4.42992
4.41852
4.39322
4.3689
4.35728
4.35369
4.33052
4.28338
4.27956
4.28984
4.29938
4.3017
4.29337
4.28491
4.28598
4.28306
4.27134
4.26221
4.25723
4.25565
4.25958
4.26222
4.25222
4.23668
4.22369
4.20933
4.18718
4.15699
4.13486
4.12355
4.11422
4.10818
4.11128
4.1246
4.12971
4.1241
4.11001
4.08616
4.06017
4.0352
4.01396
4.00064
3.99063
3.98271
3.97617
3.96896
3.96293
3.96022
3.95807
3.951
3.93577
3.91855
3.9101
3.90398
3.89847
3.89194
3.88224
3.86754
3.85321
3.84536
3.84097
3.83589
3.83366
3.83285
3.83209
3.82608
3.81583
3.79988
3.77357
3.74059
3.71543
3.70207
3.6942
3.68977
3.69418
3.71051
3.72779
3.73646
3.73609
3.73114
3.71304
3.6658
3.617
3.59532
3.58264
3.57108
3.56207
3.55791
3.55945
3.5686
3.58849
3.61576
3.63974
3.65558
3.65105
3.60373
3.53298
3.50308
3.50161
3.50013
3.50312
3.51467
3.53496
3.54919
3.53824
3.51064
3.47233
3.4346
3.4066
3.38871
3.38401
3.39907
3.43179
3.44591
3.44254
3.4312
3.41398
3.39509
3.37052
3.33297
3.29772
3.28511
3.293
3.3124
3.33675
3.35072
3.3543
3.35119
3.34623
3.34543
3.3399
3.32343
3.29687
3.27642
3.27076
3.27617
3.30328
3.34363
3.35035
3.33932
3.31932
3.27863
3.23843
3.22244
3.21488
3.21246
3.22778
3.26517
3.28523
3.28386
3.27477
3.25649
3.22652
3.19269
3.1673
3.15075
3.13961
3.13282
3.12889
3.13272
3.14699
3.16303
3.17768
3.18533
3.1827
3.17476
3.1602
3.13812
3.11288
3.08275
3.05395
3.03877
3.03572
3.0338
3.03099
3.02758
3.02346
3.02032
3.01859
3.01689
3.01772
3.02601
3.03877
3.05405
3.05188
5.39024
5.37566
5.35049
5.32308
5.30362
5.28977
5.27671
5.26017
5.23481
5.21014
5.19444
5.18507
5.19179
5.19438
5.18197
5.16627
5.14549
5.13275
5.12467
5.11938
5.11692
5.10591
5.09092
5.07456
5.05412
5.02655
4.99284
4.96771
4.95243
4.93835
4.92608
4.91984
4.91372
4.89934
4.88411
4.86638
4.84627
4.83116
4.81855
4.80362
4.78298
4.75923
4.73607
4.71429
4.69804
4.68632
4.67913
4.67771
4.68246
4.68408
4.67987
4.6692
4.65015
4.61809
4.57859
4.54324
4.52038
4.50962
4.50335
4.50406
4.51071
4.51431
4.51248
4.50334
4.49146
4.47532
4.46223
4.4522
4.43969
4.42481
4.40035
4.38116
4.37225
4.36099
4.33329
4.29696
4.29642
4.30326
4.30568
4.30156
4.29238
4.2905
4.28955
4.27503
4.25885
4.25911
4.27117
4.28913
4.29272
4.28094
4.25739
4.22777
4.19723
4.16696
4.14304
4.13273
4.1286
4.13029
4.13884
4.14668
4.14993
4.14399
4.13165
4.11418
4.09307
4.069
4.04702
4.02937
4.01027
3.9926
3.98084
3.97127
3.96475
3.96601
3.97585
3.97935
3.97914
3.97153
3.95326
3.93331
3.91487
3.8986
3.88518
3.87378
3.86377
3.85626
3.85324
3.85537
3.85357
3.84665
3.84184
3.83515
3.8269
3.8184
3.80841
3.79335
3.76929
3.73992
3.71819
3.70451
3.69513
3.6907
3.69662
3.71939
3.73951
3.74107
3.73665
3.72795
3.70958
3.67197
3.63143
3.60269
3.581
3.56624
3.56015
3.56523
3.59286
3.63201
3.6563
3.6603
3.65058
3.62364
3.58467
3.51704
3.46552
3.46212
3.46983
3.4837
3.51367
3.54953
3.56443
3.56028
3.54128
3.50063
3.46109
3.43807
3.42081
3.40911
3.41621
3.44532
3.46689
3.46005
3.4448
3.42159
3.39503
3.37139
3.34399
3.31563
3.30447
3.31501
3.34054
3.35022
3.34335
3.33484
3.3327
3.3307
3.33063
3.33556
3.33491
3.32511
3.30205
3.28914
3.29051
3.30473
3.32965
3.33876
3.33098
3.31647
3.28521
3.24647
3.23161
3.2262
3.22668
3.24409
3.27135
3.27607
3.26943
3.26199
3.25034
3.23019
3.20366
3.1835
3.16717
3.15299
3.1423
3.13585
3.13665
3.15121
3.1704
3.1806
3.18105
3.17759
3.17173
3.16302
3.14851
3.1256
3.09505
3.06819
3.052
3.04937
3.0527
3.05626
3.05433
3.04667
3.03337
3.01809
3.00712
3.00306
3.00425
3.02039
3.04601
3.05596
3.04611
5.40306
5.38937
5.36976
5.34446
5.31954
5.29804
5.27562
5.24798
5.2221
5.20567
5.19316
5.19171
5.19674
5.18578
5.17174
5.15438
5.13406
5.12228
5.1143
5.10877
5.10608
5.10211
5.09344
5.08151
5.06537
5.04123
5.00532
4.9743
4.95856
4.94508
4.93255
4.92529
4.91795
4.90459
4.88976
4.87444
4.86162
4.85121
4.83998
4.82469
4.80466
4.77617
4.74155
4.71524
4.69837
4.68424
4.67333
4.66808
4.66253
4.65732
4.6536
4.6467
4.63543
4.61634
4.59389
4.5722
4.55689
4.54898
4.55076
4.55556
4.55253
4.54148
4.52479
4.50182
4.478
4.45582
4.43505
4.41874
4.41272
4.40628
4.39784
4.39117
4.37991
4.35633
4.32642
4.30592
4.30771
4.30977
4.30761
4.30238
4.3011
4.30272
4.29671
4.27782
4.26641
4.27449
4.2937
4.29824
4.29109
4.27742
4.253
4.20966
4.16155
4.13539
4.12599
4.12138
4.12802
4.15466
4.18008
4.18534
4.17902
4.16198
4.13136
4.09501
4.0605
4.03829
4.02625
4.01836
4.01071
4.00009
3.9892
3.98256
3.98245
3.98709
3.98621
3.98296
3.97312
3.95543
3.94056
3.92848
3.91466
3.89939
3.88495
3.8729
3.86457
3.86069
3.86482
3.86729
3.85851
3.84461
3.83006
3.81916
3.80808
3.79682
3.78548
3.77387
3.7598
3.74357
3.73074
3.72113
3.71295
3.70917
3.71397
3.72488
3.72462
3.71636
3.70737
3.69518
3.67554
3.653
3.63222
3.61539
3.60289
3.59532
3.59781
3.6183
3.64482
3.64893
3.63914
3.62074
3.59346
3.54693
3.48245
3.44733
3.44373
3.45701
3.49339
3.54751
3.59296
3.60092
3.58257
3.54497
3.50099
3.46446
3.44729
3.43706
3.43448
3.45057
3.48072
3.49453
3.47913
3.45138
3.4151
3.37221
3.34369
3.3253
3.31354
3.31305
3.32928
3.35842
3.37615
3.37412
3.34907
3.31238
3.30581
3.30526
3.30876
3.32586
3.33465
3.33328
3.32654
3.321
3.32282
3.32676
3.32287
3.31347
3.29993
3.27568
3.24738
3.23518
3.23252
3.24062
3.26934
3.29495
3.29294
3.28127
3.26218
3.24001
3.21304
3.18784
3.17544
3.17016
3.16557
3.16123
3.16307
3.17003
3.17557
3.17334
3.16796
3.16283
3.15941
3.15673
3.15207
3.14365
3.12965
3.11086
3.09076
3.07635
3.07325
3.07431
3.07333
3.06895
3.06096
3.04912
3.0366
3.02489
3.01448
3.00839
3.00797
3.01153
3.01616
3.02191
3.01593
5.41289
5.39966
5.38573
5.36334
5.33967
5.3114
5.27164
5.23427
5.21442
5.20098
5.1963
5.20238
5.19484
5.17844
5.15816
5.13374
5.11723
5.10753
5.09972
5.09611
5.0975
5.0954
5.08665
5.0757
5.06278
5.04471
5.01567
4.98104
4.95803
4.94194
4.92935
4.91993
4.90847
4.89411
4.88101
4.86885
4.85879
4.84883
4.8369
4.8235
4.8088
4.78923
4.76376
4.74062
4.72073
4.70213
4.68487
4.66874
4.65207
4.6387
4.62998
4.62212
4.61486
4.60792
4.59896
4.58677
4.57528
4.56876
4.56506
4.55699
4.54372
4.52768
4.5084
4.48215
4.44888
4.42022
4.40426
4.4049
4.40997
4.40456
4.39861
4.39092
4.37317
4.34159
4.31692
4.31253
4.31382
4.31378
4.3102
4.30997
4.31459
4.31689
4.31262
4.29757
4.28084
4.27538
4.27628
4.27639
4.27233
4.26336
4.23975
4.19423
4.15229
4.13121
4.12309
4.12314
4.1505
4.19418
4.20377
4.19807
4.18809
4.16515
4.12162
4.0641
4.02884
4.01558
4.00915
4.00671
4.00789
4.0135
4.01926
4.02037
4.01552
4.00522
3.9923
3.97271
3.94723
3.92833
3.91802
3.91081
3.90501
3.89938
3.89259
3.88634
3.88224
3.88215
3.88136
3.87151
3.85406
3.82996
3.81113
3.80054
3.79105
3.78151
3.77201
3.7648
3.75814
3.75154
3.74692
3.7431
3.73861
3.73259
3.72585
3.7151
3.70437
3.69274
3.67654
3.65482
3.63884
3.63188
3.62849
3.62861
3.63644
3.64855
3.65861
3.65696
3.64636
3.63024
3.60846
3.5753
3.52583
3.47819
3.45738
3.45668
3.48613
3.5448
3.60025
3.61755
3.60659
3.5786
3.53497
3.47518
3.44139
3.43327
3.43237
3.44771
3.48033
3.51427
3.52245
3.5022
3.4665
3.41225
3.36077
3.33529
3.32255
3.31715
3.32189
3.34395
3.37452
3.38958
3.38556
3.36269
3.31863
3.29218
3.29181
3.29504
3.30947
3.33261
3.34238
3.34494
3.34283
3.33931
3.33663
3.32822
3.31247
3.29244
3.26971
3.24693
3.23175
3.23028
3.24255
3.27901
3.30736
3.30597
3.29768
3.28159
3.2496
3.20462
3.17486
3.16478
3.15985
3.15899
3.16771
3.18677
3.20644
3.21104
3.20394
3.18748
3.16571
3.14839
3.13528
3.12634
3.11996
3.11479
3.11019
3.10378
3.09959
3.10126
3.10062
3.09391
3.08183
3.06715
3.05452
3.0455
3.04013
3.0371
3.03476
3.03049
3.02367
3.01369
3.00152
2.99107
2.97558
5.43523
5.41627
5.3982
5.37412
5.35053
5.31913
5.26816
5.22817
5.20882
5.19879
5.20601
5.20993
5.19512
5.17398
5.14188
5.117
5.10661
5.09773
5.08992
5.08822
5.08956
5.08428
5.07692
5.06842
5.05535
5.03785
5.01378
4.98761
4.96417
4.94386
4.92696
4.91185
4.89744
4.88381
4.8707
4.85767
4.8458
4.83523
4.82412
4.81299
4.80192
4.78998
4.77814
4.76613
4.7505
4.73005
4.70454
4.67867
4.65518
4.63554
4.61579
4.60396
4.59881
4.59669
4.59369
4.5896
4.58282
4.57294
4.55873
4.5425
4.5258
4.50489
4.47539
4.44494
4.4261
4.41435
4.41276
4.42624
4.42759
4.41804
4.40843
4.39226
4.36665
4.33433
4.32072
4.32228
4.32324
4.32235
4.3228
4.32843
4.33722
4.33971
4.32471
4.30113
4.28438
4.27425
4.26478
4.25485
4.24608
4.23497
4.21535
4.18741
4.16195
4.14853
4.1439
4.1559
4.17973
4.1884
4.19066
4.18823
4.17985
4.1555
4.09822
4.0398
4.01765
4.00752
3.99969
3.9971
4.01003
4.03846
4.0544
4.05125
4.04107
4.02347
3.99351
3.956
3.91888
3.89989
3.89246
3.89068
3.89351
3.89965
3.90605
3.90876
3.90811
3.90259
3.88996
3.86786
3.83996
3.81531
3.79975
3.78952
3.78289
3.7785
3.77365
3.76993
3.76471
3.75873
3.75286
3.74684
3.74328
3.74048
3.72831
3.71038
3.68851
3.66934
3.65102
3.63242
3.61963
3.61609
3.62572
3.65492
3.68456
3.6933
3.68526
3.67094
3.64569
3.61033
3.56465
3.51766
3.48638
3.47452
3.48189
3.52551
3.58718
3.61143
3.60479
3.59255
3.57137
3.52807
3.45895
3.42711
3.42122
3.42666
3.45735
3.50291
3.52759
3.52097
3.50416
3.47974
3.43453
3.38421
3.35555
3.34488
3.34091
3.34686
3.36518
3.37872
3.3836
3.38169
3.36578
3.33142
3.29629
3.29077
3.29418
3.30632
3.33101
3.34706
3.35193
3.34971
3.33623
3.33054
3.32931
3.32756
3.31607
3.2923
3.26043
3.23688
3.23377
3.24168
3.27066
3.2983
3.30236
3.29907
3.2919
3.27132
3.22239
3.18237
3.16787
3.16042
3.15596
3.16436
3.19784
3.22338
3.22357
3.21609
3.20563
3.18894
3.1615
3.13052
3.1111
3.10206
3.09704
3.09453
3.09594
3.10898
3.12278
3.12303
3.11718
3.10198
3.07812
3.06142
3.05513
3.05243
3.05285
3.0545
3.05233
3.04656
3.03485
3.01568
2.98966
2.95839
2.93044
5.44623
5.42131
5.39913
5.37275
5.34799
5.31121
5.25993
5.22503
5.20611
5.20328
5.21534
5.21053
5.19474
5.16849
5.13106
5.1101
5.10152
5.09542
5.09335
5.09589
5.09117
5.08067
5.06929
5.05714
5.0444
5.02735
5.00365
4.98267
4.96766
4.95097
4.93348
4.91387
4.89493
4.87826
4.86222
4.84725
4.83368
4.82034
4.808
4.7978
4.78987
4.7853
4.78336
4.77615
4.76303
4.74639
4.7229
4.69252
4.66415
4.64098
4.61868
4.59997
4.58763
4.58233
4.58305
4.58453
4.58269
4.57097
4.55351
4.52939
4.50075
4.47369
4.45295
4.4377
4.42547
4.42708
4.44445
4.45129
4.44246
4.43017
4.41173
4.38801
4.35839
4.3369
4.33645
4.34089
4.34313
4.34426
4.3476
4.35175
4.34424
4.32759
4.31294
4.29833
4.28521
4.27178
4.25732
4.2407
4.22303
4.2054
4.18979
4.17821
4.17086
4.17349
4.18953
4.19783
4.19026
4.17954
4.17269
4.16707
4.15534
4.12541
4.07763
4.04188
4.02039
4.00797
4.00192
4.00773
4.03763
4.06503
4.06661
4.05997
4.04897
4.02968
3.99051
3.93141
3.89547
3.88385
3.87741
3.87444
3.8835
3.90707
3.92557
3.92984
3.92608
3.91567
3.89046
3.85236
3.8233
3.80723
3.7964
3.78836
3.78663
3.78873
3.78469
3.778
3.76747
3.75117
3.74032
3.7333
3.72884
3.72729
3.72348
3.71073
3.69303
3.66722
3.64098
3.62537
3.6198
3.62405
3.64637
3.67237
3.68452
3.68556
3.67765
3.66477
3.63735
3.58086
3.53113
3.50456
3.49584
3.50544
3.54674
3.59191
3.60138
3.5947
3.5832
3.5611
3.51544
3.4564
3.43079
3.42596
3.43805
3.47756
3.51538
3.52058
3.51037
3.49599
3.47231
3.43637
3.40997
3.39608
3.38784
3.38503
3.3869
3.38773
3.38275
3.37489
3.36395
3.34906
3.32548
3.30233
3.29729
3.30304
3.31998
3.34687
3.3596
3.36145
3.34869
3.32168
3.30952
3.30826
3.31095
3.31796
3.31557
3.30346
3.27856
3.26012
3.25937
3.26831
3.27572
3.27541
3.27443
3.27155
3.26039
3.23668
3.2121
3.19458
3.1813
3.17291
3.17367
3.18977
3.20709
3.21429
3.21437
3.20878
3.1995
3.18215
3.15444
3.12563
3.10835
3.09944
3.09463
3.09248
3.09879
3.11243
3.11546
3.11357
3.10855
3.0928
3.06967
3.06221
3.05947
3.0578
3.05742
3.05663
3.05398
3.04906
3.03784
3.00973
2.96839
2.93351
2.91243
5.34248
5.37735
5.37138
5.34904
5.32494
5.29238
5.25322
5.23349
5.22039
5.22288
5.22287
5.20954
5.19235
5.16073
5.12778
5.1137
5.10802
5.10892
5.1155
5.11184
5.10043
5.08663
5.07011
5.05212
5.03329
5.0116
4.99164
4.9781
4.96658
4.95545
4.94103
4.92387
4.90583
4.88645
4.86582
4.8465
4.82994
4.81455
4.80098
4.78948
4.7806
4.77886
4.77901
4.76974
4.7556
4.7406
4.72556
4.70562
4.67994
4.65037
4.62501
4.60437
4.58881
4.577
4.5702
4.57362
4.57654
4.56593
4.55095
4.53126
4.50179
4.47444
4.45713
4.4444
4.44355
4.46004
4.46712
4.45672
4.44408
4.42777
4.40569
4.37799
4.35443
4.35125
4.35697
4.3627
4.36715
4.37023
4.36843
4.35155
4.32715
4.30673
4.29552
4.29061
4.28608
4.27559
4.25748
4.23287
4.20714
4.18993
4.17951
4.17364
4.18229
4.20681
4.22029
4.21442
4.20027
4.17954
4.15969
4.14079
4.11558
4.08213
4.05765
4.04448
4.03541
4.02838
4.02876
4.04539
4.06377
4.06355
4.05846
4.05221
4.04153
4.02136
3.98166
3.92873
3.89389
3.8798
3.87311
3.87126
3.88977
3.92408
3.93884
3.9367
3.92915
3.9129
3.87844
3.83632
3.81486
3.80381
3.79583
3.79519
3.80389
3.80524
3.79774
3.78518
3.76024
3.73219
3.72057
3.71301
3.7065
3.70259
3.70403
3.70789
3.70071
3.68758
3.66822
3.65213
3.6461
3.64797
3.64928
3.6478
3.65281
3.65807
3.65418
3.64179
3.61741
3.5846
3.55363
3.54015
3.54265
3.56513
3.5891
3.59105
3.58228
3.56803
3.5429
3.5003
3.46188
3.44716
3.44555
3.46701
3.50838
3.52717
3.52035