/*--------------------------------*- C++ -*----------------------------------*\
  =========                 |
  \\      /  F ield         | OpenFOAM: The Open Source CFD Toolbox
   \\    /   O peration     | Website:  https://openfoam.org
    \\  /    A nd           | Version:  7
     \\/     M anipulation  |
\*---------------------------------------------------------------------------*/
FoamFile
{
    version     2.0;
    format      ascii;
    class       volScalarField;
    location    "0.8";
    object      T;
}
// * * * * * * * * * * * * * * * * * * * * * * * * * * * * * * * * * * * * * //

dimensions      [0 0 0 1 0 0 0];

internalField   nonuniform List<scalar> 
16192
(
1.97763
1.98375
1.98594
1.98655
1.98598
1.98089
1.96491
1.93975
1.91505
1.89278
1.86632
1.8309
1.79781
1.78173
1.781
1.78481
1.79328
1.79414
1.78242
1.76195
1.72235
1.66196
1.61438
1.60594
1.60603
1.60732
1.60927
1.60944
1.6073
1.60298
1.59793
1.59486
1.59417
1.59468
1.59668
1.59909
1.6023
1.60768
1.61423
1.61895
1.61992
1.61256
1.59405
1.58861
1.59257
1.59915
1.60562
1.61371
1.62209
1.62849
1.63435
1.64147
1.65023
1.65832
1.66305
1.66442
1.66333
1.65737
1.65005
1.64504
1.64079
1.63783
1.63738
1.64045
1.6484
1.65244
1.65093
1.6428
1.63271
1.62161
1.60894
1.60123
1.60062
1.60295
1.61209
1.63131
1.65591
1.66944
1.67073
1.66846
1.66219
1.64875
1.62328
1.59045
1.5678
1.55608
1.54958
1.54758
1.55145
1.57292
1.6
1.60814
1.60925
1.6101
1.61037
1.6099
1.60978
1.61032
1.61095
1.61087
1.60978
1.60777
1.60491
1.59949
1.58881
1.5737
1.55688
1.54146
1.5287
1.52072
1.51534
1.50941
1.5038
1.49892
1.49415
1.49115
1.49074
1.49144
1.49606
1.50772
1.51934
1.52264
1.52288
1.52255
1.521
1.5184
1.51485
1.51017
1.50466
1.50085
1.49922
1.50023
1.50254
1.50084
1.49149
1.48422
1.48342
1.484
1.48508
1.48512
1.48278
1.47555
1.4701
1.4696
1.46922
1.46754
1.46369
1.45708
1.44775
1.43693
1.4245
1.41073
1.40008
1.39568
1.39575
1.40254
1.41251
1.41414
1.41307
1.41063
1.40832
1.40546
1.39904
1.3894
1.38589
1.38753
1.39541
1.40923
1.42593
1.44544
1.4709
1.50753
1.56085
1.62921
1.68403
1.6945
1.69312
1.6927
1.69108
1.68571
1.67865
1.6767
1.68073
1.68978
1.69573
1.70414
1.71983
1.74835
1.79522
1.84956
1.88148
1.89514
1.90729
1.91468
1.91916
1.92423
1.93135
1.94327
1.96124
1.9791
1.98631
1.98585
1.97195
1.93711
1.90028
1.86564
1.84241
1.83815
1.84077
1.85366
1.87417
1.89465
1.90754
1.90769
1.89675
1.85983
1.77639
1.68593
1.63957
1.61747
1.61066
1.61062
1.61615
1.6296
1.64347
1.65175
1.65626
1.66108
1.66871
1.67663
1.67913
1.67843
1.67671
1.67602
1.67458
1.66845
1.66247
1.65796
1.65289
1.6477
1.63862
1.62956
1.62202
1.60991
1.57847
1.50919
1.41772
1.35715
1.34546
1.34616
1.35197
1.36681
1.40098
1.97679
1.98337
1.9875
1.9882
1.98775
1.98309
1.96856
1.94423
1.92042
1.89901
1.87296
1.83655
1.80153
1.78569
1.78492
1.78855
1.79734
1.79967
1.79013
1.77087
1.73043
1.6685
1.62058
1.61232
1.6125
1.61384
1.61574
1.61605
1.61424
1.6096
1.603
1.59853
1.59743
1.598
1.59966
1.60103
1.60267
1.60599
1.61139
1.61576
1.61667
1.61321
1.60158
1.59443
1.59612
1.6021
1.60839
1.61658
1.62636
1.6332
1.63806
1.64306
1.64816
1.65411
1.6598
1.66375
1.66669
1.66785
1.66696
1.66278
1.65816
1.65507
1.65306
1.65111
1.64868
1.64666
1.6453
1.64238
1.63551
1.62604
1.61851
1.61666
1.61636
1.61758
1.62448
1.63874
1.65409
1.66492
1.66913
1.66903
1.66398
1.65142
1.62959
1.60416
1.58401
1.57089
1.56269
1.55979
1.5621
1.57473
1.59536
1.61002
1.61409
1.61538
1.6162
1.61626
1.61582
1.61415
1.6126
1.61153
1.6109
1.60992
1.60821
1.60466
1.59662
1.58307
1.56653
1.54992
1.5357
1.52509
1.5179
1.51195
1.50676
1.50233
1.49842
1.49675
1.49672
1.49746
1.50121
1.50991
1.5194
1.52381
1.52479
1.52489
1.52455
1.52364
1.52166
1.51853
1.51544
1.51229
1.50874
1.50527
1.50201
1.49896
1.49289
1.48523
1.48246
1.48265
1.48352
1.48368
1.48246
1.4774
1.47038
1.4682
1.46754
1.46577
1.4621
1.45603
1.44744
1.43589
1.42192
1.40812
1.39896
1.39548
1.39574
1.40203
1.41043
1.41159
1.4103
1.40693
1.4025
1.39794
1.39309
1.38679
1.38212
1.38249
1.389
1.4025
1.41888
1.43736
1.46168
1.49786
1.55167
1.62364
1.68472
1.69698
1.69411
1.69179
1.6897
1.68417
1.67681
1.67457
1.67663
1.68542
1.69347
1.70051
1.7131
1.73806
1.78044
1.83683
1.88175
1.89724
1.90548
1.91281
1.91742
1.92209
1.9293
1.94113
1.95877
1.97533
1.98094
1.98007
1.96856
1.93747
1.90193
1.86884
1.84831
1.84455
1.84687
1.85802
1.87697
1.89652
1.90831
1.90851
1.89658
1.85592
1.77483
1.68607
1.64094
1.6203
1.61351
1.61329
1.61838
1.6313
1.64502
1.65341
1.65791
1.6629
1.67037
1.67726
1.68014
1.68033
1.67978
1.67874
1.6769
1.66853
1.65949
1.6561
1.65166
1.64807
1.64384
1.63423
1.62399
1.6117
1.58113
1.51276
1.41783
1.35745
1.34581
1.34627
1.35071
1.36309
1.39605
1.97307
1.97848
1.98231
1.98291
1.98252
1.9784
1.96501
1.94075
1.915
1.89333
1.86795
1.83262
1.7979
1.78051
1.77926
1.78257
1.79145
1.79389
1.78466
1.76628
1.72741
1.66636
1.6172
1.60784
1.60776
1.60867
1.61041
1.61099
1.61021
1.6076
1.60502
1.60348
1.60165
1.59829
1.59646
1.59729
1.60005
1.60341
1.60718
1.61042
1.6112
1.60997
1.6051
1.59923
1.59865
1.60379
1.6121
1.62199
1.63201
1.63845
1.64368
1.6485
1.65196
1.65483
1.65932
1.66652
1.67616
1.68579
1.69147
1.6922
1.69165
1.69019
1.68814
1.68496
1.67765
1.66924
1.66231
1.65783
1.65459
1.65103
1.64713
1.64487
1.64527
1.64855
1.65598
1.66436
1.67142
1.67633
1.67919
1.67955
1.67621
1.66665
1.65131
1.63169
1.61303
1.6005
1.59246
1.58911
1.58922
1.59316
1.6037
1.61707
1.62688
1.63127
1.6336
1.63542
1.63641
1.63599
1.63253
1.62938
1.62769
1.6256
1.62359
1.6214
1.61751
1.60904
1.59524
1.57862
1.56182
1.54675
1.53394
1.52403
1.51696
1.51301
1.51144
1.51055
1.51024
1.5111
1.51525
1.52301
1.53049
1.53368
1.53437
1.53534
1.53712
1.53954
1.5415
1.54174
1.54131
1.53988
1.53717
1.52984
1.51833
1.50682
1.49841
1.49073
1.48365
1.48064
1.48018
1.48015
1.47965
1.47636
1.46887
1.46448
1.46359
1.46201
1.45859
1.45301
1.44482
1.43343
1.4192
1.40476
1.39521
1.39234
1.39306
1.39938
1.40605
1.4065
1.40409
1.39855
1.39116
1.38347
1.37733
1.37228
1.3687
1.36838
1.37209
1.38273
1.39772
1.41568
1.43979
1.47665
1.53428
1.61437
1.68007
1.69412
1.69143
1.68673
1.68346
1.6771
1.66832
1.66409
1.66484
1.6718
1.68276
1.68926
1.69773
1.71545
1.74905
1.80205
1.85878
1.88801
1.89788
1.90594
1.91183
1.91618
1.92221
1.9328
1.94944
1.96538
1.97105
1.9704
1.96157
1.93722
1.90678
1.87693
1.85603
1.8518
1.85357
1.86192
1.87699
1.89501
1.9081
1.90891
1.89784
1.85833
1.78301
1.69504
1.64668
1.6246
1.617
1.61679
1.62125
1.63236
1.64516
1.65451
1.66086
1.6675
1.6755
1.68087
1.68266
1.68472
1.68714
1.68761
1.68749
1.68246
1.67211
1.66602
1.6615
1.65735
1.65233
1.64198
1.62976
1.6176
1.59036
1.52505
1.42618
1.35947
1.34571
1.34592
1.34891
1.35684
1.3869
1.96374
1.97074
1.97554
1.97602
1.97572
1.97205
1.95997
1.93632
1.90942
1.88787
1.86461
1.83273
1.799
1.77907
1.77686
1.77954
1.78781
1.79042
1.78244
1.76641
1.7308
1.6717
1.61964
1.60827
1.60809
1.60885
1.61081
1.61162
1.61147
1.61051
1.6099
1.60986
1.60903
1.60555
1.59944
1.59784
1.60067
1.60365
1.60495
1.60646
1.60715
1.60724
1.60719
1.60669
1.60638
1.60969
1.61847
1.62839
1.63693
1.64272
1.64793
1.65224
1.65532
1.65866
1.66491
1.67523
1.68778
1.70128
1.71568
1.72699
1.7313
1.73155
1.72939
1.72403
1.7155
1.70577
1.6977
1.69219
1.69003
1.69046
1.69285
1.69422
1.69508
1.69754
1.7024
1.70721
1.70712
1.70668
1.70598
1.70355
1.6995
1.69485
1.6869
1.67513
1.66085
1.64945
1.64151
1.63638
1.63481
1.63539
1.63818
1.64538
1.65589
1.66406
1.6676
1.67005
1.67274
1.67319
1.66983
1.66526
1.66411
1.663
1.66108
1.65869
1.65585
1.65176
1.64437
1.63147
1.61336
1.59358
1.57522
1.5592
1.54621
1.53796
1.5345
1.53389
1.53442
1.53642
1.54144
1.55103
1.55817
1.55948
1.56055
1.56246
1.5665
1.57182
1.57609
1.57916
1.58069
1.58092
1.57922
1.57109
1.55548
1.53593
1.51743
1.50364
1.49163
1.48254
1.47856
1.4771
1.47593
1.47347
1.46693
1.45907
1.45633
1.45476
1.45196
1.447
1.43915
1.42876
1.41661
1.40343
1.3928
1.38933
1.38981
1.39433
1.39888
1.39903
1.3962
1.38971
1.38068
1.36917
1.35636
1.34693
1.34293
1.34274
1.3453
1.3527
1.36453
1.38138
1.40726
1.4493
1.51588
1.6046
1.6686
1.68009
1.67705
1.67112
1.66676
1.65955
1.64919
1.6414
1.63991
1.64299
1.65338
1.66119
1.66735
1.68052
1.70761
1.75473
1.81721
1.86513
1.88292
1.89178
1.89843
1.90344
1.90878
1.91693
1.93059
1.9474
1.95523
1.95519
1.95048
1.93544
1.9131
1.88836
1.8672
1.86119
1.86196
1.86657
1.87703
1.89231
1.90506
1.90614
1.89738
1.8651
1.8043
1.72224
1.66442
1.63629
1.62555
1.62471
1.62731
1.63489
1.64616
1.6572
1.66636
1.67541
1.68378
1.68808
1.69044
1.69335
1.69733
1.69937
1.6996
1.6972
1.68834
1.67764
1.67167
1.66769
1.6621
1.65373
1.64214
1.62926
1.60353
1.54587
1.44991
1.36803
1.34791
1.34768
1.34903
1.35396
1.3789
1.94621
1.95932
1.96678
1.967
1.96665
1.96328
1.95213
1.92916
1.90185
1.88141
1.86124
1.83326
1.80134
1.78079
1.77782
1.77991
1.78648
1.78807
1.7816
1.76861
1.73777
1.6816
1.62474
1.60918
1.60865
1.60923
1.61128
1.6149
1.61726
1.61827
1.61898
1.61946
1.6191
1.61556
1.60708
1.60188
1.60301
1.60554
1.60622
1.60567
1.60501
1.60524
1.60761
1.612
1.61562
1.61879
1.62372
1.63119
1.63886
1.64533
1.65073
1.65488
1.65785
1.66145
1.66884
1.68063
1.69435
1.7107
1.72992
1.74548
1.75325
1.75746
1.75877
1.7508
1.73746
1.7358
1.73449
1.73297
1.73285
1.73532
1.74309
1.75208
1.75664
1.75908
1.7612
1.76045
1.75738
1.75378
1.74832
1.7412
1.73593
1.7332
1.73223
1.73102
1.72452
1.71498
1.70644
1.70045
1.69678
1.69418
1.69363
1.6951
1.70151
1.71131
1.7167
1.71867
1.72055
1.72085
1.71753
1.71219
1.71126
1.71129
1.71063
1.70911
1.70774
1.70727
1.70605
1.69882
1.68111
1.65904
1.63797
1.61829
1.6004
1.58589
1.57672
1.57186
1.57055
1.57178
1.5791
1.59245
1.59948
1.60053
1.60181
1.6043
1.60935
1.61699
1.62339
1.62769
1.629
1.62879
1.62623
1.61843
1.6036
1.58175
1.55504
1.53005
1.51157
1.49479
1.48311
1.47707
1.47383
1.47127
1.46647
1.45788
1.45077
1.44756
1.44453
1.43977
1.43259
1.42351
1.4131
1.40146
1.39157
1.38897
1.38983
1.39223
1.39304
1.39227
1.38897
1.38277
1.37296
1.35825
1.33987
1.32227
1.31389
1.31316
1.31434
1.31891
1.32839
1.34533
1.37443
1.42307
1.49935
1.59135
1.64328
1.64943
1.64578
1.63892
1.63332
1.62508
1.61331
1.60223
1.59772
1.5984
1.60597
1.61588
1.62303
1.63484
1.65937
1.70468
1.77177
1.83375
1.86052
1.8696
1.87509
1.87954
1.88454
1.89175
1.90319
1.9181
1.9307
1.93472
1.93366
1.9279
1.91493
1.89682
1.8783
1.8694
1.86961
1.87209
1.87821
1.88929
1.8996
1.90128
1.89505
1.87394
1.83094
1.76394
1.69978
1.66105
1.6409
1.6362
1.63711
1.64079
1.64829
1.66044
1.67449
1.68738
1.69521
1.69874
1.7016
1.70439
1.70814
1.7106
1.71081
1.7079
1.69668
1.68439
1.68083
1.67834
1.67333
1.66704
1.6585
1.64605
1.62431
1.57927
1.49807
1.40236
1.35503
1.35148
1.35254
1.35627
1.37553
1.92342
1.94229
1.9535
1.9543
1.9539
1.95108
1.94098
1.91892
1.89173
1.87249
1.85545
1.8316
1.80249
1.77737
1.77191
1.77345
1.77999
1.78328
1.77747
1.76599
1.73988
1.69021
1.63125
1.60997
1.60917
1.60984
1.61068
1.61095
1.61283
1.61695
1.62134
1.62494
1.62714
1.62701
1.62161
1.61304
1.61082
1.61173
1.6126
1.61248
1.61233
1.61354
1.61773
1.62267
1.62554
1.62638
1.62657
1.62874
1.63499
1.64321
1.65047
1.65615
1.66153
1.66751
1.67535
1.68618
1.69879
1.71421
1.73161
1.74733
1.75784
1.76148
1.76156
1.76105
1.75952
1.75617
1.75669
1.75941
1.76309
1.77086
1.78367
1.7993
1.81155
1.81533
1.81481
1.81198
1.80792
1.80155
1.79218
1.78423
1.78051
1.77817
1.77794
1.78201
1.78512
1.78288
1.77617
1.76816
1.76312
1.75929
1.75634
1.75568
1.75713
1.76284
1.76892
1.77013
1.77014
1.7692
1.76449
1.75894
1.75808
1.75888
1.75951
1.75953
1.76017
1.7628
1.76425
1.76121
1.74798
1.72828
1.70773
1.68805
1.6692
1.65174
1.63725
1.62712
1.62216
1.6217
1.62563
1.63665
1.64587
1.64863
1.64968
1.65167
1.65593
1.66297
1.66934
1.67275
1.67317
1.67236
1.66889
1.66156
1.64908
1.6299
1.60356
1.57274
1.54548
1.52407
1.50177
1.48546
1.4769
1.47153
1.46648
1.45915
1.44986
1.44287
1.43836
1.43362
1.42721
1.41872
1.40881
1.39884
1.39276
1.3929
1.39395
1.39282
1.39053
1.38847
1.38521
1.38009
1.37076
1.3544
1.33379
1.3097
1.2923
1.28757
1.28773
1.29024
1.29802
1.3149
1.34644
1.40037
1.48126
1.56346
1.59548
1.59731
1.5939
1.58746
1.5805
1.57107
1.55888
1.54774
1.54254
1.54239
1.54777
1.55811
1.56826
1.58345
1.61217
1.66377
1.73882
1.80664
1.83408
1.84095
1.84397
1.8463
1.84938
1.85448
1.86452
1.87917
1.89189
1.90167
1.90752
1.90904
1.90667
1.89832
1.88599
1.87491
1.87321
1.87461
1.878
1.88523
1.89291
1.89532
1.89273
1.88044
1.8531
1.80587
1.74982
1.70275
1.67193
1.65676
1.65416
1.65414
1.65707
1.66961
1.69021
1.70387
1.70756
1.70973
1.71465
1.71743
1.71824
1.71991
1.7198
1.71643
1.70557
1.69204
1.68794
1.68649
1.68276
1.6777
1.67208
1.66321
1.64701
1.61534
1.55646
1.47068
1.39219
1.36379
1.36332
1.36543
1.37851
1.89878
1.92309
1.93613
1.93739
1.93675
1.93396
1.92422
1.90313
1.87776
1.86063
1.84827
1.82966
1.80334
1.77565
1.76603
1.76703
1.77363
1.77798
1.77376
1.76506
1.74532
1.70233
1.64122
1.6111
1.60896
1.60961
1.60986
1.61023
1.61271
1.61924
1.62917
1.63682
1.63983
1.63994
1.63673
1.62816
1.62461
1.62535
1.62637
1.62824
1.63137
1.63509
1.63739
1.63796
1.6366
1.63093
1.62548
1.62537
1.62893
1.63656
1.64706
1.6556
1.66397
1.67321
1.68304
1.69287
1.70242
1.71278
1.72408
1.73604
1.74624
1.75306
1.75826
1.76262
1.76715
1.76946
1.77086
1.77576
1.78211
1.78964
1.8041
1.82404
1.84174
1.84729
1.8475
1.8477
1.84653
1.84037
1.82914
1.82247
1.82057
1.819
1.8187
1.82208
1.83088
1.83509
1.83447
1.831
1.82337
1.81721
1.81428
1.81182
1.81074
1.81135
1.81425
1.81529
1.8138
1.81033
1.80459
1.79978
1.79939
1.80038
1.80132
1.8018
1.80283
1.80588
1.80872
1.80807
1.80052
1.78567
1.7686
1.74953
1.73246
1.71678
1.70174
1.68975
1.68241
1.67991
1.68042
1.68433
1.69068
1.69558
1.69685
1.69714
1.69881
1.70239
1.70641
1.7078
1.70757
1.70576
1.70104
1.69325
1.68228
1.66731
1.6474
1.62178
1.59268
1.56715
1.54181
1.51282
1.49147
1.47784
1.46905
1.46113
1.45198
1.44267
1.43607
1.43105
1.42443
1.41501
1.40429
1.397
1.39679
1.40124
1.40097
1.39515
1.39155
1.38854
1.38466
1.37973
1.37028
1.35539
1.33558
1.30944
1.28079
1.26818
1.26706
1.26859
1.27539
1.29163
1.32351
1.37864
1.45368
1.5094
1.52084
1.5203
1.51739
1.51211
1.50497
1.4961
1.48605
1.4781
1.47557
1.47657
1.48354
1.49555
1.50996
1.53185
1.56952
1.63262
1.71865
1.78703
1.8076
1.81082
1.81106
1.81079
1.81107
1.81267
1.8186
1.82968
1.84163
1.85521
1.86837
1.88024
1.88807
1.889
1.88627
1.87729
1.87306
1.87441
1.87683
1.88022
1.88511
1.88815
1.88781
1.88205
1.86536
1.83595
1.79574
1.75105
1.71327
1.68905
1.67968
1.67607
1.67675
1.68847
1.71046
1.72053
1.72265
1.72432
1.729
1.73151
1.73039
1.7292
1.72664
1.72113
1.71171
1.69963
1.69196
1.69053
1.6879
1.68405
1.6804
1.67581
1.66609
1.64593
1.60846
1.54743
1.47047
1.40748
1.38627
1.38622
1.39241
1.87269
1.90167
1.91442
1.91549
1.9143
1.91063
1.90038
1.88097
1.86036
1.84489
1.83723
1.8249
1.80304
1.77491
1.75979
1.75989
1.76549
1.77292
1.77161
1.76464
1.7508
1.71426
1.65477
1.61405
1.60887
1.60882
1.6085
1.60936
1.61333
1.62153
1.63406
1.64751
1.65549
1.65744
1.6557
1.64821
1.64573
1.64791
1.65106
1.65529
1.66185
1.6649
1.66298
1.65715
1.64853
1.63618
1.62691
1.62588
1.62694
1.63059
1.64044
1.65593
1.66796
1.67644
1.68542
1.69427
1.70158
1.70717
1.71096
1.7145
1.72036
1.73179
1.74555
1.75541
1.76323
1.77054
1.77591
1.78224
1.791
1.80012
1.81156
1.82974
1.8467
1.8523
1.85566
1.85897
1.86008
1.85824
1.85154
1.84798
1.84768
1.84777
1.84868
1.85215
1.86018
1.86906
1.87245
1.87235
1.86974
1.86376
1.85787
1.85421
1.85104
1.84879
1.84857
1.84856
1.84621
1.84126
1.83514
1.83091
1.83084
1.83101
1.83082
1.83046
1.83039
1.83173
1.83496
1.83588
1.83247
1.82238
1.80958
1.79535
1.78159
1.77043
1.75902
1.74864
1.74067
1.73499
1.73139
1.73069
1.7313
1.73289
1.73347
1.73297
1.73239
1.73273
1.73395
1.73366
1.73175
1.7277
1.72108
1.71217
1.70161
1.68989
1.67656
1.66024
1.63983
1.61689
1.59297
1.5611
1.52597
1.5002
1.48216
1.46778
1.45653
1.44634
1.43812
1.4318
1.42406
1.41336
1.4028
1.39893
1.40219
1.40927
1.40665
1.39854
1.39519
1.39262
1.38926
1.38452
1.37447
1.36059
1.34201
1.31543
1.28084
1.25552
1.25079
1.25161
1.25734
1.27205
1.301
1.34943
1.40489
1.43129
1.43364
1.43306
1.43026
1.42497
1.41877
1.41281
1.40754
1.40573
1.40624
1.41029
1.4207
1.43539
1.45535
1.48473
1.53127
1.60527
1.70327
1.77101
1.78119
1.78097
1.78012
1.77803
1.77519
1.77417
1.77516
1.78085
1.79001
1.80221
1.81741
1.83448
1.85226
1.86849
1.87551
1.87444
1.86962
1.86958
1.87097
1.87259
1.87565
1.87989
1.88126
1.87942
1.87093
1.85363
1.82575
1.78912
1.75392
1.72922
1.71422
1.70696
1.70609
1.71479
1.73253
1.73994
1.7412
1.74194
1.74271
1.74402
1.74362
1.74045
1.7343
1.72565
1.7154
1.7051
1.6949
1.68979
1.68882
1.68669
1.68371
1.68033
1.67534
1.66489
1.64494
1.60986
1.55676
1.49338
1.44227
1.42126
1.4205
1.8466
1.87692
1.88754
1.8882
1.88642
1.88108
1.86976
1.85258
1.83908
1.82798
1.82161
1.81472
1.79898
1.77217
1.75137
1.75001
1.75406
1.76568
1.76821
1.76393
1.75437
1.72555
1.67095
1.62069
1.60938
1.60802
1.60714
1.6079
1.61232
1.62248
1.63932
1.65929
1.67403
1.67914
1.67827
1.67331
1.6733
1.67849
1.6847
1.69299
1.70101
1.70186
1.69724
1.68653
1.67217
1.65435
1.63992
1.63506
1.6343
1.6349
1.64188
1.66037
1.67762
1.68441
1.69013
1.6965
1.70009
1.69993
1.69718
1.69598
1.69985
1.71168
1.72908
1.744
1.75462
1.76389
1.77205
1.77896
1.78826
1.80096
1.81384
1.82656
1.83995
1.85186
1.85863
1.86366
1.86759
1.86869
1.86665
1.8621
1.86132
1.86207
1.86483
1.86959
1.87733
1.88765
1.89458
1.89608
1.89526
1.89193
1.88602
1.87976
1.8762
1.87316
1.87117
1.86983
1.86724
1.8624
1.85655
1.85203
1.85095
1.84986
1.84812
1.84611
1.84494
1.84496
1.84728
1.84963
1.84787
1.84017
1.83041
1.82017
1.81016
1.8026
1.79601
1.78993
1.78438
1.77905
1.77371
1.76868
1.76431
1.76065
1.75766
1.75524
1.75388
1.75418
1.75427
1.75165
1.74677
1.74103
1.7336
1.72396
1.7133
1.70278
1.69226
1.6814
1.67012
1.65802
1.64259
1.61619
1.57761
1.54021
1.51061
1.4885
1.46982
1.4554
1.44456
1.43644
1.42744
1.41585
1.40603
1.40406
1.4099
1.41639
1.41183
1.40379
1.4021
1.40089
1.39863
1.39474
1.38615
1.3722
1.35471
1.3277
1.29007
1.25271
1.23834
1.23783
1.24175
1.25459
1.2784
1.31157
1.34197
1.35027
1.35045
1.34959
1.34635
1.34173
1.33765
1.33498
1.33512
1.33704
1.34193
1.35138
1.36597
1.38534
1.41069
1.44564
1.49703
1.57563
1.68099
1.75086
1.75739
1.75633
1.7542
1.75051
1.74524
1.74083
1.73965
1.74141
1.74876
1.7574
1.76798
1.78271
1.80222
1.82491
1.84625
1.8599
1.86215
1.86182
1.86328
1.86511
1.86739
1.87016
1.87278
1.87319
1.86918
1.85885
1.84226
1.81485
1.78476
1.76443
1.7497
1.74098
1.73945
1.74507
1.75799
1.76205
1.76159
1.75973
1.75695
1.75514
1.7536
1.75114
1.74521
1.7342
1.72107
1.70889
1.69859
1.68957
1.68315
1.68293
1.6818
1.67824
1.67444
1.67113
1.66387
1.64927
1.62233
1.57922
1.5272
1.48817
1.46313
1.82158
1.84934
1.85658
1.85652
1.85389
1.84696
1.83363
1.81813
1.81166
1.80918
1.8038
1.79793
1.78707
1.76451
1.74097
1.73768
1.74084
1.75354
1.76364
1.76207
1.75625
1.73576
1.68889
1.63036
1.6093
1.6062
1.60541
1.60627
1.61111
1.6225
1.64125
1.66571
1.68814
1.69885
1.69946
1.69862
1.70227
1.71163
1.72062
1.72969
1.7379
1.73973
1.73671
1.72698
1.71045
1.68763
1.66899
1.66099
1.65685
1.65516
1.6575
1.67185
1.69325
1.6999
1.70082
1.70262
1.70276
1.69702
1.68811
1.68697
1.69173
1.70239
1.71692
1.73376
1.74728
1.75733
1.7666
1.77486
1.7825
1.79329
1.80756
1.82048
1.83152
1.84356
1.85367
1.86025
1.86577
1.87064
1.87213
1.8703
1.86836
1.86962
1.87266
1.87711
1.88445
1.89541
1.90447
1.90652
1.9062
1.90484
1.90179
1.8956
1.88994
1.88678
1.884
1.88163
1.8791
1.8755
1.87106
1.86652
1.86399
1.86178
1.85902
1.8559
1.85347
1.85299
1.85434
1.85736
1.857
1.85067
1.84178
1.83374
1.82598
1.81957
1.81529
1.81181
1.80875
1.8055
1.8013
1.79531
1.78741
1.77897
1.77226
1.7685
1.76796
1.76907
1.76889
1.76391
1.75548
1.74781
1.74043
1.73124
1.72058
1.70954
1.69906
1.69053
1.68582
1.6839
1.67945
1.66027
1.6263
1.58918
1.55409
1.52164
1.49504
1.47442
1.45788
1.44652
1.43578
1.42332
1.41356
1.41222
1.41927
1.42418
1.41849
1.41053
1.41031
1.41049
1.40949
1.4068
1.40083
1.3876
1.37129
1.3466
1.3075
1.26118
1.23289
1.22753
1.22899
1.23815
1.25461
1.27173
1.28183
1.28441
1.28468
1.28427
1.28235
1.2788
1.27628
1.27645
1.27812
1.28214
1.29016
1.30394
1.32336
1.34747
1.37684
1.41436
1.46578
1.5398
1.63754
1.71656
1.73503
1.73469
1.73297
1.72944
1.72443
1.72014
1.71956
1.72089
1.72597
1.73209
1.73621
1.74247
1.75425
1.77217
1.79476
1.81835
1.83827
1.85027
1.85461
1.85691
1.85837
1.85979
1.86171
1.86264
1.86183
1.85651
1.84648
1.82999
1.80849
1.79075
1.77819
1.76966
1.76781
1.77168
1.78012
1.78109
1.77823
1.7728
1.76796
1.76488
1.76207
1.75946
1.75516
1.74616
1.73218
1.71312
1.6953
1.68383
1.67597
1.67133
1.67044
1.66972
1.66697
1.66469
1.6647
1.66264
1.65435
1.63286
1.59523
1.56056
1.52375
1.79711
1.8176
1.82141
1.82075
1.81663
1.80827
1.79428
1.78105
1.77899
1.78013
1.77857
1.7728
1.76466
1.7479
1.72667
1.72238
1.72511
1.73765
1.75732
1.76082
1.75793
1.74404
1.70524
1.6445
1.61116
1.60493
1.60362
1.60448
1.60937
1.62075
1.6398
1.6662
1.69256
1.70813
1.71296
1.71599
1.72435
1.73614
1.74783
1.75975
1.76905
1.77119
1.77031
1.76445
1.74872
1.7242
1.70489
1.69633
1.69038
1.68673
1.68736
1.6976
1.71526
1.72225
1.7201
1.71565
1.71068
1.70122
1.69202
1.69127
1.69492
1.70248
1.71273
1.72798
1.74358
1.75409
1.76272
1.7704
1.77716
1.78447
1.79568
1.81057
1.82451
1.83614
1.84679
1.85484
1.86137
1.86748
1.87189
1.87256
1.8713
1.87211
1.87628
1.88103
1.88708
1.8972
1.90666
1.90934
1.90944
1.90925
1.90811
1.90398
1.89704
1.89226
1.88927
1.88703
1.88532
1.88363
1.88066
1.87684
1.87314
1.86988
1.86679
1.86339
1.85997
1.85822
1.85873
1.86054
1.86067
1.85627
1.84719
1.83927
1.83328
1.82813
1.82424
1.82203
1.82034
1.81833
1.81466
1.80889
1.79997
1.78968
1.78141
1.7776
1.77768
1.7802
1.77958
1.77192
1.76177
1.75195
1.74392
1.73571
1.72514
1.71341
1.70252
1.69488
1.69274
1.69468
1.69408
1.67983
1.65405
1.62503
1.59314
1.5608
1.52775
1.49914
1.47664
1.46054
1.4476
1.43527
1.42703
1.42656
1.43324
1.43597
1.429
1.41923
1.41834
1.41907
1.41867
1.41665
1.41245
1.40224
1.38669
1.36663
1.33276
1.28363
1.23963
1.22255
1.22141
1.22449
1.23431
1.24261
1.24637
1.24874
1.24986
1.2501
1.24716
1.24053
1.23653
1.23635
1.23713
1.24112
1.25156
1.26923
1.29207
1.31931
1.35133
1.389
1.43572
1.49726
1.5754
1.65307
1.69919
1.7131
1.71497
1.71414
1.712
1.70976
1.70872
1.70809
1.70825
1.7086
1.71052
1.71249
1.71729
1.72759
1.74359
1.76538
1.79111
1.81509
1.83124
1.83988
1.84444
1.84627
1.84728
1.84825
1.84803
1.84608
1.84089
1.83251
1.82159
1.80844
1.79768
1.79084
1.78905
1.79145
1.7942
1.79195
1.78588
1.779
1.77433
1.76958
1.76705
1.76634
1.76458
1.7573
1.74182
1.71733
1.68959
1.66959
1.65841
1.6539
1.6519
1.65165
1.65391
1.6562
1.6558
1.65504
1.65445
1.64822
1.63269
1.61604
1.58591
1.76972
1.78128
1.78228
1.78072
1.77417
1.76468
1.75217
1.74027
1.7382
1.73947
1.73922
1.73444
1.72774
1.71776
1.70401
1.70112
1.70428
1.71766
1.74532
1.76171
1.75973
1.75112
1.72246
1.6655
1.61769
1.60445
1.60143
1.60159
1.60534
1.61614
1.63467
1.66106
1.68975
1.70882
1.71556
1.72178
1.73446
1.7479
1.76126
1.77612
1.78693
1.78971
1.78958
1.78646
1.77454
1.75341
1.73751
1.7302
1.72467
1.72115
1.72107
1.72828
1.7452
1.7517
1.74877
1.7391
1.72883
1.71817
1.70798
1.7054
1.70647
1.7099
1.71633
1.72806
1.74319
1.7541
1.76166
1.76818
1.7741
1.78059
1.78928
1.80214
1.81745
1.83087
1.84214
1.85105
1.85729
1.863
1.86845
1.87113
1.87098
1.87102
1.87576
1.8824
1.88834
1.89644
1.90549
1.90927
1.9098
1.90996
1.90959
1.90648
1.89841
1.89177
1.88976
1.88878
1.88768
1.88675
1.88626
1.88465
1.8809
1.87693
1.87351
1.87036
1.86725
1.86443
1.86258
1.86208
1.86145
1.8584
1.85109
1.84189
1.83544
1.83178
1.8288
1.82608
1.82372
1.82129
1.81697
1.80938
1.80073
1.79258
1.78634
1.78422
1.78633
1.79035
1.78714
1.77548
1.76478
1.75521
1.745
1.73716
1.72747
1.71618
1.70545
1.69729
1.69437
1.695
1.69453
1.68478
1.66541
1.64389
1.6171
1.58772
1.55691
1.52489
1.49667
1.47563
1.46074
1.45003
1.44527
1.44691
1.45401
1.45342
1.44274
1.43052
1.42518
1.42416
1.42288
1.42059
1.41773
1.41186
1.39945
1.38371
1.35888
1.31707
1.26457
1.2282
1.21993
1.22102
1.22731
1.23166
1.23161
1.23123
1.22912
1.22728
1.22384
1.2181
1.21226
1.21006
1.21078
1.21571
1.22803
1.2464
1.269
1.29669
1.32971
1.36602
1.40533
1.45073
1.50554
1.56901
1.62973
1.66986
1.69244
1.70225
1.70267
1.7021
1.70138
1.69996
1.69706
1.69395
1.69229
1.69347
1.69676
1.70086
1.7084
1.72177
1.74122
1.76423
1.78563
1.80148
1.81344
1.82297
1.82806
1.82873
1.82818
1.82762
1.82747
1.82607
1.82241
1.81631
1.81074
1.80681
1.80392
1.80289
1.80079
1.79445
1.78615
1.78085
1.77553
1.7702
1.76844
1.76979
1.77028
1.76421
1.74671
1.71971
1.68376
1.65168
1.63362
1.6267
1.62552
1.62592
1.6293
1.63752
1.64566
1.65148
1.65711
1.66017
1.65678
1.65131
1.62953
1.73579
1.74045
1.74009
1.73586
1.72753
1.71743
1.70539
1.69381
1.68818
1.68708
1.68596
1.68107
1.67641
1.67359
1.66959
1.66969
1.6756
1.69251
1.72831
1.76341
1.76551
1.76051
1.73707
1.68762
1.62902
1.60438
1.59949
1.59908
1.60073
1.60867
1.62575
1.64973
1.67739
1.6991
1.70937
1.72009
1.7359
1.75075
1.76447
1.78085
1.79174
1.79429
1.79456
1.79388
1.78753
1.77255
1.76073
1.75528
1.7506
1.74718
1.74701
1.7529
1.76757
1.77757
1.77683
1.76861
1.75767
1.74693
1.73488
1.72691
1.72574
1.72616
1.72817
1.73443
1.74649
1.75677
1.76305
1.76861
1.77385
1.77962
1.78729
1.79784
1.81213
1.82739
1.83977
1.84912
1.85511
1.85904
1.8635
1.8671
1.868
1.86806
1.87164
1.88024
1.88757
1.89433
1.90264
1.90784
1.90883
1.90909
1.90891
1.9062
1.8986
1.89212
1.89036
1.88931
1.8883
1.88811
1.88863
1.88858
1.88671
1.88324
1.8798
1.87673
1.87382
1.87087
1.86751
1.8642
1.86179
1.85888
1.85311
1.84459
1.83578
1.82969
1.82579
1.82279
1.81934
1.81509
1.81068
1.80683
1.80278
1.79751
1.7928
1.79201
1.79628
1.79881
1.79061
1.77514
1.76429
1.75516
1.74438
1.73614
1.72785
1.71754
1.70697
1.69821
1.69316
1.69247
1.6927
1.68714
1.6706
1.65157
1.62962
1.59943
1.57035
1.54143
1.51238
1.48942
1.47428
1.46545
1.46311
1.4676
1.47672
1.47473
1.46025
1.44445
1.43358
1.42742
1.42378
1.42077
1.41827
1.41508
1.40759
1.39563
1.37934
1.35017
1.30428
1.2534
1.22491
1.22268
1.22436
1.22472
1.22322
1.22123
1.21943
1.21652
1.21321
1.20812
1.20245
1.19952
1.19948
1.20371
1.215
1.23074
1.25108
1.27713
1.30793
1.34061
1.37264
1.40429
1.43882
1.4811
1.53418
1.59303
1.64354
1.67732
1.69332
1.69549
1.69516
1.69368
1.68955
1.6849
1.68441
1.68682
1.6904
1.6914
1.69257
1.69607
1.70484
1.71809
1.73384
1.75055
1.76631
1.78008
1.79031
1.79651
1.79999
1.80323
1.80792
1.81254
1.81544
1.8161
1.81583
1.81422
1.81088
1.80558
1.79822
1.78978
1.78372
1.77895
1.7731
1.76796
1.76678
1.7698
1.77178
1.76593
1.74717
1.71832
1.67804
1.63341
1.60528
1.59337
1.5914
1.59223
1.5962
1.6068
1.6235
1.63868
1.65098
1.66383
1.66925
1.66922
1.65288
1.69528
1.69633
1.69442
1.68808
1.67919
1.66736
1.65293
1.63998
1.63164
1.6271
1.62415
1.61989
1.61956
1.62198
1.62484
1.62966
1.6412
1.6654
1.71214
1.76599
1.77626
1.77217
1.75518
1.71169
1.64884
1.60807
1.59767
1.59638
1.59685
1.60099
1.61448
1.6356
1.65719
1.67705
1.69339
1.70891
1.72653
1.74367
1.75865
1.77378
1.78795
1.79399
1.79493
1.79494
1.79158
1.78053
1.7717
1.76859
1.766
1.76372
1.76308
1.76539
1.77752
1.78986
1.79183
1.78818
1.77989
1.77062
1.7611
1.75174
1.7466
1.74557
1.74555
1.74707
1.75401
1.76273
1.76718
1.77119
1.77587
1.78052
1.78675
1.79621
1.80906
1.82475
1.8389
1.84923
1.85496
1.85722
1.85934
1.86204
1.86325
1.86389
1.86615
1.87394
1.8834
1.89122
1.89906
1.90481
1.90638
1.90685
1.90677
1.90424
1.8965
1.88995
1.88826
1.88738
1.88674
1.88687
1.88842
1.88936
1.88896
1.88752
1.88556
1.88256
1.87847
1.87436
1.87048
1.86662
1.86329
1.86029
1.85477
1.84545
1.83463
1.82434
1.81728
1.81296
1.80913
1.8048
1.80227
1.80134
1.80025
1.79936
1.7994
1.80206
1.80629
1.80474
1.79017
1.77145
1.75955
1.75056
1.74038
1.73253
1.72627
1.71749
1.70734
1.69854
1.69313
1.69093
1.6899
1.68402
1.66842
1.64999
1.6311
1.60482
1.57538
1.54885
1.52085
1.49811
1.48419
1.47739
1.47689
1.48585
1.49725
1.49462
1.47892
1.45895
1.44291
1.4308
1.42383
1.41984
1.41756
1.41621
1.41273
1.404
1.39253
1.37492
1.34273
1.29558
1.25173
1.23114
1.22636
1.22384
1.22139
1.21862
1.21495
1.21224
1.21073
1.20853
1.20256
1.19778
1.1977
1.20046
1.20747
1.21777
1.23389
1.25722
1.28449
1.3117
1.33669
1.35864
1.3791
1.4032
1.43855
1.49203
1.56123
1.62469
1.66695
1.68579
1.68809
1.6878
1.68624
1.68294
1.68206
1.68373
1.6893
1.69175
1.68893
1.6838
1.68346
1.68565
1.69177
1.70241
1.71562
1.72734
1.73659
1.74531
1.75486
1.76565
1.77809
1.78983
1.80024
1.80832
1.81139
1.81146
1.809
1.79998
1.78972
1.78443
1.78042
1.77498
1.76777
1.7622
1.76161
1.76584
1.76828
1.76216
1.74247
1.71196
1.67086
1.61847
1.57666
1.55712
1.55216
1.55275
1.55647
1.56717
1.58903
1.61563
1.64147
1.66443
1.67546
1.67573
1.66335
1.65181
1.65094
1.6462
1.63934
1.62924
1.61366
1.59607
1.58208
1.57328
1.56779
1.56531
1.56503
1.56789
1.57281
1.57874
1.58834
1.60591
1.63958
1.70003
1.76834
1.78812
1.78548
1.77378
1.73702
1.67484
1.61838
1.59775
1.59432
1.59416
1.59496
1.60236
1.62063
1.63818
1.65093
1.66581
1.68458
1.70447
1.72203
1.73941
1.75699
1.77311
1.78547
1.79028
1.79136
1.79024
1.78376
1.77638
1.77401
1.7723
1.77131
1.77133
1.77281
1.77958
1.7932
1.79846
1.79604
1.78902
1.78243
1.77674
1.7691
1.76105
1.7576
1.75677
1.75681
1.75958
1.76681
1.77131
1.77383
1.77732
1.78172
1.78663
1.79486
1.80764
1.82305
1.83852
1.84995
1.856
1.85735
1.8577
1.85836
1.85928
1.85979
1.86136
1.86669
1.87635
1.88604
1.8942
1.89972
1.9017
1.90236
1.90232
1.89984
1.89191
1.88511
1.88369
1.88324
1.88316
1.88419
1.88736
1.88974
1.89001
1.88968
1.88837
1.88493
1.88017
1.87504
1.871
1.86751
1.86422
1.86094
1.85527
1.84515
1.83198
1.81764
1.80447
1.79637
1.7917
1.78849
1.78751
1.78842
1.79116
1.79569
1.80352
1.81088
1.81161
1.80661
1.78816
1.76478
1.74944
1.73984
1.73113
1.72476
1.72079
1.71482
1.70674
1.699
1.69339
1.69068
1.68775
1.67887
1.66194
1.64298
1.62466
1.60222
1.57536
1.55057
1.5236
1.50175
1.48999
1.48517
1.48569
1.49784
1.51053
1.50783
1.49328
1.47218
1.45128
1.43402
1.42293
1.41726
1.41519
1.41484
1.41389
1.40934
1.40061
1.38968
1.37005
1.33548
1.29254
1.25986
1.24063
1.23062
1.22523
1.22064
1.21672
1.21577
1.21476
1.21426
1.21258
1.20586
1.19973