/*--------------------------------*- C++ -*----------------------------------*\
  =========                 |
  \\      /  F ield         | OpenFOAM: The Open Source CFD Toolbox
   \\    /   O peration     | Website:  https://openfoam.org
    \\  /    A nd           | Version:  7
     \\/     M anipulation  |
\*---------------------------------------------------------------------------*/
FoamFile
{
    version     2.0;
    format      ascii;
    class       volVectorField;
    location    "2.9";
    object      U;
}
// * * * * * * * * * * * * * * * * * * * * * * * * * * * * * * * * * * * * * //

dimensions      [0 1 -1 0 0 0 0];

internalField   nonuniform List<vector> 
16512
(
(2.15053 0.240487 0)
(2.16075 0.2306 0)
(2.16877 0.219143 0)
(2.17218 0.206928 0)
(2.16985 0.195489 0)
(2.17244 0.188209 0)
(2.18219 0.184122 0)
(2.19271 0.179583 0)
(2.20336 0.173244 0)
(2.21337 0.165681 0)
(2.222 0.157348 0)
(2.2279 0.14707 0)
(2.22863 0.132945 0)
(2.22839 0.118614 0)
(2.23579 0.112085 0)
(2.24519 0.109124 0)
(2.25481 0.105673 0)
(2.26436 0.101725 0)
(2.27352 0.0976275 0)
(2.28185 0.0932109 0)
(2.28752 0.0868059 0)
(2.28727 0.0744721 0)
(2.28449 0.0563032 0)
(2.28993 0.046361 0)
(2.29861 0.0429678 0)
(2.30773 0.0395948 0)
(2.31642 0.0350712 0)
(2.32458 0.0294362 0)
(2.33156 0.0226882 0)
(2.33679 0.0169569 0)
(2.33926 0.00910428 0)
(2.33682 -0.00286457 0)
(2.33381 -0.0131313 0)
(2.33875 -0.0198224 0)
(2.3458 -0.0242473 0)
(2.35174 -0.0279306 0)
(2.35891 -0.0339349 0)
(2.36535 -0.0417143 0)
(2.3709 -0.0479587 0)
(2.37626 -0.055329 0)
(2.37862 -0.0636715 0)
(2.37615 -0.0713219 0)
(2.37414 -0.077919 0)
(2.38036 -0.0818692 0)
(2.3873 -0.0847123 0)
(2.3948 -0.0892203 0)
(2.40134 -0.0940825 0)
(2.40889 -0.0998111 0)
(2.41557 -0.106572 0)
(2.42119 -0.111998 0)
(2.42493 -0.118375 0)
(2.4231 -0.126403 0)
(2.41698 -0.136116 0)
(2.41998 -0.140379 0)
(2.42521 -0.142936 0)
(2.4299 -0.146174 0)
(2.43682 -0.149959 0)
(2.44331 -0.155386 0)
(2.44871 -0.160216 0)
(2.45417 -0.164808 0)
(2.45828 -0.169192 0)
(2.4605 -0.177777 0)
(2.45903 -0.185802 0)
(2.45785 -0.191172 0)
(2.46347 -0.195441 0)
(2.46899 -0.19863 0)
(2.47375 -0.201651 0)
(2.47826 -0.205396 0)
(2.48185 -0.209644 0)
(2.48516 -0.213029 0)
(2.48782 -0.216722 0)
(2.48696 -0.222065 0)
(2.48187 -0.231362 0)
(2.48413 -0.238085 0)
(2.48825 -0.241373 0)
(2.49252 -0.24484 0)
(2.49819 -0.248448 0)
(2.50291 -0.252883 0)
(2.50599 -0.255605 0)
(2.50974 -0.257653 0)
(2.51312 -0.261786 0)
(2.5141 -0.268183 0)
(2.5112 -0.274743 0)
(2.5098 -0.282012 0)
(2.51205 -0.286042 0)
(2.51625 -0.28824 0)
(2.52074 -0.290716 0)
(2.52473 -0.293952 0)
(2.52865 -0.296704 0)
(2.53257 -0.298786 0)
(2.5361 -0.300952 0)
(2.53797 -0.305511 0)
(2.53693 -0.310856 0)
(2.5356 -0.316897 0)
(2.53921 -0.320151 0)
(2.54271 -0.322345 0)
(2.54585 -0.324665 0)
(2.54919 -0.328112 0)
(2.55185 -0.333247 0)
(2.55366 -0.337626 0)
(2.55422 -0.342048 0)
(2.55527 -0.34628 0)
(2.55953 -0.348528 0)
(2.56314 -0.350313 0)
(2.56682 -0.352982 0)
(2.56962 -0.355954 0)
(2.57198 -0.359213 0)
(2.5734 -0.361952 0)
(2.57433 -0.364626 0)
(2.57376 -0.368743 0)
(2.57053 -0.374947 0)
(2.57244 -0.379986 0)
(2.57662 -0.380882 0)
(2.57874 -0.381839 0)
(2.58091 -0.3835 0)
(2.58381 -0.387041 0)
(2.58547 -0.388587 0)
(2.58851 -0.390998 0)
(2.5926 -0.396041 0)
(2.59674 -0.399475 0)
(2.59971 -0.402368 0)
(2.5978 -0.407868 0)
(2.59491 -0.40965 0)
(2.59413 -0.408778 0)
(2.59082 -0.403756 0)
(2.58254 -0.384495 0)
(2.55756 -0.330014 0)
(2.5289 -0.25367 0)
(2.49045 -0.150225 0)
(2.44644 -0.0534869 0)
(2.43798 -0.0459105 0)
(2.4204 -0.0242493 0)
(2.39839 -0.00576729 0)
(2.3884 0.00338005 0)
(2.38475 0.0102913 0)
(2.38846 0.0177556 0)
(2.3927 0.0232651 0)
(2.39219 0.0238438 0)
(2.39066 0.0235763 0)
(2.38935 0.0234986 0)
(2.38775 0.0238378 0)
(2.38503 0.0253434 0)
(2.38089 0.0283595 0)
(2.37912 0.0298834 0)
(2.37775 0.0316188 0)
(2.37834 0.0344922 0)
(2.38251 0.0385004 0)
(2.38747 0.0415766 0)
(2.3885 0.0419348 0)
(2.38855 0.0416416 0)
(2.38842 0.0407605 0)
(2.38722 0.0384735 0)
(2.38276 0.0344844 0)
(2.37757 0.0314938 0)
(2.37647 0.0312082 0)
(2.37664 0.0328545 0)
(2.37913 0.0373766 0)
(2.38467 0.0433938 0)
(2.38794 0.046141 0)
(2.38809 0.046103 0)
(2.38666 0.0449101 0)
(2.38225 0.0423259 0)
(2.37696 0.0387583 0)
(2.37578 0.0375058 0)
(2.37649 0.0371793 0)
(2.37714 0.0368235 0)
(2.3792 0.0366689 0)
(2.38391 0.0383669 0)
(2.38796 0.0408791 0)
(2.3887 0.0420085 0)
(2.38852 0.0431783 0)
(2.38696 0.0452148 0)
(2.38539 0.0471374 0)
(2.38528 0.0481921 0)
(2.38574 0.049476 0)
(2.38736 0.0512299 0)
(2.39101 0.0529392 0)
(2.39363 0.0534599 0)
(2.39442 0.0532625 0)
(2.39493 0.0525031 0)
(2.39365 0.0508502 0)
(2.38928 0.0474528 0)
(2.38359 0.0438374 0)
(2.38189 0.0431256 0)
(2.38149 0.0436277 0)
(2.38195 0.0451264 0)
(2.38479 0.0479504 0)
(2.38912 0.0505811 0)
(2.39094 0.0509744 0)
(2.39109 0.0507385 0)
(2.3909 0.0500022 0)
(2.38858 0.0478779 0)
(2.38228 0.0440864 0)
(2.37592 0.0408008 0)
(2.37456 0.0404802 0)
(2.37448 0.0408837 0)
(2.37466 0.0416925 0)
(2.37601 0.0431405 0)
(2.38025 0.0461241 0)
(2.38671 0.0499538 0)
(2.38964 0.051584 0)
(2.38987 0.0517885 0)
(2.38995 0.0520832 0)
(2.38943 0.05225 0)
(2.38696 0.0512301 0)
(2.38228 0.0486112 0)
(2.38053 0.0468974 0)
(2.38129 0.0463101 0)
(2.38228 0.0458578 0)
(2.38351 0.0453879 0)
(2.38525 0.045184 0)
(2.38741 0.0454483 0)
(2.38821 0.0455578 0)
(2.389 0.0455828 0)
(2.38935 0.045488 0)
(2.38952 0.0453803 0)
(2.3898 0.0454444 0)
(2.39051 0.0458147 0)
(2.39153 0.0474063 0)
(2.38971 0.0439813 0)
(2.30616 -0.0598825 0)
(1.82041 -0.422106 0)
(1.59128 -0.540491 0)
(1.55977 -0.533511 0)
(1.56862 -0.537009 0)
(1.57948 -0.543429 0)
(1.5922 -0.547541 0)
(1.60688 -0.545034 0)
(1.61853 -0.542393 0)
(1.62353 -0.543188 0)
(1.6268 -0.545881 0)
(1.62859 -0.549682 0)
(1.62945 -0.553558 0)
(1.63219 -0.555727 0)
(1.63642 -0.556851 0)
(1.64659 -0.558067 0)
(1.66213 -0.557348 0)
(1.67356 -0.55647 0)
(1.6777 -0.557516 0)
(1.68008 -0.560143 0)
(1.67967 -0.563413 0)
(1.67995 -0.567126 0)
(1.68264 -0.570105 0)
(1.686 -0.573131 0)
(1.69203 -0.57672 0)
(1.70134 -0.57864 0)
(1.71255 -0.577344 0)
(1.72284 -0.573688 0)
(1.72817 -0.571406 0)
(1.73226 -0.570984 0)
(1.73522 -0.570166 0)
(1.73708 -0.570412 0)
(1.73956 -0.572244 0)
(1.74341 -0.574299 0)
(1.74794 -0.575846 0)
(1.75285 -0.577169 0)
(1.76025 -0.577951 0)
(1.7703 -0.576881 0)
(2.14935 0.247875 0)
(2.15817 0.238178 0)
(2.16506 0.22715 0)
(2.16895 0.215667 0)
(2.17081 0.206604 0)
(2.17527 0.200862 0)
(2.18373 0.195941 0)
(2.19345 0.190455 0)
(2.20306 0.18357 0)
(2.21174 0.175308 0)
(2.21823 0.165075 0)
(2.22055 0.151388 0)
(2.22092 0.136123 0)
(2.22772 0.128151 0)
(2.23704 0.12545 0)
(2.24664 0.122533 0)
(2.25628 0.118993 0)
(2.26546 0.115364 0)
(2.27398 0.111455 0)
(2.28048 0.105134 0)
(2.2816 0.0928111 0)
(2.27634 0.0747148 0)
(2.27974 0.0632234 0)
(2.28914 0.0587736 0)
(2.29866 0.0536518 0)
(2.30797 0.0496122 0)
(2.31686 0.0457308 0)
(2.32494 0.0411457 0)
(2.33187 0.0352037 0)
(2.33653 0.028355 0)
(2.33674 0.019972 0)
(2.33298 0.00717949 0)
(2.33344 -0.00233745 0)
(2.33932 -0.00731387 0)
(2.3468 -0.0120781 0)
(2.35297 -0.0167025 0)
(2.35871 -0.0220318 0)
(2.36453 -0.030343 0)
(2.3689 -0.0372304 0)
(2.37332 -0.0446388 0)
(2.37579 -0.0537812 0)
(2.37506 -0.0608011 0)
(2.37408 -0.0662645 0)
(2.38026 -0.0705256 0)
(2.38744 -0.073974 0)
(2.39438 -0.0785733 0)
(2.40107 -0.0836541 0)
(2.40773 -0.0889206 0)
(2.41443 -0.0963139 0)
(2.4193 -0.102471 0)
(2.42252 -0.108554 0)
(2.42115 -0.115926 0)
(2.41643 -0.124048 0)
(2.41998 -0.129125 0)
(2.42595 -0.131839 0)
(2.43081 -0.134949 0)
(2.43717 -0.139125 0)
(2.44342 -0.144514 0)
(2.4482 -0.149152 0)
(2.45304 -0.153295 0)
(2.45654 -0.157804 0)
(2.4577 -0.167059 0)
(2.4569 -0.176855 0)
(2.45712 -0.181348 0)
(2.46312 -0.185038 0)
(2.46896 -0.188359 0)
(2.47381 -0.19206 0)
(2.47814 -0.195694 0)
(2.48199 -0.199839 0)
(2.48504 -0.203821 0)
(2.48667 -0.207792 0)
(2.48425 -0.213134 0)
(2.47965 -0.221318 0)
(2.48386 -0.226772 0)
(2.4881 -0.229464 0)
(2.49261 -0.232587 0)
(2.49838 -0.236177 0)
(2.50296 -0.240304 0)
(2.50606 -0.243816 0)
(2.50925 -0.245611 0)
(2.51231 -0.250603 0)
(2.51194 -0.25765 0)
(2.508 -0.266403 0)
(2.50841 -0.271894 0)
(2.51274 -0.274042 0)
(2.51678 -0.276264 0)
(2.52121 -0.279634 0)
(2.52512 -0.283103 0)
(2.52906 -0.285959 0)
(2.53292 -0.289326 0)
(2.53517 -0.292164 0)
(2.53509 -0.298801 0)
(2.53402 -0.30576 0)
(2.53507 -0.309497 0)
(2.53979 -0.311394 0)
(2.5438 -0.313606 0)
(2.54702 -0.316115 0)
(2.55001 -0.318505 0)
(2.55205 -0.322495 0)
(2.55277 -0.327912 0)
(2.55267 -0.332056 0)
(2.5545 -0.336107 0)
(2.55964 -0.338229 0)
(2.56357 -0.340056 0)
(2.56723 -0.34249 0)
(2.56983 -0.345439 0)
(2.57162 -0.348139 0)
(2.57263 -0.351032 0)
(2.57259 -0.353181 0)
(2.57122 -0.35957 0)
(2.56877 -0.364792 0)
(2.57135 -0.369906 0)
(2.57667 -0.371104 0)
(2.57976 -0.372185 0)
(2.58195 -0.374134 0)
(2.58499 -0.377519 0)
(2.58637 -0.378868 0)
(2.58918 -0.381015 0)
(2.59248 -0.384755 0)
(2.59579 -0.388465 0)
(2.59849 -0.393161 0)
(2.59745 -0.39963 0)
(2.59783 -0.406413 0)
(2.59818 -0.407453 0)
(2.59869 -0.407708 0)
(2.59977 -0.405753 0)
(2.59798 -0.39931 0)
(2.59089 -0.378935 0)
(2.57075 -0.335142 0)
(2.53054 -0.249832 0)
(2.50876 -0.178665 0)
(2.451 -0.0663302 0)
(2.41448 -0.0128576 0)
(2.4071 -0.0171658 0)
(2.40261 0.00130481 0)
(2.40139 0.0142788 0)
(2.40065 0.022988 0)
(2.39849 0.0231781 0)
(2.39535 0.0226426 0)
(2.39385 0.022421 0)
(2.39269 0.02319 0)
(2.39142 0.0258392 0)
(2.38874 0.028805 0)
(2.38687 0.0298703 0)
(2.3853 0.0304513 0)
(2.38575 0.0326033 0)
(2.3898 0.0363267 0)
(2.39362 0.038855 0)
(2.39391 0.0387588 0)
(2.39359 0.0379151 0)
(2.39193 0.0360173 0)
(2.38813 0.0331795 0)
(2.38425 0.0313188 0)
(2.3833 0.0315085 0)
(2.38331 0.0331728 0)
(2.38515 0.0370606 0)
(2.39005 0.0425557 0)
(2.39378 0.0456551 0)
(2.3942 0.0458155 0)
(2.39338 0.0448839 0)
(2.38969 0.0421567 0)
(2.38333 0.0376269 0)
(2.37963 0.0350598 0)
(2.38011 0.0349251 0)
(2.3808 0.0352069 0)
(2.38243 0.0359231 0)
(2.38659 0.0380333 0)
(2.39201 0.0412382 0)
(2.39414 0.0432305 0)
(2.39418 0.044157 0)
(2.3936 0.0454054 0)
(2.39164 0.0470686 0)
(2.39056 0.0483482 0)
(2.39091 0.0488405 0)
(2.3916 0.0495608 0)
(2.39325 0.0501511 0)
(2.39589 0.0501205 0)
(2.39735 0.049923 0)
(2.39837 0.0497639 0)
(2.39879 0.049156 0)
(2.39682 0.0476544 0)
(2.39223 0.0456557 0)
(2.38968 0.0453409 0)
(2.38923 0.046004 0)
(2.38927 0.04735 0)
(2.39117 0.0494177 0)
(2.39478 0.0514196 0)
(2.39661 0.0514474 0)
(2.39673 0.0507809 0)
(2.39636 0.0494908 0)
(2.39483 0.0477155 0)
(2.39067 0.0451833 0)
(2.38431 0.0420013 0)
(2.38137 0.0411998 0)
(2.38109 0.0417095 0)
(2.38105 0.0426923 0)
(2.38158 0.044045 0)
(2.384 0.0463551 0)
(2.38957 0.0500137 0)
(2.39446 0.052607 0)
(2.39541 0.0530363 0)
(2.39551 0.0531101 0)
(2.39546 0.0531464 0)
(2.39401 0.0523236 0)
(2.38921 0.0496391 0)
(2.38468 0.0467513 0)
(2.38436 0.0455911 0)
(2.38509 0.0451267 0)
(2.38602 0.0447417 0)
(2.38732 0.0445085 0)
(2.38992 0.044985 0)
(2.39225 0.045983 0)
(2.39281 0.0463013 0)
(2.39329 0.0467706 0)
(2.39358 0.0470782 0)
(2.39387 0.0472726 0)
(2.39456 0.0475253 0)
(2.39536 0.0488426 0)
(2.39516 0.0481702 0)
(2.36274 -0.00104618 0)
(1.9888 -0.33556 0)
(1.62666 -0.490639 0)
(1.59666 -0.547133 0)
(1.58451 -0.547926 0)
(1.58336 -0.546468 0)
(1.58955 -0.547509 0)
(1.60082 -0.548096 0)
(1.61491 -0.5469 0)
(1.6275 -0.54606 0)
(1.63364 -0.547319 0)
(1.63744 -0.549831 0)
(1.64022 -0.553855 0)
(1.64173 -0.556756 0)
(1.64446 -0.557433 0)
(1.64839 -0.556917 0)
(1.65809 -0.556461 0)
(1.67357 -0.55752 0)
(1.68368 -0.560404 0)
(1.68729 -0.562944 0)
(1.68943 -0.566519 0)
(1.68904 -0.569004 0)
(1.68876 -0.570367 0)
(1.69112 -0.571276 0)
(1.69411 -0.571872 0)
(1.69953 -0.572802 0)
(1.71049 -0.573282 0)
(1.72455 -0.57316 0)
(1.73446 -0.573974 0)
(1.73844 -0.574968 0)
(1.74165 -0.576656 0)
(1.74403 -0.5785 0)
(1.74538 -0.580463 0)
(1.74805 -0.581936 0)
(1.75252 -0.582863 0)
(1.75739 -0.583953 0)
(1.76353 -0.584077 0)
(1.77331 -0.581698 0)
(1.78403 -0.577363 0)
(2.14752 0.255782 0)
(2.15565 0.246344 0)
(2.16239 0.2364 0)
(2.16774 0.226982 0)
(2.17258 0.219304 0)
(2.17811 0.212973 0)
(2.18524 0.206861 0)
(2.1935 0.20012 0)
(2.20166 0.192214 0)
(2.20831 0.182303 0)
(2.21164 0.169034 0)
(2.21281 0.153648 0)
(2.21964 0.144791 0)
(2.22921 0.142199 0)
(2.23884 0.139361 0)
(2.24871 0.136068 0)
(2.25803 0.132697 0)
(2.26666 0.129014 0)
(2.27356 0.123061 0)
(2.27584 0.111518 0)
(2.27045 0.0926893 0)
(2.26966 0.0779196 0)
(2.27869 0.0742852 0)
(2.28881 0.069806 0)
(2.29894 0.0645937 0)
(2.30803 0.060651 0)
(2.3167 0.0571592 0)
(2.32465 0.053307 0)
(2.33145 0.0481892 0)
(2.33481 0.0398482 0)
(2.33189 0.0280611 0)
(2.32862 0.0152946 0)
(2.33349 0.00827287 0)
(2.33989 0.00466102 0)
(2.34723 0.000121129 0)
(2.35385 -0.00583057 0)
(2.35907 -0.0112431 0)
(2.36376 -0.0187246 0)
(2.36744 -0.0269405 0)
(2.37083 -0.034156 0)
(2.37386 -0.0428052 0)
(2.37515 -0.0494064 0)
(2.37537 -0.0539245 0)
(2.37988 -0.0592788 0)
(2.38672 -0.0638321 0)
(2.39331 -0.0685618 0)
(2.39987 -0.0738018 0)
(2.40633 -0.0794806 0)
(2.41252 -0.0862358 0)
(2.41725 -0.0934861 0)
(2.41995 -0.0986028 0)
(2.41939 -0.105189 0)
(2.41662 -0.111869 0)
(2.41946 -0.117394 0)
(2.42597 -0.120803 0)
(2.43151 -0.124601 0)
(2.43729 -0.128688 0)
(2.44305 -0.133498 0)
(2.44771 -0.138432 0)
(2.45171 -0.142431 0)
(2.45441 -0.147528 0)
(2.45395 -0.156697 0)
(2.45444 -0.167176 0)
(2.45682 -0.170785 0)
(2.46229 -0.17399 0)
(2.46865 -0.177378 0)
(2.47325 -0.180874 0)
(2.47759 -0.184691 0)
(2.48126 -0.188277 0)
(2.48414 -0.192573 0)
(2.48448 -0.197446 0)
(2.4804 -0.20411 0)
(2.47883 -0.211928 0)
(2.48405 -0.216177 0)
(2.48845 -0.219109 0)
(2.4934 -0.222476 0)
(2.49932 -0.226252 0)
(2.50366 -0.2298 0)
(2.50692 -0.233481 0)
(2.50936 -0.235754 0)
(2.51083 -0.240568 0)
(2.50879 -0.248924 0)
(2.50526 -0.257504 0)
(2.50887 -0.262306 0)
(2.51352 -0.263696 0)
(2.51803 -0.266368 0)
(2.52223 -0.270135 0)
(2.52578 -0.273284 0)
(2.52946 -0.276055 0)
(2.53266 -0.279002 0)
(2.53312 -0.28327 0)
(2.53043 -0.289577 0)
(2.53181 -0.295237 0)
(2.53498 -0.296492 0)
(2.53924 -0.298116 0)
(2.54396 -0.300671 0)
(2.5472 -0.303806 0)
(2.54974 -0.306598 0)
(2.55102 -0.310762 0)
(2.55089 -0.318265 0)
(2.55144 -0.323467 0)
(2.55396 -0.327086 0)
(2.55966 -0.329365 0)
(2.56413 -0.331466 0)
(2.56792 -0.334084 0)
(2.57039 -0.336946 0)
(2.57188 -0.33939 0)
(2.57252 -0.342116 0)
(2.57153 -0.345683 0)
(2.56939 -0.352462 0)
(2.56865 -0.356628 0)
(2.57085 -0.359997 0)
(2.57667 -0.362069 0)
(2.58068 -0.363181 0)
(2.58333 -0.364559 0)
(2.58605 -0.367513 0)
(2.5873 -0.369076 0)
(2.58969 -0.370301 0)
(2.59254 -0.373937 0)
(2.5945 -0.376878 0)
(2.59568 -0.380968 0)
(2.59524 -0.387686 0)
(2.59673 -0.394727 0)
(2.59966 -0.39675 0)
(2.60221 -0.398605 0)
(2.60354 -0.400376 0)
(2.60554 -0.400587 0)
(2.60652 -0.39898 0)
(2.60439 -0.394443 0)
(2.59457 -0.375793 0)
(2.5754 -0.337112 0)
(2.53277 -0.259366 0)
(2.49359 -0.177818 0)
(2.47296 -0.113027 0)
(2.4258 -0.0103717 0)
(2.40559 0.014664 0)
(2.40525 0.0224428 0)
(2.40972 0.0279904 0)
(2.40174 0.0245694 0)
(2.39922 0.0242541 0)
(2.39769 0.0254214 0)
(2.39597 0.0271692 0)
(2.3944 0.0300637 0)
(2.39344 0.0312097 0)
(2.39192 0.0309122 0)
(2.39227 0.0315576 0)
(2.3962 0.0343562 0)
(2.39893 0.0366269 0)
(2.39892 0.0369641 0)
(2.39808 0.0364237 0)
(2.39508 0.03397 0)
(2.39117 0.03228 0)
(2.38991 0.0327531 0)
(2.38985 0.0344022 0)
(2.39119 0.0379852 0)
(2.39529 0.0427887 0)
(2.39881 0.0454207 0)
(2.39932 0.0454999 0)
(2.3991 0.045005 0)
(2.39691 0.0434047 0)
(2.39152 0.039173 0)
(2.38547 0.0345089 0)
(2.38431 0.0333203 0)
(2.38456 0.03358 0)
(2.38593 0.0349051 0)
(2.38978 0.0383186 0)
(2.39597 0.0432464 0)
(2.39981 0.0458931 0)
(2.40022 0.0463757 0)
(2.40006 0.0466364 0)
(2.39883 0.0467992 0)
(2.39588 0.0465844 0)
(2.39501 0.0467201 0)
(2.39573 0.0468617 0)
(2.39652 0.0470693 0)
(2.39789 0.0471434 0)
(2.40024 0.0467507 0)
(2.40153 0.0462695 0)
(2.4023 0.0460864 0)
(2.40251 0.0461095 0)
(2.40029 0.0463465 0)
(2.39722 0.0470065 0)
(2.39652 0.0480059 0)
(2.39657 0.0496591 0)
(2.39763 0.0515556 0)
(2.40001 0.0525204 0)
(2.40207 0.0519194 0)
(2.40246 0.0510389 0)
(2.40236 0.0497955 0)
(2.40167 0.0482509 0)
(2.39933 0.0464076 0)
(2.39404 0.0439638 0)
(2.38912 0.0424721 0)
(2.38805 0.0428179 0)
(2.38788 0.0435315 0)
(2.38805 0.0447758 0)
(2.38929 0.046528 0)
(2.39306 0.0494816 0)
(2.39856 0.0527342 0)
(2.40088 0.0538002 0)
(2.40104 0.053808 0)
(2.40106 0.0536612 0)
(2.40042 0.0528494 0)
(2.39706 0.0504611 0)
(2.3913 0.0469414 0)
(2.38878 0.044957 0)
(2.38907 0.0445016 0)
(2.38968 0.0442934 0)
(2.39041 0.0441534 0)
(2.39241 0.0446994 0)
(2.39571 0.0465897 0)
(2.39756 0.0478849 0)
(2.39784 0.0482127 0)
(2.39796 0.0488963 0)
(2.39815 0.0492292 0)
(2.39865 0.0493339 0)
(2.39952 0.049992 0)
(2.3996 0.0499837 0)
(2.38721 0.0307897 0)
(2.1538 -0.210817 0)
(1.70718 -0.505481 0)
(1.58689 -0.525477 0)
(1.59684 -0.533568 0)
(1.59666 -0.543899 0)
(1.59695 -0.545524 0)
(1.60165 -0.548955 0)
(1.61293 -0.551088 0)
(1.62699 -0.549298 0)
(1.63819 -0.548241 0)
(1.64352 -0.549876 0)
(1.64722 -0.552757 0)
(1.65031 -0.556609 0)
(1.65349 -0.559267 0)
(1.65707 -0.560099 0)
(1.66169 -0.55949 0)
(1.67028 -0.558951 0)
(1.68235 -0.56036 0)
(1.69121 -0.56395 0)
(1.69486 -0.567385 0)
(1.69755 -0.571288 0)
(1.69904 -0.573771 0)
(1.69963 -0.573669 0)
(1.7012 -0.572265 0)
(1.70423 -0.571054 0)
(1.70903 -0.569783 0)
(1.71967 -0.569681 0)
(1.73355 -0.571101 0)
(1.74234 -0.574057 0)
(1.74558 -0.576758 0)
(1.74803 -0.580077 0)
(1.75028 -0.584208 0)
(1.75283 -0.587002 0)
(1.75736 -0.588961 0)
(1.76244 -0.590294 0)
(1.76888 -0.590866 0)
(1.77856 -0.589604 0)
(1.79095 -0.584786 0)
(1.80016 -0.580837 0)
(2.14612 0.264807 0)
(2.15384 0.256133 0)
(2.1608 0.24718 0)
(2.1672 0.238689 0)
(2.17335 0.230923 0)
(2.17957 0.223564 0)
(2.18617 0.216252 0)
(2.19294 0.208351 0)
(2.1989 0.198557 0)
(2.20249 0.185567 0)
(2.20453 0.170815 0)
(2.21149 0.16191 0)
(2.22115 0.159608 0)
(2.2313 0.156486 0)
(2.24137 0.153179 0)
(2.25086 0.149926 0)
(2.25961 0.146275 0)
(2.26664 0.140365 0)
(2.2696 0.129177 0)
(2.26516 0.1107 0)
(2.26122 0.0936 0)
(2.26892 0.0887018 0)
(2.27873 0.0854381 0)
(2.28991 0.0807943 0)
(2.29968 0.07663 0)
(2.30832 0.0733197 0)
(2.31656 0.0702573 0)
(2.32403 0.0667402 0)
(2.32893 0.0609305 0)
(2.32897 0.0496945 0)
(2.32428 0.0338153 0)
(2.32612 0.0237255 0)
(2.33342 0.0193916 0)
(2.34048 0.0158378 0)
(2.34759 0.0114277 0)
(2.35411 0.00555203 0)
(2.35927 -0.000689212 0)
(2.36313 -0.00738422 0)
(2.36615 -0.0157682 0)
(2.36908 -0.023605 0)
(2.37265 -0.0313218 0)
(2.37553 -0.0377865 0)
(2.37699 -0.0423066 0)
(2.37985 -0.048293 0)
(2.3856 -0.0541853 0)
(2.3917 -0.0591894 0)
(2.39808 -0.0644845 0)
(2.4044 -0.0703768 0)
(2.41022 -0.076736 0)
(2.41497 -0.0834051 0)
(2.41774 -0.088623 0)
(2.41733 -0.0937724 0)
(2.41647 -0.101035 0)
(2.41952 -0.106431 0)
(2.42544 -0.110296 0)
(2.43139 -0.114264 0)
(2.43723 -0.118692 0)
(2.4425 -0.122855 0)
(2.44702 -0.12721 0)
(2.45046 -0.132063 0)
(2.45132 -0.138236 0)
(2.4498 -0.148583 0)
(2.45243 -0.157274 0)
(2.45647 -0.160206 0)
(2.46175 -0.163105 0)
(2.46838 -0.16667 0)
(2.4731 -0.170523 0)
(2.4772 -0.173914 0)
(2.48072 -0.177817 0)
(2.48287 -0.182239 0)
(2.48162 -0.188874 0)
(2.47709 -0.197103 0)
(2.47884 -0.201882 0)
(2.48386 -0.204212 0)
(2.48851 -0.207371 0)
(2.49385 -0.210823 0)
(2.49978 -0.214613 0)
(2.50422 -0.218357 0)
(2.5073 -0.221445 0)
(2.50911 -0.225324 0)
(2.50746 -0.230571 0)
(2.50481 -0.24091 0)
(2.50417 -0.246871 0)
(2.50901 -0.250401 0)
(2.51423 -0.252528 0)
(2.51902 -0.255316 0)
(2.52295 -0.258899 0)
(2.52633 -0.262181 0)
(2.52979 -0.265941 0)
(2.53206 -0.270981 0)
(2.53057 -0.277745 0)
(2.52889 -0.283836 0)
(2.53206 -0.286573 0)
(2.53567 -0.287601 0)
(2.54022 -0.288947 0)
(2.54476 -0.291096 0)
(2.54807 -0.294371 0)
(2.54968 -0.297508 0)
(2.54909 -0.30131 0)
(2.54802 -0.308445 0)
(2.55049 -0.313887 0)
(2.55376 -0.315838 0)
(2.55877 -0.318455 0)
(2.56397 -0.320673 0)
(2.56775 -0.322991 0)
(2.57038 -0.325906 0)
(2.5716 -0.328095 0)
(2.57169 -0.330546 0)
(2.5696 -0.335794 0)
(2.56711 -0.343182 0)
(2.56811 -0.346544 0)
(2.57102 -0.349097 0)
(2.57669 -0.351965 0)
(2.58116 -0.353662 0)
(2.58465 -0.355348 0)
(2.58728 -0.358037 0)
(2.58837 -0.359954 0)
(2.59054 -0.361035 0)
(2.59293 -0.364358 0)
(2.59386 -0.368868 0)
(2.59335 -0.373406 0)
(2.59356 -0.379834 0)
(2.59726 -0.383899 0)
(2.60035 -0.385971 0)
(2.60296 -0.388728 0)
(2.60545 -0.392606 0)
(2.60795 -0.39413 0)
(2.61035 -0.395395 0)
(2.61089 -0.39665 0)
(2.60765 -0.396794 0)
(2.60341 -0.391994 0)
(2.59294 -0.378216 0)
(2.57197 -0.333187 0)
(2.54313 -0.268513 0)
(2.49163 -0.15757 0)
(2.47924 -0.115291 0)
(2.46053 -0.055343 0)
(2.42976 0.0145224 0)
(2.41112 0.0203346 0)
(2.40785 0.0202827 0)
(2.40551 0.023302 0)
(2.39987 0.0235378 0)
(2.39817 0.0251302 0)
(2.39776 0.0301325 0)
(2.39707 0.0317082 0)
(2.39759 0.0314758 0)
(2.40173 0.032909 0)
(2.40438 0.0354051 0)
(2.40434 0.0362595 0)
(2.40255 0.0368744 0)
(2.39882 0.0359919 0)
(2.39704 0.0354376 0)
(2.39589 0.0365887 0)
(2.39645 0.0392395 0)
(2.39977 0.0428397 0)
(2.40355 0.0453918 0)
(2.40426 0.0456963 0)
(2.40413 0.0453624 0)
(2.40305 0.04411 0)
(2.39945 0.0413857 0)
(2.39306 0.037827 0)
(2.38968 0.0362628 0)
(2.38922 0.0362531 0)
(2.38947 0.0369579 0)
(2.39239 0.039565 0)
(2.39909 0.0449272 0)
(2.40485 0.0488667 0)
(2.40604 0.0491369 0)
(2.40595 0.0484591 0)
(2.4049 0.0468331 0)
(2.40194 0.0447509 0)
(2.39885 0.0435608 0)
(2.39896 0.0435767 0)
(2.39974 0.0435633 0)
(2.40051 0.0434481 0)
(2.40219 0.0435701 0)
(2.40502 0.0449194 0)
(2.40636 0.0459785 0)
(2.40658 0.0462906 0)
(2.40615 0.0469496 0)
(2.40407 0.0485361 0)
(2.40272 0.0508319 0)
(2.40278 0.0517789 0)
(2.40346 0.0526792 0)
(2.40468 0.0532078 0)
(2.40609 0.0525037 0)
(2.40731 0.0506021 0)
(2.40764 0.049203 0)
(2.40756 0.0479776 0)
(2.40682 0.0466382 0)
(2.40426 0.0451083 0)
(2.39905 0.0436897 0)
(2.39539 0.0436005 0)
(2.39487 0.0439354 0)
(2.39464 0.0447088 0)
(2.39513 0.0460656 0)
(2.39744 0.0483474 0)
(2.40234 0.051753 0)
(2.40612 0.0539385 0)
(2.40668 0.0541967 0)
(2.4067 0.0541091 0)
(2.40632 0.0534817 0)
(2.40405 0.0514425 0)
(2.399 0.047878 0)
(2.39476 0.0447222 0)
(2.39414 0.0439578 0)
(2.39452 0.0438859 0)
(2.39494 0.0439621 0)
(2.39633 0.0448127 0)
(2.39942 0.0473623 0)
(2.40244 0.0499536 0)
(2.40304 0.0507752 0)
(2.40301 0.0511572 0)
(2.40256 0.0510307 0)
(2.40262 0.0508622 0)
(2.40356 0.0510494 0)
(2.40393 0.0513426 0)
(2.40018 0.0451341 0)
(2.28755 -0.09031 0)
(1.78156 -0.448153 0)
(1.60819 -0.547296 0)
(1.58928 -0.539353 0)
(1.59259 -0.54128 0)
(1.59611 -0.5512 0)
(1.60147 -0.556127 0)
(1.61016 -0.558142 0)
(1.62551 -0.5542 0)
(1.64068 -0.549783 0)
(1.64856 -0.549086 0)
(1.65263 -0.551009 0)
(1.65585 -0.555141 0)
(1.6593 -0.559102 0)
(1.66352 -0.561387 0)
(1.66848 -0.563021 0)
(1.67453 -0.563293 0)
(1.68234 -0.562815 0)
(1.69091 -0.563398 0)
(1.69723 -0.566459 0)
(1.70086 -0.570262 0)
(1.70413 -0.574254 0)
(1.70725 -0.577555 0)
(1.71067 -0.578722 0)
(1.71342 -0.577029 0)
(1.717 -0.57398 0)
(1.72207 -0.570457 0)
(1.73049 -0.56806 0)
(1.74086 -0.568309 0)
(1.74859 -0.571261 0)
(1.75153 -0.575227 0)
(1.75363 -0.580703 0)
(1.75677 -0.586286 0)
(1.76109 -0.590387 0)
(1.76637 -0.593704 0)
(1.77283 -0.595945 0)
(1.78302 -0.595724 0)
(1.7969 -0.59139 0)
(1.80933 -0.587362 0)
(1.81473 -0.587209 0)
(2.14523 0.27584 0)
(2.15228 0.267059 0)
(2.15909 0.257748 0)
(2.16588 0.248653 0)
(2.17272 0.240166 0)
(2.17947 0.232261 0)
(2.18582 0.224186 0)
(2.19102 0.214474 0)
(2.19411 0.201822 0)
(2.19649 0.187715 0)
(2.20372 0.179212 0)
(2.21319 0.177141 0)
(2.22391 0.173976 0)
(2.23428 0.170639 0)
(2.24389 0.167362 0)
(2.25272 0.16352 0)
(2.25979 0.157254 0)
(2.2631 0.14612 0)
(2.25954 0.127946 0)
(2.25406 0.109564 0)
(2.25994 0.102715 0)
(2.26924 0.100459 0)
(2.28075 0.096677 0)
(2.29188 0.0932188 0)
(2.30109 0.0902982 0)
(2.30939 0.087534 0)
(2.31697 0.0846795 0)
(2.32276 0.0795773 0)
(2.32369 0.0686623 0)
(2.31823 0.05218 0)
(2.31886 0.03977 0)
(2.32585 0.034721 0)
(2.33325 0.0312846 0)
(2.34084 0.0270353 0)
(2.34789 0.0222126 0)
(2.35419 0.0165917 0)
(2.3592 0.0101286 0)
(2.36255 0.00334721 0)
(2.36486 -0.00453598 0)
(2.36784 -0.0128623 0)
(2.37177 -0.0200873 0)
(2.37548 -0.0261358 0)
(2.37781 -0.0310897 0)
(2.37976 -0.0375248 0)
(2.38442 -0.0445972 0)
(2.38991 -0.0498839 0)
(2.39611 -0.0551316 0)
(2.40238 -0.0610251 0)
(2.40811 -0.0673924 0)
(2.41282 -0.0733149 0)
(2.41583 -0.0785009 0)
(2.41534 -0.0834091 0)
(2.41512 -0.0904115 0)
(2.4195 -0.095871 0)
(2.42492 -0.0996882 0)
(2.43103 -0.103966 0)
(2.43672 -0.108417 0)
(2.44184 -0.1125 0)
(2.44611 -0.116535 0)
(2.44865 -0.122248 0)
(2.44722 -0.131137 0)
(2.44591 -0.140647 0)
(2.45111 -0.145963 0)
(2.45581 -0.148984 0)
(2.46126 -0.15185 0)
(2.46794 -0.155473 0)
(2.47284 -0.159353 0)
(2.47671 -0.162349 0)
(2.47978 -0.1664 0)
(2.48034 -0.171627 0)
(2.47686 -0.18004 0)
(2.4747 -0.18871 0)
(2.47921 -0.191322 0)
(2.48413 -0.193658 0)
(2.48906 -0.19724 0)
(2.49457 -0.20051 0)
(2.50059 -0.204227 0)
(2.50515 -0.208055 0)
(2.50804 -0.211785 0)
(2.50838 -0.216783 0)
(2.50359 -0.224348 0)
(2.50212 -0.232456 0)
(2.50463 -0.236004 0)
(2.50968 -0.239249 0)
(2.51517 -0.242413 0)
(2.51998 -0.245452 0)
(2.52378 -0.248952 0)
(2.52679 -0.251838 0)
(2.52958 -0.255426 0)
(2.53005 -0.260784 0)
(2.52722 -0.268444 0)
(2.52862 -0.272977 0)
(2.53222 -0.275048 0)
(2.53582 -0.276478 0)
(2.5405 -0.278384 0)
(2.54498 -0.280268 0)
(2.54812 -0.283213 0)
(2.54891 -0.288065 0)
(2.54653 -0.294301 0)
(2.54573 -0.300578 0)
(2.55024 -0.304265 0)
(2.554 -0.306866 0)
(2.55842 -0.309305 0)
(2.56398 -0.31193 0)
(2.56803 -0.314178 0)
(2.57079 -0.316512 0)
(2.57206 -0.319284 0)
(2.57124 -0.322342 0)
(2.56749 -0.327374 0)
(2.56565 -0.334207 0)
(2.56811 -0.337035 0)
(2.5718 -0.339317 0)
(2.57751 -0.342547 0)
(2.58215 -0.344621 0)
(2.58562 -0.346468 0)
(2.58819 -0.348483 0)
(2.5895 -0.350884 0)
(2.59106 -0.351835 0)
(2.59254 -0.35479 0)
(2.59218 -0.359555 0)
(2.59082 -0.364561 0)
(2.59316 -0.370454 0)
(2.59746 -0.372061 0)
(2.60049 -0.373762 0)
(2.60326 -0.37637 0)
(2.60531 -0.378701 0)
(2.60784 -0.382489 0)
(2.61027 -0.38602 0)
(2.61235 -0.387829 0)
(2.61056 -0.392687 0)
(2.60564 -0.395972 0)
(2.605 -0.394665 0)
(2.60378 -0.391331 0)
(2.59836 -0.377841 0)
(2.57735 -0.333427 0)
(2.55172 -0.262975 0)
(2.50528 -0.155851 0)
(2.46904 -0.0733076 0)
(2.46926 -0.0573014 0)
(2.44644 -0.0219515 0)
(2.42182 0.00532518 0)
(2.40833 0.012158 0)
(2.40628 0.0156588 0)
(2.40565 0.0249036 0)
(2.40481 0.0270463 0)
(2.4046 0.0272628 0)
(2.40753 0.0279218 0)
(2.40913 0.0299959 0)
(2.40917 0.0314811 0)
(2.40755 0.0350665 0)
(2.4051 0.0374515 0)
(2.40324 0.0377876 0)
(2.40198 0.038439 0)
(2.40337 0.0401788 0)
(2.40713 0.0427139 0)
(2.40871 0.0437644 0)
(2.40883 0.0437636 0)
(2.40834 0.0432993 0)
(2.40594 0.0419073 0)
(2.40076 0.0393994 0)
(2.39656 0.0375993 0)
(2.39593 0.0376617 0)
(2.39548 0.0382182 0)
(2.39651 0.0397593 0)
(2.40134 0.0435041 0)
(2.40817 0.0479483 0)
(2.41055 0.0491941 0)
(2.41095 0.049128 0)
(2.41063 0.0480605 0)
(2.4081 0.045588 0)
(2.4039 0.042197 0)
(2.40252 0.0408416 0)
(2.40317 0.0409092 0)
(2.40388 0.0412077 0)
(2.40501 0.0417662 0)
(2.40732 0.0432056 0)
(2.41028 0.0455825 0)
(2.41151 0.047281 0)
(2.41146 0.0482278 0)
(2.41073 0.0498804 0)
(2.40876 0.0513869 0)
(2.40717 0.0518156 0)
(2.40787 0.0519316 0)
(2.40872 0.0518685 0)
(2.40957 0.0513258 0)
(2.41053 0.0504687 0)
(2.41209 0.0491706 0)
(2.41274 0.0480276 0)
(2.41269 0.0475056 0)
(2.41187 0.046648 0)
(2.40917 0.0457205 0)
(2.40446 0.0450423 0)
(2.40185 0.0451938 0)
(2.40142 0.0454096 0)
(2.40117 0.0460933 0)
(2.40208 0.0475099 0)
(2.40559 0.0502586 0)
(2.41049 0.0533581 0)
(2.4122 0.0543007 0)
(2.4123 0.0543363 0)
(2.41219 0.0540506 0)
(2.41087 0.0525643 0)
(2.40658 0.0493853 0)
(2.40152 0.0454991 0)
(2.39996 0.0441383 0)
(2.40005 0.0441203 0)
(2.40035 0.0443352 0)
(2.40151 0.045466 0)
(2.40437 0.048554 0)
(2.40784 0.0522056 0)
(2.40882 0.0536146 0)
(2.40867 0.0539072 0)
(2.40772 0.0530844 0)
(2.40655 0.05196 0)
(2.40703 0.0516269 0)
(2.40809 0.0519652 0)
(2.40681 0.0502166 0)
(2.35747 -0.0201328 0)
(1.93394 -0.3805 0)
(1.63689 -0.497225 0)
(1.60232 -0.545021 0)
(1.59666 -0.55477 0)
(1.59883 -0.556584 0)
(1.60616 -0.556491 0)
(1.61468 -0.555838 0)
(1.6263 -0.553472 0)
(1.64226 -0.549563 0)
(1.65373 -0.549638 0)
(1.6579 -0.552 0)
(1.66035 -0.556409 0)
(1.66181 -0.561795 0)
(1.66564 -0.564907 0)
(1.67032 -0.567118 0)
(1.67662 -0.568959 0)
(1.68526 -0.568755 0)
(1.69394 -0.566098 0)
(1.70059 -0.564763 0)
(1.70409 -0.565883 0)
(1.70723 -0.568845 0)
(1.71036 -0.573748 0)
(1.71437 -0.578395 0)
(1.71978 -0.581911 0)
(1.72542 -0.583015 0)
(1.73109 -0.581863 0)
(1.73736 -0.57722 0)
(1.74446 -0.570728 0)
(1.7508 -0.568263 0)
(1.75339 -0.569579 0)
(1.75621 -0.57453 0)
(1.75973 -0.580937 0)
(1.76361 -0.587035 0)
(1.76891 -0.592804 0)
(1.7764 -0.596719 0)
(1.78646 -0.597423 0)
(1.8005 -0.594565 0)
(1.81614 -0.590466 0)
(1.82534 -0.589951 0)
(1.8294 -0.591899 0)
(2.14363 0.286763 0)
(2.14956 0.276061 0)
(2.15634 0.265615 0)
(2.1637 0.256007 0)
(2.17119 0.24718 0)
(2.17821 0.238688 0)
(2.18386 0.229433 0)
(2.18709 0.217929 0)
(2.18943 0.205062 0)
(2.19658 0.197123 0)
(2.20579 0.19524 0)
(2.21677 0.192139 0)
(2.22729 0.188644 0)
(2.23695 0.185166 0)
(2.24582 0.180727 0)
(2.25286 0.173848 0)
(2.25623 0.162285 0)
(2.25368 0.144529 0)
(2.24776 0.12581 0)
(2.25167 0.116997 0)
(2.26059 0.115387 0)
(2.27164 0.112345 0)
(2.28396 0.109666 0)
(2.29424 0.107217 0)
(2.30297 0.105035 0)
(2.31089 0.102529 0)
(2.31715 0.0972355 0)
(2.3184 0.0862011 0)
(2.3125 0.0687253 0)
(2.31 0.054671 0)
(2.31759 0.0499706 0)
(2.32552 0.0469701 0)
(2.33334 0.0430784 0)
(2.34103 0.0385038 0)
(2.34806 0.0334121 0)
(2.35407 0.0280073 0)
(2.35864 0.0217392 0)
(2.36131 0.0141688 0)
(2.36314 0.00578862 0)
(2.36641 -0.00237746 0)
(2.37089 -0.00926562 0)
(2.37511 -0.0150809 0)
(2.37798 -0.0206534 0)
(2.3795 -0.0274288 0)
(2.38317 -0.0349957 0)
(2.38857 -0.0407053 0)
(2.39456 -0.0456996 0)
(2.40069 -0.0511629 0)
(2.40628 -0.0571074 0)
(2.4108 -0.062774 0)
(2.41358 -0.0678651 0)
(2.4131 -0.0738411 0)
(2.41358 -0.0809657 0)
(2.41932 -0.0858869 0)
(2.42465 -0.0893042 0)
(2.43053 -0.0932769 0)