/*--------------------------------*- C++ -*----------------------------------*\
  =========                 |
  \\      /  F ield         | OpenFOAM: The Open Source CFD Toolbox
   \\    /   O peration     | Website:  https://openfoam.org
    \\  /    A nd           | Version:  7
     \\/     M anipulation  |
\*---------------------------------------------------------------------------*/
FoamFile
{
    version     2.0;
    format      ascii;
    class       volScalarField;
    location    "2.7";
    object      p;
}
// * * * * * * * * * * * * * * * * * * * * * * * * * * * * * * * * * * * * * //

dimensions      [1 -1 -2 0 0 0 0];

internalField   nonuniform List<scalar> 
16512
(
1
1
1
1
1
1
1
1
1
1
1
1
1
1
1
1
1
1
1
1
1
1
1
1
1
1
1
1
1
1
1
1
1
1
1
1.32144
7.57092
10.609
10.7431
10.9518
11.1371
11.3139
11.4765
11.6224
11.7522
11.8571
11.9374
11.9964
1
1
1
1
1
1
1
1
1
1
1
1
1
1
1
1
1
1
1
1
1
1
1
1
1
1
1
1
1
1
1
1
1
1
1
1.28263
7.40681
10.5751
10.7297
10.9325
11.1142
11.2864
11.4437
11.5831
11.7052
11.8024
11.8739
11.9298
1
1
1
1
1
1
1
1
1
1
1
1
1
1
1
1
1
1
1
1
1
1
1
1
1
1
1
1
1
1
1
1
1
1
1
1.17959
7.1055
10.5453
10.6878
10.8891
11.071
11.2414
11.3957
11.53
11.6448
11.7333
11.7912
11.8389
1
1
1
1
1
1
1
1
1
1
1
1
1
1
1
1
1
1
1
1
1
1
1
1
1
1
1
1
1
1
1
1
1
1
1
1.01546
6.60472
10.4905
10.6332
10.8212
10.9934
11.1521
11.2975
11.4258
11.5369
11.621
11.6693
11.7061
1
1
1
1
1
1
1
1
1
1
1
1
1
1
1
1
1
1
1
1
1
1
1
1
1
1
1
1
1
1
1
1
1
1
1
1.00018
5.93092
10.3151
10.5021
10.6862
10.8614
11.018
11.157
11.2716
11.3609
11.4264
11.4605
11.509
1
1
1
1
1
1
1
1
1
1
1
1
1
1
1
1
1
1
1
1
1
1
1
1
1
1
1
1
1
1
1
1
1
1
1
0.999999
5.0869
10.0829
10.3906
10.5592
10.7259
10.865
10.9836
11.0812
11.1587
11.218
11.23
11.1897
1
1
1
1
1
1
1
1
1
1
1
1
1
1
1
1
1
1
1
1
1
1
1
1
1
1
1
1
1
1
1
1
1
1
1
1
4.12013
9.72588
10.2738
10.4306
10.575
10.6841
10.7669
10.8255
10.8451
10.8088
10.7408
10.6955
1
1
1
1
1
1
1
1
1
1
1
1
1
1
1
1
1
1
1
1
1
1
1
1
1
1
1
1
1
1
1
1
1
1
1
1
3.07534
9.17291
10.1867
10.3237
10.4379
10.5113
10.5448
10.5481
10.5004
10.4221
10.2917
10.2745
1
1
1
1
1
1
1
1
1
1
1
1
1
1
1
1
1
1
1
1
1
1
1
1
1
1
1
1
1
1
1
1
1
1
1
1
1.99487
8.30902
10.1453
10.198
10.2892
10.3298
10.315
10.2538
10.1077
9.84076
9.05905
7.1643
1
1
1
1
1
1
1
1
1
1
1
1
1
1
1
1
1
1
1
1
1
1
1
1
1
1
1
1
1
1
1
1
1
1
1
1
1.12429
7.16479
10.1922
10.0915
10.0884
10.0769
10.0207
9.89515
9.65511
9.18072
8.37251
6.32258
1
1
1
1
1
1
1
1
1
1
1
1
1
1
1
1
1
1
1
1
1
1
1
1
1
1
1
1
1
1
1
1
1
1
1
1
1.00148
5.55053
9.58863
9.72747
9.7906
9.76606
9.69107
9.51718
9.21969
8.65496
7.82181
5.88335
1
1
1
1
1
1
1
1
1
1
1
1
1
1
1
1
1
1
1
1
1
1
1
1
1
1
1
1
1
1
1
1
1
1
1
1
0.999978
3.67969
9.00269
9.59358
9.62206
9.55744
9.43747
9.20843
8.84918
8.27328
7.37682
5.78387
1
1
1
1
1
1
1
1
1
1
1
1
1
1
1
1
1
1
1
1
1
1
1
1
1
1
1
1
1
1
1
1
1
1
1
1
0.999995
1.95224
8.04127
9.53603
9.44429
9.33325
9.17444
8.91108
8.5158
7.95434
7.05964
5.82509
1
1
1
1
1
1
1
1
1
1
1
1
1
1
1
1
1
1
1
1
1
1
1
1
1
1
1
1
1
1
1
1
1
1
1
1
0.999999
1.0943
6.27806
9.19983
9.18802
9.0899
8.9222
8.65142
8.26253
7.69935
6.87766
5.91162
1
1
1
1
1
1
1
1
1
1
1
1
1
1
1
1
1
1
1
1
1
1
1
1
1
1
1
1
1
1
1
1
1
1
1
1
1
1.00047
3.82136
8.60398
9.04318
8.9383
8.75196
8.44237
8.05668
7.48636
6.76989
5.97492
1
1
1
1
1
1
1
1
1
1
1
1
1
1
1
1
1
1
1
1
1
1
1
1
1
1
1
1
1
1
1
1
1
1
1
1
1
0.999995
1.61223
7.62873
9.07907
8.79915
8.55879
8.24548
7.83323
7.32801
6.71954
6.03831
1
1
1
1
1
1
1
1
1
1
1
1
1
1
1
1
1
1
1
1
1
1
1
1
1
1
1
1
1
1
1
1
1
1
1
1
1
0.999999
1.03286
5.59264
8.64512
8.46062
8.29366
8.02387
7.65589
7.20717
6.67645
6.07811
1
1
1
1
1
1
1
1
1
1
1
1
1
1
1
1
1
1
1
1
1
1
1
1
1
1
1
1
1
1
1
1
1
1
1
1
1
1
0.999966
2.7895
7.90574
8.35337
8.20211
7.93497
7.57568
7.14096
6.64549
6.11046
1
1
1
1
1
1
1
1
1
1
1
1
1
1
1
1
1
1
1
1
1
1
1
1
1
1
1
1
1
1
1
1
1
1
1
1
1
1
0.999987
1.225
6.07175
8.30064
8.11432
7.83035
7.47476
7.06566
6.61344
6.13609
1
1
1
1
1
1
1
1
1
1
1
1
1
1
1
1
1
1
1
1
1
1
1
1
1
1
1
1
1
1
1
1
1
1
1
1
1
1
0.999998
1.00389
3.22127
7.59887
7.99004
7.70557
7.38031
7.00202
6.5902
6.16201
1
1
1
1
1
1
1
1
1
1
1
1
1
1
1
1
1
1
1
1
1
1
1
1
1
1
1
1
1
1
1
1
1
1
1
1
1
1
1
1
1.33668
5.97372
7.95914
7.63882
7.32946
6.96417
6.57805
6.18479
1
1
1
1
1
1
1
1
1
1
1
1
1
1
1
1
1
1
1
1
1
1
1
1
1
1
1
1
1
1
1
1
1
1
1
1
1
1
1
1
1.00908
3.09765
7.22134
7.54156
7.24083
6.90335
6.55668
6.20446
1
1
1
1
1
1
1
1
1
1
1
1
1
1
1
1
1
1
1
1
1
1
1
1
1
1
1
1
1
1
1
1
1
1
1
1
1
1
1
1
1.00003
1.30495
5.4517
7.55344
7.21516
6.90724
6.58468
6.25436
1
1
1
1
1
1
1
1
1
1
1
1
1
1
1
1
1
1
1
1
1
1
1
1
1
1
1
1
1
1
1
1
1
1
1
1
1
1
1
1
1
1.00781
2.50366
6.52588
7.17849
6.89337
6.58998
6.2704
1
1
1
1
1
1
1
1
1
1
1
1
1
1
1
1
1
1
1
1
1
1
1
1
1
1
1
1
1
1
1
1
1
1
1
1
1
1
1
1
1
1.00004
1.16333
4.39311
7.12252
6.91686
6.62901
6.31187
1
1
1
1
1
1
1
1
1
1
1
1
1
1
1
1
1
1
1
1
1
1
1
1
1
1
1
1
1
1
1
1
1
1
1
1
1
1
1
1
1
1
1.00281
1.83144
5.76633
6.91667
6.61563
6.31227
1
1
1
1
1
1
1
1
1
1
1
1
1
1
1
1
1
1
1
1
1
1
1
1
1
1
1
1
1
1
1
1
1
1
1
1
1
1
1
1
1
1
1.00001
1.0529
3.07764
6.29748
6.62914
6.36947
1
1
1
1
1
1
1
1
1
1
1
1
1
1
1
1
1
1
1
1
1
1
1
1
1
1
1
1
1
1
1
1
1
1
1
1
1
1
1
1
1
1
1
1.00063
1.30477
4.39695
6.52228
6.43833
1
1
1
1
1
1
1
1
1
1
1
1
1
1
1
1
1
1
1
1
1
1
1
1
1
1
1
1
1
1
1
1
1
1
1
1
1
1
1
1
1
1
1
1
1.00911
1.89248
5.27429
6.38963
1
1
1
1
1
1
1
1
1
1
1
1
1
1
1
1
1
1
1
1
1
1
1
1
1
1
1
1
1
1
1
1
1
1
1
1
1
1
1
1
1
1
1
1
1.00007
1.06214
2.70869
5.71399
1
1
1
1
1
1
1
1
1
1
1
1
1
1
1
1
1
1
1
1
1
1
1
1
1
1
1
1
1
1
1
1
1
1
1
1
1
1
1
1
1
1
1
1
1
1.00089
1.21555
3.60256
1
1
1
1
1
1
1
1
1
1
1
1
1
1
1
1
1
1
1
1
1
1
1
1
1
1
1
1
1
1
1
1
1
1
1
1
1
1
1
1
1
1
1
1
1
1
1.00585
1.5205
1
1
1
1
1
1
1
1
1
1
1
1
1
1
1
1
1
1
1
1
1
1
1
1
1
1
1
1
1
1
1
1
1
1
1
1
1
1
1
1
1
1
1
1
1
1
1.00004
1.02512
1
1
1
1
1
1
1
1
1
1
1
1
1
1
1
1
1
1
1
1
1
1
1
1
1
1
1
1
1
1
1
1
1
1
1
1
1
1
1
1
1
1
1
1
1
1
1
1.00028
1
1
1
1
1
1
1
1
1
1
1
1
1
1
1
1
1
1
1
1
1
1
1
1
1
1
1
1
1
1
1
1
1
1
1
1
1
1
1
1
1
1
1
1
1
1
1
1
1
1
1
1
1
1
1
1
1
1
1
1
1
1
1
1
1
1
1
1
1
1
1
1
1
1
1
1
1
1
1
1
1
1
1
1
1
1
1
1
1
1
1
1
1
1
1
1
1
1
1
1
1
1
1
1
1
1
1
1
1
1
1
1
1
1
1
1
1
1
1
1
1
1
1
1
1
1
1
1
1
1
1
1
1
1
1
1
1
1
1
1
1
1
1
1
1
1
1
1
1
1
1
1
1
1
1
1
1
1
1
1
1
1
1
1
1
1
1
1
1
1
1
1
1
1
1
1
1
1
1
1
1
1
1
1
1
1
1
1
1
1
1
1
1
1
1
1
1
1
1
1
1
1
1
1
1
1
1
1
1
1
1
1
1
1
1
1
1
1
1
1
1
1
1
1
1
1
1
1
1
1
1
1
1
1
1
1
1
1
1
1
1
1
1
1
1
1
1
1
1
1
1
1
1
1
1
1
1
1
1
1
1
1
1
1
1
1
1
1
1
1
1
1
1
1
1
1
1
1
1
1
1
1
1
1
1
1
1
1
1
1
1
1
1
1
1
1
1
1
1
1
1
1
1
1
1
1
1
1
1
1
1
1
1
1
1
1
1
1
1
1
1
1
1
1
1
1
1
1
1
1
1
1
1
1
1
1
1
1
1
1
1
1
1
1
1
1
1
1
1
1
1
1
1
1
1
1
1
1
1
1
1
1
1
1
1
1
1
1
1
1
1
1
1
1
1
1
1
1
1
1
1
1
1
1
1
1
1
1
1
1
1
1
1
1
1
1
1
1
1
1
1
1
1
1
1
1
1
1
1
1
1
1
1
1
1
1
1
1
1
1
1
1
1
1
1
1
1
1
1
1
1
1
1
1
1
1
1
1
1
1
1
1
1
1
1
1
1
1
1
1
1
1
1
1
1
1
1
1
1
1
1
1
1
1
1
1
1
1
1
1
1
1
1
1
1
1
1
1
1
1
1
1
1
1
1
1
1
1
1
1
1
1
1
1
1
1
1
1
1
1
1
1
1
1
1
1
1
1
1
1
1
1
1
1
1
1
1
1
1
1
1
1
1
1
1
1
1
1
1
1
1
1
1
1
1
1
1
1
1
1
1
1
1
1
1
1
1
1
1
1
1
1
1
1
1
1
1
1
1
1
1
1
1
1
1
1
1
1
1
1
1
1
1
1
1
1
1
1
1
1
1
1
1
1
1
1
1
1
1
1
1
1
1
1
1
1
1
1
1
1
1
1
1
1
1
1
1
1
1
1
1
1
1
1
1
1
1
1
1
1
1
1
1
1
1
1
1
1
1
1
1
1
1
1
1
1
1
1
1
1
1
1
1
1
1
1
1
1
1
1
1
1
1
1
1
1
1
1
1
1
1
1
1
1
1
1
1
1
1
1
1
1
1
1
1
1
1
1
1
1
1
1
1
1
1
1
1
1
1
1
1
1
1
1
1
1
1
1
1
1
1
1
1
1
1
1
1
1
1
1
1
1
1
1
1
1
1
1
1
1
1
1
1
1
1
1
1
1
1
1
1
1
1
1
1
1
1
1
1
1
1
1
1
1
1
1
1
1
1
1
1
1
1
1
1
1
1
1
1
1
1
1
1
1
1
1
1
1
1
1
1
1
1
1
1
1
1
1
1
1
1
1
1
1
1
1
1
1
1
1
1
1
1
1
1
1
1
1
1
1
1
1
1
1
1
1
1
1
1
1
1
1
1
1
1
1
1
1
1
1
1
1
1
1
1
1
1
1
1
1
1
1
1
1
1
1
1
1
1
1
1
1
1
1
1
1
1
1
1
1
1
1
1
1
1
1
1
1
1
1
1
1
1
1
1
1
1
1
1
1
1
1
1
1
1
1
1
1
1
1
1
1
1
1
1
1
1
1
1
1
1
1
1
1
1
1
1
1
1
1
1
1
1
1
1
1
1
1
1
1
1
1
1
1
1
1
1
1
1
1
1
1
1
1
1
1
1
1
1
1
1
1
1
1
1
1
1
1
1
1
1
1
1
1
1
1
1
1
1
1
1
1
1
1
1
1
1
1
1
1
1
1
1
1
1
1
1
1
1
1
1
1
1
1
1
1
1
1
1
1
1
1
1
1
1
1
1
1
1
1
1
1
1
1
1
1
1
1
1
1
1
1
1
1
1
1
1
1
1
1
1
1
1
1
1
1
1
1
1
1
1
1
1
1
1
1
1
1
1
1
1
1
1
1
1
1
1
1
1
1
1
1
1
1
1
1
1
1
1
1
1
1
1
1
1
1
1
1
1
1
1
1
1
1
1
1
1
1
1
1
1
1
1
1
1
1
1
1
1
1
1
1
1
1
1
1
1
1
1
1
1
1
1
1
1
1
1
1
1
1
1
1
1
1
1
1
1
1
1
1
1
1
1
1
1
1
1
1
1
1
1
1
1
1
1
1
1
1
1
1
1
1
1
1
1
1
1
1
1
1
1
1
1
1
1
1
1
1
1
1
1
1
1
1
1
1
1
1
1
1
1
1
1
1
1
1
1
1
1
1
1
1
1
1
1
1
1
1
1
1
1
1
1
1
1
1
1
1
1
1
1
1
1
1
1
1
1
1
1
1
1
1
1
1
1
1
1
1
1
1
1
1
1
1
1
1
1
1
1
1
1
1
1
1
1
1
1
1
1
1
1
1
1
1
1
1
1
1
1
1
1
1
1
1
1
1
1
1
1
1
1
1
1
1
1
1
1
1
1
1
1
1
1
1
1
1
1
1
1
1
1
1
1
1
1
1
1
1
1
1
1
1
1
1
1
1
1
1
1
1
1
1
1
1
1
1
1
1
1
1
1
1
1
1
1
1
1
1
1
1
1
1
1
1
1
1
1
1
1
1
1
1
1
1
1
1
1
1
1
1
1
1
1
1
1
1
1
1
1
1
1
1
1
1
1
1
1
1
1
1
1
1
1
1
1
1
1
1
1
1
1
1
1
1
1
1
1
1
1
1
1
1
1
1
1
1
1
1
1
1
1
1
1
1
1
1
1
1
1
1
1
1
1
1
1
1
1
1
1
1
1
1
1
1
1
1
1
1
1
1
1
1
1
1
1
1
1
1
1
1
1
1
1
1
1
1
1
1
1
1
1
1
1
1
1
1
1
1
1
1
1
1
1
1
1
1
1
1
1
1
1
1
1
1
1
1
1
1
1
1
1
1
1
1
1
1
1
1
1
1
1
1
1
1
1
1
1
1
1
1
1
1
1
1
1
1
1
1
1
1
1
1
1
1
1
1
1
1
1
1
1
1
1
1
1
1
1
1
1
1
1
1
1
1
1
1
1
1
1
1
1
1
1
1
1
1
1
1
1
1
1
1
1
1
1
1
1
1
1
1
1
1
1
1
1
1
1
1
1
1
1
1
1
1
1
1
1
1
1
1
1
1
1
1
1
1
1
1
1
1
1
1
1
1
1
1
1
1
1
1
1
1
1
1
1
1
1
1
1
1
1
1
1
1
1
1
1
1
1
1
1
1
1
1
1
1
1
1
1
1
1
1
1
1
1
1
1
1
1
1
1
1
1
1
1
1
1
1
1
1
1
1
1
1
1
1
1
1
1
1
1
1
1
1
1
1
1
1
1
1
1
1
1
1
1
1
1
1
1
1
1
1
1
1
1
1
1
1
1
1
1
1
1
1
1
1
1
1
1
1
1
1
1
1
1
1
1
1
1
1
1
1
1
1
1
1
1
1
1
1
1
1
1
1
1
1
1
1
1
1
1
1
1
1
1
1
1
1
1
1
1
1
1
1
1
1
1
1
1
1
1
1
1
1
1
1
1
1
1
1
1
1
1
1
1
1
1
1
1
1
1
1
1
1
1
1
1
1
1
1
1
1
1
1
1
1
1
1
1
1
1
1
1
1
1
1
1
1
1
1
1
1
1
1
1
1
1
1
1
1
1
1
1
1
1
1
1
1
1
1
1
1
1
1
1
1
1
1
1
1
1
1
1
1
1
1
1
1
1
1
1
1
1
1
1
1
1
1
1
1
1
1
1
1
1
1
1
1
1
1
1
1
1
1
1
1
1
1
1
1
1
1
1
1
1
1
1
1
1
1
1
1
1
1
1
1
1
1
1
1
1
1
1
1
1
1
1
1
1
1
1
1
1
1
1
1
1
1
1
1
1
1
1
1
1
1
1
1
1
1
1
1
1
1
1
1
1
1
1
1
1
1
1
1
1
1
1
1
1
1
1
1
1
1
1
1
1
1
1
1
1
1
1
1
1
1
1
1
1
1
1
1
1
1
1
1
1
1
1
1
1
1
1
1
1
1
1
1
1
1
1
1
1
1
1
1
1
1
1
1
1
1
1
1
1
1
1
1
1
1
1
1
1
1
1
1
1
1
1
1
1
1
1
1
1
1
1
1
1
1
1
1
1
1
1
1
1
1
1
1
1
1
1
1
1
1
1
1
1
1
1
1
1
1
1
1
1
1
1
1
1
1
1
1
1
1
1
1
1
1
1
1
1
1
1
1
1
1
1
1
1
1
1
1
1
1
1
1
1
1
1
1
1
1
1
1
1
1
1
1
1
1
1
1
1
1
1
1
1
1
1
1
1
1
1
1
1
1
1
1
1
1
1
1
1
1
1
1
1
1
1
1
1
1
1
1
1
1
1
1
1
1
1
1
1
1
1
1
1
1
1
1
1
1
1
1
1
1
1
1
1
1
1
1
1
1
1
1
1
1
1
1
1
1
1
1
1
1
1
1
1
1
1
1
1
1
1
1
1
1
1
1
1
1
1
1
1
1
1
1
1
1
1
1
1
1
1
1
1
1
1
1
1
1
1
1
1
1
1
1
1
1
1
1
1
1
1
1
1
1
1
1
1
1
1
1
1
1
1.55192
0.424625
0.229427
0.16915
0.173825
0.222613
0.328647
0.48233
0.68306
0.814443
0.872381
0.942378
1.02669
1.14648
1.27158
1.30592
1.30277
1.26381
1.22929
1.22858
1.24618
1.30367
1.34608
1.35404
1.34469
1.31333
1.30968
1.31756
1.33635
1.65496
4.45201
5.52869
5.71257
5.92799
6.0853
6.14387
6.17328
6.24422
6.33135
6.38384
6.39731
6.40042
6.4127
6.43089
6.45136
6.45839
6.44159
6.4387
2.78888
1.38792
0.926202
0.717299
0.560131
0.4804
0.475725
0.506961
0.525907
0.57303
0.639962
0.716832
0.798127
0.893005
1.0177
1.11025
1.14856
1.1758
1.18701
1.19771
1.2272
1.27389
1.31048
1.32275
1.33585
1.33393
1.32299
1.31648
1.31469
1.49543
4.15067
5.54449
5.75663
5.93853
6.07166
6.14306
6.18656
6.24997
6.32668
6.37923
6.39619
6.39879
6.40918
6.4286
6.45197
6.46406
6.44811
6.43641
3.66418
2.36642
1.63179
1.30385
1.04545
0.791581
0.664945
0.626945
0.607903
0.606227
0.64108
0.700549
0.740615
0.765958
0.824024
0.927405
1.006
1.08577
1.16559
1.21916
1.26898
1.29608
1.29528
1.3033
1.32784
1.35379
1.35824
1.35199
1.32172
1.34431
3.50906
5.52085
5.83042
5.98124
6.05891
6.12457
6.19442
6.26239
6.32043
6.36518
6.39025
6.39572
6.3992
6.41269
6.43484
6.45552
6.45851
6.44794
4.25645
3.17417
2.32149
1.84862
1.56318
1.30959
1.0557
0.878726
0.852445
0.819556
0.78256
0.748963
0.717811
0.695579
0.703871
0.742807
0.825281
0.923741
1.02368
1.10711
1.16
1.20966
1.22576
1.24532
1.28217
1.33345
1.36958
1.37174
1.35494
1.32056
2.69854
5.34598
5.90722
6.04276
6.08283
6.10389
6.16922
6.2542
6.31511
6.34986
6.37805
6.39561
6.3992
6.40519
6.42094
6.43945
6.45105
6.44823
4.66002
3.75543
2.98457
2.40017
1.98069
1.71853
1.51573
1.30922
1.08743
0.982839
0.940309
0.893781
0.840835
0.77976
0.731202
0.731136
0.742636
0.777902
0.843471
0.937387
1.01123
1.07873
1.14342
1.17809
1.21009
1.26023
1.31247
1.32628
1.33258
1.33043
1.86591
5.05647
6.08643
6.06266
6.08775
6.10266
6.14722
6.21683
6.28485
6.33235
6.35914
6.37781
6.38852
6.39429
6.40362
6.41597
6.42994
6.43505
5.00111
4.19624
3.4741
2.92868
2.47653
2.05774
1.83307
1.67835
1.46998
1.23711
1.11936
1.07807
1.03757
0.978052
0.906339
0.833714
0.791778
0.786497
0.798559
0.811939
0.838819
0.882984
0.953957
1.02639
1.0756
1.13321
1.20091
1.25223
1.29303
1.31274
1.42067
4.40279
6.13642
6.06467
6.03587
6.05678
6.10674
6.16158
6.21962
6.27342
6.31861
6.34497
6.35509
6.36463
6.37672
6.38887
6.40322
6.37626
5.22064
4.5208
3.84459
3.32433
2.9052
2.46465
2.12596
1.93389
1.76411
1.58393
1.41387
1.24819
1.15353
1.11068
1.06323
1.00695
0.950934
0.886624
0.83083
0.818657
0.819459
0.839118
0.864642
0.888065
0.915379
0.955855
1.02127
1.09643
1.16897
1.25382
1.31084
3.62055
6.0858
5.99137
5.97005
6.00745
6.03946
6.08949
6.13412
6.19747
6.24866
6.27983
6.29058
6.29177
6.29688
6.29702
6.26234
6.25653
5.38225
4.76809
4.15517
3.63911
3.2212
2.82457
2.49381
2.2192
1.9607
1.81151
1.69307
1.54757
1.37628
1.22991
1.18563
1.16423
1.12393
1.06439
0.98283
0.892821
0.847
0.845308
0.85609
0.864269
0.866615
0.871878
0.886878
0.932448
0.996041
1.08478
1.15339
2.78136
5.91079
5.92406
5.84624
5.88639
5.9816
6.05001
6.07792
6.10593
6.14098
6.19427
6.20489
6.19457
6.17985
6.17127
6.10664
6.19118
5.49891
4.94273
4.38948
3.91537
3.48988
3.08085
2.77883
2.52325
2.25668
1.99482
1.85641
1.75162
1.61767
1.48596
1.36501
1.25894
1.21281
1.18131
1.13095
1.06463
0.99234
0.920763
0.876679
0.865102
0.867115
0.88623
0.895538
0.890892
0.894437
0.921583
0.950266
1.89402
5.40667
5.80271
5.74173
5.793
5.87641
5.9344
5.98827
6.01962
6.0541
6.05925
6.06776
6.06082
6.02976
5.92362
5.55663
4.52772
5.58787
5.08008
4.57961
4.13584
3.73191
3.33444
3.00805
2.75307
2.50593
2.26267
2.0817
1.89859
1.75481
1.67773
1.58856
1.47309
1.33932
1.25813
1.23222
1.20139
1.15012
1.08206
0.99492
0.920803
0.902142
0.907825
0.914946
0.907413
0.905261
0.893472
0.876607
1.1667
4.53924
5.64852
5.65833
5.73146
5.79251
5.84737
5.89342
5.90489
5.90578
5.91999
5.92112
5.88321
5.79064
5.61712
5.10941
4.139
5.65825
5.19314
4.73801
4.31644
3.93054
3.56624
3.24945
2.9704
2.69619
2.48243
2.31221
2.13277
1.9252
1.79203
1.729
1.64792
1.5403
1.43609
1.33385
1.26017
1.22982
1.19793
1.14718
1.08289
1.01152
0.95661
0.934875
0.930423
0.927346
0.919802
0.902411
0.895808
3.3529
5.42509
5.55302
5.68206
5.73882
5.76648
5.78774
5.80088
5.79096
5.77552
5.75524
5.71008
5.60792
5.31798
4.82296
3.93831
5.72628
5.28953
4.87463
4.49186
4.11269
3.75694
3.46137
3.18656
2.91296
2.66913
2.48423
2.3202
2.14098
1.99239
1.86366
1.73968
1.6655
1.60094
1.51244
1.39835
1.29521
1.26254
1.24456
1.20773
1.15675
1.09812
1.02754
0.965571
0.948545
0.952226
0.944311
0.917687
2.09461
5.01718
5.51902
5.62827
5.66776
5.68673
5.69134
5.69122
5.67777
5.65868
5.61302
5.53376
5.36544
5.10262
4.63052
3.90903
5.7864
5.37752
4.99495
4.63659
4.27148
3.93545
3.64444
3.36341
3.09569
2.87251
2.66674
2.46709
2.30038
2.17388
2.03943
1.88784
1.75475
1.69648
1.64157
1.55325
1.45226
1.37311
1.30832
1.26752
1.2445
1.21443
1.1646
1.09465
1.02156
0.984874
0.976133
0.956637
1.15401
4.2625
5.46364
5.54248
5.60263
5.62645
5.61593
5.59649
5.58773
5.55514
5.50287
5.40077
5.22096
4.93892
4.50219
3.92752
5.83543
5.46411
5.10959
4.75854
4.4101
4.10121
3.81222
3.52329
3.25892
3.05026
2.84592
2.63947
2.45326
2.31234
2.18504
2.05313
1.91774
1.81681
1.72412
1.64356
1.58359
1.5232
1.45082
1.35605
1.29616
1.27893
1.25412
1.21179
1.1581
1.09162
1.02714
0.991472
1.00342
2.73595
5.23198
5.48056
5.51182
5.55003
5.56564
5.54929
5.51452
5.47354
5.40949
5.29168
5.11156
4.83861
4.43845
3.96311
5.89983
5.54831
5.2099
4.8657
4.53784
4.24318
3.95818
3.6693
3.42298
3.20597
2.99933
2.79603
2.62082
2.46487
2.3124
2.17852
2.06745
1.96532
1.85638
1.73922
1.66061
1.62317
1.5713
1.48797
1.40591
1.35317
1.30533
1.27189
1.2458
1.20515
1.14707
1.07153
1.02515
1.40258
4.54105
5.46536
5.50743
5.51754
5.52037
5.49252
5.4569
5.41272
5.33646
5.20799
5.02465
4.76895
4.4072
4.00108
5.94155
5.61125
5.2778
4.94993
4.6526
4.36661
4.08043
3.80392
3.57724
3.35749
3.14241
2.93153
2.77198
2.6139
2.4624
2.3077
2.18854
2.08474
1.98429
1.87872
1.78532
1.71555
1.64432
1.57838
1.52319
1.47207
1.40966
1.3282
1.28654
1.26474
1.2344
1.19407
1.1174
1.12406
3.03741
5.20409
5.46301
5.45938
5.45034
5.42267
5.38099
5.34962
5.26286
5.13247
4.95793
4.72356
4.39512
4.03871
5.99318
5.67746
5.35438
5.04394
4.75846
4.48089
4.19972
3.94931
3.71943
3.49909
3.27498
3.08192
2.91469
2.74796
2.59476
2.44477
2.32676
2.20442
2.09339
1.99154
1.9129
1.83186
1.74445
1.65125
1.59577
1.56294
1.51155
1.4336
1.3637
1.31292
1.27869
1.26473
1.2349
1.17399
1.60318
4.51717
5.40049
5.42118
5.43437
5.40499
5.36456
5.29157
5.18768
5.04835
4.86873
4.65545
4.37569
4.06549
6.01319
5.70916
5.41295
5.13155
4.85136
4.57244
4.3106
4.08111
3.84919
3.62312
3.39808
3.22316
3.04543
2.88228
2.7108
2.57432
2.4516
2.32792
2.21294
2.10034
2.01619
1.92828
1.84855
1.76533
1.6918
1.63112
1.572
1.51516
1.46426
1.41834
1.35936
1.30576
1.29274
1.24933
1.26566
3.05354
5.16618
5.36803
5.37035
5.3455
5.2927
5.21656
5.11832
4.97624
4.80825
4.60416
4.34347
4.07056
6.07374
5.78093
5.49951
5.22501
4.95193
4.67931
4.43494
4.19673
3.9693
3.73665
3.53834
3.35369
3.17327
3.0024
2.8361
2.70797
2.56903
2.44836
2.32117
2.21977
2.12555
2.02697
1.93772
1.86306
1.79917
1.72408
1.64877
1.57389
1.53611
1.50552
1.46159
1.40535
1.34717
1.30545
1.27263
1.68588
4.38101
5.33309
5.33454
5.31384
5.26771
5.20327
5.09209
4.95817
4.78409
4.57515
4.33576
4.08821
6.14808
5.85727
5.58326
5.30904
5.03076
4.77675
4.53871
4.30238
4.06805
3.85041
3.66356
3.46888
3.2949
3.10955
2.9667
2.82465
2.68607
2.55833
2.42928
2.3322
2.2247
2.13194
2.03451
1.95455
1.88164
1.80699
1.74091
1.66857
1.61877
1.56873
1.52332
1.48851
1.44493
1.38556
1.312
1.33709
2.79612
5.07818
5.33166
5.28095
5.2267
5.15769
5.04859
4.90829
4.74409
4.54928
4.32962
4.1055
6.20166
5.9129
5.64391
5.37239
5.10924
4.87256
4.63322
4.39532
4.16182
3.97317
3.77642
3.58853
3.39674
3.22977
3.0885
2.93346
2.80168
2.65644
2.54723
2.43738
2.32676
2.23063
2.13202
2.0567
1.97042
1.89228
1.81909
1.76279
1.71159
1.65714
1.59055
1.535
1.50805
1.46993
1.405
1.34963
1.63455
4.08594
5.24505
5.25519
5.20867
5.12597
5.0139
4.88045
4.72827
4.55233
4.35637
4.14373
6.23352
5.99965
5.71918
5.44974
5.20229
4.96954
4.73631
4.49098
4.27541
4.08183
3.88319
3.69329
3.50204
3.35687
3.19536
3.04724
2.8973
2.76434
2.65818
2.53486
2.43363
2.32193
2.23424
2.149
2.05971
1.9858
1.90667
1.84994
1.78652
1.7306
1.67464
1.61473
1.56259
1.51868
1.4817
1.41296
1.4183
2.46574
4.8308
5.25641
5.19654
5.11159
5.00049
4.87735
4.73402
4.5638
4.3726
4.17171
5.86918
6.06536
5.82609
5.52532
5.2885
5.06138
4.8245
4.58274
4.38612
4.18324
3.98903
3.78007
3.61718
3.46439
3.30122
3.15433
2.99443
2.88348
2.75777
2.63912
2.52686
2.4188
2.33698
2.23781
2.15521
2.06924
2.00168
1.93872
1.86686
1.80203
1.73895
1.69315
1.64065
1.58246
1.53432
1.4917
1.44075
1.59599
3.68742
5.18247
5.18092
5.08476
4.97985
4.86649
4.73142
4.56882
4.38353
4.19372
4.30866
5.88432
5.90302
5.63528
5.37478
5.14281
4.90049
4.68687
4.49147
4.28949
4.07991
3.88039
3.73519
3.56648
3.41223
3.24232
3.11088
2.99331
2.85715
2.74426
2.61444
2.52564
2.4287
2.32974
2.24506
2.15694
2.09478
2.01729
1.94768
1.87651
1.81514
1.76164
1.70595
1.65514
1.60089
1.5643
1.49332
1.4947
2.20587
4.54428
5.14941
5.07126
4.9894
4.87874
4.74101
4.57824
4.39951
4.22109
1.95116
4.75113
5.81501
5.73055
5.48658
5.2317
4.98689
4.78833
4.59072
4.39193
4.16873
3.99949
3.84205
3.67375
3.50679
3.33677
3.22658
3.09025
2.96369
2.82905
2.71448
2.62834
2.51726
2.42636
2.32385
2.25152
2.17993
2.09589
2.02556
1.94811
1.89739
1.83688
1.77822
1.71811
1.66749
1.63505
1.57814
1.51581
1.59445
3.18224
4.90458
5.09172
4.99819
4.88171
4.74205
4.58669
4.42131
4.25706
1.07464
2.41295
5.03683
5.6998
5.5882
5.33392
5.08069
4.88763
4.69378
4.48195
4.26554
4.11275
3.94361
3.78098
3.59215
3.44979
3.32997
3.18826
3.06007
2.91209
2.82366
2.72176
2.61417
2.51178
2.40938
2.34579
2.25869
2.17934
2.0949
2.02915
1.97814
1.9104
1.85314
1.78534
1.73966
1.69933
1.65179
1.57425
1.57578
1.97295
4.05255
5.06559
4.99612
4.8649
4.73042
4.59222
4.4477
4.29949
1.00132
1.1605
2.87676
5.16998
5.5991
5.45673
5.19224
4.98503
4.79382
4.56705
4.37252
4.21606
4.04607
3.87256
3.68435
3.5669
3.42949
3.29211
3.14062
3.00757
2.92459
2.81201
2.71098
2.58992
2.50711
2.43389
2.34065
2.25845
2.16375
2.11468
2.05542
1.98733
1.92096
1.85444
1.81649
1.76704
1.71881
1.65237
1.60191
1.63118
2.62255
4.56848
4.9782
4.86875
4.75419
4.63332
4.49918
4.3546
1.00001
1.00404
1.28691
3.27445
5.20795
5.49849
5.32707
5.0948
4.88424
4.65713
4.47795
4.3136
4.1471
3.9512
3.79134
3.67552
3.5296
3.39088
3.22011
3.11445
3.01993
2.90618
2.79566
2.67151
2.60335
2.5189
2.42982
2.331
2.24398
2.19856
2.1298
2.06331
1.98429
1.93062
1.89197
1.83659
1.78321
1.71942
1.66983
1.63716
1.79878
3.42067
4.7753
4.90058
4.80094
4.68191
4.54724
4.39907
1
1.00003
1.01001
1.44249
3.58733
5.19647
5.38066
5.22548
4.9922
4.74941
4.57778
4.41746
4.24346
4.03276
3.89515
3.77178
3.63255
3.48187
3.31812
3.22525
3.11219
2.9978
2.8717
2.76216
2.69574
2.60582
2.51682
2.40392
2.33132
2.27976
2.20848
2.1364
2.04883
2.00732
1.96425
1.90713
1.8431
1.77873
1.74714
1.68287
1.67935
2.17966
4.03803
4.87435
4.84292
4.71038
4.57107
4.42604
1
1
1.00009
1.02094
1.60737
3.8355
5.15419
5.26406
5.11075
4.85416
4.67345
4.5158
4.33345
4.13036
3.99676
3.86802
3.73234
3.56215
3.42472
3.33013
3.20703
3.0902
2.94703
2.85712
2.78579
2.69031
2.59686
2.48462
2.41942
2.35976
2.28695
2.20536
2.1205
2.08208
2.03408
1.97615
1.90353
1.83943
1.81623
1.76571
1.69037
1.73543
2.71595
4.42095
4.85287
4.74923
4.60538
4.46225
1
1
1
1.00024
1.03658
1.77815
4.00189
5.08749
5.15924
4.98459
4.77775
4.60717
4.4224
4.2415
4.10852
3.97028
3.82188
3.64434
3.52707
3.42476
3.30556
3.17793
3.03221
2.95788
2.87371
2.7745
2.67322
2.56554
2.50872
2.44081
2.36334
2.27504
2.19602
2.15669
2.10386
2.04265
1.96482
1.90741
1.88054
1.83735
1.74543
1.72773
1.91353
3.31985
4.59443
4.76945
4.66067
4.51396
1
1
1
1
1.00051
1.05754
1.9423
4.0829
5.02001
5.06899
4.91248
4.71887
4.50467
4.34429
4.21456
4.06814
3.91111
3.73643
3.62624
3.51636
3.3978
3.25696
3.12678
3.05513
2.95979
2.86175
2.74748
2.65189
2.59642
2.51759
2.43758
2.34498
2.27499
2.23333
2.17368
2.10812
2.02751
1.97621
1.94322
1.90074
1.82831
1.75912
1.77403
2.21318
3.81772
4.66079
4.70207
4.57345
1
1
1
1
1
1.00098
1.08359
2.04895
4.13293
4.9177
4.98149
4.85451
4.62043
4.44623
4.30464
4.15896
3.99329
3.83585
3.73245
3.60992
3.48463
3.33355
3.2232
3.14793
3.04741
2.94749
2.82161
2.74334
2.6813
2.59445
2.51301
2.41441
2.35611
2.30934
2.24206
2.17373
2.09361
2.04706
2.00814
1.96076
1.90043
1.82684
1.80098
1.84391
2.59612
4.12853
4.67362
4.62182
1
1
1
1
1
1
1.00171
1.10195
2.15346
4.08125
4.87041
4.92884
4.77095
4.56209
4.40131
4.25138
4.07178
3.94262
3.82988
3.69653
3.56955
3.4188
3.32656
3.24027
3.13486
3.0254
2.89891
2.83413
2.7624
2.67536
2.58656
2.486
2.43928
2.383
2.31097
2.24013
2.1604
2.12079
2.07628
2.02133
1.96227
1.90242
1.86191
1.83631
1.95388
2.98765
4.30717
4.63559
1
1
1
1
1
1
1.00001
1.00227
1.12459
2.18608
4.07508
4.84329
4.85064
4.69129
4.518
4.33097
4.14878
4.04537
3.91836
3.78778
3.64926
3.50737
3.43005
3.32801
3.21968
3.10143
2.98509
2.92342
2.84105
2.75456
2.65357
2.5645
2.52138
2.45497
2.38443
2.30508
2.23258
2.19621
2.14227
2.08538
2.0199
1.97018
1.93726
1.87025
1.86347
2.12153
3.36759
4.39309
1
1
1
1
1
1
1
1.00001
1.00306
1.13866
2.19162
4.10449
4.74834
4.75073
4.63403
4.42761
4.24172
4.13426
4.00254
3.87912
3.72189
3.61353
3.53061
3.41075
3.30329
3.17256
3.07581
3.01184
2.9205
2.83231
2.72048
2.64764
2.60029
2.52707
2.45729
2.36851
2.31111
2.27077
2.20879
2.15115
2.07907
2.0332
2.00606
1.94378
1.8703
1.88906
2.33935
3.69321
1
1
1
1
1
1
1
1
1.00002
1.0037
1.14367
2.22157
4.06169
4.62416
4.67585
4.5627
4.36451
4.22152
4.09469
3.96016
3.80776
3.7256
3.61988
3.49771
3.38648
3.24565
3.17161
3.09587
2.99939
2.90852
2.79477
2.73555
2.67867
2.60309
2.52669
2.4341
2.39074
2.34185
2.27697
2.21591
2.1394
2.10172
2.06694
2.01335
1.92467
1.89553
1.95072
2.60263
1
1
1
1
1
1
1
1
1
1.00002
1.0041
1.14961
2.22728
3.92094
4.5386
4.62745
4.5096
4.34125
4.20306
4.02635
3.90209
3.824
3.70458
3.59187
3.45493
3.33297
3.26907
3.17179
3.07688
2.98263
2.8764
2.82381
2.75537
2.67879
2.59118
2.50649
2.46751
2.40928
2.34578
2.27423
2.20309
2.17127
2.12539
2.07357
2.00498
1.94234
1.94121
2.04681
1
1
1
1
1
1
1
1
1
1
1.00003
1.00444
1.14744
2.17806
3.73437
4.49187
4.58074
4.47291
4.32749
4.13259
4.00168
3.90352
3.78719
3.67093
3.51964
3.43767
3.35655
3.2466
3.16229
3.05099
2.96526
2.91185
2.82995
2.75222
2.65506
2.58383
2.54196
2.47704
2.41301
2.32965
2.27285
2.23961
2.1851
2.13457
2.07082
2.01705
1.96897
1.96763
1
1
1
1
1
1
1
1
1
1
1
1.00003
1.00421
1.13817
2.0579
3.60311
4.48758
4.53543
4.44991
4.26139
4.09599
3.98755
3.87848
3.7317
3.5999
3.52694
3.42629
3.33304
3.24684
3.12573
3.06782
2.99629
2.90366
2.82377
2.71862
2.66206
2.61392
2.5452
2.4774
2.38998
2.34635
2.30696
2.24872
2.19473
2.12623
2.08463
2.04308
1.97991
1
1
1
1
1
1
1
1
1
1
1
1
1.00003
1.00361
1.12279
1.90098
3.62598
4.39913
4.43079
4.3671
4.21028
4.07885
3.95241
3.79416
3.69167
3.60667
3.50427
3.42452
3.30528
3.21981
3.16422
3.06674
2.98043
2.89533
2.78765
2.74109
2.68221
2.6113
2.53767
2.45724
2.42107
2.37331
2.31515
2.2532
2.18175
2.15058
2.11308
2.04147
1
1
1
1
1
1
1
1
1
1
1
1
1
1.00002
1.0033
1.09474
1.86567
3.59102
4.2204
4.34903
4.30259
4.17491
4.02662
3.86994
3.77482
3.68646
3.60467
3.49865
3.37924
3.32325
3.23896
3.13392
3.06169
2.95423
2.86641
2.82301
2.74923
2.67856
2.59898
2.53094
2.49457
2.43801
2.38015
2.30873
2.24395
2.21587
2.17365
2.1147
1
1
1
1
1
1
1
1
1
1
1
1
1
1
1.00002
1.00253
1.08447
1.89772
3.33055
4.10562
4.33439
4.27597
4.13881
3.97799
3.85993
3.77461
3.6913
3.56834
3.48854
3.41176
3.30132
3.21555
3.134
3.00594
2.95431
2.89816
2.81424
2.74899
2.66459
2.6112
2.56764
2.50329
2.44295
2.3613
2.31074
2.27815
2.22918
2.17751
1
1
1
1
1
1
1
1
1
1
1
1
1
1
1
1.00002
1.00222
1.08764
1.77155
2.96626
4.06707
4.32973
4.28898
4.11871
3.95683
3.86811
3.7673
3.66923
3.58388
3.47752
3.37483
3.30279
3.17904
3.08301
3.04285
2.96029
2.88277
2.81938
2.73651
2.69449
2.63806
2.57012
2.50188
2.41616
2.37973
2.33848
2.2834
2.23596
1
1
1
1
1
1
1
1
1
1
1
1
1
1
1
1
1.00001
1.00207
1.06501
1.51388
2.74465
4.11853
4.24333
4.15743
4.0688
3.9827
3.85734
3.75326
3.64562
3.53582
3.46143
3.36545
3.22865
3.18152
3.11604
3.01835
2.96059
2.88247
2.81651
2.77539
2.70388
2.63552
2.55305
2.47853
2.44914
2.39711
2.34155
2.28917
1
1
1
1
1
1
1
1
1
1
1
1
1
1
1
1
1
1.00001
1.00112
1.03396
1.38099
2.78968
3.95041
4.07512
4.11678
4.0807
3.94793
3.81619
3.69385
3.61167
3.54191
3.4039
3.32375
3.27295
3.17021
3.09212
3.0362
2.94469
2.90477
2.85093
2.76864
2.69731
2.59887
2.54766
2.51693
2.45622
2.40366
2.34028
1
1
1
1
1
1
1
1
1
1
1
1
1
1
1
1
1
1
1
1.00051
1.0245
1.37633
2.70214
3.64597
4.0119
4.13248
4.04264
3.89855
3.78363
3.70936
3.58092
3.46579
3.43049
3.33857
3.22751
3.1798
3.09869
3.02576
2.99249
2.91548
2.83145
2.75136
2.6492
2.618
2.58251
2.5211
2.46481
2.39299
1
1
1
1
1
1
1
1
1
1
1
1
1
1
1
1
1
1
1
1
1.00044
1.0229
1.35242
2.44673
3.38245
4.00398
4.11471
4.04831
3.93308
3.7724
3.61379
3.57898
3.52459
3.38756
3.3147
3.2602
3.15528
3.11408
3.06811
2.97362
2.89458
2.80208
2.71013
2.68703
2.64657
2.58664
2.5207
2.45428
1
1
1
1
1
1
1
1
1
1
1
1
1
1
1
1
1
1
1
1
1
1.00038
1.01883
1.26099
2.00575
3.18982
4.05097
4.07552
3.97151
3.81512
3.72779
3.71218
3.58535
3.45166
3.40511
3.32056
3.22812
3.20121
3.1316
3.03123
2.95424
2.8554
2.7783
2.75576
2.71256
2.65161
2.57648
2.51804
1
1
1
1
1
1
1
1
1
1
1
1
1
1
1
1
1
1
1
1
1
1
1.00023
1.00992
1.12832
1.71525
3.2208
3.86504
3.90968
3.89807
3.86757
3.7896
3.61858
3.53565
3.4777
3.37011
3.31508
3.28507
3.1903
3.08999
3.01437
2.913
2.84886
2.8265
2.77864
2.71182
2.63739
2.58437
1
1
1
1
1
1
1
1
1
1
1
1
1
1
1
1
1
1
1
1
1
1
1
1.00007
1.00368
1.07294
1.6764
3.07327
3.64351
3.83856
3.93059
3.84519
3.69525
3.63369
3.54776
3.43642
3.40486
3.36203
3.24474
3.15099
3.07511
2.97148
2.92286
2.90166
2.84275
2.77211
2.70053
2.64864
1
1
1
1
1
1
1
1
1
1
1
1
1
1
1
1
1
1
1
1
1
1
1
1
1.00003
1.00215
1.06452
1.66259
2.77887
3.46741
3.86157
3.92457
3.86091
3.74869
3.59576
3.50561
3.49724
3.43286
3.29779
3.2133
3.1366
3.03607
3.00194
2.97618
2.90558
2.83777
2.75983
2.70976
1
1
1
1
1
1
1
1
1
1
1
1
1
1
1
1
1
1
1
1
1
1
1
1
1
1.00002
1.00191
1.06058
1.48938
2.29839
3.31491
3.87713
3.89831
3.78799
3.64957
3.6051
3.60035
3.48173
3.34964
3.27829
3.19403
3.10756
3.08818
3.05164
2.97341
2.90613
2.82348
2.76482
1
1
1
1
1
1
1
1
1
1
1
1
1
1
1
1
1
1
1
1
1
1
1
1
1
1
1.00001
1.00133
1.03028
1.23695
1.92912
3.30118
3.77375
3.72977
3.72259
3.71109
3.66102
3.50738
3.40796
3.34166
3.25238
3.19327
3.18153
3.12752
3.0378
2.96762
2.88908
2.82105
1
1
1
1
1
1
1
1
1
1
1
1
1
1
1
1
1
1
1
1
1
1
1
1
1
1
1
1.00001
1.00034
1.00951
1.12527
1.84517
3.12995
3.53402
3.67382
3.75369
3.69334
3.55945
3.4859
3.41517
3.3251
3.28578
3.27006
3.1927
3.0923
3.02452
2.95592
2.87645
1
1
1
1
1
1
1
1
1
1
1
1
1
1
1
1
1
1
1
1
1
1
1
1
1
1
1
1
1
1.00009
1.00483
1.10011
1.75654
2.82599
3.37187
3.67357
3.73248
3.68726
3.60995
3.49729
3.39915
3.37221
3.35444
3.2497
3.14869
3.08136
3.01166
2.92082
1
1
1
1
1
1
1
1
1
1
1
1
1
1
1
1
1
1
1
1
1
1
1
1
1
1
1
1
1
1
1.00005
1.00359
1.08243
1.57098
2.37961
3.19228
3.69056
3.75673
3.67286
3.54582
3.47792
3.47282
3.42728
3.29634
3.20783
3.14181
3.06043
2.97348
1
1
1
1
1
1
1
1
1
1
1
1
1
1
1
1
1
1
1
1
1
1
1
1
1
1
1
1
1
1
1
1.00004
1.00239
1.04443
1.29692
1.95438
3.12324
3.67877
3.5992
3.59264
3.58077
3.56961
3.47092
3.34384
3.2653
3.19524
3.10616
3.04735
1
1
1
1
1
1
1
1
1
1
1
1
1
1
1
1
1
1
1
1
1
1
1
1
1
1
1
1
1
1
1
1
1.00001
1.0007
1.01399
1.14092
1.78222
2.97518
3.43146
3.54182
3.61208
3.60243
3.5057
3.40206
3.32604
3.24739
3.16462
3.13022
1
1
1
1
1
1
1
1
1
1
1
1
1
1
1
1
1
1
1
1
1
1
1
1
1
1
1
1
1
1
1
1
1
1
1.00014
1.00542
1.0939
1.63968
2.72672
3.26804
3.52465
3.58493
3.55737
3.48567
3.40318
3.3088
3.23299
3.21107
1
1
1
1
1
1
1
1
1
1
1
1
1
1
1
1
1
1
1