/*--------------------------------*- C++ -*----------------------------------*\
  =========                 |
  \\      /  F ield         | OpenFOAM: The Open Source CFD Toolbox
   \\    /   O peration     | Website:  https://openfoam.org
    \\  /    A nd           | Version:  7
     \\/     M anipulation  |
\*---------------------------------------------------------------------------*/
FoamFile
{
    version     2.0;
    format      ascii;
    class       volVectorField;
    location    "2.9";
    object      U;
}
// * * * * * * * * * * * * * * * * * * * * * * * * * * * * * * * * * * * * * //

dimensions      [0 1 -1 0 0 0 0];

internalField   nonuniform List<vector> 
4128
(
(1.88537 0.792735 0)
(1.91352 0.773267 0)
(1.94513 0.747009 0)
(1.96372 0.735805 0)
(1.97216 0.737732 0)
(1.98879 0.727003 0)
(2.02201 0.70107 0)
(2.0492 0.674052 0)
(2.06274 0.670027 0)
(2.06959 0.669851 0)
(2.09265 0.651368 0)
(2.12368 0.620149 0)
(2.14278 0.600905 0)
(2.15061 0.603284 0)
(2.16116 0.594465 0)
(2.18981 0.568099 0)
(2.21261 0.538002 0)
(2.22438 0.532177 0)
(2.22872 0.53211 0)
(2.2488 0.51312 0)
(2.27411 0.481674 0)
(2.28888 0.463852 0)
(2.29432 0.465818 0)
(2.30423 0.454405 0)
(2.32787 0.425402 0)
(2.34311 0.399784 0)
(2.35101 0.398551 0)
(2.35655 0.393619 0)
(2.37779 0.370653 0)
(2.39322 0.343501 0)
(2.40202 0.339151 0)
(2.40607 0.337266 0)
(2.42471 0.318475 0)
(2.44113 0.290924 0)
(2.45008 0.280285 0)
(2.45205 0.282439 0)
(2.46233 0.266085 0)
(2.47758 0.23475 0)
(2.4855 0.215543 0)
(2.48849 0.217284 0)
(2.49203 0.211083 0)
(2.51049 0.193095 0)
(2.52254 0.1709 0)
(2.53024 0.165965 0)
(2.53066 0.168442 0)
(2.54079 0.154707 0)
(2.55455 0.130489 0)
(2.56206 0.115084 0)
(2.56438 0.116536 0)
(2.56504 0.111159 0)
(2.57783 0.0892435 0)
(2.58586 0.0664557 0)
(2.59123 0.0621988 0)
(2.59103 0.0653802 0)
(2.60136 0.0510001 0)
(2.60821 0.0345428 0)
(2.61684 0.0186362 0)
(2.61751 0.0211811 0)
(2.46118 0.239378 0)
(1.54851 0.653789 0)
(1.36347 0.667123 0)
(1.35388 0.660857 0)
(1.34159 0.658623 0)
(1.32889 0.656469 0)
(1.31647 0.654924 0)
(1.30933 0.651222 0)
(1.30632 0.648506 0)
(1.30536 0.647791 0)
(1.30574 0.647306 0)
(1.30592 0.646562 0)
(1.30457 0.644351 0)
(1.30143 0.639648 0)
(1.29589 0.633843 0)
(1.29162 0.627365 0)
(1.29495 0.622567 0)
(1.30593 0.621031 0)
(1.32035 0.621266 0)
(1.33593 0.621254 0)
(1.35104 0.619999 0)
(1.36397 0.616636 0)
(1.37255 0.609999 0)
(1.37835 0.599027 0)
(1.7795 0.868314 0)
(1.79335 0.859285 0)
(1.81842 0.840034 0)
(1.84226 0.82092 0)
(1.85584 0.815374 0)
(1.86581 0.813039 0)
(1.88722 0.79821 0)
(1.9185 0.773447 0)
(1.94053 0.756207 0)
(1.9509 0.756028 0)
(1.96204 0.751523 0)
(1.99032 0.730941 0)
(2.02193 0.701925 0)
(2.03988 0.689117 0)
(2.04673 0.692343 0)
(2.06076 0.682328 0)
(2.09248 0.656113 0)
(2.11817 0.6274 0)
(2.13105 0.622526 0)
(2.13633 0.623434 0)
(2.15703 0.60562 0)
(2.18578 0.574498 0)
(2.20331 0.554084 0)
(2.21039 0.556264 0)
(2.21908 0.548368 0)
(2.24548 0.522959 0)
(2.26622 0.493201 0)
(2.27699 0.486781 0)
(2.28036 0.486778 0)
(2.29845 0.467856 0)
(2.32055 0.437023 0)
(2.33326 0.421098 0)
(2.33835 0.423335 0)
(2.34912 0.412224 0)
(2.37095 0.385023 0)
(2.38395 0.363587 0)
(2.3906 0.364224 0)
(2.39772 0.357582 0)
(2.41814 0.33408 0)
(2.43122 0.308541 0)
(2.4378 0.304633 0)
(2.43943 0.302611 0)
(2.45478 0.279661 0)
(2.46743 0.250108 0)
(2.47474 0.240798 0)
(2.47684 0.24385 0)
(2.48735 0.233469 0)
(2.5051 0.211533 0)
(2.51478 0.19256 0)
(2.51979 0.193462 0)
(2.52059 0.191695 0)
(2.53533 0.172556 0)
(2.5463 0.147829 0)
(2.55204 0.138595 0)
(2.55154 0.140601 0)
(2.55706 0.128747 0)
(2.57035 0.106099 0)
(2.57743 0.0886575 0)
(2.58217 0.0895172 0)
(2.58357 0.0894044 0)
(2.59495 0.0714744 0)
(2.60099 0.0526957 0)
(2.60591 0.0467677 0)
(2.61429 0.0366464 0)
(2.61518 0.055133 0)
(1.98066 0.538778 0)
(1.40817 0.691838 0)
(1.37596 0.679086 0)
(1.36489 0.671876 0)
(1.35026 0.669336 0)
(1.34015 0.665207 0)
(1.33449 0.662834 0)
(1.33183 0.66347 0)
(1.33228 0.663507 0)
(1.33416 0.66249 0)
(1.33508 0.661083 0)
(1.33374 0.657847 0)
(1.32988 0.652112 0)
(1.32366 0.645279 0)
(1.32049 0.639225 0)
(1.32672 0.636452 0)
(1.33954 0.636543 0)
(1.35476 0.637238 0)
(1.371 0.637129 0)
(1.38669 0.635554 0)
(1.39917 0.631575 0)
(1.40593 0.623075 0)
(1.4101 0.61012 0)
(1.78342 0.881633 0)
(1.80473 0.864754 0)
(1.82981 0.843 0)
(1.84483 0.8335 0)
(1.85241 0.832744 0)
(1.86731 0.822294 0)
(1.89582 0.799586 0)
(1.92085 0.778042 0)
(1.9334 0.773679 0)
(1.94074 0.773394 0)
(1.96189 0.758027 0)
(1.99463 0.730635 0)
(2.01704 0.71048 0)
(2.02654 0.71105 0)
(2.03393 0.708671 0)
(2.06012 0.688659 0)
(2.09129 0.658113 0)
(2.10942 0.642089 0)
(2.11597 0.645661 0)
(2.1264 0.637292 0)
(2.15542 0.611978 0)
(2.17962 0.582064 0)
(2.19211 0.575233 0)
(2.19632 0.576876 0)
(2.21426 0.560314 0)
(2.24092 0.530014 0)
(2.25718 0.508705 0)
(2.26383 0.510204 0)
(2.27042 0.503163 0)
(2.29439 0.47857 0)
(2.31298 0.45017 0)
(2.32316 0.444537 0)
(2.32675 0.444745 0)
(2.34421 0.426961 0)
(2.36394 0.397744 0)
(2.37514 0.384548 0)
(2.37958 0.386596 0)
(2.3916 0.374056 0)
(2.41095 0.346493 0)
(2.42164 0.326392 0)
(2.42592 0.326567 0)
(2.43033 0.318033 0)
(2.44821 0.291798 0)
(2.45892 0.267709 0)
(2.466 0.266249 0)
(2.46863 0.266525 0)
(2.48461 0.25152 0)
(2.49938 0.226527 0)
(2.50746 0.21371 0)
(2.50951 0.217337 0)
(2.51465 0.208658 0)
(2.53027 0.184398 0)
(2.53886 0.162417 0)
(2.54303 0.159899 0)
(2.54153 0.15893 0)
(2.55295 0.142347 0)
(2.56491 0.120306 0)
(2.57195 0.108841 0)
(2.57551 0.112453 0)
(2.57838 0.108377 0)
(2.58975 0.086968 0)
(2.5955 0.0669211 0)
(2.59847 0.067749 0)
(2.6092 0.0541205 0)
(2.6105 0.0535419 0)
(2.5152 0.213132 0)
(1.65292 0.664792 0)
(1.39905 0.69327 0)
(1.38471 0.687125 0)
(1.37309 0.681403 0)
(1.36624 0.676361 0)
(1.36128 0.675048 0)
(1.35898 0.674816 0)
(1.3591 0.674341 0)
(1.36001 0.673441 0)
(1.36049 0.670979 0)
(1.35938 0.665712 0)
(1.35543 0.658669 0)
(1.35014 0.651626 0)
(1.35047 0.647158 0)
(1.3597 0.646251 0)
(1.37346 0.646694 0)
(1.38872 0.646606 0)
(1.40461 0.645392 0)
(1.41937 0.642639 0)
(1.42953 0.636936 0)
(1.43323 0.625863 0)
(1.43834 0.612401 0)
(1.79329 0.889001 0)
(1.81841 0.867165 0)
(1.83524 0.853892 0)
(1.84258 0.853036 0)
(1.85294 0.8465 0)
(1.87733 0.826222 0)
(1.90391 0.80185 0)
(1.91848 0.792898 0)
(1.92439 0.794488 0)
(1.93875 0.784152 0)
(1.96894 0.759502 0)
(1.99513 0.734425 0)
(2.00777 0.729247 0)
(2.01241 0.731846 0)
(2.03042 0.717877 0)
(2.06297 0.690002 0)
(2.08634 0.665293 0)
(2.09656 0.664154 0)
(2.10111 0.664387 0)
(2.12325 0.646018 0)
(2.153 0.615344 0)
(2.171 0.595732 0)
(2.17783 0.598537 0)
(2.18528 0.592357 0)
(2.21146 0.568731 0)
(2.23418 0.538512 0)
(2.24628 0.529541 0)
(2.24975 0.531794 0)
(2.26476 0.51681 0)
(2.28938 0.488143 0)
(2.30438 0.467381 0)
(2.31104 0.468851 0)
(2.31723 0.462814 0)
(2.33941 0.439286 0)
(2.35591 0.412098 0)
(2.36495 0.407362 0)
(2.36853 0.407027 0)
(2.38562 0.388505 0)
(2.40232 0.359505 0)
(2.4111 0.347008 0)
(2.41323 0.347924 0)
(2.42327 0.333589 0)
(2.44101 0.30695 0)
(2.4507 0.289927 0)
(2.45651 0.292592 0)
(2.46183 0.288171 0)
(2.47997 0.268076 0)
(2.49151 0.243366 0)
(2.49789 0.237799 0)
(2.49807 0.240196 0)
(2.50908 0.22518 0)
(2.52271 0.19858 0)
(2.52954 0.182279 0)
(2.53154 0.183796 0)
(2.53297 0.177755 0)
(2.54829 0.159628 0)
(2.55811 0.139672 0)
(2.56473 0.133928 0)
(2.5661 0.137815 0)
(2.57208 0.127465 0)
(2.58306 0.10256 0)
(2.58799 0.0877978 0)
(2.59061 0.0910913 0)
(2.59731 0.0844397 0)
(2.60939 0.0655682 0)
(2.60871 0.0768456 0)
(2.15761 0.497001 0)
(1.46556 0.717293 0)
(1.4084 0.695401 0)
(1.40117 0.691892 0)
(1.39499 0.690006 0)
(1.38966 0.689362 0)
(1.38551 0.689369 0)
(1.38309 0.688606 0)
(1.38259 0.685795 0)
(1.38228 0.680412 0)
(1.38066 0.673628 0)
(1.37626 0.667175 0)
(1.37289 0.661747 0)
(1.37773 0.659559 0)
(1.38924 0.659938 0)
(1.40341 0.66025 0)
(1.4183 0.659491 0)
(1.43314 0.657605 0)
(1.44589 0.653853 0)
(1.45248 0.645833 0)
(1.45326 0.632386 0)
(1.46157 0.620391 0)
(1.80589 0.891049 0)
(1.82576 0.874434 0)
(1.83513 0.87132 0)
(1.84233 0.86857 0)
(1.86188 0.852706 0)
(1.8894 0.827842 0)
(1.90712 0.812893 0)
(1.91379 0.813621 0)
(1.92193 0.808662 0)
(1.94659 0.788119 0)
(1.97521 0.760901 0)
(1.99114 0.748755 0)
(1.99608 0.752027 0)
(2.00654 0.744245 0)
(2.03557 0.720431 0)
(2.06333 0.691634 0)
(2.07732 0.682477 0)
(2.08082 0.686818 0)
(2.09368 0.675738 0)
(2.12424 0.649181 0)
(2.14818 0.621024 0)
(2.15965 0.616466 0)
(2.16273 0.618973 0)
(2.18021 0.603152 0)
(2.20823 0.573798 0)
(2.22593 0.551403 0)
(2.23339 0.552742 0)
(2.23841 0.54881 0)
(2.26167 0.527221 0)
(2.283 0.497963 0)
(2.29474 0.48809 0)
(2.29819 0.490641 0)
(2.31132 0.47693 0)
(2.33386 0.449178 0)
(2.34741 0.428736 0)
(2.35353 0.429977 0)
(2.35961 0.423867 0)
(2.37969 0.399718 0)
(2.39347 0.373175 0)
(2.40053 0.368542 0)
(2.40228 0.366731 0)
(2.41848 0.348482 0)
(2.43415 0.322691 0)
(2.44328 0.312903 0)
(2.44715 0.316197 0)
(2.45698 0.30571 0)
(2.47431 0.280972 0)
(2.48354 0.260354 0)
(2.48808 0.260674 0)
(2.48927 0.258401 0)
(2.50426 0.237819 0)
(2.51517 0.211401 0)
(2.52117 0.202593 0)
(2.52154 0.204951 0)
(2.52873 0.194497 0)
(2.54421 0.174732 0)
(2.5527 0.157322 0)
(2.55835 0.156285 0)
(2.55834 0.157452 0)
(2.56767 0.140912 0)
(2.57695 0.116414 0)
(2.58238 0.10678 0)
(2.58556 0.109465 0)
(2.59089 0.103896 0)
(2.60461 0.0808087 0)
(2.60844 0.0773721 0)
(2.5643 0.178234 0)
(1.75794 0.652906 0)
(1.43485 0.713217 0)
(1.43257 0.708126 0)
(1.4255 0.704309 0)
(1.41904 0.702925 0)
(1.41306 0.701838 0)
(1.40879 0.698583 0)
(1.40623 0.693373 0)
(1.40358 0.686598 0)
(1.40068 0.679336 0)
(1.39667 0.672778 0)
(1.39686 0.668305 0)
(1.40551 0.667691 0)
(1.41814 0.668463 0)
(1.43217 0.66845 0)
(1.44649 0.666933 0)
(1.46007 0.664072 0)
(1.46995 0.658605 0)
(1.47204 0.647487 0)
(1.4726 0.633187 0)
(1.48606 0.62443 0)
(1.81393 0.895052 0)
(1.82641 0.888471 0)
(1.83287 0.888521 0)
(1.84776 0.877879 0)
(1.87483 0.855059 0)
(1.89641 0.834614 0)
(1.90545 0.83217 0)
(1.91007 0.832229 0)
(1.92813 0.816708 0)
(1.95727 0.789578 0)
(1.97688 0.770235 0)
(1.98387 0.770798 0)
(1.9888 0.769293 0)
(2.01103 0.75018 0)
(2.04118 0.720581 0)
(2.05907 0.702951 0)
(2.06457 0.706042 0)
(2.07003 0.702657 0)
(2.0954 0.681448 0)
(2.12423 0.650788 0)
(2.14018 0.63559 0)
(2.14468 0.640262 0)
(2.15228 0.633419 0)
(2.17939 0.609636 0)
(2.20316 0.579931 0)
(2.21556 0.571165 0)
(2.21854 0.574939 0)
(2.23194 0.562046 0)
(2.25804 0.534736 0)
(2.27502 0.511069 0)
(2.28277 0.511006 0)
(2.28646 0.50858 0)
(2.30712 0.488327 0)
(2.32679 0.459671 0)
(2.33766 0.448794 0)
(2.34088 0.4512 0)
(2.35288 0.437942 0)
(2.37277 0.410088 0)
(2.38411 0.390318 0)
(2.38895 0.391177 0)
(2.39386 0.3845 0)
(2.41358 0.3633 0)
(2.42679 0.339885 0)
(2.43467 0.336668 0)
(2.43738 0.337308 0)
(2.45206 0.320787 0)
(2.46682 0.294135 0)
(2.47454 0.280306 0)
(2.47687 0.283397 0)
(2.48195 0.275108 0)
(2.49793 0.250725 0)
(2.50663 0.227972 0)
(2.51182 0.226035 0)
(2.51215 0.2263 0)
(2.52534 0.212906 0)
(2.53863 0.191613 0)
(2.54595 0.178086 0)
(2.54913 0.180274 0)
(2.54969 0.176187 0)
(2.56232 0.155085 0)
(2.56993 0.133312 0)
(2.57571 0.128917 0)
(2.57676 0.132507 0)
(2.58623 0.122552 0)
(2.5966 0.104388 0)
(2.60495 0.0909933 0)
(2.60288 0.0991295 0)
(2.27979 0.42404 0)
(1.55861 0.723386 0)
(1.44922 0.725058 0)
(1.44839 0.72067 0)
(1.44309 0.718997 0)
(1.43795 0.715661 0)
(1.43266 0.710879 0)
(1.42734 0.705604 0)
(1.42278 0.698652 0)
(1.41881 0.691158 0)
(1.41581 0.684583 0)
(1.41956 0.680816 0)
(1.43017 0.680322 0)
(1.44315 0.68029 0)
(1.45658 0.679646 0)
(1.46986 0.677744 0)
(1.48157 0.674378 0)
(1.48783 0.667028 0)
(1.48631 0.653216 0)
(1.49058 0.64057 0)
(1.50821 0.635189 0)
(1.81629 0.905471 0)
(1.82351 0.90574 0)
(1.83477 0.899706 0)
(1.85949 0.880526 0)
(1.88454 0.857419 0)
(1.89675 0.850278 0)
(1.9005 0.852891 0)
(1.91283 0.843115 0)
(1.94054 0.818754 0)
(1.96431 0.793708 0)
(1.97438 0.788938 0)
(1.97655 0.791872 0)
(1.99084 0.778513 0)
(2.02057 0.750988 0)
(2.04289 0.726131 0)
(2.05179 0.723805 0)
(2.05332 0.726778 0)
(2.06997 0.71129 0)
(2.10057 0.682394 0)
(2.12119 0.658391 0)
(2.12929 0.658287 0)
(2.13122 0.659774 0)
(2.15054 0.642267 0)
(2.17902 0.612615 0)
(2.1964 0.592095 0)
(2.20271 0.594874 0)
(2.20675 0.591901 0)
(2.22993 0.571134 0)
(2.25301 0.541523 0)
(2.2657 0.529231 0)
(2.26905 0.533017 0)
(2.27902 0.522256 0)
(2.30289 0.496493 0)
(2.31875 0.472204 0)
(2.32644 0.470661 0)
(2.32937 0.469005 0)
(2.34779 0.449281 0)
(2.36515 0.421039 0)
(2.37467 0.410517 0)
(2.3774 0.412634 0)
(2.38858 0.400563 0)
(2.40805 0.376157 0)
(2.41922 0.357897 0)
(2.42471 0.359368 0)
(2.42906 0.354547 0)
(2.44667 0.332804 0)
(2.45872 0.307496 0)
(2.46535 0.301264 0)
(2.4662 0.303368 0)
(2.47663 0.288847 0)
(2.49124 0.262742 0)
(2.49892 0.24637 0)
(2.50299 0.249108 0)
(2.50579 0.245667 0)
(2.52187 0.229047 0)
(2.53275 0.206871 0)
(2.53903 0.198405 0)
(2.53957 0.201163 0)
(2.54375 0.190639 0)
(2.55709 0.16787 0)
(2.56395 0.150107 0)
(2.56964 0.15 0)
(2.57138 0.150772 0)
(2.58202 0.138454 0)
(2.5914 0.119647 0)
(2.59914 0.106843 0)
(2.60125 0.102781 0)
(2.57486 0.158889 0)
(1.89601 0.626523 0)
(1.48496 0.734043 0)
(1.47852 0.729013 0)
(1.47382 0.724757 0)
(1.46692 0.72015 0)
(1.45923 0.715632 0)
(1.45248 0.710263 0)
(1.44737 0.704404 0)
(1.44247 0.699468 0)
(1.44023 0.694654 0)
(1.44551 0.691236 0)
(1.45625 0.689601 0)
(1.46831 0.688494 0)
(1.48033 0.687345 0)
(1.49195 0.685059 0)
(1.50083 0.680164 0)
(1.50247 0.669297 0)
(1.50061 0.654417 0)
(1.51149 0.646027 0)
(1.53105 0.642981 0)
(1.81336 0.922047 0)
(1.82282 0.91906 0)
(1.8438 0.903689 0)
(1.87016 0.880598 0)
(1.88533 0.868901 0)
(1.89012 0.871326 0)
(1.89856 0.866761 0)
(1.92322 0.846746 0)
(1.95083 0.818922 0)
(1.96485 0.807311 0)
(1.96756 0.811756 0)
(1.97481 0.805466 0)
(2.00077 0.782402 0)
(2.0274 0.753033 0)
(2.04038 0.742278 0)
(2.04221 0.747756 0)
(2.05031 0.739601 0)
(2.07791 0.714689 0)
(2.10302 0.685368 0)
(2.11495 0.676641 0)
(2.11609 0.68244 0)
(2.12576 0.672488 0)
(2.15413 0.64672 0)
(2.1768 0.618229 0)
(2.18747 0.612531 0)
(2.18863 0.617155 0)
(2.20174 0.603995 0)
(2.22864 0.576619 0)
(2.24649 0.552086 0)
(2.25427 0.55156 0)
(2.25648 0.551162 0)
(2.27562 0.532759 0)
(2.29738 0.504158 0)
(2.30965 0.489402 0)
(2.31338 0.492563 0)
(2.32113 0.483443 0)
(2.34273 0.458703 0)
(2.35693 0.434745 0)
(2.36426 0.432997 0)
(2.36691 0.431892 0)
(2.38443 0.414703 0)
(2.40119 0.388741 0)
(2.41049 0.377946 0)
(2.41316 0.380637 0)
(2.4224 0.369228 0)
(2.44009 0.343909 0)
(2.45001 0.323418 0)
(2.455 0.32329 0)
(2.45642 0.321139 0)
(2.47158 0.301836 0)
(2.48381 0.276696 0)
(2.49116 0.267827 0)
(2.49365 0.272195 0)
(2.50094 0.264369 0)
(2.51687 0.243618 0)
(2.52548 0.223241 0)
(2.53008 0.220479 0)
(2.52894 0.220985 0)
(2.53869 0.205642 0)
(2.55086 0.183056 0)
(2.55752 0.169778 0)
(2.56203 0.172583 0)
(2.56451 0.170656 0)
(2.57787 0.153936 0)
(2.5851 0.134443 0)
(2.58861 0.131141 0)
(2.59543 0.116342 0)
(2.59361 0.117541 0)
(2.40894 0.335193 0)
(1.66427 0.71324 0)
(1.48951 0.746628 0)
(1.49026 0.742393 0)
(1.4836 0.738312 0)
(1.47829 0.732081 0)
(1.47417 0.723733 0)
(1.46897 0.718091 0)
(1.46411 0.7147 0)
(1.46338 0.710687 0)
(1.46977 0.706949 0)
(1.47984 0.703829 0)
(1.49029 0.70138 0)
(1.50072 0.699002 0)
(1.51034 0.695297 0)
(1.51554 0.68769 0)
(1.5127 0.673835 0)
(1.51469 0.661389 0)
(1.53068 0.65711 0)
(1.55064 0.654794 0)
(1.81182 0.935422 0)
(1.82894 0.924005 0)
(1.85443 0.903088 0)
(1.87243 0.887597 0)
(1.87942 0.887385 0)
(1.88517 0.886736 0)
(1.90524 0.871521 0)
(1.93491 0.844806 0)
(1.95349 0.826675 0)
(1.95902 0.828789 0)
(1.96197 0.829207 0)
(1.98189 0.811927 0)
(2.01158 0.782544 0)
(2.02941 0.762883 0)
(2.03416 0.765871 0)
(2.03628 0.765705 0)
(2.057 0.746276 0)
(2.08549 0.715755 0)
(2.10172 0.697318 0)
(2.10548 0.701682 0)
(2.10766 0.700228 0)
(2.13019 0.679644 0)
(2.15736 0.648751 0)
(2.17227 0.63199 0)
(2.17569 0.637142 0)
(2.17918 0.633194 0)
(2.20304 0.61126 0)
(2.22646 0.581277 0)
(2.23884 0.569231 0)
(2.24115 0.574143 0)
(2.2492 0.564761 0)
(2.27357 0.540066 0)
(2.29106 0.513933 0)
(2.29962 0.510313 0)
(2.30119 0.511296 0)
(2.31697 0.494781 0)
(2.33713 0.467425 0)
(2.34864 0.452109 0)
(2.35291 0.455203 0)
(2.35962 0.447897 0)
(2.37994 0.425573 0)
(2.39353 0.401988 0)
(2.40061 0.399101 0)
(2.40225 0.39888 0)
(2.41729 0.381519 0)
(2.43277 0.355057 0)
(2.44121 0.341938 0)
(2.44397 0.344684 0)
(2.44915 0.336376 0)
(2.46633 0.313899 0)
(2.4766 0.292108 0)
(2.48343 0.290185 0)
(2.48492 0.292881 0)
(2.49707 0.279883 0)
(2.51081 0.255961 0)
(2.5178 0.240113 0)
(2.52054 0.241564 0)
(2.52044 0.237618 0)
(2.53445 0.219757 0)
(2.54465 0.198035 0)
(2.55129 0.190245 0)
(2.55392 0.194111 0)
(2.56012 0.187032 0)
(2.57253 0.167957 0)
(2.57902 0.14834 0)
(2.58163 0.146517 0)
(2.583 0.141556 0)
(2.59238 0.12319 0)
(2.58071 0.148957 0)
(2.08289 0.5644 0)
(1.55263 0.764271 0)
(1.5025 0.749132 0)
(1.5008 0.744311 0)
(1.49914 0.73749 0)
(1.49551 0.731275 0)
(1.49041 0.728436 0)
(1.48804 0.725393 0)
(1.49014 0.721303 0)
(1.49664 0.717773 0)
(1.50483 0.715066 0)
(1.51323 0.712107 0)
(1.52179 0.707744 0)
(1.52839 0.701236 0)
(1.52869 0.690101 0)
(1.52441 0.675573 0)
(1.53292 0.667691 0)
(1.55065 0.665241 0)
(1.57023 0.662832 0)
(1.81603 0.941964 0)
(1.83819 0.924857 0)
(1.85824 0.907291 0)
(1.86816 0.902596 0)
(1.87338 0.903775 0)
(1.88834 0.893007 0)
(1.91684 0.869727 0)
(1.93938 0.847912 0)
(1.94823 0.845286 0)
(1.95009 0.849499 0)
(1.96419 0.838013 0)
(1.99412 0.81163 0)
(2.01722 0.785859 0)
(2.02583 0.783039 0)
(2.02557 0.788664 0)
(2.03815 0.776439 0)
(2.06736 0.748879 0)
(2.08895 0.721773 0)
(2.09708 0.718966 0)
(2.09633 0.724357 0)
(2.10914 0.710439 0)
(2.13771 0.68206 0)
(2.15729 0.656034 0)
(2.1648 0.654594 0)
(2.16416 0.658802 0)
(2.17868 0.643475 0)
(2.20566 0.614793 0)
(2.22269 0.59113 0)
(2.22905 0.592149 0)
(2.22975 0.592731 0)
(2.24815 0.574688 0)
(2.2711 0.545741 0)
(2.28404 0.529137 0)
(2.28783 0.532831 0)
(2.29266 0.526442 0)
(2.31434 0.504144 0)
(2.33091 0.478061 0)
(2.33978 0.472771 0)
(2.34174 0.474916 0)
(2.35542 0.460716 0)
(2.37445 0.434774 0)
(2.38532 0.418047 0)
(2.38939 0.420448 0)
(2.39371 0.414453 0)
(2.41213 0.392565 0)
(2.42479 0.368178 0)
(2.43178 0.363056 0)
(2.43284 0.364592 0)
(2.44417 0.350538 0)
(2.46037 0.326469 0)
(2.46937 0.310218 0)
(2.47445 0.313073 0)
(2.47716 0.31117 0)
(2.4925 0.292789 0)
(2.50346 0.268191 0)
(2.50942 0.25896 0)
(2.51023 0.262188 0)
(2.51425 0.253397 0)
(2.52952 0.233675 0)
(2.53796 0.214483 0)
(2.54416 0.211863 0)
(2.54534 0.214876 0)
(2.55489 0.203663 0)
(2.56621 0.181264 0)
(2.57145 0.165197 0)
(2.57213 0.166259 0)
(2.57429 0.160626 0)
(2.58749 0.138329 0)
(2.58827 0.138297 0)
(2.50267 0.270411 0)
(1.81527 0.70041 0)
(1.52687 0.755352 0)
(1.52655 0.752244 0)
(1.52153 0.749198 0)
(1.5138 0.744943 0)
(1.51027 0.739991 0)
(1.51207 0.73523 0)
(1.51616 0.732215 0)
(1.52181 0.730469 0)
(1.52865 0.72818 0)
(1.53513 0.72419 0)
(1.54092 0.718097 0)
(1.54328 0.709142 0)
(1.53958 0.695059 0)
(1.53891 0.682188 0)
(1.55193 0.677834 0)
(1.56894 0.675989 0)
(1.58755 0.67351 0)
(1.82409 0.945437 0)
(1.84366 0.928957 0)
(1.85649 0.919322 0)
(1.86303 0.91927 0)
(1.87398 0.912382 0)
(1.89843 0.892825 0)
(1.92329 0.869995 0)
(1.93542 0.862249 0)
(1.93819 0.867038 0)
(1.94764 0.861037 0)
(1.97452 0.83912 0)
(2.00174 0.81091 0)
(2.01435 0.800877 0)
(2.0153 0.807841 0)
(2.02147 0.80306 0)
(2.0478 0.78067 0)
(2.07507 0.749538 0)
(2.0881 0.736752 0)
(2.08886 0.743991 0)
(2.09267 0.739122 0)
(2.11755 0.715987 0)
(2.14237 0.685007 0)
(2.15441 0.672461 0)
(2.15502 0.679355 0)
(2.15952 0.672878 0)
(2.18455 0.649064 0)
(2.20677 0.618859 0)
(2.21753 0.608987 0)
(2.21806 0.615101 0)
(2.22515 0.605753 0)
(2.24974 0.580871 0)
(2.26767 0.554092 0)
(2.27614 0.550008 0)
(2.27659 0.552978 0)
(2.28991 0.538333 0)
(2.31176 0.511453 0)
(2.32466 0.492371 0)
(2.32984 0.49472 0)
(2.3334 0.490858 0)
(2.35265 0.470493 0)
(2.36835 0.444455 0)
(2.37692 0.436911 0)
(2.37834 0.439899 0)
(2.38867 0.427315 0)
(2.40672 0.402274 0)
(2.41704 0.383664 0)
(2.42196 0.38483 0)
(2.42377 0.381859 0)
(2.44027 0.363806 0)
(2.45392 0.339792 0)
(2.46202 0.330417 0)
(2.46461 0.334639 0)
(2.47124 0.326353 0)
(2.48701 0.303341 0)
(2.49572 0.281481 0)
(2.5008 0.279148 0)
(2.50055 0.280895 0)
(2.5104 0.267709 0)
(2.52414 0.24651 0)
(2.53159 0.231215 0)
(2.53649 0.233255 0)
(2.53769 0.233274 0)
(2.55021 0.216889 0)
(2.55897 0.193948 0)
(2.56369 0.182712 0)
(2.56375 0.184037 0)
(2.56764 0.177504 0)
(2.58075 0.159554 0)
(2.58977 0.147641 0)
(2.58501 0.16106 0)
(2.25969 0.481937 0)
(1.65153 0.752291 0)
(1.54254 0.768798 0)
(1.53306 0.763822 0)
(1.5274 0.75878 0)
(1.5291 0.751956 0)
(1.53292 0.74783 0)
(1.53813 0.745111 0)
(1.54487 0.741656 0)
(1.55139 0.737394 0)
(1.55556 0.73283 0)
(1.55808 0.72613 0)
(1.55676 0.714584 0)
(1.55279 0.69903 0)
(1.55816 0.690174 0)
(1.57205 0.687739 0)
(1.58793 0.685852 0)
(1.60602 0.682444 0)
(1.83145 0.950714 0)
(1.84706 0.937058 0)
(1.85573 0.933531 0)
(1.8632 0.930481 0)
(1.88152 0.915531 0)
(1.9066 0.893206 0)
(1.92198 0.880007 0)
(1.92705 0.882519 0)
(1.93286 0.881441 0)
(1.95452 0.864648 0)
(1.98391 0.837198 0)
(2.00081 0.820185 0)
(2.00489 0.824039 0)
(2.00683 0.825384 0)
(2.027 0.80836 0)
(2.05758 0.778601 0)
(2.07572 0.757348 0)
(2.08033 0.760783 0)
(2.07973 0.764309 0)
(2.09705 0.747511 0)
(2.12591 0.717185 0)
(2.14332 0.693728 0)
(2.14824 0.696182 0)
(2.14704 0.69909 0)
(2.16374 0.681632 0)
(2.19015 0.651416 0)
(2.20538 0.629597 0)
(2.20972 0.632771 0)
(2.20934 0.633424 0)
(2.2278 0.614855 0)
(2.25108 0.585409 0)
(2.26398 0.568054 0)
(2.26732 0.572689 0)
(2.26972 0.568597 0)
(2.29049 0.547481 0)
(2.30842 0.520173 0)
(2.31788 0.511844 0)
(2.31939 0.515665 0)
(2.32938 0.503983 0)
(2.34969 0.478705 0)
(2.36204 0.457397 0)
(2.36781 0.457826 0)
(2.36939 0.456474 0)
(2.3858 0.438244 0)
(2.40098 0.41257 0)
(2.40955 0.402201 0)
(2.41184 0.405966 0)
(2.41799 0.397168 0)
(2.43615 0.375693 0)
(2.44723 0.354282 0)
(2.45383 0.351948 0)
(2.4547 0.353954 0)
(2.46649 0.339375 0)
(2.48056 0.314067 0)
(2.48799 0.297836 0)
(2.49166 0.300329 0)
(2.49269 0.29778 0)
(2.50703 0.281135 0)
(2.51821 0.259608 0)
(2.52508 0.24977 0)
(2.5279 0.254349 0)
(2.53136 0.249555 0)
(2.54431 0.228874 0)
(2.55119 0.206908 0)
(2.55558 0.202015 0)
(2.5553 0.203594 0)
(2.56364 0.194129 0)
(2.575 0.17879 0)
(2.58518 0.162522 0)
(2.58813 0.164804 0)
(2.54781 0.230977 0)
(1.96758 0.6499 0)
(1.57762 0.780445 0)
(1.55198 0.766032 0)
(1.54958 0.758075 0)
(1.55093 0.757838 0)
(1.55434 0.758169 0)
(1.56024 0.755601 0)
(1.56638 0.750921 0)
(1.57089 0.745911 0)
(1.57289 0.740569 0)
(1.57356 0.731711 0)
(1.57081 0.717817 0)
(1.56995 0.705402 0)
(1.57857 0.701383 0)
(1.59181 0.700018 0)
(1.60723 0.697514 0)
(1.62513 0.692833 0)
(1.83594 0.956075 0)
(1.84826 0.948029 0)
(1.85476 0.947614 0)
(1.86754 0.93833 0)
(1.89064 0.917891 0)
(1.90883 0.899638 0)
(1.91641 0.897629 0)
(1.92049 0.89951 0)
(1.9366 0.887364 0)
(1.96556 0.862559 0)
(1.98665 0.840741 0)
(1.99414 0.839389 0)
(1.99415 0.844976 0)
(2.00693 0.833799 0)
(2.03689 0.808116 0)
(2.06029 0.780958 0)
(2.06946 0.776325 0)
(2.06869 0.783936 0)
(2.07781 0.774545 0)
(2.10624 0.749099 0)
(2.1296 0.719346 0)
(2.13935 0.712254 0)
(2.13822 0.720395 0)
(2.14509 0.711564 0)
(2.17149 0.686106 0)
(2.19245 0.656257 0)
(2.20157 0.648996 0)
(2.20043 0.655967 0)
(2.20794 0.645674 0)
(2.23307 0.619921 0)
(2.25087 0.592446 0)
(2.2588 0.58866 0)
(2.25812 0.593605 0)
(2.26907 0.58047 0)
(2.29155 0.553874 0)
(2.30531 0.532079 0)
(2.31103 0.533297 0)
(2.31185 0.532757 0)
(2.32875 0.514641 0)
(2.34627 0.487479 0)
(2.3559 0.47483 0)
(2.35846 0.478695 0)
(2.3646 0.47037 0)
(2.38344 0.447514 0)
(2.39552 0.424663 0)
(2.4023 0.42258 0)
(2.40298 0.424492 0)
(2.41539 0.41028 0)
(2.43165 0.386324 0)
(2.44072 0.370611 0)
(2.44485 0.373306 0)
(2.44668 0.370092 0)
(2.46234 0.350505 0)
(2.4739 0.325694 0)
(2.4807 0.316878 0)
(2.48245 0.320985 0)
(2.48756 0.313106 0)
(2.50311 0.293409 0)
(2.51221 0.273459 0)
(2.51844 0.269637 0)
(2.51923 0.273841 0)
(2.52635 0.262898 0)
(2.53825 0.238981 0)
(2.54389 0.22134 0)
(2.548 0.222032 0)
(2.54904 0.222016 0)
(2.56008 0.210629 0)
(2.57037 0.19238 0)
(2.57719 0.183707 0)
(2.58631 0.175638 0)
(2.58317 0.180954 0)
(2.4118 0.378425 0)
(1.76513 0.730142 0)
(1.56774 0.77865 0)
(1.57025 0.774285 0)
(1.57298 0.771065 0)
(1.57597 0.768471 0)
(1.58019 0.764726 0)
(1.58351 0.76059 0)
(1.58605 0.755342 0)
(1.58761 0.748001 0)
(1.58763 0.73654 0)
(1.58526 0.723287 0)
(1.58839 0.715687 0)
(1.59865 0.71356 0)
(1.61212 0.71169 0)
(1.62789 0.70783 0)
(1.64507 0.702162 0)
(1.83058 0.968569 0)
(1.84414 0.962028 0)
(1.85643 0.956166 0)
(1.87671 0.939662 0)
(1.89724 0.920016 0)
(1.90751 0.912895 0)
(1.91096 0.915525 0)
(1.92183 0.908126 0)
(1.94761 0.887128 0)
(1.97172 0.862921 0)
(1.98234 0.855602 0)
(1.98291 0.861941 0)
(1.98977 0.85666 0)
(2.01558 0.835357 0)
(2.04346 0.806218 0)
(2.05707 0.79326 0)
(2.05839 0.800367 0)
(2.06105 0.798801 0)
(2.08436 0.778915 0)
(2.11277 0.747765 0)
(2.12756 0.729998 0)
(2.13002 0.736415 0)
(2.13024 0.737094 0)
(2.15053 0.718175 0)
(2.17695 0.687461 0)
(2.19113 0.668132 0)
(2.19384 0.673692 0)
(2.19339 0.67374 0)
(2.21298 0.654395 0)
(2.23637 0.624157 0)
(2.24876 0.606662 0)
(2.25134 0.612033 0)
(2.25265 0.609274 0)
(2.27292 0.588561 0)
(2.29198 0.560116 0)
(2.30192 0.54914 0)
(2.30315 0.554895 0)
(2.30828 0.547002 0)
(2.3288 0.523548 0)
(2.34269 0.498744 0)
(2.34977 0.495504 0)
(2.35048 0.497455 0)
(2.36331 0.482811 0)
(2.38066 0.457114 0)
(2.39036 0.440547 0)
(2.39459 0.44385 0)
(2.39695 0.440374 0)
(2.41392 0.421465 0)
(2.42697 0.397177 0)
(2.43449 0.388958 0)
(2.43593 0.393066 0)
(2.44181 0.383531 0)
(2.45823 0.360611 0)
(2.46757 0.339363 0)
(2.47344 0.337688 0)
(2.47384 0.339936 0)
(2.4845 0.327126 0)
(2.49863 0.305198 0)
(2.50638 0.289027 0)
(2.51118 0.290349 0)
(2.51114 0.291167 0)
(2.522 0.274443 0)
(2.53183 0.250297 0)
(2.53739 0.238773 0)
(2.54067 0.242658 0)
(2.54403 0.239446 0)
(2.55677 0.224998 0)
(2.56532 0.205489 0)
(2.57065 0.201023 0)
(2.578 0.196802 0)
(2.58244 0.185022 0)
(2.56638 0.209979 0)
(2.14802 0.552545 0)
(1.65152 0.776172 0)
(1.58401 0.789458 0)
(1.58897 0.785115 0)
(1.59177 0.780313 0)
(1.59549 0.775006 0)
(1.59886 0.768769 0)
(1.60137 0.761454 0)
(1.60226 0.753039 0)
(1.60086 0.742465 0)
(1.59974 0.733175 0)
(1.60611 0.728831 0)
(1.61796 0.726504 0)
(1.63221 0.723278 0)
(1.64786 0.718354 0)
(1.66354 0.712538 0)
(1.83073 0.978883 0)
(1.8445 0.970419 0)
(1.86371 0.95903 0)
(1.88373 0.942363 0)
(1.89601 0.931157 0)
(1.90118 0.931006 0)
(1.90912 0.927187 0)
(1.93049 0.910169 0)
(1.95623 0.88598 0)
(1.97003 0.87337 0)
(1.97248 0.877503 0)
(1.97537 0.877175 0)
(1.99541 0.859926 0)
(2.02527 0.831593 0)
(2.04309 0.81228 0)
(2.04762 0.815577 0)
(2.04703 0.820325 0)
(2.06277 0.80574 0)
(2.09315 0.777146 0)
(2.11346 0.751516 0)
(2.12044 0.750713 0)
(2.11844 0.757897 0)
(2.12949 0.746171 0)
(2.15784 0.719585 0)
(2.17795 0.691877 0)
(2.18577 0.688691 0)
(2.18397 0.696306 0)
(2.19291 0.68503 0)
(2.2189 0.658826 0)
(2.23681 0.631359 0)
(2.24421 0.627911 0)
(2.2427 0.633694 0)
(2.25322 0.621069 0)
(2.2766 0.594264 0)
(2.29098 0.570245 0)
(2.29696 0.570506 0)
(2.29608 0.573352 0)
(2.30964 0.557497 0)
(2.32903 0.530319 0)
(2.33982 0.513029 0)
(2.3437 0.516583 0)
(2.34564 0.513247 0)
(2.36337 0.493677 0)
(2.37767 0.467751 0)
(2.38565 0.459415 0)
(2.38733 0.46371 0)
(2.39481 0.4539 0)
(2.41229 0.430898 0)
(2.42246 0.409813 0)
(2.42817 0.40889 0)
(2.42808 0.41057 0)
(2.4396 0.395458 0)
(2.45419 0.370918 0)
(2.46213 0.355434 0)
(2.46624 0.358463 0)
(2.46753 0.356175 0)
(2.48235 0.339507 0)
(2.49395 0.316969 0)
(2.50088 0.306419 0)
(2.5035 0.3105 0)
(2.50485 0.305648 0)
(2.51809 0.284956 0)
(2.52608 0.263098 0)
(2.53196 0.258139 0)
(2.53393 0.262531 0)
(2.54047 0.255059 0)
(2.55305 0.237404 0)
(2.56033 0.218791 0)
(2.5653 0.217294 0)
(2.56893 0.216796 0)
(2.57901 0.199169 0)
(2.57494 0.191822 0)
(2.50159 0.28646 0)
(1.9149 0.684246 0)
(1.62029 0.795968 0)
(1.60993 0.789228 0)
(1.61163 0.784783 0)
(1.61507 0.78014 0)
(1.61719 0.774393 0)
(1.61759 0.767438 0)
(1.61703 0.758415 0)
(1.6158 0.749003 0)
(1.61743 0.743031 0)
(1.62546 0.740062 0)
(1.63777 0.73751 0)
(1.65166 0.73387 0)
(1.66622 0.728824 0)
(1.68035 0.722676 0)
(1.84959 0.979098 0)
(1.85068 0.977558 0)
(1.8695 0.965562 0)
(1.88485 0.950968 0)
(1.89127 0.946272 0)
(1.89725 0.943959 0)
(1.91369 0.931114 0)
(1.93886 0.909371 0)
(1.95596 0.892647 0)
(1.9618 0.892858 0)
(1.96344 0.896258 0)
(1.97781 0.883598 0)
(2.00695 0.857238 0)
(2.02894 0.832316 0)
(2.03726 0.829117 0)
(2.03631 0.837325 0)
(2.0444 0.829866 0)
(2.07172 0.806507 0)
(2.09651 0.777399 0)
(2.10717 0.767478 0)
(2.10644 0.77592 0)
(2.11059 0.771668 0)
(2.13576 0.750291 0)
(2.16185 0.719294 0)
(2.17491 0.704412 0)
(2.17649 0.712382 0)
(2.17705 0.711463 0)
(2.19827 0.691575 0)
(2.22193 0.661565 0)
(2.23392 0.645629 0)
(2.23538 0.652424 0)
(2.23637 0.649948 0)
(2.25746 0.629731 0)
(2.27789 0.600182 0)
(2.28836 0.586423 0)
(2.28995 0.592648 0)
(2.29262 0.587568 0)
(2.31271 0.565615 0)
(2.32845 0.538727 0)
(2.33653 0.531632 0)
(2.33704 0.536762 0)
(2.34421 0.526671 0)
(2.36324 0.502741 0)
(2.37464 0.480518 0)
(2.38064 0.480003 0)
(2.38134 0.481307 0)
(2.39477 0.465983 0)
(2.41003 0.440641 0)
(2.41829 0.425499 0)
(2.42176 0.429087 0)
(2.42306 0.425549 0)
(2.43868 0.40638 0)
(2.45034 0.382233 0)
(2.4573 0.373939 0)
(2.45908 0.378439 0)
(2.46414 0.370681 0)
(2.48014 0.35057 0)
(2.48947 0.329438 0)
(2.49555 0.325109 0)
(2.49588 0.328873 0)
(2.50112 0.31788 0)
(2.51445 0.295587 0)
(2.52128 0.278135 0)
(2.52687 0.278618 0)
(2.52777 0.281261 0)
(2.53764 0.269271 0)
(2.54889 0.249264 0)
(2.55529 0.233747 0)
(2.55997 0.234225 0)
(2.56063 0.235221 0)
(2.57109 0.213775 0)
(2.57493 0.196992 0)
(2.56953 0.206001 0)
(2.33623 0.442363 0)
(1.76732 0.762418 0)
(1.62188 0.79991 0)
(1.62695 0.795037 0)
(1.63027 0.791312 0)
(1.6294 0.787676 0)
(1.62843 0.779125 0)
(1.62867 0.767934 0)
(1.6302 0.759368 0)
(1.63483 0.754801 0)
(1.64373 0.752006 0)
(1.65575 0.749176 0)
(1.66893 0.745019 0)
(1.68226 0.73953 0)
(1.6946 0.732728 0)
(1.96878 0.932088 0)
(1.86249 0.975323 0)
(1.86597 0.975409 0)
(1.87857 0.964895 0)
(1.88691 0.959333 0)
(1.89848 0.950183 0)