/*--------------------------------*- C++ -*----------------------------------*\
  =========                 |
  \\      /  F ield         | OpenFOAM: The Open Source CFD Toolbox
   \\    /   O peration     | Website:  https://openfoam.org
    \\  /    A nd           | Version:  7
     \\/     M anipulation  |
\*---------------------------------------------------------------------------*/
FoamFile
{
    version     2.0;
    format      ascii;
    class       volScalarField;
    location    "2.6";
    object      T;
}
// * * * * * * * * * * * * * * * * * * * * * * * * * * * * * * * * * * * * * //

dimensions      [0 0 0 1 0 0 0];

internalField   nonuniform List<scalar> 
16512
(
1.5992
1.59581
1.59274
1.58982
1.5868
1.58343
1.57995
1.57699
1.57428
1.57161
1.56919
1.56695
1.56441
1.5617
1.5589
1.55585
1.55209
1.54786
1.54433
1.54122
1.53849
1.53589
1.53309
1.52994
1.52653
1.52333
1.52076
1.51857
1.51641
1.51433
1.51266
1.51076
1.50847
1.50643
1.50461
1.50257
1.50012
1.49769
1.49529
1.49263
1.48945
1.48576
1.48194
1.47884
1.47679
1.47504
1.47316
1.47091
1.46874
1.46715
1.46622
1.46635
1.4678
1.47147
1.47823
1.48933
1.50298
1.51648
1.5296
1.53884
1.54473
1.55118
1.55671
1.56128
1.56557
1.56993
1.57375
1.57654
1.57752
1.57683
1.57591
1.57491
1.57175
1.56582
1.56029
1.5568
1.55432
1.55255
1.55148
1.55118
1.55176
1.552
1.55085
1.549
1.54702
1.54494
1.54212
1.53805
1.53357
1.53062
1.52899
1.52802
1.52748
1.52796
1.52948
1.52875
1.52597
1.52314
1.52022
1.51761
1.51612
1.51539
1.51472
1.5138
1.51218
1.50935
1.50639
1.50437
1.50236
1.50006
1.49858
1.49854
1.49938
1.49917
1.49734
1.4947
1.49159
1.48796
1.48389
1.47998
1.47712
1.47536
1.47426
1.47358
1.47327
1.47326
1.47437
1.47696
1.47807
1.47756
1.47633
1.47404
1.47007
1.4644
1.45908
1.45561
1.4532
1.45095
1.44878
1.44691
1.44545
1.44448
1.4438
1.4432
1.44281
1.44319
1.44479
1.44492
1.44372
1.44192
1.43919
1.43516
1.432
1.43099
1.4304
1.42956
1.42858
1.42817
1.4282
1.42755
1.42559
1.42279
1.41902
1.41579
1.41485
1.41482
1.41494
1.41496
1.41514
1.41492
1.41322
1.41078
1.40778
1.40411
1.40094
1.39939
1.39882
1.39839
1.39743
1.39599
1.39429
1.39271
1.3916
1.39081
1.3902
1.38946
1.38794
1.38515
1.38217
1.38049
1.37945
1.37831
1.37725
1.37636
1.37541
1.37478
1.37462
1.37433
1.37316
1.37017
1.36567
1.36302
1.36177
1.36047
1.35908
1.36015
1.36691
1.38634
1.42833
1.48133
1.53935
1.58703
1.61913
1.64306
1.64988
1.65214
1.6569
1.65767
1.65662
1.65758
1.65833
1.65804
1.65827
1.65826
1.65728
1.65515
1.65348
1.65234
1.65196
1.65191
1.6517
1.65104
1.64993
1.64849
1.64672
1.64476
1.64337
1.64236
1.64186
1.64162
1.64126
1.64108
1.64134
1.64237
1.64338
1.64335
1.64296
1.64259
1.64138
1.63847
1.63529
1.63325
1.63213
1.63122
1.63045
1.6298
1.62937
1.62869
1.59825
1.59472
1.59152
1.58851
1.58543
1.58222
1.57919
1.57632
1.57362
1.57101
1.56843
1.56571
1.56277
1.55975
1.55673
1.5534
1.54966
1.54625
1.54358
1.54106
1.53862
1.53609
1.53332
1.53023
1.52679
1.52326
1.52015
1.51759
1.51521
1.51282
1.51048
1.50844
1.50634
1.50428
1.50247
1.50102
1.49957
1.49754
1.49519
1.49267
1.48993
1.48685
1.48357
1.4807
1.4781
1.4752
1.47194
1.46926
1.46686
1.46427
1.46156
1.45878
1.4574
1.45711
1.45625
1.45599
1.45766
1.4608
1.46602
1.47328
1.48106
1.49228
1.50591
1.51825
1.52795
1.53688
1.54547
1.55322
1.56058
1.56558
1.56775
1.56815
1.5674
1.56474
1.56177
1.558
1.55273
1.54879
1.54684
1.54553
1.54462
1.54504
1.54636
1.54626
1.54424
1.54246
1.5407
1.53841
1.53538
1.53127
1.52717
1.5245
1.52281
1.52167
1.52181
1.52346
1.52359
1.52117
1.51898
1.51694
1.51484
1.51312
1.51225
1.51176
1.51091
1.50897
1.50506
1.50089
1.49828
1.49595
1.49351
1.49184
1.49191
1.493
1.49299
1.49176
1.4899
1.48748
1.48432
1.48041
1.47658
1.47377
1.47199
1.47076
1.46985
1.46924
1.46892
1.46924
1.47111
1.47305
1.47315
1.47206
1.46986
1.46587
1.46008
1.45465
1.45118
1.44886
1.4468
1.44471
1.44286
1.44157
1.44084
1.44027
1.43978
1.43949
1.44005
1.44163
1.4418
1.44065
1.43881
1.43611
1.43183
1.42819
1.42695
1.42635
1.42562
1.42479
1.42452
1.42453
1.42354
1.42168
1.41916
1.41564
1.41221
1.41088
1.41068
1.41069
1.41058
1.41073
1.4108
1.40945
1.40749
1.40519
1.40207
1.39859
1.39656
1.39571
1.39529
1.39466
1.39334
1.39182
1.3902
1.38874
1.38754
1.38659
1.38564
1.38386
1.38065
1.37793
1.37677
1.37584
1.37485
1.37452
1.3738
1.37256
1.37205
1.37186
1.37148
1.37
1.36634
1.36184
1.35954
1.35812
1.35659
1.35528
1.35498
1.35583
1.3605
1.37373
1.4025
1.45323
1.50601
1.55998
1.59617
1.62358
1.6423
1.64767
1.65015
1.65539
1.65502
1.65396
1.6542
1.65341
1.6517
1.65048
1.64994
1.6492
1.64855
1.64827
1.64806
1.64747
1.6465
1.64533
1.64365
1.64132
1.63906
1.63792
1.63744
1.6373
1.6374
1.63756
1.63863
1.64038
1.64136
1.64102
1.64005
1.63942
1.63848
1.63589
1.63131
1.62809
1.62697
1.62649
1.62612
1.62575
1.62557
1.62527
1.59731
1.59385
1.59054
1.58723
1.58395
1.58104
1.57847
1.57584
1.57322
1.57072
1.56802
1.56506
1.56192
1.5583
1.55432
1.55055
1.54739
1.54499
1.54258
1.5403
1.53801
1.53537
1.5326
1.52973
1.52669
1.5236
1.52067
1.51783
1.51501
1.51234
1.50968
1.50699
1.50455
1.50232
1.50028
1.49852
1.49698
1.49539
1.49361
1.49162
1.48945
1.48684
1.48387
1.48124
1.47908
1.47687
1.474
1.47017
1.46635
1.46327
1.46047
1.45746
1.45493
1.45336
1.45175
1.45046
1.45063
1.45059
1.45007
1.44931
1.44705
1.44498
1.44707
1.45206
1.46123
1.47457
1.48866
1.50189
1.51499
1.52755
1.53736
1.54685
1.55416
1.55462
1.55374
1.55285
1.55061
1.54761
1.54454
1.54131
1.53911
1.53814
1.53833
1.54034
1.54264
1.54176
1.5393
1.53694
1.53506
1.53277
1.52876
1.52349
1.51945
1.51689
1.51538
1.51518
1.51705
1.51857
1.51751
1.51616
1.51471
1.51262
1.51028
1.50885
1.50812
1.50687
1.50398
1.499
1.49443
1.49174
1.48958
1.4875
1.48658
1.48755
1.48924
1.48912
1.48793
1.48654
1.48455
1.48128
1.47696
1.47311
1.47039
1.46846
1.46684
1.46549
1.4646
1.46427
1.46426
1.46557
1.4681
1.46919
1.46815
1.46572
1.46189
1.45628
1.45044
1.44662
1.44431
1.44256
1.44066
1.43897
1.43825
1.43783
1.43743
1.43711
1.43714
1.43779
1.43874
1.43853
1.43711
1.43514
1.43238
1.42807
1.42435
1.42302
1.42248
1.42195
1.42142
1.42142
1.42123
1.41983
1.41796
1.41556
1.41211
1.40852
1.40682
1.40635
1.40635
1.40627
1.40672
1.40752
1.40668
1.40496
1.40298
1.40004
1.39614
1.39368
1.39254
1.39179
1.3914
1.39048
1.38884
1.38729
1.38581
1.38455
1.38341
1.38195
1.37944
1.37635
1.37434
1.37329
1.37237
1.37215
1.37198
1.37072
1.3695
1.36881
1.36839
1.36779
1.36592
1.36175
1.35787
1.35601
1.35452
1.35295
1.35206
1.35244
1.35365
1.35409
1.35566
1.36254
1.38133
1.41885
1.47458
1.52519
1.57117
1.59938
1.62452
1.64
1.64435
1.64914
1.65322
1.65195
1.64981
1.64882
1.64712
1.64464
1.64274
1.64173
1.64154
1.64211
1.64205
1.64139
1.64056
1.63929
1.63757
1.63563
1.63427
1.63392
1.63411
1.6344
1.6346
1.63485
1.63547
1.63635
1.63665
1.6359
1.63501
1.63362
1.63024
1.62529
1.62269
1.62213
1.62196
1.62181
1.6218
1.62178
1.59624
1.59305
1.58982
1.58614
1.58274
1.5802
1.57768
1.57513
1.5727
1.57026
1.56742
1.56452
1.56167
1.55812
1.55303
1.54859
1.54596
1.54377
1.54157
1.53948
1.53701
1.534
1.53095
1.52798
1.52516
1.52274
1.52058
1.51833
1.51578
1.51273
1.50961
1.50671
1.50379
1.50094
1.49851
1.4965
1.49465
1.49286
1.49106
1.48921
1.48734
1.48544
1.48324
1.48098
1.47901
1.47708
1.47485
1.47202
1.46827
1.46409
1.46057
1.45748
1.45449
1.45214
1.4502
1.4479
1.44659
1.44631
1.44617
1.44593
1.44558
1.44354
1.43817
1.43259
1.42902
1.42926
1.43196
1.43841
1.44913
1.46293
1.47725
1.49143
1.50583
1.51803
1.52656
1.53481
1.5387
1.53832
1.53798
1.53633
1.53335
1.53185
1.53166
1.53201
1.5338
1.53575
1.53662
1.53661
1.53574
1.53311
1.52964
1.52549
1.51983
1.5143
1.51104
1.50937
1.509
1.51127
1.5146
1.51419
1.51282
1.51148
1.50957
1.50666
1.50444
1.50309
1.50111
1.49757
1.49269
1.4888
1.48637
1.4844
1.48287
1.48302
1.48582
1.48712
1.48644
1.48552
1.48451
1.4825
1.47858
1.47364
1.46978
1.467
1.46461
1.46245
1.4608
1.45981
1.45961
1.45962
1.46019
1.46239
1.46454
1.46422
1.46171
1.45801
1.45271
1.44646
1.44213
1.43973
1.43813
1.43649
1.43583
1.43562
1.43539
1.43512
1.43494
1.43503
1.43542
1.43567
1.43473
1.43303
1.43103
1.42838
1.42437
1.42074
1.41934
1.41888
1.41854
1.41825
1.41821
1.41765
1.41613
1.41425
1.41182
1.40847
1.40504
1.40324
1.40264
1.40268
1.4028
1.40362
1.40484
1.40449
1.40266
1.40064
1.3976
1.39346
1.39073
1.38929
1.38827
1.38762
1.38725
1.38582
1.38438
1.38324
1.38206
1.38071
1.37879
1.37583
1.37296
1.37128
1.3703
1.3693
1.36878
1.36847
1.36728
1.36604
1.36531
1.36469
1.36365
1.36121
1.35726
1.3543
1.35267
1.35151
1.35085
1.35081
1.35095
1.35041
1.3499
1.3499
1.35049
1.35337
1.36409
1.38825
1.43201
1.4881
1.53763
1.576
1.60216
1.62638
1.63998
1.64432
1.64872
1.6488
1.64752
1.6445
1.6411
1.63822
1.63666
1.63585
1.63572
1.63551
1.6355
1.63551
1.63481
1.63387
1.63292
1.63185
1.63135
1.63147
1.63148
1.63145
1.63109
1.63079
1.63079
1.63092
1.63053
1.62981
1.62827
1.62554
1.62173
1.61919
1.61848
1.61828
1.61828
1.61861
1.59494
1.59199
1.58878
1.58506
1.58166
1.57916
1.57678
1.57434
1.5719
1.56931
1.56659
1.56378
1.56071
1.55708
1.55279
1.54868
1.54565
1.54325
1.5409
1.53842
1.53565
1.53246
1.52926
1.52614
1.52321
1.52096
1.51938
1.51788
1.51595
1.51325
1.50993
1.50678
1.50373
1.50057
1.49752
1.49496
1.49257
1.49047
1.48862
1.48684
1.48509
1.48339
1.4817
1.47988
1.47803
1.47628
1.47447
1.47227
1.46945
1.46605
1.46226
1.45862
1.45525
1.45214
1.44951
1.44744
1.4451
1.44369
1.44301
1.44264
1.44207
1.44076
1.43849
1.43498
1.43016
1.42484
1.42118
1.41925
1.41926
1.42083
1.42447
1.43079
1.44033
1.45257
1.46549
1.47844
1.49097
1.50094
1.50916
1.51808
1.52187
1.52247
1.52249
1.52248
1.52287
1.52467
1.52859
1.5316
1.5314
1.53071
1.52994
1.5273
1.52239
1.51604
1.50961
1.50588
1.50407
1.50374
1.50635
1.51028
1.50978
1.50849
1.50749
1.5055
1.50196
1.49896
1.49691
1.49473
1.49143
1.48731
1.48402
1.48181
1.48005
1.47946
1.48067
1.48424
1.48514
1.48449
1.48385
1.48279
1.48019
1.47557
1.47036
1.46656
1.46366
1.46087
1.45817
1.45623
1.45546
1.45537
1.45545
1.45577
1.45723
1.45946
1.45998
1.4578
1.45405
1.4492
1.44309
1.43822
1.43541
1.43354
1.43299
1.43307
1.43311
1.43309
1.43285
1.43242
1.4324
1.4327
1.43206
1.43024
1.42854
1.42675
1.42442
1.42092
1.41749
1.41597
1.41542
1.41511
1.41468
1.41427
1.41363
1.41221
1.41042
1.40827
1.40561
1.40267
1.40062
1.39984
1.3998
1.39986
1.39999
1.40094
1.40158
1.4004
1.39807
1.39501
1.39093
1.38788
1.38603
1.38465
1.38357
1.38331
1.38287
1.3817
1.38064
1.37967
1.37845
1.37639
1.37319
1.37016
1.36815
1.36686
1.36558
1.36475
1.36451
1.36372
1.3626
1.36194
1.36135
1.3603
1.35792
1.35425
1.35143
1.34965
1.34842
1.34776
1.34764
1.34705
1.34645
1.34641
1.34638
1.3461
1.34527
1.34588
1.35016
1.36552
1.39574
1.44722
1.50415
1.55341
1.5843
1.60922
1.63243
1.64079
1.64284
1.64296
1.64202
1.63922
1.63583
1.63322
1.63178
1.63142
1.63118
1.63075
1.63041
1.63016
1.62972
1.6292
1.6289
1.62866
1.62863
1.62854
1.6282
1.62758
1.62688
1.62662
1.62596
1.62498
1.62424
1.62321
1.62135
1.61858
1.61619
1.61532
1.61528
1.61538
1.5936
1.59056
1.58725
1.58372
1.58063
1.5782
1.57586
1.57342
1.57101
1.56835
1.56525
1.56204
1.55859
1.55483
1.5514
1.54866
1.54622
1.54393
1.54139
1.53827
1.53474
1.53124
1.5279
1.52481
1.52211
1.51992
1.51826
1.51683
1.51526
1.51312
1.51004
1.50682
1.50373
1.50046
1.49722
1.49408
1.49107
1.4886
1.4866
1.48485
1.48321
1.48174
1.48032
1.47877
1.47704
1.47514
1.4732
1.47121
1.46905
1.46654
1.46376
1.46061
1.45688
1.45294
1.44948
1.44648
1.44385
1.44198
1.44091
1.44014
1.43947
1.43887
1.43748
1.43525
1.43219
1.42771
1.42209
1.41816
1.41626
1.41471
1.414
1.41381
1.41411
1.41516
1.41781
1.42275
1.42973
1.43848
1.44826
1.45951
1.47101
1.48185
1.49326
1.50015
1.50526
1.51105
1.51559
1.51863
1.52132
1.52409
1.52482
1.52392
1.52208
1.51885
1.51288
1.50589
1.50109
1.49906
1.49861
1.50058
1.50492
1.50555
1.50454
1.50313
1.50052
1.49639
1.49271
1.4902
1.48839
1.48596
1.48284
1.47966
1.47728
1.47596
1.4758
1.47711
1.48081
1.48267
1.48232
1.48139
1.47978
1.47657
1.47151
1.4665
1.46298
1.46013
1.45734
1.45455
1.45236
1.45157
1.4515
1.45161
1.45184
1.45247
1.454
1.4551
1.4538
1.45006
1.44572
1.44052
1.43522
1.43154
1.42985
1.42941
1.42938
1.42932
1.42924
1.42904
1.42873
1.42879
1.42875
1.42718
1.42511
1.42387
1.42268
1.42082
1.41777
1.41444
1.4126
1.41175
1.41126
1.41046
1.40976
1.40938
1.40837
1.40683
1.40548
1.40386
1.40152
1.39881
1.39731
1.397
1.39693
1.39663
1.39689
1.39785
1.39752
1.3954
1.39254
1.38873
1.38519
1.38279
1.38092
1.37958
1.37897
1.37906
1.3789
1.37806
1.37723
1.37619
1.37411
1.37053
1.36702
1.36471
1.36321
1.36174
1.36065
1.36075
1.36085
1.35987
1.35949
1.35921
1.35836
1.35604
1.35204
1.34876
1.34699
1.34592
1.34496
1.34382
1.34335
1.34338
1.34339
1.34329
1.34283
1.34196
1.341
1.33953
1.34085
1.34885
1.37111
1.41096
1.47165
1.52785
1.57401
1.59578
1.61473
1.6313
1.63554
1.63496
1.63388
1.63241
1.63032
1.62944
1.62881
1.62837
1.62791
1.62711
1.62603
1.6255
1.62536
1.62536
1.62538
1.62551
1.62539
1.62474
1.62409
1.62358
1.62304
1.62186
1.62083
1.62005
1.61907
1.61723
1.61472
1.61259
1.61188
1.61182
1.59243
1.5891
1.58559
1.58236
1.57969
1.57722
1.57482
1.57245
1.56991
1.56696
1.56373
1.56025
1.55637
1.55258
1.54989
1.54785
1.546
1.54408
1.54174
1.53861
1.53443
1.5301
1.52673
1.52395
1.52154
1.51952
1.51783
1.51629
1.51461
1.51241
1.50941
1.5063
1.50342
1.50027
1.49702
1.49356
1.49013
1.48718
1.48477
1.48279
1.4812
1.47996
1.47879
1.47747
1.47591
1.47404
1.47177
1.46932
1.46727
1.46554
1.46362
1.46124
1.45832
1.45473
1.45057
1.44662
1.44343
1.44094
1.43923
1.43818
1.43752
1.43695
1.43603
1.43453
1.43242
1.4298
1.42629
1.42134
1.41607
1.41325
1.41188
1.41099
1.4102
1.40913
1.40813
1.40789
1.40798
1.40823
1.40898
1.41089
1.4149
1.42131
1.42955
1.44163
1.45512
1.4702
1.4829
1.4911
1.49864
1.50549
1.51128
1.51492
1.51604
1.51567
1.5129
1.50828
1.50241
1.49644
1.49383
1.49309
1.49453
1.49893
1.50093
1.50033
1.49814
1.4947
1.49033
1.48631
1.48422
1.48278
1.48061
1.47743
1.47414
1.4722
1.47142
1.47116
1.47217
1.47532
1.47805
1.47826
1.47733
1.47516
1.47158
1.46651
1.46194
1.45892
1.45642
1.45404
1.45168
1.44955
1.44836
1.44801
1.44797
1.44805
1.448
1.44854
1.44964
1.44937
1.44615
1.44234
1.43797
1.43282
1.42876
1.42669
1.42552
1.42529
1.42517
1.4249
1.42461
1.4245
1.42435
1.42384
1.42191
1.42031
1.41964
1.41899
1.41757
1.41477
1.41125
1.40899
1.40781
1.40707
1.40605
1.40535
1.40558
1.40565
1.40431
1.40321
1.40209
1.40012
1.397
1.39479
1.39415
1.39399
1.3936
1.39355
1.39447
1.39456
1.39264
1.39
1.38655
1.38262
1.37954
1.37717
1.37554
1.37467
1.37455
1.37498
1.375
1.3745
1.37358
1.37165
1.36787
1.36372
1.36111
1.3595
1.35801
1.35679
1.35677
1.3577
1.35789
1.35765
1.35738
1.35656
1.35428
1.35
1.34615
1.34402
1.34258
1.34123
1.34045
1.34041
1.34038
1.34041
1.34046
1.34015
1.33944
1.33792
1.33634
1.33395
1.33303
1.33659
1.35247
1.38496
1.43471
1.49764
1.55014
1.58544
1.59968
1.61391
1.62259
1.62423
1.62411
1.6246
1.62649
1.62749
1.62765
1.62735
1.62601
1.62387
1.62154
1.61986
1.61931
1.61937
1.61979
1.62003
1.62011
1.62032
1.62052
1.62018
1.61904
1.61799
1.6168
1.61515
1.61259
1.60945
1.60782
1.6078
1.59148
1.58803
1.58433
1.58121
1.57879
1.5765
1.57412
1.57158
1.56881
1.56573
1.56235
1.55856
1.55438
1.55104
1.54855
1.5465
1.54483
1.54317
1.54126
1.53867
1.53454
1.52944
1.52579
1.52309
1.52075
1.51879
1.51722
1.51585
1.51428
1.51207
1.50904
1.50596
1.50325
1.50029
1.49707
1.49348
1.48988
1.48664
1.48388
1.48153
1.47958
1.47815
1.47708
1.476
1.47471
1.47311
1.47094
1.46809
1.46546
1.46384
1.46246
1.46071
1.45835
1.45542
1.45195
1.44794
1.44405
1.44095
1.43853
1.43667
1.43531
1.43436
1.43401
1.43335
1.43169
1.42969
1.42745
1.42467
1.42071
1.41548
1.41139
1.4094
1.40807
1.40696
1.40568
1.40418
1.40266
1.40183
1.40219
1.40225
1.40094
1.39963
1.398
1.39763
1.40029
1.40619
1.417
1.43047
1.44538
1.45959
1.4717
1.48249
1.49099
1.49976
1.50277
1.5019
1.50003
1.49523
1.49062
1.48808
1.48757
1.48872
1.49244
1.49478
1.49452
1.49289
1.48975
1.4853
1.48197
1.48035
1.47832
1.47566
1.47278
1.46976
1.4676
1.46666
1.46635
1.46662
1.46814
1.47042
1.4721
1.47199
1.47022
1.46628
1.4611
1.45701
1.45461
1.45267
1.45074
1.4491
1.44749
1.4459
1.44469
1.44429
1.44412
1.44364
1.44347
1.4442
1.4446
1.44238
1.43862
1.435
1.43084
1.42632
1.42314
1.42177
1.42173
1.42165
1.42134
1.421
1.42073
1.42027
1.41958
1.41784
1.41657
1.41602
1.41559
1.41452
1.41184
1.40792
1.40529
1.40396
1.40315
1.40214
1.40128
1.40141
1.40228
1.40211
1.40098
1.39991
1.39811
1.39492
1.39224
1.39136
1.39109
1.39064
1.39043
1.39125
1.39158
1.38981
1.38726
1.38409
1.38
1.37611
1.37328
1.37144
1.37054
1.37016
1.37057
1.37134
1.37127
1.37057
1.36878
1.36487
1.36034
1.35766
1.35601
1.35444
1.35308
1.35308
1.35496
1.35609
1.35569
1.35537
1.35448
1.3519
1.34722
1.34307
1.34065
1.33895
1.33785
1.33754
1.33751
1.3375
1.33776
1.33861
1.33886
1.3377
1.33578
1.33342
1.33101
1.32715
1.32653
1.32886
1.33797
1.36387
1.40423
1.45912
1.51713
1.5668
1.58603
1.59563
1.60425
1.60959
1.61487
1.61992
1.62497
1.6267
1.62651
1.62542
1.62247
1.61847
1.61617
1.61529
1.61443
1.61352
1.61322
1.61349
1.61452
1.61628
1.61717
1.6165
1.6152
1.61373
1.61131
1.60738
1.60419
1.60367
1.5903
1.58691
1.58332
1.58042
1.57804
1.57574
1.57336
1.57077
1.56789
1.56466
1.5609
1.55677
1.55316
1.55027
1.5477
1.54548
1.54364
1.54195
1.54007
1.53774
1.53425
1.5294
1.52534
1.52248
1.51993
1.51782
1.51626
1.51493
1.51351
1.51158
1.50885
1.5058
1.50321
1.50048
1.49726
1.49358
1.48983
1.48638
1.48344
1.48106
1.47911
1.47738
1.47587
1.47461
1.4734
1.47203
1.47033
1.46797
1.46501
1.46247
1.46054
1.45889
1.45714
1.45491
1.45213
1.44892
1.44545
1.44196
1.43886
1.43628
1.43416
1.4325
1.43127
1.4305
1.42991
1.42859
1.42689
1.42499
1.4227
1.41946
1.41451
1.40965
1.40701
1.40518
1.40361
1.40206
1.40039
1.39867
1.39772
1.39781
1.39779
1.39701
1.39657
1.39509
1.39064
1.38605
1.38473
1.38591
1.38996
1.39739
1.40757
1.42036
1.43405
1.44711
1.46005
1.47047
1.47928
1.48479
1.48472
1.48263
1.4789
1.47859
1.47964
1.48346
1.48763
1.48849
1.48828
1.48667
1.48318
1.48014
1.47772
1.47545
1.47299
1.46991
1.46648
1.46372
1.4624
1.46216
1.46216
1.46233
1.46393
1.46598
1.46619
1.46476
1.46116
1.45592
1.45177
1.44969
1.44865
1.44752
1.44641
1.44525
1.44341
1.44139
1.44043
1.43994
1.43926
1.43866
1.43884
1.43929
1.43806
1.4349
1.43212
1.42875
1.42391
1.41986
1.41886
1.41886
1.41878
1.4185
1.41805
1.41735
1.41703
1.41619
1.41442
1.41341
1.41302
1.41265
1.41164
1.40901
1.40491
1.40199
1.40054
1.39956
1.39852
1.3975
1.39726
1.39783
1.39875
1.39845
1.39734
1.39567
1.39276
1.38976
1.38852
1.38805
1.38753
1.38718
1.38783
1.38842
1.38687
1.3843
1.38132
1.37721
1.3726
1.36937
1.36746
1.36666
1.36632
1.36647
1.3674
1.36764
1.36726
1.36562
1.36177
1.35713
1.35458
1.35288
1.3513
1.35016
1.35008
1.35148
1.3534
1.35335
1.35291
1.35165
1.34889
1.34435
1.33999
1.3374
1.33594
1.3352
1.33486
1.3348
1.33475
1.33485
1.33576
1.3363
1.3353
1.33294
1.3303
1.32711
1.32399
1.32264
1.32287
1.32459
1.33035
1.34551
1.3785
1.42464
1.48031
1.53152
1.57279
1.58
1.58903
1.59925
1.60995
1.61784
1.62204
1.62367
1.62304
1.62103
1.61813
1.61449
1.61167
1.60996
1.60883
1.60831
1.60801
1.60847
1.61053
1.61282
1.61319
1.61219
1.61031
1.6076
1.6037
1.60063
1.58859
1.58537
1.58225
1.57968
1.57736
1.57502
1.57263
1.5701
1.56728
1.56387
1.55955
1.55536
1.55237
1.54963
1.54711
1.54498
1.54288
1.5407
1.53852
1.53607
1.53293
1.5291
1.52558
1.52255
1.5197
1.51709
1.51501
1.5134
1.51196
1.51032
1.50814
1.50555
1.50316
1.50069
1.49756
1.49378
1.48978
1.48591
1.48255
1.47998
1.47815
1.47673
1.47536
1.47395
1.47257
1.47119
1.46973
1.46806
1.46583
1.46271
1.4596
1.45708
1.4549
1.45305
1.45111
1.44874
1.44589
1.44294
1.44
1.43702
1.43412
1.43163
1.42964
1.42816
1.42705
1.42627
1.4254
1.42418
1.4227
1.42085
1.41815
1.4135
1.40763
1.40416
1.40207
1.40034
1.39874
1.39717
1.39572
1.3951
1.39523
1.39513
1.39419
1.39304
1.39149
1.38862
1.38341
1.37905
1.37752
1.37741
1.37807
1.37996
1.38393
1.3905
1.39953
1.41025
1.42101
1.432
1.44237
1.45205
1.45848
1.4613
1.46335
1.46663
1.47219
1.47949
1.4833
1.48313
1.48211
1.48011
1.47782
1.47642
1.47471
1.47155
1.4676
1.46397
1.461
1.45936
1.45913
1.45927
1.45948
1.46042
1.46223
1.46213
1.46014
1.45613
1.45084
1.44665
1.44431
1.44392
1.44403
1.44336
1.4423
1.44059
1.43822
1.4366
1.43567
1.4348
1.43374
1.43339
1.43371
1.43366
1.43156
1.42932
1.42649
1.42182
1.41757
1.41671
1.41662
1.41641
1.41586
1.41482
1.41416
1.41425
1.41319
1.41149
1.41067
1.41027
1.40981
1.40876
1.40638
1.40263
1.39931
1.39747
1.39618
1.39508
1.39408
1.39351
1.39358
1.39438
1.39501
1.39446
1.39294
1.39039
1.38727
1.3855
1.38473
1.38412
1.38359
1.3839
1.38462
1.38372
1.38121
1.37831
1.37428
1.3693
1.36584
1.36399
1.36324
1.36299
1.36302
1.36364
1.36394
1.36388
1.36251
1.35901
1.35453
1.35188
1.35007
1.3485
1.34738
1.34714
1.34797
1.34957
1.34973
1.34958
1.34845
1.34582
1.3416
1.33729
1.33484
1.33359
1.33281
1.33239
1.33229
1.33222
1.33201
1.33189
1.33173
1.33094
1.32915
1.32687
1.32401
1.32128
1.32037
1.32037
1.32124
1.32279
1.32644
1.33476
1.35638
1.39381
1.44495
1.49738
1.54098
1.57329
1.5827
1.59462
1.60527
1.61327
1.6169
1.61785
1.61761
1.61521
1.61277
1.61023
1.60719
1.60519
1.60471
1.60443
1.60455
1.60554
1.60703
1.60776
1.60748
1.60585
1.6034
1.60003
1.58653
1.58346
1.58091
1.57857
1.57626
1.57399
1.57163
1.56905
1.5661
1.56255
1.55842
1.55467
1.55179
1.54915
1.5467
1.54447
1.54201
1.53961
1.5372
1.53441
1.53129
1.52857
1.52603
1.5233
1.5202
1.51696
1.51397
1.51148
1.50965
1.50814
1.50669
1.50508
1.50318
1.50091
1.49808
1.49442
1.49006
1.48569
1.48176
1.47845
1.47605
1.47458
1.47362
1.47271
1.47155
1.47022
1.46906
1.46785
1.4663
1.46421
1.46115
1.45708
1.45348
1.45076
1.4487
1.44701
1.44516
1.44291
1.44041
1.43784
1.43503
1.43193
1.42905
1.42679
1.42508
1.42377
1.42284
1.42217
1.42128
1.41998
1.41821
1.41558
1.41132
1.40557
1.40167
1.3994
1.39766
1.39621
1.39481
1.39364
1.39348
1.39356
1.39329
1.39207
1.39084
1.3893
1.38624
1.38061
1.37638
1.37455
1.37374
1.37329
1.37294
1.37303
1.3737
1.37527
1.37727
1.37988
1.38454
1.39161
1.4006
1.41098
1.42263
1.43328
1.44252
1.45112
1.46076
1.47152
1.47495
1.47481
1.47354
1.47287
1.4719
1.46942
1.46679
1.46478
1.46237
1.45987
1.45808
1.45748
1.45755
1.45805
1.45933
1.45983
1.45854
1.45561
1.45143
1.446
1.44169
1.4396
1.43924
1.4397
1.43978
1.43895
1.43769
1.43548
1.43311
1.4315
1.4303
1.42905
1.42834
1.42865
1.42941
1.4285
1.42653
1.42415
1.4203
1.41636
1.415
1.41441
1.41363
1.41255
1.41113
1.41042
1.41019
1.40965
1.40854
1.40791
1.4075
1.40683
1.40572
1.40379
1.40069
1.3972
1.39468
1.39303
1.39183
1.39089
1.39024
1.39
1.39028
1.39103
1.39103
1.38995
1.38776
1.38461
1.38228
1.38113
1.38041
1.37967
1.37958
1.38007
1.38006
1.37807
1.37515
1.37137
1.36645
1.36291
1.36116
1.36044
1.36016
1.36009
1.36017
1.36053
1.36069
1.35959
1.35643
1.35222
1.34937
1.34742
1.34583
1.34486
1.34475
1.34579
1.34616
1.34602
1.34605
1.34524
1.34277
1.33884
1.33496
1.33279
1.33155
1.33056
1.32986
1.32949
1.32914
1.32861
1.32783
1.32719
1.32663
1.32544
1.32352
1.32155
1.31962
1.31885
1.3191
1.32016
1.32144
1.32228
1.32351
1.3272
1.33811
1.3669
1.40735
1.46149
1.51082
1.55379
1.58126
1.59129
1.59974
1.606
1.60962
1.60933
1.60885
1.60839
1.60718
1.60502
1.60286
1.60222
1.60192
1.60185
1.60205
1.6021
1.60208
1.60149
1.60028
1.59834
1.58462
1.58183
1.57958
1.57734
1.57514
1.57295
1.57061
1.56801
1.56484
1.56083
1.55675
1.55374
1.55112
1.54863
1.5463
1.54376
1.54114
1.53855
1.53578
1.5326
1.5298
1.5278
1.52584
1.52368
1.52125
1.51805
1.51401
1.51019
1.50737
1.50583
1.50471
1.5037
1.50247
1.50065
1.49821
1.49517
1.49133
1.48665
1.48187
1.47782
1.47455
1.47207
1.47052
1.46955
1.46871
1.46794
1.46748
1.46681
1.4657
1.46416
1.46207
1.45907
1.45469
1.45006
1.44689
1.44461
1.44291
1.44155
1.43991
1.43777
1.43534
1.43262
1.42961
1.42663
1.42418
1.42223
1.42071
1.41955
1.41861
1.4178
1.41668
1.41509
1.41276
1.40876
1.403
1.39904
1.39701
1.39545
1.3941
1.39285
1.39224
1.39261
1.39257
1.39114
1.38991
1.38875
1.38719
1.38439
1.37907
1.37384
1.37184
1.37101
1.37055
1.3699
1.36881
1.36809
1.36786
1.36733
1.36554
1.36312
1.36213
1.36346
1.36715
1.37476
1.38612
1.39814
1.41121
1.42493
1.43792
1.45023
1.45794
1.46293
1.46299
1.4615
1.46019
1.4595
1.45804
1.45779
1.45809
1.45776
1.45689
1.45663
1.45683
1.45764
1.45721
1.45484
1.45161
1.44742
1.44177
1.4371
1.43491
1.43448
1.43514
1.43617
1.43575
1.43491
1.43293
1.43004
1.42773
1.42615
1.42494
1.42412
1.42425
1.42525
1.4252
1.42366
1.42146
1.41825
1.41461
1.41243
1.41097
1.40981
1.40861
1.40708
1.40554
1.40436
1.40343
1.40315
1.40322
1.40334
1.40341
1.40265
1.40092
1.39845
1.39524
1.39221
1.39018
1.38888
1.38793
1.38724
1.38683
1.38669
1.38709
1.38742
1.38667
1.38473
1.38162
1.3788
1.37732
1.37649
1.37564
1.37512
1.37531
1.37568
1.37473
1.37212
1.36872
1.36417
1.36051
1.35885
1.35807
1.35755
1.35724
1.35712
1.3573
1.35752
1.35663
1.3538
1.34988
1.34681
1.34477
1.34342
1.34284
1.34333
1.34381
1.34339
1.34324
1.34307
1.34224
1.33979
1.33591
1.3322
1.33013
1.32895
1.32788
1.32682
1.32606
1.32545
1.32464
1.32358
1.32296
1.32262
1.32177
1.32076
1.31983
1.31884
1.31837
1.31898
1.31928
1.31945
1.31962
1.31949
1.31849
1.31724
1.32101
1.33749
1.37456
1.42363
1.47955
1.52701
1.5717
1.58971
1.59261
1.59634
1.59756
1.59958
1.60021
1.60031
1.60057
1.60094
1.6007
1.6
1.59945
1.59897
1.59856
1.59767
1.59606
1.59439
1.58337
1.58058
1.57833
1.5762
1.57406
1.57172
1.56917
1.56641
1.56314
1.55928
1.5557
1.55287
1.55042
1.54788
1.54515
1.54237
1.53961
1.53684
1.53385
1.531
1.52881
1.52696
1.52518
1.52346
1.52166
1.51937
1.5157
1.51064
1.50686
1.50466
1.50295
1.50152
1.50044
1.49957
1.49789
1.49517
1.49195
1.48826
1.48396
1.47928
1.4749
1.47142
1.46896
1.4671
1.46533
1.46448
1.46442
1.46427
1.46402
1.46332
1.4615
1.45914
1.45615
1.45206
1.44716
1.44348
1.44103
1.43909
1.43754
1.43635
1.43463
1.43242
1.42989
1.42715
1.42445
1.42198
1.41981
1.41795
1.41652
1.41559
1.41493
1.41412
1.41257
1.41013
1.40646
1.4013
1.39737
1.39531
1.39376
1.39244
1.39118
1.39015
1.39012
1.39043
1.3895
1.38821
1.38708
1.38561
1.38314
1.37837
1.37251
1.36982
1.36868
1.36784
1.36685
1.36563
1.36413
1.36277
1.36174
1.36054
1.35829
1.35543
1.35162
1.34892
1.34919
1.3517
1.35801
1.3673
1.37826
1.39146
1.40624
1.41895
1.42841
1.43491
1.43917
1.44194
1.44508
1.44867
1.45127
1.45184
1.45232
1.45301
1.45256
1.45226
1.45314
1.45325
1.4513
1.44799
1.44334
1.43738
1.4327
1.43081
1.4304
1.43123
1.43284
1.43246
1.43173
1.43034
1.42767
1.42457
1.42255
1.42128
1.42021
1.41994
1.42041
1.4207
1.41984
1.41773
1.41467
1.41118
1.40867
1.40713
1.40612
1.40494
1.40342
1.40161
1.39977
1.39862
1.39838
1.3985
1.39873
1.39912
1.39908
1.39793
1.39566
1.3928
1.38994
1.38782
1.38633
1.38525
1.3844
1.38379
1.38356
1.38355
1.38376
1.38316
1.3813
1.37824
1.37512
1.37343
1.37255
1.37174
1.37098
1.37091
1.37138
1.37127
1.36926
1.36616
1.36217
1.35854
1.35656
1.35546
1.35476
1.35431
1.35401
1.35399
1.35407
1.3534
1.35096
1.34728
1.34412
1.34237
1.34161
1.34179
1.34218
1.34161
1.34127
1.341
1.34044
1.33921
1.33632
1.33219
1.32904
1.32725
1.32586
1.32456
1.32346
1.32268
1.32188
1.32084
1.31994
1.3199
1.31993
1.31967
1.31946
1.31916
1.31818
1.31731
1.31717
1.31716
1.31709
1.31666
1.31551
1.31321
1.30959
1.30508
1.3065
1.31587
1.34488
1.38896
1.44809
1.50048
1.54588
1.58055
1.58769
1.5873
1.58893
1.58863
1.59042
1.59343
1.59611
1.59705
1.59716
1.5967
1.59607
1.59557
1.59423
1.59205
1.58262
1.57988
1.57759
1.57546
1.57325
1.57082
1.56815
1.56513
1.5615
1.55769
1.55491
1.55258
1.55019
1.5475
1.54451
1.54128
1.53795
1.53447
1.53157
1.52935
1.52726
1.52552
1.52421
1.52277
1.52111
1.51918
1.51651
1.51293
1.50899
1.50551
1.50277
1.50062
1.49872
1.49687
1.4955
1.49403
1.49152
1.48823
1.48474
1.48107
1.47728
1.47354
1.47011
1.46707
1.46444
1.46267
1.46181
1.46136
1.46091
1.46033
1.45996
1.45843
1.45577
1.4527
1.4491
1.44488
1.44088
1.43797
1.43575
1.43385
1.43226
1.4308
1.42889
1.42681
1.42459
1.42234
1.42015
1.41788
1.41556
1.41366
1.41251
1.41167
1.41086
1.40957
1.40749
1.40436
1.39964
1.39555
1.39344
1.39192
1.39058
1.38929
1.38817
1.38753
1.3873
1.38681
1.38579
1.38478
1.38361
1.38176
1.37806
1.37204
1.3681
1.36648
1.36538
1.36412
1.3625
1.36066
1.35915
1.35787
1.35637
1.35439
1.35223
1.34944
1.34544
1.34243
1.34171
1.34195
1.34343
1.34668
1.35204
1.35971
1.36999
1.38341
1.39578
1.40352
1.41067
1.4181
1.42477
1.43209
1.43832
1.43944
1.43966
1.44055
1.44258
1.44555
1.44693
1.44616
1.44316
1.43898
1.43351
1.42898
1.42721
1.42681
1.42772
1.42974
1.42961
1.42888
1.42781
1.42547
1.42195
1.41953
1.41787
1.41616
1.41522
1.41513
1.41488
1.41426
1.41303
1.41065
1.40779
1.40556
1.40424
1.40321
1.40191
1.40017
1.39814
1.39636
1.39551
1.39542
1.39534
1.3952
1.39525
1.39524
1.3946
1.39257
1.38994
1.38763
1.38573
1.38415
1.38283
1.38178
1.38088
1.38048
1.38028
1.3802
1.37954
1.37766
1.37465
1.37145
1.36977
1.36895
1.36821
1.36754
1.36741
1.36772
1.36774
1.3663
1.36333
1.3598
1.35624
1.35396
1.35265
1.35172
1.35106
1.35069
1.35052
1.35043
1.34995
1.34776
1.34433
1.34189
1.34073
1.34029
1.34031
1.33986
1.33938
1.33913
1.33864
1.33753
1.33545
1.33197
1.32796
1.32528
1.32382
1.32261
1.32153
1.32063
1.31976
1.31884
1.31821
1.31825
1.31861
1.31858
1.31841
1.31831
1.31774
1.31627
1.31548
1.31526
1.315
1.31442
1.31338
1.3114
1.30814
1.30371
1.29874
1.29602
1.29722
1.30359
1.32169
1.36043
1.41297
1.4741
1.51919
1.56064
1.57824
1.57856
1.58095
1.58211
1.58398
1.58611
1.5879
1.59069
1.59333
1.59454
1.59422
1.59238
1.58172
1.57932
1.57714
1.57485
1.57236
1.5697
1.56685
1.56361
1.56011
1.55707
1.55459
1.55232
1.54989
1.54724
1.5444
1.54102
1.53669
1.53266
1.52989
1.52761
1.52557
1.52387
1.52239
1.52077
1.51924
1.51767
1.51579
1.51328
1.5107
1.50841
1.50583
1.50256
1.49891
1.49588
1.49339
1.49104
1.48887
1.48687
1.48418
1.4809
1.47773
1.47471
1.47179
1.46892
1.46617
1.46353
1.46123
1.45973
1.45864
1.4577
1.45657
1.45529
1.45407
1.45177
1.44895
1.446
1.44279
1.43917
1.4355
1.43264
1.4305
1.42876
1.42739
1.42592
1.42414
1.42226
1.42037
1.41845
1.41611
1.41321
1.41093
1.40966
1.4088
1.40803
1.40698
1.40521
1.40248
1.39839
1.39419
1.39173
1.39015
1.38875
1.38731
1.38591
1.38475
1.38412
1.38382
1.38354
1.38276
1.38184
1.38029
1.3769
1.37072
1.36601
1.36406
1.36269
1.36123
1.35953
1.35801
1.35659
1.35532
1.35365
1.35168