/*--------------------------------*- C++ -*----------------------------------*\
  =========                 |
  \\      /  F ield         | OpenFOAM: The Open Source CFD Toolbox
   \\    /   O peration     | Website:  https://openfoam.org
    \\  /    A nd           | Version:  7
     \\/     M anipulation  |
\*---------------------------------------------------------------------------*/
FoamFile
{
    version     2.0;
    format      ascii;
    class       volScalarField;
    location    "2.4";
    object      rho;
}
// * * * * * * * * * * * * * * * * * * * * * * * * * * * * * * * * * * * * * //

dimensions      [1 -3 0 0 0 0 0];

internalField   nonuniform List<scalar> 
4040
(
1.40001
1.40001
1.40001
1.40001
1.40001
1.40001
1.40001
1.40001
1.40001
1.40001
1.40001
1.40001
1.40001
1.40001
3.72663
5.43459
5.51375
5.59282
5.67203
5.742
5.80402
5.85278
5.89189
5.92823
1.40001
1.40001
1.40001
1.40001
1.40001
1.40001
1.40001
1.40001
1.40001
1.40001
1.40001
1.40001
1.40001
1.40001
3.64293
5.40325
5.50006
5.57765
5.65593
5.72367
5.78362
5.82818
5.85519
5.87476
1.40001
1.40001
1.40001
1.40001
1.40001
1.40001
1.40001
1.40001
1.40001
1.40001
1.40001
1.40001
1.40001
1.40001
3.47606
5.3641
5.47601
5.55048
5.62573
5.68645
5.73559
5.7656
5.78101
5.80487
1.40001
1.40001
1.40001
1.40001
1.40001
1.40001
1.40001
1.40001
1.40001
1.40001
1.40001
1.40001
1.40001
1.40001
3.23434
5.30246
5.44466
5.51392
5.58527
5.64186
5.68668
5.7171
5.70808
5.7896
1.40001
1.40001
1.40001
1.40001
1.40001
1.40001
1.40001
1.40001
1.40001
1.40001
1.40001
1.40001
1.40001
1.40001
2.91971
5.20093
5.40888
5.4711
5.53564
5.5837
5.60706
5.61371
5.50389
5.36054
1.40001
1.40001
1.40001
1.40001
1.40001
1.40001
1.40001
1.40001
1.40001
1.40001
1.40001
1.40001
1.40001
1.40001
2.54862
5.05574
5.39765
5.44555
5.49316
5.52295
5.52327
5.50063
5.40231
5.31159
1.40001
1.40001
1.40001
1.40001
1.40001
1.40001
1.40001
1.40001
1.40001
1.40001
1.40001
1.40001
1.40001
1.40001
2.1142
4.84728
5.40698
5.42448
5.45256
5.46796
5.45072
5.41281
5.32636
5.21445
1.40001
1.40001
1.40001
1.40001
1.40001
1.40001
1.40001
1.40001
1.40001
1.40001
1.40001
1.40001
1.40001
1.40001
1.65793
4.55485
5.44311
5.40335
5.40807
5.40168
5.36869
5.31604
5.24091
5.15368
1.40001
1.40001
1.40001
1.40001
1.40001
1.40001
1.40001
1.40001
1.40001
1.40001
1.40001
1.40001
1.40001
1.40001
1.41727
3.98561
5.32376
5.30518
5.31814
5.31224
5.27637
5.21733
5.13465
5.00904
1.40001
1.40001
1.40001
1.40001
1.40001
1.40001
1.40001
1.40001
1.40001
1.40001
1.40001
1.40001
1.40001
1.40001
1.39997
3.22006
5.13163
5.27649
5.27896
5.25241
5.20318
5.12416
5.00712
4.80768
1.40001
1.40001
1.40001
1.40001
1.40001
1.40001
1.40001
1.40001
1.40001
1.40001
1.40001
1.40001
1.40001
1.40001
1.4
2.39879
4.86758
5.24109
5.21462
5.18869
5.13042
5.02895
4.87974
4.64365
1.40001
1.40001
1.40001
1.40001
1.40001
1.40001
1.40001
1.40001
1.40001
1.40001
1.40001
1.40001
1.40001
1.40001
1.4
1.64202
4.52141
5.29795
5.19069
5.11662
5.04043
4.92778
4.76237
4.53137
1.40001
1.40001
1.40001
1.40001
1.40001
1.40001
1.40001
1.40001
1.40001
1.40001
1.40001
1.40001
1.40001
1.40001
1.4
1.40992
3.71136
5.04042
5.05184
5.02371
4.9492
4.8319
4.66589
4.42856
1.40001
1.40001
1.40001
1.40001
1.40001
1.40001
1.40001
1.40001
1.40001
1.40001
1.40001
1.40001
1.40001
1.40001
1.40001
1.3999
2.59501
4.81241
5.03615
4.9991
4.90851
4.77558
4.60668
4.35496
1.40001
1.40001
1.40001
1.40001
1.40001
1.40001
1.40001
1.40001
1.40001
1.40001
1.40001
1.40001
1.40001
1.40001
1.40001
1.39998
1.65016
4.3554
5.06744
4.97541
4.86506
4.71444
4.54524
4.301
1.40001
1.40001
1.40001
1.40001
1.40001
1.40001
1.40001
1.40001
1.40001
1.40001
1.40001
1.40001
1.40001
1.40001
1.40001
1.4
1.40826
3.30856
4.91682
4.90173
4.81152
4.67581
4.4999
4.27511
1.40001
1.40001
1.40001
1.40001
1.40001
1.40001
1.40001
1.40001
1.40001
1.40001
1.40001
1.40001
1.40001
1.40001
1.40001
1.4
1.39995
1.98706
4.6775
4.94786
4.81567
4.66761
4.48205
4.26278
1.40001
1.40001
1.40001
1.40001
1.40001
1.40001
1.40001
1.40001
1.40001
1.40001
1.40001
1.40001
1.40001
1.40001
1.40001
1.40001
1.39999
1.45105
3.7216
4.86808
4.77961
4.64571
4.4705
4.26057
1.40001
1.40001
1.40001
1.40001
1.40001
1.40001
1.40001
1.40001
1.40001
1.40001
1.40001
1.40001
1.40001
1.40001
1.40001
1.40001
1.4
1.40016
2.27365
4.63268
4.7942
4.65525
4.48147
4.28004
1.40001
1.40001
1.40001
1.40001
1.40001
1.40001
1.40001
1.40001
1.40001
1.40001
1.40001
1.40001
1.40001
1.40001
1.40001
1.40001
1.4
1.4
1.51139
3.74902
4.76517
4.64793
4.48335
4.29897
1.40001
1.40001
1.40001
1.40001
1.40001
1.40001
1.40001
1.40001
1.40001
1.40001
1.40001
1.40001
1.40001
1.40001
1.40001
1.40001
1.40001
1.4
1.40127
2.24802
4.45941
4.66933
4.50527
4.33041
1.40001
1.40001
1.40001
1.40001
1.40001
1.40001
1.40001
1.40001
1.40001
1.40001
1.40001
1.40001
1.40001
1.40001
1.40001
1.40001
1.40001
1.40001
1.40001
1.50237
3.51978
4.6431
4.51605
4.34448
1.40001
1.40001
1.40001
1.40001
1.40001
1.40001
1.40001
1.40001
1.40001
1.40001
1.40001
1.40001
1.40001
1.40001
1.40001
1.40001
1.40001
1.40001
1.40001
1.4013
2.08438
4.20917
4.53424
4.36355
1.40001
1.40001
1.40001
1.40001
1.40001
1.40001
1.40001
1.40001
1.40001
1.40001
1.40001
1.40001
1.40001
1.40001
1.40001
1.40001
1.40001
1.40001
1.40001
1.40001
1.46203
3.01037
4.45798
4.40647
1.40001
1.40001
1.40001
1.40001
1.40001
1.40001
1.40001
1.40001
1.40001
1.40001
1.40001
1.40001
1.40001
1.40001
1.40001
1.40001
1.40001
1.40001
1.40001
1.40001
1.40078
1.77945
3.77994
4.47077
1.40001
1.40001
1.40001
1.40001
1.40001
1.40001
1.40001
1.40001
1.40001
1.40001
1.40001
1.40001
1.40001
1.40001
1.40001
1.40001
1.40001
1.40001
1.40001
1.40001
1.40001
1.41868
2.37031
4.15103
1.40001
1.40001
1.40001
1.40001
1.40001
1.40001
1.40001
1.40001
1.40001
1.40001
1.40001
1.40001
1.40001
1.40001
1.40001
1.40001
1.40001
1.40001
1.40001
1.40001
1.40001
1.40018
1.52479
3.05301
1.40001
1.40001
1.40001
1.40001
1.40001
1.40001
1.40001
1.40001
1.40001
1.40001
1.40001
1.40001
1.40001
1.40001
1.40001
1.40001
1.40001
1.40001
1.40001
1.40001
1.40001
1.40001
1.40281
1.80062
1.40001
1.40001
1.40001
1.40001
1.40001
1.40001
1.40001
1.40001
1.40001
1.40001
1.40001
1.40001
1.40001
1.40001
1.40001
1.40001
1.40001
1.40001
1.40001
1.40001
1.40001
1.40001
1.40002
1.42172
1.40001
1.40001
1.40001
1.40001
1.40001
1.40001
1.40001
1.40001
1.40001
1.40001
1.40001
1.40001
1.40001
1.40001
1.40001
1.40001
1.40001
1.40001
1.40001
1.40001
1.40001
1.40001
1.40001
1.40025
1.40001
1.40001
1.40001
1.40001
1.40001
1.40001
1.40001
1.40001
1.40001
1.40001
1.40001
1.40001
1.40001
1.40001
1.40001
1.40001
1.40001
1.40001
1.40001
1.40001
1.40001
1.40001
1.40001
1.40001
1.40001
1.40001
1.40001
1.40001
1.40001
1.40001
1.40001
1.40001
1.40001
1.40001
1.40001
1.40001
1.40001
1.40001
1.40001
1.40001
1.40001
1.40001
1.40001
1.40001
1.40001
1.40001
1.40001
1.40001
1.40001
1.40001
1.40001
1.40001
1.40001
1.40001
1.40001
1.40001
1.40001
1.40001
1.40001
1.40001
1.40001
1.40001
1.40001
1.40001
1.40001
1.40001
1.40001
1.40001
1.40001
1.40001
1.40001
1.40001
1.40001
1.40001
1.40001
1.40001
1.40001
1.40001
1.40001
1.40001
1.40001
1.40001
1.40001
1.40001
1.40001
1.40001
1.40001
1.40001
1.40001
1.40001
1.40001
1.40001
1.40001
1.40001
1.40001
1.40001
1.40001
1.40001
1.40001
1.40001
1.40001
1.40001
1.40001
1.40001
1.40001
1.40001
1.40001
1.40001
1.40001
1.40001
1.40001
1.40001
1.40001
1.40001
1.40001
1.40001
1.40001
1.40001
1.40001
1.40001
1.40001
1.40001
1.40001
1.40001
1.40001
1.40001
1.40001
1.40001
1.40001
1.40001
1.40001
1.40001
1.40001
1.40001
1.40001
1.40001
1.40001
1.40001
1.40001
1.40001
1.40001
1.40001
1.40001
1.40001
1.40001
1.40001
1.40001
1.40001
1.40001
1.40001
1.40001
1.40001
1.40001
1.40001
1.40001
1.40001
1.40001
1.40001
1.40001
1.40001
1.40001
1.40001
1.40001
1.40001
1.40001
1.40001
1.40001
1.40001
1.40001
1.40001
1.40001
1.40001
1.40001
1.40001
1.40001
1.40001
1.40001
1.40001
1.40001
1.40001
1.40001
1.40001
1.40001
1.40001
1.40001
1.40001
1.40001
1.40001
1.40001
1.40001
1.40001
1.40001
1.40001
1.40001
1.40001
1.40001
1.40001
1.40001
1.40001
1.40001
1.40001
1.40001
1.40001
1.40001
1.40001
1.40001
1.40001
1.40001
1.40001
1.40001
1.40001
1.40001
1.40001
1.40001
1.40001
1.40001
1.40001
1.40001
1.40001
1.40001
1.40001
1.40001
1.40001
1.40001
1.40001
1.40001
1.40001
1.40001
1.40001
1.40001
1.40001
1.40001
1.40001
1.40001
1.40001
1.40001
1.40001
1.40001
1.40001
1.40001
4.79928
5.0098
5.16152
5.29626
5.0994
5.12934
5.06404
5.09893
4.67784
3.81785
4.44424
3.60369
4.27339
3.52608
4.12808
3.54804
4.04575
3.58203
4.01895
3.63304
4.00851
3.67981
4.01543
3.72532
4.02189
3.75663
4.03242
3.78883
4.06573
3.84007
4.09891
3.88805
4.13762
3.93909
4.161
3.97751
4.19811
4.02711
4.24818
4.08179
4.31461
4.14282
4.36002
4.19889
4.27445
4.25626
3.57711
4.26737
2.19558
3.87311
1.48285
2.61346
1.40166
1.60194
1.40001
1.40688
1.40001
1.40006
1.40001
1.40001
1.40001
1.40001
1.40001
1.40001
1.40001
1.40001
1.40001
1.40001
1.40001
1.40001
1.40001
1.40001
1.35045
0.614184
0.372346
0.312488
0.321048
0.380207
0.484282
0.599461
0.714131
0.792748
0.850592
0.908529
0.95741
0.976629
0.985014
0.997693
1.01015
1.02201
1.03764
1.06335
1.07238
1.07293
1.06818
1.06057
1.05881
1.06229
1.0648
1.06877
1.07707
1.08623
1.09226
1.09442
1.09462
1.09023
1.08137
1.07678
1.07739
1.10994
1.37476
2.56062
3.44815
3.47126
3.40008
3.35944
3.25887
3.17138
3.11861
3.07803
3.03501
2.99334
2.95594
2.92684
2.89494
2.85179
2.80707
2.75734
2.70607
2.66712
2.63679
2.61881
2.61473
2.5984
2.56758
2.53101
2.4756
2.40107
2.34474
2.31581
2.29394
2.27805
2.27234
2.26263
2.24152
2.21584
2.17378
2.1071
2.05614
2.03225
2.01408
1.99904
1.99053
1.97928
1.96194
1.94112
1.9026
1.84294
1.80581
1.7888
1.77454
1.76205
1.75426
1.7459
1.73497
1.70658
2.04608
1.30657
0.968762
0.81005
0.687895
0.665999
0.661768
0.650009
0.664894
0.697992
0.736781
0.795444
0.870596
0.930804
0.959463
0.97435
0.991609
1.01708
1.04397
1.06981
1.08578
1.09024
1.08609
1.08311
1.0833
1.08641
1.08808
1.09049
1.09648
1.10271
1.1062
1.10774
1.10758
1.10393
1.09487
1.08937
1.11915
1.33839
1.71327
2.25805
3.0826
3.36996
3.36834
3.33967
3.25138
3.18373
3.14284
3.10895
3.07302
3.02218
2.9726
2.93578
2.90845
2.87856
2.83866
2.7937
2.73822
2.68166
2.64405
2.6181
2.60078
2.58376
2.56211
2.53102
2.49096
2.44015
2.37984
2.33227
2.30641
2.28718
2.2733
2.25664
2.23544
2.21081
2.17775
2.13203
2.08108
2.0446
2.02362
2.00724
1.99403
1.97864
1.96027
1.93761
1.90546
1.85956
1.8179
1.79528
1.78045
1.76767
1.75758
1.74601
1.73443
1.70497
2.50472
1.88682
1.47051
1.19084
1.01142
0.889737
0.831917
0.781687
0.730462
0.743957
0.767331
0.811545
0.87378
0.925136
0.961182
0.986517
1.01548
1.05853
1.09424
1.11879
1.13953
1.15339
1.15391
1.14826
1.14497
1.14581
1.1437
1.14289
1.14213
1.14047
1.14118
1.14207
1.14084
1.13642
1.13638
1.16665
1.37608
1.83294
2.09048
2.13875
2.49117
3.12579
3.47043
3.45564
3.4048
3.33681
3.26877
3.20718
3.15433
3.0886
3.02518
2.98221
2.94843
2.9229
2.89046
2.85197
2.80924
2.75488
2.69207
2.64425
2.61255
2.58527
2.55736
2.5307
2.50491
2.47773
2.44337
2.39274
2.34323
2.31414
2.29017
2.26567
2.23888
2.20868
2.17951
2.15395
2.12536
2.08873
2.05362
2.02926
2.00861
1.98784
1.9647
1.9371
1.90636
1.87681
1.84672
1.81879
1.79906
1.78408
1.76959
1.75486
1.74013
1.70718
2.84783
2.28786
1.91028
1.59531
1.36949
1.19785
1.08361
1.01297
0.932626
0.892881
0.860177
0.842774
0.847387
0.864913
0.890755
0.929127
0.97292
1.02595
1.07487
1.1036
1.12537
1.15329
1.17644
1.18468
1.19272
1.20071
1.20085
1.19984
1.19638
1.19039
1.18422
1.17811
1.17357
1.17725
1.22056
1.4089
1.8852
2.17111
2.27028
2.22993
2.24532
2.4988
3.02503
3.30974
3.47603
3.46173
3.38819
3.31356
3.23283
3.15406
3.08524
3.04226
3.00886
2.97952
2.94526
2.90731
2.86878
2.8246
2.76653
2.7017
2.65135
2.61597
2.58694
2.56271
2.54306
2.52078
2.49483
2.45869
2.40282
2.35003
2.31737
2.28909
2.25853
2.22827
2.20618
2.18701
2.16658
2.14022
2.10249
2.06366
2.03474
2.00889
1.98002
1.94875
1.92292
1.90297
1.88328
1.85964
1.83267
1.81037
1.79363
1.7773
1.75872
1.71786
3.06533
2.5861
2.23054
1.93522
1.67107
1.49647
1.34645
1.22775
1.13098
1.04126
0.975985
0.922008
0.88982
0.869737
0.875806
0.894245
0.91704
0.953903
0.998871
1.03798
1.07028
1.11245
1.14882
1.1701
1.18732
1.19893
1.21208
1.22707
1.22977
1.22801
1.22207
1.21149
1.20957
1.24945
1.49886
1.88445
2.24756
2.30204
2.29147
2.2626
2.22175
2.21336
2.38386
2.79143
3.24081
3.39093
3.46024
3.41479
3.33164
3.22818
3.1329
3.08141
3.04372
3.01471
2.98665
2.95352
2.91725
2.87532
2.82252
2.75738
2.69188
2.64883
2.62174
2.59968
2.58299
2.56445
2.53991
2.50989
2.46131
2.39126
2.33655
2.30508
2.28086
2.26123
2.2448
2.22872
2.2097
2.18732
2.15329
2.10411
2.05984
2.0276
1.99881
1.97376
1.95526
1.93921
1.92269
1.90295
1.87612
1.84499
1.81974
1.7987
1.77615
1.73631
3.22033
2.82197
2.47453
2.19967
1.94221
1.74349
1.58333
1.43326
1.32353
1.23006
1.15277
1.08032
1.02946
0.976868
0.942798
0.942277
0.938637
0.926012
0.929005
0.943963
0.967131
1.00261
1.05537
1.10626
1.14722
1.17531
1.19811
1.21683
1.22236
1.22424
1.22171
1.22508
1.26203
1.53406
1.99801
2.2259
2.32284
2.32306
2.29945
2.27171
2.237
2.20072
2.17848
2.26664
2.60546
3.01753
3.31828
3.3883
3.35905
3.26989
3.17967
3.11407
3.06299
3.02682
2.99756
2.97082
2.93937
2.90189
2.85782
2.80764
2.74868
2.68822
2.64991
2.62418
2.60214
2.58351
2.56152
2.534
2.49568
2.43692
2.37066
2.32903
2.30699
2.28875
2.27278
2.2571
2.23863
2.21758
2.18708
2.13504
2.07775
2.04138
2.01981
2.00397
1.98981
1.97598
1.96054
1.94278
1.9187
1.88385
1.84509
1.81014
1.78466
1.75724
3.32392
2.98413
2.67707
2.40747
2.15704
1.95055
1.78971
1.63706
1.49975
1.39612
1.30392
1.22775
1.16365
1.10514
1.04695
1.00867
0.977606
0.941558
0.934523
0.938486
0.941073
0.947884
0.969533
1.00712
1.05085
1.09752
1.14175
1.17688
1.19714
1.20872
1.21634
1.26839
1.51338
2.04173
2.26697
2.3244
2.32115
2.30378
2.27361
2.25634
2.2419
2.2095
2.16401
2.13919
2.18145
2.38746
2.78114
3.16284
3.28738
3.28711
3.23734
3.15788
3.09485
3.03786
3.00007
2.97042
2.93996
2.90738
2.87353
2.83763
2.79484
2.73808
2.67519
2.63436
2.60729
2.58603
2.5658
2.53814
2.50468
2.46363
2.41396
2.36268
2.32836
2.30776
2.28885
2.27024
2.25177
2.23068
2.19956
2.1483
2.08917
2.05877
2.0438
2.03031
2.01884
2.00728
1.99228
1.97528
1.95073
1.90685
1.85257
1.8162
1.80132
1.78297
3.41186
3.11573
2.83421
2.56883
2.34273
2.14254
1.962
1.8038
1.67154
1.55635
1.45749
1.3689
1.2968
1.22848
1.16928
1.12239
1.08103
1.03439
0.994028
0.984665
0.968702
0.9567
0.956289
0.961488
0.974678
0.998488
1.03311
1.07536
1.12216
1.15784
1.22053
1.51673
1.96578
2.29572
2.35645
2.34079
2.31185
2.27637
2.26407
2.2504
2.23941
2.22232
2.18499
2.13355
2.11297
2.12214
2.22743
2.54458
2.91609
3.19277
3.21231
3.18066
3.13106
3.06707
3.00928
2.96497
2.93595
2.90927
2.88236
2.85284
2.81868
2.77293
2.7104
2.65085
2.61161
2.58141
2.55244
2.52548
2.49891
2.47352
2.44456
2.40323
2.35383
2.32009
2.29834
2.27757
2.25471
2.22783
2.19528
2.15417
2.10708
2.07874
2.06398
2.05099
2.04085
2.03133
2.01686
2.00063
1.97198
1.91092
1.8488
1.82566
1.81634
1.80204
3.4797
3.21698
2.95377
2.70887
2.49817
2.2985
2.11256
1.96258
1.82559
1.69751
1.58809
1.50577
1.42458
1.35171
1.28224
1.22831
1.17428
1.11988
1.07494
1.0435
1.01473
0.98623
0.970258
0.967575
0.971572
0.972861
0.975724
0.989907
1.02436
1.07248
1.38668
1.86677
2.1925
2.28711
2.31396
2.30299
2.26503
2.24637
2.24275
2.25548
2.25404
2.23763
2.20935
2.15906
2.11048
2.09018
2.08376
2.12673
2.32103
2.71171
3.01825
3.12625
3.14107
3.10461
3.02782
2.97867
2.94867
2.92105
2.89484
2.86647
2.83135
2.78818
2.73567
2.67675
2.62309
2.58171
2.54925
2.52248
2.49993
2.4792
2.45757
2.42976
2.38458
2.33333
2.30268
2.28058
2.25683
2.22936
2.19941
2.16858
2.13339
2.09816
2.07806
2.06399
2.05247
2.04386
2.03192
2.00994
1.97234
1.91402
1.86292
1.83992
1.82983
1.81568
3.54186
3.30088
3.05784
2.83786
2.62998
2.4321
2.25495
2.10575
1.96196
1.83175
1.72159
1.63267
1.54445
1.46305
1.39548
1.3388
1.28259
1.22449
1.17202
1.133
1.0947
1.0596
1.0343
1.01656
1.00005
0.984207
0.974262
0.973999
0.998201
1.24035
1.71131
1.9951
2.15139
2.17828
2.17678
2.17364
2.18421
2.19953
2.21395
2.23943
2.25601
2.24224
2.21701
2.18099
2.1304
2.08523
2.0664
2.06169
2.07733
2.18948
2.46546
2.77664
3.02367
3.08145
3.035
3.00428
2.97106
2.94706
2.91702
2.88436
2.84266
2.79303
2.74719
2.69973
2.6474
2.59924
2.56062
2.53134
2.50907
2.48825
2.46757
2.44496
2.41205
2.35947
2.30892
2.2805
2.25886
2.23674
2.21471
2.19253
2.16498
2.12562
2.09324
2.07952
2.06641
2.04803
2.02363
1.99574
1.96293
1.92866
1.89797
1.86521
1.84762
1.83033
3.60964
3.37572
3.15142
2.94699
2.74574
2.54737
2.38511
2.23344
2.09315
1.95713
1.84969
1.75054
1.66094
1.5772
1.50419
1.43776
1.375
1.31821
1.26746
1.22414
1.18114
1.13656
1.0952
1.06809
1.0357
1.00778
0.986417
1.00903
1.21602
1.65132
1.94105
2.02903
2.03619
2.02118
2.01352
2.02052
2.05104
2.0951
2.13746
2.17585
2.20269
2.20687
2.19662
2.17489
2.14021
2.09657
2.06731
2.0539
2.05021
2.04824
2.08609
2.22809
2.5146
2.81038
2.95748
2.95952
2.97958
2.98289
2.94569
2.90027
2.85709
2.80433
2.75992
2.71953
2.67405
2.62989
2.59142
2.55601
2.52517
2.50029
2.47908
2.45809
2.43211
2.39065
2.33255
2.28851
2.26606
2.24889
2.23216
2.21487
2.19446
2.1637
2.11898
2.07593
2.04906
2.02941
2.00802
1.98254
1.95964
1.9468
1.93127
1.90535
1.87499
1.84723
3.66661
3.44126
3.23723
3.04326
2.84582
2.66215
2.5077
2.35563
2.20853
2.07866
1.97401
1.86665
1.77
1.67898
1.60969
1.53627
1.47108
1.40892
1.35645
1.30683
1.26133
1.22114
1.18145
1.14652
1.10538
1.06977
1.08514
1.27679
1.69258
2.00469
2.05945
2.03246
1.99272
1.96434
1.95102
1.94115
1.9396
1.94833
1.97787
2.01504
2.04748
2.07701
2.10944
2.11868
2.1086
2.09337
2.08291
2.06336
2.04614
2.02681
2.02188
2.02508
2.07438
2.25005
2.53505
2.75635
2.90424
2.949
2.93028
2.91053
2.87643
2.83792
2.79013
2.73881
2.69251
2.65671
2.62632
2.59413
2.55872
2.52202
2.48947
2.46328
2.43865
2.40824
2.3656
2.31845
2.28527
2.26516
2.2486
2.23205
2.21443
2.19152
2.14948
2.08705
2.04386
2.01777
1.99585
1.97959
1.96997
1.96263
1.95139
1.9358
1.91024
1.85821
3.72817
3.51555
3.32371
3.13715
2.94187
2.7744
2.62068
2.47014
2.31596
2.19984
2.08538
1.97698
1.86946
1.78635
1.70978
1.62936
1.55815
1.49479
1.44888
1.39278
1.3433
1.29384
1.25621
1.21359
1.17194
1.182
1.36152
1.80953
2.10633
2.15806
2.11507
2.06206
2.02184
1.99327
1.97385
1.95775
1.94526
1.92006
1.89447
1.88696
1.89169
1.90595
1.93486
1.96915
2.00976
2.03694
2.03832
2.03232
2.01234
2.00041
1.99497
1.99312
1.98953
1.99602
2.06732
2.26654
2.52228
2.74601
2.81777
2.85419
2.87491
2.87004
2.82871
2.76752
2.70943
2.67471
2.64934
2.62513
2.59732
2.56125
2.51777
2.4743
2.43574
2.40644
2.38151
2.35366
2.32227
2.29028
2.26306
2.24286
2.22605
2.20674
2.16945
2.10645
2.04547
2.01381
1.99779
1.98761
1.98313
1.97909
1.96795
1.95418
1.93312
1.86817
3.78371
3.58967
3.4068
3.22292
3.0389
2.88079
2.72851
2.57004
2.42464
2.31096
2.19301
2.07865
1.96657
1.88901
1.80322
1.72488
1.64337
1.58523
1.53101
1.47511
1.4219
1.3758
1.33041
1.28001
1.28819
1.47682
1.95319
2.27381
2.29215
2.23985
2.18478
2.1455
2.11013
2.07468
2.03828
2.00099
1.96433
1.92862
1.89208
1.87384
1.86129
1.84874
1.84076
1.84277
1.85637
1.8799
1.8912
1.90263
1.92422
1.93559
1.93426
1.94617
1.96383
1.96045
1.94921
1.97439
2.05583
2.24265
2.47207
2.65687
2.78924
2.83355
2.83654
2.80671
2.74801
2.7055
2.66787
2.63611
2.61185
2.58526
2.54891
2.50213
2.45154
2.40732
2.38174
2.36443
2.34558
2.32147
2.29199
2.26028
2.22874
2.19744
2.16506
2.12066
2.06838
2.03351
2.01538
2.00264
1.99384
1.99065
1.98711
1.97384
1.94982
1.87526
3.8462
3.66504
3.48982
3.30981
3.13581
2.98069
2.82919
2.66801
2.53333
2.4136
2.29535
2.17002
2.06834
1.98735
1.89903
1.81536
1.72937
1.67474
1.61499
1.55856
1.50329
1.44495
1.39432
1.41194
1.62579
2.11602
2.45536
2.46002
2.39822
2.32992
2.28482
2.24318
2.19912
2.15413
2.10858
2.06357
2.01624
1.97113
1.93571
1.90318
1.87502
1.85297
1.83409
1.81845
1.80445
1.7891
1.77129
1.7645
1.76987
1.79252
1.82508
1.85701
1.89383
1.89794
1.88684
1.8904
1.89824
1.92213
2.01484
2.2019
2.44044
2.62172
2.75582
2.77299
2.76852
2.74287
2.69592
2.64396
2.60593
2.58328
2.55949
2.52942
2.49076
2.43957
2.38799
2.36109
2.34727
2.33239
2.31083
2.28258
2.24507
2.20257
2.16219
2.12602
2.09466
2.06977
2.04832
2.02602
2.0054
1.99095
1.97879
1.96324
1.94198
1.87654
3.90741
3.73533
3.56351
3.38627
3.22301
3.07315
2.92009
2.76083
2.6335
2.51162
2.39169
2.26207
2.17024
2.08065
1.99224
1.89948
1.82248
1.7645
1.69882
1.63795
1.574
1.51126
1.53102
1.78081
2.31957
2.66363
2.64318
2.56244
2.49065
2.43067
2.37964
2.33168
2.28597
2.24191
2.19797
2.15328
2.10288
2.04619
1.99261
1.94803
1.9156
1.89003
1.86344
1.83236
1.79937
1.77291
1.74843
1.73328
1.71679
1.70275
1.70581
1.71983
1.7439
1.77405
1.7816
1.7925
1.79612
1.79571
1.81531
1.87104
1.99749
2.18602
2.41308
2.57981
2.68389
2.71249
2.70331
2.66654
2.61518
2.58087
2.56052
2.54316
2.52057
2.48643
2.432
2.36952
2.33495
2.32108
2.31098
2.292
2.26496
2.22798
2.1829
2.1407
2.11103
2.0917
2.07405
2.05134
2.02247
1.99428
1.97312
1.95467
1.93237
1.87977
3.96862
3.79734
3.62876
3.46136
3.30487
3.15667
3.00209
2.855
2.73192
2.61254
2.48226
2.35729
2.26925
2.17512
2.08533
1.9854
1.91927
1.85007
1.7844
1.71464
1.64028
1.66468
1.96587
2.53458
2.87539
2.85314
2.75259
2.66114
2.59088
2.5283
2.47171
2.42151
2.37483
2.32926
2.28311
2.23368
2.17784
2.11717
2.05985
2.01348
1.97579
1.94243
1.91031
1.87842
1.84458
1.80455
1.75865
1.72444
1.70366
1.68805
1.68054
1.66477
1.65124
1.65052
1.65453
1.65767
1.67198
1.67981
1.68963
1.71564
1.7598
1.8248
1.94764
2.13837
2.33961
2.51467
2.61794
2.63116
2.60895
2.59515
2.57583
2.55946
2.53852
2.51048
2.47105
2.40905
2.34634
2.31054
2.29211
2.28148
2.26868
2.24913
2.21997
2.17742
2.13151
2.10466
2.08667
2.06482
2.03818
2.00689
1.9752
1.94831
1.9225
1.8871
4.02466
3.85805
3.69391
3.53511
3.38223
3.23609
3.08828
2.94969
2.82239
2.70106
2.57027
2.45827
2.36336
2.26824
2.16512
2.07303
2.00774
1.93685
1.86444
1.7812
1.80904
2.1532
2.74986
3.08141
3.06628
2.97747
2.87783
2.78489
2.69751
2.62262
2.56082
2.50895
2.46151
2.41516
2.36785
2.31688
2.25897
2.19379
2.13092
2.08199
2.04357
2.00903
1.97485
1.93917
1.90127
1.85746
1.80893
1.75899
1.71399
1.68785
1.66605
1.64837
1.63884
1.63089
1.61037
1.59184
1.58083
1.58011
1.57567
1.58
1.59912
1.62871
1.66882
1.73646
1.85422
2.0396
2.24425
2.42627
2.52527
2.55946
2.56718
2.56149
2.54168
2.52337
2.49227
2.44256
2.38411
2.32188
2.28769
2.27207
2.26288
2.25108
2.23323
2.21088
2.17604
2.12265
2.07962
2.06484
2.04876
2.0227
1.98705
1.95125
1.92565
1.90123
4.10633
3.93826
3.77628
3.62155
3.47088
3.32307
3.17407
3.04013
2.916
2.79271
2.65829
2.55248
2.45371
2.35806
2.2523
2.16625
2.09142
2.01845
1.93873
1.98716
2.39332
3.01021
3.23988
3.24592
3.16244
3.07765
3.00162
2.9087
2.80107
2.71147
2.64715
2.59544
2.54755
2.49943
2.44954
2.39594
2.33585
2.26848
2.20064
2.14383
2.09956
2.06224
2.02841
1.99584
1.96103
1.9216
1.87734
1.82551
1.76907
1.72136
1.68208
1.66112
1.64826
1.63113
1.60853
1.58645
1.5689
1.54543
1.51653
1.50187
1.50209
1.50595
1.5145
1.53979
1.57512
1.63409
1.74587
1.93379
2.14992
2.35793
2.49197
2.52438
2.51843
2.49047
2.4609
2.44774
2.40994
2.36208
2.31681
2.2791
2.25622
2.24321
2.24212
2.23115
2.20197
2.15529
2.09756
2.05512
2.02712
2.00451
1.98372
1.96296
1.95006
1.92464
4.1965
4.02638
3.8605
3.70537
3.54886
3.3996
3.25964
3.12552
2.99896
2.8697
2.74144
2.64346
2.54557
2.44552
2.33542
2.25056
2.17626
2.09789
2.17013
2.67303
3.33437
3.53187
3.46125
3.34904
3.2635
3.19526
3.11741
3.02421
2.91429
2.80541
2.73273
2.67888
2.62839
2.57803
2.52638
2.47148
2.41129
2.34536
2.27785
2.21674
2.16521
2.12012
2.07912
2.04174
2.0071
1.97175
1.9326
1.88735
1.8367
1.78423
1.73547
1.69762
1.66792
1.64309
1.62317
1.6031
1.57663
1.54566
1.51497
1.48622
1.46821
1.45992
1.45495
1.45379
1.45347
1.45845
1.47684
1.52632
1.63664
1.83609
2.06606
2.29904
2.44576
2.44523
2.41458
2.39842
2.39573
2.38711
2.35088
2.31197
2.27811
2.2469
2.21832
2.2025
2.19772
2.17719
2.12343
2.05745
2.01948
2.00195
1.9926
1.98237
1.97347
1.9467
4.22713
4.1195
3.94668
3.78404
3.6341
3.48633
3.33933
3.20448
3.08237
2.95814
2.83368
2.72791
2.63176
2.52588
2.42381
2.33931
2.26119
2.37361
2.95364
3.68049
3.79836
3.68687
3.53975
3.43949
3.3666
3.30116
3.22068
3.13305
3.03274
2.91783
2.82543
2.76225
2.7075
2.65348
2.59813
2.54071
2.48043
2.41637
2.34946
2.28547
2.22989
2.18168
2.1382
2.09618
2.05364
2.01038
1.96716
1.92594
1.88624
1.84408
1.80001
1.75719
1.71608
1.67885
1.64822
1.62128
1.59498
1.56918
1.5392
1.49655
1.46487
1.45265
1.44306
1.42962
1.41513
1.40374
1.39413
1.38247
1.3878
1.42606
1.53356
1.73129
1.96977
2.21824
2.32985
2.32496
2.33697
2.34078
2.34999
2.34433
2.31449
2.26932
2.22532
2.19068
2.16285
2.14688
2.12444
2.08097
2.04871
2.02077
1.99246
1.97877
1.979
1.9614
4.02677
4.18196
4.05397
3.88008
3.72431
3.5749
3.4288
3.30003
3.17277
3.03794
2.92167
2.81844
2.72129
2.60352
2.50185
2.43303
2.60523
3.29612
3.96115
4.13544
4.02202
3.83269
3.65133
3.54105
3.47046
3.39983
3.32026
3.23806
3.147
3.03588
2.92446
2.84429
2.78306
2.72602
2.66902
2.61104
2.55144
2.48873
2.42113
2.35157
2.28901
2.23701
2.19311
2.15243
2.11077
2.06566
2.01645
1.96621
1.92044
1.8802
1.8411
1.80284
1.76578
1.7294
1.69314
1.65534
1.61642
1.57875
1.54614
1.51864
1.49239
1.47053
1.44915
1.42861
1.41071
1.38984
1.36287
1.35037
1.34357
1.32337
1.32236
1.3526
1.43941
1.63134
1.8637
2.11112
2.20785
2.24088
2.27543
2.29936
2.30536
2.29093
2.25443
2.20573
2.15918
2.11986
2.1036
2.10071
2.08527
2.05139
2.01325
1.9854
1.97236
1.94327
3.00738
4.06949
4.12286
3.9868
3.82031
3.67186
3.52444
3.39214
3.26183
3.1295
3.01405
2.91119
2.79072
2.68136
2.61934
2.84632
3.65831
4.29414
4.34945
4.25264
4.11436
3.96475
3.80531
3.67814
3.58771
3.50359
3.42041
3.33588
3.24572
3.14447
3.03453
2.93544
2.85959
2.79652
2.73722
2.67882
2.61976
2.55796
2.49049
2.41742
2.34726
2.28866
2.24131
2.19968
2.15941
2.1169
2.06879
2.01471
1.95764
1.90471
1.86085
1.82624
1.79687
1.76893
1.73936
1.70507
1.66536
1.61865
1.56428
1.52179
1.50614
1.49371
1.47637
1.45384
1.42789
1.39704
1.36384
1.33482
1.31696
1.30884
1.30018
1.28635
1.28166
1.30409
1.37893
1.54293
1.74761
1.97911
2.09135
2.16609
2.21908
2.24376
2.24378
2.22599
2.17719
2.13183
2.10316
2.07632
2.05947
2.05108
2.03329
1.99884
1.96983
1.93634
1.78076
3.30752
4.07653
4.06434
3.92953
3.76189
3.61774
3.48678
3.35929
3.22178
3.1059
2.99054
2.87818
2.83234
3.14711
4.04505
4.64694
4.73803
4.54943
4.35493
4.21724
4.09251
3.95565
3.82584
3.71456
3.61506
3.52299
3.43244
3.34055
3.24511
3.14267
3.03705
2.94434
2.86996
2.8057
2.74482
2.68365
2.6201
2.55212
2.47864
2.40426
2.338
2.28337
2.2366
2.19376
2.15258
2.10896
2.06087
2.0076
1.95076
1.8959
1.85085
1.8165
1.78837
1.76352
1.73561
1.70071
1.65946
1.61326
1.56805
1.52686
1.49641
1.48141
1.47081
1.45541
1.42732
1.38853
1.34475
1.3075
1.29187
1.28362
1.27386
1.26773
1.26531
1.25707
1.26511
1.30722
1.42201
1.61539
1.84289
1.99418
2.08498
2.1578
2.16489
2.16518
2.15666
2.12254
2.08443
2.06116
2.03466
2.00218
1.97716
1.96312
1.93311
1.42099
1.99582
3.51489
4.0461
4.01988
3.86969
3.7098
3.5799
3.44495
3.3187
3.20021
3.06261
3.07856
3.53826
4.55216
5.04877
4.94339
4.81893
4.67246
4.51601
4.37146
4.23499
4.09955
3.96255
3.83731
3.72576
3.62236
3.52504
3.43108
3.33673
3.23774
3.13265
3.02932
2.93941
2.86374
2.79584
2.73023
2.66442
2.59738
2.52835
2.45823
2.39113
2.3307
2.27578
2.22297
2.17243
2.12653
2.08462
2.04123
1.99215
1.93956
1.88893
1.84345
1.80332
1.76886
1.73778
1.7063
1.6749
1.64236
1.60357
1.56246
1.52992
1.50294
1.47538
1.44964
1.43025
1.4099
1.37502
1.32365
1.29389
1.28196
1.27668
1.27101
1.25694
1.24164
1.23175
1.21319
1.20569
1.23372
1.31966
1.50281
1.7202
1.92415
2.00045
2.07323
2.10008
2.09868
2.09438
2.07801
2.03864
1.99979
1.96661
1.93568
1.90742
1.40026
1.44902
2.21046
3.63764
4.01322
3.9762
3.82186
3.67414
3.53756
3.4152
3.2669
3.32428
3.97136
5.04325
5.54457
5.42687
5.12523
4.91108
4.79295
4.67215
4.52806
4.3785
4.23201
4.0863
3.94779
3.82768
3.72039
3.61754
3.51632
3.41581
3.31366
3.20814
3.10172
3.002
2.91486
2.83865
2.76808
2.6992
2.63065
2.56288
2.49652
2.43204
2.37088
2.31348
2.25815
2.20419
2.15257
2.10389
2.05807
2.01358
1.96663
1.91555
1.86595
1.82197
1.78551
1.75789
1.73529
1.70835
1.66659
1.61248
1.56432
1.53348
1.51059
1.48769
1.46603
1.44544
1.42358
1.39563
1.35417
1.31853
1.29654
1.27796
1.25975
1.2444
1.22955
1.21675
1.20032
1.1848
1.15483
1.14512
1.16953
1.24816
1.41642
1.6315
1.85999
1.94341
1.98256
2.02362
2.02398
2.01992
2.00601
1.97476
1.93728
1.90146
1.40001
1.40085
1.49057
2.39909
3.71566
3.97088
3.92928
3.79133
3.63693
3.48843
3.61085
4.52027
5.53567
5.87617
5.79795
5.62583
5.36866
5.11614
4.94749
4.8074
4.66533
4.5144
4.35563
4.19393
4.0421
3.91242
3.79993
3.69286
3.5841
3.47487
3.36717
3.26034
3.15385
3.04948
2.9527
2.86826
2.79438
2.72717
2.66402
2.60125
2.53496
2.4654
2.39677
2.3346
2.27984
2.23033
2.18307
2.1348
2.08259
2.0261
1.97146
1.92295
1.88061
1.84392
1.81
1.77688
1.74434
1.7124
1.6784
1.6374
1.59232
1.55347
1.52626
1.50642
1.48954
1.4703
1.44272
1.40612
1.37319
1.34407
1.31393
1.28457
1.26257
1.24707
1.23409
1.22081
1.20412
1.17595
1.14441
1.13149
1.12873
1.12705
1.14259
1.21066
1.35542
1.54905
1.73691
1.8615
1.89414
1.92405
1.94191
1.94431
1.9421
1.91471
1.40001
1.40001
1.40209
1.54141
2.57098
3.72182
3.94648
3.88524
3.7271
3.99064
5.10569
6.20067
6.30175
6.1566
5.92299
5.74906
5.53084
5.28199
5.06905
4.90044
4.75024
4.5986
4.43888
4.27567
4.11584
3.9715
3.8506
3.74256
3.63235
3.51607
3.40428
3.29324
3.18322
3.08188
2.98727
2.89883
2.82406
2.75597
2.68847
2.62005
2.54915
2.47975
2.41745
2.35955
2.30396
2.25005
2.19994
2.15366
2.10488
2.04555
1.98406
1.93851
1.90358
1.86728
1.82983
1.79602
1.76326
1.72931
1.68753
1.63805
1.6061
1.58694
1.56433
1.53978
1.51496
1.48822
1.45809
1.42549
1.38306
1.33378
1.31535
1.30644
1.29373
1.27994
1.26481
1.24578
1.21849
1.17467
1.14357
1.1352
1.12379
1.1119
1.10447
1.10511
1.11646
1.16922
1.27264
1.42563
1.59203
1.75585
1.81055
1.83862
1.87256
1.88783
1.40001
1.40001
1.40002
1.40439
1.59539
2.6748
3.77292
3.8764
4.36589
5.76267
6.63793
6.70209
6.52959
6.27562
6.03274
5.83159
5.62459
5.39382
5.16571
4.9723
4.80657
4.65287
4.50129
4.34483
4.18377
4.02648
3.88229
3.75653
3.6523