/*--------------------------------*- C++ -*----------------------------------*\
  =========                 |
  \\      /  F ield         | OpenFOAM: The Open Source CFD Toolbox
   \\    /   O peration     | Website:  https://openfoam.org
    \\  /    A nd           | Version:  7
     \\/     M anipulation  |
\*---------------------------------------------------------------------------*/
FoamFile
{
    version     2.0;
    format      ascii;
    class       volVectorField;
    location    "1.1";
    object      U;
}
// * * * * * * * * * * * * * * * * * * * * * * * * * * * * * * * * * * * * * //

dimensions      [0 1 -1 0 0 0 0];

internalField   nonuniform List<vector> 
16512
(
(3 -1.56721e-15 0)
(3 -1.24017e-15 0)
(3 -1.87458e-15 0)
(3 -1.8571e-15 0)
(3 -1.37139e-15 0)
(3 -9.08251e-16 0)
(3 -5.35304e-16 0)
(3 -8.47852e-16 0)
(3 -1.56184e-15 0)
(3 -1.37631e-15 0)
(3 -8.34982e-16 0)
(3 -5.09989e-16 0)
(3 -7.32442e-16 0)
(3 -8.55555e-16 0)
(3 -1.05978e-15 0)
(3 -1.58683e-15 0)
(3 -2.0856e-15 0)
(3 -1.99822e-15 0)
(3 -1.1134e-15 0)
(3 2.43408e-17 0)
(3 2.22512e-15 0)
(3 2.50292e-15 0)
(3 2.18431e-15 0)
(3 2.71602e-15 0)
(3 3.06008e-15 0)
(3 3.17026e-15 0)
(3 1.90006e-15 0)
(3 1.66846e-15 0)
(3 2.34048e-15 0)
(3 2.99676e-15 0)
(3 2.93193e-15 0)
(3 2.78399e-15 0)
(3 2.92887e-15 0)
(3 3.31996e-15 0)
(3 3.73514e-15 0)
(3 4.10852e-15 0)
(3 3.77368e-15 0)
(3 2.58935e-15 0)
(3 2.13692e-15 0)
(3 1.17351e-15 0)
(3 3.48385e-16 0)
(3 3.43599e-16 0)
(3 2.66092e-16 0)
(3 -6.18142e-16 0)
(3 -9.21826e-16 0)
(3 -1.40441e-15 0)
(3 -2.28992e-15 0)
(3 -2.58471e-15 0)
(3 -2.27307e-15 0)
(3 -1.63517e-15 0)
(3 -1.81081e-15 0)
(3 -1.81904e-15 0)
(3 -1.15543e-15 0)
(3 -1.5284e-16 0)
(3 4.46812e-16 0)
(3 4.59488e-16 0)
(3 1.11125e-15 0)
(3 1.71164e-15 0)
(3 1.73513e-15 0)
(3 7.35841e-16 0)
(3 4.40136e-16 0)
(3 5.11917e-16 0)
(3 9.14586e-16 0)
(3 1.17951e-15 0)
(3 1.51769e-15 0)
(3 2.37569e-15 0)
(3 3.03544e-15 0)
(3 2.745e-15 0)
(3 2.0444e-15 0)
(3 1.74545e-15 0)
(3 1.82939e-15 0)
(3 1.52685e-15 0)
(3 2.7697e-15 0)
(3 3.51251e-15 0)
(3 3.25243e-15 0)
(3 3.5073e-15 0)
(3 3.3622e-15 0)
(3 2.64626e-15 0)
(3 2.32744e-15 0)
(3 2.48021e-15 0)
(3 2.44188e-15 0)
(3 1.98455e-15 0)
(3 2.32304e-15 0)
(3 2.42621e-15 0)
(3 1.95118e-15 0)
(3 2.43537e-15 0)
(3 2.52473e-15 0)
(3 7.31469e-16 0)
(3 7.67208e-16 0)
(3 1.78073e-15 0)
(3 2.09175e-15 0)
(3 1.78583e-15 0)
(3 1.31994e-15 0)
(3 9.77332e-16 0)
(3 1.43366e-15 0)
(3 2.09084e-15 0)
(3 2.09432e-15 0)
(3 1.59007e-15 0)
(3 1.29692e-15 0)
(3 1.19717e-15 0)
(3 1.08121e-15 0)
(3 4.58624e-16 0)
(3 1.79529e-17 0)
(3 -2.79132e-16 0)
(3 -9.22461e-16 0)
(3 -1.28947e-15 0)
(3 -1.50148e-16 0)
(3 4.83248e-13 0)
(3 1.62666e-10 0)
(3 2.78243e-08 0)
(3 4.82058e-06 0)
(2.99981 0.000332385 0)
(2.99332 0.0124343 0)
(2.9285 0.129297 0)
(2.77753 0.422495 0)
(2.60256 0.647048 0)
(2.45531 0.729039 0)
(2.39097 0.835972 0)
(2.3492 0.900398 0)
(2.32627 0.922933 0)
(2.3254 0.909024 0)
(2.34511 0.870364 0)
(2.37005 0.829459 0)
(2.39337 0.823555 0)
(2.39688 0.830199 0)
(2.38876 0.850262 0)
(2.3778 0.859425 0)
(2.37619 0.854277 0)
(2.38305 0.845992 0)
(2.39398 0.833161 0)
(2.40005 0.821305 0)
(2.40441 0.817332 0)
(2.40496 0.819511 0)
(2.40355 0.820872 0)
(2.40522 0.815899 0)
(2.41228 0.806624 0)
(2.41757 0.798698 0)
(2.42004 0.796662 0)
(2.42144 0.796998 0)
(2.42192 0.79657 0)
(2.42357 0.793415 0)
(2.42822 0.790299 0)
(2.43448 0.788747 0)
(2.44255 0.786727 0)
(2.44845 0.78648 0)
(2.45274 0.787022 0)
(2.45528 0.785299 0)
(2.45594 0.778329 0)
(2.45356 0.766922 0)
(2.45189 0.755044 0)
(2.45488 0.748574 0)
(2.45961 0.747896 0)
(2.46412 0.749389 0)
(2.47155 0.751357 0)
(2.47786 0.752102 0)
(2.48174 0.75118 0)
(2.48476 0.746092 0)
(2.48345 0.73713 0)
(2.48153 0.728808 0)
(2.48448 0.726078 0)
(2.48859 0.72655 0)
(2.4963 0.727409 0)
(2.50602 0.728951 0)
(2.51067 0.728681 0)
(2.5152 0.72673 0)
(2.51679 0.720549 0)
(2.5112 0.709311 0)
(2.50099 0.693534 0)
(3 -3.59188e-15 0)
(3 -3.43044e-15 0)
(3 -2.63001e-15 0)
(3 -2.53426e-15 0)
(3 -2.10396e-15 0)
(3 -1.60231e-15 0)
(3 -7.00492e-16 0)
(3 -9.82121e-16 0)
(3 -1.39965e-15 0)
(3 -2.32385e-15 0)
(3 -2.19771e-15 0)
(3 -1.89948e-15 0)
(3 -2.16356e-15 0)
(3 -1.80742e-15 0)
(3 -1.63216e-15 0)
(3 -1.19018e-15 0)
(3 -1.09505e-15 0)
(3 -8.27605e-16 0)
(3 -6.63691e-16 0)
(3 -5.10788e-16 0)
(3 -1.69986e-16 0)
(3 -2.95382e-16 0)
(3 6.16643e-17 0)
(3 -2.08993e-16 0)
(3 -1.71691e-15 0)
(3 -2.73997e-15 0)
(3 -2.60093e-15 0)
(3 -9.80138e-16 0)
(3 1.05937e-16 0)
(3 2.87147e-16 0)
(3 5.6469e-16 0)
(3 7.19639e-16 0)
(3 2.4762e-15 0)
(3 3.91488e-15 0)
(3 4.33023e-15 0)
(3 4.37254e-15 0)
(3 4.21907e-15 0)
(3 3.28557e-15 0)
(3 2.16644e-15 0)
(3 2.07007e-15 0)
(3 2.64471e-15 0)
(3 2.8059e-15 0)
(3 2.86487e-15 0)
(3 2.75658e-15 0)
(3 2.63353e-15 0)
(3 1.91019e-15 0)
(3 1.24892e-15 0)
(3 5.34888e-16 0)
(3 -4.84374e-17 0)
(3 -5.82344e-16 0)
(3 -7.41796e-16 0)
(3 -9.70306e-16 0)
(3 -1.3247e-15 0)
(3 -1.75358e-15 0)
(3 -2.23108e-15 0)
(3 -2.18635e-15 0)
(3 -2.17934e-15 0)
(3 -2.40772e-15 0)
(3 -1.97169e-15 0)
(3 -2.06463e-15 0)
(3 -1.70786e-15 0)
(3 -1.08125e-15 0)
(3 -5.85259e-16 0)
(3 4.65474e-16 0)
(3 1.27926e-15 0)
(3 2.19179e-15 0)
(3 1.61601e-15 0)
(3 8.28297e-16 0)
(3 -3.15994e-16 0)
(3 -2.20351e-16 0)
(3 3.72834e-16 0)
(3 6.74635e-16 0)
(3 1.18821e-15 0)
(3 1.47523e-15 0)
(3 2.12197e-15 0)
(3 1.6235e-15 0)
(3 7.72202e-16 0)
(3 1.78785e-15 0)
(3 2.58668e-15 0)
(3 3.02771e-15 0)
(3 2.55432e-15 0)
(3 2.95753e-15 0)
(3 2.82994e-15 0)
(3 2.86683e-15 0)
(3 2.61863e-15 0)
(3 1.54308e-15 0)
(3 1.09279e-15 0)
(3 1.08074e-15 0)
(3 1.22631e-15 0)
(3 6.04637e-16 0)
(3 7.64696e-17 0)
(3 -8.15763e-17 0)
(3 9.81848e-17 0)
(3 -4.82093e-16 0)
(3 -4.96572e-16 0)
(3 -7.62219e-16 0)
(3 2.61059e-16 0)
(3 2.28686e-16 0)
(3 -8.93185e-17 0)
(3 9.98417e-16 0)
(3 7.27854e-16 0)
(3 6.72392e-16 0)
(3 9.6534e-16 0)
(3 1.85125e-15 0)
(3 2.01953e-15 0)
(3 2.15763e-15 0)
(3 1.85609e-15 0)
(3 1.12477e-15 0)
(3 4.94267e-16 0)
(3 2.767e-16 0)
(3 4.43087e-16 0)
(3 9.72518e-16 0)
(3 -2.70884e-16 0)
(3 -3.7258e-16 0)
(3 -5.41482e-16 0)
(3 -7.83411e-16 0)
(3 8.58619e-15 0)
(3 7.45728e-12 0)
(3 6.73342e-09 0)
(3 2.10531e-06 0)
(2.9999 0.000207751 0)
(2.99706 0.00730223 0)
(2.97644 0.0552531 0)
(2.87523 0.230456 0)
(2.65964 0.507363 0)
(2.44126 0.742946 0)
(2.34591 0.914855 0)
(2.33561 0.934908 0)
(2.33873 0.895203 0)
(2.37237 0.838637 0)
(2.38783 0.814633 0)
(2.40198 0.822991 0)
(2.39598 0.850563 0)
(2.37727 0.869236 0)
(2.36712 0.867655 0)
(2.37124 0.857492 0)
(2.38339 0.845387 0)
(2.39468 0.829396 0)
(2.40118 0.821276 0)
(2.40257 0.822442 0)
(2.3996 0.826632 0)
(2.39894 0.825346 0)
(2.40462 0.817748 0)
(2.41195 0.810227 0)
(2.41551 0.803768 0)
(2.41723 0.802949 0)
(2.41782 0.803435 0)
(2.41862 0.801644 0)
(2.42331 0.800192 0)
(2.42955 0.799224 0)
(2.43789 0.795117 0)
(2.44395 0.792492 0)
(2.4479 0.792186 0)
(2.44974 0.790835 0)
(2.44986 0.784959 0)
(2.44714 0.774336 0)
(2.44618 0.762242 0)
(2.44964 0.755199 0)
(2.45478 0.75501 0)
(2.45963 0.756815 0)
(2.46703 0.759522 0)
(2.47279 0.760734 0)
(2.47657 0.759607 0)
(2.4795 0.753754 0)
(2.47863 0.744154 0)
(2.47728 0.735628 0)
(2.48017 0.73251 0)
(2.48402 0.733205 0)
(2.49158 0.734502 0)
(2.50119 0.736506 0)
(2.50612 0.736284 0)
(2.51052 0.734058 0)
(2.51217 0.727532 0)
(2.50671 0.716145 0)
(2.49684 0.700347 0)
(2.49505 0.69213 0)
(3 -3.19505e-15 0)
(3 -2.71347e-15 0)
(3 -2.55562e-15 0)
(3 -2.08213e-15 0)
(3 -1.11299e-15 0)
(3 -3.47307e-16 0)
(3 1.38481e-15 0)
(3 1.54919e-15 0)
(3 1.14148e-15 0)
(3 9.89255e-17 0)
(3 -2.2982e-16 0)
(3 -1.09985e-15 0)
(3 -1.75147e-15 0)
(3 -2.21428e-15 0)
(3 -2.28301e-15 0)
(3 -1.86897e-15 0)
(3 -6.83855e-16 0)
(3 2.90517e-16 0)
(3 3.63159e-16 0)
(3 -4.87049e-16 0)
(3 -3.03447e-16 0)
(3 2.53993e-16 0)
(3 1.57308e-16 0)
(3 1.28629e-16 0)
(3 2.80624e-17 0)
(3 -6.77322e-16 0)
(3 -1.31923e-15 0)
(3 -1.78241e-15 0)
(3 -1.81572e-15 0)
(3 -1.44307e-15 0)
(3 -6.65025e-16 0)
(3 4.26687e-16 0)
(3 1.40083e-15 0)
(3 2.30406e-15 0)
(3 3.19369e-15 0)
(3 1.81245e-15 0)
(3 1.0067e-15 0)
(3 2.82283e-16 0)
(3 8.13146e-16 0)
(3 1.08183e-15 0)
(3 1.06587e-15 0)
(3 1.15528e-15 0)
(3 1.88768e-15 0)
(3 2.20475e-15 0)
(3 1.41677e-15 0)
(3 9.88919e-16 0)
(3 4.42863e-16 0)
(3 -2.29183e-16 0)
(3 -8.0026e-16 0)
(3 -8.13797e-16 0)
(3 -9.29425e-16 0)
(3 -5.60895e-16 0)
(3 -6.11492e-16 0)
(3 -9.24552e-16 0)
(3 -1.36797e-15 0)
(3 -1.41118e-15 0)
(3 -1.45669e-15 0)
(3 -1.6006e-15 0)
(3 -1.20285e-15 0)
(3 -9.50298e-16 0)
(3 -7.76351e-16 0)
(3 -8.75834e-16 0)
(3 -7.66862e-16 0)
(3 1.18303e-15 0)
(3 2.66157e-15 0)
(3 2.43441e-15 0)
(3 1.19936e-15 0)
(3 1.4238e-15 0)
(3 1.63409e-15 0)
(3 1.91612e-15 0)
(3 1.7125e-15 0)
(3 1.5146e-15 0)
(3 9.65658e-16 0)
(3 4.65289e-16 0)
(3 1.20712e-16 0)
(3 5.96817e-18 0)
(3 5.45764e-16 0)
(3 1.19685e-15 0)
(3 1.21464e-15 0)
(3 1.80419e-15 0)
(3 2.07921e-15 0)
(3 2.47025e-15 0)
(3 2.10535e-15 0)
(3 2.10819e-15 0)
(3 1.71729e-15 0)
(3 1.63085e-15 0)
(3 1.19425e-15 0)
(3 8.46866e-16 0)
(3 1.37418e-16 0)
(3 -8.44047e-16 0)
(3 -1.39592e-15 0)
(3 -1.30067e-15 0)
(3 -1.31491e-15 0)
(3 -1.7013e-15 0)
(3 -1.59679e-15 0)
(3 -1.18014e-15 0)
(3 -2.19725e-16 0)
(3 -8.25753e-16 0)
(3 -1.48978e-15 0)
(3 -1.21834e-15 0)
(3 -1.13762e-15 0)
(3 -5.43309e-16 0)
(3 -4.78563e-16 0)
(3 -3.87225e-16 0)
(3 2.63195e-16 0)
(3 1.10544e-15 0)
(3 1.53616e-15 0)
(3 1.50178e-15 0)
(3 1.15638e-15 0)
(3 1.00019e-15 0)
(3 7.89121e-16 0)
(3 3.57386e-16 0)
(3 -4.97977e-16 0)
(3 -1.18412e-15 0)
(3 -1.26253e-15 0)
(3 -1.15158e-15 0)
(3 -5.97734e-16 0)
(3 1.07226e-15 0)
(3 3.74975e-12 0)
(3 2.99529e-09 0)
(3 7.90576e-07 0)
(2.99998 5.34049e-05 0)
(2.99949 0.00135999 0)
(2.99139 0.0170271 0)
(2.91628 0.142321 0)
(2.70536 0.429018 0)
(2.45335 0.772947 0)
(2.39141 0.921649 0)
(2.37543 0.856511 0)
(2.39047 0.816877 0)
(2.39539 0.813385 0)
(2.4011 0.838283 0)
(2.38228 0.875128 0)
(2.3587 0.883658 0)
(2.35901 0.874754 0)
(2.37017 0.859768 0)
(2.3899 0.836018 0)
(2.39762 0.8247 0)
(2.40151 0.824076 0)
(2.39893 0.830646 0)
(2.39572 0.832896 0)
(2.39802 0.826857 0)
(2.40428 0.821834 0)
(2.41075 0.814405 0)
(2.41286 0.809484 0)
(2.4151 0.808997 0)
(2.41588 0.8101 0)
(2.41874 0.807899 0)
(2.42532 0.80724 0)
(2.43331 0.802276 0)
(2.4392 0.797695 0)
(2.44295 0.796499 0)
(2.4445 0.795736 0)
(2.44444 0.79128 0)
(2.44168 0.782092 0)
(2.44111 0.770374 0)
(2.44482 0.76232 0)
(2.45045 0.761863 0)
(2.45578 0.763633 0)
(2.46274 0.766995 0)
(2.46756 0.768726 0)
(2.47114 0.767945 0)
(2.47386 0.761656 0)
(2.47329 0.751331 0)
(2.47294 0.74238 0)
(2.47615 0.739165 0)
(2.47987 0.740002 0)
(2.48726 0.741675 0)
(2.49646 0.74374 0)
(2.5013 0.743467 0)
(2.50569 0.740972 0)
(2.50747 0.734236 0)
(2.50231 0.722896 0)
(2.49282 0.707347 0)
(2.4909 0.699039 0)
(2.49393 0.697416 0)
(3 -2.61566e-15 0)
(3 -2.26038e-15 0)
(3 -1.69985e-15 0)
(3 -1.14463e-15 0)
(3 -7.62877e-16 0)
(3 -1.40973e-16 0)
(3 1.09516e-15 0)
(3 1.33925e-15 0)
(3 6.53562e-16 0)
(3 1.81284e-16 0)
(3 -4.47978e-16 0)
(3 -7.98813e-16 0)
(3 -1.19514e-15 0)
(3 -1.44251e-15 0)
(3 -1.37127e-15 0)
(3 -1.67231e-15 0)
(3 -1.64826e-15 0)
(3 -1.0905e-15 0)
(3 -1.02476e-15 0)
(3 -5.33094e-16 0)
(3 -3.47567e-16 0)
(3 -1.05414e-16 0)
(3 2.20229e-16 0)
(3 -5.73314e-17 0)
(3 -2.29437e-16 0)
(3 -9.19133e-16 0)
(3 -1.0626e-15 0)
(3 -2.57736e-15 0)
(3 -2.92024e-15 0)
(3 -6.62045e-16 0)
(3 4.03199e-16 0)
(3 5.5649e-16 0)
(3 -1.37484e-16 0)
(3 -4.60958e-16 0)
(3 6.36673e-16 0)
(3 1.54771e-15 0)
(3 1.8759e-15 0)
(3 1.71338e-15 0)
(3 2.0123e-15 0)
(3 1.92117e-15 0)
(3 1.1075e-15 0)
(3 8.14492e-16 0)
(3 6.38472e-16 0)
(3 -2.22484e-16 0)
(3 -1.08296e-15 0)
(3 -1.22618e-15 0)
(3 -1.31647e-15 0)
(3 -8.59337e-16 0)
(3 -8.29727e-17 0)
(3 8.20582e-16 0)
(3 8.0463e-16 0)
(3 -2.89026e-16 0)
(3 -4.72107e-16 0)
(3 1.17338e-16 0)
(3 1.88022e-16 0)
(3 2.07901e-16 0)
(3 -5.45531e-16 0)
(3 -8.91454e-16 0)
(3 -9.66098e-16 0)
(3 -9.65163e-16 0)
(3 -1.02275e-15 0)
(3 -4.90035e-16 0)
(3 -1.80978e-16 0)
(3 9.80846e-16 0)
(3 2.58362e-15 0)
(3 2.21883e-15 0)
(3 1.62316e-15 0)
(3 1.99806e-15 0)
(3 2.49881e-15 0)
(3 2.54674e-15 0)
(3 2.46154e-15 0)
(3 1.91811e-15 0)
(3 1.47668e-15 0)
(3 7.32528e-16 0)
(3 -4.4212e-16 0)
(3 -8.96387e-16 0)
(3 -5.08751e-16 0)
(3 -4.68995e-16 0)
(3 8.45924e-17 0)
(3 4.84301e-17 0)
(3 9.19989e-16 0)
(3 1.6091e-15 0)
(3 2.33535e-15 0)
(3 1.62476e-15 0)
(3 5.21364e-16 0)
(3 2.66011e-16 0)
(3 6.58574e-16 0)
(3 6.92373e-16 0)
(3 -2.25639e-16 0)
(3 -1.33189e-15 0)
(3 -2.55931e-15 0)
(3 -3.1584e-15 0)
(3 -3.16983e-15 0)
(3 -2.69927e-15 0)
(3 -1.76228e-15 0)
(3 -1.52296e-15 0)
(3 -1.22015e-15 0)
(3 -8.53408e-16 0)
(3 -1.14053e-15 0)
(3 -1.90971e-15 0)
(3 -1.8776e-15 0)
(3 -2.44119e-15 0)
(3 -2.21748e-15 0)
(3 -1.66257e-15 0)
(3 -1.04672e-15 0)
(3 -9.16952e-16 0)
(3 -4.56799e-17 0)
(3 1.0502e-15 0)
(3 1.02722e-15 0)
(3 7.49923e-16 0)
(3 5.00263e-16 0)
(3 -3.8943e-17 0)
(3 3.88003e-17 0)
(3 4.34156e-16 0)
(3 3.44927e-16 0)
(3 8.28249e-16 0)
(3 8.11143e-16 0)
(3 8.68102e-16 0)
(3 2.72055e-15 0)
(3 8.14569e-13 0)
(3 3.7232e-10 0)
(3 5.56471e-08 0)
(3 5.00923e-06 0)
(2.99985 0.000310612 0)
(2.9957 0.00801522 0)
(2.943 0.0956267 0)
(2.76652 0.376012 0)
(2.55241 0.740346 0)
(2.45867 0.805284 0)
(2.40475 0.789719 0)
(2.3989 0.819539 0)
(2.38553 0.862747 0)
(2.35771 0.900166 0)
(2.34823 0.898054 0)
(2.35411 0.88036 0)
(2.38174 0.844736 0)
(2.39305 0.825318 0)
(2.39951 0.822346 0)
(2.39938 0.831355 0)
(2.39429 0.839611 0)
(2.39269 0.837828 0)
(2.39657 0.831599 0)
(2.40331 0.826213 0)
(2.40922 0.817196 0)
(2.41177 0.813688 0)
(2.41372 0.815921 0)
(2.41343 0.818429 0)
(2.41871 0.816088 0)
(2.42748 0.810572 0)
(2.43375 0.803005 0)
(2.43758 0.800081 0)
(2.43943 0.799531 0)
(2.43923 0.796862 0)
(2.43671 0.790073 0)
(2.43619 0.779719 0)
(2.43998 0.771473 0)
(2.44561 0.76955 0)
(2.45215 0.770416 0)
(2.45885 0.773638 0)
(2.46281 0.775854 0)
(2.4659 0.775627 0)
(2.46788 0.769397 0)
(2.46757 0.758572 0)
(2.46836 0.749211 0)
(2.47209 0.746079 0)
(2.47593 0.746995 0)
(2.48321 0.748898 0)
(2.49172 0.750795 0)
(2.49611 0.750484 0)
(2.50046 0.747569 0)
(2.50245 0.740428 0)
(2.49791 0.729176 0)
(2.4891 0.714176 0)
(2.48713 0.705936 0)
(2.49009 0.704303 0)
(2.49358 0.705317 0)
(3 -1.34829e-15 0)
(3 -3.75407e-16 0)
(3 2.44857e-16 0)
(3 1.18135e-16 0)
(3 1.81716e-16 0)
(3 6.36681e-16 0)
(3 1.87829e-16 0)
(3 1.38629e-16 0)
(3 4.57642e-16 0)
(3 3.87565e-16 0)
(3 -3.09676e-16 0)
(3 -7.9459e-16 0)
(3 -1.01075e-15 0)
(3 -9.5507e-16 0)
(3 -9.90552e-16 0)
(3 -1.40095e-15 0)
(3 -2.16595e-15 0)
(3 -2.13682e-15 0)
(3 -1.96887e-15 0)
(3 -7.55729e-16 0)
(3 -2.71302e-16 0)
(3 1.73201e-16 0)
(3 1.23105e-15 0)
(3 1.20921e-15 0)
(3 -5.8364e-16 0)
(3 -1.4271e-15 0)
(3 -2.31225e-15 0)
(3 -2.55733e-15 0)
(3 -4.23356e-16 0)
(3 5.38486e-16 0)
(3 7.28456e-16 0)
(3 3.12975e-16 0)
(3 2.7949e-16 0)
(3 -8.03263e-16 0)
(3 -5.17062e-16 0)
(3 5.90359e-16 0)
(3 2.4442e-15 0)
(3 2.83929e-15 0)
(3 2.5289e-15 0)
(3 2.41663e-15 0)
(3 1.7804e-15 0)
(3 1.23484e-15 0)
(3 -1.20471e-16 0)
(3 -1.41122e-15 0)
(3 -1.27899e-15 0)
(3 -1.49534e-15 0)
(3 -1.30134e-15 0)
(3 -9.73799e-16 0)
(3 1.96765e-16 0)
(3 1.09816e-15 0)
(3 6.49182e-16 0)
(3 -1.62245e-16 0)
(3 -1.22876e-15 0)
(3 -3.21472e-16 0)
(3 1.04829e-15 0)
(3 1.22808e-15 0)
(3 9.99298e-17 0)
(3 -1.56824e-15 0)
(3 -1.63721e-15 0)
(3 -1.39005e-15 0)
(3 -1.17081e-15 0)
(3 -1.67095e-16 0)
(3 1.59852e-15 0)
(3 3.62352e-15 0)
(3 3.67701e-15 0)
(3 4.05895e-15 0)
(3 3.98766e-15 0)
(3 3.52584e-15 0)
(3 2.75332e-15 0)
(3 2.54337e-15 0)
(3 2.30114e-15 0)
(3 1.95242e-15 0)
(3 1.08314e-15 0)
(3 1.3346e-16 0)
(3 -3.73026e-16 0)
(3 -5.76202e-16 0)
(3 -8.38861e-16 0)
(3 -6.98166e-16 0)
(3 1.23794e-17 0)
(3 1.024e-15 0)
(3 1.90141e-15 0)
(3 2.17357e-15 0)
(3 2.7592e-15 0)
(3 1.36682e-15 0)
(3 -4.0976e-16 0)
(3 -9.34327e-16 0)
(3 -4.73732e-16 0)
(3 1.10953e-17 0)
(3 3.15379e-16 0)
(3 -2.02196e-16 0)
(3 -8.60731e-16 0)
(3 -2.85704e-15 0)
(3 -3.48599e-15 0)
(3 -2.41083e-15 0)
(3 -1.66246e-15 0)
(3 -1.15343e-15 0)
(3 -1.18082e-15 0)
(3 -1.40498e-15 0)
(3 -1.12019e-15 0)
(3 -1.45315e-15 0)
(3 -2.68484e-15 0)
(3 -3.11808e-15 0)
(3 -2.47984e-15 0)
(3 -1.18136e-15 0)
(3 -9.73113e-16 0)
(3 -3.76031e-16 0)
(3 1.33254e-16 0)
(3 5.66433e-16 0)
(3 3.72353e-16 0)
(3 -1.28441e-16 0)
(3 3.39368e-17 0)
(3 6.42073e-16 0)
(3 8.49992e-16 0)
(3 9.76122e-16 0)
(3 1.45625e-15 0)
(3 2.24248e-15 0)
(3 2.53182e-15 0)
(3 2.47603e-15 0)
(3 2.597e-15 0)
(3 2.06871e-15 0)
(3 2.44411e-14 0)
(3 8.01601e-12 0)
(3 4.39405e-09 0)
(3 1.26806e-06 0)
(2.99994 0.00011687 0)
(2.9976 0.00461873 0)
(2.96766 0.0661754 0)
(2.87048 0.26191 0)
(2.65816 0.569217 0)
(2.50703 0.696871 0)
(2.39848 0.800053 0)
(2.36064 0.881159 0)
(2.34971 0.923696 0)
(2.34467 0.909968 0)
(2.36628 0.864757 0)
(2.38634 0.826106 0)
(2.39547 0.817802 0)
(2.40138 0.825844 0)
(2.39668 0.843346 0)
(2.38929 0.849999 0)
(2.38896 0.84352 0)
(2.3929 0.838372 0)
(2.40399 0.825821 0)
(2.40828 0.819097 0)
(2.41182 0.819562 0)
(2.41188 0.824257 0)
(2.41168 0.824851 0)
(2.41925 0.819131 0)
(2.42767 0.809768 0)
(2.43218 0.803666 0)
(2.43451 0.802507 0)
(2.43442 0.801408 0)
(2.43249 0.796996 0)
(2.43181 0.788517 0)
(2.43522 0.781219 0)
(2.44056 0.779251 0)
(2.44795 0.777807 0)
(2.4542 0.779906 0)
(2.45816 0.782151 0)
(2.46076 0.782411 0)
(2.46193 0.776676 0)
(2.46155 0.765934 0)
(2.46364 0.756255 0)
(2.46801 0.7531 0)
(2.47219 0.75397 0)
(2.47932 0.755875 0)
(2.48676 0.757633 0)
(2.49064 0.757317 0)
(2.49487 0.75413 0)
(2.49702 0.746611 0)
(2.49314 0.735317 0)
(2.48533 0.720928 0)
(2.4836 0.712805 0)
(2.48651 0.711189 0)
(2.48992 0.712295 0)
(2.49842 0.715204 0)
(3 -9.14165e-16 0)
(3 4.43001e-16 0)
(3 8.81414e-16 0)
(3 1.0389e-15 0)
(3 1.12441e-15 0)
(3 1.02406e-15 0)
(3 -6.63384e-16 0)
(3 -8.64364e-16 0)
(3 -2.3831e-16 0)
(3 5.01253e-16 0)
(3 -5.16587e-16 0)
(3 -1.07326e-15 0)
(3 -1.23962e-15 0)
(3 -1.69859e-15 0)
(3 -1.8302e-15 0)
(3 -2.01071e-15 0)
(3 -2.17586e-15 0)
(3 -2.76467e-15 0)
(3 -2.44291e-15 0)
(3 -2.21717e-15 0)
(3 -1.64882e-15 0)
(3 -7.88802e-16 0)
(3 3.66776e-17 0)
(3 6.11641e-16 0)
(3 5.87868e-16 0)
(3 -9.2851e-17 0)
(3 -8.29007e-16 0)
(3 -6.60279e-16 0)
(3 3.7793e-16 0)
(3 -7.55103e-17 0)
(3 -8.4129e-16 0)
(3 -7.11696e-16 0)
(3 -3.31746e-16 0)
(3 2.36615e-16 0)
(3 3.32253e-16 0)
(3 4.05237e-16 0)
(3 1.12916e-15 0)
(3 1.82963e-15 0)
(3 1.78526e-15 0)
(3 1.65721e-15 0)
(3 1.2095e-15 0)
(3 6.00867e-16 0)
(3 1.69956e-16 0)
(3 3.28905e-16 0)
(3 1.05751e-15 0)
(3 8.85063e-16 0)
(3 2.77598e-16 0)
(3 -3.23413e-16 0)
(3 -4.83933e-16 0)
(3 -2.45496e-16 0)
(3 -4.47699e-17 0)
(3 1.14346e-15 0)
(3 1.25064e-15 0)
(3 7.44229e-16 0)
(3 1.08739e-15 0)
(3 1.28504e-15 0)
(3 3.60553e-16 0)
(3 -6.92611e-16 0)
(3 -1.43327e-15 0)
(3 -6.85272e-16 0)
(3 -5.08246e-16 0)
(3 -5.98827e-16 0)
(3 9.27444e-16 0)
(3 2.70187e-15 0)
(3 3.30391e-15 0)
(3 4.08734e-15 0)
(3 3.99691e-15 0)
(3 3.09045e-15 0)
(3 1.68413e-15 0)
(3 1.05508e-15 0)
(3 4.97917e-16 0)
(3 2.6637e-16 0)
(3 3.45916e-16 0)
(3 3.8664e-16 0)
(3 1.0073e-15 0)
(3 1.08104e-15 0)
(3 1.26285e-15 0)
(3 4.13681e-16 0)
(3 -3.87689e-16 0)
(3 7.03401e-16 0)
(3 1.23766e-15 0)
(3 8.82875e-16 0)
(3 1.21056e-15 0)
(3 1.26757e-15 0)
(3 4.7119e-16 0)
(3 -6.37202e-16 0)
(3 -1.05743e-15 0)
(3 -8.5955e-16 0)
(3 9.5317e-17 0)
(3 2.9479e-16 0)
(3 -1.50666e-17 0)
(3 -2.50027e-16 0)
(3 -2.05473e-16 0)
(3 -6.87425e-16 0)
(3 -9.52959e-16 0)
(3 -1.0881e-15 0)
(3 -1.48732e-15 0)
(3 -1.74062e-15 0)
(3 -1.15661e-15 0)
(3 -8.68009e-16 0)
(3 -1.34542e-15 0)
(3 -1.46722e-15 0)
(3 -1.3997e-15 0)
(3 -1.29099e-15 0)
(3 -7.34307e-16 0)
(3 4.9708e-16 0)
(3 7.77164e-16 0)
(3 7.23547e-16 0)
(3 5.98164e-16 0)
(3 1.11439e-15 0)
(3 1.44765e-15 0)
(3 1.67413e-15 0)
(3 1.30597e-15 0)
(3 1.42264e-15 0)
(3 1.76108e-15 0)
(3 1.77884e-15 0)
(3 2.37746e-15 0)
(3 3.35529e-15 0)
(3 3.12897e-15 0)
(3 2.02415e-15 0)
(3 1.67794e-15 0)
(3 2.2424e-15 0)
(3 1.46319e-12 0)
(3 1.3191e-09 0)
(3 4.51902e-07 0)
(2.99998 5.11961e-05 0)
(2.99923 0.00194683 0)
(2.99053 0.023979 0)
(2.93319 0.125784 0)
(2.73505 0.414258 0)
(2.53864 0.643701 0)
(2.37568 0.851471 0)
(2.36476 0.931292 0)
(2.35794 0.896077 0)
(2.38299 0.838199 0)
(2.39016 0.813573 0)
(2.40119 0.817584 0)
(2.40305 0.841237 0)
(2.38824 0.862672 0)
(2.37876 0.860711 0)
(2.3802 0.853996 0)
(2.39434 0.837952 0)
(2.40399 0.823217 0)
(2.40997 0.821033 0)
(2.41095 0.826841 0)
(2.40821 0.831679 0)
(2.40982 0.828166 0)
(2.4188 0.820032 0)
(2.42634 0.809066 0)
(2.42913 0.805201 0)
(2.42993 0.804702 0)
(2.4286 0.802915 0)
(2.42767 0.797125 0)
(2.43088 0.790844 0)
(2.43603 0.789005 0)
(2.44424 0.785574 0)
(2.44969 0.785145 0)
(2.45375 0.787067 0)
(2.45577 0.787924 0)
(2.45599 0.783273 0)
(2.45535 0.773764 0)
(2.45822 0.764086 0)
(2.46361 0.760538 0)
(2.46881 0.760774 0)
(2.47571 0.762122 0)
(2.48173 0.763602 0)
(2.48504 0.763502 0)
(2.48895 0.760501 0)
(2.49113 0.752916 0)
(2.4881 0.741652 0)
(2.48156 0.727955 0)
(2.4801 0.719967 0)
(2.48296 0.718312 0)
(2.48634 0.719395 0)
(2.49459 0.722204 0)
(2.50719 0.728556 0)
(3 -7.62618e-16 0)
(3 -5.37891e-16 0)
(3 3.16245e-16 0)
(3 9.17662e-16 0)
(3 1.02503e-15 0)
(3 -9.67661e-17 0)
(3 -8.03709e-16 0)
(3 -3.96244e-16 0)
(3 -9.09905e-16 0)
(3 -8.60447e-16 0)
(3 -2.90886e-16 0)
(3 -3.89434e-16 0)
(3 -6.21633e-16 0)
(3 -1.34241e-15 0)
(3 -1.97189e-15 0)
(3 -2.15203e-15 0)
(3 -2.12044e-15 0)
(3 -2.13669e-15 0)
(3 -2.7857e-15 0)
(3 -2.33949e-15 0)
(3 -1.90412e-15 0)
(3 -1.59088e-15 0)
(3 -1.46292e-15 0)
(3 -3.09857e-16 0)
(3 1.36664e-15 0)
(3 1.66696e-15 0)
(3 2.00985e-15 0)
(3 9.72432e-16 0)
(3 6.37633e-16 0)
(3 -3.44912e-16 0)
(3 -6.81879e-16 0)
(3 -8.97841e-16 0)
(3 -5.04889e-16 0)
(3 3.97137e-16 0)
(3 8.2191e-16 0)
(3 1.09179e-15 0)
(3 9.03223e-16 0)
(3 9.39964e-16 0)
(3 1.2142e-15 0)
(3 2.1574e-15 0)
(3 2.2548e-15 0)
(3 1.35774e-15 0)
(3 6.5914e-16 0)
(3 4.8029e-16 0)
(3 4.80434e-16 0)
(3 2.66954e-16 0)
(3 1.42615e-16 0)
(3 -1.44445e-17 0)
(3 -1.14707e-16 0)
(3 -2.13448e-16 0)
(3 4.64991e-16 0)
(3 1.9606e-15 0)
(3 2.67326e-15 0)
(3 2.20414e-15 0)
(3 7.62452e-16 0)
(3 5.84636e-16 0)
(3 2.98165e-16 0)
(3 -2.60365e-16 0)
(3 -6.61303e-16 0)
(3 -4.87932e-16 0)
(3 -3.16968e-16 0)
(3 -5.05049e-16 0)
(3 9.30302e-17 0)
(3 9.92428e-16 0)
(3 1.51946e-15 0)
(3 2.61449e-15 0)
(3 3.62851e-15 0)
(3 3.13366e-15 0)
(3 1.77182e-15 0)
(3 1.01448e-15 0)
(3 1.31417e-15 0)
(3 1.38327e-15 0)
(3 6.71205e-16 0)
(3 9.75006e-16 0)
(3 1.86061e-15 0)
(3 2.64968e-15 0)
(3 2.5876e-15 0)
(3 2.19117e-15 0)
(3 1.93827e-15 0)
(3 1.27642e-15 0)
(3 1.25178e-15 0)
(3 1.11222e-15 0)
(3 1.41785e-15 0)
(3 2.71694e-15 0)
(3 1.69419e-15 0)
(3 1.27087e-15 0)
(3 5.41102e-16 0)
(3 2.60736e-16 0)
(3 -3.70153e-16 0)
(3 -7.82126e-16 0)
(3 -1.03073e-15 0)
(3 1.22694e-16 0)
(3 1.45508e-15 0)
(3 1.00036e-15 0)
(3 -1.26059e-15 0)
(3 -2.14156e-15 0)
(3 -2.33398e-15 0)
(3 -1.15469e-15 0)
(3 -7.5949e-16 0)
(3 -6.42639e-16 0)
(3 4.23752e-16 0)
(3 4.34176e-16 0)
(3 -7.65641e-16 0)
(3 -9.42585e-16 0)
(3 -6.77249e-16 0)
(3 -4.46951e-16 0)
(3 5.01055e-17 0)
(3 5.61752e-16 0)
(3 1.00021e-15 0)
(3 2.19787e-15 0)
(3 2.9851e-15 0)
(3 2.65983e-15 0)
(3 2.08856e-15 0)
(3 2.07385e-15 0)
(3 2.08431e-15 0)
(3 1.42194e-15 0)
(3 1.74518e-15 0)
(3 1.95969e-15 0)
(3 1.84791e-15 0)
(3 2.06962e-15 0)
(3 1.98851e-15 0)
(3 1.67558e-15 0)
(3 1.86418e-15 0)
(3 4.08073e-13 0)
(3 3.60559e-10 0)
(3 1.01962e-07 0)
(3 8.66453e-06 0)
(2.99987 0.000329442 0)
(2.997 0.00645461 0)
(2.96174 0.0672707 0)
(2.80558 0.297237 0)
(2.56434 0.61845 0)
(2.42231 0.897809 0)
(2.39387 0.868356 0)
(2.39638 0.816739 0)
(2.39765 0.808956 0)
(2.40602 0.826884 0)
(2.39595 0.865308 0)
(2.37161 0.880446 0)
(2.36833 0.875313 0)
(2.37974 0.857598 0)
(2.39857 0.828531 0)
(2.40463 0.819142 0)
(2.40955 0.8244 0)
(2.40692 0.833515 0)
(2.40407 0.836667 0)
(2.409 0.829967 0)
(2.4172 0.82139 0)
(2.42315 0.810458 0)
(2.42447 0.807078 0)
(2.42437 0.807217 0)
(2.42365 0.804585 0)
(2.42602 0.799653 0)
(2.43111 0.798791 0)
(2.4393 0.794705 0)
(2.44474 0.79115 0)
(2.44852 0.791506 0)
(2.45003 0.792277 0)
(2.45002 0.788949 0)
(2.44929 0.781343 0)
(2.45237 0.772522 0)
(2.45846 0.768562 0)
(2.46556 0.767327 0)
(2.47234 0.767714 0)
(2.47683 0.768954 0)
(2.47979 0.769241 0)
(2.48282 0.76637 0)
(2.4849 0.758721 0)
(2.48299 0.747651 0)
(2.47787 0.735001 0)
(2.47672 0.727482 0)
(2.47943 0.725952 0)
(2.48265 0.727071 0)
(2.49043 0.729534 0)
(2.50219 0.735002 0)
(2.51209 0.738405 0)
(3 -1.64208e-16 0)
(3 -4.3863e-16 0)
(3 6.70923e-17 0)
(3 3.96942e-16 0)
(3 5.33542e-16 0)
(3 6.04516e-16 0)
(3 2.7205e-16 0)
(3 7.91006e-19 0)
(3 -3.83709e-16 0)
(3 -5.21284e-16 0)
(3 -1.40714e-16 0)
(3 1.50551e-16 0)
(3 4.38758e-17 0)
(3 -6.15406e-16 0)
(3 -1.10586e-15 0)
(3 -1.34858e-15 0)
(3 -1.75834e-15 0)
(3 -1.44724e-15 0)
(3 -1.92543e-15 0)
(3 -1.65193e-15 0)
(3 -4.21803e-16 0)
(3 -2.51035e-16 0)
(3 -8.00025e-16 0)
(3 -6.85052e-16 0)
(3 1.21981e-15 0)
(3 3.26823e-15 0)
(3 3.44724e-15 0)
(3 2.3371e-15 0)
(3 5.06377e-16 0)
(3 -2.26751e-16 0)
(3 -2.05921e-16 0)
(3 1.84892e-16 0)
(3 7.26669e-16 0)
(3 8.59874e-16 0)
(3 1.40318e-15 0)
(3 2.32074e-15 0)
(3 2.13121e-15 0)
(3 1.94551e-15 0)
(3 2.19812e-15 0)
(3 2.57279e-15 0)
(3 2.84768e-15 0)
(3 2.06751e-15 0)
(3 9.47331e-16 0)
(3 1.73373e-16 0)
(3 -3.49745e-16 0)
(3 -9.85963e-17 0)
(3 3.74439e-16 0)
(3 5.56031e-16 0)
(3 3.35385e-16 0)
(3 5.70179e-16 0)
(3 1.47995e-15 0)
(3 2.09663e-15 0)
(3 2.09179e-15 0)
(3 1.97605e-15 0)
(3 7.54301e-16 0)
(3 2.87786e-16 0)
(3 1.94107e-16 0)
(3 1.64261e-16 0)
(3 6.42887e-16 0)
(3 1.15339e-15 0)
(3 1.6291e-15 0)
(3 1.3379e-15 0)
(3 1.06007e-16 0)
(3 1.35508e-16 0)
(3 2.73629e-16 0)
(3 1.09057e-15 0)
(3 2.53697e-15 0)
(3 2.46943e-15 0)
(3 7.86032e-16 0)
(3 7.93542e-16 0)
(3 9.33197e-16 0)
(3 1.1628e-15 0)
(3 1.1076e-15 0)
(3 1.33162e-15 0)
(3 1.95889e-15 0)
(3 3.26908e-15 0)
(3 3.4097e-15 0)
(3 2.69109e-15 0)
(3 2.40739e-15 0)
(3 2.22785e-15 0)
(3 2.31475e-15 0)
(3 2.56935e-15 0)
(3 1.44975e-15 0)
(3 6.59545e-16 0)
(3 -3.38206e-16 0)
(3 1.22631e-16 0)
(3 1.69303e-16 0)
(3 1.97104e-16 0)
(3 5.4825e-17 0)
(3 -7.70422e-16 0)
(3 -4.85095e-16 0)
(3 -5.90033e-16 0)
(3 -3.46277e-16 0)
(3 -5.1853e-16 0)
(3 -1.24511e-15 0)
(3 -1.60826e-15 0)
(3 -1.69548e-15 0)
(3 -1.16608e-15 0)
(3 -4.00609e-16 0)
(3 -2.54635e-16 0)
(3 -5.85707e-16 0)
(3 -3.38043e-16 0)
(3 -3.02999e-16 0)
(3 -5.20387e-16 0)
(3 -5.94509e-16 0)
(3 -1.1387e-15 0)
(3 -8.76397e-17 0)
(3 2.0483e-16 0)
(3 1.00477e-15 0)
(3 2.19039e-15 0)
(3 2.5078e-15 0)
(3 2.31561e-15 0)
(3 2.22273e-15 0)
(3 1.56926e-15 0)
(3 1.22297e-15 0)
(3 1.07053e-15 0)
(3 8.5634e-16 0)
(3 1.23436e-15 0)
(3 1.51059e-15 0)
(3 1.86353e-15 0)
(3 1.96666e-15 0)
(3 1.97661e-15 0)
(3 2.36235e-15 0)
(3 1.50272e-15 0)
(3 4.66543e-14 0)
(3 2.37616e-11 0)
(3 5.42978e-09 0)
(3 7.69366e-07 0)
(2.99997 6.88314e-05 0)
(2.99877 0.00242614 0)
(2.97803 0.0385199 0)
(2.85659 0.231338 0)
(2.63895 0.604319 0)
(2.51016 0.78266 0)
(2.43799 0.773446 0)
(2.41033 0.806125 0)
(2.39605 0.844992 0)
(2.37126 0.894575 0)
(2.36143 0.897586 0)
(2.3648 0.880528 0)
(2.38963 0.84106 0)
(2.398 0.820204 0)
(2.40484 0.821484 0)
(2.40677 0.832372 0)
(2.40448 0.840476 0)
(2.40347 0.838211 0)
(2.40793 0.830423 0)
(2.4152 0.822296 0)
(2.41842 0.813186 0)
(2.41977 0.810905 0)
(2.42039 0.811742 0)
(2.42086 0.807827 0)
(2.42663 0.80679 0)
(2.43389 0.803623 0)
(2.43968 0.797579 0)
(2.44304 0.795536 0)
(2.44418 0.796017 0)
(2.44383 0.794112 0)
(2.44345 0.788216 0)
(2.44647 0.780219 0)
(2.45302 0.776725 0)
(2.46119 0.774536 0)
(2.46731 0.773362 0)
(2.47132 0.774395 0)
(2.47369 0.774726 0)
(2.47579 0.772292 0)
(2.47804 0.765063 0)
(2.47736 0.754138 0)
(2.47389 0.741898 0)
(2.47329 0.734647 0)
(2.47599 0.733513 0)
(2.47914 0.734865 0)
(2.48621 0.737072 0)
(2.49682 0.741636 0)
(2.50584 0.744562 0)
(2.51001 0.743956 0)
(3 8.22946e-17 0)
(3 -4.69743e-16 0)
(3 -5.25911e-16 0)
(3 -2.09041e-16 0)
(3 4.20807e-16 0)
(3 4.91172e-16 0)
(3 4.34911e-16 0)
(3 -3.91315e-16 0)
(3 -1.17396e-15 0)
(3 -1.63024e-15 0)
(3 -1.35701e-15 0)
(3 -1.75626e-16 0)
(3 8.28808e-16 0)
(3 9.40838e-16 0)
(3 8.72035e-16 0)
(3 3.77241e-16 0)
(3 -9.51271e-16 0)
(3 -1.55168e-15 0)
(3 -1.3541e-15 0)
(3 -1.16564e-15 0)
(3 6.67933e-17 0)
(3 1.31144e-15 0)
(3 1.8192e-15 0)
(3 1.62298e-15 0)
(3 1.60504e-15 0)
(3 2.2318e-15 0)
(3 2.92138e-15 0)
(3 1.99755e-15 0)
(3 2.45136e-16 0)
(3 -8.74138e-16 0)
(3 -3.85156e-16 0)
(3 1.77401e-16 0)
(3 6.25046e-16 0)
(3 1.1832e-15 0)
(3 1.57499e-15 0)
(3 1.77074e-15 0)
(3 2.13983e-15 0)
(3 2.4396e-15 0)
(3 2.23786e-15 0)
(3 1.15933e-15 0)
(3 8.81612e-16 0)
(3 1.06216e-15 0)
(3 1.09159e-15 0)
(3 9.96399e-16 0)
(3 6.51417e-16 0)
(3 4.90153e-16 0)
(3 2.52988e-16 0)
(3 2.07383e-16 0)
(3 9.82217e-17 0)
(3 2.15789e-16 0)
(3 3.69468e-16 0)
(3 5.87117e-16 0)
(3 -1.29979e-17 0)
(3 -4.24698e-16 0)
(3 -5.97392e-16 0)
(3 -8.74382e-16 0)
(3 -6.48468e-16 0)
(3 -3.15328e-17 0)
(3 6.77159e-16 0)
(3 1.36803e-15 0)
(3 2.21807e-15 0)
(3 2.07862e-15 0)
(3 1.0813e-15 0)
(3 6.68376e-16 0)
(3 5.84254e-17 0)
(3 2.81645e-17 0)
(3 4.87073e-16 0)
(3 3.74086e-16 0)
(3 8.76301e-16 0)
(3 9.23925e-16 0)
(3 3.83768e-16 0)
(3 2.92824e-16 0)
(3 9.90827e-16 0)
(3 2.43642e-15 0)
(3 2.38926e-15 0)
(3 2.13117e-15 0)
(3 2.38434e-15 0)
(3 2.85234e-15 0)
(3 3.1647e-15 0)
(3 3.00924e-15 0)
(3 3.23018e-15 0)
(3 3.41193e-15 0)
(3 1.16728e-15 0)
(3 -2.32579e-17 0)
(3 5.14836e-16 0)
(3 5.94672e-16 0)
(3 4.5451e-16 0)
(3 2.48925e-16 0)
(3 6.2205e-16 0)
(3 6.24851e-16 0)
(3 -4.22639e-16 0)
(3 -1.11856e-15 0)
(3 -1.20469e-15 0)
(3 -8.96812e-16 0)
(3 -1.73834e-15 0)
(3 -2.49614e-15 0)
(3 -2.32707e-15 0)
(3 -1.69409e-15 0)
(3 -1.23042e-15 0)
(3 -1.07563e-15 0)
(3 -3.61729e-16 0)
(3 -1.29306e-16 0)
(3 1.29256e-17 0)
(3 -8.73114e-16 0)
(3 -1.16046e-15 0)
(3 -7.13241e-16 0)
(3 -2.00254e-16 0)
(3 3.41636e-16 0)
(3 1.12453e-15 0)
(3 2.14167e-15 0)
(3 2.59136e-15 0)
(3 2.47831e-15 0)
(3 1.95981e-15 0)
(3 1.22726e-15 0)
(3 2.22755e-16 0)
(3 8.28213e-17 0)
(3 3.58681e-16 0)
(3 1.17173e-15 0)
(3 1.47738e-15 0)
(3 1.70533e-15 0)
(3 1.65163e-15 0)
(3 2.02028e-15 0)
(3 1.52199e-15 0)
(3 9.18591e-16 0)
(3 9.76881e-16 0)
(3 3.63374e-15 0)
(3 5.08579e-13 0)
(3 4.7631e-10 0)
(3 1.61696e-07 0)
(2.99999 2.24915e-05 0)
(2.99944 0.00109198 0)
(2.98817 0.0245477 0)
(2.92098 0.155447 0)
(2.76951 0.418871 0)
(2.58928 0.629947 0)
(2.4339 0.767636 0)
(2.37482 0.859327 0)
(2.3641 0.910848 0)
(2.35912 0.902046 0)