/*--------------------------------*- C++ -*----------------------------------*\
  =========                 |
  \\      /  F ield         | OpenFOAM: The Open Source CFD Toolbox
   \\    /   O peration     | Website:  https://openfoam.org
    \\  /    A nd           | Version:  7
     \\/     M anipulation  |
\*---------------------------------------------------------------------------*/
FoamFile
{
    version     2.0;
    format      ascii;
    class       volScalarField;
    location    "3.8";
    object      rho;
}
// * * * * * * * * * * * * * * * * * * * * * * * * * * * * * * * * * * * * * //

dimensions      [1 -3 0 0 0 0 0];

internalField   nonuniform List<scalar> 
16512
(
1.40001
1.40001
1.40001
1.40001
1.40001
1.40001
1.40001
1.40001
1.40001
1.40001
1.40001
1.40001
1.40001
1.40001
1.40002
1.40238
1.46025
1.94418
3.3028
3.77216
3.84846
3.87251
3.8948
3.88665
3.82001
3.76979
3.74804
3.7226
3.68223
3.65963
3.65704
3.65945
3.63507
3.6073
3.58386
3.55023
3.50492
3.4833
3.47984
3.46753
3.45125
3.42965
3.39739
3.35598
3.31597
3.29494
3.29017
3.27905
3.27048
3.26599
3.25483
3.22372
3.17906
3.13157
3.10483
3.09875
3.09249
3.08369
3.07927
3.06973
3.04212
2.99986
2.96059
2.94544
2.93526
2.92096
2.90434
2.89129
2.87838
2.85881
2.83018
2.81479
2.81019
2.79955
2.77797
2.74942
2.71747
2.70343
2.69715
2.6868
2.67234
2.66635
2.6605
2.64007
2.61303
2.59328
2.58674
2.58039
2.57108
2.55348
2.52572
2.49856
2.48445
2.48051
2.47528
2.46666
2.4581
2.4428
2.41791
2.39268
2.37833
2.37623
2.37793
2.37389
2.36108
2.33688
2.30625
2.283
2.27674
2.27511
2.27439
2.27111
2.26438
2.24378
2.215
2.20092
2.1969
2.19157
2.18523
2.17599
2.15713
2.13453
2.12514
2.12302
2.12037
2.11581
2.10802
2.09089
2.06672
2.05484
2.05268
2.0499
2.0458
2.04009
2.02851
2.00908
1.99408
1.98795
1.98256
1.9766
1.96859
1.95381
1.93533
1.92901
1.92769
1.92558
1.92226
1.91653
1.90151
1.88144
1.87445
1.87056
1.86316
1.85508
1.86196
2.02616
2.8368
3.37106
3.50126
3.49422
1.40001
1.40001
1.40001
1.40001
1.40001
1.40001
1.40001
1.40001
1.40001
1.40001
1.40001
1.40001
1.40001
1.40001
1.40001
1.40001
1.40001
1.40001
1.40001
1.40001
1.40001
1.40001
1.40001
1.40001
1.40001
1.40001
1.40001
1.40001
1.40001
1.40001
1.40001
1.40001
1.40111
1.44775
2.07003
3.30106
3.71662
3.88292
3.92745
3.87728
3.82064
3.79503
3.76416
3.7179
3.69508
3.69204
3.70434
3.68677
3.65184
3.62478
3.59566
3.55493
3.51988
3.51509
3.50799
3.48998
3.4682
3.43898
3.40028
3.35886
3.33504
3.32982
3.32292
3.31385
3.30842
3.29508
3.26158
3.21663
3.17085
3.14212
3.13277
3.12979
3.12399
3.11698
3.10554
3.07811
3.04071
2.99982
2.97681
2.96859
2.95801
2.94394
2.92854
2.91339
2.89467
2.86839
2.84523
2.83776
2.8321
2.81566
2.79012
2.75847
2.73764
2.72953
2.71844
2.70059
2.68801
2.68649
2.67541
2.65044
2.62887
2.62112
2.61407
2.60254
2.58312
2.55454
2.52884
2.5168
2.51385
2.50696
2.49637
2.48565
2.46819
2.44427
2.42061
2.40711
2.40551
2.40848
2.40472
2.39058
2.3651
2.33385
2.31026
2.30357
2.30213
2.30189
2.29871
2.29215
2.27278
2.24355
2.22747
2.22326
2.21801
2.21157
2.20255
2.1839
2.16031
2.14892
2.14697
2.14485
2.1403
2.13287
2.11718
2.0926
2.07723
2.07452
2.07208
2.06838
2.06333
2.05316
2.03425
2.01807
2.01094
2.00507
1.99878
1.99103
1.9776
1.95836
1.94963
1.94859
1.94707
1.94384
1.93875
1.92565
1.90386
1.89341
1.8909
1.88693
1.87984
1.86702
1.85718
1.87494
2.20891
3.03379
3.43696
3.50423
1.40001
1.40001
1.40001
1.40001
1.40001
1.40001
1.40001
1.40001
1.40001
1.40001
1.40001
1.40001
1.40001
1.40001
1.40001
1.40001
1.40001
1.40001
1.40001
1.40001
1.40001
1.40001
1.40001
1.40001
1.40001
1.40001
1.40001
1.40001
1.40001
1.40001
1.40001
1.40001
1.40001
1.40119
1.47235
2.21333
3.20379
3.77832
3.94144
3.89919
3.85493
3.80952
3.75813
3.73232
3.72796
3.74532
3.73498
3.69745
3.66327
3.63725
3.60349
3.56222
3.54877
3.54773
3.53062
3.50614
3.4792
3.44396
3.40263
3.37789
3.37152
3.36628
3.35752
3.35066
3.33359
3.29826
3.25222
3.20919
3.18135
3.17054
3.16693
3.16276
3.15682
3.14231
3.11046
3.07487
3.04026
3.01264
3.00189
2.99482
2.98523
2.97087
2.95222
2.92942
2.90567
2.88004
2.86658
2.86138
2.85183
2.83105
2.80213
2.77448
2.76168
2.7504
2.73394
2.71362
2.70779
2.70557
2.68783
2.66401
2.65253
2.64447
2.63207
2.61328
2.58566
2.55996
2.55059
2.54816
2.53879
2.52606
2.51291
2.49378
2.4706
2.44799
2.43575
2.43504
2.43921
2.43513
2.41917
2.39263
2.36132
2.33784
2.33099
2.32973
2.33016
2.32722
2.32049
2.30146
2.27212
2.25425
2.24988
2.24515
2.23871
2.22985
2.21135
2.18665
2.17292
2.17086
2.16956
2.16531
2.15809
2.14359
2.11914
2.10034
2.09669
2.09446
2.09108
2.08668
2.07789
2.05926
2.04204
2.03422
2.02799
2.02129
2.01356
2.0015
1.98221
1.97042
1.96922
1.96858
1.96575
1.96108
1.94988
1.92783
1.91367
1.91077
1.90702
1.90165
1.89411
1.87843
1.86054
1.8614
1.92183
2.42006
3.15621
3.49603
1.40001
1.40001
1.40001
1.40001
1.40001
1.40001
1.40001
1.40001
1.40001
1.40001
1.40001
1.40001
1.40001
1.40001
1.40001
1.40001
1.40001
1.40001
1.40001
1.40001
1.40001
1.40001
1.40001
1.40001
1.40001
1.40001
1.40001
1.40001
1.40001
1.40001
1.40001
1.40001
1.40001
1.40001
1.40218
1.50924
2.15138
3.09784
3.86864
3.92439
3.86699
3.80177
3.77523
3.7696
3.78763
3.78142
3.73779
3.69662
3.67643
3.64968
3.60834
3.58413
3.5851
3.57328
3.5458
3.51864
3.48687
3.44675
3.4213
3.4153
3.40978
3.39968
3.39097
3.37065
3.33369
3.28659
3.24623
3.22103
3.21021
3.20648
3.20278
3.19639
3.18261
3.14714
3.10389
3.0753
3.05113
3.03762
3.03016
3.02462
3.01554
2.99698
2.96596
2.93964
2.91765
2.89913
2.89035
2.88508
2.87076
2.84667
2.81583
2.79424
2.78187
2.76848
2.74692
2.73144
2.72934
2.72077
2.69908
2.68273
2.67422
2.66248
2.64473
2.61853
2.59201
2.58302
2.58228
2.57155
2.55605
2.54112
2.52099
2.4976
2.47569
2.46532
2.46568
2.47066
2.46539
2.44695
2.41934
2.38845
2.36553
2.35881
2.35766
2.3587
2.35607
2.34901
2.3299
2.30066
2.28145
2.27668
2.27265
2.26653
2.25782
2.23941
2.21372
2.1976
2.19499
2.19427
2.19073
2.18382
2.17029
2.1461
2.12432
2.1192
2.11723
2.1142
2.11029
2.103
2.08436
2.06565
2.05764
2.0513
2.04424
2.0364
2.02536
2.00671
1.99171
1.98969
1.98964
1.98776
1.98348
1.9743
1.95283
1.93474
1.93087
1.92753
1.92237
1.91515
1.90378
1.88541
1.87313
1.87073
1.87783
1.99924
2.54783
3.3086
1.40001
1.40001
1.40001
1.40001
1.40001
1.40001
1.40001
1.40001
1.40001
1.40001
1.40001
1.40001
1.40001
1.40001
1.40001
1.40001
1.40001
1.40001
1.40001
1.40001
1.40001
1.40001
1.40001
1.40001
1.40001
1.40001
1.40001
1.40001
1.40001
1.40001
1.40001
1.40001
1.40001
1.40001
1.40002
1.40323
1.4853
1.94171
3.13733
3.85146
3.82253
3.81399
3.81378
3.8282
3.82619
3.77375
3.72858
3.71038
3.6933
3.65324
3.62031
3.61703
3.61387
3.58782
3.55718
3.52974
3.49253
3.46354
3.45651
3.4523
3.44007
3.4285
3.40714
3.36932
3.32167
3.28336
3.26047
3.25066
3.2475
3.24367
3.23693
3.22163
3.18695
3.13704
3.10456
3.088
3.07597
3.06754
3.0621
3.05613
3.03952
3.0047
2.97219
2.95287
2.93549
2.92287
2.91659
2.90977
2.89151
2.86278
2.82935
2.81174
2.80022
2.7845
2.76235
2.75358
2.7497
2.73398
2.71334
2.7009
2.68973
2.67495
2.65282
2.62555
2.61486
2.61425
2.60509
2.58741
2.56991
2.54876
2.52553
2.50513
2.49675
2.49727
2.50249
2.49616
2.47539
2.44616
2.41531
2.39335
2.38702
2.386
2.38718
2.38464
2.37694
2.35755
2.3289
2.30897
2.30376
2.30042
2.29474
2.28638
2.26791
2.24136
2.22309
2.21965
2.21914
2.21653
2.21003
2.19747
2.17369
2.14935
2.14203
2.14023
2.13766
2.13404
2.12765
2.10977
2.08897
2.08076
2.07476
2.06761
2.05962
2.04922
2.03158
2.01386
2.01029
2.01016
2.00956
2.00583
1.99826
1.97876
1.95696
1.95111
1.94799
1.94331
1.93677
1.92592
1.90845
1.89563
1.89283
1.89062
1.88847
1.89955
2.0586
2.74063
1.40001
1.40001
1.40001
1.40001
1.40001
1.40001
1.40001
1.40001
1.40001
1.40001
1.40001
1.40001
1.40001
1.40001
1.40001
1.40001
1.40001
1.40001
1.40001
1.40001
1.40001
1.40001
1.40001
1.40001
1.40001
1.40001
1.40001
1.40001
1.40001
1.40001
1.40001
1.40001
1.40001
1.40001
1.40001
1.40002
1.40168
1.44442
1.92654
3.23996
3.67096
3.80667
3.8462
3.86397
3.81221
3.76632
3.74821
3.73526
3.69381
3.65967
3.65113
3.65538
3.63338
3.59597
3.56921
3.54088
3.50602
3.49349
3.49112
3.47987
3.46638
3.44553
3.40723
3.35934
3.32107
3.30033
3.29207
3.28921
3.28476
3.2777
3.26131
3.22493
3.17376
3.13664
3.12086
3.11272
3.10644
3.10046
3.09487
3.08016
3.04653
3.00569
2.98441
2.9719
2.95804
2.94883
2.94445
2.93421
2.9107
2.8715
2.84218
2.83057
2.81933
2.80046
2.78321
2.77712
2.76664
2.74687
2.72998
2.71694
2.70241
2.68526
2.66084
2.64636
2.64462
2.63794
2.62019
2.59994
2.57708
2.55371
2.53578
2.53002
2.53018
2.53378
2.52706
2.50531
2.47471
2.44343
2.42155
2.41569
2.41493
2.41592
2.41264
2.40324
2.38337
2.35645
2.33674
2.33113
2.32824
2.32323
2.31528
2.29673
2.26956
2.24912
2.24479
2.2443
2.2428
2.23671
2.225
2.20164
2.17559
2.16538
2.16362
2.16149
2.15808
2.15237
2.13538
2.11276
2.10326
2.09806
2.09114
2.08322
2.07333
2.05674
2.03709
2.031
2.03066
2.03094
2.02804
2.02151
2.00497
1.98083
1.9716
1.96853
1.96412
1.95825
1.94888
1.93184
1.91616
1.91327
1.91258
1.91127
1.90555
1.89743
1.9124
2.15757
1.40001
1.40001
1.40001
1.40001
1.40001
1.40001
1.40001
1.40001
1.40001
1.40001
1.40001
1.40001
1.40001
1.40001
1.40001
1.40001
1.40001
1.40001
1.40001
1.40001
1.40001
1.40001
1.40001
1.40001
1.40001
1.40001
1.40001
1.40001
1.40001
1.40001
1.40001
1.40001
1.40001
1.40001
1.40001
1.40001
1.40001
1.40087
1.44667
2.06269
3.1797
3.66035
3.87804
3.8744
3.82379
3.80136
3.77921
3.73114
3.6971
3.68606
3.69805
3.68298
3.64125
3.60628
3.58668
3.5555
3.53084
3.52712
3.5204
3.50368
3.4826
3.44715
3.40118
3.3602
3.34132
3.33454
3.33078
3.32513
3.31803
3.30141
3.26373
3.21107
3.17254
3.15442
3.14727
3.14345
3.13937
3.13253
3.11851
3.08729
3.04283
3.01379
3.0049
2.99497
2.98417
2.97779
2.97161
2.95244
2.91618
2.87631
2.85987
2.85171
2.83946
2.82006
2.80759
2.79833
2.78139
2.76065
2.74471
2.72936
2.71422
2.69789
2.68018
2.67403
2.66902
2.65323
2.63183
2.60733
2.58234
2.56603
2.56251
2.56302
2.56434
2.55639
2.53647
2.50516
2.47261
2.45104
2.4455
2.44481
2.44504
2.44038
2.42803
2.40741
2.38266
2.36439
2.35869
2.35615
2.35166
2.34401
2.32533
2.29783
2.27579
2.27036
2.2695
2.26946
2.26395
2.25287
2.22987
2.2024
2.18944
2.18753
2.18576
2.18264
2.17743
2.16161
2.13737
2.12538
2.12101
2.11467
2.10703
2.09765
2.08217
2.06143
2.05224
2.05158
2.05205
2.05
2.04445
2.03061
2.00633
1.99265
1.98924
1.985
1.97957
1.97143
1.95609
1.93817
1.93318
1.93223
1.93169
1.92879
1.92215
1.90419
1.89495
1.93242
1.40001
1.40001
1.40001
1.40001
1.40001
1.40001
1.40001
1.40001
1.40001
1.40001
1.40001
1.40001
1.40001
1.40001
1.40001
1.40001
1.40001
1.40001
1.40001
1.40001
1.40001
1.40001
1.40001
1.40001
1.40001
1.40001
1.40001
1.40001
1.40001
1.40001
1.40001
1.40001
1.40001
1.40001
1.40001
1.40001
1.40001
1.40001
1.40122
1.47378
2.12957
3.04636
3.73374
3.89319
3.86591
3.81947
3.76658
3.73378
3.72244
3.73859
3.72893
3.68607
3.64249
3.62735
3.60478
3.57083
3.55973
3.55994
3.54358
3.51852
3.48585
3.44435
3.40192
3.3832
3.37746
3.37165
3.36462
3.35741
3.34083
3.30385
3.25004
3.21141
3.19146
3.18348
3.17926
3.17639
3.17035
3.15589
3.12534
3.08068
3.04541
3.03527
3.02953
3.02249
3.01421
3.00697
2.99017
2.95863
2.91849
2.88884
2.88244
2.87364
2.86063
2.84405
2.83142
2.8163
2.79509
2.77445
2.75753
2.74142
2.72905
2.71665
2.70511
2.69861
2.68585
2.66512
2.64014
2.61383
2.59599
2.59315
2.59377
2.59367
2.58471
2.56514
2.53687
2.50501
2.48156
2.4769
2.47562
2.47381
2.46712
2.45106
2.4301
2.40806
2.39217
2.38658
2.38393
2.37976
2.37228
2.35327
2.32552
2.30264
2.29607
2.29512
2.29628
2.29154
2.28084
2.25813
2.22982
2.21445
2.21202
2.2106
2.2077
2.20315
2.18845
2.16301
2.14791
2.14355
2.13813
2.13093
2.12206
2.10786
2.08657
2.07416
2.07303
2.07349
2.07214
2.06739
2.05539
2.03243
2.01472
2.01023
2.00607
2.00093
1.99372
1.9803
1.96125
1.95354
1.95217
1.95145
1.94911
1.94379
1.93281
1.91176
1.89718
1.89982
1.40001
1.40001
1.40001
1.40001
1.40001
1.40001
1.40001
1.40001
1.40001
1.40001
1.40001
1.40001
1.40001
1.40001
1.40001
1.40001
1.40001
1.40001
1.40001
1.40001
1.40001
1.40001
1.40001
1.40001
1.40001
1.40001
1.40001
1.40001
1.40001
1.40001
1.40001
1.40001
1.40001
1.40001
1.40001
1.40001
1.40001
1.40001
1.40002
1.40216
1.48601
1.9637
2.91616
3.81709
3.86292
3.79863
3.76887
3.76158
3.78093
3.77222
3.72164
3.68012
3.66374
3.64808
3.61262
3.59219
3.59355
3.58559
3.55815
3.52634
3.48852
3.44393
3.42147
3.4177
3.41067
3.40156
3.39461
3.37932
3.34409
3.29069
3.25122
3.23161
3.22179
3.21594
3.21198
3.20689
3.19336
3.16209
3.11802
3.08087
3.06723
3.06231
3.06064
3.05395
3.04247
3.02349
2.99571
2.95917
2.92372
2.91267
2.90663
2.89715
2.88561
2.86978
2.85158
2.83105
2.80782
2.78762
2.77053
2.75768
2.7493
2.73813
2.72722
2.7171
2.6989
2.67371
2.64667
2.62815
2.62263
2.62183
2.62067
2.6122
2.59434
2.56895
2.53977
2.51498
2.50925
2.50709
2.50253
2.49183
2.4731
2.45294
2.43373
2.42057
2.41532
2.41229
2.40802
2.40042
2.38027
2.35232
2.32917
2.32187
2.32087
2.32334
2.31947
2.30869
2.28582
2.25702
2.23996
2.23699
2.23594
2.23336
2.22927
2.21605
2.18985
2.17135
2.16638
2.16154
2.15495
2.14663
2.13361
2.1123
2.09686
2.09493
2.09523
2.09436
2.09019
2.07948
2.05792
2.038
2.03168
2.02736
2.02236
2.0159
2.00443
1.98524
1.97401
1.97218
1.97135
1.96921
1.96464
1.95467
1.93652
1.92153
1.91126
1.90561
1.40001
1.40001
1.40001
1.40001
1.40001
1.40001
1.40001
1.40001
1.40001
1.40001
1.40001
1.40001
1.40001
1.40001
1.40001
1.40001
1.40001
1.40001
1.40001
1.40001
1.40001
1.40001
1.40001
1.40001
1.40001
1.40001
1.40001
1.40001
1.40001
1.40001
1.40001
1.40001
1.40001
1.40001
1.40001
1.40001
1.40001
1.40001
1.40001
1.40002
1.40194
1.44684
1.80268
3.03169
3.71779
3.75012
3.78717
3.81453
3.81389
3.75429
3.71813
3.70456
3.69249
3.65247
3.62645
3.62536
3.62836
3.60193
3.56456
3.53176
3.4918
3.45786
3.45144
3.44945
3.43717
3.42949
3.41545
3.383
3.33409
3.29154
3.27494
3.26273
3.25306
3.2471
3.24135
3.22869
3.19805
3.15513
3.11972
3.10339
3.09798
3.09573
3.09266
3.0813
3.05524
3.02624
2.99368
2.96008
2.94251
2.93844
2.93175
2.92324
2.91177
2.88968
2.86579
2.84321
2.82047
2.80139
2.78744
2.77945
2.77155
2.75769
2.74621
2.73178
2.70901
2.67931
2.66128
2.65265
2.64764
2.64428
2.63772
2.62441
2.60256
2.57608
2.5509
2.54225
2.53829
2.53037
2.51619
2.49629
2.47645
2.46006
2.45069
2.44584
2.44179
2.43681
2.42795
2.40623
2.3783
2.35541
2.34786
2.34693
2.35042
2.3472
2.33599
2.3125
2.28342
2.26533
2.26206
2.26161
2.2595
2.25554
2.24367
2.21739
2.19589
2.18996
2.18535
2.17916
2.17135
2.15925
2.13844
2.1203
2.11726
2.11723
2.11679
2.11297
2.10337
2.08251
2.06163
2.05374
2.04919
2.04403
2.038
2.02831
2.01002
1.99511
1.99221
1.99092
1.98923
1.98517
1.97672
1.95903
1.94193
1.93606
1.93059
1.92171
1.40001
1.40001
1.40001
1.40001
1.40001
1.40001
1.40001
1.40001
1.40001
1.40001
1.40001
1.40001
1.40001
1.40001
1.40001
1.40001
1.40001
1.40001
1.40001
1.40001
1.40001
1.40001
1.40001
1.40001
1.40001
1.40001
1.40001
1.40001
1.40001
1.40001
1.40001
1.40001
1.40001
1.40001
1.40001
1.40001
1.40001
1.40001
1.40001
1.40001
1.40001
1.40072
1.42888
1.86058
3.06681
3.56489
3.78199
3.85598
3.81582
3.76791
3.75616
3.73684
3.68872
3.66048
3.65736
3.66862
3.6457
3.60278
3.56887
3.53975
3.50154
3.48512
3.48478
3.47662
3.46256
3.44568
3.41692
3.37497
3.3334
3.31564
3.30595
3.29287
3.28447
3.27652
3.26269
3.23232
3.19168
3.15948
3.14341
3.13663
3.13229
3.12816
3.11793
3.09064
3.05435
3.02409
2.99508
2.97352
2.96892
2.96557
2.95964
2.95016
2.92741
2.8987
2.87669
2.85557
2.83463
2.81856
2.80975
2.8032
2.79242
2.77524
2.7616
2.74329
2.71476
2.69106
2.68472
2.67562
2.66745
2.65976
2.65228
2.63713
2.61329
2.58841
2.57544
2.56826
2.55693
2.5411
2.52092
2.50142
2.48829
2.48277
2.47783
2.47195
2.46645
2.45494
2.4312
2.4037
2.38204
2.37465
2.3739
2.37772
2.37436
2.36214
2.33796
2.30864
2.29044
2.28695
2.28729
2.286
2.28201
2.27105
2.2454
2.22136
2.21427
2.20987
2.20397
2.19646
2.18487
2.16431
2.14445
2.13979
2.1395
2.13939
2.13588
2.12722
2.10702
2.08508
2.07596
2.07155
2.06631
2.06036
2.05187
2.03519
2.01736
2.01278
2.01077
2.00884
2.00525
1.99823
1.98209
1.9634
1.95623
1.95258
1.94797
1.93987
1.40001
1.40001
1.40001
1.40001
1.40001
1.40001
1.40001
1.40001
1.40001
1.40001
1.40001
1.40001
1.40001
1.40001
1.40001
1.40001
1.40001
1.40001
1.40001
1.40001
1.40001
1.40001
1.40001
1.40001
1.40001
1.40001
1.40001
1.40001
1.40001
1.40001
1.40001
1.40001
1.40001
1.40001
1.40001
1.40001
1.40001
1.40001
1.40001
1.40001
1.40001
1.40001
1.40059
1.43696
1.96094
2.96109
3.59076
3.85713
3.84661
3.81377
3.77128
3.7212
3.69414
3.68891
3.70598
3.68934
3.64457
3.602
3.58109
3.55181
3.5228
3.51742
3.51682
3.50076
3.481
3.45233
3.4142
3.37344
3.35421
3.34528
3.33113
3.32212
3.31451
3.30009
3.26889
3.22851
3.19929
3.18528
3.17704
3.1702
3.16417
3.15042
3.12389
3.08612
3.05263
3.02897
3.00846
3.00219
2.99946
2.99616
2.98793
2.96606
2.93142
2.90606
2.88821
2.86944
2.8516
2.84079
2.83435
2.82751
2.81281
2.79125
2.77375
2.75039
2.72088
2.71219
2.70592
2.69449
2.68401
2.6766
2.66925
2.65083
2.62591
2.60871
2.59796
2.58381
2.56628
2.54596
2.52754
2.5179
2.51615
2.51039
2.50316
2.49603
2.48089
2.45614
2.42961
2.40944
2.40293
2.40254
2.4056
2.40099
2.38709
2.36216
2.33333
2.31524
2.31149
2.31253
2.31268
2.30861
2.29791
2.27301
2.24751
2.23902
2.23491
2.2295
2.2223
2.21069
2.19004
2.16898
2.16254
2.16208
2.16213
2.15893
2.15143
2.13208
2.10867
2.09825
2.0941
2.08905
2.08327
2.07558
2.06049
2.04073
2.03385
2.03142
2.02888
2.02517
2.01903
2.00497
1.98528
1.97715
1.97384
1.96922
1.96349
1.95414
1.40001
1.40001
1.40001
1.40001
1.40001
1.40001
1.40001
1.40001
1.40001
1.40001
1.40001
1.40001
1.40001
1.40001
1.40001
1.40001
1.40001
1.40001
1.40001
1.40001
1.40001
1.40001
1.40001
1.40001
1.40001
1.40001
1.40001
1.40001
1.40001
1.40001
1.40001
1.40001
1.40001
1.40001
1.40001
1.40001
1.40001
1.40001
1.40001
1.40001
1.40001
1.40001
1.40001
1.40087
1.45445
1.91858
2.7659
3.66485
3.84639
3.80218
3.74908
3.7302
3.72548
3.74364
3.72621
3.67834
3.63835
3.62134
3.59719
3.56332
3.55191
3.55483
3.54341
3.51953
3.49265
3.45699
3.4142
3.39114
3.38333
3.36796
3.35577
3.34887
3.33646
3.30722
3.26944
3.24022
3.22922
3.21972
3.2089
3.1987
3.18099
3.15336
3.11833
3.08324
3.06166
3.04676
3.03966
3.03639
3.0335
3.02507
3.00143
2.96641
2.93431
2.91609
2.90197
2.88545
2.87307
2.86612
2.86001
2.85234
2.83208
2.80371
2.78191
2.7564
2.73789
2.73228
2.72253
2.712
2.70248
2.69757
2.68643
2.66427
2.64297
2.62817
2.61146
2.5922
2.57136
2.55421
2.54695
2.5483
2.54273
2.53285
2.5232
2.50606
2.48172
2.45639
2.43755
2.43222
2.43293
2.4343
2.42745
2.41093
2.38524
2.35772
2.34011
2.33624
2.3377
2.33924
2.33505
2.32391
2.29998
2.27419
2.26409
2.26034
2.25555
2.24874
2.23687
2.21566
2.19367
2.1854
2.18476
2.18514
2.18226
2.17554
2.1582
2.133
2.12042
2.11679
2.1121
2.10664
2.09973
2.08629
2.06508
2.05517
2.05264
2.04967
2.04556
2.03965
2.02739
2.00776
1.99751
1.99497
1.99102
1.98522
1.97657
1.96114
1.40001
1.40001
1.40001
1.40001
1.40001
1.40001
1.40001
1.40001
1.40001
1.40001
1.40001
1.40001
1.40001
1.40001
1.40001
1.40001
1.40001
1.40001
1.40001
1.40001
1.40001
1.40001
1.40001
1.40001
1.40001
1.40001
1.40001
1.40001
1.40001
1.40001
1.40001
1.40001
1.40001
1.40001
1.40001
1.40001
1.40001
1.40001
1.40001
1.40001
1.40001
1.40001
1.40001
1.40001
1.40122
1.44146
1.73207
2.69311
3.69584
3.73563
3.75401
3.7652
3.78024
3.75792
3.70466
3.67637
3.66227
3.64284
3.60266
3.58461
3.58839
3.58821
3.5618
3.53219
3.50099
3.45958
3.42483
3.41733
3.4076
3.39119
3.38239
3.36889
3.34211
3.30806
3.283
3.27353
3.26305
3.24905
3.23503
3.21401
3.18425
3.14964
3.11713
3.09522
3.08549
3.07924
3.07542
3.07139
3.06104
3.03494
2.99864
2.96682
2.94532
2.93098
2.91717
2.90555
2.89848
2.89268
2.88698
2.87431
2.84294
2.81204
2.78913
2.76792
2.75589
2.74797
2.73975
2.73148
2.72544
2.71878
2.70209
2.6786
2.66008
2.64152
2.61988
2.59766
2.58131
2.57508
2.57757
2.57343
2.56131
2.54962
2.53298
2.50955
2.48426
2.46633
2.46183
2.46376
2.46292
2.45365
2.4342
2.40839
2.38256
2.36565
2.36187
2.36373
2.36599
2.36122
2.34886
2.32575
2.30089
2.28965
2.2861
2.28182
2.27555
2.26329
2.24138
2.21839
2.2085
2.20761
2.20832
2.20594
2.19987
2.18417
2.15852
2.14283
2.13923
2.1353
2.13032
2.12432
2.11276
2.09066
2.07675
2.07378
2.07089
2.06657
2.06065
2.04984
2.03062
2.01796
2.01559
2.01233
2.00721
1.99926
1.98348
1.96448
1.40001
1.40001
1.40001
1.40001
1.40001
1.40001
1.40001
1.40001
1.40001
1.40001
1.40001
1.40001
1.40001
1.40001
1.40001
1.40001
1.40001
1.40001
1.40001
1.40001
1.40001
1.40001
1.40001
1.40001
1.40001
1.40001
1.40001
1.40001
1.40001
1.40001
1.40001
1.40001
1.40001
1.40001
1.40001
1.40001
1.40001
1.40001
1.40001
1.40001
1.40001
1.40001
1.40001
1.40001
1.40001
1.40057
1.41864
1.67928
2.79953
3.51661
3.70296
3.80884
3.81291
3.75053
3.71751
3.70934
3.69173
3.64406
3.61821
3.61931
3.62664
3.60135
3.56587
3.53879
3.50878
3.46686
3.44915
3.44399
3.42872
3.41394
3.40276
3.38201
3.34835
3.32529
3.31638
3.30382
3.28821
3.27242
3.24872
3.21789
3.18364
3.15276
3.1321
3.12431
3.1205
3.11529
3.10972
3.09482
3.0661
3.03053
2.99677
2.9767
2.96343
2.94947
2.93665
2.93025
2.92537
2.92031
2.91238
2.88625
2.8471
2.81931
2.80063
2.78473
2.77215
2.76442
2.75852
2.75314
2.74786
2.73681
2.71587
2.69376
2.67461
2.65159
2.62591
2.6082
2.6021
2.60394
2.60234
2.58949
2.57564
2.56087
2.54006
2.51378
2.4949
2.49104
2.49339
2.49051
2.4787
2.45746
2.43229
2.40802
2.39223
2.38885
2.3913
2.39324
2.38702
2.37296
2.35069
2.32714
2.31571
2.31233
2.30829
2.30221
2.2894
2.26658
2.24308
2.23193
2.23062
2.23164
2.22991
2.22426
2.20999
2.1844
2.16569
2.1616
2.15847
2.15403
2.14878
2.13902
2.11715
2.09899
2.09487
2.09196
2.08774
2.08197
2.07233
2.05414
2.0391
2.03622
2.03351
2.02889
2.0218
2.00772
1.9862
1.97566
1.40001
1.40001
1.40001
1.40001
1.40001
1.40001
1.40001
1.40001
1.40001
1.40001
1.40001
1.40001
1.40001
1.40001
1.40001
1.40001
1.40001
1.40001
1.40001
1.40001
1.40001
1.40001
1.40001
1.40001
1.40001
1.40001
1.40001
1.40001
1.40001
1.40001
1.40001
1.40001
1.40001
1.40001
1.40001
1.40001
1.40001
1.40001
1.40001
1.40001
1.40001
1.40001
1.40001
1.40001
1.40001
1.40001
1.40025
1.41673
1.73793
2.79472
3.44826
3.77683
3.83148
3.7927
3.76783
3.73448
3.68294
3.65441
3.65324
3.66593
3.6413
3.60031
3.57169
3.54943
3.51582
3.4863
3.48014
3.47051
3.4499
3.43405
3.41702
3.39003
3.36602
3.35599
3.34035
3.32141
3.30289
3.27983
3.25158
3.21908
3.18979
3.17221
3.16532
3.16365
3.15816
3.15042
3.13005
3.09747
3.05847
3.02873
3.00694
2.99428
2.98347
2.97079
2.96235
2.95786
2.95359
2.94639
2.92582
2.88705
2.85049
2.83164
2.81803
2.80168
2.78997
2.78372
2.77946
2.77459
2.76688
2.75153
2.72793
2.70714
2.68608
2.65996
2.6363
2.62786
2.62735
2.62854
2.6183
2.6025
2.58837
2.57121
2.54653
2.52485
2.51984
2.52041
2.51598
2.50304
2.4813
2.45715
2.43387
2.4201
2.41735
2.42018
2.42083
2.41244
2.39647
2.37504
2.35299
2.34233
2.33915
2.33511
2.32886
2.31507
2.29138
2.26767
2.25571
2.25404
2.2553
2.25433
2.24897
2.23557
2.21035
2.18874
2.18371
2.18147
2.17775
2.17312
2.16495
2.14413
2.12225
2.11627
2.1131
2.10888
2.10337
2.09487
2.07827
2.06109
2.05715
2.05476
2.05054
2.04415
2.03178
2.01015
1.99559
1.99298
1.40001
1.40001
1.40001
1.40001
1.40001
1.40001
1.40001
1.40001
1.40001
1.40001
1.40001
1.40001
1.40001
1.40001
1.40001
1.40001
1.40001
1.40001
1.40001
1.40001
1.40001
1.40001
1.40001
1.40001
1.40001
1.40001
1.40001
1.40001
1.40001
1.40001
1.40001
1.40001
1.40001
1.40001
1.40001
1.40001
1.40001
1.40001
1.40001
1.40001
1.40001
1.40001
1.40001
1.40001
1.40001
1.40001
1.40001
1.4003
1.42297
1.78558
2.64975
3.43038
3.82642
3.82649
3.75964
3.71335
3.69255
3.69078
3.70873
3.68492
3.63319
3.59769
3.58716
3.56125
3.52904
3.51903
3.51487
3.49359
3.46998
3.45472
3.43208
3.40547
3.39216
3.37562
3.35389
3.33315
3.31011
3.28343
3.25486
3.22988
3.21635
3.21126
3.20759
3.19982
3.1892
3.16523
3.13104
3.08885
3.05616
3.0395
3.02698
3.01571
3.00585
2.9973
2.99222
2.98741
2.98058
2.96138
2.92344
2.88489
2.86129
2.84952
2.8369
2.8198
2.8103
2.80539
2.80063
2.79374
2.7824
2.76264
2.73982
2.71938
2.69733
2.67056
2.65425
2.64977
2.65066
2.64555
2.63156
2.61629
2.60182
2.58244
2.5592
2.55006
2.54608
2.53903
2.52599
2.50505
2.4818
2.46022
2.44942
2.44737
2.44986
2.44825
2.43719
2.41954
2.39889
2.37867
2.36966
2.36692
2.36266
2.35572
2.34015
2.31524
2.29155
2.27965
2.27774
2.27951
2.27949
2.27419
2.26106
2.23581
2.21222
2.2055
2.20394
2.20147
2.19742
2.1905
2.17122
2.1468
2.13806
2.1346
2.13019
2.12486
2.11729
2.10257
2.08421
2.0785
2.07632
2.07237
2.06648
2.05577
2.03475
2.01652
2.01285
2.01135
1.40001
1.40001
1.40001
1.40001
1.40001
1.40001
1.40001
1.40001
1.40001
1.40001
1.40001
1.40001
1.40001
1.40001
1.40001
1.40001
1.40001
1.40001
1.40001
1.40001
1.40001
1.40001
1.40001
1.40001
1.40001
1.40001
1.40001
1.40001
1.40001
1.40001
1.40001
1.40001
1.40001
1.40001
1.40001
1.40001
1.40001
1.40001
1.40001
1.40001
1.40001
1.40001
1.40001
1.40001
1.40001
1.40001
1.40001
1.40001
1.40044
1.42648
1.67942
2.39244
3.49699
3.76968
3.7195
3.72316
3.73289
3.75565
3.72981
3.66632
3.62837
3.61524
3.59325
3.5645
3.55316
3.55722
3.5454
3.5166
3.49449
3.47094
3.43868
3.41962
3.40837
3.39019
3.36798
3.34199
3.31314
3.2862
3.26825
3.2613
3.26002
3.25205
3.24137
3.22816
3.20376
3.16719
3.12234
3.08519
3.06701
3.05917
3.04974
3.0405
3.03329
3.02803
3.02316
3.01502
2.99592
2.95899
2.91546
2.89108
2.87977
2.86977
2.8567
2.84168
2.83385
2.82841
2.82128
2.81018
2.79266
2.77159
2.75176
2.73253
2.71042
2.68505
2.67369
2.67076
2.6691
2.66023
2.64606
2.63206
2.61716
2.59976
2.58461
2.57382
2.56123
2.54715
2.52843
2.50603
2.48751
2.4803
2.47857
2.4797
2.4753
2.46144
2.44258
2.42245
2.40465
2.39778
2.39558
2.3911
2.38305
2.36486
2.33816
2.31469
2.30343
2.30158
2.30425
2.30558
2.30025
2.28666
2.26107
2.23612
2.22735
2.22597
2.22496
2.22162
2.21567
2.19801
2.17232
2.16036
2.15663
2.152
2.14657
2.13962
2.1267
2.10811
2.1002
2.0981
2.09442
2.08892
2.07949
2.05981
2.0385
2.03279
2.03116
2.02923
1.40001
1.40001
1.40001
1.40001
1.40001
1.40001
1.40001
1.40001
1.40001
1.40001
1.40001
1.40001
1.40001
1.40001
1.40001
1.40001
1.40001
1.40001
1.40001
1.40001
1.40001
1.40001
1.40001
1.40001
1.40001
1.40001
1.40001
1.40001
1.40001
1.40001
1.40001
1.40001
1.40001
1.40001
1.40001
1.40001
1.40001
1.40001
1.40001
1.40001
1.40001
1.40001
1.40001
1.40001
1.40001
1.40001
1.40001
1.40001
1.40001
1.40035
1.41256
1.56169
2.37397
3.44282
3.61557
3.72318
3.78594
3.78665
3.71207
3.66443
3.65327
3.63854
3.60216
3.58801
3.59274
3.59442
3.56697
3.5358
3.51354
3.48154
3.44696
3.43593
3.42416
3.40327
3.37713
3.3461
3.31775
3.30344
3.29965
3.30058
3.292
3.28102
3.26833
3.2444
3.20828
3.16137
3.11979
3.09765
3.08932
3.08317
3.07612
3.06964
3.06426
3.05909
3.0499
3.02938
2.99281
2.94797
2.91974
2.90906
2.90053
2.89162
2.87993
2.86869
2.86092
2.85239
2.83886
2.81943
2.7998
2.78207
2.76553
2.7476
2.72398
2.70028
2.69202
2.68998
2.6857
2.67559
2.66319
2.65045
2.63745
2.62392
2.60665
2.58624
2.56904
2.55136
2.53188
2.51696
2.51204
2.51014
2.50879
2.50154
2.48523
2.4656
2.446
2.4312
2.42669
2.42514
2.42025
2.41062
2.38953
2.36048
2.3373
2.32716
2.32554
2.3294
2.3325
2.32735
2.31278
2.28615
2.2599
2.24969
2.24825
2.24809
2.24552
2.24057
2.22424
2.19818
2.18329
2.17926
2.17448
2.16888
2.16216
2.1505
2.13216
2.1221
2.12001
2.11659
2.11136
2.10298
2.08527
2.06187
2.05278
2.05106
2.04932
2.04633
1.40001
1.40001
1.40001
1.40001
1.40001
1.40001
1.40001
1.40001
1.40001
1.40001
1.40001
1.40001
1.40001
1.40001
1.40001
1.40001
1.40001
1.40001
1.40001
1.40001
1.40001
1.40001
1.40001
1.40001
1.40001
1.40001
1.40001
1.40001
1.40001
1.40001
1.40001
1.40001
1.40001
1.40001
1.40001
1.40001
1.40001
1.40001
1.40001
1.40001
1.40001
1.40001
1.40001
1.40001
1.40001
1.40001
1.40001
1.40001
1.40001
1.40001
1.40011
1.40646
1.55001
2.43928
3.29033
3.63993
3.82019
3.79818
3.72655
3.69586
3.67697
3.64475
3.62888
3.63464
3.6422
3.61148
3.56733
3.53831
3.51649
3.48538
3.46322
3.45838
3.44315
3.41607
3.38417
3.3522
3.33874
3.33587
3.3366
3.32575
3.30998
3.29483
3.27533
3.24743
3.20566
3.15925
3.13282
3.12294
3.11695
3.11228
3.10696
3.10117
3.09519
3.08484
3.06218
3.02527
2.97832
2.95006
2.9387
2.93072
2.92322
2.91695
2.90817
2.89827
2.88668
2.86833
2.84572
2.82621
2.81037
2.79679
2.78212
2.76306
2.73494
2.71557
2.71012
2.70856
2.70292
2.69336
2.68297
2.67241
2.66122
2.64393
2.6162
2.59299
2.57577
2.55967
2.54888
2.54445
2.54065
2.53661
2.52709
2.50892
2.4884
2.46986
2.45858
2.45604
2.45541
2.45032
2.43853
2.41429
2.38266
2.35981
2.35086
2.34971
2.35512
2.35974
2.35491
2.33942
2.31166
2.28397
2.2725
2.27093
2.27138
2.26935
2.26483
2.2498
2.224
2.20673
2.20231
2.19768
2.19193
2.18517
2.17423
2.15604
2.14401
2.14182
2.13881
2.13383
2.12622
2.11049
2.08646
2.0732
2.07108
2.06955
2.06686
2.06252
1.40001
1.40001
1.40001
1.40001
1.40001
1.40001
1.40001
1.40001
1.40001
1.40001
1.40001
1.40001
1.40001
1.40001
1.40001
1.40001
1.40001
1.40001
1.40001
1.40001
1.40001
1.40001
1.40001
1.40001
1.40001
1.40001
1.40001
1.40001
1.40001
1.40001
1.40001
1.40001
1.40001
1.40001
1.40001
1.40001
1.40001
1.40001
1.40001
1.40001
1.40001
1.40001
1.40001
1.40001
1.40001
1.40001
1.40001
1.40001
1.40001
1.40001
1.40001
1.40008
1.40632
1.59268
2.40848
3.20975
3.72201
3.81414
3.79533
3.73975
3.68532
3.66464
3.66152
3.68193
3.669
3.6217
3.57592
3.54607
3.521
3.49202
3.4839
3.48068
3.45967
3.42738
3.39715
3.37549
3.36675
3.36094
3.35493
3.34151
3.32616
3.30622
3.28034
3.24565
3.20162
3.17121
3.16008
3.15393
3.14979
3.14533
3.1394
3.13242
3.12066
3.09566
3.05657
3.00762
2.97894
2.96916
2.96207
2.95465
2.94959
2.94532
2.93722
2.92293
2.89925
2.87327
2.85243
2.83781
2.82731
2.81633
2.80116
2.77491
2.74366
2.73218
2.72907
2.7275
2.72158
2.71366
2.705
2.69533
2.68098
2.65269
2.62076
2.60093
2.5885
2.58054
2.57598
2.57042
2.56387
2.55246
2.53289
2.51132
2.49416
2.48631
2.48572
2.48605
2.48048
2.46632
2.43919
2.40496
2.38256
2.37458
2.37403
2.38114
2.38702
2.38239
2.36623
2.33756
2.30866
2.29596
2.29416
2.29506
2.29351
2.2889
2.27434
2.24941
2.2307
2.2256
2.22133
2.21571
2.20893
2.19813
2.17969
2.16577
2.16332
2.16097
2.15632
2.14932
2.13533
2.11162
2.09438
2.09126
2.08976
2.08738
2.08374
2.0756
1.40001
1.40001
1.40001
1.40001
1.40001
1.40001
1.40001
1.40001
1.40001
1.40001
1.40001
1.40001
1.40001
1.40001
1.40001
1.40001
1.40001
1.40001
1.40001
1.40001