/*--------------------------------*- C++ -*----------------------------------*\
  =========                 |
  \\      /  F ield         | OpenFOAM: The Open Source CFD Toolbox
   \\    /   O peration     | Website:  https://openfoam.org
    \\  /    A nd           | Version:  7
     \\/     M anipulation  |
\*---------------------------------------------------------------------------*/
FoamFile
{
    version     2.0;
    format      ascii;
    class       volScalarField;
    location    "2.9";
    object      p;
}
// * * * * * * * * * * * * * * * * * * * * * * * * * * * * * * * * * * * * * //

dimensions      [1 -1 -2 0 0 0 0];

internalField   nonuniform List<scalar> 
16512
(
2.79523
3.44892
4.09352
4.28474
4.26831
4.22925
4.20649
4.19586
4.20503
4.18201
4.14507
4.11629
4.0873
4.04969
4.01322
3.98704
3.94764
3.90924
3.88289
3.87782
3.88593
3.89368
3.89274
3.8772
3.85404
3.82227
3.78166
3.72315
3.68
3.66524
3.66061
3.65966
3.65916
3.64941
3.63523
3.6123
3.57248
3.50444
3.43662
3.40364
3.3974
3.4016
3.42896
3.45586
3.4537
3.44052
3.4164
3.37093
3.28
3.19235
3.15722
3.14815
3.14595
3.15979
3.20045
3.23691
3.23893
3.22373
3.18739
3.13008
3.06295
3.02444
3.0075
2.99238
2.97474
2.95056
2.92066
2.90446
2.90299
2.91046
2.93115
2.93733
2.95882
3.13893
3.82603
4.93566
5.83333
6.30706
6.42966
6.40113
6.2882
6.18447
6.13921
6.12202
6.1439
6.19514
6.19311
6.15597
6.08133
5.94945
5.7596
5.63142
5.58746
5.57997
5.63482
5.75859
5.81928
5.79529
5.73184
5.61019
5.42136
5.2879
5.24383
5.23017
5.26326
5.37023
5.44445
5.42955
5.38337
5.28342
5.10307
4.94535
4.88759
4.87196
4.88288
4.95694
5.05425
5.06959
5.0458
4.98735
4.87121
4.7176
4.62725
4.6032
4.60997
4.71442
5.02246
5.50602
5.9849
6.19209
6.16649
6.03166
5.96071
5.93976
5.96301
6.0299
6.03828
6.00699
5.96548
5.88464
5.76137
5.6664
5.63435
5.61578
5.62009
5.65045
5.6479
5.62141
5.58962
5.53256
5.43463
5.34711
5.31497
5.2943
5.28411
5.2925
5.28594
5.2608
5.2315
5.18214
5.10559
5.04478
5.02214
5.0063
4.99921
4.98753
4.9677
4.94582
4.91352
4.85455
4.79284
4.764
4.74675
4.73313
4.72141
4.7033
4.68271
4.65843
4.62418
4.57728
4.53996
4.51855
4.49941
4.47935
4.45774
4.43351
4.40426
4.36506
4.32484
4.30446
4.28975
4.27703
4.26704
4.25408
4.23821
4.22064
4.19743
4.1561
4.09935
4.05782
4.04042
4.02522
4.00979
3.9936
3.97632
3.95899
3.94283
3.92139
3.8896
3.86208
3.84966
3.839
3.82844
3.81705
3.80255
3.77861
3.73525
3.68649
3.66208
3.64907
3.63773
3.62806
3.62395
3.62174
3.61228
3.60038
3.58405
3.55908
3.52881
3.49644
3.46337
3.43408
3.41102
3.3947
3.38462
3.37184
3.35185
3.32964
3.31825
3.31154
3.30571
3.29794
3.28745
3.27192
3.24649
3.21423
3.1854
3.16351
3.14967
3.1406
3.13333
3.12678
3.12141
3.11459
3.10591
3.09255
3.07065
3.03387
2.39577
2.82558
3.60461
4.1965
4.22377
4.20229
4.20932
4.23109
4.23625
4.19396
4.15264
4.122
4.09346
4.05093
4.02486
3.99818
3.95806
3.93678
3.93224
3.93314
3.93158
3.92453
3.90915
3.88218
3.8451
3.8066
3.76129
3.72431
3.71241
3.71006
3.70729
3.7031
3.69221
3.6761
3.64955
3.60855
3.54277
3.47764
3.44455
3.43807
3.44007
3.46148
3.48344
3.47989
3.46641
3.44341
3.40148
3.31816
3.23214
3.19488
3.18676
3.18619
3.20596
3.25151
3.28299
3.28077
3.26305
3.22384
3.15591
3.07528
3.03613
3.02178
3.01149
3.00103
2.9858
2.96719
2.95651
2.95535
2.96906
2.97518
2.97812
3.06903
3.50387
4.52415
5.64819
6.24866
6.36106
6.37378
6.3674
6.33389
6.25643
6.21001
6.19857
6.22621
6.2708
6.26422
6.21992
6.1325
5.97837
5.79413
5.69667
5.66051
5.65203
5.70836
5.83209
5.88484
5.85833
5.79212
5.66071
5.46366
5.33391
5.29046
5.28089
5.32188
5.43161
5.49984
5.48361
5.43492
5.33464
5.15535
4.9939
4.93958
4.92273
4.93055
5.0036
5.11022
5.13202
5.10403
5.03983
4.9148
4.751
4.67068
4.65033
4.65446
4.74531
5.04336
5.53191
6.02745
6.25651
6.23923
6.09787
6.00911
5.98342
6.00133
6.07772
6.10686
6.07879
6.03891
5.96346
5.8381
5.72245
5.678
5.65744
5.65524
5.68933
5.7075
5.68527
5.65474
5.6039
5.50923
5.40626
5.35857
5.33648
5.32291
5.33092
5.33786
5.31616
5.28762
5.24282
5.16581
5.09282
5.06368
5.04638
5.03978
5.03613
5.01662
4.99467
4.96511
4.9096
4.84178
4.80265
4.7844
4.76971
4.75963
4.7439
4.72362
4.70108
4.67099
4.62668
4.58134
4.55593
4.53749
4.51909
4.49986
4.47848
4.45169
4.41342
4.36774
4.34038
4.32422
4.30956
4.29762
4.28486
4.26893
4.25166
4.23077
4.19668
4.14443
4.09863
4.08081
4.06617
4.05042
4.03302
4.01356
3.99234
3.96939
3.94094
3.90762
3.88246
3.87006
3.8604
3.85292
3.84573
3.83514
3.82218
3.80295
3.76747
3.71683
3.67873
3.65824
3.64366
3.63144
3.6211
3.61319
3.6038
3.5925
3.58016
3.56521
3.54914
3.53225
3.51073
3.47913
3.43916
3.40576
3.37901
3.3551
3.33476
3.32336
3.31702
3.31465
3.3145
3.30881
3.30018
3.28928
3.2705
3.23612
3.19609
3.16968
3.15619
3.14779
3.14113
3.13601
3.1282
3.11865
3.11028
3.09815
3.06562
3.02376
2.29691
2.4353
2.88638
3.71626
4.05087
4.16073
4.24661
4.27667
4.25168
4.1931
4.14774
4.12005
4.09456
4.06424
4.05072
4.02075
3.99269
3.98966
3.98873
3.97135
3.95178
3.93725
3.91166
3.87239
3.83127
3.79197
3.76041
3.75263
3.75639
3.75148
3.74386
3.73338
3.71753
3.68986
3.6481
3.58358
3.51989
3.48621
3.47918
3.47899
3.49404
3.51231
3.50831
3.49374
3.47037
3.43047
3.35374
3.27169
3.23306
3.22508
3.22625
3.25159
3.30057
3.32538
3.31944
3.29961
3.25938
3.18448
3.09292
3.05246
3.03793
3.02959
3.02351
3.01922
3.01275
3.01003
3.0136
3.02239
3.01501
3.04395
3.29148
4.12136
5.27962
6.23073
6.58589
6.64094
6.56132
6.39972
6.3161
6.28368
6.26199
6.26346
6.31228
6.34665
6.32564
6.27785
6.18978
6.04003
5.85211
5.74105
5.70487
5.70834
5.78377
5.90807
5.94715
5.91669
5.84776
5.71611
5.51935
5.38726
5.34278
5.33416
5.37998
5.49802
5.56677
5.54604
5.49073
5.38231
5.19264
5.03615
4.97856
4.96208
4.97081
5.04466
5.15442
5.18082
5.15987
5.10512
4.9893
4.81877
4.70772
4.67253
4.67443
4.76468
5.06125
5.55515
6.06685
6.31447
6.30979
6.16822
6.06042
6.02863
6.04016
6.122
6.176
6.15413
6.11516
6.04213
5.91588
5.78203
5.72201
5.69949
5.69281
5.72584
5.7641
5.74977
5.72005
5.67277
5.58015
5.46584
5.40119
5.3776
5.36307
5.37126
5.3895
5.37388
5.34602
5.30409
5.22794
5.14623
5.10655
5.08735
5.07762
5.08114
5.06796
5.0453
5.01766
4.96682
4.89503
4.84512
4.82524
4.80929
4.79931
4.78672
4.76729
4.74533
4.71732
4.67494
4.62364
4.59258
4.57396
4.55616
4.53811
4.51898
4.49677
4.46608
4.42108
4.38161
4.36196
4.34589
4.33149
4.31647
4.29938
4.28155
4.26181
4.23307
4.18484
4.13499
4.11563
4.10284
4.08903
4.074
4.05733
4.03747
4.01202
3.9786
3.93713
3.90199
3.88656
3.87568
3.86642
3.86194
3.85609
3.84501
3.83272
3.8163
3.78859
3.75025
3.71404
3.68416
3.65939
3.63929
3.62191
3.60808
3.59622
3.58347
3.57245
3.56498
3.55892
3.55011
3.53835
3.51978
3.48459
3.42974
3.3796
3.34764
3.33199
3.32375
3.31679
3.31443
3.31794
3.31507
3.30694
3.29747
3.28304
3.2535
3.21409
3.18906
3.17491
3.16424
3.15487
3.14637
3.13871
3.12972
3.11336
3.08398
3.05094
3.02183
2.29743
2.31588
2.43544
2.93032
3.66904
3.99805
4.22285
4.28106
4.25851
4.20229
4.15593
4.12401
4.1017
4.09088
4.08434
4.05498
4.04357
4.04261
4.01652
3.98097
3.96285
3.93862
3.90243
3.86101
3.82301
3.79257
3.78549
3.79684
3.79283
3.78005
3.76726
3.75209
3.72883
3.69124
3.63071
3.56572
3.52903
3.52144
3.51992
3.52756
3.54153
3.53851
3.5236
3.49999
3.46166
3.39059
3.31201
3.27198
3.26349
3.26535
3.29407
3.34375
3.36249
3.35449
3.33389
3.29379
3.21602
3.11721
3.07289
3.05829
3.05145
3.04834
3.04928
3.05764
3.06325
3.07391
3.06692
3.07055
3.19349
3.72099
4.86701
5.99736
6.5206
6.58091
6.58629
6.57683
6.52897
6.41461
6.3483
6.332
6.34203
6.39102
6.42089
6.39264
6.33286
6.22615
6.05266
5.89188
5.81771
5.78619
5.78666
5.86231
5.98515
6.01481
5.97837
5.90302
5.75842
5.56173
5.4451
5.4048
5.39559
5.43873
5.54912
5.61196
5.59534
5.5468
5.44677
5.2647
5.09248
5.02246
5.00536
5.01594
5.09337
5.20428
5.23037
5.20534
5.14644
5.03225
4.86238
4.75948
4.73065
4.7308
4.80985
5.09421
5.58346
6.10466
6.37661
6.37761
6.23373
6.11394
6.07793
6.08417
6.16729
6.24194
6.22774
6.1906
6.12221
5.9954
5.84468
5.7686
5.74294
5.733
5.76366
5.81735
5.81508
5.78621
5.74022
5.65003
5.52793
5.44567
5.41788
5.40142
5.40856
5.43824
5.4339
5.40729
5.36777
5.29102
5.1998
5.14846
5.12817
5.11597
5.12146
5.11837
5.09627
5.07014
5.02545
4.95183
4.88911
4.86629
4.84974
4.83975
4.8302
4.81205
4.7916
4.76655
4.72666
4.6688
4.62904
4.61067
4.59371
4.57622
4.55757
4.53708
4.51172
4.47477
4.42909
4.40173
4.3851
4.36927
4.35269
4.33431
4.31452
4.29261
4.26502
4.22215
4.17236
4.14574
4.13313
4.12173
4.10934
4.09524
4.07938
4.05915
4.02895
3.98305
3.93534
3.91105
3.89755
3.88513
3.87473
3.86768
3.85871
3.84733
3.83539
3.81981
3.79635
3.76874
3.74515
3.72139
3.69159
3.65746
3.62786
3.605
3.58879
3.57718
3.56947
3.56702
3.56689
3.56217
3.55287
3.54044
3.51732
3.46291
3.38827
3.35083
3.33798
3.32873
3.32072
3.31606
3.31871
3.31846
3.31053
3.30049
3.28658
3.26409
3.2356
3.21058
3.19399
3.18177
3.16917
3.15501
3.14204
3.12868
3.10315
3.06488
3.03833
3.03096
2.30839
2.28815
2.29638
2.43587
3.00948
3.67895
4.14689
4.25991
4.23953
4.18732
4.15626
4.14357
4.13747
4.14204
4.12489
4.09951
4.08712
4.06094
4.01807
3.99058
3.96867
3.93348
3.89484
3.85911
3.82611
3.8178
3.82659
3.83067
3.8165
3.79887
3.7799
3.75811
3.72963
3.68142
3.6178
3.57439
3.56516
3.56319
3.56458
3.57069
3.56803
3.55338
3.52998
3.49382
3.42951
3.35549
3.31398
3.30446
3.30562
3.33315
3.37962
3.39354
3.38496
3.36515
3.3262
3.24869
3.1478
3.09974
3.08417
3.07834
3.07717
3.08454
3.10261
3.11413
3.12454
3.11264
3.15823
3.48442
4.42805
5.5906
6.53744
6.83366
6.85588
6.72601
6.5586
6.50866
6.48324
6.44457
6.41338
6.42244
6.46936
6.48007
6.44978
6.38971
6.2853
6.11792
5.94853
5.86018
5.83318
5.8468
5.93772
6.05107
6.06928
6.03525
5.96367
5.82557
5.62913
5.5007
5.45823
5.45283
5.50318
5.61628
5.66959
5.64387
5.58466
5.4769
5.292
5.14249
5.08948
5.07025
5.07554
5.14641
5.25675
5.28278
5.25797
5.2006
5.08129
4.90735
4.79737
4.75974
4.76026
4.84251
5.124
5.61189
6.14597
6.43683
6.44792
6.30683
6.16688
6.12422
6.12677
6.21103
6.30554
6.30111
6.26437
6.19693
6.07284
5.91369
5.82044
5.78944
5.776
5.80251
5.86697
5.88029
5.85329
5.80797
5.71861
5.58835
5.49476
5.46134
5.44377
5.44814
5.48313
5.4905
5.46581
5.4304
5.35915
5.26175
5.19346
5.16921
5.15394
5.15755
5.16601
5.14742
5.12168
5.08329
5.01257
4.93939
4.90855
4.89166
4.88087
4.87537
4.85901
4.83855
4.81487
4.77732
4.71737
4.6665
4.64488
4.62877
4.61389
4.59659
4.57744
4.55506
4.52398
4.47929
4.44191
4.42335
4.40741
4.39073
4.37241
4.35249
4.3301
4.30215
4.26012
4.2086
4.17498
4.16191
4.15054
4.1404
4.12812
4.114
4.098
4.07569
4.03799
3.98711
3.95257
3.93243
3.91528
3.90181
3.88837
3.87493
3.86176
3.84648
3.83113
3.8135
3.79331
3.77607
3.76256
3.74728
3.72643
3.69307
3.64629
3.60744
3.58776
3.57705
3.56823
3.56235
3.56736
3.57213
3.56367
3.55123
3.53164
3.49322
3.43048
3.37658
3.35112
3.33906
3.33039
3.32421
3.31922
3.31098
3.30095
3.2905
3.27981
3.26993
3.25817
3.24202
3.22117
3.19945
3.18198
3.16709
3.14887
3.12167
3.09092
3.06036
3.04465
3.03676
2.31227
2.27982
2.27364
2.29537
2.50526
3.08159
3.79524
4.20307
4.22054
4.16844
4.17031
4.18341
4.20384
4.19801
4.15527
4.12007
4.09144
4.05867
4.02159
4.00214
3.97158
3.93039
3.89708
3.87038
3.85782
3.86044
3.8565
3.84843
3.82919
3.80534
3.78175
3.75875
3.72711
3.67692
3.62648
3.61367
3.60997
3.60625
3.60253
3.59665
3.58229
3.5585
3.52407
3.46708
3.39959
3.35808
3.34818
3.34877
3.3733
3.41248
3.42084
3.41198
3.39301
3.3557
3.28079
3.18165
3.13149
3.11536
3.11061
3.11086
3.12683
3.1493
3.17339
3.16613
3.1872
3.36999
4.04124
5.25484
6.18839
6.67901
6.80942
6.83034
6.81939
6.74913
6.59416
6.51531
6.50071
6.49646
6.51385
6.55486
6.54891
6.5082
6.43934
6.31662
6.1401
6.00941
5.94916
5.92316
5.93274
6.02033
6.12511
6.13016
6.0878
6.00693
5.85719
5.67177
5.57134
5.53406
5.52487
5.56894
5.67274
5.7187
5.69603
5.6425
5.53533
5.35088
5.19032
5.1237
5.10676
5.12051
5.20178
5.30935
5.3309
5.30603
5.24787
5.13511
4.96411
4.84564
4.81001
4.81016
4.88835
5.16353
5.64824
6.18699
6.49928
6.51766
6.37922
6.22743
6.17997
6.17671
6.25555
6.36503
6.37288
6.33734
6.27229
6.14638
5.97298
5.87188
5.83871
5.82387
5.84841
5.91881
5.94324
5.91776
5.87384
5.7875
5.65479
5.54565
5.50309
5.4844
5.48732
5.52742
5.54686
5.52517
5.49053
5.42096
5.32003
5.24299
5.21473
5.19765
5.19732
5.21179
5.19934
5.17402
5.139
5.07066
4.99167
4.95051
4.93347
4.92236
4.92029
4.90821
4.88707
4.86376
4.82909
4.7676
4.70757
4.68073
4.66359
4.65025
4.63543
4.61702
4.5966
4.57026
4.53031
4.48577
4.46177
4.44535
4.42875
4.4112
4.39214
4.37053
4.34364
4.30453
4.25035
4.20539
4.18914
4.17666
4.16635
4.15603
4.14273
4.12793
4.11017
4.08391
4.03994
3.99678
3.9756
3.95937
3.94226
3.9242
3.90477
3.88485
3.86801
3.8533
3.83203
3.80599
3.79011
3.78065
3.77262
3.76171
3.74742
3.72464
3.68125
3.62546
3.59444
3.58094
3.57124
3.56316
3.55753
3.55755
3.55578
3.54655
3.53302
3.50649
3.46809
3.42718
3.38821
3.35986
3.34388
3.33167
3.3206
3.31025
3.29936
3.28777
3.27884
3.27235
3.26674
3.25858
3.24647
3.22796
3.20187
3.17041
3.1366
3.1018
3.07552
3.066
3.06009
3.0544
2.3056
2.27947
2.27558
2.27886
2.31895
2.55959
3.11057
3.88057
4.13467
4.14248
4.18647
4.2322
4.25585
4.21932
4.16167
4.12082
4.08992
4.05316
4.03292
4.0153
3.97565
3.94
3.92285
3.9171
3.91034
3.88335
3.86759
3.85309
3.82999
3.80421
3.78085
3.75821
3.72666
3.68467
3.66652
3.66124
3.6508
3.63862
3.62782
3.61214
3.58745
3.55343
3.50225
3.44196
3.40162
3.39187
3.39265
3.41522
3.44608
3.44833
3.43901
3.41974
3.38269
3.31092
3.21694
3.16676
3.15038
3.14658
3.1495
3.17164
3.20321
3.22118
3.22438
3.32065
3.79688
4.84789
5.97527
6.76711
7.03745
7.05518
6.92701
6.79973
6.75913
6.71496
6.64099
6.57776
6.5505
6.56727
6.61633
6.61232
6.57111
6.49937
6.38102
6.21101
6.06881
5.99778
5.97849
6.00151
6.09723
6.18504
6.18069
6.14176
6.06545
5.9231
5.73778
5.62252
5.58319
5.58065
5.63465
5.73521
5.76847
5.7401
5.68045
5.57167
5.39048
5.24584
5.19241
5.1736
5.18325
5.26147
5.3688
5.38721
5.3573
5.29494
5.17158
4.9969
4.89441
4.85888
4.85715
4.93063
5.19846
5.67876
6.23375
6.566
6.59094
6.45457
6.28773
6.233
6.22723
6.304
6.42524
6.44257
6.40819
6.34453
6.22269
6.04609
5.92376
5.88165
5.86598
5.88966
5.9681
6.00961
5.98734
5.9414
5.85322
5.71624
5.59778
5.55035
5.5302
5.52978
5.56975
5.60303
5.58537
5.55203
5.48552
5.37969
5.2883
5.25244
5.23505
5.23335
5.25459
5.25246
5.22795
5.19542
5.13169
5.04723
4.99081
4.97161
4.9588
4.95882
4.95681
4.93681
4.91365
4.88144
4.81967
4.75238
4.71799
4.70033
4.68695
4.67539
4.65757
4.63751
4.61323
4.57771
4.53086
4.50017
4.48308
4.46653
4.44955
4.43167
4.41174
4.38718
4.35228
4.29916
4.24495
4.22125
4.20675
4.1941
4.18241
4.16872
4.15387
4.1377
4.11739
4.08347
4.03882
4.01233
3.9978
3.98304
3.96666
3.94805
3.92668
3.90262
3.87559
3.84349
3.81456
3.79847
3.78919
3.7819
3.77711
3.76878
3.75627
3.74025
3.71204
3.6656
3.61878
3.59244
3.57808
3.56688
3.55794
3.55143
3.542
3.52924
3.51543
3.50119
3.4819
3.46097
3.43824
3.4076
3.37038
3.34159
3.32462
3.31253
3.29984
3.28868
3.2808
3.27355
3.26698
3.26195
3.25461
3.24332
3.22074
3.1782
3.12863
3.09352
3.07655
3.06962
3.06443
3.06377
2.30213
2.29264
2.28964
2.28804
2.29515
2.34137
2.5534
3.16005
3.85204
4.05001
4.18437
4.26038
4.26371
4.21515
4.15823
4.11899
4.08613
4.0615
4.05331
4.02836
3.99223
3.98154
3.98156
3.97152
3.92988
3.88656
3.86961
3.85103
3.82871
3.80582
3.78616
3.76621
3.74036
3.72031
3.70955
3.69416
3.67491
3.65949
3.64329
3.61964
3.58609
3.53835
3.48345
3.4443
3.43448
3.43531
3.45599
3.47992
3.47776
3.46729
3.44662
3.40942
3.34057
3.25267
3.20409
3.18824
3.18464
3.19218
3.216
3.25849
3.27069
3.32394
3.63201
4.53746
5.78975
6.5131
6.7957
6.96805
7.07157
7.06742
6.97979
6.82131
6.72896
6.69682
6.6754
6.65207
6.65311
6.67748
6.66708
6.62775
6.55379
6.42215
6.25581
6.14572
6.09252
6.07083
6.08873
6.17824
6.25322
6.23818
6.18929
6.10149
5.94952
5.78256
5.69674
5.66333
5.65636
5.70449
5.79989
5.82479
5.79227
5.72992
5.60994
5.4266
5.29157
5.236
5.22076
5.23627
5.31793
5.41685
5.43106
5.40579
5.34876
5.23455
5.06371
4.94037
4.89617
4.89431
4.96875
5.23505
5.71363
6.27403
6.62611
6.66304
6.53328
6.35701
6.29646
6.28548
6.35662
6.48746
6.51914
6.48498
6.41833
6.29319
6.1043
5.97807
5.93764
5.91994
5.93927
6.01828
6.06958
6.04989
6.00865
5.92455
5.78088
5.64907
5.5948
5.57371
5.57231
5.61337
5.65628
5.64227
5.611
5.54927
5.44426
5.34045
5.29399
5.27506
5.26927
5.29139
5.30227
5.28066
5.25036
5.19343
5.10551
5.03563
5.01218
4.99741
4.995
4.99983
4.98423
4.96163
4.93306
4.87491
4.80047
4.7548
4.73706
4.72328
4.7152
4.70023
4.68056
4.65827
4.6261
4.57595
4.53594
4.51818
4.50221
4.48599
4.46919
4.45101
4.42983
4.40079
4.35369
4.29148
4.25688
4.24208
4.22801
4.21353
4.1976
4.18134
4.16469
4.14505
4.1169
4.07653
4.04585
4.03207
4.0186
4.00466
3.98954
3.97217
3.95078
3.92165
3.88163
3.83813
3.81083
3.79867
3.78818
3.77981
3.77613
3.76937
3.75869
3.74598
3.72655
3.69631
3.66052
3.62623
3.59846
3.57767
3.55968
3.54331
3.52883
3.51343
3.49924
3.49044
3.48502
3.47771
3.46672
3.44883
3.41653
3.37045
3.33247
3.30986
3.29727
3.28833
3.28088
3.27699
3.27572
3.27039
3.26232
3.25172
3.2295
3.1812
3.12327
3.09859
3.09106
3.08441
3.07893
3.07426
2.31433
2.31339
2.31289
2.30745
2.30449
2.30493
2.33839
2.55651
3.25549
3.81486
4.12546
4.26331
4.2531
4.2053
4.1551
4.11026
4.08964
4.07935
4.07972
4.05371
4.04189
4.04507
4.03002
3.98104
3.92354
3.88801
3.87152
3.85497
3.8374
3.81808
3.80605
3.79542
3.7781
3.75664
3.73258
3.70979
3.68959
3.67302
3.65252
3.62194
3.57795
3.52697
3.48816
3.4778
3.4778
3.49508
3.51265
3.50785
3.49636
3.47419
3.43661
3.37092
3.29021
3.24404
3.22749
3.22527
3.23384
3.26971
3.30209
3.3419
3.53742
4.24614
5.41882
6.50899
7.02889
7.23874
7.19844
7.09254
7.04528
7.03247
6.97035
6.85139
6.74759
6.71201
6.70169
6.71765
6.74703
6.72718
6.68392
6.61448
6.4955
6.33265
6.20812
6.14985
6.13429
6.16156
6.24964
6.30687
6.28778
6.24301
6.1608
6.01391
5.84354
5.74527
5.71184
5.71172
5.76811
5.85612
5.87216
5.84132
5.77979
5.6643
5.48626
5.34811
5.29412
5.27935
5.29718
5.38185
5.47567
5.48193
5.4492
5.38592
5.26517
5.09548
4.99352
4.95748
4.95351
5.01782
5.27129
5.74272
6.31674
6.69283
6.73432
6.60373
6.42459
6.36036
6.34774
6.41648
6.55223
6.59207
6.55932
6.49648
6.37482
6.18056
6.03273
5.98023
5.96241
5.98342
6.06924
6.13326
6.11687
6.07278
5.9866
5.84981
5.71085
5.64557
5.62218
5.61812
5.65884
5.71253
5.70459
5.67184
5.60889
5.50277
5.39196
5.33794
5.31773
5.30928
5.32893
5.34905
5.33108
5.3023
5.25086
5.16614
5.08578
5.05341
5.03731
5.03231
5.04119
5.03084
5.00846
4.98147
4.92811
4.85135
4.79355
4.77355
4.76001
4.75424
4.74421
4.72493
4.7036
4.67563
4.63007
4.57714
4.55236
4.53629
4.52006
4.50377
4.48692
4.46806
4.44385
4.40747
4.34911
4.29677
4.27686
4.26225
4.24762
4.23137
4.21394
4.1956
4.17568
4.15061
4.11176
4.07423
4.05976
4.04787
4.03588
4.02394
4.01094
3.99534
3.97377
3.93886
3.88679
3.84128
3.81963
3.80547
3.79314
3.78276
3.77351
3.76312
3.7523
3.7408
3.72765
3.70948
3.68708
3.66271
3.63303
3.59752
3.56529
3.5398
3.51822
3.50013
3.4902
3.48495
3.48728
3.48925
3.48162
3.47061
3.4535
3.41429
3.35263
3.31506
3.30092
3.29176
3.28362
3.27691
3.27441
3.27159
3.26418
3.25498
3.23357
3.18335
3.1312
3.11211
3.10304
3.09732
3.09404
3.08733
2.33421
2.33593
2.33406
2.32863
2.31983
2.30359
2.29418
2.33346
2.65158
3.31145
3.87293
4.21796
4.2467
4.21958
4.15152
4.11301
4.10423
4.1098
4.11755
4.10335
4.1064
4.09134
4.03188
3.96085
3.91337
3.89283
3.88419
3.87625
3.86403
3.85246
3.84646
3.82844
3.79504
3.76299
3.73977
3.72044
3.70354
3.68535
3.65934
3.62022
3.57191
3.53297
3.5224
3.52181
3.53491
3.54458
3.53777
3.52512
3.50158
3.46383
3.40173
3.3287
3.28523
3.26904
3.26741
3.27902
3.31693
3.35751
3.47408
3.98736
5.15954
6.43789
6.87243
7.00018
7.12887
7.2742
7.28817
7.19916
7.081
7.00246
6.93623
6.86301
6.80748
6.77365
6.76934
6.79347
6.78525
6.74388
6.66822
6.54523
6.39659
6.29521
6.2452
6.22584
6.24619
6.32346
6.3665
6.34083
6.28747
6.19517
6.04455
5.89857
5.82244
5.79223
5.78837
5.83816
5.91862
5.92753
5.89009
5.81979
5.69234
5.51891
5.40835
5.36307
5.34669
5.36174
5.44099
5.52493
5.52636
5.49719
5.43942
5.32415
5.15697
5.03783
4.99142
4.98787
5.05586
5.30392
5.765
6.34578
6.74262
6.80073
6.6787
6.49504
6.42559
6.41178
6.4795
6.62052
6.66793
6.63487
6.56916
6.44724
6.25262
6.09699
6.04407
6.02339
6.03858
6.12154
6.19501
6.18256
6.1416
6.05779
5.90491
5.75595
5.69694
5.67434
5.66884
5.70746
5.76848
5.76729
5.73596
5.67598
5.56595
5.44253
5.37774
5.35612
5.34675
5.36617
5.39575
5.3833
5.3552
5.30681
5.22037
5.13319
5.09377
5.07752
5.07119
5.08271
5.0801
5.05847
5.03141
4.97998
4.89969
4.83316
4.80804
4.79371
4.78982
4.78925
4.77204
4.7508
4.72507
4.68378
4.62469
4.58853
4.57233
4.55653
4.53973
4.5222
4.50378
4.48297
4.45493
4.40676
4.34735
4.31659
4.30059
4.28509
4.26822
4.25018
4.23132
4.21056
4.18545
4.15023
4.107
4.08234
4.07025
4.05895
4.04863
4.03776
4.02551
4.01131
3.98854
3.94948
3.8999
3.86424
3.84201
3.82331
3.8053
3.78902
3.77613
3.76355
3.7495
3.73517
3.72127
3.70918
3.69718
3.68298
3.66373
3.63296
3.58654
3.54029
3.50998
3.49609
3.48773
3.48145
3.48309
3.49518
3.49284
3.48278
3.47013
3.44501
3.39332
3.33554
3.30866
3.29723
3.28955
3.28662
3.28609
3.2791
3.26905
3.25436
3.23069
3.19077
3.15628
3.13722
3.12249
3.1101
3.10062
3.0934
2.35666
2.3557
2.35185
2.34646
2.3305
2.30264
2.29098
2.2938
2.36629
2.7202
3.31591
4.02273
4.22235
4.18813
4.13608
4.12851
4.12868
4.16084
4.16132
4.15968
4.14967
4.09398
4.01071
3.95384
3.92302
3.91456
3.91793
3.91588
3.90754
3.89981
3.87672
3.83477
3.79103
3.76041
3.74313
3.72991
3.71581
3.69549
3.66277
3.61734
3.57795
3.56731
3.56641
3.5755
3.57847
3.56935
3.5544
3.5282
3.48982
3.43082
3.36784
3.32561
3.31212
3.30908
3.32631
3.3642
3.44645
3.81363
4.77349
6.05911
7.11082
7.35047
7.40328
7.28129
7.20074
7.2409
7.27927
7.23602
7.11522
6.97818
6.90181
6.87475
6.8535
6.84944
6.84921
6.82839
6.79489
6.73152
6.62094
6.47395
6.36063
6.31236
6.29813
6.32306
6.39213
6.41905
6.39148
6.34033
6.2513
6.10365
5.9529
5.87136
5.84639
5.85025
5.90681
5.97495
5.97526
5.94068
5.87341
5.7508
5.58204
5.46059
5.41028
5.39814
5.42102
5.50383
5.57675
5.57096
5.53704
5.47385
5.35817
5.19742
5.09483
5.05676
5.05144
5.11123
5.34656
5.79524
6.37762
6.80019
6.86305
6.73924
6.56307
6.49485
6.48033
6.5466
6.68876
6.74087
6.70789
6.64372
6.52104
6.31563
6.15459
6.09944
6.07908
6.0963
6.18341
6.26081
6.24934
6.20683
6.12242
5.98184
5.82608
5.74128
5.71338
5.70668
5.75021
5.82223
5.82761
5.79706
5.73943
5.63576
5.50663
5.42765
5.40145
5.38899
5.40364
5.43904
5.43309
5.4061
5.36175
5.27992
5.1854
5.13194
5.11361
5.10559
5.11907
5.12663
5.10734
5.08121
5.03424
4.95184
4.8737
4.84009
4.82492
4.8191
4.82799
4.82006
4.79951
4.77586
4.73928
4.67741
4.62579
4.60598
4.59091
4.57605
4.55967
4.54211
4.52203
4.49529
4.45398
4.39632
4.35519
4.33813
4.32309
4.30768
4.29115
4.27335
4.25323
4.22862
4.19454
4.14685
4.1092
4.09357
4.08071
4.06941
4.05941
4.04652
4.03168
4.0147
3.99034
3.95083
3.91338
3.89061
3.87227
3.85273
3.82998
3.80456
3.78108
3.76404
3.74873
3.73111
3.718
3.70886
3.70152
3.69232
3.67971
3.65923
3.61351
3.54785
3.51258
3.50012
3.49085
3.48312
3.48186
3.48945
3.48896
3.48046
3.47049
3.45575
3.42776
3.3849
3.34207
3.31292
3.29506
3.28283
3.27342
3.26243
3.24852
3.2308
3.20766
3.18598
3.17061
3.15937
3.14849
3.13581
3.12033
3.10362
2.37762
2.37357
2.3687
2.35737
2.33151
2.30596
2.2985
2.29691
2.30647
2.39806
2.70403
3.42917
4.05557
4.09845
4.12683
4.14101
4.17404
4.20047
4.18657
4.17985
4.1441
4.05956
3.99075
3.95945
3.94899
3.95792
3.97017
3.9663
3.95232
3.92085
3.87658
3.82777
3.78904
3.76719
3.75446
3.74285
3.7272
3.70043
3.6601
3.62234
3.6118
3.61067
3.61554
3.61428
3.60344
3.58542
3.55602
3.5162
3.4617
3.40427
3.36697
3.35284
3.35313
3.37225
3.4301
3.65258
4.42318
5.79859
6.99825
7.26615
7.31448
7.34387
7.40068
7.43519
7.35888
7.2928
7.27671
7.22746
7.10725
6.97967
6.93029
6.91006
6.91332
6.92208
6.89097
6.84619
6.77847
6.67221
6.54349
6.44797
6.40234
6.38469
6.40464
6.46466
6.48105
6.44838
6.3888
6.28777
6.13706
6.01103
5.94752
5.92234
5.92537
5.98153
6.04143
6.03221
5.98987
5.91088
5.77549
5.61801
5.52733
5.48779
5.47302
5.4919
5.56849
5.62985
5.61861
5.5831
5.51875
5.40046
5.24591
5.14084
5.09706
5.09331
5.15615
5.38402
5.81918
6.40892
6.85224
6.92815
6.81125
6.62984
6.55599
6.54294
6.61141
6.75459
6.80681
6.77364
6.70977
6.59096
6.39412
6.22017
6.15438
6.13399
6.15204
6.24373
6.33286
6.3257
6.28009
6.1928
6.03457
5.86794
5.80138
5.77679
5.767
5.80199
5.87551
5.88937
5.85975
5.80287
5.69556
5.55764
5.48093
5.45371
5.43942
5.45169
5.48731
5.48398
5.45683
5.4125
5.33143
5.23371
5.17512
5.15541
5.14587
5.15834
5.1726
5.15572
5.12987
5.08556
5.0056
4.91984
4.87537
4.8583
4.84895
4.85833
4.86375
4.84619
4.82433
4.79347
4.73264
4.66872
4.64089
4.62495
4.61071
4.59514
4.57803
4.56002
4.53891
4.50682
4.44821
4.39223
4.37132
4.35694
4.34374
4.32996
4.3148
4.29749
4.276
4.24582
4.19935
4.14676
4.12143
4.10766
4.09471
4.08168
4.06787
4.05443
4.03968
4.0177
3.98182
3.94451
3.92558
3.91191
3.89712
3.8796
3.85663
3.82737
3.7959
3.76552
3.74116
3.72697
3.71725
3.71117
3.70781
3.70015
3.68901
3.67157
3.63693
3.58152
3.53458
3.51361
3.50257
3.49415
3.48752
3.48437
3.48348
3.47703
3.46766
3.45686
3.44003
3.41631
3.3884
3.35258
3.31387
3.28563
3.26932
3.25955
3.24538
3.22244
3.19712
3.18522
3.17897
3.17271
3.16482
3.15349
3.13764
3.11679
2.39638
2.39157
2.3811
2.35726
2.33134
2.32197
2.31768
2.3109
2.31016
2.32153
2.39087
2.72863
3.51038
3.89004
4.06733
4.18268
4.238
4.22894
4.21876
4.18755
4.1032
4.01581
3.98404
3.97682
3.99597
4.02169
4.02482
4.01072
3.97045
3.91666
3.85911
3.81485
3.78952
3.77901
3.77206
3.76124
3.73935
3.70219
3.66514
3.65423
3.65277
3.65499
3.65204
3.64034
3.61932
3.58671
3.54547
3.49412
3.44281
3.40562
3.39424
3.3969
3.4271
3.56452
4.13252
5.31663
6.71078
7.5269
7.7024
7.63045
7.4234
7.33791
7.37668
7.46139
7.43758
7.35199
7.26512
7.17557
7.07793
7.01667
6.98218
6.96712
6.97182
6.95089
6.90975
6.84284
6.73793
6.60959
6.51283
6.47187
6.45745
6.47893
6.53041
6.53588
6.50376
6.44885
6.35156
6.20007
6.0653
5.9985
5.97792
5.98774
6.04817
6.09546
6.0813
6.04258
5.9682
5.83679
5.67772
5.57548
5.53438
5.52568
5.55547
5.63321
5.67903
5.66298
5.62702
5.56077
5.44504
5.29652
5.19781
5.15949
5.15417
5.21256
5.42876
5.85096
6.4365
6.90397
6.99115
6.87924
6.70468
6.63251
6.61716
6.68105
6.82028
6.87217
6.83802
6.77199
6.64938
6.44139
6.27796
6.22217
6.20092
6.21687
6.30699
6.39625
6.38914
6.34887
6.26865
6.12066
5.94423
5.84548
5.81205
5.80322
5.84498
5.92766
5.94589
5.91794
5.86515
5.76414
5.62372
5.52874
5.49447
5.48089
5.49409
5.5372
5.54202
5.51459
5.46929
5.38575
5.28107
5.21378
5.19056
5.17942
5.19101
5.21659
5.20674
5.18182
5.14048
5.0592
4.96351
4.91057
4.89232
4.88122
4.88784
4.90295
4.89017
4.86907
4.84338
4.78917
4.71922
4.67797
4.66084
4.64669
4.63295
4.61626
4.59776
4.57627
4.5477
4.49783
4.43776
4.40499
4.3894
4.37619
4.36596
4.35386
4.33884
4.3207
4.29572
4.2556
4.197
4.15407
4.13552
4.12146
4.10862
4.09503
4.07922
4.06084
4.04115
4.0114
3.97181
3.94979
3.93897
3.92814
3.91614
3.90212
3.88376
3.85504
3.81141
3.76643
3.74094
3.72891
3.71836
3.70902
3.70217
3.69304
3.68152
3.66733
3.64666
3.61267
3.57347
3.5418
3.52075
3.50715
3.49613
3.4863
3.47624
3.46608
3.45466
3.44285
3.43353
3.42506
3.41328
3.39279
3.35799
3.31384
3.27883
3.25263
3.23042
3.20842
3.19579
3.18943
3.18462
3.18232
3.17661
3.16792
3.15558
3.13522
2.41512
2.40546
2.38205
2.35458
2.3434
2.34156
2.33855
2.33182
2.32263
2.31172
2.31127
2.38505
2.82393
3.46562
3.91403
4.20532
4.26548
4.26493
4.24468
4.16518
4.04991
4.00501
3.99287
4.01891
4.06529
4.07988
4.07214
4.0254
3.9606
3.89944
3.85338
3.8212
3.8073
3.80004
3.7949
3.78071
3.74794
3.70968
3.6957
3.69255
3.69129
3.68909
3.67848
3.65603
3.62045
3.57781
3.52952
3.48181
3.44857
3.44142
3.44919
3.51956
3.88644
4.88778
6.37209
7.42935
7.61273
7.5984
7.65324
7.6436
7.57823
7.48439
7.45972
7.48391
7.46216
7.37709
7.24066
7.13015
7.08072
7.05652
7.04326
7.03394
7.00468
6.96638
6.90711
6.80552
6.67915
6.58638
6.54757
6.532
6.54977
6.59674
6.59669
6.56041
6.50039
6.39746
6.24787
6.13061
6.07436
6.05181
6.05903
6.11726
6.15568
6.13416
6.08725
6.00337
5.86599
5.72466
5.64621
5.61173
5.60078
5.62818
5.7003
5.73326
5.71259
5.67056
5.59681
5.47485
5.33984
5.25454
5.216
5.2108
5.26796
5.47434
5.88535
6.47311
6.95766
7.05541
6.94952
6.77835
6.70452
6.69036
6.75422
6.8873
6.93285
6.89784
6.83254
6.71337
6.515
6.33964
6.26655
6.24623
6.26799
6.36705
6.46329
6.45855
6.41341
6.32816
6.17706
5.99945
5.91379
5.88448
5.87166
5.903
5.98211
6.00594
5.97779
5.92239
5.82078
5.67808
5.58397
5.5511
5.53563
5.54515
5.5874
5.59514
5.56873
5.52714
5.44798
5.33803
5.2583
5.22958
5.21679
5.22508
5.25463
5.24992
5.22653
5.19205
5.11993
5.01945
4.94955
4.92585
4.9124
4.91605
4.93894
4.93393
4.91305
4.88871
4.84027
4.76882
4.71563
4.6964
4.68159
4.6701
4.65549
4.63825
4.61889
4.59361
4.54702
4.48092
4.43717
4.42168
4.40791
4.39816
4.3907
4.37762
4.36136
4.34168
4.31178
4.25728
4.20057
4.17425
4.15697
4.13952
4.1218
4.10531
4.09068
4.07347
4.04235
4.00143
3.97263
3.96075
3.95057
3.94194
3.93221
3.91964
3.90424
3.87715
3.82743
3.77621
3.74927
3.73408
3.72197
3.71085
3.70231
3.69372
3.68325
3.66859
3.64912
3.62595
3.60367
3.58198
3.55392
3.52187
3.4996
3.48486
3.47161
3.45836
3.44859
3.44112
3.43508
3.42981
3.42214
3.41173
3.39259
3.35287
3.2941
3.24478
3.21918
3.20677
3.19982
3.19438
3.19186
3.19001
3.18418
3.17609
3.1664
3.14869
2.43
2.40696
2.37767
2.36335
2.36128
2.36
2.35645
2.35061
2.3369
2.31108
2.30227
2.30929
2.43323
2.89339
3.4939
4.09436
4.26311
4.27505
4.23259
4.11458
4.04356
4.01709
4.02989
4.09022
4.12224
4.12104
4.08008
4.00164
3.93769
3.89572
3.86035
3.84583
3.83878
3.83465
3.82451
3.79758
3.75621
3.73634
3.73068
3.72655
3.72352
3.71531
3.69295
3.65786
3.61359
3.56758
3.52128
3.494
3.49165
3.52734
3.76457
4.57103
5.89519
7.19409
7.91834
8.02727
7.87939
7.59484
7.57192
7.60214
7.64641
7.61697
7.54498
7.50124
7.44632
7.34402
7.21251
7.13037
7.101
7.09028
7.09381
7.06815
7.02639
6.97284
6.88237
6.75889
6.65561
6.61418
6.59669
6.60872
6.64944
6.64766
6.61378
6.55965
6.46498
6.31753
6.18912
6.12953
6.11084
6.12142
6.17715
6.20431
6.18104
6.13675
6.05778
5.92476
5.78063
5.6941
5.66277
5.65863
5.69594
5.76408
5.78351
5.76108