/*--------------------------------*- C++ -*----------------------------------*\
  =========                 |
  \\      /  F ield         | OpenFOAM: The Open Source CFD Toolbox
   \\    /   O peration     | Website:  https://openfoam.org
    \\  /    A nd           | Version:  7
     \\/     M anipulation  |
\*---------------------------------------------------------------------------*/
FoamFile
{
    version     2.0;
    format      ascii;
    class       volScalarField;
    location    "3.7";
    object      p;
}
// * * * * * * * * * * * * * * * * * * * * * * * * * * * * * * * * * * * * * //

dimensions      [1 -1 -2 0 0 0 0];

internalField   nonuniform List<scalar> 
16192
(
5.63745
5.56163
5.48371
5.4031
5.32158
5.24012
5.1589
5.07852
4.9997
4.92143
4.84149
4.75993
4.6773
4.59353
4.50901
4.42459
4.34093
4.25849
4.17741
4.09816
4.01987
5.66101
5.57936
5.49561
5.41211
5.33117
5.25224
5.17405
5.09593
5.01811
4.93951
4.85869
4.77587
4.69236
4.60815
4.52362
4.44041
4.35907
4.27872
4.19899
4.12017
4.04213
5.6733
5.58746
5.50349
5.42218
5.34478
5.26946
5.19316
5.11483
5.03575
4.9553
4.87311
4.78987
4.70614
4.62266
4.53975
4.45824
4.37825
4.29931
4.22047
4.14143
4.06288
5.67834
5.59537
5.51554
5.43833
5.36384
5.28871
5.21121
5.13103
5.04978
4.96801
4.88535
4.80252
4.72043
4.63858
4.55708
4.47685
4.39795
4.31932
4.2403
4.16088
4.08204
5.68854
5.61112
5.53502
5.45909
5.38323
5.30538
5.22492
5.14325
5.06126
4.97926
4.89786
4.81702
4.73648
4.65621
4.5762
4.49646
4.41724
4.33819
4.25894
4.17939
4.10015
5.70886
5.633
5.55593
5.4777
5.39799
5.31702
5.23504
5.15309
5.07193
4.99158
4.91201
4.8331
4.75415
4.67465
4.59489
4.51506
4.43541
4.35584
4.2762
4.1967
4.11762
5.73042
5.65221
5.57165
5.49022
5.40827
5.32581
5.24399
5.16393
5.0847
5.00594
4.92842
4.85078
4.77199
4.69238
4.61265
4.53271
4.45281
4.37295
4.29327
4.21408
4.13573
5.748
5.66562
5.5822
5.49909
5.41641
5.33472
5.255
5.17709
5.09982
5.02245
4.94538
4.86772
4.78846
4.70842
4.62879
4.54914
4.46932
4.38982
4.31054
4.23177
4.15435
5.76145
5.6756
5.59027
5.50736
5.4262
5.34645
5.26927
5.19342
5.11656
5.03907
4.96158
4.88312
4.80334
4.72337
4.64386
4.56469
4.48562
4.40703
4.32857
4.2503
4.1735
5.76965
5.68107
5.59796
5.51796
5.43899
5.3615
5.28583
5.20994
5.13234
5.05379
4.97555
4.89693
4.81709
4.73709
4.65824
4.58017
4.50186
4.42379
4.34646
4.26921
4.19299
5.77334
5.69215
5.61131
5.53359
5.45583
5.37866
5.30239
5.22504
5.14595
5.06697
4.98828
4.90926
4.83032
4.75198
4.6739
4.59574
4.5176
4.44058
4.36444
4.28827
4.21258
5.78342
5.7037
5.62956
5.55188
5.47293
5.39421
5.31627
5.2377
5.15788
5.07828
4.99985
4.92212
4.84462
4.76699
4.68941
4.61191
4.53422
4.45696
4.38135
4.30663
4.23161
5.80532
5.72704
5.64503
5.5683
5.48785
5.40773
5.32855
5.24863
5.16895
5.09081
5.01331
4.93562
4.8585
4.78238
4.706
4.62832
4.55035
4.4737
4.39889
4.32478
4.24996
5.82235
5.73858
5.66438
5.58071
5.4999
5.41914
5.33954
5.26057
5.18237
5.10468
5.02703
4.94992
4.87378
4.79763
4.72098
4.64451
4.56811
4.49164
4.41611
4.34195
4.26785
5.83092
5.75272
5.67335
5.59552
5.51104
5.43091
5.35172
5.27329
5.19539
5.11894
5.0425
4.96523
4.8881
4.81223
4.73708
4.66131
4.58508
4.5094
4.43433
4.35967
4.28533
5.84481
5.76481
5.68344
5.60054
5.52069
5.44311
5.36549
5.28693
5.20998
5.13376
5.05664
4.97997
4.90434
4.82841
4.75197
4.67667
4.6025
4.52765
4.45183
4.37643
4.3024
5.85729
5.77288
5.6893
5.60825
5.53452
5.45682
5.37883
5.30168
5.22388
5.14753
5.07187
4.99617
4.92017
4.84413
4.76853
4.69337
4.61842
4.54394
4.4693
4.39413
4.31991
5.85616
5.77806
5.69967
5.62175
5.54678
5.47145
5.39104
5.31356
5.23882
5.16327
5.08689
5.01087
4.93639
4.86115
4.78436
4.70836
4.63436
4.56046
4.4855
4.41066
4.33723
5.86998
5.79205
5.71511
5.63785
5.55936
5.48038
5.40617
5.32846
5.25305
5.17904
5.10268
5.02678
4.95192
4.87654
4.80062
4.72488
4.64974
4.57555
4.50189
4.42829
4.35495
5.8866
5.80509
5.72494
5.64728
5.56893
5.49302
5.41875
5.34545
5.27291
5.19588
5.11889
5.0415
4.9662
4.89145
4.81529
4.73968
4.66586
4.59237
4.51836
4.44502
4.37223
5.88503
5.8054
5.7256
5.65268
5.58174
5.50989
5.43535
5.36102
5.28404
5.20795
5.13246
5.05714
4.98217
4.90674
4.8308
4.75564
4.68154
4.60833
4.53556
4.46309
4.39046
5.90723
5.82845
5.74904
5.67461
5.60141
5.52706
5.45075
5.37281
5.29512
5.22532
5.14732
5.06885
4.99544
4.92194
4.84672
4.77181
4.69853
4.62587
4.55289
4.4802
4.40805
5.91672
5.83828
5.7603
5.68417
5.60861
5.53349
5.45941
5.38312
5.3077
5.23424
5.16169
5.08699
5.00978
4.93603
4.86236
4.78837
4.71525
4.64276
4.57027
4.49768
4.4254
5.93059
5.85284
5.77488
5.69752
5.62006
5.54558
5.47202
5.39723
5.32225
5.24752
5.17524
5.09892
5.02367
4.95266
4.88045
4.80718
4.73292
4.65941
4.5865
4.51374
4.44172
5.95741
5.86989
5.78954
5.71282
5.63479
5.55929
5.48357
5.40809
5.33421
5.26041
5.18695
5.11326
5.04191
4.96776
4.89489
4.82297
4.74983
4.67585
4.60268
4.52975
4.4577
5.9565
5.87119
5.79296
5.71694
5.64205
5.56639
5.49161
5.41691
5.34434
5.2731
5.20119
5.13029
5.05674
4.98457
4.9149
4.83872
4.76249
4.68918
4.6175
4.54628
4.47535
5.97695
5.89309
5.81353
5.7383
5.66256
5.58572
5.50941
5.4343
5.36088
5.28835
5.21703
5.14635
5.07249
4.99873
4.92528
4.85474
4.78016
4.70455
4.63347
4.56336
4.49279
6.00551
5.91174
5.82667
5.74915
5.67214
5.59513
5.51979
5.44602
5.37362
5.29961
5.22822
5.16063
5.08636
5.00918
4.9387
4.86875
4.79373
4.71979
4.64956
4.58133
4.51155
5.95705
5.91446
5.8389
5.76071
5.68336
5.60832
5.53461
5.46178
5.38953
5.31605
5.24265
5.17312
5.09949
5.02159
4.9505
4.88255
4.81042
4.73799
4.66822
4.5993
4.52985
6.00591
5.96438
5.87019
5.77543
5.69853
5.62594
5.5527
5.47852
5.40536
5.33072
5.256
5.1831
5.10997
5.03435
4.96417
4.8976
4.82932
4.75755
4.68715
4.62003
4.54941
5.82371
5.92494
5.86332
5.78467
5.71192
5.63946
5.5654
5.48905
5.41445
5.33974
5.26549
5.19337
5.12199
5.04991
4.98225
4.9159
4.84689
4.77676
4.70652
4.63466
4.56412
5.4806
5.94392
5.89196
5.81468
5.73538
5.65712
5.57889
5.50172
5.42796
5.35461
5.28198
5.21087
5.13993
5.0702
5.00128
4.9335
4.86427
4.79258
4.72071
4.64974
4.58041
4.65757
5.92526
5.91881
5.83215
5.74081
5.66184
5.58491
5.51087
5.43926
5.36849
5.29793
5.22734
5.15584
5.08683
5.01613
4.94608
4.87709
4.80663
4.73499
4.66439
4.59712
3.25927
5.51255
5.86106
5.82468
5.74647
5.6711
5.60108
5.53162
5.46119
5.39007
5.31838
5.24608
5.17363
5.10238
5.03108
4.95963
4.89011
4.8211
4.74944
4.67863
4.61198
5.01696
5.8879
5.86428
5.78554
5.6955
5.62315
5.5518
5.47872
5.406
5.33316
5.25997
5.18742
5.11594
5.04449
4.97271
4.90266
4.83415
4.76416
4.69397
4.62758
3.85529
5.6035
5.82748
5.78459
5.714
5.63994
5.56519
5.49157
5.41809
5.34457
5.2713
5.19977
5.1284
5.05787
4.98647
4.91654
4.84787
4.77896
4.71099
4.64486
2.32284
5.25548
5.87978
5.82248
5.74114
5.65669
5.5772
5.50389
5.43247
5.36
5.28704
5.21537
5.14432
5.07389
5.00351
4.93408
4.86554
4.79621
4.72846
4.66266
1.31406
4.32888
5.79396
5.81305
5.74324
5.66012
5.58381
5.51235
5.44148
5.3701
5.29916
5.22869
5.15798
5.08784
5.01809
4.9498
4.88152
4.81306
4.74505
4.6788
1.02745
2.86447
5.37128
5.78467
5.75385
5.67718
5.60177
5.53068
5.45928
5.38702
5.31616
5.24606
5.17661
5.10695
5.03773
4.96933
4.9009
4.83206
4.76384
4.69659
1.00104
1.58098
4.69678
5.79956
5.78693
5.71392
5.62052
5.54361
5.47078
5.39921
5.3299
5.26135
5.19263
5.1234
5.05429
4.98569
4.91681
4.84797
4.77977
4.71216
1.00003
1.07575
3.39755
5.43058
5.73175
5.69773
5.62845
5.55425
5.48384
5.41572
5.34851
5.28082
5.21177
5.142
5.07214
5.00271
4.93339
4.86448
4.79619
4.72853
1
1.00364
1.94536
4.99111
5.76124
5.7368
5.66769
5.57836
5.50405
5.43612
5.36829
5.29883
5.2277
5.15715
5.08736
5.01767
4.94817
4.87972
4.81193
4.74416
1
1.0001
1.17709
3.89098
5.51129
5.70383
5.66573
5.59428
5.51948
5.4494
5.37995
5.31053
5.24029
5.17035
5.10106
5.03158
4.96219
4.89405
4.8266
4.75868
1
1
1.01187
2.37825
5.16735
5.74441
5.69561
5.61854
5.53858
5.46554
5.39567
5.32557
5.25512
5.1859
5.11753
5.04818
4.9784
4.91009
4.84282
4.77516
1
1
1.0004
1.34059
4.2671
5.67096
5.6917
5.62582
5.54788
5.47477
5.40568
5.33674
5.26671
5.19709
5.12951
5.06173
4.99286
4.92451
4.85726
4.79045
1
1
1.00001
1.03188
2.82753
5.2464
5.66184
5.63509
5.56508
5.49091
5.42176
5.35267
5.28247
5.21353
5.14635
5.07904
5.01084
4.94288
4.87591
4.8098
1
1
1
1.00131
1.56529
4.56563
5.6742
5.67116
5.60436
5.50956
5.4342
5.36504
5.29539
5.22712
5.161
5.09479
5.02745
4.95985
4.89306
4.82766
1
1
1
1.00003
1.07327
3.26592
5.29039
5.61459
5.58504
5.51748
5.44379
5.37677
5.31073
5.24475
5.1793
5.11295
5.04641
4.97988
4.9133
4.84762
1
1
1
1
1.00365
1.85748
4.80733
5.64159
5.62315
5.55146
5.46774
5.39638
5.3286
5.26218
5.19657
5.13025
5.06416
4.99844
4.93205
4.86529
1
1
1
1
1.00011
1.15056
3.66844
5.36332
5.58436
5.5498
5.48117
5.40911
5.34153
5.27693
5.21183
5.14572
5.08074
5.01658
4.95034
4.88282
1
1
1
1
1
1.00967
2.19246
4.99135
5.61001
5.58485
5.51282
5.43022
5.3587
5.29529
5.23115
5.16457
5.09838
5.0337
4.96719
4.89959
1
1
1
1
1
1.00033
1.2679
4.00656
5.45671
5.56357
5.51612
5.44126
5.37186
5.30959
5.24512
5.17802
5.11198
5.04692
4.97982
4.91235
1
1
1
1
1
1.00001
1.02254
2.53644
5.11226
5.56836
5.53614
5.46845
5.39673
5.33036
5.26459
5.19607
5.1274
5.06063
4.99418
4.92815
1
1
1
1
1
1
1.00088
1.41773
4.27733
5.53441
5.55763
5.48975
5.41168
5.34115
5.2739
5.20693
5.13946
5.07112
5.00424
4.93987
1
1
1
1
1
1
1.00002
1.04522
2.88881
5.11819
5.51146
5.48775
5.42258
5.35298
5.28566
5.21962
5.15418
5.08782
5.02178
4.95694
1
1
1
1
1
1
1
1.0021
1.60721
4.48204
5.5247
5.52715
5.46312
5.37548
5.30126
5.23463
5.1692
5.10323
5.03758
4.97278
1
1
1
1
1
1
1
1.00006
1.0837
3.21824
5.14944
5.47153
5.44466
5.3843
5.31195
5.24612
5.18287
5.1194
5.05487
4.99041
1
1
1
1
1
1
1
1
1.00452
1.83604
4.65951
5.49437
5.48455
5.42321
5.3362
5.26507
5.20022
5.13639
5.07286
5.00927
1
1
1
1
1
1
1
1
1.00014
1.14588
3.52022
5.19901
5.4434
5.41418
5.35001
5.27987
5.21486
5.1506
5.08787
5.02598
1
1
1
1
1
1
1
1
1
1.00963
2.08251
4.79269
5.47093
5.44849
5.3817
5.30275
5.23286
5.16755
5.10528
5.04429
1
1
1
1
1
1
1
1
1
1.00034
1.22865
3.7666
5.27968
5.41871
5.3841
5.31491
5.24663
5.1816
5.11909
5.05834
1
1
1
1
1
1
1
1
1
1.00001
1.01824
2.32335
4.91887
5.42365
5.40599
5.34087
5.26956
5.20229
5.13741
5.07468
1
1
1
1
1
1
1
1
1
1
1.00072
1.32655
3.99238
5.31251
5.40024
5.35298
5.28331
5.21674
5.15207
5.08826
1
1
1
1
1
1
1
1
1
1
1.00002
1.03138
2.56344
4.97819
5.39218
5.36734
5.30455
5.23674
5.17272
5.10925
1
1
1
1
1
1
1
1
1
1
1
1.00138
1.43689
4.15915
5.36544
5.38999
5.3288
5.25408
5.18858
5.12516
1.32924
1.33503
1.3391
1.33937
1.3389
1.33724
1.33292
1.32627
1.32291
1.32212
1.32155
1.32108
1.32075
1.32023
1.31958
1.31871
1.31717
1.31542
1.31486
1.31458
1.31446
1.31441
1.31389
1.31314
1.3117
1.30866
1.30401
1.30123
1.30044
1.30015
1.30044
1.30249
1.30482
1.30526
1.30505
1.30481
1.30412
1.30176
1.29741
1.29554
1.29541
1.29558
3.96286
3.92652
3.8892
3.85043
3.81603
3.7798
3.74536
3.7057
3.67135
3.64
3.60683
3.57404
3.53527
3.48703
3.44207
3.43649
3.48363
3.75637
4.20819
4.39398
4.40063
4.35594
4.28322
4.20601
4.13548
4.0764
4.01871
3.96095
3.90336
3.84433
3.78897
3.73403
3.67738
3.62298
3.5674
3.51451
3.46169
3.40475
3.34884
3.29314
3.24222
3.19981
3.15523
3.11023
3.06621
3.0147
2.96929
2.93057
2.8909
2.85646
2.82286
2.77983
2.73839
2.69825
2.65793
2.62323
2.58963
2.55679
2.52128
2.48227
2.4479
2.40963
2.37587
2.34846
2.31954
2.28685
2.25941
2.24122
2.2101
2.17772
2.15752
2.133
2.10595
2.07674
2.05723
2.03259
2.00666
1.97936
1.95817
1.93579
1.90397
1.87788
1.86542
1.8526
1.8298
1.81251
1.79988
1.78063
1.76004
1.73339
1.71863
1.70365
1.68627
1.67023
1.65243
1.63462
1.61544
1.59706
1.58219
1.56892
1.54899
1.52773
1.51777
1.51208
1.50226
1.49105
1.48139
1.46849
1.45068
1.43326
1.41814
1.40592
1.39386
1.37781
1.36347
1.35978
1.3577
1.35449
1.35104
1.34798
1.34363
1.33359
1.32551
1.3243
1.32429
1.32758
1.33632
1.34228
1.34328
1.34335
1.33939
1.32983
1.32614
1.32685
1.32897
1.33597
1.34789
1.35241
1.35255
1.35174
1.34895
1.34414
1.34042
1.33966
1.33944
1.33936
1.33866
1.3375
1.33527
1.33066
1.32373
1.32033
1.31987
1.31981
1.32066
1.32428
1.33088
1.33418
1.33379
1.33217
1.32833
1.31989
1.3123
1.31089
1.31052
1.31032
1.31081
1.3145
1.32138
1.32463
1.3248
1.32443
1.32278
1.31867
1.31563
1.31541
1.31575
1.31709
1.32045
1.32311
1.32366
1.3239
1.32351
1.32215
1.32202
1.32246
1.32312
1.32497
1.33066
1.33759
1.33913
1.33917
1.3386
1.33592
1.33039
1.32528
1.32373
1.32313
1.32265
1.32242
1.32258
1.32224
1.32158
1.32042
1.31847
1.31757
1.31726
1.31687
1.31621
1.31531
1.31418
1.31249
1.30939
1.30467
1.30178
1.30103
1.30075
1.30103
1.30292
1.30484
1.3051
1.3049
1.30472
1.30436
1.30275
1.29878
1.29617
1.29591
1.29603
1.29706
3.98507
3.94807
3.90907
3.87357
3.83773
3.80204
3.76434
3.72687
3.6961
3.66091
3.62929
3.59272
3.56132
3.52301
3.46856
3.43865
3.44826
3.57447
3.96189
4.32595
4.40035
4.37931
4.3215
4.24089
4.16947
4.10908
4.05089
3.99401
3.93578
3.87971
3.82311
3.76451
3.70831
3.65241
3.59974
3.54667
3.48943
3.43342
3.3763
3.32384
3.2809
3.23647
3.19205
3.14861
3.0975
3.05025
3.00967
2.96945
2.93345
2.89814
2.85906
2.81327
2.76928
2.72951
2.69377
2.65583
2.62254
2.58805
2.54804
2.51198
2.4752
2.4412
2.41265
2.38111
2.35418
2.32088
2.29335
2.27102
2.23985
2.20766
2.18726
2.16662
2.13385
2.10719
2.08587
2.06072
2.03218
2.00696
1.98547
1.96132
1.93246
1.90829
1.89624
1.88185
1.85747
1.84026
1.82466
1.80546
1.78027
1.75617
1.74601
1.73186
1.71626
1.69678
1.67743
1.65706
1.63695
1.61989
1.60297
1.588
1.57064
1.55387
1.547
1.54224
1.53222
1.51874
1.50464
1.48791
1.46789
1.45135
1.43898
1.42702
1.4125
1.39207
1.37898
1.37599
1.3733
1.36877
1.3638
1.35815
1.3472
1.33295
1.32898
1.32812
1.32906
1.33509
1.34105
1.34205
1.34177
1.33773
1.32665
1.32058
1.32113
1.32347
1.32998
1.34312
1.35006
1.35062
1.3506
1.34939
1.34549
1.34191
1.34118
1.34128
1.34196
1.34155
1.34026
1.33757
1.33214
1.32396
1.32009
1.31954
1.31941
1.32028
1.32442
1.33182
1.3357
1.33537
1.33374
1.32987
1.32118
1.31226
1.31034
1.30991
1.30967
1.31009
1.31366
1.32051
1.32394
1.32408
1.32362
1.32209
1.31809
1.31385
1.313
1.31301
1.31357
1.31577
1.31913
1.32026
1.32051
1.3204
1.31864
1.31766
1.31816
1.3188
1.32039
1.32507
1.33368
1.33741
1.3378
1.33788
1.33682
1.33299
1.32742
1.32505
1.32454
1.32422
1.32416
1.32523
1.3256
1.32505
1.3242
1.32264
1.32051
1.31967
1.31911
1.31827
1.31711
1.31568
1.31377
1.31071
1.30612
1.30289
1.3021
1.30182
1.302
1.30351
1.305
1.30518
1.30503
1.30491
1.30473
1.3038
1.30056
1.29713
1.29648
1.29656
1.29737
1.29936
4.00543
3.96705
3.9295
3.89384
3.85772
3.82194
3.78289
3.75107
3.71682
3.68364
3.64824
3.61385
3.58532
3.55041
3.50087
3.4523
3.44557
3.48101
3.72063
4.15644
4.36491
4.38619
4.35259
4.27989
4.20733
4.141
4.0803
4.022
3.96727
3.91143
3.85291
3.79524
3.73668
3.68309
3.62998
3.5734
3.51849
3.46187
3.40884
3.36402
3.31845
3.27365
3.22941
3.17989
3.13284
3.09027
3.04878
3.01243
2.97423
2.93312
2.88952
2.84243
2.79786
2.76329
2.72777
2.68851
2.65353
2.615
2.57743
2.53936
2.50592
2.47816
2.44558
2.41726
2.3866
2.35353
2.32713
2.29937
2.27087
2.23999
2.21924
2.19731
2.16209
2.13513
2.11353
2.08907
2.05687
2.03529
2.01307
1.98951
1.95996
1.94003
1.92677
1.90938
1.88467
1.86616
1.84898
1.82924
1.80175
1.78401
1.77467
1.76138
1.74355
1.72043
1.69965
1.67781
1.65883
1.63985
1.62378
1.60998
1.59636
1.58381
1.57771
1.57158
1.5597
1.54315
1.52521
1.50553
1.48558
1.4712
1.46052
1.448
1.43037
1.4082
1.39964
1.3968
1.39261
1.38674
1.37946
1.36777
1.34905
1.33987
1.33796
1.33724
1.33968
1.34427
1.34492
1.34391
1.33887
1.32599
1.31743
1.3171
1.31828
1.32306
1.33543
1.34573
1.34737
1.34779
1.34766
1.34513
1.34221
1.34169
1.3424
1.34433
1.34447
1.3434
1.34046
1.33438
1.32515
1.32031
1.31964
1.31944
1.32023
1.32466
1.33279
1.33725
1.337
1.33533
1.33148
1.32281
1.31258
1.30985
1.30937
1.30912
1.3095
1.31303
1.31996
1.32346
1.32354
1.323
1.32169
1.31821
1.31304
1.31112
1.31094
1.31109
1.3124
1.31532
1.31706
1.31735
1.31727
1.31567
1.31315
1.31317
1.31397
1.31564
1.31924
1.32758
1.33422
1.33529
1.33563
1.33556
1.33374
1.32877
1.32526
1.32484
1.32484
1.32514
1.32703
1.32898
1.32879
1.32787
1.32625
1.3242
1.3223
1.32099
1.32002
1.31891
1.31753
1.31571
1.31288
1.30839
1.30461
1.30373
1.30344
1.30341
1.30439
1.30563
1.30563
1.30546
1.30539
1.30527
1.30486
1.30278
1.29886
1.29732
1.2973
1.29778
1.29934
1.30081
4.02371
3.98538
3.94935
3.91294
3.87729
3.83822
3.80488
3.77201
3.73717
3.70407
3.66565
3.63693
3.60553
3.57264
3.52875
3.47978
3.44967
3.45481
3.55733
3.90843
4.28196
4.38283
4.36927
4.31551
4.24442
4.17259
4.10542
4.04973
3.99512
3.93733
3.88029
3.8214
3.76708
3.71372
3.65718
3.60209
3.54609
3.49426
3.44861
3.40206
3.35697
3.31132
3.26164
3.21443
3.17013
3.12775
3.09046
3.05133
3.00857
2.9632
2.91544
2.87129
2.82934
2.79705
2.76129
2.71969
2.6804
2.64468
2.60548
2.56913
2.54255
2.51159
2.48137
2.45184
2.41512
2.3874
2.35732
2.33062
2.30177
2.27489
2.25143
2.22531
2.19136
2.16129
2.14091
2.11558
2.08371
2.06352
2.04262
2.01804
1.98673
1.97151
1.9559
1.93614
1.91074
1.89184
1.87361
1.85302
1.82774
1.81437
1.80404
1.7897
1.76768
1.74114
1.71894
1.69834
1.67964
1.65914
1.64788
1.63714
1.62533
1.61374
1.60751
1.59887
1.5843
1.564
1.54154
1.5218
1.50558
1.49396
1.48269
1.46692
1.44535
1.42901
1.42437
1.42086
1.41537
1.40763
1.39573
1.37461
1.35759
1.35402
1.35154
1.35112
1.35291
1.35293
1.3514
1.34612
1.33151
1.31707
1.31429
1.31444
1.31744
1.32768
1.33976
1.34302
1.34359
1.34383
1.34187
1.33952
1.33957
1.34124
1.34524
1.34688
1.3463
1.34334
1.337
1.32703
1.32078
1.31988
1.31975
1.32067
1.32542
1.33428
1.33914
1.33892
1.33714
1.33316
1.32442
1.31312
1.3095
1.30902
1.30881
1.30921
1.31268
1.31952
1.32303
1.32304
1.32251
1.32147
1.31872
1.31337
1.31007
1.30955
1.30948
1.31012
1.31234
1.31424
1.31464
1.31459
1.31338
1.3099
1.30901
1.30968
1.31106
1.31379
1.32051
1.32922
1.33184
1.33235
1.3327
1.3324
1.32909
1.3247
1.32375
1.324
1.32475
1.32678
1.33023
1.33114
1.3307
1.32941
1.32731
1.3252
1.32349
1.32195
1.32058
1.31928
1.31778
1.31557
1.31167
1.30718
1.30587
1.30554
1.30533
1.30539
1.30636
1.30675
1.30644
1.30634
1.30618
1.30596
1.3049
1.30141
1.29861
1.29839
1.29849
1.2994
1.30049
1.30065
4.04132
4.00439
3.96807
3.93248
3.89445
3.85857
3.82624
3.79085
3.75835
3.72023
3.68808
3.65691
3.6238
3.59209
3.55321
3.50889
3.46476
3.45359
3.47801
3.68488
4.09575
4.33817
4.37135
4.34242
4.28093
4.20247
4.13411
4.0772
4.01968
3.96334
3.9059
3.85178
3.79828
3.7424
3.68794
3.63171
3.57953
3.5326
3.48514
3.43995
3.39377
3.34505
3.29767
3.25085
3.2064
3.16681
3.12647
3.08285
3.03694
2.98808
2.94346
2.90121
2.86506
2.83076
2.79139
2.74887
2.70791
2.67414
2.63662
2.60522
2.57668
2.54729
2.51764
2.4789
2.44751
2.41724
2.38845
2.36259
2.33405
2.30977
2.28111
2.25311
2.21805
2.18869
2.16827
2.1427
2.11172
2.09143
2.07263
2.04348
2.01491
2.00159
1.98437
1.96272
1.9361
1.91795
1.89937
1.87872
1.85703
1.84559
1.83278
1.81504
1.78874
1.75891
1.73742
1.71997
1.70018
1.68242
1.67558
1.6667
1.65456
1.64335
1.63568
1.62418
1.60558
1.57971
1.55645
1.54084
1.52789
1.51636
1.50255
1.48316
1.46401
1.45584
1.45141
1.44639
1.43946
1.42853
1.408
1.3831
1.37596
1.37253
1.36916
1.36782
1.3667
1.36431
1.35845
1.34231
1.32274
1.3163
1.31558
1.31665
1.32405
1.33535
1.33958
1.33997
1.33917
1.33593
1.33406
1.33476
1.33726
1.34282
1.34631
1.3465
1.34514
1.34008
1.32984
1.32186
1.32041
1.32033
1.32149
1.32679
1.33647
1.34148
1.34114
1.33933
1.33537
1.32663
1.3143
1.30938
1.30883
1.30869
1.30919
1.31259
1.3192
1.32268
1.32264
1.3221
1.32131
1.3192
1.3143
1.31001
1.30894
1.30867
1.30887
1.31029
1.31194
1.3124
1.31242
1.31165
1.30856
1.30612
1.3062
1.30698
1.30901
1.31415
1.32318
1.32793
1.3287
1.3291
1.32923
1.32766
1.32355
1.32182
1.3219
1.32255
1.32442
1.32859
1.33134
1.33144
1.33096
1.32965
1.32792
1.32626
1.32468
1.32301
1.32136
1.31985
1.31817
1.31544
1.31091
1.30852
1.30799
1.30755
1.30723
1.30718
1.30791
1.30826
1.30804
1.30787
1.30763
1.30713
1.30468
1.30061
1.29961
1.29952
1.2997
1.30019
1.30015
1.29976
4.05978
4.02355
3.98774
3.95093
3.91329
3.88075
3.8456
3.81195
3.77501
3.74
3.70979
3.67433
3.643
3.60627
3.57588
3.54031
3.48898
3.45582
3.46515
3.54718
3.85573
4.23698
4.36102
4.3558
4.31169
4.2346
4.16584
4.10294
4.04422
3.9869
3.93415
3.88186
3.82697
3.77317
3.71808
3.66722
3.61901
3.56958
3.5225
3.47457
3.42635
3.37963
3.33171
3.28599
3.24394
3.201
3.15648
3.10972
3.06014
3.01475
2.97241
2.9356
2.90099
2.86123
2.82173
2.777
2.73762
2.7074
2.67248
2.64014
2.61269
2.58472
2.54608
2.50871
2.47682
2.44681
2.42149
2.39308
2.36907
2.33991
2.31017
2.2798
2.2427
2.21891
2.19594
2.17094
2.14109
2.11936
2.09958
2.06807
2.04362
2.03022
2.01315
1.98879
1.96206
1.94503
1.92705
1.90649
1.88778
1.87585
1.8588
1.83643
1.80553
1.775
1.75815
1.74389
1.72357
1.71042
1.705
1.69603
1.68295
1.67147
1.66097
1.64671
1.62337
1.59369
1.57386
1.56256
1.55094
1.5367
1.51933
1.50076
1.48971
1.48415
1.47864
1.47208
1.46286
1.44582
1.41692
1.40156
1.39826
1.39356
1.38917
1.38632
1.383
1.37665
1.35921
1.33474
1.3225
1.32056
1.32041
1.32562
1.3356
1.33969
1.33975
1.33814
1.33284
1.32872
1.32893
1.33113
1.33739
1.34385
1.34484
1.34447
1.34097
1.33157
1.32282
1.32103
1.32102
1.3223
1.32803
1.33888
1.34465
1.34426
1.34211
1.33769
1.32857
1.31551
1.30994
1.3092
1.30909
1.30972
1.31303
1.31914
1.32235
1.32235
1.32185
1.32121
1.31956
1.31537
1.31049
1.3089
1.30849
1.30841
1.30922
1.3103
1.31067
1.31073
1.3101
1.30753
1.30425
1.30372
1.30397
1.30518
1.30892
1.31703
1.32366
1.32501
1.32551
1.32579
1.32495
1.32109
1.31871
1.31881
1.3195
1.32067
1.32389
1.32898
1.33069
1.33065
1.33024
1.32942
1.32841
1.32725
1.32589
1.3243
1.3226
1.3209
1.31889
1.31559
1.31182
1.31065
1.31002
1.30945
1.30911
1.30925
1.31035
1.31069
1.31037
1.31005
1.30968
1.30806
1.30376
1.30084
1.30044
1.30026
1.30017
1.29992
1.29937
1.2983
4.07904
4.04313
4.00745
3.96951
3.93573
3.9012
3.86647
3.83107
3.79368
3.76306
3.72821
3.69462
3.65909
3.6244
3.59763
3.56466
3.52004
3.46962
3.46304
3.4824
3.65295
4.04066
4.30855
4.3539
4.33083
4.26964
4.20003
4.13193
4.06856
4.01698
3.96637
3.9119
3.85816
3.80294
3.75243
3.70484
3.65501
3.60732
3.55728
3.50785
3.46082
3.41166
3.36442
3.32033
3.27575
3.23088
3.18309
3.13282
3.08639
3.04339
3.00638
2.97154
2.93203
2.89295
2.85035
2.806
2.77447
2.7422
2.70947
2.67716
2.64833
2.61506
2.57399
2.53691
2.50576
2.47941
2.45181
2.42759
2.39982
2.36796
2.33963
2.30016
2.27264
2.24973
2.22465
2.19985
2.16965
2.14614
2.12404
2.09492
2.07268
2.05908
2.04192
2.01468
1.98918
1.97308
1.95622
1.93504
1.91789
1.90305
1.88101
1.8539
1.81834
1.79377
1.78291
1.77045
1.7506
1.73997
1.73436
1.72452
1.71026
1.69714
1.68327
1.66515
1.63766
1.61092
1.59565
1.58548
1.57262
1.55377
1.53687
1.52503
1.51768
1.51158
1.50481
1.49655
1.48322
1.45688
1.43169
1.42631
1.42223
1.41658
1.41136
1.4066
1.39944
1.38106
1.35373
1.33613
1.33265
1.33131
1.33336
1.34079
1.34423
1.34381
1.34133
1.33369
1.32695
1.3262
1.32669
1.33089
1.33906
1.34166
1.34187
1.34011
1.3315
1.32234
1.3205
1.32063
1.32241
1.32875
1.34054
1.34711
1.34691
1.3451
1.34082
1.33194
1.31806
1.31094
1.30984
1.30959
1.31026
1.31399
1.31987
1.32227
1.32208
1.32166
1.32114
1.31986
1.31643
1.31132
1.30907
1.30852
1.30833
1.30871
1.30931
1.30949
1.3095
1.30897
1.30669
1.30293
1.30183
1.3018
1.3024
1.30505
1.31182
1.31949
1.3217
1.32214
1.32244
1.32229
1.31912
1.31488
1.31477
1.3155
1.31652
1.31872
1.32342
1.32781
1.32922
1.32937
1.32926
1.329
1.32862
1.32786
1.32669
1.3253
1.32376
1.32198
1.3195
1.31595
1.31349
1.31268
1.31205
1.3116
1.3116
1.31275
1.31387
1.31362
1.31308
1.31254
1.31106
1.30707
1.30295
1.30153
1.30098
1.30058
1.30016
1.29949
1.29825
1.29666
4.09833
4.06291
4.02588
3.99066
3.95708
3.92183
3.88719
3.84856
3.81674
3.7832
3.74811
3.71454
3.67538
3.64769
3.61744
3.58673
3.5476
3.49926
3.46944
3.47523
3.53744
3.81052
4.1879
4.3386
4.34292
4.30368
4.23886
4.16299
4.09828
4.04877
3.99669
3.9448
3.8892
3.83726
3.7891
3.73812
3.68969
3.6396
3.58994
3.54247
3.49202
3.44308
3.39645
3.34973
3.30509
3.25709
3.20684
3.15984
3.11535
3.07835
3.04276
3.00304
2.96403
2.92247
2.87759
2.84399
2.81046
2.77833
2.74688
2.71233
2.67959
2.64092
2.60032
2.56607
2.53786
2.51125
2.4861
2.45886
2.42696
2.39822
2.36004
2.3266
2.30488
2.27852
2.25534
2.22626
2.19654
2.17209
2.14938
2.12373
2.1039
2.08926
2.07012
2.04123
2.01717
2.00213
1.98563
1.96335
1.94521
1.92562
1.89871
1.8674
1.83302
1.81948
1.81117
1.79855
1.77871
1.76861
1.76264
1.75173
1.73638
1.72115
1.7035
1.67901
1.65161
1.63232
1.61968
1.60834
1.59208
1.57152
1.55997
1.5521
1.54469
1.53759
1.52944
1.51853
1.49835
1.46787
1.45628
1.45245
1.44718
1.44112
1.43462
1.4262
1.40756
1.37759
1.35485
1.35012
1.34833
1.34844
1.35166
1.35334
1.35239
1.35
1.3409
1.32865
1.32493
1.32464
1.32701
1.33478
1.339
1.33915
1.33722
1.32862
1.31972
1.3187
1.31902
1.32113
1.32822
1.34126
1.34917
1.34937
1.34767
1.34321
1.33458
1.32084
1.31305
1.3117
1.31144
1.31207
1.31572
1.32109
1.32276
1.32217
1.32162
1.32111
1.32008
1.31738
1.31242
1.30944
1.30868
1.30826
1.30837
1.30874
1.30876
1.30868
1.30815
1.30607
1.30206
1.30036
1.30021
1.3005
1.30238
1.30791
1.31577
1.31881
1.31928
1.31956
1.31949
1.31734
1.31237
1.31066
1.31124
1.31221
1.31371
1.31722
1.32285
1.3259
1.32711
1.32787
1.32815
1.32823
1.32824
1.3279
1.32689
1.32548
1.32397
1.32211
1.31948
1.31669
1.31542
1.31486
1.31444
1.31441
1.31576
1.31738
1.31718
1.31655
1.31581
1.31406
1.31
1.30514
1.30312
1.3023
1.30161
1.30099
1.3003
1.29907
1.29709
1.2959
4.11796
4.08175
4.04514
4.01182
3.97697
3.94297
3.90481
3.87098
3.83856
3.80263
3.77
3.73135
3.69984
3.66953
3.63712
3.60822
3.57123
3.53291
3.4885
3.47492
3.48963
3.63101
3.9775
4.28
4.34174
4.32591
4.27683
4.19932
4.13533
4.07998
4.02717
3.97368
3.92222
3.87419
3.82206
3.77106
3.71886
3.66882
3.62252
3.57215
3.52225
3.47399
3.42449
3.3794
3.33144
3.28153
3.23473
3.18882
3.15187
3.11572
3.0752
3.03568
2.99394
2.94917
2.91402
2.87957
2.84613
2.81583
2.77961
2.74474
2.70632
2.66556
2.62962
2.59705
2.5713
2.5464
2.5179
2.48607
2.45651
2.42009
2.38203
2.35928
2.33357
2.3092
2.28363
2.24936
2.22351
2.19873
2.1782
2.15455
2.13748
2.11967
2.09767
2.06793
2.04596
2.03176
2.01413
1.99021
1.96865
1.94311
1.91314
1.88053
1.8569
1.84992
1.84066
1.8266
1.80654
1.79651
1.78958
1.77667
1.75962
1.7432
1.72173
1.69149
1.66901
1.65578
1.64424
1.62966
1.61071
1.59507
1.58612
1.57817
1.57018
1.56218
1.5523
1.5369
1.51013
1.48852
1.48332
1.47858
1.47275
1.46583
1.45636
1.43709
1.40566
1.37883
1.37223
1.37027
1.36973
1.36941
1.36818
1.36591
1.3627
1.35325
1.33713
1.32904
1.32784
1.32834
1.3339
1.33855
1.3388
1.33698
1.3283
1.31769
1.31598
1.31612
1.31797
1.32502
1.33942
1.34919
1.35008
1.34934
1.34583
1.33794
1.32467
1.31531
1.31329
1.31312
1.31425
1.31852
1.3231
1.32358
1.32277
1.32202
1.32132
1.32038
1.31833
1.31392
1.31002
1.30891
1.30832
1.30811
1.30836
1.30834
1.30815
1.30755
1.30564
1.30162
1.29923
1.29893
1.29911
1.30053
1.3051
1.3126
1.31631
1.31682
1.31705
1.31703
1.31576
1.31079
1.30683
1.30701
1.3078
1.30911
1.31143
1.31659
1.32199
1.32384
1.32487
1.32602
1.32671
1.32694
1.32707
1.32694
1.32611
1.32467
1.32309
1.32138
1.31944
1.3181
1.31757
1.31728
1.31732
1.31874
1.32092
1.3209
1.32012
1.31914
1.31708
1.31302
1.30774
1.3049
1.30404
1.30331
1.30258
1.30186
1.30081
1.29871
1.29664
1.29616
4.13734
4.10038
4.06572
4.03124
3.99701
3.96034
3.9243
3.89298
3.85756
3.82449
3.78751
3.75313
3.72391
3.68928
3.66003
3.62532
3.59581
3.56494
3.51606
3.48023
3.48337
3.53007
3.75966
4.13913
4.3036
4.3293
4.30317
4.24008
4.17593
4.11508
4.05697
4.00268
3.9553
3.9044
3.8533
3.79998
3.74699
3.70051
3.65066
3.60007
3.55153
3.50078
3.45508
3.4071
3.35725
3.31084
3.26362
3.22617
3.1899
3.14859
3.10861
3.06589
3.02095
2.98458
2.94881
2.9139
2.8833
2.84671
2.81061
2.77197
2.73019
2.69493
2.65968
2.63158
2.60837
2.57899
2.54602
2.51483
2.47869
2.4394
2.4136
2.38834
2.36333
2.34012
2.30419
2.27574
2.25046
2.22913
2.20923
2.18844
2.17103
2.14822
2.12413
2.09461
2.07631
2.06123
2.04114
2.01413
1.98657
1.95636
1.92869
1.9012
1.8887
1.88178
1.86992
1.85317
1.83277
1.82349
1.8156
1.80134
1.78089
1.76146
1.73587
1.70633
1.69054
1.6803
1.66851
1.64902
1.63112
1.62206
1.61289
1.6033
1.59452
1.58555
1.57332
1.55224
1.52629
1.51514
1.50973
1.50436
1.49779
1.48843
1.46959
1.43686
1.40673
1.39813
1.39572
1.39485
1.39327
1.38973
1.38585
1.38105
1.37042
1.3509
1.33791
1.3358
1.33534
1.33859
1.34194
1.3416
1.33872
1.32928
1.31771
1.31549
1.31532
1.31614
1.32168
1.33537
1.34744
1.34944
1.34917
1.34664
1.33942
1.32661
1.31777
1.3159
1.31585
1.31706
1.32147
1.32566
1.3254
1.32398
1.3227
1.32182
1.32097
1.31952
1.31609
1.31119
1.30929
1.30861
1.30816
1.30813
1.30819
1.30795
1.30718
1.30523
1.30119
1.29831
1.29781
1.29791
1.29906
1.30293
1.30981
1.31408
1.31471
1.31491
1.31493
1.31411
1.31035
1.3048
1.30371
1.30426
1.30519
1.30679
1.31054
1.31677
1.32027
1.32136
1.32241
1.32376
1.32471
1.32509
1.32526
1.32513
1.32436
1.32303
1.32168
1.32069
1.32002
1.31974
1.3197
1.31995
1.32129
1.32379
1.32418
1.32335
1.32211
1.31991
1.316
1.31101
1.30765
1.30653
1.30571
1.30492
1.30418
1.30329
1.3015
1.29846
1.29711
1.29683
4.15625
4.12002
4.08558
4.05085
4.01546
3.97745
3.94604
3.91182
3.87774
3.84256
3.80596
3.77734
3.74353
3.71183
3.67894
3.64513
3.61995
3.58831
3.54698
3.49618
3.48418
3.49366
3.5994
3.9193
4.23048
4.32783
4.31981
4.27593
4.21458
4.14842
4.08359
4.03393
3.9837
3.93183
3.87921
3.82438
3.77698
3.72765
3.67658
3.62781
3.57639
3.53082
3.48352
3.43377
3.38803
3.33981
3.30117
3.26492
3.22272
3.18211
3.13853
3.09277
3.05566
3.01858
2.9821
2.95033
2.91326
2.87618
2.83783
2.7952
2.75944
2.72465
2.69353
2.67072
2.64145
2.60769
2.57462
2.53603
2.49773
2.46957
2.44334
2.4181
2.39559
2.36104
2.32887
2.30332
2.2803
2.26337
2.24199
2.22367
2.20029
2.17458
2.14842
2.1232
2.10744
2.08934
2.06586
2.03252
1.9984
1.97122
1.95141
1.93204
1.92251
1.91252
1.89734
1.87792
1.85862
1.84975
1.84012
1.82513
1.80193
1.77542
1.74847
1.72597
1.71422
1.70523
1.69209
1.6686
1.65455
1.64817
1.63871
1.62771
1.61794
1.60779
1.59294
1.56838
1.54911
1.54164
1.53541
1.52902
1.5206
1.50357
1.47097
1.43758
1.42621
1.42369
1.42224
1.42051
1.41653
1.41177
1.40568
1.39414
1.37112
1.35238
1.34915
1.34833
1.34951
1.35036
1.34909
1.34571
1.33507
1.32009
1.31524
1.31484
1.31544
1.32011