/*--------------------------------*- C++ -*----------------------------------*\
  =========                 |
  \\      /  F ield         | OpenFOAM: The Open Source CFD Toolbox
   \\    /   O peration     | Website:  https://openfoam.org
    \\  /    A nd           | Version:  7
     \\/     M anipulation  |
\*---------------------------------------------------------------------------*/
FoamFile
{
    version     2.0;
    format      ascii;
    class       volScalarField;
    location    "1.5";
    object      p;
}
// * * * * * * * * * * * * * * * * * * * * * * * * * * * * * * * * * * * * * //

dimensions      [1 -1 -2 0 0 0 0];

internalField   nonuniform List<scalar> 
4040
(
1
1
1
1
1
1
1
1
1
1
1
1
1
1
3.33042
9.89679
10.7969
10.9712
11.1965
11.3829
11.5586
11.7211
11.8471
11.9386
1
1
1
1
1
1
1
1
1
1
1
1
1
1
3.19148
9.74598
10.7712
10.9426
11.1616
11.3427
11.5146
11.6668
11.764
11.8161
1
1
1
1
1
1
1
1
1
1
1
1
1
1
2.8562
9.47332
10.7056
10.8741
11.0902
11.2542
11.3962
11.5037
11.5699
11.6743
1
1
1
1
1
1
1
1
1
1
1
1
1
1
2.41678
9.06558
10.6484
10.7996
11.0015
11.1498
11.2864
11.4071
11.441
11.7414
1
1
1
1
1
1
1
1
1
1
1
1
1
1
1.87677
8.4178
10.5721
10.6945
10.8876
11.0225
11.1255
11.1774
10.928
10.6481
1
1
1
1
1
1
1
1
1
1
1
1
1
1
1.3308
7.57426
10.5094
10.5734
10.7328
10.8218
10.8699
10.8377
10.6313
10.5078
1
1
1
1
1
1
1
1
1
1
1
1
1
1
1.01944
6.42254
10.21
10.3299
10.4701
10.5476
10.5648
10.5054
10.3604
10.2134
1
1
1
1
1
1
1
1
1
1
1
1
1
1
1.00007
4.98144
9.81973
10.1744
10.2683
10.3213
10.3077
10.2169
10.1011
10.0036
1
1
1
1
1
1
1
1
1
1
1
1
1
1
1
3.46254
9.18921
10.0175
10.0942
10.1303
10.0771
9.95404
9.78901
9.55247
1
1
1
1
1
1
1
1
1
1
1
1
1
1
1
1.97717
8.24598
9.96288
9.9564
9.93222
9.82102
9.64923
9.38383
8.92634
1
1
1
1
1
1
1
1
1
1
1
1
1
1
1
1.10323
6.66428
9.75859
9.73689
9.66892
9.53134
9.31469
8.98615
8.45914
1
1
1
1
1
1
1
1
1
1
1
1
1
1
1
1.0008
4.63889
9.29469
9.50595
9.39196
9.24997
9.01477
8.64616
8.11218
1
1
1
1
1
1
1
1
1
1
1
1
1
1
1
0.999994
2.42809
8.40758
9.35714
9.17486
9.00329
8.73677
8.35947
7.7921
1
1
1
1
1
1
1
1
1
1
1
1
1
1
1
0.999999
1.16243
6.61649
9.0928
8.91379
8.76512
8.48468
8.12714
7.55938
1
1
1
1
1
1
1
1
1
1
1
1
1
1
1
1
1.00199
3.97755
8.44389
8.72134
8.59057
8.32128
7.94082
7.41478
1
1
1
1
1
1
1
1
1
1
1
1
1
1
1
1
0.999991
1.54773
7.33387
8.76254
8.49012
8.17554
7.76506
7.27678
1
1
1
1
1
1
1
1
1
1
1
1
1
1
1
1
0.999998
1.0257
4.95604
8.2608
8.24955
7.98392
7.62017
7.17293
1
1
1
1
1
1
1
1
1
1
1
1
1
1
1
1
1
0.999991
1.95907
7.27492
8.27759
7.91336
7.54067
7.10662
1
1
1
1
1
1
1
1
1
1
1
1
1
1
1
1
1
0.999997
1.07005
5.07107
7.94085
7.7566
7.42031
7.02682
1
1
1
1
1
1
1
1
1
1
1
1
1
1
1
1
1
1
1.00037
2.03958
6.78238
7.77093
7.39193
7.01762
1
1
1
1
1
1
1
1
1
1
1
1
1
1
1
1
1
1
1
1.07799
4.39693
7.47175
7.32176
6.96502
1
1
1
1
1
1
1
1
1
1
1
1
1
1
1
1
1
1
1
1.00068
1.75199
6.02982
7.36204
6.95257
1
1
1
1
1
1
1
1
1
1
1
1
1
1
1
1
1
1
1
1
1.04138
3.18016
6.66998
6.95396
1
1
1
1
1
1
1
1
1
1
1
1
1
1
1
1
1
1
1
1
1.00037
1.32234
4.73642
6.94735
1
1
1
1
1
1
1
1
1
1
1
1
1
1
1
1
1
1
1
1
1
1.00912
2.03757
5.72439
1
1
1
1
1
1
1
1
1
1
1
1
1
1
1
1
1
1
1
1
1
1.00005
1.07753
3.0622
1
1
1
1
1
1
1
1
1
1
1
1
1
1
1
1
1
1
1
1
1
1
1.00109
1.29224
1
1
1
1
1
1
1
1
1
1
1
1
1
1
1
1
1
1
1
1
1
1
1
1.0086
1
1
1
1
1
1
1
1
1
1
1
1
1
1
1
1
1
1
1
1
1
1
1
1.00006
1
1
1
1
1
1
1
1
1
1
1
1
1
1
1
1
1
1
1
1
1
1
1
1
1
1
1
1
1
1
1
1
1
1
1
1
1
1
1
1
1
1
1
1
1
1
1
1
1
1
1
1
1
1
1
1
1
1
1
1
1
1
1
1
1
1
1
1
1
1
1
1
1
1
1
1
1
1
1
1
1
1
1
1
1
1
1
1
1
1
1
1
1
1
1
1
1
1
1
1
1
1
1
1
1
1
1
1
1
1
1
1
1
1
1
1
1
1
1
1
1
1
1
1
1
1
1
1
1
1
1
1
1
1
1
1
1
1
1
1
1
1
1
1
1
1
1
1
1
1
1
1
1
1
1
1
1
1
1
1
1
1
1
1
1
1
1
1
1
1
1
1
1
1
1
1
1
1
1
1
1
1
1
1
1
1
1
1
1
1
1
1
1
1
1
1
1
1
1
1
1
1
1
1
1
1
1
1
1
1
1
1
1
1
1
1
1
1
1
1
1
1
1
1
1
1
1
1
1
1
1
1
1
1
1
1
1
1
1
1
1
1
1
1
1
1
1
1
1
1
1
1
1
1
1
1
1
1
1
1
1
1
1
1
9.45912
10.054
10.3754
10.8364
10.1311
10.337
10.0107
10.3916
8.85972
7.02827
8.11046
6.18823
7.57751
5.8871
7.16148
5.7804
6.91073
5.82973
6.79416
5.89696
6.75076
5.98695
6.69222
6.03638
6.64906
6.06935
6.61942
6.09875
6.58176
6.11573
6.60107
6.16834
6.58194
6.18715
6.60494
6.23212
6.61794
6.2587
6.6901
6.33535
6.69014
6.38883
6.03776
6.44348
4.03156
6.13363
1.69314
4.66339
1.03852
2.16776
1.00046
1.10306
1
1.00189
1
1.00001
1
1
1
1
1
1
1
1
1
1
1
1
1
1
1
1
1.77501
0.583066
0.22811
0.224123
0.301922
0.403023
0.495052
0.6407
0.849274
0.98259
1.02607
1.0667
1.1153
1.14309
1.17958
1.2245
1.25263
1.25526
1.25762
1.25286
1.23888
1.21549
1.20675
1.21282
1.22597
1.23855
1.24754
1.24955
1.24603
1.23972
1.23203
1.23054
1.22931
1.23282
1.24656
1.24979
1.24079
1.22674
1.20476
1.18464
1.17638
1.17162
1.16857
1.16675
1.16785
1.16971
1.16672
1.15859
1.14217
1.12985
1.14973
1.26419
1.57866
2.13973
2.91767
3.63284
4.19199
4.62608
4.8843
4.9143
4.84936
4.7405
4.55645
4.33464
4.20189
4.07092
3.9448
3.80929
3.6654
3.5901
3.5348
3.49462
3.47118
3.44444
3.40161
3.35
3.27177
3.15755
3.06601
3.00543
2.94951
2.88374
2.81801
2.78027
2.75352
2.73286
2.7061
2.66603
2.61575
2.54311
2.4333
2.31547
2.26712
2.24447
2.83082
1.70219
1.07933
0.753015
0.728168
0.679683
0.625423
0.635329
0.663866
0.726039
0.782342
0.849436
0.940345
1.01693
1.07505
1.13322
1.18137
1.19284
1.20151
1.21167
1.21063
1.19365
1.18875
1.19969
1.21436
1.22845
1.24426
1.25151
1.25003
1.24648
1.24154
1.23856
1.23431
1.23103
1.23546
1.23376
1.22626
1.21846
1.20593
1.19213
1.18788
1.18535
1.18196
1.17724
1.17312
1.16802
1.15988
1.14546
1.14879
1.20399
1.39777
1.74132
2.08889
2.35386
2.53862
2.77685
3.05934
3.34444
3.62705
3.87624
4.05647
4.18443
4.23177
4.20143
4.16089
4.08101
3.9825
3.86923
3.74406
3.6504
3.58612
3.52345
3.46247
3.41587
3.3779
3.32448
3.2505
3.16594
3.0897
3.01674
2.93837
2.86313
2.79055
2.74717
2.72019
2.69657
2.67753
2.65223
2.61372
2.56054
2.48694
2.38683
2.29189
2.24683
3.69656
2.51077
1.84902
1.39508
1.13545
0.956616
0.776169
0.716268
0.692759
0.684293
0.719334
0.79511
0.874656
0.942315
0.988393
1.03915
1.10263
1.13953
1.17091
1.20564
1.22764
1.22117
1.22007
1.23698
1.24681
1.2518
1.25092
1.24929
1.24528
1.23758
1.23354
1.23103
1.22901
1.23042
1.2344
1.23122
1.22511
1.21746
1.20384
1.18955
1.18649
1.18691
1.1839
1.17824
1.17148
1.16444
1.15966
1.1899
1.31551
1.61851
1.98015
2.35423
2.44344
2.42099
2.37052
2.41788
2.47237
2.57323
2.78229
3.07171
3.37861
3.63629
3.85453
3.97495
4.03577
4.06675
4.02915
3.95254
3.8584
3.74767
3.65055
3.55169
3.46002
3.37845
3.29824
3.22138
3.15868
3.11616
3.0766
3.02838
2.96696
2.88961
2.79105
2.72613
2.69828
2.67362
2.64659
2.61915
2.58648
2.54886
2.51131
2.46604
2.38933
2.27388
4.26642
3.23459
2.45754
1.94249
1.61442
1.35382
1.13353
1.01277
0.948092
0.853487
0.794559
0.807025
0.812636
0.827507
0.857115
0.909663
0.975519
1.02958
1.06902
1.10809
1.15428
1.17527
1.19201
1.21737
1.2458
1.25913
1.25764
1.25614
1.2545
1.24765
1.2358
1.22834
1.22671
1.22627
1.22419
1.22263
1.21957
1.21013
1.19962
1.19051
1.18561
1.18241
1.17544
1.16741
1.16524
1.18196
1.25941
1.49197
1.86715
2.27392
2.44797
2.48034
2.46808
2.44655
2.44002
2.41215
2.36193
2.31284
2.29036
2.32376
2.45711
2.689
3.02573
3.36161
3.59352
3.74648
3.77102
3.76306
3.75537
3.73271
3.67496
3.59161
3.50377
3.40553
3.29925
3.21823
3.18112
3.15254
3.10568
3.05593
3.00153
2.92731
2.82414
2.72076
2.66176
2.62797
2.59651
2.5691
2.54712
2.5226
2.49801
2.47274
2.43712
2.32603
4.68397
3.78779
3.03014
2.47247
2.07611
1.74427
1.45661
1.30916
1.19352
1.07581
0.963508
0.914688
0.86291
0.817295
0.823928
0.840736
0.863506
0.904757
0.949532
1.00074
1.06178
1.10208
1.13062
1.1536
1.18002
1.20443
1.21268
1.22257
1.242
1.26131
1.26205
1.26082
1.2565
1.24508
1.22796
1.21356
1.2027
1.18751
1.18266
1.18136
1.18145
1.18644
1.18722
1.18768
1.21875
1.36227
1.69763
2.14806
2.45787
2.51388
2.52646
2.51996
2.52589
2.49731
2.43874
2.37207
2.31259
2.27437
2.25856
2.25252
2.21058
2.19048
2.23949
2.38463
2.62045
2.90599
3.16286
3.361
3.50399
3.55878
3.54109
3.50188
3.43368
3.3327
3.26322
3.23122
3.21604
3.20611
3.16788
3.10952
3.03944
2.95611
2.85468
2.75156
2.65048
2.55812
2.51048
2.48942
2.47765
2.47695
2.46891
2.45643
2.44641
2.38191
4.98434
4.19068
3.47831
2.9253
2.49173
2.13938
1.82932
1.62341
1.45127
1.30538
1.1926
1.1178
1.04254
0.945209
0.908732
0.896152
0.874143
0.863673
0.870957
0.898332
0.939817
0.985997
1.03205
1.067
1.09959
1.13528
1.16487
1.18112
1.2006
1.22719
1.23971
1.24869
1.25285
1.24928
1.23675
1.21945
1.20408
1.18877
1.18111
1.17654
1.17645
1.18142
1.19613
1.26229
1.50177
1.97143
2.39735
2.53824
2.60048
2.61706
2.61279
2.57813
2.51602
2.44357
2.37789
2.32646
2.30065
2.29757
2.28557
2.24448
2.18727
2.12582
2.06733
2.02739
2.03659
2.10534
2.26183
2.48894
2.7475
3.01815
3.19898
3.29792
3.28537
3.23459
3.14369
3.1114
3.09656
3.11697
3.14434
3.12117
3.08555
3.02993
2.94413
2.83614
2.71383
2.57863
2.49941
2.47116
2.4488
2.43747
2.43603
2.43336
2.42604
2.37711
5.21256
4.49778
3.83496
3.31125
2.88234
2.47043
2.15384
1.935
1.73993
1.55492
1.41567
1.31221
1.19955
1.0944
1.02286
0.97791
0.927455
0.882076
0.880879
0.897129
0.902418
0.90456
0.922591
0.9475
0.978835
1.0157
1.06591
1.1086
1.14382
1.18503
1.20916
1.22862
1.23565
1.23323
1.225
1.22035
1.21307
1.20574
1.19527
1.18733
1.18332
1.20581
1.33537
1.69311
2.20426
2.51871
2.66838
2.69791
2.69274
2.65209
2.592
2.52688
2.45697
2.38953
2.34777
2.33257
2.32165
2.2939
2.25714
2.21231
2.15954
2.10688
2.06069
2.00693
1.94665
1.91349
1.90184
1.92231
1.9923
2.14285
2.34305
2.56449
2.73039
2.84729
2.93499
2.95489
2.958
2.9566
2.96314
2.9814
3.00103
2.9815
2.93773
2.87921
2.78765
2.67026
2.58112
2.52217
2.47009
2.43059
2.4045
2.37482
2.35518
2.31695
5.35957
4.72218
4.13635
3.62407
3.18201
2.77908
2.47163
2.22168
1.99619
1.77467
1.6348
1.51974
1.40366
1.27786
1.19173
1.12452
1.05898
0.988586
0.969825
0.957907
0.928251
0.905178
0.897291
0.891809
0.891729
0.901216
0.931938
0.990428
1.04495
1.10734
1.15408
1.18125
1.20501
1.20621
1.19893
1.20121
1.206
1.20677
1.20296
1.20207
1.24352
1.48022
1.97284
2.40358
2.6728
2.75178
2.74187
2.6992
2.64746
2.5959
2.53663
2.47468
2.41571
2.38937
2.36595
2.3292
2.27552
2.2287
2.20051
2.17161
2.14318
2.11091
2.069
2.01005
1.93413
1.88307
1.85596
1.83438
1.8157
1.81058
1.83061
1.87726
1.96478
2.09566
2.2499
2.37777
2.51159
2.64668
2.7017
2.76057
2.81141
2.8211
2.82338
2.80398
2.75073
2.70225
2.65387
2.60382
2.53752
2.46392
2.40909
2.36609
2.33346
2.28554
5.48132
4.90549
4.35751
3.89592
3.4684
3.05678
2.74405
2.48548
2.24803
2.01745
1.85126
1.70837
1.57841
1.45314
1.36561
1.28445
1.20312
1.11446
1.06397
1.02036
0.970127
0.925203
0.906073
0.897427
0.88633
0.887323
0.893803
0.911229
0.94118
0.972359
1.01924
1.06411
1.12114
1.15549
1.16819
1.18487
1.19245
1.19707
1.21736
1.32949
1.66243
2.20994
2.66564
2.77551
2.78297
2.74112
2.69651
2.64558
2.59222
2.54365
2.50379
2.45782
2.41615
2.38437
2.34733
2.30052
2.23858
2.17603
2.15093
2.14048
2.12388
2.0897
2.05168
2.00875
1.94995
1.88263
1.83945
1.80495
1.77454
1.75079
1.73328
1.72416
1.72354
1.72366
1.7216
1.75692
1.81021
1.91435
2.05992
2.20669
2.34693
2.46018
2.60434
2.64979
2.63996
2.61738
2.59322
2.56823
2.53323
2.48263
2.42848
2.38296
2.34124
2.28389
5.57147
5.04288
4.54466
4.11623
3.69371
3.29847
3.0063
2.73775
2.45948
2.22699
2.06924
1.90901
1.76053
1.61576
1.52343
1.42968
1.34347
1.26192
1.20343
1.14321
1.08031
1.01101
0.979667
0.958492
0.928327
0.904964
0.904028
0.903853
0.893001
0.888258
0.899008
0.925918
0.971116
1.03372
1.08853
1.14313
1.16378
1.20579
1.4634
1.94747
2.45805
2.77324
2.81727
2.80788
2.80186
2.74599
2.66528
2.60219
2.54231
2.49466
2.45815
2.42344
2.40026
2.36711
2.32468
2.27741
2.21676
2.14782
2.10647
2.0881
2.07447
2.05102
2.0227
1.99739
1.96616
1.91467
1.84023
1.78158
1.74431
1.71695
1.6941
1.67786
1.66806
1.65808
1.6466
1.61992
1.56763
1.51695
1.52831
1.58072
1.68612
1.81396
1.98007
2.1387
2.28635
2.37482
2.41281
2.44029
2.44088
2.40722
2.36863
2.34343
2.31146
2.27594
5.64115
5.15766
4.7093
4.30906
3.90376
3.53071
3.22691
2.95044
2.67008
2.44975
2.26659
2.09276
1.91567
1.78486
1.68989
1.58763
1.47988
1.38214
1.32571
1.25915
1.19318
1.12281
1.07457
1.03325
0.989818
0.939594
0.925498
0.916808
0.896114
0.883734
0.884698
0.887912
0.894306
0.916833
0.963373
1.04139
1.13123
1.43896
2.16583
2.58929
2.80635
2.8891
2.87682
2.84204
2.8025
2.7401
2.65643
2.57405
2.49978
2.44904
2.41993
2.39854
2.37682
2.33691
2.29341
2.24936
2.19245
2.12
2.06665
2.04098
2.02335
2.01386
2.00632
1.98489
1.95453
1.90979
1.83699
1.7629
1.72082
1.6924
1.67138
1.65489
1.63436
1.61394
1.59569
1.57734
1.55006
1.50389
1.44213
1.4144
1.40734
1.42071
1.45774
1.52843
1.63107
1.76732
1.89601
2.00151
2.08659
2.13739
2.1761
2.2141
2.2228
2.19601
5.72449
5.27003
4.85559
4.47127
4.07367
3.72652
3.43756
3.15132
2.85393
2.64126
2.45385
2.27781
2.08922
1.95381
1.83885
1.72646
1.61675
1.52461
1.45717
1.381
1.30328
1.22947
1.18466
1.13724
1.08938
1.03171
1.00313
0.98025
0.944782
0.906283
0.900199
0.897212
0.883841
0.882418
0.89689
0.981912
1.32846
2.08533
2.52534
2.66977
2.72265
2.73752
2.74445
2.75295
2.72845
2.67797
2.62533
2.55689
2.4753
2.42911
2.40253
2.38743
2.35912
2.31489
2.25955
2.20622
2.15518
2.09977
2.04267
2.00627
1.98653
1.9764
1.96821
1.94152
1.91003
1.87266
1.81975
1.76623
1.72624
1.69227
1.65915
1.62469
1.59713
1.575
1.55216
1.53079
1.51389
1.49285
1.45078
1.38912
1.36574
1.35504
1.34123
1.32518
1.31858
1.33099
1.36214
1.42044
1.49839
1.58088
1.66648
1.77081
1.87281
1.98078
5.77267
5.35652
4.97125
4.60065
4.2281
3.89932
3.60909
3.31741
3.04211
2.83445
2.63659
2.43473
2.24052
2.12087
2.00017
1.87945
1.73955
1.65178
1.57931
1.4998
1.42038
1.34688
1.29477
1.23553
1.1754
1.11461
1.08044
1.04561
1.004
0.9558
0.927329
0.911987
0.891653
0.902138
1.04029
1.44435
1.99975
2.48094
2.45979
2.44796
2.44629
2.44843
2.47781
2.522
2.54069
2.55273
2.54107
2.50838
2.44401
2.39664
2.38276
2.35254
2.30203
2.25253
2.2005
2.15621
2.12021
2.08552
2.04893
2.00827
1.96731
1.93528
1.90264
1.87099
1.83979
1.81225
1.7874
1.76034
1.72765
1.68968
1.64409
1.5957
1.5625
1.54003
1.51978
1.49867
1.48135
1.46678
1.44302
1.39421
1.34358
1.3213
1.30419
1.28593
1.26966
1.25999
1.25198
1.24424
1.23437
1.22349
1.2303
1.2604
1.32215
1.47649
5.83624
5.44717
5.08785
4.72858
4.36815
4.05995
3.77904
3.48608
3.21707
3.00865
2.80857
2.60241
2.41499
2.28147
2.1451
2.01448
1.87943
1.79215
1.70395
1.61399
1.51433
1.45239
1.40171
1.34128
1.27812
1.21149
1.17162
1.12844
1.08136
1.03291
0.996763
0.971816
0.994291
1.16177
1.71977
2.1965
2.50085
2.50422
2.43914
2.33966
2.2637
2.24097
2.25342
2.27671
2.29754
2.30828
2.3073
2.32312
2.32996
2.28522
2.27666
2.27185
2.23214
2.1911
2.15523
2.11132
2.07421
2.05807
2.03813
2.00466
1.96082
1.90382
1.84921
1.81261
1.78979
1.77193
1.75686
1.73366
1.70487
1.67203
1.63356
1.58478
1.54248
1.51762
1.49504
1.47216
1.45147
1.43409
1.41741
1.39023
1.3381
1.29741
1.27792
1.2579
1.23955
1.22939
1.22231
1.21404
1.20285
1.18114
1.13902
1.0974
1.08854
1.11126
5.88918
5.5282
5.18292
4.83744
4.50428
4.21166
3.92773
3.62899
3.38066
3.17721
2.97233
2.74157
2.57089
2.43573
2.29294
2.14237
2.00733
1.92213
1.82276
1.72869
1.62561
1.56047
1.4999
1.43189
1.36237
1.30545
1.26653
1.21652
1.16341
1.10682
1.06293
1.09597
1.32084
1.94494
2.54869
2.66802
2.64224
2.53319
2.39018
2.29049
2.2275
2.19493
2.15754
2.12708
2.10878
2.09492
2.07676
2.06543
2.08519
2.09058
2.08103
2.09355
2.07926
2.05934
2.04448
2.02068
2.0151
2.02077
2.00297
1.97145
1.92908
1.87421
1.81392
1.77157
1.75178
1.74057
1.72553
1.69946
1.66737
1.64058
1.60929
1.57441
1.53889
1.50064
1.46894
1.44729
1.4277
1.40656
1.38472
1.35878
1.32241
1.27952
1.25863
1.24495
1.23039
1.21813
1.20728
1.19568
1.18243
1.16397
1.13238
1.08492
1.05125
1.03701
5.98126
5.63687
5.2983
4.95966
4.6414
4.35232
4.0723
3.78672
3.54217
3.32873
3.11622
2.89
2.72422
2.57807
2.43123
2.26089
2.14091
2.04784
1.94352
1.83221
1.72771
1.67249
1.60397
1.53287
1.44934
1.39261
1.34924
1.29184
1.24477
1.20177
1.25961
1.61711
2.21981
2.85988
2.89697
2.81255
2.69683
2.57325
2.45392
2.36631
2.30565
2.23678
2.16195
2.10291
2.06212
2.01924
1.98796
1.97381
1.95766
1.92679
1.8785
1.85231
1.83365
1.8349
1.85502
1.88638
1.89883
1.89705
1.89491
1.88304
1.85976
1.8315
1.80196
1.76234
1.73058
1.70886
1.68331
1.65254
1.62096
1.59437
1.5695
1.54253
1.51669
1.48865
1.46155
1.43604
1.40952
1.38245
1.35925
1.33678
1.30594
1.27133
1.2462
1.22526
1.2059
1.18822
1.17188
1.15602
1.13982
1.1265
1.11454
1.08904
1.04689
1.01371
6.03378
5.70656
5.37845
5.05091
4.75433
4.47001
4.18442
3.91087
3.68713
3.46764
3.24675
3.02495
2.8654
2.71044
2.55522
2.38581
2.26879
2.16648
2.05846
1.9388
1.84012
1.77819
1.70237
1.6255
1.53859
1.48841
1.42935
1.37249
1.34857
1.46781
2.02494
2.65296
3.09103
3.13365
3.01954
2.88738
2.76413
2.66636
2.58585
2.49611
2.40767
2.32006
2.22991
2.14014
2.06256
2.00131
1.95844
1.92585
1.89179
1.86734
1.85023
1.79494
1.71992
1.68987
1.68555
1.69927
1.72058
1.72135
1.72056
1.71149
1.70526
1.7198
1.72897
1.70887
1.68497
1.67975
1.66152
1.62876
1.5977
1.55919
1.52271
1.49449
1.47772
1.46552
1.45008
1.42719
1.3986
1.36921
1.34168
1.31005
1.26985
1.24165
1.22498
1.20761
1.18819
1.16806
1.14742
1.12802
1.10977
1.09528
1.08626
1.07642
1.05214
1.00768
6.11399
5.76906
5.45368
5.14938
4.86136
4.58388
4.29427
4.04116
3.82065
3.60563
3.37209
3.16864
3.01143
2.84384
2.67493
2.50552
2.40197
2.28672
2.17025
2.03878
1.95187
1.88657
1.80209
1.71425
1.62352
1.56808
1.50753
1.52126
1.72517
2.47045
3.26319
3.43614
3.39827
3.25397
3.08984
2.9565
2.85144
2.77202
2.69876
2.6089
2.50572
2.40309
2.30476
2.21061
2.12365
2.0481
1.99037
1.94058
1.89452
1.86208
1.83208
1.78927
1.71681
1.65688
1.6292
1.61154
1.59418
1.57317
1.55918
1.54844
1.53178
1.53034
1.55558
1.58864
1.60259
1.61217
1.60154
1.55693
1.52788
1.50774
1.48684
1.46898
1.45301
1.43533
1.42025
1.40146
1.37633
1.35079
1.32542
1.29158
1.25185
1.21906
1.19166
1.17191
1.15499
1.13693
1.11819
1.10027
1.0848
1.07097
1.05697
1.04409
1.03546
1.00213
6.18865
5.88375
5.54794
5.25319
4.97278
4.69141
4.41805
4.17623
3.95062
3.72416
3.48738
3.30835
3.14786
2.98252
2.78734
2.62973
2.52716
2.40822
2.28466
2.1428
2.06571
1.99138
1.90117
1.7991
1.71465
1.65269
1.72457
2.13389
2.92074
3.80536
3.89917
3.73165
3.47611
3.28797
3.14087
3.02796
2.94348
2.87294
2.7997
2.71277
2.6137
2.50831
2.39995
2.29159
2.19157
2.10953
2.04561
1.9912
1.94331
1.89754
1.85126
1.79551
1.72685
1.66433
1.60859
1.5668
1.54339
1.52675
1.50622
1.47082
1.43715
1.41108
1.40231
1.40641
1.42101
1.43887
1.44138
1.42392
1.41883
1.43213
1.42376
1.41724
1.40375
1.37081
1.34533
1.33488
1.32924
1.32202
1.30366
1.27778
1.25155
1.21753
1.17563
1.13983
1.11899
1.10385
1.08918
1.07476
1.06295
1.05208
1.03924
1.0233
1.00337
0.972723
6.08055
6.00302
5.67692
5.35413
5.08336
4.81562
4.53561
4.28641
4.07472
3.85279
3.61244
3.42665
3.26872
3.1035
2.90975
2.75768
2.64495
2.52064
2.38821
2.25376
2.17659
2.09303
1.99242
1.88842
1.82355
1.94663
2.63083
3.54677
4.21676
4.22246
4.04126
3.80564
3.58762
3.41116
3.25193
3.14047
3.05321
2.9715
2.88626
2.79507
2.69659
2.59051
2.47792
2.36601
2.26367
2.17587
2.09959
2.02887
1.96777
1.92473
1.88071
1.82259
1.76837
1.72163
1.65581
1.57476
1.53641
1.51204
1.47564
1.44346
1.4156
1.37899
1.33948
1.31989
1.30798
1.29741
1.29023
1.28356
1.27466
1.28041
1.30232
1.33066
1.33175
1.30557
1.27297
1.25845
1.25193
1.24836
1.25681
1.2611
1.2473
1.21903
1.17004
1.11731
1.08751
1.07134
1.06084
1.05465
1.04909
1.04171
1.02959
1.01104
0.982298
0.93582
5.04936
5.93633
5.79875
5.48095
5.18099
4.91438
4.65267
4.41084
4.19491
3.96816
3.73176
3.55994
3.39734
3.22272
3.01999
2.88724
2.76926
2.638
2.49087
2.35958
2.2842
2.18303
2.08713
2.05253
2.30156
3.21838
4.20408
4.61687
4.56129
4.34661
4.10941
3.90216
3.74544
3.59736
3.41764
3.25377
3.13746
3.03913
2.94701
2.85736
2.76471
2.662
2.54722
2.43437
2.33842
2.25938
2.19097
2.1226
2.03391
1.94207
1.88522
1.8394
1.80406
1.76955
1.7246
1.6609
1.58816
1.5233
1.46209
1.43174
1.40974
1.37308
1.32548
1.29444
1.2705
1.23873
1.2206
1.21719
1.20999
1.1911
1.18187
1.18678
1.18768
1.17847
1.16439
1.15488
1.15499
1.16502
1.18177
1.19376
1.19195
1.18148
1.15561
1.10825
1.0703
1.0494
1.03796
1.03462
1.04141
1.03761
1.0236
1.00278
0.968579
0.914295
2.64983
5.2349
5.78747
5.6151
5.29971
5.02276
4.76982
4.51754
4.29893
4.08829
3.86715
3.67661
3.51539
3.33138
3.13396
3.00662
2.87934
2.75111
2.58686
2.46376
2.38373
2.27859
2.3403
2.83203
3.89077
4.94549
5.05103
4.89385
4.6167
4.39029
4.1951
4.03261
3.88559
3.72316
3.53808
3.36407
3.22691
3.10526
2.99659
2.90437
2.81689
2.72574
2.62454
2.51407
2.40551
2.31398
2.24435
2.18163
2.10552
2.00697
1.91632
1.85864
1.81559
1.7761
1.73884
1.69501
1.63307
1.55837
1.48966
1.45084
1.4245
1.39615
1.36021
1.31484
1.27009
1.22748
1.19179
1.17458
1.1628
1.15055
1.13442
1.11699
1.0986
1.07591
1.0591
1.05062
1.04791
1.05744
1.08431
1.10828
1.11362
1.10973
1.09754
1.06963
1.04012
1.02008
1.00626
0.999937
1.00216
0.999236
0.989826
0.977352
0.956729
0.903849
1.20637
3.07026
5.28549
5.6408
5.4505
5.14502
4.87298
4.64364
4.42821
4.20073
3.974
3.79514
3.63818
3.44633
3.25128
3.1205
2.99215
2.85928
2.68328
2.56726
2.48954
2.65698
3.51187
4.89306
5.4595
5.39566
5.1815
4.89974
4.64461
4.4536
4.2945
4.15066
3.99984
3.82452
3.64053
3.4748
3.33018
3.19457
3.06709
2.95436
2.85614
2.76897
2.68519
2.59464
2.49118
2.37884
2.27568
2.19374
2.12489
2.05401
1.97761
1.91381
1.86091
1.81313
1.77178
1.72701
1.66273
1.58179
1.52073
1.48339
1.44935
1.41477
1.37845
1.33936
1.29685
1.24591
1.19548
1.17034
1.15334
1.1321
1.10686
1.08148
1.05515
1.03176
1.01887
1.00271
0.982584
0.979085
0.981902
0.995926
1.01107
1.0147
1.00868
0.987561
0.96716
0.963885
0.960806
0.959145
0.96708
0.966119
0.960227
0.951067
0.934719
0.890881
1.0055
1.33735
3.3885
5.25011
5.49428
5.30553
5.00581
4.74588
4.53354
4.32478
4.10421
3.91886
3.74657
3.54847
3.36894
3.23187
3.11356
2.95511
2.79564
2.7497
3.10088
4.33168
5.66308
6.1929
6.04419
5.67663
5.29905
5.01124
4.78985
4.59562
4.42269
4.25023
4.07348
3.90415
3.73957
3.57941
3.42552
3.27783
3.13801
3.01117
2.90155
2.80973
2.72858
2.6479
2.55891
2.45444
2.33596
2.22272
2.13617
2.07499
2.02313
1.96978
1.90784
1.83828
1.77885
1.73618
1.69671
1.64735
1.58501
1.51891
1.4669
1.42546
1.38534
1.34399
1.3047
1.26869
1.23549
1.20691
1.17784
1.14535
1.11179
1.07734
1.03987
1.00609
0.987653
0.977513
0.965268
0.953899
0.942493
0.936685
0.934233
0.929243
0.922564
0.910873
0.890017
0.879674
0.88119
0.889106
0.902355
0.912569
0.914444
0.911487
0.90248
0.866101
1.00003
1.01224
1.47451
3.60473
5.17435
5.35631
5.17426
4.8888
4.64948
4.42423
4.21408
4.04356
3.86272
3.66769
3.48392
3.33757
3.21461
3.05059
3.1147
3.83853
5.30317
6.59741
6.68857
6.4694
6.12318
5.76824
5.46215
5.17129
4.91736
4.6931
4.49899
4.32069
4.14779
3.98379
3.82627
3.66426
3.49044
3.32003
3.17257
3.04971
2.9444
2.85011
2.76362
2.68223
2.60078
2.50943
2.40157
2.28731
2.18701
2.10939
2.04814
1.99814
1.94557
1.87742
1.80118
1.73886
1.69546
1.66189
1.62214
1.57314
1.52087
1.45912
1.40039
1.34971
1.30132
1.26251
1.24325
1.22864
1.20855
1.17647
1.13529
1.08982
1.04644
1.00952
0.98009
0.966915
0.958755
0.942127
0.923739
0.912533
0.903795
0.894691
0.8833
0.864287
0.833055
0.809634
0.806947
0.8103
0.818854
0.834195
0.847878
0.850535
0.848542
0.824793
1
1.0001
1.02205
1.6016
3.72289
5.07866
5.23386
5.05097
4.7967
4.53593
4.32641
4.15129
3.96835
3.78552
3.58991
3.4604
3.33963
3.5813
4.84095
6.59606
7.38287
7.40517
7.07161
6.60382
6.15941
5.81812
5.55194
5.28747
5.02267
4.78226
4.58039
4.40058
4.23274
4.07111
3.90665
3.7308
3.54401
3.3649
3.21628
3.09887
2.99834
2.90301
2.80694
2.70919
2.61287
2.52077
2.42835
2.33182
2.23985
2.15904
2.08243
2.01325
1.95793
1.90097
1.83655
1.77708
1.72216
1.67639
1.6466
1.61325
1.55424
1.4678
1.4107
1.38653
1.35604
1.31547
1.27529
1.23936
1.20251
1.16857
1.14018
1.11362
1.08327
1.04432
1.00271
0.970399
0.946595
0.926773
0.912903
0.902125
0.890725
0.878658
0.864953
0.845219
0.811919
0.775624
0.764203
0.761967
0.763005
0.767174
0.775742
0.780986
0.780587
0.766196
1
1
1.00023
1.03357
1.70547
3.73336
5.01514
5.12261
4.96559
4.68026
4.44664
4.25536
4.09337
3.87787
3.70452
3.65306
4.19671
6.08952
7.99662
8.09982
7.78309
7.41207
7.07303
6.68957
6.30676
5.96574
5.65378
5.36874
5.10671
4.87334
4.67049
4.48629
4.31422
4.151
3.98533
3.80187
3.60225
3.41663
3.26743
3.14749
3.04346
2.94616
2.85006
2.7506
2.64515
2.54019
2.44568
2.35697
2.26769
2.18598
2.10819
2.02516
1.95472
1.90302
1.86196
1.82459
1.77793
1.71673
1.65636
1.59549
1.52837
1.47772
1.44109
1.39231
1.3453
1.31585
1.28442
1.25118
1.21906
1.18902
1.15827
1.12332
1.08048
1.03786
1.00514
0.972928
0.947013
0.927653
0.914667
0.903915
0.891378
0.876919
0.862132
0.841112
0.803263
0.767175
0.755111
0.74929
0.745614
0.741648
0.73852
0.733927
0.725117
0.70683
1
1
1
1.00041
1.04608
1.742
3.7976
4.90793
4.96713
4.83724
4.59293
4.38518
4.18013
3.97039
3.99515
5.08325
7.4199
9.17256
9.19755
8.66482
7.9644
7.40661
7.04732
6.74785
6.44046
6.11371
5.78902
5.48522
5.21466
4.9785
4.76351
4.55936
4.3648
4.18546
4.01806
3.8454
3.66058
3.48012
3.3252
3.19777
3.08617
2.97878
2.87233
2.76863
2.66844
2.57161
2.4808
2.40416
2.3363
2.25133
2.15879
2.06589
1.98082
1.91747
1.86582
1.81797
1.78045
1.74056
1.67926
1.61267
1.55621
1.5037
1.45274
1.39888
1.3447
1.32248
1.31048
1.28991
1.26449
1.23672
1.20494
1.16551
1.11122
1.04194
1.00897
0.997757
0.983184
0.966194
0.950576
0.934942
0.916431
0.894353
0.869479
0.839504
0.804131
0.77545
0.761404
0.751703
0.73928
0.729686
0.72253
0.713194
0.701041
0.67845
1
1
1
1
1.00065
1.05248
1.78411
3.76121
4.72754
4.88768
4.75418
4.53627
4.25215
4.38217
6.08818
9.22338
9.9398
9.60315
9.09892
8.61557
8.11472
7.59719
7.17032
6.82664
6.50524
6.18847
5.87799
5.57802
5.29509
5.03863
4.81011
4.6005
4.40226
4.21389
4.03824
3.86984
3.69676
3.52203
3.36188
3.22673
3.11053
3.00365
2.89914
2.79588
2.69763
2.60767
2.52572
2.44233
2.33648
2.22354
2.1367
2.07854
2.02454
1.96539
1.90612
1.85027
1.79116
1.7259
1.66358
1.60569
1.56286
1.53011
1.48711
1.43099
1.37598
1.33402
1.29773
1.26887
1.2432
1.2164
1.18482
1.1433
1.08944
1.04082
1.01115
0.990503
0.973504
0.956035
0.938835
0.920534
0.899428
0.876639
0.852949
0.826243
0.795501
0.767451
0.745259
0.731286
0.722614
0.71507
0.70713
0.699291
0.690656
0.667128
1
1
1
1
1
1.00082
1.05741
1.81189
3.57323
4.6503
4.73402
4.63309
4.90301
7.26645
10.6206
11.5468
10.9398
9.84475
9.01048
8.53628
8.13929
7.71323
7.28656
6.89787
6.54057
6.21367
5.91153
5.62005
5.33112
5.05874
4.81815
4.60945
4.42195
4.23772
4.05526
3.88419
3.72035
3.56205
3.4053
3.26399
3.14079
3.02896
2.92285
2.82014
2.72093
2.62521
2.5321
2.43461
2.32689
2.23249
2.16405
2.09906
2.03179
1.96927
1.91119
1.85321
1.79044
1.72716
1.67098
1.62413
1.58119
1.53161
1.47584
1.42063
1.37468
1.33429
1.29979
1.27287
1.24848
1.22242
1.19096
1.14924
1.09732
1.05087
1.0191
0.997462
0.979697
0.962197
0.944823
0.925494
0.902871
0.878044
0.851511
0.82355
0.796972
0.771343
0.746802
0.729881
0.719373
0.71045
0.702336
0.695166
0.686087
0.661922
1
1
1
1
1
1
1.00097
1.06067
1.73756
3.42368
4.31676
5.20063
8.80722
11.7893
11.9701
11.2414
10.6409
9.9571
9.24159
8.65917
8.19534
7.77529
7.37938
7.00478
6.64478
6.30023
5.97501
5.66333
5.35971
5.08141
4.84711
4.65086
4.48197
4.33109
4.17436
3.98894
3.78203
3.59145
3.4724
3.36084
3.24361
3.12866
3.01702
2.90814
2.80015
2.69218
2.58691
2.48714
2.39722
2.31836
2.24105
2.16185
2.08757
2.02038
1.95678
1.89397
1.83357
1.77816
1.72811
1.68102
1.62983
1.57116
1.50865
1.44957
1.40168
1.36614
1.33943
1.31553
1.29061
1.26198
1.22687
1.18238
1.12973
1.08237
1.0521
1.0325
1.01523
0.997362
0.977696
0.953742
0.925564
0.896719
0.87084
0.848956
0.828186
0.80169
0.768465
0.742589
0.728937
0.720426
0.713523
0.706033
0.695603
0.669011
1
1
1
1
1
1
1
1.00098
1.05749
1.72751
4.05474
9.02905
15.9711
16.6074
13.6102
11.3997
10.4238
9.86491
9.26453
8.66647
8.15733
7.73973
7.38581
7.06029
6.73609
6.39902
6.04308
5.67393
5.33538
5.0619
4.84598
4.66357
4.49224
4.31115
4.1154
3.92801
3.75491
3.59275
3.42806
3.28244
3.15823
3.04334
2.93413
2.82908
2.72453
2.61745
2.51
2.40996
2.32438
2.24917
2.1759
2.10315
2.03209
1.96277
1.89585
1.83364
1.77869
1.729
1.68119
1.63319
1.58218
1.52504
1.46242
1.40386
1.35845
1.32653
1.30152
1.27882
1.25594
1.22899
1.19365
1.14736
1.09478
1.05042
1.02297
1.0034
0.984589
0.967148
0.948502
0.924567
0.897141
0.870518
0.84739
0.82711
0.804803
0.773985
0.739714
0.716232
0.704546
0.698486
0.693668
0.687895
0.677802
0.646554
)
;

boundaryField
{
    inlet
    {
        type            fixedValue;
        value           uniform 1;
    }
    outlet
    {
        type            zeroGradient;
    }
    bottom
    {
        type            zeroGradient;
    }
    top
    {
        type            zeroGradient;
    }
    obstacle
    {
        type            zeroGradient;
    }
    defaultFaces
    {
        type            empty;
    }
}


// ************************************************************************* //
