/*--------------------------------*- C++ -*----------------------------------*\
  =========                 |
  \\      /  F ield         | OpenFOAM: The Open Source CFD Toolbox
   \\    /   O peration     | Website:  https://openfoam.org
    \\  /    A nd           | Version:  7
     \\/     M anipulation  |
\*---------------------------------------------------------------------------*/
FoamFile
{
    version     2.0;
    format      ascii;
    class       volScalarField;
    location    "1.5";
    object      T;
}
// * * * * * * * * * * * * * * * * * * * * * * * * * * * * * * * * * * * * * //

dimensions      [0 0 0 1 0 0 0];

internalField   nonuniform List<scalar> 
4040
(
1
1
1
1
1
1
1
1
1
1
1
1
1
1
1.79709
2.67535
2.77434
2.78513
2.79455
2.7965
2.80054
2.81646
2.84356
2.86203
1
1
1
1
1
1
1
1
1
1
1
1
1
1
1.76932
2.66329
2.77213
2.78231
2.79129
2.79296
2.79706
2.81279
2.83857
2.85609
1
1
1
1
1
1
1
1
1
1
1
1
1
1
1.68792
2.63229
2.76245
2.7746
2.78448
2.78519
2.78803
2.80151
2.82694
2.85211
1
1
1
1
1
1
1
1
1
1
1
1
1
1
1.56763
2.58115
2.74589
2.76341
2.77556
2.77622
2.77955
2.79483
2.82272
2.86811
1
1
1
1
1
1
1
1
1
1
1
1
1
1
1.39205
2.49698
2.72073
2.74653
2.76367
2.76535
2.76846
2.77815
2.78191
2.80085
1
1
1
1
1
1
1
1
1
1
1
1
1
1
1.1605
2.38231
2.69437
2.7248
2.7461
2.74824
2.74893
2.75078
2.75012
2.77426
1
1
1
1
1
1
1
1
1
1
1
1
1
1
1.0082
2.25722
2.6625
2.69801
2.71919
2.72386
2.72319
2.7211
2.72117
2.73908
1
1
1
1
1
1
1
1
1
1
1
1
1
1
1.00003
2.07378
2.63412
2.68194
2.69623
2.70101
2.69925
2.69391
2.69427
2.71192
1
1
1
1
1
1
1
1
1
1
1
1
1
1
1
1.79759
2.5613
2.65673
2.67356
2.67969
2.67625
2.66863
2.6628
2.66324
1
1
1
1
1
1
1
1
1
1
1
1
1
1
1
1.38895
2.4172
2.62536
2.64498
2.65427
2.65023
2.64061
2.62544
2.60107
1
1
1
1
1
1
1
1
1
1
1
1
1
1
1
1.04159
2.24511
2.58715
2.61029
2.62099
2.61846
2.60781
2.5874
2.55278
1
1
1
1
1
1
1
1
1
1
1
1
1
1
1
1.00032
1.98411
2.52727
2.58595
2.58478
2.58326
2.5732
2.55036
2.51296
1
1
1
1
1
1
1
1
1
1
1
1
1
1
1
0.999998
1.5111
2.40144
2.55753
2.55075
2.54775
2.53635
2.51353
2.47243
1
1
1
1
1
1
1
1
1
1
1
1
1
1
1
1
1.06496
2.21434
2.518
2.51207
2.5114
2.49931
2.47823
2.43681
1
1
1
1
1
1
1
1
1
1
1
1
1
1
1
1
1.0008
1.84847
2.42673
2.48629
2.48163
2.46789
2.44477
2.40702
1
1
1
1
1
1
1
1
1
1
1
1
1
1
1
1
0.999998
1.21166
2.24955
2.46528
2.45244
2.43753
2.41287
2.37869
1
1
1
1
1
1
1
1
1
1
1
1
1
1
1
1
0.999999
1.01012
1.98693
2.39474
2.41293
2.40272
2.38352
2.35403
1
1
1
1
1
1
1
1
1
1
1
1
1
1
1
1
1
1.00001
1.34729
2.22133
2.39345
2.37317
2.35522
2.32959
1
1
1
1
1
1
1
1
1
1
1
1
1
1
1
1
1
0.999999
1.02761
1.97895
2.34388
2.33693
2.32159
2.30094
1
1
1
1
1
1
1
1
1
1
1
1
1
1
1
1
1
1
1.00014
1.36442
2.16358
2.31957
2.29593
2.2773
1
1
1
1
1
1
1
1
1
1
1
1
1
1
1
1
1
1
1
1.03047
1.86253
2.27088
2.26548
2.24688
1
1
1
1
1
1
1
1
1
1
1
1
1
1
1
1
1
1
1
1.00024
1.27228
2.06923
2.24759
2.21967
1
1
1
1
1
1
1
1
1
1
1
1
1
1
1
1
1
1
1
1
1.01584
1.62732
2.12781
2.20461
1
1
1
1
1
1
1
1
1
1
1
1
1
1
1
1
1
1
1
1
1.00012
1.12284
1.87145
2.17618
1
1
1
1
1
1
1
1
1
1
1
1
1
1
1
1
1
1
1
1
1
1.00331
1.3457
1.99215
1
1
1
1
1
1
1
1
1
1
1
1
1
1
1
1
1
1
1
1
1
1.00002
1.02931
1.58017
1
1
1
1
1
1
1
1
1
1
1
1
1
1
1
1
1
1
1
1
1
1
1.00035
1.10977
1
1
1
1
1
1
1
1
1
1
1
1
1
1
1
1
1
1
1
1
1
1
1
1.00301
1
1
1
1
1
1
1
1
1
1
1
1
1
1
1
1
1
1
1
1
1
1
1
1.00002
1
1
1
1
1
1
1
1
1
1
1
1
1
1
1
1
1
1
1
1
1
1
1
1
1
1
1
1
1
1
1
1
1
1
1
1
1
1
1
1
1
1
1
1
1
1
1
1
1
1
1
1
1
1
1
1
1
1
1
1
1
1
1
1
1
1
1
1
1
1
1
1
1
1
1
1
1
1
1
1
1
1
1
1
1
1
1
1
1
1
1
1
1
1
1
1
1
1
1
1
1
1
1
1
1
1
1
1
1
1
1
1
1
1
1
1
1
1
1
1
1
1
1
1
1
1
1
1
1
1
1
1
1
1
1
1
1
1
1
1
1
1
1
1
1
1
1
1
1
1
1
1
1
1
1
1
1
1
1
1
1
1
1
1
1
1
1
1
1
1
1
1
1
1
1
1
1
1
1
1
1
1
1
1
1
1
1
1
1
1
1
1
1
1
1
1
1
1
1
1
1
1
1
1
1
1
1
1
1
1
1
1
1
1
1
1
1
1
1
1
1
1
1
1
1
1
1
1
1
1
1
1
1
1
1
1
1
1
1
1
1
1
1
1
1
1
1
1
1
1
1
1
1
1
1
1
1
1
1
1
1
1
1
1
2.75788
2.81669
2.81907
2.8803
2.78787
2.84076
2.7723
2.86962
2.65232
2.5872
2.55978
2.42709
2.49097
2.34235
2.43664
2.30268
2.39873
2.29539
2.37249
2.28783
2.35239
2.28208
2.33186
2.27306
2.31362
2.26319
2.29522
2.25257
2.27294
2.23838
2.25378
2.22482
2.22734
2.20421
2.20293
2.18279
2.18079
2.159
2.16199
2.14079
2.1397
2.11985
2.02421
2.10531
1.74376
2.03611
1.24257
1.81871
1.01414
1.36574
1.00014
1.03816
1
1.00061
1
1
1
1
1
1
1
1
1
1
1
1
1
1
1
1
1
1
1.81493
1.37674
1.14461
1.14982
1.27485
1.37996
1.47645
1.60293
1.71251
1.71451
1.70627
1.72003
1.76194
1.77785
1.77931
1.77359
1.76849
1.76934
1.77212
1.76966
1.75715
1.7319
1.71947
1.71923
1.72349
1.72896
1.72972
1.7248
1.71617
1.71027
1.70849
1.70916
1.70887
1.7085
1.70992
1.70965
1.70484
1.7011
1.6962
1.68976
1.68584
1.68365
1.68334
1.68437
1.6887
1.69424
1.69538
1.69426
1.68776
1.68802
1.69946
1.75474
1.88773
2.06215
2.24674
2.38508
2.47808
2.54175
2.57556
2.57427
2.56233
2.53812
2.49993
2.45869
2.43368
2.40821
2.38289
2.3555
2.32588
2.30857
2.29565
2.28644
2.28166
2.27746
2.2714
2.2654
2.2563
2.24087
2.22891
2.22132
2.2128
2.20058
2.18746
2.18066
2.17636
2.17332
2.16839
2.1587
2.14415
2.12202
2.09109
2.06395
2.05725
2.05435
2.00375
1.79995
1.62768
1.43927
1.4313
1.42094
1.42281
1.43694
1.44776
1.46582
1.48781
1.52897
1.58883
1.63493
1.65677
1.66714
1.67569
1.68334
1.69359
1.69776
1.69276
1.67674
1.67094
1.67409
1.68145
1.68838
1.69233
1.69102
1.68668
1.68344
1.68257
1.68297
1.68224
1.67981
1.67988
1.67787
1.6743
1.67392
1.67305
1.66982
1.66838
1.66784
1.66777
1.66831
1.67102
1.67282
1.67208
1.66824
1.67264
1.70071
1.78416
1.90322
1.99081
2.0493
2.07022
2.11414
2.17384
2.22644
2.27422
2.31908
2.35341
2.37452
2.38206
2.37977
2.37435
2.35948
2.34027
2.31947
2.29705
2.27962
2.26691
2.25498
2.24497
2.23889
2.23465
2.22835
2.22015
2.21146
2.20381
2.19519
2.18352
2.17064
2.15723
2.15004
2.14598
2.14215
2.13875
2.13296
2.12252
2.10722
2.08749
2.06504
2.04728
2.04015
2.08431
1.90637
1.77111
1.64284
1.55688
1.49099
1.41693
1.37976
1.35757
1.34528
1.36603
1.40666
1.4451
1.48118
1.50241
1.52036
1.54294
1.56153
1.58081
1.59896
1.60712
1.60452
1.60467
1.61313
1.61872
1.6202
1.61935
1.61864
1.61709
1.61434
1.6135
1.61372
1.61436
1.61596
1.61775
1.61626
1.61474
1.61466
1.61369
1.61156
1.61201
1.61401
1.61456
1.61544
1.61718
1.61681
1.62099
1.63777
1.69166
1.80269
1.89854
1.98941
1.98346
1.95969
1.92823
1.92937
1.92949
1.94636
1.9913
2.05395
2.11526
2.16179
2.20143
2.22983
2.24537
2.25641
2.25229
2.24412
2.23202
2.21496
2.19851
2.1821
2.16854
2.1583
2.1486
2.13874
2.13197
2.13063
2.12994
2.12766
2.12195
2.11165
2.09551
2.08519
2.08124
2.07685
2.07145
2.06609
2.05972
2.05244
2.04604
2.03907
2.02631
2.00442
2.12751
1.98745
1.85588
1.74833
1.66937
1.59123
1.51459
1.46606
1.43632
1.3921
1.36328
1.36831
1.37122
1.37579
1.38696
1.40773
1.43456
1.45736
1.47411
1.49034
1.50887
1.5195
1.52835
1.53951
1.54951
1.554
1.55435
1.55549
1.55562
1.55302
1.54754
1.54531
1.54589
1.54722
1.5475
1.54756
1.5472
1.54569
1.54527
1.54492
1.54557
1.54721
1.5465
1.54589
1.54927
1.56108
1.59689
1.68642
1.80018
1.90062
1.92461
1.91716
1.907
1.89162
1.88357
1.87004
1.84995
1.8331
1.82444
1.83175
1.86147
1.91176
1.98026
2.04416
2.08686
2.11384
2.12227
2.12798
2.13121
2.13001
2.12258
2.11023
2.09821
2.08644
2.07408
2.06464
2.06151
2.05917
2.05522
2.05196
2.04748
2.03834
2.02288
2.00623
1.99649
1.99024
1.98417
1.98004
1.97784
1.97576
1.97524
1.97522
1.97287
1.95697
2.16522
2.04845
1.93249
1.83492
1.75629
1.67678
1.59349
1.54737
1.50863
1.4661
1.41998
1.39823
1.37494
1.35137
1.35354
1.3604
1.36931
1.38525
1.40223
1.42133
1.44325
1.45845
1.4699
1.47841
1.48701
1.49509
1.49918
1.50367
1.5115
1.51738
1.51683
1.51595
1.51424
1.51047
1.50507
1.50083
1.49731
1.49296
1.49281
1.49389
1.49583
1.50061
1.50253
1.50602
1.52085
1.57899
1.6934
1.81739
1.88432
1.88375
1.88133
1.87544
1.87487
1.86517
1.84688
1.82832
1.81403
1.80329
1.79712
1.79347
1.78115
1.77831
1.79161
1.8281
1.87952
1.93306
1.97724
2.01059
2.03481
2.04646
2.04474
2.04015
2.03146
2.01835
2.01153
2.01102
2.01235
2.01362
2.01003
2.00278
1.99232
1.9785
1.96227
1.94684
1.93023
1.91204
1.90311
1.90096
1.90045
1.90298
1.90582
1.90908
1.91301
1.9106
2.18901
2.09079
1.9895
1.90197
1.82444
1.75177
1.67862
1.62651
1.57809
1.53183
1.49255
1.46511
1.43448
1.39458
1.37854
1.37261
1.36203
1.3567
1.35932
1.3691
1.38409
1.40178
1.41953
1.43209
1.44279
1.45421
1.46397
1.46941
1.47624
1.48536
1.48907
1.49122
1.4919
1.49064
1.48687
1.48164
1.47673
1.47182
1.46903
1.46823
1.46935
1.47316
1.48081
1.50829
1.5954
1.73539
1.84342
1.8696
1.87782
1.87922
1.87787
1.86697
1.84973
1.83214
1.81696
1.80498
1.79868
1.79762
1.79271
1.78023
1.76607
1.75294
1.74091
1.73326
1.73587
1.7517
1.78607
1.83292
1.8818
1.93098
1.9627
1.98066
1.97861
1.96984
1.95503
1.95269
1.95319
1.96207
1.96975
1.96685
1.96198
1.95278
1.93775
1.91921
1.89834
1.87372
1.85956
1.85532
1.85169
1.85171
1.8548
1.85927
1.86376
1.86379
2.20234
2.11912
2.03155
1.95511
1.88554
1.8088
1.74269
1.69399
1.64626
1.59639
1.55496
1.5221
1.48258
1.44299
1.41493
1.39666
1.37538
1.35531
1.35423
1.36027
1.3621
1.36263
1.3697
1.37927
1.39112
1.4045
1.42236
1.43691
1.44816
1.46126
1.46843
1.47359
1.4755
1.47476
1.47247
1.47173
1.47014
1.46798
1.46425
1.46139
1.46202
1.47168
1.52269
1.64424
1.78199
1.85041
1.88504
1.88916
1.88695
1.87603
1.86033
1.84263
1.8244
1.8096
1.80123
1.79823
1.79457
1.78664
1.77731
1.76596
1.75275
1.74038
1.7307
1.71932
1.70417
1.69369
1.68449
1.687
1.70055
1.73543
1.78289
1.83198
1.86455
1.88539
1.90092
1.90296
1.90332
1.90418
1.9074
1.91382
1.91901
1.91558
1.90735
1.89718
1.88216
1.86246
1.84676
1.83619
1.82695
1.82089
1.81846
1.81623
1.8169
1.81694
2.2052
2.13478
2.06286
1.99311
1.92585
1.85659
1.79925
1.74921
1.69919
1.64392
1.6067
1.57449
1.53976
1.4987
1.46885
1.44464
1.41961
1.39123
1.38303
1.37824
1.36638
1.35784
1.3544
1.3512
1.34926
1.3524
1.36438
1.38764
1.40765
1.42953
1.4453
1.4535
1.46048
1.4606
1.45826
1.45971
1.46267
1.463
1.46163
1.46219
1.47849
1.56638
1.7196
1.8258
1.87964
1.89255
1.89058
1.88208
1.87081
1.85713
1.84028
1.82247
1.80668
1.80023
1.79497
1.78682
1.77468
1.76307
1.75573
1.74841
1.74096
1.73242
1.72194
1.70836
1.68956
1.67354
1.6616
1.64996
1.6392
1.63333
1.63805
1.65069
1.67457
1.7078
1.74328
1.76968
1.79638
1.82282
1.83338
1.84696
1.85681
1.85621
1.85712
1.85508
1.84825
1.84263
1.83616
1.82844
1.81672
1.8033
1.79439
1.78891
1.78563
1.78064
2.20615
2.14512
2.081
2.02199
1.96121
1.89567
1.84191
1.79367
1.74504
1.69319
1.65346
1.61691
1.58096
1.54395
1.51761
1.49224
1.46516
1.43338
1.41453
1.39798
1.3783
1.36088
1.35257
1.34822
1.3419
1.34174
1.34388
1.35015
1.36159
1.37336
1.39148
1.40821
1.42863
1.44033
1.44487
1.45128
1.45445
1.45609
1.46366
1.50702
1.61909
1.77216
1.882
1.90001
1.89601
1.88452
1.8752
1.86526
1.85365
1.83981
1.8258
1.81041
1.79714
1.78758
1.77816
1.76753
1.7543
1.7402
1.73307
1.72904
1.72335
1.71339
1.70278
1.69174
1.67667
1.6574
1.64181
1.62743
1.61376
1.60277
1.59526
1.59139
1.58993
1.58867
1.58564
1.59446
1.60731
1.63344
1.66902
1.70269
1.73283
1.75652
1.78515
1.79396
1.79424
1.79479
1.79529
1.7944
1.78995
1.78096
1.77163
1.76458
1.75862
1.75025
2.20389
2.1498
2.09378
2.04133
1.984
1.92472
1.87792
1.83116
1.77781
1.72924
1.69489
1.65747
1.62078
1.58234
1.55747
1.53065
1.50438
1.47833
1.45953
1.4392
1.41654
1.39023
1.37714
1.36782
1.3549
1.34464
1.34362
1.34284
1.33687
1.3327
1.33707
1.34823
1.36693
1.39165
1.4126
1.43313
1.44062
1.45608
1.55282
1.70529
1.82719
1.89526
1.90488
1.90044
1.89619
1.88144
1.863
1.84884
1.83416
1.81895
1.80473
1.7919
1.7823
1.77106
1.75911
1.74747
1.73396
1.71856
1.7079
1.70163
1.69605
1.68754
1.67795
1.66968
1.6602
1.64516
1.62335
1.60374
1.58895
1.57718
1.56787
1.56151
1.55734
1.5531
1.54782
1.53702
1.51814
1.49731
1.49945
1.51381
1.54315
1.57754
1.61948
1.65659
1.68946
1.71023
1.72207
1.73351
1.73758
1.73265
1.72651
1.72313
1.71824
1.71488
2.19784
2.15036
2.10216
2.05537
2.00292
1.95004
1.90369
1.85797
1.80748
1.76528
1.72847
1.69112
1.65017
1.61876
1.59577
1.56941
1.53964
1.51076
1.49432
1.47354
1.45168
1.42697
1.40912
1.39295
1.37538
1.35452
1.34716
1.3426
1.33305
1.32667
1.32684
1.32809
1.33049
1.33979
1.3591
1.39063
1.42526
1.54021
1.75909
1.85492
1.89863
1.91488
1.91209
1.90327
1.89081
1.87231
1.84968
1.82797
1.80858
1.79366
1.78269
1.77289
1.76288
1.74919
1.73612
1.7242
1.71064
1.69385
1.67995
1.67199
1.66574
1.66077
1.65576
1.64717
1.63693
1.62318
1.60257
1.58115
1.56634
1.55454
1.54508
1.53777
1.53043
1.52363
1.51702
1.50914
1.49747
1.47911
1.45591
1.44317
1.43735
1.44047
1.4509
1.47267
1.50342
1.54162
1.57565
1.60384
1.62691
1.6407
1.65022
1.66019
1.66149
1.65893
2.18984
2.14819
2.10569
2.06257
2.01322
1.96664
1.92506
1.88039
1.82976
1.79184
1.75669
1.72188
1.68194
1.65247
1.62656
1.59944
1.57141
1.54698
1.52895
1.50691
1.48275
1.4582
1.44283
1.4258
1.40782
1.38532
1.37301
1.3629
1.34795
1.33179
1.32914
1.32792
1.32204
1.32179
1.32834
1.3677
1.50653
1.73831
1.84191
1.86693
1.87603
1.87348
1.87108
1.87006
1.86005
1.84229
1.82439
1.80449
1.78303
1.77003
1.76141
1.7548
1.74343
1.7277
1.71103
1.69708
1.68464
1.67114
1.65619
1.64487
1.63743
1.63224
1.62693
1.61659
1.60551
1.59361
1.57834
1.56277
1.5499
1.53793
1.52583
1.51386
1.50435
1.49645
1.48823
1.4799
1.47187
1.4615
1.4438
1.4209
1.40937
1.40293
1.39612
1.38956
1.38728
1.39181
1.4032
1.42365
1.45005
1.47674
1.50092
1.5281
1.55074
1.57931
2.17468
2.13988
2.10305
2.06322
2.01962
1.97796
1.9383
1.8951
1.85128
1.81701
1.78252
1.74493
1.70629
1.68271
1.65749
1.63073
1.59692
1.57539
1.55708
1.53536
1.51239
1.48979
1.4732
1.45338
1.43227
1.40984
1.3967
1.3831
1.3667
1.34745
1.33563
1.32891
1.32037
1.32559
1.39066
1.54761
1.71169
1.82253
1.81426
1.80716
1.80104
1.7947
1.79676
1.80208
1.80134
1.79697
1.78806
1.77473
1.75671
1.74187
1.73632
1.72718
1.71255
1.69691
1.68133
1.66902
1.65925
1.64955
1.63883
1.62685
1.61461
1.60407
1.59313
1.58199
1.5706
1.5604
1.55152
1.54252
1.53215
1.52016
1.50594
1.49048
1.479
1.47078
1.46309
1.45487
1.44699
1.43904
1.42755
1.40843
1.38899
1.37836
1.3699
1.36159
1.35524
1.35219
1.35012
1.34854
1.34693
1.34597
1.34942
1.36085
1.38001
1.42953
2.15705
2.12757
2.09668
2.06143
2.02183
1.98533
1.94935
1.90861
1.86857
1.83645
1.80374
1.76788
1.73352
1.70879
1.68167
1.65416
1.62382
1.60413
1.58294
1.55971
1.53197
1.51406
1.49903
1.48029
1.45992
1.43727
1.42325
1.40772
1.39033
1.37192
1.35797
1.34799
1.3577
1.4314
1.6326
1.75209
1.81626
1.81268
1.79366
1.76637
1.74353
1.73057
1.72967
1.72992
1.73015
1.72875
1.72424
1.72224
1.71802
1.70155
1.69546
1.69161
1.67998
1.66746
1.655
1.64085
1.6305
1.62581
1.61957
1.60936
1.59603
1.57908
1.56268
1.55073
1.54159
1.53337
1.52627
1.51775
1.50856
1.49857
1.48675
1.47169
1.45793
1.44866
1.44018
1.43154
1.42309
1.41497
1.40652
1.39434
1.37451
1.35754
1.3476
1.33823
1.33066
1.32717
1.32537
1.3236
1.3212
1.31567
1.30336
1.28922
1.28376
1.29112
2.13596
2.11123
2.08476
2.05451
2.02098
1.98894
1.95499
1.91606
1.88196
1.85289
1.82165
1.7833
1.75412
1.73046
1.70366
1.67356
1.64492
1.6268
1.60379
1.58077
1.55397
1.53649
1.51965
1.49975
1.47852
1.46053
1.44809
1.43159
1.41345
1.39339
1.3778
1.39226
1.4821
1.68951
1.8353
1.83876
1.82927
1.80122
1.76748
1.7433
1.726
1.71161
1.69462
1.67995
1.67023
1.66252
1.65433
1.64626
1.64665
1.6429
1.63599
1.63554
1.62993
1.62211
1.61461
1.6039
1.59918
1.59812
1.59201
1.58253
1.57027
1.55464
1.53658
1.52309
1.51503
1.50859
1.50088
1.49083
1.48085
1.47295
1.46377
1.4531
1.44145
1.42862
1.41738
1.40886
1.40096
1.39244
1.38315
1.37217
1.35739
1.33967
1.32839
1.32044
1.31309
1.30777
1.30422
1.30149
1.29892
1.29507
1.28659
1.2711
1.25867
1.24913
2.11912
2.09692
2.07313
2.04635
2.01791
1.98876
1.95809
1.92406
1.89295
1.86405
1.83325
1.79786
1.77135
1.74697
1.72092
1.68811
1.66421
1.64512
1.62227
1.59647
1.57079
1.55722
1.53938
1.52014
1.49639
1.47976
1.46699
1.44918
1.43415
1.42102
1.44503
1.5698
1.73628
1.87948
1.87558
1.8528
1.8224
1.79094
1.76183
1.7402
1.72483
1.70672
1.68441
1.66298
1.64533
1.628
1.61503
1.60777
1.60045
1.58918
1.57325
1.5628
1.55498
1.55359
1.55584
1.55847
1.5563
1.55093
1.54751
1.54286
1.53548
1.52656
1.5166
1.50312
1.49171
1.48344
1.47349
1.46189
1.45144
1.44333
1.43591
1.42806
1.41993
1.41054
1.40065
1.39086
1.3808
1.3706
1.36122
1.35173
1.33922
1.3246
1.31239
1.30191
1.29256
1.28459
1.27811
1.27309
1.26929
1.26717
1.26539
1.25868
1.24484
1.22861
2.09763
2.07769
2.05635
2.03279
2.00959
1.9844
1.9556
1.92481
1.89833
1.87
1.83968
1.8072
1.7835
1.75874
1.73232
1.70135
1.67938
1.65927
1.63673
1.61042
1.58787
1.57372
1.55526
1.53578
1.51259
1.49926
1.48301
1.46632
1.46155
1.50655
1.67948
1.81962
1.90326
1.89864
1.87632
1.8502
1.82033
1.79258
1.76986
1.74721
1.72548
1.70313
1.67904
1.65376
1.63008
1.60997
1.59453
1.58179
1.56964
1.56088
1.55389
1.53638
1.51346
1.50155
1.49759
1.49833
1.49855
1.49365
1.48978
1.48497
1.48104
1.48241
1.48249
1.47495
1.46484
1.46049
1.45254
1.44043
1.42885
1.41608
1.40506
1.39754
1.39306
1.38899
1.38296
1.37409
1.36327
1.3521
1.34132
1.3291
1.31435
1.30275
1.29402
1.28488
1.27531
1.26588
1.25681
1.24914
1.24349
1.24087
1.24039
1.23949
1.23298
1.2153
2.08078
2.0576
2.03779
2.01799
1.99788
1.97646
1.95009
1.92416
1.8996
1.87407
1.84382
1.81616
1.79404
1.76823
1.74068
1.71113
1.69313
1.67147
1.64847
1.62101
1.60276
1.58891
1.56957
1.54869
1.52591
1.51271
1.49688
1.5029
1.57195
1.77797
1.93205
1.94444
1.93205
1.90078
1.86971
1.84332
1.81827
1.79518
1.7737
1.75042
1.72522
1.70011
1.67545
1.65096
1.62731
1.6059
1.58819
1.57206
1.55676
1.54466
1.5335
1.51981
1.49985
1.4801
1.46833
1.46087
1.45303
1.44321
1.4349
1.42824
1.4207
1.41937
1.42438
1.43009
1.43021
1.42926
1.42354
1.40798
1.39638
1.38726
1.37885
1.37263
1.36764
1.36225
1.35699
1.35026
1.34174
1.33253
1.32269
1.31017
1.29576
1.28284
1.2715
1.26228
1.25359
1.24424
1.23467
1.22614
1.22013
1.21662
1.2144
1.21298
1.21226
1.20182
2.06822
2.04754
2.02414
2.00459
1.98569
1.96511
1.94272
1.921
1.89847
1.87336
1.84447
1.82209
1.80049
1.77648
1.74552
1.71952
1.70274
1.68181
1.65906
1.63097
1.61612
1.60113
1.5819
1.55892
1.53954
1.52684
1.54956
1.66487
1.84412
2.00737
2.00408
1.96904
1.92013
1.88538
1.85723
1.8342
1.81392
1.79438
1.77397
1.75154
1.72751
1.70252
1.67658
1.65011
1.62499
1.60355
1.58585
1.56977
1.55432
1.53842
1.52258
1.50515
1.4857
1.46811
1.45057
1.43506
1.42605
1.41885
1.40939
1.39491
1.38157
1.37186
1.36716
1.36749
1.3695
1.37083
1.36879
1.35857
1.35376
1.35387
1.34833
1.34286
1.33658
1.32671
1.31952
1.31539
1.31219
1.3084
1.3019
1.29304
1.28262
1.26939
1.25419
1.24022
1.23016
1.22169
1.21335
1.20565
1.20014
1.19647
1.19346
1.19049
1.1863
1.17723
2.03239
2.03341
2.01343
1.99162
1.97374
1.95498
1.93306
1.91235
1.89384
1.87184
1.84473
1.8222
1.8018
1.77902
1.75029
1.72703
1.70948
1.68866
1.66549
1.64074
1.62703
1.61115
1.591
1.56849
1.55807
1.59558
1.76702
1.93523
2.03431
2.03178
2.0003
1.95764
1.91679
1.88339
1.85307
1.83035
1.8113
1.79216
1.77136
1.7491
1.72556
1.70059
1.67416
1.64763
1.6228
1.60095
1.58169
1.56336
1.54575
1.53121
1.51596
1.49671
1.47888
1.46459
1.44737
1.4255
1.41135
1.4008
1.38722
1.37567
1.36469
1.35011
1.33532
1.328
1.3233
1.31859
1.31395
1.30764
1.29964
1.29923
1.30072
1.30342
1.30223
1.29319
1.28387
1.27915
1.27579
1.2731
1.27351
1.27376
1.26815
1.25774
1.24081
1.22123
1.20768
1.19893
1.19283
1.18894
1.18562
1.18196
1.17762
1.17262
1.16556
1.15076
1.86313
2.00708
2.00086
1.9798
1.95961
1.94166
1.92267
1.90415
1.887
1.86676
1.84211
1.82288
1.80296
1.78004
1.75139
1.73309
1.71579
1.69507
1.67062
1.64814
1.6358
1.61785
1.59808
1.59804
1.66409
1.86547
2.02043
2.06067
2.05129
2.0203
1.98472
1.94961
1.9192
1.8899
1.85661
1.82596
1.8029
1.78236
1.76213
1.74168
1.72024
1.69656
1.67027
1.64399
1.62098
1.60139
1.58389
1.56652
1.54479
1.52095
1.50272
1.48692
1.47378
1.46146
1.44769
1.42998
1.40896
1.38919
1.36975
1.35807
1.34961
1.33765
1.32194
1.30944
1.29909
1.28743
1.2802
1.27655
1.27077
1.26071
1.252
1.24974
1.24706
1.24217
1.23769
1.23492
1.23489
1.23754
1.23979
1.24025
1.2391
1.23438
1.22411
1.20714
1.19195
1.18166
1.1749
1.17249
1.1737
1.17141
1.16553
1.15907
1.14992
1.13301
1.47033
1.88052
1.98004
1.96941
1.94694
1.92833
1.91146
1.89332
1.87739
1.86045
1.83948
1.81971
1.80149
1.77858
1.75197
1.73512
1.71736
1.69899
1.67334
1.65394
1.64197
1.62558
1.64149
1.75604
1.9465
2.09862
2.09063
2.06657
2.03032
1.99875
1.96945
1.9423
1.91557
1.88588
1.85257
1.82077
1.7948
1.77131
1.7496
1.7302
1.71111
1.69063
1.66742
1.64183
1.61652
1.59458
1.5775
1.56223
1.54394
1.51977
1.49551
1.47711
1.46163
1.44707
1.434
1.42066
1.40344
1.38277
1.36276
1.34916
1.33904
1.32899
1.31712
1.30249
1.2879
1.27332
1.25962
1.25122
1.24438
1.23668
1.22719
1.21789
1.20919
1.20024
1.1938
1.19072
1.18991
1.19309
1.2015
1.20541
1.20513
1.20257
1.19609
1.18478
1.17374
1.16524
1.15773
1.15335
1.15323
1.15144
1.14721
1.1431
1.13758
1.12214
1.0759
1.54763
1.8801
1.9531
1.93976
1.91691
1.89821
1.88386
1.86972
1.85221
1.83199
1.8148
1.79849
1.77612
1.75154
1.73544
1.71881
1.701
1.67519
1.65832
1.65044
1.68845
1.85654
2.05962
2.12265
2.10733
2.07417
2.0396
2.00734
1.98026
1.95559
1.93206
1.90674
1.87705
1.84515
1.81515
1.78814
1.7628
1.739
1.71751
1.69797
1.67948
1.66042
1.63898
1.6146
1.58888
1.56543
1.5464
1.53009
1.51272
1.49275
1.47382
1.45632
1.43962
1.42531
1.41162
1.39451
1.37412
1.35749
1.34535
1.33309
1.32011
1.30688
1.29415
1.2815
1.26665
1.25119
1.24162
1.23347
1.22292
1.21019
1.1977
1.18645
1.1778
1.17303
1.16716
1.16032
1.15898
1.15972
1.16326
1.16566
1.16526
1.16113
1.15121
1.14292
1.14095
1.13851
1.13589
1.13643
1.13541
1.13272
1.12929
1.12425
1.11188
1.00185
1.12158
1.59718
1.86808
1.92693
1.91304
1.8898
1.87163
1.85825
1.84378
1.82559
1.80893
1.79209
1.77053
1.74993
1.73436
1.72046
1.70054
1.67699
1.67933
1.75269
1.95853
2.12887
2.16956
2.1503
2.10759
2.06299
2.02759
1.99842
1.97113
1.94562
1.91957
1.89207
1.86435
1.83602
1.80733
1.77931
1.75253
1.72738
1.70453
1.68424
1.66609
1.64847
1.6295
1.60811
1.5841
1.55817
1.53341
1.51366
1.49879
1.48508
1.46959
1.45089
1.42959
1.41049
1.39711
1.38678
1.37484
1.35914
1.34153
1.32565
1.3111
1.29643
1.28208
1.26997
1.26017
1.25095
1.24152
1.23114
1.21952
1.20646
1.19167
1.17583
1.16238
1.1558
1.15302
1.14949
1.14544
1.14079
1.13747
1.13492
1.13125
1.12694
1.12104
1.11201
1.10721
1.10744
1.10922
1.11198
1.11345
1.11353
1.11231
1.10923
1.09862
1.00001
1.00423
1.16604
1.6254
1.85126
1.90236
1.88847
1.86599
1.84849
1.83193
1.81547
1.80172
1.78528
1.76585
1.74675
1.7314
1.71827
1.70159
1.71674
1.84966
2.05345
2.19831
2.19158
2.164
2.12516
2.08653
2.05257
2.01801
1.98547
1.95546
1.92854
1.90288
1.8769
1.85073
1.82397
1.79546
1.76487
1.73499
1.70903
1.68728
1.66833
1.65057
1.63297
1.61496
1.59606
1.5751
1.55118
1.52626
1.50422
1.48677
1.4722
1.45882
1.44354
1.42357
1.40105
1.38264
1.37033
1.36157
1.35171
1.33986
1.32708
1.31016
1.29232
1.27549
1.25969
1.24807
1.24256
1.23845
1.23245
1.22215
1.20773
1.19022
1.17277
1.15879
1.14901
1.14518
1.14286
1.13712
1.12981
1.12472
1.12039
1.11563
1.10972
1.10096
1.0881
1.07794
1.07642
1.0773
1.07962
1.08397
1.08744
1.08782
1.08711
1.08019
1
1.00003
1.00775
1.2037
1.63693
1.83165
1.8793
1.86491
1.84457
1.82305
1.80631
1.79231
1.77651
1.75986
1.74067
1.72904
1.7223
1.76847
1.96494
2.1603
2.23182
2.22745
2.19443
2.14916
2.10261
2.06453
2.03357
2.00173
1.96876
1.93795
1.91118
1.88632
1.8618
1.83663
1.80967
1.78002
1.74819
1.71745
1.69163
1.671
1.65309
1.63558
1.61711
1.59741
1.57719
1.55728
1.53694
1.51542
1.49546
1.47836
1.462
1.44614
1.43166
1.41544
1.39657
1.37917
1.36409
1.3524
1.34549
1.33854
1.32543
1.30438
1.28848
1.28081
1.27076
1.2571
1.24424
1.23381
1.22347
1.21304
1.20326
1.19336
1.18185
1.16772
1.15292
1.14175
1.13389
1.12718
1.12211
1.1178
1.11276
1.10685
1.10002
1.09093
1.07696
1.06234
1.05749
1.0557
1.05579
1.05653
1.05852
1.05978
1.05955
1.05553
1
1
1.00007
1.01192
1.23187
1.63196
1.81662
1.85727
1.84519
1.82095
1.80062
1.7839
1.77053
1.75087
1.73386
1.73907
1.8313
2.07604
2.26308
2.25249
2.22116
2.19125
2.16267
2.12635
2.08742
2.05042
2.01491
1.98118
1.94914
1.91985
1.89371
1.86911
1.84492
1.82044
1.79429
1.76466
1.73212
1.70132
1.676
1.65536
1.63719
1.61973
1.60185
1.58283
1.56236
1.5417
1.52285
1.5048
1.48623
1.46969
1.45408
1.43663
1.41955
1.40512
1.39294
1.3819
1.36912
1.35379
1.3405
1.32768
1.31236
1.29991
1.29034
1.27715
1.26299
1.25269
1.24193
1.23139
1.22165
1.21248
1.20307
1.19238
1.1785
1.16294
1.15008
1.13831
1.12947
1.12298
1.11859
1.11475
1.10984
1.10362
1.09677
1.08739
1.07187
1.05752
1.05246
1.04972
1.04742
1.04462
1.04214
1.03939
1.03539
1.02946
1
1
1
1.00012
1.01636
1.24151
1.63651
1.79915
1.83186
1.82085
1.79783
1.77953
1.76148
1.74487
1.75455
1.91802
2.16663
2.31522
2.31083
2.26374
2.20534
2.15913
2.12711
2.09763
2.06594
2.03157
1.99665
1.96295
1.93167
1.90318
1.87632
1.84996
1.82368
1.79807
1.7729
1.74625
1.71741
1.68895
1.66416
1.64332
1.6246
1.60611
1.58726
1.56833
1.54965
1.53148
1.51488
1.50217
1.49131
1.47567
1.45685
1.43683
1.41699
1.40082
1.38703
1.37418
1.36446
1.35535
1.34207
1.3272
1.31385
1.3007
1.2879
1.27381
1.25873
1.25162
1.24741
1.24071
1.23256
1.22393
1.2145
1.2028
1.18567
1.16212
1.14965
1.14537
1.14037
1.13466
1.12938
1.12394
1.11715
1.10842
1.09791
1.08533
1.07119
1.05994
1.05429
1.04991
1.04373
1.0382
1.03393
1.02911
1.02343
1.015
1
1
1
1
1.0002
1.01866
1.25039
1.62947
1.76952
1.80908
1.79717
1.7784
1.75633
1.78092
2.00456
2.28471
2.31956
2.29551
2.2594
2.22304
2.18346
2.14165
2.10408
2.07053
2.03774
2.00531
1.97361
1.9425
1.91201
1.88287
1.85548
1.82914
1.80287
1.77712
1.75258
1.72864
1.70377
1.67825
1.6545
1.63364
1.61484
1.59692
1.57888
1.56058
1.54282
1.52673
1.51294
1.50029
1.48473
1.4661
1.44867
1.43504
1.42171
1.40652
1.39067
1.37585
1.36188
1.34842
1.33557
1.32245
1.31223
1.30447
1.29395
1.27933
1.26423
1.25225
1.24195
1.23341
1.22545
1.217
1.20709
1.19411
1.17672
1.15993
1.14961
1.1427
1.13701
1.13102
1.12486
1.11793
1.10949
1.0998
1.08942
1.07832
1.06636
1.05518
1.04573
1.0391
1.03441
1.03009
1.02566
1.02148
1.01719
1.00827
1
1
1
1
1
1.00025
1.02043
1.25764
1.59649
1.74551
1.78335
1.77975
1.82128
2.08152
2.35118
2.39153
2.35262
2.27931
2.21882
2.18261
2.15165
2.11727
2.08105
2.04603
2.01256
1.98118
1.95159
1.92253
1.89277
1.8634
1.836
1.81084
1.78695
1.76285
1.73908
1.71675
1.69517
1.67354
1.65106
1.62992
1.6107
1.59253
1.57461
1.5567
1.53925
1.52297
1.50828
1.49369
1.47723
1.46211
1.44988
1.43639
1.42057
1.40387
1.38767
1.3725
1.35793
1.34473
1.33352
1.32396
1.31483
1.30374
1.28982
1.27459
1.26113
1.24941
1.23951
1.23161
1.22421
1.21606
1.20609
1.19289
1.17636
1.16113
1.15075
1.14365
1.1376
1.13139
1.12494
1.11744
1.1083
1.09786
1.08664
1.0751
1.06439
1.05406
1.04389
1.03643
1.03143
1.02688
1.02252
1.01861
1.01411
1.00506
1
1
1
1
1
1
1.0003
1.02166
1.23746
1.56684
1.703
1.82147
2.15797
2.36299
2.37194
2.33781
2.30674
2.26186
2.21193
2.16823
2.13165
2.09802
2.06594
2.03497
2.00424
1.97343
1.94297
1.91271
1.88232
1.85334
1.82763
1.8048
1.78453
1.76605
1.74682
1.72406
1.69812
1.67325
1.65668
1.64048
1.6228
1.60473
1.58642
1.56798
1.54958
1.53176
1.5155
1.50096
1.48773
1.47548
1.46253
1.44722
1.43012
1.41246
1.39537
1.3797
1.36604
1.35448
1.34464
1.33571
1.32549
1.3125
1.29681
1.28056
1.26685
1.25668
1.24897
1.24197
1.23454
1.22586
1.21504
1.20123
1.18489
1.17018
1.16064
1.15425
1.14837
1.14206
1.13491
1.12601
1.11521
1.10365
1.09291
1.08363
1.07496
1.06454
1.05164
1.04114
1.03504
1.03071
1.02689
1.02281
1.01771
1.00795
1
1
1
1
1
1
1
1.00031
1.02051
1.23068
1.6328
2.10273
2.50642
2.598
2.45044
2.33373
2.27721
2.24214
2.20113
2.15731
2.1182
2.08555
2.05791
2.03239
2.00595
1.97681
1.94433
1.90908
1.87553
1.84732
1.82383
1.80279
1.78259
1.76107
1.73744
1.71452
1.69296
1.6723
1.65022
1.62922
1.61013
1.59163
1.57334
1.55523
1.53711
1.51902
1.50171
1.48641
1.47374
1.46233
1.44987
1.43515
1.41817
1.39994
1.38217
1.36649
1.35377
1.34325
1.33377
1.32438
1.31373
1.30037
1.28413
1.26792
1.25495
1.24569
1.23833
1.23157
1.22462
1.21626
1.20517
1.19061
1.17412
1.16007
1.15116
1.14457
1.13804
1.13174
1.12482
1.11577
1.10499
1.09396
1.08395
1.0751
1.06579
1.05356
1.03988
1.03002
1.02458
1.02117
1.01818
1.01479
1.00973
0.998073
)
;

boundaryField
{
    inlet
    {
        type            fixedValue;
        value           uniform 1;
    }
    outlet
    {
        type            inletOutlet;
        inletValue      uniform 1;
        value           nonuniform List<scalar> 
32
(
2.05682
2.04224
2.00303
1.95347
1.9099
1.86433
1.81815
1.78199
1.7519
1.71517
1.65762
1.57661
1.42536
1.29012
1.24942
1.22821
1.21337
1.19998
1.17752
1.15024
1.13127
1.11999
1.11021
1.09709
1.07874
1.05443
1.02874
1.01445
1.00773
1.00458
1.00747
0.996949
)
;
    }
    bottom
    {
        type            zeroGradient;
    }
    top
    {
        type            zeroGradient;
    }
    obstacle
    {
        type            zeroGradient;
    }
    defaultFaces
    {
        type            empty;
    }
}


// ************************************************************************* //
