/*--------------------------------*- C++ -*----------------------------------*\
  =========                 |
  \\      /  F ield         | OpenFOAM: The Open Source CFD Toolbox
   \\    /   O peration     | Website:  https://openfoam.org
    \\  /    A nd           | Version:  7
     \\/     M anipulation  |
\*---------------------------------------------------------------------------*/
FoamFile
{
    version     2.0;
    format      ascii;
    class       volScalarField;
    location    "0.5";
    object      rho;
}
// * * * * * * * * * * * * * * * * * * * * * * * * * * * * * * * * * * * * * //

dimensions      [1 -3 0 0 0 0 0];

internalField   nonuniform List<scalar> 
4040
(
1.40001
1.40001
1.40001
1.40001
1.40001
1.40001
1.40001
1.40001
1.40001
1.40001
1.40001
1.40001
1.40001
1.40001
1.40001
1.40001
2.41013
5.14724
5.54937
5.52509
5.58513
5.5721
5.50253
5.47305
1.40001
1.40001
1.40001
1.40001
1.40001
1.40001
1.40001
1.40001
1.40001
1.40001
1.40001
1.40001
1.40001
1.40001
1.40001
1.40001
2.33759
5.07115
5.52707
5.51242
5.56505
5.5495
5.4618
5.41874
1.40001
1.40001
1.40001
1.40001
1.40001
1.40001
1.40001
1.40001
1.40001
1.40001
1.40001
1.40001
1.40001
1.40001
1.40001
1.40001
2.18665
4.95916
5.50799
5.48123
5.51908
5.48971
5.38552
5.33942
1.40001
1.40001
1.40001
1.40001
1.40001
1.40001
1.40001
1.40001
1.40001
1.40001
1.40001
1.40001
1.40001
1.40001
1.40001
1.40001
1.9317
4.77438
5.49874
5.45229
5.48535
5.45282
5.30854
5.30937
1.40001
1.40001
1.40001
1.40001
1.40001
1.40001
1.40001
1.40001
1.40001
1.40001
1.40001
1.40001
1.40001
1.40001
1.40001
1.40001
1.64115
4.46229
5.48136
5.41356
5.42605
5.36718
5.0986
4.87609
1.40001
1.40001
1.40001
1.40001
1.40001
1.40001
1.40001
1.40001
1.40001
1.40001
1.40001
1.40001
1.40001
1.40001
1.40001
1.40001
1.42049
3.93422
5.4086
5.35252
5.34323
5.2804
5.06907
4.86832
1.40001
1.40001
1.40001
1.40001
1.40001
1.40001
1.40001
1.40001
1.40001
1.40001
1.40001
1.40001
1.40001
1.40001
1.40001
1.40001
1.40021
3.25646
5.26816
5.30808
5.28634
5.22631
5.04813
4.83771
1.40001
1.40001
1.40001
1.40001
1.40001
1.40001
1.40001
1.40001
1.40001
1.40001
1.40001
1.40001
1.40001
1.40001
1.40001
1.40001
1.40001
2.50694
5.06882
5.30214
5.24874
5.1746
5.01352
4.83457
1.40001
1.40001
1.40001
1.40001
1.40001
1.40001
1.40001
1.40001
1.40001
1.40001
1.40001
1.40001
1.40001
1.40001
1.40001
1.40001
1.40001
1.80014
4.68863
5.32265
5.22509
5.11314
4.95176
4.73898
1.40001
1.40001
1.40001
1.40001
1.40001
1.40001
1.40001
1.40001
1.40001
1.40001
1.40001
1.40001
1.40001
1.40001
1.40001
1.40001
1.40001
1.43166
3.88002
5.25419
5.14954
5.03301
4.86152
4.60435
1.40001
1.40001
1.40001
1.40001
1.40001
1.40001
1.40001
1.40001
1.40001
1.40001
1.40001
1.40001
1.40001
1.40001
1.40001
1.40001
1.40001
1.40021
2.73569
5.07714
5.08839
4.96302
4.75125
4.47441
1.40001
1.40001
1.40001
1.40001
1.40001
1.40001
1.40001
1.40001
1.40001
1.40001
1.40001
1.40001
1.40001
1.40001
1.40001
1.40001
1.40001
1.40001
1.67551
4.55579
5.10964
4.92065
4.68369
4.40163
1.40001
1.40001
1.40001
1.40001
1.40001
1.40001
1.40001
1.40001
1.40001
1.40001
1.40001
1.40001
1.40001
1.40001
1.40001
1.40001
1.40001
1.40001
1.41004
3.26666
4.96634
4.89028
4.67151
4.38713
1.40001
1.40001
1.40001
1.40001
1.40001
1.40001
1.40001
1.40001
1.40001
1.40001
1.40001
1.40001
1.40001
1.40001
1.40001
1.40001
1.40001
1.40001
1.40002
1.84893
4.60329
4.90373
4.65868
4.39284
1.40001
1.40001
1.40001
1.40001
1.40001
1.40001
1.40001
1.40001
1.40001
1.40001
1.40001
1.40001
1.40001
1.40001
1.40001
1.40001
1.40001
1.40001
1.40001
1.4244
3.22381
4.78895
4.66342
4.40666
1.40001
1.40001
1.40001
1.40001
1.40001
1.40001
1.40001
1.40001
1.40001
1.40001
1.40001
1.40001
1.40001
1.40001
1.40001
1.40001
1.40001
1.40001
1.40001
1.4001
1.80767
4.22877
4.72356
4.45089
1.40001
1.40001
1.40001
1.40001
1.40001
1.40001
1.40001
1.40001
1.40001
1.40001
1.40001
1.40001
1.40001
1.40001
1.40001
1.40001
1.40001
1.40001
1.40001
1.40001
1.41803
2.60873
4.53288
4.54772
1.40001
1.40001
1.40001
1.40001
1.40001
1.40001
1.40001
1.40001
1.40001
1.40001
1.40001
1.40001
1.40001
1.40001
1.40001
1.40001
1.40001
1.40001
1.40001
1.40001
1.4001
1.56685
3.4485
4.4867
1.40001
1.40001
1.40001
1.40001
1.40001
1.40001
1.40001
1.40001
1.40001
1.40001
1.40001
1.40001
1.40001
1.40001
1.40001
1.40001
1.40001
1.40001
1.40001
1.40001
1.40001
1.40322
1.95273
3.9196
1.40001
1.40001
1.40001
1.40001
1.40001
1.40001
1.40001
1.40001
1.40001
1.40001
1.40001
1.40001
1.40001
1.40001
1.40001
1.40001
1.40001
1.40001
1.40001
1.40001
1.40001
1.40001
1.43279
2.40516
1.40001
1.40001
1.40001
1.40001
1.40001
1.40001
1.40001
1.40001
1.40001
1.40001
1.40001
1.40001
1.40001
1.40001
1.40001
1.40001
1.40001
1.40001
1.40001
1.40001
1.40001
1.40001
1.40028
1.51176
1.40001
1.40001
1.40001
1.40001
1.40001
1.40001
1.40001
1.40001
1.40001
1.40001
1.40001
1.40001
1.40001
1.40001
1.40001
1.40001
1.40001
1.40001
1.40001
1.40001
1.40001
1.40001
1.40001
1.40184
1.40001
1.40001
1.40001
1.40001
1.40001
1.40001
1.40001
1.40001
1.40001
1.40001
1.40001
1.40001
1.40001
1.40001
1.40001
1.40001
1.40001
1.40001
1.40001
1.40001
1.40001
1.40001
1.40001
1.40001
1.40001
1.40001
1.40001
1.40001
1.40001
1.40001
1.40001
1.40001
1.40001
1.40001
1.40001
1.40001
1.40001
1.40001
1.40001
1.40001
1.40001
1.40001
1.40001
1.40001
1.40001
1.40001
1.40001
1.40001
1.40001
1.40001
1.40001
1.40001
1.40001
1.40001
1.40001
1.40001
1.40001
1.40001
1.40001
1.40001
1.40001
1.40001
1.40001
1.40001
1.40001
1.40001
1.40001
1.40001
1.40001
1.40001
1.40001
1.40001
1.40001
1.40001
1.40001
1.40001
1.40001
1.40001
1.40001
1.40001
1.40001
1.40001
1.40001
1.40001
1.40001
1.40001
1.40001
1.40001
1.40001
1.40001
1.40001
1.40001
1.40001
1.40001
1.40001
1.40001
1.40001
1.40001
1.40001
1.40001
1.40001
1.40001
1.40001
1.40001
1.40001
1.40001
1.40001
1.40001
1.40001
1.40001
1.40001
1.40001
1.40001
1.40001
1.40001
1.40001
1.40001
1.40001
1.40001
1.40001
1.40001
1.40001
1.40001
1.40001
1.40001
1.40001
1.40001
1.40001
1.40001
1.40001
1.40001
1.40001
1.40001
1.40001
1.40001
1.40001
1.40001
1.40001
1.40001
1.40001
1.40001
1.40001
1.40001
1.40001
1.40001
1.40001
1.40001
1.40001
1.40001
1.40001
1.40001
1.40001
1.40001
1.40001
1.40001
1.40001
1.40001
1.40001
1.40001
1.40001
1.40001
1.40001
1.40001
1.40001
1.40001
1.40001
1.40001
1.40001
1.40001
1.40001
1.40001
1.40001
1.40001
1.40001
1.40001
1.40001
1.40001
1.40001
1.40001
1.40001
1.40001
1.40001
1.40001
1.40001
1.40001
1.40001
1.40001
1.40001
1.40001
1.40001
1.40001
1.40001
1.40001
1.40001
1.40001
1.40001
1.40001
1.40001
1.40001
1.40001
1.40001
1.40001
1.40001
1.40001
1.40001
1.40001
1.40001
1.40001
1.40001
1.40001
1.40001
1.40001
1.40001
1.40001
1.40001
1.40001
1.40001
1.40001
1.40001
1.40001
1.40001
1.40001
1.40001
1.40001
1.40001
1.40001
1.40001
1.40001
1.40001
1.40001
1.40001
1.40001
1.40001
1.40001
1.40001
1.40001
1.40001
1.40001
1.40001
1.40001
1.40001
1.40001
1.40001
1.40001
1.40001
1.40001
1.40001
1.40001
1.40001
1.40001
1.40001
1.40001
1.40001
1.40001
1.40001
1.40001
1.40001
1.40001
1.40001
1.40001
1.40001
1.40001
1.40001
1.40001
1.40001
1.40001
1.40001
1.40001
1.40001
1.40001
1.40001
1.40001
1.40001
1.40001
1.40001
1.40001
1.40001
1.40001
1.40001
1.40001
1.40001
1.40001
1.40001
1.40001
1.40001
1.40001
1.40001
1.40001
1.40001
1.40001
1.40001
1.40001
1.40001
1.40001
1.40001
1.40001
1.40001
1.40001
1.40001
1.40001
1.40001
1.40001
1.40001
1.40001
1.40001
1.40001
1.40001
1.40001
1.40001
1.40001
1.40001
1.40001
1.40001
1.40001
1.40001
1.40001
1.40001
1.40001
1.40001
1.40001
1.40001
1.40001
1.40001
1.40001
1.40001
1.40001
1.40001
1.40001
1.40001
1.40001
1.40001
1.40001
1.40001
1.40001
1.40001
1.40001
1.40001
1.40001
1.40001
1.40001
1.40001
1.40001
1.40001
1.40001
1.40001
1.40001
1.40001
1.40001
1.40001
1.40001
1.40001
1.40001
1.40001
1.40001
1.40001
1.40001
1.40001
1.40001
1.40001
1.40001
1.40001
1.40001
1.40001
1.40001
1.40001
1.40001
1.40001
1.40001
1.40001
1.40001
1.40001
1.40001
1.40001
1.40001
1.40001
1.40001
1.40001
1.40001
1.40001
1.40001
1.40001
1.40001
1.40001
1.40001
1.40001
1.40001
1.40001
1.40001
1.40001
1.40001
1.40001
1.40001
1.40001
1.40001
1.40001
1.40001
1.40001
1.40001
1.40001
1.40001
1.40001
1.40001
1.40001
1.40001
1.40001
1.40001
1.40001
1.40001
1.40001
1.40001
1.40001
1.40001
1.40001
1.40001
1.40001
1.40001
1.40001
1.40001
1.40001
1.40001
1.40001
1.40001
1.40001
1.40001
1.40001
1.40001
1.40001
1.40001
1.40001
1.40001
1.40001
1.40001
4.33063
4.51775
4.6652
4.76045
4.62978
4.61239
4.62059
4.56608
4.34204
3.49517
4.19985
3.38056
4.07232
3.40026
4.00896
3.46165
4.00155
3.52463
4.03808
3.6199
4.10059
3.71844
4.14448
3.79887
4.22943
3.91491
4.30309
3.96172
4.3673
4.09838
4.05716
4.18871
2.72908
4.01568
1.61486
2.87923
1.40583
1.68557
1.40003
1.40964
1.40001
1.40005
1.40001
1.40001
1.40001
1.40001
1.40001
1.40001
1.40001
1.40001
1.40001
1.40001
1.40001
1.40001
1.40001
1.40001
1.40001
1.40001
1.40001
1.40001
1.40001
1.40001
1.40001
1.40001
1.40001
1.40001
1.40001
1.40001
1.40001
1.40001
1.40001
1.40001
1.23592
0.599387
0.381811
0.284766
0.278725
0.323473
0.416969
0.486675
0.542761
0.597663
0.659338
0.700103
0.705662
0.697211
0.688631
0.688513
0.69377
0.706757
0.726702
0.73319
0.730132
0.716357
0.692361
0.669176
0.652761
0.649455
0.649256
0.653057
0.666444
0.675393
0.677263
0.671501
0.652864
0.645746
0.647264
0.653626
0.672454
0.709813
0.734443
0.739654
0.73988
0.728146
0.721482
0.722914
0.726976
0.735339
0.750086
0.772432
0.80487
0.849419
0.90491
0.969993
1.05088
1.17249
1.32512
1.38609
1.38749
1.38317
1.38013
1.3806
1.39476
1.40199
1.39997
1.39819
1.39772
1.39757
1.39947
1.41107
1.43509
1.44988
1.45146
1.45154
1.45157
1.45135
1.44931
1.44157
1.42325
1.40473
1.40015
1.40001
1.4
1.4
1.4
1.4
1.4
1.4
1.40001
1.40001
1.40001
1.40001
1.40001
1.40001
1.40001
1.40001
1.86082
1.16481
0.903317
0.74379
0.602775
0.576668
0.571028
0.538181
0.524365
0.539955
0.575146
0.616704
0.642196
0.655967
0.668703
0.676858
0.686512
0.705049
0.731895
0.73975
0.738429
0.729236
0.709277
0.685399
0.667618
0.661559
0.659571
0.660967
0.671317
0.683155
0.686445
0.685822
0.677803
0.66714
0.665675
0.668415
0.679611
0.706203
0.73029
0.737588
0.739741
0.736189
0.732061
0.732941
0.73498
0.739424
0.749652
0.769579
0.801064
0.845564
0.903729
0.975215
1.06797
1.19603
1.32337
1.37219
1.37553
1.37427
1.37539
1.38434
1.3945
1.3985
1.39852
1.39773
1.39697
1.39669
1.40092
1.41624
1.43985
1.45133
1.45216
1.45214
1.45187
1.45051
1.44725
1.43962
1.42321
1.40538
1.40022
1.40001
1.4
1.4
1.4
1.4
1.4
1.4
1.40001
1.40001
1.40001
1.40001
1.40001
1.40001
1.40001
1.40001
2.40287
1.72598
1.32664
1.09417
0.915643
0.792315
0.730972
0.664135
0.583215
0.575863
0.596836
0.627547
0.653664
0.669757
0.686671
0.700389
0.707686
0.720029
0.743617
0.772898
0.77958
0.776053
0.764233
0.74054
0.718554
0.704051
0.693836
0.691568
0.693423
0.697897
0.7001
0.70007
0.698887
0.696509
0.696505
0.701609
0.710277
0.723798
0.735722
0.740278
0.741997
0.745076
0.749146
0.753529
0.758954
0.766283
0.777667
0.795443
0.823144
0.863906
0.919982
0.996872
1.10716
1.25096
1.35496
1.3794
1.38137
1.38207
1.38712
1.39832
1.40105
1.39874
1.39693
1.39579
1.39492
1.39479
1.39975
1.41962
1.44555
1.45398
1.45417
1.45373
1.45254
1.45054
1.44674
1.43821
1.42111
1.40431
1.40014
1.40001
1.4
1.4
1.4
1.4
1.4
1.4
1.40001
1.40001
1.40001
1.40001
1.40001
1.40001
1.40001
1.40001
2.73602
2.17073
1.76758
1.47317
1.22288
1.04727
0.960364
0.891491
0.787978
0.709604
0.701407
0.682439
0.654461
0.65144
0.662329
0.680031
0.68938
0.700845
0.723089
0.754944
0.777271
0.780099
0.774969
0.7661
0.75801
0.750718
0.740785
0.731193
0.727752
0.727823
0.725628
0.722577
0.722122
0.722185
0.723751
0.729693
0.737047
0.748486
0.756567
0.759542
0.762116
0.768782
0.777576
0.785009
0.791511
0.800363
0.814514
0.835914
0.865754
0.905545
0.960524
1.04308
1.16816
1.30634
1.36893
1.38001
1.38488
1.39366
1.40438
1.40536
1.40138
1.39624
1.39353
1.39189
1.39066
1.39026
1.39859
1.42584
1.45141
1.45636
1.4564
1.4559
1.45427
1.45164
1.44715
1.43702
1.4181
1.40286
1.40006
1.4
1.4
1.4
1.4
1.4
1.4
1.40001
1.40001
1.40001
1.40001
1.40001
1.40001
1.40001
1.40001
1.40001
2.97455
2.48925
2.08986
1.79572
1.54731
1.33161
1.18115
1.0638
0.947188
0.854688
0.821144
0.783374
0.727275
0.677279
0.676217
0.683881
0.671711
0.663221
0.670025
0.69343
0.732744
0.759394
0.758652
0.75539
0.759618
0.760001
0.753943
0.748948
0.749416
0.753518
0.756545
0.755769
0.75699
0.757634
0.755544
0.753255
0.754632
0.760112
0.76657
0.770646
0.77762
0.793968
0.81305
0.821816
0.828356
0.838943
0.856102
0.880271
0.912891
0.958906
1.02796
1.12833
1.24461
1.32784
1.36616
1.38473
1.40088
1.41303
1.41415
1.40906
1.39712
1.38961
1.38766
1.38639
1.38573
1.38854
1.40473
1.43761
1.45667
1.45852
1.45852
1.45792
1.45623
1.45331
1.44773
1.4349
1.41391
1.40146
1.40002
1.4
1.4
1.4
1.4
1.4
1.4
1.40001
1.40001
1.40001
1.40001
1.40001
1.40001
1.40001
1.40001
1.40001
3.15139
2.7258
2.37366
2.07118
1.79156
1.57149
1.41657
1.2886
1.1451
1.01233
0.965861
0.923677
0.866823
0.788986
0.763926
0.749629
0.714277
0.673969
0.661624
0.664664
0.677286
0.693512
0.703822
0.715753
0.741958
0.755203
0.751491
0.748162
0.748914
0.755887
0.770749
0.778906
0.781438
0.78243
0.780934
0.7732
0.765901
0.766889
0.771516
0.777352
0.78904
0.816929
0.838725
0.846408
0.855752
0.873036
0.897773
0.927645
0.966295
1.02511
1.11356
1.21089
1.28109
1.32543
1.35953
1.3947
1.4197
1.42402
1.42215
1.40939
1.38966
1.38159
1.37978
1.37868
1.37872
1.3869
1.41538
1.45081
1.46126
1.46163
1.46154
1.46052
1.4584
1.45509
1.44788
1.43106
1.40895
1.40051
1.40001
1.4
1.4
1.4
1.4
1.4
1.4
1.40001
1.40001
1.40001
1.40001
1.40001
1.40001
1.40001
1.40001
1.40001
3.31194
2.92741
2.58046
2.29796
2.04107
1.79904
1.60684
1.47036
1.33577
1.20962
1.13359
1.06758
0.987537
0.892716
0.84688
0.819972
0.773986
0.714599
0.674904
0.672798
0.678486
0.669344
0.664511
0.670537
0.691069
0.71603
0.725424
0.731017
0.73693
0.748575
0.769998
0.78254
0.788669
0.793947
0.794919
0.790062
0.780116
0.778823
0.78273
0.791166
0.807675
0.839231
0.856715
0.865302
0.879033
0.902793
0.934873
0.972749
1.02177
1.09472
1.18796
1.25987
1.29928
1.32981
1.37042
1.41652
1.43117
1.43163
1.42521
1.40181
1.37996
1.3754
1.3745
1.37427
1.37746
1.39341
1.4302
1.46049
1.46556
1.46586
1.46603
1.46532
1.46268
1.45753
1.44623
1.42392
1.40413
1.4001
1.4
1.4
1.4
1.4
1.4
1.4
1.40001
1.40001
1.40001
1.40001
1.40001
1.40001
1.40001
1.40001
1.40001
1.40001
3.42766
3.06899
2.75831
2.49425
2.2406
2.00193
1.82296
1.67329
1.50921
1.35997
1.28582
1.21907
1.13755
1.03398
0.966329
0.927823
0.874788
0.804599
0.737423
0.727922
0.720998
0.694567
0.671169
0.66744
0.669947
0.67449
0.678399
0.687238
0.704374
0.727268
0.757689
0.778412
0.787306
0.794397
0.799411
0.798159
0.794553
0.794599
0.799867
0.813186
0.8348
0.862562
0.87987
0.894016
0.914001
0.941214
0.975815
1.02036
1.08055
1.15812
1.23428
1.28845
1.32825
1.37026
1.41697
1.43597
1.43735
1.43491
1.41805
1.38698
1.37071
1.36852
1.36795
1.36882
1.37714
1.40195
1.44289
1.46643
1.46935
1.47004
1.47055
1.47038
1.4679
1.46054
1.44211
1.41447
1.40111
1.40001
1.4
1.4
1.4
1.4
1.4
1.4
1.40001
1.40001
1.40001
1.40001
1.40001
1.40001
1.40001
1.40001
1.40001
1.40001
3.56882
3.22273
2.90085
2.6456
2.42121
2.18732
1.98295
1.83563
1.69163
1.54456
1.44141
1.35749
1.26713
1.16517
1.09776
1.04974
0.991872
0.910326
0.814022
0.791185
0.772825
0.732127
0.68727
0.676191
0.678949
0.676507
0.675282
0.676022
0.684087
0.703247
0.726702
0.752126
0.771697
0.783434
0.792246
0.797942
0.800676
0.805033
0.81369
0.829415
0.852642
0.879812
0.906443
0.934337
0.965666
0.999577
1.03933
1.09243
1.16316
1.23584
1.28719
1.32838
1.37815
1.42753
1.44408
1.44594
1.44494
1.4328
1.40024
1.3718
1.3655
1.36458
1.36432
1.36694
1.38022
1.41326
1.45712
1.47455
1.47612
1.47679
1.47721
1.47669
1.4727
1.45972
1.43187
1.40575
1.40015
1.4
1.4
1.4
1.4
1.4
1.4
1.40001
1.40001
1.40001
1.40001
1.40001
1.40001
1.40001
1.40001
1.40001
1.40001
1.40001
3.65675
3.36318
3.06775
2.8121
2.592
2.37374
2.17614
2.00827
1.83294
1.67251
1.58234
1.50337
1.4096
1.28912
1.20578
1.16037
1.10072
1.02077
0.928775
0.8878
0.860803
0.817
0.752031
0.728432
0.73113
0.723957
0.701539
0.693154
0.695918
0.702325
0.707703
0.716173
0.733136
0.751127
0.76633
0.785402
0.80198
0.812065
0.822637
0.838729
0.860476
0.885412
0.91573
0.955709
1.00249
1.05082
1.10366
1.16943
1.24932
1.31625
1.35398
1.38266
1.41501
1.43592
1.44179
1.44371
1.4421
1.41958
1.37762
1.35921
1.35742
1.35701
1.35931
1.36868
1.38859
1.42616
1.46895
1.48344
1.48519
1.48636
1.48693
1.48556
1.47707
1.4527
1.41688
1.40111
1.40001
1.4
1.4
1.4
1.4
1.4
1.4
1.40001
1.40001
1.40001
1.40001
1.40001
1.40001
1.40001
1.40001
1.40001
1.40001
1.40001
3.76051
3.46694
3.19658
2.95785
2.75116
2.54548
2.35149
2.1888
2.01999
1.83467
1.7048
1.62673
1.53903
1.42377
1.33155
1.27297
1.20261
1.11492
1.01442
0.974863
0.951829
0.909532
0.842107
0.800114
0.792477
0.777885
0.744363
0.71562
0.714866
0.717181
0.716924
0.720255
0.726399
0.737458
0.758516
0.781207
0.796431
0.807533
0.818487
0.832734
0.852831
0.879336
0.912098
0.952632
1.00085
1.05476
1.11728
1.18783
1.26117
1.32301
1.36706
1.39647
1.4152
1.42081
1.42297
1.42339
1.41311
1.38033
1.35385
1.34741
1.34581
1.34757
1.3575
1.37801
1.40559
1.44227
1.48001
1.49357
1.49576
1.49713
1.49764
1.49476
1.47612
1.43551
1.40469
1.40007
1.4
1.4
1.4
1.4
1.4
1.4
1.40001
1.40001
1.40001
1.40001
1.40001
1.40001
1.40001
1.40001
1.40001
1.40001
1.40001
1.40001
3.95108
3.63591
3.33907
3.08823
2.89399
2.70504
2.51281
2.34624
2.19006
2.01106
1.85873
1.76418
1.67024
1.54629
1.44774
1.38841
1.31978
1.23321
1.12361
1.06756
1.04272
1.00108
0.930947
0.88508
0.874871
0.859343
0.820683
0.773516
0.769794
0.767766
0.757996
0.752779
0.754537
0.758873
0.768519
0.778546
0.786279
0.794089
0.803588
0.817636
0.839464
0.867647
0.898933
0.935412
0.981476
1.04419
1.11523
1.18798
1.2554
1.3116
1.35945
1.39046
1.3966
1.39816
1.3975
1.38487
1.3561
1.33506
1.33198
1.33341
1.33978
1.34913
1.36368
1.38582
1.41617
1.45946
1.49905
1.51
1.51187
1.51292
1.51207
1.49907
1.45946
1.41312
1.40043
1.40001
1.4
1.4
1.4
1.4
1.4
1.40001
1.40001
1.40001
1.40001
1.40001
1.40001
1.40001
1.40001
1.40001
1.40001
1.40001
1.40001
1.40001
4.06435
3.86409
3.54615
3.25098
3.03394
2.85434
2.67462
2.50495
2.35364
2.18848
2.01662
1.90134
1.80832
1.68537
1.56673
1.49974
1.432
1.34751
1.23908
1.18142
1.15282
1.10898
1.03516
0.971677
0.956545
0.93865
0.899244
0.844145
0.830683
0.82303
0.808667
0.79197
0.790584
0.793188
0.794463
0.79711
0.800231
0.80583
0.817817
0.839378
0.866512
0.892275
0.917709
0.947614
0.988905
1.04296
1.10436
1.1665
1.22163
1.27854
1.32039
1.33031
1.33385
1.3346
1.33041
1.31683
1.30897
1.311
1.31741
1.32882
1.3459
1.36638
1.38176
1.39526
1.42261
1.47594
1.52055
1.52948
1.53125
1.53193
1.52471
1.48757
1.42733
1.40161
1.40001
1.4
1.4
1.4
1.4
1.4
1.40001
1.40001
1.40001
1.40001
1.40001
1.40001
1.40001
1.40001
1.40001
1.40001
1.40001
1.40001
1.40001
1.40001
3.93118
3.968
3.80743
3.49327
3.21474
3.00063
2.82603
2.66401
2.51176
2.36412
2.19707
2.04646
1.94019
1.82483
1.7013
1.62258
1.55365
1.47102
1.36084
1.29473
1.26273
1.21595
1.14128
1.07392
1.05193
1.02988
0.984498
0.922494
0.907954
0.900665
0.88841
0.866971
0.857569
0.855646
0.849866
0.841555
0.84048
0.842481
0.853604
0.873351
0.891503
0.90799
0.928498
0.955904
0.992689
1.03582
1.08603
1.13903
1.18968
1.23023
1.24493
1.25312
1.26447
1.27728
1.2873
1.29461
1.301
1.30658
1.31305
1.32477
1.34472
1.36791
1.39093
1.41587
1.45723
1.51933
1.55064
1.55468
1.55591
1.55201
1.51784
1.44678
1.40418
1.40004
1.4
1.4
1.4
1.4
1.4
1.40001
1.40001
1.40001
1.40001
1.40001
1.40001
1.40001
1.40001
1.40001
1.40001
1.40001
1.40001
1.40001
1.40001
1.40001
2.87266
3.83965
3.87528
3.75877
3.47317
3.18913
2.98532
2.82418
2.66475
2.5225
2.3803
2.2209
2.08273
1.96168
1.84071
1.75477
1.68344
1.60068
1.49372
1.42511
1.3817
1.32682
1.24903
1.17396
1.14998
1.12681
1.08051
1.01189
0.991801
0.98522
0.972891
0.953229
0.939145
0.928271
0.911319
0.896484
0.894684
0.897936
0.913258
0.924201
0.931169
0.942369
0.961474
0.987938
1.01985
1.054
1.09574
1.15142
1.20001
1.21737
1.22588
1.23702
1.25173
1.26758
1.28218
1.29485
1.30684
1.31993
1.33429
1.3468
1.35727
1.36992
1.38983
1.43196
1.5076
1.57063
1.5833
1.58525
1.58352
1.55084
1.46955
1.40818
1.40009
1.4
1.4
1.4
1.4
1.4
1.40001
1.40001
1.40001
1.40001
1.40001
1.40001
1.40001
1.40001
1.40001
1.40001
1.40001
1.40001
1.40001
1.40001
1.40001
1.40001
1.69445
2.79141
3.72924
3.76643
3.6982
3.46161
3.20212
3.00786
2.827
2.66941
2.54782
2.40358
2.24493
2.10533
1.98468
1.90014
1.82488
1.73754
1.63016
1.56201
1.50941
1.44729
1.36374
1.28454
1.25713
1.2292
1.17927
1.11051
1.09304
1.08602
1.07098
1.04706
1.02635
1.00644
0.987429
0.981553
0.981158
0.990502
1.00548
1.00682
1.00745
1.01548
1.03412
1.06136
1.09443
1.12861
1.16441
1.20389
1.22292
1.22668
1.23006
1.23665
1.24728
1.2606
1.27503
1.28993
1.30526
1.32223
1.34179
1.36382
1.38406
1.40441
1.43683
1.50365
1.5887
1.61828
1.62118
1.6203
1.58597
1.49272
1.41264
1.40018
1.4
1.4
1.4
1.4
1.4
1.40001
1.40001
1.40001
1.40001
1.40001
1.40001
1.40001
1.40001
1.40001
1.40001
1.40001
1.40001
1.40001
1.40001
1.40001
1.40001
1.40001
1.41071
1.66112
2.64512
3.52216
3.72236
3.65727
3.47042
3.23912
3.03277
2.83758
2.70416
2.57504
2.41569
2.25254
2.13181
2.05833
1.98128
1.8851
1.77206
1.7032
1.64301
1.5747
1.47978
1.40013
1.37291
1.3421
1.28974
1.21922
1.2012
1.1942
1.17683
1.14867
1.11814
1.08897
1.07621
1.07393
1.07534
1.08733
1.09317
1.09027
1.09036
1.09814
1.11539
1.14195
1.1786
1.21991
1.24393
1.2504
1.25449
1.25708
1.2542
1.25166
1.25901
1.27379
1.2909
1.30611
1.31897
1.3316
1.34629
1.36618
1.39634
1.43983
1.51001
1.60746
1.66045
1.66628
1.6643
1.62278
1.51239
1.41585
1.40024
1.4
1.4
1.4
1.4
1.4
1.40001
1.40001
1.40001
1.40001
1.40001
1.40001
1.40001
1.40001
1.40001
1.40001
1.40001
1.40001
1.40001
1.40001
1.40001
1.40001
1.40001
1.40001
1.40006
1.40851
1.60405
2.36984
3.35477
3.63725
3.54116
3.46305
3.31431
3.09829
2.88878
2.72963
2.58546
2.41287
2.27823
2.21406
2.1397
2.04127
1.91617
1.84207
1.78065
1.70978
1.60236
1.52203
1.49479
1.46246
1.40679
1.33421
1.31816
1.31006
1.28761
1.24832
1.20646
1.1849
1.18115
1.17991
1.18519
1.19099
1.1878
1.18236
1.184
1.19371
1.21307
1.24429
1.28235
1.30479
1.30999
1.31107
1.31044
1.30614
1.29775
1.29838
1.3063
1.31991
1.33579
1.35185
1.36784
1.38534
1.40663
1.43473
1.47526
1.54119
1.63889
1.70768
1.71903
1.71283
1.65774
1.5254
1.41663
1.40023
1.4
1.4
1.4
1.4
1.4
1.40001
1.40001
1.40001
1.40001
1.40001
1.40001
1.40001
1.40001
1.40001
1.40001
1.40001
1.40001
1.40001
1.40001
1.40001
1.40001
1.40001
1.40001
1.40001
1.40001
1.40004
1.40549
1.5212
2.12331
3.06744
3.44647
3.50453
3.48326
3.37655
3.15909
2.93608
2.75419
2.57924
2.4413
2.35602
2.28347
2.19364
2.06647
1.98513
1.92386
1.85053
1.73085
1.65069
1.62437
1.59358
1.53368
1.45334
1.43827
1.42998
1.3999
1.34367
1.30183
1.29408
1.29348
1.29838
1.2976
1.29172
1.2852
1.27932
1.2812
1.29094
1.31442
1.34888
1.37254
1.37865
1.37909
1.3762
1.36699
1.34864
1.33895
1.34175
1.34877
1.35821
1.37014
1.38515
1.40482
1.43128
1.46674
1.51572
1.58894
1.69016
1.76237
1.7744
1.76043
1.68661
1.52794
1.41451
1.40016
1.4
1.4
1.4
1.4
1.40001
1.40001
1.40001
1.40001
1.40001
1.40001
1.40001
1.40001
1.40001
1.40001
1.40001
1.40001
1.40001
1.40001
1.40001
1.40001
1.40001
1.40001
1.40001
1.40001
1.40001
1.40001
1.40001
1.40002
1.40236
1.46211
1.87499
2.69808
3.26543
3.46891
3.44668
3.35894
3.18939
2.98637
2.783
2.6348
2.50909
2.4185
2.33934
2.21511
2.12106
2.06489
1.99575
1.86961
1.78178
1.75828
1.73036
1.67073
1.58021
1.55997
1.54935
1.50941
1.44059
1.41326
1.41175
1.41571
1.42148
1.41068
1.39648
1.38438
1.37956
1.38162
1.39462
1.42378
1.44579
1.44792
1.44534
1.44081
1.43302
1.4212
1.41312
1.41457
1.4217
1.43227
1.44445
1.45832
1.47538
1.49836
1.53137
1.58159
1.66037
1.76182
1.82438
1.83054
1.80251
1.70212
1.51605
1.41019
1.40009
1.4
1.4
1.4
1.4
1.40001
1.40001
1.40001
1.40001
1.40001
1.40001
1.40001
1.40001
1.40001
1.40001
1.40001
1.40001
1.40001
1.40001
1.40001
1.40001
1.40001
1.40001
1.40001
1.40001
1.40001
1.40001
1.40001
1.40001
1.40001
1.40001
1.4008
1.42826
1.66717
2.29921
2.98491
3.39152
3.36953
3.27617
3.18961
3.05134
2.87821
2.71537
2.57395
2.47948
2.37635
2.25263
2.18487
2.12694
2.01669
1.9155
1.89124
1.86474
1.80702
1.71069
1.67575
1.66161
1.61952
1.55092
1.53491
1.53465
1.54371
1.54244
1.52339
1.49779
1.48188
1.47933
1.48293
1.50109
1.52089
1.52476
1.52113
1.51151
1.49782
1.48179
1.47222
1.47272
1.47841
1.48917
1.50339
1.51949
1.53897
1.5654
1.60451
1.66509
1.75392
1.84681
1.88518
1.87999
1.83163
1.69546
1.48978
1.40545
1.40003
1.4
1.4
1.4
1.40001
1.40001
1.40001
1.40001
1.40001
1.40001
1.40001
1.40001
1.40001
1.40001
1.40001
1.40001
1.40001
1.40001
1.40001
1.40001
1.40001
1.40001
1.40001
1.40001
1.40001
1.40001
1.40001
1.40001
1.40001
1.40001
1.40001
1.40001
1.40001
1.40026
1.4094
1.51645
1.91021
2.65637
3.13002
3.22213
3.21523
3.20446
3.12476
2.98392
2.8078
2.64588
2.53978
2.41875
2.30928
2.2476
2.16423
2.05194
2.01493
1.98788
1.931
1.83404
1.78273
1.76685
1.73685
1.67597
1.65393
1.65439
1.66423
1.65973
1.63055
1.59141
1.57923
1.57825
1.58623
1.60092
1.60141
1.59459
1.5823
1.5666
1.55199
1.54531
1.54599
1.55255
1.56535
1.58149
1.60036
1.62349
1.65502
1.70262
1.77411
1.86414
1.92814
1.93722
1.91572
1.83951
1.65587
1.45547
1.40207
1.40001
1.40001
1.40001
1.40001
1.40001
1.40001
1.40001
1.40001
1.40001
1.40001
1.40001
1.40001
1.40001
1.40001
1.40001
1.40001
1.40001
1.40001
1.40001
1.40001
1.40001
1.40001
1.40001
1.40001
1.40001
1.40001
1.40001
1.40001
1.40001
1.40001
1.40001
1.40001
1.40001
1.40001
1.40001
1.40005
1.40225
1.43617
1.65705
2.24485
2.78375
3.05558
3.17916
3.16844
3.11376
3.00489
2.86053
2.74561
2.63322
2.49361
2.39342
2.31837
2.2075
2.13504
2.10124
2.04694
1.94641
1.89141
1.87601
1.85357
1.80501
1.7686
1.76632
1.77331
1.76668
1.72389
1.68172
1.67453
1.67497
1.6844
1.68405
1.67408
1.65932
1.64237
1.62706
1.62078
1.62116
1.62808
1.64368
1.665
1.6909
1.72326
1.76684
1.82695
1.90247
1.96637
1.98493
1.97468
1.93034
1.81138
1.58329
1.42499
1.40051
1.40001
1.40001
1.40001
1.40001
1.40001
1.40001
1.40001
1.40001
1.40001
1.40001
1.40001
1.40001
1.40001
1.40001
1.40001
1.40001
1.40001
1.40001
1.40001
1.40001
1.40001
1.40001
1.40001
1.40001
1.40001
1.40001
1.40001
1.40001
1.40001
1.40001
1.40001
1.40001
1.40001
1.40001
1.40001
1.40001
1.40001
1.40001
1.40037
1.41024
1.51045
1.83855
2.32899
2.79455
3.09365
3.08051
3.00978
2.95394
2.92069
2.85159
2.73672
2.60581
2.51079
2.40146
2.28603
2.22872
2.1749
2.07193
2.00945
1.9929
1.96813
1.92711
1.88554
1.87567
1.87326
1.85869
1.8151
1.77723
1.7687
1.76958
1.77267
1.76441
1.74682
1.7284
1.71502
1.71066
1.71181
1.72218
1.74353
1.77334
1.81008
1.85503
1.90884
1.96796
2.01503
2.02874
2.02085
1.98888
1.91184
1.72715
1.49711
1.40734
1.40008
1.40001
1.40001
1.40001
1.40001
1.40001
1.40001
1.40001
1.40001
1.40001
1.40001
1.40001
1.40001
1.40001
1.40001
1.40001
1.40001
1.40001
1.40001
1.40001
1.40001
1.40001
1.40001
1.40001
1.40001
1.40001
1.40001
1.40001
1.40001
1.40001
1.40001
1.40001
1.40001
1.40001
1.40001
1.40001
1.40001
1.40001
1.40001
1.40001
1.40001
1.40006
1.40236
1.42856
1.55473
1.89481
2.40416
2.76133
2.92238
2.96139
2.93238
2.91025
2.87088
2.79844
2.71294
2.62314
2.50258
2.41036
2.34556
2.24693
2.16419
2.13397
2.10116
2.05916
2.01409
1.99101
1.97891
1.95766
1.92126
1.89368
1.88043
1.87427
1.86939
1.8566
1.839
1.82869
1.8264
1.83077
1.84936
1.88004
1.91949
1.96495
2.01219
2.05219
2.07345
2.07438
2.06043
2.03143
1.97265
1.828
1.59322
1.43306
1.40124
1.40001
1.40001
1.40001
1.40001
1.40001
1.40001
1.40001
1.40001
1.40001
1.40001
1.40001
1.40001
1.40001
1.40001
1.40001
1.40001
1.40001
1.40001
1.40001
1.40001
1.40001
1.40001
1.40001
1.40001
1.40001
1.40001
1.40001
1.40001
1.40001
1.40001
1.40001
1.40001
1.40001
1.40001
1.40001
1.40001
1.40001
1.40001
1.40001
1.40001
1.40001
1.40001
1.40001
1.40001
1.40025
1.40419
1.43828
1.59088
1.93015
2.33
2.65626
2.80791
2.89269
2.87594
2.82065
2.77345
2.73512
2.68154
2.60938
2.55065
2.4743
2.38633
2.33436
2.28958
2.23771
2.18081
2.13381
2.12056
2.10649
2.07645
2.05581
2.03994
2.01899
2.00219
1.99273
1.988
1.98796
1.9986
2.02202
2.05433
2.08826
2.11554
2.12873
2.1282
2.11744
2.09678
2.06817
2.00902
1.87903
1.663
1.47135
1.40618
1.40011
1.40001
1.40001
1.40001
1.40001
1.40001
1.40001
1.40001
1.40001
1.40001
1.40001
1.40001
1.40001
1.40001
1.40001
1.40001
1.40001
1.40001
1.40001
1.40001
1.40001
1.40001
1.40001
1.40001
1.40001
1.40001
1.40001
1.40001
1.40001
1.40001
1.40001
1.40001
1.40001
1.40001
1.40001
1.40001
1.40001
1.40001
1.40001
1.40001
1.40001
1.40001
1.40001
1.40001
1.40001
1.40001
1.40001
1.40002
1.40042
1.40633
1.44795
1.58718
1.85299
2.19352
2.50611
2.67518
2.76413
2.75794
2.73685
2.70791
2.66616
2.63036
2.59533
2.54691
2.51027
2.47536
2.42581
2.36074
2.31665
2.31229
2.30862
2.28498
2.25764
2.23706
2.20967
2.18043
2.17068
2.16991
2.17255
2.1788
2.18461
2.18446
2.17887
2.16785
2.15176
2.13083
2.09428
2.02248
1.88662
1.68356
1.49584
1.41352
1.40054
1.40001
1.40001
1.40001
1.40001
1.40001
1.40001
1.40001
1.40001
1.40001
1.40001
1.40001
1.40001
1.40001
1.40001
1.40001
1.40001
1.40001
1.40001
1.40001
1.40001
1.40001
1.40001
1.40001
1.40001
1.40001
1.40001
1.40001
1.40001
1.40001
1.40001
1.40001
1.40001
1.40001
1.40001
1.40001
1.40001
1.40001
1.40001
1.40001
1.40001
1.40001
1.40001
1.40001
1.40001
1.40001
1.40001
1.40001
1.40001
1.40001
1.40001
1.40003
1.40061
1.40626
1.43544
1.53265
1.73352
2.01159
2.27788
2.47454
2.58922
2.63939
2.63809
2.62526
2.60605
2.56733
2.53995
2.5167
2.47567
2.42472
2.40795
2.40781
2.4062
2.38602
2.35543
2.3287
2.30147
2.27237
2.25033
2.23676
2.22656
2.21686
2.20614
2.19347
2.17517
2.14442
2.09117
1.99618
1.84372
1.65206
1.49084
1.4163
1.40108
1.40002
1.40001
1.40001
1.40001
1.40001
1.40001
1.40001
1.40001
1.40001
1.40001
1.40001
1.40001
1.40001
1.40001
1.40001
1.40001
1.40001
1.40001
1.40001
1.40001
1.40001
1.40001
1.40001
1.40001
1.40001
1.40001
1.40001
1.40001
1.40001
1.40001
1.40001
1.40001
1.40001
1.40001
1.40001
1.40001
1.40001
1.40001
1.40001
1.40001
1.40001
1.40001
1.40001
1.40001
1.40001
1.40001
1.40001
1.40001
1.40001
1.40001
1.40001
1.40001
1.40001
1.40001
1.40003
1.40037
1.40345
1.41984