/*--------------------------------*- C++ -*----------------------------------*\
  =========                 |
  \\      /  F ield         | OpenFOAM: The Open Source CFD Toolbox
   \\    /   O peration     | Website:  https://openfoam.org
    \\  /    A nd           | Version:  7
     \\/     M anipulation  |
\*---------------------------------------------------------------------------*/
FoamFile
{
    version     2.0;
    format      ascii;
    class       volVectorField;
    location    "3.1";
    object      U;
}
// * * * * * * * * * * * * * * * * * * * * * * * * * * * * * * * * * * * * * //

dimensions      [0 1 -1 0 0 0 0];

internalField   nonuniform List<vector> 
16192
(
(2.66336 0.109073 0)
(2.6675 0.108316 0)
(2.67108 0.107513 0)
(2.6748 0.106489 0)
(2.67838 0.105269 0)
(2.68191 0.104142 0)
(2.68619 0.103207 0)
(2.69034 0.102003 0)
(2.69355 0.100674 0)
(2.69679 0.0994638 0)
(2.69956 0.0982808 0)
(2.70191 0.0965693 0)
(2.70205 0.0924345 0)
(2.69437 0.0828149 0)
(2.68405 0.0720507 0)
(2.68307 0.0686788 0)
(2.6845 0.0685738 0)
(2.68898 0.0689101 0)
(2.6979 0.0726574 0)
(2.70579 0.0763866 0)
(2.70742 0.0766014 0)
(2.70855 0.0756777 0)
(2.70723 0.0721367 0)
(2.69896 0.0633354 0)
(2.69172 0.0544871 0)
(2.69287 0.052212 0)
(2.69453 0.0516272 0)
(2.69835 0.0514759 0)
(2.70569 0.0553506 0)
(2.71326 0.0617858 0)
(2.7156 0.0644084 0)
(2.7156 0.0648681 0)
(2.71515 0.0653167 0)
(2.7135 0.0651451 0)
(2.70826 0.0624427 0)
(2.6979 0.0560755 0)
(2.69215 0.0529514 0)
(2.69139 0.0528161 0)
(2.69034 0.0528745 0)
(2.68946 0.0531433 0)
(2.68973 0.0540527 0)
(2.69177 0.0562204 0)
(2.69637 0.0606863 0)
(2.70403 0.0684226 0)
(2.70925 0.0744355 0)
(2.7098 0.0758849 0)
(2.70967 0.0763048 0)
(2.70939 0.0767742 0)
(2.70887 0.0762093 0)
(2.70657 0.0737934 0)
(2.69969 0.0668121 0)
(2.68984 0.0563619 0)
(2.68725 0.0521653 0)
(2.68832 0.0515706 0)
(2.68958 0.0513253 0)
(2.6925 0.0519886 0)
(2.6991 0.0562011 0)
(2.70901 0.0645597 0)
(2.71496 0.069181 0)
(2.71602 0.0697171 0)
(2.71695 0.0700038 0)
(2.71716 0.0696549 0)
(2.71557 0.067696 0)
(2.71114 0.0634 0)
(2.70548 0.0560075 0)
(2.70299 0.0509249 0)
(2.68985 0.0285457 0)
(2.60349 -0.0910318 0)
(2.37617 -0.34224 0)
(2.1003 -0.663942 0)
(2.05704 -0.698369 0)
(2.07559 -0.652411 0)
(2.09244 -0.628525 0)
(2.10059 -0.631446 0)
(2.08764 -0.650583 0)
(2.07416 -0.673203 0)
(2.06923 -0.675988 0)
(2.07231 -0.669442 0)
(2.07998 -0.651641 0)
(2.08979 -0.634341 0)
(2.0935 -0.630774 0)
(2.08993 -0.631923 0)
(2.08582 -0.638368 0)
(2.08455 -0.643867 0)
(2.08611 -0.644815 0)
(2.08881 -0.642102 0)
(2.09258 -0.634988 0)
(2.09588 -0.627703 0)
(2.09815 -0.623435 0)
(2.10039 -0.621838 0)
(2.10426 -0.619951 0)
(2.10953 -0.617553 0)
(2.11377 -0.618037 0)
(2.11869 -0.61943 0)
(2.12208 -0.621145 0)
(2.12215 -0.62358 0)
(2.11833 -0.626407 0)
(2.11806 -0.62759 0)
(2.12114 -0.627247 0)
(2.12477 -0.625301 0)
(2.13188 -0.621465 0)
(2.14364 -0.614774 0)
(2.15395 -0.61101 0)
(2.15753 -0.611244 0)
(2.16118 -0.612843 0)
(2.16235 -0.615 0)
(2.1587 -0.618845 0)
(2.15192 -0.622963 0)
(2.15119 -0.624276 0)
(2.15395 -0.624623 0)
(2.15702 -0.623058 0)
(2.16276 -0.619018 0)
(2.17153 -0.611313 0)
(2.18114 -0.604906 0)
(2.18539 -0.603435 0)
(2.18879 -0.604278 0)
(2.19088 -0.60546 0)
(2.19073 -0.607416 0)
(2.18947 -0.609382 0)
(2.19102 -0.609451 0)
(2.19364 -0.608546 0)
(2.19613 -0.606479 0)
(2.19852 -0.604821 0)
(2.20026 -0.603618 0)
(2.20088 -0.602779 0)
(2.20029 -0.603175 0)
(2.20096 -0.603683 0)
(2.20326 -0.604004 0)
(2.20555 -0.603671 0)
(2.20829 -0.601929 0)
(2.21189 -0.598684 0)
(2.21579 -0.593951 0)
(2.21775 -0.590905 0)
(2.21905 -0.589704 0)
(2.21969 -0.589476 0)
(2.21957 -0.590454 0)
(2.21881 -0.591703 0)
(2.2176 -0.591532 0)
(2.21726 -0.589296 0)
(2.21851 -0.586755 0)
(2.22065 -0.584221 0)
(2.22469 -0.580691 0)
(2.23025 -0.575919 0)
(2.23361 -0.573693 0)
(2.23575 -0.57353 0)
(2.23821 -0.573271 0)
(2.23983 -0.572866 0)
(2.24017 -0.572649 0)
(2.23969 -0.572743 0)
(2.23988 -0.572615 0)
(2.24185 -0.571987 0)
(2.24482 -0.571335 0)
(2.24799 -0.570964 0)
(2.25184 -0.570331 0)
(2.25805 -0.569416 0)
(2.26281 -0.568129 0)
(2.26593 -0.567323 0)
(2.26897 -0.566626 0)
(2.27096 -0.564966 0)
(2.27094 -0.562108 0)
(2.27133 -0.560404 0)
(2.27354 -0.560319 0)
(2.27576 -0.560874 0)
(2.27801 -0.561673 0)
(2.28049 -0.562433 0)
(2.28278 -0.562366 0)
(2.28416 -0.560674 0)
(2.28656 -0.558588 0)
(2.28975 -0.557124 0)
(2.29316 -0.555987 0)
(2.29681 -0.555048 0)
(2.3011 -0.554036 0)
(2.30386 -0.553185 0)
(2.30655 -0.553139 0)
(2.30891 -0.552942 0)
(2.31019 -0.551986 0)
(2.31049 -0.550497 0)
(2.31196 -0.549703 0)
(2.31404 -0.549506 0)
(2.31613 -0.54919 0)
(2.3185 -0.548429 0)
(2.32074 -0.547128 0)
(2.32284 -0.545757 0)
(2.32506 -0.544071 0)
(2.3275 -0.541811 0)
(2.32997 -0.53855 0)
(2.33251 -0.534886 0)
(2.33381 -0.532661 0)
(2.33501 -0.530581 0)
(2.33598 -0.528181 0)
(2.33654 -0.52636 0)
(2.33722 -0.525233 0)
(2.33813 -0.524123 0)
(2.33995 -0.523306 0)
(2.34237 -0.523233 0)
(2.345 -0.522576 0)
(2.34795 -0.520639 0)
(2.35094 -0.518202 0)
(2.35388 -0.516111 0)
(2.35654 -0.514428 0)
(2.35867 -0.513083 0)
(2.36022 -0.512105 0)
(2.36178 -0.51164 0)
(2.36374 -0.512102 0)
(2.36531 -0.513365 0)
(2.36641 -0.514065 0)
(2.36901 -0.514101 0)
(2.37168 -0.514019 0)
(2.37449 -0.513653 0)
(2.37766 -0.512723 0)
(2.38214 -0.510682 0)
(2.38597 -0.507871 0)
(2.38849 -0.506283 0)
(2.39147 -0.505131 0)
(2.39403 -0.503564 0)
(2.39599 -0.50169 0)
(2.39695 -0.499603 0)
(2.39652 -0.497859 0)
(2.39605 -0.497607 0)
(2.39697 -0.497958 0)
(2.39879 -0.498164 0)
(2.40094 -0.498329 0)
(2.40331 -0.498598 0)
(2.40574 -0.498924 0)
(2.40858 -0.498882 0)
(2.41345 -0.497938 0)
(2.41852 -0.495224 0)
(2.42118 -0.492813 0)
(2.42344 -0.490888 0)
(2.4253 -0.488376 0)
(2.42508 -0.484827 0)
(2.42293 -0.481785 0)
(2.42259 -0.481135 0)
(2.42417 -0.481457 0)
(2.4262 -0.482329 0)
(2.42817 -0.483683 0)
(2.43031 -0.485149 0)
(2.43363 -0.486664 0)
(2.4388 -0.486964 0)
(2.44255 -0.485267 0)
(2.44438 -0.484049 0)
(2.44693 -0.482244 0)
(2.4485 -0.479404 0)
(2.44772 -0.475376 0)
(2.44636 -0.471567 0)
(2.44709 -0.470106 0)
(2.44855 -0.470571 0)
(2.45008 -0.47102 0)
(2.45112 -0.47061 0)
(2.45266 -0.469255 0)
(2.45443 -0.467817 0)
(2.45648 -0.465947 0)
(2.45889 -0.463822 0)
(2.66453 0.117272 0)
(2.66791 0.116041 0)
(2.67156 0.114859 0)
(2.67518 0.113782 0)
(2.67879 0.11276 0)
(2.68286 0.111764 0)
(2.68707 0.110506 0)
(2.69055 0.109085 0)
(2.69402 0.107643 0)
(2.69695 0.106196 0)
(2.69948 0.104413 0)
(2.70055 0.100672 0)
(2.6948 0.0918496 0)
(2.68336 0.0797202 0)
(2.68072 0.0745467 0)
(2.68219 0.0743147 0)
(2.6861 0.074422 0)
(2.69489 0.0777187 0)
(2.70439 0.0822593 0)
(2.70711 0.0828828 0)
(2.7083 0.0820004 0)
(2.70787 0.0786226 0)
(2.70008 0.0698659 0)
(2.69021 0.0585947 0)
(2.69035 0.0547974 0)
(2.69225 0.0542386 0)
(2.69596 0.0537509 0)
(2.70408 0.0567243 0)
(2.71351 0.0634062 0)
(2.71715 0.0663442 0)
(2.71761 0.0666822 0)
(2.71789 0.0671292 0)
(2.71725 0.0669631 0)
(2.71319 0.0642684 0)
(2.70258 0.0565069 0)
(2.69423 0.050725 0)
(2.69319 0.0500725 0)
(2.69269 0.0499751 0)
(2.69201 0.0501167 0)
(2.69219 0.0511776 0)
(2.69396 0.0534755 0)
(2.69813 0.0583161 0)
(2.70603 0.0670374 0)
(2.71254 0.0746673 0)
(2.71296 0.0768633 0)
(2.71249 0.0774555 0)
(2.71176 0.078053 0)
(2.71055 0.077931 0)
(2.70792 0.0758571 0)
(2.70113 0.0692082 0)
(2.69054 0.0582071 0)
(2.68662 0.0532968 0)
(2.68747 0.0527081 0)
(2.68853 0.0524971 0)
(2.69138 0.0530175 0)
(2.69821 0.0571602 0)
(2.70893 0.0660647 0)
(2.7157 0.0710867 0)
(2.71686 0.0716736 0)
(2.718 0.0719188 0)
(2.71836 0.0714817 0)
(2.71655 0.0695567 0)
(2.71149 0.0649635 0)
(2.70543 0.0565348 0)
(2.70285 0.0513644 0)
(2.67879 0.0115693 0)
(2.54611 -0.190476 0)
(2.36147 -0.401128 0)
(2.14814 -0.563759 0)
(2.07365 -0.682859 0)
(2.05105 -0.689295 0)
(2.05357 -0.681162 0)
(2.07083 -0.659361 0)
(2.08659 -0.642974 0)
(2.09005 -0.644628 0)
(2.08751 -0.651743 0)
(2.08586 -0.661085 0)
(2.0853 -0.663632 0)
(2.08772 -0.659399 0)
(2.09173 -0.648308 0)
(2.09532 -0.635821 0)
(2.0962 -0.633308 0)
(2.09489 -0.635091 0)
(2.09376 -0.639073 0)
(2.09481 -0.642632 0)
(2.09708 -0.642785 0)
(2.0996 -0.640097 0)
(2.10366 -0.634441 0)
(2.1067 -0.627119 0)
(2.10924 -0.620438 0)
(2.11042 -0.616964 0)
(2.11257 -0.617126 0)
(2.11583 -0.618771 0)
(2.11954 -0.620681 0)
(2.12245 -0.623 0)
(2.12283 -0.625728 0)
(2.12211 -0.625989 0)
(2.12398 -0.624259 0)
(2.12691 -0.622733 0)
(2.13187 -0.619999 0)
(2.14109 -0.614186 0)
(2.15173 -0.609562 0)
(2.15621 -0.609538 0)
(2.16005 -0.611631 0)
(2.16231 -0.614574 0)
(2.1606 -0.618782 0)
(2.15509 -0.62321 0)
(2.15215 -0.623027 0)
(2.15383 -0.620027 0)
(2.15678 -0.617098 0)
(2.16155 -0.614108 0)
(2.16949 -0.608492 0)
(2.17896 -0.603446 0)
(2.18342 -0.602398 0)
(2.18713 -0.603487 0)
(2.19011 -0.605015 0)
(2.19091 -0.607058 0)
(2.18982 -0.608614 0)
(2.19083 -0.608169 0)
(2.19334 -0.607299 0)
(2.19593 -0.605494 0)
(2.19832 -0.603909 0)
(2.20025 -0.603422 0)
(2.20189 -0.603178 0)
(2.20147 -0.603339 0)
(2.20045 -0.603364 0)
(2.20176 -0.602548 0)
(2.20407 -0.601714 0)
(2.20672 -0.600264 0)
(2.21103 -0.597819 0)
(2.21612 -0.593926 0)
(2.21867 -0.591698 0)
(2.22054 -0.59092 0)
(2.22174 -0.590033 0)
(2.22108 -0.589879 0)
(2.22018 -0.590916 0)
(2.21987 -0.591493 0)
(2.22071 -0.591064 0)
(2.22198 -0.589865 0)
(2.22384 -0.587152 0)
(2.22682 -0.583037 0)
(2.23085 -0.577579 0)
(2.23447 -0.573605 0)
(2.23635 -0.572762 0)
(2.23875 -0.572675 0)
(2.24061 -0.573185 0)
(2.24172 -0.57377 0)
(2.24167 -0.573935 0)
(2.24125 -0.573454 0)
(2.24238 -0.572321 0)
(2.24509 -0.570989 0)
(2.2484 -0.569357 0)
(2.25219 -0.567711 0)
(2.25653 -0.566255 0)
(2.26225 -0.565 0)
(2.26685 -0.5644 0)
(2.2701 -0.564581 0)
(2.27316 -0.564804 0)
(2.27611 -0.564578 0)
(2.27777 -0.563387 0)
(2.27717 -0.560646 0)
(2.27708 -0.559001 0)
(2.27897 -0.558972 0)
(2.28156 -0.559255 0)
(2.28423 -0.559783 0)
(2.28691 -0.560429 0)
(2.28954 -0.56037 0)
(2.29275 -0.559659 0)
(2.29625 -0.558711 0)
(2.29999 -0.556961 0)
(2.30403 -0.554421 0)
(2.30708 -0.552592 0)
(2.30978 -0.552131 0)
(2.3121 -0.551811 0)
(2.31386 -0.551626 0)
(2.31512 -0.551542 0)
(2.31592 -0.551238 0)
(2.31727 -0.550547 0)
(2.31949 -0.549832 0)
(2.32197 -0.549381 0)
(2.32428 -0.548571 0)
(2.32666 -0.54708 0)
(2.32948 -0.545352 0)
(2.33242 -0.543247 0)
(2.33482 -0.540151 0)
(2.33674 -0.536338 0)
(2.33822 -0.533344 0)
(2.33897 -0.53166 0)
(2.33981 -0.530449 0)
(2.3406 -0.529069 0)
(2.34158 -0.527608 0)
(2.34261 -0.526105 0)
(2.34359 -0.524598 0)
(2.34531 -0.522719 0)
(2.34749 -0.520924 0)
(2.35031 -0.518868 0)
(2.35309 -0.516167 0)
(2.35571 -0.514735 0)
(2.35855 -0.513951 0)
(2.36119 -0.513075 0)
(2.36354 -0.51226 0)
(2.36518 -0.511918 0)
(2.36569 -0.512305 0)
(2.36579 -0.513077 0)
(2.36711 -0.513506 0)
(2.36994 -0.513428 0)
(2.37256 -0.512884 0)
(2.3752 -0.511843 0)
(2.37798 -0.510643 0)
(2.38216 -0.509077 0)
(2.3871 -0.506582 0)
(2.39009 -0.504877 0)
(2.39282 -0.504112 0)
(2.39553 -0.503036 0)
(2.39813 -0.501567 0)
(2.40022 -0.500233 0)
(2.40111 -0.499375 0)
(2.39973 -0.498923 0)
(2.39797 -0.498219 0)
(2.39885 -0.497309 0)
(2.40108 -0.496453 0)
(2.40374 -0.495752 0)
(2.40624 -0.495557 0)
(2.40846 -0.495584 0)
(2.41144 -0.495791 0)
(2.41709 -0.494586 0)
(2.42325 -0.492248 0)
(2.42599 -0.490602 0)
(2.42833 -0.489407 0)
(2.43038 -0.488109 0)
(2.43088 -0.486173 0)
(2.42837 -0.483153 0)
(2.42613 -0.480978 0)
(2.42652 -0.48083 0)
(2.42804 -0.481243 0)
(2.43037 -0.481704 0)
(2.43262 -0.482138 0)
(2.43493 -0.482247 0)
(2.44057 -0.482705 0)
(2.44665 -0.482532 0)
(2.44922 -0.481606 0)
(2.45182 -0.480708 0)
(2.45383 -0.479278 0)
(2.4544 -0.476743 0)
(2.45232 -0.471875 0)
(2.44973 -0.468141 0)
(2.44966 -0.46805 0)
(2.45088 -0.468593 0)
(2.4528 -0.468862 0)
(2.45502 -0.468464 0)
(2.45789 -0.467617 0)
(2.46081 -0.466385 0)
(2.46436 -0.464276 0)
(2.66458 0.124652 0)
(2.66808 0.123308 0)
(2.67163 0.122281 0)
(2.67531 0.121346 0)
(2.67934 0.120444 0)
(2.68365 0.11929 0)
(2.68731 0.117904 0)
(2.69098 0.116416 0)
(2.69411 0.114775 0)
(2.69687 0.11291 0)
(2.69853 0.10946 0)
(2.69471 0.101468 0)
(2.68302 0.0886221 0)
(2.67809 0.0811933 0)
(2.67958 0.0805715 0)
(2.68277 0.0805391 0)
(2.69121 0.0832394 0)
(2.70207 0.0883938 0)
(2.7063 0.0897943 0)
(2.70762 0.0889838 0)
(2.70797 0.0858426 0)
(2.70116 0.0775017 0)
(2.68912 0.0642447 0)
(2.68723 0.0585818 0)
(2.68933 0.0579 0)
(2.69279 0.0571809 0)
(2.70122 0.0593065 0)
(2.71244 0.0660784 0)
(2.71785 0.0695511 0)
(2.71872 0.0698495 0)
(2.71962 0.0701259 0)
(2.71983 0.0699273 0)
(2.71697 0.0673409 0)
(2.70652 0.0588685 0)
(2.69569 0.0500846 0)
(2.694 0.0483837 0)
(2.69403 0.0481977 0)
(2.69416 0.0478757 0)
(2.69478 0.048236 0)
(2.69665 0.0501855 0)
(2.70065 0.0550177 0)
(2.70849 0.0641894 0)
(2.71625 0.0732253 0)
(2.71703 0.0763093 0)
(2.71608 0.077119 0)
(2.71501 0.0779756 0)
(2.71326 0.0782327 0)
(2.71034 0.0767764 0)
(2.70342 0.0704765 0)
(2.69154 0.0591406 0)
(2.68603 0.053185 0)
(2.68662 0.0521761 0)
(2.68758 0.0517877 0)
(2.69061 0.0523617 0)
(2.69777 0.0570196 0)
(2.70919 0.0671125 0)
(2.71651 0.073267 0)
(2.71774 0.0739561 0)
(2.71887 0.0741168 0)
(2.71916 0.0733839 0)
(2.71723 0.0713073 0)
(2.71188 0.0659421 0)
(2.70541 0.0578224 0)
(2.70269 0.0526302 0)
(2.67466 0.0122636 0)
(2.50686 -0.203141 0)
(2.23826 -0.575903 0)
(2.15117 -0.602961 0)
(2.11731 -0.598463 0)
(2.10352 -0.635711 0)
(2.07271 -0.675683 0)
(2.05226 -0.683173 0)
(2.05986 -0.680338 0)
(2.07302 -0.667311 0)
(2.08847 -0.649489 0)
(2.09848 -0.646164 0)
(2.1016 -0.649397 0)
(2.09742 -0.655347 0)
(2.09485 -0.658072 0)
(2.09501 -0.656344 0)
(2.09672 -0.648892 0)
(2.09906 -0.639595 0)
(2.1005 -0.637096 0)
(2.1011 -0.637387 0)
(2.10343 -0.638959 0)
(2.10729 -0.640744 0)
(2.10969 -0.639942 0)
(2.11238 -0.636347 0)
(2.11639 -0.628854 0)
(2.11771 -0.622215 0)
(2.11794 -0.618268 0)
(2.11788 -0.617353 0)
(2.11877 -0.618494 0)
(2.12024 -0.621604 0)
(2.12171 -0.62475 0)
(2.12338 -0.625513 0)
(2.12665 -0.625302 0)
(2.13016 -0.623801 0)
(2.13521 -0.62021 0)
(2.14237 -0.614117 0)
(2.1508 -0.608798 0)
(2.15478 -0.607887 0)
(2.15862 -0.609363 0)
(2.16111 -0.611582 0)
(2.16031 -0.615787 0)
(2.15635 -0.621455 0)
(2.15363 -0.623897 0)
(2.15585 -0.623728 0)
(2.15885 -0.621361 0)
(2.16379 -0.616333 0)
(2.17056 -0.608601 0)
(2.17803 -0.601998 0)
(2.18138 -0.600577 0)
(2.18514 -0.601609 0)
(2.18799 -0.603282 0)
(2.18954 -0.60574 0)
(2.18982 -0.607823 0)
(2.19116 -0.607433 0)
(2.19368 -0.605631 0)
(2.19586 -0.603251 0)
(2.19782 -0.601857 0)
(2.1999 -0.60124 0)
(2.20169 -0.601187 0)
(2.20198 -0.602146 0)
(2.20117 -0.602919 0)
(2.20149 -0.601686 0)
(2.20373 -0.600068 0)
(2.20638 -0.598632 0)
(2.20957 -0.596795 0)
(2.21436 -0.593751 0)
(2.21845 -0.591105 0)
(2.22085 -0.590821 0)
(2.22321 -0.591111 0)
(2.22365 -0.591652 0)
(2.22199 -0.592057 0)
(2.22201 -0.591465 0)
(2.22333 -0.590487 0)
(2.22445 -0.589386 0)
(2.22666 -0.587675 0)
(2.23012 -0.584413 0)
(2.23423 -0.578996 0)
(2.23683 -0.57483 0)
(2.23804 -0.573213 0)
(2.23925 -0.57236 0)
(2.24009 -0.572032 0)
(2.24099 -0.572738 0)
(2.24195 -0.574019 0)
(2.24276 -0.574765 0)
(2.24444 -0.574392 0)
(2.24719 -0.573546 0)
(2.25049 -0.572529 0)
(2.25431 -0.571143 0)
(2.25839 -0.568474 0)
(2.26288 -0.564422 0)
(2.26603 -0.5612 0)
(2.26954 -0.560754 0)
(2.2732 -0.561052 0)
(2.27626 -0.561743 0)
(2.27897 -0.562627 0)
(2.28179 -0.563041 0)
(2.28353 -0.562366 0)
(2.28325 -0.560255 0)
(2.28363 -0.558427 0)
(2.28543 -0.557777 0)
(2.28797 -0.557624 0)
(2.29094 -0.557924 0)
(2.2943 -0.558171 0)
(2.29807 -0.557526 0)
(2.30259 -0.556257 0)
(2.30723 -0.554464 0)
(2.31059 -0.553146 0)
(2.31361 -0.552742 0)
(2.31633 -0.55232 0)
(2.31832 -0.55155 0)
(2.31918 -0.550899 0)
(2.31944 -0.550974 0)
(2.32051 -0.551053 0)
(2.32264 -0.550812 0)
(2.32511 -0.550386 0)
(2.32759 -0.54958 0)
(2.33002 -0.548628 0)
(2.33254 -0.547628 0)
(2.3362 -0.545893 0)
(2.33997 -0.542201 0)
(2.34276 -0.538244 0)
(2.34369 -0.535976 0)
(2.34411 -0.533855 0)
(2.34439 -0.531354 0)
(2.34512 -0.529734 0)
(2.34569 -0.528962 0)
(2.34642 -0.528056 0)
(2.34775 -0.526397 0)
(2.34946 -0.524803 0)
(2.35149 -0.52289 0)
(2.35449 -0.51947 0)
(2.35667 -0.51587 0)
(2.35804 -0.514065 0)
(2.36006 -0.512644 0)
(2.36208 -0.511652 0)
(2.36431 -0.511221 0)
(2.36661 -0.511403 0)
(2.36842 -0.512109 0)
(2.36886 -0.513241 0)
(2.36896 -0.513994 0)
(2.37106 -0.513319 0)
(2.37369 -0.51178 0)
(2.37635 -0.510193 0)
(2.37913 -0.508965 0)
(2.38238 -0.507562 0)
(2.38723 -0.505291 0)
(2.39117 -0.502986 0)
(2.39334 -0.501968 0)
(2.39613 -0.50101 0)
(2.39837 -0.500111 0)
(2.40034 -0.499973 0)
(2.40229 -0.500237 0)
(2.4027 -0.500613 0)
(2.40152 -0.5006 0)
(2.40057 -0.499318 0)
(2.40134 -0.497398 0)
(2.40284 -0.495657 0)
(2.40471 -0.494134 0)
(2.40716 -0.49288 0)
(2.40979 -0.491623 0)
(2.41373 -0.489974 0)
(2.41992 -0.487733 0)
(2.42549 -0.486929 0)
(2.42781 -0.486876 0)
(2.43051 -0.486994 0)
(2.43288 -0.487138 0)
(2.43349 -0.487264 0)
(2.43182 -0.486662 0)
(2.42902 -0.48449 0)
(2.42823 -0.48234 0)
(2.42934 -0.481055 0)
(2.43133 -0.480082 0)
(2.43381 -0.479335 0)
(2.43642 -0.478582 0)
(2.44153 -0.477778 0)
(2.4481 -0.478204 0)
(2.45239 -0.478415 0)
(2.45448 -0.477623 0)
(2.45661 -0.476581 0)
(2.4586 -0.475292 0)
(2.45826 -0.473168 0)
(2.45379 -0.469145 0)
(2.45161 -0.466173 0)
(2.45318 -0.465458 0)
(2.45482 -0.465723 0)
(2.45673 -0.465794 0)
(2.45985 -0.466073 0)
(2.46435 -0.465346 0)
(2.46927 -0.462678 0)
(2.66438 0.131733 0)
(2.6679 0.130765 0)
(2.67153 0.12989 0)
(2.67553 0.129017 0)
(2.67995 0.128027 0)
(2.6838 0.126826 0)
(2.68764 0.125411 0)
(2.69099 0.123782 0)
(2.69399 0.121846 0)
(2.69609 0.118645 0)
(2.69403 0.111556 0)
(2.68304 0.0986475 0)
(2.67554 0.0889844 0)
(2.6766 0.087426 0)
(2.67924 0.0873766 0)
(2.68705 0.0892165 0)
(2.69875 0.0948116 0)
(2.70484 0.0970701 0)
(2.70642 0.0964367 0)
(2.7075 0.0936111 0)
(2.70202 0.0857502 0)
(2.68854 0.0714792 0)
(2.68384 0.0634904 0)
(2.68607 0.0622357 0)
(2.68903 0.0615448 0)
(2.69738 0.0628955 0)
(2.71013 0.0696064 0)
(2.71788 0.0739958 0)
(2.71918 0.0743392 0)
(2.72059 0.0743678 0)
(2.72131 0.0740504 0)
(2.71959 0.0715383 0)
(2.7099 0.062974 0)
(2.69641 0.0511801 0)
(2.69385 0.0478368 0)
(2.69428 0.0474659 0)
(2.69492 0.0469517 0)
(2.69626 0.0466956 0)
(2.69858 0.0481951 0)
(2.70301 0.0528949 0)
(2.71114 0.0623207 0)
(2.7196 0.0721133 0)
(2.72116 0.0758607 0)
(2.7201 0.0767894 0)
(2.71905 0.0776837 0)
(2.71709 0.0785052 0)
(2.71347 0.0777107 0)
(2.70589 0.0715088 0)
(2.69348 0.0596793 0)
(2.68669 0.0531932 0)
(2.68652 0.0523551 0)
(2.6871 0.0522485 0)
(2.68966 0.0531526 0)
(2.69672 0.0581467 0)
(2.70912 0.0687696 0)
(2.71743 0.0754277 0)
(2.71873 0.0763138 0)
(2.71997 0.0765949 0)
(2.72026 0.0759202 0)
(2.71793 0.0739236 0)
(2.71159 0.0677237 0)
(2.70492 0.0576848 0)
(2.70102 0.0504582 0)
(2.66683 -0.00213609 0)
(2.52075 -0.187093 0)
(2.18493 -0.532516 0)
(2.0804 -0.70935 0)
(2.07632 -0.655649 0)
(2.10299 -0.621205 0)
(2.10946 -0.621186 0)
(2.09973 -0.642947 0)
(2.07418 -0.675165 0)
(2.06571 -0.686633 0)
(2.07107 -0.684958 0)
(2.0838 -0.668507 0)
(2.10016 -0.648496 0)
(2.10745 -0.644116 0)
(2.10698 -0.64667 0)
(2.10382 -0.654293 0)
(2.09894 -0.659157 0)
(2.09838 -0.65875 0)
(2.10008 -0.652824 0)
(2.10275 -0.643686 0)
(2.10595 -0.639658 0)
(2.11038 -0.63812 0)
(2.11509 -0.639154 0)
(2.11795 -0.638572 0)
(2.11989 -0.634947 0)
(2.12278 -0.628627 0)
(2.12438 -0.623215 0)
(2.12462 -0.619583 0)
(2.12309 -0.618621 0)
(2.12144 -0.620712 0)
(2.12139 -0.623641 0)
(2.12355 -0.625425 0)
(2.12641 -0.62615 0)
(2.13034 -0.624596 0)
(2.13691 -0.620769 0)
(2.14499 -0.613616 0)
(2.15199 -0.60766 0)
(2.15513 -0.606607 0)
(2.15796 -0.607648 0)
(2.15953 -0.61017 0)
(2.15898 -0.61483 0)
(2.15631 -0.620465 0)
(2.15484 -0.622309 0)
(2.15705 -0.62105 0)
(2.15989 -0.618078 0)
(2.16491 -0.61377 0)
(2.17154 -0.606703 0)
(2.17769 -0.601165 0)
(2.18074 -0.600239 0)
(2.18373 -0.60035 0)
(2.18559 -0.601821 0)
(2.187 -0.60417 0)
(2.18825 -0.605883 0)
(2.19082 -0.60608 0)
(2.19391 -0.605239 0)
(2.19681 -0.602906 0)
(2.19924 -0.600771 0)
(2.20086 -0.59931 0)
(2.20124 -0.598826 0)
(2.20103 -0.599787 0)
(2.20117 -0.601475 0)
(2.20205 -0.601675 0)
(2.20461 -0.601033 0)
(2.20741 -0.599507 0)
(2.21049 -0.596881 0)
(2.2147 -0.593213 0)
(2.21757 -0.590389 0)
(2.22019 -0.590013 0)
(2.22255 -0.59018 0)
(2.22382 -0.591003 0)
(2.22373 -0.592264 0)
(2.22311 -0.592594 0)
(2.22379 -0.591267 0)
(2.22573 -0.589315 0)
(2.22813 -0.587237 0)
(2.23196 -0.584563 0)
(2.23679 -0.579879 0)
(2.24011 -0.57626 0)
(2.24144 -0.574907 0)
(2.24257 -0.573693 0)
(2.24285 -0.57293 0)
(2.24241 -0.573135 0)
(2.24271 -0.573517 0)
(2.24391 -0.573904 0)
(2.24567 -0.574097 0)
(2.24836 -0.574223 0)
(2.25139 -0.574298 0)
(2.25484 -0.573578 0)
(2.25989 -0.57106 0)
(2.26526 -0.566245 0)
(2.26841 -0.562915 0)
(2.2716 -0.561309 0)
(2.27383 -0.559701 0)
(2.27564 -0.558866 0)
(2.27855 -0.558935 0)
(2.28162 -0.559633 0)
(2.28431 -0.560823 0)
(2.28702 -0.561784 0)
(2.28909 -0.561724 0)
(2.29013 -0.560614 0)
(2.29177 -0.559008 0)
(2.29425 -0.557371 0)
(2.29722 -0.55584 0)
(2.30035 -0.55483 0)
(2.30372 -0.553887 0)
(2.30862 -0.552769 0)
(2.31328 -0.551732 0)
(2.31659 -0.551372 0)
(2.3196 -0.55141 0)
(2.32223 -0.551689 0)
(2.32456 -0.551971 0)
(2.32554 -0.55184 0)
(2.32533 -0.551068 0)
(2.32609 -0.550329 0)
(2.32796 -0.549824 0)
(2.33028 -0.549516 0)
(2.33263 -0.548978 0)
(2.33506 -0.547663 0)
(2.33818 -0.545716 0)
(2.34257 -0.542528 0)
(2.34652 -0.53905 0)
(2.34834 -0.537361 0)
(2.34927 -0.536385 0)
(2.34967 -0.534952 0)
(2.34942 -0.53314 0)
(2.34946 -0.530839 0)
(2.35065 -0.529104 0)
(2.35166 -0.528114 0)
(2.35247 -0.526531 0)
(2.35464 -0.523653 0)
(2.35802 -0.519217 0)
(2.36108 -0.51524 0)
(2.36248 -0.514083 0)
(2.36367 -0.513023 0)
(2.36415 -0.511687 0)
(2.36535 -0.510604 0)
(2.36734 -0.510254 0)
(2.36935 -0.510677 0)
(2.37078 -0.511884 0)
(2.3712 -0.513216 0)
(2.37266 -0.513301 0)
(2.37529 -0.512735 0)
(2.37808 -0.511736 0)
(2.3811 -0.51005 0)
(2.38422 -0.507854 0)
(2.3884 -0.504766 0)
(2.39241 -0.500863 0)
(2.3943 -0.499388 0)
(2.39673 -0.498898 0)
(2.39882 -0.498287 0)
(2.40066 -0.49764 0)
(2.40224 -0.497958 0)
(2.40308 -0.499102 0)
(2.40293 -0.500689 0)
(2.40255 -0.50169 0)
(2.40346 -0.501107 0)
(2.4052 -0.499334 0)
(2.40686 -0.496517 0)
(2.40838 -0.492511 0)
(2.41072 -0.488951 0)
(2.4135 -0.486267 0)
(2.41774 -0.482829 0)
(2.42301 -0.479605 0)
(2.42705 -0.479413 0)
(2.42955 -0.481427 0)
(2.43143 -0.483501 0)
(2.43354 -0.485529 0)
(2.4348 -0.487634 0)
(2.43401 -0.488757 0)
(2.43323 -0.48785 0)
(2.43313 -0.485055 0)
(2.4336 -0.481468 0)
(2.43493 -0.478266 0)
(2.43698 -0.47598 0)
(2.43927 -0.474335 0)
(2.44301 -0.472971 0)
(2.44817 -0.472087 0)
(2.45249 -0.4723 0)
(2.45526 -0.472811 0)
(2.45746 -0.473383 0)
(2.46005 -0.473879 0)
(2.46125 -0.473479 0)
(2.45852 -0.47107 0)
(2.45466 -0.466438 0)
(2.45499 -0.463469 0)
(2.45706 -0.462354 0)
(2.45877 -0.462173 0)
(2.46087 -0.461981 0)
(2.46564 -0.46183 0)
(2.47265 -0.460467 0)
(2.66396 0.139174 0)
(2.66759 0.138355 0)
(2.67156 0.137588 0)
(2.67607 0.136652 0)
(2.67986 0.135536 0)
(2.68395 0.134323 0)
(2.68753 0.132832 0)
(2.69078 0.130994 0)
(2.69329 0.128083 0)
(2.6927 0.121899 0)
(2.68324 0.109607 0)
(2.67342 0.097947 0)
(2.67349 0.0948916 0)
(2.67575 0.0948265 0)
(2.68262 0.0960005 0)
(2.69456 0.101448 0)
(2.70276 0.104645 0)
(2.7047 0.104294 0)
(2.70643 0.101717 0)
(2.70241 0.0945268 0)
(2.68843 0.0798782 0)
(2.68053 0.0694144 0)
(2.68246 0.0672963 0)
(2.68514 0.0667458 0)
(2.69272 0.0674181 0)
(2.70645 0.0738508 0)
(2.71712 0.0795267 0)
(2.71923 0.0801012 0)
(2.72089 0.0799306 0)
(2.72211 0.0796277 0)
(2.72132 0.077325 0)
(2.71262 0.0688592 0)
(2.69676 0.0538777 0)
(2.69225 0.0477135 0)
(2.6934 0.0469007 0)
(2.69444 0.0462081 0)
(2.69637 0.0457152 0)
(2.69946 0.0468292 0)
(2.70477 0.0516648 0)
(2.71382 0.0615223 0)
(2.72281 0.0713182 0)
(2.72489 0.0749658 0)
(2.72402 0.0757521 0)
(2.72295 0.0764734 0)
(2.72137 0.0770765 0)
(2.71795 0.0764354 0)
(2.70975 0.0704744 0)
(2.69578 0.0584555 0)
(2.68805 0.0520164 0)
(2.68728 0.0514416 0)
(2.68743 0.051416 0)
(2.68979 0.0525449 0)
(2.69679 0.0579616 0)
(2.70959 0.0695862 0)
(2.71855 0.0773193 0)
(2.71984 0.0784849 0)
(2.7207 0.0785595 0)
(2.72088 0.0773555 0)
(2.71872 0.0749131 0)
(2.71236 0.0688637 0)
(2.7044 0.0591479 0)
(2.69678 0.0459078 0)
(2.63573 -0.0521005 0)
(2.47652 -0.272595 0)
(2.24992 -0.481809 0)
(2.07125 -0.661789 0)
(2.04518 -0.696409 0)
(2.05314 -0.6774 0)
(2.07739 -0.653219 0)
(2.09442 -0.635681 0)
(2.09843 -0.63875 0)
(2.08894 -0.654785 0)
(2.0853 -0.671943 0)
(2.08646 -0.676941 0)
(2.09283 -0.671124 0)
(2.10289 -0.656059 0)
(2.10818 -0.645183 0)
(2.11067 -0.643934 0)
(2.10973 -0.64828 0)
(2.10549 -0.657675 0)
(2.10528 -0.661959 0)
(2.10599 -0.660938 0)
(2.10812 -0.653354 0)
(2.1113 -0.644452 0)
(2.11482 -0.64083 0)
(2.11878 -0.638105 0)
(2.12247 -0.635525 0)
(2.12452 -0.632293 0)
(2.1268 -0.628262 0)
(2.12815 -0.624884 0)
(2.12869 -0.62236 0)
(2.12644 -0.622144 0)
(2.12295 -0.623919 0)
(2.12302 -0.624805 0)
(2.12588 -0.624601 0)
(2.12934 -0.623652 0)
(2.13569 -0.621273 0)
(2.14536 -0.614077 0)
(2.15352 -0.607781 0)
(2.15657 -0.606618 0)
(2.15882 -0.606808 0)
(2.15896 -0.60837 0)
(2.15699 -0.613165 0)
(2.15484 -0.618728 0)
(2.15464 -0.62016 0)
(2.15725 -0.619663 0)
(2.16008 -0.617816 0)
(2.16523 -0.613561 0)
(2.1721 -0.606251 0)
(2.17731 -0.601626 0)
(2.1801 -0.601049 0)
(2.18268 -0.601141 0)
(2.18414 -0.601817 0)
(2.18511 -0.602996 0)
(2.18655 -0.603746 0)
(2.18941 -0.603601 0)
(2.1924 -0.602836 0)
(2.1959 -0.601012 0)
(2.19899 -0.599353 0)
(2.20142 -0.598644 0)
(2.20304 -0.598092 0)
(2.20231 -0.598306 0)
(2.20063 -0.599413 0)
(2.20194 -0.599809 0)
(2.20485 -0.599884 0)
(2.20767 -0.598291 0)
(2.21122 -0.595684 0)
(2.21555 -0.592515 0)
(2.21857 -0.590319 0)
(2.22122 -0.589999 0)
(2.2232 -0.589852 0)
(2.22374 -0.590643 0)
(2.2237 -0.592342 0)
(2.22415 -0.592882 0)
(2.22587 -0.591813 0)
(2.2283 -0.590553 0)
(2.23087 -0.588705 0)
(2.23448 -0.585755 0)
(2.2388 -0.580871 0)
(2.2428 -0.576828 0)
(2.2444 -0.575601 0)
(2.24582 -0.575305 0)
(2.24667 -0.574977 0)
(2.24634 -0.574855 0)
(2.24565 -0.574864 0)
(2.24563 -0.57444 0)
(2.24717 -0.573568 0)
(2.24971 -0.572855 0)
(2.25197 -0.57201 0)
(2.25486 -0.570821 0)
(2.25943 -0.569256 0)
(2.26603 -0.566146 0)
(2.27127 -0.563743 0)
(2.27424 -0.563156 0)
(2.27771 -0.562546 0)
(2.28028 -0.561278 0)
(2.2812 -0.559234 0)
(2.28186 -0.557728 0)
(2.28416 -0.55783 0)
(2.28724 -0.55862 0)
(2.2902 -0.559613 0)
(2.29306 -0.560581 0)
(2.29571 -0.560777 0)
(2.29856 -0.560349 0)
(2.30167 -0.559768 0)
(2.30484 -0.5584 0)
(2.30821 -0.556116 0)
(2.31192 -0.553263 0)
(2.31524 -0.550625 0)
(2.31833 -0.549514 0)
(2.32119 -0.549463 0)
(2.32385 -0.54997 0)
(2.32637 -0.550655 0)
(2.32862 -0.551597 0)
(2.33025 -0.552456 0)
(2.33111 -0.552556 0)
(2.33226 -0.551447 0)
(2.3339 -0.549681 0)
(2.33573 -0.547697 0)
(2.33785 -0.54594 0)
(2.34022 -0.544287 0)
(2.34406 -0.541666 0)
(2.34854 -0.538435 0)
(2.35079 -0.537133 0)
(2.35223 -0.536962 0)
(2.35354 -0.53675 0)
(2.35392 -0.536237 0)
(2.35401 -0.535218 0)
(2.35445 -0.533481 0)
(2.35488 -0.53055 0)
(2.3556 -0.527197 0)
(2.35723 -0.524652 0)
(2.36017 -0.520646 0)
(2.36368 -0.516063 0)
(2.36528 -0.514176 0)
(2.36686 -0.513183 0)
(2.36798 -0.51209 0)
(2.36814 -0.51103 0)
(2.36852 -0.510118 0)
(2.37008 -0.50953 0)
(2.3717 -0.509553 0)
(2.37245 -0.510432 0)
(2.37374 -0.511385 0)
(2.3764 -0.511451 0)
(2.37925 -0.510643 0)
(2.38235 -0.508829 0)
(2.38567 -0.506327 0)
(2.38997 -0.503213 0)
(2.39401 -0.499674 0)
(2.3962 -0.498163 0)
(2.39866 -0.497563 0)
(2.40064 -0.496777 0)
(2.402 -0.495835 0)
(2.40287 -0.495222 0)
(2.4031 -0.495709 0)
(2.40264 -0.497532 0)
(2.40248 -0.499882 0)
(2.40381 -0.500813 0)
(2.40628 -0.500694 0)
(2.40893 -0.499867 0)
(2.41186 -0.497962 0)
(2.41463 -0.494753 0)
(2.41752 -0.49019 0)
(2.42132 -0.48485 0)
(2.4248 -0.478785 0)
(2.42646 -0.476419 0)
(2.42867 -0.47557 0)
(2.43027 -0.476244 0)
(2.43174 -0.478227 0)
(2.43304 -0.481673 0)
(2.43393 -0.485543 0)
(2.43491 -0.488047 0)
(2.43701 -0.488299 0)
(2.43914 -0.487191 0)
(2.44089 -0.484849 0)
(2.44233 -0.481305 0)
(2.4437 -0.476784 0)
(2.44524 -0.472197 0)
(2.44738 -0.468886 0)
(2.45042 -0.467086 0)
(2.45292 -0.467051 0)
(2.45494 -0.468286 0)
(2.45718 -0.469828 0)
(2.45921 -0.471164 0)
(2.46088 -0.472235 0)
(2.46109 -0.471823 0)
(2.45875 -0.468429 0)
(2.45701 -0.463466 0)
(2.45802 -0.460165 0)
(2.46012 -0.458145 0)
(2.46236 -0.45674 0)
(2.46674 -0.455658 0)
(2.47348 -0.456295 0)
(2.66351 0.146848 0)
(2.66742 0.146055 0)
(2.67205 0.145229 0)
(2.67581 0.144085 0)
(2.67992 0.142963 0)
(2.6837 0.141673 0)
(2.68721 0.140007 0)
(2.6901 0.137494 0)
(2.69075 0.132215 0)
(2.68337 0.120955 0)
(2.67205 0.107893 0)
(2.67056 0.103018 0)
(2.67241 0.102916 0)
(2.67827 0.10357 0)
(2.68985 0.10844 0)
(2.70003 0.112481 0)
(2.70235 0.112446 0)
(2.70467 0.110152 0)
(2.70217 0.10354 0)
(2.68862 0.089169 0)
(2.67748 0.0761209 0)
(2.67856 0.0730079 0)
(2.68109 0.072572 0)
(2.68769 0.0727287 0)
(2.70153 0.0785257 0)
(2.71535 0.085801 0)
(2.7191 0.0869907 0)
(2.72078 0.0865779 0)
(2.72236 0.0859828 0)
(2.7222 0.0835941 0)
(2.71478 0.0753792 0)
(2.6976 0.058901 0)
(2.68958 0.049796 0)
(2.69091 0.0484002 0)
(2.69238 0.0476642 0)
(2.69471 0.0467346 0)
(2.69887 0.0473819 0)
(2.70562 0.0523714 0)
(2.71596 0.0627416 0)
(2.72515 0.0721594 0)
(2.72761 0.0753714 0)
(2.72728 0.0760503 0)
(2.72675 0.0766258 0)
(2.72547 0.0773311 0)
(2.72215 0.0767277 0)
(2.71352 0.0703388 0)
(2.69849 0.0572484 0)
(2.69019 0.050516 0)
(2.68916 0.0500354 0)
(2.68865 0.0503024 0)
(2.69047 0.0520683 0)
(2.69718 0.0583429 0)
(2.71036 0.0709209 0)
(2.72005 0.0794438 0)
(2.72147 0.0807097 0)
(2.72194 0.0812406 0)
(2.72179 0.0806778 0)
(2.71893 0.0785315 0)
(2.7119 0.0710307 0)
(2.70375 0.0592115 0)
(2.69414 0.0449077 0)
(2.61068 -0.0685479 0)
(2.36583 -0.416324 0)
(2.22066 -0.566901 0)
(2.13628 -0.591216 0)
(2.10124 -0.631025 0)
(2.06175 -0.671977 0)
(2.05041 -0.680432 0)
(2.05837 -0.678275 0)
(2.07809 -0.666456 0)
(2.09554 -0.6489 0)
(2.10118 -0.647856 0)
(2.10084 -0.653129 0)
(2.10066 -0.660553 0)
(2.10315 -0.661859 0)
(2.10701 -0.659644 0)
(2.11084 -0.653751 0)
(2.11103 -0.649836 0)
(2.11078 -0.651826 0)
(2.11105 -0.654967 0)
(2.1124 -0.658224 0)
(2.11519 -0.659883 0)