/*--------------------------------*- C++ -*----------------------------------*\
  =========                 |
  \\      /  F ield         | OpenFOAM: The Open Source CFD Toolbox
   \\    /   O peration     | Website:  https://openfoam.org
    \\  /    A nd           | Version:  7
     \\/     M anipulation  |
\*---------------------------------------------------------------------------*/
FoamFile
{
    version     2.0;
    format      ascii;
    class       volScalarField;
    location    "2.8";
    object      T;
}
// * * * * * * * * * * * * * * * * * * * * * * * * * * * * * * * * * * * * * //

dimensions      [0 0 0 1 0 0 0];

internalField   nonuniform List<scalar> 
3328
(
1
1
1
1
1
1.84137
2.84717
2.93281
2.98209
3.03771
3.08002
3.10726
3.11375
3.10086
3.06134
3.0032
2.94055
2.89798
2.88328
2.88872
2.90097
2.90868
2.90769
2.90201
1
1
1
1
1
1.82633
2.83958
2.93201
2.98298
3.03878
3.08088
3.10803
3.11363
3.09964
3.05894
3.00132
2.93941
2.89724
2.88377
2.88895
2.90055
2.90751
2.90608
2.90028
1
1
1
1
1
1.79138
2.82326
2.93067
2.98489
3.04092
3.08091
3.10752
3.11174
3.09652
3.05448
2.99889
2.93845
2.89764
2.88449
2.88975
2.90071
2.9065
2.90406
2.89733
1
1
1
1
1
1.7375
2.79655
2.92969
2.98871
3.04337
3.07943
3.10381
3.10668
3.09055
3.04797
2.99582
2.93884
2.89907
2.88573
2.89077
2.90072
2.90472
2.90031
2.89208
1
1
1
1
1
1.66217
2.76015
2.9317
2.9947
3.04599
3.07629
3.09678
3.09733
3.08038
3.03915
2.99199
2.94134
2.90188
2.88686
2.89032
2.89837
2.90073
2.89408
2.88575
1
1
1
1
1
1.56806
2.71546
2.93828
3.00279
3.04847
3.0717
3.08701
3.08443
3.06587
3.02784
2.98709
2.946
2.90759
2.88972
2.89041
2.89617
2.89657
2.88685
2.87704
1
1
1
1
1
1.45622
2.66279
2.94876
3.01304
3.05077
3.06622
3.07546
3.06951
3.04826
3.01299
2.98085
2.95181
2.91722
2.89496
2.88871
2.88901
2.88383
2.87318
2.87214
1
1
1
1
1
1.32783
2.60179
2.96225
3.02452
3.05246
3.06016
3.06297
3.0532
3.0283
2.99563
2.97335
2.95712
2.92938
2.90351
2.8886
2.8817
2.87753
2.87057
2.8904
1
1
1
1
1
1.19104
2.5339
2.97846
3.03578
3.05212
3.05385
3.05053
3.03526
3.00667
2.9777
2.96509
2.95991
2.94183
2.91521
2.89198
2.87379
2.86099
2.83739
2.8335
1
1
1
1
1
1.06667
2.46427
2.99484
3.04331
3.04871
3.04711
3.03713
3.01539
2.98486
2.96159
2.95785
2.95994
2.95156
2.92889
2.89994
2.86983
2.84593
2.82782
2.82069
1
1
1
1
1
1.00061
2.39558
3.00562
3.04454
3.04381
3.03906
3.02202
2.99435
2.96384
2.94833
2.95115
2.95844
2.95741
2.94178
2.91028
2.87286
2.83679
2.81649
2.80292
1
1
1
1
1
1
2.32409
3.01105
3.0414
3.03803
3.0299
3.00684
2.97303
2.94388
2.93677
2.94407
2.95654
2.96206
2.95143
2.92116
2.87939
2.8387
2.81423
2.79589
1
1
1
1
1
1
2.2397
3.00949
3.03651
3.03239
3.02034
2.99138
2.9528
2.92704
2.92612
2.93633
2.95406
2.96484
2.9576
2.93107
2.8895
2.84447
2.81217
2.79651
1
1
1
1
1
1
2.13182
2.99336
3.03349
3.02733
3.00915
2.97634
2.93654
2.91549
2.91605
2.9286
2.95023
2.96492
2.96059
2.93864
2.89926
2.85529
2.81681
2.7992
1
1
1
1
1
1
1.98865
2.95066
3.03025
3.01971
2.99714
2.96383
2.9272
2.90795
2.90935
2.9212
2.94427
2.96286
2.95967
2.94167
2.90766
2.86868
2.82924
2.80454
1
1
1
1
1
1
1.79554
2.87328
3.02293
3.01176
2.98711
2.956
2.92385
2.90655
2.90682
2.91479
2.93575
2.95536
2.95285
2.93919
2.9122
2.88093
2.84722
2.81827
1
1
1
1
1
1
1.5479
2.76357
3.01645
3.00662
2.98074
2.9532
2.92689
2.91158
2.90755
2.91084
2.92566
2.94095
2.94013
2.93331
2.91582
2.89175
2.86713
2.83863
1
1
1
1
1
1
1.26513
2.63318
3.01893
3.00567
2.97849
2.9562
2.93545
2.92
2.90857
2.90625
2.91222
2.9206
2.92314
2.92428
2.91742
2.90381
2.88687
2.86252
1
1
1
1
1
1
1.0286
2.5072
3.03052
3.00783
2.98231
2.96321
2.94236
2.92235
2.90551
2.89848
2.89694
2.89895
2.90418
2.91214
2.91571
2.91262
2.90431
2.88562
1
1
1
1
1
1
1.00004
2.37498
3.03067
3.01005
2.98814
2.96709
2.94188
2.91874
2.90147
2.89145
2.88587
2.88438
2.88882
2.89987
2.91192
2.91714
2.91482
2.90249
1
1
1
1
1
1
1
2.20448
3.00008
3.01123
2.98965
2.96495
2.93664
2.91206
2.89709
2.88851
2.8821
2.87938
2.88249
2.89317
2.90798
2.91707
2.91699
2.9091
1
1
1
1
1
1
1
1.9874
2.92939
3.00689
2.98492
2.95656
2.92571
2.90561
2.89557
2.88995
2.88551
2.88352
2.88575
2.89342
2.90314
2.90962
2.91013
2.90462
1
1
1
1
1
1
1
1.7234
2.81555
2.98773
2.96948
2.94155
2.91664
2.90405
2.89885
2.8964
2.89366
2.89085
2.88991
2.89169
2.89427
2.89516
2.89342
2.88793
1
1
1
1
1
1
1
1.41762
2.66822
2.96856
2.95532
2.93147
2.91495
2.90721
2.90537
2.90302
2.89831
2.89306
2.88915
2.88651
2.88429
2.88025
2.8733
2.86546
1
1
1
1
1
1
1
1.13908
2.52387
2.96535
2.95057
2.9278
2.91656
2.91295
2.91047
2.90548
2.89828
2.89134
2.88533
2.88026
2.87494
2.86706
2.85663
2.84561
1
1
1
1
1
1
1
1.0019
2.40362
2.96368
2.94446
2.92785
2.92024
2.91718
2.91256
2.905
2.89554
2.88645
2.87904
2.8727
2.86534
2.85543
2.8437
2.83159
1
1
1
1
1
1
1
1
2.29296
2.95337
2.93635
2.92841
2.92304
2.91924
2.91266
2.90239
2.89023
2.87942
2.8708
2.86254
2.85321
2.84315
2.83333
2.82447
1
1
1
1
1
1
1
1
2.18512
2.92924
2.92789
2.92695
2.92315
2.91892
2.9105
2.89768
2.88422
2.87286
2.86246
2.85259
2.84301
2.83496
2.82916
2.82427
1
1
1
1
1
1
1
1
2.07435
2.89694
2.92223
2.91956
2.91883
2.91499
2.90511
2.89136
2.87802
2.86665
2.85699
2.84856
2.84182
2.83622
2.83145
2.82729
1
1
1
1
1
1
1
1
1.97134
2.86173
2.91175
2.9076
2.90926
2.9061
2.89642
2.88269
2.87016
2.86203
2.85688
2.85274
2.84844
2.84321
2.83752
2.83305
1
1
1
1
1
1
1
1
1.8779
2.82446
2.8987
2.8949
2.89731
2.8939
2.8841
2.87137
2.86411
2.86232
2.86197
2.86093
2.85788
2.85222
2.8454
2.83964
1
1
1
1
1
1
1
1
1.79185
2.78736
2.88891
2.88511
2.88643
2.88126
2.87194
2.86426
2.86343
2.86582
2.86827
2.8678
2.86484
2.85919
2.85227
2.84558
1
1
1
1
1
1
1
1
1.71187
2.75213
2.88405
2.88017
2.87991
2.87338
2.86565
2.86276
2.8649
2.86951
2.87157
2.87058
2.86712
2.86166
2.85525
2.84828
1
1
1
1
1
1
1
1
1.63713
2.71904
2.88303
2.87975
2.8774
2.87038
2.86388
2.86396
2.86751
2.87057
2.87073
2.86836
2.86373
2.85827
2.85261
2.84603
1
1
1
1
1
1
1
1
1.56587
2.68768
2.88518
2.88263
2.8782
2.87167
2.86683
2.86771
2.86925
2.86966
2.86773
2.86295
2.8566
2.85054
2.84522
2.83933
1
1
1
1
1
1
1
1
1.49525
2.65705
2.89099
2.8887
2.88412
2.87785
2.87355
2.87193
2.8716
2.8702
2.8658
2.85808
2.84899
2.84087
2.83423
2.82804
1
1
1
1
1
1
1
1
1.42499
2.62685
2.89966
2.89773
2.89351
2.88604
2.88042
2.87744
2.87697
2.87459
2.86769
2.85639
2.84371
2.8324
2.82296
2.81486
1
1
1
1
1
1
1
1
1.35832
2.59899
2.91026
2.90859
2.90323
2.89369
2.88678
2.88497
2.88531
2.88254
2.87293
2.85826
2.8426
2.82817
2.81525
2.80362
1
1
1
1
1
1
1
1
1.30412
2.57792
2.91989
2.91819
2.91094
2.89943
2.89261
2.89232
2.89363
2.89093
2.88001
2.8633
2.84549
2.82803
2.81136
2.79516
1
1
1
1
1
1
1
1
1.27884
2.56693
2.92571
2.92467
2.91681
2.90413
2.89783
2.89838
2.90044
2.89781
2.88604
2.8679
2.84907
2.82907
2.80779
2.78784
2.72623
2.83789
2.95628
3.08045
3.19136
3.26154
3.29332
3.29729
2.83629
2.89337
2.96062
3.07038
3.179
3.25071
3.28628
3.2899
2.81277
2.85708
2.92073
3.0239
3.13128
3.21883
3.25871
3.27083
2.79749
2.82523
2.87725
2.96649
3.06646
3.16244
3.20793
3.22682
2.78904
2.79503
2.82624
2.89248
2.97898
3.08148
3.14423
3.16989
2.79254
2.78194
2.79293
2.83334
2.90105
2.99981
3.08453
3.11473
2.79606
2.78197
2.77535
2.79522
2.83963
2.91433
3.0142
3.07699
2.80123
2.78672
2.76595
2.77175
2.79351
2.84419
2.9452
3.07999
2.81357
2.79033
2.76384
2.75093
2.75379
2.77053
2.78784
2.78169
2.83291
2.79966
2.7626
2.73147
2.7153
2.69647
2.66704
2.57163
2.85537
2.81514
2.76801
2.722
2.68718
2.64803
2.59225
2.46721
2.87565
2.83384
2.78077
2.72471
2.67546
2.62421
2.55609
2.44463
2.8877
2.85138
2.80031
2.73881
2.68009
2.62372
2.55782
2.45984
2.88855
2.86128
2.82032
2.76429
2.70079
2.63913
2.57422
2.49096
2.87786
2.85987
2.83233
2.7915
2.73454
2.6741
2.61101
2.53615
2.85717
2.84768
2.83237
2.80966
2.76844
2.71727
2.66096
2.59389
2.83632
2.83001
2.82474
2.81517
2.79167
2.75438
2.70916
2.65377
2.82142
2.81554
2.81382
2.81164
2.80076
2.77758
2.74379
2.70199
2.81604
2.80893
2.80583
2.80499
2.79935
2.78532
2.75933
2.72879
2.8178
2.81006
2.8035
2.79905
2.79296
2.78272
2.76111
2.73632
2.82305
2.81643
2.80736
2.79772
2.78708
2.77542
2.75661
2.73425
2.82963
2.82439
2.81496
2.80139
2.78655
2.77063
2.75138
2.72974
2.83526
2.83015
2.82136
2.80694
2.78981
2.77138
2.75123
2.7291
2.83945
2.83275
2.82368
2.81016
2.7932
2.77393
2.75449
2.73406
2.84056
2.83155
2.82103
2.80836
2.79375
2.77693
2.75978
2.74178
2.83771
2.82746
2.8157
2.80325
2.79031
2.77667
2.76255
2.74777
2.83171
2.82199
2.81052
2.79817
2.78527
2.7729
2.76061
2.74795
2.82115
2.81295
2.80326
2.79217
2.78005
2.76774
2.75491
2.74146
2.80746
2.80006
2.79197
2.78243
2.7712
2.7587
2.74548
2.7319
2.79351
2.78467
2.77625
2.76737
2.75783
2.74748
2.73626
2.72401
2.78034
2.76842
2.75933
2.75174
2.74482
2.73744
2.72834
2.71724
2.76941
2.75582
2.74922
2.74639
2.74296
2.73712
2.72903
2.7193
2.06131
1.58766
1.51242
1.57888
1.75653
1.94857
2.11583
2.20462
2.2475
2.33353
2.46294
2.50611
2.52388
2.53993
2.55048
2.56212
2.58513
2.60337
2.60158
2.59879
2.59778
2.5975
2.58719
2.56948
2.5512
2.53244
2.51644
2.49107
2.46836
2.4469
2.42952
2.41341
2.40002
2.38566
2.36895
2.35464
2.34395
2.33779
2.33203
2.32059
2.3064
2.29185
2.2773
2.26231
2.24566
2.22529
2.20222
2.18154
2.16519
2.15208
2.1413
2.1319
2.12266
2.11246
2.10113
2.08992
2.07938
2.06848
2.05542
2.04035
2.02912
2.0229
2.0178
2.01515
2.01354
2.01638
2.02794
2.05371
2.08668
2.12289
2.16312
2.20176
2.23816
2.26671
2.28995
2.31172
2.32432
2.32158
2.31823
2.32105
2.33621
2.34432
2.34133
2.33793
2.33316
2.31678
2.28042
2.26019
2.22453
2.0043
1.84592
1.78736
1.80396
1.83603
1.85471
1.91331
2.02162
2.14194
2.26422
2.34358
2.41342
2.44448
2.45882
2.47854
2.51181
2.54756
2.56826
2.56787
2.56072
2.55426
2.55184
2.5459
2.53421
2.51906
2.50101
2.47709
2.45743
2.43841
2.42007
2.40474
2.39066
2.37598
2.35939
2.34453
2.33331
2.32596
2.31915
2.30766
2.29391
2.27908
2.26362
2.24787
2.23156
2.21397
2.19473
2.17567
2.1592
2.14569
2.13463
2.12521
2.11622
2.10635
2.0949
2.08306
2.07267
2.06276
2.0515
2.03722
2.02401
2.01738
2.01428
2.01557
2.02508
2.04487
2.07522
2.10767
2.12013
2.13147
2.14288
2.15647
2.17384
2.19829
2.22585
2.24323
2.26076
2.27273
2.28359
2.29869
2.3183
2.3281
2.32635
2.32252
2.31671
2.3033
2.28143
2.26331
2.24981
2.10724
2.00235
1.88878
1.80679
1.78298
1.76348
1.77604
1.82685
1.91382
2.01082
2.11717
2.21331
2.29128
2.32888
2.35407
2.37954
2.42158
2.47052
2.47799
2.47283
2.46387
2.46287
2.46515
2.46557
2.45962
2.44403
2.42462
2.40655
2.39134
2.37834
2.36605
2.3529
2.33789
2.32245
2.30956
2.30036
2.29297
2.28447
2.27404
2.26122
2.24623
2.22984
2.21361
2.19884
2.18504
2.17104
2.15677
2.14271
2.12937
2.1173
2.10686
2.09743
2.08773
2.07637
2.06335
2.05197
2.04362
2.03576
2.02593
2.01343
2.01173
2.01511
2.02759
2.04884
2.07858
2.1129
2.12944
2.12807
2.11993
2.10553
2.08918
2.08436
2.09362
2.11954
2.15331
2.18322
2.20765
2.22804
2.24876
2.26947
2.28173
2.28379
2.28229
2.27633
2.26638
2.25493
2.24474
2.29413
2.1761
2.09482
2.00784
1.90068
1.84943
1.83515
1.81464
1.78963
1.80408
1.83757
1.91564
2.01765
2.11416
2.18409
2.23029
2.26277
2.3108
2.36482
2.37674
2.37547
2.3694
2.37087
2.37736
2.38322
2.37965
2.37011
2.35308
2.33474
2.3224
2.31395
2.3046
2.29227
2.27795
2.26389
2.25176
2.24211
2.234
2.22607
2.21717
2.20633
2.19347
2.17898
2.16385
2.14949
2.13716
2.12673
2.11695
2.10708
2.09693
2.08656
2.07645
2.06674
2.05716
2.04637
2.0329
2.01854
2.00933
2.00535
2.0027
2.00451
2.01492
2.03349
2.0547
2.07287
2.09585
2.11221
2.11206
2.1043
2.09129
2.07189
2.04939
2.03361
2.03247
2.03334
2.04614
2.07212
2.10371
2.13404
2.16499
2.1916
2.20541
2.21311
2.21791
2.22113
2.22319
2.21983
2.21362
2.35035
2.24844
2.16857
2.10045
2.01533
1.94256
1.90473
1.87959
1.84953
1.81636
1.81244
1.82669
1.8753
1.96453
2.05968
2.12888
2.17721
2.22435
2.28
2.31413
2.32045
2.31585
2.3158
2.31977
2.32198
2.31783
2.30872
2.29353
2.27944
2.2702
2.26145
2.25034
2.23801
2.22634
2.21438
2.20159
2.18887
2.17796
2.16925
2.16085
2.15114
2.13986
2.12671
2.11206
2.09774
2.08636
2.07779
2.07012
2.06242
2.05436
2.0458
2.0371
2.02895
2.02109
2.01156
1.9991
1.98307
1.97264
1.9735
1.98178
1.99707
2.02116
2.04916
2.07018
2.07762
2.084
2.08309
2.07557
2.06578
2.05289
2.035
2.01641
2.00145
1.98924
1.98597
1.98711
1.98803
1.99739
2.01965
2.05321
2.09056
2.11598
2.13076
2.14138
2.15168
2.16348
2.18066
2.18083
2.40608
2.32096
2.24369
2.1808
2.10875
2.04096
1.99518
1.95345
1.92902
1.89811
1.85864
1.84041
1.84426
1.8733
1.94196
2.02454
2.10605
2.16092
2.2198
2.26441
2.29035
2.29601
2.29834
2.29658
2.29185
2.2851
2.27644
2.26578
2.25438
2.24237
2.22848
2.21401
2.20225
2.19168
2.18015
2.16686
2.15149
2.13526
2.12214
2.11308
2.10498
2.0962
2.08531
2.07052
2.05608
2.04671
2.0399
2.03347
2.02656
2.01882
2.01015
2.00123
1.99346
1.98676
1.9806
1.97254
1.95991
1.95439
1.95947
1.97737
2.00241
2.03403
2.04843
2.05072
2.0557
2.05625
2.05116
2.04182
2.03073
2.01733
2.00261
1.99061
1.98003
1.96737
1.95333
1.94811
1.94662
1.94615
1.94743
1.95895
1.98151
2.00488
2.02792
2.05143
2.07357
2.09367
2.11685
2.13462
2.4622
2.38674
2.31719
2.25894
2.19139
2.12475
2.08559
2.04231
2.00005
1.97505
1.94443
1.90324
1.87531
1.88208
1.89986
1.93286
1.99603
2.07357
2.15437
2.21954
2.26815
2.29106
2.29288
2.28751
2.27896
2.27093
2.26241
2.2519
2.23882
2.22382
2.20758
2.19434
2.18458
2.17432
2.16245
2.14894
2.13275
2.11298
2.09279
2.07935
2.07242
2.06625
2.0559
2.03916
2.02489
2.01831
2.01322
2.00768
2.00087
1.99329
1.98457
1.97507
1.96729
1.96439
1.96395
1.9641
1.96232
1.9622
1.97683
1.99912
2.01548
2.02505
2.02918
2.02953
2.03328
2.03371
2.02583
2.01581
2.00435
1.99234
1.98197
1.97479
1.96744
1.95527
1.93735
1.9247
1.92017
1.91775
1.91723
1.9157
1.9175
1.9241
1.93556
1.95506
1.98429
2.01552
2.04548
2.07469
2.5258
2.45526
2.38848
2.33336
2.27469
2.20849
2.16598
2.13255
2.08686
2.0503
2.02621
1.99394
1.95352
1.93036
1.92583
1.92406
1.9323
1.96862
2.04749
2.14378
2.23722
2.29254
2.2961
2.28752
2.27425
2.26496
2.25617
2.24435
2.22963
2.21247
2.19879
2.18849
2.17847
2.16726
2.15412
2.14011
2.1245
2.10601
2.08631
2.06854
2.05187
2.03544
2.02358
2.01774
2.01206
2.00575
1.99904
1.9912
1.98299
1.97554
1.96865
1.96149
1.95733
1.96013
1.96908
1.98383
1.99135
2.00238
2.01424
2.01703
2.01922
2.01828
2.01656
2.01581
2.01617
2.0125
2.00408
1.99565
1.9872
1.97911
1.97267
1.96697
1.9592
1.94669
1.93128
1.91814
1.90906
1.90344
1.89935
1.89453
1.88887
1.88611
1.88814
1.89341
1.90705
1.93179
1.96005
2.00445
2.59314
2.52858
2.46449
2.41109
2.35578
2.29583
2.24665
2.21429
2.17641
2.13318
2.10105
2.07461
2.04199
2.00851
1.98105
1.96286
1.95561
1.9546
1.97198
2.04026
2.15082
2.27643
2.30583
2.30181
2.28233
2.26943
2.25943
2.24617
2.22947
2.21119
2.19607
2.18379
2.17452
2.16514
2.15313
2.13895
2.12296
2.10647
2.08924
2.07008
2.0474
2.02328
2.00622
1.99688
1.98883
1.98096
1.97369
1.96994
1.96952
1.96428
1.96334
1.96468
1.97018
1.98636
2.01028
2.02854
2.03677
2.03715
2.03256
2.02547
2.02114
2.01476
2.00605
1.99763
1.99088
1.9893
1.98816
1.98368
1.9788
1.97456
1.97044
1.96375
1.95272
1.94002
1.92875
1.91863
1.90834
1.89879
1.88966
1.87897
1.86753
1.86219
1.86301
1.86527
1.86994
1.87776
1.88969
1.92302
2.65199
2.59633
2.53847
2.4869
2.43564
2.37985
2.33329
2.29847
2.2659
2.22107
2.17576
2.1465
2.12137
2.09082
2.06082
2.03025
2.00779
1.99025
1.98847
1.99746
2.05172
2.17883
2.28719
2.31126
2.30366
2.28946
2.27592
2.25903
2.23946
2.22077
2.20438
2.19008
2.17826
2.16508
2.15126
2.13887
2.12697
2.11289
2.09588
2.07636
2.05214
2.0221
1.99802
1.98453
1.97363
1.96428
1.9566
1.95252
1.9533
1.9569
1.96773
1.98911
2.01464
2.04334
2.06172
2.06359
2.05786
2.04976
2.04037
2.02818
2.01613
2.00442
1.99292
1.98351
1.97774
1.97525
1.97618
1.97701
1.97484
1.97183
1.96705
1.95845
1.94779
1.93919
1.93144
1.92211
1.90961
1.89353
1.87724
1.86352
1.85221
1.84683
1.84577
1.84576
1.84706
1.85039
1.8547
1.86319
2.69091
2.64676
2.59935
2.55251
2.50518
2.45377
2.40862
2.37127
2.33469
2.29726
2.25321
2.21765
2.19591
2.17361
2.14397
2.10934
2.07341
2.04304
2.03095
2.02458
2.02796
2.06991
2.18048
2.2931
2.3271
2.3181
2.29776
2.27559
2.25661
2.23937
2.22272
2.2075
2.19409
2.17903
2.16272
2.1476
2.13244
2.11755
2.10268
2.08453
2.06053
2.02969
1.99897
1.97503
1.96203
1.9529
1.94737
1.94827
1.95232
1.96971
2.00238
2.0327
2.05969
2.0769
2.07759
2.07057
2.06046
2.05114
2.03928
2.02468
2.00761
1.99352
1.98456
1.97726
1.9719
1.96941
1.97206
1.97436
1.9708
1.96521
1.95876
1.95224
1.947
1.94189
1.93596
1.92641
1.90839
1.88454
1.86368
1.85069
1.84476
1.84125
1.83827
1.83547
1.83347
1.83215
1.83184
1.8322
2.70735
2.67382
2.63746
2.59864
2.55799
2.51396
2.47333
2.43698
2.40019
2.36125
2.32078
2.28537
2.25716
2.23067
2.2072
2.1821
2.1499
2.11417
2.08699
2.06834
2.05816
2.0525
2.07946
2.17694
2.3104
2.33536
2.32391
2.29915
2.27668
2.2589
2.24284
2.22776
2.21401
2.20166
2.18554
2.16715
2.14889
2.13057
2.11208
2.09306
2.07045
2.04087
2.00756
1.97778
1.96262
1.95279
1.95114
1.95692
1.97748
2.01217
2.04239
2.06124
2.07568
2.07891
2.07393
2.0656
2.05855
2.05019
2.0383
2.02248
2.00336
1.99004
1.98357
1.97764
1.97236
1.96881
1.96543
1.9617
1.95816
1.95492
1.95214
1.95085
1.94859
1.94365
1.93558
1.92167
1.90171
1.87823
1.85657
1.84725
1.84312
1.8395
1.83609
1.83263
1.82852
1.82367
1.81959
1.81308
2.70887
2.68125
2.65238
2.62212
2.58941
2.5533
2.51846
2.48517
2.45059
2.41395
2.37503
2.33971
2.31244
2.28808
2.26124
2.23225
2.2054
2.17868
2.15059
2.12383
2.10051
2.08174
2.065
2.08125
2.18276
2.31507
2.34063
2.32624
2.30366
2.28207
2.26298
2.24612
2.23156
2.22262
2.213
2.19338
2.173
2.15237
2.13008
2.10735
2.08296
2.05641
2.02466
1.99304
1.97662
1.96881
1.9778
2.00383
2.03386
2.05947
2.06898
2.07674
2.08374
2.0861
2.07969
2.07044
2.06292
2.05405
2.04204
2.02732
2.01171
1.99786
1.98766
1.98117
1.97415
1.96692
1.96074
1.95605
1.95272
1.95228
1.95458
1.95311
1.94711
1.93858
1.92668
1.91201
1.89581
1.87843
1.86031
1.84792
1.84184
1.83757
1.83375
1.8302
1.82632
1.82113
1.8163
1.80669
2.70644
2.68118
2.65618
2.63106
2.6033
2.57363
2.54442
2.51425
2.48182
2.44789
2.41361
2.3815
2.35387
2.3291
2.30384
2.27742
2.25029
2.2236
2.19836
2.17266
2.14516
2.11881
2.09079
2.06713
2.0838
2.18384
2.31016
2.3381
2.32468
2.30357
2.28124
2.26237
2.24802
2.24111
2.23686
2.22088
2.19983
2.17937
2.15656
2.12994
2.10163
2.07546
2.05113
2.02787
2.01913
2.03002
2.05236
2.07592
2.09197
2.09529
2.09569
2.09542
2.09556
2.09732
2.09358
2.08619
2.07791
2.06706
2.05434
2.04275
2.03093
2.01533
1.99767
1.9834
1.97455
1.96927
1.96593
1.96293
1.95864
1.95301
1.94665
1.94178
1.93632
1.92819
1.91776
1.90617
1.89602
1.88559
1.86988
1.85044
1.84046
1.83588
1.83209
1.82887
1.82571
1.82192
1.81805
1.80868
2.7062
2.68255
2.65862
2.63382
2.60685
2.58006
2.55373
2.52508
2.49442
2.4648
2.43708
2.40901
2.38152
2.3562
2.33202
2.30731
2.28243
2.25782
2.23308
2.20798
2.18136
2.15171
2.11866
2.08583
2.06576
2.08487
2.18237
2.30267
2.32847
2.31487
2.29429
2.27356
2.25905
2.25175
2.24927
2.23959
2.22156
2.20283
2.18253
2.15628
2.12934
2.108
2.08879
2.09327
2.10995
2.12917
2.13983
2.14325
2.14074
2.1329
2.12302
2.1145
2.11099
2.11
2.10459
2.09772
2.09305
2.0876
2.0798
2.06979
2.05606
2.03547
2.00954
1.99194
1.98344
1.97745
1.9721
1.96702
1.96114
1.95354
1.94417
1.93472
1.92755
1.92265
1.91543
1.90862
1.9029
1.89556
1.88065
1.85673
1.84512
1.84021
1.83609
1.83232
1.82867
1.82535
1.82215
1.81271
2.71236
2.68934
2.66424
2.63719
2.60872
2.58155
2.55407
2.52442
2.49515
2.46965
2.44775
2.42442
2.39769
2.37175
2.34859
2.326
2.30293
2.2798
2.25642
2.23216
2.20604
2.17547
2.14123
2.10562
2.07871
2.06344
2.08235
2.17329
2.2821
2.30938
2.30026
2.27929
2.26394
2.25498
2.24964
2.24416
2.2317
2.21622
2.1994
2.17894
2.16215
2.14967
2.16161
2.19171
2.21731
2.21989
2.21376
2.2008
2.18387
2.1653
2.14803
2.13894
2.13703
2.13398
2.12661
2.11886
2.11431
2.11224
2.10611
2.09426
2.07908
2.05814
2.03035
2.0074
1.99715
1.99015
1.98283
1.97487
1.96613
1.95702
1.94791
1.9394
1.93251
1.92867
1.9301
1.92903
1.9224
1.91341
1.897
1.86909
1.84768
1.84147
1.83708
1.83379
1.8319
1.83021
1.82684
1.81655
2.7225
2.701
2.67456
2.64486
2.61357
2.58317
2.55294
2.52208
2.49421
2.46991
2.44943
2.43002
2.40592
2.37996
2.35675
2.33591
2.31484
2.29324
2.27093
2.24679
2.21925
2.18811
2.15502
2.12306
2.09323
2.0709
2.05571
2.07064
2.15657
2.25681
2.29238
2.28164
2.2648
2.2534
2.24585
2.24044
2.23114
2.21712
2.20385
2.19519
2.19651
2.21756
2.26466
2.2951
2.29442
2.287
2.26869
2.24338
2.22095
2.20166
2.18589
2.17943
2.17692
2.17284
2.16477
2.15517
2.14713
2.14319
2.13707
2.12219
2.10712
2.09029
2.06754
2.04201
2.02333
2.01174
2.00112
1.99036
1.9807
1.97286
1.96729
1.96255
1.95757
1.95587
1.95284
1.94404
1.93497
1.9256
1.91349
1.89081
1.86351
1.85048
1.84403
1.83774
1.83178
1.82714
1.8249
1.81655
2.73133
2.71102
2.68524
2.65528
2.62263
2.58731
2.55319
2.52409
2.4974
2.47247
2.44911
2.42887
2.40913
2.38541
2.3626
2.34216
2.32194
2.3007
2.27834
2.25396
2.2266
2.19604
2.16481
2.13571
2.10754
2.07949
2.05645
2.04062
2.05696
2.14131
2.24482
2.27344
2.26317
2.25212
2.24178
2.23468
2.22318
2.21024
2.20333
2.21121
2.24644
2.30934
2.35291
2.35283
2.34494
2.32885
2.30615
2.27935
2.25972
2.2434
2.22993
2.22165
2.21811
2.2144
2.20748
2.19656
2.18608
2.17981
2.17472
2.15998
2.14486
2.13041
2.11379
2.08983
2.06062
2.0398
2.02736
2.01782
2.00998
2.00464
2.00417
2.00584
2.00681
2.00135
1.98885
1.9763
1.96424
1.9513
1.93575
1.91582
1.89089
1.87214
1.8636
1.85636
1.8487
1.84012
1.83141
1.82083
2.73308
2.71386
2.68964
2.66136
2.6304
2.59865
2.56681
2.53501
2.506
2.47954
2.45343
2.43028
2.41048
2.38842
2.3642
2.34257
2.32196
2.29982
2.27678
2.2532
2.22854
2.202
2.17445
2.14718
2.12011
2.09093
2.06048
2.03654
2.02532
2.04572
2.13634
2.22717
2.25104
2.24518
2.235
2.2222
2.20867
2.20139
2.20635
2.24335
2.31578
2.37522
2.38682
2.38017
2.36799
2.35255
2.3335
2.30943
2.28977
2.2768
2.26553
2.25581
2.24994
2.24674
2.24148
2.23215
2.22258
2.21565
2.21263
2.20146
2.18738
2.17417
2.15919
2.13793
2.10474
2.07563
2.06389
2.05645
2.05067
2.04808
2.04906
2.05093
2.05261
2.04935
2.03503
2.01955
2.00509
1.99058
1.97461
1.95638
1.93479
1.91247
1.89717
1.88761
1.8777
1.86511
1.85312
1.84108
2.72633
2.70875
2.68779
2.66413
2.63696
2.60902
2.58072
2.55145
2.52066
2.49027
2.46239
2.43553
2.41176
2.38984
2.36546
2.34127
2.31963
2.29778
2.27473
2.25091
2.22659
2.203
2.1799
2.15639
2.13094
2.10275
2.0712
2.0408
2.01741
2.01242
2.03774
2.12936
2.20391
2.2259
2.21747
2.20211
2.19141
2.19595
2.22891
2.3102
2.37182
2.3956
2.39743
2.38904
2.37792
2.36716
2.35351
2.33365
2.31054
2.29547
2.28661
2.27866
2.27326
2.27072
2.26602
2.25837
2.25055
2.24456
2.24263
2.23662
2.22538
2.21368
2.20013
2.18155
2.15301
2.12149
2.10563
2.09906
2.09473
2.09327
2.09479
2.09565
2.09466
2.09018
2.0801
2.06457
2.04958
2.03541
2.02089
2.0063
1.99041
1.96968
1.94489
1.92574
1.91177
1.89775
1.88674
1.8754
2.7174
2.70161
2.68337
2.66279
2.64184
2.61717
2.59117
2.56431
2.53594
2.50525
2.47216
2.44079
2.41389
2.38971
2.36527
2.33942
2.31557
2.29387
2.27142
2.24853
2.22591
2.20433
2.1836
2.16254
2.13945
2.11292
2.08315
2.05296
2.02538
2.00646
2.00091
2.02822
2.10782
2.17212
2.19099
2.18078
2.182
2.20733
2.29559
2.37257
2.39015
2.39528
2.39578
2.38895
2.38115
2.3739
2.36461
2.34936
2.3271
2.31029
2.30116
2.29464
2.28986
2.28529
2.2777
2.26984
2.26374
2.26033
2.26097
2.26027
2.25278
2.24339
2.2325
2.21822
2.19748
2.1696
2.14731
2.13798
2.13413
2.13252
2.13141
2.12805
2.12249
2.11557
2.10932
2.10005
2.08699
2.07551
2.06607
2.05777
2.04738
2.02949
1.99912
1.9677
1.94911
1.93591
1.92603
1.9139
2.71065
2.69635
2.6817
2.66645
2.64852
2.62501
2.59987
2.5738
2.54644
2.51681
2.48365
2.44809
2.41833
2.39226
2.36617
2.33943
2.31331
2.2905
2.26879
2.2472
2.2259
2.20461
2.18299
2.16132
2.14016
2.1183
2.09424
2.0672
2.03966
2.01308
1.99334
1.97986
1.99816
2.06992
2.13999
2.15535
2.18699
2.26967
2.36436
2.39587
2.3964
2.39167
2.39082
2.38721
2.38285
2.37719
2.37002
2.35826
2.33876
2.32073
2.31134
2.30432
2.29693
2.28885
2.27922
2.27047
2.26546
2.26496
2.27103
2.27372
2.26985
2.26346
2.25515
2.24462
2.23048
2.20874
2.18646
2.17342
2.16546
2.15864
2.14987
2.14011
2.13069
2.12217
2.11852
2.12084
2.12125
2.11284
2.10583
2.09963
2.09071
2.07333
2.04045
2.00358
1.98154
1.96812
1.95958
1.94687
2.70501
2.69251
2.68007
2.66814
2.65256
2.62952
2.60464
2.57826
2.55009
2.51997
2.48805
2.4561
2.42538
2.39704
2.36989
2.34199
2.31409
2.28906
2.26697
2.24577
2.22492
2.20407
2.18307
2.162
2.14079
2.11971
2.09929
2.07819
2.0546
2.02652
1.99384
1.96445
1.94611
1.97037
2.04777
2.12817
2.23026
2.3454
2.39381
2.39284
2.38887
2.38538
2.38547
2.38697
2.3847
2.37886
2.37172
2.36107
2.3456
2.33116
2.32004
2.30878
2.29736
2.286
2.27526
2.26763
2.26384
2.26699
2.27805
2.28171
2.27891
2.27459
2.26829
2.25998
2.24949
2.23672
2.22116
2.20329
2.18579
2.16979
2.15239
2.13775
2.1271
2.11968
2.12107
2.1365
2.14385
2.1384
2.13155
2.12532
2.11667
2.09934
2.06706
2.03042
2.00863
1.99412
1.98311
1.969
2.70828
2.69621
2.68388
2.67241
2.6571
2.6341
2.60947
2.58336
2.55507
2.5248
2.49388
2.46299
2.4318
2.40079
2.37055
2.34105
2.31264
2.28741
2.26509
2.24404
2.22356
2.20335
2.1828
2.16157
2.14015
2.12055
2.10262
2.08511
2.06524
2.03749
2.00218
1.9602
1.92636
1.92539
1.96535
2.09991
2.27213
2.40004
2.42861
2.40002
2.38273
2.38115
2.38326
2.38655
2.38484
2.37988
2.37345
2.36396
2.35077
2.33686
2.32361
2.30855
2.29134
2.27818
2.27031
2.26485
2.26173
2.2668
2.2812
2.28476
2.28165
2.27767
2.27311
2.26781
2.2615
2.25288
2.23978
2.21961
2.19121
2.15899
2.13699
2.12625
2.11902
2.11472
2.12113
2.14225
2.1529
2.14743
2.1405
2.1346
2.12689
2.11133
2.08191
2.04751
2.0228
2.00328
1.9863
1.97092
)
;

boundaryField
{
    inlet
    {
        type            fixedValue;
        value           uniform 1;
    }
    outlet
    {
        type            inletOutlet;
        inletValue      uniform 1;
        value           nonuniform List<scalar> 
24
(
2.26001
2.262
2.24411
2.21397
2.18149
2.13496
2.07476
2.00424
1.92301
1.86423
1.83374
1.81415
1.80733
1.8092
1.8129
1.81637
1.81693
1.82139
1.84158
1.87596
1.91439
1.94735
1.9689
1.97059
)
;
    }
    bottom
    {
        type            zeroGradient;
    }
    top
    {
        type            zeroGradient;
    }
    obstacle
    {
        type            zeroGradient;
    }
    defaultFaces
    {
        type            empty;
    }
}


// ************************************************************************* //
