/*--------------------------------*- C++ -*----------------------------------*\
  =========                 |
  \\      /  F ield         | OpenFOAM: The Open Source CFD Toolbox
   \\    /   O peration     | Website:  https://openfoam.org
    \\  /    A nd           | Version:  7
     \\/     M anipulation  |
\*---------------------------------------------------------------------------*/
FoamFile
{
    version     2.0;
    format      ascii;
    class       volVectorField;
    location    "2.8";
    object      U;
}
// * * * * * * * * * * * * * * * * * * * * * * * * * * * * * * * * * * * * * //

dimensions      [0 1 -1 0 0 0 0];

internalField   nonuniform List<vector> 
3328
(
(3 -2.32168e-18 0)
(3 -1.07948e-16 0)
(3 -2.5034e-16 0)
(3 -3.19737e-16 0)
(3 8.55965e-17 0)
(2.06119 0.0072514 0)
(0.64901 0.00975601 0)
(0.475515 0.00951599 0)
(0.460576 0.0112579 0)
(0.443193 0.0140622 0)
(0.434354 0.0202906 0)
(0.426104 0.019823 0)
(0.413205 0.0156811 0)
(0.392961 0.0110016 0)
(0.357302 0.00771408 0)
(0.309513 0.00745452 0)
(0.270564 0.0087758 0)
(0.246035 0.0111689 0)
(0.233163 0.0172244 0)
(0.217424 0.0197801 0)
(0.195117 0.0228101 0)
(0.1562 0.0256372 0)
(0.104656 0.0263619 0)
(0.0348313 0.0293086 0)
(3 -1.79071e-17 0)
(3 -3.1066e-16 0)
(3 -1.04927e-15 0)
(3 -1.24051e-15 0)
(3 -7.27987e-16 0)
(2.0808 0.0275399 0)
(0.646826 0.0390613 0)
(0.469292 0.0311996 0)
(0.453367 0.0347029 0)
(0.434601 0.0437306 0)
(0.426272 0.0569885 0)
(0.419061 0.0550439 0)
(0.409103 0.0441693 0)
(0.390804 0.0319019 0)
(0.357466 0.0239563 0)
(0.311388 0.0237666 0)
(0.274166 0.0272162 0)
(0.250034 0.0359417 0)
(0.240808 0.0491456 0)
(0.224126 0.0596824 0)
(0.199656 0.0694797 0)
(0.158912 0.0790632 0)
(0.105585 0.0824858 0)
(0.0349716 0.0904089 0)
(3 2.01696e-16 0)
(3 -9.20418e-17 0)
(3 -4.78958e-16 0)
(3 -4.58158e-16 0)
(3 -3.248e-16 0)
(2.1359 0.0484802 0)
(0.655649 0.067656 0)
(0.471176 0.053747 0)
(0.457595 0.0610458 0)
(0.43856 0.0770846 0)
(0.427854 0.0933398 0)
(0.421109 0.0889724 0)
(0.413111 0.0709746 0)
(0.394885 0.0515844 0)
(0.36337 0.0386891 0)
(0.317016 0.0388482 0)
(0.280531 0.0456848 0)
(0.258387 0.0609878 0)
(0.249952 0.0817276 0)
(0.230898 0.0999091 0)
(0.202785 0.115302 0)
(0.158902 0.131373 0)
(0.103584 0.137215 0)
(0.0339422 0.150113 0)
(3 4.02796e-17 0)
(3 1.16918e-17 0)
(3 1.89558e-16 0)
(3 2.14693e-16 0)
(3 2.91406e-17 0)
(2.21518 0.064928 0)
(0.666513 0.0944058 0)
(0.475067 0.0761342 0)
(0.468047 0.0862353 0)
(0.45171 0.109061 0)
(0.439693 0.12668 0)
(0.432105 0.120121 0)
(0.423585 0.0958977 0)
(0.402832 0.0709046 0)
(0.372331 0.053836 0)
(0.324678 0.0541182 0)
(0.289195 0.0652136 0)
(0.269894 0.0878464 0)
(0.259783 0.116923 0)
(0.237585 0.143059 0)
(0.204793 0.162715 0)
(0.157451 0.184363 0)
(0.100323 0.191816 0)
(0.0323958 0.20904 0)
(3 -1.85862e-16 0)
(3 -2.95869e-16 0)
(3 -2.83628e-16 0)
(3 -5.44211e-16 0)
(3 -4.20799e-16 0)
(2.3202 0.0753705 0)
(0.682221 0.117217 0)
(0.480274 0.0975961 0)
(0.480167 0.109363 0)
(0.466344 0.13976 0)
(0.453093 0.158287 0)
(0.442298 0.150631 0)
(0.433111 0.12178 0)
(0.410939 0.0917589 0)
(0.380776 0.0709396 0)
(0.333174 0.0704526 0)
(0.30056 0.0857101 0)
(0.286055 0.115417 0)
(0.276583 0.152687 0)
(0.255436 0.185999 0)
(0.219526 0.209198 0)
(0.168825 0.236516 0)
(0.105735 0.248097 0)
(0.0358456 0.272283 0)
(3 1.00892e-17 0)
(3 1.15609e-16 0)
(3 3.79156e-16 0)
(3 1.43673e-16 0)
(3 -1.22315e-16 0)
(2.44415 0.0796723 0)
(0.704466 0.137427 0)
(0.486799 0.116359 0)
(0.492507 0.132418 0)
(0.480669 0.16919 0)
(0.465753 0.188404 0)
(0.451578 0.179613 0)
(0.443253 0.146998 0)
(0.422159 0.111982 0)
(0.389731 0.0884457 0)
(0.345556 0.0867755 0)
(0.316931 0.10482 0)
(0.307439 0.140529 0)
(0.299738 0.186351 0)
(0.278162 0.228408 0)
(0.234836 0.258191 0)
(0.177161 0.294441 0)
(0.108441 0.315253 0)
(0.0326397 0.344735 0)
(3 1.38565e-16 0)
(3 6.30744e-16 0)
(3 1.10231e-15 0)
(3 1.23925e-15 0)
(3 7.51492e-16 0)
(2.579 0.0785885 0)
(0.736849 0.156432 0)
(0.496984 0.132737 0)
(0.506138 0.155084 0)
(0.493459 0.197993 0)
(0.476232 0.216349 0)
(0.460052 0.206073 0)
(0.45248 0.170887 0)
(0.432124 0.132018 0)
(0.399405 0.105777 0)
(0.360726 0.103241 0)
(0.336844 0.122758 0)
(0.330433 0.164506 0)
(0.327371 0.219295 0)
(0.310149 0.270563 0)
(0.267174 0.30672 0)
(0.216034 0.350243 0)
(0.141391 0.384562 0)
(0.0584054 0.425008 0)
(3 2.98198e-17 0)
(3 -2.77283e-16 0)
(3 -5.76646e-16 0)
(3 -4.86079e-16 0)
(3 -3.33011e-16 0)
(2.71664 0.0696811 0)
(0.785643 0.172106 0)
(0.511391 0.147411 0)
(0.519213 0.180835 0)
(0.502813 0.227769 0)
(0.484214 0.240889 0)
(0.468887 0.228307 0)
(0.462032 0.191726 0)
(0.442436 0.150165 0)
(0.410872 0.121876 0)
(0.378905 0.119399 0)
(0.35996 0.139686 0)
(0.355635 0.186211 0)
(0.359524 0.247117 0)
(0.352308 0.305025 0)
(0.308441 0.348008 0)
(0.253376 0.414435 0)
(0.154111 0.482397 0)
(0.102132 0.565543 0)
(3 -6.65641e-17 0)
(3 -5.64462e-16 0)
(3 -1.12948e-15 0)
(3 -1.10613e-15 0)
(3 -8.2087e-16 0)
(2.84249 0.0508788 0)
(0.856941 0.184079 0)
(0.529137 0.162197 0)
(0.53054 0.21497 0)
(0.510321 0.256322 0)
(0.491633 0.260977 0)
(0.482015 0.245246 0)
(0.472267 0.208653 0)
(0.452668 0.166388 0)
(0.423352 0.137649 0)
(0.399573 0.135499 0)
(0.38551 0.15526 0)
(0.383036 0.203367 0)
(0.392283 0.267743 0)
(0.397112 0.332702 0)
(0.355427 0.390018 0)
(0.313402 0.475742 0)
(0.274718 0.548683 0)
(0.322136 0.603937 0)
(3 1.05951e-16 0)
(3 3.35305e-17 0)
(3 -9.87051e-17 0)
(3 -4.71726e-16 0)
(3 -6.92394e-16 0)
(2.94315 0.0172482 0)
(0.951889 0.198987 0)
(0.549057 0.184369 0)
(0.539586 0.250523 0)
(0.517098 0.278881 0)
(0.502267 0.275381 0)
(0.496534 0.256371 0)
(0.483501 0.221243 0)
(0.462483 0.180544 0)
(0.436873 0.153999 0)
(0.422145 0.152441 0)
(0.412645 0.170283 0)
(0.411157 0.216966 0)
(0.42366 0.282192 0)
(0.436573 0.352333 0)
(0.411962 0.419486 0)
(0.382206 0.493114 0)
(0.37432 0.531058 0)
(0.423169 0.517342 0)
(3 -8.20219e-17 0)
(3 3.14072e-16 0)
(3 3.31677e-16 0)
(3 -3.14817e-17 0)
(3 -1.0347e-15 0)
(2.99957 0.000678606 0)
(1.06459 0.218643 0)
(0.566084 0.21226 0)
(0.544842 0.279688 0)
(0.525545 0.293711 0)
(0.513733 0.285231 0)
(0.510225 0.262891 0)
(0.49446 0.229797 0)
(0.472378 0.193082 0)
(0.454323 0.170724 0)
(0.445517 0.170371 0)
(0.441561 0.185443 0)
(0.439722 0.225753 0)
(0.45415 0.287489 0)
(0.467278 0.359998 0)
(0.467901 0.432058 0)
(0.446267 0.497524 0)
(0.455862 0.535868 0)
(0.493194 0.524083 0)
(3 -4.5137e-18 0)
(3 2.026e-16 0)
(3 2.29353e-16 0)
(3 2.24957e-16 0)
(3 8.05636e-17 0)
(3 1.72177e-07 0)
(1.19984 0.240442 0)
(0.585871 0.242825 0)
(0.54641 0.301583 0)
(0.53358 0.303585 0)
(0.524517 0.292266 0)
(0.521048 0.266899 0)
(0.504488 0.234025 0)
(0.484791 0.201796 0)
(0.475886 0.18763 0)
(0.470815 0.188701 0)
(0.469467 0.201788 0)
(0.467112 0.234215 0)
(0.479561 0.287336 0)
(0.492133 0.353646 0)
(0.510181 0.423381 0)
(0.501075 0.489877 0)
(0.517536 0.528043 0)
(0.546899 0.516443 0)
(3 1.01329e-16 0)
(3 -5.57062e-17 0)
(3 3.82112e-18 0)
(3 2.51281e-16 0)
(3 4.07732e-16 0)
(3 7.81541e-13 0)
(1.3641 0.26617 0)
(0.608136 0.278115 0)
(0.545973 0.31629 0)
(0.539828 0.312394 0)
(0.534615 0.296754 0)
(0.527824 0.26736 0)
(0.512792 0.233681 0)
(0.501298 0.208991 0)
(0.500027 0.203611 0)
(0.496672 0.206577 0)
(0.495437 0.219342 0)
(0.49274 0.244736 0)
(0.499111 0.286018 0)
(0.513678 0.339589 0)
(0.532115 0.400094 0)
(0.544416 0.465402 0)
(0.559937 0.51524 0)
(0.587245 0.514134 0)
(3 -2.0376e-16 0)
(3 -6.84915e-17 0)
(3 7.13059e-17 0)
(3 2.00664e-16 0)
(3 7.01168e-17 0)
(3 3.46334e-17 0)
(1.57154 0.29065 0)
(0.631755 0.314437 0)
(0.54587 0.328526 0)
(0.544104 0.319811 0)
(0.540827 0.296773 0)
(0.530899 0.264707 0)
(0.522166 0.232899 0)
(0.52057 0.217503 0)
(0.524467 0.217358 0)
(0.522654 0.223332 0)
(0.520179 0.237071 0)
(0.517148 0.257049 0)
(0.517434 0.28671 0)
(0.526924 0.323975 0)
(0.548556 0.370966 0)
(0.568327 0.429031 0)
(0.587127 0.484443 0)
(0.620311 0.508354 0)
(3 4.52176e-17 0)
(3 3.13206e-17 0)
(3 -1.35854e-16 0)
(3 -1.32394e-16 0)
(3 9.38117e-16 0)
(3 -2.5073e-16 0)
(1.83952 0.297299 0)
(0.657567 0.347474 0)
(0.544126 0.338259 0)
(0.544321 0.321124 0)
(0.543821 0.293691 0)
(0.534739 0.262008 0)
(0.534109 0.235506 0)
(0.53998 0.22703 0)
(0.549231 0.230314 0)
(0.548777 0.239106 0)
(0.545132 0.25345 0)
(0.541054 0.270072 0)
(0.535178 0.287691 0)
(0.540193 0.309894 0)
(0.560126 0.341644 0)
(0.581678 0.390565 0)
(0.606839 0.446711 0)
(0.64044 0.49168 0)
(3 7.05536e-17 0)
(3 -1.83436e-16 0)
(3 -1.90631e-16 0)
(3 3.57216e-16 0)
(3 1.27769e-15 0)
(3 1.0746e-15 0)
(2.16175 0.276057 0)
(0.696752 0.368682 0)
(0.541956 0.340287 0)
(0.54169 0.318597 0)
(0.546892 0.292186 0)
(0.541898 0.26201 0)
(0.548683 0.242753 0)
(0.560087 0.239035 0)
(0.571825 0.244795 0)
(0.573954 0.254597 0)
(0.57035 0.26767 0)
(0.563736 0.279921 0)
(0.553606 0.287962 0)
(0.555235 0.298698 0)
(0.570277 0.316666 0)
(0.593106 0.355036 0)
(0.619534 0.409924 0)
(0.65508 0.465288 0)
(3 6.6265e-17 0)
(3 1.46355e-16 0)
(3 3.17298e-16 0)
(3 3.39068e-16 0)
(3 9.76559e-17 0)
(3 3.53194e-16 0)
(2.51166 0.218588 0)
(0.755213 0.374731 0)
(0.538897 0.336285 0)
(0.541437 0.31784 0)
(0.552366 0.292179 0)
(0.554482 0.266578 0)
(0.565441 0.254915 0)
(0.580434 0.25504 0)
(0.590079 0.261826 0)
(0.595664 0.269294 0)
(0.593573 0.277978 0)
(0.5857 0.285009 0)
(0.571992 0.287127 0)
(0.571251 0.293706 0)
(0.583964 0.304293 0)
(0.609465 0.330417 0)
(0.633348 0.380039 0)
(0.669885 0.436489 0)
(3 6.09725e-18 0)
(3 2.55912e-16 0)
(3 2.46295e-16 0)
(3 -3.32974e-17 0)
(3 -3.23812e-16 0)
(3 -4.44941e-16 0)
(2.80657 0.117982 0)
(0.854364 0.37097 0)
(0.540908 0.339794 0)
(0.545635 0.318649 0)
(0.562825 0.298265 0)
(0.570495 0.27739 0)
(0.584261 0.2708 0)
(0.598334 0.271704 0)
(0.606152 0.272764 0)
(0.61178 0.276471 0)
(0.611869 0.282248 0)
(0.603995 0.284675 0)
(0.591661 0.28596 0)
(0.590416 0.292605 0)
(0.600906 0.304437 0)
(0.624943 0.324286 0)
(0.650509 0.361682 0)
(0.6851 0.41193 0)
(3 -1.43497e-16 0)
(3 -7.62325e-17 0)
(3 -8.76252e-17 0)
(3 -1.91699e-16 0)
(3 -2.5678e-17 0)
(3 -1.67469e-16 0)
(2.98264 0.0144868 0)
(1.0179 0.381471 0)
(0.551062 0.355706 0)
(0.552689 0.329003 0)
(0.575334 0.309824 0)
(0.586602 0.289555 0)
(0.60165 0.280907 0)
(0.610635 0.276461 0)
(0.616792 0.274993 0)
(0.621652 0.276238 0)
(0.623289 0.277719 0)
(0.619453 0.280146 0)
(0.613098 0.285826 0)
(0.613742 0.295618 0)
(0.623654 0.308328 0)
(0.641288 0.328761 0)
(0.666962 0.357224 0)
(0.698202 0.395823 0)
(3 1.00423e-16 0)
(3 8.12214e-17 0)
(3 -1.82599e-16 0)
(3 -3.34966e-16 0)
(3 -4.50447e-16 0)
(3 -6.18957e-16 0)
(3.00002 5.50499e-05 0)
(1.24204 0.399002 0)
(0.565752 0.377182 0)
(0.557956 0.339803 0)
(0.585392 0.317787 0)
(0.598901 0.294048 0)
(0.611765 0.280591 0)
(0.617561 0.274487 0)
(0.622445 0.271484 0)
(0.626607 0.271009 0)
(0.630907 0.27423 0)
(0.633818 0.280556 0)
(0.635823 0.288071 0)
(0.639747 0.299975 0)
(0.650393 0.316483 0)
(0.664537 0.337255 0)
(0.684795 0.359971 0)
(0.709201 0.386992 0)
(3 1.3787e-16 0)
(3 -1.20927e-16 0)
(3 -4.99996e-16 0)
(3 -8.3231e-16 0)
(3 -1.26651e-15 0)
(3 -1.43397e-15 0)
(3 3.93209e-09 0)
(1.5304 0.402798 0)
(0.598123 0.388413 0)
(0.562033 0.342499 0)
(0.590855 0.316945 0)
(0.605444 0.290213 0)
(0.615412 0.275399 0)
(0.620509 0.267072 0)
(0.625571 0.26417 0)
(0.6314 0.267661 0)
(0.637359 0.277498 0)
(0.645522 0.288171 0)
(0.655399 0.298063 0)
(0.666133 0.310947 0)
(0.678903 0.327652 0)
(0.692357 0.344757 0)
(0.70598 0.360565 0)
(0.723492 0.378624 0)
(3 -7.71945e-17 0)
(3 -4.07965e-16 0)
(3 -2.41064e-16 0)
(3 -1.99297e-16 0)
(3 2.45984e-16 0)
(3 -2.35063e-16 0)
(3 5.0685e-14 0)
(1.88922 0.371899 0)
(0.64464 0.393352 0)
(0.563367 0.33182 0)
(0.589739 0.306659 0)
(0.605643 0.279349 0)
(0.614693 0.263584 0)
(0.621823 0.256181 0)
(0.630387 0.258653 0)
(0.638158 0.268946 0)
(0.646265 0.285015 0)
(0.658203 0.301842 0)
(0.673635 0.314802 0)
(0.689713 0.325945 0)
(0.705107 0.335998 0)
(0.717833 0.345717 0)
(0.728787 0.355954 0)
(0.741814 0.367324 0)
(3 -3.06578e-18 0)
(3 9.98158e-17 0)
(3 2.78099e-16 0)
(3 8.90357e-16 0)
(3 9.10927e-16 0)
(3 4.67499e-16 0)
(3 -5.43435e-16 0)
(2.29135 0.293454 0)
(0.704156 0.381674 0)
(0.564147 0.307352 0)
(0.584842 0.281668 0)
(0.603581 0.258751 0)
(0.614929 0.252659 0)
(0.626451 0.251212 0)
(0.637974 0.257836 0)
(0.647926 0.273588 0)
(0.658887 0.294727 0)
(0.673379 0.312535 0)
(0.690888 0.323134 0)
(0.708418 0.329553 0)
(0.724455 0.333735 0)
(0.737678 0.337917 0)
(0.750059 0.343187 0)
(0.762684 0.350458 0)
(3 -2.34388e-17 0)
(3 1.7484e-16 0)
(3 5.0724e-16 0)
(3 3.86279e-16 0)
(3 -3.14576e-16 0)
(3 -4.10724e-16 0)
(3 -5.73933e-16 0)
(2.66404 0.182403 0)
(0.789129 0.343157 0)
(0.568471 0.271359 0)
(0.587674 0.252288 0)
(0.607376 0.246105 0)
(0.618898 0.248938 0)
(0.633543 0.249693 0)
(0.647217 0.259819 0)
(0.659013 0.276904 0)
(0.671129 0.29486 0)
(0.685925 0.308715 0)
(0.703687 0.317052 0)
(0.721768 0.321857 0)
(0.738602 0.324782 0)
(0.75349 0.32614 0)
(0.766539 0.326935 0)
(0.781198 0.329688 0)
(3 5.24151e-17 0)
(3 3.22146e-16 0)
(3 2.14935e-16 0)
(3 -1.99305e-16 0)
(3 -4.73409e-16 0)
(3 -9.33553e-16 0)
(3 -1.02904e-15 0)
(2.90137 0.0550377 0)
(0.916875 0.299626 0)
(0.585581 0.2482 0)
(0.598364 0.23802 0)
(0.611654 0.243996 0)
(0.624904 0.248738 0)
(0.641019 0.25059 0)
(0.655422 0.259424 0)
(0.667293 0.273474 0)
(0.680498 0.288265 0)
(0.696794 0.298973 0)
(0.714982 0.304999 0)
(0.732968 0.309114 0)
(0.74969 0.311499 0)
(0.764284 0.311446 0)
(0.778825 0.310425 0)
(0.795583 0.31007 0)
(3 1.11899e-16 0)
(3 -1.57478e-16 0)
(3 -4.12662e-16 0)
(3 -6.2807e-16 0)
(3 -5.89042e-16 0)
(3 -4.13171e-16 0)
(3 -7.32988e-16 0)
(2.99939 0.00227997 0)
(1.07455 0.270035 0)
(0.603403 0.232002 0)
(0.605077 0.233814 0)
(0.6163 0.246858 0)
(0.631529 0.248426 0)
(0.646235 0.248281 0)
(0.660121 0.254918 0)
(0.672955 0.266265 0)
(0.688392 0.276431 0)
(0.706131 0.282294 0)
(0.724607 0.285684 0)
(0.741979 0.289154 0)
(0.757311 0.291521 0)
(0.770902 0.291544 0)
(0.785846 0.290494 0)
(0.805336 0.28975 0)
(3 -1.85888e-16 0)
(3 -4.59644e-16 0)
(3 -3.74992e-16 0)
(3 -3.05125e-16 0)
(3 -4.54075e-16 0)
(3 -1.86443e-16 0)
(3 3.26351e-16 0)
(3 1.59509e-06 0)
(1.24898 0.247535 0)
(0.623522 0.214931 0)
(0.610537 0.234097 0)
(0.62166 0.245562 0)
(0.635491 0.243984 0)
(0.648804 0.242944 0)
(0.662244 0.247527 0)
(0.676201 0.254994 0)
(0.692971 0.259312 0)
(0.711653 0.259974 0)
(0.730347 0.260002 0)
(0.746797 0.261309 0)
(0.760974 0.262441 0)
(0.775019 0.262541 0)
(0.792018 0.263789 0)
(0.814928 0.267858 0)
(3 4.06528e-17 0)
(3 7.98373e-17 0)
(3 -2.5125e-16 0)
(3 -5.13003e-17 0)
(3 -1.12956e-16 0)
(3 -2.85944e-16 0)
(3 8.47753e-16 0)
(3 2.28937e-11 0)
(1.44122 0.221646 0)
(0.642343 0.202293 0)
(0.616071 0.229254 0)
(0.626877 0.238837 0)
(0.637314 0.236008 0)
(0.649606 0.233574 0)
(0.662612 0.235927 0)
(0.6771 0.239258 0)
(0.694392 0.238414 0)
(0.71264 0.23438 0)
(0.729714 0.230401 0)
(0.745589 0.228007 0)
(0.762155 0.228322 0)
(0.781553 0.231832 0)
(0.803707 0.239035 0)
(0.828549 0.247277 0)
(3 8.46792e-17 0)
(3 1.93107e-16 0)
(3 1.13765e-16 0)
(3 -1.24328e-16 0)
(3 2.06778e-16 0)
(3 2.21351e-16 0)
(3 3.29559e-17 0)
(3 -3.63285e-16 0)
(1.6308 0.195009 0)
(0.665007 0.193281 0)
(0.622861 0.219551 0)
(0.631511 0.22385 0)
(0.638608 0.219802 0)
(0.649801 0.217031 0)
(0.661663 0.218354 0)
(0.676385 0.218344 0)
(0.692823 0.213118 0)
(0.708881 0.205493 0)
(0.725326 0.20092 0)
(0.743697 0.201064 0)
(0.765667 0.202273 0)
(0.790299 0.205789 0)
(0.815647 0.213394 0)
(0.841488 0.224162 0)
(3 -5.20062e-18 0)
(3 -5.25434e-17 0)
(3 1.53501e-16 0)
(3 3.63279e-16 0)
(3 7.05843e-16 0)
(3 7.75445e-16 0)
(3 5.4667e-16 0)
(3 2.45046e-16 0)
(1.80653 0.170028 0)
(0.692069 0.186768 0)
(0.626205 0.199112 0)
(0.635066 0.198552 0)
(0.640419 0.193585 0)
(0.649715 0.192033 0)
(0.660416 0.193774 0)
(0.673714 0.190613 0)
(0.687756 0.181986 0)
(0.704402 0.175844 0)
(0.72357 0.175883 0)
(0.74579 0.178059 0)
(0.770872 0.1811 0)
(0.797848 0.185122 0)
(0.825257 0.191935 0)
(0.852766 0.20162 0)
(3 -4.45524e-17 0)
(3 -6.52053e-17 0)
(3 9.74753e-17 0)
(3 5.92143e-16 0)
(3 9.02554e-16 0)
(3 1.04353e-15 0)
(3 1.48668e-15 0)
(3 1.20311e-15 0)
(1.96536 0.14857 0)
(0.715789 0.17932 0)
(0.626977 0.171455 0)
(0.636375 0.168006 0)
(0.641336 0.160885 0)
(0.649772 0.159705 0)
(0.658884 0.162051 0)
(0.670345 0.156142 0)
(0.686159 0.15047 0)
(0.705457 0.150349 0)
(0.726239 0.155496 0)
(0.749115 0.16217 0)
(0.774975 0.166326 0)
(0.802905 0.169636 0)
(0.831823 0.174943 0)
(0.860977 0.182138 0)
(3 -4.03534e-16 0)
(3 -2.32288e-16 0)
(3 -1.13005e-16 0)
(3 2.93294e-16 0)
(3 3.24505e-16 0)
(3 1.26435e-16 0)
(3 5.59831e-17 0)
(3 -9.01147e-16 0)
(2.10851 0.129665 0)
(0.733431 0.169698 0)
(0.624509 0.14547 0)
(0.634368 0.138094 0)
(0.64046 0.127446 0)
(0.65002 0.125872 0)
(0.658609 0.128692 0)
(0.672362 0.125312 0)
(0.69141 0.125587 0)
(0.711349 0.131643 0)
(0.732365 0.141434 0)
(0.755148 0.149179 0)
(0.780472 0.153694 0)
(0.807944 0.157373 0)
(0.837013 0.162088 0)
(0.867061 0.167141 0)
(3 8.10702e-17 0)
(3 7.79032e-18 0)
(3 -1.10714e-16 0)
(3 -4.21422e-16 0)
(3 -7.73921e-16 0)
(3 -7.46114e-16 0)
(3 -6.60446e-16 0)
(3 -1.18678e-15 0)
(2.23654 0.112115 0)
(0.746046 0.158216 0)
(0.618769 0.123521 0)
(0.629588 0.112498 0)
(0.63909 0.0998904 0)
(0.65103 0.100015 0)
(0.662319 0.103505 0)
(0.679805 0.102205 0)
(0.699836 0.106431 0)
(0.719588 0.116586 0)
(0.740086 0.127225 0)
(0.761999 0.133814 0)
(0.78568 0.138134 0)
(0.811253 0.142583 0)
(0.83877 0.147722 0)
(0.868265 0.151254 0)
(3 2.53242e-16 0)
(3 2.96211e-16 0)
(3 -2.73518e-18 0)
(3 -8.36602e-16 0)
(3 -1.38363e-15 0)
(3 -1.11699e-15 0)
(3 -4.67611e-16 0)
(3 -5.04597e-16 0)
(2.34917 0.0954541 0)
(0.755161 0.144792 0)
(0.611191 0.104707 0)
(0.623563 0.0921204 0)
(0.638318 0.079956 0)
(0.652404 0.0810157 0)
(0.669061 0.0846027 0)
(0.689725 0.0853611 0)
(0.709328 0.0908182 0)
(0.728659 0.100534 0)
(0.747696 0.110709 0)
(0.768842 0.118091 0)
(0.791226 0.123641 0)
(0.814587 0.129032 0)
(0.839547 0.134136 0)
(0.866892 0.136816 0)
(3 5.1148e-17 0)
(3 -5.00248e-17 0)
(3 3.38787e-18 0)
(3 1.38851e-16 0)
(3 1.06979e-17 0)
(3 -4.45153e-16 0)
(3 -9.50303e-16 0)
(3 -8.11314e-16 0)
(2.44829 0.0798076 0)
(0.762448 0.129549 0)
(0.60286 0.0873957 0)
(0.616923 0.0746258 0)
(0.636844 0.0642993 0)
(0.655355 0.0679014 0)
(0.677749 0.0725247 0)
(0.698836 0.0728076 0)
(0.718824 0.0766272 0)
(0.73695 0.0852787 0)
(0.756409 0.0951294 0)
(0.777207 0.103288 0)
(0.798267 0.109094 0)
(0.819449 0.114196 0)
(0.841919 0.118324 0)
(0.867068 0.119429 0)
(3 -1.20855e-16 0)
(3 1.02684e-16 0)
(3 1.59256e-16 0)
(3 8.32054e-16 0)
(3 1.17332e-15 0)
(3 1.12395e-15 0)
(3 3.97877e-16 0)
(3 -5.81469e-16 0)
(2.53762 0.0650798 0)
(0.769367 0.113118 0)
(0.594331 0.0715112 0)
(0.612005 0.0600947 0)
(0.635663 0.0546198 0)
(0.66049 0.0606064 0)
(0.68502 0.0635607 0)
(0.706422 0.061645 0)
(0.726713 0.0636782 0)
(0.745942 0.071786 0)
(0.765698 0.0807477 0)
(0.785381 0.0884595 0)
(0.803842 0.0938357 0)
(0.822 0.0977916 0)
(0.841753 0.10055 0)
(0.864481 0.100521 0)
(3 -2.57218e-16 0)
(3 -2.39627e-17 0)
(3 1.91042e-16 0)
(3 8.04384e-16 0)
(3 1.03135e-15 0)
(3 1.21988e-15 0)
(3 1.14643e-15 0)
(3 3.64921e-16 0)
(2.61822 0.0513423 0)
(0.778476 0.0956037 0)
(0.587422 0.0574368 0)
(0.609411 0.0477158 0)
(0.63667 0.046636 0)
(0.665541 0.0520258 0)
(0.689693 0.0527904 0)
(0.712446 0.0501311 0)
(0.734194 0.0515184 0)
(0.754835 0.0586285 0)
(0.773295 0.0679827 0)
(0.790201 0.0742207 0)
(0.806018 0.0784169 0)
(0.822146 0.0811617 0)
(0.840227 0.082329 0)
(0.861334 0.0812039 0)
(3 -2.74225e-17 0)
(3 -1.06845e-16 0)
(3 9.17391e-17 0)
(3 2.23634e-16 0)
(3 1.5055e-16 0)
(3 3.2486e-16 0)
(3 1.41104e-16 0)
(3 2.3106e-16 0)
(2.68861 0.0381384 0)
(0.7923 0.0750434 0)
(0.585375 0.0440368 0)
(0.610334 0.0364956 0)
(0.640852 0.0370828 0)
(0.669491 0.0405803 0)
(0.693962 0.0400203 0)
(0.718568 0.0383105 0)
(0.742237 0.0398743 0)
(0.763408 0.0457868 0)
(0.780425 0.0530177 0)
(0.795313 0.0587291 0)
(0.80906 0.0616708 0)
(0.823171 0.0636644 0)
(0.839009 0.0645212 0)
(0.857941 0.0630518 0)
(3 1.5628e-16 0)
(3 2.27897e-16 0)
(3 1.63186e-16 0)
(3 -5.40541e-16 0)
(3 -5.30336e-16 0)
(3 -7.10612e-17 0)
(3 7.42745e-17 0)
(3 -1.61617e-16 0)
(2.74248 0.0224329 0)
(0.807942 0.0468952 0)
(0.586233 0.0289751 0)
(0.612067 0.024003 0)
(0.643732 0.0242142 0)
(0.670792 0.0257378 0)
(0.695533 0.0247701 0)
(0.722237 0.0239576 0)
(0.748045 0.0255525 0)
(0.769922 0.0298646 0)
(0.786994 0.0346512 0)
(0.800761 0.0385094 0)
(0.813102 0.0415181 0)
(0.825345 0.043933 0)
(0.839084 0.0444336 0)
(0.855485 0.042346 0)
(3 1.81352e-16 0)
(3 3.33737e-16 0)
(3 7.63155e-17 0)
(3 -4.14437e-16 0)
(3 -3.20294e-16 0)
(3 -1.15012e-16 0)
(3 2.94987e-16 0)
(3 -3.38879e-16 0)
(2.76072 0.00186069 0)
(0.810723 0.0109574 0)
(0.580849 0.0110895 0)
(0.607134 0.0107446 0)
(0.639623 0.0115456 0)
(0.667329 0.011929 0)
(0.694431 0.0116665 0)
(0.723581 0.0116833 0)
(0.750876 0.0122469 0)
(0.772819 0.0133453 0)
(0.788859 0.0144528 0)
(0.801636 0.0151347 0)
(0.813863 0.0155485 0)
(0.824545 0.0154207 0)
(0.835196 0.0141783 0)
(0.849657 0.0119402 0)
(0.399252 0.382233 0)
(0.103775 0.191479 0)
(0.0366015 0.0455452 0)
(-0.0146599 0.0109676 0)
(-0.0363066 0.0041085 0)
(-0.0491485 0.00284646 0)
(-0.0416805 -0.00163011 0)
(-0.0184216 -0.00371542 0)
(0.430437 0.32734 0)
(0.259829 0.192212 0)
(0.171835 0.068339 0)
(0.0584012 0.0352491 0)
(-0.00356117 0.0153133 0)
(-0.034515 0.00783968 0)
(-0.0342295 0.000267951 0)
(-0.0169895 -0.00534548 0)
(0.481416 0.430113 0)
(0.368275 0.355007 0)
(0.272899 0.229755 0)
(0.135395 0.151256 0)
(0.050972 0.0781031 0)
(0.00567003 0.0225088 0)
(-0.0176129 0.00932474 0)
(-0.0117272 -0.00660029 0)
(0.55792 0.470184 0)
(0.508379 0.416984 0)
(0.43685 0.309936 0)
(0.299029 0.219883 0)
(0.183953 0.134519 0)
(0.0908392 0.0706794 0)
(0.0148663 0.0436075 0)
(0.00423991 0.0137191 0)
(0.610171 0.493859 0)
(0.606802 0.469718 0)
(0.556329 0.413457 0)
(0.434081 0.353415 0)
(0.311988 0.265414 0)
(0.191897 0.177679 0)
(0.075891 0.114018 0)
(0.0310678 0.0601098 0)
(0.645281 0.507561 0)
(0.666231 0.497749 0)
(0.647616 0.471534 0)
(0.564149 0.436454 0)
(0.456767 0.369794 0)
(0.323027 0.30167 0)
(0.178792 0.234929 0)
(0.0648739 0.164165 0)
(0.673641 0.517007 0)
(0.702571 0.515753 0)
(0.700458 0.511241 0)
(0.651614 0.506739 0)
(0.562426 0.484856 0)
(0.450409 0.440648 0)
(0.324081 0.367798 0)
(0.151766 0.331452 0)
(0.698606 0.509342 0)
(0.726161 0.531313 0)
(0.734922 0.538581 0)
(0.715083 0.548496 0)
(0.658514 0.549359 0)
(0.571043 0.5517 0)
(0.423544 0.555649 0)
(0.206592 0.679742 0)
(0.71471 0.49069 0)
(0.744577 0.53145 0)
(0.764948 0.554156 0)
(0.758021 0.578124 0)
(0.726977 0.607022 0)
(0.677809 0.658093 0)
(0.647286 0.757281 0)
(0.727906 0.973634 0)
(0.725699 0.468447 0)
(0.757551 0.520519 0)
(0.790711 0.55466 0)
(0.798892 0.591555 0)
(0.797382 0.640809 0)
(0.795013 0.717603 0)
(0.863011 0.810453 0)
(1.10001 0.918011 0)
(0.734028 0.445071 0)
(0.76856 0.498673 0)
(0.809883 0.541396 0)
(0.836826 0.585631 0)
(0.863728 0.639306 0)
(0.898124 0.716423 0)
(1.01554 0.797398 0)
(1.27462 0.850063 0)
(0.738967 0.423388 0)
(0.77461 0.469133 0)
(0.819215 0.515592 0)
(0.864389 0.564882 0)
(0.915521 0.616279 0)
(0.976465 0.684603 0)
(1.10647 0.749698 0)
(1.33496 0.771612 0)
(0.746088 0.403641 0)
(0.777297 0.437938 0)
(0.822887 0.479766 0)
(0.880109 0.529388 0)
(0.950276 0.57914 0)
(1.03048 0.640276 0)
(1.16064 0.697456 0)
(1.34982 0.701742 0)
(0.758147 0.382025 0)
(0.78046 0.407753 0)
(0.823194 0.440462 0)
(0.883769 0.486418 0)
(0.966674 0.529992 0)
(1.05957 0.579098 0)
(1.18447 0.632194 0)
(1.34671 0.633894 0)
(0.775597 0.360557 0)
(0.792886 0.377049 0)
(0.826446 0.402816 0)
(0.881313 0.441852 0)
(0.968366 0.475283 0)
(1.06739 0.51188 0)
(1.18432 0.558128 0)
(1.32773 0.563801 0)
(0.796216 0.336568 0)
(0.812338 0.348793 0)
(0.839161 0.366929 0)
(0.883578 0.39973 0)
(0.964116 0.422831 0)
(1.0601 0.447798 0)
(1.16663 0.483569 0)
(1.29311 0.49282 0)
(0.814839 0.313017 0)
(0.835087 0.322281 0)
(0.860327 0.337373 0)
(0.897137 0.362147 0)
(0.962693 0.379022 0)
(1.04537 0.398002 0)
(1.13983 0.419316 0)
(1.24856 0.424569 0)
(0.830098 0.292506 0)
(0.857563 0.300567 0)
(0.886485 0.314815 0)
(0.920892 0.332235 0)
(0.971595 0.344256 0)
(1.03782 0.358856 0)
(1.11778 0.366642 0)
(1.20596 0.365635 0)
(0.844306 0.273521 0)
(0.877749 0.280998 0)
(0.912051 0.292775 0)
(0.948167 0.306448 0)
(0.990019 0.3169 0)
(1.04233 0.328858 0)
(1.108 0.327445 0)
(1.17719 0.320533 0)
(0.857683 0.256341 0)
(0.893431 0.265534 0)
(0.932429 0.274414 0)
(0.971668 0.283172 0)
(1.01055 0.29308 0)
(1.05485 0.301711 0)
(1.10824 0.295394 0)
(1.1645 0.286624 0)
(0.870291 0.235808 0)
(0.905116 0.245861 0)
(0.945714 0.253839 0)
(0.986875 0.258753 0)
(1.02614 0.265752 0)
(1.06717 0.272309 0)
(1.11278 0.267499 0)
(1.16103 0.259317 0)
(0.8819 0.212709 0)
(0.914866 0.222865 0)
(0.953469 0.229553 0)
(0.994709 0.231687 0)
(1.03508 0.235994 0)
(1.07492 0.238148 0)
(1.11668 0.235965 0)
(1.16131 0.231344 0)
(0.89061 0.190156 0)
(0.922599 0.198049 0)
(0.958446 0.203635 0)
(0.997551 0.203892 0)
(1.0382 0.204505 0)
(1.07918 0.203337 0)
(1.11952 0.201494 0)
(1.16209 0.199202 0)
(0.897468 0.17195 0)
(0.928383 0.174666 0)
(0.961351 0.17678 0)
(0.997455 0.177464 0)
(1.03633 0.175292 0)
(1.07761 0.170083 0)
(1.11944 0.16685 0)
(1.16248 0.165289 0)
(0.898734 0.152209 0)
(0.929191 0.153212 0)
(0.960853 0.153284 0)
(0.995449 0.15202 0)
(1.03355 0.149633 0)
(1.07448 0.145555 0)
(1.11576 0.140359 0)
(1.15843 0.136575 0)
(0.895934 0.13654 0)
(0.926461 0.134493 0)
(0.958253 0.132321 0)
(0.992213 0.131128 0)
(1.02968 0.127905 0)
(1.07029 0.123962 0)
(1.11332 0.121364 0)
(1.15827 0.118476 0)
(0.894924 0.117098 0)
(0.924746 0.113402 0)
(0.955776 0.110804 0)
(0.988495 0.110028 0)
(1.02401 0.108825 0)
(1.0636 0.107019 0)
(1.10792 0.101561 0)
(1.15392 0.0943055 0)
(0.890761 0.0973087 0)
(0.920414 0.0927282 0)
(0.952662 0.0888791 0)
(0.986916 0.0866941 0)
(1.0228 0.0856471 0)
(1.0605 0.0849676 0)
(1.10063 0.0821906 0)
(1.14334 0.076925 0)
(0.886286 0.0775036 0)
(0.91535 0.0725958 0)
(0.947839 0.0677298 0)
(0.982567 0.0637267 0)
(1.01825 0.0612486 0)
(1.05497 0.0592602 0)
(1.09374 0.0562804 0)
(1.13502 0.0516308 0)
(0.881075 0.0585875 0)
(0.909292 0.0525643 0)
(0.942188 0.0461085 0)
(0.978443 0.0399081 0)
(1.01648 0.0351987 0)
(1.05509 0.0322436 0)
(1.09396 0.0303034 0)
(1.13354 0.0279883 0)
(0.876126 0.0366854 0)
(0.90298 0.0285223 0)
(0.935953 0.020584 0)
(0.972562 0.0152694 0)
(1.01127 0.0125404 0)
(1.05114 0.0115971 0)
(1.09074 0.011432 0)
(1.13017 0.011177 0)
(0.868017 0.00953756 0)
(0.894042 0.00636701 0)
(0.930002 0.00394791 0)
(0.971775 0.00324177 0)
(1.01452 0.0033965 0)
(1.0554 0.00348377 0)
(1.09458 0.00370378 0)
(1.1334 0.00442017 0)
(1.68225 1.03228 0)
(2.27631 1.0622 0)
(2.54461 0.795404 0)
(2.56437 0.417828 0)
(2.55877 0.0786233 0)
(2.49213 -0.148802 0)
(2.27725 -0.282644 0)
(2.11039 -0.224831 0)
(1.96199 -0.128633 0)
(1.83952 -0.0978907 0)
(1.78531 -0.0644594 0)
(1.81688 -0.0371653 0)
(1.75722 -0.0373381 0)
(1.67278 -0.034455 0)
(1.61381 -0.0309439 0)
(1.57468 -0.0286578 0)
(1.52151 -0.0201695 0)
(1.47553 -0.0109153 0)
(1.44877 -0.00759824 0)
(1.43865 -0.008776 0)
(1.45243 -0.0139182 0)
(1.46956 -0.0183054 0)
(1.48075 -0.0194997 0)
(1.48909 -0.0174047 0)
(1.49999 -0.0145465 0)
(1.51732 -0.0126114 0)
(1.54446 -0.0110599 0)
(1.56234 -0.0103209 0)
(1.57843 -0.00849688 0)
(1.59124 -0.0033083 0)
(1.60863 0.000573585 0)
(1.62953 0.00227627 0)
(1.65652 0.00394141 0)
(1.68218 0.00581211 0)
(1.70243 0.00704708 0)
(1.72336 0.00794993 0)
(1.74695 0.00844313 0)
(1.77697 0.00797804 0)
(1.80834 0.00707581 0)
(1.83209 0.00663052 0)
(1.85388 0.0064703 0)
(1.87519 0.00602479 0)
(1.89544 0.005207 0)
(1.91488 0.00389637 0)
(1.9324 0.00269436 0)
(1.94555 0.00385314 0)
(1.9559 0.00642961 0)
(1.96958 0.00799134 0)
(1.98811 0.00859304 0)
(2.0087 0.00892153 0)
(2.0294 0.00930548 0)
(2.04899 0.00983018 0)
(2.06644 0.010471 0)
(2.08093 0.0110381 0)
(2.09311 0.0115281 0)
(2.10554 0.011903 0)
(2.11984 0.01234 0)
(2.1344 0.0127363 0)
(2.14595 0.0133166 0)
(2.15375 0.0137853 0)
(2.16616 0.0139697 0)
(2.18607 0.0128928 0)
(2.20666 0.0123556 0)
(2.22703 0.0119862 0)
(2.24727 0.0093468 0)
(2.26325 0.0005782 0)
(2.2686 -0.0129014 0)
(2.25631 -0.0289296 0)
(2.2248 -0.0480449 0)
(2.18402 -0.0689 0)
(2.13551 -0.0821756 0)
(2.09106 -0.0809006 0)
(2.06385 -0.0954207 0)
(2.05191 -0.0786854 0)
(2.0565 -0.0635934 0)
(2.04939 -0.0512747 0)
(2.04949 -0.0374144 0)
(2.06075 -0.0208959 0)
(2.0831 -0.000361811 0)
(2.10912 0.0146651 0)
(2.1416 0.0199344 0)
(2.16836 0.0128013 0)
(2.18404 0.00732776 0)
(2.20065 0.00662027 0)
(2.20774 0.00437789 0)
(2.19581 -0.0011322 0)
(2.15735 -0.00118684 0)
(2.14335 0.00817 0)
(1.79084 0.823387 0)
(2.23337 0.459706 0)
(2.45128 0.143335 0)
(2.48264 -0.192078 0)
(2.51467 -0.359005 0)
(2.51894 -0.548075 0)
(2.48508 -0.52626 0)
(2.35845 -0.466089 0)
(2.16491 -0.346587 0)
(1.98639 -0.182217 0)
(1.87091 -0.0572686 0)
(1.84813 -0.0188283 0)
(1.82694 -0.0343924 0)
(1.75375 -0.037356 0)
(1.69496 -0.022467 0)
(1.63754 -0.0244119 0)
(1.58008 -0.0294396 0)
(1.53423 -0.0237182 0)
(1.51412 -0.0176584 0)
(1.5016 -0.0116287 0)
(1.50062 -0.0169148 0)
(1.50875 -0.0328955 0)
(1.52133 -0.0465667 0)
(1.53134 -0.0490588 0)
(1.54109 -0.0440209 0)
(1.55643 -0.0361733 0)
(1.57804 -0.0324113 0)
(1.59307 -0.0325974 0)
(1.6078 -0.0302159 0)
(1.61926 -0.0205411 0)
(1.63301 -0.0083295 0)
(1.65319 -0.000871726 0)
(1.67646 0.004046 0)
(1.69948 0.00747118 0)
(1.71941 0.00939121 0)
(1.7399 0.0134847 0)
(1.76288 0.0185989 0)
(1.78989 0.0234995 0)
(1.8178 0.0257036 0)
(1.84044 0.0258912 0)
(1.86204 0.0259122 0)
(1.88215 0.0253546 0)
(1.90058 0.0228287 0)
(1.91845 0.0188102 0)
(1.93613 0.0156569 0)
(1.95295 0.0134162 0)
(1.96778 0.0144343 0)
(1.9829 0.0185724 0)
(2.00039 0.0228066 0)
(2.01935 0.0260977 0)
(2.03858 0.0286758 0)
(2.05726 0.0309402 0)
(2.07453 0.0335961 0)
(2.08907 0.0367606 0)
(2.10044 0.0395626 0)
(2.11156 0.0403119 0)
(2.12586 0.0393095 0)
(2.14211 0.0387423 0)
(2.15634 0.0399083 0)
(2.16384 0.0435378 0)
(2.17274 0.0433201 0)
(2.19228 0.0411878 0)
(2.21085 0.0353921 0)
(2.22901 0.0228408 0)
(2.23996 -0.00183771 0)
(2.24235 -0.0474695 0)
(2.24664 -0.100319 0)
(2.24944 -0.147766 0)
(2.21965 -0.191949 0)