/*--------------------------------*- C++ -*----------------------------------*\
  =========                 |
  \\      /  F ield         | OpenFOAM: The Open Source CFD Toolbox
   \\    /   O peration     | Website:  https://openfoam.org
    \\  /    A nd           | Version:  7
     \\/     M anipulation  |
\*---------------------------------------------------------------------------*/
FoamFile
{
    version     2.0;
    format      ascii;
    class       volVectorField;
    location    "1.9";
    object      U;
}
// * * * * * * * * * * * * * * * * * * * * * * * * * * * * * * * * * * * * * //

dimensions      [0 1 -1 0 0 0 0];

internalField   nonuniform List<vector> 
3328
(
(3 -1.67302e-17 0)
(3 -2.01077e-16 0)
(3 -8.20241e-17 0)
(3 3.65026e-17 0)
(3 4.54106e-16 0)
(3 6.88516e-16 0)
(3 3.47174e-16 0)
(3 2.67763e-16 0)
(3 2.68105e-16 0)
(3 5.5392e-16 0)
(2.81769 0.00477052 0)
(0.927626 0.018018 0)
(0.658909 0.0208953 0)
(0.614263 0.0171357 0)
(0.571313 0.0174427 0)
(0.528629 0.019263 0)
(0.483992 0.0214899 0)
(0.436767 0.0238767 0)
(0.385554 0.026589 0)
(0.329151 0.0296016 0)
(0.267042 0.0323988 0)
(0.197478 0.0351948 0)
(0.121334 0.0373305 0)
(0.0437628 0.0407058 0)
(3 2.89937e-17 0)
(3 -1.13663e-16 0)
(3 2.90355e-16 0)
(3 2.87652e-16 0)
(3 6.92577e-16 0)
(3 6.02171e-16 0)
(3 7.91533e-16 0)
(3 7.7137e-16 0)
(3 8.9827e-16 0)
(3 9.68591e-16 0)
(2.83006 0.0246901 0)
(0.93011 0.0788463 0)
(0.650464 0.0661269 0)
(0.609339 0.0537891 0)
(0.565511 0.0555416 0)
(0.520303 0.0602075 0)
(0.473219 0.0650765 0)
(0.424694 0.0709696 0)
(0.373306 0.0789794 0)
(0.317582 0.0887088 0)
(0.257055 0.0980918 0)
(0.189801 0.107478 0)
(0.116599 0.11505 0)
(0.0424051 0.125585 0)
(3 7.14614e-17 0)
(3 5.01663e-16 0)
(3 7.75475e-16 0)
(3 3.02321e-16 0)
(3 -1.28159e-16 0)
(3 -7.67395e-16 0)
(3 5.5955e-17 0)
(3 1.88378e-16 0)
(3 2.4796e-16 0)
(3 -7.5309e-17 0)
(2.88275 0.0562872 0)
(0.965038 0.140356 0)
(0.671008 0.10555 0)
(0.628858 0.0877601 0)
(0.579066 0.0956396 0)
(0.527609 0.106015 0)
(0.474943 0.113938 0)
(0.422568 0.122248 0)
(0.368739 0.133486 0)
(0.311429 0.147396 0)
(0.250093 0.161113 0)
(0.183188 0.175626 0)
(0.111664 0.187881 0)
(0.0410017 0.2051 0)
(3 -8.67911e-17 0)
(3 -3.07011e-17 0)
(3 -3.61647e-17 0)
(3 -5.64784e-17 0)
(3 -2.82166e-16 0)
(3 -1.39253e-16 0)
(3 -2.29119e-16 0)
(3 3.6434e-17 0)
(3 -2.57348e-16 0)
(3 -8.19139e-16 0)
(2.97134 0.0281346 0)
(1.03096 0.179032 0)
(0.703049 0.133364 0)
(0.652805 0.12835 0)
(0.593475 0.142597 0)
(0.534928 0.156769 0)
(0.480082 0.166693 0)
(0.427741 0.176857 0)
(0.373934 0.190941 0)
(0.315747 0.208831 0)
(0.252998 0.226697 0)
(0.184291 0.245568 0)
(0.112445 0.26156 0)
(0.0405195 0.283301 0)
(3 -5.52088e-17 0)
(3 -3.29951e-16 0)
(3 -3.01322e-16 0)
(3 2.76566e-16 0)
(3 3.34624e-16 0)
(3 -6.39889e-17 0)
(3 8.4363e-17 0)
(3 5.97896e-16 0)
(3 8.31009e-16 0)
(3 4.97117e-16 0)
(3.00163 0.00221961 0)
(1.1358 0.206453 0)
(0.711175 0.173367 0)
(0.654067 0.178926 0)
(0.599865 0.194159 0)
(0.546914 0.20761 0)
(0.49587 0.217725 0)
(0.445992 0.229786 0)
(0.394162 0.247067 0)
(0.33843 0.269147 0)
(0.277346 0.291084 0)
(0.207802 0.316166 0)
(0.128999 0.338558 0)
(0.0483759 0.367218 0)
(3 3.15359e-17 0)
(3 4.05134e-17 0)
(3 -2.15971e-16 0)
(3 5.7027e-17 0)
(3 1.34097e-16 0)
(3 1.00049e-16 0)
(3 5.78225e-16 0)
(3 3.89512e-16 0)
(3 5.59609e-16 0)
(3 8.01686e-16 0)
(3.00002 8.58532e-06 0)
(1.29259 0.248023 0)
(0.726183 0.213669 0)
(0.661459 0.223006 0)
(0.612078 0.239752 0)
(0.563226 0.254465 0)
(0.515936 0.265725 0)
(0.468562 0.280131 0)
(0.416981 0.301865 0)
(0.359049 0.331789 0)
(0.292134 0.361788 0)
(0.216537 0.397518 0)
(0.135904 0.431394 0)
(0.0445066 0.464285 0)
(3 1.44116e-16 0)
(3 1.55078e-16 0)
(3 -8.41529e-17 0)
(3 -3.64128e-16 0)
(3 -1.90841e-16 0)
(3 7.25312e-16 0)
(3 1.23801e-15 0)
(3 3.19064e-16 0)
(3 -4.28775e-16 0)
(3 -4.33894e-16 0)
(3 2.81429e-09 0)
(1.51752 0.286002 0)
(0.748582 0.262144 0)
(0.662345 0.267305 0)
(0.61271 0.284762 0)
(0.564417 0.300597 0)
(0.517892 0.313688 0)
(0.472478 0.332422 0)
(0.423818 0.359565 0)
(0.375747 0.39866 0)
(0.31884 0.435136 0)
(0.26174 0.476304 0)
(0.186188 0.519564 0)
(0.081269 0.571913 0)
(3 7.29909e-17 0)
(3 6.08506e-16 0)
(3 9.5945e-16 0)
(3 8.2976e-16 0)
(3 1.81927e-16 0)
(3 -1.20037e-16 0)
(3 -2.64429e-16 0)
(3 -9.80601e-16 0)
(3 -1.24202e-15 0)
(3 -1.91953e-15 0)
(3 7.36252e-14 0)
(1.81691 0.327487 0)
(0.778948 0.327986 0)
(0.668057 0.318781 0)
(0.626214 0.334066 0)
(0.583498 0.348991 0)
(0.539614 0.361849 0)
(0.497789 0.382703 0)
(0.453577 0.411484 0)
(0.415552 0.453691 0)
(0.369065 0.493773 0)
(0.319198 0.554034 0)
(0.220679 0.644515 0)
(0.127371 0.775678 0)
(3 -1.13242e-16 0)
(3 -6.73354e-17 0)
(3 5.94368e-17 0)
(3 7.85732e-19 0)
(3 -7.30114e-19 0)
(3 -9.39611e-16 0)
(3 -1.47289e-15 0)
(3 -1.67709e-15 0)
(3 -1.4777e-15 0)
(3 -1.26692e-15 0)
(3 -3.29385e-15 0)
(2.23059 0.347798 0)
(0.852558 0.403374 0)
(0.716126 0.358047 0)
(0.681413 0.371182 0)
(0.640453 0.388014 0)
(0.595399 0.403375 0)
(0.55371 0.426796 0)
(0.510694 0.455642 0)
(0.477219 0.499871 0)
(0.43804 0.548992 0)
(0.407177 0.632331 0)
(0.366078 0.748935 0)
(0.425817 0.889776 0)
(3 -1.06079e-16 0)
(3 -6.76208e-16 0)
(3 -7.96259e-16 0)
(3 -3.16262e-16 0)
(3 -1.13148e-16 0)
(3 -3.4344e-16 0)
(3 -9.29317e-16 0)
(3 -6.16331e-16 0)
(3 -4.71786e-16 0)
(3 -2.26304e-16 0)
(3 -8.96281e-16 0)
(2.77077 0.239312 0)
(0.99556 0.444403 0)
(0.795242 0.37677 0)
(0.759922 0.400682 0)
(0.714199 0.426525 0)
(0.666763 0.444055 0)
(0.625714 0.468362 0)
(0.584615 0.496022 0)
(0.552742 0.540437 0)
(0.522797 0.595779 0)
(0.508844 0.678178 0)
(0.513742 0.751821 0)
(0.587976 0.778887 0)
(3 -1.09413e-16 0)
(3 -1.05904e-16 0)
(3 -1.63646e-16 0)
(3 -2.05691e-16 0)
(3 2.25303e-17 0)
(3 3.92792e-16 0)
(3 4.43807e-16 0)
(3 1.18377e-15 0)
(3 6.74167e-16 0)
(3 1.84816e-16 0)
(3 -3.79436e-16 0)
(3.05403 0.0287305 0)
(1.17855 0.430706 0)
(0.825827 0.417988 0)
(0.790533 0.455116 0)
(0.748689 0.477829 0)
(0.705585 0.491837 0)
(0.671857 0.514584 0)
(0.641593 0.541035 0)
(0.617749 0.581149 0)
(0.605477 0.633112 0)
(0.603514 0.700623 0)
(0.63275 0.755024 0)
(0.690629 0.76529 0)
(3 1.24739e-16 0)
(3 3.2817e-16 0)
(3 3.58492e-16 0)
(3 -1.41372e-16 0)
(3 -3.2227e-16 0)
(3 1.54708e-16 0)
(3 8.8393e-16 0)
(3 1.45669e-15 0)
(3 1.17397e-15 0)
(3 1.41988e-15 0)
(3 8.43792e-16 0)
(3.00362 0.000181637 0)
(1.38795 0.439787 0)
(0.811873 0.462268 0)
(0.770452 0.486246 0)
(0.746571 0.511499 0)
(0.720219 0.527408 0)
(0.700995 0.546169 0)
(0.685238 0.570055 0)
(0.671166 0.604341 0)
(0.673339 0.65094 0)
(0.680339 0.705566 0)
(0.714578 0.745167 0)
(0.754861 0.752208 0)
(3 -4.72816e-17 0)
(3 -2.78967e-16 0)
(3 -8.5767e-17 0)
(3 2.51351e-16 0)
(3 2.88596e-16 0)
(3 3.93047e-16 0)
(3 3.61695e-16 0)
(3 4.78449e-16 0)
(3 9.81208e-16 0)
(3 1.0452e-15 0)
(3 5.92202e-16 0)
(3.00001 -7.0524e-07 0)
(1.84706 0.487901 0)
(0.852898 0.526178 0)
(0.774828 0.512956 0)
(0.765901 0.534106 0)
(0.748583 0.554032 0)
(0.733698 0.570958 0)
(0.723483 0.593147 0)
(0.715125 0.621735 0)
(0.722941 0.659437 0)
(0.735026 0.702836 0)
(0.765981 0.735155 0)
(0.793892 0.743139 0)
(3 -1.39148e-17 0)
(3 -6.1403e-17 0)
(3 -1.2781e-16 0)
(3 1.20725e-16 0)
(3 8.30619e-16 0)
(3 1.3597e-15 0)
(3 1.55108e-15 0)
(3 9.92475e-16 0)
(3 1.31587e-15 0)
(3 1.16419e-15 0)
(3 4.76986e-16 0)
(3 -2.21982e-07 0)
(2.57913 0.377962 0)
(0.997651 0.585363 0)
(0.841652 0.519295 0)
(0.820159 0.543394 0)
(0.7994 0.570873 0)
(0.779406 0.591422 0)
(0.765537 0.612831 0)
(0.755295 0.635476 0)
(0.760191 0.664452 0)
(0.772385 0.698285 0)
(0.797697 0.727969 0)
(0.818833 0.737285 0)
(3 9.41229e-17 0)
(3 4.04254e-16 0)
(3 5.21998e-16 0)
(3 3.56681e-16 0)
(3 4.46385e-16 0)
(3 6.33618e-16 0)
(3 1.74892e-15 0)
(3 2.35435e-15 0)
(3 2.3466e-15 0)
(3 2.62357e-15 0)
(3 7.17192e-16 0)
(3 -2.85586e-08 0)
(3.08014 0.05364 0)
(1.2698 0.572536 0)
(0.915 0.558932 0)
(0.882 0.584445 0)
(0.844159 0.607752 0)
(0.813584 0.62525 0)
(0.796271 0.642762 0)
(0.787464 0.655731 0)
(0.790788 0.673727 0)
(0.801234 0.696134 0)
(0.820162 0.719926 0)
(0.83702 0.735229 0)
(3 -2.27188e-16 0)
(3 -2.65354e-16 0)
(3 5.08021e-17 0)
(3 -3.58623e-17 0)
(3 -1.20573e-16 0)
(3 3.29142e-16 0)
(3 1.21264e-15 0)
(3 1.94363e-15 0)
(3 1.02668e-15 0)
(3 -2.30519e-16 0)
(3 -4.70832e-16 0)
(3 -1.40082e-09 0)
(3.00809 0.000366667 0)
(1.56835 0.553499 0)
(0.916531 0.612161 0)
(0.879977 0.633655 0)
(0.857412 0.650632 0)
(0.841769 0.657113 0)
(0.831323 0.663614 0)
(0.825017 0.668589 0)
(0.825516 0.682086 0)
(0.831468 0.700164 0)
(0.844011 0.720363 0)
(0.853088 0.737119 0)
(3 1.54466e-16 0)
(3 1.37208e-17 0)
(3 -5.37079e-16 0)
(3 -3.38827e-16 0)
(3 -4.37004e-17 0)
(3 3.23385e-16 0)
(3 2.99066e-16 0)
(3 1.52641e-16 0)
(3 -3.30949e-16 0)
(3 -5.43512e-16 0)
(3 -2.44958e-16 0)
(3 -1.42127e-11 0)
(3.00003 -1.5467e-06 0)
(2.31849 0.484461 0)
(1.01059 0.656177 0)
(0.913024 0.651038 0)
(0.896446 0.669167 0)
(0.884524 0.673743 0)
(0.875632 0.679211 0)
(0.869652 0.68165 0)
(0.866092 0.692734 0)
(0.864806 0.708644 0)
(0.868577 0.726229 0)
(0.868366 0.740392 0)
(3 1.70948e-18 0)
(3 1.57766e-16 0)
(3 9.90865e-17 0)
(3 2.82648e-16 0)
(3 3.84278e-16 0)
(3 -4.24989e-18 0)
(3 -6.64897e-16 0)
(3 -7.18754e-16 0)
(3 -7.98141e-16 0)
(3 -3.98211e-16 0)
(3 5.84023e-16 0)
(3 -1.14307e-14 0)
(3 -7.92337e-07 0)
(3.074 0.0970481 0)
(1.28969 0.653051 0)
(0.984142 0.672491 0)
(0.960025 0.68445 0)
(0.939241 0.690683 0)
(0.92337 0.697325 0)
(0.912249 0.698282 0)
(0.903578 0.707905 0)
(0.895522 0.717855 0)
(0.888205 0.731895 0)
(0.878034 0.726385 0)
(3 -1.43624e-16 0)
(3 3.78204e-17 0)
(3 1.16742e-15 0)
(3 1.07175e-15 0)
(3 8.48761e-16 0)
(3 2.62672e-16 0)
(3 -5.58545e-16 0)
(3 -3.25964e-16 0)
(3 1.33898e-16 0)
(3 6.68485e-16 0)
(3 8.10824e-16 0)
(3 1.46046e-15 0)
(3 -1.13757e-07 0)
(3.01593 0.000952192 0)
(1.64226 0.634396 0)
(0.993782 0.719884 0)
(0.974704 0.717314 0)
(0.967037 0.726118 0)
(0.957744 0.729795 0)
(0.947414 0.723029 0)
(0.930506 0.716894 0)
(0.913377 0.709843 0)
(0.887336 0.677974 0)
(0.854369 0.624997 0)
(3 2.10264e-16 0)
(3 3.67679e-16 0)
(3 1.5764e-16 0)
(3 1.43284e-16 0)
(3 1.19576e-16 0)
(3 -9.66012e-17 0)
(3 1.32872e-16 0)
(3 1.72784e-16 0)
(3 4.35009e-16 0)
(3 1.01297e-15 0)
(3 9.33482e-16 0)
(3 9.22148e-16 0)
(3 -5.97385e-09 0)
(3.00011 -1.24059e-06 0)
(2.50786 0.45013 0)
(1.1162 0.73227 0)
(1.00975 0.713768 0)
(1.0103 0.7339 0)
(0.996596 0.742715 0)
(0.971577 0.732376 0)
(0.934203 0.686531 0)
(0.878051 0.608753 0)
(0.843274 0.533563 0)
(0.828454 0.487859 0)
(3 2.0684e-17 0)
(3 -7.0182e-17 0)
(3 -6.93973e-16 0)
(3 -6.29613e-16 0)
(3 -2.36081e-16 0)
(3 -1.38454e-16 0)
(3 1.18081e-16 0)
(3 -1.19391e-16 0)
(3 9.40833e-17 0)
(3 2.72582e-17 0)
(3 1.7679e-16 0)
(3 5.50253e-16 0)
(3 -1.51573e-11 0)
(3.00001 -2.7199e-06 0)
(3.07341 0.0556678 0)
(1.40395 0.700368 0)
(1.05513 0.765133 0)
(1.03164 0.759299 0)
(0.995978 0.742548 0)
(0.934928 0.666234 0)
(0.863504 0.555915 0)
(0.831447 0.478116 0)
(0.837373 0.447839 0)
(0.855072 0.44576 0)
(3 -5.7646e-18 0)
(3 3.98146e-17 0)
(3 1.72895e-16 0)
(3 1.30591e-16 0)
(3 2.61752e-17 0)
(3 1.27409e-16 0)
(3 -4.31856e-16 0)
(3 -8.07211e-16 0)
(3 -9.30763e-16 0)
(3 -1.05562e-15 0)
(3 -7.34531e-16 0)
(3 4.59112e-16 0)
(3 -1.27487e-14 0)
(3 -4.37731e-07 0)
(3.00647 0.000525598 0)
(2.02637 0.675297 0)
(1.06823 0.847636 0)
(0.974358 0.723705 0)
(0.912905 0.594485 0)
(0.852438 0.489309 0)
(0.832395 0.431681 0)
(0.837541 0.40697 0)
(0.862738 0.411516 0)
(0.894872 0.428884 0)
(3 -2.68442e-16 0)
(3 -5.33532e-16 0)
(3 -6.77277e-16 0)
(3 -8.33598e-16 0)
(3 -3.48843e-16 0)
(3 1.31096e-16 0)
(3 -2.12929e-16 0)
(3 -7.72075e-16 0)
(3 -1.26955e-15 0)
(3 -1.41405e-15 0)
(3 -9.69963e-16 0)
(3 -9.78836e-16 0)
(3 1.894e-15 0)
(3 -2.50936e-08 0)
(3.00002 1.23993e-06 0)
(3.04582 0.220204 0)
(1.23503 0.776518 0)
(0.877699 0.513822 0)
(0.862497 0.426402 0)
(0.85302 0.394832 0)
(0.868751 0.400208 0)
(0.886349 0.41057 0)
(0.909635 0.425192 0)
(0.939224 0.443511 0)
(3 -1.21468e-16 0)
(3 -4.46503e-16 0)
(3 -8.08755e-16 0)
(3 -7.32009e-16 0)
(3 -4.08703e-16 0)
(3 -7.09248e-16 0)
(3 -7.89783e-16 0)
(3 -4.41296e-16 0)
(3 -4.84349e-16 0)
(3 -6.37172e-16 0)
(3 -7.836e-16 0)
(3 -9.34931e-16 0)
(3 1.1105e-15 0)
(3 -6.86975e-11 0)
(3 -4.56705e-07 0)
(3.03898 0.0012645 0)
(1.18233 0.439088 0)
(0.792385 0.346925 0)
(0.848262 0.348644 0)
(0.895803 0.378127 0)
(0.928919 0.396594 0)
(0.945677 0.420763 0)
(0.957167 0.450369 0)
(0.979384 0.469748 0)
(3 4.14022e-17 0)
(3 4.28051e-16 0)
(3 9.65252e-16 0)
(3 9.59919e-16 0)
(3 1.28138e-16 0)
(3 -1.4741e-15 0)
(3 -1.75792e-15 0)
(3 -1.67953e-15 0)
(3 -1.31251e-15 0)
(3 -1.23877e-15 0)
(3 -1.36922e-15 0)
(3 -1.26046e-15 0)
(3 5.16073e-17 0)
(3 -6.48305e-14 0)
(3 -7.24216e-08 0)
(2.92849 -0.0239425 0)
(0.955544 0.0814728 0)
(0.698776 0.190564 0)
(0.842881 0.283312 0)
(0.924815 0.373635 0)
(0.966225 0.420856 0)
(0.979605 0.448408 0)
(0.9886 0.473597 0)
(1.00647 0.486462 0)
(3 -1.02558e-16 0)
(3 -6.0806e-19 0)
(3 3.76129e-16 0)
(3 9.60109e-16 0)
(3 -7.51477e-16 0)
(3 -1.81442e-15 0)
(3 -2.02209e-15 0)
(3 -1.76134e-15 0)
(3 -1.7369e-15 0)
(3 -1.14734e-15 0)
(3 -4.73409e-16 0)
(3 -2.14264e-16 0)
(3 9.75606e-16 0)
(3 1.4109e-15 0)
(3 -4.4134e-09 0)
(2.67634 -0.0947199 0)
(0.718924 -0.0607411 0)
(0.555828 0.120978 0)
(0.738871 0.251901 0)
(0.879754 0.362954 0)
(0.951579 0.431638 0)
(0.981493 0.455294 0)
(0.997677 0.47049 0)
(1.01707 0.477225 0)
(3 5.83428e-17 0)
(3 -1.69037e-16 0)
(3 -9.43322e-17 0)
(3 -1.8496e-16 0)
(3 -9.82164e-16 0)
(3 -7.1013e-16 0)
(3 -1.80607e-16 0)
(3 -1.95325e-16 0)
(3 -4.6265e-16 0)
(3 -3.41792e-16 0)
(3 5.39601e-17 0)
(3 5.32932e-16 0)
(3 6.47741e-16 0)
(3 1.36058e-15 0)
(3 -7.15588e-11 0)
(2.48021 -0.0457476 0)
(0.633675 -0.0562776 0)
(0.48416 0.0789561 0)
(0.604021 0.146887 0)
(0.73987 0.249078 0)
(0.873013 0.332929 0)
(0.958155 0.38585 0)
(0.99936 0.425208 0)
(1.02882 0.445777 0)
(3 4.01274e-16 0)
(3 2.4385e-16 0)
(3 -6.4875e-16 0)
(3 -9.62594e-16 0)
(3 2.37248e-16 0)
(3 8.41751e-16 0)
(3 1.6144e-15 0)
(3 1.20876e-15 0)
(3 9.85056e-16 0)
(3 2.93882e-16 0)
(3 -3.41676e-16 0)
(3 -7.7732e-16 0)
(3 -9.77758e-16 0)
(3 5.46528e-17 0)
(3 -4.34408e-13 0)
(2.49647 -0.00395582 0)
(0.655243 -0.019663 0)
(0.474094 0.0473328 0)
(0.52091 0.0723889 0)
(0.610993 0.130939 0)
(0.726479 0.223516 0)
(0.850526 0.30806 0)
(0.942728 0.371495 0)
(1.01311 0.401835 0)
(3 7.10665e-17 0)
(3 3.67747e-16 0)
(3 -6.82727e-17 0)
(3 -1.52231e-16 0)
(3 2.28991e-17 0)
(3 2.69321e-17 0)
(3 2.44917e-16 0)
(3 3.50834e-16 0)
(3 2.51858e-16 0)
(3 4.33173e-16 0)
(3 -1.21421e-16 0)
(3 4.54562e-16 0)
(3 5.52493e-16 0)
(3 8.22494e-16 0)
(3 -7.79766e-16 0)
(2.54363 0.0287814 0)
(0.687455 0.0446329 0)
(0.486871 0.0286368 0)
(0.509926 0.0336997 0)
(0.545367 0.0689005 0)
(0.602482 0.136809 0)
(0.706533 0.212108 0)
(0.818165 0.293217 0)
(0.929391 0.353948 0)
(3 -2.4973e-16 0)
(3 -4.85562e-16 0)
(3 3.97641e-16 0)
(3 8.38835e-16 0)
(3 5.09078e-16 0)
(3 -2.59767e-16 0)
(3 -3.72657e-16 0)
(3 -1.71417e-16 0)
(3 -2.75717e-16 0)
(3 9.69338e-16 0)
(3 1.56667e-15 0)
(3 1.50864e-15 0)
(3 9.01208e-16 0)
(3 -5.97381e-17 0)
(3 -9.12278e-16 0)
(2.62792 0.0498012 0)
(0.728358 0.09007 0)
(0.5055 0.0320994 0)
(0.521125 0.0308375 0)
(0.537006 0.0496258 0)
(0.55146 0.0891835 0)
(0.608235 0.122283 0)
(0.686252 0.187427 0)
(0.802392 0.250461 0)
(3 -9.57451e-17 0)
(3 -4.4609e-16 0)
(3 -9.92958e-17 0)
(3 1.7172e-16 0)
(3 9.35385e-16 0)
(3 1.07894e-15 0)
(3 1.05273e-16 0)
(3 -5.85372e-18 0)
(3 9.88268e-16 0)
(3 9.87743e-16 0)
(3 1.06802e-15 0)
(3 -1.65191e-16 0)
(3 -9.04093e-16 0)
(3 -1.12788e-15 0)
(3 -1.38331e-15 0)
(2.73799 0.0429535 0)
(0.779105 0.0919626 0)
(0.528953 0.0457978 0)
(0.542061 0.0419916 0)
(0.547624 0.0465421 0)
(0.554486 0.0610241 0)
(0.569144 0.0809486 0)
(0.606386 0.113105 0)
(0.68158 0.15829 0)
(3 -4.53068e-17 0)
(3 4.22965e-16 0)
(3 5.27791e-16 0)
(3 1.09792e-16 0)
(3 3.60143e-16 0)
(3 4.94711e-16 0)
(3 1.94944e-16 0)
(3 3.78367e-16 0)
(3 7.54579e-16 0)
(3 4.8905e-16 0)
(3 -3.07547e-16 0)
(3 -5.86637e-16 0)
(3 -4.42317e-16 0)
(3 5.75467e-16 0)
(3 6.61107e-16 0)
(2.81728 0.024671 0)
(0.822337 0.0768193 0)
(0.550204 0.0598437 0)
(0.562487 0.0598547 0)
(0.566338 0.0581808 0)
(0.567312 0.0571471 0)
(0.573279 0.0637889 0)
(0.584059 0.0799311 0)
(0.615174 0.106543 0)
(3 3.92115e-17 0)
(3 5.14377e-17 0)
(3 1.36331e-16 0)
(3 3.00648e-16 0)
(3 -1.07643e-16 0)
(3 1.32514e-16 0)
(3 3.83265e-16 0)
(3 4.57964e-16 0)
(3 -4.51762e-17 0)
(3 -1.8472e-16 0)
(3 -2.58192e-16 0)
(3 1.29755e-16 0)
(3 8.34919e-16 0)
(3 1.46425e-15 0)
(3 1.63259e-15 0)
(2.86575 0.0143876 0)
(0.85816 0.0684084 0)
(0.567199 0.0666153 0)
(0.577113 0.0688811 0)
(0.588021 0.0661997 0)
(0.588576 0.0611867 0)
(0.589484 0.0623582 0)
(0.593444 0.0675399 0)
(0.605027 0.0758724 0)
(3 -7.84367e-17 0)
(3 -4.24014e-16 0)
(3 -7.37232e-16 0)
(3 -8.34679e-16 0)
(3 -7.7712e-16 0)
(3 -2.23292e-16 0)
(3 -3.74324e-17 0)
(3 -2.30012e-16 0)
(3 -1.08327e-15 0)
(3 -1.46716e-15 0)
(3 -8.6416e-16 0)
(3 -1.27661e-16 0)
(3 5.17154e-16 0)
(3 1.1968e-15 0)
(3 1.28291e-15 0)
(2.9018 0.00921733 0)
(0.892041 0.0649828 0)
(0.577181 0.0668729 0)
(0.588467 0.0684083 0)
(0.605699 0.0677925 0)
(0.608389 0.0669655 0)
(0.61024 0.0647353 0)
(0.609922 0.0638665 0)
(0.615611 0.0617998 0)
(3 -5.33832e-18 0)
(3 8.03951e-17 0)
(3 -2.47119e-16 0)
(3 -5.73848e-16 0)
(3 -2.49046e-16 0)
(3 -2.10182e-17 0)
(3 1.25636e-16 0)
(3 -3.45648e-16 0)
(3 -2.01811e-15 0)
(3 -1.82782e-15 0)
(3 -1.47685e-15 0)
(3 2.13705e-16 0)
(3 4.28392e-16 0)
(3 6.79108e-16 0)
(3 1.99925e-16 0)
(2.93061 0.00578361 0)
(0.919325 0.0581231 0)
(0.583212 0.0575621 0)
(0.596381 0.0610489 0)
(0.61789 0.0610763 0)
(0.621487 0.0614948 0)
(0.624145 0.0591121 0)
(0.623612 0.0561227 0)
(0.628275 0.0534031 0)
(3 9.80582e-17 0)
(3 6.86042e-17 0)
(3 9.76625e-17 0)
(3 1.70737e-16 0)
(3 3.09897e-16 0)
(3 6.18243e-16 0)
(3 6.61517e-16 0)
(3 3.06941e-16 0)
(3 -1.06765e-15 0)
(3 -8.50628e-16 0)
(3 7.528e-17 0)
(3 3.63413e-16 0)
(3 1.75955e-16 0)
(3 -4.74356e-16 0)
(3 -8.50044e-16 0)
(2.95406 0.00323045 0)
(0.941829 0.0496728 0)
(0.588615 0.0468683 0)
(0.599498 0.0499763 0)
(0.622905 0.0503532 0)
(0.627211 0.0510657 0)
(0.630947 0.048985 0)
(0.632369 0.0459817 0)
(0.638943 0.0437072 0)
(3 3.4989e-16 0)
(3 -5.2141e-17 0)
(3 -1.84331e-16 0)
(3 -4.38191e-16 0)
(3 -3.06599e-16 0)
(3 1.28007e-16 0)
(3 2.9909e-16 0)
(3 4.94139e-16 0)
(3 7.26777e-16 0)
(3 7.53507e-16 0)
(3 5.18233e-16 0)
(3 -7.4992e-17 0)
(3 -6.9702e-16 0)
(3 -1.16835e-15 0)
(3 -1.04904e-15 0)
(2.97255 0.00150071 0)
(0.959879 0.0406256 0)
(0.594465 0.0361412 0)
(0.599823 0.0392327 0)
(0.62183 0.0389482 0)
(0.626944 0.038586 0)
(0.631763 0.035783 0)
(0.6367 0.0340257 0)
(0.646113 0.0338901 0)
(3 5.08387e-18 0)
(3 1.44074e-16 0)
(3 -1.25184e-16 0)
(3 -5.52051e-16 0)
(3 -7.36912e-16 0)
(3 -2.99083e-16 0)
(3 -5.4781e-17 0)
(3 7.15681e-16 0)
(3 1.88798e-15 0)
(3 2.01058e-15 0)
(3 1.93268e-15 0)
(3 1.07811e-15 0)
(3 2.64082e-16 0)
(3 -1.09764e-16 0)
(3 -6.03672e-16 0)
(2.98616 0.000550533 0)
(0.975922 0.0312179 0)
(0.600815 0.0277591 0)
(0.599038 0.0281467 0)
(0.619086 0.0272561 0)
(0.624133 0.0254992 0)
(0.629102 0.0225242 0)
(0.63663 0.0220053 0)
(0.648319 0.0227338 0)
(3 -1.73648e-16 0)
(3 5.39147e-16 0)
(3 8.66334e-16 0)
(3 7.22589e-16 0)
(3 2.79355e-16 0)
(3 -2.3362e-17 0)
(3 2.45279e-17 0)
(3 4.53641e-16 0)
(3 1.22194e-15 0)
(3 1.21975e-15 0)
(3 1.17749e-15 0)
(3 9.0988e-17 0)
(3 -3.96821e-16 0)
(3 -1.35728e-15 0)
(3 -1.94545e-15 0)
(2.99439 5.77918e-05 0)
(0.98913 0.0188992 0)
(0.605231 0.0177569 0)
(0.599363 0.0169077 0)
(0.617457 0.0157673 0)
(0.621918 0.0139047 0)
(0.626742 0.0117579 0)
(0.634864 0.011999 0)
(0.647185 0.0129887 0)
(3 9.62423e-17 0)
(3 4.64096e-16 0)
(3 7.45708e-16 0)
(3 8.27958e-16 0)
(3 7.20937e-16 0)
(3 1.7975e-16 0)
(3 3.06037e-16 0)
(3 4.92327e-16 0)
(3 6.3492e-16 0)
(3 3.38124e-16 0)
(3 1.48494e-16 0)
(3 -6.5176e-16 0)
(3 -8.46088e-16 0)
(3 -1.48454e-15 0)
(3 -1.39024e-15 0)
(2.99668 1.67543e-06 0)
(0.993904 0.00447127 0)
(0.60403 0.00534777 0)
(0.596715 0.0053099 0)
(0.613815 0.00496486 0)
(0.618181 0.00448865 0)
(0.623469 0.00409308 0)
(0.632477 0.00433246 0)
(0.645693 0.00484861 0)
(0.513771 0.619326 0)
(0.049607 0.263993 0)
(-0.0328897 0.0466635 0)
(-0.0436364 0.00743257 0)
(-0.0506342 0.0057041 0)
(-0.0538412 -0.000718324 0)
(-0.0435234 -0.010514 0)
(-0.0243154 -0.0240595 0)
(0.604107 0.525213 0)
(0.316921 0.278614 0)
(0.184984 0.0778166 0)
(0.0506098 0.0316095 0)
(-0.0156904 0.0199613 0)
(-0.0372565 -0.00155802 0)
(-0.0235298 -0.0225779 0)
(-0.0123861 -0.0429427 0)
(0.674357 0.66092 0)
(0.494283 0.535687 0)
(0.332814 0.335564 0)
(0.15025 0.192838 0)
(0.0376638 0.0929723 0)
(0.0110021 0.00260955 0)
(-0.0025643 -0.0358232 0)
(-0.00499818 -0.056366 0)
(0.753304 0.715709 0)
(0.676216 0.640632 0)
(0.565031 0.478065 0)
(0.380049 0.311269 0)
(0.210121 0.170339 0)
(0.115666 0.0464119 0)
(0.0226801 -0.00667472 0)
(0.00916939 -0.0551492 0)
(0.803935 0.732417 0)
(0.774044 0.710941 0)
(0.715353 0.628445 0)
(0.568242 0.51076 0)
(0.387418 0.360629 0)
(0.231274 0.188262 0)
(0.0793299 0.0631553 0)
(0.0371299 -0.0325734 0)
(0.830117 0.741438 0)
(0.82281 0.743187 0)
(0.803973 0.708128 0)
(0.718087 0.639798 0)
(0.576397 0.523213 0)
(0.404832 0.352027 0)
(0.195386 0.197146 0)
(0.0907126 0.0482707 0)
(0.846472 0.742899 0)
(0.848198 0.7513 0)
(0.842792 0.742289 0)
(0.79592 0.719995 0)
(0.709164 0.655363 0)
(0.564219 0.53515 0)
(0.386534 0.351623 0)
(0.188306 0.217032 0)
(0.858157 0.745851 0)
(0.859577 0.754484 0)
(0.855389 0.751743 0)
(0.830509 0.745517 0)
(0.787039 0.711929 0)
(0.705036 0.639525 0)
(0.528827 0.566595 0)
(0.244446 0.593929 0)
(0.86695 0.744899 0)
(0.862563 0.737331 0)
(0.855724 0.71831 0)
(0.845331 0.700638 0)
(0.833483 0.691106 0)
(0.811362 0.686345 0)
(0.781807 0.724314 0)
(0.800601 0.879831 0)
(0.85954 0.697116 0)
(0.841766 0.650627 0)
(0.840587 0.61001 0)
(0.851049 0.596621 0)
(0.874535 0.613175 0)
(0.912079 0.651989 0)
(0.985947 0.709945 0)
(1.18902 0.782035 0)
(0.831535 0.570678 0)
(0.824999 0.528651 0)
(0.836982 0.510016 0)
(0.868259 0.520756 0)
(0.917776 0.549547 0)
(0.98928 0.599962 0)
(1.11386 0.653437 0)
(1.34055 0.679572 0)
(0.836134 0.47761 0)
(0.856045 0.489187 0)
(0.883163 0.500967 0)
(0.923553 0.515708 0)
(0.98136 0.541341 0)
(1.06515 0.57929 0)
(1.19708 0.615916 0)
(1.39736 0.622508 0)
(0.883132 0.451447 0)
(0.909147 0.46854 0)
(0.940628 0.488694 0)
(0.981275 0.50857 0)
(1.03642 0.52908 0)
(1.11644 0.551084 0)
(1.23576 0.571197 0)
(1.40198 0.565703 0)
(0.933669 0.449624 0)
(0.964263 0.472449 0)
(0.995413 0.491797 0)
(1.03443 0.508233 0)
(1.08609 0.52339 0)
(1.15965 0.537163 0)
(1.2632 0.542379 0)
(1.40026 0.529954 0)
(0.974708 0.460993 0)
(1.01168 0.471331 0)
(1.04709 0.485466 0)
(1.08543 0.496559 0)
(1.13137 0.504573 0)
(1.19543 0.508921 0)
(1.28217 0.508529 0)
(1.39271 0.495088 0)
(1.0076 0.478582 0)
(1.04592 0.481621 0)
(1.08977 0.480891 0)
(1.13274 0.482949 0)
(1.17541 0.486783 0)
(1.22962 0.487745 0)
(1.30041 0.482521 0)
(1.38832 0.465995 0)
(1.03152 0.491296 0)
(1.06991 0.483883 0)
(1.11835 0.47306 0)
(1.1688 0.464159 0)
(1.2121 0.460975 0)
(1.25837 0.458107 0)
(1.3167 0.450662 0)
(1.38815 0.435252 0)
(1.04702 0.479083 0)
(1.08954 0.475867 0)
(1.13998 0.463534 0)
(1.19402 0.452252 0)
(1.24039 0.446136 0)
(1.28437 0.441564 0)
(1.33464 0.430164 0)
(1.39334 0.411204 0)
(1.06418 0.456361 0)
(1.10841 0.458344 0)
(1.1587 0.460389 0)
(1.21171 0.452694 0)
(1.2594 0.440139 0)
(1.30233 0.429522 0)
(1.34816 0.416145 0)
(1.39948 0.397513 0)
(1.0692 0.423201 0)
(1.11916 0.438795 0)
(1.16857 0.447095 0)
(1.21893 0.444757 0)
(1.26686 0.436413 0)
(1.31171 0.423348 0)
(1.35668 0.406606 0)
(1.40347 0.383937 0)
(1.02206 0.392669 0)
(1.09601 0.416192 0)
(1.15909 0.424249 0)
(1.21451 0.427424 0)
(1.26501 0.420603 0)
(1.31255 0.408214 0)
(1.35841 0.392161 0)
(1.40318 0.371283 0)
(0.92089 0.304453 0)
(1.02957 0.345126 0)
(1.11643 0.377143 0)
(1.18973 0.388201 0)
(1.25173 0.389568 0)
(1.30683 0.384555 0)
(1.35392 0.371493 0)
(1.39608 0.354053 0)
(0.78104 0.219123 0)
(0.897762 0.27349 0)
(1.01451 0.3119 0)
(1.11795 0.336975 0)
(1.20446 0.351039 0)
(1.27833 0.348391 0)
(1.33604 0.339377 0)
(1.38119 0.329588 0)
(0.677755 0.139009 0)
(0.767455 0.182078 0)
(0.877719 0.226337 0)
(0.994032 0.264436 0)
(1.10389 0.291837 0)
(1.19811 0.309883 0)
(1.27375 0.317674 0)
(1.33564 0.310405 0)
(0.631854 0.0931057 0)
(0.683929 0.116085 0)
(0.764027 0.143044 0)
(0.863579 0.174547 0)
(0.97264 0.204935 0)
(1.07692 0.231322 0)
(1.16975 0.246608 0)
(1.24934 0.251137 0)
(0.629057 0.0635725 0)
(0.656366 0.0727935 0)
(0.705526 0.0902575 0)
(0.775144 0.111151 0)
(0.857824 0.135539 0)
(0.945573 0.164053 0)
(1.03402 0.18562 0)
(1.11816 0.198739 0)
(0.639533 0.0505529 0)
(0.660849 0.0504899 0)
(0.698044 0.0570134 0)
(0.745525 0.0733551 0)
(0.800533 0.0928902 0)
(0.860255 0.109558 0)
(0.923236 0.124008 0)
(0.989674 0.138939 0)
(0.651598 0.0420896 0)
(0.674453 0.0415652 0)
(0.710698 0.0431132 0)
(0.75304 0.0511145 0)
(0.794196 0.0602077 0)
(0.827941 0.0718888 0)
(0.864666 0.081639 0)
(0.908018 0.0903578 0)
(0.661273 0.0326485 0)
(0.688841 0.0322783 0)
(0.727649 0.0349453 0)
(0.769451 0.0384891 0)
(0.80568 0.0429651 0)
(0.832297 0.0505003 0)
(0.854691 0.0557967 0)
(0.879619 0.0618378 0)
(0.667446 0.0239836 0)
(0.699696 0.0255861 0)
(0.742004 0.0274728 0)
(0.786579 0.0302069 0)
(0.823243 0.0359104 0)
(0.846471 0.0397695 0)
(0.863745 0.0420063 0)
(0.882873 0.0441742 0)
(0.66825 0.0144978 0)
(0.704357 0.0161193 0)
(0.750113 0.0180379 0)
(0.797422 0.0204339 0)
(0.836723 0.0242654 0)
(0.859347 0.0268626 0)
(0.875364 0.0291076 0)
(0.8891 0.0302954 0)
(0.668274 0.00566851 0)
(0.706457 0.00657386 0)
(0.754341 0.00779114 0)
(0.803557 0.0092012 0)
(0.843392 0.0103137 0)
(0.864909 0.0108763 0)
(0.879696 0.0112863 0)
(0.890488 0.0109971 0)
(1.70204 0.895847 0)
(2.23131 0.783065 0)
(2.50732 0.541418 0)
(2.43421 0.154711 0)
(2.40368 -0.0419781 0)
(2.27834 -0.224396 0)
(2.24935 -0.335081 0)
(2.3031 -0.311771 0)
(2.2732 -0.329613 0)
(2.20174 -0.322452 0)
(2.09534 -0.258194 0)
(1.96592 -0.184037 0)
(1.87731 -0.129234 0)
(1.78426 -0.0649826 0)
(1.6413 -0.00859334 0)
(1.54042 0.0027297 0)
(1.43281 0.00943738 0)
(1.43034 0.00930376 0)
(1.44968 0.00538545 0)
(1.46727 0.00171003 0)
(1.47492 -0.000336458 0)
(1.48099 -0.0030013 0)
(1.4911 -0.00404108 0)
(1.50456 -0.0036128 0)
(1.52075 -0.00251217 0)
(1.53595 -0.00124285 0)
(1.54442 0.00101586 0)
(1.54725 0.0045111 0)
(1.55897 0.00710026 0)
(1.57831 0.00809511 0)
(1.60266 0.00854707 0)
(1.63598 0.00751677 0)
(1.67062 0.00510596 0)
(1.69773 0.00281565 0)
(1.72238 0.00153746 0)
(1.74654 0.000852568 0)
(1.76833 0.000848364 0)
(1.78685 0.00229288 0)
(1.80332 0.00538274 0)
(1.81995 0.0087641 0)
(1.83943 0.0112615 0)
(1.86284 0.0122915 0)
(1.88744 0.0125786 0)
(1.91462 0.0124898 0)
(1.94866 0.0115919 0)
(1.99105 0.00903161 0)
(2.02952 0.00402215 0)
(2.05955 -0.00208472 0)
(2.08861 -0.00580279 0)
(2.11531 -0.00766209 0)
(2.12141 -0.00209641 0)
(2.09696 0.00829906 0)
(2.09625 0.0147727 0)
(2.11753 0.0156958 0)
(2.14278 0.0157347 0)
(2.16944 0.0156528 0)
(2.19997 0.015223 0)
(2.23297 0.014474 0)
(2.26276 0.0136057 0)
(2.29028 0.0125675 0)
(2.31673 0.0111431 0)
(2.34227 0.00995153 0)
(2.3676 0.0093267 0)
(2.38855 0.00724403 0)
(2.3907 0.00722934 0)
(2.36811 0.0117603 0)
(2.3668 0.0142848 0)
(2.38699 0.0141096 0)
(2.41083 0.0138577 0)
(2.43561 0.0137767 0)
(2.46189 0.0137078 0)
(2.49151 0.0138724 0)
(2.52066 0.0140647 0)
(2.54606 0.0140005 0)
(2.56969 0.0138662 0)
(2.59252 0.013823 0)
(2.61236 0.0124896 0)
(2.61599 0.0112181 0)
(2.59832 0.0123676 0)
(2.59963 0.0136138 0)
(2.61841 0.0135283 0)
(2.63934 0.0133565 0)
(2.66068 0.0132502 0)
(2.68162 0.0135443 0)
(2.70064 0.0144195 0)
(2.71799 0.015593 0)
(2.73292 0.0173197 0)
(2.75438 0.0177355 0)
(1.79266 0.663805 0)
(2.17011 0.303685 0)
(2.38688 -0.0628238 0)
(2.4589 -0.320088 0)
(2.42047 -0.481794 0)
(2.42456 -0.580255 0)
(2.44252 -0.574777 0)
(2.41789 -0.524582 0)
(2.3708 -0.443568 0)
(2.29038 -0.423493 0)
(2.18473 -0.339177 0)
(2.08046 -0.214718 0)
(1.99683 -0.0986815 0)
(1.90107 -0.00711734 0)
(1.7082 0.0536295 0)
(1.56144 0.0455451 0)
(1.45102 0.0104504 0)
(1.45721 0.00157267 0)
(1.47496 0.000635683 0)
(1.48609 0.00856083 0)
(1.49187 0.00801685 0)
(1.49624 9.81426e-05 0)
(1.50642 -0.0114706 0)
(1.52082 -0.0183744 0)
(1.53768 -0.0208102 0)
(1.55414 -0.022468 0)
(1.56613 -0.0206562 0)
(1.57164 -0.0117472 0)
(1.58215 -0.000917708 0)
(1.60128 0.00866616 0)
(1.62535 0.0185512 0)
(1.65372 0.0255007 0)
(1.68165 0.0248847 0)
(1.70628 0.0185474 0)
(1.73119 0.00957699 0)
(1.75526 0.00153637 0)
(1.77773 -0.00343659 0)
(1.79877 -0.00490988 0)
(1.81807 -0.00140343 0)
(1.83647 0.00618794 0)
(1.85596 0.0156642 0)
(1.87761 0.0247987 0)
(1.90216 0.0306938 0)
(1.92827 0.0352781 0)
(1.95852 0.0389422 0)
(1.99585 0.0366869 0)
(2.03058 0.0267855 0)
(2.05948 0.0168418 0)
(2.0863 0.00619755 0)
(2.10772 -0.0090298 0)
(2.11752 -0.0248076 0)
(2.11514 -0.0161889 0)
(2.11377 0.00807805 0)
(2.12962 0.0224522 0)
(2.1548 0.0280805 0)
(2.18085 0.0322321 0)
(2.20926 0.0371596 0)
(2.23925 0.0414972 0)
(2.26593 0.0432285 0)
(2.2912 0.0430786 0)
(2.31638 0.0410872 0)
(2.3406 0.0363993 0)
(2.36217 0.0277747 0)
(2.37759 0.0143778 0)
(2.38465 -0.000243833 0)
(2.38217 0.000545356 0)
(2.38251 0.0166892 0)
(2.39737 0.0272568 0)
(2.41964 0.031437 0)
(2.44307 0.034103 0)
(2.46712 0.0371801 0)
(2.49334 0.0414283 0)
(2.51781 0.0442485 0)
(2.5416 0.0444557 0)
(2.56557 0.0423006 0)
(2.58793 0.036978 0)
(2.60732 0.0278124 0)
(2.61916 0.017788 0)
(2.61714 0.0197286 0)
(2.61323 0.0328186 0)
(2.62295 0.0405747 0)
(2.6409 0.0422149 0)
(2.66243 0.0411279 0)
(2.68563 0.0381503 0)
(2.70689 0.0350387 0)
(2.7253 0.0307101 0)
(2.7409 0.0267123 0)
(2.76636 0.0260232 0)
(1.73007 0.601977 0)
(2.00833 0.429112 0)
(2.22142 0.167143 0)
(2.34835 -0.0449304 0)
(2.40726 -0.142182 0)
(2.42568 -0.29231 0)
(2.44357 -0.457042 0)
(2.4734 -0.572264 0)
(2.46141 -0.651322 0)
(2.42768 -0.680472 0)
(2.35505 -0.651126 0)
(2.30258 -0.5737 0)
(2.2669 -0.464313 0)
(2.23191 -0.355883 0)
(1.99914 -0.133027 0)
(1.68091 -0.00768013 0)
(1.52649 0.0536481 0)
(1.52012 0.038238 0)
(1.52667 0.0241742 0)
(1.53115 0.0206293 0)
(1.52992 0.0235873 0)
(1.53278 0.0219945 0)