/*--------------------------------*- C++ -*----------------------------------*\
  =========                 |
  \\      /  F ield         | OpenFOAM: The Open Source CFD Toolbox
   \\    /   O peration     | Website:  https://openfoam.org
    \\  /    A nd           | Version:  7
     \\/     M anipulation  |
\*---------------------------------------------------------------------------*/
FoamFile
{
    version     2.0;
    format      ascii;
    class       volVectorField;
    location    "3.7";
    object      U;
}
// * * * * * * * * * * * * * * * * * * * * * * * * * * * * * * * * * * * * * //

dimensions      [0 1 -1 0 0 0 0];

internalField   nonuniform List<vector> 
16192
(
(-0.453633 0.0213885 0)
(-0.539696 0.0215233 0)
(-0.634069 0.0213977 0)
(-0.73464 0.0204026 0)
(-0.838729 0.0185538 0)
(-0.941995 0.016066 0)
(-1.0395 0.0130837 0)
(-1.13047 0.0100149 0)
(-1.21358 0.00720896 0)
(-1.29047 0.00518347 0)
(-1.33944 0.00342019 0)
(-1.35641 0.000836428 0)
(-1.33466 -0.00436476 0)
(-1.27111 -0.0126387 0)
(-1.181 -0.0232412 0)
(-1.05656 -0.0325964 0)
(-0.906525 -0.0362797 0)
(-0.723287 -0.0446535 0)
(-0.531359 -0.0488723 0)
(-0.318583 -0.0589929 0)
(-0.0933219 -0.0550697 0)
(-0.430163 0.0557228 0)
(-0.51919 0.0608816 0)
(-0.616562 0.0632081 0)
(-0.719403 0.061953 0)
(-0.825153 0.0576129 0)
(-0.9297 0.0509779 0)
(-1.02824 0.0424837 0)
(-1.11998 0.0331796 0)
(-1.2034 0.0239871 0)
(-1.28024 0.0166816 0)
(-1.32908 0.0116299 0)
(-1.34727 0.0083677 0)
(-1.32379 -0.00143976 0)
(-1.25573 -0.0115371 0)
(-1.15902 -0.0266762 0)
(-1.02587 -0.0530627 0)
(-0.876646 -0.0811517 0)
(-0.701746 -0.114424 0)
(-0.516491 -0.13169 0)
(-0.316103 -0.161109 0)
(-0.094754 -0.15666 0)
(-0.412397 0.0985796 0)
(-0.497839 0.105567 0)
(-0.592479 0.107874 0)
(-0.693713 0.104669 0)
(-0.798536 0.0965178 0)
(-0.902795 0.0845649 0)
(-1.0016 0.0698648 0)
(-1.09364 0.0535105 0)
(-1.17712 0.0370218 0)
(-1.25396 0.0237043 0)
(-1.30296 0.0125812 0)
(-1.32334 0.00253778 0)
(-1.3007 -0.0157062 0)
(-1.23878 -0.0384102 0)
(-1.14546 -0.06673 0)
(-1.01655 -0.106574 0)
(-0.864237 -0.143039 0)
(-0.693933 -0.192618 0)
(-0.505607 -0.218819 0)
(-0.313057 -0.264116 0)
(-0.0942397 -0.262255 0)
(-0.37328 0.131488 0)
(-0.456084 0.142985 0)
(-0.549302 0.147582 0)
(-0.649999 0.144204 0)
(-0.754727 0.133831 0)
(-0.859121 0.118015 0)
(-0.95805 0.0982298 0)
(-1.05003 0.0768736 0)
(-1.13273 0.0561672 0)
(-1.20813 0.0401613 0)
(-1.25549 0.0277696 0)
(-1.27752 0.0173992 0)
(-1.25235 -0.00647949 0)
(-1.19299 -0.0379609 0)
(-1.09698 -0.0810182 0)
(-0.973685 -0.142098 0)
(-0.823364 -0.19639 0)
(-0.664477 -0.266435 0)
(-0.47679 -0.30349 0)
(-0.296716 -0.361577 0)
(-0.0887573 -0.36552 0)
(-0.328779 0.170517 0)
(-0.407828 0.186542 0)
(-0.497441 0.193252 0)
(-0.594682 0.18922 0)
(-0.69587 0.175514 0)
(-0.79682 0.154074 0)
(-0.892999 0.127514 0)
(-0.982497 0.0984138 0)
(-1.06254 0.0692761 0)
(-1.13577 0.0449816 0)
(-1.18096 0.0231975 0)
(-1.20617 0.00472319 0)
(-1.18128 -0.0280663 0)
(-1.13076 -0.0681244 0)
(-1.03367 -0.115767 0)
(-0.9236 -0.189276 0)
(-0.771416 -0.252431 0)
(-0.628879 -0.340965 0)
(-0.445841 -0.390028 0)
(-0.277237 -0.455404 0)
(-0.0820012 -0.465828 0)
(-0.267174 0.198054 0)
(-0.340181 0.217829 0)
(-0.424447 0.227253 0)
(-0.516862 0.22377 0)
(-0.613318 0.208027 0)
(-0.71009 0.18316 0)
(-0.8028 0.152488 0)
(-0.889495 0.120288 0)
(-0.967138 0.0897313 0)
(-1.03804 0.0651933 0)
(-1.08087 0.0423612 0)
(-1.1103 0.0217413 0)
(-1.08504 -0.0192379 0)
(-1.04753 -0.0731134 0)
(-0.953706 -0.138607 0)
(-0.860885 -0.230916 0)
(-0.709896 -0.308721 0)
(-0.578658 -0.41032 0)
(-0.409012 -0.475847 0)
(-0.253961 -0.546479 0)
(-0.0739953 -0.563139 0)
(-0.199868 0.232805 0)
(-0.265649 0.258359 0)
(-0.342468 0.271693 0)
(-0.42717 0.269427 0)
(-0.515835 0.252632 0)
(-0.605042 0.223823 0)
(-0.691263 0.187266 0)
(-0.772689 0.147461 0)
(-0.846705 0.108301 0)
(-0.91493 0.0738371 0)
(-0.956549 0.0402614 0)
(-0.992303 0.0108542 0)
(-0.969315 -0.0373709 0)
(-0.949395 -0.0973729 0)
(-0.860174 -0.168867 0)
(-0.785183 -0.274465 0)
(-0.642626 -0.368335 0)
(-0.520741 -0.478737 0)
(-0.366983 -0.55815 0)
(-0.228203 -0.633673 0)
(-0.0653955 -0.655882 0)
(-0.119856 0.253101 0)
(-0.175032 0.281213 0)
(-0.241414 0.296497 0)
(-0.316068 0.294534 0)
(-0.395266 0.276247 0)
(-0.476159 0.244972 0)
(-0.555695 0.205686 0)
(-0.632287 0.164389 0)
(-0.704033 0.125528 0)
(-0.770525 0.0913513 0)
(-0.814245 0.057541 0)
(-0.855431 0.0262983 0)
(-0.834529 -0.0269194 0)
(-0.83083 -0.0990359 0)
(-0.74987 -0.189597 0)
(-0.690205 -0.308782 0)
(-0.56571 -0.423305 0)
(-0.457211 -0.543006 0)
(-0.320989 -0.634834 0)
(-0.20055 -0.714776 0)
(-0.0564917 -0.741918 0)
(-0.0366228 0.281451 0)
(-0.0802226 0.316254 0)
(-0.134793 0.336517 0)
(-0.197706 0.338123 0)
(-0.265627 0.3216 0)
(-0.336378 0.289642 0)
(-0.407537 0.247287 0)
(-0.477564 0.200913 0)
(-0.545506 0.155817 0)
(-0.608381 0.112608 0)
(-0.655132 0.0686626 0)
(-0.700267 0.0228982 0)
(-0.684795 -0.0392181 0)
(-0.69416 -0.118947 0)
(-0.627801 -0.21779 0)
(-0.581201 -0.344961 0)
(-0.480039 -0.475362 0)
(-0.391055 -0.603726 0)
(-0.271954 -0.705153 0)
(-0.171971 -0.788802 0)
(-0.0476992 -0.820306 0)
(0.0530083 0.288281 0)
(0.0239999 0.326542 0)
(-0.0163632 0.349731 0)
(-0.0654032 0.352443 0)
(-0.120148 0.33593 0)
(-0.180029 0.303189 0)
(-0.242929 0.259962 0)
(-0.307207 0.213756 0)
(-0.37202 0.169215 0)
(-0.432216 0.126196 0)
(-0.484118 0.0837331 0)
(-0.52909 0.0364128 0)
(-0.528193 -0.0255524 0)
(-0.54094 -0.111653 0)
(-0.497155 -0.227753 0)
(-0.461523 -0.36467 0)
(-0.384023 -0.512615 0)
(-0.321491 -0.654729 0)
(-0.220543 -0.767767 0)
(-0.143231 -0.854868 0)
(-0.0392894 -0.890616 0)
(0.140071 0.305196 0)
(0.126477 0.350907 0)
(0.101039 0.381012 0)
(0.066969 0.389096 0)
(0.0266356 0.376796 0)
(-0.0219376 0.347089 0)
(-0.0757985 0.304477 0)
(-0.133509 0.256517 0)
(-0.193566 0.208534 0)
(-0.250019 0.159319 0)
(-0.304733 0.109404 0)
(-0.345183 0.0449752 0)
(-0.366991 -0.028764 0)
(-0.377272 -0.126844 0)
(-0.363758 -0.25366 0)
(-0.342021 -0.396788 0)
(-0.286101 -0.551813 0)
(-0.252654 -0.70028 0)
(-0.168291 -0.821389 0)
(-0.115304 -0.910753 0)
(-0.0311043 -0.950483 0)
(0.224578 0.300056 0)
(0.226938 0.348461 0)
(0.218418 0.379764 0)
(0.201755 0.391323 0)
(0.178441 0.382273 0)
(0.143184 0.354911 0)
(0.0996309 0.313497 0)
(0.048293 0.267512 0)
(-0.00643647 0.219874 0)
(-0.0610349 0.172444 0)
(-0.116908 0.121628 0)
(-0.159109 0.0608741 0)
(-0.201846 -0.00730796 0)
(-0.213335 -0.105994 0)
(-0.226002 -0.238509 0)
(-0.221714 -0.392076 0)
(-0.18421 -0.561049 0)
(-0.181687 -0.725189 0)
(-0.115529 -0.862148 0)
(-0.0894422 -0.956444 0)
(-0.0232405 -1.00027 0)
(0.308781 0.314337 0)
(0.320187 0.3633 0)
(0.327313 0.39827 0)
(0.326729 0.416404 0)
(0.320474 0.414544 0)
(0.299361 0.394567 0)
(0.267383 0.357846 0)
(0.223809 0.313586 0)
(0.176767 0.263896 0)
(0.124792 0.213749 0)
(0.0705727 0.159288 0)
(0.0251186 0.087509 0)
(-0.029167 0.00397104 0)
(-0.0505639 -0.111628 0)
(-0.0852212 -0.252064 0)
(-0.1052 -0.415009 0)
(-0.0874186 -0.587325 0)
(-0.114386 -0.747193 0)
(-0.0652617 -0.88857 0)
(-0.0651893 -0.986302 0)
(-0.0137562 -1.03327 0)
(0.406224 0.307277 0)
(0.408927 0.350995 0)
(0.42662 0.385396 0)
(0.440702 0.405694 0)
(0.45142 0.411886 0)
(0.44892 0.397445 0)
(0.433116 0.364204 0)
(0.400144 0.323587 0)
(0.362277 0.274805 0)
(0.311841 0.229343 0)
(0.262599 0.171689 0)
(0.207063 0.110799 0)
(0.145873 0.0351372 0)
(0.103744 -0.071258 0)
(0.053186 -0.211721 0)
(0.00777875 -0.376973 0)
(0.00882858 -0.561517 0)
(-0.0453584 -0.737774 0)
(-0.018345 -0.903543 0)
(-0.046609 -1.01206 0)
(-0.00565609 -1.06014 0)
(0.527139 0.340664 0)
(0.503141 0.367278 0)
(0.519885 0.398931 0)
(0.543003 0.417794 0)
(0.564755 0.42717 0)
(0.578121 0.421924 0)
(0.579501 0.397809 0)
(0.56016 0.363674 0)
(0.533931 0.317087 0)
(0.488261 0.272544 0)
(0.445281 0.212544 0)
(0.382125 0.149607 0)
(0.323241 0.0598736 0)
(0.261401 -0.0582241 0)
(0.197496 -0.207628 0)
(0.126271 -0.37667 0)
(0.104003 -0.561827 0)
(0.0209225 -0.724035 0)
(0.0251961 -0.890717 0)
(-0.0245619 -1.00639 0)
(0.00736065 -1.06218 0)
(0.704605 0.368338 0)
(0.625627 0.354955 0)
(0.613416 0.380665 0)
(0.634611 0.404714 0)
(0.662097 0.415473 0)
(0.688992 0.414696 0)
(0.707625 0.397222 0)
(0.705683 0.369222 0)
(0.694504 0.326691 0)
(0.657306 0.286567 0)
(0.621502 0.227227 0)
(0.553951 0.173078 0)
(0.495543 0.0899376 0)
(0.408865 -0.0114012 0)
(0.33121 -0.155177 0)
(0.233719 -0.320255 0)
(0.188897 -0.512868 0)
(0.0814598 -0.684544 0)
(0.0663422 -0.872389 0)
(-0.0044749 -0.997716 0)
(0.0175165 -1.05808 0)
(0.908732 0.47708 0)
(0.767032 0.429445 0)
(0.719321 0.410282 0)
(0.725407 0.416849 0)
(0.75036 0.422631 0)
(0.78266 0.424962 0)
(0.811539 0.414204 0)
(0.823861 0.394932 0)
(0.827441 0.359735 0)
(0.802108 0.325047 0)
(0.774589 0.268916 0)
(0.707293 0.217935 0)
(0.652789 0.13124 0)
(0.55128 0.0255956 0)
(0.465363 -0.126799 0)
(0.345923 -0.291795 0)
(0.276239 -0.482493 0)
(0.142958 -0.640984 0)
(0.102248 -0.831675 0)
(0.0126105 -0.968765 0)
(0.0277237 -1.04008 0)
(1.14265 0.569585 0)
(0.97579 0.471297 0)
(0.877883 0.413136 0)
(0.837613 0.406263 0)
(0.839496 0.410417 0)
(0.864418 0.412974 0)
(0.897325 0.404754 0)
(0.920635 0.391076 0)
(0.937879 0.362022 0)
(0.92655 0.333284 0)
(0.908837 0.282727 0)
(0.847307 0.238686 0)
(0.795007 0.157613 0)
(0.680093 0.0676232 0)
(0.579668 -0.071915 0)
(0.435851 -0.221618 0)
(0.34231 -0.411093 0)
(0.191058 -0.574928 0)
(0.136696 -0.783264 0)
(0.0316408 -0.934484 0)
(0.0373564 -1.01476 0)
(1.34658 0.668768 0)
(1.19123 0.579979 0)
(1.05462 0.50691 0)
(0.964571 0.467915 0)
(0.940047 0.437812 0)
(0.946419 0.430528 0)
(0.974511 0.416183 0)
(0.999723 0.405329 0)
(1.02368 0.380862 0)
(1.02216 0.359492 0)
(1.013 0.3155 0)
(0.958626 0.279612 0)
(0.90788 0.202779 0)
(0.786558 0.118823 0)
(0.680045 -0.019739 0)
(0.527653 -0.169138 0)
(0.416385 -0.357598 0)
(0.245716 -0.51154 0)
(0.166728 -0.72207 0)
(0.0434669 -0.886078 0)
(0.0429301 -0.979967 0)
(1.49608 0.741147 0)
(1.39105 0.663622 0)
(1.26747 0.569596 0)
(1.15155 0.494286 0)
(1.08789 0.442973 0)
(1.055 0.426862 0)
(1.06041 0.407379 0)
(1.07515 0.399184 0)
(1.09832 0.376013 0)
(1.10217 0.360298 0)
(1.09923 0.322816 0)
(1.05395 0.294341 0)
(1.00329 0.226369 0)
(0.879769 0.154474 0)
(0.765154 0.0290561 0)
(0.598328 -0.0999578 0)
(0.461277 -0.273902 0)
(0.277885 -0.428417 0)
(0.1923 -0.653347 0)
(0.0590772 -0.83421 0)
(0.0530792 -0.94174 0)
(1.58945 0.782182 0)
(1.53642 0.729958 0)
(1.45321 0.655619 0)
(1.34353 0.58636 0)
(1.25134 0.523389 0)
(1.18276 0.482043 0)
(1.16023 0.442536 0)
(1.15423 0.425437 0)
(1.16929 0.395156 0)
(1.17057 0.38151 0)
(1.16825 0.34708 0)
(1.12772 0.326156 0)
(1.07303 0.266842 0)
(0.947754 0.205639 0)
(0.82564 0.0908405 0)
(0.653286 -0.0282093 0)
(0.519041 -0.204411 0)
(0.328258 -0.355377 0)
(0.221684 -0.581382 0)
(0.0697791 -0.773065 0)
(0.0573044 -0.896542 0)
(1.6377 0.805063 0)
(1.62747 0.769704 0)
(1.59311 0.714083 0)
(1.52151 0.651558 0)
(1.44045 0.573928 0)
(1.35676 0.511864 0)
(1.30511 0.455831 0)
(1.26859 0.428803 0)
(1.2606 0.393885 0)
(1.24958 0.382547 0)
(1.24126 0.350068 0)
(1.20119 0.336152 0)
(1.14095 0.286741 0)
(1.01533 0.237657 0)
(0.886162 0.137784 0)
(0.712306 0.0315956 0)
(0.562519 -0.127913 0)
(0.349832 -0.264091 0)
(0.238129 -0.49936 0)
(0.0803036 -0.709889 0)
(0.0674051 -0.849123 0)
(1.65479 0.81621 0)
(1.67397 0.791781 0)
(1.67803 0.751732 0)
(1.64873 0.706675 0)
(1.60177 0.641148 0)
(1.52839 0.58512 0)
(1.46365 0.525104 0)
(1.40227 0.487535 0)
(1.37074 0.438151 0)
(1.34061 0.418496 0)
(1.31972 0.38138 0)
(1.27365 0.369707 0)
(1.20292 0.325693 0)
(1.07094 0.288217 0)
(0.932161 0.199013 0)
(0.749923 0.107222 0)
(0.592521 -0.0424987 0)
(0.388916 -0.181249 0)
(0.274015 -0.423271 0)
(0.0949212 -0.640683 0)
(0.0742963 -0.796301 0)
(1.65998 0.815171 0)
(1.6897 0.801824 0)
(1.71903 0.77495 0)
(1.72747 0.738844 0)
(1.7168 0.688728 0)
(1.67527 0.639918 0)
(1.62933 0.571597 0)
(1.56616 0.520085 0)
(1.51897 0.460699 0)
(1.4693 0.43324 0)
(1.43058 0.390844 0)
(1.37287 0.381932 0)
(1.28814 0.345322 0)
(1.14862 0.320767 0)
(0.997767 0.247831 0)
(0.808081 0.169146 0)
(0.648374 0.0264778 0)
(0.437448 -0.0994676 0)
(0.297467 -0.33482 0)
(0.104437 -0.565749 0)
(0.0852918 -0.739942 0)
(1.65476 0.813718 0)
(1.69385 0.800708 0)
(1.73427 0.781184 0)
(1.76101 0.760504 0)
(1.78324 0.721072 0)
(1.77805 0.676889 0)
(1.75988 0.620503 0)
(1.71256 0.580582 0)
(1.66998 0.520399 0)
(1.61178 0.488537 0)
(1.56072 0.440258 0)
(1.4908 0.430615 0)
(1.39128 0.392924 0)
(1.24041 0.376394 0)
(1.07126 0.315726 0)
(0.869279 0.24546 0)
(0.698661 0.109693 0)
(0.473351 -0.00508355 0)
(0.338491 -0.247049 0)
(0.12964 -0.486675 0)
(0.101468 -0.679257 0)
(1.64744 0.808431 0)
(1.68824 0.799057 0)
(1.73368 0.7841 0)
(1.77425 0.763847 0)
(1.81162 0.736133 0)
(1.83018 0.70631 0)
(1.84408 0.658425 0)
(1.82892 0.617604 0)
(1.80689 0.560052 0)
(1.7579 0.524766 0)
(1.71108 0.469971 0)
(1.64109 0.453844 0)
(1.53103 0.416476 0)
(1.37191 0.412887 0)
(1.18502 0.368316 0)
(0.966377 0.310453 0)
(0.779596 0.187391 0)
(0.545966 0.0768575 0)
(0.395128 -0.15832 0)
(0.156084 -0.395556 0)
(0.11882 -0.609713 0)
(1.63879 0.804484 0)
(1.67807 0.795914 0)
(1.72848 0.781941 0)
(1.77153 0.766055 0)
(1.81764 0.744258 0)
(1.85309 0.718658 0)
(1.88825 0.677214 0)
(1.89652 0.648908 0)
(1.90181 0.602066 0)
(1.8752 0.567254 0)
(1.84573 0.513488 0)
(1.78856 0.502446 0)
(1.6831 0.465108 0)
(1.52588 0.471726 0)
(1.32307 0.445303 0)
(1.08557 0.393879 0)
(0.881256 0.277542 0)
(0.631347 0.174875 0)
(0.46416 -0.0576838 0)
(0.197218 -0.294512 0)
(0.149433 -0.532648 0)
(1.63161 0.801248 0)
(1.67045 0.791993 0)
(1.71593 0.779965 0)
(1.76153 0.765556 0)
(1.81458 0.745506 0)
(1.85642 0.724356 0)
(1.90018 0.693086 0)
(1.92877 0.664114 0)
(1.9573 0.625875 0)
(1.9535 0.5963 0)
(1.94718 0.547157 0)
(1.91438 0.530007 0)
(1.83318 0.495332 0)
(1.69546 0.505364 0)
(1.49529 0.498001 0)
(1.24259 0.463794 0)
(1.02042 0.363135 0)
(0.757736 0.264387 0)
(0.56461 0.0455046 0)
(0.259532 -0.179516 0)
(0.186835 -0.438657 0)
(1.62611 0.798282 0)
(1.66319 0.789613 0)
(1.70527 0.778058 0)
(1.75265 0.763029 0)
(1.80362 0.745195 0)
(1.84428 0.73102 0)
(1.89941 0.700671 0)
(1.93887 0.669954 0)
(1.9769 0.641788 0)
(1.99233 0.618954 0)
(2.00957 0.571791 0)
(1.99967 0.553057 0)
(1.95128 0.52349 0)
(1.84491 0.54187 0)
(1.66657 0.562756 0)
(1.41463 0.541836 0)
(1.18037 0.458874 0)
(0.906862 0.370733 0)
(0.683147 0.17204 0)
(0.348605 -0.0455547 0)
(0.244825 -0.324517 0)
(1.62256 0.795991 0)
(1.65737 0.787005 0)
(1.69747 0.776141 0)
(1.74097 0.761714 0)
(1.78834 0.745585 0)
(1.83632 0.727772 0)
(1.88591 0.706766 0)
(1.93077 0.6793 0)
(1.97904 0.648354 0)
(2.00815 0.626945 0)
(2.03542 0.59432 0)
(2.04548 0.569565 0)
(2.03317 0.541238 0)
(1.95559 0.552913 0)
(1.82107 0.587486 0)
(1.58268 0.608168 0)
(1.35563 0.542006 0)
(1.08753 0.4591 0)
(0.841969 0.292013 0)
(0.497034 0.0927101 0)
(0.309622 -0.163163 0)
(1.62062 0.794353 0)
(1.65293 0.78474 0)
(1.69043 0.774658 0)
(1.73124 0.761411 0)
(1.77897 0.74395 0)
(1.82161 0.728147 0)
(1.86938 0.709595 0)
(1.92125 0.684007 0)
(1.97139 0.652228 0)
(2.00268 0.637961 0)
(2.04367 0.605744 0)
(2.06265 0.58014 0)
(2.077 0.552776 0)
(2.02365 0.564547 0)
(1.93696 0.60712 0)
(1.73852 0.64064 0)
(1.51517 0.619165 0)
(1.25759 0.563836 0)
(1.01078 0.419431 0)
(0.671144 0.253983 0)
(0.451339 0.0361369 0)
(1.61998 0.79351 0)
(1.65031 0.783272 0)
(1.6852 0.772901 0)
(1.72428 0.760667 0)
(1.7675 0.744769 0)
(1.81139 0.726761 0)
(1.85518 0.710442 0)
(1.90083 0.689319 0)
(1.95204 0.65974 0)
(1.99591 0.634136 0)
(2.02929 0.618463 0)
(2.05867 0.590604 0)
(2.09196 0.562718 0)
(2.06598 0.566264 0)
(2.0064 0.592972 0)
(1.85629 0.671041 0)
(1.66028 0.665135 0)
(1.4231 0.624647 0)
(1.17959 0.527197 0)
(0.895912 0.346569 0)
(0.562353 0.365908 0)
(1.6198 0.793045 0)
(1.64951 0.782663 0)
(1.68204 0.77157 0)
(1.7183 0.760217 0)
(1.75948 0.745269 0)
(1.80311 0.726585 0)
(1.84319 0.711202 0)
(1.88678 0.692512 0)
(1.93801 0.665312 0)
(1.97941 0.639095 0)
(2.01475 0.621593 0)
(2.05095 0.595595 0)
(2.09563 0.56345 0)
(2.08446 0.564365 0)
(2.04518 0.584143 0)
(1.93397 0.644734 0)
(1.76163 0.712787 0)
(1.53698 0.701653 0)
(1.32352 0.616618 0)
(1.07293 0.502362 0)
(0.900622 0.649548 0)
(1.61871 0.792369 0)
(1.64944 0.782334 0)
(1.68036 0.77122 0)
(1.71452 0.759511 0)
(1.75328 0.745693 0)
(1.7944 0.728212 0)
(1.83467 0.710372 0)
(1.8744 0.694171 0)
(1.91837 0.670854 0)
(1.96489 0.640563 0)
(2.00065 0.621163 0)
(2.03326 0.602403 0)
(2.07736 0.571631 0)
(2.08528 0.564589 0)
(2.06861 0.574875 0)
(1.96739 0.627736 0)
(1.84483 0.702276 0)
(1.63312 0.723307 0)
(1.43686 0.67458 0)
(1.26365 0.612441 0)
(1.15514 0.604633 0)
(1.61584 0.791633 0)
(1.64783 0.782604 0)
(1.67904 0.771716 0)
(1.71242 0.759521 0)
(1.74792 0.746739 0)
(1.78724 0.730297 0)
(1.82749 0.710434 0)
(1.86354 0.695436 0)
(1.90639 0.674905 0)
(1.95101 0.646023 0)
(1.98659 0.622996 0)
(2.01572 0.607274 0)
(2.06251 0.577359 0)
(2.08351 0.563067 0)
(2.07716 0.567326 0)
(2.00688 0.606921 0)
(1.87513 0.677123 0)
(1.69199 0.753528 0)
(1.50937 0.720594 0)
(1.40413 0.683966 0)
(1.32648 0.6578 0)
(1.61191 0.790665 0)
(1.64459 0.782625 0)
(1.677 0.772404 0)
(1.71028 0.760591 0)
(1.74435 0.747826 0)
(1.78187 0.732352 0)
(1.82041 0.712509 0)
(1.85658 0.694746 0)
(1.89375 0.67792 0)
(1.93672 0.652906 0)
(1.9761 0.6241 0)
(2.00497 0.607716 0)
(2.04128 0.585098 0)
(2.07394 0.56399 0)
(2.07408 0.563843 0)
(2.03758 0.587994 0)
(1.89745 0.66363 0)
(1.74023 0.741281 0)
(1.55694 0.741492 0)
(1.4777 0.728382 0)
(1.44613 0.691748 0)
(1.60827 0.789225 0)
(1.64011 0.782221 0)
(1.67306 0.773348 0)
(1.70747 0.761706 0)
(1.74148 0.748864 0)
(1.77604 0.735089 0)
(1.81402 0.715815 0)
(1.85043 0.695822 0)
(1.88481 0.679822 0)
(1.92492 0.659013 0)
(1.96465 0.629754 0)
(1.99384 0.611078 0)
(2.02809 0.591074 0)
(2.06326 0.567281 0)
(2.07185 0.561108 0)
(2.0523 0.575436 0)
(1.93726 0.637652 0)
(1.7635 0.721704 0)
(1.58337 0.757425 0)
(1.51397 0.742239 0)
(1.51788 0.719574 0)
(1.60551 0.787085 0)
(1.63599 0.780511 0)
(1.66917 0.772292 0)
(1.70341 0.761803 0)
(1.73712 0.75019 0)
(1.77168 0.736592 0)
(1.80926 0.718684 0)
(1.84457 0.698564 0)
(1.87859 0.681126 0)
(1.91369 0.664307 0)
(1.95491 0.637403 0)
(1.98614 0.612673 0)
(2.01767 0.595247 0)
(2.05171 0.572679 0)
(2.06789 0.560383 0)
(2.0581 0.567116 0)
(1.98199 0.612047 0)
(1.77959 0.711125 0)
(1.60352 0.759432 0)
(1.52884 0.746621 0)
(1.55606 0.734706 0)
(1.60332 0.786032 0)
(1.63259 0.778787 0)
(1.66431 0.771093 0)
(1.69743 0.761809 0)
(1.73274 0.749852 0)
(1.76706 0.73709 0)
(1.80157 0.722527 0)
(1.83786 0.703151 0)
(1.87373 0.682749 0)
(1.90582 0.667459 0)
(1.94321 0.645997 0)
(1.97704 0.618868 0)
(2.00894 0.599279 0)
(2.04055 0.579554 0)
(2.06361 0.561057 0)
(2.05988 0.562082 0)
(2.01477 0.592428 0)
(1.81099 0.688614 0)
(1.61413 0.745551 0)
(1.53053 0.751923 0)
(1.56853 0.745729 0)
(1.60259 0.784822 0)
(1.6304 0.776936 0)
(1.66013 0.769246 0)
(1.69285 0.760074 0)
(1.7274 0.74908 0)
(1.76037 0.737968 0)
(1.79615 0.723908 0)
(1.83288 0.706156 0)
(1.86801 0.686103 0)
(1.89888 0.67121 0)
(1.93501 0.652486 0)
(1.97074 0.625311 0)
(2.0012 0.60349 0)
(2.03124 0.586354 0)
(2.06004 0.563664 0)
(2.06063 0.560528 0)
(2.03456 0.578091 0)
(1.86305 0.661313 0)
(1.61924 0.739727 0)
(1.53072 0.753555 0)
(1.56903 0.748671 0)
(1.60244 0.785132 0)
(1.62882 0.776686 0)
(1.65689 0.768356 0)
(1.6878 0.759462 0)
(1.7208 0.749067 0)
(1.75527 0.736781 0)
(1.78905 0.72476 0)
(1.8232 0.710253 0)
(1.86125 0.690022 0)
(1.8952 0.671625 0)
(1.92573 0.657361 0)
(1.96056 0.634466 0)
(1.99254 0.609641 0)
(2.02546 0.5897 0)
(2.0537 0.570342 0)
(2.0602 0.55969 0)
(2.04591 0.56917 0)
(1.9245 0.635522 0)
(1.63114 0.732638 0)
(1.52909 0.751541 0)
(1.56467 0.748333 0)
(1.60301 0.78501 0)
(1.62843 0.776473 0)
(1.65523 0.767736 0)
(1.68421 0.758715 0)
(1.71627 0.748228 0)
(1.74908 0.736733 0)
(1.78154 0.725576 0)
(1.81736 0.711345 0)
(1.85508 0.692856 0)
(1.88734 0.675961 0)
(1.91875 0.661036 0)
(1.95382 0.640544 0)
(1.98683 0.614403 0)
(2.01515 0.596974 0)
(2.04993 0.57386 0)
(2.06098 0.559955 0)
(2.05367 0.564047 0)
(1.97769 0.611852 0)
(1.66183 0.72061 0)
(1.52695 0.748412 0)
(1.55994 0.746865 0)
(1.60278 0.785983 0)
(1.62781 0.777757 0)
(1.65402 0.768691 0)
(1.68151 0.759392 0)
(1.71112 0.749456 0)
(1.74316 0.737525 0)
(1.77633 0.724791 0)
(1.80875 0.713065 0)
(1.84397 0.697394 0)
(1.88133 0.677103 0)
(1.91335 0.661832 0)
(1.94266 0.646355 0)
(1.9773 0.622681 0)
(2.00878 0.598906 0)
(2.0418 0.58028 0)
(2.05986 0.563424 0)
(2.05769 0.562138 0)
(2.01335 0.592214 0)
(1.71647 0.705921 0)
(1.52502 0.745945 0)
(1.55515 0.745104 0)
(1.60276 0.785866 0)
(1.62775 0.778193 0)
(1.65365 0.769349 0)
(1.68008 0.760191 0)
(1.70811 0.750284 0)
(1.73917 0.738289 0)
(1.77053 0.725959 0)
(1.8017 0.714419 0)
(1.8375 0.699401 0)
(1.87298 0.680548 0)
(1.90397 0.665808 0)
(1.93559 0.649335 0)
(1.9695 0.628655 0)
(2.00071 0.604695 0)
(2.03173 0.586853 0)
(2.05954 0.567054 0)
(2.0589 0.560604 0)
(2.03561 0.577978 0)
(1.78675 0.688414 0)
(1.52758 0.742967 0)
(1.55031 0.7431 0)
(1.60212 0.786481 0)
(1.62689 0.779326 0)
(1.65257 0.77092 0)
(1.67854 0.761917 0)
(1.70534 0.752459 0)
(1.73484 0.741013 0)
(1.76573 0.7278 0)
(1.79646 0.715366 0)
(1.82788 0.70287 0)
(1.86407 0.684782 0)
(1.89818 0.665986 0)
(1.92746 0.651914 0)
(1.95702 0.635222 0)
(1.99377 0.610213 0)
(2.02377 0.590122 0)
(2.05446 0.571571 0)
(2.06128 0.561852 0)
(2.04893 0.570558 0)
(1.86738 0.665779 0)
(1.53969 0.739235 0)
(1.54822 0.74236 0)
(1.60208 0.786033 0)
(1.62656 0.779059 0)
(1.65186 0.771227 0)
(1.67752 0.762679 0)
(1.70402 0.75347 0)
(1.73247 0.742688 0)
(1.76204 0.730031 0)
(1.79158 0.71749 0)
(1.82219 0.704655 0)
(1.85718 0.687987 0)
(1.88883 0.670401 0)
(1.91917 0.654974 0)
(1.95002 0.638252 0)
(1.98186 0.617594 0)
(2.01219 0.596793 0)
(2.04664 0.57493 0)
(2.06114 0.563842 0)
(2.0553 0.566531 0)
(1.93397 0.639448 0)
(1.57355 0.736789 0)
(1.55035 0.746082 0)
(1.60176 0.786764 0)
(1.62547 0.779796 0)
(1.65006 0.772362 0)
(1.67595 0.763828 0)
(1.70225 0.754957 0)
(1.72926 0.745356 0)
(1.75825 0.733117 0)
(1.78804 0.719358 0)
(1.81663 0.707196 0)
(1.84839 0.692618 0)
(1.882 0.673619 0)
(1.91301 0.656226 0)
(1.93949 0.642874 0)
(1.97274 0.623896 0)
(2.00372 0.601713 0)
(2.03721 0.579889 0)
(2.05993 0.56556 0)
(2.05716 0.565672 0)
(1.98629 0.613025 0)
(1.61561 0.733801 0)
(1.55367 0.746991 0)
(1.60229 0.78668 0)
(1.62513 0.779669 0)
(1.64911 0.772344 0)
(1.67489 0.76394 0)
(1.70096 0.755275 0)
(1.72747 0.746168 0)
(1.75569 0.734936 0)
(1.78506 0.721281 0)
(1.81289 0.708705 0)
(1.84329 0.694818 0)
(1.87426 0.678181 0)
(1.90589 0.6596 0)
(1.93287 0.644731 0)
(1.96214 0.629421 0)
(1.99271 0.608869 0)
(2.02748 0.585515 0)
(2.05283 0.571147 0)
(2.05789 0.564899 0)
(2.01986 0.592848 0)
(1.67221 0.724285 0)
(1.55923 0.749449 0)
(1.60232 0.788047 0)
(1.62441 0.78087 0)
(1.64761 0.773585 0)
(1.67292 0.765247 0)
(1.69875 0.756561 0)
(1.72486 0.747708 0)
(1.75247 0.737147 0)
(1.78166 0.72368 0)
(1.80939 0.710729 0)
(1.83731 0.698118 0)
(1.86865 0.681836 0)
(1.89925 0.663194 0)
(1.92674 0.647578 0)
(1.95242 0.634225 0)
(1.98536 0.614231 0)
(2.01615 0.593161 0)
(2.04708 0.572333 0)
(2.05783 0.564726 0)
(2.03857 0.5795 0)
(1.73876 0.708244 0)
(1.56677 0.753546 0)
(1.60319 0.788416 0)
(1.62467 0.781315 0)
(1.6473 0.774034 0)
(1.67186 0.765921 0)
(1.69712 0.757334 0)
(1.72319 0.748084 0)
(1.75003 0.738183 0)
(1.77891 0.725496 0)
(1.80634 0.71231 0)
(1.83443 0.698836 0)
(1.8627 0.68532 0)
(1.89336 0.667248 0)
(1.92125 0.650431 0)
(1.94741 0.636095 0)
(1.97487 0.620609 0)
(2.00545 0.60003 0)
(2.03874 0.57711 0)
(2.05539 0.566147 0)
(2.04602 0.573015 0)
(1.81344 0.686844 0)
(1.5791 0.757961 0)
(1.60326 0.790216 0)
(1.6245 0.783119 0)
(1.64662 0.775904 0)
(1.67011 0.768133 0)
(1.69479 0.759514 0)
(1.72081 0.749801 0)
(1.74704 0.739908 0)
(1.77465 0.728402 0)
(1.80259 0.714929 0)
(1.8306 0.70133 0)
(1.85807 0.688179 0)
(1.88712 0.672006 0)
(1.91537 0.654622 0)
(1.94133 0.64022 0)
(1.96789 0.62542 0)
(1.99656 0.606223 0)
(2.02864 0.58376 0)
(2.05258 0.567789 0)
(2.04953 0.569062 0)
(1.89112 0.659308 0)
(1.60078 0.761662 0)
(1.60423 0.790785 0)
(1.6253 0.783922 0)
(1.64692 0.776888 0)
(1.66968 0.769375 0)
(1.69369 0.760908 0)
(1.71935 0.750959 0)
(1.7446 0.741294 0)
(1.77155 0.730434 0)
(1.79961 0.717182 0)
(1.82795 0.702772 0)
(1.85369 0.690897 0)
(1.88167 0.676527 0)
(1.9116 0.65827 0)
(1.93718 0.642642 0)
(1.96129 0.629965 0)
(1.98887 0.612278 0)
(2.02092 0.589357 0)
(2.04822 0.571964 0)
(2.04945 0.567796 0)
(1.95166 0.631123 0)
(1.63872 0.757193 0)
(1.60445 0.792688 0)
(1.62526 0.786079 0)
(1.64658 0.779081 0)
(1.66881 0.771624 0)
(1.69205 0.763407 0)
(1.71701 0.753651 0)
(1.74201 0.743521 0)
(1.76807 0.733109 0)
(1.79515 0.720887 0)
(1.8235 0.706739 0)
(1.84975 0.693712 0)
(1.87703 0.680355 0)
(1.90404 0.664804 0)
(1.93191 0.647487 0)
(1.95592 0.633436 0)
(1.98161 0.617769 0)
(2.01041 0.598032 0)
(2.04322 0.574663 0)
(2.04969 0.568146 0)
(1.99058 0.607856 0)
(1.69535 0.742463 0)
(1.60567 0.793399 0)
(1.62614 0.786985 0)
(1.6471 0.780077 0)
(1.66893 0.77259 0)
(1.69165 0.764472 0)
(1.71602 0.755086 0)
(1.7402 0.745272 0)
(1.76553 0.735183 0)
(1.79246 0.723278 0)
(1.82026 0.709765 0)
(1.84572 0.696981 0)
(1.87224 0.684456 0)
(1.90039 0.66845 0)
(1.92733 0.651959 0)
(1.95075 0.637358 0)
(1.97588 0.622369 0)
(2.00227 0.604812 0)
(2.03727 0.579425 0)
(2.05019 0.568373 0)
(2.01673 0.590659 0)
(1.7558 0.721369 0)
(1.60634 0.795533 0)
(1.62621 0.789171 0)
(1.64682 0.782186 0)
(1.66846 0.77446 0)
(1.69066 0.766424 0)
(1.71398 0.757703 0)
(1.73821 0.747741 0)
(1.76334 0.737313 0)
(1.78855 0.726665 0)
(1.81499 0.714508 0)
(1.84211 0.700187 0)
(1.86827 0.687173 0)
(1.8934 0.673905 0)
(1.92059 0.658084 0)
(1.94637 0.640841 0)
(1.97053 0.626511 0)
(1.99451 0.611014 0)
(2.02719 0.588318 0)
(2.04902 0.570422 0)
(2.03307 0.580639 0)
(1.81843 0.697039 0)
(1.6081 0.796611 0)
(1.6273 0.790172 0)
(1.64749 0.78304 0)
(1.66874 0.775241 0)
(1.69047 0.767298 0)
(1.71332 0.758723 0)
(1.73721 0.749205 0)
(1.76163 0.7391 0)
(1.78622 0.72853 0)
(1.81207 0.716844 0)
(1.83832 0.703442 0)
(1.8637 0.690382 0)
(1.88913 0.676601 0)
(1.91567 0.662042 0)
(1.94085 0.645639 0)
(1.96522 0.630665 0)
(1.98853 0.615595 0)
(2.01986 0.595054 0)
(2.04693 0.573616 0)
(2.0425 0.576357 0)
(1.87678 0.669899 0)
(1.60942 0.799139 0)
(1.62794 0.792479 0)
(1.6476 0.785138 0)
(1.66831 0.777249 0)
(1.6896 0.769313 0)
(1.71185 0.761 0)
(1.73557 0.751577 0)
(1.75954 0.741462 0)
(1.78363 0.731019 0)
(1.80797 0.72003 0)
(1.83445 0.706595 0)
(1.85936 0.693222 0)
(1.88442 0.679696 0)
(1.90858 0.666848 0)
(1.9364 0.649869 0)
(1.95966 0.634962 0)
(1.98365 0.619488 0)
(2.00907 0.603723 0)
(2.04567 0.577237 0)
(2.04416 0.577278 0)
(1.93631 0.640947 0)
(1.61174 0.800636 0)
(1.62966 0.793776 0)
(1.64872 0.78631 0)
(1.66876 0.778491 0)
(1.68947 0.770697 0)
(1.71155 0.762187 0)
(1.73464 0.753188 0)
(1.758 0.743346 0)
(1.78175 0.732883 0)
(1.80591 0.721294 0)
(1.83086 0.709123 0)
(1.85518 0.696181 0)
(1.88051 0.682265 0)
(1.9048 0.668501 0)
(1.92997 0.654917 0)
(1.95402 0.639702 0)
(1.97889 0.623509 0)
(2.00222 0.608676 0)
(2.03955 0.585427 0)
(2.04629 0.578579 0)
(1.98319 0.617681 0)
(1.61366 0.80326 0)
(1.63112 0.796234 0)
(1.64954 0.788721 0)
(1.66877 0.780991 0)
(1.68904 0.773108 0)
(1.71057 0.764693 0)
(1.73304 0.755818 0)
(1.75592 0.74597 0)
(1.77938 0.735512 0)
(1.80272 0.724234 0)
(1.82749 0.71182 0)
(1.85103 0.699305 0)
(1.87579 0.686176 0)
(1.89979 0.672354 0)
(1.92547 0.658346 0)
(1.94829 0.644633 0)
(1.97315 0.629141 0)
(1.99535 0.614654 0)
(2.03211 0.59267 0)
(2.04727 0.580223 0)
(2.01354 0.601805 0)
(1.61622 0.804907 0)
(1.63342 0.797817 0)
(1.65119 0.790462 0)
(1.66973 0.782811 0)
(1.68947 0.774941 0)
(1.71059 0.766345 0)
(1.73204 0.75788 0)
(1.75448 0.748147 0)
(1.77755 0.737763 0)
(1.80086 0.726275 0)
(1.82408 0.714874 0)
(1.8478 0.702257 0)
(1.87245 0.689402 0)
(1.89666 0.675208 0)
(1.92016 0.662703 0)
(1.94369 0.649003 0)
(1.96889 0.634211 0)
(1.9908 0.619117 0)
(2.02336 0.599732 0)
(2.04604 0.582806 0)
(2.02957 0.593097 0)
(1.61845 0.807228 0)
(1.63542 0.800199 0)
(1.65255 0.793088 0)
(1.67063 0.785432 0)
(1.68994 0.777403 0)
(1.71019 0.768989 0)
(1.73077 0.760632 0)
(1.75297 0.750826 0)
(1.77541 0.740613 0)
(1.79779 0.729945 0)
(1.82102 0.718378 0)
(1.84488 0.705631 0)
(1.86821 0.69375 0)
(1.89192 0.680645 0)
(1.91645 0.666473 0)
(1.93968 0.652889 0)
(1.96261 0.640411 0)
(1.98473 0.625681 0)
(2.0151 0.606312 0)
(2.04325 0.58556 0)
(2.03811 0.588095 0)
(1.62098 0.808976 0)
(1.63773 0.802105 0)
(1.65435 0.795243 0)
(1.67224 0.787489 0)
(1.69095 0.779463 0)
(1.71054 0.770982 0)
(1.73029 0.762729 0)
(1.75213 0.753029 0)
(1.77364 0.743305 0)
(1.79597 0.732665 0)
(1.81799 0.722103 0)
(1.84229 0.709522 0)
(1.8652 0.697191 0)
(1.88901 0.684518 0)
(1.91132 0.672013 0)
(1.93632 0.657199 0)
(1.95774 0.644515 0)
(1.98133 0.630035 0)
(2.005 0.613972 0)
(2.04172 0.587538 0)
(2.03942 0.588427 0)
(1.62335 0.811139 0)
(1.63974 0.804509 0)
(1.65606 0.797757 0)
(1.67386 0.789888 0)
(1.69192 0.781927 0)
(1.71081 0.77357 0)
(1.73015 0.765047 0)
(1.75131 0.755562 0)
(1.77185 0.746343 0)
(1.79379 0.736098 0)
(1.81586 0.725295 0)
(1.83937 0.713627 0)
(1.86176 0.701618 0)
(1.88498 0.689412 0)
(1.90833 0.67582 0)
(1.93177 0.662541 0)
(1.95356 0.648283 0)
(1.97474 0.63644 0)
(1.99938 0.618633 0)
(2.034 0.595881 0)
(2.04041 0.589354 0)
(1.62569 0.813397 0)
(1.6417 0.806947 0)
(1.65786 0.800175 0)
(1.67556 0.792211 0)
(1.69299 0.784365 0)
(1.71153 0.775882 0)
(1.73051 0.767229 0)
(1.75085 0.757986 0)
(1.77069 0.749023 0)
(1.79238 0.738854 0)
(1.81399 0.728374 0)
(1.83658 0.717353 0)
(1.8593 0.705171 0)
(1.88203 0.692856 0)
(1.90446 0.680124 0)
(1.92711 0.667585 0)
(1.95044 0.651728 0)
(1.97091 0.639728 0)
(1.99275 0.624908 0)
(2.02603 0.603902 0)
(2.04274 0.589101 0)
(1.62816 0.815718 0)
(1.6438 0.809375 0)
(1.65983 0.80251 0)
(1.67727 0.794569 0)
(1.69408 0.786921 0)
(1.71249 0.778318 0)
(1.73099 0.769706 0)
(1.7507 0.760572 0)
(1.76973 0.751927 0)
(1.79141 0.741611 0)
(1.81241 0.731283 0)
(1.8346 0.720195 0)
(1.85589 0.709211 0)
(1.87911 0.696506 0)
(1.90177 0.682884 0)