/*--------------------------------*- C++ -*----------------------------------*\
  =========                 |
  \\      /  F ield         | OpenFOAM: The Open Source CFD Toolbox
   \\    /   O peration     | Website:  https://openfoam.org
    \\  /    A nd           | Version:  7
     \\/     M anipulation  |
\*---------------------------------------------------------------------------*/
FoamFile
{
    version     2.0;
    format      ascii;
    class       volVectorField;
    location    "0.6";
    object      U;
}
// * * * * * * * * * * * * * * * * * * * * * * * * * * * * * * * * * * * * * //

dimensions      [0 1 -1 0 0 0 0];

internalField   nonuniform List<vector> 
4128
(
(2.92472 -0.0846269 0)
(2.9171 -0.0822739 0)
(2.91627 -0.0819669 0)
(2.91709 -0.0819869 0)
(2.9196 -0.0854734 0)
(2.92291 -0.0956806 0)
(2.92792 -0.106092 0)
(2.93381 -0.113352 0)
(2.93995 -0.119082 0)
(2.94758 -0.124034 0)
(2.95762 -0.126184 0)
(2.97045 -0.120266 0)
(2.97825 -0.0986099 0)
(2.97197 -0.0858579 0)
(2.96984 -0.0845123 0)
(2.96671 -0.0821685 0)
(2.96387 -0.0795907 0)
(2.96194 -0.0765915 0)
(2.96133 -0.0732849 0)
(2.96278 -0.0737238 0)
(2.96417 -0.0837606 0)
(2.9603 -0.0994666 0)
(2.94894 -0.115999 0)
(2.95196 -0.124698 0)
(2.95702 -0.124743 0)
(2.96136 -0.120112 0)
(2.96251 -0.107432 0)
(2.96003 -0.0989307 0)
(2.95651 -0.0833194 0)
(2.95467 -0.0783546 0)
(2.94866 -0.0785569 0)
(2.94385 -0.0785968 0)
(2.94204 -0.0757451 0)
(2.94206 -0.0697666 0)
(2.94305 -0.0615671 0)
(2.94551 -0.0520521 0)
(2.94875 -0.0424066 0)
(2.95181 -0.0360706 0)
(2.95393 -0.0340153 0)
(2.95568 -0.0329926 0)
(2.95766 -0.0320228 0)
(2.96006 -0.0324163 0)
(2.96233 -0.032851 0)
(2.9625 -0.0307078 0)
(2.96137 -0.0286433 0)
(2.96066 -0.0265406 0)
(2.96008 -0.0217134 0)
(2.96077 -0.0130397 0)
(2.96402 -0.00357132 0)
(2.96831 0.00319095 0)
(2.97097 0.00822045 0)
(2.97294 0.011266 0)
(2.97522 0.0134749 0)
(2.97789 0.0153399 0)
(2.98038 0.0159144 0)
(2.98232 0.0142324 0)
(2.98418 0.0104961 0)
(2.9852 0.00529346 0)
(2.98298 0.000147856 0)
(2.9798 -0.00332597 0)
(2.97765 -0.00503176 0)
(2.97665 -0.00443234 0)
(2.97783 0.000119064 0)
(2.98225 0.00884873 0)
(2.98899 0.0174847 0)
(2.99362 0.0179051 0)
(2.99254 0.0103064 0)
(2.98941 0.00222774 0)
(2.98719 -0.00431539 0)
(2.98704 -0.0112735 0)
(2.98921 -0.0163464 0)
(2.99215 -0.01887 0)
(2.99889 -0.0175791 0)
(3.01057 -0.00858512 0)
(3.02406 0.00633173 0)
(3.03457 0.016788 0)
(3.03796 0.0153109 0)
(3.03519 0.00829754 0)
(3.03167 0.000991147 0)
(3.03101 -0.00519356 0)
(3.0325 -0.0106017 0)
(3.03587 -0.0137447 0)
(3.04021 -0.0114182 0)
(3.04439 -0.00311505 0)
(3.0485 0.00446396 0)
(3.04992 0.00482925 0)
(3.04767 6.91977e-05 0)
(3.04446 -0.00630564 0)
(3.0407 -0.0135627 0)
(3.0381 -0.020595 0)
(3.03707 -0.0263177 0)
(3.03671 -0.031043 0)
(3.03798 -0.0338605 0)
(3.04407 -0.0330782 0)
(3.05872 -0.0264261 0)
(3.07713 -0.0177597 0)
(3.08272 -0.0168466 0)
(3.07997 -0.0195157 0)
(3.07651 -0.0226746 0)
(3.07289 -0.0259726 0)
(3.06587 -0.0300542 0)
(3.05398 -0.0382381 0)
(3.03753 -0.048572 0)
(3.02897 -0.0533023 0)
(3.02735 -0.0544336 0)
(3.02449 -0.05662 0)
(3.02211 -0.0579047 0)
(3.0203 -0.0585904 0)
(3.02048 -0.058536 0)
(3.02577 -0.0568913 0)
(3.04157 -0.0516802 0)
(3.06588 -0.0437076 0)
(3.07604 -0.0399942 0)
(3.07476 -0.0396452 0)
(3.07304 -0.0396352 0)
(3.07107 -0.0397638 0)
(3.06383 -0.0410183 0)
(3.04439 -0.0474892 0)
(3.01698 -0.0576807 0)
(3.00582 -0.0613698 0)
(3.00482 -0.0615902 0)
(3.00386 -0.0615093 0)
(3.00506 -0.0606507 0)
(3.01044 -0.0576107 0)
(3.01585 -0.0542972 0)
(3.01591 -0.0535193 0)
(3.01513 -0.0530428 0)
(3.01439 -0.0523104 0)
(3.01234 -0.0508617 0)
(2.93494 -0.0816697 0)
(2.92504 -0.0787739 0)
(2.92211 -0.0783707 0)
(2.9226 -0.0783817 0)
(2.92578 -0.0804605 0)
(2.92861 -0.089719 0)
(2.93177 -0.102226 0)
(2.93848 -0.112592 0)
(2.94676 -0.122654 0)
(2.95613 -0.132056 0)
(2.9674 -0.136381 0)
(2.98228 -0.129631 0)
(2.99224 -0.104087 0)
(2.98258 -0.0898988 0)
(2.97796 -0.0868463 0)
(2.97303 -0.0820426 0)
(2.96948 -0.0786897 0)
(2.96769 -0.0775478 0)
(2.96782 -0.0774097 0)
(2.97008 -0.0779018 0)
(2.97293 -0.0827421 0)
(2.97131 -0.0974885 0)
(2.96088 -0.117194 0)
(2.96575 -0.127668 0)
(2.96982 -0.12777 0)
(2.97292 -0.122204 0)
(2.97051 -0.114259 0)
(2.96602 -0.10508 0)
(2.96123 -0.088038 0)
(2.95924 -0.0814924 0)
(2.95432 -0.0805943 0)
(2.94924 -0.079656 0)
(2.94673 -0.0768254 0)
(2.94605 -0.0708669 0)
(2.94681 -0.0622917 0)
(2.94986 -0.0544224 0)
(2.95369 -0.0477352 0)
(2.95693 -0.0424802 0)
(2.9596 -0.040533 0)
(2.96228 -0.0393871 0)
(2.96515 -0.0359442 0)
(2.96807 -0.0317562 0)
(2.96975 -0.0300677 0)
(2.96941 -0.0287312 0)
(2.96732 -0.0245629 0)
(2.9661 -0.0190267 0)
(2.96758 -0.0134237 0)
(2.97085 -0.00676626 0)
(2.97308 0.000755377 0)
(2.97565 0.00553169 0)
(2.97677 0.00676166 0)
(2.97709 0.00581569 0)
(2.97828 0.00487005 0)
(2.98054 0.00532734 0)
(2.98352 0.00630343 0)
(2.98616 0.00560112 0)
(2.98782 0.00225664 0)
(2.98809 -0.00197569 0)
(2.98628 -0.00462733 0)
(2.98383 -0.00490704 0)
(2.98321 -0.00256093 0)
(2.98641 0.00407049 0)
(2.99343 0.0148015 0)
(3.0009 0.022843 0)
(3.00151 0.0214885 0)
(2.99679 0.0147889 0)
(2.992 0.00362087 0)
(2.98927 -0.00868579 0)
(2.98816 -0.0174532 0)
(2.98848 -0.0220797 0)
(2.99109 -0.0229199 0)
(2.99886 -0.017993 0)
(3.01312 -0.00532422 0)
(3.02912 0.0100571 0)
(3.03707 0.016659 0)
(3.03733 0.0144993 0)
(3.03477 0.00929582 0)
(3.03283 0.00154415 0)
(3.03149 -0.00614546 0)
(3.0322 -0.0120216 0)
(3.03652 -0.0137893 0)
(3.04449 -0.00945503 0)
(3.0521 -0.00115677 0)
(3.05434 0.00373939 0)
(3.05218 0.00430447 0)
(3.04991 0.00242828 0)
(3.04634 -0.0037368 0)
(3.04194 -0.010923 0)
(3.04015 -0.0182886 0)
(3.03934 -0.0241807 0)
(3.03795 -0.0294907 0)
(3.03818 -0.032528 0)
(3.04211 -0.0325851 0)
(3.05356 -0.0276571 0)
(3.07276 -0.0184078 0)
(3.08471 -0.0142226 0)
(3.08443 -0.0157655 0)
(3.0818 -0.0182673 0)
(3.07836 -0.0223657 0)
(3.0726 -0.0268789 0)
(3.06389 -0.0337037 0)
(3.05033 -0.0429117 0)
(3.03555 -0.0500037 0)
(3.03056 -0.0522764 0)
(3.02878 -0.053509 0)
(3.02615 -0.0556668 0)
(3.024 -0.0568987 0)
(3.02268 -0.0574822 0)
(3.02409 -0.05708 0)
(3.03213 -0.0543008 0)
(3.05214 -0.0473107 0)
(3.07386 -0.0399544 0)
(3.07806 -0.0381962 0)
(3.07643 -0.0382146 0)
(3.07489 -0.0383528 0)
(3.07177 -0.0388304 0)
(3.06059 -0.0418062 0)
(3.03578 -0.0510123 0)
(3.01203 -0.0597151 0)
(3.00679 -0.0613045 0)
(3.00603 -0.0614281 0)
(3.00562 -0.0611178 0)
(3.0083 -0.0594782 0)
(3.01499 -0.0560189 0)
(3.01844 -0.053592 0)
(3.01778 -0.0529752 0)
(3.01695 -0.0524192 0)
(3.01599 -0.0517936 0)
(3.01351 -0.0503418 0)
(2.94345 -0.0726453 0)
(2.93331 -0.0704975 0)
(2.92799 -0.071374 0)
(2.92839 -0.0723036 0)
(2.93152 -0.0747879 0)
(2.93599 -0.0834775 0)
(2.93765 -0.0972865 0)
(2.94338 -0.112224 0)
(2.95437 -0.125623 0)
(2.9657 -0.138538 0)
(2.97674 -0.146837 0)
(2.9911 -0.141888 0)
(3.00248 -0.108363 0)
(2.99188 -0.085192 0)
(2.98456 -0.0797259 0)
(2.97814 -0.076436 0)
(2.97592 -0.0763159 0)
(2.9751 -0.076702 0)
(2.97561 -0.0769982 0)
(2.97793 -0.0796012 0)
(2.9809 -0.0840968 0)
(2.98052 -0.0911577 0)
(2.97343 -0.111729 0)
(2.98052 -0.123765 0)
(2.98425 -0.123637 0)
(2.98381 -0.120326 0)
(2.98033 -0.116603 0)
(2.9752 -0.107519 0)
(2.96996 -0.0924846 0)
(2.96708 -0.0835223 0)
(2.9625 -0.0828918 0)
(2.95581 -0.082886 0)
(2.95174 -0.0803426 0)
(2.95014 -0.0747504 0)
(2.95051 -0.0675577 0)
(2.95365 -0.0603855 0)
(2.95812 -0.0535594 0)
(2.96227 -0.0473718 0)
(2.96618 -0.0415444 0)
(2.96998 -0.0354384 0)
(2.97338 -0.0295613 0)
(2.9756 -0.0251631 0)
(2.97624 -0.0225011 0)
(2.9753 -0.0204517 0)
(2.97319 -0.0180389 0)
(2.97231 -0.0150481 0)
(2.9745 -0.0117386 0)
(2.97787 -0.00784796 0)
(2.97924 -0.00472205 0)
(2.9797 -0.001891 0)
(2.98029 -0.00119904 0)
(2.98079 -0.00208107 0)
(2.9816 -0.00350191 0)
(2.98325 -0.00330309 0)
(2.98633 -0.00102338 0)
(2.99005 0.000620087 0)
(2.99221 -0.000650881 0)
(2.99215 -0.00346762 0)
(2.99098 -0.0042998 0)
(2.9915 -0.000731428 0)
(2.99644 0.00790114 0)
(3.0041 0.0182228 0)
(3.00866 0.0228222 0)
(3.00703 0.0219413 0)
(3.00375 0.0172551 0)
(3.00004 0.0067965 0)
(2.99567 -0.00575727 0)
(2.99195 -0.0170666 0)
(2.99006 -0.0242745 0)
(2.9914 -0.0261865 0)
(3.00063 -0.0198368 0)
(3.01804 -0.00329275 0)
(3.03428 0.0119983 0)
(3.03887 0.0153331 0)
(3.03776 0.0136579 0)
(3.03404 0.00713048 0)
(3.03214 -0.00088833 0)
(3.03174 -0.00668918 0)
(3.03156 -0.0117085 0)
(3.03572 -0.0122473 0)
(3.04686 -0.006274 0)
(3.0586 0.00263254 0)
(3.06073 0.00583363 0)
(3.05781 0.00517751 0)
(3.05366 0.00244853 0)
(3.04702 -0.0041859 0)
(3.04302 -0.0118807 0)
(3.04205 -0.0173245 0)
(3.04045 -0.023292 0)
(3.03949 -0.0280721 0)
(3.03981 -0.0304183 0)
(3.04272 -0.0303213 0)
(3.05129 -0.0264974 0)
(3.06781 -0.0187847 0)
(3.08355 -0.0138003 0)
(3.08668 -0.0148839 0)
(3.08476 -0.0169195 0)
(3.08214 -0.0198407 0)
(3.07831 -0.0237268 0)
(3.07177 -0.0295276 0)
(3.06242 -0.0373165 0)
(3.04853 -0.0442452 0)
(3.03578 -0.0488677 0)
(3.03182 -0.0506465 0)
(3.03024 -0.0520279 0)
(3.02788 -0.0541383 0)
(3.02591 -0.055353 0)
(3.0251 -0.0558359 0)
(3.02805 -0.0549284 0)
(3.03981 -0.05078 0)
(3.06334 -0.0426518 0)
(3.07929 -0.0374901 0)
(3.07965 -0.0370752 0)
(3.0781 -0.037196 0)
(3.07649 -0.0375116 0)
(3.07112 -0.0386005 0)
(3.05491 -0.0439507 0)
(3.02667 -0.0546413 0)
(3.00999 -0.060439 0)
(3.0081 -0.0609148 0)
(3.00725 -0.060872 0)
(3.00762 -0.0602423 0)
(3.01209 -0.0580991 0)
(3.01921 -0.0546445 0)
(3.02066 -0.0529155 0)
(3.01967 -0.0524606 0)
(3.01875 -0.0519192 0)
(3.01773 -0.0512955 0)
(3.01487 -0.0496924 0)
(2.95158 -0.06158 0)
(2.94196 -0.0563151 0)
(2.93432 -0.059029 0)
(2.9342 -0.0639453 0)
(2.93621 -0.0668443 0)
(2.94165 -0.0755404 0)
(2.94371 -0.0949388 0)
(2.94806 -0.120237 0)
(2.95949 -0.14027 0)
(2.97288 -0.148926 0)
(2.98328 -0.155319 0)
(2.99419 -0.152468 0)
(3.00653 -0.119409 0)
(3.00129 -0.0845674 0)
(2.99369 -0.0770839 0)
(2.98681 -0.073608 0)
(2.98452 -0.072913 0)
(2.9839 -0.0737506 0)
(2.98385 -0.0749159 0)
(2.98533 -0.0775789 0)
(2.98767 -0.0826944 0)
(2.98819 -0.0896681 0)
(2.98683 -0.102582 0)
(2.9959 -0.117585 0)
(2.99858 -0.122577 0)
(2.99306 -0.124148 0)
(2.9864 -0.120739 0)
(2.98323 -0.113203 0)
(2.97821 -0.1023 0)
(2.97463 -0.0896675 0)
(2.97073 -0.086852 0)
(2.96343 -0.0846973 0)
(2.95807 -0.0814119 0)
(2.95579 -0.0762552 0)
(2.95591 -0.0702489 0)
(2.95903 -0.0634133 0)
(2.96387 -0.0550905 0)
(2.96923 -0.0452207 0)
(2.97499 -0.0352981 0)
(2.97941 -0.0277016 0)
(2.98091 -0.0240638 0)
(2.98091 -0.0228378 0)
(2.98078 -0.0215425 0)
(2.97992 -0.0206718 0)
(2.97788 -0.0186365 0)
(2.97708 -0.0162524 0)
(2.97956 -0.0148799 0)
(2.98197 -0.0136793 0)
(2.98281 -0.0126345 0)
(2.98381 -0.00989237 0)
(2.98416 -0.00870121 0)
(2.9846 -0.00958783 0)
(2.98496 -0.0107277 0)
(2.98606 -0.0104102 0)
(2.98936 -0.00668865 0)
(2.99428 -0.00308445 0)
(2.99766 -0.00199574 0)
(2.9985 -0.00158072 0)
(2.99939 0.0017068 0)
(3.00501 0.0098515 0)
(3.01302 0.0182471 0)
(3.01491 0.020024 0)
(3.01301 0.0188445 0)
(3.0099 0.0154092 0)
(3.00447 0.00663711 0)
(3.00271 -0.00176637 0)
(2.9991 -0.0107402 0)
(2.99473 -0.0199891 0)
(2.99379 -0.0256915 0)
(3.00247 -0.02175 0)
(3.02213 -0.00523056 0)
(3.03857 0.0102142 0)
(3.04198 0.0130323 0)
(3.04093 0.0117769 0)
(3.03581 0.0053628 0)
(3.03238 -0.0037574 0)
(3.03145 -0.00698539 0)
(3.03117 -0.0108629 0)
(3.03515 -0.0116632 0)
(3.04746 -0.0050922 0)
(3.06192 0.00473195 0)
(3.06541 0.00722519 0)
(3.06276 0.00579791 0)
(3.05833 0.00182118 0)
(3.04952 -0.00582637 0)
(3.04417 -0.0146717 0)
(3.043 -0.0193257 0)
(3.04227 -0.0236248 0)
(3.04147 -0.0268828 0)
(3.04178 -0.0280942 0)
(3.04469 -0.0267313 0)
(3.05151 -0.0226291 0)
(3.06413 -0.0168305 0)
(3.07983 -0.0130541 0)
(3.08698 -0.0142432 0)
(3.08652 -0.0168192 0)
(3.08427 -0.0190999 0)
(3.08175 -0.0217571 0)
(3.07712 -0.0260347 0)
(3.07069 -0.0325966 0)
(3.06112 -0.0390408 0)
(3.04803 -0.0447711 0)
(3.03667 -0.0493923 0)
(3.03317 -0.0511941 0)
(3.03173 -0.0521422 0)
(3.02947 -0.0537304 0)
(3.02762 -0.0546784 0)
(3.02758 -0.0548354 0)
(3.03281 -0.0531178 0)
(3.04927 -0.0473085 0)
(3.07348 -0.0390146 0)
(3.08242 -0.0360814 0)
(3.08121 -0.0361431 0)
(3.07968 -0.0363971 0)
(3.07748 -0.0370707 0)
(3.06886 -0.039455 0)
(3.04705 -0.0475062 0)
(3.01926 -0.0577381 0)
(3.00999 -0.0606561 0)
(3.0092 -0.0607627 0)
(3.00854 -0.0605613 0)
(3.01018 -0.0594167 0)
(3.01638 -0.0563776 0)
(3.02279 -0.053091 0)
(3.02282 -0.0518768 0)
(3.02159 -0.0515133 0)
(3.02052 -0.0509935 0)
(3.01945 -0.05041 0)
(3.01646 -0.0489427 0)
(2.96044 -0.0619449 0)
(2.95442 -0.0509889 0)
(2.94552 -0.0500801 0)
(2.94021 -0.0567258 0)
(2.93973 -0.0600358 0)
(2.94283 -0.066342 0)
(2.94676 -0.089731 0)
(2.9536 -0.122698 0)
(2.96802 -0.146104 0)
(2.98104 -0.154181 0)
(2.98925 -0.158516 0)
(2.99602 -0.154961 0)
(3.00711 -0.124259 0)
(3.00969 -0.0822702 0)
(3.00305 -0.0714031 0)
(2.99728 -0.0682874 0)
(2.99353 -0.0667559 0)
(2.99269 -0.0682356 0)
(2.99198 -0.0699413 0)
(2.99244 -0.0732497 0)
(2.99419 -0.0789298 0)
(2.99529 -0.086337 0)
(2.99848 -0.0967564 0)
(3.00903 -0.110558 0)
(3.00906 -0.11956 0)
(2.99883 -0.126058 0)
(2.98907 -0.127256 0)
(2.98551 -0.123434 0)
(2.98127 -0.115058 0)
(2.97834 -0.0998684 0)
(2.97652 -0.0945034 0)
(2.97076 -0.0893333 0)
(2.96547 -0.0834354 0)
(2.96297 -0.0770698 0)
(2.96364 -0.0694717 0)
(2.96797 -0.0595788 0)
(2.97433 -0.0471376 0)
(2.98127 -0.0350691 0)
(2.98551 -0.0272338 0)
(2.9858 -0.0249016 0)
(2.98516 -0.0244408 0)
(2.98368 -0.024203 0)
(2.98318 -0.0238438 0)
(2.98277 -0.0235008 0)
(2.98179 -0.0235041 0)
(2.9814 -0.0225687 0)
(2.98331 -0.0213251 0)
(2.98547 -0.0210127 0)
(2.98593 -0.0207658 0)
(2.98664 -0.0190953 0)
(2.98766 -0.0160895 0)
(2.98832 -0.0150134 0)
(2.98924 -0.0142392 0)
(2.99129 -0.01085 0)
(2.99516 -0.00455952 0)
(3.00002 0.000967492 0)
(3.00371 0.00391399 0)
(3.00612 0.00545879 0)
(3.01055 0.00850964 0)
(3.01781 0.0126283 0)
(3.01936 0.0134287 0)
(3.01804 0.0128644 0)
(3.01626 0.0110829 0)
(3.01173 0.0063136 0)
(3.00798 -5.37579e-06 0)
(3.00608 -0.00402248 0)
(3.00243 -0.00969337 0)
(3.00003 -0.015573 0)
(3.00548 -0.0167302 0)
(3.02415 -0.0060946 0)
(3.04251 0.0055848 0)
(3.04482 0.00663424 0)
(3.04233 0.00518236 0)
(3.03867 0.00153335 0)
(3.03431 -0.00526751 0)
(3.03313 -0.00820668 0)
(3.0326 -0.0099822 0)
(3.03604 -0.00968454 0)
(3.04805 -0.00341992 0)
(3.06358 0.00512403 0)
(3.06819 0.00658862 0)
(3.06555 0.00514186 0)
(3.06185 0.00134388 0)
(3.0539 -0.00495033 0)
(3.04702 -0.0155864 0)
(3.0449 -0.0210507 0)
(3.04391 -0.0237857 0)
(3.04346 -0.0265306 0)
(3.04474 -0.0262041 0)
(3.04863 -0.0225169 0)
(3.0546 -0.0174546 0)
(3.06268 -0.0135383 0)
(3.07423 -0.0118262 0)
(3.08491 -0.013171 0)
(3.08748 -0.0159955 0)
(3.08587 -0.0184148 0)
(3.08374 -0.021039 0)
(3.08078 -0.0241627 0)
(3.07583 -0.0286174 0)
(3.06928 -0.0335885 0)
(3.05963 -0.0390608 0)
(3.04683 -0.0453355 0)
(3.03729 -0.0501096 0)
(3.03503 -0.0513434 0)
(3.03323 -0.0524075 0)
(3.031 -0.0535821 0)
(3.02946 -0.0542216 0)
(3.03067 -0.0538993 0)
(3.03927 -0.0507143 0)
(3.06071 -0.0427128 0)
(3.08126 -0.0355622 0)
(3.08416 -0.034542 0)
(3.08262 -0.0347575 0)
(3.08109 -0.0352393 0)
(3.07731 -0.0363379 0)
(3.06442 -0.0407316 0)
(3.03741 -0.0513161 0)
(3.0148 -0.0595177 0)
(3.01077 -0.0606178 0)
(3.01015 -0.060555 0)
(3.01008 -0.0600146 0)
(3.01328 -0.0582322 0)
(3.02092 -0.0544452 0)
(3.02555 -0.0515489 0)
(3.02489 -0.0507219 0)
(3.02359 -0.050414 0)
(3.02228 -0.0499969 0)
(3.02104 -0.0494478 0)
(3.01783 -0.0482783 0)
(2.9685 -0.0661222 0)
(2.96681 -0.0509518 0)
(2.95964 -0.0476083 0)
(2.94833 -0.0527023 0)
(2.94509 -0.0556804 0)
(2.94644 -0.0641429 0)
(2.94832 -0.0915138 0)
(2.9558 -0.131912 0)
(2.97495 -0.155242 0)
(2.98834 -0.158624 0)
(2.99423 -0.155323 0)
(2.99923 -0.150868 0)
(3.00916 -0.127309 0)
(3.01661 -0.0838894 0)
(3.0114 -0.0684716 0)
(3.00651 -0.0656918 0)
(3.00109 -0.0625171 0)
(3.00039 -0.0638045 0)
(2.99959 -0.0661442 0)
(2.99899 -0.0698683 0)
(3.0001 -0.075859 0)
(3.00193 -0.0847279 0)
(3.00792 -0.0964765 0)
(3.01865 -0.109493 0)
(3.01639 -0.120854 0)
(3.00446 -0.130733 0)
(2.99544 -0.135122 0)
(2.9933 -0.133208 0)
(2.99 -0.125735 0)
(2.9869 -0.109215 0)
(2.98692 -0.0990947 0)
(2.98097 -0.0882881 0)
(2.97465 -0.0782233 0)
(2.97235 -0.0687995 0)
(2.97516 -0.057674 0)
(2.98113 -0.0447812 0)
(2.98748 -0.033521 0)
(2.99072 -0.0275134 0)
(2.99084 -0.0258384 0)
(2.99032 -0.0255295 0)
(2.98849 -0.0257618 0)
(2.98667 -0.0268129 0)
(2.98652 -0.0271014 0)
(2.98622 -0.0273722 0)
(2.98612 -0.0275981 0)
(2.9865 -0.0285191 0)
(2.98749 -0.0307305 0)
(2.98928 -0.0288306 0)
(2.99002 -0.0273103 0)
(2.99015 -0.0246918 0)
(2.99144 -0.0206688 0)
(2.99367 -0.0166585 0)
(2.99636 -0.0106396 0)
(2.9997 -0.00322952 0)
(3.00353 0.00280777 0)
(3.00688 0.00608487 0)
(3.00959 0.00686357 0)
(3.01239 0.0058055 0)
(3.01797 0.00473363 0)
(3.02195 0.00468152 0)
(3.02093 0.00460562 0)
(3.02018 0.00438829 0)
(3.01793 0.00348588 0)
(3.0144 0.000419805 0)
(3.01231 -0.00223145 0)
(3.00975 -0.00547496 0)
(3.00816 -0.00823322 0)
(3.01268 -0.00846786 0)
(3.02787 -0.00434272 0)
(3.04459 0.000681878 0)
(3.04702 0.000209235 0)
(3.0439 -0.00109238 0)
(3.04026 -0.00361635 0)
(3.0364 -0.00895664 0)
(3.03536 -0.0108994 0)
(3.03445 -0.0114494 0)
(3.03792 -0.00933486 0)
(3.04967 -0.00127737 0)
(3.06518 0.00721242 0)
(3.07046 0.00693803 0)
(3.06758 0.00351115 0)
(3.06384 -0.000574679 0)
(3.05741 -0.00568718 0)
(3.05035 -0.0156097 0)
(3.04753 -0.0214541 0)
(3.0466 -0.0228693 0)
(3.04608 -0.0238836 0)
(3.04836 -0.0221017 0)
(3.05367 -0.017305 0)
(3.05943 -0.012868 0)
(3.06421 -0.011456 0)
(3.06983 -0.0122306 0)
(3.07869 -0.0137986 0)
(3.08668 -0.0160644 0)
(3.0876 -0.0186035 0)
(3.08583 -0.020401 0)
(3.08356 -0.0228538 0)
(3.08036 -0.025526 0)
(3.07497 -0.0289443 0)
(3.06751 -0.0338375 0)
(3.05643 -0.0405948 0)
(3.04418 -0.0481752 0)
(3.03804 -0.0516743 0)
(3.0367 -0.0522392 0)
(3.03445 -0.0532403 0)
(3.03239 -0.053913 0)
(3.03163 -0.0542418 0)
(3.03517 -0.0530137 0)
(3.04887 -0.0472117 0)
(3.07327 -0.0372196 0)
(3.08597 -0.0327339 0)
(3.08545 -0.033017 0)
(3.0838 -0.0334814 0)
(3.08205 -0.0341226 0)
(3.07553 -0.0361011 0)
(3.05717 -0.0433503 0)
(3.02778 -0.0552754 0)
(3.01321 -0.06039 0)
(3.01199 -0.0606693 0)
(3.0112 -0.0604724 0)
(3.01213 -0.0593701 0)
(3.01739 -0.0562813 0)
(3.02535 -0.051877 0)
(3.02752 -0.0498517 0)
(3.02648 -0.0493645 0)
(3.0252 -0.0491779 0)
(3.02372 -0.0489397 0)
(3.02216 -0.0485966 0)
(3.01855 -0.0479668 0)
(2.97577 -0.0671216 0)
(2.9773 -0.0531708 0)
(2.97215 -0.0471483 0)
(2.95849 -0.0490266 0)
(2.95469 -0.0515205 0)
(2.95618 -0.0638306 0)
(2.95497 -0.0899484 0)
(2.9623 -0.130501 0)
(2.9799 -0.153666 0)
(2.99199 -0.155907 0)
(2.99827 -0.148348 0)
(3.0054 -0.146092 0)
(3.01583 -0.131457 0)
(3.02161 -0.0866581 0)
(3.01691 -0.0651832 0)
(3.01138 -0.0616609 0)
(3.00564 -0.0595302 0)
(3.00636 -0.0609005 0)
(3.00578 -0.0638798 0)
(3.004 -0.0678681 0)
(3.00379 -0.0734846 0)
(3.00648 -0.0832167 0)
(3.01386 -0.0984447 0)
(3.02485 -0.115191 0)
(3.02044 -0.128999 0)
(3.00885 -0.137856 0)
(3.00566 -0.139169 0)
(3.00048 -0.138011 0)
(2.99734 -0.131564 0)
(2.99676 -0.117742 0)
(2.997 -0.10483 0)
(2.99219 -0.089775 0)
(2.9875 -0.0729175 0)
(2.98805 -0.0538805 0)
(2.99271 -0.0383827 0)
(2.99461 -0.0338261 0)
(2.99344 -0.0339107 0)
(2.99295 -0.0338404 0)
(2.99291 -0.0333997 0)
(2.99247 -0.032936 0)
(2.99108 -0.0329831 0)
(2.99017 -0.0326599 0)
(2.99051 -0.0322857 0)
(2.99067 -0.0323132 0)
(2.99052 -0.0336952 0)
(2.99061 -0.0368765 0)
(2.99201 -0.03924 0)
(2.99431 -0.0385415 0)
(2.99596 -0.0344516 0)
(2.99695 -0.0282363 0)
(2.99887 -0.0206543 0)
(3.00212 -0.0120101 0)
(3.00604 -0.00343295 0)
(3.00921 0.00228028 0)
(3.01084 0.00446598 0)
(3.01193 0.00449169 0)
(3.01292 0.00307543 0)
(3.01483 0.00069996 0)
(3.02022 -0.00147289 0)
(3.02351 -0.0018711 0)
(3.02259 -0.00168897 0)
(3.02167 -0.00158151 0)
(3.01935 -0.00164394 0)
(3.01756 -0.00179138 0)
(3.01689 -0.00191794 0)
(3.0165 -0.00205622 0)
(3.02075 -0.000497087 0)
(3.0333 0.00479838 0)
(3.04784 0.00701472 0)
(3.0523 0.000152426 0)
(3.0469 -0.00667918 0)
(3.04178 -0.0103566 0)
(3.03881 -0.0135233 0)
(3.03695 -0.0146324 0)
(3.03595 -0.0144553 0)
(3.03983 -0.0109323 0)
(3.05167 -0.00110485 0)
(3.06714 0.00883887 0)
(3.07255 0.00898492 0)
(3.07 0.00513536 0)
(3.06633 -9.11253e-05 0)
(3.05983 -0.00630125 0)
(3.05315 -0.0159286 0)
(3.05017 -0.0209602 0)
(3.04902 -0.0217133 0)
(3.04868 -0.021115 0)
(3.05215 -0.0179237 0)
(3.0583 -0.0137365 0)
(3.06306 -0.0121551 0)
(3.06535 -0.0132078 0)
(3.06755 -0.0149408 0)
(3.07335 -0.0161319 0)
(3.08359 -0.016577 0)
(3.08962 -0.0177494 0)
(3.08856 -0.0194318 0)
(3.08625 -0.0209295 0)
(3.08348 -0.0231165 0)
(3.07996 -0.0255571 0)
(3.07352 -0.0292311 0)
(3.06363 -0.0360485 0)
(3.05059 -0.0457087 0)
(3.04184 -0.0512687 0)
(3.04007 -0.0519719 0)
(3.03783 -0.0522391 0)
(3.03561 -0.0525231 0)
(3.03379 -0.0527915 0)
(3.03447 -0.052378 0)
(3.04195 -0.0489497 0)
(3.06204 -0.0398264 0)
(3.08346 -0.031484 0)
(3.08764 -0.0308569 0)
(3.08624 -0.0316545 0)
(3.08475 -0.0323941 0)
(3.08175 -0.0335637 0)
(3.07145 -0.0374839 0)
(3.04735 -0.0478637 0)
(3.02064 -0.0582926 0)
(3.01347 -0.0603146 0)
(3.01289 -0.0601449 0)
(3.01262 -0.0594146 0)
(3.01523 -0.057377 0)
(3.023 -0.0529845 0)
(3.02911 -0.0492156 0)
(3.02884 -0.0484614 0)
(3.02772 -0.0482888 0)
(3.02646 -0.0481606 0)
(3.02516 -0.0479189 0)
(3.0225 -0.0477686 0)
(3.0183 -0.0480755 0)
(2.97768 -0.0593599 0)
(2.98125 -0.0484367 0)
(2.98121 -0.0394031 0)
(2.96996 -0.0382828 0)
(2.96703 -0.0404653 0)
(2.96931 -0.0542438 0)
(2.96769 -0.0879668 0)
(2.96839 -0.131742 0)
(2.98381 -0.155426 0)
(2.99531 -0.160696 0)
(3.00234 -0.149242 0)
(3.01144 -0.146062 0)
(3.02349 -0.139808 0)
(3.0242 -0.0976643 0)
(3.02007 -0.0678131 0)
(3.01243 -0.0605862 0)
(3.00711 -0.0562992 0)
(3.00997 -0.0581374 0)
(3.00997 -0.0618486 0)
(3.00758 -0.0665073 0)
(3.00584 -0.0724655 0)
(3.0088 -0.0825463 0)
(3.01663 -0.102958 0)
(3.02441 -0.127374 0)
(3.02082 -0.139146 0)
(3.0177 -0.14137 0)
(3.01611 -0.143518 0)
(3.01034 -0.140732 0)
(3.00369 -0.130133 0)
(3.00372 -0.116314 0)
(3.0053 -0.100277 0)
(3.00479 -0.0800079 0)
(3.00539 -0.0546482 0)
(3.00742 -0.0345187 0)
(3.00503 -0.0302677 0)
(3.00018 -0.0326047 0)
(2.99616 -0.0387942 0)
(2.99309 -0.0415442 0)
(2.9911 -0.0418903 0)
(2.99069 -0.0425206 0)
(2.99033 -0.0430651 0)
(2.9909 -0.0432211 0)
(2.99135 -0.0434129 0)
(2.9919 -0.0436464 0)
(2.99268 -0.0445643 0)
(2.99443 -0.0462525 0)
(2.99823 -0.0455961 0)
(3.002 -0.0398298 0)
(3.00501 -0.031554 0)
(3.00775 -0.0228321 0)
(3.0098 -0.012374 0)
(3.01193 -0.00278319 0)
(3.01348 0.00285488 0)
(3.01407 0.00448526 0)
(3.01436 0.00457547 0)
(3.01473 0.00398232 0)
(3.01542 0.0028058 0)
(3.01741 0.00137484 0)
(3.02203 -0.00170822 0)
(3.02432 -0.00527129 0)
(3.02347 -0.00588298 0)
(3.02255 -0.00579065 0)
(3.02096 -0.00539518 0)
(3.02073 -0.00486676 0)
(3.02198 -0.00299014 0)
(3.02819 0.00236036 0)
(3.04176 0.0106746 0)
(3.05435 0.0131271 0)
(3.05601 0.0066133 0)
(3.05164 -0.00206534 0)
(3.04593 -0.010474 0)
(3.04148 -0.0156941 0)
(3.03836 -0.0174639 0)
(3.03728 -0.0171947 0)
(3.04115 -0.0134616 0)
(3.05309 -0.00302461 0)
(3.06883 0.00857241 0)
(3.07464 0.0106442 0)
(3.07299 0.00821867 0)
(3.07002 0.00381741 0)
(3.0625 -0.00426814 0)
(3.05629 -0.0151367 0)
(3.054 -0.0191169 0)
(3.05145 -0.0197768 0)
(3.0515 -0.018394 0)
(3.05552 -0.0148797 0)
(3.06068 -0.0121566 0)
(3.06368 -0.012683 0)
(3.06498 -0.0149366 0)
(3.06642 -0.0173633 0)
(3.07037 -0.0191493 0)
(3.07941 -0.0187657 0)
(3.09024 -0.0172086 0)
(3.09261 -0.0179092 0)
(3.09024 -0.0192953 0)
(3.08732 -0.0206502 0)
(3.08409 -0.0224148 0)
(3.07914 -0.024822 0)
(3.06984 -0.0307328 0)
(3.05645 -0.0423317 0)
(3.04535 -0.051026 0)
(3.0425 -0.0524525 0)
(3.04074 -0.0526877 0)
(3.03846 -0.0528905 0)
(3.03666 -0.05297 0)
(3.03613 -0.0526068 0)
(3.03958 -0.0503036 0)
(3.05292 -0.0429826 0)
(3.07664 -0.0320746 0)
(3.0887 -0.0282829 0)
(3.08832 -0.0292898 0)
(3.08669 -0.0302549 0)
(3.08484 -0.0313243 0)
(3.07975 -0.0334187 0)
(3.06471 -0.0401558 0)
(3.03642 -0.0527346 0)
(3.01714 -0.0599334 0)
(3.01454 -0.0604168 0)
(3.01412 -0.060067 0)
(3.01486 -0.058659 0)
(3.02009 -0.0551172 0)
(3.02887 -0.0500443 0)
(3.03149 -0.0479873 0)
(3.03041 -0.0478613 0)
(3.02926 -0.0478495 0)
(3.02803 -0.047794 0)
(3.02621 -0.0476978 0)
(3.02218 -0.0482482 0)
(3.01797 -0.0491005 0)
(2.9788 -0.0639237 0)
(2.98032 -0.0534607 0)
(2.984 -0.0327235 0)
(2.97945 -0.0242413 0)
(2.97829 -0.025265 0)
(2.98262 -0.0368164 0)
(2.98031 -0.0770685 0)
(2.97663 -0.122927 0)
(2.988 -0.149059 0)
(3.00028 -0.158562 0)
(3.00676 -0.151251 0)
(3.01613 -0.144804 0)
(3.02972 -0.14185 0)
(3.03009 -0.107791 0)
(3.02185 -0.0728112 0)
(3.01253 -0.0612032 0)
(3.00832 -0.0546574 0)
(3.01013 -0.0532616 0)
(3.01165 -0.057456 0)
(3.00991 -0.0637584 0)
(3.00756 -0.072451 0)
(3.00991 -0.0855342 0)
(3.01455 -0.109129 0)
(3.01877 -0.139191 0)
(3.02523 -0.145139 0)
(3.02609 -0.142794 0)
(3.02463 -0.14076 0)
(3.01873 -0.13669 0)
(3.012 -0.126195 0)
(3.01196 -0.113236 0)
(3.01564 -0.0963082 0)
(3.01898 -0.0682728 0)
(3.02126 -0.0382604 0)
(3.01552 -0.0310854 0)
(3.0101 -0.0323664 0)
(3.00559 -0.0374339 0)
(3.00108 -0.0447973 0)
(2.99692 -0.0492092 0)
(2.99519 -0.0506282 0)
(2.99518 -0.0514451 0)
(2.99563 -0.0518667 0)
(2.99606 -0.0522029 0)
(2.99674 -0.0531086 0)
(2.9971 -0.0542394 0)
(2.99839 -0.0545102 0)
(3.00165 -0.0521332 0)
(3.00773 -0.0450144 0)
(3.01444 -0.0328702 0)
(3.01882 -0.0195229 0)
(3.02042 -0.00812989 0)
(3.01994 -0.000161993 0)
(3.01876 0.0033985 0)
(3.01651 0.0047133 0)
(3.01572 0.00422895 0)
(3.01581 0.00377505 0)
(3.01649 0.0026941 0)
(3.01818 0.000992152 0)
(3.02113 -0.00181007 0)
(3.02419 -0.00610679 0)
(3.02508 -0.00994206 0)
(3.02421 -0.0117004 0)
(3.02305 -0.0123599 0)
(3.02264 -0.0122668 0)
(3.02404 -0.0105039 0)
(3.02992 -0.00403498 0)
(3.04373 0.0085243 0)
(3.06128 0.017893 0)
(3.06422 0.0142524 0)
(3.05853 0.00653814 0)
(3.05231 -0.00290336 0)
(3.04618 -0.0116089 0)
(3.04122 -0.0160751 0)
(3.03851 -0.017172 0)
(3.04101 -0.0145903 0)
(3.05252 -0.00501952 0)
(3.06937 0.00764599 0)
(3.0766 0.0111637 0)
(3.0758 0.00959474 0)
(3.07375 0.00663033 0)
(3.06683 -0.000860965 0)
(3.05993 -0.0113881 0)
(3.05742 -0.0147947 0)
(3.05445 -0.015772 0)
(3.05498 -0.0150152 0)
(3.05908 -0.0131855 0)
(3.06206 -0.0132192 0)
(3.06298 -0.0149428 0)
(3.06361 -0.0172787 0)
(3.06469 -0.0196521 0)
(3.06761 -0.0217584 0)
(3.07524 -0.0214339 0)
(3.08801 -0.0176593 0)
(3.09605 -0.0155138 0)
(3.09501 -0.0165405 0)
(3.09204 -0.0178049 0)
(3.08882 -0.0192459 0)
(3.08487 -0.0213697 0)
(3.07608 -0.0264241 0)
(3.06237 -0.0383026 0)
(3.0492 -0.0496054 0)
(3.04502 -0.0521557 0)
(3.04337 -0.0523608 0)
(3.04098 -0.0521527 0)
(3.03917 -0.0517241 0)
(3.03823 -0.0509557 0)
(3.03968 -0.0491105 0)
(3.04728 -0.0441804 0)
(3.06669 -0.0345932 0)
(3.08647 -0.0273844 0)
(3.08998 -0.0274668 0)
(3.08863 -0.028653 0)
(3.08692 -0.0298483 0)
(3.0844 -0.0312544 0)
(3.07603 -0.0348298 0)
(3.05524 -0.0446641 0)
(3.0271 -0.0569147 0)
(3.01665 -0.0603949 0)
(3.01595 -0.0603182 0)
(3.01568 -0.0595067 0)
(3.01821 -0.0571564 0)
(3.02611 -0.0523785 0)
(3.03297 -0.0482676 0)
(3.03295 -0.0474795 0)
(3.03191 -0.0474296 0)
(3.03077 -0.0473343 0)
(3.02936 -0.0472047 0)
(3.02586 -0.0476258 0)
(3.0212 -0.0494357 0)
(3.01813 -0.0498698 0)
(2.98275 -0.0719128 0)
(2.98026 -0.0622518 0)
(2.98572 -0.0335675 0)
(2.98808 -0.0184901 0)
(2.98824 -0.0186755 0)
(2.99448 -0.0318404 0)
(2.99793 -0.0773851 0)
(2.99133 -0.116942 0)
(2.99524 -0.147536 0)
(3.00412 -0.155492 0)
(3.01215 -0.154213 0)
(3.01892 -0.144934 0)
(3.02944 -0.139491 0)
(3.03462 -0.117404 0)
(3.02129 -0.0775831 0)
(3.01292 -0.0603503 0)
(3.00816 -0.0541637 0)
(3.00948 -0.0504928 0)
(3.01131 -0.0518639 0)
(3.01114 -0.0594981 0)
(3.00961 -0.0718284 0)
(3.01104 -0.0891118 0)
(3.01177 -0.118098 0)
(3.02051 -0.141172 0)
(3.02883 -0.142705 0)
(3.02956 -0.139815 0)
(3.03003 -0.135751 0)
(3.02702 -0.130149 0)
(3.02215 -0.120984 0)
(3.02124 -0.108745 0)
(3.02383 -0.088173 0)
(3.02709 -0.0565016 0)
(3.02144 -0.0415849 0)
(3.01732 -0.0409279 0)
(3.01412 -0.0412655 0)
(3.00898 -0.0442625 0)
(3.00477 -0.0515101 0)
(2.99979 -0.0559676 0)
(2.99608 -0.0581912 0)
(2.9969 -0.059394 0)
(2.99731 -0.0594587 0)
(2.99772 -0.0600249 0)
(2.99852 -0.0616793 0)
(3.00081 -0.0616745 0)
(3.00545 -0.0571939 0)
(3.01376 -0.046398 0)
(3.02487 -0.0291826 0)
(3.03204 -0.0129024 0)
(3.03191 -0.0033763 0)
(3.03012 0.000949766 0)
(3.02848 0.00343681 0)
(3.02318 0.00539505 0)
(3.0183 0.00383029 0)
(3.01762 0.00239259 0)
(3.01796 0.00152783 0)
(3.01928 -0.000281589 0)
(3.02148 -0.00300841 0)
(3.02397 -0.00800583 0)
(3.02456 -0.0147034 0)
(3.02333 -0.018964 0)
(3.02241 -0.0212859 0)
(3.02299 -0.0212305 0)
(3.02573 -0.0180047 0)
(3.03181 -0.0123725 0)
(3.04295 -0.00252648 0)
(3.05826 0.010447 0)
(3.06861 0.0159756 0)
(3.06755 0.0123868 0)
(3.06167 0.00610362 0)
(3.05481 -0.00231859 0)
(3.0482 -0.00978093 0)
(3.04316 -0.0139158 0)
(3.04247 -0.0139475 0)
(3.05103 -0.00755171 0)
(3.06801 0.00445454 0)
(3.07802 0.0103071 0)
(3.07795 0.0096655 0)
(3.07617 0.00754154 0)
(3.07076 0.00215441 0)
(3.06425 -0.00739971 0)
(3.06168 -0.0107908 0)
(3.05922 -0.0114544 0)
(3.05916 -0.011425 0)
(3.06145 -0.0123254 0)
(3.06243 -0.0150566 0)
(3.0624 -0.0178358 0)
(3.06237 -0.0204809 0)
(3.06294 -0.0228062 0)
(3.06486 -0.024831 0)
(3.07073 -0.024431 0)
(3.0831 -0.0193731 0)
(3.0966 -0.0134163 0)
(3.09943 -0.0128695 0)
(3.09701 -0.0142783 0)
(3.09366 -0.0160297 0)
(3.09013 -0.0183616 0)
(3.08211 -0.0229292 0)
(3.06863 -0.0345621 0)
(3.05402 -0.0474882 0)
(3.04806 -0.0511546 0)
(3.04636 -0.0515693 0)
(3.04383 -0.0520497 0)
(3.0419 -0.0519945 0)
(3.04086 -0.0511181 0)
(3.04149 -0.0488804 0)
(3.04557 -0.0445551 0)
(3.05781 -0.0371576 0)
(3.0789 -0.0286669 0)
(3.09013 -0.0261443 0)
(3.09 -0.0272386 0)
(3.08861 -0.0283866 0)
(3.08687 -0.0296992 0)
(3.08279 -0.0316666 0)
(3.07036 -0.0374397 0)
(3.04419 -0.0498631 0)
(3.02157 -0.0593273 0)
(3.01754 -0.0605025 0)
(3.01703 -0.06019 0)
(3.01764 -0.0587399 0)
(3.02278 -0.0552184 0)
(3.03207 -0.0499635 0)
(3.03533 -0.0475025 0)
(3.03432 -0.0472716 0)
(3.03333 -0.0471511 0)
(3.03212 -0.0470199 0)
(3.02971 -0.0472159 0)
(3.02475 -0.0485833 0)
(3.0208 -0.0501162 0)