/*--------------------------------*- C++ -*----------------------------------*\
  =========                 |
  \\      /  F ield         | OpenFOAM: The Open Source CFD Toolbox
   \\    /   O peration     | Website:  https://openfoam.org
    \\  /    A nd           | Version:  7
     \\/     M anipulation  |
\*---------------------------------------------------------------------------*/
FoamFile
{
    version     2.0;
    format      ascii;
    class       volVectorField;
    location    "2.9";
    object      U;
}
// * * * * * * * * * * * * * * * * * * * * * * * * * * * * * * * * * * * * * //

dimensions      [0 1 -1 0 0 0 0];

internalField   nonuniform List<vector> 
66048
(
(3 6.06764e-17 0)
(3 2.02211e-16 0)
(3 2.02445e-16 0)
(3 2.05864e-16 0)
(3 1.1321e-16 0)
(3 2.34393e-16 0)
(3 -3.24275e-17 0)
(3 -3.1942e-16 0)
(3 1.22777e-17 0)
(3 -1.83275e-16 0)
(3 -2.8195e-16 0)
(3 1.19997e-16 0)
(3 2.16278e-16 0)
(3 7.4236e-16 0)
(3 9.7954e-16 0)
(3 8.6792e-16 0)
(3 2.8115e-16 0)
(3 -3.44535e-16 0)
(3 3.29336e-16 0)
(3 9.85341e-16 0)
(3 1.29903e-15 0)
(3 1.29026e-15 0)
(3 6.99044e-16 0)
(3 5.79654e-16 0)
(3 9.71832e-16 0)
(3 5.56055e-16 0)
(3 -1.56176e-16 0)
(3 -2.72555e-16 0)
(3 -9.39682e-17 0)
(3 -1.27653e-16 0)
(3 -1.99952e-16 0)
(3 -3.59479e-16 0)
(3 -1.68618e-15 0)
(3 -1.93222e-15 0)
(3 -3.93446e-16 0)
(3 6.71361e-16 0)
(3 -2.06392e-17 0)
(3 -3.08557e-16 0)
(3 -7.53883e-16 0)
(3 -9.28091e-16 0)
(3 -5.63119e-16 0)
(3 2.81744e-16 0)
(3 5.97151e-16 0)
(3 1.58575e-16 0)
(3 -3.52282e-16 0)
(3 1.78971e-16 0)
(3 4.65343e-16 0)
(3 2.46827e-16 0)
(3 -3.42174e-16 0)
(3 -1.27441e-15 0)
(3 -1.59913e-15 0)
(3 -4.00396e-16 0)
(3 -8.75255e-17 0)
(3 -2.5244e-16 0)
(3 -5.25237e-16 0)
(3 -4.97167e-16 0)
(3 -1.78916e-16 0)
(3 3.00468e-16 0)
(3 1.01618e-16 0)
(3 -5.9238e-17 0)
(3 2.49346e-16 0)
(3 7.474e-16 0)
(3 -1.84536e-16 0)
(3 -1.40419e-15 0)
(3 -1.22828e-15 0)
(3 -9.44415e-16 0)
(3 -1.00971e-15 0)
(3 -8.01049e-16 0)
(3 -2.4034e-16 0)
(3 -5.36643e-16 0)
(3 -1.11757e-15 0)
(3 9.56374e-16 0)
(1.46124 0.00830226 0)
(0.770129 0.00891192 0)
(0.723281 0.01116 0)
(0.696784 0.0120429 0)
(0.666994 0.0125306 0)
(0.637689 0.0130308 0)
(0.60763 0.0134853 0)
(0.577182 0.0137844 0)
(0.546653 0.0138812 0)
(0.516416 0.0138373 0)
(0.486568 0.0138538 0)
(0.456698 0.0141669 0)
(0.426184 0.0147021 0)
(0.394848 0.0151644 0)
(0.362916 0.0154985 0)
(0.330424 0.0158757 0)
(0.297126 0.016379 0)
(0.262739 0.0169951 0)
(0.227014 0.0177294 0)
(0.189697 0.018589 0)
(0.150597 0.019563 0)
(0.109442 0.0206576 0)
(0.0664777 0.0212371 0)
(0.0231022 0.0219253 0)
(3 2.22963e-16 0)
(3 1.14952e-16 0)
(3 -2.97314e-16 0)
(3 -4.51456e-16 0)
(3 -1.79006e-16 0)
(3 2.05701e-17 0)
(3 -1.30077e-16 0)
(3 -7.58041e-16 0)
(3 -1.04128e-15 0)
(3 -1.1991e-15 0)
(3 -3.51515e-16 0)
(3 4.08324e-16 0)
(3 7.08106e-16 0)
(3 1.01996e-15 0)
(3 1.24497e-15 0)
(3 1.29633e-15 0)
(3 9.23188e-16 0)
(3 4.41214e-16 0)
(3 7.42814e-16 0)
(3 1.92321e-15 0)
(3 2.28041e-15 0)
(3 1.96949e-15 0)
(3 1.58295e-15 0)
(3 1.83893e-15 0)
(3 2.38879e-15 0)
(3 1.80386e-15 0)
(3 3.37363e-16 0)
(3 -3.42949e-16 0)
(3 -3.83138e-16 0)
(3 5.40955e-17 0)
(3 1.65721e-17 0)
(3 -3.73711e-16 0)
(3 -1.3655e-15 0)
(3 -1.69931e-15 0)
(3 -9.64643e-16 0)
(3 5.97344e-16 0)
(3 7.16706e-16 0)
(3 -1.35115e-15 0)
(3 -1.62319e-15 0)
(3 -1.18161e-15 0)
(3 5.68902e-17 0)
(3 9.67721e-16 0)
(3 1.17937e-15 0)
(3 1.02045e-15 0)
(3 4.51357e-16 0)
(3 7.16556e-16 0)
(3 7.80262e-16 0)
(3 6.50302e-16 0)
(3 -1.48224e-16 0)
(3 -7.88384e-16 0)
(3 -7.85415e-16 0)
(3 8.78698e-17 0)
(3 5.84746e-16 0)
(3 7.50872e-16 0)
(3 9.01738e-17 0)
(3 -1.06733e-15 0)
(3 -1.08897e-15 0)
(3 4.99782e-17 0)
(3 -1.64649e-16 0)
(3 -9.82212e-16 0)
(3 -1.08184e-15 0)
(3 1.81698e-16 0)
(3 -8.23197e-16 0)
(3 -1.9922e-15 0)
(3 -2.43799e-15 0)
(3 -2.10633e-15 0)
(3 -1.73977e-15 0)
(3 -7.49058e-16 0)
(3 -8.93228e-16 0)
(3 -8.69677e-16 0)
(3 -8.2885e-16 0)
(3 -4.25973e-15 0)
(1.47625 0.0384516 0)
(0.766048 0.0359369 0)
(0.715753 0.0330846 0)
(0.688927 0.0347185 0)
(0.659137 0.0360962 0)
(0.629874 0.0376722 0)
(0.599876 0.0391774 0)
(0.569449 0.0402107 0)
(0.538881 0.0405947 0)
(0.508567 0.0404847 0)
(0.478648 0.0405373 0)
(0.448757 0.0415433 0)
(0.418284 0.0432788 0)
(0.387026 0.0447969 0)
(0.355236 0.0459171 0)
(0.323017 0.0471735 0)
(0.290192 0.0488318 0)
(0.256532 0.0508471 0)
(0.221817 0.0532138 0)
(0.18575 0.055956 0)
(0.148012 0.0590319 0)
(0.108162 0.0625401 0)
(0.0661048 0.0646236 0)
(0.0232009 0.0671977 0)
(3 -8.90686e-18 0)
(3 -5.01359e-16 0)
(3 -1.17716e-15 0)
(3 -1.24346e-15 0)
(3 -1.21376e-15 0)
(3 -1.01803e-15 0)
(3 -1.00612e-15 0)
(3 -1.0889e-15 0)
(3 -1.34829e-15 0)
(3 -1.07477e-15 0)
(3 8.09963e-17 0)
(3 1.34102e-15 0)
(3 1.29719e-15 0)
(3 5.76902e-16 0)
(3 2.01115e-16 0)
(3 4.16392e-16 0)
(3 3.32952e-16 0)
(3 8.21113e-16 0)
(3 8.81914e-16 0)
(3 8.21319e-16 0)
(3 9.437e-16 0)
(3 1.58093e-15 0)
(3 2.17667e-15 0)
(3 2.56353e-15 0)
(3 2.55056e-15 0)
(3 2.19064e-15 0)
(3 1.46628e-15 0)
(3 6.00816e-16 0)
(3 -1.05818e-16 0)
(3 2.08849e-17 0)
(3 2.39462e-17 0)
(3 -6.00809e-16 0)
(3 -1.22809e-15 0)
(3 -2.18896e-15 0)
(3 -2.79903e-15 0)
(3 -3.04472e-15 0)
(3 -2.41113e-15 0)
(3 -6.64367e-16 0)
(3 -7.17204e-16 0)
(3 -6.07776e-16 0)
(3 -5.21919e-16 0)
(3 5.80063e-16 0)
(3 1.17183e-15 0)
(3 4.87284e-16 0)
(3 2.50679e-16 0)
(3 1.26067e-16 0)
(3 4.97771e-16 0)
(3 5.95748e-16 0)
(3 4.98229e-16 0)
(3 4.94556e-16 0)
(3 3.09829e-16 0)
(3 3.52717e-16 0)
(3 6.90975e-16 0)
(3 1.54329e-15 0)
(3 1.42038e-15 0)
(3 -2.80314e-17 0)
(3 -1.7029e-16 0)
(3 4.30542e-17 0)
(3 2.23127e-16 0)
(3 2.12162e-17 0)
(3 -1.99715e-15 0)
(3 -2.7466e-15 0)
(3 -2.2028e-15 0)
(3 -1.89305e-15 0)
(3 -1.40897e-15 0)
(3 -1.61023e-15 0)
(3 -1.52652e-15 0)
(3 -1.29812e-15 0)
(3 -1.61408e-15 0)
(3 -1.61928e-15 0)
(3 -1.30185e-15 0)
(3 -4.06207e-15 0)
(1.52447 0.0678813 0)
(0.772663 0.0626886 0)
(0.717855 0.0573327 0)
(0.689426 0.0593712 0)
(0.658605 0.0613692 0)
(0.628629 0.0637616 0)
(0.598159 0.0661481 0)
(0.567334 0.0678483 0)
(0.536323 0.0685259 0)
(0.505472 0.0683475 0)
(0.474948 0.068345 0)
(0.444467 0.0698759 0)
(0.413461 0.0726331 0)
(0.381641 0.075044 0)
(0.349239 0.0767456 0)
(0.316406 0.0785782 0)
(0.283059 0.0809794 0)
(0.2491 0.0839008 0)
(0.214474 0.087393 0)
(0.179021 0.0916215 0)
(0.14245 0.0965806 0)
(0.104276 0.102564 0)
(0.0638627 0.106448 0)
(0.0226396 0.111378 0)
(3 -1.53208e-16 0)
(3 -3.45946e-16 0)
(3 -3.96234e-16 0)
(3 -1.75178e-16 0)
(3 -2.03006e-16 0)
(3 -5.68072e-17 0)
(3 -1.43097e-16 0)
(3 -7.83016e-17 0)
(3 3.49965e-16 0)
(3 7.16193e-16 0)
(3 8.37183e-16 0)
(3 9.46233e-16 0)
(3 6.58676e-16 0)
(3 2.08089e-16 0)
(3 2.69281e-17 0)
(3 -6.71203e-16 0)
(3 -9.54838e-16 0)
(3 -1.33846e-16 0)
(3 3.76165e-17 0)
(3 1.85211e-16 0)
(3 -1.10356e-16 0)
(3 6.1537e-17 0)
(3 -1.00818e-16 0)
(3 -3.56437e-17 0)
(3 4.28038e-16 0)
(3 2.58127e-16 0)
(3 2.32433e-16 0)
(3 -4.34328e-16 0)
(3 -7.5173e-16 0)
(3 -8.72197e-16 0)
(3 -8.78253e-16 0)
(3 -6.32153e-16 0)
(3 -7.03901e-16 0)
(3 -1.19593e-15 0)
(3 -2.08283e-15 0)
(3 -2.41898e-15 0)
(3 -2.0823e-15 0)
(3 -6.54399e-16 0)
(3 1.3426e-16 0)
(3 2.3086e-16 0)
(3 3.61939e-16 0)
(3 9.34395e-16 0)
(3 7.22301e-16 0)
(3 -1.22053e-16 0)
(3 -5.47671e-16 0)
(3 -5.55217e-16 0)
(3 -2.83736e-16 0)
(3 -3.37345e-16 0)
(3 -3.03913e-16 0)
(3 -6.81879e-16 0)
(3 -6.96145e-16 0)
(3 1.05667e-16 0)
(3 1.5548e-15 0)
(3 1.6148e-15 0)
(3 1.39e-15 0)
(3 1.20736e-15 0)
(3 6.55894e-16 0)
(3 -1.1662e-17 0)
(3 4.20509e-16 0)
(3 -7.12313e-16 0)
(3 -1.54961e-15 0)
(3 -2.4837e-15 0)
(3 -2.38713e-15 0)
(3 -2.08423e-15 0)
(3 -1.8068e-15 0)
(3 -1.838e-15 0)
(3 -1.82536e-15 0)
(3 -1.81216e-15 0)
(3 -1.66358e-15 0)
(3 -1.8228e-15 0)
(3 -1.97495e-15 0)
(3 -4.52364e-16 0)
(1.5977 0.0943783 0)
(0.781031 0.08928 0)
(0.721022 0.0825083 0)
(0.691905 0.0842186 0)
(0.660991 0.0865266 0)
(0.631214 0.0895463 0)
(0.601141 0.0927723 0)
(0.570686 0.0952484 0)
(0.539856 0.096452 0)
(0.508924 0.0964706 0)
(0.478092 0.0966051 0)
(0.447203 0.0987942 0)
(0.415758 0.102733 0)
(0.383338 0.10628 0)
(0.350112 0.108834 0)
(0.316251 0.111455 0)
(0.281731 0.114675 0)
(0.246541 0.118358 0)
(0.210794 0.122529 0)
(0.174572 0.127547 0)
(0.137815 0.133538 0)
(0.100357 0.141378 0)
(0.0611285 0.146833 0)
(0.0217316 0.154098 0)
(3 7.65222e-17 0)
(3 3.66666e-16 0)
(3 1.0903e-15 0)
(3 1.11394e-15 0)
(3 1.40748e-15 0)
(3 1.21096e-15 0)
(3 7.80559e-16 0)
(3 9.28186e-16 0)
(3 1.15454e-15 0)
(3 1.64e-15 0)
(3 1.23997e-15 0)
(3 6.3944e-16 0)
(3 7.10339e-16 0)
(3 5.93993e-16 0)
(3 -1.08486e-17 0)
(3 -5.87638e-16 0)
(3 -7.2601e-16 0)
(3 -7.60576e-16 0)
(3 -1.1125e-16 0)
(3 2.31545e-16 0)
(3 -4.6989e-16 0)
(3 -1.02099e-15 0)
(3 -6.47433e-16 0)
(3 -1.04995e-16 0)
(3 -1.59423e-16 0)
(3 -2.908e-16 0)
(3 -2.53454e-16 0)
(3 -3.3068e-16 0)
(3 -5.41716e-16 0)
(3 -5.79434e-16 0)
(3 -7.60804e-16 0)
(3 -1.08493e-15 0)
(3 -1.16672e-15 0)
(3 -6.23359e-16 0)
(3 -7.42171e-16 0)
(3 -1.07023e-15 0)
(3 -1.4935e-15 0)
(3 -1.27475e-15 0)
(3 -7.60897e-16 0)
(3 1.30941e-16 0)
(3 1.11979e-17 0)
(3 1.20757e-16 0)
(3 3.03043e-16 0)
(3 3.12159e-17 0)
(3 -4.36368e-16 0)
(3 -3.74824e-16 0)
(3 -4.45402e-16 0)
(3 -6.17459e-16 0)
(3 -8.32325e-16 0)
(3 -1.06768e-15 0)
(3 -6.76586e-16 0)
(3 -2.89611e-16 0)
(3 -1.10542e-16 0)
(3 -4.69211e-16 0)
(3 -5.92449e-16 0)
(3 -8.96784e-17 0)
(3 -6.35628e-16 0)
(3 -7.86528e-16 0)
(3 -1.22943e-15 0)
(3 -1.13614e-15 0)
(3 -1.32748e-15 0)
(3 -1.67676e-15 0)
(3 -1.39567e-15 0)
(3 -8.69919e-16 0)
(3 -9.46118e-16 0)
(3 -1.91267e-15 0)
(3 -2.34281e-15 0)
(3 -2.71528e-15 0)
(3 -2.26828e-15 0)
(3 -9.2952e-16 0)
(3 -4.93086e-16 0)
(3 -2.20403e-15 0)
(1.69823 0.120812 0)
(0.791556 0.116366 0)
(0.72328 0.109232 0)
(0.693073 0.109652 0)
(0.661855 0.111809 0)
(0.632174 0.115121 0)
(0.602501 0.119029 0)
(0.572531 0.12231 0)
(0.542099 0.124204 0)
(0.511388 0.124606 0)
(0.480657 0.124914 0)
(0.449923 0.127679 0)
(0.418813 0.132756 0)
(0.38673 0.137521 0)
(0.353722 0.14109 0)
(0.319932 0.144698 0)
(0.285284 0.148979 0)
(0.24969 0.15369 0)
(0.213233 0.158719 0)
(0.176085 0.164512 0)
(0.138345 0.171127 0)
(0.10032 0.180208 0)
(0.0607371 0.186667 0)
(0.0216474 0.195752 0)
(3 6.13491e-17 0)
(3 3.00948e-16 0)
(3 7.0521e-16 0)
(3 6.29966e-16 0)
(3 1.12384e-16 0)
(3 -3.50174e-16 0)
(3 -1.0727e-16 0)
(3 5.26032e-16 0)
(3 9.48246e-16 0)
(3 7.24368e-16 0)
(3 1.97659e-17 0)
(3 -1.23015e-16 0)
(3 2.62762e-16 0)
(3 1.63187e-16 0)
(3 -6.24945e-16 0)
(3 -9.22785e-16 0)
(3 -6.81388e-16 0)
(3 -2.94426e-16 0)
(3 -2.40454e-16 0)
(3 -1.00274e-15 0)
(3 -1.07934e-15 0)
(3 -1.50413e-16 0)
(3 3.58852e-16 0)
(3 8.97138e-16 0)
(3 1.17044e-15 0)
(3 7.21515e-16 0)
(3 3.65017e-16 0)
(3 1.04499e-15 0)
(3 9.49186e-16 0)
(3 5.93478e-16 0)
(3 3.31326e-16 0)
(3 -2.18415e-16 0)
(3 -5.29439e-16 0)
(3 -1.12253e-15 0)
(3 -2.17709e-15 0)
(3 -2.4252e-15 0)
(3 -2.37837e-15 0)
(3 -1.94259e-15 0)
(3 -4.99746e-16 0)
(3 -4.92758e-16 0)
(3 -4.63377e-16 0)
(3 -2.53182e-16 0)
(3 7.3463e-16 0)
(3 9.0375e-16 0)
(3 5.54814e-16 0)
(3 -2.17331e-16 0)
(3 -4.82133e-16 0)
(3 -4.48223e-16 0)
(3 -5.59595e-16 0)
(3 -3.62498e-17 0)
(3 -2.39764e-16 0)
(3 -7.16555e-16 0)
(3 -1.02149e-15 0)
(3 -1.62372e-15 0)
(3 -1.59105e-15 0)
(3 -6.24337e-16 0)
(3 -2.22958e-16 0)
(3 -5.24391e-16 0)
(3 -5.27599e-16 0)
(3 -3.34991e-16 0)
(3 -4.78919e-17 0)
(3 4.94045e-16 0)
(3 4.87245e-16 0)
(3 9.93322e-16 0)
(3 1.20563e-15 0)
(3 -7.08261e-16 0)
(3 -1.62887e-15 0)
(3 -1.80407e-15 0)
(3 -1.54956e-15 0)
(3 -1.21458e-15 0)
(3 -5.38787e-16 0)
(3 -1.56389e-15 0)
(1.83496 0.145214 0)
(0.807987 0.143941 0)
(0.727859 0.13758 0)
(0.696522 0.13574 0)
(0.664836 0.137386 0)
(0.635007 0.140762 0)
(0.605412 0.145234 0)
(0.575615 0.149354 0)
(0.545314 0.152118 0)
(0.514577 0.153144 0)
(0.483689 0.153707 0)
(0.45284 0.156945 0)
(0.421815 0.163065 0)
(0.389841 0.169083 0)
(0.356811 0.173769 0)
(0.322876 0.178471 0)
(0.287977 0.183933 0)
(0.252006 0.189825 0)
(0.215022 0.195849 0)
(0.177249 0.202522 0)
(0.138788 0.209649 0)
(0.100342 0.219742 0)
(0.0604232 0.22692 0)
(0.0215701 0.237474 0)
(3 -1.33416e-16 0)
(3 -2.9961e-16 0)
(3 6.54151e-17 0)
(3 1.19422e-17 0)
(3 -6.20146e-16 0)
(3 -6.80201e-16 0)
(3 -4.05902e-16 0)
(3 -4.08039e-16 0)
(3 -1.36151e-16 0)
(3 -2.82817e-16 0)
(3 -4.03984e-16 0)
(3 -4.45071e-16 0)
(3 9.34903e-17 0)
(3 -2.74986e-17 0)
(3 -3.97882e-16 0)
(3 -4.12749e-16 0)
(3 -5.81189e-16 0)
(3 -7.56427e-16 0)
(3 -1.38071e-15 0)
(3 -1.62113e-15 0)
(3 -1.44018e-15 0)
(3 -1.12862e-15 0)
(3 3.49805e-16 0)
(3 1.19107e-15 0)
(3 1.20532e-15 0)
(3 8.00636e-16 0)
(3 2.75589e-16 0)
(3 3.11645e-16 0)
(3 7.31248e-16 0)
(3 1.11971e-15 0)
(3 1.34539e-15 0)
(3 1.47985e-15 0)
(3 1.42226e-15 0)
(3 -1.08752e-16 0)
(3 -1.97811e-15 0)
(3 -1.97132e-15 0)
(3 -1.18983e-15 0)
(3 -2.12803e-16 0)
(3 2.38637e-16 0)
(3 3.00933e-16 0)
(3 4.05007e-16 0)
(3 3.29133e-16 0)
(3 3.20561e-16 0)
(3 -2.23147e-17 0)
(3 4.26751e-16 0)
(3 -3.25215e-16 0)
(3 -7.74161e-16 0)
(3 -8.04864e-16 0)
(3 -4.58149e-16 0)
(3 1.93196e-16 0)
(3 2.2395e-16 0)
(3 -3.19144e-16 0)
(3 -1.2194e-15 0)
(3 -1.54736e-15 0)
(3 -1.0527e-15 0)
(3 -2.138e-16 0)
(3 3.10003e-16 0)
(3 2.5506e-16 0)
(3 2.61736e-16 0)
(3 6.19131e-16 0)
(3 7.28038e-16 0)
(3 7.28059e-16 0)
(3 8.64762e-16 0)
(3 6.06383e-16 0)
(3 -2.21466e-16 0)
(3 -1.85098e-16 0)
(3 6.35566e-18 0)
(3 -4.42994e-16 0)
(3 -1.92748e-15 0)
(3 -1.71936e-15 0)
(3 -8.48413e-16 0)
(3 5.41977e-16 0)
(2.00672 0.163758 0)
(0.830541 0.171813 0)
(0.733707 0.166611 0)
(0.702236 0.161795 0)
(0.670768 0.162624 0)
(0.641561 0.165817 0)
(0.612859 0.170628 0)
(0.584093 0.175461 0)
(0.554745 0.179116 0)
(0.52467 0.180963 0)
(0.494092 0.181904 0)
(0.463364 0.185571 0)
(0.432469 0.192724 0)
(0.400491 0.200186 0)
(0.367157 0.206299 0)
(0.332675 0.212392 0)
(0.297053 0.219292 0)
(0.260202 0.226615 0)
(0.222151 0.233855 0)
(0.183164 0.24163 0)
(0.143243 0.249332 0)
(0.103434 0.26034 0)
(0.0620668 0.26805 0)
(0.0221805 0.279781 0)
(3 -1.03576e-16 0)
(3 1.64784e-16 0)
(3 2.22806e-16 0)
(3 2.82303e-16 0)
(3 5.50927e-16 0)
(3 7.72484e-16 0)
(3 5.114e-16 0)
(3 -3.55973e-16 0)
(3 -8.29852e-16 0)
(3 -8.33221e-16 0)
(3 -2.80234e-16 0)
(3 -3.06874e-16 0)
(3 -6.91327e-16 0)
(3 -4.5521e-16 0)
(3 1.23988e-16 0)
(3 1.20272e-16 0)
(3 -3.17148e-16 0)
(3 -9.01254e-16 0)
(3 -9.93725e-16 0)
(3 -6.10682e-16 0)
(3 -5.12e-16 0)
(3 -6.39903e-16 0)
(3 -5.44246e-16 0)
(3 2.14475e-16 0)
(3 3.53648e-16 0)
(3 1.23081e-16 0)
(3 -5.87422e-16 0)
(3 -4.63357e-16 0)
(3 6.93247e-17 0)
(3 4.68222e-16 0)
(3 5.97415e-16 0)
(3 8.32397e-16 0)
(3 1.33256e-15 0)
(3 1.22851e-15 0)
(3 3.20571e-16 0)
(3 8.46491e-17 0)
(3 3.46578e-16 0)
(3 5.68045e-16 0)
(3 1.45556e-16 0)
(3 -7.08147e-16 0)
(3 -1.32067e-15 0)
(3 -9.64665e-16 0)
(3 -8.6529e-16 0)
(3 -2.86603e-16 0)
(3 2.35295e-16 0)
(3 9.36309e-16 0)
(3 1.549e-15 0)
(3 1.47429e-15 0)
(3 1.56378e-15 0)
(3 6.95117e-16 0)
(3 2.28234e-16 0)
(3 -4.19186e-16 0)
(3 -1.45017e-15 0)
(3 -1.26058e-15 0)
(3 -6.83967e-16 0)
(3 1.40195e-16 0)
(3 1.0379e-15 0)
(3 1.07746e-15 0)
(3 5.32211e-16 0)
(3 -2.81128e-16 0)
(3 -6.6753e-16 0)
(3 -9.07634e-16 0)
(3 -1.02081e-15 0)
(3 -1.35603e-15 0)
(3 -1.26101e-15 0)
(3 -1.52481e-16 0)
(3 3.55195e-16 0)
(3 -3.84392e-16 0)
(3 -7.59162e-16 0)
(3 -2.09488e-15 0)
(3 -1.77722e-15 0)
(3 -2.49261e-15 0)
(2.20923 0.177044 0)
(0.854476 0.204412 0)
(0.732467 0.196978 0)
(0.701265 0.188591 0)
(0.669674 0.188489 0)
(0.640663 0.191233 0)
(0.612354 0.196102 0)
(0.584267 0.201549 0)
(0.55583 0.206194 0)
(0.526765 0.209129 0)
(0.497169 0.210644 0)
(0.467505 0.214681 0)
(0.437972 0.222795 0)
(0.407402 0.231795 0)
(0.375133 0.239538 0)
(0.341283 0.247248 0)
(0.305824 0.255826 0)
(0.268651 0.264866 0)
(0.229796 0.273595 0)
(0.189688 0.282726 0)
(0.148283 0.291131 0)
(0.106984 0.303007 0)
(0.0640162 0.311121 0)
(0.0228043 0.323773 0)
(3 -6.6549e-17 0)
(3 -3.47832e-16 0)
(3 -6.40617e-16 0)
(3 -4.21293e-16 0)
(3 2.60122e-17 0)
(3 3.447e-16 0)
(3 4.21331e-16 0)
(3 2.67551e-16 0)
(3 -2.5344e-16 0)
(3 -4.66068e-16 0)
(3 -4.24681e-16 0)
(3 -3.98783e-16 0)
(3 -3.04601e-16 0)
(3 -4.10853e-17 0)
(3 9.02594e-16 0)
(3 1.28608e-15 0)
(3 1.27815e-15 0)
(3 6.03917e-16 0)
(3 -4.43e-17 0)
(3 -5.33157e-16 0)
(3 -5.92308e-16 0)
(3 -4.59228e-16 0)
(3 -4.23289e-16 0)
(3 -8.12649e-16 0)
(3 -8.25975e-16 0)
(3 -2.38197e-17 0)
(3 3.48899e-16 0)
(3 1.13311e-15 0)
(3 1.60403e-15 0)
(3 9.59142e-16 0)
(3 5.95981e-16 0)
(3 4.77292e-16 0)
(3 9.30394e-16 0)
(3 1.29734e-15 0)
(3 2.15618e-15 0)
(3 1.96485e-15 0)
(3 1.77361e-15 0)
(3 1.2391e-15 0)
(3 8.8883e-16 0)
(3 -4.99937e-16 0)
(3 -1.70052e-15 0)
(3 -1.85853e-15 0)
(3 -9.80825e-16 0)
(3 -2.52157e-17 0)
(3 1.10851e-15 0)
(3 2.25174e-15 0)
(3 2.42949e-15 0)
(3 2.52595e-15 0)
(3 1.71539e-15 0)
(3 1.04781e-15 0)
(3 6.16497e-16 0)
(3 -6.46517e-16 0)
(3 -1.02544e-15 0)
(3 -1.24089e-15 0)
(3 -1.45268e-15 0)
(3 -1.63864e-15 0)
(3 -7.8417e-16 0)
(3 -8.90943e-17 0)
(3 2.6552e-16 0)
(3 -1.78485e-16 0)
(3 -7.58688e-16 0)
(3 -1.8087e-15 0)
(3 -2.7282e-15 0)
(3 -2.63421e-15 0)
(3 -1.48396e-15 0)
(3 -6.05155e-16 0)
(3 -3.14642e-16 0)
(3 -7.80837e-17 0)
(3 -1.03002e-16 0)
(3 -2.728e-15 0)
(3 -2.35341e-15 0)
(3 -4.17645e-15 0)
(2.44788 0.187947 0)
(0.89451 0.24452 0)
(0.743804 0.226412 0)
(0.71556 0.217323 0)
(0.682796 0.216387 0)
(0.652309 0.218529 0)
(0.622277 0.223111 0)
(0.592809 0.228605 0)
(0.56343 0.233586 0)
(0.533775 0.237164 0)
(0.503786 0.238948 0)
(0.474019 0.242861 0)
(0.445041 0.251524 0)
(0.41562 0.26203 0)
(0.384555 0.27169 0)
(0.351769 0.281451 0)
(0.317098 0.292208 0)
(0.280306 0.303501 0)
(0.241228 0.314226 0)
(0.200315 0.325212 0)
(0.157286 0.334834 0)
(0.113841 0.347954 0)
(0.0681731 0.356703 0)
(0.0242707 0.370266 0)
(3 -3.69734e-17 0)
(3 -4.04598e-16 0)
(3 -8.34854e-16 0)
(3 -5.69668e-16 0)
(3 -4.60244e-16 0)
(3 -3.6569e-16 0)
(3 -6.07376e-16 0)
(3 -8.21038e-16 0)
(3 -8.98563e-16 0)
(3 -9.77046e-16 0)
(3 -8.47569e-16 0)
(3 -7.06479e-16 0)
(3 1.47557e-16 0)
(3 1.17024e-15 0)
(3 1.59863e-15 0)
(3 1.82403e-15 0)
(3 2.01875e-15 0)
(3 1.50165e-15 0)
(3 5.70675e-16 0)
(3 -5.95328e-16 0)
(3 -8.94939e-16 0)
(3 -5.07494e-16 0)
(3 -3.56598e-16 0)
(3 -5.17403e-16 0)
(3 -9.62457e-16 0)
(3 -1.34473e-16 0)
(3 7.2238e-16 0)
(3 1.4257e-15 0)
(3 1.89563e-15 0)
(3 1.11155e-15 0)
(3 7.59424e-16 0)
(3 7.97522e-16 0)
(3 7.31103e-16 0)
(3 1.09966e-15 0)
(3 1.83672e-15 0)
(3 2.09747e-15 0)
(3 2.27046e-15 0)
(3 9.13622e-16 0)
(3 7.8338e-17 0)
(3 3.4143e-17 0)
(3 -3.69209e-16 0)
(3 -4.44895e-16 0)
(3 -2.88242e-16 0)
(3 -2.02126e-17 0)
(3 9.10431e-16 0)
(3 9.3896e-16 0)
(3 5.79498e-16 0)
(3 5.40858e-16 0)
(3 5.38511e-17 0)
(3 -9.06873e-17 0)
(3 -2.62418e-16 0)
(3 -9.66636e-17 0)
(3 2.01379e-16 0)
(3 -3.68195e-16 0)
(3 -6.07604e-16 0)
(3 -1.18553e-15 0)
(3 -1.91969e-15 0)
(3 -1.9918e-15 0)
(3 -1.46502e-15 0)
(3 -1.92535e-15 0)
(3 -2.06171e-15 0)
(3 -2.27222e-15 0)
(3 -2.78689e-15 0)
(3 -3.12624e-15 0)
(3 -2.68212e-15 0)
(3 -2.09262e-15 0)
(3 -1.73314e-15 0)
(3 -1.50205e-15 0)
(3 -1.40526e-15 0)
(3 -1.68789e-15 0)
(3 -1.70376e-15 0)
(3 -2.5151e-15 0)
(2.71744 0.182987 0)
(0.969195 0.279691 0)
(0.77843 0.241384 0)
(0.752151 0.239914 0)
(0.716008 0.242157 0)
(0.682392 0.245416 0)
(0.648692 0.250442 0)
(0.615638 0.256454 0)
(0.582954 0.262193 0)
(0.550469 0.266711 0)
(0.518003 0.2689 0)
(0.48614 0.272274 0)
(0.455811 0.280759 0)
(0.42614 0.292222 0)
(0.395473 0.303546 0)
(0.363441 0.315355 0)
(0.329588 0.328559 0)
(0.293274 0.342737 0)
(0.253832 0.356372 0)
(0.211759 0.370183 0)
(0.166725 0.381868 0)
(0.120863 0.396662 0)
(0.0723654 0.406244 0)
(0.0254606 0.420483 0)
(3 8.72807e-17 0)
(3 -6.44668e-17 0)
(3 -8.81298e-17 0)
(3 -6.50337e-17 0)
(3 -2.24776e-17 0)
(3 -1.47402e-16 0)
(3 -5.86466e-16 0)
(3 -9.04971e-16 0)
(3 -1.18505e-15 0)
(3 -1.41692e-15 0)
(3 -1.70969e-15 0)
(3 -1.08438e-15 0)
(3 -1.04907e-15 0)
(3 2.56651e-16 0)
(3 3.37913e-16 0)
(3 5.36549e-17 0)
(3 -5.28323e-16 0)
(3 -8.64593e-16 0)
(3 -5.97461e-16 0)
(3 -7.29229e-16 0)
(3 -3.99043e-16 0)
(3 -2.38043e-16 0)
(3 -4.04319e-16 0)
(3 -1.04283e-17 0)
(3 2.26369e-16 0)
(3 8.01863e-16 0)
(3 8.2757e-16 0)
(3 5.59317e-16 0)
(3 1.00049e-15 0)
(3 9.40351e-16 0)
(3 8.757e-17 0)
(3 -4.61888e-16 0)
(3 -1.29983e-16 0)
(3 3.39762e-16 0)
(3 1.91323e-16 0)
(3 1.95834e-16 0)
(3 2.99841e-16 0)
(3 -1.01016e-17 0)
(3 -9.92715e-16 0)
(3 -1.52101e-15 0)
(3 -1.33794e-15 0)
(3 -1.03825e-15 0)
(3 -1.31603e-15 0)
(3 -9.25474e-16 0)
(3 -4.5772e-16 0)
(3 -5.51881e-16 0)
(3 -4.48721e-18 0)
(3 6.71068e-17 0)
(3 1.5272e-16 0)
(3 -7.14054e-16 0)
(3 -1.46285e-15 0)
(3 -2.02461e-16 0)
(3 2.95529e-16 0)
(3 6.95614e-16 0)
(3 6.12433e-16 0)
(3 -1.17647e-16 0)
(3 -3.04179e-15 0)
(3 -3.68124e-15 0)
(3 -3.46271e-15 0)
(3 -3.38936e-15 0)
(3 -2.97045e-15 0)
(3 -1.59786e-15 0)
(3 -1.21424e-15 0)
(3 -1.22299e-15 0)
(3 -2.93268e-15 0)
(3 -3.28591e-15 0)
(3 -1.72349e-15 0)
(3 -1.50162e-15 0)
(3 -1.89731e-15 0)
(3 -1.80607e-15 0)
(3 -1.85539e-15 0)
(3 -2.05453e-15 0)
(2.96132 0.0710759 0)
(1.06691 0.291207 0)
(0.807257 0.256862 0)
(0.790496 0.263753 0)
(0.754645 0.269147 0)
(0.719569 0.274377 0)
(0.683235 0.280701 0)
(0.647367 0.287484 0)
(0.611924 0.293581 0)
(0.576625 0.298753 0)
(0.541176 0.301457 0)
(0.506269 0.304082 0)
(0.473195 0.311668 0)
(0.441807 0.323327 0)
(0.410336 0.335723 0)
(0.378166 0.349237 0)
(0.344713 0.364886 0)
(0.309159 0.382345 0)
(0.270262 0.399476 0)
(0.228266 0.416668 0)
(0.182087 0.43119 0)
(0.133629 0.448776 0)
(0.0806958 0.460414 0)
(0.0285183 0.475931 0)
(3 3.99349e-17 0)
(3 -1.18363e-16 0)
(3 -4.69008e-16 0)
(3 -5.76719e-16 0)
(3 -8.60017e-16 0)
(3 -6.40431e-16 0)
(3 -3.97474e-16 0)
(3 -3.57252e-16 0)
(3 -6.35106e-16 0)
(3 -1.36409e-15 0)
(3 -1.33689e-15 0)
(3 -1.10987e-15 0)
(3 -8.05391e-16 0)
(3 -8.39009e-16 0)
(3 -8.86855e-16 0)
(3 -7.53466e-16 0)
(3 -1.09734e-15 0)
(3 -1.66414e-15 0)
(3 -1.6738e-15 0)
(3 -9.94914e-16 0)
(3 -6.22448e-16 0)
(3 -7.17013e-16 0)
(3 -1.12427e-15 0)
(3 -7.55095e-16 0)
(3 -2.40157e-16 0)
(3 -3.9083e-16 0)
(3 -8.51557e-16 0)
(3 -1.08787e-15 0)
(3 -1.26451e-15 0)
(3 -2.61443e-16 0)
(3 -6.80125e-16 0)
(3 -4.67846e-16 0)
(3 -2.09369e-16 0)
(3 -5.81105e-17 0)
(3 -5.73915e-16 0)
(3 -8.65324e-16 0)
(3 -1.20274e-15 0)
(3 -8.7198e-16 0)
(3 -4.865e-16 0)
(3 -7.25943e-16 0)
(3 -7.43825e-16 0)
(3 -8.71277e-16 0)
(3 -1.21993e-15 0)
(3 -1.49497e-15 0)
(3 -1.41434e-15 0)
(3 -1.14429e-15 0)
(3 -9.53224e-16 0)
(3 -2.83032e-16 0)
(3 -1.48456e-16 0)
(3 -2.81814e-16 0)
(3 -1.20459e-15 0)
(3 -8.01594e-16 0)
(3 5.18369e-17 0)
(3 3.11537e-16 0)
(3 -1.11305e-16 0)
(3 -1.69839e-15 0)
(3 -2.96205e-15 0)
(3 -2.8727e-15 0)
(3 -2.66005e-15 0)
(3 -2.03236e-15 0)
(3 -1.57286e-15 0)
(3 -1.24548e-15 0)
(3 -3.7284e-16 0)
(3 -2.19189e-16 0)
(3 -1.84575e-15 0)
(3 -3.08202e-15 0)
(3 -2.61565e-15 0)
(3 -2.27495e-15 0)
(3 -2.0701e-15 0)
(3 -1.58262e-15 0)
(3 -1.49462e-15 0)
(3 -1.61068e-15 0)
(3.01595 0.00628697 0)
(1.15492 0.286993 0)
(0.80732 0.270635 0)
(0.797637 0.293618 0)
(0.768913 0.301464 0)
(0.740555 0.306071 0)
(0.710021 0.311352 0)
(0.677697 0.318298 0)
(0.643602 0.326039 0)
(0.608253 0.332894 0)
(0.571571 0.336827 0)
(0.534306 0.339156 0)
(0.498182 0.345471 0)
(0.464098 0.356651 0)
(0.43074 0.369438 0)
(0.397546 0.384003 0)
(0.363946 0.401469 0)
(0.328952 0.422076 0)
(0.290211 0.443426 0)
(0.247153 0.465777 0)
(0.197983 0.485608 0)
(0.14565 0.507882 0)
(0.0881832 0.522848 0)
(0.0300046 0.539071 0)
(3 -3.87582e-17 0)
(3 2.91482e-17 0)
(3 -3.0402e-16 0)
(3 -4.49661e-16 0)
(3 -8.43646e-16 0)
(3 -8.67389e-16 0)
(3 -6.06865e-16 0)
(3 -4.16146e-16 0)
(3 -6.0615e-16 0)
(3 -9.1604e-16 0)
(3 -8.60114e-17 0)
(3 4.16617e-17 0)
(3 3.61402e-16 0)
(3 -9.52158e-16 0)
(3 -1.19652e-15 0)
(3 -1.17949e-15 0)
(3 -1.09333e-15 0)
(3 -1.01616e-15 0)
(3 -1.1253e-15 0)
(3 -2.28759e-16 0)
(3 8.65453e-17 0)
(3 -4.44102e-17 0)
(3 -3.07452e-17 0)
(3 -3.38275e-16 0)
(3 -1.09065e-15 0)
(3 -1.74043e-15 0)
(3 -1.72159e-15 0)
(3 -1.53234e-15 0)
(3 -2.05556e-15 0)
(3 -1.62445e-15 0)
(3 -2.12606e-15 0)
(3 1.5754e-16 0)
(3 1.59442e-16 0)
(3 -5.37444e-16 0)
(3 -9.86337e-16 0)
(3 -1.18751e-15 0)
(3 -1.66188e-15 0)
(3 -1.74445e-15 0)
(3 -1.16508e-15 0)
(3 -3.43421e-16 0)
(3 6.63588e-16 0)
(3 5.11631e-16 0)
(3 3.4982e-16 0)
(3 -1.20679e-15 0)
(3 -1.96868e-15 0)
(3 -1.80336e-15 0)
(3 -1.82089e-15 0)
(3 -1.61147e-15 0)
(3 -1.2603e-15 0)
(3 -7.24054e-16 0)
(3 -5.54931e-16 0)
(3 -4.35426e-16 0)
(3 2.59005e-17 0)
(3 5.79328e-17 0)
(3 -5.9397e-16 0)
(3 -7.54288e-16 0)
(3 -5.81244e-16 0)
(3 -1.05169e-15 0)
(3 -1.02676e-15 0)
(3 -7.3159e-16 0)
(3 -2.65513e-16 0)
(3 -3.54425e-16 0)
(3 -3.98569e-16 0)
(3 -6.0147e-16 0)
(3 -1.71632e-15 0)
(3 -2.31251e-15 0)
(3 -3.14421e-15 0)
(3 -2.74576e-15 0)
(3 -2.54945e-15 0)
(3 -2.71566e-15 0)
(3 -2.51375e-15 0)
(3 -2.42236e-15 0)
(3.00049 1.38875e-05 0)
(1.28909 0.307324 0)
(0.797219 0.277978 0)
(0.779728 0.308367 0)
(0.757391 0.325191 0)
(0.735161 0.332757 0)
(0.713787 0.339313 0)
(0.692113 0.346976 0)
(0.667566 0.355584 0)
(0.638256 0.364826 0)
(0.604574 0.371963 0)
(0.567845 0.376016 0)
(0.530231 0.381978 0)
(0.493721 0.392722 0)
(0.458034 0.405414 0)
(0.423094 0.420343 0)
(0.388193 0.439158 0)
(0.35311 0.462924 0)
(0.314857 0.489253 0)
(0.272666 0.517703 0)
(0.224193 0.542957 0)
(0.171153 0.570827 0)
(0.106688 0.592874 0)
(0.0384976 0.613396 0)
(3 -1.20529e-16 0)
(3 8.53003e-17 0)
(3 1.08549e-16 0)
(3 -4.33038e-17 0)
(3 -2.95358e-16 0)
(3 -8.07806e-16 0)
(3 -8.6512e-16 0)
(3 -2.69631e-16 0)
(3 7.81079e-17 0)
(3 7.52022e-16 0)
(3 9.97862e-16 0)
(3 6.0396e-16 0)
(3 -4.18665e-16 0)
(3 -1.50036e-15 0)
(3 -2.07614e-15 0)
(3 -2.42273e-15 0)
(3 -2.28799e-15 0)
(3 -1.05874e-15 0)
(3 3.56795e-16 0)
(3 7.28055e-16 0)
(3 9.12194e-16 0)
(3 1.11461e-15 0)
(3 9.86956e-16 0)
(3 2.58718e-16 0)
(3 -1.02567e-15 0)
(3 -7.24987e-16 0)
(3 -1.02472e-16 0)
(3 -2.72686e-16 0)
(3 -1.26249e-15 0)
(3 -2.00174e-15 0)
(3 -1.63934e-15 0)
(3 -1.19911e-15 0)
(3 -4.32256e-16 0)
(3 2.86916e-17 0)
(3 -5.59279e-17 0)
(3 -7.86173e-16 0)
(3 -1.65505e-15 0)
(3 -1.42976e-15 0)
(3 -1.10928e-15 0)
(3 -3.44535e-16 0)
(3 1.25077e-16 0)
(3 4.14211e-16 0)
(3 6.307e-16 0)
(3 3.29139e-16 0)
(3 -3.7445e-16 0)
(3 -1.32562e-15 0)
(3 -1.55222e-15 0)
(3 -1.70896e-15 0)
(3 -9.71771e-16 0)
(3 -2.21392e-16 0)
(3 -9.26999e-19 0)
(3 -3.37362e-16 0)
(3 -1.14874e-15 0)
(3 -1.21534e-15 0)
(3 -1.12967e-15 0)
(3 -6.61198e-16 0)
(3 -8.46091e-17 0)
(3 4.13976e-18 0)
(3 4.70305e-16 0)
(3 4.35322e-16 0)
(3 6.31609e-16 0)
(3 2.5401e-16 0)
(3 -9.05348e-16 0)
(3 -9.73632e-16 0)
(3 -7.37537e-16 0)
(3 -1.70562e-15 0)
(3 -2.14837e-15 0)
(3 -2.39866e-15 0)
(3 -2.80772e-15 0)
(3 -4.06023e-15 0)
(3 -3.83412e-15 0)
(3 -3.10944e-15 0)
(3 -4.79892e-08 0)
(1.51153 0.337201 0)
(0.808493 0.310578 0)
(0.75124 0.318729 0)
(0.734497 0.332241 0)
(0.717612 0.341735 0)
(0.70288 0.352458 0)
(0.687217 0.364552 0)
(0.671642 0.378763 0)
(0.653083 0.392529 0)
(0.628688 0.404168 0)
(0.59816 0.412249 0)
(0.56362 0.41988 0)
(0.527802 0.431196 0)
(0.491226 0.443958 0)
(0.454717 0.459204 0)
(0.418878 0.478588 0)
(0.384011 0.504595 0)
(0.346807 0.535029 0)
(0.306241 0.570046 0)
(0.255306 0.605536 0)
(0.194953 0.646236 0)
(0.12279 0.684146 0)
(0.0388036 0.709478 0)
(3 -1.21922e-17 0)
(3 1.14799e-16 0)
(3 2.00339e-16 0)
(3 4.41273e-16 0)
(3 9.45682e-16 0)
(3 3.88631e-16 0)
(3 1.28962e-16 0)
(3 5.20197e-16 0)
(3 8.41175e-16 0)
(3 9.71947e-16 0)
(3 5.72552e-16 0)
(3 -5.5159e-16 0)
(3 -8.77344e-16 0)
(3 -7.06875e-16 0)
(3 -1.13385e-15 0)
(3 -1.09343e-15 0)
(3 -5.56652e-16 0)
(3 1.56604e-16 0)
(3 9.56223e-16 0)
(3 1.11979e-15 0)
(3 1.38548e-15 0)
(3 1.4425e-15 0)
(3 1.12386e-15 0)
(3 6.06403e-16 0)
(3 2.87239e-17 0)
(3 -2.61697e-16 0)
(3 -5.41438e-16 0)
(3 -8.31154e-16 0)
(3 -7.1056e-16 0)
(3 -1.6381e-15 0)
(3 -2.01872e-15 0)
(3 -1.51362e-15 0)
(3 -7.53375e-17 0)
(3 7.10255e-16 0)
(3 6.81113e-16 0)
(3 -6.30381e-17 0)
(3 -8.72319e-16 0)
(3 -9.52084e-16 0)
(3 -7.40386e-16 0)
(3 -5.38522e-16 0)
(3 -5.92803e-16 0)
(3 -6.55789e-16 0)
(3 -7.40215e-16 0)
(3 -2.82426e-16 0)
(3 -5.67557e-17 0)
(3 -5.57651e-16 0)
(3 -6.83749e-16 0)
(3 -8.85246e-16 0)
(3 5.64175e-17 0)
(3 2.65015e-16 0)
(3 6.21303e-17 0)
(3 -8.8646e-16 0)
(3 -1.93941e-15 0)
(3 -2.62961e-15 0)
(3 -2.43784e-15 0)
(3 -1.7593e-15 0)
(3 -1.13845e-15 0)
(3 -1.6382e-16 0)
(3 2.08537e-16 0)
(3 -1.55431e-16 0)
(3 -3.49086e-16 0)
(3 -1.44013e-16 0)
(3 -8.83115e-17 0)
(3 -3.7084e-16 0)
(3 1.95139e-16 0)
(3 -4.55057e-16 0)
(3 -1.56252e-15 0)
(3 -2.83324e-15 0)
(3 -2.70518e-15 0)
(3 -2.23069e-15 0)
(3 -2.46616e-15 0)
(3 -9.72013e-16 0)
(3 -6.13375e-08 0)
(1.85087 0.376097 0)
(0.837751 0.371387 0)
(0.744952 0.350127 0)
(0.725456 0.349363 0)
(0.710708 0.356492 0)
(0.696235 0.365487 0)
(0.682111 0.377112 0)
(0.668386 0.392034 0)
(0.655347 0.410099 0)
(0.640417 0.428162 0)
(0.619167 0.442675 0)
(0.592058 0.454804 0)
(0.561453 0.468937 0)
(0.52708 0.483908 0)
(0.491673 0.500133 0)
(0.455774 0.51977 0)
(0.420965 0.547379 0)
(0.384924 0.582426 0)
(0.346319 0.626809 0)
(0.300487 0.676547 0)
(0.246014 0.728667 0)
(0.177487 0.781453 0)
(0.0691768 0.828604 0)
(3 1.44736e-16 0)
(3 -1.01168e-16 0)
(3 3.91658e-16 0)
(3 7.90121e-16 0)
(3 9.1059e-16 0)
(3 1.22379e-15 0)
(3 1.30882e-15 0)
(3 7.63017e-16 0)
(3 7.14036e-16 0)
(3 3.90637e-16 0)
(3 2.02731e-16 0)
(3 -1.5659e-16 0)
(3 -2.32655e-16 0)
(3 2.25406e-16 0)
(3 6.19712e-16 0)
(3 5.58669e-16 0)
(3 8.25189e-16 0)
(3 8.59068e-16 0)
(3 6.44048e-16 0)
(3 3.36241e-16 0)
(3 4.30434e-16 0)
(3 1.05767e-15 0)
(3 1.87313e-15 0)
(3 2.08192e-15 0)
(3 6.62562e-16 0)
(3 -8.08781e-16 0)
(3 -6.93924e-16 0)
(3 -6.37825e-16 0)
(3 -3.15535e-16 0)
(3 -1.0131e-15 0)
(3 -2.02552e-15 0)
(3 -1.57687e-15 0)
(3 -2.05334e-16 0)
(3 1.67773e-16 0)
(3 -2.8634e-17 0)
(3 4.44947e-17 0)
(3 -1.21069e-16 0)
(3 -2.58535e-16 0)
(3 -1.41955e-16 0)
(3 -3.84933e-16 0)
(3 -3.95029e-16 0)
(3 -3.25361e-16 0)
(3 -5.34561e-16 0)
(3 -6.88888e-16 0)
(3 5.22005e-17 0)
(3 1.33061e-15 0)
(3 1.3695e-15 0)
(3 7.27105e-16 0)
(3 3.76832e-16 0)
(3 3.12978e-16 0)
(3 -2.5429e-16 0)
(3 -1.2128e-15 0)
(3 -1.71608e-15 0)
(3 -1.62365e-15 0)
(3 -1.03739e-15 0)
(3 -3.04342e-16 0)
(3 -2.43311e-16 0)
(3 -1.85293e-16 0)
(3 -4.91486e-16 0)
(3 6.96276e-17 0)
(3 -1.19106e-15 0)
(3 -1.11023e-15 0)
(3 -4.81446e-16 0)
(3 -6.6097e-16 0)
(3 -2.06072e-16 0)
(3 -5.99252e-16 0)
(3 -1.9606e-15 0)
(3 -2.91465e-15 0)
(3 -2.5979e-15 0)
(3 -1.89707e-15 0)
(3 -1.56278e-15 0)
(3 -3.76889e-16 0)
(3 -1.30786e-08 0)