/*--------------------------------*- C++ -*----------------------------------*\
  =========                 |
  \\      /  F ield         | OpenFOAM: The Open Source CFD Toolbox
   \\    /   O peration     | Website:  https://openfoam.org
    \\  /    A nd           | Version:  7
     \\/     M anipulation  |
\*---------------------------------------------------------------------------*/
FoamFile
{
    version     2.0;
    format      ascii;
    class       volScalarField;
    location    "2.6";
    object      p;
}
// * * * * * * * * * * * * * * * * * * * * * * * * * * * * * * * * * * * * * //

dimensions      [1 -1 -2 0 0 0 0];

internalField   nonuniform List<scalar> 
4128
(
1
1
1
1
1
1
1
1
1
1
1.00054
1.03466
1.4521
2.88835
4.64535
4.84761
4.79658
4.73325
4.63151
4.59181
4.50933
4.41069
4.33268
4.26875
4.20978
4.15766
4.08842
4.01049
3.93974
3.86971
3.81068
3.7522
3.69182
3.64702
3.59117
3.53528
3.49217
3.43175
3.37863
3.33195
3.26427
3.2022
3.16598
3.10188
3.05578
3.03612
2.99695
2.96231
2.92277
2.87917
2.83713
2.78221
2.73647
2.69859
2.63891
2.61551
2.59282
2.55975
2.53386
2.49923
2.47226
2.43909
2.39789
2.36542
2.3175
2.28503
2.26529
2.24109
2.21875
2.1895
2.17347
2.15123
2.12012
2.08993
2.05454
2.03164
2.01
1.98832
1.95781
1.93452
1.91336
1.89506
1.91567
2.3137
1
1
1
1
1
1
1
1
1
1
1
1
1
1
1
1.00043
1.02307
1.37657
3.08556
4.55499
4.73962
4.75129
4.70211
4.62655
4.52246
4.43747
4.37344
4.3157
4.26186
4.20817
4.13986
4.05669
3.97333
3.90569
3.84791
3.78001
3.74162
3.69586
3.63661
3.59184
3.53311
3.46882
3.42657
3.36546
3.29209
3.25233
3.20217
3.13784
3.11449
3.07919
3.03935
3.00286
2.95953
2.92147
2.87065
2.81585
2.77885
2.72243
2.67835
2.66196
2.62909
2.59932
2.56744
2.5341
2.5079
2.469
2.4327
2.39505
2.34529
2.3236
2.29989
2.27681
2.24912
2.2226
2.20684
2.17871
2.15013
2.11983
2.09132
2.0688
2.04388
2.01648
1.98025
1.9648
1.95131
1.92109
1.91502
1.96727
1
1
1
1
1
1
1
1
1
1
1
1
1
1
1
1
1.00026
1.02109
1.44221
3.2037
4.31691
4.68473
4.74915
4.66352
4.55233
4.49199
4.43638
4.36423
4.31315
4.2594
4.17966
4.0848
4.00547
3.94702
3.87287
3.82875
3.80209
3.74661
3.69579
3.64165
3.56057
3.51316
3.46553
3.39178
3.34034
3.29841
3.2319
3.19535
3.16292
3.12171
3.0851
3.03818
3.00244
2.9588
2.89999
2.8567
2.81172
2.74973
2.73037
2.70362
2.6668
2.63921
2.5995
2.57099
2.54034
2.50029
2.46805
2.41955
2.38381
2.36199
2.33504
2.31121
2.27625
2.25554
2.23672
2.20627
2.18126
2.15207
2.12924
2.10358
2.07575
2.04186
2.00686
1.99668
1.98432
1.95981
1.9297
1.92835
1
1
1
1
1
1
1
1
1
1
1
1
1
1
1
1
1
1.00033
1.02666
1.51467
3.02897
4.20445
4.7047
4.72962
4.65104
4.56653
4.47266
4.40779
4.37513
4.31311
4.2081
4.11178
4.04873
3.97809
3.9133
3.89668
3.86137
3.80447
3.75266
3.66863
3.59115
3.55185
3.49404
3.43513
3.39566
3.33588
3.28112
3.24157
3.19917
3.16498
3.11911
3.08136
3.0451
2.98975
2.93902
2.8997
2.83385
2.79891
2.77784
2.73756
2.70639
2.67302
2.63456
2.60883
2.57204
2.53717
2.50019
2.4511
2.42573
2.39757
2.37045
2.34176
2.3051
2.28939
2.26546
2.2379
2.21263
2.18768
2.16587
2.13579
2.10596
2.0667
2.04028
2.02979
2.0144
1.99216
1.96067
1.93892
1
1
1
1
1
1
1
1
1
1
1
1
1
1
1
1
1
1
1.00043
1.03108
1.4612
2.67274
4.23492
4.72696
4.67143
4.59212
4.51327
4.47613
4.4533
4.35264
4.22778
4.14992
4.08842
4.01285
3.98503
3.96976
3.91589
3.8589
3.79124
3.69173
3.62699
3.58217
3.52873
3.48577
3.43691
3.38048
3.33163
3.28494
3.24598
3.19897
3.15643
3.12655
3.07655
3.01736
2.97912
2.92626
2.8722
2.85399
2.81799
2.7767
2.74551
2.69945
2.67012
2.64135
2.60442
2.57627
2.53111
2.4943
2.46526
2.43126
2.40418
2.36599
2.33707
2.32194
2.29505
2.27133
2.24464
2.2241
2.19905
2.16625
2.13469
2.09381
2.07573
2.06103
2.04243
2.01758
1.99152
1.96947
1
1
1
1
1
1
1
1
1
1
1
1
1
1
1
1
1
1
1
1.00043
1.02322
1.30498
2.55496
4.36209
4.58713
4.6078
4.57446
4.55868
4.48752
4.35181
4.25126
4.19926
4.12851
4.07574
4.06838
4.03068
3.95853
3.89382
3.81704
3.7233
3.66616
3.62505
3.58002
3.52799
3.47109
3.41899
3.3709
3.33214
3.28841
3.23893
3.21022
3.16695
3.10374
3.05748
3.01324
2.94681
2.92186
2.89667
2.85224
2.82005
2.77727
2.73505
2.70742
2.67194
2.64429
2.61203
2.57053
2.53938
2.50073
2.4661
2.43553
2.3908
2.37195
2.35283
2.32754
2.30372
2.27969
2.26071
2.23076
2.1988
2.16363
2.12568
2.1096
2.09038
2.06919
2.03816
2.021
2.00514
1
1
1
1
1
1
1
1
1
1
1
1
1
1
1
1
1
1
1
1
1.00023
1.01335
1.26134
2.72984
4.18107
4.48692
4.61212
4.60702
4.49423
4.35658
4.31421
4.26803
4.18144
4.14768
4.13229
4.06462
3.98611
3.9202
3.84691
3.76453
3.71199
3.67305
3.62296
3.56428
3.50979
3.46016
3.41824
3.3776
3.32426
3.2906
3.2539
3.1911
3.13243
3.09724
3.03835
2.99107
2.97308
2.9355
2.89497
2.85651
2.80679
2.77193
2.73715
2.70746
2.68416
2.64619
2.6153
2.57744
2.53248
2.50083
2.46139
2.42136
2.40689
2.38387
2.36077
2.33364
2.31413
2.293
2.26019
2.23115
2.19209
2.16043
2.1418
2.11993
2.09536
2.06252
2.05123
2.03869
1
1
1
1
1
1
1
1
1
1
1
1
1
1
1
1
1
1
1
1
1
1.00015
1.01245
1.30773
2.7715
3.93287
4.49326
4.62765
4.53606
4.45679
4.41103
4.30824
4.22998
4.21691
4.17756
4.08467
4.01248
3.95393
3.88862
3.81333
3.76362
3.71846
3.65853
3.59775
3.54598
3.50408
3.46937
3.42043
3.37802
3.34239
3.28346
3.21136
3.16984
3.12734
3.06336
3.04038
3.01767
2.9781
2.9395
2.89218
2.84552
2.8052
2.77154
2.74884
2.71453
2.68775
2.65767
2.60846
2.56537
2.53337
2.48419
2.45842
2.44169
2.41889
2.39452
2.36724
2.34977
2.3228
2.29083
2.2619
2.21826
2.19265
2.17101
2.14873
2.11969
2.09337
2.08345
2.06756
1
1
1
1
1
1
1
1
1
1
1
1
1
1
1
1
1
1
1
1
1
1
1.00017
1.01539
1.34645
2.51249
3.74539
4.54744
4.63314
4.56273
4.42854
4.32222
4.28982
4.2916
4.20805
4.108
4.04612
3.99528
3.93512
3.86138
3.8148
3.7607
3.69354
3.6364
3.59056
3.55623
3.51638
3.46988
3.43081
3.37667
3.30071
3.2417
3.21036
3.15429
3.10836
3.09205
3.06189
3.02037
2.97506
2.92521
2.8778
2.83987
2.81532
2.77956
2.75323
2.73406
2.69175
2.6367
2.60086
2.56068
2.51095
2.49523
2.47564
2.4546
2.42541
2.40361
2.3836
2.35162
2.32409
2.2908
2.24685
2.22363
2.19997
2.17667
2.14437
2.12725
2.11505
2.09527
1
1
1
1
1
1
1
1
1
1
1
1
1
1
1
1
1
1
1
1
1
1
1
1.00021
1.01629
1.24784
2.089
3.76314
4.57101
4.52184
4.41998
4.36428
4.37527
4.32787
4.20222
4.13208
4.09389
4.05262
3.97804
3.90753
3.86586
3.79811
3.72938
3.68101
3.64572
3.61104
3.56285
3.51836
3.46793
3.39655
3.31922
3.28505
3.24863
3.18819
3.16172
3.14018
3.10269
3.0573
3.00811
2.95749
2.91351
2.88232
2.84355
2.81206
2.80216
2.77301
2.71659
2.66939
2.63682
2.58142
2.54895
2.53444
2.51383
2.48801
2.45806
2.43936
2.41268
2.38213
2.35882
2.31551
2.27779
2.2542
2.22964
2.2031
2.17263
2.16065
2.14446
2.12517
1
1
1
1
1
1
1
1
1
1
1
1
1
1
1
1
1
1
1
1
1
1
1
1
1.00016
1.00808
1.13155
2.00695
3.91248
4.31597
4.40192
4.40852
4.41849
4.31015
4.20881
4.19114
4.16988
4.09932
3.99888
3.95641
3.90664
3.82785
3.77311
3.73851
3.70743
3.65756
3.60366
3.55635
3.49043
3.40896
3.35828
3.33152
3.28067
3.24093
3.21625
3.18059
3.13637
3.08907
3.03816
2.9907
2.95717
2.91739
2.87422
2.86385
2.84885
2.80028
2.74106
2.70696
2.664
2.60559
2.59084
2.57486
2.55269
2.51946
2.49519
2.47149
2.43998
2.41708
2.39148
2.34178
2.3122
2.28586
2.26003
2.22916
2.20526
2.1928
2.17384
2.15605
1
1
1
1
1
1
1
1
1
1
1
1
1
1
1
1
1
1
1
1
1
1
1
1
1
1.00005
1.00402
1.11863
2.16673
3.65759
4.18405
4.46219
4.44414
4.33335
4.29652
4.27855
4.20053
4.10343
4.04494
4.01672
3.93772
3.86711
3.82997
3.80026
3.7566
3.6928
3.64554
3.58581
3.50551
3.43779
3.40868
3.36676
3.32838
3.30319
3.26343
3.21467
3.16832
3.12019
3.06898
3.03103
2.99495
2.94267
2.92163
2.91783
2.8827
2.81967
2.77531
2.74282
2.68068
2.64224
2.63306
2.61508
2.5848
2.55398
2.52897
2.49831
2.47222
2.45498
2.41454
2.37128
2.34569
2.31643
2.2892
2.25709
2.23924
2.22369
2.2058
2.18621
1
1
1
1
1
1
1
1
1
1
1
1
1
1
1
1
1
1
1
1
1
1
1
1
1
1
1.00004
1.00414
1.14931
2.14841
3.31802
4.20018
4.48331
4.45948
4.39476
4.28658
4.19709
4.14162
4.14003
4.07014
3.97437
3.9245
3.89101
3.85221
3.78479
3.73248
3.68392
3.60783
3.53208
3.49154
3.44968
3.40676
3.38185
3.3503
3.30096
3.2469
3.20006
3.15134
3.10733
3.07231
3.02004
2.97968
2.9767
2.96097
2.90663
2.84806
2.8164
2.76824
2.70162
2.68579
2.67639
2.65195
2.61855
2.58961
2.55774
2.52766
2.51126
2.48748
2.43651
2.40664
2.37824
2.34681
2.31859
2.28926
2.27273
2.25555
2.23911
2.21506
1
1
1
1
1
1
1
1
1
1
1
1
1
1
1
1
1
1
1
1
1
1
1
1
1
1
1
1.00004
1.0053
1.149
1.80177
3.00495
4.32926
4.48585
4.37974
4.27951
4.22719
4.2413
4.18766
4.07828
4.01725
3.99695
3.96148
3.88242
3.81391
3.77524
3.70752
3.62775
3.58194
3.53908
3.49504
3.46838
3.431
3.3834
3.32842
3.27484
3.23309
3.19117
3.15545
3.11061
3.0496
3.02675
3.02413
2.99166
2.92774
2.88976
2.85465
2.78856
2.73646
2.7287
2.71459
2.68555
2.65357
2.61934
2.58618
2.56764
2.5509
2.50615
2.46607
2.44106
2.40713
2.37648
2.34807
2.32288
2.30599
2.29013
2.27136
2.24357
1
1
1
1
1
1
1
1
1
1
1
1
1
1
1
1
1
1
1
1
1
1
1
1
1
1
1
1
1.00005
1.00403
1.07053
1.50108
3.12748
4.24799
4.26276
4.28764
4.29752
4.28481
4.16788
4.10213
4.10356
4.07555
3.9838
3.89447
3.85698
3.80237
3.72088
3.66823
3.63406
3.57723
3.55111
3.52157
3.46839
3.41031
3.35344
3.30359
3.26841
3.23684
3.20222
3.14701
3.08926
3.07458
3.06091
3.01294
2.96125
2.93015
2.88366
2.81217
2.77696
2.76795
2.75016
2.72161
2.68559
2.64843
2.62641
2.61176
2.57743
2.52586
2.50066
2.47227
2.43379
2.40738
2.38019
2.35706
2.34034
2.32495
2.30099
2.27411
1
1
1
1
1
1
1
1
1
1
1
1
1
1
1
1
1
1
1
1
1
1
1
1
1
1
1
1
1
1.00002
1.00121
1.03531
1.52001
3.11974
3.91891
4.21415
4.36027
4.30311
4.21483
4.20767
4.17012
4.07346
3.9834
3.93948
3.90085
3.82075
3.75826
3.72954
3.66966
3.62374
3.60217
3.55803
3.49958
3.44124
3.38547
3.34199
3.31044
3.28134
3.2446
3.18628
3.13635
3.11833
3.09158
3.04309
3.00365
2.9635
2.9092
2.84262
2.81445
2.80408
2.78843
2.75716
2.71543
2.68808
2.6755
2.64975
2.59011
2.55614
2.53463
2.49839
2.46154
2.44037
2.41219
2.3918
2.37671
2.35817
2.32919
2.30309
1
1
1
1
1
1
1
1
1
1
1
1
1
1
1
1
1
1
1
1
1
1
1
1
1
1
1
1
1
1
1
1.00072
1.0368
1.57127
2.88373
3.76693
4.28334
4.3691
4.32789
4.25337
4.15598
4.07437
4.0361
4.02046
3.93281
3.84653
3.81633
3.77969
3.71184
3.68439
3.64662
3.58394
3.52401
3.4671
3.42274
3.39161
3.35882
3.322
3.27957
3.2254
3.1801
3.1553
3.1242
3.08301
3.03918
2.99027
2.93243
2.8734
2.85211
2.84445
2.82763
2.78849
2.75168
2.7388
2.71952
2.66469
2.61058
2.59237
2.56523
2.52177
2.49635
2.47615
2.44376
2.42691
2.41307
2.3889
2.3584
2.33048
1
1
1
1
1
1
1
1
1
1
1
1
1
1
1
1
1
1
1
1
1
1
1
1
1
1
1
1
1
1
1
1
1.00082
1.04427
1.48266
2.42033
3.7089
4.34387
4.33047
4.23032
4.16007
4.12504
4.13219
4.04339
3.93819
3.89568
3.88025
3.81449
3.76675
3.74283
3.68122
3.61412
3.56216
3.49882
3.46158
3.4366
3.40036
3.358
3.31404
3.26441
3.21974
3.19172
3.16151
3.1197
3.06803
3.01366
2.95268
2.90629
2.89314
2.88811
2.86463
2.82142
2.80279
2.78826
2.74473
2.67177
2.64538
2.62696
2.58893
2.55008
2.53719
2.50854
2.47681
2.4645
2.44749
2.41762
2.38701
2.35515
1
1
1
1
1
1
1
1
1
1
1
1
1
1
1
1
1
1
1
1
1
1
1
1
1
1
1
1
1
1
1
1
1.00001
1.00084
1.02775
1.24699
2.13922
3.82276
4.16873
4.19853
4.19591
4.20298
4.15154
4.03029
3.97201
3.96907
3.91825
3.84712
3.82932
3.78962
3.70548
3.64862
3.59958
3.53538
3.50626
3.47989
3.43607
3.38996
3.35007
3.30523
3.26617
3.2389
3.20475
3.15258
3.09197
3.03285
2.97406
2.9467
2.93948
2.93319
2.9011
2.86967
2.85674
2.82361
2.74539
2.69614
2.68529
2.65774
2.61137
2.59114
2.57578
2.53396
2.51401
2.50315
2.47965
2.44666
2.41353
2.37623
1
1
1
1
1
1
1
1
1
1
1
1
1
1
1
1
1
1
1
1
1
1
1
1
1
1
1
1
1
1
1
1
1
1
1.00029
1.00972
1.15861
2.20031
3.6097
4.01619
4.21864
4.25164
4.16926
4.06892
4.05871
4.02467
3.9413
3.89594
3.88399
3.81487
3.73178
3.68652
3.63589
3.57143
3.54672
3.5185
3.46841
3.42482
3.38848
3.34524
3.31423
3.28669
3.24261
3.17773
3.11144
3.05083
3.00683
2.99367
2.99005
2.97872
2.94583
2.92627
2.89757
2.82579
2.75083
2.73578
2.72272
2.68417
2.64594
2.63587
2.60459
2.56333
2.5539
2.53968
2.51012
2.47467
2.43715
2.39535
1
1
1
1
1
1
1
1
1
1
1
1
1
1
1
1
1
1
1
1
1
1
1
1
1
1
1
1
1
1
1
1
1
1
1
1.00009
1.00628
1.16943
2.15852
3.31486
3.98676
4.21959
4.2397
4.20297
4.15091
4.05932
3.97001
3.94403
3.91925
3.8333
3.76406
3.72031
3.66751
3.61077
3.59052
3.55859
3.50352
3.46328
3.42902
3.38844
3.36264
3.32898
3.2664
3.19233
3.13148
3.07932
3.05602
3.04734
3.04462
3.02709
3.0008
2.9723
2.90783
2.81744
2.77967
2.77716
2.75621
2.71077
2.69203
2.67455
2.62793
2.60087
2.59161
2.57074
2.53737
2.49992
2.45824
2.42248
1
1
1
1
1
1
1
1
1
1
1
1
1
1
1
1
1
1
1
1
1
1
1
1
1
1
1
1
1
1
1
1
1
1
1
1
1.00008
1.00708
1.16492
1.86855
2.98175
3.97869
4.20756
4.17583
4.15787
4.08377
4.00838
3.99469
3.95392
3.86596
3.79962
3.74997
3.69493
3.65302
3.63839
3.60071
3.53971
3.50472
3.47241
3.43332
3.39975
3.35154
3.27622
3.2097
3.1645
3.1256
3.11087
3.10588
3.10097
3.07851
3.04432
2.98698
2.89979
2.83116
2.82251
2.81841
2.78877
2.74717
2.73134
2.70259
2.65964
2.64127
2.62664
2.60009
2.56405
2.52269
2.47932
2.45858
1
1
1
1
1
1
1
1
1
1
1
1
1
1
1
1
1
1
1
1
1
1
1
1
1
1
1
1
1
1
1
1
1
1
1
1
1
1.00008
1.00562
1.08679
1.53697
2.76179
3.90805
4.1301
4.16471
4.12612
4.08818
4.0715
4.01167
3.90409
3.82515
3.7748
3.7293
3.70447
3.69046
3.64229
3.58158
3.54825
3.517
3.46708
3.41897
3.3618
3.28736
3.24678
3.21617
3.18147
3.16444
3.16447
3.15438
3.11571
3.05296
2.9832
2.90096
2.86802
2.86731
2.85824
2.82283
2.78945
2.76494
2.73116
2.69686
2.67685
2.65697
2.6274
2.5897
2.54382
2.51133
2.49437
1
1
1
1
1
1
1
1
1
1
1
1
1
1
1
1
1
1
1
1
1
1
1
1
1
1
1
1
1
1
1
1
1
1
1
1
1
1
1.00004
1.00176
1.03595
1.40601
2.57068
3.7808
4.03834
4.13626
4.15232
4.13331
4.04337
3.92301
3.84716
3.8015
3.77464
3.75976
3.74885
3.6983
3.63591
3.58303
3.53533
3.48019
3.42408
3.37004
3.33082
3.30342
3.27508
3.24257
3.22204
3.21753
3.18742
3.12066
3.04875
2.98728
2.93027
2.91401
2.91193
2.89493
2.85434
2.81937
2.79402
2.766
2.738
2.71378
2.68625
2.65132
2.60856
2.56644
2.54742
2.5254
1
1
1
1
1
1
1
1
1
1
1
1
1
1
1
1
1
1
1
1
1
1
1
1
1
1
1
1
1
1
1
1
1
1
1
1
1
1
1
1.00001
1.00058
1.0253
1.30934
2.39014
3.60151
4.01535
4.13802
4.14208
4.05202
3.94347
3.88762
3.84802
3.82966
3.81981
3.80923
3.74765
3.6675
3.59768
3.54574
3.49315
3.44038
3.40861
3.39145
3.36012
3.33365
3.30597
3.28149
3.2501
3.19423
3.11429
3.05236
3.01432
2.97821
2.96069
2.95398
2.92654
2.87763
2.8468
2.82642
2.80262
2.77762
2.75141
2.71672
2.67474
2.62783
2.59715
2.57976
2.55162
1
1
1
1
1
1
1
1
1
1
1
1
1
1
1
1
1
1
1
1
1
1
1
1
1
1
1
1
1
1
1
1
1
1
1
1
1
1
1
1
1
1.0004
1.01747
1.24497
2.27447
3.42754
3.98841
4.11464
4.07921
4.02111
3.97548
3.91335
3.88345
3.87461
3.84289
3.75686
3.67659
3.61221
3.559
3.51018
3.48064
3.46897
3.45199
3.416
3.38838
3.3571
3.31029
3.25993
3.19089
3.12195
3.09015
3.06337
3.03001
3.00614
2.98754
2.94306
2.90003
2.88214
2.86404
2.84038
2.8158
2.78613
2.74283
2.69544
2.65328
2.63264
2.61248
2.58133
1
1
1
1
1
1
1
1
1
1
1
1
1
1
1
1
1
1
1
1
1
1
1
1
1
1
1
1
1
1
1
1
1
1
1
1
1
1
1
1
1
1
1.00026
1.01292
1.21317
2.0772
3.16294
3.83219
4.07253
4.11687
4.07264
3.98411
3.93766
3.91774
3.85375
3.75992
3.68584
3.62749
3.57836
3.55053
3.53748
3.53709
3.51075
3.47836
3.43808
3.37829
3.31567
3.25589
3.19858
3.16753
3.14443
3.1189
3.08189
3.04231
2.99919
2.95589
2.93746
2.92447
2.90568
2.88068
2.85409
2.81195
2.76081
2.71599
2.68514
2.66936
2.64702
2.61632
1
1
1
1
1
1
1
1
1
1
1
1
1
1
1
1
1
1
1
1
1
1
1
1
1
1
1
1
1
1
1
1
1
1
1
1
1
1
1
1
1
1
1
1.00017
1.00966
1.13612
1.71033
2.74225
3.83806
4.06853
4.06731
4.03239
3.99535
3.96144
3.86665
3.76476
3.70476
3.65868
3.62477
3.61381
3.60811
3.60041
3.56308
3.51486
3.4507
3.38602
3.32206
3.27026
3.24429
3.22376
3.19846
3.17149
3.11779
3.05308
3.00678
2.98986
2.98343
2.97286
2.94919
2.92275
2.87966
2.8232
2.77798
2.74193
2.72271
2.70859
2.68395
2.65313
1
1
1
1
1
1
1
1
1
1
1
1
1
1
1
1
1
1
1
1
1
1
1
1
1
1
1
1
1
1
1
1
1
1
1
1
1
1
1
1
1
1
1
1
1.00009
1.00354
1.05778
1.44715
2.60796
3.79675
3.98348
4.02868
4.01944
3.98747
3.87313
3.77829
3.74653
3.70735
3.69259
3.68983
3.69451
3.64805
3.57794
3.5134
3.45034
3.39094
3.34367
3.3242
3.31309
3.28394
3.24839
3.19872
3.1226
3.06164
3.04014
3.03946
3.03827
3.02053
2.99165
2.94998
2.88426
2.83453
2.80207
2.77642
2.76475
2.74782
2.71919
2.68504
1
1
1
1
1
1
1
1
1
1
1
1
1
1
1
1
1
1
1
1
1
1
1
1
1
1
1
1
1
1
1
1
1
1
1
1
1
1
1
1
1
1
1
1
1
1.00002
1.00106
1.03336
1.35889
2.51152
3.58671
3.91284
4.00972
4.00509
3.89756
3.83425
3.81432
3.77197
3.76036
3.76477
3.74284
3.65587
3.58
3.52361
3.45851
3.40477
3.38855
3.3921
3.3812
3.34322
3.28193
3.20224
3.12853
3.09766
3.09661
3.09894
3.09203
3.06461
3.02168
2.94913
2.88722
2.85932
2.83748
2.82325
2.8105
2.78555
2.75198
2.70747
1
1
1
1
1
1
1
1
1
1
1
1
1
1
1
1
1
1
1
1
1
1
1
1
1
1
1
1
1
1
1
1
1
1
1
1
1
1
1
1
1
1
1
1
1
1
1.00001
1.00065
1.02405
1.29475
2.34047
3.36088
3.8448
3.97875
3.9677
3.96664
3.92943
3.8565
3.82145
3.81114
3.74513
3.64436
3.58089
3.53869
3.48797
3.46633
3.46911
3.46483
3.41653
3.3438
3.2745
3.20141
3.16107
3.16216
3.16481
3.16036
3.1347
3.093
3.01852
2.94004
2.90605
2.8964
2.88269
2.87237
2.85372
2.82075
2.77673
2.72423
1
1
1
1
1
1
1
1
1
1
1
1
1
1
1
1
1
1
1
1
1
1
1
1
1
1
1
1
1
1
1
1
1
1
1
1
1
1
1
1
1
1
1
1
1
1
1
1
1.00042
1.01711
1.23621
2.07642
3.03511
3.75727
4.01032
4.01368
3.96126
3.89496
3.85211
3.83501
3.75208
3.64803
3.59746
3.57397
3.5459
3.5377
3.54187
3.51104
3.43063
3.35235
3.27942
3.22411
3.22215
3.23238
3.2352
3.21429
3.17086
3.0926
3.00464
2.95386
2.94977
2.94399
2.93224
2.91766
2.89026
2.84398
2.78166
2.74038
1
1
1
1
1
1
1
1
1
1
1
1
1
1
1
1
1
1
1
1
1
1
1
1
1
1
1
1
1
1
1
1
1
1
1
1
1
1
1
1
1
1
1
1
1
1
1
1
1
1.00025
1.01083
1.14059
1.67581
2.68431
3.77693
4.02796
3.9845
3.885
3.82309
3.81956
3.75053
3.67241
3.66281
3.65845
3.62493
3.59476
3.57051
3.50935
3.43228
3.36565
3.30404
3.29005
3.2971
3.30095
3.28473
3.23926
3.1623
3.07943
3.01192
2.99757
3.00473
2.99451
2.97762
2.95364
2.91446
2.84631
2.79249
2.76665
1
1
1
1
1
1
1
1
1
1
1
1
1
1
1
1
1
1
1
1
1
1
1
1
1
1
1
1
1
1
1
1
1
1
1
1
1
1
1
1
1
1
1
1
1
1
1
1
1
1
1.0001
1.00373
1.05887
1.45733
2.55313
3.75355
3.90272
3.89297
3.84918
3.82807
3.75994
3.72275
3.72302
3.71427
3.68325
3.62868
3.57977
3.50914
3.441
3.38813
3.36356
3.36763
3.36825
3.35626
3.31107
3.22969
3.15346
3.08034
3.04749
3.0554
3.05918
3.04209
3.01615
2.97538
2.91253
2.84915
2.81539
2.8063
1
1
1
1
1
1
1
1
1
1
1
1
1
1
1
1
1
1
1
1
1
1
1
1
1
1
1
1
1
1
1
1
1
1
1
1
1
1
1
1
1
1
1
1
1
1
1
1
1
1
1
1.00002
1.00124
1.03496
1.35536
2.40687
3.49778
3.76476
3.83244
3.85537
3.81806
3.78839
3.77907
3.76044
3.71141
3.63691
3.59206
3.52311
3.46561
3.43998
3.44397
3.44612
3.43228
3.38946
3.30401
3.22377
3.15824
3.10681
3.10241
3.1141
3.10479
3.0791
3.03852
2.98098
2.91684
2.86996
2.85556
2.85848
1
1
3.55282
4.54856
4.68668
4.6356
4.53338
4.45659
4.39726
4.33852
4.2803
4.23032
4.17119
4.11658
4.04989
3.97844
3.92017
3.85445
3.79495
3.73094
3.67309
3.60131
3.51772
3.45495
3.38927
3.3535
3.32377
3.27743
3.23156
3.18284
3.14293
3.08463
2.50815
3.87614
4.58719
4.63426
4.56079
4.48147
4.4168
4.3564
4.31334
4.26496
4.21456
4.16454
4.094
4.02854
3.95907
3.89083
3.8229
3.75633
3.69924
3.62435
3.56072
3.50447
3.44678
3.41594
3.36936
3.31912
3.26402
3.2184
3.17265
3.1038
2.0227
2.76737
4.1244
4.53571
4.5774
4.52428
4.44124
4.38452
4.34692
4.30413
4.26329
4.20824
4.14481
4.07345
3.99176
3.91887
3.83702
3.77777
3.72205
3.65875
3.61308
3.55627
3.51227
3.46787
3.40904
3.35304
3.29154
3.24934
3.19369
3.12197
1.943
2.10524
3.07553
4.21118
4.56508
4.55828
4.48561
4.42006
4.37515
4.33938
4.2999
4.25231
4.19541
4.11551
4.03252
3.9394
3.84311
3.79664
3.74665
3.70327
3.65971
3.61305
3.5715
3.51145
3.45171
3.38317
3.32222
3.27528
3.20946
3.13986
1.94799
1.95744
2.24247
3.27065
4.34574
4.56635
4.53657
4.47161
4.42036
4.37432
4.33349
4.2935
4.23068
4.15137
4.07073
3.96022
3.86694
3.82509
3.78399
3.74539
3.70299
3.66562
3.61717
3.55622
3.49681
3.41739
3.35615
3.29578
3.22627
3.15917
1.97728
1.95605
1.98169
2.35924
3.53403
4.4434
4.51602
4.50532
4.4656
4.40369
4.36502
4.32241
4.25486
4.18147
4.09794
3.97847
3.90297
3.86583
3.82671
3.78231
3.74578
3.70873
3.65697
3.60367
3.53813
3.45402
3.38415
3.31175
3.24772
3.18497
2.01254
1.97677
1.97265
2.02162
2.52091
3.83642
4.37689
4.50638
4.49171
4.43184
4.39028
4.34255
4.27841
4.20888
4.12089
4.00672
3.95316
3.91322
3.86471
3.82131
3.78936
3.74954
3.70115
3.65095
3.57625
3.48755
3.40376
3.33013
3.27597
3.22127
2.04622
2.01286
1.98676
1.97651
2.06451
2.77673
3.96089
4.37677
4.50082
4.47325
4.4198
4.36484
4.30451
4.23956
4.14976
4.05964
4.01229
3.96227
3.90424
3.86289
3.8288
3.78857
3.7461
3.69332
3.61255
3.51413
3.42064
3.35829
3.30755
3.26149
2.07635
2.04914
2.0189
1.9903
1.98593
2.14161
3.00244
4.00104
4.44987
4.50702
4.4669
4.40296
4.33931
4.27387
4.19176
4.12422
4.0656
4.00604
3.94725
3.90266
3.86362
3.82331
3.7825
3.72753
3.64173
3.53478
3.44806
3.39685
3.33965
3.30527
2.1049
2.08017
2.05566
2.02057
1.99012
1.99625
2.23895
3.1109
4.17727
4.48958
4.49736
4.43316
4.37728
4.31487
4.24873
4.18272
4.11192
4.04646
3.98588
3.9376
3.89483
3.85311
3.81041
3.75187
3.66154
3.55888
3.49298
3.43818
3.37891
3.35834
2.13275
2.11009
2.08731
2.05366
2.01067
1.99497
2.01664
2.32032
3.33048
4.31514
4.43078
4.45622
4.42639
4.35747
4.293
4.22164
4.15009
4.08416
4.02072
3.96906
3.92369
3.87964
3.83514
3.77069
3.67814
3.59807
3.54413
3.47548
3.43121
3.41612
2.16068
2.13873
2.11259
2.08102
2.04026
2.01337
2.01359
2.05198
2.43861
3.63517
4.24959
4.4276
4.4495
4.39106
4.32407
4.25765
4.1928
4.11859
4.04687
3.99404
3.94692
3.90573
3.85967
3.78754
3.70493
3.6506
3.59136
3.5167
3.49181
3.46555
2.19102
2.1674
2.13418
2.10391
2.07233
2.04761
2.03547
2.03742
2.09868
2.65748
3.75832
4.26611
4.45304
4.41948
4.35495
4.29371
4.23308
4.15434
4.07513
4.0143
3.96772
3.93235
3.88099
3.80718
3.75193
3.70701
3.63197
3.57053
3.54943
3.50384
2.22115
2.1927
2.15463
2.12686
2.10362
2.08446
2.07125
2.04744
2.04769
2.15822
2.84528
3.78298
4.34022
4.43398
4.38972
4.33632
4.27325
4.18755
4.09755
4.03391
3.99877
3.96396
3.90433
3.84395
3.80676
3.75593
3.67241
3.63257
3.59617
3.53862
2.24985
2.2154
2.17714
2.15612
2.13699
2.11763
2.10583
2.07653
2.0546
2.061
2.22285
2.9337
3.87093
4.36877
4.41962
4.38266
4.31591
4.21877
4.11455
4.06412
4.03887
3.99776
3.93865
3.89948
3.86126
3.79538
3.7239
3.68772
3.63121
3.57297
2.2745
2.23516
2.20429
2.19013
2.16991
2.14962
2.1352
2.11195
2.07825
2.06788
2.07964
2.27662
3.02248
3.99983
4.38002
4.40447
4.35469
4.25444
4.14152
4.10922
4.08499
4.03615
3.98627
3.95212
3.90519
3.82975
3.77836
3.7296
3.66147
3.60831
2.29603
2.25607
2.23794
2.22489
2.19888
2.1799
2.16126
2.14142
2.11456
2.08986
2.07824
2.09543
2.3475
3.17668
4.1422
4.36895
4.36485
4.29181
4.19114
4.15691
4.12623
4.07536
4.03545
3.99669
3.93568
3.86748
3.82428
3.76127
3.69381
3.64291
2.31566
2.2855
2.27533
2.25366
2.22715
2.20861
2.18578
2.16763
2.14942
2.11959
2.09181
2.08462
2.11882
2.44787
3.39574
4.2073
4.32161
4.30438
4.24949
4.19928
4.15731
4.11312
4.08025
4.03274
3.96056
3.91059
3.86255
3.79044
3.72926
3.67602
2.33792
2.32391
2.30859
2.27694
2.25948
2.23902
2.21229
2.19554
2.17686
2.14981
2.12099
2.09415
2.08942
2.15326
2.55918
3.60279
4.16596
4.27183
4.26441
4.23152
4.18828
4.15578
4.12229
4.06297
3.99537
3.95387
3.8931
3.81938
3.76385
3.70663
2.37008
2.3589
2.32909
2.30575
2.29577
2.27058
2.24119
2.22366
2.20122
2.17888
2.15734
2.11977
2.09851
2.10767
2.18366
2.68721
3.67636
4.11652
4.26337
4.25919
4.23262
4.20303
4.16023
4.09241
4.03821
3.99113
3.91704
3.84741
3.79471
3.7334
2.40871
2.38519
2.35036
2.34125
2.32933
2.29914
2.27086
2.25138
2.22719
2.20868
2.18325
2.15416
2.1363
2.12743
2.11848
2.21249
2.80705
3.6245
4.14702
4.29317
4.28472
4.25838
4.20618
4.13361
4.08405
4.02501
3.94258
3.87877
3.82445
3.75469
2.44066
2.40491
2.38566
2.3795
2.3565
2.32686
2.30279
2.27961
2.2583
2.23754
2.20765
2.18824
2.17769
2.15113
2.12745
2.12033
2.25159
2.84861
3.66921
4.22089
4.31015
4.30665
4.26017
4.18767
4.13189
4.05784
3.97475
3.91703
3.8568
3.7846
2.46394
2.43152
2.42502
2.41112
2.37997
2.35553
2.33485
2.30841
2.28646
2.26762
2.24027
2.22211
2.2093
2.17782
2.13646
2.11242
2.12018
2.29561
2.89384
3.84136
4.23264
4.29948
4.2919
4.24275
4.17671
4.08672
4.01144
3.95666
3.8882
3.83664
2.48903
2.46893
2.4609
2.43561
2.40513
2.38575
2.36397
2.3333
2.3158
2.30318
2.27872
2.25348
2.23307
2.20265
2.15827
2.11938
2.1167
2.13345
2.33635
3.04224
3.96645
4.22048
4.28576
4.26806
4.20216
4.10899
4.04978
3.99219
3.92284
3.8955
2.52014
2.50725
2.48924
2.45655
2.43241
2.41581
2.38713
2.36215
2.35264
2.34297
2.31283
2.27969
2.25382
2.22313
2.18668
2.14391
2.13129
2.13079
2.15904
2.40624
3.25207
3.96753
4.22714
4.26445
4.21184
4.13954
4.09122
4.02112
3.95902
3.94298
2.55636
2.54051
2.51082
2.47698
2.46118
2.44084
2.41051
2.39897
2.3942
2.37866
2.33996
2.30162
2.26676
2.23642
2.205
2.17729
2.16619
2.15657
2.15517
2.19529
2.51023
3.38111
3.94966
4.21989
4.22929
4.18773
4.1341
4.05451
3.9991
3.98285
2.59412
2.56939
2.52905
2.50142
2.48678
2.46099
2.4458
2.44023
2.43616
2.40617
2.36153
2.32042
2.28384
2.25052
2.22501
2.21546
2.20689
2.195
2.17503
2.17187
2.22677
2.61023
3.34885
3.95854
4.23441
4.23285
4.19034
4.11063
4.04801
4.02143
2.62704
2.59169
2.55049
2.53132
2.50918
2.49035
2.48401
2.48226
2.4678
2.42679
2.37976
2.33822
2.30245
2.27046
2.257
2.25092
2.24372
2.22805
2.20602
2.1846
2.17105
2.24213
2.62138
3.32516
4.06698
4.22851
4.216
4.16246
4.11564
4.07952
2.65089
2.6081
2.5784
2.56149
2.53899
2.52986
2.52424
2.51858
2.48943
2.44207
2.39579
2.35753
2.32562
2.30099
2.29301
2.28535
2.27493
2.25615
2.23897
2.21655
2.17813
2.17267
2.25358
2.61939
3.51651
4.06062
4.16299
4.18852
4.17989
4.12607
2.66307
2.62778
2.61194
2.59469
2.58036
2.57073
2.56186
2.54389
2.50648
2.45672
2.41474
2.38187
2.35413
2.33675
2.32832
2.31911
2.30066
2.2857
2.27114
2.25063
2.20615
2.18017
2.18076
2.26145
2.74325
3.62317
3.98397
4.18603
4.21694
4.14988
2.68056
2.65591
2.64908
2.63506
2.62325
2.60923
2.5911
2.56321
2.51635
2.47207
2.43823
2.41062
2.38549
2.37328
2.36422
2.34793
2.3287
2.31585
2.30204
2.27929
2.23903
2.19842
2.1809
2.17979
2.30046
2.91182
3.59754
4.06995
4.2093
4.18129
2.71014
2.69891
2.68968
2.67724
2.6622
2.64071
2.61512
2.57422
2.52709
2.49307
2.4672
2.43943
2.42006
2.40981
2.39764
2.37671
2.36075
2.34533
2.33022
2.30153
2.26011
2.22213
2.19631
2.17607
2.19153
2.38443
2.94393
3.66976
4.16099
4.16678
2.75372
2.74611
2.73018
2.71753
2.69821
2.67175
2.62994
2.57942
2.54225
2.51949
2.4956
2.4704
2.45756
2.4463
2.4279
2.40878
2.39335
2.37531
2.35398
2.3172
2.27667
2.24864
2.22485
2.20068
2.18929
2.2175
2.41416
2.94082
3.80658
4.07752
2.80647
2.79012
2.77474
2.75846
2.72669
2.68125
2.63183
2.59081
2.56719
2.5483
2.52297
2.50683
2.4949
2.47919
2.45917
2.4433
2.42592
2.40603
2.37236
2.32815
2.29551
2.27737
2.2593
2.23945
2.21246
2.20254
2.23298
2.40028
3.0408
3.78228
2.85342
2.83351
2.81937
2.79235
2.7415
2.68499
2.64146
2.61573
2.60018
2.57679
2.55567
2.5433
2.52947
2.50939
2.49254
2.47604
2.45723
2.42838
2.38414
2.34073
2.32058
2.30702
2.295
2.27712
2.2496
2.22397
2.22036
2.24015
2.44821
3.13925
)
;

boundaryField
{
    inlet
    {
        type            fixedValue;
        value           nonuniform 0();
    }
    outlet
    {
        type            zeroGradient;
    }
    bottom
    {
        type            zeroGradient;
    }
    top
    {
        type            zeroGradient;
    }
    obstacle
    {
        type            zeroGradient;
    }
    defaultFaces
    {
        type            empty;
    }
    procBoundary9to5
    {
        type            processor;
        value           nonuniform List<scalar> 
119
(
1
1
1
1
1
1
1
1
1
1.00034
1.03316
1.57802
3.04637
4.4741
4.9159
4.90415
4.81889
4.70855
4.58
4.52097
4.47314
4.38167
4.29352
4.22946
4.16842
4.10641
4.04535
3.95857
3.88876
3.83313
3.76889
3.71483
3.65841
3.59963
3.54859
3.49049
3.43931
3.39688
3.33433
3.28433
3.23369
3.16618
3.11753
3.07721
3.01058
2.98516
2.95818
2.91622
2.88395
2.83686
2.79382
2.75013
2.69875
2.66272
2.6156
2.57141
2.55409
2.52328
2.49608
2.46649
2.43314
2.40482
2.36501
2.33015
2.29367
2.25001
2.23038
2.20657
2.1848
2.15786
2.13809
2.12117
2.0923
2.06213
2.02395
1.99534
1.97631
1.95828
1.9328
1.90195
1.88201
1.88959
2.12777
3.26549
1
1
1
1
1
4.41676
4.7022
4.66692
4.59588
4.50639
4.44055
4.38232
4.32413
4.25462
4.19076
4.13004
4.06698
4.00757
3.93493
3.87802
3.82157
3.76068
3.7031
3.64392
3.57967
3.49096
3.40906
3.34073
3.28836
3.26661
3.23086
3.18937
3.14477
3.10426
3.05849
)
;
    }
    procBoundary9to6
    {
        type            processor;
        value           nonuniform List<scalar> 6(3.00827 3.02679 3.04398 3.06318 3.09878 3.14663);
    }
    procBoundary9to8
    {
        type            processor;
        value           nonuniform List<scalar> 
29
(
1
1
1
1
1
1
1
1
1
1
1
1
1
1
1
1
1
1
1
1
1
1
1
1
1
1
1
1
1
)
;
    }
    procBoundary9to10
    {
        type            processor;
        value           nonuniform List<scalar> 
29
(
3.19625
3.24346
3.2904
3.33722
3.37886
3.41745
3.45523
3.49173
3.524
3.55593
3.58629
3.61099
3.63047
3.65528
3.69818
3.7581
3.82565
3.87908
3.91231
3.93981
3.9686
4.01042
4.03585
4.07299
4.12672
4.13343
4.12126
4.0208
3.746
)
;
    }
    procBoundary9to12
    {
        type            processor;
        value           nonuniform List<scalar> 6(1 1 1 1 1 1);
    }
    procBoundary9to13
    {
        type            processor;
        value           nonuniform List<scalar> 
119
(
1
1
1
1
1
1
1
1
1
1
1
1
1
1
1
1
1
1
1
1
1
1
1
1
1
1
1
1
1
1
1
1
1
1
1
1
1
1
1
1
1
1
1
1
1
1
1
1
1
1
1.00001
1.00069
1.02286
1.25684
2.18215
3.2406
3.6518
3.80714
3.8834
3.87663
3.84096
3.7792
3.7071
3.66484
3.63681
3.57005
3.52901
3.51583
3.51073
3.48884
3.45613
3.39041
3.30105
3.23429
3.18157
3.15518
3.16178
3.16384
3.14348
3.10382
3.04567
2.98407
2.93021
2.90742
2.90782
2.91222
1
1
1
2.8959
2.8773
2.85554
2.80837
2.74292
2.69545
2.66746
2.65224
2.63184
2.60535
2.59048
2.57658
2.55993
2.54126
2.52555
2.50765
2.48244
2.44145
2.39256
2.3638
2.3502
2.33923
2.32952
2.30859
2.28412
2.25799
2.22988
2.22743
2.25523
2.54299
)
;
    }
}


// ************************************************************************* //
