/*--------------------------------*- C++ -*----------------------------------*\
  =========                 |
  \\      /  F ield         | OpenFOAM: The Open Source CFD Toolbox
   \\    /   O peration     | Website:  https://openfoam.org
    \\  /    A nd           | Version:  7
     \\/     M anipulation  |
\*---------------------------------------------------------------------------*/
FoamFile
{
    version     2.0;
    format      ascii;
    class       volScalarField;
    location    "2.2";
    object      p;
}
// * * * * * * * * * * * * * * * * * * * * * * * * * * * * * * * * * * * * * //

dimensions      [1 -1 -2 0 0 0 0];

internalField   nonuniform List<scalar> 
3328
(
1
1
1
1
1
1
1
1
1
1
3.85964
10.1715
10.8365
10.9538
11.1273
11.2792
11.4222
11.5535
11.6817
11.8009
11.9043
11.9854
12.0527
12.1023
1
1
1
1
1
1
1
1
1
1
3.77081
10.0853
10.8102
10.9301
11.1035
11.2579
11.4017
11.5305
11.6523
11.7646
11.8632
11.9409
12.0025
12.0482
1
1
1
1
1
1
1
1
1
1
3.54455
9.95059
10.7587
10.8796
11.0585
11.2163
11.3613
11.4865
11.6005
11.7068
11.8033
11.8836
11.947
11.9971
1
1
1
1
1
1
1
1
1
1
3.18582
9.72372
10.7039
10.8306
11.013
11.1661
11.3022
11.4175
11.5236
11.6318
11.7352
11.8247
11.8927
11.9445
1
1
1
1
1
1
1
1
1
1
2.76818
9.39658
10.6427
10.7645
10.9437
11.0868
11.2096
11.3109
11.4121
11.5261
11.6462
11.766
11.8555
11.9374
1
1
1
1
1
1
1
1
1
1
2.27157
8.91993
10.6073
10.7203
10.8807
11.0002
11.1046
11.1975
11.3118
11.4603
11.6282
11.7871
11.8837
11.9315
1
1
1
1
1
1
1
1
1
1
1.73859
8.25335
10.5734
10.6443
10.779
10.8744
10.9649
11.0694
11.2149
11.3964
11.5884
11.7602
11.8928
11.9862
1
1
1
1
1
1
1
1
1
1
1.23943
7.43381
10.593
10.6046
10.6897
10.7605
10.8623
11.0041
11.1913
11.4284
11.6916
11.9156
12.0302
12.3194
1
1
1
1
1
1
1
1
1
1
1.0105
6.39893
10.3231
10.3717
10.4494
10.5515
10.71
10.9391
11.3033
11.6871
11.9987
12.2013
11.9603
11.6633
1
1
1
1
1
1
1
1
1
1
1.00004
5.09697
9.99249
10.243
10.3333
10.4965
10.77
11.1501
11.622
12.1315
12.4076
12.5306
12.2478
11.8272
1
1
1
1
1
1
1
1
1
1
1
3.69593
9.42772
10.1079
10.2835
10.5857
11.0779
11.7111
12.2371
12.5933
12.7114
12.5955
12.1882
11.6744
1
1
1
1
1
1
1
1
1
1
1
2.24953
8.51763
10.09
10.4244
11.0675
11.8226
12.3841
12.6552
12.7659
12.717
12.4683
12.0004
11.5561
1
1
1
1
1
1
1
1
1
1
1
1.1616
7.10288
10.2964
10.9509
11.8282
12.4728
12.7315
12.7709
12.7463
12.5785
12.2273
11.7667
11.4266
1
1
1
1
1
1
1
1
1
1
1
1.00285
5.41404
10.4801
11.8216
12.4999
12.761
12.8305
12.7682
12.6234
12.3499
11.9609
11.5461
11.2357
1
1
1
1
1
1
1
1
1
1
1
0.999981
4.3329
11.699
12.8414
12.8442
12.774
12.6946
12.5868
12.4208
12.135
11.7478
11.3422
11.061
1
1
1
1
1
1
1
1
1
1
1
0.999997
3.97932
12.4634
13.2104
12.8476
12.5273
12.3825
12.291
12.1823
11.9639
11.6093
11.2127
10.9286
1
1
1
1
1
1
1
1
1
1
1
1
4.3796
12.4814
13.0644
12.4363
12.1827
12.06
12.0228
11.9747
11.8199
11.51
11.1383
10.8382
1
1
1
1
1
1
1
1
1
1
1
1
4.86869
12.1218
12.5156
11.9231
11.6924
11.7463
11.8194
11.8066
11.7033
11.4462
11.0963
10.7897
1
1
1
1
1
1
1
1
1
1
1
1
4.97774
11.8319
12.2519
11.7908
11.666
11.6008
11.6626
11.7254
11.6083
11.3895
11.0671
10.736
1
1
1
1
1
1
1
1
1
1
1
1
4.74563
11.5603
12.0182
11.6616
11.6784
11.6384
11.6403
11.6131
11.5782
11.3559
11.0568
10.7308
1
1
1
1
1
1
1
1
1
1
1
1
4.40331
11.2517
11.8532
11.6228
11.6353
11.5661
11.5428
11.5116
11.4393
11.3128
11.0369
10.7337
1
1
1
1
1
1
1
1
1
1
1
1
3.95055
10.9593
11.7317
11.6214
11.6328
11.5383
11.5057
11.4417
11.3648
11.2525
11.0345
10.745
1
1
1
1
1
1
1
1
1
1
1
1
3.51673
10.6838
11.6588
11.5925
11.5752
11.5156
11.4809
11.4419
11.3696
11.2423
11.0599
10.7698
1
1
1
1
1
1
1
1
1
1
1
1
3.13032
10.4022
11.6222
11.5647
11.5339
11.4866
11.4541
11.4143
11.3413
11.2221
11.0276
10.7699
1
1
1
1
1
1
1
1
1
1
1
1
2.69236
10.0358
11.5997
11.5295
11.5292
11.5247
11.4854
11.4522
11.3471
11.2028
10.987
10.7268
1
1
1
1
1
1
1
1
1
1
1
1
2.25771
9.56185
11.5639
11.5164
11.5306
11.5536
11.5367
11.4642
11.3361
11.1621
10.9331
10.6934
1
1
1
1
1
1
1
1
1
1
1
1
1.85893
8.9864
11.5375
11.5382
11.6021
11.6169
11.5539
11.4471
11.2844
11.0911
10.8627
10.6439
1
1
1
1
1
1
1
1
1
1
1
1
1.54474
8.40426
11.5622
11.6105
11.6782
11.6604
11.5513
11.425
11.2403
11.0529
10.8527
10.645
1
1
1
1
1
1
1
1
1
1
1
1
1.32642
7.9182
11.6247
11.6866
11.7062
11.6711
11.5393
11.4015
11.2216
11.0451
10.8602
10.673
1
1
1
1
1
1
1
1
1
1
1
1
1.17018
7.51501
11.6891
11.7447
11.7181
11.6614
11.521
11.3754
11.2023
11.0051
10.8229
10.6367
1
1
1
1
1
1
1
1
1
1
1
1
1.05611
7.15945
11.7413
11.7983
11.7313
11.645
11.493
11.3367
11.156
10.9522
10.7568
10.5785
1
1
1
1
1
1
1
1
1
1
1
1
1.00036
6.8215
11.777
11.8687
11.7608
11.6326
11.4579
11.284
11.0893
10.8803
10.6897
10.5202
1
1
1
1
1
1
1
1
1
1
1
1
1
6.49374
11.8024
11.9489
11.7923
11.6199
11.4269
11.2315
11.019
10.8078
10.622
10.4728
1
1
1
1
1
1
1
1
1
1
1
1
1
6.2048
11.8071
12.0091
11.8015
11.6083
11.4007
11.1839
10.9626
10.7568
10.581
10.4564
1
1
1
1
1
1
1
1
1
1
1
1
1
5.95003
11.7976
12.0197
11.7907
11.5912
11.373
11.1489
10.9331
10.7379
10.5823
10.4874
1
1
1
1
1
1
1
1
1
1
1
1
1
5.7431
11.7733
11.9916
11.7573
11.5588
11.3384
11.1222
10.9196
10.7394
10.6096
10.5415
1
1
1
1
1
1
1
1
1
1
1
1
1
5.59209
11.754
11.9564
11.7072
11.5105
11.2932
11.0894
10.8989
10.7375
10.6368
10.5928
1
1
1
1
1
1
1
1
1
1
1
1
1
5.4914
11.7649
11.9429
11.6732
11.4671
11.2473
11.0458
10.86
10.7186
10.6481
10.6314
1
1
1
1
1
1
1
1
1
1
1
1
1
5.42891
11.8001
11.9465
11.6578
11.4384
11.2077
11.0019
10.8136
10.6807
10.633
10.6454
1
1
1
1
1
1
1
1
1
1
1
1
1
5.40913
11.8288
11.9614
11.6621
11.4311
11.191
10.9726
10.7815
10.6637
10.6346
10.6675
10.0293
10.7189
11.0293
11.1658
11.0488
11.051
10.9807
10.9456
11.2999
11.3919
11.1341
11.0736
10.9214
10.9519
10.9584
10.9729
11.1844
11.1175
10.8684
10.8977
10.9093
10.9497
10.9585
11.0142
11.1472
11.085
10.8612
10.8422
10.7269
10.8388
10.9435
11.0701
11.0998
11.0448
10.8484
10.7836
10.7308
10.8726
10.9268
11.2895
11.0444
10.9748
10.8887
10.8278
10.8287
10.9422
11.0468
11.4307
10.9326
10.918
10.9207
10.8949
10.8835
10.9708
11.1596
11.5434
10.8049
10.8463
10.8808
10.9031
10.9154
10.9642
11.1463
11.7724
10.6934
10.7045
10.7863
10.8233
10.8081
10.7288
10.3473
8.54115
10.5976
10.5419
10.6005
10.6557
10.5952
10.3364
9.64181
7.94435
10.5067
10.3982
10.3886
10.4321
10.357
9.99934
9.30448
7.70435
10.4468
10.2954
10.2254
10.2155
10.1233
9.77288
9.05963
7.75102
10.4437
10.2415
10.1211
10.0297
9.89399
9.56441
8.9382
7.90531
10.4646
10.2347
10.0653
9.91301
9.73006
9.4058
8.86879
8.07331
10.4899
10.2373
10.0249
9.84138
9.63272
9.31877
8.86171
8.23797
10.4884
10.218
10.0118
9.81462
9.5963
9.30691
8.92583
8.40743
10.4651
10.2171
10.0157
9.82434
9.62371
9.36006
9.02737
8.5744
10.4597
10.2439
10.0588
9.87561
9.67326
9.43732
9.15087
8.74915
10.4461
10.2711
10.1008
9.93397
9.73753
9.51176
9.24314
8.90479
10.458
10.2955
10.1392
9.9808
9.79775
9.58724
9.33401
9.03089
10.4879
10.3256
10.173
10.0265
9.86624
9.67745
9.42779
9.12229
10.46
10.305
10.1709
10.0495
9.91873
9.74167
9.51203
9.2077
10.4088
10.2732
10.1745
10.0892
9.97507
9.80477
9.56636
9.25518
10.3812
10.2908
10.2356
10.1575
10.0315
9.83032
9.5675
9.26735
10.3717
10.3131
10.2765
10.1972
10.0337
9.79854
9.51985
9.22868
10.3886
10.3566
10.3183
10.221
10.0237
9.75934
9.48775
9.22485
10.4414
10.4136
10.3642
10.2501
10.0275
9.76425
9.49683
9.232
10.5092
10.477
10.4175
10.2832
10.039
9.76721
9.48656
9.21003
10.5736
10.5455
10.4779
10.308
10.0404
9.7558
9.45758
9.16443
10.6359
10.6224
10.5432
10.3233
10.0365
9.73284
9.41634
9.10984
10.6833
10.6951
10.5981
10.3433
10.0452
9.71861
9.38172
9.07083
10.7255
10.7498
10.6302
10.3577
10.0479
9.69895
9.35021
9.04653
2.83527
1.23844
1.06257
1.2537
1.48066
1.82231
2.33972
2.81913
3.18863
3.4354
3.65333
3.84731
4.1849
4.41014
4.63708
5.35033
5.82147
6.01202
6.33304
6.54744
6.53995
6.40023
6.21362
6.11147
6.02647
5.94506
5.83459
5.7349
5.66491
5.66329
5.68597
5.60508
5.48926
5.36148
5.20415
5.02719
4.85101
4.69034
4.57385
4.50017
4.44092
4.39321
4.36372
4.32711
4.27653
4.2204
4.15786
4.07198
3.9319
3.76611
3.67156
3.6133
3.55843
3.50352
3.4479
3.39065
3.33047
3.26375
3.17614
3.04499
2.89545
2.80994
2.76506
2.72594
2.68899
2.65686
2.6359
2.62614
2.61238
2.58401
2.54779
2.48733
2.35251
2.19513
2.12581
2.09159
2.06189
2.03483
2.01116
1.98951
1.97206
1.96429
1.96178
1.9464
1.92594
1.89677
1.83127
1.65849
4.41736
2.82383
2.21078
2.09065
2.01709
1.96161
2.0444
2.28892
2.72392
3.1701
3.55943
3.8293
4.07344
4.27821
4.51509
5.19354
5.803
6.04023
6.22587
6.39881
6.43645
6.3541
6.23396
6.1228
6.03585
5.96227
5.87743
5.77853
5.69593
5.6455
5.61095
5.54834
5.44926
5.3378
5.21487
5.0789
4.92381
4.75371
4.60839
4.51724
4.45533
4.40576
4.36654
4.3223
4.27142
4.21489
4.14968
4.05772
3.90884
3.73357
3.63337
3.57654
3.52552
3.47741
3.42806
3.37773
3.32482
3.26419
3.18639
3.08026
2.94029
2.82643
2.77206
2.73319
2.69698
2.66445
2.64
2.6209
2.59553
2.5645
2.52491
2.46745
2.36961
2.2346
2.13418
2.08942
2.0611
2.0365
2.01419
1.99373
1.97661
1.96378
1.94919
1.935
1.91742
1.88991
1.83443
1.68256
5.51088
4.13053
3.17914
2.68384
2.45803
2.24744
2.124
2.21286
2.44668
2.8895
3.33744
3.76097
4.03626
4.21389
4.39419
4.98142
5.88638
6.28737
6.30484
6.26812
6.27497
6.2561
6.20847
6.12658
6.00156
5.90815
5.84111
5.7885
5.745
5.6736
5.57969
5.48313
5.37738
5.26978
5.17283
5.07795
4.96627
4.8238
4.6768
4.57293
4.5002
4.43592
4.374
4.31675
4.2617
4.20247
4.12997
4.02831
3.88386
3.72329
3.61124
3.54374
3.48806
3.43481
3.38175
3.328
3.27239
3.21429
3.15538
3.08807
2.99242
2.87135
2.787
2.74462
2.70957
2.67728
2.64525
2.60926
2.57157
2.5291
2.47846
2.42032
2.35592
2.27734
2.18047
2.09507
2.05495
2.03274
2.01253
1.99467
1.98041
1.96197
1.9412
1.91881
1.88855
1.84921
1.79805
1.69763
6.2604
5.14237
4.19825
3.44779
3.09984
2.90278
2.65046
2.46584
2.48653
2.66389
2.99064
3.403
3.73813
4.016
4.21228
4.60502
5.51311
6.26852
6.36899
6.24422
6.22876
6.2545
6.23768
6.17906
6.06543
5.916
5.82218
5.76404
5.70913
5.63461
5.53657
5.42241
5.31634
5.23374
5.16555
5.09427
5.0033
4.87741
4.73679
4.6291
4.54763
4.46992
4.39008
4.31091
4.23341
4.15397
4.06579
3.96319
3.84909
3.7362
3.62751
3.53686
3.47371
3.42009
3.36797
3.31605
3.2636
3.21031
3.15573
3.09494
3.01868
2.92211
2.82086
2.74915
2.70876
2.67466
2.63838
2.5983
2.55203
2.49493
2.42885
2.36698
2.3215
2.28014
2.22561
2.14429
2.06239
2.02437
2.00419
1.98696
1.97255
1.95352
1.93177
1.90483
1.86694
1.82455
1.78044
1.7452
6.79844
5.84693
5.04687
4.27751
3.71515
3.45556
3.24126
2.96642
2.74458
2.74116
2.83725
3.06727
3.33916
3.63963
3.93265
4.23616
4.91269
5.87768
6.35502
6.34375
6.26923
6.26931
6.24764
6.19969
6.1161
5.98607
5.8668
5.77954
5.69135
5.58583
5.45456
5.32885
5.24197
5.18563
5.13751
5.08403
5.01445
4.91541
4.7887
4.67061
4.57859
4.49713
4.41308
4.32002
4.2148
4.09616
3.97191
3.86245
3.77661
3.70108
3.61751
3.52109
3.44383
3.39189
3.34594
3.30186
3.25991
3.21776
3.16935
3.10746
3.03238
2.95281
2.8698
2.78406
2.70933
2.65526
2.61105
2.56783
2.5205
2.46264
2.39337
2.33266
2.29272
2.2609
2.22649
2.17841
2.10559
2.03206
1.99641
1.97387
1.95456
1.93744
1.91873
1.8976
1.86471
1.8284
1.84164
1.93552
7.22472
6.39726
5.68345
5.03904
4.41462
3.97735
3.77361
3.57541
3.30549
3.05357
2.98833
3.04914
3.14077
3.26194
3.50799
3.77211
4.1918
5.08041
6.07542
6.44744
6.40031
6.35596
6.30356
6.24213
6.17318
6.06737
5.92656
5.77669
5.63167
5.49305
5.36755
5.27307
5.20827
5.15572
5.10555
5.05332
4.99353
4.9158
4.81065
4.68942
4.57884
4.4813
4.38391
4.27797
4.16384
4.04479
3.92965
3.83356
3.75791
3.6908
3.62119
3.53985
3.45531
3.39155
3.34579
3.30645
3.26809
3.22765
3.17174
3.09319
3.01337
2.94598
2.88135
2.80457
2.71418
2.63515
2.57688
2.52676
2.47713
2.42445
2.37112
2.32498
2.28635
2.25157
2.21797
2.18137
2.13226
2.06152
1.99823
1.96508
1.94216
1.9329
1.93391
1.94239
1.97372
2.03444
2.13677
2.33117
7.54271
6.83546
6.1741
5.59996
5.08056
4.57605
4.20794
4.0225
3.83367
3.57354
3.29501
3.17449
3.21327
3.28894
3.31073
3.38791
3.53626
4.00199
5.15558
6.23505
6.47716
6.46152
6.38579
6.29896
6.21696
6.11728
5.96681
5.76177
5.56815
5.41865
5.32448
5.26001
5.19841
5.13789
5.08014
5.02179
4.96148
4.89135
4.80138
4.68227
4.54288
4.41151
4.29585
4.18934
4.08769
3.99255
3.90831
3.83269
3.75986
3.69028
3.62529
3.56201
3.49699
3.43053
3.36962
3.32002
3.27327
3.21384
3.1321
3.04825
2.98173
2.92663
2.86968
2.79839
2.70519
2.60986
2.54032
2.48773
2.43914
2.39303
2.35097
2.31315
2.27887
2.24781
2.21812
2.18642
2.14718
2.08812
2.01374
1.98185
1.98067
2.00489
2.06604
2.16338
2.26458
2.41256
2.55116
2.6826
7.80578
7.19083
6.59732
6.03249
5.56291
5.13499
4.70438
4.39703
4.23825
4.05951
3.77874
3.5233
3.45974
3.42035
3.37313
3.3269
3.28157
3.3561
3.88033
5.27901
6.22198
6.41392
6.40395
6.32556
6.22145
6.11801
5.97103
5.74845
5.54201
5.41445
5.34349
5.28542
5.21944
5.14228
5.05461
4.97749
4.91056
4.83942
4.75511
4.64136
4.48353
4.32229
4.20442
4.11754
4.04543
3.98285
3.92288
3.85867
3.78806
3.71569
3.65143
3.59496
3.53909
3.47055
3.38796
3.29727
3.20808
3.12854
3.05829
2.99927
2.94985
2.90214
2.84884
2.78133
2.69225
2.59249
2.51291
2.4609
2.4165
2.37461
2.33555
2.30136
2.27346
2.24881
2.22547
2.20325
2.17564
2.13997
2.09201
2.10024
2.1662
2.28025
2.42009
2.55686
2.6409
2.72385
2.80566
2.86251
8.03603
7.48848
6.96719
6.43016
5.94043
5.56359
5.19613
4.8329
4.59408
4.4452
4.24284
3.96331
3.7748
3.67283
3.52422
3.38811
3.31936
3.2972
3.33436
3.8572
5.17795
6.0645
6.34628
6.307
6.20134
6.07681
5.91658
5.71598
5.56467
5.4591
5.38214
5.31578
5.24032
5.15315
5.05248
4.94605
4.85571
4.77646
4.69301
4.5845
4.42185
4.24211
4.13803
4.0766
4.02426
3.98229
3.93867
3.88538
3.82507
3.755
3.68087
3.61713
3.5455
3.44979
3.33374
3.20997
3.11054
3.04275
2.99392
2.95338
2.91488
2.87353
2.82452
2.76204
2.68431
2.60133
2.5253
2.45035
2.39368
2.35312
2.3219
2.29809
2.27811
2.26262
2.25317
2.2545
2.27534
2.31122
2.36436
2.4547
2.56306
2.6923
2.78343
2.81577
2.84893
2.86574
2.89822
2.91071
8.25624
7.74774
7.27441
6.78815
6.3008
5.92253
5.62236
5.29135
4.99193
4.80146
4.644
4.41254
4.12647
3.96725
3.80828
3.60412
3.4689
3.35916
3.3032
3.33532
3.7812
4.92024
5.90446
6.20852
6.17068
6.00334
5.80163
5.66318
5.5887
5.50533
5.39549
5.30498
5.22651
5.14239
5.05026
4.94305
4.82509
4.714
4.61601
4.51065
4.36643
4.21576
4.12659
4.06948
4.02138
3.98553
3.95311
3.90988
3.85694
3.7894
3.69046
3.55627
3.43131
3.3349
3.24182
3.1444
3.05472
2.99529
2.95466
2.91847
2.8834
2.84792
2.80932
2.76254
2.69779
2.60157
2.48242
2.40701
2.36921
2.34417
2.32416
2.31044
2.30753
2.31931
2.36292
2.4668
2.65559
2.76466
2.8568
2.90402
2.90508
2.92528
2.95146
2.95365
2.94906
2.92723
2.93426
2.92475
8.46588
7.99424
7.54653
7.09913
6.64438
6.26445
5.99107
5.71719
5.40828
5.15981
4.98986
4.79566
4.51761
4.24409
4.08545
3.89178
3.68753
3.53628
3.4096
3.32163
3.35098
3.69743
4.66788
5.68577
5.97336
5.90413
5.73066
5.66634
5.60389
5.5041
5.37484
5.25202
5.17245
5.09807
5.02133
4.93254
4.82068
4.68355
4.536
4.40344
4.2973
4.21172
4.13654
4.07096
4.01711
3.97397
3.94032
3.89825
3.84355
3.77283
3.6587
3.4849
3.3157
3.20734
3.1391
3.08351
3.03331
2.99011
2.94787
2.9088
2.87172
2.83435
2.7973
2.75965
2.70777
2.59554
2.44825
2.38818
2.36779
2.35497
2.35695
2.38075
2.45061
2.58046
2.79083
3.02754
3.19974
3.23791
3.17758
3.08472
3.06191
3.03851
3.01517
2.98451
2.9533
2.92646
2.93686
2.95218
8.62406
8.19978
7.77982
7.38078
6.96749
6.59099
6.31459
6.08433
5.80072
5.51327
5.30134
5.11938
4.8812
4.57446
4.33963
4.17933
3.97144
3.77878
3.63301
3.48315
3.37202
3.38252
3.59887
4.37957
5.33279
5.61132
5.64777
5.67143
5.60529
5.48193
5.31942
5.17826
5.10123
5.03533
4.97468
4.89712
4.79825
4.65692
4.46785
4.3178
4.2427
4.18494
4.12796
4.07556
4.01661
3.95322
3.89542
3.83839
3.77846
3.70998
3.59723
3.4078
3.22913
3.12852
3.0688
3.03344
3.00958
2.98329
2.94483
2.90475
2.87448
2.84692
2.81573
2.77741
2.70492
2.55777
2.42977
2.40855
2.41127
2.44338
2.54221
2.71959
2.92218
3.14609
3.39381
3.5029
3.48187
3.37884
3.25751
3.18954
3.1422
3.09128
3.03019
2.97686
2.94705
2.92857
2.95207
2.98327
8.75382
8.37403
7.98039
7.60839
7.24826
6.89399
6.59718
6.37509
6.12076
5.8287
5.58117
5.39839
5.18997
4.91907
4.61627
4.41258
4.23437
4.03026
3.8487
3.69643
3.53731
3.4133
3.39562
3.50811
4.05798
4.85574
5.32357
5.50789
5.51433
5.42965
5.25589
5.10097
5.02335
4.96899
4.91834
4.84252
4.75187
4.62058
4.43092
4.27049
4.19761
4.1526
4.11747
4.06537
3.99607
3.90889
3.8348
3.77101
3.707
3.62718
3.51181
3.33567
3.15379
3.07592
3.04475
3.02733
3.00608
2.97486
2.94167
2.90708
2.87211
2.83471
2.78929
2.73263
2.65434
2.52568
2.49378
2.53249
2.64831
2.84819
3.10475
3.30602
3.43532
3.57714
3.63414
3.62208
3.5662
3.44056
3.31334
3.22951
3.15788
3.0843
3.02535
2.992
2.97005
2.96724
3.02256
3.02188
8.85783
8.48057
8.11676
7.79353
7.45033
7.13543
6.86469
6.64711
6.40791
6.11773
5.82383
5.611
5.42912
5.18783
4.89304
4.62204
4.44978
4.26724
4.07485
3.89843
3.73644
3.58315
3.45145
3.38973
3.43468
3.76587
4.43554
5.00938
5.28234
5.28359
5.20035
5.0506
4.96599
4.91311
4.87006
4.79496
4.70676
4.58381
4.42242
4.28888
4.19634
4.11157
4.01769
3.93862
3.88415
3.83714
3.78015
3.7159
3.63966
3.54934
3.43553
3.28385
3.14978
3.0778
3.03029
2.99057
2.95548
2.9359
2.93162
2.91188
2.87648
2.83267
2.78694
2.73909
2.69289
2.71128
2.81648
3.00074
3.23464
3.47711
3.53586
3.58178
3.66042
3.72434
3.71445
3.66888
3.57266
3.43846
3.3259
3.23844
3.14929
3.0848
3.05297
3.0299
3.01897
3.04491
3.08904
3.0419
8.92534
8.57184
8.23396
7.91189
7.60851
7.32492
7.05369
6.80665
6.62778
6.40485
6.11804
5.83371
5.61372
5.41219
5.16489
4.85391
4.61472
4.44076
4.26786
4.10328
3.93284
3.76591
3.60973
3.45567
3.38222
3.35393
3.50381
3.96634
4.54087
4.88143
5.04593
4.99918
4.97268
4.89243
4.80562
4.69849
4.59645
4.51114
4.41937
4.30765
4.19575
4.083
3.9683
3.86445
3.78103
3.71625
3.66176
3.60905
3.55016
3.47224
3.36896
3.26867
3.19061
3.12242
3.0443
2.98062
2.94105
2.9123
2.88904
2.86929
2.85629
2.83829
2.89122
3.00237
3.12825
3.30596
3.49854
3.63405
3.67752
3.7175
3.72068
3.72357
3.75249
3.75502
3.70607
3.61399
3.51255
3.42203
3.35183
3.27578
3.18356
3.13657
3.11408
3.0979
3.09955
3.10952
3.08407
3.00384
8.95544
8.6364
8.34034
8.04706
7.75736
7.47689
7.22894
6.98195
6.77718
6.56285
6.27769
5.99116
5.73881
5.49055
5.24411
5.04244
4.83837
4.64297
4.45346
4.27753
4.1145
3.94318
3.78224
3.6327
3.49663
3.38392
3.25963
3.27461
3.53838
4.03212
4.568
4.83053
4.84398
4.84017
4.76272
4.65073
4.54375
4.42276
4.29482
4.17793
4.07577
3.98109
3.88194
3.77765
3.69171
3.62881
3.57445
3.52642
3.48767
3.4459
3.39416
3.3241
3.21186
3.07715
2.98934
2.94654
2.91485
2.88571
2.87564
2.90745
2.99727
3.17336
3.44232
3.62939
3.78783
3.90901
3.90542
3.86393
3.82729
3.81408
3.80449
3.76886
3.7183
3.67776
3.62798
3.56087
3.50064
3.4671
3.42451
3.35283
3.254
3.20792
3.1867
3.17097
3.15245
3.11377
3.05912
2.94733
8.94195
8.67217
8.41378
8.15518
7.90558
7.66505
7.42414
7.16929
6.93716
6.71181
6.43212
6.13504
5.86024
5.60435
5.33991
5.09434
4.90491
4.77426
4.6444
4.49859
4.34482
4.18306
4.01703
3.82971
3.6144
3.40819
3.22516
3.09974
3.10242
3.23709
3.63502
4.19235
4.52707
4.65624
4.66746
4.61964
4.52246
4.39005
4.22507
4.06423
3.94807
3.85616
3.76499
3.6714
3.6108
3.56349
3.51808
3.4738
3.41599
3.35272
3.29607
3.23616
3.17026
3.07989
2.9795
2.92806
2.93069
2.98674
3.13481
3.36722
3.61592
3.8595
4.07424
4.17011
4.16964
4.09721
3.9957
3.94948
3.92125
3.88286
3.82252
3.73573
3.663
3.61297
3.57942
3.5592
3.56778
3.55633
3.52155
3.4545
3.3383
3.26332
3.22528
3.18868
3.14113
3.07983
3.00261
2.89677
8.96537
8.71791
8.47851
8.2476
8.02423
7.79943
7.55744
7.32069
7.10648
6.87343
6.58009
6.27425
5.98089
5.71241
5.44761
5.20053
5.01219
4.86837
4.72437
4.55803
4.40061
4.246
4.08606
3.91056
3.71906
3.5217
3.30583
3.12815
3.00472
2.96038
3.02516
3.27686
3.7446
4.12077
4.37618
4.48614
4.45538
4.35709
4.18472
3.99481
3.85751
3.7618
3.67346
3.59969
3.55062
3.50767
3.46988
3.41477
3.36004
3.30639
3.25877
3.20652
3.15444
3.06799
3.03987
3.10387
3.27748
3.53159
3.81658
4.01345
4.15436
4.30843
4.37094
4.36538
4.32255
4.20885
4.08122
4.01302
3.94633
3.87372
3.78723
3.69996
3.64231
3.60826
3.5925
3.63743
3.67292
3.65228
3.6138
3.52589
3.36977
3.24978
3.19264
3.14744
3.09534
3.02567
2.95916
2.88496
8.97478
8.73275
8.50339
8.28997
8.09195
7.88656
7.68448
7.48229
7.26588
6.98958
6.67631
6.36379
6.06496
5.78239
5.51753
5.28867
5.09962
4.94183
4.81584
4.65969
4.49736
4.33664
4.16933
3.9937
3.80585
3.598
3.36156
3.14985
3.00885
2.91607
2.87297
2.88526
3.00681
3.34215
3.74331
4.10783
4.26943
4.24079
4.12667
3.95145
3.79471
3.68699
3.59958
3.53058
3.47465
3.42664
3.39017
3.35011
3.31899
3.29203
3.26217
3.24038
3.25564
3.33105
3.49231
3.72748
3.96623
4.17862
4.26119
4.30228
4.35275
4.43638
4.47178
4.44937
4.39654
4.29699
4.1416
3.99276
3.8851
3.79853
3.73465
3.69998
3.67494
3.66555
3.69843
3.71822
3.69905
3.66591
3.61453
3.52862
3.38298
3.24733
3.16845
3.10428
3.03707
2.97676
2.93949
2.89949
8.94269
8.68905
8.45544
8.25466
8.0813
7.96444
7.87136
7.70129
7.42029
7.10087
6.75838
6.41718
6.11154
5.83446
5.58752
5.37377
5.18451
5.02118
4.89403
4.74531
4.57817
4.41039
4.23936
4.06355
3.8737
3.64691
3.38661
3.17102
3.04363
2.946
2.86432
2.80508
2.76674
2.81592
3.00762
3.37148
3.81376
3.99548
3.95805
3.83948
3.7375
3.63212
3.53309
3.45041
3.37825
3.32962
3.31029
3.32236
3.32528
3.36847
3.47427
3.65284
3.83966
4.01755
4.16766
4.28768
4.38651
4.43116
4.42443
4.43188
4.45846
4.51204
4.51249
4.47014
4.41964
4.3099
4.12775
3.96244
3.85065
3.78241
3.74675
3.72711
3.72986
3.75185
3.73465
3.70916
3.68466
3.64825
3.59522
3.51207
3.37695
3.22689
3.13195
3.0705
3.02057
2.98473
2.96065
2.93132
8.8865
8.62825
8.39847
8.22137
8.12165
8.08462
8.02292
7.79333
7.48761
7.15725
6.7977
6.45122
6.1535
5.88839
5.63943
5.41281
5.21747
5.06273
4.95265
4.80816
4.63858
4.47137
4.30372
4.12616
3.92106
3.66896
3.39975
3.20513
3.08045
2.98151
2.89201
2.80721
2.73176
2.68431
2.67452
2.77711
3.05714
3.41559
3.63596
3.64036
3.62103
3.54316
3.46385
3.37747
3.31318
3.29946
3.29433
3.36739
3.58662
3.90033
4.23435
4.46258
4.55617
4.54933
4.52878
4.53233
4.53511
4.53454
4.51282
4.47379
4.44873
4.47593
4.46751
4.40871
4.3594
4.28946
4.14302
3.95885
3.86789
3.83185
3.80414
3.7795
3.76275
3.76076
3.73074
3.69309
3.66
3.62217
3.57171
3.49935
3.37708
3.21161
3.10798
3.06427
3.03812
3.0209
3.0163
3.0007
8.82922
8.57548
8.36367
8.21789
8.15068
8.14387
8.06469
7.80844
7.50964
7.18424
6.83115
6.48988
6.17756
5.89196
5.62983
5.40711
5.22169
5.08924
5.00943
4.87021
4.70308
4.53579
4.35885
4.15985
3.92639
3.66575
3.41754
3.23674
3.11491
3.01396
2.9255
2.83951
2.75772
2.68457
2.62334
2.58785
2.59777
2.75066
2.9656
3.17966
3.29825
3.35688
3.36946
3.34935
3.33845
3.40217
3.57675
3.89992
4.30241
4.67547
4.86858
4.92358
4.89735
4.79122
4.72324
4.66596
4.58314
4.51875
4.46346
4.41562
4.40835
4.45643
4.45037
4.38739
4.33275
4.26798
4.14391
3.97384
3.88589
3.84662
3.81306
3.78277
3.75644
3.73752
3.71735
3.67594
3.63332
3.58969
3.53843
3.47423
3.37861
3.23819
3.14066
3.10228
3.07522
3.04979
3.03139
3.00305
8.792
8.54001
8.3411
8.22085
8.16714
8.1495
8.03657
7.76997
7.48103
7.17575
6.85911
6.52335
6.18408
5.87074
5.61067
5.4032
5.22723
5.11663
5.05874
4.91944
4.75261
4.58087
4.38704
4.167
3.92911
3.68355
3.45291
3.26864
3.13887
3.03854
2.94991
2.86587
2.78423
2.70538
2.62706
2.55433
2.49327
2.45481
2.45941
2.55007
2.74073
2.98825
3.19735
3.41483
3.71347
4.05502
4.30277
4.54464
4.8152
5.0509
5.09912
5.04661
4.95089
4.79652
4.69815
4.61856
4.54771
4.49643
4.45585
4.43256
4.45261
4.50337
4.47931
4.40878
4.33897
4.26207
4.15482
4.01318
3.912
3.8581
3.81301
3.77073
3.72951
3.69356
3.67552
3.64447
3.60045
3.55949
3.51553
3.46167
3.38342
3.27442
3.187
3.15194
3.12398
3.09425
3.07497
3.03881
8.7693
8.51827
8.33026
8.21852
8.17352
8.16288
8.05187
7.78822
7.50152
7.19842
6.87692
6.53336
6.17994
5.85447
5.6005
5.39961
5.22717
5.13386
5.09328
4.95168
4.78421
4.6068
4.39932
4.16734
3.93588
3.71143
3.48499
3.28364
3.14717
3.048
2.95999
2.87604
2.79488
2.71457
2.63383
2.54906
2.46659
2.38838
2.32656
2.23436
2.27653
2.50275
2.97362
3.63748
4.25717
4.73487
5.11951
5.37608
5.49204
5.47256
5.37326
5.2056
5.00611
4.82806
4.66534
4.57701
4.51474
4.46437
4.42891
4.41239
4.43428
4.48432
4.47568
4.41097
4.34088
4.26381
4.15959
4.01744
3.9085
3.84751
3.79256
3.74399
3.70055
3.66618
3.65456
3.62871
3.58456
3.54529
3.50698
3.4637
3.39669
3.27899
3.18439
3.14664
3.11733
3.08943
3.07544
3.03467
)
;

boundaryField
{
    inlet
    {
        type            fixedValue;
        value           uniform 1;
    }
    outlet
    {
        type            zeroGradient;
    }
    bottom
    {
        type            zeroGradient;
    }
    top
    {
        type            zeroGradient;
    }
    obstacle
    {
        type            zeroGradient;
    }
    defaultFaces
    {
        type            empty;
    }
}


// ************************************************************************* //
