/*--------------------------------*- C++ -*----------------------------------*\
  =========                 |
  \\      /  F ield         | OpenFOAM: The Open Source CFD Toolbox
   \\    /   O peration     | Website:  https://openfoam.org
    \\  /    A nd           | Version:  7
     \\/     M anipulation  |
\*---------------------------------------------------------------------------*/
FoamFile
{
    version     2.0;
    format      ascii;
    class       volVectorField;
    location    "2.8";
    object      U;
}
// * * * * * * * * * * * * * * * * * * * * * * * * * * * * * * * * * * * * * //

dimensions      [0 1 -1 0 0 0 0];

internalField   nonuniform List<vector> 
16512
(
(2.50909 0.613539 0)
(2.36488 0.725753 0)
(2.21429 0.896517 0)
(2.18558 0.918851 0)
(2.18056 0.885494 0)
(2.18679 0.871062 0)
(2.19175 0.871156 0)
(2.19254 0.886069 0)
(2.18712 0.897189 0)
(2.1901 0.896634 0)
(2.1954 0.891096 0)
(2.20415 0.876273 0)
(2.20814 0.862717 0)
(2.20895 0.856848 0)
(2.20821 0.859232 0)
(2.20922 0.860941 0)
(2.21272 0.858354 0)
(2.21816 0.854531 0)
(2.22451 0.846855 0)
(2.22852 0.84032 0)
(2.23133 0.838072 0)
(2.23223 0.836036 0)
(2.23385 0.83245 0)
(2.23811 0.831081 0)
(2.24356 0.831889 0)
(2.2536 0.8308 0)
(2.2602 0.828358 0)
(2.26461 0.825844 0)
(2.26506 0.820963 0)
(2.26286 0.813013 0)
(2.25907 0.80307 0)
(2.26035 0.795845 0)
(2.26616 0.794692 0)
(2.27284 0.794159 0)
(2.27955 0.794663 0)
(2.28599 0.795309 0)
(2.29209 0.794142 0)
(2.29799 0.790896 0)
(2.3034 0.785276 0)
(2.30588 0.776899 0)
(2.30164 0.765748 0)
(2.29437 0.753711 0)
(2.29328 0.746667 0)
(2.29651 0.745826 0)
(2.30179 0.746754 0)
(2.31177 0.750121 0)
(2.32184 0.753917 0)
(2.3276 0.754576 0)
(2.33445 0.75285 0)
(2.34052 0.749279 0)
(2.34535 0.744004 0)
(2.34802 0.73652 0)
(2.34528 0.725763 0)
(2.33578 0.709572 0)
(2.32833 0.696599 0)
(2.32877 0.690388 0)
(2.33239 0.689627 0)
(2.33689 0.689943 0)
(2.34644 0.692785 0)
(2.36155 0.70191 0)
(2.37786 0.712781 0)
(2.38574 0.715877 0)
(2.39051 0.714436 0)
(2.39519 0.708853 0)
(2.39672 0.699867 0)
(2.39161 0.68468 0)
(2.37787 0.659556 0)
(2.36579 0.638244 0)
(2.36514 0.631067 0)
(2.36806 0.629028 0)
(2.37289 0.631575 0)
(2.37968 0.636189 0)
(2.38912 0.645816 0)
(2.38824 0.624327 0)
(2.33418 0.508917 0)
(2.18342 0.241401 0)
(2.11202 0.0954994 0)
(2.04837 0.0275551 0)
(2.01673 -0.0337466 0)
(1.99276 -0.0762195 0)
(1.9819 -0.0946804 0)
(1.9825 -0.09739 0)
(1.98733 -0.0934045 0)
(1.99539 -0.0858104 0)
(2.01657 -0.0664502 0)
(2.04648 -0.0433521 0)
(2.06369 -0.0350344 0)
(2.07082 -0.0362489 0)
(2.07555 -0.0430809 0)
(2.07279 -0.055959 0)
(2.05988 -0.0805313 0)
(2.04146 -0.103767 0)
(2.0376 -0.111405 0)
(2.04286 -0.111765 0)
(2.05346 -0.106878 0)
(2.07514 -0.0904681 0)
(2.10241 -0.0690935 0)
(2.1164 -0.0619619 0)
(2.12245 -0.0638499 0)
(2.12459 -0.071712 0)
(2.11594 -0.0899996 0)
(2.09695 -0.116808 0)
(2.08676 -0.130073 0)
(2.09056 -0.131731 0)
(2.09694 -0.129207 0)
(2.11241 -0.120672 0)
(2.13651 -0.10169 0)
(2.15747 -0.0874356 0)
(2.16386 -0.0861125 0)
(2.16908 -0.0901579 0)
(2.1665 -0.100823 0)
(2.15336 -0.121066 0)
(2.13895 -0.138069 0)
(2.138 -0.141781 0)
(2.14305 -0.141199 0)
(2.15266 -0.139234 0)
(2.17089 -0.130221 0)
(2.19088 -0.116864 0)
(2.19913 -0.11291 0)
(2.20396 -0.114185 0)
(2.20471 -0.119991 0)
(2.1963 -0.13306 0)
(2.18434 -0.148576 0)
(2.18291 -0.154449 0)
(2.1876 -0.155147 0)
(2.19215 -0.154853 0)
(2.19631 -0.155559 0)
(2.18005 -0.180459 0)
(2.12748 -0.243541 0)
(2.07668 -0.298737 0)
(2.0295 -0.333496 0)
(2.00988 -0.359155 0)
(2.00379 -0.376874 0)
(2.00958 -0.379067 0)
(2.01852 -0.375991 0)
(2.03263 -0.366901 0)
(2.04426 -0.362011 0)
(2.05158 -0.363265 0)
(2.05874 -0.366291 0)
(2.06323 -0.369481 0)
(2.0644 -0.373444 0)
(2.06155 -0.379474 0)
(2.05633 -0.386972 0)
(2.05715 -0.390728 0)
(2.06327 -0.391192 0)
(2.06989 -0.390649 0)
(2.07873 -0.388475 0)
(2.09208 -0.38342 0)
(2.10277 -0.379213 0)
(2.10834 -0.37947 0)
(2.11366 -0.381067 0)
(2.1162 -0.384839 0)
(2.11293 -0.39286 0)
(2.1087 -0.401134 0)
(2.11233 -0.403954 0)
(2.118 -0.403845 0)
(2.12581 -0.402243 0)
(2.1372 -0.398389 0)
(2.14438 -0.396161 0)
(2.15 -0.397171 0)
(2.15412 -0.399269 0)
(2.15387 -0.404099 0)
(2.15046 -0.41058 0)
(2.15347 -0.413102 0)
(2.1588 -0.412998 0)
(2.16553 -0.411437 0)
(2.17523 -0.408196 0)
(2.18186 -0.406142 0)
(2.18775 -0.406925 0)
(2.19267 -0.408048 0)
(2.1944 -0.41122 0)
(2.19059 -0.418023 0)
(2.18824 -0.42393 0)
(2.1931 -0.425515 0)
(2.19871 -0.425387 0)
(2.20563 -0.423989 0)
(2.21338 -0.421322 0)
(2.219 -0.420075 0)
(2.22446 -0.420239 0)
(2.22886 -0.420407 0)
(2.23079 -0.421727 0)
(2.22972 -0.424338 0)
(2.23122 -0.426545 0)
(2.23633 -0.427007 0)
(2.24165 -0.426989 0)
(2.2472 -0.426544 0)
(2.25263 -0.426257 0)
(2.25797 -0.426478 0)
(2.26292 -0.427107 0)
(2.26669 -0.428288 0)
(2.26805 -0.430208 0)
(2.26767 -0.431888 0)
(2.27022 -0.431545 0)
(2.27468 -0.43019 0)
(2.27929 -0.428232 0)
(2.28369 -0.425729 0)
(2.28751 -0.423687 0)
(2.29087 -0.422561 0)
(2.2939 -0.422598 0)
(2.29597 -0.424503 0)
(2.29579 -0.429915 0)
(2.29772 -0.43524 0)
(2.302 -0.437899 0)
(2.30591 -0.440211 0)
(2.31259 -0.442809 0)
(2.32038 -0.443921 0)
(2.32575 -0.444715 0)
(2.33148 -0.446062 0)
(2.33726 -0.447428 0)
(2.34082 -0.448241 0)
(2.33876 -0.446564 0)
(2.33304 -0.439803 0)
(2.32958 -0.431643 0)
(2.33023 -0.42737 0)
(2.33371 -0.426485 0)
(2.3382 -0.426739 0)
(2.34245 -0.427279 0)
(2.34799 -0.428862 0)
(2.35495 -0.432963 0)
(2.36054 -0.438557 0)
(2.36517 -0.443347 0)
(2.36975 -0.446797 0)
(2.37408 -0.448393 0)
(2.37869 -0.44897 0)
(2.3833 -0.448827 0)
(2.38737 -0.44778 0)
(2.38898 -0.445123 0)
(2.38579 -0.441407 0)
(2.3815 -0.439685 0)
(2.38292 -0.439379 0)
(2.38651 -0.439191 0)
(2.39031 -0.439552 0)
(2.39442 -0.440241 0)
(2.39907 -0.44102 0)
(2.40566 -0.442273 0)
(2.41128 -0.444055 0)
(2.41504 -0.446109 0)
(2.41956 -0.448919 0)
(2.42285 -0.451972 0)
(2.42297 -0.454782 0)
(2.42154 -0.455288 0)
(2.42266 -0.453734 0)
(2.42548 -0.450995 0)
(2.42877 -0.447091 0)
(2.43192 -0.442061 0)
(2.43452 -0.436962 0)
(2.43665 -0.43367 0)
(2.43873 -0.432949 0)
(2.44049 -0.434387 0)
(2.44178 -0.43717 0)
(2.44193 -0.441706 0)
(2.44273 -0.445314 0)
(2.4462 -0.44658 0)
(2.44959 -0.447099 0)
(2.45334 -0.44749 0)
(2.46103 -0.448236 0)
(2.46924 -0.448013 0)
(2.47298 -0.447747 0)
(2.57393 0.538642 0)
(2.49972 0.61289 0)
(2.32623 0.799886 0)
(2.23061 0.915246 0)
(2.20112 0.873961 0)
(2.19616 0.864543 0)
(2.1956 0.876937 0)
(2.18459 0.902781 0)
(2.1802 0.907598 0)
(2.18674 0.905138 0)
(2.19788 0.890834 0)
(2.2052 0.871534 0)
(2.2082 0.859261 0)
(2.20772 0.856313 0)
(2.20686 0.861626 0)
(2.20755 0.863379 0)
(2.21246 0.862333 0)
(2.21911 0.858265 0)
(2.22651 0.848937 0)
(2.23056 0.843083 0)
(2.23095 0.842193 0)
(2.23014 0.840604 0)
(2.23329 0.840718 0)
(2.23812 0.842373 0)
(2.24776 0.84053 0)
(2.25554 0.835408 0)
(2.26098 0.83052 0)
(2.26251 0.825445 0)
(2.2606 0.818694 0)
(2.25659 0.809058 0)
(2.25674 0.801904 0)
(2.2616 0.800352 0)
(2.26833 0.799605 0)
(2.2753 0.799928 0)
(2.28126 0.801197 0)
(2.28654 0.801524 0)
(2.29235 0.799772 0)
(2.29794 0.794083 0)
(2.30065 0.784804 0)
(2.2971 0.773156 0)
(2.29071 0.761438 0)
(2.28982 0.754876 0)
(2.29267 0.754073 0)
(2.29806 0.754512 0)
(2.3085 0.756637 0)
(2.31758 0.758847 0)
(2.32334 0.759258 0)
(2.32997 0.757864 0)
(2.33559 0.755393 0)
(2.34019 0.750835 0)
(2.34271 0.74313 0)
(2.34044 0.73187 0)
(2.33216 0.715728 0)
(2.32581 0.703408 0)
(2.32655 0.698197 0)
(2.33037 0.698445 0)
(2.3352 0.6998 0)
(2.34545 0.703961 0)
(2.36037 0.713213 0)
(2.37483 0.722251 0)
(2.38118 0.724157 0)
(2.3861 0.722479 0)
(2.38979 0.71702 0)
(2.39027 0.707985 0)
(2.38442 0.691574 0)
(2.37096 0.665184 0)
(2.36098 0.646284 0)
(2.36122 0.638113 0)
(2.36545 0.638592 0)
(2.36981 0.638936 0)
(2.37598 0.648 0)
(2.3806 0.645057 0)
(2.35519 0.570337 0)
(2.2556 0.372875 0)
(2.11989 0.168256 0)
(2.05166 0.0343834 0)
(2.01863 -0.0250514 0)
(2.00534 -0.0476246 0)
(1.99307 -0.0663054 0)
(1.97707 -0.0837925 0)
(1.98093 -0.0946181 0)
(1.99076 -0.0961227 0)
(2.00312 -0.0855641 0)
(2.02281 -0.0592165 0)
(2.04741 -0.0338612 0)
(2.06151 -0.0273146 0)
(2.0683 -0.029418 0)
(2.07318 -0.0363294 0)
(2.07 -0.0493201 0)
(2.05499 -0.0746953 0)
(2.04002 -0.0987049 0)
(2.03972 -0.10736 0)
(2.0448 -0.106905 0)
(2.05484 -0.0990946 0)
(2.07579 -0.0806265 0)
(2.10218 -0.0602134 0)
(2.11534 -0.0545655 0)
(2.12159 -0.0568643 0)
(2.12352 -0.0645581 0)
(2.11397 -0.0823829 0)
(2.09441 -0.109619 0)
(2.08589 -0.124249 0)
(2.09019 -0.126864 0)
(2.09646 -0.124054 0)
(2.11149 -0.113735 0)
(2.1354 -0.0933646 0)
(2.15651 -0.0788383 0)
(2.16324 -0.0772081 0)
(2.16876 -0.0803049 0)
(2.16547 -0.0896845 0)
(2.15069 -0.110892 0)
(2.13713 -0.132367 0)
(2.13862 -0.140773 0)
(2.14382 -0.141432 0)
(2.15252 -0.137208 0)
(2.16955 -0.124628 0)
(2.18983 -0.109012 0)
(2.19939 -0.104187 0)
(2.20438 -0.105154 0)
(2.20527 -0.110509 0)
(2.19548 -0.123679 0)
(2.1831 -0.141107 0)
(2.18288 -0.148758 0)
(2.18743 -0.149324 0)
(2.19175 -0.147383 0)
(2.19622 -0.146715 0)
(2.18343 -0.16774 0)
(2.13192 -0.229104 0)
(2.08012 -0.286296 0)
(2.02998 -0.323943 0)
(2.00931 -0.349731 0)
(2.00279 -0.368908 0)
(2.00846 -0.372071 0)
(2.0171 -0.370092 0)
(2.03062 -0.361795 0)
(2.04178 -0.356114 0)
(2.04893 -0.35698 0)
(2.05615 -0.359604 0)
(2.0613 -0.362524 0)
(2.06375 -0.366113 0)
(2.0629 -0.371438 0)
(2.05786 -0.379205 0)
(2.0553 -0.385197 0)
(2.06062 -0.386281 0)
(2.06704 -0.386029 0)
(2.07512 -0.383914 0)
(2.08811 -0.37875 0)
(2.10077 -0.372536 0)
(2.10688 -0.371617 0)
(2.11268 -0.372917 0)
(2.11579 -0.376087 0)
(2.11297 -0.383621 0)
(2.10789 -0.392985 0)
(2.11017 -0.396929 0)
(2.11574 -0.397066 0)
(2.12304 -0.395542 0)
(2.13449 -0.391698 0)
(2.14359 -0.388302 0)
(2.1489 -0.388764 0)
(2.15372 -0.390639 0)
(2.15473 -0.394829 0)
(2.15088 -0.40156 0)
(2.15176 -0.405101 0)
(2.15696 -0.405324 0)
(2.16312 -0.404203 0)
(2.17256 -0.401628 0)
(2.18096 -0.398827 0)
(2.18647 -0.399249 0)
(2.19198 -0.400419 0)
(2.19473 -0.403248 0)
(2.19189 -0.409502 0)
(2.18745 -0.415961 0)
(2.19057 -0.417891 0)
(2.19606 -0.417684 0)
(2.2026 -0.416382 0)
(2.21171 -0.413837 0)
(2.21831 -0.411531 0)
(2.22366 -0.411715 0)
(2.22845 -0.412019 0)
(2.23127 -0.413243 0)
(2.23087 -0.416674 0)
(2.22996 -0.420558 0)
(2.23431 -0.421368 0)
(2.23967 -0.421284 0)
(2.24537 -0.420694 0)
(2.25091 -0.420175 0)
(2.25624 -0.420329 0)
(2.26132 -0.420564 0)
(2.2655 -0.42098 0)
(2.26753 -0.422344 0)
(2.26729 -0.424784 0)
(2.26996 -0.425812 0)
(2.27471 -0.425103 0)
(2.27939 -0.423662 0)
(2.28396 -0.421779 0)
(2.28815 -0.419808 0)
(2.29162 -0.418033 0)
(2.29401 -0.416902 0)
(2.29472 -0.417431 0)
(2.29332 -0.420249 0)
(2.29333 -0.423162 0)
(2.29685 -0.42485 0)
(2.30115 -0.425922 0)
(2.306 -0.42752 0)
(2.31454 -0.429689 0)
(2.32408 -0.432962 0)
(2.32885 -0.436464 0)
(2.3334 -0.439323 0)
(2.33803 -0.441983 0)
(2.34106 -0.444722 0)
(2.34152 -0.445976 0)
(2.34103 -0.443975 0)
(2.3413 -0.43816 0)
(2.34095 -0.429701 0)
(2.33964 -0.421479 0)
(2.34023 -0.417608 0)
(2.34319 -0.417342 0)
(2.34677 -0.418884 0)
(2.35067 -0.422202 0)
(2.35549 -0.426152 0)
(2.36039 -0.430114 0)
(2.36715 -0.435239 0)
(2.3743 -0.440009 0)
(2.37878 -0.441812 0)
(2.38395 -0.443013 0)
(2.3891 -0.443904 0)
(2.39292 -0.443997 0)
(2.39221 -0.442262 0)
(2.38713 -0.437465 0)
(2.38579 -0.43323 0)
(2.389 -0.431734 0)
(2.39324 -0.431273 0)
(2.39754 -0.431222 0)
(2.40169 -0.431375 0)
(2.40553 -0.43218 0)
(2.40968 -0.434328 0)
(2.41368 -0.437198 0)
(2.41696 -0.440904 0)
(2.41907 -0.444873 0)
(2.42027 -0.447536 0)
(2.42344 -0.447847 0)
(2.42747 -0.446689 0)
(2.43127 -0.444473 0)
(2.43477 -0.441449 0)
(2.43773 -0.437884 0)
(2.43973 -0.433837 0)
(2.44074 -0.430342 0)
(2.44144 -0.42866 0)
(2.44099 -0.429003 0)
(2.43923 -0.432279 0)
(2.43923 -0.435276 0)
(2.44258 -0.436567 0)
(2.44655 -0.436911 0)
(2.45047 -0.436438 0)
(2.45556 -0.43511 0)
(2.46253 -0.434669 0)
(2.47059 -0.436232 0)
(2.475 -0.438041 0)
(2.59017 0.521037 0)
(2.57176 0.5449 0)
(2.47785 0.658247 0)
(2.33391 0.831688 0)
(2.25543 0.842632 0)
(2.205 0.86352 0)
(2.18559 0.901547 0)
(2.1747 0.916995 0)
(2.17631 0.91531 0)
(2.18753 0.904779 0)
(2.20037 0.883337 0)
(2.20587 0.867123 0)
(2.20642 0.858419 0)
(2.20588 0.860902 0)
(2.20381 0.86664 0)
(2.20605 0.867754 0)
(2.21173 0.867111 0)
(2.22197 0.85934 0)
(2.22892 0.85144 0)
(2.232 0.847644 0)
(2.23098 0.847102 0)
(2.22909 0.84963 0)
(2.23313 0.852296 0)
(2.24041 0.851176 0)
(2.24894 0.843047 0)
(2.25514 0.835124 0)
(2.25861 0.829629 0)
(2.25793 0.823563 0)
(2.25464 0.81523 0)
(2.25429 0.807762 0)
(2.25842 0.806062 0)
(2.26448 0.805506 0)
(2.27164 0.804949 0)
(2.27747 0.806245 0)
(2.28192 0.807436 0)
(2.28712 0.807207 0)
(2.29251 0.802346 0)
(2.29518 0.792764 0)
(2.29208 0.780409 0)
(2.28655 0.768835 0)
(2.28612 0.762953 0)
(2.28858 0.762391 0)
(2.29361 0.762347 0)
(2.30414 0.763185 0)
(2.31292 0.764147 0)
(2.31891 0.763935 0)
(2.32556 0.762554 0)
(2.33091 0.761014 0)
(2.3354 0.757493 0)
(2.33769 0.750166 0)
(2.33553 0.738686 0)
(2.32813 0.7225 0)
(2.32295 0.710559 0)
(2.32409 0.705837 0)
(2.32776 0.70665 0)
(2.33339 0.709372 0)
(2.34457 0.715473 0)
(2.35942 0.72507 0)
(2.37169 0.731692 0)
(2.37678 0.732076 0)
(2.38193 0.729606 0)
(2.38459 0.723983 0)
(2.38417 0.715294 0)
(2.37743 0.698453 0)
(2.36368 0.672616 0)
(2.35618 0.6546 0)
(2.35752 0.648144 0)
(2.36157 0.646833 0)
(2.36498 0.649956 0)
(2.37042 0.654862 0)
(2.36014 0.622869 0)
(2.28946 0.477286 0)
(2.14803 0.208142 0)
(2.09336 0.0947995 0)
(2.0373 0.0405839 0)
(2.01186 -0.0159076 0)
(1.99134 -0.0549741 0)
(1.98582 -0.0717535 0)
(1.98279 -0.0801254 0)
(1.9821 -0.0766261 0)
(1.98564 -0.0737568 0)
(1.99936 -0.0639584 0)
(2.02515 -0.0434687 0)
(2.04918 -0.0246862 0)
(2.05876 -0.0201081 0)
(2.06552 -0.0223928 0)
(2.06829 -0.0305897 0)
(2.06519 -0.0466661 0)
(2.05337 -0.0707567 0)
(2.03904 -0.087742 0)
(2.03708 -0.0918135 0)
(2.04188 -0.0910961 0)
(2.05366 -0.0859076 0)
(2.07614 -0.0695689 0)
(2.10154 -0.0513973 0)
(2.11302 -0.0471505 0)
(2.11916 -0.0498257 0)
(2.12111 -0.0581198 0)
(2.11249 -0.076527 0)
(2.09374 -0.101966 0)
(2.08376 -0.114154 0)
(2.08744 -0.115839 0)
(2.09392 -0.113417 0)
(2.10969 -0.104232 0)
(2.13438 -0.0847035 0)
(2.15516 -0.0710215 0)
(2.16159 -0.0699366 0)
(2.16703 -0.0739924 0)
(2.1646 -0.0846037 0)
(2.15121 -0.105378 0)
(2.13603 -0.123106 0)
(2.13465 -0.127277 0)
(2.13953 -0.126705 0)
(2.14893 -0.12445 0)
(2.16748 -0.11485 0)
(2.18898 -0.100369 0)
(2.19894 -0.0956065 0)
(2.20362 -0.0970624 0)
(2.20474 -0.103229 0)
(2.19629 -0.116726 0)
(2.18287 -0.132328 0)
(2.17911 -0.136588 0)
(2.18359 -0.136083 0)
(2.18828 -0.135389 0)
(2.1944 -0.136151 0)
(2.18589 -0.156024 0)
(2.13627 -0.214793 0)
(2.08358 -0.273795 0)
(2.03086 -0.31469 0)
(2.00926 -0.340188 0)
(2.00209 -0.360415 0)
(2.00752 -0.36426 0)
(2.01531 -0.362985 0)
(2.0281 -0.356206 0)
(2.03937 -0.349702 0)
(2.04646 -0.3501 0)
(2.05367 -0.352428 0)
(2.05931 -0.354983 0)
(2.06284 -0.358012 0)
(2.06354 -0.362901 0)
(2.05945 -0.370826 0)
(2.05471 -0.378916 0)
(2.05817 -0.381683 0)
(2.0645 -0.381763 0)
(2.07205 -0.379785 0)
(2.08446 -0.374681 0)
(2.09851 -0.366958 0)
(2.10571 -0.364448 0)
(2.11166 -0.365368 0)
(2.11515 -0.368077 0)
(2.11283 -0.375062 0)
(2.10704 -0.384762 0)
(2.10759 -0.389523 0)
(2.11308 -0.390064 0)
(2.11992 -0.388917 0)
(2.13139 -0.385347 0)
(2.14237 -0.380536 0)
(2.14782 -0.380156 0)
(2.15312 -0.381757 0)
(2.15506 -0.385476 0)
(2.15154 -0.392494 0)
(2.15021 -0.397394 0)
(2.1553 -0.398128 0)
(2.16108 -0.397364 0)
(2.16964 -0.395137 0)
(2.17953 -0.391691 0)
(2.18506 -0.391296 0)
(2.19091 -0.392523 0)
(2.19459 -0.39505 0)
(2.19307 -0.400595 0)
(2.18775 -0.408711 0)
(2.18928 -0.412584 0)
(2.19454 -0.412788 0)
(2.20064 -0.411229 0)
(2.20973 -0.40784 0)
(2.21812 -0.403578 0)
(2.22317 -0.403092 0)
(2.22834 -0.403466 0)
(2.23151 -0.404741 0)
(2.23125 -0.408378 0)
(2.22889 -0.413205 0)
(2.23221 -0.415105 0)
(2.23752 -0.415412 0)
(2.24321 -0.414788 0)
(2.2491 -0.413769 0)
(2.25446 -0.413519 0)
(2.25958 -0.413731 0)
(2.26407 -0.414261 0)
(2.26717 -0.415605 0)
(2.26774 -0.417958 0)
(2.26882 -0.419399 0)
(2.27337 -0.418878 0)
(2.27814 -0.417953 0)
(2.28303 -0.416715 0)
(2.28768 -0.415314 0)
(2.29193 -0.413865 0)
(2.29527 -0.412709 0)
(2.29649 -0.41238 0)
(2.29486 -0.41348 0)
(2.29282 -0.415104 0)
(2.2949 -0.415674 0)
(2.29965 -0.41552 0)
(2.30477 -0.41566 0)
(2.3097 -0.415967 0)
(2.31581 -0.416931 0)
(2.32334 -0.41945 0)
(2.32921 -0.423392 0)
(2.33303 -0.428001 0)
(2.33678 -0.432242 0)
(2.34016 -0.436693 0)
(2.34216 -0.439708 0)
(2.34498 -0.439634 0)
(2.34884 -0.437611 0)
(2.35221 -0.433425 0)
(2.35287 -0.425743 0)
(2.34944 -0.415842 0)
(2.34688 -0.410315 0)
(2.34887 -0.409988 0)
(2.35214 -0.411726 0)
(2.35579 -0.414724 0)
(2.35987 -0.417905 0)
(2.36482 -0.421582 0)
(2.37311 -0.427957 0)
(2.37957 -0.432887 0)
(2.38397 -0.435268 0)
(2.38896 -0.437476 0)
(2.39342 -0.439429 0)
(2.39579 -0.440044 0)
(2.39491 -0.437744 0)
(2.39333 -0.432361 0)
(2.39376 -0.426728 0)
(2.39614 -0.423352 0)
(2.39996 -0.422353 0)
(2.40466 -0.422779 0)
(2.40922 -0.423844 0)
(2.41278 -0.425515 0)
(2.41571 -0.427333 0)
(2.41686 -0.430622 0)
(2.41674 -0.435901 0)
(2.42044 -0.438324 0)
(2.42441 -0.438952 0)
(2.42972 -0.438212 0)
(2.43452 -0.436459 0)
(2.43878 -0.435099 0)
(2.44303 -0.43364 0)
(2.44613 -0.431256 0)
(2.44599 -0.427989 0)
(2.4425 -0.425931 0)
(2.43968 -0.426119 0)
(2.43907 -0.426735 0)
(2.44173 -0.427753 0)
(2.44512 -0.427865 0)
(2.44886 -0.427506 0)
(2.45342 -0.427211 0)
(2.46091 -0.426236 0)
(2.46727 -0.424273 0)
(2.47049 -0.424797 0)
(2.47462 -0.426841 0)
(2.5925 0.521565 0)
(2.59267 0.525426 0)
(2.57167 0.558601 0)
(2.47714 0.675893 0)
(2.36913 0.755522 0)
(2.22549 0.848676 0)
(2.18028 0.920415 0)
(2.17463 0.922367 0)
(2.17996 0.914287 0)
(2.19231 0.893728 0)
(2.20284 0.870694 0)
(2.20641 0.861601 0)
(2.20588 0.863871 0)
(2.20039 0.872202 0)
(2.19939 0.875578 0)
(2.20328 0.875417 0)
(2.21414 0.868667 0)
(2.22404 0.858739 0)
(2.23014 0.854752 0)
(2.23103 0.854493 0)
(2.22947 0.858255 0)
(2.22893 0.861637 0)
(2.23422 0.859965 0)
(2.24145 0.850352 0)
(2.24753 0.840444 0)
(2.25186 0.833956 0)
(2.25254 0.828221 0)
(2.25136 0.822015 0)
(2.25203 0.815624 0)
(2.2554 0.813125 0)
(2.2617 0.811887 0)
(2.26825 0.810482 0)
(2.27465 0.810982 0)
(2.27902 0.812364 0)
(2.28304 0.812877 0)
(2.28738 0.809502 0)
(2.28991 0.80033 0)
(2.28712 0.78718 0)
(2.28223 0.775504 0)
(2.2821 0.770102 0)
(2.28445 0.770051 0)
(2.28873 0.770207 0)
(2.29867 0.770005 0)
(2.30841 0.77004 0)
(2.31418 0.769381 0)
(2.32102 0.767815 0)
(2.32628 0.766758 0)
(2.33059 0.764152 0)
(2.33277 0.757471 0)
(2.33073 0.746265 0)
(2.324 0.730168 0)
(2.31979 0.718293 0)
(2.32127 0.713734 0)
(2.32479 0.714781 0)
(2.33125 0.718507 0)
(2.34333 0.726536 0)
(2.35779 0.736625 0)
(2.36747 0.740734 0)
(2.37242 0.73989 0)
(2.37729 0.735928 0)
(2.37945 0.729836 0)
(2.37839 0.721591 0)
(2.37091 0.704589 0)
(2.35767 0.68106 0)
(2.35125 0.663583 0)
(2.35406 0.658194 0)
(2.35664 0.657394 0)
(2.35903 0.661025 0)
(2.35339 0.643274 0)
(2.31884 0.552395 0)
(2.20529 0.329511 0)
(2.08823 0.147795 0)
(2.03644 0.0384252 0)
(2.01306 -0.00391464 0)
(2.00398 -0.0245968 0)
(1.99161 -0.0409574 0)
(1.97472 -0.0567662 0)
(1.97752 -0.0741492 0)
(1.98789 -0.0814829 0)
(1.99536 -0.0781406 0)
(2.00832 -0.0601998 0)
(2.02885 -0.0337409 0)
(2.04825 -0.0181156 0)
(2.05615 -0.0158918 0)
(2.0634 -0.0181581 0)
(2.06491 -0.024528 0)
(2.05882 -0.0398441 0)
(2.04607 -0.064865 0)
(2.03813 -0.0838527 0)
(2.04056 -0.090766 0)
(2.04562 -0.0894029 0)
(2.05577 -0.0797351 0)
(2.07609 -0.0603742 0)
(2.09981 -0.0433045 0)
(2.1103 -0.0399007 0)
(2.11688 -0.0426211 0)
(2.11862 -0.0504371 0)
(2.10949 -0.0685554 0)
(2.09124 -0.0947833 0)
(2.0838 -0.108953 0)
(2.08792 -0.111196 0)
(2.09384 -0.107602 0)
(2.10856 -0.0964774 0)
(2.13241 -0.0763891 0)
(2.15318 -0.063045 0)
(2.15992 -0.0619028 0)
(2.16561 -0.0653081 0)
(2.16282 -0.0748548 0)
(2.14819 -0.0961474 0)
(2.13411 -0.117668 0)
(2.13517 -0.125774 0)
(2.14045 -0.126132 0)
(2.14894 -0.121444 0)
(2.16616 -0.108491 0)
(2.18747 -0.0920991 0)
(2.19821 -0.086827 0)
(2.2033 -0.0879408 0)
(2.20472 -0.0932195 0)
(2.19517 -0.106317 0)
(2.18094 -0.125077 0)
(2.17924 -0.134241 0)
(2.18411 -0.135767 0)
(2.18825 -0.133451 0)
(2.19348 -0.130485 0)
(2.18682 -0.146894 0)
(2.14122 -0.20017 0)
(2.08471 -0.26316 0)
(2.03193 -0.306372 0)
(2.01155 -0.331833 0)
(2.00169 -0.350116 0)
(2.00656 -0.355694 0)
(2.01365 -0.35543 0)
(2.0245 -0.350974 0)
(2.03654 -0.343562 0)
(2.04429 -0.342914 0)
(2.05148 -0.344769 0)
(2.05754 -0.346803 0)
(2.06193 -0.349289 0)
(2.06373 -0.35363 0)
(2.0607 -0.361399 0)
(2.05484 -0.371491 0)
(2.05581 -0.376282 0)
(2.06196 -0.376793 0)
(2.06909 -0.375267 0)
(2.08099 -0.370679 0)
(2.09596 -0.362031 0)
(2.10488 -0.358001 0)
(2.11074 -0.358527 0)
(2.11478 -0.360697 0)
(2.11267 -0.367125 0)
(2.10622 -0.377443 0)
(2.10538 -0.383589 0)
(2.11086 -0.384505 0)
(2.11716 -0.383167 0)
(2.12796 -0.379514 0)
(2.14041 -0.373686 0)
(2.14675 -0.372186 0)
(2.15238 -0.373422 0)
(2.15536 -0.376471 0)
(2.15229 -0.383173 0)
(2.1491 -0.389862 0)
(2.15349 -0.391729 0)
(2.15904 -0.391226 0)
(2.16683 -0.389111 0)
(2.17755 -0.38505 0)
(2.18386 -0.383352 0)
(2.18977 -0.384386 0)
(2.19394 -0.38648 0)
(2.19365 -0.391525 0)
(2.18828 -0.399898 0)
(2.18732 -0.40403 0)
(2.19239 -0.404349 0)
(2.19814 -0.403254 0)
(2.20689 -0.400767 0)
(2.21721 -0.396195 0)
(2.22276 -0.394701 0)
(2.22826 -0.395013 0)
(2.23192 -0.396012 0)
(2.23192 -0.399705 0)
(2.2282 -0.405823 0)
(2.22994 -0.408704 0)
(2.23519 -0.40916 0)
(2.24073 -0.4087 0)
(2.24698 -0.407716 0)
(2.25255 -0.407149 0)
(2.25787 -0.407248 0)
(2.26264 -0.407426 0)
(2.2662 -0.408093 0)
(2.26741 -0.409915 0)
(2.2676 -0.412251 0)
(2.27162 -0.412565 0)
(2.27635 -0.412019 0)
(2.28125 -0.411205 0)
(2.28618 -0.410363 0)
(2.29094 -0.40968 0)
(2.29527 -0.40927 0)
(2.29837 -0.409316 0)
(2.29873 -0.410157 0)
(2.29614 -0.411922 0)
(2.2958 -0.412195 0)
(2.29946 -0.410786 0)
(2.30376 -0.409237 0)
(2.30849 -0.407382 0)
(2.31361 -0.406133 0)
(2.31828 -0.406352 0)
(2.32217 -0.40787 0)
(2.32682 -0.411205 0)
(2.33095 -0.415754 0)
(2.33286 -0.421397 0)
(2.33611 -0.427907 0)
(2.34124 -0.431142 0)
(2.34731 -0.432656 0)
(2.35283 -0.432372 0)
(2.3579 -0.430748 0)
(2.36206 -0.427224 0)
(2.36247 -0.420298 0)
(2.3552 -0.410083 0)
(2.34777 -0.40476 0)
(2.34897 -0.40512 0)
(2.35352 -0.406623 0)
(2.35829 -0.408105 0)
(2.36332 -0.40994 0)
(2.371 -0.413388 0)
(2.37995 -0.420539 0)
(2.38475 -0.425495 0)
(2.38915 -0.428268 0)
(2.39333 -0.431041 0)
(2.39688 -0.433352 0)
(2.39932 -0.433986 0)
(2.40087 -0.43217 0)
(2.40221 -0.427388 0)
(2.40324 -0.421221 0)
(2.40422 -0.416375 0)
(2.40578 -0.414254 0)
(2.40787 -0.414473 0)
(2.41008 -0.416726 0)
(2.41173 -0.419969 0)
(2.41339 -0.423705 0)
(2.4171 -0.426156 0)
(2.42028 -0.427246 0)
(2.4247 -0.427946 0)
(2.43156 -0.428048 0)
(2.43727 -0.427525 0)
(2.44148 -0.427704 0)
(2.44616 -0.428434 0)
(2.45004 -0.428877 0)
(2.45114 -0.428477 0)
(2.44664 -0.426992 0)
(2.44123 -0.424952 0)
(2.44184 -0.422162 0)
(2.44529 -0.419636 0)
(2.44916 -0.418755 0)
(2.45272 -0.417741 0)
(2.45628 -0.415201 0)
(2.46052 -0.413709 0)
(2.46521 -0.414388 0)
(2.46961 -0.416536 0)
(2.47275 -0.419852 0)
(2.59479 0.525349 0)
(2.59702 0.525859 0)
(2.59549 0.529187 0)
(2.57057 0.558963 0)
(2.4895 0.639106 0)
(2.33175 0.761443 0)
(2.20386 0.92382 0)
(2.17986 0.927784 0)
(2.18968 0.900391 0)
(2.20037 0.875126 0)
(2.20701 0.862281 0)
(2.20752 0.868418 0)
(2.19769 0.880474 0)
(2.19175 0.885567 0)
(2.19466 0.885441 0)
(2.20479 0.878928 0)
(2.21841 0.865947 0)
(2.22642 0.860016 0)
(2.23037 0.860088 0)
(2.23062 0.864241 0)
(2.2288 0.869517 0)
(2.23019 0.86915 0)
(2.235 0.858217 0)
(2.23991 0.845261 0)
(2.24345 0.837071 0)
(2.24513 0.831747 0)
(2.24638 0.82778 0)
(2.24823 0.823866 0)
(2.25119 0.822359 0)
(2.25777 0.82051 0)
(2.26561 0.817488 0)
(2.27152 0.816408 0)
(2.27682 0.816777 0)
(2.28043 0.817441 0)
(2.28354 0.815611 0)
(2.28529 0.807719 0)
(2.28254 0.794324 0)
(2.278 0.781981 0)
(2.27806 0.776719 0)
(2.28026 0.776863 0)
(2.28403 0.777647 0)
(2.29241 0.777342 0)
(2.30378 0.77667 0)
(2.30947 0.775776 0)
(2.31644 0.774056 0)
(2.32173 0.773031 0)
(2.32582 0.771037 0)
(2.32768 0.765012 0)
(2.32563 0.754189 0)
(2.31961 0.73881 0)
(2.31654 0.72702 0)
(2.31837 0.722213 0)
(2.32182 0.72328 0)
(2.32909 0.727693 0)
(2.34176 0.736919 0)
(2.35507 0.746235 0)
(2.3623 0.748738 0)
(2.3678 0.746981 0)
(2.37207 0.741705 0)
(2.37402 0.735058 0)
(2.37288 0.726374 0)
(2.36519 0.710965 0)
(2.35276 0.687798 0)
(2.34716 0.674653 0)
(2.3502 0.667451 0)
(2.35128 0.667718 0)
(2.35044 0.662972 0)
(2.3239 0.611533 0)
(2.23345 0.434653 0)
(2.11067 0.179895 0)
(2.06983 0.0939216 0)
(2.02199 0.0507154 0)
(2.00468 0.00371409 0)
(1.98895 -0.026338 0)
(1.98577 -0.0457199 0)
(1.97951 -0.0599846 0)
(1.97538 -0.0572925 0)
(1.97816 -0.0550893 0)
(1.98717 -0.0512171 0)
(2.00927 -0.0396257 0)
(2.03352 -0.020859 0)
(2.04719 -0.010909 0)
(2.05332 -0.0101931 0)
(2.0586 -0.0139639 0)
(2.05933 -0.0228627 0)
(2.05417 -0.0399086 0)
(2.04312 -0.0599613 0)
(2.0354 -0.0701448 0)
(2.03708 -0.072279 0)
(2.04229 -0.070855 0)
(2.05514 -0.064797 0)
(2.07653 -0.0491691 0)
(2.09775 -0.0353534 0)
(2.1064 -0.0333302 0)
(2.11287 -0.0369073 0)
(2.11487 -0.045837 0)
(2.10752 -0.0638946 0)
(2.091 -0.0863616 0)
(2.08163 -0.096493 0)
(2.08486 -0.0975142 0)
(2.09127 -0.0951613 0)
(2.10694 -0.0863765 0)
(2.13104 -0.0677325 0)
(2.15086 -0.055372 0)
(2.15725 -0.054708 0)
(2.16286 -0.0589579 0)
(2.16088 -0.0696622 0)
(2.14797 -0.0904224 0)
(2.13272 -0.10825 0)
(2.13124 -0.112559 0)
(2.13617 -0.111914 0)
(2.14554 -0.109095 0)
(2.16408 -0.098611 0)
(2.18605 -0.0833166 0)
(2.19677 -0.0781491 0)
(2.20167 -0.0795395 0)
(2.20345 -0.0855414 0)
(2.19552 -0.099163 0)
(2.18117 -0.116559 0)
(2.1756 -0.122067 0)
(2.17984 -0.121263 0)
(2.18429 -0.119698 0)
(2.19073 -0.11938 0)
(2.18608 -0.137737 0)
(2.14757 -0.186755 0)
(2.08122 -0.256559 0)
(2.03516 -0.299498 0)
(2.01486 -0.321022 0)
(2.00401 -0.337637 0)
(2.00545 -0.347547 0)
(2.01235 -0.348551 0)
(2.02037 -0.345736 0)
(2.03228 -0.338128 0)
(2.04207 -0.335195 0)
(2.04942 -0.336695 0)
(2.05584 -0.338287 0)
(2.06095 -0.340176 0)
(2.06376 -0.343969 0)
(2.06158 -0.351426 0)
(2.05505 -0.36281 0)
(2.05362 -0.369825 0)
(2.05933 -0.370952 0)
(2.06599 -0.369841 0)
(2.07753 -0.36586 0)
(2.09311 -0.356958 0)
(2.10395 -0.351624 0)
(2.10971 -0.351872 0)
(2.11424 -0.354126 0)
(2.11277 -0.360289 0)
(2.10585 -0.370575 0)
(2.10315 -0.377227 0)
(2.10832 -0.378304 0)
(2.11445 -0.377038 0)
(2.12472 -0.373632 0)
(2.13791 -0.367026 0)
(2.14545 -0.364187 0)
(2.15105 -0.365202 0)
(2.1548 -0.3682 0)
(2.15299 -0.374497 0)
(2.1484 -0.381569 0)
(2.15093 -0.38388 0)
(2.15648 -0.383567 0)
(2.16354 -0.381953 0)
(2.17447 -0.378581 0)
(2.18274 -0.37588 0)
(2.18818 -0.376564 0)
(2.19318 -0.378444 0)
(2.19421 -0.382527 0)
(2.18858 -0.391028 0)
(2.18628 -0.397647 0)
(2.19109 -0.399168 0)
(2.19643 -0.398317 0)
(2.20471 -0.395649 0)
(2.21583 -0.390161 0)
(2.22259 -0.387013 0)
(2.22798 -0.38722 0)
(2.23231 -0.387838 0)
(2.23309 -0.390738 0)
(2.2284 -0.397336 0)
(2.22744 -0.401864 0)
(2.23254 -0.402658 0)
(2.23794 -0.402259 0)
(2.24436 -0.401202 0)
(2.25041 -0.400049 0)
(2.25567 -0.400032 0)
(2.26074 -0.400204 0)
(2.26488 -0.400509 0)
(2.26681 -0.401698 0)
(2.26633 -0.403932 0)
(2.26901 -0.405001 0)
(2.27388 -0.404783 0)
(2.27888 -0.404377 0)
(2.28398 -0.403963 0)
(2.28892 -0.403804 0)
(2.29379 -0.403863 0)
(2.29807 -0.404429 0)
(2.30001 -0.406592 0)
(2.29878 -0.409793 0)
(2.2977 -0.411519 0)
(2.30056 -0.410285 0)
(2.30509 -0.407849 0)
(2.30953 -0.404939 0)
(2.31369 -0.401522 0)
(2.31715 -0.39815 0)
(2.32005 -0.39666 0)
(2.32299 -0.397791 0)
(2.32542 -0.400689 0)
(2.32704 -0.406492 0)
(2.33034 -0.412496 0)
(2.33416 -0.416601 0)
(2.3398 -0.420654 0)
(2.34793 -0.422449 0)
(2.35589 -0.421852 0)
(2.36128 -0.421035 0)
(2.36691 -0.4212 0)
(2.37134 -0.42014 0)
(2.36851 -0.414791 0)
(2.35638 -0.404819 0)
(2.35047 -0.399486 0)
(2.35318 -0.399174 0)
(2.3575 -0.39993 0)
(2.36184 -0.401256 0)
(2.3667 -0.403729 0)
(2.3735 -0.407533 0)
(2.38063 -0.413749 0)
(2.38561 -0.418997 0)
(2.39037 -0.421909 0)
(2.39546 -0.424365 0)
(2.40058 -0.425663 0)
(2.40533 -0.42584 0)
(2.40902 -0.424236 0)
(2.41132 -0.420771 0)
(2.41173 -0.415463 0)
(2.41079 -0.410124 0)
(2.41053 -0.40796 0)
(2.41053 -0.409271 0)
(2.41066 -0.412567 0)
(2.41306 -0.414563 0)
(2.41647 -0.415328 0)
(2.41967 -0.4162 0)
(2.4237 -0.417066 0)
(2.43086 -0.417382 0)
(2.43811 -0.418165 0)
(2.44305 -0.419577 0)
(2.44776 -0.421426 0)
(2.45159 -0.42412 0)
(2.45258 -0.427284 0)
(2.44914 -0.429111 0)
(2.44686 -0.426354 0)
(2.44824 -0.420939 0)
(2.45025 -0.415255 0)
(2.45333 -0.410489 0)
(2.45673 -0.407488 0)
(2.45991 -0.406165 0)
(2.46337 -0.406372 0)
(2.46736 -0.407516 0)
(2.47094 -0.409051 0)
(2.47177 -0.413191 0)
(2.59431 0.530844 0)
(2.59792 0.527953 0)
(2.59729 0.525558 0)
(2.59495 0.527724 0)
(2.56885 0.556096 0)
(2.47095 0.650377 0)
(2.27969 0.866328 0)
(2.22317 0.919052 0)
(2.2074 0.875571 0)
(2.21133 0.864697 0)
(2.20972 0.870055 0)
(2.19514 0.887582 0)
(2.1847 0.895186 0)
(2.18656 0.894354 0)
(2.19455 0.888888 0)
(2.21277 0.873974 0)
(2.22223 0.863913 0)
(2.22787 0.863493 0)
(2.22895 0.869066 0)
(2.2272 0.875604 0)
(2.22688 0.877175 0)
(2.22994 0.86852 0)
(2.2342 0.852183 0)
(2.23622 0.840101 0)
(2.23817 0.834386 0)
(2.24106 0.831542 0)
(2.24378 0.829773 0)
(2.24672 0.829938 0)
(2.25201 0.829416 0)
(2.26211 0.826092 0)
(2.26752 0.82291 0)
(2.27358 0.821996 0)
(2.27788 0.821782 0)
(2.28079 0.820625 0)
(2.28178 0.814489 0)
(2.27902 0.80194 0)
(2.27428 0.788599 0)
(2.27422 0.783014 0)
(2.27646 0.783342 0)
(2.27987 0.78462 0)
(2.28649 0.784852 0)
(2.29782 0.784335 0)
(2.30542 0.782958 0)
(2.3117 0.781292 0)
(2.31731 0.780126 0)
(2.32105 0.778368 0)
(2.3225 0.772586 0)
(2.32009 0.762234 0)
(2.31471 0.747691 0)
(2.31304 0.736376 0)
(2.31536 0.731709 0)
(2.31897 0.732481 0)
(2.32723 0.736938 0)
(2.34006 0.746431 0)
(2.35144 0.754097 0)
(2.35689 0.755168 0)
(2.36277 0.753027 0)
(2.36624 0.747055 0)
(2.36834 0.740043 0)
(2.36703 0.731009 0)
(2.36024 0.715581 0)
(2.34862 0.696121 0)
(2.34444 0.683075 0)
(2.34567 0.677822 0)
(2.34535 0.676181 0)
(2.32455 0.637435 0)
(2.26922 0.517671 0)
(2.15142 0.286455 0)