/*--------------------------------*- C++ -*----------------------------------*\
  =========                 |
  \\      /  F ield         | OpenFOAM: The Open Source CFD Toolbox
   \\    /   O peration     | Website:  https://openfoam.org
    \\  /    A nd           | Version:  7
     \\/     M anipulation  |
\*---------------------------------------------------------------------------*/
FoamFile
{
    version     2.0;
    format      ascii;
    class       volScalarField;
    location    "1.6";
    object      rho;
}
// * * * * * * * * * * * * * * * * * * * * * * * * * * * * * * * * * * * * * //

dimensions      [1 -3 0 0 0 0 0];

internalField   nonuniform List<scalar> 
16192
(
1.97865
1.97051
1.96644
1.96425
1.96273
1.96211
1.96271
1.96602
1.97332
1.98085
1.98407
1.98276
1.97408
1.96032
1.94989
1.94317
1.93964
1.93763
1.93903
1.94693
1.94915
1.94771
1.94481
1.93871
1.92555
1.91348
1.9096
1.90815
1.90881
1.91345
1.91449
1.91285
1.91058
1.90721
1.90323
1.90019
1.89818
1.89601
1.89173
1.88413
1.87537
1.86972
1.8678
1.86702
1.86525
1.86302
1.8608
1.8582
1.85489
1.85101
1.84661
1.84227
1.83928
1.83751
1.83649
1.8395
1.84597
1.84684
1.84587
1.84386
1.83924
1.83092
1.82609
1.82404
1.82226
1.82074
1.82064
1.82438
1.82566
1.82369
1.81963
1.81154
1.79625
1.77579
1.7627
1.75812
1.75542
1.75354
1.7523
1.75183
1.75417
1.76137
1.77235
1.78209
1.78639
1.78609
1.78479
1.78317
1.78066
1.77719
1.77183
1.76276
1.74867
1.73422
1.72597
1.72117
1.71705
1.71443
1.71298
1.712
1.71204
1.71713
1.72764
1.73375
1.73407
1.73302
1.73138
1.72812
1.72001
1.70493
1.68802
1.67817
1.67506
1.67379
1.67143
1.6684
1.66537
1.6608
1.65324
1.64751
1.64604
1.64453
1.6433
1.64304
1.64617
1.65759
1.67309
1.67953
1.68137
1.68405
1.68837
1.69239
1.6949
1.69017
1.66876
1.65928
1.66205
1.66297
1.66108
1.65854
1.65818
1.66185
1.67983
1.7145
1.73978
1.74904
1.75441
1.75626
1.75498
1.74484
1.71645
1.68371
1.66908
1.6626
1.65729
1.65269
1.64902
1.64615
1.64339
1.64035
1.6366
1.63218
1.62742
1.6221
1.61667
1.61286
1.61128
1.61045
1.61271
1.62619
1.64802
1.65754
1.65696
1.65426
1.64974
1.63866
1.61169
1.57523
1.55501
1.54993
1.54806
1.54675
1.5462
1.54728
1.55042
1.55121
1.54999
1.54861
1.54759
1.54789
1.55319
1.57084
1.59879
1.61196
1.6132
1.61266
1.60739
1.58784
1.54761
1.51711
1.50918
1.50455
1.49807
1.48796
1.48224
1.48253
1.48562
1.49593
1.51966
1.5734
1.66542
1.79877
1.96816
2.12232
2.26884
2.33649
2.34086
2.35621
2.37296
2.38239
2.38172
2.3558
2.34366
2.3469
2.3712
2.43814
2.49965
2.51001
2.50649
2.49223
2.45934
2.41565
2.37735
2.34667
2.32455
2.31569
2.31352
2.31397
2.31707
2.31708
2.31535
2.31263
2.31153
2.31163
2.31828
2.34484
2.39854
2.43503
2.43577
2.43195
2.42118
2.39023
2.32788
1.98623
1.97431
1.96369
1.95966
1.95822
1.95797
1.9598
1.96746
1.98098
1.9909
1.99206
1.98998
1.98322
1.96466
1.94569
1.93876
1.93569
1.93349
1.9328
1.93816
1.9476
1.94971
1.94817
1.94582
1.94072
1.93085
1.9207
1.91563
1.9143
1.91543
1.91451
1.91209
1.9081
1.9026
1.89937
1.89777
1.89672
1.89658
1.89659
1.89589
1.89298
1.88613
1.87542
1.86814
1.86501
1.8626
1.8603
1.85768
1.85432
1.8503
1.84586
1.84144
1.838
1.83583
1.83442
1.83412
1.83858
1.84565
1.84715
1.84546
1.84258
1.83735
1.82886
1.82361
1.82135
1.81949
1.81799
1.81909
1.82605
1.82852
1.82727
1.82454
1.8193
1.80732
1.78546
1.76498
1.75657
1.75305
1.7502
1.74838
1.74717
1.74693
1.74938
1.75645
1.76867
1.7804
1.78491
1.78464
1.784
1.78262
1.78011
1.77595
1.76798
1.75308
1.73473
1.72251
1.71677
1.7133
1.71084
1.7094
1.70864
1.70892
1.71287
1.72147
1.73045
1.73303
1.73171
1.7302
1.72814
1.72333
1.71338
1.70119
1.69199
1.68486
1.67867
1.67359
1.66877
1.66259
1.65375
1.64484
1.63973
1.63802
1.63641
1.63504
1.63448
1.63724
1.64984
1.67044
1.68214
1.68518
1.68834
1.69323
1.69829
1.70239
1.70184
1.68372
1.66527
1.66097
1.65902
1.65463
1.65309
1.65255
1.65529
1.67197
1.70805
1.7413
1.75365
1.75688
1.75777
1.75627
1.74742
1.72283
1.6881
1.66603
1.65784
1.65345
1.65042
1.64777
1.64523
1.64257
1.63928
1.63487
1.6295
1.62372
1.61834
1.61417
1.61147
1.61002
1.6093
1.6113
1.62041
1.63627
1.64926
1.65164
1.64865
1.64232
1.63243
1.61451
1.58618
1.56116
1.55223
1.55076
1.5523
1.55556
1.55452
1.5517
1.5478
1.54353
1.54035
1.53854
1.53817
1.54259
1.56208
1.59711
1.61715
1.62085
1.621
1.61726
1.60029
1.55725
1.51564
1.50062
1.49164
1.4851
1.48159
1.48067
1.48058
1.48145
1.48602
1.49703
1.51434
1.54477
1.60218
1.69298
1.81201
1.93432
2.06153
2.14432
2.19321
2.23668
2.28386
2.32915
2.33422
2.31382
2.31617
2.33095
2.3858
2.46362
2.49561
2.49383
2.48691
2.46329
2.41822
2.37043
2.33534
2.31568
2.31027
2.30875
2.3096
2.31674
2.31858
2.31795
2.31348
2.31112
2.30975
2.31257
2.33403
2.3867
2.43148
2.43522
2.43262
2.42518
2.38726
1.98743
1.98063
1.96799
1.95957
1.95707
1.95645
1.95924
1.97076
1.98514
1.99103
1.99076
1.9885
1.98344
1.9717
1.95205
1.93917
1.93508
1.93292
1.93219
1.93389
1.93789
1.94444
1.94904
1.94856
1.94732
1.94506
1.94092
1.93404
1.92507
1.91854
1.91493
1.91118
1.90534
1.89938
1.8964
1.89462
1.89341
1.89432
1.90011
1.90291
1.90119
1.8975
1.88955
1.87492
1.86485
1.86107
1.85833
1.85605
1.85343
1.84974
1.84564
1.84197
1.83883
1.83642
1.8348
1.83388
1.83348
1.83444
1.83697
1.83984
1.84036
1.83809
1.83266
1.8256
1.82131
1.81926
1.81768
1.81719
1.82117
1.82877
1.83046
1.82964
1.82781
1.8245
1.81625
1.79728
1.7714
1.7559
1.75036
1.7465
1.74384
1.74212
1.7408
1.74055
1.7441
1.75431
1.76932
1.78178
1.78531
1.78382
1.78189
1.77962
1.77636
1.77028
1.75816
1.74075
1.72493
1.71551
1.71107
1.70851
1.70667
1.70564
1.70519
1.70653
1.71195
1.72189
1.72952
1.73023
1.7286
1.72722
1.72499
1.72135
1.71494
1.7054
1.69552
1.68752
1.68025
1.67138
1.65909
1.64606
1.63777
1.63314
1.63108
1.62982
1.62901
1.62869
1.63191
1.64395
1.66485
1.68165
1.68798
1.69145
1.69569
1.70106
1.70637
1.70852
1.69753
1.67692
1.66131
1.65387
1.65186
1.65142
1.65198
1.65553
1.66823
1.69549
1.73086
1.75139
1.75547
1.75536
1.75334
1.74646
1.72783
1.69464
1.66504
1.65415
1.65026
1.64774
1.6458
1.6439
1.64192
1.63992
1.63739
1.63392
1.62951
1.62361
1.61681
1.61163
1.60875
1.60762
1.60763
1.61076
1.61833
1.63058
1.63944
1.64018
1.638
1.6336
1.62359
1.6046
1.57974
1.5646
1.56164
1.55989
1.557
1.55293
1.54574
1.53728
1.53264
1.5308
1.53016
1.5309
1.53827
1.5631
1.60505
1.62676
1.62792
1.62628
1.62072
1.60134
1.55128
1.50145
1.48758
1.48404
1.48252
1.48155
1.48123
1.48258
1.48867
1.49826
1.50472
1.50876
1.51619
1.53519
1.57692
1.62988
1.67983
1.73505
1.81109
1.88378
1.95218
2.03869
2.11373
2.21172
2.24302
2.25222
2.28112
2.32137
2.39445
2.46497
2.47609
2.47152
2.45619
2.41977
2.37401
2.33475
2.31351
2.30905
2.30863
2.31298
2.3227
2.32514
2.32376
2.31597
2.30836
2.30472
2.30508
2.32361
2.38101
2.43851
2.44862
2.44731
2.42888
1.98655
1.98402
1.97792
1.96816
1.96148
1.96037
1.96376
1.97123
1.97629
1.98082
1.98494
1.98456
1.98121
1.976
1.96707
1.95319
1.94124
1.93671
1.93501
1.93453
1.93404
1.93413
1.93951
1.94858
1.95142
1.95181
1.95077
1.94824
1.94198
1.92934
1.91678
1.90935
1.90378
1.8988
1.89585
1.89394
1.89281
1.89523
1.90301
1.90483
1.90249
1.89983
1.89619
1.8883
1.87343
1.86185
1.85781
1.85523
1.85289
1.85049
1.84827
1.84623
1.84358
1.84115
1.83902
1.83616
1.83272
1.83001
1.82883
1.82861
1.83017
1.83221
1.83166
1.82839
1.82429
1.82129
1.81945
1.81836
1.81908
1.82283
1.82817
1.83079
1.83101
1.83025
1.82821
1.82297
1.80825
1.78052
1.7564
1.74697
1.74235
1.73902
1.73716
1.73576
1.73494
1.73641
1.74353
1.75663
1.77225
1.78125
1.782
1.77991
1.77757
1.77489
1.77053
1.76272
1.75032
1.73446
1.71939
1.71044
1.70634
1.70333
1.7015
1.70048
1.70017
1.70273
1.71074
1.72153
1.72761
1.72825
1.72802
1.72721
1.72463
1.71965
1.71214
1.70414
1.69707
1.6893
1.67753
1.65881
1.64065
1.63213
1.62826
1.62677
1.626
1.62544
1.62597
1.62995
1.63878
1.65474
1.67485
1.68769
1.69247
1.69611
1.70149
1.7079
1.71255
1.71065
1.69324
1.66806
1.65529
1.65366
1.65317
1.65312
1.65436
1.66029
1.67732
1.7108
1.74264
1.75166
1.75115
1.74956
1.74498
1.73187
1.70432
1.66931
1.65232
1.64809
1.64562
1.64378
1.64299
1.64287
1.64251
1.64156
1.63995
1.63693
1.63068
1.62018
1.61103
1.60498
1.60103
1.59799
1.59687
1.59963
1.61139
1.62963
1.63859
1.63937
1.63913
1.63714
1.62873
1.60812
1.5805
1.56472
1.55775
1.55072
1.5406
1.53007
1.52625
1.52535
1.52507
1.52623
1.53168
1.54468
1.57254
1.61068
1.62772
1.62686
1.62257
1.61416
1.59058
1.53961
1.49592
1.4859
1.48421
1.48353
1.4836
1.48704
1.49619
1.50403
1.505
1.5047
1.50397
1.50465
1.51525
1.54639
1.58189
1.6
1.60746
1.61169
1.62106
1.65474
1.70729
1.80162
1.90915
2.0252
2.10966
2.15748
2.22201
2.29826
2.38554
2.44043
2.44681
2.44129
2.41695
2.38196
2.34847
2.32411
2.31427
2.31554
2.32638
2.33669
2.33705
2.33296
2.32048
2.30689
2.30021
2.29776
2.31446
2.37709
2.44088
2.45449
2.44757
1.98397
1.98517
1.98459
1.98322
1.9793
1.97375
1.97054
1.96896
1.96814
1.96772
1.96932
1.97501
1.97852
1.97704
1.9749
1.97025
1.96032
1.94685
1.93924
1.93597
1.93372
1.93186
1.93205
1.94136
1.95376
1.95545
1.95386
1.95171
1.94826
1.93994
1.92448
1.91103
1.90408
1.89976
1.89685
1.89534
1.89507
1.89711
1.89921
1.90066
1.90142
1.89965
1.89692
1.8935
1.88689
1.87321
1.86025
1.85605
1.854
1.85226
1.85091
1.85019
1.84945
1.84791
1.84517
1.8407
1.83422
1.82778
1.82409
1.82224
1.8208
1.82076
1.82457
1.82743
1.82641
1.82488
1.82289
1.82125
1.82016
1.81978
1.82061
1.82431
1.83002
1.83252
1.83233
1.83087
1.82726
1.81612
1.79002
1.75866
1.74342
1.73841
1.73521
1.73333
1.73203
1.73134
1.73253
1.73728
1.74495
1.75607
1.76887
1.77697
1.77774
1.77549
1.77289
1.77001
1.76546
1.75748
1.74426
1.7257
1.7102
1.70336
1.69974
1.69719
1.69588
1.69505
1.69539
1.69978
1.71035
1.72282
1.72842
1.72803
1.72602
1.72295
1.71896
1.7138
1.70853
1.70327
1.69637
1.68408
1.66178
1.63832
1.6289
1.62624
1.62484
1.62404
1.62401
1.62576
1.62807
1.63167
1.64143
1.66221
1.68306
1.69121
1.69554
1.70185
1.71082
1.71917
1.72314
1.71458
1.68802
1.66504
1.65719
1.65332
1.64992
1.64875
1.65001
1.6603
1.68877
1.72858
1.74707
1.7478
1.74679
1.74404
1.73522
1.71295
1.67623
1.65335
1.64878
1.64682
1.64534
1.64507
1.64633
1.64723
1.64653
1.64478
1.64157
1.63355
1.61786
1.60303
1.59352
1.58837
1.58601
1.58503
1.58718
1.60036
1.62534
1.64226
1.64983
1.65255
1.65144
1.64481
1.62377
1.58527
1.55803
1.54468
1.53363
1.52685
1.52442
1.52361
1.52337
1.52492
1.53143
1.54212
1.55473
1.57274
1.60017
1.61974
1.62012
1.61404
1.60273
1.58242
1.54416
1.50153
1.48624
1.48465
1.48501
1.49028
1.49843
1.50172
1.50163
1.50085
1.49922
1.49826
1.49867
1.50639
1.5354
1.57469
1.58414
1.58436
1.58767
1.56604
1.52222
1.51858
1.54873
1.61316
1.70227
1.81236
1.92129
2.02331
2.13359
2.24288
2.36128
2.40565
2.40796
2.40129
2.38273
2.35902
2.33208
2.3221
2.3241
2.3344
2.34963
2.35128
2.34655
2.33262
2.31017
2.29695
2.29373
2.30671
2.36353
2.43689
2.44783
1.97737
1.98547
1.99175
1.9941
1.99375
1.98968
1.978
1.96728
1.96268
1.96008
1.95889
1.9598
1.96827
1.97851
1.97997
1.97853
1.97444
1.96383
1.94671
1.93714
1.93411
1.93229
1.93179
1.93574
1.94588
1.95391
1.95377
1.95113
1.94756
1.94155
1.93197
1.92229
1.91594
1.91091
1.90573
1.90215
1.90079
1.89941
1.89715
1.8953
1.89448
1.89663
1.8965
1.89422
1.89142
1.88634
1.87483
1.86083
1.85553
1.8537
1.85264
1.85308
1.85394
1.85266
1.85028
1.84671
1.83971
1.82924
1.82153
1.81807
1.81612
1.81458
1.8143
1.82068
1.82691
1.82637
1.82495
1.82294
1.82075
1.81884
1.81728
1.81653
1.81949
1.8278
1.83333
1.83346
1.83205
1.82907
1.82047
1.79852
1.76487
1.74242
1.73556
1.73245
1.73049
1.72936
1.7291
1.73061
1.73283
1.7355
1.74092
1.75149
1.76485
1.77253
1.7729
1.77073
1.76876
1.76621
1.76136
1.7515
1.73319
1.71214
1.70087
1.69671
1.69384
1.69207
1.69095
1.69062
1.69316
1.70041
1.7106
1.71892
1.72236
1.7221
1.71959
1.71594
1.71285
1.7096
1.70593
1.70092
1.69154
1.67227
1.64523
1.62925
1.62562
1.6244
1.6237
1.62367
1.6233
1.62232
1.62238
1.62797
1.64705
1.67456
1.68954
1.69648
1.70483
1.71685
1.72836
1.73525
1.73347
1.70895
1.67311
1.65521
1.6479
1.643
1.64124
1.64129
1.64729
1.67041
1.71321
1.74241
1.74607
1.74524
1.74355
1.73745
1.72039
1.68693
1.65864
1.65147
1.64931
1.64809
1.64923
1.65078
1.65012
1.64825
1.64568
1.64047
1.62705
1.60601
1.59146
1.5838
1.57981
1.57804
1.5775
1.58137
1.60165
1.63943
1.65949
1.66164
1.66033
1.65707
1.64858
1.62293
1.57538
1.54197
1.53046
1.52579
1.52423
1.52351
1.52357
1.52648
1.53475
1.54427
1.54916
1.55251
1.56041
1.5809
1.60416
1.60799
1.60441
1.59689
1.58432
1.55873
1.51811
1.49309
1.48989
1.49026
1.49336
1.49628
1.49662
1.49595
1.49455
1.49332
1.49285
1.49408
1.50391
1.53088
1.56795
1.58056
1.57863
1.57314
1.56015
1.51104
1.46436
1.46191
1.47295
1.50212
1.55059
1.62965
1.73887
1.87481
2.03024
2.16624
2.2884
2.35593
2.36206
2.35475
2.35051
2.33026
2.32028
2.32308
2.33364
2.3522
2.35808
2.3562
2.34573
2.3174
2.29276
2.28604
2.29421
2.34995
2.43113
1.97628
1.99061
1.9987
1.99827
1.9965
1.99427
1.98782
1.97222
1.95978
1.95621
1.95504
1.95518
1.95992
1.9726
1.98179
1.98135
1.9781
1.97325
1.963
1.94784
1.93823
1.93512
1.93399
1.93568
1.93854
1.94202
1.94609
1.94594
1.94308
1.9394
1.93438
1.93017
1.92742
1.92461
1.92041
1.91377
1.90561
1.89951
1.89585
1.8932
1.89113
1.89035
1.89383
1.89483
1.89286
1.89047
1.88625
1.87653
1.86322
1.85743
1.85582
1.85569
1.85692
1.85595
1.85382
1.85117
1.84629
1.83521
1.8226
1.81693
1.81448
1.8128
1.81171
1.81292
1.82126
1.82639
1.82525
1.82315
1.82003
1.81678
1.81463
1.81315
1.8123
1.81465
1.82401
1.83236
1.83302
1.8315
1.82899
1.82269
1.80665
1.77701
1.74703
1.73394
1.73047
1.72872
1.72785
1.72827
1.72867
1.72817
1.72796
1.72965
1.73562
1.74794
1.76144
1.76806
1.76864
1.76768
1.76623
1.76345
1.75683
1.74209
1.7193
1.70121
1.6942
1.69137
1.68951
1.6884
1.688
1.68895
1.69226
1.69779
1.70413
1.70993
1.71408
1.71483
1.71327
1.71174
1.71004
1.70814
1.70543
1.70001
1.68693
1.66102
1.63593
1.62704
1.62421
1.6215
1.61899
1.61664
1.61466
1.61372
1.61661
1.63314
1.6657
1.69012
1.70116
1.71154
1.72403
1.7371
1.74425
1.74381
1.72215
1.67877
1.65083
1.64137
1.63636
1.63431
1.63409
1.63831
1.6569
1.69716
1.73551
1.7446
1.74396
1.74305
1.73907
1.72668
1.69911
1.6666
1.65426
1.65164
1.65025
1.65147
1.65107
1.64879
1.6459
1.64125
1.63237
1.61479
1.59517
1.58443
1.57898
1.57665
1.57611
1.57776
1.58791
1.61336
1.64747
1.66269
1.66202
1.65817
1.65182
1.63947
1.61146
1.56701
1.53541
1.52746
1.52556
1.52491
1.52548
1.53101
1.5408
1.5447
1.54447
1.54335
1.54303
1.54742
1.56537
1.59218
1.59992
1.59834
1.59545
1.58923
1.573
1.53567
1.49928
1.49199
1.49094
1.49058
1.49087
1.49073
1.49019
1.48977
1.48954
1.49028
1.49415
1.50352
1.5254
1.55995
1.57562
1.57458
1.56748
1.55022
1.50889
1.46308
1.45184
1.45165
1.45312
1.46248
1.48557
1.53462
1.61968
1.74102
1.89195
2.03544
2.15898
2.22809
2.26476
2.29597
2.30587
2.28761
2.29509
2.30946
2.33453
2.3528
2.35235
2.34328
2.31837
2.28646
2.27657
2.28321
2.35895
1.98004
1.9895
1.99352
1.99512
1.99448
1.99246
1.9899
1.98307
1.96932
1.95787
1.95486
1.95502
1.95886
1.96371
1.96854
1.97392
1.97651
1.97431
1.97145
1.96562
1.95609
1.94601
1.94046
1.93804
1.93623
1.93515
1.93533
1.93717
1.93713
1.93567
1.93487
1.93457
1.93404
1.93244
1.92928
1.92403
1.91591
1.90504
1.89659
1.89291
1.89056
1.88885
1.88849
1.89178
1.89366
1.89197
1.89002
1.88672
1.87941
1.86819
1.86124
1.859
1.85817
1.85736
1.85534
1.85301
1.84981
1.84317
1.83031
1.81881
1.81483
1.81301
1.81187
1.8117
1.81364
1.8198
1.82296
1.82177
1.81945
1.81617
1.81268
1.81015
1.80876
1.80789
1.80949
1.81774
1.82848
1.83156
1.83035
1.8283
1.82388
1.8134
1.79163
1.76001
1.73691
1.73025
1.72856
1.72746
1.72624
1.72447
1.72257
1.72081
1.71981
1.72153
1.73048
1.74725
1.76209
1.7675
1.76742
1.76646
1.76475
1.76066
1.75074
1.73146
1.7081
1.69433
1.69
1.68796
1.68632
1.68524
1.68484
1.6856
1.68699
1.68921
1.69388
1.70219
1.70998
1.71221
1.71197
1.71197
1.71145
1.71027
1.70773
1.69974
1.67716
1.64405
1.6263
1.62061
1.61623
1.61207
1.6091
1.60743
1.60653
1.60825
1.6233
1.65913
1.69312
1.70828
1.71844
1.73017
1.74172
1.74777
1.74788
1.73035
1.68476
1.64777
1.63664
1.63168
1.62918
1.62911
1.63235
1.64635
1.68007
1.72386
1.74238
1.74284
1.74212
1.73939
1.73099
1.71024
1.67615
1.6549
1.64947
1.64706
1.64654
1.64587
1.6436
1.63979
1.63312
1.62318
1.60827
1.59175
1.58177
1.57856
1.57787
1.57972
1.5875
1.59854
1.61307
1.63427
1.65247
1.65484
1.65046
1.64056
1.62661
1.60637
1.57576
1.54269
1.52856
1.5267
1.5269
1.53056
1.53622
1.5388
1.53876
1.53674
1.53417
1.53344
1.53717
1.55649
1.58882
1.5998
1.59993
1.59871
1.59525
1.58247
1.54349
1.49835
1.48783
1.48651
1.48615
1.48636
1.48727
1.488
1.48845
1.48968
1.49242
1.4962
1.50249
1.51814
1.54867
1.56713
1.5671
1.56081
1.54672
1.51294
1.46785
1.45133
1.45093
1.45149
1.45399
1.46029
1.47365
1.49927
1.55274
1.63539
1.73506
1.82986
1.91675
2.00736
2.06734
2.12717
2.18894
2.20788
2.2374
2.27013
2.30767
2.32841
2.32796
2.31222
2.28385
2.27427
2.30162
1.98586
1.98497
1.98376
1.98371
1.98606
1.98929
1.98973
1.98893
1.98606
1.97898
1.96958
1.96368
1.96215
1.96102
1.96014
1.96055
1.96505
1.97241
1.97348
1.97251
1.96989
1.96363
1.95109
1.94018
1.93514
1.93169
1.9293
1.92853
1.93233
1.93549
1.93656
1.93654
1.93566
1.9341
1.93107
1.92736
1.92321
1.91719
1.90743
1.89674
1.89159
1.88925
1.88753
1.88658
1.88749
1.89092
1.89114
1.88958
1.88723
1.88243
1.87295
1.86338
1.85981
1.85774
1.85577
1.85362
1.85134
1.84833
1.8431
1.83329
1.82125
1.81568
1.81389
1.81274
1.81237
1.81336
1.81824
1.81965
1.81819
1.81603
1.81269
1.80887
1.80581
1.80422
1.80308
1.80342
1.8095
1.82238
1.82978
1.82958
1.8282
1.82568
1.81974
1.80689
1.78146
1.74885
1.73202
1.7274
1.72423
1.7216
1.71846
1.71537
1.71289
1.7112
1.71109
1.71682
1.73165
1.75114
1.76474
1.76765
1.76696
1.76572
1.76322
1.75728
1.74404
1.7217
1.70002
1.68995
1.68649
1.68389
1.68157
1.68002
1.6786
1.67746
1.67716
1.6795
1.68806
1.70265
1.71234
1.71433
1.71512
1.71532
1.71453
1.71275
1.707
1.68748
1.6516
1.62512
1.61569
1.61039
1.60603
1.60372
1.60247
1.60177
1.60411
1.61869
1.65199
1.69016
1.71148
1.72306
1.73415
1.74412
1.74982
1.75055
1.73757
1.69617
1.65092
1.63339
1.62787
1.62524
1.62504
1.62699
1.63656
1.66344
1.70886
1.73867
1.74222
1.74125
1.73902
1.73336
1.71729
1.68281
1.6531
1.64384
1.64001
1.6377
1.63578
1.63375
1.6311
1.6274
1.62273
1.61554
1.60534
1.59497
1.58951
1.58867
1.59096
1.59465
1.59709
1.60173
1.61398
1.63166
1.63886
1.63713
1.6306
1.62208
1.61234
1.59404
1.56087
1.53564
1.53144
1.53045
1.53077
1.53256
1.53248
1.53043
1.52709
1.52555
1.52547
1.53129
1.55497
1.59319
1.60516
1.60358
1.60096
1.59633
1.58179
1.54016
1.49508
1.48535
1.48452
1.48441
1.4855
1.48725
1.48861
1.49038
1.49277
1.49472
1.49597
1.49849
1.50935
1.53665
1.55808
1.55971
1.55575
1.54658
1.52233
1.4805
1.45712
1.45432
1.45451
1.45785
1.46191
1.46603
1.47464
1.49359
1.53282
1.57495
1.6053
1.63752
1.68046
1.73818
1.80236
1.87699
1.97078
2.05588
2.12401
2.18756
2.2492
2.28758
2.29687
2.27083
2.28046
1.98815
1.9805
1.97661
1.97467
1.97403
1.97796
1.98656
1.99077
1.99315
1.99384
1.99115
1.98108
1.96756
1.96013
1.95631
1.95455
1.95396
1.95964
1.97313
1.97706
1.97548
1.9724
1.96502
1.94788
1.93464
1.93011
1.9275
1.92587
1.92898
1.93692
1.93762
1.93645
1.93501
1.9328
1.92984
1.92758
1.92566
1.9231
1.91904
1.91137
1.89951
1.89122
1.88793
1.88556
1.88367
1.88311
1.88775
1.89124
1.89025
1.88817
1.88437
1.87539
1.86312
1.85806
1.85583
1.85388
1.85234
1.85085
1.84873
1.84527
1.83766
1.82467
1.81661
1.81425
1.81266
1.81171
1.81244
1.81709
1.81713
1.81547
1.81315
1.80961
1.80498
1.801
1.79904
1.79744
1.79687
1.80123
1.81509
1.82737
1.83007
1.83063
1.82988
1.82735
1.8201
1.79955
1.76077
1.73217
1.72363
1.71871
1.71447
1.71126
1.70875
1.70678
1.70538
1.70514
1.70907
1.71928
1.73643
1.75683
1.76723
1.76756
1.76638
1.7647
1.76113
1.75267
1.73502
1.71038
1.69202
1.68442
1.6808
1.67732
1.67442
1.67213
1.67061
1.66966
1.67015
1.67704
1.69359
1.71071
1.71703
1.71709
1.71607
1.71483
1.71318
1.70872
1.69352
1.66131
1.62737
1.61158
1.60629
1.60305
1.60113
1.60015
1.6001
1.60365
1.61516
1.64054
1.67867
1.70883
1.72474
1.73618
1.74593
1.75198
1.75333
1.74485
1.71014
1.65903
1.63183
1.62404
1.62086
1.62026
1.62112
1.62783
1.64931
1.69322
1.73267
1.74072
1.73964
1.73758
1.73322
1.71973
1.68581
1.64906
1.63546
1.63038
1.62788
1.62649
1.62661
1.62858
1.62851
1.62731
1.62516
1.6207
1.61204
1.60103
1.59486
1.59203
1.59013
1.5885
1.58873
1.59516
1.61168
1.6261
1.62743
1.62628
1.62523
1.62111
1.60852
1.57706
1.54047
1.5302
1.52833
1.52733
1.52623
1.52396
1.52161
1.52084
1.5208
1.52352
1.533
1.55733
1.5921
1.60362
1.60148
1.59744
1.59121
1.57642
1.53933
1.49645
1.48459
1.48411
1.48461
1.48756
1.49142
1.49385
1.4942
1.49347
1.49284
1.49221
1.49276
1.50099
1.52697
1.55109
1.55485
1.55435
1.55072
1.5334
1.49265
1.46317
1.45926
1.45937
1.46188
1.4641
1.4645
1.46524
1.47431
1.50376
1.53546
1.55013
1.55588
1.55822
1.55477
1.55233
1.57947
1.64489
1.75418
1.86942
1.9743
2.07026
2.1598
2.20885
2.2433
1.9967
1.97885
1.97233
1.96939
1.96803
1.9683
1.97571
1.99016
1.9981
1.9997
1.99905
1.9949
1.98091
1.96295
1.95551
1.95317
1.95221
1.9538
1.96255
1.97344
1.97554
1.97294
1.96848
1.95912
1.94215
1.93112
1.92798
1.92647
1.92787
1.93485
1.9368
1.93511
1.93279
1.92937
1.92756
1.92662
1.92604
1.9249
1.92296
1.91984
1.91336
1.90078
1.88952
1.88531
1.88295
1.88124
1.88124
1.88738
1.8916
1.88989
1.88762
1.88392
1.87499
1.8621
1.8567
1.85478
1.85351
1.85321
1.85232
1.85027
1.84724
1.84028
1.82617
1.81605
1.81337
1.8118
1.811
1.81289
1.8163
1.81525
1.8133
1.81067
1.8062
1.8003
1.7956
1.79306
1.7912
1.79012
1.79333
1.80889
1.82751
1.83377
1.83529
1.83489
1.833
1.828
1.81083
1.76926
1.72943
1.71647
1.71177
1.70854
1.70645
1.70461
1.70308
1.70229
1.70291
1.70553
1.71056
1.72208
1.74347
1.76263
1.7673
1.76625
1.76486
1.76257
1.75726
1.74502
1.72326
1.69863
1.68345
1.67743
1.6736
1.67035
1.66803
1.66648
1.66539
1.66524
1.66952
1.68234
1.70097
1.71324
1.71561
1.71448
1.71294
1.71113
1.7076
1.69729
1.67328
1.63797
1.61257
1.6044
1.60192
1.60043
1.59971
1.60009
1.60241
1.60902
1.62674
1.6615
1.70031
1.72452
1.73812
1.74819
1.75496
1.75647
1.7509
1.72188
1.66785
1.63003
1.61946
1.61609
1.61529
1.61588
1.62107
1.63831
1.6769
1.7221
1.73749
1.73705
1.73444
1.7299
1.71683
1.68142
1.64068
1.62764
1.62404
1.62237
1.62142
1.62414
1.63137
1.63604
1.63755
1.63681
1.6331
1.6216
1.60166
1.58928
1.58344
1.58027
1.57821
1.57742
1.58103
1.59707
1.62051
1.63006
1.63127
1.6299
1.62582
1.61487
1.58318
1.54019
1.52547
1.52269
1.52125
1.5201
1.51914
1.51887
1.5193
1.52267
1.52798
1.53507
1.55117
1.58008
1.59559
1.59498
1.59122
1.58552
1.57451
1.54688
1.50498
1.48703
1.48622
1.489
1.49483
1.49603
1.49497
1.49229
1.49002
1.48877
1.48763
1.48743
1.49463
1.52134
1.55072
1.55798
1.55857
1.55693
1.54376
1.50452
1.46908
1.463
1.46221
1.46144
1.4597
1.45821
1.45793
1.46424
1.49043
1.52907
1.54345
1.54702
1.55113
1.55197
1.5128
1.48519
1.49544
1.53295
1.60476
1.68874
1.7784
1.87089
1.99891
2.00481
1.98682
1.97359
1.96916
1.96735
1.96747
1.97232
1.98215
1.99262
1.99786
1.99777
1.99638
1.99192
1.97887
1.9628
1.95486
1.95319
1.95426
1.9576
1.96058
1.96387
1.96723
1.96654
1.96337
1.95728
1.94551
1.93477
1.93111
1.9301
1.93201
1.93413
1.93299
1.93082
1.92823
1.92647
1.92539
1.92501
1.9254
1.92413
1.92213
1.91917
1.91311
1.90102
1.88857
1.88355
1.88147
1.88036
1.88072
1.88467
1.88891
1.88818
1.88559
1.88203
1.87452
1.86317
1.85769
1.85582
1.85482
1.85453
1.85327
1.85109
1.84805
1.84125
1.82697
1.8157
1.81287
1.81157
1.81126
1.81395
1.81486
1.81339
1.81103
1.80715
1.80108
1.79438
1.78988
1.78737
1.78562
1.78473
1.78877
1.80608
1.829
1.83864
1.83829
1.83632
1.83379
1.82893
1.81235
1.7718
1.7288
1.71263
1.70836
1.7057
1.70376
1.70221
1.70144
1.70168
1.70223
1.70251
1.70413
1.7108
1.72732
1.75094
1.76462
1.76549
1.76393
1.76225
1.75894
1.75128
1.73605
1.71236
1.68837
1.67545
1.67084
1.66804
1.66567
1.66374
1.66229
1.66152
1.66289
1.66972
1.68411
1.70147
1.71061
1.71122
1.70987
1.70866
1.70659
1.70081
1.68647
1.65816
1.6242
1.60659
1.6027
1.60057
1.59873
1.59793
1.59815
1.60188
1.61451
1.6437
1.68678
1.72188
1.74019
1.751
1.75749
1.75892
1.75479
1.73072
1.67755
1.62974
1.61579
1.61252
1.61152
1.61188
1.61577
1.62831
1.65841
1.70384
1.72985
1.73185
1.7287
1.72287
1.70925
1.6751
1.63632
1.6242
1.62147
1.62046
1.62191
1.63395
1.64341
1.64534
1.6446
1.64271
1.63788
1.62058
1.5933
1.5795
1.57425
1.57185
1.57015
1.56911
1.5719
1.59015
1.62154
1.6337
1.63229
1.62941
1.62549
1.61472
1.58341
1.54003
1.52337
1.52054
1.51915
1.51845
1.51804
1.51909
1.52351
1.52709
1.52806
1.52973
1.53954
1.56579
1.5856
1.58727
1.58549
1.58336
1.57754
1.55752
1.51647
1.49424
1.49338
1.49618
1.49708
1.49564
1.49241
1.48798
1.48542
1.48421
1.48321
1.48319
1.49103
1.5191
1.5523
1.56224
1.56369
1.56345
1.55308
1.51446
1.47209
1.46073
1.45727
1.45447
1.45233
1.45114
1.45094
1.45796
1.48698
1.52894
1.54588
1.54985
1.5506
1.54726
1.52498
1.48446
1.47185
1.47404
1.4822
1.49971
1.52797
1.61147
2.00726
1.99927
1.98751
1.97661
1.97158
1.97086
1.97388
1.97722
1.97945
1.98423
1.99215
1.99555
1.99519
1.99337
1.98771
1.97739
1.9653
1.95922
1.95675
1.95431
1.95256
1.95283
1.95884
1.96338
1.9622
1.9592
1.95094
1.93912
1.9339
1.93199
1.93056
1.92974
1.92913
1.92787
1.92664
1.92564
1.92487
1.92432
1.92358
1.92213
1.92016
1.91748
1.91276
1.90396
1.89183
1.88413
1.88141
1.87963
1.87864
1.87923
1.88306
1.88496
1.88316
1.88064
1.87501
1.86504
1.85895
1.85678
1.85524
1.85447
1.85316
1.85098
1.84804
1.84173
1.8281
1.81615
1.81319
1.81202
1.81198
1.81207
1.81057
1.80864
1.806
1.80134
1.79455
1.78954
1.78626
1.7839
1.78255
1.78281
1.78907
1.80447
1.82378
1.83466
1.83503
1.83265
1.82932
1.82355
1.80933
1.77903
1.73812
1.71269
1.70613
1.70394
1.70228
1.70143
1.70131
1.70079
1.69988
1.69917
1.69918
1.70233
1.71296
1.7342
1.75567
1.76325
1.76291
1.76155
1.75956
1.75555
1.74732
1.73075
1.70409
1.6805
1.67073
1.66702
1.6639
1.66057
1.65804
1.65649
1.65579
1.6579
1.66647
1.68376
1.70184
1.70866
1.70848
1.70785
1.70691
1.70423
1.69681
1.67779
1.64231
1.61201
1.60202
1.59784
1.59471
1.59363
1.59353
1.59572
1.60462
1.62747
1.6685
1.713
1.74096
1.7536
1.7591
1.76038
1.75722
1.73837
1.69116
1.63502
1.61345
1.60981
1.60834
1.60808
1.60997
1.61774
1.638
1.67686
1.71347
1.7228
1.72116
1.71554
1.70368
1.67474
1.63739
1.62362
1.62208
1.62295
1.62977
1.64313
1.64743
1.64623
1.6444
1.64214
1.63516
1.61259
1.58465
1.57351
1.56876
1.56642
1.56522
1.56455
1.56736
1.58236
1.60986
1.62766
1.62866
1.62612
1.62269
1.61352
1.58818
1.54675
1.52309
1.51943
1.51851
1.51816
1.52133
1.52575
1.5252
1.52349
1.52195
1.52163
1.52946
1.55467
1.57849
1.58571
1.58716
1.587
1.58457
1.56916
1.52898
1.50176
1.49859
1.49752
1.49571
1.49268
1.4878
1.48327
1.48154
1.48046
1.47966
1.48009
1.48889
1.51834
1.55612
1.56924
1.57126
1.57085
1.55911
1.51577
1.46851
1.45511
1.45059
1.44765
1.44615
1.4453
1.44566
1.45467
1.48747
1.53544
1.55518
1.56038
1.56201
1.55875
1.53415
1.48943
1.46766
1.46221
1.4591
1.45343
1.45694
2.00682
2.00547
2.0035
1.99894
1.99068
1.98177
1.97721
1.97488
1.97341
1.973
1.97664
1.98691
1.99532
1.99873
1.99983
1.99802
1.98939
1.97051
1.95635
1.95102
1.94767
1.94565
1.94572
1.95508
1.96425
1.96411
1.96156
1.95357
1.93931
1.9317
1.9291
1.92742
1.92743
1.92799
1.92735
1.92637
1.92495
1.92332
1.92177
1.92078
1.91999
1.91844
1.9163
1.9131
1.90703
1.89563
1.88428
1.87967
1.87725
1.87554
1.87481
1.87862
1.88338
1.88196
1.87972
1.875
1.86567
1.85946
1.85713
1.8553
1.85432
1.85334
1.85138
1.84881
1.84331
1.83014
1.81668
1.81255
1.81093
1.80958
1.80808
1.8064
1.80423
1.80074
1.7957
1.79078
1.78702
1.78431
1.78276
1.78275
1.78504
1.78921
1.79584
1.80852
1.82364
1.82923
1.82762
1.82359
1.81828
1.80951
1.79122
1.75725
1.72155
1.70751
1.70448
1.70249
1.70065
1.69918
1.69793
1.69672
1.69569
1.69501
1.69575
1.7014
1.71637
1.74046
1.75877
1.76261
1.76194
1.76107
1.75926
1.75522
1.74502
1.72211
1.69131
1.67232
1.66516
1.66075
1.65611
1.65218
1.64995
1.64864
1.64839
1.65244
1.66604
1.68766
1.70421
1.70908
1.70933
1.70923
1.70807
1.70406
1.69089
1.65788
1.61741
1.59954
1.59394
1.59027
1.58889
1.58866
1.58979
1.59595
1.61335
1.64856
1.69816
1.73926
1.75564
1.76064
1.76184
1.75963
1.74539
1.70646
1.64646
1.61207
1.6056
1.60346
1.60265
1.603
1.60702
1.6198
1.65016
1.69225
1.71277
1.71384
1.71055
1.703
1.68343
1.6508
1.63146
1.6285
1.62921
1.63292
1.63899
1.64381
1.64377
1.6418
1.63899
1.63069
1.60745
1.57998
1.56927
1.56515
1.56313
1.56215
1.5615
1.56296
1.57214
1.59335
1.61659
1.62501
1.62466
1.62265
1.61632
1.59781
1.56086
1.52868
1.5209
1.51994
1.5202
1.52143
1.5205
1.51801
1.5157
1.51411
1.51363
1.52101
1.54846
1.57989
1.59126
1.59463
1.59541
1.59403
1.5796
1.53815
1.50479
1.49818
1.4956
1.49262
1.4884
1.48319
1.47934
1.47805
1.47732
1.47698
1.47892
1.49078
1.52408
1.56395
1.57545
1.5756
1.57318
1.55656
1.50778
1.46077
1.44823
1.44475
1.44327
1.44241
1.44204
1.44492
1.45993
1.50026
1.55227
1.56934
1.57143
1.57164
1.56513
1.53543
1.48595
1.46311
1.45791
1.45241
1.44592
2.00222
2.00876
2.01074
2.00983
2.00618
1.99663
1.98235
1.97389
1.97053
1.96899
1.9689
1.97424
1.99005
2.00343
2.00539
2.0039
2.00027
1.98887
1.9655
1.9503
1.94612
1.94369
1.94219
1.94444
1.95776
1.96631
1.96495
1.96186
1.95312
1.93721
1.92934
1.92716
1.92605
1.92701
1.92727
1.92601
1.92446
1.92272
1.92083
1.91915
1.9182
1.91843
1.91778
1.916
1.91336
1.90841
1.89732
1.88334
1.87712
1.87459
1.8729
1.87219
1.87574
1.88156
1.88082
1.87763
1.87252
1.86424
1.85939
1.8572
1.85558
1.85501
1.8548
1.8536
1.85154
1.84629
1.83115
1.81466
1.80918
1.80668
1.80455
1.80278
1.80173
1.80073
1.79895
1.79646
1.79376
1.79081
1.78882
1.78726
1.7845
1.78215
1.78134
1.78288
1.79021
1.80617
1.81968
1.82084
1.81892
1.81667
1.8122
1.80158
1.77592
1.7357
1.71016
1.70336
1.70037
1.69791
1.69614
1.69463
1.69318
1.69185
1.69073
1.69018
1.69219
1.70169
1.72301
1.74935
1.76252
1.76375
1.7629
1.76153
1.75906
1.75258
1.73504
1.70426
1.6762
1.66225
1.65596
1.65104
1.64642
1.64327
1.64172
1.64099
1.64231
1.6512
1.67122
1.6961
1.71007
1.71171
1.7111
1.70986
1.70668
1.69701
1.66997
1.62641
1.59831
1.58922
1.58482
1.58316
1.58291
1.58365
1.58875
1.60334
1.63293
1.68183
1.73485
1.75764
1.76272
1.76387
1.76193
1.75057
1.71741
1.65633
1.61025
1.59982
1.59688
1.59575
1.59545
1.59724
1.60597
1.63013
1.67331
1.70487
1.70982
1.70825
1.70421
1.69174
1.66482
1.63961
1.63253
1.63087
1.62993