/*--------------------------------*- C++ -*----------------------------------*\
  =========                 |
  \\      /  F ield         | OpenFOAM: The Open Source CFD Toolbox
   \\    /   O peration     | Website:  https://openfoam.org
    \\  /    A nd           | Version:  7
     \\/     M anipulation  |
\*---------------------------------------------------------------------------*/
FoamFile
{
    version     2.0;
    format      ascii;
    class       volScalarField;
    location    "1.6";
    object      T;
}
// * * * * * * * * * * * * * * * * * * * * * * * * * * * * * * * * * * * * * //

dimensions      [0 0 0 1 0 0 0];

internalField   nonuniform List<scalar> 
16192
(
1.7377
1.73342
1.73099
1.72926
1.72759
1.72618
1.72532
1.72513
1.72557
1.72622
1.72622
1.72406
1.71933
1.71388
1.71035
1.70832
1.70735
1.70687
1.70759
1.7106
1.71138
1.71049
1.70852
1.70502
1.69922
1.6937
1.69104
1.6897
1.68954
1.69048
1.69043
1.68906
1.68741
1.68526
1.68257
1.67986
1.67725
1.67438
1.6708
1.6664
1.66217
1.65936
1.65809
1.65757
1.65648
1.65488
1.65313
1.65115
1.64891
1.64654
1.64415
1.64199
1.64054
1.6397
1.63928
1.64027
1.64252
1.64274
1.64183
1.64008
1.63698
1.63243
1.62876
1.62624
1.62394
1.62208
1.62145
1.62192
1.62187
1.62065
1.61901
1.61595
1.6099
1.60083
1.59393
1.59028
1.58831
1.58714
1.58626
1.58588
1.58664
1.58949
1.59377
1.5972
1.59846
1.59799
1.59658
1.59502
1.5934
1.59162
1.58937
1.58604
1.58067
1.57468
1.57088
1.56876
1.56746
1.56669
1.56614
1.56565
1.5656
1.56733
1.57088
1.57267
1.57225
1.57035
1.5678
1.56464
1.56004
1.55364
1.54643
1.54181
1.53978
1.53844
1.53685
1.53553
1.53455
1.53314
1.53054
1.52836
1.5275
1.52653
1.52551
1.52487
1.52525
1.52839
1.53364
1.53548
1.5354
1.53565
1.53646
1.53698
1.53711
1.53474
1.52674
1.52268
1.52307
1.52422
1.52389
1.523
1.52253
1.52317
1.52885
1.54108
1.54927
1.55065
1.55059
1.5494
1.54661
1.54228
1.53409
1.52421
1.51995
1.51845
1.51777
1.51703
1.51633
1.5158
1.51503
1.51366
1.51149
1.50887
1.50642
1.50432
1.50258
1.50131
1.50046
1.4994
1.49915
1.50154
1.5068
1.50826
1.50635
1.5035
1.50087
1.49634
1.48692
1.47349
1.4652
1.46242
1.46125
1.4605
1.45999
1.45997
1.46034
1.46032
1.45932
1.45808
1.4568
1.45606
1.45647
1.46054
1.46844
1.47116
1.4697
1.46697
1.46349
1.4562
1.44205
1.43109
1.42862
1.42781
1.42662
1.4238
1.42195
1.42141
1.42233
1.42565
1.43323
1.45202
1.48511
1.53178
1.58954
1.63995
1.68434
1.70548
1.70746
1.71314
1.71874
1.71717
1.71468
1.70371
1.69815
1.69852
1.70541
1.7256
1.74351
1.7465
1.74604
1.74384
1.73746
1.72801
1.71844
1.7093
1.70084
1.69573
1.69299
1.69131
1.68999
1.68773
1.68486
1.68292
1.68263
1.68291
1.68535
1.69373
1.71042
1.7222
1.72285
1.72238
1.72055
1.71247
1.69417
1.73535
1.72997
1.72536
1.72353
1.72258
1.7217
1.72132
1.72188
1.72486
1.72662
1.72559
1.72239
1.71827
1.71156
1.70507
1.70308
1.70261
1.70221
1.70212
1.70417
1.70702
1.70733
1.70569
1.70329
1.70002
1.69544
1.69086
1.68777
1.68616
1.68594
1.68491
1.68299
1.68069
1.67784
1.67541
1.6734
1.67145
1.66959
1.66764
1.66565
1.66331
1.66027
1.65622
1.65313
1.65185
1.65065
1.64897
1.64692
1.64459
1.64207
1.6395
1.63717
1.63546
1.63446
1.63396
1.63395
1.63567
1.63806
1.63842
1.63714
1.63472
1.63087
1.62575
1.62176
1.61922
1.61727
1.61595
1.6159
1.61766
1.61828
1.61754
1.61616
1.61357
1.60821
1.59847
1.58858
1.58332
1.58077
1.57966
1.57917
1.57896
1.57918
1.58071
1.5837
1.58792
1.59158
1.59273
1.59201
1.59077
1.58959
1.58834
1.58662
1.58367
1.57847
1.57141
1.56629
1.56351
1.5619
1.56109
1.56053
1.55995
1.55979
1.56073
1.56332
1.56589
1.56626
1.56454
1.56206
1.55935
1.5559
1.55114
1.54596
1.54166
1.53819
1.53537
1.53323
1.53135
1.52898
1.52565
1.52254
1.5209
1.52005
1.51898
1.51781
1.51701
1.51732
1.52086
1.52795
1.53156
1.53182
1.53209
1.53298
1.53394
1.53466
1.53376
1.5269
1.51992
1.51816
1.51741
1.51646
1.51606
1.51562
1.51625
1.52186
1.53453
1.54493
1.54733
1.5469
1.54551
1.54333
1.53971
1.53295
1.52262
1.51576
1.5135
1.51301
1.51296
1.51264
1.51203
1.51106
1.5094
1.50692
1.50404
1.50123
1.49886
1.49713
1.49598
1.49515
1.49423
1.49402
1.49537
1.49897
1.50148
1.50102
1.49774
1.49368
1.48886
1.48191
1.47133
1.4616
1.45784
1.45694
1.45733
1.45882
1.45876
1.45834
1.4573
1.45564
1.45383
1.45181
1.44986
1.44944
1.45235
1.46181
1.4665
1.46617
1.46493
1.46277
1.4577
1.44392
1.42938
1.42477
1.42261
1.42116
1.42047
1.41999
1.41924
1.41838
1.41807
1.41877
1.42208
1.43124
1.45119
1.48412
1.52822
1.57251
1.6157
1.64222
1.65843
1.6712
1.68567
1.69524
1.69469
1.68616
1.68633
1.69131
1.70893
1.73213
1.74164
1.74156
1.74129
1.73708
1.72661
1.71397
1.70274
1.69443
1.69004
1.68732
1.68596
1.68569
1.6841
1.68134
1.67868
1.67826
1.67828
1.67957
1.68651
1.70307
1.7174
1.71949
1.71996
1.71987
1.71402
1.73146
1.72805
1.72318
1.71965
1.71826
1.71762
1.71764
1.71924
1.72156
1.72184
1.71999
1.71717
1.71459
1.71067
1.70445
1.70016
1.69885
1.69841
1.69819
1.69861
1.69942
1.70067
1.70116
1.69969
1.69738
1.69503
1.69228
1.68888
1.68486
1.68145
1.67917
1.67703
1.6741
1.67103
1.66884
1.66694
1.66511
1.66444
1.66488
1.66489
1.66284
1.66034
1.65693
1.65148
1.64717
1.64542
1.64412
1.64251
1.64048
1.6381
1.63571
1.63358
1.6318
1.63055
1.62979
1.62942
1.62934
1.62964
1.63033
1.63081
1.63032
1.6279
1.62378
1.61898
1.61549
1.61324
1.61167
1.611
1.61191
1.61428
1.61476
1.61401
1.61243
1.60984
1.60498
1.59614
1.58452
1.57707
1.57397
1.57288
1.57272
1.57267
1.57269
1.57307
1.57473
1.57807
1.58273
1.58657
1.58752
1.58652
1.5853
1.58422
1.5829
1.58054
1.57624
1.56993
1.56355
1.5593
1.55679
1.55541
1.55465
1.55388
1.5532
1.55317
1.55435
1.5572
1.55908
1.55855
1.55614
1.55349
1.55083
1.54805
1.54482
1.54109
1.53741
1.53444
1.53177
1.52852
1.52385
1.51863
1.51527
1.51381
1.51292
1.51193
1.51095
1.51027
1.51071
1.51417
1.52127
1.52664
1.52807
1.52848
1.5291
1.5302
1.53134
1.53156
1.52712
1.51976
1.5139
1.51118
1.51054
1.51054
1.51067
1.51157
1.51566
1.52472
1.53596
1.54148
1.54185
1.54069
1.53883
1.5363
1.5314
1.52199
1.5125
1.5092
1.50846
1.50837
1.50811
1.50741
1.50636
1.50499
1.50315
1.50089
1.49852
1.49598
1.49329
1.49115
1.48981
1.48873
1.48782
1.48755
1.48812
1.4902
1.49126
1.48995
1.48677
1.48345
1.47885
1.47159
1.46239
1.45704
1.45636
1.45616
1.45633
1.45635
1.45517
1.45263
1.45065
1.44893
1.44659
1.44412
1.44344
1.44684
1.45891
1.46547
1.46522
1.46363
1.46199
1.45744
1.44185
1.42423
1.42025
1.41974
1.41964
1.41937
1.41851
1.41759
1.41747
1.41776
1.41737
1.41603
1.41633
1.42068
1.43421
1.45353
1.47328
1.49527
1.5255
1.55241
1.57699
1.60501
1.62821
1.65703
1.66358
1.66491
1.67327
1.68672
1.71
1.73198
1.73615
1.73559
1.73317
1.72409
1.71108
1.69881
1.68983
1.68533
1.68265
1.68197
1.68192
1.68059
1.67807
1.67467
1.67311
1.67295
1.67388
1.68087
1.69883
1.71732
1.72272
1.72344
1.72376
1.72634
1.72479
1.72259
1.71908
1.71599
1.7145
1.71447
1.71461
1.71374
1.71277
1.7125
1.7113
1.70963
1.70805
1.70554
1.70138
1.69743
1.69562
1.69486
1.69433
1.69347
1.69271
1.69328
1.69476
1.69443
1.69304
1.69112
1.689
1.68573
1.68054
1.67508
1.67116
1.66817
1.66553
1.66362
1.66203
1.66075
1.66082
1.66222
1.66214
1.65989
1.65766
1.65547
1.65199
1.64625
1.64138
1.63937
1.63815
1.6366
1.63472
1.63289
1.63125
1.62954
1.62814
1.62707
1.62591
1.62472
1.62381
1.62314
1.6227
1.6226
1.62236
1.62039
1.61677
1.61289
1.60997
1.60805
1.60693
1.60681
1.60765
1.60933
1.61001
1.60955
1.60779
1.60502
1.60071
1.59338
1.58187
1.57206
1.56808
1.56685
1.56673
1.56677
1.56675
1.56669
1.56731
1.56947
1.57344
1.5785
1.58148
1.58174
1.58092
1.57989
1.57863
1.57668
1.57347
1.56889
1.56271
1.55623
1.55185
1.54942
1.54812
1.54718
1.54623
1.54556
1.5458
1.54773
1.55054
1.5516
1.5506
1.54853
1.5465
1.54427
1.54171
1.53885
1.53615
1.53379
1.5311
1.52677
1.51956
1.51231
1.50843
1.50686
1.50628
1.50559
1.50472
1.50435
1.50486
1.50732
1.5126
1.51929
1.52308
1.52396
1.52441
1.52552
1.52712
1.52821
1.52707
1.52116
1.51222
1.50758
1.50667
1.5063
1.50611
1.50621
1.50769
1.51299
1.52376
1.53365
1.53612
1.53551
1.5343
1.53272
1.52945
1.52223
1.51111
1.5055
1.50416
1.50357
1.50289
1.50221
1.5016
1.50066
1.49934
1.49783
1.496
1.49336
1.48958
1.48619
1.48396
1.48204
1.47975
1.47773
1.47724
1.47849
1.48228
1.48351
1.48178
1.47967
1.47794
1.47456
1.46768
1.45876
1.45438
1.45337
1.45279
1.45117
1.44851
1.4473
1.44643
1.44458
1.44195
1.43989
1.43973
1.44476
1.4569
1.46265
1.46205
1.46075
1.45941
1.45405
1.43801
1.42243
1.41951
1.4193
1.41911
1.41859
1.41846
1.41905
1.41924
1.41711
1.41297
1.40948
1.40807
1.40953
1.41872
1.43163
1.43823
1.44138
1.44405
1.45062
1.46595
1.48631
1.52129
1.55778
1.59514
1.61937
1.63279
1.65237
1.67732
1.70541
1.72446
1.7274
1.72625
1.72007
1.70957
1.69832
1.68846
1.68133
1.67909
1.67928
1.67961
1.67794
1.67469
1.67071
1.66834
1.66824
1.6691
1.67688
1.69767
1.71739
1.72363
1.72595
1.72024
1.71975
1.71938
1.71881
1.71709
1.71423
1.71151
1.70921
1.70659
1.70406
1.70318
1.7036
1.70434
1.70374
1.7032
1.70214
1.69945
1.69499
1.6917
1.6901
1.68882
1.68728
1.68662
1.68835
1.69125
1.69105
1.68892
1.68681
1.68448
1.6804
1.67409
1.66841
1.66467
1.66179
1.65953
1.65795
1.65695
1.65674
1.65642
1.65593
1.65527
1.65362
1.6518
1.64978
1.64669
1.64137
1.63613
1.63382
1.63266
1.63131
1.62985
1.62865
1.62758
1.6264
1.62505
1.62331
1.62094
1.61865
1.61729
1.61623
1.61501
1.61415
1.61405
1.61326
1.61021
1.60711
1.60472
1.60315
1.60218
1.60172
1.60178
1.60279
1.60428
1.60443
1.60277
1.59979
1.59608
1.59039
1.58033
1.56872
1.56319
1.56157
1.56128
1.56137
1.56133
1.56114
1.56145
1.56271
1.5649
1.56854
1.57307
1.57614
1.57655
1.57577
1.57439
1.5726
1.57009
1.56647
1.56123
1.55368
1.54685
1.54318
1.54136
1.54036
1.53954
1.53863
1.53816
1.5387
1.54122
1.54434
1.54523
1.54389
1.54165
1.53963
1.53774
1.53574
1.53382
1.53186
1.52929
1.5249
1.51649
1.50708
1.50263
1.5009
1.50019
1.4995
1.49887
1.49873
1.49873
1.49939
1.50239
1.50936
1.51614
1.5183
1.51907
1.52052
1.52307
1.52553
1.52647
1.52369
1.51477
1.50634
1.50307
1.50142
1.50017
1.49925
1.49925
1.50201
1.51107
1.52429
1.53051
1.53075
1.53016
1.52925
1.52721
1.52176
1.51037
1.50227
1.50037
1.49954
1.49878
1.49811
1.49783
1.49728
1.496
1.49453
1.49287
1.48993
1.48455
1.47919
1.47576
1.47336
1.47128
1.46914
1.46828
1.46969
1.47542
1.47875
1.47972
1.47991
1.47879
1.4765
1.47079
1.45897
1.45087
1.44802
1.44627
1.44546
1.4452
1.44477
1.44332
1.44111
1.43904
1.43768
1.43756
1.44022
1.44867
1.45641
1.45722
1.45658
1.45503
1.4512
1.43997
1.42489
1.41946
1.41883
1.41868
1.41932
1.41973
1.41874
1.41481
1.40996
1.40589
1.40299
1.40166
1.40239
1.41115
1.42623
1.43
1.43043
1.43246
1.4259
1.41038
1.40902
1.42091
1.44651
1.48006
1.5194
1.55505
1.58673
1.62148
1.65843
1.69651
1.7132
1.71447
1.71225
1.70582
1.6966
1.68455
1.67701
1.6744
1.67432
1.67531
1.67488
1.67241
1.66834
1.66464
1.66435
1.66606
1.67443
1.69399
1.71612
1.723
1.71399
1.7155
1.71743
1.71826
1.71778
1.71534
1.70998
1.70411
1.70059
1.69802
1.69614
1.69558
1.69721
1.70069
1.70135
1.70106
1.70003
1.69677
1.6908
1.68639
1.68435
1.68302
1.6821
1.68237
1.68431
1.68591
1.68494
1.68256
1.68019
1.67711
1.67269
1.66806
1.6644
1.66119
1.65798
1.65535
1.65374
1.65244
1.65096
1.64949
1.64846
1.64852
1.64767
1.64579
1.6439
1.64135
1.6367
1.63119
1.62845
1.6273
1.62627
1.62576
1.62534
1.62413
1.62279
1.62116
1.6184
1.6144
1.61156
1.6102
1.60897
1.60743
1.6063
1.60672
1.60692
1.60441
1.60126
1.59908
1.59751
1.59636
1.59547
1.59499
1.59573
1.59793
1.59892
1.59772
1.59482
1.59167
1.58737
1.57948
1.56761
1.55956
1.55704
1.55624
1.55624
1.55619
1.55607
1.55635
1.55678
1.55747
1.55933
1.56326
1.56826
1.57109
1.57118
1.56991
1.56811
1.56586
1.56285
1.55839
1.55127
1.5427
1.53754
1.53519
1.53398
1.53326
1.53235
1.53148
1.53143
1.53249
1.5347
1.53635
1.53671
1.53592
1.53449
1.53294
1.53155
1.5302
1.52871
1.52667
1.52313
1.51592
1.50517
1.49819
1.49574
1.49466
1.49394
1.49322
1.49223
1.49114
1.49078
1.49213
1.49835
1.5077
1.51248
1.51425
1.51648
1.52028
1.524
1.52593
1.5252
1.51728
1.50477
1.49793
1.49474
1.49283
1.49171
1.49135
1.49276
1.49999
1.51455
1.52502
1.52662
1.52642
1.52603
1.52471
1.52064
1.51048
1.50021
1.49721
1.49603
1.49524
1.49517
1.49491
1.49362
1.49222
1.49097
1.48906
1.48465
1.47733
1.47166
1.46842
1.46625
1.46423
1.46224
1.46183
1.46525
1.47597
1.481
1.48091
1.4794
1.4782
1.47656
1.4702
1.45543
1.4454
1.44347
1.44334
1.44359
1.44341
1.44235
1.44071
1.43937
1.43756
1.43425
1.43199
1.43231
1.43798
1.4481
1.45192
1.45279
1.45322
1.45249
1.44629
1.4322
1.42194
1.41984
1.41902
1.41823
1.41618
1.41184
1.40672
1.40237
1.39907
1.39687
1.39613
1.39764
1.40689
1.42187
1.42726
1.42693
1.42587
1.42235
1.4052
1.38443
1.38221
1.38589
1.39736
1.41649
1.44671
1.48664
1.53415
1.58732
1.63368
1.67443
1.69644
1.69685
1.69291
1.68767
1.67702
1.66826
1.66465
1.66453
1.66735
1.66852
1.66834
1.66715
1.66228
1.66061
1.66239
1.67084
1.69164
1.71497
1.71002
1.71455
1.71719
1.71673
1.71541
1.71363
1.70986
1.70266
1.69597
1.6927
1.69123
1.69079
1.69165
1.69589
1.69942
1.6994
1.69833
1.69631
1.69228
1.68652
1.682
1.67956
1.67812
1.67763
1.67721
1.67714
1.67747
1.67648
1.67412
1.67184
1.66904
1.6662
1.66368
1.66113
1.65814
1.65453
1.6506
1.6474
1.64555
1.64422
1.6429
1.64202
1.64243
1.64208
1.64024
1.63837
1.63606
1.632
1.62682
1.62404
1.62309
1.62277
1.62273
1.62167
1.62019
1.61867
1.61641
1.61209
1.60717
1.60482
1.60371
1.60241
1.60081
1.60015
1.60081
1.60076
1.59787
1.5948
1.59253
1.59078
1.58956
1.58868
1.58814
1.58867
1.59128
1.59326
1.59262
1.59018
1.58759
1.5844
1.57886
1.5688
1.55801
1.55309
1.55163
1.55131
1.55127
1.55134
1.55132
1.55101
1.55096
1.55171
1.5541
1.55866
1.56331
1.56523
1.56487
1.56308
1.56083
1.5583
1.55476
1.54909
1.54056
1.53326
1.52992
1.5283
1.52747
1.52668
1.52561
1.52474
1.52438
1.52473
1.52589
1.52719
1.52831
1.52852
1.52781
1.52697
1.52613
1.52519
1.52384
1.52142
1.51629
1.50614
1.49574
1.49121
1.48922
1.48786
1.48637
1.48476
1.48334
1.48253
1.48317
1.48841
1.49959
1.50786
1.51126
1.51432
1.51839
1.52279
1.525
1.52454
1.51735
1.50255
1.49203
1.48775
1.48553
1.48447
1.48405
1.48499
1.49062
1.50446
1.5186
1.52269
1.52283
1.52287
1.52225
1.51935
1.51106
1.49918
1.49403
1.4925
1.49166
1.4915
1.49052
1.4891
1.48805
1.48674
1.48412
1.47838
1.47107
1.46644
1.4635
1.46139
1.45966
1.45878
1.45941
1.46519
1.47546
1.47971
1.47879
1.47712
1.47593
1.47352
1.46625
1.45287
1.44373
1.44248
1.44236
1.44209
1.44156
1.44132
1.4408
1.43804
1.43214
1.42701
1.42468
1.42475
1.42993
1.44249
1.44963
1.45191
1.45399
1.45464
1.45209
1.43938
1.42373
1.41894
1.41658
1.41326
1.40872
1.40355
1.39895
1.39557
1.39337
1.39246
1.39249
1.3947
1.4036
1.41807
1.42472
1.42481
1.42313
1.41767
1.40208
1.38218
1.37489
1.37252
1.3729
1.37612
1.38445
1.40356
1.438
1.48532
1.54116
1.59179
1.63205
1.65204
1.66068
1.66437
1.66163
1.64892
1.64668
1.64639
1.65231
1.66041
1.66128
1.66138
1.65933
1.65641
1.65852
1.66772
1.69058
1.70672
1.70935
1.71047
1.71076
1.71027
1.70899
1.7069
1.70275
1.69628
1.69054
1.68788
1.68703
1.68752
1.68889
1.6907
1.69268
1.6936
1.69269
1.69091
1.68774
1.68329
1.67858
1.67526
1.67339
1.67177
1.67032
1.66949
1.66909
1.66794
1.66636
1.66514
1.66395
1.66244
1.66021
1.6573
1.65387
1.64982
1.6451
1.64115
1.63912
1.63795
1.63683
1.63618
1.63648
1.63645
1.63486
1.63309
1.63099
1.62765
1.62334
1.62061
1.61964
1.61911
1.61832
1.61695
1.61548
1.61374
1.61089
1.60608
1.60148
1.59932
1.59817
1.59678
1.59533
1.5946
1.59458
1.59381
1.59071
1.58787
1.58569
1.58387
1.58259
1.5818
1.58129
1.58163
1.58407
1.58707
1.58749
1.5858
1.58364
1.58125
1.57753
1.57036
1.55916
1.55047
1.54759
1.54676
1.54669
1.5464
1.54572
1.54516
1.54476
1.54459
1.54537
1.54853
1.55391
1.55822
1.55922
1.55798
1.5556
1.55333
1.55075
1.5468
1.54019
1.53152
1.52589
1.52349
1.52213
1.52106
1.51969
1.51807
1.5168
1.51595
1.51579
1.51668
1.51942
1.52239
1.5233
1.52303
1.52269
1.52212
1.5211
1.51944
1.51589
1.50718
1.49412
1.48629
1.48299
1.48091
1.47906
1.4774
1.47619
1.47547
1.47579
1.48056
1.49288
1.50453
1.50943
1.51251
1.51631
1.52023
1.52212
1.52192
1.51596
1.50057
1.48683
1.48183
1.47923
1.478
1.47771
1.47834
1.48242
1.49402
1.51051
1.51883
1.51978
1.51984
1.51955
1.5177
1.51146
1.49903
1.49027
1.48725
1.48589
1.48514
1.4846
1.48405
1.48338
1.48182
1.47887
1.47404
1.46767
1.4629
1.46034
1.45846
1.45749
1.45748
1.45824
1.46093
1.46693
1.47312
1.47424
1.47346
1.4716
1.46892
1.4646
1.45651
1.44645
1.44208
1.44119
1.44059
1.44023
1.43899
1.43551
1.42974
1.42398
1.42
1.41826
1.41877
1.42603
1.44204
1.4509
1.45408
1.45639
1.45729
1.45547
1.4418
1.42139
1.4137
1.41
1.40579
1.40074
1.39613
1.39273
1.39074
1.3901
1.39005
1.39054
1.39313
1.40059
1.41351
1.42101
1.42133
1.41952
1.41415
1.40004
1.37992
1.37022
1.36878
1.36822
1.36823
1.36953
1.37492
1.38686
1.41014
1.4434
1.48186
1.51729
1.54736
1.57369
1.58577
1.59796
1.61055
1.61073
1.61602
1.62552
1.63787
1.65034
1.65493
1.65492
1.65371
1.65612
1.66778
1.70358
1.70283
1.70216
1.70201
1.70246
1.70295
1.70234
1.70038
1.69736
1.69314
1.68854
1.68539
1.68407
1.68361
1.68338
1.68354
1.68497
1.68708
1.68699
1.6854
1.68303
1.67947
1.67409
1.66908
1.66651
1.66455
1.66283
1.66192
1.66235
1.66245
1.66209
1.66103
1.65936
1.65713
1.65418
1.6511
1.64816
1.64485
1.6405
1.63602
1.63336
1.63212
1.63111
1.63015
1.62992
1.63017
1.62953
1.62782
1.62601
1.62367
1.62011
1.6166
1.61509
1.61422
1.61309
1.61171
1.61032
1.60872
1.60629
1.60227
1.59746
1.59448
1.59308
1.59166
1.59007
1.58893
1.58841
1.58672
1.58351
1.581
1.57888
1.57702
1.57567
1.57493
1.5744
1.57443
1.57631
1.58026
1.58213
1.58133
1.57952
1.57774
1.57522
1.57083
1.56204
1.55013
1.54371
1.5418
1.54118
1.54061
1.53971
1.53883
1.53816
1.53767
1.5376
1.53931
1.54366
1.54928
1.55266
1.55273
1.55063
1.54846
1.54657
1.54406
1.53974
1.53217
1.52386
1.51932
1.51696
1.51513
1.51334
1.51138
1.50937
1.50785
1.50721
1.5076
1.51051
1.51608
1.51974
1.52027
1.52023
1.51992
1.5188
1.51709
1.51389
1.5063
1.49257
1.48152
1.4767
1.47389
1.47203
1.47088
1.47001
1.46942
1.46995
1.47458
1.48603
1.49922
1.50634
1.51004
1.51365
1.5171
1.5189
1.51893
1.51436
1.50041
1.48389
1.47653
1.47356
1.47232
1.47206
1.47239
1.47507
1.48445
1.50197
1.51499
1.51738
1.51733
1.51713
1.51574
1.51047
1.49772
1.48559
1.48101
1.47934
1.47852
1.47812
1.47792
1.47776
1.47716
1.47602
1.47366
1.46935
1.46396
1.45999
1.45764
1.45621
1.45493
1.45373
1.45377
1.45696
1.46392
1.46799
1.46863
1.46849
1.46786
1.46695
1.46309
1.45247
1.44264
1.44001
1.43833
1.43607
1.43265
1.42735
1.42161
1.41709
1.41468
1.41406
1.41585
1.42689
1.44634
1.4551
1.45687
1.45803
1.45817
1.45468
1.43797
1.41618
1.40742
1.40272
1.39805
1.39371
1.39047
1.38872
1.38831
1.38835
1.38858
1.38918
1.39115
1.39707
1.40854
1.41669
1.41729
1.41535
1.41006
1.39758
1.37844
1.36741
1.36497
1.36471
1.36518
1.36653
1.36943
1.37511
1.38458
1.40016
1.41513
1.42618
1.4365
1.44857
1.4638
1.48042
1.50301
1.53164
1.55489
1.5747
1.59765
1.62129
1.64003
1.6508
1.64791
1.65357
1.69927
1.69668
1.6955
1.69466
1.69409
1.69472
1.69634
1.69639
1.69535
1.69375
1.69111
1.687
1.68193
1.67884
1.6777
1.67727
1.67706
1.67877
1.68273
1.68356
1.68195
1.67902
1.67463
1.66745
1.66139
1.65888
1.65745
1.65635
1.65685
1.65865
1.65831
1.65666
1.65475
1.65243
1.64967
1.64716
1.64486
1.64254
1.63993
1.63634
1.63169
1.62812
1.62651
1.62548
1.62434
1.62364
1.62438
1.6248
1.62354
1.62182
1.61986
1.61637
1.6119
1.60969
1.60866
1.60754
1.60644
1.60534
1.60397
1.602
1.59856
1.59333
1.5893
1.58753
1.58596
1.58405
1.58272
1.58214
1.57981
1.57679
1.57452
1.57246
1.57043
1.56891
1.56817
1.56761
1.56739
1.56876
1.57308
1.57649
1.57662
1.57566
1.57433
1.57274
1.56999
1.56323
1.54983
1.53925
1.53595
1.53485
1.53401
1.53322
1.53257
1.53202
1.53149
1.53126
1.53207
1.5345
1.53906
1.54471
1.54709
1.54621
1.54418
1.54262
1.541
1.53817
1.53256
1.5236
1.51587
1.51167
1.50882
1.50643
1.50428
1.50238
1.50108
1.50041
1.50051
1.50309
1.5094
1.51574
1.51799
1.51785
1.51678
1.51524
1.51334
1.51024
1.5039
1.49173
1.47809
1.47091
1.46778
1.46608
1.46518
1.46448
1.46424
1.4651
1.46881
1.47776
1.49125
1.50167
1.50704
1.51085
1.51416
1.51601
1.51614
1.51289
1.50099
1.48264
1.4719
1.46827
1.46711
1.46693
1.46707
1.46909
1.4769
1.49446
1.51102
1.51485
1.51479
1.51449
1.51297
1.50763
1.49488
1.48042
1.4745
1.47274
1.47216
1.47194
1.47232
1.47386
1.47431
1.47428
1.47352
1.4709
1.46579
1.45947
1.45497
1.45208
1.44977
1.44798
1.44764
1.44958
1.45663
1.46413
1.46652
1.46791
1.46917
1.46924
1.46691
1.45645
1.44169
1.43571
1.43292
1.42958
1.4247
1.4193
1.41518
1.41302
1.41227
1.41271
1.41716
1.43077
1.44874
1.45603
1.45675
1.45695
1.45607
1.45026
1.43314
1.41122
1.40034
1.3949
1.39095
1.38859
1.38751
1.3871
1.38677
1.38648
1.38651
1.38686
1.38844
1.39348
1.40397
1.41221
1.41285
1.41061
1.40522
1.39392
1.37578
1.36382
1.36178
1.36175
1.36272
1.36469
1.36684
1.3694
1.37495
1.38617
1.39618
1.39823
1.39715
1.39137
1.38044
1.37739
1.38746
1.4117
1.45129
1.49086
1.52765
1.56446
1.60019
1.6207
1.6393
1.69828
1.6919
1.68949
1.68865
1.68811
1.68792
1.68949
1.693
1.69425
1.69372
1.69151
1.68828
1.68314
1.67684
1.67361
1.67265
1.6725
1.67315
1.67586
1.67866
1.67871
1.67625
1.67267
1.66743
1.66024
1.65503
1.6529
1.65174
1.65168
1.6531
1.65324
1.65162
1.64956
1.647
1.64474
1.64274
1.64089
1.63894
1.63703
1.63503
1.63218
1.62761
1.62325
1.62117
1.62013
1.61917
1.61878
1.61998
1.62069
1.61928
1.61739
1.61531
1.61174
1.60703
1.6046
1.60352
1.60257
1.60189
1.60099
1.59963
1.59774
1.59435
1.58859
1.58366
1.58148
1.57977
1.57783
1.57684
1.57596
1.57327
1.57069
1.56864
1.56642
1.56415
1.56256
1.56178
1.56123
1.56086
1.56182
1.56665
1.57213
1.57324
1.57291
1.57166
1.57003
1.56778
1.56221
1.54849
1.53416
1.52927
1.52799
1.52768
1.52748
1.52709
1.5266
1.52615
1.52608
1.52621
1.52671
1.52919
1.5352
1.54069
1.54161
1.54032
1.53887
1.53761
1.53563
1.53157
1.52393
1.51392
1.50665
1.50258
1.49963
1.49758
1.49614
1.49518
1.49464
1.49461
1.49637
1.50134
1.50821
1.51251
1.51316
1.51221
1.51049
1.50845
1.50566
1.5008
1.49152
1.47763
1.46696
1.46275
1.46094
1.46012
1.45965
1.45964
1.46023
1.4626
1.4692
1.48185
1.49557
1.50394
1.50849
1.51176
1.51357
1.51363
1.51117
1.50096
1.48185
1.46778
1.46358
1.46264
1.46266
1.46283
1.46469
1.47154
1.48744
1.50544
1.51161
1.5117
1.51092
1.5088
1.50293
1.48965
1.47437
1.46915
1.46785
1.46756
1.46749
1.4691
1.47229
1.4743
1.4748
1.47414
1.47144
1.46503
1.45559
1.44928
1.4461
1.44422
1.44317
1.443
1.44507
1.45285
1.46354
1.46869
1.46998
1.46997
1.46965
1.46694
1.45562
1.43773
1.42915
1.42524
1.42156
1.41743
1.4142
1.41244
1.4118
1.41214
1.41441
1.42016
1.43117
1.44577
1.45332
1.45386
1.4537
1.45168
1.44493
1.42919
1.40685
1.3934
1.38857
1.38681
1.3864
1.38563
1.38452
1.38386
1.38369
1.38381
1.38432
1.38568
1.39
1.39972
1.40837
1.40901
1.40579
1.39928
1.38906
1.37285
1.36029
1.35822
1.3586
1.35945
1.36041
1.36191
1.36396
1.36813
1.37716
1.38749
1.38892
1.38542
1.37845
1.3706
1.35242
1.3442
1.3482
1.36337
1.39327
1.42901
1.46754
1.5048
1.56076
1.69792
1.6916
1.68672
1.68477
1.68401
1.68402
1.6851
1.68716
1.68913
1.68953
1.6881
1.68595
1.68328
1.67873
1.6734
1.67026
1.66922
1.66937
1.67019
1.67043
1.67053
1.6706
1.66883
1.66547
1.66109
1.65535
1.65045
1.64825
1.64737
1.64741
1.64746
1.64624
1.64436
1.64225
1.6402
1.63825
1.63655
1.63524
1.63358
1.63208
1.63045
1.62795
1.62371
1.61913
1.61664
1.61543
1.61458
1.6142
1.61457
1.61513
1.61411
1.61218
1.61007
1.60686
1.60262
1.60024
1.59915
1.59832
1.59769
1.59664
1.59516
1.59312
1.5896
1.58361
1.57817
1.57569
1.57391
1.5721
1.57115
1.56955
1.5671
1.56507
1.56295
1.56039
1.55796
1.55655
1.55588
1.55543
1.55515
1.55643
1.56182
1.56884
1.57141
1.57066
1.56858
1.56657
1.56415
1.55845
1.54545
1.53028
1.52433
1.52281
1.52253
1.52244
1.52211
1.52176
1.52161
1.52124
1.52035
1.5199
1.5207
1.52496
1.53221
1.53629
1.53625
1.53492
1.53364
1.53202
1.52895
1.5233
1.51396
1.50353
1.49703
1.49372
1.49172
1.49052
1.48965
1.48907
1.48883
1.48949
1.49226
1.49769
1.50391
1.50691
1.50684
1.50535
1.50339
1.50104
1.49752
1.49131
1.48006
1.46653
1.459
1.45664
1.45554
1.45504
1.45492
1.45509
1.45678
1.4619
1.47284
1.48828
1.50037
1.50634
1.50961
1.511
1.51097
1.50889
1.5003
1.48194
1.46501
1.46026
1.45947
1.45947
1.45973
1.46144
1.46685
1.47921
1.49668
1.50635
1.50717
1.50586
1.50273
1.4966
1.48432
1.47052
1.46617
1.46531
1.46522
1.46629
1.47147
1.4749
1.4755
1.47488
1.47286
1.46888
1.46056
1.4492
1.44313
1.44096
1.44032
1.44016
1.44043
1.44328
1.45259
1.46535
1.47015
1.46998
1.46938
1.46775
1.46305
1.45092
1.43292
1.42341
1.41927
1.41591
1.41345
1.41204
1.41166
1.41221
1.41385
1.4163
1.42048
1.42857
1.44095
1.44891
1.4498
1.44899
1.44607
1.43874
1.42386
1.40209
1.38866
1.38525
1.38427
1.3833
1.38221
1.38158
1.3809
1.38077
1.38111
1.38186
1.38292
1.38614
1.3945
1.40269
1.40307
1.39889
1.39262
1.38418
1.37
1.35641
1.35326
1.35333
1.35369
1.35472
1.35645
1.3582
1.36156
1.36978
1.3795
1.38053
1.3761
1.36837
1.36086
1.35123
1.33866
1.33561
1.33712
1.34289
1.3544
1.37094
1.41569
1.69493
1.69178
1.6878
1.68396
1.68167
1.68078
1.68106
1.68102
1.68036
1.68034
1.68121
1.68137
1.6801
1.6786
1.67647
1.67319
1.66899
1.6664
1.66537
1.66416
1.66253
1.66157
1.66183
1.66169
1.65878
1.65511
1.65053
1.64573
1.64341
1.64249
1.6415
1.64037
1.63922
1.63772
1.63601
1.63422
1.63245
1.63085
1.62944
1.62818
1.62701
1.6257
1.62377
1.6205
1.61604
1.61252
1.61076
1.60961
1.60846
1.60796
1.6082
1.60815
1.6065
1.60465
1.60205
1.59838
1.59596
1.59478
1.59374
1.59285
1.59167
1.59002
1.58789
1.58444
1.57856
1.57283
1.57019
1.56845
1.56679
1.56503
1.5629
1.56105
1.55922
1.55693
1.55428
1.55246
1.55138
1.55068
1.55029
1.55042
1.55242
1.55707
1.56275
1.56551
1.56495
1.56288
1.56076
1.55823
1.55342
1.54408
1.53019
1.52097
1.5185
1.5179
1.51778
1.51761
1.51744
1.51683
1.5157
1.51439
1.51342
1.51337
1.51544
1.52174
1.52862
1.5309
1.53036
1.52892
1.52738
1.5252
1.5215
1.51479
1.50394
1.4939
1.48907
1.48669
1.48523
1.4841
1.48331
1.4829
1.48279
1.48385
1.48731
1.49361
1.4997
1.5016
1.50084
1.4989
1.49672
1.49409
1.49002
1.482
1.46842
1.45677
1.45262
1.45085
1.45046
1.45057
1.45082
1.45228
1.4564
1.46516
1.47975
1.49482
1.50373
1.50731
1.50812
1.50802
1.50637
1.49967
1.48393
1.46508
1.45803
1.45712
1.45705
1.45707
1.45806
1.46152
1.46975
1.48451
1.49762
1.50068
1.49967
1.49653
1.49148
1.48179
1.46924
1.46469
1.46437
1.46497
1.46833
1.47339
1.4747
1.47384
1.47173
1.46862
1.46362
1.45415
1.44353
1.43943
1.43824
1.43818
1.43859
1.4399
1.44342
1.45073
1.46094
1.46705
1.46721
1.46537
1.46232
1.45731
1.44739
1.43077
1.41878
1.41477
1.41271
1.41171
1.41202
1.41316
1.41345
1.41401
1.41572
1.41903
1.42574
1.43642
1.44447
1.4458
1.44457
1.44002
1.43185
1.41821
1.39847
1.38518
1.38171
1.3805
1.37989
1.37949
1.37877
1.3782
1.37839
1.37899
1.37929
1.37935
1.38084
1.38746
1.396
1.39666
1.39266
1.38691
1.37959
1.36582
1.35103
1.3474
1.34737
1.34784
1.34949
1.35121
1.35239
1.35483
1.36237
1.3728
1.37381
1.37008
1.36416
1.35839
1.3501
1.33764
1.33179
1.33153
1.33303
1.33583
1.3427
1.69065
1.68912
1.68798
1.68624
1.68339
1.67983
1.6771
1.67535
1.67368
1.67215
1.67194
1.6733
1.67508
1.67544
1.67552
1.67466
1.67192
1.66602
1.66051
1.65813
1.65638
1.65444
1.65324
1.65416
1.65513
1.65311
1.64957
1.64537
1.64015
1.63708
1.636
1.63495
1.63419
1.63348
1.632
1.63024
1.62833
1.62647
1.62489
1.62382
1.62306
1.62219
1.62115
1.61969
1.61714
1.61279
1.60797
1.6052
1.60372
1.60235
1.60129
1.60169
1.6024
1.60118
1.5994
1.59712
1.59372
1.59129
1.59
1.58874
1.5876
1.58633
1.58458
1.58245
1.57918
1.57347
1.56735
1.5645
1.56282
1.56098
1.55911
1.55739
1.55572
1.5538
1.55162
1.54966
1.54818
1.54708
1.54634
1.54617
1.54658
1.54738
1.54878
1.5521
1.55633
1.55769
1.5565
1.55436
1.55218
1.54927
1.54381
1.53281
1.52008
1.5149
1.5137
1.5134
1.51303
1.5123
1.51126
1.51
1.50858
1.50715
1.50647
1.50696
1.5107
1.51835
1.52435
1.52536
1.52435
1.52292
1.5213
1.51882
1.51427
1.50528
1.49325
1.48541
1.48194
1.47988
1.4785
1.47752
1.47708
1.47689
1.47702
1.47888
1.48389
1.49118
1.49618
1.49693
1.49566
1.49349
1.49121
1.4882
1.4824
1.47021
1.45558
1.44902
1.44723
1.44687
1.44715
1.44769
1.44909
1.45233
1.45889
1.47081
1.48714
1.50016
1.5048
1.50548
1.5054
1.50426
1.4995
1.48724
1.46787
1.45648
1.45445
1.454
1.4539
1.45414
1.45591
1.46091
1.47207
1.48697
1.49379
1.49386
1.49181
1.48863
1.4824
1.47184
1.46544
1.46463
1.46508
1.46703
1.46917
1.47015
1.46929
1.46655
1.46303
1.4582
1.44969
1.44039
1.43727
1.43666
1.43694
1.43819
1.43992
1.44231
1.44644
1.45341
1.4602
1.46189
1.46009
1.45649
1.45221
1.44488
1.43085
1.41694
1.4124
1.41119
1.41104
1.41136
1.41134
1.41146
1.41235
1.41437
1.41705
1.42224
1.43203
1.44087
1.44206
1.43983
1.43372
1.42509
1.4128
1.39458
1.38113
1.37818
1.37771
1.37745
1.37699
1.37624
1.37596
1.37629
1.37633
1.37568
1.3747
1.37509
1.38117
1.39035
1.39106
1.38673
1.38096
1.37406
1.35975
1.34482
1.3415
1.3416
1.34297
1.34507
1.34621
1.34721
1.34978
1.35841
1.36999
1.37087
1.36626
1.36084
1.35623
1.34829
1.33454
1.32875
1.32881
1.33032
1.3329
1.68555
1.68678
1.68699
1.68624
1.68446
1.68106
1.67565
1.67108
1.66839
1.6666
1.66551
1.66583
1.6696
1.67388
1.67443
1.67361
1.67193
1.66779
1.65992
1.65356
1.6508
1.64902
1.64728
1.64683
1.64877
1.64992
1.64758
1.64405
1.63974
1.63406
1.63096
1.63003
1.62921
1.62879
1.62783
1.626
1.62409
1.62225
1.62062
1.61941
1.6187
1.61849
1.61802
1.61712
1.61574
1.61332
1.60874
1.6029
1.59922
1.5974
1.59605
1.59504
1.59538
1.59642
1.59563
1.59373
1.59137
1.58828
1.58621
1.58487
1.58354
1.58237
1.58118
1.5795
1.57747
1.57428
1.56808
1.56115
1.55827
1.55668
1.55496
1.55332
1.55208
1.55095
1.54958
1.54816
1.54674
1.54526
1.54414
1.54315
1.54172
1.54031
1.53931
1.53922
1.54072
1.54538
1.54955
1.5497
1.54835
1.54713
1.54564
1.54258
1.53474
1.52098
1.51172
1.50905
1.50817
1.50763
1.50688
1.50578
1.50441
1.50285
1.50119
1.49983
1.49959
1.50127
1.50769
1.51662
1.52086
1.52091
1.51952
1.51786
1.5158
1.51237
1.50546
1.49394
1.48315
1.47752
1.47477
1.47317
1.47223
1.47176
1.47167
1.47163
1.47249
1.47594
1.48263
1.49043
1.49402
1.49357
1.49107
1.48841
1.48559
1.48122
1.47172
1.4567
1.44698
1.44439
1.44392
1.44431
1.44516
1.44652
1.44913
1.45399
1.46308
1.47861
1.49557
1.50242
1.5037
1.50389
1.50305
1.49956
1.48983
1.47061
1.45495
1.45129
1.45033
1.45003
1.44993
1.45057
1.45361
1.46206
1.47733
1.48815
1.48966
1.4886
1.48675
1.48293
1.47447
1.46589
1.46342
1.46287
1.4627
1.46306
1.46379
1.4637