/*--------------------------------*- C++ -*----------------------------------*\
  =========                 |
  \\      /  F ield         | OpenFOAM: The Open Source CFD Toolbox
   \\    /   O peration     | Website:  https://openfoam.org
    \\  /    A nd           | Version:  7
     \\/     M anipulation  |
\*---------------------------------------------------------------------------*/
FoamFile
{
    version     2.0;
    format      ascii;
    class       volScalarField;
    location    "3.7";
    object      p;
}
// * * * * * * * * * * * * * * * * * * * * * * * * * * * * * * * * * * * * * //

dimensions      [1 -1 -2 0 0 0 0];

internalField   nonuniform List<scalar> 
16192
(
1.31278
1.30751
1.30376
1.30215
1.30234
1.3048
1.3077
1.31049
1.31439
1.31808
1.31837
1.31649
1.31042
1.30082
1.29509
1.29384
1.2939
1.29538
1.29967
1.30712
1.31325
1.31432
1.31347
1.31047
1.30265
1.29568
1.29331
1.29286
1.29321
1.29519
1.29734
1.29813
1.29813
1.29702
1.29376
1.28983
1.28868
1.28866
1.28974
1.2902
1.28959
1.28825
1.28564
1.2819
1.28007
1.27983
1.27992
1.28021
1.28081
1.28177
1.28284
1.2841
1.28564
1.28715
1.28749
1.28675
1.28483
1.28146
1.27826
1.27629
1.27507
1.27446
1.27449
1.27528
1.2764
1.27786
1.27981
1.28154
1.28196
1.28169
1.28072
1.27665
1.26783
1.26118
1.25875
1.25773
1.25732
1.25781
1.25994
1.26184
1.26335
1.26516
1.26756
1.26991
1.27095
1.27063
1.26816
1.26109
1.25296
1.2483
1.24703
1.24707
1.24838
1.25274
1.2599
1.26556
1.26761
1.26795
1.26673
1.26105
1.25124
1.24601
1.24449
1.24409
1.24583
1.2496
1.2523
1.25352
1.25461
1.25552
1.25609
1.2555
1.25322
1.24997
1.24764
1.24555
1.24349
1.24213
1.24127
1.24133
1.24324
1.24743
1.2521
1.25395
1.25244
1.24994
1.2469
1.24327
1.24122
1.24082
1.24191
1.24512
1.2492
1.25012
1.24884
1.24574
1.23992
1.23641
1.23499
1.23494
1.23897
1.24616
1.24912
1.24896
1.24837
1.24707
1.24346
1.2379
1.23307
1.23081
1.22995
1.23009
1.23341
1.23808
1.23909
1.23875
1.23848
1.23909
1.24016
1.24017
1.23959
1.23878
1.23697
1.23294
1.2284
1.22747
1.22806
1.22851
1.22936
1.23062
1.2306
1.23018
1.22944
1.22774
1.2244
1.22025
1.21716
1.21569
1.2171
1.21885
2.42639
4.81205
5.0976
5.19633
5.28269
5.34733
5.39378
5.41946
5.42973
5.44745
5.49142
5.52614
5.54509
5.55419
5.54997
5.53985
5.52887
5.51956
5.51695
5.5153
5.51981
5.53576
5.55318
5.55721
5.54746
5.52967
5.50864
5.49024
5.48032
5.48181
5.49569
5.52131
5.54989
5.56998
5.55921
5.51864
5.47047
5.42327
5.39261
5.38166
5.40444
5.45181
5.49741
5.50533
5.48251
5.43986
5.38072
5.33171
5.30718
5.29665
5.30007
5.32443
5.36392
5.39109
5.38457
5.34911
5.2854
5.21642
5.17614
5.15813
5.15527
5.17702
5.21777
5.24244
5.23128
5.20504
5.17145
5.14108
5.11928
5.10795
5.10321
5.10006
5.09434
1.30693
1.30853
1.30995
1.31052
1.31028
1.30913
1.30838
1.30866
1.31
1.31179
1.31243
1.31154
1.31005
1.30849
1.30457
1.29955
1.29691
1.29645
1.29789
1.30215
1.30605
1.30756
1.30752
1.30628
1.30474
1.3028
1.29982
1.29711
1.29533
1.29449
1.2945
1.29438
1.29361
1.29259
1.29227
1.29273
1.29325
1.29371
1.29308
1.29211
1.29096
1.28907
1.28539
1.28104
1.27973
1.27963
1.2798
1.28029
1.28106
1.28137
1.2815
1.28166
1.28134
1.28039
1.28006
1.28003
1.27942
1.27847
1.27689
1.27432
1.27253
1.27161
1.27114
1.27126
1.27193
1.27265
1.27364
1.27504
1.27613
1.2764
1.27599
1.27445
1.27076
1.2675
1.26599
1.26492
1.26407
1.26346
1.26294
1.26267
1.26282
1.26331
1.26377
1.26394
1.26423
1.26476
1.26463
1.26317
1.26112
1.25766
1.25429
1.25244
1.25196
1.25344
1.25824
1.26147
1.26158
1.26107
1.26023
1.25815
1.25533
1.25364
1.25213
1.25103
1.25101
1.25192
1.25211
1.25123
1.24977
1.24912
1.24934
1.25046
1.25297
1.25453
1.25405
1.25198
1.2487
1.24451
1.24142
1.24028
1.24034
1.24177
1.2445
1.24838
1.25211
1.25315
1.25229
1.24985
1.24584
1.24288
1.24183
1.2425
1.24404
1.24428
1.2433
1.2419
1.24119
1.24045
1.24022
1.24162
1.24499
1.24811
1.24803
1.2469
1.24506
1.24155
1.23683
1.23394
1.23366
1.23375
1.23431
1.2362
1.23928
1.24046
1.23984
1.2385
1.23656
1.23537
1.23506
1.23476
1.23417
1.23336
1.23237
1.23092
1.22874
1.22768
1.22833
1.22907
1.23031
1.23238
1.23391
1.23407
1.23353
1.23215
1.22938
1.22454
1.21923
1.21616
1.21625
1.21678
2.3335
4.74358
5.08188
5.19498
5.29209
5.36485
5.41782
5.44417
5.44528
5.44644
5.48179
5.52207
5.54759
5.56087
5.56068
5.54973
5.53638
5.52386
5.5193
5.5167
5.52038
5.53415
5.55053
5.55554
5.54692
5.53039
5.51116
5.49464
5.48577
5.48632
5.496
5.51364
5.53301
5.54745
5.54709
5.52178
5.48515
5.44791
5.41624
5.39861
5.4016
5.4273
5.45443
5.46144
5.45014
5.43081
5.40805
5.37416
5.33446
5.30671
5.29556
5.30067
5.32017
5.34059
5.34896
5.33721
5.31404
5.27688
5.22564
5.18275
5.16479
5.16608
5.17985
5.20134
5.21863
5.21223
5.19433
5.16667
5.13299
5.10318
5.08352
5.07194
5.06975
1.29568
1.29915
1.30713
1.31498
1.3186
1.31895
1.3173
1.31347
1.30815
1.30406
1.30216
1.30211
1.30503
1.30845
1.3091
1.30883
1.30731
1.30482
1.30231
1.2999
1.29804
1.29665
1.29588
1.29668
1.29958
1.30182
1.30302
1.30359
1.30314
1.30117
1.29699
1.29088
1.28563
1.28348
1.2839
1.287
1.29265
1.29763
1.29934
1.29933
1.29867
1.29649
1.29113
1.28691
1.28622
1.28642
1.28697
1.28822
1.28871
1.2879
1.28597
1.28232
1.27717
1.27285
1.27068
1.2701
1.27076
1.27402
1.2768
1.27704
1.27563
1.27205
1.26813
1.26625
1.26616
1.26643
1.26669
1.26741
1.26769
1.26742
1.26641
1.2648
1.2644
1.26491
1.26581
1.2673
1.26976
1.27154
1.27156
1.27035
1.26756
1.2632
1.2593
1.25712
1.25606
1.25525
1.25543
1.25782
1.25965
1.26037
1.26076
1.26153
1.26231
1.26187
1.26009
1.25782
1.25547
1.25306
1.2502
1.24882
1.25032
1.25279
1.25528
1.25813
1.26038
1.26015
1.25787
1.25355
1.24747
1.24307
1.24161
1.24198
1.24512
1.2514
1.2551
1.25621
1.2556
1.2536
1.24936
1.2442
1.2402
1.23791
1.2372
1.2396
1.24532
1.25009
1.25199
1.25268
1.25241
1.25104
1.24818
1.2444
1.24043
1.23704
1.2346
1.2337
1.23475
1.23732
1.24066
1.24601
1.25264
1.25463
1.25313
1.2502
1.24522
1.23684
1.22867
1.22629
1.22669
1.22899
1.23363
1.24067
1.24636
1.24745
1.24662
1.24428
1.23928
1.23373
1.23055
1.22874
1.22733
1.22604
1.22501
1.22444
1.22375
1.22281
1.22333
1.22415
1.22546
1.22799
1.23104
1.23335
1.23415
1.23429
1.23381
1.23145
1.22674
1.22211
1.21928
1.21513
2.15151
4.65528
5.0813
5.19666
5.29918
5.37653
5.43621
5.46526
5.4653
5.45404
5.47456
5.51371
5.54827
5.56652
5.57194
5.55972
5.53783
5.51991
5.51272
5.51108
5.51732
5.53101
5.54623
5.5525
5.54672
5.53284
5.51602
5.5017
5.49438
5.49516
5.50106
5.51036
5.51961
5.52659
5.52938
5.51815
5.4945
5.47163
5.4534
5.44061
5.43366
5.43203
5.42844
5.42129
5.41407
5.41076
5.40717
5.39654
5.3797
5.35276
5.32114
5.29792
5.28168
5.28188
5.29119
5.30672
5.31647
5.30875
5.28595
5.24735
5.20168
5.16913
5.15011
5.15173
5.17098
5.1957
5.20141
5.18976
5.16428
5.12092
5.07453
5.04721
5.03273
1.30075
1.30248
1.3086
1.31453
1.31635
1.31665
1.31606
1.31368
1.30996
1.30682
1.30524
1.3047
1.30601
1.30678
1.30693
1.30705
1.30624
1.30499
1.30422
1.30348
1.30275
1.30176
1.3005
1.29957
1.29908
1.29913
1.29973
1.30053
1.3008
1.30011
1.29815
1.29454
1.29044
1.28824
1.2875
1.28835
1.29127
1.29417
1.29602
1.29665
1.29615
1.29346
1.28817
1.28512
1.2843
1.28448
1.28541
1.28712
1.28915
1.28999
1.28973
1.28769
1.28282
1.27803
1.27648
1.27597
1.27642
1.2788
1.28003
1.28054
1.28019
1.27796
1.27449
1.27271
1.27305
1.27372
1.27386
1.2732
1.27196
1.27042
1.26819
1.26493
1.26216
1.26134
1.26156
1.26331
1.2667
1.2689
1.26989
1.2704
1.26981
1.26776
1.26501
1.26183
1.25871
1.2566
1.25522
1.25436
1.25417
1.25484
1.25677
1.25951
1.2624
1.26414
1.26424
1.26348
1.26094
1.25565
1.25006
1.24749
1.24702
1.24769
1.2505
1.25513
1.25857
1.25959
1.25864
1.25642
1.25278
1.24883
1.246
1.2444
1.2451
1.24843
1.25086
1.25229
1.25278
1.25196
1.24954
1.24694
1.24529
1.24358
1.24208
1.24247
1.24523
1.24699
1.24747
1.24804
1.24892
1.24938
1.24875
1.24737
1.24531
1.24204
1.23859
1.23626
1.23519
1.23563
1.2377
1.24233
1.24869
1.25225
1.2523
1.25092
1.248
1.2416
1.23367
1.22948
1.22827
1.22858
1.2316
1.23823
1.24345
1.24498
1.24519
1.24419
1.24133
1.23749
1.23529
1.23401
1.23273
1.23126
1.22983
1.22854
1.22679
1.22473
1.22475
1.22545
1.22583
1.22646
1.22783
1.22964
1.23074
1.231
1.23056
1.22861
1.22523
1.22243
1.22141
1.21885
1.89148
4.50286
5.11507
5.22794
5.32981
5.403
5.46108
5.49214
5.49186
5.47337
5.47487
5.50808
5.54882
5.5747
5.5784
5.56466
5.54119
5.52507
5.51535
5.51253
5.51788
5.52907
5.541
5.54752
5.54554
5.53627
5.52317
5.51077
5.50384
5.50522
5.5121
5.51953
5.52135
5.51835
5.51425
5.50628
5.4907
5.47546
5.46471
5.45884
5.45512
5.44826
5.43634
5.42003
5.40138
5.38606
5.37671
5.37611
5.3777
5.37194
5.35558
5.3277
5.29494
5.27029
5.25656
5.26246
5.2775
5.28972
5.29273
5.27886
5.24803
5.2008
5.16361
5.14207
5.1464
5.1696
5.18239
5.17955
5.16316
5.1315
5.08976
5.06154
5.04062
1.30739
1.31423
1.3183
1.31848
1.31703
1.31299
1.30746
1.30412
1.30332
1.30366
1.30612
1.31055
1.31271
1.31252
1.31081
1.3065
1.30067
1.29757
1.29673
1.2967
1.29854
1.30261
1.30571
1.30674
1.30682
1.30591
1.30354
1.29934
1.29461
1.29103
1.2889
1.28817
1.28876
1.29032
1.29344
1.2968
1.29788
1.29733
1.29628
1.29436
1.29027
1.28385
1.27872
1.27706
1.27668
1.27703
1.27809
1.27938
1.28111
1.28257
1.28254
1.28081
1.27801
1.27669
1.27623
1.27651
1.27744
1.27758
1.27747
1.27704
1.27552
1.27215
1.269
1.26929
1.27072
1.27262
1.27506
1.27651
1.27664
1.27632
1.27543
1.27344
1.27102
1.269
1.26731
1.26613
1.26511
1.26388
1.26217
1.26047
1.25992
1.26035
1.26133
1.26287
1.26473
1.26575
1.26554
1.26387
1.26069
1.25697
1.25476
1.25401
1.25389
1.25477
1.25697
1.25921
1.25976
1.25968
1.25942
1.25812
1.2557
1.25411
1.25318
1.25206
1.25086
1.25021
1.24928
1.24826
1.24805
1.24874
1.25026
1.25305
1.2556
1.25551
1.25395
1.25175
1.24836
1.24407
1.2413
1.24054
1.24088
1.24272
1.24674
1.25165
1.25336
1.25238
1.25003
1.24652
1.24322
1.24135
1.2405
1.2407
1.24185
1.24296
1.24321
1.24303
1.24273
1.2424
1.24214
1.24192
1.24218
1.2437
1.24444
1.24362
1.24187
1.23926
1.23691
1.23583
1.23523
1.23529
1.23671
1.23869
1.23903
1.2385
1.23742
1.23571
1.23411
1.23363
1.23366
1.23434
1.23494
1.23524
1.23524
1.23461
1.23258
1.22996
1.23022
1.23123
1.23199
1.23313
1.23397
1.23349
1.2325
1.23115
1.22799
1.22233
1.21751
1.21557
1.21516
1.21469
1.56896
4.23806
5.17876
5.29293
5.39019
5.44828
5.48727
5.50887
5.5099
5.49775
5.49616
5.52151
5.55534
5.57953
5.58348
5.56913
5.55131
5.53799
5.52935
5.52667
5.52803
5.5304
5.53289
5.5353
5.53645
5.5342
5.52776
5.51823
5.50981
5.50751
5.51327
5.52243
5.52782
5.5247
5.5151
5.50238
5.48805
5.47426
5.46308
5.45603
5.45328
5.45475
5.45752
5.45106
5.43349
5.40805
5.37864
5.35624
5.34443
5.34096
5.34485
5.34691
5.33811
5.31857
5.29216
5.26533
5.24825
5.24216
5.24613
5.25121
5.24755
5.22902
5.20497
5.18415
5.17197
5.16189
5.15324
5.14563
5.13435
5.11807
5.09965
5.08146
5.0679
1.3118
1.31704
1.31806
1.31776
1.31592
1.31127
1.30617
1.30414
1.30399
1.30489
1.30823
1.31205
1.31296
1.3127
1.31065
1.30566
1.3008
1.29888
1.29822
1.29833
1.30068
1.30411
1.30545
1.30584
1.30579
1.30459
1.30188
1.29817
1.29472
1.29214
1.29048
1.28996
1.29074
1.2928
1.2955
1.2974
1.2978
1.29739
1.29626
1.29394
1.28989
1.28546
1.283
1.28218
1.28222
1.2825
1.28287
1.28339
1.28374
1.2833
1.28169
1.27906
1.27755
1.27713
1.27695
1.27767
1.27859
1.27874
1.2786
1.27754
1.27536
1.27174
1.26851
1.2688
1.27016
1.27164
1.27356
1.27498
1.27544
1.27512
1.27372
1.27204
1.27085
1.26985
1.26912
1.26844
1.26745
1.26599
1.26362
1.2603
1.25831
1.25875
1.25975
1.26183
1.26489
1.26639
1.2666
1.26579
1.26332
1.25997
1.25745
1.25572
1.25444
1.25397
1.2547
1.25653
1.25798
1.25899
1.25957
1.25933
1.25825
1.25743
1.25645
1.25491
1.25278
1.25043
1.24826
1.2468
1.24658
1.2481
1.25128
1.25557
1.25765
1.25734
1.25621
1.25404
1.24966
1.24413
1.24109
1.23992
1.23979
1.24246
1.24853
1.25313
1.2537
1.25259
1.25017
1.2463
1.24273
1.2407
1.23962
1.23958
1.24136
1.24333
1.24407
1.24413
1.24416
1.24436
1.24417
1.24313
1.24235
1.24287
1.24252
1.2416
1.24043
1.23883
1.23707
1.23688
1.23739
1.23836
1.2397
1.24003
1.23962
1.23872
1.23703
1.23476
1.23374
1.23376
1.23435
1.23513
1.23551
1.23561
1.23544
1.23446
1.23132
1.22795
1.22834
1.22941
1.2303
1.2322
1.23434
1.23484
1.23421
1.23283
1.22945
1.22296
1.21839
1.21708
1.2167
1.21583
1.28214
3.80438
5.24398
5.36924
5.45661
5.50354
5.52732
5.53795
5.53631
5.52651
5.53061
5.55492
5.58194
5.59724
5.59236
5.57441
5.55854
5.54709
5.54037
5.5377
5.53612
5.53343
5.52996
5.52811
5.52942
5.53201
5.53246
5.52816
5.51971
5.51106
5.50802
5.51245
5.51961
5.52408
5.52048
5.50806
5.49124
5.4744
5.45952
5.44859
5.44316
5.44518
5.45205
5.45097
5.43983
5.42309
5.39738
5.36313
5.33206
5.31622
5.31118
5.32496
5.34306
5.3443
5.33044
5.30326
5.26219
5.22537
5.20643
5.19812
5.20504
5.22025
5.23138
5.23135
5.21277
5.18206
5.15191
5.12422
5.10337
5.09322
5.09225
5.09397
5.09601
1.31533
1.31623
1.31598
1.3143
1.31091
1.30723
1.30556
1.30553
1.30635
1.30873
1.3114
1.31189
1.31152
1.30963
1.30537
1.30179
1.30083
1.3005
1.30063
1.30281
1.30604
1.30696
1.30666
1.30553
1.30267
1.29834
1.29497
1.29339
1.29313
1.2937
1.29473
1.29599
1.29641
1.29593
1.29495
1.2939
1.29287
1.29175
1.29031
1.28834
1.2865
1.28594
1.28598
1.28549
1.28453
1.28353
1.2828
1.28273
1.28274
1.282
1.28067
1.28021
1.28038
1.2806
1.28084
1.28075
1.28029
1.27946
1.27807
1.27602
1.27393
1.27227
1.27168
1.27293
1.27438
1.27578
1.27665
1.27653
1.27583
1.27404
1.27117
1.26907
1.2679
1.26712
1.26642
1.26538
1.26437
1.26337
1.26209
1.26063
1.26072
1.26176
1.26278
1.26419
1.26515
1.26516
1.26491
1.26316
1.25945
1.25696
1.25608
1.25544
1.25498
1.25525
1.25719
1.25933
1.25994
1.25998
1.25951
1.25777
1.25519
1.25412
1.25353
1.25282
1.25194
1.25106
1.25036
1.24999
1.25028
1.25134
1.25287
1.25412
1.25445
1.25396
1.25283
1.25071
1.24732
1.24449
1.24338
1.24286
1.24357
1.24656
1.24994
1.25066
1.24973
1.24776
1.24466
1.24227
1.24127
1.24077
1.24093
1.2427
1.24475
1.24511
1.24451
1.24331
1.24216
1.24118
1.24004
1.23913
1.23943
1.24145
1.24238
1.24199
1.24161
1.24079
1.23856
1.23687
1.23679
1.23713
1.23731
1.23739
1.23762
1.23722
1.23637
1.23587
1.23578
1.23598
1.23648
1.23683
1.23707
1.23713
1.23668
1.23484
1.23053
1.2269
1.22722
1.22817
1.22874
1.22976
1.23082
1.23118
1.23073
1.22936
1.22638
1.2214
1.21946
1.2191
1.21975
1.22004
1.22528
3.16702
5.24004
5.47399
5.53917
5.5736
5.58833
5.58962
5.57666
5.56041
5.56211
5.58084
5.59691
5.60094
5.58846
5.57169
5.56065
5.55382
5.55099
5.54988
5.54762
5.54358
5.53877
5.53462
5.53231
5.53155
5.5312
5.53014
5.5259
5.51679
5.50662
5.50103
5.50207
5.50663
5.51097
5.50986
5.49856
5.48115
5.46401
5.45185
5.44736
5.45065
5.45709
5.45118
5.43615
5.41786
5.39517
5.36791
5.34241
5.32579
5.3198
5.32892
5.33997
5.33742
5.32556
5.30416
5.26993
5.23338
5.20854
5.19378
5.19366
5.21229
5.23391
5.23693
5.21959
5.19241
5.15804
5.1261
5.10095
5.08508
5.08711
5.10029
5.11139
1.31984
1.31845
1.31455
1.30897
1.30425
1.30244
1.30245
1.30417
1.30851
1.31337
1.31543
1.3155
1.31297
1.30711
1.30131
1.29881
1.29811
1.29818
1.30088
1.30641
1.31009
1.31104
1.3104
1.30621
1.29931
1.29369
1.29114
1.29039
1.29068
1.29267
1.29631
1.29863
1.29913
1.29819
1.29599
1.2938
1.29239
1.29113
1.28961
1.28825
1.28762
1.28774
1.28794
1.28746
1.28648
1.28573
1.28504
1.28439
1.28373
1.28292
1.28275
1.28303
1.28354
1.28404
1.28409
1.28348
1.28167
1.27912
1.27679
1.27503
1.27396
1.27407
1.27439
1.27521
1.276
1.2762
1.27589
1.27527
1.27416
1.27267
1.27143
1.27048
1.26951
1.26819
1.26623
1.26387
1.26196
1.26071
1.25995
1.26019
1.26119
1.26302
1.26571
1.26806
1.26877
1.26852
1.26716
1.2633
1.25846
1.25555
1.25412
1.25352
1.25372
1.25552
1.25904
1.26196
1.26321
1.26343
1.26238
1.25956
1.25631
1.2541
1.25231
1.25085
1.25007
1.24999
1.25055
1.25175
1.25334
1.25464
1.2552
1.2551
1.25474
1.25382
1.25184
1.24888
1.246
1.24445
1.24403
1.24446
1.24679
1.25027
1.2517
1.25113
1.24929
1.24602
1.24267
1.24096
1.24035
1.24042
1.24209
1.24516
1.24673
1.24677
1.24595
1.24397
1.24153
1.23946
1.238
1.23725
1.23764
1.23988
1.24177
1.24245
1.24273
1.24269
1.24146
1.23936
1.23806
1.23717
1.23625
1.23569
1.23566
1.23591
1.23607
1.23646
1.23732
1.23862
1.23942
1.23955
1.23944
1.23913
1.23802
1.23533
1.23109
1.22849
1.22881
1.22953
1.23013
1.23101
1.23097
1.23048
1.22959
1.22788
1.22491
1.22116
1.21973
1.21953
1.22039
1.22185
1.22144
2.4157
5.1389
5.63842
5.6547
5.66872
5.65908
5.64997
5.6363
5.61898
5.6124
5.61829
5.62165
5.6138
5.59599
5.58163
5.57477
5.57104
5.56638
5.55867
5.55011
5.54523
5.54658
5.55029
5.5488
5.54042
5.53063
5.52474
5.52315
5.52135
5.51383
5.50272
5.49334
5.48851
5.48924
5.49476
5.5007
5.49566
5.4814
5.46449
5.45261
5.4469
5.44413
5.43723
5.42158
5.40162
5.37927
5.36129
5.34805
5.34013
5.33904
5.34084
5.33334
5.31956
5.30292
5.28092
5.25413
5.2295
5.21354
5.20388
5.20416
5.21854
5.23394
5.22597
5.20687
5.18104
5.15122
5.1277
5.10807
5.09558
5.09786
5.10965
5.11646
1.31652
1.31003
1.30444
1.30134
1.30087
1.30225
1.30694
1.31425
1.31998
1.32101
1.319
1.31353
1.30558
1.29899
1.2963
1.29594
1.29728
1.30251
1.31083
1.31599
1.31623
1.31334
1.30637
1.29692
1.29001
1.28731
1.28685
1.2879
1.29227
1.29905
1.30373
1.30488
1.30419
1.30027
1.29444
1.29007
1.28751
1.28605
1.28548
1.28571
1.28756
1.29036
1.29242
1.29322
1.2924
1.2905
1.28866
1.28684
1.28576
1.2854
1.28536
1.28535
1.28519
1.28497
1.28402
1.28148
1.27813
1.27544
1.27368
1.27293
1.27353
1.27473
1.27519
1.27527
1.27497
1.27402
1.27276
1.27162
1.27051
1.26932
1.26809
1.26673
1.26516
1.26336
1.26176
1.26112
1.26127
1.26247
1.2648
1.26769
1.27022
1.27168
1.2718
1.27089
1.26814
1.26399
1.25935
1.25505
1.25256
1.25194
1.25224
1.25414
1.25824
1.26401
1.26801
1.26856
1.26726
1.2635
1.25748
1.25215
1.2494
1.24832
1.248
1.24841
1.25062
1.25405
1.25742
1.25915
1.25907
1.25742
1.25422
1.25094
1.24837
1.24667
1.2459
1.24562
1.24603
1.24768
1.25007
1.25243
1.25347
1.25286
1.25059
1.24668
1.24239
1.23926
1.23804
1.23798
1.23926
1.24262
1.24728
1.25
1.25013
1.24859
1.24466
1.2394
1.23554
1.23387
1.23356
1.23446
1.23771
1.24258
1.24597
1.2471
1.2469
1.24449
1.23973
1.23508
1.23255
1.23165
1.23152
1.23262
1.2356
1.23871
1.24096
1.24238
1.24277
1.24217
1.24025
1.23764
1.2353
1.23329
1.23158
1.22973
1.22744
1.22641
1.22675
1.22727
1.22804
1.22872
1.22843
1.22779
1.22691
1.22575
1.22436
1.22317
1.22282
1.22374
1.2247
1.22609
1.22517
1.73602
4.88448
5.87618
5.78478
5.76264
5.73458
5.71736
5.70031
5.67989
5.66315
5.65639
5.64732
5.62836
5.60628
5.59298
5.58831
5.58509
5.57669
5.56363
5.55067
5.54367
5.54774
5.55999
5.56415
5.55237
5.53446
5.51957
5.51268
5.51298
5.51306
5.50377
5.48853
5.47579
5.47059
5.47602
5.49219
5.50683
5.50227
5.48197
5.45276
5.4287
5.41212
5.40421
5.40073
5.39007
5.37616
5.36561
5.36055
5.35987
5.3589
5.34851
5.33136
5.31253
5.29258
5.2722
5.25524
5.2422
5.2325
5.22691
5.22555
5.22763
5.22754
5.2156
5.19592
5.17255
5.14842
5.12996
5.11501
5.10646
5.10462
5.1055
5.10339
1.30402
1.3017
1.30146
1.30322
1.30869
1.31646
1.3213
1.32162
1.31847
1.3131
1.30687
1.30017
1.29644
1.29568
1.29675
1.30141
1.30984
1.31657
1.31736
1.31445
1.30851
1.3007
1.29266
1.28824
1.28717
1.28784
1.29172
1.29929
1.30674
1.30909
1.30808
1.30418
1.29871
1.29223
1.287
1.28429
1.28349
1.28365
1.28588
1.29075
1.29592
1.29817
1.29787
1.29485
1.2897
1.28442
1.28145
1.28016
1.2795
1.27935
1.27983
1.27959
1.27889
1.27779
1.27563
1.27265
1.27032
1.26925
1.26898
1.2695
1.2714
1.27328
1.2741
1.27406
1.2728
1.27069
1.26869
1.26703
1.26574
1.26493
1.26461
1.26469
1.26496
1.26556
1.2669
1.26921
1.27233
1.27492
1.27547
1.2749
1.27348
1.27004
1.26563
1.26131
1.2573
1.25413
1.25245
1.2523
1.25372
1.25729
1.26241
1.26786
1.27088
1.27075
1.26893
1.26445
1.25785
1.25155
1.24749
1.24618
1.24623
1.24814
1.25248
1.25836
1.2638
1.26585
1.26507
1.26156
1.25562
1.24947
1.2453
1.24333
1.24277
1.24353
1.24722
1.25268
1.25736
1.25936
1.25903
1.25618
1.25116
1.24578
1.24132
1.23825
1.23697
1.23701
1.23882
1.24307
1.24881
1.25291
1.25339
1.25174
1.248
1.24242
1.23689
1.23326
1.23231
1.23279
1.23542
1.2409
1.24696
1.24947
1.24908
1.2467
1.24222
1.23645
1.23156
1.22925
1.22898
1.23011
1.23385
1.23982
1.24522
1.24728
1.24702
1.24456
1.24029
1.2358
1.23214
1.22952
1.22827
1.22781
1.22831
1.22838
1.22809
1.22783
1.22793
1.22821
1.22872
1.22899
1.22894
1.22893
1.2292
1.22989
1.23065
1.2307
1.22968
1.22841
1.22707
1.22576
1.22226
1.29821
4.4464
6.02742
5.93706
5.88843
5.84592
5.81059
5.78387
5.75303
5.72106
5.69688
5.67527
5.64893
5.62706
5.61718
5.61686
5.61633
5.60493
5.58067
5.55377
5.53585
5.53554
5.55296
5.56989
5.56511
5.54818
5.52359
5.50842
5.50109
5.50354
5.50623
5.50013
5.48862
5.48003
5.47953
5.48723
5.49917
5.50152
5.48793
5.46322
5.43124
5.40888
5.39719
5.394
5.39319
5.38736
5.37993
5.37618
5.37531
5.36679
5.34931
5.32927
5.30753
5.28843
5.27305
5.26102
5.2512
5.24215
5.23304
5.22307
5.21232
5.20266
5.1965
5.18627
5.17139
5.15618
5.14134
5.12719
5.11242
5.09782
5.08565
5.07975
1.30046
1.30175
1.30689
1.31589
1.32246
1.32335
1.32088
1.31584
1.30966
1.30142
1.29604
1.29476
1.29513
1.29855
1.30677
1.3155
1.31799
1.31644
1.31217
1.30609
1.29714
1.29045
1.2884
1.28851
1.29139
1.29854
1.30628
1.30882
1.30774
1.30442
1.30035
1.29508
1.28851
1.28511
1.28408
1.28414
1.28612
1.29094
1.2965
1.29864
1.29791
1.29479
1.29054
1.28518
1.27895
1.27638
1.27572
1.27572
1.27724
1.27967
1.28002
1.279
1.27717
1.27445
1.27165
1.27034
1.27012
1.27049
1.27227
1.27534
1.27754
1.27764
1.27679
1.27435
1.27033
1.26711
1.26573
1.26531
1.26546
1.26711
1.27038
1.27339
1.27519
1.27594
1.27556
1.27397
1.27242
1.27121
1.26971
1.26633
1.26202
1.25866
1.25629
1.25491
1.25463
1.25566
1.25912
1.26405
1.26826
1.26997
1.26956
1.26738
1.2649
1.26166
1.25663
1.25224
1.24942
1.24837
1.24881
1.25174
1.25708
1.26303
1.2668
1.26724
1.2654
1.26135
1.25627
1.24939
1.24441
1.24233
1.24198
1.24298
1.24714
1.25437
1.26083
1.26266
1.26141
1.25709
1.25141
1.2449
1.24035
1.23815
1.23754
1.23803
1.24079
1.24583
1.25072
1.2527
1.25206
1.24955
1.24637
1.24206
1.23802
1.23537
1.23445
1.23486
1.23738
1.24182
1.24568
1.24665
1.24569
1.24353
1.24089
1.23662
1.23244
1.23023
1.22988
1.23093
1.23459
1.24051
1.24543
1.2467
1.24579
1.24309
1.23965
1.23488
1.23085
1.22872
1.22791
1.22804
1.22965
1.23355
1.23711
1.23823
1.23804
1.23696
1.23553
1.23516
1.23493
1.23452
1.2344
1.23457
1.23476
1.23441
1.23279
1.22984
1.22602
1.22282
1.22046
1.21844
1.21589
1.21723
3.8891
6.09267
6.0837
5.98777
5.94646
5.89858
5.85816
5.80896
5.75877
5.72384
5.70342
5.68502
5.67001
5.66196
5.6585
5.64783
5.62179
5.58503
5.5558
5.54449
5.54812
5.56609
5.58032
5.57624
5.55626
5.53019
5.50961
5.499
5.50052
5.50931
5.51314
5.50627
5.49157
5.47767
5.46995
5.46982
5.47453
5.47852
5.46954
5.44802
5.41933
5.3982
5.38741
5.38687
5.3902
5.39031
5.3868
5.37709
5.35869
5.33807
5.317
5.2979
5.28182
5.27079
5.26301
5.25269
5.23887
5.22359
5.20827
5.19546
5.18805
5.18844
5.18954
5.18017
5.16591
5.14944
5.12803
5.1034
5.08166
5.06727
5.06374
1.30375
1.31178
1.32087
1.32403
1.32336
1.3206
1.31557
1.30707
1.29808
1.29466
1.29423
1.29563
1.30157
1.31163
1.31776
1.31802
1.31606
1.31182
1.30436
1.29546
1.29104
1.29013
1.29136
1.29669
1.30473
1.30867
1.30829
1.30602
1.3027
1.29774
1.29095
1.28646
1.28513
1.28503
1.2867
1.29118
1.29654
1.29895
1.29852
1.29627
1.29296
1.28836
1.28149
1.27658
1.27518
1.27494
1.2759
1.28001
1.28564
1.28758
1.2873
1.28547
1.28204
1.27895
1.27764
1.27744
1.2782
1.28035
1.28212
1.28229
1.28139
1.27878
1.27521
1.27159
1.26856
1.2674
1.26732
1.26857
1.27227
1.27653
1.27822
1.27801
1.27583
1.27228
1.26962
1.26774
1.26561
1.26273
1.26017
1.25844
1.25697
1.25633
1.25666
1.25895
1.26335
1.26835
1.27144
1.27175
1.26994
1.26639
1.26326
1.2596
1.25498
1.25222
1.25087
1.25048
1.25173
1.25577
1.26122
1.26543
1.26669
1.266
1.26408
1.26162
1.25832
1.25244
1.24601
1.24305
1.24242
1.24316
1.24663
1.25345
1.26028
1.2624
1.26142
1.25872
1.25485
1.24873
1.24155
1.23839
1.23778
1.23841
1.24146
1.24705
1.25182
1.25295
1.25173
1.249
1.24587
1.24195
1.23752
1.23551
1.23499
1.23571
1.23893
1.2434
1.24581
1.24595
1.24416
1.24161
1.23928
1.2357
1.23196
1.23045
1.23028
1.23147
1.23534
1.24099
1.24458
1.24508
1.24394
1.24203
1.23979
1.23594
1.2311
1.22878
1.2282
1.22885
1.23127
1.23604
1.2411
1.24314
1.24261
1.24045
1.23705
1.23406
1.23294
1.23275
1.23283
1.23267
1.23225
1.23179
1.23091
1.2291
1.22586
1.22192
1.21927
1.21775
1.21688
1.21636
1.21665
1.21723
3.36401
6.12421
6.23578
6.09525
6.03446
5.9678
5.9118
5.85217
5.80364
5.77706
5.76473
5.74762
5.72282
5.69795
5.67279
5.64098
5.6057
5.58566
5.58155
5.58366
5.58633
5.57957
5.56435
5.54825
5.53906
5.53334
5.52587
5.51714
5.51116
5.50942
5.50818
5.50422
5.49301
5.47619
5.46134
5.4535
5.45308
5.45468
5.45679
5.44827
5.42606
5.39944
5.3816
5.37568
5.37919
5.38302
5.37871
5.36235
5.3407
5.32019
5.30354
5.29122
5.2821
5.27538
5.26923
5.25972
5.24308
5.22416
5.20793
5.19715
5.19235
5.19259
5.193
5.18506
5.16847
5.14724
5.12087
5.09516
5.07629
5.0638
5.06078
1.31629
1.32323
1.32416
1.32308
1.32024
1.31413
1.30435
1.29644
1.29451
1.2944
1.29695
1.30498
1.31521
1.31878
1.31824
1.31589
1.31087
1.30236
1.29467
1.29224
1.29209
1.29478
1.3019
1.30847
1.30942
1.30803
1.30537
1.30103
1.29445
1.2883
1.28608
1.28556
1.28653
1.29081
1.29664
1.29961
1.29958
1.29811
1.29559
1.29216
1.28682
1.28023
1.27664
1.27569
1.27605
1.27925
1.28569
1.29107
1.2921
1.29108
1.28792
1.28314
1.28065
1.28001
1.27983
1.28066
1.2823
1.28233
1.28161
1.2803
1.27829
1.27524
1.27141
1.26907
1.26845
1.26861
1.2707
1.27497
1.27733
1.27724
1.27629
1.27444
1.27138
1.26705
1.2628
1.26042
1.2594
1.25894
1.25848
1.25865
1.2603
1.26309
1.26673
1.27026
1.272
1.27189
1.27059
1.26833
1.26515
1.26021
1.25505
1.25263
1.25178
1.25162
1.25353
1.25825
1.26367
1.26668
1.26681
1.26534
1.26344
1.2617
1.25902
1.25471
1.24988
1.2465
1.245
1.24534
1.24785
1.25303
1.2587
1.26098
1.26038
1.25897
1.25694
1.25298
1.24633
1.24088
1.23918
1.23935
1.24162
1.2467
1.25186
1.25351
1.2529
1.25083
1.24761
1.24293
1.23806
1.23557
1.23493
1.23525
1.23825
1.24379
1.24746
1.24794
1.24668
1.24334
1.23928
1.23487
1.23135
1.22986
1.2296
1.23051
1.23438
1.24057
1.24472
1.24536
1.24428
1.24208
1.23972
1.23637
1.23232
1.22956
1.22863
1.22912
1.23162
1.23643
1.24149
1.24356
1.24319
1.24162
1.23937
1.23657
1.23288
1.22952
1.22827
1.22796
1.22862
1.22892
1.22841
1.22759
1.22628
1.22418
1.22138
1.21923
1.21867
1.21886
1.22022
1.22229
1.22523
1.22606
2.94439
6.09873
6.34376
6.18075
6.10629
6.02968
5.96548
5.90716
5.86366
5.83693
5.81419
5.78119
5.74487
5.71225
5.67434
5.6354
5.6095
5.60654
5.61957
5.62642
5.6115
5.57699
5.53406
5.51448
5.51916
5.53625
5.55043
5.54934
5.53045
5.50284
5.4894
5.48128
5.48109
5.48437
5.47803
5.46331
5.4478
5.43523
5.42803
5.42793
5.42608
5.4119
5.39391
5.3812
5.3748
5.36934
5.36094
5.34977
5.3354
5.32018
5.30801
5.29866
5.28927
5.27905
5.27026
5.26452
5.25636
5.2408
5.22475
5.21148
5.19957
5.18834
5.17916
5.17169
5.15831
5.13856
5.11677
5.09735
5.08253
5.07207
5.06915
1.32426
1.32411
1.32258
1.31898
1.31152
1.30133
1.29574
1.29472
1.29514
1.2991
1.30875
1.31779
1.31943
1.31856
1.31583
1.30954
1.30019
1.2946
1.2934
1.29396
1.29821
1.30629
1.31058
1.3102
1.30839
1.30494
1.29868
1.29116
1.28728
1.28633
1.28628
1.28898
1.29544
1.3009
1.30182
1.30079
1.29827
1.29463
1.2899
1.28429
1.27983
1.27802
1.27754
1.2788
1.28392
1.29088
1.29376
1.29343
1.29199
1.28897
1.2838
1.27936
1.27814
1.27779
1.2778
1.27901
1.28049
1.28017
1.27933
1.27776
1.27434
1.27009
1.26832
1.26799
1.26822
1.27035
1.27408
1.27536
1.27515
1.27467
1.27337
1.26997
1.26452
1.26024
1.25882
1.25844
1.25855
1.2601
1.26329
1.26684
1.26953
1.27094
1.27113
1.2706
1.26991
1.269
1.26729
1.26351
1.25771
1.25356
1.25233
1.25215
1.25383
1.25855
1.2645
1.26776
1.26789
1.26657
1.26452
1.26212
1.25888
1.25503
1.25187
1.24978
1.24844
1.24839
1.2505
1.2548
1.25884
1.26031
1.25973
1.25862
1.2572
1.25464
1.25013
1.2446
1.24139
1.24063
1.24182
1.24609
1.25152
1.25399
1.25391
1.25256
1.24986
1.2455
1.2399
1.2359
1.23469
1.23444
1.2361
1.24157
1.2479
1.24995
1.24958
1.24745
1.24306
1.23684
1.23128
1.22904
1.22869
1.22902
1.23172
1.23787
1.24399
1.24577
1.24539
1.24377
1.24101
1.23705
1.23271
1.22999
1.22907
1.2291
1.23086
1.23524
1.24026
1.2426
1.24253
1.24174
1.24048
1.23844
1.23488
1.23032
1.22757
1.22681
1.22655
1.22686
1.22804
1.22815
1.22761
1.22659
1.22504
1.22314
1.22225
1.22248
1.22397
1.22643
1.22833
1.22886
1.22871
1.2272
2.6281
6.01548
6.40899
6.24341
6.16362
6.08624
6.02413
5.96829
5.92092
5.88568
5.85256
5.80915
5.76315
5.7273
5.69595
5.65725
5.63507
5.63194
5.6401
5.63738
5.61828
5.57669
5.52509
5.50489
5.50366
5.52797
5.56232
5.5659
5.54937
5.50846
5.47287
5.46041
5.46423
5.48586
5.50024
5.48848
5.45901
5.42662
5.4073
5.40246
5.41319
5.42424
5.41919
5.39982
5.37682
5.35761
5.34355
5.3381
5.33884
5.33598
5.32533
5.30992
5.29048
5.27048
5.25588
5.25137
5.25593
5.25821
5.24699
5.22614
5.20173
5.17904
5.15961
5.14756
5.14136
5.13236
5.11845
5.10474
5.0938
5.08622
5.08089
1.32419
1.32203
1.31708
1.30816
1.29919
1.29578
1.29525
1.29624
1.30147
1.31173
1.31891
1.31953
1.31856
1.31571
1.30883
1.29944
1.29505
1.29437
1.29543
1.3005
1.30833
1.3112
1.31074
1.30904
1.30498
1.29717
1.28978
1.28736
1.28678
1.28751
1.29219
1.29984
1.30365
1.30354
1.30195
1.29868
1.29351
1.28703
1.28184
1.27952
1.27867
1.27876
1.28166
1.28838
1.29384
1.29446
1.29355
1.29176
1.28835
1.2825
1.27652
1.27463
1.27412
1.27401
1.27556
1.27817
1.27848
1.27788
1.27644
1.27334
1.26982
1.26834
1.26787
1.26796
1.26977
1.2729
1.27397
1.27377
1.27322
1.27176
1.26825
1.26326
1.26014
1.25919
1.25921
1.26076
1.26436
1.26873
1.27146
1.27201
1.27152
1.27028
1.2692
1.26838
1.2671
1.26482
1.26101
1.25672
1.25435
1.25375
1.25457
1.25804
1.2638
1.26796
1.26859
1.26794
1.26644
1.26384
1.25977
1.25533
1.25268
1.25166
1.25107
1.25123
1.25357
1.25774
1.26105
1.26184
1.26112
1.25932
1.25733
1.25488
1.25148
1.24727
1.24413
1.24276
1.24282
1.24554
1.25096
1.25469
1.25516
1.25421
1.25177
1.24783
1.24231
1.23729
1.23523
1.23471
1.23503
1.23826
1.24512
1.2505
1.25122
1.25036
1.24786
1.24253
1.23467
1.22956
1.22844
1.22837
1.22951
1.23395
1.24106
1.24515
1.24544
1.24482
1.24306
1.2393
1.23406
1.23044
1.22939
1.22923
1.23012
1.23346
1.23845
1.24154
1.24197
1.24152
1.24044
1.23865
1.23589
1.2321
1.22896
1.2278
1.22727
1.2273
1.22836
1.22996
1.23059
1.23036
1.22965
1.22831
1.22732