/*--------------------------------*- C++ -*----------------------------------*\
  =========                 |
  \\      /  F ield         | OpenFOAM: The Open Source CFD Toolbox
   \\    /   O peration     | Website:  https://openfoam.org
    \\  /    A nd           | Version:  7
     \\/     M anipulation  |
\*---------------------------------------------------------------------------*/
FoamFile
{
    version     2.0;
    format      ascii;
    class       volScalarField;
    location    "3.7";
    object      T;
}
// * * * * * * * * * * * * * * * * * * * * * * * * * * * * * * * * * * * * * //

dimensions      [0 0 0 1 0 0 0];

internalField   nonuniform List<scalar> 
16192
(
1.69601
1.69342
1.69149
1.69037
1.69004
1.69028
1.69082
1.69149
1.69265
1.69369
1.69361
1.69254
1.69003
1.68648
1.68437
1.6839
1.6839
1.68441
1.68601
1.6888
1.69096
1.69128
1.69095
1.68986
1.68712
1.68492
1.68442
1.68448
1.68495
1.68616
1.68751
1.68831
1.68866
1.68872
1.68809
1.68714
1.68714
1.68761
1.68861
1.68905
1.68906
1.689
1.68841
1.68727
1.68696
1.68713
1.68757
1.68823
1.6891
1.69019
1.69135
1.69258
1.69379
1.69475
1.69509
1.69508
1.6947
1.69365
1.69257
1.69195
1.69173
1.69178
1.69227
1.69334
1.69465
1.6959
1.69701
1.69782
1.69809
1.6981
1.6979
1.69633
1.69293
1.69054
1.68978
1.68959
1.6896
1.69009
1.69134
1.69247
1.69343
1.69443
1.69549
1.69629
1.69648
1.6961
1.69469
1.69164
1.68837
1.68638
1.68573
1.68566
1.68598
1.68754
1.69026
1.69226
1.6927
1.69251
1.69137
1.68838
1.684
1.68124
1.6799
1.67913
1.67901
1.67947
1.67971
1.67957
1.67935
1.67899
1.67845
1.67743
1.67571
1.67374
1.67192
1.67001
1.66797
1.6661
1.66439
1.66327
1.66306
1.6635
1.66425
1.6643
1.66291
1.6611
1.65917
1.65699
1.65536
1.65449
1.65414
1.65433
1.65487
1.65439
1.6526
1.65003
1.6469
1.64484
1.6437
1.64331
1.64417
1.64643
1.64726
1.64708
1.64658
1.64577
1.64416
1.64192
1.64004
1.63924
1.6389
1.63887
1.63982
1.64118
1.64137
1.64109
1.64092
1.64112
1.64158
1.64176
1.64198
1.64241
1.64269
1.64241
1.64193
1.64253
1.644
1.64501
1.6458
1.64648
1.64666
1.64684
1.64708
1.64712
1.64687
1.64653
1.64678
1.6483
1.6519
1.65461
2.12597
2.64609
2.70011
2.72563
2.74942
2.76869
2.77976
2.78075
2.77707
2.7726
2.77257
2.77257
2.77207
2.7712
2.76833
2.76363
2.75746
2.74983
2.74175
2.73375
2.72808
2.72585
2.72532
2.72403
2.72125
2.7181
2.71489
2.71228
2.71107
2.71173
2.71472
2.71988
2.72583
2.73059
2.73113
2.72877
2.72526
2.722
2.72105
2.72298
2.73118
2.74301
2.75376
2.75859
2.75928
2.75677
2.75057
2.74499
2.74231
2.74142
2.74244
2.74622
2.75128
2.75418
2.7518
2.74393
2.73101
2.7157
2.7033
2.69385
2.68634
2.68234
2.68151
2.67946
2.67267
2.66417
2.65581
2.64859
2.64294
2.6391
2.63652
2.6344
2.63201
1.69137
1.6914
1.69127
1.69079
1.69015
1.68915
1.68846
1.68832
1.68838
1.68868
1.68883
1.68839
1.68774
1.68701
1.68537
1.68344
1.68251
1.68236
1.68286
1.68432
1.68574
1.68638
1.68643
1.68615
1.68585
1.68534
1.68443
1.68374
1.68355
1.68365
1.68412
1.68449
1.68472
1.68498
1.68548
1.68624
1.68689
1.68739
1.68745
1.68744
1.6874
1.68712
1.68607
1.68476
1.68463
1.68492
1.68551
1.68629
1.68725
1.68803
1.6888
1.6895
1.68986
1.68996
1.69017
1.69045
1.69045
1.69042
1.69011
1.68921
1.68874
1.68872
1.68898
1.68978
1.69096
1.69199
1.69289
1.69366
1.69422
1.69443
1.69434
1.69378
1.69233
1.69106
1.6905
1.69018
1.69007
1.69015
1.69044
1.69087
1.69132
1.69176
1.69204
1.69215
1.69215
1.69211
1.69177
1.69078
1.68957
1.68791
1.68641
1.68558
1.68536
1.68588
1.68753
1.68851
1.68845
1.68805
1.68726
1.68579
1.68397
1.68243
1.68096
1.67972
1.67902
1.67854
1.67788
1.67673
1.67534
1.67451
1.67412
1.67393
1.67404
1.67387
1.67279
1.67072
1.66818
1.66529
1.66274
1.66106
1.65996
1.65962
1.65977
1.66039
1.66103
1.66087
1.6597
1.65768
1.65532
1.6534
1.65221
1.65162
1.65117
1.65037
1.64893
1.64732
1.64611
1.6449
1.64403
1.64391
1.64447
1.64537
1.6452
1.64446
1.64343
1.64194
1.64018
1.63904
1.63888
1.63891
1.63898
1.6394
1.64026
1.64052
1.64012
1.63931
1.6384
1.63795
1.63793
1.63806
1.63833
1.63881
1.63953
1.64031
1.64085
1.64163
1.643
1.64412
1.64511
1.64603
1.64675
1.64704
1.64719
1.64725
1.64706
1.64641
1.64614
1.64688
1.64973
1.6522
2.09857
2.6345
2.69631
2.72415
2.74949
2.76974
2.78155
2.78286
2.7784
2.7718
2.77079
2.77146
2.77186
2.77161
2.76943
2.76452
2.75808
2.75012
2.74184
2.73372
2.72787
2.72519
2.72437
2.72306
2.72034
2.71721
2.71415
2.71171
2.71059
2.71103
2.71329
2.71709
2.72155
2.72562
2.72773
2.72712
2.7251
2.72301
2.72198
2.72321
2.72816
2.73682
2.74533
2.7505
2.75264
2.75297
2.75211
2.74892
2.74454
2.7414
2.74021
2.74098
2.74357
2.74552
2.74501
2.74054
2.73318
2.72313
2.7101
2.69698
2.68728
2.68059
2.67618
2.67347
2.6709
2.66575
2.65932
2.65233
2.64502
2.63844
2.63349
2.62996
2.62816
1.67814
1.67874
1.68086
1.68316
1.68401
1.68389
1.68288
1.68119
1.67903
1.67744
1.6767
1.67664
1.6776
1.6786
1.6787
1.67848
1.67782
1.6769
1.67597
1.6751
1.67459
1.67425
1.67408
1.67456
1.67587
1.67685
1.67753
1.67806
1.67823
1.67809
1.67715
1.67548
1.67424
1.67403
1.6747
1.67657
1.67904
1.68112
1.68208
1.68236
1.68247
1.68209
1.68042
1.67924
1.6793
1.67993
1.68096
1.68229
1.68306
1.68329
1.68327
1.68264
1.68121
1.67995
1.67944
1.67937
1.67976
1.68123
1.68256
1.68284
1.68269
1.68202
1.68146
1.6816
1.68251
1.68345
1.68405
1.68462
1.68479
1.68468
1.68425
1.68343
1.68304
1.6831
1.68332
1.6839
1.6851
1.68626
1.68676
1.68692
1.68657
1.68537
1.68413
1.68338
1.68286
1.6823
1.68208
1.68245
1.6826
1.68251
1.68233
1.68239
1.68256
1.68231
1.68151
1.6806
1.6797
1.67867
1.67725
1.6763
1.67626
1.67619
1.67621
1.67638
1.67644
1.67559
1.6736
1.67102
1.6681
1.66599
1.66501
1.6648
1.66523
1.66669
1.66711
1.66672
1.6653
1.66299
1.6599
1.65664
1.65393
1.65211
1.65126
1.65141
1.65269
1.65366
1.65357
1.653
1.65201
1.65057
1.64868
1.64643
1.64413
1.64204
1.64018
1.639
1.63856
1.63843
1.63856
1.63956
1.64145
1.64192
1.64098
1.63944
1.63748
1.63453
1.63164
1.63079
1.63095
1.63167
1.63316
1.63556
1.63749
1.63774
1.63716
1.63586
1.63377
1.63178
1.63081
1.63051
1.63049
1.63077
1.63156
1.63286
1.63423
1.63532
1.63661
1.63778
1.63881
1.63988
1.641
1.64201
1.6426
1.64298
1.64338
1.64353
1.64343
1.64358
1.64495
1.64629
2.03709
2.61427
2.68977
2.71886
2.74528
2.76622
2.77921
2.78183
2.77841
2.77095
2.7682
2.76882
2.77044
2.77077
2.76955
2.76455
2.75683
2.74822
2.73986
2.73195
2.72622
2.72306
2.72152
2.71983
2.71706
2.71371
2.71054
2.70806
2.70687
2.7071
2.70849
2.71081
2.71352
2.71634
2.71876
2.71959
2.71923
2.71907
2.71983
2.72201
2.72555
2.73
2.73436
2.73795
2.74101
2.74407
2.74625
2.74678
2.74607
2.74312
2.73894
2.73557
2.73276
2.73195
2.73203
2.73211
2.7303
2.72469
2.71568
2.70422
2.69162
2.68041
2.67155
2.66651
2.66447
2.66364
2.66084
2.6558
2.64942
2.64096
2.63207
2.62585
2.62176
1.65975
1.65984
1.66146
1.66348
1.66402
1.66404
1.66367
1.6628
1.66166
1.66058
1.65987
1.65953
1.65981
1.65998
1.65998
1.65994
1.65945
1.65894
1.65878
1.65871
1.65864
1.65837
1.65799
1.65778
1.65777
1.65806
1.65875
1.65948
1.66001
1.66031
1.66034
1.65991
1.65909
1.65885
1.65898
1.65982
1.66147
1.66297
1.66402
1.66454
1.66459
1.66403
1.66247
1.6618
1.66195
1.66285
1.66436
1.66617
1.66781
1.66879
1.66921
1.66913
1.6679
1.66618
1.66555
1.6653
1.66539
1.66618
1.66704
1.66792
1.66879
1.66931
1.66944
1.66986
1.67109
1.67218
1.67248
1.67237
1.67196
1.67127
1.67006
1.66819
1.66658
1.66603
1.66604
1.66668
1.66829
1.66979
1.67097
1.67212
1.67286
1.67293
1.67253
1.6714
1.67
1.66888
1.66793
1.66702
1.66643
1.66624
1.66643
1.66708
1.66797
1.6686
1.66873
1.66867
1.66783
1.66574
1.66347
1.66216
1.66148
1.66116
1.66136
1.66208
1.66229
1.66172
1.66023
1.65842
1.65649
1.65449
1.65286
1.65176
1.65166
1.65224
1.65247
1.65232
1.65144
1.64971
1.64726
1.645
1.64325
1.64158
1.64003
1.63944
1.63948
1.63934
1.63885
1.63831
1.63783
1.63721
1.63625
1.63505
1.63366
1.63166
1.62947
1.62765
1.62633
1.62555
1.62535
1.62597
1.62748
1.62813
1.62781
1.62688
1.62581
1.62376
1.62098
1.61948
1.61903
1.61913
1.6203
1.62277
1.62447
1.62474
1.62461
1.62388
1.62265
1.62133
1.62075
1.6206
1.62062
1.62083
1.62147
1.62262
1.62395
1.62502
1.62632
1.62753
1.62815
1.62857
1.62908
1.62973
1.63017
1.6304
1.63053
1.63065
1.63072
1.63114
1.63302
1.63511
1.93369
2.57211
2.67841
2.71031
2.73812
2.75957
2.77374
2.7785
2.7765
2.76958
2.76517
2.76541
2.76777
2.76909
2.76739
2.76178
2.75364
2.7455
2.73715
2.7292
2.72295
2.71862
2.71554
2.71272
2.70944
2.70563
2.70192
2.69885
2.69706
2.69692
2.69785
2.69955
2.70078
2.70157
2.70258
2.70353
2.70398
2.70484
2.7068
2.71004
2.71405
2.71803
2.72137
2.724
2.72609
2.72811
2.73024
2.73285
2.73486
2.73527
2.73381
2.73011
2.72513
2.72109
2.71837
2.7179
2.71783
2.71638
2.71226
2.70522
2.69546
2.68334
2.6727
2.66454
2.66074
2.65978
2.65809
2.65437
2.64889
2.64185
2.63349
2.62705
2.62158
1.63109
1.63326
1.63463
1.63469
1.63422
1.63303
1.63141
1.63053
1.63042
1.63066
1.63163
1.63314
1.63383
1.63371
1.63295
1.63124
1.62906
1.62796
1.62771
1.62773
1.62847
1.6301
1.63145
1.63209
1.63237
1.63243
1.63213
1.63115
1.63006
1.62949
1.62941
1.62972
1.63063
1.63195
1.63371
1.63557
1.63643
1.63656
1.6366
1.6363
1.63518
1.63328
1.63193
1.63181
1.63224
1.63346
1.63527
1.6372
1.63913
1.64047
1.64078
1.64059
1.63978
1.63917
1.63882
1.63874
1.63881
1.63888
1.6392
1.64
1.64098
1.64165
1.64227
1.64372
1.6456
1.64719
1.64835
1.64893
1.64896
1.64868
1.64776
1.64604
1.64425
1.6429
1.64202
1.64174
1.64177
1.64197
1.64241
1.64313
1.64425
1.64552
1.64665
1.64754
1.64814
1.6483
1.64798
1.64672
1.64471
1.64255
1.64112
1.64051
1.64035
1.64055
1.64141
1.64257
1.64306
1.6432
1.64324
1.64285
1.64171
1.64049
1.63939
1.6381
1.63663
1.63525
1.63368
1.63222
1.63133
1.63099
1.63103
1.63171
1.63247
1.63225
1.63122
1.62979
1.62766
1.62489
1.62255
1.62115
1.62011
1.61966
1.61994
1.62082
1.62084
1.61971
1.61796
1.61602
1.6142
1.61288
1.61199
1.61153
1.61127
1.61104
1.61051
1.60964
1.60869
1.60764
1.60647
1.60531
1.60454
1.60432
1.60408
1.6033
1.60241
1.60163
1.60107
1.60098
1.601
1.60119
1.60199
1.60267
1.60271
1.60237
1.6017
1.60074
1.59991
1.59968
1.59975
1.60031
1.60115
1.60214
1.60344
1.60507
1.60663
1.60791
1.6096
1.61109
1.61194
1.61244
1.61261
1.6123
1.61171
1.61104
1.60991
1.60832
1.6075
1.60775
1.6094
1.61166
1.78198
2.4947
2.65849
2.69742
2.72715
2.74834
2.76212
2.76831
2.76818
2.76446
2.76124
2.76132
2.76291
2.76368
2.7613
2.75489
2.7474
2.7399
2.73198
2.72416
2.71692
2.71038
2.70463
2.69965
2.69516
2.69082
2.68659
2.68253
2.67939
2.67787
2.67796
2.67905
2.68008
2.68023
2.68012
2.68008
2.68025
2.68097
2.68268
2.68562
2.68965
2.69465
2.7001
2.70436
2.70701
2.70805
2.70791
2.70812
2.70937
2.71118
2.71332
2.71465
2.71425
2.71189
2.70761
2.70285
2.6992
2.69665
2.69503
2.69268
2.68858
2.68196
2.67435
2.66697
2.66102
2.65589
2.65132
2.64715
2.64267
2.63766
2.63242
2.62718
2.62247
1.5964
1.59814
1.59845
1.59836
1.59794
1.59681
1.59558
1.59533
1.59557
1.59633
1.59773
1.59902
1.59927
1.59909
1.59814
1.59619
1.5944
1.59369
1.59346
1.59353
1.59447
1.59591
1.59671
1.59714
1.59739
1.59739
1.59699
1.59626
1.59575
1.59556
1.59559
1.59601
1.59707
1.59862
1.60021
1.60143
1.60193
1.60211
1.60212
1.60171
1.6006
1.59947
1.59918
1.59932
1.60002
1.60118
1.60267
1.60444
1.60604
1.60669
1.60664
1.60609
1.60566
1.60549
1.6053
1.60534
1.60537
1.60542
1.60569
1.60622
1.60693
1.6077
1.60881
1.61078
1.6127
1.61406
1.61499
1.6155
1.61556
1.61518
1.61387
1.61201
1.61042
1.60922
1.60862
1.60848
1.60852
1.60864
1.60884
1.60908
1.60979
1.61129
1.61275
1.61418
1.61537
1.61576
1.61563
1.61474
1.61296
1.611
1.60953
1.60847
1.60769
1.60739
1.60767
1.60862
1.60959
1.61038
1.61092
1.61096
1.61057
1.60995
1.60916
1.60796
1.60629
1.60433
1.60234
1.60074
1.59998
1.59993
1.60047
1.60179
1.60245
1.60221
1.60157
1.60046
1.59832
1.59543
1.59328
1.59189
1.59098
1.59089
1.59187
1.59269
1.59232
1.59099
1.58932
1.58747
1.58575
1.58453
1.58366
1.58329
1.58341
1.58361
1.58342
1.58276
1.58196
1.58116
1.58016
1.57884
1.57775
1.57713
1.57638
1.5754
1.57458
1.57412
1.57395
1.57409
1.57458
1.57537
1.57619
1.57638
1.57627
1.57588
1.57501
1.57381
1.57317
1.57309
1.57328
1.57395
1.57474
1.57575
1.57712
1.5787
1.57992
1.58094
1.58278
1.58441
1.58534
1.58607
1.58657
1.58661
1.58614
1.58534
1.58396
1.58179
1.58067
1.5808
1.58193
1.58364
1.61388
2.36959
2.63183
2.67797
2.70836
2.72998
2.74358
2.75098
2.75298
2.75183
2.75138
2.75262
2.75393
2.75353
2.74946
2.74212
2.73479
2.7275
2.71987
2.7121
2.70418
2.6962
2.68846
2.68141
2.67535
2.6701
2.66527
2.66059
2.65618
2.65259
2.65066
2.65038
2.65089
2.65165
2.65176
2.65133
2.65077
2.65063
2.65117
2.65286
2.65577
2.6601
2.66546
2.66997
2.67334
2.67585
2.67685
2.67645
2.6758
2.67653
2.67832
2.68253
2.68651
2.68737
2.68608
2.68251
2.6765
2.67077
2.66759
2.66584
2.66596
2.66637
2.66569
2.66318
2.65755
2.65028
2.6432
2.63679
2.63139
2.62756
2.62499
2.62234
2.61954
1.56311
1.56327
1.56311
1.56259
1.56175
1.56096
1.56082
1.56118
1.56207
1.56338
1.5644
1.56458
1.56445
1.56371
1.56203
1.56063
1.5602
1.56005
1.56008
1.56088
1.56215
1.56264
1.56267
1.56259
1.56199
1.56091
1.56026
1.56023
1.56068
1.56158
1.56264
1.56371
1.56444
1.56488
1.56508
1.56515
1.56513
1.56509
1.56495
1.56461
1.56433
1.56448
1.56496
1.5653
1.56561
1.56606
1.56687
1.56818
1.56953
1.57023
1.57042
1.57063
1.57091
1.57107
1.57109
1.57093
1.57052
1.57017
1.57012
1.57019
1.57059
1.57184
1.57407
1.57661
1.57843
1.57947
1.57986
1.57982
1.57946
1.57838
1.57649
1.57457
1.57308
1.57199
1.57129
1.57092
1.5709
1.57101
1.57137
1.57213
1.5736
1.5754
1.57683
1.57798
1.57856
1.57859
1.57848
1.57753
1.57558
1.57406
1.57323
1.57257
1.57208
1.57203
1.57259
1.57363
1.57421
1.57453
1.57469
1.57448
1.5737
1.57321
1.5728
1.57216
1.57124
1.57016
1.56908
1.56815
1.56755
1.56733
1.56739
1.56752
1.5675
1.56717
1.56667
1.56581
1.56432
1.56277
1.56174
1.56097
1.56057
1.56067
1.56098
1.56065
1.55948
1.55797
1.55641
1.5552
1.5545
1.55403
1.55387
1.5541
1.55444
1.5543
1.55356
1.55247
1.55142
1.55039
1.54923
1.54818
1.54772
1.54766
1.54745
1.54678
1.54623
1.54578
1.54518
1.54494
1.5451
1.54557
1.546
1.5463
1.54647
1.54631
1.54586
1.54542
1.54521
1.54518
1.54536
1.54579
1.54642
1.54738
1.5486
1.54973
1.55023
1.55072
1.55235
1.55399
1.55477
1.5552
1.55536
1.55538
1.55506
1.55431
1.55311
1.55153
1.55115
1.55138
1.55252
1.55427
1.55694
2.20598
2.59842
2.655
2.68347
2.70323
2.71666
2.72476
2.7277
2.72801
2.72923
2.73177
2.73275
2.73181
2.72701
2.72029
2.71381
2.70698
2.6998
2.69224
2.68415
2.67567
2.66722
2.65915
2.65178
2.64522
2.63942
2.63432
2.62968
2.62528
2.62154
2.61922
2.61855
2.6188
2.61959
2.62011
2.61983
2.61911
2.61874
2.61924
2.62117
2.62453
2.62869
2.63153
2.63368
2.63552
2.63676
2.63728
2.63771
2.63886
2.64092
2.64467
2.64808
2.64901
2.64867
2.64644
2.64217
2.63787
2.6354
2.63418
2.63479
2.63829
2.64177
2.64208
2.63882
2.63377
2.62763
2.62162
2.61632
2.6122
2.61055
2.60984
2.60853
1.53743
1.5368
1.53533
1.53352
1.53216
1.53183
1.53205
1.53302
1.53472
1.53649
1.53734
1.53746
1.53675
1.53469
1.53257
1.53164
1.5314
1.53146
1.53237
1.53418
1.53546
1.53592
1.53592
1.53488
1.5328
1.53119
1.53071
1.53079
1.5314
1.53276
1.53443
1.5356
1.53611
1.53617
1.53594
1.53551
1.5353
1.53513
1.5349
1.53475
1.53483
1.53525
1.53574
1.53596
1.53613
1.53648
1.53702
1.53773
1.5384
1.53885
1.53931
1.53979
1.54025
1.54051
1.54051
1.54019
1.53941
1.53858
1.53819
1.53818
1.53866
1.5402
1.54235
1.54447
1.54575
1.54613
1.54613
1.54593
1.5453
1.54427
1.54312
1.54202
1.5409
1.53973
1.53865
1.53778
1.53735
1.53733
1.53768
1.5387
1.54012
1.54181
1.54354
1.54494
1.54555
1.54565
1.54537
1.54393
1.54188
1.54047
1.5396
1.53911
1.53904
1.53938
1.54049
1.54162
1.54226
1.54256
1.54253
1.54194
1.54095
1.5402
1.53949
1.53878
1.5382
1.53783
1.53755
1.53744
1.53744
1.5374
1.53721
1.53687
1.53649
1.536
1.53524
1.53414
1.533
1.53224
1.53186
1.53176
1.53197
1.53252
1.53257
1.53185
1.53047
1.52887
1.52737
1.52644
1.52599
1.52592
1.52627
1.52708
1.52734
1.52712
1.52636
1.52518
1.52386
1.52265
1.52162
1.5209
1.52074
1.52099
1.52117
1.52104
1.52077
1.52054
1.52006
1.51947
1.51918
1.51906
1.51897
1.519
1.51917
1.51938
1.51942
1.51948
1.51967
1.52007
1.52047
1.52074
1.52115
1.52177
1.52239
1.52271
1.52267
1.52284
1.52406
1.52541
1.5262
1.52656
1.5265
1.5263
1.52596
1.52533
1.52438
1.5234
1.5232
1.52343
1.52435
1.52595
1.52699
1.97883
2.53944
2.63564
2.65439
2.66947
2.67975
2.68814
2.69323
2.69574
2.6982
2.70094
2.70201
2.70089
2.69686
2.69157
2.6864
2.68027
2.673
2.66475
2.65607
2.64778
2.64048
2.6339
2.62714
2.61993
2.61314
2.6076
2.60335
2.59981
2.59621
2.59274
2.59029
2.58909
2.58908
2.59008
2.59167
2.59191
2.59144
2.59065
2.5906
2.59156
2.59332
2.59485
2.59565
2.59613
2.5964
2.59729
2.59882
2.60086
2.60347
2.60604
2.60671
2.60649
2.60549
2.60331
2.60046
2.59822
2.59737
2.59739
2.59902
2.60333
2.6074
2.60766
2.60666
2.60397
2.60009
2.59674
2.59353
2.59087
2.59014
2.59002
2.5889
1.51786
1.51566
1.51378
1.51284
1.51277
1.51329
1.5149
1.5174
1.51929
1.51961
1.51889
1.51706
1.51446
1.51228
1.51147
1.51144
1.51197
1.51373
1.51653
1.51832
1.51845
1.51754
1.51536
1.51245
1.51036
1.50975
1.50982
1.51049
1.51225
1.51472
1.51651
1.5171
1.51704
1.51606
1.51433
1.51303
1.51234
1.51207
1.5121
1.51244
1.51331
1.51443
1.51544
1.51611
1.51622
1.51622
1.51618
1.51606
1.51606
1.51619
1.5164
1.51658
1.51664
1.51663
1.51629
1.51527
1.51403
1.51322
1.51292
1.51301
1.51388
1.5155
1.51705
1.51834
1.51893
1.51893
1.51862
1.51808
1.51741
1.51662
1.51577
1.51488
1.51398
1.51314
1.51253
1.51233
1.51244
1.51308
1.51434
1.51595
1.5175
1.51864
1.51911
1.51918
1.51864
1.51743
1.51595
1.51454
1.5137
1.51343
1.51341
1.51377
1.51496
1.51687
1.51831
1.51858
1.51822
1.51706
1.51519
1.51351
1.51271
1.51249
1.51244
1.51251
1.51303
1.51392
1.51478
1.51516
1.51498
1.51401
1.5125
1.51108
1.50996
1.50926
1.50898
1.50883
1.50884
1.50922
1.50991
1.5106
1.51081
1.51036
1.50912
1.50736
1.50554
1.50416
1.5035
1.50335
1.5035
1.50435
1.5058
1.5066
1.50658
1.50582
1.50413
1.50202
1.50039
1.49954
1.49931
1.49941
1.50015
1.50156
1.50247
1.50268
1.50247
1.50135
1.49953
1.49787
1.49701
1.4968
1.49688
1.49744
1.49855
1.49965
1.5005
1.50114
1.50141
1.50133
1.50083
1.50012
1.4996
1.49922
1.49902
1.49893
1.49883
1.49899
1.49974
1.50056
1.5013
1.50169
1.50166
1.5016
1.50149
1.5013
1.50115
1.50116
1.50136
1.50212
1.50296
1.50408
1.50461
1.72036
2.44685
2.63002
2.62736
2.63501
2.64263
2.65042
2.65615
2.65956
2.66217
2.66476
2.66553
2.66427
2.66096
2.65712
2.65339
2.64829
2.64128
2.63308
2.62478
2.6174
2.61176
2.60762
2.60315
2.59703
2.59036
2.58471
2.58067
2.57799
2.57571
2.57258
2.56929
2.56696
2.56598
2.56665
2.56908
2.57167
2.57171
2.57005
2.56705
2.56482
2.56382
2.56405
2.56523
2.5657
2.56595
2.56662
2.56811
2.57024
2.57213
2.5724
2.57174
2.57052
2.56884
2.56693
2.56549
2.56478
2.56467
2.56516
2.56664
2.56903
2.57122
2.57183
2.57161
2.57047
2.56866
2.56723
2.56586
2.56495
2.56445
2.56393
2.56249
1.50251
1.50176
1.5018
1.50251
1.50429
1.50675
1.50817
1.50821
1.50698
1.50497
1.50273
1.50038
1.49916
1.49907
1.49973
1.5015
1.50437
1.50663
1.50696
1.50611
1.5042
1.50166
1.49904
1.49776
1.49767
1.49818
1.49975
1.50243
1.50493
1.50573
1.50542
1.50412
1.50235
1.50031
1.49868
1.49795
1.49787
1.49807
1.499
1.50078
1.50267
1.50361
1.50364
1.50289
1.50154
1.50026
1.49968
1.49953
1.49941
1.4993
1.49934
1.49912
1.49866
1.49812
1.49729
1.49621
1.49541
1.49519
1.49526
1.49571
1.4968
1.49814
1.49922
1.49986
1.49992
1.49956
1.49887
1.49815
1.49754
1.49717
1.497
1.49695
1.49697
1.49724
1.49795
1.49903
1.50035
1.50149
1.50185
1.50187
1.50169
1.50078
1.49952
1.49828
1.49714
1.49632
1.49595
1.49596
1.49651
1.49779
1.49957
1.50138
1.50234
1.50227
1.50164
1.50023
1.49815
1.4961
1.49488
1.49462
1.49469
1.49537
1.49687
1.49886
1.50055
1.50107
1.50063
1.49913
1.49693
1.49462
1.49293
1.49211
1.49188
1.49204
1.49312
1.49493
1.49646
1.49707
1.49686
1.49572
1.49392
1.49197
1.49025
1.48903
1.48847
1.48835
1.48867
1.4899
1.49167
1.49283
1.49286
1.49206
1.4906
1.4886
1.48659
1.48527
1.48492
1.48502
1.48583
1.48768
1.48968
1.49042
1.49016
1.4891
1.48738
1.48526
1.48342
1.48259
1.48251
1.48285
1.48413
1.48628
1.48818
1.48893
1.48888
1.48815
1.48692
1.48566
1.48467
1.48405
1.48383
1.48365
1.48363
1.48349
1.48325
1.48323
1.48346
1.48381
1.48422
1.48454
1.48477
1.48507
1.48551
1.48618
1.48698
1.48748
1.48763
1.48766
1.48757
1.48745
1.48695
1.51761
2.35221
2.62309
2.6191
2.62168
2.62418
2.62708
2.63027
2.63175
2.6321
2.63235
2.63191
2.62991
2.62713
2.62464
2.62254
2.61904
2.61307
2.60486
2.59642
2.58955
2.5856
2.58396
2.58277
2.57931
2.57432
2.56884
2.56476
2.56205
2.56085
2.55976
2.55781
2.55555
2.55404
2.55385
2.55496
2.55688
2.55746
2.556
2.55319
2.54947
2.54706
2.54612
2.54638
2.54714
2.54733
2.5474
2.54794
2.54899
2.54899
2.54784
2.5462
2.54419
2.54243
2.54113
2.54028
2.53982
2.53955
2.53942
2.53939
2.53948
2.53995
2.54131
2.54216
2.54227
2.54214
2.54174
2.54106
2.53991
2.53835
2.5367
2.53559
1.49482
1.49527
1.49692
1.49987
1.50185
1.50207
1.50109
1.49908
1.49673
1.49382
1.49201
1.49163
1.49182
1.49304
1.49596
1.49896
1.49991
1.49951
1.49818
1.49621
1.49335
1.49137
1.49089
1.49103
1.49217
1.49478
1.49739
1.49827
1.49797
1.49683
1.49538
1.49356
1.49139
1.49034
1.49018
1.49034
1.49118
1.49292
1.49481
1.49556
1.49542
1.49454
1.49327
1.49168
1.48988
1.48933
1.48941
1.48975
1.49039
1.49078
1.49062
1.48978
1.48866
1.48749
1.4865
1.48607
1.48599
1.48614
1.48689
1.48821
1.48923
1.48941
1.48939
1.48898
1.48794
1.48698
1.48652
1.4864
1.48647
1.48709
1.48835
1.4896
1.4905
1.49102
1.49114
1.491
1.4908
1.49063
1.4903
1.48926
1.48781
1.48667
1.486
1.48577
1.4858
1.48629
1.48761
1.48938
1.49081
1.49139
1.49127
1.49059
1.4898
1.48876
1.48714
1.4858
1.48515
1.48502
1.48525
1.48638
1.4883
1.49024
1.49134
1.49142
1.49066
1.48912
1.48719
1.48465
1.48273
1.48194
1.48186
1.48216
1.48344
1.48582
1.48784
1.48835
1.48786
1.48627
1.48425
1.48195
1.48029
1.47956
1.47944
1.47959
1.48042
1.48198
1.48338
1.48383
1.48343
1.48224
1.4809
1.47924
1.47772
1.47683
1.47662
1.4768
1.47772
1.4793
1.48066
1.48102
1.4807
1.47988
1.47884
1.47721
1.47563
1.47484
1.47476
1.47506
1.47625
1.47825
1.47983
1.48024
1.47993
1.47901
1.4779
1.47641
1.47529
1.47495
1.47506
1.47543
1.47614
1.4773
1.47797
1.47788
1.4773
1.47639
1.47582
1.47578
1.47578
1.4758
1.47604
1.4765
1.47706
1.47743
1.47744
1.47704
1.4762
1.47546
1.47497
1.47458
1.47425
1.47478
2.25848
2.62035
2.62728
2.61941
2.61912
2.61747
2.61645
2.61396
2.61055
2.60823
2.60706
2.60543
2.6034
2.60157
2.59971
2.5961
2.5898
2.58198
2.57535
2.5715
2.57001
2.57016
2.57041
2.5682
2.56376
2.55917
2.55537
2.55297
2.55237
2.55249
2.55224
2.55049
2.548
2.54585
2.54481
2.54498
2.54582
2.54638
2.54531
2.54261
2.53897
2.53623
2.53497
2.53512
2.53585
2.53604
2.53592
2.53505
2.53301
2.53073
2.52844
2.52644
2.52485
2.52397
2.52357
2.52293
2.5219
2.5208
2.51984
2.51937
2.51969
2.52134
2.52319
2.52358
2.52342
2.52268
2.52095
2.51849
2.51615
2.51456
2.51426
1.4917
1.49426
1.49708
1.49802
1.49772
1.49652
1.49458
1.4916
1.48864
1.48756
1.48745
1.48783
1.48971
1.49305
1.49513
1.49531
1.49475
1.49345
1.49114
1.48849
1.48736
1.48721
1.48765
1.4895
1.49221
1.49352
1.49344
1.49263
1.49144
1.48977
1.48757
1.48624
1.48593
1.48592
1.48651
1.48812
1.48995
1.49079
1.49072
1.48999
1.48885
1.48736
1.48527
1.48404
1.48392
1.48405
1.48464
1.48621
1.48792
1.48827
1.48794
1.4867
1.48501
1.48378
1.48324
1.48314
1.4834
1.48419
1.48489
1.48505
1.48493
1.48415
1.48293
1.48176
1.48086
1.48057
1.48059
1.48111
1.48254
1.48416
1.48496
1.48512
1.48483
1.484
1.48342
1.48307
1.48262
1.48188
1.48118
1.48073
1.48032
1.4801
1.48017
1.48097
1.48258
1.48427
1.48528
1.48541
1.48486
1.48361
1.48251
1.48128
1.47984
1.47919
1.47907
1.47912
1.47976
1.48137
1.48333
1.48471
1.4851
1.48485
1.48403
1.48297
1.48166
1.47955
1.47737
1.47636
1.4761
1.47624
1.47731
1.47963
1.48174
1.48232
1.4819
1.48076
1.47927
1.47709
1.47472
1.47376
1.47362
1.47389
1.47496
1.47683
1.47827
1.47854
1.47797
1.47671
1.47531
1.47368
1.47201
1.47128
1.47113
1.47137
1.47248
1.47406
1.47501
1.47514
1.47463
1.47374
1.4729
1.47164
1.47039
1.46995
1.4699
1.4702
1.47144
1.4733
1.47441
1.47456
1.47408
1.47326
1.47242
1.47113
1.46971
1.4693
1.46938
1.46998
1.47123
1.47315
1.47474
1.47513
1.47462
1.47319
1.47128
1.46973
1.46912
1.46904
1.46911
1.46918
1.46931
1.46958
1.46978
1.46974
1.46919
1.46827
1.46777
1.46765
1.46768
1.46781
1.46818
1.46866
2.15225
2.6204
2.64281
2.6259
2.62088
2.61508
2.61058
2.60518
2.60037
2.59761
2.59631
2.59415
2.59062
2.58677
2.58261
2.57731
2.57136
2.56745
2.56582
2.56507
2.56429
2.56232
2.55957
2.55664
2.55457
2.55323
2.55186
2.55023
2.54881
2.54799
2.54726
2.54609
2.54412
2.54159
2.53937
2.53817
2.53804
2.53833
2.53859
2.53744
2.53449
2.53085
2.52822
2.52721
2.52748
2.52781
2.5271
2.52477
2.52177
2.51903
2.5169
2.51542
2.51446
2.51393
2.5136
2.51299
2.51158
2.50994
2.50875
2.50835
2.50872
2.50995
2.51117
2.51127
2.51027
2.50838
2.50564
2.50281
2.50076
2.4994
2.49914
1.49257
1.4948
1.49505
1.49448
1.49329
1.49117
1.48797
1.48545
1.48484
1.48478
1.48542
1.48788
1.49124
1.49251
1.49231
1.49154
1.49007
1.48755
1.48538
1.48484
1.48484
1.48574
1.48808
1.49028
1.49063
1.49007
1.48909
1.48768
1.4856
1.48376
1.4832
1.48311
1.48339
1.48479
1.48672
1.48773
1.48777
1.4873
1.48643
1.48531
1.48363
1.48168
1.4808
1.48072
1.48096
1.48226
1.48455
1.48622
1.48649
1.48605
1.48468
1.48263
1.48141
1.481
1.48086
1.48107
1.48167
1.48175
1.48159
1.48122
1.48062
1.47961
1.47825
1.47741
1.4772
1.47729
1.47808
1.47968
1.48067
1.48077
1.48066
1.48026
1.4795
1.47837
1.47732
1.47695
1.47697
1.47715
1.47714
1.4772
1.47768
1.47858
1.47975
1.48082
1.48138
1.48136
1.48086
1.47997
1.47882
1.47713
1.47553
1.47499
1.47497
1.47505
1.47589
1.47771
1.47968
1.48078
1.48091
1.48046
1.47962
1.47886
1.47782
1.47629
1.47474
1.47374
1.47325
1.47327
1.47397
1.47568
1.4774
1.47804
1.47773
1.47692
1.47599
1.47454
1.47234
1.47071
1.4703
1.47037
1.47115
1.47293
1.47461
1.47512
1.47483
1.47388
1.47252
1.47069
1.46891
1.46802
1.4678
1.46783
1.46867
1.4705
1.47174
1.47198
1.47162
1.47053
1.4692
1.46776
1.46672
1.4664
1.46641
1.46671
1.46789
1.46988
1.47112
1.47128
1.47078
1.46981
1.4689
1.46773
1.46648
1.46585
1.46579
1.46616
1.46734
1.46935
1.47125
1.47201
1.47188
1.47108
1.46977
1.46819
1.46636
1.46485
1.46425
1.46411
1.46437
1.46464
1.46471
1.46482
1.46483
1.46469
1.46429
1.464
1.46405
1.46434
1.46508
1.466
1.46721
1.46781
2.05481
2.61593
2.65375
2.63402
2.62526
2.61665
2.60986
2.60352
2.5985
2.59513
2.59193
2.5873
2.58221
2.57767
2.57249
2.56704
2.5632
2.56248
2.56379
2.56429
2.56176
2.55647
2.55009
2.54724
2.54766
2.54942
2.55088
2.55053
2.54775
2.54369
2.54149
2.54
2.53953
2.53951
2.53837
2.53616
2.53378
2.5319
2.53094
2.53088
2.53043
2.52837
2.52569
2.52351
2.52212
2.52095
2.51941
2.5175
2.51516
2.51272
2.51077
2.50932
2.50801
2.50678
2.50592
2.50561
2.50515
2.50386
2.50259
2.50168
2.50092
2.50024
2.49979
2.49956
2.49846
2.49632
2.4938
2.49149
2.48965
2.48824
2.48774
1.49285
1.49275
1.49201
1.49067
1.48826
1.48504
1.4833
1.48297
1.48301
1.48406
1.48703
1.49011
1.49072
1.49036
1.48942
1.48752
1.48481
1.48333
1.48311
1.4833
1.48467
1.48729
1.48879
1.48866
1.48788
1.48663
1.48463
1.48236
1.4813
1.48112
1.48111
1.48195
1.484
1.48585
1.48622
1.48585
1.48496
1.48378
1.4823
1.48059
1.47933
1.47895
1.47888
1.47934
1.48114
1.48355
1.48459
1.48447
1.48387
1.48268
1.48075
1.47907
1.47851
1.4783
1.47828
1.47864
1.47913
1.47903
1.47878
1.47834
1.47729
1.47592
1.47527
1.4751
1.47512
1.47575
1.47708
1.47767
1.47764
1.47756
1.47728
1.47637
1.47487
1.47391
1.47382
1.474
1.47431
1.47503
1.4761
1.47721
1.47798
1.47838
1.47843
1.47815
1.47774
1.47731
1.47669
1.47541
1.47355
1.47237
1.47212
1.47212
1.47275
1.47445
1.47659
1.47786
1.47802
1.47765
1.4769
1.47606
1.47491
1.4736
1.47262
1.472
1.47157
1.4715
1.47206
1.47342
1.47475
1.4752
1.47488
1.47416
1.47342
1.47242
1.47087
1.46914
1.46824
1.46804
1.46842
1.46987
1.47175
1.47263
1.47259
1.47198
1.47092
1.46932
1.46735
1.46597
1.46552
1.46539
1.46577
1.46741
1.46945
1.47014
1.47001
1.46926
1.46782
1.46583
1.46415
1.4636
1.46362
1.46385
1.46477
1.46673
1.46867
1.46919
1.46891
1.46809
1.46702
1.46565
1.46425
1.46352
1.46338
1.46351
1.46427
1.46595
1.4679
1.46893
1.46899
1.46869
1.46812
1.4672
1.46565
1.4638
1.46264
1.4622
1.46201
1.46205
1.46247
1.46265
1.4627
1.46271
1.46263
1.46241
1.46241
1.46273
1.46354
1.46451
1.4652
1.46547
1.46559
1.46543
1.97656
2.60672
2.66107
2.64104
2.63079
2.62084
2.61294
2.606
2.60016
2.59578
2.59138
2.58526
2.57878
2.57397
2.57002
2.56515
2.56248
2.56215
2.5633
2.56287
2.56001
2.55411
2.54685
2.54359
2.54302
2.5457
2.54973
2.54983
2.54702
2.54133
2.5362
2.53404
2.53415
2.53643
2.53775
2.53565
2.53139
2.52681
2.5239
2.523
2.52424
2.52541
2.52435
2.52125
2.51767
2.5145
2.51195
2.51055
2.50995
2.50872
2.50641
2.50372
2.50066
2.49776
2.49585
2.49545
2.49643
2.49725
2.49647
2.49446
2.4918
2.48924
2.48705
2.48579
2.48525
2.48425
2.4824
2.48043
2.4787
2.47728
2.476
1.49108
1.4902
1.48856
1.48579
1.483
1.48192
1.48172
1.48193
1.48346
1.48672
1.48917
1.48939
1.489
1.48806
1.48604
1.48328
1.48205
1.48191
1.48228
1.48393
1.48652
1.48751
1.48731
1.48658
1.48519
1.48274
1.48049
1.47979
1.47962
1.47983
1.48132
1.4838
1.48517
1.48516
1.48458
1.48345
1.48182
1.47983
1.47827
1.47765
1.47746
1.47747
1.47841
1.48065
1.48261
1.48289
1.48254
1.48182
1.48065
1.47873
1.47676
1.47608
1.47591
1.47591
1.47647
1.47727
1.47737
1.47718
1.47671
1.47576
1.47471
1.47422
1.47398
1.47392
1.47435
1.47532
1.47571
1.47566
1.47552
1.47517
1.47418
1.47281
1.47211
1.47202
1.47217
1.47297
1.47431
1.47581
1.47673
1.47689
1.47663
1.476
1.47544
1.47507
1.4746
1.47383
1.47262
1.47138
1.4707
1.47052
1.47077
1.4719
1.47387
1.47541
1.47575
1.47559
1.47509
1.4743
1.47301
1.4716
1.47083
1.47054
1.47032
1.4703
1.47092
1.47216
1.47328
1.47358
1.4733
1.47247
1.47159
1.47064
1.46943
1.46806
1.46711
1.4667
1.4667
1.46754
1.46935
1.47074
1.47097
1.4706
1.46969
1.46833
1.46647
1.46481
1.46412
1.46392
1.46391
1.46476
1.46687
1.46867
1.4689
1.4685
1.46755
1.46579
1.46331
1.46182
1.46162
1.46169
1.46217
1.46366
1.466
1.46736
1.46741
1.46695
1.4661
1.46474
1.46303
1.46195
1.46173
1.46174
1.46211
1.46329
1.4651
1.46637
1.46663
1.46649
1.46616
1.4656
1.46463
1.46325
1.4621
1.46157
1.46124
1.46114
1.46137
1.46194
1.46231
1.46232
1.46228
1.46215
1.46213
1.4623
1.46272