/*--------------------------------*- C++ -*----------------------------------*\
  =========                 |
  \\      /  F ield         | OpenFOAM: The Open Source CFD Toolbox
   \\    /   O peration     | Website:  https://openfoam.org
    \\  /    A nd           | Version:  7
     \\/     M anipulation  |
\*---------------------------------------------------------------------------*/
FoamFile
{
    version     2.0;
    format      ascii;
    class       volVectorField;
    location    "3.3";
    object      U;
}
// * * * * * * * * * * * * * * * * * * * * * * * * * * * * * * * * * * * * * //

dimensions      [0 1 -1 0 0 0 0];

internalField   nonuniform List<vector> 
16512
(
(3 1.52915e-16 0)
(3 -4.0238e-16 0)
(3 -4.42565e-16 0)
(3 -5.9162e-16 0)
(3 -7.39015e-16 0)
(3 -8.57595e-16 0)
(3 -7.75934e-16 0)
(3 -5.83889e-16 0)
(3 -4.71152e-16 0)
(3 -4.75036e-16 0)
(3 -6.80443e-16 0)
(3 -4.92387e-16 0)
(3 2.96046e-16 0)
(3 9.22763e-17 0)
(3 9.98447e-17 0)
(3 -3.20295e-17 0)
(3 -1.86278e-16 0)
(3 -7.60684e-16 0)
(3 -1.54475e-15 0)
(3 -1.8358e-15 0)
(3 -1.41801e-15 0)
(3 -9.10318e-16 0)
(3 -2.81251e-16 0)
(3 -5.98735e-16 0)
(3 -5.14321e-16 0)
(3 -7.95006e-17 0)
(3 7.67817e-17 0)
(3 -4.8511e-16 0)
(3 -2.33976e-16 0)
(3 2.56018e-16 0)
(3 5.98816e-16 0)
(3 -5.17182e-16 0)
(3 -5.36314e-16 0)
(3 8.72677e-17 0)
(3 1.4046e-16 0)
(2.8981 0.00323414 0)
(0.987242 0.016036 0)
(0.709698 0.0194401 0)
(0.657853 0.0242314 0)
(0.597931 0.0256491 0)
(0.538939 0.0268259 0)
(0.478146 0.0281356 0)
(0.415605 0.0296188 0)
(0.350665 0.0314023 0)
(0.282818 0.0333915 0)
(0.210478 0.0364263 0)
(0.131898 0.0390712 0)
(0.0493932 0.0445342 0)
(3 2.95442e-16 0)
(3 1.5305e-16 0)
(3 2.23355e-17 0)
(3 -4.56701e-16 0)
(3 -5.04834e-16 0)
(3 -8.37056e-16 0)
(3 -1.12908e-15 0)
(3 -7.27616e-16 0)
(3 -2.67486e-16 0)
(3 -1.96181e-16 0)
(3 -1.72281e-16 0)
(3 1.41971e-16 0)
(3 7.25392e-16 0)
(3 7.77251e-16 0)
(3 4.57048e-16 0)
(3 -5.94194e-17 0)
(3 -6.58077e-16 0)
(3 -1.90278e-15 0)
(3 -2.64613e-15 0)
(3 -2.76876e-15 0)
(3 -1.86567e-15 0)
(3 -2.98319e-16 0)
(3 6.16778e-16 0)
(3 -1.47269e-16 0)
(3 -6.73975e-16 0)
(3 -5.6913e-16 0)
(3 -3.32291e-16 0)
(3 -3.98563e-16 0)
(3 -2.85389e-17 0)
(3 6.49194e-16 0)
(3 6.57103e-16 0)
(3 3.17273e-16 0)
(3 2.5745e-16 0)
(3 8.17288e-16 0)
(3 1.04476e-15 0)
(2.90799 0.0203336 0)
(0.99292 0.0742867 0)
(0.695291 0.0667693 0)
(0.64119 0.0708014 0)
(0.582485 0.075296 0)
(0.523805 0.0796948 0)
(0.462799 0.0843313 0)
(0.399751 0.0890731 0)
(0.334554 0.0945845 0)
(0.267256 0.100527 0)
(0.197247 0.110156 0)
(0.122107 0.11878 0)
(0.0459284 0.134496 0)
(3 2.56548e-16 0)
(3 5.83917e-16 0)
(3 4.90281e-16 0)
(3 2.96135e-16 0)
(3 3.76213e-16 0)
(3 -2.85859e-16 0)
(3 -1.04372e-15 0)
(3 -5.99642e-16 0)
(3 -8.90974e-17 0)
(3 -1.13355e-16 0)
(3 5.78783e-18 0)
(3 1.25331e-16 0)
(3 1.14613e-17 0)
(3 4.17396e-16 0)
(3 -2.93546e-17 0)
(3 5.84285e-17 0)
(3 -4.0631e-18 0)
(3 -9.17059e-16 0)
(3 -1.86195e-15 0)
(3 -1.84584e-15 0)
(3 -1.76284e-15 0)
(3 -1.3656e-15 0)
(3 -8.29183e-16 0)
(3 -1.02095e-15 0)
(3 -1.24212e-15 0)
(3 -1.28492e-15 0)
(3 -9.7687e-16 0)
(3 -6.52691e-16 0)
(3 -4.56681e-16 0)
(3 -7.00489e-16 0)
(3 -8.33715e-16 0)
(3 -7.49186e-16 0)
(3 -7.75969e-16 0)
(3 -7.29778e-16 0)
(3 -9.9631e-16 0)
(2.95238 0.0419898 0)
(1.03041 0.138072 0)
(0.71069 0.116072 0)
(0.656273 0.122417 0)
(0.595569 0.129783 0)
(0.534762 0.137331 0)
(0.4716 0.145367 0)
(0.405978 0.153312 0)
(0.33769 0.161997 0)
(0.266794 0.170087 0)
(0.194265 0.183479 0)
(0.117594 0.194968 0)
(0.0437609 0.217275 0)
(3 -1.92506e-16 0)
(3 -2.43914e-16 0)
(3 2.26346e-16 0)
(3 2.99426e-16 0)
(3 -3.90138e-17 0)
(3 -1.01185e-16 0)
(3 1.37806e-16 0)
(3 -5.15268e-16 0)
(3 -7.69647e-16 0)
(3 -6.00707e-16 0)
(3 -6.323e-16 0)
(3 -6.92217e-16 0)
(3 -4.63707e-16 0)
(3 9.01632e-17 0)
(3 1.78097e-16 0)
(3 1.71449e-16 0)
(3 -6.40431e-17 0)
(3 -3.74955e-16 0)
(3 -4.45226e-16 0)
(3 -2.44835e-16 0)
(3 -4.62583e-16 0)
(3 -1.28999e-15 0)
(3 -2.25863e-15 0)
(3 -3.0451e-15 0)
(3 -2.93803e-15 0)
(3 -1.97567e-15 0)
(3 -1.3734e-15 0)
(3 -1.28312e-15 0)
(3 -1.35557e-15 0)
(3 -2.08465e-15 0)
(3 -2.44614e-15 0)
(3 -2.53408e-15 0)
(3 -2.99375e-15 0)
(3 -3.46829e-15 0)
(3 -3.20161e-15 0)
(3.00879 0.00663901 0)
(1.10568 0.182554 0)
(0.744031 0.152674 0)
(0.692589 0.166444 0)
(0.63304 0.178387 0)
(0.571951 0.189961 0)
(0.508118 0.202738 0)
(0.440518 0.216023 0)
(0.368331 0.231066 0)
(0.290885 0.244276 0)
(0.211175 0.262685 0)
(0.126832 0.27679 0)
(0.0459003 0.302187 0)
(3 4.62455e-17 0)
(3 -1.10625e-16 0)
(3 2.6238e-16 0)
(3 1.81016e-16 0)
(3 -7.58236e-17 0)
(3 1.73228e-16 0)
(3 4.31485e-16 0)
(3 1.15417e-17 0)
(3 -2.38363e-16 0)
(3 -5.51888e-17 0)
(3 2.36646e-17 0)
(3 2.64259e-17 0)
(3 -6.11316e-16 0)
(3 -5.76634e-16 0)
(3 -3.55652e-16 0)
(3 -4.29544e-16 0)
(3 -3.54624e-16 0)
(3 7.25283e-18 0)
(3 7.47613e-16 0)
(3 1.25685e-15 0)
(3 2.3287e-16 0)
(3 -1.13825e-15 0)
(3 -3.31283e-15 0)
(3 -2.94431e-15 0)
(3 -2.65325e-15 0)
(3 -1.38411e-15 0)
(3 -9.97272e-16 0)
(3 -1.15551e-15 0)
(3 -1.21144e-15 0)
(3 -1.33542e-15 0)
(3 -2.23472e-15 0)
(3 -2.88507e-15 0)
(3 -3.49143e-15 0)
(3 -3.70141e-15 0)
(3 -3.64207e-15 0)
(3.00064 3.29089e-05 0)
(1.21338 0.224528 0)
(0.750412 0.197195 0)
(0.696113 0.217874 0)
(0.639909 0.234326 0)
(0.581416 0.249302 0)
(0.521034 0.266793 0)
(0.457156 0.285622 0)
(0.389284 0.307296 0)
(0.314629 0.32535 0)
(0.235582 0.348401 0)
(0.145519 0.367523 0)
(0.0549603 0.399098 0)
(3 -1.87387e-17 0)
(3 9.76035e-17 0)
(3 9.83356e-17 0)
(3 -1.24375e-16 0)
(3 2.6181e-18 0)
(3 -3.83856e-16 0)
(3 2.87164e-17 0)
(3 2.73475e-16 0)
(3 6.22338e-16 0)
(3 6.32155e-16 0)
(3 6.39811e-16 0)
(3 -3.80775e-17 0)
(3 -7.30594e-16 0)
(3 -1.9668e-15 0)
(3 -1.79678e-15 0)
(3 -1.41011e-15 0)
(3 -5.70209e-16 0)
(3 5.4635e-16 0)
(3 8.72745e-16 0)
(3 8.04122e-16 0)
(3 4.15495e-16 0)
(3 -2.99741e-16 0)
(3 -1.9447e-15 0)
(3 -1.28238e-15 0)
(3 -5.51859e-16 0)
(3 -4.22698e-16 0)
(3 -6.18497e-16 0)
(3 -3.30971e-16 0)
(3 -7.00108e-16 0)
(3 -1.07552e-15 0)
(3 -1.53746e-15 0)
(3 -2.47467e-15 0)
(3 -2.08026e-15 0)
(3 -1.78824e-15 0)
(3 -2.05245e-15 0)
(3 -1.33099e-07 0)
(1.39223 0.2747 0)
(0.765561 0.245279 0)
(0.697387 0.262 0)
(0.648442 0.281262 0)
(0.598229 0.298935 0)
(0.547721 0.320307 0)
(0.492295 0.344511 0)
(0.430489 0.374937 0)
(0.355208 0.405268 0)
(0.268295 0.442924 0)
(0.166188 0.478044 0)
(0.0561542 0.516908 0)
(3 -9.00324e-17 0)
(3 -2.5619e-16 0)
(3 -1.73716e-16 0)
(3 -1.99769e-17 0)
(3 1.06481e-16 0)
(3 1.32108e-16 0)
(3 1.3307e-16 0)
(3 3.8282e-17 0)
(3 3.72685e-16 0)
(3 3.97913e-16 0)
(3 3.97057e-16 0)
(3 1.63865e-16 0)
(3 -5.34681e-16 0)
(3 -9.58207e-16 0)
(3 -1.04185e-15 0)
(3 -1.18596e-15 0)
(3 -3.79265e-16 0)
(3 1.68108e-16 0)
(3 5.93405e-16 0)
(3 3.08746e-16 0)
(3 -1.16676e-16 0)
(3 -3.10291e-16 0)
(3 -2.44788e-16 0)
(3 -1.78539e-16 0)
(3 3.05809e-16 0)
(3 4.01122e-16 0)
(3 2.37857e-16 0)
(3 7.33203e-16 0)
(3 -1.35495e-17 0)
(3 -6.68583e-16 0)
(3 -9.92261e-16 0)
(3 -1.15607e-15 0)
(3 -6.16886e-16 0)
(3 -4.51731e-16 0)
(3 -5.00819e-16 0)
(3 -1.33098e-07 0)
(1.66551 0.325914 0)
(0.795753 0.309013 0)
(0.696836 0.308561 0)
(0.646172 0.325311 0)
(0.598205 0.343678 0)
(0.554844 0.369908 0)
(0.508466 0.402302 0)
(0.45907 0.444865 0)
(0.397781 0.491973 0)
(0.326487 0.54358 0)
(0.233285 0.59434 0)
(0.101355 0.659744 0)
(3 3.40919e-16 0)
(3 4.72397e-16 0)
(3 -4.84706e-17 0)
(3 7.71607e-17 0)
(3 4.40127e-16 0)
(3 7.67342e-16 0)
(3 2.80013e-16 0)
(3 2.93922e-16 0)
(3 1.99096e-16 0)
(3 -2.18837e-16 0)
(3 -3.21185e-16 0)
(3 1.88924e-16 0)
(3 9.38945e-17 0)
(3 -1.96581e-16 0)
(3 -9.10677e-16 0)
(3 -8.63621e-16 0)
(3 -6.7177e-16 0)
(3 -5.22153e-16 0)
(3 9.91342e-17 0)
(3 -8.08055e-17 0)
(3 -7.28887e-16 0)
(3 -4.99401e-17 0)
(3 1.30338e-15 0)
(3 6.56579e-16 0)
(3 4.23085e-16 0)
(3 1.02824e-15 0)
(3 1.61627e-15 0)
(3 1.0537e-15 0)
(3 3.2889e-16 0)
(3 2.92323e-16 0)
(3 4.88984e-17 0)
(3 -2.67011e-16 0)
(3 -6.81988e-16 0)
(3 -8.23324e-16 0)
(3 -3.57953e-16 0)
(3 -2.76826e-08 0)
(2.06762 0.36781 0)
(0.851628 0.394148 0)
(0.716686 0.369992 0)
(0.667132 0.37905 0)
(0.620311 0.392395 0)
(0.579682 0.41677 0)
(0.540602 0.452262 0)
(0.502055 0.50115 0)
(0.457679 0.560475 0)
(0.395514 0.641551 0)
(0.274647 0.757148 0)
(0.151047 0.922966 0)
(3 7.74693e-18 0)
(3 6.75538e-18 0)
(3 -4.6391e-16 0)
(3 -4.30249e-16 0)
(3 -6.96765e-17 0)
(3 3.85582e-16 0)
(3 5.01328e-16 0)
(3 8.67539e-16 0)
(3 4.47412e-16 0)
(3 1.96195e-16 0)
(3 4.60127e-17 0)
(3 4.18657e-17 0)
(3 4.52753e-16 0)
(3 2.20952e-16 0)
(3 -2.31301e-16 0)
(3 -5.43883e-16 0)
(3 -4.50823e-16 0)
(3 -4.65161e-16 0)
(3 -7.92888e-16 0)
(3 -1.08771e-15 0)
(3 -1.46261e-15 0)
(3 -1.32299e-15 0)
(3 -2.87929e-16 0)
(3 2.29174e-16 0)
(3 5.01741e-16 0)
(3 3.3266e-16 0)
(3 3.36869e-16 0)
(3 -6.94927e-16 0)
(3 -8.12409e-16 0)
(3 4.56979e-16 0)
(3 4.94642e-16 0)
(3 2.40235e-16 0)
(3 -1.25853e-16 0)
(3 2.19545e-16 0)
(3 3.27458e-16 0)
(3 -2.84666e-09 0)
(2.65114 0.304943 0)
(0.98298 0.477873 0)
(0.80308 0.406217 0)
(0.751442 0.414788 0)
(0.693987 0.433327 0)
(0.642682 0.459568 0)
(0.599927 0.496789 0)
(0.563614 0.55009 0)
(0.529685 0.626908 0)
(0.496869 0.751121 0)
(0.46465 0.922852 0)
(0.577297 1.20073 0)
(3 -8.16815e-17 0)
(3 -3.36386e-16 0)
(3 -3.23548e-16 0)
(3 -6.14223e-16 0)
(3 -7.07551e-16 0)
(3 -3.56991e-16 0)
(3 2.80386e-16 0)
(3 3.95297e-16 0)
(3 1.7751e-16 0)
(3 6.40967e-17 0)
(3 3.26763e-16 0)
(3 3.16385e-16 0)
(3 9.20306e-16 0)
(3 1.38923e-15 0)
(3 1.62077e-15 0)
(3 2.55743e-16 0)
(3 -8.60139e-17 0)
(3 -4.06916e-16 0)
(3 -1.21254e-15 0)
(3 -1.11038e-15 0)
(3 -1.24621e-15 0)
(3 -1.28118e-15 0)
(3 -1.19469e-15 0)
(3 -2.88669e-16 0)
(3 2.01392e-17 0)
(3 -5.81823e-16 0)
(3 -1.24638e-15 0)
(3 -2.23404e-15 0)
(3 -2.08881e-15 0)
(3 -1.05247e-15 0)
(3 -2.59437e-16 0)
(3 4.13641e-17 0)
(3 -3.33709e-16 0)
(3 -3.0895e-16 0)
(3 -4.98797e-16 0)
(3 -1.13048e-10 0)
(3.07708 0.0435149 0)
(1.21767 0.469562 0)
(0.882243 0.44732 0)
(0.838742 0.47374 0)
(0.78524 0.489674 0)
(0.730972 0.511212 0)
(0.682693 0.544846 0)
(0.643816 0.59707 0)
(0.624249 0.681689 0)
(0.62318 0.816853 0)
(0.686066 0.966298 0)
(0.971261 1.13803 0)
(3 -1.35031e-17 0)
(3 2.58449e-16 0)
(3 5.84654e-16 0)
(3 7.47848e-16 0)
(3 6.06004e-16 0)
(3 5.22334e-16 0)
(3 4.51366e-16 0)
(3 3.93108e-16 0)
(3 4.89233e-16 0)
(3 1.07736e-16 0)
(3 1.52457e-16 0)
(3 3.63417e-16 0)
(3 5.62218e-16 0)
(3 1.30831e-15 0)
(3 9.62598e-16 0)
(3 5.81911e-16 0)
(3 -2.60521e-16 0)
(3 -1.51717e-15 0)
(3 -1.57985e-15 0)
(3 -9.99117e-16 0)
(3 -8.59354e-16 0)
(3 -1.23862e-15 0)
(3 -1.57514e-15 0)
(3 -1.11448e-15 0)
(3 -7.13808e-16 0)
(3 -6.36957e-16 0)
(3 -1.3251e-15 0)
(3 -1.25176e-15 0)
(3 -1.16919e-15 0)
(3 -1.44242e-15 0)
(3 -1.38793e-15 0)
(3 -1.08562e-15 0)
(3 -1.1538e-15 0)
(3 -1.24884e-15 0)
(3 -1.00543e-15 0)
(3 -2.31697e-12 0)
(3.00884 8.6426e-05 0)
(1.43374 0.462116 0)
(0.884485 0.511972 0)
(0.836843 0.531388 0)
(0.801057 0.550903 0)
(0.772554 0.57557 0)
(0.745029 0.607749 0)
(0.720423 0.651894 0)
(0.72312 0.725816 0)
(0.750875 0.840238 0)
(0.872751 0.964547 0)
(1.18158 1.0677 0)
(3 -1.1963e-16 0)
(3 5.70181e-18 0)
(3 6.16184e-16 0)
(3 8.90991e-16 0)
(3 1.1465e-15 0)
(3 7.35999e-16 0)
(3 6.30329e-16 0)
(3 6.17093e-16 0)
(3 3.04392e-16 0)
(3 2.20781e-16 0)
(3 8.0327e-17 0)
(3 -7.12364e-17 0)
(3 6.73736e-16 0)
(3 9.22259e-16 0)
(3 7.10596e-16 0)
(3 6.42062e-16 0)
(3 1.88052e-16 0)
(3 -1.35153e-16 0)
(3 -3.64789e-16 0)
(3 -1.24348e-15 0)
(3 -1.02096e-15 0)
(3 -7.37665e-16 0)
(3 -1.21446e-15 0)
(3 -1.2766e-15 0)
(3 -1.21202e-15 0)
(3 -1.06923e-15 0)
(3 -9.42777e-16 0)
(3 -7.16775e-16 0)
(3 -7.95433e-16 0)
(3 -1.10603e-15 0)
(3 -1.64272e-15 0)
(3 -1.46001e-15 0)
(3 -1.45233e-15 0)
(3 -1.58454e-15 0)
(3 -1.06407e-15 0)
(3 -2.04105e-14 0)
(3.00006 -2.59656e-06 0)
(1.93856 0.49431 0)
(0.928753 0.576228 0)
(0.853428 0.56031 0)
(0.833962 0.582063 0)
(0.81954 0.607618 0)
(0.809478 0.642243 0)
(0.801771 0.682804 0)
(0.817332 0.746416 0)
(0.866736 0.837833 0)
(1.01017 0.940328 0)
(1.27903 1.00483 0)
(3 1.41069e-16 0)
(3 2.10524e-16 0)
(3 2.94255e-16 0)
(3 4.37901e-16 0)
(3 4.72784e-16 0)
(3 3.84849e-16 0)
(3 4.34172e-16 0)
(3 4.59245e-16 0)
(3 3.38456e-16 0)
(3 1.86563e-16 0)
(3 -2.937e-16 0)
(3 -4.25184e-16 0)
(3 -1.25484e-16 0)
(3 6.70443e-17 0)
(3 4.04178e-17 0)
(3 1.27174e-16 0)
(3 -2.7118e-16 0)
(3 -2.75721e-16 0)
(3 -3.99996e-16 0)
(3 -4.78807e-16 0)
(3 2.47287e-16 0)
(3 5.01147e-16 0)
(3 -8.53319e-16 0)
(3 -1.35714e-15 0)
(3 -1.25657e-15 0)
(3 -1.39826e-15 0)
(3 -1.13202e-15 0)
(3 -8.31636e-16 0)
(3 -1.00724e-15 0)
(3 -1.41546e-15 0)
(3 -1.24595e-15 0)
(3 -1.5775e-15 0)
(3 -2.19475e-15 0)
(3 -2.09401e-15 0)
(3 -1.37984e-15 0)
(3 -1.01639e-15 0)
(3.00001 -3.29643e-06 0)
(2.74232 0.321552 0)
(1.09505 0.635086 0)
(0.920023 0.581136 0)
(0.890925 0.601974 0)
(0.873378 0.630849 0)
(0.869736 0.669035 0)
(0.876228 0.711112 0)
(0.901365 0.765726 0)
(0.966345 0.835104 0)
(1.10529 0.906611 0)
(1.32288 0.945965 0)
(3 4.88969e-17 0)
(3 2.70602e-16 0)
(3 1.19457e-16 0)
(3 8.71219e-17 0)
(3 -1.49426e-16 0)
(3 -4.5816e-16 0)
(3 -8.86825e-16 0)
(3 -1.10367e-15 0)
(3 -8.57996e-16 0)
(3 -6.4377e-16 0)
(3 -2.6534e-16 0)
(3 -3.98946e-16 0)
(3 -1.36629e-15 0)
(3 -1.71551e-15 0)
(3 -1.17777e-15 0)
(3 3.08434e-17 0)
(3 4.27078e-16 0)
(3 1.11777e-16 0)
(3 -5.5184e-16 0)
(3 -1.36334e-16 0)
(3 8.11184e-16 0)
(3 9.94237e-16 0)
(3 5.56436e-16 0)
(3 2.71242e-16 0)
(3 -1.46589e-16 0)
(3 -8.4445e-16 0)
(3 -9.10319e-16 0)
(3 -1.02282e-15 0)
(3 -1.39931e-15 0)
(3 -2.10367e-15 0)
(3 -1.92377e-15 0)
(3 -2.19136e-15 0)
(3 -1.62284e-15 0)
(3 -8.18299e-16 0)
(3 -5.35882e-16 0)
(3 -7.77482e-16 0)
(3 -6.95636e-07 0)
(3.07494 0.0265974 0)
(1.43494 0.63229 0)
(1.00229 0.652054 0)
(0.95076 0.651999 0)
(0.924955 0.666469 0)
(0.923077 0.693976 0)
(0.939245 0.730228 0)
(0.97434 0.773641 0)
(1.04771 0.827606 0)
(1.17478 0.879324 0)
(1.34853 0.906566 0)
(3 -1.19394e-16 0)
(3 -2.08507e-16 0)
(3 -6.22458e-16 0)
(3 -9.62027e-16 0)
(3 -1.04922e-15 0)
(3 -1.41317e-15 0)
(3 -1.64859e-15 0)
(3 -1.79388e-15 0)
(3 -1.47725e-15 0)
(3 -8.54127e-16 0)
(3 -2.05783e-16 0)
(3 -3.10825e-16 0)
(3 -3.65799e-16 0)
(3 -9.00122e-17 0)
(3 6.65232e-17 0)
(3 -1.72933e-17 0)
(3 5.34986e-16 0)
(3 1.18359e-15 0)
(3 6.85851e-16 0)
(3 8.02369e-16 0)
(3 1.27391e-15 0)
(3 1.75434e-15 0)
(3 2.20917e-15 0)
(3 9.41992e-16 0)
(3 -4.17573e-16 0)
(3 -1.02726e-15 0)
(3 -7.50333e-16 0)
(3 -1.35841e-15 0)
(3 -2.03999e-15 0)
(3 -2.0485e-15 0)
(3 -2.22386e-15 0)
(3 -1.67979e-15 0)
(3 -9.56262e-16 0)
(3 -6.70064e-16 0)
(3 -6.7203e-16 0)
(3 -9.92239e-16 0)
(3 -7.05926e-08 0)
(3.00423 7.60163e-05 0)
(1.98602 0.600268 0)
(1.06355 0.724167 0)
(1.01121 0.702073 0)
(0.994943 0.699395 0)
(0.991294 0.715461 0)
(1.00594 0.742137 0)
(1.04413 0.777982 0)
(1.11489 0.816464 0)
(1.22273 0.850001 0)
(1.35983 0.866757 0)
(3 5.11022e-17 0)
(3 -2.53596e-16 0)
(3 -4.02317e-16 0)
(3 -4.85559e-16 0)
(3 -7.91441e-16 0)
(3 -1.14421e-15 0)
(3 -6.23426e-16 0)
(3 -3.1484e-17 0)
(3 -1.21101e-16 0)
(3 -1.69813e-16 0)
(3 -9.44591e-17 0)
(3 2.5137e-17 0)
(3 6.3813e-16 0)
(3 1.13544e-15 0)
(3 1.40232e-15 0)
(3 6.88091e-16 0)
(3 6.38049e-16 0)
(3 1.00394e-15 0)
(3 1.70951e-15 0)
(3 1.81317e-15 0)
(3 1.77946e-15 0)
(3 2.07248e-15 0)
(3 1.82646e-15 0)
(3 1.71892e-16 0)
(3 -4.3779e-16 0)
(3 -5.67543e-16 0)
(3 -9.60347e-16 0)
(3 -1.06643e-15 0)
(3 -9.90611e-16 0)
(3 -1.04089e-15 0)
(3 -1.23502e-15 0)
(3 -9.00834e-16 0)
(3 -3.77853e-16 0)
(3 -5.31324e-16 0)
(3 -6.73141e-16 0)
(3 -1.21435e-15 0)
(3 -2.23395e-09 0)
(3.00001 -3.34718e-07 0)
(2.92956 0.223842 0)
(1.28053 0.698386 0)
(1.08254 0.719433 0)
(1.08718 0.720678 0)
(1.08163 0.740785 0)
(1.08673 0.762241 0)
(1.1146 0.788372 0)
(1.17549 0.817473 0)
(1.26493 0.839906 0)
(1.37693 0.84912 0)
(3 2.53206e-17 0)
(3 -2.40012e-16 0)
(3 -2.31028e-16 0)
(3 -2.05869e-16 0)
(3 -8.25266e-16 0)
(3 -9.17054e-16 0)
(3 -8.91478e-16 0)
(3 -6.28848e-16 0)
(3 -1.7494e-16 0)
(3 -8.49986e-17 0)
(3 -1.60017e-16 0)
(3 1.87159e-16 0)
(3 3.32644e-16 0)
(3 5.17602e-16 0)
(3 7.20672e-16 0)
(3 1.17284e-15 0)
(3 1.33623e-15 0)
(3 1.48119e-15 0)
(3 2.00983e-15 0)
(3 1.92753e-15 0)
(3 2.03557e-15 0)
(3 1.6996e-15 0)
(3 5.46827e-16 0)
(3 2.95772e-16 0)
(3 5.8303e-16 0)
(3 5.4659e-16 0)
(3 -4.9053e-16 0)
(3 -2.88088e-16 0)
(3 3.58724e-16 0)
(3 9.79795e-17 0)
(3 -4.41157e-16 0)
(3 -2.91898e-16 0)
(3 -1.19174e-16 0)
(3 -1.39942e-16 0)
(3 -2.15015e-16 0)
(3 -3.29241e-16 0)
(3 -4.94898e-12 0)
(3 -8.13312e-07 0)
(3.04163 0.00662165 0)
(1.5713 0.660094 0)
(1.10024 0.756487 0)
(1.11163 0.765574 0)
(1.11737 0.783483 0)
(1.13986 0.795426 0)
(1.1737 0.80627 0)
(1.22828 0.81777 0)
(1.30291 0.828641 0)
(1.39757 0.831296 0)
(3 -1.74045e-16 0)
(3 9.46744e-17 0)
(3 4.2128e-16 0)
(3 7.00145e-17 0)
(3 8.73735e-17 0)
(3 6.38359e-16 0)
(3 4.28461e-16 0)
(3 9.12835e-17 0)
(3 -1.213e-15 0)
(3 -1.14665e-15 0)
(3 -8.2597e-16 0)
(3 1.00012e-16 0)
(3 3.92713e-16 0)
(3 6.12093e-16 0)
(3 5.57097e-16 0)
(3 1.26276e-15 0)
(3 1.11008e-15 0)
(3 9.89812e-16 0)
(3 1.02981e-15 0)
(3 1.48731e-15 0)
(3 1.18086e-15 0)
(3 4.24927e-16 0)
(3 1.29282e-16 0)
(3 6.16284e-16 0)
(3 6.75685e-16 0)
(3 7.97212e-16 0)
(3 3.10656e-16 0)
(3 -6.28466e-16 0)
(3 -3.29762e-16 0)
(3 4.31027e-17 0)
(3 -5.14529e-17 0)
(3 -6.31367e-16 0)
(3 -1.21853e-15 0)
(3 -1.05877e-15 0)
(3 -9.01197e-16 0)
(3 6.94559e-16 0)
(3 -4.62145e-15 0)
(3 -1.55762e-07 0)
(3.00081 3.71816e-05 0)
(2.38602 0.512249 0)
(1.20531 0.789304 0)
(1.13575 0.792121 0)
(1.14913 0.795862 0)
(1.17719 0.805766 0)
(1.21725 0.81726 0)
(1.27025 0.827964 0)
(1.33781 0.834944 0)
(1.41938 0.833212 0)
(3 -3.42222e-16 0)
(3 -8.30558e-17 0)
(3 2.76516e-16 0)
(3 6.77954e-16 0)
(3 9.11953e-16 0)
(3 8.87221e-16 0)
(3 1.08444e-15 0)
(3 7.46897e-16 0)
(3 -1.88366e-16 0)
(3 -5.47233e-16 0)
(3 -4.09785e-16 0)
(3 -1.9791e-16 0)
(3 2.89912e-16 0)
(3 9.61015e-16 0)
(3 1.29483e-15 0)
(3 1.2045e-15 0)
(3 4.50124e-16 0)
(3 5.00991e-16 0)
(3 6.89761e-16 0)
(3 9.33639e-16 0)
(3 8.90765e-16 0)
(3 1.13195e-15 0)
(3 1.37915e-15 0)
(3 1.19478e-15 0)
(3 1.16263e-15 0)
(3 1.44682e-15 0)
(3 1.28758e-15 0)
(3 1.08988e-15 0)
(3 8.11878e-16 0)
(3 8.28304e-16 0)
(3 1.01784e-15 0)
(3 7.23546e-16 0)
(3 2.52538e-16 0)
(3 -3.70252e-16 0)
(3 -4.32069e-16 0)
(3 6.78306e-16 0)
(3 9.78263e-16 0)
(3 -4.86636e-09 0)
(3.00002 -5.21021e-06 0)
(3.05746 0.0731422 0)
(1.56598 0.776877 0)
(1.18526 0.786223 0)
(1.19871 0.794096 0)
(1.22179 0.806585 0)
(1.25985 0.818126 0)
(1.30928 0.827907 0)
(1.37128 0.832377 0)
(1.44334 0.829822 0)
(3 9.90557e-17 0)
(3 1.04437e-16 0)
(3 -2.98986e-16 0)
(3 -1.56709e-16 0)
(3 -3.21094e-16 0)
(3 -3.80179e-16 0)
(3 -5.11978e-16 0)
(3 -5.54198e-16 0)
(3 3.04156e-16 0)
(3 4.63993e-16 0)
(3 3.84559e-16 0)
(3 -5.42576e-16 0)
(3 -5.65711e-16 0)
(3 1.0559e-16 0)
(3 8.92741e-16 0)
(3 7.76217e-16 0)
(3 8.05443e-16 0)
(3 3.8058e-16 0)
(3 2.11818e-16 0)
(3 -1.39293e-16 0)
(3 2.40359e-16 0)
(3 8.86428e-16 0)
(3 1.69855e-15 0)
(3 2.54564e-15 0)
(3 2.01959e-15 0)
(3 1.64621e-15 0)
(3 1.58969e-15 0)
(3 1.42769e-15 0)
(3 1.20912e-15 0)
(3 6.83215e-16 0)
(3 6.5043e-16 0)
(3 9.49498e-16 0)
(3 2.0265e-15 0)
(3 6.04636e-16 0)
(3 -2.58973e-16 0)
(3 -3.46292e-16 0)
(3 2.43365e-16 0)
(3 -1.75974e-11 0)
(3 -1.31091e-06 0)
(3.00825 0.00139328 0)
(2.29146 0.632348 0)
(1.26306 0.848198 0)
(1.22304 0.833443 0)
(1.25693 0.833588 0)
(1.29111 0.83878 0)
(1.33785 0.844016 0)
(1.39535 0.844862 0)
(1.45907 0.841692 0)
(3 2.68982e-16 0)
(3 3.39518e-16 0)
(3 -2.91846e-16 0)
(3 -4.4945e-16 0)
(3 -3.763e-16 0)
(3 -1.35167e-16 0)
(3 -1.63411e-16 0)
(3 -9.06603e-17 0)
(3 4.22876e-17 0)
(3 3.59908e-16 0)
(3 3.24385e-16 0)
(3 -1.73202e-16 0)
(3 -2.69763e-16 0)
(3 -6.17423e-16 0)
(3 -9.25056e-16 0)
(3 1.63017e-17 0)
(3 -7.88064e-17 0)
(3 -3.07248e-16 0)
(3 -8.65444e-17 0)
(3 -2.22076e-16 0)
(3 -4.63803e-17 0)
(3 -2.75562e-16 0)
(3 5.07775e-17 0)
(3 1.0514e-16 0)
(3 1.82533e-16 0)
(3 -1.62514e-16 0)
(3 -3.72187e-16 0)
(3 -8.56252e-17 0)
(3 8.33144e-17 0)
(3 4.04805e-16 0)
(3 6.70792e-16 0)
(3 1.09373e-15 0)
(3 1.17718e-15 0)
(3 5.31924e-16 0)
(3 1.04388e-16 0)
(3 1.08194e-16 0)
(3 5.4947e-17 0)
(3 -8.01125e-15 0)
(3 -1.11508e-07 0)
(3.00003 9.70048e-06 0)
(3.03867 0.118749 0)
(1.62583 0.827233 0)
(1.26867 0.830668 0)
(1.30547 0.83345 0)
(1.33132 0.83963 0)
(1.37331 0.842362 0)
(1.42434 0.841961 0)
(1.48018 0.83926 0)
(3 3.23136e-17 0)
(3 8.85417e-17 0)
(3 2.89339e-16 0)
(3 3.98895e-16 0)
(3 6.69546e-16 0)
(3 6.56172e-16 0)
(3 3.99108e-16 0)
(3 3.74443e-16 0)
(3 2.05882e-17 0)
(3 -1.02628e-16 0)
(3 6.81404e-17 0)
(3 8.38448e-16 0)
(3 7.92936e-16 0)
(3 -5.06751e-16 0)
(3 -1.66227e-15 0)
(3 -1.396e-15 0)
(3 -3.74299e-16 0)
(3 1.22513e-16 0)
(3 3.39353e-16 0)
(3 2.87565e-16 0)
(3 -5.60239e-16 0)
(3 -7.37001e-16 0)
(3 -4.0668e-16 0)
(3 -6.87775e-16 0)
(3 -2.11059e-16 0)
(3 -7.11303e-16 0)
(3 -7.25612e-16 0)
(3 -3.1563e-16 0)
(3 2.32041e-16 0)
(3 1.09192e-15 0)
(3 2.39855e-15 0)
(3 2.257e-15 0)
(3 1.28604e-15 0)
(3 1.01707e-15 0)
(3 1.11072e-15 0)
(3 2.54668e-16 0)
(3 -1.14415e-15 0)
(3 -1.01641e-15 0)
(3 -1.3461e-09 0)
(3 -1.04328e-07 0)
(3.01071 0.00347414 0)
(2.36605 0.638279 0)
(1.35533 0.885569 0)
(1.32711 0.876444 0)
(1.35909 0.869032 0)
(1.39476 0.86599 0)
(1.43929 0.86136 0)
(1.48894 0.855163 0)
(3 -4.58774e-17 0)
(3 -1.83164e-16 0)
(3 -4.87476e-17 0)
(3 -3.49941e-16 0)
(3 -1.88958e-16 0)
(3 -9.38825e-17 0)
(3 -1.08343e-16 0)
(3 -3.55473e-17 0)
(3 2.06772e-16 0)
(3 -9.28494e-17 0)
(3 -3.73165e-17 0)
(3 4.09178e-16 0)
(3 7.13386e-16 0)
(3 8.9914e-16 0)
(3 3.31687e-16 0)
(3 -6.34008e-16 0)
(3 -4.24757e-16 0)
(3 -2.97721e-17 0)
(3 1.9061e-16 0)
(3 -1.20203e-17 0)
(3 -4.68013e-16 0)
(3 -6.93437e-16 0)
(3 -9.32076e-16 0)
(3 -4.2663e-16 0)
(3 5.79818e-18 0)
(3 -4.821e-18 0)
(3 -4.48506e-16 0)
(3 -3.28078e-17 0)
(3 1.00039e-15 0)
(3 1.01973e-15 0)
(3 1.09909e-15 0)
(3 1.40662e-15 0)
(3 8.5679e-16 0)
(3 8.7414e-16 0)
(3 4.97091e-16 0)
(3 4.20678e-17 0)
(3 -9.16386e-16 0)
(3 -7.2088e-16 0)
(3 -3.014e-12 0)
(3 -2.57924e-08 0)
(3.00005 4.27575e-05 0)
(3.03104 0.106634 0)
(1.76006 0.836749 0)
(1.36323 0.881874 0)
(1.40163 0.87488 0)
(1.4292 0.868146 0)
(1.46592 0.859504 0)
(1.5085 0.850586 0)
(3 -9.20616e-19 0)
(3 -3.61993e-16 0)
(3 -1.11627e-15 0)
(3 -1.11435e-15 0)
(3 -8.67704e-16 0)
(3 -1.02711e-15 0)
(3 -5.1278e-16 0)
(3 -2.43062e-16 0)
(3 1.47248e-16 0)
(3 1.78792e-16 0)
(3 4.77934e-16 0)
(3 5.69169e-16 0)
(3 4.81124e-16 0)
(3 1.24541e-15 0)
(3 1.02334e-15 0)
(3 3.61648e-16 0)
(3 -2.86305e-16 0)
(3 -2.24429e-16 0)
(3 -2.06891e-16 0)
(3 -1.64126e-16 0)
(3 -2.90438e-17 0)
(3 4.12479e-16 0)
(3 2.77973e-16 0)
(3 4.97563e-16 0)
(3 3.27504e-16 0)
(3 5.26227e-17 0)
(3 2.64277e-16 0)
(3 7.28072e-16 0)
(3 1.70285e-15 0)
(3 1.80871e-15 0)
(3 1.56667e-15 0)
(3 1.8224e-15 0)
(3 5.68881e-16 0)
(3 -1.48933e-15 0)
(3 -1.69997e-15 0)
(3 -1.52005e-15 0)
(3 -1.85409e-15 0)
(3 -5.05954e-16 0)
(3 3.84764e-16 0)
(3 -2.40457e-09 0)
(3 2.49719e-08 0)
(3.0062 0.00439514 0)
(2.61569 0.532326 0)
(1.50372 0.934297 0)
(1.42276 0.902206 0)
(1.45489 0.892089 0)
(1.48582 0.881693 0)
(1.52389 0.868725 0)
(3 -2.31458e-16 0)
(3 -1.28493e-16 0)
(3 -2.78842e-17 0)
(3 -2.98967e-16 0)
(3 -2.34555e-16 0)
(3 -6.6876e-17 0)
(3 3.91603e-17 0)
(3 -3.21004e-17 0)
(3 1.02589e-16 0)
(3 4.82994e-16 0)
(3 8.77094e-16 0)
(3 9.08631e-16 0)
(3 1.32731e-16 0)
(3 -1.2053e-16 0)
(3 -1.97362e-16 0)
(3 -4.00911e-16 0)
(3 -3.8968e-17 0)
(3 6.43805e-17 0)
(3 -3.60848e-16 0)
(3 -3.852e-16 0)
(3 3.04024e-17 0)
(3 1.57639e-15 0)
(3 2.51989e-15 0)
(3 2.18044e-15 0)
(3 1.4049e-15 0)
(3 1.22995e-15 0)
(3 1.98894e-15 0)
(3 1.99775e-15 0)
(3 1.17984e-15 0)
(3 1.41907e-15 0)
(3 1.66684e-15 0)
(3 1.85371e-15 0)
(3 1.0133e-15 0)
(3 -1.44971e-15 0)
(3 -2.9104e-15 0)
(3 -3.21394e-15 0)
(3 -2.23069e-15 0)
(3 -1.19141e-16 0)
(3 6.06705e-16 0)
(3 -9.40612e-11 0)
(3 -9.16881e-11 0)
(3.00002 4.75228e-05 0)
(3.03573 0.0539721 0)
(2.01871 0.797686 0)
(1.4764 0.914301 0)
(1.49588 0.90385 0)
(1.52117 0.891048 0)
(1.55254 0.877825 0)
(3 -1.90079e-17 0)
(3 2.44695e-16 0)
(3 2.23195e-16 0)
(3 1.1467e-16 0)
(3 2.44291e-16 0)
(3 7.59882e-16 0)
(3 1.04081e-15 0)
(3 7.38943e-16 0)
(3 4.82436e-16 0)
(3 5.08255e-16 0)
(3 7.73136e-17 0)
(3 -3.21955e-16 0)
(3 -1.49118e-16 0)
(3 -4.05304e-16 0)
(3 -1.11783e-15 0)
(3 -1.49932e-15 0)
(3 -8.59545e-16 0)
(3 -6.01615e-17 0)
(3 6.22976e-16 0)
(3 1.15455e-15 0)
(3 7.41169e-16 0)
(3 2.5531e-16 0)
(3 6.42926e-16 0)
(3 8.03367e-16 0)
(3 1.42063e-15 0)
(3 1.71099e-15 0)
(3 1.73244e-15 0)
(3 1.52856e-15 0)
(3 6.11869e-16 0)
(3 3.42331e-16 0)
(3 4.99019e-16 0)
(3 6.80631e-18 0)
(3 -2.24503e-16 0)
(3 -2.34136e-16 0)
(3 -3.17328e-16 0)
(3 -3.135e-16 0)
(3 -2.41702e-16 0)
(3 -3.23403e-16 0)
(3 -2.19746e-16 0)
(3 -8.09922e-13 0)
(3 -2.87288e-11 0)
(3 3.72543e-08 0)
(3.00168 0.0023801 0)
(2.83672 0.315508 0)
(1.73907 0.903839 0)
(1.51246 0.928056 0)
(1.54827 0.916772 0)
(1.57854 0.902992 0)
(3 5.52087e-17 0)
(3 -4.82373e-17 0)
(3 -2.06572e-16 0)
(3 3.5012e-16 0)
(3 1.99539e-16 0)
(3 2.65512e-16 0)
(3 9.38924e-17 0)
(3 -1.53094e-16 0)
(3 -1.30545e-16 0)
(3 -4.52272e-16 0)
(3 -5.41743e-16 0)
(3 -5.51517e-16 0)
(3 -3.82312e-16 0)
(3 -8.38183e-16 0)
(3 -7.80315e-16 0)
(3 -2.3714e-16 0)
(3 1.16848e-16 0)
(3 3.98863e-16 0)
(3 6.51016e-16 0)
(3 1.05373e-15 0)
(3 6.67635e-16 0)
(3 3.51746e-16 0)
(3 -8.7516e-16 0)
(3 -1.09166e-15 0)
(3 -8.26368e-16 0)
(3 -1.94144e-16 0)
(3 2.1723e-16 0)
(3 6.22922e-17 0)
(3 3.55292e-16 0)
(3 4.05126e-16 0)
(3 3.26866e-16 0)
(3 1.63612e-16 0)
(3 -6.9634e-16 0)
(3 -1.19169e-16 0)
(3 8.8408e-16 0)
(3 1.5566e-15 0)
(3 1.79041e-15 0)
(3 5.48943e-16 0)
(3 -3.68893e-16 0)
(3 -2.6339e-15 0)
(3 -3.73525e-12 0)
(3 4.26474e-12 0)
(3 1.26418e-05 0)
(3.0098 0.0215018 0)
(2.415 0.646731 0)
(1.60437 0.950851 0)
(1.56482 0.941096 0)
(1.59623 0.92436 0)
(3 4.16978e-17 0)
(3 1.36299e-16 0)
(3 3.49437e-16 0)
(3 8.16959e-16 0)
(3 -2.76654e-16 0)
(3 -8.53103e-16 0)
(3 -1.28751e-15 0)
(3 -1.40639e-15 0)
(3 -4.85835e-16 0)
(3 -5.513e-17 0)
(3 4.26918e-16 0)
(3 3.18716e-16 0)
(3 -2.31217e-17 0)
(3 1.69607e-16 0)
(3 5.17898e-16 0)
(3 1.23295e-15 0)
(3 6.79101e-16 0)
(3 2.76888e-16 0)
(3 -6.9563e-17 0)
(3 -4.26142e-16 0)
(3 -4.13027e-16 0)
(3 -1.22796e-16 0)
(3 -5.56545e-16 0)
(3 -9.49258e-16 0)
(3 -9.79735e-16 0)
(3 -6.94573e-16 0)
(3 -3.39227e-16 0)
(3 -1.0992e-15 0)
(3 -1.40101e-15 0)
(3 -1.3532e-15 0)
(3 -1.73348e-15 0)
(3 -8.79219e-16 0)
(3 -1.90195e-16 0)
(3 1.51629e-16 0)
(3 3.30383e-16 0)
(3 3.31151e-16 0)
(3 4.04994e-16 0)
(3 3.07312e-17 0)
(3 -4.35705e-16 0)
(3 2.34439e-16 0)
(3 -2.18073e-13 0)
(3 -2.29041e-13 0)
(3 6.9511e-09 0)
(3.00007 0.000632172 0)
(2.98735 0.115189 0)
(2.04145 0.812021 0)
(1.62226 0.942962 0)
(1.62201 0.937452 0)
(3 2.02528e-16 0)
(3 4.1269e-16 0)
(3 7.51527e-16 0)
(3 3.82367e-16 0)
(3 -2.29259e-16 0)
(3 -1.16292e-15 0)
(3 -1.46294e-15 0)
(3 -9.71002e-16 0)
(3 -2.39115e-16 0)
(3 1.19443e-15 0)
(3 1.48681e-15 0)
(3 7.20625e-16 0)
(3 4.78192e-16 0)
(3 9.14749e-16 0)
(3 1.38536e-15 0)
(3 1.2287e-15 0)
(3 2.70595e-16 0)
(3 -5.40041e-16 0)
(3 -1.77254e-16 0)
(3 -2.94685e-16 0)
(3 -3.95363e-16 0)
(3 -9.88013e-16 0)
(3 -8.62282e-16 0)
(3 -2.27523e-16 0)
(3 2.69392e-16 0)
(3 2.44268e-16 0)
(3 1.36308e-16 0)
(3 -1.34838e-15 0)
(3 -1.89385e-15 0)
(3 -1.93232e-15 0)
(3 -1.60253e-15 0)
(3 -9.55255e-16 0)
(3 -3.83493e-16 0)
(3 -1.89197e-16 0)
(3 -1.87481e-16 0)
(3 -4.41769e-16 0)
(3 -6.58739e-16 0)
(3 1.51826e-16 0)
(3 2.43113e-16 0)
(3 2.46355e-16 0)
(3 -2.97361e-15 0)
(3 -7.49728e-14 0)
(3 2.04722e-12 0)
(3 1.47973e-06 0)
(3.00145 0.00637663 0)
(2.78289 0.340324 0)
(1.86471 0.89442 0)
(1.65011 0.955516 0)
(3 -1.14264e-16 0)
(3 -2.27376e-16 0)
(3 -2.33244e-16 0)
(3 -3.29938e-16 0)
(3 -1.70887e-16 0)
(3 -3.64477e-16 0)
(3 -3.15423e-16 0)
(3 1.34797e-16 0)
(3 7.74055e-16 0)
(3 1.57379e-15 0)
(3 1.71456e-15 0)
(3 9.34572e-16 0)
(3 3.86328e-16 0)
(3 1.50046e-16 0)
(3 4.89837e-16 0)
(3 2.17231e-16 0)
(3 -1.29051e-16 0)
(3 -4.90834e-16 0)
(3 -1.60954e-16 0)
(3 -1.54896e-17 0)
(3 -1.46291e-17 0)
(3 -4.98868e-16 0)
(3 -7.60809e-16 0)
(3 -5.26418e-16 0)
(3 -4.44145e-16 0)
(3 -5.84637e-16 0)
(3 -4.76675e-16 0)
(3 -2.22599e-16 0)
(3 5.7066e-17 0)
(3 3.30536e-17 0)
(3 1.4136e-17 0)
(3 1.44079e-16 0)
(3 4.6733e-16 0)
(3 1.1058e-15 0)
(3 1.27219e-15 0)
(3 1.50548e-15 0)
(3 1.33096e-15 0)
(3 1.15578e-15 0)
(3 6.84074e-16 0)
(3 6.69741e-16 0)
(3 7.77e-16 0)
(3 -1.02301e-14 0)
(3 -1.02408e-14 0)
(3 8.64023e-10 0)
(2.99999 6.06863e-05 0)
(3.00037 0.0277836 0)
(2.49145 0.569326 0)
(1.79071 0.945351 0)
(3 5.83606e-17 0)
(3 -1.75148e-16 0)
(3 -4.88899e-16 0)
(3 -4.91325e-16 0)
(3 1.88719e-17 0)
(3 5.83639e-16 0)
(3 1.59711e-15 0)
(3 1.60474e-15 0)
(3 1.68891e-15 0)
(3 9.20262e-16 0)
(3 -2.076e-16 0)
(3 2.94315e-16 0)
(3 2.17612e-16 0)
(3 -2.77802e-16 0)
(3 -6.89031e-16 0)
(3 -4.8825e-16 0)
(3 8.95146e-17 0)
(3 1.1106e-15 0)
(3 8.74207e-16 0)
(3 2.89905e-16 0)
(3 -2.97447e-16 0)
(3 -4.00019e-16 0)
(3 -5.87804e-16 0)
(3 -7.89032e-16 0)
(3 -1.27932e-15 0)
(3 -2.03638e-15 0)
(3 -1.40647e-15 0)
(3 2.4539e-16 0)
(3 5.65112e-16 0)
(3 7.02291e-16 0)
(3 2.27109e-16 0)
(3 2.90315e-16 0)
(3 1.21448e-15 0)
(3 1.53888e-15 0)
(3 1.70452e-15 0)
(3 2.09168e-15 0)
(3 2.18486e-15 0)
(3 1.65067e-15 0)
(3 1.14766e-15 0)
(3 7.3094e-16 0)
(3 7.62825e-16 0)
(3 3.98921e-16 0)
(3 -3.28075e-15 0)
(3 1.89074e-13 0)
(3 6.41206e-08 0)
(2.99994 0.000822677 0)
(2.96955 0.0873032 0)
(2.27284 0.730788 0)
(3 1.00712e-16 0)
(3 2.18716e-16 0)
(3 3.87246e-16 0)
(3 7.67036e-16 0)
(3 1.25759e-15 0)
(3 1.31401e-15 0)
(3 1.8664e-15 0)
(3 2.07477e-15 0)
(3 1.13594e-15 0)
(3 5.10009e-16 0)
(3 3.33979e-16 0)
(3 5.8329e-16 0)
(3 1.17589e-15 0)
(3 1.40348e-15 0)
(3 8.00769e-16 0)
(3 5.64873e-16 0)
(3 7.6194e-16 0)
(3 1.21608e-15 0)
(3 9.89209e-16 0)
(3 5.61944e-16 0)
(3 -2.28659e-16 0)
(3 -6.92985e-16 0)
(3 -1.5759e-15 0)
(3 -2.48905e-15 0)
(3 -2.4183e-15 0)
(3 -2.2896e-15 0)
(3 -2.17901e-15 0)
(3 -1.80433e-15 0)
(3 -1.75838e-15 0)
(3 -9.10256e-16 0)
(3 3.79503e-17 0)
(3 9.30196e-16 0)
(3 9.98764e-16 0)
(3 9.99548e-16 0)
(3 7.94259e-16 0)
(3 6.28301e-16 0)
(3 1.35406e-15 0)
(3 1.52039e-15 0)
(3 1.73242e-15 0)
(3 9.78136e-16 0)
(3 1.02451e-15 0)
(3 9.04158e-16 0)
(3 4.39623e-16 0)
(3 7.70471e-16 0)
(3 3.53764e-11 0)
(3 2.11994e-06 0)
(2.99958 0.0044476 0)
(2.88549 0.214129 0)
(3 -4.02059e-17 0)
(3 1.94364e-16 0)
(3 5.2132e-16 0)
(3 5.60451e-16 0)