/*--------------------------------*- C++ -*----------------------------------*\
  =========                 |
  \\      /  F ield         | OpenFOAM: The Open Source CFD Toolbox
   \\    /   O peration     | Website:  https://openfoam.org
    \\  /    A nd           | Version:  7
     \\/     M anipulation  |
\*---------------------------------------------------------------------------*/
FoamFile
{
    version     2.0;
    format      ascii;
    class       volVectorField;
    location    "0.3";
    object      U;
}
// * * * * * * * * * * * * * * * * * * * * * * * * * * * * * * * * * * * * * //

dimensions      [0 1 -1 0 0 0 0];

internalField   nonuniform List<vector> 
16192
(
(3 -3.48247e-15 0)
(3 -2.72215e-15 0)
(3 -3.14509e-15 0)
(3 8.87533e-14 0)
(3 2.47578e-08 0)
(2.99998 0.000135701 0)
(2.9938 0.0342874 0)
(2.82697 0.451901 0)
(2.49001 1.01367 0)
(2.32065 1.17253 0)
(2.30733 1.1789 0)
(2.30519 1.15642 0)
(2.31218 1.1203 0)
(2.32251 1.11078 0)
(2.31094 1.11918 0)
(2.2983 1.14254 0)
(2.23251 1.17025 0)
(2.20075 1.15788 0)
(2.19241 1.1511 0)
(2.19036 1.13924 0)
(2.19564 1.12293 0)
(3 -1.97584e-15 0)
(3 -8.5491e-16 0)
(3 -2.54663e-15 0)
(3 -3.76037e-15 0)
(3 1.53652e-12 0)
(3 1.48359e-07 0)
(2.99992 0.00056233 0)
(2.98617 0.0635085 0)
(2.72347 0.630444 0)
(2.5088 1.01815 0)
(2.32865 1.16863 0)
(2.30642 1.16895 0)
(2.3102 1.13807 0)
(2.32886 1.1164 0)
(2.33109 1.1168 0)
(2.30727 1.14303 0)
(2.2618 1.17852 0)
(2.21112 1.1633 0)
(2.19737 1.16156 0)
(2.19652 1.15281 0)
(2.20212 1.14112 0)
(3 -1.92238e-15 0)
(3 -3.67256e-15 0)
(3 -3.09222e-15 0)
(3 -3.33365e-15 0)
(3 -4.06568e-15 0)
(3 1.55015e-11 0)
(3 1.1574e-06 0)
(2.99968 0.00187376 0)
(2.96263 0.122104 0)
(2.69726 0.760343 0)
(2.47752 1.07266 0)
(2.35229 1.15201 0)
(2.32675 1.11836 0)
(2.34711 1.11209 0)
(2.34811 1.13031 0)
(2.31881 1.16087 0)
(2.27013 1.18772 0)
(2.21191 1.18636 0)
(2.20482 1.17962 0)
(2.20463 1.16831 0)
(2.21096 1.15666 0)
(3 -2.36877e-15 0)
(3 -4.14536e-15 0)
(3 -3.69909e-15 0)
(3 -3.2187e-15 0)
(3 -4.30211e-15 0)
(3 -4.53121e-15 0)
(3 2.59745e-10 0)
(3 7.30341e-06 0)
(2.99879 0.00586245 0)
(2.93517 0.218324 0)
(2.71532 0.782117 0)
(2.38437 1.15898 0)
(2.35373 1.10717 0)
(2.38019 1.10346 0)
(2.37109 1.12434 0)
(2.33172 1.16194 0)
(2.28035 1.18851 0)
(2.22272 1.19392 0)
(2.21338 1.19017 0)
(2.21214 1.18384 0)
(2.21057 1.17788 0)
(3 -7.55079e-16 0)
(3 -1.44524e-15 0)
(3 -2.1994e-15 0)
(3 -2.03103e-15 0)
(3 -2.32063e-15 0)
(3 -3.43265e-15 0)
(3 1.49689e-14 0)
(3 3.50731e-09 0)
(2.99999 4.18039e-05 0)
(2.99708 0.0131567 0)
(2.92575 0.286808 0)
(2.64736 0.814329 0)
(2.42583 1.07604 0)
(2.39759 1.10562 0)
(2.37877 1.14183 0)
(2.34061 1.18468 0)
(2.28719 1.20013 0)
(2.24061 1.19073 0)
(2.23318 1.18611 0)
(2.23027 1.18652 0)
(2.21878 1.1893 0)
(3 -6.40693e-16 0)
(3 -8.61956e-16 0)
(3 -1.31668e-15 0)
(3 -1.23816e-15 0)
(3 -7.73264e-16 0)
(3 -3.24345e-16 0)
(3 -5.78506e-16 0)
(3 2.01867e-13 0)
(3 3.5545e-08 0)
(2.99998 0.000115906 0)
(2.9959 0.0200652 0)
(2.90983 0.294744 0)
(2.59848 0.852619 0)
(2.50659 1.01329 0)
(2.4081 1.12735 0)
(2.34911 1.20552 0)
(2.30146 1.19761 0)
(2.26316 1.16811 0)
(2.25271 1.19329 0)
(2.24052 1.20413 0)
(2.21787 1.20549 0)
(3 -1.47608e-15 0)
(3 -1.87836e-15 0)
(3 -1.39082e-15 0)
(3 -1.77312e-15 0)
(3 -1.02729e-15 0)
(3 1.03286e-15 0)
(3 1.35776e-16 0)
(3 -2.34085e-15 0)
(3 2.67481e-12 0)
(3 1.07476e-07 0)
(2.99997 0.000188481 0)
(2.99487 0.0244897 0)
(2.89262 0.297663 0)
(2.66572 0.826241 0)
(2.41841 1.11144 0)
(2.36452 1.22107 0)
(2.35072 1.1733 0)
(2.31821 1.14929 0)
(2.28614 1.18648 0)
(2.24566 1.22292 0)
(2.211 1.22558 0)
(3 -3.41675e-15 0)
(3 -3.8104e-15 0)
(3 -2.88599e-15 0)
(3 -3.07154e-15 0)
(3 -2.79752e-15 0)
(3 -4.69625e-16 0)
(3 -2.81475e-16 0)
(3 -1.78731e-15 0)
(3 -2.11659e-15 0)
(3 7.7818e-12 0)
(3 1.96954e-07 0)
(2.99995 0.000276106 0)
(2.99363 0.0260928 0)
(2.89267 0.343096 0)
(2.59245 0.861337 0)
(2.39857 1.20172 0)
(2.39717 1.16214 0)
(2.36952 1.13772 0)
(2.31036 1.16943 0)
(2.2447 1.23714 0)
(2.19471 1.24575 0)
(3 -4.20441e-15 0)
(3 -4.26354e-15 0)
(3 -4.2305e-15 0)
(3 -4.23187e-15 0)
(3 -3.30804e-15 0)
(3 -2.59295e-15 0)
(3 -2.61457e-15 0)
(3 -3.37436e-15 0)
(3 -4.28664e-15 0)
(3 -3.37323e-15 0)
(3 1.80222e-11 0)
(3 3.58764e-07 0)
(2.99993 0.000368829 0)
(2.99163 0.0348562 0)
(2.82007 0.454012 0)
(2.56607 0.969672 0)
(2.52815 1.0712 0)
(2.4368 1.11773 0)
(2.32527 1.18226 0)
(2.22758 1.26948 0)
(2.18352 1.2574 0)
(3 -4.5729e-15 0)
(3 -3.26949e-15 0)
(3 -3.26748e-15 0)
(3 -2.53728e-15 0)
(3 -4.32467e-16 0)
(3 -1.35027e-15 0)
(3 -1.75795e-15 0)
(3 -2.24642e-15 0)
(3 -3.71945e-15 0)
(3 -3.90695e-15 0)
(3 -1.44252e-15 0)
(3 4.36059e-11 0)
(3 6.8538e-07 0)
(2.99984 0.000731167 0)
(2.98073 0.0682033 0)
(2.83936 0.449754 0)
(2.68282 0.852918 0)
(2.53926 1.05692 0)
(2.30388 1.20091 0)
(2.21125 1.28461 0)
(2.17115 1.24587 0)
(3 -4.7255e-15 0)
(3 -4.22963e-15 0)
(3 -3.92587e-15 0)
(3 -2.09443e-15 0)
(3 -1.92152e-15 0)
(3 -1.57956e-15 0)
(3 -1.54528e-15 0)
(3 -2.05828e-15 0)
(3 -2.81273e-15 0)
(3 -1.46017e-15 0)
(3 -8.81348e-16 0)
(3 1.14667e-15 0)
(3 1.5231e-10 0)
(3 2.34788e-06 0)
(2.99967 0.00173761 0)
(2.98645 0.0532256 0)
(2.91031 0.315148 0)
(2.67842 0.850057 0)
(2.29697 1.19447 0)
(2.23378 1.24971 0)
(2.22845 1.21685 0)
(3 -3.29447e-15 0)
(3 -5.08718e-15 0)
(3 -4.31216e-15 0)
(3 -3.53136e-15 0)
(3 -3.2996e-15 0)
(3 -1.75009e-15 0)
(3 -2.28405e-15 0)
(3 -2.59865e-15 0)
(3 -1.47008e-15 0)
(3 1.57484e-16 0)
(3 1.45534e-15 0)
(3 1.3383e-15 0)
(3 1.06041e-14 0)
(3 9.52567e-10 0)
(3 5.09032e-06 0)
(2.99985 0.000805462 0)
(2.99346 0.0280369 0)
(2.88231 0.354395 0)
(2.52211 0.927036 0)
(2.26153 1.27069 0)
(2.27254 1.21093 0)
(3 -2.932e-15 0)
(3 -2.84458e-15 0)
(3 -4.5049e-15 0)
(3 -4.33903e-15 0)
(3 -3.35225e-15 0)
(3 -2.52767e-15 0)
(3 -2.61964e-15 0)
(3 -2.01239e-15 0)
(3 -1.31829e-15 0)
(3 -8.35759e-16 0)
(3 8.98478e-16 0)
(3 1.12398e-15 0)
(3 5.36421e-16 0)
(3 5.77614e-14 0)
(3 1.20984e-09 0)
(3 1.2855e-06 0)
(2.99991 0.000408853 0)
(2.98975 0.0376728 0)
(2.80062 0.486294 0)
(2.5134 1.01352 0)
(2.41696 1.14043 0)
(3 -4.44231e-15 0)
(3 -4.71107e-15 0)
(3 -2.9193e-15 0)
(3 -3.21143e-15 0)
(3 -4.52984e-15 0)
(3 -5.65242e-15 0)
(3 -4.39481e-15 0)
(3 -3.66784e-15 0)
(3 -2.97338e-15 0)
(3 -1.11321e-15 0)
(3 1.09517e-15 0)
(3 1.6149e-15 0)
(3 1.3687e-15 0)
(3 1.06363e-16 0)
(3 4.46448e-14 0)
(3 1.83623e-10 0)
(3 9.28531e-07 0)
(2.9998 0.000866674 0)
(2.98057 0.0693139 0)
(2.86283 0.476998 0)
(2.4485 1.10511 0)
(3 -3.69149e-15 0)
(3 -3.40011e-15 0)
(3 -2.55651e-15 0)
(3 -1.84464e-15 0)
(3 -2.84725e-15 0)
(3 -2.73817e-15 0)
(3 -2.01917e-15 0)
(3 -2.14868e-15 0)
(3 -1.75648e-15 0)
(3 -8.65229e-16 0)
(3 -6.66559e-16 0)
(3 1.87606e-15 0)
(3 2.45878e-15 0)
(3 1.88841e-15 0)
(3 -4.21522e-16 0)
(3 9.96055e-15 0)
(3 3.44974e-10 0)
(3 3.42148e-06 0)
(2.99971 0.00156771 0)
(2.98864 0.0691757 0)
(2.78801 0.568527 0)
(3 1.51675e-16 0)
(3 -9.87864e-16 0)
(3 -9.75653e-16 0)
(3 -1.06926e-15 0)
(3 -1.40997e-15 0)
(3 -5.51246e-16 0)
(3 -1.24198e-15 0)
(3 -1.45626e-15 0)
(3 1.40841e-16 0)
(3 4.17525e-16 0)
(3 -2.11746e-16 0)
(3 6.15131e-16 0)
(3 2.54496e-15 0)
(3 2.11763e-15 0)
(3 6.50994e-16 0)
(3 -2.18643e-16 0)
(3 2.79581e-14 0)
(3 1.96973e-09 0)
(3 4.24694e-06 0)
(2.99976 0.00144841 0)
(2.96899 0.118964 0)
(3 7.57932e-16 0)
(3 3.62876e-16 0)
(3 -3.67354e-16 0)
(3 -1.1696e-15 0)
(3 5.00929e-16 0)
(3 5.18136e-17 0)
(3 -1.62534e-16 0)
(3 7.94741e-16 0)
(3 1.42505e-15 0)
(3 1.53872e-15 0)
(3 7.67409e-16 0)
(3 6.90865e-16 0)
(3 1.35545e-15 0)
(3 1.57528e-15 0)
(3 1.39281e-15 0)
(3 -3.79426e-16 0)
(3 -2.09066e-15 0)
(3 1.29489e-13 0)
(3 1.02221e-09 0)
(3 4.0018e-06 0)
(2.99897 0.00494685 0)
(3 -3.35201e-16 0)
(3 7.67298e-16 0)
(3 -1.51043e-16 0)
(3 -8.32599e-16 0)
(3 8.25734e-16 0)
(3 1.17186e-15 0)
(3 4.00096e-16 0)
(3 7.52668e-16 0)
(3 1.4556e-15 0)
(3 2.37751e-15 0)
(3 1.23285e-15 0)
(3 1.10684e-15 0)
(3 6.03791e-16 0)
(3 8.69099e-16 0)
(3 2.11254e-15 0)
(3 8.1262e-16 0)
(3 -2.2768e-15 0)
(3 -1.25001e-15 0)
(3 4.33018e-14 0)
(3 1.39393e-09 0)
(2.99999 3.86696e-05 0)
(3 1.73498e-16 0)
(3 1.60295e-16 0)
(3 6.76413e-16 0)
(3 5.05711e-16 0)
(3 7.10816e-16 0)
(3 9.12701e-16 0)
(3 9.89901e-16 0)
(3 8.73906e-16 0)
(3 1.85651e-15 0)
(3 3.09968e-15 0)
(3 1.92798e-15 0)
(3 2.05411e-15 0)
(3 2.16997e-15 0)
(3 6.60742e-16 0)
(3 6.83107e-16 0)
(3 1.19149e-15 0)
(3 2.13844e-16 0)
(3 1.74977e-16 0)
(3 6.55432e-16 0)
(3 9.59757e-14 0)
(3 4.80355e-08 0)
(3 3.41182e-16 0)
(3 -4.24648e-16 0)
(3 1.67202e-16 0)
(3 -7.77611e-16 0)
(3 3.63376e-16 0)
(3 1.43392e-15 0)
(3 1.80968e-15 0)
(3 1.09072e-15 0)
(3 -3.57787e-16 0)
(3 -1.12434e-15 0)
(3 -1.36194e-15 0)
(3 -1.04924e-15 0)
(3 -8.26348e-16 0)
(3 6.441e-16 0)
(3 -2.74296e-16 0)
(3 -7.96026e-16 0)
(3 -7.82409e-17 0)
(3 9.21383e-16 0)
(3 1.52928e-15 0)
(3 2.70541e-15 0)
(3 6.8218e-12 0)
(3 -1.53378e-16 0)
(3 -4.11319e-16 0)
(3 -2.00662e-16 0)
(3 -1.76932e-15 0)
(3 -2.36468e-15 0)
(3 7.20097e-17 0)
(3 5.54326e-16 0)
(3 3.82756e-16 0)
(3 -9.35456e-16 0)
(3 -2.02123e-15 0)
(3 -1.69033e-15 0)
(3 -2.20317e-15 0)
(3 -1.84224e-15 0)
(3 -2.28201e-16 0)
(3 -1.86058e-15 0)
(3 -3.85501e-16 0)
(3 1.68683e-15 0)
(3 2.70965e-15 0)
(3 3.63136e-15 0)
(3 2.59042e-15 0)
(3 4.10271e-15 0)
(3 -1.70813e-15 0)
(3 -1.99291e-15 0)
(3 -1.64615e-15 0)
(3 -1.38701e-15 0)
(3 -2.09823e-15 0)
(3 -1.90352e-15 0)
(3 -2.3914e-16 0)
(3 1.11283e-15 0)
(3 1.5779e-15 0)
(3 1.0712e-16 0)
(3 -1.92878e-16 0)
(3 -7.94458e-16 0)
(3 -1.92293e-15 0)
(3 -2.54301e-15 0)
(3 -1.00576e-17 0)
(3 1.46601e-15 0)
(3 2.9376e-15 0)
(3 4.13422e-15 0)
(3 3.32275e-15 0)
(3 1.04101e-15 0)
(3 2.13004e-15 0)
(3 -1.73147e-15 0)
(3 -4.57276e-16 0)
(3 -5.81886e-17 0)
(3 7.84596e-16 0)
(3 -4.25729e-17 0)
(3 -7.07661e-16 0)
(3 6.53144e-16 0)
(3 3.49027e-15 0)
(3 3.47398e-15 0)
(3 2.89557e-15 0)
(3 9.85152e-16 0)
(3 -1.24322e-15 0)
(3 -3.08129e-15 0)
(3 -1.67563e-15 0)
(3 4.62618e-16 0)
(3 8.50994e-16 0)
(3 2.03587e-15 0)
(3 3.36418e-15 0)
(3 2.12084e-15 0)
(3 3.22315e-18 0)
(3 8.81468e-16 0)
(3 -1.04769e-16 0)
(3 9.46685e-16 0)
(3 1.57966e-15 0)
(3 1.38617e-15 0)
(3 9.19579e-16 0)
(3 7.46174e-16 0)
(3 1.51377e-15 0)
(3 2.66481e-15 0)
(3 2.95946e-15 0)
(3 2.45562e-15 0)
(3 1.33907e-15 0)
(3 -1.07365e-15 0)
(3 -2.26027e-15 0)
(3 -1.52747e-15 0)
(3 -7.4435e-16 0)
(3 -3.9708e-16 0)
(3 4.8602e-16 0)
(3 4.9672e-17 0)
(3 7.64743e-17 0)
(3 -6.17158e-16 0)
(3 1.25367e-15 0)
(3 1.58595e-15 0)
(3 2.45661e-15 0)
(3 2.1993e-15 0)
(3 8.24727e-16 0)
(3 5.55435e-16 0)
(3 1.1084e-15 0)
(3 1.53575e-15 0)
(3 2.37426e-15 0)
(3 1.69456e-15 0)
(3 6.67365e-16 0)
(3 8.52391e-16 0)
(3 8.01507e-16 0)
(3 1.28743e-16 0)
(3 -4.14261e-16 0)
(3 -1.21533e-15 0)
(3 -4.81738e-16 0)
(3 -2.1344e-16 0)
(3 -1.67284e-15 0)
(3 -1.30027e-15 0)
(3 -8.67504e-16 0)
(3 -7.55028e-16 0)
(3 6.08412e-15 0)
(3 5.78199e-15 0)
(3 5.02179e-15 0)
(3 2.29873e-15 0)
(3 2.85128e-15 0)
(3 2.8864e-15 0)
(3 1.68296e-15 0)
(3 3.82501e-16 0)
(3 9.59663e-17 0)
(3 8.36517e-16 0)
(3 9.1955e-16 0)
(3 -6.42342e-16 0)
(3 -9.46622e-16 0)
(3 -1.92e-15 0)
(3 -1.5529e-15 0)
(3 -3.87296e-16 0)
(3 -2.06615e-16 0)
(3 -2.05e-15 0)
(3 -1.42414e-15 0)
(3 -2.98918e-16 0)
(3 -3.00275e-15 0)
(3 6.91423e-15 0)
(3 5.45599e-15 0)
(3 5.50384e-15 0)
(3 5.09547e-15 0)
(3 4.63348e-15 0)
(3 1.88671e-15 0)
(3 1.1263e-15 0)
(3 -5.35426e-16 0)
(3 -1.88688e-16 0)
(3 8.38351e-16 0)
(3 1.86691e-16 0)
(3 -1.39937e-15 0)
(3 -1.81327e-15 0)
(3 -2.83076e-15 0)
(3 -2.51616e-15 0)
(3 -2.18506e-15 0)
(3 -1.33405e-15 0)
(3 -9.8227e-16 0)
(3 -2.20224e-15 0)
(3 -2.16728e-15 0)
(3 -1.51984e-15 0)
(3 5.33201e-15 0)
(3 6.20509e-15 0)
(3 5.5414e-15 0)
(3 5.38731e-15 0)
(3 4.67252e-15 0)
(3 3.65465e-15 0)
(3 1.02977e-15 0)
(3 -7.65376e-16 0)
(3 -1.32555e-15 0)
(3 -1.50083e-15 0)
(3 -7.67108e-17 0)
(3 7.64779e-16 0)
(3 -6.01021e-16 0)
(3 -1.03103e-15 0)
(3 -9.51979e-16 0)
(3 -2.11964e-15 0)
(3 -1.69097e-15 0)
(3 -7.76578e-16 0)
(3 -1.29441e-15 0)
(3 -3.78866e-15 0)
(3 -4.26939e-15 0)
(3 4.23093e-15 0)
(3 4.28718e-15 0)
(3 4.22886e-15 0)
(3 5.07483e-15 0)
(3 4.8653e-15 0)
(3 5.19586e-15 0)
(3 2.13382e-15 0)
(3 -9.24993e-16 0)
(3 -1.63777e-15 0)
(3 -1.06108e-15 0)
(3 -1.65388e-17 0)
(3 1.30663e-15 0)
(3 1.84197e-15 0)
(3 3.05652e-15 0)
(3 2.92247e-15 0)
(3 1.18673e-15 0)
(3 -2.33293e-16 0)
(3 -9.7456e-16 0)
(3 -8.64531e-16 0)
(3 -1.98314e-15 0)
(3 -3.26358e-15 0)
(3 2.67336e-15 0)
(3 3.75258e-15 0)
(3 4.30945e-15 0)
(3 4.35063e-15 0)
(3 4.19701e-15 0)
(3 3.08185e-15 0)
(3 2.60512e-15 0)
(3 1.38035e-15 0)
(3 7.37551e-16 0)
(3 6.69273e-16 0)
(3 1.12346e-15 0)
(3 2.16056e-15 0)
(3 3.78644e-15 0)
(3 6.0168e-15 0)
(3 4.41472e-15 0)
(3 3.3673e-15 0)
(3 -2.90016e-16 0)
(3 -6.98197e-16 0)
(3 2.60324e-16 0)
(3 1.88254e-16 0)
(3 -1.39472e-15 0)
(3 1.70634e-15 0)
(3 1.54203e-15 0)
(3 1.8962e-15 0)
(3 2.19357e-15 0)
(3 2.85367e-15 0)
(3 2.73434e-15 0)
(3 3.41377e-15 0)
(3 3.43483e-15 0)
(3 2.65015e-15 0)
(3 1.24943e-15 0)
(3 1.70125e-15 0)
(3 2.49889e-15 0)
(3 4.038e-15 0)
(3 4.67183e-15 0)
(3 4.51183e-15 0)
(3 2.83627e-15 0)
(3 1.79045e-15 0)
(3 1.8857e-15 0)
(3 -5.0424e-16 0)
(3 -9.94292e-16 0)
(3 -1.35464e-15 0)
(3 7.02787e-16 0)
(3 -4.8354e-16 0)
(3 -6.42971e-17 0)
(3 8.22732e-16 0)
(3 1.86558e-15 0)
(3 2.94938e-15 0)
(3 3.94952e-15 0)
(3 4.6537e-15 0)
(3 4.03346e-15 0)
(3 1.83347e-15 0)
(3 1.79101e-15 0)
(3 3.22258e-15 0)
(3 4.70094e-15 0)
(3 5.22836e-15 0)
(3 4.70958e-15 0)
(3 3.62606e-15 0)
(3 3.26937e-15 0)
(3 2.66467e-15 0)
(3 2.95047e-16 0)
(3 -1.44169e-15 0)
(3 -1.02647e-15 0)
(3 5.4834e-16 0)
(3 4.79602e-16 0)
(3 1.54627e-15 0)
(3 1.28084e-15 0)
(3 6.74565e-16 0)
(3 9.49063e-16 0)
(3 2.068e-15 0)
(3 3.35245e-15 0)
(3 3.2867e-15 0)
(3 3.32342e-15 0)
(3 2.13892e-15 0)
(3 3.8648e-15 0)
(3 4.81734e-15 0)
(3 4.1288e-15 0)
(3 4.68511e-15 0)
(3 4.61195e-15 0)
(3 2.23508e-15 0)
(3 1.01092e-15 0)
(3 7.93571e-16 0)
(3 -4.30888e-16 0)
(3 -5.37949e-16 0)
(3 3.08346e-16 0)
(3 1.07705e-15 0)
(3 1.86368e-15 0)
(3 2.03874e-15 0)
(3 1.23397e-15 0)
(3 5.69859e-16 0)
(3 1.46794e-15 0)
(3 3.23014e-15 0)
(3 3.87241e-15 0)
(3 5.12585e-15 0)
(3 3.22276e-15 0)
(3 5.07394e-15 0)
(3 3.95135e-15 0)
(3 3.5031e-15 0)
(3 2.71402e-15 0)
(3 2.17239e-15 0)
(3 2.4073e-16 0)
(3 1.87465e-16 0)
(3 8.67081e-16 0)
(3 9.00496e-16 0)
(3 1.56387e-16 0)
(3 -1.35722e-15 0)
(3 -1.33563e-15 0)
(3 -4.87467e-16 0)
(3 9.42242e-16 0)
(3 3.03067e-15 0)
(3 2.44499e-15 0)
(3 2.78965e-15 0)
(3 4.20081e-15 0)
(3 5.8214e-15 0)
(3 5.70356e-15 0)
(3 5.81219e-15 0)
(3 4.7313e-15 0)
(3 5.8948e-15 0)
(3 3.76793e-15 0)
(3 3.91193e-16 0)
(3 -5.27912e-16 0)
(3 7.84674e-16 0)
(3 1.27534e-15 0)
(3 1.15682e-15 0)
(3 1.46023e-15 0)
(3 -4.21966e-15 0)
(3 -4.16663e-15 0)
(3 -2.77075e-15 0)
(3 2.01875e-15 0)
(3 3.06375e-15 0)
(3 2.78311e-15 0)
(3 3.14597e-15 0)
(3 5.20496e-15 0)
(3 6.94017e-15 0)
(3 7.99773e-15 0)
(3 5.86206e-15 0)
(3 4.33144e-15 0)
(3 4.25157e-15 0)
(3 4.62452e-15 0)
(3 2.91824e-15 0)
(3 1.19277e-15 0)
(3 1.06798e-15 0)
(3 5.76578e-16 0)
(3 7.39006e-16 0)
(3 2.42703e-15 0)
(3 -1.62648e-15 0)
(3 -1.43238e-15 0)
(3 -1.67519e-15 0)
(3 5.00518e-16 0)
(3 5.4446e-16 0)
(3 2.19557e-15 0)
(3 3.74213e-15 0)
(3 3.59174e-15 0)
(3 6.01268e-15 0)
(3 7.48758e-15 0)
(3 4.87711e-15 0)
(3 3.40335e-15 0)
(3 1.7659e-15 0)
(3 1.65899e-15 0)
(3 2.25226e-15 0)
(3 1.20775e-15 0)
(3 -1.18131e-15 0)
(3 -2.17849e-15 0)
(3 -1.02688e-15 0)
(3 8.59586e-16 0)
(3 9.21492e-16 0)
(3 5.17086e-16 0)
(3 -5.01935e-16 0)
(3 -1.67419e-15 0)
(3 -4.05519e-17 0)
(3 -1.07546e-16 0)
(3 1.53192e-16 0)
(3 1.74792e-15 0)
(3 5.70851e-15 0)
(3 5.96419e-15 0)
(3 5.09279e-15 0)
(3 2.47886e-15 0)
(3 1.95698e-15 0)
(3 2.78374e-16 0)
(3 -1.01425e-15 0)
(3 -1.17949e-15 0)
(3 -2.42674e-15 0)
(3 -3.16142e-15 0)
(3 -1.78675e-15 0)
(3 -5.7328e-17 0)
(3 2.65016e-15 0)
(3 1.98679e-15 0)
(3 1.68378e-15 0)
(3 5.04897e-16 0)
(3 2.0201e-15 0)
(3 1.40783e-15 0)
(3 2.24919e-15 0)
(3 1.95305e-15 0)
(3 1.72406e-15 0)
(3 3.47368e-15 0)
(3 4.11154e-15 0)
(3 2.41663e-15 0)
(3 1.68664e-15 0)
(3 1.83084e-16 0)
(3 -2.77274e-15 0)
(3 -3.01175e-15 0)
(3 -2.36945e-15 0)
(3 -1.47345e-15 0)
(3 -4.54443e-16 0)
(3 5.6747e-16 0)
(3 1.91367e-15 0)
(3 5.90208e-16 0)
(3 8.87816e-16 0)
(3 1.89006e-15 0)
(3 1.23381e-15 0)
(3 1.28684e-15 0)
(3 2.09264e-15 0)
(3 2.11076e-15 0)
(3 1.84391e-15 0)
(3 1.09052e-15 0)
(3 1.19976e-15 0)
(3 1.08502e-15 0)
(3 7.49705e-16 0)
(3 -3.79692e-16 0)
(3 -1.51149e-15 0)
(3 -1.42565e-15 0)
(3 -1.66426e-15 0)
(3 -1.5334e-15 0)
(3 -1.5543e-16 0)
(3 1.42428e-15 0)
(3 2.22141e-15 0)
(3 9.11211e-16 0)
(3 9.65335e-16 0)
(3 3.27929e-15 0)
(3 1.86964e-16 0)
(3 1.12972e-15 0)
(3 2.65617e-16 0)
(3 1.11964e-15 0)
(3 1.72722e-15 0)
(3 -4.10541e-16 0)
(3 -6.20001e-16 0)
(3 -1.55701e-16 0)
(3 -2.6736e-16 0)
(3 -4.77209e-17 0)
(3 3.11926e-16 0)
(3 8.5061e-16 0)
(3 7.43886e-16 0)
(3 2.86414e-16 0)
(3 1.56915e-15 0)
(3 2.06397e-15 0)
(3 1.01325e-15 0)
(3 1.38654e-15 0)
(3 2.34473e-15 0)
(3 2.45877e-15 0)
(3 2.98923e-15 0)
(3 3.33115e-15 0)
(3 2.55073e-15 0)
(3 8.95754e-16 0)
(3 -4.72023e-16 0)
(3 -1.84791e-16 0)
(3 -1.1014e-15 0)
(3 -9.00737e-16 0)
(3 -4.97194e-16 0)
(3 1.02391e-16 0)
(3 8.8559e-16 0)
(3 1.54008e-15 0)
(3 1.51477e-15 0)
(3 1.45767e-15 0)
(3 2.72811e-15 0)
(3 2.67352e-15 0)
(3 -4.21536e-16 0)
(3 2.49921e-15 0)
(3 4.29699e-15 0)
(3 3.11249e-15 0)
(3 3.09239e-15 0)
(3 2.43993e-15 0)
(3 1.04211e-15 0)
(3 -4.38166e-17 0)
(3 -1.57746e-15 0)
(3 2.96279e-16 0)
(3 -2.87134e-17 0)
(3 -6.11204e-16 0)
(3 -3.56521e-16 0)
(3 2.04789e-16 0)
(3 1.73852e-15 0)
(3 1.63912e-15 0)
(3 2.4634e-15 0)
(3 1.55435e-15 0)
(3 9.58004e-16 0)
(3 7.3645e-16 0)
(3 1.92592e-15 0)
(3 3.75708e-15 0)
(3 3.30107e-15 0)
(3 2.06647e-15 0)
(3 7.89306e-16 0)
(3 2.20966e-16 0)
(3 -8.65602e-16 0)
(3 -8.581e-16 0)
(3 -1.74203e-15 0)
(3 -9.45376e-16 0)
(3 -2.33671e-16 0)
(3 -2.81996e-16 0)
(3 -2.223e-16 0)
(3 -3.53215e-16 0)
(3 2.20479e-16 0)
(3 3.88196e-16 0)
(3 1.96791e-15 0)
(3 2.59763e-15 0)
(3 3.46459e-16 0)
(3 -7.81947e-16 0)
(3 3.89273e-15 0)
(3 2.87478e-15 0)
(3 6.42414e-16 0)
(3 -9.44532e-16 0)
(3 -1.26548e-15 0)
(3 -5.36731e-16 0)
(3 -1.06128e-15 0)
(3 -8.5914e-16 0)
(3 -1.67795e-15 0)
(3 -2.46911e-15 0)
(3 -2.04928e-15 0)
(3 -1.54658e-15 0)
(3 -1.53617e-15 0)
(3 -8.82156e-16 0)
(3 -1.48349e-15 0)
(3 2.50585e-17 0)
(3 2.57195e-15 0)
(3 3.01091e-15 0)
(3 -9.77641e-17 0)
(3 -1.28299e-15 0)
(3 1.71546e-15 0)
(3 5.619e-16 0)
(3 -8.27084e-16 0)
(3 1.29227e-16 0)
(3 -3.1534e-16 0)
(3 -1.84969e-15 0)
(3 -1.25783e-15 0)
(3 -3.10939e-15 0)
(3 -2.96905e-15 0)
(3 -2.26279e-15 0)
(3 -2.27544e-15 0)
(3 -1.86043e-15 0)
(3 -1.48089e-15 0)
(3 -2.42275e-16 0)
(3 -7.08182e-16 0)
(3 2.06521e-15 0)
(3 2.66486e-15 0)
(3 2.11266e-15 0)
(3 5.08847e-17 0)
(3 -6.11865e-16 0)
(3 -4.69793e-16 0)
(3 -7.65044e-16 0)
(3 5.49113e-16 0)
(3 8.87828e-16 0)
(3 2.28723e-17 0)
(3 -5.75133e-17 0)
(3 1.46483e-16 0)
(3 -1.59102e-15 0)
(3 -1.61869e-15 0)
(3 -1.44971e-15 0)
(3 -1.72231e-15 0)
(3 -9.04349e-16 0)
(3 7.84731e-17 0)
(3 1.81188e-16 0)
(3 1.56316e-15 0)
(3 1.01094e-15 0)
(3 6.72087e-16 0)
(3 2.34171e-15 0)
(3 1.28179e-15 0)
(3 1.02353e-16 0)
(3 -1.70544e-15 0)
(3 -2.4808e-16 0)
(3 2.23436e-15 0)
(3 1.09285e-15 0)
(3 6.15624e-16 0)
(3 6.78837e-16 0)
(3 -7.28224e-16 0)
(3 5.04431e-16 0)
(3 5.09519e-17 0)
(3 -1.22951e-15 0)
(3 -2.42986e-16 0)
(3 7.70928e-16 0)
(3 9.25536e-16 0)
(3 2.30586e-15 0)
(3 2.5351e-15 0)
(3 9.8618e-16 0)
(3 1.03966e-15 0)
(3 7.35416e-16 0)
(3 1.58675e-16 0)
(3 -1.06123e-15 0)
(3 -2.86358e-15 0)
(3 2.35255e-16 0)
(3 2.00202e-15 0)
(3 1.55497e-15 0)
(3 1.01431e-15 0)
(3 -1.45751e-16 0)
(3 -1.15085e-15 0)
(3 1.26245e-15 0)
(3 7.95838e-16 0)
(3 -7.67919e-16 0)
(3 -1.12451e-15 0)
(3 -2.9262e-16 0)
(3 1.64867e-15 0)
(3 1.66151e-15 0)
(3 1.58432e-15 0)
(3 1.82327e-15 0)
(3 1.41144e-15 0)
(3 -5.7364e-16 0)
(3 -8.63538e-16 0)
(3 -1.83032e-15 0)
(3 -1.42426e-15 0)
(3 -1.19482e-15 0)
(3 -5.28852e-17 0)
(3 8.88494e-16 0)
(3 5.12006e-16 0)
(3 3.19157e-16 0)
(3 1.02878e-15 0)
(3 1.68507e-15 0)
(3 1.4943e-15 0)
(3 1.01572e-15 0)
(3 -4.77909e-17 0)
(3 2.14074e-16 0)
(3 6.12902e-16 0)
(3 1.19999e-15 0)
(3 3.1835e-15 0)
(3 4.34387e-15 0)
(3 3.20371e-15 0)
(3 1.97062e-15 0)
(3 4.34134e-16 0)
(3 -2.11723e-15 0)
(3 6.03302e-16 0)
(3 -3.54338e-16 0)
(3 -8.09584e-16 0)
(3 -6.40756e-17 0)
(3 -1.15277e-16 0)
(3 6.8942e-16 0)
(3 1.90722e-15 0)
(3 2.60155e-15 0)
(3 2.93768e-15 0)
(3 3.27559e-15 0)
(3 2.92925e-15 0)
(3 1.83293e-15 0)
(3 7.29564e-16 0)
(3 1.6523e-15 0)
(3 3.64835e-15 0)
(3 3.82646e-15 0)
(3 2.42336e-15 0)
(3 2.15751e-15 0)
(3 4.93118e-16 0)
(3 -1.96177e-15 0)
(3 7.51427e-16 0)
(3 1.6937e-16 0)
(3 -6.47373e-16 0)
(3 -4.41466e-16 0)
(3 4.07396e-16 0)
(3 6.11998e-16 0)
(3 2.06274e-15 0)
(3 2.63347e-15 0)
(3 2.99075e-15 0)
(3 3.50288e-15 0)
(3 2.63516e-15 0)
(3 7.71091e-16 0)
(3 1.36946e-16 0)
(3 1.63014e-16 0)
(3 1.26111e-15 0)
(3 1.06047e-15 0)
(3 -5.24651e-16 0)
(3 1.02734e-16 0)
(3 1.49877e-15 0)
(3 6.05073e-16 0)
(3 9.59597e-17 0)
(3 -1.30535e-15 0)
(3 -1.16798e-15 0)
(3 -4.91048e-16 0)
(3 6.97331e-16 0)
(3 2.54197e-15 0)
(3 3.66772e-15 0)
(3 3.24472e-15 0)
(3 2.39952e-15 0)
(3 8.63053e-16 0)
(3 2.28814e-15 0)
(3 1.85467e-15 0)
(3 2.24484e-15 0)
(3 2.5658e-15 0)
(3 1.15407e-15 0)
(3 4.49684e-16 0)
(3 4.45593e-16 0)
(3 5.91773e-16 0)
(3 1.02013e-15 0)
(3 1.71489e-16 0)
(3 -7.5467e-16 0)
(3 -1.45333e-15 0)
(3 -1.51052e-15 0)
(3 -2.79475e-16 0)
(3 -8.91312e-17 0)
(3 1.96413e-15 0)
(3 4.69781e-15 0)
(3 4.52382e-15 0)
(3 3.00119e-15 0)
(3 2.4113e-15 0)
(3 3.28611e-15 0)
(3 4.16153e-15 0)
(3 3.34738e-15 0)
(3 2.29309e-15 0)
(3 8.66194e-16 0)
(3 1.25752e-15 0)
(3 1.17773e-15 0)
(3 8.26195e-16 0)
(3 -8.16895e-16 0)
(3 -1.21998e-15 0)
(3 -1.53227e-15 0)
(3 -1.95615e-15 0)
(3 -1.80633e-15 0)
(3 -1.73678e-15 0)
(3 -1.72641e-15 0)
(3 -7.64753e-16 0)
(3 3.84263e-17 0)
(3 7.83403e-16 0)
(3 2.85348e-15 0)
(3 3.74445e-15 0)
(3 3.49348e-15 0)
(3 3.4791e-15 0)
(3 2.78202e-15 0)
(3 1.2376e-15 0)
(3 9.42054e-16 0)
(3 5.76433e-16 0)
(3 7.70025e-17 0)
(3 -4.92411e-16 0)
(3 -1.02713e-15 0)
(3 -1.68954e-15 0)
(3 -1.92214e-15 0)
(3 -2.19607e-15 0)
(3 -2.68108e-15 0)
(3 -3.60581e-15 0)
(3 -2.31354e-15 0)
(3 -2.44074e-15 0)
(3 -2.6686e-15 0)
(3 -2.91061e-15 0)
(3 -1.17348e-15 0)
(3 1.56262e-15 0)
(3 2.73784e-15 0)
(3 2.50977e-15 0)
(3 2.41837e-15 0)
(3 1.49061e-15 0)
(3 1.29378e-15 0)
(3 1.23294e-15 0)
(3 3.80429e-17 0)
(3 -7.35787e-16 0)
(3 -1.15897e-15 0)
(3 -1.88219e-15 0)
(3 -5.96623e-16 0)
(3 -9.4579e-16 0)
(3 -2.31482e-15 0)
(3 -2.68517e-15 0)
(3 -1.65879e-15 0)
(3 -2.45867e-15 0)
(3 -2.17417e-15 0)
(3 -2.26009e-15 0)
(3 -1.8462e-15 0)
(3 -3.59726e-16 0)
(3 9.61387e-16 0)
(3 6.1564e-16 0)
(3 9.95359e-16 0)
(3 1.2021e-15 0)
(3 1.74258e-15 0)
(3 2.63795e-15 0)
(3 2.52309e-15 0)
(3 1.94646e-15 0)
(3 6.07087e-16 0)
(3 -8.14824e-17 0)
(3 2.40779e-15 0)
(3 2.51673e-15 0)
(3 1.12106e-16 0)
(3 -5.71053e-16 0)
(3 -1.41504e-15 0)
(3 -1.78657e-15 0)
(3 -1.50193e-15 0)
(3 -1.86618e-15 0)
(3 -1.93213e-15 0)
(3 -4.07772e-16 0)
(3 -9.33828e-17 0)
(3 -8.82703e-16 0)
(3 -5.94351e-16 0)
(3 1.5509e-15 0)
(3 1.8662e-15 0)
(3 1.95318e-15 0)
(3 3.60966e-15 0)
(3 3.24669e-15 0)
(3 2.78337e-15 0)
(3 1.13844e-15 0)
(3 9.38185e-16 0)
(3 9.67126e-16 0)
(3 1.52171e-16 0)
(3 -7.77439e-16 0)
(3 -2.25119e-15 0)
(3 -2.50679e-15 0)
(3 -2.86344e-15 0)
(3 -2.6126e-15 0)
(3 -2.20629e-15 0)
(3 -7.31286e-16 0)
(3 1.58042e-16 0)
(3 1.8632e-16 0)
(3 -7.06869e-17 0)
(3 1.72001e-16 0)
(3 7.09555e-16 0)
(3 6.03739e-16 0)
(3 3.81265e-16 0)
(3 2.5641e-16 0)
(3 1.0681e-15 0)
(3 -2.50773e-16 0)
(3 -3.00862e-15 0)
(3 -2.45368e-15 0)
(3 -7.30356e-16 0)
(3 -1.31901e-16 0)
(3 -1.29723e-15 0)
(3 -2.80345e-15 0)
(3 -4.77277e-15 0)
(3 -1.94996e-15 0)
(3 -8.93119e-16 0)
(3 -7.3893e-16 0)
(3 -1.58772e-15 0)
(3 -1.49505e-16 0)
(3 9.04929e-16 0)
(3 3.00643e-17 0)
(3 -5.27956e-16 0)
(3 -1.14974e-15 0)
(3 -1.39745e-15 0)
(3 -4.06918e-16 0)
(3 1.26609e-15 0)
(3 1.8907e-15 0)
(3 -3.43503e-15 0)
(3 -1.51311e-15 0)
(3 7.77516e-16 0)
(3 9.27086e-16 0)
(3 -2.63187e-16 0)
(3 -1.36226e-15 0)
(3 -1.43127e-15 0)
(3 3.07662e-16 0)
(3 1.94429e-16 0)
(3 -5.86611e-16 0)
(3 -3.04296e-15 0)
(3 -2.39331e-15 0)
(3 -4.01958e-16 0)
(3 3.59009e-16 0)
(3 -1.39979e-16 0)
(3 -8.21811e-16 0)
(3 -8.08578e-16 0)
(3 -3.33791e-16 0)
(3 -4.31905e-17 0)
(3 -5.35364e-16 0)
(3 -2.11591e-15 0)
(3 -1.4719e-15 0)
(3 -4.36991e-16 0)
(3 -3.22081e-16 0)
(3 1.68723e-16 0)
(3 -7.87902e-17 0)
(3 3.1286e-16 0)
(3 5.12605e-16 0)
(3 -1.92903e-15 0)
(3 -2.34075e-15 0)
(3 -2.62293e-15 0)
(3 -2.28826e-15 0)
(3 -2.78851e-15 0)
(3 -2.40689e-15 0)
(3 -1.89585e-15 0)
(3 -1.87113e-15 0)
(3 -1.58474e-15 0)
(3 -2.27873e-15 0)
(3 -3.88212e-15 0)
(3 -6.08889e-15 0)
(3 8.51128e-16 0)
(3 9.6069e-16 0)
(3 1.1206e-15 0)
(3 1.88067e-15 0)
(3 3.31026e-15 0)
(3 1.92402e-15 0)
(3 -2.62088e-16 0)
(3 -1.62852e-15 0)
(3 -5.22772e-16 0)
(3 -1.58972e-15 0)
(3 -1.6168e-15 0)
(3 -1.72294e-15 0)
(3 -6.46003e-16 0)
(3 -3.5184e-16 0)
(3 -7.90326e-17 0)
(3 7.0692e-16 0)
(3 7.89647e-16 0)
(3 -1.44483e-15 0)
(3 -4.36002e-15 0)
(3 -5.55692e-15 0)
(3 2.37439e-15 0)
(3 4.17544e-15 0)
(3 4.32692e-15 0)
(3 5.4894e-15 0)
(3 4.83478e-15 0)
(3 4.17731e-15 0)
(3 5.33127e-16 0)
(3 -1.8279e-15 0)
(3 -4.70572e-16 0)
(3 -1.64585e-15 0)
(3 -1.13631e-15 0)
(3 2.63633e-16 0)
(3 9.38791e-16 0)
(3 2.12781e-15 0)
(3 2.2732e-15 0)
(3 9.07139e-16 0)
(3 5.18371e-16 0)
(3 -1.22487e-16 0)
(3 -1.22528e-15 0)
(3 -1.41022e-15 0)
(3 1.70627e-15 0)
(3 2.49464e-15 0)
(3 2.77227e-15 0)
(3 3.68988e-15 0)
(3 2.13396e-15 0)
(3 1.51559e-15 0)
(3 7.64347e-17 0)
(3 -1.20976e-15 0)
(3 -9.59465e-16 0)
(3 -3.93729e-16 0)
(3 7.3034e-16 0)
(3 1.45769e-15 0)
(3 1.20105e-15 0)
(3 1.64821e-16 0)
(3 -1.13394e-15 0)
(3 -1.52314e-15 0)
(3 -9.92329e-16 0)
(3 2.01718e-16 0)
(3 7.84619e-16 0)
(3 1.19075e-15 0)
(3.20817 -0.137615 0)
(3.18659 -0.142559 0)
(3.17891 -0.142826 0)
(3.16686 -0.139012 0)
(3.15702 -0.134464 0)
(3.1543 -0.130186 0)
(3.16449 -0.120358 0)
(3.17852 -0.097663 0)
(3.17778 -0.0772396 0)
(3.16959 -0.0654105 0)
(3.1603 -0.0542574 0)
(3.14946 -0.0423831 0)
(3.13637 -0.0361441 0)
(3.12103 -0.0372028 0)
(3.10867 -0.0440171 0)
(3.10713 -0.0479399 0)
(3.11007 -0.0475667 0)
(3.10849 -0.047809 0)
(3.10874 -0.0478809 0)
(3.11268 -0.0454063 0)
(3.12138 -0.0386435 0)
(3.12872 -0.0319746 0)
(3.12953 -0.0293916 0)
(3.12812 -0.0264476 0)
(3.12484 -0.0252354 0)
(3.12125 -0.0282083 0)
(3.11941 -0.0317704 0)
(3.11968 -0.0344251 0)
(3.12234 -0.0372379 0)
(3.13011 -0.039176 0)
(3.13947 -0.039574 0)
(3.1443 -0.0399537 0)
(3.14518 -0.0413064 0)
(3.14291 -0.0430745 0)
(3.13901 -0.0445814 0)
(3.1337 -0.045995 0)
(3.12769 -0.046287 0)
(3.12231 -0.0454478 0)
(3.11654 -0.0441711 0)
(3.11167 -0.0428192 0)
(3.1095 -0.0396239 0)
(3.11396 -0.0328737 0)
(2.19958 1.11077 0)
(2.19973 1.10599 0)
(2.19915 1.1043 0)
(2.19998 1.10221 0)
(2.2005 1.09983 0)
(2.19909 1.09979 0)
(2.19732 1.10429 0)
(2.19749 1.10887 0)
(2.20012 1.11006 0)
(2.20354 1.10484 0)
(2.20494 1.09847 0)
(2.20675 1.09907 0)
(2.21104 1.09733 0)
(2.22592 1.08605 0)
(2.24131 1.06906 0)
(2.24904 1.05932 0)
(2.25441 1.06781 0)
(2.26045 1.07225 0)
(2.27811 1.06721 0)
(2.29813 1.05134 0)
(2.3082 1.03574 0)
(2.30904 1.04479 0)
(2.30618 1.05717 0)
(2.3173 1.04673 0)
(2.34179 1.01092 0)
(2.35749 0.978489 0)
(2.36047 0.968309 0)
(2.35914 0.967641 0)
(2.35788 0.95552 0)
(2.37734 0.926749 0)
(2.40026 0.902753 0)
(2.41995 0.885077 0)
(2.42003 0.881428 0)
(2.40696 0.882928 0)
(2.38809 0.878722 0)
(2.36372 0.864379 0)
(2.33549 0.842765 0)
(2.33573 0.820886 0)
(2.34202 0.792672 0)
(2.35466 0.778327 0)
(2.37114 0.781764 0)
(2.39356 0.786056 0)
(2.42282 0.775098 0)
(2.46615 0.757716 0)
(2.50612 0.745152 0)
(2.54173 0.746095 0)
(2.57001 0.754448 0)
(2.59593 0.7639 0)
(2.61963 0.771507 0)
(2.64239 0.774833 0)
(2.64925 0.762655 0)
(2.63745 0.735346 0)
(2.6116 0.692868 0)
(2.60426 0.663516 0)
(2.61542 0.656277 0)
(2.62963 0.657489 0)
(2.65171 0.652782 0)
(2.68317 0.646907 0)
(2.71821 0.639911 0)
(2.74046 0.631046 0)
(2.75623 0.627307 0)
(2.77429 0.627013 0)
(2.78946 0.626181 0)
(2.80092 0.617508 0)
(2.7972 0.592898 0)
(2.7792 0.559265 0)
(2.77036 0.5353 0)
(2.77515 0.532249 0)
(2.78362 0.534948 0)
(2.80629 0.544418 0)
(2.83838 0.560177 0)
(2.85975 0.565451 0)
(2.87012 0.561488 0)
(2.8818 0.543385 0)
(2.87885 0.506171 0)
(2.85708 0.455081 0)
(2.84486 0.418871 0)
(2.85006 0.412683 0)
(2.85798 0.417268 0)
(2.87182 0.42507 0)
(2.88981 0.431339 0)
(2.90237 0.431104 0)
(2.9144 0.429835 0)
(2.92882 0.429332 0)
(2.95199 0.431903 0)
(2.97407 0.432699 0)
(2.98302 0.429688 0)
(2.99102 0.425282 0)
(2.99566 0.416108 0)
(2.97817 0.390433 0)
(2.93958 0.348537 0)
(2.92868 0.324523 0)
(2.93395 0.322017 0)
(2.94842 0.32343 0)
(2.97244 0.330725 0)
(2.99289 0.333099 0)
(3.00847 0.328098 0)
(3.01689 0.318446 0)
(3.02597 0.31273 0)
(3.03348 0.311192 0)
(3.0377 0.310643 0)
(3.03888 0.307239 0)
(3.02907 0.290139 0)
(3.013 0.265632 0)
(3.01459 0.258755 0)
(3.01975 0.258793 0)
(3.03096 0.255164 0)
(3.04703 0.253704 0)
(3.05705 0.250087 0)
(3.06577 0.244291 0)
(3.07142 0.239356 0)
(3.07683 0.234155 0)
(3.07941 0.231677 0)
(3.08032 0.229749 0)
(3.07356 0.220964 0)
(3.0589 0.204172 0)
(3.05851 0.199187 0)
(3.06175 0.198197 0)
(3.06558 0.197485 0)
(3.07447 0.197413 0)
(3.08285 0.197635 0)
(3.08818 0.195525 0)
(3.09802 0.188075 0)
(3.10514 0.175264 0)
(3.10861 0.167521 0)
(3.11551 0.155414 0)
(3.11653 0.140466 0)
(3.10978 0.126285 0)
(3.11314 0.123776 0)
(3.11659 0.124195 0)
(3.11858 0.123949 0)
(3.12184 0.121329 0)
(3.13125 0.111693 0)
(3.14302 0.0980012 0)
(3.14725 0.0946073 0)
(3.15315 0.0902965 0)
(3.15286 0.0901398 0)
(3.14156 0.0934959 0)
(3.12295 0.0933509 0)
(3.10817 0.0850674 0)
(3.10315 0.0763308 0)
(3.10322 0.0723992 0)
(3.10457 0.0713902 0)
(3.10562 0.0724525 0)
(3.10415 0.0728774 0)
(3.09344 0.0748972 0)
(3.07599 0.0875173 0)
(3.06698 0.0947352 0)
(3.06629 0.091473 0)
(3.0757 0.0811099 0)
(3.0935 0.0633792 0)
(3.12216 0.0327932 0)
(3.16169 -0.0124279 0)
(3.20077 -0.0442203 0)
(3.22433 -0.0562615 0)
(3.22985 -0.0581075 0)
(3.21697 -0.0554626 0)
(3.18628 -0.0503175 0)
(3.16917 -0.043497 0)
(3.16746 -0.0393902 0)
(3.16764 -0.0352507 0)
(3.16999 -0.0364601 0)
(3.17574 -0.0423648 0)
(3.18047 -0.0495832 0)
(3.17869 -0.0578336 0)
(3.17038 -0.0683502 0)
(3.17258 -0.0734135 0)
(3.17845 -0.0758673 0)
(3.18516 -0.0799971 0)
(3.19372 -0.0819445 0)