/*--------------------------------*- C++ -*----------------------------------*\
  =========                 |
  \\      /  F ield         | OpenFOAM: The Open Source CFD Toolbox
   \\    /   O peration     | Website:  https://openfoam.org
    \\  /    A nd           | Version:  7
     \\/     M anipulation  |
\*---------------------------------------------------------------------------*/
FoamFile
{
    version     2.0;
    format      ascii;
    class       volVectorField;
    location    "1.5";
    object      U;
}
// * * * * * * * * * * * * * * * * * * * * * * * * * * * * * * * * * * * * * //

dimensions      [0 1 -1 0 0 0 0];

internalField   nonuniform List<vector> 
4128
(
(2.66076 -0.605221 0)
(2.63304 -0.50424 0)
(2.60116 -0.401224 0)
(2.59864 -0.319825 0)
(2.56788 -0.339742 0)
(2.56595 -0.324137 0)
(2.56434 -0.279892 0)
(2.55532 -0.237601 0)
(2.58886 -0.187499 0)
(2.56084 -0.159123 0)
(2.51681 -0.13067 0)
(2.48781 -0.0929872 0)
(2.48057 -0.0660704 0)
(2.45693 -0.0541207 0)
(2.44676 -0.0573879 0)
(2.47418 -0.0486559 0)
(2.49084 -0.0285736 0)
(2.48274 -0.0241269 0)
(2.47485 -0.0253361 0)
(2.45944 -0.0280148 0)
(2.44265 -0.0342035 0)
(2.4249 -0.0337102 0)
(2.40234 -0.0223075 0)
(2.38581 -0.0134113 0)
(2.37601 -0.0109232 0)
(2.3822 -0.0134736 0)
(2.40122 -0.0174614 0)
(2.41892 -0.0186647 0)
(2.41895 -0.0172984 0)
(2.41397 -0.0151515 0)
(2.402 -0.0112287 0)
(2.39197 -0.0100784 0)
(2.38871 -0.0108853 0)
(2.38804 -0.0122491 0)
(2.39555 -0.0114151 0)
(2.41072 -0.00753801 0)
(2.41159 -0.00520065 0)
(2.40626 -0.00516895 0)
(2.40105 -0.00698893 0)
(2.39533 -0.0107926 0)
(2.39617 -0.0119724 0)
(2.39792 -0.0112658 0)
(2.39865 -0.00785302 0)
(2.39956 -0.00399531 0)
(2.40008 -0.00298125 0)
(2.4036 -0.00365264 0)
(2.40852 -0.00370294 0)
(2.41092 -0.00309011 0)
(2.41143 -0.00207012 0)
(2.41043 -0.000887862 0)
(2.40924 0.000173398 0)
(2.40866 -0.00118674 0)
(2.40981 -0.0013594 0)
(2.41145 -0.0027551 0)
(1.35242 0.0270879 0)
(0.827999 0.0331455 0)
(0.723327 0.0344287 0)
(0.64161 0.0313196 0)
(0.573091 0.028605 0)
(0.515235 0.0272073 0)
(0.465042 0.0251893 0)
(0.422572 0.0237157 0)
(0.390469 0.0238167 0)
(0.363751 0.0223924 0)
(0.338967 0.0210912 0)
(0.314837 0.019682 0)
(0.291551 0.0186823 0)
(0.269652 0.0175746 0)
(0.248745 0.0163027 0)
(0.226046 0.015225 0)
(0.201627 0.0143094 0)
(0.176498 0.0132017 0)
(0.155469 0.0121147 0)
(0.139669 0.0112498 0)
(0.127259 0.0100974 0)
(0.115456 0.00897577 0)
(0.10223 0.00813353 0)
(0.0878029 0.00755775 0)
(0.073961 0.0069482 0)
(0.0622206 0.00657442 0)
(0.0534894 0.00574346 0)
(0.045358 0.00499368 0)
(0.0375084 0.00403288 0)
(0.0310996 0.00337523 0)
(0.0253292 0.0030354 0)
(0.0203902 0.00250033 0)
(0.0148171 0.00270531 0)
(0.00609413 0.00288768 0)
(2.91358 -0.766555 0)
(2.96154 -0.806108 0)
(2.87549 -0.728507 0)
(2.80623 -0.585601 0)
(2.77083 -0.483668 0)
(2.75054 -0.428502 0)
(2.70593 -0.362578 0)
(2.66246 -0.259952 0)
(2.65262 -0.208669 0)
(2.60203 -0.145157 0)
(2.56297 -0.110154 0)
(2.54825 -0.0964532 0)
(2.54062 -0.0612078 0)
(2.52883 -0.0329139 0)
(2.52929 -0.041139 0)
(2.55152 -0.0345218 0)
(2.53875 -0.00688724 0)
(2.52032 -0.000836565 0)
(2.49799 -0.0118433 0)
(2.48567 -0.042148 0)
(2.48329 -0.0681958 0)
(2.4786 -0.0681185 0)
(2.45841 -0.053505 0)
(2.44328 -0.021633 0)
(2.43977 -0.000685862 0)
(2.44058 0.00317573 0)
(2.44763 6.69684e-05 0)
(2.45647 -0.00853099 0)
(2.45413 -0.0131063 0)
(2.44749 -0.0127879 0)
(2.4387 -0.0107153 0)
(2.43018 -0.00888661 0)
(2.42634 -0.00952806 0)
(2.42408 -0.0104858 0)
(2.42779 -0.00795996 0)
(2.43638 -0.00176181 0)
(2.43365 0.00066696 0)
(2.42985 0.000818533 0)
(2.4248 -0.00185781 0)
(2.42085 -0.0106796 0)
(2.4212 -0.0155915 0)
(2.4212 -0.0166685 0)
(2.41972 -0.0137174 0)
(2.42001 -0.00710108 0)
(2.42224 -0.00156762 0)
(2.42446 -0.000475963 0)
(2.42622 -0.00147059 0)
(2.42744 -0.00228335 0)
(2.42788 -0.0015455 0)
(2.42778 0.000276359 0)
(2.42827 0.00267198 0)
(2.42937 0.0052996 0)
(2.42935 0.00527446 0)
(2.42929 0.00497098 0)
(1.44524 0.141839 0)
(0.832474 0.137133 0)
(0.717913 0.114866 0)
(0.645936 0.0969096 0)
(0.590261 0.0838341 0)
(0.543033 0.0767604 0)
(0.498598 0.0701257 0)
(0.460318 0.0530389 0)
(0.428234 0.0356296 0)
(0.400088 0.0311686 0)
(0.374277 0.0314588 0)
(0.347999 0.0316846 0)
(0.321985 0.0309492 0)
(0.297553 0.0314719 0)
(0.274269 0.0339139 0)
(0.249273 0.0357942 0)
(0.223089 0.0349063 0)
(0.196609 0.0315621 0)
(0.173876 0.0268082 0)
(0.155989 0.0233816 0)
(0.141215 0.0205663 0)
(0.127772 0.0172759 0)
(0.113682 0.0149811 0)
(0.0986506 0.015025 0)
(0.0836461 0.016116 0)
(0.0696169 0.0176432 0)
(0.0583733 0.0165772 0)
(0.048591 0.0151384 0)
(0.0397448 0.0129929 0)
(0.0329371 0.0109158 0)
(0.0271067 0.00936388 0)
(0.0215373 0.00843635 0)
(0.0154748 0.00851054 0)
(0.00599079 0.00909798 0)
(2.91663 -0.394345 0)
(2.91877 -0.44834 0)
(2.91622 -0.473057 0)
(2.93303 -0.499355 0)
(2.90438 -0.59142 0)
(2.88211 -0.695449 0)
(2.85996 -0.679049 0)
(2.83732 -0.596754 0)
(2.80217 -0.545392 0)
(2.77007 -0.495488 0)
(2.75245 -0.405076 0)
(2.73635 -0.327728 0)
(2.69363 -0.242007 0)
(2.66767 -0.181209 0)
(2.6574 -0.160577 0)
(2.64388 -0.132313 0)
(2.6085 -0.0735161 0)
(2.58813 -0.0396257 0)
(2.56311 -0.046776 0)
(2.56052 -0.0619976 0)
(2.55486 -0.0488124 0)
(2.54465 -0.0313281 0)
(2.53765 -0.0215011 0)
(2.5365 -0.0195209 0)
(2.53723 -0.0198387 0)
(2.53224 -0.0363672 0)
(2.52865 -0.0517903 0)
(2.52354 -0.0507309 0)
(2.52002 -0.0467074 0)
(2.50915 -0.0374261 0)
(2.49867 -0.0324979 0)
(2.49303 -0.0335682 0)
(2.48595 -0.0387663 0)
(2.4833 -0.0435233 0)
(2.48607 -0.0375505 0)
(2.4882 -0.0211602 0)
(2.48526 -0.0129003 0)
(2.48148 -0.00920851 0)
(2.47567 -0.00862517 0)
(2.47064 -0.011722 0)
(2.46853 -0.0126702 0)
(2.46479 -0.0120139 0)
(2.46255 -0.009982 0)
(2.46284 -0.0102357 0)
(2.4663 -0.0137182 0)
(2.47069 -0.0158912 0)
(2.47159 -0.0145611 0)
(2.47142 -0.0116063 0)
(2.47078 -0.00537878 0)
(2.47078 0.000363915 0)
(2.47107 0.00148355 0)
(2.47085 -0.00155655 0)
(2.47056 -0.00696939 0)
(2.47089 -0.00959597 0)
(1.73766 0.217501 0)
(0.920052 0.230214 0)
(0.78035 0.188639 0)
(0.712617 0.156237 0)
(0.662206 0.128647 0)
(0.621042 0.110287 0)
(0.580309 0.0963498 0)
(0.537165 0.0873762 0)
(0.494373 0.0818822 0)
(0.4573 0.0781946 0)
(0.426052 0.0754844 0)
(0.395401 0.0727067 0)
(0.363569 0.0693545 0)
(0.332994 0.0670261 0)
(0.305826 0.0673057 0)
(0.280096 0.0671421 0)
(0.254176 0.0629542 0)
(0.2258 0.0580094 0)
(0.197812 0.0530715 0)
(0.173568 0.0488043 0)
(0.153012 0.044455 0)
(0.136206 0.0390592 0)
(0.121115 0.0343347 0)
(0.106668 0.0316886 0)
(0.0924571 0.0295802 0)
(0.0767952 0.0299484 0)
(0.0611318 0.0284755 0)
(0.049052 0.0263762 0)
(0.0394156 0.0231427 0)
(0.0325894 0.0205256 0)
(0.0271886 0.0179667 0)
(0.0218622 0.0156515 0)
(0.0158451 0.0142898 0)
(0.00583855 0.0143754 0)
(2.83799 -0.15384 0)
(2.85276 -0.323587 0)
(2.83846 -0.385228 0)
(2.88738 -0.501312 0)
(2.89065 -0.564693 0)
(2.88659 -0.567371 0)
(2.87567 -0.603445 0)
(2.8619 -0.630948 0)
(2.85762 -0.621673 0)
(2.84398 -0.616403 0)
(2.82393 -0.59203 0)
(2.8002 -0.551998 0)
(2.78025 -0.499766 0)
(2.77378 -0.454454 0)
(2.75369 -0.390094 0)
(2.72282 -0.32033 0)
(2.69351 -0.241474 0)
(2.68226 -0.177628 0)
(2.67458 -0.168127 0)
(2.66342 -0.169724 0)
(2.62011 -0.128531 0)
(2.59923 -0.0879096 0)
(2.59745 -0.0699783 0)
(2.60271 -0.0368827 0)
(2.60202 -0.0249951 0)
(2.58973 -0.0328824 0)
(2.57516 -0.0388706 0)
(2.57235 -0.0381826 0)
(2.56554 -0.0310584 0)
(2.55456 -0.0214849 0)
(2.54958 -0.0212387 0)
(2.54455 -0.024282 0)
(2.54051 -0.0322013 0)
(2.54002 -0.0370332 0)
(2.54054 -0.0324707 0)
(2.53813 -0.027056 0)
(2.53588 -0.023932 0)
(2.53284 -0.0208566 0)
(2.5279 -0.0203488 0)
(2.52233 -0.0213826 0)
(2.51869 -0.0220917 0)
(2.51221 -0.0215599 0)
(2.50758 -0.0179065 0)
(2.50746 -0.0129935 0)
(2.51095 -0.0106181 0)
(2.51732 -0.0118153 0)
(2.52084 -0.0143241 0)
(2.52058 -0.0146328 0)
(2.51979 -0.0125849 0)
(2.51809 -0.00827876 0)
(2.51586 -0.00564409 0)
(2.51429 -0.00623373 0)
(2.51323 -0.00671693 0)
(2.51396 -0.00964783 0)
(2.15863 0.222103 0)
(1.04882 0.303435 0)
(0.888399 0.23882 0)
(0.836475 0.199363 0)
(0.785406 0.170883 0)
(0.741729 0.14867 0)
(0.695941 0.133931 0)
(0.647939 0.119935 0)
(0.601617 0.10551 0)
(0.559272 0.0981528 0)
(0.521789 0.0964493 0)
(0.484574 0.0937621 0)
(0.4447 0.0885058 0)
(0.404654 0.0841886 0)
(0.368835 0.0840755 0)
(0.337387 0.0859782 0)
(0.306805 0.0856184 0)
(0.274828 0.0819378 0)
(0.242459 0.075573 0)
(0.211795 0.0704086 0)
(0.184742 0.0640802 0)
(0.161825 0.0578662 0)
(0.142691 0.0521787 0)
(0.125622 0.0480117 0)
(0.109107 0.0442843 0)
(0.09166 0.0418394 0)
(0.0719222 0.0404134 0)
(0.0563498 0.0373394 0)
(0.0446667 0.0335336 0)
(0.0365934 0.0300708 0)
(0.0301222 0.0265636 0)
(0.0238278 0.0232191 0)
(0.0167396 0.0206944 0)
(0.0055555 0.0202756 0)
(2.73585 -0.0646299 0)
(2.74928 -0.0870251 0)
(2.75871 -0.109031 0)
(2.81423 -0.215453 0)
(2.83815 -0.329583 0)
(2.82693 -0.378678 0)
(2.82152 -0.452639 0)
(2.81396 -0.484319 0)
(2.81881 -0.537786 0)
(2.81787 -0.567808 0)
(2.81931 -0.586169 0)
(2.81693 -0.598714 0)
(2.81651 -0.608205 0)
(2.81444 -0.604548 0)
(2.80029 -0.580618 0)
(2.77274 -0.531997 0)
(2.74432 -0.45962 0)
(2.73352 -0.386375 0)
(2.73383 -0.337374 0)
(2.71679 -0.323023 0)
(2.66669 -0.254751 0)
(2.64293 -0.182203 0)
(2.64848 -0.168985 0)
(2.63981 -0.117917 0)
(2.6336 -0.0846026 0)
(2.62457 -0.0724109 0)
(2.60104 -0.0702875 0)
(2.58934 -0.0706875 0)
(2.58043 -0.0625606 0)
(2.57567 -0.0437334 0)
(2.57375 -0.0331365 0)
(2.57197 -0.0312124 0)
(2.57416 -0.0332042 0)
(2.57344 -0.0299306 0)
(2.5665 -0.0272847 0)
(2.56333 -0.0256682 0)
(2.56076 -0.0191944 0)
(2.56094 -0.0163286 0)
(2.55931 -0.0189813 0)
(2.55697 -0.0242268 0)
(2.55211 -0.0247265 0)
(2.54466 -0.0226939 0)
(2.5393 -0.0187778 0)
(2.5381 -0.0161619 0)
(2.539 -0.0160554 0)
(2.5423 -0.0177448 0)
(2.54821 -0.0203444 0)
(2.55156 -0.0187141 0)
(2.55043 -0.0142338 0)
(2.54836 -0.0103232 0)
(2.54511 -0.0052893 0)
(2.54145 -0.00045979 0)
(2.53939 0.00175303 0)
(2.53948 -0.00178908 0)
(2.52065 0.0809387 0)
(1.22044 0.324343 0)
(0.975426 0.267194 0)
(0.947807 0.228986 0)
(0.903402 0.207989 0)
(0.859067 0.19009 0)
(0.811883 0.175243 0)
(0.764893 0.160635 0)
(0.718255 0.149783 0)
(0.673463 0.147486 0)
(0.631089 0.150761 0)
(0.587221 0.15208 0)
(0.539598 0.147774 0)
(0.491366 0.13966 0)
(0.447108 0.133348 0)
(0.409372 0.130019 0)
(0.374815 0.124995 0)
(0.340881 0.116476 0)
(0.304175 0.107762 0)
(0.265823 0.101521 0)
(0.229791 0.094579 0)
(0.19814 0.0871269 0)
(0.172278 0.0795066 0)
(0.150295 0.072834 0)
(0.130158 0.0662209 0)
(0.110329 0.0599105 0)
(0.0874871 0.0555837 0)
(0.0688856 0.0501547 0)
(0.0542872 0.0456077 0)
(0.043494 0.041502 0)
(0.0350097 0.0366884 0)
(0.0268972 0.0321543 0)
(0.0177745 0.0286488 0)
(0.00513679 0.0275298 0)
(2.61815 0.162312 0)
(2.65494 0.0842518 0)
(2.71126 -0.0249611 0)
(2.75073 -0.168911 0)
(2.76233 -0.194702 0)
(2.75242 -0.200356 0)
(2.78341 -0.305319 0)
(2.78104 -0.412057 0)
(2.77573 -0.439999 0)
(2.78512 -0.48151 0)
(2.79281 -0.514878 0)
(2.79161 -0.517271 0)
(2.8035 -0.538204 0)
(2.81719 -0.564738 0)
(2.80889 -0.592129 0)
(2.79238 -0.593422 0)
(2.78265 -0.592405 0)
(2.77416 -0.582054 0)
(2.76992 -0.563398 0)
(2.7581 -0.534167 0)
(2.73137 -0.47522 0)
(2.69882 -0.355016 0)
(2.69788 -0.29902 0)
(2.67592 -0.216744 0)
(2.65533 -0.135133 0)
(2.64248 -0.11367 0)
(2.61511 -0.091698 0)
(2.59266 -0.101065 0)
(2.58466 -0.0930936 0)
(2.58417 -0.0723673 0)
(2.58311 -0.0663448 0)
(2.58459 -0.0683164 0)
(2.58658 -0.0587572 0)
(2.58588 -0.0449485 0)
(2.57822 -0.0399443 0)
(2.57268 -0.036515 0)
(2.56947 -0.0313597 0)
(2.56684 -0.0308494 0)
(2.56637 -0.032172 0)
(2.57045 -0.0332085 0)
(2.5673 -0.0313479 0)
(2.56165 -0.0297221 0)
(2.55683 -0.0275078 0)
(2.55076 -0.0244749 0)
(2.54968 -0.0219208 0)
(2.55043 -0.0205654 0)
(2.55444 -0.0175242 0)
(2.5617 -0.0128678 0)
(2.56347 -0.00929764 0)
(2.56165 -0.00815849 0)
(2.56017 -0.00734973 0)
(2.55626 -0.00598472 0)
(2.55051 -0.00546174 0)
(2.54644 -0.00499499 0)
(2.56175 0.000853298 0)
(1.41505 0.314651 0)
(0.984072 0.285332 0)
(0.973271 0.265448 0)
(0.955434 0.246547 0)
(0.927811 0.229999 0)
(0.895453 0.213514 0)
(0.860272 0.198795 0)
(0.823839 0.187407 0)
(0.786773 0.182111 0)
(0.748961 0.183022 0)
(0.708331 0.183382 0)
(0.66175 0.178085 0)
(0.610601 0.169076 0)
(0.559902 0.162247 0)
(0.513193 0.160371 0)
(0.470367 0.159772 0)
(0.428496 0.156031 0)
(0.385065 0.147601 0)
(0.340527 0.136858 0)
(0.297423 0.124409 0)
(0.257111 0.113431 0)
(0.221759 0.10435 0)
(0.191397 0.09653 0)
(0.164637 0.0880849 0)
(0.139659 0.0793529 0)
(0.112841 0.072479 0)
(0.0897705 0.0644393 0)
(0.0700577 0.0601369 0)
(0.0539237 0.0560301 0)
(0.0427088 0.0492724 0)
(0.031621 0.0432265 0)
(0.0198011 0.0383791 0)
(0.00534607 0.0365412 0)
(2.54256 0.221187 0)
(2.58236 0.179514 0)
(2.58364 0.160976 0)
(2.65032 0.0450739 0)
(2.68967 -0.0619856 0)
(2.71269 -0.124811 0)
(2.73239 -0.210454 0)
(2.72488 -0.266724 0)
(2.71701 -0.281153 0)
(2.72869 -0.315938 0)
(2.75773 -0.372585 0)
(2.76189 -0.412781 0)
(2.77687 -0.459604 0)
(2.78444 -0.503145 0)
(2.79414 -0.515093 0)
(2.78925 -0.534731 0)
(2.77206 -0.575431 0)
(2.77047 -0.59862 0)
(2.772 -0.595354 0)
(2.779 -0.587615 0)
(2.78193 -0.585644 0)
(2.7765 -0.558282 0)
(2.76449 -0.511396 0)
(2.74223 -0.451068 0)
(2.72083 -0.384793 0)
(2.69559 -0.319913 0)
(2.65113 -0.235907 0)
(2.61947 -0.194368 0)
(2.60825 -0.169534 0)
(2.59972 -0.108409 0)
(2.60141 -0.0997775 0)
(2.60438 -0.0953313 0)
(2.59441 -0.0698389 0)
(2.59383 -0.0556888 0)
(2.58693 -0.0476411 0)
(2.58082 -0.0425141 0)
(2.57494 -0.0372541 0)
(2.5652 -0.0388677 0)
(2.56286 -0.0450452 0)
(2.57177 -0.0487662 0)
(2.57176 -0.0456254 0)
(2.56822 -0.0430981 0)
(2.56284 -0.0383275 0)
(2.5561 -0.0325741 0)
(2.5546 -0.0294237 0)
(2.55532 -0.0268971 0)
(2.55983 -0.0211176 0)
(2.56717 -0.0160098 0)
(2.5681 -0.0158055 0)
(2.56539 -0.0173492 0)
(2.56293 -0.0190809 0)
(2.55788 -0.0190838 0)
(2.55192 -0.0151847 0)
(2.54963 -0.00941288 0)
(2.55339 -0.0115073 0)
(1.6672 0.298112 0)
(0.989665 0.290145 0)
(0.97031 0.271086 0)
(0.97274 0.257926 0)
(0.962722 0.246077 0)
(0.946518 0.235904 0)
(0.926815 0.226368 0)
(0.904345 0.219821 0)
(0.878412 0.218269 0)
(0.848805 0.220691 0)
(0.814063 0.225696 0)
(0.772092 0.227928 0)
(0.723909 0.22483 0)
(0.673057 0.219954 0)
(0.622969 0.216574 0)
(0.574849 0.213814 0)
(0.527154 0.210354 0)
(0.479096 0.201092 0)
(0.42961 0.18696 0)
(0.378649 0.17144 0)
(0.328386 0.157528 0)
(0.282173 0.145425 0)
(0.242259 0.134004 0)
(0.207593 0.122074 0)
(0.175623 0.110613 0)
(0.145204 0.098512 0)
(0.11463 0.0892493 0)
(0.0900941 0.0821925 0)
(0.0703753 0.0722954 0)
(0.0529397 0.065942 0)
(0.0385876 0.0571876 0)
(0.0234199 0.050576 0)
(0.00639468 0.0484332 0)
(2.44389 0.352381 0)
(2.45732 0.329038 0)
(2.52862 0.223467 0)
(2.59348 0.0921166 0)
(2.62098 0.0465931 0)
(2.63199 0.0229053 0)
(2.6652 -0.0660832 0)
(2.66583 -0.133415 0)
(2.68414 -0.207559 0)
(2.70416 -0.275065 0)
(2.72384 -0.295693 0)
(2.73283 -0.312939 0)
(2.75208 -0.355713 0)
(2.76195 -0.400528 0)
(2.77007 -0.43072 0)
(2.76905 -0.445053 0)
(2.75609 -0.484178 0)
(2.7518 -0.517915 0)
(2.75467 -0.520913 0)
(2.77343 -0.537119 0)
(2.7794 -0.543907 0)
(2.78879 -0.553664 0)
(2.78751 -0.561358 0)
(2.78184 -0.564738 0)
(2.77084 -0.557384 0)
(2.7543 -0.531382 0)
(2.73074 -0.485078 0)
(2.69383 -0.391721 0)
(2.66928 -0.323505 0)
(2.6353 -0.205284 0)
(2.64189 -0.165408 0)
(2.63156 -0.115754 0)
(2.6131 -0.0762051 0)
(2.60206 -0.076644 0)
(2.59007 -0.0691538 0)
(2.58413 -0.0604472 0)
(2.58137 -0.0488148 0)
(2.57294 -0.0456008 0)
(2.5657 -0.0502007 0)
(2.57081 -0.0559656 0)
(2.57525 -0.0524159 0)
(2.57451 -0.0474687 0)
(2.57052 -0.0412029 0)
(2.56615 -0.0372868 0)
(2.56398 -0.0383803 0)
(2.56219 -0.0363251 0)
(2.56502 -0.0285896 0)
(2.57096 -0.0200666 0)
(2.5706 -0.0177456 0)
(2.56814 -0.0188562 0)
(2.56392 -0.0216799 0)
(2.55724 -0.0232035 0)
(2.55234 -0.0202845 0)
(2.55243 -0.0153683 0)
(2.55528 -0.0160452 0)
(1.99658 0.264651 0)
(1.02771 0.297099 0)
(0.97495 0.269516 0)
(0.988602 0.255475 0)
(0.986819 0.243132 0)
(0.979612 0.236188 0)
(0.969864 0.236744 0)
(0.957937 0.237269 0)
(0.942117 0.239985 0)
(0.921256 0.248867 0)
(0.895333 0.258387 0)
(0.863469 0.262586 0)
(0.825422 0.262146 0)
(0.78285 0.258616 0)
(0.737006 0.255504 0)
(0.688312 0.256263 0)
(0.638838 0.254403 0)
(0.587646 0.248123 0)
(0.532932 0.238028 0)
(0.475499 0.22286 0)
(0.41797 0.204915 0)
(0.36325 0.187584 0)
(0.313485 0.172419 0)
(0.269247 0.157606 0)
(0.228822 0.143253 0)
(0.19115 0.129053 0)
(0.152517 0.118604 0)
(0.122417 0.103233 0)
(0.0939665 0.0940289 0)
(0.0686827 0.084939 0)
(0.0477673 0.0756234 0)
(0.028194 0.0668454 0)
(0.00828789 0.0640465 0)
(2.35468 0.445062 0)
(2.37832 0.407409 0)
(2.47006 0.299548 0)
(2.52727 0.203966 0)
(2.54615 0.161138 0)
(2.59172 0.0628894 0)
(2.61682 -0.0273809 0)
(2.62129 -0.0356857 0)
(2.62915 -0.0663652 0)
(2.66847 -0.145728 0)
(2.68346 -0.177999 0)
(2.69827 -0.210191 0)
(2.7249 -0.268807 0)
(2.73408 -0.302817 0)
(2.73641 -0.325322 0)
(2.73674 -0.363805 0)
(2.73197 -0.397083 0)
(2.73481 -0.445361 0)
(2.74099 -0.473346 0)
(2.75016 -0.476343 0)
(2.7703 -0.501685 0)
(2.7795 -0.518612 0)
(2.78261 -0.518169 0)
(2.78513 -0.545941 0)
(2.76781 -0.570488 0)
(2.76597 -0.56738 0)
(2.76598 -0.559574 0)
(2.76032 -0.545735 0)
(2.7442 -0.515638 0)
(2.7206 -0.451396 0)
(2.7048 -0.367627 0)
(2.69259 -0.309481 0)
(2.65684 -0.212368 0)
(2.63588 -0.160348 0)
(2.62906 -0.163674 0)
(2.61607 -0.138366 0)
(2.6105 -0.103467 0)
(2.60137 -0.0721721 0)
(2.59145 -0.0583497 0)
(2.58079 -0.0530193 0)
(2.57611 -0.0490035 0)
(2.57499 -0.042374 0)
(2.57446 -0.039565 0)
(2.57322 -0.0428115 0)
(2.57184 -0.0477578 0)
(2.57031 -0.0453658 0)
(2.57185 -0.0373155 0)
(2.57416 -0.0286537 0)
(2.5746 -0.0224976 0)
(2.57235 -0.0187096 0)
(2.56599 -0.0211371 0)
(2.56062 -0.0273704 0)
(2.55878 -0.0287803 0)
(2.55718 -0.0258266 0)
(2.55894 -0.0199491 0)
(2.33581 0.166773 0)
(1.10503 0.293117 0)
(0.987269 0.260941 0)
(0.998955 0.251664 0)
(0.997207 0.244799 0)
(0.994591 0.242614 0)
(0.992289 0.24289 0)
(0.986902 0.245655 0)
(0.978005 0.25271 0)
(0.964784 0.264761 0)
(0.946317 0.278723 0)
(0.922365 0.292854 0)
(0.893956 0.3007 0)
(0.861877 0.303261 0)
(0.825772 0.30327 0)
(0.784725 0.302882 0)
(0.738209 0.304935 0)
(0.688094 0.304045 0)
(0.634828 0.296144 0)
(0.57715 0.281873 0)
(0.515359 0.264227 0)
(0.45299 0.245935 0)
(0.393559 0.228336 0)
(0.339258 0.210391 0)
(0.289708 0.192352 0)
(0.242815 0.176064 0)
(0.200077 0.156872 0)
(0.158286 0.140818 0)
(0.120149 0.127106 0)
(0.0887275 0.111511 0)
(0.0601788 0.0998051 0)
(0.036047 0.0877351 0)
(0.0117157 0.0850493 0)
(2.24456 0.537581 0)
(2.32728 0.459432 0)
(2.42395 0.335078 0)
(2.47413 0.256848 0)
(2.4828 0.237883 0)
(2.50695 0.183783 0)
(2.55979 0.0884375 0)
(2.58086 0.0394362 0)
(2.60901 -0.0218762 0)
(2.63429 -0.0851001 0)
(2.64573 -0.0953073 0)
(2.6609 -0.11563 0)
(2.69021 -0.177816 0)
(2.69989 -0.208909 0)
(2.69517 -0.22812 0)
(2.70523 -0.302796 0)
(2.7062 -0.339652 0)
(2.70548 -0.35071 0)
(2.72362 -0.377562 0)
(2.73611 -0.405727 0)
(2.74855 -0.419178 0)
(2.75873 -0.456255 0)
(2.76328 -0.466388 0)
(2.76834 -0.466424 0)
(2.7632 -0.501213 0)
(2.75172 -0.519415 0)
(2.75063 -0.525286 0)
(2.753 -0.526118 0)
(2.75567 -0.532015 0)
(2.75908 -0.533894 0)
(2.75731 -0.522622 0)
(2.74748 -0.496983 0)
(2.72625 -0.449635 0)
(2.7069 -0.38988 0)
(2.67596 -0.299314 0)
(2.64018 -0.203383 0)
(2.63836 -0.184123 0)
(2.64241 -0.139281 0)
(2.60971 -0.0772694 0)
(2.59637 -0.0543353 0)
(2.58533 -0.041592 0)
(2.57869 -0.0359634 0)
(2.57092 -0.0393365 0)
(2.57097 -0.0446332 0)
(2.57647 -0.0503646 0)
(2.57741 -0.0473225 0)
(2.5786 -0.0429203 0)
(2.58115 -0.0402138 0)
(2.58389 -0.0310717 0)
(2.57776 -0.0239904 0)
(2.56738 -0.0258877 0)
(2.56272 -0.0282905 0)
(2.5589 -0.0336746 0)
(2.56057 -0.0343152 0)
(2.56194 -0.023917 0)
(2.53199 0.0446348 0)
(1.19519 0.266482 0)
(0.98523 0.244319 0)
(0.996963 0.245353 0)
(0.996877 0.24838 0)
(0.994869 0.251119 0)
(0.994303 0.25343 0)
(0.994575 0.2594 0)
(0.991253 0.269009 0)
(0.982304 0.280439 0)
(0.96812 0.294602 0)
(0.950417 0.308743 0)
(0.931288 0.319822 0)
(0.909764 0.328122 0)
(0.884017 0.334537 0)
(0.852679 0.342358 0)
(0.816401 0.3463 0)
(0.774617 0.347753 0)
(0.7272 0.346282 0)
(0.674117 0.338118 0)
(0.614543 0.323881 0)
(0.550673 0.305591 0)
(0.486325 0.286399 0)
(0.42491 0.26612 0)
(0.367362 0.24504 0)
(0.313648 0.22266 0)
(0.262438 0.200511 0)
(0.211818 0.179975 0)
(0.163585 0.161252 0)
(0.119919 0.144717 0)
(0.0819097 0.128443 0)
(0.0476484 0.117132 0)
(0.0159678 0.113725 0)
(2.18511 0.576332 0)
(2.29396 0.466122 0)
(2.36103 0.380102 0)
(2.37112 0.36603 0)
(2.40458 0.315441 0)
(2.47392 0.211327 0)
(2.51609 0.147638 0)
(2.52132 0.138566 0)
(2.55218 0.0845543 0)
(2.58707 0.0151203 0)
(2.60409 -0.0127305 0)
(2.63416 -0.060496 0)
(2.65505 -0.121903 0)
(2.66241 -0.148016 0)
(2.65842 -0.150447 0)
(2.66126 -0.201343 0)
(2.6716 -0.260431 0)
(2.67551 -0.269072 0)
(2.69359 -0.289347 0)
(2.70814 -0.315097 0)
(2.71878 -0.320316 0)
(2.73249 -0.352748 0)
(2.73679 -0.398371 0)
(2.74253 -0.406601 0)
(2.7493 -0.436967 0)
(2.74162 -0.484176 0)
(2.73687 -0.491957 0)
(2.74614 -0.507714 0)
(2.7566 -0.519758 0)
(2.76062 -0.531969 0)
(2.76819 -0.529134 0)
(2.76735 -0.529156 0)
(2.7605 -0.529514 0)
(2.75109 -0.52089 0)
(2.73922 -0.494325 0)
(2.72004 -0.450166 0)
(2.69776 -0.376759 0)
(2.66911 -0.26113 0)
(2.659 -0.216518 0)
(2.66941 -0.190888 0)
(2.62562 -0.136008 0)
(2.60116 -0.0938681 0)
(2.59071 -0.0902064 0)
(2.58734 -0.075427 0)
(2.59018 -0.0483404 0)
(2.58682 -0.04008 0)
(2.58441 -0.041792 0)
(2.58482 -0.0407206 0)
(2.5831 -0.0344917 0)
(2.57571 -0.0310487 0)
(2.56628 -0.0306694 0)
(2.56248 -0.0330801 0)
(2.55965 -0.0382045 0)
(2.55986 -0.0367378 0)
(2.56401 -0.0260393 0)
(2.58514 -0.0136247 0)
(1.2772 0.234999 0)
(0.965711 0.236574 0)
(0.977826 0.240298 0)
(0.983896 0.247391 0)
(0.987196 0.255433 0)
(0.990721 0.264135 0)
(0.993163 0.274856 0)
(0.991368 0.286989 0)
(0.983386 0.297667 0)
(0.971541 0.310278 0)
(0.957459 0.323095 0)
(0.941456 0.335866 0)
(0.924601 0.34883 0)
(0.906798 0.359407 0)
(0.887275 0.367224 0)
(0.862887 0.377847 0)
(0.831931 0.389027 0)
(0.795608 0.392866 0)
(0.752543 0.390108 0)
(0.701577 0.381715 0)
(0.642776 0.368102 0)
(0.579057 0.351213 0)
(0.514399 0.3314 0)
(0.450741 0.30944 0)
(0.388627 0.286041 0)
(0.328196 0.261736 0)
(0.26986 0.236637 0)
(0.21126 0.214809 0)
(0.155749 0.192631 0)
(0.108716 0.169843 0)
(0.0621783 0.155964 0)
(0.0210369 0.151007 0)
(2.15622 0.579057 0)
(2.23867 0.487361 0)
(2.2731 0.459989 0)
(2.29198 0.431906 0)
(2.36637 0.351274 0)
(2.42735 0.262088 0)
(2.45071 0.240345 0)
(2.46618 0.209419 0)
(2.5172 0.130355 0)
(2.54652 0.0706969 0)
(2.55992 0.0661821 0)
(2.57559 0.0391063 0)
(2.60682 -0.0324699 0)
(2.62047 -0.0798201 0)
(2.62346 -0.107209 0)
(2.63702 -0.162919 0)
(2.64539 -0.185995 0)
(2.64746 -0.195104 0)
(2.67409 -0.227305 0)
(2.6892 -0.268955 0)
(2.70202 -0.276249 0)
(2.71072 -0.284878 0)
(2.71818 -0.329182 0)
(2.71865 -0.351143 0)
(2.71904 -0.354545 0)
(2.72104 -0.398276 0)
(2.71977 -0.427997 0)
(2.72642 -0.424912 0)
(2.73857 -0.43885 0)
(2.7442 -0.46749 0)
(2.75178 -0.472583 0)
(2.75811 -0.474202 0)
(2.75403 -0.499665 0)
(2.74953 -0.506706 0)
(2.7489 -0.503825 0)
(2.74705 -0.501711 0)
(2.74214 -0.499561 0)
(2.73668 -0.476913 0)
(2.72134 -0.415108 0)
(2.70318 -0.3384 0)
(2.6646 -0.259562 0)
(2.6308 -0.193023 0)
(2.62305 -0.168565 0)
(2.59521 -0.0926518 0)
(2.59597 -0.0282931 0)
(2.59715 -0.0247252 0)
(2.59363 -0.038968 0)
(2.58245 -0.0474475 0)
(2.57583 -0.0480081 0)
(2.57395 -0.0457615 0)
(2.57077 -0.0417063 0)
(2.56661 -0.0405236 0)
(2.56521 -0.0397262 0)
(2.56383 -0.0365286 0)
(2.57014 -0.023978 0)
(2.58394 -0.0188828 0)
(1.40123 0.231786 0)
(0.951817 0.224204 0)
(0.951742 0.229924 0)
(0.970109 0.234668 0)
(0.979565 0.246633 0)
(0.98756 0.261533 0)
(0.993313 0.279696 0)
(0.991524 0.29523 0)
(0.982579 0.307505 0)
(0.970817 0.320279 0)
(0.958174 0.333533 0)
(0.945758 0.347069 0)
(0.933339 0.360294 0)
(0.918652 0.373107 0)
(0.89993 0.38618 0)
(0.882227 0.402098 0)
(0.862911 0.414681 0)
(0.838765 0.425521 0)
(0.807799 0.4324 0)
(0.769359 0.430412 0)
(0.721541 0.422929 0)
(0.66533 0.411313 0)
(0.603654 0.395475 0)
(0.539329 0.375311 0)
(0.47416 0.351103 0)
(0.409561 0.323377 0)
(0.345979 0.294181 0)
(0.281142 0.26728 0)
(0.213794 0.244193 0)
(0.146331 0.225362 0)
(0.0865854 0.20876 0)
(0.0292054 0.201639 0)
(2.11071 0.588349 0)
(2.1652 0.538747 0)
(2.18979 0.52326 0)
(2.25093 0.467138 0)
(2.32783 0.377897 0)
(2.37006 0.327431 0)
(2.38487 0.313778 0)
(2.41904 0.268114 0)
(2.47043 0.193443 0)
(2.4993 0.149475 0)
(2.51434 0.128739 0)
(2.54902 0.0668678 0)
(2.56813 0.014304 0)
(2.56547 0.00926693 0)
(2.57816 -0.0298857 0)
(2.60705 -0.0982242 0)
(2.62058 -0.125203 0)
(2.62615 -0.128837 0)
(2.64749 -0.154323 0)
(2.66596 -0.192834 0)
(2.67678 -0.207706 0)
(2.68597 -0.220369 0)
(2.69589 -0.261822 0)
(2.69427 -0.294815 0)
(2.6895 -0.301651 0)
(2.69429 -0.328967 0)
(2.70043 -0.362447 0)
(2.70912 -0.369444 0)
(2.72101 -0.377768 0)
(2.73467 -0.41018 0)
(2.73344 -0.438067 0)
(2.73799 -0.444996 0)
(2.7486 -0.475965 0)
(2.74783 -0.493045 0)
(2.74729 -0.490695 0)
(2.75027 -0.497631 0)
(2.75107 -0.500703 0)
(2.75423 -0.502773 0)
(2.7515 -0.496017 0)
(2.74445 -0.485499 0)
(2.72776 -0.461187 0)
(2.70158 -0.402978 0)
(2.67752 -0.335379 0)
(2.6499 -0.2627 0)
(2.63489 -0.174361 0)
(2.63802 -0.137294 0)
(2.63723 -0.106187 0)
(2.60789 -0.0930349 0)
(2.59505 -0.0815152 0)
(2.5883 -0.0741686 0)
(2.57981 -0.0595734 0)
(2.57502 -0.0411552 0)
(2.57391 -0.0384116 0)
(2.57484 -0.0364947 0)
(2.57974 -0.0265936 0)
(2.5819 -0.0214709 0)
(1.58956 0.226449 0)
(0.961516 0.220407 0)
(0.943703 0.217769 0)
(0.963914 0.223446 0)
(0.979361 0.237262 0)
(0.994356 0.258358 0)
(1.00089 0.281499 0)
(0.996781 0.300552 0)
(0.985216 0.315207 0)
(0.972171 0.330339 0)
(0.96103 0.345382 0)
(0.950581 0.359457 0)
(0.939133 0.373513 0)
(0.925273 0.387504 0)
(0.908907 0.401405 0)
(0.891507 0.417492 0)
(0.873536 0.434832 0)
(0.856697 0.451937 0)
(0.83732 0.462783 0)
(0.811791 0.470677 0)
(0.778789 0.470681 0)
(0.736047 0.464759 0)
(0.683903 0.454572 0)
(0.624402 0.439955 0)
(0.560128 0.420264 0)
(0.492323 0.396341 0)
(0.422492 0.369815 0)
(0.349879 0.34485 0)
(0.275315 0.319785 0)
(0.197684 0.297547 0)
(0.120917 0.278861 0)
(0.0430071 0.275507 0)
(2.0619 0.607069 0)
(2.10201 0.586658 0)
(2.14161 0.555971 0)
(2.22045 0.488233 0)
(2.28287 0.413478 0)
(2.31101 0.392093 0)
(2.32812 0.369107 0)
(2.38721 0.303424 0)
(2.43408 0.231651 0)
(2.45562 0.210963 0)
(2.4655 0.193968 0)
(2.50218 0.133925 0)
(2.53015 0.0695042 0)
(2.5373 0.0459667 0)
(2.55481 0.00762816 0)
(2.57547 -0.0369432 0)
(2.58601 -0.042888 0)
(2.59907 -0.0603101 0)
(2.62858 -0.105475 0)
(2.64548 -0.142093 0)
(2.65108 -0.151546 0)
(2.65929 -0.172819 0)
(2.67012 -0.209828 0)
(2.6706 -0.229825 0)
(2.66434 -0.248502 0)
(2.67568 -0.283289 0)
(2.68449 -0.312397 0)
(2.69074 -0.323291 0)
(2.70365 -0.322313 0)
(2.71369 -0.331515 0)
(2.71637 -0.366456 0)
(2.71497 -0.382048 0)
(2.72137 -0.395105 0)
(2.73027 -0.420326 0)
(2.73342 -0.430563 0)
(2.73555 -0.437343 0)
(2.73951 -0.46009 0)
(2.74165 -0.464336 0)
(2.74001 -0.473573 0)
(2.73812 -0.47917 0)
(2.73696 -0.483249 0)
(2.73605 -0.479767 0)
(2.73098 -0.467283 0)
(2.71993 -0.436324 0)
(2.69728 -0.364373 0)
(2.68279 -0.285551 0)
(2.66616 -0.202097 0)
(2.62547 -0.10657 0)
(2.60975 -0.0985223 0)
(2.58705 -0.0774412 0)
(2.57502 -0.0471345 0)
(2.57318 -0.039007 0)
(2.57959 -0.0409904 0)
(2.59225 -0.0395134 0)
(2.58892 -0.0347556 0)
(2.58685 -0.0323337 0)
(1.84099 0.203528 0)
(0.992158 0.212339 0)
(0.953722 0.205718 0)
(0.978614 0.213776 0)
(0.997519 0.234099 0)
(1.01456 0.260563 0)
(1.01738 0.285214 0)
(1.00973 0.306156 0)
(0.995382 0.324464 0)
(0.980929 0.342159 0)
(0.97002 0.359626 0)
(0.960397 0.375542 0)
(0.94978 0.389793 0)
(0.9366 0.403016 0)
(0.920726 0.416555 0)
(0.902719 0.43142 0)
(0.884096 0.448806 0)
(0.867431 0.467892 0)
(0.853658 0.485066 0)
(0.838883 0.496696 0)
(0.818042 0.503798 0)
(0.788136 0.50855 0)
(0.748559 0.506391 0)
(0.699923 0.498293 0)
(0.643096 0.485005 0)
(0.579381 0.466688 0)
(0.511641 0.442916 0)
(0.440197 0.417513 0)
(0.362267 0.394441 0)
(0.268909 0.385088 0)
(0.169657 0.376339 0)
(0.0550111 0.383864 0)
(2.00701 0.639866 0)
(2.04278 0.62433 0)
(2.11131 0.575514 0)
(2.18811 0.499184 0)
(2.23031 0.460438 0)
(2.24431 0.451956 0)
(2.29 0.407729 0)
(2.35375 0.332855 0)
(2.39028 0.283943 0)
(2.39863 0.276426 0)
(2.42807 0.23411 0)
(2.4695 0.161 0)
(2.48789 0.129157 0)
(2.48867 0.118079 0)
(2.51682 0.0754607 0)
(2.54779 0.0215607 0)
(2.56296 0.00568069 0)
(2.57843 -0.0139415 0)
(2.59941 -0.0551978 0)
(2.61037 -0.0687024 0)
(2.61122 -0.0748463 0)
(2.63258 -0.122434 0)
(2.64289 -0.17203 0)
(2.64471 -0.188324 0)
(2.64282 -0.195754 0)
(2.64968 -0.214823 0)
(2.66265 -0.238826 0)
(2.67561 -0.264984 0)
(2.68337 -0.284218 0)
(2.69589 -0.290923 0)
(2.69928 -0.301505 0)
(2.69909 -0.33189 0)
(2.7006 -0.350341 0)
(2.70886 -0.360692 0)
(2.7167 -0.375213 0)
(2.72246 -0.392284 0)
(2.73023 -0.422765 0)
(2.73216 -0.445063 0)
(2.72882 -0.448633 0)
(2.73425 -0.469936 0)
(2.73281 -0.48668 0)
(2.74223 -0.487297 0)
(2.74519 -0.478414 0)
(2.74883 -0.46977 0)
(2.74619 -0.462364 0)
(2.73693 -0.443013 0)
(2.71901 -0.403395 0)
(2.69387 -0.345732 0)
(2.66566 -0.287014 0)
(2.62114 -0.203896 0)
(2.60268 -0.15439 0)
(2.60631 -0.121923 0)
(2.61918 -0.0872885 0)
(2.62595 -0.053137 0)
(2.61019 -0.0474749 0)
(2.60368 -0.0459777 0)
(2.1143 0.145264 0)
(1.04069 0.178724 0)
(0.974706 0.196657 0)
(1.00975 0.210466 0)
(1.03003 0.238611 0)
(1.04183 0.270705 0)
(1.03769 0.296095 0)
(1.02495 0.316386 0)
(1.00909 0.33386 0)
(0.995614 0.351875 0)
(0.984424 0.372455 0)
(0.975206 0.392516 0)
(0.964286 0.409021 0)
(0.951413 0.421734 0)
(0.936314 0.433159 0)
(0.918391 0.445221 0)
(0.898622 0.461196 0)
(0.879708 0.480541 0)
(0.865553 0.500278 0)
(0.855433 0.516463 0)
(0.84301 0.529692 0)
(0.824724 0.538799 0)
(0.797982 0.544647 0)
(0.762019 0.54639 0)
(0.715433 0.544076 0)
(0.660109 0.535285 0)
(0.597767 0.521157 0)
(0.527898 0.507002 0)
(0.449885 0.495907 0)
(0.362976 0.4946 0)