/*--------------------------------*- C++ -*----------------------------------*\
  =========                 |
  \\      /  F ield         | OpenFOAM: The Open Source CFD Toolbox
   \\    /   O peration     | Website:  https://openfoam.org
    \\  /    A nd           | Version:  7
     \\/     M anipulation  |
\*---------------------------------------------------------------------------*/
FoamFile
{
    version     2.0;
    format      ascii;
    class       volScalarField;
    location    "3.5";
    object      p;
}
// * * * * * * * * * * * * * * * * * * * * * * * * * * * * * * * * * * * * * //

dimensions      [1 -1 -2 0 0 0 0];

internalField   nonuniform List<scalar> 
4080
(
1
1
1
1
1
1
1
1
1
1
1
1
1
1
1
1
1
1.8748
8.64022
10.8041
11.0707
11.404
11.6598
11.8742
1
1
1
1
1
1
1
1
1
1
1
1
1
1
1
1
1
1.74616
8.32446
10.7166
10.9824
11.2837
11.4982
11.5932
1
1
1
1
1
1
1
1
1
1
1
1
1
1
1
1
1
1.44131
7.71732
10.5803
10.7877
10.9978
11.0865
11.2095
1
1
1
1
1
1
1
1
1
1
1
1
1
1
1
1
1
1.04865
6.7186
10.3252
10.4804
10.6592
10.701
10.9662
1
1
1
1
1
1
1
1
1
1
1
1
1
1
1
1
1
1.00053
5.2926
9.77688
9.995
10.0326
9.46283
7.87228
1
1
1
1
1
1
1
1
1
1
1
1
1
1
1
1
1
0.999993
3.60099
9.05525
9.62333
9.36609
8.69911
7.11425
1
1
1
1
1
1
1
1
1
1
1
1
1
1
1
1
1
0.999998
1.9371
7.88583
9.34284
8.87954
8.19975
6.606
1
1
1
1
1
1
1
1
1
1
1
1
1
1
1
1
1
1
1.09459
5.9308
8.80093
8.32131
7.71068
6.37225
1
1
1
1
1
1
1
1
1
1
1
1
1
1
1
1
1
1
1.00045
3.30764
7.86654
8.10853
7.40631
6.3516
1
1
1
1
1
1
1
1
1
1
1
1
1
1
1
1
1
1
0.999995
1.37069
6.16059
8.04649
7.27091
6.3596
1
1
1
1
1
1
1
1
1
1
1
1
1
1
1
1
1
1
0.999999
1.01156
3.49031
7.37628
7.1037
6.31267
1
1
1
1
1
1
1
1
1
1
1
1
1
1
1
1
1
1
1
1.00002
1.42485
5.56351
7.16616
6.35743
1
1
1
1
1
1
1
1
1
1
1
1
1
1
1
1
1
1
1
1
1.01482
2.71303
6.30852
6.36838
1
1
1
1
1
1
1
1
1
1
1
1
1
1
1
1
1
1
1
1
1.00009
1.21743
4.22655
6.31967
1
1
1
1
1
1
1
1
1
1
1
1
1
1
1
1
1
1
1
1
1
1.00494
1.79528
4.96999
1
1
1
1
1
1
1
1
1
1
1
1
1
1
1
1
1
1
1
1
1
1.00003
1.05166
2.50756
1
1
1
1
1
1
1
1
1
1
1
1
1
1
1
1
1
1
1
1
1
1
1.00072
1.17754
1
1
1
1
1
1
1
1
1
1
1
1
1
1
1
1
1
1
1
1
1
1
1
1.00466
1
1
1
1
1
1
1
1
1
1
1
1
1
1
1
1
1
1
1
1
1
1
1
1.00003
1
1
1
1
1
1
1
1
1
1
1
1
1
1
1
1
1
1
1
1
1
1
1
1
1
1
1
1
1
1
1
1
1
1
1
1
1
1
1
1
1
1
1
1
1
1
1
1
1
1
1
1
1
1
1
1
1
1
1
1
1
1
1
1
1
1
1
1
1
1
1
1
1
1
1
1
1
1
1
1
1
1
1
1
1
1
1
1
1
1
1
1
1
1
1
1
1
1
1
1
1
1
1
1
1
1
1
1
1
1
1
1
1
1
1
1
1
1
1
1
1
1
1
1
1
1
1
1
1
1
1
1
1
1
1
1
1
1
1
1
1
1
1
1
1
1
1
1
1
1
1
1
1
1
1
1
1
1
1
1
1
1
1
1
1
1
1
1
1
1
1
1
1
1
1
1
1
1
1
1
1
1
1
1
1
1
1
1
1
1
1
1
1
1
1
1
1
1
1
1
1
1
1
1
1
1
1
1
1
1
1
1
1
1
1
1
1
1
1
1
1
1
1
1
1
1
1
1
1
1
1
1
1
1
1
1
1
1
1
1
1
1
1
1
1
1
1
1
1
1
1
1
1
1
1
1
1
1
1
1
1
1
1
1
1
1
1
1
1
1
1
1
1
1
1
1
1
1
1
1
1
1
1
1
1
1
1
1
1
1
1
1
1
1
1
1
1
1
1
1
1
1
1
1
1
1
1
1
1
1
1
1
1
1
1
1
1
1
1
1
1
1
1
1
1
1
1
1
1
1
1
1
1
1
1
1
1
1
1
1
1
1
1
1
1
1
1
1
1
1
1
1
1
1
1
1
1
1
1
1
1
1
1
1
1
1
1
1
1
1
1
1
1
1
1
1
1
1
1
1
1
1
1
1
1
1
1
1
1
1
1
1
1
1
1
1
1
1
1
1
1
1
1
1
1
1
1
1
1
1
1
1
1
1
1
1
1
1
1
1
1
1
1
1
1
1
1
1
1
1
1
1
1
1
1
1
1
1
1
1
1
1
1
1
1
1
1
1
1
1
1
1
1
1
1
1
1
1
1
1
1
1
1
1
1
1
1
1
1
1
1
1
1
1
1
1
1
1
1
1
1
1
1
1
1
1
1
1
1
1
1
1
1
1
1
1
1
1
1
1
1
1
1
1
2.10608
0.607816
1.56411
3.3618
4.01756
4.35631
4.52251
4.5952
4.6208
4.64276
4.65813
4.67735
3.32812
1.68325
2.46515
4.1291
4.39858
4.48768
4.56357
4.61551
4.63297
4.6605
4.6738
4.69411
4.27276
2.5931
2.48812
3.68699
4.28632
4.34177
4.47376
4.56919
4.61293
4.65703
4.66294
4.69949
4.83816
3.40719
2.73866
3.32027
4.25145
4.49222
4.66653
4.71088
4.69254
4.68605
4.67718
4.82518
5.20301
4.05282
3.07322
3.15683
3.86712
4.48708
4.70797
4.64401
4.6119
4.56869
4.42743
3.80481
5.41028
4.45119
3.48333
3.17674
3.51782
4.2463
4.71702
4.64554
4.64399
4.58092
4.4192
3.92222
5.51936
4.73424
3.88861
3.29274
3.36004
3.93238
4.62017
4.67487
4.64262
4.57925
4.39953
4.00922
5.6534
4.97959
4.23636
3.54837
3.38106
3.59928
4.37709
4.63931
4.63311
4.59297
4.44021
4.14354
5.78009
5.15073
4.52499
3.84218
3.43802
3.49535
4.00733
4.52677
4.62939
4.6128
4.4857
4.25817
5.95776
5.34015
4.78337
4.14735
3.61262
3.49393
3.69554
4.32203
4.58116
4.61127
4.52162
4.35128
5.94501
5.54074
4.97151
4.42225
3.83259
3.51462
3.58416
3.98544
4.43176
4.60497
4.55156
4.41982
5.1385
5.64129
5.21168
4.67561
4.11334
3.64358
3.56041
3.73388
4.24697
4.56033
4.57574
4.478
3.13008
5.13527
5.35462
4.9506
4.4239
3.86211
3.5995
3.64524
3.94114
4.40166
4.56534
4.5176
1.38169
3.51201
5.02459
5.12382
4.73205
4.17676
3.71082
3.62214
3.7436
4.15777
4.48853
4.54339
1.01646
1.58761
3.68738
4.87223
4.91566
4.53519
3.95916
3.66526
3.68527
3.86514
4.30189
4.51752
1.00017
1.03561
1.7434
3.73867
4.71133
4.73589
4.339
3.82921
3.68991
3.76392
4.05411
4.39157
1
1.0005
1.0559
1.84066
3.70944
4.55384
4.56711
4.17189
3.78735
3.72642
3.84534
4.19832
1
1
1.00097
1.07252
1.87991
3.6171
4.40878
4.3929
4.06007
3.78075
3.78618
3.95082
1
1
1
1.00144
1.08169
1.86463
3.49178
4.2487
4.23147
3.98288
3.80955
3.85638
1
1
1
1.00001
1.00176
1.08197
1.80937
3.32959
4.08957
4.08667
3.93773
3.856
1
1
1
1
1.00001
1.00181
1.07513
1.71854
3.16988
3.90767
3.95832
3.91372
1
1
1
1
1
1.00001
1.00159
1.06397
1.61648
2.9584
3.72631
3.86329
1
1
1
1
1
1
1.00001
1.00139
1.04767
1.50945
2.74993
3.49289
1
1
1
1
1
1
1
1.00001
1.00092
1.03518
1.40285
2.43018
1
1
1
1
1
1
1
1
1
1.00061
1.02293
1.29409
1
1
1
1
1
1
1
1
1
1
1.00031
1.01473
1
1
1
1
1
1
1
1
1
1
1
1.00017
1
1
1
1
1
1
1
1
1
1
1
1
1
1
1
1
1
1
1
1
1
1
1
1
1
1
1
1
1
1
1
1
1
1
1
1
1
1
1
1
1
1
1
1
1
1
1
1
1
1
1
1
1
1
1
1
1
1
1
1
1
1
1
1
1
1
1
1
1
1
1
1
1
1
1
1
1
1
1
1
1
1
1
1
1
1
1
1
1
1
1
1
1
1
1
1
1
1
1
1
1
1
1
1
1
1
1
1
1.5772
1.10197
1.13974
1.1934
1.30892
1.40879
1.43649
1.425
1.4162
1.41225
1.40212
1.3817
1.3617
1.34013
1.32479
1.31775
1.31634
1.32301
1.3302
1.33353
1.33027
1.32233
1.31266
1.30009
1.28807
1.28149
1.2774
1.27755
1.28112
1.28193
1.27998
1.27632
1.2711
1.26282
1.25272
1.24533
1.24136
1.23972
1.24223
1.24355
1.24145
1.2374
1.22792
1.70423
3.87841
4.42945
4.57786
4.67167
4.68962
4.68416
4.66601
4.64799
4.63516
4.62762
4.60898
4.5764
4.53588
4.49697
4.46599
4.43734
4.39654
4.33323
4.25891
4.18983
4.13396
4.09566
4.07566
4.06538
4.05568
4.0386
3.96557
3.84782
3.7187
3.61532
3.55092
3.52667
3.54019
3.56996
3.5864
3.54663
3.46226
3.3191
3.18179
3.08536
2.4813
1.81074
1.54992
1.40584
1.33224
1.31666
1.33823
1.35535
1.36701
1.37242
1.36685
1.36242
1.35712
1.34813
1.34338
1.33832
1.3345
1.33149
1.32434
1.31673
1.31191
1.30805
1.30565
1.30295
1.2993
1.29366
1.28742
1.28112
1.27605
1.2724
1.27135
1.27147
1.26937
1.26593
1.26158
1.25432
1.24479
1.2369
1.23233
1.23004
1.23237
1.23481
1.23107
1.60272
3.78771
4.50513
4.64433
4.73747
4.74826
4.72529
4.69946
4.67426
4.64986
4.62506
4.59364
4.55571
4.51242
4.46721
4.43058
4.4052
4.38478
4.34858
4.28262
4.19935
4.11572
4.04146
3.98272
3.9437
3.93033
3.93306
3.93274
3.90598
3.83886
3.74648
3.64054
3.5557
3.49993
3.46157
3.43808
3.41619
3.39335
3.35418
3.29794
3.18417
3.01642
2.18763
1.76802
1.50845
1.28975
1.24668
1.28013
1.32439
1.38233
1.40181
1.40419
1.39474
1.37532
1.35446
1.34759
1.34538
1.34372
1.33827
1.3316
1.32133
1.31096
1.30346
1.29917
1.29747
1.29844
1.29995
1.29847
1.2953
1.2889
1.27679
1.26411
1.25868
1.25637
1.25592
1.25862
1.26023
1.25889
1.25554
1.24754
1.2354
1.22581
1.22028
1.21831
1.3917
3.49836
4.65909
4.78217
4.78365
4.7538
4.70495
4.67086
4.65239
4.63796
4.61869
4.5922
4.56357
4.52971
4.47975
4.42096
4.37286
4.34373
4.32712
4.30963
4.27908
4.2233
4.14409
4.05478
3.95932
3.87049
3.8061
3.78979
3.81239
3.8398
3.83606
3.79807
3.72251
3.59089
3.42411
3.30468
3.24364
3.22583
3.26455
3.32028
3.27949
3.48084
2.67891
2.15194
1.86364
1.54069
1.40218
1.34875
1.32149
1.3208
1.3165
1.3271
1.34657
1.3526
1.35815
1.35976
1.35398
1.34469
1.33306
1.32342
1.3147
1.3067
1.30225
1.30009
1.29887
1.29805
1.29737
1.29516
1.29181
1.28565
1.27528
1.26589
1.26228
1.26013
1.25828
1.25687
1.25582
1.25427
1.25109
1.24449
1.23621
1.23066
1.22795
1.22152
1.24508
2.93161
4.87352
5.03414
4.92573
4.86704
4.77708
4.7009
4.64548
4.60664
4.58027
4.56122
4.54874
4.53645
4.50814
4.43877
4.35372
4.2873
4.24185
4.20997
4.1922
4.18586
4.16059
4.10197
4.02774
3.93485
3.832
3.77152
3.74674
3.75382
3.77017
3.75207
3.7121
3.64125
3.5131
3.36214
3.26981
3.22326
3.22738
3.27784
3.25303
3.78236
3.14879
2.55189
2.17628
1.85129
1.58078
1.46257
1.36746
1.28442
1.26488
1.27702
1.29949
1.32301
1.34473
1.37544
1.38498
1.37954
1.36667
1.34377
1.31381
1.29158
1.28699
1.28697
1.29096
1.30137
1.31047
1.31033
1.30453
1.29059
1.2719
1.2612
1.25825
1.25716
1.25667
1.25725
1.25777
1.25629
1.25069
1.23954
1.23228
1.23076
1.22974
1.22546
1.22049
2.20344
5.08798
5.54805
5.11023
4.93447
4.82707
4.76473
4.70159
4.63105
4.56752
4.51784
4.49808
4.50089
4.5058
4.46914
4.39034
4.29116
4.21584
4.15979
4.12136
4.11651
4.12782
4.09067
4.0401
3.98177
3.89163
3.79579
3.74505
3.7198
3.69688
3.65932
3.61824
3.56658
3.49672
3.41125
3.33638
3.29416
3.27319
3.26244
3.1995
4.00098
3.48693
2.94896
2.53665
2.18292
1.84832
1.6752
1.55473
1.39816
1.32841
1.32334
1.29194
1.28341
1.29374
1.31947
1.34101
1.34809
1.3545
1.35189
1.33389
1.31141
1.30387
1.29692
1.29457
1.2968
1.30176
1.3026
1.29624
1.28267
1.27035
1.26423
1.26203
1.26048
1.25924
1.25829
1.2582
1.25641
1.24707
1.23487
1.23062
1.22836
1.22497
1.22686
1.24483
1.69634
4.91282
6.23964
5.58057
5.07259
4.83893
4.73598
4.66405
4.59718
4.54166
4.4954
4.45771
4.44978
4.466
4.43805
4.37413
4.28508
4.18478
4.12706
4.08072
4.05394
4.0703
4.06497
4.02342
3.97729
3.91089
3.80908
3.71558
3.66635
3.62896
3.59518
3.5621
3.53024
3.49913
3.46619
3.41976
3.34833
3.26402
3.20496
3.12251
4.16227
3.76758
3.27743
2.85807
2.50662
2.16426
1.92395
1.75735
1.5632
1.42938
1.38647
1.33052
1.27969
1.27507
1.28295
1.29576
1.30719
1.31515
1.33262
1.33802
1.34031
1.33893
1.33235
1.32111
1.30614
1.29387
1.28392
1.27186
1.2637
1.26231
1.26414
1.26936
1.27569
1.27641
1.27307
1.26735
1.25541
1.23536
1.22522
1.22301
1.22144
1.22281
1.25233
1.44552
2.01862
3.80582
5.80749
5.85817
5.42757
5.04553
4.79532
4.61667
4.51844
4.45213
4.41222
4.39081
4.39797
4.41477
4.39834
4.34823
4.2773
4.17207
4.08147
4.03724
4.01567
4.01877
4.01905
3.98503
3.94708
3.90025
3.82644
3.72442
3.63494
3.58455
3.55491
3.53471
3.51881
3.49985
3.4726
3.43387
3.36638
3.25395
3.14417
3.05544
4.28065
3.9583
3.55188
3.16508
2.80159
2.43644
2.17589
1.99181
1.79757
1.60293
1.51983
1.44334
1.35677
1.30629
1.30734
1.29557
1.28018
1.27959
1.29439
1.31237
1.32369
1.32914
1.33893
1.33674
1.32632
1.30709
1.28631
1.27119
1.26224
1.2605
1.26184
1.26763
1.27533
1.27584
1.27248
1.26481
1.25075
1.23461
1.22591
1.22153
1.22246
1.24261
1.45175
2.17881
2.79542
3.0739
4.16965
5.17286
5.314
5.22078
5.00866
4.77984
4.57547
4.41798
4.32324
4.28575
4.28053
4.3025
4.32378
4.29707
4.25004
4.17772
4.0775
3.99566
3.95548
3.93128
3.92773
3.91962
3.88698
3.85043
3.80577
3.74202
3.6576
3.57651
3.52691
3.49866
3.47617
3.4501
3.41907
3.38197
3.3295
3.25011
3.15373
3.05916
4.36548
4.11788
3.77004
3.39809
3.06702
2.72863
2.42763
2.21775
2.00678
1.80031
1.68401
1.59988
1.4769
1.35783
1.34288
1.31447
1.27237
1.26442
1.27297
1.28745
1.30229
1.30819
1.31548
1.31946
1.31774
1.31394
1.30643
1.29487
1.28444
1.27457
1.26689
1.26482
1.26429
1.26305
1.26009
1.2547
1.24764
1.24082
1.23624
1.23582
1.2523
1.43123
2.21829
2.9594
3.17819
3.09925
3.16335
3.76359
4.5643
4.95381
4.95822
4.91483
4.72726
4.53595
4.34008
4.22539
4.1846
4.18034
4.19949
4.22195
4.20043
4.158
4.0906
4.00354
3.91718
3.86526
3.83895
3.82355
3.811
3.79018
3.76272
3.72682
3.67814
3.61056
3.52574
3.45112
3.40675
3.37549
3.34455
3.31138
3.27409
3.23245
3.18964
3.10397
4.43667
4.23586
3.94665
3.62006
3.29926
2.96671
2.66636
2.44413
2.23728
2.00982
1.85512
1.75246
1.62761
1.49195
1.43777
1.39254
1.32605
1.2852
1.28583
1.28957
1.28154
1.27949
1.28495
1.29369
1.29674
1.29876
1.30499
1.30886
1.30537
1.29697
1.28459
1.27184
1.26083
1.25109
1.24637
1.24437
1.24287
1.24222
1.24658
1.27334
1.4622
2.20457
3.09924
3.24128
3.21325
3.14124
3.02818
3.06226
3.4109
4.05205
4.5119
4.70325
4.6997
4.61859
4.44759
4.27827
4.16645
4.10521
4.09019
4.0971
4.10046
4.08899
4.05703
4.00621
3.93144
3.84628
3.77977
3.74854
3.72839
3.71495
3.70254
3.6832
3.6561
3.61544
3.54819
3.44848
3.35631
3.30829
3.2774
3.25013
3.22724
3.20984
3.1932
3.13432
4.49372
4.3438
4.10152
3.79966
3.50508
3.19934
2.89837
2.66085
2.44096
2.20904
2.04794
1.93394
1.79294
1.62188
1.54885
1.49621
1.42158
1.33558
1.31564
1.30386
1.27011
1.25924
1.26399
1.27201
1.27616
1.27929
1.28831
1.30209
1.30881
1.30704
1.30075
1.28889
1.27333
1.2524
1.24016
1.23813
1.23772
1.24198
1.27156
1.52532
2.19126
3.12318
3.33859
3.27596
3.21858
3.17506
3.08185
2.99467
2.97827
3.12407
3.51841
3.98989
4.33747
4.43096
4.4588
4.36524
4.22246
4.11282
4.0347
3.99063
3.97528
3.97304
3.96618
3.94916
3.91516
3.85842
3.77903
3.70495
3.66398
3.64305
3.6302
3.62192
3.60539
3.57834
3.53804
3.46772
3.35896
3.26692
3.2278
3.20606
3.18928
3.17885
3.16947
3.12145
4.503
4.42389
4.23801
3.97399
3.69403
3.4064
3.10819
2.86701
2.64939
2.42091
2.21836
2.09679
1.95821
1.79625
1.68585
1.61741
1.52813
1.41277
1.38412
1.36379
1.32091
1.27907
1.26801
1.27067
1.2646
1.2606
1.26474
1.27854
1.2901
1.2926
1.29226
1.29038
1.28379
1.2665
1.25082
1.24479
1.24553
1.26538
1.50984
2.3278
3.04421
3.35232
3.31422
3.23465
3.17731
3.14993
3.10689
3.01721
2.93679
2.88224
2.90893
3.07996
3.46135
3.84622
4.15929
4.1746
4.19185
4.14889
4.02948
3.94961
3.89587
3.86509
3.85112
3.84542
3.84556
3.82903
3.78116
3.70243
3.6188
3.5747
3.55778
3.54914
3.5352
3.51523
3.49122
3.45328
3.38415
3.28381
3.20393
3.17026
3.15018
3.13313
3.1191
3.07727
4.4491
4.47293
4.34686
4.12868
3.86941
3.58963
3.30845
3.06764
2.84637
2.60177
2.40864
2.27412
2.12926
1.93701
1.82619
1.75223
1.66053
1.53271
1.46163
1.43364
1.38115
1.3199
1.28838
1.28563
1.26874
1.24823
1.24883
1.25832
1.26716
1.27288
1.27779
1.28364
1.28408
1.2774
1.26613
1.26213
1.28028
1.48262
2.37938
3.18217
3.3105
3.24327
3.20946
3.18874
3.152
3.12322
3.08784
3.03059
2.92201
2.81863
2.76841
2.74844
2.80477
3.01187
3.38639
3.70532
3.90161
3.9497
3.92338
3.90802
3.83014
3.78273
3.77467
3.769
3.7608
3.74438
3.72205
3.67932
3.60491
3.52184
3.48318
3.47245
3.46203
3.44631
3.42743
3.40419
3.3692
3.30911
3.22722
3.15309
3.10523
3.07397
3.05468
3.0164
4.29117
4.46949
4.43371
4.26449
4.03322
3.77699
3.49552
3.24272
3.03071
2.80697
2.57979
2.43351
2.29192
2.11545
1.976
1.88882
1.78708
1.64417
1.57398
1.53531
1.47945
1.38642
1.33013
1.32623
1.30126
1.26705
1.25562
1.25868
1.2618
1.25989
1.25904
1.2645
1.2699
1.26979
1.272
1.30141
1.54627
2.35065
3.3224
3.40256
3.34971
3.26501
3.21959
3.18684
3.13957
3.08859
3.04043
2.98485
2.90107
2.79652
2.73474
2.69607
2.68025
2.66118
2.72876
2.92177
3.18938
3.46556
3.63561
3.70525
3.68145
3.69558
3.71527
3.68923
3.67354
3.66104
3.63438
3.60457
3.56342
3.50306
3.4287
3.39406
3.37913
3.36357
3.34543
3.32723
3.30683
3.27734
3.23037
3.163
3.08491
3.02303
2.99151
2.95149
4.08089
4.358
4.4421
4.35866
4.17801
3.94041
3.67162
3.43465
3.21955
2.96865
2.75007
2.60627
2.45909
2.26291
2.1301
2.03576
1.92659
1.7797
1.67745
1.63737
1.57514
1.48454
1.41117
1.38904
1.35313
1.29602
1.26024
1.25941
1.26074
1.25072
1.24503
1.24861
1.2548
1.26254
1.29814
1.63732
2.4255
3.35443
3.56689
3.48857
3.38456
3.27963
3.19843
3.12742
3.08797
3.04537
2.98876
2.93502
2.88158
2.81179
2.73457
2.68761
2.62779
2.5664
2.54133
2.5355
2.57533
2.71747
2.95568
3.22976
3.39398
3.47889
3.52702
3.54006
3.5521
3.55864
3.54894
3.52509
3.4967
3.46915
3.42174
3.34833
3.2933
3.26562
3.24752
3.23351
3.21974
3.20328
3.18074
3.14668
3.09127
3.01067
2.9478
2.89606
3.93072
4.18926
4.38721
4.41
4.28888
4.09878
3.85634
3.59946
3.3868
3.16562
2.93599
2.75993
2.60991
2.42355
2.2782
2.18313
2.07376
1.90481
1.80408
1.75387
1.69029
1.57887
1.49016
1.46911
1.43313
1.36859
1.305
1.2933
1.28642
1.26068
1.24332
1.24577
1.25568
1.29283
1.62695
2.5828
3.31047
3.64526
3.58936
3.46455
3.337
3.2192
3.14161
3.08878
3.05686
3.02929
2.96728
2.90604
2.85792
2.80801
2.743
2.67205
2.58977
2.50904
2.46135
2.43549
2.43002
2.42529
2.45972
2.57594
2.78665
2.99666
3.15972
3.25206
3.32733
3.36219
3.40204
3.43796
3.44232
3.41971
3.37967
3.33104
3.25946
3.18461
3.14862
3.13565
3.12926
3.1181
3.10594
3.09158
3.06784
3.01537
2.93316
2.85169
3.9059
4.01124
4.25304
4.39868
4.3736
4.23029
4.008
3.79037
3.5781
3.32462
3.09903
2.93436
2.76817
2.57215
2.42303
2.32705
2.2079
2.05675
1.92723
1.86889
1.7986
1.69472
1.59376
1.55555
1.51386
1.44268
1.36459
1.35072
1.33618
1.30143
1.26151
1.25265
1.29624
1.60568
2.63597
3.36152
3.57293
3.58178
3.50152
3.37811
3.27885
3.18628
3.11287
3.06849
3.02922
2.98845
2.9206
2.85238
2.8061
2.76147
2.70897
2.64845
2.57537
2.48598
2.4201
2.3896
2.37102
2.33625
2.31641
2.30538
2.32652
2.39331
2.53323
2.706
2.89505
3.00748
3.12037
3.23287
3.29672
3.318
3.31509
3.28662
3.2236
3.15521
3.1005
3.06288
3.05104
3.05344
3.05966
3.04358
3.02227
2.98546
2.92882
2.82797
3.91347
3.97965
4.11483
4.3094
4.38949
4.32305
4.15591
3.93043
3.73423
3.51338
3.2891
3.1086
2.92705
2.70379
2.56672
2.47168
2.36005
2.18713
2.06404
1.99765
1.92381
1.80311
1.69109
1.65726
1.6104
1.53969
1.44829
1.41473
1.38737
1.35139
1.32081
1.37321
1.79311
2.72384
3.47274
3.56881
3.52545
3.50465
3.42879
3.32828
3.25776
3.19716
3.12579
3.05383
2.98519
2.92432
2.85606
2.79923
2.7656
2.72312
2.66804
2.61534
2.56482
2.50242
2.41483
2.34748
2.30503
2.26986
2.24381
2.21797
2.20935
2.19475
2.17632
2.20998
2.29288
2.47033
2.65832
2.84197
2.96837
3.1075
3.15861
3.16931
3.1492
3.12491
3.09125
3.04972
3.01102
2.98703
2.96532
2.94081
2.92526
2.91854
2.89626
2.81824
3.74939
3.93826
4.05943
4.1917
4.3483
4.3764
4.28099
4.10097
3.90046
3.66408
3.44742
3.28436
3.1022
2.88531
2.69791
2.59701
2.48474
2.33769
2.20344
2.12137
2.039
1.92138
1.80564
1.75677
1.70896
1.63164
1.53913
1.49197
1.45833
1.41838
1.47786
2.02835
3.02195
3.68718
3.75704
3.64015
3.49734
3.41273
3.34421
3.27404
3.20878
3.15147
3.08928
3.01375
2.93401
2.86521
2.79737
2.74295
2.70804
2.66486
2.62552
2.58894
2.54771
2.49572
2.42426
2.33344
2.25402
2.2054
2.17793
2.16178
2.14653
2.12568
2.10831
2.06874
2.01748
2.03852
2.11092
2.27001
2.45063
2.6652
2.83452
2.91832
3.00108
3.02659
3.03116
3.01678
2.97047
2.92148
2.89274
2.87339
2.86336
2.84471
2.81589
2.77053
3.25705
3.81003
4.00107
4.05959
4.22659
4.35611
4.35088
4.22594
4.05132
3.82795
3.61489
3.44305
3.25797
3.02716
2.86712
2.75695
2.62618
2.44692
2.32426
2.25675
2.16648
2.03492
1.91882
1.87253
1.81069
1.73838
1.63817
1.56648
1.55238
1.67236
2.24607
3.50666
4.00052
3.99094
3.84036
3.63825
3.49171
3.37257
3.2897
3.22036
3.15146
3.09313
3.04122
2.97688
2.898
2.82144
2.74778
2.66483
2.61329
2.58248
2.55937
2.53624
2.50095
2.4564
2.39506
2.30589
2.22664
2.17479
2.1293
2.1027
2.0943
2.07943
2.05658
2.01982
1.9781
1.9316
1.88856
1.90125
1.96585
2.07778
2.28658
2.47355
2.68136
2.81346
2.87584
2.89696
2.89141
2.86392
2.81804
2.80166
2.7955
2.78036
2.76699
2.73623
2.03042
3.19746
3.82082
3.88266
4.0887
4.27961
4.31489
4.26944
4.16101
3.98742
3.77732
3.6116
3.4234
3.18857
3.01328
2.8812
2.75136
2.6031
2.47039
2.38424
2.2909
2.14713
2.0343
1.97301
1.92053
1.83552
1.73391
1.7175
1.91429
2.68812
3.81843
4.41422
4.31806
4.08727
3.86075
3.6759
3.53918
3.4226
3.32152
3.23157
3.14863
3.07924
3.02075
2.95882
2.88312
2.79087
2.68725
2.5837
2.53529
2.52532
2.51926
2.48556
2.44438
2.40127
2.33748
2.25516
2.19671
2.15695
2.11114
2.06884
2.04749
2.02406
1.98904
1.95671
1.93701
1.90066
1.85601
1.81987
1.78418
1.78803
1.82753
1.93233
2.1029
2.33821
2.54904
2.70625
2.74621
2.7401
2.72827
2.70682
2.68219
2.67018
2.68341
2.69797
1.16059
1.81948
3.06799
3.58449
3.90036
4.22929
4.33076
4.34565
4.27155
4.11854
3.91895
3.77192
3.59081
3.3563
3.18913
3.0451
2.88513
2.70107
2.6031
2.52653
2.41563
2.28214
2.15615
2.07092
2.01323
1.91553
1.92119
2.20669
3.25645
4.3484
4.75053
4.64397
4.4105
4.16726
3.97728
3.81782
3.66586
3.52083
3.38622
3.26777
3.16916
3.08835
3.01786
2.95104
2.87605
2.78122
2.67071
2.56378
2.50036
2.47021
2.43312
2.39852
2.37172
2.33697
2.26897
2.21809
2.18765
2.14609
2.08837
2.02941
1.99646
1.97165
1.93153
1.90963
1.90168
1.88808
1.85408
1.80004
1.75337
1.71426
1.67376
1.67138
1.70011
1.80379
1.98364
2.21565
2.37939
2.54419
2.60614
2.5979
2.58875
2.58413
2.59386
2.59036
1.0064
1.09638
1.70566
2.75145
3.40602
4.02123
4.27004
4.37607
4.333
4.24422
4.12181
3.95649
3.74125
3.49463
3.33784
3.20477
3.03792
2.83662
2.74171
2.646
2.52909
2.39954
2.27436
2.20169
2.1102
2.15784
2.67083
3.93227
5.00618
5.1119
4.94466
4.69848
4.46303
4.27088
4.10843
3.95527
3.79911
3.6398
3.48308
3.3394
3.2158
3.10905
3.01661
2.93357
2.85327
2.76515
2.66201
2.56165
2.49742
2.44433
2.37457
2.33103
2.30589
2.27532
2.21367
2.16887
2.15459
2.123
2.0638
1.99519
1.94776
1.91756
1.87986
1.85952
1.85245
1.8395
1.82072
1.78925
1.74015
1.6863
1.63573
1.60814
1.6008
1.60506
1.6269
1.71646
1.85324
2.04398
2.19422
2.31867
2.46728
2.51452
2.52441
2.5432
1.00006
1.00323
1.07008
1.50601
2.26148
3.45608
4.07152
4.15351
4.25878
4.28716
4.22505
4.06343
3.86938
3.63872
3.47653
3.35058
3.16649
2.9769
2.8827
2.7642
2.66153
2.51215
2.3862
2.32493
2.48348
3.34267
4.75253
5.70386
5.64088
5.35517
5.04763
4.77865
4.56941
4.40019
4.23834
4.07644
3.91274
3.74228
3.56432
3.39761
3.25897
3.14595
3.05145
2.96671
2.8792
2.78389
2.68502
2.58893
2.50113
2.4254
2.33738
2.27437
2.2425
2.20969
2.17018
2.14152
2.11393
2.07469
2.00748
1.94148
1.90246
1.87455
1.83596
1.80966
1.8034
1.7941
1.77075
1.7387
1.70975
1.67365
1.62121
1.58071
1.55828
1.54055
1.51495
1.50886
1.52715
1.59393
1.72248
1.85409
2.05335
2.21614
2.34447
2.46656
1
1.00003
1.00165
1.03891
1.24003
2.02992
3.36932
3.85871
4.17096
4.33358
4.27246
4.15468
4.02569
3.81185
3.6343
3.50364
3.2998
3.13543
3.01711
2.90002
2.77723
2.60793
2.59981
2.95647
4.14614
5.72998
6.19352
6.07875
5.76062
5.42919
5.13847
4.89899
4.70846
4.53636
4.36203
4.18507
4.00936
3.83035
3.64464
3.46616
3.31317
3.19036
3.09041
3.00716
2.92879
2.84094
2.74068
2.63221
2.52217
2.42596
2.3342
2.26102
2.21671
2.1792
2.14955
2.12124
2.08478
2.03667
1.96854
1.90061
1.86476
1.83688
1.79553
1.75978
1.75234
1.74352
1.72132
1.69517
1.66848
1.63544
1.58908
1.55061
1.52513
1.50223
1.47361
1.45409
1.45304
1.45525
1.46698
1.49976
1.59102
1.77199
1.94452
2.1975
1
1
1.00001
1.00062
1.01169
1.13375
1.96149
3.05753
3.82343
4.27554
4.36272
4.33033
4.18518
3.96231
3.82383
3.67236
3.43812
3.2711
3.13279
3.04424
2.88229
2.93294
3.65758
5.2138
6.57746
6.86847
6.66379
6.27889
5.88942
5.55253
5.26134
5.02048
4.82121
4.63901
4.45788
4.2753
4.094
3.9093
3.71923
3.53957
3.38741
3.26257
3.15043
3.04198
2.94126
2.84817
2.75564
2.65686
2.54677
2.43841
2.33968
2.27038
2.22403
2.17385
2.11755
2.0742
2.04072
1.993
1.92251
1.8681
1.83721
1.8043
1.76033
1.71473
1.70049
1.68663
1.66076
1.64339
1.62837
1.60626
1.56628
1.52263
1.49781
1.47771
1.45179
1.43496
1.42749
1.41647
1.40484
1.39139
1.391
1.42086
1.50432
1.77816
1
1
1
1
1.00014
1.00489
1.1316
1.74886
2.65506
3.92046
4.27873
4.26729
4.20744
4.10669
3.97013
3.77029
3.5607
3.38838
3.28303
3.18597
3.41602
4.64013
6.58349
7.32345
7.28977
7.0563
6.74131
6.40864
6.0708
5.71696
5.38479
5.11928
4.90511
4.713
4.52705
4.34321
4.16352
3.98335
3.79618
3.61098
3.45008
3.32174
3.20976
3.09632
2.98148
2.86993
2.76186
2.66129
2.56221
2.45965
2.36499
2.29272
2.22956
2.15934
2.09109
2.04527
2.01314
1.97165
1.90602
1.85533
1.81719
1.77486
1.72787
1.68271
1.65725
1.63353
1.60335
1.58984
1.5792
1.56182
1.53297
1.49052
1.46057
1.44179
1.41825
1.40748
1.4028
1.39408
1.38198
1.3657
1.33942
1.3111
1.31307
1.40784
1
1
1
1
1
1.00006
1.00479
1.07721
1.36244
2.61496
3.80268
4.13119
4.23429
4.21552
4.05854
3.88081
3.70054
3.53045
3.495
4.1143
6.02495
7.81529
8.31698
8.17509
7.64802
7.14397
6.76363
6.44732
6.13669
5.81808
5.51376
5.24263
4.99908
4.77761
4.57854
4.39531
4.21844
4.04158
3.8644
3.6901
3.52384
3.37136
3.23762
3.11532
2.99406
2.87928
2.77904
2.69179
2.60746
2.51308
2.41526
2.32858
2.24725
2.16511
2.09582
2.04085
1.99263
1.93908
1.88773
1.86001
1.82312
1.76621
1.70109
1.65915
1.63027
1.59932
1.56232
1.54517
1.53457
1.51976
1.4934
1.45765
1.42957
1.41075
1.39299
1.38433
1.38021
1.37347
1.3621
1.34221
1.31385
1.28162
1.26353
1.27188
1
1
1
1
1
1
1.00004
1.00154
1.02008
1.31891
2.56916
3.51432
4.14716
4.24877
4.21466
4.11754
3.84062
3.83963
4.86527
7.74284
9.03264
8.89374
8.58416
8.16339
7.73926
7.28256
6.85147
6.4998
6.19284
5.90227
5.62381
5.35475
5.09379
4.85156
4.64044
4.45314
4.27353
4.09518
3.92389
3.7605
3.59758
3.42727
3.26054
3.13003
3.03562
2.94875
2.86143
2.77952
2.69176
2.58737
2.47216
2.35734
2.25455
2.1702
2.10229
2.03873
1.97821
1.92359
1.88606
1.85987
1.82544
1.77213
1.70105
1.63713
1.59715
1.56426
1.53211
1.51515
1.50371
1.48795
1.4648
1.44035
1.41244
1.38237
1.36032
1.3524
1.34925
1.34555
1.33682
1.32293
1.30308
1.2726
1.25105
1.24435
1
1
1
1
1
1
1
1
1.00031
1.01771
1.34506
2.15773
3.28941
4.18602
4.1727
4.04996
4.11739
5.8328
8.9054
10.3932
10.1808
9.3893
8.64891
8.13956
7.7616
7.36279
6.94898
6.57734
6.25999
5.9799
5.71305
5.44397
5.17227
4.91264
4.67856
4.46876
4.27489
4.09584
3.93145
3.77868
3.63006
3.48033
3.32457
3.17211
3.0349
2.91937
2.82062
2.73424
2.65216
2.56782
2.47875
2.39006
2.29842
2.20553
2.12056
2.04776
1.98669
1.93537
1.89602
1.86113
1.81833
1.7616
1.69367
1.63113
1.58481
1.54732
1.51706
1.50441
1.49315
1.477
1.45613
1.42582
1.38183
1.34118
1.3271
1.32246
1.3219
1.32207
1.31591
1.30666
1.29231
1.26256
1.23895
1.23312
1
1
1
1
1
1
1
1
1
1.0003
1.01996
1.16114
1.7503
3.3451
3.85732
4.48228
6.68368
10.3055
11.0076
10.3353
9.93891
9.44241
8.82971
8.24301
7.77021
7.35985
6.99225
6.65471
6.34649
6.06042
5.78441
5.50685
5.22594
4.95214
4.69512
4.46412
4.26666
4.10252
3.95998
3.82334
3.6781
3.52083
3.36609
3.22467
3.08498
2.95805
2.8507
2.75136
2.66091
2.58758
2.53755
2.47603
2.38872
2.28199
2.17777
2.09443
2.03207
1.98253
1.93968
1.8973
1.84908
1.79324
1.73018
1.66066
1.60213
1.56346
1.54473
1.53136
1.51518
1.49404
1.46764
1.42673
1.35867
1.31943
1.31125
1.30732
1.30717
1.30903
1.30441
1.29721
1.28551
1.25631
1.2333
1.22911
1
1
1
1
1
1
1
1
1
1
1.00023
1.00466
1.07509
1.93754
4.16399
7.13422
12.1665
15.6482
12.882
10.5769
9.71134
9.35825
8.90865
8.33348
7.7685
7.31431
6.96134
6.66079
6.37503
6.09078
5.81216
5.53954
5.26184
4.97025
4.68788
4.44928
4.25802
4.09524
3.94711
3.80966
3.68326
3.55766
3.41062
3.2252
3.0414
2.8948
2.78178
2.69635
2.629
2.56962
2.50536
2.42972
2.33196
2.21506
2.11361
2.0373
1.97359
1.92117
1.88195
1.8434
1.79495
1.73718
1.67057
1.60058
1.54746
1.51956
1.50667
1.49471
1.48008
1.45959
1.42871
1.3799
1.31377
1.28803
1.28295
1.28069
1.28245
1.28531
1.27997
1.27439
1.26553
1.23813
1.22118
1.21897
)
;

boundaryField
{
    inlet
    {
        type            fixedValue;
        value           uniform 1;
    }
    outlet
    {
        type            zeroGradient;
    }
    bottom
    {
        type            zeroGradient;
    }
    top
    {
        type            zeroGradient;
    }
    obstacle
    {
        type            zeroGradient;
    }
    defaultFaces
    {
        type            empty;
    }
}


// ************************************************************************* //
