/*--------------------------------*- C++ -*----------------------------------*\
  =========                 |
  \\      /  F ield         | OpenFOAM: The Open Source CFD Toolbox
   \\    /   O peration     | Website:  https://openfoam.org
    \\  /    A nd           | Version:  7
     \\/     M anipulation  |
\*---------------------------------------------------------------------------*/
FoamFile
{
    version     2.0;
    format      ascii;
    class       volVectorField;
    location    "3.6";
    object      U;
}
// * * * * * * * * * * * * * * * * * * * * * * * * * * * * * * * * * * * * * //

dimensions      [0 1 -1 0 0 0 0];

internalField   nonuniform List<vector> 
16512
(
(3 4.8802e-17 0)
(3 -1.25426e-16 0)
(3 -2.97172e-16 0)
(3 -2.83459e-16 0)
(3 -2.95157e-16 0)
(3 -2.00291e-16 0)
(3 -1.18673e-16 0)
(3 -1.56165e-16 0)
(3 -1.63017e-17 0)
(3 3.61083e-16 0)
(3 6.93998e-16 0)
(3 9.75494e-16 0)
(3 9.0578e-16 0)
(3 1.07233e-15 0)
(3 1.31309e-15 0)
(3 1.44517e-15 0)
(3 9.65864e-16 0)
(3 2.93598e-16 0)
(3 2.52903e-16 0)
(3 8.53525e-17 0)
(3 2.28199e-16 0)
(3 5.28574e-16 0)
(3 1.88026e-16 0)
(3 -5.10981e-16 0)
(3 -8.71523e-16 0)
(3 -5.22276e-16 0)
(3 2.15148e-16 0)
(3 1.55887e-16 0)
(3 8.43492e-17 0)
(3 6.89941e-16 0)
(3 7.42163e-16 0)
(3 -6.00756e-17 0)
(3 -3.28684e-16 0)
(3 -1.05702e-16 0)
(3 3.33579e-16 0)
(2.90028 0.00319707 0)
(0.988407 0.016049 0)
(0.709844 0.019334 0)
(0.658098 0.0241664 0)
(0.598219 0.0256224 0)
(0.539234 0.0268219 0)
(0.478439 0.0281455 0)
(0.4159 0.0296416 0)
(0.350963 0.0314332 0)
(0.283097 0.0334283 0)
(0.210704 0.0364677 0)
(0.132046 0.0391148 0)
(0.0494499 0.0445827 0)
(3 3.36715e-16 0)
(3 -3.09376e-17 0)
(3 -2.29823e-16 0)
(3 -5.96319e-16 0)
(3 -9.08215e-16 0)
(3 -6.14242e-16 0)
(3 -5.38596e-16 0)
(3 -4.82975e-16 0)
(3 1.96024e-16 0)
(3 2.18502e-16 0)
(3 1.25371e-15 0)
(3 2.09722e-15 0)
(3 1.93796e-15 0)
(3 1.38525e-15 0)
(3 1.09714e-15 0)
(3 8.6223e-16 0)
(3 3.85876e-16 0)
(3 1.90107e-16 0)
(3 6.44546e-16 0)
(3 1.04002e-15 0)
(3 7.12704e-16 0)
(3 2.5665e-16 0)
(3 -6.72162e-16 0)
(3 -9.83718e-16 0)
(3 -1.22707e-15 0)
(3 -9.03569e-16 0)
(3 2.77818e-16 0)
(3 4.87711e-16 0)
(3 2.52766e-16 0)
(3 4.63093e-17 0)
(3 1.05887e-16 0)
(3 -1.68005e-15 0)
(3 -1.69046e-15 0)
(3 -6.8554e-16 0)
(3 9.40227e-16 0)
(2.91028 0.0202507 0)
(0.994391 0.0742718 0)
(0.695693 0.0666176 0)
(0.64159 0.0707893 0)
(0.582829 0.0753238 0)
(0.5241 0.0797321 0)
(0.463075 0.084391 0)
(0.400023 0.0891636 0)
(0.334816 0.0946809 0)
(0.267487 0.100614 0)
(0.197429 0.110241 0)
(0.122226 0.118875 0)
(0.045977 0.134611 0)
(3 -4.69493e-18 0)
(3 9.66475e-17 0)
(3 -1.73155e-16 0)
(3 -2.73882e-16 0)
(3 -9.89519e-16 0)
(3 -1.09273e-15 0)
(3 -1.1987e-15 0)
(3 -9.39883e-16 0)
(3 -1.81212e-16 0)
(3 3.76823e-16 0)
(3 8.24865e-16 0)
(3 8.17652e-16 0)
(3 6.56093e-16 0)
(3 8.40561e-17 0)
(3 -2.93065e-16 0)
(3 -5.00579e-16 0)
(3 -5.89706e-16 0)
(3 -6.34389e-16 0)
(3 -4.08085e-16 0)
(3 3.27127e-16 0)
(3 3.21661e-16 0)
(3 -1.46728e-16 0)
(3 -6.74558e-16 0)
(3 -7.69768e-16 0)
(3 3.52292e-17 0)
(3 2.02578e-16 0)
(3 5.20773e-16 0)
(3 3.97195e-16 0)
(3 8.45787e-17 0)
(3 -7.72345e-16 0)
(3 -1.18431e-15 0)
(3 -1.75399e-15 0)
(3 -2.24718e-15 0)
(3 -1.28127e-15 0)
(3 9.45947e-17 0)
(2.95426 0.0403999 0)
(1.03192 0.137784 0)
(0.711081 0.115797 0)
(0.656606 0.122413 0)
(0.595823 0.129853 0)
(0.534974 0.137417 0)
(0.471809 0.145479 0)
(0.40618 0.153448 0)
(0.337863 0.162113 0)
(0.266932 0.170182 0)
(0.194373 0.183588 0)
(0.117665 0.195113 0)
(0.0437926 0.217463 0)
(3 -2.43191e-16 0)
(3 1.74378e-16 0)
(3 1.14349e-16 0)
(3 -1.69693e-16 0)
(3 -3.40678e-16 0)
(3 -4.97688e-16 0)
(3 -8.42854e-16 0)
(3 -1.22923e-15 0)
(3 -1.47754e-15 0)
(3 -1.15991e-15 0)
(3 -2.69724e-16 0)
(3 1.78977e-16 0)
(3 -3.66278e-17 0)
(3 -9.57868e-16 0)
(3 -5.30446e-16 0)
(3 -6.42513e-18 0)
(3 1.12562e-16 0)
(3 -4.57289e-16 0)
(3 -1.5235e-15 0)
(3 -1.59245e-15 0)
(3 1.22053e-16 0)
(3 -2.34037e-16 0)
(3 -5.51244e-16 0)
(3 -1.72029e-17 0)
(3 1.23141e-15 0)
(3 1.71306e-15 0)
(3 1.35708e-15 0)
(3 1.87799e-16 0)
(3 -1.57815e-16 0)
(3 7.36774e-18 0)
(3 2.83839e-17 0)
(3 -4.9115e-16 0)
(3 -7.506e-16 0)
(3 -1.16778e-16 0)
(3 3.75096e-16 0)
(3.00843 0.00637505 0)
(1.10734 0.18222 0)
(0.743908 0.152625 0)
(0.692472 0.16662 0)
(0.632994 0.178587 0)
(0.571979 0.190135 0)
(0.508214 0.202911 0)
(0.440631 0.216189 0)
(0.368418 0.231193 0)
(0.290952 0.24439 0)
(0.21124 0.262844 0)
(0.126875 0.277001 0)
(0.0459168 0.302439 0)
(3 1.02248e-16 0)
(3 5.22898e-16 0)
(3 8.206e-16 0)
(3 4.85651e-16 0)
(3 5.01719e-16 0)
(3 1.95153e-16 0)
(3 -1.75009e-16 0)
(3 -5.51701e-16 0)
(3 -3.96417e-16 0)
(3 -2.24301e-16 0)
(3 4.02405e-16 0)
(3 5.21804e-16 0)
(3 2.37166e-16 0)
(3 2.44155e-16 0)
(3 -2.00909e-16 0)
(3 -5.88501e-16 0)
(3 4.51543e-16 0)
(3 2.88607e-16 0)
(3 2.46684e-16 0)
(3 -1.09762e-16 0)
(3 1.00047e-16 0)
(3 3.42675e-16 0)
(3 9.22633e-17 0)
(3 2.31682e-16 0)
(3 1.4509e-15 0)
(3 1.34882e-15 0)
(3 1.22946e-15 0)
(3 8.38024e-16 0)
(3 6.84242e-16 0)
(3 1.08377e-15 0)
(3 8.64874e-16 0)
(3 -1.94396e-17 0)
(3 -5.73123e-17 0)
(3 3.72086e-16 0)
(3 -1.20393e-16 0)
(3.0006 3.06991e-05 0)
(1.21575 0.224379 0)
(0.750405 0.19701 0)
(0.696035 0.217822 0)
(0.639984 0.23436 0)
(0.58161 0.249378 0)
(0.521288 0.266911 0)
(0.457384 0.285754 0)
(0.389451 0.307405 0)
(0.314774 0.325473 0)
(0.235722 0.3486 0)
(0.145615 0.367779 0)
(0.0549984 0.399391 0)
(3 -2.69378e-17 0)
(3 4.58034e-17 0)
(3 2.20413e-16 0)
(3 4.7716e-16 0)
(3 5.93267e-16 0)
(3 5.92277e-16 0)
(3 5.58379e-16 0)
(3 8.79441e-16 0)
(3 7.40552e-16 0)
(3 8.17829e-16 0)
(3 6.68165e-16 0)
(3 -8.76996e-17 0)
(3 1.58255e-16 0)
(3 5.4022e-16 0)
(3 -2.54969e-16 0)
(3 -5.94239e-16 0)
(3 2.11661e-16 0)
(3 1.02001e-15 0)
(3 1.2431e-15 0)
(3 1.0893e-15 0)
(3 5.05472e-16 0)
(3 1.13792e-15 0)
(3 1.70547e-15 0)
(3 6.89815e-16 0)
(3 4.71668e-16 0)
(3 7.27569e-16 0)
(3 1.02419e-15 0)
(3 1.70129e-15 0)
(3 2.29453e-15 0)
(3 1.98273e-15 0)
(3 1.80448e-15 0)
(3 1.62836e-15 0)
(3 1.00569e-15 0)
(3 2.11392e-16 0)
(3 -6.85675e-16 0)
(3 -1.2201e-07 0)
(1.39524 0.274556 0)
(0.765737 0.245248 0)
(0.697276 0.26192 0)
(0.648401 0.281236 0)
(0.598296 0.29899 0)
(0.547874 0.320439 0)
(0.492473 0.344677 0)
(0.430656 0.375085 0)
(0.355379 0.405417 0)
(0.268459 0.443166 0)
(0.166278 0.478338 0)
(0.0561781 0.517257 0)
(3 -7.94161e-17 0)
(3 -2.23698e-16 0)
(3 -3.51467e-16 0)
(3 -5.51045e-16 0)
(3 -1.2803e-16 0)
(3 1.06356e-15 0)
(3 1.98773e-15 0)
(3 2.21276e-15 0)
(3 1.01981e-15 0)
(3 -2.98979e-17 0)
(3 -5.08475e-16 0)
(3 -2.42509e-16 0)
(3 -4.34769e-17 0)
(3 1.20366e-16 0)
(3 6.36634e-16 0)
(3 9.87675e-16 0)
(3 5.28779e-16 0)
(3 4.92643e-16 0)
(3 5.56331e-17 0)
(3 -2.337e-17 0)
(3 -9.09702e-17 0)
(3 -4.58749e-16 0)
(3 -5.79592e-17 0)
(3 4.08248e-16 0)
(3 6.89525e-16 0)
(3 1.14216e-15 0)
(3 9.04479e-16 0)
(3 1.63224e-15 0)
(3 1.50466e-15 0)
(3 -1.80817e-17 0)
(3 -3.55372e-16 0)
(3 -3.76446e-16 0)
(3 -2.72341e-16 0)
(3 -4.82967e-16 0)
(3 -1.24449e-16 0)
(3 -1.23739e-07 0)
(1.66902 0.325777 0)
(0.796078 0.309135 0)
(0.696864 0.308575 0)
(0.64619 0.325265 0)
(0.5983 0.34368 0)
(0.555016 0.369984 0)
(0.508696 0.402434 0)
(0.459333 0.444993 0)
(0.398027 0.492071 0)
(0.326718 0.543766 0)
(0.233493 0.594652 0)
(0.101476 0.660284 0)
(3 2.00146e-16 0)
(3 3.59269e-16 0)
(3 2.15043e-16 0)
(3 3.19308e-16 0)
(3 3.93499e-16 0)
(3 3.58459e-16 0)
(3 2.9048e-16 0)
(3 5.31893e-16 0)
(3 1.58382e-17 0)
(3 -7.9028e-16 0)
(3 -1.12064e-15 0)
(3 -8.13606e-16 0)
(3 7.89756e-17 0)
(3 7.80391e-16 0)
(3 3.84873e-16 0)
(3 2.60105e-16 0)
(3 -5.14566e-16 0)
(3 -1.29772e-15 0)
(3 -1.45376e-15 0)
(3 -1.83413e-15 0)
(3 -1.99941e-15 0)
(3 -1.74628e-15 0)
(3 -1.10882e-15 0)
(3 1.38801e-16 0)
(3 6.3814e-16 0)
(3 1.63359e-15 0)
(3 2.2947e-15 0)
(3 1.74963e-15 0)
(3 5.76907e-16 0)
(3 -2.21512e-16 0)
(3 -7.41018e-16 0)
(3 -8.99228e-16 0)
(3 -3.43821e-16 0)
(3 -5.19248e-17 0)
(3 -2.8179e-16 0)
(3 -2.59126e-08 0)
(2.07176 0.367418 0)
(0.85228 0.394304 0)
(0.71695 0.370017 0)
(0.667305 0.379006 0)
(0.620473 0.392364 0)
(0.579883 0.416806 0)
(0.540876 0.452355 0)
(0.502345 0.50128 0)
(0.457928 0.560571 0)
(0.395832 0.641588 0)
(0.27549 0.757532 0)
(0.151662 0.924452 0)
(3 -2.04446e-17 0)
(3 -8.2786e-17 0)
(3 2.50783e-16 0)
(3 1.18427e-15 0)
(3 7.49139e-16 0)
(3 -7.42313e-17 0)
(3 -1.10604e-15 0)
(3 -7.88627e-16 0)
(3 -7.43815e-16 0)
(3 -1.22526e-15 0)
(3 -1.15151e-15 0)
(3 -8.43312e-16 0)
(3 -3.70177e-16 0)
(3 -1.48976e-16 0)
(3 -6.4056e-16 0)
(3 -3.64153e-16 0)
(3 -7.34756e-16 0)
(3 -1.59927e-15 0)
(3 -1.84487e-15 0)
(3 -2.2726e-15 0)
(3 -1.73788e-15 0)
(3 -1.05135e-15 0)
(3 3.88511e-17 0)
(3 6.02857e-16 0)
(3 4.94764e-16 0)
(3 4.53339e-16 0)
(3 5.9969e-16 0)
(3 6.25158e-16 0)
(3 7.53346e-16 0)
(3 8.80282e-16 0)
(3 3.77218e-16 0)
(3 -7.83019e-18 0)
(3 -3.60644e-16 0)
(3 -4.17253e-16 0)
(3 -6.7614e-16 0)
(3 -2.69197e-09 0)
(2.65559 0.303217 0)
(0.984333 0.477854 0)
(0.803464 0.406321 0)
(0.751692 0.414837 0)
(0.694175 0.433293 0)
(0.642918 0.459559 0)
(0.600181 0.496817 0)
(0.563983 0.550146 0)
(0.530047 0.626889 0)
(0.497152 0.751047 0)
(0.465695 0.923174 0)
(0.579464 1.20364 0)
(3 -1.27115e-16 0)
(3 -5.65531e-16 0)
(3 -2.3092e-16 0)
(3 1.35495e-16 0)
(3 -5.98854e-17 0)
(3 -5.40157e-16 0)
(3 -4.27565e-16 0)
(3 -7.66422e-16 0)
(3 -7.44704e-16 0)
(3 4.54244e-16 0)
(3 2.97478e-16 0)
(3 -1.75384e-16 0)
(3 -5.8364e-16 0)
(3 -2.63994e-16 0)
(3 5.949e-16 0)
(3 7.8029e-16 0)
(3 4.68228e-16 0)
(3 -6.68882e-16 0)
(3 -1.52851e-15 0)
(3 -1.63455e-15 0)
(3 -1.14344e-15 0)
(3 -3.60696e-16 0)
(3 -4.70333e-16 0)
(3 -1.22369e-16 0)
(3 2.2987e-17 0)
(3 -2.21328e-16 0)
(3 -6.15002e-16 0)
(3 -1.97989e-16 0)
(3 8.19174e-16 0)
(3 1.26312e-15 0)
(3 1.27557e-15 0)
(3 5.99774e-16 0)
(3 1.94306e-16 0)
(3 -7.98892e-16 0)
(3 -1.47368e-15 0)
(3 -1.08885e-10 0)
(3.07677 0.0427688 0)
(1.21916 0.469495 0)
(0.882361 0.447534 0)
(0.838841 0.47394 0)
(0.785353 0.48968 0)
(0.731159 0.511207 0)
(0.682894 0.54483 0)
(0.644119 0.597075 0)
(0.624624 0.681635 0)
(0.623612 0.816512 0)
(0.686839 0.965477 0)
(0.970888 1.13842 0)
(3 -5.337e-17 0)
(3 -3.40809e-16 0)
(3 -8.78272e-16 0)
(3 -1.22119e-15 0)
(3 -7.79481e-16 0)
(3 -7.39587e-16 0)
(3 -8.05892e-16 0)
(3 -5.09386e-16 0)
(3 6.15924e-16 0)
(3 1.58368e-15 0)
(3 1.63109e-15 0)
(3 7.14475e-16 0)
(3 3.38837e-16 0)
(3 7.00233e-16 0)
(3 8.93805e-16 0)
(3 1.30297e-15 0)
(3 9.68762e-16 0)
(3 6.39795e-16 0)
(3 1.91361e-16 0)
(3 1.2063e-16 0)
(3 2.77467e-16 0)
(3 5.55161e-17 0)
(3 -9.08391e-16 0)
(3 -1.10497e-15 0)
(3 -1.18306e-15 0)
(3 -9.68857e-16 0)
(3 -7.23413e-17 0)
(3 1.56007e-16 0)
(3 2.02119e-16 0)
(3 1.11711e-15 0)
(3 1.4151e-15 0)
(3 1.42044e-15 0)
(3 1.86539e-15 0)
(3 4.78279e-16 0)
(3 -7.75005e-16 0)
(3 -2.29115e-12 0)
(3.00866 8.09847e-05 0)
(1.43607 0.462113 0)
(0.884439 0.512221 0)
(0.836833 0.531472 0)
(0.801139 0.550833 0)
(0.77278 0.575476 0)
(0.745292 0.607629 0)
(0.720728 0.651715 0)
(0.7235 0.725604 0)
(0.75124 0.840045 0)
(0.872916 0.963134 0)
(1.18131 1.06818 0)
(3 -1.42454e-16 0)
(3 3.93545e-17 0)
(3 -3.14014e-16 0)
(3 -3.97147e-16 0)
(3 -2.33635e-16 0)
(3 2.85562e-16 0)
(3 2.10998e-16 0)
(3 1.00438e-15 0)
(3 2.08744e-15 0)
(3 1.96059e-15 0)
(3 1.84268e-15 0)
(3 1.09828e-15 0)
(3 1.08549e-15 0)
(3 4.85091e-16 0)
(3 -2.35487e-16 0)
(3 -7.99143e-16 0)
(3 -4.54412e-16 0)
(3 2.27339e-16 0)
(3 1.12629e-15 0)
(3 1.83762e-15 0)
(3 1.06261e-15 0)
(3 -1.81008e-16 0)
(3 -1.53822e-15 0)
(3 -2.35169e-15 0)
(3 -1.68042e-15 0)
(3 -2.62848e-16 0)
(3 5.77185e-16 0)
(3 1.00654e-16 0)
(3 -1.93319e-16 0)
(3 -1.25246e-16 0)
(3 2.3612e-16 0)
(3 1.25617e-15 0)
(3 1.75188e-15 0)
(3 1.60412e-15 0)
(3 4.91234e-16 0)
(3 -2.08763e-14 0)
(3.00006 -2.5096e-06 0)
(1.94277 0.494153 0)
(0.92924 0.576668 0)
(0.853599 0.560313 0)
(0.834199 0.581939 0)
(0.819821 0.607509 0)
(0.809788 0.642157 0)
(0.802043 0.682621 0)
(0.8177 0.746025 0)
(0.866963 0.837426 0)
(1.01005 0.939783 0)
(1.27485 1.00695 0)
(3 -1.72608e-17 0)
(3 1.98864e-16 0)
(3 1.06905e-17 0)
(3 1.90384e-16 0)
(3 4.1714e-16 0)
(3 4.45351e-16 0)
(3 5.07317e-16 0)
(3 1.15333e-15 0)
(3 2.31374e-15 0)
(3 2.9031e-15 0)
(3 1.03844e-15 0)
(3 -2.07678e-16 0)
(3 -5.16187e-16 0)
(3 -1.06725e-15 0)
(3 -1.08937e-15 0)
(3 -1.64157e-15 0)
(3 -1.81284e-15 0)
(3 -1.27328e-15 0)
(3 3.36599e-16 0)
(3 4.91316e-16 0)
(3 -1.07324e-16 0)
(3 -4.63692e-16 0)
(3 6.82286e-17 0)
(3 -5.13294e-16 0)
(3 -6.2482e-16 0)
(3 -8.43539e-16 0)
(3 -1.70676e-15 0)
(3 -6.013e-16 0)
(3 5.0927e-16 0)
(3 3.14972e-16 0)
(3 -1.93196e-16 0)
(3 1.08914e-15 0)
(3 1.79363e-15 0)
(3 1.71503e-15 0)
(3 8.47602e-16 0)
(3 -9.54367e-17 0)
(3.00001 -3.21151e-06 0)
(2.74712 0.319407 0)
(1.09647 0.635064 0)
(0.920627 0.580969 0)
(0.891495 0.601709 0)
(0.87389 0.630601 0)
(0.870182 0.668824 0)
(0.876519 0.710902 0)
(0.901514 0.765449 0)
(0.966262 0.834559 0)
(1.10539 0.906953 0)
(1.31895 0.947512 0)
(3 -8.33889e-17 0)
(3 -1.99272e-17 0)
(3 3.0376e-16 0)
(3 1.37784e-16 0)
(3 2.29232e-16 0)
(3 6.95226e-17 0)
(3 2.49766e-16 0)
(3 1.69558e-16 0)
(3 1.3962e-17 0)
(3 -3.39738e-16 0)
(3 -6.85984e-16 0)
(3 -1.0833e-15 0)
(3 -1.84837e-15 0)
(3 -1.09807e-15 0)
(3 -6.01994e-16 0)
(3 -6.62025e-16 0)
(3 -1.18385e-15 0)
(3 -9.83635e-16 0)
(3 -9.06652e-16 0)
(3 -7.60875e-16 0)
(3 -2.20098e-16 0)
(3 1.02838e-15 0)
(3 2.73026e-15 0)
(3 2.46064e-15 0)
(3 1.06596e-15 0)
(3 -1.01544e-17 0)
(3 -8.19959e-16 0)
(3 3.0758e-16 0)
(3 6.82178e-16 0)
(3 8.87654e-16 0)
(3 5.45613e-16 0)
(3 6.76937e-16 0)
(3 9.59696e-16 0)
(3 4.58666e-16 0)
(3 -3.51573e-16 0)
(3 -3.62418e-16 0)
(3 -6.79124e-07 0)
(3.07456 0.02605 0)
(1.4361 0.631894 0)
(1.00204 0.652496 0)
(0.950759 0.6521 0)
(0.925078 0.666555 0)
(0.923295 0.69399 0)
(0.939481 0.730176 0)
(0.974404 0.773565 0)
(1.04768 0.827426 0)
(1.17451 0.879152 0)
(1.34822 0.905587 0)
(3 1.60192e-17 0)
(3 1.51954e-16 0)
(3 6.80384e-16 0)
(3 5.06541e-16 0)
(3 5.51372e-16 0)
(3 8.62746e-16 0)
(3 9.14102e-16 0)
(3 1.35257e-16 0)
(3 -1.31828e-15 0)
(3 -1.7663e-15 0)
(3 -1.55292e-15 0)
(3 -4.75751e-16 0)
(3 -8.38529e-16 0)
(3 4.98052e-16 0)
(3 9.1163e-16 0)
(3 1.24254e-15 0)
(3 8.8402e-16 0)
(3 4.23982e-16 0)
(3 3.71084e-17 0)
(3 2.64979e-16 0)
(3 7.65378e-16 0)
(3 1.58958e-15 0)
(3 1.73531e-15 0)
(3 2.36916e-15 0)
(3 1.44033e-15 0)
(3 4.95145e-16 0)
(3 1.54313e-16 0)
(3 1.72265e-16 0)
(3 3.19691e-16 0)
(3 -1.94236e-16 0)
(3 2.28031e-16 0)
(3 6.55383e-16 0)
(3 1.36568e-16 0)
(3 -1.79484e-16 0)
(3 -3.2939e-16 0)
(3 3.80188e-16 0)
(3 -6.91353e-08 0)
(3.00414 7.31048e-05 0)
(1.98997 0.600072 0)
(1.06364 0.724403 0)
(1.01122 0.702006 0)
(0.995162 0.699021 0)
(0.991494 0.715177 0)
(1.00617 0.741833 0)
(1.04424 0.77778 0)
(1.11493 0.816406 0)
(1.22215 0.849517 0)
(1.36112 0.865354 0)
(3 2.12329e-16 0)
(3 9.89673e-17 0)
(3 -5.2248e-16 0)
(3 -4.79021e-16 0)
(3 -9.52672e-17 0)
(3 5.85626e-17 0)
(3 -3.11701e-16 0)
(3 -3.2687e-16 0)
(3 -5.12095e-16 0)
(3 -3.95084e-16 0)
(3 6.99463e-17 0)
(3 6.11521e-16 0)
(3 9.31452e-16 0)
(3 7.17845e-16 0)
(3 1.38575e-15 0)
(3 2.33215e-15 0)
(3 2.01891e-15 0)
(3 1.14152e-15 0)
(3 3.58544e-16 0)
(3 7.66935e-16 0)
(3 2.43052e-16 0)
(3 -1.41851e-16 0)
(3 -2.35675e-16 0)
(3 9.16219e-16 0)
(3 1.11794e-15 0)
(3 1.79632e-15 0)
(3 6.25289e-16 0)
(3 -9.95627e-16 0)
(3 -1.61877e-15 0)
(3 -1.77188e-15 0)
(3 -5.72816e-16 0)
(3 -5.64815e-16 0)
(3 -1.16283e-15 0)
(3 -1.15811e-15 0)
(3 -6.03868e-16 0)
(3 1.09156e-15 0)
(3 -2.19821e-09 0)
(3.00001 -3.27523e-07 0)
(2.93346 0.221551 0)
(1.28207 0.698037 0)
(1.08277 0.719173 0)
(1.08745 0.720515 0)
(1.08195 0.740617 0)
(1.08702 0.762034 0)
(1.11475 0.788333 0)
(1.17544 0.817458 0)
(1.2642 0.839369 0)
(1.37821 0.848469 0)
(3 -4.28693e-17 0)
(3 -9.38378e-17 0)
(3 -7.60626e-17 0)
(3 6.60686e-17 0)
(3 -1.16868e-16 0)
(3 -2.26535e-16 0)
(3 -1.95757e-16 0)
(3 -1.09836e-16 0)
(3 -2.26534e-16 0)
(3 -1.75571e-16 0)
(3 2.33825e-16 0)
(3 2.89854e-16 0)
(3 9.21275e-17 0)
(3 -3.10138e-16 0)
(3 -1.91079e-17 0)
(3 5.62109e-16 0)
(3 7.48441e-16 0)
(3 5.56109e-16 0)
(3 4.80033e-16 0)
(3 5.32603e-16 0)
(3 1.29422e-15 0)
(3 1.02698e-15 0)
(3 8.76646e-16 0)
(3 2.11303e-15 0)
(3 2.05549e-15 0)
(3 1.13583e-15 0)
(3 9.71022e-16 0)
(3 2.93618e-16 0)
(3 -1.52399e-15 0)
(3 -1.9238e-15 0)
(3 -2.43099e-15 0)
(3 -3.05338e-15 0)
(3 -2.70736e-15 0)
(3 -2.4993e-15 0)
(3 -1.07524e-15 0)
(3 6.63069e-16 0)
(3 -4.89213e-12 0)
(3 -7.86749e-07 0)
(3.04115 0.00641431 0)
(1.57302 0.659802 0)
(1.10035 0.756519 0)
(1.11148 0.765406 0)
(1.11735 0.783255 0)
(1.13989 0.795307 0)
(1.17386 0.806259 0)
(1.22788 0.8178 0)
(1.30271 0.828463 0)
(1.39798 0.83172 0)
(3 -1.84594e-17 0)
(3 1.28082e-16 0)
(3 6.7974e-16 0)
(3 4.52164e-16 0)
(3 2.5065e-16 0)
(3 4.61934e-16 0)
(3 6.40422e-16 0)
(3 2.74267e-16 0)
(3 4.45144e-17 0)
(3 -7.48664e-17 0)
(3 -9.74819e-17 0)
(3 -6.13048e-16 0)
(3 -6.80886e-16 0)
(3 -8.33383e-16 0)
(3 -1.21073e-15 0)
(3 -1.14594e-15 0)
(3 -3.90096e-16 0)
(3 -8.8009e-16 0)
(3 -7.42891e-16 0)
(3 -9.37177e-16 0)
(3 -5.48711e-16 0)
(3 7.98846e-16 0)
(3 1.79812e-15 0)
(3 1.94198e-15 0)
(3 2.3191e-15 0)
(3 1.85294e-15 0)
(3 9.5986e-16 0)
(3 -3.93806e-16 0)
(3 -1.51027e-15 0)
(3 -3.26393e-15 0)
(3 -3.56958e-15 0)
(3 -2.13579e-15 0)
(3 -9.32282e-16 0)
(3 -6.97257e-16 0)
(3 -7.06616e-16 0)
(3 2.97366e-16 0)
(3 -4.98879e-15 0)
(3 -1.50872e-07 0)
(3.00079 3.58167e-05 0)
(2.39019 0.510392 0)
(1.2061 0.78892 0)
(1.13564 0.791959 0)
(1.14898 0.795621 0)
(1.17716 0.80549 0)
(1.21722 0.817175 0)
(1.26963 0.827951 0)
(1.33833 0.834595 0)
(1.41864 0.834277 0)
(3 -2.59205e-17 0)
(3 7.49728e-17 0)
(3 7.52291e-17 0)
(3 -1.12676e-16 0)
(3 -1.30919e-16 0)
(3 -2.25615e-16 0)
(3 -9.23274e-17 0)
(3 -1.81709e-16 0)
(3 -2.51436e-16 0)
(3 -2.67269e-16 0)
(3 -1.34447e-16 0)
(3 -7.41399e-18 0)
(3 7.42615e-17 0)
(3 -5.81894e-16 0)
(3 -1.5258e-15 0)
(3 -1.8742e-15 0)
(3 -1.24829e-15 0)
(3 -2.01092e-16 0)
(3 -3.51225e-16 0)
(3 -1.05547e-15 0)
(3 -1.30672e-15 0)
(3 -2.01601e-17 0)
(3 1.92747e-15 0)
(3 1.85352e-15 0)
(3 1.65782e-15 0)
(3 1.7952e-15 0)
(3 2.08652e-15 0)
(3 9.83617e-16 0)
(3 -3.30053e-16 0)
(3 -8.79206e-16 0)
(3 -9.27862e-16 0)
(3 -1.7607e-15 0)
(3 -1.45134e-15 0)
(3 1.90847e-16 0)
(3 2.69473e-16 0)
(3 2.1858e-16 0)
(3 2.51246e-16 0)
(3 -4.73674e-09 0)
(3.00002 -5.60927e-06 0)
(3.05775 0.0721939 0)
(1.56705 0.776383 0)
(1.18503 0.786099 0)
(1.19858 0.794073 0)
(1.22177 0.806489 0)
(1.25951 0.81815 0)
(1.30888 0.827725 0)
(1.37187 0.832269 0)
(1.44136 0.831167 0)
(3 -1.00889e-17 0)
(3 -4.12554e-17 0)
(3 -8.77431e-17 0)
(3 3.04683e-16 0)
(3 4.02734e-16 0)
(3 3.31538e-16 0)
(3 1.86438e-16 0)
(3 -1.46061e-16 0)
(3 -4.06819e-16 0)
(3 -4.68496e-16 0)
(3 -6.03223e-16 0)
(3 2.42809e-16 0)
(3 5.35811e-16 0)
(3 1.47323e-16 0)
(3 -1.47801e-15 0)
(3 -1.98979e-15 0)
(3 -1.45532e-15 0)
(3 -6.14775e-16 0)
(3 -1.12734e-15 0)
(3 -1.82566e-15 0)
(3 -4.81759e-16 0)
(3 1.10083e-15 0)
(3 7.10032e-16 0)
(3 1.09423e-15 0)
(3 5.54333e-16 0)
(3 1.19992e-15 0)
(3 1.41835e-15 0)
(3 1.14021e-15 0)
(3 1.00789e-15 0)
(3 2.177e-16 0)
(3 -5.58769e-17 0)
(3 -1.30328e-15 0)
(3 -1.00047e-15 0)
(3 -5.63527e-16 0)
(3 -4.15965e-16 0)
(3 -7.69261e-16 0)
(3 -1.10065e-15 0)
(3 -1.71866e-11 0)
(3 -1.41118e-06 0)
(3.00813 0.00137478 0)
(2.29517 0.630789 0)
(1.26367 0.848297 0)
(1.22299 0.83344 0)
(1.25681 0.833559 0)
(1.29079 0.838669 0)
(1.33798 0.843498 0)
(1.39486 0.845566 0)
(1.45759 0.842207 0)
(3 4.4542e-17 0)
(3 1.13953e-17 0)
(3 -1.49269e-16 0)
(3 1.24351e-17 0)
(3 6.13497e-16 0)
(3 8.70124e-16 0)
(3 4.48237e-16 0)
(3 3.61699e-16 0)
(3 1.15425e-16 0)
(3 -2.56792e-16 0)
(3 -1.10632e-16 0)
(3 -1.45307e-16 0)
(3 4.83898e-16 0)
(3 6.82684e-16 0)
(3 -5.18481e-16 0)
(3 -1.30884e-15 0)
(3 -1.36601e-15 0)
(3 -1.32378e-15 0)
(3 -7.93103e-16 0)
(3 -3.38288e-16 0)
(3 1.3544e-15 0)
(3 2.18069e-15 0)
(3 5.02397e-16 0)
(3 6.0536e-16 0)
(3 3.79158e-16 0)
(3 -1.70768e-16 0)
(3 -2.10443e-16 0)
(3 -2.60346e-17 0)
(3 1.41301e-16 0)
(3 7.0929e-16 0)
(3 -1.31219e-16 0)
(3 -9.82404e-16 0)
(3 -1.14687e-15 0)
(3 -9.06085e-16 0)
(3 -4.7038e-16 0)
(3 -3.21025e-16 0)
(3 -9.07047e-16 0)
(3 -9.64544e-15 0)
(3 -1.19986e-07 0)
(3.00003 9.433e-06 0)
(3.03933 0.117448 0)
(1.62712 0.826896 0)
(1.26866 0.830639 0)
(1.30529 0.833448 0)
(1.33117 0.839377 0)
(1.37363 0.842083 0)
(1.4228 0.842881 0)
(1.47989 0.838233 0)
(3 -1.31669e-16 0)
(3 -5.56017e-17 0)
(3 -1.16718e-16 0)
(3 -3.12915e-16 0)
(3 -2.45504e-16 0)
(3 1.68149e-16 0)
(3 4.93332e-16 0)
(3 4.26971e-16 0)
(3 2.4122e-16 0)
(3 -7.43038e-17 0)
(3 -3.55207e-16 0)
(3 -6.10597e-16 0)
(3 -4.57569e-16 0)
(3 1.46805e-16 0)
(3 -2.92391e-16 0)
(3 -3.98814e-16 0)
(3 1.28915e-16 0)
(3 -2.55781e-16 0)
(3 6.67271e-16 0)
(3 1.55039e-15 0)
(3 1.69726e-15 0)
(3 1.77764e-15 0)
(3 1.49216e-15 0)
(3 4.35546e-18 0)
(3 -5.72469e-16 0)
(3 -1.49314e-15 0)
(3 -1.679e-15 0)
(3 -1.23775e-15 0)
(3 -1.25546e-16 0)
(3 1.22821e-15 0)
(3 1.04853e-15 0)
(3 -7.48826e-17 0)
(3 -1.07468e-15 0)
(3 2.36404e-16 0)
(3 1.68603e-15 0)
(3 1.81827e-15 0)
(3 1.31938e-15 0)
(3 -1.27868e-15 0)
(3 -1.4547e-09 0)
(3 -1.11408e-07 0)
(3.01058 0.00343151 0)
(2.36961 0.63694 0)
(1.35573 0.885628 0)
(1.32699 0.876289 0)
(1.35915 0.868753 0)
(1.39453 0.866392 0)
(1.43838 0.861662 0)
(1.49003 0.852953 0)
(3 -1.3795e-17 0)
(3 7.27093e-17 0)
(3 3.078e-16 0)
(3 3.44488e-16 0)
(3 2.1207e-16 0)
(3 2.45343e-16 0)
(3 5.16805e-16 0)
(3 6.10227e-16 0)
(3 7.71846e-16 0)
(3 6.30744e-16 0)
(3 -4.60148e-17 0)
(3 -6.35008e-16 0)
(3 -1.33722e-15 0)
(3 -1.09106e-15 0)
(3 -2.77803e-16 0)
(3 8.0333e-16 0)
(3 5.65549e-16 0)
(3 3.45905e-16 0)
(3 7.37369e-16 0)
(3 1.31637e-15 0)
(3 1.32194e-15 0)
(3 3.29162e-16 0)
(3 4.07843e-17 0)
(3 -5.62619e-16 0)
(3 -7.12315e-16 0)
(3 -6.1363e-16 0)
(3 -6.40673e-16 0)
(3 -4.86638e-16 0)
(3 -1.98837e-16 0)
(3 4.48704e-16 0)
(3 9.58159e-16 0)
(3 7.90368e-16 0)
(3 1.85677e-17 0)
(3 -1.35995e-16 0)
(3 -2.49829e-16 0)
(3 3.24848e-16 0)
(3 1.33813e-16 0)
(3 -6.90798e-16 0)
(3 -3.24676e-12 0)
(3 -2.77115e-08 0)
(3.00005 4.17958e-05 0)
(3.03167 0.10557 0)
(1.76117 0.836223 0)
(1.36321 0.88178 0)
(1.40172 0.874758 0)
(1.42862 0.868687 0)
(1.46598 0.859083 0)
(1.51004 0.849317 0)
(3 1.41709e-16 0)
(3 2.32186e-16 0)
(3 8.17027e-16 0)
(3 8.6247e-16 0)
(3 4.68671e-16 0)
(3 -5.7512e-17 0)
(3 5.68387e-17 0)
(3 4.03274e-16 0)
(3 6.85187e-16 0)
(3 8.82303e-16 0)
(3 7.94001e-16 0)
(3 3.38183e-16 0)
(3 -1.29189e-15 0)
(3 -2.3009e-15 0)
(3 2.41602e-16 0)
(3 5.92458e-16 0)
(3 2.39872e-16 0)
(3 6.94407e-16 0)
(3 7.68059e-16 0)
(3 2.2652e-16 0)
(3 2.07778e-16 0)
(3 -5.14765e-16 0)
(3 -1.33652e-15 0)
(3 -1.23897e-15 0)
(3 -1.29137e-15 0)
(3 -1.33029e-15 0)
(3 -1.23708e-15 0)
(3 -6.90783e-16 0)
(3 2.14248e-16 0)
(3 1.58612e-16 0)
(3 -1.20267e-16 0)
(3 2.62761e-16 0)
(3 5.33155e-16 0)
(3 -7.41713e-16 0)
(3 -2.2335e-15 0)
(3 -1.70174e-15 0)
(3 -1.45522e-15 0)
(3 -4.71463e-16 0)
(3 -1.98966e-15 0)
(3 -2.59814e-09 0)
(3 2.38459e-08 0)
(3.00614 0.00434376 0)
(2.61723 0.530677 0)
(1.50487 0.934168 0)
(1.42259 0.902226 0)
(1.45494 0.891848 0)
(1.48614 0.88114 0)
(1.52228 0.870795 0)
(3 -1.22576e-16 0)
(3 -1.96155e-16 0)
(3 -1.97013e-17 0)
(3 2.99428e-16 0)
(3 2.35282e-16 0)
(3 1.31968e-16 0)
(3 1.53499e-16 0)
(3 -1.14512e-16 0)
(3 -1.05104e-16 0)
(3 7.11383e-17 0)
(3 4.94224e-17 0)
(3 -5.69737e-16 0)
(3 -7.34947e-16 0)
(3 7.92067e-16 0)
(3 9.61871e-16 0)
(3 1.04506e-15 0)
(3 9.27148e-16 0)
(3 1.06134e-15 0)
(3 9.69377e-16 0)
(3 6.09592e-16 0)
(3 3.86428e-19 0)
(3 1.61615e-17 0)
(3 4.86885e-16 0)
(3 1.64408e-16 0)
(3 -7.24784e-16 0)
(3 -1.72718e-15 0)
(3 -1.66912e-15 0)
(3 -8.06602e-16 0)
(3 3.57927e-16 0)
(3 -1.9734e-16 0)
(3 -2.36252e-16 0)
(3 4.71811e-16 0)
(3 1.64611e-15 0)
(3 2.99634e-16 0)
(3 -1.39024e-15 0)
(3 -1.59699e-15 0)
(3 -9.68959e-16 0)
(3 -6.17447e-16 0)
(3 -1.11747e-15 0)
(3 -1.02148e-10 0)
(3 -9.98252e-11 0)
(3.00002 4.65788e-05 0)
(3.03561 0.0535143 0)
(2.02005 0.797315 0)
(1.47647 0.914289 0)
(1.49613 0.903582 0)
(1.52095 0.891094 0)
(1.55044 0.879521 0)
(3 -1.10937e-17 0)
(3 3.85966e-17 0)
(3 -3.65336e-16 0)
(3 -2.15808e-16 0)
(3 -1.10136e-17 0)
(3 1.26006e-17 0)
(3 -3.69242e-16 0)
(3 -3.97655e-16 0)
(3 -1.01024e-15 0)
(3 -9.83852e-16 0)
(3 -7.35721e-16 0)
(3 -5.41041e-16 0)
(3 5.4281e-16 0)
(3 1.97404e-15 0)
(3 1.55893e-15 0)
(3 1.89193e-15 0)
(3 2.13689e-15 0)
(3 2.34865e-15 0)
(3 2.59267e-15 0)
(3 3.11541e-15 0)
(3 2.40135e-15 0)
(3 1.46713e-15 0)
(3 4.78889e-16 0)
(3 -6.14445e-16 0)
(3 -4.73363e-16 0)
(3 -2.20129e-16 0)
(3 -4.70808e-16 0)
(3 -7.36402e-16 0)
(3 -1.35486e-15 0)
(3 -1.74362e-15 0)
(3 1.74087e-16 0)
(3 1.85268e-15 0)
(3 1.90712e-15 0)
(3 1.22184e-15 0)
(3 7.02368e-16 0)
(3 1.28241e-16 0)
(3 -6.70636e-16 0)
(3 -1.6733e-15 0)
(3 -1.71096e-15 0)
(3 -8.80503e-13 0)
(3 -3.12292e-11 0)
(3 3.62331e-08 0)
(3.00167 0.00235715 0)
(2.83781 0.314372 0)
(1.73965 0.903496 0)
(1.51261 0.927899 0)
(1.54783 0.91712 0)
(1.57852 0.902549 0)
(3 1.85087e-16 0)
(3 1.56143e-16 0)
(3 3.0227e-17 0)
(3 -2.69876e-16 0)
(3 -4.34063e-16 0)
(3 -7.29194e-16 0)
(3 -1.16509e-15 0)
(3 -1.10962e-15 0)
(3 -1.1893e-15 0)
(3 -7.66423e-16 0)
(3 -6.38752e-16 0)
(3 1.32325e-16 0)
(3 1.53694e-15 0)
(3 1.58756e-15 0)
(3 1.41489e-15 0)
(3 1.63263e-15 0)
(3 1.97504e-15 0)
(3 2.36847e-15 0)
(3 2.32662e-15 0)
(3 1.51353e-15 0)
(3 1.54647e-15 0)
(3 2.09549e-15 0)
(3 7.95137e-16 0)
(3 -7.627e-16 0)
(3 -8.46141e-16 0)
(3 -6.39658e-16 0)
(3 -8.45707e-16 0)
(3 -1.42489e-15 0)
(3 -1.43571e-15 0)
(3 -8.64851e-16 0)
(3 -1.99647e-16 0)
(3 6.37484e-16 0)
(3 1.01636e-15 0)
(3 1.33454e-15 0)
(3 1.05167e-15 0)
(3 -1.91724e-16 0)
(3 -1.91174e-15 0)
(3 -2.63317e-15 0)
(3 -2.0279e-15 0)
(3 -2.99095e-15 0)
(3 -4.02415e-12 0)
(3 3.67021e-12 0)
(3 1.24535e-05 0)
(3.00976 0.0213832 0)
(2.41655 0.645917 0)
(1.60404 0.950958 0)
(1.56442 0.941022 0)
(1.59648 0.92378 0)
(3 2.81044e-16 0)
(3 -2.02137e-16 0)
(3 -8.02634e-18 0)
(3 2.73764e-16 0)
(3 4.11807e-16 0)
(3 2.94149e-16 0)
(3 8.90098e-17 0)
(3 -1.16954e-16 0)
(3 -4.83783e-16 0)
(3 -6.75061e-16 0)
(3 -1.06698e-16 0)
(3 3.56513e-16 0)
(3 4.05066e-16 0)
(3 4.92064e-16 0)
(3 6.39716e-16 0)
(3 2.42081e-16 0)
(3 1.40064e-16 0)
(3 5.9465e-17 0)
(3 6.30701e-16 0)
(3 3.94999e-16 0)
(3 1.1364e-15 0)
(3 2.02665e-15 0)
(3 1.96445e-15 0)
(3 1.05542e-15 0)
(3 -1.71109e-15 0)
(3 -1.52978e-15 0)
(3 -1.39687e-15 0)
(3 -9.16669e-16 0)
(3 1.22159e-16 0)
(3 4.01641e-16 0)
(3 2.68031e-16 0)
(3 1.50805e-16 0)
(3 3.27617e-16 0)
(3 4.09703e-16 0)
(3 3.72312e-17 0)
(3 -8.68077e-16 0)
(3 -1.44262e-15 0)
(3 -1.30683e-15 0)
(3 -9.8302e-16 0)
(3 -1.38183e-15 0)
(3 -2.49076e-13 0)
(3 -2.48249e-13 0)
(3 6.82824e-09 0)
(3.00007 0.000626349 0)
(2.9877 0.114741 0)
(2.04185 0.811845 0)
(1.62228 0.942882 0)
(1.62216 0.937202 0)
(3 -1.24343e-16 0)
(3 -2.25366e-16 0)
(3 -5.11557e-16 0)
(3 -5.53932e-17 0)
(3 3.87818e-16 0)
(3 6.90904e-16 0)
(3 8.16238e-16 0)
(3 5.12711e-16 0)
(3 6.19355e-17 0)
(3 -7.79277e-17 0)
(3 -4.61541e-16 0)
(3 -2.67711e-16 0)
(3 3.57631e-16 0)
(3 8.3566e-16 0)
(3 9.23186e-16 0)
(3 3.85125e-16 0)
(3 6.4645e-16 0)
(3 1.74339e-16 0)
(3 9.51699e-17 0)
(3 5.80653e-16 0)
(3 6.22588e-16 0)
(3 9.89481e-16 0)
(3 1.04385e-15 0)
(3 1.30582e-15 0)
(3 9.05403e-16 0)
(3 -2.04155e-17 0)
(3 -7.40037e-16 0)
(3 -3.5093e-16 0)
(3 2.5662e-16 0)
(3 1.20582e-15 0)
(3 1.33901e-15 0)
(3 1.15759e-15 0)
(3 4.54168e-16 0)
(3 4.15674e-16 0)
(3 6.65908e-16 0)
(3 2.60911e-16 0)
(3 -1.20476e-16 0)
(3 -4.03995e-16 0)
(3 -6.1424e-17 0)
(3 -3.60997e-16 0)
(3 -4.20137e-15 0)
(3 -8.28623e-14 0)
(3 2.00298e-12 0)
(3 1.45946e-06 0)
(3.00144 0.00634846 0)
(2.78351 0.339668 0)
(1.86517 0.893991 0)
(1.65 0.9554 0)
(3 -7.77683e-17 0)
(3 -4.17612e-17 0)
(3 -2.04238e-16 0)
(3 -2.82641e-16 0)
(3 -5.58213e-16 0)
(3 -8.02616e-17 0)
(3 4.9928e-16 0)
(3 5.39138e-16 0)
(3 8.89963e-16 0)
(3 8.07376e-16 0)
(3 1.61674e-16 0)
(3 4.82064e-17 0)
(3 1.93907e-16 0)
(3 5.19236e-16 0)
(3 7.06138e-16 0)
(3 8.3029e-16 0)
(3 6.82034e-16 0)
(3 1.98155e-16 0)
(3 -4.32955e-16 0)
(3 -1.14276e-15 0)
(3 -1.16044e-15 0)
(3 -7.32206e-16 0)
(3 -4.0931e-16 0)
(3 1.42451e-15 0)
(3 2.05824e-15 0)
(3 1.50209e-15 0)
(3 1.05227e-15 0)
(3 6.14976e-16 0)
(3 6.49418e-16 0)
(3 5.42998e-16 0)
(3 5.25505e-16 0)
(3 9.44664e-16 0)
(3 7.5479e-16 0)
(3 9.25146e-16 0)
(3 9.35421e-16 0)
(3 3.09053e-16 0)
(3 3.93329e-16 0)
(3 2.16805e-16 0)
(3 -1.19352e-16 0)
(3 -1.54059e-16 0)
(3 1.44436e-16 0)
(3 -1.07524e-14 0)
(3 -9.40295e-15 0)
(3 8.50541e-10 0)
(2.99999 6.02243e-05 0)
(3.00041 0.027673 0)
(2.49207 0.568762 0)
(1.79017 0.945606 0)
(3 1.05574e-16 0)
(3 2.30242e-16 0)
(3 -1.04034e-16 0)
(3 -2.4674e-16 0)
(3 -2.36624e-16 0)
(3 3.16755e-16 0)
(3 8.51064e-16 0)
(3 1.49344e-15 0)
(3 1.75376e-15 0)
(3 1.03563e-15 0)
(3 5.41375e-16 0)
(3 4.55873e-16 0)
(3 5.54816e-17 0)
(3 1.91277e-16 0)
(3 5.05749e-16 0)
(3 7.14933e-16 0)
(3 2.453e-16 0)
(3 1.89836e-16 0)
(3 -1.40004e-16 0)
(3 -6.39e-16 0)
(3 -1.14124e-15 0)
(3 -2.04586e-15 0)
(3 -1.3344e-15 0)
(3 -1.20581e-16 0)
(3 1.83572e-15 0)
(3 2.70377e-15 0)
(3 3.24742e-15 0)
(3 3.01706e-15 0)
(3 2.45026e-15 0)
(3 1.24584e-15 0)
(3 9.72189e-16 0)
(3 1.62983e-15 0)
(3 1.62534e-15 0)
(3 1.41806e-15 0)
(3 1.04984e-15 0)
(3 5.1944e-16 0)
(3 3.59236e-16 0)
(3 1.48754e-15 0)
(3 7.5782e-16 0)
(3 4.36358e-16 0)
(3 7.61566e-16 0)
(3 9.04974e-16 0)
(3 -2.4426e-15 0)
(3 1.86684e-13 0)
(3 6.3476e-08 0)
(2.99994 0.000817064 0)
(2.96967 0.0871104 0)
(2.27267 0.730811 0)
(3 -6.64096e-17 0)
(3 -1.90762e-16 0)
(3 -4.37289e-16 0)
(3 -4.20884e-16 0)
(3 -2.38452e-16 0)
(3 -1.89235e-16 0)
(3 3.32319e-16 0)
(3 6.0159e-16 0)
(3 2.23292e-16 0)
(3 -1.6165e-16 0)
(3 -2.26781e-16 0)
(3 2.26155e-16 0)
(3 2.52728e-16 0)
(3 4.33155e-16 0)
(3 1.05725e-15 0)
(3 1.73877e-15 0)
(3 1.53497e-15 0)
(3 9.02076e-17 0)
(3 -4.96492e-16 0)
(3 -5.80845e-16 0)
(3 -5.86889e-16 0)
(3 -7.41071e-16 0)
(3 -8.17283e-16 0)
(3 -2.36604e-16 0)
(3 1.17647e-15 0)
(3 2.25174e-15 0)
(3 3.06053e-15 0)
(3 3.09204e-15 0)
(3 2.67209e-15 0)
(3 1.59614e-15 0)
(3 2.05134e-15 0)
(3 3.54637e-16 0)
(3 5.24274e-16 0)
(3 5.73484e-16 0)
(3 6.03299e-17 0)
(3 -4.9196e-16 0)
(3 -6.64385e-16 0)
(3 7.52756e-16 0)
(3 2.05144e-15 0)
(3 2.13455e-15 0)
(3 2.31673e-15 0)
(3 2.28622e-15 0)
(3 1.32944e-15 0)
(3 7.76035e-16 0)
(3 3.49326e-11 0)
(3 2.09666e-06 0)
(2.99958 0.00444024 0)
(2.88566 0.213875 0)
(3 3.76537e-17 0)
(3 6.30179e-17 0)
(3 6.04634e-16 0)
(3 3.3455e-16 0)
(3 1.60375e-16 0)
(3 -5.18108e-16 0)
(3 -8.69328e-16 0)
(3 -8.46023e-16 0)