/*--------------------------------*- C++ -*----------------------------------*\
  =========                 |
  \\      /  F ield         | OpenFOAM: The Open Source CFD Toolbox
   \\    /   O peration     | Website:  https://openfoam.org
    \\  /    A nd           | Version:  7
     \\/     M anipulation  |
\*---------------------------------------------------------------------------*/
FoamFile
{
    version     2.0;
    format      ascii;
    class       volVectorField;
    location    "0.3";
    object      U;
}
// * * * * * * * * * * * * * * * * * * * * * * * * * * * * * * * * * * * * * //

dimensions      [0 1 -1 0 0 0 0];

internalField   nonuniform List<vector> 
4128
(
(3.00945 -0.00081811 0)
(3.01112 -0.00063493 0)
(3.01401 -0.000573039 0)
(3.01738 -0.000710967 0)
(3.01879 -0.000779765 0)
(3.01905 -0.000773414 0)
(3.01944 -0.000731479 0)
(3.01964 -0.000686304 0)
(3.01944 -0.000631649 0)
(3.0183 -0.000551546 0)
(3.01514 -0.000444041 0)
(3.01009 -0.000327976 0)
(3.00722 -0.000253715 0)
(3.00699 -0.000221971 0)
(3.00706 -0.00020224 0)
(3.00714 -0.000185607 0)
(3.00721 -0.00016171 0)
(3.00737 -0.000131336 0)
(3.00783 -0.000102475 0)
(3.00914 -8.26354e-05 0)
(3.01279 -2.84057e-05 0)
(3.02005 8.69532e-05 0)
(3.02657 0.000197125 0)
(3.02797 0.000233306 0)
(3.02791 0.000236814 0)
(3.0278 0.000233158 0)
(3.02738 0.00021956 0)
(3.02629 0.000209473 0)
(3.02341 0.000201688 0)
(3.01654 0.000143565 0)
(3.00628 4.94862e-05 0)
(3.00066 4.4679e-06 0)
(3.00001 4.63567e-08 0)
(3 -1.55065e-09 0)
(3 -1.33373e-09 0)
(3 -1.05832e-09 0)
(3 -5.17081e-10 0)
(3 -1.54058e-11 0)
(3 1.74825e-10 0)
(3 1.00119e-10 0)
(3 1.20385e-11 0)
(3 1.81416e-13 0)
(3 1.88927e-14 0)
(3 1.68484e-14 0)
(3 1.13404e-14 0)
(3 -1.84807e-15 0)
(3 -7.26762e-15 0)
(3 -2.75622e-15 0)
(3 -7.164e-16 0)
(3 3.55766e-16 0)
(3 2.99365e-16 0)
(3 -2.72392e-16 0)
(3 -1.23069e-15 0)
(3 -1.38079e-15 0)
(3 -8.21474e-16 0)
(3 -6.9004e-16 0)
(3 -8.44369e-16 0)
(3 -4.64857e-16 0)
(3 -1.02641e-15 0)
(3 -1.74991e-15 0)
(3 -1.32095e-15 0)
(3 -1.50097e-15 0)
(3 -6.41339e-16 0)
(3 -1.39817e-16 0)
(3 -1.37487e-16 0)
(3 9.44942e-17 0)
(3 9.60953e-16 0)
(3 5.86243e-16 0)
(3 -2.76669e-16 0)
(3 -7.64536e-16 0)
(3 -1.05545e-15 0)
(3 -9.94792e-16 0)
(3 -9.05385e-16 0)
(3 -9.47965e-16 0)
(3 -7.11782e-16 0)
(3 -3.38144e-16 0)
(3 1.42542e-16 0)
(3 4.11147e-16 0)
(3 2.65487e-16 0)
(3 4.52396e-16 0)
(3 5.0416e-16 0)
(3 -1.58293e-17 0)
(3 2.12743e-16 0)
(3 1.34145e-15 0)
(3 2.05703e-15 0)
(3 2.08652e-15 0)
(3 1.33027e-15 0)
(3 1.17269e-15 0)
(3 4.26875e-16 0)
(3 9.09465e-16 0)
(3 1.28172e-15 0)
(3 1.74088e-15 0)
(3 1.1644e-15 0)
(3 -9.47374e-16 0)
(3 -1.055e-15 0)
(3 -2.37792e-16 0)
(3 7.06175e-17 0)
(3 9.17716e-17 0)
(3 -1.10295e-16 0)
(3 -1.72119e-16 0)
(3 3.09928e-16 0)
(3 5.71464e-16 0)
(3 5.76468e-16 0)
(3 3.18311e-16 0)
(3 1.18584e-15 0)
(3 1.92672e-15 0)
(3 1.21015e-15 0)
(3 1.03794e-15 0)
(3 5.3349e-16 0)
(3 1.37095e-16 0)
(3 -2.18896e-16 0)
(3 -1.58699e-15 0)
(3 -1.1901e-15 0)
(3 -8.48733e-16 0)
(3 -1.25397e-16 0)
(3 5.00211e-16 0)
(3 1.78061e-16 0)
(3 -4.92955e-16 0)
(3 -1.36996e-15 0)
(3 -1.2309e-15 0)
(3 -1.01545e-15 0)
(3 -2.93188e-16 0)
(3 -1.94248e-16 0)
(3 -3.6171e-16 0)
(3 -7.23444e-16 0)
(3 -4.87776e-17 0)
(3 8.77009e-16 0)
(3 1.63011e-15 0)
(3 1.69682e-15 0)
(3.00868 -0.00183027 0)
(3.01011 -0.00160926 0)
(3.01272 -0.00137402 0)
(3.01648 -0.00125187 0)
(3.01856 -0.00119366 0)
(3.01888 -0.0011701 0)
(3.01929 -0.00110682 0)
(3.01952 -0.00105087 0)
(3.01935 -0.000994817 0)
(3.01828 -0.00088303 0)
(3.0152 -0.000692176 0)
(3.01015 -0.000483304 0)
(3.00718 -0.000374531 0)
(3.0069 -0.00034975 0)
(3.00697 -0.00034119 0)
(3.00702 -0.000328941 0)
(3.00708 -0.00031283 0)
(3.00723 -0.000296109 0)
(3.00768 -0.000276458 0)
(3.00908 -0.000259082 0)
(3.01288 -0.000228463 0)
(3.02024 -0.000107355 0)
(3.02678 8.30218e-05 0)
(3.02822 0.0002071 0)
(3.02822 0.000254725 0)
(3.02814 0.000319324 0)
(3.02779 0.000429904 0)
(3.02671 0.000566631 0)
(3.02363 0.000627249 0)
(3.0164 0.00050577 0)
(3.00601 0.000199345 0)
(3.00059 1.95433e-05 0)
(3.00001 2.12919e-07 0)
(3 -3.46537e-09 0)
(3 -3.54131e-09 0)
(3 -3.45686e-09 0)
(3 -3.13336e-09 0)
(3 -2.27828e-09 0)
(3 -1.13497e-09 0)
(3 -2.91499e-10 0)
(3 -2.17572e-11 0)
(3 -1.38521e-13 0)
(3 7.51617e-14 0)
(3 7.12921e-14 0)
(3 6.10128e-14 0)
(3 3.78294e-14 0)
(3 1.3261e-14 0)
(3 2.2018e-15 0)
(3 4.54652e-16 0)
(3 7.28735e-16 0)
(3 2.1598e-16 0)
(3 -1.12534e-15 0)
(3 -1.5251e-15 0)
(3 -1.68569e-15 0)
(3 -5.63716e-16 0)
(3 3.2129e-16 0)
(3 -3.48869e-16 0)
(3 -4.55474e-16 0)
(3 -1.24362e-15 0)
(3 -3.25139e-15 0)
(3 -2.26611e-15 0)
(3 -8.90244e-16 0)
(3 7.12053e-17 0)
(3 6.8798e-16 0)
(3 -1.39659e-16 0)
(3 1.35351e-16 0)
(3 6.27035e-16 0)
(3 3.55394e-16 0)
(3 -7.82207e-16 0)
(3 -9.93736e-16 0)
(3 -7.45329e-16 0)
(3 9.72113e-17 0)
(3 1.62353e-16 0)
(3 -1.71426e-16 0)
(3 5.25268e-16 0)
(3 5.62627e-16 0)
(3 1.02771e-15 0)
(3 1.23147e-15 0)
(3 5.31534e-16 0)
(3 7.24814e-16 0)
(3 1.66837e-15 0)
(3 1.48883e-15 0)
(3 2.00293e-15 0)
(3 2.52046e-15 0)
(3 2.23314e-15 0)
(3 1.77646e-15 0)
(3 1.40466e-15 0)
(3 9.6179e-16 0)
(3 -2.75198e-16 0)
(3 5.30611e-16 0)
(3 8.34785e-16 0)
(3 1.10268e-15 0)
(3 7.2577e-16 0)
(3 -7.27423e-16 0)
(3 -1.26886e-15 0)
(3 -7.72147e-16 0)
(3 3.17098e-16 0)
(3 4.91783e-16 0)
(3 -2.73422e-16 0)
(3 -7.37445e-16 0)
(3 3.09237e-17 0)
(3 1.32786e-16 0)
(3 2.66968e-16 0)
(3 5.76852e-16 0)
(3 1.54311e-15 0)
(3 2.75519e-15 0)
(3 2.23471e-15 0)
(3 2.46882e-15 0)
(3 2.4256e-15 0)
(3 1.21123e-15 0)
(3 -2.74775e-16 0)
(3 -1.3983e-15 0)
(3 -1.12892e-15 0)
(3 -7.47279e-16 0)
(3 6.60941e-16 0)
(3 6.91966e-16 0)
(3 9.24347e-16 0)
(3 1.25718e-16 0)
(3 -1.33242e-15 0)
(3 -1.94982e-15 0)
(3 -2.07506e-15 0)
(3 1.34381e-16 0)
(3 5.81098e-16 0)
(3 2.96884e-16 0)
(3 -3.80113e-18 0)
(3 -2.17775e-17 0)
(3 1.26597e-15 0)
(3 2.59485e-15 0)
(3 2.31438e-15 0)
(3.00925 -0.00306075 0)
(3.01071 -0.00277097 0)
(3.01334 -0.00244718 0)
(3.01682 -0.00215995 0)
(3.01871 -0.0019886 0)
(3.01901 -0.00194692 0)
(3.01941 -0.00182495 0)
(3.01964 -0.0017019 0)
(3.0195 -0.00160603 0)
(3.0185 -0.0015214 0)
(3.01555 -0.00132642 0)
(3.0105 -0.000913499 0)
(3.00732 -0.000608038 0)
(3.00698 -0.000541056 0)
(3.00704 -0.000525578 0)
(3.00711 -0.000513662 0)
(3.00718 -0.000498508 0)
(3.00736 -0.000484409 0)
(3.00787 -0.000464899 0)
(3.00933 -0.000397102 0)
(3.01321 -0.000234738 0)
(3.02061 3.6452e-05 0)
(3.02713 0.000332919 0)
(3.02853 0.000509451 0)
(3.0285 0.000576921 0)
(3.02838 0.000679149 0)
(3.02792 0.000862556 0)
(3.0267 0.00101504 0)
(3.02345 0.00103041 0)
(3.01596 0.000762306 0)
(3.00559 0.000271568 0)
(3.00051 2.38012e-05 0)
(3.00001 2.23831e-07 0)
(3 -5.38767e-09 0)
(3 -5.4563e-09 0)
(3 -5.42926e-09 0)
(3 -5.38856e-09 0)
(3 -5.04651e-09 0)
(3 -3.60949e-09 0)
(3 -1.31884e-09 0)
(3 -1.2807e-10 0)
(3 -1.37191e-12 0)
(3 9.86661e-14 0)
(3 9.88447e-14 0)
(3 9.64402e-14 0)
(3 8.67045e-14 0)
(3 5.41534e-14 0)
(3 1.35571e-14 0)
(3 1.73125e-15 0)
(3 1.64192e-15 0)
(3 1.08999e-15 0)
(3 1.21655e-16 0)
(3 -2.2795e-16 0)
(3 8.11807e-16 0)
(3 2.17803e-16 0)
(3 -7.84144e-16 0)
(3 -1.22627e-15 0)
(3 -1.51577e-15 0)
(3 -1.91643e-15 0)
(3 -2.02405e-15 0)
(3 -4.16409e-16 0)
(3 9.40838e-16 0)
(3 1.38156e-15 0)
(3 1.34691e-15 0)
(3 5.03278e-16 0)
(3 1.20033e-15 0)
(3 1.53202e-15 0)
(3 1.29971e-15 0)
(3 1.05664e-15 0)
(3 1.17895e-15 0)
(3 8.51375e-16 0)
(3 9.1316e-16 0)
(3 3.89538e-16 0)
(3 1.00863e-16 0)
(3 8.64782e-16 0)
(3 7.86815e-16 0)
(3 4.89651e-16 0)
(3 3.36777e-16 0)
(3 2.13827e-15 0)
(3 2.52498e-15 0)
(3 3.18588e-15 0)
(3 3.12143e-15 0)
(3 3.13208e-15 0)
(3 2.37777e-15 0)
(3 2.30584e-15 0)
(3 2.09841e-15 0)
(3 2.24284e-15 0)
(3 1.029e-15 0)
(3 -2.2325e-16 0)
(3 -3.87997e-16 0)
(3 -4.51579e-16 0)
(3 -1.4082e-15 0)
(3 -1.775e-15 0)
(3 -2.09315e-15 0)
(3 -3.3035e-15 0)
(3 -8.00611e-16 0)
(3 6.3816e-16 0)
(3 1.73877e-15 0)
(3 1.63862e-15 0)
(3 1.63378e-15 0)
(3 1.29545e-15 0)
(3 6.21966e-16 0)
(3 1.58651e-15 0)
(3 3.85224e-15 0)
(3 3.59221e-15 0)
(3 2.59622e-15 0)
(3 3.86095e-15 0)
(3 3.98657e-15 0)
(3 4.18881e-15 0)
(3 5.83899e-16 0)
(3 -2.39948e-15 0)
(3 -2.99536e-15 0)
(3 -1.79929e-15 0)
(3 -2.89928e-17 0)
(3 2.06929e-15 0)
(3 1.15763e-15 0)
(3 4.3066e-16 0)
(3 -7.03304e-16 0)
(3 -3.78517e-16 0)
(3 -1.29362e-15 0)
(3 -1.99118e-15 0)
(3 -6.63646e-17 0)
(3 8.58231e-16 0)
(3 8.2721e-16 0)
(3 1.3168e-15 0)
(3 8.85943e-16 0)
(3 -3.23978e-16 0)
(3 -3.61166e-16 0)
(3 9.25059e-16 0)
(3.01003 -0.00425642 0)
(3.01115 -0.00403585 0)
(3.01333 -0.00364867 0)
(3.01658 -0.00311906 0)
(3.01851 -0.00280656 0)
(3.01883 -0.00274054 0)
(3.0193 -0.0025829 0)
(3.01962 -0.00243806 0)
(3.01959 -0.00231117 0)
(3.01872 -0.00213347 0)
(3.01597 -0.00179524 0)
(3.01099 -0.00126827 0)
(3.00751 -0.000878794 0)
(3.00705 -0.000780706 0)
(3.00713 -0.000757649 0)
(3.0072 -0.000743731 0)
(3.00728 -0.000726945 0)
(3.00748 -0.000706653 0)
(3.00801 -0.00066141 0)
(3.00951 -0.000578473 0)
(3.01346 -0.000426319 0)
(3.02099 -8.72801e-05 0)
(3.0275 0.000379563 0)
(3.02883 0.000677157 0)
(3.02876 0.000795233 0)
(3.0286 0.000983784 0)
(3.02807 0.0012571 0)
(3.02675 0.00147288 0)
(3.02325 0.00146241 0)
(3.01537 0.00103271 0)
(3.00502 0.000339643 0)
(3.0004 2.6047e-05 0)
(3 1.9934e-07 0)
(3 -7.88743e-09 0)
(3 -7.94766e-09 0)
(3 -7.91001e-09 0)
(3 -7.71681e-09 0)
(3 -6.88427e-09 0)
(3 -4.70756e-09 0)
(3 -1.61737e-09 0)
(3 -1.39633e-10 0)
(3 -1.19653e-12 0)
(3 1.38312e-13 0)
(3 1.38902e-13 0)
(3 1.34189e-13 0)
(3 1.16823e-13 0)
(3 7.11594e-14 0)
(3 1.77025e-14 0)
(3 2.21592e-15 0)
(3 1.29969e-15 0)
(3 1.21831e-15 0)
(3 8.99742e-16 0)
(3 1.2846e-15 0)
(3 1.92506e-15 0)
(3 1.65867e-15 0)
(3 -7.17573e-16 0)
(3 5.87349e-16 0)
(3 9.63533e-16 0)
(3 1.16164e-15 0)
(3 1.35843e-15 0)
(3 1.04435e-15 0)
(3 1.28437e-15 0)
(3 1.68197e-15 0)
(3 1.97536e-15 0)
(3 1.95683e-15 0)
(3 2.07343e-15 0)
(3 2.80175e-15 0)
(3 2.37705e-15 0)
(3 1.65583e-15 0)
(3 1.90393e-15 0)
(3 1.78949e-15 0)
(3 1.24776e-15 0)
(3 5.72405e-16 0)
(3 4.63913e-16 0)
(3 1.12591e-16 0)
(3 -3.54631e-16 0)
(3 -7.12615e-16 0)
(3 -6.15701e-16 0)
(3 6.61025e-16 0)
(3 9.49836e-16 0)
(3 2.31012e-15 0)
(3 2.79501e-15 0)
(3 2.6303e-15 0)
(3 2.4567e-15 0)
(3 3.05411e-15 0)
(3 2.55334e-15 0)
(3 1.51641e-15 0)
(3 8.70687e-16 0)
(3 -1.16759e-15 0)
(3 -1.89944e-15 0)
(3 -2.57676e-15 0)
(3 -2.90384e-15 0)
(3 -3.21011e-15 0)
(3 -3.54415e-15 0)
(3 -3.33363e-15 0)
(3 -1.97538e-15 0)
(3 -3.35664e-16 0)
(3 1.06134e-16 0)
(3 1.30188e-15 0)
(3 1.12031e-15 0)
(3 -4.64372e-17 0)
(3 1.77097e-15 0)
(3 4.36295e-15 0)
(3 4.8544e-15 0)
(3 4.21448e-15 0)
(3 1.14685e-15 0)
(3 9.41077e-16 0)
(3 1.34689e-15 0)
(3 1.13868e-15 0)
(3 -2.48668e-15 0)
(3 -4.26529e-15 0)
(3 -4.87826e-15 0)
(3 -4.26457e-15 0)
(3 -3.46663e-15 0)
(3 -8.35069e-16 0)
(3 8.43808e-17 0)
(3 3.46096e-16 0)
(3 5.63899e-16 0)
(3 9.84743e-17 0)
(3 -8.16807e-16 0)
(3 -1.51624e-15 0)
(3 -1.47569e-15 0)
(3 -8.11215e-16 0)
(3 5.67371e-16 0)
(3 1.2326e-15 0)
(3 1.33577e-15 0)
(3 9.07371e-16 0)
(3 1.3101e-15 0)
(3 1.84623e-15 0)
(3.01021 -0.00578621 0)
(3.01158 -0.00523266 0)
(3.01407 -0.0044947 0)
(3.01731 -0.00388924 0)
(3.01885 -0.00361093 0)
(3.01913 -0.00352809 0)
(3.01953 -0.00329376 0)
(3.01974 -0.00306469 0)
(3.01963 -0.00286529 0)
(3.0188 -0.00262492 0)
(3.01627 -0.00222867 0)
(3.01146 -0.00162799 0)
(3.00768 -0.00114798 0)
(3.00707 -0.00101704 0)
(3.00715 -0.000991195 0)
(3.00722 -0.000976139 0)
(3.00731 -0.000957312 0)
(3.00751 -0.000931237 0)
(3.00804 -0.000885363 0)
(3.00955 -0.000800439 0)
(3.0136 -0.000581917 0)
(3.02129 -0.000104112 0)
(3.02783 0.000539462 0)
(3.0291 0.000951243 0)
(3.02902 0.00111923 0)
(3.02883 0.00134263 0)
(3.02826 0.00165943 0)
(3.02681 0.00190779 0)
(3.02298 0.00185841 0)
(3.01458 0.00126092 0)
(3.00432 0.00037645 0)
(3.00029 2.42615e-05 0)
(3 1.39278e-07 0)
(3 -1.0093e-08 0)
(3 -1.01506e-08 0)
(3 -1.01779e-08 0)
(3 -1.00022e-08 0)
(3 -8.84884e-09 0)
(3 -5.761e-09 0)
(3 -1.7676e-09 0)
(3 -1.26113e-10 0)
(3 -7.36184e-13 0)
(3 1.81005e-13 0)
(3 1.80875e-13 0)
(3 1.7481e-13 0)
(3 1.50089e-13 0)
(3 8.5349e-14 0)
(3 1.80976e-14 0)
(3 -2.14129e-15 0)
(3 -3.05345e-15 0)
(3 -1.91439e-15 0)
(3 3.82578e-16 0)
(3 1.64716e-15 0)
(3 2.48977e-15 0)
(3 3.73492e-15 0)
(3 4.51989e-15 0)
(3 4.00361e-15 0)
(3 3.21649e-15 0)
(3 3.47936e-15 0)
(3 3.61043e-15 0)
(3 2.88414e-15 0)
(3 2.21412e-15 0)
(3 2.64025e-15 0)
(3 2.56513e-15 0)
(3 3.22886e-15 0)
(3 2.86043e-15 0)
(3 2.63506e-15 0)
(3 2.58986e-15 0)
(3 1.64079e-15 0)
(3 2.54281e-15 0)
(3 3.89873e-15 0)
(3 3.31798e-15 0)
(3 3.26899e-15 0)
(3 3.64384e-15 0)
(3 2.20651e-15 0)
(3 1.74869e-15 0)
(3 7.46249e-16 0)
(3 7.1401e-16 0)
(3 4.77574e-16 0)
(3 4.49269e-16 0)
(3 5.21282e-16 0)
(3 7.01962e-16 0)
(3 1.37122e-15 0)
(3 1.74619e-15 0)
(3 1.30784e-15 0)
(3 1.6747e-15 0)
(3 1.65577e-15 0)
(3 1.80974e-15 0)
(3 1.47639e-15 0)
(3 1.98557e-16 0)
(3 -1.78569e-15 0)
(3 -2.9583e-15 0)
(3 -3.24566e-15 0)
(3 -3.39041e-15 0)
(3 -2.63149e-15 0)
(3 -2.41344e-15 0)
(3 -1.50136e-15 0)
(3 -9.91578e-16 0)
(3 -8.98378e-16 0)
(3 -2.66216e-16 0)
(3 6.22595e-16 0)
(3 1.69532e-15 0)
(3 2.90441e-15 0)
(3 3.24006e-15 0)
(3 3.38848e-15 0)
(3 9.39611e-16 0)
(3 -2.74783e-15 0)
(3 -2.44584e-15 0)
(3 -2.24702e-15 0)
(3 -2.29196e-15 0)
(3 -3.10647e-15 0)
(3 -3.30206e-15 0)
(3 -2.86711e-15 0)
(3 -2.67981e-15 0)
(3 -2.99809e-15 0)
(3 -1.27563e-15 0)
(3 9.61409e-16 0)
(3 1.48486e-15 0)
(3 4.40435e-16 0)
(3 -3.47988e-16 0)
(3 1.24858e-16 0)
(3 -1.15734e-15 0)
(3 -5.81928e-16 0)
(3 1.58972e-15 0)
(3 1.73991e-15 0)
(3 1.26193e-15 0)
(3 1.95335e-15 0)
(3 2.8051e-15 0)
(3 1.74824e-15 0)
(3.01127 -0.00701793 0)
(3.01259 -0.00638521 0)
(3.01483 -0.00553817 0)
(3.01778 -0.00478998 0)
(3.01924 -0.00444524 0)
(3.0195 -0.00433081 0)
(3.01984 -0.00398823 0)
(3.01994 -0.00364134 0)
(3.01973 -0.00334532 0)
(3.01888 -0.00302494 0)
(3.01651 -0.00260122 0)
(3.01192 -0.0019629 0)
(3.0079 -0.00141872 0)
(3.00709 -0.00126885 0)
(3.00716 -0.00123873 0)
(3.00724 -0.00121944 0)
(3.00732 -0.00119458 0)
(3.00751 -0.0011592 0)
(3.00805 -0.00109061 0)
(3.00963 -0.000929383 0)
(3.01382 -0.000605003 0)
(3.02169 1.35201e-05 0)
(3.02824 0.000782397 0)
(3.02947 0.00124264 0)
(3.02939 0.00142278 0)
(3.02919 0.00167016 0)
(3.02856 0.00203376 0)
(3.02694 0.00231493 0)
(3.02264 0.00220637 0)
(3.01354 0.00141064 0)
(3.00351 0.000367887 0)
(3.00019 1.87489e-05 0)
(3 6.97475e-08 0)
(3 -1.24204e-08 0)
(3 -1.24508e-08 0)
(3 -1.24594e-08 0)
(3 -1.21228e-08 0)
(3 -1.04617e-08 0)
(3 -6.40096e-09 0)
(3 -1.71322e-09 0)
(3 -9.6445e-11 0)
(3 -2.76369e-13 0)
(3 2.21841e-13 0)
(3 2.22054e-13 0)
(3 2.12907e-13 0)
(3 1.6936e-13 0)
(3 8.48733e-14 0)
(3 1.70036e-14 0)
(3 -2.50432e-15 0)
(3 -3.60282e-15 0)
(3 -3.49372e-15 0)
(3 3.80567e-17 0)
(3 2.55511e-15 0)
(3 2.80677e-15 0)
(3 3.07735e-15 0)
(3 3.05579e-15 0)
(3 2.20698e-15 0)
(3 2.34195e-15 0)
(3 3.24104e-15 0)
(3 5.04828e-15 0)
(3 4.96635e-15 0)
(3 3.57795e-15 0)
(3 2.00818e-15 0)
(3 1.88347e-15 0)
(3 2.11496e-15 0)
(3 1.93618e-15 0)
(3 9.65891e-16 0)
(3 1.34739e-15 0)
(3 2.52682e-15 0)
(3 2.05263e-15 0)
(3 1.80427e-15 0)
(3 1.268e-15 0)
(3 2.33481e-15 0)
(3 3.0846e-15 0)
(3 2.77616e-15 0)
(3 2.9318e-15 0)
(3 1.98808e-15 0)
(3 1.52766e-15 0)
(3 7.17609e-16 0)
(3 7.4955e-16 0)
(3 3.11618e-16 0)
(3 -5.6499e-16 0)
(3 -3.20573e-16 0)
(3 -2.34513e-16 0)
(3 -7.24613e-16 0)
(3 4.64784e-16 0)
(3 2.22025e-15 0)
(3 1.53912e-15 0)
(3 2.50859e-15 0)
(3 1.95954e-15 0)
(3 4.64468e-16 0)
(3 -9.3581e-16 0)
(3 -2.08989e-15 0)
(3 -2.16701e-15 0)
(3 -1.49198e-15 0)
(3 -1.81487e-15 0)
(3 -2.48564e-15 0)
(3 -1.83248e-15 0)
(3 -2.3e-15 0)
(3 -1.75863e-15 0)
(3 3.65271e-16 0)
(3 9.51526e-16 0)
(3 1.37512e-15 0)
(3 1.67038e-15 0)
(3 2.03018e-15 0)
(3 9.64632e-16 0)
(3 1.30095e-16 0)
(3 -3.13179e-15 0)
(3 -4.39049e-15 0)
(3 -4.05315e-15 0)
(3 -3.26028e-15 0)
(3 -2.11545e-15 0)
(3 -1.74224e-15 0)
(3 -1.67649e-15 0)
(3 -2.04661e-15 0)
(3 -6.74583e-16 0)
(3 4.62058e-16 0)
(3 8.58197e-16 0)
(3 -8.08557e-16 0)
(3 -5.03714e-16 0)
(3 4.53327e-16 0)
(3 9.75753e-16 0)
(3 1.3211e-15 0)
(3 1.61345e-15 0)
(3 1.93742e-15 0)
(3 2.46247e-15 0)
(3 2.812e-15 0)
(3 2.54417e-15 0)
(3 1.96705e-15 0)
(3.01233 -0.00810127 0)
(3.01354 -0.00744225 0)
(3.01561 -0.00648339 0)
(3.01815 -0.00555948 0)
(3.01932 -0.00515852 0)
(3.01953 -0.00501397 0)
(3.01982 -0.00456738 0)
(3.01992 -0.00408272 0)
(3.0197 -0.00369414 0)
(3.0189 -0.00335516 0)
(3.01676 -0.00292339 0)
(3.01245 -0.00228128 0)
(3.00817 -0.00169036 0)
(3.0071 -0.00150965 0)
(3.00715 -0.00148249 0)
(3.00723 -0.00146246 0)
(3.00731 -0.00143238 0)
(3.00753 -0.00139167 0)
(3.00813 -0.00131413 0)
(3.0098 -0.00116495 0)
(3.01421 -0.000768556 0)
(3.02234 7.81984e-05 0)
(3.02885 0.00107087 0)
(3.02998 0.00160397 0)
(3.02989 0.00180541 0)
(3.02965 0.00209885 0)
(3.02892 0.00250878 0)
(3.02703 0.00278491 0)
(3.0221 0.00255807 0)
(3.01222 0.00149716 0)
(3.00266 0.000324849 0)
(3.00011 1.22394e-05 0)
(3 2.03653e-08 0)
(3 -1.47252e-08 0)
(3 -1.47495e-08 0)
(3 -1.47466e-08 0)
(3 -1.42318e-08 0)
(3 -1.19236e-08 0)
(3 -6.72038e-09 0)
(3 -1.50439e-09 0)
(3 -6.25611e-11 0)
(3 5.38684e-14 0)
(3 2.63515e-13 0)
(3 2.61632e-13 0)
(3 2.47748e-13 0)
(3 1.92098e-13 0)
(3 8.60281e-14 0)
(3 8.93638e-15 0)
(3 -8.46573e-16 0)
(3 -2.43048e-15 0)
(3 -3.9378e-15 0)
(3 -6.35768e-16 0)
(3 1.11588e-15 0)
(3 -7.4645e-18 0)
(3 -3.55791e-16 0)
(3 -3.85875e-16 0)
(3 3.55221e-16 0)
(3 7.13778e-16 0)
(3 1.72604e-15 0)
(3 3.02881e-15 0)
(3 2.83074e-15 0)
(3 2.39032e-15 0)
(3 1.09584e-15 0)
(3 4.44507e-16 0)
(3 4.70593e-16 0)
(3 1.29373e-15 0)
(3 1.46036e-15 0)
(3 1.86921e-15 0)
(3 3.16801e-15 0)
(3 1.56477e-15 0)
(3 1.24093e-17 0)
(3 7.2443e-16 0)
(3 2.2873e-15 0)
(3 3.4014e-15 0)
(3 3.66536e-15 0)
(3 3.35011e-15 0)
(3 2.39941e-15 0)
(3 1.95513e-15 0)
(3 1.80387e-15 0)
(3 1.54693e-15 0)
(3 1.07677e-15 0)
(3 1.44536e-15 0)
(3 9.44632e-16 0)
(3 1.08868e-16 0)
(3 5.83486e-16 0)
(3 1.22675e-15 0)
(3 1.52052e-15 0)
(3 2.01247e-15 0)
(3 1.27732e-15 0)
(3 1.41551e-15 0)
(3 -7.1884e-17 0)
(3 -1.54689e-15 0)
(3 -1.89313e-15 0)
(3 -1.94034e-15 0)
(3 -1.58205e-15 0)
(3 -2.09772e-15 0)
(3 -1.38454e-15 0)
(3 -1.70077e-15 0)
(3 -7.02786e-16 0)
(3 -8.40688e-16 0)
(3 -5.29206e-16 0)
(3 1.30168e-16 0)
(3 3.75359e-16 0)
(3 3.61632e-17 0)
(3 -3.00698e-16 0)
(3 -1.06485e-16 0)
(3 -4.9441e-16 0)
(3 -1.84096e-15 0)
(3 -4.34981e-15 0)
(3 -3.45052e-15 0)
(3 -2.24089e-15 0)
(3 -2.21816e-15 0)
(3 -2.15786e-15 0)
(3 -1.32059e-15 0)
(3 -6.82357e-16 0)
(3 -2.80669e-16 0)
(3 2.31047e-16 0)
(3 -7.98285e-17 0)
(3 2.34141e-16 0)
(3 9.64669e-16 0)
(3 2.94488e-15 0)
(3 3.18489e-15 0)
(3 2.68711e-15 0)
(3 2.10954e-15 0)
(3 2.38679e-15 0)
(3 2.71837e-15 0)
(3 2.78819e-15 0)
(3 2.44148e-15 0)
(3 1.97832e-15 0)
(3.01292 -0.00981424 0)
(3.01429 -0.00868491 0)
(3.01633 -0.00726718 0)
(3.0186 -0.00615901 0)
(3.01972 -0.00563183 0)
(3.01991 -0.00549081 0)
(3.02013 -0.00510241 0)
(3.02021 -0.00462909 0)
(3.02001 -0.00417384 0)
(3.01923 -0.00371908 0)
(3.01718 -0.00318245 0)
(3.01296 -0.00249902 0)
(3.00844 -0.00190373 0)
(3.00708 -0.00170345 0)
(3.00711 -0.00168168 0)
(3.00719 -0.00167116 0)
(3.00728 -0.00165214 0)
(3.00752 -0.00162023 0)
(3.00818 -0.0015405 0)
(3.01001 -0.0013471 0)
(3.01476 -0.000838782 0)
(3.02326 0.000215707 0)
(3.02964 0.00137855 0)
(3.03061 0.00195767 0)
(3.03049 0.00217981 0)
(3.0302 0.00251967 0)
(3.02934 0.00297273 0)
(3.0271 0.00323511 0)
(3.02133 0.00283321 0)
(3.01062 0.00147807 0)
(3.00186 0.000254766 0)
(3.00005 6.63968e-06 0)
(3 -5.64749e-09 0)
(3 -1.71149e-08 0)
(3 -1.71324e-08 0)
(3 -1.70742e-08 0)
(3 -1.6243e-08 0)
(3 -1.30419e-08 0)
(3 -6.57444e-09 0)
(3 -1.16855e-09 0)
(3 -3.32167e-11 0)
(3 2.37449e-13 0)
(3 3.0432e-13 0)
(3 3.03872e-13 0)
(3 2.84079e-13 0)
(3 2.14406e-13 0)
(3 8.65313e-14 0)
(3 4.82302e-15 0)
(3 -4.1361e-15 0)
(3 -4.49392e-15 0)
(3 -4.38205e-15 0)
(3 -2.19188e-15 0)
(3 6.5761e-16 0)
(3 9.74028e-16 0)
(3 7.40882e-18 0)
(3 -1.74288e-16 0)
(3 4.57277e-16 0)
(3 7.34171e-17 0)
(3 -7.85562e-16 0)
(3 -1.01849e-16 0)
(3 2.9115e-16 0)
(3 1.60783e-15 0)
(3 2.17221e-15 0)
(3 7.54256e-16 0)
(3 9.30834e-16 0)
(3 2.33515e-15 0)
(3 2.71027e-15 0)
(3 2.85569e-15 0)
(3 3.18014e-15 0)
(3 1.9614e-15 0)
(3 1.55667e-15 0)
(3 2.97659e-15 0)
(3 4.28197e-15 0)
(3 4.52264e-15 0)
(3 4.56941e-15 0)
(3 3.77441e-15 0)
(3 4.09366e-15 0)
(3 3.76557e-15 0)
(3 4.45464e-15 0)
(3 4.07052e-15 0)
(3 2.05422e-15 0)
(3 9.81704e-16 0)
(3 1.28616e-15 0)
(3 2.17178e-15 0)
(3 4.05052e-15 0)
(3 3.93839e-15 0)
(3 1.40509e-15 0)
(3 3.15166e-16 0)
(3 -2.97482e-16 0)
(3 -9.14246e-16 0)
(3 -1.07884e-15 0)
(3 -1.28814e-15 0)
(3 -1.2174e-15 0)
(3 -1.11156e-15 0)
(3 -1.46307e-15 0)
(3 -7.46055e-16 0)
(3 -2.32322e-16 0)
(3 2.45176e-16 0)
(3 7.81206e-16 0)
(3 1.40022e-15 0)
(3 2.29952e-15 0)
(3 2.75274e-15 0)
(3 2.47802e-15 0)
(3 1.80624e-15 0)
(3 8.4923e-16 0)
(3 1.13775e-15 0)
(3 7.29586e-16 0)
(3 9.02364e-16 0)
(3 -1.00129e-15 0)
(3 -6.39706e-16 0)
(3 -9.97387e-16 0)
(3 -7.94401e-16 0)
(3 -8.19801e-16 0)
(3 5.60334e-16 0)
(3 1.0975e-15 0)
(3 4.57962e-17 0)
(3 -3.62812e-16 0)
(3 -7.76827e-16 0)
(3 6.1068e-16 0)
(3 1.87928e-15 0)
(3 3.1973e-15 0)
(3 3.04173e-15 0)
(3 2.99083e-15 0)
(3 3.0099e-15 0)
(3 3.34954e-15 0)
(3 3.69868e-15 0)
(3 2.55632e-15 0)
(3 2.17094e-15 0)
(3 2.23328e-15 0)
(3.01439 -0.0100303 0)
(3.01561 -0.0086094 0)
(3.01726 -0.00748339 0)
(3.01907 -0.00678424 0)
(3.02002 -0.00642317 0)
(3.02021 -0.0062834 0)
(3.02052 -0.0058106 0)
(3.02065 -0.00516094 0)
(3.02049 -0.0044811 0)
(3.01975 -0.0038558 0)
(3.01773 -0.00324785 0)
(3.0135 -0.00263039 0)
(3.00872 -0.0021812 0)
(3.00717 -0.00204139 0)
(3.00719 -0.00201687 0)
(3.00726 -0.00200117 0)
(3.00734 -0.00196925 0)
(3.00756 -0.00192531 0)
(3.00825 -0.00182997 0)
(3.01028 -0.00155233 0)
(3.0155 -0.000844452 0)
(3.02442 0.000526322 0)
(3.03052 0.00187331 0)
(3.03127 0.00247055 0)
(3.03113 0.00270342 0)
(3.03077 0.00308422 0)
(3.02974 0.00354924 0)
(3.02703 0.003719 0)
(3.02022 0.00304322 0)
(3.00879 0.00136362 0)
(3.00118 0.000176708 0)
(3.00002 2.95805e-06 0)
(3 -1.67028e-08 0)
(3 -1.95401e-08 0)
(3 -1.95571e-08 0)
(3 -1.94171e-08 0)
(3 -1.81072e-08 0)
(3 -1.37008e-08 0)
(3 -5.94629e-09 0)
(3 -7.87932e-10 0)
(3 -1.38804e-11 0)
(3 3.4395e-13 0)
(3 3.5628e-13 0)
(3 3.49681e-13 0)
(3 3.1764e-13 0)
(3 2.16056e-13 0)
(3 6.95586e-14 0)
(3 4.48588e-15 0)
(3 -2.76033e-15 0)
(3 -1.84618e-15 0)
(3 -1.96179e-15 0)
(3 -1.69728e-15 0)
(3 -5.41113e-16 0)
(3 1.16674e-16 0)
(3 -4.04944e-16 0)
(3 2.73783e-16 0)
(3 7.89233e-16 0)
(3 1.44194e-15 0)
(3 1.20341e-15 0)
(3 5.09095e-16 0)
(3 1.30207e-15 0)
(3 2.06937e-15 0)
(3 1.99788e-15 0)
(3 2.72512e-15 0)
(3 2.03313e-15 0)
(3 1.54902e-15 0)
(3 2.39266e-15 0)
(3 3.28969e-15 0)
(3 3.88115e-15 0)
(3 4.44298e-15 0)
(3 3.85383e-15 0)
(3 3.24138e-15 0)
(3 3.31178e-15 0)
(3 3.96178e-15 0)
(3 3.70306e-15 0)
(3 3.60669e-15 0)
(3 3.17186e-15 0)
(3 2.93127e-15 0)
(3 3.03673e-15 0)
(3 3.88544e-15 0)
(3 3.82523e-15 0)
(3 2.47128e-15 0)
(3 1.98719e-15 0)
(3 2.41175e-15 0)
(3 2.94561e-15 0)
(3 2.80375e-15 0)
(3 1.28851e-15 0)
(3 -1.46966e-16 0)
(3 -9.68876e-16 0)
(3 -2.89837e-15 0)
(3 -1.23071e-15 0)
(3 -2.50428e-16 0)
(3 -5.46722e-16 0)
(3 -8.3225e-16 0)
(3 -1.24123e-15 0)
(3 -5.27712e-16 0)
(3 -5.244e-16 0)
(3 2.87018e-16 0)
(3 5.83696e-16 0)
(3 1.29599e-15 0)
(3 1.42435e-15 0)
(3 1.78297e-15 0)
(3 2.75506e-15 0)
(3 2.23701e-15 0)
(3 1.55828e-15 0)
(3 9.80587e-16 0)
(3 1.40359e-15 0)
(3 1.93865e-15 0)
(3 3.09071e-15 0)
(3 3.10821e-16 0)
(3 -1.49824e-15 0)
(3 -3.54055e-16 0)
(3 -4.30159e-16 0)
(3 -5.54849e-16 0)
(3 -5.6504e-16 0)
(3 -8.62968e-16 0)
(3 -1.301e-15 0)
(3 -7.35095e-16 0)
(3 7.74449e-16 0)
(3 3.02034e-15 0)
(3 7.90934e-16 0)
(3 1.92208e-15 0)
(3 2.22671e-15 0)
(3 2.28103e-15 0)
(3 2.55446e-15 0)
(3 3.83012e-15 0)
(3 3.158e-15 0)
(3 2.33773e-15 0)
(3 1.89454e-15 0)
(3.01607 -0.0100477 0)
(3.01707 -0.00886929 0)
(3.01808 -0.00816436 0)
(3.01936 -0.0075793 0)
(3.02058 -0.00706716 0)
(3.02112 -0.00655346 0)
(3.02122 -0.00619097 0)
(3.0212 -0.00564914 0)
(3.02105 -0.00487357 0)
(3.02036 -0.00409866 0)
(3.01836 -0.00339692 0)
(3.01399 -0.00278766 0)
(3.00888 -0.0024085 0)
(3.00718 -0.00230728 0)
(3.00719 -0.00229249 0)
(3.00725 -0.00228508 0)
(3.00734 -0.00227428 0)
(3.00762 -0.00224472 0)
(3.00841 -0.00212519 0)
(3.0107 -0.0017759 0)
(3.01652 -0.00082377 0)
(3.02586 0.000901426 0)
(3.03148 0.00239078 0)
(3.03198 0.00298031 0)
(3.03183 0.0032259 0)
(3.03138 0.00365649 0)
(3.03012 0.00412651 0)
(3.02678 0.00416123 0)
(3.0187 0.00312694 0)
(3.00683 0.00115869 0)
(3.00066 0.000106488 0)
(3.00001 1.0513e-06 0)
(3 -2.15297e-08 0)
(3 -2.20457e-08 0)
(3 -2.20452e-08 0)
(3 -2.17184e-08 0)
(3 -1.96816e-08 0)
(3 -1.37187e-08 0)
(3 -4.88332e-09 0)
(3 -4.47289e-10 0)
(3 -4.21595e-12 0)
(3 3.95541e-13 0)
(3 3.96873e-13 0)
(3 3.87236e-13 0)
(3 3.37833e-13 0)
(3 2.04263e-13 0)
(3 5.41875e-14 0)
(3 6.6098e-16 0)
(3 3.23435e-16 0)
(3 9.8712e-17 0)
(3 7.07548e-16 0)
(3 -2.75651e-16 0)
(3 -7.48299e-16 0)
(3 -1.71944e-15 0)
(3 -1.28462e-15 0)
(3 -5.22175e-18 0)
(3 6.87034e-16 0)
(3 2.74938e-15 0)
(3 4.53889e-15 0)
(3 3.53824e-15 0)
(3 2.82793e-15 0)
(3 2.52409e-15 0)
(3 2.53614e-15 0)
(3 3.13544e-15 0)
(3 2.75732e-15 0)
(3 2.33948e-15 0)
(3 2.723e-15 0)
(3 1.92103e-15 0)
(3 1.73978e-15 0)
(3 3.10904e-15 0)
(3 3.54135e-15 0)
(3 2.47569e-15 0)
(3 2.79499e-15 0)
(3 2.86656e-15 0)
(3 3.14987e-15 0)
(3 2.89767e-15 0)
(3 2.97438e-15 0)
(3 3.35032e-15 0)
(3 3.28766e-15 0)
(3 2.95373e-15 0)
(3 3.45918e-15 0)
(3 3.36818e-15 0)
(3 2.67012e-15 0)
(3 1.98974e-15 0)
(3 1.08394e-15 0)
(3 1.68475e-15 0)
(3 1.60781e-15 0)
(3 8.55859e-16 0)
(3 2.49984e-16 0)
(3 -6.12653e-17 0)
(3 3.29729e-16 0)
(3 -6.91708e-18 0)
(3 8.83106e-17 0)
(3 1.25974e-16 0)
(3 1.045e-15 0)
(3 1.02081e-15 0)
(3 1.32949e-15 0)
(3 1.2475e-15 0)
(3 5.0179e-16 0)
(3 1.45071e-16 0)
(3 -9.36798e-17 0)
(3 -2.06127e-16 0)
(3 -2.46059e-18 0)
(3 1.36827e-15 0)
(3 1.73754e-15 0)
(3 1.65739e-15 0)
(3 1.86272e-15 0)
(3 1.65642e-15 0)
(3 2.48606e-15 0)
(3 1.76485e-15 0)
(3 9.56468e-16 0)
(3 3.35799e-16 0)
(3 4.3622e-16 0)
(3 -2.92714e-16 0)
(3 -6.52135e-16 0)
(3 -7.8304e-16 0)
(3 -6.7265e-16 0)
(3 9.07992e-16 0)
(3 6.90612e-16 0)
(3 5.56212e-16 0)
(3 1.24645e-15 0)
(3 1.60945e-15 0)
(3 2.16895e-15 0)
(3 2.70597e-15 0)
(3 3.27366e-15 0)
(3 3.80385e-15 0)
(3 4.17252e-15 0)
(3 3.91804e-15 0)
(3 2.39042e-15 0)
(3.01739 -0.0102335 0)
(3.01792 -0.00952824 0)
(3.01857 -0.00895143 0)
(3.01958 -0.00849569 0)
(3.02082 -0.0078565 0)
(3.02183 -0.00696133 0)
(3.02207 -0.00630866 0)
(3.022 -0.00587042 0)
(3.02177 -0.00509853 0)
(3.02104 -0.0042128 0)
(3.01893 -0.00344433 0)
(3.01429 -0.00290162 0)
(3.00893 -0.00263776 0)
(3.00713 -0.00256755 0)
(3.00714 -0.00255019 0)
(3.00723 -0.00254285 0)
(3.00732 -0.0025337 0)
(3.00763 -0.00250679 0)
(3.00856 -0.00233366 0)
(3.01126 -0.00183384 0)
(3.01785 -0.000588093 0)
(3.02754 0.00148316 0)
(3.03247 0.003035 0)
(3.03273 0.00357874 0)
(3.03256 0.00383671 0)
(3.03199 0.00430471 0)
(3.03042 0.00473582 0)
(3.02623 0.00454915 0)
(3.01669 0.00306236 0)
(3.00489 0.000894499 0)
(3.00032 5.45066e-05 0)
(3 2.78037e-07 0)
(3 -2.45416e-08 0)
(3 -2.45995e-08 0)
(3 -2.45694e-08 0)
(3 -2.39339e-08 0)
(3 -2.08063e-08 0)
(3 -1.29337e-08 0)
(3 -3.5457e-09 0)
(3 -2.04812e-10 0)
(3 -6.26654e-13 0)
(3 4.48009e-13 0)
(3 4.45977e-13 0)
(3 4.29326e-13 0)
(3 3.52324e-13 0)
(3 1.785e-13 0)
(3 2.95501e-14 0)
(3 1.61367e-15 0)
(3 -1.15199e-15 0)
(3 -1.85212e-15 0)
(3 -1.2076e-15 0)
(3 -1.80158e-15 0)
(3 -2.95092e-15 0)
(3 -4.13258e-15 0)
(3 -2.22969e-15 0)
(3 -6.5021e-16 0)
(3 1.76079e-15 0)
(3 3.1036e-15 0)
(3 2.51612e-15 0)
(3 3.12291e-15 0)
(3 2.40685e-15 0)
(3 3.08713e-15 0)
(3 2.85572e-15 0)
(3 1.88033e-15 0)
(3 2.5854e-15 0)
(3 2.70813e-15 0)
(3 2.81068e-15 0)
(3 2.24699e-15 0)
(3 1.27398e-15 0)
(3 1.6002e-15 0)
(3 2.60215e-15 0)
(3 3.15455e-15 0)
(3 2.09817e-15 0)
(3 1.47507e-15 0)
(3 1.64006e-15 0)
(3 1.28398e-15 0)
(3 2.64357e-15 0)
(3 3.95779e-15 0)
(3 3.71633e-15 0)
(3 2.60706e-15 0)
(3 2.42312e-15 0)
(3 2.81679e-15 0)
(3 3.02668e-15 0)
(3 1.88718e-15 0)
(3 1.4351e-15 0)
(3 1.78269e-15 0)
(3 1.88183e-15 0)
(3 1.94805e-15 0)
(3 2.2332e-15 0)
(3 2.20978e-15 0)
(3 2.56796e-17 0)
(3 -7.14739e-16 0)
(3 -2.3391e-16 0)
(3 -3.20758e-16 0)
(3 -5.79458e-16 0)
(3 -1.1817e-15 0)
(3 -1.15146e-15 0)
(3 -4.08894e-16 0)
(3 -2.81312e-16 0)
(3 -5.22321e-16 0)
(3 -8.25186e-16 0)
(3 -1.00417e-15 0)
(3 -1.3556e-15 0)
(3 -1.07215e-16 0)
(3 1.72081e-15 0)
(3 2.05402e-15 0)
(3 1.65839e-15 0)
(3 1.70797e-15 0)
(3 1.86979e-15 0)
(3 3.21565e-15 0)
(3 4.5148e-15 0)
(3 2.46615e-15 0)
(3 2.53713e-15 0)
(3 9.04139e-16 0)
(3 -1.0147e-15 0)
(3 -1.28639e-15 0)
(3 -6.49712e-17 0)
(3 -1.16766e-16 0)
(3 -2.60951e-16 0)
(3 3.8853e-16 0)
(3 1.82462e-15 0)
(3 2.17275e-15 0)
(3 2.75983e-15 0)
(3 3.25156e-15 0)
(3 4.19128e-15 0)
(3 5.49502e-15 0)
(3 3.9777e-15 0)
(3 2.67756e-15 0)
(3 1.78954e-15 0)
(3.01823 -0.0111153 0)
(3.0187 -0.0105861 0)
(3.01936 -0.00998185 0)
(3.02014 -0.00926167 0)
(3.02139 -0.00841857 0)
(3.02272 -0.00727693 0)
(3.0231 -0.00636394 0)
(3.02302 -0.00590636 0)
(3.02269 -0.00515585 0)
(3.02182 -0.00422799 0)
(3.01945 -0.00345503 0)
(3.01442 -0.00304956 0)
(3.00893 -0.00301252 0)
(3.00726 -0.00301771 0)
(3.00728 -0.00299868 0)
(3.00735 -0.00297695 0)
(3.00745 -0.00292822 0)
(3.00779 -0.00282029 0)
(3.00887 -0.00259112 0)
(3.01205 -0.00190251 0)
(3.01956 -0.000252228 0)
(3.02943 0.00219233 0)
(3.03347 0.0037273 0)
(3.03353 0.00420152 0)
(3.03333 0.00449443 0)
(3.03258 0.00499894 0)
(3.03059 0.005346 0)
(3.02527 0.00483895 0)
(3.0142 0.00282726 0)
(3.00315 0.000614913 0)
(3.00013 2.30157e-05 0)
(3 3.70609e-08 0)
(3 -2.72303e-08 0)
(3 -2.72206e-08 0)
(3 -2.70905e-08 0)
(3 -2.59109e-08 0)
(3 -2.12347e-08 0)
(3 -1.12559e-08 0)
(3 -2.19456e-09 0)
(3 -7.15317e-11 0)
(3 3.2262e-13 0)
(3 4.90333e-13 0)
(3 4.88258e-13 0)
(3 4.56122e-13 0)
(3 3.44278e-13 0)
(3 1.35007e-13 0)
(3 8.9866e-15 0)
(3 6.60773e-16 0)
(3 -3.69654e-16 0)
(3 -4.56038e-16 0)
(3 -6.58518e-16 0)
(3 -3.65068e-16 0)
(3 -1.5206e-15 0)
(3 -1.31234e-15 0)
(3 -2.83018e-17 0)
(3 3.2184e-16 0)
(3 9.59049e-16 0)
(3 2.0708e-15 0)
(3 1.84441e-15 0)
(3 1.24424e-15 0)
(3 1.13578e-15 0)
(3 1.74233e-15 0)
(3 2.06259e-15 0)
(3 2.01583e-15 0)
(3 3.27362e-15 0)
(3 4.05561e-15 0)
(3 4.6669e-15 0)
(3 3.78599e-15 0)
(3 1.69469e-15 0)
(3 8.36017e-16 0)
(3 2.4302e-15 0)