/*--------------------------------*- C++ -*----------------------------------*\
  =========                 |
  \\      /  F ield         | OpenFOAM: The Open Source CFD Toolbox
   \\    /   O peration     | Website:  https://openfoam.org
    \\  /    A nd           | Version:  7
     \\/     M anipulation  |
\*---------------------------------------------------------------------------*/
FoamFile
{
    version     2.0;
    format      ascii;
    class       volScalarField;
    location    "1.4";
    object      p;
}
// * * * * * * * * * * * * * * * * * * * * * * * * * * * * * * * * * * * * * //

dimensions      [1 -1 -2 0 0 0 0];

internalField   nonuniform List<scalar> 
16192
(
1.18721
1.18773
1.19044
1.196
1.20265
1.21466
1.23439
1.25121
1.26484
1.26779
1.26746
1.26555
1.26004
1.25172
1.24768
1.24498
1.24151
1.23945
1.2383
1.23529
1.23194
1.22768
1.22081
1.21108
1.20451
1.20304
1.20359
1.2062
1.21162
1.21854
1.22181
1.22321
1.22387
1.22223
1.21912
1.21818
1.2181
1.21835
1.2151
1.20973
1.20414
1.19834
1.19138
1.18199
1.17053
1.16441
1.16214
1.16135
1.1614
1.16385
1.16873
1.17073
1.16972
1.16761
1.16345
1.15609
1.14546
1.13777
1.13453
1.13344
1.13383
1.13778
1.14381
1.14597
1.14532
1.1436
1.14057
1.13532
1.12631
1.11882
1.11642
1.11555
1.11608
1.12113
1.13576
1.16499
1.2215
1.27254
1.27911
1.27875
1.27452
1.26297
1.25554
1.2535
1.25225
1.2541
1.26344
1.26986
1.2693
1.26732
1.26442
1.25812
1.24781
1.23931
1.23501
1.23248
1.23023
1.22796
1.22572
1.22346
1.22046
1.21626
1.21184
1.20743
1.20261
1.19879
1.19715
1.19671
1.19715
1.19608
1.19451
1.19306
1.19187
1.19034
1.18788
1.18331
1.17445
1.16725
1.16563
1.16484
1.16449
1.16618
1.16971
1.16974
1.16845
1.1664
1.16154
1.15227
1.14541
1.14384
1.14261
1.14104
1.13929
1.13777
1.13766
1.13944
1.13937
1.13862
1.1384
1.13849
1.13718
1.13445
1.13208
1.13071
1.12942
1.12875
1.12812
1.12692
1.12603
1.1259
1.12747
1.13024
1.13138
1.13173
1.13141
1.12916
1.12448
1.11728
1.11206
1.11002
1.10819
1.10635
1.10566
1.10714
1.109
1.10871
1.10747
1.10507
1.10199
1.09861
1.09647
1.09564
1.09526
1.09543
1.09725
1.09912
1.09912
1.09842
1.09641
1.09209
1.08749
1.08528
1.08441
1.08433
1.08398
1.08334
1.08269
1.08259
1.08512
1.08879
1.08869
1.08724
1.08562
1.08349
1.08019
1.07473
1.06502
1.05731
1.05528
1.05458
1.05411
1.05395
1.05446
1.0563
1.06068
1.06595
1.0669
1.0659
1.06435
1.06159
1.05721
1.05197
1.04782
1.04634
1.04552
1.0448
1.04398
1.0429
1.04106
1.03823
1.03485
1.03263
1.03269
1.03689
1.06472
1.18161
1.47697
1.86131
2.16799
2.37159
2.49593
2.52627
2.5251
2.50446
2.47418
2.46069
2.45867
2.46178
2.46934
2.47255
2.46728
2.45983
2.45149
2.44282
2.4338
2.42284
2.4082
2.39176
2.38185
2.37652
2.37198
2.37015
2.37669
1.18602
1.18741
1.19062
1.19603
1.20192
1.20914
1.22444
1.24153
1.25538
1.26383
1.26453
1.26337
1.25879
1.25528
1.25383
1.25282
1.24945
1.24658
1.24421
1.24021
1.23415
1.22563
1.21472
1.20732
1.20536
1.20547
1.20716
1.21154
1.21797
1.22229
1.22392
1.22486
1.22479
1.22273
1.22162
1.22165
1.22297
1.22179
1.21777
1.21211
1.20558
1.19836
1.18928
1.1775
1.17072
1.16867
1.16779
1.16762
1.16957
1.1736
1.17476
1.17366
1.17145
1.16682
1.15837
1.1467
1.13936
1.13653
1.13558
1.13621
1.14099
1.14688
1.14788
1.1472
1.14589
1.14325
1.13778
1.12975
1.12358
1.12062
1.11907
1.11777
1.11785
1.1232
1.13493
1.1527
1.19093
1.25134
1.26976
1.27039
1.26611
1.25877
1.25599
1.25552
1.25685
1.2645
1.2725
1.27289
1.27122
1.26947
1.26651
1.25979
1.24852
1.23943
1.23541
1.23223
1.22908
1.22624
1.22356
1.22072
1.21759
1.21429
1.21082
1.20749
1.20501
1.20362
1.20331
1.20278
1.20158
1.19981
1.1975
1.19468
1.19155
1.18825
1.1831
1.17425
1.16714
1.16537
1.16473
1.16474
1.16689
1.17193
1.17476
1.17373
1.17181
1.16811
1.16033
1.14921
1.14509
1.14399
1.14281
1.1413
1.13966
1.13885
1.14086
1.14228
1.14137
1.14048
1.13974
1.13774
1.13406
1.13018
1.12874
1.12775
1.12707
1.12703
1.12687
1.12698
1.12801
1.13091
1.13515
1.13662
1.13673
1.13608
1.13309
1.12746
1.11871
1.11303
1.11138
1.11007
1.10864
1.10813
1.1102
1.11296
1.11262
1.11069
1.10754
1.10342
1.09867
1.096
1.09499
1.09503
1.0954
1.0972
1.09955
1.09982
1.09922
1.09766
1.09397
1.08892
1.08633
1.08549
1.08531
1.08541
1.08528
1.08498
1.08504
1.08748
1.09136
1.09144
1.09
1.08835
1.08634
1.08325
1.07806
1.06901
1.05999
1.05688
1.05583
1.05523
1.05498
1.05554
1.05783
1.06287
1.06862
1.06977
1.06879
1.06711
1.06448
1.06038
1.05489
1.05007
1.04726
1.0457
1.04461
1.04352
1.0422
1.0405
1.03858
1.03646
1.03565
1.03787
1.0576
1.14155
1.37311
1.74447
2.11245
2.33545
2.4815
2.53279
2.52932
2.50859
2.49139
2.48151
2.47804
2.4771
2.47628
2.47355
2.4687
2.46387
2.45914
2.45328
2.44536
2.43608
2.42437
2.41126
2.39797
2.38487
2.37719
2.37214
2.37005
2.37588
2.38942
1.18762
1.19003
1.19313
1.19677
1.19983
1.20396
1.21282
1.2276
1.2424
1.2561
1.26119
1.26139
1.26011
1.25965
1.26067
1.26145
1.2574
1.25333
1.24937
1.24328
1.23326
1.22026
1.21123
1.2089
1.20873
1.20949
1.21278
1.21834
1.2228
1.22472
1.22562
1.22568
1.22522
1.22426
1.22408
1.22515
1.22635
1.22386
1.21902
1.21283
1.20494
1.19557
1.18425
1.17742
1.1755
1.17479
1.17513
1.17755
1.18057
1.1805
1.17911
1.17651
1.17139
1.16231
1.14971
1.1417
1.13873
1.13768
1.13808
1.14277
1.14837
1.14888
1.1479
1.14619
1.14327
1.13754
1.13009
1.12639
1.12473
1.12336
1.12278
1.12374
1.12554
1.13099
1.13582
1.14274
1.16247
1.21188
1.25226
1.25987
1.26025
1.25892
1.25932
1.2612
1.26802
1.27251
1.27344
1.27351
1.27224
1.27028
1.26629
1.25944
1.25011
1.2407
1.235
1.23138
1.22797
1.22474
1.22169
1.21888
1.21651
1.21437
1.21235
1.21123
1.21125
1.21054
1.20889
1.207
1.2046
1.20159
1.19805
1.19398
1.18968
1.18357
1.17413
1.16691
1.16523
1.16493
1.1652
1.16752
1.17306
1.17804
1.1777
1.17576
1.17233
1.16608
1.15477
1.14717
1.14556
1.14458
1.14353
1.14234
1.14148
1.1432
1.146
1.14533
1.14367
1.14167
1.13853
1.13368
1.12815
1.12612
1.12541
1.12477
1.12491
1.12547
1.12648
1.12884
1.13348
1.13946
1.14174
1.14162
1.14059
1.13712
1.13088
1.12066
1.11406
1.11268
1.11177
1.1107
1.11032
1.11249
1.11599
1.11628
1.11411
1.1105
1.1055
1.10008
1.09727
1.09596
1.09574
1.09619
1.09748
1.09955
1.09975
1.09926
1.09811
1.09508
1.0897
1.08637
1.08579
1.08588
1.08623
1.08654
1.08672
1.08731
1.09014
1.09414
1.09438
1.093
1.0912
1.08906
1.08594
1.08098
1.07221
1.0632
1.05963
1.05814
1.05701
1.05645
1.05676
1.05928
1.06472
1.07014
1.07128
1.07058
1.06904
1.06646
1.06265
1.05723
1.0519
1.04875
1.04667
1.04502
1.0436
1.04222
1.04094
1.03949
1.03847
1.03907
1.04953
1.10536
1.30527
1.64225
2.01083
2.30275
2.48247
2.52105
2.52398
2.51152
2.5041
2.50284
2.50628
2.50279
2.49156
2.4772
2.46713
2.46255
2.45926
2.45953
2.45993
2.45336
2.44204
2.42657
2.41109
2.39748
2.38864
2.38314
2.37829
2.37542
2.37702
2.38531
2.39155
1.19168
1.19299
1.19416
1.19582
1.19673
1.19787
1.20245
1.21362
1.22893
1.2456
1.25661
1.26031
1.26226
1.26456
1.26931
1.26897
1.26424
1.25869
1.25249
1.2442
1.2306
1.21722
1.21344
1.2131
1.2132
1.21516
1.21966
1.22371
1.22569
1.22685
1.22635
1.22599
1.2261
1.22588
1.22645
1.2287
1.2281
1.22461
1.21912
1.21095
1.20071
1.1894
1.18256
1.18068
1.18023
1.18135
1.18491
1.18834
1.18829
1.18684
1.18397
1.17791
1.16805
1.15442
1.14555
1.14236
1.14096
1.14068
1.14419
1.14911
1.14918
1.1479
1.1459
1.14246
1.13604
1.12967
1.1271
1.12614
1.12602
1.12749
1.1305
1.13286
1.13362
1.13338
1.13349
1.13352
1.14039
1.17131
1.22293
1.24898
1.25864
1.26242
1.26604
1.27303
1.27921
1.27691
1.27524
1.27433
1.2722
1.26916
1.2647
1.25805
1.24945
1.24111
1.23528
1.23164
1.22833
1.2248
1.22166
1.21965
1.21823
1.21769
1.21816
1.21822
1.21669
1.21435
1.21142
1.20823
1.20507
1.20165
1.19749
1.19257
1.18567
1.17542
1.16754
1.16557
1.16552
1.16595
1.16821
1.17375
1.17983
1.18057
1.1787
1.1754
1.16966
1.15923
1.14948
1.14709
1.14643
1.14569
1.14508
1.14498
1.14697
1.15021
1.15012
1.14762
1.14447
1.14026
1.13401
1.12656
1.12362
1.12312
1.12264
1.12249
1.12324
1.12498
1.12864
1.13515
1.1428
1.14553
1.14515
1.14361
1.1404
1.13464
1.12383
1.11538
1.11384
1.11326
1.11261
1.11242
1.11456
1.11828
1.11935
1.11739
1.11382
1.10843
1.10164
1.09849
1.09771
1.09736
1.09755
1.09851
1.09969
1.09964
1.09919
1.09822
1.09554
1.09016
1.08602
1.08534
1.08555
1.08614
1.08685
1.08765
1.08909
1.09242
1.09674
1.09727
1.09607
1.09437
1.09221
1.08899
1.08403
1.0754
1.06619
1.06237
1.06089
1.05949
1.05841
1.05817
1.06028
1.06586
1.07079
1.07149
1.07098
1.07
1.06807
1.06493
1.05996
1.05413
1.05028
1.04807
1.04609
1.04419
1.04264
1.04152
1.0408
1.04064
1.0466
1.08494
1.22787
1.52134
1.94088
2.24878
2.45013
2.53177
2.51893
2.50697
2.51048
2.51676
2.52392
2.521
2.51196
2.49611
2.47782
2.46691
2.46105
2.45916
2.46326
2.46547
2.45738
2.44543
2.4291
2.4116
2.39919
2.39154
2.38578
2.38267
2.38188
2.38144
2.38203
2.38579
2.38643
1.19378
1.19362
1.19332
1.19348
1.19397
1.19386
1.1957
1.20289
1.21661
1.23489
1.25061
1.25913
1.26436
1.27007
1.27525
1.27388
1.26868
1.26219
1.25443
1.2447
1.22966
1.21922
1.21829
1.21816
1.21891
1.22186
1.22517
1.22697
1.22814
1.22783
1.2262
1.22702
1.22741
1.22774
1.22966
1.23101
1.22892
1.22449
1.21732
1.20641
1.19381
1.18636
1.18437
1.18393
1.18523
1.1896
1.19431
1.19508
1.19412
1.19189
1.18655
1.17693
1.16171
1.15165
1.14794
1.14626
1.1453
1.14688
1.15032
1.14995
1.14822
1.14577
1.14156
1.13474
1.12925
1.12706
1.12647
1.12704
1.13
1.13547
1.13833
1.13697
1.13467
1.13239
1.12986
1.12356
1.12461
1.14366
1.19179
1.23594
1.25909
1.26917
1.27643
1.28339
1.28257
1.27709
1.27219
1.26934
1.2667
1.26399
1.26025
1.2538
1.24565
1.23926
1.23569
1.23311
1.23045
1.22778
1.22573
1.22433
1.224
1.22422
1.22275
1.22027
1.21733
1.21398
1.2108
1.2079
1.20506
1.20156
1.19647
1.18905
1.17796
1.16941
1.16708
1.16727
1.16796
1.16987
1.17472
1.18077
1.18259
1.18115
1.17778
1.17209
1.16177
1.15168
1.1487
1.14808
1.14794
1.148
1.1492
1.15205
1.15517
1.15539
1.15268
1.14825
1.14266
1.13498
1.12624
1.12222
1.12165
1.12137
1.12097
1.12086
1.12244
1.12712
1.13582
1.1451
1.14749
1.14669
1.14491
1.1422
1.13728
1.12741
1.11752
1.11519
1.11503
1.11484
1.11502
1.11719
1.12075
1.12202
1.12034
1.11694
1.11173
1.10435
1.10034
1.09932
1.09884
1.09885
1.09998
1.10046
1.10027
1.09975
1.09851
1.09575
1.09029
1.08544
1.08443
1.08453
1.08507
1.08619
1.08764
1.08978
1.09376
1.0987
1.09985
1.09892
1.09748
1.09564
1.09259
1.08746
1.07881
1.0694
1.06535
1.06385
1.06244
1.06114
1.06042
1.0616
1.06638
1.0708
1.07132
1.0708
1.07012
1.06892
1.06656
1.06198
1.05636
1.05251
1.05007
1.04804
1.0457
1.04355
1.04266
1.04268
1.04528
1.06545
1.17812
1.44467
1.81238
2.18136
2.44845
2.5178
2.52235
2.51945
2.52268
2.53522
2.54385
2.53988
2.52392
2.50415
2.48741
2.47964
2.47637
2.47554
2.47409
2.4712
2.46524
2.45708
2.44678
2.4322
2.41465
2.40195
2.39556
2.391
2.38844
2.38654
2.38453
2.38329
2.38425
2.38535
2.38036
1.19342
1.19289
1.19193
1.19128
1.19116
1.19106
1.19241
1.19663
1.20609
1.22365
1.24329
1.25681
1.26597
1.27392
1.27766
1.27621
1.2713
1.26444
1.25617
1.24549
1.23224
1.22452
1.22358
1.22364
1.22503
1.22752
1.22892
1.22994
1.22993
1.22744
1.2277
1.22893
1.22951
1.23076
1.23305
1.23236
1.22918
1.22332
1.2136
1.19926
1.18967
1.1872
1.18665
1.18754
1.19161
1.19707
1.19903
1.1985
1.19658
1.19301
1.18607
1.1731
1.16218
1.15683
1.15432
1.15254
1.15212
1.15324
1.15219
1.15
1.14689
1.14154
1.13414
1.12931
1.12716
1.12661
1.12728
1.13084
1.13739
1.14126
1.13997
1.13675
1.1331
1.1286
1.12197
1.119
1.12169
1.13182
1.16741
1.21911
1.25871
1.27792
1.28544
1.28664
1.28475
1.27885
1.27177
1.26611
1.26147
1.257
1.2513
1.24438
1.23985
1.23792
1.23723
1.23619
1.23522
1.23441
1.23334
1.2316
1.22932
1.22608
1.22236
1.21884
1.21567
1.21293
1.21038
1.20776
1.20497
1.2009
1.19414
1.18242
1.17239
1.16947
1.1696
1.17052
1.17221
1.17648
1.18204
1.18406
1.18282
1.17964
1.17419
1.16382
1.1535
1.15014
1.14929
1.14931
1.15017
1.15318
1.15747
1.16041
1.16072
1.15826
1.15349
1.14717
1.13718
1.12587
1.12115
1.12023
1.12001
1.11986
1.11984
1.12084
1.12506
1.13467
1.14564
1.14836
1.14715
1.14515
1.14266
1.13828
1.12963
1.1196
1.11641
1.11652
1.11697
1.11778
1.12062
1.12409
1.12497
1.12347
1.12
1.11461
1.10704
1.10251
1.10098
1.10018
1.09986
1.10084
1.10197
1.10178
1.10118
1.09973
1.09659
1.09055
1.08481
1.08347
1.08346
1.08376
1.08459
1.08638
1.08927
1.09391
1.0996
1.10176
1.10131
1.10022
1.09873
1.09633
1.09168
1.08309
1.07285
1.06846
1.06706
1.06572
1.06433
1.0633
1.06363
1.06717
1.0707
1.07095
1.07047
1.06994
1.06904
1.06744
1.0639
1.0585
1.05429
1.05191
1.05011
1.04792
1.04532
1.04468
1.04605
1.05987
1.13065
1.32485
1.72955
2.10895
2.37255
2.53841
2.5254
2.51047
2.52622
2.54343
2.56026
2.55927
2.54739
2.52332
2.49832
2.48726
2.48157
2.48325
2.49099
2.48837
2.47941
2.46749
2.45495
2.44409
2.43362
2.42169
2.40863
2.39834
2.39113
2.3858
2.38244
2.38282
2.38577
2.38922
2.38858
2.383
2.37632
1.19253
1.19208
1.19108
1.18957
1.18878
1.18854
1.18932
1.19256
1.19886
1.21245
1.23389
1.25185
1.26554
1.27466
1.27771
1.27679
1.27286
1.26631
1.25814
1.24896
1.23893
1.23051
1.22855
1.22869
1.23041
1.23189
1.2327
1.23295
1.2306
1.22928
1.23109
1.23223
1.2332
1.23516
1.23551
1.23355
1.22872
1.22071
1.20801
1.19424
1.18987
1.1891
1.18923
1.19191
1.19712
1.20021
1.20025
1.1991
1.19653
1.19077
1.18058
1.17195
1.16768
1.16529
1.16315
1.16127
1.15927
1.15699
1.15402
1.14985
1.14374
1.13575
1.13052
1.1283
1.12763
1.12785
1.13105
1.13762
1.14109
1.1399
1.13735
1.13359
1.12807
1.12057
1.11501
1.11485
1.1179
1.12791
1.15302
1.19991
1.25259
1.28378
1.28913
1.2891
1.28737
1.28195
1.27375
1.26476
1.25539
1.24595
1.23948
1.23742
1.237
1.23779
1.23915
1.24108
1.24271
1.24235
1.2402
1.23632
1.2301
1.2241
1.2202
1.21745
1.21494
1.21266
1.21053
1.20794
1.20447
1.19931
1.18883
1.17717
1.17329
1.17311
1.17399
1.1755
1.17893
1.18371
1.1854
1.18424
1.18124
1.17607
1.1662
1.15578
1.15221
1.15117
1.15102
1.1526
1.15717
1.16208
1.1644
1.16427
1.1621
1.15808
1.152
1.14156
1.12917
1.12273
1.12028
1.11947
1.11919
1.11907
1.11968
1.12345
1.13279
1.14452
1.14823
1.14689
1.14464
1.14218
1.13796
1.13007
1.12097
1.1175
1.11763
1.11858
1.12028
1.12434
1.12813
1.12859
1.12732
1.12374
1.11753
1.10929
1.10463
1.10268
1.10143
1.10073
1.10132
1.10354
1.10381
1.10329
1.10191
1.09855
1.09189
1.08458
1.08263
1.08248
1.0827
1.08314
1.08442
1.08739
1.09265
1.09932
1.10277
1.10285
1.1023
1.10127
1.09945
1.09574
1.08831
1.07722
1.07162
1.07036
1.06929
1.06805
1.0669
1.06651
1.06832
1.07102
1.07097
1.07015
1.06969
1.06902
1.0677
1.06476
1.06026
1.05671
1.05428
1.05261
1.05087
1.04881
1.04852
1.05422
1.09978
1.27584
1.582
1.98163
2.35621
2.51413
2.52887
2.53127
2.54222
2.55821
2.57378
2.57243
2.55896
2.53928
2.51816
2.50355
2.49756
2.49581
2.49892
2.49818
2.49067
2.48186
2.47099
2.45884
2.44745
2.43651
2.42521
2.41553
2.40651
2.39601
2.38653
2.38078
2.37902
2.38505
2.39381
2.39279
2.3863
2.37886
2.37042
1.19231
1.19191
1.19103
1.18876
1.1871
1.18693
1.18727
1.18936
1.19371
1.20311
1.22215
1.24363
1.26123
1.2729
1.27632
1.27598
1.27351
1.26817
1.26101
1.25413
1.24619
1.23638
1.23272
1.23269
1.23432
1.23551
1.2362
1.23521
1.23266
1.23423
1.23646
1.23771
1.23914
1.23957
1.23804
1.23438
1.22715
1.21742
1.20361
1.19361
1.1917
1.19142
1.19224
1.1962
1.2004
1.20072
1.19968
1.19733
1.19217
1.18351
1.17726
1.1751
1.17396
1.17301
1.17142
1.16906
1.16601
1.1613
1.15484
1.14708
1.13867
1.1339
1.13191
1.13103
1.13075
1.1327
1.13772
1.14017
1.13897
1.13675
1.13349
1.1285
1.12182
1.11605
1.1134
1.11361
1.11771
1.12825
1.14729
1.18049
1.23378
1.28092
1.29116
1.29137
1.2896
1.28388
1.27381
1.2611
1.24598
1.23635
1.23433
1.23389
1.23507
1.23898
1.24423
1.24819
1.24843
1.24653
1.24271
1.2359
1.22713
1.22195
1.2193
1.21714
1.21513
1.21329
1.21131
1.20825
1.20311
1.19459
1.18327
1.178
1.17736
1.17791
1.17941
1.18235
1.18636
1.18746
1.18621
1.18306
1.17748
1.16782
1.15824
1.15457
1.1535
1.15324
1.15551
1.16125
1.1658
1.16694
1.16644
1.16454
1.16091
1.15442
1.14368
1.13322
1.12797
1.12459
1.12259
1.12167
1.12138
1.12163
1.1246
1.13262
1.14272
1.14695
1.14608
1.14376
1.14103
1.13663
1.12918
1.12152
1.11835
1.11835
1.11944
1.12192
1.12744
1.13216
1.13259
1.13149
1.12798
1.12097
1.11161
1.10678
1.10452
1.10286
1.1017
1.10184
1.1046
1.10622
1.10584
1.10463
1.10148
1.0948
1.08557
1.08221
1.08179
1.08187
1.08211
1.08276
1.08498
1.08993
1.09735
1.10272
1.10362
1.10347
1.10297
1.10184
1.09924
1.09337
1.08285
1.0752
1.07351
1.07264
1.07166
1.07071
1.07021
1.07089
1.07191
1.0717
1.07037
1.06957
1.06892
1.06782
1.06548
1.06145
1.05839
1.05642
1.05495
1.05366
1.05259
1.05588
1.08221
1.19175
1.47905
1.90543
2.2248
2.49645
2.53787
2.52625
2.54684
2.56202
2.58285
2.58615
2.57642
2.5534
2.52786
2.5173
2.51183
2.51254
2.51417
2.50829
2.49893
2.48932
2.48171
2.47389
2.46538
2.45566
2.44263
2.42761
2.4148
2.40709
2.40064
2.39413
2.38807
2.38516
2.38876
2.39499
2.39315
2.38689
2.38052
2.37238
2.36406
1.19291
1.19285
1.19198
1.18908
1.18663
1.18611
1.18595
1.18693
1.18976
1.1959
1.21008
1.23097
1.2518
1.26819
1.27389
1.27412
1.27307
1.2697
1.2637
1.25765
1.2513
1.24213
1.23662
1.23619
1.2373
1.23854
1.23907
1.2373
1.2378
1.24103
1.2436
1.24529
1.24566
1.24433
1.24092
1.23492
1.22591
1.21483
1.20213
1.19564
1.19391
1.19381
1.19572
1.1987
1.19898
1.19863
1.19707
1.19257
1.1858
1.18107
1.17947
1.17925
1.18028
1.17954
1.17732
1.17476
1.17032
1.16313
1.15305
1.14357
1.13878
1.13684
1.13577
1.13524
1.13611
1.13853
1.1395
1.13823
1.13587
1.13223
1.12775
1.12313
1.11861
1.11603
1.11541
1.11803
1.12395
1.13006
1.14147
1.16214
1.201
1.2627
1.28928
1.29133
1.29016
1.284
1.2721
1.25576
1.24025
1.23431
1.23283
1.23257
1.23545
1.24404
1.25195
1.25267
1.25066
1.24677
1.2403
1.23136
1.22459
1.22148
1.21946
1.21782
1.21639
1.21479
1.21231
1.20767
1.19907
1.18858
1.18344
1.18219
1.18215
1.18336
1.18596
1.1894
1.19014
1.1889
1.18581
1.17974
1.16985
1.16081
1.15691
1.15573
1.15549
1.15883
1.16538
1.16846
1.16836
1.16755
1.1659
1.16235
1.15532
1.14444
1.13566
1.13167
1.12888
1.12671
1.12539
1.12485
1.12522
1.12832
1.13531
1.14286
1.14586
1.14504
1.1426
1.13944
1.13451
1.12732
1.12143
1.11908
1.11894
1.11993
1.12314
1.12988
1.13526
1.13592
1.13493
1.13189
1.12469
1.11426
1.10926
1.10685
1.10481
1.10322
1.10291
1.10556
1.10875
1.10871
1.10772
1.10495
1.09864
1.08821
1.08253
1.08161
1.08148
1.0815
1.08177
1.08299
1.08711
1.09419
1.10103
1.10372
1.10397
1.10383
1.10332
1.1019
1.09783
1.08886
1.07944
1.07658
1.07577
1.07497
1.07421
1.07379
1.0743
1.07422
1.073
1.07155
1.0702
1.0692
1.06796
1.06584
1.06234
1.05961
1.0583
1.05729
1.05645
1.05751
1.07057
1.15767
1.38326
1.74542
2.16894
2.46326
2.52226
2.53882
2.56188
2.58517
2.59748
2.59784
2.58652
2.56727
2.54602
2.53092
2.52591
2.52606
2.5304
2.52514
2.51341
2.49983
2.48869
2.48186
2.47662
2.47061
2.46203
2.45041
2.4328
2.4154
2.40625
2.40021
2.39596
2.39456
2.39461
2.39617
2.39693
2.39193
2.38612
2.38035
2.37357
2.3665
2.36065
1.1946
1.19507
1.1937
1.19021
1.18706
1.18543
1.18451
1.18499
1.18706
1.19072
1.20026
1.21726
1.23724
1.2588
1.27008
1.27164
1.27158
1.26998
1.26402
1.25867
1.25487
1.2482
1.241
1.23946
1.24022
1.24162
1.24172
1.24111
1.24417
1.24829
1.251
1.25195
1.25124
1.2485
1.24315
1.23511
1.2249
1.21451
1.2052
1.19855
1.19675
1.19686
1.19795
1.19779
1.1971
1.19541
1.19168
1.18712
1.18396
1.18299
1.18363
1.18579
1.18546
1.18319
1.18032
1.17609
1.17038
1.162
1.15219
1.14594
1.14378
1.14248
1.14158
1.1414
1.14121
1.13993
1.13782
1.13502
1.13163
1.12811
1.1246
1.121
1.11902
1.11871
1.12126
1.12424
1.12602
1.12795
1.13357
1.14647
1.1703
1.22477
1.27927
1.28869
1.28854
1.28251
1.26782
1.25135
1.241
1.23762
1.23632
1.2367
1.24205
1.24912
1.25106
1.25014
1.24712
1.24141
1.2331
1.22731
1.22434
1.2223
1.22082
1.21968
1.21846
1.2164
1.2121
1.20403
1.1932
1.18804
1.18718
1.18679
1.18749
1.18956
1.19252
1.19349
1.19213
1.18856
1.18143
1.17139
1.16408
1.1606
1.15893
1.15866
1.16233
1.16892
1.17073
1.1699
1.16843
1.16615
1.16192
1.15388
1.14344
1.13705
1.13424
1.13234
1.13117
1.13043
1.13026
1.13174
1.13564
1.14111
1.14519
1.14602
1.1446
1.14202
1.13821
1.13215
1.12498
1.12096
1.11938
1.11913
1.12006
1.12424
1.13202
1.13746
1.1381
1.13714
1.13443
1.12774
1.11672
1.11117
1.10918
1.10721
1.10529
1.10463
1.10708
1.11126
1.11194
1.11109
1.10865
1.10289
1.09214
1.08376
1.08195
1.08154
1.08137
1.08135
1.08182
1.08456
1.09128
1.09846
1.10263
1.1041
1.10434
1.10417
1.10349
1.10127
1.09467
1.08423
1.07935
1.0785
1.07778
1.07713
1.07677
1.0774
1.07723
1.0755
1.07371
1.07197
1.0704
1.06881
1.06644
1.0629
1.06035
1.05952
1.05919
1.0598
1.06724
1.11469
1.27489
1.66987
2.04397
2.3721
2.55567
2.53192
2.55614
2.57871
2.5979
2.60637
2.60067
2.58126
2.55573
2.54353
2.53853
2.53945
2.54377
2.53912
2.52978
2.51773
2.5028
2.49172
2.48461
2.47916
2.47234
2.46364
2.45341
2.44056
2.42522
2.41236
2.40551
2.4009
2.39898
2.40279
2.40698
2.4026
2.39395
2.38574
2.3796
2.37391
2.36783
2.36249
2.35782
1.19763
1.19746
1.19528
1.19137
1.18705
1.18379
1.1829
1.18334
1.1852
1.18839
1.1941
1.20654
1.22264
1.24456
1.26378
1.2682
1.26891
1.26738
1.26264
1.25945
1.2576
1.25311
1.24625
1.24347
1.24365
1.24476
1.24456
1.24609
1.25052
1.25431
1.2563
1.25638
1.25486
1.25102
1.24507
1.23715
1.22787
1.21901
1.21064
1.20317
1.1995
1.19805
1.19691
1.19552
1.19342
1.19048
1.1877
1.18579
1.18536
1.18667
1.18973
1.19002
1.18772
1.18433
1.17952
1.17363
1.16694
1.15949
1.15392
1.15202
1.15089
1.14992
1.14854
1.14635
1.14278
1.13882
1.13494
1.13163
1.12892
1.12589
1.123
1.12176
1.12224
1.12523
1.12721
1.12542
1.12405
1.1246
1.12688
1.13427
1.1496
1.18464
1.25234
1.282
1.2841
1.28055
1.26695
1.25255
1.24731
1.24496
1.24391
1.2457
1.2501
1.25141
1.25015
1.24645
1.24
1.23269
1.22838
1.22628
1.22503
1.22399
1.22309
1.22209
1.22039
1.21629
1.20832
1.19819
1.19284
1.19131
1.19123
1.19236
1.19348
1.19526
1.19651
1.19558
1.1918
1.18359
1.17333
1.16748
1.16442
1.16253
1.16255
1.16688
1.17204
1.17229
1.17116
1.16923
1.16644
1.16137
1.15222
1.14217
1.13751
1.1356
1.13423
1.13347
1.13357
1.13492
1.13831
1.14375
1.14822
1.14918
1.14847
1.14687
1.14349
1.13824
1.13093
1.12404
1.12079
1.11946
1.11909
1.11988
1.1249
1.13366
1.13864
1.13899
1.13798
1.13558
1.12957
1.11851
1.11233
1.11072
1.10922
1.10759
1.10701
1.10935
1.11399
1.11563
1.11476
1.11242
1.10717
1.09675
1.08608
1.08281
1.082
1.08167
1.08144
1.08147
1.08284
1.08853
1.0964
1.10102
1.10332
1.10457
1.10485
1.10458
1.10346
1.09921
1.08977
1.08192
1.08043
1.07981
1.07922
1.07885
1.07927
1.07999
1.07866
1.07685
1.07499
1.07291
1.07072
1.06793
1.06381
1.06084
1.06026
1.0607
1.064
1.09585
1.2289
1.5021
1.91948
2.3602
2.48108
2.53282
2.58031
2.61274
2.62241
2.62117
2.60767
2.5859
2.56547
2.55433
2.55
2.55373
2.55897
2.55408
2.54254
2.52937
2.51628
2.50664
2.50024
2.49423
2.48518
2.4742
2.46369
2.45387
2.4428
2.43273
2.42523
2.4184
2.41177
2.40659
2.40418
2.40698
2.4075
2.40083
2.39238
2.3818
2.37247
2.36689
2.3621
2.35811
2.35569
1.20039
1.19905
1.19628
1.19138
1.18505
1.18207
1.18184
1.18218
1.18396
1.18728
1.19177
1.20028
1.21231
1.22895
1.25289
1.26332
1.2651
1.26398
1.26162
1.26059
1.25964
1.2573
1.25224
1.24863
1.24801
1.24823
1.24779
1.25003
1.25483
1.2578
1.25917
1.25902
1.2573
1.25369
1.24844
1.24195
1.23441
1.22601
1.21694
1.20752
1.20052
1.19685
1.1942
1.19185
1.18987
1.18799
1.18694
1.18726
1.18941
1.19293
1.19356
1.1914
1.18751
1.18203
1.17576
1.16942
1.16404
1.16079
1.15957
1.1589
1.15827
1.15687
1.15408
1.14811
1.14129
1.13613
1.13276
1.12995
1.12722
1.12528
1.12422
1.12501
1.12817
1.12911
1.12719
1.12379
1.12032
1.12
1.12147
1.12627
1.13616
1.15752
1.2079
1.26427
1.27697
1.27591
1.26815
1.2608
1.25872
1.25637
1.25427
1.25356
1.25333
1.2512
1.24579
1.23771
1.23201
1.22885
1.22679
1.22658
1.22744
1.22641
1.22543
1.22394
1.21983
1.21177
1.20258
1.19792
1.19608
1.19557
1.19725
1.19812
1.19854
1.19946
1.19839
1.19408
1.18514
1.17566
1.1715
1.16917
1.16728
1.1676
1.17232
1.17575
1.17458
1.17258
1.16996
1.16622
1.15971
1.14994
1.14192
1.13846
1.13666
1.13575
1.13602
1.13707
1.13925
1.14373
1.14979
1.15307
1.15305
1.15237
1.15106
1.1475
1.14119
1.13217
1.12458
1.12136
1.12002
1.1195
1.12011
1.1253
1.1343
1.1386
1.13861
1.13763
1.13553
1.13013
1.1194
1.11267
1.11132
1.11034
1.10943
1.10956
1.11223
1.11725
1.11972
1.11886
1.11644
1.11143
1.10166
1.08936
1.0842
1.08288
1.08233
1.082
1.0818
1.08227
1.08627
1.09458
1.10015
1.10238
1.10413
1.10527
1.1054
1.10495
1.10219
1.09465
1.08523
1.08157
1.0809
1.08036
1.07997
1.08014
1.08172
1.08146
1.08008
1.07859
1.07665
1.07411
1.07076
1.06585
1.06158
1.06104
1.06292
1.0778
1.15249
1.41537
1.81526
2.19295
2.5096
2.52781
2.56895
2.59854
2.62289
2.63205
2.62655
2.60731
2.5778
2.56062
2.55348
2.55635
2.56899
2.56964
2.56067
2.54791
2.53199
2.519
2.51225
2.50692
2.49929
2.48899
2.4773
2.4646
2.45313
2.44426
2.43778
2.43233
2.42742
2.42227
2.41677
2.41218
2.41033
2.40857
2.40189
2.39463
2.38678
2.37749
2.36932
2.36347
2.35878
2.35572
2.35587
1.20196
1.19988
1.19646
1.18945
1.18275
1.18158
1.18153
1.18196
1.18367
1.18699
1.191
1.19691
1.20563
1.21592
1.23528
1.25444
1.25934
1.25989
1.26087
1.26124
1.26219
1.26178
1.25825
1.25435
1.25256
1.2512
1.24987
1.25242
1.25714
1.25995
1.26155
1.26165
1.26045
1.25786
1.25376
1.24831
1.24137
1.23196
1.22035
1.20896
1.19979
1.19399
1.19126
1.18987
1.18877
1.18837
1.18913
1.19186
1.19579
1.1968
1.19473
1.19009
1.18338
1.17605
1.17122
1.16817
1.16634
1.16558
1.16549
1.16538
1.16418
1.16173
1.15582
1.14705
1.13976
1.13541
1.13228
1.12994
1.12843
1.12761
1.12879
1.13073
1.12985
1.12614
1.12336
1.12038
1.11703
1.11658
1.11786
1.12143
1.1276
1.14005
1.17173
1.22626
1.26374
1.27198
1.2728
1.27261
1.27194
1.26894
1.26437
1.25974
1.25443
1.24752
1.23889
1.23274
1.22955
1.22742
1.22714
1.2297
1.22971
1.22856
1.22664
1.22215
1.21402
1.20608
1.20257
1.20083
1.20038
1.20262
1.20334
1.20281
1.2027
1.20092
1.19603
1.18638
1.17758
1.17447
1.17299
1.17169
1.17285
1.17788
1.17983
1.17764
1.17455
1.1712
1.16646
1.15847
1.14836
1.14213
1.13951
1.13798
1.13713
1.1379
1.14026
1.14338
1.14765
1.15276
1.15524
1.15527
1.1548
1.15399
1.15198
1.14674
1.13662
1.1272
1.12339
1.12172
1.12087
1.12123
1.12622
1.13495
1.13816
1.13764
1.1366
1.13462
1.12964
1.11947
1.11253
1.11123
1.11057
1.11022
1.1115
1.11522
1.12082
1.12405
1.12328
1.12078
1.1158
1.10645
1.09344
1.08613
1.0842
1.08343
1.08306
1.08276
1.0828
1.0852
1.09295
1.09982
1.10221
1.10356
1.10524
1.10591
1.10585
1.10413
1.09793
1.08832
1.08287
1.08139
1.08081
1.08035
1.08032
1.08197
1.08387
1.08303
1.08194
1.08061
1.07843
1.07507
1.06967
1.06333
1.0629
1.07049
1.12724
1.29484
1.6322
2.1252
2.40517
2.51461
2.59117
2.63811
2.65454
2.6559
2.63955
2.61391
2.59035
2.57696
2.56979
2.56773
2.57389
2.57677
2.56836
2.55861
2.54891
2.53766
2.52847
2.52006
2.51083
2.50193
2.49201
2.47979
2.468
2.45738
2.44831
2.44202
2.4378
2.43406
2.42995
2.42617
2.42348
2.41947
2.41287
2.40425
2.39519
2.38711
2.37903
2.37146
2.36634
2.36242
2.36002
2.3594
2.35992
1.20295
1.20029
1.19543
1.18637
1.18233
1.18204
1.18217
1.18288
1.18451
1.18741
1.19147
1.19549
1.20024
1.20575
1.21671
1.2387
1.25013
1.25563
1.25977
1.26273
1.26554
1.2651
1.26231
1.25863
1.25574
1.25236
1.25143
1.25476
1.25934
1.26295
1.26538
1.2659
1.26517
1.26299
1.25912
1.25323
1.24445
1.23224
1.21897
1.20801
1.19997
1.19486
1.19266
1.19166
1.19144
1.19228
1.19503
1.19863
1.19987
1.19811
1.193
1.1852
1.17698
1.17243
1.17035
1.16955
1.17011
1.17135
1.17101
1.16982
1.16773
1.16265
1.15362
1.14538
1.14077
1.13723
1.13453
1.1331
1.13248
1.13325
1.13359
1.13158
1.12742
1.12074
1.11821
1.118
1.11591
1.1149
1.11602
1.11865
1.12244
1.12902
1.14808
1.19036
1.23457
1.26485
1.27939
1.2833
1.28282
1.27926
1.27261
1.26418
1.25399
1.24262
1.2351
1.23163
1.22957
1.22893
1.23157
1.23229
1.23054
1.2276
1.22285
1.21504
1.20866
1.20611
1.20476
1.20488
1.2082
1.20932
1.20804
1.20662
1.20376
1.19794
1.18748
1.17937
1.1772
1.17646
1.1759
1.17783
1.18286
1.18384
1.18086
1.17699
1.17298
1.16709
1.15767
1.14823
1.14393
1.14208
1.14101
1.14063
1.14148
1.14379
1.14716
1.15115
1.15391
1.15483
1.15494
1.15487
1.15434
1.15323
1.15072
1.14402
1.13354
1.12725
1.12499
1.12378
1.12371
1.1276
1.13522
1.13759
1.13692
1.13588
1.13377
1.12864
1.1189
1.11219
1.11091
1.11041
1.11045
1.11261
1.11762
1.12422
1.12805
1.12757
1.12509
1.12043
1.1115
1.09766
1.08871
1.08609
1.08504
1.08455
1.08434
1.08423
1.08542
1.09209
1.1001
1.10252
1.10359
1.10498
1.10615
1.10626
1.10515
1.10014
1.09034
1.0838
1.08182
1.08089
1.08039
1.08015
1.08133
1.0852
1.08599
1.08505
1.0841
1.08264
1.07972
1.07478
1.06718
1.06856
1.09489
1.21842
1.55304
1.93917
2.343
2.50185
2.55748
2.61055
2.6567
2.66816
2.66264
2.64144
2.60574
2.58494
2.57751
2.57827
2.58906
2.59001
2.58028
2.56903
2.55822
2.54955
2.54211
2.53557
2.5267
2.51409
2.50087
2.49137
2.48311
2.47466
2.46551
2.45582
2.44691
2.4401
2.43527
2.43224
2.43195
2.4336
2.43015
2.42138
2.40963
2.39742
2.38598
2.37758
2.37124
2.36645
2.36342
2.36268
2.36354
2.36299
2.35969
1.20393
1.20011
1.19325
1.18506
1.18352
1.18354
1.18394
1.18475
1.18619
1.18869
1.19206
1.19398
1.19517
1.1975
1.20322
1.21909
1.23803
1.24932
1.25865
1.26504
1.26688
1.26644
1.26409
1.26037
1.25647
1.25316
1.25414
1.25813
1.26327
1.26827
1.27128
1.27152
1.27043
1.26732
1.26236
1.25454
1.24297
1.22935
1.21582
1.20492
1.19932
1.19739
1.19701
1.19698
1.19774
1.20018
1.20289
1.2034
1.20149
1.19616
1.18717
1.17875
1.17477
1.173
1.17231
1.17347
1.17583
1.17564
1.17443
1.17236
1.16771
1.15868
1.14939
1.14585
1.14403
1.14208
1.14055
1.13969
1.13885
1.13742
1.1345
1.12895
1.12059
1.11623
1.1153
1.11594
1.11547
1.1144
1.11506
1.11709
1.11939
1.12254
1.13211
1.16169
1.20407
1.24705
1.27883
1.28746
1.28813
1.28544
1.27803
1.26672
1.25237
1.24121
1.23643
1.23431
1.23326
1.235
1.2345
1.23147
1.22761
1.22227
1.21487
1.21007
1.20834
1.20756
1.20856
1.21302
1.21486
1.21304
1.21047
1.20693
1.20053
1.18954
1.18159
1.17959
1.17951
1.1796
1.18212
1.18691
1.18745
1.18438
1.18001
1.17508
1.16771
1.15747
1.14988
1.14667
1.14538
1.14475
1.14537
1.1477
1.15
1.15169
1.15381
1.15522
1.1546
1.15385
1.15353
1.15334
1.15273
1.15135
1.1479
1.14083
1.13365
1.13046
1.12906
1.12849
1.13076
1.13624
1.13756
1.13657
1.13527
1.13297
1.12745
1.11794
1.11195
1.11073
1.11034
1.11061
1.1134
1.11976
1.12724
1.13124
1.13106
1.12876
1.12459
1.11668
1.10258
1.09173
1.0886
1.0875
1.08669
1.08642
1.0864
1.08695
1.09178
1.10073
1.1037
1.10405
1.10507