/*--------------------------------*- C++ -*----------------------------------*\
  =========                 |
  \\      /  F ield         | OpenFOAM: The Open Source CFD Toolbox
   \\    /   O peration     | Website:  https://openfoam.org
    \\  /    A nd           | Version:  7
     \\/     M anipulation  |
\*---------------------------------------------------------------------------*/
FoamFile
{
    version     2.0;
    format      ascii;
    class       volVectorField;
    location    "0.1";
    object      U;
}
// * * * * * * * * * * * * * * * * * * * * * * * * * * * * * * * * * * * * * //

dimensions      [0 1 -1 0 0 0 0];

internalField   nonuniform List<vector> 
16192
(
(3 4.20055e-16 0)
(3 1.27917e-15 0)
(3 1.40759e-15 0)
(3 2.02155e-15 0)
(3 1.71916e-15 0)
(3 1.87943e-15 0)
(3 1.3228e-15 0)
(3 5.51915e-16 0)
(3 -2.38803e-16 0)
(3 -6.84382e-16 0)
(3 -4.18648e-16 0)
(3 2.31528e-16 0)
(3 1.63122e-15 0)
(3 1.8099e-15 0)
(3 6.90013e-16 0)
(3 1.1864e-15 0)
(3 2.01469e-15 0)
(3 1.57578e-15 0)
(3 1.38246e-15 0)
(3 6.32803e-16 0)
(3 4.09283e-16 0)
(3 1.54711e-15 0)
(3 2.83626e-15 0)
(3 1.84501e-15 0)
(3 1.03504e-15 0)
(3 -1.79214e-16 0)
(3 -5.11846e-16 0)
(3 -1.31117e-15 0)
(3 -2.10762e-15 0)
(3 -1.99052e-15 0)
(3 -1.80407e-15 0)
(3 -1.66525e-15 0)
(3 -1.80625e-15 0)
(3 -2.54772e-15 0)
(3 -2.93978e-15 0)
(3 -3.38439e-15 0)
(3 -3.77645e-15 0)
(3 -3.46547e-15 0)
(3 -2.98196e-15 0)
(3 -1.59793e-15 0)
(3 -1.15199e-15 0)
(3 -9.50939e-16 0)
(3 -4.00624e-16 0)
(3 -7.61194e-16 0)
(3 -1.09643e-15 0)
(3 -6.26745e-16 0)
(3 1.0574e-15 0)
(3 1.93601e-15 0)
(3 1.82212e-15 0)
(3 9.24022e-16 0)
(3 3.81595e-16 0)
(3 1.00232e-15 0)
(3 1.95361e-15 0)
(3 3.19745e-15 0)
(3 4.42188e-15 0)
(3 4.61649e-15 0)
(3 4.19927e-15 0)
(3 3.59877e-15 0)
(3 3.62584e-15 0)
(3 3.52448e-15 0)
(3 3.26902e-15 0)
(3 3.21556e-15 0)
(3 2.44043e-15 0)
(3 1.08775e-15 0)
(3 -3.6483e-16 0)
(3 -3.83697e-16 0)
(3 7.21147e-16 0)
(3 1.55166e-15 0)
(3 5.82221e-16 0)
(3 3.97087e-16 0)
(3 7.27534e-16 0)
(3 4.336e-16 0)
(3 -4.48493e-16 0)
(3 -7.14582e-16 0)
(3 -1.80063e-15 0)
(3 -1.90265e-15 0)
(3 -1.80951e-15 0)
(3 -9.99115e-16 0)
(3 3.13444e-16 0)
(3 1.49744e-15 0)
(3 1.98621e-15 0)
(3 9.15345e-16 0)
(3 -4.26974e-16 0)
(3 -1.00372e-15 0)
(3 1.18084e-15 0)
(3 2.24895e-15 0)
(3 4.06756e-15 0)
(3 4.42497e-15 0)
(3 4.04863e-15 0)
(3 3.0235e-15 0)
(3 2.3847e-15 0)
(3 2.29995e-15 0)
(3 1.90188e-15 0)
(3 1.17772e-15 0)
(3 2.1095e-16 0)
(3 -5.97137e-16 0)
(3 -8.71217e-16 0)
(3 -6.32324e-16 0)
(3 -4.15585e-16 0)
(3 1.78251e-16 0)
(3 1.3799e-15 0)
(3 2.09718e-15 0)
(3 1.33644e-15 0)
(3 3.72928e-16 0)
(3 -4.77884e-16 0)
(3 -5.83626e-16 0)
(3 -3.66524e-17 0)
(3 7.15238e-16 0)
(3 9.39852e-16 0)
(3 1.89162e-15 0)
(3 1.99985e-15 0)
(3 1.11286e-15 0)
(3 -5.32385e-16 0)
(3 -2.58722e-15 0)
(3 -2.85057e-15 0)
(3 -2.60857e-15 0)
(3 -1.39543e-15 0)
(3 -8.22933e-16 0)
(3 -1.15068e-15 0)
(3 -1.97893e-15 0)
(3 -3.21674e-15 0)
(3 -3.02752e-15 0)
(3 -3.84303e-15 0)
(3 -3.59495e-15 0)
(3 -3.5125e-15 0)
(3 -3.7889e-15 0)
(3 -3.58747e-15 0)
(3 -3.27582e-15 0)
(3 -2.53394e-15 0)
(3 -1.97436e-15 0)
(3 -1.25942e-15 0)
(3 -8.31131e-16 0)
(3 -1.95248e-16 0)
(3 -1.20758e-17 0)
(3 4.82892e-17 0)
(3 3.61893e-17 0)
(3 5.11895e-16 0)
(3 -5.06852e-16 0)
(3 -1.01826e-15 0)
(3 -1.87473e-15 0)
(3 -2.32962e-15 0)
(3 -2.72922e-15 0)
(3 -2.43261e-15 0)
(3 -7.15091e-16 0)
(3 1.04749e-16 0)
(3 3.316e-15 0)
(3 6.18408e-15 0)
(3 5.62141e-15 0)
(3 4.84288e-15 0)
(3 4.17912e-15 0)
(3 3.10341e-15 0)
(3 2.48613e-15 0)
(3 2.39017e-15 0)
(3 1.39887e-15 0)
(3 1.31647e-15 0)
(3 1.9012e-15 0)
(3 1.86253e-15 0)
(3 5.39016e-16 0)
(3 -6.92226e-17 0)
(3 -3.65735e-16 0)
(3 -5.52405e-16 0)
(3 1.26164e-17 0)
(3 -3.42253e-16 0)
(3 1.07194e-16 0)
(3 1.49349e-15 0)
(3 1.43851e-15 0)
(3 2.93513e-15 0)
(3 2.83085e-15 0)
(3 2.35175e-15 0)
(3 4.41417e-16 0)
(3 -1.10148e-16 0)
(3 -1.36857e-16 0)
(3 -1.74959e-16 0)
(3 4.47927e-16 0)
(3 9.36803e-16 0)
(3 6.29985e-16 0)
(3 4.37506e-16 0)
(3 -8.41418e-17 0)
(3 -3.08179e-16 0)
(3 -9.05547e-16 0)
(3 -9.21641e-16 0)
(3 -2.05901e-15 0)
(3 -2.34231e-15 0)
(3 -3.02902e-15 0)
(3 -3.03234e-15 0)
(3 -3.58067e-15 0)
(3 -4.01296e-15 0)
(3 -3.51284e-15 0)
(3 -2.51296e-15 0)
(3 -1.11571e-15 0)
(3 -1.65257e-16 0)
(3 2.79766e-16 0)
(3 -8.97051e-18 0)
(3 4.70515e-16 0)
(3 7.67465e-16 0)
(3 1.18653e-15 0)
(3 2.65815e-15 0)
(3 3.40594e-15 0)
(3 2.95182e-15 0)
(3 2.05212e-15 0)
(3 3.4051e-15 0)
(3 3.78146e-15 0)
(3 2.97461e-15 0)
(3 2.01075e-15 0)
(3 7.17596e-16 0)
(3 -8.36097e-16 0)
(3 -1.14974e-15 0)
(3 -4.12376e-16 0)
(3 5.54971e-16 0)
(3 1.93194e-15 0)
(3 3.4205e-15 0)
(3 2.20194e-15 0)
(3 2.19412e-15 0)
(3 2.59224e-15 0)
(3 1.84063e-15 0)
(3 1.15e-15 0)
(3 -5.48834e-17 0)
(3 -1.28507e-15 0)
(3 -1.46875e-15 0)
(3 -1.16692e-15 0)
(3 -1.07582e-15 0)
(3 -3.48741e-16 0)
(3 7.86658e-16 0)
(3 9.34443e-16 0)
(3 5.88279e-16 0)
(3 4.69651e-16 0)
(3 4.27389e-16 0)
(3 6.58413e-16 0)
(3 1.07026e-15 0)
(3 1.96496e-15 0)
(3 2.7614e-15 0)
(3 2.46258e-15 0)
(3 1.40902e-15 0)
(3 6.5165e-16 0)
(3 -6.1713e-16 0)
(3 -1.76744e-15 0)
(3 -3.2919e-15 0)
(3 -3.16964e-15 0)
(3 -3.2094e-15 0)
(3 -2.54387e-15 0)
(3 -6.55379e-16 0)
(3 4.92494e-17 0)
(3 1.07977e-15 0)
(3 6.91908e-16 0)
(3 5.32525e-16 0)
(3 1.00498e-15 0)
(3 2.37048e-15 0)
(3 3.89071e-15 0)
(3 1.01437e-15 0)
(3 -2.28835e-15 0)
(3 -3.45393e-15 0)
(3 -2.57564e-15 0)
(3 -1.76594e-15 0)
(3 1.74111e-16 0)
(3 8.54466e-16 0)
(3 1.60917e-15 0)
(3 1.42855e-15 0)
(3 1.54539e-15 0)
(3 1.21238e-15 0)
(3 1.04707e-15 0)
(3 2.14791e-16 0)
(3 -2.65648e-16 0)
(3 -6.94891e-16 0)
(3 -1.00956e-15 0)
(3 4.18432e-16 0)
(3 1.46363e-15 0)
(3 2.34225e-15 0)
(3 2.52214e-15 0)
(3 2.38092e-15 0)
(3 2.46073e-15 0)
(3 2.30714e-15 0)
(3 1.30443e-15 0)
(3 7.53081e-16 0)
(3 9.98982e-16 0)
(3 1.52707e-15 0)
(3 1.51122e-15 0)
(3 1.07939e-15 0)
(3 7.15532e-16 0)
(3 4.42303e-16 0)
(3 1.9648e-16 0)
(3 -2.97978e-17 0)
(3 -9.66292e-16 0)
(3 -1.37824e-15 0)
(3 -1.30434e-15 0)
(3 -1.61773e-15 0)
(3 -3.08795e-15 0)
(3 -3.07508e-15 0)
(3 -3.82526e-15 0)
(3 -4.05429e-15 0)
(3 -3.98032e-15 0)
(3 -3.47056e-15 0)
(3 -2.32528e-15 0)
(3 -1.29917e-15 0)
(3 -1.07345e-15 0)
(3 -1.26257e-15 0)
(3 -1.16583e-15 0)
(3 3.89772e-16 0)
(3 2.58522e-16 0)
(3 4.71729e-16 0)
(3 9.9345e-16 0)
(3 1.57612e-15 0)
(3 1.58755e-15 0)
(3 6.4074e-16 0)
(3 -2.87522e-16 0)
(3 -7.18909e-16 0)
(3 2.12028e-16 0)
(3 2.54101e-15 0)
(3 3.83618e-15 0)
(3 3.66842e-15 0)
(3 3.78402e-15 0)
(3 3.24433e-15 0)
(3 2.46035e-15 0)
(3 2.60124e-15 0)
(3 2.86411e-15 0)
(3 2.60525e-15 0)
(3 3.03612e-15 0)
(3 2.40973e-15 0)
(3 1.81529e-15 0)
(3 6.98385e-16 0)
(3 3.62526e-16 0)
(3 8.20319e-16 0)
(3 -3.8024e-16 0)
(3 -1.4963e-15 0)
(3 -1.34736e-15 0)
(3 -1.33727e-15 0)
(3 -1.86465e-15 0)
(3 -2.69069e-15 0)
(3 -2.77294e-15 0)
(3 -2.5419e-15 0)
(3 -2.33273e-15 0)
(3 -2.10092e-15 0)
(3 -1.65254e-15 0)
(3 -7.70307e-16 0)
(3 -4.1928e-16 0)
(3 -2.53098e-16 0)
(3 3.67709e-16 0)
(3 3.8377e-16 0)
(3 9.78976e-16 0)
(3 1.45141e-15 0)
(3 2.62559e-15 0)
(3 3.30806e-15 0)
(3 1.62447e-15 0)
(3 9.34023e-16 0)
(3 1.07583e-15 0)
(3 7.30403e-16 0)
(3 5.72884e-17 0)
(3 -3.72815e-16 0)
(3 -4.99822e-16 0)
(3 -8.31043e-17 0)
(3 2.55505e-16 0)
(3 -8.20373e-17 0)
(3 -1.03665e-15 0)
(3 -4.90926e-16 0)
(3 2.39066e-16 0)
(3 4.44606e-16 0)
(3 6.58454e-16 0)
(3 1.08604e-15 0)
(3 9.93714e-16 0)
(3 7.22663e-17 0)
(3 -4.46651e-16 0)
(3 -9.91294e-16 0)
(3 -7.75994e-16 0)
(3 7.97106e-16 0)
(3 1.60727e-15 0)
(3 1.4847e-15 0)
(3 7.39351e-16 0)
(3 -7.78311e-16 0)
(3 -1.12424e-15 0)
(3 -1.47015e-15 0)
(3 -9.12366e-16 0)
(3 -8.44561e-16 0)
(3 -4.509e-16 0)
(3 -3.21167e-16 0)
(3 6.9261e-17 0)
(3 -6.30676e-16 0)
(3 -2.34272e-15 0)
(3 -3.37815e-15 0)
(3 -3.19898e-15 0)
(3 -3.40221e-15 0)
(3 -2.53158e-15 0)
(3 -2.39131e-15 0)
(3 -1.61211e-15 0)
(3 -8.00546e-16 0)
(3 6.45873e-16 0)
(3 5.76091e-16 0)
(3 -5.81521e-17 0)
(3 -1.50378e-16 0)
(3 -1.38297e-17 0)
(3 6.87766e-17 0)
(3 3.0777e-16 0)
(3 1.17929e-16 0)
(3 -1.13041e-16 0)
(3 -1.00225e-15 0)
(3 -1.54131e-15 0)
(3 -1.34179e-15 0)
(3 -1.43989e-16 0)
(3 -2.8814e-16 0)
(3 -1.77319e-15 0)
(3 4.18305e-16 0)
(3 3.64616e-15 0)
(3 2.87914e-15 0)
(3 2.52092e-15 0)
(3 2.51561e-15 0)
(3 3.0131e-15 0)
(3 3.18488e-15 0)
(3 2.78348e-15 0)
(3 2.71085e-15 0)
(3 2.89246e-15 0)
(3 3.10286e-15 0)
(3 2.96809e-15 0)
(3 1.63255e-15 0)
(3 2.01629e-16 0)
(3 -8.64705e-16 0)
(3 -2.00373e-15 0)
(3 -1.86136e-15 0)
(3 -1.29628e-15 0)
(3 -1.2189e-15 0)
(3 7.36256e-17 0)
(3 6.20713e-16 0)
(3 7.53769e-16 0)
(3 1.14105e-16 0)
(3 -3.3792e-16 0)
(3 -6.98714e-16 0)
(3 4.98718e-16 0)
(3 1.62499e-15 0)
(3 2.1225e-15 0)
(3 1.97455e-15 0)
(3 1.78456e-15 0)
(3 1.69873e-15 0)
(3 1.99489e-15 0)
(3 1.65264e-15 0)
(3 7.38272e-18 0)
(3 -1.64455e-15 0)
(3 -2.25112e-15 0)
(3 -2.94267e-15 0)
(3 -3.11288e-15 0)
(3 -3.13558e-15 0)
(3 -2.97425e-15 0)
(3 -2.82126e-15 0)
(3 -1.0622e-15 0)
(3 -7.97245e-17 0)
(3 -2.33613e-16 0)
(3 -4.20726e-16 0)
(3 1.21325e-16 0)
(3 4.19563e-16 0)
(3 7.57926e-16 0)
(3 7.3622e-16 0)
(3 -9.83791e-16 0)
(3 -1.34469e-15 0)
(3 3.43885e-16 0)
(3 4.35568e-15 0)
(3 4.5239e-15 0)
(3 3.87757e-15 0)
(3 4.20506e-15 0)
(3 3.8145e-15 0)
(3 2.3725e-15 0)
(3 8.07842e-16 0)
(3 7.61756e-16 0)
(3 -3.49751e-16 0)
(3 3.14071e-16 0)
(3 -7.83963e-16 0)
(3 -1.38054e-15 0)
(3 2.70917e-16 0)
(3 1.99011e-15 0)
(3 2.89856e-15 0)
(3 2.71941e-15 0)
(3 1.58941e-15 0)
(3 1.02591e-15 0)
(3 1.21922e-15 0)
(3 -6.36019e-16 0)
(3 -1.94767e-15 0)
(3 -2.45451e-15 0)
(3 -2.79557e-15 0)
(3 -2.54138e-15 0)
(3 -1.75893e-15 0)
(3 -8.28286e-16 0)
(3 1.05323e-15 0)
(3 1.80578e-15 0)
(3 2.35742e-15 0)
(3 2.84463e-15 0)
(3 2.71888e-15 0)
(3 2.32987e-15 0)
(3 2.3292e-15 0)
(3 2.8214e-15 0)
(3 3.38257e-15 0)
(3 1.99724e-15 0)
(3 9.16905e-16 0)
(3 4.45772e-16 0)
(3 -2.73515e-16 0)
(3 -3.78175e-15 0)
(3 -5.81356e-15 0)
(3 -4.99716e-15 0)
(3 -2.67472e-15 0)
(3 -1.52343e-15 0)
(3 -4.94558e-16 0)
(3 -9.07649e-17 0)
(3 4.85895e-17 0)
(3 -1.64836e-15 0)
(3 -8.24287e-16 0)
(3 1.42087e-15 0)
(3 1.4912e-15 0)
(3 6.45962e-16 0)
(3 -1.03722e-15 0)
(3 -3.16758e-15 0)
(3 -3.376e-15 0)
(3 -2.04962e-15 0)
(3 -4.15315e-16 0)
(3 4.97475e-16 0)
(3 2.21019e-16 0)
(3 -2.5997e-17 0)
(3 3.50293e-16 0)
(3 1.61986e-16 0)
(3 -2.7554e-17 0)
(3 -9.01441e-16 0)
(3 -1.15613e-15 0)
(3 -1.56557e-15 0)
(3 -1.84881e-15 0)
(3 -1.01264e-15 0)
(3 1.66423e-15 0)
(3 3.74815e-15 0)
(3 4.48506e-15 0)
(3 4.21296e-15 0)
(3 5.55615e-15 0)
(3 5.91951e-15 0)
(3 3.68529e-15 0)
(3 1.89794e-15 0)
(3 1.53268e-15 0)
(3 2.89024e-18 0)
(3 2.33672e-16 0)
(3 1.44328e-15 0)
(3 1.29359e-15 0)
(3 8.28912e-16 0)
(3 1.04368e-15 0)
(3 6.33207e-16 0)
(3 -3.60935e-17 0)
(3 -9.74168e-16 0)
(3 -1.36129e-15 0)
(3 -1.88145e-15 0)
(3 -2.7309e-15 0)
(3 -3.39847e-15 0)
(3 -3.19904e-15 0)
(3 -3.33527e-15 0)
(3 -2.28899e-15 0)
(3 -2.03076e-15 0)
(3 -1.04872e-15 0)
(3 5.17519e-16 0)
(3 4.19315e-16 0)
(3 5.53567e-16 0)
(3 8.97698e-16 0)
(3 1.21372e-15 0)
(3 2.09657e-15 0)
(3 3.34968e-15 0)
(3 3.42336e-15 0)
(3 2.46867e-15 0)
(3 1.52557e-15 0)
(3 4.90722e-16 0)
(3 1.2863e-16 0)
(3 9.84108e-18 0)
(3 1.4192e-15 0)
(3 1.90362e-15 0)
(3 2.56972e-15 0)
(3 3.41576e-15 0)
(3 3.70926e-15 0)
(3 3.42406e-15 0)
(3 3.08832e-15 0)
(3 3.21155e-15 0)
(3 4.787e-15 0)
(3 4.29776e-15 0)
(3 3.32185e-15 0)
(3 2.86987e-15 0)
(3 3.42722e-15 0)
(3 2.42282e-15 0)
(3 2.11046e-15 0)
(3 2.87501e-15 0)
(3 6.45559e-16 0)
(3 -5.38927e-16 0)
(3 -1.33859e-15 0)
(3 -1.74504e-15 0)
(3 -1.94679e-15 0)
(3 -1.76338e-15 0)
(3 -1.58408e-15 0)
(3 -1.81567e-15 0)
(3 -1.76316e-15 0)
(3 -1.56693e-15 0)
(3 -1.74174e-15 0)
(3 -2.89592e-15 0)
(3 -3.64935e-15 0)
(3 -2.30678e-15 0)
(3 -1.0404e-15 0)
(3 -6.10084e-16 0)
(3 1.60965e-16 0)
(3 1.02431e-15 0)
(3 1.62592e-15 0)
(3 2.60958e-15 0)
(3 -8.89847e-17 0)
(3 -1.63062e-15 0)
(3 -1.58843e-15 0)
(3 -1.31458e-15 0)
(3 -1.72104e-15 0)
(3 -1.60175e-15 0)
(3 -1.016e-15 0)
(3 9.65928e-16 0)
(3 1.02531e-15 0)
(3 7.86693e-16 0)
(3 6.26465e-16 0)
(3 3.57895e-16 0)
(3 -1.12963e-15 0)
(3 -2.10449e-15 0)
(3 -1.74985e-15 0)
(3 -4.98074e-16 0)
(3 7.4419e-16 0)
(3 -8.76887e-16 0)
(3 -1.38268e-15 0)
(3 -1.39715e-15 0)
(3 -1.31112e-15 0)
(3 -1.17522e-15 0)
(3 -4.75829e-16 0)
(3 2.33448e-16 0)
(3 3.48395e-16 0)
(3 7.22478e-16 0)
(3 1.3533e-15 0)
(3 2.77089e-16 0)
(3 -7.14814e-16 0)
(3 -4.68929e-16 0)
(3 1.05545e-16 0)
(3 2.91696e-16 0)
(3 9.90027e-16 0)
(3 4.55263e-16 0)
(3 -5.65557e-16 0)
(3 -1.36941e-15 0)
(3 -1.25836e-15 0)
(3 -1.30546e-15 0)
(3 -1.21697e-15 0)
(3 5.6837e-17 0)
(3 8.51868e-17 0)
(3 -2.83919e-16 0)
(3 5.40694e-16 0)
(3 7.38288e-16 0)
(3 2.48422e-16 0)
(3 3.29627e-16 0)
(3 -1.5388e-16 0)
(3 -4.29774e-16 0)
(3 -6.08025e-16 0)
(3 -2.99152e-16 0)
(3 -4.33154e-18 0)
(3 4.58409e-18 0)
(3 6.2553e-16 0)
(3 1.29007e-15 0)
(3 8.11661e-16 0)
(3 -1.6015e-16 0)
(3 -1.49191e-15 0)
(3 -1.02968e-15 0)
(3 -4.97561e-16 0)
(3 -5.31424e-16 0)
(3 -2.21516e-16 0)
(3 1.69871e-16 0)
(3 1.33061e-15 0)
(3 2.79648e-15 0)
(3 3.01081e-15 0)
(3 3.69098e-15 0)
(3 3.26102e-15 0)
(3 2.46691e-15 0)
(3 1.35965e-15 0)
(3 7.92947e-16 0)
(3 8.70069e-18 0)
(3 -2.26908e-15 0)
(3 -3.01307e-15 0)
(3 -2.81509e-15 0)
(3 -1.16257e-15 0)
(3 -3.2224e-16 0)
(3 -1.27839e-16 0)
(3 -3.54112e-16 0)
(3 -1.16267e-15 0)
(3 -1.98349e-15 0)
(3 -2.24018e-15 0)
(3 7.81939e-16 0)
(3 3.39093e-15 0)
(3 4.89139e-15 0)
(3 5.13084e-15 0)
(3 4.67166e-15 0)
(3 3.16168e-15 0)
(3 3.01645e-15 0)
(3 2.2984e-15 0)
(3 1.43654e-15 0)
(3 -9.2082e-16 0)
(3 -1.90776e-15 0)
(3 -2.81735e-15 0)
(3 -2.3783e-15 0)
(3 -2.07224e-15 0)
(3 -1.72484e-15 0)
(3 -7.16791e-16 0)
(3 -3.92637e-17 0)
(3 1.55503e-15 0)
(3 1.64565e-15 0)
(3 1.81404e-15 0)
(3 1.66336e-15 0)
(3 1.41572e-15 0)
(3 3.63638e-16 0)
(3 -2.27905e-16 0)
(3 -4.17234e-16 0)
(3 -1.43371e-15 0)
(3 -1.30005e-15 0)
(3 -2.0652e-17 0)
(3 1.91022e-15 0)
(3 2.45166e-15 0)
(3 2.58834e-15 0)
(3 2.33768e-15 0)
(3 1.40017e-15 0)
(3 1.2238e-15 0)
(3 1.21174e-15 0)
(3 6.47312e-16 0)
(3 -5.41511e-16 0)
(3 -2.50967e-16 0)
(3 -1.17696e-16 0)
(3 5.11326e-16 0)
(3 1.00986e-15 0)
(3 8.84551e-16 0)
(3 8.46628e-16 0)
(3 2.04694e-16 0)
(3 -2.79546e-16 0)
(3 -4.68701e-16 0)
(3 -2.23579e-16 0)
(3 -1.24323e-17 0)
(3 -1.43448e-15 0)
(3 -1.95667e-15 0)
(3 -1.91007e-15 0)
(3 -9.41185e-16 0)
(3 -7.32309e-16 0)
(3 -9.52172e-16 0)
(3 -1.80118e-17 0)
(3 2.95199e-15 0)
(3 3.32707e-15 0)
(3 3.3724e-15 0)
(3 3.60359e-15 0)
(3 2.56842e-15 0)
(3 2.46036e-15 0)
(3 2.98846e-15 0)
(3 2.61031e-15 0)
(3 1.667e-15 0)
(3 6.93849e-16 0)
(3 9.93358e-16 0)
(3 3.05169e-16 0)
(3 -4.21312e-16 0)
(3 -1.68835e-15 0)
(3 -1.87006e-15 0)
(3 -2.19404e-15 0)
(3 -1.32929e-15 0)
(3 -1.17201e-15 0)
(3 -2.05142e-15 0)
(3 -1.8398e-15 0)
(3 -1.47153e-15 0)
(3 -6.34785e-16 0)
(3 1.57375e-16 0)
(3 1.01849e-15 0)
(3 -4.35466e-16 0)
(3 -1.82012e-15 0)
(3 -2.86409e-15 0)
(3 -1.61511e-15 0)
(3 -2.94488e-16 0)
(3 2.07096e-15 0)
(3 2.54133e-15 0)
(3 2.20748e-15 0)
(3 1.92035e-15 0)
(3 4.07801e-16 0)
(3 -1.46933e-15 0)
(3 -3.02871e-15 0)
(3 -4.2543e-15 0)
(3 -3.78436e-15 0)
(3 -2.84008e-15 0)
(3 -2.38043e-15 0)
(3 -1.7946e-15 0)
(3 6.94803e-16 0)
(3 1.91511e-15 0)
(3 2.44861e-15 0)
(3 4.52307e-15 0)
(3 5.46402e-15 0)
(3 5.26724e-15 0)
(3 4.89336e-15 0)
(3 2.16336e-15 0)
(3 1.28406e-15 0)
(3 -1.55584e-16 0)
(3 -8.29726e-16 0)
(3 -1.15376e-15 0)
(3 -9.1312e-16 0)
(3 -1.35196e-15 0)
(3 -9.36542e-16 0)
(3 1.26878e-16 0)
(3 2.62038e-16 0)
(3 4.66482e-16 0)
(3 2.12548e-16 0)
(3 -3.7721e-16 0)
(3 -6.93092e-16 0)
(3 -9.67556e-16 0)
(3 -1.12006e-15 0)
(3 3.13623e-16 0)
(3 1.90452e-15 0)
(3 1.75867e-15 0)
(3 1.80937e-15 0)
(3 1.99365e-15 0)
(3 2.01739e-15 0)
(3 2.69286e-15 0)
(3 2.90818e-15 0)
(3 2.71631e-15 0)
(3 2.82709e-15 0)
(3 3.52238e-15 0)
(3 3.00892e-15 0)
(3 1.8979e-15 0)
(3 6.87947e-16 0)
(3 -8.01833e-17 0)
(3 -3.26541e-16 0)
(3 -2.13078e-16 0)
(3 4.11953e-16 0)
(3 2.22927e-16 0)
(3 4.3949e-16 0)
(3 1.51573e-15 0)
(3 1.46095e-15 0)
(3 2.80436e-15 0)
(3 3.88514e-15 0)
(3 3.5221e-15 0)
(3 3.03396e-15 0)
(3 2.74661e-15 0)
(3 2.13865e-15 0)
(3 2.06012e-15 0)
(3 3.72235e-15 0)
(3 4.41337e-15 0)
(3 4.09904e-15 0)
(3 3.44017e-15 0)
(3 1.5281e-15 0)
(3 7.70098e-16 0)
(3 -2.27423e-16 0)
(3 -8.0555e-16 0)
(3 -1.14341e-15 0)
(3 -9.84267e-16 0)
(3 -8.00928e-16 0)
(3 -6.45841e-16 0)
(3 -6.49363e-16 0)
(3 -3.77743e-16 0)
(3 -8.56933e-16 0)
(3 -2.80706e-15 0)
(3 -3.49598e-15 0)
(3 -3.01332e-15 0)
(3 -1.80167e-15 0)
(3 -1.84198e-15 0)
(3 -4.04184e-16 0)
(3 -1.10918e-16 0)
(3 5.28316e-16 0)
(3 1.10559e-15 0)
(3 -6.51574e-16 0)
(3 -2.53161e-15 0)
(3 -3.40473e-15 0)
(3 -3.06767e-15 0)
(3 -1.78279e-15 0)
(3 -9.38101e-16 0)
(3 -8.29016e-16 0)
(3 4.88539e-16 0)
(3 1.09464e-15 0)
(3 -1.16092e-15 0)
(3 -1.74283e-15 0)
(3 -2.45846e-15 0)
(3 -2.24971e-15 0)
(3 -1.74752e-15 0)
(3 -1.24434e-15 0)
(3 6.57526e-16 0)
(3 1.21016e-15 0)
(3 4.06014e-16 0)
(3 -3.96286e-16 0)
(3 -2.80166e-16 0)
(3 -8.12724e-16 0)
(3 -2.30784e-15 0)
(3 -2.36153e-15 0)
(3 -1.75026e-15 0)
(3 -1.47587e-15 0)
(3 -2.59945e-16 0)
(3 1.14675e-15 0)
(3 1.25274e-15 0)
(3 -6.3262e-16 0)
(3 -1.84874e-15 0)
(3 3.13205e-16 0)
(3 1.44328e-15 0)
(3 1.50324e-15 0)
(3 1.59768e-15 0)
(3 2.21255e-15 0)
(3 1.18683e-15 0)
(3 1.05261e-15 0)
(3 1.16738e-15 0)
(3 1.70872e-15 0)
(3 1.25059e-15 0)
(3 6.67399e-16 0)
(3 -4.34755e-18 0)
(3 -7.80379e-16 0)
(3 -3.54782e-16 0)
(3 2.76473e-16 0)
(3 3.36647e-16 0)
(3 -1.39387e-16 0)
(3 -5.956e-16 0)
(3 -1.44833e-15 0)
(3 -1.33998e-15 0)
(3 -6.83601e-16 0)
(3 -4.38075e-16 0)
(3 -9.45307e-17 0)
(3 -5.20698e-16 0)
(3 -1.22461e-15 0)
(3 -1.53919e-15 0)
(3 -2.59155e-15 0)
(3 -3.48481e-15 0)
(3 -3.48616e-15 0)
(3 -3.35501e-15 0)
(3 -2.00874e-15 0)
(3 -1.60309e-15 0)
(3 -9.78246e-16 0)
(3 8.28418e-16 0)
(3 2.89583e-15 0)
(3 2.90208e-15 0)
(3 2.96553e-15 0)
(3 2.67831e-15 0)
(3 1.49398e-15 0)
(3 -1.39277e-16 0)
(3 -7.41221e-16 0)
(3 -8.25655e-16 0)
(3 -1.45335e-15 0)
(3 -1.86445e-15 0)
(3 -1.81495e-15 0)
(3 -1.34472e-15 0)
(3 7.86895e-16 0)
(3 1.42361e-15 0)
(3 1.20241e-15 0)
(3 1.06212e-15 0)
(3 1.02831e-15 0)
(3 2.24141e-15 0)
(3 2.88561e-15 0)
(3 3.92822e-15 0)
(3 4.42728e-15 0)
(3 3.79767e-15 0)
(3 2.99962e-15 0)
(3 2.15173e-15 0)
(3 3.70679e-16 0)
(3 -9.01077e-16 0)
(3 -1.65586e-15 0)
(3 -2.03305e-15 0)
(3 -2.06646e-15 0)
(3 -2.09361e-15 0)
(3 -2.18766e-15 0)
(3 -1.00261e-15 0)
(3 -1.76005e-16 0)
(3 5.65331e-16 0)
(3 5.0349e-16 0)
(3 2.03483e-16 0)
(3 3.43662e-16 0)
(3 7.03374e-16 0)
(3 4.99082e-16 0)
(3 1.75851e-16 0)
(3 1.97038e-16 0)
(3 2.01694e-16 0)
(3 1.64584e-16 0)
(3 -4.19959e-16 0)
(3 -1.32972e-15 0)
(3 -1.23419e-15 0)
(3 -6.51756e-16 0)
(3 -1.75717e-16 0)
(3 -3.44664e-16 0)
(3 2.86546e-17 0)
(3 7.26707e-16 0)
(3 5.68369e-16 0)
(3 2.10571e-17 0)
(3 -1.28094e-15 0)
(3 -1.04395e-15 0)
(3 2.21853e-17 0)
(3 9.89103e-16 0)
(3 2.49528e-16 0)
(3 -4.20755e-16 0)
(3 -1.76424e-15 0)
(3 -2.65967e-15 0)
(3 -1.48355e-15 0)
(3 2.3623e-16 0)
(3 2.33889e-16 0)
(3 1.02801e-15 0)
(3 6.78121e-16 0)
(3 1.53236e-16 0)
(3 -1.0878e-17 0)
(3 -5.60365e-16 0)
(3 -1.09445e-15 0)
(3 -1.61465e-15 0)
(3 -6.44071e-16 0)
(3 1.61328e-15 0)
(3 2.93537e-15 0)
(3 2.67294e-15 0)
(3 2.52491e-15 0)
(3 2.82119e-15 0)
(3 5.74314e-16 0)
(3 -2.75471e-16 0)
(3 -1.60508e-15 0)
(3 -1.70129e-15 0)
(3 -1.85184e-15 0)
(3 -1.36893e-15 0)
(3 2.99002e-17 0)
(3 7.24454e-16 0)
(3 3.09527e-16 0)
(3 -4.85239e-16 0)
(3 -4.51378e-16 0)
(3 2.72695e-16 0)
(3 -3.60756e-17 0)
(3 -1.08049e-15 0)
(3 -8.2612e-16 0)
(3 1.19425e-15 0)
(3 1.95098e-15 0)
(3 -4.19542e-16 0)
(3 -2.008e-15 0)
(3 -2.04118e-15 0)
(3 -2.51768e-15 0)
(3 -1.49376e-15 0)
(3 1.64614e-16 0)
(3 8.32403e-16 0)
(3 6.23183e-15 0)
(3 5.05752e-15 0)
(3 3.95147e-15 0)
(3 2.08342e-15 0)
(3 -1.86728e-15 0)
(3 -2.90986e-15 0)
(3 -3.71317e-15 0)
(3 -3.90195e-15 0)
(3 -3.7011e-15 0)
(3 -2.8802e-15 0)
(3 -1.37051e-15 0)
(3 -1.195e-15 0)
(3 -6.72739e-16 0)
(3 -5.78813e-16 0)
(3 -9.32201e-16 0)
(3 1.67473e-15 0)
(3 2.22786e-15 0)
(3 3.33967e-15 0)
(3 4.10857e-15 0)
(3 4.63859e-15 0)
(3 8.68296e-16 0)
(3 -3.33719e-16 0)
(3 -1.68361e-15 0)
(3 -2.6013e-15 0)
(3 -2.99231e-15 0)
(3 -3.41415e-15 0)
(3 -2.9514e-15 0)
(3 -2.3421e-15 0)
(3 -1.43227e-16 0)
(3 1.47466e-15 0)
(3 1.39996e-15 0)
(3 5.34734e-16 0)
(3 1.35978e-16 0)
(3 1.42289e-16 0)
(3 9.17169e-16 0)
(3 2.38571e-15 0)
(3 4.64854e-15 0)
(3 5.55627e-15 0)
(3 5.49531e-15 0)
(3 4.52341e-15 0)
(3 4.20496e-15 0)
(3 3.92391e-15 0)
(3 3.8741e-15 0)
(3 3.58937e-15 0)
(3 3.30536e-15 0)
(3 2.90204e-15 0)
(3 1.54894e-15 0)
(3 -4.23436e-16 0)
(3 -1.10739e-15 0)
(3 -1.53148e-15 0)
(3 -1.83373e-15 0)
(3 -1.21397e-15 0)
(3 -5.84508e-16 0)
(3 -4.98309e-18 0)
(3 7.89019e-16 0)
(3 1.83603e-15 0)
(3 1.9075e-15 0)
(3 2.63322e-15 0)
(3 2.57448e-15 0)
(3 2.32296e-15 0)
(3 4.91247e-16 0)
(3 -8.01717e-16 0)
(3 5.1649e-16 0)
(3 1.49543e-15 0)
(3 3.54197e-15 0)
(3 3.90897e-15 0)
(3 3.54054e-15 0)
(3 1.50432e-15 0)
(3 1.37074e-15 0)
(3 8.04311e-16 0)
(3 1.91825e-16 0)
(3 -3.04199e-16 0)
(3 -7.28056e-16 0)
(3 -1.18132e-15 0)
(3 2.11392e-16 0)
(3 4.65089e-16 0)
(3 -2.41953e-16 0)
(3 -4.57025e-16 0)
(3 -9.40728e-16 0)
(3 -1.69217e-15 0)
(3 -2.30107e-15 0)
(3 -1.84688e-15 0)
(3 -1.33067e-15 0)
(3 -1.18058e-15 0)
(3 -1.07307e-15 0)
(3 -7.32966e-16 0)
(3 -9.47549e-16 0)
(3 -2.02299e-15 0)
(3 -1.92839e-15 0)
(3 -2.12439e-15 0)
(3 -2.62713e-15 0)
(3 -3.19223e-15 0)
(3 -2.55124e-15 0)
(3 -1.4404e-15 0)
(3 -1.01043e-15 0)
(3 -1.2367e-15 0)
(3 -1.42323e-15 0)
(3 -2.17733e-16 0)
(3 -6.21581e-17 0)
(3 8.60047e-17 0)
(3 -8.4426e-17 0)
(3 -6.76979e-16 0)
(3 7.21098e-16 0)
(3 2.60603e-15 0)
(3 2.71789e-15 0)
(3 5.97477e-16 0)
(3 -9.16391e-16 0)
(3 -1.52266e-15 0)
(3 -1.3362e-15 0)
(3 -1.20934e-15 0)
(3 -1.42989e-15 0)
(3 -1.62936e-15 0)
(3 -1.45867e-15 0)
(3 -5.20488e-16 0)
(3 4.4331e-16 0)
(3 -7.59179e-16 0)
(3 -1.70226e-15 0)
(3 -2.44602e-15 0)
(3 -1.00154e-15 0)
(3 -5.1646e-16 0)
(3 6.99479e-16 0)
(3 2.17951e-15 0)
(3 2.97899e-15 0)
(3 2.91926e-15 0)
(3 3.58565e-15 0)
(3 3.76983e-15 0)
(3 2.78635e-15 0)
(3 1.12376e-15 0)
(3 1.01476e-15 0)
(3 5.48347e-16 0)
(3 -4.42844e-16 0)
(3 -4.07805e-16 0)
(3 2.10494e-16 0)
(3 2.73154e-16 0)
(3 8.11945e-17 0)
(3 3.17401e-16 0)
(3 2.34456e-16 0)
(3 -4.76395e-17 0)
(3 -2.30601e-16 0)
(3 -8.98855e-16 0)
(3 -1.16727e-15 0)
(3 -1.31921e-15 0)
(3 -6.3699e-16 0)
(3 -5.52498e-16 0)
(3 -1.77479e-15 0)
(3 -2.66931e-15 0)
(3 -3.10968e-15 0)
(3 -2.7803e-15 0)
(3 -1.54969e-15 0)
(3 -4.05217e-17 0)
(3 4.43763e-16 0)
(3 1.86565e-15 0)
(3 2.16554e-15 0)
(3 2.18511e-15 0)
(3 2.26019e-15 0)
(3 2.05467e-15 0)
(3 1.70066e-15 0)
(3 1.13483e-16 0)
(3 -6.91645e-16 0)
(3 3.22478e-16 0)
(3 5.02319e-16 0)
(3 3.05153e-16 0)
(3 -5.52758e-16 0)
(3 -9.97374e-16 0)
(3 7.85544e-16 0)
(3 3.45333e-15 0)
(3 4.15099e-15 0)
(3 3.14729e-15 0)
(3 2.52785e-15 0)
(3 1.77796e-15 0)
(3 1.78437e-15 0)
(3 1.87472e-15 0)
(3 2.89718e-15 0)
(3 3.24595e-15 0)
(3 2.05183e-15 0)
(3 8.45404e-16 0)
(3 2.41478e-16 0)
(3 -1.21692e-15 0)
(3 -1.02937e-15 0)
(3 -5.82269e-16 0)
(3 -1.24241e-15 0)
(3 -1.43246e-15 0)
(3 -1.31927e-15 0)
(3 -8.4196e-16 0)
(3 -1.32155e-15 0)
(3 -1.14052e-15 0)
(3 -1.82295e-15 0)
(3 -1.84935e-15 0)
(3 -1.3836e-15 0)
(3 -9.95513e-16 0)
(3 -4.65969e-16 0)
(3 2.07947e-16 0)
(3 1.57706e-16 0)
(3 -2.27932e-16 0)
(3 -2.86067e-16 0)
(3 -9.97256e-16 0)
(3 -2.40863e-15 0)
(3 -2.89449e-15 0)
(3 -2.85611e-15 0)
(3 -2.57912e-15 0)
(3 -2.05995e-15 0)
(3 -5.40528e-16 0)
(3 -4.9683e-16 0)
(3 1.46747e-16 0)
(3 -2.33672e-16 0)
(3 -1.78702e-16 0)
(3 -4.9786e-16 0)
(3 -1.04316e-15 0)
(3 -1.33947e-15 0)
(3 -4.76051e-16 0)
(3 -1.11619e-15 0)
(3 -2.00573e-15 0)
(3 -2.3239e-15 0)
(3 -1.55953e-15 0)
(3 6.86194e-16 0)
(3 1.80038e-15 0)
(3 1.96296e-15 0)
(3 1.77431e-15 0)
(3 1.81214e-15 0)
(3 1.91391e-15 0)
(3 9.81789e-16 0)
(3 3.08609e-16 0)
(3 -7.24769e-17 0)
(3 3.36906e-16 0)
(3 3.47949e-16 0)
(3 7.80688e-16 0)
(3 8.53787e-16 0)
(3 3.72007e-16 0)
(3 3.07004e-16 0)
(3 -1.2551e-15 0)
(3 -2.4279e-15 0)
(3 -3.85253e-15 0)
(3 -8.67341e-16 0)
(3 4.74633e-16 0)
(3 1.9699e-15 0)
(3 2.71611e-15 0)
(3 2.95749e-15 0)
(3 2.88682e-15 0)
(3 1.66951e-15 0)
(3 8.449e-16 0)
(3 8.43867e-16 0)
(3 1.23145e-15 0)
(3 7.78412e-16 0)
(3 -3.77615e-17 0)
(3 -2.70074e-16 0)
(3 -4.95408e-16 0)
(3 -9.16352e-16 0)
(3 -1.14085e-15 0)
(3 -6.29859e-16 0)
(3 -8.8765e-16 0)
(3 -7.18636e-16 0)
(3 -5.46984e-16 0)
(3 -1.05245e-15 0)
(3 4.22369e-15 0)
(3 3.31272e-15 0)
(3 1.06695e-15 0)
(3 3.74982e-17 0)
(3 -4.96571e-16 0)
(3 -1.28711e-15 0)
(3 -2.45913e-15 0)
(3 -2.97371e-15 0)
(3 -2.95419e-15 0)
(3 -2.68039e-15 0)
(3 -2.29765e-15 0)
(3 -2.16303e-15 0)
(3 -2.05764e-15 0)
(3 -2.40858e-15 0)
(3 -2.41978e-15 0)
(3 -1.78885e-15 0)
(3 -1.91087e-15 0)
(3 -4.44145e-16 0)
(3 1.69186e-15 0)
(3 2.84764e-15 0)
(3 9.61166e-16 0)
(3 -5.10144e-16 0)
(3 -2.06635e-15 0)
(3 -3.04945e-15 0)
(3 -3.10686e-15 0)
(3 -2.98511e-15 0)
(3 -2.21021e-15 0)
(3 -1.48439e-15 0)
(3 -9.49111e-16 0)
(3 -1.46371e-16 0)
(3 1.26833e-16 0)
(3 4.24101e-17 0)
(3 -1.46406e-16 0)
(3 -4.43823e-17 0)
(3 6.84434e-16 0)
(3 1.34805e-15 0)
(3 2.90346e-15 0)
(3 3.99397e-15 0)
(3 3.41152e-15 0)
(3 2.05418e-15 0)
(3 2.22989e-15 0)
(3 2.64953e-15 0)
(3 2.93119e-15 0)
(3 1.49827e-15 0)
(3 7.26953e-16 0)
(3 -6.46696e-16 0)
(3 -7.63877e-16 0)
(3 -2.83191e-15 0)
(3 -2.98502e-15 0)
(3 -2.93339e-15 0)
(3 -2.20793e-15 0)
(3 -8.6897e-16 0)
(3 -1.38366e-16 0)
(3 5.56239e-16 0)
(3 6.10271e-16 0)
(3 -5.95197e-16 0)
(3 -1.24715e-15 0)
(3 -9.20196e-16 0)
(3 -3.32486e-16 0)
(3 -5.60195e-18 0)
(3 -4.98164e-16 0)
(3 -5.4196e-16 0)
(3 1.53953e-15 0)
(3 2.84081e-15 0)
(3 2.23027e-15 0)
(3 1.13588e-15 0)
(3 1.20544e-15 0)
(3 1.94568e-15 0)
(3 2.04078e-15 0)
(3 2.04611e-15 0)
(3 -1.98463e-17 0)
(3 -1.09363e-16 0)
(3 3.08749e-16 0)
(3 7.60736e-16 0)
(3 6.4093e-16 0)
(3 -7.9936e-17 0)
(3 -2.20648e-16 0)
(3 -1.81874e-15 0)
(3 -1.90877e-15 0)
(3 -1.86909e-15 0)
(3 -2.16453e-15 0)
(3 -2.53557e-15 0)
(3 -1.79967e-15 0)
(3 -2.60068e-16 0)
(3 -3.51098e-16 0)
(3 8.2635e-17 0)
(3 -3.59425e-16 0)
(3 -1.60182e-15 0)
(3 -1.26901e-15 0)
(3 -1.39957e-15 0)
(3 -1.54478e-15 0)
(3 -2.1547e-15 0)
(3 -1.94565e-15 0)
(3 -1.61017e-15 0)
(3 -1.5236e-15 0)
(3 -1.85458e-15 0)
(3 -1.77147e-15 0)
(3 5.31702e-16 0)
(3 1.36446e-15 0)
(3 1.44195e-15 0)
(3 5.14674e-16 0)
(3 -7.20857e-16 0)
(3 -1.58874e-16 0)
(3 1.49044e-15 0)
(3 2.61983e-15 0)
(3 1.02739e-15 0)
(3 -1.51502e-15 0)
(3 -2.79465e-15 0)
(3 -2.65011e-15 0)
(3 -2.5182e-15 0)
(3 -2.43414e-15 0)
(3 -2.32003e-15 0)
(3 -1.80079e-15 0)
(3 -1.23973e-15 0)
(3 -1.4324e-15 0)
(3 -9.51597e-16 0)
(3 -1.56023e-15 0)
(3 -1.51659e-15 0)
(3 -1.70644e-15 0)
(3 -1.47788e-15 0)
(3 -1.49317e-15 0)
(3 1.67737e-15 0)
(3 4.40296e-15 0)
(3 5.89264e-15 0)
(3 6.33262e-15 0)
(3 6.00115e-15 0)
(3 4.26898e-15 0)
(3 2.48396e-15 0)
(3 1.54763e-15 0)
(3 6.60499e-16 0)
(3 -8.67644e-17 0)
(3 -1.54788e-16 0)
(3 -2.95691e-16 0)
(3 -1.53854e-16 0)
(3 -1.97791e-16 0)
(3 -1.41864e-16 0)
(3 -1.36956e-16 0)
(3 -2.68679e-16 0)
(3 -6.97169e-16 0)
(3 -1.30488e-15 0)
(3 -1.29917e-15 0)
(3 -1.09346e-15 0)
(3 -1.14507e-15 0)
(3 -1.12833e-15 0)
(3 -1.03513e-15 0)
(3 -1.15291e-15 0)
(3 -1.62446e-15 0)
(3 -1.85667e-15 0)
(3 -1.27994e-15 0)
(3 -4.13639e-16 0)
(3 5.74103e-16 0)
(3 1.99726e-15 0)
(3 1.54046e-15 0)
(3 1.46575e-15 0)
(3 1.55595e-15 0)
(3 7.66619e-16 0)
(3 9.00618e-16 0)
(3 7.22717e-16 0)
(3 8.84168e-16 0)
(3 1.11772e-15 0)
(3 1.91282e-15 0)
(3 1.86645e-15 0)
(3 1.17591e-15 0)
(3 1.41668e-15 0)
(3 1.76895e-15 0)
(3 2.94732e-15 0)
(3 3.82046e-15 0)
(3 2.46662e-15 0)
(3 2.07591e-15 0)
(3 2.37443e-15 0)
(3 1.83364e-15 0)
(3 1.8809e-15 0)
(3 1.86658e-15 0)
(3 2.13822e-15 0)
(3 2.16341e-15 0)
(3 2.06786e-15 0)
(3 1.66976e-15 0)
(3 3.8723e-16 0)
(3 3.82083e-16 0)
(3 7.69062e-16 0)
(3 -8.10878e-16 0)
(3 -2.04662e-15 0)
(3 -2.71863e-15 0)
(3 -2.64013e-15 0)
(3 -2.09402e-15 0)
(3 -1.67506e-15 0)
(3 -2.03941e-15 0)
(3 -2.09243e-15 0)
(3 -1.87493e-15 0)
(3 -1.23739e-15 0)
(3 -3.83886e-16 0)
(3 -3.77631e-16 0)
(3 -7.64064e-16 0)
(3 -7.25976e-16 0)
(3 -7.22436e-16 0)
(3 -9.1188e-16 0)
(3 -2.73743e-15 0)
(3 -4.53622e-15 0)
(3 -4.57133e-15 0)
(3 -4.57018e-15 0)
(3 -4.30349e-15 0)
(3 -1.48969e-15 0)
(3 1.45372e-15 0)
(3 2.221e-15 0)
(3 1.26791e-15 0)
(3 9.06511e-16 0)
(3 3.60416e-16 0)
(3 -2.28149e-16 0)
(3 -1.84837e-16 0)
(3 -3.24542e-16 0)
(3 -1.1983e-15 0)
(3 -1.01587e-15 0)
(3 -2.05803e-15 0)
(3 -1.41832e-15 0)
(3 1.14467e-15 0)
(3 3.43301e-15 0)
(3 4.32819e-15 0)
(3 2.76313e-15 0)
(3 1.98764e-15 0)
(3 1.48634e-15 0)
(3 1.90586e-15 0)
(3 2.09531e-15 0)
(3 2.02191e-15 0)
(3 1.42899e-15 0)
(3 1.34039e-15 0)
(3 8.56729e-16 0)
(3 3.57377e-16 0)
(3 -4.96919e-16 0)
(3 -9.99615e-16 0)
(3 -1.99639e-15 0)
(3 -3.52133e-15 0)
(3 -3.87448e-15 0)
(3 -1.80635e-15 0)
(3 -1.03812e-15 0)
(3 -4.51875e-16 0)
(3 1.41829e-16 0)
(3 3.38503e-16 0)
(3 5.51973e-17 0)
(3 -1.46694e-17 0)
(3 -6.01316e-17 0)
(3 1.17192e-15 0)
(3 1.48552e-15 0)
(3 2.06591e-15 0)
(3 7.72082e-16 0)
(3 -8.95499e-16 0)
(3 -1.11063e-15 0)
(3 -6.6018e-16 0)
(3 -1.73969e-16 0)
(3 4.79033e-16 0)
(3 1.16837e-15 0)
(3 3.47033e-16 0)
(3 -5.41671e-16 0)
(3 -1.47676e-15 0)
(3 3.18719e-16 0)
(3 3.11364e-16 0)
(3 1.72914e-16 0)
(3 2.44551e-16 0)
(3 7.36993e-17 0)
(3 -5.73135e-16 0)
(3 -1.21584e-15 0)
(3 -7.61303e-16 0)
(3 -6.82636e-17 0)
(3 1.62448e-16 0)
(3 -1.65334e-18 0)
(3 -1.11165e-15 0)
(3 -2.31788e-15 0)
(3 -2.32021e-15 0)
(3 -2.21755e-15 0)
(3 -2.48007e-15 0)
(3 -2.63224e-15 0)
(3 -3.12538e-15 0)
(3 -1.86171e-15 0)
(3 -1.25124e-15 0)
(3 -1.72305e-15 0)
(3 -1.5274e-15 0)
(3 -1.83782e-15 0)
(3 -3.08392e-15 0)
(3 -3.56823e-15 0)
(3 -2.89418e-15 0)
(3 -2.76831e-15 0)
(3 -2.32168e-15 0)
(3 -3.27793e-15 0)
(3 -2.83134e-15 0)
(3 -1.76136e-15 0)
(3 -7.98594e-16 0)
(3 -1.35906e-15 0)
(3 -1.55401e-15 0)
(3 -5.25183e-16 0)
(3 1.47462e-15 0)
(3 1.58997e-15 0)
(3 1.21748e-15 0)
(3 1.88077e-16 0)
(3 -2.82251e-16 0)
(3 1.11212e-15 0)
(3 2.65924e-15 0)
(3 2.51364e-15 0)
(3 1.43882e-15 0)
(3 -6.83357e-16 0)
(3 -1.97833e-15 0)
(3 -2.41065e-15 0)
(3 -2.23582e-15 0)
(3 -1.56786e-15 0)
(3 -1.25252e-15 0)
(3 -5.99558e-16 0)
(3 -5.89518e-16 0)
(3 7.53517e-16 0)
(3 1.15709e-15 0)
(3 3.58387e-16 0)
(3 -2.23853e-15 0)
(3 -4.08658e-15 0)
(3 -3.01265e-15 0)
(3 -1.61145e-15 0)
(3 -1.54e-15 0)
(3 -1.79919e-15 0)
(3 -1.36138e-15 0)
(3 -3.75119e-16 0)
(3 2.21359e-16 0)
(3 7.79385e-17 0)
(3 -7.13859e-17 0)
(3 -7.84937e-16 0)
(3 -6.2811e-16 0)
(3 1.10466e-15 0)
(3 2.64926e-15 0)
(3 2.41319e-15 0)
(3 8.62984e-16 0)
(3 2.0667e-15 0)
(3 2.5433e-15 0)