/*--------------------------------*- C++ -*----------------------------------*\
  =========                 |
  \\      /  F ield         | OpenFOAM: The Open Source CFD Toolbox
   \\    /   O peration     | Website:  https://openfoam.org
    \\  /    A nd           | Version:  7
     \\/     M anipulation  |
\*---------------------------------------------------------------------------*/
FoamFile
{
    version     2.0;
    format      ascii;
    class       volScalarField;
    location    "4.7";
    object      T;
}
// * * * * * * * * * * * * * * * * * * * * * * * * * * * * * * * * * * * * * //

dimensions      [0 0 0 1 0 0 0];

internalField   nonuniform List<scalar> 
3328
(
3.67861
2.77491
2.60715
2.61339
2.61553
2.61744
2.61881
2.62038
2.62389
2.6311
2.64208
2.65639
2.67382
2.69312
2.715
2.74285
2.77944
2.82598
2.87988
2.9346
2.98212
3.0161
3.03462
3.04126
3.67808
2.77413
2.60694
2.61374
2.61664
2.61911
2.62085
2.62255
2.62584
2.63251
2.64287
2.65668
2.67363
2.69227
2.71395
2.74171
2.77829
2.82481
2.87863
2.93315
2.98034
3.01393
3.03201
3.03836
3.67814
2.77283
2.60721
2.61498
2.61899
2.62204
2.62393
2.62561
2.62832
2.63403
2.64353
2.65654
2.6726
2.69029
2.7117
2.73926
2.77559
2.82179
2.87535
2.92979
2.9771
3.01071
3.02856
3.03467
3.67834
2.77177
2.60778
2.61663
2.62194
2.62561
2.62762
2.6292
2.63134
2.63609
2.64432
2.656
2.67065
2.68746
2.70828
2.7353
2.77106
2.81672
2.87001
2.92465
2.97243
3.00612
3.02334
3.02872
3.67896
2.77118
2.60865
2.61829
2.62465
2.62895
2.63121
2.63273
2.63431
2.63782
2.64444
2.65468
2.66788
2.68399
2.70401
2.73008
2.76476
2.80919
2.86137
2.91541
2.96346
2.99847
3.01677
3.0233
3.68005
2.77137
2.60979
2.61968
2.62646
2.63083
2.63304
2.63444
2.63551
2.63794
2.64347
2.65265
2.66501
2.68033
2.69938
2.72412
2.75706
2.79954
2.85019
2.90377
2.95283
2.9901
3.01109
3.01822
3.68155
2.77256
2.6113
2.62073
2.62706
2.63098
2.63283
2.63394
2.63449
2.63647
2.64159
2.65039
2.66234
2.67703
2.69509
2.71819
2.74887
2.78855
2.83642
2.8876
2.93531
2.97292
2.99979
3.01662
3.68329
2.77468
2.61311
2.62123
2.62651
2.6298
2.63142
2.63228
2.63254
2.63437
2.63949
2.64826
2.66005
2.67434
2.69148
2.71282
2.74069
2.77658
2.82015
2.86781
2.91466
2.95802
2.99535
3.03596
3.685
2.77726
2.61469
2.62091
2.62493
2.62761
2.6291
2.62999
2.63054
2.63267
2.63783
2.64649
2.6582
2.67212
2.68841
2.70802
2.73282
2.76458
2.80318
2.84722
2.89097
2.93106
2.95022
2.96827
3.68648
2.77988
2.61579
2.62001
2.62292
2.62554
2.62736
2.62878
2.6299
2.63235
2.63737
2.64562
2.65674
2.67005
2.68537
2.70343
2.72529
2.753
2.78651
2.82571
2.86518
2.89973
2.92728
2.94558
3.68758
2.78196
2.61679
2.61937
2.62179
2.62483
2.62727
2.62939
2.63122
2.63373
2.6383
2.64568
2.65561
2.66785
2.68192
2.69842
2.71774
2.74176
2.77082
2.80461
2.84009
2.86944
2.89719
2.91508
3.68831
2.78296
2.61821
2.61988
2.62227
2.62601
2.62925
2.63189
2.63401
2.63658
2.64044
2.64646
2.65473
2.6654
2.67795
2.69271
2.70993
2.73077
2.75613
2.78518
2.81648
2.84457
2.87111
2.89049
3.68902
2.78308
2.62045
2.62199
2.62461
2.62899
2.63307
2.63618
2.63855
2.64093
2.64361
2.64783
2.65411
2.66278
2.67371
2.68679
2.70227
2.72051
2.74263
2.76828
2.79662
2.82526
2.84894
2.87144
3.69021
2.78321
2.62366
2.62547
2.62856
2.63348
2.63819
2.64172
2.6442
2.64612
2.64728
2.64936
2.65354
2.6603
2.6698
2.68161
2.69571
2.71195
2.73116
2.75379
2.77964
2.80749
2.83335
2.85602
3.69221
2.78415
2.62779
2.62992
2.6335
2.63892
2.6439
2.6474
2.64966
2.65063
2.65007
2.65045
2.65308
2.6585
2.66686
2.67782
2.69086
2.70561
2.7224
2.74196
2.76471
2.79031
2.81655
2.84034
3.6949
2.78625
2.63277
2.63566
2.63955
2.64427
2.6486
2.65127
2.65271
2.65251
2.65126
2.65106
2.6531
2.65785
2.6653
2.67538
2.6874
2.7009
2.71575
2.73229
2.75117
2.77307
2.79752
2.82211
3.69784
2.78879
2.63886
2.64178
2.64482
2.64811
2.65097
2.65242
2.65312
2.65265
2.65174
2.652
2.65396
2.65834
2.66489
2.67364
2.68426
2.6963
2.70929
2.7233
2.73872
2.75646
2.77718
2.80044
3.70042
2.79188
2.644
2.64631
2.64831
2.64995
2.65131
2.65207
2.65279
2.65306
2.65299
2.65384
2.65607
2.6598
2.66503
2.67191
2.68046
2.69039
2.70122
2.7127
2.72523
2.73958
2.75676
2.77747
3.70192
2.79452
2.64812
2.64944
2.64946
2.64994
2.65077
2.65163
2.65271
2.65408
2.65534
2.65694
2.6591
2.66181
2.66517
2.66968
2.67547
2.68255
2.69077
2.69984
2.70978
2.72139
2.73559
2.75346
3.70213
2.79499
2.65106
2.65139
2.64983
2.64978
2.65065
2.65177
2.65335
2.65572
2.65823
2.66012
2.66164
2.66303
2.66462
2.66667
2.66948
2.67355
2.67917
2.68626
2.69443
2.70392
2.71539
2.73057
3.7015
2.79409
2.65198
2.65262
2.65101
2.65087
2.65192
2.65317
2.65489
2.65736
2.65998
2.66171
2.6624
2.66261
2.66284
2.66307
2.66381
2.66577
2.66952
2.67511
2.68208
2.69017
2.69949
2.71156
3.70072
2.79277
2.6526
2.65417
2.65327
2.65365
2.65494
2.6561
2.65707
2.65863
2.66018
2.66119
2.66108
2.66053
2.65977
2.65949
2.66019
2.66203
2.66512
2.66937
2.67476
2.68115
2.68825
2.69688
3.70049
2.79282
2.65356
2.65611
2.6569
2.65827
2.65949
2.66006
2.65987
2.65961
2.65948
2.65922
2.65837
2.65726
2.65655
2.65715
2.65902
2.66176
2.66474
2.66789
2.67151
2.6758
2.68055
2.68592
3.70073
2.79418
2.65405
2.65712
2.66031
2.66344
2.66418
2.66402
2.66265
2.66073
2.65907
2.65763
2.65632
2.65541
2.65543
2.65679
2.65941
2.66252
2.66574
2.66865
2.67105
2.67328
2.67546
2.6777
3.70092
2.79471
2.65446
2.65845
2.66352
2.66767
2.66708
2.66561
2.66359
2.66134
2.65964
2.65849
2.65785
2.65766
2.65788
2.65908
2.66126
2.66405
2.66696
2.66923
2.6706
2.67142
2.67168
2.67148
3.70098
2.79487
2.65526
2.6601
2.66629
2.66987
2.66805
2.66485
2.66212
2.66066
2.66081
2.66185
2.66297
2.66355
2.66382
2.66423
2.66491
2.66582
2.6667
2.66745
2.66768
2.66744
2.66657
2.66518
3.70135
2.79499
2.65728
2.66215
2.66792
2.6695
2.66658
2.6622
2.65957
2.6595
2.66178
2.66594
2.67007
2.67251
2.67288
2.67189
2.67
2.66771
2.66538
2.66356
2.66203
2.66066
2.65913
2.65758
3.70175
2.79487
2.65975
2.66477
2.66899
2.66831
2.66491
2.66017
2.65788
2.65937
2.66314
2.66964
2.67678
2.68147
2.68166
2.6796
2.67537
2.66982
2.66426
2.65962
2.65611
2.65361
2.65168
2.65023
3.70138
2.79281
2.66126
2.66679
2.66989
2.66848
2.66421
2.66034
2.65925
2.66089
2.66527
2.67304
2.681
2.68647
2.68654
2.68435
2.67912
2.67185
2.66451
2.65832
2.6535
2.6499
2.64713
2.64507
3.70039
2.79011
2.66148
2.66746
2.67026
2.67001
2.66705
2.66453
2.66382
2.66542
2.66939
2.67607
2.68234
2.68629
2.68628
2.68446
2.67988
2.67348
2.6665
2.66016
2.65466
2.65002
2.64611
2.64297
3.69864
2.78678
2.65948
2.66567
2.66912
2.67128
2.67104
2.67138
2.67216
2.67397
2.67641
2.67954
2.68202
2.68314
2.68285
2.68168
2.67891
2.67474
2.66954
2.66387
2.65821
2.65289
2.648
2.64349
3.6967
2.78543
2.65549
2.66159
2.66633
2.67075
2.67516
2.67968
2.6831
2.68465
2.68457
2.68363
2.68184
2.67981
2.67882
2.67848
2.67762
2.67562
2.67229
2.66799
2.66311
2.65788
2.65225
2.64619
3.69568
2.78829
2.65
2.65594
2.66183
2.66892
2.67808
2.6873
2.69356
2.69366
2.69163
2.68763
2.68287
2.67901
2.67721
2.67705
2.677
2.67623
2.67422
2.67117
2.66709
2.6621
2.65621
2.64943
3.6957
2.79797
2.64639
2.65065
2.6566
2.66707
2.67945
2.69176
2.69984
2.69941
2.69684
2.69161
2.68554
2.68086
2.67823
2.6773
2.67709
2.67651
2.67509
2.6728
2.6694
2.66474
2.6588
2.65171
3.69663
2.8084
2.64698
2.64984
2.65445
2.66605
2.67937
2.69215
2.69997
2.70024
2.69845
2.69456
2.68944
2.68482
2.68138
2.67914
2.6777
2.67668
2.67528
2.67309
2.66992
2.66552
2.65976
2.65274
3.69766
2.81155
2.65225
2.65531
2.65808
2.66701
2.6785
2.68911
2.69522
2.69743
2.69732
2.69637
2.69388
2.69059
2.68715
2.68383
2.68071
2.67809
2.67567
2.67277
2.66924
2.66478
2.65931
2.65278
3.69837
2.8094
2.65773
2.66253
2.66462
2.67115
2.67831
2.68439
2.68903
2.69292
2.69585
2.69773
2.69788
2.69652
2.69382
2.69018
2.6859
2.68134
2.67693
2.67266
2.66835
2.66367
2.65841
2.65229
3.69891
2.8052
2.66175
2.66941
2.6717
2.67599
2.67929
2.68169
2.68414
2.68768
2.69247
2.69757
2.70118
2.70154
2.69997
2.69626
2.69096
2.68493
2.67876
2.67291
2.66758
2.66243
2.65721
2.65141
3.69915
2.79945
2.6661
2.67477
2.67679
2.67872
2.67994
2.68082
2.68183
2.684
2.68878
2.69656
2.70303
2.70552
2.70401
2.70019
2.69447
2.68771
2.68067
2.67373
2.66749
2.66175
2.65632
2.65061
3.69825
2.79398
2.66913
2.67865
2.68175
2.68125
2.68069
2.67976
2.67923
2.68044
2.68501
2.69458
2.70345
2.70808
2.70684
2.70303
2.69723
2.69007
2.68232
2.67458
2.66746
2.66103
2.65531
2.64977
2.87259
2.96363
3.00229
3.02613
3.0393
3.04896
3.05266
3.05202
2.983
3.02675
3.0215
3.02935
3.03897
3.04988
3.05402
3.05368
2.95067
2.99131
3.0037
3.01963
3.0327
3.04757
3.05536
3.05693
2.92028
2.95811
2.9859
3.01053
3.02757
3.0443
3.05333
3.05648
2.89466
2.92462
2.95281
2.98193
3.00644
3.02995
3.04607
3.05547
2.87568
2.89771
2.92116
2.94755
2.9771
3.01073
3.04115
3.05534
2.86043
2.87842
2.89534
2.91449
2.93918
2.97446
3.01612
3.04884
2.84336
2.86106
2.87493
2.88608
2.90016
2.92949
2.98651
3.07617
2.82301
2.84127
2.85303
2.85899
2.8611
2.86637
2.86339
2.8143
2.79952
2.81848
2.82986
2.82945
2.8231
2.80487
2.7672
2.64941
2.77432
2.79405
2.80668
2.80499
2.79318
2.7616
2.70731
2.56821
2.74969
2.76944
2.78357
2.78304
2.77083
2.73865
2.67808
2.56559
2.72744
2.74553
2.76031
2.76234
2.75277
2.72487
2.67009
2.57816
2.70871
2.72333
2.73686
2.74173
2.73521
2.71357
2.67162
2.60134
2.69309
2.70298
2.71397
2.72022
2.71637
2.70188
2.67177
2.62099
2.68062
2.68548
2.69246
2.69815
2.6964
2.68722
2.6671
2.63106
2.67113
2.67164
2.67402
2.67745
2.67696
2.67144
2.65862
2.63365
2.66322
2.6612
2.66013
2.66058
2.66027
2.65677
2.64883
2.63223
2.65555
2.6531
2.65048
2.64872
2.64775
2.64484
2.63961
2.62879
2.64858
2.64659
2.64381
2.64079
2.63871
2.63552
2.63146
2.62409
2.64326
2.64134
2.63871
2.63506
2.63176
2.62771
2.6237
2.61804
2.64017
2.63748
2.63453
2.63036
2.62589
2.62077
2.61616
2.61101
2.63917
2.63493
2.63087
2.62615
2.62093
2.61504
2.6097
2.60448
2.64009
2.63393
2.62812
2.62236
2.61675
2.61074
2.60498
2.59967
2.64212
2.63445
2.6271
2.62005
2.61372
2.60762
2.60188
2.59667
2.64393
2.63565
2.62766
2.61982
2.6127
2.6061
2.60005
2.5948
2.64505
2.63689
2.62888
2.62094
2.61345
2.60629
2.59964
2.59385
2.64556
2.63785
2.63018
2.62244
2.61486
2.6074
2.60026
2.59378
2.64552
2.63819
2.63075
2.62324
2.61586
2.6085
2.60121
2.59424
2.64504
2.63807
2.63089
2.62359
2.61629
2.60894
2.60161
2.59437
2.64444
2.6377
2.6307
2.62356
2.61633
2.60898
2.60153
2.59412
2.64405
2.63779
2.63109
2.62402
2.6167
2.60922
2.60163
2.59419
2.06708
1.57206
1.5473
1.64003
1.81747
1.95182
2.09359
2.18508
2.25863
2.36882
2.49403
2.54368
2.64488
2.73094
2.73096
2.73774
2.75126
2.74951
2.73142
2.71154
2.69951
2.69483
2.69414
2.68015
2.66148
2.64306
2.62654
2.61522
2.60619
2.59259
2.5768
2.55849
2.5412
2.52485
2.50872
2.49323
2.4781
2.46293
2.44895
2.43681
2.42516
2.41252
2.39754
2.37968
2.35989
2.34142
2.32583
2.31178
2.30132
2.29638
2.30164
2.32535
2.38788
2.477
2.61106
2.63146
2.6097
2.58969
2.57404
2.55787
2.54456
2.53469
2.52517
2.51622
2.50783
2.4993
2.49145
2.48391
2.47555
2.46515
2.45237
2.43821
2.42389
2.40898
2.39471
2.38102
2.36726
2.35405
2.34261
2.33202
2.32105
2.30984
2.29835
2.28707
2.27605
2.26457
2.25425
2.23792
2.2702
2.02847
1.85161
1.82881
1.85149
1.85023
1.87643
1.9459
2.0342
2.14917
2.29061
2.38596
2.50129
2.63705
2.66981
2.69582
2.71618
2.71612
2.70078
2.68565
2.67585
2.67138
2.66792
2.65461
2.63847
2.62278
2.60875
2.59839
2.58892
2.57635
2.56153
2.54454
2.52912
2.51387
2.49796
2.48196
2.46589
2.44974
2.43548
2.42394
2.4132
2.40161
2.38783
2.37131
2.35228
2.33389
2.31796
2.30541
2.29783
2.29951
2.31374
2.3453
2.397
2.4612
2.57718
2.60797
2.59288
2.57769
2.56457
2.55186
2.54011
2.52999
2.52074
2.51187
2.50369
2.49517
2.48707
2.47886
2.46944
2.45769
2.44364
2.42842
2.41383
2.40145
2.38913
2.37666
2.3645
2.35169
2.3382
2.32552
2.31376
2.30168
2.2894
2.27764
2.26731
2.25661
2.24725
2.23361
2.33542
2.18804
2.04929
1.92425
1.87177
1.85338
1.82349
1.834
1.88846
1.95414
2.04634
2.15989
2.30002
2.48495
2.57883
2.62433
2.63161
2.62911
2.6161
2.60854
2.60492
2.60594
2.60217
2.59242
2.57647
2.56276
2.55316
2.54591
2.53791
2.52831
2.51485
2.49852
2.48577
2.47364
2.46076
2.4471
2.43194
2.41495
2.3993
2.38745
2.37753
2.36754
2.35632
2.34294
2.32713
2.31052
2.29617
2.2872
2.28771
2.29717
2.31846
2.35141
2.38304
2.41605
2.50191
2.56399
2.55858
2.54905
2.54069
2.53131
2.52303
2.51526
2.50636
2.49804
2.49045
2.48281
2.4749
2.46575
2.45385
2.43915
2.42381
2.40918
2.39565
2.38409
2.37479
2.36534
2.35479
2.34388
2.33102
2.31533
2.30131
2.28919
2.27691
2.26462
2.25362
2.24434
2.23619
2.22322
2.40883
2.28747
2.1863
2.07162
1.9764
1.95
1.92617
1.88562
1.85725
1.85904
1.89011
1.97505
2.09245
2.27186
2.44767
2.54767
2.56093
2.55108
2.5416
2.53681
2.53361
2.53154
2.52719
2.51942
2.50625
2.49437
2.48755
2.48268
2.47598
2.46733
2.45445
2.43986
2.42893
2.41954
2.40975
2.39886
2.38583
2.37004
2.35412
2.34151
2.33124
2.32162
2.31133
2.29954
2.28634
2.27298
2.26304
2.26173
2.26904
2.28991
2.31216
2.33854
2.34957
2.3591
2.39802
2.47885
2.51097
2.50596
2.49866
2.49082
2.48477
2.48154
2.47684
2.46921
2.4614
2.45491
2.44771
2.43838
2.42538
2.41014
2.39679
2.38522
2.3743
2.36436
2.35677
2.34848
2.33851
2.3281
2.31592
2.2995
2.28291
2.27153
2.26108
2.25023
2.24035
2.23294
2.22553
2.2121
2.47257
2.37326
2.28332
2.19874
2.10734
2.04525
2.01791
1.98478
1.93566
1.89477
1.89547
1.91702
1.96614
2.07776
2.29229
2.45653
2.52516
2.5257
2.51715
2.50828
2.49807
2.48962
2.48236
2.47467
2.46701
2.45823
2.44798
2.43738
2.42586
2.41354
2.40229
2.39347
2.38487
2.37574
2.36573
2.35347
2.33854
2.3226
2.30854
2.29704
2.28705
2.27709
2.26722
2.25617
2.24373
2.23275
2.23182
2.23843
2.25904
2.28864
2.30133
2.31056
2.30897
2.30743
2.31844
2.37019
2.43799
2.46341
2.46044
2.4534
2.44441
2.44087
2.43821
2.43319
2.42595
2.41867
2.41103
2.40121
2.3879
2.37443
2.36517
2.35757
2.3502
2.34345
2.3369
2.32878
2.32008
2.31074
2.29968
2.28408
2.26582
2.25415
2.24555
2.23667
2.22839
2.22208
2.21648
2.20276
2.52358
2.44305
2.36357
2.2925
2.22058
2.14755
2.10602
2.07898
2.04266
1.98996
1.95484
1.95388
1.96559
1.98097
2.07455
2.3071
2.4812
2.51902
2.51063
2.49771
2.48167
2.46867
2.46062
2.45541
2.44838
2.43809
2.42404
2.40863
2.39506
2.3848
2.37713
2.36945
2.36003
2.34876
2.33519
2.31976
2.30407
2.29058
2.27975
2.26925
2.25765
2.24498
2.23213
2.21858
2.2061
2.20478
2.21207
2.2305
2.26189
2.28669
2.28751
2.28002
2.27471
2.2687
2.2699
2.28773
2.3433
2.3988
2.42145
2.4233
2.41504
2.40443
2.39896
2.39479
2.39
2.38392
2.37624
2.36667
2.35503
2.34454
2.338
2.33261
2.32739
2.322
2.31602
2.30943
2.30244
2.29511
2.28637
2.27385
2.2572
2.24402
2.23593
2.2284
2.22085
2.21428
2.21024
2.1969
2.56148
2.49802
2.42885
2.36424
2.3067
2.24257
2.19075
2.15459
2.12317
2.08816
2.04558
2.01098
1.99985
1.99897
2.00368
2.08845
2.34262
2.50252
2.51257
2.50045
2.47981
2.46394
2.45322
2.44555
2.43635
2.42489
2.40961
2.39278
2.38068
2.37146
2.36344
2.35369
2.34197
2.32759
2.31236
2.2986
2.2868
2.27609
2.26471
2.25226
2.23694
2.21978
2.20404
2.19143
2.1899
2.19567
2.21514
2.24055
2.2686
2.27764
2.27231
2.25995
2.25239
2.24597
2.24342
2.24908
2.27251
2.32404
2.36873
2.3895
2.38788
2.37851
2.3688
2.36286
2.3584
2.35354
2.34705
2.33858
2.32931
2.32155
2.31653
2.31243
2.30824
2.3034
2.29807
2.29269
2.28741
2.28192
2.27508
2.26534
2.25275
2.24088
2.23232
2.22528
2.21828
2.21169
2.20796
2.19538
2.58703
2.53773
2.48192
2.4244
2.37332
2.32296
2.27118
2.22715
2.18952
2.16318
2.13377
2.09327
2.0635
2.04836
2.02976
2.02957
2.1235
2.38092
2.50698
2.5056
2.47999
2.46439
2.45381
2.44266
2.42902
2.41502
2.39931
2.38516
2.37374
2.3642
2.35261
2.33972
2.32541
2.30921
2.29611
2.28585
2.27615
2.26576
2.25228
2.2329
2.21157
2.19499
2.18364
2.18392
2.18994
2.20988
2.23558
2.25714
2.26851
2.26591
2.25963
2.25193
2.24528
2.2405
2.23523
2.23335
2.23941
2.26325
2.30767
2.34802
2.35988
2.35476
2.34911
2.34281
2.33666
2.33136
2.32594
2.31911
2.31188
2.30631
2.30234
2.29896
2.29545
2.29152
2.28736
2.28332
2.27917
2.27448
2.26802
2.25973
2.2511
2.24248
2.23408
2.22622
2.21936
2.21328
2.20874
2.19705
2.60229
2.56481
2.52083
2.47162
2.42874
2.38609
2.34098
2.29699
2.25477
2.2208
2.19907
2.17268
2.13567
2.10347
2.07629
2.05152
2.05848
2.16678
2.40139
2.48159
2.47494
2.46714
2.45788
2.44358
2.42489
2.40487
2.39002
2.37808
2.36923
2.35884
2.34582
2.33056
2.31266
2.29759
2.286
2.2767
2.26621
2.25251
2.23512
2.21372
2.19223
2.18185
2.18075
2.18791
2.20727
2.23832
2.25739
2.26228
2.26378
2.26096
2.25697
2.25295
2.2479
2.24146
2.23507
2.22794
2.22543
2.22962
2.24995
2.29
2.32719
2.33307
2.33346
2.33233
2.32625
2.31898
2.31258
2.30606
2.30029
2.29651
2.29374
2.29118
2.28849
2.28561
2.28239
2.2792
2.27517
2.26883
2.26151
2.25539
2.25015
2.24494
2.23921
2.23284
2.22583
2.2183
2.21087
2.19569
2.61023
2.58249
2.54793
2.50861
2.47211
2.43704
2.39639
2.3561
2.31765
2.27947
2.25063
2.23079
2.2037
2.16599
2.13149
2.10262
2.08169
2.08934
2.19635
2.38829
2.46173
2.4684
2.46032
2.44357
2.42254
2.39836
2.38264
2.37099
2.3635
2.35303
2.33958
2.32193
2.30284
2.29006
2.27971
2.26886
2.25552
2.23913
2.21846
2.19642
2.18346
2.1804
2.187
2.20777
2.2398
2.26196
2.26278
2.2635
2.26343
2.26311
2.2598
2.25612
2.2496
2.2408
2.23432
2.2269
2.21917
2.21586
2.21772
2.23459
2.27456
2.30572
2.31469
2.32327
2.32051
2.31297
2.30359
2.29552
2.29147
2.28914
2.28744
2.28601
2.28445
2.2824
2.28003
2.27532
2.26761
2.26053
2.25597
2.25348
2.25174
2.24997
2.2474
2.24246
2.23382
2.22157
2.20891
2.19037
2.61319
2.59272
2.5663
2.53552
2.50612
2.47676
2.44059
2.40231
2.36878
2.33601
2.30305
2.27552
2.25301
2.22424
2.18945
2.15341
2.12149
2.10214
2.11377
2.2178
2.38897
2.45382
2.45798
2.44426
2.42192
2.39685
2.38052
2.36879
2.36006
2.34725
2.33252
2.31452
2.2974
2.28458
2.27343
2.26056
2.24431
2.22418
2.20155
2.18649
2.183
2.18853
2.21086
2.24403
2.26797
2.26884
2.26707
2.26636
2.26752
2.26662
2.26317
2.25687
2.24708
2.23859
2.23315
2.22697
2.21796
2.21035
2.20639
2.20755
2.22342
2.26025
2.2893
2.30789
2.31506
2.30937
2.2983
2.29023
2.28659
2.28438
2.28281
2.2818
2.28084
2.27905
2.27361
2.26473
2.25721
2.25394
2.25345
2.25408
2.25598
2.25623
2.25426
2.24854
2.23572
2.21917
2.20398
2.1848
2.61294
2.59755
2.57738
2.55371
2.53041
2.50552
2.47514
2.4394
2.40688
2.37995
2.35208
2.3215
2.28935
2.26222
2.23615
2.20711
2.17267
2.1396
2.12139
2.13425
2.24192
2.39116
2.45072
2.4451
2.42114
2.39745
2.38184
2.37019
2.3599
2.34542
2.32803
2.30838
2.29386
2.2818
2.26968
2.25433
2.2346
2.21193
2.19435
2.18764
2.192
2.21463
2.25136
2.27728
2.27886
2.27457
2.27181
2.27305
2.2733
2.26816
2.26121
2.25261
2.24361
2.23751
2.23288
2.228
2.22112
2.21235
2.20372
2.19551
2.19587
2.21407
2.24981
2.28423
2.30519
2.30541
2.29771
2.28783
2.28284
2.27861
2.27649
2.27492
2.27292
2.26887
2.2611
2.25244
2.25022
2.25043
2.25359
2.25726
2.25839
2.25764
2.25418
2.24556
2.23084
2.21266
2.1976
2.18431
2.61003
2.59832
2.58294
2.5649
2.54648
2.52488
2.49773
2.46838
2.44052
2.41329
2.38749
2.36042
2.32866
2.29496
2.26724
2.24593
2.22141
2.18895
2.15043
2.13069
2.1461
2.25114
2.39256
2.43539
2.42075
2.3994
2.38405
2.37218
2.36041
2.34557
2.3268
2.30571
2.29086
2.27865
2.26505
2.24743
2.22727
2.20825
2.19698
2.19969
2.22014
2.2587
2.28882
2.29282
2.28695
2.28103
2.27943
2.27818
2.27258
2.26582
2.25651
2.24781
2.2429
2.23931
2.23643
2.23276
2.22813
2.22008
2.2058
2.19064
2.18862
2.19128
2.2117
2.24763
2.28507
2.29892
2.29519
2.28718
2.28091
2.27571
2.27153
2.2689
2.26589
2.25922
2.24967
2.24651
2.24649
2.24759
2.24833
2.24829
2.24796
2.24683
2.24291
2.23389
2.21956
2.20412
2.19385
2.19054
2.60481
2.59624
2.5847
2.57131
2.55629
2.53724
2.51369
2.48959
2.46619
2.44298
2.41614
2.3866
2.35755
2.32829
2.30065
2.27541
2.25349
2.22791
2.19172
2.15018
2.13757
2.15541
2.25977
2.38827
2.41541
2.40169
2.38633
2.37266
2.35989
2.34571
2.32757
2.30552
2.2897
2.27579
2.2585
2.23966
2.22456
2.21178
2.21212
2.23017
2.26673
2.29966
2.30781
2.30451
2.29579
2.29052
2.2857
2.28003
2.27301
2.26441
2.25572
2.24988
2.24627
2.24524
2.24452
2.24081
2.2349
2.22356
2.20772
2.19377
2.1879
2.18723
2.19254
2.21229
2.24902
2.28145
2.28708
2.28518
2.28257
2.2764
2.27032
2.26602
2.26093
2.25153
2.24518
2.24454
2.24427
2.24464
2.24365
2.24194
2.23973
2.23551
2.22778
2.21636
2.2035
2.19723
2.19374
2.20596
2.59917
2.59261
2.58429
2.57467
2.56221
2.5458
2.52628
2.50642
2.48656
2.46489
2.4398
2.41051
2.3803
2.35454
2.33088
2.30628
2.28023
2.2513
2.21954
2.18203
2.14936
2.14497
2.16595
2.26797
2.37733
2.39388
2.38778
2.37349
2.35926
2.34531
2.32874
2.30818
2.28984
2.27168
2.25035
2.23505
2.22814
2.22549
2.24292
2.2808
2.31398
2.32273
2.32187
2.31514
2.30519
2.29709
2.29008
2.28257
2.27454
2.26706
2.26138
2.25749
2.25507
2.25398
2.24971
2.24404
2.23626
2.22473
2.21311
2.20456
2.19734
2.19235
2.19134
2.1948
2.21108
2.24342
2.2659
2.27954
2.28497
2.28147
2.2743
2.26658
2.25805
2.24808
2.24411
2.24342
2.24262
2.24179
2.23925
2.23548
2.23032
2.22221
2.21036
2.19969
2.19397
2.19424
2.20164
2.22892
2.59466
2.58931
2.58358
2.57656
2.56657
2.55284
2.53692
2.52007
2.50233
2.48145
2.45683
2.4293
2.402
2.37682
2.35302
2.32915
2.3026
2.27329
2.24026
2.20728
2.17383
2.14977
2.14618
2.16904
2.26716
2.35602
2.37839
2.3713
2.35749
2.34317
2.32816
2.3103
2.28911
2.26544
2.24518
2.2361
2.23708
2.25334
2.29336
2.32907
2.3405
2.33901
2.33382
2.32632
2.31554
2.30426
2.29504
2.28787
2.28167
2.27653
2.27363
2.27191
2.26781
2.262
2.25532
2.24732
2.23741
2.22834
2.22293
2.21795
2.21182
2.20568
2.19867
2.19013
2.18966
2.20256
2.23177
2.26148
2.28438
2.28595
2.27967
2.26838
2.25695
2.24837
2.24396
2.24255
2.24072
2.23773
2.23326
2.22708
2.21885
2.20825
2.19875
2.19211
2.1925
2.20225
2.22149
2.25162
2.5919
2.58749
2.58327
2.57807
2.57008
2.55907
2.54597
2.53112
2.51378
2.49348
2.46968
2.444
2.41972
2.39615
2.37152
2.34496
2.31687
2.28791
2.25893
2.23025
2.19906
2.16559
2.14337
2.13772
2.16407
2.25657
2.33176
2.35951
2.35272
2.3398
2.32467
2.3057
2.2826
2.25656
2.24383
2.24417
2.25701
2.30175
2.34232
2.35747
2.35724
2.35315
2.346
2.33718
2.32648
2.31464
2.30562
2.29935
2.29526
2.29255
2.2876
2.28191
2.27578
2.26874
2.26038
2.25113
2.24272
2.23793
2.23556
2.23279
2.2269
2.21823
2.20622
2.19045
2.18495
2.1868
2.20306
2.23314
2.27112
2.28548
2.28189
2.26963
2.2581
2.25043
2.24497
2.24208
2.23861
2.23306
2.22515
2.21586
2.20826
2.20113
2.19529
2.19659
2.20533
2.22562
2.24941
2.26621
2.59031
2.58656
2.58329
2.57922
2.57283
2.56411
2.55306
2.53929
2.52201
2.50194
2.4801
2.45696
2.43351
2.40976
2.38488
2.35781
2.32837
2.29836
2.27135
2.24631
2.22
2.18808
2.15369
2.13103
2.12444
2.15516
2.23941
2.31762
2.34204
2.33334
2.31643
2.29408
2.26771
2.24881
2.2468
2.25657
2.30243
2.35593
2.37369
2.37222
2.37124
2.3666
2.35906
2.35039
2.34007
2.32941
2.3217
2.31538
2.3095
2.30407
2.29792
2.29126
2.28431
2.27633
2.26735
2.25948
2.25462
2.25129
2.24738
2.24223
2.23517
2.22532
2.21227
2.19874
2.19039
2.1885
2.19201
2.20709
2.23746
2.26981
2.27515
2.26856
2.26129
2.25433
2.24716
2.24207
2.2366
2.22845
2.21727
2.20929
2.20399
2.20073
2.20364
2.2163
2.23547
2.25827
2.27387
2.27157
2.58923
2.58571
2.58288
2.57943
2.57435
2.56754
2.55787
2.54486
2.52838
2.50924
2.48904
2.46765
2.44464
2.41986
2.3933
2.3655
2.337
2.30884
2.28208
2.25683
2.23162
2.20385
2.17009
2.13706
2.11417
2.11226
2.14461
2.22733
2.30364
2.31531
2.30151
2.27912
2.25068
2.24503
2.25244
2.29338
2.36356
2.39105
2.38922
2.38377
2.3817
2.37888
2.37322
2.36555
2.35647
2.34771
2.33955
2.33114
2.32316
2.31578
2.30865
2.30137
2.29407
2.28661
2.27964
2.27401
2.26869
2.26268
2.25602
2.24874
2.23983
2.22952
2.21923
2.20988
2.20222
2.1952
2.19063
2.19045
2.20139
2.2286
2.25245
2.26195
2.26347
2.2578
2.24901
2.24105
2.2337
2.22465
2.21404
2.20792
2.20621
2.21038
2.22638
2.24688
2.26957
2.28274
2.28196
2.27372
2.58851
2.58465
2.5818
2.57877
2.57476
2.5695
2.56119
2.54918
2.53377
2.51621
2.4969
2.47585
2.45273
2.42735
2.39986
2.37121
2.34318
2.31655
2.29085
2.26542
2.23991
2.21276
2.1823
2.1484
2.11933
2.09918
2.09963
2.13304
2.21783
2.26967
2.27664
2.25942
2.23938
2.24357
2.27499
2.3524
2.40379
2.40703
2.39929
2.3931
2.38949
2.38797
2.38502
2.37926
2.37212
2.36458
2.35575
2.34575
2.33622
2.32745
2.31949
2.31225
2.30554
2.2996
2.29409
2.28857
2.28202
2.27333
2.26239
2.25091
2.24153
2.23425
2.22792
2.22151
2.21376
2.2027
2.19044
2.18347
2.18129
2.19114
2.2156
2.23883
2.25739
2.2581
2.249
2.2383
2.23039
2.22197
2.21841
2.2174
2.22353
2.23953
2.25975
2.27753
2.2934
2.29248
2.28771
2.27376
2.58815
2.58366
2.58079
2.57814
2.57499
2.57084
2.56372
2.55244
2.53835
2.52174
2.50264
2.4814
2.45789
2.43208
2.4045
2.37643
2.34912
2.32261
2.29643
2.27036
2.24446
2.21838
2.19127
2.16116
2.12945
2.10191
2.08382
2.08546
2.11861
2.18281
2.23434
2.23155
2.23272
2.25482
2.32581
2.40219
2.41938
2.41173
2.40352
2.3993
2.39618
2.39502
2.39324
2.3891
2.38336
2.37608
2.36664
2.35632
2.34777
2.34004
2.33192
2.32419
2.31749
2.31197
2.30621
2.2993
2.29074
2.27959
2.26685
2.25534
2.24681
2.2404
2.23438
2.22729
2.21837
2.20583
2.19064
2.18134
2.17589
2.17286
2.18229
2.20217
2.22867
2.24717
2.24685
2.23531
2.22935
2.22725
2.23208
2.24246
2.26067
2.27888
2.29005
2.30057
2.30131
2.29617
2.28833
2.27436
2.58784
2.58301
2.58009
2.57785
2.57543
2.57191
2.56602
2.55656
2.54317
2.52665
2.50739
2.48559
2.46148
2.43539
2.40815
2.38086
2.35405
2.32749
2.30074
2.27369
2.24684
2.22091
2.19595
2.17044
2.14216
2.11202
2.08416
2.06401
2.06182
2.08875
2.15415
2.19358
2.22293
2.2943
2.38313
2.4243
2.42104
2.41298
2.40711
2.40463
2.40261
2.40106
2.39861
2.39452
2.38879
2.3807
2.37226
2.36479
2.3582
2.35175
2.34415
2.33611
2.32796
2.31983
2.31216
2.30372
2.29402
2.28388
2.27339
2.2632
2.25387
2.24525
2.23754
2.2291
2.21855
2.20588
2.19233
2.18136
2.17323
2.16731
2.1636
2.16982
2.18748
2.21458
2.23287
2.23269
2.23642
2.2467
2.26238
2.28014
2.29642
2.30736
2.31434
2.31424
2.30942
2.29983
2.2888
2.27472
2.58748
2.58252
2.57948
2.5772
2.57471
2.5711
2.56584
2.55816
2.54566
2.52935
2.51019
2.48827
2.46402
2.43813
2.41144
2.38444
2.35724
2.32984
2.30244
2.27528
2.24879
2.22342
2.19951
2.17595
2.15099
2.12173
2.08893
2.05894
2.03214
2.03446
2.07085
2.1447
2.22617
2.35202
2.4214
2.4237
2.41743
2.41126
2.40873
2.40812
2.40673
2.40419
2.40062
2.39532
2.38791
2.38073
2.37476
2.37025
2.36704
2.36152
2.3538
2.34432
2.33326
2.32188
2.31159
2.3033
2.29572
2.28767
2.27955
2.27092
2.26091
2.24957
2.23783
2.22664
2.21574
2.20508
2.19445
2.18378
2.17261
2.1625
2.1555
2.15132
2.15643
2.17527
2.20531
2.23038
2.25607
2.28038
2.30135
2.31389
2.31545
2.31874
2.32007
2.31769
2.30904
2.29851
2.28801
2.27411
2.58748
2.58253
2.57961
2.57773
2.57579
2.5732
2.56901
2.56094
2.54837
2.53156
2.51158
2.48951
2.46537
2.43992
2.41377
2.38688
2.35917
2.33096
2.30301
2.27591
2.25001
2.22534
2.20209
2.17957
2.15645
2.12889
2.09429
2.05879
2.01475
2.01389
2.0262
2.09089
2.22653
2.39246
2.44545
2.43197
2.42014
2.4138
2.41092
2.40916
2.40757
2.4042
2.39808
2.39116
2.38535
2.37995
2.37501
2.37357
2.37301
2.36668
2.35892
2.34824
2.33213
2.31815
2.30977
2.303
2.29676
2.28979
2.28191
2.27299
2.26217
2.24919
2.23534
2.22347
2.21386
2.20498
2.19572
2.18493
2.17215
2.15973
2.15075
2.14377
2.14224
2.15107
2.1808
2.22675
2.2719
2.30779
2.32798
2.33629
2.34119
2.33714
2.33477
2.32513
2.31185
2.29782
2.28751
2.27365
)
;

boundaryField
{
    inlet
    {
        type            fixedValue;
        value           uniform 1;
    }
    outlet
    {
        type            inletOutlet;
        inletValue      uniform 1;
        value           nonuniform List<scalar> 
24
(
2.2362
2.23318
2.22331
2.21224
2.20303
2.19732
2.19584
2.19734
2.19451
2.18867
2.18309
2.18309
2.18993
2.20594
2.22951
2.25235
2.26666
2.27167
2.27373
2.27364
2.2743
2.27444
2.27354
2.27304
)
;
    }
    bottom
    {
        type            zeroGradient;
    }
    top
    {
        type            zeroGradient;
    }
    obstacle
    {
        type            zeroGradient;
    }
    defaultFaces
    {
        type            empty;
    }
}


// ************************************************************************* //
