/*--------------------------------*- C++ -*----------------------------------*\
  =========                 |
  \\      /  F ield         | OpenFOAM: The Open Source CFD Toolbox
   \\    /   O peration     | Website:  https://openfoam.org
    \\  /    A nd           | Version:  7
     \\/     M anipulation  |
\*---------------------------------------------------------------------------*/
FoamFile
{
    version     2.0;
    format      ascii;
    class       volScalarField;
    location    "5.7";
    object      p;
}
// * * * * * * * * * * * * * * * * * * * * * * * * * * * * * * * * * * * * * //

dimensions      [1 -1 -2 0 0 0 0];

internalField   nonuniform List<scalar> 
3328
(
101.823
19.3099
12.936
12.9864
13.0107
13.0378
13.0694
13.1057
13.1445
13.1857
13.2302
13.2769
13.3267
13.3829
13.4499
13.5232
13.5955
13.6643
13.7256
13.7938
13.8321
13.8831
13.9157
13.9356
101.791
19.3128
12.9296
12.9795
13.0045
13.0323
13.065
13.1027
13.1422
13.1839
13.2287
13.2759
13.3263
13.3821
13.4467
13.5163
13.5847
13.6496
13.7081
13.7733
13.8109
13.8624
13.8972
13.919
101.742
19.2989
12.9207
12.9703
12.9967
13.026
13.0602
13.0988
13.1385
13.1796
13.2236
13.2704
13.3207
13.3752
13.4359
13.5
13.5631
13.6219
13.6754
13.7365
13.7747
13.8311
13.872
13.8996
101.666
19.2791
12.9083
12.9579
12.9861
13.0176
13.0536
13.0934
13.1335
13.1735
13.2155
13.2605
13.3094
13.3615
13.4172
13.4746
13.532
13.5856
13.6362
13.6924
13.7276
13.7794
13.8154
13.8408
101.572
19.2497
12.8941
12.9437
12.9742
13.0078
13.0454
13.0861
13.1259
13.164
13.2028
13.2441
13.2899
13.3383
13.3884
13.4381
13.4887
13.5344
13.5782
13.6184
13.642
13.6866
13.7197
13.7558
101.47
19.2173
12.8794
12.9286
12.9607
12.9957
13.034
13.0748
13.1137
13.1491
13.1836
13.2198
13.2606
13.3037
13.3473
13.3877
13.4308
13.4678
13.5077
13.5405
13.5672
13.5978
13.6072
13.5888
101.368
19.1858
12.8658
12.913
12.9451
12.9795
13.0167
13.0562
13.0936
13.1265
13.1566
13.187
13.2218
13.2584
13.2953
13.3256
13.3608
13.3887
13.4211
13.4344
13.4329
13.3937
13.3721
13.3935
101.265
19.1559
12.8536
12.8972
12.9272
12.9586
12.992
13.0277
13.0625
13.0933
13.1199
13.1453
13.1744
13.2038
13.2342
13.2549
13.2798
13.2965
13.3127
13.3087
13.2916
13.2583
13.197
13.4399
101.152
19.1244
12.8425
12.8812
12.9072
12.9334
12.9601
12.9896
13.0199
13.048
13.0719
13.0937
13.1184
13.1419
13.1659
13.1793
13.1916
13.1968
13.1947
13.1799
13.1312
13.0458
12.6146
12.1135
101.022
19.0853
12.8315
12.8642
12.8853
12.9054
12.9243
12.9459
12.9693
12.9928
13.0139
13.0334
13.0542
13.0732
13.0909
13.0996
13.1002
13.0956
13.0787
13.0445
12.9711
12.8173
12.5821
12.1447
100.875
19.0338
12.8192
12.846
12.8612
12.8754
12.8878
12.902
12.9175
12.9346
12.9513
12.968
12.9845
12.9989
13.0098
13.0139
13.0077
12.9946
12.9683
12.9142
12.8284
12.6409
12.4634
12.1121
100.72
18.9711
12.8047
12.824
12.8331
12.8435
12.8524
12.8621
12.871
12.8815
12.8923
12.9044
12.9153
12.9231
12.9257
12.9215
12.911
12.8913
12.8606
12.7977
12.703
12.5389
12.3838
12.1381
100.565
18.8991
12.7894
12.7978
12.801
12.8083
12.8173
12.8263
12.8319
12.8368
12.8423
12.8491
12.8542
12.8536
12.8455
12.829
12.8102
12.7834
12.7491
12.6892
12.5942
12.4666
12.3016
12.1543
100.408
18.8137
12.7716
12.7643
12.7641
12.7691
12.7804
12.7915
12.7977
12.7993
12.8001
12.8024
12.8035
12.7966
12.7782
12.748
12.714
12.6758
12.6338
12.576
12.4898
12.3838
12.25
12.1193
100.24
18.7283
12.7442
12.7241
12.7273
12.7312
12.7422
12.755
12.7639
12.7649
12.7621
12.7596
12.7577
12.7484
12.7255
12.6859
12.6365
12.5827
12.5272
12.4641
12.383
12.2887
12.1815
12.0677
100.055
18.6661
12.6836
12.6883
12.6991
12.7008
12.7059
12.7178
12.7293
12.7306
12.7244
12.7159
12.7096
12.6995
12.6783
12.6386
12.582
12.5163
12.4464
12.3712
12.2848
12.1908
12.0898
11.9949
99.8563
18.5785
12.6214
12.6659
12.6798
12.6755
12.6723
12.683
12.6963
12.6978
12.687
12.6707
12.6569
12.6437
12.6255
12.5923
12.5399
12.4733
12.3971
12.3115
12.2145
12.1106
12.003
11.9009
99.6337
18.5031
12.5879
12.6366
12.6467
12.6385
12.6368
12.6514
12.6673
12.6689
12.6524
12.6274
12.6031
12.5824
12.5625
12.5359
12.4941
12.4366
12.3658
12.2795
12.1762
12.0601
11.9377
11.8162
99.3951
18.4915
12.5779
12.6017
12.6029
12.594
12.5962
12.6177
12.6396
12.6431
12.6225
12.5894
12.5544
12.5226
12.4941
12.4671
12.4339
12.3883
12.3301
12.2532
12.1537
12.0333
11.8999
11.7564
99.1722
18.527
12.5588
12.555
12.545
12.54
12.5468
12.5752
12.6053
12.6112
12.5895
12.5538
12.5141
12.4722
12.431
12.394
12.3593
12.3196
12.2718
12.2088
12.1227
12.0078
11.8728
11.7196
98.9944
18.5771
12.5193
12.5023
12.4826
12.4792
12.4897
12.5229
12.5589
12.5645
12.5417
12.5094
12.4741
12.431
12.3802
12.3279
12.2798
12.2343
12.1873
12.1318
12.0589
11.9579
11.8325
11.6831
98.8659
18.6115
12.4798
12.4485
12.4204
12.4195
12.4342
12.4677
12.4996
12.5
12.4743
12.4466
12.4223
12.3888
12.3385
12.2748
12.2084
12.1467
12.0895
12.031
11.9615
11.8698
11.7556
11.6194
98.7586
18.6194
12.4571
12.4052
12.3698
12.3709
12.3888
12.4147
12.4326
12.4234
12.3936
12.3663
12.3502
12.3316
12.2937
12.2309
12.1531
12.0738
11.9996
11.93
11.8545
11.7611
11.6462
11.5157
98.6462
18.5975
12.4412
12.3744
12.3428
12.3485
12.3618
12.3687
12.3643
12.3441
12.3108
12.2807
12.2655
12.2571
12.2361
12.1861
12.11
12.0228
11.9346
11.851
11.7649
11.6641
11.5387
11.3969
98.5204
18.5548
12.4032
12.3519
12.3461
12.3583
12.3572
12.338
12.3095
12.2774
12.2395
12.2051
12.1853
12.1787
12.1689
12.1345
12.0703
11.9874
11.8955
11.8028
11.7079
11.6004
11.4653
11.3057
98.3889
18.4718
12.325
12.3497
12.3759
12.3865
12.3671
12.3274
12.2802
12.2341
12.1886
12.1511
12.1297
12.1213
12.11
12.0799
12.027
11.9562
11.8709
11.7772
11.6779
11.5687
11.4323
11.2635
98.2404
18.3564
12.2728
12.357
12.4018
12.4035
12.3756
12.3286
12.2715
12.2116
12.1615
12.1301
12.1125
12.0954
12.0696
12.0293
11.9783
11.9212
11.8545
11.7728
11.6731
11.5596
11.425
11.2608
98.0663
18.2318
12.2598
12.3615
12.4025
12.4026
12.3732
12.3262
12.2718
12.2186
12.1805
12.1576
12.1339
12.098
12.0479
11.9902
11.9327
11.8819
11.8323
11.7706
11.6825
11.5691
11.4323
11.2736
97.887
18.1738
12.2764
12.3517
12.3787
12.3704
12.3411
12.3049
12.2715
12.2538
12.2426
12.226
12.1851
12.1208
12.0413
11.9601
11.8894
11.8374
11.799
11.757
11.6869
11.5808
11.4439
11.2875
97.7355
18.2036
12.2953
12.3216
12.3183
12.2972
12.2745
12.2593
12.2709
12.3032
12.3167
12.2995
12.2422
12.1537
12.049
11.945
11.8574
11.7969
11.7611
11.7315
11.6776
11.5815
11.4474
11.2929
97.6303
18.3256
12.3039
12.2718
12.2231
12.1957
12.1842
12.2093
12.2788
12.3409
12.3583
12.3373
12.2743
12.1785
12.0638
11.9469
11.845
11.7726
11.7284
11.6954
11.6447
11.5596
11.4327
11.2823
97.5617
18.4808
12.2844
12.2026
12.1238
12.0982
12.1181
12.1881
12.2754
12.3324
12.343
12.3171
12.2563
12.1698
12.0676
11.96
11.8601
11.7792
11.7153
11.6576
11.5931
11.5091
11.3959
11.2573
97.4984
18.5693
12.2367
12.1381
12.0715
12.0692
12.1103
12.1796
12.2445
12.2777
12.2724
12.2373
12.1809
12.1161
12.0503
11.9834
11.9063
11.8179
11.7264
11.6324
11.5379
11.4396
11.3333
11.2128
97.4393
18.5602
12.1851
12.1105
12.0784
12.1001
12.1354
12.1719
12.1947
12.1933
12.1652
12.1176
12.0664
12.0281
12.0092
11.9986
11.9643
11.8803
11.76
11.6262
11.4921
11.3672
11.2541
11.1466
97.4065
18.4861
12.1273
12.125
12.1311
12.1592
12.1716
12.1687
12.1448
12.0981
12.0414
11.9843
11.9425
11.9344
11.9576
11.9873
11.9903
11.9279
11.7984
11.637
11.4706
11.3153
11.1841
11.0774
97.3981
18.3847
12.0968
12.1717
12.2004
12.2125
12.2059
12.1774
12.1095
12.0242
11.9415
11.876
11.851
11.8674
11.9037
11.9379
11.9537
11.924
11.8158
11.6479
11.4615
11.2847
11.1411
11.0325
97.4243
18.3015
12.1376
12.226
12.2442
12.2432
12.2214
12.1745
12.0977
12.0043
11.9144
11.8567
11.8378
11.8394
11.8503
11.8589
11.859
11.8399
11.7698
11.6364
11.4694
11.3008
11.1557
11.0333
97.4708
18.3009
12.22
12.2619
12.2612
12.2446
12.2044
12.1425
12.0751
12.0137
11.9591
11.9124
11.8784
11.8475
11.8117
11.7753
11.7395
11.7021
11.6577
11.5923
11.4931
11.3625
11.2224
11.0793
97.4977
18.339
12.2833
12.2868
12.2652
12.2221
12.1598
12.0926
12.0377
12.005
11.9918
11.9823
11.9467
11.8808
11.7964
11.7013
11.6173
11.5585
11.5218
11.5038
11.4821
11.4234
11.3121
11.158
97.5368
18.415
12.3236
12.3025
12.2542
12.1957
12.1305
12.0781
12.0495
12.0428
12.0503
12.0549
12.0169
11.9102
11.772
11.6321
11.5224
11.4729
11.4755
11.4937
11.5076
11.4844
11.388
11.2175
10.0185
11.1071
11.5574
11.7901
11.8446
11.9006
11.9516
11.9671
11.8604
12.0946
11.9095
11.9196
11.8999
11.9376
11.9614
11.9529
11.9078
11.9248
11.811
11.8697
11.8815
11.93
11.9215
11.9405
11.9986
11.9632
11.9049
11.9722
11.9622
11.9915
11.9617
11.9469
12.0269
11.9787
11.8983
11.9137
11.8985
11.9224
11.8845
11.9219
12.0102
11.9289
11.8675
11.8855
11.9012
11.9259
11.9259
11.8965
11.9846
11.8875
11.802
11.7658
11.7372
11.7137
11.703
11.7444
11.9089
11.8366
11.7394
11.6498
11.5785
11.5352
11.4363
11.7016
11.806
11.724
11.6407
11.5257
11.3707
11.1637
10.4676
8.42665
11.7016
11.5937
11.486
11.334
11.1072
10.6739
9.76171
7.75032
11.6078
11.4556
11.3035
11.1013
10.8197
10.2873
9.41322
7.61735
11.5463
11.353
11.1414
10.8854
10.5432
10.0094
9.16203
7.74732
11.5047
11.2903
11.0325
10.7259
10.3343
9.81071
9.05945
7.96554
11.4545
11.2467
10.9766
10.6427
10.2226
9.71103
9.04758
8.17576
11.3676
11.1855
10.9376
10.6145
10.1983
9.69795
9.102
8.37567
11.2458
11.0827
10.8741
10.5971
10.2189
9.74824
9.21026
8.58633
11.1329
10.961
10.7724
10.5449
10.2346
9.83089
9.36066
8.81717
11.0686
10.871
10.6738
10.4674
10.216
9.88775
9.49951
9.04242
11.0612
10.8428
10.6223
10.4066
10.1808
9.90894
9.59115
9.21335
11.0838
10.8636
10.6291
10.3935
10.1629
9.91577
9.64355
9.3275
11.1101
10.9036
10.6717
10.4251
10.1816
9.93261
9.67798
9.39899
11.1238
10.9332
10.7186
10.4755
10.2264
9.97006
9.715
9.44978
11.118
10.9394
10.7431
10.5179
10.275
10.017
9.75816
9.49579
11.0997
10.9303
10.7449
10.5358
10.3075
10.0573
9.8001
9.53818
11.0722
10.9135
10.7396
10.5429
10.3256
10.0857
9.83424
9.57612
11.0331
10.9006
10.744
10.5605
10.3494
10.1147
9.86703
9.61434
10.9856
10.8817
10.7517
10.5846
10.3858
10.1581
9.91479
9.6662
10.9452
10.854
10.7432
10.5981
10.4199
10.2107
9.97674
9.7317
10.9277
10.8255
10.7145
10.5841
10.4297
10.2485
10.0399
9.80906
10.9365
10.7953
10.6631
10.5338
10.4016
10.2583
10.0907
9.88661
10.9764
10.7864
10.6121
10.4669
10.3427
10.2235
10.0948
9.93194
11.0022
10.773
10.5645
10.4074
10.3054
10.2251
10.13
9.98375
2.37379
0.945808
0.628105
0.661971
0.842012
1.27165
1.9442
2.63497
3.01828
3.36022
3.97613
4.59277
5.57114
6.20811
6.19594
6.20034
6.32311
6.51708
6.60981
6.54374
6.40024
6.26713
6.17026
6.10841
6.03816
5.94448
5.85517
5.79161
5.73482
5.62917
5.50606
5.37678
5.25845
5.14802
5.03975
4.93045
4.81818
4.70759
4.60633
4.51518
4.43224
4.35635
4.28723
4.2193
4.14982
4.06784
3.96886
3.85392
3.73081
3.59921
3.50689
3.52456
3.68945
4.19889
5.025
5.62461
5.55821
5.45148
5.37152
5.32149
5.28383
5.25037
5.20361
5.13521
5.07062
5.02884
4.99411
4.96743
4.94754
4.91979
4.88455
4.84188
4.77236
4.67301
4.59735
4.54829
4.50724
4.47139
4.44345
4.41124
4.37624
4.33884
4.29774
4.25305
4.20567
4.15855
4.08431
3.99024
3.86962
2.47835
1.90186
1.55788
1.47707
1.53206
1.69504
1.95724
2.38587
2.91891
3.55115
4.19119
5.12444
5.93395
6.14969
6.23209
6.35654
6.49201
6.60166
6.57719
6.47746
6.3313
6.20804
6.11262
6.02627
5.9223
5.8174
5.72279
5.63866
5.56311
5.47658
5.38087
5.28496
5.18523
5.07905
4.96697
4.85434
4.74608
4.63998
4.53528
4.4345
4.34018
4.25492
4.17489
4.09671
4.01697
3.93152
3.83121
3.71332
3.59719
3.5532
3.6232
3.8711
4.28443
4.88724
5.42889
5.46582
5.40616
5.34666
5.30104
5.26309
5.22551
5.18567
5.13661
5.09203
5.05161
5.01406
4.97923
4.94168
4.90376
4.86229
4.81202
4.74595
4.66613
4.60098
4.55177
4.50985
4.47438
4.44662
4.41698
4.38218
4.34417
4.30185
4.25447
4.20061
4.14331
4.0788
4.02913
5.18508
3.74254
3.01785
2.50015
2.09198
1.90339
1.85232
1.94573
2.15989
2.54036
3.02463
3.67075
4.57943
5.62592
6.15855
6.38239
6.4095
6.45848
6.52236
6.54981
6.50425
6.42242
6.28745
6.1621
6.06007
5.96204
5.85894
5.73578
5.60205
5.49251
5.40235
5.32512
5.25256
5.16971
5.07899
4.97012
4.8592
4.76717
4.6821
4.59171
4.48752
4.36576
4.23988
4.12916
4.03778
3.95476
3.86836
3.77357
3.68628
3.62348
3.65179
3.82331
4.11671
4.33365
4.65057
5.12919
5.39729
5.41339
5.36655
5.31669
5.26867
5.20963
5.14682
5.10855
5.08215
5.05924
5.04105
5.01033
4.96523
4.90726
4.83789
4.76383
4.69522
4.64177
4.59299
4.54295
4.49813
4.46152
4.4312
4.40766
4.37958
4.34609
4.30886
4.26261
4.20086
4.12289
4.0549
4.06442
6.18134
4.94256
4.05243
3.523
3.06053
2.65513
2.46311
2.37224
2.3581
2.42246
2.52819
2.88179
3.57926
4.65525
5.80596
6.44704
6.54946
6.46237
6.46587
6.51562
6.49384
6.41804
6.28941
6.16316
6.06811
5.98005
5.87647
5.74555
5.59704
5.46828
5.374
5.29291
5.21293
5.13261
5.04153
4.93026
4.82102
4.73276
4.65279
4.57046
4.47381
4.3583
4.2373
4.12763
4.029
3.93609
3.83766
3.75735
3.716
3.7273
3.87031
4.15177
4.38056
4.40483
4.48091
4.76944
5.1892
5.35486
5.33716
5.28409
5.23187
5.17684
5.12456
5.0911
5.06652
5.04878
5.02844
5.00059
4.96005
4.89569
4.81246
4.73679
4.68505
4.64533
4.60483
4.56278
4.519
4.4726
4.4283
4.39335
4.36062
4.32661
4.2926
4.25124
4.19334
4.11737
4.08179
4.12994
6.84047
5.8907
5.02739
4.38026
3.92539
3.52559
3.12764
2.90898
2.79428
2.67282
2.65612
2.68971
2.84775
3.47304
4.82697
6.06655
6.49865
6.54137
6.4873
6.45695
6.41644
6.35414
6.28109
6.20885
6.12419
6.02267
5.89435
5.73909
5.59208
5.48058
5.38548
5.29001
5.19215
5.09426
4.99278
4.89237
4.80508
4.72551
4.64199
4.54575
4.42822
4.30282
4.18994
4.09051
3.99437
3.89669
3.80423
3.75724
3.76943
3.89144
4.17527
4.4694
4.53994
4.47526
4.41973
4.52082
4.83522
5.1702
5.27482
5.25989
5.20339
5.15006
5.11757
5.0969
5.07824
5.05422
5.02257
4.98262
4.92334
4.83803
4.75656
4.70711
4.67137
4.63464
4.59867
4.56494
4.5293
4.48989
4.44467
4.39573
4.35019
4.3107
4.27062
4.22025
4.15838
4.12732
4.14354
4.23785
7.31118
6.51781
5.81072
5.15956
4.62626
4.24794
3.89319
3.56787
3.34507
3.16512
3.03628
2.92611
2.91255
2.97495
3.52727
4.90643
6.19806
6.4897
6.52016
6.45777
6.39153
6.341
6.28568
6.21035
6.1201
6.01166
5.88278
5.75246
5.64001
5.53567
5.42823
5.31342
5.18906
5.05592
4.93621
4.84207
4.76267
4.68479
4.59786
4.49156
4.37578
4.26878
4.17657
4.08623
3.99145
3.88984
3.82526
3.81384
3.90794
4.17043
4.49584
4.65871
4.62965
4.54429
4.42105
4.39675
4.51537
4.83732
5.08917
5.20303
5.19909
5.15645
5.12194
5.10272
5.08138
5.04887
5.00513
4.94937
4.87396
4.79312
4.7416
4.70832
4.67651
4.64407
4.61163
4.57788
4.54012
4.49661
4.44542
4.38641
4.32981
4.28581
4.23928
4.18241
4.15403
4.1716
4.23216
4.35345
7.66035
6.98029
6.37805
5.79735
5.26181
4.81741
4.49597
4.20883
3.93641
3.66584
3.44778
3.29472
3.19052
3.13174
3.14309
3.5635
4.95685
6.22011
6.52086
6.43891
6.32869
6.24423
6.19965
6.15022
6.06489
5.95988
5.8514
5.74884
5.64147
5.52671
5.40601
5.28129
5.14913
5.01152
4.88597
4.78499
4.70028
4.6179
4.53033
4.43379
4.34456
4.27265
4.2006
4.11415
4.02553
3.94193
3.8963
3.93843
4.17986
4.50828
4.71551
4.73528
4.67897
4.56801
4.41791
4.31252
4.32614
4.50241
4.80609
5.05361
5.17904
5.19279
5.15386
5.10341
5.0538
5.00489
4.95488
4.89574
4.82389
4.76597
4.73131
4.70278
4.67774
4.65299
4.62373
4.59023
4.5503
4.50091
4.44025
4.37246
4.31183
4.2507
4.1943
4.16625
4.18407
4.2472
4.36529
4.46773
7.95378
7.34692
6.77551
6.2913
5.79719
5.35141
4.97067
4.70345
4.46357
4.20699
3.93204
3.71437
3.58064
3.45464
3.31034
3.26473
3.64653
5.02695
6.28473
6.44878
6.34207
6.21681
6.11721
6.04794
5.97375
5.89144
5.80939
5.71559
5.60897
5.49293
5.37041
5.24275
5.1141
4.98893
4.86383
4.74147
4.63136
4.53966
4.46206
4.4015
4.35973
4.31437
4.24346
4.15033
4.05474
3.97276
3.97332
4.17558
4.53097
4.75926
4.80244
4.7577
4.66506
4.54815
4.41334
4.30042
4.28319
4.32777
4.5277
4.82702
5.07859
5.15646
5.14257
5.08355
5.01647
4.96218
4.9151
4.8578
4.79238
4.75143
4.72286
4.69838
4.68018
4.66091
4.63533
4.60311
4.56184
4.50678
4.44057
4.36993
4.29278
4.21918
4.1831
4.1915
4.24835
4.36012
4.51391
4.55548
8.24819
7.68082
7.14715
6.65213
6.21572
5.80852
5.4341
5.10415
4.85482
4.63942
4.41191
4.17679
3.93965
3.76781
3.60648
3.43782
3.41627
3.80207
5.08678
6.22946
6.39118
6.23089
6.08113
5.97294
5.88793
5.81985
5.74695
5.66268
5.56242
5.44379
5.32253
5.20724
5.09466
4.98071
4.85392
4.71968
4.60006
4.50701
4.44177
4.39474
4.34371
4.27424
4.18557
4.09449
4.03038
4.01628
4.17361
4.54051
4.81917
4.87609
4.83261
4.74305
4.62821
4.52167
4.43314
4.34958
4.29894
4.30636
4.3832
4.58964
4.90881
5.07576
5.08529
5.04035
4.98473
4.93446
4.89146
4.83903
4.77961
4.74603
4.72085
4.69915
4.68463
4.66801
4.64521
4.6161
4.57284
4.50629
4.42993
4.35435
4.27672
4.21657
4.21088
4.2561
4.35972
4.49621
4.61342
4.60809
8.54555
8.03312
7.52328
7.02057
6.58789
6.19736
5.83616
5.50898
5.21323
4.96336
4.77244
4.58385
4.36538
4.11272
3.92848
3.7475
3.57021
3.54547
3.91618
5.14042
6.15508
6.22774
6.06635
5.93515
5.8354
5.763
5.68658
5.60081
5.50264
5.38675
5.26977
5.17059
5.07877
4.97498
4.84664
4.70539
4.59056
4.50669
4.43797
4.37145
4.28931
4.20188
4.11117
4.05195
4.02452
4.17123
4.54804
4.88836
4.96692
4.92497
4.82738
4.7138
4.60826
4.53069
4.48419
4.4374
4.37688
4.34155
4.34642
4.41919
4.64321
4.90919
4.99743
4.9894
4.96205
4.92238
4.88091
4.82996
4.77543
4.74784
4.72813
4.70547
4.68531
4.66948
4.6476
4.6089
4.55236
4.48217
4.41228
4.34697
4.28487
4.25786
4.28401
4.37494
4.49509
4.60259
4.65606
4.62994
8.79495
8.35056
7.89098
7.42162
6.96921
6.57501
6.20696
5.86597
5.5737
5.29826
5.04809
4.86809
4.70254
4.49398
4.25433
4.03575
3.81597
3.64498
3.64235
4.02176
5.173
6.02239
6.00196
5.90438
5.80813
5.72487
5.63021
5.53295
5.4331
5.33346
5.24063
5.15247
5.06017
4.95543
4.83174
4.70221
4.59278
4.50224
4.42166
4.32403
4.21392
4.10875
4.0391
4.01885
4.14669
4.54372
4.95761
5.07361
5.03322
4.93514
4.81534
4.70483
4.63132
4.58747
4.56087
4.52535
4.46595
4.40447
4.3346
4.30254
4.37251
4.59349
4.81315
4.91474
4.94074
4.91895
4.87713
4.82203
4.77544
4.7557
4.74075
4.71612
4.6828
4.64302
4.60044
4.55127
4.49514
4.43584
4.38627
4.34937
4.33279
4.35652
4.44061
4.55392
4.63127
4.66513
4.66864
4.62171
8.97669
8.59517
8.1901
7.7642
7.34446
6.94539
6.56901
6.20294
5.87959
5.61463
5.35954
5.11605
4.92832
4.77003
4.57049
4.34092
4.10066
3.85791
3.70874
3.71643
4.08242
5.14537
5.78471
5.84837
5.80371
5.69942
5.58896
5.47287
5.37184
5.2922
5.22104
5.13956
5.04324
4.93058
4.80615
4.68636
4.58169
4.49101
4.38594
4.25754
4.12921
4.02385
4.00571
4.09796
4.48036
4.96823
5.19188
5.17079
5.07808
4.94056
4.81367
4.74038
4.69488
4.66247
4.62943
4.5848
4.51812
4.41749
4.30034
4.20931
4.20484
4.30538
4.53878
4.77798
4.90864
4.91864
4.87601
4.80932
4.77144
4.75421
4.73859
4.71234
4.67517
4.62846
4.56562
4.48647
4.41369
4.36744
4.34969
4.35513
4.4061
4.50092
4.64665
4.73394
4.74709
4.70231
4.65509
4.59042
9.09582
8.76827
8.41354
8.02875
7.64366
7.26832
6.89585
6.52916
6.17637
5.87988
5.63652
5.39401
5.15893
4.95117
4.78404
4.59568
4.38072
4.14358
3.88922
3.73965
3.75524
4.1094
5.03187
5.63177
5.76675
5.67555
5.54877
5.42627
5.33045
5.24749
5.16154
5.07028
4.97577
4.87534
4.76753
4.65933
4.55707
4.44706
4.31388
4.17275
4.0572
4.01128
4.06578
4.40293
4.91814
5.25466
5.28903
5.22565
5.09145
4.94887
4.85908
4.80275
4.75518
4.71087
4.66117
4.59806
4.50978
4.3907
4.26548
4.17548
4.1567
4.18407
4.30775
4.56614
4.82239
4.89864
4.86898
4.80151
4.76279
4.74177
4.72221
4.69713
4.66188
4.60568
4.52366
4.42925
4.35035
4.31862
4.32234
4.37418
4.48799
4.64601
4.78827
4.8314
4.80699
4.72145
4.64287
4.57839
9.17334
8.88252
8.5686
8.22787
7.87826
7.52288
7.16457
6.80634
6.45931
6.14582
5.8746
5.63125
5.39532
5.16576
4.94191
4.75627
4.58294
4.39134
4.1666
3.90453
3.73945
3.75026
4.08916
4.8973
5.50933
5.61726
5.51894
5.38516
5.27667
5.18421
5.09462
5.00208
4.90824
4.81462
4.72019
4.62128
4.51093
4.37662
4.22833
4.1001
4.03642
4.07082
4.36672
4.88405
5.27445
5.37102
5.3246
5.20882
5.07577
4.98259
4.91456
4.84721
4.78242
4.7161
4.64419
4.56431
4.46409
4.35954
4.26024
4.18109
4.14672
4.14912
4.21571
4.37587
4.65743
4.8261
4.84776
4.80367
4.76149
4.73101
4.70152
4.67384
4.63434
4.56887
4.48143
4.39448
4.32517
4.3107
4.33693
4.43366
4.58293
4.74084
4.83978
4.84974
4.80981
4.73453
4.65239
4.58442
9.22984
8.96049
8.67658
8.37284
8.06032
7.72937
7.38121
7.03822
6.70006
6.38921
6.11387
5.84599
5.58777
5.35216
5.13039
4.91914
4.728
4.55453
4.37476
4.15005
3.88599
3.72183
3.72428
4.02231
4.757
5.40377
5.43926
5.33476
5.20928
5.10846
5.01612
4.92907
4.84343
4.75426
4.66226
4.55833
4.42956
4.28328
4.14594
4.06998
4.08948
4.33499
4.88411
5.31559
5.4202
5.37334
5.27924
5.15738
5.07211
5.01144
4.94425
4.87068
4.7854
4.69148
4.5961
4.50262
4.42336
4.34878
4.28593
4.23772
4.19248
4.17388
4.19443
4.25314
4.42571
4.64168
4.77047
4.79399
4.77497
4.73786
4.68824
4.63566
4.58348
4.51501
4.44027
4.38165
4.34543
4.35352
4.40883
4.53553
4.6829
4.77657
4.82991
4.83089
4.79137
4.7398
4.67739
4.59621
9.27747
9.0187
8.75309
8.47657
8.19694
7.8938
7.56247
7.23207
6.91259
6.59889
6.31678
6.05259
5.77642
5.50717
5.28301
5.08297
4.88698
4.69208
4.49645
4.30439
4.08063
3.8426
3.69203
3.68921
3.94567
4.66245
5.21062
5.21985
5.14425
5.03792
4.94054
4.85755
4.77551
4.69044
4.59476
4.46927
4.32264
4.18395
4.10377
4.11047
4.30675
4.83997
5.36629
5.50002
5.44038
5.3254
5.20655
5.13052
5.0723
5.01496
4.95199
4.88037
4.7814
4.66196
4.55501
4.47186
4.40743
4.36805
4.34782
4.33033
4.28683
4.24265
4.19632
4.15414
4.20004
4.36329
4.58181
4.73283
4.77302
4.75257
4.68705
4.5985
4.51324
4.45282
4.40794
4.39242
4.40401
4.45885
4.55797
4.6865
4.76792
4.76996
4.7732
4.78475
4.7645
4.73605
4.6997
4.61722
9.31944
9.06607
8.81049
8.55115
8.29324
8.01476
7.7046
7.39707
7.09526
6.7899
6.49128
6.21575
5.94446
5.67198
5.42014
5.20579
5.01046
4.8167
4.62282
4.42095
4.20865
3.98775
3.78439
3.65879
3.6419
3.87171
4.5226
4.91237
5.01358
4.97136
4.87875
4.78867
4.69982
4.60926
4.49347
4.3499
4.20529
4.1259
4.12701
4.27789
4.77038
5.34893
5.55822
5.53645
5.41681
5.26823
5.17937
5.11759
5.07003
5.02113
4.96033
4.88196
4.77903
4.66002
4.55109
4.47679
4.4384
4.42432
4.43198
4.41223
4.36184
4.27876
4.16144
4.06122
4.05215
4.12931
4.32309
4.58745
4.71626
4.7257
4.67428
4.55545
4.45831
4.41473
4.39715
4.41965
4.49295
4.62587
4.7759
4.86066
4.83725
4.77333
4.75783
4.74483
4.73748
4.72092
4.70282
4.63399
9.3618
9.1109
8.859
8.60822
8.35998
8.09375
7.80557
7.52522
7.25121
6.95238
6.64664
6.35756
6.08269
5.81376
5.55883
5.32628
5.10536
4.89692
4.70271
4.51686
4.32984
4.12826
3.908
3.71132
3.6016
3.57182
3.77741
4.29675
4.69678
4.86685
4.82558
4.72744
4.61732
4.503
4.36356
4.21724
4.13108
4.13332
4.25033
4.70761
5.309
5.58111
5.58514
5.49916
5.35939
5.25192
5.18102
5.12234
5.0714
5.015
4.94853
4.8671
4.77363
4.67754
4.60268
4.55324
4.52198
4.50343
4.47555
4.42365
4.34913
4.24877
4.13017
4.03339
3.99437
4.00232
4.10117
4.32938
4.56912
4.64448
4.61308
4.5102
4.43199
4.40691
4.414
4.47372
4.60685
4.81614
4.94753
4.98787
4.93559
4.83141
4.76442
4.74112
4.71805
4.69922
4.68419
4.63199
9.41699
9.16682
8.91259
8.6594
8.40716
8.14291
7.87469
7.61787
7.36734
7.0855
6.77927
6.48389
6.20795
5.94082
5.68078
5.43209
5.19634
4.97327
4.76316
4.57232
4.40247
4.23473
4.0474
3.82889
3.62703
3.51037
3.47609
3.66189
4.10511
4.57886
4.72965
4.66582
4.52827
4.38201
4.22374
4.12795
4.12899
4.21622
4.62875
5.29034
5.61983
5.61484
5.52854
5.42698
5.34312
5.27746
5.21775
5.15408
5.08703
5.00986
4.92808
4.84664
4.77831
4.73267
4.70471
4.66844
4.61376
4.53703
4.45301
4.37659
4.29216
4.20261
4.11484
4.03526
3.97913
3.95949
3.97634
4.07612
4.28849
4.45509
4.48985
4.47133
4.45238
4.43347
4.45626
4.54111
4.72974
4.93377
5.01311
5.02229
4.9786
4.91673
4.83258
4.75274
4.71359
4.68311
4.66462
4.61924
9.48481
9.23602
8.9787
8.7149
8.44579
8.17667
7.92059
7.67475
7.43738
7.17785
6.88876
6.59893
6.32166
6.05375
5.7889
5.52494
5.26872
5.03334
4.82262
4.63197
4.45591
4.29189
4.129
3.94237
3.7269
3.53448
3.41328
3.39089
3.55208
3.97452
4.45729
4.52328
4.42267
4.2589
4.12247
4.11684
4.18469
4.54147
5.22304
5.66675
5.69247
5.58932
5.48294
5.40787
5.35582
5.31984
5.26741
5.19645
5.09581
4.99147
4.91069
4.85538
4.82461
4.81712
4.78238
4.72629
4.64584
4.5349
4.40761
4.2998
4.22688
4.17131
4.11352
4.06159
4.01057
3.96263
3.91279
3.9084
4.00716
4.18812
4.34943
4.43938
4.47273
4.48048
4.52892
4.65599
4.84928
4.97559
5.02134
5.03179
5.00605
4.96926
4.90879
4.81027
4.71805
4.67402
4.65394
4.6113
9.56527
9.31026
9.04292
8.76597
8.48073
8.20763
7.9553
7.71149
7.47424
7.23537
6.96507
6.69039
6.41937
6.15027
5.87959
5.60533
5.33492
5.08701
4.87113
4.68039
4.50462
4.33693
4.16982
3.9952
3.80625
3.60701
3.44064
3.33794
3.30445
3.4315
3.84602
4.1715
4.251
4.14441
4.10709
4.15825
4.46916
5.1328
5.66166
5.72488
5.66135
5.56297
5.48892
5.44162
5.41762
5.37724
5.31415
5.21319
5.09161
4.99242
4.92935
4.88423
4.86101
4.83422
4.78528
4.72523
4.64063
4.50974
4.37183
4.27952
4.21519
4.16695
4.12789
4.08846
4.04209
3.98409
3.90235
3.84795
3.86469
3.97739
4.17079
4.37466
4.45729
4.52003
4.63654
4.81593
4.93608
4.98064
5.0162
5.0179
4.99265
4.95965
4.91136
4.84305
4.76317
4.69077
4.65243
4.61063
9.64975
9.38674
9.10437
8.80902
8.5131
8.23774
7.98323
7.73706
7.49754
7.27722
7.03148
6.76822
6.50048
6.22914
5.95142
5.66891
5.39156
5.1378
4.91561
4.71772
4.5341
4.3592
4.19167
4.02888
3.86219
3.68101
3.50017
3.34202
3.23456
3.18371
3.26916
3.58246
3.93463
4.00325
4.11961
4.43511
5.02396
5.59141
5.78029
5.72823
5.65218
5.59632
5.55926
5.52357
5.47149
5.40445
5.30454
5.19001
5.09084
5.02625
4.96947
4.90792
4.83952
4.78372
4.73299
4.67162
4.58457
4.47668
4.37721
4.29248
4.22962
4.18868
4.15982
4.12903
4.07862
4.00454
3.91816
3.84476
3.82289
3.8613
3.99721
4.21908
4.40807
4.5575
4.76224
4.94761
5.00863
5.00032
4.99074
4.97226
4.94732
4.92152
4.88784
4.84619
4.80272
4.74784
4.68647
4.61154
9.71403
9.44719
9.1507
8.84181
8.53959
8.25324
7.9781
7.72342
7.49965
7.3037
7.07422
6.81131
6.54763
6.27831
5.99919
5.71621
5.44006
5.1832
4.95132
4.74212
4.54954
4.36935
4.19953
4.04131
3.89064
3.74001
3.57272
3.3934
3.21959
3.08753
2.99734
3.10713
3.44326
3.83417
4.31021
4.96045
5.55156
5.70711
5.73254
5.69787
5.66369
5.65873
5.64244
5.59082
5.50453
5.38506
5.26252
5.17266
5.11018
5.05903
5.00279
4.93667
4.85421
4.75629
4.65868
4.56987
4.49814
4.44232
4.39017
4.34214
4.29489
4.24443
4.18992
4.12989
4.07076
4.00217
3.94062
3.89098
3.84868
3.82815
3.88029
4.04928
4.30038
4.56727
4.8531
5.00826
5.03522
5.0201
4.98142
4.9286
4.89536
4.86851
4.84536
4.82795
4.80896
4.78184
4.73735
4.63195
9.76521
9.48819
9.18116
8.8683
8.56356
8.2734
8.0097
7.76693
7.54614
7.34774
7.11266
6.84946
6.58493
6.31054
6.03002
5.75097
5.47905
5.21769
4.9734
4.75244
4.55266
4.36924
4.19865
4.04346
3.90077
3.76659
3.61987
3.44309
3.24381
3.0447
2.89716
2.89897
3.05122
3.62997
4.48898
5.34375
5.97306
5.87666
5.72462
5.67955
5.68548
5.70492
5.66915
5.61143
5.5086
5.3479
5.23516
5.17323
5.12507
5.07398
5.01147
4.94054
4.84383
4.70409
4.57331
4.49588
4.44743
4.41536
4.41173
4.39289
4.35152
4.28632
4.18897
4.10827
4.05905
4.02192
3.98177
3.93661
3.86765
3.81199
3.78202
3.87543
4.15121
4.5285
4.88134
5.06619
5.08466
5.05016
4.97686
4.88404
4.83977
4.82335
4.81434
4.81745
4.8278
4.80709
4.7701
4.64547
)
;

boundaryField
{
    inlet
    {
        type            fixedValue;
        value           uniform 1;
    }
    outlet
    {
        type            zeroGradient;
    }
    bottom
    {
        type            zeroGradient;
    }
    top
    {
        type            zeroGradient;
    }
    obstacle
    {
        type            zeroGradient;
    }
    defaultFaces
    {
        type            empty;
    }
}


// ************************************************************************* //
